mpid,formula,BG,FE,e_hull,fidelity
mp-1027410,Te2Mo2SeS,0.0,-0.5721428596093752,0.0571370508333322,0
mp-849797,B6H10C2SBr,4.5166,-0.3502684303256253,0.0,0
mp-973890,HoHfRu2,0.0,-0.5777290424999997,0.0,0
mp-759141,LiBi(PO3)4,4.4313,-2.520405396798941,0.0628430472222358,0
mp-10632,TlS,0.0,-0.2806954495312501,0.3065758051562555,0
mp-12625,U2TeO2,0.0,-2.5100479005000027,0.0,0
mp-771032,Na2CuAsCO7,0.0,-1.7312604488541676,0.0,0
mp-780905,Li2Co4O7F,0.0,-1.6159111660671428,0.0949748077678567,0
mp-996992,LiAgO2,0.468699999999999,-1.0950547031249998,0.0220342112499984,0
mp-690521,K3CrF3,0.0644,-2.0911208355100004,0.4396535857142858,0
mp-767824,Li2Mn(BO3)2,1.4258,-2.435435628572121,0.0849188906818145,0
mp-574176,Ba(InAu)2,0.0,-0.5661098264999996,0.0,0
mp-29804,Cr3GeC,0.0,-0.073087476500001,0.0314244577499991,0
mp-4384,Nb2CS2,0.0,-1.117113045124998,0.017143831791671,0
mp-765684,Na5Mn11O24,0.0,-1.841087549639,0.0910296782713091,0
mp-864623,ZnCuAu2,0.0,-0.1405238587499999,0.0,0
mp-12904,HoAgTe2,0.901799999999999,-0.9087018450000004,0.0,0
mp-862605,Rb4Zr6CCl18,1.265199999999999,-2.226262953661379,0.0,0
mp-698494,K2BiH5(CO2)5,4.112,-1.470341408395652,0.1183069059782591,0
mp-568436,Sr7GeN6,1.1313,-0.7525501153057144,0.0,0
mp-756437,SrLaBr5,3.0472,-2.037200117857143,0.0438412560714267,0
mp-28838,U3(SiC)2,0.0,-0.227972557857143,0.0,0
mp-697742,MnP2O7,1.069,-2.371489362590048,0.0262267299999985,0
mp-762403,Li2Cr2SiO6,2.847,-2.5882028047727275,0.0597290654545377,0
mp-504849,Cs2Li2SiO4,3.8531,-2.491301838333333,0.0,0
mp-776497,Li2La3Ti2Nb2O13,0.0,-3.3237022108901524,0.1077889554261339,0
mp-626547,Ti3H2O7,2.8908,-2.8954092221658336,0.091422386666661,0
mp-541073,SmSI,2.4395,-2.0357260738541663,0.0,0
mp-35591,LiErS2,1.988699999999999,-2.1823293007812508,0.0104445874999994,0
mp-761656,Li4Co(PO4)2,2.8352,-2.5321987604126983,0.0799195087499997,0
mp-765100,Li8Mn6(FeO6)3,0.0,-1.9503661980931437,0.1704566345714226,0
mp-38683,Co2NiO4,0.0,-1.2306799764285716,0.0,0
mp-22031,EuSnPd,0.0,-0.8079655808333328,0.0,0
mp-757173,Sb5O7F,3.078,-1.791274337303077,0.0795758698557698,0
mp-770162,Li2FePCO7,2.4693,-2.341984454320436,0.014589368072909,0
mp-21075,HfC,0.0,-0.9435570162500008,0.0,0
mp-11200,LaMg2Ni,0.0,-0.2413661149999999,0.0,0
mp-6226,NaSn4(PO4)3,3.7411,-2.3655811874642856,0.0,0
mp-779376,Na2V2O5,0.9734,-2.3118277470833326,0.0871982961944368,0
mp-677391,Tm4Zr3O12,4.164999999999999,-3.996787600526317,0.0,0
mp-19687,RbLa(MoO4)2,3.8742,-2.624457901249999,0.0,0
mp-11229,YAl,0.0,-0.41955691125,0.0125858524999991,0
mp-27948,Ge(BiTe2)2,0.8887,-0.1859597992857143,0.0049232257142861,0
mp-2596,NpN,0.0,-1.2968241105649998,0.0,0
mp-571511,HgH10C3Br3N,2.6161,-0.4058204729766659,0.0685949861805559,0
mp-985281,CsIr,0.0,1.85874303,1.85874303,0
mp-2409,Ni5Sb2,0.0,-0.1681914228571425,0.0,0
mp-675073,Na4PtO4,0.0,-1.3905415577777778,0.1061288761111116,0
mp-7262,ZnAs2,0.224899999999999,-0.1548307687500004,0.0,0
mp-764312,VOF2,2.1599,-2.8073182134074997,0.0627829392187511,0
mp-779898,Na6NiO4,1.290599999999999,-1.3525406131818185,0.0189721361363677,0
mp-29091,Ti(CuS)4,1.4256,-0.9052128036574076,0.0,0
mp-764401,MnFe(PO4)2,0.8949,-2.43018892976254,0.0126362645833513,0
mp-568322,Sr3Li3(NiN)4,0.0,-0.6155277392514285,0.0,0
mp-29736,YAlGe,0.0,-0.6670195958333333,0.0,0
mp-743133,NiH12(BrO7)2,3.038,-0.9613496024462072,0.0040628113074703,0
mp-542443,TlCr3S5,0.0,-1.0329003883680563,0.0,0
mp-4725,Nd(GePd)2,0.0,-0.8342260374999995,0.0,0
mp-31367,LiClO2,2.6926,-1.252509177065,0.1142227968750013,0
mp-5517,Tb(NiP)2,0.0,-1.0211508099047613,0.0,0
mp-12608,CuPt7,0.0,-0.0755558349999994,0.0,0
mp-677138,RbPHO3F,4.7535,-2.5037439982721774,0.0284540333928511,0
mp-862943,NaPmHg2,0.0,-0.3716413381249999,0.0,0
mp-971966,Zn3Sb,0.0,0.1682125350000001,0.1816719178125001,0
mp-558393,Rb2Nb3Cl7O5,2.3515,-2.460080402592352,0.0,0
mp-648193,CSN2OF2,3.8453999999999993,-1.0558974923741669,0.1945120046533333,0
mp-1023948,TeMoSe,0.4673,-0.4408741778645837,0.0294143916666653,0
mp-561966,Rb2U(N2O7)2,1.7696,-1.7193820365247623,0.0024979486772487,0
mp-861868,KNaLaTaO5,3.7157,-3.1674833556944444,0.0,0
mp-698289,BH11AuC4IN2,1.958699999999999,-0.2659661670623322,0.231345272531251,0
mp-14587,ZnP4,0.966299999999999,-0.0885610284761902,0.0607305815119065,0
mp-30521,ThCN,1.5202,-1.0693662716266654,0.1051450258333339,0
mp-780790,Li2Mn2Si2O9,0.8885999999999991,-2.4806393597113336,0.0879337412333374,0
mp-632723,MgPHO9,0.0,-0.6867407248304366,0.8605165204166685,0
mp-997570,H6CIN,4.0743,-0.4581595732333336,0.05788047375,0
mp-568134,Cs2CdI4,2.8586,-1.1821880614285711,0.0,0
mp-23651,Na4Al3Ge3IO12,3.4006,-2.565022276304348,0.0,0
mp-28746,Pr3RuI3,0.020599999999999,-1.0106837678571428,0.0,0
mp-565791,FePO4,2.6721,-2.4243037805158743,0.0035179254166664,0
mp-12007,HoCdCu4,0.0,-0.2488396166666664,0.0,0
mp-566925,BaFe2P2O7F2,3.9301999999999992,-2.864050885880034,0.0,0
mp-781134,V2OF5,1.5417,-3.0495266752749997,0.0026641062499992,0
mp-2108,Ti5Si3,0.0,-0.7666237135416667,0.0,0
mp-976326,NaInAg2,0.0,-0.0792726937499996,0.0157700508388152,0
mp-559786,NaAs4BrO6,3.049699999999999,-1.639270837500001,0.0,0
mp-3118,Mg3TeO6,2.9101,-2.5632575812500007,0.0,0
mp-782701,Co3(O2F)2,0.0,-1.434050530264444,0.1210273922222216,0
mp-565757,Gd2WO6,3.1124,-3.263442183888889,0.0,0
mp-761412,BaMnO3,0.8081,-2.470249625941999,0.0108080846666602,0
mp-997036,CdAuO2,0.8887,-0.9102910681249998,0.0,0
mp-28109,SbAsO3,3.502499999999999,-1.7131478752499991,0.0,0
mp-8759,Cs2ZrO3,3.854,-2.758912947291668,0.0,0
mp-773211,Li3FeSiCO7,2.5351999999999992,-2.4195177727884616,0.035648036153856,0
mp-627401,CdI2,2.3569,-0.583683233,0.0084537655555554,0
mp-769960,Li4Co3WO8,1.9309999999999992,-1.9281423562499995,0.0553092087499997,0
mp-643257,K2H4Pd,2.6477,-0.3753912677828569,0.0,0
mp-775094,Li2MnFe3O8,0.0,-1.6687232922114268,0.2784706119196443,0
mp-768152,NaZrPCO7,4.0075,-2.7528838735768395,0.0386230822727284,0
mp-14556,SmCd(BO2)5,4.4709,-2.9096295712254903,0.0047437038970663,0
mp-581403,K3Na4Si3BF22,6.9785,-3.3950454961468677,0.0029743694444421,0
mp-16990,Ba10P6SO24,3.188,-3.279718199576437,0.0,0
mp-2767,TiGa,0.0,-0.4637243033333336,0.0,0
mp-952,MoPt2,0.0,-0.3805407766666657,0.0,0
mp-505807,Nd5Co21B4,0.0,-0.1749947924722221,0.0220130724108536,0
mp-765236,Li5V4O12F,2.4582,-2.448841233463183,0.0573649961363749,0
mp-1018724,HoCuSn,0.0,-0.5503608516666674,0.04742194833333,0
mp-657749,MnAgO4,0.3114,-0.2039221005766661,0.864209180694445,0
mp-25512,CsCrH18Br2N6(ClO4)2,3.5666,-0.8035345372621042,0.3677685386316085,0
mp-6632,Ca5B3O9F,4.2439,-3.3897470231911107,0.0,0
mp-566104,K8UCr4(NO12)2,2.102,-2.071538674481026,0.0,0
mp-769517,NaMnPCO7,0.6353,-2.175982568436841,0.020643337500001,0
mp-977433,ErMgZn2,0.0,-0.3249992662500003,0.0,0
mp-9117,Sr2YTlCu2O7,0.0,-2.2594018743269237,0.0128753893269202,0
mp-12027,TaTlSe3,0.3102,-0.6382792631562502,0.0210421603333328,0
mp-764589,LiFe2(BO3)2,1.7538999999999991,-2.3631151484848485,0.0529681881250248,0
mp-865920,YbPmZn2,0.0,-0.3365228393749997,0.0,0
mp-630867,RbLiNd2(MoO4)4,3.411299999999999,-2.5851572014583333,0.0,0
mp-585305,Li9Bi3P8O29,4.1806,-2.5865197384900385,0.0469104103231297,0
mp-766361,Nb2O5,2.1388,-3.038857163607144,0.014189757999997,0
mp-706612,BH5(NF2)2,6.204,-1.677601137023889,0.1034427919163834,0
mp-14796,KPt2Se3,0.9428,-0.6485743176302089,0.0,0
mp-557894,SiO2,5.718299999999999,-3.2689560410416667,0.0157568664583322,0
mp-755592,K2TbO3,0.0,-2.4181238478472227,0.0,0
mp-757967,LiSn4P7O24,0.3184,-2.4335020239351857,0.0879390758565143,0
mp-21313,Mn3GaC,0.0,-0.1109981335,0.0,0
mp-1027070,Te2Mo(WS2)3,0.0,-0.9170311986979176,0.0984025825000012,0
mp-572794,ReP(Cl2O)3,1.8656,-1.5465514467186587,0.0,0
mp-975609,Li2TlPb,0.0,-0.2406165437499998,0.0117309800000002,0
mp-775167,FeCu(PO4)2,0.0,-2.1421120880158733,0.0373619616406237,0
mp-15652,Rh3(PbS)2,0.0,-0.5593297068749996,0.0,0
mp-767637,LiCrCO3F2,2.766299999999999,-2.3889931485787503,0.089239908125001,0
mp-779125,DyP5O14,5.3851,-2.839790122607144,0.0122190206250003,0
mp-554850,Mn2O7,1.8058,-0.9006752759077775,0.3063707165277769,0
mp-560563,K3(PdO2)2,0.0,-1.3475305050000002,0.0,0
mp-32565,Tb4H9,0.0,-0.7594238169933339,0.0018512137179458,0
mp-766803,CrOF,2.149,-2.55206926498,0.1034171097222165,0
mp-755084,Na6MgO4,1.9733999999999992,-1.7279308345454547,0.0193444549999988,0
mp-771625,Mn2Co5O12,0.0,-1.3475485966799998,0.1056381992105199,0
mp-763076,FeOF,0.7301000000000001,-2.2177436613688903,0.0629402844444424,0
mp-685007,Tb5Te9,0.213499999999999,-1.0124658854761903,0.1801199150000005,0
mp-753785,NbOF3,3.2629,-3.2809133549639986,0.0334751815000009,0
mp-2804,LaP2,0.557999999999999,-1.0949778958134917,0.0,0
mp-764237,LiVOF3,1.6839,-2.908134827053333,0.0885359129563587,0
mp-1008471,CdTe,0.0,-0.2805474050000001,0.1819753474999998,0
mp-768015,LiMnCoO4,0.0,-1.8126496987085707,0.0259436059523814,0
mp-8322,Mn2ZnAs2,0.0,0.0883410150000003,0.3033944680000005,0
mp-776526,Cr2O3,2.3438,-2.31145986525,0.0381152084999989,0
mp-631631,Mn5V2Pb3O16,0.5634,-2.028301506338463,0.0031912095953607,0
mp-976138,PrDy3,0.0,0.0171574874999995,0.0171574874999995,0
mp-1002184,TcB,0.0,0.7175548816666666,1.104384883636362,0
mp-778554,Li2MnF4,3.8539,-3.0684536486742853,0.0294770407142861,0
mp-16762,PrB3,0.0,-0.0305103750000004,0.4815243308333335,0
mp-767980,Li3Fe3NiO8,0.0,-1.7571388620000004,0.0413142281250005,0
mp-20778,Dy2Be2GeO7,4.4623,-3.304478051423612,0.0,0
mp-624243,Fe6W6C,0.0,-0.0591692094230762,0.0,0
mp-505391,Li6CoCl8,0.322899999999999,-1.8630763937386663,0.0087954560000009,0
mp-859129,Li5Si2BiO8,2.760099999999999,-2.5841399421875,0.059441767265624,0
mp-8937,CrSi2,0.0,-0.3747758833333326,0.0,0
mp-19282,Sr2ZnWO6,3.402,-2.67133677925,0.0184613493999918,0
mp-570197,Bi2Pd,0.0,-0.20611873,0.0269413883333324,0
mp-998712,TlGeF3,3.15,-2.294863859714,0.0284613469999994,0
mp-560851,CsIOF4,4.9407,-2.1926934090728567,0.0,0
mp-912,LaPt2,0.0,-1.078844116666667,0.0,0
mp-20635,TbIn5Rh,0.0,-0.4347585619047618,0.0,0
mp-13567,CeS2,0.0,-2.143947347708334,0.0099987683333351,0
mp-19079,CoO,0.0,-1.3100111206249991,0.0200619774999957,0
mp-541053,SiI2,2.2811,-0.3063499731666667,0.0259376662777799,0
mp-792971,Li2MnVP2(O4F)2,0.0,-2.749850304658154,0.0168027610937206,0
mp-767015,Li2VSiO4,1.75,-2.623880591249999,0.0774324485576931,0
mp-5639,Mg2SiO4,4.7521,-3.164113153571428,0.0718819196428564,0
mp-18684,KPF6,7.2209,-3.1105967906544048,0.0010840324999978,0
mp-767959,LiCo2(PO4)2,0.671199999999999,-2.28584618047619,0.0139649962500145,0
mp-13679,PdF3,0.0,-1.5915217708925002,0.0,0
mp-6211,RbLiSO4,5.2348,-2.412020098080357,0.0,0
mp-1992,Pu5Ru3,0.0,0.0545043544531242,0.0545043544531242,0
mp-8208,Mg(PtO2)3,0.2984,-1.3923653027499996,0.0,0
mp-22450,Li2PbO3,1.044,-1.8011033914583343,0.0,0
mp-20756,LaTiGe,0.0,-0.6116925355555551,0.0,0
mp-9743,SrAsPd,0.0,-0.967821965,0.0,0
mp-669688,U3Ga5,0.0,-0.0661350924999997,0.116051117916669,0
mp-569246,Tl2HgGeTe4,0.088599999999999,-0.1906420943749998,0.00859705046875,0
mp-559484,Ba11(OsO6)4,0.0,-2.550312696025641,0.0,0
mp-764673,Na3VO4,3.8995,-2.2900243525000006,0.0189991325000002,0
mp-29411,Na2B2S5,2.5898,-1.0688159306828713,0.0,0
mp-13163,TbZnSn,0.0,-0.5966014144444447,0.0,0
mp-560458,Rb2U2O7,1.6672,-3.3175963607954557,0.0,0
mp-40685,NaSm3Ti2(SbO7)2,2.2791,-3.136981292196971,0.0,0
mp-975284,RbIrO3,0.0,-1.20837614075,0.0431565640000002,0
mp-16036,Tb2TeO2,1.1715,-3.257671049833334,0.0,0
mp-721328,CaAsH3O5,3.9496,-2.001761850711,0.0140252543333199,0
mp-973878,Lu3Ga5Ni,0.0,-0.6491236555555561,0.0,0
mp-780395,Cd(BO2)2,2.901,-2.4621990250000003,0.0302487626785694,0
mp-697126,Ca4(H4Rh)3,0.0,-0.6741943738652628,0.0,0
mp-780399,Na6B4Sb2PO16,0.0,-2.415686778784893,0.081277221901165,0
mp-567593,KBH4(CN4)2,4.7975,-0.2793068645429173,0.2343853221033321,0
mp-1029258,Ca(ZnN)2,0.497099999999999,-0.5228311949519991,0.0,0
mp-31427,ErInNi,0.0,-0.5131525627777778,0.0,0
mp-29676,Dy3AlC,0.0,-0.3909422554999999,0.0,0
mp-3173,CaAlSi,0.0,-0.3782676266666669,0.0030531999999983,0
mp-10901,Al3Pd2,0.0,-0.7709104040000001,0.0,0
mp-699501,Ba(HO)2,3.744999999999999,-2.114856059047999,0.0123749271500006,0
mp-570062,ZrTiSe4,0.0,-1.2036324518402786,0.0199240533333329,0
mp-755416,HoGaO3,3.6065,-3.15598467725,0.0493176456999933,0
mp-581934,Pu3Ge,0.0,-0.20908035140625,0.0,0
mp-21601,Tb(SiNi5)2,0.0,-0.4398802787179484,0.0,0
mp-14323,Ba3Ho4O9,3.2561,-3.5982133563281256,0.006817370312496,0
mp-696490,Ca2H2S2O7,5.0825,-2.3727107708934603,0.0731518857692323,0
mp-556066,Sr2LiSiO4F,4.7908,-3.380541437354444,0.0063989893055618,0
mp-627,NpSe,0.0,-1.0586487086718748,0.0,0
mp-21503,YMgIn,0.0,-0.4220122408333332,0.0,0
mp-545,TiS,0.0,-1.5316205328645838,0.270434267499998,0
mp-685014,In2Br3,2.1261,-0.7663492958749998,0.0,0
mp-29973,SrN,0.0,-0.7164162261899998,0.0,0
mp-743629,K4Na2FeH3F12,4.0785,-2.7334287322790907,0.0284397040909043,0
mp-763201,V6O7F5,0.0,-2.750002457205556,0.0378065838889032,0
mp-19109,FePO4,2.7015,-2.425696427738096,0.0021252781944447,0
mp-561814,RbB5O8,5.9404,-2.849729745059523,0.0,0
mp-21207,LaInNi2,0.0,-0.4189393237499992,0.0,0
mp-772440,Li2Mn(BO2)5,1.2029,-2.6681206228774066,0.052534257612832,0
mp-631473,KTi2Bi,0.0,0.7349837679166659,0.920770035555555,0
mp-504791,P(WO4)2,1.1591,-2.365175104372294,0.0001502661363854,0
mp-1029113,Te2MoW3(SeS2)2,0.0,-0.7476668069531248,0.0917231616666685,0
mp-13972,Sm2SeO2,2.1358,-3.3399565592187512,0.0,0
mp-971684,C3N4,1.181499999999999,0.0778856214971434,0.0778856214971419,0
mp-999298,Pd3Au,0.0,-0.0611702250000005,0.0,0
mp-559776,Li5La3Ta2O12,3.971899999999999,-2.965660098863637,0.2941457294696956,0
mp-777904,Li2Ti3CrO8,0.0,-3.0452803767857146,0.0324528790498757,0
mp-1495,ErIr2,0.0,-0.8245211983333339,0.0,0
mp-973335,Hg2H6CN3Cl5,2.442,-0.7827751928035295,0.0003909247677453,0
mp-631518,ZrBTe,0.0,0.7601930511111105,1.6968082183333326,0
mp-15221,Rb2NbCuS4,2.0005,-1.4016077270312506,0.0,0
mp-977138,NaTc3,0.0,0.7546147537499994,0.7546147537499994,0
mp-554094,CaMg2(SO4)3,5.7585999999999995,-2.6251110073437505,0.0,0
mp-18695,Fe15Co,0.0,-0.0052391550000017,0.0060219831249987,0
mp-556866,Ag2HgSI2,1.2212,-0.3490105306770834,0.0,0
mp-631509,ZrBeCd,0.0,0.7809010766666665,0.9470356406666668,0
mp-862780,K2InP2S7,1.870199999999999,-1.073438809968998,0.0,0
mp-568525,Sr2SnSe5,0.907999999999999,-1.1762845692773434,0.0,0
mp-27274,AsCF3,3.3193,-1.5016285612140003,0.4940265694999999,0
mp-755492,NaCuP2O7,0.7036,-2.2476131904491345,0.0,0
mp-849498,Li5Mn6(BO3)6,0.0,-2.485638567093144,0.0370261936904565,0
mp-23719,BeAlH5,3.203999999999999,-0.1170992597285709,0.0101118923809524,0
mp-694541,FePO4,2.6559999999999993,-2.395973614682541,0.0318480912500005,0
mp-705414,Fe13O14,0.0,-1.3807997358333333,0.3328308138888865,0
mp-17730,K2SnO3,2.1206,-1.9752965443749992,0.0,0
mp-28913,Ti6CCl14,0.9476999999999992,-1.9920732894352384,0.0,0
mp-555100,NbBiO4,2.5161,-2.532842013749999,0.0,0
mp-771951,Ba3La2Br12,3.2308,-2.0937819764705883,0.0386848533088217,0
mp-650841,GaBr2,3.3765,-0.7680319847222221,0.010339266111111,0
mp-716814,Fe2O3,0.0,-1.3589897024166675,0.5271754253333336,0
mp-770597,Cd(NiO2)2,0.125,-0.9432666257142858,0.0,0
mp-8732,Ta2Se,0.0,-0.4474812811979163,0.0,0
mp-2827,YCo5,0.0,-0.0994719620833339,0.0208966771212129,0
mp-601924,BiH24C6(I2N)3,2.782299999999999,-0.398560345288,0.0687974769999995,0
mp-996942,Ba6In2NF,0.0,-0.9735640098570002,0.0,0
mp-17678,Sr(ScS2)2,1.356999999999999,-2.388090195892857,0.0,0
mp-223,GeO2,3.2493,-2.093891209166667,7.392000000017163e-05,0
mp-677733,K2TiAl(PO4)3,2.899499999999999,-3.0054387737343364,0.0,0
mp-5936,La(SiRh)2,0.0,-1.0712522819999997,0.0,0
mp-617266,SrNb4O6,0.0,-2.718834459318181,0.0251408380302979,0
mp-8999,NbNiTe5,0.0,-0.3296544107142856,0.0,0
mp-631436,VOsCl,0.0,0.6422644239133343,1.4937094314814816,0
mp-23918,NaGaH4,4.7345,-0.1963925624133331,0.0,0
mp-10033,NbS2,0.0,-1.4552039243750012,0.0,0
mp-850556,La3Nb8O24,0.0,-3.290304113428572,0.0255231381529341,0
mp-9628,KCdF3,3.3579,-2.733533053214,0.0,0
mp-754364,Y2CuO4,0.0,-3.068142965714286,0.0532615314285713,0
mp-758868,MgBP(H3O4)2,5.3032,-2.13453959145972,0.0,0
mp-974581,ReBiO3,0.0,-1.2195239447500008,0.5218732474999985,0
mp-773974,Li6Ti15Co3O32,0.0,-3.0703552955357147,0.0848329618155094,0
mp-558869,CdFeC5N6O,2.739,0.224286724605,0.4986539870552393,0
mp-644302,NaHSeO4,3.435399999999999,-1.491699879959107,0.0,0
mp-760172,Na7Ti16O32,0.0,-3.1764832416666664,0.0221915923484701,0
mp-558309,K4SnSb2F14,4.0813,-2.9617067472219056,0.0,0
mp-10781,RbGdSe2,1.3089,-1.7414719892968753,0.0,0
mp-767221,LiFe2(PO4)2,1.4302,-2.442343778168499,0.0532879900961287,0
mp-1570,YFe2,0.0,-0.0822938275000003,0.0,0
mp-695830,Na2Cu(HO)4,0.5799000000000001,-1.4212976185890902,0.0262789264393932,0
mp-771461,MnV4CuO12,0.0,-2.1523483531088896,0.0216396412500099,0
mp-753148,Li2Cu7F16,0.0,-1.9532461507616,0.0802594561999994,0
mp-568286,C,2.077499999999999,0.0055456435937504,0.0055456435937504,0
mp-561268,As3Pb2ClO6,3.393,-1.6592894740216664,0.0,0
mp-976264,Li3Nd,0.0,0.195639065625,0.195639065625,0
mp-559210,Ca5Te3O14,1.6785,-2.5277725519318186,0.0007691402272707,0
mp-28865,Os(SCl6)2,0.0,-0.8236133368163332,0.0,0
mp-974613,NdP3,0.0,-0.2860065254464289,0.50465713,0
mp-561443,Ba3(PS4)2,1.9872,-1.6592306206684992,0.0107217776922947,0
mp-640266,Ca3Al2O6,0.0,-2.87291697219697,0.5479646670562772,0
mp-769540,Na3Mn2P2(CO7)2,0.0,-2.2593005367656733,0.0076776895652042,0
mp-36465,Al2FeO4,2.3609,-2.907459790000001,0.0664237092857238,0
mp-863881,Li2MnP3O10,0.0,-2.5452806729841075,0.0868593638020831,0
mp-1029756,K3BN2,1.5852,-0.5531915335711108,0.0339136911111106,0
mp-775644,V3CuO8,0.8436999999999991,-2.05149186625,0.0839717149999872,0
mp-554475,LaNb2ClO6,2.5637,-3.217312552576,0.0163041968333317,0
mp-757862,K4Nb15O24,0.0,-2.5972550855813954,0.0131573394864332,0
mp-29607,Ag(TeMo)6,0.0,-0.2123854161538459,0.0,0
mp-675290,Nb9IrSe20,0.0,-0.7450773793958338,0.0431586670833334,0
mp-1924,TbSi,0.0,-0.8300953516666665,0.0,0
mp-770800,Li4Ti3Nb5O16,0.0,-2.8705237778571413,0.1157111331868243,0
mp-772919,Tm4(B2O5)3,5.683299999999999,-3.40064446675,0.0205093139300007,0
mp-4820,ZrSiO4,4.4661,-3.576829886666668,0.0,0
mp-977411,NpSnAu2,0.0,-0.2134080334374992,0.0,0
mp-673874,Ba9(NdS6)2,2.1401,-2.385352184076087,0.0448981245652166,0
mp-7449,Cs2Se3,0.7396,-0.8350244141562502,0.0,0
mp-24927,CrHO2,2.9692,-2.021311107780001,0.0,0
mp-762169,Li4Co3Ni3(SbO8)2,0.0,-1.5996464589285715,0.0291315597321428,0
mp-772137,Er2Sb2O7,1.751199999999999,-2.847350488068181,0.0157993339772879,0
mp-253,ScCo2,0.0,-0.3507086799999992,0.0,0
mp-572805,Cs2I4O11,2.9238,-1.1730177588970585,0.0,0
mp-9081,CsNdS2,2.1496,-2.1403126989062504,0.0,0
mp-980205,YB4Os,0.0,-0.5709398456944447,0.0,0
mp-850900,Li3V2(PO4)3,0.0,-2.7357797279642853,0.0031117807500038,0
mp-1019895,La3BN2O3,1.211400000000001,-2.8224936755751853,0.032262889074067,0
mp-21367,LaIn2Pd,0.0,-0.6764524274999992,0.0,0
mp-763192,V2OF5,1.6801,-3.0469066273583323,0.0052841541666666,0
mp-979046,Tm2Co12P7,0.0,-0.8092092431746034,0.0,0
mp-631525,KHg2B,0.0,0.8984167283333333,1.103154672083333,0
mp-865588,Y2CuRu,0.0,-0.316695632500001,0.0,0
mp-686949,ThCr(IO5)2,2.7038,-1.830543668571428,0.0,0
mp-556146,SnCSNF,2.8283,-0.8996631025265003,0.1233996732740028,0
mp-767135,LiCr2(PO4)2,0.902899999999999,-2.5214232608608067,0.0760291192948798,0
mp-866936,CaSnS3,0.2488,-1.2718997194375006,0.2133267457499998,0
mp-972071,V3Mo,0.0,-0.056589765,0.0,0
mp-21891,PrSi2Mo2C,0.0,-0.4361523329166665,0.0,0
mp-780545,Na3VO4,4.0296,-2.309023485000001,0.0,0
mp-771220,Li3Ti(CoO3)2,0.0,-2.2443589853472226,0.0716085125000001,0
mp-6499,BaLiBO3,4.3861,-2.971191610486111,0.0,0
mp-16587,Dy4Si2S3O7,2.6106,-3.3100286911002605,0.0130288732031242,0
mp-504340,LiSb(PO3)4,4.184299999999999,-2.493288027632276,0.0440224511110951,0
mp-510475,Y2Cu2O5,0.091,-2.597458034583333,0.0421655955555593,0
mp-707312,SrH6C2S2N2O3,4.3178,-1.1034157222409382,0.1104872734765614,0
mp-510232,Nd12Co6Sn,0.0,-0.1733860071052631,0.0,0
mp-683910,Ag7P3S11,1.380599999999999,-0.5162671395939621,0.012798543055557,0
mp-1009581,CrSe2,0.0,-0.4533147257291669,0.0,0
mp-743961,MnP2H36C12N6(ClO)2,4.2192,-0.4777952199306631,0.1173843614494272,0