mpid,formula,BG,FE,e_hull,fidelity
mp-644277,Fe2CuH4(OF4)2,0.9775,-2.125736353323529,0.005010612058828,0
mp-770858,V5Cr(PO4)6,0.0,-2.6296344605158737,0.0595257388889045,0
mp-779971,Li2MnFe(BO3)2,3.0082,-2.4649825280661117,0.0044691197222181,0
mp-754857,Nb2Ge2O7,1.524,-2.4192441907954545,0.094685249090908,0
mp-974843,Rb3Os,0.0,1.3989948362500004,1.3989948362500004,0
mp-676269,Yb2FeS4,0.0,-1.492451092559523,0.3930643876190469,0
mp-556515,AsSOF9,3.9252,-2.2533829667518748,0.0424602405208416,0
mp-972957,ScTiRu2,0.0,-0.6523052741666664,0.0,0
mp-9321,Ba2HfS4,0.8648,-2.3043278116071444,0.0,0
mp-10675,Ti3AlN,0.0,-1.0203514784759988,0.0171457006666599,0
mp-767946,Mn2V3Sb(PO4)6,0.0,-2.565825668485873,0.0249963305555489,0
mp-780496,Fe3OF5,1.4064,-2.547912306355556,0.0375382472222272,0
mp-556049,Sr4Br6O,4.2196,-2.367711281022728,0.0,0
mp-557775,PSN(Cl2O)2,4.0739,-1.191630619175304,0.1244016667108649,0
mp-569411,La3ScBi5,0.0,-0.8770819694444446,0.0,0
mp-962058,YSeCl,1.896299999999999,-1.4412449581179168,0.7967597169444423,0
mp-17985,Ca5(GaSb3)2,0.0,-0.7490179776923079,0.0,0
mp-541852,Co21(ReB3)2,0.0,-0.1867601886206897,0.0,0
mp-566040,In2(WO4)3,4.2459,-2.0848102347058823,0.0521586173529406,0
mp-773286,Li4Mn5NiO12,0.0154,-1.918618466354546,0.0910367643831033,0
mp-849350,LiMn3(BO3)3,0.5445,-2.410574807133125,0.092138439231757,0
mp-569892,Ca9B2(CCl2)4,1.372599999999999,-1.564173273670145,0.0,0
mp-766144,Li3V4(OF3)3,1.8959,-2.9816838515505264,0.0630578099122898,0
mp-619843,Nb2FeO6,2.218499999999999,-2.801029969166668,0.0,0
mp-4423,La2Ti2O7,2.7466000000000013,-3.7486117501893945,0.0500664445454575,0
mp-752837,LiAgF3,0.0117,-2.099270612214,0.0460205954999986,0
mp-19478,VAg2(PO4)2,2.0121,-2.1403865520146512,0.0,0
mp-281,YbCo2,0.0,-0.0615326516666669,0.0,0
mp-554878,PrSbO4,1.377799999999999,-2.185079994583333,0.6152467845833325,0
mp-10256,VTe,0.0,-0.1621171550000006,0.1450199925000026,0
mp-707060,NbCl4F,2.5076,-2.074227876955,0.0,0
mp-849235,Fe6OF11,1.5156,-2.6396333649633337,0.0220088405555545,0
mp-3318,Na2BeF4,6.6745,-3.2891765246085716,0.0,0
mp-1029259,Te2MoWSe2,0.250999999999999,-0.3848290103645825,0.0302224025000006,0
mp-861900,LiGaAu2,0.0,-0.4284784249999998,0.0,0
mp-625377,HNO,3.4135,-0.4466820790833334,0.4553119931986673,0
mp-2577,Mn3Rh,0.0,0.0697349074999991,0.1638095575000004,0
mp-622018,BAs5(Pb3O10)2,2.951599999999999,-1.8356494177083316,0.0,0
mp-566848,MnB4O7,5.0303,-2.708891002198056,0.0611683230208317,0
mp-7424,BPd2,0.0,-0.2654411555555557,0.0,0
mp-676303,NaU2Cl6,0.0,-1.922437535506666,0.1074864616666664,0
mp-5850,ErSnPd2,0.0,-0.8896292849999998,0.0,0
mp-776561,Na5Bi2As(CO4)4,0.3287,-1.8745094183928572,0.0747109850714222,0
mp-971678,Na3Ni2SbO6,2.3299,-1.7042194306250014,0.0,0
mp-7822,Sc5Si3,0.0,-0.7653936512500001,0.0,0
mp-649033,Sr5(InSb3)2,0.0533,-0.8061714946153847,0.0,0
mp-759534,LiBi2(SO4)3,0.5619000000000001,-1.958574153177084,0.0931754409635354,0
mp-686280,Nd4AlSi5(NO)7,1.6211,-1.89184757244764,0.6238587863195066,0
mp-975053,Rb3Ba,0.0,0.1400162875000001,0.1400162875000001,0
mp-684990,Al2O3,3.1115,-3.1082508747500004,0.3338626260000001,0
mp-566954,VH9C3O4,2.6859,-0.853455269857646,0.2460714745588239,0
mp-572822,TiO2,1.6966,-2.9909830263888884,0.5278479541666812,0
mp-1028674,Te4MoW3(SeS)2,0.0,-0.4627390396093756,0.0871365064583349,0
mp-768457,Sb2(SO4)3,3.6256,-1.9096994888051475,0.0082942063235211,0
mp-567062,SrLiFeF6,4.1239,-3.3944295896822214,0.0,0