mpid,formula,BG,FE,e_hull,fidelity
mp-616702,Na10Co4O9,1.3618,-1.5181378257065214,0.0,0
mp-17095,CsCuSe4,1.0932,-0.4316013844791667,0.0,0
mp-863066,Ta6Pb4O19,1.742299999999999,-2.914890979439655,0.0,0
mp-11054,RbSn,0.7438,-0.2854469081249999,0.0,0
mp-557679,KNaSi2O5,4.2837,-2.9277077706944445,0.0005290607638945,0
mp-19622,Ba3MnSb2O9,1.764299999999999,-2.577450315147334,0.0,0
mp-973662,Lu2ZnCu,0.0,-0.3160668362499996,0.0,0
mp-1030742,MoW(SeS)2,0.603699999999999,-0.9360815800520838,0.0307964758333341,0
mp-9517,SrTiN2,0.7925999999999991,-1.5537040803566669,0.0,0
mp-571279,ZrI2,0.369899999999999,-0.8949850566666674,0.0001931358333333,0
mp-569783,ErFe3,0.0,-0.1072664429166666,0.0,0
mp-625174,H5IO6,2.2527,-1.073007195466667,0.0212940188541663,0
mp-722527,AlH11SO10,5.3941,-1.744824952451412,0.0,0
mp-565430,CsFe(SO4)2,2.6754,-2.170385928177084,0.0,0
mp-17324,ZrSnS3,0.9949999999999992,-1.4992425639375009,0.0,0
mp-560334,NaAlSiO4,4.599299999999999,-3.1664587855357142,0.0,0
mp-20694,K2Pb2O3,1.690699999999999,-1.5792685162500004,0.0,0
mp-540850,TlPF6,6.3698,-2.8350360772169045,0.0,0
mp-761352,LiMnSiO4,0.9032,-2.580924621565714,0.0967814267929796,0
mp-760332,Sb6O5F8,2.9281,-2.232180545303683,0.0935340020723689,0
mp-11231,YAl3,0.0,-0.4185569806250005,0.019624951249999,0
mp-989591,K2BrCl6F,0.9144,-1.1481738635749998,0.0,0
mp-766062,LiFe2(BO3)2,1.43,-2.356371593257576,0.059711743352298,0
mp-763206,Co3OF5,0.8431000000000001,-2.1397385091333327,0.0413121620833329,0
mp-3440,Li2(LuGe)3,0.0,-0.6416257793749995,0.0,0
mp-676143,Ce5AgSe8,0.0,-1.6275277427678567,0.0235131616964299,0
mp-778307,Li2MnFe(PO4)2,3.640599999999999,-2.599694968010748,0.0011726203571296,0
mp-767930,Li2Nb2Fe3O10,1.5600999999999992,-2.402910660735293,0.0688830920588401,0
mp-578630,Ca51W12N56O3,1.7094,-1.1010937244838517,0.0,0
mp-560707,Cr2Te4O11,2.3209,-1.75828456639706,0.0,0
mp-32404,Ta2VO6,0.8707,-3.1360998958333344,0.0,0
mp-626417,CsH3O2,4.0949,-1.5354265380599994,0.0,0
mp-17210,Nb2V4Si5,0.0,-0.4006919386363628,0.1843775770000029,0
mp-676933,CeAl8O16,0.0,-2.4522332551999995,0.7748663547000003,0
mp-561256,Ba2TiOF6,3.8913,-4.0083939350056665,0.0104867735000064,0
mp-770711,GeWO4,1.0688,-1.9577072691666664,0.1053695900000022,0
mp-10143,TiB,0.0,0.7230090883333329,1.5547321937500005,0
mp-720644,PH9(NO2)2,4.8995,-1.345708273620953,4.216687500058214e-05,0
mp-26742,Cu4(PO4)3,0.0,-1.8652241789097757,0.0182009232894717,0
mp-571642,CaCl2,5.5968,-2.7840125330066656,0.0011055125000005,0
mp-775538,Li3Mn5FeO12,0.235599999999999,-2.056832328323809,0.0,0
mp-18698,CsPr(CO3)2,4.5623000000000005,-2.5573705297500013,0.0,0
mp-29197,La3Br6N,3.057499999999999,-2.0287774506130005,0.0,0
mp-7891,Mg3As2,0.8711000000000001,-0.6049823379999999,0.0188197244999996,0
mp-685050,Nb16N9,0.0,-0.9045279112567992,0.1317326705333297,0
mp-13960,Sr3Er2(BO3)4,4.476699999999999,-3.387791214484128,0.009806771726188,0
mp-867924,LiCdPd2,0.0,-0.44640037375,0.0,0
mp-18377,ZnS,2.0316,-1.1287316045312508,0.0115717499999994,0
mp-10785,RbLuSe2,2.0335,-1.705662631796875,0.0,0
mp-961661,ZrSiPd,0.7448,-0.7588216766666669,0.0945230823888918,0
mp-5899,NdAlO3,4.353999999999999,-3.68914910825,0.0,0
mp-776654,Li7V5O12,1.1547,-2.465175578125,0.0319112314583271,0
mp-758770,Li2Mg3Ti6O16,3.3131,-3.3190800657407404,0.0145689071296306,0
mp-1018764,Li3HoSb2,0.0,-0.8096125191666671,0.0,0
mp-978967,SrDy3,0.0,0.2082348324999996,0.2082348324999996,0
mp-974568,Re3Bi,0.0,0.9916885675000008,0.9916885675000008,0
mp-761615,Li2Ti(CoO3)2,0.9107,-2.1051130994696976,0.1560279193182179,0
mp-754345,LiTaO3,2.3884,-3.0561020497500015,0.0882191849999998,0
mp-850739,Fe3OF5,1.4469,-2.530981225244445,0.0544693283333375,0
mp-25700,Ca2MnAs2(H2O5)2,2.494999999999999,-2.1429392425231586,0.0,0
mp-30383,Hf2Au,0.0,-0.4409447900000008,0.0,0
mp-12305,Sc11Os4,0.0,-0.3709142349999998,0.0,0
mp-974667,Rb2H2C2O5,3.411699999999999,-1.7688436275899992,0.0443698136363703,0
mp-975468,RbAc3,0.0,0.3753144918750002,0.3753144918750002,0
mp-29748,TePdI,0.0,-0.3241970308333333,0.0,0
mp-765911,Mn7F18,0.0,-2.8182080791256,0.0373266274666592,0
mp-720432,Na2Ca9NdY5HoF41,6.1081,-4.222346992013391,0.0393553335875731,0
mp-14226,Ba2YSbO6,0.0,-1.0118719155000009,2.083966985000001,0
mp-32373,Li2Ni3(P2O7)2,4.0405,-2.3180507884730845,0.0,0
mp-556894,Rb2SbAuS4,1.535799999999999,-0.98741595796875,0.0,0
mp-761660,Li2CoP2O7,2.9702,-2.4879321874950397,0.0652887985069217,0
mp-30906,Sr2Al6O11,4.124,-3.4733808003289472,0.0046767897368571,0
mp-18337,Be3N2,3.3129,-1.225288675201999,0.0,0
mp-1014509,Cr3N2,0.0,0.5630765330480016,1.1432803819999986,0
mp-510057,Gd3NbS3O4,1.7660999999999991,-3.072783186107955,0.0181202774999995,0
mp-558717,LiUAsO6,2.2644,-2.712347482500001,0.0124646361111109,0
mp-757560,Li3Sn2(PO3)7,4.3251,-2.5072816767550496,0.0725787561111106,0
mp-999054,Ti2GaCo,0.0,-0.2024115008333336,0.2331614883333328,0
mp-762431,Li2CrSi4O11,0.525799999999999,-2.8955320015972217,0.0654142281172864,0
mp-764266,LiMnOF2,0.8498,-2.610688631168,0.1010335480000108,0
mp-865833,LaYbZn2,0.0,-0.3356179374999999,0.0,0
mp-768235,B2TeO5,3.3161,-2.2622750443229176,0.0620127547395803,0
mp-542154,Mo3Pd2N,0.0,-0.2678357028966663,0.0,0
mp-631569,BaHf2As,0.0,0.5582585812500005,1.2243005212656248,0
mp-850377,LiFeP2H5O9,3.5801,-2.0619799644744714,0.038593469722203,0
mp-606671,Nd3InC,0.0,1.6785790079999998,2.0026848939999993,0
mp-565326,KFeAs2O7,2.6999,-1.8925307494318169,0.0,0
mp-875,AlOs,0.0,-0.4140713724999996,0.0079363562499965,0
mp-779643,Li2CuPO4,1.327,-2.3039635763244046,0.0643037981250014,0
mp-865802,LuRh3,0.0,-0.5944041075000008,0.0,0
mp-773068,LiZr2(PO4)3,4.2911,-3.1788341199603183,0.0110998162499935,0
mp-641571,CeAlPd,0.0,-0.7698746373809521,0.0075378115079365,0
mp-1027335,MoWS4,1.2209,-1.2831984452083336,0.0016622925000007,0
mp-859118,LiAgF6,0.8249999999999991,-1.5314291202675,0.0,0
mp-3522,MgCuSb,0.0,-0.2733721383333337,0.0,0
mp-1020712,ZnSiN2,3.1948,-0.97029493244,0.0,0
mp-770060,Li5Fe2P2(CO7)2,1.253599999999999,-2.3600435023476187,0.0306694119999981,0
mp-762268,Li3V2O6,1.301699999999999,-2.4219308870454563,0.0836157786363527,0
mp-570921,CsLu(NbCl3)6,0.945199999999999,-1.8965516905261532,0.0,0
mp-555843,Ag3AsS3,1.6989,-0.3635355817410714,0.0235825935714277,0
mp-20011,NaSbO3,1.493399999999999,-2.0227687592500003,0.0554531154999997,0
mp-772554,Li4Nb3V5O16,0.2004,-2.6357898096428563,0.0497142802901855,0
mp-556163,Zn2SiO4,2.6857,-2.432349258571428,0.0256999019047592,0
mp-635084,LiPWO4,0.0,-1.917456107942176,0.5060009499999962,0
mp-777660,Li3Fe9O5F11,1.6456,-2.367510416226428,0.0836714983928548,0
mp-772533,FePO4F,0.0,-2.2678440348978923,0.0858453038591315,0
mp-2379,CoSi2,0.0,-0.4681386999999996,0.0029558866666663,0
mp-20346,TbInCo2,0.0,-0.2527462645833332,0.0,0
mp-15862,GaMo4CS8,0.0,-0.6423871742857149,0.4833489728316307,0
mp-27229,Sb6S2O15,3.247199999999999,-1.8866750289945649,0.0,0
mp-972217,Ti2CuTc,0.0,-0.3086454458333332,0.01306473125,0
mp-738663,Sn2H10C4N2O9F2,2.4831,-1.3933890386065513,0.0461307416379312,0
mp-774410,Li8Mn3Fe5(BO3)8,0.0,-2.449868056379445,0.0050671513541669,0
mp-573324,CsK2Ho(PO4)2,4.8777,-3.0104540650850344,0.0,0
mp-21476,Fe2N,0.0,-0.1630605607933333,0.0529048516666676,0
mp-672373,La3Co4Sn13,0.0,-0.3963218539999985,0.0,0
mp-772790,Er(Bi3O5)4,0.0,-1.765470552121212,0.0596620197537856,0
mp-771798,WO3,1.3986,-2.1786972146875003,0.0052306187499979,0
mp-780436,Li8Mn5Fe3(BO3)8,3.0049,-2.4784851528777767,0.0054829349652756,0
mp-769552,LiMgCr3Se2(SO6)4,2.4957000000000003,-2.0070024966696427,0.0010025689106942,0
mp-643776,Na2ZnH4(SeO5)2,3.0254,-1.5348065146930256,0.0,0
mp-8959,CsK2PdF5,1.866099999999999,-2.5492062573277767,0.0,0
mp-753517,SrBi5O9,0.0,-1.7743999090833342,0.0866367061666659,0
mp-778325,Li2TiV3O8,1.2078,-2.711762502261905,0.0229506478571348,0
mp-557516,K2Be2Zn2Si3O11,3.5046999999999993,-2.8252708071874992,0.0034077070000027,0
mp-569653,SnPCl9,2.4621,-1.258651181130476,0.0,0
mp-758450,LiCu3(CO3)3,0.0,-1.4755827136718755,0.0835862236718751,0
mp-559019,Nd6S4BrN3,1.274899999999999,-2.103901968456429,0.0,0
mp-752602,BiBr3,2.8714,-0.7750247424999999,0.0,0
mp-775910,ZrO2,3.316599999999999,-3.776929863833332,0.0562899486666683,0
mp-26157,LiSb(PO3)4,4.462999999999999,-2.5253014769378312,0.0120090018055396,0
mp-953,NbZn3,0.0,-0.1486630037499998,0.0,0
mp-686296,CaGd2Zr(GaO3)4,3.2017,-3.086652616750001,0.0,0
mp-5671,Sr(CoP)2,0.0,-0.834970777238096,0.0,0
mp-17,Cr,0.0,0.0678711612500002,0.0678711612500002,0
mp-780195,LiVP3HO10,2.7383,-2.4973918919003566,0.0938955376171844,0
mp-973636,Lu2ZnGa,0.0,-0.4654948537499997,0.0124517662499989,0
mp-545479,B4CCl6O,4.0675,-1.0408430595813891,0.3146223357638886,0
mp-653096,Se2S(NCl)2,1.7075999999999991,-0.1638740507185718,0.2081426222608496,0
mp-558073,Sb2SeI2F11,1.4002,-2.1860106822927348,0.0003089155166149,0
mp-579224,P4S9,2.7121,-0.6306163004956503,0.0011549815384519,0
mp-672212,NaNb13O33,1.6963,-3.0331192075797864,0.0004537063829346,0
mp-560016,NaNb2PO8,1.9724,-2.922750907966269,0.0,0
mp-859132,Li8VO5F,2.0061,-2.279153809162666,0.051570758333332,0
mp-780899,V6O5F19,2.083599999999999,-2.7508267974620004,0.0282351810833203,0
mp-31043,H5NF2,6.8966,-1.3813520534824997,0.0,0
mp-566760,LaBMoO6,3.5502,-2.896027781157408,0.0100875466388892,0
mp-674858,Co(NiS2)2,0.0,-0.6871364373214287,0.1116216971428567,0
mp-17118,Y3Ge5,0.0,-0.7206907684375006,0.0,0
mp-11011,RbNdTe4,0.1649,-0.9606071362500004,0.0013495897619053,0
mp-861956,LiPm2Ir,0.0,-0.4364525162500001,0.0,0
mp-551886,Na4CO4,2.000199999999999,-1.5733772380555555,0.304714091111113,0
mp-865944,ThSnRu2,0.0,-0.4077396287499999,0.0,0
mp-705569,NiB18(H11C2)2,1.5217,-0.1121601457697781,0.1085753714823241,0
mp-764042,Co3(OF2)2,0.0,-1.8871522702511103,0.0852408180555555,0
mp-738670,H5C2NO3,4.7722,-0.9976157782254536,0.1327500465909095,0
mp-1029031,MoW3(SeS)4,0.7807000000000001,-0.9245628575520826,0.0146966200000013,0
mp-766094,NbO2F,2.8979999999999992,-3.119210055297501,0.0668928943749893,0
mp-1028791,Te4MoW3(SeS)2,0.0,-0.4481227321093755,0.1017528139583348,0
mp-7072,Th(CoSi)2,0.0,-0.8034451420000011,0.0,0
mp-652479,LiZnPO4,4.189599999999999,-2.560814645710034,0.0004306906249924,0
mp-274,Nb5Sb4,0.0,-0.2985285411111107,0.0,0
mp-773972,Mn(SO4)2,0.2263,-1.832493889007728,0.0448259534280337,0
mp-567159,Dy6Ti4Al43,0.0,-0.3355803274842767,0.0,0
mp-641069,Pr5NiPb3,0.0,-0.4858952766666668,0.0,0
mp-680462,SiC4(SN)4,3.5356,-0.3114054535207694,0.1086779236585719,0
mp-695452,K2Al11Si13(Ag3O16)3,1.2822,-2.7312239893975905,0.1281702568072331,0
mp-774378,Li3Mn2Fe(BO3)3,2.6337,-2.4869749504538894,0.0018319507407422,0
mp-11151,NaPrTe2,1.059699999999999,-1.329589000625,0.0,0
mp-768145,DyHoO3,3.051199999999999,-3.9503817517500015,0.0901261055833319,0
mp-733849,Li2P2H2O7,5.2791,-2.403234463757472,0.0256265307051268,0
mp-772694,Li2FeSn(PO4)2,3.106499999999999,-2.4515976779421766,0.067257131726186,0
mp-774112,Li3Fe4WO8,1.1457,-1.93341087375,0.0627988932291705,0
mp-759312,MgSiH12(OF)6,5.6666,-2.081907585310769,0.0037350296153855,0
mp-861624,LiLaHg2,0.0,-0.4653173424999999,0.0,0
mp-600014,SiO2,5.7274,-3.2713895220833336,0.0133233854166654,0
mp-771229,LiMnB2O5,1.4263,-2.5225839392270357,0.0765900130903913,0
mp-651772,UTe5,0.0,-0.3461624800000009,0.0032675024999999,0
mp-1028509,Te2MoW3(SeS2)2,0.0966,-0.7473626286197922,0.0920273400000013,0
mp-761911,Li2Cu(PO3)4,0.869,-2.4533769464411024,0.0429825855701855,0
mp-7543,LiVS2,0.0,-1.4180725595312509,0.0267738960714298,0
mp-977550,ZrScOs2,0.0,-0.4813361174999997,0.0,0
mp-705524,CuH7C3SN3O4,0.0046,-0.5409631610022365,0.4279286595230314,0
mp-972351,Tl,0.0,0.0148516683333334,0.0148516683333332,0
mp-764901,Li3Ni3O3F5,0.290999999999999,-2.021162068192858,0.0769890388988097,0
mp-653602,Os3C8SO8,1.4818,-0.9332527787656246,0.1973530416875011,0
mp-20785,Nd(FeGe)2,0.0,-0.4351970554999994,0.0,0
mp-558285,GaBiO3,1.878199999999999,-1.97478599425,0.002370399875005,0
mp-1628,TeRh,0.0,-0.3171169300000001,0.0210980887499978,0
mp-767733,Li12VNi3P4(CO7)4,1.5977,-2.302441010334249,0.0545862163942283,0
mp-557121,K2Sn(AuS2)2,1.6433,-0.9784544340277784,0.0,0
mp-1029252,Te3MoWSe,0.344299999999999,-0.2715959772656251,0.0299848256249983,0
mp-510028,Nd2Fe12P7,0.0,-0.6610095462698409,0.0,0
mp-19319,ErMnO3,0.4478,-3.0622745414420014,0.0345393231666637,0
mp-13903,ZnSnF6,3.7147,-2.7689581308925004,0.0,0
mp-13499,HoMg2,0.0,-0.0596908533333335,0.0044974133333322,0
mp-25766,Mn4Be3Ge3SeO12,2.2723,-2.2910243811927704,0.0,0
mp-18891,BaV6O11,0.0,-2.6181464140972235,0.0357642614236208,0
mp-561001,SINOF2,2.1589,-1.1168823960537508,0.3228311264583317,0
mp-531811,Ho2CdS4,1.356899999999999,-1.991719904178572,0.0618416681428577,0
mp-579015,K3Mo12PO40,2.2502,-2.1533548096981283,0.0,0
mp-1018779,Li3PrSb2,0.0,-0.8434485633333336,0.0,0
mp-761330,Rb(WO3)2,0.0,-2.200886923055557,0.0326664494444486,0
mp-623837,As(CN)3,4.7106,0.5042372529085719,0.5042372529085721,0
mp-5795,CaMg2N2,1.996899999999999,-0.9461170009520004,0.0,0
mp-27691,K2PtBr6,1.1688,-0.9994271322222223,0.0,0
mp-760979,Na2Ti2O5,3.6479,-3.022361574120368,0.0325892257222237,0
mp-695793,ZnAs4(HO2)8,0.125299999999999,-1.4048455594468956,0.0834189595258596,0
mp-541,Ta3Sb,0.0,-0.0985144612499997,0.0,0
mp-774106,Li3Fe2(SiO4)2,1.511199999999999,-2.562543599,0.0619021121666563,0
mp-560459,Rb3Al2(PO4)3,4.4173,-2.9508948749642867,0.0,0
mp-775271,Li2Cr3WO8,2.1889,-2.340421521071429,0.0049612185714256,0
mp-983229,Pm2ZnRh,0.0,-0.4991602349999997,0.0,0
mp-28767,Sc5Re2C7,0.0,-0.4873905580357142,0.0,0
mp-680246,Cs4Zr3S14,1.7154,-1.5788720760416664,0.0,0
mp-752422,IClO,1.025599999999999,-0.5903013231700002,0.0618758884999994,0
mp-853266,Li3Fe9O5F11,1.1821,-2.363844427297857,0.0873374873214301,0
mp-763784,LiMn2F6,0.955,-2.8980070721177773,0.0646075788888929,0
mp-759790,Ag2Hg5,0.0,0.0644493857142858,0.0644493857142856,0
mp-773273,Li3VFe3O8,1.3331,-2.138197620666667,0.0610425926666806,0
mp-775609,V3CoSn2(PO4)6,0.0,-2.4477188352380965,0.1046916023263913,0
mp-5646,NdSnAu,0.0,-0.8376061091666666,0.0,0
mp-763392,LiP4WO12,3.7489,-2.5220511037433866,0.0315495895833271,0
mp-771122,Na2CuBSO7,0.965299999999999,-2.0381741662065966,0.0821847240224356,0
mp-764125,Li4Mn2(PO4)3,0.859599999999999,-2.59929578981932,0.0406752141666695,0
mp-23837,NdH3(CO2)3,4.189599999999999,-1.8024788433353849,0.0495368101923014,0
mp-554451,BaFeF4,3.3521,-3.4571051107933326,0.0025056666666669,0
mp-770536,Li2VH2OF5,2.5167,-2.6658093767672724,0.0593428971969709,0
mp-593,Al4Cu9,0.0,-0.2101225684615374,0.0,0
mp-553903,KNa9In2O8,1.7136,-1.6824947314999996,0.0129121021562497,0
mp-20594,CeS2,0.0,-2.142703663541667,0.0112424525000021,0
mp-767155,WO2F,0.4224,-2.3059901513391665,0.020776064407098,0
mp-698084,H4NClO4,5.2585,-0.7754289882619994,0.3493104203194441,0
mp-680047,CdI2,2.3387,-0.5907116978571432,0.0014253006984126,0
mp-761643,Li6Ni3P6WO24,2.189899999999999,-2.366332533964286,0.0815035447499967,0
mp-6706,TiTlPO5,2.647299999999999,-2.8039959352827384,0.0,0
mp-745140,VH10SO10,3.0608,-1.6525899994437494,0.0018953598569053,0
mp-771621,Li3Fe3O8,0.0,-1.6390813521428578,0.1410803201785713,0
mp-1023934,MoSe2,1.4317,-0.6689573490624999,0.0010702383333338,0
mp-755731,Ta2Pb2O7,1.6231,-2.7157798862500018,0.0270258272727268,0
mp-767290,Li6CrNiP2(CO7)2,1.845499999999999,-2.326690284565018,0.0693534298798281,0
mp-24118,H10SO8,5.508,-1.5231848879085523,0.0,0
mp-777413,CeScO3,0.0,-3.86139550125,0.0189663841249991,0
mp-560049,CuSeO3,0.0,-1.098397622802083,0.0059785511666667,0
mp-6687,Ba2HoSbO6,3.4155,-3.11698338075,0.0,0
mp-859877,LaMgI5,2.6791,-1.264537055,0.0749900364285727,0
mp-20244,ZrPbS3,1.2455,-1.5209232969375008,0.0029084075000005,0
mp-14577,Rb4Ta2S11,1.7127,-1.3687730711580883,0.0067988365686266,0
mp-631514,AlB2Pb,0.0,1.7648958291666663,1.8067190171999985,0
mp-865116,LiSmTl2,0.0,-0.3341180106249997,0.0,0
mp-11230,Y2Al,0.0,-0.3163478666666665,0.0,0
mp-24951,YbFeO3,0.0,-2.5325396142500005,0.0,0
mp-505464,Cs2Te13,0.4802,-0.2626374293333332,0.0,0
mp-628327,Fe2O3,1.492699999999999,-1.8492089232500013,0.0369562044999991,0
mp-13392,NdCu,0.0,-0.1851157137499992,0.0,0
mp-975606,InN3,0.0,2.3416705932150004,2.39330112381,0
mp-28962,Ti4Bi2O11,2.0404,-2.9794489382598046,0.0060882434558369,0
mp-20645,TbSiRu,0.0,-0.8176761877777778,0.0,0
mp-20360,PuIn3,0.0,-0.2330769517187496,0.0,0
mp-755738,Rb2O,1.6455,-1.118080532083333,0.0318392449999969,0
mp-978016,LaSn2Pd,0.0,-0.7822484450000005,0.0169611059935901,0
mp-1023938,Te2Mo,1.0502,-0.2680710533333332,0.0024784983333336,0
mp-861440,RbCaCO3F,4.2981,-2.8074198243961908,0.0,0
mp-1027473,Mo3W(SeS)4,0.586499999999999,-0.9468091950520842,0.0306349675000001,0
mp-542573,ThB4,0.0,-0.6232010023333345,0.0,0
mp-684769,Sr2La6TiCu3O16,0.0,-3.0958781609523816,0.0633044445535642,0
mp-756854,Sr2LiNb3O10,1.7679,-3.1527496482812487,0.0423583951562527,0
mp-18059,ZrMnSi2,0.0,-0.6924453429166668,0.0073683239583326,0
mp-764251,NaLi2CoPCO7,2.9398,-2.2952810507188652,0.0282959988461568,0
mp-763908,V3O5F,0.303599999999999,-2.59413112304889,0.0148998605555483,0
mp-19941,As2PbS4,0.764999999999999,-0.5985272583928578,0.0257567214285723,0
mp-567841,Be3P2,0.8891,-0.2335349322380949,0.0,0
mp-774140,TiNi(PO4)2,2.7069,-2.6410451823214287,0.0331202227083302,0
mp-21187,CaIn,0.0,-0.4679848675000002,0.0011115825,0
mp-772063,BaLaCl5,4.2395,-2.8169349412571423,0.0770714853571448,0
mp-763445,Li2V3P9O28,1.9376,-2.639598370663265,0.0555742748215344,0
mp-722369,Na3B5(HO5)2,4.6581,-2.5357812512786664,0.0036387907386385,0
mp-853191,Na6V2C4SO16,2.7044,-2.1513061170366363,0.0,0
mp-561455,Ba8Sb6S17,1.3935,-1.6200343217439517,0.0,0
mp-25513,KCrH18N6(ClO2)4,3.819,-0.8452888805915781,0.3751234166359936,0
mp-20400,Ce(GePt)2,0.0,-0.8986485389999999,0.0,0
mp-4941,Sr2SnO4,2.704799999999999,-2.800363359285714,0.0020781821428572,0
mp-11021,GaAuO2,0.0,-1.5158893506250006,0.0068309381249997,0
mp-555641,Nb2Te4Cl10O,1.181,-1.3831105555205885,0.0078395484436271,0
mp-767035,Zr7VO16,1.925,-3.60429192875,0.0603096864583374,0
mp-773993,Mn3BiO8,0.7575000000000001,-1.6672173769066667,0.0591016581250034,0
mp-926,PuP,0.0,-1.1508268524851193,0.0,0
mp-567431,ThCl4,3.6379,-2.637837313608,0.0,0
mp-695936,GeH10(N2F3)2,4.8966,-1.341717995374285,0.0698428834163147,0
mp-30452,DyNiBi,0.213599999999999,-0.6719339372222232,0.0,0
mp-867279,DyPaRu2,0.0,-0.4001851741666673,0.0,0
mp-667374,NaAlSiO4,4.541399999999999,-3.1596436367857152,0.0068151487499994,0
mp-7522,Th2SbN2,0.0,-1.6881705179519997,0.0,0
mp-1952,Ba7Al13,0.0,-0.2120644094999999,0.0214353613999982,0
mp-762221,LiCoSiO4,1.556,-2.3530166650000006,0.0827903684999862,0
mp-555813,H12RhC8NO6,1.066199999999999,-0.7003326488685703,0.2117510101562496,0
mp-697020,LiAlSiH2O5,4.6145000000000005,-2.661255348849,0.0138873060833324,0
mp-770355,Li4Cr3CoO8,0.0,-2.2383244528125,0.008879665937501,0
mp-1029595,Na3OsN2,0.6867000000000001,-0.1767789841266657,0.0,0
mp-675846,Ca5ThF14,4.84,-4.176501645833001,0.1327334929166657,0
mp-998917,K2O2,2.083399999999999,-1.2731909531249996,0.0244912324999999,0
mp-9819,RbAsF6,5.068799999999999,-2.7769695277675,0.0,0
mp-31102,Tb3ReO7,0.0,-3.3634155453409087,0.0181441282007543,0
mp-2484,SmSn3,0.0,-0.4679313643749996,0.0114366137499999,0
mp-581510,La4CdCo,0.0,-0.1927816241666669,0.0,0
mp-15787,KYbS2,0.0,-1.6533411120312502,0.2742840645833331,0
mp-756173,Li5FeS4,0.5527000000000001,-1.3351366701250007,0.0622148899999963,0
mp-556278,Bi6As9Se4S10(O4F13)5,2.0126,-2.274513502783772,0.0371488033333378,0
mp-10141,SmB2,0.0,-0.3921021752777776,0.1264475968333345,0
mp-622171,VSb2O5,2.5365,-2.03021763890625,0.0343333343359377,0
mp-22704,YIn,0.0,-0.4999434862500003,0.0,0
mp-850447,V2O3F,0.0,-2.628532807906667,0.0428765504166701,0
mp-560571,LaPS4,2.4274,-1.580954843849207,0.0,0
mp-571578,CdI2,2.3557,-0.5912121333333331,0.0009248652222224,0
mp-775654,Li4V3Sn3(TeO8)2,0.8990999999999991,-2.107408909107142,0.0879707245790788,0
mp-697840,Ba3La7Ti3Cr7O30,1.767599999999999,-3.2600476483500005,0.0246242492499959,0
mp-782643,Li5Mn6(BO3)6,0.441799999999999,-2.4958848476645716,0.0267799131190287,0
mp-15706,LuB2C,0.0,-0.5594760017708333,0.0,0
mp-7631,SiC,2.022999999999999,-0.2055767845833334,0.0,0
mp-24517,Rb2CaH4,3.3032,-0.4012591934971427,0.0089872175,0