mpid,formula,BG,FE,e_hull,fidelity
mp-972907,Sc2AlAg,0.0,-0.3579801050000002,0.0030651725000003,0
mp-862991,Pm2AgRu,0.0,-0.2366194350000006,0.0,0
mp-505541,V5As3,0.0,-0.4260030662500007,0.0461313462500001,0
mp-777902,Ti3Mn2Cu(PO4)6,0.0,-2.7816923208469837,0.0293079271064726,0
mp-568106,Mg41Al67,0.0,0.0345075952777775,0.0782987359965883,0
mp-11113,TiTeAs,0.0,-0.6875085905555558,0.0,0
mp-769799,Na2FeO3,0.050999999999999,-1.6592040389583331,0.0712824066666666,0
mp-775273,Cr2Te(PO4)3,0.0,-2.3491197888492064,0.0940576497916643,0
mp-583070,Re2Te5,0.6052999999999991,-0.1649516784523812,0.0,0
mp-775042,V4CoNiO12,2.1736,-2.0953834647222207,0.0,0
mp-558521,B2Se2O7,3.941799999999999,-1.917389187433712,0.0,0
mp-863971,K2Mn3P4(HO3)4,4.2743,-2.152163263389637,0.0166456498561187,0
mp-765708,V2OF5,1.7294,-3.0481000490250003,0.004090732499999,0
mp-561569,CsSb2F7,4.1067,-2.8154322403329988,0.016459403999999,0
mp-12883,P,3.5354,0.1351623744047616,0.1351623744047616,0
mp-27640,Cd(IO3)2,3.2739,-1.0428668677777782,0.0,0
mp-6757,Ho4Si2S3O7,2.6198,-3.305290775683593,0.0217801683854155,0
mp-720295,UH10N2O7,2.4049,-1.4826200883604996,0.1512443868148878,0
mp-541433,Cd(BiO2)2,2.7092,-1.5679865833928568,0.0081536819642842,0
mp-5385,TbSnPd2,0.0,-0.8677510020833337,0.0,0
mp-849524,LiFe3O3F4,2.4469,-2.35815081441,0.0961497737373715,0
mp-695056,Na6CaZr(SiO3)6,4.314500000000001,-3.0420538772656256,0.0172475283593742,0
mp-770959,Ba3GeO5,2.69,-2.8410393468055557,0.0254698497222225,0
mp-16370,Th2Ge,0.0,-0.5835842566666661,0.0,0
mp-9870,K3Ta3(BO6)2,2.6687,-3.077458134916665,0.0,0
mp-14132,Lu3Al5O12,5.0364,-3.74056131425,0.0,0
mp-764898,V3O5F,0.0,-2.568857239160001,0.0401737444444378,0
mp-18420,Er3CrS6,0.2327,-2.1178235059375,0.0074568232500009,0
mp-18620,Mg(PO3)2,5.5284,-2.868760523743387,0.0,0
mp-540193,LiMnP2O7,1.6166,-2.5363833178091344,0.0559849909090912,0
mp-20098,Ba2PbO4,1.2232,-2.381237316428571,0.0,0
mp-22589,TiFeSn,0.0,0.4145715794444449,0.7141567979999985,0
mp-28916,Mn3As2,0.0,-0.1550214219999986,0.0600320310000004,0
mp-20390,PrSnPt,0.0,-1.034564620555556,0.0,0
mp-570901,Yb2Au,0.0,-0.7344687591666667,0.0013834427777781,0
mp-757327,Li7Ti2P7O24,0.2148,-2.7510132190000007,0.0996066354690361,0
mp-769542,Na5Cr2As(CO4)4,0.235699999999999,-1.9921293428571436,0.0687662254017631,0
mp-561659,MnF4,1.3254,-2.4053405018940013,0.0,0
mp-545487,Cs(CO)2,2.690699999999999,-1.3387621175000013,0.1977396207499948,0
mp-974748,Rb3Tm,0.0,0.6244082450000001,0.6244082450000001,0
mp-1030194,Te6Mo3WSe2,0.014,-0.3004503180989578,0.0423501641666668,0
mp-17392,Sr2ZnGe2O7,3.113699999999999,-2.6164723744791667,0.0,0
mp-764674,Co2OF3,0.0,-1.9980505808033333,0.0786712989583318,0
mp-769470,Li11Fe(WO4)7,2.8156,-2.2284195460638294,0.081389885531915,0
mp-12585,CrRh3,0.0,-0.1221025049999999,0.0,0
mp-863858,Li4V2F9,0.9705999999999992,-3.136823041047334,0.0365435808888801,0
mp-11009,CaC2(SN)2,3.3977,-0.7060119596978579,0.0865027762332664,0
mp-540991,BaNi9As5,0.0,-0.4574623683333329,0.0,0
mp-13305,SmSnAu,0.096999999999999,-0.8561091091666668,0.0,0
mp-760782,Li5CuF6,1.662,-2.7615970247616675,0.1160062318749997,0
mp-767460,Li4V2SiGeO10,2.2327,-2.58069030486111,0.0032978780555446,0
mp-32069,UMo5O16,0.2885,-2.3206700440909067,0.0312477825649377,0
mp-754586,Li8BiO6,0.0,-1.9816257174999996,0.0286707369999987,0
mp-995236,GeH6CI3N,0.9326999999999992,-0.4230446474249992,0.0499738248958321,0
mp-770484,LiMn2(SO4)3,0.281,-2.146382062172638,0.0005734506249925,0
mp-558099,Nb2Tl5S4Br9,1.6588,-0.9887043495624994,0.0115948304999999,0
mp-581361,Ba3La2C5O15F2,3.9044,-2.9036177079122223,0.0,0
mp-545719,SiO2,4.8294,-3.135062028333333,0.1496508791666659,0
mp-24578,MgH10(SeO5)2,4.7347,-1.522272363082065,0.0018763356521738,0
mp-37859,Sr(PrSe2)2,1.7496999999999991,-1.945407678482143,0.0,0
mp-755115,CuReO4,0.436799999999999,-1.7320815283333315,0.0542614547916668,0
mp-23517,RbPbI3,2.4562,-1.013522102,0.0,0
mp-23550,KBrF4,3.2009,-1.9930122391266671,0.0,0
mp-18532,HoPS4,2.150699999999999,-1.4673196794742072,0.0,0
mp-776118,Mn3FeSn2(PO4)6,0.0,-2.4090406119847616,0.0844663008333279,0
mp-565779,Na3V(SO)2,2.3954,-1.7796990496093752,0.0648097206249991,0
mp-769751,RbFeO2,2.0393,-1.8414245106249991,0.0034186268750007,0
mp-721299,H13S2N3O8,5.124,-1.281248565281731,0.0119300517307738,0
mp-977563,LiNbIr2,0.0,-0.4739120425000003,0.0,0
mp-636320,TiGaFe2,0.0,-0.3574424691666671,0.0,0
mp-757280,Ba2As6O11,3.1679,-2.078352256776316,0.0,0
mp-8065,K2Ti6O13,2.7535,-3.3659714969642858,0.0,0
mp-29657,NaGe,0.665199999999999,-0.1598211459374998,0.0,0
mp-30182,ThAl3Ni2,0.0,-0.6455774733333339,0.0,0
mp-8717,Rb2MnSe2,1.122799999999999,-0.9329351344374992,0.0,0
mp-585483,SiMoP3O11,4.337300000000001,-2.724286132377233,0.0,0
mp-675818,Li11TiAs5,0.2806,-0.7136936506862743,0.0107847474019613,0
mp-19910,Ce2MgNi2,0.0,-0.3106859989999997,0.0,0
mp-773628,NaV2O4,0.0,-2.367284528571429,0.0787335649642928,0
mp-778587,Mn3O5F,0.0,-1.957892405591112,0.0488036423611211,0
mp-707195,KSiHO3,4.768199999999999,-2.563087825395,0.0,0
mp-2078,TiCu,0.0,-0.1374460108333339,0.0,0
mp-769853,Cr(SbO3)2,0.0,-1.9722542213888887,0.0618511805555543,0
mp-765648,Li2Ni3SnO8,0.5037,-1.3746160132142862,0.0167692083571404,0
mp-15355,U(BRu)4,0.0,-0.4208762612962968,0.0,0
mp-738697,Al3P4H18C3N3O16,5.2174,-1.7462041394081054,0.0254354768006912,0
mp-686947,EuMoO4F,0.064099999999999,-2.71838570517,0.0,0
mp-979987,YbThPt2,0.0,-1.144150794999999,0.0,0
mp-556903,HgSb4C2(OF11)2,4.298,-2.3429486849574195,0.080809127903227,0
mp-973391,LiSiB6,1.6762,-0.2026727665625003,0.0,0
mp-634113,Cd2H2SO6,2.616,-1.7372163771638645,0.0033248368181757,0
mp-773465,Li4TiV3O10,1.238699999999999,-2.6343830349537023,0.0493689011342572,0
mp-9812,ZnCO3,3.5639,-1.8346492502500005,0.0,0
mp-765463,ErH3(SO4)3,5.8801,-2.175184317528816,0.0122709638157889,0
mp-693892,Sr2CrClO4,1.1299,-2.7511062932200003,0.0,0
mp-705412,CaLaMnMoO6,1.3005,-2.8698888443460016,0.0,0
mp-684677,Al2O3,3.9762999999999993,-3.2807458905000004,0.1613676102500001,0
mp-1460,RbGa7,0.0,-0.0966312781250002,0.0,0
mp-28955,Mg3BN3,1.3798,-1.033954608400952,0.0311906301785711,0
mp-11902,Ba2GeSe4,1.4002,-1.354760656339286,0.0,0
mp-7206,TcAgO4,1.6034,-1.5463401149999996,0.0,0
mp-990448,C,0.261399999999999,0.0018007175000001,0.0018007175000001,0
mp-559715,Li2Cd(PO3)4,4.5942,-2.590956198283207,0.0055175239692992,0
mp-975921,HfRu3,0.0,-0.2099124362499989,0.2037022212499994,0
mp-765402,Mn3VCr2(PO4)6,0.0,-2.478363673373652,0.0828163923610976,0
mp-754326,NaAgO2,0.587499999999999,-1.0235357118749997,0.0,0
mp-560097,CaTeO3,3.2538,-2.4084192234166677,0.0134530885333319,0
mp-24072,AgH5S2O9,3.5225,-1.5859664166161769,0.0,0
mp-705298,Co3SnC12BrO12,2.327,-0.8487364737931024,0.3660177179310367,0
mp-18725,YCrO3,2.4831,-3.1997747022499987,0.0,0
mp-1025657,Te4Mo2WS2,0.0,-0.5268540609027789,0.074755148333331,0
mp-551918,AlBiO3,2.977899999999999,-2.51476364375,0.052586945624995,0
mp-30773,MgNi2Sb,0.0,-0.2331209412499993,0.0720791731250001,0
mp-23060,Cs2PtI6,0.6483999999999991,-0.8308138766666665,0.0,0
mp-6017,Na3In(PO4)2,3.2621,-2.5718866104421765,0.0,0
mp-10622,PrAs,0.0,-1.4934942575,0.0,0
mp-781997,SmH10S3N3O11,5.4745,-1.5941283029206257,0.0438296350611899,0
mp-754444,Zn(AgO2)2,0.2388,-0.7030198857142855,0.0896515535119046,0
mp-19505,SrCr10O15,0.0,-2.315186772836538,0.0583022497115468,0
mp-770703,LiSbWO6,2.4585,-2.077725619166668,0.0783506494444434,0
mp-7790,Ti2N,0.0,-1.4293083869044452,0.0156948033333499,0
mp-765518,Li3Co3OF7,2.6365,-2.5378818081842858,0.0395236853571425,0
mp-27473,Sb2TeF14,3.965099999999999,-2.593698727744705,0.0,0
mp-976286,HoErRh2,0.0,-0.926971235,0.0085888849999999,0
mp-770893,Li4Fe2O5,1.599099999999999,-2.001111073977273,0.0867255500000032,0
mp-680168,K2Re3C2Se5N2,1.2751,-0.5233987316234813,0.0,0
mp-580744,Hf6Si7Ni16,0.0,-0.780214063793104,0.0,0
mp-780087,LiMnSiO4,1.1322,-2.5998151990657137,0.0778908492929799,0
mp-31503,Mg9Sn5,0.0,-0.1754166082142855,0.0029095091071429,0
mp-570354,CuBr,0.2019,-0.0754162749999998,0.1786250749999998,0
mp-18191,Tl2TeO6,0.0,-1.3070046634259265,0.0,0
mp-31472,Rb5Hg19,0.0,-0.2146758320833333,0.0,0
mp-758281,RbB2P2HO9,5.7824,-2.6463125352929207,0.0,0
mp-22788,Eu(PRu)2,0.0,-0.9616662702380964,0.0,0
mp-17375,K2Na3TlO4,1.329599999999999,-1.4772668220000005,0.0,0
mp-971768,Ti3Br,0.0,0.3001048987499989,0.7140062005729159,0
mp-27859,SbI5F6,0.939,-1.5742669187894445,0.0,0
mp-778721,Li8Mn7Fe(BO3)8,2.9745,-2.508467707292777,0.0045332606597199,0
mp-552191,Ba2TbBiO6,1.7187,-2.841475805583334,0.0,0
mp-627993,LiV2O5,0.292599999999999,-2.39332524984375,0.0694882246875039,0
mp-19210,CoPtO2,0.0,-1.123311850624999,0.0,0
mp-20208,Sm(Sn3Ru2)2,0.0,-0.332766092045454,0.0,0
mp-559516,K3Nb(SO4)4,2.9435,-2.35422628390625,0.0,0
mp-1001,BaN2,0.0,-0.7648113232533321,0.0,0
mp-17229,RbBe3ZnF9,6.2801,-3.3311018364792857,0.0,0
mp-568812,CdH16C4(NCl2)2,3.3967,-0.6570706755822213,0.0344133637962968,0
mp-12350,SiO2,6.1956,-3.1504316325,0.1342812749999993,0
mp-30761,Li7Pb2,0.0,-0.3148502811111109,0.0,0
mp-644272,HCN,6.581799999999999,0.1421469538333338,0.3828634953044441,0
mp-976039,LuBe13,0.0,-0.1789141471428575,0.0,0
mp-7288,Sc2SO2,2.0102,-3.4524941933125013,0.0,0
mp-754954,Ag2Se,0.138399999999999,-0.0650718428645831,0.00558352,0
mp-755610,Ba6HfO8,2.4348,-3.105215353,0.063394153333335,0
mp-849796,NaZn4H18SClO16,3.2778,-1.5692393444507924,0.0139513639481707,0
mp-1002209,ReN,0.0,0.3068995513100017,0.4483327183333365,0
mp-559777,Na5Ca2Al(PO4)4,4.649599999999999,-2.9434737266921767,0.0,0
mp-10476,NaEr(SO4)2,5.7442,-2.66553030109375,0.0,0
mp-554493,BiAsPbO5,2.2678,-1.7369969339062497,0.0005494474404734,0
mp-540038,LiMo(PO4)2,2.4819,-2.5172087523908733,0.0313184299999775,0
mp-865441,TiAlPd2,0.0,-0.7580251216666678,0.0,0
mp-733600,Sb3H36(C3I2)4,0.0,-0.2025810518698303,0.1506452751553668,0
mp-771520,Li4Mn3V2Ni3O16,0.7054,-1.8962258679600004,0.0821917838988079,0
mp-761326,LiVPO4,2.1744,-2.569714882227891,0.0811488132359263,0
mp-761365,Li4Mn5Cu3O16,0.0,-1.6998592505285706,0.0639838764285638,0
mp-853230,Li2V3CuO8,0.0,-2.220302965714286,0.0711414920238064,0
mp-673171,Br,0.0,0.6159556300000002,0.6159556300000002,0
mp-31056,Dy3InN,0.0,-1.082890806476,0.0,0
mp-772869,Ta7InO19,2.0335,-3.2026099671759267,0.0367731975925931,0
mp-764515,Li3Fe8(BO3)8,1.3367,-2.3500426017054257,0.0639185950435887,0
mp-767102,Li2MnO2F,0.8420999999999991,-2.4266932707750004,0.0725200358333291,0
mp-504646,In5(BiS4)3,1.493199999999999,-0.8621129246875,0.0121619252812505,0
mp-705413,CsTaCo(OF2)2,2.94,-3.0465513130288886,0.0,0
mp-975380,RbCdO3,0.0,-0.7454620977500006,0.3877708160000006,0
mp-649130,AlSeCl7,0.0541,-1.1887992523793056,0.1310037174999996,0
mp-11826,CaPd5,0.0,-0.3664165149999998,0.0,0
mp-981213,TbSmIr2,0.0,-0.7103058514583331,0.0,0
mp-15703,BeCN2,3.8512999999999993,-0.5725870068149996,0.0,0
mp-626553,Ca(H8O5)2,3.3637,-1.4515953731637037,0.0435844381944452,0
mp-780360,Na8Gd2O7,1.8545,-2.139214229485294,0.0851221974999969,0
mp-775647,Li2Mn3SnO8,0.6080999999999991,-2.093529868598572,0.0228383125446312,0
mp-672715,Ba7(Fe3S7)2,0.0,-1.6066971661805562,0.0622506977777765,0
mp-764799,LiFe2(BO3)2,1.7641,-2.3595949180303024,0.0564884185795708,0
mp-696308,B3H7CO,4.0448,-0.267385057840834,0.3575433763483709,0
mp-771741,Li2Mn3CuO8,0.0,-1.859116974491428,0.0190847805178631,0
mp-557203,SrZrO3,3.3637,-3.62480517375,0.0547576699999989,0
mp-28399,H2CS3,1.9796999999999991,-0.2772600964323612,0.1774301116269852,0
mp-27849,TiBrN,0.5597000000000001,-1.5087287496822224,0.0,0
mp-23902,PH3O4,5.9151,-1.9501964045569045,0.0,0
mp-867846,TaTiRe2,0.0,-0.4513973341666659,0.0,0
mp-29595,CeBN2,0.0,-1.5082630182733323,0.0711239483333336,0
mp-647164,Cu12Sb4S13,0.0,-0.5251928397521549,0.0,0
mp-765808,LiNi2OF3,2.4959,-1.99135116926,0.0891413064285737,0
mp-554923,Sr(GaO2)2,2.6751,-2.650959376964285,0.0008358710714304,0
mp-3975,K2TaF7,5.608499999999999,-3.535160565333,0.0,0
mp-865560,Y2AlZn,0.0,-0.4049967050000003,0.0,0
mp-850,ScNi2,0.0,-0.5215297266666674,0.0,0
mp-778925,Na6CuO4,0.0,-1.3543732818181815,0.080177046628787,0
mp-2131,SrN6,3.7752,-0.5156450806114279,0.0,0
mp-782712,Li3V4(OF3)3,1.0761,-2.9566992704978943,0.0880423909649223,0
mp-765705,NaV5O8,0.0,-2.3748525867857135,0.1018687637500122,0
mp-504563,BaFe2Se3,0.0,-0.803758679713542,0.0626727862500011,0
mp-976321,Li3Pr,0.0,0.1899900600000004,0.1899900600000004,0
mp-9718,Rb3BAs2,1.2949,-0.3341566894444441,0.0,0
mp-722862,CdH3NO5,3.2456,-1.275493472449,0.0,0
mp-764638,Li2FeO3,0.0,-1.903704219375,0.0648823295833329,0
mp-542028,Ti3Al2NiN,0.0,-1.006264872125714,0.0,0
mp-560626,Ba2Ni7F18,4.8408,-2.595835373756296,0.0,0
mp-760698,Yb2TiO5,0.0,-3.0659114341145832,0.1909755870312501,0
mp-640073,FeCuS2,0.0,-0.6006159895312502,0.1106878737499998,0
mp-654051,Nb6SI9,0.0,-0.6038326996289065,0.0,0
mp-17060,NaAlSe2,2.2333,-1.0356216021093747,0.0,0
mp-582736,Eu(MgSb)2,0.0,-0.7331449109999995,0.0,0
mp-996968,AgBiO2,1.679799999999999,-1.126381955624999,0.0366894259999996,0
mp-774019,Mn3TeO8,0.6513,-1.7281963285733335,0.0178248163802052,0
mp-21239,FePb2(CN)6,3.4058,0.0488379000480004,0.1297414995079995,0
mp-765910,LiFePO4,3.4131,-2.457956149727892,0.0936207999999991,0
mp-976727,PrBiO3,0.0,-1.93401097575,0.7679666692499989,0
mp-25704,PrMn2O5,1.096899999999999,-2.607309461021249,0.0,0
mp-11546,TiPd,0.0,-0.4736830333333337,0.0713236249999997,0
mp-29332,Pt(PbO2)2,0.5213999999999991,-1.2955525682142854,0.0030300203571442,0
mp-1018697,EuCdSn,0.0,-0.5523772249999995,0.0,0
mp-24943,KFe(SO4)2,2.1547,-2.1628062240104167,0.0,0
mp-556189,Ba3NiIr2O9,0.0,-2.0164055590833336,0.0,0
mp-743511,CaV2P2(H4O7)2,2.2858,-2.1610757638018687,0.0248834342592534,0
mp-1823,Ti3Al,0.0,-0.2762413262500001,0.0,0
mp-20961,EuPd3S4,0.0,-1.16724073828125,0.0,0
mp-542785,MgH6(CO3)2,4.8736,-1.5805455681146667,0.0747760104999999,0
mp-19001,SrMnO3,0.8108000000000001,-2.494921071942,0.008327575,0
mp-571147,Hf(SiNi)2,0.0,-0.7616128670000009,0.0,0
mp-849227,V3CrO10,0.0,-2.104823906607144,0.0721706196428559,0
mp-6539,RbTiPO5,3.0134,-3.057118286063988,0.0,0
mp-680463,Rb4Pb9,0.310999999999999,-0.1610741449999995,0.0,0
mp-568335,Cs2Hg27,0.0,-0.0942003458620689,0.0,0
mp-19642,Ho2Ni(B2O5)2,3.904,-3.068725378480392,0.0,0
mp-675879,Ag3SI,0.3197,-0.2171491818124998,0.0632669560000001,0
mp-8700,K2Au3,0.0,-0.3424767920000001,0.0,0
mp-27411,TlP5,1.1813,-0.0286207563293648,0.0,0
mp-548691,Sr2ZnReO6,0.0,-2.5732417817500006,0.0430134776666664,0
mp-1008669,U,0.0,0.381665250000001,0.381665250000001,0
mp-567830,Sm(CrSi)2,0.0,-0.3955810424999981,0.1356700375000006,0
mp-769817,LiVBO3,1.7401,-2.4863262517361107,0.0683201601388914,0
mp-1025626,Te4Mo2WSe2,0.0575,-0.3141195796875004,0.0527645461111108,0
mp-562321,SrCr2O4,2.7927,-2.662167366785713,0.0,0
mp-554635,CoO2,1.305799999999999,-1.1197067275,0.0180560291666642,0
mp-624688,Ta2O5,2.4693,-2.9510772023214265,0.4038684185714309,0
mp-557689,CaAl2B2O7,4.8231,-3.281244815173612,0.0,0
mp-18771,Sr2CoWO6,1.6379,-2.61748481975,0.0087130519999982,0
mp-3678,Tb(SiRu)2,0.0,-0.9134341426666666,0.0,0
mp-25476,CoO2,1.2174,-1.1175979275000003,0.0201648291666645,0
mp-850359,Li5Fe5(CoO6)2,1.418599999999999,-1.9254606077083327,0.0269309789583358,0
mp-1027671,MoW(SeS)2,0.7778,-0.9525334267187504,0.0143446291666675,0
mp-4823,Na2PdC2,0.8829,0.0316267429999996,0.0316267430000003,0
mp-763515,LiMnF4,2.0021,-2.9489652105366666,0.0012910937499981,0
mp-769420,LiCr2(PO4)2,0.0,-2.5005085189377287,0.0969438612179489,0
mp-5014,CuAgS,0.5629000000000001,-0.3289827421875001,0.024273578611111,0
mp-983850,Ca2AgAu,0.0,-0.5494659399999997,0.0152006275000005,0
mp-778563,Mn3(OF2)2,0.0,-2.547880891126666,0.0471963347222246,0
mp-861126,Li4Ni(PO3)6,3.862099999999999,-2.5400140607266013,0.0599416193965511,0
mp-764580,LiFe2OF3,2.8213,-2.516152625688572,0.0429935449999998,0
mp-3928,Na5P3O10,4.5287,-2.6388823467658717,0.0,0
mp-863021,Ba2Sc2O5,1.5365,-3.4935166740277777,0.0271844616666658,0
mp-565267,Na2SrV3O9,2.2136,-2.5974589805833332,0.0,0
mp-776705,LiV2OF5,0.531199999999999,-3.0376387961703712,0.0635127690740766,0
mp-761569,Li2MnP2O7,2.5407,-2.623468731325039,0.0652992671874992,0
mp-762294,Mn2V3Fe(PO4)6,0.0,-2.5974967697358724,0.0,0
mp-574199,Sm(NiP)2,0.0,-1.008217341738095,0.0,0
mp-232,DyRh,0.0,-0.8914153333333337,0.0,0
mp-37829,La5TlSe8,1.317699999999999,-1.861123064553572,0.0,0
mp-778827,LiMn2(BO3)2,0.5357000000000001,-2.4402842775230296,0.0717928893181767,0
mp-40886,ZnC2S2(OF)6,5.5243,-1.9185880636920591,0.1770235823529375,0
mp-640079,Mn3Au,0.0,0.3005126858333338,0.341062600833335,0
mp-1804,Fe3N,0.0,-0.1674596155949999,0.0,0
mp-773672,MnFe(PO4)2,0.0,-2.368101301151429,0.0747238931944629,0
mp-980941,Ti3N,0.0,0.266921349405,1.3506737420833332,0
mp-767206,Li2V2FeO6,1.005799999999999,-2.1712081475,0.2046352361363564,0
mp-774309,Li2MnV(P2O7)2,0.363399999999999,-2.6643046866291344,0.006463697140199,0
mp-776792,NaV3P2O13,2.1006,-2.489946505523183,0.0,0
mp-764464,Li5Fe8(BO3)8,1.4949,-2.371791730518519,0.0463069029305582,0
mp-973,U2N3,0.0,-1.6042363234279988,0.0186590853333328,0
mp-976114,Li2CdHg,0.0,-0.3164140212499997,0.0,0
mp-560431,KBe(PO3)3,5.558199999999999,-2.773559530038265,0.0,0
mp-648363,SbP3C(NCl5)3,0.4643,-0.7776853088185093,0.2104379932608728,0
mp-555212,Ba2InBrO3,1.8283,-2.5009786326785712,0.0,0
mp-973738,GeBO3,0.0,-1.0260733790833334,1.3228432724166668,0
mp-769271,Sr4Ta2O9,4.195699999999999,-3.4446632347500006,0.0,0
mp-505284,Pb3(BrO)2,2.3882,-1.318891324285715,0.0,0
mp-2109,CePt2,0.0,-1.011871024999999,0.0,0
mp-685477,Tc6BiO18,0.0,-1.7822579701000008,0.0659539686833321,0
mp-9089,CsTmS2,2.1573,-2.15519833453125,0.0003562650000006,0
mp-561066,TlS,0.8102,-0.5606424843750002,0.0266287703125054,0
mp-545482,PdSeO3,1.0589,-1.0430870824687504,0.0,0
mp-19777,Yb3InC,0.0,0.0016674145000003,0.2770776213333335,0
mp-774413,MnV3(PO4)6,0.6786000000000001,-2.500256142633276,0.0253070983823331,0
mp-677370,UP2O7,0.0,-3.0572598509940483,0.0,0
mp-755530,Na3CuO2,1.662599999999999,-1.36237293875,0.0100894141666643,0
mp-570084,Hg3AsSe4I,1.2214,-0.2117424421527774,0.0,0
mp-19800,Fe11Si5,0.0,-0.3453541224999998,0.0203491771874997,0
mp-569071,La5Al3Ni2,0.0,-0.3908822569999998,0.0,0
mp-34237,Mn2CuO4,0.006399999999999,-1.681624767179047,0.0393602471130885,0
mp-694012,Ca3YAl3B4O15,4.4422,-3.3420527136698723,0.0338093868589677,0
mp-17560,Na2UO4,2.0732,-3.0346260242857146,0.0083714892857047,0
mp-768990,Li7NbS6,2.3266,-1.4488638903125002,0.065698321607142,0
mp-648394,CrCo3C16NO14,1.608,-0.6855697981394282,0.4788542192177081,0
mp-867978,SmInRh2,0.0,-0.6683870181250002,0.0,0
mp-570238,P10Au7I,0.4964,-0.1434379906084654,0.0,0
mp-999258,Sc2MnGe,0.0,-0.3096008962499992,0.2868307287499974,0
mp-16498,Sm(Al2Cu)4,0.0,-0.3104200486538449,0.0,0
mp-769549,LiZnCr3(SO4)6,2.2921,-2.1313220122678573,0.0106871172142861,0
mp-27396,NiCl2,0.7567,-0.9722965155066672,0.0,0
mp-765824,Mn9FeO10,0.1482,-1.9372353815569996,0.0301076582500012,0
mp-31269,Na2S2O7,5.0852,-2.19856490471591,0.0,0
mp-1001828,WN,0.0,0.0101542288100002,0.4009637874999985,0
mp-644015,KVHSe2O7,2.2311,-1.7549997632964576,0.0,0
mp-9760,BaTb2PdO5,2.0216,-3.0707385364351847,0.0044511193055569,0
mp-15442,SmSi3Pt5,0.0,-0.9173693921296284,0.0,0
mp-1027580,MoSeS,0.6547000000000001,-0.974534957552084,0.0134753116666663,0
mp-763611,Li2Mn7O12,0.6755,-2.0163952607961906,0.0566913071130876,0
mp-21520,NaCeP2O7,0.0,-3.0690890940854985,0.0,0
mp-606102,Ce3In3Ru2,0.0,-0.4715753387500001,0.0,0
mp-769802,Ba2Zr7O16,3.7062,-3.7343030916,0.0275020546000046,0
mp-510262,Cs3O,0.0,-0.9613462590625,0.0,0
mp-4152,Ga2CoS4,0.323799999999999,-0.8979956866071436,0.0862814115476169,0
mp-673663,CuGe2P3,0.0,0.048351906785714,0.120345209861111,0
mp-695475,Ca3YGa3B4O15,3.996099999999999,-3.0055020383814086,0.0356132169551273,0
mp-974458,Re3F,0.0,0.2630973822024991,0.9928675152083332,0
mp-650049,SbC(N3Cl2)3,1.8341,-0.2928198493223537,0.1608848780956915,0
mp-707200,Na4P4H2O13,5.1224,-2.47921338025526,0.0236114811594312,0
mp-997094,SrAuO2,1.4237,-1.8747158231250003,0.0322948389583332,0
mp-19997,EuIn2Ni,0.0,-0.3801783437499999,0.0,0
mp-780930,LiMnP3H8O13,4.3195,-2.0414740119406045,0.0457350406410332,0