mpid,formula,BG,FE,e_hull,fidelity
mp-762820,LiV2(SiO4)2,0.9173,-2.799144018461538,0.0743623406730762,0
mp-30294,Sr2SnS4,2.469799999999999,-1.776398511607143,0.0,0
mp-4974,La2Zr2O7,3.7409,-3.924686458522727,0.0,0
mp-568469,Ca4TiN4,1.529799999999999,-1.3125406295762956,0.0,0
mp-763577,Li3Ti2V2O8,0.0,-2.801993914888889,0.0593183453333381,0
mp-768335,Li3(FeS2)2,0.0,-1.0592917776388893,0.1608901763888894,0
mp-645743,VAgTeO5,2.6045,-1.6553211239062495,0.0113302158263888,0
mp-18367,Yb(Al4Co)2,0.0,-0.4317576588636365,0.0,0
mp-5560,Cd3(BO3)2,1.4544,-2.1058433255303033,0.0,0
mp-771763,Mg2Mn3O8,1.1172,-2.214152240221538,0.0396557076923098,0
mp-19734,MgPbF6,3.0406,-2.8774988771425005,0.0,0
mp-27263,Rb2MnBr4,1.1516,-1.3651633914285717,0.012464953809522,0
mp-11947,LiAlAg2,0.0,-0.2500600249999998,0.0,0
mp-774358,Li2MnV(P2O7)2,0.471199999999999,-2.6667964379927698,0.0039719457765636,0
mp-978254,La3Ag,0.0,0.0029793887499991,0.12932535875,0
mp-765368,LiVF5,2.073,-3.1084964640642863,0.004750377500005,0
mp-553242,NdBi2BrO4,1.219899999999999,-2.3050922440625,0.0,0
mp-754011,Li(BiO2)3,0.0,-1.5876182987500005,0.0788152646666766,0
mp-568656,SiC,2.0052,-0.2055000862500008,7.669833333245891e-05,0
mp-566408,BaYFe4O7,0.0,-2.2087488316346153,0.1582754577747227,0
mp-851031,Li4Mn3Co2Sb3O16,0.0,-1.9583588870671431,0.0666971369642741,0
mp-22688,CuSeO3,0.2102,-1.0932488307187505,0.0111273432499992,0
mp-3734,NdSi2Ni,0.0,-0.8206391756250007,0.0,0
mp-760655,Li3Bi(PO4)2,3.5843,-2.5574108436564624,0.06493903571429,0
mp-21012,Si3Rh5,0.0,-0.7513286006250004,0.0,0
mp-676113,InAgS2,0.0,-0.5585107795312498,0.2098241875000006,0
mp-764225,LiCo5O5F,0.0,-1.5780398260366664,0.0605011220833304,0
mp-980202,TmGePd,0.0,-0.977283450555556,0.0,0
mp-782719,LiVF4,2.096899999999999,-3.169262396626667,0.0594605100000098,0
mp-29558,Bi3ClO4,2.3,-1.6705014772825004,0.0089084716562508,0
mp-557604,AlPO4,5.667,-3.1290683282936507,0.009396822222226,0
mp-651741,Cs2Re2Se5,0.700199999999999,-0.7115725740335656,0.0,0
mp-22978,Rb2MnCl4,1.2907,-1.946600099005714,0.0,0
mp-865896,YbPmAg2,0.0,-0.3668361068749997,0.0,0
mp-572903,CsCu2F5,0.0,-2.1619993957437504,0.0,0
mp-35143,BaNbS3,0.0,-1.8437311554375,0.0037329474615273,0
mp-1019520,Ba3Ca2(SiN3)2,1.5518,-1.172823989944615,0.0,0
mp-14322,Ba3Tm4O9,3.2829,-3.640647840703125,0.0,0
mp-22018,Hf(MnGe)6,0.0,-0.1467410726923066,0.0724485996794879,0
mp-977579,MgSbPd2,0.0,-0.6066231612500008,0.0,0
mp-602328,Ce(InPt)2,0.0,-0.7741561769999997,0.0064561400666658,0
mp-558949,K2MoP2O9,3.034399999999999,-2.5465560569600334,0.0,0
mp-675893,HoPaO4,3.205899999999999,2.156572516666667,5.892481464375001,0
mp-735524,VP2(HO)6,2.8845,-1.5439122176940323,0.1456920751794843,0
mp-772051,Li3CuSiCO7,0.0,-2.16636233125,0.088179307884614,0
mp-740757,Mg2Cu2P2(H4O5)3,0.2864,-1.8539059458600136,0.0199125914015123,0
mp-761299,Li2CoBO4,1.4304,-2.2166436848958337,0.0534660731249996,0
mp-770851,Li2TiNi2O5,2.1103,-2.122991729291667,0.030778995500003,0
mp-778565,Li2AlFeO4,3.0568,-2.560559155,0.0258977446874997,0
mp-7162,Sn,0.0,0.0734195250000002,0.0734195250000002,0
mp-707876,Ca3Be2P4(HO2)10,5.1849,-2.4794118073995115,0.0113904786538459,0
mp-23326,Ca4Cl6O,5.2239,-2.8823257841645447,0.0,0
mp-20652,PbF3,1.882199999999999,-2.4641747896425,0.0,0
mp-1639,BN,4.4506,-1.395965239523333,0.0761521374999993,0
mp-699368,Na3(W2O3)2,0.0,-0.8422924786538459,0.9559412165384682,0
mp-773135,Li3Cu3(PO4)2,0.6978000000000001,-2.0755916647619044,0.0929774345312512,0
mp-772374,Mn5Fe(PO4)6,0.0,-2.4144800606492063,0.0383474593055481,0
mp-756581,LiNdTi2O6,2.3145,-3.4153227108333333,0.0765270795000052,0
mp-754435,LuAlO3,5.0767,-3.73771917275,0.0824319557499979,0
mp-705300,Cr(PO3)5,0.2176,-2.360727863772676,0.0881515924404912,0
mp-861245,LiAgF4,0.945099999999999,-1.9980839941266664,0.0045139183333313,0
mp-675618,Sr2RuO6,0.419,-1.4151158236111117,0.6709298818187861,0
mp-768254,Gd3AsO7,2.2214,-3.2784213387499985,0.035021393863639,0
mp-766888,Sb9PO25,0.0,-1.7865163481241495,0.0811643229999807,0
mp-554845,Na2Zn2O3,1.2476,-1.720881549107143,0.0,0
mp-980385,Tb3Er,0.0,0.0186091837500006,0.0186091837500006,0
mp-1302,PrO2,0.0,-3.0415817508333327,0.0836844389583379,0
mp-743608,Ca3YMn3B4O15,1.379,-2.9400819711844863,0.0165951184335071,0
mp-766614,Li5Co5(CuO6)2,0.0,-1.5372471772916672,0.1129073245833289,0
mp-572131,SbS8Cl5O,1.4808,-0.9455719123366672,0.0422737912291664,0
mp-571414,KNa(BH4)2,6.1917,-0.4506696306077777,0.0086188458333333,0
mp-1019544,BaZrO3,3.1193,-3.65438136975,0.0003017770000006,0
mp-721712,NaH4CSNO2,3.9944,-1.0667169998422494,0.0616922891999989,0
mp-570266,Sm26Ga6Co11,0.0,-0.2415233482558134,0.0033535504796526,0
mp-554552,Zn3P2H2O9,3.3726,-2.1907531021675304,0.0090869173437448,0
mp-24208,CrH2,0.0,-0.0318419890800001,0.0029990171266662,0
mp-557696,Na5Y4Si4O16F,4.7696,-3.326160327706333,0.0188240396666614,0
mp-765754,Li4Ti3Cr3(TeO8)2,0.3173,-2.522051195,0.0686265125223224,0
mp-759449,Li3Ag2F5,1.5188,-2.3106434033450003,0.0770206747499999,0
mp-3555,LaSiIr,0.0,-0.9869606166666678,0.0,0
mp-27878,NaSb5O8,2.6771,-1.814338290357142,0.0004542566964298,0
mp-973334,NaMg,0.0,0.10328234,0.10328234,0
mp-780113,LiMnP2HO7,4.0102,-2.44234539371004,0.0677576666666546,0
mp-35417,Li3TaO4,1.5777,-2.8007679706249995,0.0645909781249987,0
mp-1027461,Te2Mo3W(Se2S)2,0.0,-0.6394264018750005,0.0791569108333334,0
mp-1025876,Te2Mo3Se4,0.0,-0.5112562093750002,0.0256120327777766,0
mp-1008987,IrN,0.0,0.5806462738100011,0.5806462738100011,0
mp-18002,KLi3GeO4,3.9368,-2.249473661388888,0.0,0
mp-559535,H5C2ClO,5.4003,-0.5703637805677775,0.2197272923611093,0
mp-672235,Co(NiS2)2,0.0,-0.7529092501785714,0.0458488842857143,0
mp-865604,Li5Mg,0.0,-0.0214165966666669,0.0002189349999992,0
mp-23053,PbICl,2.7152,-1.0626892402533337,0.0462260091666668,0
mp-74,Rh,0.0,0.0,0.0,0
mp-779250,Li2FeBO4,2.2207,-2.3189308208333337,0.0948529378124938,0
mp-18071,Ce3SiAgSe7,0.0,-1.285477392929688,0.0,0
mp-1047,Ca3N2,0.7733000000000001,-0.9189937529519996,0.01362231375,0
mp-704362,CoSiC4Cl3O4,3.9118,-1.104545533829231,0.3586807384134625,0
mp-635413,Cs3Bi,0.181499999999999,-0.3076990962499999,0.0,0
mp-637389,Na3VS3O,2.0084,-1.4993044716796873,0.1129469411718746,0
mp-569896,K14(Tl7Cd3)3,0.0,-0.1261831379545458,0.0,0
mp-567723,Nd(NiAs)2,0.0,-0.7982163374999999,0.0288867899999996,0
mp-769821,Li4Mn5CuO12,0.3304,-1.9027856113545452,0.0991151314529288,0
mp-15059,GdSnF7,4.4455,-3.5593307845366664,0.0,0
mp-667447,TeAs(SeF3)2,1.4188,-1.7332575604327496,0.1973981967812506,0
mp-8374,Na2S,1.681,-1.1911823430208337,0.1031889650000002,0
mp-776939,LiVF4,2.1946,-3.213510714126667,0.0152121925000097,0
mp-744001,Fe2H13C6NCl2O11,2.3056,-1.2016470222774298,0.0904919546785674,0
mp-7281,Dy3Ni2,0.0,-0.3697751180000012,0.0,0
mp-19867,NpAs2,0.0,-0.5473818212499992,0.0,0
mp-542637,K2B2Se7,1.6237,-0.5136742775899621,0.0,0
mp-6755,KSn4(PO4)3,3.764299999999999,-2.381837092714286,0.0,0
mp-531195,Sr2NF,1.2984,-2.0638265994862497,0.0,0
mp-770846,Ba3Sn2O7,1.670299999999999,-2.6834140940625004,0.0,0
mp-557592,CrAg(PS3)2,0.926,-0.7447768885565479,0.0,0
mp-984766,Ca(BH4)2,5.092,-0.4472954120266666,0.004693181590909,0
mp-699437,KP(HO2)2,4.786899999999999,-2.2092386909794044,0.0344534409375052,0
mp-767404,Gd2As4O11,2.484,-2.3832642511029416,0.0897046152941172,0
mp-771556,VCoO4,0.260099999999999,-1.757475379583333,0.1490471401041651,0
mp-1033557,RbMg6BO8,1.686599999999999,-2.4271966516666663,0.5312775128124994,0
mp-568588,NdTlSe2,1.9676,-1.3769840074218749,0.0,0
mp-770762,La7(FeO8)2,0.0,-3.0070806784,0.1101348944749975,0
mp-569523,Y2InNi2,0.0,-0.5295569130000004,0.0,0
mp-1031661,KRbMg6O7,0.0,-2.058463776583334,0.6367579924166655,0
mp-31119,TbScO3,4.436,-3.974563787416668,0.0184520794999976,0
mp-560328,Ag15P4S16Cl3,1.2258,-0.5561411772937098,0.0,0
mp-561456,Na3FeS3,0.0,-1.1440857338839296,0.0119829450000006,0
mp-30235,Lu3Ge3Ir2,0.0,-0.9219690537499988,0.0,0
mp-770350,Li3Cu4NiO8,0.0,-1.2835072662499991,0.0408539978472202,0
mp-22461,Fe3Sn,0.0,0.0921577962500004,0.0922933758333322,0
mp-14873,K4Nb8Si(P2O17)2,1.886299999999999,-2.9615230489192337,0.0,0
mp-581864,CsAsSe2,1.5081,-0.6415889458593749,0.0,0
mp-25558,MnO2,1.521,-1.790600554486666,0.0199684341666674,0
mp-763855,Li2VCr(P2O7)2,2.106099999999999,-2.713843451812771,0.0008949372727355,0
mp-19121,TbVO4,2.9828,-3.224773748055556,0.0,0
mp-384,MgP4,0.7289000000000001,-0.3099595384761912,0.0,0
mp-8017,AlCuTe2,1.0186,-0.33852610875,0.0,0
mp-9037,CsPrS2,2.2298,-2.13341116953125,0.0,0
mp-15963,HfPRu,0.0,-1.0797091915873014,0.0,0
mp-13588,CsB(CN)4,6.3597,-0.165648242618667,0.3052818835000028,0
mp-866062,HfSiRu2,0.170100000000001,-0.79780404125,0.0,0
mp-981378,Sr3Yb,0.0,0.0263590225000001,0.0263590225000001,0
mp-569366,Nb3Tl,0.0,0.2193064837499996,0.2193064837499996,0
mp-662796,Os4C13(SO6)2,1.898499999999999,-0.8995572542137105,0.2140567087903253,0
mp-973333,HoLuZn2,0.0,-0.3531696487499998,0.0,0
mp-555321,BaNiF4,4.6572000000000005,-3.1611813374600004,0.0009227233333319,0
mp-554777,NaCuPO4,0.174399999999999,-2.1632142968707475,0.0300817621428652,0
mp-22935,CsBrF,2.4765,-1.9790360053966671,0.0,0
mp-753823,CeTh3O8,1.78,-4.271233467500001,0.00517020083333,0
mp-15551,Sr2LiSi3,0.0,-0.4426919566666664,0.0,0
mp-22442,Ba2NaOsO6,0.0,-2.40481318975,0.0,0
mp-22387,U2N3,0.0,-1.611423351178,0.0114720575833331,0
mp-21124,SrIn4Pt,0.0,-0.5052811058333333,0.0,0
mp-541610,GeBr2,2.597,-0.576134454583333,0.0,0
mp-769713,Na4B4Sb2SO16,1.882,-2.367058560582562,0.0582035371296241,0
mp-769329,RbLi2B3Sb2O9,2.620799999999999,-2.3582146127205883,0.085683113400738,0
mp-676130,TlSnF3,2.8207,-2.3629358094640005,0.0,0
mp-22056,YIn2Ni,0.0,-0.4570855206249993,0.0,0
mp-753947,LuHO2,4.8555,-3.0993885765299987,0.0112333269791671,0
mp-768031,MnOF,0.376699999999999,-2.3320867836333328,0.0668633829166713,0
mp-19360,LuCrO4,0.2333,-2.8000940033333332,0.0,0
mp-981662,YbU3,0.0,0.6519554500000009,0.6519554500000009,0
mp-673845,NbO2F,1.9496,-3.156383159255833,0.0297197904166566,0
mp-8577,Sc3GaC,0.0,-0.6690052135000002,0.0,0
mp-775276,Co3(SeO3)4,0.0036,-1.23863878944079,0.059626158684221,0
mp-29626,Na4Sn3S8,1.650599999999999,-1.094724593833334,0.0,0
mp-999295,PrN,1.077099999999999,-1.20234941869,0.2713795025000003,0
mp-9462,CsTeSe3,0.975,-0.4770941841562504,0.0,0
mp-775633,Na6Mn7O10,0.1197,-1.7616881717052166,0.046221650543476,0
mp-778723,Li3MnFe2(BO3)3,2.770299999999999,-2.4455214951227795,0.004574899259258,0
mp-29635,PuGa,0.0,-0.3244903809374993,0.0,0
mp-779498,Ba3(ClO)2,2.4989,-2.8650898670028573,0.0469931780952341,0
mp-50,Ta,0.0,0.0,0.0,0
mp-556920,Tb9(SbO)5,0.0,-2.3823327553289477,0.0,0
mp-1019710,CsB5O8,5.9528,-2.834793297559524,0.0165157363392811,0
mp-778700,Li2FeF4,3.6247,-2.9240700483585704,0.0669331466071438,0
mp-13378,TbZnRh,0.0,-0.7276648544444448,0.0,0
mp-22964,PbClF,3.4652,-2.1468155331500003,0.0,0
mp-3307,BaSO4,4.5086,-2.702026568177084,0.1320646541666637,0
mp-762913,Li4Nb2Fe3Ni3O16,0.0,-1.987263871428571,0.0410920060100483,0
mp-1029312,RbVN2,0.0836,-0.9284177824400004,0.0,0
mp-18786,Ca2CoSi2O7,3.056,-3.0878391853125,0.0178878341666637,0
mp-723109,BeH14(I2O9)2,3.3177,-1.2577339939372976,0.0,0
mp-8500,AsS2NF6,2.608,-1.8589388722645,0.0197711211369977,0
mp-1018696,EuCdPb,0.0,-0.4337843116666663,0.0,0
mp-680122,TlB5O8,5.1834,-2.6939753353273796,0.0,0
mp-766916,Li2VF7,1.0091,-2.9221214343329995,0.1052462970000025,0
mp-540326,CrP2O7,0.3444,-2.4416565439940463,0.0499591308124927,0
mp-23583,Cs4BiSbCl12,0.5768,-1.8036652185622224,0.0,0
mp-569338,YbAlPd,0.0,-0.8146496858333337,0.0,0
mp-567932,LaMg4Cu,0.0,-0.1301221249999997,0.0015503305555575,0
mp-571056,CsSn,1.1371,-0.3219155476562498,0.0,0
mp-558281,SrCrF4,3.6107,-3.56087716746,0.0,0
mp-1876,SnS,0.0894,-0.7303427095312509,0.0452367975000003,0
mp-778419,Na14Cu2O9,0.0,-1.36145027685,0.0754814726333323,0
mp-6072,TmMn6(GaSn2)2,0.0,-0.1681562069230766,0.0,0
mp-776456,Ti2O3,0.0,-3.2486012607499988,0.0702463926666698,0
mp-28982,Pd(PbCl3)2,1.4046,-1.316212281617778,0.0052163264814808,0
mp-541365,LiEuH3,0.0,-0.5972191221719996,0.0,0
mp-765819,Li2VO2F,1.7723,-2.655593721031666,0.0639452120833308,0
mp-29087,Ba2(SnSb2)3,0.0,-0.4156978047727277,0.0,0
mp-27873,Ta2O,0.0,0.2032860554166665,1.7689273451666647,0
mp-850213,Yb4Br6O,4.251799999999999,-2.3846510087499992,0.0051522190909105,0
mp-760501,TiGa2O5,2.7831,-2.706067478489583,0.0390334234374991,0
mp-19885,InGaS3,1.6761,-1.0132893514375012,0.0121567896666645,0
mp-1018712,HfGa4Co,0.0,-0.2476576608333344,0.1357998404444407,0
mp-3958,Er(SiOs)2,0.0,-0.7206841769999996,0.0,0
mp-644389,Li2H2Pd,0.0,-0.4824904334480003,0.0,0
mp-10261,TiNi2Sb,0.0,-0.350632495416666,0.0997316022916674,0
mp-753662,K2Mg2O3,2.888,-2.2907306426785716,0.0076497528571408,0
mp-866660,K3P2AuSe8,1.2085,-0.5647084103528915,0.0,0
mp-560043,KSb4F13,4.7449,-2.7099402644705566,0.0674222583333241,0
mp-771304,Li3SiSbCO7,3.4543,-2.3441034804807703,0.0880626074038559,0
mp-570037,CoAu2(CN)4,0.9239,0.2469441251951517,0.2613679372296973,0
mp-21117,FeGe2,0.0,-0.0638138299999996,0.0204478894444442,0
mp-6662,NaSr3IrO6,0.0,-2.480010607500001,0.0,0
mp-971921,TbSmHg2,0.0,-0.4726706864583328,0.0,0
mp-974973,HfZrZn2,0.0,-0.235774751250001,0.0102311112499995,0
mp-775626,NaV5O8,1.2919,-2.4123015617857138,0.0644197887500119,0
mp-558323,SrBi2B2O7,2.804,-2.5110735326736124,0.010147015729168,0
mp-19431,LiYMo3O8,0.0,-2.469878695576924,0.0486269726922969,0
mp-569661,YbInCu4,0.0,-0.2861159966666662,0.0,0
mp-1020592,Sr4Li2Si4N8O,2.5722,-1.5077420592257902,0.0,0
mp-579812,CeNiSb3,0.0,-0.5965377953333341,0.0,0
mp-769564,NaVPCO7,1.5078,-2.3720918667586584,0.0392498965908973,0
mp-568012,Tb2Zn17,0.0,-0.2369459974561404,0.0,0
mp-697796,Li2Cr5(PO4)4,2.336699999999999,-2.4916759926807757,0.038388513364195,0
mp-4323,Nd(SiPd)2,0.0,-0.9421464894999992,0.0,0
mp-864004,Li2Fe3SnO8,0.0,-1.887905692321428,0.0934645394642856,0
mp-755216,TmBiO3,2.441799999999999,-2.827294782750001,0.0535321338749996,0
mp-767263,LiFe2(PO4)2,1.9141,-2.412985136630037,0.0826466316345904,0
mp-31292,Rb2PdSe16,0.8510000000000001,-0.2781401059210526,0.0,0
mp-765680,CoOF,0.0,-1.657373739146666,0.1063617662499991,0
mp-978253,Ce3(SiRh)2,0.0,-0.8546930307142853,0.0,0
mp-11660,Hf3N4,1.0251,-1.8154050470742848,0.0689349860714276,0
mp-779403,Li4Mn3Fe(BO3)4,2.9966999999999993,-2.4938169393561105,0.0046675885416673,0
mp-19049,BaTeMo2O9,2.8743,-2.216210040480769,0.012318388413461,0
mp-1002105,VN,0.0,-0.6761386361900001,0.6756387349999979,0
mp-768149,DyInO3,1.987099999999999,-3.0219457044166673,0.0046853436666669,0
mp-540570,MgVO3,2.6932,-2.7818373287500013,0.0,0
mp-1008688,Ti2Sn,0.0,0.2716802438888877,0.6028428524999958,0
mp-865491,LuNiB4,0.0,-0.565673288611111,0.0,0
mp-2713,ErIr,0.0,-0.9074312475,0.0,0
mp-975787,PrW3,0.0,0.7741389699999992,0.7741389699999992,0
mp-28516,LuMnGe2,0.0,-0.5069414312499999,0.0,0
mp-31190,Lu2Ga3Co,0.0,-0.5732289829166662,0.0,0
mp-639741,SiO2,5.659499999999999,-3.2717753955555566,0.0129375119444432,0
mp-561462,Ba2Nd2Si4O13,5.046200000000001,-3.5288812505357146,0.0,0
mp-973147,Mg5Sc,0.0,0.0120339750000001,0.0322713100000005,0
mp-675912,Yb2SmS4,0.0,-2.2649160626785716,0.1478872350714288,0
mp-540112,LiFe(PO3)3,4.001799999999999,-2.597014449145409,0.0042605067857204,0
mp-6434,RbAlSiO4,4.3806,-3.2019217075,0.0,0
mp-2602,NdAs,0.0,-1.5088560212499995,0.0,0
mp-761590,LiNiP2O7,0.0,-2.216385914540044,0.0910922670265179,0
mp-971844,Tm6GaCo2,0.0,-0.316383188888889,0.0,0
mp-628842,Ti3Al2NiO,0.0,-0.8958037062500007,0.2937375370714266,0
mp-20170,CeCrSe3,0.0,-1.1796026536562498,0.0,0
mp-15781,KLaS2,2.6928,-2.2466391245312503,0.0,0
mp-36086,Li3NbO4,1.037099999999999,-2.6623150906249995,0.0674330725,0
mp-620032,Ti2Se,0.0,-0.8290509459201397,0.0,0
mp-25188,Nd2(WO4)3,3.9463,-2.7302666611764703,0.0251876105882402,0
mp-581712,TiNiSb,0.0,-0.0350150738888892,0.4560893033333349,0
mp-722501,SnH3S4N4Cl5O,1.8407,-0.7460829485655557,0.1467378939684271,0
mp-23488,Tl5Se2I,0.710199999999999,-0.4503966465234375,0.0,0
mp-24949,FeAsO4,2.3256,-1.7716024262499996,0.0037230909722154,0
mp-761621,VCo3(PO4)4,0.0,-2.263014611349206,0.0541128972916773,0
mp-767242,LiCo2(PO4)2,0.0054,-2.297906883553113,0.0019042931730917,0
mp-9607,Li2UO4,2.1005,-3.1554540925000003,0.0,0
mp-759263,Li3Bi3(PO4)4,3.4515,-2.4381149547069594,0.0948108967307632,0
mp-558256,Li3Ti4O8,0.0,-2.9901375777777788,0.1279485256666799,0
mp-849703,Co6O5F7,0.6033000000000001,-1.7742349760877782,0.0938293207638878,0
mp-17895,K3BeF5,6.2164,-3.2544967812166665,0.001442290277791,0
mp-707274,H13Se2N3O8,3.6556,-0.9936644031302884,0.1504683010309735,0
mp-5835,Ho(CoSi)2,0.0,-0.8289612509999997,0.0,0
mp-19446,CaMn(SiO3)2,3.2619,-3.127568961846,0.0102555227499792,0
mp-771602,Li3NiPCO7,3.7963,-2.2454357699496343,0.0524817338461423,0
mp-601867,Ba3(SnP2)2,0.864599999999999,-0.7663418016534393,0.0,0
mp-775297,FeCu3(PO4)4,0.0,-2.008942581765872,0.0268434201953127,0
mp-973295,Mg5Hg,0.0,-0.0688842683333333,0.0316302245833335,0
mp-867220,LiTm2Ir,0.0,-0.6341404800000001,0.0,0
mp-568889,Ag2Se,0.0,0.0586715121354165,0.1293268749999994,0
mp-2672,K2O2,2.344699999999999,-1.2976821856249998,0.0,0
mp-12564,LiSbAu,0.0,-0.3218589549999997,0.0669756081818175,0
mp-29222,Ba2Si3O8,4.5119,-3.3933206484615384,0.0,0
mp-14827,Li7NbN4,3.3305,-0.8804703243349993,0.0,0
mp-571233,TmTe,0.0,-1.054351375,0.1375791199999998,0
mp-565331,TbVO3,1.5225,-3.299334907916668,0.0,0
mp-868139,Li4Mn2Nb3Cr3O16,0.107299999999999,-2.54847053364,0.09162308343749,0
mp-541895,Na2(ReS2)3,1.4417,-1.0905990138068196,0.0,0
mp-766843,WOF4,3.1229,-2.6814199501683333,0.0116377824999993,0
mp-997394,NbAgF6,2.8552999999999993,-2.9007975171425,0.0,0
mp-754999,SrLaCl5,3.4172,-2.7864170073285717,0.0773387807142844,0
mp-33397,Cd(GaSe2)2,0.0,-0.3133368127678574,0.308384258571428,0
mp-568100,ReNCl4,1.0777,-0.869291481736667,0.0352671733533318,0
mp-997585,La8Al7GaO24,3.458,-3.642697679,0.0188490503839329,0
mp-698018,LiAlSi2H2O7,3.9817,-2.724073705845385,0.0923463303632461,0
mp-30971,CuTe2Cl,0.5969000000000001,-0.4154009158149998,0.0,0
mp-768810,Sr4Br6O,3.4836,-2.2829259482954543,0.0847853327272707,0
mp-1014462,Li2YAl,0.0,0.0822580518750002,0.3011447258333337,0
mp-30840,Ti2Pd3,0.0,-0.6013611956666679,0.0,0
mp-1009733,Ca2Si,0.5549000000000001,-0.4336801766666672,0.0143531258333329,0
mp-1006278,AcEuAu2,0.0,-0.7776742781249997,0.0,0
mp-567983,ErCuPbSe3,1.137699999999999,-1.002504255130208,0.0,0
mp-558381,PtCI2O,1.5903,-0.5458800297499998,0.0888267319999984,0
mp-2478,NbSi2,0.0,-0.5452688166666664,0.0,0
mp-556994,SiO2,5.3498,-3.1996927258333323,0.0850201816666675,0
mp-554756,PH6CNO3,5.2433,-1.2254692251482138,0.0485456829513903,0
mp-778296,LiNiPO4,3.5718,-2.265986714013605,0.0265677932142898,0
mp-3437,Ce(CoSi)2,0.0,-0.7610780640000001,0.0,0
mp-706594,U2H14S2O19,2.1173,-2.0036966029068917,0.0109742930405403,0
mp-977548,Nd2MgGe2,0.0,-0.7651596150000003,0.0,0
mp-626750,SrH4O3,4.4464,-1.83552169040375,0.0531706393749891,0
mp-752408,BaSrI4,3.4431,-1.7084091870833331,0.0482039310416664,0
mp-28651,Cs2IrCl6,0.0,-1.6170965288399997,0.0,0
mp-680531,CaZn3,0.0,0.0055664578124998,0.2601336732291699,0
mp-684833,Na8Al6Si6O25,1.4543,-3.036656499361112,0.0504531598055555,0
mp-3855,Na2BeF4,6.7369,-3.28604670818,0.0031298164285713,0
mp-13166,YbAgO2,0.0,-1.935453360625,0.1162852474999995,0
mp-770146,Li3Mn2P2(CO7)2,0.4526,-2.2749383763308915,0.0303742508695679,0
mp-771295,LiMnBO3,2.9162,-2.453553603979444,0.0739638040277812,0
mp-780819,Li4V3FeO10,1.0781,-2.358612711805556,0.0626382615046177,0
mp-555246,Ba3LuRu2O9,0.0,-2.673457429416667,0.0,0
mp-29226,Ca3Ga4O9,2.639299999999999,-2.747875477369792,0.0,0
mp-770808,LiB2SbO5,2.8864,-2.4293953296759248,0.0971518994444453,0
mp-1029763,ZnSiN2,0.488599999999999,-0.5089377268149997,0.4613572056250002,0
mp-625630,TeHO3,2.1456,-1.4016134297240002,0.0207403847916562,0
mp-558972,KBC4NF9,6.5143,-1.6689272902972911,0.4366908313746833,0
mp-977564,MgScHg2,0.0,-0.3851819174999997,0.0,0
mp-861901,LiGaCu2,0.0,-0.1987981599999995,0.0,0
mp-571428,MgNi3B2,0.0,-0.3814434477777774,0.0,0
mp-769006,Li(Bi3O5)4,0.0,-1.5624601065151518,0.0832211794065491,0
mp-8594,Ag7PSe6,0.441199999999999,-0.1086181397969809,0.0,0