mpid,formula,BG,FE,e_hull,fidelity
mp-695434,Li7Zr3Nb(TeO6)4,1.915,-2.4449022473076933,0.0159661127564092,0
mp-763846,LiMnPH2O5,3.3891,-2.2296841762545228,0.0426766307499955,0
mp-721194,RbB5(H2O3)4,0.0,-1.157216383549743,1.0235329946634613,0
mp-22760,La(MnGe)2,0.0,-0.4539981659999995,0.0,0
mp-19737,LaMnSi,0.0,-0.4941920883333329,0.0028657549999993,0
mp-636921,VO2,1.1027,-1.992591135833334,0.4916830983333291,0
mp-775298,Li4Mn2Cr3Sn3O16,0.039899999999999,-2.173595025604285,0.0613750808116977,0
mp-23287,CuCl,0.4439,-0.633475179755,0.0356156068749999,0
mp-972848,SiC3,0.0,2.2276530518750004,2.3304414441666665,0
mp-570948,LiCaGaN2,2.1319,-0.8447274099519995,0.0,0
mp-13171,YMgCu,0.0,-0.218743408611111,0.0,0
mp-557600,SbC2N(OF3)2,4.621399999999999,-1.9521752960016665,0.0834215298537506,0
mp-669722,Nd(Sn2Rh)2,0.0,-0.6341127225000004,0.0,0
mp-557539,MoF3,3.5743,-2.8651252071424995,0.0,0
mp-585256,Co(PO3)4,0.4695,-2.264290319551822,0.06654186672794,0
mp-655027,SrH6(CO3)2,3.3466,-1.2107900104480005,0.5288663553333315,0
mp-780814,LiFe3(OF3)2,1.8513,-2.532092634553333,0.0721227409259279,0
mp-763601,LiV2(CO3)4,0.8400999999999991,-2.0362026889473688,0.0510365968421187,0
mp-764658,LiFe2(BO3)2,1.6821,-2.360546242121212,0.0555370944886606,0
mp-759386,Ce2Th2O7,0.0,-4.0686829135227285,0.0408065584090859,0
mp-677709,Na3Sr7Ti7Nb3O30,1.7047,-3.3327970869833323,0.0241000740999997,0
mp-777186,Na2CoO3,0.7799,-1.4603591827083342,0.0803211693137306,0
mp-773196,LiCoCSO7,0.6872,-1.862862543664772,0.0620902180681781,0
mp-2515,CrPt3,0.0,-0.2582038749999995,0.0,0
mp-1018741,LaCuPb,0.0,-0.4049008899999998,0.0184173616666667,0
mp-559628,NaNp3F13,0.0,-3.678543763630589,0.0585260837745087,0
mp-770883,K4Co2O5,0.829499999999999,-1.521835669659091,0.016688181212122,0
mp-554025,SNF,4.0441,-0.8283567236552771,0.0924113326275026,0
mp-762290,Li4Fe3Co(PO4)4,1.583699999999999,-2.5131953936564617,0.0090752700446463,0
mp-1013530,Sr3BiP,0.0,-0.1510399246190477,0.8100598189166659,0
mp-999120,TcB,0.0,-0.2231880958333328,0.1636419061363625,0
mp-25693,AlFeO3,2.0326,-2.6352333795,0.0289059347500018,0
mp-20079,CaPbO3,0.933199999999999,-2.1844401617500004,0.0033599545000031,0
mp-763163,Li4Fe3Co2Cu3O16,0.0,-1.4403744867857142,0.0790823151116084,0
mp-9257,Yb(CdSb)2,0.095399999999999,-0.47060745,0.0,0
mp-4813,NbAlNi2,0.0,-0.4259350825000005,0.0,0
mp-764706,Li5VO4F,1.1479,-2.4638297464718177,0.0460009152272746,0
mp-760122,Li2CuF4,0.0,-2.506234678299048,0.0892503202380954,0
mp-571296,Er(GeRu)2,0.0,-0.6352107450000005,0.0,0
mp-867164,Pm3Sn,0.0,-0.441713584375,0.0,0
mp-579904,Sr4Al6CrO16,2.194299999999999,-3.268781183055556,0.0,0
mp-768615,Sr3La2Cl12,3.8064,-2.8262039452423533,0.0409319629411752,0
mp-778576,LiVP4(H2O7)2,2.2388,-2.3602457843483733,0.0178557695833339,0
mp-850435,LiFe4(BO3)4,1.5541,-2.335076423888888,0.0645794315476209,0
mp-677042,Na7Zr4Si5PO24,4.4485,-3.143872814465737,0.0111603091463505,0
mp-15684,K2CuAs,1.0674,-0.3501182712499999,0.0,0
mp-505078,BaNb7O9,0.0,-2.5882741100735283,0.0,0
mp-24390,CaPHO4,5.4321,-2.8356300970307484,0.0,0
mp-26701,Li3Sn2(PO4)3,2.4793,-2.5349506808392865,0.0350549360833287,0
mp-762054,Li2NbCo3O8,0.7380999999999991,-1.9927450889285712,0.0480545102678595,0
mp-18344,Ta2Tl4S11,1.523299999999999,-1.001679480863971,0.0,0
mp-1029264,Te4MoW3Se4,0.3818,-0.3371212953645835,0.0367104381250014,0
mp-631194,La3Ga4Cl,0.0,-1.0650360835325006,0.0,0
mp-1048,TiNi,0.0,-0.3954634983333341,0.0010940974999993,0
mp-30660,Ga5Pd,0.0,-0.2453965375000001,0.0,0
mp-20181,Ce2C3,0.0,-0.2547918049999993,0.0,0
mp-567530,KMnCl3,1.9598,-1.808080287956,0.0,0
mp-36912,Pr2CdS4,1.6469999999999991,-1.9349170166071437,0.0970409932142848,0
mp-32711,SrBr2,4.299799999999999,-2.141599059666667,0.0139232295,0
mp-867143,SmGa3,0.0,-0.5576231993749996,0.0,0
mp-6764,BaSi2(NO)2,3.010499999999999,-2.35500756568,0.0,0
mp-861482,LiMnPO4,3.5129,-2.6402352080793188,0.0099230189285721,0
mp-777887,Li3VF5,2.5404,-3.0220510852907405,0.0988387475925929,0
mp-771107,Li3Ni4SnO8,0.0,-1.5221069509375005,0.0058279967857179,0
mp-10092,KCu4Se3,0.0,-0.3620385707226559,0.0130415106249999,0
mp-27994,HgBrO3,3.1922,-0.4075621802500001,0.0,0
mp-764029,Co6O5F7,0.3609,-1.7711650677544442,0.0968992290972217,0
mp-24818,LiBeH3,4.8835999999999995,-0.309460035172,0.0033106551666661,0
mp-17171,LaF3,4.9435,-4.366560131725834,0.1439925508333344,0
mp-771328,Rb4PbO4,1.7342,-1.5329786683333329,0.0102450450000013,0
mp-626486,H4SO5,5.2574,-1.5661434409792498,0.0545318542499986,0
mp-765323,Li13Mn3(SbO8)2,1.1465,-2.1225592062611764,0.0693925358823559,0
mp-647520,Sb2Pb2O7,0.0,-1.7532885276136367,0.0846837722727267,0
mp-568514,BPBr2NCl3,2.9078,-0.908969004927738,0.0573909938906229,0
mp-559379,SbTeClO3,3.1498,-1.5624845215850012,0.0,0
mp-763616,La4Mn4O11,0.2237,-2.9777065319784213,0.056077481842113,0
mp-767521,Na2InPCO7,2.7683,-2.3341348557787702,0.0,0
mp-546920,Li(CO)2,2.2184,-1.3621396085000008,0.2617189347499957,0
mp-972742,SmBr,0.0,-1.1497154662499995,0.1180535000000002,0
mp-773288,Li3Fe2CuO6,0.6053000000000001,-1.8417969414583328,0.0281852541666651,0
mp-849707,NaV4O10,0.0,-2.3348462988333334,0.0460872976666628,0
mp-773758,Mn3(OF2)2,0.0,-2.556410919460001,0.0386663063888894,0
mp-560463,Li2B4O7,3.7379,-2.5060492790705142,0.3127982003846119,0
mp-771299,Co2(SO4)3,0.5473,-1.7679689873345594,0.0060756483823398,0
mp-37692,Li3RuO4,0.0,-1.950690595625,0.0,0
mp-9692,K2GeSe3,1.7264,-0.8710979826302084,0.0,0
mp-29743,Sr5U3O14,2.0422,-3.6454064045454544,0.0,0
mp-8432,CaCuP,0.0,-0.8580952043650795,0.0,0
mp-722891,Na2Ni(H7N3)2,1.0626,-0.4874770347808695,0.0197995125543482,0
mp-19418,VCrO4,1.9112,-2.3566999891666653,0.0014542455208257,0
mp-355,Nd5Si4,0.0,-0.6881272686111108,0.0,0
mp-755417,Ba3(BO3)2,4.1693,-3.163744958712121,0.0,0
mp-10373,Cr3PdN,0.0,-0.2597909984759994,0.0770219099999991,0
mp-599,TiTe,0.0,-0.3642939883333343,0.3364790575000001,0
mp-978797,Sm3Hf,0.0,0.1719756868750002,0.1719756868750002,0
mp-27816,Ag3BO3,0.0,-1.1647708900595242,0.0667043336160748,0
mp-705481,FePH5NO4F,2.6063,-1.0957302434434792,0.6598580918268926,0
mp-771393,Na3FeBAsO7,2.0654,-2.1729251704166663,0.0253110747939588,0
mp-551267,Rb4CO4,0.5892000000000001,-1.5219801258333336,0.2618524511111104,0
mp-558797,VF5,2.9917,-2.8254226857833338,0.0004202185416666,0
mp-758673,LiNb2O4,0.0,-2.730017058571428,0.0594028335714309,0
mp-759432,LiCu(PO3)3,0.6513999999999991,-2.3487676671811224,0.0678496124999892,0
mp-730460,Na5H3(CO3)4,4.9055,-1.9449772248275004,0.0,0
mp-774308,Fe5O7F3,0.0,-1.9073634688213323,0.0897686079166666,0
mp-543097,MnAsO4,0.072699999999999,-1.8082021176599987,0.0331330835416823,0
mp-32095,Zn3Mo2O9,3.0797,-1.961511529017857,0.0,0
mp-734944,CoH2(SN)4,0.0,0.0402780362036374,0.5032837396160961,0
mp-775911,La2Nb2N2O5,1.8865999999999992,-2.8517041296372736,0.0713082235697477,0
mp-639811,KIrO3,0.0,-1.52262489825,0.0,0
mp-1009230,NdAs,0.0,-1.07856271125,0.4302933099999997,0
mp-760417,Rb4I2O,0.8507,-1.4016899430357144,0.0,0
mp-1008528,B2AsP,1.062299999999999,-0.1987036991071428,0.0681897004999996,0
mp-29690,Tl2Te2O5,2.8109,-1.3779615404166663,0.0,0
mp-2917,Dy(CuSi)2,0.0,-0.5952407773333335,0.0,0
mp-561525,K2Ga2B2O7,3.7999,-2.5418196191346154,0.0,0
mp-972970,ScSiRh2,0.0,-0.9292083049999996,0.0179896159375001,0
mp-763540,LiNi(CO3)2,1.0949,-1.6490799367500002,0.0697884495625036,0
mp-23435,Bi2TeI,0.0051,-0.2503221875000001,0.0269061812499984,0
mp-779057,Li2Fe2B2O7,2.1347,-2.3581887457371784,0.0600053698076905,0
mp-778766,Li2Fe3WO8,0.0,-2.0232143635714297,0.0744381346428406,0
mp-764554,Li5Fe8(BO3)8,1.3078,-2.3760286627407408,0.0420699707083356,0
mp-43068,Na3Al3Si3AgBrO12,3.335299999999999,-2.926790881956522,0.0,0
mp-559452,Na5Li(PO4)2,4.3383,-2.5833158492150297,0.0,0
mp-850946,LiVOF4,2.1572,-2.8405081237157135,0.0379854865178623,0
mp-680387,PrYSi2O7,0.618999999999999,-3.194868913750001,0.4595514295454528,0
mp-975347,NdGeO3,0.0,-2.5090290732500007,0.4501114341944419,0
mp-765127,LiVFe(P2O7)2,1.5781,-2.605132940708617,0.0083827616666605,0
mp-30481,CaPt5,0.0,-0.5275405983333327,0.0,0
mp-16638,Nd2MgCu2,0.0,-0.1931457819999998,0.0,0
mp-771661,Li3Cr(FeO3)2,1.706,-2.183517136458334,0.0009762966666748,0
mp-15865,RbScAsO4F,4.0481,-2.8533036240549987,0.0,0
mp-569019,Gd3Ti2MnSi3,0.0,-0.2641973698148156,0.3555012260555549,0
mp-1002164,GeC,1.6502,0.4357086587500003,0.4357086587500003,0
mp-2008,FeAs2,0.280199999999999,-0.260936896666666,0.0,0
mp-1030536,MoW3(SeS)4,0.7535000000000001,-0.9253473983854156,0.0139120791666682,0
mp-995182,NdB4,0.0,0.5581355291666661,1.123335094999998,0
mp-849216,NaCr2O4,0.0,-2.135797129285714,0.0835690338095114,0
mp-771055,EuZrO3,0.2651,-3.562322473750001,0.0,0
mp-680944,Nb2O5,1.6138,-3.053046921607141,0.0,0
mp-550437,GdTe2ClO5,0.3643,-2.072212425501112,0.1140459195370366,0
mp-604964,PH9C(NO)4,5.0135,-1.078935635010276,0.0611031339484782,0
mp-972542,SmTlAu2,0.0,-0.5680692168749997,0.0,0
mp-774942,Li2V3CuO8,0.5696,-2.243710530357144,0.0477339273809489,0
mp-764415,MnFeCo(PO4)3,0.5134000000000001,-2.314778284874764,0.0280542145833448,0
mp-769283,Sr4Ta2O9,4.1571,-3.3729745354166667,0.071688699333329,0
mp-628967,SrCrP2O7,2.9628,-2.914206016585497,0.0,0
mp-768731,Li2BiBO4,2.1135,-2.2366774267708323,0.095571520312502,0
mp-754359,Y6TeO12,2.725399999999999,-3.5636393605263184,0.0,0
mp-769691,ScCoO3,0.0,-2.5652441952500005,0.0934798694999958,0
mp-759657,Li3CuF6,0.447299999999999,-2.560835533464,0.0558853675833344,0
mp-28993,La(AuF4)3,2.1504,-2.15999603808,0.0,0
mp-777869,Fe6O5F7,1.378399999999999,-2.2679850033099997,0.0888905944444617,0
mp-19881,Dy3InC,0.0,-0.5087219394999998,0.0,0
mp-1571,PrPd3,0.0,-0.7617262325,0.0,0
mp-651786,Ca5MnSi9(Pb3O11)3,2.8158,-2.7836268031966664,0.0,0
mp-768762,Ho2TeO6,3.0134,-3.0500910925,0.0,0
mp-1027412,TeMoS,0.0,-0.7101625346874995,0.0782600791666663,0
mp-21478,U(CuP)2,0.0,-0.4765229932380962,0.0384951670000006,0
mp-567364,Na2ErMoPO8,4.1855,-2.821121002545788,0.0032206603846125,0
mp-672307,NdInPt,0.0,-0.9599548702777776,0.0,0
mp-643293,SrMgNiH4,1.8123999999999991,-0.5062140170685707,0.0,0
mp-780095,LiMnP3(HO5)2,3.7991,-2.363869174852101,0.0784697161764746,0
mp-851003,Fe5P6WO24,2.3386,-2.436940724126984,0.0147483774652759,0
mp-2415,DyTl3,0.0,-0.2130727679166666,0.0,0
mp-560772,Mg2B2O5,5.1356,-3.0337709941203683,0.001851433611109,0
mp-767828,Li2Fe(BO3)2,0.0,-2.35625457689394,0.0729373033522735,0
mp-21323,DyGeIr,0.0,-0.9293385513888902,0.0,0
mp-765454,TiCr7O12,0.0,-2.4574611630833347,0.0283427121250081,0
mp-12324,CsVP2S7,0.0,-1.0342665958752706,0.0,0
mp-851005,Li2Mn3(BO3)3,0.548299999999999,-2.4712887590664705,0.046237904656845,0
mp-2071,Zn3P2,0.3144,-0.1859142632380951,0.0,0
mp-763898,NaVPO5,1.6149,-2.6164881421056547,0.0302192846874849,0
mp-755681,Te2P4H3O16,0.0,-2.0116267239296377,0.0747963676999985,0
mp-27625,Ge19(PBr)4,1.4055,-0.1665347010141099,0.0,0
mp-764786,Li4Mn(OF)2,2.7762,-2.4558144384266662,0.0943063064814815,0
mp-980197,YbErPt2,0.0,-1.20162159625,0.0,0
mp-560192,TaP4(SCl)5,2.1765,-1.0610216439328974,0.0066336345937534,0
mp-971975,SrHgO3,0.0,-1.37399127475,0.2689152057500008,0
mp-673101,LiSn4(PO4)3,3.262099999999999,-2.3350183812142857,0.0385017863333327,0
mp-771773,Na2BiBPO7,0.0292,-2.3317357852926595,0.0765979527430555,0
mp-645124,ZnWO4,2.1359,-1.7015044125000005,0.3557646758333339,0
mp-29573,Sb4S5Cl2,1.869199999999999,-0.8051754215302277,0.0067633134848472,0
mp-973834,PdAu3,0.0,-0.0774800100000003,0.0,0
mp-974505,ReTeO3,0.0,-0.9233484197500004,0.8004261849999992,0
mp-556798,AgHg2PO4,1.186299999999999,-1.5249985569494042,0.0,0
mp-28426,B2PCl2,3.8135,-0.7139015728397141,0.2226757365500012,0
mvc-14312,VF5,2.7003,-2.7665219409916677,0.0593209633333335,0
mp-1416,NbF4,0.0,-3.2078818049519997,0.0688641969666656,0
mp-567511,H8PtCN8,1.9094,-0.1967036180833324,0.1242517705448129,0
mp-9503,BaDyCuTe3,0.5288,-1.242741974444445,0.0,0
mp-2119,TbC2,0.0,-0.1886381894444444,0.0440414018749999,0
mp-18111,Ba2LaC3O9F,3.9314,-2.8730115559337506,0.0,0
mp-1020598,Y4Si2S3O7,2.461,-3.292306342714843,0.0144867594270845,0
mp-568345,Fe,0.0,0.7842520133333329,0.7842520133333322,0
mp-865327,TmHg3,0.0,-0.30758465125,0.0,0
mp-607077,Ce(Al4Fe)2,0.0,-0.416840441136364,0.0,0
mp-763420,Ti2V3Cr(PO4)6,0.0,-2.7311963514417985,0.0819522318865662,0
mp-622848,Sm2Ga9Ru5,0.0,-0.5042654362499999,0.0,0
mp-761524,MgCoO3,0.0,-1.8781501267500007,0.0507451918749994,0
mp-773763,Li4Cr3Fe2Sb3O16,0.5901000000000001,-2.0326690926785704,0.142864758613106,0
mp-6716,Ba4Zr(RuO4)3,0.0,-2.5722221590000003,0.0,0
mp-554311,RbCrF6,1.416399999999999,-2.6527772321425003,0.0,0
mp-7904,CdP4,0.6506000000000001,-0.0685849644761908,0.0089357722619052,0
mp-17708,Ge3Sb2O9,3.036,-1.995814687232144,0.0,0
mp-743584,H12WN3(OF)3,3.6572,-1.2016397864954536,0.1583182963636353,0
mp-763045,Fe4OF7,0.7312999999999991,-2.5539598153816683,0.0695865641666628,0
mp-756473,WSCl4,1.9545,-1.303352144517083,0.003341772791666,0
mp-770865,Mn3SnO8,1.6699000000000002,-1.800407595865,0.0887328479166704,0
mp-28328,RbI3,1.8571,-0.7937847087499998,0.0,0
mp-31369,Gd2B4O9,2.8237,-3.2750546988611102,0.0,0
mp-707424,Al2H12(SeO5)3,4.7445,-1.6792342914991014,0.0,0
mp-3581,Ta4MnS8,0.0,-1.475468466346153,0.0,0
mp-631412,NbRu2Cl,0.0,0.5240856866849999,1.1859168762500003,0
mp-977325,Np3Be,0.0,0.2387202171875007,0.254342594278846,0
mp-756526,Bi2B2O7,0.2197,-2.026706123825757,0.0798549363257441,0
mp-761373,Li2Si5Ni5O16,2.933799999999999,-2.276509333571429,0.0955709810714307,0
mp-769478,Li4Ti4V4CoO18,1.0827,-2.762114821424732,0.0762423410484203,0
mp-769636,Li2Cu2(SO4)3,0.0,-1.8888962807730276,0.031874682763151,0
mp-565694,K2P2WO9,4.0835,-2.5668680087457494,0.0,0
mp-972370,Yb2InHg,0.0,-0.5683579825,0.0124806349999997,0
mp-28205,Na3ReO5,2.4287,-2.168964201064814,0.0,0
mp-622258,RbV2SbO8,2.7554,-2.257223412291667,0.0,0
mp-1027512,Te2Mo3W(Se2S)2,0.0,-0.6406834385416668,0.0778998741666674,0
mp-756458,ErAlO3,5.803000000000001,-3.77923938525,0.0179594912500036,0
mp-31845,LiFe2(PO4)3,0.0,-2.3215536109325416,0.0690103285416734,0
mp-971941,Zn3Ni,0.0,-0.1512281462499998,0.0391268480067577,0
mp-863746,TbBr3,2.8564,-1.860208629583334,0.0,0
mp-4660,Tm(FeGe)2,0.0,-0.4407051120000005,0.0,0
mp-27228,Tl6Si2O7,1.5876,-1.9156271125833333,0.0,0
mp-558902,LiMnGaF6,3.7836,-3.0517310920111105,0.0,0
mp-614981,Ba2Nd(CuO2)3,0.0,-2.22288933125,0.0,0
mp-28472,Er10Ru10C19,0.0,-0.2650804851923071,0.0,0
mp-707104,H4N2O3,3.1871,-0.9051151851933336,0.1598253608824373,0
mp-30099,PdSCl,1.1314,-0.7987605563297228,0.0207601775694454,0
mp-684597,InSb,0.0,0.0077495075000002,0.1348453549999999,0
mp-642210,MgSiO3,4.2049,-3.1040608872499997,0.1465495362500029,0
mp-995237,SiH6CI3N,0.8150000000000001,-0.3739467815916661,0.1316798597786475,0
mp-696347,NaH3SO5,5.3485,-1.8385706166172495,0.0082031909374977,0
mp-999143,SrPd,0.0785,-0.6096255300000002,0.0,0
mp-27483,Li5TlO4,1.66,-1.876475482,0.0,0
mp-772233,Li4VGa3O8,1.6165999999999991,-2.374970035625,0.0393330231250024,0
mp-754631,NaCu2O3,0.0,-1.146571219791667,0.0791058450000168,0
mp-1027150,MoW(SeS)2,0.6591,-0.9354929900520842,0.0313850658333336,0
mp-2525,PrAg,0.0,-0.2481004450000004,0.0,0
mp-556356,Na2SrAl4(SiO4)4,4.7044999999999995,-3.313085890555556,0.0,0
mp-19862,EuSi2,0.0,-0.4680766483333336,0.0652533416666676,0
mp-766047,K5Li3Ti8(AsO5)8,3.0181,-2.5708670103645828,0.0085815822460935,0
mp-850368,LiCr3(P3O10)2,1.7223,-2.569814813452381,0.0755898829166721,0
mp-976384,HoB4W,0.2714,-0.5998755781944437,0.0,0
mp-643431,AgH4WS4N,1.7101,-0.7166089421009093,0.0198224812499985,0
mp-571619,HfAlPt,0.0,-1.0482485205555558,0.0,0
mp-567744,SrBr2,4.4697000000000005,-2.1555222891666665,0.0,0
mp-542613,GeS2,2.2429,-0.7693143457638898,0.0069228313194402,0
mp-572537,K4CO4,2.9688,-1.6793274058333332,0.1611543205555525,0
mp-776919,Ti3Fe2Te(PO4)6,0.118199999999999,-2.6831450655158733,0.094204216310759,0
mp-21660,HfGa2Co,0.0,-0.5067389232499998,0.0,0
mp-761169,Zn2Hg2H2S2O11,1.9089,-1.6527656678481577,0.0,0
mp-769857,VGaO3,1.4157,-2.312378066250001,0.093355253124991,0
mp-2648,NbS2,0.0,-1.4514220360416676,0.003781888333334,0
mp-25036,YbMnO3,0.5091,-2.712319082941999,0.0,0
mp-570609,TlGaCl4,4.2899,-1.5479455380066665,0.0,0
mp-777097,CrAgO4,0.0,-1.2197040966666666,0.0,0
mp-989555,Tl2InGaF6,2.3621,-2.402714241714,0.0,0
mp-10779,RbNdSe2,1.8958,-1.7325499411718752,0.0,0
mp-643471,Ba2Y(Cu2O3)2,0.0,-1.8337316746153849,0.251315042769237,0
mp-770008,Co2(SO4)3,0.4141,-1.7740446357169124,0.0,0
mp-4547,La2TeO2,2.028699999999999,-3.3094609185000015,0.0,0
mp-706411,Fe4Sn(CO)16,2.4478,-0.6616128558108109,0.6015370845045052,0
mp-603609,AlH20Ru(Cl3O5)2,0.0017,-1.4426343841963147,0.0054048124342118,0
mp-510414,V4O7,0.750899999999999,-2.3074231630681816,0.2035011120454619,0
mp-555414,Ba3Sb4O,0.358699999999999,-1.268308051718749,0.0,0
mp-675309,Mg3(AsO4)2,2.039699999999999,-1.829536604102564,0.6409984393589747,0
mp-20061,GePt2,0.0,-0.3534247161111115,0.0311582976388891,0
mp-851047,LiFe2OF3,2.311499999999999,-2.5028909585457138,0.0562552121428572,0
mp-542890,LaCoO3,0.0,-1.2066388607499996,1.4287064920000114,0
mp-774297,Li3MnV(PO4)3,0.0,-2.651879865512286,0.0332882960624489,0
mp-18229,CaTa2O6,3.4758,-3.499718898055556,0.0,0
mp-546625,HoBi2BrO4,1.366499999999999,-2.3659796975,0.0,0
mp-676274,Tl9SbSe6,0.7409999999999991,-0.3546997250976562,0.0,0
mp-765698,Mn6O11F,0.0,-1.8598623219833328,0.0487701963194524,0
mp-705932,Sr10P6ClO24F,5.0933,-3.3965560166195585,0.0013769857142857,0
mp-765970,Ti3Sn7O20,1.7439,-2.506261222666666,0.0367864379166684,0
mp-22550,BaDy2CuO5,0.0,-3.0971618916203703,0.0304615755555888,0
mp-542919,NaGe2(PO4)3,3.832,-2.497215803849206,0.0,0
mp-780259,Li5LaO4,3.3999,-2.475421772875,0.049655003125002,0
mp-27500,NaSO2,2.3189,-1.9785579878906256,0.1197873212760427,0
mp-866713,ReTeSCl4,2.3274,-1.072073359943214,0.0,0
mp-13866,SbO2,0.4216,-1.5161515608333336,0.3383034116666961,0
mp-850957,Na6Ti2O7,3.1128,-2.5365542161388888,0.0403519973333335,0
mp-769932,LiMnBO4,0.2639,-2.3074723232323806,0.0683583154081661,0
mp-667,Tl2S,0.588599999999999,-0.5650555346875008,0.0,0
mp-16483,BaAl9Fe2,0.0,-0.3173298133333328,0.0,0
mp-762386,Li3(NiO2)5,0.496299999999999,-1.1206327168055554,0.0282506931944466,0
mp-5055,Na6MnS4,1.4025,-1.2593242905681823,0.0,0
mp-767926,Li4Ti4Mn4VO18,0.8483,-2.6714136617098925,0.090086987600813,0
mp-28146,LiGa5O8,2.522299999999999,-2.3246764037500003,0.0,0
mp-5830,Na3AsS3,2.5165,-1.1404289531696432,0.0,0
mp-23216,SnBr4,2.7003,-0.6942966944999999,0.0,0
mp-1027448,TeMo2Se2S,0.0,-0.6884268193749996,0.0407225999999987,0
mp-772317,Li3Co(NO2)6,2.395499999999999,-1.179312384967272,0.0700031711001329,0
mp-641565,Er5Sb3,0.0,-0.8749455393750001,0.0083223499999967,0
mp-1013528,Ba3N2,0.0,0.1061781850480002,0.6790122370000002,0
mp-754723,Li2Ti3BiO8,0.0,-2.879340988214286,0.1157358173214229,0
mp-641539,Si3N4,3.5562,-1.0249033188599992,0.2874714932142854,0
mp-743573,KBaFe2(PO4)3,2.5398,-2.6995764783834595,0.0,0
mp-764686,Li2VO2F,1.7955,-2.712892093948333,0.0066468391666632,0
mp-768075,Li5Fe11O16,1.1468,-1.9143514962500008,0.0097007864062499,0
mp-696992,AgP2H8SN7O2,3.21,-0.6276395398034748,0.1730671654552367,0
mp-850395,LiMn3(BO3)3,0.0,-2.404226036820626,0.0984872095442561,0
mp-23018,BiSbO4,2.4146,-1.8569143525,0.0,0
mp-768636,LiBi2BO5,1.7318,-2.050988332824073,0.0931240424074086,0
mp-774374,Na3FeO4,0.4108,-1.5762919082812503,0.0496661875520825,0
mp-9889,GaS,1.8596,-0.9761503145312505,0.0051357725,0
mp-557970,SrCu(TeO3)2,0.0,-1.8595253545000008,0.0,0
mp-541156,Ge4PbO9,3.1907,-2.0381939553273813,0.0064953032440762,0
mp-775464,V3Fe3(TeO8)2,1.5605,-1.8953429358333336,0.1167322572222211,0
mp-20049,LiFeP,0.0,-0.6576872326984132,0.0,0
mp-653243,Ru4C14O13,1.9679,-0.8710246348790304,0.2509802001612922,0
mp-565758,V9O17,0.457999999999999,-2.480932461971153,0.0146167895192395,0
mp-775821,Ti2N2O,0.9763,-2.142962988118664,0.0573990687620025,0
mp-7604,Mg3NF3,3.5817,-2.8047229429928566,0.0,0
mp-21357,U2Fe2Sn,0.0,-0.1483343630000007,0.0,0
mp-980194,TiI,0.0,0.1085641791666658,0.6460771465277784,0
mp-28606,K3AuSe13,0.7186,-0.3944439812775738,0.0,0
mp-14406,Ba2Re6S11,1.3384999999999991,-1.2678196347203945,0.0,0
mp-738707,SiPH18C6INCl,2.7535,-0.3716941640998347,0.0824524764261349,0