mpid,formula,BG,FE,e_hull,fidelity
mp-631274,KFeP,0.0,0.6982360506349199,1.0988036075000007,0
mp-976060,Li3C,0.0,0.4725499156250002,0.4753290197916673,0
mp-771460,TiCo5O12,0.0,-1.4608091828703706,0.0737982777777803,0
mp-2567,V3Si,0.0,-0.4652579024999994,0.0,0
mp-774125,LiNbFeO4,0.784199999999999,-2.510191390000001,0.0568470628571446,0
mp-779756,Na5Co2As(CO4)4,0.0,-1.808884726785713,0.0567077960535984,0
mp-558026,SbSe(IF2)3,1.4032,-1.7336401023394317,0.0,0
mp-1028420,Mo3WSe8,0.923,-0.6417827490625001,0.0006262600000006,0
mp-23778,H4CN2O,5.0712,-0.7941016859987506,0.0,0
mp-778410,Li3Fe3OF7,2.0228,-2.6031752117557145,0.1718994710714279,0
mp-640051,Pu2Ni2Sn,0.0,-0.2894119027499997,0.0,0
mp-772248,LiV4CuO12,0.3871,-2.093348279166667,0.0434863587499974,0
mp-7656,Na5GaO4,2.2018,-1.829307231999999,0.0,0
mp-541097,Zr3Pb(O2F3)2,2.839,-3.6845547205100018,0.0,0
mp-1008610,AuN,0.0,1.4979131938099997,1.4979131938099997,0
mp-680842,Ca5MnPb3,0.0,-0.2951260399999995,0.1796115911111142,0
mp-1018115,PbS,1.3589,-0.8299314720312507,0.0378989650000001,0
mp-766757,Ti2Fe4O9,1.3253,-2.474810205305555,0.0306364122563973,0
mp-558834,Eu2B5BrO9,0.8801000000000001,-2.9737432392401955,0.0,0
mp-985707,CoSn3,0.0,-0.0523808878125002,0.0,0
mp-705844,Mo5(O4F)3,0.0,-2.1908529151785,0.0009433082500009,0
mp-1028626,Te4MoW3(SeS)2,0.0,-0.4626958321093753,0.087179713958335,0
mp-707536,KHSeO4,3.5239,-1.5415373446019645,0.0,0
mp-971926,YErRu2,0.0,-0.3269664793750007,0.0,0
mp-30589,LaCu4,0.0,-0.1562391962222218,0.0039356424444436,0
mp-697179,ZrH,0.0,-0.4915275355600004,0.0,0
mp-567752,Cs2In3,0.008,-0.1702751219999996,0.0,0
mp-510381,Fe3NiN,0.0,1.781628121524001,1.939076171666668,0
mp-29976,Na3BS3,2.5782,-1.2396151298363105,0.0,0
mp-568208,IrCl3,1.8275,-0.9255916918199992,0.0019642643750001,0
mp-767027,Li4FeSi2O7,3.441999999999999,-2.722624333482142,0.0196571519642851,0
mp-558435,KYb2F7,0.0,-3.3278501663330005,0.0343766277499986,0
mp-567414,BiAuCl6,1.6272,-1.0877067977575,0.0,0
mp-14334,K2RbPdF5,2.2313,-2.5374382251055554,0.0010207753703683,0
mp-30045,CoGe2,0.0,-0.1512964983333328,0.0,0
mp-768065,VCrO3,1.260499999999999,-2.432153897249999,0.007935531624998,0
mp-781825,Li9Cu2(HO2)4,0.0,-1.7114903893252162,0.071979110978261,0
mp-620294,MnNb2Zn2O8,2.5005,-2.5307461654584604,0.0224547857692307,0
mp-770166,Li2FePCO7,2.452899999999999,-2.3353179861954363,0.0212558361979091,0
mp-555071,BrN(OF2)2,2.341,-1.0689801937050007,0.0586497719791649,0
mp-770004,Ni5(TeO6)2,0.202199999999999,-1.0806164792105268,0.0785565055482475,0
mp-991,WN,0.0,-0.2606490611899996,0.1301604974999985,0
mp-631467,BeInSi2,0.0,0.7088298087500005,0.7088298087500005,0
mp-23717,Ca2MgP2(H2O5)2,5.3863,-2.667750788061604,0.001239062192984,0
mp-761635,Li2CoP2O7,2.8826,-2.4718467874950405,0.0813741985069205,0
mp-569309,RbMnCl3,1.3133,-1.814753430956,0.0,0
mp-775334,V3Cu(PO4)4,0.2426,-2.5028696938492048,0.0307472312499843,0
mp-568336,Lu2Si5Ir3,0.0,-0.931196224,0.0,0
mp-554371,CaSiBHO5,5.3854,-2.9622451632262945,0.0014387112962976,0
mp-20786,Dy3In,0.0,-0.2741484450000007,0.0,0
mp-862795,CaLaAg2,0.0,-0.3123507400000003,0.0,0
mp-1027093,TeMoWSeS2,0.0,-0.7957343494531249,0.0712741975000001,0
mp-9973,VB,0.0,-0.8457575633333345,0.0,0
mp-674537,Ba2Bi6O11,1.8359,-1.7178660101973684,0.2415769500000007,0
mp-765975,VF5,3.175099999999999,-2.743643954741668,0.0821989495833328,0
mp-1030980,RbNaMg6O7,0.0,-2.2782165809166672,0.4348538895833327,0
mp-22457,K3Na(SO4)2,5.2921,-2.3719166195089283,0.0003303140178561,0
mp-31460,NbCoSb,0.0,-0.204433201666666,0.0174739509649137,0
mp-441,Rb2Te,1.884299999999999,-1.0051482266666667,0.0,0
mp-764888,Li3Fe4(BO3)4,1.3589,-2.3826526783333333,0.0341767228260998,0
mp-753990,BaY2F8,6.276,-4.333287645865456,0.0739655400000014,0
mp-862261,Sc2ZnRu,0.0,-0.4891790524999991,0.0,0
mp-753326,LiAg2F6,0.0,-1.7705687896822222,0.0494626677777794,0
mp-754757,SbRhO4,0.0,-1.5804804475,0.0,0
mp-763546,Mn(SbO3)2,0.0,-1.981952457051111,0.0153612835185317,0
mp-25885,LiCuPO4,0.3915,-2.189703121156462,0.0575089146428711,0
mp-780018,Fe3(O2F)2,0.0,-1.962464228042223,0.0819264935416654,0
mp-16577,Li2CaHfF8,6.9952,-3.90267758871,0.0,0
mp-554928,H12C3NF3,7.2752,-0.8526217947047359,0.0815097959868405,0
mp-770160,Li2Co2(SO4)3,2.703,-2.059848653536184,0.0201054681578964,0
mp-9453,Sr2ZnCu2(SO)2,0.673,-1.7502141461805567,0.0827599620833359,0
mp-674465,K2SrCl4,4.988099999999999,-2.4951438165057143,0.0265837510714286,0
mp-1008601,ZrAg2,0.0013,-0.0473564033333341,0.0344535099999996,0
mp-30591,Li2CuSn,0.0,-0.3248843412500002,0.0,0
mp-22390,SrRuO3,0.0,-2.2039962502499995,0.0,0
mp-764104,Li8Co(O2F)2,2.4959,-2.2028060991586664,0.0818733413333285,0
mp-11952,KHg11,0.0,-0.1028951775,0.0,0
mp-762746,Li2Fe2SiO6,2.2232,-2.3486659929545457,0.0886249927272739,0
mp-565487,VH14C4NO2F3,3.0679,-0.9809513383652,0.1129732812916657,0
mp-20304,RhN2,0.0,0.108441093413333,0.1084410934133313,0
mp-38394,Ba(AlTe2)2,1.505299999999999,-0.888726337142857,0.0089672442857171,0
mp-759450,Sb5O7F,2.662,-1.7927381863415388,0.0781120208173078,0
mp-770102,Li3Al2VO6,1.9795999999999991,-2.866417841458333,0.0272439354166662,0
mp-768893,Mg2(TeO3)3,1.7748,-1.9457992797321428,0.0528343422916659,0
mp-11185,Sm3Sb4Pt7,0.0,-0.8858127591071424,0.0,0
mp-565725,ZrV2O7,2.5909,-2.8314612853749983,0.0,0
mp-571288,KTa(AgSe2)2,1.7478,-0.6756397011718747,0.0,0
mp-30389,HoPbAu,0.0,-0.6683766816666677,0.0,0
mp-8716,K2MnSe2,0.9895,-0.9426196754374992,0.0,0
mp-974882,Rb3Mo,0.0,1.2031778450000004,1.2031778450000004,0
mp-7814,Ta2CS2,0.0,-1.2039465591249994,0.0,0
mp-600049,SiO2,5.646800000000001,-3.2521485506249994,0.0325643568749995,0
mp-8843,SrSiPd,0.0,-0.7546832833333337,0.0,0
mp-851257,V2OF5,1.5619,-3.0502122290250004,0.0019785524999988,0
mp-10064,SiO2,1.7395999999999991,-2.0133455475,1.2713673600000002,0
mp-2524,NdGa2,0.0,-0.6893560291666662,0.0,0
mp-989504,Na2LiNF6,2.7239,-1.8730592629520004,0.0,0
mp-989545,Rb2NaSbCl6,3.052499999999999,-1.869099821956,0.0,0
mp-556192,C4O5F6,5.3178,-1.8590907963926668,0.1323213439166686,0
mp-705752,Fe2NiO4,1.277499999999999,-1.52350907375,0.1349808305357154,0
mp-631559,TlCoMo2,0.0,0.6564380012499997,0.6712156762500001,0
mp-29295,Sr3Sb4S9,1.0408,-1.355765790722656,0.0,0
mp-867348,DyMgSn,0.0,-0.5695255705555553,0.0,0
mp-697855,Li2Cr3(P2O7)2,2.7561,-2.5737501921687373,0.0351878897101194,0
mp-767811,CoH4SeO5,2.7172,-1.3074238435748862,0.0644658871969694,0
mp-561487,Te4As2S(OF6)2,1.1831,-1.9774055955163088,0.1160275750757557,0
mp-557438,Sm2Ti3(BiO6)2,1.899499999999999,-3.1374263810526317,0.0396553140131494,0
mp-543047,KNaCu(Si2O5)2,0.8046000000000001,-2.8144972113235305,0.0107882013970579,0
mp-631293,HgP2Se,0.0,0.7588175538039432,0.8637190709523811,0
mp-984728,BC,0.0,0.4993374954166656,0.5412122189423059,0
mp-510122,CePu4Co3,0.0,0.0316210296874999,0.1529289135546854,0
mp-765257,Li6V2O5F2,1.9696,-2.4817543952420005,0.1081797493333303,0
mvc-5676,TeWO6,1.4416,-1.7128403396875005,0.0485318887499994,0
mp-684815,Ba4La2Ti3Nb2O18,2.1891,-3.479422189396552,0.0419239904022976,0
mp-22708,Th3Co3Sb4,0.0,-0.7216265159999992,0.0,0
mp-696795,Cu2H3NO6,0.0,-0.8940829271449999,0.2034981549999983,0
mp-767232,LiV2(PO4)2,0.5545,-2.664724706245422,0.0144431337651802,0
mp-1027652,TeMoWS3,0.0,-0.926933482864584,0.0990664049999994,0
mp-566047,K2Mo(SO5)2,2.8796,-2.202349439708333,0.0,0
mp-675537,Tl4Te3Mo,0.0,0.0953159106250001,0.3867385130519474,0
mp-771785,Li3Co(NiO2)4,0.0,-1.3600693006249989,0.0056867640624949,0
mp-5939,PrB2Ru3,0.0,-0.3878951430555553,0.0260123099999951,0
mp-653005,Ca2(Fe2O3)11,0.0,-1.9497495789692976,0.0212649052631626,0
mp-19733,Ce2In,0.0,-0.2250789633333336,0.0092953879166675,0
mp-570556,Sr(InAu)2,0.0,-0.5603396955000001,0.0,0
mp-20579,DyCoSn2,0.0,-0.3816855179166669,0.0635179400000005,0
mp-1026034,Mo(WS3)2,1.3041,-1.2760052782638904,0.0018113883333317,0
mp-976818,Ni3Au,0.0,0.1243622874999994,0.1243622874999994,0
mp-7142,OsC,0.0,0.9108525087500006,0.9108525087500006,0
mp-626470,Al(HO)3,5.0046,-2.113549892801428,0.0230646196428567,0
mp-1018165,PtC,0.0,1.4749901362500006,1.4749901362500006,0
mp-639876,U2SnRh2,0.0,-0.4619804079999994,0.0,0
mp-764713,Li7V4O11F,1.557499999999999,-2.519332288693044,0.0559355615760708,0
mp-865717,Ti2ReIr,0.0,-0.7493398370833333,0.0,0
mp-999576,Mn2SiRu,0.0,-0.3842572087500002,0.0079354750000018,0
mp-541656,AuCl2,0.897899999999999,-0.6416210663399999,0.0,0
mp-777506,V3(O2F)2,0.0,-2.675649774153332,0.053959425555556,0
mp-780542,Li2Mn3CrO8,0.0,-2.0739150373485713,0.0735808250000156,0
mp-19434,Pr2NiO4,1.6753,-2.8849656592857147,0.0484248321428575,0
mp-22667,UFeS3,0.0,-1.3278771744375006,0.1195917981250005,0
mp-558059,LiMnF4,1.855,-2.950256304286666,0.0,0
mp-32715,B36O5,2.3416,-0.6740975818597565,0.0165612341463408,0
mp-4271,EuTaO4,0.0,-3.3583992275000014,0.0095291808333328,0
mp-765764,V4O5F7,0.557199999999999,-2.75601902247375,0.0189675543750178,0
mp-8180,LiNO3,2.9369,-1.4742529712259995,0.0,0
mp-761825,LiSb(TeO4)3,1.394599999999999,-1.5859880717647064,0.0,0
mp-910,NbC,0.0,-0.4564894787499991,0.0395830727083339,0
mp-755061,SrCaI4,3.7126,-1.616713992916667,0.0598323233333331,0
mp-647347,Np2InPt2,0.0,-0.2947763545000001,0.1224084456250018,0
mp-758089,Li2Ti3O6,0.0,-3.128505282954546,0.0350185372727338,0
mp-754163,BeClO,0.0,-1.9753071131699984,0.1345587816666675,0
mp-1030268,TeMoWSeS2,0.0,-0.7962472927864587,0.0707612541666664,0
mp-765823,Co3WO8,0.0,-1.413625283750001,0.1543683048958302,0
mp-3337,Ti6Si7Ni16,0.0,-0.7020199082758635,0.0,0
mp-13356,Ba2SrTeO6,3.129199999999999,-2.7456089957500014,0.0,0
mp-523,CrS,0.0,-0.8313112870312498,0.0893769481249995,0
mp-865239,UF3,0.0,-3.6010834571425003,0.1289853858333334,0
mp-22673,MnInCu2,0.0,0.0710325025000004,0.0792900767105271,0
mp-972479,Sm3Sc,0.0,0.0415207906250003,0.0415207906250003,0
mp-6856,Be3Zn4Si3SO12,3.9654,-2.707477230394022,0.0,0
mp-754055,CsErO2,2.8037,-3.009379383125,0.0,0
mp-757312,NaInBP2HO9,3.9372,-2.51306252668181,0.0134956595238131,0
mp-568107,AlGe2P(H3C)8,3.8439,-0.2635522537493118,0.0848304548611107,0
mp-573608,CdI2,2.3845,-0.5844042275,0.0077327710555556,0
mp-771843,Mn3(PO4)2,2.8782,-2.562154776082344,0.0024926749999938,0
mp-574112,Ti(AlCl4)2,0.3218,-1.8991122552496968,0.0388629456818172,0
mp-686085,Sc13Cu13O33,0.0,-2.513391761038134,0.1047562834639954,0
mp-3688,Er2Sn2O7,2.673,-3.0481856185227283,0.0,0
mp-16777,NaAlP2O7,5.2801,-2.9195208856764068,0.0010359871210852,0
mp-976272,LiCa3,0.0,0.0850340049999998,0.0886915290625003,0
mp-31294,Sr2In3Rh2,0.0,-0.4995011257142851,0.0,0
mp-755355,La2Pr2O7,0.0,-3.3480824103409104,0.1228637535227274,0
mp-23382,Y4CI5,0.0,-1.126995987749999,0.0,0
mp-13436,PrMgNi4,0.0,-0.3047781183333331,0.0,0
mp-13467,Ce(GePd)2,0.0,-0.7813009119999996,0.0,0
mp-30853,Tl2Pt3,0.0,-0.1105768544999996,0.0,0
mp-27505,Fe3Sn2,0.0,0.0014695990000006,0.0016865263333354,0
mp-11514,NbPt2,0.0,-0.6945955266666672,0.0,0
mp-540707,Cs2Sn(GeO3)3,2.6073,-2.1856561427500005,0.0,0
mp-8189,LiReO3,0.0,-2.12125270075,0.0750381517857166,0
mp-761488,Ti7(Fe3O8)3,1.4133,-2.643283374666667,0.0556887084615382,0
mp-669377,Ba2CaWN4,1.8491,-1.1523912705649997,0.0,0
mp-619753,Cs4CdNi3F12,4.428,-2.568815726464,0.0,0
mp-765171,Li4V3Co3(SbO8)2,0.343399999999999,-2.102949557857142,0.0424513804762005,0
mp-680210,Ba3WN4,1.5479,-1.0864460841066672,0.007882396302083,0
mp-559274,Ba21Ge2O5,0.0,-1.0497198479017855,0.0730895508928584,0
mp-865925,LiZrIr2,0.0,-0.5666770825,0.0,0
mp-8676,Tl(CuS)2,0.0,-0.5202196006249998,0.0,0
mp-8120,NdCuSi,0.0,-0.6171649191666658,0.0,0
mp-18749,NiSO4,3.2555,-1.7349590381770834,0.0,0
mp-23095,Ca3Cu2(ClO2)2,0.0,-2.3146566846836363,0.000523167272723,0
mp-763955,Li4MnV3O8,0.6019000000000001,-2.3963560375600004,0.037623854218749,0
mp-27823,SmClO,4.876199999999999,-3.492902819003333,0.0,0
mp-759915,Li2BiP3O10,2.5981,-2.5402359751116066,0.0702618560416672,0
mp-625513,Te(HO2)2,1.7656,-1.3433155488914283,0.0270671678571439,0
mp-675843,CsCrI2,0.0,-0.57574427625,0.3599928020833336,0
mp-777470,LiFeF3,3.458999999999999,-2.8486080360473327,0.0664443576666631,0
mp-651934,CsCrP2O7,2.676599999999999,-2.682551413858225,0.0,0
mvc-5076,Ca2FeWO6,2.3313,-2.716835870250001,0.0,0
mp-677193,Mg3BH2O5F,4.010299999999999,-2.7498669384455545,0.0047421748437512,0
mp-9380,SrGe4O9,3.0645,-2.355757466755953,0.0,0
mp-1019509,B2S2O9,6.6762,-2.208029285592949,0.0,0
mp-697025,HI,4.0739,-0.0636921949349997,0.0,0
mp-23777,H8C3SN(OF)3,5.8094,-1.0810620559327633,0.2449509313627818,0
mp-778316,Li4VTe(WO6)2,1.658,-2.1931951762500006,0.0591601878750065,0
mp-778732,Li2MnF4,4.0178,-3.0758035908171424,0.0221270985714285,0
mp-504898,Nb2Pd3Se8,0.491,-0.6195007752884611,0.0,0
mp-755840,Nb2SbO6,0.0,-2.6464376119444446,0.0651381535185091,0
mp-559602,AgSb(S8F3)2,2.7422,-1.2553822688391676,0.0,0
mp-12955,HoAgSe2,1.2728,-1.2071216949218757,0.0,0
mp-19707,V2Zn2O7,2.5531,-2.1806749089772723,0.0,0
mp-5864,FePS3,0.0,-0.6431151830565482,0.1341585943181833,0
mp-809,ThCo5,0.0,-0.1399543383333335,0.0094525062222219,0
mp-754870,Li2RhO3,0.0,-1.7680969497916668,0.0,0
mp-779382,Li3V4(OF3)3,0.9921,-2.959810489971579,0.0849311714912381,0
mp-763026,V3(O2F)2,0.4095,-2.698542930264443,0.0310662694444587,0
mp-558139,CuS,0.0,-0.2564500170312496,0.2734344641666713,0
mp-541593,ZrPb2F8,5.2222,-3.308803338592728,0.0199474768181806,0
mp-556328,AsS,2.0317,-0.4433404167187502,0.0228365453124999,0
mp-13152,TiSe,0.0,-0.8312401726302092,0.2972902178124999,0
mp-762255,Li(NiO2)2,0.0,-1.044357705000001,0.0408373275000011,0
mp-865426,YbNdAg2,0.0,-0.3647057343750002,0.0,0
mp-975142,RhI,0.0,0.3662869474999999,0.4441748887500001,0
mp-678358,Hf5ZrTe8,0.0,-0.8034017717857144,0.0,0
mp-1020114,MgSi2O5,5.011099999999999,-3.0969303060937508,0.1664685489062405,0
mp-704544,ThV2O7,2.6022,-2.9297646017499988,0.0514942160000018,0
mp-771919,LiFeO2,0.3056,-2.0014414625000008,0.0754138218750002,0
mp-19861,LaCrSb3,0.0,-0.5007983719999999,0.0048427030000013,0
mp-2275,UF6,2.7932,-3.708834134591428,0.0,0
mp-567692,Y3Ni4B4C3,0.0,-0.5133457254761912,5.453500000029976e-05,0
mp-10445,Sc6FeTe2,0.0,-0.6238781444444454,0.0,0
mp-567756,La2CN3Cl,1.8792,-1.6328299032714284,0.0,0
mp-744193,Ca2CrH2I2O11,2.9479,-1.8094557890827772,0.0099232283333332,0
mp-757310,ZnP2H14C2(NO)6,4.9663,-1.0801974610854994,0.044151177420213,0
mp-11831,YbZnSn,0.0,-0.5785494733333332,0.0,0
mp-33363,LiYS2,1.959699999999999,-2.1769834226562508,0.0083757149999996,0
mp-4993,TbSi2Ni,0.0,-0.8423389470833333,0.0,0
mp-12427,Sr2TaGaO6,4.0418,-3.1942961047500003,0.0,0
mp-30464,Bi2Pd5,0.0,-0.2695106107142858,0.0,0
mp-6949,InF3,4.0226,-2.8619043158925006,0.0,0
mp-19134,CaCrP2O7,2.9342,-2.885219196358225,8.121681818451519e-05,0
mp-571535,CdI2,2.3615,-0.5911023645833332,0.0010346339722224,0
mp-28550,Hf2Ag3F14,0.1527,-2.8752972198242106,0.0,0
mp-10909,AlRe2,0.0,-0.2649563799999998,0.0,0
mp-9209,In2(SO4)3,3.6946,-2.061919369099265,0.0022038336764707,0
mp-21246,Ba2Pb,0.0314,-0.5385643783333336,0.0,0
mp-1029062,MoW3(SeS)4,0.5837,-0.907793915885416,0.0314655616666685,0
mp-21374,Cd(InTe2)2,0.8481000000000001,-0.384303955,0.0,0
mp-756093,Na12NbO7,0.0,-1.5782715889375003,0.0975543419999986,0
mp-574021,Ce2ZnNi2,0.0,-0.3521600510000006,0.009649695666666,0
mp-10311,ZrVGe,0.0,-0.6605997816666663,0.0,0
mp-781494,Li4Ti3Mn3(CuO8)2,0.097599999999999,-2.320452756888572,0.0863717378868891,0
mp-977126,Li3Ag,0.0,-0.1507325575,0.0095304624999998,0
mp-685090,Ga2O3,0.0058,-2.0623813047500006,0.2184815500000025,0
mp-13427,Sr3Hg2,0.0,-0.445814249,0.0,0
mp-641923,Cs2SnBr6,1.438899999999999,-1.2686385761111112,0.0,0
mp-850518,Mn4O7F,0.0,-1.8953919582316665,0.0622723248958436,0
mp-770280,Li6Bi(BO3)3,4.186299999999999,-2.5017874841447365,0.0090438536842096,0
mp-505693,Mg2GeB2Rh5,0.0,-0.6448000828333342,0.0,0
mp-693773,ScH16C3S3O17F9,3.936,-1.7561242993789283,0.1616139498469397,0
mp-14088,Rb2PdF6,2.2614,-2.4190586107933334,0.0,0
mp-764845,LiVOF3,1.8467,-2.9832978249699997,0.0133729150396915,0
mp-766938,K3Li2Nb5O15,2.5576,-2.88087677515,0.0107633294666431,0
mp-582618,Eu2C(NCl)2,0.9358999999999992,-1.788343642682857,0.0,0
mp-762398,Li2CrSi3O8,3.1126,-2.8724725735714296,0.0595570977142889,0
mp-686015,Ca3(PO4)2,2.773,-2.7688091843223455,0.5670469653846215,0
mp-34169,Zn(InSe2)2,0.8265,-0.6009548813392861,0.0007626614285713,0
mp-627867,Si4H2O9,2.037,-2.732812904232667,0.1731241204999989,0
mp-851036,P3(WO6)2,2.056499999999999,-2.5168879334873946,0.0,0
mp-634812,H2O,5.3268,-1.3238498394966662,0.0669836541666741,0
mp-16830,Sr(Ni2B)6,0.0,-0.3422443973684212,0.0,0
mp-772572,Rb6Co2O7,1.1372,-1.543242432583333,0.0,0
mp-995190,KCaSiHO4,4.3515,-2.7870013898275,0.0155593253124948,0
mp-684588,Sn3P4,0.0,0.1727824946598641,0.199230986904765,0
mp-38511,Ag2S,0.121,-0.2372696430208337,0.0409584100000022,0
mp-33406,La2PbSe4,1.8284,-1.5945361791964283,0.0170986542857143,0
mp-760075,Ti19O30,0.0,-3.3459920486564614,0.0119291273469581,0
mp-556450,PrB2ClO4,5.0695,-3.1030389570741663,0.0,0
mp-862936,PmMgAg2,0.0,-0.2956158093749996,0.0,0
mp-561647,Cs2TeOF4,5.0193,-2.64104606012625,0.0,0
mp-780492,Li4VP6(H4O11)2,2.4366,-2.2722880781714982,0.0628841386922216,0
mp-769366,Nd3SbO7,2.5869,-3.3228528492045464,0.0,0
mp-568295,Pr8(BCl)7,0.0,-1.4097151322493937,0.0,0
mp-770687,LiCr2O5,0.0,-1.9839445232812496,0.0943325298958406,0
mp-1001615,LiZrSe2,0.0,-1.3600437692968752,0.0,0
mp-27987,BrF5,3.4378,-1.346424349325,0.0,0
mp-4733,ThTi2O6,3.145599999999999,-3.792470525648148,0.0157771166666673,0
mp-972641,SmHoIr2,0.0,-0.7316727993749996,0.0,0
mp-567378,Ba5P9,0.0,-0.8413149727040822,0.0,0
mp-753748,Li3CuS2,2.2411,-1.2109524988541676,0.0501124101041661,0
mp-766914,LiV2F7,1.771,-3.187230639332999,0.0404066084999907,0
mp-510065,CsNdHgSe3,1.3561,-1.2422321038802082,0.0,0
mp-971919,ZnSn3,0.0,0.1271821074999999,0.1271821074999999,0
mp-777888,LiFeF3,3.2689,-2.8806311437140004,0.0344212499999958,0
mp-849783,TeH14C3S3(N3F2)2,2.2372,-0.8179779357066925,0.0869810651364053,0
mp-772382,Li2FeSi3O8,3.040899999999999,-2.833085056428572,0.0755465891071409,0
mp-559961,Tl2SeO4,3.3122,-1.2468113297991068,0.0,0
mp-653811,Sr2NdCu3(PbO4)2,0.0,-2.0536999379687493,0.0168121100000009,0
mp-698685,V2Bi4O11,2.3001,-1.961847321102941,0.0518398395587986,0
mp-776724,Li4Fe2OF8,2.6715,-2.8639959413846667,0.0574697612962982,0
mp-765070,Li5CoO4,1.6006,-1.968722201125,0.0,0
mp-1731,LaCo5,0.0,-0.0118443500000005,0.0332349140942014,0
mp-707735,MgH12(I4O3)2,1.3114,-1.0792155459607404,0.0,0
mp-763031,Fe4O3F5,1.1787,-2.3057782003916683,0.089193223333325,0
mp-4810,Pr(CoGe)2,0.0,-0.5778658439999994,0.0,0
mp-28727,La4Bi2S9,1.0769,-1.9634922584375003,0.0108436075000089,0
mp-1018768,Li3LaBi2,0.157899999999999,-0.7288706416666665,0.0,0
mp-770091,Li4AlCr3O8,3.2438,-2.5657315496875004,0.0081103770312509,0
mp-21589,Ga9Ni13,0.0,-0.3866421045454535,0.0,0
mp-569126,AgBi(PSe3)2,1.2778,-0.1867902657752985,0.0,0
mp-571593,CdI2,2.3731,-0.5911844863888887,0.0009525121666669,0
mp-23074,BiOF,3.1226,-2.2155879824800007,0.0269850883333324,0
mp-985297,Ag3Rh,0.0,0.2287450200000003,0.2287450200000003,0
mp-763831,Li8Mn(O2F)2,2.4668,-2.2730001885560003,0.0872943863333288,0
mp-865659,Y2ZnIr,0.0,-0.6160293499999998,0.0,0
mp-756541,K6YO4,0.0,-1.7389028525,0.0796374526136372,0
mp-553930,B2Pb6SO12,2.7033,-2.023684286899802,0.0,0
mp-4196,NdFeSi2,0.0,-0.6539869506249989,0.0,0
mp-771668,TiV4FeO12,0.7023,-2.364345903981482,0.1881808906944488,0
mp-775632,Li4V2CrTeO12,0.7803,-2.1230428152500003,0.1034456964722245,0
mp-631333,LiPdW2,0.0,0.7735965125000002,0.9886742600000008,0
mp-27549,K2AgBi,0.6777000000000001,-0.3332402487499997,0.0,0
mp-1018702,EuZnGe,0.0,-0.4609344216666654,0.1014599383333338,0
mp-763290,V3(O2F)2,0.6421999999999991,-2.7116443213755552,0.0179648783333483,0
mp-662792,Os2C6SO6,1.9976,-0.9825338382708328,0.1682005901666681,0
mp-864877,Hf2CoRe,0.0,-0.4101738237500001,0.0,0
mp-758861,Li3AgF4,2.6452,-2.6061529257512497,0.0789671973437498,0
mp-673624,MgNb2(PbO3)3,2.1362,-2.45676313675,0.005748937249999,0
mp-560216,Cs2GeP4O13,4.1237,-2.6128004636815483,0.0,0
mp-864629,Pm2TlCd,0.0,-0.3667279437500004,0.0,0
mp-973940,LiCd3,0.0,-0.1696120037499999,0.0148151687499999,0
mp-12769,YSi2,0.0,-0.5442794325000003,0.0247535483333329,0