mpid,formula,BG,FE,e_hull,fidelity
mp-32023,LiMn2(PO4)3,0.0,-2.33746446923365,0.0660368359027767,0
mp-3376,Sr2SnO4,2.5727,-2.7890428071428564,0.0133987342857144,0
mp-555911,TlAsF6,4.6463,-2.4901551796425,0.0,0
mp-776274,Na5Bi2As(CO4)4,0.472299999999999,-1.8757427524999997,0.0734776509642802,0
mp-18399,Dy3Ni7B2,0.0,-0.5086000656944437,0.0,0
mp-773978,Li4Co3TeO8,0.7389999999999991,-1.7760620018749993,0.0473125889062497,0
mp-22811,InCuSe2,0.004599999999999,-0.4412732655468754,0.0,0
mp-1019892,La2B8O15,4.385699999999999,-3.120494187283333,0.0229011199333335,0
mp-23799,NaZnP2HO7,4.5108000000000015,-2.4029295323800395,0.0175370419642879,0
mp-866001,AlVRu2,0.0,-0.6369532525000006,0.0,0
mp-989193,SnBrF,1.9947,-1.6553501920633331,0.0299285823333397,0
mp-777662,LiMn2(BO3)2,0.5207,-2.4416276172199995,0.0704495496212072,0
mp-769048,Li3NbS4,2.0896,-1.4030237864062496,0.0768895109375007,0
mp-582587,SbH6C2I,2.5887,-0.222336987672,0.108896436958334,0
mp-555676,SiO2,4.5916,-3.03555548375,0.2491574237499989,0
mp-1250,Lu2In,0.0,-0.3344465583333331,0.0,0
mp-4416,Ho6FeSb2,0.0,-0.5552349633333336,0.0,0
mp-740711,Cs3B6H12Se4Br,4.4933,-0.5043271120313455,0.0,0
mp-1018810,Na2Cl,0.0,-1.2568133094199998,0.1464709100000001,0
mp-17660,SrPrCuSe3,1.019899999999999,-1.5369605976302083,0.0,0
mp-557772,CsNiF3,5.3618,-2.509593389714,0.0,0
mp-763976,V4O7F5,1.3889,-2.53367735623125,0.0447508870833388,0
mp-778299,Li2VPO5,1.237299999999999,-2.6239669054828045,0.0891405428240688,0
mp-571512,TePt,0.0,-0.2131261775000004,0.1323897949999999,0
mp-754541,TmTlO2,1.3081,-2.7766573768750007,0.0996056826562492,0
mp-21166,SrCaPb,0.2768,-0.5816862891666664,0.0,0
mp-566412,NaFe(SeO4)2,1.8817,-1.4791359385156249,0.0,0
mp-23927,TiH12(NF2)4,4.5618,-1.6541366589658668,0.0653284017397286,0
mp-865525,YCdHg2,0.0,-0.3781399068750002,0.0,0
mp-1029380,TeMoWSe2S,0.0,-0.6327728627083337,0.0581918716666667,0
mp-761603,LiV(SiO3)2,2.045299999999999,-2.9562846517500003,0.0286693010000114,0
mp-11646,Cd(C2N3)2,4.5428,0.0980901123381828,0.1321442848163618,0
mp-735531,NiH8(ClO2)2,3.9693,-1.256698684865333,0.0504274131666679,0
mp-16528,Al6Re,0.0,-0.2041112499999999,0.0,0
mp-684935,Ba2Ho2Al3Si5N11O3,0.0,-1.3550555226896142,0.5723832220192318,0
mp-2502,TmCd,0.0,-0.3096298024999999,0.0,0
mp-685048,Ag2Te,0.0,0.0016337123809523,0.0654832515476213,0
mp-756593,Ta3(OF)5,2.197,-3.3923574782461534,0.0831460707692404,0
mp-754118,Sr(AsO3)2,3.2716,-2.2497455452777784,0.0003272272222218,0
mp-976892,Na(TeMo)3,0.0,-0.4010473485714284,0.0,0
mp-1260,SrPd5,0.0,-0.3735921166666672,0.0,0
mp-743974,MnH12C2NCl3O2,3.9672,-0.9360528055504752,0.0424500023809528,0
mp-650929,Na2Ti9O19,2.1886,-3.355891063791665,0.0334534445833352,0
mp-3924,LiNbO2,1.579499999999999,-2.696878413125,0.0,0
mp-981547,PrH3,0.1593,-0.6065242389649992,0.0,0
mp-684508,LiSb2(PO4)3,2.0471,-2.3979076177380954,0.0337233636573985,0
mp-730190,H4NF,6.1796,-1.145080555508334,0.0317731383333459,0
mp-973614,K3Sn,0.0,-0.0426523437499999,0.1049342709374998,0
mp-759798,Bi7(O2F3)3,2.9241,-2.324794692532272,0.0193673026136398,0
mp-762848,Li2MnP4(H4O5)4,4.1786,-1.956320691075836,0.0152320793023248,0
mp-248,Fe2N,0.0,-0.1590003430155538,0.0569650694444448,0
mp-31079,Ce3(Al3Ru)4,0.0,-0.6460814192105265,0.0,0
mp-20278,Fe(BMo)2,0.0,0.5574167603333336,0.9856548060000012,0
mp-11232,YAl3,0.0,0.5093042043749998,0.9474861362499992,0
mp-632319,CsH,2.5693,-0.1751018493099998,0.0521267249999999,0
mp-765890,LiMnPO4,3.612199999999999,-2.5979899127221766,0.0521683142857138,0
mp-27672,Nb2P5,0.0,-0.5605136439965993,0.0208895049149679,0
mp-754942,SrSm2O4,3.5881,-3.634194098571428,0.0204361783928561,0
mp-28263,KH3O2,4.3804,-1.5523098476433326,0.0,0
mp-979114,Th3U,0.0,0.2586816600000006,0.2586816600000006,0
mp-850984,MnOF,0.0,-2.3549674794666675,0.0439826870833375,0
mp-17805,Ba2SnSe3F2,1.722199999999999,-2.2573207541451565,0.0,0
mp-4764,Pr2SeO2,2.1691,-3.26593513621875,0.0,0
mp-16184,Rb2B2Se7,1.7001,-0.5224781021354175,0.0,0
mp-8616,ScAg(PS3)2,2.0296,-1.0561821875565485,0.0,0
mp-767151,Li2CuNi(PO4)2,0.0,-2.2395889004421767,0.0302943710714336,0
mp-762993,Fe2O3F,0.0,-1.843168074156668,0.0830760353125041,0
mp-625894,Ba(H2O3)2,0.2549,-1.3692705151800009,0.0459880159090895,0
mp-9516,Al2SiO5,5.462099999999999,-3.28257315328125,0.1085149915624992,0
mp-540627,K2Ba(SO)12,2.7286,-1.8134634977314812,0.0194614641908055,0
mp-561385,SrTeO3,3.413099999999999,-2.3943687642500007,0.0,0
mp-771410,Li2MnBO4,0.6277,-2.3643296428283325,0.0925335739843511,0
mp-19057,CaNiP2O7,3.8717,-2.681833852267316,0.0056536752272737,0
mp-643273,NaH2Pd3,0.0,-0.2296698970400002,0.0,0
mp-542079,K3La(PSe4)2,1.4575,-0.9303752394600344,0.0,0
mp-760052,Hf2N2O,1.8812,-2.4496725638686656,0.1003252558333276,0
mp-30767,Li7Sn2,0.0,-0.3751918522222222,0.0,0
mp-680159,CsTa6PbCl18,0.0,-1.7507815937953852,0.0,0
mp-763543,LiP3W2O13,3.452099999999999,-2.479808770554513,0.0551346334648954,0
mp-436,SmRh,0.0,-0.7338152562499998,0.0,0
mp-22685,TbInCu2,0.0,-0.329192855833333,0.0215410177777775,0
mp-998601,KCaCl3,4.7456,-2.551248597956,0.0415118859999998,0
mp-582182,Cs5In3As4,0.9739,-0.4404521634374999,0.0,0
mp-558959,CS5N5O3F,1.881099999999999,-0.6820035746435006,0.2147568945983353,0
mp-862256,Cu2PdAu,0.0,-0.114231835,0.0,0
mp-652854,BiRu2(CO)6,1.1317,-0.8911566076666664,0.2125816915833347,0
mp-3611,Dy2Hf2O7,3.2266999999999992,-4.033760024280304,0.0007984481818148,0
mp-16771,MgSe2O5,3.027699999999999,-1.7741147082421875,0.0,0
mp-693,Pr3Tl,0.0,-0.2082518287500008,0.0028110324999994,0
mp-15897,La4Si2S3O7,2.4924,-3.364082207871093,0.0,0
mp-30001,Ba16Nb5N19,1.6979,-1.0255307038805,0.0,0
mp-974832,Rb3Pb,0.0,0.0028786825,0.1145238204687499,0
mp-868379,Li4Mn3Cr2Cu3O16,0.0,-1.7631117711742854,0.0641918261086269,0
mp-21148,PrInCu2,0.0,-0.2807286924999994,0.0134468774999989,0
mp-22146,In3Pd5,0.0,-0.5356213856250003,0.0,0
mp-3382,CaSiO3,3.514599999999999,-3.21656512875,0.2442926749999996,0
mp-3223,ThB2Ru3,0.0,-0.518142463055554,0.0,0
mp-998195,RbInCl3,0.0,-1.729632157956,0.0029331890000001,0
mp-756323,Li2CuAsO4,1.278699999999999,-1.79681872,0.0952129027083339,0
mp-570158,KRb3CdCl6,4.0135,-2.0676049372327268,0.0,0
mp-2725,TbIr2,0.0,-0.8020001711111107,0.0,0
mp-984049,CeYZn2,0.0,-0.2608187106249997,0.0268433743750007,0
mp-743569,MnH6(OF)3,1.591,-1.8269128290384609,0.0001740269230765,0
mp-568703,Pr(NiSb)2,0.0,-0.5987659899999997,0.0464753809999978,0
mp-22202,BaTm2CuO5,0.0,-3.1332438990277773,0.0382813301389015,0
mp-773946,Mn3CrO8,0.8818,-1.797453643573333,0.074282837291653,0
mp-674521,Dy2TiO5,2.871199999999999,-3.77932880103125,0.126342817874999,0
mp-769675,HfFeO3,2.9099,-3.038110790250002,0.053158374999997,0
mp-997015,PbAuO2,0.0,-0.9602705856249996,0.0273364824999999,0
mp-639506,SiO2,5.6572000000000005,-3.271362124861111,0.0133507826388896,0
mp-18481,K6MnSe4,1.234899999999999,-1.049111799488636,0.0,0
mp-981390,HgBi3,0.0,0.1435999762499995,0.1435999762499995,0
mp-1027802,Mo3W(Se3S)2,0.8835000000000001,-0.8072870833072928,0.0111657383333332,0
mp-767140,Sn2P2O7,3.057999999999999,-2.3501780613582257,0.0366303486363595,0
mp-777018,Li2FeF4,3.6837,-2.966918607822857,0.0240845871428572,0
mp-11420,YGa,0.0,-0.6656606687500002,0.0,0
mp-19177,CrO2,0.0,-2.0552389575000007,0.0,0
mp-978527,SmDyTl2,0.0,-0.3567129322916669,0.00361076125,0
mp-764535,Li3Fe8(BO3)8,1.4546,-2.3494312858914728,0.0645299108575425,0
mp-861243,Cs2SnO3,2.386,-1.9260519114583328,0.0,0
mp-567905,U3Ni3Sn4,0.0,-0.2024638394999997,0.0,0
mp-22175,EuC2(SN)2,0.0,-0.7214764525550004,0.0781990155189795,0
mp-779391,V3(O2F)2,0.347,-2.7056287635977765,0.0239804361111257,0
mp-19367,NaCr(SiO3)2,2.8718999999999992,-2.9048077822500007,0.0,0
mp-8392,Sc3Si3Ni,0.0,-0.8618748857142862,0.0,0
mp-1009129,MgO,3.0152,-2.727719665625,0.3375146600000001,0
mp-763572,LiV2P5O16,2.123399999999999,-2.6320514512698407,0.0687038506250345,0
mp-764419,Li3V2(O2F)2,0.9678,-2.6733393108981813,0.0872399691287748,0
mp-11634,KSmGeSe4,1.6287,-1.1390297852678577,0.0,0
mp-825,RuO2,0.0,-1.4695351424999998,0.0,0
mp-686969,Fe2O3,1.3902,-1.8445036990000008,0.0416614287499985,0
mp-28273,K3CuO2,1.521599999999999,-1.307168332291667,0.0,0
mp-675525,InGaSe2,0.0,-0.512794591171875,0.0446926406250001,0
mp-850375,Li8Mn3Fe5(BO3)8,2.8502,-2.4504083024211107,0.0045269053125007,0
mp-11453,HfPd3,0.0,-0.88104344,0.0,0
mp-675506,Nb6(Pb2O5)5,0.358699999999999,-2.272029924420732,0.0480083492682927,0
mp-781710,NbNO,1.3512,-1.964904826626667,0.0244625862500012,0
mp-570990,Cs2MoCl6,0.0,-1.8449675955066664,0.0,0
mp-9895,Tc2P3,0.0,-0.5454720878571422,0.0,0
mp-721415,CuH12N2(Cl2O)2,0.532899999999999,-1.000407289225714,0.0171234297619085,0
mp-16877,Re2W3C,0.0,0.026848559166666,0.0678292787499987,0
mp-706426,Ca2P2H4O9,5.0576,-2.5714479327600284,0.0092180577941167,0
mp-1582,As2O3,4.0252,-1.6345049982499993,0.0065390674999967,0
mp-28075,K2Ti2O5,3.2268,-3.077525537731481,0.0,0
mp-7343,Y3Pt,0.0,-0.7100780475000006,0.0,0
mp-8407,Li3LaP2,0.612499999999999,-1.0125930326984125,0.0,0
mp-41795,LiAlPO4F,5.9117999999999995,-3.1401456474106557,0.0117462130208343,0
mp-763128,FeOF,0.0,-2.153392373035556,0.1272915727777768,0
mp-997032,MgAuO2,0.0,-1.6894209656249997,0.0375582062500008,0
mp-31019,Al45Cr7,0.0,-0.116963266346153,0.0,0
mp-974068,Nd3Th,0.0,0.0657144968749996,0.0657144968749996,0
mp-998743,TlGeCl3,3.3207,-1.272536001956,0.0,0
mp-2030,RuS2,0.6675999999999991,-0.9921361610416662,0.0,0
mp-626620,RbHO,3.3341,-1.575683286623334,0.0,0
mp-864634,EuCd3,0.0,-0.2719044125000001,0.0,0
mp-600053,SiO2,5.522,-3.268040079761905,0.0166728277380912,0
mp-557650,Sr3P6(N4O3)2,4.4971,-1.900278637178758,0.0,0
mp-649213,Th6FeBr15,0.0,-1.5742763472727268,0.0,0
mp-2985,HoB2Ru3,0.0,-0.4783294255555551,0.0,0
mp-14484,KNaLi2(SO4)2,5.297099999999999,-2.3990700195089283,0.0,0
mp-1019599,CePO4,0.0,-3.3924001121825387,0.015069215555556,0
mp-578721,NiH12SO10,4.9868000000000015,-1.482469543333437,0.0,0
mp-759031,Bi19(O9F)3,2.0105,-1.7199839262718373,0.0418240763265327,0
mp-764774,LiTi2V3O12,2.3031,-2.76082724074074,0.00675878787038,0
mp-558982,HgC2O2F3,3.2547,-1.5865145779462502,0.1275902776562505,0
mp-677705,Ba24In19N11,0.0,-0.412038881781111,0.1380429775925926,0
mp-13911,Ca(ZnGe)2,0.0,-0.3103588779999999,0.0103511671,0
mp-555318,K2Zn(SiO3)2,3.9191,-2.7520564265909093,0.0,0
mp-985471,Ce2ZnHg,0.0,-0.2069928437500001,0.042396476875,0
mp-765983,Li3V3P8O29,0.293999999999999,-2.5358370523491143,0.0513171516569803,0
mp-625886,Ta2H4O7,2.8627,-2.3029829921715392,0.1454493392307689,0
mp-976319,NaHo3,0.0,0.3215270024999999,0.3215270024999999,0
mp-504862,Ti4Cd(CuO4)3,0.0,-2.4679173023333334,0.0756268681249876,0
mp-556867,K2PrZr(PO4)3,4.4301,-3.1616196790413533,0.0,0
mp-761980,Co(Bi5O8)5,0.845499999999999,-1.594719111893939,0.0367539291477427,0
mp-11801,K3N,0.0,0.3878205694050001,0.5324197179166665,0
mp-625172,H3ClO5,4.7936,-0.8944263217077769,0.0531030183333349,0
mp-32554,Ta2I5,0.0,-0.0381168185714285,0.4382380154241101,0
mp-770155,Li3V3(BO5)2,1.2932,-2.5848405242129613,0.0493701341666819,0
mp-676518,In3SbTe2,0.0,-0.1699460966666664,0.3630755755555555,0
mp-685077,Fe2Te3,0.0,1.3573578199999994,1.5143305625,0
mp-773395,Mn5Sb(PO4)6,0.0,-2.428618199399206,0.0386239770717598,0
mp-640956,Eu(Sb3Os)4,0.0,0.2261676544117652,0.3647772458823528,0
mp-1013707,Ba3PN,0.0,0.2545680339049525,1.0336711263749985,0
mp-976414,Li3Zn,0.0,-0.1014348237499998,0.0046147325000001,0
mp-20467,PuB4,0.0,-0.4920498447083333,0.0,0
mp-3486,KSnSb,0.2646,-0.340476346666667,0.0,0
mp-765697,Li2TiFeO4,0.9123999999999992,-2.6218521008333333,0.042172383125,0
mp-778789,Li4V(BO3)2,2.7351,-2.5382669131410256,0.0329475299572719,0
mp-614603,CsI,3.857199999999999,-1.5659280999999998,0.0,0
mp-973101,LaHoRu2,0.0,-0.2016654212500004,0.0,0
mp-756912,LiZnBO3,2.9774000000000003,-2.386855047569445,0.0460428795833287,0
mp-560614,KLiSO4,5.260300000000001,-2.407273751294643,0.008817839999998,0
mp-6992,Eu(NiAs)2,0.0,-0.7204084890000004,0.0,0
mp-775699,Li6V3Sb3O16,1.1404,-2.256893624821428,0.067022307827381,0
mp-362,Ni3S2,0.0,-0.6342452626250008,0.0,0
mp-13361,Cd2Cu(PO4)2,0.6916,-2.16108691047619,0.0,0
mp-734875,H2Pb4C(Cl3O2)2,3.55,-1.5908486602529417,0.0099672688235292,0
mp-1018157,CrN,0.0,-0.6644371761899991,0.0,0
mp-997590,La8MgAl7O24,0.0,-3.643137785,0.0251644596093729,0
mp-686677,Rb2PH3SeO8,3.94,-1.9160948628365984,0.0049565206666768,0
mp-778547,Li2MnF4,3.9058,-3.0458068136742855,0.0521238757142858,0
mp-562726,CsGaS3,2.6277,-1.238171928437501,0.0,0
mp-25087,MoH8S2(NO)2,2.1419,-0.9031253346229998,0.1115510161812887,0
mp-559168,Sb2(KrF4)5,1.1692,-1.383677597733333,0.0056850596296293,0
mp-23772,TbAg3H6C6(N2O)3,2.576699999999999,-0.520586348723333,0.2607792901893999,0
mp-773701,Na5LiMn2P2(CO7)2,3.369,-2.383363902138864,0.0166655025641047,0
mp-770967,Li2MnP2O7,4.0774,-2.680044053408372,0.0087239451041671,0
mp-9972,YSi,0.0,-0.85354947125,0.0,0
mp-672651,Zr6Ni16Ge7,0.0,-0.5888849932758615,0.0,0
mp-554848,Cs2VF6,2.037099999999999,-3.1861974602377785,0.0,0
mp-555105,Ta9Pb12O20F29,2.492299999999999,-3.0529151617787136,0.0,0
mp-557844,KMg4(PO4)3,4.9852,-3.0254848842142863,0.0040557395624993,0
mp-5443,Nb2SnC,0.0,-0.4076536768750003,0.0,0
mp-29934,Zr6Ag7F31,2.799,-3.1526974859520447,0.0,0
mp-975176,Rb2HgAu,0.0,-0.225888555,0.025871834453125,0
mp-866306,Ba(NdS2)2,1.6426,-2.4725603237500007,0.0,0
mp-1070,CdSe,0.56,-0.6263304117968751,0.0010591849999999,0
mp-30705,Ti4Ga3Ni2,0.0,-0.4433182018518522,0.0515968651851848,0
mp-774745,Li3CuS3,0.6119999999999991,-1.1144835735267864,0.0810847688095242,0
mp-18373,ZnSe2O5,3.041299999999999,-1.3847473344921877,0.0,0
mp-4287,Sr2SnO4,2.645499999999999,-2.802441541428571,0.0,0
mp-769010,Li6Bi5O14,0.0,-1.6686721559,0.0846383890999833,0
mp-680552,Nd3Sn13Rh4,0.0,-0.5774205573749995,0.0,0
mp-10415,Yb3(GePd)4,0.0,-0.8086098709090895,0.0191259151515224,0
mp-12009,YbCdCu4,0.0,-0.2527129208333332,0.0,0
mp-20131,YIn3,0.0,-0.4272581806249995,0.0,0
mp-767902,Li3CoPCO7,2.834399999999999,-2.2921746978342483,0.0652717674999934,0
mp-17834,La2SiSeO4,2.306899999999999,-3.4065185991992197,0.0,0
mp-763778,Li2Ni3TeO8,0.4638,-1.3460653342857145,0.0761308957142548,0
mp-17823,Tl3B3S10,1.8863,-0.7762456447265641,0.0,0
mp-18291,BaSbTe3,0.374299999999999,-0.7837157459999999,0.5046943439999998,0
mp-764952,VF5,3.0875,-2.8220684209916658,0.0037744833333341,0
mp-735023,H4CSN2,3.3742,-0.4780319971836449,0.0098326569791673,0
mp-8194,Ba2GeP2,0.6755,-0.8521831732380953,0.0,0
mp-1029073,Te2Mo(WSe2)3,0.006299999999999,-0.4440639234635408,0.0432384200000015,0
mp-1018674,DyAlZn,0.0,-0.4520645405555553,0.0027786541666663,0
mp-1030574,Te4MoW3(SeS)2,0.0,-0.4629840479427093,0.0868914981250013,0
mp-28628,Li3FeN2,0.0,-0.5205778074599999,0.0,0
mp-755740,TbHoO3,4.4709,-3.9313150704166673,0.0956795353749981,0
mp-864600,TbSnRh2,0.0,-0.7758673570833325,0.0,0
mp-541361,K2RuNCl5O,1.7947,-1.5310715299929991,0.0006278387499998,0
mp-541314,FeSnH12(OF)6,2.0402,-1.8395857412723076,0.0,0
mp-567240,Ba(MnSb)2,0.0,-0.3085693499999998,0.1210969035000015,0
mp-10581,Nd(AlGe)2,0.0,-0.4415175734999998,0.0,0
mp-979081,TmMg5,0.0,0.0256628733333332,0.0520163346666668,0
mp-996965,AgBiO2,0.7798,-1.1183509031249992,0.0447204784999994,0
mp-556850,BaMnF4,3.2598,-3.580796668453333,0.0035628525000017,0
mp-541522,Na2Ca(PO3)4,5.3703,-2.819551278283208,0.0006709751754847,0
mp-972759,Tm2Ni12As7,0.0,-0.5230675473809524,0.0,0
mp-560323,H11C4NO10,3.4288,-1.3177385994115378,0.0535585344711524,0
mp-620862,LiTl3(MoO4)2,3.8133,-1.871503636071428,0.0022860113492049,0
mp-1029850,K15Cr7N19,0.6508,-0.5363938646395119,0.0,0
mp-771363,MnPO4,1.0529,-2.4335018901203176,0.0243267926388988,0
mp-28567,LiBiF4,4.8473,-2.9486577457933336,0.0,0
mp-567769,Ca(SiPd)2,0.0,-0.7916841740000002,0.0,0
mp-10470,NbSiRh,0.0,-0.861791839166667,0.0,0
mp-20723,Ca2PbAu2,0.0,-0.7004036240000001,0.0,0
mp-11398,Ga3Ni5,0.0,-0.3768876162499994,0.0,0
mp-12574,Dy2C,0.0,-0.283068856944445,0.0,0
mp-976330,LiZr2Ir,0.0,-0.4677603000000001,0.0279937301041668,0
mp-31321,La(C2N3)3,3.5544,-0.2230387072762489,0.0,0
mp-770898,Ti3Nb2V3O16,1.109999999999999,-2.9581188395833338,0.0922208104166539,0
mp-745132,VH10SO10,1.154399999999999,-1.1337901492164766,0.5206952100841775,0
mp-530399,LiAl5O8,5.2491,-3.365143255535714,0.0,0
mp-760791,Li4Cu5F17,0.100299999999999,-2.1699124642396157,0.0518711522756563,0
mp-555621,RbAl3(P3O10)2,5.4378,-2.9502854937857137,0.0,0
mp-550306,YCu2Bi2(SeO2)2,0.0,-1.6581269886079546,0.0,0
mp-763342,FeOF,1.013,-2.218086934146667,0.0625970116666652,0
mp-23894,LiAs(HO2)2,3.9942,-1.7688933924674997,0.0037726706249996,0
mp-754329,CdSnO3,0.9762,-1.86300018975,0.0,0
mp-773973,V(SO4)2,0.9829,-2.036436244071969,0.0190254007575516,0
mp-28891,Li7TaO6,4.373399999999999,-2.5067308388690472,0.0324092659523804,0
mp-30886,YZn12,0.0,-0.1732540217307692,0.0,0
mp-774922,Ti3TeO8,3.156999999999999,-2.9426262400000014,0.0740481547222202,0
mp-543036,KDy(PO3)4,5.4718,-2.940182928558202,0.0081191151388813,0
mp-565395,Na4MoS3O14,2.7771999999999992,-2.219171949076705,0.0,0
mp-1027689,Te2Mo3W(SeS2)2,0.0,-0.8079639527864574,0.0696107008333326,0
mp-553923,K2AgSbS4,1.098699999999999,-0.96876161890625,0.0118586001875007,0
mp-32334,NiP2O7,0.0618,-1.9360844537440471,0.1610536376250131,0
mp-763888,WOF4,5.0069,-2.6515221020433324,0.0415356306249998,0
mp-758675,TeH14C2(NO2)4,2.7712,-1.0614788608689665,0.0837986945772391,0
mp-5072,Rb2HgO2,2.0173,-1.3178286325,0.0,0
mp-771429,Li(NiO2)2,0.337399999999999,-1.028551830000001,0.0566432025000001,0
mp-24399,MgH10SO9,4.9785,-1.6952257438815477,0.0335507166666664,0
mp-569912,Ca3SiBr2,0.0,-1.065079513333333,0.1819988829166665,0
mp-777107,V9O22,0.903899999999999,-2.229120490241936,0.0948421935483878,0
mp-6328,Na2Ti2Sb2O,0.0,-1.1833746135119043,0.0,0
mp-779161,Na4Bi2B4SO16,0.077899999999999,-2.195356709841821,0.068234122476853,0
mp-7921,MgPdF6,1.8285,-2.4473607146425005,0.0,0
mp-1018098,Ba2BrN,1.1377,-1.283090858095,0.0,0
mp-505139,TiH2SO6,2.5139,-2.271951561546918,0.0036595314000091,0
mp-998860,Al,0.0,0.0949724,0.0949724,0
mp-540008,NiPO4,0.0,-1.8512738338492067,0.1035092026041599,0
mp-759634,Sr16Cu8O23,0.1748,-2.436690077845745,0.0152536306383002,0
mp-555420,NaLiTi3O7,2.623399999999999,-3.2232079411458336,0.0004923785416668,0
mp-767286,Li6CrFeP2(CO7)2,2.4073,-2.390211065334248,0.0565808031490329,0
mp-510656,Ga2NiP3H8NO14,4.1317,-1.9389280256250243,0.0087596644622411,0
mp-773276,Li2Mn3O6,0.0,-2.01864871458,0.0954049316477174,0
mp-558330,IClOF,2.0229,-1.0980237814250002,0.0,0
mp-18335,Ba2Ge2Se5,1.2918,-1.1255881897743056,0.0,0
mp-15822,LiSmGe,0.0,-0.7020124813888882,0.0,0
mp-14652,Cs2P3,0.8419000000000001,-0.4781808648571434,0.0,0
mp-862664,Rb2Zr2O5,1.692,-3.0316697673611106,0.0915383944444467,0
mp-568553,TlFeBr3,0.0,-0.4723530593333332,0.1867148543333328,0
mp-541940,Cr6Si7Ni16,0.0,-0.338560461034483,0.0772777686781616,0
mp-560846,Na2Li3FeO4,2.9156,-1.9605932630000005,0.0,0
mp-867812,LiAlNi2,0.0,-0.3894071825000003,0.0027037431250009,0
mp-505771,K2NaH5(CO4)2,4.3382,-1.8110060512833333,0.0,0
mp-762062,Li5Fe3Co2(PO4)6,2.377,-2.438753649714286,0.0635248994375103,0
mp-17605,CsNd(PO3)4,5.3001,-2.9438899222156087,0.0,0
mp-625359,NdHO2,4.1593,-2.941645418405,0.0,0
mp-973166,NaCd3,0.0,-0.08168366125,0.0,0
mp-851112,Ba9La5Br33,2.7671,-2.1339566531914897,0.0076409121010634,0
mp-621928,LiEu(SO4)2,0.0,-2.379481330260417,0.0115870110937494,0
mp-569581,Bi2Pt,0.0,-0.2060374633333326,0.0297498049999998,0
mp-30934,As(S8I)3,2.0753,-0.5934222458035718,0.0,0
mp-972653,SmHoTl2,0.0,-0.3483520168749998,0.0039297212500004,0
mp-7359,BaAgAs,0.0,-0.7914114933333334,0.0,0
mp-6622,BaNd2Ti3O10,1.945999999999999,-3.6667206167187487,0.0077131296875005,0
mp-8042,ZrGeO4,3.7395,-2.9820960058333332,0.0,0
mp-867189,Pm3Pb,0.0,-0.3258472606250002,0.0,0
mp-773137,KCaBi,0.8270000000000001,-0.6833519149999999,0.0,0
mp-631376,SrMn2Si,0.0,0.5089067474999993,0.8151673931249999,0
mp-22906,CsBr,4.2433,-1.7669599499999995,0.0403761749999995,0
mp-12422,CoHgC4(SeN)4,0.7733,0.2043338911503574,0.2967145019204462,0
mp-569943,K2AgI3,2.568699999999999,-1.0857709870833334,0.0059169379166665,0
mp-753793,Ba2YF7,6.8971,-4.263003670083,0.0484723184999999,0