mpid,formula,BG,FE,e_hull,fidelity
mp-600045,SiO2,5.4237,-3.269002809166666,0.0157100983333329,0
mp-780144,Li4MnP6(H4O11)2,4.2129,-2.271295409902229,0.0567722084756106,0
mp-569790,BaAg2GeSe4,0.026599999999999,-0.7167145974218752,0.0,0
mp-18147,LiGaSiO4,4.0502,-2.799407506190476,0.0,0
mp-7377,Ba3(AlSn)2,0.0,-0.5179652914285711,0.0,0
mp-975373,RbNiO3,0.0,-0.5573301967500008,0.3793694679999993,0
mp-1020655,NaB(S2O7)2,5.5222,-2.062983069020833,0.0,0
mp-769550,Li2Mn5(FeO6)2,0.3998,-2.0125950780857136,0.0273382650297904,0
mp-566867,Na2Fe3(PO4)3,0.7719,-2.473931226714285,0.0074158897916634,0
mp-686571,Ca10P6ClO24F,5.4033,-3.3724776304290818,0.0064129124404761,0
mp-772580,Mn5Nb(PO4)6,0.0,-2.5569580309269835,0.0401783322916742,0
mp-27837,NaHF2,6.9678,-2.5291252715,0.0,0
mp-4,Nd,0.0,0.1325055524999996,0.1325055524999996,0
mp-1008642,UC2,0.0,0.5387152883333334,0.6472039400000007,0
mp-770035,LiCo2(SO4)3,0.0,-1.9085031040104168,0.027717246701397,0
mp-767880,Li3MnPCO7,3.4721,-2.425796253100404,0.0579571153846041,0
mp-1019561,Ca2GeO4,3.554999999999999,-2.8119778171428567,0.1886120242857139,0
mp-771850,Li3V(TeO3)4,1.9196,-1.8397401517500007,0.0712651710000331,0
mp-849370,Fe6OF11,1.860199999999999,-2.628882184963333,0.0327600205555551,0
mp-763367,LiP2WO7,3.4961,-2.49447994681277,0.0490281717045446,0
mp-542076,Ca3V2O8,3.4501,-2.9846496623076924,0.0203102221153814,0
mp-862924,PmInPd2,0.0,-0.7549163893749995,0.0,0
mp-775575,Rb2CoB12(H2O3)10,3.3287,-2.131450961536923,0.0075960267980708,0
mp-257,DyIn,0.0,-0.4666945183333331,0.0,0
mp-770502,Li6Cr3Co(PO4)6,1.6342,-2.5486271244642857,0.0627317393750539,0
mp-18974,HoNiO3,0.0,-2.4170269942500004,0.0,0
mp-604440,K2NaV5H10O19,2.484899999999999,-1.9693914347283776,0.0229040655630701,0
mp-777668,Li4Ti3Co3(SnO8)2,0.258099999999999,-2.4111305589285723,0.0593815660118348,0
mp-568668,DyFe2SiC,0.0,-0.5288116488333344,0.0,0
mp-974395,Pt3Rh,0.0,-0.0104875999999993,0.0,0
mp-764502,Li3Fe4(BO3)4,1.6932,-2.388353225942029,0.0284761752174036,0
mp-7171,TmP,0.0,-1.6054632090476186,0.0,0
mp-1018116,NbInSe2,0.0,-0.6890094692968756,0.0015013549999993,0
mp-27198,Cd(NO3)2,3.4581,-1.09427411414,0.0,0
mp-756424,GdLuO3,3.1346,-3.96528985425,0.0569898243749982,0
mp-25633,V(SiO3)2,1.4068,-2.9484910591666664,0.069408957222226,0
mp-585397,LiCo3P3O11,2.567999999999999,-2.304958035029762,0.0385194729861311,0
mp-3660,LiB3O5,6.3532,-2.8251448912500003,0.0072952078703689,0
mp-859799,Li9Si2Ni5O16,0.5968999999999991,-1.9060068981249991,0.0375745091406276,0
mp-638104,Nb2Tl4Se11,0.9315,-0.4865188958547795,0.0,0
mp-567583,CsSbCl6,1.9983,-1.528864953695,0.0,0
mp-776877,Mn2Cr(PO4)3,0.0,-2.4196455900669847,0.0861972727777793,0
mp-780107,Li7Cr3Fe(PO4)6,1.5433,-2.605490606794425,0.0594408098170422,0
mp-979751,TaTiFe2,0.0,-0.2821078641666688,0.003151716562499,0
mp-974850,Rb3Nd,0.0,0.602922985625,0.602922985625,0
mp-775202,CrSb3(PO4)6,1.2841,-2.4096553783403363,0.002619353161763,0
mp-675543,Bi2PbSe4,0.4493,-0.4342621891964283,0.0011907171428591,0
mp-554401,BaCu2Te2(ClO3)2,0.0,-1.6570330780015392,0.014505704807691,0
mp-27855,H3I3N2,0.8184,-0.0473414832025,0.3253085806249998,0
mp-704688,Fe2C9(O4F)2,2.329,-0.7742051885657155,0.6707458768650794,0
mp-12023,MnCu2SiS4,0.6646000000000001,-0.8404115695312502,0.0,0
mp-760188,Nb3O7F,2.2294,-3.092431965449092,0.0089989663636362,0
mp-637209,AsN9,3.1608,0.303791991608,0.3037919916080005,0
mp-772758,Sm2Zr2O7,3.963399999999999,-3.852107079431818,0.0215747377272723,0
mp-974950,Rb3Li,0.0,0.1300950549999999,0.1300950549999999,0
mp-780325,LiMnSiO4,0.0,-2.626062935137142,0.0516431132215515,0
mp-764691,Li2V(OF)2,0.0,-2.816390753554286,0.0659440314285655,0
mp-761554,Co2NiO6,0.0,-0.9284232269444443,0.0432567515740753,0
mp-17906,PrF3,5.4589,-4.2688169321425,0.1638774612499993,0
mp-675925,Ce2PbS4,0.0,-1.9217751751785717,0.0542079903571437,0
mp-1029945,Te2MoWSeS,0.0,-0.5306446037760431,0.0604506216666669,0
mp-343,PrN,0.0,-1.4737289211900002,0.0,0
mp-28728,K6Sn3As5,0.638999999999999,-0.4357344421428567,0.0,0
mp-763712,LiTi2VO6,1.564999999999999,-3.0549995950833337,0.0607743792499952,0
mp-754711,Nb2Pb2O7,0.9375999999999992,-2.5069436657954545,0.0166396025757578,0
mp-30970,Er12Co7,0.0,-0.2109288636842106,0.0,0
mp-780128,Fe2OF3,1.3111,-2.431684341636667,0.0775745600000075,0
mp-558063,KCu(BiS2)2,0.6732,-0.8733820882812502,0.000174199062509,0
mp-1009458,NbC,0.0,0.09966630125,0.5957388527083332,0
mp-11481,MoIr,0.0,-0.3183893400000013,0.0,0
mp-703673,YbVO3,0.399999999999999,-3.12776093225,0.0,0
mp-19974,In2Ag,0.0,-0.0368853999999997,0.0,0
mp-566353,KVSO6,1.8687,-2.2892905168402793,0.0,0
mp-684680,Yb2S3,1.403499999999999,-2.0367974729375007,0.1132004744999992,0
mp-568943,KCSeN,3.6215,-0.4166702102434368,0.1162452114583354,0
mp-763044,Li2NiSnO4,2.1116,-1.899194865625,0.0023260278124936,0
mp-566052,Pr3BWO9,3.801599999999999,-3.3251820344940475,0.0,0
mp-772765,K2PrPCO7,4.2654,-2.7602404599454373,0.0372511654166727,0
mp-760805,Li2AgF3,1.9409,-2.434852610595,0.0850141541666671,0
mp-5186,ScNiSn,0.0,-0.6275569191666671,0.0123195313888828,0
mp-1030753,Te4Mo3W(SeS)2,0.0,-0.5245557321093758,0.0941580716666674,0
mp-29011,BiTePd,0.0,-0.3377636199999999,0.0,0
mp-776859,Li4Nb2Co3Sb3O16,0.0,-2.10940289125,0.0997327130257943,0
mp-20861,CrGe,0.0,0.0090431712500009,0.09115301875,0
mp-15492,DyTa7O19,3.222299999999999,-3.4406306596450595,0.0036758125925935,0
mp-22222,HoSiIr,0.0,-1.0724068383333325,0.0,0
mp-704240,CoPO4,0.4474,-2.1249215307936504,0.0179255788888896,0
mp-777454,V5FeO12,0.0,-2.3102471286111115,0.0698535416666779,0
mp-16742,BaAgTeF,1.509399999999999,-2.0869272215475,0.0,0
mp-11037,Lu(Al2Fe)4,0.0,-0.4236987361538459,0.0,0
mp-649453,Ca3BCNCl2,2.1064,-1.5442413260083336,0.0,0
mp-29215,Te4P2O13,3.0667,-1.94580375591792,0.0,0
mp-769344,Ba4Ta2O9,3.370599999999999,-3.334395269749999,0.0,0
mp-557176,Ba5B4(O5F)2,4.5127,-3.295097497692697,0.0062982023809503,0
mp-773457,Li9Fe3(WO4)7,0.0,-2.1995425639361685,0.0495850272695062,0
mp-771085,Li3Co4NiO8,0.0,-1.5566032424999996,0.066461204270837,0
mp-778892,Li8MnFe7(BO3)8,3.1706,-2.42473341425611,0.0011689133680601,0
mp-706514,H5CSO5F3,6.1345,-1.6483333794655002,0.115981224625,0
mp-647366,KICl4,2.2151,-1.1968821471733335,0.0,0
mp-776978,Li4Mn3V3(SbO8)2,0.3523,-2.2653408061742866,0.0262517042410861,0
mp-1028651,Te4MoW3(SeS)2,0.0,-0.4476976812760422,0.1021778647916678,0
mp-982780,K3Cd,0.0,0.02961752625,0.0469216236538463,0
mp-773514,Li2CoO3,1.1577,-1.672229502708334,0.0939096244166668,0
mp-29998,La3SbI3,0.0,-1.3287286953571429,0.0,0
mp-703542,CdH8(NO5)2,3.5406,-1.2540979750580956,0.0096386416666662,0
mp-674804,Sm2PbSe4,1.6411,-1.467960317053571,0.0452273882142852,0
mp-776051,Li2Mn2Fe(PO4)3,0.815099999999999,-2.4943805250602864,0.089076745624987,0
mp-11225,TbAl,0.0,-0.4150374435416664,0.0,0
mp-28219,TlCdBr3,2.745999999999999,-0.8875095470000002,0.0008657449999995,0
mp-3194,Tb2Al3Si2,0.0,-0.5509765766666673,0.0,0
mp-20703,Dy3Co6Sn5,0.0,-0.3417081639285716,0.0176475480357174,0
mp-18049,Ge5P6O25,3.5718,-2.4358530659672617,0.0,0
mp-21571,La4In5S13,0.0,-1.6751817219460223,0.0169932907196956,0
mp-2914,LaSi3Ir,0.0,-0.8529130519999996,0.0,0
mp-29946,IO2F,2.8952,-1.1511389821724998,0.0,0
mp-571335,ThBi2,0.0,-0.5213492333333333,0.0,0
mp-567929,Al13Os4,0.0,-0.4479752070588226,0.0,0
mp-28768,Na4SnSe4,1.4604,-0.9262443449305552,0.0,0
mp-1008376,CeH3,0.0,-0.5784957414649998,0.0,0
mp-752930,LiCu(PO3)2,1.614399999999999,-2.291797104369047,0.079744451041658,0
mp-973957,La2ZnAg,0.0,-0.26822950125,0.0165463175,0
mp-866827,Ca3Sn2S7,0.4588,-1.4691543398697933,0.1819534930208313,0
mp-30562,Sc2Co,0.0,-0.2566524333333326,0.0105325239583331,0
mp-554581,KSmP2S7,2.6285,-1.329848007238907,0.0,0
mp-849355,LiMnP2O7,0.9064999999999992,-2.5700362378091346,0.0223320709090915,0
mp-756190,Cd(GaO2)2,1.2302,-1.9811093957142856,0.0686329350000001,0
mp-762798,Li4Fe5(NiO6)2,0.7066,-1.7730928921739126,0.0538142238043537,0
mp-862774,LiInPt2,0.0,-0.5618123425000006,0.0,0
mp-27135,Bi(PO3)3,4.5202,-2.5062925825412097,0.0,0
mp-6481,Na2ZnSi3O8,3.9452,-2.850378141428571,0.0,0
mp-554886,Ba3Nb2(P2O9)2,3.1326,-3.139586066847444,0.000588177384257,0
mp-4853,CaSiO3,3.5088,-3.21664856525,0.2442092384999999,0
mp-17077,K2YF5,6.8081,-3.7745126176187496,0.0,0
mp-2229,ZnO,0.719399999999999,-1.6507914281249991,0.1464778875000005,0
mp-500,TaSe2,0.0,-0.8160565557291667,0.0,0
mp-767990,LiV(CO3)2,2.04,-2.111744279750001,0.0385080965000117,0
mp-542808,RbGd(WO4)2,3.240199999999999,-2.6576869712499978,0.0,0
mp-625414,Mn2HO4,0.1592,-1.778424145077143,0.0198635921875069,0
mp-530709,TlW3Br7,2.3106,-0.5694278604545453,0.0,0
mp-569095,Rb3Bi,0.0,-0.3274999462499999,0.0,0
mp-40575,LiNi2P4H3O14,4.3193,-2.21780135857254,0.0,0
mp-765841,LiV2O3F,1.0092,-2.609222042491428,0.1071750026785682,0
mp-557399,KSnSO4F,3.890599999999999,-2.297102167531562,0.0,0
mp-437,MgAu,0.0,-0.6036946050000003,0.0,0
mp-758357,Li3Ti3(PO4)4,0.0,-2.8712980329761915,0.1067384004093359,0
mp-686718,Sr5Al11TlSi13O48,2.958,-3.25694860698718,0.1037804265637944,0
mp-30681,YGa6,0.0,-0.3246833810714286,0.0,0
mp-763551,Mn2VO4,0.0,-2.1771095102742857,0.0668165710714294,0
mp-21349,PuGa3,0.0,0.1551495857812499,0.5162844162499995,0
mp-559369,Zr2H12(N2O7)5,1.4476,-1.336144082135424,0.0,0
mp-775757,HfO2,4.016500000000001,-4.029636046666666,0.0095588199999969,0
mp-778289,LiFeF3,3.0155,-2.8324945217140005,0.0825578719999962,0
mp-568108,InBr2,2.4137,-0.8120429258333335,0.0,0
mp-23963,HIO3,3.213,-0.9407373224740004,0.0165853994999993,0
mp-22891,Bi2O3,0.0,-1.2936537027499997,0.3599821594999994,0
mp-675436,Sm2Zr2O7,2.5065,-3.684089467613637,0.1895923495454532,0
mp-568203,K2Th(PSe3)3,1.7459,-0.7532864999419648,0.0,0
mp-1337,MoAs2,0.0,-0.2464797716666661,0.0,0
mp-1009830,Be2Zn,0.0,0.287178215,0.287178215,0
mp-1027765,TeMo2SeS2,0.0,-0.8353492636197922,0.0527914966666642,0
mp-767478,Li4MnFe3(PO4)4,3.8727,-2.5755196199407484,0.0007026491071089,0
mp-764162,NaMn(PO3)3,4.3628,-2.6262520533211235,0.004744782202378,0
mp-13843,Li2TeO4,2.2670999999999992,-1.963738377857143,0.0,0
mp-866496,Ca2SnS4,0.0,-1.4828747241071432,0.2867197999999993,0
mp-645193,Zr4AlNi2,0.0,0.1262338050000002,0.5497464157142861,0
mp-556567,BaH16C4S4(NO5)2,5.4192,-1.0731003622008108,0.2107647877162186,0
mp-735556,Na2CoH8(CO5)2,2.955,-1.638164217454782,0.009240575108695,0
mp-765585,Ca3Tl4O9,0.371399999999999,-1.9445422094531253,0.0043132237499996,0
mp-976284,EuSbO3,0.0,-2.32070060275,0.1935822074000022,0
mp-766782,Li4Nb2Fe3Sb3O16,0.599599999999999,-2.1400036312500013,0.152070619892866,0
mp-7250,Nb6Co7,0.0,-0.1557490730769232,0.0,0
mp-24428,KH2N,2.0569,-0.5172406011549997,0.0,0
mp-27094,LiSn2(PO4)3,3.394,-2.54457934718254,0.0028126474999998,0
mp-12972,Zr6Sb2Pt,0.0,-0.7223024122222215,0.0,0
mp-4643,Nb2CuO6,0.276,-2.5368199166666665,0.0496367102777792,0
mp-745158,NiH10C2(N2O3)2,4.3575,-0.9855501062269556,0.0992454866753611,0
mp-541401,As2Se3(NF6)2,2.3161,-1.7703763286748022,0.1056689833473338,0
mp-752699,LiAgF3,0.0,-2.097258206714,0.0480330009999989,0
mp-530146,MgAl2O4,4.1229,-3.3752851182142867,0.0135403167857131,0
mp-2025,HfBe5,0.0,-0.2327137899999994,0.0,0
mp-17288,Li2ZnSiO4,3.7868999999999993,-2.65355141625,0.0,0
mp-8469,Li8IrO6,0.0,-1.9322377865,0.0057601638666691,0
mp-752449,La2B4O9,4.491899999999999,-3.3101432438611105,0.0080820998666641,0
mp-677509,K4N2O5,0.3607,-1.322112727364544,0.049207198636366,0
mp-19792,Zr(Fe2Si)2,0.0,-0.5017015392857148,0.0,0
mp-2600,BaTe,0.7819,-1.62308854,0.1670796599999997,0
mp-23950,K(BH)3,5.0099,-0.365632574408571,0.0472164335714291,0
mp-560533,CuH8C4(NO3)2,0.0,-0.9441117122009528,0.1637685940972222,0
mp-4226,LiCrS2,0.6463000000000001,-1.3271690520312511,0.0,0
mp-28545,RbLiO,2.254299999999999,-1.6081838487499995,0.0025335349999995,0
mp-21025,Nd2Cu2O5,0.0,-2.467721435694445,0.069137528888894,0
mp-766966,K2InH2Cl5O,3.449799999999999,-1.7814527631627268,0.0,0
mp-779205,Li3V4(OF3)3,0.932299999999999,-2.9548971623400004,0.0898444991228171,0
mp-769446,Li11Fe12(BO3)12,1.016299999999999,-2.3803322372535205,0.0328170420422671,0
mp-5913,Pr2Si2O7,5.1705,-3.625000961704545,0.0,0
mp-999507,MnSn,0.0,0.1492644275000003,0.1492644275000003,0
mp-568299,K2PtC4(BrN2)2,1.9428999999999992,-0.3152265315015381,0.2287346361907696,0
mp-10914,K3Cu5O4,1.555599999999999,-1.1045766099999998,0.0,0
mp-631494,SrCrPd2,0.0,0.1188216200000003,0.6017508237500007,0
mp-19061,LiFe(SiO3)2,2.7546999999999993,-2.8202253780000013,0.0006005017499823,0
mp-780026,LiMn4(BO3)4,0.343399999999999,-2.393415203595556,0.0994458381150646,0
mp-581805,Ni3Mo3N,0.0,-0.2285877856971418,0.0391912053273788,0
mp-675511,Sm2PbS4,2.026,-1.96960911875,0.0423020614285718,0
mp-22894,AgI,1.3877,-0.2827118325,0.0009864324999999,0
mp-1014373,CrN2,0.0,-0.137460848253332,0.3054972692066649,0
mp-505312,Sr2FeCuSO3,0.6777999999999991,-2.211042826601563,0.0,0
mp-542140,Ta2Tl4Se11,1.107899999999999,-0.4943488711488969,0.0,0
mp-649619,As3Pb5ClO9,2.0202,-1.5543451494172216,0.0866311458333335,0
mp-555259,UTe2PbO8,1.9725,-2.269849293749999,0.0,0
mp-570885,LaCoSb3,0.0,-0.6028686375,0.0080631962499992,0
mp-8560,SF6,5.775500000000001,-2.2183499244575,0.0,0
mp-25631,VP2O7,1.518,-2.6404086299940466,0.0016522774999998,0
mp-569525,NaLi5N2,0.3542,-0.3301783499700002,0.0753165937499975,0
mp-943469,LiMnHSO5,3.3221,-2.133153343043612,0.0018667655555519,0
mp-505000,MoCl4O,1.7247,-1.3227995282149998,0.0178535712873948,0
mp-850237,Li5Cr4O8,1.109899999999999,-2.2182915329411768,0.0958056845098065,0
mp-31225,Pr2Mo2C3,0.0,-0.1711887596428565,0.0,0
mp-13079,Mn2AlCo,0.0,-0.2692292349999992,0.0324817099999998,0
mp-504496,Ho6Fe16O,0.0,0.4703872495108696,0.8510490167029001,0
mp-25649,NaIn(WO4)2,3.4845,-2.1892712204166656,0.0,0
mp-767032,Li2Mn4O5F3,0.340199999999999,-2.3906794899042856,0.0783679145089326,0
mp-1025881,Te2Mo2W(SeS)2,0.0253,-0.6311125805902777,0.1036559738888867,0
mp-978501,Si3Se,0.0,0.6084059778515618,0.7781143562499997,0
mp-37501,In10Sb9Te,0.0,-0.0142759792499994,0.1870276953333332,0
mp-634062,RbCdH2I3O,2.49,-1.1185306398112504,0.003745156020833,0
mp-685291,AlPO4,1.4649,-2.859332201488096,0.2791329490277805,0
mp-16524,ScAlPd2,0.0,-0.9464006874999996,0.0,0
mp-10298,Sm(SiPt)2,0.0,-1.1113964615,0.0,0
mp-567597,Bi,0.0,0.060816135,0.060816135,0
mp-27615,U(PO3)4,0.282999999999999,-2.8446009904341736,0.0,0
mp-560866,LiLa(PO3)4,5.2141,-2.9605374262433872,0.0,0
mp-568441,MgH2,2.0783,-0.2331102611633332,0.0426090495833331,0
mp-1555,V3Sb,0.0,-0.2122079124999993,0.0,0
mp-973442,Lu2AgPt,0.0,-0.8426737874999999,0.0,0
mp-531272,GaAsO4,1.0653,-1.8910434477777776,0.0630287927777777,0
mp-16914,Y2Si5Ni3,0.0,-0.791700374500001,0.0,0
mp-763413,Li2U(WO5)2,1.567699999999999,-2.6317232799999988,0.0174043715000014,0
mp-19467,AgMo3P3O16,1.5694,-2.264797181925465,0.0049598159239145,0
mp-704669,BaYb2(MoO4)4,0.0,-2.4490802645652168,0.0,0
mp-777109,Li6Ni2C4SO16,3.6761,-2.0122127653125004,0.0407913698275823,0
mp-754462,SbTe2F6,0.9942999999999992,-2.1535988469044445,0.1701283200617283,0
mp-853248,LiVCrO4,1.252199999999999,-2.3694321050000005,0.0848577610118948,0
mp-541844,Ge5Ir4,0.1279,-0.3397889449999998,0.0,0
mp-570956,NdCoSb3,0.0,-0.5677565277499994,0.0128104175000007,0
mp-778543,LiNiBO3,3.0096,-2.1271490172916665,0.0174152031944432,0
mp-555606,Na10Be4Si4O17,3.9402999999999992,-2.732869886321428,0.0026916380714174,0
mp-755880,WN2,0.136499999999999,-0.4052866270033325,0.1157927845833324,0
mp-769937,MnCrO4,1.0087,-1.8925003501600013,0.0404036229166742,0
mp-2361,Hf5Al3,0.0,-0.2923928312499999,0.0487665050000005,0
mp-20350,DyCoC,0.0,-0.3164724647222232,0.0,0
mp-1030456,Te2Mo3W(Se2S)2,0.0,-0.6612190568750004,0.0573642558333338,0
mp-542316,Co2Mo3N,0.0,-0.2213101216466656,0.0,0
mp-770286,Li3Sn(BO3)2,1.7273,-2.470880582569445,0.0596602735937326,0
mp-556069,Tb11O20,0.0,-3.4747609919892466,0.0753721741129034,0
mp-771176,Li2CoSnO4,1.7159,-1.9920090806249997,0.0192630496874972,0
mp-541644,CaMn7O12,0.0,-2.1460787945860007,0.0165229647499938,0
mp-766755,Li3FePO5,2.9765,-2.4920058474345232,0.0560014149999981,0
mp-979935,RbYb3,0.0,0.2025564375,0.2025564375,0
mp-850155,NiH12S2(NO5)2,4.5176,-1.3271680940305557,0.0518816848765455,0
mp-763795,Mn3O2F5,0.9756999999999992,-2.4925520276330007,0.0593777114166647,0
mp-554142,Ge(TeO3)2,3.876499999999999,-1.7121233275000007,0.0,0
mp-622528,Li4Mo3O8,0.0,-2.1193679370000003,0.0818423146666704,0
mp-569434,Yb2(ZnGe)3,0.0,-0.4768279831249997,0.0,0
mp-34371,AgSbS2,0.0,-0.4632775882812501,0.0620957412500002,0
mp-7841,Ba(GaSe2)2,1.8578,-1.0923156034821433,0.0,0
mp-9565,Ca(MgSb)2,0.7931,-0.7075906499999999,0.0,0
mp-555001,LiMnFeF6,2.4344,-2.9571985642333343,0.0,0
mp-12264,LiYbF4,0.0,-3.3497227407933337,0.001906877083333,0
mp-628773,SnSe,0.466499999999999,-0.3629574017968751,0.0699303924999998,0
mp-568062,DyTlSe2,2.1858,-1.3857304572135425,0.0,0
mp-631435,ReRuBr,0.0,1.3312451433333323,1.5134481963194464,0
mp-7759,BaSn3,0.0,-0.4624550162500003,0.0,0
mp-765917,LiV2OF5,1.841999999999999,-3.0172228743185188,0.0839286909259282,0
mp-778024,Fe6O11F,0.0,-1.5729001744411109,0.1170507107986047,0
mp-31466,Er5Bi3,0.0,-0.6404171081250007,0.0,0
mp-541956,CsTiAsO5,3.0051,-2.561681835520833,0.0,0
mp-23182,SnI4,2.0284,-0.3754470407499998,0.0,0
mp-560835,Pr10Se14O,1.421799999999999,-2.0224644064625004,0.0065096195499911,0
mp-849695,Li2FeO3,0.0,-1.8562527839583325,0.1123337650000007,0
mp-764697,Li3VOF5,2.9884,-2.97833012422,0.0950276860238199,0
mp-756336,CaEu2O3,0.0,-3.0944083264583355,0.1001079691666664,0
mp-20190,LaZnSn,0.0,-0.6650233758333322,0.0,0
mp-4199,Na2S2O3,4.0606,-1.942002419553572,0.0431167820535725,0
mp-979900,TmAs3,0.0,-0.4555350450000004,0.2932675737499997,0
mp-568904,KTh(SbSe3)2,0.6898000000000001,-0.9144400671562494,0.0,0
mp-21695,Ce(Ni2B)6,0.0,-0.3912007455263156,0.0,0
mp-780853,LiFe3P3(HO6)2,3.285,-2.3365248415012254,0.0082952942857117,0
mp-761602,Li3Fe(CoO3)2,0.5338,-1.763339957291666,0.1219499929166643,0
mp-1025571,WS2,1.7071,-1.2630377338194452,0.0006907905555291,0
mp-839,V3Au,0.0,-0.0318899699999999,0.0,0
mp-777488,Li3FeF6,3.9812,-3.022501231214,0.0283770433333439,0
mp-642313,K3Y3(BO3)4,4.1596,-3.1730954307007577,0.0,0
mp-762408,Li13Mn8O24,0.0,-2.0206968028373327,0.0629195009027769,0
mp-557743,KCaAl2F9,7.1437,-3.880275849798205,0.0,0
mp-557533,Cs2TlVF6,0.0,-2.8872810202139996,0.0,0
mp-2963,CaAl2O4,4.3446,-3.4670367750000004,0.0006503210476154,0
mp-764680,V3OF11,2.1733,-2.906973397956,0.0170134478333272,0
mp-756705,YAlO3,4.0582,-3.69624085125,0.0601947026000022,0
mp-1908,Pr5Ge4,0.0,-0.7894958755555552,0.0132850366666668,0
mp-989630,LaWN3,0.0,-1.2039261559279992,0.0294619194999992,0
mp-38818,HfNbB4,0.0,-0.862734270277779,0.0,0
mp-999053,Ti2GaNi,0.0,-0.2606412883333338,0.1914988397916666,0
mp-776853,Li4Cu3Ni2Sb3O16,0.0,-1.568357027678571,0.0767436741071421,0
mp-14368,SbAsO5,1.741999999999999,-1.7509253583928577,0.0,0
mp-621348,TiInAu2,0.0,-0.2914296766666666,0.06594177875,0
mp-626194,Sc(HO)3,4.8709,-2.30304637423,0.0142391210714283,0
mp-18612,Rb2MoS4,1.575,-1.338793140535714,0.0,0
mp-764301,K2LiVPO6,2.3985,-2.526771405054113,0.0874454502020238,0
mp-13563,YP5O14,5.4835,-2.8391171722738093,0.0066539177500004,0
mp-9132,Ta3SnS6,0.0,-1.4202374929375012,0.0,0
mp-604459,Li2B4H4O9,5.117199999999999,-2.3619727978235088,0.0098374988377196,0
mp-4534,NaCO2,3.3888,-1.8966721093750003,0.0052260709374998,0
mp-763396,Li4Co2Si3O10,2.8755,-2.617249777763158,0.0377868876315865,0
mp-3349,Sr3Ti2O7,1.8404999999999991,-3.509941542673612,0.0,0
mp-30456,SrLiBi,0.5558000000000001,-0.8277274974999997,0.0,0
mp-639719,Cu3Mo2O9,0.0,-1.5322395372321418,0.0326215623214105,0
mp-706630,B5H7,3.5551,-0.1717687219727768,0.0,0
mp-22367,PdPbO2,0.0,-1.158984226875,0.0,0
mp-771613,LiNiSnO4,0.3462,-1.6896452085714284,0.0079302020714218,0
mp-17048,Rb2WS4,1.9936,-1.3817556658928578,0.0,0
mp-579270,Ca4Al6WO16,3.9812,-3.3010875990740733,0.0254929648148145,0
mp-865119,NaPrHg2,0.0,-0.38345033125,0.0,0
mp-2296,Ni3P,0.0,-0.4423544445238097,0.0,0
mp-20365,NpGe3,0.0,-0.2158037734374991,0.0,0
mp-647727,Re2N2ClF9,2.0294,-1.9763135933021423,0.0099514878034128,0
mp-758597,K2TiSi3(HO5)2,3.4247,-2.8673129499392584,0.0,0
mp-989566,Rb2InGaF6,3.266699999999999,-2.8257624057139994,0.0,0