mpid,formula,BG,FE,e_hull,fidelity
mp-3896,Y(SiIr)2,0.0,-1.0586000695000009,0.023611194999999,0
mp-3046,Yb3Sn13Rh4,0.0,-0.5317562582499988,0.0,0
mp-647343,PBr7,1.2227,-0.2569603428869049,0.0,0
mp-558769,Na3Li4Th6F31,6.3088,-4.0723184750429535,0.0050225573295472,0
mp-779917,Fe3OF5,1.432899999999999,-2.530886654688889,0.054563898888893,0
mp-30714,Tm2Zn17,0.0,-0.2089040139473685,0.0,0
mp-13447,Zn13Rh,0.0,-0.1215738032142856,0.0,0
mp-22240,MnAs,0.0,-0.2688168162499993,0.0,0
mp-850956,Li2Mn3Cr3O12,0.0927,-2.0655748783940013,0.0670977936416719,0
mp-10301,Sr2ScIrO6,0.0,-2.8184693147500006,0.0,0
mp-10906,ZrAlPt2,0.0,-0.3905494700000007,0.6754131443750007,0
mp-891,TaNi3,0.0,-0.3548773187499998,0.0036533187500031,0
mp-1002571,NaMn2O4,0.5661,-1.9853217431314285,0.0,0
mp-20555,NaPb3,0.0,-0.10415913375,0.0,0
mp-554599,SnS2(O3F)2,4.2665,-2.0777191914095456,0.0053191411931772,0
mp-972022,Tm2ZnRh,0.0,-0.64227097875,0.0232673249999999,0
mp-755901,Sm3NbO7,2.6062,-3.683817853295456,0.0185995817045387,0
mp-9833,PrGaO3,0.0,-1.60447329075,1.4548813129999996,0
mp-780535,BaLu2O4,2.9254,-3.7285004678571423,0.0467324597023886,0
mp-644385,HCN,6.7888,0.1391012338333332,0.3798177753044438,0
mp-676431,Na4Al3Si9ClO24,4.5204,-3.1616630171526827,0.018949690243903,0
mp-38843,CaTa2O6,2.0946,-3.3549382641666674,0.1447806338889261,0
mp-5168,AlSiP3,0.289499999999999,-0.3121809618571433,0.0106727195000004,0
mp-37014,GdPaO4,2.3198,-4.1605417816666685,0.0,0
mp-769885,Sc2V2O7,1.2135,-3.1142000194318165,0.0517965798863659,0
mp-643071,Yb4Mg4Fe3H22,1.4719,-0.548779968473939,0.0,0
mp-776761,LiCr(SO4)2,2.1597,-2.2001268373437504,0.0217502383333387,0
mp-977207,Li2Mg,0.0,-0.018635705,0.0240035433333341,0
mp-24341,CsBeH3,3.2171,-0.197265935172,0.0,0
mp-867224,CaNdCd2,0.0,-0.3628975293749997,0.0,0
mp-11347,TbF3,7.7511,-4.490365587975833,0.0,0
mp-1502,Al2Pt,0.0,-0.8964985766666658,0.0,0
mp-28216,Lu6Ge4O17,3.7402,-3.3076435474537043,0.0,0
mp-764287,VOF3,3.3637,-2.710628338964001,0.0201253504999989,0
mp-621981,TlAg(CN)2,2.6981,0.2388347383733323,0.2559132474505539,0
mp-767702,Li4Ti3Ni2Sn3O16,2.1122,-2.3945928701785717,0.0807431157142817,0
mp-567424,K8NbAs5Pb,1.1994,-0.4643293293333334,0.0,0
mp-4428,CaSiO3,4.726,-3.4378213647500013,0.0230364389999992,0
mp-19870,GaFe3,0.0,-0.1277818274999997,0.0,0
mp-706278,CaP2(H2O3)3,5.5328,-2.2105069741200265,0.0015110697222207,0
mp-17633,Er2SiSeO4,2.5551,-3.3586208166992204,0.0262033888281258,0
mp-1028708,Te6MoW3S2,0.0,-0.3587596065104168,0.0776453295833317,0
mp-558489,Ca6Hf19O44,4.130800000000001,-3.931999289927536,0.0183590356884071,0
mp-24294,HgHClO4,2.3817,-0.8014722631257136,0.0,0
mp-973769,Hf6Al16Os7,0.0,-0.5372938398275855,0.0075828787931024,0
mp-773569,LiFe3(OF3)2,2.3315,-2.514461623303333,0.0897537521759241,0
mp-773189,Sm2WO6,2.9672,-3.2399053600000007,0.0339017944444464,0
mp-975405,RbAuO3,0.0,-0.5300150567499997,0.3875999507500003,0
mp-707376,NaNb14O36,0.0,-2.9909470154901965,0.0142214390563708,0
mp-29450,CuSe3I,1.0589,-0.0938804524895834,0.0,0
mp-772771,La4(B2O5)3,4.555999999999999,-3.38182653815,0.0229352749199929,0
mp-570707,NdSe2,0.0,-1.6291817432291662,0.0001712535468749,0
mp-759290,Li3Bi2(PO4)3,3.5627,-2.4818614484642856,0.0823628127500031,0
mp-771454,Na3CrAsCO7,1.5635,-2.0532089047115383,0.0330412864102562,0
mp-769634,Na3CrPCO7,2.4999,-2.3541239734111716,0.0076359318028815,0
mp-977435,ZrAlRh2,0.0,-0.9460367774999998,0.0006241325000013,0
mp-1008506,BaGaSiH,0.4792,-0.4458141546550003,0.0,0
mp-27618,Na8Ga2O7,2.2588,-1.8895603177205884,0.0,0
mp-763829,Ba5Mn5O14,1.0222,-2.5008012132208326,0.0,0
mp-754202,CsClO3,5.3706,-1.2871112304020005,0.0408173451250002,0
mp-769681,Li4Fe(BO3)2,3.7795,-2.4742950869871807,0.0206515736538444,0
mp-764682,LiVOF3,2.0851,-2.917561201636666,0.0791095383730251,0
mp-558411,Y2Zr2O7,2.7008,-3.868122003522727,0.0532664509090814,0
mp-22750,P2Pb3O8,3.3518,-2.3161025343223445,0.0353249888461597,0
mp-765948,Li4Nb3Cr2Fe3O16,0.1669,-2.3917453064285707,0.1361942926785957,0
mp-571189,NaHf2CuSe5,0.476599999999999,-1.1611225064409727,0.0,0
mp-767028,Li6Mn(OF)3,2.1441,-2.522957519483076,0.0872998346153899,0
mp-644236,Cs2MgH4,3.8165,-0.3072004331399997,0.0015156097857129,0
mp-12802,AlCu3,0.0,-0.189042549999999,0.0,0
mp-775492,Li2MnV3O8,0.9618,-2.4191456193542855,0.0346833295089368,0
mp-763564,LiV(PO3)3,2.588,-2.6078842432525517,0.0684228885272046,0
mp-510691,Hf5Sn4,0.0,-0.396091464444445,0.0,0
mp-707201,Cu4H10SO12,0.0,-1.267542807602314,0.0868141418518524,0
mp-774369,Li3V12O29,0.0,-2.3823445326420445,0.0391347163636517,0
mp-19764,Pr3In,0.0,-0.2795321200000007,0.0,0
mp-998929,K2O,1.849999999999999,-1.199749870416667,0.0602757233333326,0
mp-975512,InSb3,0.0,0.1790738037499997,0.2426217275,0
mp-628726,Sr(AlCl4)2,5.2875,-2.2481278378254546,0.0084937779545466,0
mp-1026909,Mo3W(SeS)4,0.552,-0.9470175850520852,0.0304265774999992,0
mp-770110,Li4Nb3Fe5O16,1.101699999999999,-2.3686669285714292,0.0729161901785424,0
mp-1003856,MgMnO2,1.712899999999999,-2.5079713271150004,0.0248708237499952,0
mp-1013532,Sr3AsP,0.0,-0.5798691746190479,0.4907080207916668,0
mp-971914,SrSiPt,0.0,-0.9963959883333332,0.0,0
mp-30703,Hf11Ga10,0.0,-0.4895085352380942,0.0020797659920637,0
mp-637918,Cr3GeN,0.0,-0.3397261654759987,0.0075467519999996,0
mp-19909,Dy(CrSi)2,0.0,-0.4318401393333332,0.1141632255000013,0
mp-19107,LiMnVO4,2.2182,-2.38518704728,0.0,0
mp-11577,YbZn,0.0,-0.0976031924999998,0.2329899199999998,0
mp-610631,LaGeAu,0.0,-0.8744472516666667,0.0,0
mp-753769,Sr3Li3La5O12,2.9474,-3.2849946241304337,0.0389207928260875,0
mp-755556,Ba6ZrO8,2.691799999999999,-3.0714949380000003,0.0475800506666654,0
mp-777924,Li2Fe3F8,2.9391000000000003,-2.8427197103476916,0.0314360980769246,0
mp-1029282,TeMoWSeS2,0.1634,-0.7743609811197913,0.0926475658333334,0
mp-13435,CeMgNi4,0.0,-0.391334498333333,0.0,0
mp-643790,CeNiSnH,0.0,-0.5963282234049991,0.0,0
mp-559663,SrLiNiF6,2.309799999999999,-2.9500463880155565,0.0,0
mp-704745,Cu8O,0.0,-0.0372983056944444,0.1791179027777785,0
mp-630376,Sb6Pb6S17,0.780999999999999,-0.7246539525538793,0.0063513444827618,0
mp-22192,Si3Ru2,0.551099999999999,-0.6333332227499995,0.0,0
mp-867263,ScCdHg2,0.0,-0.26102634625,0.0,0
mp-561072,Sr2DySbO6,3.6563,-3.129571347416668,0.0,0
mp-540832,EuFeO3,0.0,-2.53692254825,0.0,0
mp-554659,H12C5N2O,4.6195,-0.3648026038474995,0.1547726521250005,0
mp-989563,Rb2NaTlCl6,1.8121,-1.7931630779560002,0.0,0
mp-30221,Ba5P5I3,0.0,-1.2633682723443218,0.0,0
mp-556117,Ga3Pb5F19,4.7168,-2.8330392212077777,0.0,0
mp-632296,HF,6.7187,-1.7815241524049998,0.0,0
mp-22866,HoBi,0.0,-0.8277739200000003,0.0,0
mp-631463,CuTcBi,0.0,0.6840079683333329,0.6840079683333329,0
mp-974463,LaAg2Sn,0.0,-0.4124544637499996,0.0,0
mp-34263,Mn2TcO4,0.0,-1.933437124559999,0.0239343278571428,0
mp-780894,Na6Ni2P(CO4)4,0.0,-1.981631326313628,0.0099199939870722,0
mp-1019524,Ba3P6(N4O3)2,4.546600000000001,-1.902916097178757,0.0,0
mp-764388,Li8Co3NiO8,1.9618,-1.6748510789999995,0.1182853750000036,0
mp-672195,CeAgAs2,0.0,-0.7822352334375005,0.0014585690624997,0
mp-559605,SiO2,3.695,-3.0514208130555565,0.2332920944444439,0
mp-973877,PaBO3,0.0,-2.253850222083333,1.1249520796666683,0
mp-998560,InSnCl3,2.080899999999999,-1.277276194956,0.0201775169999991,0
mp-560381,RbIn3F10,3.4383,-2.9027192669214283,0.0064630547321424,0
mp-850480,Li3CrCo3O8,0.0,-1.7906421326666675,0.0692403049444409,0
mp-768230,SmTaO4,3.4665999999999992,-3.6621899454166673,0.0582751016666662,0
mp-765788,Li5VO3F2,1.573999999999999,-2.5459771878300006,0.0807081727272693,0
mp-4979,AlCuS2,1.6937,-1.14396975328125,0.0,0
mp-683652,Mn2InC10IO10,2.3988,-0.7827033137258326,0.5661112853124983,0
mp-27236,Sb2I2F11,0.0,-2.281172094539334,0.0167866979541733,0
mp-776619,Li2TiV3O8,0.6088,-2.6654011090476186,0.0693120410714218,0
mp-648006,Tb4In20Ni11,0.0,-0.296425185809524,0.0104510993095257,0
mp-566589,Ca4Mn3B3CO15,1.4971,-2.8001088453511542,0.0,0
mp-849601,Mn3(O2F)2,0.0,-2.1327786783622216,0.0700444288888926,0
mp-860461,Li2VCrO4,1.319,-2.4308052722916664,0.0146412439583327,0
mp-761185,KPH3O4F,5.7538,-2.1994252247645236,0.0,0
mp-22154,In2Au,0.0,-0.244012243333333,0.0,0
mp-1029219,Te2MoW3(Se2S)2,0.0,-0.6000915560416674,0.0632546000000005,0
mp-676779,NaHo2F7,5.834799999999999,-4.0469243068330005,0.1583084667500021,0
mp-775058,Li3NbV4O8,0.0,-2.383333014375,0.0625298608854229,0
mp-672200,RbC2N3,4.1966,-0.2705429845233335,0.1207409975000013,0
mp-765509,LiV(OF)2,2.0856,-2.6577176412300005,0.0710642004166821,0
mp-760773,LiCu2F7,0.0,-1.936454267333,0.0048048220000036,0
mp-849079,NiS2,0.0,-0.4871499610416663,0.1978864291666671,0
mp-753611,PCl3O,4.5483,-1.5705934263250485,0.0041296575,0
mp-8983,CaSiPt,0.0,-0.9365924825,0.0362346758333336,0
mp-558805,Na3Nd(BO3)2,3.7653,-2.820309589236112,0.0,0
mp-557351,Bi(BO2)3,3.4257,-2.575213784,0.0164704607499928,0
mp-1018105,Zr2Zn,0.0,-0.1725280516666671,0.0144365999999998,0
mp-4972,LuInCu2,0.0,-0.3178239375,0.0,0
mp-772487,LiCrO2,3.0591,-2.398358550625,0.0014111800000007,0
mp-767144,SrLa3MnO8,0.0,-3.1231479439200003,0.0814258430288354,0
mp-1867,Ta2Ni,0.0,-0.2344725916666661,0.0,0
mp-4214,Lu2Fe14B,0.0,-0.1275172880392156,0.0,0
mp-19411,Cs2SrV4O12,2.6751,-2.580561503157896,0.0,0
mp-768961,YB5O9,5.2587,-3.057751939472221,0.0004418224444471,0
mp-778009,LiBi6B3O14,2.445699999999999,-2.0781929615625,0.0382625965277823,0
mp-30209,LiBH4,6.8115,-0.4326555251911118,0.0,0
mp-504600,NaH4ClO2,4.923,-1.5413004684675,0.0280562340624994,0
mp-1018027,VN,0.0,-1.35177737119,0.0,0
mp-974757,KBeH3,3.0876,-0.186115045172,0.0094885443333336,0
mp-1025,ThAu2,0.0,-0.7210270966666664,0.0,0
mp-703308,CsGaP3HO10,4.900499999999999,-2.5549216772128567,0.000427830625,0
mp-29234,InTeI,1.5625,-0.4408085658333333,0.0,0
mp-721287,Na3AsH14SO10,3.254099999999999,-1.4759636086980172,0.0381758615373559,0
mp-686653,KMg4Al9(SiO4)9,3.9501999999999993,-3.316099271779662,0.0215195638644072,0
mp-30304,Bi3SbO7,2.162499999999999,-1.7938633680681824,0.0,0
mp-10652,SmTe,0.0,-1.2746862062499995,0.1095774949999999,0
mp-9625,LiMgPO4,5.4297,-2.96660076079932,0.0,0
mp-755165,YScO3,4.4324,-3.9584268767500017,0.0279098708749998,0
mp-763833,NaLiMnPCO7,0.7532,-2.349449412942103,0.001255195944438,0
mp-767719,Li4Ti2Mn3Ni3O16,0.014699999999999,-2.0738363977219043,0.0436777436011865,0
mp-971632,GaP,0.2108,-0.2386492915476195,0.1697864825000001,0
mp-755428,Rb3ClO,1.2267,-1.6029099789020005,0.0,0
mp-35746,Sr(YS2)2,2.1883,-2.441644111607144,0.0722232717857158,0
mp-19097,FeBO3,1.698899999999999,-2.3634865620833323,0.0,0
mp-11927,Pr2AlCo2,0.0,-0.2205389439999997,0.0427073440357137,0
mp-28843,Tl2SnTe5,0.0,-0.1883177118750003,0.0067652871874996,0
mp-979292,SmY3,0.0,0.0065792624999998,0.0065792624999998,0
mp-1013583,Sr3Sb2,0.0,-0.6156880600000001,0.3786505477058819,0
mp-10611,La3PbC,0.0,-0.4213019795000008,0.0,0
mp-600510,CoH9C6(S2O)3,2.4311,-0.5138903185282004,0.2329916316678569,0
mp-20633,PbO2,0.0,-1.308853594999999,0.0079558291666677,0
mp-567817,HfGeTe4,0.3345,-0.4636739558333337,0.0,0
mp-989638,CaTcN3,0.4729,-0.5961597914279991,0.0,0
mp-755053,Ga4SiO8,2.405299999999999,-2.4442793553846154,0.0682412038461546,0
mp-743619,CoH6C2S2N2O3,2.2358,-0.8099382139596871,0.1795133508919271,0
mp-645694,Ce3LuSe6,0.0,-1.8384663026562509,0.0,0
mp-1029572,CaTiN2,2.2528,-1.5432407519191669,0.0,0
mp-696582,BaSO2,1.513,-2.2988225791406256,0.4296807568750003,0
mp-777026,FePO4,1.8779,-2.403197596765873,0.0246241091666679,0
mp-1220,Be5Au,0.0,-0.0826447741666669,0.0,0
mp-763323,LiMn2(BO3)2,0.765699999999999,-2.44283756752303,0.0692395993181769,0
mp-766972,LiMn2O2F3,0.737599999999999,-2.5650017428737493,0.0294309315625005,0
mp-558219,SrLi(BS2)3,2.91,-1.2693775503977278,0.0,0
mp-680674,Cs3Bi2Br9,2.614099999999999,-1.2732650996428567,0.0009982160714283,0
mp-33302,MgAl2O4,4.2658,-3.3685748241071423,0.0202506108928579,0
mp-600369,V3H8C2NO7,1.8997,-1.3586140811947611,0.1719930515476199,0
mp-22261,InCuTe2,0.002999999999999,-0.2770967299999998,0.0,0
mp-558851,Cs2KCoF6,0.0,-2.7522910537140013,0.0,0
mp-20687,Sr2LuRuO6,0.1141,-2.9182450397500004,0.0,0
mp-1013585,Sr3BiSb,0.0,-0.6305301479999997,0.311702386666667,0
mp-27189,Si3Cl8,4.7516,-1.5502078457800004,0.0147013852272723,0
mp-554066,Ba3Lu2Zn5O11,2.2892,-2.68242240875,0.0015626499404755,0
mp-5040,CaTe2O5,3.3657999999999992,-2.109979285468751,0.0,0
mp-769599,NaCrPCO7,0.7245,-2.2282374353950214,0.0560616713635919,0
mp-1030274,Te3Mo2S,0.0,-0.4690634906770832,0.0603469108333323,0
mp-811,BaPt5,0.0,-0.4836830083333332,0.0,0
mp-27389,KSb2F7,4.1611,-2.828203140833,0.0,0
mp-558234,Na5La(WO4)4,4.7881,-2.4138309090384613,0.0027202490865327,0
mp-779256,V2OF5,1.9184,-3.052190781525,0.0,0
mp-11527,Tm2Ni17,0.0,-0.2058028200000001,0.0075173842105256,0
mp-4476,HoCuSi,0.0,-0.6707964216666665,0.0,0
mp-23100,Sr2LuBiO6,1.9118,-2.90769383925,0.0,0
mp-510567,Ce3CuSnS7,0.0,-1.7785838344531255,0.0015752788541663,0
mp-775777,LiFeF4,3.1241,-2.8660437624600004,0.0617030426851936,0
mp-560745,AuN5O14,1.9901,-0.7933544327200011,0.0,0
mp-21490,CeSnPd,0.0,-0.8319284583333335,0.0,0
mp-5860,K2HgO2,2.0773,-1.3584507824999998,0.0,0
mp-679979,La9B3C6I5,0.0,-0.7844223419565214,0.0,0
mp-569224,SbI3,2.2015,-0.3150337356250001,0.0473466956249999,0
mp-762656,LiFeSiO4,2.7244,-2.561390917142858,0.0606262364285639,0
mp-706640,CaAl2Si4(H2O7)2,0.1098,-2.6313546556792,0.2798928657500008,0
mp-976868,NiH2SeO5,2.0722,-1.109064890231527,0.1216646766666675,0
mp-12492,CsLuCdTe3,1.545399999999999,-1.0540952408333333,0.0,0
mp-972396,Ti2MnRe,0.0,-0.297484062083333,0.0233512837500011,0
mp-16745,ErAgPb,0.0,-0.3523425838888888,0.0,0
mp-773462,MnTeO4,0.0,-1.5971733076600003,0.0842999935937518,0
mp-765135,WOF4,4.4088,-2.6930577326683327,0.0,0
mp-697139,PHN2,4.732799999999999,-0.6026415703688084,0.0,0
mp-568623,Sc44Os7,0.0,-0.1959991592156865,0.0,0
mp-25591,NdNiO3,0.0,-2.33023048275,0.0,0
mp-684489,LiBiP2O7,4.4537,-2.527069967949134,0.0338187689393967,0
mp-2121,ScAl3,0.0,-0.4506240449999997,0.0,0
mp-3567,NaVSe2,0.0,-0.8579773205468753,0.0029341406818232,0
mp-743593,CoP2H18(NF2)6,2.6244,-1.5090684107669357,0.0430562359829052,0
mp-777292,Ba3Y2Br12,3.7767999999999993,-2.017261591029412,0.0667965984558822,0
mp-510545,K2BeH4(SO5)2,5.2395,-2.1107436515844733,0.0,0
mp-562420,Cs3ClO,1.8351,-1.6388391284020003,0.0012890012500004,0
mp-772882,Dy2Ge2O7,3.3259,-3.0513418899621216,0.0288283495454546,0
mp-567441,HfIN,1.006499999999999,-1.5390174274600004,0.0,0
mp-13313,ScTlSe2,0.6128,-1.2546088380468747,0.0,0
mp-753385,LiAg2F4,0.0,-1.8074570421085716,0.0671337914285707,0
mp-22053,FeCu2GeS4,0.0,-0.6608183526562499,0.0414021837499998,0
mp-19741,CeNiC2,0.0,-0.2270084937499996,0.0090273384722232,0
mp-19992,La6UO12,1.980899999999999,-3.951897409736842,0.0001980478947221,0
mp-25624,VH12(ClO2)3,2.2597,-1.453479413214545,0.0,0
mp-778219,Li4Cr3Co3(SnO8)2,0.0,-1.9905663689285709,0.0350786108333336,0
mp-571358,Yb3Pt4,0.0,-0.9337698485714288,0.1388578164285716,0
mp-22301,Sr2DyCu3(PbO4)2,0.0,-2.0832508985416665,0.0230082107812501,0
mp-764650,LiFe2(BO3)2,1.4483,-2.3224639780303025,0.0936193585795708,0
mp-1135,NbPd3,0.0,-0.418275875,0.0019363816666668,0
mp-776246,Zr2N2O,1.5631,-2.348610042701999,0.0046950775000009,0
mp-11973,YbSnRh,0.0,-0.7744163705555557,0.0,0
mp-998759,TlCdF3,3.7001999999999993,-2.3171897954640004,0.0,0
mp-921,YRh2,0.0,-0.736512984166667,0.0,0
mp-1999,Sb2O3,3.340799999999999,-1.7576698227500005,0.0088967555000003,0
mp-19846,TlSbSe2,0.0,0.3329227132031249,0.665027806875,0
mp-22392,SmCuSeF,0.0,-1.8890200568209377,0.3892756739583323,0
mp-571097,SiH17C11N,3.9636,-0.2468376383806666,0.1003423150972206,0
mp-770621,Li4Ti3V2Co3O16,0.0,-2.4943104075,0.0922958845833328,0
mp-704950,SrFeSn(PO4)3,2.7579,-2.701587700238095,0.0,0
mp-23453,Hg6Sb5Br7,0.9445,-0.3523624097222221,0.0,0
mp-21245,CePt,0.0,-1.0858628800000003,0.0,0
mp-25034,MnSeO3,3.2391,-1.6452084046607496,0.0,0
mp-763441,Fe9O10,1.601199999999999,-1.7153265343421045,0.0169355676315827,0
mp-1045,Nd2O3,3.708,-3.799315994250001,0.0,0
mp-769544,MgCr3Se2(SO6)4,0.1421,-1.9265956903952208,0.0049340593933795,0
mp-540467,Co(PO3)4,0.009699999999999,-2.2398541780812327,0.0909780081985278,0
mp-672188,Y5Pb4,0.0,-0.1783287955555563,0.0772415805555546,0
mp-862609,ScReTc2,0.0,-0.2044913587500012,0.0,0
mp-765363,Li2VF4,1.3747,-3.0540379052038102,0.0497118233333324,0
mp-17854,LiInGeO4,2.277799999999999,-2.192188519642857,0.0,0
mp-771923,Li6FeO4,2.2934,-2.007918343636364,0.0187017931818198,0
mp-8098,InGaO3,1.341999999999999,-2.15030618375,0.0022588920000004,0
mp-975564,PuBO3,0.0,-2.3454120354583337,0.7873219536666658,0
mp-27932,Li9Ge4,0.0,-0.3478442230769228,0.0,0
mp-22683,CeCuSn,0.0,-0.4683920449999993,0.0,0
mp-772213,La4CuO8,0.0,-3.1189280738461536,0.0596816337980765,0
mp-779571,La3B5O12,3.8196,-3.304819716666666,0.0674909204000009,0
mp-13450,HfSb,0.0,-0.5434558808333337,0.0097387729166662,0
mp-560445,SrEr2O4,3.7705,-3.795465678571429,0.0,0
mp-776722,LiFe2OF5,2.1765,-2.649827209503704,0.0622319758641989,0
mp-570631,U(FeP)2,0.0,-0.7946201052380957,0.0,0
mp-863703,Pm2MgSn,0.0,-0.4373497925000001,0.0,0
mp-865648,Yb2CdPb,0.0,-0.5493067737499997,0.0,0
mp-767169,Mn4OF6,1.7613,-2.723562088839091,0.0843362795454547,0
mp-697789,LiCrP2O7,1.117,-2.5003550918127697,0.1841746713636372,0
mp-8934,Cs2SnAs2,0.765799999999999,-0.4480568139999999,0.0,0
mp-1018045,Rb,0.0,0.06279977,0.06279977,0
mp-642254,Tl2V8O21,1.307799999999999,-2.216574195040323,0.0159423377419578,0
mp-571057,KY(PSe3)2,1.881099999999999,-0.7952523340252966,0.0,0
mp-998914,K2O,0.8801,-1.2169934854166666,0.0430321083333327,0
mp-770988,Na2CoPCO7,0.8388000000000001,-2.1597402757787703,0.0,0
mp-763796,KMnP3HO10,1.1088,-2.4917613275853574,0.008935058125,0
mp-642975,CrBi12Mo4PbO34,2.5084,-1.844183887259616,0.0074067409855613,0
mp-696822,LiNO3,0.0,-0.2809580592259998,1.1932949120000016,0
mp-23273,TeI,0.7793000000000001,-0.0709852531250003,0.0134266131249995,0
mp-6528,Cs2NaAlF6,6.697,-3.438328630214,0.0,0
mp-684000,Eu2Si3Ni8,0.0,0.6205777019230768,1.0701017742307704,0
mp-673875,Fe2RhS4,0.0,-0.7420914373214293,0.1369064811904774,0
mp-756198,Li14Mn2S9,1.7707,-1.4551957362624994,0.0076444755999967,0
mp-862921,PmInRh2,0.0,-0.6453492818750002,0.0,0
mp-15844,TaPO5,3.826399999999999,-3.080971794192174,0.0485313237500033,0
mp-989543,Cs2BrCl6F,0.9489,-1.2009585955750002,0.0,0
mp-756406,Li2Zr2O5,3.6528,-3.2307374612500004,0.0831567755555529,0
mp-680728,K6Fe24S26Cl,0.0,-0.8698396713839469,0.0868941433333345,0
mp-864653,HoMgAu2,0.0,-0.7842888962500001,0.0,0
mp-19965,K4BaU3O12,1.9861,-3.2238332847499995,0.0361057552500021,0
mp-707398,Mg2PHO5,2.3981,-2.3962402645887297,0.4123188171296288,0
mp-11620,ZnNi3Sb2,0.0,-0.0425513858333334,0.2175268025000001,0
mp-13820,Cd3SiO5,0.9679,-2.0584105601388885,0.0,0
mp-686001,Ce2Nd2O7,1.643,-3.801484862613636,0.0773351770454535,0
mp-215,YSb,0.0,-1.1644459487499992,0.0,0
mp-973314,Ho2PdRh,0.0,-0.9085134024999996,0.0201364612499999,0
mp-532803,YAl3(Si5N8)3,3.049699999999999,-1.3589726490609293,0.0255055096511682,0
mp-22430,BAsPbO5,3.372099999999999,-2.0877538822395816,0.005129374086537,0
mp-12240,Na2LiBe2F7,6.9483,-3.3515665806941666,0.0,0
mp-16978,Ba3MgSb2O9,2.6494,-2.7140358604166663,0.0,0
mp-10371,Cr2GaN,0.0,-0.3997579030949989,0.0287896283333326,0
mp-975411,RbBr3,0.0,-0.6259623625000001,0.2597215999999998,0
mp-4360,NaCdF3,3.513,-2.694347058714,0.0,0
mp-759333,Na7Ti11O24,0.0,-3.119305426150793,0.023117261369034,0
mp-1159,Zr2Fe,0.0,-0.1421381500000009,0.0172757273333257,0
mp-5031,TaSiAs,0.0,-0.5101364499999997,0.0,0
mp-776445,Li4Ti2Cu3Sb3O16,0.0,-2.1174125427976187,0.0831869081919771,0
mp-762298,Li2CrSiO4,1.9817999999999991,-2.5969609490625007,0.0649557584375033,0
mp-30641,Y6Fe23,0.0,-0.047232993965518,0.0098719648275853,0
mp-867351,Tc,0.0,0.0095121724999991,0.0095121724999991,0
mp-20436,TaSiRh,0.0,-0.8328244966666674,0.0,0
mp-642655,K2GdF5,4.5118,-3.7442929026187497,0.0,0
mp-522,CuAu,0.0,-0.0450510849999998,0.0,0
mp-673808,Mg2SiO4,3.8639,-3.0820624321428567,0.1539326410714281,0
mp-10767,CsK2Yb(PO4)2,0.0,-2.8151830140136047,0.0,0
mp-765072,LiVCrP2(HO5)2,1.2776,-2.428837403093949,0.0006043443137242,0
mp-29431,LiDy2Br5,0.1202,-1.4475867716666668,0.1855940144444439,0