mpid,formula,BG,FE,e_hull,fidelity
mp-764486,Li3Fe4(BO3)4,1.6499,-2.3911300320289857,0.0256993691304474,0
mp-582874,BaBi12Mo4WO34,3.2819,-1.9539713412019235,0.0186409128846047,0
mp-973308,MgIn3,0.0,-0.0488911249999999,0.0,0
mp-1022717,CeSe2,0.2917,-1.435121845729166,0.1944898745833336,0
mp-13252,SnB4O7,3.5712,-2.6298681071180554,0.0,0
mp-753868,SbOF,3.5531,-2.1524719028966675,0.0659904006250018,0
mp-18658,RbLaSiS4,2.7894,-1.866071396607143,0.0,0
mp-752400,Ce2Sm2O7,2.029499999999999,-3.834189089431818,0.0810335389772713,0
mp-703350,La2(GeO3)3,3.0791,-2.840658939732143,0.0052519021428567,0
mp-707841,PH6NO3,6.286099999999999,-1.33840852667684,0.0126294417965349,0
mp-1001787,LiRh3,0.0,-0.1324994850000003,0.0,0
mp-33631,TiZn2O4,1.4336,-2.4911591552380954,0.0463767408333337,0
mp-683947,SiO2,5.210199999999999,-3.1526415420833325,0.1320713654166674,0
mp-31301,LiSn4Au3,0.0,-0.2794107031249999,0.0,0
mp-560466,Na2FeCuF7,0.0565,-2.6293638757572726,0.0064177331818182,0
mp-698616,Rb3FeF3,0.7186,-2.00639757551,0.4747941400000002,0
mp-775077,FeNi3(PO4)4,0.0,-1.9881171188492068,0.08492558497396,0
mp-8974,Ba3Dy4O9,3.240999999999999,-3.5799622636197928,0.0008747687499992,0
mp-542912,FeH12Pt(ClO)6,1.5113,-1.3117935934807696,0.0,0
mp-30675,Ti5Ga4,0.0,-0.4339270764814821,0.0078642438888891,0
mp-620069,K3Mo2Cl9,0.9318,-1.7405863999528566,0.0095743862500032,0
mp-704123,CrF4,1.5634,-2.616622643952,0.0,0
mp-13827,Ca(BO2)2,6.0656,-3.1005569010714296,0.0406469754761857,0
mp-995215,CsSrSiHO4,3.955899999999999,-2.7060751023275,0.0632466466666663,0
mp-3556,Tm2SO2,3.0985,-3.6688833313124984,0.0,0
mp-542138,Ca3Si2Ni3,0.0,-0.5016269250000001,0.0,0
mp-5794,Zn(GaO2)2,2.310499999999999,-2.187860296428571,0.0,0
mp-1025754,Te2Mo2WSe4,0.0167,-0.4733383182638886,0.0267051527777777,0
mp-617283,Cu2AsClO4,0.0,-1.1907920504074996,0.0411688865625032,0
mp-760477,SmBO3,4.3574,-3.4438208855833325,0.060809067500001,0
mp-17173,Rh2S3,0.194599999999999,-0.8647716094375006,0.0,0
mp-777183,TiMn3Cr2(PO4)6,0.0,-2.573878140781058,0.0786347669444467,0
mp-31803,Fe4As2O11,1.6268,-1.7890551508088233,0.0188702518627428,0
mp-762911,FeOF,0.7532999999999991,-2.213615243035556,0.0670687027777763,0
mp-559289,YTaO4,4.1106,-3.730936438750001,0.005326899166647,0
mp-9573,NaBeAs,1.2793,-0.3917251716666665,0.0,0
mp-12509,YZnPO,1.3074,-2.04129176921131,0.0,0
mp-3466,PrAlO3,4.1325,-3.67417870575,0.0,0
mp-865986,Li2CaGe,0.0,-0.4192414387499999,0.0012196065625,0
mp-677549,Ca2Al2SiO7,3.2089,-3.1441903144791663,0.3328511893749989,0
mp-5015,UAlRh,0.0,-0.5542094466666659,0.1727397766666687,0
mp-21765,Pd17Se15,0.0,-0.3206591574658208,0.0,0
mp-20845,Dy2Sn2O7,2.7123,-3.0477742579166662,0.0,0
mp-20915,Cs2NaMn(CN)6,0.031099999999999,-0.2636971724550001,0.114801023385417,0
mp-30534,UCuP2,0.0,-0.6437727002976192,0.0,0
mp-777559,LiFeF4,3.1787,-2.900138844126666,0.0276079610185275,0
mp-765649,Li11Ti12(NiO8)4,0.0331,-2.830438345254237,0.090942444194936,0
mp-1013704,Ca3BiSb,0.0,-0.4377624219999994,0.4601988457156891,0
mp-19563,Na2CoPO4F,2.9785,-2.4988433846428046,0.0076658161111113,0
mp-762371,NbOF3,3.9131,-3.2272141419639997,0.0871743944999989,0
mp-771987,Li3MnV4O12,1.1592,-2.3624346697979997,0.0727950154999899,0
mp-755465,Hg2Pt2O7,0.0,-0.8609830512499993,0.0,0
mp-853265,V4O5F7,1.6077,-2.7507045899737506,0.0242819868750174,0
mp-706624,H9OsN7Cl2,0.0887,-0.2952575271452621,0.2884640236259654,0
mp-973089,ScTaFe2,0.0,-0.1909620024999992,0.0156213487500007,0
mp-510560,CeF3,0.199399999999999,-4.321284442559167,0.0,0
mp-30211,La5Sn3I,0.0,-0.8626858344444446,0.0,0
mp-850757,Fe3OF5,1.5957,-2.520374626355556,0.0650759272222263,0
mp-769728,Li3Mn4O8,0.7442000000000001,-2.1017152009226665,0.0292050122708351,0
mp-2654,Al2S3,2.817,-1.4580305377708342,0.0,0
mp-685991,Li5SiP3,1.3803,-0.5938671193650791,0.0,0
mp-29412,Ta3Br7,1.2286,-0.8987020295000001,0.0,0
mp-1019560,Ca2B2O5,4.7085,-3.2535684374537035,0.0,0
mp-24938,BaSr(FeO2)4,1.819899999999999,-2.2473882878571425,0.0116464985714692,0
mp-698122,K3H3S2(O4F)2,1.1044,-1.6627937386869454,0.5310099349305553,0
mp-504795,Ca4Fe9O17,0.0726,-2.2715221597083337,0.0086831055000002,0
mp-2797,YCu5,0.0,-0.1861786704166673,0.0,0
mp-684621,Cu13I15,0.0,-0.1318012357142853,0.0132369994642864,0
mp-22003,NaN3,4.0245,-0.3884044355349996,0.0007059424999997,0
mp-560349,La3NbO7,2.8479,-3.736511554431817,0.0,0
mp-762008,LiNiPO4,3.082099999999999,-2.1908772516326525,0.1016772555952432,0
mp-554481,Ba2Sb4P2O17,1.8778,-2.471105182897619,0.0027383258666642,0
mp-571518,WCl6,1.9169,-1.3615658256514287,0.0,0
mp-782644,LiMn3(BO3)3,0.419,-2.410629279008125,0.092083967356757,0
mp-754,Te2Rh,0.0,-0.4065956449999994,0.0,0
mp-571654,CdI2,2.3715,-0.5914954086111109,0.0006415899444442,0
mp-752580,RbNO2,2.3204,-1.3630490137200002,0.0,0
mp-773498,Na6Sn2O7,1.992899999999999,-1.8928451267500004,0.0730544228333256,0
mp-775205,Li3MnP2HO8,4.173999999999999,-2.535836191718031,0.0381814853333457,0
mp-1975,TmN,0.156699999999999,-2.0129558561900005,0.0,0
mp-11709,Sm(BO2)3,5.469099999999999,-3.183315821000002,0.0174790695624977,0
mp-20158,PbO2,0.0,-1.2103970474999997,0.106412376666662,0
mp-1008865,NdCd2,0.0,-0.346888985833333,0.0,0
mp-30447,Sr9Cd4Bi9,0.0,-0.7176030875000001,0.0,0
mp-23003,Ce2BiO2,0.0,-2.8738781575000005,0.0,0
mp-31441,Li2GaIr,0.0,-0.4211003574999999,0.0,0
mp-17113,Sm2Ru2O7,0.0,-2.557242281704545,0.0076867457954534,0
mp-20341,U(MnGe)2,0.0,-0.2042436679999994,0.0,0
mp-745044,VH8C2N2O6F,3.136199999999999,-1.3697224907455,0.0866756636770844,0
mp-638685,CsEuBr3,0.9373999999999992,-1.98490349,0.0,0
mp-775041,Mn3Cr2Sb3O16,0.312199999999999,-1.9078686428283331,0.0944809391493057,0
mp-32394,Ni3(P2O7)2,0.0,-2.059433639041949,0.0562224252976202,0
mp-850180,Li4Fe3OF8,2.6677,-2.721292419266876,0.1045079529687456,0
mp-1007657,HfRu3,0.0,-0.2187167225,0.1948979349999984,0
mp-27888,Zr3GeO8,3.8969,-3.4037937687500013,0.0038641404166668,0
mp-15750,TaAgP4O13,2.0967,-2.611555969664788,0.0,0
mp-566896,V2Ni(PO5)2,1.5323,-2.440193100912698,0.0,0
mp-973088,MgInAg2,0.0,-0.158871495,0.0,0
mp-573471,Li17Sn4,0.0,-0.3517429787619045,0.0,0
mp-21847,KMnAs,0.0,-0.249766298333333,0.0537806874999997,0
mp-32306,Ba2ReNiO6,0.0,-2.396165076250001,0.0139336546666681,0
mp-626994,Ba(HO)2,4.2448999999999995,-2.1028352301979987,0.0243957560000005,0
mp-645291,As3Pb5ClO12,3.0286,-1.7636699718219038,0.003989663214269,0
mp-562920,CsAl(SiO3)2,4.7668,-3.2619392018750006,0.0,0
mp-541090,Ce(SeO3)2,1.2671,-2.1534612446875,0.0,0
mp-762036,Li(CoO2)2,0.0,-1.5277031124999991,0.0328282842857152,0
mp-16857,LaMn3Ni2,0.0,-0.0147023094444449,0.1512877737037037,0
mp-7583,SiS2,3.2912,-1.0692739527083344,0.0517184216666661,0
mp-562248,Ag3CS(NO2)3,2.0935,-0.5543040347287506,0.5124082196685693,0
mp-614325,Re2Pt(CO)12,1.8279,-0.9895634975925944,0.2434382059259245,0
mp-10811,NaSr4(BN2)3,1.9682,-1.2321398099485723,0.0,0
mp-3564,BaSc2O4,3.8718,-3.7036104047619056,0.0,0
mp-978266,Mg2ZnPt,0.0,-0.52274239125,0.0060064158928572,0
mp-777990,Tm2Sb2O7,2.1304,-2.8567466585227272,0.0220551314772681,0
mp-849671,Li5Co2(SiO5)2,0.2346,-2.3016369885526307,0.1027035475000017,0
mp-561096,Yb2PrDyS6,1.2582,-2.1927701606041667,0.1357821323749988,0
mp-707239,H8C2SeS2(BrN2)2,2.5463,-0.4172946565894081,0.0956685191279973,0
mp-28237,RbLiBr2,4.322,-1.66753998375,0.0048123537499997,0
mp-542678,AlAs(H2O3)2,3.641199999999999,-1.9188900672483344,0.0061361162499995,0
mp-557649,K2Ce(Si2O5)3,2.221899999999999,-3.2536599703645828,0.0,0
mp-34493,Mg(FeO2)2,0.9676999999999992,-2.177493371904763,0.0739993545238242,0
mp-553946,CoAsS,0.0,-0.6607533930208334,0.0005537683333329,0
mp-21991,Rh17S15,0.0,-0.7357870033105467,0.0,0
mp-585209,Li2Mo(PO4)2,1.9317,-2.5963786466300367,0.0301975852884375,0
mp-769391,Ba4ZrO6,3.1542,-3.1688891288636367,0.0538831572727263,0
mp-1950,SrS2,1.2822,-1.8266910943750003,0.0108995300000005,0
mp-758101,Li4Cu3F10,0.0,-2.3696120530529408,0.0881328985294107,0
mp-775713,NbNi3(PO4)4,0.0,-2.2418602838492063,0.0841273947135325,0
mp-578938,La2(MoO4)3,3.6508,-2.727327428235294,0.0,0
mp-7305,SmZrF7,5.8965,-4.249058562869999,0.0023385144444443,0
mp-756632,NbO2F,1.2697,-3.1391716134224987,0.0469313362499903,0
mp-771719,Li4TiNi3O8,0.0,-1.8958777691666668,0.0295997009374993,0
mp-558427,Na6Mg(SO4)4,5.2539,-2.383328746898148,0.0,0
mp-9149,Er3P4Pd7,0.0,-0.9948712412414976,0.0003156189170523,0
mp-767663,Li2Mn3(BO3)4,0.5216000000000001,-2.3959496225974597,0.0958715669982988,0
mp-11893,K2Pd(CN)4,3.8847,-0.2592357563199993,0.1002032546590916,0
mp-977370,EuOsO3,0.0,-2.057007514749999,0.222179824000003,0
mp-13576,EuAsO4,0.0,-2.468218808333333,0.0,0
mp-32654,Sc2Te3,0.0,-1.1889135339999997,0.0593582134999985,0
mp-761872,Na2Sn2O3,0.426099999999999,-1.7071605726785717,0.0837904678571419,0
mp-24216,ZnHgAsHO5,1.3969,-1.47875126581889,0.0,0
mp-866387,LiY(MoO4)2,2.973,-2.554450998958332,0.0725738375115749,0
mp-979270,Tb2AgIr,0.0,-0.5897478366666675,0.0,0
mp-2273,Ag3Sb,0.0,0.0713878162500005,0.0713878162500005,0
mp-558541,H9C3SeSN2Cl,3.4454,-0.1560993609268375,0.3781362905533081,0
mp-504948,LiScGeO4,3.9614,-2.8907255857142857,0.0076091728571388,0
mp-556660,CO,5.8258,-0.6500143118750001,0.6877606837500041,0
mp-763531,LiP3(WO6)2,2.5008,-2.5333658030158737,0.006383431666725,0
mp-30816,Li2AlPd,0.0,-0.5301721525,0.0,0
mp-972048,Zn6Mo,0.0,-0.0281022642857138,0.0,0
mp-780075,Hf2N2O,1.9925,-2.549997819702,0.0,0
mp-4300,Yb2Si2O7,0.0,-3.120801090795455,0.0,0
mp-978824,Sm2RuAu,0.0,-0.4815811575,0.0104331046875012,0
mp-7645,KAl(SO4)2,5.5291999999999994,-2.4544614756770837,0.0,0
mp-30889,Ho2Ru2O7,0.0,-2.618078890340909,0.0253134215909085,0
mp-31551,Co3(PO4)4,0.0,-1.9416722896687373,0.1302161722010888,0
mp-3525,Sb2Te2Se,0.126699999999999,-0.1891559177187496,0.6603696746666663,0
mp-504827,Ga10GePb3O20,3.0284,-2.1580770952941184,0.0,0
mp-773534,TiFeO4,0.0,-2.457801121944444,0.0875165048958326,0
mp-686726,LaTiAlPbO6,1.8576,-3.2034597149166677,0.0526563366999965,0
mp-631540,NiBTe,0.0,0.7425472677777775,0.9338061067361112,0
mp-30627,DyZn5,0.0,-0.2788631736111109,0.0051161509090906,0
mp-570971,Sr3Ga3N5,1.3625,-0.7539876574454542,0.0,0
mp-20276,U2F9,0.0,-3.918453129155455,0.0096474389394023,0
mp-761910,Li3Cu2F8,0.0075,-2.411262439963077,0.0295725376923057,0
mp-7908,Al2ZnTe4,1.625099999999999,-0.4608462664285712,0.0,0
mp-754794,La2S2O,2.1692,-3.0908958278750003,0.0090789290000001,0
mp-764602,Na2CoO3,0.5429,-1.4576343389583333,0.0830460130637318,0
mp-13819,KAgF3,0.0,-2.136356392214,0.0,0
mp-773388,Li4Mn5Nb3O16,0.0,-2.457008352671427,0.0817483454017775,0
mp-570950,NaLi2N,0.0,1.0076181056550009,1.3579547524999995,0
mp-769892,Li4Mn3Co5O16,0.197899999999999,-1.7141880879599998,0.0599957276190599,0
mp-769653,Li2TiFe2O5,1.474,-2.4268162247916667,0.0382794850000012,0
mp-757100,LiCoS2,0.6835999999999991,-1.02796700953125,0.0582164428124967,0
mp-6495,BaEr2ZnO5,3.3171,-3.2960655529166663,0.0219274717129618,0
mp-631507,BeBiOs2,0.0,0.9675748325000004,0.9675748325000004,0
mp-568831,Pr2Sc3Si4,0.0,-0.7912059986111109,0.0,0
mp-972209,Ta2TcW,0.0,-0.2842604800000021,0.0,0
mp-976182,PrErTl2,0.0,-0.3457271387500005,0.0036548849999995,0
mp-6245,K5Nb4O12F,3.4222,-2.889592876417728,0.0,0
mp-17904,Nd2TiO5,3.313799999999999,-3.801583381614583,0.0,0
mp-773688,Na3Li3Mn2P2(CO7)2,3.4958,-2.396890985215788,0.0366280049999998,0
mp-28996,Ag4Bi2O5,1.6389,-0.9181102610227276,0.021977265772727,0
mp-1019278,TbGeAu,0.0,-0.8375197377777776,0.0,0
mp-754478,HfZrO4,3.4356,-3.8960745283333353,0.0401328112499985,0
mp-540962,KLa(PO3)4,4.8922,-2.949368733187831,0.0,0
mp-765833,Li6Fe5NiO12,0.0,-1.922727631041668,0.0366172278124992,0
mp-772563,Li2VO2F3,2.5101,-2.752506593883749,0.0892998368750062,0
mp-999336,NdPd,0.0,-0.8142656937499995,0.0,0
mp-766134,UH12(NO7)2,2.3813,-1.5694068191620691,0.0080691702586186,0
mp-21105,PuSi2,0.0,-0.4639441222916669,0.0,0
mp-505502,Ce(PRh)2,0.0,-1.1267025982380958,0.0004586990000001,0
mp-761563,Mn2FeO3,0.113199999999999,-1.860974517611666,0.0291190041666666,0
mp-775465,MnSb3(PO4)6,0.0,-2.362221881897984,0.0151272291176365,0
mp-1027736,Te2MoWSeS,0.0,-0.4747600171093762,0.116335208333334,0
mp-756440,Er2Pt2O7,1.540499999999999,-2.4924172194318186,0.0,0
mp-546292,YbClO,0.0,-2.493950094836667,0.2489330726666683,0
mp-23679,PuH3,0.0,-0.4381556594337495,0.0,0
mp-774081,Li4Mn3Fe(BO3)4,3.0413,-2.495048231439444,0.0034362964583332,0
mp-30423,VAu2,0.0,0.0133684833333328,0.0275418033333325,0
mp-942733,Li7La3Zr2O12,4.450799999999999,-3.135321317916668,0.0072710037500023,0
mp-558106,SnH58C16S4(N11O9)2,4.6716,-0.7790829995468059,0.0861262190714251,0
mp-9317,KZrCuS3,0.592499999999999,-1.5979141878645844,0.0,0
mp-556018,LiBH15C5NO3,4.022299999999999,-0.5370956621960243,0.3112530114903853,0
mp-777133,V3CuO8,0.0,-2.0733887941666667,0.0620747870833398,0
mp-137,Ge,0.3555,0.1442671033333334,0.1442671033333331,0
mp-768954,Ba2YCl7,4.7082999999999995,-2.8548089132820005,0.0090444957499995,0
mp-756170,Sr3LiTa4(O6F)2,0.0,-3.4651620053354537,0.0375833946704649,0
mp-865710,LiSnAu2,0.0,-0.3849087512500001,0.0,0
mp-554852,Y2Te5O13,2.994499999999999,-2.2015622545625,0.0,0
mp-776332,Na(BH)5,4.7322,-0.3157517772893925,0.0765647957575756,0
mp-762002,LiNiPO4,3.4977,-2.196485074727892,0.0960694325000037,0
mp-676038,Ga5(PS)3,1.3431,-0.6970908333157475,0.0071926759090885,0
mp-4648,KTeF5,5.2046,-2.7575258040642856,0.0,0
mp-765533,NaV3O6,0.8350000000000001,-2.36510700625,0.1022296416250299,0
mp-763053,Fe4O3F5,1.5083,-2.326774909141668,0.0681965145833247,0
mp-706544,NaGa(H2N)4,2.7434,-0.5487944222128566,0.0061996391071428,0
mp-1910,CeNi5,0.0,-0.3394064150000003,0.0,0
mp-762413,Li3CrSiO5,2.9625999999999992,-2.602840673125,0.0950047394999957,0
mp-14651,Zr2AgPdF11,0.5633,-3.1503339278726665,0.0,0
mp-570236,Pr(PRu)2,0.0,-1.0028043992380955,0.0,0
mp-733655,KH3(SO4)2,5.591200000000001,-1.9008387567132143,0.0,0
mp-16183,Tl2B2Se7,1.2811,-0.2308245971354168,0.0,0
mp-510765,Li3Cu2(WO4)4,0.0,-1.9733599048,0.0499777643999976,0
mp-698527,SbH3C2(O2F3)2,3.1772,-1.9587047633125,0.0870499007421887,0
mp-18568,Na2Ge2S5,2.5142,-1.0513923061458348,0.0,0
mp-735483,Na3LiMo2(H6O7)2,4.6221,-1.7563846697168746,0.0091011372309015,0
mp-559246,BaCrF6,0.0,-3.2846139646425003,0.0,0
mp-8948,CeAsPd,0.0,-1.1220380616666656,0.0,0
mp-558543,Ca(CO2)2,3.1204,-2.2653029217857137,0.0451009164285753,0
mp-5992,LaB2Ir2C,0.0,-0.5633177068055559,0.0,0
mp-867177,PrCdHg2,0.0,-0.41195171125,0.0,0
mp-862740,Sr2TlCd,0.0,-0.3871804800000001,0.0,0
mp-21020,Sr2UO4,0.0,-3.277840525,0.1432841921428576,0
mp-698063,Na2P2H2O7,5.205,-2.3826386474754213,0.0,0
mp-771955,Sr3LaBr9,2.9573,-2.1003888619230766,0.0150283190384605,0
mp-775265,Li2Mn3F8,3.0444,-2.990904148453847,0.0559806894230767,0
mp-771730,Li4MgNi3O8,0.0,-1.6216719018749997,0.0170336809374944,0
mp-560833,B3Pb6ClO10,2.816,-2.070316259538,0.0,0
mp-2618,DyAg2,0.0,-0.3254021788888893,0.0,0
mp-765783,VF5,3.1963,-2.816596235991668,0.0092466683333327,0
mp-11674,Al2Se3,1.8016,-0.8417903391562497,0.0,0
mp-762810,Li2Fe2Si2O7,3.0949,-2.5571874806730768,0.0916366715384571,0
mp-28837,K3RhCl6,1.7025,-1.7940092612060003,0.0,0
mp-571479,BaYbSn3,0.0,-0.6243413762500001,0.0,0
mp-679944,Li4Re6S11,1.5798,-1.0854581312946423,0.0120317130357152,0
mp-23223,TiI3,0.0,-0.8011616216666666,0.0051078293749999,0
mp-561473,CaTaAlO5,3.9264,-3.4984329970312498,0.001875260625006,0
mp-2510,ZrHg,0.0,-0.1720154575000005,0.0,0
mp-13413,ThCu5Sn,0.0,-0.232271722857142,0.0,0
mp-735512,CrH17N4Cl2O3,3.7042,-0.9984234972714814,0.0010926853703701,0
mp-976185,NaBeO3,0.0,-1.3437363187499998,0.4464347710000034,0
mp-557730,Dy(PO3)3,5.5908,-3.0333571951694145,0.0075220238461515,0
mp-1977,NdSn3,0.0,-0.4892820606249994,0.0,0
mp-558415,K3CuP2S7,2.2345,-1.1106016832406136,0.0,0
mp-565815,MnSiO3,2.6466,-2.8079814821419995,0.0031377045499993,0
mp-17493,Be3Cd4Si3SO12,0.817199999999999,-2.610895925611413,0.0,0
mp-569597,Np(FeSi)2,0.0,-0.4141785677499996,0.0,0
mp-773307,Co4NiO8,0.0,-1.1050250269230752,0.0827700788461598,0
mp-773317,LiFe5O8,1.031299999999999,-1.5242613785714292,0.4163866510714272,0
mp-765915,LiFe(SiO3)2,3.0559,-2.79084091225,0.0299849674999821,0
mp-753783,Li5InO4,2.6407000000000003,-2.0270049265000005,0.0493412825000003,0
mp-5666,Ho(MnGe)2,0.0,-0.4755133889999982,0.0,0
mp-29744,RbMnSe2,0.0,-0.6827643342968743,0.0244732853750004,0
mp-775624,Na5Li3V8O24,3.1045,-2.3978660676250008,0.0121068582500001,0
mp-780530,Na2MnPCO7,0.6287,-2.33146785335877,0.0,0
mp-30811,Ni4W,0.0,-0.1053177040000008,0.0,0
mp-980198,TmLuZn2,0.0,-0.3550597124999997,0.0,0
mp-600078,SiO2,5.6143,-3.2610525576851863,0.0236603498148149,0
mp-694999,Na3V2P2O10F,2.093,-2.679194759437804,0.0020893222222255,0
mp-27258,P3Au2,0.0,-0.113827994857143,0.0,0
mp-4150,Ca(MnSb)2,0.0,-0.1711494299999998,0.2032402201785705,0
mp-763985,Cr4OF11,0.7937000000000001,-2.8808080793337494,0.0347639120572873,0
mp-778572,Li2VFeP2(O4F)2,1.809899999999999,-2.738813548660655,0.0002437381249276,0
mp-18308,CaZn2(PO4)2,3.787199999999999,-2.719237031245421,0.0,0
mp-768988,Li4Bi2O5,2.7704,-1.8384769587499992,0.0876355831818198,0
mp-677061,Cs3MoC6(SN2)3,0.0,0.0593897062385532,0.6027760555263146,0
mp-753854,Rb2PH3SeO8,4.077500000000001,-1.9210513835032657,0.0,0
mp-4539,Ho(CuGe)2,0.0,-0.4866082329999991,0.0,0
mp-608402,Zr2InPd2,0.0,-0.4687902670000014,0.1313449755000002,0
mp-22035,KFe2S3,0.0,-1.0146730811979172,0.0,0
mp-649616,Pd(XeF8)2,1.4046,-1.0112029225810526,0.0,0
mp-10687,LiCdP,0.0,-0.1278429543650793,0.2257600686111112,0
mp-1003437,KMn2O4,0.92,-1.960081737952857,0.0168037373214362,0
mp-20248,SrYb2O4,0.0,-2.8852792157142857,0.1453757464285701,0
mp-865125,MgGaRh2,0.0,-0.6916175050000009,0.0,0
mp-859782,Co2SbO6,0.0,-1.3977357030555555,0.0914837220833328,0
mp-698218,LaH13C3S3O11,4.2977,-1.423712683241855,0.106023592989632,0
mp-510011,La3CuGeSe7,1.1836,-1.4130837116796882,0.0,0
mp-761640,V2Cu(PO4)3,0.019299999999999,-2.4645153813492064,0.0114345205555563,0
mp-771752,Na3CrBPO7,2.8333,-2.5675686460393767,0.0138458262225285,0
mp-863686,Pm2HgGe,0.0,-0.5752912075000003,0.0,0
mp-705582,Mg9V10O24,0.9199,-2.7007325520930228,0.0813711486046439,0
mp-15846,Lu5SbPd2,0.0,-0.7912959006250002,0.0,0
mp-634657,NaHS,3.157699999999999,-0.9525736458941664,0.0,0
mp-1017507,TmAu,0.0,-0.9047215950000008,0.0,0
mp-767087,Li4Cr2Co3Sb3O16,0.54,-1.968586151964285,0.0672297352083299,0
mp-558362,CaMgGeO4,3.623399999999999,-2.88369433,0.0,0
mp-20373,Co3B,0.0,-0.1784571997916666,0.0217096424999994,0
mp-11007,CaPSe3,2.1236,-0.8857148487752973,0.0,0
mp-1006246,CeSm3,0.0,0.0820371131249997,0.0820371131249997,0
mp-21467,TiCo2Sn,0.0,-0.3671488954166664,0.0,0
mp-542396,HoMn2O5,1.0706,-2.6658485235212512,0.0,0
mp-1029770,BaCrN2,0.0,-0.9981452118149994,0.0,0
mp-760400,Na5BiO5,0.8502000000000001,-1.689789843295454,0.0,0
mp-866229,Ca2SnHg,0.1348,-0.6530452412500001,0.0,0
mp-42089,K4Gd2C3O9F4,2.7175,-2.84829371061409,0.0,0
mp-18708,Fe3P,0.0,-0.3604994882738088,0.0,0
mp-29239,LuB2Ru,0.0,-0.6657982495833332,0.0,0
mp-572283,SiO2,4.9688,-3.124831461666666,0.1598814458333333,0
mp-625711,MoH4O5,0.8767,-1.439523962573,0.2043617246249987,0
mp-558239,Rb4U5O17,1.517,-3.3597538828365385,0.005692308749996,0
mp-7088,Ta2C,0.0,-0.6007361691666661,0.0,0
mp-28842,Si3PH9,4.2301,-0.1173189110134798,0.0,0
mp-29788,KTb3F12,0.0,-3.7468246321425,0.0351002553124999,0
mp-31179,Ho(Al2Fe)4,0.0,-0.4271230865384613,0.0,0
mp-554837,Ba3LiIr2O9,0.0,-2.1966352430833345,0.0,0
mp-861892,DyInRh2,0.0,-0.7639566516666676,0.0,0
mp-541496,MnVH4O2F5,2.1658,-2.3225404426069223,0.0013849446153839,0
mp-774455,Na4P3H3O11,5.0015,-2.381392352447416,0.00827838684524,0
mp-28229,Bi4Te3,0.0,-0.1632133985714285,0.0023216142857136,0
mp-756758,CuH4(IO4)2,0.5463,-1.0481778592986666,0.0088772193333328,0
mp-7123,KSb(PSe3)2,1.797699999999999,-0.3648905117752982,0.0,0
mp-771607,Li7Cr5O12,0.0,-2.3136330485416665,0.0166048266666658,0
mp-775643,Na2MnPCO7,0.558499999999999,-2.3205334858587694,0.0109343674999999,0
mp-569267,Ca2CdSb2,0.321099999999999,-0.7877992835000001,0.0,0
mp-1029374,BaTiN2,0.0,-1.0143698303566664,0.3396581852083322,0
mp-775651,Li2Mn3CoO8,0.0,-1.9509773659200005,0.0125458847257613,0
mp-1035249,Mg14CuSiO16,0.0,-2.8158149478125,0.1909847186718752,0