mpid,formula,BG,FE,e_hull,fidelity
mp-560196,Al(HO)3,5.2031,-2.1063580692299997,0.0302564432142862,0
mp-21350,Pr2MgGe2,0.0,-0.7477916590000007,0.0,0
mp-714929,CrO2,0.3367,-1.863875219166668,0.1913637383333348,0
mp-27487,Li2ThN2,2.224399999999999,-1.2175126996186665,0.0,0
mp-775237,Li5Cr2Co3O10,0.0,-1.9660503306249992,0.0675619315000002,0
mp-21061,GdSbPd,0.0,-1.0793920149999998,0.0,0
mp-557403,LiFe2F6,1.7058,-2.8714328591266667,0.0,0
mp-561089,Ba3LaIr2O9,0.0,-2.502211808083333,0.0,0
mp-8675,HgPd,0.0,-0.0933198824999999,0.0752012374999999,0
mp-5693,NaCrS2,0.9843,-1.2738128932812502,0.0015656174999998,0
mp-764789,LiMn2OF3,1.0545,-2.664432419177142,0.0962324924999995,0
mp-780868,Fe4O7F,0.0,-1.636560668328335,0.1124635229687402,0
mp-754824,SrO,2.5643,-3.041541355625,0.0511603899999997,0
mp-771632,Mn5Cr2O12,0.229,-1.909784302621052,0.0998530750329074,0
mp-554310,TlBiS2,0.4949,-0.7462201120312502,0.0,0
mp-30825,PaRh3,0.0,-0.8825999175000003,0.0,0
mp-1019797,K5B(SO4)4,5.2949,-2.3532496460737176,0.0,0
mp-12920,CePIr,0.0,-1.206740817698413,0.0,0
mp-849530,Li2MnVP2(HO5)2,1.0425,-2.434967846493915,0.01846300458332,0
mp-567572,GdCBr,0.0,-1.0895895808333336,0.0,0
mp-9166,MgCN2,3.759,-0.8065957230649996,0.0,0
mp-1027144,Te2Mo3W(SeS2)2,0.0,-0.8075098702864582,0.0700647833333318,0
mp-698633,K3Sc(HO)6,2.0949,-1.3514862162012498,0.5980896451953139,0
mp-561800,KCrO2,2.8989000000000003,-2.122730018125,0.0,0
mp-568398,CaBiAu,0.0,-0.7170958483333335,0.0,0
mp-10895,Mn2AlV,0.0,-0.312208955,0.0,0
mp-22350,Nd3SnN,0.0,1.1138262580239997,2.142442987999996,0
mp-25787,V2O3,0.0,-2.5306037839999993,0.0,0
mp-763818,Li5MnO3F,0.365699999999999,-2.204651201590001,0.0769480251666658,0
mp-973480,Nd(BRh)4,0.0,-0.5469815654629634,0.0031229981746037,0
mp-112,Y,0.0,0.0,0.0,0
mp-777021,Mn5FeO12,0.0,-1.6985379608222233,0.0722369085763876,0
mp-30728,HoIn,0.0,-0.4544029924999995,0.0,0
mp-754534,Li2CeO3,2.3497,-3.0120024139583337,0.0,0
mp-752514,BaSrI4,3.636199999999999,-1.729995015,0.0266181031249996,0
mp-541026,CaMg3Si3O10,3.4088,-3.250667454705882,0.0588125476470606,0
mp-1018160,PmN,0.0,-1.6261511949400005,0.0,0
mp-628781,GeTe,0.0,0.0195727706249999,0.1105760081249998,0
mp-674017,Nb17Ir3Se40,0.0,-0.7459676662291665,0.0169526006250002,0
mp-1020587,SrMg3SiN4,2.413299999999999,-1.1543048171688892,0.0,0
mp-505824,Cs2PdC2,1.751399999999999,0.0332536649999994,0.0561358829999996,0
mp-22465,Mn2CoSn,0.0,0.1246412012500011,0.1768143043124999,0
mp-775499,Na2MnPCO7,0.632799999999999,-2.320265771067103,0.0112020822916667,0
mp-778152,Sc2Pt2O7,1.8009000000000002,-2.3698101007954544,0.0,0
mp-9978,ErSe2,0.0,-1.5271180440625003,0.0392976039843739,0
mp-975386,RbDyO3,0.0,-2.309524998083334,0.2428791894999991,0
mp-763422,Li2MnF4,4.0357,-3.0582633479599983,0.0396673414285722,0
mp-28424,K4P3,0.0,-0.3796976484693881,0.0,0
mp-579909,C,0.0,0.9428191849999994,0.9428191849999994,0
mp-772838,Er(ReO4)3,3.8063,-2.4366758559375,0.0,0
mp-18735,Ba2Co(BO2)6,2.1832,-2.884254507857144,0.0148290245635216,0
mp-29062,ThZr2F12,5.4973,-4.199611939285334,0.0,0
mp-6088,LaCuSO,1.6691,-2.401457777578125,0.0,0
mp-30219,KGaCl4,4.3612,-1.8785124363400003,0.0,0
mp-559335,ZnAg2C4(SN)4,3.000299999999999,-0.1665970867180002,0.1204262068177142,0
mp-761702,LiCoPO4,2.4138,-2.353149759727891,0.0812020458928595,0
mp-19750,BaGd2PtO5,2.191799999999999,-3.0223212906944443,0.0183689633796362,0
mp-773901,KZnP2O7,0.0,-2.373776791130953,0.0865407211363615,0
mp-29689,Nb3TeI7,0.5113000000000001,-0.5420829204545451,0.0,0
mp-1005829,Sm2Mn12P7,0.0,-0.6781288896031719,0.0,0
mp-29139,NaAuSe2,0.9065999999999992,-0.5035764186718752,0.0,0
mp-775967,Mn3NbCr2(PO4)6,0.0,-2.5512713383736507,0.0941870257638779,0
mp-22693,Te2W,0.0,-0.1056708341666675,0.0,0
mp-1016152,NaMnO2,1.6496,-1.96023846399,0.0732716756250022,0
mp-976258,EuPtO3,0.0,-1.7552390917500005,0.2428015800000018,0
mp-554164,KLiZnP2O7,4.2904,-2.630254881036707,0.0,0
mp-977165,Li3Co,0.0,0.3662776075000002,0.3662776075000002,0
mp-763854,Mn3OF6,0.477599999999999,-2.6340204361270003,0.0944236562916707,0
mp-764595,Na2V2O5,1.2664,-2.3066561204166667,0.0923699228611028,0
mp-554799,VF4,2.2417,-3.020603423952,0.0,0
mp-768827,BaSrI4,3.170999999999999,-1.662254108333333,0.0943590097916668,0
mp-18661,KY(PO3)4,5.328399999999999,-2.9323069052711648,0.0115948130555496,0
mp-1018851,OsN2,0.0,0.6440619400800003,0.6440619400800003,0
mp-604998,CdSi3PH27C9Br2,3.6784,-0.3676987012984935,0.0179043285029063,0
mp-777023,Ti3CrSn2(PO4)6,0.025699999999999,-2.8023791096825392,0.003343050659712,0
mp-517,TaSi2,0.0,-0.4780521977777773,6.633333349270742e-07,0
mp-775623,LiTiMnO4,0.5552,-2.6697519321609517,0.0924860147470703,0
mp-1027729,Mo3W(Se3S)2,0.9023,-0.807522811640626,0.01093001,0
mp-21214,PbSe,0.0,-0.3238890142968751,0.23928919,0
mp-623984,PbSO4,3.8567,-1.9933419373437504,0.0447743116666679,0
mp-773300,Mn5FeO12,0.0,-1.713332497766667,0.0574423716319447,0
mp-978840,SrLi2(SiN2)2,3.436,-1.2346310116133326,0.0,0
mp-558407,In2Si(AgS3)2,0.9846999999999992,-0.8586151044886375,0.0058991554545455,0
mp-34421,CdBi3O7,0.0,-1.2572329207954545,0.2094751895454516,0
mp-21897,YbIn4Pt,0.0,-0.5097542683333334,0.0,0
mp-556179,Pr3Si2S8Cl,2.7393,-1.940782668268572,0.0,0
mp-555474,Sr(ClO2)2,2.3952,-1.4297075237885717,0.1628997240476195,0
mp-19415,Er(FeO2)2,0.0,-2.5339332742857144,0.0794304409821524,0
mp-17959,Nd2SiTeO4,1.7858999999999992,-3.227542408125,0.006892364375,0
mp-15608,Ba(MnAs)2,0.0,-0.5530706100000004,0.0,0
mp-774802,NbCu(PO4)2,0.300999999999999,-2.492002002599206,0.0690223673957683,0
mp-17738,Sr2Cu(SeO3)3,0.4611,-1.9276987681354176,0.010095931000003,0
mp-631498,BaMgOs2,0.0,1.32301877,1.3537744215625,0
mp-35712,Mg(GaO2)2,2.4173,-2.5447952440476187,0.0041773973809533,0
mp-5503,ErTaO4,4.0531,-3.7584312841666665,0.003976592499999,0
mp-3731,LiNbO3,3.3358,-2.91400812175,0.0,0
mp-1005689,Sm6GaCo2,0.0,-0.219523312777778,0.0,0
mp-675231,Y2Zr9O22,0.0,-3.6669448050757567,0.0795063785984862,0
mp-21471,LiFeAs,0.0,-0.4474036850000005,0.0,0
mp-574663,CdI2,2.4303,-0.5856110766666666,0.0065259218888891,0
mp-24130,CaP2(HO)4,5.5901,-1.8159262132427711,0.0125533935042412,0
mp-28204,CsH7O4,4.588999999999999,-1.4785714514866666,0.0,0
mp-3686,YbBRh3,0.0,-0.6165128693333329,0.0,0
mp-569471,UB2C,0.0,-0.4028059052083339,0.0304013264583353,0
mp-989519,Cs2RbNF6,2.9602,-1.883777408952,0.0,0
mp-560145,BaBi4(ClO3)2,0.0,-1.833274913386154,0.1280286310192444,0
mp-706679,NaH2SO4,0.9236,-1.7262386687565618,0.1667767658220151,0
mp-16236,KAgSe,0.4838,-0.6692557428645829,0.0,0
mp-861988,PrAgHg2,0.0,-0.3636488449999997,0.0,0
mp-667397,PRu4C15O14F3,2.0336,-1.0537555502477112,0.2662577259819816,0
mp-707441,SnH12Pt(N2Cl3)2,1.834,-0.8929927582299992,0.0062199172966668,0
mp-561947,CsHgF3,0.7228,-2.275749733714,0.0,0
mp-1028487,W2SeS3,0.6294000000000001,-1.0764418492968748,0.0112428625000013,0
mp-22513,Dy3TlC,0.0,1.6121094774999996,1.917483589999998,0
mp-985277,Ce2USe5,0.0,-1.5682028556835936,0.0,0
mp-1008925,LiFeP,0.0,-0.3490043526984128,0.3086828800000019,0
mp-761128,BaNb5O8,0.0,-2.807446427857144,0.0,0
mp-768974,BaY3Cl11,4.2205,-2.680914937224,0.0932972553333364,0
mp-1025905,Mo2WSe6,0.9875,-0.6323201901736107,0.0008826261111103,0
mp-14549,CuO,0.0,-0.7715464456249999,0.1818441499999963,0
mp-570100,Tm(NiP)2,0.0,-1.0025359172380952,0.0,0
mp-767327,Li4Mn3Sn(PO4)4,3.2141,-2.576163858223605,0.0329879794345426,0
mp-546546,SiO2,5.5638,-3.254387808611112,0.0303250988888859,0
mp-573751,AlTeCl7,3.2790999999999992,-1.484044619757778,0.0,0
mp-626607,V6H4O13,0.6082999999999991,-2.1315552713360884,0.0817266805434746,0
mp-2621,ErAg,0.0,-0.3397899374999995,0.0,0
mp-31166,DyTlS2,1.5297,-1.8228377999479173,0.0,0
mp-767852,Li12Fe3NiP4(CO7)4,3.136099999999999,-2.3504629141804028,0.0369438130769168,0
mp-696655,Sb2P3(HO3)3,3.907599999999999,-1.9154777136115129,0.0492532097163858,0
mp-685819,Yb2TiO5,0.0,-2.913261010989584,0.3436260101562496,0
mp-570489,TaPNCl7,3.1666,-1.4589458973295235,0.0297355811333375,0
mp-3709,Tb(CoGe)2,0.0,-0.6128989046666667,0.0,0
mp-567314,ErNi,0.0,-0.4846472650000005,0.0,0
mp-980200,Zn3Rh,0.0,-0.3116349975000001,0.0172084087499997,0
mp-760502,LiH2ClO,5.3072,-1.6733450628500002,0.004067213999999,0
mp-13619,ScSi7Rh3,0.0,-0.6481796881818191,0.0,0
mp-558193,K2Cu3(AsO3)4,0.1322,-1.587696076904762,0.0,0
mp-22990,CsICl2,2.2034,-1.4138120341300002,0.0,0
mp-8945,YSnF7,4.7535,-3.5738207350922218,0.0037305669444434,0
mp-5388,Zn(SbO2)2,2.7208,-1.7623052489285709,0.0130335400000012,0
mp-762391,Li2(NiO2)3,0.0,-1.1570300443181822,0.0323823331818236,0
mp-555867,BaNb2Bi2O9,2.2153,-2.662980744017857,0.0048698287499968,0
mp-769096,MnP4,0.0,-0.3102131301428576,0.0546232556666677,0
mp-770534,Li2Mn3O7,1.396399999999999,-2.016186754302499,0.0128939167708388,0
mp-27852,Hg3(TeCl)2,1.912499999999999,-0.5715900609314285,0.0,0
mp-978917,Sn3B,0.0,0.9391789495833334,0.9391789495833334,0
mp-4157,Sr(NO3)2,3.7142,-1.669545902195556,0.0,0
mp-767518,Na2ScPCO7,4.351,-2.7586964907787705,0.0,0
mp-776639,Li4Ti3Cr3(FeO8)2,0.7337,-2.619327219285713,0.0341190898611092,0
mp-30870,SmZn12,0.0,-0.1815602509615382,0.0003441821153824,0
mp-768800,Ho2(SO4)3,5.8704,-2.8026334060110303,0.0018426179411781,0
mp-30684,Zr3Ga2,0.0,-0.5414806090000006,0.0,0
mp-17697,KSmF4,7.1568,-4.013934107876667,0.0,0
mp-540309,Li3Mo2(PO4)3,2.727,-2.586849834964286,0.0307908982500002,0
mp-764533,Li2Fe7(OF2)4,1.5197,-2.3162045921199987,0.0989892371428578,0
mp-5076,SrZrO3,3.5667,-3.666975833750002,0.0125870099999989,0
mp-7770,Sr(ZnAs)2,0.2566,-0.665230752,0.0,0
mp-12631,SrTcO3,0.0,-2.46421528475,0.0067744609999982,0
mp-634930,YbH3,0.0,-0.2410176389649998,0.2896420340950003,0
mp-31436,TbGe2Pd,0.0,-0.7720636802083334,0.0,0
mp-566368,K2Te(WO4)3,2.8047,-2.152189846805556,0.0,0
mp-29306,B5(H2N)2,2.8741,-0.1661617038703033,0.4962827006666649,0
mp-780676,Na2Cr4O13,1.8189,-1.7069981386184212,0.0510428924671044,0
mp-559476,Dy(IO3)3,3.5241,-1.493507795032052,0.0116683926923073,0
mp-557194,SiO2,0.0,-2.02561255138889,1.2591003561111105,0
mp-1479,BP,1.2435,-0.4119831823809523,0.0,0
mp-559627,LiP3PbO9,4.7126,-2.5751171486096944,0.0068359153273798,0
mp-605771,TlIn(MoO4)2,3.6347,-1.9745048043749995,0.0,0
mp-24461,H12OsN5Cl3O,2.3888,-0.7858791646077272,0.0203604591040011,0
mp-772922,Al3P3H9C2NO13,5.1942,-2.0661692923547004,0.0355972687672787,0
mp-973374,LiMg2,0.0,-0.0341074883333334,0.0191475683333317,0
mp-556319,SiO2,5.198,-3.1624430575000004,0.1222698499999985,0
mp-554163,Cu5Se2(ClO4)2,0.0,-1.0345114537475002,0.0,0
mp-11469,PrHg,0.0,-0.4733752899999999,0.0,0
mp-762879,Li2MnV2O6,0.8170000000000001,-2.3397275248600007,0.1041464638636364,0
mp-768884,Li4B2O5,4.971,-2.593580384962121,0.0425731112878784,0
mp-775241,Li2MnCuO4,0.0,-1.8090049769950003,0.0686521968750009,0
mp-752535,TaIn3O7,1.075699999999999,-2.3598133394318186,0.1066251963636348,0
mp-24195,MgP2(H8O5)2,5.6498,-1.5032047704865683,0.0123888382257364,0
mp-30468,ThBi,0.0,-0.5292735825000001,0.0129314499999999,0
mp-772585,Fe5Sn(PO4)6,1.255499999999999,-2.4141821942658748,0.0255797279861198,0
mp-767890,Li3CrPCO7,2.6531,-2.3925488276419404,0.0807306409855748,0
mp-15359,GdAl3(BO3)4,2.850899999999999,-3.254259079583334,2.4422166678306212e-05,0
mp-6571,BaCuAs2O7,0.4786,-1.9814089794318184,0.0,0
mp-769816,Ca3W2O9,3.4497,-2.7684832375892867,0.0859157125000003,0
mp-22660,InAgO2,0.211899999999999,-1.4161390431249998,0.0005986849999999,0
mp-10133,Sc3BPb,0.0,-0.5163661133333335,0.0,0
mp-9778,K2AgP,1.2315,-0.3479316870238094,0.0,0
mp-1028679,Te2W2SeS,0.0,-0.4345090662760427,0.0741468004166669,0
mp-555823,SiO2,1.2338,-2.4985368500000007,0.7861760574999987,0
mp-766390,Li5BiS4,1.8897,-1.3066925808750005,0.0513158827499982,0
mp-768303,DyNbO4,3.9158,-3.5070039427777773,0.0820080075000007,0
mp-25020,MnNi(BiO3)2,0.795199999999999,-1.5654128978459998,0.0153350618020793,0
mp-565625,Li3AlMo2(AsO7)2,2.8901,-2.2241643489772724,0.0147421841761357,0
mp-12266,CaCuF4,0.7140999999999991,-3.04643678996,0.0,0
mp-759717,Li2Cu3F8,0.0,-2.1909946990015383,0.0442470998076922,0
mp-944,AlB2,0.0,-0.0434671911111112,0.0122970596000007,0
mp-5990,CsLi(B3O5)2,5.0778,-2.858159337083332,0.0002478901388975,0
mp-505603,Pb5SO8,2.4636,-1.7419096468973214,0.0,0
mp-570155,PtN2,0.591800000000001,0.2388932350800002,0.2388932350800017,0
mp-29541,GaTeI7,1.8586,-0.307085496111111,0.0,0
mp-30184,H4C7O,2.0472,-0.2197082058941669,0.2065879546874987,0
mp-30493,ZnCdPt2,0.0,-0.4530931924999999,0.0,0
mp-27291,PaCl4,0.0158,-2.322092007608,0.0,0
mp-15649,As2Ir,0.8136999999999991,-0.4719529683333323,0.0,0
mp-19000,VPO5,1.8518,-2.5009188413350336,0.0150590221428945,0
mp-975134,KRhO3,0.0,-1.2101929107499998,0.0501989309999997,0
mp-860798,NaAl11O17,4.3719,-3.3683947946982764,0.0077343448275843,0
mp-778408,HgBiO3,0.0,-1.1082261127500004,0.0345750935000008,0
mp-558165,SbC(Cl2O)2,2.1067,-1.3344429675675,0.0901604767187489,0
mp-775091,Li5V5(NiO6)2,1.354,-2.1947249447916666,0.1133539383680837,0
mp-765202,MnCr3Te2(PO4)6,0.0,-2.3507250252647616,0.0882274368055524,0
mp-778720,Cr4OF11,0.7559,-2.88045300808375,0.0351189833072869,0
mp-12378,LaSnRh,0.0,-0.8884967383333335,0.0,0
mp-865255,LuNbRu2,0.0,-0.4298337849999996,0.0,0
mp-974416,Re3W,0.0,0.126791986249998,0.126791986249998,0
mp-677627,Li3Nd3(TeO6)2,3.131399999999999,-2.73992370525,0.0,0
mp-761572,Li2TiCoO4,0.181499999999999,-2.5202701489583337,0.0589274562500001,0
mp-976948,Ni3H,0.0,0.4631790765949999,0.5185225437500005,0
mp-772798,BaLa2O4,3.356999999999999,-3.540013434285714,0.0535308207142843,0
mp-608517,EuSnPt,0.0,-0.9285321391666675,0.0,0
mp-23259,LiBr,4.9234,-1.54784428,0.0254924700000001,0
mp-850529,SrCaI4,3.383499999999999,-1.5921108745833332,0.0844354416666672,0
mp-556639,DyNbO4,3.4638,-3.5890119502777784,0.0,0
mp-20875,TbInRh,0.0,-0.7574073311111115,0.0,0
mp-974658,Rb3Ac,0.0,0.4687401631250001,0.4687401631250001,0
mp-767463,LiVSiO4,2.641599999999999,-2.7760614623214286,0.076112354196427,0
mp-554051,H6CNF,6.0427,-0.8161965097544441,0.0731563356944446,0
mp-1550,AlP,1.6302,-0.6125680790476187,0.0,0
mp-600663,CeGaNi,0.0,-0.5579853641666664,0.0509697169444463,0
mp-769624,Li3Co3CuO8,0.0,-1.4520948239999996,0.1416847081666779,0
mp-573888,Ba2ScCl7,3.6349,-2.771438396532001,0.0257577862499998,0
mp-3180,Ta2Te2O9,3.1919,-2.515807806826923,0.0,0
mp-29591,Sb3ClO4,2.6768,-1.7189481322824998,0.0022603331250019,0
mp-3292,Tb(CoSi)2,0.0,-0.8222751826666667,0.0,0
mp-542630,P4S9,2.6953,-0.6317712820341119,0.0,0
mp-850393,Fe3(O2F)2,0.0,-1.857242022486666,0.1871486990972224,0
mp-777911,Fe6O5F7,1.4273,-2.2679103083099994,0.0889652894444488,0
mp-674783,Tm2MnS4,0.951299999999999,-1.9238016873214283,0.1174017151785724,0
mp-1019788,K4Al3(SiO4)3,0.0,-3.048405665000001,0.0133501862518921,0
mp-18852,Na2MoO4,4.3938999999999995,-2.21836471,0.0,0
mp-758944,LiBi(PO3)4,4.4348,-2.5124308849933863,0.070817559027791,0
mp-770491,Li3AlNiO4,2.4289,-2.2052520241666658,0.0746420595321621,0
mp-1006132,Hf3Pb,0.0,-0.0078372575000003,0.0,0
mp-560964,K3Sm(AsS4)2,1.6795,-1.290508354642858,0.0,0
mp-757836,BeH2SeO4,4.753,-1.7710018629167186,0.0,0
mp-974774,Rb3Tc,0.0,1.2365521825,1.2365521825,0
mp-6667,CaBPO5,5.317,-3.101187759293154,0.0055566361011951,0
mp-11860,HoMnGa,0.0,-0.2013898416666669,0.2161266016666676,0
mp-770620,Li4VNi3O8,0.0,-1.7499639018750006,0.0806718327678517,0
mp-974962,Rb3Ho,0.0,0.6300975037500001,0.6300975037500001,0
mp-28950,P4N6O,4.3472,-0.8086249634464505,0.0,0
mp-778430,K8Al2O7,2.2214,-2.0691352134558825,0.0304368694117629,0
mp-20759,SrMnSn,0.0,-0.23454502,0.2173110333333339,0
mp-647549,CSe(ClF)3,2.8954,-1.2979489191492188,0.1153319798876948,0
mp-22052,Zn(InS2)2,1.1222,-0.99610291875,0.0112156583928575,0
mp-704952,Cs4U3Mo3O20,2.0623,-2.8168921175,0.0,0
mp-770193,Li2CrFeO4,1.6617,-2.2358563618750003,0.0024561456250085,0
mp-640024,HfInNi2,0.0,-0.4034448887500002,0.0241218290937474,0
mp-771100,Li3Ti(NiO2)4,0.0,-1.7930600166666668,0.0188376685044584,0
mp-581693,BiS,0.0,-0.3902500503645842,0.2274098020833319,0
mp-556812,SiO2,4.5145,-2.9963704452777793,0.2883424622222215,0
mp-978554,SmRe3,0.0,0.461708663125,0.461708663125,0
mp-12779,CdTe,0.6198,-0.4585080275000002,0.0040147249999997,0
mp-557904,SbSe2S(NF3)2,1.5549,-1.556435291304167,0.074746511563922,0
mp-11957,CaSn2Ir,0.0,-0.5684318524999998,0.0,0
mp-764944,LiMn(CO3)2,1.6734,-1.9487225658460008,0.043498672374997,0
mp-851009,Li5Fe7O3F13,2.401399999999999,-2.62045452443643,0.0466559023214268,0
mp-1342,BaO,2.0906,-2.833907420625,0.0,0
mp-557529,Na5P3O10,4.5621,-2.634433402599205,0.0044489441666666,0
mp-763924,Li4Fe3CuO8,0.051699999999999,-1.896804609375,0.0248958584374996,0
mp-972082,Tl3Si,0.0,0.3507507437499999,0.3507507437499999,0
mp-531006,CsB9O13,3.1242,-2.651420358858696,0.1175970396569301,0
mp-568156,Y4CdRu,0.0,-0.3294055325000009,0.0,0
mp-565623,NaLaMgWO6,3.489,-2.90296220625,0.0,0
mp-28373,BaP3Pt2,0.127399999999999,-0.9054874186309524,0.0,0
mp-773370,Li2Si2NiO6,3.5469,-2.5761338543181824,0.0757886770454598,0
mp-774364,LiCrPO4,2.512599999999999,-2.515534716156464,0.0688382284523818,0
mp-23099,Cs2Pd(IBr2)2,0.6891,-0.960773612222222,0.002189673333333,0
mp-568259,TaSi2PH18C6(NCl3)2,3.1119,-0.6570770865993114,0.0849784682465273,0
mp-28179,NaTaCl6,2.902,-1.917182429945,0.0,0
mp-27171,Hg2P2S7,1.7973,-0.5984634740570892,0.0,0
mp-560023,NiSnF6,4.0928,-2.5817896915175003,0.0,0
mp-977569,NaH6CN2ClO2,5.0077,-1.12781282074923,0.0056615351923063,0
mp-7557,Nb5SiSn2,0.0,-0.3291991318750007,0.0,0
mp-562135,KVPbO4,3.371099999999999,-2.2041564767857147,0.0,0
mp-771807,Li2Mn3NbO8,0.7198000000000001,-2.371994409134286,0.0151032770759105,0
mp-541931,ZnCdC4(SN)4,3.413599999999999,-0.2456415875550003,0.1411757055189779,0
mp-779220,Li2Cr3P9O28,2.9882999999999993,-2.595577643520408,0.0608554256150863,0
mp-27144,TlPO3,3.4606,-2.2749188476190483,0.0,0
mp-782,Te2Pd,0.0,-0.335384370000001,0.0,0
mp-759878,RbMgH12(ClO2)3,4.8651,-1.590313291987826,0.0,0
mp-723175,K4CuP6(H4O11)2,0.5959000000000001,-2.2215038660983266,0.0241195674847531,0
mp-558129,KNaSi2O5,4.4523,-2.9252370831944443,0.0029997482638943,0
mp-1028731,TeW2Se3,0.033199999999999,-0.4165212759635419,0.0295613881250007,0
mp-7041,CaHgO2,2.125,-2.100867630625,0.0,0
mp-1029922,RbRuN2,0.0,-0.0521691130650001,0.2345604772916676,0
mp-23626,RbLi2(IO3)3,3.8184,-1.410102872083333,0.0,0
mp-27809,Ba(GeP)2,0.5134000000000001,-0.5069724857380955,0.0,0
mp-569565,La3(CrN3)2,0.0,-1.2453904812981824,0.0,0
mp-977162,NaTl2Pb,0.0,-0.08328475875,0.0050853284374996,0
mp-763101,LiMnF3,3.5423,-2.982999555406,0.0817513304999995,0
mp-778710,LiMnP2(HO4)2,1.2826,-2.27345281727789,0.0730937014285677,0
mp-769543,Li3Mn2(SiO4)2,0.0,-2.6117401661279995,0.0831920159166514,0
mp-570630,Tb2In16Pt7,0.0,-0.5394088522666663,0.0035524787999996,0
mp-705497,Ga2P2H9NO11,3.1938,-1.7866264296960184,0.0734254321857141,0
mp-30612,Er7Rh3,0.0,-0.6494897264999999,0.0,0
mp-864920,MgZrAu2,0.0,-0.6036964874999997,0.0,0
mp-606382,Cr(OF)2,2.6878,-1.8766002409760003,0.1623289293333307,0
mp-626337,Sr(H8O5)2,3.5641,-1.4569417394599993,0.0436698079629636,0
mp-643066,ZnH2SO5,4.2653,-1.813354084728056,0.0,0
mp-752460,LiAgF4,0.7818,-1.9907640541266671,0.0118338583333312,0
mp-569196,YNi3,0.0,-0.4001548964583333,0.0,0
mp-17908,Ba2TiS4,2.096799999999999,-2.19383096934524,0.0,0
mp-510228,V2Te2O9,2.2207,-1.9368674829807688,0.0012618787820759,0
mp-777089,LiV6O7F5,1.002599999999999,-2.7154822905105256,0.0861023960233886,0
mp-1009640,PrN,0.0,-0.7143360061899999,0.7593929150000003,0
mp-775235,Li2Mn2SbO6,0.0,-2.0523424831290917,0.0868841844318106,0
mp-773936,Li4Ti3V3Cr2O16,0.8841999999999991,-2.784167703571429,0.0284415158928954,0
mp-767103,LiVSiO4,2.630699999999999,-2.782293494642857,0.0698803218749981,0
mp-2149,NpIr2,0.0,-0.2379418962499985,0.0,0
mp-768883,Sn2(SO4)3,0.0,-1.8925448554227944,0.0822261814705775,0
mp-18302,Mn2MoP12,0.1127,-0.3569109431428567,0.0,0
mp-972528,SmYAg2,0.0,-0.312815991249999,0.0,0
mp-1013559,Sr3As2,0.0,-0.7231706899999999,0.3701654160833341,0
mp-551873,Ca4Bi2O,0.8137000000000001,-1.5967062858928576,0.0,0
mp-554361,TcXeO4F5,2.0717,-1.166962637359091,0.2401709965909102,0
mp-27576,Sc2GeO5,4.1263,-3.3205747057812496,0.0,0
mp-30021,K5Sb4,0.0,-0.4342383888888889,0.0,0