mpid,formula,BG,FE,e_hull,fidelity
mp-557581,ZnH2(CO2)2,4.5082,-1.3641822261748149,0.1186785218518542,0
mp-851014,Li5Mn6(BO3)6,0.0,-2.4905928413788576,0.0320719194047427,0
mp-542810,AsS,1.9426,-0.4661769620312501,0.0,0
mp-25519,FeO2,0.0,-1.324429660833334,0.247374612291666,0
mp-541628,CsTeF5,4.6238,-2.77390552835,0.0,0
mp-767723,LiV2F9,1.8537,-3.0301885250591676,0.0444568924999986,0
mp-8842,CaSiPd,0.0,-0.7788633841666671,0.0,0
mp-504760,Li10Pb3,0.0,-0.2213073457692309,0.0958576434615383,0
mp-9765,Nd2Pt2O7,1.0872,-2.3636320857954547,0.0,0
mp-560742,Ba2TeP2O9,3.4201,-2.87093136517432,0.0,0
mp-775285,Li2CoNi3O8,0.0796,-1.2011574224999992,0.0077087705357161,0
mp-766984,Li2Fe(Si2O5)3,0.3324,-2.8905024274479163,0.084888498411459,0
mp-605808,AgH8C4S3(OF)3,3.4096,-0.9056976412939776,0.2600248429991874,0
mp-644229,Sr(AlH)2,0.0,-0.3558199314479999,0.0280292449999999,0
mp-7897,K3P,0.2126,-0.2131414120238095,0.0083488829166666,0
mp-866207,LuCdPd2,0.0,-0.7707449612500001,0.0,0
mp-850113,Fe7(Ni3O8)2,0.9306999999999992,-1.4108054496551732,0.1132385247413694,0
mp-780387,YbHfO3,4.5175,-3.99017630275,0.0,0
mp-619802,LiNbWO6,2.4684,-2.567952864166668,0.0215751294444448,0
mp-1019563,Ca2SiO4,3.3021,-3.255146144285714,0.2321862707142869,0
mp-4035,RbReO4,4.1189,-2.3750989566666667,0.0,0
mp-23007,SbSI,0.6814,-0.2690262963541669,0.2682116758333333,0
mp-769965,Li2Cr3CuO8,0.22,-1.9429499525,0.0863313898809456,0
mp-779472,Li5Cu(PO4)2,1.9918999999999991,-2.5365273444494045,0.0314383051562501,0
mp-603940,FeH12C4NCl4,1.4414,-0.5314406679027273,0.0851371102556814,0
mp-771594,Na3VPCO7,2.1087,-2.357816028411172,0.0392329465504781,0
mp-863265,K2Mn(PSe3)2,0.7643000000000001,-0.5660458266139069,0.0025706246590866,0
mp-11523,Ni3Sn,0.0,-0.1322744287499997,0.0528555750000032,0
mp-568895,BaSbAu,0.0,-0.9254832549999996,0.0,0
mp-162,Yb,0.0,0.0,0.0,0
mp-763892,Li3Co2(GeO4)2,0.0676,-1.983951714,0.0596152007500263,0
mp-756580,SrLu2O4,3.3411,-3.8179400378571424,0.0313573817857122,0
mp-758655,H8C2BrN,4.6619,-0.4330813357366665,0.0806043137500003,0
mp-770551,Li2MnAlO4,1.1098,-2.5830965779325004,0.0441226099999934,0
mp-1144,ErP,0.0,-1.6125207615476196,0.0,0
mp-1018761,Li3CeSb2,0.0,-0.7936336050000001,0.0,0
mp-32525,Li2V(PO4)2,2.6334,-2.660377529322344,0.0409730274999962,0
mp-7738,LaSeF,1.726099999999999,-3.153178626594584,0.0,0
mp-27301,Rb3Au3Cl8,0.8124,-1.3817454379342855,0.0,0
mp-14568,BaMgF4,6.800499999999999,-4.010526376626667,0.0037843524999985,0
mp-2164,Mo3S4,0.0,-1.0531087108928574,0.0663138185714284,0
mp-569522,MnP4,0.480299999999999,-0.3648363858095242,0.0,0
mp-3093,ErB2Ru3,0.0,-0.481538292222222,0.0,0
mp-569931,Pr(NiP)2,0.0,-0.976272575238096,0.0,0
mp-772749,Ti17(NO4)6,0.0051,-3.070302428247091,0.0308988769706424,0
mp-3922,AgSbS2,1.3685,-0.5253733295312504,0.0,0
mp-767458,Tl(WO3)3,0.0,-2.0745998527884613,0.0,0
mp-567777,La9Sb16Br3,0.2214,-1.0645949194642863,0.0,0
mp-541177,GdVO3,0.0,-3.254659493750002,0.0,0
mp-505138,K2PdSe10,1.0629,-0.4025624223798073,0.0,0
mp-775847,V2O5,2.5161,-2.2900532026785716,0.0110925789285687,0
mp-3553,KTeAu,0.0,-0.6816167766666664,0.0,0
mp-995214,H6PbCI3N,1.7627,-0.5155559476333332,0.039180644270834,0
mp-567199,PbI2,2.402,-0.6698419426666671,0.0009842839999993,0
mp-16159,Pr4Si2S3O7,2.5915,-3.281525569902344,0.0,0
mp-20750,Tb3SnC,0.0,1.4471405954999994,1.783282873166666,0
mp-25026,SmMnO3,0.2744,-3.006266163442,0.0,0
mp-777471,Li2FeF4,3.587,-2.937704001394285,0.053299193571429,0
mp-777423,Na6Ti2O7,3.630899999999999,-2.556782521805556,0.020123691666666,0
mp-2189,CrSe,0.0,-0.306776959296875,0.127748440833332,0
mp-973951,Lu2CuRh,0.0,-0.647834562499999,0.0,0
mp-771826,BaTl2O4,0.0679,-1.6320815271428573,0.050252686785714,0
mp-12894,Y2SO2,2.993499999999999,-3.5975509203125,0.0,0
mp-762894,Li7Cr2O8,0.5022,-2.1427825211764704,0.0518159732352918,0
mp-31537,LiCoPO4,2.9335,-2.37879559377551,0.0555562118452375,0
mp-30937,HgClO3,3.066099999999999,-0.5912852444019997,0.0239879670833338,0
mp-530695,GdZr3F15,4.4567,-4.123140419360527,0.0,0
mp-765857,LiCr(SiO3)2,2.951699999999999,-2.8957456430833326,0.0409327231666516,0
mp-974455,Re3Ru,0.0,-0.0643557025000003,0.0,0
mp-571402,Zr2Al3C5,0.0,-0.0620281132500011,0.3484382527499967,0
mp-15644,DyB2C,0.0,-0.5319998178125003,0.0,0
mp-1729,SmFe2,0.0,0.0180892758333328,0.0180892758333319,0
mp-1029256,Te4MoW,0.568299999999999,-0.1742355758333336,0.0138746170833323,0
mp-600186,Cs2MnBr4,2.5604,-1.4406777399999997,0.0,0
mp-557480,Te2SO7,2.9042,-1.7109401767812509,0.0139228219999969,0
mp-770880,Li3Ni(BO3)2,1.2337,-2.2292884671527777,0.0627089860937664,0
mp-8535,ErSi2Rh3,0.0,-1.0625643366666668,0.0,0
mp-778656,Li4Mn3(CoO4)3,0.0,-1.859175422176365,0.0435988251515206,0
mp-3827,KFeS2,0.0,-1.0834146482812503,0.0,0
mp-28963,Ag8S,0.0,0.1718549739930554,0.2645976583333329,0
mp-757205,Y2Th5O13,2.7174,-4.2310376060624995,0.0562502239999975,0
mp-1020613,Rb5GaO4,1.8405,-1.6576283536249998,0.0,0
mp-773460,Li2FeCuO4,0.0,-1.7216834731250008,0.0448621781249993,0
mp-761830,Li3V3P8O29,0.2985,-2.535349290488649,0.0518049135174454,0
mp-28428,K3Nb2Se11,1.059,-0.7492291857519531,0.0,0
mp-570141,Sm2(PPt2)3,0.0,-0.9898039826623382,0.0,0
mp-764766,Li2VOF4,0.8844000000000001,-2.95518145418875,0.0920517828541651,0
mp-7247,CeZn3Cu2,0.0,-0.2524166874999996,0.0,0
mp-15653,CeSi2Ni,0.0,-0.8275439537499993,0.0,0
mp-8771,Lu2(NiB2)3,0.0,-0.5967952227272726,0.0,0
mp-567262,NiCN2,0.0,0.1418066319349993,0.162369254633333,0
mp-1002122,HfIr,0.0,-0.8792524675000006,0.0586633775000002,0
mp-780274,Hf2N2O,1.978999999999999,-2.546106325952002,0.0038914937499932,0
mp-771300,Li24Ti7Cr5O36,1.22,-2.674238606273148,0.0151394925000118,0
mp-977404,Nd2AgIr,0.0,-0.4485591437499998,0.0470245980357146,0
mp-623024,TiCdF6,4.3747,-3.305433983600833,0.0,0
mp-773996,Li2CrO4,2.4691,-2.008770389642858,0.0991270722619033,0
mp-984356,CsIrO3,0.0,-1.0567116927500002,0.2119173188333318,0
mp-21137,Ca2PbO4,1.481999999999999,-2.561081841428571,0.0,0
mp-771789,TiMn3O8,1.4361,-2.1429040249622227,0.0947304616666713,0
mp-20952,TiNiSb,0.0,-0.4911043772222226,0.0,0
mp-973402,SbPd3,0.0,-0.3689315612499993,0.0566935217857151,0
mp-1028505,Te2Mo3WSe6,0.0,-0.5002247959635411,0.0423147041666673,0
mp-745104,Gd2(MoO4)3,3.234,-2.707482910294118,0.0005770836764664,0
mp-861585,LiCr(SO4)2,2.2689,-2.1962535217881936,0.0256235538888898,0
mp-568005,CsYbBr3,4.3376,-2.0394384920000004,0.0,0
mp-777149,Li2MnVP2(HO5)2,0.4914,-2.4314321274198414,0.0219987236573935,0
mp-1018781,Li3SmSb2,0.0,-0.8363004337499996,0.0,0
mp-32407,TaVO5,2.171999999999999,-2.906903050178572,0.0,0
mp-510409,TiSiNi,0.0,-0.8447876680555547,0.0,0
mp-763207,FeOF,0.7429999999999991,-2.211309388035556,0.0693745577777766,0
mp-29598,NaP4N7,4.214,-0.6846543482534125,0.0,0
mp-16517,TmAl2Ni,0.0,-0.6485806412499997,0.0,0
mp-763122,Li2Mn2Co(PO4)3,0.742499999999999,-2.442999254060285,0.0739278621875234,0
mp-770986,LiVBO4,1.590099999999999,-2.564159051666667,0.0878116499999919,0
mp-567736,TaPbSe2,0.0,-0.6606037317968747,0.0,0
mp-12183,KB5O8,5.3412,-2.858718596398808,0.0,0
mp-566812,Sr9LuV7O28,3.6781,-3.090375360444443,0.0,0
mp-1013830,NaCo3P3O13,0.0,-2.0834542347767853,0.0376851794166634,0
mp-16897,Sr2Sb3,0.1323,-0.7970571204999999,0.0,0
mp-773290,KVPCO7,1.813599999999999,-2.3919583090313847,0.0484255972727325,0
mp-779070,Li2NiP2O7,4.312200000000001,-2.4713516783283738,0.0058075387499911,0
mp-13327,NdLuSe3,0.4956,-1.874694343656249,0.0,0
mp-768368,K4I2O,1.2568,-1.4368695658928574,0.0,0
mp-8355,KAlSiO4,4.5002,-3.2025573035714285,0.0025919269642908,0
mp-773725,NaLi5Mn2P2(CO7)2,3.525,-2.41381349752348,0.0531950782051282,0
mp-28557,Ag2PdCl4,1.1217,-0.7940388418628574,0.0,0
mp-767249,Li4MnCo3(PO4)4,2.3728,-2.4633659622621766,0.0249374487053577,0
mp-3817,La2Au5F21,1.8445,-2.277704484910358,0.0,0
mp-561187,NdGa3(BO3)4,4.338999999999999,-2.7884162609583343,0.0143101893229147,0
mp-769148,Sc(ClO4)3,3.1683,-0.9845752087362508,0.0350461459374997,0
mp-13274,Na4CO4,2.1989,-1.749045820277778,0.1290455088888906,0
mp-16025,Y2(SO4)3,5.6993,-2.787533962481617,0.0,0
mp-769004,Li3BiO4,0.9495,-1.8686660484375,0.0282002084374992,0
mp-4800,Ca11(CN5)2,0.776,-0.9915798745130434,0.0039382308152173,0
mp-450,NbB2,0.0,-0.6906748211111117,0.0048797433333334,0
mp-40161,NaHf2(PO4)3,5.0443,-3.271109772460317,0.0,0
mp-17539,KAsOF4,3.7145,-2.6038774597871424,0.0,0
mp-767093,LiFe2(PO4)2,2.1484,-2.4284125954761917,0.0672191727884365,0
mp-973091,LaHoMg2,0.0,-0.0862659462500001,0.0097173528124998,0
mp-680436,Rb2LiSn4,0.9014,-0.2949623780357144,0.0,0
mp-642735,Rb2H4Pt,3.2877,-0.478882277782857,0.0,0
mp-5634,NdOF,4.5028,-4.177859281646668,0.0,0
mp-973261,Mg2SnO4,1.903399999999999,-2.6573959385714283,0.0280098307142866,0
mp-768232,Rb3SbO3,3.1608,-1.796600548035714,0.0,0
mp-754064,MnP2,0.0,-0.4328256937301577,0.0442083735185203,0
mp-31698,CrP2O7,0.5946,-2.4704068574940483,0.021208817312492,0
mp-27608,Be4TeO7,1.280699999999999,-2.586263980729168,0.0,0
mp-1018826,NdGeAu,0.0,-0.8330987941666669,0.0,0
mp-616615,Hf8MnTe6,0.0,-0.6121787103333342,0.0,0
mp-996954,CuPtO2,0.0,-0.8242083006250001,0.0251015935975624,0
mp-6957,Ce(FeP)2,0.0,-0.9993007152380956,0.0,0
mp-24724,TbH2,0.0,-0.783994930191111,0.0,0
mp-2472,SrO,3.2748,-3.092701745624999,0.0,0
mp-777211,Mn2OF3,0.4899,-2.641436483623333,0.0517042718750042,0
mp-616668,Na2AlNiF7,5.2253,-3.127897144393636,0.0,0
mp-567454,NdGa3,0.0,-0.5029541793749996,0.0638549025000001,0
mp-23397,MoPCl9,0.0,-1.200905606130476,0.0,0
mp-972733,Si3B,0.0,0.9097107645833332,0.9233080139583336,0
mp-767558,LiCo3Sb(PO4)6,0.0,-2.1256433369591843,0.0824970866607337,0
mp-707160,HNF2,1.5769,-0.435509555845,0.4552525203575,0
mp-8234,BaTe3,0.812299999999999,-0.8833886312500003,0.0116954687499997,0
mp-1026917,Te2Mo3W(SeS2)2,0.0,-0.823063182786458,0.054511470833332,0
mp-973921,Lu2Ni12As7,0.0,-0.5135923778571422,0.0,0
mp-600520,SrCuH4(CO2)4,0.2561,-0.8085697824711104,0.8552632719444428,0
mp-569675,Tl2Hg2PdCl8,1.665499999999999,-1.0869168796984614,0.0,0
mp-695079,RbAl6H20N5F24,2.8341,-2.0628149979082138,0.3588125772857129,0
mp-37520,Ca(PrTe2)2,1.1032,-1.4951776007142854,0.0177527235714309,0
mp-675786,Cu3(BiI4)4,0.0,-0.3444990391304345,0.0322598858695655,0
mp-651173,K3WC4N4OF,3.1807,-0.7697308697828577,0.2368976612202376,0
mp-972767,Si3F,0.0,-0.3068861040475008,0.7853498812499993,0
mp-3569,Nd(Sb3Os)4,0.0,-0.1616653451470593,0.0,0
mp-27771,Nb3Br8,0.030699999999999,-0.9302540613636364,0.0,0
mp-1027880,Te2Mo3W(SeS2)2,0.0,-0.7865276269531248,0.0910470266666658,0
mp-680153,CdI2,2.345399999999999,-0.590665439126984,0.0014715594285714,0
mp-777422,DyHO2,4.727,-3.031767653196667,0.0079166565625001,0
mp-5418,Li6Zr2O7,3.9436,-2.87811514925,0.0,0
mp-7826,HgO,1.3101,-0.6455322839583335,0.0011169704166675,0
mp-1013849,Li3Fe2(GeO4)3,0.0,-1.8766000373750005,0.1275553594062479,0
mp-675902,YCuSe2,1.070499999999999,-1.2177428199218756,0.0,0
mp-7575,LiZnN,0.5083000000000001,-0.3891647791266664,0.0,0
mp-677704,Sb2H10C3NCl9,0.179599999999999,0.0677995687832003,0.9108346943999992,0
mp-695836,KSbO3,0.684099999999999,-1.198092728750001,0.8717545809999949,0
mp-756876,K3BaPCO7,3.905599999999999,-2.6046718753342493,0.0261961244230759,0
mp-760683,Li4Cu(PO3)6,0.8013,-2.5270232741748773,0.0463287773275826,0
mp-1002221,ErH,0.0,-0.4012443768100002,0.1912822962499989,0
mp-978548,SmEr3,0.0,0.0257531856249997,0.0257531856249997,0
mp-10130,U2(Ni7B2)3,0.0,-0.3167058579310343,0.0,0
mp-773164,Gd2V2O7,0.980499999999999,-3.192325892159092,0.0254236981818198,0
mp-1026933,TeMo2SeS2,0.0,-0.8351591502864579,0.0529816099999989,0
mp-675692,LiTi2O4,0.0,-3.211403164523811,0.0494871916666497,0
mp-16828,Li3B7O12,5.6047,-2.831184464621211,0.0,0
mp-19249,YbNiO3,0.0,-1.8886864027500003,0.0,0
mp-555506,ZrCrF6,0.0,-3.5291266908924994,0.0491993128124992,0
mp-772801,LuBiO3,2.3018,-2.83752065075,0.0585524731250002,0
mp-680183,Te5As2Br4O5F26,2.123599999999999,-2.012629130825952,0.0467480920238063,0
mp-13676,TlPO4,0.7150999999999991,-2.0773602480158733,0.0,0
mp-757981,Na2SnGe2(HO4)2,2.418599999999999,-2.0038518621493333,0.0,0
mp-1029321,Te2MoWSe2,0.069099999999999,-0.3652121203645831,0.0498392924999997,0
mp-631621,VBi(PbO3)2,2.4006,-1.897907119,0.0306826991249984,0
mp-5597,Ca(FeP)2,0.0,-0.8460000712380946,0.0,0
mp-757360,HgTe(HO)7,2.6766,-1.2911222627556254,0.0367965386067581,0
mp-696649,KH2I3O,1.890199999999999,-1.0177629162128572,0.0056465110714287,0
mp-720670,Na10Zn7Sn7H24(S13O6)2,1.930699999999999,-1.23217886229657,0.0,0
mp-549158,InCuO2,0.2404,-1.503051133125,0.0055841618750003,0
mp-11738,Na3PS3O,2.8296,-1.570972994566593,0.0,0
mp-764356,V2OF4,1.656399999999999,-2.9640767387157143,0.0990749307142824,0
mp-707771,H3Ru3C10ClO9,2.4491,-0.8068428553026916,0.2560811021314082,0
mp-765886,CoSbO4,0.0,-1.5720688741666666,0.0928788852083384,0
mp-542729,Dy3Ni13B2,0.0,-0.4372995612962964,0.0,0
mp-569571,Nb3Sb2Te5,0.8441000000000001,-0.3914865155000001,0.3409392419999992,0
mp-568293,Ca3N2,1.298599999999999,-0.9003411539519994,0.0322749127500001,0
mp-2309,Tm2S3,1.1833,-2.4524680654374995,0.0257137742499988,0
mp-17112,K3Ge4Au,0.827299999999999,-0.2755279268749997,0.0,0
mp-763931,CoOF,0.0,-1.647077050813334,0.116658454583332,0
mp-755376,Er2TeO6,3.0329,-3.0539291904629637,0.0011509481481457,0
mp-1031,GdCd,0.0,-0.3501844224999999,0.0,0
mp-22898,KI,3.8512999999999993,-1.4956827549999998,0.0,0
mp-770309,Li2Fe2(SO4)3,4.2958,-2.1711066069572373,0.0167722328947315,0
mp-505772,Rb2NaH5(CO4)2,4.1978,-1.8083391746166664,0.0,0
mp-1029845,Na3Mo2N5,1.8154,-0.5488705774399989,0.0,0
mp-861983,Ti2MnFe,0.0,-0.3341446908333339,0.0,0
mp-672265,Cu3Pd,0.0,-0.1049995457142856,0.0009648442857139,0
mp-9530,Y4C7,0.0,-0.2805202797727265,0.0,0
mp-10924,Mg(Co3P2)2,0.0,-0.6333738820346313,0.0,0
mp-767008,Li2Si2WO7,2.7995,-2.7358740365625,0.045290986666667,0
mp-557481,Sr4RhO6,0.0,-2.658244260681818,0.0,0
mp-1019083,ReN2,0.0,0.1302287734133334,0.2245175514288924,0
mp-17784,CaTiGeO5,2.9242999999999992,-3.0636011003645844,0.0,0
mp-762543,LiFe4(PO4)3,3.074799999999999,-2.4022013504642863,0.0540615377500124,0
mp-17984,Ag8SnSe6,0.000999999999999,-0.1542970284375002,0.0,0
mp-555546,MgAs2(XeF5)4,2.878,-1.8964552283814813,0.0,0
mp-619501,U2Te3,0.0,-0.5981921100000008,0.0144978730000024,0
mp-763130,LiNiPO4,3.1501,-2.219230554013606,0.073323953214289,0
mp-13218,YMg2Cu9,0.0,-0.1708406493749995,0.0,0
mp-601344,LiZr3H18N4F19,6.0167,-2.311441642495333,0.0,0
mp-762458,Li6Cr3P6WO24,1.5734,-2.5839746112142854,0.0604452098437375,0
mp-865708,LiSm2Ru,0.0,-0.1947396600000006,0.0,0
mp-10181,LiSiNi2,0.0,-0.5022449274999996,0.0,0
mp-603,Be2Ag,0.0,0.0292272533333335,0.0292272533333326,0
mp-524,Ba3As14,1.1763,-0.4547451791176472,0.0,0
mp-582767,La3CuGeS7,1.7961,-1.945470376119792,0.0,0
mp-720244,NaCaMgAl(SiO3)4,2.5873,-2.8903207050000006,0.3941000865937507,0
mp-10421,RbAuC2,2.197899999999999,0.1781678637499988,0.3290794215624997,0
mp-763345,Li2VO2F,1.1166,-2.6153320518649994,0.104206881249997,0
mp-20847,Ti5Sn3,0.0,-0.3462644810416666,0.0,0
mp-600366,H8C3SeN2,3.2151,-0.2626762664152673,0.1141773901897336,0
mp-1029665,Sr3BN3,0.4152,-0.974757732686666,0.0,0
mp-865779,Ga2CoRu,0.0,-0.29559725875,0.0092478150000001,0
mp-31284,NaSn5,0.0,-0.0680288258333329,0.0087228116666673,0
mp-757404,Li2Cu2Si5O13,0.4739,-2.672896967329545,0.0840754445454532,0
mp-2991,Cs2UO4,1.8211,-3.0445817921428566,0.0,0
mp-570130,AlH3,3.1866,-0.1079513410483332,0.003748182916667,0
mp-24342,LiBeH3,2.3768,-0.2086029826719997,0.1041677076666665,0
mp-976280,LiBr,4.9350000000000005,-1.5733367500000002,0.0,0
mp-761936,Li4Cu7(PO4)6,0.0,-2.0287106880139367,0.1018850734146221,0
mp-13148,Ca3N2,1.373499999999999,-0.737648879951999,0.1949671867500004,0
mp-975990,NaLiO3,0.0,-0.7561372337500003,0.4481704799999973,0
mp-631520,TlBTe2,0.0,1.1003196945833331,1.2198535227083336,0
mp-7607,TiHgO3,1.3445999999999991,-2.267349899083333,0.1026083909999995,0
mp-555378,Rb2FeF5,3.693,-2.9804782732437496,0.0,0
mp-705430,MnO2,0.0,-1.7192903228199994,0.0912786658333342,0
mp-733790,SiO2,5.593,-3.2815040773611117,0.0032088301388881,0
mp-976724,Hf(VH2)2,0.0,-0.389746521354285,0.0001706233333331,0
mp-774059,Li7Ti12Fe5O32,0.0,-3.0067949894642862,0.0065126271874991,0
mp-771533,CoPO4,0.8261000000000001,-2.123533857390873,0.0193132522916652,0
mp-12386,ErSi3Ni,0.0,-0.6829860390000008,0.0,0
mp-770903,Li3Mn(BO3)2,1.2378,-2.5045011409827773,0.0503117478645984,0
mp-7084,SrCaSi,0.4237,-0.4453803024999997,0.0,0
mp-734,LaHg,0.0,-0.4900136799999997,0.0,0
mp-30321,Y2P4O13,5.6411,-3.1799496583489986,0.0029586698684269,0
mp-775393,Li2Cr3SbO8,2.811199999999999,-2.327468761964285,0.0,0
mp-975404,RbCa3,0.0,0.2299023299999998,0.2299023300000003,0
mp-616512,Y3Co2,0.0,-0.1674323854999997,0.0090718974999992,0
mp-871,FeSi,0.180900000000001,-0.51095827375,0.0,0
mp-771833,Sr2LaCl7,4.3991,-2.795667929032001,0.0738340632499996,0
mp-5866,MnCuSb,0.0,0.0999106516666674,0.1223766150000012,0
mp-27896,BF3,8.132,-3.130128746934166,0.0007683828125006,0
mp-34380,HoTaO4,1.5885,-3.507562753333333,0.252283035833333,0
mp-770029,LiMn2Fe3O8,0.0,-1.9574975715657144,0.0379497574553528,0
mp-758841,LiCu2F7,0.0,-1.882939942958,0.0583191463750036,0
mp-2844,ThSi2,0.0,-0.6113279733333327,0.0121967966666654,0
mp-673635,Fe3N,0.0,-0.1647933562199988,0.0026662593750028,0
mp-2680,LaB6,0.0,-0.5608597171428583,0.0,0
mp-555528,Ca2Th(Si2O5)4,4.9887999999999995,-3.447927386290322,0.0019173172580622,0
mp-567727,Pr2Co2I,0.0,-0.5603693959999994,0.0,0
mp-3689,NdCo4B,0.0,-0.2134097048611115,0.0198830411530979,0
mp-676264,YTh9O20,0.0,-4.26184958125,0.0186969689791638,0
mp-765615,Li6Fe5SbO12,0.5689000000000001,-2.04042159875,0.0235979256249923,0
mp-11499,YMg2,0.0,-0.0881062916666669,0.0056370641666667,0
mp-973585,LuIO,3.2624,-2.97546068875,0.0,0
mp-764259,Mn4OF6,1.9791999999999992,-2.7820523133845447,0.0258460549999997,0
mp-555661,Ca9In(PO4)7,4.3214,-3.2427207549259265,0.0,0
mp-769898,Li2Ni3SnO8,0.0,-1.3552409592857149,0.0361442622857044,0
mp-780866,LiFe2Si2O7,2.0098,-2.5980648463541662,0.050844197916664,0
mp-995234,HCO,4.3171,-0.8759867298376194,0.265355015535718,0
mp-755831,BrClO,1.1661,-0.2601983776144444,0.1359912147222219,0
mp-570548,NaPr4I7N2,2.7083,-1.5281255705185712,0.0,0
mp-754658,TeO3,1.2489,-1.3379192190625,0.0008974043750002,0
mp-769347,MgSO3,5.024900000000001,-2.4100394675625,0.0615334146304356,0
mp-18954,ScMnO3,0.0,-2.9969139589420006,0.0091291506874995,0
mp-764736,V4O5F7,1.417,-2.7622627812237504,0.0127237956249999,0
mp-774306,LiCrPO5,0.672,-2.4412720496056552,0.059383805093736,0
mp-1665,YbFe2,0.0,0.0900482016666662,0.0900482016666659,0
mp-18840,BaMnO3,0.8952999999999991,-2.473779668941999,0.0072780416666606,0
mp-582295,La(FeP3)4,0.0,-0.6221380721848742,0.0,0
mp-1029686,Sr3OsN3,0.0,-0.7197236917342847,0.0,0
mp-23188,In2Bi,0.0,-0.0015754733333335,0.0051789833333333,0
mp-760386,CsClO3,5.4534,-1.2905083274020002,0.0374202481250005,0
mp-32500,Mg2V2O7,2.7138,-2.692663140795455,0.0,0
mp-696650,KH2Au(Cl2O)2,0.5065000000000001,-0.946704241528,0.3078800847499985,0
mp-767791,Mg5Co19O32,0.020599999999999,-1.7071168707142854,0.0,0
mp-764441,Li3V2(O2F)2,0.948099999999999,-2.6915088079436367,0.0690704720833546,0
mp-861894,Li2LaSn,0.0,-0.4890375787499997,0.0,0
mp-997048,AgBrO2,0.276699999999999,-0.1984644906250001,0.1249187172499994,0
mp-1016880,ZnRhO3,0.0,-0.6938759637500006,0.7663507299999992,0
mp-9813,WS2,1.840799999999999,-1.2599060293750004,0.0038224949999747,0
mp-706524,Sr3La4O9,2.4813,-3.355140293828125,0.2332241937500008,0
mp-27622,Na2PbO2,2.4071,-1.597036668,0.0,0
mp-566586,Pr2Te4MoO14,3.1934,-2.2539064765476176,0.0,0
mp-773413,Na5LiMn2P2(CO7)2,3.3259,-2.3848806957927104,0.0151487089102575,0
mp-28534,CaInBr3,3.136,-1.5126188399999996,0.0,0
mp-975509,RbBa3,0.0,0.1282164449999998,0.1282164449999998,0
mp-764829,Fe4O3F5,1.344999999999999,-2.364785452891668,0.0301859708333251,0
mp-27493,Sn3(PO4)2,3.4768,-2.312882666437729,0.0,0
mp-707014,P2H10S4N2O,2.5304,-0.7420209472184458,0.0,0
mp-764326,Fe12O13,0.0,-1.6631075078499995,0.0540630368000005,0
mp-863033,Rb4P2PbSe8,1.669,-0.7333169746626983,0.0,0
mp-22329,NaNd2OsO6,0.540999999999999,-2.7676383747500006,0.0,0
mp-8002,LiGaO2,3.7357,-2.324228283125,0.0652196949999996,0