mpid,formula,BG,FE,e_hull,fidelity
mp-866339,Cd(PO3)2,4.008599999999999,-2.4530083426322755,0.0066163615277785,0
mp-861494,V3CoO8,1.4267,-2.151699896041668,0.0776755689583268,0
mp-19682,LiFe(WO4)2,2.4828,-2.1772859425000006,0.0,0
mp-23279,KBi2,0.0,-0.2913542266666666,0.0,0
mp-499,AgO,0.0,-0.4543426018750001,0.0003730637500014,0
mp-2645,YbNi5,0.0,-0.2503874766666669,0.0,0
mp-1001022,Cu2PPd2,0.0,-0.2767025026190481,0.0052568850909091,0
mp-775054,Ti3Mn3(TeO8)2,0.24,-2.338392792203333,0.0482265997135371,0
mp-21298,NpSi2,0.0,-0.2571930845833314,0.0,0
mp-28885,PSe,2.242099999999999,-0.0796597895944941,0.0,0
mp-555736,BaHg2(ClO)2,1.610999999999999,-1.6601447452171427,0.0,0
mp-614013,CsSnI3,0.5064000000000001,-0.9565373089999998,0.0067916349999999,0
mp-770104,LiMn4O8,0.0,-1.8688571187569232,0.0881079414423045,0
mp-1006372,AgSO4,0.0,-1.4887534681770829,0.0,0
mp-5942,NaAsS2,1.7428,-0.9342107245312508,0.0,0
mp-625812,Sr(H2O3)2,2.4406,-1.085799473816364,0.2926257303896102,0
mp-652001,MoPCl8O,1.484,-1.3735310332204766,0.0414824046969615,0
mp-780196,LiMnSiO4,0.4094,-2.5776071972799985,0.1000988510786955,0
mp-705845,BaFeO3,0.0,-1.7971949567500003,0.4571842719999957,0
mp-762238,LiFe(CO3)2,1.4698,-1.8991967315000005,0.077350549750002,0
mp-1019806,KMg6P7O24,5.1735,-2.968452877280701,0.0,0
mp-865081,NaAcTe2,0.603399999999999,-1.2650757256250005,0.0,0
mp-1025740,MoW2(Se2S)2,0.853699999999999,-0.8184142880555562,0.0126888405555538,0
mp-697734,MoP4O13,1.1881,-2.3335095804794985,0.0755516254166677,0
mp-768820,Li3Bi(BO3)2,3.4538,-2.4783170129861105,0.0,0
mp-697120,BH3NF4,7.5583,-2.068431007185185,0.0474731710758717,0
mp-3414,AgSbF6,1.767199999999999,-2.3815516171425,0.0,0
mp-865751,YbDyRh2,0.0,-0.7783919841666673,0.0,0
mp-861881,LiGeAu2,0.0,-0.31948910875,0.0,0
mp-553972,CuCSN,2.396599999999999,-0.0918644306731248,0.1730778099258332,0
mp-977570,LiPr2Os,0.0,-0.0455367812499991,0.0,0
mp-636821,U6Ni,0.0,-0.0097807028571423,0.0488265621428567,0
mp-1013535,Sr3SbP,0.0,-0.288625748619048,0.7340617008333359,0
mp-752569,La3ScO6,4.0062,-3.89931871725,0.0256055850000009,0
mp-1185,VRh3,0.0,-0.3745041100000001,0.0077946912500035,0
mp-775007,SbP6(WO8)3,0.0,-2.4485894027521016,0.0272436127757416,0
mp-558703,Al3Pb5F19,5.1203,-3.229103163800369,0.0064197003240762,0
mp-560642,Na3SbP2O9,2.6288,-2.4894930918293654,0.0,0
mp-4742,Ho(GePd)2,0.0,-0.7837475609999999,0.0019060313333314,0
mp-541189,P4Se3,2.159999999999999,-0.0549033279517437,0.0133764917006793,0
mp-625628,GaHO2,2.0642,-1.70705535903,0.2409479681249991,0
mp-866199,AcAg,0.0,-0.2683658337499999,0.0,0
mp-770692,Ga2WO6,2.7165,-2.195596675,0.0421839480555492,0
mp-557705,OsO2F3,0.5722,-1.852345791428334,0.0219207309375173,0
mp-502,As4S5,1.9867,-0.4971522083680561,0.0027405508333337,0
mp-1002569,MgMnO2,0.7773000000000001,-2.3669157846149997,0.1659263662499954,0
mp-768907,Sr3TeO6,3.0473,-2.74402382975,0.0221194629999974,0
mp-18244,K6MnS4,1.303499999999999,-1.2872229405681823,0.0,0
mp-766851,Li4V(PO4)2,3.209199999999999,-2.661118657746032,0.0520384933434368,0
mp-559447,Gd3Se4O12F,2.7816,-2.4683096325282508,0.0,0
mp-763433,Li2MnF4,3.743699999999999,-3.02375057438857,0.0741801150000007,0
mp-676814,Cr4(Ga2Se5)3,0.0,-0.5286530927562495,0.0462038987999964,0
mp-555522,EuPH5CO7,0.0,-1.920516753163016,0.1142178264166657,0
mp-1273,CsGe,1.338299999999999,-0.2293673632812498,0.0,0
mp-550547,K4CO4,0.9476,-1.5753762891666665,0.2651054372222194,0
mp-779054,LiV2(OF)3,0.6937,-2.7397130732207406,0.0879949437654383,0
mp-773984,Li3Ti6Co3O16,0.0,-2.892179236785714,0.0264444555357155,0
mp-777718,Li2MnF4,3.871,-2.9963941258171416,0.1015365635714298,0
mp-605034,K2NiF6,2.3603,-2.35277921746,0.0,0
mp-755574,LuAlO3,5.7429000000000014,-3.79905453225,0.0210965962499987,0
mp-554332,SrCrF6,0.0,-3.248267037142498,0.0,0
mp-17704,Tm2SiO5,4.591100000000001,-3.8451206795312487,0.0036814382031238,0
mp-782646,Fe4O7F,0.0,-1.6361475266616676,0.112876664635408,0
mp-1028947,MoW3(SeS)4,0.899,-0.926208460885416,0.0130510166666679,0
mp-6236,Na2BeSiO4,4.562,-2.815734868281249,0.0115905757812502,0
mp-779936,Na4Fe2P(CO4)4,0.0,-2.01239305085538,0.0480507365509348,0
mp-778013,Mn3O5F,0.0,-1.9566203450355557,0.0500757029166774,0
mp-563013,Yb3CeS6,0.347599999999999,-2.0917714244375,0.1470810295000006,0
mp-28227,Ni11As8,0.0,-0.3034575609210531,0.0,0
mp-631353,MnRePt,0.0,0.9341946183333328,1.196245001666666,0
mp-621932,K(Zr3I7)2,0.0,-0.4952874826190474,0.4710357091666682,0
mp-771531,Li5Fe7O12,1.221,-1.991769326041667,0.0171735131249999,0
mp-7390,SrGe2,0.0,-0.4960558500000006,0.0,0
mp-9308,Li4ZrF8,5.9638,-3.5428359853476934,0.0,0
mp-554015,CsK(ClO4)2,5.530699999999999,-1.2118756080433333,9.945874999850446e-05,0
mp-30557,YGa2Co3,0.0,-0.3663703993055552,0.0,0
mp-27575,Te5(O2F11)2,2.867,-2.2262612440703227,0.0,0
mp-558143,Pr4S3NCl3,3.0308,-2.4512045990315907,0.0,0
mp-770292,Li3Fe2P2(CO7)2,0.0654,-2.2375429058126284,0.0415602488722823,0
mp-17491,Ba2LiGe3,0.096999999999999,-0.5630754900000005,0.0,0
mp-545481,Ca2Cu(BrO)2,0.0,-2.112641918928571,0.0,0
mp-767635,Li3Cr(PO4)2,1.748,-2.6254516141921767,0.0779403103569942,0
mp-862811,Cs2KU2(Si2O7)2,0.0,-3.2552726485869563,0.0,0
mp-542458,Ce2Zn17,0.0,-0.2198108913157892,0.0210384384210504,0
mp-9383,SrHfN2,0.3154,-1.5719328349399992,0.0313905600000001,0
mp-27533,P2Pd15,0.0,-0.2520011156582631,0.0048752064705883,0
mp-676764,InCuSe2,0.0,-0.2358137617968747,0.2054595037500002,0
mp-22424,Na2SO4,0.0,-0.6783923284375,1.6446812785714284,0
mp-765672,V6O5F19,1.932599999999999,-2.752704147795334,0.0263578307499869,0
mp-542844,V2O5,1.396,-2.2422154351785717,0.0589303464285677,0
mp-14793,Mg2SiPt,0.0,-0.6169122625000005,0.0,0
mp-25739,Co2P2O7,2.3728,-2.2846190902218613,0.0010293193181718,0
mp-3854,Y(MnSi)2,0.0,-0.6293724664999985,0.0,0
mp-973142,ScZn2Pd,0.0,-0.5361282175000008,0.0281357244021736,0
mp-19758,Sm3PbC,0.0,1.5803714009999998,1.7327238324999996,0
mp-763292,Ti3Mn3(SbO8)2,0.6120999999999991,-2.4368672330366663,0.0843292845485947,0
mp-972997,HoErCd2,0.0,-0.3161233574999995,2.564250000025581e-05,0
mp-10907,PuAl3,0.0,0.1994433232812502,0.4683883774999984,0
mp-765868,TiWO4,0.5586000000000001,-2.7249223780555565,0.0505874068055547,0
mp-28326,LiGaBr4,3.4374,-1.1019058537499995,0.0,0
mp-567705,TiAl2,0.0,-0.4300396872222218,0.0,0
mp-866376,TiMn2Ge,0.0,-0.3348778504166656,0.0,0
mp-31411,Th(Al2Cr)4,0.0,-0.2070023661538464,0.0094699574615377,0
mp-29241,Ca3SnO,0.0,-1.7631936412500004,0.0,0
mp-774539,LiTi2(PO4)3,2.604999999999999,-3.0285193518121702,0.0084028099999979,0
mp-743928,Rb3LiZn2(MoO4)4,4.0278,-2.1630060505769233,0.0022212198076934,0
mp-1019513,AlPO4,5.6296,-3.1260830749603183,0.0123820755555588,0
mp-631533,PPbW,0.0,1.88583702063492,2.1347477475,0
mp-1020031,LiCaAlN2,2.7797,-1.1877707089520002,0.0,0
mp-761827,Na3CuO3,1.1698,-1.4579337705357145,0.0043195972618992,0
mp-29599,Re3(SBr)7,1.3261,-0.6349434674080892,0.0,0
mp-532384,Dy2Ti2O7,2.5119,-3.763325247878788,0.0455146894317941,0
mp-770616,Li2Cr3BiO8,0.0,-2.1398085746428563,0.020859517817465,0
mp-850065,Mn3O5F,0.0,-1.9538055639244445,0.0528904840277881,0
mp-756202,Ba2SrI6,3.595799999999999,-1.7522578772222217,0.0186027294444448,0
mp-627314,Si2H2O3,1.7578,-1.5570927169985704,0.5925719090357138,0
mp-684052,LiSn6P7O24,2.5803000000000003,-2.3710981457017546,0.0595036101535049,0
mp-1017591,BaRuO3,0.0,-2.1302499577500016,0.0694033786666636,0
mp-646507,Hf2Ni2Sn,0.0,-0.5652599210000006,0.0208660269999994,0
mp-30453,DyBiPt,0.0,-1.037882393888888,0.0,0
mp-755969,Sr3La4O9,3.0779,-3.4895205482031253,0.0988439393750013,0
mp-31751,Ba2Cr7O14,0.0026,-2.418846010760869,0.0409211545652183,0
mp-744532,CoH4SeO5,2.7378,-1.301170096074885,0.0707196346969709,0
mp-699469,AlH15N5Cl3,4.6579999999999995,-0.9102143753533316,0.0,0
mp-567861,KNiAu3(CN)6,1.353899999999999,0.0911459194541175,0.2363513444796075,0
mp-763373,Li3P2WO8,3.9504,-2.5545087175850343,0.0538451972321381,0
mp-756500,Sr2CaI6,3.7062999999999993,-1.6278956144444443,0.0610921472222227,0
mp-7388,NaAuF4,2.1333,-2.02215395746,0.0,0
mp-754696,PrTiO3,0.0,-3.4995510340833342,0.0755152371250087,0
mp-762252,Li4V7O12,0.9192999999999992,-2.428962361086958,0.0359326260144943,0
mp-752891,LiTi3O6,0.0,-3.299877748750002,0.0383947947499834,0
mp-762852,Na2P2H12O11F2,5.3551,-1.9094870057158784,0.0235981121551711,0
mp-4066,KGaO2,3.0499,-2.204171088281249,0.0,0
mp-12952,HfGaAu,0.0,-0.508516255,0.0,0
mp-662523,SrTeO3,3.174,-2.360102782083333,0.0342659821666693,0
mp-1184,La2C3,0.0,-0.1614159700000002,0.0,0
mp-20877,NbCoB2,0.0,-0.605752162708332,0.0011850506250006,0
mp-642261,Cs3Li2Ga(MoO4)4,4.0242,-2.2654540711538456,0.0,0
mp-3683,Ho3(CuGe)4,0.0,-0.6291232177272722,0.0,0
mp-752840,Na6SbO5,0.0,-1.6829343180208332,0.0836368212500016,0
mp-571616,CdI2,2.441,-0.5918998663333334,0.0002371322222221,0
mp-28724,Gd2CI,0.0,-0.7509018368750002,0.0,0
mp-738633,AgB10H26C6N,3.8864,-0.227060173708333,0.1141542515548126,0
mp-23302,RbI,3.3455,-1.46496874,0.0496787049999998,0
mp-10154,MnSbIr,0.0,-0.1925049816666669,0.0652717783333338,0
mp-763299,Ni3OF5,0.8414,-1.812949396911112,0.06790119773148,0
mp-11260,Ti3Au,0.0,-0.2291381775000003,0.12174963,0
mp-722535,K2UP2(H2O5)2,0.0069,-2.104630013587921,0.3806870992105216,0
mp-22332,TaInS2,0.0,-1.2074945945312503,0.0,0
mp-760492,Na4PtO4,0.81,-1.4366871127777785,0.0599833211111109,0
mp-5532,Sr2TiO4,1.914199999999999,-3.4607730873809524,0.0,0
mp-28202,K3NO4,3.6478,-1.4424053096724998,0.0,0
mp-17188,U(Al10V)2,0.0,-0.1826144178260869,0.0,0
mp-640340,Ca4MgAl3,0.0,-0.2047622028124998,0.0,0
mp-9006,Ho2CF2,1.1355,-2.622959027976,0.0,0
mp-777779,Li4Mn(TeO4)3,0.429999999999999,-1.8442895827980004,0.0347692720781394,0
mp-581024,CsK2Sb,0.8633999999999991,-0.3878696962500001,0.0,0
mp-568560,TlBr,2.2965,-0.8854282124999999,0.0,0
mp-560602,O2,1.298699999999999,0.4148228249999993,0.4148228249999999,0
mp-1026347,Te2W3(SeS)2,0.0,-0.5772132739236105,0.0657709369444461,0
mp-1019109,SmGeRu,0.0,-0.6815166941666675,0.0,0
mp-979417,DyYCd2,0.0,-0.3389469972916665,0.0011360049999997,0
mp-21161,SmSnPt,0.0,-1.0542017449999992,0.0185663108333358,0
mp-557635,Sb2TeSeF10,1.5148,-2.347330791910268,0.0881264175111606,0
mp-680772,Sb5IO7,1.2704,-1.4027147672115392,0.2261137533653841,0
mp-18878,LiFeAs2O7,2.5882,-1.8857064698863637,0.0,0
mp-75,Nb,0.0,0.0,0.0,0
mp-567320,La5C2I9,1.4393,-1.3255698056249998,0.0120549791406219,0
mp-1029650,Na15Re7N19,0.0,-0.4237601481760973,0.0,0
mp-6456,LiNbGeO5,3.3815,-2.6300680614062504,0.0,0
mp-779909,V6O7F5,1.160599999999999,-2.7631739855388884,0.0246350555555707,0
mp-561068,BiAsO4,2.754199999999999,-1.7754612225,0.0045679462499954,0
mp-28163,K2PdF4,1.8732,-2.433904326394285,0.0,0
mp-694933,MgTi3Pb5WO15,1.6852999999999991,-2.452386394949999,0.0537777948000002,0
mp-11178,SrCeN2,1.220799999999999,-1.3827969636899995,0.0,0
mp-850403,LiFePH2O5,3.3735,-2.1755281786585243,0.0278257342500074,0
mp-2150,BaTe2,0.3425,-1.1902756750000003,0.0031697916666666,0
mp-851287,Co21O40,0.0,-1.1055638583606555,0.0642680680327858,0
mp-505600,Ta3SiNi2,0.0,-0.406441481666666,0.0419941641666667,0
mp-8973,NaSi2N3,4.184299999999999,-1.2197893195233327,0.0,0
mp-767468,Li6Mn2O5F2,1.1377,-2.337370450703333,0.0763031926666766,0
mp-14237,YbBO3,0.0,-2.8253781847500004,0.1409825983333306,0
mp-989583,Rb2LiInCl6,2.8293,-1.9742572529560003,0.0,0
mp-755368,Zr2N2O,1.815,-2.295029864535332,0.0582752556666665,0
mp-769364,Dy(BiO2)3,2.0037,-2.203536536916667,0.0439390596250008,0
mp-1019611,Cs2Na2Sr(B3O5)6,5.6254,-2.8897243618396216,0.0,0
mp-767715,Li34(Sb3S2)3,0.0,-0.8709879536607147,0.082742289353741,0
mp-771982,Mn3Ni(PO4)4,0.0,-2.30616188480254,0.0259053863802076,0
mp-6441,K2PO3F,4.4626,-2.78982028971932,0.0,0
mp-755769,ZrO2,4.2234,-3.780435786666666,0.0527840258333345,0
mp-767644,LiV(PO4)2,0.647099999999999,-2.52037579218254,0.080460394236117,0
mp-22631,Co2N,0.0,-0.0559033057933338,0.0,0
mp-769589,LiV3CrO8,1.1787,-2.3787506207692317,0.0893781843910126,0
mp-762698,LiMn(PO3)3,4.1212,-2.6457011159996933,0.0076378162499892,0
mp-569287,TlPAuSe3,0.9173,-0.2060919148127483,0.0026324435416666,0
mp-540636,WOF4,3.1048,-2.682321358501666,0.0107363741666661,0
mp-782704,Ni3OF5,0.523099999999999,-1.8112441158000008,0.0696064788425916,0
mp-27768,Co(BW)3,0.0,-0.4440245578571417,0.0,0
mp-561499,Dy3CuSnS7,1.482,-1.8051042157031256,0.0094691355208329,0
mp-13590,LiB(CN)4,6.3482,-0.1671615316186659,0.3358263893989992,0
mp-19396,Na4Fe2O5,1.9196,-1.8087233392045456,0.0277659777272534,0
mp-775820,Ti2N2O,0.9737,-2.1438773438686667,0.0564847130120007,0
mp-764102,Li3Fe2(SiO4)2,0.9314,-2.558516166,0.0659295451666555,0
mp-766548,Li4Ti11O24,2.5241,-3.3180270659829056,0.0399004993589766,0
mp-1483,SiRh,0.0,-0.7866004300000009,0.0322713437499997,0
mp-571555,InCl,2.1996,-1.12284673163,0.0016072676562499,0
mp-541201,TlCuPO4,0.008199999999999,-1.9288272522278904,0.0,0
mp-1174,MgSc,0.0,-0.0364310750000003,0.0,0
mp-746670,CoH22C3(N3O4)2,3.147599999999999,-0.9742418379104996,0.0237817338124974,0
mp-771902,Li4Ti3Cr2Fe3O16,0.0,-2.5520488324999993,0.0577576397080434,0
mp-756014,Ba4HfO6,3.0638,-3.227148077954545,0.0631712777272737,0
mp-765110,LiVFe(P2O7)2,1.6782,-2.605342841899094,0.0081728604761837,0
mp-640357,Al2SiO5,4.0596,-3.135749532968749,0.2553386118750005,0
mp-12905,Ba3CrN3,0.0,-0.915366173877142,0.0,0
mp-974365,RuAu3,0.0,0.3926822775000005,0.3926822775000005,0
mp-21526,KPb,0.373499999999999,-0.2346554921875001,0.0,0
mp-642662,SrH2Cl2O,4.0372,-1.843872156251667,0.2929994916666665,0
mp-779519,Ba4Hf3O10,3.604,-3.6951431298529407,0.0056548723529417,0
mp-2752,Nb3Au,0.0,-0.0672178362499984,0.0227660275000012,0
mp-972985,KPdO3,0.0,-0.8470816787500006,0.1513762553333322,0
mp-32534,NaPWO6,3.745,-2.4407766414550283,0.0071173620370377,0
mp-622041,ThInAu2,0.0,-0.6450214799999996,0.0,0
mp-559374,TiS3,0.0,-0.9072219222135428,0.5591770299999981,0
mp-555704,ReO2F3,3.335,-2.4211280591366666,0.0,0
mp-760590,Li5(CuO2)3,0.0,-1.609620001964286,0.0220699946428606,0
mp-27843,Zn2Ge3O8,2.3392,-2.0307590319230764,0.0018808258974356,0
mp-777901,Li2VF5,2.1904,-3.1698944907437503,0.0556273258333224,0
mp-973757,PmBiRh2,0.0,-0.4686296756249994,0.0,0
mp-22678,Ce2Sb,0.0,-0.7300170649999996,0.0,0
mp-767862,MnCu4H14(SO9)2,0.0,-1.4463048078785905,0.0421922840384603,0
mp-570591,CsHgCl3,0.0,-1.5178639919560002,0.0325914791111103,0
mp-771139,Cs4HfO4,2.7399,-2.3669974983333333,0.0,0
mp-699401,CsScAsO4F,2.270399999999999,-2.3760823167112504,0.373639661249995,0
mp-762595,Li2Fe3CoO8,0.0,-1.6190049064285716,0.1664315810044625,0
mp-763132,LiV(CO3)2,2.3653,-2.0511545347500006,0.0990978415000123,0
mp-20133,NbCrN,0.0,-0.8281024166266668,0.0073983841666667,0
mp-558539,Cs2Ba2(CO3)3,4.3381,-2.472923888046876,0.0,0
mp-19697,Ba3NiSb2O9,2.3423,-2.3985289134166674,0.0,0
mp-770051,Li4AlCr3O8,3.1125,-2.56549260375,0.0083493229687512,0
mp-12633,Mn5B2P,0.0,-0.4788802258035716,0.0,0
mp-757953,ThNb4O12,1.3104,-3.212770825,0.0756525964705865,0
mp-540004,Li(WO2)2,0.0,-1.7246008192857138,0.3239601757142871,0
mp-707440,Sr2Mg3H10,2.8642,-0.4365062370799999,0.0027950663333333,0
mp-1008798,ReN2,0.0,0.1361492100800004,0.2304379880955558,0
mp-531358,Sr17(Ta5S21)2,1.811699999999999,-1.95518523928442,0.0060019071014494,0
mp-1026016,Te2Mo2W(SeS)2,0.0,-0.6586509161458339,0.0761176383333301,0
mp-776260,Zr2N2O,1.650399999999999,-2.3484338279520003,0.0048712922499998,0
mp-1863,SiAs,1.451899999999999,-0.0911766241666676,0.0,0
mp-766063,Na2W3O10,3.9794,-2.129702053499999,0.0941205673333342,0
mp-769641,Li2VCrO4,1.6276000000000002,-2.4379273518749995,0.0075191643750001,0
mp-17420,SmC10,0.0,0.2935310381060596,0.3406282590151513,0
mp-756054,Zr2N2O,0.1973,-2.2414693147020004,0.1118358055000001,0
mp-638705,FeTeS2N2Cl5,1.284,-0.7049810358350012,0.1409608487651334,0
mp-565337,FeTe6O13,2.346999999999999,-1.5434311360624997,0.0,0
mp-510708,LiFe(SiO3)2,2.7033,-2.8200497152500006,0.0007761644999826,0
mp-769766,Li3CrO4,0.5812,-2.116404418125001,0.0747697462499985,0
mp-10904,AlPt,0.0,-1.0466967362499997,0.0,0
mp-616461,Na2ZnCl4,4.5763,-1.8882245036485716,0.0,0
mp-763748,Li2CrPO4F,2.347199999999999,-2.6649200188094717,0.0520100932407441,0
mp-1009483,NiN,0.0,0.91668133881,0.9578065842066676,0
mp-669564,CsRe6S8Br3,1.4922,-1.015692103194444,0.0037098393055554,0
mp-707294,ZnP2H15C5NO9,4.7839,-1.1573046321703175,0.0974584589015164,0
mp-6449,CdCu2SiS4,0.9802999999999992,-0.8459549870312504,0.0,0
mp-29458,Rb3Mo2Cl9,0.9456,-1.7647193020957144,0.0,0
mp-704848,V2Re2O11,1.2164,-2.05615899925,0.200021241,0
mp-25802,Li2Bi(PO4)2,0.1672,-2.436476841373627,0.0637438319391021,0
mp-552089,Sr2Cu3O5,0.0,-1.849576848625,0.0125429120000006,0
mp-777129,TiO2,3.3083,-3.4707420532407416,0.0480889273148275,0
mp-2338,TbZn2,0.0,-0.3866819777777775,0.0,0
mp-695215,Y2Al9Si27(N15O)3,2.4673,-1.4497174533238368,0.07732928703488,0
mp-757505,LiNbPO5,0.0,-2.7622563539806544,0.0938366038819396,0
mp-764055,LiCo5O7F,0.339199999999999,-1.5763632132100005,0.0628683943749992,0
mp-554003,Sr4Li(BO3)3,4.1874,-3.1570788576470585,0.016575775220593,0
mp-299,Mo9Se11,0.0,-0.4697913542265624,0.0829814053750004,0
mp-979434,DyYTl2,0.0,-0.3545944547916666,0.0018106925000003,0
mp-609229,Co(CO)4,2.6524,-0.8406485298611115,0.4016895415277819,0
mp-763534,Li2Co2SiO6,0.7170000000000001,-2.0119302093181832,0.189962462999996,0
mp-1020123,MgSiO3,4.411099999999999,-3.2316170260000003,0.0189933975000027,0
mp-736225,Sr2Re4H16C3(N2O7)3,3.2622,-1.6054510778067306,0.0171767917910692,0
mp-974591,Rb4NO,0.0,-0.2511806722716668,0.4465614955555579,0
mp-11152,SiSbPt,0.2099,-0.4902401100000008,0.0,0
mp-766909,LiVF6,3.23,-2.9410448671425,0.0479447474999998,0
mp-2800,USi3,0.0,-0.37318141,0.0,0
mp-765758,Li3MnFe3O8,1.5508,-2.008702615064,0.0481455833333335,0
mp-769262,K5YO4,2.296599999999999,-1.989652595875,0.0107417397499993,0
mp-973269,SbTeO3,0.0,-0.8690040517500008,0.7695199512749991,0
mp-1020625,Rb8N3O,0.0,0.1792328509674998,0.6304819022916641,0
mp-753546,Li8TiS6,2.2894,-1.5940404554027785,0.0036665073333317,0
mp-549127,HoBi2ClO4,1.370999999999999,-2.4805877141575,0.0,0
mp-676248,GaCuTe2,0.0,-0.0763263712499999,0.2048658249999996,0
mp-744317,K2MoH2S2O9,2.9941,-1.9576251405696867,0.1244838781445318,0
mp-30744,IrW,0.0,-0.3021953124999985,0.0,0
mp-754929,Ga3NO3,1.004699999999999,-1.7745279526614286,0.0439744367857137,0
mp-4793,U(SiPd)2,0.0,-0.6239134919999998,0.0,0
mp-573321,TePdI2,0.515,-0.2442868712500004,0.0188262989999996,0
mp-31116,LaScO3,3.8831,-3.964086471749998,0.0,0
mp-3471,La2Ni5B4,0.0,-0.4729925024242425,0.0,0
mp-767740,V(PO3)3,2.3138,-2.641965477156594,0.0213968367307675,0
mp-756770,UNb6O16,0.0,-3.0658154900000008,0.0563802904347845,0
mp-7032,HfMoP,0.0,-0.9658374421428592,0.0,0
mp-1027002,Te2MoW3(SeS2)2,0.0,-0.7476841077864584,0.0917058608333354,0
mp-1674,PrSe,0.0,-1.840169354296875,0.0,0
mp-15805,Mn3ZnN,0.0,-0.2747272894759988,0.0,0
mp-13379,DyZnRh,0.0,-0.7367194347222222,0.0,0
mp-27943,W2N,0.0,0.3878090614288901,0.6483487672222203,0
mp-754154,CsHoO2,2.8172,-3.000731950625,0.0,0
mp-20538,HoMgIn,0.0,-0.3840073427777773,0.0,0
mp-542065,CdAgSb,0.0,0.0045300133333334,0.055103555,0
mp-560891,SnP2Cl8O3,3.0965,-1.6738483468586054,0.0,0
mp-18995,Ba2FeMoO6,0.0,-2.5778289737499995,0.0,0
mp-636476,SrCu3(RuO3)4,0.0,-1.4793898132499996,0.0189172421249983,0
mp-25104,La2NiIrO6,0.0,-2.51119703875,0.0017122223333325,0
mp-553082,PrBi2ClO4,1.1244,-2.398444678532501,0.0,0
mp-561536,NaMgBO3,3.5852,-2.7679880625694437,0.0056140083333344,0
mp-777303,Li3CrO4,0.9148,-2.105621363125,0.0855528012499995,0
mp-571377,TiCl3,0.0,-2.029358609945,0.026262777916667,0
mp-764350,Li3MnF5,4.2484,-3.068213261323334,0.0481506522222208,0
mp-27165,Hf8Ni21,0.0,-0.4944447937931039,0.0406664488275856,0
mp-773333,CrBiO4,1.117899999999999,-1.7442865429166652,0.0584969846180678,0
mp-556588,SiO2,4.0078,-2.9804921166666665,0.3042207908333339,0
mp-570258,Ca3(AlN2)2,2.526399999999999,-1.284550134946666,0.011811319861108,0
mp-773450,TiCrO4,0.0,-2.7144397236111097,0.072595245416652,0
mp-631354,ReOsRu,0.0,0.6913696650000011,0.7712758847222236,0
mp-945,NiPt,0.0,-0.0957261725,0.0,0
mp-20022,CeGeIr,0.0,-0.8771864774999992,0.0,0
mp-973276,HoLuCd2,0.0,-0.31030426375,0.0,0
mp-568836,Ba3GeI2,0.0,-1.2173357287500002,0.0,0