mpid,formula,BG,FE,e_hull,fidelity
mp-764190,NiP4O11,4.5253,-2.3958765792894345,0.0096107657812289,0
mp-28235,Tl(CuO)2,0.0,-0.8343591965000001,0.0,0
mp-865715,Li2PrTl,0.0,-0.2630886837500004,0.0,0
mp-780834,Li2FeF4,3.6802,-2.969163076394285,0.0218401185714292,0
mp-6455,NaNd(SO4)2,5.5386,-2.6503636233854166,0.0,0
mp-28217,Tl2PS3,2.2407,-0.7393298115054575,0.0,0
mp-12782,YbAl2Ni,0.0,-0.5284937187500001,0.0,0
mp-16807,Dy3(AlNi3)2,0.0,-0.5658230404545457,0.0,0
mp-778653,LiLa3Ti3CrO12,0.0,-3.45722902425,0.0560870750208266,0
mp-1029498,Li6CrN4,1.4398,-0.8243913731381812,0.0,0
mp-559734,UOF4,2.5352,-3.676056482668333,0.0237848404166696,0
mp-972895,ScAu3,0.0,-0.5880491499999998,0.0604318612499907,0
mp-510278,GdTiO3,0.0,-3.629136451083333,0.0262180425000106,0
mp-14364,Cs2LiAsO4,3.7302,-2.122094765,0.0,0
mp-605088,GaH19C8,3.558,-0.2279066031111904,0.0920579589211296,0
mp-761290,Mn5O8,0.0,-1.8997141972923064,0.0781269399038375,0
mp-767892,Li3CrPCO7,2.7651,-2.391586818603479,0.0816926500240358,0
mp-20209,Eu2ReO5,0.0,-2.815470288281248,0.0314428327205824,0
mp-6101,Ba3Nb6(Si2O13)2,2.281,-3.2594211239102573,0.0,0
mp-1029705,Na15Cr7N19,0.5928,-0.5271065151273162,0.0,0
mp-699467,B3H12CN4O,3.0203,-0.3414880812719041,0.4904180813492074,0
mp-3779,CrSiTe3,0.527999999999999,-0.1806865039999998,0.0,0
mp-540423,LiCr(PO3)4,3.4423,-2.6172563040211663,0.0393701043518444,0
mp-545529,NdBi2ClO4,1.183499999999999,-2.4150688444700004,0.0,0
mp-18198,ScSnPt,0.0,-1.0051891461111115,0.0,0
mp-2168,SnSe,0.704299999999999,-0.4214394967968746,0.0114482975000003,0
mp-684963,Fe3Se4,0.0,0.2413550679464283,0.5478760235714288,0
mp-763497,LiV(PO3)3,2.603999999999999,-2.6112260468239805,0.065081084955775,0
mp-559951,SrTa2Bi2O9,2.304,-2.850424796160714,0.0093579467857178,0
mp-1436,EuAg2,0.0,-0.3058985449999992,0.0,0
mp-669361,Cu2BiAsO6,0.0,-1.4025809615,0.0467927779999977,0
mp-765825,V2CoO4,0.0,-2.2287070142857144,0.0,0
mp-766767,Li5Co2Ni5O12,0.0,-1.405926146041666,0.0320131820138893,0
mp-22543,Sr2GdCu3(PbO4)2,0.0,-2.0658948718750008,0.0211539518750001,0
mp-12414,K(USe3)2,0.0,-1.0736583423958332,0.0,0
mp-762872,Li3Ti2Mn3O10,0.9013,-2.589037416039629,0.0470300385474349,0
mp-863,PuCo2,0.0,-0.149237613958333,0.0,0
mp-1018940,PrSe2,0.0,-1.6140206607291665,0.0190037024999991,0
mp-645364,Sr(PN2)2,4.264099999999999,-1.0895629275419725,0.0,0
mp-625948,H7NO6,3.4969,-1.2238241228728577,0.0406338460714295,0
mp-29252,Sn2ClF3,3.5512,-2.2915516394716677,0.0063893579166665,0
mp-978989,Tc7B3,0.0,-0.3200342829999997,0.0,0
mp-9872,K4BeP2,1.1402,-0.376565815884354,0.0,0
mp-1093,ThGe,0.0,-0.7743514974999997,0.0,0
mp-556600,CsS2N3O4,2.6646,-1.2937350042765003,0.1160655727860131,0
mp-867330,Al2FeNi,0.0,-0.4945683799999996,0.0003737399999996,0
mp-29989,Sm3(SiIr)2,0.0,-0.9231578967857144,0.0,0
mp-9912,Li2CeP2,0.8280999999999991,-1.0026840512380957,0.0,0
mp-19280,NaCr3O8,1.791,-1.9223691445833329,0.0,0
mp-10867,PrPPd,0.0,-1.2340666910317457,0.0,0
mp-1578,V3Rh,0.0,-0.3154040437500001,0.0,0
mp-11488,LaTl,0.0,-0.4127359474999999,0.0,0
mp-778032,LiV2(SiO4)2,1.136099999999999,-2.796801122692308,0.0767052364424056,0
mp-24995,PrFeO3,1.446699999999999,-2.87245401825,0.0,0
mp-775495,Li4V2Ni3Sb3O16,0.577399999999999,-1.91379927625,0.0867645357440407,0
mp-1235,TiIr,0.0,-0.8450975183333327,0.0,0
mp-30373,RbAu,0.3714,-0.2784415999999998,0.0,0
mp-763208,Li3Fe2(BO4)2,0.0,-2.2385158628888897,0.0967195917916639,0
mp-623590,RbV2SeO7,2.0099,-2.139047493849431,0.0,0
mp-569617,Ca3Zn2(CuP2)2,0.0449,-0.7866861374891769,0.0,0
mp-27626,Ge19(AsI)4,1.0131,-0.0881158668518519,0.0011262880864197,0
mp-780549,LiFe2O2F3,2.0132,-2.4623335138837508,0.0570733151388882,0
mp-10302,Ba2ScIrO6,0.0,-2.790170904250001,0.0,0
mp-865123,MgGaPd2,0.0,-0.7121771425000003,0.0,0
mp-21582,Nd4In5S13,0.0,-1.6121152535369314,0.0178878786363663,0
mp-14678,Y3Sc2Al3O12,4.2714,-3.824764192875002,0.0,0
mp-4022,Zr2CoSi2,0.0,-0.8947796210000007,0.0,0
mp-569707,BiSeBr,1.6912,-0.5493505920312499,0.0086397308333321,0
mp-779517,Sr3Hf2O7,3.6592,-3.686647601562501,0.021135927083332,0
mp-765381,Li9Ti7Cr6O30,0.0,-2.703684759695513,0.0918414497382418,0
mp-2565,S2N,1.696799999999999,-0.1393834055850007,0.0,0
mp-566762,V2Te2O7F2,2.4658,-2.136354033163846,0.0301527809283799,0
mp-6137,Mg4P6SN12,4.830500000000001,-1.0751892065736486,0.0,0
mp-31488,Li3NbO4,3.7757,-2.729748163125,0.0,0
mp-763382,Li2Co2Si2O7,2.8249,-2.4779944412499995,0.046905043269227,0
mp-631320,TcIrOs,0.0,0.5513820616666673,0.6795454552083342,0
mp-542237,SmP4HO12,5.7384,-2.801327321861166,0.0,0
mp-643108,Yb4Mg3H14,3.0929,-0.5237684214609521,0.0056247237218052,0
mp-570512,LiWCl6,0.0,-1.5209510161950002,0.0081348059375025,0
mp-859874,Mg2PbO4,1.329799999999999,-2.222055300714285,0.0938540671428569,0
mp-3264,Th(NiGe)2,0.0,-0.7076860320000001,0.0,0
mp-556084,KClO3,5.5613,-1.284317911902,0.0206739431250024,0
mp-504555,KU2F9,0.1714,-3.8570649404758335,0.0,0
mp-558577,FeSO3,2.228399999999999,-1.8744168515625008,0.0632754234499994,0
mp-13580,LuGePt,0.0,-1.1220178224999997,0.0,0
mp-504885,BaFe(Si2O5)2,3.5786,-3.1420394832812493,0.00229409078125,0
mp-756127,TaNbO5,2.3307,-3.1644834601785714,0.0395128110714289,0
mp-20206,ThIn3,0.0,-0.3604438699999992,0.0,0
mp-853249,Li4Mn3OF8,1.775399999999999,-2.890203920228125,0.0705416799999962,0
mp-555730,Na2Ca3Al2F14,7.143,-3.898427357936191,0.0086929419047612,0
mp-18636,Ba3Sn5,0.0,-0.6228083662500001,0.0,0
mp-10101,CsAgC2,2.6144,0.3519197499999995,0.3805225224999997,0
mp-673645,Mo7S8,0.0,-0.9190852968333332,0.1257090640000004,0
mp-975207,RbSmO3,0.0,-2.21739590725,0.2602117253749991,0
mp-776817,LiFeF5,1.2092,-2.4495087844214294,0.0922811621428589,0
mp-569188,La(AsRu)2,0.0,-0.7758589560000004,0.0,0
mp-753809,BaCaI4,3.7974,-1.691911365,0.0273774168749998,0
mp-771293,Mg3WO6,3.9264,-2.7335690740000005,0.0346089767499995,0
mp-773772,NaLi5Mn2P2(CO7)2,3.599499999999999,-2.4200799371388646,0.0469286385897431,0
mp-2455,As2Os,0.6546000000000001,-0.2199838866666669,0.0,0
mp-4922,MnAlNi2,0.0,-0.3994758450000005,0.0,0
mp-1020725,Sr4Li2B12O23,4.6951,-3.0348254621646333,0.002396261402433,0
mp-867242,Sc2ZnGa,0.0,-0.5139945637499999,0.0,0
mp-863893,Li4Ni(PO3)6,4.3492,-2.527484852795567,0.072470827327586,0
mp-690727,H2PbO2,2.5105,-1.254717029447999,0.1719491349999984,0
mp-3359,Ba2SnO4,2.442199999999999,-2.7388915385714294,0.0,0
mp-556705,AsS(ClF2)3,3.7778,-1.9012509119075,0.0,0
mp-542782,H8C3(NO)3,3.0245,-0.8076641861676471,0.0865213442279406,0
mp-2450,CaSn,0.0,-0.6387002000000002,0.0,0
mp-997017,AgClO2,0.0254,-0.3870644901899998,0.19032234375,0
mp-780764,LiCuP4O11,0.349899999999999,-2.3271788408018206,0.0820511310048601,0
mp-565693,TmMoClO4,2.6771,-2.7440870790371426,0.0,0
mp-1013546,Ca3Sb2,0.0864,-0.5871031240000004,0.3791800872941158,0
mp-558332,K5Au(IO)2,1.8748,-1.3867485147500005,0.0,0
mp-568802,KBi(PSe3)2,1.7577,-0.3987884862752978,0.0023891085000009,0
mp-765668,V2O3F,1.235999999999999,-2.6686401061011105,0.0027692522222224,0
mp-1013900,TiSCl,0.0,-1.9168909263297216,0.0,0
mp-1029522,Li7SbN4,2.2181,-0.5336238953766662,0.0,0
mp-865737,Li2InSn,0.0,-0.3099143687499999,0.0,0
mp-773610,Na2FeAsCO7,2.141899999999999,-1.9885330963541663,0.0,0
mp-763521,LiVPO5,1.626399999999999,-2.6218059074181546,0.0579624987500109,0
mp-542974,K3Nd(PS4)2,2.4434,-1.4489790429421767,0.0,0
mp-20498,YbGeRh,0.0,-0.8882851341666674,0.0,0
mp-15965,Hf5Si3,0.0,-0.7461274387499994,0.0346353599999993,0
mp-10653,SrTe,0.4752,-1.50619464,0.2390955299999997,0
mp-759161,H21C6N2Cl3,5.3657,-0.4691246787674999,0.0864367027343755,0
mp-4908,Y(CoGe)2,0.0,-0.6138171305,0.0,0
mp-754663,Na2Be2O3,4.268000000000001,-2.42355106125,0.0353839571428622,0
mp-676349,Ga7(CuSe4)3,0.0,-0.5021290415056818,0.0233910747727268,0
mp-1025689,Mo(WS3)2,1.290499999999999,-1.276048649375001,0.0017680172222203,0
mp-29727,Ta4O,0.0,-0.7188693622499998,0.220515411600001,0
mp-770253,Li4Cr3GaO8,3.072699999999999,-2.379952733125,0.017236559375001,0
mp-676800,Ti7Ni3N10,0.0,-1.0918109455233336,0.2560248512620013,0
mp-8159,TlCu4S3,0.0,-0.4602045283984384,0.001094902187499,0
mp-604486,LiB3H18N5,3.2896,-0.4946048029466665,0.0787487579012333,0
mp-761306,Li3CrB4O9,2.1422,-2.6309863139950984,0.0892546363234814,0
mp-777130,Li2FeF4,3.3952,-2.9012783949657135,0.0897247999999999,0
mp-761704,Bi4O5F2,2.540999999999999,-1.91909374283,0.0557805968181792,0
mp-771611,Li5V4O8,0.880799999999999,-2.3402040923529412,0.0507624796078429,0
mp-780531,Na3Mn3O8,0.0,-1.8563986403842856,0.0131351764732157,0
mp-11764,HoSnPd,0.0,-0.9141033700000006,0.0,0
mp-1841,SiIr3,0.0,-0.3731866799999981,0.0,0
mp-556418,AlSCl3O2,3.9643,-1.9231519609060723,0.0,0
mp-695817,ScF3,1.7908,-3.4124808996425,0.9066563900000002,0
mp-755894,Li2O,5.242199999999999,-1.98607039875,0.0854445916666666,0
mp-767721,Li2Mn(CO3)2,3.6796,-2.082470996678181,0.073030624545459,0
mp-851118,KNa2LiZr2(Si2O5)6,4.7587,-3.2372098596354166,0.0145364746874996,0
mp-2465,DyPt3,0.0,-1.0241267641666658,0.0,0
mp-628599,YbBi2IO4,0.0,-1.9374777681250004,0.0332118623090274,0
mp-559039,PH3PbCO3,4.1371,-1.424689124652434,0.0078070943192551,0
mp-755486,Na2SnO3,2.258399999999999,-2.071318532708334,0.0181243479166672,0
mp-675766,K4CO6,0.118299999999999,-1.331372315909091,0.3335530572727272,0
mp-756654,SbOF,2.7582,-2.1354713191466668,0.0829909843750025,0
mp-3704,Cs2Mn3Se4,0.440099999999999,-0.740418374930556,0.0,0
mp-653891,NbTe2(SeI3)2,0.9449999999999992,-0.3419806299715912,0.0,0
mp-605108,Al2P3H11O13,5.8945,-2.007597429322611,0.0125296894408855,0
mp-767479,Li2V2SiGeO10,1.851999999999999,-2.472233473906249,0.0604804284374997,0
mp-1029076,Te2Mo(WS2)3,0.0,-0.9156990611979172,0.0997347200000016,0
mp-770185,Li4CrFe3O8,1.7019,-2.156460113124999,0.0011237828125016,0
mp-676459,Ca2LaF7,5.8738,-4.264006981333,0.0830694141666672,0
mp-625956,Co(HO)2,2.2614,-1.121243131947999,0.2452862034999947,0
mp-541431,Ca2SiH2O5,4.6543,-2.855422175849,0.0029605627500002,0
mp-735513,CoH20S2N6ClO4,2.5831,-0.8812488903842639,0.0276562881629427,0
mp-720376,H4SeO5,3.5177,-1.2383157058073742,0.0,0
mp-999544,YAg2,0.0,-0.3333738074999998,0.0,0
mp-557583,TlInAs2O7,2.992,-1.7519010307954543,0.0,0
mp-1018809,MoS2,1.3377,-1.3053533877083332,0.0006395633333333,0
mp-778538,Mn6O5F7,0.0,-2.422186014185556,0.0748276820139004,0
mp-36209,TmCuSe2,1.1678,-1.197333484296875,0.0,0
mp-772353,Li4Cr3O8,0.241099999999999,-2.179154104,0.0844085678888859,0
mp-828,SiNi3,0.0,-0.4559368650000009,0.0,0
mp-17893,Mn4Nb2Si5,0.0,-0.225901697727273,0.2963979906313154,0
mp-770548,Na6Cr2P(CO4)4,0.0,-2.1587050964860435,0.0427036760344821,0
mp-864899,NpP3,0.0,-0.4443248820089289,0.0,0
mp-637582,Rb2BaPt2(CN)8,1.6897,-0.3463742770971421,0.0646851360714215,0
mp-754417,H2,0.0,4.440892098500626e-16,4.440892098500626e-16,0
mp-4721,RbSb3Se5,1.2305,-0.4518516636631951,0.0,0
mp-695396,Na3SrTiNb3O12,1.656499999999999,-3.0052650438333344,0.03321601725,0
mp-5451,Er(FeGe)2,0.0,-0.4477835210000009,0.0,0
mp-767033,LiVSiO4,0.8512999999999991,-2.779600980714285,0.0725728358035704,0
mp-778859,Li3Mn2Fe(BO3)3,2.6271,-2.486789480176111,0.0020174210185208,0
mp-861555,Na3(CoO2)5,0.304399999999999,-1.4944694854166665,0.0229099490000122,0
mp-765966,LiVF6,3.077099999999999,-2.9889896146425,0.0,0
mp-559415,Na2Cu2Si4O11,0.2544,-2.580426403881579,0.0411145801315804,0
mp-565252,Na3Fe2(PO4)3,2.2767,-2.5205186172142873,0.0024160167500211,0
mp-556091,Cs3Ta2S11,1.688299999999999,-1.34862799935547,0.0,0
mp-2218,Er5Mg24,0.0,-0.0319006356896549,0.0022918548275865,0
mp-764189,Li3Mn2F7,3.4951,-3.0343930537708332,0.0497127175000002,0
mp-7825,K2GeF6,5.799799999999999,-3.052899431348889,0.0035052399999999,0
mp-28946,Bi3NF6,2.771,-2.2070568557020005,0.0311738895119999,0
mp-675252,Yb2MnS4,0.0,-1.624650940892857,0.2785208514285697,0
mp-1009,SrSi6,0.0,-0.0830447114285724,0.0734361549999995,0
mp-16622,NdAl7Au3,0.0,-0.520774037045454,0.0,0
mp-641573,Cr21(MoC3)2,0.0,-0.0972498970689638,0.0,0
mp-696695,BaCaCO3,0.0,-2.1127396827083333,0.5871641585416674,0
mp-643710,Cs3B12H12I,4.535,-0.5362361472657143,0.0046689396428565,0
mp-17216,Hf5Si4,0.0,-0.8047003274999993,0.0062940419444448,0
mp-851007,Li6Co2C4SO16,0.0,-2.012059841002155,0.0943150872413784,0
mp-930,ZrP,0.0,-1.3345562890476197,0.046088792499999,0
mp-569086,DyInNi,0.0,-0.5099377833333334,0.0,0
mp-764049,V6O5F19,2.2316,-2.7485421717953336,0.0305198067499867,0
mp-1029542,Na6MoN4,1.368599999999999,-0.3687677072290909,0.029431159772729,0
mp-676877,Nb(Cl2O)2,0.0,-1.3933352865057145,0.25794516033333,0
mp-13074,LuNiPb,0.0,-0.4038543144444446,0.0,0
mp-625739,Al(HO)3,4.8633,-2.095905743515714,0.0407087689285727,0
mp-764061,Na6CoO4,0.7895999999999991,-1.4704990231818185,0.0259839413636351,0
mp-567907,P3N5,3.5526,-0.5397607563982145,0.0,0
mp-14722,NaSrAlF6,6.9765999999999995,-3.849394636904444,0.0,0
mp-22921,TbBi,0.0,-0.8716356791666664,0.0,0
mp-4007,Nd(SiNi)2,0.0,-0.8104512155000009,0.0,0
mp-762568,Li2Mn(PO4)2,0.6234000000000001,-2.472810506703882,0.0483785558012819,0
mp-773599,NaSb3O8,0.8921999999999991,-1.9048237445833331,0.0267002912499991,0
mp-971683,C3N4,2.1853,0.1108955211400005,0.1108955211399998,0
mp-555958,Ba2Li3(PO3)7,5.451099999999999,-2.873767192588383,0.0,0
mp-780213,Ni3OF5,0.402899999999999,-1.808299523577778,0.0725510710648142,0
mp-980110,Th(NiSn)2,0.0,-0.5215409800000004,0.0,0
mp-861484,LiMnPO4,3.4985,-2.6360070141507483,0.0141512128571426,0
mp-510040,Zr2Ni2Sn,0.0,-0.5743161345000019,0.0170552514999986,0
mp-11176,Ca3(SiIr)4,0.0,-0.8653743027272728,0.0,0
mp-1027576,TeMo2Se2S,0.0,-0.6886004385416662,0.0405489808333321,0
mp-775127,Li4Fe3O8,0.0,-1.7557769259999996,0.1393138452500019,0
mp-37680,LiGdSe2,1.209099999999999,-1.6790820330468748,0.0129003787500003,0
mp-610517,Ag2S,0.994499999999999,-0.2546709555208337,0.0235570975000021,0
mp-6575,Ba4Na(BO3)3,3.9839,-3.0662010173529417,0.0,0
mp-555664,ZnS,2.020699999999999,-1.1400692143229163,0.0002341402083336,0
mp-771839,Na4Co2C4SO16,0.0,-1.8743090068171293,0.0373410730555452,0
mp-1700,AlN,3.306099999999999,-1.5732990661899997,0.0213318350000015,0
mp-2341,Li3N,1.218,-0.4509788005949997,0.0096744400000003,0
mp-540222,MnP2O7,1.0426,-2.367275096840048,0.0304409957499993,0
mp-605344,ZnH4SeO6,2.7471,-1.3762409542144785,0.017978727291668,0
mp-762470,Li3Fe5(PO4)6,1.8148,-2.4109948599624067,0.0927966442105408,0
mp-11262,YbAu4,0.0,-0.5539804919999998,0.0,0
mp-6591,SrLiAlF6,7.3154,-3.897299125793335,0.0,0
mp-978832,Sm3Pd,0.0,-0.1545813193750005,0.2731309825000005,0
mp-978625,Sm2MgTl,0.0,-0.2569212524999997,0.005499044375,0
mp-675475,Li2MnBr4,1.4742,-1.1966443714285708,0.0525824285714282,0
mp-780089,Li3MnSi2O7,1.4716999999999991,-2.709450709208461,0.0692660248116086,0
mp-676591,Li11Nb12O36,0.0,-2.8555891872033903,0.0420872059216144,0
mp-569843,MnBr2,1.5292,-0.8167750066666658,0.0003051933333333,0
mp-556761,Ba5As3ClO12,3.995999999999999,-2.7536268449171435,0.0,0
mp-3541,CeNiGe2,0.0,-0.7210913774999996,0.0,0
mp-6473,Ca5P3O12F,5.5148,-3.434524383832178,0.0,0
mp-560453,Ca7Cu(PtO6)2,0.0,-2.4914440056818177,0.0173270225757606,0
mp-540900,B2PdO4,0.7786000000000001,-2.2242582930952386,0.013396641190476,0
mp-561126,Nd3Si2S8I,2.547999999999999,-1.8284198860714287,0.0,0
mp-771267,LiZnFe7O12,1.3962,-1.870086198095238,0.0544937873809505,0
mp-570314,CdI2,2.3605,-0.5914745872222221,0.0006624113333333,0
mp-1029811,Y4Te3N2,1.1482,-1.62476267164,0.0,0
mp-9069,K2NaAlAs2,1.026,-0.5715926999999995,0.0,0
mp-1019080,ReN2,0.0,-0.0309260182533321,0.0633627597622261,0
mp-771711,Li4V3CoO8,0.8467000000000001,-2.324836486875,0.0416721614062511,0
mp-567164,BRh,0.0,-0.3787411233333336,0.0,0
mp-99,Er,0.0,0.0,0.0,0
mp-29144,KTe2F9,4.5077,-2.6462257871424995,0.0,0
mp-567927,ZrAlPt,0.0,-1.0471646450000014,0.0,0
mp-21865,FeCu2Sn,0.0,0.2299684387500003,0.2431613012500007,0
mp-773714,SrV4O10,1.6631,-2.6098732521666665,0.0005791714583214,0
mp-18093,Al2Mo3C,0.0,-0.1663108391666661,0.0500584291666665,0
mp-1008661,AuC,0.0,2.24468682625,2.24468682625,0
mp-770477,Li2CuAsCO7,0.120699999999999,-1.7611331388541664,0.0382411087500012,0
mp-973561,LiCe2Ru,0.0,-0.0900566537499996,0.1370806604166672,0
mp-15227,NdPd3S4,0.0,-1.2405959410937504,0.0,0
mp-560882,SeO2,3.4194,-1.156958470364583,0.0102402770833336,0
mp-1013762,LiTi2P2O9,0.0425,-3.014419536483844,0.0501229237771845,0
mp-753403,LiCu2(CO3)2,0.0,-1.5881391302272734,0.019935581022727,0
mp-558749,RbMnF3,2.9422,-3.037489925906,0.0,0
mp-626094,Al(HO)3,4.3399,-2.094129332622857,0.0424851798214289,0
mp-984767,DyHoIn2,0.0,-0.4655447879166671,0.0,0
mp-764431,LiMn2F5,3.4517,-2.9900071728587503,0.0457113849999997,0
mp-989619,LaTcN3,0.0,-0.8263898819279987,0.0,0
mp-15487,Ag6Ge2O7,0.0097,-1.0334349490833332,0.005653096833349,0
mp-862930,Li2PmIn,0.0,-0.3211178943750004,0.0,0
mp-980667,SrBr3,0.0,-1.2950735099999997,0.3215682068750003,0
mp-754736,BaSr3I8,3.1392,-1.70009055,0.0351513353124999,0
mp-541176,CsV2P5O16,0.0053,-2.7184496625198418,0.0,0
mp-772087,Er3Sb5O12,3.1169,-2.6902607207500004,0.0,0
mp-674976,Zr9ScO20,0.0,-3.7096752805,0.0722278372083344,0
mp-774071,Li2Mn3(CoO4)3,1.0678,-1.708629307894001,0.0313834172499998,0
mp-654900,CuH9C4NO6,0.0,-0.3592308009504766,0.7576537241071426,0
mp-34508,Sr(SmS2)2,2.1281,-2.460373606607143,0.0125471735714297,0
mp-555512,RbCO2,4.245699999999999,-1.9112729637499992,0.0,0
mp-13033,MgTe,2.3186,-0.8733390500000002,0.0008903524999999,0
mp-21197,NdIn3,0.0,-0.4735723568749997,0.0,0
mp-567173,K2Mn2Zn4Si4O15,1.6655,-2.564079618172963,0.0051024099074066,0
mp-780872,LiMnSiO4,0.9821,-2.58938617853,0.0883198698286937,0
mp-558886,K2Ce(NO3)6,1.3666,-1.4826260933375313,0.0,0
mp-565454,K2MoCl5O,2.7579,-1.87628831695,0.0,0
mp-36033,PrOF,5.163699999999999,-4.094488282480001,0.0546068416666658,0
mp-565301,KFe2(PO4)2,1.9463,-2.492468699514653,0.0023894207692238,0
mp-705486,U3Cu2H10(CO10)2,0.7617,-2.1083841274648645,0.0246350045270258,0
mp-557071,KBi6ClO9,2.3531,-1.7160267265152944,0.0078685509558829,0
mp-942702,LiMnSO4F,3.9043,-2.4201967270265623,0.0143302996875025,0
mp-561423,ZrTlCdF7,2.2065,-3.2299610888329995,0.0,0
mp-32780,AuCl,1.8679,-0.5078424503800001,0.0,0
mp-9197,Li3AsO4,4.1268,-2.28241959125,0.0,0
mp-1029275,SrZrN2,1.216599999999999,-1.489264819939999,0.0,0
mp-27861,Ce(Re2Si)2,0.0,-0.4619912514285716,0.0,0
mp-558208,RbInAs2O7,2.5506,-1.936653215113636,0.0,0
mp-763678,Li13(FeO6)2,0.0,-1.871383061666667,0.0647431050925932,0
mp-13199,Zn3TeO6,1.062799999999999,-1.7105453227500007,0.0,0
mp-775508,Li4Mn3Cu2Sn3O16,0.1002,-1.850186053852857,0.1085746715476041,0
mp-2028,Be2Nb,0.0,-0.1817840283333337,0.0189517075396832,0
mp-976949,Lu3In,0.0,-0.2469313824999997,0.0039035362500001,0
mp-28805,Tl2Pt5S6,0.963499999999999,-0.7410289495673078,0.0,0
mp-541108,Cd2Si(P2O7)2,4.0752,-2.581634942137188,0.0,0
mp-779873,Li8Mn7Fe(BO3)8,2.981099999999999,-2.5086074354177774,0.0043935325347197,0
mp-5756,Cu3PSe4,0.0026,-0.1439200828087798,0.0,0
mp-757899,Li3Sn2(PO4)3,2.175099999999999,-2.5258120698392856,0.0441935470833287,0
mp-861528,V3CoO8,1.8485,-2.2286495087500007,0.0007259562499939,0
mp-861684,LiMnPO4,3.5553,-2.574930045043606,0.0752281819642846,0
mp-12607,PrPt,0.0,-1.108529475,0.0040539237499999,0
mp-2172,AlAs,1.5036999999999991,-0.4839367425000001,0.0,0
mp-28131,C(Se2Br)2,1.497099999999999,0.1387102775892853,0.1933471730691956,0
mp-774379,Cr4OF11,0.869599999999999,-2.8823802137087497,0.0331917776822905,0
mp-997030,CaAgO2,0.0,-1.881238868125,0.0306797324999994,0
mp-33985,Ba(InTe2)2,0.8650000000000001,-0.7710692699999997,0.014544667142859,0
mp-759722,SiH8(NF3)2,6.464599999999999,-1.8874399850505883,0.0,0
mp-41283,BaLaTaMnO6,0.9447999999999992,-3.203972451846,0.0915678908571422,0
mp-12263,LiAuF4,2.0738,-2.0288131466266663,0.0042320325,0
mp-555953,Na2Cu2Si4H4O13,0.183699999999999,-2.2742584412292,0.0519127451000001,0
mp-769316,Li5Nb3OF18,3.9757,-3.2701449725062965,0.0855736562500011,0
mp-766457,LiSnP2O7,1.5229,-2.5210087206764062,0.0479970538636376,0
mp-2657,TiO2,1.780999999999999,-3.4821207997222223,0.0367101808333458,0
mp-976265,Hf2OsPd,0.0,-0.6837396337499992,0.0162103524999999,0
mp-9367,RbErS2,2.3521,-2.1844980257812505,0.0,0
mp-695243,Na2SrLa2Ti5O15,1.995,-3.474041947483333,0.0109936583599967,0
mp-19875,GdSiRu,0.0,-0.8096361366666672,0.0,0