mpid,formula,BG,FE,e_hull,fidelity
mp-541000,K3As11,1.467099999999999,-0.2699652926785713,0.0,0
mp-569505,TbRe2SiC,0.0,-0.4664282841666662,0.0,0
mp-850256,LiFe2(BO3)2,1.5856,-2.361860021439393,0.0542233151704794,0
mp-637378,Gd3InN,0.0,-1.021445348476,0.0,0
mp-860791,AgSbO3,0.288699999999999,-1.401773566416667,0.0438597453333331,0
mp-761626,Li4Co5SbO12,0.0,-1.707269453181819,0.0787723601136276,0
mp-763884,Cr2O5F2,2.3236,-1.7378728359588882,0.0927470972685204,0
mp-556891,KFeF3,2.907,-2.6210927417139995,0.2026356359999974,0
mp-662810,Na5Lu(SiO3)4,3.6801999999999992,-3.003677843712121,0.0179685475378761,0
mp-638038,SiO2,0.0,-2.042854317083333,1.2418585904166628,0
mp-640515,LiV(SiO3)2,1.8767,-2.98495395275,0.0,0
mp-30443,Be17Ru3,0.0,-0.2740814963749997,0.0,0
mp-622116,ReOF4,0.9318,-2.4574736357933333,0.0,0
mp-567612,ScOs2,0.0,-0.3899574016666657,0.0,0
mp-1008873,MnCoSe,0.0,-0.0597020461979163,0.1804737583333313,0
mp-754531,Al2O3,4.369999999999999,-3.36550598075,0.0766075200000004,0
mp-20337,ZrPbO3,2.6739,-2.859286900750001,0.0328110550000033,0
mp-999437,Nb3Ni,0.0,0.110010944999999,0.20566907125,0
mp-29396,Cu2PbO2,0.629,-0.9887987294999996,0.0,0
mp-755453,MnP4,0.0,-0.3252049704761902,0.0396314153333339,0
mp-768068,Li2MnFe3O8,0.0,-1.8610985150685704,0.0860953890625007,0
mp-769633,NaFePCO7,0.069099999999999,-2.1303690390313856,0.0362620981704413,0
mp-761886,Li2Cu2F5,0.0,-2.2790982848277777,0.0421052805555559,0
mp-5725,CuAg3S2,0.2464,-0.2723091771875001,0.0434330097222224,0
mp-540321,FeP2O7,0.0,-2.2829153164940466,0.0936062839791676,0
mp-555646,BaH4(CO3)2,3.4081,-1.8391795513061544,0.0457996674999989,0
mp-29629,Be3P2,0.1451,-0.1495137078630946,0.0840212243750011,0
mp-2644,CoSb,0.0,-0.1588420349999992,0.0,0
mp-623,HgPt,0.0,0.0463272025000001,0.1073141512500002,0
mp-12696,YMgPd,0.0,-0.6940130952777773,0.0,0
mp-752429,ScTlO3,0.927999999999999,-2.47241788825,0.0786498696250008,0
mp-770430,GdTa3O9,2.4874,-3.5024257108653845,0.0236833600000174,0
mp-11318,CePt3,0.0,-0.9735769175,0.0,0
mp-13019,NaLa2TaO6,3.981199999999999,-3.5227868962500017,0.0,0
mp-774406,Cr3Ni(PO4)6,0.0,-2.184492568193278,0.0857761044852924,0
mp-773306,CrCo5O12,0.453599999999999,-1.226633461944445,0.0672283961111155,0
mp-772991,Er2Bi2O7,0.373,-2.558806365795455,0.0965875662500002,0
mp-24179,KH6C2S2NO4,5.3158,-0.9984540701390624,0.21635619696875,0
mp-765547,Li3V(OF)2,0.460699999999999,-2.730297914985,0.1045763343749976,0
mp-675771,AlPO4,1.1049,-2.809413550515873,0.3290516000000041,0
mp-531826,Li2PtO3,1.9603,-1.6931056296527782,0.0,0
mp-759838,NaSn2(PO4)3,3.288599999999999,-2.5189626252380943,0.0303133133333322,0
mp-556030,BaCuCO3F2,0.435299999999999,-2.459366425141249,0.0158891081250001,0
mp-9305,Mn4As3,0.0,-0.175513358571428,0.0549010553571429,0
mp-776860,Li4Fe3Co3(WO8)2,0.591299999999999,-1.9385476471428569,0.0639588481250017,0
mp-767725,Sr2CrCO3F5,3.3819,-3.249916853516668,0.0,0
mp-27637,NiBr2,0.0,-0.3618387100000001,0.0,0
mp-703516,K2TiH2O3F4,2.5149,-2.633795084368056,0.0058893607812526,0
mp-780415,NaEuO2,0.0,-2.620255885625,0.0,0
mp-983550,Pa3Nb,0.0,0.1844490987499991,0.1844490987499991,0
mp-1008394,Cl2,2.2452,0.0,0.0,0
mp-761817,LiNbVO4,1.2698,-2.677958550357144,0.0370823911607178,0
mp-554894,MgTlP(H6O5)2,4.5212,-1.7403214503614095,0.0,0
mp-779799,Li24Mn5Cr7O36,0.883,-2.2147060365249995,0.0147666555555527,0
mp-1018822,NdZnIn,0.0,-0.4551461358333331,0.0,0
mp-10596,FeIr3,0.0,-0.0008601749999996,0.0,0
mp-13744,Rb3GaO3,2.4165,-1.8446615262500003,0.0,0
mp-773575,LiMnF3,3.6033,-2.999101706906,0.0656491789999993,0
mp-768417,LaAlO3,4.276999999999999,-3.7007542904166666,0.0350426053333343,0
mp-764296,V2OF5,1.561,-2.9982563433999996,0.0539344381249993,0
mp-3579,UGeSe,0.0,-0.7937560195312502,0.0,0
mp-8129,NiC2(SN)2,0.0,-0.0664576868407148,0.2393165979764626,0
mp-15113,Na2Si3O7,4.6833,-2.921643740729167,0.090154391875,0
mp-35876,Ca(NdS2)2,2.061299999999999,-2.4549940830357144,0.0123006071428575,0
mp-505368,As2Pb3O8,3.306,-1.748595225,0.0,0
mp-22939,BiClO,2.5584,-1.695003436503334,0.0,0
mp-21000,Dy(MnGe)2,0.0,-0.4798740153333327,0.0,0
mp-765829,HfCoO3,2.4865,-2.861589622250001,0.0939565369999986,0
mp-30412,Pb3Au,0.0,-0.0587788993749995,0.0042969368749998,0
mp-24674,Be3P2(H2O5)2,5.8481,-2.4686697756931832,0.0,0
mp-620346,Ba3InAs3,0.5167,-0.9797467421428578,0.0,0
mp-1029528,NaCoN,0.0,0.1961805425399999,0.3691184883333287,0
mp-30938,PAuS4,1.3165,-0.6141143407242069,0.0,0
mp-1018141,BaC2,1.3754,0.1788283083333333,0.1788283083333341,0
mp-998918,TlFeSe2,0.0,-0.1670546605468752,0.1535892571249979,0
mp-568912,Be12Nb,0.0,-0.1476834153846154,0.0,0
mp-570761,Mn2Os(CN)6,1.779299999999999,-0.0119820449519996,0.1167616486986684,0
mp-776610,Ba6YI15,3.166099999999999,-1.6448930347727269,0.0894280250000014,0
mp-29955,Hg3(SeI)2,1.1701,-0.2662866249553572,0.0,0
mp-22925,AgI,1.3678,-0.2836982649999999,0.0,0
mp-11852,NdCu2,0.0,-0.2121728258333325,0.0,0
mp-752947,NaTiS2,0.0,-1.6767343524479177,0.0073241524999998,0
mp-655360,UI4,0.267599999999999,-0.8352111180000001,0.0,0
mp-8638,Tc,0.0,0.0694062399999992,0.0694062399999992,0
mp-541818,Rb4(BSe)9,2.1943,-0.5850117119247151,0.0,0
mp-22565,MnSiRh,0.0,-0.5782044716666661,0.0,0
mp-571617,Sr2LiInGe2,0.0,-0.5447075741666664,0.0,0
mp-764644,Li5FeO3F,1.9363,-2.205231352494,0.0387723404999977,0
mp-2929,BaTbO3,0.0,-3.1173811694166664,0.1093089819999999,0
mp-972367,UAlO3,0.0,-3.2352326867500003,0.1911276455250004,0
mp-510279,ZnAsHPbO5,3.230199999999999,-1.7145708224855545,0.0,0
mp-767328,Li5Fe5Si7O24,2.372999999999999,-2.646899223658538,0.0720977963414375,0
mp-696878,K3CaP2HO8,4.9617,-2.749469510320698,0.0,0
mp-24831,DyH4I3O11,3.7184999999999993,-1.464024212099824,0.0050437564473693,0
mp-867325,Pu2HgSb,0.0,-0.3791652546875,0.0,0
mp-757038,LiSiBiO4,3.639199999999999,-2.531891137857143,0.0277545412500028,0
mp-972931,EuMgO3,0.0,-2.54863672575,0.2385703418750005,0
mp-780010,Ba2GeO4,3.7083,-2.869059766607143,0.0017927279166665,0
mp-1028452,Te3W2Se,0.3096,-0.1763304797656246,0.0428109643750005,0
mp-763516,LiCoSiO4,1.3321,-2.3575052950000006,0.0783017384999862,0
mp-763861,Li2VFe(P2O7)2,1.6987,-2.6647882220400434,0.0014680434090683,0
mp-985588,FeCl,0.0,0.0925610583699994,0.9247261700000003,0
mp-14389,Na3AlP8O23,5.2445,-2.7091402915289127,0.0,0
mp-975887,PrNd3,0.0,0.0116682493749999,0.0116682493749999,0
mp-8591,USe2,0.0,-1.0976343246180562,0.0278302287777769,0
mp-567401,Tb4Zn5Ge6,0.0,-0.4767582702222224,0.0496859667516345,0
mp-5605,Ce(SiAg)2,0.0,-0.3956406279999996,0.003724408,0
mp-770069,Li4CrFe(WO6)2,0.7415,-2.1409687022500004,0.0775221709861284,0
mp-630875,Ca2In4Au3,0.0,-0.534005404722222,0.0,0
mp-756296,ErTiO3,0.0,-3.658643125583334,0.0591609107500179,0
mp-13089,Cu2SnTe3,0.0,-0.138260389166667,0.0,0
mp-972898,Sc2GaAu,0.0,-0.6905765925000003,0.00724051125,0
mp-685618,FeAgTe2,0.0,0.1734544500000003,0.3042650687500004,0
mp-565302,ErMoO4F,3.7276,-3.0662652794557133,0.0,0
mp-775404,Na3Mn2P2(CO7)2,0.0,-2.259313924809152,0.007664301521725,0
mp-8627,SmBO3,5.1718,-3.5046299530833327,0.0,0
mp-684950,KNaZr2Be(PO4)4,2.6611,-2.171605929695238,0.9464191857999972,0
mp-569350,La5Sn3Br,0.0,-0.969682422777778,0.0,0
mp-771238,Y2TeO6,2.2226999999999992,-2.9885557577777777,0.0347223383333332,0
mp-773918,Zn(Bi19O30)2,0.9178,-1.6112342528282817,0.0295264052272701,0
mp-19936,Sc(MnGe)6,0.0,-0.3192945130769227,0.0,0
mp-23547,Ba7(ClF6)2,6.0482,-3.998411620514286,0.0180023585714312,0
mp-17910,Nb5Ge3,0.0,-0.4052179200000001,0.0657249875000012,0
mp-8850,Dy2S3,0.7389000000000001,-2.4682696021041672,0.0060374354999979,0
mp-862291,BeGaRh2,0.0,-0.66997692125,0.0,0
mp-697797,V(PO3)4,1.147,-2.529194612787115,0.0370401811765086,0
mp-696744,PH2NO4,0.0,-0.9420701165894052,0.7938151706102081,0
mp-8314,Cs2NaAsO4,3.5275,-2.0551722493749995,0.0,0
mp-1595,Nb2O5,2.171,-3.0432599437500008,0.0097869778571411,0
mp-1017439,SrSiO3,2.3766,-3.1337462607499997,0.3248571436666738,0
mp-973783,H2,8.7958,4.440892098500626e-16,4.440892098500626e-16,0
mp-975793,PrTmTl2,0.0,-0.33068344,0.00674484,0
mp-983429,PmDyRu2,0.0,-0.2178264485416665,0.0,0
mp-11815,SrSbAu,0.0,-0.3914960883333336,0.3154677160185173,0
mp-631429,ZrCrFe,0.0,0.7274173833333322,0.8914879683333314,0
mp-773607,LiTiNiO4,0.0,-2.2715099173809525,0.0445929713095241,0
mp-850974,Na7Cr2O6,0.201,-1.6859911805,0.1009417073333347,0
mp-779772,Li32Mn11Cr5O48,1.019199999999999,-2.2008372447975,0.008333784270829,0
mp-770126,Rb3FeO3,0.9687999999999992,-1.5612165966071427,0.1070211600000101,0
mp-558023,Rb2Sb4O11,1.8205,-2.0000234490441176,0.0,0
mp-706271,K2NaMo(OF)3,3.0415,-2.579164959732,0.0215098152142871,0
mp-568740,GdWClO4,2.5147,-2.7336554940371416,0.0076283651190376,0
mp-39020,LiTa3N4,0.0,-1.3596033088983326,0.0,0
mp-754210,Li6FeS4,0.0,-1.3411804132954552,0.089478783181816,0
mp-772698,Li4Mn5NbO12,0.0,-2.2220447222636364,0.0886462728408954,0
mp-997100,SrAgO2,0.0,-1.833312658125,0.0084852737499998,0
mp-773715,Er2(WO4)3,4.7386,-2.778299768382354,0.0165070658823545,0
mp-762774,LiMnPO4F,0.967499999999999,-2.5882287197181544,0.0536404928125033,0
mp-850229,LiV2P4(HO8)2,0.8465,-2.4250348609848382,0.0553434532000061,0
mp-867831,DyMgRh2,0.0,-0.7157849016666677,0.0,0
mp-974042,Nd2Co12P7,0.0,-0.7450291319841269,0.0,0
mp-755056,CaPbI4,2.628,-1.1047805833333328,0.0504884533333336,0
mp-1029660,Ca4ZrN4,1.235199999999999,-1.2780591355022213,0.0,0
mp-1019532,BaAl4O7,4.1958,-3.4395912703125,0.0232172124749983,0
mp-11445,Y(TiGa2)2,0.0,-0.537225917976191,0.0108935671428573,0
mp-1028510,Te4MoW3(SeS)2,0.007,-0.4467928912760423,0.1030826547916676,0
mp-777424,LiFe4OF7,2.5323,-2.5822671730446163,0.0593502376923078,0
mp-1027781,Mo3W(Se3S)2,0.684099999999999,-0.7910265916406255,0.0274262300000005,0
mp-7116,Nb3CoS6,0.0,-1.3838916394375005,0.0,0
mp-24066,SrHClO,4.9798,-2.4997098882825,0.0,0
mp-1003766,NaMn2O4,0.4962,-1.9468317645599995,0.0384899785714427,0
mp-3862,Ca(AlGe)2,0.0,-0.3873820599999995,0.0,0
mp-4308,PrAgAs2,0.0,-0.7734378375000004,0.0,0
mp-559767,LiAsO3,2.9408,-1.96372884775,0.0380367570000004,0
mp-556570,Ag4Se(IO2)2,0.7545000000000001,-0.6301513382812497,0.0244919520833324,0
mp-25151,V2P4PbO14,2.042099999999999,-2.647856832851473,0.0,0
mp-568683,La16Al13,0.0,-0.3530059489655178,0.006608183879309,0
mp-768382,La2Al4O9,3.710599999999999,-3.5597274850833345,0.0781749456666656,0
mp-16705,Pr2O3,3.6593,-3.75031942775,0.0,0
mp-379,AgSe,0.0,0.0858239907031248,0.1388155128515622,0
mp-779955,Li3MnFe2(BO3)3,2.7735,-2.4456446745672227,0.0044517198148144,0
mp-36480,La2CuO4,0.0,-2.995749175,0.0570201728571362,0
mp-27445,As(IF2)3,1.3305,-1.7424154517140005,0.0,0
mp-11295,DyCd3,0.0,-0.2833691679166668,0.0,0
mp-766110,LiMnV(P2O7)2,1.271,-2.6069513221829035,0.0090801288095292,0
mp-676609,Ga6SnTe10,0.7473000000000001,-0.3195320138235289,0.0027756718627456,0
mp-937761,Li7ZrO6,0.0,-2.3708352326785715,0.0726409296428567,0
mp-761824,Sr16V12O39,0.6273000000000001,-2.955439477742537,0.0,0
mp-607399,Al2CrCl8,0.8876000000000001,-1.7934714616890908,0.0032396719949483,0
mp-28358,NbAlCl8,2.0379,-1.817937701608,0.0,0
mp-773604,Na3Co(BO3)2,1.023399999999999,-2.226863637777777,0.0588190743750489,0
mp-1030784,TeMoWSe3,0.0,-0.4719720809635414,0.0429488408333345,0
mp-29866,SnCl4,3.550999999999999,-1.406577239608,0.0,0
mp-997018,AuClO2,0.262,-0.3034206201899998,0.2495072677500008,0
mp-9563,Li2Sb,0.0,-0.5669378322222222,0.0,0
mp-554160,K2CuP2O7,0.261799999999999,-2.41912179374504,0.0001788237500113,0
mp-11925,RbTa(CuSe2)2,1.7333,-0.755572726796875,0.0,0
mp-505538,Ti3Al2NiC,0.0,-0.6776955675000005,0.0,0
mp-8175,KTlO2,0.883599999999999,-1.405366156874999,0.0,0
mp-380,ZnSe,1.2004,-0.7065919467968751,0.00482797,0
mp-744610,Mn2PH9(C4O3)3,2.9104,-0.5982998300407656,0.5364550357954547,0
mp-771250,Na3SiSnCO7,0.0,-2.2851444024038465,0.0623655509615375,0
mp-849439,Mn3O5F,0.0,-1.9533213155911116,0.0533747323611217,0
mp-698349,CdH6C4(S2O)2,2.3204,-0.5259198512041173,0.239840094054621,0
mp-758620,LiCu2(CO3)3,0.0,-1.513823113250001,0.0977333854166664,0
mp-556941,NaFeF3,3.0099,-2.8405291922140004,0.0,0
mp-775407,Li3Ti(FeO3)2,0.0,-2.413462051180556,0.0548393662500004,0
mp-1018121,TiPd2,0.0,-0.627063372222222,0.0024303699999981,0
mp-769951,Ba2MnO4,0.0,-2.5871216637085723,0.0192227297618927,0
mp-975055,Rb3Ac,0.0,0.467097895625,0.467097895625,0
mp-30039,Na2Al2Sb3,0.721599999999999,-0.2892417575,0.0,0
mp-763698,Li4Nb3V3(CoO8)2,0.0,-2.476554958571428,0.098544063571424,0
mp-769592,Na3VPCO7,2.1544,-2.3840420130265563,0.0130069619350932,0
mp-505223,Ba2Tb2Ti2Cu2O11,0.0,-3.045679170197369,0.0539257416447922,0
mp-2938,Tm(FeSi)2,0.0,-0.6786610359999997,0.0,0
mp-1030512,TeMoWSeS2,0.0,-0.7751492994531249,0.0918592475000004,0
mp-19421,FeWO4,2.401,-2.092350370833332,0.0,0
mp-28261,Na4SnO3,1.8885999999999992,-1.6721247604687504,0.0,0
mp-569921,Nb3H12C4NCl9,0.4908,-0.8845354706951719,0.0676222331034477,0
mp-29149,Li4NCl,1.7617,-1.021502769273333,0.0,0
mp-1009649,PrN,0.0079,-1.11640943119,0.3573194900000001,0
mp-752467,NbO2F,2.2067,-3.186102949672501,0.0,0
mp-775796,Li2Ti3NbO8,0.0,-3.072714427142858,0.0823026505357376,0
mp-558087,Na2Ca3(Si3O8)2,4.3043,-3.2609315401851853,0.0003441875000103,0
mp-677467,Rb5Te3H4NCl18,2.611399999999999,-1.4711471121141932,0.0,0
mp-555946,Pb2CO3F2,3.4728,-2.1500601976412512,0.0025441168749988,0
mp-24920,Li2CrO4,2.6021,-2.107897461904762,0.0,0
mp-745012,Ni2P2O7,3.602999999999999,-2.1324905852218605,0.0,0
mp-977056,MgPt5,0.0,-0.3253697016666663,0.0626503516666678,0
mp-767677,Na4(WO3)9,0.0,-2.1852368980937498,0.0088370080568189,0
mp-779059,LiV4O5F7,0.8908,-2.807225626151765,0.0461346905882224,0
mp-15590,Sr2Nb2O7,2.752099999999999,-3.3159140513636363,0.0,0
mp-554706,AsSe(ClF2)3,3.713899999999999,-1.8905721032285228,0.0,0
mp-541860,TiAs2H4O9,2.9447,-1.8985855431185417,0.0025548635937502,0
mp-762538,Mn13Fe11O32,0.4996,-1.9610482950442856,0.0286679603571578,0
mp-4354,Tl(NiSe)2,0.0,-0.2657768284375003,0.0227716930333352,0
mp-22826,KNb8O14,0.0,-2.7754658453260883,0.0,0
mp-4402,La(CoP)2,0.0,-1.0015858552380954,0.0,0
mp-2663,Nb3Pt,0.0,-0.3801447062499985,0.0,0
mp-1029327,Te6MoW3S2,0.0,-0.3590340806770828,0.0773708554166656,0
mp-25881,LiBi(PO3)4,4.843100000000001,-2.544573981243388,0.0386744627777746,0
mp-28743,K4Cu8Te11,0.0,-0.3563709100000004,0.0046614491304355,0
mp-12671,Er2SO2,3.0733,-3.6528522733125,0.0,0
mp-555436,S5N2(O2F)4,4.3178,-1.6064975973596038,0.1252914218547438,0
mp-767254,LiCo2(PO4)2,0.5239,-2.2749827981684976,0.0248283785577072,0
mp-3591,NdBRh3,0.0,-0.7009319128333346,0.0,0
mp-676213,P6Pb5O11,0.0,-1.465389874650974,0.4475910923090618,0
mp-30143,U(IO4)2,2.042399999999999,-1.8336914886363629,0.0,0
mp-764624,LiFe2(BO3)2,1.7922,-2.3656275055303033,0.0504558310795699,0
mp-971979,Tm2ZnAg,0.0,-0.3384648262500001,0.0080575349999998,0
mp-556936,CsBa(BO2)3,4.0415,-2.9311731002272734,0.0034676031818188,0
mp-1002568,MgMn2O4,0.5051999999999991,-2.2761439909885723,0.0651051764285837,0
mp-781865,Ca5BC4Cl3,0.734599999999999,-1.0648613647266667,0.0370133070769229,0
mp-769602,Li2VSO4F3,2.237,-2.6275682604665898,0.0862364461363514,0
mp-699691,Mn7SbAsO12,0.0,-2.023072494843809,0.0,0
mp-1754,UHg2,0.0,0.1177814333333338,0.1177814333333331,0
mp-24862,SrCo6O11,0.097799999999999,-1.5391990268749995,0.0,0
mp-764519,LiFe2(BO3)2,1.5639,-2.3568315303030296,0.0592518063068441,0
mp-864908,MgTiIr2,0.013099999999999,-0.7641837541666671,0.0,0
mp-21220,CaIn4Rh,0.0,-0.4123940425000001,0.0,0
mp-767091,LiNbSn3(PO4)6,2.7647,-2.618001715530613,0.009142983857143,0
mp-8368,Pr3GaC,0.0,1.2151018344999998,1.4963098948333338,0
mp-976262,LiMg,0.0,-0.0395215866666663,0.0236688433333336,0
mp-4984,SiB2Mo5,0.0,-0.3964022685416673,0.0,0
mp-4759,ZrTe3O8,3.6712,-2.101675942708334,0.0,0
mp-615489,Mn3Nb6O11,0.2338,-2.459887155831498,0.0,0
mp-27850,TiNCl,0.5613,-1.8587620607688893,0.0,0
mp-864961,Be2PdPt,0.0,-0.6833616449999997,0.0,0
mp-973847,La2ZnGa,0.0,-0.4407127712499999,0.009069535,0
mp-989497,LaWN3,0.0,-1.215061657427999,0.0183264179999991,0
mp-542934,CeMg2Cu9,0.0,-0.1463121695833328,0.0,0
mp-705244,Ba2VI5O17,2.8495,-1.5487185814499993,0.0049138617500075,0
mp-12763,TbB6,0.0,-0.4171435519047617,0.0140140630952387,0
mp-12644,Ba2LuNbO6,2.847899999999999,-3.5204596297500004,0.0,0
mp-13910,Ba(AgGe)2,0.0,-0.3362179059999996,0.0,0
mp-9272,TlPt2S3,1.0242,-0.77801230703125,0.0,0
mp-614502,Gd,0.0,0.0711778600000005,0.0711778600000005,0
mp-771235,CsLa3O5,3.365899999999999,-3.42361408625,0.0191813584259277,0
mp-18444,Sr3CuRhO6,0.0,-2.279955484772728,0.0,0
mp-774099,V2Ni(PO4)3,0.0,-2.4764970891269846,0.0272070947685385,0
mp-603912,Nd2MoC2,0.0,-0.1868842150000006,0.0,0
mp-3785,TlGaTe2,0.5316999999999991,-0.3659385462499998,0.0,0
mp-11486,Y2(Al3Co)3,0.0,-0.5636444289285711,0.0,0
mp-3075,TlGeS2,1.7578999999999991,-0.7252706154687498,0.0,0
mp-998979,Ti3In,0.0,-0.0356523650000006,0.0968681325000009,0
mp-680247,K3P6S6N7,3.5462,-0.8569656745275658,0.0151502988636407,0
mp-19165,BaFe(Si2O5)2,3.6492,-3.1443335740625,0.0,0
mp-3179,Tb3(CuSi)4,0.0,-0.6355277127272729,0.0025849045454577,0
mp-770968,Na3NiPCO7,4.0068,-2.1952591514880955,0.0,0
mp-6118,Ca3Cu3(PO4)4,0.6006,-2.631015712399268,0.0,0
mp-555516,H5(NO)3,3.2338,-0.7232955235445456,0.2813393108941824,0
mp-28256,V2Se9,0.7130000000000001,-0.4102384302130682,0.0,0
mp-695286,Li11Sc7Ti(PO4)12,2.518199999999999,-2.4865490923267024,0.6398245619620306,0
mp-759117,Li2SbP3O10,3.8109,-2.5155469319866075,0.0741694401041659,0
mp-560978,Ba4Al2O7,3.5745,-3.199104424134616,0.0,0
mp-755243,Li5CuSO2,2.383199999999999,-1.6716588085069437,0.0547069199305561,0
mp-979948,SmNiB4,0.0,-0.5562813990277782,0.0,0
mp-769686,Li4TiCrO6,1.1431,-2.6088568032638895,0.0192824270833496,0
mp-11008,BaPSe3,2.1557,-1.0132646512752976,0.0,0
mp-23483,Rb2CrCl4,0.0,-1.4775587025771426,0.4187465171428584,0
mp-8187,K2ZnO2,1.9785,-1.5954515775000004,0.0,0
mp-755756,Y2TeO2,1.0487,-3.221069265500001,0.0,0
mp-617180,Cs2V5O13,1.5096,-2.4256419448125017,0.0,0
mp-6475,NaZr2(PO4)3,4.1967,-3.1876797049603187,0.0,0
mp-850985,LiFeP2HO7,4.0674,-2.384289071130039,0.0628129283333356,0
mp-631503,ZrAlW,0.0,0.7213185433333322,1.0628330762500058,0
mp-25659,CoBiPO5,2.838599999999999,-2.157366947105654,0.0,0
mp-741593,Ba4Y2Cu4W2O17,0.0,-2.3894686802155167,0.1470210132758902,0
mp-775516,Fe3Co(PO4)4,0.788099999999999,-2.3198703688492066,0.0367076880208099,0
mp-638061,AlInCl4,4.1864,-1.7412333350900002,0.0,0
mp-600579,MnH9C4NO6,2.6307,-1.0494377162342847,0.1341027408928585,0
mp-683666,Cu2WO4,0.948199999999999,-1.2485811496428565,0.2776270232142837,0
mp-553988,Cs2LiF3,5.659000000000001,-2.9315745789283327,0.048404903333334,0
mp-761970,LiCoPO4,2.808599999999999,-2.36652078454932,0.0678310210714308,0
mp-755007,CeOF,0.0,-4.092360359146667,0.0013613616666674,0
mp-853154,LiNbVO4,0.0,-2.658264268571429,0.0567766729464338,0
mp-766989,LiFe(Si2O5)2,3.052799999999999,-2.9521764848437506,0.0426070303124994,0
mp-6356,Cd2GaAgS4,1.042099999999999,-0.90774659515625,0.0,0
mp-31453,NbSbRh,0.0,-0.3335251316666661,0.0746815054166667,0
mp-19609,Fe2Ni(PO4)2,3.4083,-2.2727818450915764,0.0,0
mp-770061,Li2FePCO7,2.269599999999999,-2.3462338641121026,0.0103399582812597,0
mp-21375,CeMgGa,0.0,-0.3592423022222222,0.0,0
mp-780904,Cr4OF11,0.9155,-2.8823264280837497,0.033245563307287,0
mp-557468,K5V3F14,0.0,-3.1975040584845456,0.0,0
mp-865908,Yb2HgPb,0.0,-0.6618790225,0.0,0
mp-627632,Si4H2O9,5.1536,-2.8627278372326668,0.0432091874999995,0
mp-24650,YH2,0.0,-0.7993382565800005,0.0,0
mp-565674,HfNi5(BO5)2,3.1031,-1.999030080601852,0.0,0
mp-22206,TbCoSi,0.0,-0.7099779127777784,0.0308738516666675,0
mp-559128,CaTeCO5,3.8456,-2.252976963593749,0.0001800157812503,0
mp-5821,TaAgS3,0.0,-1.0633565644375012,0.0,0
mp-645799,VP2Pb2O9,2.2786,-2.4499649021386065,0.0008095670357652,0
mp-985831,HfSe2,0.5535999999999991,-1.3493236407291664,0.0,0
mp-771522,Li5Fe2Cu3O10,0.0,-1.6355034036250005,0.0689803209999988,0
mp-765308,Li2MnO2F,0.8740000000000001,-2.4110620749416665,0.0881512316666635,0
mp-27343,Re4Cl8O9,1.0174,-1.672339856063333,1.073008926777419e-05,0
mp-861746,Li4V3CrO8,1.0314,-2.458088051562499,0.0092850215624986,0
mp-20464,SrPrO3,0.0,-3.0153900067500015,0.1402639094999989,0
mp-3630,HoInAu,0.0,-0.7484741938888884,0.0,0