mpid,formula,BG,FE,e_hull,fidelity
mp-675524,CsPbCl3,2.413,-1.8807317149560003,0.0,0
mp-9873,EuZnGe,0.0,-0.5623943600000002,0.0,0
mp-19513,SrV2(AsO5)2,1.6632,-2.3401734481666656,0.0035799090000034,0
mp-705030,LiCr(PO3)5,0.0912,-2.5019974608739166,0.0626373828503785,0
mp-624417,CdI2,2.3365,-0.5904704689393938,0.0016665296161617,0
mp-758251,Li5AgF8,0.3514,-2.6387281099657147,0.0371739657142837,0
mp-770671,Li4Cr5Sn3O16,0.205499999999999,-2.2337228141071424,0.0496409486706275,0
mp-10339,SrNbO3,0.0,-3.1952958097500015,0.007507359666711,0
mp-762565,Li10Fe(SiO5)2,1.7148,-2.4766482898913043,0.0548854141304353,0
mp-973455,LiMg2,0.0,-0.0443247783333333,0.0089302783333318,0
mp-2127,Pr3Te4,0.0,-1.445886247857143,0.0090696378571459,0
mp-38972,Ba3Re2O9,0.0,-2.7033268686607146,0.0,0
mp-558736,H3CSN(ClO)2,2.6254,-0.6457740108822506,0.4554912371944448,0
mp-581770,Sm4Al23Ni6,0.0,-0.5150852581818179,0.0,0
mp-26871,Li2Sn3(P2O7)2,2.7556,-2.446686921516564,0.0452096265217258,0
mp-775844,Zr2N2O,1.5814,-2.346040453702,0.0072646664999993,0
mp-764507,Li5Fe8(BO3)8,1.4030999999999991,-2.3737908185185193,0.0443078149305584,0
mp-569626,MgCl2,3.379,-2.0511751505066664,0.199823811666667,0
mp-763454,LiMn2OF3,1.308,-2.6901042638200003,0.0705606478571416,0
mp-28048,KTlBr4,1.8089,-0.9618697579166664,0.0,0
mp-11269,BaSn3Pd,0.0,-0.6384766190000001,0.0,0
mp-560791,CsNaTiO3,3.3617999999999992,-2.767719780902779,0.0,0
mp-765851,LiVF3,1.9761,-2.980815812714,0.0920817279999974,0
mp-774535,TiNb3(PO4)6,0.0,-2.925571770742297,0.0,0
mp-9398,V4SiSb2,0.0,-0.3002982035714287,0.0161315630158735,0
mp-773548,Li4Mn3Fe(BO3)4,2.9603,-2.4930685426894437,0.0054159852083337,0
mp-977129,HgPd3,0.0,-0.1087051725000001,0.0089163450000002,0
mp-30368,Ca5Au3,0.0,-0.6747738875000002,0.0,0
mp-581449,Re(TeCl6)2,1.0373,-1.0793680213857777,0.0037858562222221,0
mp-569304,C,0.0148,0.0286886974999998,0.0286886974999998,0
mp-6192,Ba2DySbO6,3.4688,-3.1092147139166673,0.0,0
mp-20393,Sr2InPt2,0.0,-0.8251590680000007,0.0,0
mp-17256,Rb2Hf3OF12,6.2789,-3.986816142251666,0.0,0
mp-15670,Y5S7,0.0,-2.4657559767447927,0.0,0
mp-759541,Ba(PdO2)2,0.0,-1.5294202428571424,0.0,0
mp-23803,GaHO2,2.9954,-1.9327247615299996,0.0152785656249996,0
mp-752515,YTa3O9,3.2338,-3.5326688091346146,0.0,0
mp-680158,K2Ti(GeO3)3,2.847099999999999,-2.397606539527779,0.0680942754444453,0
mp-31412,PrSnAu,0.0,-0.8311345600000001,0.0,0
mp-29489,P4SeO7,3.5458,-1.976300917893725,0.0442703296567463,0
mp-765658,V2OF5,1.5209,-2.9993808799624997,0.0528099015624992,0
mp-128,Ge,0.0,0.1475177500000004,0.1475177500000004,0
mp-773940,Na2LiFePCO7,3.6665,-2.3370862745650176,0.0207897746153831,0
mp-2640,TbAs,0.0,-1.537412489166667,0.0,0
mp-28223,LaSe2,1.3399,-1.6236390098958335,0.1335631408333331,0
mp-22874,PBr5,1.6183,-0.3421982567658729,0.0,0
mp-625723,MoH4O5,2.3239,-1.5633194490729991,0.0805662381249998,0
mp-778593,Li4V2Fe3Co3O16,0.6233999999999991,-1.9338699117857143,0.0892913570773759,0
mp-770754,Ho(ClO4)3,5.7915,-1.1113235062362508,0.0,0
mp-997630,ZnO,0.525199999999999,-1.6247686168749995,0.1725006987499995,0
mp-636599,FeSnRu2,0.0,0.2487627262499998,0.3224058731249997,0
mp-567818,Sm(NiAs)2,0.0,-0.7904377664999999,0.0309875260000005,0
mp-676282,Mg(Mo3S4)2,0.0,-1.1142231151666664,0.0346441461666682,0
mp-743528,CrH14N4Cl3O,3.2618,-0.9294231375534782,0.0014148385869567,0
mp-865315,Lu2MgOs,0.0,-0.2201374387499992,0.0,0
mp-636525,Zr7Ni10,0.0,-0.4493690055882349,0.004812403529411,0
mp-744019,CrH9(CN2)3,0.0,0.0133015737178957,0.4253132038284209,0
mp-768923,Bi4(B2O5)3,3.3396,-2.4162201835499992,0.0040554597000284,0
mp-772058,Co(NiO2)4,0.2149,-0.8388167115384616,0.0140649297435855,0
mp-567308,Sc,0.0,0.2052789324999997,0.2052789324999997,0
mp-20519,CdInS2,0.0,-0.71661283578125,0.190042466875,0
mp-20006,ZnPb2F6,3.922799999999999,-2.6530029919044447,0.0200112572222215,0
mp-770734,Mg3(AsO4)2,3.0162,-2.4278811967307683,0.0426538467307704,0
mp-567602,Yb2Co12P7,0.0,-0.7587339455555554,0.0,0
mp-696666,H4NClO2,2.7843,-0.7235635728274996,0.3865334589435436,0
mp-558984,GaTeO3F,3.7078,-2.077858223740001,0.0,0
mp-34361,Tl9BiTe6,0.6109,-0.3054245693749999,0.0,0
mp-24076,Y(HO)3,3.751,-2.305902083158572,0.0208707224999908,0
mp-763925,Mn6O7F5,0.0678,-2.2523246197477778,0.0485620171527942,0
mp-1016846,TiCdO3,0.0,-2.4987465410833343,0.1974656609999989,0
mp-570091,Rb(CoSe)2,0.0,-0.4696449594374997,0.0224943737500025,0
mp-696949,Li3TeHO4,3.5927,-1.9695559687355555,0.0,0
mp-1009132,HoBiPd,0.0,-0.9297370433333342,0.0,0
mp-31062,Y(PO3)3,5.7608,-3.03351959254121,0.0012668682692336,0
mp-694929,SrLaTa2(NO)3,1.0135,-2.478325525589001,0.0204145632499326,0
mp-705356,Li2Fe(PO3)5,2.4488,-2.586502686488095,0.0357933571014532,0
mp-560591,NaTi2Al5O12,2.719,-3.380491921166666,0.0,0
mp-686037,U7Cd3O20,0.0,-3.2602525636666657,0.053355157500011,0
mp-757089,LiIO4,2.183799999999999,-1.1110586120833332,0.0549890385416667,0
mp-38089,Na10Mn4O9,0.493199999999999,-1.6616783104386956,0.0127410287391294,0
mp-28708,In3(PO4)2,3.0692,-2.320261599130036,0.0,0
mp-862986,PmBr3,2.8814,-1.868384643125,0.0,0
mp-651051,Te2W3(CO)15,1.2205,-0.7099312038928588,0.5006301453571442,0
mp-706521,K2PH3O5,4.103099999999999,-2.124792623200477,0.021760864166672,0
mp-601774,H14C4NF3,7.115600000000001,-0.7517463846195447,0.0978696912500005,0
mp-774874,Li3Ti2CuO6,0.215499999999999,-2.662822681736112,0.1049203397222262,0
mp-763842,Na3LiMnBPO7,2.4324,-2.4586950585337077,0.077734530833335,0
mp-542642,KSbSe2,1.4444,-0.6931632624218751,0.010907038125,0
mp-1018138,VI2,1.049599999999999,-0.4832366833333334,0.0,0
mp-19141,K6Co2O7,1.0823,-1.5856043652499991,0.0,0
mp-700,GeSe,0.8988,-0.2207341355468752,0.0,0
mp-764552,LiFe2(BO3)2,1.745,-2.3717597673484847,0.0443235692613885,0
mp-28087,Pb4IF7,2.9146,-2.4190851606941672,0.0279980579166663,0
mp-884,NdSi2,0.0,-0.6012784591666662,0.0,0
mp-27525,K3TlF6,3.7843,-2.731204755464,0.0,0
mp-764459,Li3Fe4(BO3)4,1.8891,-2.391843863115942,0.0249855380434915,0
mp-251,TaN,0.0,-1.0378946311899997,0.3267681683333343,0
mp-8848,TaFeTe3,0.0,-0.2576126349999995,0.0190942705555547,0
mp-765573,Li4Zr3O8,3.698099999999999,-3.1649393186666663,0.0450898030000015,0
mp-568386,Ag10Te4Br3,0.774,-0.1789263924999999,0.0021102688235306,0
mp-1018060,GaCo2Ni,0.0,-0.1273498149999996,0.0787396369230766,0
mp-565869,SrVClO3,2.183599999999999,-2.744597239501668,0.0,0
mp-1014230,TiZn,0.0,-0.1863590858333337,0.0,0
mp-853152,Na3NiO2,0.196,-1.0843408304166673,0.1728791897916668,0
mp-1028854,Te2MoWSeS,0.0,-0.496258494609376,0.0948367308333342,0
mp-769983,Li2CrFeO4,1.707999999999999,-2.235435771875,0.0028767356250085,0
mp-13613,K2Mg2Be3F12,7.013199999999999,-3.596557456146316,0.0,0
mp-867805,LiCa2Ga,0.0,-0.2611661275000001,0.0,0
mp-976405,NaEr3,0.0,0.3185571724999998,0.3185571724999998,0
mp-24058,AgBH2OF4,3.044,-2.214005203601852,0.0,0
mp-19599,Ca3Cr2(SiO4)3,3.222899999999999,-3.197343779000001,0.0,0
mp-772526,Li6Mn(BO3)3,1.2196,-2.504296263274211,0.0569092682017453,0
mp-31918,BaMn2O8,1.8622,-1.5760472638109102,0.0454977833712115,0
mp-643123,K5Ag(NO)2,0.0439,-0.2145599342259999,0.6583648240833342,0
mp-866076,NdAu3,0.0,-0.6512545493749999,0.0,0
mp-11495,LuRu,0.0,-0.4631008925,0.0,0
mp-20495,Na2CO3,3.1421,-2.074649421875,0.0152898200000004,0
mp-643371,K2Sn(H2N)6,2.404,-0.504916292034285,0.0,0
mp-686293,Yb15Mg5Ge16,0.0,-0.5957648570833329,0.0223778422756413,0
mp-570845,Zn(GaNi)3,0.0,-0.37226926125,0.0,0
mp-989538,Cs2InBiF6,2.2862,-2.7133372152139996,0.0,0
mp-698470,LiAlH16(CN)4,3.6569,-0.4338361559592305,0.1170511992307696,0
mp-758374,Ta7(P2O7)8,0.0,-2.806810587209163,0.0489901590366095,0
mp-767570,Li4Mn3Fe(PO4)4,3.585,-2.6247921234021763,0.0007207842856802,0
mp-20130,Pu3Al,0.0,0.6877991823437489,0.7774475337499993,0
mp-559390,CaAl2O4,4.190300000000001,-3.4589433092857145,0.0087437867619009,0
mp-768468,In2Bi2O7,0.3334,-1.6433508951136366,0.0805356074999998,0
mp-32616,Ga2S3,1.8097,-1.0577644404375,0.0015363510000003,0
mp-571621,Ba3Na2(CN2)4,3.3947,-0.8730627159729409,0.0011937445588214,0
mp-676881,Ho4Zr3O12,4.150399999999999,-3.970986738157893,0.0,0
mp-540438,LiMn(PO3)3,3.984099999999999,-2.6162292401068368,0.0371096921428524,0
mp-849331,Ti2N2O,1.033799999999999,-2.144020997868666,0.0563410590120003,0
mp-22830,DySi3Rh5,0.0,-0.9761628246296308,0.0,0
mp-1629,Th2Au,0.0,-0.4307921550000001,0.0,0
mp-26304,Cu9(PO4)8,0.0,-1.8806649927502428,0.0080700188775502,0
mp-757220,LuH6(ClO5)3,5.3849,-1.2216865554100005,0.0,0
mp-14386,Ba3Lu(BO3)3,3.8583,-3.3345937657031257,0.0,0
mp-10350,BaNdCuBO5,0.0,-2.8535679889351844,0.0,0
mp-15050,Pr(PdO2)2,0.0,-1.944777375,0.0,0
mp-510757,Fe(Se2O5)2,0.0,-1.223895630125,0.0824643212916509,0
mp-552120,YClO,4.270700000000001,-3.5261618556700003,0.0,0
mp-779877,Li6MnFe5(BO3)6,2.7977,-2.4257861862072216,0.0049549547685217,0
mp-691074,SrPrGaCuO5,0.2423,-2.484616465138888,0.1678609344444641,0
mp-1569,Be2C,1.163699999999999,-0.2306482691666668,0.0,0
mp-761631,Ti2Fe4O9,0.9252,-2.294024218305556,0.2114223992563975,0
mp-773355,Li3V(FeO3)2,0.0,-2.166061615624999,0.0660811404166503,0
mp-977423,Yb2ZnRh,0.0,-0.4743226112500003,0.0,0
mp-569271,Cr3(P2O7)2,1.3983,-2.592856048327664,0.0016708550198245,0
mp-1074,RbSi,1.349999999999999,-0.04713204765625,0.0,0
mp-1019578,Ca5(SiN3)2,2.459099999999999,-1.3162077272523072,0.0013556130769263,0
mp-695895,K4Ba2N7O16,0.379599999999999,-1.1786311938503444,0.3879765584746195,0
mp-604702,H10PtC(N4O)2,2.0724,-0.4093621943290913,0.200361099608787,0
mp-768208,Li3SbS4,1.4459,-1.1065830776562504,0.0766234106249994,0
mp-763316,Mn3O5F,0.0,-1.9589898689244447,0.0477061790277879,0
mp-19220,CaSi2NiO6,4.4392,-2.90215242325,0.0052587134999972,0
mp-765792,Li3Ni3OF7,3.529299999999999,-2.377462173184285,0.0324461053571436,0
mp-20355,Ce2CoSi3,0.0,-0.7534154600000006,0.0,0
mp-768053,Na2FePCO7,2.444,-2.301502023695436,0.0047258116666544,0
mp-1003854,KMnO2,1.332199999999999,-1.813202387115,0.1489905268750053,0
mp-31105,RbBi,0.3777,-0.34365897625,0.0,0
mp-9219,LaB2Pt2C,0.0,-0.6412089034722221,0.0083324150747845,0
mp-29705,Rb6Sn2S7,2.119399999999999,-1.3120101750625002,0.0,0
mp-5926,KCaF3,6.6469000000000005,-3.7398466622139983,0.0,0
mp-697960,Ba2Na2B10H2O19,4.6933,-2.816677305075905,0.0019232386428456,0
mp-768319,LiNi2(PO4)2,0.863,-2.0262423316300366,0.1131697537019071,0
mp-753277,LiAgF2,1.206699999999999,-2.163368131845,0.0259919162499997,0
mp-7767,RbAgF3,0.0,-2.151005784714,0.0,0
mp-647426,Cs2NpBr6,0.086899999999999,-1.5985279854166667,0.0,0
mp-9827,RbHg2,0.0,-0.2667858383333333,0.0,0
mp-541449,CrGeTe3,0.0,-0.1614202980000001,0.0,0
mp-762770,LiMn5P3O13,2.9249,-2.444309093651623,0.0962556520454516,0
mp-758498,Li2CuSiO4,0.0,-2.33659203375,0.0741775156250019,0
mp-766993,Li2MnO2F,0.8597,-2.424439373691666,0.0747739329166634,0
mp-560905,Na2NpH2(CO3)3,0.194299999999999,-2.0684068111611764,0.0615398883823541,0
mp-570962,SbI3(BrCl3)2,1.1091,-0.6838274020466665,0.0,0
mp-29585,K4CdAs2,0.609399999999999,-0.4272741649999997,0.0,0
mp-542199,Ag4HgGe2S7,0.452199999999999,-0.5507311373883935,0.0,0
mp-29956,Hg3(SI)2,1.3129,-0.4093679922321429,0.0,0
mp-669358,CdI2,2.361399999999999,-0.5904543901515151,0.0016826084040404,0
mp-709039,ZnH2(CO2)2,4.3891,-1.3612014390451852,0.1216593089814832,0
mp-27868,VNCl4,1.2547,-1.136797879236667,0.2078356175200016,0
mp-28592,Li7Br3O2,4.2454,-1.7946233877083342,0.0278024824999993,0
mp-568381,RbAu(CN)2,3.1199,-0.2034361351683328,0.1179429507499962,0
mp-774263,Li13Ti28O56,0.0,-3.270346339553265,0.0064991068041084,0
mp-759750,BiOF,3.162699999999999,-2.14787063748,0.0947024333333326,0
mp-770950,LiLa4MnO8,1.7081999999999982,-3.356271209711428,0.0359531310714338,0
mp-764752,LiV2OF7,1.8488,-2.9301455699618177,0.096334306079556,0
mp-973292,MnBe3,0.0,-0.17563308125,0.0114652193749993,0
mp-1009009,LiF,7.5593,-2.907769368095,0.2731108300000002,0
mp-778010,LaTa2NO5,2.0492,-3.2131858751255544,0.0359715261111084,0
mp-764289,Li2VCr(P2O7)2,2.0869,-2.713670542873376,0.0010678462121305,0
mp-640075,FeSiGe,0.437999999999999,-0.1916423695833344,0.1489964795833325,0
mp-30069,CuNi2Sb,0.0,-0.0911528112499997,0.05134638,0
mp-763949,Co6O7F5,0.0,-1.5552582366500007,0.1041484772916652,0
mp-766084,Li7Nb12O24,0.0,-2.728348474883721,0.043854397906978,0
mp-850062,LiNiO2,0.0,-1.366432706125,0.0053600251249994,0
mp-759868,Li3Sb2(PO4)3,2.4939,-2.4346449812142863,0.0963289454999998,0
mp-676414,Al4CO,0.0,-0.6003436714583325,0.4039849800000006,0
mp-7025,RbTeAu,0.0,-0.6810969750000003,0.0064979566666663,0
mp-541318,CsTi3Si2P6O25,0.0,-3.022063359454634,0.0,0
mp-11765,Ti5Se4,0.0,-1.0608653175231484,0.0,0
mp-777712,Mn3O5F,0.0,-1.953364231146668,0.0533318168055645,0
mp-7724,Li2UO4,2.0658,-2.9688165335714283,0.1866375589285711,0
mp-764974,Li2V(OF)2,1.649599999999999,-2.7965402514114284,0.0857945335714234,0
mp-569859,MnTl2SnTe4,0.3083,-0.2301302218749996,0.0,0
mp-607987,CsInI4,2.2731,-0.9215611908333332,0.0,0
mp-9880,YB2C,0.0,-0.5234791030208337,0.0,0
mp-974364,RuAu3,0.0,0.3960144987500005,0.3960144987500005,0
mp-690698,AgSbH2C2(NF3)2,2.8326,-1.3721860142242863,0.1494151828654581,0
mp-16904,Ba2CdTe3,1.402,-1.3281331612500002,0.0194865562500004,0
mp-10891,MnAlPd2,0.0,-0.5896974099999994,0.0313223762500012,0
mp-21414,LaIn5Co,0.0,-0.2904086571428571,0.0064367264285709,0
mp-18833,Sr3Cr2O8,0.0,-2.611359534615385,0.0356899569230817,0
mp-4054,YAl3Ni,0.0,-0.599656787,0.0,0
mp-773314,Li4MnFe3O8,0.5739000000000001,-2.003367721935,0.0938687065625121,0
mp-569748,ThFe2SiC,0.0,-0.5030486095000015,0.0,0
mp-764648,LiTiO2,0.0,-2.962989181041668,0.0301432012499978,0
mp-744032,VH12C2S2(O2F)6,2.422599999999999,-1.6782966505344283,0.150929094011901,0
mp-639747,Ba,0.0,0.30927741,0.30927741,0
mp-762215,Li2TiCo3O8,0.1451,-1.9210734719047609,0.1245152317856961,0
mp-759767,LiCu(PO3)3,0.640099999999999,-2.367160321288265,0.0494569583928461,0
mp-772588,Li2V5B3O13,1.940099999999999,-2.615246080054348,0.0354294120652056,0
mp-774382,Li2MnF4,3.8068,-3.0341310811742845,0.0637996082142864,0
mp-771772,Lu4(B2O5)3,5.8261,-3.3973520235500008,0.0392534344249977,0
mp-773144,Mn3V2Cr3O16,0.7056,-2.036600739286667,0.0783446184895861,0
mp-505483,SmGePt,0.0,-1.1101919245833336,0.0,0
mp-775339,Li2V(Si2O5)3,1.7923,-3.0375730151562497,0.0562644206250251,0
mp-6813,KCa10(PO4)7,5.241,-3.30771162536232,0.0,0
mp-10,As,0.0,0.1074050600000005,0.1074050600000005,0
mp-1019967,LaSi3N5,3.193499999999999,-1.4782080863222216,0.0,0
mp-7651,ThSiO4,4.662000000000001,-3.8088941729166654,0.0354248537500012,0
mp-569576,La5(SiN3)3,1.9651999999999992,-1.56420583743647,0.0,0
mp-862725,ScTc2W,0.0,-0.2261933300000009,0.0,0
mp-764559,LiFe2(BO3)2,0.0,-2.3581756843939385,0.0579076522159347,0
mp-631487,LaBeOs2,0.0,0.6738924587500001,0.7064768274999995,0
mp-974822,Rb3P,0.4201,-0.0723711720238093,0.1112782295833336,0
mp-23033,Sr2NCl,1.9398,-1.66772078391,0.0,0
mp-12581,CdTe,0.0,0.0197940975000001,0.4823168500000001,0
mp-6255,Ca3Sc2(SiO4)3,4.1025,-3.6102407873750018,0.0,0
mp-9007,Na6P4W,1.2658,-0.4159025997619049,0.0,0
mp-571037,CdI2,2.3505,-0.5910439635714287,0.0010930349841269,0
mp-1020621,RbBe2B3O7,4.865,-2.9050757643269236,0.0142998289636739,0
mp-769687,Li4TiCrO6,1.2953,-2.609982726180556,0.0181565041666829,0
mp-605821,Nd3SeBrN2,1.212199999999999,-1.6906986261933932,0.0421536115476195,0
mp-18900,MgV2O4,0.0,-2.627354183571429,0.090033945714282,0
mp-851011,LiMnP3HO10,0.8188000000000001,-2.4090544375853566,0.0781515845833054,0
mp-34680,SrNd5S8,0.0,-2.4298267657142865,0.0215280885714257,0
mp-20941,UIn3,0.0,-0.0044437899999998,0.0,0
mp-979937,Yb3Ru,0.0,0.10454171125,0.10454171125,0
mp-23784,NaB(H4O)2,5.8288,-0.8877930146355553,0.0197507460416668,0
mp-770122,Li8TiMn3(PO4)6,1.1916,-2.7249903185266207,0.041618951011908,0
mp-30411,Mn9Au31,0.0,0.3651346937500001,0.4499753277499998,0
mp-565379,KCa10V7O28,3.8017,-2.9995706613043467,0.0,0
mp-862687,CuH6(NCl)2,0.050999999999999,-0.731758398454545,0.0360152985281834,0
mp-773074,LiZr2(PO4)3,4.3898,-3.158575200238096,0.0313587359722156,0
mp-29868,LiAuC2,1.5321,0.2298451887499997,0.4211379362500001,0
mp-769822,Li4Fe5SnO12,0.0,-1.9306169081818183,0.0854751609090929,0
mp-765712,Li4FeNi3O8,0.0,-1.5435998631250012,0.0044585064062498,0
mp-559897,OsO2F3,0.5744,-1.85446431497,0.0198022073958519,0
mp-761087,NaTiO2,0.0,-2.768286398541667,0.0420218026388923,0
mp-555202,KTeHOF4,5.027,-2.4111746680787496,0.0022501103906265,0
mp-626819,ReH3O5,3.8311,-1.7056966435677765,0.0214016400000014,0
mp-973064,LaH3,0.471899999999999,-0.6749413789649994,0.0029546425000006,0
mp-861982,PaGa3,0.0,-0.368039585,0.0,0
mp-771716,Li4FeTe(WO6)2,0.0,-2.0883720347500003,0.0662766494062365,0
mp-568373,Cd2Ru(CN)6,2.6444,0.0524148303813338,0.1023609500160009,0
mp-10009,GaTe,0.7804000000000001,-0.3607627800000004,0.0039807824999997,0
mp-20351,InP,0.4679,-0.22560804404762,0.0,0
mp-630303,RhC2IO2,1.7793,-0.7828134929166678,0.134999151249997,0
mp-769485,Na2MnPCO7,0.5295000000000001,-2.3197700494004363,0.0116978039583335,0
mp-541671,TiMnH12(OF)6,1.946799999999999,-2.037515086373333,0.0,0
mp-24921,TlCrP2O7,2.791,-2.5002269734036786,0.0,0
mp-1909,LaMg2,0.0,-0.1161064616666672,0.0105854224999997,0
mp-762304,BiOF,3.220499999999999,-2.223756191646668,0.0188168791666649,0
mp-1009894,ZrC,0.484,-0.1945593737499997,0.6135818300000011,0
mp-16970,Na2Si2O5,4.4261,-2.9208265409722225,0.0,0
mp-867130,SmHoMg2,0.0,-0.085250034375,0.0032471849999997,0
mp-30893,Sr4Bi3,0.0,-0.8765879921428572,0.0,0
mp-1434,MoS2,1.422399999999999,-1.3029427877083333,0.0030501633333326,0
mp-645929,Ni3TeMo2O11,2.7541,-1.5998909846323528,0.0,0
mp-541180,Te3Pt2,0.0,-0.3896892439999995,0.0,0
mp-504811,Rb2Pb4O7,0.9863,-1.5249643987500008,0.0,0
mp-390,TiO2,2.0517,-3.5127858063888886,0.0060451741666796,0
mp-764923,VF4,2.7285,-2.979034702952,0.0415687209999973,0
mp-618309,Bi2AuO5,0.0,-1.2620609782812495,0.0,0
mp-17254,TlGaSe2,1.3725,-0.5815942817968751,0.0,0
mp-13503,ScZn2,0.0,-0.3386413766666667,0.0,0
mp-570645,Ca2Si5N8,3.6460999999999992,-1.4124913645193329,0.0048813824166673,0
mp-600237,Ag(CO)2,0.7095,-0.6473502132500016,0.4228697832500021,0
mp-29968,NbSeCl9,2.0713,-1.3072322385621589,0.003950632537879,0
mp-765727,NaV2O5,0.418199999999999,-2.37783110015625,0.0492176012498939,0
mp-765821,VCo3O8,0.0,-1.4519709454166665,0.0658664300520888,0
mp-675299,Ca2SiO4,3.7086,-3.3817977971428577,0.1055346178571436,0
mp-24144,Na5ScH4(C2O7)2,4.837,-2.114160462927857,0.0,0
mp-744554,K2FeP2H3(O4F)2,0.4448,-1.6589830449683605,0.7389088431597237,0
mp-763890,Li2VCrP2(O4F)2,1.8744,-2.8057497669939875,0.0012936487500114,0
mp-769355,AgH3O2,1.0711,-1.0306975305599997,0.0947994152083344,0
mp-672325,TbIn2Ni,0.0,-0.4441342645833339,0.0,0
mp-764694,LiVF5,1.9896,-3.0423628437071435,0.070883997857142,0
mp-765893,Li3NiOF3,3.1376,-2.5335287487275,0.0851984487499999,0
mp-769229,Ho2Bi2O7,0.0,-2.55230593125,0.0932867615909085,0
mp-14561,Ba(SiIr)2,0.0,-0.8406991099999999,0.0,0
mp-3311,SrUO4,2.0862,-3.684046469166668,0.0,0
mp-1016938,VHgO3,0.0,-1.4874896587500004,0.3124514539999676,0
mp-861597,Pr2Ni12As7,0.0,-0.5223677616666679,0.0,0
mp-3038,Al2HgSe4,1.4253999999999991,-0.6917372434821425,0.0,0
mp-561310,NaLiCO3,4.3134000000000015,-2.1738323777083344,0.0094616198148127,0
mp-762501,CaH8(NO5)2,3.497499999999999,-1.4652719255342863,0.0227992488095214,0
mp-573691,K,0.0,0.02378482625,0.02378482625,0
mp-7962,YbAgS2,0.0,-1.3523036732812512,0.0957805637499991,0
mp-652407,Ru(CO)4,2.5854999999999992,-0.9675135173148144,0.2216198121296262,0
mp-18642,Ca(YS2)2,1.533699999999999,-2.4819413119642872,0.0,0
mp-1018638,Tb3AlN,0.0,-0.9803335064759992,0.0,0
mp-541047,ZrAlPd2,0.0,-0.8014558100000011,0.0,0
mp-764250,Li4Nb3Fe2Ni3O16,0.464799999999999,-2.148872033571427,0.0919611879761968,0
mp-10065,UFe3B2,0.0,-0.4206392755555548,0.0,0
mp-720842,BaH8PtC4(NO)4,1.6378,-0.8939484969763639,0.145436739640151,0
mp-759774,Na6Ti11O24,0.0,-3.140384644715448,0.0594463772357638,0
mp-5330,LaAlSi2,0.0,-0.5163063262499996,0.0,0
mp-528,U2Zn17,0.0,-0.0042766676315789,0.0440570651754388,0
mp-768203,BeH2,5.326,-0.1478933229688886,0.0,0
mp-30381,Li2GaAu,0.0,-0.5088752174999995,0.0,0
mp-775,Er5Si4,0.0,-0.7455970830555556,0.0224882602777771,0
mp-1013553,Sr3AsP,0.0,-0.7820515466190479,0.288525648791667,0