mpid,formula,BG,FE,e_hull,fidelity
mp-1009593,CrCoTe,0.0,0.0820613766666665,0.2003625586111104,0
mp-743656,Na2MgB12(H4O7)4,3.2228,-1.6166785347952546,0.6562915231144101,0
mp-686541,Al2Cd(Si5O12)2,2.377399999999999,-3.159479718108108,0.0504043135810796,0
mp-1030736,Te4Mo3WSe4,0.053799999999999,-0.3936539561979172,0.0490160350000001,0
mp-631425,FeTc2Cl,0.0,0.6378635216849995,1.0539460775000011,0
mp-1018897,PrCoP,0.0,-0.9199453843650788,0.0906497183333341,0
mp-778612,Na3CuO2,1.5675,-1.3623831691666666,0.0100791837499976,0
mp-493,Co2B,0.0,-0.2419772855555552,0.0249118375000003,0
mp-11098,YbMgPd,0.0,-0.6868426958333332,0.0,0
mp-1878,HfBe13,0.0,-0.1730699,0.0,0
mp-775326,Li2Ti3NiO8,2.7066,-2.9315568167857142,0.0,0
mp-22652,FeS,0.0,-0.673491813697917,0.1717103258333336,0
mp-300,YbPt3,0.0,-0.7839870449999999,0.0333138812499997,0
mp-677162,Yb(BiTe2)2,0.7308,-0.5495275071428577,0.0929916671428565,0
mp-7024,Tb2C3,0.0,-0.2580530093333337,0.0211625002499991,0
mp-22661,InAg(PS3)2,1.1379,-0.7175699390565484,0.0,0
mp-646008,Gd10S19,0.340399999999999,-2.23534327266164,0.0,0
mp-39215,Zn3GaB6PO12,4.0713,-2.412247318612836,0.0,0
mp-766739,Li2VOF3,2.3625,-2.9968331889028565,0.0495626079563429,0
mp-2488,SiOs,0.5122,-0.3668728824999992,0.011948143333333,0
mp-644271,LiHS,3.498399999999999,-1.0415524992275005,7.481125000019516e-05,0
mp-24288,LuH2,0.0,-0.7767224457466663,0.0,0
mp-776348,Na4Bi2C4SO16,1.1441,-1.9656912714467591,0.0301105694444441,0
mp-707879,K2Cu5H8(Cl4O3)2,0.2089,-1.2607109345703449,0.0364498479310348,0
mp-542828,Dy5Si4,0.0,-0.7493673292592599,0.0182579376388885,0
mp-864943,MnBe2Ir,0.0,-0.4442047274999998,0.0,0
mp-554833,CoAs4F18,3.433799999999999,-2.4604395339747827,0.0,0
mp-707324,PH6SN3,4.177700000000001,-0.6197783215697942,0.0,0
mp-2990,TmAgSn,0.0,-0.5393829627777775,0.0120673638888888,0
mp-2099,FeS,0.0,-0.5855770945312511,0.2596250449999999,0
mp-989608,Cs2NaAsCl6,3.062,-1.823043736956,0.0,0
mp-610645,Ce(NiAs)2,0.0,-0.8124025559999999,0.0,0
mp-850366,Li3MnFe2(BO3)3,2.7882,-2.445409499011668,0.0046868953703693,0
mp-2633,GeO2,0.7843,-1.869054235,0.2249108941666672,0
mp-12245,Rb3TiF7,3.037,-3.440543834545152,0.0,0
mp-16646,PrMgRh,0.0,-0.5811523300000007,0.0,0
mp-23682,KH3(CO2)2,4.8037,-1.4482863233360002,0.1233892742499991,0
mp-865579,Li2ErIn,0.0,-0.2774329762500001,0.0,0
mp-767747,LiVSiO4,2.5729,-2.77765312232143,0.0745206941964262,0
mp-6425,Li3In2(PO4)3,3.7684,-2.6065449319642857,0.0,0
mp-561015,Y9C4I8O,0.0,-1.2485962956250003,0.0,0
mp-775570,Na3VO3,0.2183,-1.9127928748214291,0.0880527335714278,0
mvc-4630,Mg(AgO2)2,0.0,-0.9518817892857138,0.2030653670833331,0
mp-22909,ZnCl2,4.0533,-1.53833741384,0.0,0
mp-984768,DyHoIr2,0.0,-0.8299412304166669,0.0,0
mp-165,Si,0.451699999999999,0.0107458899999999,0.0107458899999999,0
mp-29330,K2H5F7,7.1692,-2.312142529209285,0.0,0
mp-650328,NbTe4,0.0,-0.3284198653333334,0.0,0
mp-6331,Na2Y2B2O7,4.3727,-3.1714390566987185,0.0043828411965805,0
mp-2632,TlF3,1.2591,-2.1193442127675004,0.0,0
mp-8453,RbNaO,1.9855999999999991,-1.2902709070833334,0.0118867333333305,0
mp-980648,TmThRu2,0.0,-0.4748769550000009,0.0,0
mp-2885,Ga(MoS2)4,0.0,-1.1739730524999994,0.0383581828571433,0
mp-761935,Li3V3P8O29,1.2578,-2.5434468010700444,0.0437074029360502,0
mp-11118,CsPrCdSe3,1.9664,-1.368068453463542,0.0,0
mp-569465,Cs2Nb6PbCl18,1.0644,-1.7830432529140747,0.0,0
mp-24931,In(FeO2)2,0.0,-1.8122219878571428,0.0692430328571456,0
mp-752729,CaTb2O4,3.6321,-3.7267620263095234,0.0779904969642881,0
mp-30224,Si3(Cl4O)2,5.5809,-2.0744781254676923,0.0076865101923084,0
mp-790062,V5Sn(PO4)6,0.040299999999999,-2.6011903992658723,0.0587729156597216,0
mp-769655,Mg2CoO4,0.7200000000000001,-2.1908290807142854,0.0627345256250002,0
mp-696379,BH3OF4,7.657299999999999,-2.352780560948518,0.0,0
mp-19269,NdCrO3,2.3395,-3.14502703475,0.0,0
mp-9126,Sr(SbO3)2,2.779,-2.404327763055556,0.0,0
mp-774076,Li4Mn3Fe(BO3)4,2.9623,-2.4931141368561107,0.0053703910416667,0
mp-770935,Na3CuPCO7,0.159499999999999,-2.126607127257327,0.0367437945192277,0
mp-867166,PuO2,0.0,-3.537335766458334,0.0861244933333331,0
mp-504934,Sc2CI3,0.568299999999999,-1.0534906004166669,0.0,0
mp-542477,Ho2MoO6,2.1491,-3.248833709166666,0.0,0
mp-11691,Nd2HgO4,2.2077,-2.9495296592857145,0.0,0
mp-557417,As2Cl3OF5,3.3,-1.8993584617709087,0.0,0
mp-767863,Li3VPCO7,3.2087,-2.4244090487957872,0.0863702618028821,0
mp-19015,VCrMoO7,2.4206,-2.232170468375001,0.0089833714687834,0
mp-771257,MnTlO3,0.0,-1.5423785576086655,0.030668872395835,0
mp-504812,Hf3P,0.0,-0.7954591254613099,0.0,0
mp-9767,BaAs2Pd,0.0,-0.81992932,0.0,0
mp-779925,Ce(WO4)2,1.5929,-2.577037957272726,0.0872023063636362,0
mp-773308,Li2MnCrO4,0.0,-2.254352628244999,0.0247221675000206,0
mp-768764,Li2BiBO5,0.0,-2.0826343214351843,0.0558932880555591,0
mp-1294,YCo2,0.0,-0.1798659391666663,0.0,0
mp-976322,Li3Pt,0.0,-0.4195751075,0.0024161125000001,0
mp-13962,HfSiSe,0.0,-1.0013008028645831,0.0,0
mp-555113,Rb3Cu2(BiS2)5,0.5187,-0.9219235165312504,0.0,0
mp-1001034,Mg(InSe2)2,0.7431999999999991,-0.7143469020535714,0.0397479246428571,0
mp-568604,KHgC2IN2,2.635599999999999,-0.159831927108571,0.2675060028914284,0
mp-3368,LiNb3O8,2.9705,-2.9962468004166665,0.0,0
mp-777204,Li4Ti3V2Ni3O16,1.6363,-2.4257360578571427,0.0686735989583313,0
mp-767358,MnV3Sb2(PO4)6,0.004399999999999,-2.5044588605425395,0.0609017863194418,0
mp-545500,BaSbClO2,2.881,-2.506635041152,0.0,0
mp-721905,B5H4NO10,0.0,-1.8886304200096664,0.3388830495357506,0
mp-625145,H7ClO3,4.1696,-1.2787325402136362,0.0436240149999989,0
mp-777465,Li3P3(WO6)2,3.6739,-2.5059995739642864,0.0386303368749967,0
mp-762296,Li2Co3NiO8,0.0,-1.4451244185714285,0.0014099566071434,0
mp-30787,MoRh3,0.0,-0.2397480112500005,0.0,0
mp-24303,Mg3P4H48(NO15)2,5.400499999999999,-1.5740878553839184,0.0,0
mp-697921,Mg5H8O9,3.5747,-2.159321884100456,0.0087920999999981,0
mp-762850,Li2MnNi3O8,0.1299,-1.3111405329257144,0.0519646200595245,0
mp-23080,AlBiO3,1.585999999999999,-2.44672428975,0.1206262996249947,0
mp-973461,Hg3C,0.0,1.519726858125,1.519726858125,0
mp-21019,Cr2FeS4,0.0,-0.9291864223214292,0.0961570835714313,0
mp-566013,K2Mn2P2O7F2,3.358,-2.7531623251160307,0.0,0
mp-25959,LiBi(PO3)4,4.1457,-2.537432637354498,0.0458158066666642,0
mp-1008929,FeN,0.0,0.0679272038100009,0.3809042100000006,0
mp-21008,Ni3Ge,0.0,-0.28794101125,0.0,0
mp-555253,La5Ti2AgS5O7,1.5128,-3.110847036369792,0.0,0
mp-1027608,Mo2SeS3,0.5037,-1.1363572826302086,0.0106443274999987,0
mp-569383,Ca5(CoN2)2,0.350299999999999,-0.8053036274563629,0.00084674,0
mp-762174,Ti3Fe2Co(PO4)6,0.054899999999999,-2.78221422218254,0.021994012222219,0
mp-754955,LuSiRu,0.0,-0.8736220683333341,0.0,0
mp-556962,Pr3CuGeS7,1.6603,-1.8514732465364592,0.0,0
mp-28978,Ba2S3,1.597799999999999,-2.0170282874375003,0.0637721009999987,0
mp-555483,SiO2,4.721699999999999,-3.266708145833334,0.0180047616666669,0
mp-764700,Li9Cr5O12,1.4592,-2.258324614423077,0.0656940223076949,0
mp-7614,Si(Ag4S3)2,0.7551000000000001,-0.4666363861250005,0.0,0
mp-763768,K8Li9Mn4O16,0.435799999999999,-1.8868116025362165,0.0459384566300657,0
mp-31523,K2Co2(SO4)3,2.7184,-2.0729183387993424,0.0,0
mp-997028,AgO2F,0.494299999999999,-0.6383007834224994,0.029421262083332,0
mp-567550,In3Au7,0.0,-0.1401830691666665,0.0020988991666675,0
mp-9348,KRb2ScF6,6.5217,-3.589689975714,0.0023288379999977,0
mp-5628,K(RuO2)4,0.0,-1.4896343207692302,0.0,0
mp-983551,CePmTl2,0.0,-0.2950025193749997,0.0,0
mp-11248,LiAu3,0.0,-0.3591073800000002,0.0,0
mp-5626,K3SbTe3,1.711,-0.7848193089285712,0.284415494642857,0
mp-31103,Ni3Te2,0.0,-0.1721005040000001,0.0,0
mp-982873,Na3Tl,0.0,-0.077868655,0.0052660749999999,0
mp-567855,RbGeI3,2.1987,-0.8082850829999998,0.0039461440000003,0
mp-707226,H8Se2N2O5,3.748,-0.9949895965975,0.0897633472337871,0
mp-770864,Li5Fe2P2(CO7)2,1.4098,-2.3594143851476193,0.031298529199998,0
mp-770531,MnP2O7,0.851699999999999,-2.3968527888400484,0.0008633037499992,0
mp-779920,Gd2W2O9,1.8332,-2.8650432718269245,0.066240650384568,0
mp-558842,Sm7BP2O17,4.788600000000001,-3.631838904596561,0.0,0
mp-764030,V4O5F7,0.4751,-2.7464313905987505,0.028555186250017,0
mp-763753,Li2Ti2FeO6,1.9744,-2.829338258257576,0.083669425000016,0
mp-754145,TbLuO3,4.6811,-4.003987202416669,0.0662521384999976,0
mp-8516,CdSO3,3.3333,-1.788042273562502,0.0729525072499992,0
mp-17538,K3SbSe3,2.2931,-0.9649245322544644,0.0,0
mp-675637,Ge5(Te4As)2,0.0,-0.0041155770000003,0.0615745606666666,0
mp-11644,Li2Ca,0.0,-0.00678364,0.0029697575000002,0
mp-20763,Na2Gd2Ti3O10,1.712399999999999,-3.350583183676469,0.0733417884705467,0
mp-31623,Ca2CoO3,0.9185,-2.469768258958334,0.1813981674999993,0
mp-689963,CrPO4,2.0446,-2.4305840263492065,0.1712871966666664,0
mp-17945,RbPSe6,1.8607999999999991,-0.3448370377697176,0.0,0
mp-979984,YbP3,0.0,-0.1761993735714293,0.3085038668749993,0
mp-997054,CuBiO2,0.8431999999999991,-1.2692590493749991,0.0077315990624935,0
mp-643086,MoP4C5S3O5,2.1921,-0.7046015279621369,0.5438204540324403,0
mp-764517,Li3Fe8(BO3)8,1.2487,-2.342744005658915,0.0712171910900991,0
mp-738624,SmP2H9O11,5.0568,-2.1092252378269767,0.0196338797826092,0
mp-1018735,BaTi2As2O,0.0,-1.7024952757638891,0.0,0
mp-1018804,MnS2,0.0,-0.9605020577083346,0.0291011550000002,0
mp-1419,S5N6,2.2908,0.1392558623097735,0.2342900024813632,0
mp-541331,Sr2PrGaCu2O7,0.0,-2.4669144033653847,0.0122782738461646,0
mp-4439,Pr(SiNi)2,0.0,-0.7914879960000001,0.0,0
mp-779545,Na3CuO2,1.721899999999999,-1.3321103212499998,0.0403520316666643,0
mp-761360,MnCd9O10,0.0,-1.4364837459229995,0.0077223975000002,0
mp-772185,Li6Hf2O7,4.4135,-2.980977463916666,0.0,0
mp-763671,Li2Ti2V3O10,0.5897,-2.811308169166665,0.0617787157352971,0
mp-540839,CsPbI3,2.5199,-1.0473397544999998,0.0,0
mp-1027273,MoW3S8,1.2576,-1.2724256043750006,0.0018690266666663,0
mp-6606,SrYSi4N7,2.744199999999999,-1.4597990233969222,0.0012639336538562,0
mp-866522,Ca2SnS4,1.052099999999999,-1.6229810216071436,0.1466135024999983,0
mp-672645,TiSiRh,0.0,-0.973096192222222,0.0,0
mp-780237,Li3Cu3(PO4)2,0.7711,-2.0835310163244043,0.0850380829687518,0
mp-780869,Tm2WO6,3.215099999999999,-3.3487812884722232,0.0014079309722241,0
mp-674492,Na2U2O7,1.583199999999999,-3.2863453967045464,0.0,0
mp-650024,RbLiBi2(MoO4)4,2.9643,-2.0790898729166662,0.0034568797974481,0
mp-695582,Na3Sr4La3Ti10O30,1.942399999999999,-3.4966576115833323,0.0094127330700004,0
mp-767124,Li2MnO2F,1.0404,-2.418207534525,0.0810057720833299,0
mp-24124,NdH2ClO2,4.8667,-2.4574656000833337,0.0,0
mp-15704,BeSiN2,3.562099999999999,-1.410658064939999,0.001184796875,0
mp-565979,MnBiAsO5,2.382,-1.8882269159012504,0.0,0
mp-774950,Li2V3CoO8,0.7871,-2.2927157832142853,0.0539119835119059,0
mp-35659,HgPbF6,1.3237,-2.0817741508925005,0.0,0
mp-8719,K2MnTe2,0.8458999999999991,-0.7599268090000002,0.0,0
mp-11489,Li3Pd,0.0,-0.3087134600000003,0.0,0
mp-986716,Sr3N2,0.3481,-0.6618761602019994,0.0301407807499982,0
mp-851357,Fe2S,0.0,-0.2204050013541667,0.3430630916666661,0
mp-770398,NiSnO3,1.7717,-1.6198805507500011,0.0114595949999873,0
mp-1018647,YbNiH3,0.0,-0.6516422551719998,0.0,0
mp-771904,Li6Mn2P(CO4)4,0.0,-2.1795466918970767,0.0885237085775845,0
mp-1029139,Te4MoW3S4,0.0,-0.6359757230208345,0.0899436356250005,0
mp-865865,Yb(ErS2)2,1.466399999999999,-2.519150294464286,0.0,0
mp-677573,NaCa2Mg2(AsO4)3,2.9898,-2.5547093018750013,0.0,0
mp-763862,Li2VFe(P2O7)2,1.720399999999999,-2.6652299359036804,0.0010263295454313,0
mp-36066,PNO,5.0722,-1.4972836639084133,0.000962293333333,0
mp-761828,LiCoPO4,2.761199999999999,-2.365141954727892,0.0692098508928591,0
mp-685266,LiMg7N5,0.0781,-0.7948965634794875,0.075730979935896,0
mp-777305,LiFeF3,3.1206,-2.8626264897140015,0.0524259039999952,0
mp-1208,ErAl2,0.0,-0.5089232400000002,0.0,0
mp-12098,K(PRh)2,0.0,-0.7414386352380944,0.0,0
mp-581609,BiP(PbO2)4,2.5484,-1.9168318234353732,0.0002617579464283,0
mp-1029446,CaGeN2,0.0,-0.609562004939999,0.2102073437500005,0
mp-23210,MgCl2,5.6168000000000005,-2.250998962173333,0.0,0
mp-569179,Ni3Mo3C,0.0,-0.0479845960714279,0.0490165457142843,0
mp-15483,Zn3(AsO4)2,1.8965,-1.7794095803846155,0.0054876949999993,0
mp-774192,Li2VO3,1.6959,-2.483652016458334,0.0216533020833393,0
mp-779965,V2O3F,0.0,-2.58437354749,0.0870358108333384,0
mp-1018902,PrSbPt,0.0,-1.1109587649999997,0.0,0
mp-1030682,Te3MoWSe,0.0175,-0.2527534630989585,0.0488273397916652,0
mp-862857,PaS3,0.0,-1.4920154592968746,0.0,0
mp-18365,RbCuSe4,1.0026,-0.4112821223958337,0.0,0
mp-974309,In3Ga,0.0,0.0469289750000001,0.0469289750000001,0
mp-706617,Na2AlSi3HO9,4.6627,-2.9629028687418755,0.0,0
mp-758945,Li5CuHO4,0.2156,-1.7509712222609088,0.0813427148863663,0
mp-989632,LaOsN3,0.018399999999999,-0.6044682144279989,0.0205010600000008,0
mp-773141,BaLaCl5,3.9903,-2.825031854471429,0.0689745721428591,0
mp-560842,Cd2SiO4,1.0232,-2.10896313,0.1345085721428542,0
mp-862373,ScS2,0.0,-1.6431628427083342,0.2855321464062497,0
mp-19359,NaFeO2,1.9918999999999991,-1.9375753793750008,0.0,0
mp-13496,ZrPd,0.0,-0.5911075050000001,0.0582013750000003,0
mp-758587,Li2CuPO4,1.4144,-2.311324846011904,0.056942528437502,0
mp-722266,Na2GeH16Se3O8,2.1426,-1.2470451132067075,0.0183406160833392,0
mp-961678,ScCoTe,0.867799999999999,-0.7911986399999998,0.0191885575000005,0
mp-1030467,Te4Mo3WS4,0.0,-0.6613381446875005,0.1163669999999994,0
mp-773953,Ba2LaCl7,4.4004,-2.8236849742819983,0.0881679120000029,0
mp-631299,NbCrCo,0.0,0.8289790733333339,0.9307331166666656,0
mp-23398,BClF6,3.303099999999999,-2.1457821446333334,0.0,0
mp-567949,Hg3AsSe4Br,1.3029,-0.2499954215972223,0.0,0
mp-766055,Li7TiFe3(PO4)6,1.0648,-2.5920871847619056,0.1163536452439242,0
mp-631440,BiTeIr,0.0,0.9436704149999996,1.089350116666667,0
mp-1027663,Te4Mo3WSe4,0.0,-0.3929384086979167,0.0497315825000006,0
mp-2281,SmSb,0.0,-1.1758149737499997,0.0,0
mp-30711,Nd2Zn17,0.0,-0.2539930194736841,0.0,0
mp-763154,Mn3CoCu2(PO4)6,0.0,-2.1491623830958733,0.0675924613194443,0
mp-867210,LiCa2Hg,0.0,-0.2894646074999998,0.0012099284375,0
mp-764683,Li5NiO3F2,0.0,-2.1303100896481824,0.0901659729545487,0
mp-567163,K2UMo(IO6)2,2.1943,-2.0425054815277783,0.0,0
mp-27975,NdBr3,2.9211,-1.9163356618749996,0.0,0
mp-10152,La(SiIr)2,0.0,-1.0295312190000003,0.0116133210000004,0
mp-4611,Th(SiPt)2,0.0,-1.0340412459999997,0.0963236909999967,0
mp-97,Pr,0.0,0.0155982300000001,0.0155982300000001,0
mp-510421,CrO3,2.2551,-1.5377895109374995,0.0324438759375009,0
mp-28125,H11NF8,7.2099,-1.6907896199609995,0.0,0
mp-561779,Cr3O8,0.4215,-1.5920512186363631,0.1209306579545455,0
mp-781628,Li7Mn8(BO3)8,0.5628000000000001,-2.4999114149151773,0.0239923196276468,0
mp-19461,Na5Nd(WO4)4,4.786399999999999,-2.405084689326922,0.000756241875,0
mp-24356,CdH4NCl3,3.5397,-1.0792861510155554,0.0,0
mp-762463,Li3CrSi2O7,2.715,-2.7950222227243566,0.0428254806410235,0
mp-1023193,CaMg6Nb,0.0,0.1211436000000003,0.1617399256250005,0
mp-850154,LiCrP3H8O13,2.5294,-2.0188165857498346,0.0502221287660225,0
mp-1030750,Te2Mo3W(Se2S)2,0.0,-0.6608225493749996,0.0577607633333343,0
mp-541611,La4Ru6O19,0.0,-2.3317339397844816,0.0,0
mp-2559,SeS,0.0,0.0611056486718748,0.0611056486718748,0
mp-754503,ZrBrO,0.0,-2.4488125287500004,0.1044472333333326,0
mp-626554,NaH9O5,4.2012,-1.4170900662553323,0.0302192493333342,0
mp-25470,AlCl3,0.0,-1.0398177399450002,0.9098952362499996,0
mp-556809,Sr11(OsO6)4,0.0,-2.6162128008974355,0.0,0
mp-569915,Er5Rh3,0.0,-0.7590405712500008,0.0032494556249993,0
mp-10351,Tm3GaC,0.0,1.1885579805,1.5253549643333335,0
mp-770362,Li3Al2VO6,2.2174,-2.8045310072916667,0.0891307695833329,0
mp-6094,Ca2MgSi2O7,4.467700000000001,-3.389749083645834,0.0225927318749992,0
mp-554650,LaH6(ClO3)3,2.5974,-1.3579011264605267,0.0812060340789466,0
mp-505090,Na(CuO)2,0.0,-1.13062926,0.0,0
mp-9923,VP2,0.0,-0.615813650396826,0.0,0
mp-707744,K2TeH10(NO7)2,2.785,-1.4237677168434484,0.0092201974137902,0
mp-755586,NaLaO2,3.2411,-3.053562855625,0.0,0
mp-762393,Li2Cr(Si2O5)2,2.614,-2.9497762786764703,0.0444916107646919,0
mp-754976,Cs2BeO2,2.7782,-1.9960396295,0.0509304950000002,0
mp-765445,Li2VF4,2.4348,-3.0416521935371432,0.0620975349999985,0
mp-735519,KHoCoSi2O7,3.0267,-2.956714556979166,0.0637503457500026,0
mp-696087,LaP2H2O9,0.7138,-1.6123846805128923,0.8564162172767853,0
mp-743926,FeH4(CO3)2,2.5092,-1.5403589959215391,0.0,0
mp-30109,Sb2(AuF6)3,0.1672,-1.9875520820182613,6.617728260405187e-05,0
mp-771115,Cu2NiO4,0.091899999999999,-0.7629881378571426,0.0946431096258617,0
mp-744988,KAl2NiP3(H2O7)2,4.5312,-2.4725581684506284,0.0,0
mp-11334,W,0.0,0.0901560649999986,0.0901560649999986,0
mp-677014,K2ErTi(PO4)3,2.5575,-3.1170161429448617,0.003001471907905,0
mp-974035,Pb3I2(Cl2O3)2,3.2548,-1.2502615503693335,0.007795018166667,0
mp-760054,Sn9(O2F5)2,2.4885,-2.172754009647826,0.097472625543479,0
mp-676014,NaAl11O17,4.4125,-3.3728761957327587,0.003252943793103,0
mp-765607,Na5Mn7O16,0.0,-1.8665056193471423,0.0927772064285648,0
mp-989614,LaReN3,1.397299999999999,-0.927431755927998,0.0408503635000006,0
mp-34260,ZrF4,4.358900000000001,-3.890462476952001,0.1334528334999989,0
mp-3123,PPdSe,0.9677,-0.3859843722296633,0.0,0
mp-1907,TiTe2,0.0,-0.6958426188888893,0.0,0
mp-10343,Sc2BC2,0.0,-0.5703901183333329,0.0,0
mp-36529,Na3(WO3)10,0.0,-2.19688999889535,0.0,0
mp-770044,K3FePCO7,3.743,-2.3315538037957872,0.0067420850961532,0
mp-1690,TaS2,0.0,-1.472546959375001,0.0207897833333401,0
mp-24201,H2S,0.0,0.5026090662325,0.9745042433333342,0
mp-1027267,Mo3W(SeS)4,0.703599999999999,-0.9633434492187511,0.0141007133333328,0
mp-780409,La4Al2O9,4.382099999999999,-3.80369523475,0.0,0
mp-556262,SiO2,5.72,-3.2697952620833326,0.0149176454166664,0
mp-18299,UF3,0.2423,-3.7300688429758337,0.0,0
mp-764167,Na8Fe7(PO4)8,0.0057,-2.4638883579047626,0.0367679363181965,0
mp-2786,Ca5Zn3,0.0,-0.1815230637499998,0.0,0
mp-756686,AlGaO3,2.6071,-2.7535648392499987,0.1079233385,0
mp-2717,Zr2Ni7,0.0,-0.4256779872222225,0.0,0
mp-359,Cu3P,0.0,0.0246543404761894,0.0683399421874986,0
mp-974270,Na3Al,0.0,0.1732117237499999,0.1732117237499999,0
mp-1025853,Te2Mo3(SeS)2,0.0,-0.6956352139236104,0.0532214827777783,0
mp-561428,NiF3,0.0,-1.6771235883925,0.0258448974999963,0
mp-866883,Ca2SnS4,1.3308,-1.680632940535714,0.0889615835714279,0
mp-11033,TbAl7Au3,0.0,-0.5159325466666668,0.0,0
mp-20673,Mg(FeGe)6,0.0,-0.1440004661538453,0.0,0
mp-17972,Zn2Hg2OF6,0.8682000000000001,-2.0557624198536364,0.0,0
mp-971763,ZnSb3,0.0,0.2694043574999996,0.2828637403125001,0
mp-755463,Li3SbS3,2.098799999999999,-1.2057906231696427,0.0380107971428573,0
mp-780292,Li8Mn5Fe3(BO3)8,3.0066,-2.4799678018361107,0.0040002860069421,0
mp-555777,ZnGa3N3O,1.126399999999999,-0.9217230682362496,0.0245451803124998,0
mp-763048,V2OF5,0.7114,-3.0347381706916665,0.0174526108333319,0
mp-849667,Li4Co5O9F,0.238599999999999,-1.6951063788126324,0.1301026970394785,0
mp-25676,BaCoBP2HO9,3.0073,-2.653086513181809,0.0048259806666628,0
mp-568177,CaAlSiH,0.37,-0.4241794696550003,0.0048444740624997,0
mp-558350,Zn2TeBr2O3,3.2928,-1.3832215246875004,0.0,0
mp-37741,Ba(LaSe2)2,1.7602,-2.0338501034821426,0.0020537057142888,0
mp-777450,Ti5Mn(PO4)6,0.0,-2.9190421120240218,0.0898807697762897,0
mp-17155,La3AgSnSe7,1.2989,-1.4006040887630211,0.0,0
mp-776645,Li2MnP2O7,3.7889,-2.66023411257504,0.0285338859374979,0
mp-476,Ge3N4,1.9150999999999991,-0.1521018656457136,0.1085562042857146,0
mp-14649,Tb2Ge2O7,3.7452,-3.0726164579924236,0.0,0
mp-643263,Na3VH6O7,3.9991,-1.8117362356158824,0.0111866657352948,0
mp-6569,K3HgN5O11,2.4972,-1.2118595609074994,0.0649707158215031,0
mp-722674,K4Tc2H6C8O21,0.5076,-1.6382908956821949,0.1288145421341457,0
mp-23091,Ba2BiSbO6,1.7763,-2.4668719057500006,0.0001443070000091,0
mp-735491,CaMg2H24(ClO2)6,0.207899999999999,-0.4501842106986664,1.1578980286666658,0
mp-555948,C37F21,2.018,-0.7625969144394824,0.2326964048599133,0
mp-642227,Sb8Pb5S17,1.4318,-0.7249961101354164,0.0029322578333337,0
mp-557484,BiS4N3Cl4,2.0457,-0.6498066092858336,0.0110561873216665,0
mp-23318,BiSCl,1.9601,-1.0591781816075003,0.0,0
mp-771615,Li2TiVO4,0.0,-2.748541008333333,0.0271473165625053,0
mp-12016,Rb2SiS3,2.822899999999999,-1.463801346197916,0.0,0
mp-773785,K2TeO4,2.63,-1.809726923571428,0.0,0
mp-707105,Li3B5(HO5)2,5.8854,-2.5997048512786662,0.0,0
mp-761588,MnCo3O8,0.8144,-1.2713031771633323,0.0346611375000058,0