mpid,formula,BG,FE,e_hull,fidelity
mp-706620,H6S2N2O3,0.0587,-0.8388194252580765,0.2732136937018756,0
mp-571053,Al5Mo,0.0,-0.2393973783333324,0.0,0
mp-24073,Gd(HO)3,3.2235,-2.2831036099442863,0.0175197853571447,0
mp-1429,SmCo5,0.0,-0.0638306187499999,0.0,0
mp-776408,YNb2NO5,2.4179,-2.9700695559588888,0.071733615277779,0
mp-1179,DyNi5,0.0,-0.3293544811111116,0.0,0
mp-13985,Li2PdF6,1.8867,-2.3802565113488887,0.0,0
mp-20522,TmAgPb,0.0,-0.3321559433333334,0.0,0
mp-2439,ZrNi5,0.0,-0.3174398799999996,0.0018186104166675,0
mp-645593,Ca3ScCoO6,0.8271000000000001,-3.042689296590909,0.0,0
mp-2126,HfIr3,0.0,-0.7992141562499988,0.0,0
mp-2544,Zr2Be17,0.0,-0.2369276918421047,0.0,0
mp-558608,Nb2PbO6,2.536499999999999,-2.7553984012037054,0.0,0
mp-673703,Rb3Bi7Pb3(IO)10,0.2494,-1.0202184059848474,0.3190158867803028,0
mp-10503,MgB4Os3,0.0,-0.2293797483333337,0.0,0
mp-7140,SiC,2.302800000000001,-0.2019856187500002,0.0035911658333329,0
mp-28821,La2Ni12P5,0.0,-0.6948787023934843,0.0,0
mp-5438,TmBRh3,0.0,-0.8272112193333342,0.0,0
mp-979263,ThMg3,0.0,0.0476595237500001,0.0476595237500001,0
mp-774144,Li(WO3)2,0.0,-2.1843693675,0.0417741164316289,0
mp-761148,Ti9SnO20,1.7902,-3.3357745339999987,0.0436588294166657,0
mp-13568,NdS2,0.337099999999999,-2.186034053541668,0.0,0
mp-763865,V6O5F8,0.3929,-2.8366356645142106,0.089373192105266,0
mp-864993,DyB4Mo,0.2845,-0.6271710672222213,0.0,0
mp-20925,Co3C,0.0,0.1333995749999994,0.1333995749999994,0
mp-19261,Na3MnPCO7,3.2988,-2.3832846119465567,0.0,0
mp-762454,LiCrO2,1.768899999999999,-2.357860548125,0.0419091825000004,0
mp-704306,K2U2MoO10,1.6901,-3.0089385815,0.0041696867083338,0
mp-18055,La2Ge5Rh3,0.0,-0.8441075005000002,0.0,0
mp-20289,NaInS2,1.900099999999999,-1.20677190328125,0.0,0
mp-38487,Li7BiO6,1.8635,-1.991174410892857,0.0,0
mp-17064,Gd2Sn2O7,2.623399999999999,-3.008682057159092,0.0,0
mp-28007,BaHgS2,1.1569,-1.4880406282812504,0.0,0
mp-1029497,SrGeN2,2.454099999999999,-0.7206989677524991,0.0,0
mp-542024,Sc2GaB2Rh5,0.0,-0.8918164788333328,0.0,0
mp-973788,Ho2CuTc,0.0,-0.1180218899999996,0.0119503712500002,0
mp-565233,Nd3BWO9,3.802399999999999,-3.340566099315476,0.0,0
mp-21861,Cu3TeO6,0.0,-1.1103660412499992,0.0159349427500012,0
mp-9160,La4Au2O9,1.9691,-2.8511794230833334,0.0,0
mp-979040,TmAl3,0.0,-0.4005495374999999,0.0048363475000003,0
mp-1017,Zr3O,0.0,-1.5477366690624992,0.0042932100000001,0
mp-1025806,Te2Mo(WS2)2,0.222199999999999,-0.8106377606944454,0.1220311061111099,0
mp-865612,LiCd3,0.0,-0.1844271725,0.0,0
mp-640915,Na2LaPS2O7,3.6339,-2.552177394036172,0.140977529567305,0
mp-1857,YbCd,0.0,-0.4122194374999999,0.0,0
mp-554765,BaSb2F12,4.0459,-3.0061667196186663,0.0,0
mp-9588,LiP,0.8094999999999991,-0.5271788990476196,0.0,0
mp-3374,Nd4Au2O9,1.9966,-2.7840545792500007,0.0,0
mp-3435,Nd3Cu3Sb4,0.1975,-0.7701553817499999,0.0,0
mp-625604,H9BrO4,3.7298,-1.231040413398571,0.028090833035713,0
mp-771162,Na3CuSiCO7,0.0,-2.0858533531730776,0.0557662907692346,0
mp-654105,RhC2ClO2,1.7196,-0.9927269867933338,0.1352963963888918,0
mp-9656,BaY2PdO5,1.987099999999999,-3.04971045736111,0.018413354444446,0
mp-976,V6Si5,0.0,-0.5408652818181824,0.0149158546969685,0
mp-752496,TiOF,0.0,-3.410147820535556,0.0743795074999891,0
mp-10194,LuSbPt,0.0,-1.2090083016666664,0.0,0
mp-685168,BeF2,6.5396,-3.452316896418333,0.1179402313194444,0
mp-763959,Li3Mn3FeO8,0.4658,-1.9661713528586668,0.1418228582916967,0
mp-506,MgPd,0.0,-0.7268531249999999,0.0,0
mp-29483,MgInBr3,2.0567,-1.1711861364999998,0.0110759714999995,0
mp-27786,SbAs2Cl13,1.1627,-1.08987814796125,0.0,0
mp-3417,Ca(BO2)2,5.1925,-3.1275487129761905,0.0136551635714248,0
mp-867958,TaInRu2,0.0,-0.3337527174999994,0.0,0
mp-772981,Li2Zn3(Ge3O8)2,2.5146,-2.113293332222222,0.0,0
mp-2851,VSb2,0.0,-0.0608423483333335,0.0334722794444459,0
mp-3441,Y(SiRh)2,0.0,-1.1250478564999995,0.0,0
mp-773463,K2CoPCO7,0.9361,-2.1644520161954364,0.0,0
mp-776887,Fe3NiSn2(PO4)6,0.058499999999999,-2.322866016626984,0.077382137337997,0
mp-2731,TiGa3,0.0,-0.3657066266666673,0.0,0
mp-28147,Er4Ni13C4,0.0,-0.3574771338095239,0.0,0
mp-19985,TlIn(PSe3)2,1.4263,-0.2829190802752975,0.0,0
mp-864921,MgZrIr2,0.0,-0.7440399999999999,0.0,0
mp-30167,Rb3Os2Br9,0.4873,-0.8344801464285709,0.0,0
mp-762635,Li3Mn3NiO8,0.3784,-1.9400087988586656,0.0306970764880869,0
mp-755021,ReO3,0.0,-2.1407521851041684,0.013966070833332,0
mp-1016821,BaSiO3,0.9385,-2.8567022927500005,0.5620722189999974,0
mp-767624,Li9V5(SiO8)2,1.6405,-2.5860681949999997,0.0556854431250037,0
mp-6268,KTiPO5,3.0442,-3.0693048868452384,0.0,0
mp-9289,ZrSnTe,0.0,-0.678274658333334,0.0,0
mp-1028917,MoW3(SeS3)2,0.5093999999999991,-1.0872783417968748,0.0280249483333356,0
mp-540702,Fe7Se8,0.0,-0.1325939523611118,0.1574291012222222,0
mp-770888,Li4Nb5V3O16,0.131599999999999,-2.659781985714285,0.0775214349032786,0
mp-488,CuSe,0.0,-0.1271982217968747,0.0005548741666663,0
mp-1027740,TeMoWSeS2,0.0,-0.7746303061197916,0.0923782408333338,0
mp-765472,KTi6O12,0.0,-3.4082197278947364,0.0008292815131607,0
mp-9059,KLi6TaO6,4.3852,-2.504092687678572,0.0,0
mp-23729,NaBeH3,0.9154,-0.1383943331719997,0.1258738206666669,0
mp-15605,ScSi3Ni2,0.0,-0.6665820133333339,0.0085764337499982,0
mp-771126,Lu2TiO5,3.1632,-3.9100619997395833,0.0237053634375001,0
mp-977176,NaTcO3,0.0,-1.9997494257500008,0.0,0
mp-27238,SbXeF9,2.1416,-1.8189564698372729,0.0004413715909068,0
mp-780160,Li2Cr(PO4)2,0.0363,-2.539922000476191,0.0567485576465136,0
mp-19553,Mn3Al2(SiO4)3,3.5565,-2.973844495769,0.0071914095500016,0
mp-763834,K2LiMnPCO7,3.2914,-2.361715098869633,0.0641993642307721,0
mp-6520,Ba3MgRu2O9,0.0,-2.44348879275,0.0,0
mp-780827,FeOF,1.770199999999999,-2.220703314146668,0.0599806316666642,0
mp-556721,Ba5Re3BrO15,2.54,-2.7672523051562488,0.0,0
mp-648971,Ce2Mo4O15,0.053799999999999,-2.5664835168452367,0.0262245504591831,0
mp-567729,La7C3I10,0.0,-1.2572227921249997,0.0,0
mp-20995,Eu4As3,0.0,-1.2272185142857148,0.0,0
mp-2120,HoAg2,0.0,-0.3301228383333328,0.0,0
mp-767706,LiV2F7,2.0983,-3.148903118333,0.0787341294999901,0
mp-37312,Na(La2Se3)4,0.0,-1.979785227767857,0.0,0
mp-555433,NaYbCO3F2,0.6712,-2.7620111935787497,0.0397819425781289,0
mp-769809,Gd3TaO7,2.6138,-3.8135257235227273,0.0020890454545394,0
mp-662802,Os6C19SO19,1.7127,-0.9432781694513892,0.2132366375000014,0
mp-850110,Li2Mn(SiO3)2,3.486899999999999,-2.848673691678182,0.0143417845454454,0
mp-8230,Zn(PO3)2,4.6635,-2.492052915410053,0.0129572975000034,0
mp-11101,LuInRh,0.0,-0.7611581283333338,0.0,0
mp-771379,LiCrBO3,1.5389,-2.4464822284027767,0.0439542565476207,0
mp-641945,Tb2Sb5,0.0,-0.6541353145238092,0.0009874850000004,0
mp-768976,Cs3ScO3,2.7453,-2.2969201355357143,0.0,0
mp-680145,CdI2,2.3195,-0.5904122523333333,0.0017247462222222,0
mp-779089,CoOF,0.0,-1.6522541130355548,0.1114813923611111,0
mp-32041,NaMoPO6,2.7291,-2.401362305621693,0.0,0
mp-554353,TiS4(NCl)5,1.4847,-0.6351683002411107,0.2122584193495242,0
mp-1028517,Te2MoW3(Se2S)2,0.0,-0.5844600718750014,0.0788860841666672,0
mp-696,SiPt,0.0,-0.6704297762499998,0.00185857625,0
mp-773500,LiMnCuO4,0.0,-1.6214538629942865,0.0219865420238081,0
mp-555131,CsCO2,4.1438,-1.9206271728125,0.0,0
mp-861906,BaNa2Mg(PO4)2,5.0412,-2.9797098832993196,0.0,0
mp-554949,Ba6Ru2Pt(ClO6)2,0.6919000000000001,-2.392436435283479,0.0,0
mp-541863,ZnHgC4(SN)4,2.490199999999999,-0.1759673464835712,0.1382469955189789,0
mp-6721,Sr3LiRuO6,0.399,-2.596277102954545,0.0,0
mp-32341,EuNiO3,0.0,-1.9752163447499995,0.0,0
mp-3432,ScNiSb,0.267999999999999,-0.8983539883333336,0.0,0
mp-707530,Na3AlP2H2O9,4.4885,-2.578724907040028,0.0,0
mp-1009078,CoN,0.0,0.3239203688099996,0.4032513349999993,0
mp-580192,HoGe2Pt,0.0,-0.8543653887499998,0.0,0
mp-555575,Rb2AgC3(SN)3,3.1003,-0.4943210103606243,0.0519659926130922,0
mp-1013643,Sr3BiP,0.0,-0.9172315466190476,0.0438681969166663,0
mp-976343,HoErPd2,0.0,-0.9175738100000004,0.0178549787499999,0
mp-560629,K3Al2(PO4)3,4.4329,-2.957994432714285,0.0,0
mp-777851,Li3Bi(BO3)2,2.935699999999999,-2.4028443538194444,0.0754726591666665,0
mp-34023,Ba2NbO,0.0,0.3100238446874997,1.7269775549999995,0
mp-7754,Si2Ru,0.0,-0.4158988916666656,0.1266651625000001,0
mp-865227,TmMgCd2,0.0,-0.2801765299999999,0.0,0
mp-22934,K2PtCl4,1.7942,-1.675809817577143,0.0,0
mp-18051,La2TiO5,3.288599999999999,-3.868062555052084,0.0,0
mp-755420,SrSm2O4,2.8981,-3.6041463278571433,0.0504839491071411,0
mp-4632,Sr3(PO4)2,5.4064,-3.33822234047619,0.0,0
mp-541214,KS2O3,3.7767,-1.944114841354167,0.0105764317934768,0
mp-27851,Hg3(SeCl)2,1.7701,-0.6000442569582146,0.0,0
mp-764011,NaV(PO4)2,1.8202,-2.544268792599206,0.0313295192361051,0
mp-4533,Na2SiO3,3.8657,-2.715942377291667,0.0,0
mp-650026,PrIn2Cl5,2.7765,-1.94690372485,0.0,0
mp-569264,NdIr5,0.0,-0.253010704583333,0.094431590000001,0
mp-677348,Nd8AlSi3(NO5)3,1.0276,-2.6274456426963337,0.7063103421666739,0
mp-3869,TbBRh3,0.0,-0.790674946,0.0,0
mp-29619,Sr2Bi,0.0,-0.7513698816666666,0.0241414616666668,0
mp-776864,V3CoO8,0.6205,-2.1885905683333333,0.0407848966666613,0
mp-775260,Li6CoCu3(PO4)4,0.0,-2.2816970454126984,0.0744265287083401,0
mp-8447,K5Ti3F14,0.0,-3.4500232548481806,0.0,0
mp-764209,Co4OF11,0.522699999999999,-2.0244646537087503,0.0514290605468739,0
mp-632693,Zr5(In2Rh)2,0.0,-0.5411357536363642,0.0,0
mp-6870,KBe2BO3F2,6.0552,-3.1892115758662967,0.0,0
mp-31593,Na4CoO4,1.356899999999999,-1.6254471844444442,0.0,0
mp-769531,Na3Mn2P2(CO7)2,0.7589,-2.2607927500265435,0.006185476304334,0
mp-625051,NaHO,3.354899999999999,-1.565780094956666,0.0475944350000032,0
mp-771184,Cr10Fe5O24,0.0,-2.030809119743591,0.1023134060256367,0
mp-23086,ErSeClO3,4.3487,-2.503161382600625,0.0,0
mp-540231,Li2FeP2O7,4.1959,-2.6040884508283724,0.0223907898611157,0
mp-764662,LiFe2(BO3)2,1.485899999999999,-2.3605235348484843,0.0555598017613885,0
mp-650532,Cs2K2Cd3O5,1.2431,-1.4189069430208328,0.0,0
mp-18652,Sr3HoRhO6,2.1668,-2.952414984772727,0.0,0
mp-559822,La2TaCl3O4,3.6843,-3.3754146696446656,0.0029919330833356,0
mp-764761,Li2VOF4,2.0956,-3.02770382793875,0.0187733853422749,0
mp-569812,BaN3Cl,4.0774,-1.2535216550799997,0.0,0
mp-19058,Ba3CoRu2O9,0.0,-2.192605057416666,0.0,0
mp-10204,MnSe,0.0,-0.3485920967968745,0.0116716099999996,0
mp-1018850,OsC2,0.046999999999998,0.5743711349999998,0.5743711350000016,0
mp-766904,MnV4O12,0.9208,-2.15504489270353,0.0595285136764705,0
mp-3034,MgAl2Cu,0.0,-0.1808125399999998,0.0,0
mp-68,Sm,0.0,0.0274430324999999,0.0274430324999999,0
mp-989547,Rb2NaInCl6,3.0533,-1.979939754456,0.0,0
mp-4473,Ba(CuSe)2,0.486299999999999,-0.8828710694374997,0.0039133549999998,0
mp-753983,In2HgO4,0.1462,-1.6263517285714286,0.0043104132142861,0
mp-774239,Li(CoO2)2,0.0,-1.4309439264285717,0.1295874703571424,0
mp-7441,KP,1.0307,-0.4176419765476189,0.0,0
mp-646586,Sm6InCo2,0.0,-0.2068205105555552,0.0,0
mp-631,TiC,0.0,-0.8084725220833331,0.0,0
mp-22566,TlInS2,0.6884,-0.8529464457812503,0.0132708334375006,0
mp-773024,LiCa2Nb3O10,2.0086,-3.1592794434375,0.0321193567187503,0
mp-14222,TlGaO2,2.1553,-1.6161606106250002,0.1181305012499995,0
mp-542003,Yb2Ni12P7,0.0,-0.7474700188888891,0.0,0
mp-555342,Na2CaSiO4,3.336099999999999,-2.8131340090625003,0.0662327112500014,0
mp-764716,Fe2OF3,1.5097,-2.4424131033033336,0.0668457983333405,0
mp-24708,ZnH8SO8,4.6838,-1.5854767893345827,0.0166169998611112,0
mp-674373,Rb2U2O7,1.6448,-3.3100948703409085,0.0075014904545529,0
mp-540482,LiCrP2O7,1.2397,-2.5201608649945872,0.1643688981818201,0
mp-768154,Na3MgPCO7,4.5243,-2.5503276599496334,0.0,0
mp-582108,Sr21(Cd2Bi9)2,0.177799999999999,-0.8338251631395349,0.0,0
mp-697721,H8C2NCl,5.1211,-0.5140982599666669,0.0751006410416668,0
mp-7060,LaZnPO,0.6563000000000001,-2.0699073173363103,0.0,0
mp-14912,La4Si2Se3O7,2.2305,-3.183579897470704,0.0,0
mp-22514,Mn2Sn,0.0,0.1643288650000016,0.1643288650000007,0
mp-756515,Li4Nb(TeO4)3,0.0,-2.01587884675,0.0831842539687439,0
mp-777669,Li2FeF4,3.3555,-2.920097632108571,0.0709055628571428,0
mp-865897,Li2AcIn,0.0,-0.2613243018749998,0.0,0
mp-642649,BaH2O3,0.0,-1.530630427665,0.2754378892708358,0
mp-773259,Mn3Cr5O16,0.0,-1.8863943688699996,0.0770933503125004,0
mp-705451,CsTiMnOF5,2.0199,-3.3532149049807405,0.0,0
mp-765204,LiMn2F7,0.400499999999999,-2.8480958210250003,0.0346176006666558,0
mp-20187,LiInSe2,1.5731,-0.8796502542968749,0.0,0
mp-745115,NaFe9Si6B3H2O31,0.8508,-2.498609413672886,0.0,0
mp-540884,YCl,0.0,-1.78868783788,0.0510520479166682,0
mp-568233,CdI2,2.3727,-0.5905983500000002,0.0015386485555555,0
mp-21140,CeSb,0.0,-0.8561694924999994,0.1887825149999997,0
mp-1022722,Bi3O2,0.0,-0.9757225575,0.126701350666667,0
mp-767153,LiCo2(PO4)2,0.336099999999999,-2.2707131089377293,0.0290980677884755,0
mp-622251,Ba2CaFe2CuF14,0.9529,-3.3125541505830003,0.0053900660000012,0
mp-773554,LiMnP2HO7,3.7928,-2.4741334745433736,0.0359695858333202,0
mp-560558,CsCdAuS2,2.0699,-0.994065715625,0.0006173320000004,0
mp-769845,LiLa4MnO8,1.6309,-3.3561738350685717,0.0360505057142894,0
mp-30442,NpBe13,0.0,-0.0580259720535722,0.0,0
mp-6985,Ti,0.0,0.063424163333333,0.063424163333333,0
mp-642660,Mg2CoH5,0.194699999999999,-0.3459474291375,0.0,0
mp-607931,Cs3NaLi2(BO3)2,3.453999999999999,-2.346702848273809,0.0,0
mp-15339,Sr3As4,0.6184000000000001,-0.9596096221428572,0.0,0
mp-865861,LuMgAu2,0.0,-0.7872313675,0.0,0
mp-773547,Li3Fe2OF5,2.848,-2.6988190129272724,0.0864122586363649,0
mp-552857,TbBi2IO4,1.326699999999999,-2.2883732810416677,0.0,0
mp-769730,Li4V2Cr3Ni3O16,0.0,-1.949200342142856,0.0802568667857093,0
mp-567614,Tb2Co2I,0.0,-0.6025338353333332,0.0,0
mp-647,NbS,0.0,-1.229776637031251,0.0670804657317081,0
mp-770980,Li4TiMn(WO6)2,1.1055,-2.4172812791313327,0.0368576776250018,0
mp-30789,U2Mo,0.0,0.0859885033333327,0.0859885033333345,0
mp-585227,Co(PO3)3,1.5263,-2.3862658427335166,0.0,0
mp-2617,B2Pd5,0.0,-0.2533650819047618,0.0070519889285716,0
mp-21591,ZrCrSi2,0.0,-0.6223310616666673,0.0271276470833328,0
mp-11992,LiLa2IrO6,0.0,-2.78432407425,0.0,0
mp-22862,NaCl,5.003299999999999,-2.10492632913,0.0,0
mp-916,DyPt2,0.0,-1.1100969572222228,0.0008425404166665,0
mp-9389,HoCuGe,0.0,-0.6871990666666671,0.0,0
mp-8154,La2Ti2O7,2.9172,-3.7889570529166665,0.0097211418181846,0
mp-505331,CeMnSi,0.0,-0.5073059233333327,0.0,0
mp-567780,RbSn2Br5,2.388899999999999,-1.05338007125,0.0,0
mp-13654,Y3Sb4Au3,0.5757,-0.8239163027499998,0.0,0
mp-561926,NaNiIO6,1.6893999999999991,-1.003076868055555,0.0,0
mp-765076,LiMnOF2,1.2316,-2.631407684418,0.0803144947500102,0
mp-23576,CsSbClF3,3.6585,-2.613834831138333,0.0,0
mp-767642,Li4MnFe2(BO3)4,1.9108,-2.4581611546794213,0.0481625271739121,0
mp-634326,GaHO2,3.2584,-1.948003327155,0.0,0
mp-1101,TmAs,0.0,-1.4976052375000002,0.0,0
mp-5190,ZnSnAs2,0.0087,-0.18806340125,0.0,0
mp-851023,Li3Mn4(BO3)4,0.7007000000000001,-2.484291110674203,0.0358418341666464,0
mp-14011,Al(PO3)3,5.6178,-2.850622082348901,0.009721994038462,0
mp-567381,KHgC2,0.0,0.1936280899999998,0.3261801676562497,0
mp-6465,NaTi(SiO3)2,0.0,-3.1201150364166663,0.012654264593749,0
mp-569879,Cs2Ta6PbCl18,1.4561,-1.785364166247407,0.0,0
mp-570712,SnH16C4(NCl3)2,2.8562,-0.6883275688703447,0.0587319098275855,0
mp-10234,Sr2BN2F,2.5726,-2.0381169783527784,0.0,0
mp-690570,Ni4(BiO2)9,0.0,-1.2761761966935483,0.1680719325403137,0
mp-9085,CsTbS2,2.142,-2.164198795364584,0.0,0
mp-762039,Fe2H4O2F5,1.4287,-2.124909082917692,0.0023087946153799,0
mp-4482,NaSbO3,2.7012,-2.0782218747500005,0.0,0
mp-16595,K3DySi2O7,3.7064,-3.0998380115705126,0.0,0
mp-763657,V3Zn7H3SO19,2.6999,-1.9668997158688624,0.0081342520075819,0
mp-20882,CeBO3,0.0045,-3.4047958100833333,0.0,0
mp-19145,Ca4Al6WO16,3.891499999999999,-3.2820168303703707,0.0445637335185171,0
mp-30280,K4(TiTe3)3,0.0,-0.8420241915625004,0.0,0
mp-643896,Na2Hf(HO)6,4.3873,-2.011693498948,0.0184654240000012,0
mp-775485,Bi3PO7,2.3797,-2.0958512918344145,0.0,0
mp-667320,SeCl4,2.855,-0.8067543213892503,0.0091206434374995,0
mp-770951,Li4Mn3Ni3(TeO8)2,0.0986,-1.7604065333171428,0.0011678997420681,0
mp-777952,Na4Ni7O16,1.017199999999999,-0.8955825166666669,0.0654197490319878,0
mp-775811,LiVFeO4,1.113499999999999,-2.2570577460714283,0.03172856779761,0
mp-767728,Li6Mn(OF)3,2.1,-2.521398034867691,0.0888593192307745,0
mp-762180,LiV2(PO4)3,1.2198,-2.5981114996825405,0.0714418773611109,0
mp-758715,Li2CuSiO4,0.5165000000000001,-2.338556039375,0.0722135100000018,0
mp-561259,Na3NbOF6,5.0991,-3.1982926600809094,0.0,0
mp-764366,LiCoCuO4,0.0,-1.2793826321428574,0.0674718294196417,0
mp-23395,Hg2ClO,2.0369,-0.7306309892524998,0.0120672925000002,0
mp-695992,LiH2BrO5,1.8113,-0.8474195678877786,0.0709978548611109,0
mp-558259,Pr3Si2S8I,2.5743,-1.836313481607144,0.0,0
mp-24103,CuH12Br4(NO)2,0.4456,-0.8210755681285707,0.0283041854761902,0
mp-768522,La2Ce2O7,1.8497,-3.827493434886362,0.0906203040909083,0
mp-17751,Y5Ge3,0.0,-0.8360462628125003,0.0,0
mp-4198,Ag3PO4,0.1745,-1.4270396903869047,0.0,0
mp-605028,Te2Pd3Pb2,0.0,-0.3779732807142859,0.0,0
mp-18792,Ca3(CoO3)2,0.0,-2.430348312045456,0.003622359318169,0
mp-11470,Hg2Pt,0.0,-0.0585974966666664,0.0227184349999998,0
mp-559933,Ba3In2Cl2O5,1.4312,-2.5911079568975004,0.0052732203125014,0
mp-709074,FeH16C4(NCl2)2,0.0011,-0.5867516142859259,0.0602644624074066,0
mp-29484,K4HgAs2,0.6976000000000001,-0.4416672242857145,0.0,0
mp-12979,SnO2,0.0,-1.8803060324999996,0.2445487766666678,0
mp-1475,Be12Mo,0.0,-0.1214628299999998,0.0,0
mp-683911,C7SeNF5,3.0328,-0.630228847458839,0.3515230661358029,0
mp-772753,Li3ZnPCO7,4.3436,-2.3798336549496337,0.0426088677884601,0
mp-677245,Na2Sr3As4,0.504,-0.7494965622222219,0.1083148422222226,0
mp-765978,Li2MnOF3,1.3204,-2.750185502254286,0.0955818251785665,0
mp-780163,LiVP4(H2O7)2,2.1292,-2.32615303476504,0.0519485191666637,0
mp-2729,Sn7Os3,0.0,0.0215462790000003,0.0215462789999998,0
mp-540484,LiMnP2O7,1.314699999999999,-2.592368308718225,0.0,0
mp-9191,Na3SbTe3,1.454499999999999,-0.6393505921428572,0.371610786428572,0
mp-13206,PrZnPO,1.1665,-1.9833499673363104,0.0,0
mp-615,YMg,0.0,-0.1111512912500005,0.0,0
mp-540998,FeTeBr7,1.0596,-0.4350881044444448,0.0,0
mp-776074,CaGeO3,3.2925,-2.7325988000833337,0.0299729113333375,0
mp-761315,MnFeO4,0.0,-1.6124038668266654,0.0787827640625007,0
mp-542826,Sc2PbSe4,1.2338,-1.3607160270535712,0.0,0
mp-560715,Sn5(PO5)2,2.6984999999999992,-2.1617138258053226,0.0,0
mp-1019713,Cs4Si3O8,3.658,-2.8185657813333336,0.0,0
mp-765516,Li8Mn9O18,0.5634,-2.126828678461142,0.0219454375714018,0
mp-767,Yb3Ge5,0.0,-0.5748095481249997,0.0,0
mp-685935,CdGeO3,1.7144,-1.7807932867500007,0.1022919413333376,0
mp-752483,LiBiF5,0.0,-2.631071939421428,0.064282971071429,0
mp-19829,YbCrSb3,0.0,-0.3373821800000002,0.0478534390000007,0
mp-622122,U2(P2O7)3,0.262999999999999,-1.9328571765455664,0.8480086632758771,0
mp-672228,TiAs2,0.0,-0.3428444605555564,0.2916992541666659,0
mp-753945,ClOF3,3.6498999999999993,-1.0537083411160002,0.0,0
mp-16744,Y(Al5Fe)2,0.0,-0.357640486346154,0.0,0
mp-10553,Mg(C2N3)2,4.6077,-0.1871222272072711,0.1061853084527282,0
mp-768973,Ba2YCl7,4.5625,-2.7847584085320003,0.0790950004999997,0
mp-705517,CsCoH18N6(ClO2)4,1.3271,-0.6704116745389473,0.5001619199959677,0
mp-613384,CsIO3,0.0,0.5814525572500002,1.976984502000001,0
mp-8630,SbIrS,1.3963,-0.6958706830208333,0.0,0
mp-555083,Na3H5(CO2)4,4.4589,-1.5051769739049994,0.1080518125000065,0
mp-1018041,Ti2MnIn,0.0805,0.0471458016666668,0.2155848150000006,0
mp-14536,KNa2Zn3(PO4)3,3.9,-2.512829851156462,0.0020811998809522,0
mp-5714,TmCo3B2,0.0,-0.5261274022222212,0.0,0
mp-973956,Lu2CdAg,0.0,-0.3117662412499995,0.0,0
mp-17334,Sc2Cr4Si5,0.0,-0.550075744090908,0.0,0
mp-681150,Pu5Rh3,0.0,0.2147561897656249,0.4366588985351552,0
mp-622213,GeS2,2.1396,-0.757307462083333,0.0189297150000005,0
mp-850153,Li2Mn2(SiO3)3,3.0765,-2.7792800542606253,0.0675178314843716,0
mp-867750,Ti3PO7,0.0,-3.094030166076839,0.1359768019902727,0
mp-761755,LiCu(PO3)3,0.102499999999999,-2.336280672359694,0.080336607321418,0
mp-864632,Yb4Ni13C4,0.0,-0.3033139452380961,0.0,0
mp-767309,LiMn2OF3,1.9013,-2.702231795605713,0.0584331160714279,0
mp-510164,Fe2Sn,0.0,0.198359183333333,0.1985399561111105,0
mp-28072,La2Be2O5,3.9238,-3.503754905138888,0.0395134077777772,0
mp-779236,Li3VP2HO8,3.0833,-2.5437433103206986,0.0421740890520823,0
mp-571181,RbAuN12,1.4603,0.1485701486742862,0.2714542588271449,0
mp-18853,TlV2AgO6,2.1487,-1.9095964142500008,0.0,0