mpid,formula,BG,FE,e_hull,fidelity
mp-755004,CsInO2,1.9381,-1.7635709843749998,0.0571007587500007,0
mp-776760,Ti3FeSb2(PO4)6,0.0,-2.6932759594047617,0.0846632048148361,0
mp-978517,SmCdPd2,0.0,-0.6781650793749998,0.0059167916666655,0
mp-865744,YbCdPd2,0.0,-0.6936674587500002,0.0,0
mp-17063,BaLaCuTe3,0.8203,-1.3046475704166671,0.0,0
mp-14388,Ho3Al5O12,4.6662,-3.72226367975,0.0,0
mp-771228,Li4TiCrO6,1.2269,-2.6156089113888883,0.0125303189583503,0
mp-505713,CsTmZnSe3,2.171599999999999,-1.4150555192968752,0.0,0
mp-6290,NaInP2O7,3.7446,-2.6045044011309533,0.0,0
mp-767736,Li12Cr3FeP4(CO7)4,2.4471,-2.3948951291804024,0.066674439338942,0
mp-859120,ThNb4O12,1.7238,-3.233573868235294,0.0548495532352912,0
mp-554258,SiO2,5.4489,-3.2759751772916665,0.0087377302083329,0
mp-971706,ZnBiO3,0.0,-1.2219818287499995,0.3810674020000002,0
mp-18866,CaV4O9,2.4882,-2.6440646829464285,0.022069750714273,0
mp-767407,Li5SbS,0.7834000000000001,-0.9392412245089288,0.0916212696428573,0
mp-5273,KPrTe2,1.279999999999999,-1.416418835,0.0,0
mp-767353,Li6CrCoP2(CO7)2,1.29,-2.3554017534111726,0.0625172240414739,0
mp-15066,LiTmSiO4,4.7791999999999994,-3.456343158214285,0.0,0
mp-736272,HgH16C6(N2Cl)2,3.7758,-0.3815789785848277,0.1578869190948282,0
mp-764023,Co6O5F7,0.2554,-1.7437017760877769,0.1243625207638894,0
mp-542339,CsIn3,0.0,-0.1501699058333336,0.0,0
mp-762291,LiCo2C2O7,0.0,-1.717444667395834,0.0613589454166776,0
mp-3789,Zn2SiO4,2.7537000000000003,-2.4580491604761896,0.0,0
mp-673092,Li4Sn(PO3)6,4.4967,-2.6010339919334973,0.0390753226867817,0
mp-9245,LiGaPdF6,0.933999999999999,-2.4982318613488896,0.0069966930864184,0
mp-973447,KBaO3,0.0,-1.2650665527500002,0.5551035019999979,0
mp-1018785,LiFeAs,0.0,0.0845254316666661,0.5319291166666664,0
mp-769917,Ho2Mn2O7,0.9335,-2.916297896424545,0.0,0
mp-772578,Li2Mn3SnO8,0.7262000000000001,-2.1124940105628576,0.003874170580346,0
mp-637576,Mn4N,0.0,1.7394032635240009,1.9855946939999995,0
mp-28198,RbInI4,2.5376,-0.8992954652777776,0.0,0
mp-765803,Li2FeCoO4,0.7536,-1.8710701656249995,0.0621111181249993,0
mp-22755,TbGeIr,0.0,-0.919077472777778,0.0,0
mp-648833,K2IrCBr5O,1.815,-0.8837815238750004,0.2103882572500008,0
mp-973353,SbPt3,0.0,-0.1134573187499992,0.1166405531250038,0
mp-24658,SmH2,0.0,-0.7501390232466664,0.0,0
mp-768505,LuGaO3,2.882799999999999,-3.23273131275,0.0,0
mp-866810,Ca2SnS4,2.442299999999999,-1.6988978208928571,0.0706967032142849,0
mp-4104,HoPO4,5.9209,-3.5282158205158733,0.0,0
mp-63,Pr,0.0,0.1327143599999996,0.1327143599999996,0
mp-559637,Dy(IO3)3,3.430599999999999,-1.5051761877243597,0.0,0
mp-956096,HfFe2,0.0,-0.3363458016666669,0.0148101766666659,0
mp-540,ScFe2,0.0,-0.2754444683333332,0.0,0
mp-6051,K2Hg(CN)4,5.856999999999999,-0.1006410426836352,0.2594300502634308,0
mp-4122,GaPO4,4.439100000000001,-2.59767230218254,0.0105560799999988,0
mp-972591,Sm(Mg4Al3)4,0.0,-0.0664031618103446,0.0262608436604767,0
mp-550111,SmBi2BrO4,1.278299999999999,-2.3286366271875,0.0,0
mp-581536,U4Al18Ni5,0.0,-0.3456886007407413,0.027369047098765,0
mp-743660,FeHO2,1.895699999999999,-1.6596791165300004,0.0407366484375,0
mp-1025917,MoW2(SeS2)2,0.6113000000000001,-1.0299434037152777,0.0358848083333329,0
mp-771174,Ba2B2O5,3.8166,-3.143351272453704,0.0113790947222227,0
mp-778788,Li3MnV(PO4)3,0.9356,-2.6705395342622857,0.0146286273124651,0
mp-368,P2O3,3.8266,-1.973625926988096,0.0910199637047588,0
mp-12464,Co(PdSe)2,0.0,-0.2773519414375002,0.0,0
mp-1008555,AlCu3,0.0,-0.1803527024999996,0.0086898474999994,0
mp-772241,Li3MnAl2O6,1.7656999999999992,-2.7423107157050004,0.0411882479166569,0
mp-720254,Li2H4(SO4)3,5.8773,-1.9481640398413096,0.0,0
mp-761731,K2Li2CoO4,0.356199999999999,-1.7282957822222218,0.0120800323950653,0
mp-35040,LiMg9B20,0.0,-0.1201059567777775,0.0134868457500019,0
mp-625661,H9BrO4,4.3502,-1.2591312464342852,0.0,0
mp-20226,UGeIr,0.0,-0.5719514508333331,0.0,0
mp-976115,K3Rb,0.0,0.0113477525,0.0113477525,0
mp-778908,Ni3OF5,0.3077,-1.8087564430222225,0.0720941516203694,0
mp-505574,Co2Mo4C,0.0,-0.0522283328571424,0.0089547675000023,0
mp-558244,As(IF3)2,0.5218,-1.930851429682222,0.0,0
mp-8697,ScBO3,4.118,-3.4521829820833334,0.0,0
mp-628782,V3Pb5ClO12,2.7954,-2.0717531625361905,0.0,0
mp-772840,Sm2Ge2O7,3.6725,-3.029610337840909,0.0,0
mp-626449,PH3O4,5.6514,-1.9394651786194048,0.0107312259374996,0
mp-556392,ZnS,2.0362,-1.1395133895312506,0.0007899649999996,0
mp-698722,Ca5Yb3Ti5Mn3O24,0.427799999999999,-3.245074824655333,0.0062707508750019,0
mp-11511,LaAlGe,0.0,-0.7101100133333335,0.0,0
mp-29090,Rb4Au6S5,1.698,-0.8744995410208342,0.0,0
mp-590,NiAs,0.0,-0.2825395216666671,0.0043120050297611,0
mp-767225,LiFe2(PO4)2,1.5209,-2.464559068937729,0.0310726993268986,0
mp-6071,Sr3LiIrO6,0.0,-2.5235263111363646,0.0,0
mp-5063,YAl3Ni2,0.0,-0.6571104481944445,0.0,0
mp-851024,VCr2Ni3(PO4)6,0.0,-2.246580290238095,0.0874759963194353,0
mp-553962,Rb2LiNbS4,2.306,-1.5583230645312502,0.0,0
mp-636334,SnRh2,0.0,-0.3686124958333335,0.0,0
mp-21468,PuIn,0.0,-0.1947902784375,0.0,0
mp-973415,LiLa3,0.0,0.1599499912500004,0.1599499912500004,0
mp-976292,NaCu,0.0,0.3867063025000004,0.3867063025000004,0
mp-565583,Gd3BWO9,3.1839,-3.3449236123511894,0.0,0
mp-27337,Xe(OF)2,2.3643,0.0559377820240001,0.5317651905000003,0
mp-684502,Sn2P3O10,0.340599999999999,-2.3311846894523813,0.1276475430416601,0
mp-540682,Nb2CoO6,2.3241,-2.6999991669444436,0.0,0
mp-767894,Li3VPCO7,2.5852,-2.4253455876419414,0.0854337229567274,0
mp-865046,LiPaPt2,0.0,-0.8020544825,0.0,0
mp-762892,LiCoSiO4,0.7703000000000001,-2.352521610357144,0.0832854231428434,0
mp-628306,Pr(MoO2)6,0.0,-1.9941478823684209,0.2821659949561344,0
mp-4406,CaSO4,5.9393,-2.794158568177083,0.0,0
mp-767023,Li2VNiO4,1.6752999999999991,-2.079042233125,0.0693052661458324,0
mp-976726,LiDyO2,4.5644,-3.3069673660416665,0.0,0
mp-18726,CrNiO4,1.924,-1.4578270924999994,0.0,0
mp-8909,RuO2,0.0,-1.403380275,0.0661548674999998,0
mp-556231,In2GaBiS6,1.845199999999999,-0.9338687924375008,0.0026834003958331,0
mp-1020723,Sr2Ga2O5,2.9485,-2.763423012638889,0.0117788588888902,0
mp-7761,Sb,0.0,0.234278395,0.234278395,0
mp-775348,Na3Ni2P2(CO7)2,0.0,-1.9514499271169763,0.04317625216032,0
mp-14190,NdPO4,5.3095,-3.4677678567658736,0.0014782287499972,0
mp-761665,Li2CoP2O7,2.647599999999999,-2.495319159578373,0.0579018264235875,0
mp-1832,LaPt5,0.0,-0.7695253366666664,0.0,0
mp-771193,Ba3Y2O6,2.5398,-3.275691828863637,0.0921717056818138,0
mp-697945,K2CdH4(SeO5)2,2.9829,-1.5426666215351308,0.0,0
mp-13117,CuN,0.0,0.7854057488100006,0.7854057488100006,0
mp-764137,NaFeP2O7,2.5268,-2.5643216054491336,0.0019027138636369,0
mp-768875,Li6B4O9,4.4245,-2.6240561567324554,0.0633692564473689,0
mp-4408,Sm2Zr2O7,3.0741,-3.87368181715909,0.0,0
mp-766877,Si6Bi9O26,0.0,-2.3390618657926843,0.0662633713414369,0
mp-15511,CaTe3O8,2.0065,-1.91130193375,0.0,0
mp-625809,Ba(H2O3)2,2.4825,-1.0854316819981824,0.3298268490909084,0
mp-20735,Ce3Sn,0.0,-0.4056553412499993,0.0,0
mp-9954,HfAs,0.0,-1.001332725,0.0,0
mp-38327,Ca(TbS2)2,2.1434,-2.455274365416668,0.0230971289285726,0
mp-9442,Dy3Fe2Si3,0.0,-0.6631161287499996,0.0263313165624996,0
mp-765965,LiNi(PO3)4,1.0499,-2.315805727910054,0.092253545960661,0
mp-771853,Mn3Nb2Cr3O16,0.7195,-2.2551229197033336,0.060712146562496,0
mp-764914,Li3Ti4VO8,0.0,-2.841289651666668,0.0819160703124985,0
mp-1003641,MgMn2O4,1.1527,-2.184152914738572,0.1570962526785839,0
mp-932,ScGa3,0.0,-0.4873722699999998,0.0,0
mp-773007,LiCu5(PO4)2,0.2656,-1.6364579813244051,0.11426438140625,0
mp-1966,Cu3As,0.0,0.0191244778125003,0.0191244778125003,0
mp-30677,Tm3Ga5,0.0,-0.6233192137499999,0.0,0
mp-29684,La5Sb3Br,0.0,-1.2343000622222224,0.0,0
mp-972424,TbYbPt2,0.0,-1.1778834883333331,0.0,0
mp-643367,YCBr,0.0,-1.0843031500000002,0.0,0
mp-16503,HoAl2Ni,0.0,-0.6433102537500002,0.0,0
mp-11286,CaHg,0.0,-0.55147345,0.0,0
mp-672375,ThNiSn,0.0,0.311988041666666,1.0022402566666662,0
mp-794,CrTe,0.0,-0.0410994124999994,0.1326679762499996,0
mp-5679,CdSO4,3.0417,-1.949095791510416,0.0106330283333377,0
mp-775789,Li2VF6,2.197699999999999,-3.092222144126666,0.0724932627777912,0
mp-18341,ErPtF7,2.2785,-2.9384377523144445,0.0,0
mp-570983,Sr4Sn2Se9,0.7298,-1.24060922715625,0.0067935497500002,0
mp-1002197,RuN,0.0,0.7241498713100007,0.7241498713100007,0
mp-642654,SrH2O3,0.0,-1.5406681468316672,0.2821715460416669,0
mp-773453,K2FePCO7,2.1279999999999992,-2.310584938278769,0.0,0
mp-504426,LiH5S(NO2)2,5.4792,-1.330895544186347,0.0821805868971781,0
mp-774126,Li3Ni4SbO8,1.6713,-1.5597473971874996,0.0,0
mp-626293,Sr(H8O5)2,3.1307,-1.4764199005711105,0.0241916468518512,0
mp-769128,Dy2Sb2O7,1.3651,-2.796249283825757,0.0466328827272688,0
mp-1025934,Mo2W(SeS2)2,0.5194999999999991,-1.0449665903819456,0.0349497638888864,0
mp-21684,Ce5Cu19P12,0.0,-0.5301814001984124,0.0,0
mp-762577,Mn3CrNi2(PO4)6,0.0,-2.288723788373651,0.0256647664670106,0
mp-644879,MgSiO3,4.5951,-3.2015359194999995,0.0490745040000026,0
mp-565993,RbMnVO4,2.7323,-2.356727508529999,0.0,0
mp-770682,Li2Co(Si2O5)2,3.0596,-2.862515065735293,0.0703199417647013,0
mp-769321,ZnSeO4,1.7134999999999991,-1.2729164926822918,0.0954561666666578,0
mp-755083,BaYCl5,4.5011,-2.7836876833999997,0.041748061428569,0
mp-1018627,ScBPt3,0.0,-0.638770517333333,0.2019551786666742,0
mp-775027,Li2Mn3CoO8,0.6341,-1.928683573777144,0.0348396768686178,0
mp-560303,BaCa2C2(O3F)2,4.7298,-3.04740245576,0.0061154196153863,0
mp-989559,Cs2NaLiF6,0.0,-2.458877410214,0.0,0
mp-765815,CoSnO3,0.9832,-1.7403720792500004,0.0765181470000024,0
mp-29862,SnBr2,2.5388,-0.7820076066666667,0.0,0
mp-15885,Li2US3,0.0,-1.7237464353645835,0.0,0
mp-766370,CeZr9O20,2.2773,-3.7975385881666655,0.0468665841666684,0
mp-7611,Li2CaGeO4,4.1135,-2.6156548962500006,0.0,0
mp-6899,CaBePO4F,6.1019,-3.335304442723155,0.0063669626562532,0
mp-22643,Tb3(CoGe2)2,0.0,-0.7195944677777769,0.0120021422222222,0
mp-1513,Co9S8,0.0,-0.7921593048529421,0.0,0
mp-773280,TiMn5O12,1.3989999999999991,-2.040845198137037,0.0544341225000017,0
mp-9223,ScGeRu,0.0,-0.7914547433333325,0.0,0
mp-13229,K3GdF6,4.5665,-3.582403889714,0.003544463999999,0
mp-647340,Ba3Co10O17,0.0,-1.6860269037083335,0.0622217880000057,0
mp-774387,V4OF11,1.4979,-3.13775709308375,0.001342677500002,0
mp-1031383,KRbMg6O7,0.0,-2.2108022692500007,0.4844194997499986,0
mp-774305,LiCo2NiO6,0.6084,-1.2351719017499996,0.0490544026666697,0
mp-14280,Ga2Sn2S5,1.6968,-0.9547389650347228,0.0,0
mp-638590,MnTl2GeTe4,0.186499999999999,-0.1928502218750001,0.0054703761458334,0
mp-555236,Tm2Te5O13,3.0624,-2.2205424455625007,0.0,0
mp-555543,ZnS,2.025,-1.1398493605729163,0.0004539939583336,0
mp-36100,Ca(SmS2)2,2.083399999999999,-2.4572202208928573,0.0142499607142871,0
mp-12020,ErAl4Ge2Au,0.0,-0.415977296875,0.0,0
mp-13603,CdB4O7,3.9877,-2.668432992638889,0.0,0
mp-7376,Sr3(AlSn)2,0.0,-0.5147163871428572,0.0,0
mp-781737,FeOF,1.7539,-2.2200265433133333,0.0606574024999986,0
mp-1002188,TcB,0.0,-0.2841699183333333,0.102660083636362,0
mp-768084,Li8V11O22,0.8115000000000001,-2.462227866036586,0.0491257656402224,0
mp-863076,NbBiO4,2.3185,-2.469102699999999,0.0637393137500037,0
mp-30195,HoCuP2,0.0,-0.87219661904762,0.0,0
mp-31304,Zr(TeCl)6,1.025799999999999,-1.0671770963123075,0.0081625175000015,0
mp-774349,Li6MnFe5(BO3)6,2.835599999999999,-2.4258086553738902,0.0049324856018539,0
mp-773526,Na3Cr(BO3)2,2.7158,-2.462629023402777,0.0424624512499951,0
mp-540805,Ba2GeS4,2.2853,-1.8132585323214288,0.0,0
mp-561236,Pb13(Cl3O5)2,1.8938,-1.5499575005882755,0.0,0
mp-10795,TaTlS3,0.598799999999999,-1.191182198937499,0.0,0
mp-753380,La(BiO2)2,0.0,-2.281980724999999,0.0977411168452419,0
mp-10103,LiYbAlF6,7.689999999999999,-3.985118325793334,0.0,0
mp-1030159,Te4MoW3(SeS)2,0.0,-0.4819823054427085,0.0678932406250014,0
mp-29476,Cu3SbSe3,0.486099999999999,-0.1310367461830353,0.0353050732142854,0
mp-554590,Cu3B7BrO13,0.0,-2.2630823138715286,0.0165232747222212,0
mp-504576,OsOF5,0.7822999999999991,-2.0237997131714285,0.0,0
mp-18209,Pr2(ZnGe2)3,0.0,-0.4058459004545453,0.0,0
mp-671913,MoSe2Cl4O,1.0886,-1.0557325312784371,0.0193897745694986,0
mp-765393,Li10Cr3P6(O4F)6,0.0,-2.5912757523614576,0.0819269909572399,0
mp-756365,CaCeO3,2.337299999999999,-3.63253334125,0.0591959414999987,0
mp-720985,CaEr15Si8Se11ClO28,2.5023,-3.1280193741842384,0.0386775890429698,0
mp-765526,Li3NiOF3,1.9121,-2.5623429824774995,0.0460842037500004,0
mp-771723,Mn3Co5O16,0.701499999999999,-1.3355963051200004,0.0544687885416657,0
mp-771740,Mn3TeO8,0.0,-1.6767246052400004,0.0692965397135383,0
mp-569764,RbCu2I3,2.0713,-0.6062378204166666,0.0027746762499996,0
mp-777195,LiFe7(O3F5)2,1.4412,-2.3515812662250006,0.0908683944212942,0
mp-10030,RuC,0.0,0.6486300587499993,0.6486300587499993,0
mp-767357,NiH12SO9,4.1294,-1.4157626251631528,0.0332315009299506,0
mp-560114,Er3O2F5,5.6188,-4.403850378095,0.0,0
mp-17525,Nb5Pt3O,0.0,-0.9128126629166676,0.0208643918518536,0
mp-559347,SiO2,5.6325,-3.2620490491666665,0.0226638583333329,0
mp-28979,BaC20,0.1436,0.2300779160317443,0.2300779160317443,0
mp-771467,Na3Li3Mn2P2(CO7)2,3.5219,-2.4019291675234795,0.0315898226923083,0
mp-768227,DyNbO4,3.2584,-3.5170331502777765,0.0719788000000019,0
mp-6036,CaCu3(RuO3)4,0.0,-1.48093672775,0.0250129208749996,0
mp-776709,Li2MnVP2(O4F)2,0.5817,-2.746261044553989,0.0203920211978863,0
mp-625257,FeHO2,1.991999999999999,-1.6659777834050002,0.0344379815625002,0
mp-13545,BaIrF6,0.0,-2.7843527283925003,0.0,0
mp-1019803,KAl9O14,4.1426,-3.3706368696875004,0.0091662195989545,0
mp-559135,Na2MgH8(SO6)2,5.2316,-1.9327493688834,0.0046304774000001,0
mp-131,Zr,0.0,0.0,0.0,0
mp-782639,Dy2WO6,2.914399999999999,-3.2877063581481485,0.0361970027777811,0
mp-774995,Fe5(OF4)2,0.9343999999999992,-2.490900032801333,0.0640738600000041,0
mp-589,TbFe2,0.0,-0.0652861494444453,0.0,0
mp-753848,Li(CuO)3,0.0,-1.1245252633928564,0.0374914703571418,0
mp-1029329,Te2MoWSe2,0.0658,-0.3647805470312496,0.0502708658333332,0
mp-4541,NaCuO2,0.4914,-1.3547039543749992,0.0071163449999964,0
mp-1025895,Te2MoW2(SeS)2,0.0,-0.6144705628125003,0.0834732205555548,0
mp-762889,Li3Co2(CO3)4,0.7120000000000001,-1.839693157380952,0.0774391653571324,0
mp-771215,Li4TiCrO6,1.277499999999999,-2.6132117063888898,0.0149275239583488,0
mp-560950,K2NaTlO3,1.255,-1.4531687241071438,0.0,0
mp-975384,RbBiO3,0.0,-1.4610370877499996,0.0,0
mp-30745,Ir3W,0.0,-0.3435279237499991,0.0,0
mp-766341,NaSb5O13,0.7792000000000001,-1.89291934138158,0.0,0
mp-903,ZrCr2,0.0,-0.044378793333332,0.0,0
mp-11393,Nb3Ga2,0.0,-0.3513092630000002,0.0,0
mp-721216,Al2Si2H4O9,4.9329,-2.6598503876900006,0.0135837380882337,0
mp-555349,La2CO5,3.9487,-3.290956634218749,0.0001392787500034,0
mp-770673,V5Sb(PO4)6,0.0,-2.560553881488095,0.090491213194447,0
mp-19620,BaHoCo4O7,0.183899999999999,-2.113774472980768,0.0223180874038444,0
mp-20083,ScCuSi,0.0,-0.659126012500001,0.0079996863888887,0
mp-764506,Li3Fe8(BO3)8,1.4035,-2.335933846821705,0.0780273499273089,0
mp-601292,RbPrP3HO10,4.8166,-2.830813984712857,0.0213379461718776,0
mp-675620,Nd2PbS4,2.0293,-1.975293320178572,0.0324423685714299,0
mp-28828,Li6FeCl8,0.6532999999999991,-1.8930602444053333,0.0146748133333343,0
mp-769844,La3Ti3CrO12,0.3308,-3.5630548518421064,0.0449518796052625,0
mp-1009641,CoTe2,0.0,-0.198367966666666,0.0,0
mp-605642,KB3(HO3)2,4.8267,-2.453288228259584,0.0203766772395823,0
mp-10175,KCdF3,3.1006,-2.707863052714,0.0256700004999999,0
mp-540169,Co3(PO4)4,0.0,-1.9384552135817803,0.1334332482880453,0
mp-22508,YMn12,0.0,0.0013850844230773,0.0013850844230791,0
mp-555833,Hg3As8(S4Br3)2,2.0132,-0.4712994157000003,0.0,0
mp-1976,CaGa4,0.0,-0.3536842279999998,0.0,0
mp-2247,AgN3,1.5714,0.3398230582150008,0.3398230582150008,0
mp-22506,Cs6InAs3,0.5004999999999991,-0.3815818949999997,0.0,0
mp-17989,K3PS4,2.7739000000000003,-1.3345944783556551,0.0,0
mp-542100,K4Nb2Si8O23,3.793999999999999,-3.1087169572635145,0.0022819987837792,0
mp-554379,AsXeF11,2.0241,-1.5653704075453845,0.0,0
mp-8378,Tl3SbS4,1.551599999999999,-0.6291532951562497,0.0,0
mp-762187,LiMnCO4,1.2789,-1.9937694622799995,0.0878180233928551,0
mp-765505,Li4Fe2O5,2.143199999999999,-2.0399784910227265,0.0478581329545457,0
mp-757590,LiSnPO4,3.4943,-2.4221626177636053,0.0639700518452528,0
mp-669496,PtI4,0.6934,-0.1325358944999997,0.0,0
mp-754875,TbSi2Rh3,0.0,-1.026204797222223,0.0,0
mp-560339,Ca2Zr(SiO3)4,4.8495,-3.4643726121052634,0.0052956026315751,0
mp-1019802,KAl(PO3)4,5.179699999999999,-2.8167156142989422,0.0011999375000009,0
mp-863883,Mn8PbO16,0.105199999999999,-1.8608225383072,0.0,0
mp-774012,Li5V5Cr2O12,0.282099999999999,-2.349602516875,0.0567963164583371,0
mp-973694,H8PdC2NCl3,1.4783,-0.5907376767413329,0.054676900055556,0
mp-973883,Ge3Rh,0.0,0.0998082837499998,0.3731673537499995,0
mp-560907,MoSeS2Cl5,2.0114,-1.0562370381131945,0.0,0
mp-865846,LuHfRu2,0.0,-0.6612853337499995,0.0,0
mp-978499,SiAs3,0.0,0.5005775487499999,0.5576309590625002,0
mp-30842,ZrPd3,0.0,-0.8165093856250003,0.0,0
mp-3822,SrCO3,4.425400000000001,-2.7154688087500007,0.0,0
mp-772319,Li4Co3Ni5O16,0.671,-1.2383090382142856,0.0323927350892905,0
mp-976341,Nd2ZnAg,0.0,-0.2765847950000002,0.0125536524999998,0
mp-684785,BaYbAl2Si2N5O2,1.6482,-1.4165878599538455,0.6082234525961505,0
mp-775748,Li4Cr3Fe2Sn3O16,0.738,-2.150057350892856,0.0471339392658656,0
mp-978546,Sc3Sb,0.0,-0.4946313937499998,0.0910503312499999,0
mp-631325,ScHgW2,0.0,0.9706445825000004,1.1834051374999994,0
mp-18680,Tm8S11,0.0,-2.4305590002467112,0.001181738881578,0
mp-557580,CdHg4C6S6(Br2N3)2,1.866,-0.1499983755057398,0.1826015396629099,0
mp-29778,Nd4Ge7,0.0,-0.7267239304545451,0.0,0
mp-773523,Na5LiFe2P2(CO7)2,3.5619,-2.3307482778342488,0.0122876665384596,0
mp-19788,Tb2Ge2Ru,0.0,-0.7964366673333331,0.0,0
mp-23112,AsS3(ClF2)3,0.0609,-1.6748147591621156,0.0369862255448758,0
mp-34278,K(WO3)6,0.2183,-2.2212263593,0.0,0
mp-862876,PmAg2Pb,0.0,-0.2890083243750001,0.0,0
mp-639690,PuS2,0.0,-1.8300738350000003,0.0,0
mp-770887,BeCrO4,2.4299,-2.0820390279166667,0.0031669093750039,0
mp-765830,Li3VF5,2.4749,-3.0456820451055555,0.0752077877777779,0
mp-560010,Rb2Ga2B2O7,3.674499999999999,-2.5364832786217946,0.0,0
mp-21834,Nd6Fe13Sn,0.0,-0.0926498559999998,0.0,0
mp-21045,DyAgGe,0.0,-0.4183060261111109,0.2390181677777781,0
mp-772495,Na2SnAsCO7,0.0,-1.9247481801041677,0.072817760208335,0
mp-34586,Co2RuO4,0.0,-1.360846741428572,0.0289958042857119,0
mp-773055,Li3Mg3Ti6O16,0.0,-3.255708766607144,0.0142588110714232,0
mp-571519,CdI2,2.3711,-0.5910967930952382,0.0010402054603175,0
mp-767227,LiMn2(PO4)2,0.2232,-2.500340640239266,0.0610501048076939,0
mp-505179,NaH6BrO5,2.1492,-1.2479767259976915,0.0571441223717945,0
mp-685097,HfO2,4.4133,-4.0106552041666665,0.0285396624999965,0
mp-568340,Ho5NiPb3,0.0,-0.5209200616666673,0.0,0
mp-777247,Li2Mn3(BO3)3,0.262,-2.447298941419412,0.0702277223039029,0
mp-707543,H6C(N3O2)2,2.7113,-0.5974675006470588,0.3223197552827379,0
mp-756350,TiNbO4,0.0,-3.185583191388889,0.0396729779273457,0
mp-317,SnRh,0.0,-0.4658863887500005,0.0,0
mp-2858,ZrO2,3.4737,-3.833219812500001,0.0,0
mp-761722,LiVCoO4,1.4663,-2.121579728214286,0.0342477494047539,0
mp-22317,EuGa2,0.0,-0.54851077,0.0,0
mp-27235,H5N2F,5.4604,-0.82667302550625,0.1462359479266668,0
mp-569807,RbTiBr3,0.0,-1.3705936283333338,0.0001956245833332,0
mp-999335,NdRh,0.226799999999999,-0.6828256012500002,0.0,0
mp-11964,Ce2CdPt2,0.0,-0.9462441810000002,0.0,0
mp-862,CaSi2,0.0,-0.3632406400000001,0.0133272616666655,0
mp-560703,Te3As2S(OF6)2,2.0234,-2.078823143667125,0.1192816854545446,0
mp-558740,Dy3CuGeS7,1.8098,-1.8241450548697928,0.0,0
mp-677029,Ca2MgAl2(SiO4)3,4.8877000000000015,-3.4036525492500003,0.0149335705625022,0
mp-764813,FeOF,0.0,-2.119588495257778,0.1610954505555542,0
mp-850470,Mn(PO3)5,0.0,-2.3191596435802944,0.0731735699404856,0
mp-16960,AlPt2,0.0,-0.8626888700000007,0.0,0
mp-11483,TmIr,0.0,-0.942407105,0.0,0
mp-768388,Lu2GeO5,3.948899999999999,-3.42676285546875,0.0107036354296869,0
mp-11794,AlAgO2,0.8241,-2.2563227618750004,0.0636883525000033,0
mp-771688,Li4Mn3Nb2Cr3O16,0.6616000000000001,-2.4744251929600005,0.0145172503571373,0
mp-675122,Na2UI6,0.0,-0.9639549683333328,0.0853901583333334,0
mp-759711,LiCuCO3,1.363999999999999,-1.6294517937268522,0.1090383146064821,0
mp-763669,Li4Ti2Mn3O10,0.8577999999999991,-2.604858504142808,0.0472958736842015,0