mpid,formula,BG,FE,e_hull,fidelity
mp-982373,Pm3Zn,0.0,-0.0319015668750002,0.0722082491666666,0
mp-17161,K6CdO4,1.590099999999999,-1.364665300454545,0.0,0
mp-568522,In3SnI5,2.1658,-0.4880358094444443,0.0,0
mp-565786,Sb2MoO6,1.3984,-1.9043910408333329,0.0486782049999998,0
mp-850986,Li6Co6O5F11,0.2398,-2.3144024508692853,0.1041895872767861,0
mp-975769,PrYZn2,0.0,-0.322777860625,0.0120882224999996,0
mp-743582,TiMnCr(PO4)3,2.3007,-2.799182952606244,0.0,0
mp-686308,Na6Ga5Si7H15O32,0.836599999999999,-2.161512425373846,0.1426057051025653,0
mp-25871,Li3Cu2P5O16,0.253799999999999,-2.398601079056776,0.0393538911538362,0
mp-762805,Li4Mn5(FeO6)2,0.9136,-2.0516090254260866,0.0495190202173718,0
mp-10489,Cs2Ti(CuSe2)2,1.3708999999999991,-0.9714692362268508,0.0,0
mp-675374,Al2PbSe4,1.9961,-0.793485463482143,0.0,0
mp-1163,UBe13,0.0,-0.0541107560714293,0.0,0
mp-780129,Fe2OF3,1.4514999999999991,-2.453894071303333,0.0553648303333407,0
mp-755667,Ba4Bi3O11,0.0,-2.183644554930554,0.0498799912500009,0
mp-680280,Ru3C10(NO6)2,1.0938,-0.9014130245281484,0.2877203049162951,0
mp-755559,LiNbO3,3.456,-2.86738640075,0.0466217209999992,0
mp-772755,Li3CuPCO7,0.157399999999999,-2.2090604349496337,0.0524159167307676,0
mp-555085,KAu(NO3)4,2.0172,-1.0246462638622225,0.0,0
mp-861257,Tb3SbO7,2.963199999999999,-3.4346372307954542,0.0018808622727277,0
mp-505373,AsSeI,1.242,-0.1744208120312495,0.0,0
mp-8796,Sr2LiSc(B2O5)2,4.626,-3.1940560018981468,0.0,0
mp-570021,Ti6Tl5AgSe27,0.6648000000000001,-0.6309884499238791,0.0,0
mp-769811,Li3Mn4FeO8,0.0,-2.071135888365001,0.0273803571874964,0
mp-566049,KMoAsO6,2.659399999999999,-2.0029711505555565,0.0014738117361092,0
mp-568726,Mo(SeCl6)2,0.0,-0.9745863724205004,0.014109516926215,0
mp-581263,Sr13Al6Si8O,0.0,-0.5907449057589288,0.009848960089287,0
mp-776920,Fe3Ni2Te(PO4)6,0.074999999999999,-2.22867103968254,0.0329859795486102,0
mp-773761,LiCo(SiO3)2,1.711,-2.6382482797499995,0.0522305159499962,0
mp-6342,LiCa3RuO6,0.3111,-2.6399235297727275,0.0,0
mp-531778,Mg17(As3O16)2,3.1126,-2.6512630734545453,0.0,0
mp-568923,Ba2BN2Cl,2.7508,-1.6377937595311107,0.0,0
mp-767822,MnFe3(PO4)4,1.2713,-2.42029331722254,0.0150301329166921,0
mp-557505,KUP3O11,2.3388,-2.932307738549108,0.0,0
mp-849533,TiO2,2.7647,-3.428238727638888,0.0905922529166805,0
mp-974641,K3Tl,0.0,0.02618704625,0.0835836139583332,0
mp-867901,ScTaTc2,0.0,-0.3256958125000011,0.0,0
mp-571661,K2HgCl4,2.297,-1.6704676368628568,0.0414049550000008,0
mp-778635,Li4MnFe3(BO3)4,3.1372,-2.4388215084427785,0.001597259236111,0
mp-667309,Li2SeO4,0.010499999999999,-1.3276860490848226,0.5358819490476163,0
mp-705547,Fe2O3,0.8159000000000001,-1.7154412015000011,0.17072392625,0
mp-771088,Li4VCr(TeO6)2,0.75,-2.02812937625,0.0670061352499908,0
mp-568157,H8C2BrN,4.7465,-0.4645592342783331,0.0491264152083337,0
mp-540834,Ni2Hg2OF6,0.9556,-1.800635695308182,0.0,0
mp-853148,Na6(NiO2)7,0.3336,-1.1517221762037038,0.0112065959259375,0
mp-603567,ZnCoPHO5,2.8373999999999993,-2.0848800231072477,0.0,0
mp-755576,Zr2N2O,0.0,-2.265799295202,0.0875058250000009,0
mp-973267,KTcO3,0.0,-2.00683768675,0.0,0
mp-14324,K2Na4Be2O5,2.4329,-2.0327781581730773,0.0,0
mp-9146,CdHgO2,0.368199999999999,-1.0473254268749996,0.0,0
mp-760376,KTiO3,0.0,-2.6807220900833344,0.0890508938749796,0
mp-9580,TlGaSe2,0.560999999999999,-0.5629957980468752,0.0185984837499999,0
mp-13400,Sm(CuGe)2,0.0,-0.5293822204999991,0.0,0
mp-30866,Rh3W,0.0,-0.2695206012500009,0.0,0
mp-555932,RbEr3F10,7.2819,-4.323362596564286,0.0,0
mp-850410,Li2Mn3(BO3)3,0.6674000000000001,-2.4699084325958824,0.0476182311274335,0
mp-2530,Li2Te,2.4914,-1.0441659466666666,0.0,0
mp-644265,CdH2(CO2)2,4.2202,-1.30854929386,0.143547558611111,0
mp-774235,LiCr3O4,0.045099999999999,-2.056850576875,0.1220239024999969,0
mp-20811,UCoSi,0.0007,-0.3961238291666665,0.0821137497619002,0
mp-8086,Na2Zn2O3,1.0572,-1.7173092505357148,0.003572298571429,0
mp-5682,Th(SiNi)2,0.0,-0.8580086660000006,0.0,0
mp-767352,Mn5O5F,0.0,-2.095621260658181,0.0594449954545499,0
mp-761661,Li4Mn3Cu3(TeO8)2,0.0,-1.7238253333171425,0.0196639531919675,0
mp-978275,MgB7,1.4592,-0.1305362608333329,0.0,0
mp-759821,Sb3O2F5,3.4665,-2.365565557845,0.0566760089999993,0
mp-1018668,CeTlCd,0.0,-0.2158016666666669,0.0173317670833337,0
mp-9405,K3SeO4F,3.8658,-2.0666717638648606,0.0069255377777732,0
mp-18795,Mn3TeO6,0.7581999999999991,-1.9352581280379997,0.0,0
mp-770763,LiMnPO4,3.3517,-2.5757096909364625,0.0744485360714284,0
mp-510458,HCN,3.5894,-0.1515136957499999,0.0892028457211102,0
mp-673029,LiSn2P5O16,0.0,-2.4644598237698414,0.0867069050173734,0
mp-763967,Co3(O2F)2,0.0,-1.4647269052644445,0.0903510172222192,0
mp-24479,SrH2Br2O7,4.0296,-1.2072513434158332,0.0129737297916667,0
mp-775212,MnV2(PO4)3,0.0,-2.632949114458096,0.0051406319444371,0
mp-24409,PH4I,3.6789,-0.1902976804292061,0.0,0
mp-756074,Bi2PO6,0.0,-2.019930035066138,0.0903249022222212,0
mp-8514,BaNd2PdO5,2.219099999999999,-2.9871471323611107,0.0,0
mp-31007,Tb5Br8,0.0,-1.50593997974359,0.0203850496581194,0
mp-765259,Li4VF8,2.1118,-3.0804827916938464,0.0892063971153751,0
mp-756933,TaTlO3,0.445799999999999,-2.701448507750002,0.0023555127500021,0
mp-684668,CaC2,2.8514,0.075196271666666,0.0751962716666758,0
mp-4924,Pr(CuGe)2,0.0,-0.5348186659999989,0.0,0
mp-849318,Na2FeO2,0.648099999999999,-1.6226260915000004,0.0375180376666648,0
mp-1021507,Ba2Y(CuO2)3,0.0,-2.1426939241666667,0.1069054369791739,0
mp-25566,MnH2(SO4)2,4.6845,-1.928021629332692,0.0,0
mp-999002,TiFe2As,0.0,-0.3272805029166674,0.1765059591666675,0
mp-12101,Lu(SiOs)2,0.0,-0.7020939900000002,0.0,0
mp-762880,LiCoSiO4,1.4218,-2.375853789642857,0.0599532438571293,0
mp-1019097,SiC2,0.0,0.4275724833333321,0.5646236730555545,0
mp-569532,TiCu2P,0.0,-0.5717708605654757,0.0214434212500007,0
mp-755333,HgO2,0.3387,-0.0214097775,0.4096897254166682,0
mp-556399,LaTiI5O16,2.8573,-1.5590766130072464,0.0,0
mp-782710,Li2FeF4,3.3475,-2.89103398068,0.0999692142857142,0
mp-640341,Mo3S7Cl4,1.6678,-1.2100753254626784,0.0,0
mp-585963,Rb7Th2(P2Se7)3,1.0757,-0.8237306998344498,0.0,0
mp-757127,LiSi3BiO8,3.0538,-2.8074097557692306,0.0949813256730687,0
mp-774794,Li5Sm3(SbO6)2,3.3604,-2.7672396286363643,0.0164429095075773,0
mp-38931,Tb2SmS4,0.0,-2.3851036672023818,0.062102939285717,0
mp-865050,HfMgRh2,0.0,-0.8779466537500005,0.0,0
mp-767814,LiVSiO4,0.6395000000000001,-2.7943468433333334,0.0578269731845217,0
mp-735518,FeH2Cl5O3,0.0,-0.4550635013445453,0.5191367542171714,0
mp-695367,La13Al12Si18(N13O5)3,0.9276,-2.0557290848615457,0.0461338766666692,0
mp-570752,H2,6.593999999999999,8.881784197001252e-16,8.881784197001252e-16,0
mp-774304,Li2V3WO8,1.7313,-2.4208031630357136,0.0032078858929178,0
mp-771994,FeCo5O12,0.0,-1.1418787786111106,0.0682242307986102,0
mp-676932,SrLiEuTeO6,0.0,-2.54142793525,0.0,0
mp-763927,V6O7F5,0.8938,-2.755058513872223,0.0327505272222357,0
mp-754730,SrCaI4,3.0182,-1.5835567679166669,0.0929895483333331,0
mp-554758,SiP2O7,5.7395,-2.798080375994047,0.0022259587500021,0
mp-555173,UCO5,2.2611,-2.8323089362499987,0.0056312103571425,0
mp-558254,AsS4N4F5,1.8972,-1.0995867751228576,0.1235006998650893,0
mp-865444,LiSc2Pt,0.0,-0.7355779350000002,0.0,0
mp-759933,Li2Sn(BO3)2,2.385,-2.479819989166667,0.1002038554545441,0
mp-24135,AlH18Ru(NF)6,0.0,-1.2848629584087492,0.0027867799256249,0
mp-765527,LiNi2OF3,2.6895,-1.99775289926,0.0827395764285734,0
mp-13283,Sm(ErS2)3,1.056099999999999,-2.482424320687501,0.0,0
mp-971804,ZnNi3,0.0,-0.1098800687500007,0.0139120462499997,0
mp-11914,NaLa2IrO6,0.0,-2.71379727375,0.0,0
mp-567046,TbMoClO4,2.7455,-2.7477140395133324,0.0,0
mp-999206,ScAl,0.0,-0.3328226775000003,0.1143435874999996,0
mp-555120,KGaCuF6,0.0,-2.6464065619044437,0.005009464305556,0
mp-626303,MnHO2,0.0,-1.7811102636449998,0.007966535078129,0
mp-1006099,Lu(BRh)4,0.0,-0.5746228118518523,0.0067054540740736,0
mp-10132,UB2Os3,0.0,-0.3245714163888884,0.0,0
mp-607917,La21Fe8Sn7C12,0.0,-0.448899593229168,0.0,0
mp-12411,Li2ZnGe,0.0,-0.3257067624999998,0.0082643718750001,0
mp-862894,AcSbAu2,0.0,-0.6755970681249996,0.0,0
mp-981207,Yb3In3Ge2Au,0.0,-0.6340380366666669,0.0,0
mp-540990,Na2Li3CoO4,1.4597,-1.83299317625,0.0,0
mp-569802,Si3Ir,0.0,0.072812633749999,0.4860445171874961,0
mp-755142,La2MgO4,3.375400000000001,-3.58138193142857,0.0699436850000001,0
mp-757077,Li2Cu2Si8O19,0.210599999999999,-2.804460747862904,0.1057266466129034,0
mp-16118,RbDy2CuSe4,0.9258,-1.502031890338542,0.0,0
mp-541667,Nb(SeBr)2,0.9901,-0.7618439194375,0.0009373437333275,0
mp-28214,TiBr3,0.015199999999999,-1.2282459879166665,0.0,0
mp-20563,Ba(CoAs)2,0.0,-0.611375798000001,0.0,0
mp-542727,Cr2(Co7B2)3,0.0,-0.1667344444827592,0.0178341820689658,0
mp-616407,N2O3,0.9366,-0.607427732202001,0.1347375512619919,0
mp-980052,Yb3In,0.0,-0.2394991875000001,0.0618484012499998,0
mp-865165,HfScCo2,0.0,-0.3973193612499992,0.0,0
mp-764579,LiFe3OF5,2.5003,-2.5435786307200003,0.0691738459999982,0
mp-763242,V6O5F19,1.8984,-2.7567621751286664,0.0222998034166534,0
mp-862288,AlFe2W,0.0,-0.2018809600000004,0.0,0
mp-29943,H5NO5,3.5445,-1.223338091634545,0.0066538251136352,0
mp-764491,LiFe2(BO3)2,1.1301,-2.346656094621212,0.0694272419886612,0
mp-861893,Li2LaPb,0.0,-0.3759874050000001,0.0,0
mp-763544,LiVPO5,2.6757,-2.587374598980655,0.092393807187511,0
mp-505663,CsTi2Cl7,0.2471,-2.130496801615334,0.0,0
mp-13875,Al8(Pb3O7)3,2.8716,-2.5349560924013157,0.0,0
mp-673814,La3U2O10,0.131700000000001,-3.9244211491666663,0.0,0
mp-10872,HfAlAu2,0.0,-0.5012143062499996,0.0104096954166657,0
mp-1424,GePd,0.0,-0.4575263649999997,0.0,0
mp-1028433,Te6MoW3Se2,0.3249,-0.2239566197656242,0.03640450375,0
mp-20901,NiSe2,0.0,-0.2299522615624999,0.0088354341666638,0
mp-862802,CsNpCuS3,0.0,-1.5081776068229178,0.0,0
mp-30785,Mn3Pt,0.0,0.0585477050000005,0.2347802912500008,0
mp-763822,LiMnF4,0.7841,-2.884743874495,0.0655124297916556,0
mp-554515,KScH4(C2O5)2,3.262,-1.9074761255156656,0.015896570833334,0
mp-42163,Ca10Si3S3(ClO12)2,4.500199999999999,-3.1131114463977982,0.0283591672619039,0
mp-9125,Ca(SbO3)2,2.6942999999999993,-2.3864119508333337,0.0,0
mp-763569,Li2V3(CO3)6,0.700599999999999,-2.0575256233620696,0.051442314310357,0
mp-23332,BiPO4,2.0128,-1.4720390875992069,0.9565587312499986,0
mp-568191,SrLuCuSe3,1.1246,-1.5329698376302077,0.0,0
mp-604996,CuH12N2(Cl2O)2,0.6548,-1.004430325178095,0.0131003938095268,0
mp-838,Cu3Sn,0.0,0.0641789712500005,0.07737183375,0
mp-686055,Sr3Pr4O9,2.3406,-3.272960763203125,0.2307520337500009,0
mp-777240,Li2FeO2F,2.3225,-2.3485999139483336,0.0962636750000003,0
mp-772682,Dy2W2O9,3.143399999999999,-2.902803152275641,0.0703385078846139,0
mp-776061,Li4Ti3Mn3Nb2O16,1.036099999999999,-2.8515333543885726,0.038882169910714,0
mp-641533,InAs,0.0,-0.0445776908333333,0.2014585466666667,0
mp-16608,Si3Os2,0.8552999999999991,-0.4545852309999986,0.0,0
mp-10429,LaYO3,4.3416000000000015,-3.8985155647500007,0.0386705304999992,0
mp-195,HoPt3,0.0,-1.0410914162499996,0.0,0
mp-19303,Cr2NiO4,0.0,-1.7680647242857137,0.1660468300000044,0
mp-757652,H13S2N3O8,5.1189,-1.2913818728778843,0.0017967441346202,0
mp-542069,Cs8Ta6O19,3.4757,-2.9613092667803023,0.0,0
mp-767094,LiFe2(PO4)2,1.5367,-2.4128072647069603,0.0828245035576671,0
mp-774004,Li4V2SiGeO10,2.1785,-2.5806160426388893,0.003372140277766,0
mp-684861,NaYbTiNbO6F,0.0,-3.179327828441515,0.0660756106250044,0
mp-28861,CsC8,0.0,-0.0508493733333331,0.0,0
mp-689668,Ce4FeSe6O,0.0,-1.834717401901041,0.0407002458333387,0
mp-556047,K2OsCBr5O,0.5206000000000001,-1.052313150875,0.0,0
mp-559968,Na2NbAsO6,3.1214,-2.4058461730000005,0.0,0
mp-25724,V2(SO4)3,1.6729999999999992,-2.1551433063051477,0.0605180166176468,0
mp-22848,Cl2,2.5434,0.0,0.0,0
mp-743542,CoH9C4NO6,2.7446,-1.0092344284504766,0.1152507740277766,0
mp-756272,LaDyO3,4.3626,-3.9171125950833336,0.0402658710000007,0
mp-1019272,TaN2,0.0,-0.7062299465866659,0.4376409902911113,0
mp-561051,Rb2Sb4S7,1.834,-0.9143946718028853,0.0,0
mp-773894,CaB2(H2O3)2,5.3586,-2.315746067812564,0.0175945550961573,0
mp-778729,Mn3(OF2)2,0.0,-2.5564297389044435,0.0386474869444466,0
mp-758002,Li3Sn(PO4)2,0.2486,-2.57067989079932,0.0557995283630985,0
mp-1017173,RbMg6Nb,0.0,0.3580571450000001,0.3580571450000001,0
mp-753314,Eu2SeO2,0.0,-2.6661060262187504,0.0366226680000014,0
mp-979953,Yb3Ta,0.0,0.6480082875000006,0.6480082875000006,0
mp-698579,Co5Te4(BrO6)2,2.2494,-1.3604247004347825,0.0066310340217397,0
mp-972412,TmLuIr2,0.0,-0.9488719849999994,0.0198665550000001,0
mp-765767,VOF2,0.9691,-2.8426696140325003,0.0274315385937553,0
mp-7324,KBePO4,5.2347,-2.9082349661564617,0.0,0
mp-613612,Yb(Fe2Ge)2,0.0,-0.2246182185714289,0.0602272485714285,0
mp-1682,ZrAs,0.0,-1.14294152,0.0,0
mp-19372,WO2,1.3489,-2.032188589166668,0.0,0
mp-778719,Mn3OF5,0.383999999999999,-2.7504381755644447,0.0407661095833455,0
mp-561226,BTe3(OF5)3,3.7899,-2.364560052193939,0.0,0
mp-23704,NaAlH4,4.6648,-0.2337874432466661,0.0,0
mp-978997,Sm(NiBi)2,0.0,-0.2919841115000011,0.0838881960000001,0
mp-27954,CuN3,1.5383,0.2965804700900003,0.2965804700900003,0
mp-976679,HoSb3,0.0,-0.3678925937500006,0.1877270287500004,0
mp-863000,SnH6(NF2)2,5.0716,-1.549497794710769,0.0,0
mp-24465,GaP3(HO5)2,4.9811,-2.3826758477516083,0.0,0
mp-973170,ScCdAu2,0.0,-0.5959274487499999,0.0175690537499999,0
mp-622190,Er2Mn3Si5,0.0,-0.6276116867500001,0.0,0
mp-20738,FeSi2,0.0,-0.3840024699999998,0.0599626895833349,0
mp-989178,ScOF,4.3361,-4.0603809391466665,0.0837951158333325,0
mp-1020620,Rb5Li6(BO2)11,4.3579,-2.704187946382575,0.0,0
mp-28268,PtI3,0.340199999999999,-0.1494451168749995,0.0027504103125002,0
mp-7896,Cs2O2,1.6496,-1.2482651281250003,0.0,0
mp-541134,TeAuBr8,0.7993,-0.2608339419999996,0.0,0
mp-559768,La2Ti2O7,2.842399999999999,-3.798158576325757,0.0005196184090934,0
mp-704981,Mn5Ge2,0.0,-0.018029924047619,0.0956256618452382,0
mp-680677,Sn3Ru2,0.0,-0.1767435525000003,0.0,0
mp-22487,EuScO3,0.0,-3.5393016537500004,0.0138434023750004,0
mp-1019793,K3La(PO4)2,4.484,-3.010744925442177,0.0,0
mp-32857,Cu13Se8,0.0,-0.05267539375,0.0759657047619049,0
mp-643245,K3MnH5,1.5731,-0.1626761925666665,0.0154364669733335,0
mp-765277,LiSnPO4,3.284599999999999,-2.411721899370748,0.0744107702380967,0
mp-10728,PdO,0.0,-0.3472081256249995,0.4514224275000007,0
mp-1914,YGa2,0.0,-0.6606463941666677,0.0,0
mp-999390,NbCr3,0.0,0.0924870650000002,0.1205113050000008,0
mp-1029815,KMoN2,0.0,-0.5806873229087497,0.0,0
mp-640057,K2OsNCl5,1.6138,-1.3659828667977776,0.0441599409855557,0
mp-772488,VBiO3,1.2434,-2.0812236862500013,0.0108961368749849,0
mp-747,BaPt2,0.0,-0.7271848250000001,0.0,0
mp-631255,InSiIr,0.0,0.6819791900000011,1.1390958575,0
mp-19142,Mn2V2O7,1.204,-2.3357099536972727,0.0,0
mp-558624,Ba3LaRu2O9,0.0,-2.5969466114166675,0.0,0
mp-775823,Zr2N2O,1.6481,-2.348414745702,0.0048903745000004,0
mp-978039,Ho4Ga16Co3,0.0,-0.5012925713043485,0.0,0
mp-979074,TmO3,0.0,-2.012932458437501,0.5545787734374992,0
mp-753921,Sb11S18,0.0,-0.5646717406250009,0.0532496297898719,0
mp-782001,Li8La4TiNb7O28,0.0,-3.143994979826389,0.0361769372916676,0
mp-1008860,NbS2,0.0,-1.1840642127083345,0.2711397116667209,0
mp-1027139,MoWSe3S,0.7308,-0.7629821941406251,0.0278520491666673,0
mp-977407,Hf2ReRh,0.0,-0.6953654287499997,0.0,0
mp-18915,LiCoPO4,2.4571,-2.4051437161564637,0.0292080894642872,0
mp-654202,Tl4Fe(CN)6,2.7414,0.0485953459247065,0.1095270065266671,0
mp-697784,LiFe2(PO4)3,0.0,-2.31271872718254,0.0778452122916748,0
mp-865213,Ba8Bi4H2O,0.5637000000000001,-1.1492276252326663,0.0,0
mp-22519,CeRh3C,0.0,-0.3631673454999998,0.1516746804999984,0
mp-9330,CdPS3,1.772699999999999,-0.8088072940565482,8.415599999977985e-05,0
mp-569213,Dy4Ni12Sn25,0.0,-0.3258425215040658,0.0009008224105668,0
mp-10333,Pr(ZnP)3,0.038999999999999,-0.585856352040816,0.0,0
mp-31677,LiCr2(PO4)3,0.0,-2.4376002302380946,0.0702361438194429,0
mp-559996,Al(PO3)3,5.512499999999999,-2.845519446451466,0.0148246299358971,0
mp-774101,LiFeO2,1.774899999999999,-2.040096703125001,0.0367585812499999,0
mp-15819,Mn3Al9Si,0.0,-0.2739027042307694,0.0,0
mp-697853,Ba3WO6,2.5551,-2.7671636502499997,0.099019136749999,0
mp-667314,Ba9(TaN6)2,1.2429,-0.935494255372174,0.0482107139130434,0
mp-3871,Ti2SnC,0.0,-0.7210434789583333,0.0,0
mp-772153,Na3CuAsCO7,0.125,-1.853680614326924,0.0112398986538293,0
mp-19899,Dy3SnC,0.0,-0.6302505785000008,0.0,0
mp-705291,LiCrP2O7,2.8553,-2.654477779767315,0.030051983409093,0
mp-867137,ScVRu2,0.0,-0.4541460350000008,0.0,0
mp-18806,Ni3(BO3)2,3.0436,-1.8251298996212133,0.0,0
mp-1009018,InAg,0.0,0.03102332,0.0732030474107148,0
mp-632787,CaAlH5,3.3102,-0.3778971486571428,0.0092479446428579,0
mp-8743,HoCoSi2,0.0,-0.7821246662500005,0.0,0
mp-667383,SiO2,5.508599999999999,-3.2692772185714283,0.0154356889285711,0
mp-973155,Ge3C,0.0,1.393475880625,1.393475880625,0
mp-569567,C,4.4277,0.1731542989285718,0.173154298928571,0
mp-1013734,Ba3AsN,0.0,-0.7473788374759998,0.0786525346153839,0
mp-759763,La26B8O51,3.4409,-3.725088235495098,0.0,0
mp-761612,Na11(WO3)13,0.888799999999999,-2.177352117202381,0.0033444990158422,0
mp-780896,MnCr(PO4)2,0.0,-2.448968562262539,0.0808813906250129,0
mvc-4706,Ca(SnO2)2,0.0,-2.0803102249999994,0.3126389057142909,0
mp-769976,Li2FePCO7,2.5029,-2.3412798453621027,0.0152939770312423,0
mp-697733,FeP2O7,0.0,-2.292833284994047,0.0836883154791685,0
mp-694868,Rb2ZrFe(PO4)3,2.4218,-2.860892972330828,0.0,0
mp-1004037,CaMnO2,1.819799999999999,-2.49927609899,0.1568054343749994,0
mp-765038,LiMnOF2,1.021,-2.6355162006679995,0.0762059785000106,0
mp-541538,K2CdSiO4,2.6403,-2.3709222478125,0.0,0
mp-560824,La6B(NO2)3,1.0963,-3.0179165741441683,0.0,0
mp-776282,V3Zn2O8,1.5222,-2.226519896153846,0.0463682092307644,0
mp-18500,K3Sn4Au,0.4004,-0.34071902125,0.0,0
mp-752677,Ba2YBr7,3.213,-2.01774811275,0.0878761917500021,0
mp-570050,Yb2Sn,0.0,-0.6561751033333335,0.0,0
mp-1879,SmS,0.0,-2.125912365781251,0.2318667124999996,0
mp-542096,CrPS4,0.676,-0.8729991998908737,0.0,0
mp-12636,PRu,0.0,-0.564713976547619,0.0,0
mp-1028471,Te2MoWSeS,0.001799999999999,-0.4761249487760431,0.1149702766666669,0
mp-680689,SrTi2O5,1.8634,-3.305026530885415,0.2452691874999981,0
mp-12622,SrPdF4,1.3251,-2.8820079582933342,0.0,0
mp-16871,K2ZrGe2O7,3.9038,-2.6206379119791663,0.0,0
mp-770978,Na2SiSbCO7,0.0,-2.255140253020833,0.0782266816666616,0
mp-569975,Yb3CoSn6,0.0,-0.4773651229999999,0.0,0
mp-973432,LuScRh2,0.0,-1.013495325000001,0.0194932099999993,0
mp-566788,Na2Mn2O3,0.2882,-1.7895726647385717,0.0,0
mp-8653,CeSiRu,0.0,-0.7609260900000004,0.0,0
mp-5048,LiGaTe2,1.5885,-0.6260475875000004,0.0,0
mp-17706,Zr5Ge3,0.0,-0.7994657225000008,0.0,0
mp-554503,ZnS,2.0201,-1.1399266111383934,0.0003767433928567,0
mp-624418,CdI2,2.3295,-0.5904666116666665,0.0016703868888889,0
mp-16509,LuAl4Ni,0.0,-0.5190684124999999,0.0,0
mp-27199,AuSeBr,0.6295000000000001,-0.1569468620312495,0.0,0
mp-623261,PrGaCo,0.0,-0.2599593874999997,0.1233319991666688,0
mp-560189,NaLi2BO3,3.9589,-2.482671593809524,0.0,0
mp-9344,TiTlCuTe3,0.0279,-0.4661546186111109,0.0,0
mp-644330,H8C3N2O,1.7439,0.0676818308949996,0.6752102757142842,0
mp-25743,Cr3B7BrO13,2.4249,-2.60730768595486,0.0,0
mp-643575,CoH12(BrO7)2,1.9233,-1.000220930032414,0.0169845545474132,0
mp-540625,GeSe2,1.4381,-0.2685034455208335,0.0,0
mp-973539,LuAl3,0.0,-0.3791185675,0.0130804324999997,0
mp-778733,Mg3WO6,3.5908,-2.730657017749999,0.0375210330000008,0
mp-975641,Pr3Cd,0.0,-0.1039546687500001,0.0563843975,0
mp-972954,MgCd2,0.0,-0.048852785,0.0357449466666663,0
mp-28894,Ba2P3Pd,0.0,-0.9131648790476192,0.0,0
mp-28487,Ge5(Te4As)2,0.219899999999999,-0.0488762590000002,0.0168138786666669,0
mp-9035,NaLuS2,2.399299999999999,-2.1834794782812508,0.0,0
mp-23612,K3B6BrO10,5.212000000000001,-2.7258963531249987,0.0,0
mp-10225,NaVS2,0.0,-1.3351647232812516,0.0343075090178492,0
mp-756426,ZrNbO4,0.0,-3.2695900216666667,0.1034241500000003,0
mp-764977,Li2FeOF3,2.4855,-2.7191188206885712,0.0915902065873091,0
mp-765956,LiV(OF)2,2.26,-2.7281101812299995,0.0006716604166836,0
mp-3998,LaTaO4,3.3866,-3.721728175833333,0.009355977083338,0
mp-768160,Li2BiPCO7,3.6529,-2.286958583695437,0.0575932791666673,0
mp-636934,Bi2O3,1.2294,-1.3776010924166675,0.2760347698333323,0
mp-771413,Li3CrO4,0.6230999999999991,-2.1169052756249997,0.0742688887499998,0