mpid,formula,BG,FE,e_hull,fidelity
mp-34291,Zr3InF15,5.405299999999999,-3.781382736202632,0.0,0
mp-2576,Sr2Ge,0.3776,-0.5365368383333333,0.0,0
mp-566482,V6O13,0.0,-2.375739116381578,0.0493792989473487,0
mp-777058,LiV6O7F5,0.9873,-2.7090338273526315,0.0925508591812906,0
mp-1019742,HeSiO2,6.5469,-2.4360277699999995,0.0275069106249992,0
mp-29026,MnWN2,0.0,-0.4180204824400011,0.0283196324999988,0
mp-973266,Lu3Al,0.0,-0.1950496724999988,0.0073857043750003,0
mp-1029592,Li3YN2,2.079799999999999,-0.9390435418349992,0.0,0
mp-541293,Pr2NiO4,1.335999999999999,-2.8873927460714293,0.0459977453571429,0
mp-677597,Ta4AgS8,0.0,-1.3896935986538472,0.0,0
mp-29849,Ag3SnP7,0.508099999999999,-0.0557144037878781,0.0,0
mp-607298,Cs2Pd(ICl2)2,0.8764000000000001,-1.3537280681155557,0.0056110322222213,0
mp-627944,Si4H2O9,5.1713000000000005,-2.846109393899334,0.0598276308333325,0
mp-971924,DyYAg2,0.0,-0.3352804972916656,0.0,0
mp-690460,BaLa2Mn3O9,0.0,-2.830993564275333,0.0101113855555734,0
mp-767181,Li3Mn2OF5,2.1431,-2.815944003556364,0.0975264668181816,0
mp-6754,TmNi2B2C,0.0,-0.5192037918055554,0.0,0
mp-765242,V2F7,0.7778,-3.0225052273144435,0.089389456944434,0
mp-865800,Yb2BiAu,0.0825,-0.88745605125,0.0,0
mp-861912,TaTiTc2,0.0,-0.5288738841666678,0.0,0
mp-2923,Ca2Os2O7,0.0,-2.2521182007954548,0.0,0
mp-743872,VPH5NO6,2.3592,-1.75456050846966,0.0694664949121746,0
mp-17777,Sr5As3O12F,3.9026,-2.86899221339,0.0,0
mp-5447,Sm3OsO7,0.0,-3.154158697386365,0.0038282868181784,0
mp-753,ZnSb,0.040999999999999,-0.026918765625,0.0,0
mp-772425,Li3V(SO4)3,0.0,-2.250651360641447,0.0785510786184193,0
mp-675214,Rb2Bi3F11,3.8503,-2.7812987220681253,0.0446400682812502,0
mp-780835,Li5FeO3F2,2.784099999999999,-2.401098263284545,0.088201965681816,0
mp-12059,Sm(PRu)2,0.0,-1.0284877597380957,0.0,0
mp-20151,Eu(AlGe)2,0.0,-0.4226651430000004,0.0,0
mp-761390,TaFeO4,1.891299999999999,-2.7401176983333344,0.0286861324999989,0
mp-626289,H3NO4,3.7239,-1.1096457388424996,0.0600305865625001,0
mp-6775,Na3Sr(BO2)5,4.561,-2.824775563201753,0.0,0
mp-730972,UP3H10ClO8,0.378299999999999,-1.6118279194019884,0.0397053062096315,0
mp-560754,SiO2,1.36,-2.755315104583333,0.5293978029166633,0
mp-974332,S3Br,0.0,0.1272769844531249,0.3161970548437498,0
mp-1078,CaCd2,0.0,-0.3261720091666668,0.0076505674999998,0
mp-607436,ReCl3O2,1.8464,-1.4984237437133328,0.0,0
mp-8481,LiPrGe,0.0,-0.6740621816666663,0.0,0
mp-776680,TiMn2Ni3(PO4)6,0.0,-2.2785950529766144,0.0872991108506893,0
mp-559361,Cs3MnF7,1.5495,-2.917781044480908,0.0036586959090918,0
mp-18468,Mn5SiC,0.0,-0.1758711442857148,0.0408459643478273,0
mp-762048,Li3V(CO3)3,2.9532,-2.1440027436718747,0.0475947065624815,0
mp-866108,HfZn3,0.0,-0.1950906074999996,0.0,0
mp-643701,TlP(HO2)2,3.9882,-1.9683842537919043,0.0087720082812472,0
mp-34475,Ta2MnO6,1.930199999999999,-3.109554961773332,0.010203324999999,0
mp-677056,Na2UI6,0.0,-1.035415882222222,0.0139292444444443,0
mp-1016106,HfZn16,0.0,-0.0598049714705881,0.0,0
mp-22953,YbCuBi,0.0,-0.5329420816666666,0.0,0
mp-4747,Ca2SnO4,2.7136,-2.8967400671428565,0.0,0
mp-762989,Mn2O3F,0.0,-2.0452575661433343,0.0595020114583375,0
mp-4212,Nb3Co4B7,0.0,-0.5843960186904756,0.0,0
mp-6603,Sr2CeIrO6,0.0,-2.85394061225,0.0,0
mp-763687,Li6MnO6,0.0,-1.9008877144969225,0.0938039442307694,0
mp-574273,Ce2Co5B2,0.0,-0.4385404250925925,0.0,0
mp-505351,Na3(FeS2)2,0.0,-1.0485306501388894,0.0384565755555543,0
mp-9769,BaAs2Pt,0.0,-0.8466840750000006,0.0,0
mp-851026,Li3CrNi3O8,0.0,-1.5139679079999988,0.0818496498412741,0
mp-978796,SmDyIn2,0.0,-0.4887394697916667,0.0,0
mp-1020797,Y(PO3)3,5.6193,-3.0255932810027466,0.0091931798076974,0
mp-756163,Li2Cu4S3,0.126999999999999,-0.7328986869097223,0.028673129166667,0
mp-29417,Na3ScBr6,3.3731,-1.6506665990000002,0.0,0
mp-569129,TlCuPSe3,1.4855,-0.2451303964794148,0.0,0
mp-10105,UTeAs,0.0,-0.6470008683333338,0.0347784283333334,0
mp-1016820,MgSnO3,0.835299999999999,-1.88806355775,0.6291769235000002,0
mp-850532,LiSn2(PO4)3,2.9236,-2.5318819641269843,0.0155100305555562,0
mp-28522,Gd2CBr,0.0,-0.9493413593750012,0.0,0
mp-680374,KAlSiO4,4.6996,-3.205149230535714,0.0,0
mp-779171,LiCr(PO3)3,2.8768,-2.5858201925382667,0.0464546562706997,0
mp-669376,KU2F9,0.2237,-3.7526467515175006,0.1044181889583724,0
mp-765341,LiCuF4,0.0,-2.1884773766266665,0.0342231866666589,0
mp-35205,LiErSe2,1.6045,-1.6775871855468756,0.0175991224999991,0
mp-2760,Nb6C5,0.0,-0.5411700561363634,0.0,0
mp-2572,SrMg2,0.0,-0.1002155258333331,0.0,0
mp-15999,Li3AuS2,2.0985,-1.262406066354167,0.0,0
mp-19548,CaMn2Be3(SiO4)3,3.8734,-3.0587516022342864,0.0,0
mp-570798,Er3(P3Pd10)2,0.0,-0.7384623183990153,0.0,0
mp-1673,Tb5Ge4,0.0,-0.8572341335185187,0.0,0
mp-766340,Ba2CaI6,3.8212,-1.7088725980555557,0.0371051177777781,0
mp-505364,CdPH6NO5,3.2768,-1.5686518504246598,0.005638902670066,0
mp-561446,BaCa(GaO2)4,3.064199999999999,-2.644606171428572,0.0,0
mp-460,PrZn,0.0,-0.3089710674999999,0.0,0
mp-680118,CdI2,2.3483,-0.5905589643333333,0.0015780342222222,0
mp-762684,Li2Ti(FeO3)2,1.793,-2.425423479772728,0.0658729096969708,0
mp-541857,GaP(H2O3)2,4.4271,-1.9767205434437696,0.0228103944791682,0
mp-505067,Co2As2O7,1.7401,-1.5916469007954546,0.0260509957954537,0
mp-773711,Ti2Sb(PO4)3,0.0,-2.7539325007010595,0.109977783425915,0
mp-19479,Na5La(MoO4)4,4.0741,-2.4062513813461535,0.0,0
mp-504607,YInO3,2.051699999999999,-3.001777560583334,0.0046611166666652,0
mp-649774,CuSbPbS3,0.7698,-0.6712015349479176,0.0035776024999973,0
mp-764793,Li2Mn4OF8,2.171799999999999,-2.8196910214739983,0.0876691681666672,0
mp-561396,Li3CrF6,3.9644,-3.162222404713998,0.0,0
mp-30602,DyMg2,0.0,-0.0647193697222225,0.0075232774999993,0
mp-28626,LaSO,1.522899999999999,-3.1117017176041664,0.0,0
mp-11562,TbRh5,0.0,-0.2889907388888891,0.0818237299999999,0
mp-556999,ErSeO3F,4.2923,-2.8368496089222925,0.0019666766666643,0
mp-761613,LiVSiO4,1.7435999999999992,-2.78147113,0.0707026865178557,0
mp-720860,H9CSO7F3,5.8426,-1.566321025426786,0.1108524025000035,0
mp-767999,Ti3Mn2Co3O16,0.0388,-2.09522318258,0.1036417160416736,0
mp-764039,LiCo7O7F,0.0,-1.5093028209337502,0.0521211646874997,0
mp-754903,Y(BO2)3,5.446999999999999,-3.173147754,0.0075105455000006,0
mp-977385,NpH3,0.0,-0.3270357436525,0.0,0
mp-2097,SnO,0.4096,-1.644184575624999,0.0,0
mp-569916,Al3Pt2,0.0,-0.643600678,0.3529880319999998,0
mp-768057,Li2VCrO4,1.7728000000000002,-2.43765903875,0.0077874774999999,0
mp-865002,CaYRh2,0.0,-0.5906079606250003,0.0032387391666661,0
mp-556549,Bi2O3,2.2745,-1.6292155517500002,0.0244203104999991,0
mp-761648,LiNi(PO3)3,2.993999999999999,-2.421060824145408,0.0506639719642718,0
mp-777216,Cr2Fe3Te(PO4)6,0.0,-2.3570117152380954,0.089472671909716,0
mp-772342,Y2W2O9,1.9714999999999991,-2.8874482208653847,0.0668747465384687,0
mp-1018762,Li3CeBi2,0.0,-0.639882926666667,0.0,0
mp-977386,LiLu2Tc,0.0,-0.0956396100000001,0.0067761893750004,0
mp-865182,Gd2SCl4,1.7004,-2.6339406245860717,0.0,0
mp-625171,H7ClO3,4.2299,-1.2710477797590911,0.0513087754545438,0
mp-1032931,HfMg6AlO8,0.0,-2.7303844990625,0.3435163407343769,0
mp-638261,La2GeO5,4.015499999999999,-3.343985093906249,0.0,0
mp-697084,HPbIO,2.7209,-1.1654958324675002,0.0,0
mp-8456,SrAsPt,0.0,-1.0189664683333337,0.0,0
mp-1019605,Cs2Ba3(P2O7)2,4.7249,-3.0634472524948246,0.0041450020652185,0
mp-562609,Mn(NO3)2,2.7416,-1.2218926453577774,0.0,0
mp-7863,Rb2Sn2O3,1.2253,-1.7352808076785715,0.0,0
mp-10014,TaS2,0.0,-1.4921945860416674,0.001142156666674,0
mp-6730,Sr3ZnPtO6,2.566099999999999,-2.400879592954546,0.0,0
mp-720529,KH28S4N7O16,0.007599999999999,-0.5246492541833925,0.7713820875446427,0
mp-1025583,Te2Mo(WSe2)2,0.0,-0.4095129660416666,0.0537057338888882,0
mp-10789,Yb2Ge6Pd,0.0,-0.5009201930555555,0.0,0
mp-761405,Li2Fe2Si2O7,3.1294,-2.6031484856730764,0.0456756665384574,0
mp-770085,Li4Cr3FeO8,2.3743,-2.2269451743750004,0.092095944687502,0
mp-2822,TmSe,0.0,-1.6513192992968748,0.0,0
mp-554719,Mg3B(HO2)3,3.4202,-2.4778920626943592,0.0115564098076923,0
mp-775681,Li16V3Ga13O32,1.5151,-2.3778604053125,0.0302288832812509,0
mp-754140,CaSeO3,4.1407,-2.3052799349687505,0.0118149139999941,0
mp-674478,BaCO3,4.159499999999999,-2.6467499892500017,0.0500857889999943,0
mp-554497,CuSb2(XeF5)4,0.664299999999999,-1.7624557419925926,0.0,0
mp-690543,Mn2NiO4,0.0,-1.6060987567028573,0.0999418251587354,0
mp-23029,Cs3Sb2I9,1.8679,-0.9189914903571428,0.0,0
mp-30877,SrTl2,0.0,-0.3376195916666666,0.0,0
mp-601383,H7CSeN3O4,0.581299999999999,-0.5468642774108599,0.4910435072122663,0
mp-772955,Ba2LaCl7,4.1371,-2.9001514105320005,0.0117014757500015,0
mp-763440,Li8Mn(O2F)2,2.6852,-2.2925621952226667,0.0677323796666664,0
mp-1018106,YbBiPt,0.0,-0.8376340816666664,0.0,0
mp-27390,K5ThF9,5.9624,-3.5379888820473337,0.0,0
mp-31386,HoGaPd,0.0,-0.8998995541666671,0.0,0
mp-776798,Li2MnVP2(HO5)2,0.5434999999999991,-2.433160135753176,0.0202707153240595,0
mp-8960,Ba3NaNbO6,3.0766,-2.991803171590909,0.0,0
mp-765077,LiVCrP2(O4F)2,1.3355,-2.7358604556824764,0.0081625804722325,0
mp-600347,H2Os3(CO)10,1.732,-0.9049648035895996,0.2251332124999994,0
mp-998176,RbPbBr3,1.7624,-1.2542223460000002,0.0447837939999988,0
mp-16543,Cs3Cu5O4,1.6383,-1.099462935625,0.0,0
mp-850101,LiV6O7F5,1.0366,-2.71289653998421,0.0886881465497122,0
mp-989544,Cs2SeClF6,0.0,-2.2775596518993746,0.0,0
mp-571540,ZnCl2,4.018499999999999,-1.5349757085622224,0.0033617052777779,0
mp-30390,HoSnAu,0.0235,-0.8514908000000001,0.0,0
mp-699598,Co8Te(AsO8)2,0.7623000000000001,-1.5082535483333317,0.0094509431944338,0
mp-696946,BaSn2(HO2)2,2.103199999999999,-1.9512648296933333,0.0,0
mp-775229,Li3MnV4O12,0.0,-2.372005049798001,0.0632246354999894,0
mp-554663,Mg2SiO4,4.5874000000000015,-3.1737088649999987,0.0622862082142852,0
mp-773383,V2Cr3Sb3O16,1.4335,-2.103779176874999,0.1102373441666673,0
mp-505002,Sc5As3,0.0,-1.1118844584375005,0.0,0
mp-28211,IrS3Cl11,1.8442,-0.8608994510365003,0.0,0
mp-23450,RbIO4,2.494,-1.1863211574999994,0.0,0
mp-762782,Li3VF5,2.3684,-3.0520662576055564,0.0688235752777775,0
mp-978269,MgZn2,0.0,-0.1167173666666666,0.0067909841666671,0
mp-866069,MgScRh2,0.0,-0.8075248524999994,0.0,0
mp-9198,Fe(SiP)4,1.023299999999999,-0.285493132486773,0.0,0
mp-639149,KZrPSe6,0.0,-0.6088049491286375,0.1500149233796337,0
mp-639335,MnSbSe2Br,0.1832,-0.3381760611875002,0.1198660932499997,0
mp-17015,K4GeO4,2.7837,-1.9760599730555557,0.0,0
mp-554098,Ti6O,0.0,-0.9187364180357146,0.0,0
mp-761991,Li3Fe3SiO8,1.476499999999999,-2.257747643333333,0.0834271553333332,0
mp-766293,Al11AgO17,3.0191,-3.2631139229741377,0.02422683482758,0
mp-652774,CsVP2O7,1.8684,-2.7470441206764065,0.0,0
mp-764409,Li2CrO3,0.6244999999999991,-2.1610314785416658,0.0996745412500024,0
mp-766925,LiVF5,1.5758,-3.0524075358500005,0.0608393057142908,0
mp-776757,Li4Co2Ni3Sn(PO4)6,2.5987,-2.258997973589287,0.0909651303437559,0
mp-656880,Y2Mn2S2O5,0.0,-2.3480797092086356,0.3495578775875288,0
mp-755954,BaSr2I6,3.618099999999999,-1.6919522433333332,0.0504133862500002,0
mp-21757,Eu3Al5O12,0.0,-3.36140039675,0.0021035340000015,0
mp-554885,Ba3Si6N4O9,4.372,-2.7603184963986367,0.0,0
mp-555508,Ca11Si4SO18,3.5249,-3.382145432545956,0.0250526223529412,0
mp-570000,K3Mo2Br9,0.9673,-1.0859150817857142,0.0022360546428572,0
mp-769471,Fe3Co2P6WO24,0.0064,-2.3530558488492077,0.0435305064814386,0
mp-20821,NpGa3,0.0,-0.1849908596874998,0.0,0
mp-505064,Nb2P,0.0,-0.8132831943650811,0.0,0
mp-9908,Ba2Sb,0.0,-0.8546922933333333,0.0301419911111109,0
mp-1028762,TeW2Se3,0.1065,-0.4159630926302083,0.0301195714583348,0
mp-20780,Tb(MnSn)6,0.0,-0.1359242856410247,0.0122051821794872,0
mp-776322,Li2V5CoO12,0.0,-2.29595723275,0.0919644742083374,0
mp-608106,P4S3I2,1.7917999999999992,-0.3515216288409404,0.0170937477777819,0
mp-983598,Ca2AgBi,0.0556,-0.5977720812499996,0.03766695666667,0
mp-12753,GdAl,0.0,-0.3837113599999995,0.0149459012499999,0
mp-977361,ZnFeRh2,0.0,-0.27162922625,0.0,0
mp-864959,Dy2CuOs,0.0,-0.2650883370833323,0.0,0
mp-20526,PbS,2.0909,-0.8079783645312508,0.0598520725,0
mp-24212,RbP(HO)2,5.1547,-1.6226150408892055,0.0,0
mp-977540,CaBiPd2,0.0,-0.601791768750001,0.0,0
mp-768042,Na2FePCO7,2.4519,-2.2988048520287694,0.0074229833333205,0
mp-560357,MnClO3,2.0584,-0.8543113325939998,0.4397165119166653,0
mp-14115,LiRhO2,1.513,-1.5683624206249993,0.0,0
mp-1006068,Gd2AgRh,0.0,-0.5240251025000013,0.0255825949999994,0
mp-570991,TiSi2,0.0,-0.3884635122222224,0.1732038200000003,0
mp-23012,Bi2Pd3S2,0.0,-0.550825306875,0.0,0
mp-775935,ZrO2,3.8528,-3.746078496388889,0.0871413161111114,0
mp-861944,KNaPrTaO5,3.455,-3.123673478472221,0.0,0
mp-765688,LaAl12O19,0.0,-3.3999178624609376,0.0530005845647352,0
mp-674232,Ca2Sn2F3,0.0,-2.5237517255100004,0.3111455732142847,0
mp-631398,TeOsCl2,0.0,0.4583977046200003,1.1484078518749996,0
mp-707290,Nb10Pb14O39,2.1847,-2.30337643125,0.0877410469312174,0
mp-1002219,TlSb,0.0,0.130679035,0.1382806613095235,0
mp-759877,Li4CuF7,0.6795,-2.6720788369441664,0.0386686136111134,0
mp-570157,ZrBrN,1.695799999999999,-1.7210722191266672,0.0144103483333326,0
mp-28407,SBr2O,2.732,-0.7830667175781252,0.0,0
mp-763961,Li5TiV3O8,0.0,-2.4636066921568625,0.0875681015686238,0
mp-571458,RbGeI3,0.554,-0.7868744590000005,0.0253567679999999,0
mp-849402,LiCo2OF3,2.3021,-2.23617099426,0.0768334849999998,0
mp-21542,K2CeTa5O15,0.0481,-3.362597566249999,0.0,0
mp-776616,LiV2F7,2.2743,-3.148866556833,0.0787706909999901,0
mp-571225,CdI2,2.4015,-0.5920253888095239,0.0001116097460318,0
mp-764345,CrPO4,2.1378,-2.578853046765872,0.0230181762499999,0
mp-773060,Ba6Ta9Ti7O42,0.0,-3.50015356608073,0.0,0
mp-622273,SnHg2(SBr)2,2.3254,-0.5400599415178574,0.0697176571428568,0
mp-703295,SrH2I2O,3.6429,-1.5515577793316666,0.0007942937499993,0
mp-569945,Tb2Ni17,0.0,-0.1955303514035089,0.0097006142105264,0
mp-1007637,KNaH2,2.5014,-0.21190964056,0.0555281799999996,0
mp-755138,NdInO3,2.6533,-2.89691121375,0.0148804317499999,0
mp-780439,LiCr(PO3)4,3.0185,-2.578582810965609,0.0780435974074,0
mp-760679,Cu3OF5,0.0,-1.6088155991333322,0.0207216007986117,0
mp-30822,PuOs2,0.0,0.3956494477083344,0.395649447708335,0
mp-649472,KCuPO4,0.0,-2.21337149579932,0.0,0
mp-863035,PuSb3,0.0,0.1867417582812498,0.4789016662499997,0
mp-767168,Li3TiV3O8,0.9294999999999992,-2.6358631037777793,0.0695986807499933,0
mp-549490,KNb4O5F,0.0,-2.622142432949091,0.0,0
mp-9008,RbTeAu,1.107899999999999,-0.6875949316666669,0.0,0
mp-559292,P6Pb3Xe11F58,2.3499,-2.0374838507383517,0.0,0
mp-640067,Ni4B3,0.0,-0.2789283907142866,0.0,0
mp-23875,CuH4(ClO)2,0.4636,-1.1819559192777775,0.0402202205555557,0
mp-768979,Ba3Y2Cl12,4.3262,-2.7910141120070584,0.0570202588235275,0
mp-865713,Li2TlBi,0.006599999999999,-0.3723207800000004,0.0,0
mp-864734,HfInPd2,0.0,-0.6978216287499999,0.0,0
mp-971982,Tm2ZnCu,0.0,-0.30653118625,0.0096532449999999,0
mp-650503,Rb3V2Br9,0.0,-1.3042880753571429,0.0,0
mp-13003,CdGeO3,0.8428,-1.7650154107499998,0.1180698173333381,0
mp-558191,Na2ZrSi2O7,4.5653,-3.1675219023958334,0.0,0
mp-23737,KMgH3,2.458,-0.3418343411719998,0.0,0
mp-8132,Li(TiSe2)3,0.0,-1.1610385611562506,0.0,0
mp-769735,Li3MnPCO7,3.5753,-2.3993841365619417,0.0843692319230653,0
mp-1008527,B2CN,0.0,-0.4464410233033336,0.3105550269711532,0
mp-775103,V4(OF3)3,1.4002,-2.9652157284037504,0.0,0
mp-971631,GaP,0.0,0.1706549159523804,0.5790906900000001,0
mp-560584,Si2Ag6O7,0.1758,-1.4681179896944438,0.0434595545555582,0
mp-765501,Li2NiO2F,0.054399999999999,-1.9084034497816664,0.0664184370833371,0
mp-628742,Cs5Sb8,0.5847,-0.3658853007692308,0.0,0
mp-10135,YbBPd3,0.0,-0.6582173693333331,0.0,0
mp-780131,Li7MnNi3(PO4)6,0.0,-2.3340130187690606,0.0772721413871835,0
mp-24563,Ga2P3(HO3)3,5.1674,-2.079346708023277,0.0251202192647088,0
mp-642803,Zr2HBr2,0.0,-0.956664188724001,0.0245989444999983,0
mp-743693,NiH4(IO4)2,3.0206,-1.092693665632,0.0038430866666674,0
mp-686526,NaCaAlSi2O7,3.9498,-3.0361502586458333,0.2529747844791519,0
mp-684604,CuS2,0.0,-0.4432346277083337,0.1005456883333355,0
mp-759224,Li5CuF8,0.7916000000000001,-2.7605675049657146,0.0173417666666679,0
mp-559212,RbReSO3,2.7978,-2.0128940433854168,0.0704080164583347,0
mp-558669,SrAl2B2O7,4.686,-3.280023282673611,0.0,0
mp-559463,RbMgAs(H6O5)2,4.2177,-1.6665990328376,0.0,0
mp-16995,Sm3Si6N11,3.011299999999999,-1.5170181091839994,0.0,0
mp-27243,K2PtBr4,1.4677,-1.1417079857142851,0.0058876835714292,0
mp-20760,La2In,0.0,-0.3547606083333339,0.0116141249999985,0
mp-258,ZrV2,0.0,0.0454643850000001,0.0454643850000007,0
mp-569109,MnBiSe2I,0.7160000000000001,-0.4012813424374997,0.0,0
mp-28692,Cs2CuF6,0.0,-2.3015917141266677,0.0,0
mp-12872,ErIn5Co,0.0,-0.2341568264285715,0.0,0
mp-15960,Li5AlO4,4.662000000000001,-2.50706910275,0.0,0
mp-779065,Li2Mn2CoO6,0.5897,-1.92507519631091,0.0497754097564993,0
mp-18766,Si(NiO2)2,3.385600000000001,-1.9306261257142856,0.0244461564285734,0
mp-767939,Li2V2F7,0.7864000000000001,-3.097604167575456,0.0682673408333336,0
mp-696998,K6BiH3(Cl2F)4,4.1881,-2.1356630371227268,0.0008188290909081,0
mp-1026975,MoWSeS3,0.5367999999999991,-1.1152813951302096,0.0105880016666661,0
mp-29500,Ge7F16,4.3804,-2.4872305458278263,0.0026524228260873,0
mp-553914,KCdCu7Se2Cl9O8,0.0,-1.1186689389831257,0.0225430068749945,0
mp-753318,DyBO3,4.514,-3.483430577416668,0.060143966,0
mp-8612,Sb2TeSe2,0.4865,-0.2233705854375003,0.3309949793333335,0
mp-601302,GdP2H9O11,3.1191,-2.086025217500891,0.0354256892391218,0
mp-645592,Nb3(BiO3)5,1.267199999999999,-2.324375214293477,0.0173350273913053,0
mp-754370,Ba3GeO5,2.7592,-2.8598102145833337,0.0066989819444449,0
mp-557364,CdB2F8,5.4624,-3.0177830143503033,0.0,0
mp-571553,SnH18C6Br3N,3.4837,-0.348490228104828,0.1075621113362066,0
mp-11851,ErCoSn,0.0,-0.4891620616666668,0.0,0
mp-559,YPd3,0.0,-0.858722453125,0.0,0
mp-28485,Sb5IO7,2.4399,-1.6102970260576928,0.0185314945192303,0
mp-631543,AlInB,0.0,1.0463154677777784,1.074197593133334,0
mp-774736,LiCuS,1.6984,-0.9604683971874994,0.0009006560416668,0
mp-1018101,AlCo3,0.0,-0.1801129374999996,0.1215980075000002,0
mp-780876,Li6Fe(OF)3,2.7067,-2.498969697101539,0.0967274501923141,0
mp-14476,LiRhO2,1.38,-1.5584873793749994,0.0098750412499999,0
mp-21712,Tb2Ti3Ge4,0.0,-0.7963417474074075,0.0,0
mp-735578,SrMoAsH3O8,2.9342,-1.9714151455971431,0.0743673208482089,0
mp-696221,KAl(H2N)4,0.2034,-0.1085336145342858,0.5766552689285707,0
mp-505292,Nd3(CuGe)4,0.0,-0.6016204893181812,0.0,0
mp-27147,Rb3BiBr6,3.3,-1.4120626591249998,0.0,0
mp-8644,BaF2,5.9306,-4.04408357246,0.137304125,0
mp-26113,LiTi(PO3)4,0.2869,-2.7725005671693137,0.0212637850952335,0
mp-999357,NbN,0.0,-1.09566436119,0.1575868400000004,0
mp-761618,LiMnPO5,0.0,-2.3377664219131544,0.0501813767447885,0
mp-557022,Sb8Cl2O11,2.8915,-1.7329888359652377,0.0,0
mp-19854,Pr2In,0.0,-0.3403850499999995,0.0098758033333341,0
mp-505759,Zr5Sb3,0.0,-0.6770694678125011,0.0,0
mp-779211,Li2MnFe(BO3)2,3.1309,-2.4647277001494445,0.0047239476388849,0
mp-8409,KYO2,3.973899999999999,-3.10743809625,0.0,0
mp-37808,Sc(TiN)9,0.0,-1.8635003584957897,0.0,0
mp-6223,DyNi2B2C,0.0,-0.5141175962499993,0.0,0
mp-756400,NdBiO4,0.5653,-2.4249060645833342,0.0,0
mp-556874,La6Mo8O33,3.2255,-2.7741442235372333,0.0011437992553204,0
mp-765420,Li11V4F24,0.0,-3.1939716816297437,0.0160404603846187,0
mp-28912,MnInBr3,1.6239,-0.7627719600000006,0.0030032059999998,0
mp-27953,Mo2N,0.0,-0.3566189191266661,0.0089249945833334,0
mp-1020716,Rb3B(SO4)3,5.1274,-2.336105745992325,0.0,0
mp-707095,YHSO5,5.4776,-2.650031882991562,0.003113408749976,0
mp-634977,Cs3Fe2Cl9,0.5004000000000001,-1.6827300128100002,0.0755206475000012,0
mp-777091,Li2MnVP2(HO5)2,0.512099999999999,-2.4324888763087307,0.0209419747685046,0
mp-721813,AlH18CS2N3O14,5.2842,-1.4779117145835474,0.017736557895299,0
mp-866224,Be2NiPt,0.0,-0.6395730374999999,0.0,0
mp-767104,Li2Cr(CO3)2,2.4177,-2.066780343409091,0.079968614261368,0
mp-2179,TiRe,0.0,-0.3993889308333341,0.0,0
mp-541448,Rb3(FeS2)2,0.0,-1.110527612361112,0.0023958585416679,0
mp-866292,Ba2TlCd,0.0,-0.3718324900000001,0.0,0
mp-755512,Sm3NbO7,2.843,-3.7010115619318182,0.0014058730681796,0
mp-754549,Na2CuO2,0.0,-1.3445885155,0.0515216370833293,0
mp-675835,Dy2Zr8O19,2.3535,-3.7792140405890806,0.0877600800000006,0
mp-764093,Li5Ni2(PO4)3,4.0388,-2.4101409401948057,0.0551806279545461,0
mp-868632,MnOF,0.4628,-2.3530138861333327,0.0459362804166714,0