mpid,formula,BG,FE,e_hull,fidelity
mp-13816,Cs2NaErF6,6.863899999999999,-3.6350136057139992,0.0,0
mp-14447,Ba2SiSe4,2.2776,-1.456302209910714,0.0,0
mp-767777,Li2V(Si2O5)3,2.041,-3.00485827203125,0.0889791637500243,0
mp-769457,Li4Ti4Cr(Fe2O9)2,0.646199999999999,-2.5719189496505384,0.0881880401863668,0
mp-27674,K5As3O10,3.057,-2.0322789081944443,0.0,0
mp-866816,CaSnS3,0.0,-1.0035314334375005,0.4816950317500002,0
mp-642036,LaFe12O19,0.015499999999999,-1.978673241054688,0.0614172735156248,0
mp-19163,SrWO4,4.6571,-2.7508796883333333,0.0,0
mp-776259,Hf2N2O,2.0534,-2.544016196452,0.0059816232499958,0
mp-780327,LiMn3(BO3)3,0.0256,-2.409660285570625,0.0930529607942567,0
mp-706809,Ca2Al11Si13Ag7O48,1.7357,-2.8789500351851864,0.1223262483024676,0
mp-1437,LiCd,0.0,-0.2540730900000001,0.0,0
mp-675011,CsPF6,7.1409,-3.1393652406544046,0.0,0
mp-989197,GeClF,2.5328,-1.653361876483334,0.1351669576041665,0
mp-767057,SrLiLa3MnO8,1.6632999999999991,-3.2187076486399984,0.0092664829910749,0
mp-2019,LaRu2,0.0,-0.11663755,0.0,0
mp-767065,LiMn3F10,0.5045000000000001,-2.7988395310557146,0.0549269409523764,0
mp-684743,GaGe5H6C4NO12,1.5426,-1.1487283932448276,0.3314999795689646,0
mp-762308,LiCo2(PO4)3,0.0,-2.075318769126984,0.1119094663194655,0
mp-27259,CsCrI3,0.0,-0.8175712819999997,0.0532368033333332,0
mp-619064,PrMnGeO5,1.094399999999999,-2.6915693777762506,0.0,0
mp-10477,RbAg3Se2,0.062599999999999,-0.4284796920312501,0.0,0
mp-570053,Bi8AsAuCl9,1.3163,-0.8933072664126313,0.0,0
mp-30779,SmMg3,0.0,-0.102881838125,0.0,0
mp-5928,Al2CdS4,2.726299999999999,-1.3511292716071437,0.0,0
mp-23181,SrI2,3.8415,-1.6992285979166664,0.0146420545833336,0
mp-582146,CsNb4Cl11,0.4542,-1.7690417113037502,0.0,0
mp-21163,SiPt3,0.0,-0.5126070881249998,0.0292192043749999,0
mp-769953,Tb2Ti2O7,3.8992,-3.7844190921590912,0.0199300329545426,0
mp-779846,HoTa3O9,2.6798,-3.5158332537500008,0.0259893678845948,0
mp-557123,Na2CuSi3O8,0.7571000000000001,-2.7089696716071434,0.0087702414285617,0
mp-1006058,UCd2O5,2.0821,-2.5253425801562503,0.0210957524999981,0
mp-9047,RbBS3,2.388699999999999,-1.1185510777708352,0.0,0
mp-722269,AlP3(HO5)2,5.7405,-2.584154927282857,0.0075717260937473,0
mp-771720,Li3Mn2NiO6,0.0,-1.9275508641183328,0.036851830877973,0
mp-8076,Na3SbO3,3.0881,-1.8754974148214285,0.0,0
mp-1019733,Eu(NO3)3,0.0,-1.4202475714146148,0.0,0
mp-862794,K2Pu2O5,0.0,-2.890266833333332,0.0,0
mp-571107,Er4InRh,0.0,-0.5730405787500003,0.0,0
mp-17676,Sr2SnS3F2,2.0801,-2.539739961820938,0.0,0
mp-4156,Li2ZrO3,3.7336,-3.0542314489583333,0.0,0
mp-21026,Li2InPt,0.0,-0.5789843724999995,0.0,0
mp-559454,Cs2KFeF6,4.095599999999999,-3.024308821714,0.0,0
mp-625996,NaHO,2.931699999999999,-1.5425929199566664,0.0707816100000036,0
mp-867887,Sm2CuIr,0.0,-0.4783538812500003,0.0,0
mp-3751,AlTlF4,4.4298,-3.301048663293334,0.0,0
mp-767831,LiFe2(PO4)2,1.5931,-2.4543000618223454,0.0413317064422829,0
mp-691106,MnSnO3,0.2273,-2.076835832942,0.0227468789999871,0
mp-27111,Li3Sb3(PO4)4,3.0469,-2.4483114700274724,0.0462486108333335,0
mp-1728,LuRh2,0.0,-0.7693982150000002,0.0,0
mp-765777,V3O5F,0.9374,-2.536428109160001,0.0726028744444367,0
mp-974511,ReSbO3,0.0,-1.1148432947499998,0.6383066305000025,0
mp-864642,HoSnRh2,0.0,-0.8080529299999997,0.0,0
mp-567623,Er2Fe14C,0.0,-0.0840344627941179,0.0,0
mp-541004,YbCu(WO4)2,0.074799999999999,-2.2786651566666656,0.0,0
mp-3397,Ba2TiO4,4.1473,-3.4124104502380948,0.0,0
mp-776622,LiV2F7,2.101499999999999,-3.2128312793330003,0.0148059684999903,0
mp-1009646,ReN,0.0,0.4673480763100013,0.6087812433333362,0
mp-31961,LiMn2(PO3)5,4.2135,-2.613033082875922,0.0254610932608692,0
mp-558373,PrNb3O9,2.848499999999999,-3.2606479325961546,0.008622124807692,0
mp-695000,LiMg6Sc(SiO3)8,3.211099999999999,-2.9898424936250003,0.287551094812498,0
mp-15317,Rb2NaHoF6,6.479699999999999,-3.619309356714,0.0013000020000033,0
mp-21007,SmSnPt,0.0,-1.072768055833333,0.0,0
mp-608653,As2Pb2S5,1.6038,-0.6740806730902796,0.0043247416666645,0
mp-7422,Ca(CuP)2,0.0,-0.5536326632380956,0.0110807347999974,0
mp-761424,TiFe(PO4)2,0.278499999999999,-2.7341416010714306,0.0953911183332927,0
mp-779889,Li5FeO4,3.073899999999999,-2.0118275894999997,0.0891866419999996,0
mp-2656,Nd3S4,0.0,-2.399045733392858,0.0349186864285693,0
mp-20160,Mn2GaCo,0.0,-0.0056506324999991,0.1388352350000001,0
mp-7709,ZnF2,3.5604,-2.611657183293333,0.0057171291666677,0
mp-39412,SrLaMn2O6,0.0,-2.777318074942,0.0,0
mp-554930,Nb2AgPS10,1.372499999999999,-1.013742361872875,0.0019233413520414,0
mp-24742,K2MgH8(SO6)2,5.18,-1.9554210061834003,0.0006459660000022,0
mp-607291,Cu3BiS3,0.7058,-0.4881957167410716,0.0150365712499995,0
mp-2322,YAl2,0.0,-0.5479376608333334,0.0,0
mp-763093,Li2Mn3F8,3.2135,-2.9896050909538454,0.0572797469230783,0
mp-649754,Os3C9Se2O9,2.3869,-0.9427227111277172,0.1278463294565224,0
mp-766367,Dy5(ReO6)2,0.0,-3.376820631491228,0.0,0
mp-761307,TiV2O7,2.0311,-2.7057117260416663,0.0,0
mp-998415,CsSeBr3,0.0,-0.8080281677187496,0.0,0
mp-29575,Cs3Fe2Cl9,0.9037,-1.7317448278099998,0.0265058325000011,0
mp-557373,Cu2WS4,1.5543,-0.8373270323214287,0.007062038809523,0
mp-5391,Mg2SiO4,4.497299999999999,-3.185776907142857,0.0502181660714278,0
mp-1027472,Mo3W(SeS3)2,0.5839999999999991,-1.125487106796875,0.0109483966666665,0
mp-766992,Li3VCrP2(O4F)2,0.593499999999999,-2.7467511363864987,0.0318420870098066,0
mp-23611,BaTa2Bi2O9,1.9158,-2.800449580803572,0.0299604416070948,0
mp-572998,Lu(IO3)3,3.5151,-1.5054737945192307,0.0,0
mp-569803,B2W,0.0,-0.333963307777779,0.0,0
mp-31442,Li2InRh,0.0,-0.3824702350000005,0.0,0
mp-764556,Li5Fe7O3F13,0.6779000000000001,-2.5636067594364293,0.1035036673214273,0
mp-773387,Li4Fe5Co3O16,0.0,-1.693526137142857,0.0544261685156239,0
mp-769842,LiLa4FeO8,0.6408,-3.2823912592857147,0.0865403453571698,0
mp-541476,Li2Cr(H2O3)2,3.052,-1.7567952320753857,0.0201496291025611,0
mp-504613,Ce3(Si4Ni)2,0.0,-0.6153110646153845,0.0458002053846158,0
mp-2102,PrGe,0.0,-0.8330203362500006,0.0002690912499998,0
mp-754621,Sm2Ge2O7,3.8174,-3.0173025503409088,0.0123077875000001,0
mp-673145,LiCu4(PO4)3,0.0,-1.9521770807142849,0.055971592625009,0
mp-632657,ZrNCl,3.0337,-1.8574851585466656,0.2342396866666645,0
mp-771200,LiCo3O4,0.0,-1.4771928881249998,0.0825973025000026,0
mp-2574,ZrO2,3.884199999999999,-3.7959409541666664,0.0372788583333356,0
mp-22515,Rb2CuPb(NO2)6,0.0,-1.108105331330908,0.0654496971242055,0
mp-3045,ErFe4B,0.0,-0.253259502777779,0.0,0
mp-999189,Fe3Ni,0.0,0.0412676899999997,0.0750783199999993,0
mp-779363,Cr4OF11,0.9148,-2.882087310896249,0.0334846804947872,0
mp-34461,Li7Mn11O24,0.7835000000000001,-2.0325815676323806,0.0402207502848677,0
mp-554441,NaTi2Ga5O12,2.7362,-2.645106043666668,0.0011988289999997,0
mp-769792,Li4Fe5CoO12,0.0,-1.793348325681818,0.0980586333664801,0
mp-775867,LiSbPO5,1.594799999999999,-2.3468602541369044,0.0695673245312527,0
mp-561877,HoF3,7.7482,-4.4878043927675,0.0,0
mp-29550,Ba2EuCl7,0.0,-2.684358761032,0.0036297987499898,0
mp-743571,Mn2Si(H2O3)2,2.299,-2.0381426108769234,0.0081692434615368,0
mp-583589,SnH14C4(Br2N)2,2.293999999999999,-0.4322650744176008,0.1169919240499997,0
mp-650943,MnTeC5O6F5,2.1447,-1.413159849272778,0.4948165895833325,0
mp-567584,Hf2Te,0.0,-0.4973703816666664,0.0089115708333356,0
mp-755585,LiAgO2,0.0,-0.8323020556249996,0.2847868587499986,0
mp-775753,MnSn(PO4)2,1.5478,-2.492503814345872,0.0263439577083266,0
mp-601902,Tl2HPtC5N5O,3.2976,-0.0567271459513335,0.2231877535954094,0
mp-4338,Cr2CdS4,0.4178,-1.0750822101785715,0.0,0
mp-35647,Zn2PtO4,0.6309,-1.4372267928571418,0.0,0
mp-767336,Li3MnPCO7,4.108499999999999,-2.4222176654080956,0.0615357030769114,0
mp-641987,Sb8Pb7S19,1.069499999999999,-0.7323253090349273,0.0120621258823527,0
mp-530165,Li13Ti22O48,0.0,-3.2536311038152617,0.00759587315261,0
mp-1751,ThSb,0.0,-0.9060988074999994,0.0,0
mp-1028535,Te2MoW3(SeS2)2,0.0,-0.7849036227864588,0.0544863458333351,0
mp-763928,Co2OF3,0.0,-1.9906063703866677,0.0861155093749976,0
mp-743860,VZn2HO5,2.7972,-1.9541362749855549,0.0102451601388873,0
mp-641804,Yb11(Ce2Se11)2,0.0,-1.5704739913260133,0.2034415197086136,0
mp-779098,Li3MnV(PO4)3,0.7543000000000001,-2.6257970907622856,0.0593710708124648,0
mp-560398,K2Zn(GeO3)2,2.872499999999999,-2.1318722393181813,0.0,0
mp-505799,P2Pb3O8,3.3803,-2.3514275231684985,0.0,0
mp-849694,Li5(FeO2)4,1.142799999999999,-1.9701653588235304,0.0751828202941178,0
mp-769804,Li3Cr(CuO2)4,0.0,-1.5357597687500002,0.0365226112499987,0
mp-722906,Na3CuB8H17O23,0.6148,-2.018187229204296,0.0200735899038448,0
mp-653554,Sb2Te2O9,1.1992,-1.5854152098076928,0.1045713260577159,0
mp-1019110,SmPbAu,0.0,-0.5532329241666663,0.0323401966666674,0
mp-10643,SmSe,0.0,-1.2791697480468749,0.5372320175,0
mp-1018786,LiMnSb,0.0,-0.1049352866666666,0.1915703738888892,0
mp-24898,Cr2WO6,1.4806,-2.297133910277777,0.0,0
mp-996995,MnAgO2,0.289499999999999,-1.439808225864999,0.0,0
mp-766860,LiMnF4,2.8769,-2.851579298036666,0.0986770062499902,0
mp-775224,NbV3(PO4)6,0.9933,-2.6778030308403364,0.0013344051470554,0
mp-15326,Sm3IrO7,0.0,-3.0579429428409086,0.0,0
mp-1034744,NaMg14BO15,1.9427,-2.72683039420699,0.2149469495662606,0
mp-24338,Sr5As3H,0.676399999999999,-1.0678866831800002,0.0,0
mp-600015,SiO2,5.6014,-3.273372941111111,0.0113399663888884,0
mp-505206,Ta3SiTe6,0.0,-0.3901083282499997,0.0,0
mp-11583,Zr2SN2,0.5637999999999991,-1.9329020507645,0.0,0
mp-2634,NbN,0.0,-1.2530164511899995,0.0002347500000006,0
mp-570997,RuCl3,0.0,-0.9525107707783343,0.0304746572916663,0
mp-558544,MoS2,0.0,-1.029325481041667,0.2766674699999996,0
mp-849401,Li4Co7(OF7)2,2.0318,-2.4054759988577774,0.0616705859259258,0
mp-8275,CdGeO3,1.4172,-1.86132262675,0.0217626013333385,0
mp-7342,Sm3Ir,0.0,-0.4933333512499996,0.0,0
mp-7624,Er2Si2O7,4.913,-3.714629606250001,0.0030686990909067,0
mp-5528,Ni3(SnS)2,0.0,-0.5668473497321429,0.0,0
mp-859138,LiMnPO4,3.024899999999999,-2.55817587057932,0.0919823564285708,0
mp-766139,Li2V2F7,0.370999999999999,-3.065470717120909,0.1004007912878801,0
mp-1027780,Te2Mo3WS6,0.0,-0.9375133928645832,0.0990526016666661,0
mp-707317,ErP4HO12,5.554600000000001,-2.814187250888942,0.0,0
mp-1023942,Te2W,1.0435,-0.0783984633333337,0.0272723708333355,0
mp-624,B6As,2.6454,-0.1702461785714289,0.0,0
mp-849937,Na3NiO3,0.0321,-1.2420722326785711,0.0991169600892796,0
mp-31769,Sr(FeO2)2,1.888199999999999,-2.2540094801785715,0.0234511355357103,0
mp-1918,FeRh,0.0,-0.0454607750000013,0.0,0
mp-510274,Zr2Si4Ru3,0.0,-0.8788639444444455,0.0,0
mp-699555,Cr2C13SN3(O2F)5,2.0408,-0.8382627863868367,0.5800677063113593,0
mp-760814,LiCuF3,0.0,-2.288600726214,0.0727261924999984,0
mp-989625,SrWN3,1.105099999999999,-0.8705329454279991,0.0,0
mp-426,CoSe,0.0,-0.1357130467968748,0.1402293337499998,0
mp-23022,KClO3,5.4604,-1.283746461402,0.0212453936250032,0
mp-975028,Rb3Cd,0.0,0.0525176412500001,0.0701617388461538,0
mp-767347,Li3FePCO7,4.2418,-2.3680176930265566,0.0492187753846149,0
mp-773324,Li4Fe3Ni5O16,0.0,-1.2921280339285712,0.0893800895758918,0
mp-558566,Ba5Er2ZrAl2O13,2.5861,-3.50835280375,0.0,0
mp-14985,KZrPdF7,0.6681,-3.0921385403330004,0.0119268483333296,0
mp-571379,InGa2Cl7,3.832,-1.504797590282,0.0,0
mp-11843,DyAl,0.0,-0.396733348333333,0.0195813637500004,0
mp-560631,KUSi2O7,0.5872,-3.3509778142045463,0.0,0
mp-2626,Zr3Rh5,0.0,-0.8019440606250008,0.0,0
mp-767855,LiMn2(PO4)2,0.141599999999999,-2.5028652304315746,0.0585255146153853,0
mp-1013795,Li3Ge3(MoO6)2,0.0,-2.129365601875,0.0959777308194107,0
mp-37727,Er10Ti6O27,1.721,-3.676729171947676,0.2125686587209294,0
mp-3824,Ta9(NiS3)2,0.0,-0.9816111808455884,0.0,0
mp-5972,CsPd2F5,0.252399999999999,-1.9145883082437505,0.0,0
mp-27486,BN3Cl2,3.2518,-0.6238543207488895,0.1693339051922215,0
mp-779810,Fe5O3F7,0.6414000000000001,-2.3418695531386677,0.1216743573333323,0
mp-850010,Li4CoO3F,1.9314,-2.126455668882223,0.0718094386805479,0
mp-770087,LiAlNiO3,3.0139,-2.2917764547916675,0.0692852720833316,0
mp-463,KF,5.9956000000000005,-2.952570158095,0.0,0
mp-10320,La2MgRhO6,0.0,-2.9591247397500005,0.0,0
mp-5369,PrB2Rh3,0.0,-0.6426493222222227,0.0,0
mp-12079,K(CoS)2,0.0,-0.8930208936250004,0.0,0
mp-19031,RbVO3,3.0513,-2.423030073750001,0.0,0
mp-759069,B(HO)3,6.0809,-1.928198108991904,0.0026942036904777,0
mp-38222,NaCN,5.2876,-0.2104241782933336,0.299140902083332,0
mp-5549,MgSnAu,0.0,-0.4398083983333329,0.0,0
mp-765336,LiVOF2,1.0644,-2.925734072476,0.0668679638888845,0
mp-763176,Mn3(O2F)2,0.068,-2.1494577555844447,0.0533653516666694,0
mp-770489,Li6Cr3Fe(PO4)6,2.377599999999999,-2.6083714879642854,0.0429319360312243,0
mp-763692,Li2(FeO2)3,0.0,-1.887769617045455,0.0513444824431825,0
mp-569261,Pr7CoI12,0.0664,-1.2458289709999992,0.0,0
mp-546295,Sr2CuOsO6,0.0,-2.16586081925,0.0079414159772719,0
mp-31011,Y2Si2Rh,0.0,-0.9795359610000004,0.0018734697500057,0
mp-755597,Ca2CeO4,2.161,-3.562080423571428,0.0210728042857129,0
mp-3615,Nd(BO2)3,5.4208,-3.179154888500002,0.0123346993124986,0
mp-706937,B9H11,3.319,-0.1719374824909998,0.0022792364374994,0
mp-30352,NaAg2,0.0,-0.0987268249999999,0.0,0
mp-690914,KNaMg5(Si2O5)6,4.7418000000000005,-3.2083249075,0.0,0
mp-1018134,Li,0.0,0.0007630733333335,0.0007630733333334,0
mp-744579,Mo4H8N2O13,3.1654,-1.5509859903692584,0.084243413831639,0
mp-19595,Sm4FeSe6O,0.0,-1.901786123151041,0.0232140826041691,0
mp-998314,CsInI3,0.0,-0.93730543,0.0252127114999996,0
mp-4727,Ba(SbSe2)2,0.996499999999999,-0.7986877615178563,0.0,0
mp-3197,TbAlPd,0.0,-0.8709599255555555,0.0087940997222215,0
mp-31426,HoInNi,0.0,-0.5122780372222222,0.0,0
mp-23212,CuBr,0.1699,-0.1928047531249999,0.0612365968749997,0
mp-764567,LiFe4(BO3)4,1.7979,-2.3320027484126986,0.0676531070238102,0
mp-559653,SrCa(CO3)2,4.7734,-2.6984495427500006,0.0090125492499986,0
mp-775694,Li4Cr3Ni2Sn3O16,0.8386,-1.9261820826785705,0.0982304638690729,0
mp-685257,CdPbO3,0.0,-1.3996500095000002,0.0,0
mp-866688,Cs4P2PdSe8,1.4224,-0.7544779396626983,0.0,0
mp-14415,Pr2Be2GeO7,4.2674,-3.2395832748958338,0.0,0
mp-672272,Sm2Pd2Pb,0.0,-0.8075729070000002,0.0,0
mp-555979,Li2Pr(NO3)5,3.6557,-1.528435701876086,0.0,0
mp-15509,Yb4Si2S3O7,0.0,-2.955994661464844,0.0366584443923621,0
mp-1594,Ni2Ge,0.0,-0.2733341449999997,0.0303649341666663,0
mp-759131,LiCu3F10,0.0,-1.8027757188857143,0.0178655958928568,0
mp-683983,TaO2,0.7658,-2.7657814970833328,0.3655010824166656,0
mp-505465,As2Pb2O5,2.9362,-1.6543198062499995,0.0,0
mp-1023366,CaYMg6,0.0,-0.0498462828124997,0.0332697368749994,0
mp-768243,Tm2TiO5,3.169399999999999,-3.899311972239582,0.0327508062500001,0
mp-631523,TcNiW,0.0,0.6575886000000004,0.7343945233333358,0
mp-767111,Li4Mn3(OF3)3,0.8042,-2.627668862228421,0.0910111819078958,0
mp-1020059,LiGe2N3,2.763,-0.5205268528566656,0.0,0
mp-779944,Li2CrPO6,0.8508,-2.334229078809524,0.0913708956369028,0
mp-4656,Y(Al2Fe)4,0.0,-0.4280833871153854,0.0,0
mp-28029,TcP3,0.4488,-0.451404899821429,0.0,0
mp-540659,Ba(BO2)2,4.522399999999999,-3.11056447452381,0.0,0
mp-397,KCd13,0.0,-0.0642723617857142,0.0,0
mp-776661,NbV3O10,1.5159,-2.433587098035715,0.0819606751785695,0
mp-566887,Fe3B7ClO13,2.8149,-2.5865902104656957,0.0,0
mp-505018,Mn15(Br3O10)2,0.1709,-1.7600244743756095,0.0014467314634014,0
mp-626506,NaHO,2.788399999999999,-1.5412781432899998,0.0720963866666695,0
mp-553950,Li10Si2PbO10,2.9602999999999993,-2.5008210114130422,0.0030874928260873,0
mp-622000,Cs3Sb2N3(O3F2)3,3.1479,-1.9515641663273904,0.0380652997489843,0
mp-850133,Fe10O9F11,0.9217,-2.253182252978001,0.073216684000001,0
mp-1002133,LaGa,0.0,-0.5827049149999999,0.0,0
mp-764134,Li6Co5Ni3O16,0.0,-1.4511544179999996,0.0698465171111095,0
mp-540868,Ca3Si(ClO2)2,4.3804,-3.2824257736520015,0.0,0
mp-9587,TaMoN,0.0,-0.8858082191266673,0.0239669805555564,0
mp-1008762,TaN2,0.0,-0.6971631582533321,0.4467077786244449,0
mp-720849,Na2H6PtC4N4O3,2.4515,-0.7623212977495009,0.1083328598124984,0
mp-7365,Sr(SiAu)2,0.0,-0.4920994399999998,0.0,0
mp-566472,Mn(RhO2)2,0.9154999999999992,-1.3919632701371432,0.0018673602380943,0
mp-763070,Fe4O3F5,0.298799999999999,-2.297280818725001,0.0976906049999923,0
mp-1252,ZrBe2,0.0,-0.1618235366666667,0.033676870666663,0
mp-773292,Li3Mn(FeO3)2,0.668199999999999,-2.086838646538333,0.0171914966666584,0
mp-850445,Na3Zn4As3H12O19,2.9931,-1.6788751360290244,0.0176010424390131,0
mp-779248,Na2FeO3,0.6359,-1.6710210889583332,0.0594653566666663,0
mp-974933,Rb3Mo,0.0,1.20020221,1.20020221,0
mp-773991,H48PtW6C8(NO)24,2.9777,-0.9743893537016214,0.0606412438753167,0
mp-755312,Li5Nb2Cu3O10,0.375299999999999,-2.164435001624999,0.0770366774999988,0
mp-1106,Sr2Si,0.346699999999999,-0.3670492758333334,0.0,0
mp-765042,Li2VCrP2(HO5)2,2.1447,-2.490198608385026,0.0014143113888893,0
mp-758845,Ba5Nb2O10,2.3701,-3.1632641948529394,0.0068225117647076,0
mp-865186,MgGaIr2,0.0,-0.4462326824999998,0.0,0
mp-18898,Sr(NiO2)4,0.3718,-1.117407744615385,0.0,0
mp-865431,YbZnAu2,0.0,-0.6271683987500003,0.0035754171093751,0
mp-707960,ZnH12C2(N3Cl2)2,4.6886,-0.7744434972303997,0.0,0
mp-23598,SIO3F,1.9298,-1.62360195733375,0.0,0
mp-684004,YbCeS3,0.2662,-2.2643913357708336,0.0633156246666706,0
mp-9481,TcS2,1.1885,-1.065757444375001,0.0,0
mp-631619,KCaNi2,0.0,0.6504649225000003,0.7874290774999988,0
mp-28345,Zr6CI12,0.2801,-0.956062159342106,0.002390782005011,0
mp-756073,Rb2ZrO3,3.2835,-2.7095435118750006,0.0586588245833343,0
mp-768469,TmGaO3,2.9219999999999993,-3.21797656175,0.0,0
mp-752437,SmInO3,2.639699999999999,-2.9212080842500012,0.0306264088749976,0
mp-1156,GaSb,0.0,-0.1592513874999999,0.0,0
mp-22784,InNi3,0.0,-0.0457374400000008,0.053872226666666,0
mp-763823,Cr(Bi7O12)2,0.196,-1.5960083374358978,0.0898688307692827,0
mp-764290,V3OF7,1.1207,-3.0230214204163635,0.099351009090931,0
mp-22142,SiSe2,2.1693,-0.4482703557291672,0.0042853199999992,0
mp-1025769,Te4Mo3S2,0.0,-0.545471280902778,0.0702260705555559,0
mp-18317,Na5SnP3,0.9405999999999992,-0.3726252385317462,0.0,0
mp-976582,HfSb3,0.0,0.0777302437499996,0.3884289887500003,0
mp-19147,NiCO3,3.4031,-1.5463232302500003,0.0,0
mp-626193,Sc(HO)3,5.0212,-2.300870731015714,0.0164147642857139,0
mp-760359,NaTi6O12,0.0,-3.328328399473684,0.0715220211842027,0
mp-1019557,BaS4O13,4.6756,-2.1678928398611106,0.0,0
mp-17964,Na2Ge2Se5,1.402299999999999,-0.6093625139409716,0.0,0
mp-773464,Mn5V(PO4)6,0.0,-2.4757895284269846,0.0372978185416688,0
mp-752682,Ba2Sr7I18,3.419,-1.6791638633333337,0.0537034405555556,0
mp-558399,P3RuO9,0.0,-2.2872770785027474,0.0205802084615376,0
mp-864800,Yb2PdAu,0.0,-0.9143137600000002,0.0,0
mp-849444,Li2Ti2NiO6,2.8432999999999993,-2.6809759600757577,0.0854007104545395,0
mp-680115,CdI2,2.3587,-0.590684775714286,0.0014522228412696,0
mp-28017,Na8Ti5O14,3.5098000000000003,-2.8816883263271613,0.0,0
mp-761842,Hf3SnO8,3.582499999999999,-3.534665103333333,0.0259447489583326,0
mp-532524,TiZn2O4,2.04,-2.5006291109523806,0.0369067851190481,0
mp-20134,KCN,5.021599999999999,-0.3511600666266664,0.1713690620833237,0
mp-24705,SrCaB5H2ClO10,4.962199999999999,-2.806523924316666,0.0083393211874982,0
mp-24297,SrP2(HO)4,5.4304000000000014,-1.8214792509700433,0.013351326662252,0
mp-566314,Na3Fe2(AsO4)3,2.185699999999999,-1.9566628168750009,0.0,0
mp-1027530,Te2Mo3W(SeS2)2,0.0,-0.8239004086197911,0.0536742449999989,0
mp-971662,Si,1.3094,0.0628202858695654,0.0628202858695656,0
mp-1018714,HfGaCu,0.0,-0.3813305766666666,0.0,0
mp-771321,Cs4GeO4,2.5359,-1.8819655038888885,0.0072878380555563,0
mp-4520,Y(CuGe)2,0.0,-0.5045981184999995,0.0,0
mp-4341,Pr(P3Ru)4,0.0,-0.6610605330672269,0.0,0
mp-504605,Na2SiH16O11,4.4711,-1.6446479153056666,0.0112073550833331,0
mp-775589,Ti3CuSn2(PO4)6,0.0,-2.7161070857936505,0.0453901448379641,0
mp-11675,NbTe2,0.0,-0.4551955911111112,0.0,0
mp-540773,Ca2GeS4,2.5134,-1.7734908930357152,0.0,0
mp-569569,Sm(AlCl4)2,0.148299999999999,-2.032189771234546,0.1115210606060603,0
mp-28151,Ho3Ni19B10,0.0,-0.4341251569270837,0.0044754769140675,0
mp-6446,Ba3La2(BO3)4,4.0127,-3.3253994440079366,0.0150178552539728,0
mp-574279,TlIn5Se7,0.3414,-0.5091916353966348,0.0206311993589727,0
mp-25760,PrFeGe2O7,2.7016,-2.5144504369318184,0.0,0
mp-686617,Nd10Si10N17ClO9,2.9399,-2.2565630367014884,0.0,0
mp-768450,Tm3Sb5O12,3.108899999999999,-2.6977922135,0.0,0
mp-770345,Li3V(BO3)2,2.0244,-2.5973697556944444,0.0660611664583337,0
mp-8860,Na3As,0.1193,-0.3772109750000001,0.0453722612499998,0