mpid,formula,BG,FE,e_hull,fidelity
mp-762214,Li2Co3SnO8,0.0,-1.7344398548214284,0.0124396692857065,0
mp-29352,Ba2PdO3,0.0175,-2.289411622291667,0.0,0
mp-769848,Li4Mn5Sb3O16,0.0,-2.083913490707143,0.0358880796428557,0
mp-624191,CuBiPbS3,0.6137,-0.6858636124479176,0.0095288649999991,0
mp-29169,Cd(AuF4)2,1.7605,-1.707617647229091,0.0,0
mp-19401,CrPO4,2.4649,-2.601871223015873,0.0,0
mp-610522,Mn2As,0.0,-0.1603198499999993,0.0188913608333338,0
mp-973538,Lu2AlZn,0.0,-0.36577552375,0.0088736253124999,0
mp-9275,Th2Ta6O19,3.2316,-3.5658906743981467,0.0192815842592626,0
mp-740717,LiH4SNO4,5.2707,-1.604015830652047,0.0003332674999976,0
mp-21855,VCu3Se4,0.8164,-0.4880418705468745,0.0,0
mp-674423,Sr20Ta8O39,0.0,-3.3390810941604485,0.0345866840298523,0
mp-763934,Mn3OF5,0.808999999999999,-2.76989248000889,0.0213118051389002,0
mp-505198,CsCu4Se3,0.0,-0.3660336907226561,0.0045988075000016,0
mp-764450,MnOF,0.0,-2.3267240619666665,0.0722261045833381,0
mp-3316,BaCeO3,2.2112,-3.60355329875,0.001336013000003,0
mp-30658,VGaNi2,0.0,-0.2814024525000001,0.0219393619444421,0
mp-1556,PuTe,0.0,-1.0882512384375005,0.0,0
mp-560695,SrV2(NiO4)2,2.790499999999999,-2.183072297884616,0.0,0
mp-7118,Rb4SnO4,2.1562,-1.7873864933333332,0.0,0
mp-777529,Li2VF6,1.9224,-3.1318859189414816,0.0328294879629762,0
mp-570135,SnHg7(P2Br3)2,1.6483,-0.3371887879100528,0.0,0
mp-1027795,Mo3W(SeS3)2,0.5583,-1.1266078901302083,0.009827613333333,0
mp-778341,Li4Mn3Ni3(PO4)6,0.5587,-2.3340266577862856,0.0706907530624869,0
mp-569218,Ba3Al3Ga2,0.0,-0.3411873806250001,0.0,0
mp-585184,Mo2P3O13,0.8305,-2.42510577905754,0.0,0
mp-772116,LaMgI5,2.629299999999999,-1.26868064,0.0708464514285727,0
mp-559184,Zn2Si3Pb4SO15,3.4961,-2.3614484753125,0.0,0
mp-709186,K4LiH3(SO4)4,5.394,-2.174332182664643,0.0,0
mp-973684,LuMg3,0.0,-0.0218087737499996,0.0,0
mp-559766,Cs3LiF4,5.6548,-2.9405445287200003,0.0130737662499997,0
mp-1180,MnPt3,0.0,-0.3614854699999999,0.0,0
mp-37836,Al(HO)3,4.9076,-2.104275564944286,0.0323389475000004,0
mp-760804,Li2AgF4,0.0,-2.372504974251428,0.0686688021428585,0
mp-8724,K2TeO3,3.5774,-1.881236300625,0.0,0
mp-30590,LaCu6,0.0,-0.131484916428571,0.0,0
mp-764308,Li4Fe3Co3(NiO8)2,0.0,-1.5100239646428568,0.0512923758035714,0
mp-743618,CoPH6O6F,0.0,-1.7973297742336825,0.0122021541666681,0
mp-721075,Ga2P3H11O13,5.234,-1.786548817081232,0.0226215169827606,0
mp-769990,Li2TiCrO4,0.0,-2.6581153802083346,0.0826965045833274,0
mp-34116,Tm2MgS4,2.3768,-2.177017269464286,0.0959816066071441,0
mp-683600,K3Cr4PO16,2.7012,-1.9823672728373016,0.0208935699218741,0
mp-565771,CuMoO4,0.0,-1.629303555,0.0374692952083117,0
mp-20384,CeAgAs2,0.0,-0.7836938025000002,0.0,0
mp-685446,BaNb8O14,0.304899999999999,-2.845488354565218,0.0297582007608685,0
mp-22019,Yb3Sb5O12,0.0,-2.4146030375,0.0,0
mp-11670,BaYSi4N7,2.732699999999999,-1.4524844122430771,0.0,0
mp-972861,Sc2TlTc,0.0,-0.1815396912500002,0.0,0
mp-18702,AgPO3,2.0246,-1.977059104119048,0.0,0
mp-504506,RbIn(MoO4)2,3.9647,-2.1527586008333324,0.0,0
mp-685157,IF7,1.469099999999999,-1.46661811729125,0.248498128125,0
mp-1001918,HfC,0.0,0.3980027587499997,1.3415597750000003,0
mp-8540,NdRhC2,0.0,-0.2750489431249994,0.0663638574999998,0
mp-853156,V4(OF3)3,0.7861,-2.95759940621625,0.0076163221875065,0
mp-720222,Na3CaAl3Si3SO16,3.7823,-3.0547026023726858,0.0300511022048599,0
mp-27281,LiH3O2,4.741,-1.6205880205600005,0.0,0
mp-30775,PrMg2,0.0,-0.1033588949999998,0.0163516049999983,0
mp-861884,AcGaTe2,0.490999999999999,-0.9455679318750004,0.0,0
mp-722263,ZrH14C2(N4F3)2,4.6251,-1.2324054068341936,0.0645514103815063,0
mp-28591,Na4HgP2,0.036499999999999,-0.3570393880272107,0.0,0
mp-753156,La2Th2O7,2.9227,-4.101833737159091,0.0572474618181804,0
mp-155,Gd,0.0,0.0,0.0,0
mp-705365,Li2V(PO4)2,1.4738,-2.6448680354761898,0.0564825213461501,0
mp-761663,Li2CoP2O7,3.2618,-2.4836937274950395,0.0695272585069215,0
mp-744081,K6W2N4O3,2.0547,-0.9434191248846654,0.2648385648070208,0
mp-7917,HfGeSe,0.0,-0.9377778561979172,0.0,0
mp-566386,NaMo2P3O13,2.433099999999999,-2.489723585554512,0.005338248947396,0
mp-763356,Fe4O7F,0.0,-1.6374811495783337,0.1115430417187539,0
mp-761504,V5W3O20,1.163599999999999,-2.264349435357143,0.0510634642857112,0
mp-1020110,Mg2SiO4,3.8213999999999992,-3.1029510378571423,0.133044035357142,0
mp-20237,CoNiSn,0.0,-0.0060689449999991,0.1600015284259264,0
mp-676168,Ag8GeTe6,0.0,-0.0230323753333332,0.0401810210000004,0
mp-555570,BaCu(SeO3)2,0.5648000000000001,-1.7200521412187506,0.0214498667499984,0
mp-754767,Fe3(SnS4)2,0.0,-0.7268397801923083,0.1683882496153872,0
mp-644292,Eu2MgH6,0.2476,-0.5041030390799995,0.0,0
mp-756724,Lu2Nb2O7,0.0,-3.422956638068182,0.0989990432449232,0
mp-567609,AlSn2P(H3C)8,3.3878,-0.2263227387493126,0.1220599698611115,0
mp-22731,MnInNi2,0.0,-0.0923641125000003,0.0441038008333318,0
mp-607124,Dy5(In2Ni)2,0.0,-0.5307634743939399,0.0,0
mp-13926,Rb2NaYF6,6.4704,-3.5975593914640007,0.0,0
mp-28324,Sr3(InP2)2,0.5902000000000001,-0.8231029941534389,0.0,0
mp-752928,LiCoS2,0.0,-1.00431851453125,0.0818649378124964,0
mp-775437,V3P6WO24,1.1647,-2.592270117605043,0.0,0
mp-17448,Ba3CaIr2O9,0.0,-2.3878133910833337,0.0,0
mp-696485,Na2TeHSO5F3,3.4407,-2.2248606084617304,0.0161719824871786,0
mp-1018666,CeSi2Mo2C,0.0,-0.5023391429166667,0.0,0
mp-23092,Ba2TaBiO6,2.5855,-2.9660525532499995,0.0002795980000005,0
mp-2260,FePt,0.0,-0.2395568199999997,0.0,0
mp-698134,K2Na2Sb2H6O3F10,4.5674,-2.3524565464947997,0.0178802345666717,0
mp-675834,La3O2F5,3.5752,-4.239582380845,0.1280657156666667,0
mp-778703,Li4Mn3F10,2.996,-2.98213726998706,0.096275887941176,0
mp-781080,Fe4O5F3,0.0,-2.0100008037349997,0.0934632239062507,0
mp-559790,K2Nb3Cl7O5,2.2949,-2.4470728081805877,0.0,0
mp-764744,V2OF5,1.7698,-3.051067606525,0.0011231749999991,0
mp-6504,BaMg(CO3)2,4.084799999999999,-2.57449734625,0.0051527665000001,0
mp-756732,Rb3Sn4Au,0.568099999999999,-0.2263238849999997,0.1117652218749993,0
mp-1005760,Tl3Os,0.0,0.9782360975,0.9782360975,0
mp-764801,Li2Cu5F12,0.0,-2.079980670751579,0.0225399492105262,0
mp-770874,Na6Co2P(CO4)4,0.0,-2.0164316594170786,0.0363477982183617,0
mp-769025,K2Mg2O3,2.923,-2.2705644769642856,0.0278159185714272,0
mp-20408,InGaTe2,0.0,-0.2958167037499999,0.0386440198684212,0
mp-778821,Li3MnFe2(BO3)3,2.7687999999999993,-2.445587442067223,0.004508952314814,0
mp-976277,Nd(NiBi)2,0.0,-0.3193189445000001,0.0660704980000002,0
mp-559893,LiBi(PdO2)2,0.445999999999999,-1.3923941568749996,0.0,0
mp-645208,Sr2Co2O5,0.0,-2.193184933194445,0.0066824952777766,0
mp-771691,CaPbI6,1.7803,-0.7861626409374998,0.0802891365624991,0
mp-5334,YbSbAu,0.0,-0.8777388333333332,0.0,0
mp-1805,ErRh5,0.0,-0.2800134758333333,0.100999315000001,0
mp-766748,Li2VSi4O11,0.9102999999999992,-2.9671079646527785,0.0631043138889326,0
mp-13221,NdMg2Cu9,0.0,-0.1623169502083333,0.0,0
mp-24263,KP(HO2)2,5.2175,-2.240961328479404,0.0027308034375055,0
mp-766725,Zn3Co9O16,0.0,-1.4641790569642856,0.0335030492575194,0
mp-763999,Mn6O5F7,0.0,-2.4405634158522216,0.056450280347235,0
mp-853168,V3(O2F)2,0.5223,-2.681336735819999,0.0482724638889031,0
mp-15661,Sc4C3,0.326999999999999,-0.4843806046428573,0.0,0
mp-23068,NdBrO,4.481899999999999,-3.1184561529166666,0.0,0
mp-622511,In2Te3,0.0,-0.2768176442222221,0.0384806617777777,0
mp-973876,PaBi3,0.0,-0.0863663350000001,0.0111820212499997,0
mp-557773,Sc2TeO6,2.8859999999999992,-2.94213682601852,0.0,0
mp-771525,Li3MnPCO7,3.805099999999999,-2.4234758761773274,0.0602774923076809,0
mp-558455,Na4Li5(BO3)3,3.8255,-2.4500191152976183,0.0,0
mp-505787,Ba3FeO5,0.0,-2.549690468194445,0.0029248677777777,0
mp-570045,Sm3CuSiSe7,1.371399999999999,-1.3477688885546872,0.0,0
mp-722315,ZnH3CNO3,3.519,-1.3094306510544444,0.0147719797222309,0
mp-541811,Cs6K3GaSb4,0.6364999999999991,-0.4383759835714284,0.0,0
mp-8608,K(Cu2As)2,0.0,-0.1806281114285712,0.0,0
mp-998323,CsInBr3,0.0,-1.22544133,0.0,0
mp-4955,AlVCo2,0.0,-0.4145613749999999,0.0,0
mp-7988,Cs2O,0.585699999999999,-1.22047035375,0.0,0
mp-29260,Ti(SeO3)2,2.4445,-1.9899184740393523,0.0,0
mp-11903,LiEu2IrO6,0.0,-2.4360192427500005,0.0,0
mp-3882,Sm(SiRh)2,0.0,-1.1084167425000004,0.0,0
mp-19176,La2NiRuO6,0.0,-2.585036165750001,0.0040746695714251,0
mp-16484,Ce2Al2Co15,0.0,-0.1628605342105261,0.043224615688258,0
mp-675744,Yb4Zr3O12,0.0,-3.3134803786842113,0.0385759748684186,0
mp-558853,AsC3N3F8,4.0149,-1.5247239964439994,0.0567961664823313,0
mp-862706,BeCo2Ge,0.0,-0.3034579274999993,0.0,0
mp-1030102,Te4MoW3(SeS)2,0.0,-0.4825818479427089,0.0672936981250016,0
mp-763458,V2GaO5,0.4402,-2.4368414461979166,0.0021886350520841,0
mp-780889,LiMnP3HO10,1.2315,-2.4380215141478567,0.0491845080208328,0
mp-558078,Rb2NaFeF6,4.0722,-3.0199400722139997,0.0,0
mp-7168,TbPPt,0.0,-1.360649833809524,0.0,0
mp-29409,CIF7,4.6791,-1.8495375845366668,0.167998497288889,0
mp-23951,Cs(BH)3,4.3266,-0.3786412272657148,0.0504118524999981,0
mp-651847,GdGaGe2O7,2.8223000000000003,-2.601791130340909,0.0,0
mp-20121,UFeSi,0.0,-0.4550455475000017,0.0,0
mp-561067,KRb2FeF6,4.0965,-3.0061480697139995,0.0,0
mp-977556,MgScCd2,0.0,-0.2551288624999999,0.0,0
mp-865187,MgFeRh2,0.0,-0.29941774,0.0,0
mp-976368,NdAlPd,0.0,-0.8050257491666662,0.0,0
mp-9159,Li4NpO5,0.5886,-2.7872968565,0.0,0
mp-1018745,LaSbPd,0.0,-1.139383605,0.002731241666666,0
mp-1013878,LiV3P3O13,1.2862,-2.6818173352767856,0.0140608239999728,0
mp-770811,Si2As2O7,4.5533,-2.4766946714772726,0.0608960352272713,0
mp-541947,Rb2Th(PSe3)3,1.37,-0.7605093857752981,0.0,0
mp-560718,TeH12AuC4S3N,2.065,-0.3054838416139767,0.097875666459009,0
mp-505535,B8Ru11,0.0,-0.1423755630701748,0.0912958158771939,0
mp-1018825,NdPbAu,0.0,-0.5719377725000001,0.0327683616527769,0
mp-625821,Sr(H2O3)2,2.7961,-1.263587256998182,0.1148379472077927,0
mp-28160,Ca3C3Cl2,1.2768,-1.1601180217525,0.0,0
mp-676261,Y3NbO7,2.1545,-3.5134301242045467,0.245767747727271,0
mp-6814,AgCNO,2.8211,0.0588165513841663,0.7277040491966664,0
mp-776515,CeFeO3,0.6735999999999991,-2.9697351367499984,0.0650611549999986,0
mp-774324,Li6MnFe5(BO3)6,2.8479,-2.4258523403738903,0.0048888006018534,0
mp-7483,KHgF3,0.615899999999999,-2.222648034714,0.0,0
mp-554056,Ca2B5BrO9,5.2036,-2.988218097328432,0.0,0
mp-866620,Cs2MgP4(HO2)8,5.377099999999999,-2.2742655700432564,0.0,0
mp-22901,KI,3.24,-1.42593281,0.0697499449999998,0
mp-2850,B2Os,0.0,-0.2153566027777778,0.0,0
mp-862912,PmHgAu2,0.0,-0.5899561268749998,0.0,0
mp-21307,NaEuTiO4,0.0,-3.0976926516666667,0.0,0
mp-1008556,AlGaN2,2.6693,-1.1131028136899994,0.0155132500000005,0
mp-777528,Li3VF6,2.4757,-3.172364616214,0.0512365463333353,0
mp-559575,AsSe(IF2)3,1.3837,-1.6154837384757954,0.0062651707142875,0
mp-13765,Ce3Co11B4,0.0,-0.3799033403703697,0.0017981201388916,0
mp-989604,YMoN3,1.835999999999999,-1.113810652927998,0.0,0
mp-763020,Fe4OF7,1.9278,-2.5774013728816683,0.0461450066666628,0
mp-775447,Li4Ti2V3Cr4O18,1.5306,-2.574463944865591,0.0823171685967985,0
mp-505702,Pb2CO4,3.412699999999999,-1.7330587996428568,0.0,0
mp-22997,PbBrCl,3.437599999999999,-1.2289020360866665,0.0100038499999999,0
mp-756810,Sr3Ta4(O6F)2,3.2944,-3.5994722608276186,0.0159571483333369,0
mp-723419,Sb2S19F12,1.9711999999999992,-1.5221372079232578,0.0,0
mp-570577,SrAlSi4N7,3.580400000000001,-1.3702767707046162,0.0311373126923264,0
mp-770066,Na3NiBPO7,0.2089,-2.257026229116301,0.0201271340911191,0
mp-557009,ZnS,2.031399999999999,-1.139487690781251,0.0008156637499991,0
mp-5146,Zn(RhO2)2,0.9323999999999992,-1.3137265949999997,0.0,0
mp-850305,SrCaI4,3.713,-1.5876243958333334,0.0889219204166669,0
mp-16755,Mg(AlS2)2,2.014999999999999,-1.5441897437500007,0.0288016103571422,0
mp-2619,FeSb,0.0,0.0219729699999993,0.0399711599999994,0
mp-17153,Ba(TbTe2)2,0.785899999999999,-1.5484086738095235,0.0,0
mp-13599,NaSn2F5,3.7838,-2.7152414776187497,0.0,0
mp-643364,HPbClO,2.897,-1.5072226595325002,0.0,0
mp-17092,ScSnPd,0.0,-0.8488668122222225,0.0,0
mp-767871,Li3MnPCO7,4.0612,-2.4203266400234806,0.0634267284615273,0
mp-28383,KNaS,2.4851,-1.2992670688541672,0.0,0
mp-1020019,Li2PNO2,5.6015,-2.1874016313292075,0.0,0
mp-763520,LiPWO5,2.2083,-2.478367335855656,0.0231929503124952,0
mp-775453,Co3P6WO24,0.1457,-2.138890421428571,0.0581771210110311,0
mp-541827,Ba2Zn7F18,4.0535,-2.975909878015555,0.0,0
mp-20233,CaMnSn,0.0,-0.2437055749999993,0.1820945583333335,0
mp-777935,MnOF,0.022599999999999,-2.3386474177999994,0.0603027487499945,0
mp-11278,Ta2Be,0.0,-0.159338433333333,0.0,0
mp-775090,Li4Nb2V3Co3O16,1.467099999999999,-2.3859893514285706,0.0271816087351215,0
mp-559824,Au2Se3O10,0.9414,-0.9186377425520836,0.0,0
mp-998913,KO3,0.842,-0.6572271809375003,0.0764118134374998,0
mp-569624,HfCr2,0.0,-0.0991963491666657,0.0155843791666683,0
mp-28643,H9CN9,4.5312,-0.1975878236315786,0.1444830510905266,0
mp-2895,Mg2SiO4,4.6395,-3.2359950732142844,0.0,0
mp-14694,CaCuP2O7,0.6021000000000001,-2.6434522279491346,0.0,0
mp-866695,ReTeSeCl4,2.3069,-0.9363258913048216,0.0,0
mp-559962,SiO2,5.6777,-3.2589161172222223,0.0257967902777771,0
mp-558162,RbP(OF)2,5.1966,-2.9024853084125404,0.0,0
mp-18660,Sr(ScTe2)2,0.4482,-1.3716779782142854,0.0185990328571437,0
mp-689967,LiMn(PO3)4,1.6151,-2.501093297130053,0.0913614544444492,0
mp-850223,Fe3OF5,1.253699999999999,-2.546813204688889,0.0386373488888933,0
mp-675367,Nb3IrS8,0.0,-1.2713445822916671,0.0287426328125004,0
mp-764611,LiFe2(BO3)2,1.43,-2.353536611893939,0.0625467247159337,0
mp-18729,V2Co(PO5)2,1.5733,-2.496256230579365,0.0,0
mp-6189,CaCu(Si2O5)2,0.8497999999999991,-3.018921312499999,0.0294215860937505,0
mp-29509,Zn(AsO2)2,3.5391,-1.7051336703571427,0.0060197913095052,0
mp-569408,K(CoAs)2,0.0,-0.4032293459999998,0.0,0
mp-765602,Na5Ni9O16,0.0,-1.0510829471666665,0.0249718958333531,0
mp-29044,Cd4Sb2I3,1.1297,-0.3455077611111111,0.0,0
mp-754739,CaBe3O4,3.911499999999999,-3.101655054375001,0.0626364968749992,0
mp-5889,Er2Ti2O7,2.7016,-3.7967100810984857,0.0117586186363514,0
mp-3997,Sm(CuSi)2,0.0,-0.6011409284999999,0.0,0
mp-759981,NaCu(PO3)3,0.4566,-2.3819500998596936,0.0185785493750065,0
mp-975622,Rb2Al2Si3O10,4.6713000000000005,-3.1987362119117635,0.0177957073529455,0
mp-703316,LaMg2H7,2.605899999999999,-0.4417073227839996,0.0,0
mp-862331,La2CuRu,0.0,-0.1684179487500001,0.0,0
mp-744841,SiMo12H24C6N3O40,0.0,-1.4489567073723255,0.2333800209011603,0
mp-20630,Ho(MnSn)6,0.0,-0.1317067919230761,0.002802270897436,0
mp-919,HoTe,0.0,-1.2435958924999997,0.0,0
mp-708969,P2H24PdC12(BrN3)2,1.7182,-0.2175220207946899,0.2237692979475607,0
mp-28233,MnCl2,1.7923,-1.4806584221733334,0.0,0
mp-569752,UPt,0.0,-0.5391531125000011,0.0,0
mp-541756,Te2MoCl12,0.0057,-1.1487363488302218,0.00266759074074,0
mp-29187,Co(SiP)3,1.251599999999999,-0.3194936345408164,0.0,0
mp-973655,LuSiO3,0.0,-2.73235523275,0.8765454669999926,0
mp-3847,DyCoC2,0.0,-0.3463209279166666,0.0,0
mp-18745,LaMnSbO,0.0,-1.8404394218024995,0.0005448964266658,0
mp-14089,TlCuS2,0.0,-0.55744676453125,0.0011311034114589,0
mp-755184,Sm2Se2O,1.679699999999999,-2.603821619687499,0.0127524127500002,0
mp-569961,Sr8Mn2FeN8,0.0,-0.847455388896842,0.0191312807017567,0
mp-4123,ErTlS2,1.4109,-1.8209075870312503,0.0,0
mp-756389,Lu2TeO6,2.3933,-3.0366978563888885,0.0416777455555559,0
mp-626110,Mo2HO6,0.0,-1.8336539884577776,0.1079532020634941,0
mp-27731,HfH2,0.0,-0.5829356874133337,0.0,0
mp-761931,Na8SnO6,1.0551,-1.7070554994999998,0.004825099333332,0
mp-1563,CaSi,0.0,-0.5289462799999995,0.0,0
mp-10748,TaCu3S4,1.9231,-0.9528531245312504,0.0,0
mp-640566,Yb8Si11,0.0,-0.4694954721052631,0.0191782186842113,0
mp-707097,NaGdRe4(H2O5)4,3.1404,-2.061248799675294,0.0,0
mp-16035,Gd2TeO2,1.0708,-3.2077625465000015,0.0,0
mp-20822,TbMnSi,0.0,-0.5666789627777776,0.0,0
mp-616564,RbPbIO6,1.3654,-1.2656799047222225,0.0,0
mp-9420,Dy(CuO2)2,0.0,-2.088815144523809,0.0,0
mp-762162,MnVHPbO5,1.8768,-2.0459852109255547,0.0,0
mp-625082,H2CO,0.0228,-0.7669022427475003,0.2762228775000031,0
mp-34121,LiSbS2,0.0,-0.9956187757812512,0.0104631362499993,0
mp-565699,NaNiAsO4,2.782499999999999,-1.682367027857143,0.0,0
mp-752637,HoBrO,4.3862,-3.159853355416667,0.0293754216666659,0
mp-769600,LiV2S2(O4F3)2,1.1396,-2.4071595092244737,0.0510766324736753,0
mp-31187,TiAlFe2,0.0,-0.4524498841666675,0.0,0
mp-775640,Li4Ni5Te(PO4)6,2.9442,-2.153158543464285,0.0953142114062446,0
mp-1637,Re2P,0.0,-0.2957716668650789,0.0,0
mp-1025948,Mo2W(SeS2)2,0.634999999999999,-1.0673338259375014,0.0125825283333309,0
mp-17894,Rb3Sm(PS4)2,2.1861,-1.453144002227892,0.0,0
mp-19363,HgMoO4,2.2464,-1.609815889999999,0.0,0
mp-505677,Hg2MoO4,2.0389,-1.4140190317857144,0.0,0
mp-17757,Sr5Ge3,0.0,-0.5551189049999996,0.0025312637500003,0
mp-985562,Nd11In9Ni4,0.0,-0.4904141721874993,0.0,0
mp-675531,NaBiS2,1.089999999999999,-1.05419428578125,0.0,0
mp-756034,NaSmO2,3.9782,-3.04205954,0.0250060362499997,0
mp-637223,MnFeC5N6O,1.3475,0.1404699198935728,0.4727675349914282,0
mp-557379,P2H6C4N2Cl2O,2.9631,-0.4313219835553221,0.3079664151163248,0
mp-17827,Nd3SiAgSe7,1.448999999999999,-1.3403398043880212,0.0,0
mp-11576,YbTl,0.0,-0.4915421474999997,0.0,0
mp-861062,LiMnPO4,3.147999999999999,-2.607134208674558,0.0430240183333339,0
mp-7898,Rb3As,0.0,-0.2593113262499997,0.0,0
mp-997035,CuO2F,0.7835000000000001,-0.8748199834224994,0.0692016177343752,0
mp-556699,Na2PHO3,5.579899999999999,-2.17290581720932,0.0,0
mp-569405,B3H5,3.697,-0.1562188666374998,0.0118085811931809,0
mp-4731,K2UF6,0.065599999999999,-3.612904610793334,0.0207613816666585,0
mp-6179,KLiSO4,5.3221,-2.4159024862946428,0.0001891049999995,0
mp-30422,Sr7Au3,0.0,-0.5320741314999999,0.0,0
mp-21780,SmSi3Rh5,0.0,-0.9660892936111116,0.0,0
mp-767952,NaMnPCO7,0.915899999999999,-2.1885105507095672,0.0081153552272743,0
mp-1009539,OsC,0.0,1.3878214487499996,1.3878214487499996,0
mp-9251,TlTe3Pt2,0.0,-0.4328181349999997,0.0,0
mp-23690,CaH4SO6,5.6879,-2.075226917170209,0.0172691137499976,0
mp-18748,Co3O4,0.0,-1.4172226642857138,0.0,0
mp-778114,Sm2Ge2O7,2.5577,-2.986531453068182,0.0430788847727274,0
mp-676333,Ga11NO15,1.573699999999999,-2.117219954486296,0.0437716685185192,0
mp-775280,Li5Fe8(BO3)8,1.4565,-2.37416842562963,0.0439302078194474,0
mp-570634,Cd3As2,0.0,-0.0974445663749996,0.0014916851249999,0
mp-14890,Rb9Fe2S7,0.530899999999999,-1.2006602464409726,0.0,0
mp-764654,Li5Fe8(BO3)8,1.3898,-2.3769775765185197,0.0411210569305575,0
mp-766798,LiMnOF2,2.0584,-2.6342006764180006,0.0775215027500095,0
mp-542832,Ba3Lu4O9,3.1681,-3.661708721953125,0.0,0
mp-768952,Bi2B2O7,0.0,-1.6902379292803031,0.4163231308711985,0
mp-765047,Li(CoO2)4,0.0,-1.323032977692307,0.0423744313461549,0
mp-1018893,PrCuSn,0.0,-0.5677699116666665,0.0,0
mp-976742,MgPa3,0.0,0.2075165849999996,0.2075165849999996,0
mp-558587,V5O9,0.7882999999999991,-2.492535745267858,0.0126778067857191,0
mp-767916,Li2SiNiO4,3.5472,-2.3775262540624995,0.0176626840624996,0
mp-768292,Li2BiBO4,2.3079,-2.2420686517708326,0.0901802953125017,0
mp-559711,Rb2Na2SiO4,3.083,-2.351291084027777,0.0,0
mp-16988,SrCu2SnS4,0.397899999999999,-1.1106708859895835,0.0059266085416664,0
mp-743609,NiH12(BrO6)2,0.0,-0.5674062948496297,0.4695181495524698,0
mp-771662,Co5BiO12,0.0,-1.1041412794444452,0.0905963009490733,0
mp-10051,TeAs,0.0,0.1054253725,0.1179786541666665,0
mp-773981,K2Li2NiO4,0.012699999999999,-1.4345227016666664,0.0647901866666735,0
mp-542469,Gd2Si2O7,2.7790999999999992,-3.6318269989772745,0.0112667304545457,0
mp-546202,Li4CO4,4.177,-1.8734848536111108,0.3240240811111112,0
mp-769390,Ca3Ta2O8,4.2097,-3.4687109719230764,0.0306851235714145,0
mp-4309,BaGa4S7,2.58,-1.356594586119792,0.0,0
mp-17487,NaErGeO4,3.610699999999999,-2.905937012857144,0.0,0
mp-777447,LiFe2F7,3.4868,-2.7673856783330004,0.0987953921111328,0
mp-42190,K2NaTiOF5,3.9585999999999992,-3.344237142386666,0.0,0
mp-569450,LiB6C,1.392199999999999,-0.245045399687501,0.0,0
mp-851016,LiFePH2O5,3.4895,-2.168799585033524,0.034554327875008,0
mp-861659,Li2Si3Ni3O10,3.7239,-2.349223815416666,0.031701396805543,0
mp-570695,CdI2,2.3516,-0.591064301111111,0.0010726974444446,0
mp-27835,K2OsBr6,0.0,-0.8919503938888885,0.0,0
mp-28295,CsIO3,3.091199999999999,-1.3955319447500003,0.0,0
mp-865030,HfScRu2,0.0,-0.7281388087499998,0.0,0
mp-703515,CaCuSiH2O5,0.121999999999999,-2.306624917848999,0.0317321512500008,0
mp-555779,ZnS,2.0195,-1.13997409296875,0.0003292615624999,0