mpid,formula,BG,FE,e_hull,fidelity
mp-756245,BaYI5,2.1035,-1.4966914475000002,0.0982699180357156,0
mp-778071,BaYF5,6.5296,-4.290663559064287,0.0732146842857179,0
mp-764769,Li4VF7,2.6044,-3.141725227360834,0.074755774444438,0
mp-1029491,CsCoN,0.0,-0.1060655374599992,0.0900529633333322,0
mp-695892,KH(IF6)2,4.4279,-2.15844891549375,0.0,0
mp-1027395,Te2Mo(WS2)3,0.0,-0.9158338361979178,0.0995999450000013,0
mp-18203,KGe2(PO4)3,3.6226,-2.4998295774603183,0.0,0
mp-972741,Si3P,0.0,0.5485536704761902,0.626708736875,0
mp-4929,KBF4,7.9327,-3.3242271927377764,0.0,0
mp-770704,Li2AlFeO4,3.0421,-2.561182935,0.0252739646874999,0
mp-693132,ZnGaP2H4NO8,3.615,-1.9663991934147336,0.0462992093382377,0
mp-760432,Cu2O3,0.1238,-0.8343749057500005,0.0085445390000025,0
mp-755049,Li3Cu3(PO4)2,0.802,-2.075793647886904,0.0927754514062515,0
mp-772874,CaBi2O5,0.0,-1.9544043003645832,0.0305798180729173,0
mp-762429,LiV2(CO3)4,0.5413,-1.9887733057894736,0.0984659800000127,0
mp-622930,Ba4In6O13,0.4417,-2.328600349402175,0.0235892265217385,0
mp-762680,Li2Fe3P9O28,2.6415,-2.523072598282313,0.0517212650198359,0
mp-10552,RbBSe3,1.6415,-0.5530718809895838,0.0019054157500031,0
mp-767408,Na2PRuCO7,0.0,-2.083484657862104,0.0612034656250015,0
mp-850747,LiFe2P2HO8,3.255099999999999,-2.3320560062364635,0.0644533330357157,0
mp-555763,ZnS,2.0639,-1.1377861378645833,0.0025172166666669,0
mp-763251,CoP4O11,3.1738,-2.4526412925706853,0.0,0
mp-975079,MnZn3,0.0,-0.0114341962499997,0.0089757525000062,0
mp-761540,Co3SbO8,0.0,-1.3443213008333323,0.0570339571874996,0
mp-675882,Dy2TiO5,2.7184,-3.708266118031252,0.1974055008749964,0
mp-772457,CrNi(PO4)2,0.0,-2.1885330385714297,0.0902634194444571,0
mp-772281,Mn5Co(PO4)6,0.0,-2.3439906914825404,0.0613410624305448,0
mp-633538,B9C,0.0,0.3085797542500003,0.3630168948333328,0
mp-3592,KAuS5,1.7571,-0.8101805550446437,0.0,0
mp-1027281,MoWSeS3,0.495,-1.0979347776302089,0.0279346191666665,0
mp-10706,ZrRu3C,0.0,-0.3249142824999993,0.0,0
mp-560845,Cu2As4S3Cl2,1.4078,-0.5525178021552274,0.0300180783333336,0
mp-1018725,HoFeSi,0.0,-0.6457443666666656,0.0,0
mp-767925,VPH5O7,1.8483,-1.904077735888944,0.0518888908928545,0
mp-567672,Na2VOF4,2.9353,-2.9787219723137497,0.0011889018750048,0
mp-767199,LiMn3OF5,1.8939,-2.7598497795080013,0.0688150619999996,0
mp-25716,CaNiBP2H3O10,4.3565,-2.386666811734285,0.0065892433333329,0
mp-30953,GaBr3,3.347299999999999,-0.8380475000000001,0.0,0
mp-558934,Hg3ClO,1.1735,-0.6000489597353335,0.0044512848333333,0
mp-690566,NaCo2H3(SeO5)2,0.2195,-0.8651996672526394,0.5538052505709894,0
mp-661,AlN,4.039,-1.5946309011899995,0.0,0
mp-998866,C,0.0,2.7543951425,2.7543951425,0
mp-29589,Ta3(Se4Br3)2,0.0,-0.703302210220589,0.0,0
mp-698313,Rb2CuH4(C2O5)2,0.5337000000000001,-1.5892607308085704,0.0688368072619036,0
mp-995202,HC6,0.0,0.0135304637685718,0.0808914241964249,0
mp-776752,Li4Mn2Fe3Sb(PO4)6,1.109899999999999,-2.4596124476372863,0.0827839132875247,0
mp-849409,V4(OF3)3,1.2401,-2.95834571590375,0.0068700124999869,0
mp-849400,Co2OF3,0.0,-2.002706787886668,0.0740150918749984,0
mp-706328,Ba3DyUFeO9,1.4773,-3.099014029527779,0.1416891390713903,0
mp-559903,NaLa(SeO3)2,3.5572999999999992,-2.19727150646875,0.0,0
mp-983602,CdAg2Au,0.0,-0.0715614537499997,0.0189076719444445,0
mp-600028,SiO2,5.5863,-3.2710605327083337,0.013652374791663,0
mp-557006,Na2SbSO4F3,4.4339,-2.4860467331938643,0.0,0
mp-644419,LiHS,3.5253,-1.0413796517275002,0.0002476587500002,0
mp-3566,Ce(SiRu)2,0.0,-0.8832147079999999,0.0,0
mp-755206,Ca2Ti6N2O11,1.988299999999999,-3.1637205618338102,0.0726589289314247,0
mp-18132,K4SnSe4,1.7396,-1.033213046319444,0.0,0
mp-561118,ZnS,2.0338,-1.1396020501562498,0.0007013043750001,0
mp-560320,KBa2(PO3)5,5.1425,-2.9357224725750513,4.062402173410362e-05,0
mp-861538,Li2VO2F,1.814,-2.614699311864999,0.1048396212499973,0
mp-765238,Li4V3OF11,2.1408,-3.1340008557547367,0.0315978659649065,0
mp-20642,NdMn12,0.0,0.0557791486538482,0.0557791486538494,0
mp-770046,Li4Cr3NiO8,0.323399999999999,-2.15104097875,0.0092927206250008,0
mp-10203,Ta5Si3,0.0,-0.5044980968749986,0.1102467249999996,0
mp-1711,Er3Ge4,0.0,-0.7687991414285713,0.0,0
mp-644802,C17F5,0.9742,-0.3274466091909083,0.2973046085511361,0
mp-773242,Li3V3CoO8,0.8013999999999991,-2.2801404933333327,0.1004688213333384,0
mp-569876,LiMgVO4,3.4825999999999993,-2.674805280714285,0.0,0
mp-621730,Cs2NaCoF6,0.0,-2.740432457214,0.0,0
mp-541566,K2MgB12(H2O3)10,5.5415,-2.1923140743061533,0.007637619519234,0
mp-759234,Li3CuF6,0.929999999999999,-2.615102372464,0.0016185285833349,0
mp-781646,Tb2TiO5,3.163299999999999,-3.844702605885416,0.0515925815625006,0
mp-760410,BePO4,0.0,-2.5568524230158727,0.0608154730208285,0
mp-865731,Li2HgPd,0.0,-0.4183386075,0.0,0
mp-30752,La2Mg17,0.0,-0.066901017631579,0.0,0
mp-568927,AgI,0.9588999999999992,-0.1791335575000001,0.1045647074999998,0
mp-17825,Sr2SiO4,4.376799999999999,-3.430196566428572,0.009033851428585,0
mp-29519,KAuI4,0.3003,-0.55412934125,0.0005435700000009,0
mp-1029016,Te2MoW3(SeS2)2,0.0,-0.7847796711197917,0.0546102975000017,0
mp-11560,TiSiRu,0.0,-0.8779029033333328,0.0,0
mp-578618,NaMoO2,0.0,-1.985959346875001,0.0,0
mp-16526,AlPt2,0.0,-0.8611489191666664,0.0015399508333384,0
mp-695164,Ba8Ce7YHO24,2.0843,-3.5018982831980487,0.0187026430335404,0
mp-672231,La3Ge3Br2,0.0,-1.246340901875,0.0,0
mp-772690,Li3Mn4CoO8,0.0,-2.0256943089899995,0.0094059709375002,0
mp-777007,Ni(IO3)2,3.0322,-0.9003389247222225,0.0,0
mp-770402,Li3B2SbO6,3.119999999999999,-2.4552300892361103,0.0403497333333371,0
mp-675326,Nb4IrSe10,0.0,-0.6925403363958338,0.0450641508333342,0
mp-605374,CsU2H3(C2O7)2,2.0856,-2.267296146806668,0.0442542012065931,0
mp-978268,MgZn,0.0,-0.0781259549999999,0.0325631454000001,0
mp-572797,Cs2IrF6,0.0,-2.5070131941266665,0.0,0
mp-26835,Li3Bi5(PO4)6,4.0023,-2.459784955883458,0.0401952010526365,0
mp-11722,PrGe2,0.0,-0.6201248466666662,0.0418789491666657,0
mp-775618,Li2TiV5O12,0.6604000000000001,-2.578037578083334,0.0887634229583156,0
mp-9726,SrBeF4,7.5245,-3.9399452528766665,0.0,0
mp-31257,Mo15S19,0.0,-1.0108397756525738,0.0841433645588232,0
mp-23685,CaH2(CO2)2,4.6455,-1.83500679011,0.128301805138892,0
mp-1025836,Te2MoW2(SeS)2,0.4127,-0.5925129894791673,0.1054307938888872,0
mp-504354,LiBi(PO3)4,5.1177,-2.583248444021164,0.0,0
mp-697136,Be(HO)2,5.4038,-2.069681699448,0.0108788119999996,0
mp-773979,Cr(SO4)2,0.0,-1.9117956625568189,0.06188302876894,0
mp-853194,Li2Mn3(BO3)3,0.3676,-2.4694234064194123,0.0481032573039037,0
mp-777238,Mn8O13F3,0.0,-1.985300903020833,0.0459110273437541,0
mp-861961,TiZnRh2,0.0,-0.7741661579166665,0.0,0
mp-775045,MnNb(PO4)2,0.0458,-2.6609451001792066,0.0957743655833329,0
mp-12374,CeSnRh,0.0,-0.8854676172222224,0.0,0
mp-14565,K3P6N11,3.9959,-0.8252307681125721,0.0,0
mp-779940,Li4CoO4,1.186599999999999,-1.7973760643055552,0.0805637289537077,0
mp-1016830,MgTiO3,1.5962,-2.929011278083334,0.4549503910000006,0
mp-775767,AgAsO3,0.5616999999999991,-1.2497175757500003,0.0120799167500003,0
mp-686836,MgTiNb2(PbO3)4,2.379,-2.5327214515833334,0.0004889554375013,0
mp-642706,H4S(NO)2,5.2993,-0.9393772062002784,0.1108611164273049,0
mp-705083,NaFe2(MoO4)3,0.8429000000000001,-2.0590116736111104,0.0073809284027639,0
mp-753175,SrH2(SeO3)2,4.1695,-1.7771480288115908,0.0087372606818254,0
mp-1651,Th2Al,0.0,-0.2341957100000004,0.0,0
mp-6219,K3Co(CN)6,4.3253,-0.3001509677674994,0.0705205123046877,0
mp-764592,LiFe2OF3,2.6416,-2.4723181099742857,0.0868280607142857,0
mp-777480,Li2Ti3MnO8,1.442199999999999,-3.073084160425713,0.0333374541071478,0
mp-555976,Na2TiSiO5,3.2081,-3.0138961028240736,0.0026605324999549,0
mp-764617,LiFe4(BO3)4,1.5443,-2.331487273412697,0.0681685820238104,0
mp-699317,Na2H6C4O7,2.7221,-1.3284407050247378,0.1495070972368406,0
mp-567505,SiC,1.7772,-0.2053490743750004,0.0002277102083327,0
mp-22037,Cu6PbO8,0.0,-0.7932166266666665,0.2554884453333299,0
mp-868170,Ba(WO3)6,0.0,-2.301748918300001,0.0,0
mp-561722,CsTmCoS3,0.0,-1.6303089470312504,0.0723000743055566,0
mp-862318,LiAl2Ni,0.0,-0.4661095099999999,0.0,0
mp-16534,BaSm2FeS5,0.0,-2.054412501701389,0.0413209450000007,0
mp-542428,Ba11Sb10,0.0,-1.0072058778571429,0.0010092866496602,0
mp-13774,NaNdSiO4,4.4774,-3.307715562857143,0.0,0
mp-557829,Lu2Te5O13,3.0335,-2.2210164233125007,0.0,0
mp-764110,Co2OF3,0.0,-1.99097047872,0.0857514010416649,0
mp-30145,Rb2Bi8Se13,0.5777,-0.52562127529212,0.0,0
mp-27773,H5IO6,2.3706,-1.0787328096333342,0.0155684046874995,0
mp-780625,Tb5O9,0.0,-3.4874116912797626,0.0857742875892864,0
mp-15939,SrAl2B2O7,4.6511000000000005,-3.2790588193402783,0.0009644633333323,0
mp-542915,TiAl3,0.0,-0.3973738641666671,0.0,0
mp-997162,MnAgO2,0.0,-1.4047382371149988,0.0350699887500001,0
mp-655086,Nb2Br5,0.0,-0.6854676164285719,0.2281747652678563,0
mp-1003637,LiMn3O6,0.325699999999999,-1.9767735710379997,0.0241103106249962,0
mp-764633,V2OF5,1.537599999999999,-3.0106717559,0.041519025624999,0
mp-11990,Pr2CdNi2,0.0,-0.342797796,0.0,0
mp-754480,GdYO2,0.0,-3.2182784275,0.088363061041667,0
mp-4743,ErTiGe,0.0,-0.6961457838888876,0.0,0
mp-16919,Y2HfS5,1.2263,-2.295383199414063,0.012287539791667,0
mp-767045,Li2MnO2F,2.1464,-2.4636249441083327,0.0355883624999968,0
mp-761449,Li4Mn3Cr3(FeO8)2,0.619699999999999,-2.11278823796,0.0209754120888607,0
mp-22538,Li8PbO6,2.3403,-1.985816157166667,0.0009493466666654,0
mp-1016853,CaVO3,0.0,-2.8059822147500006,0.1308550505000374,0
mp-1023124,Co2MoS4,0.0,-0.6710706737500008,0.3439079423809508,0
mp-10183,MgSbPd,0.0,-0.6244165583333334,0.0,0
mp-690516,Sr2Co2O5,0.6818999999999991,-2.145845099583334,0.0540223288888874,0
mp-25638,Li3VPCO7,2.832999999999999,-2.442133754949633,0.0686455556490361,0
mp-755552,LiYS2,0.3767,-2.1097755601562507,0.0755835774999997,0
mp-20481,MnSnPd2,0.0,-0.4104316737499998,0.0,0
mp-558672,Si3Bi2O9,3.5103,-2.725928380089286,0.0119726830357151,0
mp-981512,YbLuPt2,0.0,-1.2140626674999997,0.0,0
mp-770007,LiCoBO3,2.7586,-2.231175543819445,0.0471968941666691,0
mp-864893,NdAgHg2,0.0,-0.3644162043749999,0.0,0
mp-555137,K3SbN3(O3F)3,3.0785,-1.7660213340505262,0.0294946128947559,0
mp-13073,PrNiGe3,0.0,-0.5947212489999998,0.0023880140000001,0
mp-754157,AlInO3,2.1581,-2.6983670767500008,0.0348233219999984,0
mp-770496,Mg2Mn3O7,0.5144000000000001,-2.3170002259691658,0.0394339366666773,0
mp-1009696,RhC,0.0,0.5613610512499996,0.5613610512499996,0
mp-756519,Li(ReO3)4,0.0,-2.143825863823529,0.0308424849019619,0
mp-7013,Ho2Be2SiO7,5.0869,-3.605324431562501,0.0,0
mp-754768,Tb2Pt2O7,1.3893,-2.4655200109469706,0.0,0
mp-30913,ErCoSn2,0.0,-0.3451151937499999,0.0715608647916665,0
mp-542151,V2Ni3O8,2.570799999999999,-1.7452244219230768,0.0,0
mp-762638,LiFeSiO4,2.1283,-2.5273707373214287,0.0946464162499936,0
mp-11580,TiCrP,0.0,-0.9570645982539692,0.0,0
mp-774557,Er2TeO6,3.012699999999999,-3.0550801386111117,0.0,0
mp-865809,TiTc2Sb,0.0,-0.3524766004166686,0.0,0
mp-765597,HS2IO8,2.766499999999999,-1.5598612753537502,0.0,0
mp-773612,Li4MnFe3(BO3)4,0.062199999999999,-2.4355449380261116,0.0048738296527774,0
mp-772781,Lu2B4O9,5.780299999999999,-3.2979229281944447,0.0403250370416632,0
mp-705540,NaMn2Mo2H3O10,0.5825,-1.7046440191822223,0.2561978265972122,0
mp-27267,ReP4,0.7559,-0.3269121599761903,0.0,0
mp-764629,Rb3NaV4H2O13,2.9785,-2.2736195464560875,0.008185605543475,0
mp-1027119,TeMoWSe2S,0.0,-0.6116737177083339,0.0792910166666667,0
mp-722896,Mg7Si4(HO8)2,3.8438,-2.9569899214565516,0.0951521731992324,0
mp-766799,Co9Cu3O16,0.0,-1.1974157314285705,0.0841219244642879,0
mp-861551,LiFeSiO4,2.6311,-2.5515597467857143,0.0704574067857075,0
mp-18678,Nd2Ge5Rh3,0.0,-0.8194787700000006,0.0,0
mp-10409,Ba4Nd2Cd3Se10,1.5191,-1.5553384332072375,0.0024219346052634,0
mp-10566,Lu3BC3,0.0,-0.4971628098809516,0.0,0
mp-30613,ErSn2,0.0,-0.555017718333333,0.0,0
mp-11607,Si3N4,4.026700000000001,-1.2127480556457146,0.0996267564285702,0
mp-698569,Li21Mo11O32,0.0085,-2.19071967109375,0.0138247106445357,0
mp-778575,Li4Co3(NiO4)3,0.0,-1.4067676429545453,0.0165946201515128,0
mp-769049,BaLaCl5,3.785,-2.810944757328571,0.0830616692857164,0
mp-38494,Y4AsSe3,0.0,-1.752270166347656,0.0,0
mp-23522,BaZnCl4,4.5948,-2.2449621330066667,0.0065181858333343,0
mp-581749,CsTm2Cu3Se5,1.247299999999999,-1.1067097484517043,0.0,0
mp-28116,TiCl2,0.0,-1.7876004443955555,0.0543913451388924,0
mp-9605,Hf3Si3Ni2,0.0,-0.8784888518749998,0.0,0
mp-1209,RbAu5,0.0,-0.188590231666667,0.0,0
mp-777787,HoAsO4,3.667799999999999,-2.7990027962499995,0.0693197229166697,0
mp-552028,Nd2Ti2S2O5,0.825299999999999,-3.318650603882574,0.0,0
mp-983228,SrEu2Al2O7,0.0,-3.317618758229166,0.0102293906249979,0
mp-5974,La2Si2O7,4.651299999999999,-3.680129201363637,0.0084334578409439,0
mp-1519,CaTe,1.5535,-1.64081599,0.0,0
mp-560340,La2Pd2O5,1.1382,-2.5813736573611106,0.0,0
mp-565901,RbPr(MoO4)2,3.8472,-2.5948046408333325,0.0,0
mp-21597,Ce3(GeRh)2,0.0,-0.8538344210714277,0.0,0
mp-697701,LaP3H8O7,4.8244,-1.7317780343155638,0.0383630729773454,0
mp-863737,Ho3In,0.0,-0.2704441962499997,0.0,0
mp-770913,Cr2PO5,1.1185,-2.4266257017931547,0.0523266192708327,0
mp-30274,AcBrO,4.241,-3.2350047962500006,0.0,0
mp-761784,Ba8Bi10O27,0.0,-2.0987804774166663,0.0825352603888811,0
mp-19736,EuTe,0.0,-1.4475915924999994,0.2507536650000013,0
mp-559534,Ba5Al2In2IrClO13,0.0,-2.7127399203962503,0.0,0
mp-743869,VH2SeO5,2.2226999999999992,-1.6657730907870842,0.0254440997222227,0
mp-762239,Mn(CO3)2,1.255699999999999,-1.6986768342733338,0.093979491388886,0
mp-562607,AlPO4,0.0,-0.4203450166269849,2.7181201338888927,0
mp-770678,Li2Cr2O7,2.4367,-1.8936228512499995,0.0187604015530329,0
mp-863739,ErCdRh2,0.0,-0.6011823674999999,0.0,0
mp-767069,LiVSiO4,2.638499999999999,-2.760605510714286,0.0915683058035687,0
mp-774414,Ti3Mn(PO4)6,0.0,-2.755048457633277,0.0347737630514721,0
mp-775040,Li2MnSnO4,0.0,-2.15096777262,0.0278985771874999,0
mp-6453,K3Nd(Si2O5)3,4.1357,-3.18713612885,0.0,0
mp-1008505,BaPd,0.026799999999999,-0.5397468850000005,0.0,0
mp-561205,AgC4OF9,2.3671,-1.655942828797334,0.1717703854583314,0
mp-772918,Sr3TeO6,2.5037,-2.7126814338750003,0.0534618588749964,0
mp-8272,Yb2MgS4,0.0,-1.6444780766071436,0.3941037335714261,0
mp-866651,KSiBiS4,2.0549,-1.172547680178572,0.0,0
mp-557395,LiC2S2N(O2F3)2,5.9283,-1.7638241287590637,0.2171657163278109,0
mp-30830,V3Pb,0.0,0.2502153424999997,0.2502153424999997,0
mp-24096,NdH2,0.0,-0.7240594182466668,0.0,0
mp-779199,V3OF11,1.8997,-2.9135139572893327,0.0104728884999945,0
mp-696673,Cr7Se8,0.0,-0.4071173699166659,0.0563763902222227,0
mp-36508,SnHgF6,2.4352,-2.4299216002675004,0.0,0
mp-557517,Tb3CuGeS7,1.7968,-1.8325172102864589,0.0,0
mp-20910,LaGe3Ir,0.0,-0.7235501790000001,0.0,0
mp-504818,MoPO5,2.4078,-2.4070430913350336,0.01322889642854,0
mp-1029775,BaMnN2,0.0,-0.8564851286899993,0.0,0
mp-673834,Mg5(AlSe4)2,1.1317,-0.8349433465833334,0.2819071693333335,0
mp-530748,MgAl2O4,4.1392,-3.3618280466071417,0.026997388392858,0
mp-23319,RbVCl3,0.0,-1.855886287956,0.0,0
mp-3494,CeGa3Pd2,0.0,-0.7116402650000003,0.0,0
mp-600226,MnH12(C2N5)2,0.0,-0.0820855563792585,0.2746319693740764,0
mp-753799,CsTmO2,2.778399999999999,-3.023704804374999,0.0082407153125005,0
mp-561074,H14RhC6NClO4,1.7589,-0.6943890466229626,0.1506974456018532,0
mp-999543,MnCo3,0.0,0.0577334850000008,0.0611566725000001,0
mp-11605,KTb2CuS4,0.9948999999999992,-1.9981204003645845,0.0,0
mp-984629,Cr3CdTe4,0.0,-0.0085103406250004,0.2374458890625002,0
mp-973986,Ho,0.0,0.0037581949999996,0.0037581949999996,0
mp-755374,Sm2TeO6,2.5849,-2.8951683386111116,0.0993777558333475,0
mp-974417,Re3Sb,0.0,0.6373852499999995,0.6373852499999995,0
mp-31493,RbGa3,0.147199999999999,-0.1553426641666666,0.0,0
mp-753890,Ni2H,0.0,-0.0506138795400001,0.0231774099999997,0
mp-5985,HoTaO4,4.073,-3.759845789166666,0.0,0
mp-1027149,Te2Mo3W(Se2S)2,0.0,-0.6605178502083339,0.0580654625000001,0
mp-761607,Li2Si6Ni3O16,3.410999999999999,-2.5991967429629628,0.0838040081481521,0
mp-676637,Na2UI6,0.0,-1.013786814722222,0.0355583119444444,0
mp-780258,Na5LaO4,2.0012,-2.0598658048750003,0.0341966396250006,0
mp-1028490,Te2MoW3(SeS2)2,0.0,-0.7622802261197918,0.077109742500002,0
mp-622198,Ti3(BiO3)4,1.6328,-2.524889110789473,0.0396266507894456,0
mp-675215,Mg2SiO4,3.429999999999999,-3.01244591392857,0.2235491592857137,0
mp-30640,Tm2Fe17,0.0,-0.0282484594736849,0.0174797684210528,0
mp-776432,Na2LiCuPCO7,0.234199999999999,-2.160397128795788,0.0396254791987216,0
mp-571464,RbPSe3,1.122999999999999,-0.5279254467752977,0.0,0
mp-30363,BaAu2,0.0,-0.7414174233333329,0.0,0
mp-755624,Ca2PrO4,0.0,-3.133416708571428,0.098390567410715,0
mp-30305,Sr11Bi10,0.0,-0.8544716683333333,0.0,0
mp-759680,LiSi2BiO6,3.6346,-2.7500425207499997,0.0376520128749966,0
mp-13161,ZnO,0.0,-1.0815850131250002,0.7156843024999988,0
mp-570363,LiSi,1.3839,0.008617444375,0.2064421300000001,0
mp-558498,ZnGaNO,0.0,-1.1545769274700002,0.0753583434374984,0
mp-639662,CrF5,1.3584,-2.3304720197416664,0.0,0
mp-1029248,Te2Mo(WS2)3,0.0,-0.9160573695312508,0.0993764116666682,0
mp-775432,Li2V3TeO8,1.1921,-2.2367473753571425,0.0778118524234692,0
mp-764678,LiFe2(BO3)2,1.8209,-2.367972158939393,0.0481111776704805,0
mp-779738,Hf2N2O,2.0681,-2.546294255952,0.0037035637499958,0
mp-542879,Nd12Ni6Sn,0.0,-0.3073750281578946,0.0,0
mp-765537,Li3NiO2F,2.6784,-1.9698757294557137,0.0931016646428579,0
mp-775989,CrFe3Sb2(PO4)6,2.286099999999999,-2.410668199682539,0.0298605551388897,0
mp-864646,ErAgHg2,0.0,-0.3190775662499998,0.0,0
mp-777674,LiFeF4,3.6467,-2.87779803371,0.0499487714351944,0
mp-541916,Rb2Ag(AsSe2)3,1.3497,-0.4711857509635416,0.0,0
mp-569273,Mg44Ir7,0.0,-0.2062632122549017,0.0,0
mp-764406,Li2Fe3CuO8,0.0,-1.6053834542857146,0.0777016063392883,0
mp-21290,HoInPt,0.0,-1.0093014305555543,0.0,0
mp-778194,Ge2N2O,2.413999999999999,-0.7976696312019989,0.0351082719999995,0
mp-1003320,CaMn4O8,0.3224,-2.141887125103077,0.0573078551442307,0
mp-754519,LiNb(TeO4)3,1.5556,-1.8117305661764715,0.0086761857352932,0
mp-26247,Li5Cu(PO4)2,1.7933,-2.536517532574404,0.0314481170312506,0
mp-756018,BaMgO2,3.1592,-2.912154945625,0.0374159275000005,0
mp-863690,Ti2MnCo,0.0,-0.3802057783333339,0.0,0
mp-27436,PaCl5,2.4189,-2.3262987043833334,0.0,0
mp-765968,LiNiP2O7,0.0,-2.210474739540042,0.0970034420265202,0
mp-571468,Ho3CuSiSe7,1.5893,-1.2985282741796873,0.0071693601041671,0
mp-17207,Tl4GeS4,1.9009999999999991,-0.7096014706944449,0.0,0
mp-972274,Tm2ZnHg,0.0,-0.3992560162499999,0.0130118349999999,0
mp-542565,Nd3Sb5Pd6,0.0,-0.8897969301785723,0.0,0
mp-722342,NaCa2B9(H2O5)4,5.1407,-2.5084203282865003,0.0060097491041695,0
mp-779105,Cu6OF11,0.0,-1.708209337741111,0.0140382951215265,0
mp-10417,KSbO2,2.008199999999999,-1.900366661875,0.0,0
mp-774479,LiCa2Ta3O10,2.1736,-3.328354560781249,0.0658326735565424,0
mp-9930,UPSe,0.0,-0.9699653522296632,0.0,0
mp-2072,KTe,0.6627000000000001,-0.84011011125,0.0,0
mp-978815,Sm2TlZn,0.0,-0.33617051375,0.0164801037500001,0
mp-765906,Co2NiO6,1.1087,-0.9263874186111116,0.0452925599074083,0
mp-762381,Li4V11O22,0.864599999999999,-2.426377096148648,0.0874574136035981,0
mp-20714,FeSb2,0.0,-0.0239975866666668,0.0,0
mp-639138,EuSeClO3,0.0,-2.1401472859339585,0.0,0
mp-765063,Li2VFeP2(HO5)2,1.4812,-2.4241174155146563,0.0,0
mp-11917,Mg(BeN)2,4.0657,-1.1996054189519996,0.0,0
mp-772451,Li2Mn3(PO4)3,0.449099999999999,-2.530052839108285,0.0624065246250014,0
mp-555866,K6Be4C6O19,4.8084,-2.340174386392857,0.0,0
mp-676586,Na(VS2)2,0.0,-1.349767410178572,0.0158006701190362,0
mp-761532,Bi17W3O34,2.0217,-1.75996570050926,0.038196430308643,0
mp-764399,RbCrH4(C2O5)2,3.1132,-1.6942614053489988,0.0192582846249997,0
mp-760513,La2UO6,1.6446,-3.9053579163888887,0.0,0
mp-570089,CdI2,2.395299999999999,-0.5920225494444442,0.0001144491111113,0
mp-756104,Ge11N11O5,0.0,-0.6412624439788875,0.1467227116666665,0
mp-764687,LiVOF3,1.2543,-2.962019950803334,0.0346507892063572,0
mp-18628,Dy5B2C5,0.0,-0.4361268168055557,0.0,0
mp-27649,BaU2O7,2.0533,-3.650301372875,0.0098206065000017,0
mp-27478,Na3PaF8,4.2399,-3.6693299320433344,0.0,0
mp-756241,PrBiO4,0.748899999999999,-2.4214691241666664,0.0,0
mp-6745,LiGa(SiO3)2,4.2722,-2.90365452775,0.0413445988333345,0
mp-567210,TbInAu2,0.0,-0.7144637183333336,0.0,0
mp-566034,KNd(WO4)2,3.8022,-2.660644587708333,0.0,0
mp-14815,TaTe5Pt,0.0,-0.3643613278571424,0.0,0