mpid,formula,BG,FE,e_hull,fidelity
mp-13525,HoInIr,0.0,-0.7068554561111102,0.0,0
mp-23819,Al2P2H9NO11,5.2559000000000005,-2.1022873111960183,0.0090273512714338,0
mp-763284,FeOF,0.0,-2.199654428313333,0.0810295174999993,0
mp-1030453,Te6Mo3WSe2,0.0079,-0.3004853214322918,0.0423151608333327,0
mp-687011,Ba7Ca2Mn5O20,0.7955000000000001,-2.6100332852882357,0.0,0
mp-541324,Sr2ErGaCu2O7,0.0,-2.513032119903846,0.0256304036057768,0
mp-12665,Be12Ag,0.0,0.1120837623076925,0.1120837623076926,0
mp-1566,SmFe5,0.0,0.002426112916666,0.0024261129166669,0
mp-1186,ZrS2,1.0478,-1.9611658827083336,0.0,0
mp-867749,CaBiO3,0.0798,-2.254417460750001,0.0207375784999985,0
mp-763979,Li4Ti3Mn2Nb3O16,0.0,-2.8597429779257126,0.0700173373660693,0
mp-20027,FeP2,0.433899999999999,-0.5388600120634935,0.0,0
mp-20603,CeTl3,0.0,-0.2312290962499999,0.0,0
mp-18865,K3(FeO2)2,0.0,-1.6874069483333332,0.0482691649768503,0
mp-764196,Li2VO3F,2.452,-2.5599254857057145,0.0908537371428517,0
mp-978986,Sr(GePd)2,0.0,-0.7111156019999996,0.0,0
mp-862983,InCl3,3.0122,-1.432651178695,0.0,0
mp-780229,Na6Bi2B4PO16,0.0,-2.3240097143021345,0.0456653628879282,0
mp-560908,V3S4,0.0,-1.1441515466071428,0.2514943257142876,0
mp-30024,Sr(AlCl4)2,5.4902,-2.25662161578,0.0,0
mp-542533,CsNaB4H12O13,4.9524,-1.9618792171405384,0.0095899444354836,0
mp-6524,CaMg3(CO3)4,4.8153000000000015,-2.520045272250001,0.0036867875000012,0
mp-12695,CaMg2Ni9,0.0,-0.1654607533333335,0.0,0
mp-640883,VBi(PbO3)2,2.673999999999999,-1.9285898181250003,0.0,0
mp-672657,Hf6Co16Ge7,0.0,-0.4723792739655172,0.0,0
mp-560544,Ba3Zn5In2O11,1.617299999999999,-2.1959661585119044,0.0,0
mp-772326,TiMn5(PO4)6,0.0,-2.567753119167725,0.0343560528125088,0
mp-6778,BaYbSi4N7,0.0,-1.2792956085892304,0.0245528493269242,0
mp-976406,MgMnPt2,0.0,-0.5981606074999988,0.0,0
mp-5858,CdPtF6,2.1901,-2.0266815552675,0.0,0
mp-767332,LiCoPO4,2.9865,-2.378208410442177,0.0561433951785703,0
mp-8966,K2Sn2Se5,0.8304,-0.7284197181076387,0.0,0
mp-763091,Li2MnF4,4.7007,-3.0265823361742856,0.0713483532142857,0
mp-572124,SrTi2O5,1.9511,-3.3311131288541667,0.2191825895312468,0
mp-18388,Ga7Te10,0.8714000000000001,-0.3246027226470589,0.0,0
mp-975253,RbPr3,0.0,0.5077769799999996,0.5077769800000005,0
mp-863006,CsB2H5O6,5.0467,-2.0348287013523816,0.0,0
mp-2995,La2Fe2S5,0.0,-1.6780523789236117,0.1369862872222214,0
mp-775452,Li4Mn3Co3(WO8)2,0.320199999999999,-2.005446966174286,0.0423411526785804,0
mp-31471,K3PbAu5,0.0,-0.3131406727777776,0.0,0
mp-504830,S4N5F,2.4816,-0.0942576001839995,0.2446953492140746,0
mp-767823,Li3Fe2(PO5)2,0.0,-2.340708599040616,0.1009215035661741,0
mp-999307,OsN,0.0,0.4359939488100011,0.4359939488099993,0
mp-643022,Rb3H5Pd,2.7285,-0.3242504220111111,0.0076593672222218,0
mp-3909,ZrAlCo2,0.0,-0.5091190025000003,0.0,0
mp-977408,NbTlO3,0.113799999999999,-2.3780724377500007,0.0901059687500005,0
mp-761435,LiCrPO4,2.496999999999999,-2.5219717563350343,0.062401188273812,0
mp-18134,Sr3YbRhO6,0.0,-2.8055554725,0.0,0
mp-865807,Ti2MoIr,0.0,-0.6195668833333343,0.0,0
mp-571235,ZrI4,2.0134,-0.9276678553333332,0.0,0
mp-23818,BaLiH3,2.213,-0.594464455172,0.0,0
mp-30096,Be2Te7Cl6,1.2797,-0.9114711286373336,0.0,0
mp-864782,Ta2MoRu,0.0,-0.3669691462499997,0.0,0
mp-10087,CeScSi,0.0,-0.5382434833333333,0.066481029393941,0
mp-851045,Fe3O5F,0.0,-1.6959295047155554,0.1121679926388887,0
mp-777580,V5O12,1.1948,-2.2633863314705884,0.0793667423529722,0
mp-3715,CoGeTe,0.0533,-0.2200134491666663,0.0,0
mp-8207,Zn(PtO2)3,0.3113,-1.11879778725,0.0,0
mp-771666,Li3Ni2SbO6,1.258499999999999,-1.7220481835416674,0.0600914933333545,0
mp-555203,Sr5B3ClO9,3.9640999999999993,-3.2362650202505554,0.0,0
mp-763364,Li4Co(SiO3)3,2.9379,-2.7059514441911765,0.092471701176481,0
mp-20075,TbMn2,0.0,0.1644355605555567,0.1644355605555567,0
mp-25652,LiPWO4F,3.1005,-2.5258778774106543,0.0572865387500014,0
mp-559650,KV3(SeO6)2,2.3366,-1.9896211220659723,0.0,0
mp-676036,Ba(FeS2)2,0.0,-1.2161882751785722,0.1208258800000008,0
mp-773516,Li3NiO3,1.414399999999999,-1.6410612969642864,0.0306124025000009,0
mp-753397,Ga2CuO4,0.0,-1.825810595,0.0757744714285655,0
mp-25014,MnGeO3,1.6731999999999991,-2.1173605029419993,0.0213144773749993,0
mp-771991,Li6NiO4,2.8594999999999993,-1.8422773754545447,0.0221018340909076,0
mp-762934,V2Fe3P6WO24,0.0,-2.490674743293651,0.0525445730208407,0
mp-550008,ScBiO3,0.6928999999999991,-2.46202217975,0.3568274701249985,0
mp-29198,Na5AuSe12,1.0246,-0.5090685096180556,0.0,0
mp-607450,In3Ru,0.207899999999999,-0.1595726531250001,0.0,0
mp-568828,Hg6BiSb4Br7,1.022399999999999,-0.3832267194444449,0.0,0
mp-765138,Li2Co(CO3)2,2.1374,-1.927961313409091,0.0782685131818121,0
mp-675779,Li2Mo3S4,1.4366,-1.2134481906944443,0.0,0
mp-37108,Sr(NdS2)2,2.103199999999999,-2.464515446607144,0.0042298421428572,0
mp-778584,LiMn2(CoO4)2,0.2063,-1.627622340147692,0.0510411113461533,0
mp-557962,SrLiBS3,2.392199999999999,-1.5907387552256946,0.0011707643055576,0
mp-766785,Li4Si2NiO7,3.3812,-2.583336369196428,0.0267269671428591,0
mp-2874,In2Si2O7,2.7009,-2.706976320795455,0.0048067636363642,0
mp-2360,CaGe,0.0,-0.6530287574999996,0.0,0
mp-867327,Hf2TcRu,0.0,-0.6709318037499994,0.0,0
mp-21158,CeAlPd,0.0,-0.7774124488888887,0.0,0
mp-14941,Al2Pb3F12,5.2252,-3.2669751374576466,0.0,0
mp-560385,KRb2CoF6,0.0,-2.704446110714,0.0404779490000004,0
mp-570140,AuBr,1.9716,-0.12508426125,0.0115790287499999,0
mp-32434,Ca2V2O7,3.0528,-2.9200732907954534,0.0,0
mp-562338,USeO6,2.0194,-2.3408669432617195,0.0,0
mp-761598,Li4Mn2Si3O10,3.0154,-2.7830238962852634,0.0134077749999956,0
mp-766977,Li3Mn(OF)2,1.202999999999999,-2.598513590105,0.0711164393750003,0
mp-763943,V6O7F5,0.7227,-2.7440950260944437,0.043714015000015,0
mp-27192,CsBe2F5,7.180899999999999,-3.4939058994937504,0.0,0
mp-23660,KNa22C2S9ClO42,4.3544,-2.2908213821730192,0.0,0
mp-632229,HBr,4.681,-0.3278686043099999,0.0,0
mp-771871,FeCoO4,0.0,-1.233390360833333,0.1213931540625026,0
mp-9703,K2LiGaAs2,0.7546,-0.5833754154166666,0.0,0
mp-684728,Ba2Tm2Al3Si5N11O3,0.0,-0.3715361903819226,1.5666712188942,0
mp-642999,TmH3(CO2)3,3.9339,-1.7920557089123077,0.0968247236057697,0
mp-770901,LiFeCSO7,1.8918,-2.0150194750284087,0.0488659668181901,0
mp-567342,Nd4MgIr,0.0,-0.3566350004166665,0.0,0
mp-861562,CrCo3O8,0.471099999999999,-1.306366633333333,0.0655447754166704,0
mp-29356,NaTi2O4,0.0,-3.1556392294047626,0.0,0
mp-504769,N2O5,0.6626000000000001,-0.7291607272871425,0.0,0
mp-29889,Tl2PdCl4,1.1509,-1.1654224975771432,0.0,0
mp-676802,K2HfF6,2.7355,-3.61557646708963,0.138254767592592,0
mp-559674,PH16C6S2NO4,4.4731,-0.5649964903006748,0.2560334594345246,0
mp-757806,LiSn(PO3)4,0.056599999999999,-2.5107060259656087,0.0518922766435077,0
mp-981200,Zn3Cd,0.0,0.0769807150000001,0.0769807150000001,0
mp-25095,NiSeO3,3.0178,-1.1440282404687507,0.0359516282500012,0
mp-19350,LaVO3,0.9979999999999992,-3.2801095447500015,0.0,0
mp-3601,BaUS3,0.0,-2.1124904779375,0.0,0
mp-708955,PH8C2NO4,5.3301,-1.125785598245952,0.1035035375781232,0
mp-985506,Ac3Tl,0.0,-0.1075216568749999,0.0,0
mp-1018757,LaZnGa,0.0,-0.5280281433333336,0.0003817133333332,0
mp-554294,Na7SnS3(O4F)3,4.9906000000000015,-2.398159872913749,0.0205040689663436,0
mp-27400,RbCdBr3,2.7524,-1.2560821965,0.0,0
mp-556870,MgAl2O4,4.8621,-3.2807815085714287,0.1080439264285715,0
mp-31349,Sr3In,0.0,-0.1381069450000001,0.1251794913636361,0
mp-31591,LiCoPO4,2.741999999999999,-2.387635606513606,0.046716199107144,0
mp-555369,SrCuH6O5,0.6365000000000001,-1.6114381275361531,0.018471127115383,0
mp-721279,H3SNO3,5.4035,-1.3304782774753123,0.0154545393870098,0
mp-1666,Th2S5,1.7022000000000002,-2.2129412182589294,0.0,0
mp-10824,ZnCu2GeSe4,0.0,-0.3590651730468752,0.0024156937500001,0
mp-1018070,Ti2InFe,0.0,-0.0214925258333336,0.2322258400000008,0
mp-1026349,Te2W3Se4,0.23,-0.371829052708333,0.0364300747222223,0
mp-542944,Cs2CuH12(SO7)2,0.6475000000000001,-1.6711111364214524,0.0079311407258071,0
mp-998605,RbPbCl3,2.1964,-1.818039801956,0.039067291999999,0
mp-8268,Yb2CdSe4,0.0,-1.0289425749107142,0.3471825894866072,0
mp-9200,K3AuO,0.5646,-0.9005249602500001,0.0,0
mp-567956,GaSe2NCl6,1.6414,-0.8397593059127495,0.0850177968752814,0
mp-656850,Ti2O7,1.154,-1.843799635231481,0.5020876851388882,0
mp-753677,Li3BiS3,2.558,-1.230332011026785,0.0407826092857153,0
mp-720572,RbH3(SeO3)2,3.7885,-1.4012499591081249,0.0542243444791656,0
mp-624406,CdI2,2.3339,-0.5904000979999999,0.0017369005555556,0
mp-755472,BaCuO2,0.0,-1.88694136,0.1139679418749999,0
mp-742859,Fe3P2(HO)16,3.1305,-1.7291643263273102,0.0179768348648785,0
mp-971857,Zn3C,0.0,1.042442316875,1.042442316875,0
mp-15922,Gd2ReO5,0.7654999999999991,-3.2080028857812497,0.0,0
mp-773236,Li5Nb2Fe3O10,0.281899999999999,-2.361684342625,0.0592724071250003,0
mp-762395,Li2Cr(Si2O5)2,2.7249,-2.931832810588236,0.0624350788529266,0
mp-427,FeAs,0.0,-0.2005737000000004,0.0,0
mp-11582,LiGaSe2,2.0656,-0.9104337267968754,0.0,0
mp-4614,Tb(SiAg)2,0.0,-0.4011717786666665,0.0,0
mp-28870,PRhO4,0.9792,-1.9853666946825408,0.0,0
mp-745188,CrH12N3(OF2)3,3.4088,-1.3905018748587998,0.2012204615651569,0
mp-14457,Na3Li3Ti2F12,0.0,-3.3411349231306664,0.0,0
mp-675342,NdPb4F11,4.4389,-3.0974053009743745,0.0383214010416672,0
mp-560730,H8CN2(ClO5)2,4.351,-0.6699389751191301,0.5407518141908216,0
mp-775084,Li2SiNiO4,3.2176,-2.387695369999999,0.0074935681249996,0
mp-753911,GdAsO4,3.014499999999999,-2.798740551666667,0.0208636483333339,0
mp-1018752,LaTeCl,0.6562999999999991,-2.159447481086667,0.0,0
mp-770024,Li2Mn3NbO8,0.0,-2.309056266634286,0.0780414195759107,0
mp-773614,Mn3(SeO3)4,0.6671,-1.5327241009081585,0.0430787190350878,0
mp-687096,V2Cu2O7,0.026,-1.7935121689772715,0.0211617700000026,0
mp-9077,Nd2Be2SiO7,5.0243,-3.539486997812499,0.0,0
mp-566725,TmMnO3,0.420599999999999,-3.072014544942,0.0409063853333346,0
mp-4291,Ho(NiGe)2,0.0,-0.6830530850000003,0.0,0
mp-568917,LaInAg2,0.0,-0.3731010974999997,0.0,0
mp-41095,Na3Sr3AlP4,1.1233,-0.8326537747619053,0.0,0
mp-542932,LiFeAsO4,2.0793,-1.9938107517857144,0.0,0
mp-1019562,Ca2SiO4,4.1723,-3.347358215714286,0.1399741992857155,0
mp-530984,Al22PbO34,3.595,-3.3645730642543863,0.0119470757017543,0
mp-4083,MgCuAs,0.0,-0.3525504016666663,0.0053525583333353,0
mp-769852,Li3CoO3,1.2294,-1.877114344107144,0.0404035947321466,0
mp-27723,USeO5,1.732899999999999,-2.5746162528348218,0.0163322791071429,0
mp-755010,KYbO2,0.0,-2.333763583125,0.1394582849999999,0
mp-778680,Li5Mn8(BO3)8,0.5750000000000001,-2.4597224300225182,0.056472134462945,0
mp-20879,CaHgPb,0.0,-0.33523854,0.0987521670833335,0
mp-850277,SrCaI4,3.5551,-1.6418799366666663,0.0346663795833337,0
mp-3666,LiTaO3,3.7003,-3.14432123475,0.0,0
mp-28586,AgXeF9,1.5421999999999991,-0.983354371428182,0.0192126359659088,0
mp-559127,K2Zn2Si8O19,4.2179,-3.0089735591532265,0.0063338065860181,0
mp-997163,MnAuO2,0.0,-1.3675518408649996,0.0161723499999997,0
mp-761388,LiCrPO4,1.407699999999999,-2.5193656235374142,0.065007321071433,0
mp-8840,Na5InO4,1.7742,-1.6987951744999996,0.0036463241250004,0
mp-15178,Lu4C7,0.0,-0.3242809593181823,0.0,0
mp-756467,TiCu(PO4)2,0.0,-2.588895846904762,0.0539539339583683,0
mp-23399,Rb2AgI3,2.5761,-1.1090464970833331,0.0,0
mp-542819,Cs3B12H12Br,4.7562,-0.5570539433371431,0.0010945739285705,0
mp-760817,Li2AgF4,0.0,-2.3522423842514284,0.0889313921428582,0
mp-667380,Rb3Nd2(NO3)9,3.4486,-1.5740103001870736,0.0,0
mp-542738,SN,2.3546,0.0292987880287505,0.1338363422175001,0
mp-568228,RbLaSi(CN2)4,3.854899999999999,-0.7264387279360004,0.0,0
mp-866196,Li2PrIn,0.0,-0.3241346525000002,0.0,0
mp-29345,LiGaI3,2.2473,-0.7794407915000001,0.0,0
mp-772283,Li2Cr3SbO8,1.9309,-2.3174664767857136,0.0100022851785714,0
mp-973966,LiIn(IO3)4,3.0613,-1.1643159086111114,0.0,0
mp-770850,Li2TiCo2O5,0.7144,-2.239235627791667,0.090137075999996,0
mp-29513,CsXeF7,3.266599999999999,-1.4232830375922223,0.0,0
mp-704879,Ni5Te4(BrO6)2,2.785999999999999,-1.1691885291304356,0.0206738056956519,0
mp-30723,Th2Hg,0.0,-0.13762473,0.0,0
mp-755148,CuSb(PO4)2,0.0,-2.121860341349206,0.0688094377083352,0
mp-571499,TaIr,0.0,-0.586178608333333,0.0,0
mp-18196,Ba(TmTe2)2,0.7841,-1.5160072450000004,0.0,0
mp-632172,H2,9.3264,4.440892098500626e-16,4.440892098500626e-16,0
mp-767193,Mn7O7F,0.0,-2.052222954777331,0.0616122933333418,0
mp-571210,YGaI,0.0,-1.0578922558333332,0.0,0
mp-978304,Mg3Ta,0.0,0.3629756825000005,0.3629756825000005,0
mp-34611,ZnAgAs,0.0,0.0296642933333336,0.1273244519270844,0
mp-611062,EuSb2,0.0,-0.7117583916666668,0.0,0
mp-763066,Li6Fe3Co7O20,0.0,-1.6748936520833324,0.0295307499913191,0
mp-558536,RbCdAuS2,1.9324,-0.9674756416250002,0.0128117200000001,0
mp-6493,CaMgSiO4,4.6294,-3.377687538214286,0.0,0
mp-999318,NiBi,0.0,-0.0210354099999996,0.0,0
mp-730,P2Pt,1.0223,-0.6920170587301596,0.0,0
mp-1018112,YSb2,0.0,-0.2137331541666665,0.5625641449999996,0
mp-863856,Li3Cr3FeO8,0.0,-2.186595691333333,0.0795271392010468,0
mp-31112,Tb3GaO6,3.605399999999999,-3.5967475497500003,0.0,0
mp-766149,LiV(OF)2,2.764199999999999,-2.6467072724800005,0.0820745691666822,0
mp-1018072,KTiS2,0.0,-1.6574837961979174,0.0665732475,0
mp-402,CdP2,1.4897999999999991,-0.1282907828968262,0.0009104449999997,0
mp-760060,Sb(SO4)2,0.0,-1.823733496647727,0.0069470887121187,0
mp-560107,SbAs3(S2F3)2,2.3306,-1.6650253605992849,0.0459242454139614,0
mp-383,Rb2Te,1.3732,-0.9485307366666664,0.0566174899999998,0
mp-978881,SnAs3,0.0,0.3490154724999996,0.3845069321874997,0
mp-1024,CaGe2,0.0,-0.4749900949999996,0.0070345516666669,0
mp-561222,K2HgBr2(NO6)2,1.9283,-0.982038872618948,0.0,0
mp-779881,Fe4OF7,1.663,-2.566087450798334,0.0574589287499964,0
mp-11773,Nd3GaO6,3.647599999999999,-3.466879215500001,0.0,0
mp-653429,Mn7FeCl3O10,0.9382,-1.9329558144761896,0.0,0
mp-5948,Th(CuSi)2,0.0,-0.5784615460000004,0.0,0
mp-641845,Yb7In(CoGe3)4,0.0,-0.560467678333333,0.0,0
mp-772350,Cr2PO5,0.6496000000000001,-2.448040090543156,0.0309122305208315,0
mp-7768,Th2SeN2,1.359199999999999,-2.08976090667075,0.0,0
mp-554396,Mg2SiO4,4.1471,-3.0129536857142853,0.2230413874999994,0
mp-850433,Li2Mn3(BO3)3,0.0,-2.4400951399488253,0.0774315237744893,0
mp-15968,Sm(CoSi)2,0.0,-0.7885038064999996,0.0,0
mp-12670,Ho2SO2,3.0336,-3.6455164153125,0.0,0
mp-699587,MnSi6Pb8O21,3.2441,-2.4728947440891664,0.0,0
mp-21101,U(SiPt)2,0.0,-0.7731194590000001,0.0,0
mp-626112,H7NO6,3.389599999999999,-1.227326916622857,0.0371310523214294,0
mp-867282,Tb2IrRh,0.0,-0.8417044991666671,0.0,0
mp-566771,K17Fe5O16,2.0912,-1.7054615031578957,0.0,0
mp-850250,Mn6O7F5,0.0123,-2.2259588141922233,0.0749278227083287,0
mp-849754,Li2Cu(PO3)4,0.1785,-2.4288730901253133,0.0674864418859746,0
mp-763311,Li4CoO4,0.980399999999999,-1.8038852441666675,0.0740545490925956,0
mp-1601,TaRu,0.0,-0.3226796775,0.0,0
mp-758317,YTa3O9,2.1427,-3.4831379979807675,0.049530811153847,0
mp-769278,LiCuPO4,0.218299999999999,-2.1503042997278907,0.0969077360714418,0
mp-774241,NaVAsCO7,2.002199999999999,-2.012964533749999,0.0536776822727178,0
mp-780929,LiMnF4,0.6541,-2.927232360536666,0.0230239437499895,0
mp-771978,Ga2HgO4,0.103799999999999,-1.6991857942857134,0.1147588889285708,0
mp-13800,Cs2NaTlF6,3.6228,-2.749137922713999,0.0,0
mp-1572,GaSe,1.240599999999999,-0.5885917805468752,5.598750000057606e-06,0
mp-22228,DyCoSn,0.0,-0.4897841013888886,0.0,0
mp-972410,TmLuPd2,0.0,-0.9552320275,0.0076651475,0
mp-5350,Zn(GaS2)2,2.2696,-1.1094573887500008,0.0,0
mp-37430,Na4S2O5,2.2212,-1.9083955440340905,0.204261683636366,0
mp-16801,GdSO4F,3.178,-3.076768127893214,0.0,0
mp-762518,Li4Ti2Mn3Nb3O16,0.0,-2.7496779748647606,0.0818207943303548,0
mp-779058,LiV2OF5,0.6409,-3.0413260608,0.0598255044444409,0
mp-558033,Na2Ca3Ta2O9,3.712799999999999,-3.1407256907031256,0.0675157735937466,0
mp-765937,Li4CrCo3O8,0.33,-1.8497983625000003,0.0922745324999985,0
mp-628705,YbFeGe,0.0,-0.2999642016666672,0.1447582466666661,0
mp-23486,RbNiCl3,0.721399999999999,-1.5132991009559995,0.0,0
mp-1020145,Na2Ge(S2O7)3,4.003,-2.0129503469375,0.0,0
mp-690110,VMoO5,1.006199999999999,-2.16134250375,0.0596115837500015,0
mp-23312,MoBr3,0.6926,-0.5783591425000001,0.0,0
mp-769297,Sr5Ta4O15,2.9673000000000003,-3.481687429114583,0.0163684966666668,0
mp-1019377,Al(PO3)3,5.8176,-2.8603440763873627,0.0,0
mp-554264,Ba3Tb2(PS4)4,2.3711,-1.6030969538619058,0.0,0
mp-1020193,KNO3,2.8988,-1.5001810202260004,0.0142334285000007,0
mp-756294,Li2Ti2O5,3.7434,-3.1425074560648145,0.0276278048147897,0
mp-20123,Te2Au,0.0,-0.0834480266666665,0.0,0
mp-31184,AlFe2,0.0,-0.0985514066666664,0.1408755266666643,0
mp-20222,Sr2NbInO6,3.3866,-3.001622768750001,0.0,0
mp-1030319,Te2Mo,0.586199999999999,-0.2691759124999997,0.0013736391666689,0
mp-1018755,LaTlZn,0.0,-0.3557312400000001,0.0169669066666671,0
mp-605790,Ba,0.0,0.1799255499999998,0.1799255499999998,0
mp-694935,K3LiMg4(Si2O5)6,4.7657,-3.1690895628499987,0.0,0
mp-555345,CrCuS2,0.0,-0.6668989095312501,0.2168086156249931,0
mp-23891,NaHO,2.802,-1.6124648416233331,0.0009096883333361,0
mp-769268,Sr4Ta2O9,4.1431,-3.4132346494166663,0.0314285853333302,0
mp-771050,Li7MgNi7O16,0.3481,-1.4342087554838705,0.0106298381451583,0
mp-554463,Na3LuSi2O7,3.9466,-3.091444749134616,0.0,0
mp-982559,HoAlAu2,0.0,-0.7146083837499999,0.017821961785712,0
mp-782688,Li2FeF4,0.0,-2.9353972221085707,0.0556059728571431,0
mp-767302,Li2SiNiO4,3.461,-2.369801530625,0.0253874074999993,0
mp-22451,MoPRu,0.0,-0.5216512518650802,0.0002203183333335,0
mp-510380,Mn3CuN,0.0,-0.180681080475999,0.0650009915000033,0
mp-774006,Li4Mn3SbO8,0.0,-2.1100816823675004,0.0430878949999931,0
mp-722245,K2H2C2S2N2O,2.3712,-0.8344564812613645,0.0812705035606073,0
mp-12964,TbNi4B,0.0,-0.4883584141666664,0.0,0
mp-9843,Sr3(AlP2)2,1.3371,-1.0023755469312168,0.0,0
mp-853262,Fe10O9F11,1.281799999999999,-2.2613005066446674,0.0650984303333341,0
mp-745154,MnZn2Si(HO3)2,1.0539,-1.99448942485,0.1312273948263813,0
mp-777453,LiVF6,3.1431,-2.9280998812050005,0.0608897334374996,0
mp-557354,Tm2Te4O11,3.2138,-2.3283139128676464,0.0032565047794115,0
mp-14439,K5TlO4,1.4847,-1.4166761596250002,0.0,0
mp-762232,LiCoSiO4,1.1803,-2.346036199285715,0.0897708342142724,0
mp-774043,MnV(P2O7)2,1.0275,-2.512098345042048,0.0201746602500136,0
mp-554778,NaY(SiO3)2,4.8028,-3.3360112440000003,0.0102460377499848,0
mp-778811,Li2Fe(BO3)2,0.0,-2.355989517575757,0.0732023626704565,0
mp-542289,HgNO3,2.5687,-0.834588064226,0.0,0
mp-720515,HN,4.359199999999999,-0.2193256505,0.1417491617066666,0
mp-777875,LiFeF4,3.5689,-2.9174783382933343,0.0102684668518602,0
mp-6947,SiO2,5.0026,-3.0885311591666658,0.1961817483333341,0
mp-764310,KLi2MnPCO7,3.0119,-2.371615066561941,0.0832188492307892,0
mp-780779,Cr(Si2O5)2,1.827999999999999,-2.9440744941666663,0.0947436233333327,0
mp-765942,Li2VOF4,2.6315,-2.982605071063749,0.0638721422172752,0
mp-29314,RbVBr3,0.6053000000000001,-1.2297816923333331,0.0,0
mp-771672,Li3VCr3O8,1.2581,-2.3651494833333326,0.0633088466875007,0
mp-1009601,PdN,0.0,1.1285462088100005,1.1285462088099996,0
mp-569824,Te2WCl6,0.0,-1.0344839143955558,0.0245117277777717,0
mp-559427,BaSr4U3O14,2.0759,-3.652795079431821,0.0,0
mp-722237,Be(B3H8)2,3.4994,-0.0760771951269567,0.1173121941798465,0
mp-28917,Ba2Ti13O22,0.0,-3.3815278141666667,0.0,0
mp-25015,LiMn2O4,0.0,-2.035212635988572,0.0376844319260225,0
mp-781069,Li2MnFe(BO3)2,3.0889,-2.4648820422327784,0.0045696055555524,0
mp-1025588,W3(Se2S)2,0.882899999999999,-0.7814621669444443,0.012816190555557,0
mp-781009,Li3Cr(PO4)2,2.8064,-2.624571841513606,0.0788200830355654,0
mp-3469,ZrNi2Sb,0.0,-0.5555114262499998,0.0,0
mp-556273,S4N5Cl,2.1844,0.0680318318589996,0.2891816648545013,0
mp-769606,LiZn4Fe13O24,1.4142,-1.833276625238096,0.0752353160714287,0
mp-505335,Ho2Mn3Si5,0.0,-0.6344316572499992,0.0,0
mp-768311,Cs3NO4,3.078799999999999,-1.3674508502974998,0.0344637479861109,0
mp-760419,Li2BiF5,4.0571,-2.94369402449375,0.0630193343749976,0
mp-1018628,ScPt3C,0.0,-0.1740753815000005,0.6666503144999982,0
mp-973451,Nd2BiO2,0.0,-2.8609676945,0.0,0
mp-2496,Cs4Sn23,0.0,-0.1743467609259257,0.0,0
mp-760811,Li5Cu3F14,0.315099999999999,-2.3251731166663645,0.0766276001515304,0
mp-761976,LiCoPO4,2.6024000000000003,-2.3833121861564632,0.0510396194642872,0
mp-554344,Li3Al(BO3)2,4.593699999999999,-2.776437588819445,0.0907885104166661,0
mp-647350,Rb5HfFe(MoO4)6,3.2284,-2.2634687920270267,0.0701730006081113,0