mpid,formula,BG,FE,e_hull,fidelity
mp-15226,CrWN2,0.0,-0.4683867461899993,0.0592366212499992,0
mp-504821,TlFeBr3,0.0,-0.5934218510000001,0.0656460626666661,0
mp-419,YbB6,0.0,-0.4623872642857145,0.0,0
mp-28344,Zr6CI14,0.7934999999999991,-0.9982397917857144,0.0,0
mp-570527,Yb5Au4,0.0,-0.9102210211111104,0.0,0
mp-690123,BaW6O19,0.0,-1.9642070432211531,0.3461466921153828,0
mp-765107,LiMnVP2(HO5)2,0.9541,-2.3602106115817927,0.0308714261764846,0
mp-754501,Ca(CuO)2,1.5254,-1.6825510615,0.0327078304999997,0
mp-7194,TbCuAs2,0.0,-0.8263879195833335,0.0,0
mp-11170,KCeSiS4,0.0025,-1.7688269473214286,0.0018831878571434,0
mp-1020645,Na8NO3,0.0,-0.9737046896775,0.1603264245833324,0
mp-3312,Cs(SbSe2)2,1.1176,-0.5155635213392854,0.0,0
mp-706670,AlCuH28S2ClO22,0.8261000000000001,-1.558345171822637,0.0065375361363626,0
mp-23280,AsCl3,3.9873,-1.1598588724449996,0.0,0
mp-554328,NaSO4,3.5176,-1.8550891773437488,0.1602619853124993,0
mp-559389,SiO2,4.1899,-3.032452344166668,0.2522605633333317,0
mp-40873,Ba3Na2Ti3Nb2O15,1.5631,-3.22001336235,0.0288047584599979,0
mp-763682,Li(FeO2)3,0.0,-1.6514487737499992,0.1223759038749996,0
mp-22422,Ce3Te4,0.0,-1.396064005,0.0,0
mp-771755,LiMnFeO4,1.4258,-1.9612640962085723,0.0569218860714286,0
mp-771336,Na3MgPCO7,4.4597,-2.526876206488095,0.0234514534615266,0
mp-774357,Na6CoO4,1.050699999999999,-1.4168314056818183,0.0796515588636346,0
mp-542136,Na3PSO3,3.8960999999999992,-2.237947322613468,0.0,0
mp-756978,Ba3(ClO)2,2.334699999999999,-2.8379616891457147,0.0741213559523767,0
mp-25655,Pr(WO4)2,0.0574,-2.4334884040909093,0.0891358311931824,0
mp-19746,NbPbS2,0.0,-1.2105681332812503,0.0,0
mp-971788,VRu3,0.0,-0.1164672287500003,0.0,0
mp-14531,NaNb3O8,2.2455,-2.953595085416667,0.02317863958333,0
mp-752397,Ba2SrI6,3.7685,-1.7471573683333332,0.0237032383333333,0
mp-764489,LiFe2(BO3)2,1.56,-2.3630767855303016,0.0530065510795712,0
mp-568060,Na4Ge2Te5,1.3253,-0.5863166687500002,0.00266458215909,0
mp-758063,LiTiP2O7,0.2824,-2.834197651055196,0.1002552939588561,0
mp-989517,Cs2SBrCl6,0.0,-1.26213233436225,0.0,0
mp-21300,Yb5Ge4,0.0,-0.6678984222222218,0.0,0
mp-754384,ScTlO2,0.9721,-2.698537831874998,0.1002536442187507,0
mp-570292,La7Os4C9,0.0,-0.2778915408749995,0.0,0
mp-555850,LuSF,2.614099999999999,-3.3380581034175,0.0,0
mp-686547,Al3H36C12N3F4,0.0,-0.426493808314138,0.3355531380172412,0
mp-765608,Na7Mn11O24,0.5909,-1.9463835344180935,0.0215789304762115,0
mp-541142,CrP(HO)5,2.8008,-1.7124263483287698,0.0138379651140878,0
mp-505274,Na2SO4,5.026400000000001,-2.3166734202232138,0.006400186785715,0
mp-1027112,MoW3(SeS)4,0.6724,-0.9079657350520828,0.0312937425000017,0
mp-753966,Li6CrS4,0.0,-1.359982609659091,0.0968540803030304,0
mp-773707,Li4Ti3Mn2V3O16,0.9531,-2.749136362925713,0.0360311522916561,0
mp-1029960,CsRuN2,0.0,-0.0546743689400003,0.2395033822500005,0
mp-760193,H9PbC3I,3.053,-0.1681268225057139,0.2068717379910714,0
mp-761032,Hf5N5O2,0.0,-2.39674980995,0.0516234995833357,0
mp-752851,Ca2SiB2O7,5.735700000000001,-3.2596556955902787,0.0147373172916669,0
mp-1025778,Te2Mo2W(SeS)2,0.0,-0.6783078305902777,0.0564607238888861,0
mp-10569,YbSiIr,0.0,-0.8741614391666666,0.0,0
mp-756630,DyAlO3,5.723000000000001,-3.765689749583333,0.012788190900002,0
mp-978828,Sm3Zn,0.0,-0.0260874981250003,0.1356554237500002,0
mp-557762,TiS,0.0,-1.6695458086979176,0.1325089916666648,0
mp-774461,TiMn3(PO4)6,0.0,-2.3976015799446504,0.0517666935294123,0
mp-619575,ClF3,2.4608,-1.1207972017075,0.0,0
mp-542909,Mn,0.0,0.0521997120000008,0.0521997120000001,0
mp-8198,Rb3Cu5O4,1.534499999999999,-1.0914519393750002,0.0,0
mp-15382,TmP5O14,5.2284,-2.85195318914881,0.0,0
mp-644225,Sr2MgH6,2.7286,-0.5259222301911106,0.0063606294444444,0
mp-1553,HoNi5,0.0,-0.3325338741666665,0.0,0
mp-31104,KBi,0.405899999999999,-0.3476315159375001,0.0,0
mp-772610,Ho2(SeO4)3,3.0062,-2.0183218976930157,0.0865502391176473,0
mp-27231,Li2TeO3,3.6614,-2.032964831875,0.0,0
mp-600018,SiO2,5.4453,-3.273180296111111,0.0115326113888851,0
mp-540343,Li2Cr(PO4)2,0.3181,-2.5359056420146517,0.0607649161080532,0
mp-931,ThP,0.0,-1.5578734640476188,0.0,0
mp-28897,BIrPd,0.0,-0.2737602563888899,0.0,0
mp-771645,Sr2CaI6,3.8432,-1.6632050641666665,0.0257826975000004,0
mp-720283,K2H6PtC4N4O3,1.8723,-0.7836519999994997,0.1019666961875014,0
mp-541712,Ce3Si6N11,0.0,-1.4562663210589988,0.0,0
mp-20646,Sm(MnGe)2,0.0,-0.4740537184999994,0.0,0
mp-721702,Zn2AsHO5,1.9575,-1.7352544360966666,0.0,0
mp-559916,Na17Al5O16,2.4421,-2.2906878838157887,0.0002722995488628,0
mp-743771,Ca8V7ZnBiO28,3.4528,-2.8257763653333337,0.0080444123333318,0
mp-775133,Li4Ti3Fe3(WO8)2,0.9939,-2.5431627425000007,0.0323515662797628,0
mp-775695,Li4Mn3V2Sb3O16,0.466099999999999,-2.1622566438528565,0.061736565758923,0
mp-5342,GaAgS2,0.9598,-0.8416666920312501,0.0,0
mp-31060,Rb4(BS)9,3.1228,-1.0409226939346596,0.0,0
mp-560421,Sr2NiTeO6,2.3726,-2.04146134675,0.2274382329999991,0
mp-23538,KFeCl3,0.0477,-1.555583870456,0.0426407388333345,0
mp-542045,UTlH(SeO4)2,2.166099999999999,-2.012974384292884,0.0,0
mp-976257,KTi5Se8,0.0,-1.2105166258630948,0.0,0
mp-559644,K2Cu(PS3)3,1.9435,-0.9420926950565482,0.0,0
mp-1018746,LaGe2Ir3,0.0,-0.6631239599999988,0.0013484324999994,0
mp-9550,ScMnSi,0.0,-0.621236184444444,0.0,0
mp-754246,TiSnO3,1.1151,-2.7707574370833337,0.0,0
mp-631674,LaRe2Ag,0.0,0.7073722700000005,0.8337182400000014,0
mp-31012,K2(NbBr3)3,1.0937,-1.1707350978571434,0.0,0
mp-867278,DyPaTc2,0.0,-0.1414133241666668,0.0,0
mp-561490,PdSeO4,1.2024,-0.944263749765625,0.0094397027083337,0
mp-7769,Th2SN2,1.419699999999999,-2.286884921764501,0.0,0
mp-542840,In2Si2Pb2O9,3.3467,-2.4203322789166672,0.0,0
mp-703574,CaH2(SO4)2,5.836,-2.206759669451154,0.0,0
mp-28832,Mn5As4,0.0,-0.1835172711111094,0.0554310099999995,0
mp-764831,Li3Ni(OF)2,0.573099999999999,-2.19525425061,0.0810822140625022,0
mp-707071,ZnH10C4N6(ClO2)2,4.5308,-0.929131828592593,0.0105202241357975,0
mp-8605,SrSbPt,0.0,-0.955994838333334,0.0,0
mp-505513,Nd(Re2Si)2,0.0,-0.4446225210714293,0.0,0
mp-693620,KCa2Be2Al(Si2O5)6,4.868799999999999,-3.3022966961979168,0.0,0
mp-768137,Na2SnPCO7,0.0,-2.233284161612104,0.0555985753124996,0
mp-866075,MgTaIr2,0.0,-0.5382388324999994,0.0,0
mp-754678,BaTaO3,0.0,-3.28346793075,0.0353196952000001,0
mp-764871,V2Fe3Te(PO4)6,0.0,-2.403065083015874,0.0783348946874928,0
mp-626977,Si2H2O3,1.9921,-1.4716229535699994,0.6780416724642846,0
mp-553880,ZnS,2.031,-1.1397215443389432,0.0005818101923069,0
mp-1030340,Te6Mo3WS2,0.0,-0.4544954248437503,0.064348869999999,0
mp-29069,Na(CuS)4,0.0,-0.6707064545833334,0.0,0
mp-21200,PuGa2,0.0,-0.3723773856250005,0.0,0
mp-770867,Li2VBO4,1.8957,-2.5519166333333336,0.0678736334374994,0
mp-36821,Nd2CdSe4,0.9937,-1.4324768406249997,0.0965133946428578,0
mp-1002183,TcB,0.0,0.1404265966666678,0.5272565986363631,0
mp-1019719,CsSi2BO6,5.2589000000000015,-3.087679376416668,0.0,0
mp-561366,Ca(ClO2)2,2.5666,-1.4097006559314285,0.135887036190474,0
mp-865000,HfScIr2,0.0,-0.9737823512499996,0.0201098162499988,0
mp-685606,Li2VCl4,1.105799999999999,-1.8644627432914291,0.0023024785714289,0
mp-767342,Li3CoPCO7,2.7656,-2.285191902449633,0.0722545628846083,0
mp-675701,Ca(HoSe2)2,1.1404,-1.9087474206250004,0.0144312482142838,0
mp-766763,LiFePO4,3.3829,-2.4859557486564623,0.0656212010714281,0
mp-540553,Te7(OF5)6,2.3632,-2.204934557516279,0.0063170523784359,0
mp-1013554,Sr3PN,0.511699999999999,-0.8565885360950481,0.0155594573458346,0
mp-4602,Tb2Ti2O7,2.7256,-3.785138914886364,0.0192102102272713,0
mp-541900,AlH15(NF)6,5.5093,-1.2758456078828568,0.1180540367496432,0
mp-10138,Y(BRu)4,0.0,-0.4909894801851841,0.0,0
mp-765996,LiMn2O2F3,0.6333000000000001,-2.564466812873749,0.0299658615625002,0
mp-765142,LiCoSiO4,1.5515,-2.332006662142857,0.1038003713571296,0
mp-765881,LiFeSi3O8,3.1855,-2.8789715911538467,0.0489051411538294,0
mp-5141,Na2SeO4,3.3557,-1.7707956162276786,0.0,0
mp-20886,CeZnSn,0.0,-0.5084613058333325,0.0,0
mp-973372,MgIn5,0.0,-0.0028395133333335,0.0297545699999997,0
mp-27568,Ba10Al3Ge7,0.0,-0.5032072609999997,0.0047399635,0
mp-971752,ZnCr3,0.0,0.2298072687500001,0.2298072687500001,0
mp-41,Zr,0.0,0.0842973499999999,0.0842973499999999,0
mp-542627,Fe2AgS3,0.0,-0.5930877224479177,0.1628488995833317,0
mp-19341,Tl2WO4,3.319,-1.702953980714286,0.0,0
mp-707534,Mg16Si7HO32,0.0,-2.9532922958682137,0.1351981762611585,0
mp-23945,KLi2(HO)3,2.796,-1.2887569027344448,0.4746547272222221,0
mp-30564,ThCo,0.0,-0.3560587549999994,0.0,0
mp-862747,Sr2PtAu,0.0,-0.7500137599999999,0.0213577503977271,0
mp-8161,CaPdF4,1.1613,-2.8488287891266677,0.0,0
mp-752405,Dy2SiO5,4.7218,-3.811988089635415,0.0215970762499999,0
mp-754086,Li2CuS2,0.0,-1.0546915596250015,0.0937186916666652,0
mp-753627,LiTiP2O7,0.1019,-2.8496656128733764,0.0847873321406753,0
mp-571135,La3BCCl3,0.0,-1.667399551743333,0.0149085739531251,0
mp-676564,NdTh9O20,0.0,-4.25760458875,0.0071674561874974,0
mp-12762,PrB6,0.0,-0.4832924585714297,0.0,0
mp-4590,Mg(GaO2)2,3.108099999999999,-2.5426999242857136,0.0062727171428687,0
mp-23904,BaH4O3,4.2591,-1.8615637835287495,0.0,0
mp-766449,Li3TiSiO5,0.026299999999999,-2.843709358541666,0.0914811147500076,0
mp-2310,CdO2,1.2535,-0.8571678950000005,0.0644329537499972,0
mp-17401,Rb3Sn4Au,0.5795,-0.338089106875,0.0,0
mp-12480,ScPPt,0.0,-1.2475722735317458,0.0,0
mp-557771,SiO2,2.3054,-2.673837729166668,0.6108751783333322,0
mp-1019051,ReC2,0.0,0.8122873066666662,0.8290875254166661,0
mp-698587,TiNiO3,1.708199999999999,-2.4723322908833336,0.0190094552000044,0
mp-669353,Cs2TeO4,2.8284,-1.823525019642857,0.0,0
mp-13407,CeAgPb,0.0,-0.3317392450000002,0.0,0
mp-1025988,Mo3(SeS2)2,0.5613,-1.082019051493056,0.0119854449999996,0
mp-764245,Mg7Mn5O12,1.378699999999999,-2.593630330824999,0.0279438491666663,0
mp-973634,Ho(AlC)3,0.0,-0.3039915517857139,0.0,0
mp-585964,SbS3N2Cl7,1.818,-0.7661787962321163,0.0691065917684472,0
mp-1025906,Mo3(Se2S)2,0.7662,-0.8696794225000006,0.0123366194444436,0
mp-19374,K2SrNi(NO2)6,2.1971,-1.3043149158763632,0.0707899976606096,0
mp-865509,MnP2H2O7,4.368,-2.326314459011705,0.0,0
mp-18163,Cd4GeSe6,0.7534000000000001,-0.5069447315056821,0.0225668240340901,0
mp-767147,LiCr2(PO4)2,0.0,-2.516504855091576,0.0809475250641007,0
mp-542078,K2LaP2Se7,1.4926,-0.9052048617788948,0.0,0
mp-639826,C2SeN2,3.336,0.5393773920792497,0.5393773920792517,0
mp-754823,ErTlO2,1.371499999999999,-2.756376815625,0.0983647879687499,0
mp-22156,Hf2InC,0.0,-0.7184843131249998,0.0,0
mp-21118,Sr(MnGe)2,0.0,-0.2944388239999995,0.0300488560000014,0
mp-2105,Hf3Si2,0.0,-0.803286122,0.0,0
mp-849730,Na2Ti4O9,2.4246,-3.2285387339722216,0.0234539078888893,0
mp-773697,Li2VSiCO7,1.9614,-2.500140411770832,0.0723593270833697,0
mp-556553,SiO2,5.1327,-3.1898165183333327,0.0948963891666672,0
mp-642350,KLa(PO3)4,4.348199999999999,-2.8889322587433868,0.060436474444443,0
mp-16753,LuCuPb,0.0,-0.3293690666666666,0.0,0
mp-1019604,Cs2B2S3O13,5.8455,-2.341517430713543,0.0,0
mp-3955,AlPO4,5.612399999999999,-3.1296363521825383,0.0088287983333339,0
mp-849236,V6O5F19,2.0723,-2.7490014837953334,0.0300604947499874,0
mp-764025,MnOF,0.159899999999999,-2.3721503769666668,0.026799789583328,0
mp-771713,Cr2(WO4)3,3.0068,-2.1643733814705883,0.0794870808823589,0
mp-27580,Zn3(AsO3)2,3.5393,-1.7748892761363628,0.0,0
mp-779073,LiMnF3,3.7828999999999993,-3.0141822469060005,0.0505686389999988,0
mp-684642,SN,0.0,0.2185514103898608,0.323088964578611,0
mp-769969,TaFeO4,1.883199999999999,-2.667559159166668,0.1012446716666648,0
mp-11251,Mg3Au,0.0,-0.1960186049999999,0.2100505824999996,0
mp-676473,Te6H6S(Cl13O2)2,2.7203999999999993,-1.1444788703614537,0.021455229321706,0
mp-1018091,CaGaSnH,0.2101,-0.4022682709049996,0.0490826593750006,0
mp-767787,LiVSiO4,2.1243,-2.7579861996428567,0.0941876168749988,0
mp-861657,Li2PrAl,0.0,-0.1872536774999997,0.0041169875000002,0
mp-642019,NdInPd,0.0,-0.5403229524999994,0.2527029855555547,0
mp-557959,Cr3O8,0.5032,-1.667164699090909,0.0458171774999991,0
mp-704227,Mn9(PO4)8,0.250399999999999,-2.444538640069427,0.0416297159183738,0
mp-1021393,KMg6Mo,0.0,0.3419357175000006,0.3419357175000006,0
mp-686076,Ga6Te10Pb,1.001,-0.3398799749999996,0.0,0
mp-756297,ZnIn2O4,1.179099999999999,-1.9299988049999992,0.0294119257142861,0
mp-1029863,K15Re7N19,0.0184,-0.4577792026882927,0.0,0
mp-770975,Li4Cr5FeO12,0.021399999999999,-2.1696446197727277,0.1007567771616146,0
mp-763408,Li3Co2(CO3)4,0.673,-1.869548261190476,0.0475840615476164,0
mp-10428,Cu8SiSe6,0.409,-0.1270102947708333,0.0536710389999992,0
mp-29761,UCO5,2.260799999999999,-2.832306971964286,0.0056331746428561,0
mp-11520,YNiSb,0.2962,-0.9012042924999998,0.0,0
mp-641959,K2V8O21,1.2759,-2.3501146695564517,0.0099050072580642,0
mp-757349,LiSiBiO4,2.8189,-2.467491170357143,0.092154508750001,0
mp-21165,PdSe,0.0,-0.3242714074218753,0.0001043091666668,0
mp-5326,Yb(CoSi)2,0.0,-0.6800332160000003,0.0,0
mp-24262,KP(HO2)2,5.362999999999999,-2.237317025354405,0.0063751065625003,0
mp-770277,Li4Cr3GaO8,3.2245,-2.3804127487499995,0.0167765437500015,0
mp-7275,BaSi2,0.0,-0.3446643866666672,0.0142145966666662,0
mp-762860,LiCoSiO4,0.736499999999999,-2.339267685357143,0.0965393481428442,0
mp-558121,K4Ba(VS4)2,1.5514,-1.6272374585000005,0.0,0
mp-767884,Li3MnPCO7,4.1018,-2.4207073163696347,0.0630460521153732,0
mp-850961,LiFe2OF5,2.1569,-2.6487695754296303,0.0632896099382733,0
mp-780184,Na2Cr4O13,1.9072,-1.7091614234868429,0.0488796075986828,0
mp-771699,Sb2O5,0.9887,-1.6865517144642854,0.0790460921428568,0
mp-764417,Fe14O15,1.0187,-1.5421035271982764,0.1684753027586243,0
mp-752989,Ti8O13,0.114499999999999,-3.3694625156944435,0.0101661728571276,0
mp-761775,K2W4O13,1.7604,-2.254566847346492,0.0,0
mp-14624,K5P2Au,0.487499999999999,-0.3792944351488097,0.0,0
mp-1015076,CrN2,0.0053,0.1324873309133352,0.5754454483733316,0
mp-758324,Ti5Nb2O14,0.0,-3.318159428849208,0.0329145167124504,0
mp-777501,V2O3F,1.0937,-2.66652164999,0.0048877083333369,0
mp-6958,TlSb,0.0,0.1756572850000002,0.1832589113095237,0
mp-853241,FeNi3Sn2(PO4)6,0.0,-2.182587226626985,0.0891296641492864,0
mp-29861,K2Mn3S4,0.0,-1.0749012862499998,0.0374098205555553,0
mp-558335,Na2Pd(NO2)4,1.9466,-1.1404899803013326,0.0221000696128008,0
mp-1002210,EuS,0.0,-2.1624536495312494,0.3388958550000005,0
mp-6289,Ba2Ti(GeO4)2,3.7129,-2.909727840128205,0.0,0
mp-770566,Be(FeO2)2,1.7691,-2.2077393196428567,0.0295646396428583,0
mp-540675,SeCl4,3.0467,-0.8158749648267503,0.0,0
mp-697974,SmP3H5NO10,5.369999999999999,-2.3360470389882857,0.0,0
mp-764052,VOF,0.752899999999999,-2.801813546230001,0.0441953362500004,0
mp-764787,LiVOF3,1.834699999999999,-2.97691738872,0.0197533512896912,0
mp-20507,PbSO3,3.6372,-1.8634971570625007,0.0575905107499989,0
mp-766506,Li3CuS2,2.0526,-1.2491200728125005,0.0119448361458331,0
mp-850959,Li5Mn6(BO3)6,0.164199999999999,-2.4939018273788576,0.0287629334047423,0
mp-761820,LiFeSi3O8,3.160399999999999,-2.886555487692308,0.0413212446153679,0
mp-541094,Ta2Hg3S(O2F5)2,2.4414,-2.7064224182981262,0.0,0
mp-777085,Li4Ni(BO3)2,3.4657,-2.329252399294872,0.0384264283974307,0
mp-7193,Lu2Si2O7,4.8449,-3.7404435362500017,0.0,0
mp-774267,Na2LiMnPCO7,3.449,-2.39125177502348,0.0255224224358974,0
mp-766153,LiNiBO3,3.269999999999999,-2.1134277234027787,0.0174031487500005,0
mp-755980,SrCaI4,3.8183,-1.648964255,0.0275820612500004,0
mp-1027436,Te4Mo3WS4,0.0,-0.6617901496875002,0.1159149949999998,0
mp-2093,Pr3Al,0.0,-0.1608923474999999,0.0304783175,0
mp-754969,TmBrO,4.3469,-3.1946491154166665,0.0,0
mp-582924,Zr6Fe23,0.0,-0.170527723448275,0.0056006482758608,0
mp-14589,Hf2Si4Ni3,0.0,-0.749149252222223,0.0,0
mp-770716,Rb5FeO4,1.0088,-1.4903724975000003,0.048046011624999,0
mp-23897,Rb3H(SeO4)2,3.622099999999999,-1.6852731697005352,0.0,0
mp-621182,TlMo2Cl7O2,2.4074,-1.4695956166933335,0.0125262458134942,0
mp-974769,EuNiGe3,0.0,-0.5259479640000009,0.0,0
mp-978083,Pr2ZnAg,0.0,-0.26663771125,0.0118980450000001,0
mp-9241,HoCoC2,0.0,-0.3518623575000008,0.0,0
mp-18863,PrCrO4,0.248199999999999,-2.742915945833333,0.0,0
mp-754540,CaPbI4,2.9147,-1.1542701816666667,0.0009988550000001,0
mp-769488,Na5Fe2P2(CO7)2,1.388799999999999,-2.306889620347619,0.010761577199986,0
mp-2883,Sm2Sn2O7,2.6977,-3.0168157826136364,0.0,0
mp-850378,H11S2N3O7,4.922,-1.248944051253695,0.0194513938959417,0
mp-850397,Li4Cr2Fe5O12,1.282499999999999,-2.064069364565218,0.0530355354348026,0
mp-8250,La(NiP)2,0.0,-0.9932346152380952,0.0,0
mp-30229,Tb5C2Br9,0.764999999999999,-1.606308892604166,0.0,0
mp-642644,V2H,0.0,-0.1867229395399997,0.0,0
mp-768604,SrLaCl5,3.4167,-2.7974725134,0.0662832746428563,0
mp-23110,NaHg2IO2,1.379,-0.9478052229166668,0.0,0
mp-622570,Ti2Cu3,0.0,-0.1170037656666664,0.0031130401999996,0
mp-864654,Zn2NiRh,0.0,-0.33712433,0.0,0
mp-21249,YMnSi,0.0,-0.5853913775,0.0,0
mp-557606,SbAs3(Se2F3)2,1.8713,-1.4658827872510716,0.0636324790290183,0
mp-3956,Sr3UO6,2.207499999999999,-3.5505603427500008,0.0,0
mp-685049,IF7,1.7231,-1.62862746104125,0.0864887843750001,0
mp-850145,Li4Mn7(PO4)6,2.977299999999999,-2.571294671104669,0.0517503830487822,0
mp-998194,RbInBr3,0.0,-1.1761188599999997,0.0196540655000019,0
mp-570700,Hf3Tl2(CuSe4)2,0.5087,-0.964682452916667,0.0,0
mp-768959,Na4Sb2C4SO16,2.0394,-1.9304390982986108,0.0579788105555545,0
mp-11985,LaMgTl,0.0,-0.3709361861111111,0.0,0
mp-2721,Ce2O3,0.0,-3.7372749227499993,0.0393854104999995,0
mp-40668,NaCoP2HO7,3.0988,-2.34008688988004,0.0012599927777596,0
mp-554962,CsK2CoO2,1.675799999999999,-1.287481727083333,0.0,0
mp-771588,Li6Nb3Fe3O16,0.013499999999999,-2.346644623214285,0.1090081385267822,0
mp-7916,HfSiS,0.0,-1.3697777913541669,0.0,0
mp-752428,Rb2PrO3,0.0,-2.201941136875,0.0611228783333324,0
mp-1013898,LiMo3P3O13,1.1762,-2.4751557425267863,0.0181534189583469,0
mp-571454,LiAgC2,1.448999999999999,0.3786073087500004,0.4896011187499987,0
mp-866111,Ho2IrRu,0.0,-0.6367115412499995,0.0,0
mp-707710,SrMgUH24C3O23,2.2667,-1.7914421557194342,0.0165814872641512,0
mp-541879,Rb2Ge2S5,2.339099999999999,-1.1496005458680558,0.0,0
mp-744577,FeP2HO7,2.4135,-2.3635255675964064,0.0090754127272703,0
mp-626093,H7NO6,3.4939,-1.2202481603728574,0.0442098085714288,0
mp-1028850,Te2MoW3(Se2S)2,0.0,-0.6003421435416681,0.0630040125000004,0
mp-558958,H2O,5.461,-1.3563868403299997,0.034446653333342,0
mp-706536,Hf(MoO4)2,2.9474,-2.566881081363636,0.0300108081818173,0
mp-621112,Cs5Nb2S4Cl9,1.785399999999999,-1.9159091642795003,0.0,0
mp-17553,Ti2Mn4Si5,0.0,-0.3585618939393939,0.2151681489772734,0
mp-570972,K2Mn(NbCl3)6,1.031699999999999,-1.733607563654814,0.0117347974074082,0
mp-9322,Rb2Sn2Se5,0.8418000000000001,-0.7336196153298613,0.0,0
mp-669445,Cu2Bi8Pb6S19,0.523,-0.7514100999196428,0.0030250592142841,0
mp-774194,NaLi5Mn2P2(CO7)2,3.5457,-2.4110550994465565,0.0559534762820508,0
mp-976417,Nd3Hg,0.0,-0.1605930581250003,0.0776501387499997,0
mp-15788,LiYS2,1.919599999999999,-2.185359137656251,0.0,0
mp-625920,Ta2H4O7,0.1807,-1.9273341437100011,0.5210981876923073,0
mp-761629,Li17V16O32,0.6445999999999991,-2.4442644581538455,0.0189987749743574,0
mp-754717,RbBrO4,3.0694,-0.8550414883333328,0.0342211972916688,0
mp-18385,Lu2Si2O7,5.199199999999999,-3.720838939886365,0.0196045963636404,0
mp-767239,Mn5O3F5,0.0,-2.4913017445769223,0.0954610999999872,0
mp-669547,Re2Si,0.0,0.1088387412499993,0.3098363670833333,0
mp-675066,Nb3IrSe8,0.0,-0.6962794803125002,0.0160092272916667,0
mp-541567,VSbO4,0.0,-2.242842795833333,0.0,0
mp-16793,Be3Cd4Si3SeO12,2.8506,-2.5797997195040767,0.0,0
mp-18463,RbZnPO4,3.702699999999999,-2.5290020972278917,0.0,0
mp-28934,Ta2Te5Pd3,0.0,-0.4232193712499992,0.0,0
mp-774246,Nb9VO25,1.9967,-2.9869732746071427,0.0014542156428571,0
mp-753160,BiOF,3.3537999999999992,-2.208004943313333,0.0345681274999991,0
mp-17410,CsEr3Se5,1.543799999999999,-1.8396309431076383,0.0,0
mp-531317,P4N6O,4.162699999999999,-0.7972564666282679,0.0113684968181786,0
mp-978744,SmBi3,0.0,-0.3816483606250003,0.0776743187499988,0
mp-12933,TmTaO4,4.1068,-3.769574110833332,0.0,0
mp-1667,Co2Ge,0.0,-0.0930334833333338,0.0514333808333331,0
mp-754822,Li4Ti3Sn5O16,0.579299999999999,-2.4779646498214283,0.1012263700892823,0
mp-14276,RhPb2F7,1.7702,-2.385834214333,0.0,0
mp-753881,LiAg2F6,0.0,-1.7795805730155558,0.040450884444446,0
mp-699331,Li3(WO3)8,0.0,-2.157279065142856,0.059419194285736,0