mpid,formula,BG,FE,e_hull,fidelity
mp-1008734,ThH2,0.0,-0.5689150890799995,0.0101918933333333,0
mp-28145,Rb2PdCl6,1.2868,-1.561215336617778,0.0,0
mp-1019275,TbCuSn,0.0,-0.5673376477777777,0.0,0
mp-20938,RbIn5S8,1.2599999999999991,-1.0492242780357142,0.0006025485714289,0
mp-722348,RbP(HO2)2,4.4694,-2.167619180979405,0.0744211709374988,0
mp-704736,K6U2Mo4O21,2.1736,-2.6034113965530303,0.0,0
mp-867868,Sm2AgIr,0.0,-0.5049842637499999,0.0,0
mp-27488,Ta3N5,1.214099999999999,-1.2868548039874987,0.0,0
mp-973976,LuBr,0.0,-0.9301568175,0.2821324058333356,0
mp-600002,SiO2,5.4577,-3.2668918054166665,0.0178211020833334,0
mp-632402,LiCaUF8,0.383899999999999,-3.8312504890472727,0.0254490563636391,0
mp-568539,LaInRh,0.0,-0.7385455811111115,0.0,0
mp-557933,SiO2,5.5245,-3.27678881,0.0079240975000001,0
mp-3880,Cr2CuSe4,0.0,-0.4792827377678575,0.0,0
mp-764622,LiMnV(P2O7)2,1.2189,-2.606906190198775,0.0091252607936382,0
mp-17679,RbNb(PO4)2,3.0886,-2.8430774238492074,0.0007916822916653,0
mp-723120,BaH6C4O7,2.6483,-1.4361885383594446,0.156990924166668,0
mp-24980,TmFeO3,1.576199999999999,-2.9879764467499994,0.0141253263333478,0
mp-569114,BaAg2SnSe4,0.0602,-0.735295039921875,0.0,0
mp-643394,NaInH8(NF3)2,5.0077,-1.7397544564366667,0.0094486675,0
mp-772863,Na2Ge2O5,3.0053,-2.143213668472222,0.0208132025396832,0
mp-8253,Na5ReO6,2.252799999999999,-2.079627639791666,0.0,0
mp-35208,NdOF,5.2617,-4.122477561646668,0.0553817200000015,0
mp-566312,Na2DyMoPO8,4.1989,-2.8175654344047625,0.0039352694230752,0
mp-775971,Li5Sn5(PO4)6,0.256499999999999,-2.4236836800892867,0.0972005744895767,0
mp-1014333,C3N,0.0,0.6505951387800017,0.6505951387800017,0
mp-743605,ZrCrCu2(PO4)3,0.9956,-2.52380340206767,0.0459298889473673,0
mp-1347,Th3P4,0.2601,-1.4366356239115643,0.0,0
mp-534773,Na2Al17Si11B7(H3O31)2,4.069699999999999,-3.0945118230084447,0.018986286193761,0
mp-12701,NdSn2,0.0,-0.6362409658333329,0.0,0
mp-1030270,TeMoWS3,0.443299999999999,-0.9656101011979176,0.0603897866666658,0
mp-10694,ScF3,6.0729,-4.319137289642501,0.0,0
mp-626219,H5ClO6,4.7683,-1.011350680321666,0.0515765826041594,0
mp-973676,HgS,0.0,-0.4612005545312496,0.0029672175000001,0
mp-769373,Na6Sn2P(CO4)4,0.0,-2.0498393718308705,0.0741598752155185,0
mp-675271,Na2CO5,0.0,-1.2228092392187495,0.3446451921875004,0
mp-765260,LiVOF2,1.3648999999999991,-2.912829690476,0.0797723458888857,0
mp-861666,LiRu2W,0.0,-0.0553121400000016,0.0,0
mp-703517,NaMgPH12O11,0.318,-1.661760765972509,0.0797084324519241,0
mp-773770,LiMnF4,2.1837,-2.9172572697033328,0.0329990345833222,0
mp-779662,Zr5Sn3O,0.0,-1.113920650694446,0.0036068510555544,0
mp-24423,SrHBr,3.8289,-1.4441687612066665,0.0,0
mp-764566,LiFe8(BO3)8,1.239999999999999,-2.307802810569105,0.0742094871341372,0
mp-558226,H2O,5.556800000000001,-1.357395495052222,0.0334379986111113,0
mp-774087,Na3CoO3,1.615999999999999,-1.5959967916071431,0.020315843928568,0
mp-559233,SeS4N3Cl5,2.3783,-0.4631006525602884,0.1028174801568999,0
mp-1027036,Te6MoW3S2,0.0,-0.3252506915104168,0.1111542445833322,0
mp-9457,Ca3ReO6,0.0,-2.93550837725,0.0,0
mp-18129,La2ZnGa2S6O,2.5862,-1.9296718863020832,0.0103371861458345,0
mp-560578,RbTeNO3F4,3.3838,-2.018933702089,0.0,0
mp-601820,Fe3Co,0.0,-0.0450445525000002,0.0,0
mp-540883,As2P2S7,2.6386,-0.6130254813298163,0.0,0
mp-861869,CaLuRh2,0.0,-0.6632195525000002,0.0166120891666663,0
mp-759848,Bi4O5F2,2.4866,-1.9037880648754533,0.0710862747727256,0
mp-1743,Mo5As4,0.0,-0.273366958888889,0.0,0
mp-763989,Mn3(OF2)2,0.0,-2.5474328094599996,0.0476444163888905,0
mp-17889,KNa2(PO3)3,5.0463,-2.6717054903690487,0.0035395986111126,0
mp-764474,Li5Fe8(BO3)8,1.4214,-2.3814918785185184,0.0366067549305588,0
mp-556679,Na2Ca3Si3O10,4.3798,-3.233026089305556,0.0,0
mp-676295,Li3MnP2,0.0,-0.4273249626984115,0.2442393474999997,0
mp-8632,V,0.0,0.2522530799999991,0.2522530799999991,0
mp-770163,Cr2(SO4)3,2.576899999999999,-2.129378178952206,0.0104590611764709,0
mp-644264,Ca4Mg4Fe3H22,1.4456,-0.5066885357466671,0.0,0
mp-5145,Ag3AsSe3,0.845299999999999,-0.09609201796875,0.0129134483333346,0
mp-672950,Sb(PO3)4,0.026699999999999,-2.3729965310224097,0.0545715846323391,0
mp-20315,Ti2InC,0.0,-0.6736527314583336,0.0,0
mp-861293,Li8Ni(O2F)2,3.012,-2.1394432771586667,0.0753650749999987,0
mp-3626,SrZrO3,3.416,-3.6714003147500014,0.008162528999998,0
mp-566135,NiB4O7,3.3555,-2.4991966837847235,0.0121379291203673,0
mp-772942,Cu3(P2O7)2,0.0,-1.9894893352324268,0.0531078586904687,0
mp-861665,LiTmIn2,0.0,-0.37179831,0.0,0
mp-20970,NaMnSb,0.0,-0.1358349966666665,0.0830528429166665,0
mp-17388,Yb3Cu6Sn5,0.0,-0.3729129060714281,0.0014661390136061,0
mp-999392,NbCr3,0.0,0.3511407174999999,0.3791649574999969,0
mp-780518,Li5(NiO2)4,0.0,-1.3795517088235292,0.0644250079411756,0
mp-5779,Sm3RuO7,0.0,-3.1343813528409097,0.0049668434090914,0
mp-861145,Sm27Y5O48,3.773,-3.896016607000001,0.0004488900390615,0
mp-780818,TiVO4,0.0,-2.9062131752777773,0.095339432083314,0
mp-570590,CdBiSe2Br,1.3868,-0.5579114244374995,0.0278386080000006,0
mp-22583,KInP2S7,2.0423,-0.9319976113298156,0.0,0
mp-774994,Li5Fe8(BO3)8,1.6197,-2.371994980296296,0.0461036531527812,0
mp-28551,H8CN6,3.6266,-0.2233450780493333,0.1618013883044442,0
mp-755794,Rb3LuO3,2.039399999999999,-2.2717927126785717,0.0095330628571437,0
mp-29387,K5SnBi3,0.003299999999999,-0.3511593833333333,0.0014432411458331,0
mp-574580,Tl4Pd3Cl10,1.1367,-1.0962470720647062,0.0170909753431351,0
mp-15046,Sb2(PSe3)3,1.4601,-0.1363697838663899,0.0,0
mp-13688,Ge2Mo,0.0,-0.1607824999999998,0.0,0
mp-768941,Sr3TeO6,3.0317,-2.76614329275,0.0,0
mp-1018744,LaPbAu,0.0,-0.6350524616666671,0.0094591037121221,0
mp-570456,Eu(CoAs)2,0.0,-0.653547386999999,0.0,0
mp-767876,Li3MnPCO7,4.1411,-2.420825405408096,0.0629279630769117,0
mp-11031,CeAl7Au3,0.0,-0.4914872281818184,0.0,0
mp-17148,Na3GaSe3,2.0823,-0.9721211129687504,0.0,0
mp-644827,TePCl9,1.7973,-1.10410546976684,0.0,0
mp-672356,MnSbPt,0.0,-0.1002902083333339,0.2690134400000001,0
mp-984555,CsDyS2,2.2247,-2.1661839249479176,0.0,0
mp-565253,VH16C6N6O7F2,2.3148,-1.0340247596928938,0.1031363833319618,0
mp-560193,SnSe2(Cl4O)2,2.7633,-1.1442078592898082,0.0,0
mp-569337,Na4Si2Te5,1.8779,-0.6063170901136362,0.0,0
mp-764186,Mn6O5F7,0.141699999999999,-2.44015842863,0.0568552675694569,0
mp-999557,Mn2SnRu,0.0,0.0796671700000004,0.1669332286363634,0
mp-561288,K3LiIrO4,0.398499999999999,-1.6619203627777768,0.0,0
mp-3693,HoBPd3,0.0,-0.6300399903333336,0.1208402838181825,0
mp-1027292,MoWSeS3,0.6067,-1.1146866017968762,0.0111827949999989,0
mp-762824,Li2MnPO4F,3.6651,-2.7306316014161385,0.0415199498611107,0
mp-561974,Zr7(NO2)4,2.7922,-3.0356005936589483,0.0282327586842114,0
mp-27145,Ca5Bi3,0.0,-0.827634845,0.0,0
mp-762011,LiCrCoO4,0.5632,-1.901839847142856,0.0384713384523811,0
mp-17926,Zr3Ni3Sb4,0.437199999999998,-0.6504065999999995,0.0,0
mp-540007,MnPO4,0.460099999999999,-2.45505320484254,0.0027754779166748,0
mp-27384,AgIO3,2.4375,-0.7286099015000005,0.0,0
mp-777024,CeNiO3,0.9323,-2.64701842375,0.0764528829999928,0
mp-28731,V6C5,0.0,-0.5437663046212117,0.0,0
mp-1929,NdB6,0.0,-0.4762381682142853,0.0,0
mp-554701,SbP(OF3)2,4.3964,-2.700790061773524,0.0,0
mp-549589,LaZnAsO,0.5760000000000001,-2.0653189353125003,0.0,0
mp-698600,Li11Mn13O32,0.0,-2.0360305380799995,0.0125910860156235,0
mp-763939,VOF,0.9899999999999992,-2.7905763597022224,0.0554325227777789,0
mp-764386,Li6Mn(FeO3)2,2.6299,-1.9579542212306655,0.0377371176666665,0
mp-1018946,PrZnGa,0.0,-0.53172189,0.0,0
mp-865094,HfNbTc2,0.0,-0.4323679737500008,0.0,0
mp-722401,ZnH16C6S2(N2Cl)2,4.1405,-0.4858052890995159,0.1178508908225799,0
mp-696329,RbCa(H2N)3,1.8986,-0.6903587208054541,0.0,0
mp-567859,Sm(FeSi)2,0.0,-0.6487874364999996,0.0,0
mp-763607,LiP(WO4)2,0.0583,-2.327965379007935,0.0716866477991473,0
mp-557432,GeClO2F5,1.7275,-1.8974557224122224,0.0,0
mp-767870,Li3NiPCO7,3.3582,-2.2209573205265563,0.0769601832692208,0
mp-4672,TbPS4,2.170199999999999,-1.4845072644047632,0.0,0
mp-7542,GeP3,0.0,0.0231124964285713,0.0231124964285713,0
mp-976872,NaNi3,0.0,0.5250600412499997,0.5250600412499997,0
mp-775037,Li3V4SnO12,1.398,-2.3728701115000006,0.0691910462500002,0
mp-23432,BaClF,5.4426,-3.60397968315,0.0,0
mp-18845,Ba2FeWO6,0.0,-2.606284485750001,0.0269929397500003,0
mp-645543,Pr3(Ge3Pt2)2,0.0,-0.9180311871153848,0.0,0
mp-850492,LiMn(Si2O5)2,2.6047,-2.955367975841249,0.0638354264285752,0
mp-569548,CsAuBr3,0.6515000000000001,-0.9106600469999996,0.0,0
mp-570119,Yb7Au3,0.0,-0.6764566009999996,0.0,0
mp-975905,Mo3I,0.0,0.9773247624999994,0.9773247624999994,0
mp-28003,H6OF4,7.3988,-1.7798906261572731,0.0,0
mp-7472,RbAuO2,1.4611,-1.147018759375,0.0,0
mp-504815,Re5(NiAs6)2,0.0,-0.1299061515789473,0.0,0
mp-7927,Nb4N5,0.0,-1.1630341846555534,0.024125511280447,0
mp-24121,Tb(HO)3,3.584,-2.3203684575633337,0.0157457889285703,0
mp-27979,LaI3,2.0643,-1.5471306450000002,0.0,0
mp-557175,ZnS,2.0281,-1.1396942281423614,0.0006091263888854,0
mp-1029826,Li6OsN4,0.0,-0.5472573517745448,0.0,0
mp-625374,H6N2O,3.8792,-0.673384145673703,0.1111824075088776,0
mp-25490,Li3CoPCO7,2.7458,-2.3192769949496346,0.0381694703846076,0
mp-556744,TlInSiS4,2.4359,-0.9952472835714292,0.0,0
mp-753152,LiCuCO3,1.6143,-1.6307540372916662,0.1077360710416677,0
mp-549333,NdBi2IO4,1.265399999999999,-2.2408525240625004,0.0,0
mp-617167,CoI(NO)2,1.5959,-0.4029027745433318,0.3158429407341261,0
mp-2873,Ce(CrB3)2,0.0,-0.6217754655555565,0.0,0
mp-771866,LiV(TeO4)3,1.423499999999999,-1.6470847744117654,0.0185188016176462,0
mp-555505,Na2YbC2O6F,0.0,-2.418653177599167,0.0003746589062556,0
mp-554231,Nd5Cu5O13,0.0,-2.4498999692934795,0.0711719500000089,0
mp-559346,K3Nb3Si2O13,2.1454,-3.0064603795833342,0.0003583683333321,0
mp-764717,Li2MnF6,2.9997000000000003,-2.7967611086777766,0.0817311837037033,0
mp-556172,SiPb4(BrO)4,3.1492,-1.6954810267307694,0.0,0
mp-759673,LiBiP2O7,4.1874,-2.5104083711309526,0.0504803657575783,0
mp-13380,HoZnRh,0.0,-0.7433065558333329,0.0,0
mp-1025810,Te2Mo2W(SeS)2,0.0,-0.6788183561458333,0.0559501983333312,0
mp-764303,Mn2OF4,0.1033,-2.5354563004185717,0.0820361125595257,0
mp-582723,Cs3AlAs2,0.7389000000000001,-0.5043144225000002,0.0,0
mp-570759,Tb4Bi3,0.0,-0.7434651990476192,0.0290206175000005,0
mp-28599,Na4Br2O,1.983099999999999,-1.548466947321429,0.000311334285715,0
mp-643460,SnHg2(SBr)2,1.9584,-0.6097775986607142,0.0,0
mp-775606,Li4Mn3Co2Sn3O16,0.0,-1.9548015938528576,0.0730926708333266,0
mp-25071,MoPb2O5,2.9254,-1.8865646951562496,0.0,0
mp-780039,Na2FePCO7,2.4651,-2.306227835362103,0.0,0
mp-573109,Sm2Se5O13,3.6065,-1.9992318810859373,0.0,0
mp-22179,YTiSi,0.0,-0.6730557880555553,0.0,0
mp-559616,PH3CS3,2.1394,-0.4748163448303418,0.0205154242968745,0
mp-19889,ThPb,0.0,-0.2798120824999994,0.0,0
mp-676497,Ce2UTe4,0.0,-1.1162411521428572,0.0092714536309514,0
mp-680640,Ca11N8,0.0,-0.717088516002105,0.2011634671381577,0
mp-865985,CdPd3,0.0,-0.26163389375,0.0,0
mp-19,Te,0.1856,0.0,0.0,0
mp-567551,SiC,1.9716,-0.2055670718750004,9.712708332720864e-06,0
mp-754109,PrAsO4,3.7516,-2.7904710358333333,0.0163352291666676,0
mp-763614,LiMn(CO3)2,0.8051,-1.937934338846,0.0542868993749969,0
mp-19658,Rb2Cr2O7,2.765,-1.956562468977272,0.0009567715909097,0
mp-23370,CuW3Br7,2.063799999999999,-0.4620350899999986,0.0,0
mp-861607,KNaNdTaO5,3.5102,-3.13222111375,0.0,0
mp-1009548,PdN,0.0,0.9452912738100006,0.9452912738099996,0
mp-631522,LaOs2Rh,0.0,0.7577767074999997,1.1262426575000006,0
mp-975015,Rb3Ga,0.0,0.2045139625000001,0.2562948505555558,0
mp-722864,H12PtN6(ClO3)2,2.1975,-0.8362056789533335,0.176134624224197,0
mp-12450,LiNd2OsO6,0.4066,-2.8371349662499994,0.0,0
mp-619836,Nd4V5(Si2O11)2,0.7793999999999991,-3.2023483096428595,0.0199088396339295,0
mp-767363,Li3Mn2(FeO4)2,0.3168,-1.9090850107946675,0.1738343203333547,0
mp-558931,SiO2,4.5368,-3.0226889823611116,0.2620239251388874,0
mp-567492,Ce2WC2,0.0,-0.2764182959999999,0.0,0
mp-1020631,ZnGeO3,1.3775,-1.90714980275,0.1070924736666665,0
mp-705713,Bi14WO24,2.5441000000000003,-1.7166195917948726,0.0084319153846141,0
mp-705333,LiMo(PO4)2,2.6869,-2.5151392713492062,0.0333879110416441,0
mp-15617,Cr5B3,0.0,-0.4249430474999993,0.0,0
mp-20539,ScIn3,0.0,-0.3049079799999994,0.0,0
mp-780037,LiMn2Si2O7,0.7164,-2.6532586029725,0.0854674820833292,0
mp-684104,LiSb2P5O16,3.295099999999999,-2.4492019302281736,0.0470760775000194,0
mp-757845,LiNb(PO3)4,1.0876,-2.5795333069378312,0.1034892700502556,0
mp-761568,Rb2CoO3,0.466999999999999,-1.5039073931250009,0.0280097037499889,0
mp-571586,Nd(SiOs)2,0.0,-0.6978636194999993,0.0,0
mp-560265,CaCO3,4.9436,-2.6913623172500007,0.0080930580000062,0
mp-763019,LiMnF3,3.0923,-2.989724824656,0.0750260612499991,0
mp-997004,CaAgO2,0.0,-1.9119186006249995,0.0,0
mp-777426,Na5Co2As(CO4)4,0.0,-1.8101494875,0.0554430353393113,0
mp-1028590,Te2W2SeS,0.0,-0.4346353287760429,0.0740205379166667,0
mp-19514,Sr2CrO4,1.968299999999999,-2.7974244878571426,0.0,0
mp-782717,Ta2CrNO5,1.0376,-2.6923019859588866,0.0647528694444492,0
mp-12453,HoCuS2,1.6085,-1.7093923432812508,0.0,0
mp-763022,FeOF,1.718299999999999,-2.217381064980001,0.0633028808333318,0
mp-1019745,K2Ca3Si3O10,4.7468,-3.209772432361111,0.0095385719444438,0
mp-769119,YbScO2,0.0,-3.4198485431249988,0.0645586644791667,0
mp-7137,LiTbO2,4.5467,-3.2864912920833333,0.0,0
mp-978849,Sm3Mg,0.0,0.0101447481249996,0.06185918125,0
mp-765889,Ga2CoO4,1.7927,-2.0487729364285716,0.0,0
mp-7479,RbYbO2,0.0,-2.269086673125,0.1747205662499995,0
mp-626295,Ba(H8O5)2,3.5473,-1.456832025756296,0.0392937664814834,0
mp-754165,ScGaO3,2.6997,-3.1146028477500014,0.017860298375,0
mp-730823,P6H24N6O19,0.0,-1.5160669658814796,0.0906336218044803,0
mp-27331,K3GeTe3,1.0607,-0.8032821614285715,0.0,0
mp-14245,Dy2Si5Rh3,0.0,-0.9745530478333329,0.0,0
mp-558206,K9U6BiO24,1.7042000000000002,-3.1015038338749994,0.0,0
mp-10908,AlRe,0.0,-0.0098304574999996,0.2357661084090914,0
mp-3503,Li6WN4,3.057399999999999,-0.923266124956364,0.0,0
mvc-10947,Al(FeO2)2,0.0,-2.3542162392857144,0.0527549803570863,0
mp-631334,LiTc2Pd,0.0,0.5687206549999999,0.7837984024999995,0
mp-5704,Tl3AsS4,1.6893,-0.6278812695312501,0.0,0
mp-767497,Li9Ti7Nb5O30,0.0,-3.039956682238561,0.054178207352951,0
mp-2302,AsRh2,0.0,-0.4653380783333329,0.0,0
mp-21580,EuSnF7,0.010199999999999,-3.2932875573144447,0.0,0
mp-864986,DyBr2,0.0,-1.528310215555555,0.1248185825925931,0
mp-17504,Sr3(GeAs2)2,0.780899999999999,-0.7977859483333332,0.0,0
mp-698205,LiB(HO2)2,3.5543,-1.900364764550833,0.0,0
mp-31203,Pr(SiAg)2,0.0,-0.4391624359999993,0.0,0
mp-11280,TiBe12,0.0,-0.0592182751282051,0.0857225125000002,0
mp-1029938,K3W2N5,2.1497,-0.679230959440001,0.0,0
mp-22382,TbInAg2,0.0,-0.3776395683333331,0.0,0
mp-569842,Ba3SiI2,0.250399999999999,-1.1311774608333336,0.0,0
mp-5112,Pr(CoSi)2,0.0,-0.7350186859999994,0.0,0
mp-17922,Ca2P2O7,5.5138,-3.2284302243127714,0.0,0
mp-1003638,NaMn8O16,0.0,-1.8851020521071995,0.0,0
mp-6496,Ba2Na(CuO2)3,0.0,-1.7957942464583332,0.0,0
mp-27226,MgCu2O3,0.0,-1.5980277431250005,0.0593107625000008,0
mp-776665,Li2MnP2O7,4.0492,-2.6592627740333725,0.0295052244791662,0
mp-763041,Fe2O3F,0.0,-1.8425470874900007,0.083697021979165,0
mp-995203,H6PbCI3N,1.757499999999999,-0.5034466678416673,0.0512899240624999,0
mp-608439,Pb2O3,1.0516,-1.27887637775,0.1388557449999918,0
mp-20077,USe2,0.0,-1.0932143748958332,0.0322501785,0
mp-21405,InSe,1.079599999999999,-0.4908032280468748,0.03557385625,0
mp-6955,KGeNO,2.6817,-1.2923334846575,0.0,0
mp-867347,Al3Tc,0.0,-0.3147555899999998,0.0,0
mp-765528,Li2VOF3,1.8385,-2.963383116402857,0.0830126804563429,0
mp-13753,SmP5O14,5.379,-2.8431814172738106,0.0,0
mp-28027,AsF3,5.359999999999999,-2.4945689133925,0.0,0
mp-865013,EuAgAu2,0.0,-0.4787876312499994,0.0903872837500001,0
mp-9612,La3Ir3O11,0.0,-2.4581600637499985,0.0,0
mp-556020,Li3AlF6,7.915100000000001,-3.494140601714,0.0054137370000004,0
mp-774863,LiNi9S10,0.0,-0.6711035700312508,0.105127494218749,0
mp-631413,Re2PCl,0.0,0.9554970346611906,1.535285686958333,0
mp-772395,LiV(OF)2,2.2105,-2.728781841646667,0.0,0
mp-31582,CoP2O7,0.025799999999999,-2.113960909244048,0.0799660214375164,0
mp-2670,Nb3Ga,0.0,-0.1639410237500005,0.0556272656250005,0
mp-773999,MgCr3Se3(SO8)3,0.154899999999999,-1.812050966999081,0.0,0
mp-17243,Pr3CuSnSe7,1.2305,-1.317159850846355,0.0,0
mp-764947,RbV4O10,0.0,-2.3709979535000003,0.0312084450000114,0
mp-774016,Li2NbV3O8,1.1083,-2.6456529514285707,0.0103142869196322,0
mp-558014,S,2.4585,0.0159130005208331,0.0159130005208334,0
mp-10849,AsPdSe,0.0,-0.3549164586979169,0.0,0
mp-554957,Te3I(OF5)3,1.9785,-2.1164660491636367,0.0176150113920439,0
mp-6426,Na2MgSiO4,3.7685,-2.8205937871875,0.0022324503125004,0
mp-763346,Li2Co2C2O7,2.1647,-1.8210978081730764,0.0811079063461504,0
mp-642740,CsLi(H2N)2,1.996999999999999,-0.5999678990716664,0.0,0
mp-850078,Co6O7F5,0.0,-1.572132149427779,0.087274564513887,0
mp-566578,Na4Ni5(P3O11)2,3.6644,-2.275826304083012,0.0,0
mp-11552,TiPt,0.0,-0.7908435333333337,0.1372016074999997,0
mp-541765,Ba9(NbN6)2,1.261099999999999,-0.8862628166765205,0.0515716726086958,0
mp-735808,Na2Ca29ZrSi16(O7F2)8,2.3014,-3.062140853325334,0.5476588282708299,0
mp-21515,Fe3S4,0.003499999999999,-0.7548353737500011,0.1345966278571424,0
mp-765950,LiFePO4,3.5322,-2.4849005870493195,0.06667636267857,0
mp-866066,B2S3,1.5239999999999991,-0.7295429891041671,0.0975460012500004,0
mp-631535,BeW2Cl,0.0,0.8724419854349996,1.6122541064062492,0
mp-623044,Ce3Si2Rh3,0.0,-0.9085658040625004,0.0108407717708276,0
mp-1025702,Te2Mo(WSe2)2,0.1234,-0.4361478704861115,0.0270708294444439,0
mp-978984,TmMgPt2,0.0,-1.0669457749999998,0.0,0
mp-3835,Ba(Mo3S4)2,0.0,-1.2436961681666674,0.0038679802500096,0
mp-10993,ErCuAs2,0.0,-0.7990744512499992,0.0,0
mp-765056,Li2VCr(P2O7)2,2.177399999999999,-2.713935443479436,0.00080294560607,0
mp-12449,LiPr2OsO6,0.406499999999999,-2.82097746175,0.0,0
mp-555211,SiO2,5.6207,-3.2738700424999987,0.0108428650000007,0
mp-566537,Sm3BWO9,3.8084,-3.3623657286011897,0.0,0
mp-135,Li,0.0,0.0,0.0,0
mp-743988,Na3CrH14(C3O8)2,3.597,-1.4763708625169998,0.0990476555000086,0
mp-776018,SrTiO3,1.7362,-3.529835192083333,0.0393393689999985,0
mp-571442,YI3,3.0417,-1.441665701875,0.0,0
mp-765842,LiMnPO4,3.3736,-2.568662922722176,0.0814953042857151,0
mp-757551,Li3Sn3(PO4)4,0.252399999999999,-2.4752692727197805,0.0643273737660177,0
mp-760179,Cu3(OF)2,0.0,-1.2825212335542864,0.0401125635714301,0
mp-9804,KHo(CO3)2,4.2582,-2.594385915250001,0.0,0
mp-734045,Cu2H2Se2O7,0.196499999999999,-1.1554315937059616,0.0152090715384618,0
mp-683906,Yb5Cu11Sn8,0.0,-0.365883435625,0.0,0
mp-673685,Li17(MnAs2)4,0.0,-0.5269866003448271,0.0733722011206898,0
mp-19426,CaWO4,4.3443,-2.727064415,0.0,0
mp-13042,NaSr3TaO6,3.8787,-3.183620869772727,0.0,0
mp-767575,Li2V(SiO3)2,1.892199999999999,-2.784765952954545,0.0812094005332157,0
mp-21710,CaGeAu,0.0,-0.7201032805555561,0.0,0
mp-759303,CsB10H13C,4.8431999999999995,-0.3005547713490671,0.0531701494924234,0
mp-31348,Sc2In,0.0,-0.3807928116666659,0.0,0
mp-19896,Li2GePbS4,2.2649,-1.1453860464062506,0.0,0
mp-28464,Re3(TeI)7,0.846299999999999,-0.1583145208823533,0.0,0
mp-653981,Zr6NiCl15,0.0,-2.0457135194954543,0.0,0
mp-28279,Gd2NCl3,2.139999999999999,-2.4683098361933333,0.0,0
mp-973364,Mg,0.0,0.0215100325000001,0.0215100325000001,0
mp-555396,Mg2PClO4,5.0406,-2.9099658020444044,0.0159485893750002,0
mp-1016874,SiHgO3,0.0,-1.73601939475,0.4934680515000007,0
mp-30722,ScHg3,0.0,-0.2257290737499999,0.0,0
mp-567629,CsPbBr3,2.012099999999999,-1.3278389710000005,0.0,0
mp-772769,Na2Ge2O5,3.1185,-2.1418384401388884,0.0221884308730171,0
mp-765495,Li4CrFe3O8,1.7114,-2.155859571875,0.0017243240625015,0
mp-22592,CaTi4(CuO4)3,0.0,-2.711497859583333,0.0542225888124887,0
mp-6494,K2Ca(CO3)2,4.3436,-2.4065545911363646,0.0,0
mp-489,Ge4Ir,0.0,-0.1694907139999998,0.0064351700000004,0
mp-851017,Na2CoO3,0.4148,-1.5089248072916683,0.0317555447303972,0
mp-2054,TbHg,0.0,-0.4795654966666665,0.0,0
mp-3076,LaSnPt,0.0,-1.0543520175,0.0262130741666659,0
mp-780724,LiSbP2O7,3.6412,-2.4618540286309525,0.0688071314393932,0
mp-5065,Al2SiO5,5.403799999999999,-3.37164324328125,0.0194449015624993,0
mp-771421,Na3Li3Mn2P2(CO7)2,3.4453,-2.40329424252348,0.0302247476923067,0
mp-775440,Li2Cr3NiO8,0.601699999999999,-1.9655101960714287,0.0554943120238107,0