mpid,formula,BG,FE,e_hull,fidelity
mp-771526,Li3FeSiBO7,0.0,-2.474675072724359,0.0712970007211524,0
mp-631331,Si2HgTe,0.0,0.6465841349999999,0.730883355,0
mp-684652,BeF2,6.800199999999999,-3.3467315513488884,0.223525576388889,0
mp-16965,LaTm(Ge2Ir)2,0.0,-0.8233468537499995,0.0,0
mp-554097,Sm3CuSiS7,1.655699999999999,-1.935175482161459,0.0,0
mp-9768,BaSb2Pd,0.0,-0.8044889000000001,0.0,0
mp-763990,V3O5F,0.357,-2.572382583604445,0.0366483999999935,0
mp-984745,CsSnO3,0.0,-1.55308700175,0.2636802893333341,0
mp-542760,FeP(H2O3)2,2.5976,-1.90895951750627,0.0022833691666681,0
mp-540349,FeP2O7,0.0628,-2.3260204854940474,0.0505011149791672,0
mp-531175,Cd(GaO2)2,0.6883,-2.014858050892857,0.034884279821429,0
mp-867649,LiTi(Si2O5)2,0.5326999999999991,-3.1365771283854165,0.0842206799479079,0
mp-758035,Li3Ti3(PO4)4,0.0,-2.8983819004761915,0.0796545329093358,0
mp-5760,NdSF,1.2363,-3.381207912584168,0.0,0
mp-767549,P4WO12,3.0049,-2.4787865695518216,0.0245063873529263,0
mp-6915,As2PdO6,0.0,-1.3876565263888887,0.0157150308333351,0
mp-21086,Fe2GeS4,0.404399999999999,-0.6516542030357145,0.1640304060714275,0
mp-770242,LiCrBO3,2.1998,-2.4421744459027783,0.0482620390476205,0
mp-24438,K2MgH12(SO7)2,5.196,-1.8455153136795164,0.0011516304032275,0
mp-773512,Tm2WO6,3.7668999999999992,-3.339500167500001,0.0106890519444462,0
mp-615141,Pb(ClO2)2,1.1622,-0.8152101530742856,0.1463729509523803,0
mp-22955,LiIO3,3.6522,-1.3901676967500003,0.0090894839999959,0
mp-31950,LiMn(PO3)4,1.7367,-2.5771937154633866,0.0161377368055566,0
mp-556098,NaFeF4,3.3274,-2.8957481228766664,0.0,0
mp-763536,Li4MnSb2WO12,1.1039,-2.0958711177980005,0.0730045805000001,0
mp-763713,Cs(WO3)3,0.0,-2.247459177019231,0.0,0
mp-767997,LiNiPO4,3.3747,-2.224559644370749,0.0679948628571462,0
mp-30523,Ta3As,0.0,-0.3242203812499991,0.0,0
mp-779992,Fe5(O4F)2,0.0,-1.7471507328253353,0.1082054093750013,0
mp-763581,Li8(FeO2)5,0.0,-1.9182913175000005,0.0887003856521735,0
mp-979988,YbSm3,0.0,0.0694173006249996,0.0694173006249996,0
mp-866028,Dy2Ge5Rh3,0.0,-0.7852719803333337,0.0,0
mp-574029,KC4N3,3.7393,-0.0402067758924999,0.2580734409374994,0
mp-27403,LiUF5,0.260799999999999,-3.7569382965642864,0.0,0
mp-772320,Li2CoSiO4,2.9162999999999992,-2.4670942787500003,0.0698780912499934,0
mp-28900,Cd2As3Br,0.768099999999999,-0.2850222599999998,0.0002813854166672,0
mp-540433,Li2Fe3(P2O7)2,3.8427,-2.5186272530383023,0.0331418332608759,0
mp-14052,Ca3In2(SiO4)3,3.668,-3.0931557496250006,0.0085544273749995,0
mp-973732,LiHo3,0.0,0.19373252375,0.19373252375,0
mp-1002080,CsLiICl,3.3604,-1.569982588315,0.2666216875000002,0
mp-15868,Co4SnSb12,0.0,-0.1180021461764711,0.0549916226470594,0
mp-12580,Li2CdSn,0.0,-0.3213190349999997,0.0,0
mp-782681,FeOF,1.1254,-2.205469336646668,0.0752146091666645,0
mp-7181,CsSr2Ta3O10,2.0452,-3.3767666289062497,0.0,0
mp-5111,YbCuGe,0.0,-0.545446438333333,0.0,0
mp-775621,MnOF,0.0,-2.3712484528,0.0277017137499946,0
mp-21251,UGa5Ni,0.0,-0.3173270271428571,0.0,0
mp-557040,Lu(PO3)3,5.6663000000000014,-3.0504510651694146,0.0053380274679497,0
mp-21748,TbSi3Rh5,0.0,-0.9762507253703704,0.0,0
mp-765036,Li2MnOF3,0.5323,-2.7530677693971426,0.0926995580357212,0
mp-762402,Li2Cr(SiO3)2,1.4258,-2.745023130681818,0.0907380481818247,0
mp-861683,Mn3As(HO2)4,1.2746,-1.7813111581162504,0.0,0
mp-606393,NbBr3O,1.9611,-1.5026256597499998,0.0,0
mp-632176,TaTcPb2,0.001699999999999,0.7289221399999999,0.97962724,0
mp-19803,CdIn2O4,0.9137,-1.873294959285713,0.0,0
mp-1808,Ti2Ni,0.0,-0.2754583019444456,0.0,0
mp-9947,SiC,1.8543,-0.2029456194642855,0.0026311651190473,0
mp-865998,HfGaIr2,0.0,-0.7053801237500004,0.0105048511458321,0
mp-776115,Li2NbFe3O8,1.2802,-2.273723537142857,0.0370087067857118,0
mp-1030153,Te4MoW3S4,0.0,-0.636509069687501,0.0894102889583337,0
mp-31140,BaBiAu,0.0,-0.279551136666667,0.4053735779166674,0
mp-33546,Fe2CuO4,0.0,-1.5305422257142862,0.0891158928571389,0
mp-758948,Cs2H6CO6,4.0411,-1.6810007777813338,0.0,0
mp-24917,Cr2TeO6,1.329099999999999,-2.019947355277779,0.0,0
mp-20275,CeGeAu,0.0,-0.5965054316666661,0.1420294283333341,0
mp-771482,Na2FeCSO7,3.415299999999999,-2.0959081850260417,0.0201414023958337,0
mp-2403,YPt3,0.0,-0.9848951706249992,0.0,0
mp-865758,YbGeO3,1.0216,-2.7832290637499995,0.0,0
mp-770486,Li3Ni2SnO6,0.0,-1.6986385018749992,0.0327835645833358,0
mp-1027761,TeMo2S3,0.0,-0.9877836003645843,0.0595755445833328,0
mp-19713,Sc3In,0.0,-0.3005657512500006,0.0,0
mp-753879,Pr2S2O,2.361199999999999,-2.953419314875,0.0070884195000013,0
mp-699570,VTe4Cl4O,0.7834000000000001,-0.9817971401790004,0.0757320010312518,0
mp-505318,V2Se3O11,2.1647,-1.678391341533204,0.0,0
mp-24714,ZnH4(CO3)2,3.1831,-1.526897178229231,0.026471837499999,0
mp-676685,LiNi9S10,0.0,-0.6749622525312517,0.1012688117187483,0
mp-16713,Pr2B5,0.0,-0.4880698936904762,0.0,0
mp-557809,SbSCl9,1.755399999999999,-1.0097345694002278,0.0,0
mp-759211,La2H22S6N6O23,4.3906,-1.582783345882118,0.0836908864859813,0
mp-28291,Ge(SF6)2,4.9563,-2.361318843827,0.0,0
mp-1014345,Cr3N4,0.0,-0.5272245349314285,0.0422930446599973,0
mp-780494,Li10Mn3Cr3(CoO8)2,0.9534,-2.074255172731764,0.0618965813235341,0
mp-779752,Na5V2P(CO4)4,0.008499999999999,-2.18296984457483,0.0496819318526773,0
mp-570677,Ba5Al5Sn,0.0,-0.346212034090909,0.0,0
mp-676249,SrU2O6,0.0,-3.684819201944444,0.0515017575555489,0
mp-975109,RbNa3,0.0,0.0463164912499998,0.0463164912499998,0
mp-693463,NaCa3ScZn3(SiO3)8,4.2163,-3.1175672996249997,0.0291357055625018,0
mp-780646,LiMnPO4,3.1544,-2.5788464073650337,0.0713118196428572,0
mp-6249,Sr3Nd2(BO3)4,4.569699999999999,-3.363541167579365,0.0026728532142854,0
mp-552663,LiScAs2O7,3.451899999999999,-2.3889881317045463,0.0,0
mp-10521,Y(AlGe)2,0.0,-0.4167910325000001,0.0,0
mp-674352,TaAg7S6,0.3199,-0.5118647760267854,0.0467663167857175,0
mp-22372,Mn6Ni16P7,0.0,-0.4267275702298856,0.0019655115172403,0
mp-28099,SBr,2.2294,-0.3778401407812497,0.0,0
mp-778574,V4(OF3)3,1.823999999999999,-2.9508903424662503,0.0143253859374867,0
mp-722766,CaHgH16(BrO2)4,2.8966000000000003,-1.3153321403473337,0.0496869044166707,0
mp-1019809,KBe2B3O7,4.949,-2.9069020950961546,0.0106764542948658,0
mp-676448,CsTiZnOF5,3.1448,-3.229002785985185,0.0,0
mp-464,HoSe,0.0,-1.718079001796876,0.0,0
mp-558724,La2SiS5,2.3415,-2.073858112539063,0.0,0
mp-760980,FeCu5S4,0.0,-0.4012796146250004,0.1004283357499975,0
mp-1007823,GaBN2,3.140900000000001,-0.6837263828566664,0.3836329187499992,0
mp-16297,Sc3SnC,0.0,-0.7883805365000015,0.0,0
mp-773406,Co(SO4)2,0.0,-1.635181270738636,0.0558394989962129,0
mp-606691,KU2P3O14,2.3916,-3.1031265738392872,0.0,0
mp-977145,Ho3P,0.0,-0.330819940773809,0.4774923800000002,0
mp-866617,Cs2Sr2(CO3)3,4.6054,-2.480676701484376,0.0,0
mp-764478,LiFe8(BO3)8,1.393299999999999,-2.309832226422764,0.0721800712804778,0
mp-753864,Sr2Li2Nb4O13,1.4216,-3.1051501498214304,0.026678556130955,0
mp-767604,Li12Nb14ZnO42,3.258,-2.8893538673550725,0.00706874344203,0
mp-559182,P2IrClF6,0.8571000000000001,-2.362567546784048,0.0,0
mp-12082,Er(CrSi)2,0.0,-0.4335390149999995,0.1086946970000006,0
mp-632401,B,0.0,0.2797603083333335,0.2797603083333335,0
mp-765723,Na3Li6Mn5O9,0.0,-1.813797033523913,0.076283870250867,0
mp-780743,Li3Cr2(NiO4)2,0.0,-1.7864581259999994,0.0747841245555465,0
mp-9381,Zr6FeTe2,0.0,-0.5287793733333344,0.0,0
mp-862656,ErAl3,0.0,-0.4137905867500009,0.0,0
mp-997591,CsNa7Ta8O24,0.0,-3.0361485431250004,0.0477785732499977,0
mp-10617,Sr,0.0,0.2620622399999999,0.2620622399999999,0
mp-698381,H12RuC4S2N2Cl2O5,2.0347,-0.6534597238069638,0.4078481068750017,0
mp-24196,Tl2CuH12(SO7)2,0.792899999999999,-1.536125497873064,0.0,0
mp-773272,AlCoO3,0.8609,-2.304978952750001,0.0827701436250016,0
mp-12776,TlFeS2,0.0,-0.5776448932812501,0.2012033987500006,0
mp-763194,LiMn2(BO3)2,0.5031,-2.4316426129775763,0.0804345538636308,0
mp-766123,Ce4ThO10,1.841599999999999,-4.029033607833332,0.0043945383333312,0
mp-567630,Pr,0.0,0.0180490999999995,0.0180490999999998,0
mp-771861,LiNiSbO4,1.591899999999999,-1.8110216621428572,0.0,0
mp-558632,KNaSO4,4.9597,-2.3416269091517856,0.014228915535714,0
mp-4049,U2P2O9,0.2285,-3.244054089033883,0.0,0
mp-10134,TmBPd3,0.0,-0.639016295333333,0.1131793369090923,0
mp-13520,Na2ZnGe,0.0,-0.1484756699999998,0.0,0
mp-1018729,HoZnIn,0.0,-0.4289101949999997,0.0,0
mp-18177,Ba3NbAs3O,1.0685,-1.51758690859375,0.0,0
mp-4599,Ce(TeO3)2,1.359699999999999,-2.310107131388889,0.0111348852777766,0
mp-773257,Mn4NiO8,0.0,-1.6876846272184616,0.0860437904326962,0
mp-582394,Nd2Co7B3,0.0,-0.3003434316666673,0.0236615171753875,0
mp-3009,Rb2BeF4,6.6674,-3.3295326274657135,0.0,0
mp-1016329,SrMg6Nb,0.0,0.1618486887500001,0.2085646438839284,0
mp-555510,Sr2YbRuO6,0.0,-2.681541170750001,0.0,0
mp-554175,SiO2,5.7494,-3.18615523625,0.0985576712499991,0
mp-676467,Na3Al2P2O8F3,4.7401,-3.0894763424866927,0.0058447008333324,0
mp-867824,LiAg3F8,0.0,-1.6572429757933331,0.0715052541666647,0
mp-16180,Na6S2O9,2.9766,-2.1900589481985304,0.0,0
mp-769650,Zr2Bi2O7,3.1127,-2.789104329659092,0.0533955054545476,0
mp-989589,LaMnN3,0.0,-0.9158158554279991,0.0,0
mp-2422,ErGa2,0.0,-0.6051407016666666,0.0,0
mp-766258,Y13Tm3O24,3.990999999999999,-4.009519967562501,0.0014790739218728,0
mp-28208,ZrFeCl6,0.741,-1.8027696955700003,0.0204942512500005,0
mp-12046,Rb3Na(RuO4)2,0.5102,-1.721865038928571,0.0,0
mp-25590,PrNiO3,0.0,-2.313247106250001,0.0,0
mp-603414,Rb2TeH6SeO10,3.0242,-1.5034624187656866,0.0363564503750026,0
mp-554061,MnSbS2Br,0.6707999999999991,-0.7608980896249996,0.0198174250000011,0
mp-695409,Ba7Na3Ti7Nb3O30,1.113999999999999,-3.287340356783332,0.0260037588500008,0
mp-6841,Ba4NaCu(CO5)2,1.0292,-2.472716643472222,0.0,0
mp-555286,CsNb(PO4)2,2.5389,-2.8696897163492063,0.0,0
mp-569037,Y3H2,0.0,-0.4678508529479998,0.0117521010000007,0
mp-780722,Y6N2O5,0.0,-3.0484614227700004,0.0873887662820482,0
mp-744948,FeH8(ClO2)2,3.8562,-1.400098780031999,0.007312828999999,0
mp-556799,Li3In(BO3)2,3.430799999999999,-2.5452643121527783,0.0040031601041663,0
mp-768702,Ta2Zn4O9,2.9471,-2.479304223416667,0.0545136846666665,0
mp-767265,V(Bi5O8)5,1.8281999999999992,-1.6882540034090907,0.0117521018181561,0
mp-5568,Nd3Co11B4,0.0,-0.2749663721759256,0.0188011757235138,0
mp-1026929,Te4MoW3(SeS)2,0.0,-0.4477574887760423,0.1021180572916682,0
mp-763929,Ni3OF5,0.817399999999999,-1.8129824152444451,0.0678681793981486,0
mp-504867,Sr3CuIrO6,0.0,-2.2773139193181815,0.0,0
mp-559584,LiCaNiF6,2.3521,-2.9412964407933337,0.0,0
mp-780786,Na6Fe2P(CO4)4,0.0,-2.0968727807963883,0.0347845255603349,0
mp-31337,InPd3,0.0,-0.4384157325000002,0.0294177937499995,0
mp-5915,TlNO3,2.786699999999999,-1.075710911476,0.0,0
mp-675563,LaZr9O20,0.0,-3.6885444851666658,0.0975572155625013,0
mp-28478,NaTe3,0.5092,-0.3870576345833338,0.0,0
mp-707041,PH10SN3O2,3.8755,-0.9226839381175144,0.026306738235295,0
mp-697,SnO2,0.579699999999999,-2.024449166666667,0.1004056425000001,0
mp-10274,Er3GaC,0.0,1.1835159755,1.5586468920526313,0
mp-764241,VOF3,3.2211,-2.701596441964,0.0291572475000023,0
mp-769727,Li3(NiO2)4,0.248399999999999,-1.2314157826666672,0.006631355833341,0
mp-30770,LuMn5,0.0,0.0962131483333349,0.0962131483333355,0
mp-762576,Li2Fe2Si2O7,2.699799999999999,-2.5730612575961542,0.0757628946153792,0
mp-566244,Zr(MoO4)2,2.9382,-2.5186303909090912,0.0242669036363682,0
mp-626543,H3NO,2.4233,-0.7713206648979998,0.207609356182651,0
mp-19768,NiAsRh,0.0,-0.4001690166666663,0.0,0
mp-975439,Mn3S,0.0,0.0022029789843749,0.4765816337500013,0
mp-1028570,Te2MoW3(Se2S)2,0.0,-0.6000954043750006,0.0632507516666676,0
mp-561346,Na2ZrGeO5,3.4539,-2.70773476,0.0072660406944446,0
mp-8279,Ba(CdP)2,0.6793,-0.5877173372380952,0.0,0
mp-766768,Li4Mn2Fe3Ni3O16,0.0,-1.5830895300685708,0.0821816972693465,0
mp-1008275,Cr3Ni,0.0,0.1631402499999996,0.1710140024999997,0
mp-6273,Ba4Na(SbO4)3,1.5158,-2.5552325387500003,0.0,0
mp-541412,CsYP2O7,5.1175,-3.1638725515854977,0.0,0
mp-999200,Si,1.182599999999999,0.10063318,0.10063318,0
mp-771924,Cr3Co5O16,0.225499999999999,-1.3918872387499992,0.0970984960416698,0
mp-8800,TlCu3Se2,0.119299999999999,-0.1903502236979163,0.0169594016666665,0
mp-542501,Rb2U3(TeO7)2,1.835899999999999,-2.884797463214286,0.0,0
mp-531,K4Si23,0.0,-0.0165424237037036,0.003512211666667,0
mp-23260,BaI2,3.4525,-1.79935558375,0.0,0
mp-16061,Sr6Sb6S17,1.7409,-1.436766489536638,0.0,0
mp-648167,Fe3C8(Br2N)8,1.2489,0.0504924731702861,0.1705384605988573,0
mp-29405,RbSnI3,2.099599999999999,-0.930277482,0.0,0
mp-753305,LiTiSiO4,0.0,-3.0629952009523795,0.0756260513095199,0
mp-605839,Li2B2Rh3,0.0,-0.4947810790476187,0.0,0
mp-567874,Pr(AlBr4)3,3.3654,-1.3469052158333332,0.0,0
mp-769073,Na2LiTi3Al(PO4)6,2.331,-3.005815508339768,0.0144806445144114,0
mp-685194,Li4Ti5O12,2.6703,-3.220010352301588,0.0,0
mp-755974,Na2CuO2,0.0,-1.3388243885000002,0.0572857640833284,0
mp-11132,KPrTe4,0.169099999999999,-0.9576701491666674,0.0100267738888879,0
mp-765115,Cr3(OF)2,1.4514,-2.223708099804285,0.1104273844642822,0
mp-675179,Ba3Bi2F12,5.1102,-3.4958552026047056,0.0662426466666685,0
mp-19239,Mg6MnO8,2.2891,-2.8605142187306662,0.0,0
mp-567144,Sb,0.0,0.2612543675000003,0.2612543675000003,0
mp-2088,CeAl2,0.0,-0.4577530716666664,0.0,0
mp-777356,Li2Bi2(SO4)3,1.8644,-2.011556413273027,0.0882229362993358,0
mp-761687,LiSbPO5,0.0,-2.322931506793154,0.0934960718750019,0
mp-760059,Bi5O7F,2.7263,-1.7138491607646158,0.0756952880769183,0
mp-5036,ErPS4,2.1434,-1.45776491030754,0.0,0
mp-23657,Na6S2ClO8F,4.7796,-2.3797919254208333,0.0,0
mp-974062,KTm,0.0,0.5511333499999997,0.5511333499999997,0
mp-864928,BrCl,1.3235,-0.2473860766299997,0.0976701875000001,0
mp-763340,Ti3Fe2P6WO24,0.075199999999999,-2.76790369718254,0.036263381450631,0
mp-1028512,TeW2S3,0.0,-0.905320468697918,0.0688936331250005,0
mp-763152,Li4V3Co3(WO8)2,0.0,-2.1692360435714284,0.0290948968303785,0
mp-30060,Sn5(BRh3)2,0.0,-0.4567702352564108,0.0,0
mp-557142,Li2S,3.1532,-1.3853849846875,0.1753757799999995,0
mp-989192,SnClF,2.549,-1.9677936748166671,0.0395800616666672,0
mp-638442,Gd2Al6Si4Au,0.0,-0.3973497238461531,0.0,0
mp-22958,KBrO3,3.8455,-1.0619917027499994,0.0,0
mp-758496,LiTi(PO3)4,0.0,-2.697173553141535,0.0965907991230112,0
mp-676108,Gd8Zr7O26,2.1885,-3.7636733766463424,0.1050728549999995,0
mp-634429,H4N2O3,3.1066,-0.90278636811,0.1621541779657702,0
mp-17685,Li3GaGeO5,3.2656,-2.364075697625,0.0,0
mp-772259,VCr2O6,0.0,-2.1869025925,0.0702798831249857,0
mp-16855,K3Ta3Si2O13,2.9726,-3.177039839107142,0.0,0
mp-11787,YbNdSe3,0.0,-1.6335460596562503,0.1818754341281252,0
mp-16915,BaTiOF4,3.34,-3.9492348560966666,0.0,0
mp-697833,SrLaFeRuO6,0.0,-2.5763892122500005,0.0,0
mp-1018817,NdSe2,0.0,-1.6155577882291663,0.0137952085468748,0
mp-29873,Rb2CdCl4,3.1706,-1.9380450582914288,0.0079623619047617,0
mp-621852,La2Ge5Ru3,0.0,-0.655498386,0.0,0
mp-770872,Li2Cr2O7,2.4046,-1.8605455007954543,0.0518377520075761,0
mp-765804,Li6VF8,3.5201,-3.088522328634667,0.0563636503333349,0
mp-772344,Li5Nb2Ni5O12,0.0,-1.904380717291667,0.1136364503125024,0
mp-2961,MgSiP2,1.3728,-0.4225388652976188,0.0,0
mp-23403,SbIF5,0.5522,-2.2966856857607136,0.0,0
mp-22151,BaGePt,0.0,-0.9001637941666658,0.0,0
mp-772195,Dy3Al5O12,4.5685,-3.71584872575,0.0,0
mp-762807,LiFeSiO4,3.0048,-2.558687761666667,0.0633293919047544,0
mp-763102,Li4Mn3Co3(SbO8)2,0.2503,-1.9283307176028572,0.0261067031249995,0
mp-772403,NbVO4,1.009099999999999,-2.8267309120833324,0.0086313688541022,0
mp-764705,Li2V(OF)2,1.3206,-2.7776813767685704,0.10465340821428,0
mp-775817,Li5SbS4,1.5475,-1.2703993060000005,0.0684899176250013,0
mp-782634,VFe5(PO4)6,1.3117,-2.3968043441269837,0.0774834099305703,0
mp-672979,LiBiP2O7,4.4057,-2.5413044902218616,0.0195842466666693,0
mp-763282,Li4VP2O9,3.4928999999999992,-2.6505680104650304,0.0731481550000197,0
mp-10247,U2CrN3,0.0,-1.3440425378566658,0.008370302777779,0
mp-772005,Li3V4NiO12,0.0775,-2.24449181075,0.0635867556667051,0
mp-983236,Pm2ZnOs,0.0,-0.1557222637500004,0.0,0
mp-25076,Nd2MoO6,2.6647,-3.1594358538888883,0.0,0
mp-14448,Ba2SiTe4,1.1018,-1.0615143842857135,0.0,0
mp-780125,LiCr2P3O13,1.295799999999999,-2.2864797273966166,0.0893652585526227,0
mp-754553,Zn3N2,0.0,-0.021682354952,0.0106057254999987,0
mp-1029718,CsC2N3,4.0656,-0.2855763214677769,0.0086014297222245,0
mp-542598,Li22Si5,0.0,-0.196783335,0.0176855607407406,0
mp-569526,RbCuCl3,0.0,-1.4219886069559995,0.0363496540000003,0
mp-20980,NaNdTiO4,2.4465,-3.3547813513095237,0.0059109689285765,0
mp-764103,Mn6O7F5,0.0,-2.25203139197,0.0488552449305723,0
mp-22095,Ga2Pt,0.0,-0.5817210900000003,0.0,0
mp-2050,HoSb,0.0,-1.1112392450000002,0.0,0
mp-555699,BaLa(BiS3)2,0.6691,-1.5842635471875,0.0,0
mp-775343,LiCoPO4,2.4368,-2.376782149727892,0.0575696558928591,0
mp-1877,HoAl3,0.0,-0.4150978912500003,0.0047130659999998,0
mp-1014297,C3N,0.0,1.354984915655001,1.354984915655001,0
mp-554699,GePbO3,2.7131,-1.9442848970833333,0.0,0
mp-770095,Li(FeO2)2,0.0,-1.791641984285714,0.068762866696427,0
mp-777903,Li4Cr2Fe3Sn3O16,0.0,-2.0856732819642847,0.0646347776587239,0
mp-12672,Yb2SO2,0.0,-2.4962037873125005,0.5332961022777765,0
mp-559757,Ba3Cu2(ClO2)2,0.168,-2.2462488510472727,0.0268194715340914,0
mp-762511,LiFe2C2O7,1.495,-1.8715065719791657,0.0575134681250046,0
mp-850880,Fe4O5F3,0.0,-2.0216962633183337,0.0817677643229171,0
mp-762003,Li2Fe2C2O7,2.9417,-1.9273635150961532,0.06147311492309,0
mp-30569,Zr6Co23,0.0,-0.2195436627586202,0.0,0
mp-24523,CsAlH24(SeO10)2,4.2024,-1.5103766387305733,0.0,0
mp-21902,Th2FeB10,0.0,-0.6104747582051278,0.0,0
mp-39259,BaLaZnRuO6,0.378999999999999,-2.4805208967500003,0.0424179953333681,0
mp-866096,HfZnCo2,0.0,-0.3248782475,0.0,0
mp-1019358,ThAsS,0.0,-1.7700890296874998,0.0,0
mp-183,CeCd,0.0,-0.1151580874999997,0.0749141450000006,0
mp-631355,SrCrRh2,0.0,0.3135586149999998,0.5037606312499996,0
mp-769578,Li4V2C4SO16,0.6354000000000001,-2.1294429620023148,0.0910334920370505,0
mp-758044,Li5Ti8O16,0.0,-3.165588995287356,0.0214370922413955,0
mp-667323,Mg(GaS2)2,1.9741,-1.2778233147023808,0.0,0
mp-10890,LiAl3,0.0,-0.0832830600000003,0.0064976949999997,0
mp-4888,NbPO5,3.0812,-2.9255821891921765,0.0226477578571469,0
mp-542099,Cs4PbO4,1.768899999999999,-1.5338977736111106,0.0,0
mp-989624,TiPN3,0.5396000000000001,-1.0359441753803822,0.0150700698413324,0
mp-540927,UPCl10,0.631999999999999,-1.6596757729746032,0.0,0
mp-862845,IrCl2,0.0,-0.3488544071733332,0.4756397761111115,0
mp-567776,Cs2AgAuCl6,0.712299999999999,-1.4443465749559998,0.0,0
mp-1031421,KNaMg6O7,0.0,-2.251041852916667,0.4741760068333365,0
mp-765324,LiMnVP2(HO5)2,0.8792000000000001,-2.3609628698170875,0.0301191679411907,0
mp-28175,Pd(SeCl3)2,1.7033,-0.7709153268608332,0.0,0
mp-565746,KVPO5,3.0252,-2.666387223043154,0.0202531503125023,0
mp-771667,LiV2NiO6,0.0,-2.074050678750001,0.0977685283333329,0
mp-15515,BaNaAlF6,6.981,-3.8507385538488896,0.0,0
mp-761438,Li2Cr2P2O9,2.3611,-2.5620012178293647,0.0792254565555525,0
mp-998160,TlCoF3,0.0,-2.235860864714,0.0,0
mp-545706,Ca3Cu2(BrO2)2,0.0,-2.125667512272728,0.0,0
mp-23476,Cd7(P2Cl3)2,1.7985,-0.8570727252612325,0.0,0
mp-973933,NiN,0.0,0.2660740763100007,0.3071993217066682,0
mp-621943,Re2C3I4O3,0.4427,-0.6138037107291675,0.1267293561111095,0
mp-571637,K2Cd2Te3,1.3224,-0.7455570913095242,0.0,0
mp-11317,CeFe5,0.0,-0.0139098616666674,0.0290959016666629,0
mp-761713,LiFeSiO4,3.005,-2.565617397142856,0.0563997564285756,0
mp-761478,LiFePO4,3.4132,-2.489266418656463,0.0623105310714278,0
mp-765452,LiVOF2,1.6095,-2.9709602362260004,0.0216418001388856,0
mp-25484,CoH2SeO5,2.4837,-1.3225969163426383,0.0,0
mp-769813,LiMnBO3,2.8469,-2.5221818152294437,0.0053355927777811,0
mp-565704,CsMo2P3O13,2.239099999999999,-2.5191574479229333,0.0,0
mp-694975,Ba3HoUFeO9,1.4135,-3.0963541070833336,0.1508007133214395,0
mp-1021669,Ba2CuC(NO)2,0.0,-1.4841652705949997,0.1311635175000018,0
mp-31202,Pr(SiAu)2,0.0,-0.6178928339999998,0.0,0
mp-772603,Li2VAsCO7,2.0674,-2.137716711354166,0.0406211915885457,0
mp-18968,Li2FeSiO4,3.123599999999999,-2.6260140893750004,0.0005566096875009,0
mp-773420,Na5LiMn2P2(CO7)2,3.2839,-2.3838269352157875,0.0162024694871805,0
mp-1821,WSe2,1.4465,-0.5595532740625005,0.0,0
mp-780817,FeOF,1.7403,-2.219174052480001,0.0615098933333309,0
mp-767184,Ca5Mn4O9,2.0514,-2.7030227302827776,0.025906753888889,0
mp-22756,K2PbO3,1.2096,-1.6044238314583332,0.0048873216666578,0