mpid,formula,BG,FE,e_hull,fidelity
mp-4875,GdTaO4,3.2902,-3.7099182425,0.0,0
mp-35249,Sm2Hf2O7,3.7211,-4.016045603068182,0.0,0
mp-7381,TbMg3,0.0,-0.0768271683333332,0.0,0
mp-861550,LiMnPO4,3.0953,-2.584226874388845,0.0659313526190477,0
mp-3070,Na2CO3,3.8437,-2.0899392418750007,0.0,0
mp-22170,Li4PbO4,1.4367,-1.9302658461111104,0.0,0
mp-776858,Cr3Ni(SO4)6,0.0,-2.01122606983456,0.0034048982781875,0
mp-757853,Na4Ti5O12,2.9088,-3.1188567563492073,0.0103493892857162,0
mp-542063,Rb4H6C2O9,3.9628,-1.8058298310938092,0.0,0
mp-733581,PrH(SeO3)2,3.5309,-2.007817651955752,0.0,0
mp-684817,K2LiTa6(PO8)3,3.0471,-3.1445585301190473,0.0,0
mp-780004,Fe5O3F7,0.8092,-2.2901913721386675,0.17335253833334,0
mp-640790,Ba8Nb6CoO24,0.0,-3.1917261415384615,1.9656410227497645e-05,0
mp-557023,NbVF6,0.0,-3.1773577671425013,0.0,0
mp-762996,FeOF,1.6906,-2.2176777041466664,0.0630062416666659,0
mp-761343,Li16Fe4SiO16,2.1387,-2.132697748918919,0.1057735128378389,0
mp-11078,BaIn2Rh,0.0,-0.4731434962500005,0.0,0
mp-780149,Li2Mn3(BO3)3,0.022199999999999,-2.4662444831841177,0.0512821805391983,0
mp-568449,Sm2AlGe3,0.0,-0.6667927379166668,0.0,0
mp-1019273,TaTi2N3,0.0,-1.1983965667455567,0.5283941027777797,0
mp-638445,C4SO2,1.4474,-0.3726185486160724,0.4768284870918347,0
mp-769794,Li2CrO3,1.7417,-2.254349403958333,0.0063566158333356,0
mp-31220,AlSiTe3,1.2504,-0.2677983580000003,0.0,0
mp-647900,TlAs3PbS6,0.0,-0.620109767670455,0.0,0
mp-850988,Co3(OF2)2,0.0247,-1.8798191274733336,0.0925739608333318,0
mp-570125,Hg2TeBr3,1.8766,-0.3998501158333333,0.0042007854166665,0
mp-18258,BaTb2O4,3.2026,-3.6802022302380952,0.0,0
mp-979011,TmZr,0.0,0.0643739399999994,0.0643739399999994,0
mp-571188,Pr3Sn,0.0,-0.4398609737500001,0.0099818366666681,0
mp-20606,Tb3In5S12,1.3402,-1.5175761029375017,0.0084538066562496,0
mp-755915,Li4Nb3TeO12,0.0,-2.6031208342500003,0.0392389471562388,0
mp-773310,V2CoO6,2.0888,-2.1444092086111115,0.0,0
mp-11556,PuRu2,0.0,0.3761049960416661,0.3761049960416667,0
mp-626012,Te(HO)6,2.208199999999999,-1.3401930191707692,0.0496149857692316,0
mp-867266,CaMgTl2,0.0,-0.2693048600000001,0.0,0
mp-554591,K2Ca2(CO3)3,4.7388,-2.488146083359375,0.0099400028124971,0
mp-861991,PaMn2Al,0.0,-0.1586577449999984,0.0,0
mp-567771,Ba(Si3N4)2,3.254799999999999,-1.3261451386026664,0.0,0
mp-850186,Li4Mn2Co3Sn3O16,0.0,-1.8815590384614285,0.0924839733928602,0
mp-774245,Li5Mn5(NiO6)2,0.5302,-1.938178045825,0.0200804067708322,0
mp-2143,USe,0.0,-0.9804356992968746,0.0,0
mp-705361,LiCrP2O7,1.9503,-2.56503019181277,0.1194995713636375,0
mp-662563,CsFe2Se3,0.0,-0.5215742517968754,0.0,0
mp-361,Cu2O,0.499699999999999,-0.6492486254166673,0.0,0
mp-776315,Zr2N2O,1.681499999999999,-2.3499509734520005,0.0033541467499986,0
mp-1019258,SrF2,5.9356,-4.078976669126667,0.1739744650000272,0
mp-675199,NaPrS2,2.0519,-2.104796902031251,0.0,0
mp-977013,H6PbCI3N,1.6778,-0.5112698434666664,0.0434667484375008,0
mp-754891,Zr5N5O2,0.0,-2.2119396412000008,0.0608543800000003,0
mp-1231,Cr3Ga,0.0,-0.0490611862499994,0.0,0
mp-989633,LaWN3,2.3975,-1.2224102074279997,0.0109778679999994,0
mp-639978,UMnO4,0.9722,-3.153386285993333,0.0,0
mp-756708,CaPrO3,0.0,-3.0260531587500004,0.1737917913750006,0
mp-568820,Pu2Co17,0.0,0.0009479376973675,0.0480756052631576,0
mp-985806,Al2Cu,0.0,-0.1762988199999995,0.0,0
mp-541751,Ni4(Bi4I)3,0.0,-0.1189928394736842,0.0,0
mp-30123,Hg2SeO5,0.7264,-0.932834118574219,0.0,0
mp-6233,NaSr3RuO6,0.4965,-2.5539480893181814,0.0,0
mp-758447,LiTi(PO3)4,0.217,-2.6944562049470897,0.0993081473174566,0
mp-559489,K2ZrSi2O7,4.5246,-3.206089379479168,0.0,0
mp-5676,MnSbPt,0.0,-0.3693036483333335,0.0,0
mp-21848,F2,0.0,0.0,0.0,0
mp-10746,Mg2Cu3Si,0.0,-0.2352103133333329,0.0,0
mp-675152,NdPb8F19,3.5795999999999992,-2.8950573026825,0.05428690595238,0
mp-24333,UH12(ClO2)3,0.5445000000000001,-1.5183020466236352,0.029048374399359,0
mp-19762,UPb3,0.0,0.1608141424999996,0.1608141424999996,0
mp-772077,BaYI5,2.9223,-1.5274994362500005,0.0674619292857157,0
mp-570801,Y3(Ge3Pt2)2,0.0,-0.8830672098076917,0.0,0
mp-10998,Yb2Ge2Ir,0.0,-0.7662165560000005,0.0,0
mp-757883,LiSiBiO4,2.9488,-2.5001300292857143,0.0595156498214306,0
mp-22064,Cr2As,0.0,-0.0212365472222207,0.1074697719444452,0
mp-761308,Li2MnNb3O8,0.1527,-2.641358700782856,0.1116810045535725,0
mp-5181,LuSnPd2,0.0,-0.89984005125,0.0,0
mp-559590,PrGeBO5,3.9886999999999992,-2.9755015532118056,0.0,0
mp-569696,La(AlGa)2,0.0,-0.4819382840000002,0.0,0
mp-1157,TaNi2,0.0,-0.3356172333333329,0.0,0
mp-570152,Co2(SnSe)3,0.3384,-0.3690639522851562,0.0,0
mp-13854,B3Ru2,0.0,-0.3329817149999997,0.0,0
mp-776110,SiSnO3,2.526599999999999,-2.6023409857499997,0.0261605889999989,0
mp-556985,SiO2,5.6098,-3.2400694691666665,0.0446434383333329,0
mp-864617,NdI3,2.0128,-1.410011634375,0.0,0
mp-30417,SmAu3,0.0,-0.6935120306249996,0.0,0
mp-775790,CrTe(WO6)2,1.6336,-1.739151967187501,0.08827422113281,0
mp-705168,Sr5V3ClO12,3.9446,-3.0654902830123816,0.0,0
mp-569468,CdI2,2.431899999999999,-0.5920198093750001,0.0001171891805555,0
mp-669388,Gd2Se2O,1.3044,-2.6088296961875,0.0,0
mp-676315,Y2GeI2,0.191599999999999,-1.244242156,0.0,0
mp-761445,Li4Mn3Cr3(NiO8)2,0.922199999999999,-1.921485416174286,0.0511092091369009,0
mp-677013,Na3Pb2S3ClO12,4.148300000000001,-2.150811663830833,0.0,0
mp-977355,LiYb2InGe2,0.008,-0.6296194199999997,0.0,0
mp-555918,Hg2SeO3,2.3109,-0.9315500308072924,0.0061187174999979,0
mp-782663,Co3OF5,0.0,-2.1243632219111106,0.0566874493055564,0
mp-9747,B4PbO7,4.208499999999999,-2.662345098368056,0.0,0
mp-567443,Sc4Si7Ni12,0.0,-0.7207372607246381,0.0385611914854999,0
mp-556702,Ba6Eu(ClF6)2,0.0,-3.9799861697999983,0.0238189761904799,0
mp-2693,SnSe,0.1189,-0.4290600017968749,0.0038277925,0
mp-690012,CrPO4,1.6234,-2.360570103015872,0.241301120000001,0
mp-861577,Li2VO3,1.750199999999999,-2.4812934922916674,0.0240118262500059,0
mp-763115,Li4Mn2Cr3Co3O16,0.0,-1.915512307211428,0.0653382546131213,0
mp-763080,Li2Fe2CoO6,0.1105,-1.6588832497727275,0.1848165688352248,0
mp-3043,Sr(Mo3S4)2,0.0,-1.2428245575000003,0.0024309540000011,0
mp-760812,Li3CuF6,0.8733000000000001,-2.5643937934640006,0.0523271075833342,0
mp-673165,Dy2O3,0.0,-1.2847323144166665,2.744262485,0
mp-2673,YbPb,0.0,-0.5573629200000001,0.0,0
mp-973330,SbPH4(O2F3)2,4.1387,-2.2316659187322023,0.0020916065625042,0
mp-772521,Li8TiO6,3.991599999999999,-2.456174135611112,0.0040807120000003,0
mp-657308,Mo2H12C4N2O15,0.754,-0.6003585377699997,0.9037710435714292,0
mp-566012,KCr2FeO8,1.7437,-1.8655912699999997,0.0,0
mp-35071,InAgSe2,0.0,-0.3183410230468748,0.1106291437500002,0
mp-774883,LiFe3(SnS4)2,0.0,-0.8199072144642859,0.1373570675000008,0
mp-778910,Fe6O7F5,0.067499999999999,-2.0785893499833343,0.0839479837152783,0
mp-706444,Zn3P2(H2O3)4,3.711799999999999,-1.8733751953060187,0.0352224749000011,0
mp-1023963,Te2MoWS2,0.0,-0.6127896096874998,0.1543494283333339,0
mp-21523,La(In2Au)2,0.0,-0.4674641353571428,0.0,0
mp-40286,NaLiLa2Ti4O12,1.6749,-3.4552347013333344,0.0374843276250143,0
mp-763565,Li3V2(CO5)2,0.0011,-2.20106058632353,0.0705066619117555,0
mp-763897,Li6CoOF6,0.0,-2.880251354170714,0.0362278296428622,0
mp-763863,Li4Mn3Nb3(SnO8)2,0.0,-2.442349856888572,0.09297523169643,0
mp-768400,Li8FeS6,0.0,-1.3357529326249995,0.102536709333334,0
mp-705576,Al2FeO4,0.0,-2.8392411998214286,0.1346422994642901,0
mp-985293,Al(HO)3,5.800700000000001,-2.112208778515714,0.0244057339285728,0
mp-261,Ba3Al5,0.0,-0.2289080587499996,0.0037182560714299,0
mp-2195,LuMg,0.0,-0.0408264099999997,0.0,0
mp-1026350,Te4W3Se2,0.343499999999999,-0.2119403241319446,0.0450246566666674,0
mp-769880,LiVOF3,2.6582,-2.92565270622,0.0710180337896915,0
mp-1003771,MgMn6O12,0.3475,-1.9936887213557888,0.025739330493419,0
mp-775137,CoCu3(PO4)4,0.0,-1.935691742182539,0.0190935009375001,0
mp-42,Ta,0.0,0.0049237406666691,0.0049237406666673,0
mp-7062,Mg3Al9FeSi5,0.0,-0.1147424588888878,0.0,0
mp-977059,MgPd5,0.0,-0.3311788016666674,0.0007536399999992,0
mp-766762,LiFePO4,3.6405,-2.4763180240136062,0.0752589257142837,0
mp-770741,Mg3(AsO4)2,2.6418,-2.4431771042307693,0.027357939230769,0
mp-862485,GaCuRh2,0.0,-0.3724753649999997,0.0,0
mp-12626,K2SrBe2F8,7.162599999999999,-3.615867842270769,0.0024385303846159,0
mp-31034,ThF4,6.5408,-4.522663942618666,0.0,0
mp-767836,Mn2CoO4,0.260399999999999,-1.8273148774171424,0.0207178095238127,0
mp-29456,Rb2IN3,3.9553,-0.781659909523332,0.0099521625000003,0
mp-643277,SiH6(NF2)2,6.5941,-1.8044642604799996,0.0,0
mp-731160,H3Ru3Rh(CO)12,2.4621,-0.8761386482535479,0.2319912107661315,0
mp-769620,Li2VCrO4,1.932499999999999,-2.437680961875001,0.0077655543749992,0
mp-3241,Sr(CuGe)2,0.0,-0.3715193259999999,0.0,0
mp-771093,Li3Cr10Fe5O24,1.4123,-2.2270828676190484,0.0,0
mp-31113,Dy3GaO6,3.585199999999999,-3.6121010557500015,0.0012047717999976,0
mp-2759,Ho6Fe23,0.0,-0.0646039944827599,0.0130540748275862,0
mp-6362,Sr2TbIrO6,0.0,-2.7865321495833344,0.0,0
mp-10564,SrN2,0.0,-0.7511151882533333,0.0,0
mp-757612,Ag7(PbO3)3,0.0,-0.8282564605921054,0.0031806466666646,0
mp-5104,CaZnF4,5.1236,-3.423298814126666,0.0044344441666668,0
mp-560054,LuSBr,2.7179,-1.833651068020833,0.4011924616666666,0
mp-770563,Mn3(PO4)2,2.8617,-2.552346734351576,0.0123007167307633,0
mp-568628,CsHg5Cl11,2.6909,-1.1624637615211768,0.0,0
mp-776710,LiFeF4,3.6098,-2.8418537616266657,0.0858930435185287,0
mp-780240,Gd2P4O13,3.2682,-3.1380555892700506,0.0194989882894898,0
mp-706588,Na3NdV2O8,3.6913,-2.6738837051785715,0.0126318250000005,0
mp-778921,Mn3Cr3(WO8)2,0.484,-2.053587022203333,0.0844394087109225,0
mp-572526,SbBr(OF3)2,1.9777,-1.8709830544640005,0.0,0
mp-567076,Li2BiAu,0.0,-0.4369303537499998,0.0,0
mp-7285,HfNi3,0.0,-0.5349500837499997,0.0020662647499998,0
mp-676319,Dy2Zr2O7,2.742599999999999,-3.779902405189394,0.1423060377272751,0
mp-20257,AsPd3Pb2,0.0,-0.3314551683333337,0.0,0
mp-763191,LiMnF3,3.408,-2.9643759579060003,0.100374927999999,0
mp-754239,ScGaO3,4.0845,-3.0561067372500004,0.076356408875001,0
mp-763090,Co2O3F,0.0,-1.3547130905455558,0.0960360404861102,0
mp-767994,BaV8O16,0.0,-2.5837471904000004,0.017089533650008,0
mp-605867,CeIn7Pt2,0.0,-0.4006147110000001,0.0779495600000004,0
mp-4709,PrNbO4,3.7546999999999993,-3.5215303825000013,0.0,0
mp-560613,Na2TeO4,1.8126,-1.8312832423214285,0.0,0
mp-753806,BSbO3,3.762,-2.241700687083333,0.0482149454166656,0
mp-1017109,CsMg6Nb,0.0,0.4026217575000004,0.4026217575000004,0
mp-560240,K2SbPO6,2.5161,-2.4188880925595244,0.0,0
mp-2459,YbIn,0.0,-0.5123703649999998,0.0,0
mp-676273,Pr2SbO2,0.0,-2.8085024755000005,0.0083785303333323,0
mp-568172,Ca3N2,1.3591,-0.8845006836186665,0.0481153830833331,0
mp-19830,ErN,0.124299999999999,-1.96927541869,0.0,0
mp-980084,Th(CuSn)2,0.0,-0.3439161439999993,0.0,0
mp-10634,CuF,0.0,-1.026803228095,0.3344153212500003,0
mp-15144,ZnAg2GeO4,0.262699999999999,-1.3677422943750006,0.016502622760397,0
mp-849422,Li4Cr3Co3(WO8)2,0.0,-2.0870748732142865,0.0657861708928519,0
mp-31492,CeGaNi,0.0,-0.6089550811111116,0.0,0
mp-541151,MnAl2P2(HO)18,3.953699999999999,-1.918309860361231,0.0224722143902447,0
mp-556301,Li6CaCeO6,2.463999999999999,-2.627104645178572,0.0246475410714301,0
mp-626879,V3(HO4)2,0.6535000000000001,-2.0547792424800004,0.0907040086538453,0
mp-861729,Li4Ti2Mn3Co3O16,0.2795,-2.211702232364761,0.037824815999981,0
mp-28719,Ba(AuF4)2,2.5324,-2.2240355422290907,0.0,0
mp-733998,TbH12S2NO12,5.1568,-1.7551649544563688,0.0090756488839307,0
mp-861883,Ac2CuIr,0.0,-0.3207824162500001,0.0,0
mp-571615,CdI2,2.3882,-0.5914519536666667,0.0006850448888888,0
mp-560830,Nd3Si2ClO8,5.2091,-3.6022574575542854,0.0139462014285705,0
mp-20958,Ba2LaReO6,0.0,-2.97618762625,0.024339620874997,0
mp-8975,Hg3(AsO4)2,0.9868999999999992,-1.256335166538462,0.0,0
mp-10621,RbSbS2,1.9474999999999991,-1.0523495195312504,0.0,0
mp-13572,ScSiPt2,0.0,-1.1469014475000003,0.0,0
mp-774258,Ti5Nb(PO4)6,0.006299999999999,-2.9081085375529088,0.1077730245306547,0
mp-757885,LiSnPO4,2.7596,-2.408935355442176,0.0771973141666686,0
mp-782649,Na4Mn2P(CO4)4,0.0,-2.026817019630193,0.0717426137991861,0
mp-767447,LiVSiO4,2.2633,-2.7926445892857146,0.059529227232141,0
mp-13475,CeSi2Ir3,0.0,-0.922793249999998,0.0,0
mp-16722,Al10V,0.0,-0.0900262234090902,0.0139920002272733,0
mp-769674,Sr2Li2NiO4,2.7003,-2.179934930555556,0.0912119061111136,0
mp-15800,Ti3PO2,0.0,-2.0360239900992063,0.3082492055555529,0
mp-775287,Fe10OF19,1.496099999999999,-2.678174772628666,0.0139440936666694,0
mp-11508,MoP4,0.0,-0.3336001434761912,0.0,0
mp-861940,Ca2CdSn,0.0,-0.5545837324999998,0.0,0
mp-559770,Nd4Ga2O9,3.601299999999999,-3.343378156416667,0.0018225200833272,0
mp-5677,Tb(MnSi)2,0.0,-0.6248338466666666,0.0,0
mp-780583,Li2MnFe(BO3)2,3.072999999999999,-2.4643807884827784,0.0050708593055519,0
mp-662567,Nd12Cu6O25,0.0,-2.8937529644476743,0.0666095201744152,0
mp-775791,Li2TiFe2O5,1.460299999999999,-2.4383845692916672,0.0267111405000006,0
mp-777428,Na3NiO2,1.5896,-1.115216620833334,0.1420033993750005,0
mp-555065,LiEr(PO3)4,5.9182,-2.946227194854498,0.0088578621296271,0
mp-560239,K3Ti3(PO4)5,2.5785,-2.999342053563748,0.0016642719758106,0
mp-699604,CsUV3O11,2.1691,-2.702678645234375,0.0087677448437535,0
mp-540463,CrPO4,2.0334,-2.5172532880158727,0.0846179349999989,0
mp-999264,ReN,0.0,0.2485014913100016,0.3899346583333365,0
mp-697027,NaSi2(HO2)3,5.078799999999999,-2.436157181946667,0.0018935579166665,0
mp-583581,W2NCl9,1.7811,-1.2981872774349998,0.0,0
mp-704703,Na6U2Mo4O21,2.0982,-2.548944757462121,0.0023172850000028,0
mp-540320,FePO4,2.7308,-2.4234938388492075,0.0043278670833331,0
mp-570998,NaLi2N,0.0,-0.2595301968449997,0.0908064499999992,0
mp-677613,Ba3Si3N5ClO,1.835,-1.7544251766469232,0.0403978451923068,0
mp-29880,Sm2SCl4,3.503699999999999,-2.6542297838717857,0.0,0
mp-770252,CaNiO3,1.1857,-1.6728892817499996,0.0529945663749993,0
mp-698475,K4ErP6H6ClO21,4.8671,-2.477307517302601,0.0340677335256387,0
mp-972916,MgCu,0.0,-0.0894915624999996,0.0351523966666666,0
mp-776378,LiCuBO3,0.0,-2.0355525237731484,0.1160524967129577,0
mp-557450,Na2PtO3,1.4682,-1.5127968177083335,0.0050110812499992,0
mp-4006,ErPO4,5.919600000000001,-3.531314774682538,0.0,0
mp-1028772,WSeS,0.8118000000000001,-0.8966053017187505,0.0150355974999998,0
mp-866470,Ca2SnS4,0.771099999999999,-1.350617363392858,0.4189771607142845,0
mp-680754,Ca5CuPb3,0.0,-0.4208545533333334,0.0561267556666669,0
mp-9499,Sm2C(NO)2,3.8823,-2.432439888537143,0.0,0
mp-755316,Dy2Sb2O7,0.0,-2.746707530643939,0.0961746359090876,0
mp-28091,In2(TeO3)3,3.0171,-1.7319638563392858,0.0,0
mp-559029,RbC2S2N(OF)4,4.8612,-1.6000820672510716,0.248971373460952,0
mp-21188,CeNi,0.0,-0.3115932924999996,0.0,0
mp-1016928,MgSiO3,2.557100000000001,-2.7851841467500003,0.4654262767500024,0
mp-557047,Cs2NaCrF6,3.9440999999999993,-3.118735212214,0.0,0
mp-771988,MnCo(PO4)2,0.0,-2.231206506151429,0.0691313900694492,0
mp-773299,LiMn3CrO8,1.114799999999999,-2.0252992340676914,0.0066855971794836,0
mp-766090,Hf3Sc4O12,4.190799999999999,-3.9940365210526334,0.016141803947363,0
mp-9208,V2B3,0.0,-0.7982837379999992,0.0,0
mp-625268,FeHO2,1.7592,-1.6012047959049998,0.0992109690625007,0
mp-754341,Ho2TeO6,3.1026,-3.0463277134259266,0.0037633790740718,0
mp-697774,Li2Cr(PO4)2,0.0,-2.5263010047069594,0.0703695534157455,0
mp-554260,SnSb2As2F18,3.4536,-2.6257924965834785,0.0007553498369476,0
mp-763944,Li5CoOF5,0.069099999999999,-2.8308346035166667,0.0415777445833347,0
mp-975596,PuIrO3,0.0,-1.160827010125,1.3912449125000013,0
mp-754515,BaMgGe,0.0,-0.5327240749999996,0.0,0
mp-504902,SiBr2,2.6702,-0.659532372,0.0387710179999998,0
mp-780534,Rb(BH)5,4.0007,-0.3598303297893944,0.0845579710984818,0
mp-774091,MnSb3(PO4)4,0.0,-2.3143260824308727,0.0970465405208473,0
mp-644276,Na2Sn(H2N)6,1.214,0.4512805103466666,0.9486753848809512,0
mp-1761,LuIr2,0.0,-0.8279727433333347,0.0,0
mp-709027,H20RuC6NO14,0.6942,-1.158723512435237,0.1053765506547606,0
mp-621362,NdInAu,0.0,-0.7402146347222222,0.0,0
mp-989579,Rb2LiTlCl6,1.5623,-1.7903641614559995,0.0,0
mp-568762,Na4Ge2Se5,1.963,-0.8124968998153409,0.0003700968181812,0
mp-16800,Sc2(SO4)3,4.3566,-2.7146584348345595,0.0,0
mp-32905,Cu8O7,0.0,-0.8252274712499996,0.0673347303333331,0
mp-864962,CaAcZn2,0.0,-0.2673607018749999,0.0,0
mp-12924,KLaSiS4,2.6881,-1.859082773035715,0.0022946971428572,0
mp-12524,Al2W,0.0,-0.0325057655555561,0.095632166111109,0
mp-771635,Li2NbVO4,0.0,-2.4874703956250004,0.1054029612499993,0
mp-694952,Ti5Fe11O24,1.164,-2.439231040083334,0.0275104843653846,0
mp-608081,Rb3Pb4Au,0.155899999999999,-0.1316609918750004,0.0753338256510414,0
mp-1770,Mg5Ga2,0.0,-0.120026927142857,0.0,0
mp-30450,Mn3(CuBi)4,0.0,0.1719819181818177,0.1719819181818183,0
mp-767218,Li9(NbS2)14,0.0,-1.6187587606617648,0.0,0
mp-763261,Fe(PO3)3,2.7346,-2.5332080898489027,0.0024458927563824,0
mp-770507,Li4Ti3Mn3(NiO8)2,1.1058,-2.3632252343885702,0.0620158709821385,0
mp-3828,BaAl2O4,3.9419,-3.458709496964286,0.0035994342857117,0
mp-18572,KEr(PO3)4,5.2945,-2.936376513743386,0.0153650847222222,0
mp-550820,SmZnPO,1.290499999999999,-2.0274666829613093,0.0,0
mp-30057,LiCN,5.5313,-0.3848595466266668,0.3103552720833376,0
mp-560236,MgF2,6.2865,-3.73609268746,0.1111410733333331,0
mp-769831,Li3MnCr4O8,0.6288,-2.218370343184999,0.091947154032498,0
mp-570308,Eu(NiSb)2,0.0,-0.5445612670000003,0.0,0
mp-9490,KAg2SbS4,0.569599999999999,-0.7130448389062507,0.0011462225781242,0
mp-628588,Fe4Si2Sn7O16,0.0,-1.9906417081034484,0.0818967065517215,0
mp-978906,Sm3Dy,0.0,0.015220471458333,0.015220471458333,0
mp-23156,He,17.7667,0.0024687399999999,0.0024687399999999,0
mp-8643,Os,0.0,0.1360756850000015,0.1360756850000015,0
mp-865605,YBr3,2.9454,-1.8610985881250004,0.0612137387500038,0
mp-984769,CaTl2Cd,0.0,-0.2216877562499997,0.0214495943749999,0
mp-705153,K4CoMo4O15,0.0,-2.120330512239585,0.0328995565103955,0
mp-9909,Ba5Sb3,0.0,-0.99543857,0.0,0
mp-683957,Nd4CuTe5(ClO5)3,1.488999999999999,-2.3923340049475,0.0,0
mp-982007,YTmCu2,0.0,-0.2603605956249995,0.0112774668749997,0
mp-21524,SrNiN,0.0,-0.6799124694044438,0.0,0
mp-998880,H9C8NO2,3.407899999999999,-0.4290412614979999,0.1436839025625005,0
mp-19851,KInTe2,0.9868999999999992,-0.7051464175,0.0,0
mp-28371,K2Zn3O4,1.408299999999999,-1.7208283727777776,0.0,0
mp-865031,Mg2ZnB2Ir5,0.0,-0.4378842143333329,0.0,0
mp-540924,NbTeI3,0.453899999999999,-0.4574526080000005,0.0,0
mp-573358,CsBSe3,1.700999999999999,-0.5814398024895837,0.0,0
mp-707208,H8C2SeS2(N2Cl)2,2.8516999999999992,-0.5693282983799345,0.0507925484780322,0
mp-5853,LiSi2N3,5.0143,-1.3362664895233325,0.0,0
mp-567386,Cs2Cd3Te4,1.557,-0.7292552761111111,0.0,0
mp-767885,Li3FePCO7,4.2013,-2.3648793130265564,0.0523571553846142,0
mp-646397,Sm2(MoO4)3,3.2356,-2.7010727464705884,0.0,0
mp-556002,Li6Cu(B2O5)2,0.7482000000000001,-2.4776362447222224,0.0446429953571314,0
mp-721059,H8AuC2S2N4ClO4,3.3284,-0.5579450311302278,0.4034957630311693,0
mp-15724,KNa2Sb,0.672099999999999,-0.43335665125,0.0,0
mp-570777,SrSi,0.0,-0.4193875649999995,0.0489461974999998,0
mp-28134,Ba2As2S5,1.3668,-1.4629977504513891,0.0,0
mp-24859,CoPb2WO6,1.7802,-1.77039033075,0.0259746255000008,0
mp-755525,TmTiO3,0.0,-3.667563515583333,0.0622244680000001,0
mp-4343,Sr(MnAs)2,0.0,-0.4472398139999996,0.0922221388333346,0
mp-19458,BaV10O15,0.8319000000000001,-2.5218975489903857,0.0,0
mp-998159,TlFeF3,0.0,-2.452880068714,0.0,0
mp-15071,Na6FeSe4,0.0,-0.8888699385795455,0.0372418363636364,0
mp-19170,PrNiO3,0.0,-2.30925081075,0.0039962955000012,0
mp-676320,In4(SnO4)3,0.8894000000000001,-2.0331710000000003,0.0387430131578954,0
mp-774873,NbS2,0.0,-1.4160230543750008,0.0391808700000009,0
mp-560068,Na3NO4,3.7504,-1.444240619985,0.0118271984374942,0
mp-765554,LiNi6O6F,2.2594,-1.1937571759778591,0.0244269814285749,0
mp-631339,Na2LiTa,0.0,1.25134231,1.25134231,0
mp-505654,V2HgO6,2.014299999999999,-1.9520167163888893,0.0,0
mp-763389,Li2Co(SiO3)2,3.2331,-2.6876155161363644,0.053286091363625,0
mp-4075,TbZrSb,0.0,-0.8110115044444454,0.0,0
mp-753798,Rb2SnO3,2.121299999999999,-1.940188098958334,0.0,0
mp-28177,NaSbCl6,2.0358,-1.41962532932,0.0,0
mp-555996,CIN2(O2F)3,3.335099999999999,-1.1035456091023077,0.2396137634435895,0
mp-9064,RbTe,0.428199999999999,-0.8438573275000003,0.0,0
mp-5019,YCo3B2,0.0,-0.4810046059722216,0.0006857899999994,0
mp-102,Co,0.0,0.01915361,0.01915361,0