mpid,formula,BG,FE,e_hull,fidelity
mp-571046,Sr5(GeN3)2,1.3525,-0.8073641357138465,0.0,0
mp-761729,Li2VCo3O8,0.3818,-1.810623828571429,0.066744779392855,0
mp-24654,KZnP2H5O9,4.4686,-2.097334185307805,0.0,0
mp-569151,MnGaPt,0.0,-0.4550568549999999,0.0,0
mp-676106,NdZr9O20,0.0,-3.6891014740833343,0.0852303474791646,0
mp-541276,CaYbInSe4,0.0,-1.2051256809821431,0.1599419855766362,0
mp-744322,CrH8(NO2)2,2.9217,-1.0836441145813334,0.1561355031746663,0
mp-30741,PaIr3,0.0,-0.8391628499999992,0.0,0
mp-530194,Ca4Nb2O9,2.4271,-3.3227445640833326,0.0229636123333332,0
mp-572625,Cs3SrCu2C7(SN)7,2.8882,-0.5536419167628698,0.0555350556681464,0
mp-11123,CsYHgSe3,1.3946,-1.2399761447135418,0.0,0
mp-989615,YWN3,2.1947,-1.2221139904279994,0.0,0
mp-7100,LaOF,4.574999999999999,-4.27237837248,0.0,0
mp-18925,Li6CoO4,2.4,-1.9587882559090908,0.0,0
mp-556383,PCF3,3.2147,-1.5189490765330482,0.59968399715238,0
mp-761309,TiNi(PO4)2,2.2899,-2.655362931349208,0.0188024736805569,0
mp-755251,Gd2HfO5,3.2044,-3.92871188703125,0.0272667953124994,0
mp-1002572,LiMnO2,0.8561000000000001,-2.1213597483649997,0.0370201125000067,0
mp-980044,YbPrCd2,0.0,-0.3795886049999999,0.0,0
mp-752443,Te(S2O7)2,3.3237,-1.7616275683552631,0.0,0
mp-768409,TbTiO3,0.0,-3.6445919912500018,0.0565819195000063,0
mp-30168,H34C19,5.4526,-0.2469640770864155,0.0555247640801885,0
mp-557778,RbNbSiO5,3.2067,-3.05190638796875,0.0,0
mp-977380,LiMg2Pd,0.0,-0.4715465450000002,0.0,0
mp-559200,Cd(InS2)2,1.0509,-0.9828751708928573,0.0,0
mp-771582,Fe(SO4)2,0.0,-1.822235412253788,0.0584870972537912,0
mp-861661,LiPr2Ru,0.0,-0.1121707162500005,0.0,0
mp-30600,TmCu5,0.0,-0.1995444716666667,0.0,0
mp-31136,Lu2NiSn6,0.0,-0.3999599544444447,0.0,0
mp-17283,K3NbSe4,1.8249,-1.122503504296875,0.0,0
mp-504908,In2TeO6,1.0047,-1.84521235675926,0.0,0
mp-779087,Li3Mn2Fe(BO3)3,2.6445,-2.4867995362872217,0.002007364907409,0
mp-6353,Y2Si4CN6,3.1011,-1.3795199445599995,0.0,0
mp-866613,CsNa2Be6(BO3)5,4.5079,-2.901178121106321,0.0004258835344828,0
mp-976419,Hf3Bi,0.0,-0.0087360099999997,0.0730347499999997,0
mp-699398,CsMnMo(OF)3,0.018799999999999,-2.5230135764755555,0.070758376527813,0
mp-850170,Li3Fe9O5F11,1.944699999999999,-2.386109618012143,0.0650722966071439,0
mp-769647,VOF,2.7095,-2.780212782480001,0.0657961000000009,0
mp-865783,YbHoRh2,0.0,-0.7910806637499999,0.0,0
mp-761955,Li6TiFe3(PO4)6,1.3799,-2.641700407380953,0.0542001653437491,0
mp-23301,BiF3,3.966299999999999,-2.5274150808925,0.2703733506250003,0
mp-19175,MnSe2O5,2.4927,-1.5056962499246875,0.0061013906249973,0
mp-757165,Li5FeS4,0.0,-1.2241833336250003,0.1731682264999969,0
mp-757098,Li2Fe2S3,0.0,-0.8972136253125009,0.25465649642857,0
mp-555611,Cs3KRe6C6(S4N3)2,2.1868,-0.7134170566426661,0.0037618129589684,0
mp-738610,LiH20C8ClO4,4.9222,-0.5891197960488233,0.1921414834558819,0
mp-867842,ScInRh2,0.0,-0.8422062849999996,0.0,0
mp-767097,LiVSiO4,2.5026,-2.7659954585714286,0.0861783579464265,0
mp-740746,NaH2BrO5,1.312199999999999,-0.8048076137211113,0.2240253420833333,0
mp-22165,Ce(CoB)4,0.0,-0.4690925774074073,0.0029358673888877,0
mp-504861,Y4CoB13,0.0,-0.4637862617592603,0.1195965766666678,0
mp-571258,Er6I7,0.0,-0.9050449569230772,0.0615268937179487,0
mp-32028,Mn(PO3)4,0.435799999999999,-2.412101804902409,0.03709268172795,0
mp-10187,TeIr,0.0,0.0721848474999999,0.290704400000001,0
mp-13308,HoGeAu,0.0,-0.7506652099999993,0.0728339883333291,0
mp-16794,Sc2Re3Si4,0.0,-0.6416667413888888,0.0,0
mp-29465,TaCl4,1.2222,-1.7764754716079998,0.0258599682666664,0
mp-773566,Li2MnFe(BO3)2,3.144599999999999,-2.4678330822327785,0.0016185655555513,0
mp-761046,Na3Ti2(PO4)3,0.0,-2.8366054523809523,0.0582735116640957,0
mp-37024,Ho10Ti6O27,2.5592,-3.7941828991569775,0.0920379226744092,0
mp-15702,MgCN2,3.8457,-0.276033618065,0.5305621049999996,0
mp-19399,Cr2O3,2.4365,-2.3495750737499987,0.0,0
mp-8074,TaSnO3,0.0,-2.381011201749998,0.3229146490000012,0
mp-567334,Ag(BCl)6,2.6955,-0.9432250094853856,0.0,0
mp-2523,PuPt3,0.0,-0.6899325167187502,0.0,0
mp-3106,Np(SiRu)2,0.0,-0.4308491577500021,0.08681950225,0
mp-560296,K(Mo6S7)2,0.0,-1.0148264850694446,0.0626844387962961,0
mp-776765,V3CrSn2(PO4)6,0.0,-2.55286853968254,0.0429823002083349,0
mp-762160,LiNiPO4,3.0582,-2.197433315263606,0.0951211919642896,0
mp-505495,KP4N7,3.7455,-0.7127586661700794,0.0,0
mp-23406,Cs2PtCl6,2.1024,-1.6549980243955549,0.0,0
mp-559071,Ag2Bi2S3Cl2,1.6367999999999991,-0.8001716015230558,0.0,0
mp-510293,Pb3SeO5,2.4614000000000003,-1.490842221649305,0.0,0
mp-759493,LiSbP2O7,4.0237,-2.437950025221861,0.0927111348484848,0
mp-6825,Ho2Si4CN6,3.206799999999999,-1.3917638853292305,0.0,0
mp-778781,Li2NiO2,1.938,-1.5339527185,0.0799501909999999,0
mp-1035222,Mg14CuSiO16,0.0,-2.7954123718749995,0.2113872946093824,0
mp-28970,Nd2NCl3,3.343,-2.451969710776668,0.0,0
mp-21393,Ce3Al,0.0,-0.156687559999999,0.0149698418750006,0
mp-13384,ErAg(PSe3)2,1.7583,-0.5547543667752983,0.0,0
mp-22467,Sn(PbO2)2,2.0634,-1.7938071924999994,0.0,0
mp-973254,LaNdHg2,0.0,-0.4803386618750003,0.0029113749999996,0
mp-20025,Mn(GaS2)2,1.1795,-1.043089760892857,0.0,0
mp-779988,SrLiLa3MnO8,1.5871,-3.213062964354285,0.0149111672767894,0
mp-560794,BaNbTePO8,2.7977,-2.759129978695436,0.0,0
mp-7876,Ba(MgGe)2,0.0,-0.4682808499999997,0.0,0
mp-765969,VFeP2(HO5)2,1.123,-2.220211653495654,0.0524613141406247,0
mp-10925,Pr2Se2O,2.0603,-2.5746064316874997,0.0041280877499918,0
mp-755546,Na6BeO4,1.9845,-1.7555245886363644,0.0349623861363594,0
mp-680205,PbI2,2.3538,-0.6677046177777779,0.0031216088888883,0
mp-2249,HoZn,0.0,-0.3437104500000001,0.0,0
mp-15319,Lu2C3,0.0,-0.2653217795000003,0.0404288392857141,0
mp-757206,BaTi6O12,0.0,-3.4894133157894736,0.0040262303696039,0
mp-772706,NaLi2FePCO7,3.951,-2.3659615084111723,0.0215947503846143,0
mp-770907,Gd2W2O9,2.4647,-2.8776896516346144,0.0535942705768786,0
mp-22959,AgClO2,0.9478,-0.3864438114400004,0.1909430225000008,0
mp-765431,LiVOF2,1.4401,-2.899473504559333,0.0931285318055525,0
mp-774086,Li2Mn2FeO6,0.0,-1.9845217294927275,0.0978856567045163,0
mp-25473,CoPO4F,0.0,-1.986888858469319,0.0940682093877534,0
mp-769949,Na2MnO3,1.5223,-1.9225042166183333,0.0,0
mp-567718,KTiBr3,0.0,-1.351412340333333,0.0179792605833313,0
mp-570778,Cl2,2.6476,0.0,0.0,0
mp-759946,Sc16O15,0.0,-3.1649802383467738,0.0479741467338712,0
mp-973981,LuBrO,4.3926,-3.1878465937500007,0.0,0
mp-505222,CdInBr3,2.2185,-0.8013304459999997,0.0084006069999995,0
mp-569089,Dy(PRu)2,0.0,-1.0396319365714275,0.0,0
mp-542435,Li3ScN2,2.244099999999999,-1.0576975264183328,0.0,0
mp-1018718,HfTa2N3,0.0,-1.1528456070233328,0.403679845555553,0
mp-867308,InCuPd2,0.0,-0.3888323500000004,0.0035700370833389,0
mp-571244,Nd10(B3C4)3,0.0,-0.3046655546774192,0.037419500096778,0
mp-12012,KPrGeSe4,1.6332,-1.1459048227678572,0.0,0
mp-7061,NdZnAsO,0.8621999999999991,-1.9690100834375004,0.0,0
mp-762600,Li6Fe7O15,0.0,-1.8344064338839283,0.1141628391294649,0
mp-764958,Li2CoSiO4,2.9336,-2.52292287125,0.0140494987499941,0
mp-30902,Er2Ru2O7,0.0,-2.6174444598863644,0.0357490912500004,0
mp-28068,LiDy2Cl5,0.1485,-2.141369317454167,0.1842826523611104,0
mp-774708,ZnH12C3S4(N3O2)2,4.088999999999999,-0.8209090028823329,0.0411334138520276,0
mp-613910,BaNiF6,0.4727,-2.5997887408925004,0.0,0
mp-182,SrGa2,0.0,-0.4978567366666669,0.0,0
mp-32688,Nd2Se3,1.428499999999999,-1.8896304906562496,0.0,0
mp-999083,Ti2MnSn,0.0,-0.1428010195833335,0.1804459224106836,0
mp-780757,Fe2O3F,0.0,-1.8211125762400011,0.1051315332291649,0
mp-780116,Mn6O5F7,0.0,-2.4562395464077773,0.0407741497916793,0
mp-997012,CuPdO2,0.0,-0.8923887006250002,0.0,0
mp-754989,Er(BiO2)3,2.0482,-2.21770976075,0.0409130463124975,0
mp-779091,LiFe4(BO3)4,1.173,-2.327123120555555,0.0725327348809532,0
mp-540314,Fe(PO3)3,2.0457,-2.4709211788873633,0.0647328037179493,0
mp-772098,Sm(ClO4)3,4.9264,-1.105922031705,0.0109342056250012,0
mp-763305,Li8FeO6,0.0,-2.011942160833334,0.0231026713333308,0
mp-555021,TePbO3,2.6712,-1.5614889807500003,0.0027161143333414,0
mp-24585,LiZnPH2O5,4.024900000000001,-2.1884642016585243,0.0216575818750017,0
mp-976249,NdS3,0.0,-1.306757291171876,0.3327682489843751,0
mp-542515,Gd2Te4O11,2.8974,-2.291830642867648,0.0,0
mp-12309,Cs2NaAl3F12,6.9232000000000005,-3.679819323293335,0.0,0
mp-769040,Li5BiO4,2.442599999999999,-1.9533427249999995,0.0469934689999922,0
mp-679987,NbP2S2Cl5,1.6878,-1.2422071061865478,0.0,0
mp-571569,CdI2,2.3601,-0.5911026412962962,0.0010343572592592,0
mp-25660,LiCo2P3O10,2.7489,-2.423481189486606,0.0012408675781312,0
mp-1081,V3S4,0.0,-1.3734883201785717,0.0221575521428585,0
mp-1028887,TeW2Se2S,0.0,-0.571864400208335,0.0502620764583348,0
mp-561018,Na3Sc2(BO3)3,3.7232,-3.0348613183088236,0.0,0
mp-32537,Ag2W2O7,1.9576,-1.651044924431819,0.0271264004545432,0
mp-622203,BaMnGaF7,3.624,-3.3711035514289995,0.0027059584999866,0
mp-18905,FeO,0.0,-1.2558746956250006,0.4135059175000011,0
mp-551905,OsO4,3.2473,-1.5464383099999992,0.0009153180000032,0
mp-763906,Li2VCrO4,1.7347,-2.4343567243749997,0.0110897918750003,0
mp-20211,Mn3Si,0.0,-0.3217474899999999,0.0,0
mp-610,MnAs,0.0,-0.236524587499999,0.0322922287500002,0
mp-631521,BaHfMo,0.0,1.194908978333333,1.2754909850000002,0
mp-772400,Li2W(OF2)2,4.169,-2.794253290806667,0.0024744488888881,0
mp-505424,VCdCuO4,1.113999999999999,-1.7487812664285716,0.0384409239285696,0
mp-568819,Bi20(PtBr12)3,1.2284,-0.6542760505084746,0.0122201029661015,0
mp-9665,K3BAs2,1.313,-0.3449446661111105,0.0047806458680552,0
mp-695170,Nd3Al3Si3(NO6)2,3.8758,-3.2605087192286963,0.0069330729347942,0
mp-545974,AlPO4,5.3232,-3.1283194196825392,0.0101457308333339,0
mp-771291,Li3Mn(BO2)5,4.0042,-2.681424364041753,0.0454241454823884,0
mp-30473,Ca3Ga5,0.0,-0.5006036818749999,0.0,0
mp-685120,Al2Se3,1.1228,-0.8179924651562495,0.0237978740000004,0
mp-625109,H5NO2,1.692,-0.5934883681850005,0.5399054551141624,0
mp-759346,LiCuPO4,0.0,-2.199199159013605,0.0480128767857275,0
mp-7099,NdB2Ru3,0.0,-0.4086432059722232,0.0138843791666669,0
mp-631515,CaHfZn,0.0,0.931105076666667,1.0992618613888894,0
mp-973278,KSr3,0.0,0.1070572249999999,0.1070572249999999,0
mp-27892,B5H11N2,3.8592999999999993,-0.3231343929396296,0.1481375395462949,0
mp-973283,HoLuAg2,0.0,-0.3401530362500002,0.0,0
mp-768085,Na2MnPCO7,0.5288,-2.32000014273377,0.0114677106249994,0
mp-762042,LiNiPO4,3.511799999999999,-2.2565513890136057,0.0360031182142899,0
mp-648390,CoSb(CO)3,1.6035,-0.7275973801562499,0.3624652141666669,0
mp-11604,KSm2CuS4,0.939099999999999,-1.98023981265625,0.0,0
mp-703545,SbH6C(NCl2)3,1.5847,-0.8633587513776471,0.0008752868081876,0
mp-767311,Li2Ni(CO3)2,3.8297,-1.8928777434090909,0.0429996740909128,0
mp-23623,B5Pb2BrO9,3.4053,-2.518809630122549,0.0,0
mp-20804,Rb(InAu2)2,0.0,-0.2656485285714284,0.0,0
mp-21858,UO3,1.9038,-3.5421297796874995,0.0864904812500011,0
mp-505418,CsDyI3,0.0,-1.263330486833333,0.0964665053888884,0
mp-684090,LiSbP2O7,3.6516,-2.4876659265854983,0.0429952334848486,0
mp-776666,CrFe3Sn2(PO4)6,0.037799999999999,-2.4024554266269837,0.0764828806944475,0
mp-754079,GdAsO4,3.0349,-2.7735231766666666,0.0460810233333344,0
mp-14384,Ba3Ho(BO3)3,3.8221,-3.3203714013281256,0.0,0
mp-764729,Li7VO5F,1.8165,-2.353355395531429,0.0625504794642877,0
mp-4284,Ho2CdSe4,0.6088,-1.5151207684821435,0.0108907753571418,0
mp-850878,Fe4O5F3,0.063299999999999,-2.025565932068333,0.0778980955729213,0
mp-777012,Li4Ti3V3(CuO8)2,0.267799999999999,-2.532050950357144,0.0919296044345241,0
mp-24645,Er(HO)3,3.7167,-2.3242935628014294,0.030100581785712,0
mp-770543,Mn2O3,0.0,-1.9687685391340009,0.0592542426250002,0
mp-20791,MnVAs,0.0,-0.2498052566666663,0.0990561524999993,0
mp-782679,V3(O2F)2,0.418799999999999,-2.687607854153333,0.0420013455555689,0
mp-680690,LaCu3(RuO3)4,0.0,-1.57774130925,0.0349641342678541,0
mp-10293,BaC2,2.1132,0.0847916116666667,0.0847916116666676,0
mp-777394,Sn2N2O,0.7619,-0.6215596977019999,0.0361141325479996,0
mp-638270,Mn3O4,0.0,-1.850212803268571,0.2132248950000157,0
mp-861973,PaCdAu2,0.0,-0.3593389287499997,0.0,0
mp-568730,Ge4Te7As2,0.2182,-0.0547877692307685,0.0070080453846164,0
mp-972021,SrInO3,0.0,-2.13930413875,0.18901655525001,0
mp-561254,NaLi3GeO4,3.6606,-2.2471154448611106,0.0,0
mp-1018650,Ba2ClF3,5.7401,-3.831861625305,0.0608220650000035,0
mp-570205,PrSe2,0.0,-1.633024363229166,0.0,0
mp-977557,NdCdPd2,0.0,-0.643816583125,0.032687863125,0
mp-18560,NpPO4F,0.0,-3.2211028540050344,0.0,0
mp-1029102,Te2MoWSe2,0.111099999999999,-0.3651426503645823,0.0499087625000012,0
mp-753581,LaUO4,0.0,-3.8808996058333327,0.0184486313888907,0
mp-568021,Er3AlC,0.0,-0.4312931405000001,0.0,0
mp-9143,LiPF6,7.5394,-3.0612138881544046,0.0,0
mp-540059,Li2Ni(PO4)2,0.0,-2.176668145668498,0.1099403624038384,0
mp-754333,TiO,0.0,-2.7868903339583344,0.1337984699999985,0
mp-755302,TiNbO4,0.0,-3.173379528611111,0.0518766407051245,0
mp-2889,LaPd3S4,0.0,-1.296344542656251,0.0,0
mp-705785,VZn2O4,1.601099999999999,-2.0719657014285717,0.0197342935714326,0
mp-774336,Li3BiS3,1.9514,-1.1749387217410714,0.0961758985714294,0
mp-10271,ZnCo3C,0.0,-0.0113941025000002,0.0,0
mp-755570,Li(NiS)2,0.0,-0.8578225536250003,0.0696638317499971,0
mp-680372,C,0.7132000000000001,0.4058335606666655,0.4058335606666663,0
mp-849517,Mn6O5F7,0.472,-2.4166595977966665,0.0803540984027897,0
mp-27450,KCuCl3,0.002299999999999,-1.4431435314560006,0.0,0
mp-768518,LaAlO3,4.4362,-3.7354879360833335,0.0003089596666665,0
mp-778706,Fe6O5F7,1.1025,-2.2670441549766656,0.0898314427777826,0
mp-754902,LiSbCSO7,3.976399999999999,-1.9666002123011357,0.0673393582386321,0
mp-13909,K4Sn23,0.0,-0.1233901651851846,0.0,0
mp-504825,SeCl,2.1687,-0.4870969740518749,0.0228248789648439,0
mp-733858,CaH4Se2O7,4.1584,-1.6817290450298212,0.014676886428572,0
mp-644097,BaAlH5,2.7537,-0.4328231057999997,0.0,0
mp-763699,LiMn5O10,0.536999999999999,-1.8400236870187492,0.0894921097656284,0
mp-945194,Na5(SiO3)6,0.0,-2.3415535733620687,0.2644028367888165,0
mp-849696,Mn6O5F7,0.0,-2.438256306407777,0.0587573897916637,0
mp-12062,AgB2,0.0,0.5236279355555561,0.5236279355555569,0
mp-763578,Li4(NiO2)5,0.4896,-1.259129455921053,0.0074435993421078,0
mp-1025816,MoW2(Se2S)2,0.908799999999999,-0.8179374336111115,0.0131656949999987,0
mp-776356,Li2SbS2,1.4659,-1.0619279096250005,0.0989534159999987,0
mp-23582,KLi6BiO6,1.4216,-1.9978494594642853,0.0,0
mp-29850,Na3TiCl6,0.074899999999999,-2.0549645221226673,0.030239830500002,0
mp-765813,Li2FeNiO4,0.0,-1.7040520781249988,0.0202719296875004,0
mp-8085,Mg3P2,1.1058,-0.4807814662380949,0.1867603390000001,0
mp-669508,TaP2NCl12,2.8674,-1.3870876304806552,0.0,0
mp-1030327,Te6Mo3WSe2,0.252499999999999,-0.3191117230989586,0.0236887591666663,0
mp-752475,Rb2Ga2Ge3O10,2.1164,-2.143759948088235,0.0504798427614359,0
mp-12315,DyBO3,5.3594,-3.5435745434166668,0.0,0
mp-667315,ScNb6Cl13O3,0.931299999999999,-2.094255417223042,0.0,0
mp-31419,LaSb5O12,3.0498,-2.1990517677777786,0.0,0
mp-973824,LiHg3,0.0,-0.1695871475,0.0148661974999999,0
mp-571390,Cs2LiCl3,5.13,-2.197707212463333,0.0163687733333333,0
mp-669471,HgS4(NCl)3,1.8896,-0.4377693271063631,0.0786992691236409,0
mp-761010,TiP2O7,2.5895,-2.9807416179107147,0.0,0
mp-1008820,PdN2,0.0,1.4037831550800004,1.4037831550799984,0
mp-680482,AgMo6Br13,2.0137,-0.647704090749999,0.008184206750001,0
mp-1028832,MoW(SeS)2,0.554,-0.9192517142187504,0.0476263416666675,0
mp-759873,Sb8O11F2,2.25,-1.8193812167204768,0.0762984258928582,0
mp-632812,KH4F5,7.439,-2.1452407685429997,0.0207189620000001,0
mp-542807,Cu2Te2Br2O5,0.0,-1.0586352460227266,0.0230439511363629,0
mp-976118,HgH6I3NO,1.4435,-0.7175383191958331,0.017543138802083,0
mp-865905,YbPmRh2,0.0,-0.6778903593749996,0.0,0
mp-566598,MnH2(CO2)2,3.4661,-1.4592942706333345,0.1318149374999979,0
mp-504922,UPbO4,1.510099999999999,-2.9812630562499987,0.0,0
mp-769510,Li5Ti4Co3O16,0.3364,-2.4625518473809533,0.0943803446316939,0
mp-780823,Mn3(O2F)2,0.0,-2.119141752251111,0.083681355000003,0
mp-975655,PrNiGe2,0.0,-0.7463865787499993,0.0,0
mp-616604,CsMnF4,0.0994,-2.9530919409533327,0.0149873970833338,0
mp-640899,Ce2Zn2Cu5,0.0,-0.1540772549999995,0.0321008544444429,0
mp-769254,Li2CuAsO4,1.0013,-1.7922392331249997,0.0997923895833343,0
mp-18126,Tb3CuSnSe7,1.015299999999999,-1.2739721866796867,0.0126165083333358,0
mp-767896,Li2SiNiO4,3.111399999999999,-2.3820346318749994,0.0131543062499996,0
mp-5365,DyCuSi,0.0,-0.6717412055555544,0.0,0
mp-865898,TiZnCo2,0.0,-0.3485388804166662,0.0,0
mp-28064,SbS8Cl3,2.8448,-0.8800358897733336,0.0,0
mp-505171,NaTiCuS3,0.1534,-1.3865675418923615,0.0,0
mp-555309,CS4N2(OF)3,1.3596,-1.2074100912176926,0.201799751970384,0
mp-1026911,MoW(SeS)2,0.5913,-0.9360892792187508,0.0307887766666672,0
mp-28316,K3LiSi4,1.522199999999999,-0.1136148293749994,0.0048653991517855,0
mp-863852,Li5Fe5Si7O24,2.3908,-2.646468214634147,0.0725288053658275,0
mp-554029,NaMg4V3O12,3.321599999999999,-2.731069046499999,0.0,0
mp-3654,RbCaF3,6.397399999999999,-3.7348574617139993,0.0,0
mp-760348,Li10Zn3(GeO4)4,2.7679,-2.1575027359090906,0.0995686562121145,0
mp-765737,V4(OF3)3,0.5709000000000001,-2.9310163824662503,0.0341993459374867,0
mp-25713,KNiPO4,3.3989,-2.2487217925850342,0.0,0
mp-764423,Li2CrF4,1.964899999999999,-2.9687173906799997,0.0642186478571433,0
mp-697708,Sm2Si5Ru3,0.0,-0.8458192917499999,0.0,0
mp-23497,Li2ZnI4,3.1982,-0.9443213860714283,0.0263229988392859,0
mp-769879,LiVOF3,1.837799999999999,-2.9485331691366663,0.0481375708730249,0
mp-571315,Mg3Al8FeSi6,0.0,0.0187733766666669,0.1334366860956786,0
mp-557282,Rb2Ce(NO3)6,1.491,-1.4883781048807416,0.0,0
mp-30032,TlIO4,2.002799999999999,-0.8381634725000003,0.0955668679166663,0
mp-21885,Ca2InPt2,0.0,-0.8868330380000004,0.0,0
mp-30317,Sr2AuN,0.0,-0.7336345818449996,0.0162793387500004,0
mp-773047,KNb2PO8,2.2181,-2.9238618151190483,0.0097159175555514,0
mp-759396,LiBi3(P3O10)2,3.9787,-2.4564893006190487,0.0648988933333223,0
mp-510596,EuCuSeO,0.0,-1.789426774960937,0.0,0
mp-19814,NiAs2,0.0,-0.251794343333333,0.0,0
mp-558039,Sr2HoSbO6,3.6365,-3.1379777417500008,0.0,0
mp-757586,Ba2Tl(HO)7,2.4953,-1.79526151612294,0.0,0
mp-600151,KNa2AlH6,1.3404,-0.1442492706719996,0.1523591112500026,0
mp-505306,Eu2Sn2O7,0.0,-2.6838961226136364,0.0,0
mp-755213,YbCO3,4.1307,-2.831463963750001,0.0,0
mp-762659,Li4Mn3Nb2Sn3O16,0.9693,-2.3849388199242867,0.0410759136607064,0
mp-10383,LaTeAs,0.1223,-1.3001010566666669,0.0,0
mp-638033,SiO2,0.210399999999999,-2.5840814008333326,0.7006315066666664,0
mp-759116,YbAlO3,0.0,-3.0975143837500005,0.1243840030000189,0
mp-556436,Sb2BrF15,2.8579,-2.1908876544638893,0.0028007755555687,0
mp-11332,UB2C,0.0,-0.3821169135416677,0.0510903181250022,0
mp-779970,LiFe2F5,3.2451,-2.7728075838687505,0.07578785875,0
mp-608490,NaHgCl3,2.5331,-1.3830390599559998,0.0548803870000003,0
mp-695815,BeP2(HO)4,5.9704,-1.6622075377882248,0.0240712574588766,0
mp-755594,ZnReO4,0.0,-1.8878288358333333,0.147739773333333,0
mp-505402,Cu2WO4,1.3749,-1.449693709285714,0.0765144635714261,0
mp-850102,Li4NbFe(WO6)2,2.298999999999999,-2.403507134250001,0.0167473383333351,0
mp-777527,LiV6O7F5,1.0399,-2.7144950031421056,0.0870896833918166,0
mp-504772,Y3(SiRh)2,0.0,-0.954689309642857,0.0,0
mp-19310,Na3Co(NO2)6,2.4684,-1.1750216483763638,0.068556304192656,0
mp-22141,BaIn2,0.0,-0.4921770666666664,0.0,0
mp-4409,Cu(RhO2)2,0.0,-1.064402825714286,0.0208483499999996,0
mp-18232,Ce2Al3Ge4,0.0,-0.4610158694444435,0.0,0
mp-8483,K2SO3,4.914899999999999,-2.2016450163020833,0.0486612117708338,0
mp-25082,Mo(CO)6,3.1536,-0.9047793126923082,0.4146894059615373,0
mp-4207,USb2Pd,0.0,-0.4335302524999997,0.0,0
mp-568565,CrAs,0.0,-0.1791553274999993,0.0139041512500002,0
mp-554568,H10C3NClO,5.3104000000000005,-0.4640751714431257,0.2386052843749997,0
mp-771382,LiVBO4,0.399,-2.561356306428571,0.090614395238088,0
mp-763512,Li2CoSiO4,2.7693,-2.5166313515625003,0.0203410184374934,0
mp-1814,BaAg5,0.0,-0.1646963333333335,0.0,0
mp-6167,Ba2NdNbO6,2.985,-3.3888531755000004,0.0,0
mp-1019564,Ca6Ge2O,0.2902,-1.06233688125,0.0840947955555573,0
mp-766238,Zr2N2O,1.601499999999999,-2.348521426952,0.0047836932499993,0
mp-28748,Y3IrI3,0.0,-1.1575114589285715,0.0,0
mp-777452,LiNbCoO4,2.2355,-2.4622865671428564,0.0,0
mp-559513,K2NClO3,4.0449,-0.8730547956271428,0.8517672082142864,0
mp-4877,CsNa2Si17,0.0,-0.0438840859999999,0.0,0