mpid,formula,BG,FE,e_hull,fidelity
mp-756103,Y2HgO4,2.0445,-3.033682229285714,8.188464285563413e-05,0
mp-30821,LiAl2Rh,0.0,-0.7088776899999996,0.0,0
mp-695608,Rb8BaNaAl11Si13O48,2.0294,-3.107067109573172,0.1418513207012237,0
mp-690817,SrFeMoO5,2.086,-2.2503594432812504,0.2194728043749992,0
mp-773166,Li5Cu3(NiO5)2,0.0,-1.3518246661249995,0.0706340372500067,0
mp-985805,AlAg2,0.0,-0.0742103466666665,0.0,0
mp-776097,HfO2,4.1383,-4.011200894722223,0.0279939719444417,0
mp-862727,Pm2ZnPb,0.0,-0.4077412750000001,0.0,0
mp-20743,LaInPd2,0.0,-0.8025375849999996,0.0,0
mp-772198,Be(Bi3O5)4,0.0,-1.6354666906060602,0.0830805137878796,0
mp-581875,Ta3Bi7O18,2.3299,-2.351445574017857,0.0030854072767914,0
mp-769812,Tb2Mn2O7,0.8691000000000001,-2.893810314303332,0.0,0
mp-994,YP,0.0,-1.6318439952976194,0.0,0
mp-765837,Li8VO5F,2.1185,-2.2819087841626673,0.0488157833333318,0
mp-763803,Li2Mn2F7,1.2666,-2.922872565704545,0.0830253256818185,0
mp-641957,Nd(Fe2B)6,0.0,-0.2821564993421047,0.0223667556315829,0
mp-640740,Na12B26O45,4.9612,-2.7626894865010048,0.0079388665361364,0
mp-975651,PrTm3,0.0,0.0182331837499996,0.0182331837499996,0
mp-12080,Dy(CrGe)2,0.0,-0.2897214173333339,0.143689124666662,0
mp-769493,Na3Ni2P2(CO7)2,0.0,-1.9308124195082808,0.0638137597690153,0
mp-542196,Cr2(Bi2O5)3,2.3562,-1.7369259919021742,0.0,0
mp-891955,Ca10V6O25,2.3156,-2.998949612957317,0.0287847234146303,0
mp-867998,In15SnO24,0.0,-2.0236066163750004,0.0,0
mp-28877,Cs2SnTe4,0.633,-0.6370362003571428,0.0,0
mp-23131,Sr2BN2Cl,2.7508,-1.714427058697778,0.0,0
mp-11984,YMgTl,0.0,-0.3492230691666663,0.0,0
mp-973675,Hf9AsW4,0.0,-0.2603265771428584,0.0,0
mp-761164,LiNbF5,0.063399999999999,-3.2203455644214287,0.0890136799047622,0
mp-753781,EuHfO3,0.479599999999999,-3.73588097275,0.0,0
mp-21876,Ba3NaIr2O9,0.0,-2.161842469416668,0.0,0
mp-567269,TeI4,1.8285999999999991,-0.1219411400000002,0.0026172580000001,0
mp-864892,NdAgAu2,0.0,-0.5688856843749996,0.0149679599375005,0
mp-19996,Ba2GdNbO6,2.6514,-3.431212018750001,0.0,0
mp-773719,LiFe23O32,0.496299999999999,-1.8240939312499995,0.0411122811607178,0
mp-767253,LiFeSiO4,2.873999999999999,-2.5969161492857142,0.0251010042857071,0
mp-770960,Li3TiV3O8,1.5812,-2.6715814657777788,0.0338803187499934,0
mp-554899,CsAlF4,6.9718,-3.66083372246,0.0057893331944454,0
mp-984660,Dy2InHg,0.0,-0.4746720033333336,0.0,0
mp-30969,Ho12Co7,0.0,-0.1966900578947364,0.0,0
mp-566233,Rb2Mo2O7,3.3644,-2.2108954769318183,0.0033811347727317,0
mp-11081,CeSnAu,0.0,-0.7204543866666663,0.0,0
mp-966800,InP,0.5146000000000001,-0.2197054990476195,0.0059025450000005,0
mp-779805,Li8Mn3Fe5(BO3)8,0.0,-2.452685731171112,0.0022494765624996,0
mp-976125,PrGaAu2,0.0,-0.5980787474999998,0.0201970033928571,0
mp-974584,ReAu3,0.0,0.6536743187499994,0.6536743187499994,0
mp-755364,NdSeO,0.337099999999999,-2.7279460091145844,0.0374049201171855,0
mp-566372,K2UCr(IO6)2,2.1162,-1.960963661944444,0.0,0
mp-560921,NaAlAs2O7,2.7304,-2.212999578522727,0.0,0
mp-707081,Ca3P4H20(NO10)2,4.9331000000000005,-1.9793021948885905,0.0160088461224479,0
mp-981549,Y3Th,0.0,0.0540962931250001,0.0540962931250001,0
mp-775523,Li3Fe2(PO4)3,2.2652,-2.5281240434642873,0.0440402791249985,0
mp-542770,Fe2PH2CO7,2.4337,-1.975819915506556,0.0,0
mp-35404,Na2CeO3,2.1042,-2.1976962989583333,0.5020381583333302,0
mp-4667,ZrSnRh,0.0,-0.7736745761111108,0.0,0
mp-771483,Na3NiBSO7,2.689799999999999,-2.1275301395753203,0.0689925776923034,0
mp-850498,LiFe8(BO3)8,1.7294999999999991,-2.3161307661788624,0.0658815315243792,0
mp-570738,GaI2,2.3766,-0.4738516052777777,0.0,0
mp-764425,LiY3WO8,2.7868,-3.238821687500001,0.0927261418269172,0
mp-776662,LiCrPO4F,1.4027,-2.688593076004405,0.0760604607812478,0
mp-27600,Cd3(PO4)2,2.2063,-2.250649773553113,0.0205043169871785,0
mp-565260,Nd2W2O9,3.5017,-2.9313085604807703,0.0,0
mp-19122,BaSr2Mn2(Si2O7)2,1.619599999999999,-3.118433957366087,0.000661314882274,0
mp-11521,ScNi,0.0,-0.5030263350000004,0.0,0
mp-774393,Li2MnFe(BO3)2,2.7044,-2.4659901048716666,0.0034615429166642,0
mp-775968,Mn3Fe3(TeO8)2,0.325,-1.6914651072033329,0.0664642911263087,0
mp-36903,KNO3,2.9543,-1.5062462052260002,0.008168243500001,0
mp-977200,Na3C,0.0,1.056352804375,1.056352804375,0
mp-5280,In2Ge2O7,1.7955,-2.083155327159091,0.0,0
mp-757207,YH5S3O13,5.6236,-2.070649719047159,0.0114718284658694,0
mp-765367,LiVF4,2.0189,-3.1615333114183333,0.0671895952083438,0
mp-773303,Mn5NiO12,1.0809,-1.5781184655444445,0.0448524465972219,0
mp-9416,La(CuO2)2,0.0,-2.051036244285714,0.0,0
mp-762466,Li2Cr3O6,0.5545999999999991,-2.254041672045455,0.0686052570707103,0
mp-618,Pd7Se2,0.0,-0.1613828346875002,0.0117177767283962,0
mp-978851,SrAsO3,0.0,-2.2911309437500007,0.2456855517777772,0
mp-607371,RuN2,0.0,0.1155536434133341,0.1155536434133353,0
mp-844,Ca3N2,1.1111,-0.9326160667019998,0.0,0
mp-30014,As2Kr3F16,1.149,-1.5589973903114285,0.0021684853571448,0
mp-777022,Li4Mn3Cr3(WO8)2,0.0,-2.247309174745714,0.0633696216071459,0
mp-707406,Rb6Te3P6(H13O20)2,3.47,-1.8708344564529804,0.0223213958641972,0
mp-27947,Sn(SbTe2)2,0.259,-0.1736619092857146,0.7255568428571421,0
mp-764355,LiFeSiO4,2.9554,-2.566618604285715,0.0553985492857069,0
mp-981392,HoHfOs2,0.0,-0.3761020725000001,0.0,0
mp-545539,Pr2BiO2,0.0,-2.8350865335000015,0.0,0
mp-29236,InTeBr,1.5714,-0.5838790549999997,0.0,0
mp-669,ThAl2,0.0,-0.4495274366666671,0.0,0
mp-647725,Os5C17O16,2.0169,-0.901824448486843,0.2247229162499984,0
mp-16981,Sm5Si3O13,0.0,-3.6349773894642863,0.0364117721651791,0
mp-549308,LiGeBO4,2.731099999999999,-2.3031164923809517,0.206573067142858,0
mp-27529,PI3,2.2746,-0.0595746320238097,0.0,0
mp-25028,TbMn2O5,1.081499999999999,-2.661978547062916,0.0,0
mp-776593,LuScO3,4.4786,-3.99753888225,0.0637480292500001,0
mp-757690,LiNb(PO3)4,0.1808,-2.5857087131878305,0.0973138638002568,0
mp-11282,Be2W,0.0,-0.3007025108333335,0.0,0
mp-1018018,PdN,0.0,0.8625701813100006,0.8625701813099997,0
mp-1018731,HoSI,2.720799999999999,-2.041810956354167,0.0,0
mp-19668,LaCrO4,1.0296,-2.7902514891666663,0.0050510937500067,0
mp-777069,LiMn2PO5,1.829999999999999,-2.425297878196138,0.0804807375000002,0
mp-550086,V2CuO6,0.3328,-1.9860894475000004,0.0270358822222291,0
mp-10172,Na,0.0,0.0,0.0,0
mp-582080,Cs3LaCl6,4.5827,-2.549060480956,0.0,0
mp-675102,Ce9GdO20,0.0,-3.863248058166666,0.012822092562498,0
mp-6565,Li3Sc2(PO4)3,4.7407,-3.1378745604642866,0.0,0
mp-196,Al5Co2,0.0,-0.4584997007142846,0.0,0
mp-25634,Li3V2(GeO5)2,0.0,-2.305479279264706,0.0564953761765103,0
mp-972993,LiSmAu2,0.0,-0.681972150625,0.0,0
mp-676464,Cd3AsI3,0.8399000000000001,-0.4474328699999998,0.0,0
mp-28776,K2UBr5,0.1168,-1.562080789375,0.0,0
mp-735563,CsCoH18N6(ClO2)4,0.0,-0.8069375190126307,0.3636360755222841,0
mp-561454,KAu(SO4)2,1.4475,-1.8044197681770828,0.0,0
mp-754699,NaTi2O3,0.0,-2.7689093790972223,0.0781923563425976,0
mp-762516,Li3Mn3O8,0.0,-1.9458262234199992,0.0677703958482114,0
mp-769019,Li(BiO2)2,0.0,-1.6402171210714285,0.0874837472023921,0
mp-570765,YMg4Cu,0.0,-0.1273292245833334,0.0,0
mp-760311,Na7SbO6,1.7517,-1.7407145926785716,0.0382881878571463,0
mp-859126,Ba3CaI8,2.949,-1.7133727683333333,0.0459494144791663,0
mp-556186,P2SN3Cl5O,4.0172,-0.8810410308285809,0.1398010480050002,0
mp-25030,TbMnO3,0.4016,-3.0465254291086663,0.0,0
mp-776532,HfO2,3.902499999999999,-4.014358577499999,0.0248362891666644,0
mp-761317,Li2VSi4O11,2.2167,-2.977257485486111,0.0529547930555995,0
mp-15269,Sr3CdIrO6,0.0,-2.3716223865909103,0.0,0
mp-13363,SiPt3,0.0,-0.5183041600000005,0.0235221324999992,0
mp-15222,Rb2NbCuSe4,1.6771,-0.9601869342968748,0.0,0
mp-5109,Y(NiGe)2,0.0,-0.6951181685000002,0.0,0
mp-767317,Li4Mn(OF)2,1.3372,-2.45443705176,0.0956836931481479,0
mp-20155,CoSn2,0.0,-0.0652092233333328,0.0031895565972188,0
mp-1027328,MoW3(SeS3)2,0.567299999999999,-1.0871917309635415,0.0281115591666694,0
mp-1029550,Ca2CrN3,0.0,-1.1387784799399998,0.0,0
mp-38468,Li7Ti12O24,0.0,-3.1632018188372104,0.0478731003488359,0
mp-755947,Li3(CrS2)4,0.0,-1.230504432833334,0.0265606077037032,0
mp-778634,Tb2WO6,3.2092,-3.3134407185185184,0.0015135308333338,0
mp-566150,In2Cu3(PO4)4,0.0,-2.1741038402952366,0.0010944805999972,0
mp-12383,Sc2Te3,0.0,-1.2265459350000008,0.0217258124999979,0
mp-22310,UCrC2,0.0,0.0751108649999992,0.2260881812499971,0
mp-607806,Ho3Se3N,1.5205,-1.9127677608087488,0.0,0
mp-554110,CSNO3,3.7853,-1.1263327546154176,0.2548103223255556,0
mp-1030295,Te3MoWSe,0.0051,-0.2529951930989587,0.0485856097916652,0
mp-32760,LiP5,0.5134999999999991,-0.113289611746031,0.097022591130953,0
mp-27474,PaBr4,0.041199999999999,-1.437149667,0.0,0
mp-566127,SrFe3(PO4)3,1.4011999999999991,-2.6520411641729327,0.0,0
mp-768910,Bi2B2O7,0.216699999999999,-1.7312508760984842,0.3753101840530171,0
mp-772305,Y2Bi2O7,0.0,-2.554085774886364,0.0626838009090864,0
mp-773309,Li2CrCuO4,0.0,-1.8733258906249992,0.0605512731250001,0
mp-504836,YMn4(CuO4)3,0.0,-1.8520996209419989,0.0383221065624974,0
mp-554187,SnH21C7S4N(O3F)2,4.7629,-0.7145970085007152,0.2773599928996582,0
mp-542570,AsSe,1.367999999999999,-0.0939889167968752,0.0069431199999998,0
mp-2639,Na3N,0.0,0.1343754031550004,0.2640788624999994,0
mp-555119,SrTaF7,5.4906,-3.879412330925556,0.0,0
mp-1014264,CrN2,0.0,0.4481153384133331,0.8910734558733306,0
mp-1058,PdF2,0.0,-1.389346459126667,0.0253395594444434,0
mp-9774,Ba4Sb2O,0.6382000000000001,-1.598544093035713,0.0,0
mp-865051,NaCa2Tl,0.0,-0.2267429525000002,0.0,0
mp-28765,CBr3F,3.3196,-0.368592754238,0.1811883173750001,0
mp-29779,Lu3Ni2Ge3,0.0,-0.8161115212499999,0.0,0
mp-1019262,Ta2N3O,0.0,-0.7455864080649993,0.9690010093122208,0
mp-11392,TmGa2Pd,0.0,-0.7909166875000002,0.0,0
mp-777141,Li6V2C4SO16,3.054299999999999,-2.1815336032435337,0.0669342531072727,0
mp-23154,Br,1.4492,0.0,0.0,0
mp-975199,RbSr3,0.0,0.1318321374999997,0.1318321374999997,0
mp-676020,BaCO3,4.017799999999999,-2.6630757542500008,0.0337600239999957,0
mp-695254,Ca10La6Mg3Ti13O48,1.916599999999999,-3.6060426919583337,0.0149275823124988,0
mp-771182,CrFe5(PO4)6,1.4095,-2.41632200968254,0.0405079490972308,0
mp-555428,Sr5(ReO6)2,2.1062,-2.893871372105264,0.0,0
mp-762034,Li2Co2P2O9,1.0645,-2.2006936544960327,0.0767336969444389,0
mp-1022808,Ba2NbFeO6,1.35,-2.9348888245000015,0.0204461567499922,0
mp-780158,Cr4OF11,0.8343,-2.88176558527125,0.0338064061197869,0
mp-972087,ZrH3,0.0,-0.3717835864650008,0.1182228453449996,0
mp-30357,Sr3Ag2,0.0,-0.2718937553333333,0.0,0
mp-762871,Fe2CuAs2(HO5)2,0.7757000000000001,-1.5090699164552943,0.1017058411274396,0
mp-771633,Li3Mn(PO4)2,0.283,-2.6142129890821764,0.0206644033928524,0
mp-760510,Sr2Bi2O5,2.2664,-2.3666434629166653,0.0006176463888891,0
mp-567574,DyAgGe,0.0,-0.6573241938888891,0.0,0
mp-978284,Na2P3HO9,5.2647,-2.5230539306103807,0.0,0
mp-978,Sr2Sn,0.155699999999999,-0.6247376225000002,0.0,0
mp-849238,Li2MnSiO4,2.882399999999999,-2.694888856995,0.0099900824999998,0
mp-541558,Sc4Ge6Rh7,0.0,-0.9252079223529418,0.0,0
mp-764968,InPH5NO5,3.5128,-1.684966775178864,0.0,0
mp-773720,LiMnSbO4,0.339199999999999,-2.0907793687085707,0.0240104753571337,0
mp-560322,K2RuN3Cl3O5,2.0797,-1.3264363841549989,0.0,0
mp-556051,Rb2GeO3,3.0091,-2.0940381615972226,0.0,0
mp-997023,CuBrO2,0.8900999999999991,-0.2895853531250001,0.2807148767708343,0
mp-11977,LiSnAu,0.0,-0.4320272533333327,0.0,0
mp-29063,ThZrF8,5.6773,-4.2848152694519985,0.0,0
mp-780588,Li3MnCr3O8,0.5042,-2.265243795397333,0.0400979710000033,0
mp-1018097,BaCaO2,2.1353,-2.8735353706249995,0.1992748850000003,0
mp-9066,NaLi2AsO4,3.8891,-2.21631727625,0.0,0
mp-762254,Li3V5O12,1.119599999999999,-2.42308203275,0.0728920387499885,0
mp-677638,Na27Ca3Al5(P2O7)12,4.7813,-2.8128795858341658,0.0,0
mp-1028709,Te2MoW3(Se2S)2,0.0,-0.6209577352083345,0.0423884208333333,0
mp-31690,Cr(PO3)3,1.949,-2.5448524075412084,0.087538835384616,0
mp-1022,K2S,2.322,-1.2819835280208336,0.0,0
mp-9379,Sr(SnAs)2,0.0283,-0.55111427,0.0,0
mp-776911,MgO,3.4257,-2.973802604375,0.0914317212500002,0
mp-13007,PrCrGe3,0.0,-0.3911654069999997,0.0388808094999992,0
mp-20559,Ga3Co,0.0,-0.2600609450000002,0.0,0
mp-31127,Sr3P4O13,5.2118,-3.1406396051815486,0.0055158764999934,0
mp-705510,Rb4NaW2N5O,0.0581,0.100015680142307,0.948154829972971,0
mp-31495,AgTe2Au,0.0,0.1341718999999996,0.2118333247916659,0
mp-779371,Li3MnV(PO4)3,0.3848,-2.6337888817622863,0.0513792798124646,0
mp-18961,ScCrO3,2.4812,-3.1322793912500004,0.0345398643750041,0
mp-10854,Tb(BC)2,0.0,-0.4493383253333349,0.0,0
mp-4998,Sr2IrO4,0.0,-2.374183984285714,0.0,0
mp-20725,PbO2,0.0155,-1.3168094241666666,0.0,0
mp-773409,NaLi5Fe2P2(CO7)2,4.0342,-2.369704779565019,0.0326915840384609,0
mp-676517,La3U2O10,0.2105,-3.9080775608333336,0.0163435883333153,0
mp-554390,SrAl2SiN2O3,3.7236,-2.6362563801122216,0.0,0
mp-950214,Cd2TeCl2O3,3.3711,-1.5174339539400004,0.0051217315625002,0
mp-569321,Mn2Ru(CN)6,1.934799999999999,0.0132219723813345,0.1419656660320019,0
mp-762690,Li7FeP4O14F,3.9177999999999993,-2.666038648558183,0.0651493130864304,0
mp-765227,Li6Sn5(P2O7)4,2.6673,-2.4761389564842955,0.0649477838297842,0
mp-776344,V2O5,2.7539,-2.2897243694642864,0.0114214121428553,0
mp-8696,K3Na(SeO4)2,3.5425,-1.8084447787276776,0.0033651657142854,0
mp-26513,LiCuPO4,0.0939,-2.1993562842517003,0.0478557515476323,0
mp-6074,KRb2TiF6,0.0,-3.317169731380666,0.0,0
mp-861499,Pr2CuIr,0.0,-0.3750619024999997,0.0,0
mp-585418,Fe(PO3)4,0.008599999999999,-2.390998309551821,0.0540718660416743,0
mp-569810,Sr2BIN2,2.532599999999999,-1.4307876448211108,0.0,0
mp-673116,Bi5(PO4)6,0.0,-2.2135760015306127,0.1277136686607134,0
mp-504574,Li7IN2,0.0,0.1553567180240001,0.7803356454999997,0
mp-570411,K12In2Se9,1.646,-1.0818672171671195,0.0,0
mp-542269,Pr4(GeS4)3,1.9961,-1.6664182878289482,0.0,0
mp-755804,Lu6TeO12,2.8127,-3.6667875823684217,0.0,0
mp-567600,Sm(SiAg)2,0.0,-0.4274411044999994,0.0,0
mp-9254,Al2Te5,1.0356,-0.3268855785714289,0.0,0
mp-572313,Cu3Te2(BrO3)2,0.0,-1.0441312251923085,0.0178112640384613,0
mp-1019610,Cs2MgSi5O12,4.5828,-3.160177763500001,0.0,0
mp-1018015,Ti2MnGe,0.0,-0.2426122045833337,0.2881662822500006,0
mp-559964,Ti6O11,0.0,-3.455146079338236,0.0071163277940993,0
mp-557029,PtS4N3Cl,1.503599999999999,-0.3132661210166674,0.1515040780194443,0
mp-1019898,LaPO4,4.6606,-3.498424426349207,0.0207721729166756,0
mp-31541,LiCoPO4,2.9248000000000003,-2.4276569109183668,0.0066948947023837,0
mp-775017,Fe3Ni(PO4)4,0.0,-2.2673224780158727,0.0422395605468954,0
mp-766734,LiMnPO4,3.2264,-2.551183510936464,0.098974716071428,0
mp-971705,Tm2MgTl,0.0,-0.1893308437500001,0.0,0
mp-779991,Li2Cr3FeO8,0.3826,-2.1044371000000006,0.0920395348253997,0
mp-775300,Na3CoO3,1.6212,-1.5820991180357151,0.034213517499996,0
mp-30721,Hg5Pd2,0.0,-0.0596159100000002,0.0366818728571427,0
mp-676270,Cr2AsSe,0.0,-0.0154329208984362,0.2983595185416661,0
mp-555971,ZnAs2C12(NF)12,4.0887,-0.6739441237907686,0.3210378166394889,0
mp-763006,LiMnF4,0.4745,-2.8569175501200004,0.0933387541666563,0
mp-743762,Ca2Al4Si8H14O31,2.8699,-2.1210276608377967,0.5582922970338986,0
mp-554540,Li5ReO6,2.2088,-2.3221610621527784,0.0002601788888894,0
mp-777907,Li5FeOF5,4.2827,-2.833492413933333,0.095471186666666,0
mp-754422,BaYb2O4,0.0,-2.8100108639285706,0.204350865357144,0
mp-11808,ScNi4Sn,0.0,-0.4080061591666665,0.0,0
mp-757758,LiTi3Nb(PO4)6,2.517299999999999,-2.9990429845306132,0.0040891503571494,0
mp-672677,Ti6Co16Si7,0.0,-0.6143569658620691,0.0,0
mp-510557,CsN3,4.2196,-0.4412666267849996,0.0,0
mp-15547,Na2ZnGaF7,3.9775,-2.9249787170072716,0.0,0
mp-1028595,Te6MoW3Se2,0.0057,-0.2054643580989577,0.0548967654166663,0
mp-765114,Li2Fe(CO3)2,3.4821,-2.0231799554545464,0.0211500524999994,0
mp-18983,ErNiO3,0.0,-2.4235563762500005,0.0,0
mp-793779,Li4Fe3Co3(SnO8)2,0.0,-1.8099828499999997,0.0570939227231868,0
mp-21039,PbS,0.0,-0.6114277370312502,0.2564027000000006,0
mp-557656,RbNaSi2O5,4.4435,-2.9232623506944435,0.0,0
mp-776850,Li2Mg2(WO4)3,4.2023,-2.4406358065789484,0.0503330778947379,0
mp-1780,ScRh,0.0,-1.0361610849999998,0.0,0
mp-570668,LaSe2,0.238699999999999,-1.7572021507291662,0.0,0
mp-13862,B13P2,0.0,0.6892486631428558,0.961515667555556,0
mp-774155,Li2FeO3,0.096599999999999,-1.9685865489583323,0.0,0
mp-777898,LiFeF4,3.5555,-2.830403276626667,0.0973435285185271,0
mp-3255,SrCu2O3,0.0,-1.6939204506250007,0.0167444491666675,0
mp-559612,KLiO,2.3803,-1.65228926875,0.0134810233333331,0
mp-690559,NaLa2Ti2MnO9,0.0079,-3.2989863470362213,0.0289803663333536,0
mp-695866,BeH8(NF2)2,6.2707,-1.5916033618986665,0.0667950967499946,0
mp-752798,CeTh2O6,1.835099999999999,-4.234122286388889,0.0054669088888879,0
mp-767616,Li2VSi3O8,2.984199999999999,-2.862527752857144,0.0950767549450564,0
mp-4870,Cu(BO2)2,0.0,-2.295791123571429,0.0,0
mp-30140,BeI2,4.1400999999999994,-0.5739949491666669,0.0039423758333345,0
mp-27317,SbAsF8,3.8632,-2.578234989452,0.0,0
mp-776626,LiVF4,2.4317,-3.2133016849600007,0.015421221666676,0
mp-10942,KNaLaNbO5,3.6387,-3.0589626884722216,0.0,0
mp-569308,Bi2(PSe3)3,1.4152,-0.1829513636878199,0.0041159732142856,0
mp-752942,LiTi2O4,0.0,-3.1711372397619044,0.0897531164285574,0
mp-557812,Ti3O,0.0,-1.5697669586458336,0.0061231366666678,0
mp-27976,SmBr3,2.9285,-1.901653449375,0.0,0
mp-36526,AcOF,4.256600000000001,-4.183344208313334,0.0,0
mp-765208,LiVF4,1.9744,-3.1607888721822217,0.0679340344444545,0
mp-2483,DyMn2,0.0,0.140175191111112,0.1411438842592591,0
mp-9693,K2SnSe3,1.646,-0.8938144017968744,0.0,0
mp-557862,BaAg2(HgO2)2,1.3289,-1.1312902444444444,0.0048336338888894,0
mp-18960,ErVO4,2.9661,-3.22665981,0.0,0
mp-28941,HfAg2S3,1.1128,-1.1214978511979166,0.0301017175,0
mp-861128,Li6Mn5CoO12,0.7322000000000001,-2.038724113324999,0.0581769845833335,0
mp-720868,Ca2CdH24(ClO2)6,4.241899999999999,-1.5595720064764445,0.0234793250000002,0
mp-542425,MnP4H16(NO8)2,4.0598,-1.7854313457954092,0.0,0
mp-18189,LiTmSn,0.0,-0.6214449912500003,0.0,0
mp-1009113,HoHg2,0.0,-0.061324785,0.3257208700000003,0
mp-1019093,PaP2,0.0,-1.0323448187301594,0.0,0
mp-774266,Na2LiMnPCO7,3.431899999999999,-2.3924948104080954,0.0242793870512825,0
mp-762045,Li2Co3SbO8,0.736399999999999,-1.7840615448214283,0.0,0
mp-22672,CeC,0.0,-0.0553873787499998,0.1569391254166658,0
mp-11991,Nd2CdNi2,0.0,-0.3647036800000002,0.0,0
mp-772059,Li5Mn4O8,0.0,-2.0613809825788225,0.0638027963725429,0
mp-15520,TbZn(BO2)5,5.0939,-2.9434901023039215,0.0114445363602975,0
mp-25153,TlVO3,2.9722,-2.020385036750002,0.0,0
mp-558571,Sc2Te5O13,2.9509,-2.1426063710625,0.0,0
mp-762071,Li4Co3Ni3(TeO8)2,0.0,-1.549444169642857,0.0209642690178375,0
mp-676552,Nd2Th8O19,2.7912,-4.260200727198275,0.025347895948272,0
mp-775909,ZrO2,3.4318,-3.7806636425,0.0525561700000007,0
mp-24897,Cr3O,0.0,0.7927156071875006,1.7717052212499995,0
mp-30426,BaCdBi2,0.0,-0.51551846,0.0,0
mp-560326,Ba5B3CNO9,3.3351,-2.8276143934805247,0.0234493836184226,0
mp-680695,Ce3B2(ClO2)3,0.0,-3.1742133707580957,0.0349051447448918,0
mp-1028872,TeMoWSeS2,0.407,-0.7587735077864579,0.1082350391666668,0
mp-569018,Mg3Bi2,0.0,-0.1947251299999997,0.0,0
mp-777451,Li2FeF4,3.6065,-2.941125242287143,0.049877952678571,0
mp-850875,Fe2OF3,1.341,-2.4326933737200003,0.0765655279166743,0
mp-985304,Cr(GaS2)2,0.0,-0.9833561194642868,0.067261635357144,0
mp-1018033,AgRhO2,0.786999999999999,-0.8888740556250001,0.0377746537499996,0
mp-7937,NaNbS2,0.6250999999999991,-1.5426218320312506,0.0,0
mp-866286,AcMg,0.0,-0.0848458987499998,0.0,0
mp-24084,KH,3.4387,-0.2671689893099995,0.0,0
mp-980005,AcYbRh2,0.0,-0.5719447843749998,0.0,0
mp-676072,Ce2PbSe4,0.0,-1.4262096820535717,0.0365367692857097,0
mp-1029711,NaVN2,0.851599999999999,-0.8350803480649995,0.0,0
mp-24396,MgH14SO11,5.1954,-1.64496780253676,0.0087102209259253,0
mp-6676,Sr2HoRuO6,0.0,-2.884186246750001,0.0,0
mp-850032,Fe3S4,0.0,-0.7080368723214292,0.1813951292857148,0
mp-867673,Na3(Pt3O4)4,0.0,-1.0447326556451602,0.0,0
mp-3886,Zr2AlC,0.0,-0.6464078581250012,0.0119686429166634,0
mp-867297,AcIn3,0.0,-0.4381678168749996,0.0,0
mp-39511,LiCaTa2O6F,3.662899999999999,-3.414975417153636,0.0301409689393938,0
mp-11503,MnZn,0.0,0.0723547325000009,0.0859613650000081,0
mp-978568,Si3MoPt2,0.0,-0.6306723208333338,0.0,0
mp-555096,PrS2,0.343399999999999,-2.182688004375,0.0,0
mp-778591,LiMnF3,3.651,-3.043282211906,0.0214686739999994,0
mp-30409,Mn2Au,0.0,0.1806537233333335,0.2347202766666676,0