mpid,formula,BG,FE,e_hull,fidelity
mp-626843,Ni(HO)2,1.869999999999999,-1.1755210919479993,0.0165055859999991,0
mp-540050,Fe3P3O11,1.5595,-2.4203891242962188,0.0380586233088244,0
mp-767248,LiFeSiO4,2.6071,-2.5717842659523806,0.0502328876190407,0
mp-998969,TiH,0.0,-0.221477747643334,0.2173800058333332,0
mp-764788,LiMn2OF3,1.8555,-2.6914199723914285,0.0692449392857135,0
mp-541787,Na8Hg3,0.0,-0.1741787484090909,0.0,0
mp-649950,RuC3Br2O3,2.1206,-0.929720732916667,0.0577463395370356,0
mp-696291,ZnH4(NO4)2,3.314,-1.218532693616,0.0,0
mp-763820,Li3Mn5F15,0.0,-2.9331034340282596,0.0534358136956472,0
mp-773525,LiFe3O4,0.7842,-1.8487361293749995,0.0243818193750016,0
mp-22856,Bi2S3,1.361799999999999,-0.7411918229374997,0.0,0
mp-1007694,SnPO4F,2.6443,-2.551881854540748,0.0,0
mp-541868,Te3MoCl16,0.0514,-1.1329875446080002,0.0010643159097187,0
mp-764,CeCo5,0.0,-0.1069309149999995,0.0179878037820522,0
mp-850280,Na8SnO6,1.7356,-1.6567114188333334,0.05516918,0
mp-11419,ThGa2,0.0,-0.6329139033333332,0.0019021766666664,0
mp-977442,Yb2ZnGa,0.0,-0.4309942687500001,0.0,0
mp-774520,TiAlO3,0.0,-3.3146514670833342,0.065829110000001,0
mp-12719,LiNdSn,0.0,-0.4998057341666667,0.0847517959607824,0
mp-975933,NdHoIn2,0.0,-0.4771873256250001,0.0,0
mp-766422,Li3BiS4,1.6645,-1.10116438296875,0.0651070622767857,0
mp-605559,Na4VHO5,3.9674,-2.1102388624881816,0.0090621802272723,0
mp-5940,CeB2Ru3,0.0,-0.5063974013888881,0.0,0
mp-976291,LiAlH4,3.959699999999999,-0.2333175465799997,0.0166912008333333,0
mp-15954,As2Rh,0.237499999999999,-0.5027580499999994,0.0,0
mp-626456,As3HO6,3.0456,-1.511740744112,0.0956540625000004,0
mp-1030514,Te2Mo3W(Se2S)2,0.0,-0.6761440193750007,0.0424392933333335,0
mp-541875,K3SnSe3,1.627599999999999,-1.0051484951116068,0.0,0
mp-861609,Li2Mn4Si4O13,2.346399999999999,-2.755306142612609,0.0188599146195649,0
mp-770558,MnP2O7,1.3002,-2.391657855340048,0.0060582372499995,0
mp-1018716,HfN2,0.573299999999999,-1.0117404149199984,0.4538573886377789,0
mp-3797,K3AsS4,2.0132,-1.20660883390625,0.0,0
mp-20357,Ce2InPt2,0.0,-1.0325373109999991,0.0,0
mp-1034270,RbMg14BO15,0.294299999999999,-2.5677129327553763,0.3722267980498541,0
mp-10930,TbSF,1.2587,-3.389393991195277,0.0,0
mp-6574,Er2C(NO)2,4.0097,-2.5262355792514293,0.0,0
mp-8097,SiP,0.0,0.2287603759523806,0.3850705087500001,0
mp-752881,Li2CuS2,0.0,-1.062790657625,0.0856195936666672,0
mp-20937,Cr3C2,0.0,-0.1104920515000003,0.0,0
mp-558564,SiO2,5.5113,-3.1886795961111125,0.0960333113888882,0
mp-1019103,SmSbPd,0.0,-1.0523874224999996,0.0,0
mp-755413,Na2O,1.0915,-1.3753907104166665,0.0790047933333335,0
mp-762694,Li3Ti2Fe3O10,1.644199999999999,-2.526108074212964,0.0525520297618902,0
mp-757149,Sr2Hf7O16,4.4155,-3.953094305799998,0.0027425682999968,0
mp-977571,MgRh2Pb,0.0,-0.3256618375000002,0.0,0
mp-24979,LiFe(GeO3)2,2.2946,-2.12854813275,0.0070124814999994,0
mp-558990,K2Sr(PO3)4,5.602600000000001,-2.8586879740726823,0.0,0
mp-743640,Li3La8Ti9Cr3O36,1.2976,-3.4354064361864403,0.0658399271186542,0
mp-625445,H2SO4,5.577,-1.6392510659003563,0.0474763735714267,0
mp-976884,PrBiPd2,0.0,-0.6918031212500004,0.0065451637500002,0
mp-699575,CoSiO3,2.6041,-2.487455564375,0.018127303375004,0
mp-763051,Li2VO2F,1.806899999999999,-2.7124158481149987,0.0071230849999981,0
mp-29614,KEu2I5,1.2522,-1.5826974762499997,0.0,0
mp-560632,NaGaSiO4,3.8215,-2.727887620476192,0.0,0
mp-22555,RhS2,0.0,-0.8118345027083341,0.0,0
mp-757388,PH6NO4,4.9684,-1.5175344685162706,0.0429299254166606,0
mp-765959,NaPH3C2N3O4,4.5922,-1.3422888720425177,0.0089971926503178,0
mp-7571,KNbF6,5.1345,-3.4386523815175,0.0,0
mp-31088,Dy2Pd2Pb,0.0,-0.8386556306666663,0.0,0
mp-571179,AlTeCl7,3.1496,-1.4830182594800003,0.0010263602777778,0
mp-682067,KCaNb2O6F,2.7607,-3.204838938062728,0.0095763222272733,0
mp-557437,KBi(PS3)2,2.2234,-0.9133145700565486,0.0,0
mp-1143,Al2O3,5.853700000000001,-3.44211350075,0.0,0
mp-570870,Hf5Sb9,0.0,-0.4322364053571428,0.0018756823214278,0
mp-974432,Re3Sn,0.0,0.5580797849999986,0.5580797849999986,0
mp-25736,Co2PH2CO7,2.6355,-1.8279310372373256,0.0203465912499982,0
mp-27363,BaVSe3,0.0,-1.1985685731562503,0.0362530820000008,0
mp-767453,Li4MnFe3(PO4)4,3.7374,-2.5754696747621755,0.0007525942857036,0
mp-675920,Ti6AgS12,0.0,-1.6355184188815794,0.0,0
mp-3849,TlFeS2,0.0,-0.7065107932812502,0.0723374987500005,0
mp-626037,Si2H2O5,5.4403000000000015,-2.617975975943332,0.0354437936111118,0
mp-9538,Ag3AsS4,0.349899999999999,-0.4152953551562501,0.0,0
mp-7226,V3Ni,0.0,-0.1497019499999989,0.0,0
mp-8546,SmB4,0.0,-0.5873100088333338,0.0,0
mp-777591,Li4Ti5Fe3O16,1.195199999999999,-2.852766599404762,0.029287790051061,0
mp-31289,Bi5NO10,2.6161,-1.533987036086249,0.0,0
mp-6265,Ba2TbSbO6,3.507199999999999,-3.099957831583333,0.0,0
mp-567650,Mn2Fe(CN)6,2.0169,0.0129041527146663,0.1833781138573353,0
mp-864932,Mg2AgPt,0.0,-0.5760559700000001,0.0,0
mp-11854,Er5Ge3,0.0,-0.80261827,0.0,0
mp-863654,Pm2CdSi,0.0,-0.3963067825000004,0.0,0
mp-7819,Pd4S,0.0,-0.3098898398125002,0.0,0
mp-850163,Li3Mn3(PO4)4,0.7661999999999991,-2.48858691058696,0.0645756927884626,0
mp-722344,KCa4B22H18ClO46,5.510099999999999,-2.516556448832464,0.0018089655512367,0
mp-767749,Li12MnCo3P4(CO7)4,2.0062,-2.3437575574680953,0.0452656336538463,0
mp-24830,SiP3H29C10BrN,4.0491,-0.3159017304810169,0.0622846244742065,0
mp-10709,ReC,0.0,0.9439375637499996,0.9691378918749988,0
mp-42264,K2MnH4(Cl2O)2,3.6477,-1.7094677146907693,0.0213711388461543,0
mp-770456,Li6Ti2O7,2.3765,-2.8119471514722227,0.0179306763333393,0
mp-567433,BP(IBr)3,1.9337,-0.3211266040327385,0.0,0
mp-6037,Ba2SmSbO6,3.605399999999999,-3.0561169375,0.0,0
mp-28352,YSiRh2,0.0,-1.0201534014583338,0.0,0
mp-680331,CdHg3C6S6(N3Cl)2,2.0621,-0.1925130704239576,0.1835990256624402,0
mp-849456,LiCo2OF5,0.045499999999999,-2.2349508052444444,0.0727939231944461,0
mp-676167,Tb14Ti10O41,2.3958,-3.75982838822436,0.0897864906538341,0
mp-1030338,Te4Mo3W(SeS)2,0.0,-0.5439203546093753,0.0747934491666679,0
mp-764139,Li3V3P8O29,1.2772,-2.5406368623491153,0.0465173416569797,0
mp-28508,Cd(HO)2,0.9847,-1.3273646409480002,0.0657412749999988,0
mp-760533,SmZr4O9,0.0,-3.6852928809821424,0.0986458638214333,0
mp-12990,Ti2AlC,0.0,-0.7002945577083342,0.0,0
mp-690847,AsH2C2NCl2O,0.4762,-0.4301766399877778,0.436762144166666,0
mp-640089,CeCd11,0.0,-0.1215233018055555,0.0,0
mp-634466,HgH12(ClO7)2,3.481,-1.0522627178434485,0.0179597431752851,0
mp-853144,Li3Cr3FeO8,0.0,-2.1842408019999997,0.0818820285343795,0
mp-27702,InClO,2.364499999999999,-1.8275172298366664,0.0,0
mp-560411,CdSb6(S2I)4,1.5565,-0.6104224993421062,0.0027229421052625,0
mp-1018681,DyZnIn,0.0,-0.4388984688888892,0.0,0
mp-759624,Li3Bi(PO4)2,3.9119,-2.5465584036564626,0.075791475714289,0
mp-23587,HoSeClO3,4.357200000000001,-2.5011143309339587,0.0,0
mp-769941,DyWO4,2.1716,-2.9296845169444445,0.0712901510416692,0
mp-972220,TiPt3,0.0,-0.8480650529166667,0.0117473048214282,0
mp-10711,VSi2,0.0,-0.4830581955555557,0.0,0
mp-772925,Li4Ti5O12,3.0153,-3.1937390673015877,0.026271285000007,0
mp-771109,Li5Mn2Fe3O10,0.186599999999999,-2.0315538102210007,0.0779113047500015,0
mp-17518,Sr2TaN3,2.4659,-1.3334243791066658,0.0,0
mp-2665,PrRu2,0.0,-0.0904893233333332,0.0,0
mp-773219,LiCoB2O5,1.162,-2.3453290193981484,0.0686919064880928,0
mp-769075,Li2CuH14C4(N3O4)2,0.7784000000000001,-1.0319212041417138,0.0954297467880014,0
mp-17661,RbNd(PO3)4,5.3014,-2.9356842863822745,0.0,0
mp-754839,SnBiO4,0.0,-1.7111727524999991,0.088039239166668,0
mp-571461,K4ZnAs2,0.7257,-0.4565310249999998,0.0,0
mp-680185,CsRe6Se8I3,1.1155,-0.5448454215972226,0.0,0
mp-771910,Ti2Mn3Co3O16,0.0,-1.924746591092222,0.0605855585416677,0
mp-4400,Si2N2O,5.177900000000001,-1.5628900578686664,0.3709254473333328,0
mp-641689,Ce6In5Pd12,0.0,-0.7360807413043476,0.0097449478260882,0
mp-561170,Ba3ZrRu2O9,0.0,-2.6914494714166675,0.0010461306666522,0
mp-605503,CrP3(HO5)2,3.289799999999999,-2.4017093994703567,0.0,0
mp-685415,Na3SmBr6,4.1353,-1.71250462395,0.0001217102999988,0
mp-768022,LiTi4VO8,0.0,-3.031764789761904,0.1067508085714177,0
mp-23386,Sn2SI2,1.6146,-0.6172321259791663,0.0,0
mp-705031,Li2Ni(PO4)2,0.0,-2.157494664899267,0.1291138431730774,0
mp-5515,Li7MnN4,0.6562,-0.6829811945433324,0.0,0
mp-10560,Sm3AuO6,1.7207,-3.0922612165000003,0.0,0
mp-707343,ZrH12C2(NF)6,4.7771,-1.4356060031429632,0.0,0
mp-850094,LiMn(PO3)4,0.7981,-2.4927318918522747,0.1005995604166667,0
mp-684730,EuTi2CdO6F,0.0,-3.0492471747293943,0.1096110429545422,0
mp-571341,InHg6As4Cl7,1.3825,-0.7341486930733336,0.0,0
mp-4302,Nd(NiGe)2,0.0,-0.6909491074999998,0.0,0
mp-19580,Ti2Ni(PO5)2,2.9847,-2.8604406588015867,0.0,0
mp-616694,CsCoF3,0.0,-2.552961279047333,0.0882118149523822,0
mp-1018059,GaSb,0.0587,-0.1447280674999995,0.0145233200000003,0
mp-1029408,Mg2NbN3,2.6628,-1.1434556436899992,0.0,0
mp-776370,Ag3IrO4,0.0,-0.642385863124999,0.0673455,0
mp-541013,TiI4,1.0867,-0.7302077473333337,0.0,0
mp-771537,Li7Cr3(WO8)2,1.4382,-2.216774036428572,0.0574675464682572,0
mp-978289,Mg3Np,0.0,0.4042206903125001,0.4042206903125001,0
mp-7582,GeS2,2.5744,-0.7555509393749998,0.0206862377083298,0
mp-1719,PuN,0.0,-1.4379663396275006,0.0,0
mp-6077,Ba3SmRu2O9,0.0,-2.608714137916668,0.0,0
mp-560607,Sb2O3,1.220199999999999,-1.5852412207499995,0.1813253575000004,0
mp-8686,Na3AsSe3,2.008099999999999,-0.8046698851116071,0.0,0
mp-769803,Li2CrO4,2.502,-2.0368504385714283,0.0710470233333326,0
mp-773519,Li4Mn3Fe(PO4)4,3.4465,-2.624477082330748,0.0010358253571078,0
mp-560046,Ta2Pt3S8,0.6797000000000001,-1.157302527884616,0.0,0
mp-27583,Sr2P6O17,5.326,-2.8695675829928575,0.0,0
mp-504944,NaP(HO2)2,5.1356,-2.1695314200419045,0.0326224409374997,0
mp-642648,KP(HO)2,5.1321,-1.6286739563058734,0.0,0
mp-975920,PrSmTl2,0.0,-0.382678318125,0.00397245625,0
mp-780893,Na6V2O7,0.9095999999999992,-2.095361276583333,0.0755655183333248,0
mp-862869,Pa2S3,0.0,-1.8598152354375004,0.0,0
mp-3277,BAsO4,4.2615,-2.147066934444444,0.0,0
mp-2146,KGe,0.9106,-0.2148943162499996,0.0,0
mp-864995,DyAl3,0.0,-0.4305972579166664,0.0,0
mp-1013916,Li3V2(GeO4)3,0.0,-2.232612112000001,0.0898802406250389,0
mp-14289,Ba3P4,0.4815,-0.9508675253401364,0.0,0
mp-861590,Li2VF6,1.9564,-3.076386724126667,0.0883286827777904,0
mp-21053,U(FeP3)4,0.0,-0.5510185874789917,0.0,0
mp-9600,Cu2GeO4,0.0,-1.360121565714285,0.0820866871428682,0
mp-672360,Gd(C2N3)3,2.0221,-0.1990240944637502,0.021010044435,0
mp-32640,La5S8,0.0,-2.4304075501923084,0.0950440474038423,0
mp-765525,Li2VOF5,3.2968,-2.925058301355556,0.0269154885185383,0
mp-777584,Na7NbO6,2.772199999999999,-1.988905528035714,0.093475336785711,0
mp-759356,AlH3NCl3,5.1434,-1.3859640172524998,0.0,0
mp-763579,Li4Cr5O10,0.0,-2.324063952236842,0.031055735409355,0
mp-571384,KMnAg3(CN)6,1.544,0.0854785776894121,0.2826444269258834,0
mp-684907,U12O19,0.0,-3.3398119378629025,0.1298182172580677,0
mp-762562,Li2Fe(Si2O5)2,3.1715,-2.898401378823527,0.0765975482352958,0
mp-266,Zr2Pd,0.0,-0.4874683933333337,0.0,0
mp-862338,Sc2CuRu,0.0,-0.4652029187500002,0.0,0
mp-775992,TiNi3Sb2(PO4)6,0.5878000000000001,-2.2900311259788357,0.0972333972222418,0
mp-762171,Li4Fe3Co3(SbO8)2,0.540099999999999,-1.8896575600000003,0.026080993839284,0
mp-769425,YFeGe2O7,2.5831,-2.532463977840908,0.0,0
mp-769870,Li4Fe3Sb5O16,1.1154,-1.9677534144642852,0.0439372150357204,0
mp-773285,Lu6WO12,3.439599999999999,-3.787161815,0.0,0
mp-709030,Sb2H30C9(NCl3)3,3.1511,-0.5865729710864154,0.0651939104009438,0
mp-776147,Li2TiFe3O8,0.003699999999999,-2.2337907190476187,0.0604716454910692,0
mp-642279,U6Fe16Si7,0.0,-0.3937461765517249,0.0,0
mp-581425,ZnS,2.0194,-1.1400232403645836,0.0002801141666664,0
mp-972511,Sm2AgSn,0.0,-0.5294698299999991,0.0095311920833349,0
mp-568925,Ni2Sn4Au,0.0,-0.2138816585714289,0.0,0
mp-775086,Li3SiNiO5,0.173799999999999,-2.204635046624999,0.0820195662499996,0
mp-30374,DyInAu2,0.0,-0.7135859066666663,0.0,0
mp-557579,LaS,0.0,-2.21387898578125,0.2791883512500002,0
mp-680477,Al2RhC4Cl7O4,2.020699999999999,-1.4107384901566675,0.1690156102777766,0
mp-566470,Rb6U2Mo4O21,2.1909,-2.5895211586742417,0.008434927828282,0
mp-849368,V3(O2F)2,0.9243,-2.7055176591533323,0.0240915405555703,0
mp-566533,ZnFe2(SeO3)4,2.2666,-1.4993423675986846,0.0,0
mp-767063,Sn(PO3)2,3.5944,-2.388094987354497,0.0619800704166744,0
mp-973250,KLa3,0.0,0.4395337274999997,0.4395337274999997,0
mp-973114,HoLuRu2,0.0,-0.4003595487500009,0.0,0
mp-16331,ErS2,0.0,-0.4529676677083335,1.6420722816666666,0
mp-559014,Nd4GeO8,3.5008,-3.493302262692308,0.0,0
mp-8770,Cs2CoSe2,0.0,-0.7273028264374997,0.0306810570555549,0
mp-756361,ZrSeO,1.9570999999999992,-2.5469619557812506,0.0362469150000031,0
mp-569754,Ba7Sn3Se13,1.4091999999999991,-1.418174558226902,0.0,0
mp-866162,YMgAg2,0.0,-0.3167676631250003,0.0,0
mp-540072,Fe(PO3)4,0.0,-2.3920355916106444,0.0530345839828516,0
mp-763592,LiCoSiO4,1.4676,-2.372479823571429,0.0633272099285573,0
mp-561173,Y3CuSiS7,1.7418999999999991,-1.911185147161459,0.0,0
mp-8985,Ba2YC2(O2F)3,5.263999999999999,-3.2154117459692864,0.0,0
mp-11906,LiPr2IrO6,0.0,-2.7134710822500008,0.0,0
mp-5408,Ag3AsO4,0.0,-0.9809815593749996,0.0,0
mp-9969,ScSi,0.0,-0.8340953850000004,0.0,0
mp-978854,Sr(GaH)2,0.0,-0.463108947448,0.0,0
mp-680180,K3Co(CN)6,4.134399999999999,-0.2941503423768745,0.0765211376953125,0
mp-769050,Li2NbS3,0.224199999999999,-1.4807863286979168,0.059284599270831,0
mp-866500,Ce3MnAlS7,0.0,-1.969475058619792,0.0044351822569437,0
mp-779959,Li3Co2(NiO4)2,0.0,-1.4505927780000007,0.0151544428888881,0
mp-763827,RbLiVPO5,2.3445,-2.522520384093915,0.1289758220925891,0
mp-667286,Re6Te7Se8,0.9468999999999992,-0.3250928085119046,0.0,0
mp-1028985,Te3MoWS,0.0261,-0.4064812798437505,0.0711433356249982,0
mp-776001,Li4Nb3V3(SbO8)2,0.258499999999999,-2.4861367178571423,0.0954672764843733,0
mp-772253,Li3Cr(NiO2)4,0.0,-1.5273790574999992,0.0189443312500028,0
mp-675541,K2Sn5Cl12,2.4961,-1.5054761220589468,0.0834335764473683,0
mp-582011,CeCl3,0.0,-2.6671214411950004,0.0,0
mp-707364,AgH3CN3O4,0.8278000000000001,-0.6609389470208337,0.3600260488825002,0
mp-865354,Tm2IrPd,0.0,-0.9798627350000002,0.0,0
mp-1027372,Te2MoWSeS,0.0,-0.4958389779427097,0.0952562475,0
mp-8395,CaTiF5,0.2338,-3.911156551802381,0.0146697764285654,0
mp-773205,LiMnB2O5,1.011,-2.5092041647825916,0.0899697875348346,0
mp-769797,Li3Fe4CoO8,0.0,-1.91413161,0.0226912068750051,0
mp-781179,Fe10O9F11,0.0,-2.238483565311334,0.0879153716666873,0
mp-22914,CuCl,0.561199999999999,-0.66909078663,0.0,0
mp-643706,Cs3MnH5,1.6533,-0.1673390353444443,0.0,0
mp-542883,SrYbSi4N7,0.0,-1.2853827493584618,0.02892200759615,0
mp-625148,H3ClO5,5.1544,-0.9017719725411096,0.045757367500002,0
mp-672299,YInNi,0.0,-0.5131355630555553,0.0,0
mp-974724,ReClO3,3.5777,-1.8673414149020005,0.0,0
mp-698695,CaFe2Sb2(PO4)6,2.8711,-2.5408614359591835,0.0,0
mp-30362,Zr3Ag,0.0,0.0238362499999995,0.1053127300000005,0
mp-556015,Dy9(SbO)5,0.0,-2.3837799221710534,0.0,0
mp-8890,Cs(SbS2)2,1.4413,-0.9059044116071432,0.0,0
mp-31310,Zr3(Mn2Si3)2,0.0,-0.6603251450000005,0.002065488076921,0
mp-675634,KBi2F7,4.6755,-2.808912838333,0.0530513383750017,0
mp-771868,Li4MnNb(WO6)2,0.4554,-2.4091663747979997,0.0293880048846109,0
mp-579628,Gd2Tl,0.0,-0.2965863549999987,0.0,0
mp-30461,BiPd2Pb,0.0,-0.2851762312500004,0.0015816906249996,0
mp-744747,V2P2H4O11,1.705699999999999,-2.200500333258971,0.0231609355263167,0
mp-722502,Li3P11(H3N)17,1.966799999999999,-0.5116962748064346,0.0,0
mp-7924,Li2Sn5,0.0,-0.1812833328571425,0.0056467495238097,0
mp-531132,Ca3(PO4)2,4.9795,-3.3358561497069603,0.0,0
mp-14515,NaNd(GaS2)4,2.1048,-1.4039358317857145,0.0,0
mp-583429,CuH8C6(N3O)2,0.000499999999999,-0.2315055213365217,0.3209130428365192,0
mp-699330,LiCr3O8,1.8563,-1.9200930325,0.003238216284723,0
mp-867913,LiHo2Ir,0.0,-0.5960443199999998,0.0,0
mp-554412,RbTa(PO4)2,3.3525,-2.9656740713492056,0.0,0
mp-1029189,Te6MoW3S2,0.0,-0.3587964831770828,0.0776084529166656,0
mp-532727,K2YZr(PO4)3,4.564,-3.1941172369360906,0.0,0
mp-868300,La16Ni8O33,0.0,-2.8473197747587715,0.1425208042105339,0
mp-705085,LiCrP4O13,0.0,-2.4125565491384706,0.104247416688592,0
mp-555840,K2PO4,3.2014,-2.342619220799319,0.0979082820535746,0
mp-763489,LiVPO4,2.6635,-2.5676714947278905,0.0831922007359269,0
mp-769118,HoSO,1.190999999999999,-3.0987525976041663,0.0162629218827143,0
mp-570619,NdSbPd,0.0,-0.866087625000001,0.1985466458333328,0
mp-634767,RbMnH2OF4,1.6821,-2.4313919485233333,0.0087993311111063,0
mp-974682,RbGaH2,1.3521,-0.2892651393099998,0.0,0
mp-18506,SmZrF7,6.050800000000001,-4.2513970773144445,0.0,0
mp-581857,KBiF4,3.2279,-2.8728218045433342,0.0319262022916673,0
mp-22687,BaIn4,0.0,-0.3653128380000002,0.0,0
mp-20426,Fe2As,0.0,-0.0719761716666672,0.0617396283333331,0
mp-761676,Li2Co3SbO8,0.5744,-1.7744269146428573,0.0096346301785725,0
mp-862898,PmCdPd2,0.0,-0.6651497706250007,0.0,0
mp-1029741,Sr3IrN3,0.0,-0.6719826710199998,0.0,0
mp-761732,LiCoPO4,2.7269,-2.3632636629421766,0.0710881426785707,0
mp-541914,MnHgC4(SN)4,1.6619000000000002,-0.1676052468407149,0.1532643567052023,0
mp-652776,Rb2V(PO4)2,2.8653999999999993,-2.667903162399268,0.0196057792307611,0
mp-675195,Li13(Mn3As4)2,0.0,-0.4201819277777774,0.110405314907406,0
mp-567679,TiGaRh,0.0,-0.1653087122222215,0.5516640333333339,0
mp-569251,Lu7Sb3,0.0,-0.6456708034999998,0.007365935000001,0
mp-753371,LiCuS,1.8048,-0.915745991354166,0.0456230618750002,0
mp-24510,BaH2I2O7,3.6479,-1.5034825546658332,0.0144940468749989,0
mp-23572,KBiP2S7,2.4445,-0.9066039595116344,0.0,0
mp-632810,Pr3Ga10Ni,0.0,-0.5552558671428572,0.0,0
mp-605461,K3UH6C5SNO13,1.680499999999999,-1.7686326512304171,0.0794009729533717,0
mp-5347,KAlF4,6.786300000000001,-3.65496368246,0.0175153837499966,0
mp-744181,K2Cr2AsHO10,2.689899999999999,-1.8225649912158333,0.0,0
mp-779826,Li3MnV(PO4)3,0.0,-2.5982771993872853,0.0868909621874651,0
mp-561182,Ba4Tl2Cu2HgO10,0.0,-1.8651020401315777,0.0152262779605312,0
mp-20229,Sm3InC,0.0,1.567913749,1.8521350901666664,0
mp-780009,Li3Cr2Fe5O12,0.0,-1.9596947656818189,0.1479066097727388,0
mp-2778,HoAg,0.0,-0.3348795224999996,0.0,0
mp-1029069,MoW(SeS)2,0.589399999999999,-0.93590009171875,0.0309779641666674,0
mp-20843,Sr2InPd2,0.0,-0.6716195249999999,0.0,0
mp-775113,NaMnO2,1.2883,-1.9744734096150005,0.059036730000006,0
mp-866141,TiFe2Si,0.402499999999999,-0.6870417716666672,0.0,0
mp-1028586,Te2W,0.6218,-0.0793627416666673,0.0263080925000025,0
mp-779086,LiCr(PO3)4,2.8150999999999993,-2.5973804579100537,0.0592459504629561,0
mp-505679,HfV2O7,2.6491,-2.9008528083749985,0.0,0
mp-3053,DyAlNi,0.0,-0.6071868222222226,0.0,0
mp-32046,K2Mo2O7,3.4022,-2.219133492159091,0.0,0
mp-631375,ReSn2Se,0.0,0.7191722491015629,0.93561614625,0
mp-768740,Li2Bi5B3O13,2.138,-2.14543997201087,0.0375554239492714,0
mp-12923,SrPIr,0.0,-0.9779364151984128,0.0,0
mp-779589,Na3Sb5O14,1.1817,-1.9334744985227277,0.0647303731818169,0
mp-753747,Ta3O7F,2.2236,-3.3967568177218186,0.0,0
mp-625147,GdHO2,3.0714,-2.982965821530001,0.0,0
mp-1019781,K2Na3P3O10,4.3865,-2.6622526142658733,0.0,0
mp-983566,Ca2AgGe,0.0,-0.4740702262499998,0.0268354896875004,0
mp-36,Sc,0.0,0.0490334299999997,0.0490334299999997,0
mp-27653,LiAlH4,4.729,-0.24095164533,0.0090571020833332,0
mp-754846,Ce2Nd2O7,2.0728,-3.8304303303409104,0.0483897093181777,0
mp-753472,NbAlO4,2.8606000000000003,-3.2037145870833332,0.0385989895833382,0
mp-625151,H7ClO3,5.2273,-1.3223565552136358,0.0,0
mp-560425,Sr2Cu(BO3)2,0.0224,-2.774682024734849,0.0360590967045473,0
mp-643793,Cu3H2(OF2)2,0.3217,-1.5602567685909094,0.0,0
mp-17947,BaCu2GeS4,0.966499999999999,-1.1425231472395847,0.0,0
mp-775322,Li5Fe8(BO3)8,1.4954,-2.368498672074073,0.0495999613750033,0
mp-6543,VAg(PSe3)2,0.0,-0.2609516227752984,0.0104103450499994,0
mp-697671,Ba6Mg7H26,2.972,-0.4723274370287177,0.0,0
mp-762785,LiVF5,2.0398,-3.0253723515642865,0.0878744900000052,0
mp-768267,HoInO3,1.9681,-3.027929414416667,0.0102146915833314,0
mp-158,As,0.0,0.0236659900000004,0.0236659900000004,0
mp-866304,Ba2GdB2ClO6,3.1318,-3.3109345449244465,0.0,0
mp-683942,BaU(SeO4)2,0.418199999999999,-2.0985207999739584,0.398061927291665,0
mp-28176,Te2PdCl10,1.5543,-1.0261316013538464,0.0070059427564106,0
mp-979967,Yb2GaHg,0.0,-0.5740204899999999,0.0070968099999997,0
mp-569124,MnH12C2(NCl2)2,1.5219,-0.7574797869638085,0.0375984034523808,0