mpid,formula,BG,FE,e_hull,fidelity
mp-611712,RbNa2NiO2,0.0,-0.9429470737500006,0.2776670199999991,0
mp-555408,SbS7IF6,1.9994,-1.5739577168718342,0.0,0
mp-1069,HfSi2,0.0,-0.5674429216666669,0.0,0
mp-764899,Li2FeOF3,2.3292,-2.7347180985457142,0.0759909287301638,0
mp-766955,K6Na2MnH24(WO6)6,2.1123,-1.8266129311045325,0.0079705743777784,0
mp-9338,Ba2MgSi2O7,4.4529,-3.3805697161458337,0.0,0
mp-12455,TmCuS2,1.656599999999999,-1.7064669970312505,0.0,0
mp-556942,Ca2SiO4,4.4522,-3.471898806964286,0.0154336080357149,0
mp-999266,ReN,0.0,0.2307170188100009,0.3721501858333358,0
mp-554977,B2H10C2NClO3,4.0016,-1.0037184133643855,0.1583744125219279,0
mp-767805,Zr11VO24,1.7651,-3.669126026111112,0.0516816548611167,0
mp-8271,Ba2Ca(BO2)6,4.959300000000001,-3.1271978078571427,0.0,0
mp-694875,Ba2Ca2Zn5Fe3O14,0.226099999999999,-2.063276203942308,0.1787609202243603,0
mp-554351,SrHg2(ClO)2,1.6485,-1.6459545795028572,0.0,0
mp-766360,La6Cu6O17,0.0,-2.4592279476293104,0.040797517586208,0
mp-558647,Cu9Se4(Cl3O7)2,0.0,-1.0268209754980304,0.0024079278787807,0
mp-20489,SrPbO3,0.7933000000000001,-2.1716345972500006,0.0,0
mp-769239,CeReO4,0.0,-2.8201263,0.1100629636111083,0
mp-14193,K2ThF6,6.3857,-3.922358966348889,0.003330117222223,0
mp-764637,Li3Fe8O3F13,2.253999999999999,-2.5373948438599996,0.0614597016666671,0
mp-644758,Fe2Mo4N,0.0,-0.1256460910542866,0.0512160123214275,0
mp-1003315,LiMn4O8,0.137999999999999,-1.9318502937569235,0.0251147664423037,0
mp-765039,LiMn7(O3F)3,0.0924,-2.200618563326999,0.0865862444687639,0
mp-752407,Dy2Ge2O7,3.8173999999999992,-3.065094057462122,0.0150761820454539,0
mp-6798,Ba2NaReO6,1.8688,-2.7067852947500004,0.0,0
mp-14206,K3Ag3As2,1.254099999999999,-0.3664286974999995,0.0,0
mp-866016,AcBiAu2,0.0,-0.6615938656249991,0.0,0
mp-771587,Li7Mn3(WO8)2,0.0704,-2.1074022822457144,0.0770190556026717,0
mp-554918,BaY6Si3B6(O12F)2,5.2315,-3.529660829223336,0.0071995666666619,0
mp-7922,CaPdF6,2.1062,-2.6303971933925,0.0,0
mp-9884,KFeSe2,0.0,-0.6518086742968752,0.002113901666668,0
mp-18195,Lu2SiO5,4.567500000000001,-3.855523770781248,0.0236181162500077,0
mp-542867,YMn2O5,1.0726,-2.6489348450837493,0.0,0
mp-30355,SrAg,0.0,-0.3226529437499996,0.0,0
mp-1030573,Te4Mo3WSe4,0.143499999999999,-0.4124983095312504,0.0301716816666672,0
mp-4864,CaMgSn,0.0,-0.5491584874999997,0.0,0
mp-707342,ZnH18Ru2Br7N6,0.559199999999999,-0.6189596391011759,0.0340295280812732,0
mp-866612,CsAsH6(CSe)2,2.2014,-0.3664030007422916,0.0832233427083304,0
mp-27677,KCu4S3,0.0,-0.6584208177734379,0.0,0
mp-765237,VF4,2.2356,-3.015110251952,0.0054931719999977,0
mp-979430,YLuTl2,0.0,-0.3085427731250001,0.0,0
mp-28855,Cd4OF6,1.899,-2.319126964853636,0.0,0
mp-773061,Ba6Ti7Nb9O42,0.0,-3.33825625436198,0.0014195235658469,0
mp-569918,K13Na2W7N19,1.5499,-0.6538068917126838,0.0060234186314325,0
mp-2269,UTe,0.0,-0.4123829099999998,0.0981920758333343,0
mp-568017,Ga8Cu3W2,0.0,-0.1007148828846158,0.0,0
mp-17651,HoPtF7,2.2952,-2.9395716781477783,0.0,0
mp-763112,Li4Co3Cu3(WO8)2,0.0,-1.6776545817857151,0.0771938892857093,0
mp-29077,LiBiO3,0.1445,-1.6487799107499996,0.0,0
mp-1018849,OsN,0.0,0.4580203313100005,0.4580203313099993,0
mp-568584,N2,6.9553,8.881784197001252e-16,8.881784197001252e-16,0
mp-560657,RbLa9(IrO6)4,0.0,-2.861181836052632,0.0,0
mp-763391,Li2Co(SiO3)2,2.9727,-2.729000917954546,0.0119006895454436,0
mp-779855,Na6V2P(CO4)4,0.0,-2.2060341401067327,0.0274397384698268,0
mp-4529,K2SO4,5.2088,-2.388638042366072,0.0,0
mp-13740,AgAsS2,1.4968,-0.4444455957812501,0.0009005885416657,0
mp-335,BaGa4,0.0,-0.4349340680000001,0.0,0
mp-504997,NdCu(WO4)2,1.5763,-2.363472126458332,0.0334520331250018,0
mp-7210,Cd2B2O5,2.4657,-2.257800847731481,0.0,0
mp-555562,LiIO3,3.5575,-1.2501997017499988,0.149057478999997,0
mp-1727,SrSi2,0.0,-0.3651220216666668,0.0,0
mp-743514,Na3VH11IO13,0.177,-1.0947385777955174,0.4519868856896565,0
mp-3211,Nd2SO2,2.8645,-3.4979967383124992,0.0,0
mp-631310,CoReGe2,0.0,0.5211862162500003,0.634658589999999,0
mp-769754,Li2AlNiO4,1.3815,-2.14805885,0.0858667731249998,0
mp-763732,Li3Fe4P3H12O19,0.073799999999999,-1.9102359506457496,0.0897137568902506,0
mp-776679,LiVF4,1.4987,-3.1706374799600003,0.0580854266666763,0
mp-2852,C3N4,2.8993,0.492372517568572,0.4923725175685707,0
mp-29755,CaSi2O5,4.7791999999999994,-3.301472902656249,0.0933305649999987,0
mp-568606,CsErTa6Cl18,1.3425,-1.8996620545646152,0.0,0
mp-976404,NaF3,0.0,-1.4567442508925,0.022204409405,0
mp-10061,ErBPd3,0.0,-0.6346245323333328,0.112632159454546,0
mp-781688,Fe3O5F,0.0,-1.699286158048889,0.1088113393055554,0
mp-756131,Sr2CaI6,3.6483,-1.6635990427777785,0.0253887188888892,0
mp-625860,Sr(H8O5)2,3.4038,-1.4672321227933325,0.0333794246296292,0
mp-767029,CaMn7O8,0.513899999999999,-2.131828484795,0.0325293806249984,0
mp-720112,Sr5Al10(Si7O24)2,4.2338000000000005,-3.4017784109090914,0.0,0
mp-16495,AlCrFe2,0.0,-0.1628259849999995,0.016744215000001,0
mp-9068,K2NaAlP2,1.4918,-0.5527818968650795,0.0,0
mp-1170,SnS2,1.558599999999999,-0.8217009943749994,0.0,0
mp-753614,Fe(PS3)2,0.0,-0.6061336667294973,0.1228026923611125,0
mp-696904,CaBi2(CO)2,0.0,-0.2907130539285723,1.1464800216071422,0
mp-2666,CrSb2,0.0,0.1385796016666667,0.1385796016666676,0
mp-542863,Ca7NbSi4O17F,3.5274,-3.4920271532480003,0.0,0
mp-504468,Bi3Ru3O11,0.0,-1.557600741691176,0.0,0
mp-861533,Na2Li2CoO4,0.6292,-1.7053306436111113,0.0463628452407451,0
mp-17085,Rb2Zr3OF12,5.3336,-3.8813772003072224,0.0,0
mp-631895,FePbW2,0.0,0.8635256424999991,0.8732141928571426,0
mp-675526,FeCoAs,0.0,-0.1309267761111117,0.0662991480555543,0
mp-771338,La2P4O13,4.6152,-3.1789854817700505,0.005870943815788,0
mp-757889,LiSn(PO3)3,3.8805,-2.459663890931123,0.0952362909226183,0
mp-4077,Cd(CN)2,6.0857,0.2068260470479998,0.2817452265,0
mp-25737,BaInCo4O7,0.0,-1.7133690356730769,0.0327709057692393,0
mp-674644,Bi2O3,0.623599999999999,-1.01475543525,0.6388804269999993,0
mp-1072,Nb5Ga13,0.0,-0.3097928711111106,0.0,0
mp-2151,Mg17Al12,0.0,-0.014189580689655,0.0282258835013262,0
mp-762389,Ti3V2Fe(PO4)6,0.7374,-2.86061312968254,0.013268584375,0
mp-3443,Cd(GaO2)2,1.5793,-2.049742330714285,0.0,0
mp-571098,Lu(FeSi)2,0.0,-0.6717179520000002,0.0,0
mp-757747,LiSn4(PO4)3,2.804499999999999,-2.291668073214285,0.0818520943333336,0
mp-762843,LiFeP2O7,1.9497,-2.492430321358225,0.0951351945454543,0
mp-866117,HfZnAu2,0.0,-0.4359670624999996,0.0,0
mp-971799,DyYHg2,0.0,-0.4967672197916664,0.0050315950000001,0
mp-674366,Tl3SiF7,3.685199999999999,-2.7598280280300003,0.0207876027272728,0
mp-772109,LiSiBiO4,2.9523,-2.5095915053571427,0.050054173750003,0
mp-631384,Sr2VW,0.0,1.5353124449999995,1.5353124449999995,0
mp-560424,AsC4S2Cl2O2F13,3.0753,-1.6905867246922917,0.2255372430729148,0
mp-2381,ErRh,0.0,-0.9502905275000008,0.0,0
mp-1210,ThCd2,0.0,-0.1808167366666667,0.0,0
mp-766021,KH(IO3)2,3.508,-1.181333663612,0.0033839928750012,0
mp-866205,TmSbPd2,0.0,-0.8682552912499997,0.0,0
mp-684120,LiCuP2O7,0.7101000000000001,-2.226042409312771,0.0422100378030281,0
mp-766409,Li3BiS3,2.1124,-1.2041226013839292,0.0669920189285715,0
mp-571314,K2CoCl4,0.7942,-1.725351956862857,0.0012744198809526,0
mp-770931,CuTeO4,0.3853,-1.1598648425000004,0.0817097337499968,0
mp-761992,Li2Fe2(CO3)3,3.1623,-1.9018532152343752,0.0565603412499911,0
mp-7331,Cs2MgFe(CN)6,4.1775,-0.4704751087049983,0.0,0
mp-767131,LiMn2O3F,1.1058,-2.3239988959799995,0.0334117190178515,0
mp-720810,K5H3S4N2O15,3.9074,-1.8390363678949424,0.1651084670637868,0
mp-13589,CuB(CN)4,3.2193,0.0591540143813347,0.3535774897860007,0
mp-989511,Cs2AsBrCl6,0.0675,-1.4311784644560002,0.0069012220000015,0
mp-583417,Ba6V4S11O5,1.9141,-2.0900512585937507,0.1037320821634608,0
mp-981313,KTbO3,0.0,-2.2908965354166666,0.2630796476250001,0
mp-998745,TlZnF3,3.9139,-2.384334867714,0.0,0
mp-2294,Al3Ir,0.0,-0.6563091887499999,0.0,0
mp-695831,CaH4(N3O)2,4.184699999999999,-0.8870776762507688,0.0826646921005131,0
mp-12156,K3Sb5O14,1.1985,-1.991758063863636,0.0176263071590909,0
mp-27729,ICl3,1.7688,-0.6448316186949999,0.0,0
mp-556164,Si(AgO)4,0.668099999999999,-1.2974784005555549,0.0170841033333344,0
mp-530953,Ho2TiO5,2.2426,-3.790799917239583,0.1211137712500001,0
mp-754596,RbGaO2,2.4653,-2.0645131681249995,0.0,0
mp-780752,Fe2O3F,0.0,-1.8404828206566664,0.085761288812499,0
mp-2375,NpPd3,0.0,-0.1808364546874994,0.0,0
mp-771301,Li24Ti5Cr7O36,1.190599999999999,-2.5513468127546286,0.0155535491666842,0
mp-11012,Sr(BS2)2,2.9754,-1.3219343970833333,0.0088644660714303,0
mp-644497,BaTiO3,0.3567,-2.7707679580833338,0.7361409879999901,0
mp-4899,GaAgTe2,0.192699999999999,-0.2868507099999999,0.0,0
mp-558432,Na3P(SO)2,3.279199999999999,-1.9048029542150289,0.0,0
mp-865587,Y2CuRh,0.0,-0.5522324012500004,0.0062425368749998,0
mp-773602,MnCo3O8,0.888,-1.2792154067466657,0.0267489079166729,0
mp-8248,Rb2TeO3,3.5879,-1.8479091089583333,0.0,0
mp-781593,Li4Co5Te3O16,0.0,-1.6139768300000006,0.0909427788095316,0
mp-604884,BN,4.4189,-1.4671742370233325,0.0049431399999999,0
mp-698183,Mg3P2(H22O15)2,4.8454,-1.6550188377591182,0.0140526047468378,0
mp-675242,Ag2HgI4,0.0,-0.1289885690476187,0.1729671080952384,0
mp-763742,Li2FePO4F,3.7155,-2.6614861533928043,0.029935962638893,0
mp-567172,Cs2NaYbCl6,0.0,-2.2023392774560007,0.0466644065000001,0
mp-754645,MgCl2O,2.5919,-1.7380110744425,0.0878142379999999,0
mp-8531,Lu5Ni19B6,0.0,-0.5092370166666664,0.0,0
mp-780924,LiCo2OF3,1.7089,-2.223496332117143,0.0895081471428564,0
mp-853192,Na6Cr2B4SO16,0.0,-2.414191586404453,0.0497813379597795,0
mp-4591,SrNb2O6,2.9952,-3.2542828694444443,0.0,0
mp-720082,KCd6H4C12ClO26,2.815699999999999,-1.3766841924048003,0.2703571054833338,0
mp-770070,Li3TiCr3O8,2.3315,-2.590232955777778,0.0385467019999961,0
mp-763492,Li3CoSiO5,1.1762,-2.4181397663750004,0.0356006672500068,0
mp-504598,Rb2PbO2,1.8864,-1.5140819020000005,0.0,0
mp-1005754,SmHSO5,5.5679,-2.6424094786165617,0.0,0
mp-28242,Tl6SCl4,1.8016,-1.0973007933729548,0.0111704099999996,0
mp-644443,CaP(HO3)2,0.1312,-1.9160741652835245,0.2774919266874996,0
mp-764154,LiCo2OF3,2.0181,-2.234631486402857,0.078372992857143,0
mp-686689,Y2BeAlBO7,4.340400000000001,-3.2488718789930564,0.3138564049027739,0
mp-1919,ZrCr2,0.0,-0.0253485375000011,0.0190302558333321,0
mp-697878,KCo2H3(SeO5)2,0.7221000000000001,-1.02626119697486,0.4034731892438304,0
mp-762900,Fe5(OF2)4,0.3751,-2.280508060854117,0.1071493651103017,0
mp-13085,Mn2CoSb,0.0,0.0514448037500008,0.135396413125,0
mp-28601,NbBr5,1.5583,-0.8764778785416668,0.0,0
mp-976061,PrGe3,0.0,-0.3709884462500001,0.1255144006249997,0
mp-560670,MgSeO4,3.1255,-1.8876152747656243,0.0,0
mp-573281,KNa3Al4(GeO4)4,3.3229,-2.334703413392857,0.3328376126934529,0
mp-972051,YbGa2Pd,0.0,-0.7523053037499996,0.0,0
mp-767773,Li4V3Fe3(TeO8)2,1.3483,-2.0952151053571435,0.0455619542790994,0
mp-705743,Ta2MnO6,2.1806,-3.1094198526066656,0.0103384341666643,0
mp-707454,Li(H3N)4,0.0,-0.535148262159411,0.0188071168382348,0
mp-644751,BN,5.7747,-1.2008327520233326,0.2712846249999998,0
mp-602,Te2Mo,0.9657,-0.2705495516666663,0.0,0
mp-559670,KBaYSi2O7,4.6816,-3.3994824634375003,0.0,0
mp-555818,Cu2SiPbS4,1.3388,-0.8004926507812501,0.0093947464583346,0
mp-20643,Y2Ru2O7,0.0,-2.5907587980681823,0.0238103968181775,0
mp-1030104,Te6MoW3Se2,0.3418,-0.2240457939322908,0.0363153295833331,0
mp-762806,Li2V2FeO6,0.1943,-2.1594409512878787,0.2164024323484748,0
mp-763956,Li3Mn(PO4)2,0.259199999999999,-2.6057848390821765,0.0290925533928607,0
mp-763238,Li2Cr2P4H3O16,0.0,-2.364288492157072,0.0549117119675912,0
mp-559704,PH9C3S2NClO4,4.0576,-0.7516794134257258,0.339699783596938,0
mp-27579,Na4P2O7,4.416,-2.627492835187729,0.0,0
mp-765191,LiAgF4,0.0,-1.93879804371,0.0637998687499981,0
mp-27800,K4Ge23,0.0,-0.0836755938888884,0.0,0
mp-972882,Sc2CdAg,0.0,-0.2756637012500001,0.0079716649999994,0
mp-540439,Mn(PO3)3,1.0507,-2.4834017508842856,0.0576455615384494,0
mp-763867,MnNi3O4,0.9829999999999992,-1.1508662382449997,0.0484793807142853,0
mp-780017,Li3Cr2(FeO4)2,0.644,-2.1335750200000008,0.0492509888518615,0
mp-5616,Sr2P2O7,5.1125,-3.255338016358226,0.0,0
mp-699455,Al3P3H9C3NO14,4.958100000000001,-2.0075714578559305,0.0646773430465348,0
mp-865269,TmCuPbSe3,1.1212,-0.996216173463542,0.0001260000000007,0
mp-558396,Rb2Te(H6O5)2,3.0155,-1.5102092412375998,0.0,0
mp-770979,Li2AlVO4,1.6555,-2.767202379375,0.0252610284375025,0
mp-755558,BaLa2O4,3.5481,-3.593544255,0.0,0
mp-772582,Sr3W2O9,2.8234999999999992,-2.7361861286607145,0.1088564419047628,0
mp-765713,Li8Co(O2F)2,2.208399999999999,-2.1953255741586672,0.0893538663333286,0
mp-645159,FeBiO3,1.5185,-1.74157911975,0.02832137525,0
mp-13583,Sc2Si2Ru,0.0,-0.8867681730000015,3.416599999894743e-05,0
mp-18350,V3P,0.0,-0.6633096038988082,0.0,0
mp-12985,PrCo2B2C,0.0,-0.3360391851388892,0.0597293249999957,0
mp-769393,DySeO3,1.7860999999999991,-2.5422879860520835,0.0,0
mp-565440,La2Te3MoO12,3.581,-2.4129864369444456,0.0,0
mp-1018022,NbInS2,0.0,-1.2106727195312503,0.0,0
mp-6332,Li2TiSiO5,3.215299999999999,-3.1172909736574077,0.0,0
mp-570679,TaI5,1.1727,-0.4582022339583329,0.0,0
mp-561433,KPuCO5,0.434299999999999,-2.679284072578124,0.0,0
mp-28990,Bi2Te4O11,2.7870999999999992,-1.5905217863970589,0.0,0
mp-556245,Mn3(AgO2)4,0.6100000000000001,-1.2343698856920005,0.0168991433333296,0
mp-571605,CdI2,2.3857,-0.5912072033333333,0.0009297952222222,0
mp-696078,K3ZrH2S(OF)5,5.1147,-2.8119897244707355,0.0,0
mp-1030450,Te4Mo3W(SeS)2,0.0,-0.5588860904427086,0.0598277133333349,0
mp-557171,Na2Cu(PO3)4,0.8701999999999991,-2.4750229767042606,0.0,0
mp-634446,CsAl(H2N)4,2.9105,-0.6913760563199993,0.0,0
mp-639511,SiO2,5.6509,-3.2729908613541667,0.0117220461458327,0
mp-568144,Dy5In3,0.0,-0.3989344366666665,0.0,0
mp-16480,Al3Au8,0.0,-0.2796527731818185,0.0,0
mp-865147,Be2CuRu,0.0,-0.2434765112499999,0.0,0
mp-1027547,TeMo2Se2S,0.0,-0.6882351202083328,0.0409142991666655,0
mp-5811,CsPbF3,2.9248000000000003,-2.8046464897139995,0.0045707610000018,0
mp-558883,Y3Si2ClO8,4.5652,-3.6525192532685713,0.0,0
mp-866134,VFe3,0.0,-0.1261543000000013,0.0,0
mp-770735,ZnCrO4,2.2854,-1.6763248512500006,0.0358450320833325,0
mp-560889,Ba6Na2Si4O15,4.1718,-3.2319893281018515,0.0,0
mp-780152,LiFeOF2,1.7902,-2.566263598476,0.0963769604722308,0
mp-20824,Sr2CaTlCu2O7,0.0,-2.0547225933653857,0.0175826001923065,0
mp-30738,LiIr3,0.0,-0.1679981274999988,0.0,0
mp-767710,Li2VP2O7,2.455,-2.6103259668700383,0.0972869194270833,0
mp-1029640,Ba3OsN3,0.0,-0.6489152181628565,0.0,0
mp-984,BN,4.4806,-1.4715494470233337,0.0005679299999989,0
mp-626503,V2HO4,0.0,-2.217311203374285,0.0560701542857149,0
mp-628951,V2P2O9,1.6511,-2.5894530998031144,0.0161954984615206,0
mp-776719,Mn2O3F,0.0,-2.0521087669766684,0.0526508106250043,0
mp-16737,Na2BeB2O5,4.7145,-2.7423656479583336,0.0,0
mp-640890,Rb4Fe2O5,1.857899999999999,-1.7440514919318175,0.0,0
mp-542331,Zn2P2O7,3.6266,-2.4252406812067093,0.0227070379924319,0
mp-862631,Ba2SbAu,0.5970999999999991,-0.9340821462500002,0.0,0
mp-1773,ReB2,0.0,-0.4297263911111114,0.0,0
mp-3977,CsB3O5,5.304,-2.829348262083332,0.0,0
mp-766976,Li4Mn3OF11,1.4098,-2.841736812748421,0.0741903474342029,0
mp-555497,SiO2,4.3008,-3.0345252958333337,0.2501876116666661,0
mp-23192,HgI2,1.328299999999999,-0.3154334866666666,0.000289859375,0
mp-566811,LiCr3O8,0.657799999999999,-1.92114488875,0.0021863600347247,0
mp-24337,MgH2Cl2O,5.370699999999999,-1.843470102085,0.0,0
mp-636287,Eu3(GaNi)4,0.0,-0.4694594277272728,0.0,0
mp-683980,Ho(IO3)3,3.31,-1.5021030504807693,0.0,0
mp-17928,Ba(ErTe2)2,0.784899999999999,-1.5271809803571428,0.0,0
mp-542975,VBiPbO5,2.5209,-2.01834573890625,0.0182049893749995,0
mp-776184,V3NiO8,0.674399999999999,-2.1064400033333333,0.0495944085416599,0
mp-5729,YAgSn,0.0,-0.6143638991666668,0.0,0
mp-18305,Rb3AsSe4,1.3144,-0.8264950680468748,0.0,0
mp-603983,AgMo4H22C8(NO5)3,2.1441,-0.9479874211420752,0.2128412863537718,0
mp-19654,SnWO4,0.915,-2.0238151983333323,0.054706500833328,0
mp-1013716,Ba3BiAs,0.0,-0.3056837720000001,0.6791523531794876,0
mp-7791,Li2GeF6,5.7409,-3.036316266904445,0.0,0
mp-20196,NbTe4,0.0,-0.3149396000000003,0.0134802653333325,0
mp-862932,ThInAg2,0.0,-0.2267961724999998,0.0,0
mp-755789,Na2Be2O3,3.0523,-2.36306655125,0.0958684671428624,0
mp-30341,TiAgHg2,0.0,0.1052470058333332,0.13854153625,0
mp-27657,Ca2B6O11,5.639,-3.0801530145394738,0.0,0
mp-997011,CuBrO2,0.4388,-0.2599879156249996,0.3103123142708348,0
mp-7929,Rb2PtS2,1.2521,-1.173545537625,0.0,0
mp-1027147,MoW(SeS)2,0.658,-0.9353365883854168,0.0315414675000012,0
mp-568333,K2SnBr6,1.1709,-1.184121666111111,0.0141782649999999,0
mp-763631,LiVP3HO10,2.1948,-2.498744335962857,0.0924003056640527,0
mp-673118,Sn3(P2O7)2,2.2445,-2.3971938468990936,0.0653914604761807,0
mp-33218,CuI4,0.0,0.1302783399999999,0.1927563489999997,0
mp-775685,V3Fe2Ni(PO4)6,0.0,-2.488679507182539,0.0264834636188293,0
mp-32096,TlMo6O17,0.0,-2.003360783177083,0.009289092678566,0
mp-774141,Li4Cr2P4H3O16,0.9188,-2.4568551626979644,0.0336023094827586,0
mp-19858,Sr,0.0,0.2248906483333333,0.2248906483333335,0
mp-8763,Tm2S2O,2.694699999999999,-3.0506773243749987,0.0228552611249996,0
mp-29301,Ba4Ga2S7,2.6305,-1.9590756887259613,0.0034038696153828,0
mp-1020630,Rb2Na(NO3)3,2.9985999999999993,-1.4878028695593335,0.0,0
mp-998298,CsSnF3,3.1037999999999992,-2.7807049107139994,0.0112754739999996,0
mp-781606,Fe4O5F3,0.0,-2.018714628318334,0.0847493993229164,0
mp-1020181,Na2ZnB6O11,4.7511,-2.7021387444375,0.0020324472499986,0
mp-7885,AlAgS2,1.7077,-1.0224627420312506,0.0701730887499998,0
mp-568264,SiSe2,2.1493,-0.4525556757291659,0.0,0
mp-777899,LiFeF3,3.2798,-2.8482227382140004,0.0668296554999958,0
mp-541601,KPr(PO3)4,5.3491,-2.9306090054100533,0.0,0
mp-1018736,KCdAs,0.1727,-0.4268061066666666,0.0,0
mp-607818,GeTeRh,0.254999999999999,-0.4939366633333339,0.0,0
mp-21794,Sm2Si2O7,4.7966,-3.639944783068183,0.0147684659090927,0
mp-30618,DySnPd,0.0,-0.9199792113888884,0.0,0
mp-766058,Na(Fe2O3)4,0.2905,-1.7422925811904773,0.1382962461904817,0
mp-704632,Ba2Sm2Fe4O11,0.8254,-2.651395720723684,0.0204744817763318,0
mp-567981,CrGaCo2,0.0,-0.1015434124999998,0.0384566045833345,0
mp-690561,Mn(SbO3)2,0.0,-1.9398951087177765,0.0574186318518661,0
mp-614803,Cs2TeO3,3.5313,-1.8546086997916669,0.0,0
mp-765460,LiCoPO4,2.7054,-2.3550202888350347,0.0793315167857162,0
mp-24120,CaAsH5O6,4.0367,-1.8534838281230768,0.0180832127563554,0
mp-850407,LiMnP(H6O5)2,4.1674,-1.7061070415998083,0.0373373773999974,0
mp-21024,SrIn2Pd,0.0,-0.6088490625,0.0,0
mp-569655,BN,3.746,-1.1476883145233323,0.3244290625000321,0
mp-557272,AlS2(NCl2)2,1.046199999999999,-1.0016506223249988,0.0816686058466666,0
mp-1009086,BeSnP2,0.9218,-0.2213419565476186,0.0221037068750007,0
mp-766712,Li2CrCo3O8,0.0,-1.7088382860714282,0.05372177702381,0
mp-8640,Hf,0.0,0.0712162450000004,0.0712162450000004,0
mp-849431,Fe10O9F11,1.325899999999999,-2.260406699644668,0.0659922373333339,0
mp-17753,Nd3RuO7,0.0,-3.0914010964772736,0.0,0
mp-766521,Li10Cu4S9,0.0,-1.1104205989809786,0.0917745018840587,0
mp-1018179,AlAu2,0.0,-0.3078777933333333,0.0110080766666595,0
mp-570287,Ta5Si3,0.0,-0.5701002612499995,0.0446445606249987,0
mp-18562,Na2Si2Se5,2.4355,-0.7365781575520829,0.0,0
mp-10224,NaVS2,0.0,-1.3504524782812508,0.01901975401785,0
mp-558412,H2CO2,4.8418,-1.2400458074479992,0.1295642869999955,0
mp-29806,Cs2PdI6,0.581499999999999,-0.7944706433333333,0.0109953563888893,0
mp-1008807,RbCuO,0.0,-0.2022859737500001,0.9963722883333296,0
mp-1936,TaAs,0.0,-0.5449448724999986,0.0,0
mp-21424,TbNiGe,0.0,-0.7886877169444446,0.0,0
mp-754092,ScTiO3,0.0,-3.553832620583333,0.0976229248749689,0
mp-1019534,BaAl4O7,3.6891,-3.4622578755208337,0.0005506072666641,0
mp-3497,FeCuS2,0.0,-0.5988060857812503,0.1124977774999997,0
mp-770047,Li5Mn2P2(CO7)2,0.0,-2.3890880208244187,0.0399435203333373,0
mp-11360,ScGaCu2,0.0,-0.3754398774999999,0.0,0
mp-631696,Ca2CoW,0.0,1.0127571875,1.0394890812500002,0
mp-35269,Ca4Sb2S,1.081899999999999,-1.3563143541517857,0.0413984944957963,0
mp-771111,Li2Fe3NiO8,0.0,-1.580961891428572,0.0938112092633947,0
mp-13853,P3Ir,0.083399999999999,-0.6470474173214287,0.0,0
mp-764257,W7(OF5)6,3.4979,-2.6986027977488374,0.0156934616279036,0
mp-7366,Sr(AgSn)2,0.0,-0.3587408379999996,0.0,0
mp-8300,Ba4As2O,0.669299999999999,-1.5824975944642854,0.0,0
mp-566661,CrHg3(PbO4)2,1.8827,-1.2701560389285709,0.0,0