mpid,formula,BG,FE,e_hull,fidelity
mp-27254,Ba(TeO3)2,1.7482,-2.012998023055556,0.0004491570833344,0
mp-8211,GaGeTe,0.118699999999999,-0.2375317516666667,0.0056306233333334,0
mp-977143,LaDyRu2,0.0,-0.1886854816666661,0.0077542285000005,0
mp-12635,TiAu4,0.0,-0.2787017973333334,0.0,0
mp-768788,Li3Bi(BO3)2,3.9539,-2.4046585040277777,0.0736585089583332,0
mp-560785,K2Y4Sn2S11,1.5806,-1.8523315155098692,0.0,0
mp-510408,MnO2,0.0,-1.7745383428200003,0.0360306458333337,0
mp-33569,Sr(LaSe2)2,1.8829,-2.049435700625,0.0,0
mp-1018061,FeH3,0.0,0.1628603510349995,0.1924457181900001,0
mp-11283,ZrBe5,0.0,-0.2443755091666671,0.0,0
mp-989537,Cs2TlInF6,3.9896,-2.8192948722140003,0.0,0
mp-24606,Rb2MgH8(CO5)2,4.535299999999999,-1.829732005063477,0.0,0
mp-8079,B5W2,0.0,0.2607137023809512,0.5469679661904774,0
mp-654225,KFe(SeO3)2,2.1843,-1.63428347696875,0.0,0
mp-765024,LiVF5,1.9205,-3.073523063707144,0.0397237778571479,0
mp-971933,YZr,0.0,0.1122561337499998,0.1122561337499998,0
mp-1028769,W2Se3S,0.9274,-0.7242253749739594,0.0113717116666682,0
mp-542295,NaYbGeO4,0.0,-2.4149909728571424,0.0242244691964259,0
mp-1004038,CaMn2O4,1.5091,-2.3658627056314288,0.0867172353571312,0
mp-20203,MnCuP,0.0,-0.1566738635317458,0.2548469158333324,0
mp-10069,Ce(P3Ru)4,0.207399999999999,-0.6875203445378145,0.0,0
mp-542644,Zn2In2S5,0.0,-0.9661293811458344,0.0707413687500002,0
mp-567478,MnSbSe2Br,0.621,-0.4580421544375,0.0,0
mp-559007,Na2CrCuF7,0.008399999999999,-2.7282930571209087,0.0072604271212108,0
mp-976590,HoTlRh2,0.0,-0.5619212400000002,0.0055712012499995,0
mp-771687,Li5Fe5O12,0.0,-1.7972710956818183,0.0907791628409056,0
mp-625837,Be(HO)2,5.410900000000001,-2.039235271948,0.0413252395000007,0
mp-22573,Tb4CoB13,0.0,-0.4577729252777792,0.1269870262500001,0
mp-1026974,MoWSe3S,0.6717000000000001,-0.7634863866406244,0.027347856666668,0
mp-2057,DyB2,0.0,-0.5651129300000003,0.0,0
mp-10488,Cs2Ti(AgS2)2,1.6088,-1.3111145758796308,0.0,0
mp-555393,KBi6BrO9,2.3298,-1.6691572175735292,0.0,0
mp-540833,V2Co3O8,1.741,-1.9357066469230768,0.0,0
mp-654008,K3Cr11S18,0.3485,-1.1917340304101565,0.0,0
mp-780456,Ta2Nb3O12,0.0,-3.1214408851470585,0.0390823680882395,0
mp-570858,AgCl,0.443799999999999,-0.68876306163,0.0358915799999999,0
mp-25740,Co3(AsO4)2,1.7365,-1.590646681730769,0.0043182896154094,0
mp-862995,Er8Ga3Co,0.0395,-0.4150153954166669,0.0,0
mp-552169,AgClO2,0.8895000000000001,-0.2475445251899995,0.3298423087500009,0
mp-778256,Rb2MgO2,1.8556,-1.90011198025,0.0186425077500027,0
mp-88,Dy,0.0,0.0029114883333329,0.0029114883333329,0
mp-331,ScAl,0.0,-0.4471662649999999,0.0,0
mp-29928,Na3Li3N2,0.0,-0.1124299637199999,0.1827483862499992,0
mp-773385,Li3FeSiO5,2.2539,-2.4861255341249997,0.082554099999994,0
mp-578953,YbZr6(PO4)9,0.0,-3.223430444285714,0.0,0
mp-867149,Sr2CdSn,0.0,-0.5494460425000001,0.0,0
mp-765570,Li2Mn(PO4)2,0.9969,-2.5035508247808047,0.0176382377243591,0
mp-560358,Zr2P2O9,4.1039,-3.316798112880037,0.0,0
mp-780230,Hf2N2O,1.9989,-2.546125936952001,0.0038718827499941,0
mp-19767,DyCoSi,0.0,-0.7244878597222227,0.0,0
mp-557090,Bi2Au5F21,1.4016,-1.7665797577674998,0.0,0
mp-4262,BeAlB,0.0,-0.0511320738888881,0.0,0
mp-754120,Dy2Nb2O7,0.0,-3.4064160356439386,0.0923499019191922,0
mp-17509,Rb2NaCr(CN)6,1.8634,-0.2632617133924997,0.1537378489062515,0
mp-866216,CaDyRh2,0.0,-0.6125978716666669,0.0,0
mp-1634,MoSe2,1.4177,-0.6699711890624999,5.639833333326294e-05,0
mp-541450,In2(SO4)3,3.754,-2.0641232027757357,0.0,0
mp-756633,Li3BiO3,2.7094,-1.9096084987500004,0.0602224967857134,0
mp-779424,Gd3TaO7,2.7834,-3.815614768977272,0.0,0
mp-6318,KLiSO4,5.3179,-2.416005579866072,8.601142857145305e-05,0
mp-644245,Na2PH3O5,4.8148,-2.1149983359277487,0.0083199825000015,0
mp-5999,Sm2Ti2S2O5,0.779899999999999,-3.33682638751894,0.0,0
mp-746,Sr5Si3,0.0,-0.3945509412500003,0.0,0
mp-759360,LiBi(PO3)4,3.2667,-2.4909683049933857,0.0922801390277916,0
mp-570514,Cd2Fe(CN)6,2.609,0.0560733927146676,0.1477497798413329,0
mp-643570,NiH2SO5,3.9322,-1.5804016152836102,0.0423398696296306,0
mp-850939,Li2MnV(P2O7)2,0.0101,-2.667876360038225,0.0028920237311087,0
mp-555217,Dy3Se4O12F,3.741099999999999,-2.50098544002825,0.0,0
mp-32310,Ba3Ta2NiO9,3.3673,-3.133504689416667,0.0,0
mp-977554,MgScAg2,0.0,-0.2867235849999998,0.0,0
mp-706566,Co6C13(SeO6)2,1.5538,-0.6152192108996203,0.4491971565909117,0
mp-667366,PRu5C16(O5F)3,1.6922,-1.039016493010381,0.2488845372833328,0
mp-1027463,Te4Mo3W(SeS)2,0.0,-0.5440068504427096,0.0747069533333339,0
mp-25751,K2Li2FeO4,0.4025,-1.804359484444444,0.0367234650694428,0
mp-561117,SXeO3F2,2.4655,-1.4315249835989288,0.0904677880357187,0
mp-8281,Ba(CdAs)2,0.159199999999999,-0.6389245219999999,0.0,0
mp-23400,In(IO3)3,3.411299999999999,-1.057046900865384,0.0,0
mp-34011,Ca(HoS2)2,2.1913,-2.4403112644642864,0.0339091604761909,0
mp-20898,DyInAg2,0.0,-0.3738812741666661,0.0,0
mp-996977,AgAuO2,0.0,-0.4483364543750001,0.0324976587499996,0
mp-6413,LiDy(PO3)4,5.9314,-2.9487996907804237,0.0028458114351748,0
mp-541732,Al3Pb5F19,5.137600000000001,-3.233579748985556,0.0019431151388911,0
mp-764269,VOF3,3.873,-2.705800496464001,0.0249531930000017,0
mp-10463,YCo4B,0.0,-0.2915478931944453,0.009481624393941,0
mp-23177,HgBr,2.2557,-0.4273906074999999,0.0,0
mp-6567,LiNd(PO3)4,5.7983,-2.8730264122156086,0.071768629166665,0
mp-570076,Tl2CdSnTe4,0.3681,-0.3077614325,0.0029522546875,0
mp-849071,Cr3S4,0.0,-1.0522151258928574,0.0,0
mp-8219,Zr(CuP)2,0.0,-0.6621620412380963,0.0,0
mp-559388,U8FeS17,0.0,-1.7717664980408658,0.0,0
mp-28321,Sc7CI12,0.0,-1.1320077073750006,0.0,0
mp-5720,Ho(SiRu)2,0.0,-0.9111426249999994,0.0,0
mp-27722,Pd(S3N)2,1.2357,-0.3752114424038879,0.0,0
mp-761337,SrCrO3,0.690099999999999,-2.594863529416666,0.057477218458338,0
mp-10848,AsPdS,0.0,-0.5764055755208339,0.0,0
mp-607,CeRu2,0.0,-0.2791007783333323,0.0,0
mp-677803,In11Cu9Se20,0.0,-0.415639892546875,0.0341437548750005,0
mp-540312,Li2V(PO4)2,1.4504,-2.6628819404761903,0.0384686163461491,0
mp-30888,ZrZn22,0.0,-0.0560703647826087,0.0026760382608699,0
mp-864972,Mg2PdAu,0.0,-0.6691077824999998,0.0,0
mp-613989,Pu,0.0,0.0,0.0,0
mp-2719,DyB4,0.0,-0.6011510836666666,0.0,0
mp-1912,ZnAg,0.0,-0.0487172574999998,0.0,0
mp-721707,H6C3N4O3,4.3669,-0.8742417704681245,0.0075341554166667,0
mp-7931,SrP,0.4594,-1.0519241215476205,0.0,0
mp-780935,Ca2FeP2(H2O3)4,4.325100000000001,-2.2424302816060195,0.0025031862666322,0
mp-17250,K3SbO3,3.2348,-1.837690389464285,0.0,0
mp-770218,ZnIn2O4,0.6364999999999991,-1.8897009253571424,0.0697098053571432,0
mp-778627,LiMnP2H5O9,3.812,-2.0572753192500266,0.0844308653472261,0
mp-721255,Li10Si(PO6)2,5.1063,-2.646133398447619,0.092703904600004,0
mp-2894,ScSnAu,0.1245,-0.7601695616666669,0.0,0
mp-776922,Rb2O,0.1921,-1.1472799126388888,0.0026398644444411,0
mp-866468,CrH9(BrN)3,1.5586,-0.7266656893574996,0.0,0
mp-863740,Pm2IrRu,0.0,-0.3732416350000012,0.0,0
mp-865916,TiVRe2,0.0,-0.3969006541666662,0.0,0
mp-768479,YScO3,3.2036,-3.955734367249998,0.0306023803750008,0
mp-569837,Ti3Sb,0.0,-0.3218467062499997,0.0559486000000077,0
mp-773192,Gd2(WO4)3,3.2203,-2.7217011382352942,0.0337342925000108,0
mp-554459,Pr6S4BrN3,1.2631,-2.0792319972064286,0.0,0
mp-764647,Na8TiO6,2.0299,-1.9798176490555557,0.0697117372222209,0
mp-1005753,Sm2AlGe6,0.0,-0.4375474149999998,0.0069810769444451,0
mp-10669,Ba3(AlGe)2,0.0,-0.4766415300000005,0.0,0
mp-779175,Li8Mn7Fe(BO3)8,2.902799999999999,-2.507659654792777,0.005341313159719,0
mp-21263,PuSb,0.0,-0.5358877859374989,0.0484320300000007,0
mp-631455,HfSi2Br,0.0,0.5924407687499995,1.2895892916666662,0
mp-758662,Ba2GaP4HO14,5.0374,-2.846697158568226,0.0003615017329545,0
mp-556377,Ba17Dy16Zn8Pt4O57,2.2995,-3.006610892724674,0.0018749857516269,0
mp-694911,BaCaBO3F,3.8701,-3.4597230923723803,0.006625982653059,0
mp-772131,Li3Fe3SbO8,0.7864,-2.010848004333333,0.043100970200002,0
mp-8306,Ba3FeN3,0.0,-0.7151704474485712,0.0,0
mp-632802,Ba2CaTlCu2O7,0.0,-1.9815282964423084,0.0494281986965772,0
mp-1008676,TiS2,0.0,-0.4325426115972229,1.2881141899999822,0
mp-567391,Dy3Se3N,1.170999999999999,-1.8997549911658933,0.0,0
mp-1016831,HgIrO3,0.0,-0.61009607075,0.4045551645000005,0
mp-541066,Mg2B4Ru5,0.0,-0.3535831160606064,0.0,0
mp-779888,Li3Mn2Fe(BO3)3,2.654199999999999,-2.4862567487872216,0.0025501524074087,0
mp-27451,Tl3PbBr5,3.128599999999999,-0.9005287922222224,2.584944444050663e-05,0
mp-568001,AlHg2SbCl4,0.8372,-1.2543437388175,0.0,0
mp-771797,MnCoO4,1.2788,-1.4486683584933335,0.0254975141666689,0
mp-23781,Rb3H(SO4)2,5.2433,-2.234751818696072,0.0,0
mp-696470,Ag7NO6,0.0,-0.1950391507057141,0.2918009349999995,0
mp-675647,Hg(Mo3S4)2,0.0,-0.9688791948333336,0.0759151660000005,0
mp-775004,Fe3P6WO24,0.0837,-2.325206729369748,0.0295590769914229,0
mp-571271,TmPt2,0.0,-1.1099126183333337,0.0474766708333334,0
mp-850968,LiVSnO4,1.4519,-2.3389862585714285,0.0,0
mp-9806,KGd(CO3)2,2.699,-2.568847165250001,0.0,0
mp-17789,K2RuO4,0.5193,-1.7327894478571426,0.0,0
mp-1001834,HfN,0.0,-0.9571981936900008,0.9830525649999996,0
mp-769752,Li4Cr3FeO8,2.4395,-2.2289644400000004,0.090076679062502,0
mp-1020599,Na5B(SO4)4,5.3015,-2.2969184699198717,0.0,0
mp-864824,LiTbAu2,0.0,-0.7103907133333336,0.0023098825000014,0
mp-753946,LiCoS2,0.6646000000000001,-1.07557740203125,0.0106060503124965,0
mp-1022803,CoHCO4,0.1667,-1.5061573168266658,0.0449701894047622,0
mp-755057,Rb2PrO3,0.0,-2.198204683125,0.0648593320833317,0
mp-765566,LiAg2F6,0.0,-1.7986000033859255,0.0214314540740758,0
mp-20820,Pb(NO3)2,3.5995,-1.165134795806667,0.0,0
mp-550117,Sm4Se3O4,1.2744,-3.050775042798296,0.0,0
mp-776814,LiMnF3,3.4012,-3.022053770906,0.0426971149999992,0
mp-771832,Li2Ti3SnO8,0.0,-2.9245009964285713,0.1029993273809477,0
mp-555650,NdSeClO3,4.1926,-2.442365283433959,0.0,0
mp-7223,Ca3AsN,0.716699999999999,-1.1549291074760006,0.0059797979999993,0
mp-20601,NdPb3,0.0,-0.3608529693750002,0.0,0
mp-560513,Gd3Si2Cl5O6,2.531,-3.2148903196125,0.0,0
mp-37297,U2PS,0.0,-1.3495059517894337,0.0,0
mp-560802,Te7(OF5)6,2.3684,-2.2053238912372097,0.0059277186575048,0
mp-25528,Li2FePCO7,2.4568,-2.3395454453621025,0.0170283770312424,0
mp-769912,Rb2Ni2O3,1.6966,-1.022356509464286,0.0780909767857123,0
mp-30353,AgPt3,0.0,0.0263592324999999,0.0263592324999999,0
mp-771981,BaLa2Br8,3.4682,-2.039867265909091,0.0405820403409089,0
mp-32967,Zr7Sb4,0.0,-0.6719795804545456,0.0,0
mp-989577,LiTl2GaF6,4.262300000000001,-2.664294183714,0.0,0
mp-554873,Ag2B8O13,3.2651,-2.525631806829711,0.0,0
mp-771514,Li4TiCo5O12,0.0,-1.8857814955303036,0.0666866915909052,0
mp-680731,Tl2Te3,0.444799999999999,-0.166849865,0.0244042599999998,0
mp-867915,ScGaCo2,0.0,-0.4338670875000004,0.0,0
mp-977394,TbAlAg2,0.0,-0.331444110833333,0.0,0
mp-778688,Fe6O5F7,1.392199999999999,-2.2706463194211097,0.0862292783333513,0
mp-1025768,Te2MoW2(SeS)2,0.0,-0.6411109428124999,0.0568328405555549,0
mp-776442,Ba2YI7,2.8272999999999993,-1.6075498327500004,0.048729798250001,0
mp-18797,Yb2V2O7,0.0,-2.907578707613636,0.0,0
mp-771395,Li3Co4(BO3)4,0.4432,-2.2098233059420296,0.0497096715579798,0
mp-32742,U16N25,0.0,-1.6296025975487785,0.0055375612195138,0
mp-762821,Li3Ti3VO8,0.0,-2.954431012666666,0.0574185271000029,0
mp-866972,CoMoH2SeO7,2.3374,-1.5851648587153118,0.0,0
mp-865624,Li2HoTl,0.0,-0.2197341174999998,0.0,0
mp-626788,ReH3O5,3.9184,-1.708087779123332,0.0190105044444459,0
mp-505304,Hg2Mo5O16,2.3392,-1.8188704489130416,0.0191102842391268,0
mp-18502,BaSi3SnO9,3.7232,-3.1092779461607143,0.0,0
mp-743846,K2FeH4(SO5)2,4.2547,-1.971984990795,0.0031803861842103,0
mp-631576,MoPt2Br,0.0,0.5217467724999993,0.922254872291666,0
mp-542294,Sr3NiRhO6,0.0,-2.2502645534090915,0.0,0
mp-510568,V2O5,1.6982,-2.2784202623214287,0.0227255192857125,0
mp-2998,BaTiO3,1.6669999999999991,-3.492403165083334,0.0145057809999897,0
mp-23996,BeH8SO8,5.4388,-1.7540135101679164,0.0,0
mp-978504,SmGaO3,2.779399999999999,-2.9280689212499995,0.2100731816666678,0
mp-698074,Ca2H2S2O9,5.7341,-2.493053997107666,0.0204395561666679,0
mp-561313,Si2Ag6O7,0.3081,-1.4619417455833337,0.0496357986666655,0
mp-793783,Na5Fe2P2(CO7)2,1.2134,-2.2309631257476186,0.0866880717999869,0
mp-616601,Ba2InRuO6,0.364799999999999,-2.298930037916666,0.0,0
mp-17272,NbCuO3,0.9479,-2.31272499725,0.0191824354999745,0
mp-763937,VO2F,1.568,-2.4500927571725,0.0300563193750003,0
mp-12595,MoRh,0.0,-0.1865503849999985,0.0,0
mp-16116,RbSm2CuSe4,0.8441000000000001,-1.508738745546875,0.0,0
mp-1018900,PrCuPb,0.0,-0.3706962566666665,0.0,0
mp-558170,Rb3PO4,3.664799999999999,-2.5149871563244046,0.0,0
mp-1007656,HfPd3,0.0,-0.86878756625,0.01225587375,0
mp-771697,La2Ga4O9,2.698,-2.7736652267500004,0.0881637484444546,0
mp-555507,Sr10Al2ClF25,6.4233,-4.124717812447633,0.0074925178947369,0
mp-20119,PtO2,0.0,-0.1526995541666664,0.7875174433333338,0
mp-541495,KY(PO3)4,5.3516,-2.9317889277711635,0.01211279055555,0
mp-556242,YF3,5.617299999999999,-4.250088501934166,0.2003153352083337,0
mp-764934,Na(NiO2)2,0.0,-0.9967394389285716,0.0024551342460368,0
mp-755027,In2Sn2O7,0.2812,-1.9869922035227277,0.0921410090909091,0
mp-764092,Mn6OF11,0.2475,-2.8640942233388893,0.0251735914583379,0
mp-766259,SnH10Cl4O5,3.2828,-1.3947015692744995,6.786087499843775e-05,0
mp-9596,La(BIr)4,0.0,-0.5678680590740726,0.0,0
mp-1786,Ti3Au,0.0,-0.3508878075000004,0.0,0
mp-3446,SrTm2O4,3.812699999999999,-3.8232532082142856,0.0,0
mp-1795,NbF3,0.0,-2.9574480921425,0.1682514792916665,0
mp-770660,Li12CrGa11O24,1.346099999999999,-2.3574333387499995,0.0328747854166673,0
mp-23363,NaAlCl4,5.155699999999999,-2.0555113767566664,0.0,0
mp-763300,LiFeO2,1.6202,-2.056902875625001,0.0199524087500018,0
mp-780593,VO2F,1.9710999999999992,-2.4420162665475003,0.0381328100000004,0
mp-1030575,Te2Mo3W(Se2S)2,0.0,-0.6759736077083337,0.0426097050000002,0
mp-41837,RbTiZnOF5,3.1708,-3.2103083732074063,0.0003019542129685,0
mp-1029155,TeMoWSeS2,0.0,-0.8112149811197918,0.0557935658333335,0
mp-979261,TiPd,0.0,-0.5450066583333335,0.0,0
mp-697664,LiCr4(PO4)3,2.069699999999999,-2.470115095964286,0.0409414565833365,0
mp-1025937,Te4Mo3S2,0.1554,-0.5439894009027779,0.071707950555556,0
mp-19665,NaCoPO4,2.691599999999999,-2.344364587942177,0.0331765785714184,0
mp-976581,Nd3I,0.0,-0.1336958143750002,0.3580056128124997,0
mp-634381,V2Zn2O7,2.0231,-2.150070831704545,0.030604077272728,0
mp-20867,Eu(AlGa)2,0.0,-0.4078390349999992,0.0,0
mp-977544,Hf2ReNi,0.0,-0.4310579487499986,0.0,0
mp-614997,SnS16(Cl2O)2,2.0385,-0.9179846830669568,0.0045673999999991,0
mp-776194,Li4Ti3Mn2Sn3O16,1.347999999999999,-2.5815532470328555,0.0622812060714235,0
mp-569670,LaNdI4,0.0,-1.2550459179166669,0.1154964988541675,0
mp-504691,LiMnP,0.0,-0.4991555360317458,0.1188264272222223,0
mp-761628,Mn3Ni2P6WO24,0.0452,-2.3079441767069837,0.0611077774027837,0
mp-866094,HfZnCu2,0.0,-0.1958577999999997,0.0,0
mp-774754,KRe4O8F13,3.129499999999999,-2.5004286242488467,0.0017244210576938,0
mp-675628,Al2CrS4,0.0,-1.2481932258928583,0.0563109397023806,0
mp-13997,RbAlF4,6.8327,-3.6590705796266665,0.0,0
mp-12010,BaSeO4,3.6982,-2.1698194455989577,0.0,0
mp-28630,Na3BN2,1.6479,-0.6394691539877778,0.0,0
mp-776907,Ti3CoNi2(PO4)6,0.0,-2.674311913293652,0.0247671726157214,0
mp-8130,CaGeO3,2.0247,-2.6548606077500008,0.10771110366667,0
mp-604915,CrSe,0.0,-0.3047057917968745,0.1298196083333325,0
mp-762678,LiFeSiO4,2.6843,-2.620541885714286,0.0014752678571356,0
mp-8057,Ti3O5,0.0,-3.3902349801562512,0.0083877818749833,0
mp-1506,Sm5Ge4,0.0,-0.8315613641666657,0.0,0
mp-756683,HfBiO4,1.073,-2.736401456666666,0.0199805637499981,0
mp-764525,Li3Fe8(BO3)8,1.369999999999999,-2.3437621898449605,0.0701990069040547,0
mp-865299,TmZnRh2,0.0,-0.7146700862500008,0.0,0
mp-699647,Mn2SnC9ClO9,2.324999999999999,-0.8000267971104542,0.6053007317613623,0
mp-768268,Li14Co2S9,0.530899999999999,-1.3616308978625,0.07688300286667,0
mp-765172,Fe3(OF)2,1.027899999999999,-2.0497345410542858,0.0775546053571485,0
mp-21134,K(InAu2)2,0.0,-0.2901694428571427,0.0,0
mp-1025866,Mo2W(Se2S)2,0.7303000000000001,-0.8326522047222227,0.0352756949999983,0
mp-998365,NiAgF3,1.9403,-1.7246578157139998,0.0305626329999988,0
mp-765741,Li4Mn2V3Sb3O16,0.0,-2.234115152389999,0.0294291316964239,0
mp-756564,BaYCl5,4.0352,-2.7896519105428577,0.035783834285711,0
mp-558951,K2B6H2O11,5.364199999999999,-2.62835510719,0.0,0
mp-976313,K3V(SO5)2,3.4426,-2.3206302834765618,0.0192875510096355,0
mp-757734,LiNbPO5,0.0,-2.774237652730656,0.0818553051319384,0
mp-31135,Si19Te8,0.886599999999999,0.0348756512962972,0.0348756512962964,0
mp-975578,Li2SnHg,0.0,-0.3306238937499999,0.0173932733333335,0
mp-545746,KSO4,3.558999999999999,-1.901755781510416,0.1664479840624997,0
mp-761024,Na2Cd2O3,0.385499999999999,-1.4510154312500003,0.0063423675000011,0
mp-4551,SrHfO3,3.7293,-3.79787444375,0.0329254414999997,0
mp-705559,Na3Ca3Zr2Si4(O5F)3,3.076999999999999,-2.8353980362440003,0.5911839408749966,0
mp-998928,TlCdS2,0.0,-0.5735046395312504,0.2063252025781268,0
mp-777912,Fe6O5F7,1.2268,-2.2601777577544437,0.0966978400000044,0
mp-571247,Al3Mo,0.0,-0.3164923018749999,0.0,0
mp-777099,LiMnOF2,0.9907999999999992,-2.689860928918,0.0218612502500104,0
mp-9293,EuGeAu,0.0,-0.7360882566666666,0.0,0
mp-761975,CoSn3(PO4)4,0.7442000000000001,-2.3208049740575394,0.0845196653125022,0
mp-10912,BaPr2FeS5,0.0,-2.0555150355902785,0.0325752802777774,0
mp-9570,Ca(CdP)2,0.8089000000000001,-0.5665423052380956,0.0,0
mp-695963,K2NaH10IO10,2.5046,-1.4521164986958333,0.0,0
mp-12735,KAg2,0.0,-0.0123008324999993,0.0,0
mp-775013,Li4Mn3Fe3(SbO8)2,0.5973,-2.0807546958171423,0.005359733928584,0
mp-545506,GdZnPO,0.5424999999999991,-2.033166722336309,0.0,0
mp-1018073,HoGa,0.0,-0.6262746649999995,0.0,0
mp-775134,MnV3(PO4)4,0.4761,-2.624008430555874,0.0312133779166448,0
mp-1018737,KMgP,1.6589,-0.649833426031746,0.0,0
mp-4419,NaNbO3,1.5604,-2.8341964077500017,0.0273868200000002,0
mp-643370,Ba2MgH6,2.8864,-0.5316821346355552,0.0,0
mp-866818,Ca2SnS4,1.0795,-1.7517166001785711,0.0178779239285704,0
mp-34460,Ag3AuS2,1.5412,-0.2874891996875005,0.0,0
mp-866565,CaSnS3,0.303199999999999,-1.2508463114375004,0.2343801537500001,0
mp-24104,LiAlSi2H2O7,4.858,-2.8087661423838464,0.0076538938247834,0
mp-675383,Li3(Mo3S4)2,0.0,-1.1817522413235302,0.0123377249999983,0
mp-567909,Pr(NiSn)2,0.0,-0.4859505239999989,0.0,0
mp-782676,Li2Fe3CuO8,0.0,-1.6144607799999997,0.068624280625003,0
mp-3881,BaZnF4,4.5489,-3.4094893399599986,0.0,0
mp-777203,Li2MnVP2(O4F)2,0.694299999999999,-2.7459083147623207,0.0207447509895537,0
mp-21260,FeSn,0.0,-0.0002711591666664,0.0,0
mp-775252,Li8Mn3Fe5(BO3)8,3.0354,-2.452914819921111,0.0020203878125011,0
mp-695476,NaSr8LaTi10O30,1.8021999999999991,-3.4548476647833333,0.0932921574900032,0
mp-684653,Cu2Se,0.0,0.0184493938020834,0.1310103549999994,0
mp-18378,K3AlTe3,2.117,-0.9419284096428576,0.0,0
mp-771990,Li4Cu3WO8,0.172,-1.7024437962499992,0.1397518303125036,0
mp-758147,LiCu(PO3)3,0.5284,-2.3525155307525507,0.06410174892856,0
mp-542897,BaIrO3,0.0,-2.01037823875,0.0183156345624997,0
mp-573908,Sr11(MgSi5)2,0.0,-0.4301832747826087,0.0061164898913035,0
mp-554320,P2Pd2O7,0.716299999999999,-1.9188034427218623,0.0126388790909075,0
mp-755950,Ba2Sc2O5,2.71,-3.5207011356944435,0.0,0
mp-851283,LiFeSiO4,2.729999999999999,-2.5643471560714284,0.0576699974999934,0
mp-1009650,RbSb,0.0,0.4926159325000001,0.91847079125,0
mp-18065,BaCaAlF7,7.003,-4.120526525833,0.0,0
mp-773363,Li4Mn3WO8,0.9333,-2.1383593283049995,0.0964835659374978,0
mp-11928,Pr2AlCo2,0.0,-0.2309627699999993,0.0322835180357143,0
mp-989590,Ca6Sn2NF,0.1352,-1.345864687857,0.0,0
mp-21233,Ti3InN,0.0,-0.9397272564760002,0.0081442436666705,0
mp-3527,Na3AgO2,1.1398,-1.2830662812500002,0.0,0
mp-15607,Ca(BC)2,0.0,-0.1831838546666674,0.1454579640000011,0
mp-571548,SbH16C4N2Cl5,3.2333,-0.6438793187135711,0.0487076668749999,0
mp-28248,CdI2,2.365599999999999,-0.5914005616666668,0.0007364368888889,0
mp-554665,SiO2,4.8029,-3.0851400216666662,0.1995728858333301,0
mp-25567,RbMnH4Cl3O2,3.9221,-1.6384347702472724,0.0,0
mp-23046,SrIF,4.311199999999999,-3.0109102603966673,0.0,0
mp-765558,Li6NiOF6,1.941,-2.767843072027857,0.085921119285711,0
mp-23047,Ho6MnBi2,0.0,-0.4053996022222219,0.0,0
mp-765451,Li3V4O5F7,1.193299999999999,-2.8483797994515783,0.0841091730701695,0
mp-1029385,Li2SnN2,1.696699999999999,-0.4036801659520002,0.0,0