mpid,formula,BG,FE,e_hull,fidelity
mp-557467,Li4Ca(BO3)2,4.7254,-2.7891253054487186,0.0,0
mp-542103,TbRh3C,0.0,-0.4990787681666674,0.0,0
mp-765739,VOF,0.7756999999999991,-2.8020089866466673,0.043999895833334,0
mp-1027129,Mo3W(SeS)4,0.606799999999999,-0.9467530325520848,0.0306911299999992,0
mp-554831,Yb4Cl6O,5.176,-3.034868299619091,0.0,0
mp-705479,SnH6Cl4O3,3.223099999999999,-1.3960351550721424,0.0004211050000026,0
mp-6270,Ba2LiReO6,1.8198,-2.75743077725,0.0,0
mp-763209,Li2VO2F,1.0057,-2.6195193756149995,0.1000195574999969,0
mp-674459,NaErF4,6.8659,-4.018637714126666,0.0,0
mp-28413,Na2(GaSb)3,0.1913,-0.2692062809374995,0.0,0
mp-8642,Re,0.0,0.0586737149999994,0.0586737149999994,0
mp-28509,Ta4SiTe4,0.028599999999999,-0.5204624383333333,0.0,0
mp-30696,Cd5Cu2,0.0,0.0229563832142855,0.0229563832142858,0
mp-20298,SmIn,0.0,-0.49337777625,0.0,0
mp-7973,RbNdO2,3.4261,-2.9191575949999997,0.0,0
mp-28634,KI3F16,4.1785,-2.1276266793895,0.0,0
mp-977365,YbEuIn2,0.0,0.94556731625,1.4424073625,0
mp-7143,BaPuO3,0.0,-3.404456686125,0.0228462950000007,0
mp-696195,YSeF,2.1589,-3.0170130345112502,0.0,0
mp-772251,Li3Mn4NiO8,0.0,-1.980069739615,0.0211296523437498,0
mp-8871,CsNa2BO3,3.2483,-2.2504128364880955,0.0,0
mp-31622,K2CoO2,0.6702,-1.4646818615000008,0.0,0
mp-764060,Na2VO3,1.777499999999999,-2.2507429522916667,0.0692777933333372,0
mp-1009817,TaC,0.0,-0.1675613437500001,0.4111406500000001,0
mp-772898,AlGaO3,3.2132,-2.83348130725,0.0280068704999996,0
mp-10755,TiFeSb,0.0,-0.3635419172222225,0.0,0
mp-762172,Co2Ni3Sb(PO4)6,0.0,-2.037801049543651,0.096430752586806,0
mp-765801,Mn3F10,0.0373,-2.56134683729077,0.0754143390064099,0
mp-1697,TbPt2,0.0,-1.1058926194444445,0.0,0
mp-1796,Tl5Te3,0.0,-0.1423415131250003,0.1400975349573863,0
mp-569994,CdI2,2.3611,-0.5909792958333334,0.0011577027222222,0
mp-559309,K3ZnNCl4O3,3.3079,-1.7949721884725005,0.0,0
mp-574,Ta2Co,0.0,-0.248558068333331,0.0,0
mp-763434,Li5MnO3F,2.316799999999999,-2.20682396209,0.0747752646666661,0
mp-1027600,Mo3W(SeS3)2,0.4687,-1.1082304742968756,0.0282050291666662,0
mp-600156,H22RhC3(N3O4)2,3.2578,-0.9832896797230006,0.0147338919999997,0
mp-1018023,Mn3Sn,0.0,0.232681973750001,0.232681973750001,0
mp-989631,LaMoN3,2.0896999999999992,-1.1224301969279975,0.0,0
mp-555526,RbAg(NO3)2,2.4757,-1.1455814529760004,0.0,0
mp-766947,Sn(PO3)2,3.779599999999999,-2.4500750577711647,0.0,0
mp-743,RbN3,4.173599999999999,-0.4300943855349999,0.0,0
mp-23739,SiH4,6.562100000000001,-0.1065777193959995,0.0,0
mp-19876,InNi,0.0,-0.1992193333333324,0.0,0
mp-3759,MgGeO3,3.6483,-2.55520986375,0.0197621865000003,0
mp-762426,LiNi2(CO4)2,0.2677,-1.096246321538462,0.3913085692948757,0
mp-767629,LiVCr(P2O7)2,1.4875,-2.6555941680895687,0.0087123304761647,0
mp-600038,SiO2,5.4989,-3.2592375341666675,0.0254753733333323,0
mp-771620,Li3Fe3O8,0.0,-1.6783688542857138,0.1017928180357152,0
mp-776833,Li2Fe3SbO8,2.0734,-2.045097438571428,0.0023181242857175,0
mp-12910,GeS,0.5581,-0.5424472045312507,0.0446390612499998,0
mp-865440,U6Co12Ge4C,0.0,-0.3531773607608682,0.0,0
mp-558408,Nb4Te9I4O,0.253299999999999,-0.6072457928472225,0.0066653675877166,0
mp-570939,CdI2,2.400499999999999,-0.5919541038888888,0.0001828946666666,0
mp-783908,Li4Cr3Cu3(SbO8)2,0.0,-1.879306750000001,0.0424316098065427,0
mp-16304,YPPt,0.0,-1.3599704435317472,0.0,0
mp-9723,Sr4Li(BN2)3,2.0686,-1.2635899474485714,0.0,0
mp-1035484,LiMg14BO15,2.069199999999999,-2.7638358788844086,0.1991528733085346,0
mp-765982,FePO4,2.750099999999999,-2.4096067205158733,0.0182149854166677,0
mp-27798,B4H5,2.8803,-0.1609611324046298,0.0128475870312403,0
mp-675802,Y4Zr3O12,4.1171,-3.9353098189473688,0.0,0
mp-765370,Li5V3Cu(PO4)4,1.4693,-2.5035256588752044,0.1023937384587201,0
mp-9576,KSbSe2,1.1122,-0.7040703005468747,0.0,0
mp-2928,FePSe3,0.2601,-0.1264756317752976,0.1395120850625018,0
mp-1027294,Mo3W(SeS3)2,0.534,-1.1259443951302082,0.0104911083333334,0
mp-20999,La3InN,0.0,-0.9540064624760006,0.0,0
mp-569662,V2NiSe4,0.0,-0.5168890891964294,0.0859505933333357,0
mp-767454,PWO5,1.6157,-2.457614348477892,0.0113667575000153,0
mp-755009,Ba4OF6,3.6833,-3.877559641217273,0.058831642272727,0
mp-865164,HfCdCu2,0.0,-0.1027624000000004,0.0224703829687493,0
mp-778250,Li3FeF6,3.7585,-3.008260116464,0.0426181580833437,0
mp-14001,Ba4SiAs4,0.9847,-0.9978846625,0.0,0
mp-7349,Ba(BRh)2,0.0,-0.4745802226666676,0.0,0
mp-541272,LiGe2(PO4)3,3.385,-2.4970822380158726,0.0014598634722249,0
mp-757073,Ba4LiY2Cu5O14,0.0,-2.2736149427884618,0.0217785901495783,0
mp-11417,TbGa,0.0,-0.6245818116666673,0.0,0
mp-973773,Nd2Cd2O5,0.0,-2.167728855694444,0.5574028180555564,0
mp-14760,LuAl3(PbO4)2,2.984799999999999,-2.9953731162500006,0.0383563492857153,0
mp-13175,PtN,0.0,1.1929350538100003,1.1929350538100003,0
mp-764443,Li4Mn3Fe3(WO8)2,0.0,-2.063502223317143,0.1047794350000108,0
mp-28650,CsBr2F,1.7459,-1.5014381990475,0.0,0
mp-767223,LiVCrP2(O4F)2,1.0971,-2.7356378022380334,0.0083852339166767,0
mp-757074,BaCa2I6,3.8624,-1.6635869755555557,0.0290128723611111,0
mp-541640,Nd4Os6O19,0.0,-2.278026173577586,0.0,0
mp-561185,Cs2Sn2Hg3S8,1.6112,-0.8807463921666667,0.0,0
mp-631545,LiBBr2,0.4841,0.7147895483333335,1.6783554188888878,0
mp-707177,HC5N3(OF4)2,4.8499,-1.4619099605410526,0.0404370667670166,0
mp-766664,LiFeSiO4,1.6747,-2.587092732023809,0.0349244215476129,0
mp-620290,Sr2TlCuO5,0.0,-1.999345720138889,0.0137978731944361,0
mp-653586,CuS4(N2Cl)2,0.107499999999999,-0.2206797770263639,0.2156735827708971,0
mp-772856,CuHgO2,0.0,-0.7428408181249995,0.057179106875,0
mp-999067,Ti2CoGe,0.0,-0.2713037920833345,0.300651998666666,0
mp-18733,AlTl(MoO4)2,3.8676,-2.273777399583333,0.0,0
mp-8285,ZnGeO3,2.1201,-1.9795537907499992,0.0346884856666669,0
mp-675332,InI4,0.0,-0.2395430179999998,0.1661510564999997,0
mp-866073,MgSnRh2,0.0,-0.6440405912499996,0.0,0
mp-1009751,ScC,0.0,0.4751424512499991,0.920500842983868,0
mp-615366,FeS2,0.0,-0.5480016468749996,0.4004035041666665,0
mp-644418,CaH2CClO3,3.5729,-2.03872744896875,0.0158464239062494,0
mp-675681,Ba4Er3F17,6.4909,-4.359008006467916,0.0007746614583341,0
mp-849441,LiVP3HO10,2.3312,-2.507123178775357,0.0841642507421838,0
mp-766881,H7SIO10,2.3634,-1.3089625787843415,0.0212477517763147,0
mp-554134,SnS,1.668,-0.7253525620312509,0.0502269450000003,0
mp-13798,K2NaTlF6,3.6205,-2.720117496713999,0.0,0
mp-27980,U(OF)2,2.0451,-3.687251386976,0.0,0
mp-10191,Lu2MgSe4,1.476999999999999,-1.6829899191964282,0.0,0
mp-14058,KMg(PO3)3,4.9473,-2.824186743966837,0.0,0
mp-850164,Li4Co3Ni3(SnO8)2,0.0,-1.557215141428571,0.0174882834873892,0
mp-2207,NbSe2,0.0,-0.8346996765624995,0.004167929166666,0
mp-866280,CaSmRh2,0.0,-0.5441832256249999,0.0,0
mp-767355,CoPO4,1.2662,-2.12807337343254,0.0147737362499995,0
mp-15793,LiTbSe2,1.500299999999999,-1.6960930676302088,0.0,0
mp-673105,Cu3(P2O7)2,0.0,-2.0362775776133786,0.0063196163095176,0
mp-985439,BaPAu,0.0,-0.8781496510317464,0.0,0
mp-753056,HoBO3,4.5448,-3.487544963083333,0.0896072213333347,0
mp-21674,Pu5Ir4,0.0,0.4935327606250029,0.8574734305555562,0
mp-999047,Ti2MnSi,0.0,-0.3651665333333334,0.2284340476250026,0
mp-10860,CeNi2B2C,0.0,-0.4811233701388886,0.0,0
mp-20708,In2Ni3S2,0.0,-0.603822521160714,0.0,0
mp-1018689,ErZnIn,0.0,-0.4181902966666667,0.0,0
mp-674329,La2CdTe4,0.5282,-1.1588456107142855,0.1179104848214285,0
mp-32594,Sm2Se3,1.454199999999999,-1.8773993834062492,0.0157921222499997,0
mp-28616,NbTe5Pd,0.0,-0.3746799539285718,0.0,0
mp-17687,SrDy2CuO5,0.0,-3.1010018585648136,0.0659072752778007,0
mp-15856,DyRh3C,0.0,-0.5112857828333347,0.0,0
mp-977547,MgZnRh2,0.0,-0.4273243512500001,0.0,0
mp-975802,PrSb3,0.0,-0.4856009012499998,0.1081517000000005,0
mp-977053,Pm3Er,0.0,0.0239118018749993,0.0239118018749993,0
mp-770,DyCd,0.0,-0.3201082908333332,0.0,0
mp-721236,Li10Sn(PS6)2,2.339,-1.2726230157976204,0.0109689383999986,0
mp-779415,Li6AlFeO6,2.6554,-2.289154678392858,0.0961579198214286,0
mp-32419,LiV2(PO4)3,1.3014,-2.6695533770436524,0.0,0
mp-6943,Ca4GdB3O10,3.2691,-3.38745729625,0.0,0
mp-765406,Nd2NiO4,0.6717999999999991,-2.8674040528571427,0.1009839860714105,0
mp-505005,CeSiOs,0.0,-0.6385797300000012,0.0,0
mp-1011260,EuFeO3,0.0,-2.5230437127500003,0.0138788354999999,0
mp-973352,NaCo3,0.0,0.6441032274999996,0.6441032274999996,0
mp-675124,In4SnS8,0.2407,-0.9032138436538456,0.0203515136538463,0
mp-774418,TiV3(PO4)6,0.8519,-2.675170539565828,0.0145857940441178,0
mp-764651,LiFe2(BO3)2,1.6533,-2.2373189082575764,0.1787644283522977,0
mp-677041,ZrCuF3,0.4628,-2.431252968714,0.6178546101805553,0
mp-566881,P2W2O11,2.890199999999999,-2.379685777996031,0.015604244833332,0
mp-25160,Na5VO5,2.239,-2.073511075113636,0.0024320513636375,0
mp-753378,TaGaO4,3.276499999999999,-2.875552729166668,0.0318584058333311,0
mp-1026972,Te4Mo3W(SeS)2,0.045799999999999,-0.5228508221093762,0.0958629816666674,0
mp-770172,Li4MnCrO6,1.0387,-2.2103997365383337,0.0128262899999969,0
mp-625254,P(HO)3,4.1531,-1.5459265500293198,0.1489938828945565,0
mp-28159,As(BrF2)3,1.5927,-1.684061106714,0.0,0
mp-20180,Mn3GeC,0.0,-0.0523875224999997,0.0432979750869577,0
mp-2092,CePd3,0.0,-0.8306567725000003,0.0,0
mp-9905,Ba2Si,0.0005,-0.3096954758333332,0.0,0
mp-573548,La3(GaNi2)2,0.0,-0.4941673711111115,0.0,0
mp-7176,RbLaSe2,2.32,-1.808587251796875,0.0,0
mp-756306,Li5Zn4(BO3)4,0.0,-2.302876392466666,0.1018085874499954,0
mp-707981,Y4H9NO13,3.3405,-2.3282180928225933,0.0,0
mp-7467,RbCuO2,0.9136,-1.365960568124999,0.0,0
mp-580324,Ce4In8Ni7,0.0,-0.3611522600000002,0.0180427333333321,0
mp-530379,Tb2TiO5,2.43,-3.770307790885416,0.1259873965625004,0
mp-676540,TlSbS2,1.267299999999999,-0.6575873995312502,0.0083645375000012,0
mp-572543,CsPr(PO3)4,5.4728,-2.9351976215211635,0.0072125527777773,0
mp-557441,KAu(IO3)4,2.1081,-0.9310904613888892,0.0,0
mp-976187,Pr(Al2Fe)4,0.0,-0.3918417753846156,0.0,0
mp-505045,Na5(InTe3)2,0.8645,-0.7070054630769232,0.0,0
mp-769981,Li4Cr3GaO8,3.1792,-2.380170161875,0.0170191306250009,0
mp-1008631,VCoTe,0.0,-0.0172299300000003,0.2326830568518563,0
mp-19657,LaMnO3,0.0,-3.021128569442,0.0,0
mp-853255,LiFeP3H8O13,3.6786,-2.0065222999806056,0.0477812789423079,0
mp-862586,Re3Pd,0.0,-0.0553548475000003,0.0,0
mp-868637,Li7(CoO3)2,0.286899999999999,-1.8125865505000005,0.101060112666671,0
mp-13803,Nb2Hg2O7,0.4385,-2.1745288639772733,0.0034643604545436,0
mp-764205,Li3V(FeO3)2,1.170799999999999,-2.179821743541666,0.0523210124999842,0
mp-559537,Ca4P6O19,5.3618000000000015,-3.083777311804188,0.0,0
mp-754173,Sm2Cu2O5,0.0,-2.485534921805556,0.0934173926388908,0
mp-763189,Li2CoO3,1.1537,-1.6713672456250002,0.0947718815000007,0
mp-764986,Li4Ni3O6F,0.0,-1.5588681595492864,0.0718663560714309,0
mp-6127,BaCu(Si2O5)2,0.8549000000000001,-3.025036898281249,0.0142194732812503,0
mp-1001117,Mn3N2,0.0,-0.2469286789520012,0.1913595749999963,0
mp-555247,Dy3ReO7,0.0,-3.3848171585227265,0.0414983874242373,0
mp-758270,Li3Ti(PO4)2,0.2103,-2.8186146834183674,0.0792798419200666,0
mp-762819,Li3Fe3(SnO5)2,1.9362,-2.022262447361112,0.0705926786111117,0
mp-999052,Ti2MnAl,0.051099999999999,-0.2475575958333333,0.0746870621875013,0
mp-781767,Li3Fe2(CuO4)2,0.0,-1.578358649333333,0.0664894907916684,0
mp-989541,Rb2NaSbF6,4.124899999999999,-2.9071839617140003,0.0,0
mp-20536,CoSn,0.0,-0.1004345641666664,0.0,0
mp-8923,Sr2LiFe2N3,0.0,-0.6690182783924996,0.0,0
mp-505309,Si2P2Pt,0.476599999999999,-0.3436201409880958,0.1242937755833333,0
mp-764701,Li8Mn5O10,0.4652,-2.0516813951,0.0330897623913033,0
mp-683891,MnSb6(Pb2S7)2,0.447,-0.7402499170750002,0.0081428075999996,0
mp-14889,K9Fe2S7,0.514799999999999,-1.235044537552083,0.0,0
mp-19290,Mn2As2O7,1.248799999999999,-1.9171952382427264,0.0,0
mp-640825,Sr5(InBi3)2,0.0,-0.6677834269230772,0.0,0
mp-763588,LiFe(CO3)2,2.1271,-1.893378684750001,0.0831685965000019,0
mp-226,FeS2,0.4562,-0.9413168543749996,0.0070882966666667,0
mp-560468,Pr3Si2S8Br,2.7496,-1.875649704821429,0.0,0
mp-30535,Li2BeH4,0.0,-0.1304334846876189,0.2327778353571421,0
mp-510404,GdSe,0.0,-1.8417253742968749,0.0,0
mp-722472,C6S3(N3Cl)2,0.501,0.2544668415889704,0.4758536225948733,0
mp-853227,Mn15NiO32,1.1139,-1.698131145924999,0.0420885640364572,0
mp-771717,Mn2O3,0.0,-1.942590337883999,0.0854324438750016,0
mp-541174,K3Cr(HO)6,3.191,-1.6887310968262508,0.006183793437497,0
mp-10405,Yb(AlSi)2,0.0,-0.3176074440000001,0.0,0
mp-777062,Li4Fe3Co3(CuO8)2,0.0,-1.515648228928571,0.0549842863727683,0
mp-2763,Nd2O3,3.8109,-3.76951372375,0.0298022705000011,0
mp-559771,Pr6O11,0.0,-3.258092372720588,0.0510130047058847,0
mp-998433,CsSrBr3,4.4089,-2.035441634,0.0,0
mp-580631,Cs2KTbCl6,5.0878,-2.515457317289333,0.0,0
mp-698329,ZnH16C6(N3O5)2,3.3406,-1.0592685575564098,0.0365871929326928,0
mp-765691,Mn6O5F7,0.0,-2.4573085358522224,0.0397051603472338,0
mp-776852,Li4V2Ni3Sn3O16,1.450799999999999,-1.9483508944642856,0.0895607438690495,0
mp-6368,CsSO2F,4.4107,-2.340646236050501,0.0,0
mp-3589,BPO4,7.2565,-2.782577359960317,0.0,0
mp-568196,Er3CoSi3,0.0,-0.7964148507142852,0.0,0
mp-767553,Li7Sb2S,0.0,-0.8028643684062502,0.0888207271666661,0
mp-1374,Zr5Re24,0.0,-0.2183578337931047,0.0,0
mp-773926,VFe(PO4)2,0.0657,-2.515373338849208,0.0518465114583417,0
mp-29174,SiCl2,2.0151,-1.375334409673333,0.0591657187500001,0
mp-10577,Sr5NbN5,1.1591,-1.0550375953999998,0.0,0
mp-779980,Hf2N2O,2.0281,-2.5438768407020005,0.0061209789999949,0
mp-4860,Gd2CuO4,0.0,-3.038208907857144,0.0242233850000008,0
mp-980053,YbPrAu2,0.0,-0.87354355,0.0010778474999995,0
mp-762648,LiFeSiO4,1.8731,-2.544466930000001,0.0775502235714213,0
mp-565513,FeBi3(MoO6)2,2.5911,-1.9252419016666675,6.295729166616582e-05,0
mp-753842,YZr5O11,0.6757000000000001,-3.723749898014706,0.0843200060882338,0
mp-30606,DyInPd2,0.0,-0.8288410441666665,0.0,0
mp-23179,NiBi3,0.0,-0.0126254325000001,0.0,0
mp-4210,Sm2CuO4,0.0,-3.0367563485714286,0.0066421712500064,0
mp-20565,MnCoGe,0.0,-0.1888691116666656,0.0145960487499996,0
mp-775995,Mn3CrSn2(PO4)6,0.0,-2.434651953373651,0.087863212291662,0
mp-5022,Er(SiRu)2,0.0,-0.9080707690000012,0.0,0
mp-763499,Li2V(CO3)3,2.3544,-2.0521718145833336,0.0623653926666749,0
mp-558760,SrZrS3,0.552,-2.1799908374375008,0.0,0
mp-762904,LiCoSiO4,1.229299999999999,-2.358801611190476,0.0770054223095106,0
mp-30848,USnPt,0.0,-0.4031016616666664,0.083695002222222,0
mp-560246,LiUP(H4O5)2,2.5244,-2.1454424185502496,0.0,0
mp-1020060,LiB(S2O7)2,5.51,-2.0617993468333324,0.0,0
mp-975394,RbBeO3,0.0,-1.0653835217500005,0.7609492979999999,0
mp-29817,GaP2I9,1.7111999999999992,-0.2383118912450396,0.0,0
mp-777443,Li2FeF6,0.0,-2.6677109519044446,0.0348617744444448,0
mp-760165,LiCu2(PO3)5,0.103299999999999,-2.2997818910533123,0.0490010453260838,0
mp-980190,LiYb3,0.0,0.0865046249999998,0.0865046249999998,0
mp-2442,ErAu,0.0,-0.8800174875,0.0170757249999997,0
mp-776720,Li3Mn4(BO3)4,0.0,-2.475359031543769,0.0447739132970816,0
mp-20292,Np(SiRh)2,0.0,-0.5863458177500007,0.0687516012499998,0
mp-604537,MnGaNi2,0.0,-0.2824233029999995,0.0068945869999996,0
mp-769962,Li4TiFe3O8,0.6277,-2.340113633541667,0.0303262506250012,0
mp-631387,SnRuW,0.0,0.5982162633333346,0.7127534760317467,0
mp-3342,ZnPS3,1.98,-0.8048784500565482,0.0250107105000019,0
mp-771596,NbFe5(PO4)6,2.147599999999999,-2.5300301544047605,0.015975813240713,0
mp-13031,MgSe,2.5476,-1.2493156142968749,0.0050649900000001,0
mp-626450,PH3O4,5.6683,-1.9361262717444043,0.0140701328124999,0
mp-1031039,KHfMg6O7,0.0,-2.5969569435833337,0.2591500035833336,0
mp-24064,PHF2,3.7857,-1.7206477397738098,0.1155277673154753,0
mp-975588,PuPtO3,0.0,-1.6163218161250028,0.8536491245000004,0
mp-22528,ThCrB4,0.0,-0.5766409765277771,0.0026988964583347,0
mp-561246,Al2Si2Pb2O9,2.7575,-2.889758693416667,0.0,0
mp-761988,LiNiPO4,3.1407,-2.233579232823129,0.0589752744047658,0
mp-680400,K3Ta2S11,1.676499999999999,-1.3145440941992197,0.0,0
mp-18838,K2MnSO4F3,1.5128,-2.5929099669175004,0.0,0
mp-626864,U(HO2)2,1.672299999999999,-2.5911951796057133,0.0783736096428588,0
mp-694884,KFeH5(SO5)2,0.2983,-1.4356604644065791,0.4288772224671078,0
mp-24954,NaAl6Fe3Si6B3O30F,2.5556,-3.0485427347738003,0.015374309463489,0
mp-979459,Sm5Mg,0.0,0.0098081645833332,0.0442844533333337,0
mp-780918,Li2MnSiO4,2.9646999999999992,-2.6938443573074995,0.0110345821875004,0
mp-5538,YSnPd2,0.0,-0.8724826793749996,0.0,0
mp-29615,Ca(MnBi)2,0.0,0.0496686879999998,0.3653290919999996,0
mp-579128,MoSO6,3.0745,-1.940052428632813,0.0,0
mp-775200,MnNi(PO4)2,0.2797,-2.163835852262539,0.0424700073437493,0
mp-780403,NaCu3O2,1.2689,-0.8946461468749991,0.0508661577083406,0
mp-676990,Ba7(Al3Te8)2,0.0,-0.8743540237931033,0.2695394524137931,0
mp-36699,Ce2Y2O7,1.7347,-3.9254995026136346,0.0393632931818181,0
mp-769840,CoPO4,0.9818999999999992,-2.0853469567658736,0.0575001529166652,0
mp-771365,Li24Ti5Cr7O36,1.175799999999999,-2.5513519188657403,0.0155484430555725,0
mp-6340,LiAl(SiO3)2,5.368399999999999,-3.2105010540000007,0.0335949449722265,0
mp-634809,U(OF)2,1.7567,-3.376363838976,0.3108875480000037,0
mp-12977,Dy2CdPd2,0.0,-0.8131178126666668,0.0,0
mp-15953,P2Rh,0.370499999999999,-0.6479397587301593,0.0,0
mp-560105,K3Ho(SiO3)3,3.7625,-3.1377428397656253,0.0007943170208335,0
mp-977446,NdVGe3,0.0,-0.5005203284999993,0.0055161045156237,0
mp-3967,NaNO,3.384299999999999,-1.1042867991266665,0.0035261184166675,0
mp-12668,Tb2SO2,2.9772000000000003,-3.623853190645834,0.0,0
mp-7810,UVC2,0.0,-0.3829541706250001,0.0,0
mp-974023,In3Cu,0.0,0.15991636125,0.1649531089999993,0
mp-1549,TbPt3,0.0,-1.0038436483333326,0.0,0
mp-762379,Mn3FeCo2(PO4)6,0.0,-2.3010328978180947,0.0468007644444767,0
mp-771386,VBO4,2.6343,-2.460737531944444,0.0681090899999983,0
mp-775620,CoOF,0.0,-1.667574539146666,0.0961609662499993,0
mp-999142,SnO,0.0,-1.200193388124999,0.4439911875000017,0
mp-765731,Mn3OF5,0.0,-2.747050358342223,0.044153926805567,0
mp-553993,SiO2,5.6413,-3.245166349375,0.039546558125,0
mp-765858,Li2Ni3(P2O7)2,3.5965000000000003,-2.2623205330383023,0.0557302554347884,0
mp-21198,DyAgSn,0.0,-0.5957889022222211,0.0,0
mp-722867,Ca3Cu5Si9O26,0.0,-2.75688227017442,0.047108551860461,0
mp-29083,NaErCl4,4.985,-2.52368654134,0.0,0
mp-29644,GeBi4Te7,0.5721,-0.2037934937500001,0.0037361624999991,0
mp-566242,K4W2Cl10O,1.1831,-1.8113183066970595,0.019114503088236,0
mp-978919,Ba3Tb,0.0,0.2214086091666667,0.2214086091666667,0
mp-569568,Ta3AlC2,0.0,-0.5711570733333341,0.0,0
mp-972176,Zr5Al3C,0.0,-0.50633689138889,0.039058891574073,0
mp-1029832,Ca2NbN3,1.7961,-1.2427002732733332,0.0,0
mp-779704,Si(HgO2)2,1.2322,-1.7483820664285707,0.0288658964285719,0
mp-561179,Ba2CuIO2,2.255499999999999,-2.1740039920833336,0.0,0
mp-779792,Fe5(OF4)2,0.939199999999999,-2.4484195781346667,0.1065543146666714,0
mp-982393,Pm2ZnAg,0.0,-0.2876440275000003,0.0,0
mp-763260,LiCoSiO4,1.3669,-2.3524652842857146,0.0833417492142727,0
mp-755685,SmYO3,4.2039,-3.87056708125,0.063438792374999,0
mp-566131,KCrF3,0.7059000000000001,-2.9200748737140003,0.0269896240000013,0
mp-972387,Sr2MgGe2O7,3.6039,-2.829728849895833,0.0,0
mp-766343,Ba2CaI6,3.6188,-1.7084242158333334,0.0375535,0
mp-752666,LiAg2F4,0.0,-1.861445171394286,0.0131456621428562,0
mp-29459,Rb3Mo2Br9,0.9236,-1.1089290482142855,0.0,0
mp-565639,CrHg3O5,1.6543,-1.0685473043055562,0.0485887612962958,0
mp-17921,NbSeOF7,4.514699999999999,-2.7581361573173746,0.0,0
mp-766208,Ba3LiTi5Nb3O21,2.0419,-3.35870346165404,0.0110509107575786,0
mp-560077,AsSXe2(OF3)3,2.1909,-1.7012233922514066,0.0413094424218747,0
mp-685957,Pr3(ZnAs3)2,0.0,-0.5867620218181819,0.2967323715482957,0
mp-773410,In2WO6,2.634,-2.0613078988888893,0.0339196363888891,0
mp-30313,Tb2Se2O7,3.219899999999999,-2.6097417709185606,0.0,0
mp-764044,Mn3OF5,0.24,-2.7360804861200005,0.0551237990277897,0
mp-773443,V3O7,0.0,-2.332746073541666,0.0391321048333299,0
mp-568854,CsReBrCl3,1.1778,-1.3687861369077772,0.0091481277430567,0
mp-6790,Ba2Y(CuO2)4,0.0,-2.047492594166667,0.0,0
mp-763965,V2(OF)3,1.516,-2.660139908206668,0.0165675018750004,0
mp-767310,Li3VPCO7,3.0435,-2.424075299565017,0.0867040110336514,0
mp-685148,Ho2O3,0.0,-1.9261542897500008,2.1258666254999987,0
mp-772959,Er2P4O13,5.477,-3.171929515191103,0.0270826153947378,0
mp-625600,Mo(HO2)2,3.217,-1.7192425317485702,0.0330940955357128,0
mp-772524,LiTi2(PO4)3,2.7607999999999993,-3.0106707634788368,0.0262513983333327,0
mp-22548,Th2CoB10,0.0,-0.6207356743589739,0.0,0