mpid,formula,BG,FE,e_hull,fidelity
mp-13514,NdBO3,5.0609,-3.482027990083334,0.0,0
mp-5702,Cu3SbS4,0.0,-0.5596137164062505,0.0,0
mp-2104,UAs,0.0,-0.7086799375000004,0.0,0
mp-557274,Cu4Si2NiS7,0.0,-0.7553175463169646,0.0242802745392873,0
mp-17435,Zr4Fe4Si7,0.0,-0.7495236450000012,0.0,0
mp-624928,KEu(CuTe2)2,0.0,-0.6737373156249999,0.0103410068750005,0
mp-558142,Cs4Ni3F10,4.9549,-2.564322206288236,0.0,0
mp-18257,Fe7C3,0.0,0.0765157792499991,0.0765157792500002,0
mp-754496,Li5SbS,0.5486999999999991,-0.9750242634375,0.0558382307142859,0
mp-780686,Fe2O3F,0.0,-1.8472126863233331,0.0790314231458317,0
mp-557605,Hg2Pb(SI)2,1.6317,-0.5313295058035717,0.0214061753571424,0
mp-1018142,NbN,0.0,-0.8323871711899997,0.4208640300000006,0
mp-6168,K3Nb2CuSe12,1.255299999999999,-0.7081458960069446,0.0,0
mp-763587,Li4Ti3Mn3(SbO8)2,0.0251,-2.5433031226028584,0.0678698988392723,0
mp-568488,Mo15Se19,0.0,-0.4930484609788599,0.0685923108088237,0
mp-1723,UAl3,0.0,-0.1160900475000001,0.0284567790625001,0
mp-978852,SrGaSnH,0.415099999999999,-0.4860184709049995,0.0,0
mp-555582,C12SeF10,2.7508,-0.878880478064946,0.3162957645720104,0
mp-17722,PrTaO4,3.575099999999999,-3.667885018749999,0.0,0
mp-3633,Er(Al2Fe)4,0.0,-0.4270820811538457,0.0,0
mp-867534,LiAg2F4,0.0,-1.8258953199657144,0.0486955135714275,0
mp-1029161,Te4Mo3WSe4,0.0663,-0.4130294903645837,0.0296405008333335,0
mp-754434,Hf3N4,1.090399999999999,-1.8108916835028557,0.0734483496428577,0
mp-756544,LiLaO2,3.5436,-3.188945528125,0.0164739262499988,0
mp-10212,ScGe2,0.0,-0.5712794199999998,0.0,0
mp-555727,RbTb(PO3)4,5.492,-2.9422724950396835,0.0,0
mp-568790,Ca14GaAs11,0.5969000000000001,-1.139581575769231,0.0,0
mp-680432,Sr10Al6O19,3.6919,-3.3296897136071433,0.0137593452499995,0
mp-30596,Cu11Sb3,0.0,0.0614492539285715,0.061449253928572,0
mp-754213,Li2ZrCuO4,0.0,-2.458010798125,0.0710104375,0
mp-764714,Li3Fe4(BO3)4,1.6829,-2.3874718865942017,0.0293575145652305,0
mp-13072,PrGe3Rh,0.0,-0.7069900650000001,0.0,0
mp-19148,K2Mn2O3,0.4197,-1.7605537250957144,0.0,0
mp-36641,Cd(Ga3Te5)2,0.633599999999999,-0.3377968638235295,0.0039944138039187,0
mp-778642,Fe6O7F5,0.0,-2.0755576305388885,0.0869797031597237,0
mp-705334,Li2V(PO3)5,2.1267,-2.656231549748965,0.0384342353623186,0
mp-571250,TaP2Se2Cl5,1.8987,-1.1429490327177974,0.0,0
mp-764878,LiFe2(BO3)2,1.6772999999999991,-2.3591903893939388,0.0568929472159345,0
mp-23270,Th3Bi4,0.092299999999999,-0.6196628942857144,0.0,0
mp-2691,CdSe,3.5799,-0.627389596796875,0.0,0
mp-775925,Li8Sb7S19,0.0,-0.9001705369761029,0.0693929559287918,0
mp-13041,Yb2C(NO)2,0.0,-1.6597321763942867,0.4252744239628594,0
mp-770143,LiMnV(PO4)3,0.9245,-2.519989748624761,0.0426711647222184,0
mp-770347,TbNiO3,0.0,-2.358982643416668,0.0425595024999987,0
mp-756347,Y2Pt2O7,1.4572,-2.455860788977273,0.0,0
mp-771008,Ba3(BrO)2,2.472,-2.597004694464286,0.0447337166071388,0
mp-15002,Sr2CaIrO6,0.0,-2.5577228377500005,0.0,0
mp-1027492,MoSeS,0.6666000000000001,-0.9740723508854168,0.0139379183333332,0
mp-11368,Er5Ga3,0.0,-0.4741516725000001,0.0,0
mp-762283,LiCo(CO3)2,0.766899999999999,-1.7659932952500002,0.0495896881500037,0
mp-17942,MgNi2P,0.0,-0.5632360220238093,0.0,0
mp-865517,YZnRh2,0.0,-0.6177095268750001,0.0031357841666652,0
mp-34982,Ag3AuS2,0.3886,-0.2472171263541671,0.0402720733333352,0
mp-705854,CaP3H10NO12,5.119,-1.960056173532064,0.0536251981481488,0
mp-767417,K2AlPCO7,4.9518,-2.606558476195437,0.0316759042866126,0
mp-755805,Sc(CuO2)2,0.0,-1.990863719285714,0.0054560516964352,0
mp-639736,Rb,0.0,0.061283435,0.061283435,0
mp-27662,CsI2Br,1.9762,-0.9354159893749998,0.0,0
mp-754184,ErAlO3,3.5517,-3.711496613750001,0.0857022627500043,0
mp-567197,YSnAu,0.0,-0.8322535624999995,0.0,0
mp-8986,Ba2GdC2(O2F)3,3.0692,-3.204758514897858,0.0,0
mp-777942,Ba14Na8CaN6,0.0,-0.3844176046303446,0.003761827733991,0
mp-1426,Sm2Fe17,0.0,0.0161126618421037,0.0161126618421043,0
mp-540146,MnPO4,1.0778,-2.376442936509207,0.0813857462500085,0
mp-776840,Li3FeF5,3.4968,-2.98384142205,0.0493566625000001,0
mp-504644,KCeF4,0.0,-3.92563271246,0.0,0
mp-756393,Er2Nb2O7,0.0,-3.415490072613637,0.093787742032795,0
mp-569508,Pr6Cd4Pd13,0.0,-0.7295971939130436,0.0,0
mp-34022,Mg2SnO4,2.5338,-2.685405769285714,0.0,0
mp-10554,Ca3TlN,0.0,-0.7031985254760003,0.0146376573333295,0
mp-676361,Li3ErCl6,5.2109,-2.3388234507893326,0.0,0
mp-18490,Sr2SmNb(CuO4)2,0.0,-2.7182963787500003,0.017764162455359,0
mp-24618,AlH10N2OF5,6.1343,-1.7943442663505262,0.0,0
mp-761783,Li5Co2Cu3O10,0.0,-1.5313462916249996,0.0581982325000005,0
mp-778473,Gd3SbO7,2.525899999999999,-3.3578426210227263,0.0162561084090882,0
mp-30248,LiMoS2,1.028699999999999,-1.3130434220312504,0.0219371972916659,0
mp-1029257,Zn2ReN3,0.0,-0.0826172853566665,0.0,0
mp-21562,Sm3InSe6,0.709299999999999,-1.5475068024062502,0.0055344387083335,0
mp-7473,LiCu2Si,0.0,-0.2263257224999999,0.0,0
mp-777461,Li4V3Cr2Sn3O16,1.3282,-2.314049846607143,0.0456030244196767,0
mp-30753,LaPd5,0.0,-0.5770741450000004,0.0,0
mp-2396,HoCo2,0.0,-0.222103465,0.0,0
mp-1014379,Cr3N4,0.0,-0.4929338792171417,0.0765837003742841,0
mp-1029255,Te6MoW3Se2,0.310999999999999,-0.2239914830989574,0.0363696404166669,0
mp-505543,Lu2CoB6,0.0,-0.6500783536111112,0.0,0
mp-821,NbO2,0.426,-2.907868634791668,0.0049398960416855,0
mp-889,Cr3B4,0.0,-0.4646348895238087,0.0186932535714294,0
mp-11859,La(SiAu)2,0.0,-0.6537468079999996,0.0,0
mp-560417,SnO2,0.5726,-1.9919261475000003,0.1329286616666669,0
mp-777255,LiFeBO3,2.6311,-2.3627027722916667,0.0486831152777753,0
mp-762693,Li3TiFe3O8,2.110999999999999,-2.2977803237777783,0.0829984376666672,0
mp-764383,MnFeCo(PO4)3,0.5416999999999991,-2.320229678069207,0.0226028213889009,0
mp-556298,SiH12C2(NF3)2,6.8492,-1.445623846971304,0.0314451372826116,0
mp-767945,Mg7Co17O32,0.0,-1.7576212898214283,0.0646066704166674,0
mp-30526,Mn4Al19,0.0,-0.183547412536231,0.0133145335507238,0
mp-3499,MnSbPd2,0.0,-0.3261265487499996,0.0143035200000003,0
mp-568532,CuB2(CN)8,0.895999999999999,0.1857608030329824,0.495680250827367,0
mp-6761,NaTi2(PO4)3,2.4429,-3.0404455901455028,0.0,0
mp-761802,Mn2Cr3Co3O16,0.0,-1.5768070863299986,0.0803802064583454,0
mp-859134,LiMnPO4,3.182099999999999,-2.585510079507891,0.0646481474999998,0
mp-758635,UH12S2O15,2.203,-1.8457726940104997,0.0139145949166623,0
mp-510378,CsMnSb,0.0,-0.1139440600000002,0.1910727304166668,0
mp-28149,Bi9I2,0.0,-0.0790313340909085,0.0380638953030301,0
mp-540644,Sn4SI6,1.264499999999999,-0.5502228008238635,0.0005368597727275,0
mp-862871,PbCl2,3.0963,-1.5470042721733333,0.0,0
mp-5498,Ca(MnAs)2,0.0,-0.4665290599999992,0.0797128071071435,0
mp-12410,Ba2TbIrO6,0.0,-2.7814413890833336,0.0,0
mp-21077,LaNiGe2,0.0,-0.7705273912499989,0.0,0
mp-20139,Mn3Ge,0.0,-0.0253716087499995,0.0865267675000005,0
mp-28875,Hg2P3Cl,1.1288,-0.2773060262576194,0.0022764101190473,0
mp-771749,NiSn3(PO4)4,0.6127,-2.28057095655754,0.1066524733333285,0
mp-770973,Li24MnCr11O36,1.001599999999999,-2.2350958718883325,0.0193634823611112,0
mp-765320,Li2Fe(CO3)2,4.0751,-2.0443300079545463,0.0,0
mp-758536,KAl2P2H4O11,0.7236,-2.401606944221024,0.0881399743645836,0
mp-626046,H7NO6,3.2664,-1.2046757885871426,0.0597821803571445,0
mp-24956,ErFeO3,1.5703,-2.9771746722500017,0.0026997123749996,0
mp-999473,ZnN,0.0,0.5099386063100004,0.5368453400199993,0
mp-866010,CaCdAu2,0.0,-0.56504553625,0.0,0
mp-5223,GdAlO3,3.2382,-3.702378382250002,0.0088015729999977,0
mp-978960,Sm3Tm,0.0,0.0195107481249996,0.0195107481249996,0
mp-571583,CdI2,2.3623,-0.5910905326666664,0.0010464658888891,0
mp-774146,W(BrO)2,0.892699999999999,-1.3215979044999997,0.0681409359999989,0
mp-765530,Li2VF4,2.7339,-3.070263842822857,0.0334858857142856,0
mp-1020714,Y4AlSiNO8,3.7659,-3.561212045992001,0.0139750872416701,0
mp-982981,Na3Rh,0.0,0.3610900249999997,0.3610900249999997,0
mp-571579,CdI2,2.4388,-0.5920399326666667,9.70658888888032e-05,0
mp-30541,Nb(NiP4)4,0.0,-0.3180838378344673,0.0099324625623582,0
mp-1009834,Al2Ru,0.0,-0.6835343383333333,0.0326994716666666,0
mp-669555,KC(NO2)3,1.7084,-0.8064273054218186,0.4808558186906034,0
mp-10598,CuSn,0.0,-0.0263857249999999,0.0,0
mp-778756,LiVBO3,2.2229,-2.4698710742361114,0.0847753376388915,0
mp-754761,Sr2HfO4,3.868,-3.613543825,0.0063708775000002,0
mp-559724,Ta4S9Br8,1.2976,-1.1131882407886908,0.0,0
mp-764207,Li4Fe3CoO8,1.759099999999999,-1.9929139425000004,0.0121043415624999,0
mp-704943,Li2Mn3ZnO8,1.5421,-2.022678993955715,0.0,0
mp-605252,DyGaCo,0.0,-0.494996280555555,0.0,0
mp-27666,IrCl3,1.8911,-0.9275559561949996,0.0,0
mp-560262,Zn(InS2)2,0.1307,-0.9505294030357144,0.056789174107144,0
mp-753960,Li2H2SeO5,3.9349,-1.7009317282083742,0.0208159185833336,0
mp-16487,Ce(MnAl2)4,0.0,-0.3277930023076917,0.0,0
mp-779074,Li8Mn7Fe(BO3)8,2.8964,-2.5073530787511102,0.0056478892013869,0
mp-647629,YbMoClO4,0.0,-2.3234792126085706,0.1182358371428575,0
mp-1009020,KCuO,0.0,-0.3771179070833329,0.8552255983333326,0
mp-9486,K2AlF5,6.3239,-3.5345890426187494,0.0,0
mp-765267,Li3Fe(BO3)2,2.4444,-2.5128642154861107,0.0132290345833281,0
mp-1029044,Te2MoW3(SeS2)2,0.0,-0.762717172786458,0.0766727958333355,0
mp-559118,CsTa(PO4)2,3.3899999999999992,-2.9776001271825394,0.0,0
mp-769774,Rb3FeO3,1.9968,-1.668237756607143,0.0,0
mp-21041,Tb(FeP3)4,0.0,-0.5965220012044817,0.0,0
mp-556496,Sr10Al4Si6O,0.0,-0.649823781964286,0.0152754039285718,0
mp-1019519,Ba2NaO,0.0,-1.4629952490625002,0.0,0
mp-11871,HoNi,0.0,-0.4711624187499997,0.0,0
mp-698647,LiVO2,0.080899999999999,-2.4586548040625007,0.0302134965625038,0
mp-540550,NaH2ClO5,5.2933,-1.2017778060277768,0.0095993911111129,0
mp-767455,SrLiLa3FeO8,0.9437,-3.1415433935714288,0.0110537299999968,0
mp-753671,PNO,5.0655,-1.498245957241746,0.0,0
mp-17667,Sr3AlSb3,0.5371,-0.8792949299999998,0.0,0
mp-21742,Ba5AlIr2O11,0.0,-2.56182454625,0.0,0
mp-567070,LiMoAsO6,2.4743,-1.988254090555556,0.0231552354166693,0
mp-570592,Tb4CdCo,0.0,-0.243139238472222,0.0,0
mp-778890,Li3MnV(PO4)3,0.2989,-2.618501263012285,0.0666668985624658,0
mp-722262,CaB3H3O7,5.7435,-2.539767703722144,0.0,0
mp-8380,K2Si4O9,4.6244,-3.0527457884166664,0.0306159006666675,0
mp-2152,YNi5,0.0,-0.3237252687499996,0.0,0
mp-540628,Al(TeCl2)2,1.3285,-1.3453579395414283,0.0,0
mp-862372,Sc2RuRh,0.0,-0.8111842737500004,0.0,0
mp-771796,Mn3CuO8,0.0,-1.4592669885733338,0.074267970572917,0
mp-762457,LiFePO4,3.592899999999999,-2.50694154829932,0.0446354014285708,0
mp-867739,Nb3GeS6,0.0,-1.3804374754375004,0.0,0
mp-865194,TmF3,5.3727,-4.143477059642501,0.0,0
mp-570108,ThC2,0.0,0.0702445450000001,0.3225948766666669,0
mp-17429,KHfPdF7,0.6668000000000001,-3.1634174073329997,0.0,0
mp-607031,V2PbO6,2.256499999999999,-2.196162460000002,0.0284776336110965,0
mp-2828,HfN,0.0,-1.9402507586900004,0.0,0
mp-559756,PrScO3,4.2587,-3.89664124925,0.0,0
mp-143,Tm,0.0,0.0,0.0,0
mp-760637,LiBiP2O7,3.707,-2.5063611277218625,0.0545276091666684,0
mp-10010,Al(CoSi)2,0.0,-0.5368441919999996,0.0,0
mp-777389,LiFeF3,3.0524,-2.8165397157140006,0.098512677999996,0
mp-616228,Te4WCl6,0.0,-0.8429116813236361,0.023539298636356,0
mp-850970,Co2O3F,0.0,-1.3627332283233329,0.0880159027083333,0
mp-9848,PrP5,0.0,-0.5369224159126986,0.0,0
mp-23313,InBi,0.0,-0.0101316849999997,0.0,0
mp-778072,Ba2Y5F19,6.1194,-4.3135859448119245,0.1003058027884646,0
mp-3496,S3(NO)2,1.6922,-0.7543089142067855,0.1693189650819029,0
mp-561108,Y(IO3)3,3.5241,-1.4850926635576929,0.0120876992307685,0
mp-766953,LiVF4,0.0,-3.1966589257933333,0.0320639808333247,0
mp-2303,DyZn,0.0,-0.3409284008333335,0.0,0
mp-16313,TbSbPt,0.0981,-1.2217490294444449,0.0,0
mp-1019549,BaMg2Si2O7,4.5563,-3.3142781596875004,0.0,0
mp-29266,CsS,1.7141,-1.28350972703125,0.0,0
mp-565669,Cr2AgBiO8,1.487999999999999,-1.5128392604166656,0.0078242658809628,0
mp-776281,Zr2N2O,1.5861,-2.3471493874519997,0.0061557327500008,0
mp-31138,MnPd3,0.0,-0.2270470899999992,0.0,0
mp-39,Tl,0.0,0.000258585,0.000258585,0
mp-760414,Ti3PdO,0.0,-1.45780622125,0.0,0
mp-540182,LiVP2O7,2.1508,-2.73060452590368,0.0143424890909047,0
mp-1001843,HoP,0.0,-1.06958153654762,0.5470431049999993,0
mp-754483,Na3(CuO2)2,0.0,-1.3489812911111108,0.0437430433333343,0
mp-555439,CsLi3F4,6.7384,-3.0401558637200004,0.06663516375,0
mp-9056,ZrPdF6,0.9909,-3.0390606471425,0.0063936788541685,0
mp-505363,P3Pd7,0.0,-0.473671683928572,0.0,0
mp-2250,ZrNi2,0.0,-0.4081500833333334,0.0466277849999992,0
mp-3108,Lu(SiRh)2,0.0,-1.0944097660000012,0.0,0
mp-9028,PrBN2,2.1062,-1.5009386391066666,0.0,0
mp-770248,LiMnPCO7,0.9401,-2.1944620500277487,0.0286908928598519,0
mp-754217,SmIO,3.5519,-2.944023934583333,0.0,0
mp-761311,Li4MnSi2O7,3.653,-2.7754541171221425,0.0115749342857158,0
mp-13592,TlB(CN)4,5.2178,0.0620152653813335,0.3666858462323344,0
mp-18730,K3Na(FeO4)2,1.3601,-1.4937209867857146,0.0250034846428635,0
mp-23321,Sr4Cl6O,4.558899999999999,-2.961396439619091,0.0,0
mp-505046,Gd3Sb5O12,2.7146,-2.64136251475,0.0,0
mp-19449,NaVCdO4,3.0267,-2.144066867142858,0.0,0
mp-585241,LiBi2(PO4)3,0.5196000000000001,-2.3160613031547617,0.0584588645601842,0
mp-5734,Ce(SiPt)2,0.0,-1.0048475780000004,0.0926985930000006,0
mp-779064,Li4FeOF5,3.0088,-2.8483594333818183,0.0969572923737382,0
mp-766973,Li8Mn(FeO4)3,0.0,-1.9518008631649988,0.0710755568750007,0
mp-568512,Ba6Mg23,0.0,-0.0724181951724137,0.0,0
mp-754455,Sc2O3,4.053,-3.8975423787500008,0.0865210587499998,0
mp-707905,PH7N2O3,4.5874,-1.2495666219765569,0.0500660277884588,0
mp-15839,NdSbPt,0.0,-1.114207355833334,0.0,0
mp-767590,Li2V(CO3)2,3.020899999999999,-2.1136221347727284,0.0760863372443223,0
mp-761739,LiCoSnO4,0.7692999999999991,-1.8621940321428576,0.0710336192857052,0
mp-772686,Ga2(WO4)3,4.220499999999999,-2.119810303529411,0.0926278302941217,0
mp-541832,Ba2SnS4,1.9550999999999992,-1.797880098750001,0.0,0
mp-15919,BeAgPO4,2.6504,-2.3950061581802733,0.0,0
mp-574266,MgGa,0.0,-0.1419822193749995,0.0,0
mp-755588,Ho2TeO6,2.5187999999999993,-2.988972284166666,0.0611188083333313,0
mp-634418,NaCaSiHO4,4.4923,-2.8141275960774994,0.0,0
mp-694891,KRb2Mo(OF)3,3.0236,-2.5713823522320007,0.0066066004642841,0
mp-1008223,CaSe,3.1581,-1.7591396942968751,0.2583348399999998,0
mp-772680,Li4Co5NiO12,0.0,-1.5061504875000005,0.0651013087499903,0
mp-772416,Li2Ti3Sn(PO4)6,2.5061,-2.912419574821429,0.0021200452083371,0
mp-572632,Mn2V2O7,1.456799999999999,-2.331692166879092,0.0040177868181583,0
mp-863736,Ho2OsAu,0.0,-0.5068124512500001,0.0,0
mp-556238,CuC3(OF)3,2.789,-1.4743636217320002,0.1529729830624999,0
mp-631526,SiBPb,0.0,1.4135359877777771,1.4316656536111112,0
mp-10850,SbTePd,0.0,-0.3716634808333327,0.4546241447809534,0
mp-22767,ThGa4Co,0.0,-0.4852644308333337,0.0,0
mp-36225,Na3ZrF7,6.1421,-3.5243998353027273,0.014360771818179,0
mp-569501,LiCaBi,0.5790000000000001,-0.7932259108333334,0.0,0
mp-989584,Ca6Sn2NO,0.0,-1.3366451263630004,0.0,0
mp-556169,YSeO3F,4.2667,-2.814562483088958,0.0,0
mp-12365,KThCuS3,2.0422,-1.8096018136979168,0.0,0
mp-771800,MnSn3(PO4)4,0.729599999999999,-2.40093037534754,0.0718384687499655,0
mp-773244,Al3Cr3(SbO8)2,0.2662,-2.2880345500000003,0.1231539411111066,0
mp-611033,SrRuO3,0.0,-1.6525469837500004,0.5514492664999979,0
mp-33312,Nd2UTe4,0.0,-1.126252747142857,0.0666018488095225,0
mp-504871,SrV2CuO7,0.664899999999999,-2.3560674273863627,0.0165569428977336,0
mp-999079,Ti2AlCu,0.0,-0.0536926308333338,0.2372906768749976,0
mp-28835,LiScI3,0.0,-1.121340566,0.0478355430400001,0
mp-2730,HgTe,0.0,-0.16859844,0.0,0
mp-690674,NdAsSe,0.1853,-1.4537876536979166,0.0,0
mp-767162,Li2Mn3O4F3,1.0405,-2.415463390120833,0.0895770432812463,0
mp-19231,Mn(SbO2)2,1.634199999999999,-1.8657427858514288,0.0,0
mp-972175,Zn3In,0.0,0.1101278012500002,0.1101278012500002,0
mp-27033,Li2SnP2O7,3.9316,-2.571057365203373,0.0171699760416608,0
mp-22488,Co2C,0.0,0.1100817074999997,0.1100817075000044,0
mp-10177,LaSb,0.0,-1.0400002925000005,0.224102395,0
mp-764397,Li3V2(O2F)2,0.8928,-2.6875131670345453,0.0730661129924108,0
mp-722904,Na5P3H2O11,0.3476,-2.3140053081083685,0.1514536321428599,0
mp-557715,Cd(AuF6)2,1.8022,-1.498045035952,0.0,0
mp-2932,Y2Si4Mo3,0.0,-0.6692632422222226,0.0,0
mp-8251,VP4,0.0,-0.3476284744761912,0.0218597157619049,0
mp-752474,NbOF2,0.0,-3.0035540434074997,0.1557175129583292,0
mp-24589,K2HBrO,3.5292,-1.6763176589739994,0.0,0
mp-769635,Li2VCrO4,1.3192,-2.4386493181249995,0.0067971981250014,0
mp-776354,Mn3SbO8,0.0,-1.7847234381566668,0.0958748324652791,0
mp-27475,WSCl4,1.9711,-1.3047484728504175,0.0019454444583324,0
mp-972042,Zn3Cu,0.0,-0.0642499662499997,0.0012775112500005,0
mp-540416,MnP2O7,0.9913,-2.3897123168400483,0.0080037757499988,0
mp-850109,Li2FeP2O7,3.9051,-2.5735393433283726,0.0529398973611154,0
mp-776721,Ti3V2Sb(PO4)6,0.0284,-2.7963380123214296,0.0560356494444409,0
mp-684747,Bi2O3,1.6863,-1.6176138156874995,0.0360220465624996,0
mp-22271,Cu(AsO2)2,0.428399999999999,-1.4136150385714288,0.0309566071428539,0
mp-765102,LiTi(PO3)4,0.1854,-2.724134700224868,0.0696296520396781,0
mp-636225,KLiNd2(MoO4)4,3.423699999999999,-2.588915002291666,0.0,0
mp-677437,Na3Zr2Si2PO12,4.4153,-3.1484587519047618,0.0179130552499886,0
mp-30621,DySi2Rh3,0.0,-1.0239795694444436,0.0,0
mp-766868,CrCoO4,1.5962,-1.5480414558333326,0.0580186050000026,0
mp-756624,Ba2SrI6,3.9756,-1.749665081944444,0.0211955247222226,0
mp-626587,Al(HO)3,4.8222000000000005,-2.0950335295871434,0.0415809828571429,0
mp-29642,ZrBi2,0.0,-0.2764780016666665,0.0,0
mp-620924,Cs2NaFeF6,3.8015,-3.007062581214,0.0,0
mp-765617,Li4Fe2Cu3Te3O16,0.0,-1.5748028164285717,0.1171750420535753,0
mp-779079,Ti3V2P6WO24,0.0743,-2.817950281904761,0.0344233798611153,0
mp-676296,U(BiO2)4,0.0,-2.038132099999999,0.1627914514102499,0
mp-556060,NdTeBrO3,0.335399999999999,-2.248774558958333,0.0853584799999982,0
mp-707822,H26Os2N12Cl4O9,2.4036,-0.8281355307918867,0.1216257886538114,0
mp-626411,In(HO)3,2.7771999999999992,-1.6297502178014285,0.0,0
mp-705094,Co2As2O5,1.9352,-1.5271834118055554,0.0,0
mp-530331,Al6SnTe10,1.435599999999999,-0.4317590021568629,0.0,0
mp-7573,Co(BW)2,0.0,-0.4560188946666671,0.0,0
mp-865159,Dy2AlZn,0.0,-0.3796356620833339,0.0,0
mp-669456,La2Al3Ge4,0.0,-0.4976900727777781,0.0104235628009261,0
mp-695209,KNb4AsO13,2.435699999999999,-2.794056985986841,0.0,0
mp-763710,Li3Mn4O8,0.7410999999999991,-2.0980911295893327,0.0328290836041684,0
mp-776139,LiVF5,1.866,-3.0242502558499997,0.0889965857142911,0
mp-976010,Li3Cr,0.0,0.3843933975000001,0.3843933975000001,0
mp-555172,K3Nd3(PS4)4,2.4204,-1.5048025830723442,0.0,0
mp-605486,ScTl(MoO4)2,3.6563,-2.4076030102083323,0.0109422468749968,0
mp-22857,CrCl2,0.7019000000000001,-1.326634400506667,0.0620718198148164,0
mp-973935,OsN2,0.0,0.0490383167466674,0.0490383167466674,0
mp-17929,RbHo2Cu3S5,1.478199999999999,-1.5482693759375004,0.0,0
mp-553966,Li(CuO)2,0.0,-1.2334516580000006,0.0120155309999985,0
mp-2793,AuSe,0.262399999999999,-0.1009542217968748,0.0,0
mp-568306,Mg5Si6,0.0,0.0394912299999997,0.1208323994444473,0
mp-768582,Na3BiBPO7,3.6301,-2.433800228731685,0.0206729069755242,0
mp-27690,Sr3Zr2O7,3.0929,-3.543085441979167,0.0386672187499979,0
mp-972275,Ti2ReRu,0.0,-0.5716793583333342,0.0120549850000006,0
mp-445,NdCo2,0.0,-0.0356362824999993,0.0235022205357129,0
mp-768000,Li2Cr(CO3)2,3.381,-2.078582714318181,0.0681662433522785,0
mp-20296,In2Co,0.0,0.0195961175000001,0.0474189858333389,0
mp-24160,BH3NF3,7.7194,-2.0185691571533333,0.0,0
mp-753690,Li4H3BrO3,4.4379,-1.8072019826918189,0.0,0
mp-37381,SmOF,5.4397,-4.16474383998,0.0561119816666746,0
mp-707020,H10S(NO)4,5.1317,-0.9180642527517104,0.1236285195698245,0
mp-25044,LiMnAsO4,1.6879,-2.091075114779998,0.0,0
mp-569628,CaCdAu,0.0,-0.622927554166667,0.0,0
mp-9274,Rb3Sb2Au3,1.222,-0.4660550175,0.0,0
mp-977413,HoCdHg2,0.0,-0.3592006724999999,0.0,0
mp-863657,PmCl2,0.0,-2.33482550634,0.0196271663888882,0
mp-674187,Ba(IrO3)2,0.0,-1.7166341752777785,0.0,0
mp-12661,Cd3In,0.0,0.01391871625,0.01391871625,0
mp-765253,MnF4,0.7666000000000001,-2.3274725991440004,0.0778679027500102,0
mp-765798,Li2CoNiO4,0.0,-1.5579342631250004,0.0243715916666573,0
mp-640470,Pu2InPt2,0.0,0.1277092832500002,0.6930943550616444,0
mp-31983,Mn(SeO3)2,1.289699999999999,-1.4378627861830553,0.0,0
mp-780597,V2(OF)3,0.9809,-2.6469512865400007,0.0326262986805554,0
mp-770748,Gd3TaO7,2.6961,-3.808104825113635,0.0075099438636314,0
mp-21491,Y3GaCo3,0.0,-0.3414867467857141,0.0,0