mpid,formula,BG,FE,e_hull,fidelity
mp-542022,Sc2MnB2Rh5,0.0,-0.7513763698333321,0.0,0
mp-615537,PdC2ClO2,0.095,-0.7680865972100008,0.3413327198611116,0
mp-769972,Li2FePCO7,2.4432,-2.3420127874454355,0.0145610349479099,0
mp-639306,CeBC,0.0,-0.3953235048888881,0.0269049216388888,0
mp-676653,Lu4Hf3O12,4.5947000000000005,-4.106602180263158,0.0,0
mp-30884,YZn3,0.0,-0.3663089756249995,0.0,0
mp-625557,Cd(HO)2,1.245499999999999,-1.2064067149479996,0.1866992010000014,0
mp-555556,SiO2,5.6138,-3.275486431458333,0.0092264760416664,0
mp-22268,ZrPRu,0.0,-1.12382891436508,0.0,0
mp-567185,SnHg6(As2Br3)2,1.3643,-0.3592655445588235,0.0,0
mp-19496,KV2SbO8,2.7796,-2.258623161875001,0.0,0
mp-565597,Cu3P4S4I3,1.630199999999999,-0.409366460616497,0.0,0
mp-753649,LiZrPCO7,4.1552,-2.770993184940477,0.0527554724999976,0
mp-549590,RbClO2,2.3707,-1.1940631814400002,0.2718705787500006,0
mp-771414,Li4NbCo3O8,0.1905,-2.0784004975,0.0663686793750004,0
mp-8742,DyCoSi2,0.0,-0.7865297354166669,0.0,0
mp-504741,Hf(FeSi)2,0.0,-0.6597918890000003,0.0,0
mp-771210,Li3CrFe3O8,0.0,-2.049323773333333,0.04739171651853,0
mp-634676,KHS,3.2295,-1.0488968408941666,0.0,0
mp-703527,H2CN2,4.8561,-0.199337535899999,0.0895223138653351,0
mp-24045,AlP(H2O3)2,5.4239,-2.240950505839603,0.0236988162499978,0
mp-774586,Nb3Sb(PO4)6,1.1879,-2.771687490105041,0.0,0
mp-735521,MnH6(OF)3,1.509199999999999,-1.8270868559615383,0.0,0
mp-1027692,MoSe2,1.1384,-0.6700275873958338,0.0,0
mp-762857,LiFePO5,0.0,-2.2421834380431545,0.0977623649218797,0
mp-617257,WO2,0.0,-1.8298908250000008,0.2022977641666656,0
mp-571443,SrMgIn3,0.0,-0.3175149719999997,0.0005301260000001,0
mp-770497,Fe3CoNi2(PO4)6,0.0,-2.1707593213492067,0.0518870620486122,0
mp-778458,Li3Cu2(SO4)3,0.0,-1.962593430609376,0.0414990084374977,0
mp-574458,Zr21Re25,0.0,-0.3493318183695647,0.0,0
mp-850400,Na3(NiO2)2,0.0,-1.1669313383333335,0.074230956180564,0
mp-554542,Mg3B(OF)3,5.4165,-3.4398325218986656,0.0,0
mp-30307,DyBiRh,0.0,-0.7459184594444458,0.0,0
mp-1019527,Ba3Y2(B2O5)3,4.5196,-3.3082250187019233,0.0,0
mp-8184,Li2ZnGeO4,3.1053,-2.2372423406249995,0.0,0
mp-25607,NiSnH12(OF)6,3.6544,-1.7763636962723075,0.0,0
mp-17062,Dy2Si2O7,4.6278,-3.680533047689394,0.003359684090908,0
mp-557043,Ba2Nd2Ti2Cu2O11,0.0,-3.0384155280043865,0.0201688186842083,0
mp-759667,Li2Sn(BO3)2,3.2075,-2.5219684764393944,0.058055368181817,0
mp-1018747,LaSbTe,0.0,-1.2720412483333334,0.0528752385416666,0
mp-761021,Li3Cu(TeO3)4,0.429199999999999,-1.59160210075,0.1006969770312435,0
mp-763594,LiCoSiO4,0.7974000000000001,-2.340128568928572,0.0956784645714146,0
mp-767659,Li3MnFe3O8,0.324,-1.987628761397333,0.0692194370000001,0
mp-1852,UF5,0.7489,-3.891276331825,0.0,0
mp-5508,Th(SiPd)2,0.0,-0.9490099959999996,0.0,0
mp-631558,Hf2BiB,0.0,1.0190297470833336,1.464266680624999,0
mp-561,Nb3Se4,0.0,-0.8617348691964283,0.0,0
mp-1092,HoHg,0.0,-0.4804121824999998,0.0,0
mp-14650,Nd10Se19,0.2941,-1.6855375828717676,0.0,0
mp-1008673,TmCd2,0.0,0.1280809899999999,0.4180872333333336,0
mp-23161,NpCl4,0.0,-2.0541464243579997,0.0,0
mp-1003735,MgMn2O4,1.192399999999999,-2.3029688509885724,0.0382803164285645,0
mp-673244,Bi2O3,0.9078,-1.5434581047499996,0.1101777574999998,0
mp-631311,IrOsW,0.0,0.607405015,0.8088685566666651,0
mp-567296,CdI2,2.321799999999999,-0.5907651238888888,0.0013718746666666,0
mp-775524,Li2V3FeO8,1.246399999999999,-2.3741007007142865,0.0312282946577013,0
mp-767071,Li2Co(CO3)2,2.8048,-1.9302659484090912,0.0759638781818123,0
mp-2301,NiP3,0.0,-0.3033394554464284,0.0,0
mp-1030119,MoWS4,1.1949,-1.283212302708333,0.0017997975000003,0
mp-1005690,Sm2Co12P7,0.0,-0.7691588372222213,0.0,0
mp-771078,Li3FeBO5,0.4643,-2.1857816760416653,0.0966924167812512,0
mp-765656,Na5V7O14,0.220799999999999,-2.3766873504807697,0.0277106439423047,0
mp-1027545,Te4Mo3W(SeS)2,0.0,-0.5238126646093756,0.0949011391666676,0
mp-1172,MgRh,0.0,-0.4672153349999997,0.0,0
mp-696193,NiH2(SN)4,0.9638999999999992,-0.2500073316372725,0.191650030894948,0
mp-6023,Tl2Sn(AsS3)2,0.9788999999999992,-0.6680977635795458,0.0,0
mp-709031,Al4P4H11C3NO18,1.029,-1.99427715023368,0.1559193077874576,0
mp-601211,SbH12C5N3Cl4,1.3255,-0.4456728637448004,0.2464628862999998,0
mp-707881,GeH12(NF2)4,2.4704,-1.4332326847992003,0.0746427929730435,0
mp-2027,HfCo,0.0,-0.3960268224999997,0.0030468250000001,0
mp-647004,TiBrO,0.0,-1.312057731805557,1.077633625833335,0
mp-581165,Cs2Xe(BrF7)4,2.9129,-1.4902914962377145,0.0014040670000001,0
mp-1011375,CeSe2,0.0,-1.4594577790625003,0.1701539412499997,0
mp-28408,KTcCl3,1.6961,-1.4998956804560002,0.051268510499999,0
mp-770755,Li3CrO3,1.0049,-2.1939404666071427,0.0651486610714302,0
mp-566253,VCuSe2O7,0.3361,-1.4984774528124982,0.0096864790909112,0
mp-1013541,Sr3SbAs,0.0,-0.443047022,0.6179244410833338,0
mp-1029059,Te4MoW3(SeS)2,0.006199999999999,-0.4627592071093751,0.0871163389583351,0
mp-22918,PuCl3,0.0,-2.3354982266637503,0.0,0
mp-11610,PrCo4B,0.0,-0.1894285844444449,0.0111360816666703,0
mp-861714,Li2VCrP2(O4F)2,2.0339,-2.8068766242856555,0.0001667914583434,0
mp-554610,PrZr2F11,5.7572,-4.171601991292143,0.0,0
mp-18036,Th(NiP)2,0.0,-1.0461903192380944,0.0,0
mp-772,TmSi2,0.0,-0.4731902399999998,0.0699735933333336,0
mp-865140,MnGaRu2,0.0,-0.2540062299999999,0.0,0
mp-743879,CrP2H15N2O11,3.7788,-1.5819339167419504,0.0215786757258067,0
mp-20136,BaPb,0.0,-0.5822825974999999,0.0,0
mp-5489,LuTaO4,4.3138,-3.773387455,0.0,0
mp-13211,Ag2Te2O7,0.0,-1.1173442348863636,0.0,0
mp-863697,LiPm2Si,0.0,-0.3574027112499998,0.0,0
mp-568031,GaHg2SbCl4,0.8072,-1.0474901300675,0.00065247578125,0
mp-556430,TeS2(NCl)2,1.9841,-0.4061496356292856,0.1689647313480646,0
mp-11372,ErSn3,0.0,-0.3734561550000004,0.0546053974999996,0
mp-759602,Sb4O5F2,2.8185,-1.9702429839663624,0.0428121717045462,0
mp-867927,LiVIr2,0.0,-0.4775132900000001,0.0,0
mp-21560,CuAs2PbO7,0.4521,-1.5809743928409097,0.0258842097727143,0
mp-568662,BaCl2,5.4309,-2.9534946255066665,0.0,0
mp-570311,K4Sr2SnAs4,0.5377000000000001,-0.6822859753030301,0.0,0
mp-25579,YMo3O8,1.2228,-2.439860486875,0.1106008087499983,0
mp-17650,KGaS2,2.5331,-1.3814040620312509,0.0,0
mp-975611,Ge3B,0.0,0.9948726095833332,0.9948726095833332,0
mp-567002,KMoIO6,3.0051,-1.6876469919444443,0.0,0
mp-10898,ScAlNi2,0.0,-0.6250170974999998,0.0,0
mp-662,NiSe,0.0,-0.2360401717968745,0.0481703591666669,0
mp-10931,HoSF,1.299599999999999,-3.374311486750834,0.0,0
mp-773925,Li4V3NiO8,0.9832,-2.2762920881250004,0.08314803111978,0
mp-558854,NbFeF6,0.0,-2.9652950796425004,0.109358868104171,0
mp-767106,Li5Mn5O9F,0.7522000000000001,-2.202138709612001,0.0426981964999999,0
mp-29145,H3N,4.328699999999999,-0.5416122183100001,0.0,0
mp-568896,La(AlBr4)3,2.6083,-1.3728987045833334,0.0,0
mp-762473,TaCrO4,1.9662,-2.8806133741666664,0.0733429099999742,0
mp-849513,Fe2Sb(PO4)3,2.229,-2.3826929360714284,0.0291458684722494,0
mp-636654,LaTiNbBi2O9,1.7236,-2.8543169044940475,0.039788796785718,0
mp-676629,Sm2Th8O19,2.8412,-4.270210400301723,0.0291461013362042,0
mp-13920,Ba(ZnSn)2,0.0,-0.4066530270000001,0.0,0
mp-561357,TiNb3Cl7O2,0.0,-2.0966360413066663,0.0,0
mp-866302,BaNaP3H3(NO2)3,4.822,-1.993435487340336,0.0,0
mp-775682,Na9Li7V16O48,3.056,-2.4001967526875005,0.0126527638749998,0
mp-1480,BaSi6,0.0,-0.0821198750000005,0.0716854035714282,0
mp-765839,CoRe2(H2O3)4,2.987199999999999,-1.6922495188678262,0.0,0
mp-771221,Li4MnCr5O12,0.072799999999999,-2.2149637220890908,0.0861983065909131,0
mp-776323,Li2V5NiO12,0.7702,-2.2448522257500017,0.1050513144583344,0
mp-690551,Li4Mo3O8,1.822,-2.1424700766666667,0.058740175000004,0
mp-10450,PrAlGe,0.0,-0.6868659899999999,0.0,0
mp-555591,SrLiAlF6,7.1824,-3.8710517996822222,0.0262473261111102,0
mp-771496,Li2V3WO8,1.5147,-2.374903492142857,0.0491075567857759,0
mp-566869,KNa3WO5,3.593,-2.1331293311249997,0.0037475082499991,0
mp-11309,NbCd3,0.0,0.1460388062500004,0.1460388062500004,0
mp-775081,LiNbCrO4,0.0,-2.569963527857143,0.0804243028571356,0
mp-556940,MgSiO3,3.8758,-3.1376484469999997,0.112961976500002,0
mp-3098,AlCuO2,1.8148,-2.428611514375,0.0004073012499992,0
mp-1514,UB2,0.0,-0.577324767777777,0.0,0
mp-767735,Li12VCr3P4(CO7)4,1.9836999999999991,-2.4058842220650187,0.0780166060096139,0
mp-707532,NaH8SeNO6,3.8639,-1.2736295698490443,0.0801398836490614,0
mp-11753,Lu7(TePd)2,0.0,-0.8356131681818181,0.0,0
mp-432,NbRu,0.0,-0.1681181224999992,0.0,0
mp-2684,TbGa2,0.0,-0.6542923711111115,0.0,0
mp-778983,Li6MnV3(PO4)6,0.1364,-2.6842494002382864,0.0318316695000122,0
mp-754060,Li7BiO6,1.8489,-1.9790653344642857,0.0121090764285716,0
mp-567824,K2NaCo(CN)6,4.3382,-0.2842331740174995,0.0840075469921881,0
mp-698576,Ti3Fe5O12,1.2325,-2.55718840275,0.0256684010384677,0
mp-913,CdP2,1.4533,-0.1292012278968256,0.0,0
mp-560144,K2RuBr5NO,1.6301,-1.062543540113,0.0,0
mp-27924,TbBr,0.0,-1.2282732566666663,0.0118658297222236,0
mp-865797,LuCo2Sn,0.0,-0.31920333375,0.0,0
mp-27422,CsBiF6,2.8234,-2.5706663652675004,0.0,0
mp-9640,SrCu(SeO3)2,0.407899999999999,-1.7414376679687509,0.0,0
mp-12777,AlCu3,0.0,-0.1646098299999989,0.02443272,0
mp-1031367,KLiMg6O7,0.0,-2.3651106112500004,0.4218191971666654,0
mp-995192,RbBaSiHO4,3.907799999999999,-2.7252778854525,0.0191541347569428,0
mp-763061,LiNiPO4,3.1413,-2.2183703368707484,0.0741841703571468,0
mp-567348,TmInPd2,0.0,-0.8543644424999997,0.0,0
mp-16287,NdRh3C,0.0,-0.3904536750000005,0.0119393798333335,0
mp-771865,Li2Cr2SnO6,3.1686,-2.2515336193181814,0.0751750118181888,0
mp-23763,SnH8(NCl3)2,2.3166,-1.0525006528399998,0.0,0
mp-761350,Ni5Sb(PO4)6,0.0,-1.994785320376984,0.0767584573437503,0
mp-30531,Ta2Se8I,0.0,-0.5276835953409086,0.0,0
mp-28156,NaGdCl4,2.47,-2.510954754673333,0.0,0
mp-556031,Sn2P2O7,3.6278,-2.3752213054491342,0.0115871045454509,0
mp-846,Hf2Al3,0.0,-0.4244058259999995,0.0039895059999999,0
mp-763951,VO2F,1.1068,-2.4126101396725,0.0675389368750005,0
mp-530728,Sc11Nb3O24,2.5343,-3.7283235859210513,0.0180081148684205,0
mp-25145,VO2,1.074399999999999,-2.437985584166666,0.0462886499999974,0
mp-766988,Li2VSi2O7,1.7176,-2.8381210186458325,0.0648409454166545,0
mp-972510,SmTmRh2,0.0,-0.8335791081249999,0.0247685675000006,0
mp-558506,BH9(CO)3,5.7751,-0.8489322831560422,0.1726556247656248,0
mp-776362,Zr2N2O,1.577299999999999,-2.346478764452,0.0068263557500003,0
mp-981393,Lu2HgAu,0.0,-0.6706329699999998,0.0120942925,0
mp-627418,Ge7H18O23,2.946,-1.606489476643959,0.0919641075520836,0
mp-733613,H6AuBrN2,3.7314,-0.5416277561480001,0.0306142589206652,0
mp-675926,LiBH4,5.6480999999999995,-0.3611924935244441,0.0714630316666649,0
mp-862287,BeAlRh2,0.0,-0.8689125412500003,0.0,0
mp-641191,U2Tl2Mo3O16,2.3226,-2.500894422608694,0.0031982282971014,0
mp-989568,Cs2NaMgF6,0.0,-2.9924636362140005,0.0,0
mp-22274,HoTiSi,0.0,-0.6590176438888887,0.0,0
mp-2183,ThSe,0.0,-1.547138634296874,0.0,0
mp-771199,V3FeO8,0.390199999999999,-2.2881841083333327,0.0398297800000051,0
mp-766951,Li3VF8,1.9215,-2.960432455793334,0.0925206866666661,0
mp-11692,Ba3(SiAs2)2,0.8267000000000001,-0.8052962266666666,0.0,0
mp-541510,W2Se17Cl12,0.0,-0.5889899525875406,0.0259107428679432,0
mp-1031308,KMg6BO8,0.0,-2.3012818235416668,0.6634138268749998,0
mp-554891,RbCoF3,0.0,-2.661735148047333,0.0,0
mp-5588,BaSiF6,7.4159,-3.860751720892501,0.0,0
mp-978513,SmErMg2,0.0,-0.0814196743750002,0.0028718749999998,0
mp-1890,BMo,0.0,-0.4923181820833325,0.0,0
mp-755461,Dy3TaO7,3.397399999999999,-3.860480683068184,0.0237709954545426,0
mp-753497,Li3TiS3,0.0,-1.5913337669791667,0.0838035600000015,0
mp-761811,V2Co(HO2)4,2.051,-1.8359865001319997,0.0069924224999908,0
mp-863372,LiCu2F6,0.0,-2.090349088571111,0.0215769022222227,0
mp-18926,La3Ni2O7,0.0,-2.7401351440624997,0.0160446258333335,0
mp-850446,Li3Fe4(BO3)4,1.7144,-2.3895281028985504,0.0273012982608831,0
mp-753669,Hf(MnSn)6,0.0,-0.064670881923077,0.0,0
mp-989640,YTcN3,0.0,-0.8056273399280002,0.0210029761906653,0
mp-605437,FeHO2,1.9678,-1.6865158621549998,0.0138999028125006,0
mp-776733,Li3VF6,2.5067,-3.1792824379640003,0.044318724583328,0
mp-20792,Ca2InPd2,0.0,-0.7226664870000008,0.0,0
mp-510075,Cs7Au5O2,0.803199999999999,-0.7276964080357143,0.0,0
mp-777864,Li2MnF4,4.059699999999999,-3.045049659031428,0.0528810303571436,0
mp-774390,Mn3SbO8,0.863799999999999,-1.7850723631566665,0.0955259074652792,0
mp-684721,TiNb2Zn(PbO3)4,0.229699999999999,-2.361844911833333,0.0402206859166671,0
mp-756216,EuSeO4,0.0,-2.089982627265625,0.0294965200000012,0
mp-722455,RbLi2(H2N)3,1.9381,-0.6177133861549997,0.0059592147916651,0
mp-627397,In2Se,0.0,-0.2441210970312498,0.1067969591666671,0
mp-705295,LiNiP2O7,0.008,-2.2081922574945896,0.0992859240719719,0
mp-569770,Si(H3C)2,3.5723000000000003,-0.2863102621355564,0.050882751481482,0
mp-764331,LiVSi4(HO6)2,1.7726,-2.691154102362,0.0979833743750004,0
mp-849805,B12H21C4S2I,4.2795,-0.3194901092911259,0.0,0
mp-645340,Nd(BO2)3,5.254899999999999,-3.1914895878125003,0.0,0
mp-972099,YbMg3,0.0,-0.0273468174999997,0.047462939374999,0
mp-2658,AlFe,0.0,-0.3304594550000006,0.0,0
mp-1029322,Te3MoWS,0.0,-0.4065009273437508,0.0711236881249979,0
mp-973830,KErO3,0.0,-2.3458549897500007,0.2454735275833331,0
mp-23911,MgH20S2(NO7)2,5.2087,-1.5065177209688458,0.0018071399999985,0
mp-36053,SiPN3,3.7652,-0.8766957515470479,0.023618230833331,0
mp-569515,Hg3C2(N2Cl)2,1.7705,-0.0678008216854541,0.2371981998163645,0
mp-769685,Li2NiBO4,1.297699999999999,-1.9844834689583333,0.0781565944531283,0
mp-766467,LiCuS,1.2911,-0.925265384965278,0.0361036682638884,0
mp-767260,Li4MnNi3(PO4)4,2.9959,-2.3782878419050353,0.0036675952679523,0
mp-767364,Li2Mn2Si2O7,2.6963,-2.6664712081284616,0.0792693649038414,0
mp-1004524,HPbI3,0.0,0.2335697122759999,0.6615423262500002,0
mp-30784,Mg2Zn11,0.0,-0.0589325001282051,0.0,0
mp-4913,LiGa2Rh,0.0,-0.5487813274999995,0.0,0
mp-753572,Li2Cu3F8,0.115399999999999,-2.1915736003476924,0.0436681984615381,0
mp-677335,GaPO4,4.6909,-2.60822838218254,0.0,0
mp-864889,ZrZn3,0.0,-0.2802966737500005,0.0,0
mp-759870,BiOF,2.904599999999999,-2.18852082373,0.0540522470833328,0
mp-571613,CdI2,2.3903,-0.5916918313888888,0.0004451671666665,0
mp-25686,LaCrHO5,2.5218,-2.4265765909212496,0.0,0
mp-1030459,Te2Mo2SeS,0.025299999999999,-0.5723678012760421,0.0569121091666655,0
mp-17088,KBaPS4,2.3898,-1.5686974009778918,0.0,0
mp-567114,Sr(BiPd)2,0.0,-0.5942081600000002,0.0,0
mp-1703,YbZn,0.0,-0.3305931124999997,0.0,0
mp-18433,NdTaO4,3.6099,-3.68198949625,0.0153935941666674,0
mp-754625,SrTaNO2,1.0762,-2.7484695144760014,0.0181612979999794,0
mp-3570,NdPPd,0.0,-1.2441430651984131,0.0,0
mp-680116,CdI2,2.3523,-0.5906944319047621,0.0014425666507937,0
mp-4668,K(CoSe)2,0.0,-0.4790148574374996,0.0256902897500008,0
mp-568769,LaCo2,0.0,-0.0416161766666659,0.0290117952173902,0
mp-9993,Al2CdS4,2.4641,-1.3311148673214288,0.0200144042857139,0
mp-31125,Zr2Cr4Si5,0.0,-0.5467234068181829,0.0223939745454515,0
mp-540256,NiPO4,1.1558,-1.8179747475992063,0.1368082888541604,0
mp-569265,Mg3Pt,0.0,-0.5715598675,0.0208197229166651,0
mp-763380,Li4Mn7O16,1.047399999999999,-1.9425645561748144,0.0622370390740778,0
mp-743614,MoH2Cl2O3,2.6258,-1.5261461978137498,0.0040272689983957,0
mp-767698,Li12MnNi3P4(CO7)4,2.735999999999999,-2.299444071506556,0.044932398461543,0
mp-767152,Ba3Fe3O8,0.0,-2.3286850371428565,0.0306465574574303,0
mp-2832,Cr2Se3,0.0,-0.5210640321562494,0.0003664480000002,0
mp-779976,Fe3(OF2)2,0.9697,-2.33483375414,0.0982334955555526,0
mp-21297,LiSn4Ru,0.0,-0.2547123491666667,0.0,0
mp-1282,VC,0.0,-0.4100693887500011,0.088383057152777,0
mp-16765,Zr2Te2P,0.0,-1.1163586676190476,0.0,0
mp-28420,SrH4O3,4.3444,-1.88501223477875,0.0036800949999893,0
mp-541038,U(MoO4)2,0.0,-2.586636855227273,0.0564790624999993,0
mp-4595,VFe2Si,0.0,-0.4764134100000002,0.0,0
mp-30365,BeAu,0.0,-0.1265811124999998,0.0,0
mp-978882,SnBi3,0.0,0.1379543650000001,0.1379543650000001,0
mp-773179,Li2TiCo3O8,0.0,-2.0041485651190483,0.0414401385714091,0
mp-705305,V(PO3)3,1.9532999999999991,-2.595037966195056,0.0683243476923056,0
mp-770413,LaHoO3,4.024699999999999,-3.88835898575,0.0805325382500008,0
mp-778661,LiCu5(PO4)2,0.29,-1.6453582178869048,0.1053641448437501,0
mp-762490,LiFeP2O7,2.575199999999999,-2.5334145563582253,0.0541509595454545,0
mp-704600,LiTi4Mn(PO4)6,0.0,-2.9910352037832806,0.0033116555120127,0
mp-24362,CuH6CN2O3,0.5795,-0.9565274748253844,0.0579818225061554,0
mp-4324,Tm2CdS4,1.1768,-2.058167417321429,0.0,0
mp-559747,La2Ti2SiO9,2.6201,-3.693123773541666,0.0023274863392863,0
mp-1028857,MoWSe3S,0.685999999999999,-0.7633860433072913,0.0274482000000011,0
mp-554631,Sb2(PO4)3,0.0574,-2.328729365105042,0.0239388965441049,0
mp-763984,Na3VO3,0.1871,-1.9343587573214296,0.0664868510714278,0
mp-542654,RbIn3S5,1.1735,-1.1017726378124992,0.0012220556944448,0
mp-32316,Li2NiGe3O8,3.0431,-2.087047727678571,0.0,0
mp-771932,Li2V2SiGeO10,2.1096,-2.4864433579687493,0.046270544375,0
mp-8405,Li3LaSb2,0.203899999999999,-0.8798354333333336,0.0,0
mp-999355,NbN,0.0,-0.8720895311899994,0.3811616700000009,0
mp-554527,H12C4INO3,3.9587,-0.4360345560509524,0.3811969613690476,0
mp-9881,KAuSe,1.8159999999999992,-0.7473532611979165,0.0,0
mp-558674,K2NaFeF6,4.0922,-3.021760171213999,0.0,0
mp-977444,PaAgAu2,0.0,-0.2867303899999998,0.0,0
mp-21104,Hf5Sn3,0.0,-0.379484705624999,0.0,0
mp-567207,SrIn4,0.0,-0.2929057439999997,0.0,0
mp-769581,Li4Mn3Cr2Co3O16,0.0,-1.9037804601028567,0.0520398880952264,0
mp-392,U3Sb4,0.0,-0.2565726928571418,0.0,0
mp-1027072,Te2MoWSeS,0.155999999999999,-0.496217137109376,0.0948780883333339,0
mp-5052,TiCdO3,2.4319,-2.6576928100833337,0.0385193919999986,0
mp-15039,Ba2Yb(CuO2)4,0.0,-1.920977351333332,0.008466097714292,0
mp-674334,Ca2SiO4,4.3743,-3.3591221628571435,0.1282102521428578,0
mp-570203,MnCoSb,0.0,-0.1119354791666656,0.0,0
mp-23733,Cu3H2(CO4)2,0.1766,-1.3661778988159994,0.0068250358333354,0
mp-999338,NdAu,0.0,-0.8136072037500002,0.0,0
mp-561549,K2Be2(Si2O5)3,4.83,-3.163472308949999,0.0,0
mp-549695,GdBi2ClO4,0.8529,-2.4392664622825,0.0,0
mp-776913,Li2FeWO6,0.0,-2.04023042875,0.0799830926875015,0
mp-3018,Nd(MnSi)2,0.0,-0.5693249014999993,0.0,0
mp-756063,RbNbO3,2.8197,-2.831228652750001,0.0243334525000005,0
mp-684911,Sm2Te3,0.9168,-1.4172802152500013,0.0,0
mp-16053,CuSiO3,0.102999999999999,-2.2536569007500007,0.0985270820000066,0
mp-569344,Zr(CoSi)2,0.0,-0.8048714019999992,0.0,0
mp-27780,TcCl4,0.782899999999999,-1.1441700031080004,0.0,0
mp-19569,AgMoPO6,2.0962,-2.0356225690939147,0.0,0
mp-569005,MoCl4,0.0,-1.285575240608,0.0046453313888887,0
mp-866037,GaNiRh2,0.0,-0.3367920150000003,0.0053781824999994,0
mp-8667,CeB2C,0.0,-0.5271793877083345,0.0,0
mp-697821,Sm6Fe6As6O5F,0.0,-1.7936765967683332,0.1693514008333343,0
mp-541938,Nb6Co16Si7,0.0,-0.5438573689655166,0.0,0
mp-687081,YbCoO3,0.0,-2.2345635122500007,0.0,0
mp-975222,RbSr3,0.0,0.1343047224999998,0.1343047224999998,0
mp-27617,Ce2SeF4,0.0,-3.7323180690505353,0.0,0
mp-27747,PdI2,0.9333999999999992,-0.2497023483333335,0.0,0
mp-672684,Zn6Sb5,0.0,0.1876292509090912,0.2121008560227317,0
mp-33775,La5AgSe8,1.4229,-1.8113674691964288,0.0177577551785725,0
mp-674159,Rb2CrCl4,0.526999999999999,-1.8963052197200003,0.0,0
mp-768025,LiNiPO4,3.6784,-2.2369225947278912,0.0556319125000035,0
mp-760134,NbSb3O8,1.817899999999999,-2.1918843479166674,0.0049218368750052,0
mp-30334,Th2Al7,0.0,-0.3382535533333326,0.0197271388888884,0
mp-675993,Zr2N2O,1.6587,-2.353305120202001,0.0,0
mp-20987,YZnSn,0.0,-0.5997246550000005,0.0,0
mp-974758,Rb3Tl,0.0,0.0579834937500001,0.1130333634090909,0
mp-758007,Ba2CaP4(H3O8)2,5.4657,-2.608061135313826,0.0,0
mp-973056,Na2CdHg,0.0,-0.1550139687500001,0.0126322243572694,0
mp-571309,Nd12C6I17,0.0,-1.1519342192857145,0.0,0
mp-1027170,Te2MoWSeS,0.195,-0.4958043479427089,0.0952908775000009,0
mp-764765,Li4Nb3Ni3(SbO8)2,0.0,-2.1607012860714288,0.1335476866964366,0
mp-866156,YGaRh2,0.0,-0.7904555956250006,0.0,0
mp-18880,ErVO4,2.7173,-3.190846518333332,0.0358132916666669,0
mp-1468,P4S3,2.8693,-0.4346125133312079,0.0,0
mp-763065,FeOF,0.9505,-2.239862919702224,0.040821026111109,0
mp-1018063,ErH3,0.0,-0.6394331877149999,0.0,0
mp-20542,Pr(MnGe)2,0.0,-0.4512255580000002,0.0,0
mp-753063,Li3CuF6,0.668999999999999,-2.616214795214,0.0005061058333346,0
mp-763502,K4Li5(FeO4)2,0.013999999999999,-1.843223375526316,0.0507282799013131,0
mp-569225,Mo6PbI14,1.842999999999999,-0.4343237855952375,0.0,0