mpid,formula,BG,FE,e_hull,fidelity
mp-30732,HoTlPd,0.0,-0.6560911599999995,0.0,0
mp-505299,Ho2Mo4O15,3.3221,-2.603649233273808,0.0,0
mp-569580,NaLa4I7N2,2.833799999999999,-1.6476406260542855,0.0,0
mp-762896,LiFe4(PO4)3,2.211899999999999,-2.329320555714286,0.126942332500012,0
mp-995224,CO2,5.2707,-1.4865321495833328,0.2971678445833374,0
mp-744187,Na2Ni4Mo4(HO4)5,0.0,-1.4326829928028582,0.2482979787142883,0
mp-720263,CuH4SeO5,0.0,-1.2488529949385232,0.0118665546590914,0
mp-15669,Ti3Te4,0.0,-0.7190119585714295,0.0,0
mp-776732,Li2Fe3F8,3.0509,-2.7966344553476925,0.0775213530769241,0
mp-1267,NaC,3.3846,0.2274577406249998,0.2274577406249998,0
mp-765850,NaV2O5,0.9284999999999992,-2.4210980129687503,0.0059506884373936,0
mp-997092,AuClO2,0.8944000000000001,-0.27109620394,0.2818316840000006,0
mp-764630,Cr3(CuO6)2,0.117699999999999,-1.3025602705882358,0.0537572509558819,0
mp-680553,Sm3Sn13Rh4,0.0,-0.5647055638749997,0.0,0
mp-1213,NdSb,0.0,-0.92947575125,0.258714715,0
mp-976129,PrErZn2,0.0,-0.31004927125,0.0173578675000003,0
mp-977534,ZrNbTc2,0.0,-0.3591247150000001,0.0,0
mp-973612,Hf9CoMo4,0.0,-0.1747673646428568,0.0,0
mp-557787,TlSbO3,2.4363,-1.7284027932500003,0.0002024115000285,0
mp-16687,Ti5Sb2Rh,0.0,-0.5132769954166667,0.0334710949999959,0
mp-779491,BaP4O11,5.0699,-2.7723486399144344,0.0198152778125004,0
mp-1371,Sn3Pd,0.0,-0.288937480625,0.0042868362500003,0
mp-675792,Ga2HgTe4,0.2227,-0.2584696067857141,0.0395864503571434,0
mp-31311,Ga9Ir2,0.0,-0.2958721281818179,0.0,0
mp-605347,HgTe(H2O3)2,2.0783,-1.2358382470400011,0.0557419139236108,0
mp-763227,LiMnF4,1.280299999999999,-2.880227833175556,0.0700284711111001,0
mp-541462,SrTa4O11,3.5237,-3.4531471086718746,0.0,0
mp-777717,Li4MnF7,1.9009,-3.043685845774166,0.025181117916663,0
mp-1009792,RuC,0.6642,0.4549719387499991,0.4549719387499991,0
mp-767649,Li2VF6,2.004299999999999,-3.120313873571112,0.044401533333346,0
mp-603694,Si3N4,0.0,-0.5700581527885709,0.7423166592857138,0
mp-556122,BaCa(PO3)4,5.5237,-3.00941282832672,0.0,0
mp-566933,CrP2Pb5O13,2.1529,-2.1096625749971647,0.0,0
mp-1030614,Te6Mo3WSe2,0.3473,-0.3003562530989576,0.0424442291666675,0
mp-766073,Li3V3P8O29,1.1247,-2.529525918163068,0.0576282858430268,0
mp-776647,LiV4O5F7,0.6176,-2.7827989099752943,0.0705614067646926,0
mp-850401,Li2FeOF3,2.3404,-2.750943848188572,0.0597651790873063,0
mp-554389,Ta3(BiS3)2,0.0,-1.2559274135795455,0.0,0
mp-779968,Li2V4CrCuO12,0.6000000000000001,-2.2277961377500004,0.0986053934999953,0
mp-557993,BiO2,1.1596,-1.4735691741666663,0.0,0
mp-21381,ThPb3,0.0,-0.2242233750000002,0.0,0
mp-941221,Li(BH)5,4.9946,-0.3354698845242426,0.0,0
mp-763202,Li4CoO4,0.9940999999999992,-1.7878719933333331,0.0900677999259293,0
mp-757150,Li5BiS4,1.560899999999999,-1.2830652941250005,0.0749431694999973,0
mp-644409,LiAlPHO5,5.728999999999999,-2.7678257642183595,0.0010333021296302,0
mp-849511,VO2,0.5491,-2.4355400154999995,0.0487342186666648,0
mp-22234,Eu2C(NO)2,0.0,-1.90933567068,0.0,0
mp-1003764,K3Mn4O8,0.404199999999999,-1.9699967334226656,0.0,0
mp-17801,Hf2CuGe4,0.0,-0.4395303721428568,0.0,0
mp-762072,LiNiPO4,2.8542,-2.19777055454932,0.0947839526785747,0
mp-767112,Li4Mn3OF11,0.8136,-2.8596458469589474,0.0562813132236765,0
mp-772271,LuWO4,1.9631,-3.0038783833333333,0.0201317245833294,0
mp-772822,Li3Cu3TeO8,0.0,-1.4826944919999998,0.0762838479999965,0
mp-756468,CaY2O4,3.1247,-3.719366555,0.0758443692857131,0
mp-5497,Er(CoGe)2,0.0,-0.6008468529999987,0.0,0
mp-781686,Co3(OF2)2,0.373599999999999,-1.887286296917778,0.0851067913888874,0
mp-764665,Li5Fe8(BO3)8,1.5546,-2.3733097509629637,0.044788882486114,0
mp-761341,TiVO4,1.1814,-2.9715259911111125,0.0300266162499802,0
mp-754613,K2ErPCO7,4.4968,-2.81069693327877,0.0203153504166735,0
mp-675106,TmPaO4,3.203199999999999,2.021526505000001,5.780767559270835,0
mp-627591,Fe2SiS4,0.0,-0.7079620812500015,0.2554358732142852,0
mp-2977,CuAgTe2,0.0,-0.00227024,0.0529962809374988,0
mp-20238,Th(FeGe)2,0.0,-0.4885044339999993,0.0,0
mp-17830,Rb3Ge4Au,0.9193,-0.2675807043749998,0.0,0
mp-1009127,MgO,2.2549,-2.316974690625,0.7482596350000001,0
mp-505131,LiVCuO4,0.2597,-1.9664923207142857,0.0478613014285747,0
mp-560560,CdSiO3,2.573,-2.5607788467500003,0.0,0
mp-556821,RbEu(SO4)2,0.0,-2.510226647760416,0.0,0
mp-780454,SrCa2I6,3.7009,-1.6272740413888889,0.0368308294444448,0
mp-567933,FeCN2,0.0,0.0473304869350013,0.2038189900300011,0
mp-757945,LiSnPO4,3.5738,-2.434664277227892,0.0514683923809533,0
mp-760251,Na2CuP2O7,0.522799999999999,-2.36680050999504,0.0331464595833361,0
mp-862956,PmSnAu2,0.0,-0.6950831306249992,0.0,0
mp-5957,EuTaO4,0.0,-3.3679284083333343,0.0,0
mp-1263,URu3,0.0,-0.3186852562499993,0.0,0
mp-769895,TaFeO4,2.1364,-2.73790919625,0.0308946345833334,0
mp-753714,Li3CuS2,2.4626,-1.191274986354167,0.0697899226041665,0
mp-19698,RbV3O8,2.0696,-2.381689439583333,0.0,0
mp-770518,Li4Ti3Mn3(CoO8)2,0.7553000000000001,-2.423487395817144,0.060856771827142,0
mp-24834,H4N2O3,3.2767,-0.9154263301933332,0.1495142158824371,0
mp-559959,Rb2CoF4,0.0,-2.6451340449657144,0.0831692516666615,0
mp-766991,Li4Si3(NiO5)2,3.532799999999999,-2.514318533289474,0.0353791710526394,0
mp-10661,Tm,0.0,0.1405828299999996,0.1405828299999996,0
mp-760304,Li2Cu2F7,0.038999999999999,-2.209940367575454,0.0963409336363634,0
mp-644003,BaCo2P2H2O9,2.8682,-2.3515990602925294,0.0075888257812088,0
mp-22707,EuAgSb,0.0,-0.7274744550000006,0.0,0
mp-571333,Ca5(SiN3)2,2.1605,-1.3175633403292306,0.0,0
mp-972539,Sm3Er,0.0,0.016268594375,0.016268594375,0
mp-744472,CrH14N4Cl3O,3.1829,-0.9308379761404338,0.0,0
mp-768915,Na3AuO3,1.823699999999999,-1.3849413366071437,0.0,0
mp-10499,LiZr2(PO4)3,4.2387999999999995,-3.189933936210318,0.0,0
mp-20751,Pu(CuSi)2,0.0,-0.4125276293749991,0.0,0
mp-766912,LiVF6,3.1853,-2.9847702202675013,0.0042193943749992,0
mp-13063,Tb2O3,4.1342,-3.9457814300833336,0.05618686625,0
mp-8611,Li8CeO6,2.5162,-2.4454589791666668,0.0022509806666679,0
mp-645130,Pr4MgCo,0.0,-0.0779956133333333,0.0,0
mp-11051,NaSn,0.342899999999999,-0.2219273031249997,0.0,0
mp-31070,As8S9,1.7164,-0.4821783930330885,0.0018481086764712,0
mp-778861,LiV2OF5,1.1189,-3.0441678824666667,0.0569836827777807,0
mp-569779,ScSbPd,0.2783,-1.0407736150000002,0.0,0
mp-754368,NaSbO2,1.460999999999999,-1.871806759375,0.0004019679999984,0
mp-649595,CaMgSiO4,4.6952,-3.319189687142857,0.0584978510714302,0
mp-569458,AlV4C3,0.0,-0.5036547384375005,0.0055683319730395,0
mp-303,BaZn5,0.0,-0.2142946,0.0,0
mp-1842,NbAl3,0.0,-0.4238901674999997,0.0,0
mp-765945,Li2Mn4OF8,2.0591,-2.837924205640666,0.0694359840000009,0
mp-626085,Si2H2O5,4.5416,-2.515221013721111,0.1381987558333328,0
mp-541754,TiCu2Te3,0.0,-0.4115311477777777,0.0,0
mp-600111,SiO2,5.5173,-3.268583120364583,0.0161297871354157,0
mp-975103,RbMgPO4,4.5457,-2.9216452061564624,0.0059843232142871,0
mp-540460,Cr4(PO4)3,0.6865999999999991,-2.4732626644360898,0.0397363006579123,0
mp-336,SmCo2,0.0,-0.0897469325,0.0,0
mp-17291,Na3SiTe3,1.923599999999999,-0.6777735610714285,0.0,0
mp-867169,Sr2SnHg,0.2697,-0.65639553125,0.0,0
mp-8153,NaHgPO4,1.438,-2.127738940442176,0.0,0
mp-616559,Ti2S,0.0,-1.3095010763541666,0.0,0
mp-777258,Ba3YF9,6.227799999999999,-4.2086566587084615,0.0727989549999978,0
mp-20840,MnCo2Sn,0.0,-0.1042423137499986,0.0,0
mp-3348,LiBIr,0.0,-0.5039243530555547,0.0,0
mp-328,Zr2Ni,0.0,-0.3226203666666668,0.0,0
mp-721463,K2P2H2O7,4.7606,-2.3689210967061904,0.0531976721153979,0
mp-567309,KFeF4,3.0627,-2.943092859335,0.0,0
mp-25623,KVBP2HO9,2.036,-2.639918158181809,0.0,0
mp-2443,DyHg,0.0,-0.4809383533333334,0.0,0
mp-777896,Li2V3NiO8,1.647599999999999,-2.253752084642857,0.0385640152976236,0
mp-764004,NaNi2O3,0.0,-1.0943513131249991,0.0148482966666714,0
mp-567809,AgI,1.596,-0.2585257125,0.0251725524999999,0
mp-761118,Ti7Sn3O20,1.524899999999999,-3.047121735222221,0.05351639391667,0
mp-776038,LiFeF4,3.3284,-2.8577886452377776,0.0699581599074159,0
mp-13973,Gd2SeO2,1.3184999999999991,-3.34541459821875,0.0,0
mp-764274,VOF3,3.4012,-2.719781805964,0.0109718834999998,0
mp-765529,Li2MnCoO4,0.0,-1.932205529495,0.0417380425000004,0
mp-14435,K3GeSe3,1.8142,-0.9980542693973214,0.0,0
mp-734123,RbSrP3(HO2)6,5.3296,-2.30661275221764,0.0207134817934777,0
mp-776623,LiV2F7,2.137699999999999,-3.156845154833,0.0707920929999899,0
mp-765544,Li4V3OF11,2.234499999999999,-3.123299458912632,0.0422992628070124,0
mp-557304,Sr2SiCl2O3,5.1218,-3.24040301034625,0.0023152932291656,0
mp-849964,Li2V3CrO8,1.450199999999999,-2.4190221571428556,0.0690586143005607,0
mp-8299,Sr4As2O,1.192399999999999,-1.7130614316071424,0.0,0
mp-8117,Rb(MoS)3,0.0,-1.0874027503125003,0.0,0
mp-1018067,CrFe3,0.0,0.0621984900000001,0.0621984900000001,0
mp-14721,KSiSbO5,2.8079,-2.556763715156249,0.0,0
mp-556989,ZnS,2.0305,-1.1393974453645836,0.0009059091666663,0
mp-22899,LiI,4.2306,-1.1993118049999998,0.0363957049999998,0
mp-772247,LiNbNiO4,1.615999999999999,-2.279121126428572,0.0569041464285433,0
mp-567467,CdH12C4Br3N,3.4554,-0.4215753540073015,0.0889653469841276,0
mp-769739,Li4NbCr(WO6)2,1.8451,-2.4583923812500004,0.0234689586250098,0
mp-778218,MnFe3Sn2(PO4)6,0.0731,-2.391875873320317,0.0782280709722327,0
mp-554702,NaZr2NiF11,5.6362,-3.5600800882060004,0.0,0
mp-1019724,LiEuO2,0.0,-2.754217736874999,0.0,0
mp-558183,MoS2N2Cl5,0.5399,-0.8260912899185001,0.0738307312323325,0
mp-7572,MgSO4,5.4889,-2.534380293177083,0.0,0
mp-561413,Rb2Tb3AlF16,0.0,-3.665095810865455,0.0866367846818194,0
mp-1725,CaZn2,0.0,-0.2919432099999997,0.0,0
mp-676956,Zn8B4H3O15F,3.0045,-2.1219135191118284,0.0159734581048365,0
mp-864672,NbSiTc2,0.0,-0.4118783625000013,0.0,0
mp-637866,Sc9Ni5Ge8,0.0,-0.7686854109090905,0.0536514905681819,0
mp-744,HoP,0.0,-1.616624641547619,0.0,0
mp-777477,LiFeF4,3.1167,-2.8741664778766665,0.053580327268528,0
mp-567948,Rb2Pd(IBr2)2,0.5302,-0.9198124166666668,0.0094860336111115,0
mp-505733,Na4MoO5,2.9246,-2.069098095625,0.0,0
mp-18800,Cr2SiO4,1.9961,-2.495257965714285,0.031321410714284,0
mp-776630,V2O3,0.9127999999999992,-2.46460101175,0.0660027722500018,0
mp-626357,FeHO2,2.1146,-1.5666776284050004,0.1337381365625001,0
mp-767650,Li4Mn2Fe(BO3)4,0.8523000000000001,-2.458176235373333,0.0685971739130675,0
mp-31100,CeIr3,0.0,-0.6060479016666669,0.0,0
mp-22618,Y(CuO2)2,0.0,-2.0753503014285704,0.0002110678571449,0
mp-561725,CsBO2,3.8457,-2.626774103958333,0.0,0
mp-861918,Sc2TlCd,0.0,-0.2906846224999997,0.0,0
mp-773436,NaLi5Fe2P2(CO7)2,4.0042,-2.37027243610348,0.0321239274999998,0
mp-2432,CaMg2,0.0,-0.1082568683333331,0.0,0
mp-2548,PuAs,0.0,-1.0138884959375003,0.0,0
mp-761763,Li2FeCo3O8,0.429699999999999,-1.5681431667857149,0.0673565935491113,0
mp-989536,Cs2LiNF6,2.7068,-1.831206785952,0.0,0
mp-28695,KSiH3,2.5736,-0.222138012672,0.0,0
mp-707931,H3Os4C12ClO12,2.576899999999999,-0.9145947223162504,0.1978682812499981,0
mp-7858,MgUO4,1.6931,-3.475986915833332,0.0,0
mp-21115,CeSi,0.0,-0.6526873887499995,0.0,0
mp-754369,Na4MgO3,1.4967,-1.7868928010937504,0.0702124081249992,0
mp-758418,Tl16O15F17,0.0,-1.5963638815412498,0.0,0
mp-12174,HfNi3,0.0,-0.5370163484999992,0.0,0
mp-755943,CaPbI4,2.6263,-1.0648697541666667,0.0903992824999999,0
mp-20757,MnAlGe,0.0,-0.2019786116666656,0.0,0
mp-568225,TbB4,0.0,-0.6036206610000008,0.0,0
mp-632759,CuH4(OF)2,0.2541,-1.5368383343733332,0.0222770727777756,0
mp-758604,LiAgF2,1.384399999999999,-2.161190759345,0.02816928875,0
mp-766857,LiMn2F7,1.674599999999999,-2.815174336025,0.067539085666656,0
mp-763841,SrLiVPO6,1.9488,-2.8557379368095246,0.0741510609166651,0
mp-31194,Li13(Ga7Cu2)3,0.0,-0.2780717699999997,0.0,0
mp-18919,CoPdO2,0.0,-1.1042957056249998,0.0,0
mp-616539,FeC3SeO3,0.2956,-0.5560138202929688,0.5579029266666673,0
mp-11666,Pr2(Zn2Ge)3,0.0,-0.4178922259090912,0.0,0
mp-755757,Li2Sn(BO3)2,2.3637,-2.4849488859848488,0.0950749586363626,0
mp-978280,Mg3Ga,0.0,-0.0613067424999997,0.0437168187500018,0
mp-1025923,Te2Mo2WS4,0.0,-0.8750868995833332,0.0716701094444438,0
mp-21688,Fe7S8,0.0228,-0.7167539330555555,0.1490888087777726,0
mp-567644,RbCu2Br3,1.6366,-0.7859130824999999,0.0,0
mp-998398,InSnBr3,1.1056,-0.7334959650000001,0.0157464319999998,0
mp-8878,Sr(BO2)2,6.3751,-3.1046005095238103,0.0340092559523963,0
mp-775226,LiMn2(BO3)2,0.568199999999999,-2.43883745002303,0.0732397168181773,0
mp-764212,Li2VO3F,2.5305,-2.5647462210628573,0.0860330017857089,0
mp-624130,Rb4V5CdClO15,2.3192,-2.3563783702696157,0.0,0
mp-761952,Li5Sb(P2O7)2,4.290500000000001,-2.6041192310367065,0.0500406206597281,0
mp-1030297,TeMoWSe2S,0.0,-0.6334520052083334,0.0575127291666675,0
mp-1033679,RbHfMg6O7,0.0,-2.591381701583333,0.2647252455833335,0
mp-643253,Ba2H6Pt,1.7507,-0.641944876857778,0.0,0
mp-567666,Ba3BiN,0.6466000000000001,-0.8516742784760005,0.0,0
mp-760403,CaCd3O4,0.1919,-1.87778481625,0.0,0
mp-613402,SrZrO3,0.0,-1.1491883747500005,2.530374468999998,0
mp-217,ErTl,0.0,-0.304621085,0.0026568049999999,0
mp-763882,Li2VCrP2(O4F)2,2.0115,-2.8058120228273213,0.0012313929166776,0
mp-1713,CsCd13,0.0,-0.0643336632142858,0.0,0
mp-28334,Tl4SiSe4,1.4648,-0.4637509552083334,0.0,0
mp-626201,H5ClO6,5.3999,-1.0604843342800006,0.0024429286458245,0
mp-541240,Sb3O2F5,3.777699999999999,-2.422241566845,0.0,0
mp-540755,Zr2Nb3Ge4,0.0,-0.5292433216666679,0.0837388615343934,0
mp-558104,NaMn3F10,1.4189,-2.843242710698572,0.0002445613095245,0
mp-774377,Li4Mn3Fe(BO3)4,3.012,-2.494918320189444,0.0035662077083342,0
mp-769533,LiMn(PO3)4,1.295999999999999,-2.5360149135189407,0.0564398380555601,0
mp-864879,NbC2NCl8,2.3142,-0.9751143027883332,0.0892559021267356,0
mp-767498,Li10Ti11Nb6O42,2.191799999999999,-3.1310857347222214,0.0338333768840612,0
mp-3269,NaTh2F9,6.2533,-4.270398324225833,0.0061562268750003,0
mp-6942,Ho2CdS4,1.1167,-2.05356157232143,0.0,0
mp-10509,BaGaBO3F2,4.9647,-3.1785841172245832,0.0,0
mp-30299,RbAsO2,3.8821,-1.8793630974999995,0.0,0
mp-974959,Rb3Li,0.0,0.134595185,0.134595185,0
mp-766859,LiV3(OF3)2,1.2184,-2.977281110803333,0.0600847837500131,0
mp-28789,Na4Cu2S3,2.0857,-1.0452519016319453,0.0,0
mp-28967,Ba(PdS2)2,0.8922000000000001,-1.2170679694642863,0.0,0
mp-614185,Pb(SN)2,1.1674,-0.147890657077,0.2907943545479981,0
mp-30406,Li2TlAu,0.0,-0.3615294812499998,0.0271235175000001,0
mp-571090,ErMn2,0.0,0.0871248850000014,0.0959353863888887,0
mp-771529,Li4MnV3O8,0.9354999999999992,-2.3280517675600008,0.1059281242187486,0
mp-760778,Li2AgF5,0.4086,-2.25914353511875,0.0380249487499977,0
mp-1023937,WS2,1.8095,-1.2620815360416675,0.0016469883333343,0
mp-865214,Lu2TcAg,0.0,-0.2053343299999994,0.0259441568749991,0
mp-571330,Nd3AlC,0.0,-0.1877021819999996,0.0238257328333339,0
mp-776003,Mn2V3Cu(PO4)6,0.0,-2.508201781680316,0.0145539183333216,0
mp-1004377,HfB6,0.0,0.1020895449999993,0.5408425319047625,0
mp-764080,CoOF,0.0,-1.6558949103966671,0.1078405949999981,0
mp-541407,RbCuSnS3,0.1326,-0.9744290328645834,0.0,0
mp-780214,Li4Mn3Cr3O12,0.569499999999999,-2.206909275812728,0.0323225386364054,0
mp-18361,K7NbAs4,1.1294,-0.465158235416667,0.0,0
mp-23311,EuBr2,1.045799999999999,-2.040808202,0.0,0
mp-866227,CaNdRh2,0.0,-0.5043472768749995,0.0077550006249991,0
mp-568011,K3P5RuSe10,0.9415,-0.5295608053375629,0.0,0
mp-21793,HoSi3Rh5,0.0,-0.9748364131481484,0.0,0
mp-5313,HoCo3B2,0.0,-0.504985943055555,0.0,0
mp-10198,Mn3PdN,0.0,-0.3037699924760005,0.0224421475999996,0
mp-10037,AlCo3C,0.0,-0.2218817834999996,0.019486972500001,0
mp-611608,CsNiF3,4.3878,-2.415111278714,0.0944821110000013,0
mp-29611,B5H8,5.4263,-0.1362577367148718,0.0326330820716771,0
mp-770909,CrCo3O8,0.375399999999999,-1.2630545758333334,0.1088568329166701,0
mp-558796,Ag(Bi2S3)3,0.0,-0.6635456029101574,0.0313217310937492,0
mp-540856,Tm8Ga3Co,0.025,-0.4202221283333329,0.0,0
mp-647192,C28Cl5,1.3573,0.165785253293939,0.2836351401278412,0
mp-22871,ZrCl3,0.0,-2.181366778695,0.0,0
mp-766844,V3FeO8,0.716299999999999,-2.112888884999999,0.2151250033333412,0
mp-770431,Ho2(SeO4)3,3.7327,-2.103507774310662,0.0013643625000003,0
mp-579637,K2In2Sb3,0.8028000000000001,-0.3579340196428572,0.0,0
mp-16455,BaNd2ZnS5,1.140699999999999,-2.155535026701389,0.0209681927777802,0
mp-561127,K2Ce(NO3)6,1.4733,-1.4812881272881488,0.0013379660493804,0
mp-28167,Th6CoBr15,0.6808999999999991,-1.5860035486363635,0.0,0
mp-762935,LiCoSiO4,1.487,-2.3391782335714284,0.0966287999285588,0
mp-607848,La(In2Ni)3,0.0,-0.3014002184999995,0.0194945708333271,0
mp-12748,ThMn2,0.0,0.0739101974999994,0.0739101975,0
mp-559304,Er2Te5O13,3.007999999999999,-2.2159715875625,0.0,0
mp-568139,NdInAu2,0.0,-0.6921291293749996,0.0,0
mp-540610,K2U7O22,1.4469,-3.4847733904032263,0.0417336875806402,0
mp-646192,NaCrF6,1.374,-2.58695597808,0.0,0
mp-20670,Yb(MnGe)2,0.0,-0.4048625339999994,0.0,0
mp-698170,Ca2B5H2ClO10,5.2288000000000014,-2.792833483566666,0.0056511797499982,0
mp-31039,Rb6Te2O9,0.848699999999999,-1.805178219485294,0.0,0
mp-975784,PrY3,0.0,0.022034063125,0.022034063125,0
mp-1014219,HfZn,0.0,-0.1921934500000004,0.0002024725000007,0
mp-14390,Na3GaP8O23,5.0014,-2.6135924152431973,0.0,0
mp-557352,CaP2Xe5F22,2.7179,-2.0195702222456817,0.0,0
mp-695805,Li2FeP2O7,4.2488,-2.603701369161706,0.0227778715277819,0
mp-643788,Na2Sn(HO)6,3.256199999999999,-1.601292011614667,0.0689852368333339,0
mp-555524,Na4MgC6(SN)6,4.1635,-0.6073624923328247,0.029996088925122,0
mp-2351,TmPt3,0.0,-1.0744415149999993,0.0,0
mp-557792,HfSCl6O,3.2525,-1.8393435263747215,0.0,0
mp-504806,K2Li14Pb3O14,1.9157,-1.9198833108333333,0.0,0
mp-12793,NdAl,0.0,-0.3476275937500004,0.0411149787499995,0
mp-850771,Li8Mn7Fe(BO3)8,2.901,-2.5076820197927767,0.0053189481597195,0
mp-776916,Fe3Ni2Sb(PO4)6,2.3559,-2.293709481765874,0.0143536306944325,0
mp-779998,Li2FeO2F,2.0665,-2.3456535947816666,0.0992099941666664,0
mp-559562,AgTeNO5,2.0141,-1.0423100538912493,0.0049842510937496,0
mp-977574,HoSbPd2,0.0,-0.8671404750000002,0.0,0
mp-557758,LaMg(BO2)5,4.744099999999999,-3.12888852240196,0.0,0
mp-707535,H4C(N2O)2,2.3823,-0.5424892662727264,0.2739577012727716,0
mp-560242,NaMnF3,2.6871,-2.991586835406,0.0,0
mp-631516,Be2HgTe,0.0,0.8081650900000001,0.98700218875,0
mp-2546,NpC,0.0,0.1751243068749985,0.1751243068749985,0
mp-768150,LiBi3(BrO2)2,2.5094,-1.6271261364999994,0.0,0
mp-771550,Li2V3TeO8,0.2941,-2.2687481928571427,0.0458110349234681,0
mp-3810,Hg(AsO3)2,0.7083,-1.4849195052777786,0.0,0
mp-707816,H5CSN2ClO4,2.4905,-0.6022458101916074,0.6033794145453637,0
mp-625179,Cu(HO)2,0.0,-1.1031703119479992,0.112686022500001,0
mp-1364,YNi,0.0,-0.4367160349999999,0.0,0
mp-1937,YbCu,0.0,-0.2989572262499997,0.0,0
mp-616249,BiOs2(CO)6,2.1407,-0.8835807631666663,0.2201575360833345,0
mp-753181,SrCu2O3,0.0,-1.6808156039583335,0.0298492958333334,0
mp-557602,KBa4Au(CO)4,2.6467,-1.0636827446428572,0.6032013388095239,0
mp-10006,TlAgTe2,0.0,-0.0411816112500003,0.1221254606249986,0
mp-29018,ZrSnCl6,2.2258,-1.9060463505700007,0.0220997040625032,0
mp-568474,Ba(CuP2)2,0.0,-0.4676980089115647,0.0,0
mp-695635,Li3Al3P3H2O14F,5.7714,-2.877153316354452,0.0095619943269218,0
mp-542569,AlRu,0.0,-0.6884812775000002,0.0,0
mp-25152,RbVP2O7,1.9475,-2.7529614643127696,0.0,0
mp-1027894,Mo3W(SeS)4,0.7101000000000001,-0.9476911567187508,0.0298286870833335,0
mp-705024,VP2O7,1.3524,-2.574347279994047,0.0677136274999945,0
mp-1027818,TeMo2Se3,0.0,-0.5482504684635418,0.0219076100000004,0
mp-574272,Ca5Pb3,0.0,-0.5132303364583333,0.0208494985416609,0
mp-17639,Y2Zn17,0.0,-0.2356370836842103,0.0,0
mp-971826,Tl3H,0.0,0.4186186265950002,0.4186186265950002,0
mp-771899,Ni4P2O9,3.224099999999999,-1.8108595134960317,0.0305160533333372,0
mp-631422,CuSiBr,0.0,0.6770359033333341,1.0556355857777775,0
mp-694958,Na2Li5Al7Si29O72,3.239999999999999,-3.198242802086957,0.0571834374782476,0
mp-3319,Mg(RhO2)2,1.1521,-1.6586750385714284,0.0113765196428561,0
mp-31064,B6H10N,5.657500000000001,-0.3788401240341172,0.0,0
mp-15204,Tb2Si5Ni3,0.0,-0.7977956531666669,0.0,0
mp-864795,Ac2SnHg,0.0,-0.5596761499999996,0.0,0
mp-978093,Ho2S3,2.4745,-2.4611947694375003,0.0121990486666661,0
mp-706805,Sr4Mn2CoO9,0.0,-2.513977792489792,0.0269816937629689,0
mp-696993,Sn2H2SO5F2,3.7596,-1.979630422494375,0.0136621714972209,0
mp-2661,SrSi,0.0,-0.4683337624999995,0.0,0
mp-542681,Na3In2Ag,0.0,-0.1490695391666661,0.0,0
mp-569518,U2Zn17,0.0,-0.0459322742105263,0.0024014585964913,0
mp-3574,MnAlCu2,0.0,-0.1303763599999996,0.0395883625000017,0