mpid,formula,BG,FE,e_hull,fidelity
mp-625961,H5IO6,2.0918,-1.0609423910916669,0.0333588232291663,0
mp-781615,HfCrO4,0.5763,-2.983355948749999,0.0638609633333331,0
mp-8294,Cs2Li2TiO4,3.955399999999999,-2.549101285185185,0.0,0
mp-37,Th,0.0,0.0,0.0,0
mp-772338,Li2ScFe(SiO3)4,2.9333,-3.08534586225,0.003938619249995,0
mp-18635,Sr6GaN5,0.3096,-0.7503364659916668,0.0037223545833295,0
mp-989567,Cs2RbTlF6,3.7422,-2.732442172214,0.0,0
mp-8677,ZrTiTe4,0.0,-0.7738957694444443,0.014720200000001,0
mp-764219,CrOF,2.313799999999999,-2.6474003741466654,0.0080860005555507,0
mp-773603,Na3V(BO3)2,2.0938,-2.488345349027778,0.0441837022916544,0
mp-30799,NdTlPd,0.0,-0.6475581730555561,0.0,0
mp-651332,SeBr4,2.206,-0.1529833073437498,0.0,0
mp-288,PtS,0.3669,-0.7448979545312495,0.0,0
mp-865529,Ti2NiIr,0.0,-0.6337585483333346,0.0,0
mp-10461,NaSr3SbO6,2.9189,-2.753814174772728,0.0,0
mp-773103,ErTa7O19,3.1747,-3.4370098527314803,0.0084829361111111,0
mp-34489,LiInSe2,0.394199999999999,-0.7649502667968751,0.1146999874999998,0
mp-32479,Tl3VO4,2.595099999999999,-1.6830173199999994,0.0,0
mp-651839,Hg8Br3O4,0.2024,-0.404110215833333,0.1117256294999999,0
mp-1679,La2Ni7,0.0,-0.3108025666666663,0.0,0
mp-24733,NaZnP3(H4O5)2,5.668799999999999,-1.8093018662824225,0.0221652515489134,0
mp-625159,H3ClO5,4.888,-0.8914195750411094,0.0561097650000004,0
mp-764721,LiVOF3,1.9123,-2.970314535803333,0.0263562042063583,0
mp-1019580,CaMg(SiO3)2,4.5994,-3.2787498160000004,0.0821696367499997,0
mp-20137,Dy(GePt)2,0.0,-0.8000060733333327,0.0721268909999999,0
mp-684708,Er2S3,1.971899999999999,-2.4270276486875004,0.0408794394166651,0
mp-680059,Re3(SCl)7,1.6775,-1.0021727638975009,0.0,0
mp-687227,MnSb2Pb5O11,1.132699999999999,-1.7534913978794735,0.0,0
mp-28541,Bi2P4O13,4.5172,-2.490399032033209,0.0,0
mp-16319,Rb3Sb,0.089699999999999,-0.3581003762499997,0.0,0
mp-541509,Ta2Ni3Se8,0.330399999999999,-0.5899663152884609,0.0,0
mp-753495,Sb3O7F,0.0,-1.8169682763581831,0.039255668590906,0
mp-711,CeGa6,0.0,-0.3170886964285709,0.0,0
mp-27465,S8O,2.423499999999999,-0.7881006506944451,0.0,0
mp-31484,K4GaAu8,0.0,-0.3431299573076923,0.0,0
mp-568949,TlBr,2.1678,-0.8628409575,0.0225872549999999,0
mp-972471,Sm3Ho,0.0,0.0164184243749998,0.0164184243749998,0
mp-769901,ZnFeO3,0.0,-1.5720815507500006,0.1120830403749995,0
mp-862676,LiHoIn2,0.0,-0.3854732212499998,0.0016619899999987,0
mp-756344,Li4ZrO4,4.3207,-2.7068855066666666,0.0367962827777841,0
mp-733604,Ba2Mg3H10,3.0265,-0.4507692230799999,0.0,0
mp-780559,Fe3O5F,0.0,-1.700721544715555,0.1073759526388888,0
mp-5558,NaReO4,3.615199999999999,-2.289872286666666,0.0,0
mp-556865,NaBe2BO3F2,5.9419,-3.135374640310741,0.0058175916666645,0
mp-628808,Cu7Hg6,0.0,0.348147745769231,0.3481477457692308,0
mp-707985,K3Na3TeP6(HO4)6,3.1763,-2.2468464786114293,0.0575693761046549,0
mp-866313,Ba3In(BO3)3,3.4878,-2.987659191953125,0.0,0
mp-567389,Li2ZnGe,0.0,-0.2340422124999999,0.0999289218750001,0
mp-853218,V6O5F19,1.9655,-2.755025045795334,0.0240369327499934,0
mp-776253,Li5SbS4,1.6083,-1.2460549856250005,0.0928342380000009,0
mp-754514,N2,0.0,8.881784197001252e-16,8.881784197001252e-16,0
mp-23378,EuAgBi,0.0,-0.5376493533333324,0.0,0
mp-720294,AsH18N3O7,4.1735,-1.1277514483982751,0.0,0
mp-556475,KLaPdO3,0.4866,-2.3382501572916667,0.0074097651388873,0
mp-766917,LiVF6,3.1549,-2.9635026221425007,0.0254869924999994,0
mp-567542,PbI2,2.3829,-0.6689911091666666,0.0018351174999997,0
mp-565358,V2Cd(PO5)2,1.7502,-2.4936845429126984,0.0028466068333328,0
mp-779977,Li2Co3NiO8,0.0,-1.4143713585714284,0.0321630166071438,0
mp-774191,Fe3OF7,2.5013,-2.528102522234545,0.1112348945454595,0
mp-769590,Li2V3CrO8,0.99,-2.4285731803571418,0.059507591086275,0
mp-7443,Nb2CrSe4,0.0,-0.7333852834821418,0.0532886052380963,0
mp-505517,BaNb4O6,0.0,-2.739000729772728,0.0,0
mp-556202,Cu(CO)4,0.0,-0.8180430683333336,0.3710902611111084,0
mp-565569,NaAl(MoO4)2,3.6881,-2.4062365758333333,0.0040095499305561,0
mp-865261,Lu2ZnOs,0.0,-0.3691413499999987,0.0,0
mp-1019714,CsCa10(PO4)7,5.2034,-3.298258766884058,0.0,0
mp-1018099,Ba2NCl,1.1077,-1.5421901689100004,0.0,0
mp-774355,Li3Co2(SiO4)2,0.5406999999999991,-2.4331309230000007,0.0626399878333012,0
mp-754114,SrSc2O4,3.503999999999999,-3.722343852857141,0.0312641082142821,0
mp-554141,Ca3SiO5,3.3125,-3.3879056592129637,0.0604002392592573,0
mp-761184,Na2SnO3,2.507599999999999,-2.089442880625,0.0,0
mp-771127,Rb4TiO4,2.8866,-2.337032557407408,0.0,0
mp-10207,Np,0.0,0.4489244812499997,0.4489244812499997,0
mp-771524,Cr5Sb3O16,0.2704,-1.9978193172916672,0.1089383845833342,0
mp-707453,K5NaP3(HO4)3,4.6396999999999995,-2.4267595922977385,0.0,0
mp-974631,K3Tm,0.0,0.5842894675000001,0.5842894675000001,0
mp-24817,LiBeH3,4.8344000000000005,-0.3126935381719998,7.715216666603908e-05,0
mp-744274,Fe(Si2O3)2,0.0,-1.9823728552272732,0.7980210279545429,0
mp-763532,LiP3(WO6)2,2.7636000000000003,-2.53974923468254,0.0,0
mp-638650,Pr7FeI12,0.0,-1.2232247860000007,0.0014990573076927,0
mp-21379,SmInIr,0.0,-0.6688623019444435,0.0,0
mp-631586,B2IrCl,0.0,1.7794918508516666,2.2517065722222207,0
mp-30342,HoInAg2,0.0,-0.3681625937499997,0.0,0
mp-974058,LiCu3,0.0,-0.0134514799999996,0.0207562475,0
mp-31368,KClO2,2.3095,-1.1962801339400002,0.2663532271874995,0
mp-626210,Sr(H8O5)2,3.4569,-1.4364684322377772,0.0641431151851845,0
mp-5427,Mg2P2O7,5.3203,-2.996515764085498,0.0,0
mp-20802,Eu(POs)2,0.0,-0.6827358162380961,0.0,0
mp-756277,Er3TaO7,3.6189,-3.90466428625,0.0,0
mp-9858,Ba3Ge4,0.0,-0.5680455553571429,0.0,0
mp-43,U,0.0,0.1006561929999994,0.1006561930000007,0
mp-3831,SmPO4,5.7418000000000005,-3.4741145042658723,0.0,0
mp-12664,Be12Au,0.0,0.0757993846153844,0.1139431265384609,0
mp-754516,LiNiP,0.0,-0.6011123243650788,0.0317661740476191,0
mp-780092,V6O5F19,2.041,-2.7582272421286667,0.0208347364166607,0
mp-505562,CrCuO2,1.469299999999999,-1.7804034481250008,0.0003503099999999,0
mp-763126,Li4Mn2Co3Cu3O16,0.0,-1.4860499386399997,0.0629933687276755,0
mp-631254,KMnRu,0.0,1.5406039416666673,1.5412684383333346,0
mp-565884,K4MoS3O14,2.7201,-2.271784171803978,0.0,0
mp-780034,Fe3(O2F)2,0.0,-1.9502407680422216,0.0941499535416667,0
mp-778695,Li3Co3NiO8,0.0,-1.5041042059999996,0.0721504433333359,0
mp-767709,Li2Mn3Si3O10,2.5783,-2.7476016414099997,0.0162996576388909,0
mp-971753,ZnGe3,0.0,0.2719188650000004,0.2719188650000004,0
mp-1664,V3Pd,0.0,-0.1285506037499999,0.0,0
mp-560039,NaY(SiO3)2,4.709,-3.345027905500001,0.0012293762499844,0
mp-755659,DyHO2,4.5215,-3.0383185531966665,0.0013657565625004,0
mp-774432,K2Li3NiO4,1.809,-1.6287165037500002,0.0,0
mp-7198,SrPSe3,2.133299999999999,-0.9613302532752992,0.0,0
mp-626074,Al(HO)3,4.614999999999999,-2.0986707463728567,0.0379437660714296,0
mp-570749,YbHg2,0.0,-0.4940912033333333,0.0199466358333333,0
mp-1030404,Te4Mo3W(SeS)2,0.1076,-0.523897245442709,0.094816558333334,0
mp-27726,SO2,2.836799999999999,-1.7575772738541662,0.0016356466666689,0
mp-972569,Sm(MnAl2)4,0.0,-0.3219994771153847,0.0026106978571398,0
mp-29739,Na5SnSb3,0.2327,-0.3675842912500001,0.0,0
mp-763824,Ba2LiVP2O9,2.044,-2.9686772908293664,0.089507146041674,0
mp-975346,RbMnO3,0.0,-1.3966220149419997,0.3742360735937496,0
mp-29117,Ta3TeI7,0.5472,-0.451731404090909,0.0061853526870256,0
mp-773626,Co2OF3,0.0,-1.976746419970001,0.099975459791664,0
mp-1029293,CsVN2,0.0001,-0.9342779724400004,0.0,0
mp-675446,NaRuO2,0.1002,-1.40225885,0.1225734740625004,0
mp-781016,Li14Fe4O13,2.3295,-1.995891226491936,0.1004470797580623,0
mp-780547,Fe3O5F,0.0,-1.702820897493333,0.1052765998611109,0
mp-980193,Ti2H4Pd,0.0,-0.4550014054019047,0.0851478234285707,0
mp-1027700,Te4Mo3WS4,0.0,-0.6606046888541665,0.1171761370833337,0
mp-2573,NpAl3,0.0,-0.0918798671875,0.0182281481249999,0
mp-763196,MnOF,0.0,-2.3303068011333337,0.0686433654166709,0
mp-571554,PrAlSi2,0.0,-0.4756313249999993,0.0,0
mp-554255,Ba3(PS4)2,2.1538,-1.6699523983608064,0.0,0
mp-18701,Ba3YRu2O9,0.0,-2.637526266916667,0.0,0
mp-30639,Th2Fe7,0.0,-0.0679345616666688,0.0,0
mp-6299,K2Mg2(SO4)3,5.544899999999999,-2.510677813930922,0.0,0
mp-19546,Zr2Mo(PO6)2,3.1721,-3.0374803538935584,0.0,0
mp-764057,VO2F,1.6388,-2.432007459255832,0.0481416172916686,0
mp-21870,Pr2InPd2,0.0,-0.7940621469999997,0.0,0
mp-35482,Ti(FeO2)4,1.106199999999999,-2.1213277751282056,0.1416063955769217,0
mp-762564,CoPH16NO10,3.2407,-1.4650457845136275,0.0049342126601077,0
mp-606470,RbMnO2,1.9609,-1.9288023537816656,0.0,0
mp-772420,Li2Co3SnO8,0.0,-1.7197531021428571,0.0271264219642777,0
mp-765441,LiMn5O3F5,0.8525,-2.5124445935357147,0.0795874292857128,0
mp-705604,BaLaFe2Cu2O11,0.0,-1.5054433213970593,0.2812285964338219,0
mp-771431,Cr3Sn3(SbO8)2,0.6717000000000001,-1.9982585760416665,0.1174321554166537,0
mp-759849,Li2Ti6Zn3O16,2.8292,-3.033348341851851,0.0,0
mp-7591,GeAs,0.0,0.0532528399999998,0.0964798016666659,0
mp-561253,Ba3Lu(BO2)9,5.247299999999999,-3.154515735403226,0.0039557834408707,0
mp-761622,Li7Fe7SiO16,1.954699999999999,-2.1443517003225807,0.0604001232258131,0
mp-757624,Sr3La4O9,3.8438,-3.5304312616406257,0.0579332259375,0
mp-1018815,NdSbPd,0.0,-1.0646342708333345,0.0,0
mp-31890,Li4Fe(PO4)2,3.9187,-2.658348309746032,0.0084750266666757,0
mp-1034881,CsNaMg14O15,1.126499999999999,-2.6708092404435475,0.2272184983870975,0
mp-771808,Li2Fe2SnO6,1.988499999999999,-1.770246080681818,0.3196999831818186,0
mp-1755,ZnAu3,0.0,-0.1405684037500001,0.0070193325,0
mp-779952,LiCrP2HO7,2.9568,-2.450460625296706,0.0341969526884788,0
mp-28938,Nb3TeCl7,0.7004,-1.5734118493472722,0.0,0
mp-20340,EuN,0.0,-1.00084638369,0.0,0
mp-567009,K3V3(AsO7)2,2.8636,-2.18920921375,0.0,0
mp-4649,PdSe2O5,0.994699999999999,-1.0956592085546877,0.0,0
mp-626497,Al(HO)3,4.697299999999999,-2.0990385442300004,0.0375759682142859,0
mp-770876,Li3Ni(BO3)2,1.1688,-2.2447448854861105,0.0472525677604336,0
mp-754825,NaTmO2,4.0764,-3.232204289375,0.0,0
mp-997159,CrAuO2,1.0618,-1.6179609843750002,9.412624998805796e-05,0
mp-772045,SnSb3(PO4)4,0.0,-2.294400720099206,0.0921572049478909,0
mp-560649,KLa(PS3)2,2.6742,-1.4188332643065482,0.0,0
mp-673071,Li2SnP2O7,3.7003,-2.551705649578373,0.0365216916666604,0
mp-849242,Li10Mn(SiO5)2,0.987599999999999,-2.496769117976521,0.0523598041304342,0
mp-22537,Er3SnC,0.0,1.4887353164999992,1.988424344385963,0
mp-555874,LiAsS2,1.0664,-0.941049547031251,0.0,0
mp-5965,Tb3Ga5O12,3.2791,-2.9841468797500013,0.0,0
mp-574224,Cs4SiTe4,1.8365999999999991,-0.8777283780555558,0.0,0
mp-27904,FeSbS,0.5463,-0.5844706896875008,0.0,0
mp-867217,CaPrHg2,0.0,-0.5413014925000004,0.0,0
mp-775213,VNi3Sn2(PO4)6,1.498199999999999,-2.252782961904762,0.0914035837036966,0
mp-2748,CeAs,0.0,-1.4230919625,0.0,0
mp-772427,Li3Fe(PO4)2,2.5233,-2.593372248656464,0.0346491031249875,0
mp-1008922,CuN,0.0,0.8322015488100005,0.8322015488100005,0
mp-764094,Li3Co13O5F19,2.225,-2.1567833833465,0.0866918733749964,0
mp-754624,Al2O3,5.667699999999999,-3.37652720175,0.0655862990000004,0
mp-4604,Li7VN4,3.011,-0.91231430871,0.0,0
mp-706405,CdP2(HO2)4,0.5767,-1.1333350524891423,0.913489728638889,0
mp-30293,Sr2GeSe4,1.7283,-1.305065636339286,0.0,0
mp-722774,Ba3As2H14S8O7,1.9766,-1.4161811907185289,0.0131402726102916,0
mp-775243,Mn3Nb2Fe3O16,0.0,-2.06836044262,0.0905015493489571,0
mp-626103,Al(HO)3,4.9129000000000005,-2.105583709587143,0.0310308028571437,0
mp-764293,Li2VOF4,2.189899999999999,-3.040006829501249,0.0064703837797752,0
mp-757547,Li2Sn3(P2O7)2,3.0831,-2.4327541736904768,0.0591423743478127,0
mp-19723,InAuO2,0.0,-1.3452286556249995,0.0171194093750006,0
mp-977387,TbAgHg2,0.0,-0.3459650683333333,0.0,0
mp-566835,Mn(IO3)2,2.5617,-1.1811666684399995,0.0,0
mp-21504,V4GaSe8,0.0,-0.7318908952884617,0.0,0
mp-9387,TbCuGe,0.0,-0.6902574911111105,0.0,0
mp-554037,KU2H5C4O15,2.117,-2.16016767655,0.0500644002854926,0
mp-6253,KLiBeF4,6.8529,-3.374134337822857,0.0,0
mp-28798,Nb4Te12I,0.0,-0.1602381129411775,0.2181430614705872,0
mp-867186,CeZn2Ag,0.0,-0.2100272099999998,0.0266352794354833,0
mp-12958,BaSiO3,3.037699999999999,-3.123884118083334,0.2948903936666642,0
mp-775746,Li2U(WO5)2,1.4931,-2.6310963673333325,0.0180312841666676,0
mp-559613,K6Se2O9,1.6318,-1.744180161378677,0.0,0
mp-695026,NaYb3Ti2(SbO7)2,0.0,-2.74627207344697,0.0536082965056801,0
mp-1016841,HfHgO3,0.0,-2.38581492575,0.2963616960000008,0
mp-770600,DyWO4,1.9468,-2.9885325186111125,0.0124421493750013,0
mp-769775,Li2Cr2O7,2.4081,-1.87750848125,0.0348747715530324,0
mp-1695,Y2C3,0.0,-0.2580400205000004,0.0431703624999997,0
mp-573567,Ti(NCl)3,2.318,-1.1223283455123811,0.1261098307600017,0
mp-567872,Ba2Bi,0.0,-0.7655106100000003,0.026788010000001,0
mp-626865,H2WO5,2.4402,-1.5325361204362506,0.0809903564062501,0
mp-972536,Sm2TlAg,0.0,-0.3323774775000001,0.0002766462499996,0
mp-779864,Hf2N2O,2.0079,-2.540852211202,0.0091456084999954,0
mp-769716,LiMnPCO7,0.9189,-2.20469032093684,0.0184626219507615,0
mp-17447,Sr10P6SO24,3.543999999999999,-3.3219397466496083,0.0,0
mp-763092,Li2Mn3F8,2.855899999999999,-2.9917091494153847,0.0551756884615386,0
mp-35539,Zn2GeSe4,1.3873,-0.507663711339286,0.0139348606250013,0
mp-775365,Al6H16C5(Cl2O)6,5.515700000000001,-1.4053758818231106,0.0722024036944439,0
mp-768889,YHoO3,3.0775,-3.931497300583332,0.0889006714561411,0
mp-850978,VFeO4,1.7642,-2.1003049274999994,0.0714486150000031,0
mp-23043,RbPb2Br5,3.0418,-1.1567609331249995,0.0041707168749995,0
mp-28281,H4I3N,1.811,-0.4754618361699996,0.0,0
mp-772619,Li8Te2O9,2.2984,-2.06139764625,0.0472340778947399,0
mp-1018753,LaTlCd,0.0,-0.3647726916666668,0.0129262816666662,0
mp-778037,Li11V6O5F19,0.5932000000000001,-2.9924938383868303,0.0840023499830584,0
mp-20344,Fe3Ge,0.0,-0.0910421812500006,0.0097528000000002,0
mp-771803,LiNbFeO4,2.1149,-2.5670384528571435,0.0,0
mp-773079,AlZnH16N(OF)6,5.1864,-1.791008428223871,0.0034522266935486,0
mp-754751,Li3Nb3TeO12,2.0593,-2.5977318102631566,0.0181171502631203,0
mp-13220,PrMg2Cu9,0.0,-0.157237912916667,0.0,0
mp-7846,Zn3P2,0.0,-0.0020977962380953,0.1838164669999997,0
mp-11156,TmMgGa,0.0,-0.4678539077777775,0.0,0
mp-24204,CaHI,3.5269,-1.16187997954,0.0,0
mp-765067,LiVCrP2(HO5)2,1.3166,-2.428583008584145,0.0008587388235286,0
mp-38102,Na3CeF7,2.6973000000000003,-3.519890388029999,0.0,0
mp-638406,Ba3MnNb2O9,1.767299999999999,-3.1419809988139997,0.0,0
mp-554735,HgAs4(S2I)2,2.0015,-0.421273726022727,0.0038704316477269,0
mp-425,GdB2,0.0,-0.4718327944444454,0.0685426473333343,0
mp-566924,K2BiMoPO8,3.5602,-2.3695312519688647,0.0,0
mp-8806,Sr2Cu2O3,0.0,-1.55056499625,0.5488339285714314,0
mp-775693,Li4Nb3Co3(TeO8)2,0.7834999999999991,-2.1984391425,0.0794556289553574,0
mp-17770,CsPr(PO3)4,5.2958,-2.9424101742989435,0.0,0
mp-849732,LiSb(TeO4)3,1.3328,-1.5792893935294126,0.0066986782352911,0
mp-1043,HfV2,0.0,0.0288755233333321,0.0288755233333333,0
mp-649084,Sr2B8Ru7,0.0,-0.3751962628431379,0.0,0
mp-561370,S,2.362,0.028838485482954,0.0288384854829537,0
mp-777963,Li3SbH18S4O9,2.1608,-1.332200835576,0.0111750568571418,0
mp-603251,PdO,0.0,0.0192060543750001,0.8178366075000003,0
mp-25046,MnPH2O5,1.4574,-2.1344719325050256,0.0,0
mp-32022,LiMnP2O7,1.7018,-2.5728568830364065,0.0195114256818182,0
mp-767483,VPO5,1.7964,-2.512345030620748,0.0036328328571801,0
mp-1076,KB6,0.0,-0.026807,0.0,0
mp-770078,LiMnPCO7,0.9307,-2.193443389573204,0.0297095533143974,0
mp-23759,SrH2,1.3011,-0.5924951040799998,0.043959871666666,0
mp-1203,TiO,0.0,-2.8777117399583334,0.0429770640000022,0
mp-558317,KNaPrNbO5,3.4049,-3.0137588718055563,0.0,0
mp-27362,Nb(SCl)2,1.510199999999999,-1.5112485669290003,0.0,0
mp-18648,Zr2Ni12P7,0.0,-0.7389544317460329,0.0,0
mp-1660,ErZn,0.0,-0.34584321,0.0,0
mp-556842,CuH12(N5O4)2,0.7679,-0.6110815015238709,0.2979910155694192,0
mp-767794,LiVSiO4,1.571799999999999,-2.8025310275,0.049642789017855,0
mp-770224,Li4Cr3FeO8,2.3039,-2.2286111065625,0.0904300125000023,0
mp-752435,DyTmO3,4.526499999999999,-3.9803167090833327,0.0881896761249994,0
mp-1683,ZrSe3,0.393699999999999,-1.0508944814453134,0.0,0
mp-676687,RbAg4I5,1.1359,-0.4671224495,0.0641802851250008,0
mp-1018066,CrSnRh2,0.0,-0.2920830587499994,0.0,0
mp-765706,Li2VFeO4,0.9488,-2.1273243656250003,0.1689997765624875,0
mp-24824,MnH16C4(Br2N)2,2.7217,-0.4889500683400004,0.0584460867592593,0
mp-1016330,SrMg6W,0.0,0.3050042225,0.3517201776339283,0
mp-680646,NiSn,0.0,-0.2312789449999997,0.0060712060416667,0
mp-625871,Sr(H2O3)2,0.5135000000000001,-1.320747378816364,0.0576778253896099,0
mp-566902,Te3W2Se4(Cl4O)2,1.0027,-0.9417211998923682,0.0520670572478065,0
mp-773202,Li5Mn5(SbO6)2,0.0,-2.0616520745749995,0.0509900816666668,0
mp-570499,La5(BN3)2,0.0,-1.5187537398164117,0.0,0
mp-558681,PClOF2,5.4542,-2.428202433247048,0.0,0
mp-557994,Ba3Sc(BO2)9,5.2789,-3.1315694939516137,0.0067238773185245,0
mp-863744,Ca2PdAu,0.0,-0.7328447599999999,0.0028326275000001,0
mp-757578,LiSn(PO3)4,0.0,-2.478560250548941,0.0840380520601744,0
mp-615884,CsLiCrO4,3.063399999999999,-2.120718771785714,0.0,0
mp-542596,Hg(SbS2)4,1.1245,-0.623685245192309,0.0,0
mp-17839,K3Na(SeO4)2,3.5517,-1.8118099444419635,0.0,0
mp-780218,Na5LaO4,2.069,-2.050649741375,0.0434127031250026,0
mp-767384,Ba2LiTi11O24,0.0,-3.473324461929825,0.0138454295558858,0
mp-868572,Li6TiFe5O12,1.580899999999999,-2.224305911736112,0.0482724391666673,0
mp-755370,BaNb3NO7,1.2927,-2.855963073844168,0.0648561716666673,0
mp-4836,Yb(MnSb)2,0.0,-0.1834558620000002,0.2017797570000006,0
mp-637213,La2GeI2,0.4049,-1.2888775929999994,0.0033301220000003,0
mp-974467,Ru3Cl,0.0,0.8161340479350008,1.1437958572916669,0
mp-555933,Na2P2PbO7,4.2885,-2.5418096141617057,0.0,0
mp-21070,Nd(GePt)2,0.0,-0.8437966114999995,0.0690803620000002,0
mp-3669,Mn(NbS2)4,0.0,-1.475757693653847,0.0,0
mp-9906,Y(Re2Si)2,0.0,-0.4849746060714283,0.0,0
mp-775178,LiFe2OF3,2.0694,-2.4755762317599994,0.083569938928572,0
mp-9318,KZrCuSe3,0.225699999999999,-1.1229439784635424,0.0,0
mp-39025,NbO2F,1.6515,-3.0617218352975017,0.124381114374998,0
mp-11667,Nd2(Zn2Ge)3,0.0,-0.4158217745454545,0.0,0
mp-1027772,Te2Mo3W(SeS2)2,0.0,-0.8079206994531241,0.0696539541666663,0
mp-777479,VO2,1.378699999999999,-2.445521995,0.0387522391666639,0
mp-782631,Li2Cr(FeO3)2,0.090899999999999,-1.9871647825,0.1167726002525348,0
mp-571075,Np3Sn,0.0,0.2398599946874995,0.2841142841666659,0
mp-28774,KSnF3,3.5114,-2.812951387964,0.0,0
mp-19504,BaV2(CoO4)2,1.896399999999999,-2.3141392575000004,0.0,0
mp-568066,Pr2CBr,0.0,-0.8760352856250009,0.0,0
mp-1018175,ThAu,0.0,-0.6180120699999998,0.0,0
mp-770382,Li3V3(BO5)2,1.0475,-2.5701184044907395,0.0640922538889041,0
mp-676951,Dy3NbO7,2.816,-3.721336076704548,0.0676680777272693,0
mp-763524,LiFe2(CO3)4,0.0,-1.7543699044736851,0.0973714427302692,0
mp-19956,Ba2InO3F,2.046699999999999,-2.8852335978485724,0.0,0
mp-999502,MoPt,0.0,-0.3174175849999994,0.0,0
mp-7783,La(BC)2,0.0,-0.3108865216666672,0.1271367200000037,0
mp-978973,Sm2ZnHg,0.0,-0.3776827799999998,0.0,0
mp-766879,WOF4,4.8905,-2.632768778501666,0.0602889541666664,0
mp-28319,PtI2,1.225099999999999,-0.1659946058333332,0.0,0
mp-859137,Li2Mn2Si2O7,2.8691,-2.7124765227438457,0.0332640502884569,0
mp-675464,CdIn2O4,0.0007,-1.795787726428571,0.0775072328571422,0
mp-554517,NaMnF4,2.0519,-2.9262715042866656,0.0,0
mp-780197,Li2Mn3(BO3)3,0.0,-2.4579559414194123,0.0595707223039028,0
mp-23410,Nb3Se12I,0.0742,-0.5631295583203118,0.0,0
mp-979340,Sr2LiTaN3F,2.934,-1.815076962447499,0.0,0
mp-642847,Li4H6Ru,2.388,-0.5024495797018182,0.0,0
mp-770642,Li2MnSO4F3,1.677,-2.475013726462954,0.084141376164772,0
mp-18901,VAgHgO4,1.2167,-1.4190202985714286,0.0267729303571435,0
mp-672368,UVN2,0.0,-1.4997078918150013,0.0,0
mp-30610,Er2Pt,0.0,-0.9810132441666668,0.0,0
mp-568890,Tl2CdGeTe4,0.351,-0.2671904937500002,0.0055297292187499,0
mp-556712,Ga2BiS4,2.5248,-0.9712424576785712,0.0,0
mp-23237,BiF3,4.6808,-2.7977884315175,0.0,0
mp-20729,LaIn3,0.0,-0.4986122699999993,0.0,0
mp-685195,SrLaTl(AsO4)2,3.5481,-2.5279443701282056,0.0,0
mp-30983,CaP4O11,5.3423,-2.8043900217894353,0.00020123109375,0
mp-600205,H10C5SeS2N3Cl,2.5227,-0.2632246102644883,0.2368621338518011,0
mp-771890,LiSnAsCO7,1.9866,-1.9124806269318184,0.0633823215909119,0
mp-772090,Li4Ti9O20,3.1247,-3.30028806530303,0.028384333636378,0
mp-532768,YZr5Si5PO24,3.9082,-3.5488950876554237,0.015769658055559,0
mp-733590,TlCuHCO4,0.382699999999999,-1.3734162949316666,0.035126120052082,0