mpid,formula,BG,FE,e_hull,fidelity
mp-695383,K2HS2NO6,5.270799999999999,-1.9168706759687504,0.0234607868059297,0
mp-23133,Sr2Cu3(BrO2)2,0.0,-1.7002396277272729,0.0119041609090846,0
mp-770627,Li2MnFeO4,0.1787,-2.093393256995,0.0242243156250125,0
mp-29700,CS3N,2.8222,-0.1621553224134999,0.1948622380597138,0
mp-761331,LiTi3V(PO4)6,1.241299999999999,-2.9026837159591845,0.0139980022142811,0
mp-558235,CaTaF7,5.065200000000001,-3.8649343932403712,0.0,0
mp-8938,Si2Mo,0.093799999999999,-0.4637800388888896,0.0286197944444435,0
mp-867926,LiInPd2,0.0,-0.5952127050000002,0.0,0
mp-557074,BaPr2Ti3O10,1.949,-3.6601425710937487,0.0024522914062483,0
mp-9144,LiAsF6,5.1404,-2.7148203152675,0.0,0
mp-9951,MnNbGe,0.0,-0.3174925061111129,0.0,0
mp-581778,Rb2CeCu3Te5,0.0,-0.692137115,0.0,0
mp-569341,NdBPt2,0.0,-0.934330151041666,0.0,0
mp-4395,TbScGe,0.0,-0.7304963161111111,0.0,0
mp-542464,Ga2H6(SeO4)3,3.9646999999999992,-1.5083133679348364,0.0,0
mp-976339,LiTm2In,0.0,-0.2491014200000001,0.0145259023076915,0
mp-765007,VF3,1.6507,-3.2155436477675003,0.0104651118749981,0
mp-778532,Li2FeF4,2.565,-2.9338187354419047,0.0571844595238095,0
mp-12778,VOs,0.0,-0.2307633224999996,0.0063306583333329,0
mp-777742,Li3FeS3,0.0,-1.1860647870982146,0.1412542567857153,0
mp-999145,SmNi,0.0,-0.3665566312499999,0.0,0
mp-559249,Na2Te4MoO12,2.678,-1.7745514136842098,0.0,0
mp-28318,HgTeO3,2.2299,-1.18315699025,0.0141337368749994,0
mp-17566,Ba5P4,0.9365,-1.0114487272089951,0.0,0
mp-765256,Li7V(O2F)2,2.204099999999999,-2.416625981955714,0.0910942992857126,0
mp-765261,Li3Cr(BO3)2,3.114,-2.6071251179861106,0.02660628083333,0
mp-706913,BeH8(NO5)2,3.4834,-1.4008406522009518,0.0,0
mp-778080,BaY3F11,5.8515,-4.350450879039332,0.0683091471666674,0
mp-23066,Pb5(SI3)2,1.8132,-0.7059633960096151,0.0254795107692311,0
mp-28549,Li8SiO6,4.4497,-2.446213411500001,0.0,0
mp-560585,P3IrO9,2.2408,-2.2605474665796708,0.0,0
mp-21065,SiP2,0.0,-0.1114574345634918,0.0182533149999999,0
mp-1547,NiS,0.0,-0.6891479170312506,0.0153773772916681,0
mp-23534,KSn2I5,1.5097999999999991,-0.7311401493749998,0.0199439001041668,0
mp-22009,PbSe,1.6025,-0.4879826192968748,0.0751955850000003,0
mp-607725,Ce(PPt2)2,0.0,-0.8720169990986396,0.0,0
mp-756194,Tm4(B2O5)3,5.0617,-3.3332002587499985,0.0879535219300038,0
mp-849709,Li4Ti3V2Cu3O16,0.054999999999999,-2.388769879642857,0.1005498107738116,0
mp-551135,BaCuB2O5,0.494399999999999,-2.59890993550926,0.032282565925918,0
mp-6442,LiAl(Si2O5)2,5.3223,-3.2603142395312488,0.0,0
mp-1657,UAs2,0.0,-0.6525969750000004,0.0,0
mp-754698,NbO2,0.0,-2.8136036508333335,0.099204880000018,0
mp-864652,Nd3MnAlS7,0.4519,-2.017378962994792,0.0,0
mp-625807,Al(HO)3,4.3037,-2.0773950290514285,0.0592194833928578,0
mp-865910,CdAg3,0.0,-0.0490399762499995,0.0,0
mp-20581,Ca3In,0.0,-0.2100474500000002,0.064636970625,0
mp-7625,Y3ReB7,0.0,-0.6073988794696974,0.0,0
mp-12441,CaAl2O4,4.8499,-3.4084824228571433,0.0592046731904734,0
mp-3708,Tl(FeTe)3,0.0,-0.130659376428572,0.0265028187824674,0
mp-1019716,CsLi4(BO2)5,4.4885,-2.7392090972916656,0.0,0
mp-541843,FeMoO4,2.3256,-2.011758825833334,0.0077362310416599,0
mp-569871,Tm6CoBi2,0.0,-0.4492169888888892,0.0,0
mp-17612,Ba2SiO4,4.6289,-3.3757884835714287,0.0,0
mp-14234,MgB4O7,5.7433,-2.9450588025347213,0.0,0
mp-768218,Li2TmPCO7,4.8642,-2.8080322945287697,0.0919997333333331,0
mp-767392,Li7Ti7Nb5O30,2.1219,-3.0960351725340134,0.0501797250255116,0
mp-350,Zr5Te4,0.0,-0.8522050977777782,0.001047592222223,0
mp-504870,V2S2O11,2.3422,-2.1052846456250003,0.0,0
mp-571195,ZnTe,1.069,-0.4650005958333334,0.0031023566666665,0
mp-782657,Mn3VTe2(PO4)6,0.4851,-2.353943995318095,0.0858704349999852,0
mp-39866,BaSm4Si3SeO12,2.5404,-3.4906867915997024,0.0377661641369009,0
mp-676382,Yb2Zr2O7,0.0,-3.2857349935227287,0.1319345589772727,0
mp-560620,BaZr(PO4)2,3.8199,-3.2996921688492065,0.0061343374999687,0
mp-756897,DyTe3O8,0.0,-2.0204085826388885,0.0647435613020697,0
mp-972328,Ti2IrRh,0.0,-0.7750787633333331,0.0192940799999998,0
mp-561390,LiYb(PO3)4,0.0,-2.7483824456878296,0.0050060521990715,0
mp-981381,Tm2TlHg,0.0,-0.3788045412500001,0.001050255,0
mp-31964,Li2Mn(PO3)4,4.101,-2.6537519846495248,0.0170340282017171,0
mp-771927,Li7Ni5O12,0.0,-1.4072357764583323,0.038200491145834,0
mp-773114,Ce2U3O10,0.0,-3.8887617855,0.0,0
mp-767873,V9Sb7O32,0.611799999999999,-2.269081428437501,0.0039402971874986,0
mp-772273,Li2MnH4(SO5)2,4.2489,-1.967971314529736,0.0542192253947382,0
mp-21085,PuPd3,0.0,-0.5673956917187502,0.0,0
mp-29394,Gd2CCl2,0.488799999999999,-1.7002768528040009,0.0,0
mp-675600,Hf6PbO18,0.0,-2.6577588613,0.4084785735999965,0
mp-850228,Li6Mn5Fe(BO3)6,2.6117,-2.507081855480556,0.0010802991203684,0
mp-567044,K3Sc(MoO4)3,3.9435,-2.478080199210525,0.0,0
mp-20745,Pb,0.0,0.0274795400000003,0.0274795400000003,0
mp-769015,DyGaO3,2.8659,-3.1723053817500007,0.0253114739333275,0
mp-433,DyAl,0.0,-0.4163147120833335,0.0,0
mp-22905,LiCl,6.25,-2.1072804516300003,0.0,0
mp-36069,Co2TcO4,0.0,-1.5291227278571426,0.0451762228571439,0
mp-971875,UGa,0.0,-0.1057458350000004,0.0400031333333359,0
mp-569759,Zn5(BRh2)4,0.0,-0.4213940653921564,0.0045116599999976,0
mp-771196,Li8Mn12Ni4O31,0.8603000000000001,-1.900063329459456,0.0220222752142644,0
mp-1030465,MoW3(Se3S)2,0.9203,-0.752277738307292,0.0109379266666689,0
mp-566845,Cr(PO3)3,3.3268,-2.632391242925823,0.0,0
mp-972845,SiMo,0.0,-0.2905830449999982,0.1431924642857165,0
mp-568672,YbGeIr,0.0,-0.782646405,0.0,0
mp-973126,ScBiPd2,0.0,-0.6701052687500004,0.0051241510714277,0
mp-550908,SrHfO3,3.6761,-3.817974896750001,0.0128249885000002,0
mp-764885,LiFe8(BO3)8,1.268299999999999,-2.3104052373983746,0.071607060304867,0
mp-758221,CaH12S2(NO5)2,4.7208,-1.533937299030555,0.0756114341666664,0
mp-9569,Ca(ZnP)2,0.875,-0.6957175712380952,0.0,0
mp-29888,Er(ClO4)3,5.0118,-1.0922080487362509,0.0,0
mp-675756,Ba3P4O13,1.697,-2.403978982431548,0.7276558141249811,0
mp-761573,Li4Mn(PO4)2,4.0977,-2.6488014444766983,0.0640264880000076,0
mp-569347,Nd5Sn4,0.0,-0.7582774427777781,0.0,0
mp-16726,LiB,0.0,-0.0925500983333327,0.0852080200000005,0
mp-771181,Li2Fe3CuO8,0.0,-1.624021985357143,0.0590630752678595,0
mp-733509,Na2TiSi4H4O13,3.2593,-2.705504339266529,0.0051801127083326,0
mp-20050,InP3,0.0,-0.0625497798214294,0.0502542422023797,0
mp-567338,Pr(SiPt)2,0.0,-1.0224966440000005,0.0,0
mp-767891,Li2Si4NiO10,3.9366,-2.7853690530882345,0.0911824517647117,0
mp-1020622,SrZrO3,3.1654,-3.6598665327500006,0.0196963109999988,0
mp-34381,H4IN,3.7607,-0.6148043861433331,0.0020801100000005,0
mp-677164,CuAs2Pb6Cl7O6,2.2101,-1.5528225109236364,0.0,0
mp-28130,Nb(PS4)2,1.437999999999999,-0.9155165794264069,0.0074473674999993,0
mp-5919,SmTiGe,0.0,-0.6534784880555549,0.0,0
mp-767669,Li3Mn3(FeO5)2,0.9265,-1.9799033958544443,0.0795054881944388,0
mp-1026980,Mo2Se3S,0.738599999999999,-0.8186902791406254,0.0103286491666665,0
mp-637255,Ti2Sn3,0.0,-0.3071032976666672,0.0,0
mp-542697,Rb2RuO4,0.5314999999999991,-1.7288315449999996,0.0,0
mp-766742,Li6Mn5FeO12,0.0,-2.0743391762416654,0.0704532552083119,0
mp-867748,ScSnRu2,0.0,-0.5041131987500007,0.0,0
mp-1027302,Te2Mo3W(SeS2)2,0.0,-0.8234164944531249,0.0541581591666657,0
mp-569811,Yb11GaSb9,0.6382000000000001,-0.9798979904761906,0.0,0
mp-14039,K2NaRhF6,1.9994,-2.6577254272140003,0.0,0
mp-21466,Ca2RuO4,0.0,-2.5280328264285714,0.0142899303571413,0
mp-20975,CeIn5Ir,0.0,-0.3889284671428561,0.0,0
mp-12006,CeCdNi4,0.0,-0.346347594166667,0.0,0
mp-579533,K3P(W3O10)4,3.238,-2.2289188481802733,0.0268433154612779,0
mp-13376,SmZnRh,0.0,-0.6833792958333333,0.0,0
mp-13675,CdPd3O4,0.0,-0.9383401425000004,0.0062330906249998,0
mp-6296,K6Cd4Sn3Se13,1.4058,-0.785227444104567,0.029390072307692,0
mp-27652,ThI2,0.0,-1.0673731433333329,0.0098178877777783,0
mp-975421,RbAgO3,0.0,-0.4719932307500002,0.3480936857499985,0
mp-12789,Yb(Al5Fe)2,0.0,-0.3053938946153843,0.0,0
mp-773218,V2FeO6,1.7192,-2.251362738055556,0.0245643683333387,0
mp-758453,Na2P2H4N2O5,4.6627,-1.756906677445364,0.0358183026999983,0
mp-863753,Cs2Mn(PSe3)2,0.972599999999999,-0.6122775275229977,0.0,0
mp-759441,LiCu(PO3)2,1.4952,-2.2873326909940475,0.0842088644166585,0
mp-842,CaPt2,0.0,-0.9345157999999998,0.0,0
mp-776653,Ni6OF11,0.5564,-1.9690569516300007,0.0359272602546285,0
mp-25568,LiMnH6O7,2.1661,-1.3955140854286667,0.0654382923194445,0
mp-566814,YSbMo2O9,3.2023,-2.43808925375,0.0346335279807696,0
mp-1007821,GaCo2Ni,0.0,-0.0997099424999996,0.1063795094230766,0
mp-773764,Cr4OF11,0.9415,-2.88271673933375,0.0328552520572866,0
mp-6067,Tl2Cd2(SO4)3,4.0064,-1.902689470246711,0.000606643026316,0
mp-696403,BHO2,6.0887,-2.3061647877800007,0.0,0
mp-627684,VHO3,0.3165,-1.7281730464740008,0.2998790487500233,0
mp-778707,Co2OF3,0.6997999999999991,-2.020097084414444,0.0566247953472212,0
mp-571144,Sm3Te4,0.0,-1.3894465567857144,0.0184003687500018,0
mp-6090,Na2Cu(CO3)2,0.493499999999999,-1.834812356136364,0.0,0
mp-560721,NaCaBeSi2O6F,5.2919,-3.3002474678075004,0.0,0
mp-974565,ReP3,0.0,0.4613342401785712,0.8145255877083349,0
mp-3901,NdNbO4,3.6582,-3.5346684470833325,0.0,0
mp-677445,Y4SiS3,0.0,-2.0101327677734373,0.0,0
mp-20382,Ti6Sn5,0.0,-0.3699518536363641,0.0,0
mp-972486,Sm3Ti,0.0,0.2332246664583328,0.2332246664583328,0
mp-568443,Al2VCl8,1.6263,-1.8520015591890908,0.0,0
mp-975443,InCuO3,0.0,-0.92650359075,0.5070897800000003,0
mp-757111,SbOF3,2.5195,-2.354916718464,0.0088136012000017,0
mp-26630,TiP2O7,2.7319,-2.9733297911607157,0.0074118267499923,0
mp-767967,Mg3Fe3O8,0.0,-2.30312789,0.0423275817410715,0
mp-754661,INO3,1.6497,-0.6722667462259999,0.0385391789666655,0
mp-28471,Li3AsS3,2.284899999999999,-1.2150331878124996,0.0,0
mp-1030578,TeMoWSe2S,0.0,-0.6483362127083344,0.0426285216666659,0
mp-651106,FeSb2WC8Se2(O2F3)4,2.2688,-1.5332264552637498,0.3789084565502456,0
mp-771464,MnCo5O12,0.0,-1.222268694220001,0.0276284344444501,0
mp-622489,K4Zn(WO4)3,4.2269,-2.211872934,0.0204912717500009,0
mp-1533,Nd3Tl,0.0,-0.2086600643749996,0.0,0
mp-765925,Li2VOF5,2.8337,-2.9519737898740748,0.0,0
mp-757964,LiSn2P5O16,2.2785,-2.4527300491865085,0.0984366796007068,0
mp-357,SmPd3,0.0,-0.8219948381249997,0.0,0
mp-21383,Eu(SiRh)2,0.0,-0.9906834990000007,0.0,0
mp-570231,CsCdBr3,0.6968000000000001,-1.255420333,0.0328181749999991,0
mp-504777,Ag2Mo2O7,1.9011,-1.583586038977273,0.0,0
mp-13456,ZnS,2.0416,-1.1386755635312504,0.0016277909999966,0
mp-554749,P3IrO9,2.2494,-2.24428752157967,0.0162599449999989,0
mp-687234,P2WO8,2.456,-2.4222549319264077,0.0,0
mp-972925,ScZn2Au,0.0,-0.4503187799999999,0.0212601669531253,0
mp-640922,CeInPt,0.0,-0.933528388888888,0.0,0
mp-9063,RbSe,0.911999999999999,-0.9348365584635416,0.0,0
mp-649492,V2PbO6,2.3433,-2.1041869575,0.120453136111112,0
mp-504535,InHO2,1.7764,-1.7910270627799996,0.003105271249999,0
mp-600050,SiO2,5.8144,-3.220212260416668,0.0645006470833315,0
mp-505421,Mn2CuO4,0.0,-1.6819529774171431,0.0390320368749925,0
mp-866503,Ca2SnS4,2.2605,-1.7695945241071434,0.0,0
mp-543057,MnO2,0.0,-1.6489983244866668,0.1615706641666667,0
mp-677516,Rb5NO5,0.0,-0.5516607207845454,0.7542179229292927,0
mp-780870,Fe4O7F,0.0,-1.6311085433283343,0.1179156479687408,0
mp-743587,MoH8N2O5F2,2.7042,-1.0390107215194446,0.4627939022734404,0
mp-706688,VH8C10N3Cl4,1.529599999999999,-0.3640491507361536,0.2461443497195521,0
mp-558057,LiCdCoF6,0.0,-2.510332454126667,0.0437135799999985,0
mp-30457,LuNiBi,0.013399999999999,-0.6328373416666663,0.0,0
mp-15740,SrZn2(AsO4)2,2.8662,-2.1432466034615385,0.0,0
mp-769277,Yb2TeO2,0.0,-2.3995581905,0.519451049999998,0
mp-557327,Na3Li3Co2F12,1.8825999999999992,-2.8013165782140006,0.0,0
mp-566629,Li2NiPO4F,3.6477,-2.4976345824205826,0.0,0
mp-30734,Ho5Rh3,0.0,-0.7418270112500007,0.0,0
mp-34418,AgPF6,3.235999999999999,-2.554799403154405,0.0,0
mp-763517,Li4Ti3Co3(NiO8)2,0.7469,-2.1319168210714285,0.0571287749107316,0
mp-722310,KErHSe2O9,0.2072,-1.796708685504108,0.0052974082440497,0
mp-12630,MgSeO4,2.868999999999999,-1.885871041432292,0.0017442333333264,0
mp-853210,Mn2OF3,0.346,-2.6591768319566658,0.0339639235416715,0
mp-866128,NaTmTl2,0.0,-0.2103355062499998,0.0,0
mp-766856,CuPO3,0.8381999999999991,-1.919568788619048,0.0993677735000071,0
mp-2434,SrTl,0.0,-0.4270001324999999,0.0,0
mp-983357,H3F2,7.8926,-1.4794259936479996,0.0,0
mp-3274,NiGePd,0.0,-0.4608528566666668,0.0,0
mp-977415,HoCdAu2,0.0,-0.6725320299999997,0.0,0
mp-699008,Rb2MnV2(ClO3)2,1.2860999999999991,-2.042102331921539,0.2702975638461478,0
mp-754777,NaLaO2,3.918799999999999,-3.008963651874999,0.0445992037500007,0
mp-1027609,TeMoWSeS2,0.0,-0.7579093294531253,0.1090992174999998,0
mp-282,TiF2,0.451799999999999,-3.0215949796822223,0.2598511725925929,0
mp-979968,Yb2CdHg,0.0,-0.5214984762499999,0.0092646774999998,0
mp-18633,K8SnSb4,0.318999999999999,-0.4457120315384615,0.0,0
mp-981365,V2ReRu,0.0,-0.2902975975000004,0.0,0
mp-761493,KMn6O12,0.0,-1.9306099918821051,0.0,0
mp-558781,ScTaO4,4.0258,-3.6714933,0.0,0
mp-22036,ZrSbPd,0.0,-0.7471877991666661,0.0,0
mp-20067,Na5OsO6,0.0,-1.8164125372916664,0.0,0
mp-775601,Li5Mn3Bi2(PO4)6,0.0,-2.5007393447862873,0.0776024676875071,0
mp-647575,K2ZnCl4,4.5367,-1.98606278972,0.0017821527976189,0
mp-999192,SiNi,0.0,-0.4524887850000008,0.0494767099999995,0
mp-762811,Li2Ti2Mn3O10,0.0,-2.5406162193360777,0.0716558140716916,0
mp-531949,Li23(MnAs)20,0.0,-0.2559020150793653,0.1963016891666669,0
mp-8127,K2Mg(CO3)2,4.048599999999999,-2.2839572893181823,0.0,0
mp-861465,LiMnPO4,3.1353,-2.5873477648650343,0.0628104621428562,0
mp-561078,Rb2CoF6,1.179,-2.5330497441266675,0.0,0
mp-641509,In9Ni13,0.0,-0.1195648186363633,0.0434328177272735,0
mp-15558,Li3GaF6,6.2804,-3.133027110547333,0.0,0
mp-765852,Cr(CoO3)2,0.339199999999999,-1.3593676697222226,0.090593289722225,0
mp-19338,LiMoO2,0.0,-2.052653303125,0.0109813078125036,0
mp-756354,SrSc2O4,2.7653,-3.7275318749999986,0.0260760860714235,0
mp-16496,Al(CuRe)2,0.0,0.382298114000001,0.5412719420000007,0
mp-773404,NaLi2MnPCO7,3.5433,-2.4054167431004028,0.0448470398717946,0
mp-25479,La4CoO8,0.297199999999999,-3.218105270000001,0.0372749422596303,0
mp-21255,FeGe,0.096499999999999,-0.0976491512499997,0.0287434279166669,0
mp-569685,LiZnP,0.0,-0.1028883510317459,0.448413523333334,0
mp-11673,Sc2(SeO4)3,3.5636,-2.014763475928309,0.0,0
mp-510488,SmMnSbO,0.0,-1.7451494386774993,0.0784700759058329,0
mp-566106,RbV2I3O13,1.7589,-1.5156727219078947,0.0,0
mp-695140,Ba4NbP4(O9F)2,0.0,-2.7762757364572743,0.2113935189439661,0
mp-3237,Na2CuF4,0.8944999999999991,-2.512822999251429,0.0,0
mp-755300,TiO,0.0,-2.807459048958333,0.113229754999999,0
mp-705676,K4MoO8,0.569299999999999,-1.1920015176923082,0.4826955592307689,0
mp-770894,Li2CrPO4F,2.2453,-2.7097955558928044,0.0071345561574105,0
mp-743645,KMgIn(MoO4)3,3.820999999999999,-2.2729168758333342,0.0017419727777792,0
mp-1018742,LaNi2Rh3,0.0,-0.3596888700000005,0.0,0
mp-861993,Ho2TlAg,0.0,-0.3433815087499998,0.0,0
mp-975045,Rb3Cr,0.0,0.6982251025000004,0.6982251025000004,0
mp-631423,TaPbBr,0.0,1.3422017633333332,1.8076055133333335,0
mp-743566,MnFe2Sb2(PO4)6,2.6785,-2.4290691091294696,0.0,0
mp-1020740,YBe2B5O11,5.3906,-3.10814392629386,0.0,0
mp-28707,PrNb5O14,1.9449,-3.167060789375,0.0265311705000002,0
mp-764521,VOF,1.0949,-2.8137419378966673,0.032266944583335,0
mp-5909,Zn2GeO4,1.9751999999999992,-1.9800753395238104,0.0,0
mp-10935,NaErPO4F,5.5176,-3.384126975535655,0.0038334356249976,0
mp-13311,SrAlGe,0.0,-0.4697779750000001,0.0,0
mp-2733,Al8Mo3,0.0,-0.3296128245454542,0.0,0
mp-766349,BaCaI4,3.3672,-1.6508196670833335,0.0684691147916662,0
mp-14726,Na4TiO4,3.324599999999999,-2.4462853079629627,0.0,0
mp-510367,Fe2P2O7,3.6939,-2.4642088704491347,0.0,0
mp-22426,ScSiNi,0.0,-0.8878127691666672,0.0,0
mp-541040,Y2Be2GeO7,4.540100000000001,-3.287610376979168,0.0,0
mp-978278,Na(BH)6,5.6439,-0.3983522126323076,0.0,0
mp-555586,LuPO4,5.9929,-3.437757946349206,0.1000025375000017,0
mp-559083,Ca2MgSi2O7,4.6042,-3.3869175778125005,0.0254242377083331,0
mp-541594,Sc8Te3,0.0,-0.6708605384090912,0.0,0
mp-2124,Ho4Sb3,0.0,-0.9689563942857146,0.0249541814285709,0
mp-8470,NaPrO2,3.1969,-2.974130183125,0.0,0
mp-773357,Li2Fe3(PO4)3,1.4682,-2.4559493924642863,0.0592631893124799,0
mp-6424,K2Zn(CN)4,6.050800000000001,-0.2753208649563639,0.103840152954544,0
mp-10821,RbC,3.5275,0.3132887750000002,0.3335095028125004,0
mp-22209,Cr3AsN,0.0,-0.3502418054759985,0.0414109644999989,0
mp-644280,GaCuPt2,0.0,-0.4779753725000005,0.0,0
mp-667295,Cs7Cd3Br13,2.9374,-1.479339233695652,0.0,0
mp-574928,CsPH3O3F,6.4281,-2.0097678801550267,0.0017888423624432,0
mp-695048,GdTi2CdO6F,1.3352,-3.1909916220021226,0.1417224402272676,0
mp-1019572,CaAl2SiO6,4.549800000000001,-3.4254694420000007,0.0333831852083337,0
mp-27407,Ca12Be17O29,3.6698999999999993,-3.189994701400862,0.0064923584482761,0
mp-571566,Li2ZnSi,0.0,-0.2804107999999998,0.0,0
mp-699315,Ni(PO3)3,0.294999999999999,-2.214704766579671,0.072186711682697,0
mp-8276,Sr(ZnP)2,0.8239999999999991,-0.6899634812380953,0.0,0
mp-13119,CdO,0.015799999999999,-1.3751494756249998,0.0072517975000003,0
mp-1028991,Te2MoW3(SeS2)2,0.0,-0.7836545386197914,0.0557354300000021,0
mp-4050,Eu(AsRu)2,0.0,-0.6969248969999995,0.0,0
mp-866844,CaSnS3,0.790999999999999,-1.3741946074375009,0.1110318577499995,0
mp-733717,Tl3SnSe4,0.0,-0.3175889949218753,0.05249360171875,0
mp-672,CdS,1.1162,-0.9723884295312496,0.0,0
mp-696157,NaP(HO)6,5.2186,-1.844271655343945,0.0101734767857148,0
mp-12775,ThRu,0.0,-0.5368582499999999,0.0,0
mp-625447,Pr(HO)3,3.745299999999999,-2.276237887087143,0.0,0
mp-684059,LiTi(PO3)5,0.1854,-2.6758661611769483,0.0791787385606035,0
mp-631346,SrNiIr2,0.0,0.7575074849999996,0.95256896125,0
mp-779242,Fe4O7F,0.0,-1.634783385411667,0.1142408058854211,0
mp-775944,Ba2Ti6N2O11,1.445,-3.1973656375480948,0.0302900265861794,0
mp-776062,Li2FePO4F,3.9356,-2.680215542837248,0.0112065731944488,0
mp-761815,LiCoPO4,2.560899999999999,-2.3635763645493197,0.0707754410714303,0
mp-582994,KAg(CN)2,3.0962,-0.136305133015555,0.1931806270486138,0
mp-771840,Li3V2FeO6,1.076699999999999,-2.272282105624999,0.0882234227083245,0
mp-1001785,MoP,0.0,0.0230911959523805,0.6753818799999998,0
mp-23495,K2ZnBr4,3.6561,-1.4267739542857143,0.0009544749999994,0
mp-677422,Ca2Ga2Si(HO4)2,3.5092,-2.6726537131493324,0.0112994813333315,0
mp-25511,CsCrH18N6(ClO2)4,3.9754,-0.8549542263810522,0.3661677576228355,0
mp-9201,K4Ge2Au7,0.0,-0.3471290276923075,0.0,0
mp-776120,Mn3Cr2Cu(PO4)6,0.0,-2.3240123542069844,0.0891987287847229,0
mp-971906,TmBi3,0.0,-0.2595584537499995,0.1256566800000005,0
mp-1008483,CdN,0.0,0.94356181631,0.94356181631,0
mp-765934,Li2FeP2O7,3.666799999999999,-2.5464008391617057,0.0800784015277829,0
mp-720586,CaH4NClO5,3.5639,-1.6504702938641662,0.0,0
mp-631506,SrZrCo,0.0,1.0773256166666665,1.268234220000001,0
mp-556489,Ta2SnO6,2.2893,-3.004362056388888,0.0,0
mp-768156,Li7(SbS)2,0.0,-0.9810880755113636,0.1021650911363627,0
mp-4852,Ni(RhSe2)2,0.0,-0.3385265249107152,0.0092506116666664,0
mp-626378,As3HO6,3.5542,-1.6073948066120003,0.0,0
mp-4136,CePO4,0.1882,-3.4064081750992052,0.0010611526388899,0
mp-775568,Na3Ni2P2(CO7)2,0.0,-1.9542116875517603,0.040414491725536,0
mp-722353,UH12C2S2N6O13,0.145,-1.0774022821415288,0.3990297284634554,0
mp-706875,Fe21O23,1.3487,-1.6995436156534085,0.0241437378409106,0
mp-850934,Fe6O11F,0.0,-1.5720573749966675,0.1178935102430482,0
mp-769516,Na2NiPCO7,0.0,-2.023670331820436,0.0438562998437541,0
mp-23526,KClO4,5.539,-1.1998975176266662,0.0,0
mp-973736,GeAs3,0.0,0.4126962675000003,0.447306474687501,0
mp-868843,MnCo3O8,0.938299999999999,-1.2462612063299996,0.0597031083333394,0
mp-39144,SrLiPrTeO6,3.3073,-2.71850903425,0.0,0
mp-1018081,CrFe3,0.0,0.0462309224999994,0.0462309224999994,0
mp-541629,BaGaF5,5.7568,-3.5394430094214284,0.0,0
mp-769878,Rb2Fe2O3,1.068699999999999,-1.6301919662500006,0.0,0
mp-761738,Li2Co3NiO8,0.0,-1.4342312364285712,0.0123031387500009,0
mp-975729,Pr(BRu)2,0.0,-0.4966889436666676,0.0,0
mp-567264,SbMoOF9,3.679799999999999,-2.5998026037049993,0.0,0
mp-768427,Ba2YBr7,3.9627,-2.06157470825,0.0440495962500024,0
mp-767847,Li6Ca3MnC6(O9F)2,4.701300000000001,-2.467124131689999,0.0480263983333211,0
mp-531956,Hf3Sc4O12,4.1098,-3.993723804210525,0.0164545207894715,0
mp-7396,Li3Tl,0.0,-0.2281887487500001,0.0,0
mp-10648,YbSe,2.256599999999999,-1.9511960192968751,0.1433282199999999,0