mpid,formula,BG,FE,e_hull,fidelity
mp-4155,Ca2Nb2O7,1.44,-3.2684563526136388,0.0415585820454467,0
mp-769785,ScVO3,1.5053,-3.206986252750001,0.0503473579999909,0
mp-650524,Sb3S2XeN(O2F9)2,1.6944,-2.1442003214456897,0.1272697348748286,0
mp-677095,Na2CaSn2(GeO4)3,2.3158,-2.3266383179999988,0.0,0
mp-972784,SiTc3,0.0,-0.1105215162500012,0.1511118324999998,0
mp-6175,BaLi2P2O7,5.3618000000000015,-2.9774097781200397,0.0018813664583365,0
mp-864616,ICl2,0.0,-0.38166257884,0.1984422470833324,0
mp-777153,Li2Fe2NiO6,0.0,-1.5230002938636362,0.1742156347159102,0
mp-707333,Na3SiH3O5,3.8945,-2.1181810616341665,0.0037400955208326,0
mp-19202,MgCr2O4,2.8397,-2.625085397857144,0.0,0
mp-768055,Li2VCrO4,1.7173999999999991,-2.4379585475,0.0074879687499995,0
mp-5057,Nd(SiAu)2,0.0,-0.6149166354999999,0.0,0
mp-774231,LiFeB2O5,2.7839,-2.5251612099537044,0.0346078384722119,0
mp-559878,K2Na2IrO4,0.3385,-1.5795627752777774,0.0,0
mp-21343,CeB6,0.0,-0.5165554314285714,0.0,0
mp-1315,MgS,2.7628,-1.7600414670312508,0.0,0
mp-13627,Y3ReO8,1.6955,-3.311679411666667,0.0,0
mp-1019101,SmGeAu,0.0,-0.8377058058333334,0.0,0
mp-558212,KNaNdNbO5,3.4371,-3.0217975115277773,0.0,0
mp-1009049,IrN2,0.0,0.7804223450800004,0.7804223450799981,0
mp-1013910,LiFe2P2O9,0.008,-2.3195386799957483,0.0580682242410688,0
mp-775165,Li2Mn3CuO8,0.0,-1.8554818009199996,0.0227199540892852,0
mp-779935,VOF2,1.7832,-2.8677934834075,0.002307669218756,0
mp-997038,AgPdO2,0.089999999999999,-0.6705051756250002,0.0,0
mp-766942,Li2MnF5,1.8375,-2.9566733393012496,0.0561870071874999,0
mp-10584,Ba2LiOsO6,0.0,-2.45763197625,0.0,0
mp-9480,KAlSiO4,4.5009999999999994,-3.202905274285714,0.00224395625,0
mp-1008785,RuO2,0.607499999999999,-1.276590129166666,0.1929450133333334,0
mp-865796,LuCdRh2,0.0,-0.6349534387500002,0.0,0
mp-515,TmTl,0.0,-0.2833704025000001,0.0,0
mp-763547,Co(IO3)2,2.562599999999999,-0.988307445833334,0.0073142291666661,0
mp-557538,Na2Gd2MgSi4(O6F)2,3.4215,-3.4098049907556516,0.0,0
mp-20516,InPt3,0.0,-0.3680817850000002,0.0,0
mp-23008,PbBrF,2.617,-1.8261411620633328,0.0,0
mp-628,Zr2Co,0.0,-0.2565615333333338,0.0,0
mp-767283,LiFeSiO4,2.5873,-2.5603146178571428,0.0617025357142786,0
mp-570218,LiBeH3,4.8256,-0.3127706903386661,0.0,0
mp-1627,Mo2S3,0.0,-1.0809287164374992,0.0944649394999999,0
mp-976784,NiAu3,0.0,0.0935695175000002,0.0935695175000002,0
mp-695571,Na5Ca6Nd5Zr16O48,3.6137,-3.602768617781249,0.0067782479062508,0
mp-997102,KAgO2,1.1747,-1.0315550081249998,0.0086989149999991,0
mp-680498,RbTaPS6,1.724,-1.203472848816138,0.0,0
mp-625632,H9BrO4,4.0408,-1.229962194112857,0.0291690523214276,0
mp-21033,La(GePd)2,0.0,-0.8529930720000003,0.0,0
mp-10751,Dy,0.0,0.1394391633333329,0.1394391633333329,0
mp-865200,MnGa2Tc,0.0,0.0807846675000005,0.193850455833334,0
mp-16644,PrMgPt,0.0,-0.8819444411111108,0.0,0
mp-19530,Rb2TeMo2(PO7)2,2.9934000000000003,-2.312532747913832,0.0,0
mp-541837,Bi2Se3,0.5434,-0.3843627871562489,0.0,0
mp-763843,Li5Cr2O8,0.5179,-2.0877305820000003,0.064581121222222,0
mp-768250,LiPrPCO7,0.3264,-2.6303776590313857,0.11895947369318,0
mp-865689,Y11In9Ni4,0.0,-0.5436235678125,0.0,0
mp-605027,Mg5Pd2,0.0,-0.3216449921428577,0.1582520325000023,0
mp-865652,TiMn2Si,0.0,-0.5188334116666677,0.0,0
mp-1026927,Mo3W(SeS)4,0.6504999999999991,-0.963812274218751,0.0136318883333332,0
mp-767444,Li2Mn(CO3)2,3.818399999999999,-2.0909419607690904,0.064559660454539,0
mp-763151,LiMnCO4,1.043999999999999,-2.0573416901371417,0.0242457955357124,0
mp-13449,YbGa2,0.0,-0.5463007733333333,0.0633542783333327,0
mp-571054,Cu2Mo3Se4,0.0,-0.3695214654861113,0.0771635927777785,0
mp-680443,K4Pb9,0.282599999999999,-0.1561158573076917,0.0132486977335162,0
mp-6144,Na2La2Ti3O10,2.091399999999999,-3.430945718382352,0.011796423933827,0
mp-721217,K2P2H2O7,5.0961,-2.390847464206191,0.0312713046153829,0
mp-2377,GaMo3,0.0,-0.1493095112499993,0.0,0
mp-767548,Ti4(Ni5O8)3,1.251299999999999,-1.6498131875968995,0.0,0
mp-560965,K4Mn(AsS4)2,1.0475,-1.0649620698333335,0.032429473444445,0
mp-978965,Th3Ni,0.0,0.1825113775,0.4177204212499994,0
mp-640381,YbCuS2,0.0,-1.3864735826562504,0.1726427714583334,0
mp-1008600,ZrN2,0.0,-0.129296201586668,1.187846615859998,0
mp-763418,Li2Fe3O10,0.0,-0.8364908868333335,0.5855261194583354,0
mp-553891,Mg2BP3(H3O7)2,5.1936,-2.3921481152950914,0.0,0
mp-16520,NpAl4,0.0,-0.0920222487499998,0.0,0
mp-769987,LiCoBO3,2.581699999999999,-2.2107174792361124,0.0676549587500021,0
mp-571156,Mg(BH4)2,6.0799,-0.3107927715721207,0.0,0
mp-3041,Er2CdS4,1.1467,-2.0561272201785714,0.0,0
mp-28921,Tl5Se2Br,0.3856,-0.4970555283984379,0.0,0
mp-4009,BaPdS2,0.3844,-1.5518796032812512,0.0,0
mp-764002,VO2F,1.533699999999999,-2.4351725925891663,0.0449764839583339,0
mp-758533,Li3Sb(PO4)2,2.9071,-2.5185428772278913,0.0800567632142863,0
mp-23330,NaClO3,5.6182,-1.2145410629020006,0.0054357139999989,0
mp-3040,TbCo3B2,0.0,-0.4806600261111112,0.0,0
mp-16626,SmAl7Au3,0.0,-0.5212380697727277,0.0,0
mp-510519,Rb2V3O8,2.055999999999999,-2.463350211153845,0.0,0
mp-767598,LiVPO5,1.2921,-2.6112577564806543,0.0685106496875116,0
mp-2044,Zr5Al3,0.0,-0.3541220650000012,0.0606069297499969,0
mp-567567,CdI2,2.351499999999999,-0.5913148609259259,0.0008221376296297,0
mp-10879,CeAl,0.0,-0.2361182549999992,0.1071965487500001,0
mp-769875,Li4CrF6,3.0117,-3.0438281333763637,0.0429057813636344,0
mp-9834,NdGaO3,0.0,-1.6351951862500005,1.4666484122500003,0
mp-777311,VFe3Co2(PO4)6,0.0,-2.3529288069047634,0.0488566399845646,0
mp-771298,Li4V3Cr2Co(PO4)6,0.5522,-2.5437129939642857,0.0775922387416647,0
mp-6616,Ba2HoCu3O7,0.0,-2.203797549519232,0.0240018855769221,0
mp-10676,Sc2AlSi2,0.0,-0.7078046700000001,0.0,0
mp-764844,Li7V4O11F,1.3426,-2.501509612606088,0.0737582376630738,0
mp-770207,Li3Fe2P2(CO7)2,0.0138,-2.2383270321169766,0.0407761225679346,0
mp-559319,Zn2P2O7,3.6862,-2.4479477191991346,0.0,0
mp-753830,Tm2Sb2O7,1.4172,-2.8106284889772724,0.068173301022723,0
mp-6598,K2Cu(PO3)4,0.8983000000000001,-2.4976937593358404,0.0,0
mp-11658,Cu2SnSe3,0.0,-0.2809066051302083,0.0,0
mp-686077,Er18Ti14O55,2.3688,-3.7797566174952113,0.0686621124712605,0
mp-1672,CaS,2.3819,-2.4762869420312503,0.0,0
mp-532413,Li5B7S13,3.552799999999999,-1.0906524512791669,0.0,0
mp-2956,Co2(GeS)3,0.5346000000000001,-0.6677035768359376,0.0,0
mp-764910,Ni3OF5,0.2744,-1.8089621969111112,0.0718883977314828,0
mp-546679,Nd2AlNO3,1.061999999999999,-3.093077824447142,0.0763281432143312,0
mp-32959,H2O,5.275399999999999,-1.322257934496666,0.0685755591666748,0
mp-572271,Cs3P7Pb2O21,4.9376,-2.6005291643308084,0.0,0
mp-24328,RbHCO2,4.4247,-1.6054609517240004,0.0787777254166659,0
mp-9546,Yb2C3,0.0,-0.1246743625,0.0,0
mp-6625,LaAgSO,1.3631,-2.352182761328125,0.0012635556249982,0
mp-32906,La2S3,1.920099999999999,-2.5754980739375006,0.0154098134999998,0
mp-775215,Li10Cr3Fe3(NiO8)2,1.6327,-2.0011086647058827,0.0578482107507749,0
mp-757781,LiSi2(BiO3)3,3.0679,-2.371947196583334,0.0529317405833289,0
mp-5977,Nd2Zr2O7,3.3252,-3.8604871176136366,0.0,0
mp-772689,Li2Fe3CuO8,0.0,-1.6492446900000002,0.0338403706250023,0
mp-763015,LiMnF4,1.6022,-2.874893004842222,0.0753632994444339,0
mp-28266,P2Pd,0.4579,-0.4325386020634928,0.0,0
mp-25526,FeP2O7,0.0533,-2.331962707994047,0.0445588924791682,0
mp-771930,EuCrO3,0.0,-2.7504738877499997,0.0,0
mp-753355,Ce5Y2O13,1.2862,-3.913821921062501,0.0421356514999988,0
mp-560128,EuHSO5,0.0,-2.378679595804062,0.0,0
mp-557686,ZrVF6,2.4087,-3.6934500858925,0.0,0
mp-781698,NaFeO3,0.794199999999999,-1.4844263627499998,0.0656339407500015,0
mp-999540,MnSe,0.063899999999999,-0.3602637067968741,0.0,0
mp-646,PrCd,0.0,-0.3206781324999999,0.0,0
mp-680577,KGa2Cl7,4.0476,-1.727090986782,0.0188404660000007,0
mp-2568,YSi2,0.0,-0.5321641041666668,0.0368688766666664,0
mp-17381,Y3Ge4,0.0,-0.8071358639285721,0.0,0
mp-7781,CaZrS3,1.1877,-2.131141004937501,0.0360733015000036,0
mp-555972,KC(NO2)3,2.1635,-0.8963036526945461,0.390979471417876,0
mp-8714,Rb2MnS2,1.106299999999999,-1.223979648625,0.0,0
mp-764348,LiFeSiO4,2.9041,-2.6015217303571427,0.0204954232142791,0
mp-762486,LiFe(PO3)3,3.663799999999999,-2.557641506645408,0.0436334492857213,0
mp-763663,LiMn3(P3O10)2,0.489899999999999,-2.4982627503817136,0.0449585347499885,0
mp-697030,Mg2H6Ru,3.0681,-0.4272978418577777,0.0,0
mp-10392,Sr3CdPtO6,2.04,-2.3575042861363644,0.0,0
mp-861546,LiMnPO4,3.1633,-2.5534326379602725,0.0967255890476188,0
mp-754537,LiLuO2,4.7738,-3.330262765625,0.0683640700000003,0
mp-559384,BaNaNdSi2O7,4.4466,-3.3677614026041667,0.0,0
mp-776006,VCo(PO4)2,0.0,-2.431683265099206,0.0436133254166843,0
mp-763545,LiVPO5,1.668,-2.592228431168155,0.0875399750000109,0
mp-510595,Er5CoSb2,0.0,-0.7000565406249999,0.0,0
mp-866068,TbMgAu2,0.0,-0.7768201233333336,0.0,0
mp-769868,Li3BiH8O7,4.0181,-1.5968838061952637,0.04523242388158,0
mp-740752,BaRe2(H2O3)4,4.0226,-1.928854220715652,0.0120083222826083,0
mp-853240,LiCoO2,0.5174000000000001,-1.7175112937500003,0.071995989374999,0
mp-975904,Li3Cd,0.0,-0.1790017962499999,0.0,0
mp-764226,Li2VF4,2.701,-3.011850774965714,0.0918989535714276,0
mp-561561,Cs2KRhF6,2.1034,-2.6684135257140005,0.0,0
mp-699738,Li2Co3(SeO3)4,2.6422,-1.5293633502083328,0.0,0
mp-755881,Ba2Ti6N2O11,1.8813,-3.2083600451671432,0.0192956189671313,0
mp-764246,WOF4,4.5049,-2.632868482876665,0.0601892497916667,0
mp-21415,Dy(NiGe)2,0.0,-0.6896618893333339,0.0,0
mp-764657,Li5Fe8(BO3)8,1.5074,-2.3753198194074066,0.0427788140416698,0
mp-974371,Rh3Br,0.0,0.6784159924999988,0.8280295108333329,0
mp-556996,K2LiAlF6,7.2639,-3.487653316380667,3.517533333408096e-05,0
mp-13098,YN,0.0,-0.9465897324399996,0.9353190950000004,0
mp-773139,Li4V3Sb5O16,1.2006,-2.1037578562499992,0.0883565149107195,0
mp-24152,HoH2,0.0,-0.789475310746667,0.0,0
mp-17260,Zn3SiNi2,0.0,-0.3223405054166666,0.0,0
mp-3082,CaSO4,5.6745,-2.791392394288194,0.0027661738888919,0
mp-754517,SrCa2I6,3.7364,-1.632736593333333,0.0313682775000008,0
mp-2065,MnS,0.0,-0.8883749320312502,0.0603823774999998,0
mp-8680,Ce(BIr)2,0.0,-0.7042472396666681,0.0,0
mp-690120,La3(MoO5)2,1.700299999999999,-3.0131549495,0.107299103999999,0
mp-20030,U2InCo2,0.0,-0.1170413800000005,0.0907045449999994,0
mp-1604,Pt3O4,0.0,-0.8454136707142855,0.0,0
mp-4251,Pr(Sb3Os)4,0.0,-0.1681967958823528,0.0,0
mp-780480,Li11V6O5F19,0.0,-2.9956679939965856,0.0808281943733018,0
mp-1018782,Li3YBi2,0.0,-0.6643142037500004,0.0,0
mp-766723,CoTe2O5,2.043199999999999,-1.48932409546875,0.0184434338281223,0
mp-600023,SiO2,5.488,-3.270446349083333,0.0142665584166667,0
mp-685006,Ta10O9,0.0,-1.6489928500657889,0.5758658248421059,0
mp-770744,Li4Nb2Fe3Sn3O16,1.5534,-2.327203555892858,0.0159560944642889,0
mp-978926,SmGeO3,0.0,-2.475092188250001,0.50926155165625,0
mp-5323,CeAlO3,0.0,-3.60725811675,0.014698139,0
mp-769526,Li7MgNi7O16,0.101099999999999,-1.3900465964516124,0.054791997177416,0
mp-636297,HfNiSn,0.0,0.2519445600000007,0.8830875899999979,0
mp-850093,Li2VCr2O6,1.3087,-2.3890326221969698,0.0498579257859663,0
mp-981367,SrTlO3,0.0,-1.6407254057499998,0.2370037227499981,0
mp-570219,InBr3,2.489,-0.85220396875,0.0,0
mp-541162,Ba2Mg3F10,6.8919999999999995,-3.97448912146,0.0064062139999974,0
mp-771474,V4FeCoO12,0.0,-2.197633919722223,0.0213867784027641,0
mp-19588,Sc2(WO4)3,4.126,-2.705792784117648,0.0075866975735294,0
mp-7830,UO,0.0,-2.6096180706250003,0.2208696875000004,0
mp-1016231,CsMg3,0.0,0.255105675,0.255105675,0
mp-540630,VFeO4,2.0493,-2.05892279138889,0.1128307511111117,0
mp-680093,CdI2,2.3358,-0.5904493577272727,0.0016876408282828,0
mp-770022,LiVBO4,2.6883,-2.577605701309525,0.0743650003571349,0
mp-769613,Li4Ti3Ni3(WO8)2,1.084,-2.3593719396428563,0.0850336029464307,0
mp-766828,Li4Ti15O32,2.0055,-3.2947836298039204,0.1010035626470298,0
mp-1018675,DyS2,0.0,-2.1118076915972224,0.0,0
mp-706625,TeH5O6,0.4995,-1.223508045883334,0.105558437656251,0
mp-19866,UTeS,0.0,-1.2766629455208331,0.0,0
mp-771965,Sb2P4H3O16,0.0,-2.1409926355296376,0.0828846318500016,0
mp-867904,AlGeRu2,0.0,-0.4887267612500006,0.0022213146874987,0
mp-30252,Na10CaSn12,0.664899999999999,-0.2670719847826091,0.0,0
mp-763563,LiCoSiO4,0.6967000000000001,-2.3606917738095228,0.075115259690464,0
mp-772825,Ta2BeO6,3.370999999999999,-3.202202948055556,0.0994549877777757,0
mp-779832,Li8Mn5Fe3(BO3)8,3.037499999999999,-2.478552728502778,0.0054153593402741,0
mp-579536,CsCu2ICl2,2.017,-1.07632807442,0.0,0
mp-36262,BrO2F,2.8867,-0.6547814934224996,0.0,0
mp-753000,NaSb3O8,0.7238999999999991,-1.9132612283333332,0.0182628075000002,0
mp-676422,Ta2O5,3.2084,-3.0465761923214285,0.3083694285714279,0
mp-570137,SnH16C4(Br3N)2,1.7128,-0.488220053885517,0.0566054309482755,0
mp-754835,Na6CuO4,0.308899999999999,-1.3310668190909092,0.1034835093560593,0
mp-20015,As2PbO6,2.1358,-1.752073715277778,0.0,0
mp-2039,ScMn2,0.0,-0.1417873349999988,0.0,0
mp-566014,FePO4,2.4856,-2.4237007138492075,0.0041209920833331,0
mp-979267,Ta2FeMo,0.0,-0.1616313950000005,0.0,0
mp-2297,NdC2,0.0,-0.1197708141666673,0.0203064004166666,0
mp-864954,MgMoN2,0.7411000000000011,-1.0530696586899992,0.0,0
mp-758571,Al11TlO17,4.585100000000001,-3.3233612831465513,0.0,0
mp-26209,LiBiP2O7,4.150399999999999,-2.550218251358226,0.010670485530305,0
mp-11142,SrCu9Si4,0.0,-0.2187776578571428,0.0,0
mp-18127,Sr(Ni2Sn)2,0.0,-0.3161339785714289,0.0,0
mp-20828,Pt3Pb,0.0,-0.0897176899999996,0.0303842100000002,0
mp-32482,VTeO4,1.500099999999999,-2.0122770820833336,0.0,0
mp-22775,Sr(Sb3Ru)4,0.0,-0.3139333529411764,0.0,0
mp-4499,MgAlSi,0.0,-0.0396145374999997,0.0200356534259285,0
mp-11234,PrMg2Ag,0.0,-0.1202768600000001,0.0923659538888888,0
mp-22428,SrCeO3,2.2876,-3.63160640775,0.0084326509999943,0
mp-20352,Ba3In2O6,0.8820000000000001,-2.521204189772728,0.0,0
mp-7964,YAlO3,3.496499999999999,-3.6543469322499993,0.1020886216000018,0
mp-780856,Co6O7F5,0.0,-1.559446482205556,0.0999602317361096,0
mp-29066,Al3Fe2Si3,0.0,-0.3537640254687506,0.0,0
mp-21884,EuGa4,0.0,-0.4331019589999997,0.0,0
mp-1009551,PbS,0.7372999999999991,-0.7441985720312507,0.1236318650000001,0
mp-29929,NaLi5N2,2.6507,-0.1605913637199996,0.2449035799999977,0
mp-698623,K4W11O35,0.0,-1.4239295438750004,0.8136839401333349,0
mp-865210,TmLuMg2,0.0,-0.0447920475000001,0.0032033924999996,0
mp-769458,Li6Ti(BO3)3,0.0257,-2.651963152258772,0.0973090686973661,0
mp-776402,B10H13,3.206,-0.1667404753250732,0.0063586797758139,0
mp-780826,LiFeF3,3.294899999999999,-2.8580459372140004,0.0570064564999963,0
mp-1031270,KRbMg6O7,0.0,-2.215074637916667,0.4801471310833323,0
mp-680850,Ti8S3,0.0,-1.0614210318655315,0.0099889396969663,0
mp-763529,Li3P2WO9,3.3444,-2.5791812548293658,0.049097354499966,0
mp-762508,MgFeO3,0.102599999999999,-2.06161759825,0.1274741753749957,0
mp-27064,LiCuPO4,0.0,-2.1988936240136057,0.0483184117857273,0
mp-761977,LiNiPO4,3.1894,-2.2035361950850336,0.0890183121428611,0
mp-35777,Mg(InTe2)2,0.6792,-0.4866175471428572,0.0,0
mp-586092,Li3Fe5O8,0.283399999999999,-1.9361000521875005,0.0388865643749998,0
mp-559987,LiAl(PO3)4,5.744099999999999,-2.8186028998544974,0.0026561104629632,0
mp-8670,Ca3CrN3,0.0,-1.0786525474485709,0.0,0
mp-556083,As2H3CF9,4.3411,-1.8723537751046664,0.170692639666667,0
mp-685043,BBr,1.2319,-0.3451380813888889,0.0086569097222213,0
mp-571297,AgN3,1.6377000000000002,0.3584911494650003,0.3584911494650003,0
mp-552806,BaBiClO2,3.177399999999999,-2.412333297152,0.0,0
mp-560217,K2Al2B2O7,4.5949,-3.0088403260576917,0.0,0
mp-776869,LiFeSbO4,1.0421,-2.0233222421428576,0.0002766984761928,0
mp-705541,V10O9,1.135799999999999,-1.8873545511184215,0.1104905415131565,0
mp-859127,GaHO2,2.8219,-1.881578327155,0.0664249999999988,0
mp-22233,Zr4Co4Ge7,0.0,-0.6196274973333327,0.0,0
mp-8450,Rb2Li2GeO4,3.3651,-2.1377096049999995,0.0,0
mp-27889,K(V5S8)2,0.0,-1.3875417172222226,0.0,0
mp-1471,Zr3Al,0.0,-0.2994609024999999,0.0,0
mp-770062,NaVSiO4,1.975899999999999,-2.7411293157142858,0.0457844555357374,0
mp-761726,LiCoPO4,2.8316,-2.338872816870748,0.0954789887500018,0
mp-560506,NaTiP2O7,0.1058,-2.8561002096915584,0.0633542026255256,0
mp-556303,CuBi2(SeO3)4,0.5594,-1.3729006510197377,0.0,0
mp-23549,Bi3B5O12,3.283,-2.449308155041668,0.0,0
mp-780822,Fe6OF11,0.8029000000000001,-2.615728472741111,0.0459137327777892,0
mp-568540,Ag5Hg4P8Cl5,0.9769999999999992,-0.3909876355028142,0.0,0
mp-20913,UGeS,0.0,-1.189564311354167,0.0,0
mp-767098,LiMn2O3F,0.0015,-2.2803284531228565,0.0770821618749941,0
mp-767631,Li3VF6,2.5271,-3.178807340214002,0.044793822333327,0
mp-757177,Li6CuS4,0.0,-1.3001451178409094,0.0731835953030302,0
mp-15557,Cs2As3,0.447499999999999,-0.4580413780000001,0.0,0
mp-722318,TmH16C4N11O13,3.2094,-1.0414932674522233,0.1809393407574439,0
mp-1030605,Te2Mo3WSe6,0.0,-0.5201094742968747,0.0224300258333336,0
mp-1028848,Te2Mo(WSe2)3,0.0,-0.4440437417968741,0.0432586016666682,0
mp-569221,Sm(C2N3)3,3.5748,-0.2094511993074999,0.1238595654356231,0
mp-23306,CuI,0.0,0.0975908924999999,0.2537859150000004,0
mp-12563,ErGeAu,0.0,-0.5763908199999997,0.1631264630555566,0
mp-560812,KU2(PO4)3,0.0085,-3.1270062405158727,0.0,0
mp-777684,LiFe2F5,2.636199999999999,-2.7741027532437506,0.0744926893749999,0
mp-24967,Fe2TeO6,1.2382,-1.7456754252777782,0.0,0
mp-570159,SmZnSn,0.0,-0.625863419166666,0.0,0
mp-770868,VWO4,0.6270999999999991,-2.2839427608333325,0.0375210579166633,0
mp-20897,Ba4Y2Cu6O13,0.0,-2.2198853632500017,0.0120369506000095,0
mp-542129,CsAlBP2HO9,5.2654,-2.7925316288484776,0.0,0
mp-689533,La4FeSe6O,0.0,-1.973224701484375,0.0584125549305554,0
mp-560329,Ce2Zr2O7,0.0,-3.82577678034091,0.0,0
mp-771848,Li3Mn4SbO8,0.0,-2.0622573661775,0.0514297399999996,0
mp-4971,K4Sn3Se8,1.4545,-0.7951642459166668,0.0,0
mp-972874,SeBr3,0.0,0.2741786378515623,0.4176004884863279,0
mp-4703,Th(Al2Fe)4,0.0,-0.4022717592307693,0.0,0
mp-865511,VCl4,0.120799999999999,-1.5642227556079995,0.0493374404999968,0
mp-1030212,Te2MoWSeS,0.0882,-0.5110438321093761,0.080051393333334,0
mp-30023,Ba(AlCl4)2,5.383599999999999,-2.278923151461818,0.0,0
mp-989534,LaMoN3,1.220799999999999,-1.099468297427998,0.0229618995000002,0
mp-22220,LaLuO3,4.4525000000000015,-4.0019181157500014,0.0102181433750008,0
mp-773491,RbH2SNO3,5.1827,-1.5878321392103132,0.0432894220528616,0
mp-774651,LiZnAsH2O5,3.107999999999999,-1.8033782303489996,0.0222492742499991,0
mp-4107,Li(CoGe)6,0.0,-0.2642940292307696,0.0,0
mp-540489,LiCoPO4,3.138,-2.4318445725850344,0.0025072330357165,0
mp-753090,Li2Cu2F7,0.0054,-2.256609897120909,0.0496714040909083,0
mp-567025,K2Mo2H8O15,2.4415,-1.521428628804074,0.0008110133333332,0
mp-762043,Mn23FeO32,0.6272000000000001,-2.0468759493228563,0.0104961917857515,0
mp-782065,LiTePO5,3.523599999999999,-2.232384189605656,0.0436419054687515,0
mp-9124,LiZnAs,0.547499999999999,-0.5199398299999997,0.0,0
mp-753883,La4Bi2O9,2.5475,-3.085838196083334,0.0647982023333604,0
mp-31312,Ga9Rh2,0.0,-0.3359767259090909,0.0,0
mp-861545,LiMnPO4,2.8385,-2.588811478793605,0.0613467482142864,0
mp-696656,BH4O2F3,7.0555,-2.1418932209716672,0.0,0
mp-972793,Si2B2O5,0.0,-1.0304104155092595,1.707446126296296,0
mp-12996,LaMg2Pd,0.0,-0.5351047662499995,0.0,0
mp-570477,LaSmI4,0.0,-1.23532273375,0.1098556718750005,0
mp-2562,MnS,0.0,-0.9308473645312496,0.0179099450000004,0
mp-646633,V2Ni(PO5)2,1.7194,-2.4327278912460315,0.0074652096666518,0
mp-558808,LiAl(SiO3)2,4.9005,-3.21964446325,0.0244515357222274,0
mp-779794,Fe5(OF4)2,1.257599999999999,-2.515622712801333,0.0393511800000041,0
mp-767850,LiFeSiO4,2.8705,-2.5800402010714287,0.0419769524999935,0
mp-600024,SiO2,5.75,-3.2660982252083333,0.0186146822916661,0
mp-556335,YP5O14,5.2522,-2.8457710900238102,0.0,0
mp-998420,KCrCl3,0.0,-1.7223993079560005,0.0111607808888898,0
mp-763319,V3O5F,0.0471,-2.570259558604445,0.038771424999993,0
mp-19362,KFe(MoO4)2,2.5929,-2.1209256575000004,0.0,0
mp-770799,Li5NbO5,3.9186,-2.544799657386363,0.017384879545454,0
mp-696123,Li10Sn(PS6)2,2.0004,-1.2608819397976196,0.0227100143999994,0
mp-10778,RbPrSe2,1.9029,-1.7281468517968754,0.0,0
mp-28341,LiGaCl4,4.4866,-1.7669677584233334,0.0,0
mp-32481,LaV3O9,2.57,-2.7074186720192306,0.025419677307692,0
mp-561518,Mg2BiAsO6,3.342399999999999,-2.32572513525,0.0027103732187505,0
mp-22309,CoSe2,0.0,-0.2732013582291669,0.0180394691666663,0
mp-767585,Li3Cr4(PO4)6,0.0,-2.4833545025289587,0.0807107875337802,0
mp-554543,SiO2,5.4402,-3.2717993974999997,0.0129135100000006,0