mpid,formula,BG,FE,e_hull,fidelity
mp-15432,K2Ga2As3,1.0329,-0.4658768374999995,0.0,0
mp-1018948,Re2N,0.0,-0.0864385257933335,0.0472449944444424,0
mp-18460,K2Si6GeO15,4.3731,-3.025253332239583,0.0,0
mp-773563,Li4Ti2V3Cr3O16,0.9931999999999992,-2.6620485669047613,0.0272444632216775,0
mp-1003486,CaMnO2,2.2291,-2.630945214614999,0.0251363187499995,0
mp-560501,Tb3CuSiS7,1.7277,-1.921925260286459,0.0,0
mp-510152,DyNiSn,0.0,-0.6724264005555559,0.0,0
mp-25540,MnH4(CO3)2,2.3683,-1.5896820121492308,0.0386282451923083,0
mp-3079,CaTa4O11,3.5437,-3.4473178649218745,0.0,0
mp-36165,Na10Zn4O9,1.4874,-1.6455377341847826,0.0,0
mp-560222,Na3SO4F,5.1205,-2.472428591509537,0.0,0
mp-21851,MnSiIr,0.0,-0.5341015641666663,0.0,0
mp-14161,Sr4Al6SO16,4.393499999999999,-3.3227691342245382,0.0045993876851841,0
mp-683616,Li5Ti7In(PO4)12,2.4695,-2.969327026764513,0.0086393501369812,0
mp-1025927,Te2Mo3(SeS)2,0.0,-0.6950516017013884,0.0538050950000004,0
mp-767398,Gd3AsO7,2.0907,-3.2767503717045448,0.0366923609090914,0
mp-704461,Ba3La7Mn(Co3O10)3,0.0,-2.4607754221692004,0.0510051205999992,0
mp-4362,Cu2Ag2O3,0.0,-0.6688515398214291,0.0237798292857087,0
mp-770516,Tb2(WO4)3,4.7329,-2.7666758473039232,0.0160306769117593,0
mp-2252,ScB2,0.0,-0.8395000844444453,0.0,0
mp-10847,NiSbSe,0.0,-0.2956528111979158,0.0,0
mp-995122,NbS2,0.0,-1.4182714127083331,0.0369325116666683,0
mp-2315,NaB15,0.0,-0.0506885493749997,0.0,0
mp-23443,MnTlI3,1.390399999999999,-0.5299083484999997,0.0163840924999982,0
mp-766308,BaCaI4,3.0008,-1.6224609016666662,0.0968278802083335,0
mp-771294,Li2FePCO7,2.341199999999999,-2.345055988903769,0.0115178334895764,0
mp-765924,Mn2F5,0.0,-2.8018886239814287,0.0677671509523785,0
mp-560929,Na3CrF6,4.0586,-3.080252191214,0.0,0
mp-19744,InSb,0.0,0.0651971625,0.1922930099999997,0
mp-557072,Ba3TiNb4O15,2.4151,-3.280585789365942,0.0151397535507218,0
mp-759897,Cu2OF2,0.0,-1.432533946726,0.0377971310000022,0
mp-38099,Rb4Cl2O,1.5163,-1.7382949289671432,0.0479255604761932,0
mp-778713,Na2Ni2O5,1.036,-1.0387182118055551,0.0445487884166686,0
mp-644303,UW3O11,0.0,-2.509875879916667,0.0300624566666147,0
mp-6978,RbHoO2,3.625099999999999,-3.073965619375,0.0,0
mp-757002,KZrPCO7,3.8916,-2.7792863335768403,0.0318269918181837,0
mp-3995,La(CuSi)2,0.0,-0.5883250719999993,0.0,0
mp-1018792,LuS2,0.0,-2.0526160193750003,0.0,0
mp-18894,CaCo(SiO3)2,2.6563,-2.9746866087499995,0.0085337269999969,0
mp-7892,Mn2AlB2,0.0,-0.4688652966666666,0.0,0
mp-782699,Co6OF11,0.807299999999999,-2.2546284732966666,0.0307509893749999,0
mp-10337,BaYAgTe3,0.7671000000000001,-1.26544276125,0.0,0
mp-972204,V2MoRu,0.0,-0.2583590162499991,0.0,0
mp-600003,SiO2,5.4596,-3.2758400347916656,0.0088728727083342,0
mp-770528,Li5MnO4,0.248799999999999,-2.0156004063460005,0.0906605322500091,0
mp-5251,Ca4CN4,1.790699999999999,-1.0129908938355543,0.0,0
mp-1580,NbN,0.0,-1.05102087619,0.2022303250000004,0
mp-772439,Li3AlFeO4,2.4242,-2.451145727361112,0.0191753495833344,0
mp-865651,Y2TlCd,0.0,-0.3821074587500002,0.0,0
mp-764626,Li5Fe8(BO3)8,1.3611,-2.3752291134074084,0.0428695200416688,0
mp-540632,RbTa(GeO3)3,3.473,-2.5039780979464292,0.0,0
mp-753858,TiOF2,3.897399999999999,-3.5844738769491675,0.0529588440624975,0
mp-766796,Cr2OF2,2.0584,-2.4061837907259997,0.0784141960000033,0
mp-22389,Mn3Sn,0.0,0.1736918862500003,0.1736918862500003,0
mp-773020,LuP5O14,5.4098,-2.83462593664881,0.0129987517499996,0
mp-20088,Na4PbO4,1.2998,-1.6248964633333345,0.0,0
mp-565846,RbV(IO4)2,2.7575,-1.4919709533333332,0.0,0
mp-771739,Li3Mn(SbO3)4,0.0,-2.027877833298,0.0637825644583331,0
mp-770235,Li4Ti3V3(WO8)2,0.1314,-2.6732157764285707,0.047192359352687,0
mp-35759,Li2NiF4,5.0816,-2.7393240813942863,0.0,0
mp-27911,BiAsO4,3.1586,-1.7800291687500005,0.0,0
mp-630714,Mg(FeO2)2,0.980599999999999,-2.1506989135714285,0.1007938128571579,0
mp-676314,Dy10Ti6O27,1.777,-3.753830505474808,0.1270702181395329,0
mp-10454,SmTiGe,0.0,-0.6417632380555555,0.0117152499999999,0
mp-1009019,FeN,0.0,0.6139474788100001,0.9269244849999998,0
mp-771509,Li5Mn5Cr2O12,0.0,-2.180914089991667,0.0316074133333366,0
mp-21739,ScCoGe2,0.0,-0.5864657291666665,0.0,0
mp-764771,Li6V5O12,0.6765000000000001,-2.4632851093478267,0.0475198755978238,0
mp-565329,K2NaFeO3,2.1975,-1.756279168392857,0.0,0
mp-29374,KGaSb4,0.2906,-0.2276822308333338,0.0,0
mp-20524,Sc2VB2Ir5,0.0,-0.7555543148333328,0.0,0
mp-976008,NdTmMg2,0.0,-0.0827237043750002,0.0063700987499997,0
mp-807,NpTe,0.0,-0.5594179743750001,0.0387852601562492,0
mp-774368,Li6Mn5Fe(BO3)6,2.6076,-2.507068455758334,0.0010936988425909,0
mp-631524,BTe2As,0.0,1.143190064583333,1.2006910010416665,0
mp-1568,K3P11,1.93,-0.3205109511819728,0.0,0
mp-868600,Li3MnP2O9,0.0,-2.4172115148933644,0.0517794337222232,0
mp-559676,SnS,0.3127,-0.7587036545312511,0.0168758525000001,0
mp-778504,Ti5Ni(PO4)6,0.0,-2.855924793941799,0.1280150390833281,0
mp-567504,CrCl3,1.5182,-1.5608480236949998,0.0014464741666699,0
mp-56,Ba,0.0,0.01624208,0.01624208,0
mp-28110,Rb2PtI6,0.5131,-0.7848010111111106,0.0,0
mp-774886,Li4Nb3Cu3(TeO8)2,0.0,-2.0981344453571427,0.0948159407589237,0
mp-547521,K2Co(PO3)4,3.1734,-2.57473549933584,0.0,0
mp-505814,CsBa2Nb3O10,1.4077,-3.1485837076562504,0.0,0
mp-18466,Nd2SiSeO4,2.6009,-3.3366628929492186,0.0,0
mp-755713,Tb2SbO2,0.0,-2.9983141468333345,0.0,0
mp-7323,RbBe2BO3F2,5.9642,-3.188794946977408,0.0,0
mp-865461,LuZrCo2,0.0,-0.2787600149999996,0.0,0
mp-11919,Sr(BeN)2,1.8494,-1.2073860589519996,0.0,0
mp-637201,Mo2P2O11,2.8121,-2.310135169829365,0.0167659918333313,0
mp-693682,Na25Zr11Sc5Si12(PO8)12,3.9101,-3.115515630820763,0.0252613832608821,0
mp-752537,Sr2HfO4,3.4581,-3.573472175714285,0.0464425267857144,0
mp-767470,LiNi2(PO4)2,0.7832999999999991,-2.0568011220146523,0.0826109633172924,0
mp-758371,YbAlO3,0.0,-3.2218983867500013,0.0,0
mp-772437,V3Bi2(PO4)6,0.9702,-2.4652946059591843,0.0900543848571446,0
mp-31468,LiCaN,1.378499999999999,-0.7703983199599987,0.0,0
mp-693655,Ba4Sm7Si12BN27,0.0,-1.4571510866358173,0.0056372484620039,0
mp-27535,Ca(IO3)2,3.5813,-1.5408653630555558,0.0,0
mp-770725,RbLi2Mn2(BO3)3,0.5117,-2.4351916693041176,0.0846969010924532,0
mp-1017511,Cr3Fe,0.0,0.2589715250000015,0.2589715250000015,0
mp-761780,LiCoPO4,2.611199999999999,-2.3381491168707487,0.0962026887500018,0
mp-29422,HfCl4,4.1644,-2.3073897236080008,0.0,0
mp-569623,Nb(SeBr)2,0.9702,-0.7595005064375002,0.0032807567333277,0
mp-504482,AlInS3,2.361399999999999,-1.223737132770834,0.0,0
mp-761439,LiMn(SiO3)2,0.7142000000000001,-2.800631671471,0.0592660276607137,0
mp-768,TmAl3,0.0,-0.4053858850000003,0.0,0
mp-767020,CoPO4,0.9736,-2.075059419265873,0.0677876904166661,0
mp-10286,KMnTe2,0.0,-0.4649989774999996,0.056248711874999,0
mp-9353,Dy5Ni2Sb,0.0,-0.5364438291666662,0.0,0
mp-995434,Fe11MoC4,0.0,0.2166074268750009,0.2262968113281243,0
mp-1500,BaS,2.1515,-2.41173967703125,0.0,0
mp-777202,Na3V2(PO4)3,1.918499999999999,-2.690297193714287,0.0,0
mp-761674,Li2Co3SbO8,0.5583,-1.7551654014285714,0.0288961433928589,0
mp-776220,Hf2N2O,2.2156,-2.473154685868665,0.0768431338333286,0
mp-542522,Bi14PdBr16,1.1683,-0.5254196209677416,0.0304849444623656,0
mp-706287,KCuPH2O5,0.016899999999999,-1.956470860158524,0.0291609645000052,0
mp-9907,SrAs3,0.0,-0.6023014687499995,0.0,0
mp-1288,AgO,0.179699999999999,-0.4120278356249996,0.0426878300000002,0
mp-555576,KNaS2O7,5.218100000000001,-2.2329586160795456,0.0,0
mp-3941,LiYF4,7.3177,-4.040819637876666,0.0190875900000069,0
mp-28859,K2HgS2,2.1246,-1.1047744946250002,0.0,0
mp-23418,Hg3(SCl)2,1.932,-0.7472810656635713,0.0,0
mp-27417,Li3InO3,2.8858,-2.0679360082738087,0.010480722976192,0
mp-762791,LiCrPO4F,1.9798,-2.693189177098155,0.0714643596874982,0
mp-642810,HOF,3.1321,-0.8251636611866662,0.3625191070833339,0
mp-676767,Ba4Yb3F17,0.0,-3.820872949384583,0.0,0
mp-10961,La5Si3,0.0,-0.5959310050000006,0.0,0
mp-985610,NaAg(CO2)2,1.6802,-1.4876088593749994,0.1322277285937509,0
mp-841,Li2O2,1.974299999999999,-1.650492598125,0.0,0
mp-773332,In2Co2O7,0.0,-1.5284051385227273,0.0123142272727312,0
mp-1029043,MoW3(Se3S)2,0.8647,-0.7518363358072916,0.0113793291666688,0
mp-5874,TlAgTe,0.6385000000000001,-0.2177427624999997,0.0,0
mp-504427,Ti3PbO7,1.9724,-3.1695972380681834,0.0,0
mp-541677,Cd2AsO4F,1.6984,-1.8711458079612495,0.0,0
mp-979355,Sm3Dy,0.0,0.0241043139583334,0.0241043139583334,0
mp-607829,AlTlI4,3.4463999999999992,-0.7216759233333333,0.0,0
mp-7241,Ho2InPd2,0.0,-0.8826433399999999,0.0,0
mp-38162,Sm5CuSe8,1.002799999999999,-1.6297179079464286,0.0757636987499994,0
mp-973895,Ni3H,0.0,0.4893860878450002,0.5447295550000009,0
mp-777914,FeOF,0.6481,-2.110425451368889,0.1702584944444432,0
mp-764382,Li6Mn11(OF12)2,2.1418,-2.8738704279446505,0.0756716320930195,0
mp-8579,Ba(AgS)2,0.8761000000000001,-1.1352572776250005,0.0,0
mp-571435,Hg2H10C3NCl5,2.8392999999999993,-0.6104636343990474,0.0549139566071428,0
mp-557328,Li3Zn2SbO6,2.4602,-2.061702819375,0.0220031099999991,0
mp-28656,Tl5(Cu7Se5)2,0.0,-0.200758829342672,0.0136994037931033,0
mp-771179,Li4Nb5Cr3O16,0.0429,-2.593951983214286,0.0948616043005952,0
mp-8035,B4C,0.0,0.9504839571666668,1.017483514807692,0
mp-767640,LiFeCO3F2,2.1772,-2.2600180101412497,0.0732290925694547,0
mp-21235,Mn2VGa,0.0,-0.2250346199999988,0.0,0
mp-31238,Ba3(SbO3)2,2.9311000000000003,-2.5855446846212127,0.0,0
mp-720384,CaH6C2(NO)4,4.6548,-1.150986428749412,0.1016247249603932,0
mp-1526,TiHg,0.0,-0.009828848333333,0.0567602125000004,0
mp-10348,LaSc3(BO3)4,4.1081,-3.486634288583334,0.0002109089999997,0
mp-690650,ZnH4(ClO3)2,2.5049,-1.0685846968076924,0.0737818900000002,0
mp-22444,Ta4FeP,0.0,-0.4134094938492059,0.0392912760416663,0
mp-7947,PtO,0.0,-0.5952997256249999,0.1444372362499999,0
mp-685999,Ag4SI,0.0,0.0290903876562496,0.2627705025,0
mp-23715,BaH2,2.8699,-0.5871253624133335,0.0,0
mp-673078,SnPO4,0.0,-2.2535882044047617,0.1731017117360975,0
mp-19644,CoMoO4,0.356799999999999,-1.8552028641666665,0.0,0
mp-974435,Re3N,0.0,-0.129808696845,0.0,0
mp-556477,Lu2O3,4.2763,-4.081793800750002,0.0567165847499993,0
mp-600190,LaH24C3N3(Cl2O)3,4.1757,-1.0164033233082486,0.04102324296875,0
mp-755446,Bi2(BO3)3,0.0,-2.078833312589286,0.0881345424107094,0
mp-975586,Pr3Y,0.0,0.0305390443749997,0.0305390443749997,0
mp-18288,Ti(SnO2)2,1.0812,-2.447729375952381,0.0011501007142884,0
mp-780139,Li4Ti3Co3(WO8)2,0.0398,-2.443080255357143,0.0640425305357172,0
mp-864603,YbH2,2.9087,-0.7075462307466669,0.0,0
mp-559030,KB(CO2)4,3.488299999999999,-1.877097725119048,0.0542116206484957,0
mp-1002083,CsKICl,4.0989,-1.843502093315,0.0648824024999998,0
mp-12444,SrCuSF,1.5103,-2.354078306313125,0.0,0
mp-29001,NaLuCl4,5.1662,-2.5215334725899994,0.0,0
mp-998713,TlInCl3,1.559699999999999,-1.3700071069560005,0.0,0
mp-542503,La9(SbO)5,0.0,-2.416875661118421,0.0,0
mp-720461,P3H22C3N9O11,4.9847,-1.1889880286790773,0.0132196424327366,0
mp-690517,La2NiO4,2.191,-2.853166492142857,0.1769687885714281,0
mp-556665,TlBiP2S7,2.2066,-0.7481178770116347,0.0,0
mp-975461,Hg3Sb,0.0,0.1566791062500001,0.1566791062500001,0
mp-766613,LiVP2O7,2.0382,-2.69146729681277,0.0534797181818182,0
mp-1019089,KMgAs,1.1621,-0.683480795,0.0,0
mp-21010,PrSnRu,0.0,-0.5011826924999999,0.0,0
mp-677468,Ba16Tb8Nb5(SnO16)3,0.0,-3.2548567081458346,0.0126627602734119,0
mp-698301,ZnH6C2(SO3)2,3.738599999999999,-1.1171665204320589,0.260468032111345,0
mp-1019319,TcN,0.0,-0.1846669628566672,0.0,0
mp-21080,La(NiSn)2,0.0,-0.5141349739999995,0.0451265100000002,0
mp-552098,Bi2SeO2,0.3719,-1.2658106262187494,0.0,0
mp-157,P,0.010399999999999,0.0300296469047616,0.0300296469047616,0
mp-697670,KAlSi3O8,4.9267,-3.2627058176923067,0.0,0
mp-566695,NdSbMo2O9,3.2597,-2.4387540875961533,0.0,0
mp-559027,SrH12C4S4(NO4)2,5.6657,-1.0258254016758068,0.239224930202762,0
mp-29210,Li2Ga,0.0,-0.2983240899999997,0.0,0
mp-30973,Ni3(BiSe)2,0.0,-0.2253366703125,0.0,0
mp-571100,CsAgBr2,1.796,-1.10302992375,0.0050124368749999,0
mp-771141,Dy2Cu2O5,0.072099999999999,-2.6216063363425928,0.0404532613888779,0
mp-763097,FeOF,1.2588,-2.224280690813333,0.0564032549999984,0
mp-1017578,HfBRh3,0.0,-0.7828813323333321,0.0,0
mp-971787,VBr2,1.1314,-0.8486397366666664,0.0,0
mp-14306,Lu2FeS4,0.0,-1.8639731751785729,0.1262944728571433,0
mp-642938,RbCr4BiO14,2.2292,-1.7375732329999989,0.0,0
mp-753524,La2(BiO2)7,0.0,-2.0408485827173912,0.086388112065217,0
mp-765306,Li5VF8,3.0323,-3.1201217133585715,0.0912734593452322,0
mp-18503,Al2Re3B,0.0,0.2476759747222227,0.5441449504545428,0
mp-566066,NaFe3Si3O10,1.3599,-2.6409296542647063,0.0027804964705921,0
mp-37255,Na2RuO3,0.0,-1.6657259797916677,0.0,0
mp-559554,Li2TeO3,3.9576,-2.030542246458334,0.0024225854166672,0
mp-22293,PrZnSn,0.0,-0.6387997158333327,0.0,0
mp-28387,PAuCl8,1.3333,-0.989239000917524,0.0,0
mp-1008726,Ti2Ga,0.0,0.4297049888888888,0.8276303433333343,0
mp-1027658,Te2Mo3WSe6,0.0,-0.5002024884635409,0.0423370116666674,0
mp-29829,LiAuS,1.5804,-0.9442331238541672,0.0,0
mp-23355,PAuCl4,2.5498,-0.98887858352254,0.0,0
mp-4652,MnRh2Pb,0.0,-0.1065651650000001,0.0245004683333327,0
mp-9919,LiZnSb,0.4057,-0.3655254633333336,0.0,0
mp-27126,Na2Mn3Cl8,1.9223,-1.6781533912369233,0.0,0
mp-1019721,CsMgBO3,3.149599999999999,-2.7714824498611117,0.0014450613194449,0
mp-19784,In2Si2O7,1.8171,-2.580384157613637,0.1313989268181803,0
mp-752394,AlTeO4,0.0,-2.2171805262499995,0.0534972412499978,0
mp-755755,Li3Nb(CuO2)4,0.0,-1.71678559125,0.1247837881249971,0
mp-744862,Cr3H24C8(NO5)2,2.1742,-0.69501755923702,0.3385849944813834,0
mp-775071,Li4Cr2Ni3Te3O16,0.9577999999999992,-1.686841576785714,0.0959099354464241,0
mp-560581,LiBeH8CNOF4,5.5732,-1.690409601608824,0.0384734457965674,0
mp-683987,Ce15B8N25,0.0,-1.1263342018298603,0.4827988543750034,0
mp-505141,Cs2SnS14,1.4665,-0.8831977623161762,0.0,0
mp-770771,SrSc2O4,3.4364,-3.753607961071427,0.0,0
mp-570184,ThPd3,0.0,-0.9480942531249994,0.0,0
mp-10955,Sn(HgSe2)2,0.2722,-0.2664989113392855,0.0007295114285725,0
mp-771655,Li3V2CrO6,1.8865999999999992,-2.4392358189583336,0.0208284018749989,0
mp-557802,K2Be(Si2O5)2,4.6976,-3.116941624558823,0.0,0
mp-559256,La4S3NCl3,2.9165,-2.5987527585770462,0.0,0
mp-561437,Al2Ge(O2F)2,4.0658,-3.189856974153334,0.0,0
mp-704220,FePO4,2.4351,-2.4018388863492066,0.0259828195833335,0
mp-709400,HgH4C4(Br2N)2,2.416899999999999,0.606095183717333,0.986783045508,0
mp-849704,LiFe4(BO3)4,1.4752,-2.3304059169841267,0.0692499384523817,0
mp-642823,Dy2V2O7,1.059,-3.248740638825757,0.013813826590912,0
mp-863916,Ta2Co4O9,2.0519,-2.283842894083333,0.0131538519999985,0
mp-1597,UO2,0.0,-3.7739836775000017,0.0,0
mp-775892,Ti3MnSb2(PO4)6,0.0,-2.7112581441536503,0.089370344641205,0
mp-770688,Li4CrO5,1.3916,-2.0756526216249997,0.0213300988333333,0
mp-780915,V4OF11,0.9634,-3.1268342043337505,0.0122655662500017,0
mp-630227,C,0.9032,0.3922373348333318,0.3922373348333323,0
mp-562542,Cs4NaHf3H2F19,6.8635,-3.569769618960345,0.0,0
mp-22745,Co9Se8,0.0,-0.2732426546323527,0.0,0
mp-554508,KYP2O7,5.065,-3.150937634540044,0.0,0
mp-762448,Li6Fe3Sb(PO4)6,1.3198,-2.4875061520892863,0.0768332629749899,0
mp-675978,K2Bi3F11,3.8253,-2.7849682026931246,0.0930399103125036,0
mp-558487,GdP5O14,3.1654,-2.83242872077381,0.0,0
mp-867373,Ti2Co12P7,0.0,-0.7180098461904766,0.0,0
mp-28393,P3Se4I,1.6437000000000002,-0.0592319045200895,0.0080943235449222,0
mp-30951,CsTi2I7,0.190199999999999,-0.8463000858333334,0.1119010950000003,0
mp-765786,Li2CoNiO4,0.0,-1.5770104487500003,0.0052954060416574,0
mp-546079,MgCO3,5.1935,-2.082437880250001,0.3800265669999998,0
mp-30500,TiCd,0.0,-0.0498940258333338,0.0011177712500005,0
mp-4536,ScNi2Sn,0.0,-0.5527995862499999,0.0,0
mp-31539,Li4Co(PO4)2,3.2951,-2.6108152624126983,0.0013030067499997,0
mp-214,ZrRu,0.0,-0.6546738325000003,0.0,0
mp-18938,Tl2MoO4,3.4611,-1.7205087221428568,0.0,0
mp-561635,CsSmSiS4,2.8414,-1.8345917333928572,0.0,0
mp-5058,FeAgS2,0.0,-0.4900769495312503,0.2212269137499998,0
mp-996966,KAgO2,0.5995,-1.0142861006249997,0.0259678224999992,0
mp-553121,Sm2IO2,0.0,-2.9646435755,0.094904681750001,0
mp-973606,Nd2IrAu,0.0,-0.6724813887499996,0.0599597602678576,0
mp-559276,AlBPbO4,3.0814,-2.732458153095237,0.0023499480357145,0
mp-775299,FeCo(PO4)2,0.6879000000000001,-2.2299941905158733,0.0553402172916417,0
mp-16993,Er2SiO5,4.6496,-3.828043225781249,0.0254944037500024,0
mp-777120,Na5Cr2P(CO4)4,0.040799999999999,-2.1429589751105445,0.0564825129017929,0
mp-7827,K2Ni(CN)4,3.0257,-0.2711550545018171,0.0882839564772721,0
mp-20198,CaIrO3,0.0,-1.4455450637500007,0.6600472480000015,0
mp-772258,LiMnNbO4,2.591199999999999,-2.674290812637143,0.0,0
mp-631637,Mg2PbW,0.0,0.7744489225000004,0.8147752299999995,0
mp-13801,Tl2Pt2O7,0.6955,-1.1652349989772726,0.0,0
mp-759603,H9CN5Cl2,4.702999999999999,-0.5397671453529415,0.1407097531956864,0
mp-636571,Co3(AsO4)2,1.7669,-1.5949649713461538,0.0,0
mp-764014,V3OF11,1.5639,-2.8835678699560003,0.0404189758333268,0
mp-21606,TiMnSi2,0.0,-0.6461265520833344,0.0,0
mp-764756,Li6MnV3(PO4)6,0.5298,-2.661121383238286,0.0549596865000125,0
mp-782666,Mn2O3F,0.0,-2.018280646560001,0.0864789310416709,0
mp-24157,PH8N2O3F,4.7799,-1.4302458917836824,0.0,0
mp-779984,Co3OF5,0.0,-2.104030040244444,0.0770206309722221,0
mp-771658,Li2NiH12(SO7)2,4.8361,-1.6541776393246777,0.0402444824193537,0
mp-40830,NaSr3LaTi5O15,1.8642,-3.5201568290833323,0.0069482543799956,0
mp-8586,InBF4,4.532,-2.863618946904444,0.0,0
mp-764778,Li3MnO4,0.0,-1.9903128860575008,0.0616197884374987,0
mp-9264,NaTeAu,0.0,-0.5373049516666667,0.0,0
mp-984704,CaAgHg2,0.0,-0.3252882425000001,0.0176859766071426,0
mp-21510,K2NaInAs2,0.621899999999999,-0.4958194241666665,0.0,0
mp-567398,Sr3MgGeN4,1.4132,-0.8381012841133332,0.0,0
mp-680152,CdI2,2.3691,-0.5906093612222223,0.0015276373333332,0
mp-22337,Hf5Ga3,0.0,-0.4397406156249993,0.0,0
mp-9668,Ba3TiS5,1.4487,-2.2389167102199092,0.0033384163888872,0
mp-22923,BiPt,0.0,-0.02984323,0.2543423874999995,0
mp-773762,Li2MnFe(BO3)2,3.0858,-2.4644262038994436,0.0050254438888863,0
mp-865223,LuMgCd2,0.0,-0.2614936849999996,0.0,0
mp-29185,Te2O3F2,3.3825,-1.8819460908757144,0.0,0
mp-570438,Yb8Tl3,0.0,-0.3083368490909092,0.0,0
mp-557146,TiAs2O7,2.5598,-2.1912228485416683,0.0161017059999952,0
mp-566053,Na2VS2O9,2.6796,-2.271175980491072,0.0018607164880872,0
mp-542688,LaH6Au3C6(N2O)3,2.141699999999999,-0.5804998275899993,0.2026704196345994,0
mp-766903,Li2MnF6,2.8175,-2.8424588731222213,0.036033419259259,0
mp-631946,SnOs2Ru,0.0,0.5882760524999995,0.6636394841666675,0
mp-608071,NO2,0.8807,-0.6364783571822225,0.1881497355555534,0
mp-762709,LiTiFe2O5,1.5007,-2.424464610879631,0.0713034803869465,0
mp-8943,PtF4,1.1225,-1.5851256459520002,0.0,0
mp-31575,LiCo2P5O16,1.1541,-2.3908441998115086,0.0100468956249955,0
mp-772687,Li2Cr3Ni(SO4)6,0.519099999999999,-2.1043858528993047,0.0266847990972207,0
mp-779703,Na4Sn5O12,1.409599999999999,-2.048358736190476,0.0562606852380911,0
mp-778512,LiFeF4,0.0,-2.82590797496,0.1018388301851951,0
mp-569017,PdI2,0.8733000000000001,-0.2334644533333332,0.0162378950000006,0
mp-770853,Li2CoPO4F,2.6148,-2.582939199781693,0.0173078041666583,0
mp-24932,FeBiO3,1.9066,-1.7496495717499996,0.0202509232500007,0
mp-559940,AlS2NCl6,1.6801,-1.1759212370065,0.01130075434533,0
mp-971661,Si,1.3309,0.0815895786956522,0.0815895786956524,0
mp-4316,Sr(NiAs)2,0.0,-0.664972378000001,0.0,0
mp-21604,Sm3InS6,0.9908999999999992,-2.0972715931875,0.0,0
mp-862378,Sc2TcAu,0.0,-0.5049066500000006,0.0,0
mp-1027305,Te4Mo3W(SeS)2,0.0,-0.5439799637760423,0.0747338400000012,0
mp-567225,SiNi2(P2O7)2,4.3349,-2.4643877649943304,0.0021313088095009,0
mp-645305,LiFe(GeO3)2,2.7405,-2.135560614250001,0.0,0
mp-696886,KH(CN2)3,0.0,0.3841911886000004,0.6667722212412102,0
mp-977391,LiNd2Os,0.0,-0.0833578949999998,0.0,0
mp-7373,CdAs,0.0928,-0.0783457837499996,0.0148486946875001,0
mp-770707,Li2AlFeO4,3.0695,-2.5619872115625,0.0244696881250003,0
mp-1025682,Te4Mo(WSe)2,0.3641,-0.2757072885763902,0.0362172647222216,0
mp-14002,Ba4GeAs4,0.823399999999999,-0.9725512801388894,0.0,0
mp-867834,LiHfPt2,0.0,-0.9491324362500002,0.0,0
mp-14474,Ta2PtSe7,0.0,-0.6322276455156249,0.0,0
mp-560870,BaGa2B2O7,3.9802999999999993,-2.7762412610069447,0.0,0
mp-756188,LiCu3O4,0.0,-1.1568231393749997,0.0479901675,0
mp-773405,Cr3Cu(PO4)4,0.0,-2.37899655343254,0.0479163647395832,0
mp-8446,K2CuP,1.1421,-0.3320455057738094,0.0,0