mpid,formula,BG,FE,e_hull,fidelity
mp-775044,LiVO3,2.087199999999999,-2.3286972667500003,0.1100415660000351,0
mp-977427,Zn2PtRh,0.0,-0.5124394099999998,0.0,0
mp-10366,Nb2Co3Si,0.0,-0.4467702408333321,0.0,0
mp-16861,Na5GeAs3,0.4837,-0.4018168349999997,0.0,0
mp-767118,Li2Mn2OF6,1.3434,-2.7623353995736353,0.0830948978409065,0
mp-771527,Mn3FeNi2(PO4)6,0.0,-2.2603481475403178,0.0247974903125012,0
mp-25706,MnH8(ClO2)2,3.8803,-1.439022567429333,0.0158556403333323,0
mp-645700,Ba14Na11Li5N6,0.0,-0.2567846905355553,0.0488954344086014,0
mp-722684,KAlP4(H2O7)2,5.653,-2.4853058580983736,0.0,0
mp-753532,Nb2O3F2,0.2096,-3.0481885415900005,0.0079963520237971,0
mp-849360,LiV2CrO6,1.1219,-2.362003826083334,0.1012813503749843,0
mp-776199,AgClO3,3.113099999999999,-0.5290619294020005,0.0188713429999962,0
mp-605646,RbBa2N15,3.8238,-0.484626184205555,0.0075728363888902,0
mp-20740,Tl4Te3Pb,0.1101,-0.327577431875,0.0,0
mp-769973,Li3CrBO5,1.9829,-2.3635704817916667,0.1025237093055482,0
mp-510062,CsSmCdSe3,2.0217,-1.371213508046874,0.0,0
mp-615503,CrPC5Br3O5,2.243,-0.7221953954563494,0.5387953394074074,0
mp-708184,H10C5S2N2(O2F3)2,5.8112,-1.054510076249138,0.3102087850088937,0
mp-775965,Fe3Cu2Sn(PO4)6,0.0,-2.245885382043651,0.0538726488888343,0
mp-768141,Na2DyPCO7,4.5321,-2.7835909100843264,0.0239583925000008,0
mp-23206,BiPd,0.0,-0.3039108381249997,0.0167328293749999,0
mp-570255,Pr(AlGa)2,0.0,-0.43987075,0.0,0
mp-5080,Ba5Mg18Si13,0.0,-0.2815932913888888,0.0,0
mp-862752,SmBiPd2,0.0,-0.7223843993749997,0.0,0
mp-510347,In5S5Br,1.109999999999999,-0.8652723695738644,0.0,0
mp-554993,Pd3(PbS)2,0.0,-0.6096268125892861,0.0,0
mp-754158,KNdO2,3.7108,-2.9711695825,0.0,0
mp-765150,LiSn4(PO4)3,2.647,-2.2937603152142856,0.0797598523333329,0
mp-5069,La(MnSi)2,0.0,-0.5399649620000005,0.0,0
mp-513,ErGe3,0.0,-0.4414342937499995,0.007031872083334,0
mp-10481,RbAg3Te2,0.279399999999999,-0.3942376733333329,0.0,0
mp-3978,SrSiO3,4.6251,-3.4586034044166665,0.0,0
mp-14676,NdTa7O19,3.1661,-3.4413855428240736,0.0,0
mp-865464,PmSi3,0.0,-0.2951920756250006,0.0,0
mp-778725,Na2FeO3,0.0494,-1.6788635381249997,0.0516229074999996,0
mp-999208,Sc2MnSi,0.0,-0.2803613150000004,0.2691420060119061,0
mp-862493,LiEr2Al,0.0,-0.2074711125000004,0.0,0
mp-769585,Li4Mn3Co3(TeO8)2,0.0,-1.7770172676028568,0.076426389159204,0
mp-753183,CaH4SO6,5.346,-2.0560867955035427,0.0364092354166638,0
mp-28812,Ag5BiO4,1.459,-0.6725069009999999,0.0,0
mp-768285,Be2GeO4,3.990299999999999,-2.709481998333333,0.0,0
mp-722188,NaCa4Si8H16O28F,4.8688,-2.535685535415689,0.0185279490732757,0
mp-973779,Nd2CdHg,0.0,-0.3910294575000002,0.0092366924999995,0
mp-505104,Cu3BiSe2ClO8,0.0,-1.2151433360298332,0.0,0
mp-541915,K2Ag(AsSe2)3,1.319999999999999,-0.4649686649218753,0.0,0
mp-626268,Ba(H8O5)2,3.904,-1.4957011007562957,0.0004246914814833,0
mp-5610,Ca(AsRu)2,0.0,-0.6541335040000007,0.0,0
mp-673134,LiSn2P3O10,2.898,-2.432524240111608,0.0582933663020766,0
mp-771373,Li6FeCo3(PO4)6,0.8029000000000001,-2.385514575464286,0.0554008725937427,0
mp-858,TmAl2,0.0,-0.5003971366666669,0.0,0
mp-849529,MnH12S2(NO5)2,4.2456,-1.413254858140184,0.0616216955555604,0
mp-771489,Li2NiCSO7,3.4721,-1.992411676692708,0.0642077304166663,0
mp-730585,LiBH2OF4,7.129,-2.6328071455462965,0.0121322791666651,0
mp-646878,In4SnS4,1.1714,-0.7836029127777783,0.0,0
mp-762561,LiFeP2O7,2.5368,-2.529413095903679,0.0581524200000851,0
mp-755198,Cs3LaO3,1.7439,-2.164568670535715,0.0126076653571436,0
mp-7433,NaCuSe,0.0512,-0.5980325961979164,0.0,0
mp-974981,Rb3Mg,0.0,0.1719565125000001,0.1719565125000001,0
mp-548505,FeCoPO5,1.7627000000000002,-2.187454817105654,0.0011672916666398,0
mp-583052,LuCuPbSe3,1.0381,-0.9865704284635418,0.0012876966666661,0
mp-3042,K2SiF6,7.2224,-3.4511969141266667,0.0,0
mp-567919,Al45V7,0.0,-0.1508478119230776,0.003179173076921,0
mp-775210,Sb3P6WO24,0.191399999999999,-2.3608644415756297,0.0328587380330809,0
mp-706269,MgNb5O9,0.0,-1.82718452675,0.9701353020740752,0
mp-1018031,KInO2,2.078899999999999,-1.9396882581249997,0.0,0
mp-8601,Te4Mo3,0.0,-0.2449559099999996,0.0,0
mp-1243,Ga2O3,2.4019,-2.25145319875,0.0294096560000038,0
mp-764548,Li5Fe8(BO3)8,1.346899999999999,-2.3773244394074067,0.0407741940416697,0
mp-565581,BaFe12O19,1.2163,-1.9312320321484384,0.0324676832812489,0
mp-643743,CuHClO,0.0,-1.0335627264075002,0.0581705196874979,0
mp-608320,NbNi2BO6,2.7318,-2.190931136166668,0.0,0
mp-28871,In3SnI5,2.003999999999999,-0.4875620358333329,0.0004737736111115,0
mp-764734,Mn3VSb2(PO4)6,0.023499999999999,-2.422544071706985,0.0825934795138874,0
mp-14192,Na2UF6,0.0,-3.560289736348889,0.0279427155555573,0
mp-19828,PuRu3C,0.0,-0.0377098038750006,0.0,0
mp-560899,CaB3H5O8,5.5945,-2.327075686064706,0.0099389217647036,0
mp-690452,LiMn4(PO4)3,2.8719,-2.555898886156285,0.0386773364999974,0
mp-864651,Ta2NbRu,0.0,-0.2592761337500011,0.0,0
mp-540471,LiMn(PO3)3,3.9814,-2.607733396892552,0.0456055353571391,0
mp-763235,LiMnPO4F,0.9038,-2.6127237275306534,0.0291454850000043,0
mp-643656,Li5H9Pt2,0.0,-0.5028644404737497,0.0,0
mp-30177,Y(Al2Cr)4,0.0,-0.217120734038462,0.0129084135384562,0
mp-558135,Ti4S8Cl6O,1.6012,-1.8026091189461408,0.0,0
mp-777810,Ge11N11O5,0.0,-0.6399303921270364,0.148054763518517,0
mp-752538,KSnO2,2.1921,-1.913151901875,0.0173309160937478,0
mp-775774,AgBiO3,0.0,-1.040698218750001,0.0253295520000014,0
mp-8,Re,0.0,0.0,0.0,0
mp-764339,LiNbTe2WO12,1.8301999999999992,-2.0035858473529413,0.0156706010294129,0
mp-25537,Fe(WO4)2,0.0,-1.8934523063636368,0.1235327378977224,0
mp-867171,SrLi2Sn,0.0,-0.47524877625,0.0,0
mp-17105,Hf9V4S,0.0,-0.2520092549330367,0.0165388274999997,0
mp-752584,Na5Cu7O13,0.0,-1.1717482648500004,0.0862918635999978,0
mp-2068,RhF3,0.862599999999999,-1.8548444471425,0.0,0
mp-28495,ZrBr2,0.0,-1.2400776033333338,0.0332221083333319,0
mp-625873,Ba(HO2)2,2.9433,-1.4727123846057144,0.1039540257142848,0
mp-3676,MgCu4Sn,0.0,-0.1265014008333332,0.0,0
mp-28769,K(SnSe2)2,1.1675,-0.6062773013392854,0.0,0
mp-777556,LiVF4,2.4551,-3.154466862460002,0.0742560441666757,0
mp-973068,ScCuO3,0.0,-1.84734024275,0.5661511983750005,0
mp-978535,SmDy3,0.0,0.0166803043749999,0.0166803043749999,0
mp-697284,KH3SO6,4.5855,-1.6748253663565913,0.0351730739204541,0
mp-20525,CuSO4,0.0,-1.628902631093749,0.0,0
mp-2652,Y2O3,4.0531,-3.98861005775,0.0,0
mp-21057,La(GePt)2,0.0,-0.8742139559999998,0.1035180760000002,0
mp-510341,Cs3Ge4Au,0.9304,-0.2885353793749998,0.0,0
mp-3285,Na2Ta4O11,3.4657,-3.208583887867646,0.0,0
mp-863868,Li2VF5,3.0374,-3.15709043886875,0.0684313777083227,0
mp-867826,DyMgHg2,0.0,-0.4579296316666668,0.0,0
mp-13466,Sm(SiAu)2,0.0,-0.6003901324999994,0.0,0
mp-769014,Ho2(SeO3)3,3.9351,-2.364901108002233,0.0,0
mp-777566,LiVF4,2.1702,-3.212364049960002,0.0163588566666756,0
mp-21191,USiPd,0.0,-0.4839451341666662,0.0430626294117644,0
mp-5263,Ca4P2O9,4.4843,-3.3386475304960324,0.0,0
mp-567057,LuMoClO4,2.8844,-2.743724089037142,0.0,0
mp-773735,NaLi5Fe2P2(CO7)2,4.0232,-2.3705262645650182,0.0318700990384615,0
mp-540419,MnPO4,0.4366,-2.35618172734254,0.1016469554166743,0
mp-1006226,ZnBi,0.0,0.113662175625,0.113662175625,0
mp-631577,BiAs2Os,0.0,0.8081880975000004,0.9731760125000006,0
mp-696020,CaRe2H6C(NO5)2,3.3871,-1.7349847071127262,0.0316050439159569,0
mp-864916,Hf2TcRh,0.0,-0.7857957674999998,0.0,0
mp-656887,Ni3O4,0.381499999999999,-0.8222328285714288,0.0,0
mp-764703,Li3Fe4(BO3)4,1.5781,-2.385622432898551,0.0312069682608822,0
mp-770212,Li6Ti2S6O,2.2271,-1.761910512263889,0.0500996861111113,0
mp-1007853,Fe3Ni,0.0,0.0286760075000005,0.0624866375000001,0
mp-13680,BaBOF3,5.8868,-3.522398834414444,0.0961878170192305,0
mp-973540,LuAlB4,0.0,-0.4949211411111101,0.0035342241666675,0
mp-28585,Nb3ICl6,1.0699,-1.5194640473310002,0.0,0
mp-555625,C2SClO4F3,5.053599999999999,-1.6319127946265917,0.2092376546590868,0
mp-21546,K2CeNb5O15,0.0,-3.0980684412499984,0.0066412484057956,0
mp-29630,Li7Ge2,0.0,-0.3204559244444442,0.0086225084259257,0
mp-505092,K3FeO4,0.243299999999999,-1.61584431,0.0,0
mp-676598,TlPbCl3,2.6017,-1.4289068434560002,0.0346511962499995,0
mp-16594,K3TbSi2O7,3.688,-3.0952518765705133,0.0,0
mp-765075,LiVFeP2(HO5)2,1.530499999999999,-2.3579335036821845,0.0061561614607859,0
mp-763482,VPO5,2.270299999999999,-2.506180149906462,0.0097977135714675,0
mp-849942,Na4VO4,0.9879,-2.0715308277777784,0.0,0
mp-570823,Ba(BSe3)2,1.6958,-0.5762119233217591,0.0,0
mp-7915,ZrSiO,0.0,-2.003446910416669,0.2520143104166497,0
mp-764775,Li7VO5F,1.9844,-2.348545412317144,0.0673604626785735,0
mp-1029121,Te2MoWSeS,0.0,-0.5308332496093762,0.0602619758333338,0
mp-998758,TlHgF3,2.1963,-1.857781730714,0.0,0
mp-706611,LiBeH4NF4,6.5775,-2.182234407874546,0.0246253992992429,0
mp-30880,Tb2Zn17,0.0,-0.2353093221929823,0.001636675263158,0
mp-762510,Li4Ni5Sb3O16,0.0,-1.5748999980357137,0.0546650066964273,0
mp-15335,Lu2Cu2O5,0.283999999999999,-2.6701306501388893,0.052770939861114,0
mp-540188,LiMnP2O7,1.1437,-2.5639454428091346,0.0284228659090901,0
mp-5207,Sc(PO3)3,5.1542,-2.9932841317719774,0.0,0
mp-25180,Nd2WO6,3.7285,-3.2467213033333335,0.0,0
mp-27844,NiP,0.0,-0.4338474615476189,0.0184100291666657,0
mp-781055,Fe3OF5,0.0,-2.505027466911111,0.080423086666677,0
mp-687239,K5YNi2(NO2)12,1.4293,-1.1725983186604532,0.1680776872971936,0
mp-8426,K2Se,2.0909,-1.10170984953125,0.0,0
mp-763641,LiFeSiO4,2.9586,-2.598624266607143,0.023392886964288,0
mp-699261,CdH16C4S4(N4Cl)2,3.1973,-0.5810400747780006,0.033497196371437,0
mp-774303,Li6Mn5Fe(BO3)6,2.6115999999999993,-2.5070778040916677,0.0010843505092568,0
mp-560569,KPrPdO3,0.597799999999999,-2.277124246458334,0.006683118749998,0
mp-558403,P2Pb(XeF6)3,2.4778,-2.140947849067103,0.0,0
mp-571622,Be12Pt,0.0,-0.0917910284615387,0.1206735573076924,0
mp-764852,V6O5F19,1.942,-2.751515357128667,0.0275466214166533,0
mp-567301,YbHg6As4Br7,0.0,-0.5105634138888888,0.0785482644444441,0
mp-777948,Mn6O5F7,0.0,-2.4417504664077776,0.055263229791663,0
mp-761857,LiNb(BO3)2,3.047799999999999,-2.8154402515833343,0.0884131048571426,0
mp-567377,Ba(AlSi)2,0.0,-0.2432655320000002,0.0517466565000015,0
mp-570604,TaN,0.0,-1.1207830686899989,0.2438797308333331,0
mp-559969,CaLaGaO4,3.4555,-3.234455415,0.0,0
mp-780260,TiGeO3,1.134899999999999,-2.6981817250833338,0.0413064019999982,0
mp-28276,K2PrBr5,4.007,-1.878146801875,0.0,0
mp-7070,Mn3PtN,0.0,-0.3856236764759984,0.0005351059999991,0
mp-761019,Hf2N2O,2.1159,-2.453933206702,0.0960646129999958,0
mp-770262,Li2Mn2(SO4)3,4.3938,-2.256674709953028,0.0082231876315779,0
mp-643586,CsHS2(O3F)2,5.6582,-2.156431455552084,0.0,0
mp-673679,Li3MnP2,0.0,-0.5296499060317453,0.1419144041666662,0
mp-565386,Y2(MoO4)3,3.9229,-2.7478334772058823,0.0,0
mp-674412,Ce8U2O21,0.0,-3.781385562782259,0.1231425730645146,0
mp-850536,BaGa12O19,1.9291,-2.346900912148437,0.0151011543750012,0
mp-21062,YbMnGe,0.0,-0.3286318905555545,0.1178279269444448,0
mp-1018954,PuSe2,0.0,-1.276616548020833,0.0,0
mp-770590,VGa2O5,1.6995999999999991,-2.31323275203125,0.0439093699999997,0
mp-388,ErPb3,0.0,-0.2256536687499997,0.0,0
mp-585226,Li3Fe2(PO4)3,2.4816000000000003,-2.5427183542142857,0.0294459683749996,0
mp-1017000,MgZrO3,0.631699999999999,-2.85780627875,0.6682193389999984,0
mp-756817,Li5Cu5(SbO6)2,0.0,-1.634757229375,0.0593501072916646,0
mp-559965,Sr5As3ClO12,3.8285,-2.7729737515838093,0.0,0
mp-999454,NaVS2,0.0,-1.3451863332812517,0.0242858990178493,0
mp-560827,MgH8C4(N3O2)2,4.7911,-0.8168300814452174,0.1402765578743956,0
mp-686701,Nd3O2F5,3.947899999999999,-4.060572147595002,0.2223050836666678,0
mp-773185,Gd2W2O9,2.8302,-2.917494770480768,0.0137891517307249,0
mp-24456,SrH2N2O5,2.2801,-1.5393386063250003,0.0508949754762673,0
mp-541317,KTi3Si2P6O25,0.0,-3.0152085551303096,0.0053685320778633,0
mp-191,YRh,0.0,-0.8578461012499998,0.0,0
mp-561827,Cs3TlF6,3.3218,-2.671614938214,0.0,0
mp-1256,HoGa2,0.0,-0.6236631283333333,0.0,0
mp-1029776,Li2GeN2,2.6889,-0.5775384949519996,0.0,0
mp-764980,LiMnF5,2.2836,-2.6762418702728565,0.0332676397916733,0
mp-19611,ScZnMo3O8,0.8052,-2.226786056923076,0.1924402955288453,0
mp-30377,ErPbAu,0.0,-0.6567710150000003,0.0,0
mp-978991,TmMg5,0.0,0.0167728349999999,0.0431262963333334,0
mp-777654,Mn3O5F,0.0,-1.9497161078133332,0.0569799401388992,0
mp-23752,Cs2MgH4,2.9953000000000003,-0.30184693064,0.0068691122857131,0
mp-11793,SmCuSe2,0.7755999999999991,-1.236206859296875,0.0,0
mp-777220,LiFe3(OF3)2,1.5802999999999991,-2.5124725208033323,0.0917428546759282,0
mp-974865,NdY3,0.0,0.0149856437499993,0.0149856437499993,0
mp-1029153,TeMoWSe2S,0.0,-0.6483465702083334,0.0426181641666669,0
mp-685068,YbBr3,0.0,-1.3483221999999997,0.2342038337499988,0
mp-696806,BaH4(BrO)2,4.3426,-1.6597703946644446,0.0100626976388884,0
mp-556541,InSb2S4Cl,1.5135,-0.8720295961887503,0.0,0
mp-614895,Pu3In,0.0,1.0847143523437506,1.1821094915624997,0
mp-1028975,Te2MoWS2,0.0,-0.6492744813541668,0.1178645566666665,0
mp-777449,Li4V5SnO12,0.3014,-2.348709972272728,0.1064367478977104,0
mp-10063,CdSnSb2,0.007,-0.0410185637500002,0.0,0
mp-12063,Ce(AgGe)2,0.0,-0.3773290420000002,0.0,0
mp-14373,Y3B7W,0.0,-0.5822014353787882,0.0,0
mp-771384,Lu2Co2O7,0.0,-2.48103572125,0.0207032303409091,0
mp-706239,NaCa2Mg2V3O12,3.3296,-2.8665323055000003,0.0,0
mp-695095,Ca19Si6S6(ClO24)2,3.9751,-3.108998792603643,0.0449592409259258,0
mp-557492,LiLa5Ti8O24,2.0496,-3.6359476392982457,0.0441199226151329,0
mp-764035,Ni3OF5,0.7108999999999991,-1.8051987530222224,0.0756518416203704,0
mp-772375,Fe5Sb(PO4)6,2.193799999999999,-2.4023855837103185,0.0191177732986096,0
mp-30234,Cs2WCl6,0.0,-1.80983392884,0.0,0
mp-781605,Co2O3F,0.0,-1.3468993820733337,0.103849748958333,0
mp-780138,Li3V2(SiO5)2,1.5817,-2.715893933970587,0.0646525817647036,0
mp-631519,TlBCl2,0.7963,0.4294968979533333,1.557837658888888,0
mp-19027,Na5CoSO2,1.138699999999999,-1.3337293479513888,0.0122451219444537,0
mp-546790,LaCuTeO,1.196599999999999,-2.0771265053125,0.0069480406250006,0
mp-4139,Nb4GaS8,0.0,-1.4008647000000007,0.0346467600641027,0
mp-770728,Li3CrO4,0.0,-2.117378306458333,0.0737958579166662,0
mp-778715,LiMn2F5,3.0496,-2.9489809264525,0.0867376314062502,0
mp-769171,SiGeO3,2.8185,-2.4929557165000005,0.1060615667499993,0
mp-27891,Bi2SO2,0.8247,-1.3797532923124998,0.0,0
mp-5518,GaAgSe2,0.248399999999999,-0.4540553717968749,0.0,0
mp-569120,NdPt3,0.0,-0.839690981875,0.0337521575000021,0
mp-178,ThAl,0.0,-0.3194816375,0.0223799358333334,0
mp-505315,Ba2LaCu3O8,0.0,-2.055645765,0.0574488194285711,0
mp-7293,HgPSe3,1.2004,-0.1239304992752977,0.0,0
mp-12543,Dy3Pd2,0.0,-0.7379621069999999,0.0,0
mp-861882,LiGeIr2,0.0,-0.3964344037499998,0.0,0
mp-14036,KRb2RhF6,2.1662,-2.647049850714001,0.0,0
mp-29752,NiGePt2,0.0,-0.3392754450000002,0.0,0
mp-771478,Mn3Fe2P6WO24,0.0,-2.4207618244847615,0.0799833452456457,0
mp-15645,Ag8SnS6,0.535099999999999,-0.3911430369583338,0.0,0
mp-5529,MnFe2Si,0.0,-0.3289585000000006,0.0,0
mp-850955,LiFeP3(H7O8)2,3.934099999999999,-1.8509425285704488,0.0327544569999966,0
mp-5380,Ca4P2O,1.2714,-1.768406189634354,0.0,0
mp-11091,NdMgPt,0.0,-0.8987670736111113,0.0,0
mp-7507,Sr3Li2,0.0,-2.9964999999876345e-05,0.0,0
mp-1029505,Ba(MoN2)2,0.0,-0.6902469985028561,0.0,0
mp-763144,Mn6OF11,0.0,-2.8616491780611115,0.0276186367361157,0
mp-16795,CaAlF5,7.1355,-4.049970624778571,0.0032441746428579,0
mp-8606,BaSbPt,0.0,-0.9435567583333336,0.0,0
mp-766254,Cu(PO3)3,0.347899999999999,-2.2006096638873633,0.0186758689903783,0
mp-706281,NaH4CNO2,5.8252000000000015,-1.0099916682622228,0.1591768694444448,0
mp-752565,LiAg2F4,0.0099,-1.838610927108572,0.0359799064285701,0
mp-22703,Ni8Ge2B3,0.0,-0.3182705350000007,0.0,0
mp-12703,PrZnNi,0.0,-0.3592152705555552,0.0,0
mp-974437,Re2C,0.0,-0.0336004374999987,0.0,0
mp-13138,Cu3Sn,0.0,0.006261771250001,0.0194546337500005,0
mp-865446,Lu2AgHg,0.0,-0.4116867199999996,0.0,0
mp-631256,FeNiMo,0.0,0.5650715233333324,0.6101523633333352,0
mp-849664,Li4FeOF4,4.068099999999999,-2.812963275601001,0.0656170054999991,0
mp-3677,MgSiN2,3.9662,-1.364808819314999,0.0,0
mp-763141,LiMn2F9,0.9941999999999992,-2.4999176631358333,0.0828547601909734,0
mp-10712,ScRh3C,0.0,-0.5000679155000001,0.0,0
mp-16591,Tm4Si2S3O7,2.6506,-3.2980904130273436,0.0413879136718744,0
mp-763444,Li5V(PO4)3,1.5841,-2.6353906444897963,0.0932146378571472,0
mp-18515,NaGdSiO4,3.2325,-3.3043548082142857,0.0,0
mp-758632,NaH2C2N3O,3.7863,-0.6938883256255539,0.047323408796295,0
mp-11369,ErHg2,0.0,-0.3590727083333333,0.0155567466666664,0
mp-540691,Ba3YIr2O9,0.0,-1.4163999332500008,1.11091782585416,0
mp-15641,CaMgGe,0.0,-0.5648686383333335,0.0,0
mp-998366,RbSeBr3,0.0,-0.7697511417187499,0.0152876819531253,0
mp-770500,Na6Mn2B4SO16,1.4534,-2.3831427121603164,0.0225572498275914,0
mp-541081,NaMg2H3(SO4)2,4.898,-2.1598035249365624,0.0185802930253595,0
mp-213,CaPd,0.0,-0.6703663000000004,0.0,0
mp-863032,Sm3SiAgS7,1.793599999999999,-1.8816608942447928,0.0,0
mp-862705,AlZnIr2,0.0,-0.5866025662499998,0.0,0
mp-1003322,CaMnO2,1.9756999999999991,-2.633021015865,0.0230605174999993,0
mp-776218,LiV2O4,0.0,-2.4529230178571413,0.0674843089880443,0
mp-694856,V2Bi8O17,0.7101000000000001,-1.7037230244907415,0.1766118034259127,0
mp-764640,NaNi2O3,0.0,-1.0863493189583338,0.0365836391666816,0
mp-570595,DySiRu2C,0.0,-0.6155984578333346,0.0,0
mp-556596,AlP3(HO2)6,5.4786,-2.262088988909352,0.0121807100000026,0
mp-672184,RuC4(IO2)2,2.061099999999999,-0.8613871018181825,0.1115401677272718,0
mp-13250,LaSnPt,0.0,-1.0805650916666658,0.0,0
mp-559479,Co3C2(SeO5)2,2.0915,-1.4213996249816183,0.0788397898207753,0
mp-980392,TmScHg2,0.0,-0.4447840799999998,0.0061460700000002,0
mp-764248,Li2VCr(P2O7)2,2.1292,-2.7137966827218616,0.0009417063636458,0
mp-686673,Ba(Hf2As3)6,0.0,-0.508373643709677,0.3766892623118272,0
mp-542814,SiO2,5.5103,-3.280070626805556,0.0046422806944441,0
mp-981336,Zn3C,0.0,1.0613309643749995,1.0613309643749995,0
mp-850444,Na8NiO6,0.0,-1.3631288491666669,0.0296391471944437,0
mp-600005,SiO2,5.4398,-3.269037110625,0.0156757968749996,0
mp-974341,RuRh3,0.0,0.0514807512499988,0.0514807512499988,0
mp-676371,K5(Mo6S7)4,0.0,-0.8440841932236836,0.2644494700438589,0
mp-8039,AlF3,7.4171,-3.8898066871425008,0.0007604074999996,0
mp-16932,Th2Co17,0.0,-0.1113393873684219,0.0,0
mp-699531,Pr7Mn8O24,0.0,-2.8164768294276925,0.0279096206410631,0
mp-778734,Li6Fe3Sn(PO4)6,1.6764,-2.5275018258392863,0.0550820697499832,0
mp-7090,NaMgSb,1.0359,-0.5133507983333331,0.0,0
mp-559648,KBC4NF9,6.8492999999999995,-1.696972664516042,0.4086454571559326,0
mp-46,Ti,0.0,0.0072638383333325,0.0072638383333325,0
mp-676534,Rb8C4O7,0.038699999999999,-0.7481026962500003,0.8033945722916656,0
mp-756953,KSbPCO7,0.0,-2.152348270395022,0.0808410231818106,0
mp-686041,Li7Nb8O24,0.0,-2.853496168205128,0.0358049794711465,0
mp-721053,Hg3H4S2O11,1.737299999999999,-1.4517252153177502,0.0030958742175908,0
mp-555716,Tm2Ru2O7,0.0,-2.625549323522728,0.0432961955681907,0
mp-555921,PH9AuC3ClO3,3.3723,-0.7562636075102915,0.153030930425345,0
mp-10299,Ca4PdO6,1.822699999999999,-2.68153873659091,0.0,0
mp-690241,Zr2Cr2F3,0.0,-1.3570870069385703,0.8176013922321417,0
mp-762116,LiCu4(PO4)3,0.0,-1.9359600333392868,0.0721886400000073,0
mp-5046,BeSO4,6.9502,-2.4297438573437504,0.0,0
mp-2251,Li3N,0.984,-0.4606532405950001,0.0,0
mp-1378,LiC,3.2727,0.0139985887499998,0.0195567970833332,0
mp-27047,Li2CuPO4,1.4867,-2.3145578747619044,0.0537094996875016,0
mp-767318,Li6MnCoP2(CO7)2,2.0074,-2.3683777157557877,0.0522222011538433,0
mp-510321,Zr5AlSn3,0.0,-0.6000715127777786,0.0,0
mp-30648,LiMg2Ga,0.0,-0.1705265325000002,0.0,0
mp-632684,NaPH3NO3,5.1072,-1.768071001676137,0.0,0
mp-542874,LiAl(SiO3)2,5.303800000000001,-3.20735089325,0.0367451057222272,0
mp-770103,LiAlVO4,1.741,-2.766793302619047,0.084326519976206,0
mp-647489,CdI2,2.355,-0.5904724064285715,0.0016645921269842,0
mp-574486,Ag2CN2,0.999699999999999,0.2600982720480005,0.2600982720479994,0
mp-756970,Al2(SeO4)3,3.0578,-1.775572885634192,0.0,0
mp-865112,NaPrTl2,0.0,-0.27264469625,0.0,0
mp-19385,YMnO3,0.0,-3.050229201608665,0.0,0
mp-777019,Li8SbS6,0.0401,-1.3225161206250002,0.0636063233333334,0
mp-1029075,Te3MoWSe,0.006299999999999,-0.2527992089322914,0.0487815939583322,0
mp-5197,ErB2Ir3,0.0,-0.685152724722221,0.0,0
mp-562121,Mn2Sb2O7,0.3013,-1.982724358091212,0.0151596071212036,0