mpid,formula,BG,FE,e_hull,fidelity
mp-21443,Ce2Pd2Pb,0.0,-0.7347535990000005,0.0,0
mp-755902,Lu(HO)3,3.596,-2.3227625285157143,0.0536533164285701,0
mp-18776,CaCoP2O7,2.7472,-2.7562355799945877,0.0036057065909052,0
mp-744639,Cr2Hg2H2O9,2.1669,-1.3185845715659998,0.0162062618333251,0
mp-647985,V(CO)6,0.465999999999999,-0.8537387517307692,0.5590677421634656,0
mp-556046,SrGa2B2O7,3.9684999999999993,-2.7828364355902786,0.0,0
mp-971751,VRh,0.0,-0.3862231100000013,0.0,0
mp-9581,Th(CuP)2,0.1208,-0.7757862972380956,0.0,0
mp-865124,NaSr2In,0.0,-0.23730200625,0.0111370493382354,0
mp-23706,YH3,0.0405,-0.7115595108400002,0.0,0
mp-758073,Re6Pb6O19,0.0,-1.7892391238306458,0.0075483495161305,0
mp-777090,LiV2P4(HO8)2,0.9558,-2.4272251791848385,0.0531531350000058,0
mp-865531,TiMn2Al,0.0,-0.330795666666666,0.0,0
mp-767982,Li3Mn2(SiO4)2,0.0,-2.6047948167946657,0.0901373652499852,0
mp-10776,K2Sn(AsS3)2,1.0089,-0.9641156299431825,0.0,0
mp-1028419,Te2Mo3WSe6,0.0,-0.5201386634635412,0.0224008366666668,0
mp-36538,La2PbS4,2.154899999999999,-2.0786745594642864,0.0199254849999999,0
mp-768207,Li2SbPCO7,3.2196,-2.254108286195437,0.0627761361111112,0
mp-24890,Na4Co7(PO4)6,2.3581,-2.2987288492334503,0.0207913312195167,0
mp-504520,RbEu3F10,0.0,-3.7352633504928567,0.0,0
mp-1030794,RbNaMg6O7,0.0,-2.2327647642500006,0.4803057062499994,0
mp-555495,K3Y(BO3)2,3.1813,-2.851736198611111,0.0,0
mp-753123,Li2CuF4,0.254,-2.5744078449657133,0.0210771535714293,0
mp-6297,CaCu(GeO3)2,0.0,-2.15483912725,0.0576545106000177,0
mp-662720,P2SN3Cl5O,3.7852,-0.8800483043008042,0.1407937745327778,0
mp-7421,KZnAs,0.2762,-0.4743590233333333,0.0,0
mp-16590,Tb4Si2S3O7,2.606499999999999,-3.312438912610677,0.0053854413281246,0
mp-763353,Fe4O5F3,0.0,-2.022754714568334,0.0807093130729175,0
mp-22888,CaBr2,4.5304,-2.04612349,0.0,0
mp-643573,Mg3MnH7,1.6630999999999991,-0.3356355186672731,0.0,0
mp-559020,KBi(PO3)4,4.8932,-2.5685677273544973,0.0,0
mp-24813,LaFe5H2,0.0,-0.076211535905001,0.1948584637499992,0
mp-676666,Rb2CeO3,2.1298,-2.7243911214583334,0.0,0
mp-971648,GaP,0.0,0.0725970059523808,0.4810327800000005,0
mp-504727,EuBrO,0.0,-2.5503583854166667,0.0,0
mp-11107,Ac2O3,3.522599999999999,-3.76040157775,0.0,0
mp-761501,Mn2CoO6,0.0,-1.5596268077133335,0.0266734369444412,0
mp-504353,LiSb(PO3)4,4.6567,-2.537310478743388,0.0,0
mp-28733,Sc3C4,0.0,-0.4049206579999999,0.0,0
mp-772191,Tm2TeO6,3.0533,-3.0696450145370373,0.0,0
mp-505148,ThPbI6,2.4192,-0.99260314625,0.0339259315625009,0
mp-770584,Sr3WO6,3.4214,-2.9992594197499995,0.0043387374999985,0
mp-621667,Eu3Ag2,0.0,-0.2590926210000006,0.0,0
mp-674363,Zr3Sc4O12,3.9473,-3.888279655526316,0.0243315385526301,0
mp-776213,Hf2N2O,2.031799999999999,-2.5451881057020023,0.0048097139999931,0
mp-777233,BaYF5,6.6724,-4.304210491207143,0.059667752142861,0
mp-560275,PNF2,5.8154,-2.0600435350888096,0.0177259068749995,0
mp-669543,RbHgC3(SN)3,1.9375,-0.2711497410752266,0.1348591653896091,0
mp-4072,Sm(SiRu)2,0.0,-0.8996173104999997,0.0,0
mp-778274,Dy5Ti5O17,0.0,-3.7218770915895063,0.070284058426008,0
mp-1016837,SnHgO3,0.0,-1.1963380097499994,0.3372345775000003,0
mp-768110,Li2Ti3CoO8,2.441599999999999,-3.0051650846428566,0.0,0
mvc-13158,CaVO3,0.5509000000000001,-2.9368372652500008,0.0,0
mp-774171,Li3Mn2(SiO4)2,0.0,-2.608120122794667,0.0868120592499837,0
mp-30315,Ca3BN3,0.5682,-1.240787770543809,0.0,0
mp-706304,H18RuC6S3N3ClO3,2.5151,-0.4734972582570704,0.2905703095857133,0
mp-153,Mg,0.0,0.0103439300000001,0.0103439300000001,0
mp-548,NbCr2,0.0,-0.0373656533333329,0.0,0
mp-626794,Ni(HO)2,1.8011,-1.1767993559479997,0.0152273219999985,0
mp-770371,Li4Ti3Mn2Fe3O16,0.6458,-2.5018247918542857,0.0538510237372804,0
mp-6668,LiTiPO5,3.059199999999999,-3.0633039820014885,0.0,0
mp-720212,Rb9Na2Al11Si13O48,2.4145,-3.0909132953012053,0.1124542972439694,0
mp-684497,LiBi(PO3)4,4.6449,-2.5509142126322755,0.0323342313889014,0
mp-20021,DySn2,0.0,-0.5936046105555567,0.0,0
mp-23505,K2TeBr6,1.9579,-1.02405774,0.0231330555555553,0
mp-862660,LiEr2Rh,0.0,-0.5203345175000003,0.0043828775000003,0
mp-696132,Zr5ZnPb3,0.0,-0.3265535777777784,0.0,0
mp-6956,La(FeP)2,0.0,-0.9890030932380952,0.0,0
mp-22981,TlIO3,2.763299999999999,-0.9832291037500006,0.0,0
mp-705344,CdFeSn(PO4)3,2.5692,-2.4300964549603177,0.0,0
mp-771928,Li3Ti4MnO12,0.0,-2.887677735631333,0.0648165713124946,0
mp-1019529,Ba8Al10B12O41,4.4373,-3.262121086073944,0.0,0
mp-769374,Li2B5SbO10,3.398999999999999,-2.6300866572685178,0.053548120648152,0
mp-17516,Ca10P6SeO24,3.747499999999999,-3.2844096333454926,0.0,0
mp-763535,LiP5W3O19,0.9576,-2.441237826222362,0.0968366048214601,0
mp-850136,LiFeOF2,2.4912,-2.627430933726001,0.0352096252222304,0
mp-571353,BaSn5,0.0,-0.3006989574999998,0.0076043866666659,0
mp-650336,PCN2Cl3,3.4966999999999993,-0.6271915633526526,0.0564497803147609,0
mp-20949,MnSiNi,0.0,-0.4905096974999997,0.0,0
mp-977187,La2MgTl,0.0,-0.27214057125,0.0080452730555546,0
mp-865500,Na2Hf2O5,1.9558,-3.1875119829166665,0.0,0
mp-560527,SiO2,5.3907,-3.27468426125,0.0100286462499994,0
mp-19810,TaNiTe2,0.0,-0.3824210399999997,0.0,0
mp-765611,Li10Fe3Co7O20,0.0,-1.8576654026250004,0.0180462808749952,0
mp-6254,Ba2TbNbO6,2.9904,-3.466542254083333,0.0,0
mp-14232,LiBO2,7.2811,-2.7437030760416663,0.0070091568749965,0
mp-775057,Li2Mn(NiO3)2,0.760999999999999,-1.4941550434963635,0.0533617547222213,0
mp-772809,KSnPCO7,2.6819,-2.2920933326677497,0.0295608343181816,0
mp-557522,PCl2OF,4.9892,-2.0023714544110485,0.0,0
mp-753580,LiTiSiO4,0.0,-3.0537213880952376,0.0848998641666636,0
mp-5299,La2RuO5,0.0,-2.9698319817187486,0.0242609520833365,0
mp-30241,Mg5(HO3)2,3.8709,-2.670622096518461,0.0150613153846146,0
mp-2265,TbCo2,0.0,-0.1807815794444446,0.0,0
mp-504877,HoB7Mo3,0.0,-0.5603746378787868,0.0,0
mp-553924,Ag4PIO4,0.6932,-1.2060256148095234,0.0,0
mp-998231,KGeCl3,1.4962,-1.6195278569559997,0.0289651130000008,0
mp-1013713,Ba3BiP,0.0,-0.1471950186190479,0.7970912749166712,0
mp-853153,Li5Co2O2F5,0.0,-2.545691764532143,0.106386405000002,0
mp-23442,KCdCl3,3.5095,-1.811614235456,0.0,0
mp-866168,TiInPd2,0.0,-0.5776411691666672,0.0,0
mp-754327,Ho2CuO4,0.0,-3.114117977857142,0.052579988928584,0
mp-3551,TbAgTe2,0.9058,-0.9221789370833332,0.0,0
mp-769786,Li4CrO4,2.0888,-2.178730772222222,0.0189115711111131,0
mp-763797,Li2Mn2OF4,1.6239,-2.756751013103334,0.0972950733333339,0
mp-754192,Tm2TiO5,3.0448,-3.870867848489583,0.0611949299999992,0
mp-762921,LiMnF3,3.888,-3.0359020685726668,0.0288488173333325,0
mp-27261,Ba7(BIr)12,0.0,-0.4754795496774197,0.0,0
mp-3999,Y(SiPt)2,0.0,-1.0340737345000008,0.0566816109999992,0
mp-676828,ZnCuAs,0.0,-0.0163304583333333,0.0883880416666662,0
mp-8623,K2Te2Pt,0.7917000000000001,-0.8130496399999998,0.0,0
mp-13230,K3YF6,6.4613,-3.612909491464,0.0,0
mp-2215,ThHg2,0.0,-0.2640532816666668,0.0,0
mp-22517,EuYSi4N7,0.5528999999999991,-1.4428468603199986,0.0,0
mp-573514,CsSb,0.5556000000000001,-0.4575251856249998,0.0,0
mp-1018089,CaZnSe2,1.5191,-1.1602215530468754,0.2042256724999998,0
mp-771286,Li24Ti7Cr5O36,1.2749,-2.6772646869675936,0.0121134118055659,0
mp-774388,V4(OF3)3,1.279399999999999,-2.96378914715375,0.0014265812499871,0
mp-7092,TiSi,0.0,-0.7685568270833336,0.0,0
mp-998946,TlCdSe2,0.0,-0.3412693367968753,0.1106023125000002,0
mp-21082,Dy(GeRu)2,0.0,-0.6475380833333333,0.0,0
mp-775211,Ho2WO6,3.6157,-3.3300821149999997,0.0,0
mp-698317,NdH4C3O8,3.2944,-1.8894384004362497,0.0,0
mp-28543,Cs4ZrO4,2.7473,-2.306348662499999,0.0,0
mp-545467,Li3(CuO2)2,0.0,-1.5898122638888887,0.0121153394444437,0
mp-22907,DyBi,0.0,-0.8517679758333339,0.0,0
mp-555277,Rh7(PbO5)3,0.0,-1.281605518749999,0.0,0
mp-772510,YTh4O10,0.0,-4.138653966333332,0.0355920466250001,0
mp-557559,S,2.496299999999999,0.0410080241517855,0.0410080241517851,0
mp-534782,Ca18Nd2Si3P9(O16F)3,4.3443,-3.4585282398364714,0.0103443234638556,0
mp-558188,AgHg2AsO4,0.738599999999999,-1.070257356562499,0.0,0
mp-763580,LiFeO3,0.3317,-1.5274756292499994,0.1340085982500021,0
mp-11382,NdFe5,0.0,0.0360418854166664,0.0360418854166662,0
mp-555073,La3As2ClO7,3.149899999999999,-3.085156913808462,0.0,0
mp-561183,KCrF6,1.398,-2.6413063221425,0.0,0
mp-768345,Ba2B2O5,3.8444,-3.1479537963425916,0.0067765708333338,0
mp-779859,Li6MnFe5(BO3)6,2.8303000000000003,-2.425442578151668,0.005298562824076,0
mp-20962,Ni23B6,0.0,-0.190390237931034,0.0249238155172433,0
mp-780508,Fe5O7F3,0.0,-1.9003804861546665,0.0967515905833318,0
mp-10783,RbHoSe2,1.962,-1.7329410705468749,0.0,0
mp-23011,RbClO3,5.3151,-1.276209417402001,0.0347045124999967,0
mp-764794,Li2Mn2F7,0.5693,-2.947044240249999,0.0588536511363582,0
mp-30491,MgCd3,0.0,-0.0643517849999999,0.0,0
mp-1013544,Ca3SbAs,0.4018,-0.9025356659999996,0.1287334701274516,0
mp-631511,BiBTe,0.0,1.141610402777778,1.2703598572222226,0
mp-1019775,K2Ge(S2O7)3,3.7751,-2.0317040116875,0.0,0
mp-27127,Te4O9,2.2225,-1.46692012125,0.0018124651923026,0
mp-722880,BaRe2H12C3N6O11,2.9466,-1.3447222851848577,0.0018156024467286,0
mp-1527,TbCu2,0.0,-0.2680910377777774,0.0,0
mp-556564,SiO2,0.302,-2.199014132291667,1.085698775208333,0
mp-555678,Na4Ti5O12,2.4965,-3.1292061456349205,0.0,0
mp-582278,Tm4InRh,0.0,-0.5783618362500006,0.0,0
mp-410,YbPt2,0.0,-1.0897345683333337,0.0,0
mp-676324,Li11TiP5,0.365,-0.7186070227731094,0.0273881747058819,0
mp-20787,FeB,0.0,-0.3735499858333337,0.0048412212499995,0
mp-782658,V6O5F19,2.0247,-2.7536950877953337,0.0253668907499866,0
mp-772089,SrLaCl5,3.6632,-2.803538297864286,0.0602174901785703,0
mp-761712,Cr3Co3(TeO8)2,0.0,-1.5989551387499992,0.0722011067187589,0
mp-638078,CsTbZnTe3,1.371699999999999,-1.1072332847222224,0.0,0
mp-22479,Zr4Pd2O,0.0,-1.2567467183928571,0.0,0
mp-1023125,MgCuO2,0.0,-1.932590121875,0.0767223387499997,0
mp-976221,K3Sm,0.0,0.5562851093750001,0.5562851093750001,0
mp-428,PrMg3,0.0,-0.1221006724999998,0.0,0
mp-510593,Dy5CoSb2,0.0,-0.7110926854166673,0.0,0
mp-754998,Ce2SeO2,0.0,-3.2225945082187493,0.0457683219999989,0
mp-781772,Li2Mn3VO8,0.382199999999999,-2.177111627705715,0.0631642214285435,0
mp-560570,Rb2NaAl6F21,7.004199999999999,-3.7604833411663336,0.0,0
mp-12760,Zr6Al2Co,0.0,-0.344995192222222,0.0,0
mp-554289,AsS3(NF3)2,0.5929,-1.5602841807572918,0.0633407884574976,0
mp-1020179,Na6Si2O7,3.312999999999999,-2.5217177957500003,0.0085618631666628,0
mp-778604,Li3BiO3,2.8422,-1.8753157594642855,0.0945152360714276,0
mp-29568,RuS3Cl8,1.860199999999999,-0.869869050272292,0.0,0
mp-631568,AlAgB,0.0,0.8492806744444449,0.9142679731333324,0
mp-776334,Ti2N2O,0.9614,-2.140491013118667,0.0598710437619995,0
mp-20517,BPd3,0.0,-0.2566490072916663,0.0,0
mp-1332,Si3Mo5,0.0,-0.3898072662500009,0.0,0
mp-541627,K3Fe(CN)6,0.0,-0.2580039924550004,0.1262066650000006,0
mp-850283,HfNbO4,0.0,-3.352180325833333,0.1238213729166659,0
mp-20629,U(CoP)2,0.0,0.0460428537619051,0.8610018200000003,0
mp-772671,Li5CrO4,1.5454,-2.104008182125,0.0988087043750045,0
mp-620190,V2P4S13,0.1524,-0.8367346407996553,0.0096065593421048,0
mp-29719,LiNiN,0.0,-0.1873860807933324,0.195105131111112,0
mp-695398,Na3PH24SO15,0.793,-1.3724659766542655,0.1723882131818195,0
mp-977417,NdB2HF10,7.788500000000001,-3.369447526882382,0.0,0
mp-41742,CaNdTiMnO6,0.225299999999999,-3.249519330262667,0.0243323046249965,0
mp-720765,H3SNO4,5.0588,-1.2771383858113892,0.1598696175961347,0
mp-1001602,B12W,0.0,0.2106208538461537,0.2876893094871793,0
mp-23058,NdClO,4.766400000000001,-3.4747474706700014,0.0,0
mp-1291,ErIn3,0.0,-0.3829328987499996,0.0,0
mp-769911,MnCrO4,1.3462,-1.8806170530766668,0.0522869200000091,0
mp-616135,Cs5SiP3,0.8416,-0.365415522420635,0.0,0
mp-21871,CeCrS3,0.0,-1.7612670354375006,0.0,0
mp-556420,Rb2NaMn3F12,1.8271,-2.9588798415088893,0.0,0
mp-11953,RbHg11,0.0,-0.1110666119444444,0.0,0
mp-769668,Li2TiFe2O5,1.2397,-2.403565314791667,0.0615303950000045,0
mp-8891,K2Zr(BO3)2,3.4092,-3.000728610984849,0.0,0
mp-752404,Ba2Sb2O7,0.9781999999999992,-2.478582036704545,0.0377806672727274,0
mp-12908,ScAgSe2,0.6802,-1.0919243842968749,0.0,0
mp-1552,Mo2C,0.0,-0.1033534341666673,0.0,0
mp-10089,Ba5Sb4,0.2633,-1.0498155966666662,3.0910277780016315e-05,0
mp-560136,Cu3B4Pb2O11,0.0,-2.012522935270833,0.0368967804642883,0
mp-769851,ScCrO4,0.0,-2.633712211666667,0.0731364785416683,0
mp-20790,InPS4,2.3061,-0.8104082807242067,0.0,0
mp-4627,CoAsS,0.9407,-0.6613071613541663,0.0,0
mp-22883,PbI2,2.4224,-0.6708262266666667,0.0,0
mp-676937,Ta8Pb6O25,0.3283,-2.8708872179807687,0.0,0
mp-570156,Zr3Al3C5,0.0,-0.1813824743181814,0.3455082922727275,0
mp-557244,SiO2,5.1733,-3.1073847533333327,0.1773281541666662,0
mp-768009,Li5Cr17(SiO16)2,1.0661,-2.402831452857142,0.0675405521428551,0
mp-541550,Mg16Si8HO32,0.0,-3.1096623275196484,0.0695609023049135,0
mp-675668,Yb(PrS2)2,2.015,-2.491204605892858,0.0024562032142849,0
mp-850028,Li2Mn3(BO3)3,0.635999999999999,-2.4701756664194128,0.0473509973039032,0
mp-9987,Nb2PC,0.0,-0.7470472401488095,0.0,0
mp-556738,BaZrF6,6.3261,-4.1484440633925015,0.0028103787499995,0
mp-501,TaSe2,0.0,-0.8074698765625001,0.0085866791666662,0
mp-29742,NdSi2Rh3,0.0,-1.0121896312499992,0.0,0
mp-765696,Na4(NiO2)5,0.518899999999999,-1.1396291648684211,0.0,0
mp-767666,Li12Mn3VP4(CO7)4,2.6856,-2.4309454988511723,0.0595643551622577,0
mp-684093,LiBi(PO3)4,4.7432,-2.5376945666600537,0.0455538773611232,0
mp-117,Sn,0.0,0.0,0.0,0
mp-744914,Ca8MgAl6Si5O28,2.9092,-3.0594477701041662,0.4028580440624987,0
mp-769998,Li2CrFeO4,1.9855999999999991,-2.236302452291666,0.0020100552083421,0
mp-773617,Fe6O5F7,1.422799999999999,-2.2660113288655546,0.0908642688888932,0
mp-4483,AgAsSe2,0.0,-0.0760884430468746,0.0379640973611121,0
mp-720494,K4TeP4(HO2)10,3.584,-2.0536534157328448,0.0332908724358977,0
mp-554793,YH7C4O11,3.536699999999999,-1.7704569859386954,0.0380565744021739,0
mp-973175,ScBi3,0.0,-0.15082694125,0.1762507324999997,0
mp-28302,K4CdP2,0.8246,-0.3508728958843541,0.0,0
mp-556023,Nd3S2Cl5,3.1773,-2.6462645284425,0.0,0
mp-761723,Li2Si4Ni4O13,3.444099999999999,-2.334884456141304,0.0411340856521711,0
mp-27893,B5H9N,3.7727,-0.3164749234695553,0.0728872105611104,0
mp-770006,Al2CrO5,0.676099999999999,-2.8803128970312493,0.0417226499999774,0
mp-13335,Cd(BO2)2,3.343099999999999,-2.455930147261905,0.0365176404166662,0
mp-865309,Tm2CoIr,0.0,-0.596929995,0.0,0
mp-23686,CaCuH4(CO2)4,0.709199999999999,-1.4846267302488887,0.1747581481944449,0
mp-976289,NaCd2Au,0.0,-0.20382200125,0.0329197857812497,0
mp-697946,Cs2Zr2ZnH12(OF2)6,4.1025,-2.384647895149143,0.0887212355714277,0
mp-744843,Mo2AsH18C6NO12,2.7111,-0.5605752497510004,0.6426730007937511,0
mp-555388,K2S2NO7,1.9921,-1.892026500771249,0.1761772648016739,0
mp-22094,Tl2Ru2O7,0.0,-1.3194872007954546,0.0,0
mp-4374,UAsS,0.0,-1.3485225530208331,0.0,0
mp-759715,KLi2Sb(PO4)2,3.431399999999999,-2.491259750085033,0.0820674438293611,0
mp-556288,Li2ReO3,0.0,-1.9490690814583336,0.2092925382738153,0
mp-676703,Li3MnAs2,0.0,-0.3338488758333333,0.2309310462500012,0
mp-7049,ZrTlCuS3,0.6120999999999991,-1.3226052720312511,0.0,0
mp-757616,LiSn(PO3)4,0.0,-2.483112101521164,0.0794862010879517,0
mp-625950,Te(HO)6,1.5729,-1.198288765324615,0.1915192396153857,0
mp-555674,LuMn2O5,1.0698,-2.667117004458749,0.0,0
mp-557347,Ca2As3Pb3ClO12,3.435,-2.1697828811076185,0.0,0
mp-770226,Li3Cr3FeO8,0.0,-2.1622066636666673,0.1039161668677133,0
mp-2267,HoB2,0.0,-0.5955533961111108,0.0,0
mp-2291,Si2Ni,0.0,-0.3494270999999997,0.0,0
mp-755998,Zr3N2O3,2.660099999999999,-2.919573391063752,0.0,0
mp-631513,KBa2Re,0.0,1.2717147562500002,1.2717147562500002,0
mp-753958,GdAsO4,2.6976,-2.7238088150000004,0.0957953850000006,0
mp-999118,TcB,0.0,-0.126897108333333,0.2599328936363623,0
mp-23349,Bi(BO2)3,3.8401,-2.590146060250001,0.0015381844999922,0
mp-768284,Li3Sn(BO2)5,3.761,-2.627772927675437,0.0530815626315757,0
mp-25557,MnAsH2O5,1.4118,-1.7085088510499995,0.0,0
mp-774319,Li10Ti2Fe3Ni3O16,1.553,-2.110049096862746,0.0981638966486047,0
mp-1824,NdNi5,0.0,-0.2789416262500002,0.0,0
mp-779364,Li2CoBO4,1.4436,-2.204061236770833,0.0660485212499999,0
mp-39542,KRb2ZrOF5,4.5842,-3.38063418622,0.0210687097499979,0
mp-374,CrB2,0.0,-0.3410657211111119,0.0700930483333284,0
mp-971738,ZnCuNi2,0.0,-0.1124687912499995,0.011323323750001,0
mp-20657,Li2BPd3,0.0,-0.4582730644444446,0.0,0
mp-561196,ZnS,2.027,-1.1398867316741073,0.0004166228571396,0
mp-569496,Ce(SiAu2)2,0.0,-0.4522864814285715,0.0,0
mp-978842,SrCaO3,0.0,-2.19232721475,0.456265728,0
mp-764232,VO2F,3.0505,-2.4748475577975,0.0139120441666653,0
mp-865262,TmTaRu2,0.0,-0.4636722625000012,0.0,0
mp-558243,Ba2InClO3,1.914499999999999,-2.6581987688585715,0.0,0
mp-996979,BaAgO2,0.0,-1.743228851875,0.0278315087500038,0
mp-684592,HN,1.8061,-0.0206427986250004,0.3404320135816663,0
mp-779869,Li2MnV(P2O7)2,0.4282,-2.6623391914018617,0.0084291923674717,0
mp-8861,Rb2MgF4,6.2257,-3.363775153537143,0.0,0
mp-1453,NdSe,0.0,-1.837305653046875,0.0,0
mp-762899,Li2Ni2SnO6,0.5133999999999991,-1.5171147162878804,0.0628697011060621,0
mp-673156,Li2NbP4O13,0.405499999999999,-2.6874653269315485,0.0630568035428522,0
mp-571350,Ba(AsPd)2,0.0,-0.7737739339999997,0.0,0
mp-23227,CuBr,0.4302,-0.2126147849999995,0.041426565,0
mp-568384,ScB2,0.0,0.0687123172222214,0.9082124016666686,0
mp-41634,K2SnH2OF6,3.844699999999999,-2.5979753106774988,0.0232573883101858,0
mp-22259,Yb2Ru2O7,0.0,-2.310555298068181,0.0,0
mp-768983,Ba2YCl7,4.6338,-2.824836371282,0.0390170377499998,0
mp-557877,C2SeS2O7F6,3.6235,-1.7194639026449308,0.2319777169444421,0
mp-780316,LiCo2OF5,0.8738,-2.2476446416333333,0.0601000868055576,0
mp-27758,AlTl2F5,4.0814,-2.9904948144937498,0.0,0
mp-20566,MgIn3,0.0,-0.0430291924999997,0.0058619325000002,0
mp-978910,TbYRh2,0.0,-0.8500306764583332,0.0081434224999998,0
mp-1009538,PdC,0.0,1.2149132262500002,1.2149132262500002,0
mp-981539,Hf2IrPd,0.0,-0.8142437024999989,0.0,0
mp-776233,Li2Fe3SbO8,1.3362,-2.036915575357142,0.0104999875000029,0
mp-30568,Zn13Co,0.0,-0.0494902567857141,0.0,0
mp-559426,Pr2Zr2O7,3.462099999999999,-3.8489744780681807,0.0,0
mp-754936,DyAlO3,5.165999999999999,-3.7376813020833337,0.0407966384000015,0
mp-554315,CaBeB2O5,5.6922000000000015,-3.1311599971759265,0.0042543597222195,0
mp-541473,Sb(OF3)2,1.3717,-1.4877537660711115,0.3234094629861097,0
mp-510453,Ag3RuO4,0.0,-0.7243818534374986,0.0655204544791665,0
mp-13146,Ca3N2,1.478299999999999,-0.8396236049519998,0.0929924617499997,0
mp-1441,CsO2,0.0,-0.9820230141666664,0.0,0
mp-20165,Ce2InPd2,0.0,-0.755933933,0.0,0
mp-3970,K2TiF6,4.7349,-3.5601821115340733,0.0,0
mp-997101,AgO2F,0.0,-0.6516288721724992,0.0160931733333322,0
mp-770910,Li3Mn(BO3)2,1.361899999999999,-2.544683240149444,0.0101296486979318,0
mp-669334,CdI2,2.3407,-0.5905237876666667,0.0016132108888888,0
mp-653861,K3Lu(SiO3)3,3.4819,-3.1424421291406253,0.005298021968751,0
mp-865185,Mg(BeAs)2,0.407999999999999,-0.3202835660000005,0.0,0
mp-17815,Ba4Si20Au3,0.0,-0.282436648703704,0.0,0
mp-781680,Fe3O5F,0.0,-1.7041322624933328,0.1039652348611115,0
mp-865508,U2Ni12As7,0.0,-0.3865209159523805,0.0,0
mp-35663,Sr(InTe2)2,1.021,-0.6638652214285712,0.0720284871428584,0
mp-542836,Rb2SrV4O12,2.793599999999999,-2.573961329210527,0.0,0
mp-4653,Y(SiIr)2,0.0,-1.0822112645000004,0.0,0
mp-764573,LiFe2(BO3)2,1.6712,-2.3630752223484843,0.0530081142613889,0
mp-567537,TaI4,0.5572,-0.4574924160000002,0.0057925459687533,0
mp-867237,KB6(HO)6,1.6486,-1.2999554306168424,0.379378513313509,0
mp-569613,Ba2P7Cl,1.563699999999999,-0.8769665639926678,0.0007382252499974,0
mp-628665,AlBiTeCl4,2.1036,-1.4626136590057144,0.0,0
mp-637242,RbC2N3,4.5772,-0.2694529886899997,0.1218309933333356,0
mp-768011,LiTi3VO8,1.541599999999999,-3.1129925238461538,0.0957946057692194,0
mp-557828,HoPH5CO7,3.7117,-2.0761751811630167,0.1197128935833324,0
mp-625687,H9BrO4,3.522299999999999,-1.231354057862857,0.0277771885714273,0
mp-776759,Mn2Fe(PO4)3,0.0,-2.3607500917336504,0.0870762654166483,0
mp-561020,NbP4(SCl)5,1.5812,-1.0142919209328976,0.0053940576770834,0
mp-22423,BaLa2CoS5,0.0,-2.1033838722569453,0.0491830617592503,0
mp-763996,Mn3(OF2)2,0.0,-2.5327064944599997,0.0623707313888903,0
mp-566107,K6U5V2O23,1.766,-3.1425206466319446,0.0,0
mp-21866,Dy2InAu2,0.0,-0.8235658626666662,0.0,0
mp-977441,MgPaRh2,0.0,-0.6364462625000007,0.0,0
mp-722865,H8Se2N2O5,3.646,-0.996181433362206,0.088571510469082,0
mp-16621,HoAl7Au3,0.0,-0.5075657518181816,0.0,0