mpid,formula,BG,FE,e_hull,fidelity
mp-850975,Na4Ni2C4SO16,0.0,-1.800502358854167,0.0447943183796288,0
mp-2278,HgO2,0.110999999999999,-0.0295204674999999,0.4015790354166682,0
mp-8277,Sr(CdP)2,0.711399999999999,-0.597057053238095,0.0,0
mp-30597,Cu10Sn3,0.0,0.0130401623076919,0.0252181892307605,0
mp-626755,SrH4O3,4.1764,-1.8314663922787504,0.0572259375000099,0
mp-573119,BiRhO3,0.407599999999999,-1.3604829372500007,0.0626036285625,0
mp-542112,CaZrO3,3.2155,-3.4912949827500017,0.1922258345000092,0
mp-975924,Ge3Ir2Se3,0.5894,-0.4662631754101562,0.0,0
mp-762270,Li2Cu2F5,0.073299999999999,-2.2663967306611106,0.054806834722223,0
mp-24384,CaH8(ClO2)2,5.3176,-1.6657311870319995,0.0039592169999993,0
mp-567116,YbRu,0.0,0.2058428574999995,0.2058428574999995,0
mp-17836,BaNd2BeO5,3.8754999999999993,-3.451713717638889,0.0,0
mp-975913,PrNbO3,0.0,-2.942672338750002,0.3428934221999977,0
mp-29596,Ca3AlN3,2.457299999999999,-1.1672073031628565,0.0,0
mp-2954,Dy(SiAu)2,0.0,-0.5534993953333334,0.0,0
mp-1009720,RhN,0.0,0.7687439388100001,0.7687439388100001,0
mp-864944,MnBe2Pt,0.0,-0.4761500999999999,0.0,0
mp-17275,SrY2O4,3.6959,-3.729055783571428,0.0035804707142936,0
mp-754710,Sr2CaI6,3.667099999999999,-1.6493202677777776,0.0396674938888894,0
mp-6748,Cs2Ti(Si2O5)3,3.5085,-3.2165310191840266,0.0,0
mp-29216,Cs2PtCl4,2.0518,-1.7110012725771429,0.0,0
mp-11241,DyAu2,0.0,-0.868961432222223,0.0,0
mp-555691,SrZn(SeO3)2,4.3754,-1.9370473344687504,0.0,0
mp-771060,Na5LiNi2P2(CO7)2,3.9759,-2.1997285547573253,0.012640322115387,0
mp-559571,ZrB2O5,3.7946,-3.2097583230729163,0.0,0
mp-31067,Nd(ClO4)3,4.8807,-1.110996353267501,0.0,0
mp-23331,Si3(BiO3)4,3.897899999999999,-2.4788849263157893,0.0,0
mp-778718,Li2Cr2O7,2.378,-1.900976393522728,0.0114068592803029,0
mp-553970,CsGeBiS4,2.0122,-1.0342615480357142,0.0,0
mp-5189,AlAsO4,3.865,-2.45449561,0.0047232633333438,0
mp-780007,Fe3(O2F)2,0.0,-1.964792182486667,0.0795985390972218,0
mp-3523,SrGd2O4,3.01,-3.660826947857144,0.012837102142857,0
mp-32516,LiV2P3O11,1.8201999999999992,-2.6923302690021016,0.0390888564705811,0
mp-11222,Sm3Al,0.0,-0.1746742268750001,0.0255395040624986,0
mp-17979,BaAl2(SiO4)2,4.7813,-3.4680173976923068,0.0020183371153787,0
mp-771572,NbV3O8,1.150999999999999,-2.569981779583334,0.0923990905208285,0
mp-12561,TaAs2,0.013399999999999,-0.4696532399999995,0.0,0
mp-761527,LiMnPO4,3.4354,-2.6345209962936056,0.0156372307142858,0
mp-769009,Ba2YCl7,4.1943,-2.774557351782,0.0892960572499994,0
mp-743716,Ca5Y3Ti5Mn3O24,0.5491,-3.3546067178428336,0.0203120062810899,0
mp-571581,SmSnPd,0.0,-0.916240034166666,0.0,0
mp-770856,Li2MnCrO4,0.647699999999999,-2.264436335432499,0.0146384603125202,0
mp-29164,SrBiO3,0.3111,-2.2758381212500005,0.0,0
mp-566430,Ba3ErMn2O9,0.0,-2.7652270745446668,0.0,0
mp-973850,HoGa3,0.0,-0.51255147225,0.0041066652500001,0
mp-600007,SiO2,5.606899999999999,-3.2714480325,0.013264874999999,0
mp-997014,PbAuO2,0.0,-0.9623364568749996,0.0252706112499998,0
mp-773066,KTa2PO8,3.0048,-3.1251856023412707,0.0,0
mp-861891,SeBr2,0.8221,-0.0368760528645832,0.0906100365885409,0
mp-6059,Cs2KYF6,6.464,-3.615296559964001,0.0,0
mp-541113,Cs3P7,2.3466,-0.4528888346666669,0.0,0
mp-11344,PrO,0.0,-3.056693955625,0.0685722341666661,0
mp-11400,ScGaNi2,0.0,-0.5652551700000004,0.0,0
mp-558795,KMgPO4,4.5953,-2.9327398713350337,0.0,0
mp-780118,Na4Ni2O5,0.7638,-1.235832436022727,0.0606571736931362,0
mp-11792,PrCuSe2,0.744599999999999,-1.2416206667968748,0.0,0
mp-4661,ScOF,4.475899999999999,-4.144176054979998,0.0,0
mp-766387,RbAl11O17,4.7303999999999995,-3.392425388146552,0.0,0
mp-23045,BNCl2,2.8083,-0.946016069725,0.2437662691866666,0
mp-759743,Sb5O7F,3.1066,-1.8181824140338465,0.0526677931249999,0
mp-867047,CaSnS3,0.0,-1.2729065777708342,0.2123198874166663,0
mp-979924,Dy3Y,0.0,0.0185652293749996,0.0185652293749996,0
mp-557256,RbP3PbO9,4.5591,-2.5760561973596947,0.0,0
mp-777421,Li4Ti3V2Sn3O16,0.0,-2.588393131964285,0.0979660074107062,0
mp-771827,Ca3Pb3I14,0.0,-0.95656855325,0.0831735797499999,0
mp-568742,HgI2,1.3751,-0.3140528316666667,0.0016705143749997,0
mp-1008805,ReC2,0.0,0.4575869566666645,0.4743871754166644,0
mp-773089,K3Li2Nb6(PO8)3,0.0,-2.874841748796993,0.0232265768289376,0
mp-985299,Ag3N,0.0,0.9766874969050005,0.9766874969050005,0
mp-764645,Li3MnF7,1.407699999999999,-2.8701205085718176,0.0633514030303024,0
mp-984779,CeDy3,0.0,0.0817307949999994,0.0817307949999994,0
mp-769045,HoGaO3,2.8722,-3.185989810416667,0.0193125125333271,0
mp-571558,HgBr2,1.682,-0.4363408522222222,0.0410581561111111,0
mp-634751,YbH2,0.002,-0.6483755424133335,0.0591706883333329,0
mp-10270,ScCo3C,0.0,-0.2922739114999999,0.0,0
mp-3788,SrAl4O7,3.7468,-3.4800041498958336,0.0,0
mp-982662,Eu2MgSi2O7,0.0118,-3.358890582812501,0.0,0
mp-776690,Mn3(O2F)2,0.0,-2.1421072855844434,0.0607158216666707,0
mp-7541,SnP3,0.0,-0.0100927348214288,0.0053355523214282,0
mp-556655,Li2AlBO4,4.864,-2.9254830323958334,0.0,0
mp-757688,BaNb8O14,0.338099999999999,-2.875246555326088,0.0,0
mp-676645,Ga2(Hg4Te5)3,0.001499999999999,-0.1875469555172415,0.0122998748275859,0
mp-867298,CeTlAg2,0.0,-0.1613259062500001,0.0060123883333331,0
mp-28089,P4Se3I2,2.071599999999999,-0.0842867211846893,0.0,0
mp-1015780,CrN2,0.2319,-0.1321648901160781,0.31079322734392,0
mp-642729,LaH3(CO2)3,4.0564,-1.82326622122,0.0824441138461535,0
mp-561027,AlPO4,5.5314,-3.126805906349206,0.0116592441666707,0
mp-556246,La3Si2S8Cl,2.6118,-2.0284690625542865,0.0,0
mp-6131,Ba3Yb(BO3)3,0.0,-3.1458005511197924,0.0,0
mp-1030331,Te8Mo3W,0.527,-0.2216328483333332,0.0076970239583342,0
mp-646920,K5(AsPb)3,0.8377999999999991,-0.3623074570454547,0.0,0
mp-28080,K2SnTe5,0.5637999999999991,-0.5286147418749998,0.0,0
mp-706303,KCa2P4H9O17,5.3696,-2.3395940717033628,0.0123838835606058,0
mp-761813,Mn6PbO12,0.0,-1.8659403879347365,0.0,0
mp-769246,Sr4Ta2O9,3.6451,-3.4393393990833334,0.0053238356666636,0
mp-698518,HgTe3H12C4N,0.639799999999999,-0.2206506083723809,0.1006534992559524,0
mp-3732,Ti2CS,0.0,-1.4175928812239589,0.0,0
mp-8073,AsPd2,0.0,-0.3723895391666664,0.0,0
mp-605853,Li4CO4,5.5672999999999995,-2.0046164591666664,0.1928924755555563,0
mp-567775,La10C4I15,0.0,-1.2843412517241388,0.0,0
mp-30733,HoSnPt,0.0,-1.0947545399999998,0.0,0
mp-555790,Tl2C3O4,2.9206,-1.1368316258333333,0.1639787255555527,0
mp-30530,TlClO4,4.570699999999999,-0.8123605222099997,0.0,0
mp-8881,AlAs,1.6831,-0.47766398,0.0062727625,0
mp-12128,Li2MgIn,0.0,-0.2321709774999996,0.0,0
mp-684503,LiSn(PO3)3,4.206300000000001,-2.518803267895408,0.0360969139583327,0
mp-11,As,0.0,0.0,0.0,0
mp-1215,Ti2O,0.0,-2.0432871248611115,0.0,0
mp-10662,K2CO3,3.2835,-2.123751132708334,0.0069586599999995,0
mp-10527,Y2AlSi2,0.0,-0.7394706509999999,0.0,0
mp-780489,Fe6O7F5,0.236299999999999,-2.0913915683166677,0.0711457653819449,0
mp-770335,Li3VBO5,1.859,-2.5111874502916662,0.0922806340000059,0
mp-771623,Li5Mn3(PO4)4,0.0,-2.6315052548307483,0.0110125549107147,0
mp-857343,Ge7H8N2O15,2.7924,-1.671603879452186,0.0,0
mp-973430,LuScZn2,0.0,-0.3542536875,0.0085950049999996,0
mp-2981,CaTeO3,2.9347,-2.410350728083334,0.0115215838666653,0
mp-698287,YH2C4O9,0.0,-1.8538138527181247,0.1775821273437472,0
mp-620029,MoCl2,2.454799999999999,-1.3234145946733331,0.0,0
mp-18704,CsLiBeF4,6.8736,-3.376841467822857,0.0,0
mp-1030454,Te4MoW3Se4,0.085499999999999,-0.3169060870312504,0.0569256464583345,0
mp-1023941,Te4MoW,0.9478,-0.1731108250000007,0.0149993679166655,0
mp-775217,CoSb3(PO4)6,1.615999999999999,-2.296026691869748,0.0221412689706035,0
mp-1027278,Te3MoWS,0.0,-0.3729292615104167,0.1046953539583315,0
mp-995226,H2CO,6.0267,-0.6972894527475004,0.3458356675000029,0
mp-9460,Zn3N2,0.0,-0.0322880804519996,0.0,0
mp-979013,SmGe3,0.0,-0.389283523125,0.1072959662499997,0
mp-29175,Ca2AuN,0.0,-0.8918577905949996,0.0,0
mp-974869,Rb3Nb,0.0,1.1796130775,1.1796130775,0
mp-1009238,Hf2Tl,0.0,0.0008476283333334,0.000847628333334,0
mp-556195,Na2AlB(As2O7)2,2.7451,-2.126634947348485,0.0,0
mp-21844,UTl3,0.0,0.2409925312499998,0.2409925312499989,0
mp-1994,HfB2,0.0,-1.0237569694444442,0.0,0
mp-4412,La4Se3O4,1.3261,-3.1353040437073862,0.0,0
mp-777493,Li3Fe4(OF3)3,1.9361,-2.618611691550526,0.0674376904385942,0
mp-574571,Rb3YCl6,5.0167,-2.4964381034559997,0.0,0
mp-974315,RuI,0.0,0.8730108350000005,0.8730108350000005,0
mp-558911,Cs2Co3S4,0.0,-0.9310685106944449,0.0268961976190444,0
mp-541238,KTi2(PO4)3,2.5455,-3.0521527809788376,0.0,0
mp-1018642,Y(CuS)2,0.0,-1.0694711221250004,0.2979225345000014,0
mp-765860,Fe2CoO4,1.2323,-1.4961835357142863,0.2310981550000121,0
mp-777551,LiVF3,2.6788,-3.035593118214,0.0373044224999974,0
mp-555164,Ca5P3ClO12,5.4052,-3.3232567019069386,0.0,0
mp-1018100,AlSb,0.9179,-0.1536142299999996,0.0081489025000003,0
mp-676762,Yb(CeS2)2,0.0,-2.4449340801785717,0.0226255967857147,0
mp-1019516,Ba4GaN3O,1.1839,-1.072307248015555,0.0636639623611117,0
mp-571603,CdI2,2.3923,-0.5917094941666667,0.0004275043888888,0
mp-12765,GdC2,0.0,-0.1682577483333342,0.0,0
mp-22131,SmGa4Co,0.0,-0.5019536287500005,0.0,0
mp-1008487,BW,0.0,-0.3561300733333326,0.0118201762500014,0
mp-20262,Pu3Pb,0.0,-0.0522622326562505,0.0,0
mp-763873,Li2Ni(CO3)2,2.1319,-1.8728265697727275,0.0630508477272764,0
mp-632348,YbHO2,0.0,-2.24324250778,0.1027008276562497,0
mp-17234,KTiP2O7,0.133999999999999,-2.8964495331006503,0.0400587048755083,0
mp-29242,Ba3PbO,0.0,-1.4967963262500006,0.0,0
mp-721901,K2B4H8O11,5.2011,-2.1210661654750664,0.0,0
mp-764879,V4(OF3)3,1.4453,-2.9632637184037502,0.0019520099999867,0
mp-774742,Li3Sc2(PO4)3,4.6105,-3.1366944009642865,0.0011801594999987,0
mp-30044,Fe2CoGe,0.0,-0.0147312237500001,0.1146284025000001,0
mp-11603,KNd2CuS4,0.9129,-1.9644568607812505,0.0,0
mp-23218,AsI3,2.2375,-0.19937857125,0.0,0
mp-758599,Sr5(ReO3)12,0.0,-2.3216705780188684,0.0167169740566048,0
mp-1029357,NaZnN,0.0,-0.1157095591266662,0.0766561673076919,0
mp-570268,MnSbSe2I,0.532,-0.3529076944374999,0.0,0
mp-706229,Ba2La2Fe2Cu2O11,0.0,-2.3709110001973683,0.0899085931578964,0
mp-998980,TiAlFeCo,0.1246,-0.5737743141666671,0.0,0
mp-21236,BaPPt,0.0,-1.0850017743650795,0.0,0
mp-756156,Rb2ZrO3,3.5441,-2.7682023364583337,0.0,0
mp-989529,KRb2InCl6,3.5425,-1.9911470839560004,0.0,0
mp-35327,Al(CN)3,5.0623,-0.0538885128057131,0.4348720744642849,0
mp-17149,Sr3ErRhO6,2.192,-2.9593984229545462,0.0,0
mp-13963,HfSiTe,0.0,-0.7200385500000005,0.0,0
mp-13051,Sr2Si,0.0,-0.2889633083333329,0.0780859675000007,0
mp-22896,LaCl3,3.6454,-2.849390277445,0.0,0
mp-642,BaCu13,0.0,-0.0139137728571426,0.0,0
mp-761461,LiFePO4,3.4944,-2.5044019940136053,0.0471749557142855,0
mp-770426,Ho(ClO4)3,5.0172,-1.0929864768612507,0.018337029375,0
mp-767953,Li2Si3NiO8,4.393199999999999,-2.7069305757142854,0.0821577714285748,0
mp-976220,NaCdHg2,0.0,-0.1716393975,0.00519893625,0
mp-626182,SbHO3,1.0685,-1.6249018294739996,0.0282666832499991,0
mp-1320,CeSe2,0.0,-1.5895562357291668,0.040055484583334,0
mp-21363,TbFeSi,0.0,-0.6340425294444453,0.0,0
mp-698325,BaH4(CO2)3,4.6433,-1.6212372254985716,0.1291006205357154,0
mp-1025598,Te4Mo(WSe)2,0.3238,-0.2754698574652781,0.0364546958333331,0
mp-15588,Ce(BRu)2,0.0,-0.5357836786666695,0.0,0
mp-764570,LiFe2(BO3)2,1.6739,-2.366908779848485,0.0491745567613888,0
mp-541186,MnH10SO9,3.8814,-1.6016863458320236,0.0169472240476169,0
mp-984716,CaSn4(PO4)6,3.517899999999999,-2.612765585102041,0.0,0
mp-684898,Cu18S11,0.0,-0.3309370191271557,0.0794646075478908,0
mp-561507,Ca4Al6O13,3.6188,-3.303749592880435,0.1586707633333333,0
mp-867170,LiGaPt2,0.0,-0.7184690775,0.0,0
mp-31065,Sc2(SeO3)3,3.8037,-2.2732624537165185,0.0,0
mp-5493,PrSi2Ni,0.0,-0.8053762712499992,0.0,0
mp-976972,HoTmCu2,0.0,-0.2711008237499994,0.0009576124999997,0
mp-973111,In,0.0,0.0110871350000003,0.0110871350000003,0
mp-1013524,Ca3N2,0.0116,-0.4213544629519994,0.5112616037500004,0
mp-7936,LiNbS2,0.713499999999999,-1.6362847607812512,0.0,0
mp-1019138,SmSbTe,0.0,-1.1541610724999998,0.0800805367361112,0
mp-1001789,IrC,0.0,0.5431619212500003,0.5431619212500003,0
mp-630491,KV(IO4)2,2.7052,-1.486053393333334,0.0,0
mp-29711,Tl2Te3,0.732699999999999,-0.191254125,0.0,0
mp-541569,Sr2Li3TaN4,2.1584,-1.0704291412020006,0.0,0
mp-18952,Ca4Mn2O7,1.369399999999999,-2.8099197381284613,0.0391831950000005,0
mp-1029367,MnCoN2,0.0,-0.3413819811899987,0.0,0
mp-971859,Zn3B,0.0,0.6283981295833334,0.6283981295833334,0
mp-89,Cr,0.0,0.4059006050000011,0.4059006050000011,0
mp-975912,Mo3H,0.0,0.865733052845,0.865733052845,0
mp-29344,LiGaCl3,3.6888,-1.6997583167060004,0.0,0
mp-16490,Lu2Al3Co,0.0,-0.5002219875000004,0.0,0
mp-684725,KMgH5(SO5)2,0.002699999999999,-1.2437304296697371,0.7786004435197373,0
mp-774127,Li3Mn4O8,0.0,-2.063300302922666,0.0676199102708352,0
mp-22289,Mn2CoGe,0.0,-0.147047926249999,0.0304504212499994,0
mp-863722,Pm2IrRh,0.0,-0.6716752612499999,0.0,0
mp-763629,Li2FeSiO4,3.0269,-2.621204989375,0.005365709687501,0
mp-765938,LiVF6,3.3314,-2.9380280346425,0.05096158,0
mp-974370,PtRh3,0.0,-0.0141346200000009,0.0017338249999996,0
mp-767040,Li4MnCu3(PO4)4,0.0,-2.3080460944050336,0.0399024891964359,0
mp-28704,Cr4As3,0.0,-0.1140102207142855,0.0514693324999999,0
mp-10918,Rb2PdC2,1.5802,0.0349981069999998,0.0511746892499997,0
mp-21221,Pr(FeGe)2,0.0,-0.4241617760000004,0.0,0
mp-866201,Ti3Bi,0.0,-0.0842903325000001,0.0099628158333358,0
mp-19314,Mn4Be3Si3SO12,3.1083,-2.7841154105609784,0.0,0
mp-558382,Li2SO4,5.9904,-2.3662303127232143,0.0548863635714251,0
mp-27294,Ca3AsBr3,1.665699999999999,-1.7833478364285713,0.0,0
mp-10226,NaYS2,2.2807,-2.1866271514062507,0.0,0
mp-27573,NaSb3F10,4.968,-2.773676185492857,0.0,0
mp-1020654,SrBeB2O5,5.6873000000000005,-3.1413362307870365,0.0,0
mp-761485,Li2Mn(SiO3)2,2.607399999999999,-2.7907651863751517,0.0722502898484762,0
mp-625762,Al(HO)3,4.7202,-2.0896262565514285,0.0469882558928578,0
mp-22575,Sc3As2,0.0,-1.1524965775000005,0.0114083747499993,0
mp-976881,Ni3S,0.0,-0.0266755372656248,0.3697277518750006,0
mp-765443,Li3Ni4O4F3,2.2384,-1.8493531523978568,0.0230630185714391,0
mp-765550,Li2VO3F,2.5474,-2.5672623028485715,0.0835169199999947,0
mp-1008224,CrCo2Si,0.0,-0.3065564475000002,0.0364510135227273,0
mp-557018,Cs(CoS)2,0.0,-0.8782970936250003,0.0,0
mp-1026976,TeMoWSe2S,0.0,-0.612088904375001,0.0788758299999994,0
mp-2611,BaGe2,0.0,-0.5049275433333329,0.0227190291666667,0
mp-505685,Nb2Te4O13,2.562799999999999,-2.0744171366447373,0.0063460866447329,0
mp-769876,TbNiO3,0.0,-2.401542145916667,0.0,0
mp-975321,LiSi3,0.0,0.1726553112499997,0.2715676540624994,0
mp-16115,Pr2CuO4,0.0,-2.892717426428572,0.0641680671428446,0
mp-25777,Rb2NiH12(SeO7)2,3.6658999999999993,-1.4522054871976608,0.0,0
mp-24991,NaFe(GeO3)2,2.7231,-2.112541309250001,0.0,0
mp-755650,Gd3YO6,2.9924,-3.8351502535000015,0.0915389897500009,0
mp-999296,Pd3N,0.0,1.015761976905,1.015761976904998,0
mp-566124,CrAg3ClO4,1.3861,-1.0482116681400002,0.0099142488888883,0
mp-734019,Na2Zn(HO)4,3.0835,-1.5998783947254542,0.0003090455681817,0
mp-757343,Ca4Bi6O13,1.7238,-2.248299199184784,0.0023691609782554,0
mp-12003,Al9Ir2,0.0,-0.5152909995454539,0.0,0
mp-865781,YbCeZn2,0.0,-0.2605056399999994,0.0120724518749999,0
mp-1019732,EuAl2O4,0.0,-3.4273817914285707,0.0,0
mp-10125,SbIr,0.0,-0.1924357375000003,0.0861733637499995,0
mp-30337,Al5W,0.0,-0.1598132641666664,0.0,0
mp-542554,Cu3As4H18C8I3(NO2)2,2.778,-0.4288109965457142,0.1747142265178558,0
mp-29997,La3AsI3,0.0,-1.4597943521428576,0.0,0
mp-765104,Li2V(CO3)2,2.6087,-2.1160886270454555,0.0736198449715948,0
mp-6097,Li3Al(BO3)2,4.8248,-2.861276954236111,0.0059491449999997,0
mp-974420,Re3Mo,0.0,0.12053097125,0.1278132006250008,0
mp-6621,Ba2ErRuO6,0.072999999999999,-2.8784545827500003,0.0,0
mp-754224,BaSr2I6,3.764,-1.7233067138888891,0.0190589156944445,0
mp-862445,TaAlOs2,0.0,-0.552695362499998,0.0,0
mp-753548,Rb6Ti2O7,2.1781,-2.494551222138889,0.0314591556666643,0
mp-554273,AlPO4,5.4822,-3.12600011687004,0.0124650336458369,0
mp-25068,Na2MoO4,4.1562,-2.200178165,0.0181865449999998,0
mp-2499,BaSi,0.0,-0.4207227975000003,0.0009132799999997,0
mp-7214,Sr3CrN4,1.5373,-1.1067898027524992,0.0,0
mp-541994,MnNb3O6,0.0,-2.6313847033460007,0.0195724464285707,0
mp-556004,Ba3In2Br2O5,1.2907,-2.408733213854166,0.0082184071354216,0
mp-1027612,Te2Mo3WS6,0.0,-0.9389916461979162,0.0975743483333335,0
mp-566373,K3Mo2BrO7,3.0918,-2.1328059956730767,0.0169029276923087,0
mp-763791,Mn(PO3)4,0.161499999999999,-2.3797644172553487,0.0694300693750094,0
mp-18228,Ba3NaSi23,0.0,-0.1036851233333335,0.017777902546296,0
mp-675128,Sc4Ti3O12,2.7582,-3.7402822236842113,0.0365943763157865,0
mp-980664,UBiSb,0.0,-0.1077685883333323,0.0418988158333331,0
mp-767592,Li3V(SiO3)3,2.2683,-2.8557370778906264,0.096927373789061,0
mp-567573,Rb2UBr6,0.0,-1.5737982611111114,0.0114824383333331,0
mp-776747,V3Fe2Te(PO4)6,0.0106,-2.47850083718254,0.0464927264236179,0
mp-761518,Li2Fe(PO4)2,0.0,-2.4587767204761897,0.0510509564423049,0
mp-975467,Mn3Hg,0.0,0.426572665000001,0.426572665000001,0
mp-652399,Li(FeGe)6,0.0,-0.186476334358974,0.0,0
mp-558481,ZnGaNO,0.3142,-1.1707922640325004,0.059143006874998,0
mp-1009545,PaN,0.0,-1.8154676261899996,0.0,0
mp-565698,Rb2MoAs2O9,2.761,-1.9960819629464284,0.0,0
mp-1007666,HoAu,0.0,-0.896781915,0.0,0
mp-764211,LiVOF4,3.0138,-2.862548048001429,0.0159455622321473,0
mp-707767,Na2Sn2H4O5,2.3097,-1.5823899184215384,0.0238914850961533,0
mp-505544,Co21(B3Sb)2,0.0,-0.1803941555172412,0.0071704084482764,0
mp-754672,TiO2,2.9809,-3.4862509122222214,0.0325800683333472,0
mp-697858,NaFe2O3,1.3849999999999991,-1.7757455372916668,0.0724315866666671,0
mp-763491,Fe4O7F,0.0,-1.6155939658283327,0.1334302254687429,0
mp-677311,Re3Pb3O10,0.0,-1.7838514114062507,0.0479773899999989,0
mp-25565,Rb2MnH2OF5,1.335999999999999,-2.5550286450363644,0.0,0
mp-773262,Li3NbV2O6,0.0,-2.463146998125001,0.0950580066666662,0
mp-765329,LiVF5,1.9417,-3.063286117457143,0.049960724107148,0
mp-510076,Rb7Au5O2,0.626799999999999,-0.7031635187500004,0.0,0
mp-560226,NaNd(Si3O7)2,4.7954,-3.3017919544318186,0.0,0
mp-571369,Y(BH4)3,4.5766,-0.4017982054493743,0.0,0
mp-754674,Lu(CuO2)2,0.0,-2.107674832142856,0.0,0
mp-754840,TaAsO4,2.6966,-2.585996628333333,0.0548233445833297,0
mp-554905,CaZnSi3O8,4.089399999999999,-3.124796321923076,0.00510130608974,0
mp-555307,Ba2CoF6,0.0,-3.534939228571111,0.050105334444443,0
mp-767639,Li4Mn3(BO3)4,0.6554000000000001,-2.4866191358498546,0.0549225865217319,0
mp-977113,MgPdAu2,0.0,-0.4367429875000002,0.0,0
mp-770961,Li2TiMn2O5,0.6734,-2.529853785983667,0.0676696690000024,0
mp-604429,NaFe3H6(SO7)2,1.8908,-1.8302984116286527,0.0,0
mp-734150,Na3YH6(CO4)3,4.889,-2.0358023411688,0.0,0
mp-570466,Li2Ca,0.0,-0.0097533975000002,0.0,0
mp-22238,TbSnPt,0.0,-1.0668925777777776,0.0246858472222228,0
mp-570953,HoGa3,0.0,-0.5166581375000003,0.0,0
mp-10165,KAlTe2,1.7037,-0.7855256650000002,0.0097588446875018,0
mp-557038,MnAs2F12,3.9706,-2.5700112323493327,0.0,0
mp-866150,LiSm2Os,0.0,-0.1401960449999997,0.0,0
mp-510294,Sr2CuWO6,0.0,-2.47801686175,0.0430055229000005,0
mp-558446,AgHgSI,1.1391,-0.3775497585156251,0.0006270356249999,0
mp-626829,ReH3O5,1.4014,-1.6532095141233327,0.0738887694444452,0
mp-7199,RbPrTe4,0.185999999999999,-0.9630626233333336,0.0,0
mp-25643,V2O5,2.3329,-2.291825797321429,0.0093199842857103,0
mp-635456,EuCuBi,0.0,-0.5025564616666655,0.0,0
mp-4549,SrSiN2,2.9695,-1.3689336443149998,0.0,0
mp-674940,La12Au3I13,0.0,-1.1780077932142865,0.0,0
mp-31082,Li4ZrGe2,0.0,-0.0605851114285711,0.3977772377500055,0
mp-23559,In(IO3)3,3.0681,-1.0519087504807696,0.0051381503846146,0
mp-561543,BeF2,7.9632,-3.570257127737777,0.0,0
mp-581194,CsB5O8,5.9417,-2.8513090338988087,0.0,0
mp-32384,Li4Ni7(PO4)6,3.512,-2.1525799955749134,0.0432742337804743,0
mp-7074,NaSc(SiO3)2,4.950100000000001,-3.3364528882499997,0.0,0
mp-570722,NbI3,0.0,-0.4569307987499998,0.0467815232812505,0
mp-981386,ScH4Pd3,0.0,-0.3890100955599997,0.0354627469400004,0
mp-766737,LiVF4,2.06,-3.2170917870433344,0.0116311195833427,0
mp-998732,TlInCl3,0.0,-1.309934078956,0.0600730279999988,0
mp-771075,Li8MnO6,0.7562999999999991,-2.0409409732306667,0.0762664343333341,0
mp-676424,Sm(GdS2)2,0.0,-2.424436885535713,0.0231339725000054,0
mp-772681,Cr(PO3)2,2.3932,-2.507103251243387,0.0682586295666833,0
mp-585400,LiFePO4,2.4496,-2.542023696870748,0.0095532528571435,0