mpid,formula,BG,FE,e_hull,fidelity
mp-976583,K3Co,0.0,0.80101089375,0.80101089375,0
mp-11206,LiTi(SiO3)2,0.0,-3.149352115916667,0.033096632916667,0
mp-756495,Li3CuO2,2.554,-1.6575670462499996,0.0982829079166665,0
mp-600004,SiO2,5.4296,-3.2730356416666675,0.0116772658333328,0
mp-759720,LiCuO2,0.4525,-1.418848711875,0.0373873062500003,0
mp-2331,B2Mo,0.0,-0.4289868177777785,0.0030629116666656,0
mp-640848,SmMn4(CuO4)3,0.0,-1.8582984815669987,0.0281318694375025,0
mp-765386,Li5NiO3F,3.0179,-1.9816264414940008,0.0829555499999985,0
mp-31049,NdO2,3.4112,-3.165306073333334,0.0007905885416619,0
mp-772082,CaLaI5,2.1073,-1.5618248014285716,0.024773558571427,0
mp-556528,In4GeS4,1.0698,-0.7677713215277779,0.0,0
mp-5256,KCuC2,1.9346,0.2764931837499995,0.2941787743749993,0
mp-762815,Li4Ti2Ni5O12,0.2096,-1.9242796507971007,0.0480553257910578,0
mp-765612,Ba8Bi4O17,1.0307,-2.3638718183189646,0.0079841856321856,0
mp-651155,TeI4,1.7073,-0.1214175315000002,0.0031408665000001,0
mp-23166,NpBr3,0.0068,-1.3354108984375,0.0247027425000006,0
mp-763108,FeOF,1.382,-2.222648609563334,0.0580353362499987,0
mp-699343,Li4MoO5,2.872099999999999,-2.280537158625,0.0264940014999979,0
mp-772339,LiNbFeO4,2.5094,-2.5609742428571445,0.0060642099999999,0
mp-10161,KZnSb,0.348799999999999,-0.39249033,0.0100793516666675,0
mp-8688,V4GeS8,0.0,-1.2450468644230772,0.0,0
mp-998985,TiAu,0.0,-0.3859402508333343,0.0410778825000006,0
mp-697047,Li3H4Rh,0.391799999999999,-0.4897679224349996,0.0,0
mp-558692,Sb2ClO2F11,1.8464,-2.2203741822718746,0.0,0
mp-675645,Tb2PbS4,2.0344,-1.9565623511309531,0.0622501417857153,0
mp-782685,Li3Fe3(OF)4,1.7117,-2.450871759982857,0.0825246132936552,0
mp-974399,HoNiGe2,0.0,-0.6830765212499994,0.0,0
mp-865020,HfMgIr2,0.0,-0.8408311912500004,0.0,0
mp-753654,LiSnPO4,3.0124,-2.3956405054421768,0.0904921641666813,0
mp-755358,LuAlO3,3.6479,-3.75867511175,0.0614760167499977,0
mp-865493,VI3,0.0,-0.3773537550000001,0.0,0
mp-760729,Ca2Ga2Si(HO4)2,3.511199999999999,-2.6839531944826667,0.0,0
mp-865215,TmHfRu2,0.0,-0.6262587837499982,0.0,0
mp-865935,Li2MgSn,0.0,-0.32948904125,0.0,0
mp-554888,KUI3O11,2.2614,-1.70124539296875,0.0,0
mp-555983,Er2SiO5,4.754099999999999,-3.8535376295312496,0.0,0
mp-980426,TmAlAg2,0.0,-0.3291276325000001,0.0,0
mp-771642,Sr2CaI6,3.557799999999999,-1.6422491341666663,0.0467386275000003,0
mp-17315,Zr3Tl2OF12,4.2570000000000014,-3.6335348708627784,0.0,0
mp-744790,CrH10SO9,0.0,-1.3664822245958337,0.245474891102484,0
mp-849501,Li3V3P8O29,1.1291,-2.5437140336281847,0.0434401703779094,0
mp-766276,Ba2In2O5,0.4077,-2.3691961540277777,0.0740829438888912,0
mp-982615,Pm2InAg,0.0,-0.3854711062500007,0.0,0
mp-862754,PrBS3,2.4383,-1.6539328907708328,0.0,0
mp-631312,InP2Pb,0.0,0.5706847609523806,0.6834887829761906,0
mp-18909,BaNi2(PO4)2,3.7407,-2.45994780970696,0.0,0
mp-558607,K3BSb4O13,1.8698,-2.138469479900794,0.0,0
mp-765828,LiMnFeO4,0.619699999999999,-2.018185982280001,0.0,0
mp-10455,YTiGe,0.0,-0.6886256713888889,0.0222640699999976,0
mp-849760,Al11AgO17,3.195999999999999,-3.2633468262500003,0.0239939315517245,0
mp-769560,Li2TiV3O8,0.7328999999999991,-2.6551230476190475,0.0795901024999938,0
mp-504425,Nb3As,0.0,-0.4111180349999993,0.0,0
mp-972072,YbYPd2,0.0,-0.8831758031249999,0.0027157725000002,0
mp-771742,Co3BiO8,0.0,-1.138158387916666,0.0850666043402768,0
mp-1020638,Na8PO3,0.0,-1.0088337809871035,0.2911979329166665,0
mp-38,Pr,0.0,0.0071377974999995,0.0071377974999995,0
mp-543100,LiCoSiO4,1.3978,-2.3700158289285715,0.0657912045714148,0
mp-8870,LiMgAsO4,3.4543999999999992,-2.3974392257142862,0.0014327883333331,0
mp-849412,V6O5F19,2.045099999999999,-2.7537009874620004,0.0253609910833203,0
mp-850982,LiCo3(OF3)2,0.185899999999999,-2.085713265386666,0.0860291572916693,0
mp-21907,NbSiAs,0.0,-0.5896621933333334,0.0,0
mp-540566,V2Hg2O7,1.281799999999999,-1.7290652894318184,0.0,0
mp-769265,Na6Bi2As(CO4)4,0.0,-1.8792856463793108,0.0910118465215461,0
mp-695325,Ti5ZnBi2(Pb2O9)2,1.9482,-2.567962305361112,0.0181705058333347,0
mp-3593,Ta2Sn2O7,1.485199999999999,-2.6789557080681807,0.0781013518181819,0
mp-770348,Li2VSiCO7,1.8635,-2.506085989687499,0.0664137491667027,0
mp-23457,PBr2N,3.0406,-0.4202109897021433,0.003799337916666,0
mp-705061,UAg2(WO5)2,1.0358,-2.185013341166667,0.0132777000000015,0
mp-545728,PrBi2IO4,1.2299,-2.226481106875,0.0,0
mp-781789,Li4NbIn3(PO4)6,2.6893,-2.6687745960150377,0.0056128372368347,0
mp-559764,Nd3Si2ClO8,4.3816,-3.616203658982857,0.0,0
mp-540234,Li2NiP2O7,3.567799999999999,-2.4519052660367073,0.025253951041658,0
mp-865,CaB6,0.0,-0.4062785800000007,0.0,0
mp-777699,V3O5F,0.3631,-2.576345837493333,0.0326851461111044,0
mp-10884,AlFeCo2,0.0,-0.3549675375000003,0.0,0
mp-3467,SmB2Ru3,0.0,-0.4370729818055553,0.0011901625000003,0
mp-776111,Li8Fe7(PO4)8,0.024399999999999,-2.5213128760865806,0.037750391045435,0
mp-776314,Zr2N2O,1.6107,-2.347633674452,0.00567144575,0
mp-765462,LiFe3OF5,2.2211,-2.524905533220001,0.0878469434999971,0
mp-11018,TlCd(NO2)3,2.1602,-0.95145930314909,0.0464336873994541,0
mp-776068,LiVCrO4,1.3665,-2.3979309730952374,0.0563588929166609,0
mp-31625,Cr2ReO6,0.1121,-2.22134752861111,0.0416245149999987,0
mp-9439,YbCuSb,0.0,-0.7251870100000003,0.0014281616666664,0
mp-773270,LiV3CoO10,0.5654,-2.039368642166665,0.0821573872291665,0
mp-556725,CuH8C2Br3NO,0.0,-0.557235167661875,0.0907171718359398,0
mp-23484,CsAuCl3,0.8098000000000001,-1.406920744956,0.0,0
mp-31768,LiFe5O8,1.318,-1.9004169305357157,0.0402310991071406,0
mp-695996,BaH8C6(N3O4)2,4.5878,-1.2104735433875862,0.0084297335632212,0
mp-570583,P4N3Cl11,2.4877,-1.0149316904378312,0.0,0
mp-768355,BaYF5,6.895099999999999,-4.327255775254764,0.0366224680952411,0
mp-764981,Li4Mn3OF8,2.1687,-2.8711046178843747,0.0896409823437505,0
mp-759876,Na5SbO5,1.641199999999999,-1.8659945242045448,0.0015375136363644,0
mp-22546,CoAsRh,0.0,-0.3096037925000002,0.0216782087499991,0
mp-11121,CsTbCdSe3,2.0647,-1.3706408465190982,0.0,0
mp-11421,Gd,0.0,0.1057543800000004,0.1057543800000004,0
mp-543011,ZnS,2.0396,-1.127814422388393,0.0124889321428569,0
mp-10250,BaLiF3,6.564299999999999,-3.759216087714,0.02196861,0
mp-546449,BaCu3O4,0.0,-1.0937800543749994,0.3844905754166694,0
mp-773190,Na2VBAsO7,1.5444,-2.2507229258680543,0.0848180833184262,0
mp-777895,MnCr2Ni3(PO4)6,0.0,-2.163869091375873,0.0909202765972292,0
mp-984729,BaSr3O4,2.5111,-2.983925451875,0.0440777125,0
mp-2836,Dy5Si3,0.0,-0.6862847885416672,0.0,0
mp-777883,Ba6YCl15,4.6917,-2.8180132731318186,0.0947353448863621,0
mp-770296,La4Zn3O9,1.7738,-3.005240385703125,0.0973369406249986,0
mp-541788,P2S5,2.554,-0.6372165245004261,0.0,0
mp-691107,FeOF,1.6921,-2.2129165624800016,0.0677673833333312,0
mp-171,VNi3,0.0,-0.2402725400000003,0.0,0
mp-1017514,MgSiN2,4.179699999999999,-1.0823728786900002,0.2824359406249988,0
mp-452,CoAs3,0.0,-0.2986515775000002,0.0,0
mp-695799,KP(HO2)2,5.333,-2.1949138259794045,0.048778305937505,0
mp-766289,ZrU9O20,0.0,-3.746865874499999,0.0330414164999997,0
mp-568773,K3Cr(CN)6,1.8010000000000002,-0.2716323365174995,0.1565108421875019,0
mp-30754,LaTlPd,0.0,-0.6821687583333337,0.0,0
mp-769914,Li2VFe3O8,1.3184,-1.9756577314285704,0.1902995316666649,0
mp-975883,PrNdHg2,0.0,-0.4721088393750002,0.0028220024999998,0
mp-1410,DyN,0.051499999999999,-1.8946194895233328,0.0,0
mp-761361,VSnO4,1.6367,-2.28909181,0.0154727116666792,0
mp-780300,Li2VP4(H2O3)6,2.6006,-2.038108268738404,0.0305245299896048,0
mp-29057,Nb3SBr7,0.7427,-1.0609743685511377,0.0,0
mp-27430,Sn2BF7,4.400799999999999,-2.8681696362496667,0.0,0
mp-30603,ZrCu5,0.0,-0.1238880233333326,0.0,0
mp-679950,Ag8Ge3O10,0.0862,-1.069021824761905,0.0207519885714306,0
mp-30249,Li4GeS4,2.4834,-1.3587151162500009,0.0,0
mp-754920,BaYF5,6.618500000000001,-4.302501849778571,0.0613763935714324,0
mp-674325,Rb4CO6,0.426999999999999,-1.276775652272728,0.3581154150000021,0
mp-25317,Li3(CuO2)2,0.0,-1.5695342916666664,0.0323933116666665,0
mp-723020,Al2Si2H5C2NO10,0.0,-1.881589189908182,0.3653104476041662,0
mp-19778,Nd3PbN,0.0,1.2665836350239998,2.2090975079999997,0
mp-8953,YbAsPd,0.0,-1.0244507838888894,0.0,0
mp-8914,SrGaSn,0.0,-0.5410889874999997,0.0,0
mp-849537,V6O11,0.4496,-2.45424723757353,0.0472711407353028,0
mp-2117,TbN,0.013399999999999,-1.8506922828566663,0.0,0
mp-21719,Sc2V3Ge4,0.0,-0.6231709499999991,0.0,0
mp-762401,LiCo(CO3)2,0.3373,-1.72114568275,0.0944373006500036,0
mp-571293,Rb2BaNb2Se11,1.511699999999999,-0.8945748340332029,0.0,0
mp-769294,Rb8SnO6,1.071,-1.5180869541666668,0.0143128526666647,0
mp-762422,Li4Fe(PO3)6,4.3787,-2.6092988986576366,0.0531982379310438,0
mp-25774,Na2Mo2O7,3.211999999999999,-2.1837203653409087,0.0,0
mp-690536,Sr4Fe4O11,0.0,-2.4001810536184216,0.0179316640790263,0
mp-890,NdIr2,0.0,-0.6948845891666671,0.0,0
mp-2783,Ta2Si,0.0,-0.5542896516666657,0.0060676566666675,0
mp-23768,AlZnH4O2F5,5.0567,-2.43981387137923,0.0032163038461563,0
mp-765447,Li5V5O9F,1.094299999999999,-2.4673079513720007,0.0527583576041736,0
mp-761671,Li3CoPO5,0.0,-2.4221255991845236,0.058020160249999,0
mp-1961,TiAg,0.0,0.0999118041666662,0.1653383699999997,0
mp-13235,Ho5Si3B,0.0,-0.5437986429629625,0.1565688109722218,0
mp-10097,Na3Sr3GaAs4,0.441899999999999,-0.8264602227272729,0.0,0
mp-1016155,NaMn4O8,0.3064,-1.9213477083723067,0.0044905200874065,0
mp-1018715,Hf5Pb,0.0,0.0349197308333337,0.0401445691666673,0
mp-722485,SrP2(H2O3)3,5.3385,-2.183704215508916,0.0254447315972203,0
mp-973099,La2PdRu,0.0,-0.4410927112499996,0.0145838125000006,0
mp-541909,Zr2(NiP)3,0.0,-1.0487070339732156,0.0,0
mp-743680,K5HfIn(MoO4)6,3.7106,-2.3446572447297296,0.0,0
mp-772298,LiTi2Ni(PO5)2,0.004699999999999,-2.7884303416889895,0.0840532081249989,0
mp-569558,AlAu2,0.0,-0.3188858700000002,0.0,0
mp-570506,ZrI2,0.2858,-0.8951781925000001,0.0,0
mp-540703,Cs2S,2.0957,-1.2050029146875003,0.0,0
mp-763002,Fe4O3F5,1.2359,-2.306375155808334,0.0885962679166594,0
mp-767951,V11NiO18,0.6177,-2.4036131944166668,0.0348885352917154,0
mp-771718,Li3Mn2CuO6,0.0,-1.905120573285,0.0717071547916665,0
mp-9981,Mn2N,0.0,-0.4086211891266653,0.0,0
mp-687212,Cr(PO3)4,0.0025,-2.4452612219047634,0.0737845056985264,0
mp-765141,LiNiPO4,3.313799999999999,-2.221244231870749,0.0713102753571464,0
mp-758157,Na4H2RuN6O13,2.1724,-1.2774207227988468,0.0383600097366354,0
mp-977463,MgMnRh2,0.0,-0.3234518375000004,0.0004942924999991,0
mp-764105,NaNiPO4,3.1525,-2.2049488447278907,0.0337814157142863,0
mp-977366,NpSb3,0.0,-0.1353337584374996,0.0303743462500003,0
mp-1018743,LaNi3Rh2,0.0,-0.2680076800000002,0.0794280891666661,0
mp-849780,La3H15I10O37,3.3704,-1.4014479840853842,0.0264869079999998,0
mp-974325,NdDy3,0.0,0.0159570831249986,0.0159570831249986,0
mp-566159,Li8Bi2(MoO4)7,2.9688,-2.1951531763333327,0.0012404286357972,0
mp-505322,CsTa(CuTe2)2,1.243699999999999,-0.4765671375,0.0,0
mp-531611,Mg(AlB14)2,0.766799999999999,-0.0961189198924733,0.0,0
mp-1028939,TeMoWSe2S,0.0,-0.6479536210416666,0.0430111133333337,0
mp-765218,VF5,2.9955,-2.8129974589083333,0.0128454454166666,0
mp-770595,Li2CrO3,0.0,-2.1799359239583342,0.0807700958333343,0
mp-753774,KTmO2,3.974299999999999,-3.179629590625,0.0,0
mp-760405,ErBO3,4.5583,-3.4898932010833343,0.0312084898333626,0
mp-706285,Na2H4PtC4Br2(N2O)2,1.7953,-0.6003029678421055,0.2287519219528642,0
mp-625832,Ba(H2O3)2,2.5448,-1.0814402979072728,0.3338182331818178,0
mp-763977,Na6NiO4,1.428999999999999,-1.3289531736363636,0.042559575681822,0
mp-565883,Li2U3V2O15,2.2727,-3.085928322670453,0.0018367436363639,0
mp-616900,Zn(InS2)2,0.076699999999999,-0.9396723151785712,0.0676462619642865,0
mp-867770,BaHg3,0.0,-0.4295864287500001,0.0,0
mp-27018,SnPO4,2.4403,-2.371164981349206,0.0555249347916522,0
mp-22561,Pr2ReC2,0.0,-0.2301657454999997,0.0,0
mp-540988,Cs2FeO4,1.6677,-1.5277441014285722,0.0,0
mp-15679,CoAs,0.0,-0.2630646624999997,0.0327742237500006,0
mp-690644,TlInS2,0.0,-0.3231958757812498,0.5430214034375007,0
mp-10618,LiInSe2,0.8380999999999991,-0.7991313467968748,0.0805189075000001,0
mp-34322,Dy2Ti2O7,2.7197,-3.790747873674242,0.0180920636363417,0
mp-763124,Fe4OF7,1.6849,-2.5646103782983345,0.0589360012499966,0
mp-31073,Na3B7O12,4.9219,-2.7807001675757586,0.0,0
mp-781684,LiNiH12(SO7)2,0.474099999999999,-1.5473149348021664,0.0538895986736118,0
mp-30013,SbKr3F11,1.3064,-1.282566191872667,0.0061768266666666,0
mp-753009,Li2AgF3,1.7102,-2.4332445547616666,0.0866222100000007,0
mp-761296,VAsO4,1.7336,-1.98429618125,0.0646654322916653,0
mp-559521,InBi2S4Cl,1.5605,-0.9262156336887504,0.0007625872656245,0
mp-568663,FeAg3(CN)6,0.0,0.2725189400449999,0.3116410658187485,0
mp-10318,Tb2Co3Si5,0.0,-0.7726686301666661,0.0,0
mp-775166,Li2TiMn3O8,0.7382000000000001,-2.403952856931905,0.0140143206312259,0
mp-24953,DyFeO3,1.5602999999999991,-2.9665620160833326,0.0,0
mp-27910,Bi2Te2S,0.436799999999999,-0.4158303768125002,0.0,0
mp-4471,ScAlO3,4.591900000000001,-3.6849646097499993,0.0281238593750057,0
mp-651268,Fe2Cu6SnS8,0.0,-0.6226860945588241,0.0094559533088238,0
mp-570170,Mo15Se19,0.0,-0.4966217295082721,0.0650190422794123,0
mp-8323,Dy2S2O,2.169899999999999,-3.0431631370416667,0.0123154477499998,0
mp-772659,Li3CrO4,0.8250000000000001,-2.1166486546875003,0.0745255096874988,0
mp-5051,Ho2Mo2C3,0.0,-0.3629514160714281,0.0,0
mp-623453,MnGa2Co,0.0,-0.046933459999999,0.1576508308333339,0
mp-10739,TiPRu,0.0,-1.018513428809524,0.0,0
mp-560014,Pr3CuSnS7,1.771399999999999,-1.8312494698697923,0.0,0
mp-3647,LiGaS2,2.9608,-1.3584596839062506,0.0,0
mp-19856,SnPt,0.0,-0.5846525649999998,0.0,0
mp-23039,Er6MnBi2,0.0,-0.4022657588888884,0.0,0
mp-771084,Te(WO4)3,1.6167,-1.9605261921874997,0.01212383875,0
mp-864647,Hf2N,0.0,-1.37685430246,0.0,0
mp-567912,SmHgPd,0.0,-0.7026758230555552,0.0,0
mp-1028828,Te2MoWSe2,0.057799999999999,-0.3652932078645829,0.0497582049999998,0
mp-997020,CuClO2,0.6518,-0.4975115551899996,0.2696276517499996,0
mp-773243,Li4VFe3O8,1.3735,-2.118363570625,0.0749573175000009,0
mp-755116,In2Pt2O7,2.049200000000001,-1.5409093744318183,0.0,0
mp-11786,YbPrSe3,0.0,-1.63263282515625,0.1849914884999997,0
mp-37091,Sr(AlTe2)2,1.4454,-0.8343044785714285,0.0,0
mp-762411,LiMn3O6,0.9631,-1.9689265390379984,0.031957342624997,0
mp-571592,CdI2,2.386,-0.5916663187500001,0.0004706798055555,0
mp-560847,Nb2TlPS10,1.3359,-1.0690663781228753,0.0,0
mp-558071,RbS,1.6972,-1.2431376295312502,0.0039642108333333,0
mp-10046,V2AsC,0.0,-0.5330320281249996,0.0,0
mp-556801,Na3B6PO13,4.7576,-2.7896459235584894,0.0,0
mp-982244,Pa3H,0.0,0.5126779265949999,0.6674290558333329,0
mp-763033,Li2Fe3CoO8,0.0,-1.7373345814285717,0.0481019060044616,0
mp-974310,In3Ge,0.0,0.1211344437500003,0.1211344437500003,0
mp-774252,Li4Cr2Fe3Sb3O16,0.8067000000000001,-2.0618181876785715,0.0670401304285741,0
mp-13998,Na5AlO4,2.4191000000000003,-2.0967375621249995,0.0,0
mp-8709,KIn(GeO3)2,2.3073,-2.14256764075,0.0085027543999975,0
mp-766770,LiFePO4,3.3629,-2.494991315977892,0.0565856337499992,0
mp-28056,P2Rh3,0.0,-0.6731335552380955,0.057683235999999,0
mp-15521,Ba2LiSi3,0.092299999999999,-0.4278900091666677,0.0,0
mp-867372,ThCdAg2,0.0,-0.16256366625,0.0,0
mp-18010,Ta2Pd3Se8,0.6518,-0.6258829118269238,0.0,0
mp-776166,AgPdO3,0.0,-0.1679695172499997,0.4580416435000032,0
mp-555865,Na2Sr7Al6F34,6.9463,-3.996749379193061,0.0004262014455731,0
mp-2480,OsSe2,0.0,-0.1810460040624993,0.0,0
mp-3852,Tb3(CuGe)4,0.0,-0.634938264545454,0.0,0
mp-17953,MgNb2O6,3.4118,-3.1169814402777782,0.0,0
mp-23059,Rb2SnCl6,2.5354,-1.8772816927288891,0.0,0
mp-30326,Ti5FeSb2,0.0,-0.4298232816666667,0.0153758178125,0
mp-762555,LiFePO4,3.295899999999999,-2.4521157007993204,0.0994612489285691,0
mp-766064,Li3Fe8(BO3)8,1.4945,-2.3409390440310065,0.073022152718007,0
mp-550685,Ba2CaTeO6,2.9976000000000003,-2.79982897875,0.0,0
mp-770290,Li3B2SbO6,2.8223000000000003,-2.4297401248611106,0.0658396977083359,0
mp-571162,Ca3(GaN2)2,1.9139,-0.8984423477244445,0.0,0
mp-10015,SiOs,0.0,-0.3376853074999992,0.0411357183333329,0
mp-767186,LiMn3(OF3)2,1.2142,-2.5852304177100005,0.0893728177083321,0
mp-1027549,Mo3W(Se3S)2,0.7342000000000001,-0.7907808866406256,0.0276719349999998,0
mp-775388,Li5Mn7O15,0.0,-2.0264950472396284,0.0714795685350697,0
mp-9304,DyCuSeO,1.1804,-2.159943830377604,0.0163200743750007,0
mp-758758,Li2CuSiO4,0.0,-2.3431631049999995,0.0676064443750021,0
mp-5881,CoSbS,0.3662,-0.5809861730208338,0.0,0
mp-643067,Mg3Sn,0.0,-0.1122954125000002,0.0264026787500002,0
mp-849413,Li5Mn6(BO3)6,0.0,-2.4858953342360004,0.0367694265476004,0
mp-976982,Li2Mg,0.0,-0.033588015,0.0090512333333341,0
mp-772731,Li2Co3TeO8,0.0,-1.612313958571429,0.078166562500046,0
mp-772080,BaLaI5,2.5826,-1.577880677857143,0.0773463694642853,0
mp-722912,Hf3Zn3C,0.0,-0.4754699707142862,0.0,0
mp-631430,LaInW,0.0,0.8454876066666669,1.1873807733333326,0
mp-1008806,ReC2,0.0,1.5085440533333336,1.5253442720833323,0
mp-743839,CoHO2,0.0,-1.2520943190300002,0.12460382125,0
mp-1025946,Mo2W(Se2S)2,0.7075,-0.8326824047222234,0.035245494999998,0
mp-643829,AlSiHO4,5.5699,-2.8651997198028565,0.0830773985714286,0
mp-531130,TlBi25O39,2.127799999999999,-1.6072220502884622,0.0258152048846138,0
mp-1927,Dy4Sb3,0.0,-0.992058453095238,0.0,0
mp-25576,Li(MoO2)2,1.4956999999999991,-2.0935675414285706,0.0072084330357142,0
mp-780031,Fe3(O2F)2,0.0,-1.955300514708888,0.0890902068750083,0
mp-863887,LiFeSiO4,2.514199999999999,-2.576845882142857,0.0451712714285648,0
mp-32465,LiV(PO4)2,1.960999999999999,-2.5740324067658733,0.0268037796527842,0
mp-542475,CsFe2S3,0.0,-1.044996776197917,0.0,0
mp-568048,Hf54Os17,0.0,-0.3235380007746487,0.0164553620422509,0
mp-675127,FeSbO4,1.0037,-1.9258518016666668,0.0,0
mp-758829,Nb2OF8,4.2124,-3.3362865425700003,0.0124956770454556,0
mp-565683,Na4Zr(MoO4)4,3.6338,-2.37792327,0.0037370290000033,0
mp-20086,MnSn2,0.0,0.0112708866666674,0.0112708866666668,0
mp-771605,Li2CrFeO4,1.2734,-2.2060039543750003,0.0323085531250084,0
mp-23648,Li4Al3Si3ClO12,5.2612,-3.13519483535913,0.0,0
mp-784631,CrNi2,0.0,-0.0209966733333336,0.0,0
mp-28303,Na3SiSe4,1.7548,-0.8731033283593752,0.0,0
mp-769381,Ca3Ta2O8,4.5215,-3.4495550911538446,0.0498410043406458,0
mp-7849,AlAsO4,4.2482,-2.459218873333333,0.0,0
mp-1028732,Te2W2SeS,0.0,-0.4337539321093757,0.0749019345833339,0
mp-540687,Ge3(BiTe3)2,0.0,-0.1328543777272725,0.0217087245454541,0
mp-767209,Li8Nb(FeO4)3,0.007599999999999,-2.1457445552083327,0.0946073210416633,0
mp-579560,Cs3Sb2Br9,1.9837,-1.2144712585714286,0.0,0
mp-12454,ErCuS2,1.629299999999999,-1.7081411632812502,0.0,0
mp-29154,Hf2CoP,0.0,-0.9286653957738088,0.0,0
mp-757325,Li3Ti(PO4)2,0.244299999999999,-2.8229897737755096,0.0749047515629239,0
mp-510188,HfGa,0.0,-0.5037877566666656,0.0,0
mp-15599,K2Ca2(SO4)3,5.3165,-2.648764411036184,0.0024584252631543,0
mp-674355,Co(NiS2)2,0.0,-0.7987581344642862,0.0,0
mp-10692,CoGe,0.0,-0.2103240687499994,0.0063762275000005,0
mp-2038,Sm3S4,0.0,-2.395434541250001,0.0421762507142835,0
mp-6586,K2NaAlF6,6.858,-3.469336995713999,0.0,0
mp-989618,Cs2RbGaF6,5.939299999999999,-3.0833284197140003,0.0,0
mp-1026978,Te4MoW3S4,0.0,-0.6004526455208344,0.1254667131250002,0
mp-641621,U4Ga12Co,0.0,-0.2422050258823527,0.008431325686276,0
mp-770000,Li2CrCoO4,0.0,-1.979639945625,0.1149985612500002,0
mp-30945,Ga2PdBr8,1.6095000000000002,-0.7138189372727275,0.0,0
mp-6011,Ba4LiMo2N7,1.7645,-0.9926305847614288,0.0,0
mp-24547,ZnH2(SeO4)2,2.7238,-1.2645970588021145,0.0,0
mp-760014,LiSbF4,3.6756,-2.7989127322516665,0.0662716427083367,0
mp-626582,Mo(HO2)2,2.5418,-1.6724697024628563,0.0798669248214274,0
mp-689964,CoP2O7,0.3529,-2.076471885244048,0.1174550454375165,0
mp-559150,Na9ZrP4ClO16,3.9694,-2.7156826187303533,0.0,0
mp-627151,Zr(MoO4)2,3.105,-2.430407272727273,0.1124900218181874,0
mp-865177,GdNiB4,0.0,-0.5669542377777775,0.0,0
mp-766068,LiNiP2O7,0.093899999999999,-2.227518232949135,0.0799599486174269,0
mp-999203,ScC,0.0,0.1455503912499995,0.5909087829838686,0
mp-760457,YBO3,4.5918,-3.4626335795833336,0.0854183326666611,0
mp-560941,SiO2,5.7701,-3.2735149908333327,0.0111979166666671,0
mp-7170,UTeP,0.0,-0.7402945276984122,0.0011335816666679,0
mp-2284,AgF2,0.0,-1.4465389791266663,0.0083595683333292,0
mp-765377,Li2VFeP2(HO5)2,1.7307,-2.423324398662804,0.000793016851853,0
mp-865829,Lu2CuIr,0.0,-0.6884330949999988,0.0,0
mp-559151,BaSrTa2O7,2.1898,-3.507677979886364,0.0,0