formula,bg,formation_energy,mp-id,fidelity,bg_category
K2Mn3(AsO4)3,0.615699999999999,-1.979423776289654,mp-1195778,1,0.0
Fe4As3O16,0.2465,-1.3526239761956511,mp-818569,1,0.0
CaMg14FeO16,2.6849,-2.923767776249999,mp-1036463,1,4.0
SrCa7TiMn7O23,0.0,-2.630463966252578,mp-1247726,1,0.0
NiH6(SO6)2,0.0,-1.025417050119047,mp-746820,1,0.0
Li5FeO3F2,2.7258999999999993,-2.345058949242424,mp-755038,1,4.0
Ba2CaV2(Si2O7)2,2.0222,-3.114831572608696,mp-1233385,1,3.0
Li4AlNi3O8,0.0,-1.876845110208333,mp-1222534,1,0.0
Ta2Mn2O7,2.155799999999999,-2.828615295502611,mp-755851,1,3.0
MgV2(BiO5)2,0.0,-1.997851989333333,mp-1377306,1,0.0
ScV(SeO4)2,2.7794,-2.132164689557291,mp-1200926,1,4.0
LiLa2Co2Sb2(PbO6)2,0.0,-2.107762310634921,mp-1235261,1,0.0
Ca2MnIrO6,0.0,-2.298020989293104,mp-39440,1,0.0
Li8MnCr3O12,0.8409000000000001,-2.137914777274904,mp-766919,1,1.0
BaCoO3,0.0,-2.047858012,mp-18965,1,0.0
CaCrF5,3.2323,-3.561919715000005,mp-556748,1,4.0
Na(CoO2)8,0.0,-0.586546820255172,mp-675264,1,0.0
Nb2CoO6,1.7676,-2.668490155833343,mp-504552,1,2.0
Li10Mn3Co2Ni3O16,0.070099999999999,-1.797598714327248,mp-778315,1,0.0
Zn3Si3(WO6)2,0.798099999999999,-2.252824044875,mp-1163950,1,1.0
ZnNi2O5,0.0,-0.6982868187499991,mp-1831183,1,0.0
Li8(CoO2)5,0.6687999999999991,-1.708707732463768,mp-1638660,1,1.0
BaSm(CoO3)4,0.0,-1.3719754569444451,mp-1516805,1,0.0
RbPr(WO4)2,3.463199999999999,-2.642209553263882,mp-1209276,1,5.0
MgMn4O9,0.0,-1.632445323694581,mp-1047828,1,0.0
Sr12Tm3Ni5O24,0.0,-2.6855011109090903,mp-1218940,1,0.0
ZnMoO3,0.0,-1.8430667804999992,mp-1379617,1,0.0
NiH12(BrO7)2,3.038,-0.913534671551724,mp-690647,1,4.0
Na3Li(MoO7)2,0.3191,-0.915042947623562,mp-1203254,1,0.0
Li4Fe(OF)2,3.006,-2.357492731203704,mp-752518,1,4.0
Li4Co2Ni5O12,0.004599999999999,-1.412631172318841,mp-1177650,1,0.0
Li3V2(OF)3,0.6251,-2.79397147,mp-1280055,1,0.0
GdFeO3,0.0,-2.797173253499997,mp-600576,1,0.0
MgMn4(Si4O11)2,0.693499999999999,-2.893796438763546,mp-1234076,1,1.0
VH10SeNO9,2.7763,-1.266674303174716,mp-1201219,1,4.0
CaFe2(PO5)2,0.0,-2.306483458952381,mp-1044202,1,0.0
Li3Nb4FeO12,0.0,-2.7400924775,mp-756149,1,0.0
CoF3,1.6435,-2.150928883125,mp-1271079,1,2.0
CaMn2(H2O3)4,2.1103,-1.383934069167917,mp-1205048,1,3.0
CaMnGeO4,1.754799999999999,-2.568673011133004,mp-1214074,1,2.0
Mg3MnNi3O8,0.0,-2.1006743348620702,mp-1222170,1,0.0
Ba2WO3F4,3.9748,-3.354204817999999,mp-19234,1,5.0
LiMn2PO5,2.168499999999999,-2.406589901259806,mp-776397,1,3.0
Sr3CaTi3MnO10,0.0,-3.175935807940613,mp-1076170,1,0.0
Sr3Ca5TiMn7O24,0.0,-2.571507104221264,mp-1076217,1,0.0
Na2NiAsCO7,1.1155,-1.7612443987715511,mp-772551,1,1.0
Ca3Co2(Si2O7)2,1.2255,-2.9112189669565223,mp-1249267,1,1.0
Pr4(MoO2)9,0.0156,-2.197779397118281,mp-1221435,1,0.0
Ba2Mo2F11,1.9532,-3.210304746999999,mp-1040864,1,2.0
CoPN5O6,0.5804,-0.6466829805494501,mp-1202387,1,0.0
Li4FeNi5(PO4)6,0.0,-2.228039337779761,mp-766569,1,0.0
Li6Mn3Sn(PO4)6,0.3804,-2.522871106916256,mp-776373,1,0.0
KTl2CrF6,3.5979,-2.677724281391668,mp-1205672,1,5.0
Rb2MnH2OF5,0.9953,-2.5139747232210032,mp-24036,1,1.0
Li2CoAgF6,1.7043,-2.084272759833332,mp-1111099,1,2.0
KV4O8,0.0,-2.454622719019231,mp-29230,1,0.0
Zn11Cu(MoO4)12,0.9283,-1.891289962777779,mp-1216412,1,1.0
NaEu(CoO3)4,0.0,-1.065283319798851,mp-1520941,1,0.0
Sr3NiPtO6,0.0,-2.27420212340909,mp-19166,1,0.0
Sr3La2Fe4CoO15,0.0,-2.4075510954,mp-1218604,1,0.0
NiP2(PbO4)2,3.682,-2.262851917637363,mp-1202326,1,5.0
CaWF5,3.421,-3.268594951428571,mp-1409253,1,5.0
LaEu3(NiO3)4,0.0,-1.569793720000002,mp-1223280,1,0.0
Sr2PrVO6,1.658399999999999,-3.002961331166667,mp-1517869,1,2.0
Ba4Sr2La2Co4O15,1.4232,-2.587311778703704,mp-1228696,1,2.0
LaMn4(CuO4)3,0.0,-1.851974178836207,mp-1211392,1,0.0
Tm2Mn2O7,0.996599999999999,-2.92900769007837,mp-755041,1,1.0
MgV2H2O5,1.8302,-2.21036709625,mp-2223097,1,2.0
Li12Fe3CoP4(CO7)4,2.171699999999999,-2.326530082857143,mp-1178117,1,3.0
NdMo5O8,0.0,-1.6963589098214291,mp-16672,1,0.0
NaSrSmWO6,2.873599999999999,-2.8415699396379313,mp-1516403,1,4.0
Li9Co13O28,0.051,-1.511822746800001,mp-758645,1,0.0
MgZn4(Fe2O5)2,0.0,-1.621892782894736,mp-2230844,1,0.0
Rb2V2Si8O21,2.913299999999999,-3.045565881818182,mp-1219801,1,4.0
Co(PO3)3,1.612199999999999,-2.317413669532967,mp-584429,1,2.0
Fe3(OF3)2,0.1785,-2.182594620454545,mp-777811,1,0.0
Si2WO6,0.001699999999999,-2.781807325555555,mp-1143521,1,0.0
Na2(NiO2)5,0.0724,-1.062529512515213,mp-760161,1,0.0
VCoO3,0.1143,-2.000081474,mp-1206118,1,0.0
Ho2Mn(GeO3)4,2.0636,-2.66811549699637,mp-1224234,1,3.0
ZnFe(GeO3)2,1.2894,-1.938722734250001,mp-1043588,1,1.0
LiEu(WO4)2,0.0,-2.4697984423611112,mp-1212166,1,0.0
Na4Mn2P2O7F6,1.585799999999999,-2.7412039921745253,mp-1201699,1,2.0
K2NiH12(C2O7)2,3.3749,-1.477793720893938,mp-554044,1,5.0
SrEu(NiO3)4,0.0,-0.7471937591666671,mp-1520067,1,0.0
CaLaCrBiO6,0.0,-2.536354276999999,mp-1048881,1,0.0
Li4Cr3GaO8,3.3916,-2.382991087239582,mp-755522,1,5.0
Fe2Sb(PO4)3,2.2426,-2.310054099940476,mp-849513,1,3.0
Na6Li3Fe6(PO4)8,1.4336,-2.433602145916704,mp-1101725,1,2.0
CaH6W3(CO2)2,0.0,-0.186195430156249,mp-1215054,1,0.0
Li2(CoO2)3,1.1551999999999991,-1.570815814696969,mp-758725,1,1.0
Ba2LaWO6,1.9219,-3.064883092000001,mp-1522426,1,2.0
Ge3(WO6)2,2.899899999999999,-2.027191629411764,mp-1325965,1,4.0
VIn2O5,0.197,-2.147828970729166,mp-21274,1,0.0
Ni9O13,0.0,-0.7995626965909091,mp-1045896,1,0.0
Eu8Mn3Nb5O28,0.0,-3.054712265768025,mp-1229284,1,0.0
CsV2(PO6)2,0.249,-2.12881071861417,mp-1196205,1,0.0
Gd2NiPtO6,0.0,-2.514124334999999,mp-1212708,1,0.0
LuMn4(CuO4)3,0.0,-1.834520231419541,mp-1105980,1,0.0
Sb2Te3WC4(OF3)4,1.9537,-1.784554007403846,mp-1198791,1,2.0
Na5Fe3F14,3.3197,-2.8344897503134803,mp-560925,1,4.0
EuWO2,0.0,-1.68423858375,mp-1212926,1,0.0
Mg3Fe3O8,0.0,-2.179799038214285,mp-753591,1,0.0
LaZnFeNiO6,0.0,-1.890760947000001,mp-1044026,1,0.0
K3MgVO4,0.4282,-1.976646245194444,mp-2217188,1,0.0
Sr2YMn2GaO7,0.0,-2.717576130643235,mp-1047071,1,0.0
Ba3MgV4O14,3.1827,-2.853698848636363,mp-1195880,1,4.0
ZnMoF6,0.0,-2.617556358124999,mp-1407092,1,0.0
Li2V4O3F8,0.0,-2.966373575392157,mp-753231,1,0.0
ZnP3W3O13,0.0,-2.141595208196428,mp-1047917,1,0.0
Na5VO4,0.0,-1.7910764034396551,mp-1101696,1,0.0
Ti5Cr(PO4)6,0.0,-2.8865952026256623,mp-776640,1,0.0
Mg30VCuO32,0.0952,-2.9387152856250003,mp-1037549,1,0.0
Mg2Nb2CoO8,2.852999999999999,-2.797192030769231,mp-1046744,1,4.0
Li2Si3Ni2O9,3.7565,-2.553637194479167,mp-1265127,1,5.0
BaAlCrCuO5,0.0,-2.135838199444444,mp-1042497,1,0.0
NaV(NF3)2,1.6235,-1.302733654137931,mp-1079436,1,2.0
Fe(O2F)2,0.233099999999999,-0.930643036428571,mp-1213097,1,0.0
TaVO4,1.8279,-3.039436780388889,mp-755190,1,2.0
FeSb(P2O7)2,2.6756,-2.40442337942857,mp-1213459,1,4.0
WO4,0.0,-1.22808274675,mp-1201934,1,0.0