formula,bg,formation_energy,mp-id,fidelity,bg_category
LiNi6O6F,2.2607,-1.439424730595238,mp-758667,1,3.0
Ba3Fe2Br2O5,2.4063,-2.444294398749999,mp-556428,1,3.0
V2Ge(O2F)2,1.876599999999999,-2.6329023847222213,mp-558123,1,2.0
AlFeF5,4.2584,-3.310668462142857,mp-28901,1,6.0
CaSmMnSnO6,1.070599999999999,-2.682502858793104,mp-1521356,1,1.0
LiCr3O4,0.083599999999999,-2.055587825416665,mp-774235,1,0.0
Fe14Cu7(PO4)18,0.0827,-2.197613766788931,mp-1226029,1,0.0
Mo4H2N2O13,0.426899999999999,-1.176531530119049,mp-1212007,1,0.0
Li2Fe3CuO8,0.0639,-1.540407883511903,mp-775479,1,0.0
MnFe3(PO4)4,0.2372,-2.341830317562603,mp-766435,1,0.0
Li4Mn3Co2Sb3O16,0.0,-1.935303203825944,mp-754687,1,0.0
Zr2Mo(PO6)2,3.1721,-2.999141319222689,mp-12540,1,4.0
Sr3MgCo2S2O5,0.0,-2.052109628846154,mp-1048653,1,0.0
Li3Zn2Fe19O32,0.0,-1.702299270178572,mp-1177501,1,0.0
MnH20S2(NO7)2,4.0467,-1.322709253023872,mp-1210871,1,6.0
NaCa2Fe5(SiO3)8,0.5075000000000001,-2.797840630784483,mp-818519,1,0.0
K3CrO4,1.239399999999999,-1.92780925959375,mp-19414,1,1.0
RbTaV2O8,2.8144,-2.697450944569444,mp-1194597,1,4.0
Gd2Hf2(MoO4)7,3.094,-2.5788518344871783,mp-1213333,1,4.0
CaV6O11F,1.017599999999999,-2.519038496315789,mp-1233816,1,1.0
BaV2Ni3(HO5)2,2.5875999999999992,-2.017501866250001,mp-1205427,1,3.0
AlCr4(CuO4)3,0.0,-1.713893238500001,mp-1045721,1,0.0
La5Sm3Ni7AgO24,0.0,-2.309614046541666,mp-1076249,1,0.0
MnP2H12(CO2)4,4.702500000000001,-1.118102101933953,mp-1199960,1,7.0
CoP2WO8,2.0195,-2.296515399107142,mp-757476,1,3.0
Sr2Ca6TiMn7O24,0.0,-2.567394752221264,mp-1099702,1,0.0
Li17(CoO4)3,0.3449,-1.9222114014583331,mp-1172980,1,0.0
FeS2NO20,0.0,0.0694026684375,mp-1213629,1,0.0
Sr4Al6CrO16,2.254099999999999,-3.251243121851852,mp-554152,1,3.0
Li4V2Ni3Sb3O16,0.581199999999999,-1.988310506190476,mp-774610,1,0.0
Li6P8W3O29,2.88,-2.579305248742236,mp-1176966,1,4.0
Tl3VF6,0.0,-2.370383564999997,mp-1205535,1,0.0
CoMo8H36C8(NO16)2,2.5548,-1.096651903908046,mp-720809,1,3.0
LiFe4(BO3)4,1.7785000000000002,-2.233861939523809,mp-774381,1,2.0
NaLaFeWO6,2.2965,-2.569487316137931,mp-1105823,1,3.0
Li4V3Cr2Fe3O16,1.0431,-2.194666305119047,mp-778220,1,1.0
Li4V3Co2Sn3O16,1.2795,-2.135569647797619,mp-778284,1,1.0
Li3FeB4O9,3.1077999999999992,-2.579986830980392,mp-752621,1,4.0
KPrZnWO6,3.106,-2.446087947891667,mp-1517800,1,4.0
CaWO3,1.9784,-2.611401141499999,mp-1342410,1,2.0
Ba3La7Mn(Co3O10)3,0.0,-2.41142772865862,mp-704461,1,0.0
MnNb4O12,1.668,-2.761903158995944,mp-775807,1,2.0
Li8NiO5F,2.0814,-2.026317759777778,mp-764727,1,3.0
LiCoGeO4,1.3981,-1.84043751404762,mp-763507,1,2.0
LiMnP3H8O13,3.9443,-1.980339243853574,mp-780729,1,5.0
Ba2CaV2(P2O9)2,1.9504,-2.8997731040211643,mp-1363137,1,2.0
Li3TiCo3O8,0.6404999999999991,-2.031468432888888,mp-761172,1,0.0
Eu4Mo4O11,0.0,-2.072366880526317,mp-554530,1,0.0
Li4Mn3Co3(WO8)2,0.3206,-1.926887760968801,mp-774604,1,0.0
Li4Fe(PO4)2,4.042,-2.616678448507935,mp-31890,1,6.0
Fe5Cu(PO4)6,0.5035000000000001,-2.201516816329364,mp-771903,1,0.0
CrWO6,0.902899999999999,-1.6842622975,mp-1802603,1,1.0
K4CaV6O16,0.526999999999999,-2.39232998662963,mp-1234591,1,0.0
Ta2Zn2CoO8,0.0,-2.540788902858974,mp-1046160,1,0.0
Li3Ti(CoO3)2,0.0,-2.201780326944444,mp-771220,1,0.0
Li2Fe2P2O8F,0.6709,-2.415911117396824,mp-1205186,1,1.0
Rb4MgFe8H6(Se8O25)2,2.3228,-1.509759834470588,mp-1197601,1,3.0
Li4Mn5Cr2O12,0.5664,-2.153071538390804,mp-850972,1,0.0
MnV4Fe(Pb2O9)2,0.3325,-1.987665615997537,mp-1221864,1,0.0
Li2CuMoF6,0.0,-2.223153679333334,mp-1111143,1,0.0
EuCu(MoO4)2,0.0,-2.132517154583335,mp-560455,1,0.0
Mn3NbO8,0.5273999999999991,-2.139855806566091,mp-1176463,1,0.0
Li4MnFe3(PO4)4,3.8643,-2.516236326601278,mp-783919,1,5.0
SrCa3Mn4O11,0.0,-2.504356370880219,mp-1247640,1,0.0
MnH8N2(OF2)2,3.4884,-1.339353233995943,mp-1194998,1,5.0
Ca3WO6,3.706,-3.081071199499997,mp-781505,1,5.0
CrH12N3(OF2)3,4.1373,-1.332468087399999,mp-1182011,1,6.0
Ba2La6Mg4Ti3WO24,2.1649,-3.43792784825,mp-744094,1,3.0
La16(Mo3O8)7,0.598499999999999,-2.5812097097849462,mp-1197618,1,0.0
Li5Fe3O8,0.0,-1.8446192460416664,mp-1177185,1,0.0
Li11Fe3B24(PbO24)2,1.1731,-2.6540728206439392,mp-694909,1,1.0
La2TiCoO6,0.5484,-3.324110930583335,mp-1211314,1,0.0
Ca8ZnCo3(Si2O7)4,3.1325,-3.088509426874999,mp-1227193,1,4.0
Na6Ni(SO4)4,4.1393,-2.104065848084291,mp-1210276,1,6.0
Li3V4O7F5,1.190699999999999,-2.6959028726315792,mp-765375,1,1.0
K10Zr3Mn(MoO4)12,2.2342,-2.329893899465283,mp-532562,1,3.0
Ca(FeO2)2,2.081,-2.176721821785713,mp-1271060,1,3.0
MgAl6FeSi2(BO9)2,3.7273,-3.195869743444445,mp-1222184,1,5.0
AlFe3F15,0.0,-2.314354470526315,mp-1041859,1,0.0
Li4Cr3Fe2Sn3O16,0.7382999999999991,-2.106622021011904,mp-775748,1,1.0
CdFeO3,0.0,-1.316018186,mp-776476,1,0.0
V2Se3O11,2.1989,-1.665833239658202,mp-29173,1,3.0
NaCrH12(SO4)2,0.144699999999999,-0.695370054849137,mp-1212562,1,0.0
Ho2FeSbO7,1.3926999999999992,-2.748330794090907,mp-1224105,1,2.0
Sr2AlGaFe2O7,1.267099999999999,-2.4789067625,mp-1048505,1,1.0
Ba3V4PbO14,3.1539,-2.734256147727272,mp-561403,1,4.0
Ba3Co3Te(PO7)2,2.5517000000000003,-2.499213797432712,mp-1228226,1,3.0
Ba2YMgMn3O8,0.0,-2.5536710705862062,mp-2228188,1,0.0
K4Mn2S4O19,0.105399999999999,-1.775668756805589,mp-1199803,1,0.0
PrCoSbPbO6,1.2137,-2.104514894666667,mp-1219903,1,1.0
Ba2SrMnO6,0.0,-2.403894301793103,mp-1521476,1,0.0
KFeH5(SO5)2,2.0856,-1.710807995842105,mp-1223582,1,3.0
FeCuPO5,0.0,-1.952877971517858,mp-505811,1,0.0
BaMn9V6O26,0.0079,-2.303330483723318,mp-1196033,1,0.0
Pr3Mn2Sb3O14,0.0,-2.681966737311913,mp-1192218,1,0.0
Li7Fe7P6(O8F)3,3.3326,-2.480085135663626,mp-760108,1,5.0
Sr2CoWO6,2.0256,-2.605262132499999,mp-1274308,1,3.0
K3MoF6,3.352999999999999,-2.927756605174998,mp-553896,1,5.0
NaLaEuWO6,0.6625000000000001,-2.77306310913793,mp-1517878,1,0.0
Na4CrC6(N3O5)2,0.0,0.380659538314175,mp-1202356,1,0.0
Na2MnHgF6,0.0,-2.428299653318966,mp-1111165,1,0.0
Li2MnV3O8,1.5865,-2.437405645685549,mp-775327,1,2.0
Fe2Os(CO)12,1.6779000000000002,-0.719497716851852,mp-683792,1,2.0
Na4Ti5Mn4O18,0.8330000000000001,-2.728868373997034,mp-766831,1,1.0
Sr2MnMoO6,0.930099999999999,-2.648809522793103,mp-555929,1,1.0
K3Mo4O16F,1.1287,-1.498097233197916,mp-1212278,1,1.0
Li2CuNiO4,0.0,-1.459353232708333,mp-754716,1,0.0
LiCoSiO4,1.299,-2.349885492857142,mp-764945,1,1.0
MgTi4MnZnNiO12,2.3451,-2.9249945003132183,mp-1222066,1,3.0
MgV2(Ga2O5)2,1.8675,-2.375315535,mp-2229821,1,2.0
CoP2(H4O5)2,2.448,-1.769815492823129,mp-24536,1,3.0
Cu4MoW3O16,0.0,-1.65761638625,mp-1225898,1,0.0
Sr4Fe3ClO8,0.2749,-2.430725191875,mp-1147563,1,0.0
Cs2NaNiF6,0.0,-2.573864586068965,mp-1111951,1,0.0
Mn3OF6,0.5111,-2.634913814129311,mp-760051,1,0.0
Li4Mn(OF)2,1.5468000000000002,-2.443405189029374,mp-753522,1,2.0
LiV2O3F,1.219599999999999,-2.640146621904762,mp-753091,1,1.0
Dy2MgV2O7,1.465999999999999,-3.07523934111111,mp-2218240,1,2.0
Rb4Mo5(PO11)2,3.3712,-2.267381667251082,mp-1199088,1,5.0
MgTi2V2O6,0.0,-2.685232951060607,mp-2217303,1,0.0
Sr2YVO6,1.6134,-3.14178828,mp-1517134,1,2.0
MgV2CuO6,0.186399999999999,-2.1827921695,mp-2240255,1,0.0
La4Co3O10,0.0,-2.792840349264706,mp-1203869,1,0.0
Li9Ni15O28,0.0,-1.289586827115384,mp-759153,1,0.0
BaSrCeWO6,0.624799999999999,-3.090258999,mp-1517687,1,0.0
Li2Ni5(PO4)4,3.6441,-2.187937985749559,mp-26921,1,5.0
Ca4Mg3Si8NiO24,4.7374,-3.244887420875,mp-1227614,1,7.0
Mg6CrBO8,0.0,-2.505372218697917,mp-1099233,1,0.0
UMoO6,2.1839,-2.767629485937499,mp-18958,1,3.0
Ca2ZrFeO6,0.0,-2.799852334999999,mp-1521637,1,0.0
Li6Cr3P6WO24,1.5999,-2.575366141446429,mp-758279,1,2.0
Dy2MgW2(ClO4)2,2.4472,-2.6624941852222213,mp-2232238,1,3.0
MnH4NF3,2.8948,-1.685742488936782,mp-1210843,1,4.0
Cs3K5Mo8(P2O11)4,1.9145999999999992,-2.443378866799388,mp-1227037,1,2.0
Li4CrH8SO7,2.5375,-1.606123862182538,mp-770612,1,3.0
V4CrFeO12,0.029599999999999,-2.244955217777778,mp-1101192,1,0.0
Li2Mn4O3F8,0.068199999999999,-2.602183444905342,mp-753394,1,0.0
MgV3CoSn2(PO4)6,1.128599999999999,-2.533564916563706,mp-1234391,1,1.0
Fe2H3F2,1.4885,0.343410562321428,mp-1212847,1,2.0
V6O7F5,1.1646,-2.761977455,mp-779909,1,1.0
MgNiO2,3.4026,-2.133779868749999,mp-1221953,1,5.0
Mg7Mn5O12,1.4032,-2.5690311222772992,mp-764245,1,2.0
Sr2AlV2GaO7,0.431499999999999,-2.5809490763461542,mp-1046771,1,0.0
CrSb3(PO4)6,1.3604,-2.362304837584033,mp-775202,1,2.0
MgCu3(WO3)4,0.0,-1.69575006025,mp-1043299,1,0.0
Ca2NiWO6,2.933,-2.608180873,mp-19114,1,4.0
Ba3NiIr2O9,0.0,-2.048973204666667,mp-540907,1,0.0
RbMg6CoO8,0.048799999999999,-2.24947677796875,mp-1032333,1,0.0
Li2MnCr3O8,0.9677999999999992,-2.247750001578407,mp-1177916,1,1.0
SmCo(BO2)5,3.1202,-2.872250434901961,mp-19489,1,4.0
Na8Mg(FeO4)2,1.9348,-1.746264615580762,mp-2230177,1,2.0
Li4Mn5Ni(PO4)6,0.464599999999999,-2.464115681021141,mp-867956,1,0.0
K2FeCl5O,0.361,-1.424296037444444,mp-1196996,1,0.0
MgFeF4,0.129799999999999,-3.077072115833333,mp-1778883,1,0.0
YCu(MoO4)2,2.0016,-2.266380460729168,mp-559028,1,3.0
La3TaCo2O9,1.9036,-3.12102328248889,mp-1223384,1,2.0
Ca3Co2(RhO6)2,0.0801,-1.615749112631578,mp-1378332,1,0.0
Li2Ni4OF8,3.3502,-2.321904841111111,mp-765224,1,5.0
Sr2Co(CO)2,0.440599999999999,-1.114006462857142,mp-1147608,1,0.0
MgFe6(OF)6,1.4226,-2.142348058157894,mp-2230086,1,2.0
V3Cu2Sb(PO4)6,0.0,-2.375604631607143,mp-759729,1,0.0
CoH8(ClO2)2,3.2609,-1.235074532666667,mp-1182181,1,4.0
CaAs2WO7,3.075,-2.143967177727272,mp-1043068,1,4.0
Rb2TlVF6,0.0,-2.840599925833334,mp-1113849,1,0.0
BaNd(FeO3)4,0.0,-1.641026950416667,mp-1522481,1,0.0
Ca3Fe4(SbO4)6,1.6167,-2.005526130000001,mp-1042781,1,2.0
MgTi2(CoO3)2,0.8216999999999991,-2.457778336515152,mp-2217318,1,1.0
MgV2Ni(TeO5)2,1.535499999999999,-1.9291853155208332,mp-2233001,1,2.0
NaTbEuWO6,0.299999999999999,-2.8660974383045983,mp-1517099,1,0.0
VH10SO10,3.0782,-1.54325867715909,mp-721365,1,4.0
Ca2LaMn3O9,0.0,-2.68688678941954,mp-1227659,1,0.0
LaW9O28,0.0,-2.267363013552631,mp-766003,1,0.0
TeMo6(NO6)4,0.5863,-0.672734033333333,mp-1199748,1,0.0
LaMgCrSnO6,2.669,-2.734359138499999,mp-1049277,1,4.0
Ba7Ca2Mn5O20,0.7955000000000001,-2.60379826351927,mp-556409,1,1.0
MgV2P2(HO5)2,1.3596,-2.513794679810924,mp-2228946,1,2.0
BaCaSmMnO6,0.0,-2.702946084293104,mp-1522001,1,0.0
VZnSF5,0.0,-2.516933640312499,mp-1369435,1,0.0
Eu3FeO6,0.0,-2.7890771100000022,mp-1189159,1,0.0
Cr3Ni(SO4)6,0.0,-1.9012723263235292,mp-774914,1,0.0
Mn2VHO5,1.541799999999999,-2.09748632954023,mp-1199415,1,2.0
NiPH16NO10,4.9634,-1.367780262746305,mp-505449,1,7.0
NbCo3(PO4)4,0.712599999999999,-2.147056595773809,mp-756466,1,1.0
Mn2Al3Fe(PO7)3,0.0,-1.976059898159688,mp-1225171,1,0.0
Co4GeP4(H6O11)2,3.1437,-1.8075256356644511,mp-1199973,1,4.0
Mn9CdO10,0.0,-1.882052173568965,mp-756679,1,0.0
La6Sm2V3Cr5O24,0.966299999999999,-3.095291638500001,mp-1076584,1,1.0
MgCrSiO5,0.5888,-2.699886571249999,mp-1046669,1,0.0
Nd2Te3MoO12,3.0617,-2.353775973194444,mp-558484,1,4.0
RbSi2Mo3P6O25,0.3667,-1.601329046496138,mp-705894,1,0.0
Ba2Tl2Zn3Cr4O12,0.0,-1.758745934637682,mp-1807788,1,0.0
K2Mo2O5,0.4885,-1.6989641805,mp-1075956,1,0.0
ZnNiF5,1.6149,-2.138967449285714,mp-1343278,1,2.0
Mn19Fe17O48,0.0,-1.830351313579638,mp-706492,1,0.0
CaMoO4,3.5006999999999993,-2.639627267500002,mp-19330,1,5.0
MnSi6Pb8O21,3.2475,-2.458247506609195,mp-699587,1,4.0
Li2Si2NiO6,3.7949,-2.656881666742424,mp-1645783,1,5.0
MnCr2Fe3(PO4)6,0.0,-2.380677560160783,mp-776060,1,0.0
Ba2CeCrO6,0.0,-3.028614512,mp-1519270,1,0.0
LaFe5Bi4O15,1.7804000000000002,-1.8692691476,mp-1223162,1,2.0
Ga2NiP3H8NO14,4.2619,-1.904841990652709,mp-23783,1,6.0
V2Fe(PO4)3,0.0,-2.547618151329366,mp-1101225,1,0.0
LiMnPO4F,0.8695,-2.626849563863404,mp-25410,1,1.0
Ba2FeCoClF7,2.111799999999999,-3.171922779583333,mp-1228629,1,3.0
TiNiO6,0.0,-1.048997341666666,mp-33738,1,0.0
La7SmCrFe7O20,0.8537999999999991,-2.733681809791668,mp-1076459,1,1.0
SrCa7Mn6Al2O20,0.0,-2.740433175766284,mp-1247712,1,0.0
Ba2Y2Co4O11,0.0,-2.280249277105264,mp-1214560,1,0.0
Li4Ni(PO4)2,3.531399999999999,-2.552803923674603,mp-26369,1,5.0
LiTiVO4,0.762,-2.937961547380953,mp-772042,1,1.0
Ba2YW2F11,2.3033,-3.255405725729166,mp-1048842,1,3.0
Cs2CoF6,0.0,-2.472950881034483,mp-610706,1,0.0
Li3MnOF3,2.4906,-2.770674090366379,mp-755504,1,3.0
CaMn4O9,0.0,-1.742698182980296,mp-1047836,1,0.0
Li3Mn2OF5,2.306,-2.79664139507837,mp-753529,1,3.0
SrNi3(P2O7)2,4.020099999999999,-2.498386486071429,mp-19211,1,6.0
Na9Co2O7,1.1929,-1.482338685134099,mp-510308,1,1.0
Li2VH2OF5,2.5226,-2.628512490151515,mp-770536,1,3.0
Li3MnO2F,0.613599999999999,-2.26168898934729,mp-756674,1,0.0
EuNbFeSnO6,0.0,-2.433550817,mp-1517512,1,0.0
KLiMnO2,0.0,-1.850684253202874,mp-549671,1,0.0
NaLaDyFeO6,0.3405,-2.5176853148045972,mp-1518772,1,0.0
Li2Mn3Si3O10,2.2462,-2.73346017141443,mp-767709,1,3.0
V3P2O11,1.3295,-2.509552978861608,mp-775997,1,1.0
Pr5Te7MoCl3O23,2.6886,-2.370805832179486,mp-1173622,1,4.0
CaCrO6,0.0,-1.24449164703125,mp-1204789,1,0.0
MnP2H36C12N6(ClO)2,4.254,-0.339986220364209,mp-698303,1,6.0
Mn7(P2O7)4,0.0,-2.550460003433955,mp-778008,1,0.0
Na5(NiO2)6,0.0,-1.264992766386805,mp-765679,1,0.0
Na4(CoO2)7,0.0,-1.454568885420689,mp-18846,1,0.0
MnAl2P2(HO)18,4.1187,-1.839281416578457,mp-504975,1,6.0
Sr2Fe23O38,0.0461,-1.671427624285714,mp-1101422,1,0.0
Li2V5Cr2O12,1.2959,-2.392069722460316,mp-782662,1,1.0
Na9LiFe10(SiO3)20,2.7449,-2.729088724957471,mp-775304,1,4.0
Mo2Cl4O,0.136499999999999,-1.13523057642857,mp-690522,1,0.0
Ta2FeO6,2.7333,-2.976409758851888,mp-31755,1,4.0
Li5Mn3(BO3)4,0.0,-2.496018831546934,mp-766500,1,0.0
VN3O10,3.0186,-1.122044450535714,mp-1205113,1,4.0
Li10Ti2Mn3Co3O16,0.0,-2.163662359229208,mp-779764,1,0.0
KTm(MoO4)2,3.5609,-2.550837927062501,mp-1211532,1,5.0
Ba3CoRu2O9,0.0,-2.056674646666667,mp-19058,1,0.0
Ba3CoSb2O9,0.0,-2.436329391833334,mp-19337,1,0.0
VH3CO5,2.8555,-1.682298784375001,mp-1207864,1,4.0
SrLaFeRuO6,0.0,-2.489706637,mp-697833,1,0.0
BaSrGdVO6,1.5448,-3.121279716000001,mp-1519521,1,2.0
Sr2MgCoO4,2.0047,-2.4145308943750012,mp-2223886,1,3.0
Na2Mo2O7,3.2222,-2.104612824341707,mp-19760,1,4.0
KPrMnWO6,1.322299999999999,-2.511125722684769,mp-1522610,1,1.0
KEr(MoO4)2,3.5667,-2.5487994864375,mp-1211601,1,5.0
Mn5H4(SO5)3,0.0,-1.6091474115613031,mp-1200131,1,0.0
Li3FeSiO5,2.3424,-2.4981904615,mp-764341,1,3.0
Mn(ClO)2,0.0,-0.6428733355862071,mp-1069083,1,0.0
KPr(NiO3)4,0.0,-0.8088223032731471,mp-1520250,1,0.0
RbFe3P3(O4F3)2,3.535399999999999,-2.6306204876870742,mp-1201795,1,5.0
Mo2C8Br8N2O3,0.4877,0.711925086304346,mp-1182454,1,0.0
SrLa4Cr5O15,0.4964,-3.025218932999999,mp-1650920,1,0.0
TiV2O7,2.1462,-2.691691609333334,mp-752445,1,3.0
MgFe2P2(HO)18,2.4065,-1.679564737970384,mp-24752,1,3.0
Ba3V2(PO5)3,1.5997,-2.99330578310559,mp-558477,1,2.0
VOF,1.344799999999999,-2.852374580833333,mp-764900,1,2.0
Na8(WO3)19,0.0,-2.160952756738506,mp-1173831,1,0.0
CrF4,1.5712000000000002,-2.60675029,mp-554855,1,2.0
GaCo(Mo3O20)2,0.0,-0.36456960390625,mp-1200291,1,0.0
Cr2N2O7,0.2802,-0.752893674999999,mp-1181809,1,0.0
V9(P2O7)8,0.000299999999999,-2.575865568818342,mp-1101365,1,0.0
Cs2NaVO4,3.9493,-2.289819043836207,mp-19447,1,5.0
LiVSnO4,1.4519,-2.331040234761905,mp-850189,1,2.0
Ni5Ge(BO5)2,0.0769,-1.7988316387962962,mp-1220232,1,0.0
Ca3MnCuO6,0.6747999999999991,-2.521987856857367,mp-1214191,1,1.0
Mn2BiO5,0.416199999999999,-1.885386032295258,mp-504697,1,0.0
Rb2MnF4,3.0201,-2.984600183275862,mp-1206523,1,4.0
Mg14NiBiO16,1.9701,-2.67404746125,mp-1034577,1,2.0
Li4Mn3Nb3(SbO8)2,0.6898000000000001,-2.405514321325945,mp-1664776,1,1.0
Rb8Hf(MoO4)6,3.9993,-2.312537084615384,mp-1209493,1,6.0
CaMn3V4O12,0.5004999999999991,-2.447468526939655,mp-1272308,1,0.0
Ba2Mg(WO4)2,1.046599999999999,-2.561109834999999,mp-2226861,1,1.0
Li2Mn3P4(HO4)4,3.7852,-2.3257532996217662,mp-778123,1,5.0
Li4Co3Sn2Sb3O16,0.0,-1.9039553926190471,mp-774605,1,0.0
CoTeO4,0.0,-1.449877877361117,mp-1226075,1,0.0
Mn3Sn3(TeO8)2,0.0,-1.7869892530052691,mp-772482,1,0.0
MgMoWO6,1.0505,-2.279918928333332,mp-2217505,1,1.0
Ba3MnF6,0.0,-3.176552553793103,mp-1206760,1,0.0
KSmEuWO6,0.163899999999999,-2.875538655725,mp-1519009,1,0.0
CoSiH15N6(OF3)2,2.7165,-1.237551123508064,mp-1226454,1,4.0
MgMn2O5,0.0,-1.870180653857759,mp-1043161,1,0.0
CoH24C2S2(N3O7)2,1.879,-1.08285795489796,mp-1198847,1,2.0
NaNdEuWO6,0.4619,-2.770024659387931,mp-1516393,1,0.0
Sr5Ti4FeO15,0.2471,-3.273427647133333,mp-1218575,1,0.0
DyYMn2O6,0.0,-3.042663056752874,mp-1225181,1,0.0
RbCr2FeO8,1.9996,-1.795238411666666,mp-504649,1,3.0
V7Sb4(NO11)2,0.7904,-1.629979388785714,mp-1205274,1,1.0
KCr2AgO7,1.6974,-1.6157626619469692,mp-559172,1,2.0
LaCrFeO6,0.5343,-2.102783358888888,mp-1378182,1,0.0
Ti3Fe(PO4)6,0.0,-2.707883469054623,mp-775436,1,0.0
K2RbTbV2O8,3.3975,-2.7278107384761903,mp-19428,1,5.0
Dy2FeSbO7,1.796,-2.733000232575756,mp-1225341,1,2.0
Li3Cr(PO3)8,0.0,-2.493898218531745,mp-26329,1,0.0
Li2Mn3TeO8,0.140299999999999,-1.999073188723317,mp-753235,1,0.0
VAg2PO6,1.835,-1.876219641797618,mp-558255,1,2.0
BaEu(FeO3)4,0.0,-1.525653123055555,mp-1518402,1,0.0
NaMnVO4,2.3623,-2.308823436687192,mp-1193468,1,3.0
LiCoOF,0.0,-2.046323325833333,mp-760241,1,0.0
LaCr4(CuO4)3,0.2062,-2.04441889275,mp-1106068,1,0.0
Dy2MgMo2(ClO4)2,1.7314,-2.658407499222221,mp-2228768,1,2.0
Li4Ni3Sn(PO4)4,2.015,-2.342508054889456,mp-753100,1,3.0
BaSrPrWO6,2.106299999999999,-3.040154876166667,mp-1518103,1,3.0
Sr3(FeO3)2,0.3201,-2.514771984545455,mp-18924,1,0.0
Hf9Mo4O3,0.0,-0.727440152499999,mp-1212453,1,0.0
Y4Si2Sb2W13O28,0.0,-1.777232791632652,mp-1248937,1,0.0
SrV4O9,2.5099,-2.645260334285715,mp-18716,1,3.0
CaV(PO3)4,2.9611,-2.800480191309522,mp-1045800,1,4.0
Li2MnCu3O8,0.0,-1.352370296756978,mp-754267,1,0.0
K2NiC4(SO)4,1.767199999999999,-1.015529855633333,mp-1211754,1,2.0
K2Mn(SO6)2,0.0,-1.2951899822018251,mp-1204866,1,0.0
Li4Si2NiO7,3.7315,-2.623675862738094,mp-767687,1,5.0
Ba10Ti8NbNiO30,0.0,-3.323934518933334,mp-1228979,1,0.0
Ba2MnRuO6,0.0,-2.317134364793104,mp-1228678,1,0.0
V3CrSb2(PO4)6,0.0,-2.50817961188492,mp-759710,1,0.0
MgZn2Ni3O8,0.0998,-1.337125880357142,mp-2228510,1,0.0
Li2V3CoO8,0.0,-2.425220934047618,mp-1291671,1,0.0
Li4Mn3V3(SnO8)2,0.7889,-2.273013485968802,mp-775771,1,1.0
Al2Fe(SiO5)2,0.0478,-2.540316967833333,mp-1198093,1,0.0
SrLa3Mn4O10,0.8902000000000001,-2.886313503429118,mp-1218306,1,1.0
Fe3Co2Ni(PO4)6,0.0,-2.112044560218254,mp-758190,1,0.0
MoOF4,4.1826,-2.505726884791667,mp-27511,1,6.0
KTbCr2O8,2.7243,-2.3373111836597222,mp-558923,1,4.0
Li3Cr3(PO4)4,2.7786,-2.632813293791209,mp-26205,1,4.0
MgMo2HO6,0.907099999999999,-2.023781443625,mp-2222875,1,1.0
Li5Cr2P2(CO7)2,1.0114,-2.399471247038095,mp-1177167,1,1.0
LiCoPHO5,2.0953,-2.064567898802911,mp-754793,1,3.0
LiMgIn(MoO4)3,3.2154,-2.187027366944445,mp-558897,1,4.0
Mn5SnO12,1.466799999999999,-1.786253262480842,mp-757467,1,2.0
La12Ga23WO56,0.0,-2.815351017309782,mp-1223721,1,0.0
Na5Mn2As(CO4)4,0.005699999999999,-1.91693863679495,mp-776638,1,0.0
Li4TiMn4(Fe2O9)2,0.4363,-1.9929223572061552,mp-768043,1,0.0
Rb4Mn(MoO4)3,3.128399999999999,-2.170566202396551,mp-1219695,1,4.0
Li4Mn5Sb(PO4)6,0.016899999999999,-2.47497786977114,mp-1177350,1,0.0
Li4Ni3(OF3)2,3.5669,-2.398218728888888,mp-758172,1,5.0
LiFe2P2O9,0.0373,-2.236727559115646,mp-1013910,1,0.0
Li13Ni15O28,0.0,-1.466696166666666,mp-766878,1,0.0
Ba2Mn2ZnCuF14,0.0733,-3.024730312043103,mp-1045867,1,0.0
Mn4NO8,0.7198,-1.285075867440318,mp-1210626,1,1.0
Li2Ti3Ni(PO4)6,0.0168,-2.75101111262566,mp-757337,1,0.0
KLaCuWO6,0.0,-2.291526811225,mp-1522686,1,0.0
KCaInWO6,3.432,-2.359078096391665,mp-1519052,1,5.0
CaAl2Si2(WO4)2,0.7341000000000001,-2.146714630666666,mp-1215070,1,1.0
Li4Mn3Cr2Sn3O16,0.2195,-2.132003490433087,mp-774860,1,0.0
NiAs3NF18,0.0012,-1.969841068478261,mp-1211733,1,0.0
SrCaSmMnO6,0.0,-2.696601852293104,mp-1522553,1,0.0
Cr2FeNO8,0.0,-0.8994639710416661,mp-818685,1,0.0
VTeO4,0.102899999999999,-2.002969940277779,mp-30525,1,0.0
Co2Sb2O7,0.770999999999999,-1.581761497272727,mp-1192102,1,1.0
Li10Co4O9,1.4087,-1.774703425362318,mp-1185179,1,2.0
LiAlFeO4,0.091499999999999,-2.278529001904762,mp-1253150,1,0.0
Mn3B7IO13,3.8123,-2.602058373873323,mp-23566,1,5.0
Li3MnF7,1.5942,-2.865955650266457,mp-759724,1,2.0
Li7(NiO2)11,0.0,-1.264148072583332,mp-768079,1,0.0
CoBC8(OF2)5,3.2026,-1.467851403466668,mp-562548,1,4.0
Fe3Te3ClO10,1.9995999999999992,-1.558137695882353,mp-1200464,1,3.0
Ca4MnFe11Si8(HO9)4,0.5691,-2.469365890358297,mp-1227550,1,0.0