formula,bg,formation_energy,mp-id,fidelity,bg_category
FePO6,0.341299999999999,-1.467807983705356,mp-1196792,1,0.0
Li3Mn3O8,0.0,-1.977158775985222,mp-770608,1,0.0
Sr2SmWO6,2.0057,-3.079033571250001,mp-1517397,1,3.0
LiMg(Fe5O8)2,0.0,-1.720526960297618,mp-773699,1,0.0
KMo3(PO7)2,2.1257,-2.291183801076785,mp-17306,1,3.0
Ca8Al9Fe3Si12(HO13)4,2.598799999999999,-3.127196104715908,mp-1227544,1,3.0
Co3O4,0.0,-1.290338224285714,mp-1271793,1,0.0
BaLa5TiCr5O18,1.995000000000001,-3.218606116444446,mp-694922,1,2.0
MgV2(OF)3,1.3275,-2.888940003888889,mp-2217147,1,1.0
LuCoO3,0.0,-2.639663920333333,mp-550950,1,0.0
Li4Mn5O12,1.0113,-2.053914901094687,mp-691115,1,1.0
BaDyV4O12,0.0,-2.58351216787037,mp-1520124,1,0.0
LiMnV(P2O7)2,1.369399999999999,-2.594715559515989,mp-759232,1,2.0
Rb2Co2(MoO4)3,0.0,-1.777731286710527,mp-1209900,1,0.0
Mg2MnH24(ClO2)6,4.1517,-1.453731464176245,mp-729389,1,6.0
Cr2H2Pb4ClO10F,2.067199999999999,-1.715939719374999,mp-1226437,1,3.0
Mg14MnSnO16,0.1736,-2.771446860716594,mp-1036224,1,0.0
Rb2VHgF6,0.003599999999999,-2.670305425750001,mp-1113932,1,0.0
LiMn4(PO4)3,3.3657,-2.551067789199302,mp-26393,1,5.0
Ni(SbO2)2,2.0339,-1.623124937499998,mp-21275,1,3.0
Ca8Cr(PO4)7,0.0035,-3.100745873465909,mp-1334592,1,0.0
LiVCo3(PO4)6,0.0,-2.090617244891156,mp-768928,1,0.0
Li5Fe2(PO4)3,3.9183,-2.527876362413419,mp-1177302,1,5.0
Al(FeO2)2,1.0647,-2.234448979285713,mp-1293197,1,1.0
NaCaCeFeO6,0.0,-2.379443916137931,mp-1517149,1,0.0
LiLa(WO4)2,3.6807,-2.6684821406944432,mp-1210919,1,5.0
LiMnVF6,2.3554,-3.140685938288633,mp-1193542,1,3.0
MgV8O20,0.6721,-2.365876722931035,mp-2223715,1,1.0
Li3MnB4O9,0.8096000000000001,-2.588792471446923,mp-768410,1,1.0
Li2V2Sn(PO4)3,0.0,-2.5437467272797623,mp-768559,1,0.0
CaCoWO6,0.0,-1.9933265299999992,mp-1372511,1,0.0
SrCo2Te3(ClO4)2,1.867699999999999,-1.7442858740625,mp-562378,1,2.0
Na5CoHO4,1.418599999999999,-1.480955126763323,mp-774341,1,2.0
Y2Cu3(WO4)6,0.269299999999999,-2.1823504298571432,mp-1330191,1,0.0
Na2FePO4F,3.5279,-2.537232553461276,mp-1194940,1,5.0
Li4Co(PO4)2,3.306,-2.588927636341269,mp-25995,1,4.0
Ba2GdV3O11,3.143,-2.997164150294117,mp-1215029,1,4.0
Li4MoO5,2.8472,-2.261947287833334,mp-19117,1,4.0
Mg30CoCuO32,0.0,-2.9036034101562502,mp-1037496,1,0.0
NaSrDyMnO6,0.0,-2.389139574097701,mp-1520296,1,0.0
Li5Mn2Fe5O12,0.8722000000000001,-1.9042175776053651,mp-770934,1,1.0
La2GaNiO6,0.6707999999999991,-2.75964756225,mp-1272284,1,1.0
Sr(FeO2)2,1.936,-2.1480569966071412,mp-21926,1,2.0
Mg30FeBO32,0.0,-2.880783265299479,mp-1037542,1,0.0
LiMn3Al2(HO2)6,0.7946000000000001,-2.048751003942768,mp-690617,1,1.0
MgMn5FeO12,0.8632000000000001,-1.889944238666062,mp-2230001,1,1.0
Fe2Cu3(SeO3)6,0.2582,-1.25126374255388,mp-558202,1,0.0
Li3Nb(FeO2)4,1.9741,-2.059122376874999,mp-1177575,1,2.0
Nd2CoNiO6,0.0,-2.520333432999999,mp-1220568,1,0.0
Sr2MgZrCrO6,2.4492000000000003,-2.95411561590909,mp-2215839,1,3.0
Tb2MnNiO6,1.8813,-2.850117359626436,mp-573037,1,2.0
Y5Be6Fe3(SiO5)6,1.8421999999999992,-3.1661962626,mp-1266607,1,2.0
BaDy(FeO3)4,0.0,-1.629581174537037,mp-1522063,1,0.0
Sr2GdCoCu2O7,0.0,-1.863403503461539,mp-560285,1,0.0
NaSmEuWO6,0.422299999999999,-2.809645793137932,mp-1523299,1,0.0
Sr2UCrO6,0.9756999999999992,-3.272775954999999,mp-1205705,1,1.0
Fe3Pb(SO7)2,0.0,-1.378266124249999,mp-1189324,1,0.0
MnVP2(HO5)2,1.178799999999999,-2.222209580919798,mp-753350,1,1.0
SrPr(CoO3)2,0.0,-2.252979476666665,mp-1218091,1,0.0
K10Co4O9,0.3409,-1.4142037742391291,mp-690511,1,0.0
Y2MnFeO6,0.8599000000000001,-2.900460739293103,mp-1216171,1,1.0
LiSm2Cr2O8,0.706599999999999,-2.735354253333333,mp-1235200,1,1.0
LiV3P3O13,0.0,-2.671769407363095,mp-1013878,1,0.0
Gd3MoO7,0.0,-3.345289248863636,mp-1204194,1,0.0
K3CrC5N6O,0.7408,-0.289110614328126,mp-705039,1,1.0
CrH15N6Cl2O,2.3579,-0.6453789155499999,mp-1226479,1,3.0
FePH3CO7,2.6603,-1.798872261030219,mp-1212774,1,3.0
V2B(PO4)3,2.2316,-2.66371261952381,mp-560575,1,3.0
Li3V3CrO8,0.908999999999999,-2.442379760999999,mp-769596,1,1.0
Li4Mn3OF11,1.0928,-2.855915020901392,mp-861557,1,1.0
Mg14FeBO16,2.0291,-2.749245597161457,mp-1035654,1,3.0
Li3Fe4(Si3O10)2,0.0,-2.558796747272727,mp-779820,1,0.0
LiCrBO3,1.4909,-2.444927581250001,mp-754133,1,2.0
YMnGaO5,1.585,-2.70172051286638,mp-1207709,1,2.0
CaMn4O6,0.0,-2.232742526974922,mp-1042706,1,0.0
Gd2MgTl2(WO4)4,1.794999999999999,-2.442604340066666,mp-1233756,1,2.0
Ca2CoSi2O7,3.056,-3.066876938958333,mp-18786,1,4.0
KBa2Ni2F9,0.047999999999999,-3.202108726589285,mp-1223553,1,0.0
Sn5W8O23,1.7193999999999992,-1.840291658472221,mp-27357,1,2.0
MgTiMnO4,2.2124,-2.887004985180625,mp-2227189,1,3.0
Ca2SbMoO6,0.0,-2.563670942499999,mp-1370909,1,0.0
Na2YMoPO8,4.2058,-2.758327418261652,mp-557549,1,6.0
Na2Mg(MoO3)2,1.4402,-1.985632308887147,mp-2217629,1,2.0
K2Nb4Fe2O13,1.8139999999999992,-2.681097893309524,mp-17508,1,2.0
NaMnBO3,2.5928999999999993,-2.379849755579501,mp-756091,1,3.0
BaCaYVO6,1.620299999999999,-3.084479229,mp-1517517,1,2.0
YMn2O4,1.1057,-2.635155938694583,mp-1045475,1,1.0
MgV2(SiO4)3,1.4533,-2.701512509305555,mp-1261307,1,2.0
Fe7P12WO48,0.0,-2.174663668760503,mp-770783,1,0.0
Na2YPWO8,4.7418,-2.789904791146267,mp-1201418,1,7.0
MgV4(PO5)4,1.251,-2.585176595295566,mp-1233511,1,1.0
Ba2SnWO6,1.5556,-2.521390678999999,mp-1518946,1,2.0
Ti2CrIn3O6,0.0,-1.657097750555554,mp-1217256,1,0.0
Li4Mn2Co5O12,0.4878,-1.696120180182408,mp-774397,1,0.0
K2CrF5,3.8102,-3.107266392281249,mp-1212394,1,5.0
Li2V3(PO4)3,0.449,-2.602146604279762,mp-772292,1,0.0
VGa2O5,1.666199999999999,-2.304976676875,mp-756465,1,2.0
Mg14NbFeO16,0.907999999999999,-2.7841322625,mp-1035626,1,1.0
Li2FeSiCO7,0.0,-2.197448208055555,mp-772072,1,0.0
Mn7SbAsO12,0.0,-2.0031418089532,mp-699691,1,0.0
KV4P7O24,1.923499999999999,-2.6960439974930552,mp-557659,1,2.0
Li3V8O11,0.2095,-2.243433882954547,mp-1177632,1,0.0
Na4Ni3O7,0.0,-1.291160317179802,mp-753027,1,0.0
Zr9Co3O2,0.0,-0.765447093928571,mp-1215381,1,0.0
BaLaCrMoO6,0.0,-2.724911492500001,mp-1229299,1,0.0
Dy3BWO9,3.788599999999999,-3.384105871011903,mp-556997,1,5.0
Li3Fe2CoO6,2.1016,-1.867370908333333,mp-1222513,1,3.0
MgVBO4,2.457799999999999,-2.721599832023809,mp-2223622,1,3.0
Li7Ni9O16,0.0,-1.442575931354166,mp-768059,1,0.0
KCaFe2F9,3.3095,-3.094810605814102,mp-1212124,1,4.0
Mg3Te2Pb6WO18,2.559999999999999,-1.9494039989444432,mp-1222251,1,3.0
Ho2MgV2O8,1.5759,-3.076217136538461,mp-2227384,1,2.0
MnH44C12N8(ClO5)2,4.0442,-0.571795802765338,mp-1200531,1,6.0
BaEuFeSnO6,0.0,-2.374925717000001,mp-1521180,1,0.0
KMgV3Cu4O13,0.0,-1.897210823738636,mp-505094,1,0.0
VTeH11(NO4)2,2.6724,-1.208092956105072,mp-1199327,1,4.0
Na5LiNi2P2(CO7)2,3.9515,-2.231616009404445,mp-768847,1,5.0
MnCdF5,0.766,-2.633123739704433,mp-557222,1,1.0
Na9Fe2O7,1.6267,-1.567115631800765,mp-16398,1,2.0
MgIr2(WO6)2,0.0,-1.764860706764705,mp-2229273,1,0.0
Li4FeOF5,1.5943,-2.804742301515152,mp-759422,1,2.0
Li2CrCuF6,0.5853,-2.470096772666667,mp-1111900,1,0.0
V2P2PbO10,2.080399999999999,-2.517060544619047,mp-562239,1,3.0
CaCr3(P2O7)2,2.3839,-2.671128187435065,mp-1040822,1,3.0
Li5MnCr3O8,2.3146,-2.237045884829276,mp-761082,1,3.0
Li4MnV3O8,0.560199999999999,-2.393183766329023,mp-759213,1,0.0
Na3V(H14O11)2,1.7959,-1.331957762761814,mp-1221471,1,2.0
Li2V12O29,0.0,-2.330590394457363,mp-773021,1,0.0
Gd2W2O9,2.844,-2.91553006923077,mp-770657,1,4.0
Li5Mn7O12,0.0,-2.087851223007663,mp-754393,1,0.0
ZrMn2H12(O3F4)2,3.6889,-2.091929311926278,mp-1205027,1,5.0
Na9Fe3P8O29,2.4659,-2.530946146113401,mp-761065,1,3.0
FeAsO3,0.0,-0.8859549385000001,mp-1184215,1,0.0
Sr2LaCoO6,0.0,-2.4582152535,mp-1080670,1,0.0
BaSrV4(CuO4)4,0.3759,-2.108016911538461,mp-1227667,1,0.0
MgZn2Te2(MoO6)2,1.112699999999999,-1.8327634925438592,mp-2230459,1,1.0
LiVP3(H7O8)2,2.574299999999999,-1.801291367421769,mp-780313,1,3.0
LiFe2P5O16,2.5853,-2.49606889360615,mp-26184,1,3.0
Ta2Mo2O11,2.585,-2.609210000644432,mp-1186878,1,3.0
MnAl2P2H10O13F2,4.582199999999999,-2.178472947490557,mp-1201658,1,6.0
CaTiFe5O8,2.0571,-2.014490026888888,mp-1234086,1,3.0
V(PO3)2,0.6557000000000001,-1.688386834920633,mp-724868,1,0.0
Li2Mn3GaO8,0.5734,-2.11592336735427,mp-1307659,1,0.0
Li12CrCo3P4(CO7)4,1.2044,-2.3152753484340662,mp-766700,1,1.0
RbCr(SO10)2,0.038699999999999,-0.659324685833333,mp-1179805,1,0.0
Ca2W2O5,0.0,-2.094381511111111,mp-1341052,1,0.0
Li6Mn2P(CO4)4,0.0,-2.162656823982929,mp-771904,1,0.0
La3Si(Mo2O7)2,1.337099999999999,-2.811151238863636,mp-1224288,1,2.0
KSrCaMnO6,0.0,-2.049051863518104,mp-1520978,1,0.0
Mn2NbFe3(PO4)6,2.3071,-2.518850434269977,mp-775988,1,3.0
Mn3Fe2Co3O16,0.0,-1.340404621824712,mp-1176503,1,0.0
Na5NiCO5,1.6222,-1.613660890366379,mp-1220779,1,2.0
Rb3MnO3,1.3497,-1.655166975775862,mp-553971,1,2.0
Li5Cr3FeO8,2.405399999999999,-2.185640795392157,mp-759913,1,3.0
Li8Mn7Cu(PO4)12,0.0945,-2.419005245893397,mp-1176950,1,0.0
Mn3Sb2(IO)4,1.6919,-1.450644659522546,mp-1193915,1,2.0
MgFe2(SbO3)4,0.2862,-1.8116952107894744,mp-2230937,1,0.0
Sr2Y2Ni2O7,0.379799999999999,-2.734793196153846,mp-1048742,1,0.0
VPbOF5,2.5426,-2.7392418696875,mp-1195912,1,3.0
LiCo2CuO6,0.290999999999999,-1.199945246333334,mp-766810,1,0.0
Li3Mn4CuO8,0.0,-1.930807360107759,mp-753827,1,0.0
LiV6O15,0.6382000000000001,-2.327483292992424,mp-776036,1,0.0
Li2CoSi3O8,3.1595,-2.767005680119047,mp-753262,1,4.0
Mn2CuH12(NO2)4,0.5776,-0.724769258550448,mp-1182304,1,0.0
Nd2Te2W2O13,3.417399999999999,-2.479931707807018,mp-554313,1,5.0
Li9V5(Si5O16)2,1.764199999999999,-2.827539880357142,mp-863437,1,2.0
CaNiMoP2O9,1.6824,-2.573872554948979,mp-1043759,1,2.0
MgV6O11F,0.8228000000000001,-2.466106037631579,mp-1233721,1,1.0
NiH10(SeO5)2,3.8277,-1.268271875747282,mp-1181715,1,5.0
W5O7,0.0,-0.927488374583332,mp-1345171,1,0.0
ZnCr2O6,0.0,-1.570351122222222,mp-1045720,1,0.0
NiH8C4(NO2)3,0.5109,-0.8207157754545461,mp-1220880,1,0.0
Rb2CoH8(CO5)2,1.8421999999999992,-1.559357923695651,mp-24624,1,2.0
MgCo4(OF)4,0.222099999999999,-1.8074510488461544,mp-2218425,1,0.0
FeCuC5N6O,0.0,0.465901358571428,mp-556016,1,0.0
Ba2V3O8,0.0,-2.55405923,mp-1048112,1,0.0
Na5CoO4,1.461299999999999,-1.521409258939655,mp-21792,1,2.0
Ba2Mg2Tl2Ni3O10,0.0,-1.7899160219298251,mp-1046522,1,0.0
AcVO3,0.0,-3.141069095500003,mp-1183168,1,0.0
K4V2O7,3.4405,-2.371041250307691,mp-557105,1,5.0
CaSmCrO4,2.4963,-3.157899224999999,mp-1227138,1,3.0
V3ZnO7,2.126299999999999,-2.298497134318182,mp-1044293,1,3.0
Mg2V2O7,2.7138,-2.675142304545454,mp-27150,1,4.0
NaMn3P3(HO6)2,2.058,-2.399799092457189,mp-24586,1,3.0
TmCrO3,2.6809000000000003,-3.2474085135,mp-777295,1,4.0
RbWO7,0.246199999999999,-0.961517560555554,mp-1209741,1,0.0
K5Te2Mo6H18NO36,0.199599999999999,-1.537996037677696,mp-1228356,1,0.0
Li2Mn3VO8,1.0272,-2.18942661110427,mp-1177922,1,1.0
KFe2P3(O4F3)2,2.4313,-2.662277484308915,mp-1205183,1,3.0
RbCoNiF6,0.9368999999999992,-2.4539128647222213,mp-1219591,1,1.0
Li3FePO5,3.1798,-2.438612460964285,mp-765579,1,4.0
Li4Fe5Sn3O16,0.0,-1.8962276849404751,mp-1177407,1,0.0
Na3Li6Mn5O9,0.0,-1.796417329947526,mp-765723,1,0.0
K2LiV5H10O19,2.5943,-1.9202595605495492,mp-1203349,1,3.0
V4OF11,1.5881,-3.131094345624999,mp-760888,1,2.0
VBiPbO5,2.9255,-2.02351889125,mp-560699,1,4.0
Nb9V2O25,0.0,-2.758270219305556,mp-1210227,1,0.0
Ni2C5(Cl2O)2,2.7923,-0.227025517692307,mp-1180042,1,4.0
KMgMn2O4,1.3453,-2.063213477264009,mp-2225911,1,2.0
Li3Mn3SiO8,1.1074,-2.323324132586207,mp-761765,1,1.0
V5BO9,1.464799999999999,-2.539806968277779,mp-770506,1,2.0
PrTl(WO4)2,3.330699999999999,-2.477551839583334,mp-1209389,1,5.0
KMn2P2HO9,0.7007000000000001,-2.380012160243185,mp-1193430,1,1.0
LiMg14MnO16,0.7531999999999991,-2.919224547227011,mp-1036220,1,1.0
Li4Mn2Cr3Sn3O16,0.0501,-2.166163214792693,mp-775298,1,0.0
Sr2MgFeCoO6,0.6553,-2.138330795909091,mp-2222850,1,0.0
LiVSO4F3,1.2039,-2.439441812333333,mp-769603,1,1.0
Cu2NiSnO4,0.0,-1.343353608749999,mp-1225946,1,0.0
MgMn4(NiO6)2,0.390399999999999,-1.649517768774954,mp-2231728,1,0.0
Rb2Fe2O3,0.0,-1.497958862142857,mp-755676,1,0.0
Li4Nb3V3(SbO8)2,0.2586,-2.4779916140476193,mp-776001,1,0.0
Li4Ti2Fe3Sn3O16,1.398299999999999,-2.313245089464286,mp-775705,1,2.0
V2SiO4,1.8974,-2.639103511071429,mp-772047,1,2.0
Li3TiMn2O6,0.5592,-2.485938660349617,mp-1292456,1,0.0
K2V3P2O13F2,0.463999999999999,-2.379623554717533,mp-818268,1,0.0
Ca2FeWO6,3.0012,-2.672509629,mp-1275487,1,4.0
Sr6Ce2Y4Fe3(CuO8)3,0.0,-2.844734770238096,mp-1218662,1,0.0
MoH8S2(NO)2,2.2132,-0.769435118666666,mp-24234,1,3.0
Li2CuNiF6,0.0,-2.247561114333334,mp-1111560,1,0.0
NaMg6FeO8,2.6866000000000003,-2.646298521336206,mp-1032374,1,4.0
Na2MnP2O7F3,0.325999999999999,-2.463806377998358,mp-1104356,1,0.0
VSnO4,1.6557,-2.278321618333331,mp-752504,1,2.0
Li4Cr3Cu2Sb3O16,0.0,-1.94861138047619,mp-774503,1,0.0
Ba2V(SiO4)2,2.6343,-3.210516682307664,mp-19179,1,3.0
MgVO3,2.7895,-2.768925973999999,mp-27186,1,4.0
LiCrNiO4,0.0,-1.733245711190476,mp-768708,1,0.0
Na6Mn2V4O15,2.3606,-2.287313549227331,mp-1203333,1,3.0
Ca2Cr2O5,0.9077,-2.683408700555555,mp-1105485,1,1.0
KCrF3,1.4898,-2.9281725704499992,mp-556365,1,2.0
Ba2Sr6Co3Cu5O24,0.0,-1.79581650925,mp-1076264,1,0.0
MgCr2(BiO4)2,1.242,-1.9375740780769224,mp-2218406,1,1.0
Cd2Ni(ClO2)6,0.114199999999999,-0.169583680714285,mp-1182834,1,0.0
Eu2ZrWO6,0.0,-2.984259763000001,mp-1520588,1,0.0
Cs6Fe2O5,0.0,-1.402424795225465,mp-505147,1,0.0
K4Ti3Ni(PO4)6,2.308099999999999,-2.844651223733083,mp-698691,1,3.0
AlBi(WO4)2,2.3077,-2.254597890833333,mp-1042146,1,3.0
TaMn2FeO6,1.6284,-2.39781616531954,mp-1217936,1,2.0
Rb2CrAuF6,1.6645999999999992,-2.5511064155,mp-1110593,1,2.0
SiWO4,1.9867,-2.382437736805554,mp-1249282,1,2.0
Ba3FeO5,0.0,-2.484196669444442,mp-30093,1,0.0
Fe3P4H8NO12,1.7257,-1.680019313520408,mp-1204707,1,2.0
K2U(MoO5)2,2.3125,-2.548123813133332,mp-558075,1,3.0
Li5Cr2Co3O10,0.0,-1.918534942083333,mp-756240,1,0.0
Mo2(PO4)3,1.0492,-2.445183153760503,mp-32077,1,1.0
MnPbO3,0.0,-1.655090434586205,mp-1188613,1,0.0
LiLa2VO6,1.9389,-3.145690757333334,mp-1206458,1,2.0
SrEuYCoO6,0.0,-2.600878157500001,mp-1518110,1,0.0
Ca2Al2FeSi3HO13,2.569499999999999,-3.079444635511364,mp-696825,1,3.0
Mg30MnFeO32,2.932200000000001,-2.952568543092672,mp-1037923,1,4.0
Na3VPCO7,1.0198,-2.368112139906214,mp-769592,1,1.0
Ca3LaMn4O12,0.0,-2.641738117836207,mp-1227732,1,0.0
SrCa7TiMn7O21,0.0,-2.662813598212178,mp-1247574,1,0.0
Eu2Mn2O7,0.0,-2.499772190532917,mp-761284,1,0.0
Li2Zr7Fe(PO4)12,0.0,-3.0046915157483,mp-759723,1,0.0
Mo3(NO5)2,0.4819,-1.205685279666667,mp-1180361,1,0.0
Li4Ti3Fe3(WO8)2,0.9861,-2.49144564797619,mp-775133,1,1.0
Na2H4WO6,4.736599999999999,-1.779275683866047,mp-1203800,1,7.0
Eu2DyWO6,0.0,-2.974335327166666,mp-1518182,1,0.0
Li2NbFe3O8,1.8022,-2.182662671190475,mp-775011,1,2.0
FePHO5,0.0,-1.893148341361606,mp-757067,1,0.0
Ca5Y3Ti5Mn3O24,0.5861000000000001,-3.337391526011495,mp-695044,1,0.0
GdCr3(BO3)4,0.5184000000000001,-2.835781287833333,mp-1105604,1,0.0
Mg6MnVO8,3.3983,-2.758973151120689,mp-1031817,1,5.0
BaYMn4O7,0.0,-2.453895325132626,mp-1048366,1,0.0
NaCrP2O7,2.7876000000000003,-2.650525645060455,mp-17142,1,4.0
Sr7CaMn3(FeO4)5,0.0,-2.414710206563697,mp-1099661,1,0.0
Li5Fe2Co5O12,0.0,-1.637267254027778,mp-753569,1,0.0
Mg30ZnFeO32,3.2203,-2.9457428814062503,mp-1037212,1,4.0
Sr4MgMn2Cu2(SO3)2,0.0,-2.05350840622718,mp-2229452,1,0.0
K4NaV10O38,0.039599999999999,-1.113885758875082,mp-1204526,1,0.0
Cr3Fe2Sb3O16,0.4576,-1.838558555416665,mp-775288,1,0.0
HoCr2O2,0.0,-1.100289952999997,mp-1212589,1,0.0
Co4(CuO4)3,0.0,-0.9438927352631572,mp-1043067,1,0.0
Na3LaV2O8,3.767899999999999,-2.683029873152709,mp-558512,1,5.0
MgMn(Ni3O4)2,1.5885999999999991,-1.419731113933189,mp-2233064,1,2.0
Mo3H9I3(ClO)4,0.1143,-0.8572913274456521,mp-699471,1,0.0
VP3(Pb2O7)2,2.222,-2.3457272475081172,mp-1198079,1,3.0
Sr5La3Mn8(O2F)8,0.0,-2.973383405211206,mp-694947,1,0.0
BaWF7,3.2735,-3.242570979444435,mp-1047945,1,4.0
LiCr2(PO4)3,0.100599999999999,-2.466843056236772,mp-1101532,1,0.0
Li2Fe7(OF2)4,1.653599999999999,-2.168521135079364,mp-761205,1,2.0
TiZnNiP2O9,3.051599999999999,-2.547477593044218,mp-1043054,1,4.0
Sr3CaCo3CuO12,0.0,-1.8977733792499991,mp-1076688,1,0.0
Ba(Mo3O5)2,0.085899999999999,-1.743794238088236,mp-624196,1,0.0
La2MnCoO6,0.0,-3.224243978293104,mp-19208,1,0.0
Sr4Cr3O10,0.0,-2.640693855294118,mp-1208703,1,0.0
Cu3(WO3)4,0.0,-1.67799205736842,mp-1043077,1,0.0
Fe3P2O11,0.0,-1.8085150941741064,mp-1196540,1,0.0
Li15(FeO4)4,0.0,-1.798948996571428,mp-766829,1,0.0
Li6Mn5Ni3O16,0.258699999999999,-1.864447180321838,mp-760956,1,0.0
Cs2WO4,4.544799999999999,-2.252970350258624,mp-1193656,1,6.0
Li4Mn2V3O12,0.7118,-2.34716084972359,mp-760844,1,1.0
CrSnSbO6,0.9006000000000001,-2.125878194444444,mp-1226180,1,1.0
MnB2P3H10N2ClO13,4.4006,-1.879331148990403,mp-1195729,1,6.0
Sb3(WO3)20,0.0,-2.092155122048193,mp-765569,1,0.0
VH6CNO3,2.9104,-1.029829359010416,mp-1247806,1,4.0
Li3Mn2(CoO4)2,0.2269,-1.799279267057471,mp-779153,1,0.0
K4Mo3H4O17,2.442199999999999,-1.663219581035713,mp-735596,1,3.0
Li14Cr2N8O,2.415999999999999,-0.793937244466666,mp-542789,1,3.0
CrO,0.0,-1.967088979999999,mp-755073,1,0.0
Fe2Te2(PbO4)3,1.754,-1.606144394649122,mp-1225390,1,2.0
Li3Fe2CuO6,0.610399999999999,-1.752624023333332,mp-755180,1,0.0
K2LiVO4,3.976099999999999,-2.376295727229166,mp-558369,1,5.0
Li4Mn2V3Sn3O16,1.047199999999999,-2.260707690864121,mp-777427,1,1.0
VH17C4S4(O5F3)4,2.8513,-1.614757568124999,mp-1197884,1,4.0
Li3Co13O5F19,2.2427,-2.105384060000001,mp-761039,1,3.0
LiCaNiF6,0.0,-2.984132797592592,mp-559584,1,0.0
BaLaCoIrO6,0.0,-2.256188090500001,mp-1228112,1,0.0
FeH12C2S2(O2F)6,4.3131,-1.5418566079999991,mp-743577,1,6.0
Co3Ni2Te3O16,0.0,-1.207678231666667,mp-757443,1,0.0
Tm2NiRuO6,0.0,-2.6741555535000012,mp-1208122,1,0.0
Mn2BO4,0.5381,-2.358904995718389,mp-28943,1,0.0
CoAgPO4,1.7129,-1.866099493044218,mp-505353,1,2.0
ZnFe2As2(HO5)2,1.6353,-1.6466722498529411,mp-766713,1,2.0
NaCa3Mg3Fe(SiO3)8,2.9691,-3.189528822659484,mp-1221119,1,4.0
Ti3Mn2Co3O16,0.038899999999999,-2.036080600244253,mp-757180,1,0.0
Zr3NiO,0.0,-0.9776758620000012,mp-18927,1,0.0
CaTb2Mn3O9,0.0,-2.8680120311417623,mp-1227302,1,0.0
LiFe3(OF3)2,2.014599999999999,-2.467869310277777,mp-754427,1,3.0
MnV5(PO4)6,0.0339,-2.581703935438561,mp-771878,1,0.0
SrCrSn(PO4)3,3.085299999999999,-2.74750680799603,mp-560855,1,4.0
La8Mn7O24,0.0,-2.983956423731212,mp-531566,1,0.0
NiMo4O15,0.4503,-1.50631667475,mp-1180053,1,0.0
Ti3V2Cu(PO4)6,0.0,-2.770317125218253,mp-765089,1,0.0
Ti3P6WO24,2.5297,-2.878812087584031,mp-775198,1,3.0
Ba2MgVFeO6,1.87,-2.478661074999999,mp-2223880,1,2.0
Li3Fe3(BO3)4,1.827299999999999,-2.317873538030303,mp-766497,1,2.0
RbMn4(AsO4)3,1.723,-1.980940143836209,mp-15282,1,2.0
MnZnF5,0.0433,-2.663302068275862,mp-1394801,1,0.0
Mn4P3NO12,0.0,-2.084108692157636,mp-727750,1,0.0
Li4CrNi3(PO4)4,1.583299999999999,-2.40957405542517,mp-757068,1,2.0
Li2Fe(Si2O5)3,0.0,-2.883397132256944,mp-775303,1,0.0
W3C7NCl6O7,0.1841,-0.3698692346875,mp-1179461,1,0.0
Li5VF8,2.491,-3.151178071190476,mp-765894,1,3.0
Li5Mn5O12,0.5106,-2.044698977105538,mp-771669,1,0.0
BaSr7Mn2(Fe3O10)2,0.0,-2.3833106376628352,mp-1076181,1,0.0
SmEuHfCrO6,0.0,-3.298802617999999,mp-1520876,1,0.0
Sr2Cu2Ni(SO)2,0.0,-1.512156987222222,mp-505611,1,0.0
Li2CoOF3,0.6992,-2.494454193809524,mp-754749,1,1.0
AlCrF5,2.4445,-3.410629022142856,mp-1262600,1,3.0
Zn(MoO3)2,0.8466,-1.831768327222222,mp-1045736,1,1.0
Li6Fe5CoO12,1.5574,-1.865802877916667,mp-763920,1,2.0
Li6NbFe5O12,1.7343000000000002,-2.060352182083333,mp-752667,1,2.0
Ti3Mn(PO4)6,0.0,-2.67631454399377,mp-774414,1,0.0
CaCrF4,0.0,-3.535186316666667,mp-1388114,1,0.0
Mg3FeO4,3.2759,-2.646509484374998,mp-1273130,1,4.0
Cs2MnNiF6,3.9301,-2.798176958724138,mp-1226311,1,5.0
Li4MgCo3O8,0.0,-1.889811899270832,mp-754576,1,0.0
LiV2(OF)3,0.7335,-2.729808743703703,mp-779054,1,1.0
TiFeO3,2.2487,-2.729712792666666,mp-1277107,1,3.0
Nb2Co(PbO3)3,0.0,-2.179254015666666,mp-1220846,1,0.0
ZnFe4O9,0.0,-1.133021758214285,mp-1048044,1,0.0
CuMoO4,0.440699999999999,-1.5773445200000011,mp-619545,1,0.0
CoH4S(NO2)2,1.8879,-1.037412036041666,mp-1199194,1,2.0
NaMn2(SiO3)3,0.0,-2.754865733149427,mp-1193750,1,0.0
SrEuYCrO6,0.0,-2.8941332185,mp-1519529,1,0.0
NdDy(NiO3)4,0.0,-1.25581707162037,mp-1521174,1,0.0
LiV8F33,1.1614,-2.985874394603175,mp-781739,1,1.0
V7O4,0.0,-0.8880170063636361,mp-1205504,1,0.0