formula,bg,formation_energy,mp-id,fidelity,bg_category
MgZr3Tl10(MoO4)12,3.032,-2.088383034707208,mp-726071,1,4.0
KWNClF5,3.5158,-2.243745467194444,mp-558352,1,5.0
Na2Ni3O7,1.1632,-1.023034323979885,mp-776392,1,1.0
Na9Sc(MoO4)6,4.2232,-2.244983833935344,mp-1201917,1,6.0
NiBPO6,0.089999999999999,-1.948309843941798,mp-1199032,1,0.0
Y2ZrWO8,3.2777,-3.3536868233333332,mp-1216116,1,4.0
Dy2NiRuO6,0.0,-2.650716669833332,mp-1213197,1,0.0
MgFe4(CoO6)2,0.0362,-1.345920024473684,mp-2230234,1,0.0
NdMn5(CuO6)2,0.0,-1.975902150857759,mp-1220123,1,0.0
Li5Mn(SiO3)4,0.0451,-2.77458720664838,mp-774496,1,0.0
MnHC4N3O5,0.24,-0.778999868602218,mp-1200380,1,0.0
Sm2FeSbO7,1.797099999999999,-2.841330059090908,mp-1219197,1,2.0
Ba5Co5O13F,0.149499999999999,-2.117903807708334,mp-1228627,1,0.0
MgMn2(PO5)2,0.0,-2.296974677343186,mp-1044068,1,0.0
Cr3(CoO6)2,0.8752000000000001,-1.458438534705882,mp-861261,1,1.0
Ba2LaMn2O7,0.0,-2.7822861171551723,mp-1228437,1,0.0
MnH9CNCl3O2,2.2987,-0.8854349683341791,mp-698430,1,3.0
Sr2ZrVO6,1.169699999999999,-3.281108623249999,mp-1272971,1,1.0
La15(NiO4)8,0.047699999999999,-2.9596377066363653,mp-1178158,1,0.0
KCr2PbF9,3.139599999999999,-3.005327416519231,mp-554377,1,4.0
La4Ga3FeO12,2.529000000000001,-3.034970015250001,mp-1223050,1,3.0
Nd2MoO6,2.6647,-3.105778840833333,mp-18494,1,4.0
Fe5P6WO24,2.3383000000000003,-2.358283379940477,mp-780405,1,3.0
KNaV2O6,3.2464,-2.404889912362931,mp-19432,1,4.0
SrMn(GeO3)2,1.5991,-2.445525668793104,mp-1208680,1,2.0
Li6TiCr3(PO4)6,0.0,-2.6764884910297613,mp-758137,1,0.0
MgTi4(CoO5)2,0.0209,-2.780007757549018,mp-2229700,1,0.0
K2Co(SeO3)2,0.0,-1.607684705380681,mp-19189,1,0.0
LaCrNiO6,0.0,-1.905601630555556,mp-1881105,1,0.0
K2CoF4,0.0,-2.62081552492857,mp-556447,1,0.0
CoBH18N6(ClF2)2,3.1185,-1.019974203177083,mp-1201834,1,4.0
CsFeP(H6O5)2,4.6479,-1.60041453397192,mp-1192997,1,6.0
Na3U6FeF30,0.2176,-3.6577409691034473,mp-1194946,1,0.0
Sr2Mn2SeO4,1.8317,-2.403454284800647,mp-1201675,1,2.0
KNiSbO4,1.7597,-1.783458981035714,mp-1223391,1,2.0
Pr2NiPtO6,1.8264,-2.466633758333333,mp-1209764,1,2.0
Na2TlNiF6,0.0,-2.266361824550009,mp-1110616,1,0.0
BaEuVBiO6,0.133599999999999,-2.496060778500001,mp-1521044,1,0.0
LiIn(MoO4)2,3.661,-2.057841353749999,mp-554101,1,5.0
Li4Ti5VO12,0.0,-2.9998074996969692,mp-760000,1,0.0
Rb2V3O8,2.0914,-2.452017968076925,mp-510519,1,3.0
Li4Mn3Nb2Sn3O16,1.047399999999999,-2.368863157218802,mp-758581,1,1.0
Li4V2Fe3Co3O16,1.1416,-1.853734325119048,mp-777330,1,1.0
Sm3Fe5O12,1.894499999999999,-2.516663638875,mp-14139,1,2.0
LiCr(PO3)3,3.1776,-2.600927002840134,mp-26063,1,4.0
Mn5P4(HO2)10,3.3033,-2.067679768608374,mp-728654,1,4.0
Sr3MnFeO7,0.0,-2.494605256077586,mp-1218478,1,0.0
Sr3Mn2O7,0.0,-2.596824480905171,mp-19070,1,0.0
LiMgCr3(SO4)6,2.4919,-2.105833382095238,mp-694995,1,3.0
Li6MnFe5(BO3)6,2.8379000000000003,-2.3569861411925292,mp-779627,1,4.0
Lu2MnCoO6,0.0,-2.877298819126436,mp-1247738,1,0.0
SrCa7Ti3Mn5O21,0.2763,-2.9239046705987892,mp-1247645,1,0.0
K5CeCo2(NO2)12,0.0,-1.091422254346591,mp-704908,1,0.0
Cs2CrF6,0.0,-2.9694858632567063,mp-557324,1,0.0
V3S2NO12,0.0,-1.460745659722222,mp-1202363,1,0.0
W18O49,0.0,-2.15327105216418,mp-907,1,0.0
YCoF5,3.278299999999999,-3.351718859285715,mp-1392689,1,4.0
V2Ni3O8,0.0,-1.8717996761538451,mp-542151,1,0.0
CaCoF5,1.3636,-2.993190625714286,mp-1398579,1,2.0
LiNiOF,2.390199999999999,-2.151861740208334,mp-753559,1,3.0
NiP6(WO8)3,1.9379,-2.4273773558193272,mp-850286,1,2.0
K2Mo2O15,0.0886,-0.9900544997105252,mp-1182726,1,0.0
CoH18C2(NO)16,1.8012,-0.5308389661792451,mp-1198099,1,2.0
BaVP2(H2O5)2,2.5492,-2.355643614265873,mp-24598,1,3.0
Li10CoNi9O20,0.4502,-1.519159711833332,mp-759912,1,0.0
Sr6Ca2Co7CuO24,0.0,-1.9246093545,mp-1076741,1,0.0
Li6MnF8,4.5324,-3.056144775862068,mp-759844,1,6.0
MnFe2(PO9)2,0.0416,-1.019108996400728,mp-1191558,1,0.0
LiCo2(PO4)3,0.0,-2.053415324292328,mp-863391,1,0.0
LiMnO4,1.5169,-1.4041257793773951,mp-19438,1,2.0
Sr2Fe2H2OF10,3.548499999999999,-2.979767527647059,mp-735131,1,5.0
CoNi(PO4)2,0.0,-1.908122568273809,mp-765340,1,0.0
BaSrSmFeO6,0.1184,-2.6275106205,mp-1522620,1,0.0
Ni3B7ClO13,3.103199999999999,-2.422029899965277,mp-556141,1,4.0
K2VOF4,2.7902,-3.0117675868125,mp-1224276,1,4.0
Li4V5Fe3O16,0.659199999999999,-2.243385264404761,mp-776768,1,0.0
EuDyCr4O12,0.0,-1.847294178148148,mp-1522433,1,0.0
Li3Ni2(PO4)3,0.1063,-2.273124091446428,mp-26275,1,0.0
Y3VH3O8,2.3493,-2.900394860583333,mp-1192654,1,3.0
PrMg(NiO3)2,0.0,-1.9514833121666664,mp-1044749,1,0.0
KNaMoWO5,0.5348,-1.7951691151949232,mp-1076195,1,0.0
Ba2ErV3O11,3.4323,-3.005672768823529,mp-1215102,1,5.0
NaLiV2O6,3.1324,-2.401475624471264,mp-1221048,1,4.0
K5Na3Nb7WO20,0.0,-2.455160753344109,mp-1076894,1,0.0
BaY2CoO5,1.8813,-3.061319460833334,mp-541574,1,2.0
Li2FeF6,0.323099999999999,-2.63208150074074,mp-755193,1,0.0
BaMn2FeSi2O9,0.023299999999999,-2.674487644724139,mp-1193263,1,0.0
Ca4MgSi8(NiO8)3,4.7986,-3.047445939624999,mp-1227573,1,7.0
Fe2(PO3)5,1.3358,-2.443614894918831,mp-1172918,1,2.0
Te2W3(CO)15,1.2354,-0.731729418452381,mp-651051,1,1.0
KLaHfCrO6,0.0,-3.013004265224999,mp-1522697,1,0.0
MnFe2P2O11,0.003,-1.9031934287322951,mp-1222030,1,0.0
Fe9PO12,0.0,-1.59942467702922,mp-1225104,1,0.0
Mg14SiNiO16,0.5870000000000011,-2.776530346875001,mp-1035009,1,0.0
MgAg6Mo10O33,1.3099,-1.678372458799999,mp-1234022,1,1.0
MgV3(P2O7)2,2.0561,-2.6330333844805183,mp-1043428,1,3.0
BaMg(CoO2)4,0.0,-1.621672821071429,mp-1044533,1,0.0
V2P3O10,0.899799999999999,-2.623460312261904,mp-26636,1,1.0
Li3CoPO5,2.1121,-2.397034529214286,mp-757007,1,3.0
Li2V(Si2O5)2,1.6954999999999991,-2.934724701568627,mp-766408,1,2.0
Li2Mn5O12,0.0612,-1.763428710595886,mp-758668,1,0.0
Dy2Mo3H2Se2O17,1.6412,-2.158676744058493,mp-1203751,1,2.0
NaMn2O4,0.4046,-1.978162147820196,mp-542710,1,0.0
KLiMoO4,4.481,-2.251139869726191,mp-1199453,1,6.0
V2ZnP3NO15,0.112999999999999,-1.674890587792208,mp-1198608,1,0.0
Na7Fe3O8,2.0167,-1.700986178036398,mp-18917,1,3.0
NaFe(SiO3)2,1.8358,-2.729421948637932,mp-21867,1,2.0
Pb2WO5,3.0894,-1.875032835624998,mp-22681,1,4.0
K2U3MnO11,1.479,-3.113651785731235,mp-1195145,1,2.0
NiSbO3,0.0,-0.957017398999999,mp-1186113,1,0.0
BaTmFeCuO5,0.0,-2.4907873227777793,mp-1205946,1,0.0
Mg2Ta2Ni2O9,3.5726999999999993,-2.723794014977777,mp-1222197,1,5.0
Li5Fe5(SbO6)2,0.0,-1.835915506111111,mp-756791,1,0.0
CaCoBiO5,0.6493,-1.810073196875,mp-1044445,1,0.0
MnAl2SiO5,0.344599999999999,-2.5442214661590032,mp-1213128,1,0.0
Na4Co3P4(H3O4)6,3.0663,-1.805470125784691,mp-735568,1,4.0
LiCr2(PO4)2,0.0,-2.53663919635531,mp-753918,1,0.0
Li4Ti2Mn3Nb3O16,0.0,-2.733276878706898,mp-758756,1,0.0
Sr4TlFe2O9,0.0,-2.349747808645833,mp-1218464,1,0.0
Fe5CuO8,0.1528,-1.507184307142858,mp-33300,1,0.0
Ba2MoO3F4,3.225,-3.2671376355,mp-1214599,1,4.0
CoH12(BrO3)2,2.853,-1.205745978452381,mp-510271,1,4.0
Li4Ti3Cr3(NiO8)2,0.9152,-2.452314701904762,mp-782652,1,1.0
CrFe4P2(CO)18,0.6716000000000001,-0.477504324169435,mp-704853,1,1.0
Sr4Mn5O15,0.0,-2.185519024777299,mp-1218691,1,0.0
KMgFe(SO4)2,0.027299999999999,-1.889438402865384,mp-2218440,1,0.0
SrV6O15,0.0158,-2.48845824681818,mp-5206,1,0.0
Li3Ti2V5O12,0.0,-2.650516253939394,mp-1177731,1,0.0
Ni3(PO4)4,0.0341,-1.794588074937887,mp-26264,1,0.0
Mn4Nb2O9,0.015499999999999,-2.541547874114944,mp-31901,1,0.0
EuMoO2,0.0,-1.982288645625001,mp-1213225,1,0.0
Li3MnV3O8,1.034799999999999,-2.382914835862069,mp-757175,1,1.0
Mn3Cr2Sn(PO4)6,0.0,-2.426308800740285,mp-1176479,1,0.0
Co3SnO8,0.0,-1.270222666249999,mp-771769,1,0.0
Mg6TiFeO8,0.5167,-2.712992167708333,mp-1032516,1,0.0
BaGdFe2O5,0.0,-2.534771441666668,mp-20989,1,0.0
MgFe4(HO2)4,1.3886,-1.57686285235294,mp-2229655,1,2.0
Li3Mn3SbO8,0.0,-2.069524732252874,mp-756729,1,0.0
CoPNO5,0.0,-0.701987442455357,mp-817993,1,0.0
CaTi2CoO7,0.3102,-2.725611933560605,mp-1042502,1,0.0
MgMn3Cu3O8,0.0,-1.61704582591954,mp-2232653,1,0.0
CuNi9O10,0.0,-1.1255996025,mp-757221,1,0.0
Rb2Cu2(MoO4)3,0.5546,-1.807643631184211,mp-652224,1,0.0
CaMn2(PO5)2,0.0,-2.440768016009852,mp-1044192,1,0.0
Rb2NaCoF6,0.0,-2.7226094986379312,mp-559563,1,0.0
Cs2VS5O,1.634,-1.236119338256705,mp-1198002,1,2.0
MgFePbO3,1.101299999999999,-1.567698448333332,mp-2215808,1,1.0
VO2F,3.0505,-2.460168215,mp-753014,1,4.0
BaSrNdFeO6,0.1469,-2.5976574377499992,mp-1517321,1,0.0
Li3Al2VO6,0.0,-2.859061117916667,mp-755151,1,0.0
MgSc4(FeO3)4,1.795799999999999,-2.74161661452381,mp-2220857,1,2.0
Ti3Mn3O,0.0,-0.411339194827587,mp-504732,1,0.0
Fe3(SiO4)2,1.484499999999999,-2.350756869615384,mp-28444,1,2.0
Mn2Ni3Sb(PO4)6,0.0,-2.192678847325533,mp-776222,1,0.0
Fe3P2PbO14,0.0,-1.5511454899642851,mp-1188752,1,0.0
Li3V(CoO2)4,0.0,-1.79162991125,mp-756385,1,0.0
Cs2KCoF6,3.0136,-2.718215617656034,mp-540729,1,4.0
Ho2Mo4O15,3.3221,-2.522608943095238,mp-29142,1,4.0
Na2FeSO4F3,2.052699999999999,-2.384645357068964,mp-1190551,1,3.0
Li7V7P6(O8F)3,2.545899999999999,-2.673023697578521,mp-759300,1,3.0
Sr2CrOsO6,0.0,-2.492751817999999,mp-1078354,1,0.0
SrEuDyWO6,0.0,-2.983872457666667,mp-1521152,1,0.0
Fe2S3O17,0.0,-0.952069573522727,mp-1198915,1,0.0
KVP2O7,2.0781,-2.741560270139611,mp-16812,1,3.0
FeSb3(PO4)6,1.9333,-2.345672001995797,mp-774425,1,2.0
LiFePO4,3.922399999999999,-2.479896014710883,mp-19017,1,5.0
Al2(FeO3)3,0.0,-1.950958551875,mp-1265553,1,0.0
LiCoCuF6,0.062,-2.27483603037037,mp-1222564,1,0.0
Mg(MoO2)2,2.2975,-2.151961647142857,mp-1047726,1,3.0
NaTl2MoF6,2.9199,-2.556509695804598,mp-555970,1,4.0
Na5NiSO2,0.0,-1.082949350488505,mp-18912,1,0.0
Li4V3NiO8,0.046499999999999,-2.283963239583333,mp-772714,1,0.0
Nd2FeNiO6,0.0,-2.6136087134999992,mp-1220540,1,0.0
CaZrV2O8,2.525,-2.969095396666667,mp-1226968,1,3.0
LiLaV4O12,1.042399999999999,-2.499849938796297,mp-1520845,1,1.0
Sr6Ca2Fe7CoO24,0.0,-2.1772275404999992,mp-1076399,1,0.0
Co(NO6)2,0.5575999999999991,-0.122120632,mp-723122,1,0.0
Ba2YMn3O8,0.0,-2.674676511699507,mp-1041433,1,0.0
Mg(WO2)2,1.209099999999999,-1.9070954478571431,mp-1046915,1,1.0
BaZnCrF7,3.9516,-3.28005308225,mp-1047910,1,5.0
AlWO3,0.8598999999999991,-2.343923776999999,mp-1046804,1,1.0
Sr8V6O19,0.467799999999999,-2.907682824999999,mp-1218609,1,0.0
Li5WNO4,3.5321,-1.9453142978787872,mp-772397,1,5.0
Sr2La6FeCu7O20,0.0,-2.4711768277777773,mp-1173271,1,0.0
VZn2HO5,2.8693,-1.928055505694444,mp-726240,1,4.0
Tb4MgAl2(FeO6)2,3.093,-3.165130740555555,mp-1233783,1,4.0
NaEuZrWO6,0.0,-2.8349462716379312,mp-1516967,1,0.0
CrFe3Sn2(PO4)6,0.0,-2.345040502996033,mp-776666,1,0.0
CrCdO4,2.2913,-1.631303849999999,mp-18781,1,3.0
Na2Fe2O5,0.0,-1.498915591417624,mp-752590,1,0.0
U2Ni(PO11)2,0.0,-1.128738707380951,mp-1201255,1,0.0
MnSO6,1.114199999999999,-1.080893202241378,mp-818575,1,1.0
Li4Co5NiO12,0.048,-1.485480155606061,mp-1648324,1,0.0
LiCo2O3,0.0,-1.459817004722221,mp-1222543,1,0.0
Li14W7O32,0.0,-1.640372872012578,mp-1198827,1,0.0
LiMn2Cu(RuO4)2,0.0,-1.64010487494253,mp-1222666,1,0.0
K9Fe2O7,2.0603,-1.497201387791666,mp-1199147,1,3.0
Co4Pb(CO)16,1.6343,-0.7940822865540541,mp-653887,1,2.0
Na7Ni17O24,0.0,-1.243275082909482,mp-760117,1,0.0
Ti2Mn3Te3O16,0.0,-1.953796033352491,mp-754257,1,0.0
MnH2Cl2O,3.3176,-1.5102333517385051,mp-1192289,1,4.0
MgU(MoO4)4,1.8038,-2.360560008863637,mp-1210945,1,2.0
Li4Ti4Mn4NiO18,0.9726999999999992,-2.545353250915833,mp-767054,1,1.0
Li3MnFe2(BO3)3,2.992599999999999,-2.388607103912834,mp-755332,1,4.0
YV2O4,0.0,-2.824650504285714,mp-1411320,1,0.0
MgVPbO3,0.0,-1.890367923333332,mp-2240536,1,0.0
CaThV2O8,3.0505,-3.1665478825,mp-1227081,1,4.0
K2MnP4(HO2)8,4.5311,-2.13789905132266,mp-849787,1,6.0
Li2Fe3O10,0.0,-0.826597017777778,mp-763418,1,0.0
Cr2CoNi3(PO4)6,0.0,-2.12048617799603,mp-757291,1,0.0
SrV2(H4O5)2,3.1307,-1.8601362519047624,mp-1195428,1,4.0
MnAl(WO4)2,1.7209,-2.391675183994253,mp-1578402,1,2.0
Na8Mg(CoO4)2,1.4058,-1.6300652397912891,mp-2231061,1,2.0
Sr3CaMn2O8,0.0,-2.700987138990147,mp-1218411,1,0.0
Sr2MgCuWO6,2.2006,-2.499470907727273,mp-2217957,1,3.0
Ca3Co4O9,0.0,-1.983693090729166,mp-1096877,1,0.0
BaSr7Co4(CuO5)4,0.0,-1.977423176388889,mp-1099990,1,0.0
Li4Mn3O8,1.7479,-2.094726110475096,mp-779008,1,2.0
Li7V3P8O29,0.4691,-2.69251790820162,mp-757637,1,0.0
CrCoNF6,0.8890000000000001,-1.492577692777777,mp-1226403,1,1.0
V3O7F,1.387,-2.3013574443181812,mp-759631,1,2.0
BaNaCr2F9,3.5815,-3.3448456974137932,mp-556890,1,5.0
Mo3P3O13,0.0,-2.3503165912594,mp-1047920,1,0.0
Sr2NiTeO6,0.0,-2.314806014666666,mp-18908,1,0.0
CoH18Br2N6ClO3,2.9453,-0.5759621393548391,mp-1198748,1,4.0
PrV2O6,0.8994000000000001,-2.755479411851852,mp-1044729,1,1.0
Rb2NaFeF6,4.118600000000001,-2.947750641637931,mp-558078,1,6.0
Ta6Zn3(FeO6)4,2.6311,-2.563849758216216,mp-1042882,1,3.0
Co2H34N12Cl3O10,0.3086,-0.632040334713115,mp-562406,1,0.0
MgCrH10O9,3.0727,-1.52989548202381,mp-1199101,1,4.0
Cs2VH2(OF2)2,2.8269,-2.5254435747100312,mp-1226442,1,4.0
BaNdMnCoO5,0.0,-2.554266598936782,mp-1227840,1,0.0
SrTiFe(PO4)3,2.2352,-2.8989516217923272,mp-695093,1,3.0
Mn7V5O16,0.253099999999999,-2.257402914482758,mp-532522,1,0.0
Mg4Mn5(TeO6)3,0.7073,-2.157546315155173,mp-1046588,1,1.0
Sr2AlTlV2O7,0.0,-2.305202554487181,mp-1046035,1,0.0
Na2Fe2F7,1.682599999999999,-2.769244732068965,mp-1210473,1,2.0
Sr3Ca5Fe4(CoO5)4,0.0068,-2.249760793263888,mp-1099708,1,0.0
Cs2LiCrF6,4.3359,-3.114727902264368,mp-1206440,1,6.0
VZn2P2O9,2.6012999999999993,-2.438928385306122,mp-556898,1,3.0
Li4Mn5Sb3O16,0.0,-2.067839379392446,mp-756961,1,0.0
Ba3(Mo9O14)2,0.7694000000000001,-1.582890668571429,mp-530107,1,1.0
V2OF6,0.141499999999999,-2.849323158888889,mp-1101248,1,0.0
KV3P4O17,1.3954,-2.600049427532857,mp-14929,1,2.0
Ti3FeNi2(PO4)6,0.6998000000000001,-2.706359212162699,mp-778326,1,1.0
MnZnPO5,2.3352,-2.287088834071736,mp-1046651,1,3.0
Li4Ti4V(Fe2O9)2,1.651399999999999,-2.544218663763441,mp-767675,1,2.0
MnV5H20NO22,1.9797,-1.601395839957776,mp-1199603,1,2.0
Li6MnAlO6,1.0451,-2.294734384852217,mp-770706,1,1.0
Rb2V4O9,0.0957,-2.458521752333333,mp-505219,1,0.0
Ba2Tl2Zn3(FeO3)4,0.0,-1.515927261594203,mp-1048584,1,0.0
Rb2VAgF6,0.0,-2.706512145666666,mp-1110597,1,0.0
LiCrPH2O5,2.547499999999999,-2.130592278547618,mp-849467,1,3.0
MgMn3O7,0.0,-1.728501707617555,mp-1044328,1,0.0
LiMn3OF8,0.2583,-2.672502355355879,mp-759751,1,0.0
MnCd9O10,0.0,-1.40266510789655,mp-757244,1,0.0
La4Sm4Ni7AgO20,0.0,-2.459980685462963,mp-1076765,1,0.0
Rb2Mo(IO3)6,0.0,-1.157499131666666,mp-557228,1,0.0
Cs3Pr(MoO4)3,3.7495,-2.4121752542438,mp-1214290,1,5.0
BaNaSmMnO6,0.0,-2.338383016431035,mp-1517761,1,0.0
Na3Fe2(PO4)3,1.5777,-2.450721417403324,mp-556984,1,2.0
Li2Mn3Cr3O12,0.073399999999999,-2.061949646522988,mp-850956,1,0.0
Mg30VBiO32,0.0952,-2.87209829078125,mp-1036755,1,0.0
Ba2GdCoCu2O7,0.0,-2.20933424576923,mp-1214814,1,0.0
BaSrYVO6,1.6099,-3.146428603,mp-1522214,1,2.0
MoP3H27C9I2O,1.144199999999999,-0.256130728318105,mp-1202331,1,1.0
Na8Mg(NiO4)2,1.3707999999999991,-1.505597672422867,mp-2231589,1,2.0
VPO5,2.270299999999999,-2.501775414234691,mp-763482,1,3.0
Li4Fe3OF8,2.565299999999999,-2.661532711145834,mp-764594,1,3.0
Fe6OF11,1.525,-2.482764761111111,mp-756379,1,2.0
Li3MnOF4,2.0076,-2.833110141436782,mp-1276200,1,3.0
Mg6MnZnO8,4.1885,-2.7183606923706902,mp-1032803,1,6.0
Fe3(PO5)2,0.179599999999999,-2.085623588952381,mp-1194229,1,0.0
K3VO8,1.495299999999999,-1.285597515979166,mp-1211704,1,2.0
Ca7MgTiMn7O24,0.0,-2.490973224346264,mp-1076543,1,0.0
Li6Mo2O7,1.113299999999999,-2.101306844333332,mp-690581,1,1.0
Y(CoO2)2,0.0,-2.136966185714286,mp-1383697,1,0.0
KEuYWO6,0.3611,-2.9039512602250013,mp-1519341,1,0.0
Ba2La2MgMn(WO6)2,2.264599999999999,-2.875573709146551,mp-2230028,1,3.0
BaMnZnF7,1.6371,-3.158028224043104,mp-1047907,1,2.0
ZrMn2Ag4(MoO4)6,2.1388,-1.89557797270348,mp-558201,1,3.0
BaMgMo(PO4)2,0.0,-2.6178020141758243,mp-2218590,1,0.0
V2MoO8,1.4089,-2.141442864545455,mp-1216790,1,2.0
Pr2MoO6,2.327099999999999,-3.093956566759262,mp-1209740,1,3.0
CaMn2V4CuO12,0.0,-2.335109078293103,mp-1227327,1,0.0
H12WN3(OF)3,3.6626,-1.1106462622727271,mp-726011,1,5.0
FeH18C6N6O13,3.3079,-1.086716393352273,mp-1213612,1,4.0
MnMoO5,0.0,-1.659267693990148,mp-1105000,1,0.0
Zn2IrWO6,0.9592,-1.6031525725,mp-1375228,1,1.0
Li12CrFe3P4(CO7)4,0.2247,-2.348513626126373,mp-766534,1,0.0
Ti3Fe2Co(PO4)6,0.0663,-2.738430685773809,mp-758414,1,0.0
Li5V(SiO4)2,0.218299999999999,-2.740710475416666,mp-752704,1,0.0
Ni3(TeO4)2,0.0,-1.249750093525641,mp-1237476,1,0.0
V4Zn3(PO4)6,1.7203,-2.574614389671814,mp-18097,1,2.0
ZnP4W3O14,1.5008,-2.013176138344154,mp-1040898,1,2.0
Li5Mn7O15,0.0,-2.017356086191996,mp-774493,1,0.0
V2F7,1.8102,-3.120383067222223,mp-759957,1,2.0
Mn5Te3O16,0.0,-1.632656368318965,mp-771044,1,0.0
Sr2YGaW2O7,0.4724,-2.349673060576922,mp-1046772,1,0.0
Pr2CoRuO6,0.0,-2.456772334833334,mp-1209770,1,0.0
K4V2S4O19,2.0392,-2.177951777034482,mp-1196076,1,3.0
BaSmEuWO6,0.0483,-3.0662759705,mp-1517108,1,0.0
Li3AlFeO4,2.5029999999999992,-2.394250630972222,mp-772439,1,3.0
Mn2As2O9,0.482199999999999,-1.487303179489392,mp-1199645,1,0.0
BaCaWF7,4.3393999999999995,-3.51751464725,mp-1047958,1,6.0
BaFeO2F,0.4455,-2.582065353,mp-1227945,1,0.0
BaV4O9,0.8127000000000001,-2.630906763214287,mp-18910,1,1.0
MgCo3SbO8,0.5688000000000001,-1.59096496653846,mp-2233628,1,0.0
MgCrGaO4,2.1907,-2.3405459803571422,mp-2239948,1,3.0
KCeEuWO6,0.0,-2.828538497225,mp-1521850,1,0.0
Li4Fe5Sb3O16,1.0338,-1.900214839761904,mp-768602,1,1.0
NiH20PdC4(NO3)4,3.066,-1.052822434642857,mp-1201334,1,4.0
Ca3Ga2(FeO5)2,0.0798,-2.314116283529412,mp-1362071,1,0.0
FeSnF6,0.0,-2.6105211156249992,mp-19883,1,0.0
Ba3MgCr2O8,1.5036,-2.566000309642856,mp-2228457,1,2.0
Fe3OF5,1.7289,-2.390052496666666,mp-779913,1,2.0
Li4VFe(TeO6)2,1.370299999999999,-1.938759641833333,mp-761819,1,2.0
Li5Co2Cu3O10,0.0,-1.5067063988333331,mp-752862,1,0.0
K2FeH4(SO5)2,1.7561,-1.833872665763158,mp-697221,1,2.0
CaFe3Co5O16,0.0,-1.246321325199999,mp-1233966,1,0.0
LaCrS2O,1.0281,-2.2501489395,mp-18885,1,1.0
Cs3FeF6,4.0085,-2.89650030189655,mp-1205629,1,6.0
MnZn(SiO3)2,2.2211,-2.723189551793103,mp-1171226,1,3.0
K3NiO2,1.632,-1.123636315708332,mp-505153,1,2.0
Ti4(FeO4)3,0.8216000000000001,-2.658385749122806,mp-1337025,1,1.0
Li5Cr3NiO8,3.0727,-2.157448774215687,mp-759272,1,4.0
IrWO6,0.0,-1.558045056249999,mp-1047152,1,0.0
Ba2Tl2Zn2Ni3O10,0.0,-1.536110251403509,mp-1046545,1,0.0
Mg6NbFeO8,0.921999999999999,-2.540204375,mp-1032174,1,1.0
MgCo4(AgO2)4,0.0,-0.991499501274509,mp-2229559,1,0.0
KLaCoWO6,0.0,-2.350055765225001,mp-1516194,1,0.0
Sr2FeO4,0.0,-2.51180644,mp-19102,1,0.0
ZnP2W2O9,0.7545000000000001,-2.145149638341836,mp-1041044,1,1.0
MnVCuO4,1.116099999999999,-1.92740520684729,mp-510459,1,1.0
RbNa2CoF6,3.2454,-2.481677368025862,mp-1110626,1,4.0
MgCd2(NiO2)4,0.0,-1.243238636333332,mp-2232399,1,0.0
LiMnCrO4,0.0212,-2.226947700180623,mp-1176640,1,0.0
VSO10,0.0,-0.5473946604166671,mp-1196443,1,0.0
RbCr4BiO14,2.2291,-1.713699164125,mp-642938,1,3.0
LiVPO5,1.5636,-2.666295293184523,mp-26963,1,2.0
KEuFeSnO6,0.0,-1.9967367857250011,mp-1520482,1,0.0
Cr3Co5O16,0.2155,-1.350732449166667,mp-756555,1,0.0
Fe2Mo4O7,0.0638,-1.266591849615385,mp-542150,1,0.0
BaCaPrFeO6,0.219199999999999,-2.505544629166666,mp-1520023,1,0.0
Li3V5O12,1.5843,-2.460184568375,mp-776224,1,2.0
Li2Ti2V5O12,0.893799999999999,-2.677723758968254,mp-758312,1,1.0
CaV2P2(H4O7)2,2.3443,-2.100159357380952,mp-1182089,1,3.0
NiPNO5,0.3852,-1.463345994955356,mp-1210409,1,0.0
Sr2MgNiRuO6,0.0,-2.043056004090909,mp-2223673,1,0.0
Zn2Co2O5,0.6007,-1.309207618333333,mp-1348293,1,0.0
LiFe3P4O15,2.1315,-2.382894810952381,mp-705381,1,3.0
Li4V2Fe3Ni3O16,0.0,-1.78269191547619,mp-758749,1,0.0
Li4Cr3Ni3(SnO8)2,0.0,-1.880198333690475,mp-774864,1,0.0
V4Zn(PO4)6,1.331899999999999,-2.540851810510203,mp-1358135,1,1.0
Li2Fe2Cu(PO4)3,0.1,-2.2399851962797612,mp-761114,1,0.0
K2Mn3V2CO11,2.1887,-2.274091620699637,mp-1195006,1,3.0
Li3Mn5Cr2O12,0.053599999999999,-2.108988809075235,mp-850947,1,0.0
KLiNi2H3(SeO5)2,0.0,-1.342867321527411,mp-1235304,1,0.0
Rb(WO3)2,0.0,-2.209892131388888,mp-752845,1,0.0
Na3Ge3(MoO6)2,0.0,-2.081940428456896,mp-1013797,1,0.0
Sr2TaFeO6,1.5015,-3.051403054733333,mp-31760,1,2.0
Mg2Co2O5,0.9009,-1.928189761666667,mp-1076088,1,1.0
KLiMnP3HO10,3.7716,-2.501449701099584,mp-759967,1,5.0
Li5Mn8Fe11O32,0.0,-1.861075584644909,mp-771896,1,0.0
Li7(CoO3)2,1.0176,-1.818149178888888,mp-755498,1,1.0
CaV4(GeO4)4,0.0,-2.21028752,mp-1233945,1,0.0