formula,bg,formation_energy,mp-id,fidelity,bg_category
Ti3NiSb2(PO4)6,0.0,-2.646477549384919,mp-1101388,1,0.0
Li4Mn5O10,0.482299999999999,-2.074934813315185,mp-757628,1,0.0
Ba2Sm2Fe4O11,0.0,-2.534275642368422,mp-704632,1,0.0
MgV2(SO5)2,1.2106,-2.160341928666666,mp-2228639,1,1.0
Eu2CoWO6,0.0,-2.478047705,mp-1520430,1,0.0
MgCd2(FeO2)4,0.7641,-1.573523284999999,mp-2232135,1,1.0
V30Cu34O95,0.0463,-1.773481938270441,mp-1217808,1,0.0
Cs4Na2MgV2O8,1.284599999999999,-2.126275190963489,mp-2233145,1,1.0
LiNi2P3O10,4.016400000000001,-2.382474951078868,mp-17664,1,6.0
Li(FeO2)2,0.0,-1.691847734761904,mp-25386,1,0.0
Li4Ti3V3(FeO8)2,1.2104,-2.654230634404762,mp-773674,1,1.0
NdMnAsO,0.0,-1.860387779482758,mp-19823,1,0.0
Sr2Fe3Sb(PO4)6,2.3111,-2.598920177996031,mp-1218841,1,3.0
MoO3,1.8342999999999992,-1.9246418721875,mp-715584,1,2.0
Sr2LiPr2Fe2(RuO6)2,0.0,-2.365969483174602,mp-1235879,1,0.0
HoMn2O4,0.0,-2.632301557980295,mp-1147652,1,0.0
BaPrFeSnO6,2.074799999999999,-2.565340856666667,mp-1520852,1,3.0
NiBiPO5,3.8528,-2.117806550892858,mp-556993,1,5.0
SrCa7Mn7FeO20,0.0,-2.532024070986589,mp-1076449,1,0.0
TlCr(MoO4)2,2.8216,-1.971569551736112,mp-645568,1,4.0
Na2TeW2O9,2.6950000000000003,-2.072926606923234,mp-723466,1,4.0
Mn2FeAg2(PO4)3,1.0229,-2.175780045906199,mp-1222056,1,1.0
Li8Mn7Nb(PO4)12,0.183799999999999,-2.547402085630239,mp-780717,1,0.0
MoH12N3O3F5,2.5604,-1.230681831770833,mp-728422,1,3.0
BaSrMg(FeO2)4,1.4692999999999992,-2.034727375666666,mp-2232095,1,2.0
CaP2(WO4)2,0.6354999999999991,-2.181061523983516,mp-1041040,1,0.0
Li6Co3Ni(PO4)6,0.0,-2.274481988696428,mp-1177049,1,0.0
BaEu(CoO3)4,0.0,-0.965538670833334,mp-1518091,1,0.0
BaMgWF7,4.0092,-3.42030348475,mp-1047900,1,6.0
MgMn3FeO8,0.5975,-1.952957131445624,mp-2218663,1,0.0
K2VPO6,3.3687,-2.571835727414285,mp-558956,1,5.0
Li2FeP4(H4O5)4,4.0948,-1.8613846516334431,mp-759228,1,6.0
K2CoH2(SO5)2,0.883,-1.751614826,mp-1212258,1,1.0
UW3O11,0.0,-2.508515598666666,mp-644303,1,0.0
Rb2MnAuF6,0.0,-2.443899928293103,mp-1110588,1,0.0
K9(FeO4)2,0.0082,-1.370205651855262,mp-1196507,1,0.0
Mn2NbFeO6,1.506,-2.284717352586207,mp-1221840,1,2.0
BaV2SeO8,2.0881,-2.315907809570312,mp-1200210,1,3.0
Mn5(PO5)4,0.3747,-2.021717297697469,mp-1197349,1,0.0
Na3FeBPO7,2.1181,-2.416258792534419,mp-756274,1,3.0
Li5(CoO2)8,0.431,-1.541109236609196,mp-766589,1,0.0
Na5Y(MoO4)4,3.9433,-2.326705938919099,mp-19497,1,5.0
CaAl2V4O8,0.3196,-2.438684386666667,mp-1234955,1,0.0
Mg6CrBiO8,0.4353,-2.394794168125,mp-1033378,1,0.0
Ba3Li2V2Cl4O7,3.149899999999999,-2.766933327314815,mp-581188,1,4.0
FeSO4F,2.0446,-1.985300297857142,mp-1103970,1,3.0
DyMnO3,0.0,-3.057447258586204,mp-542479,1,0.0
CrMoO3,0.0,-1.6484964329999992,mp-1226313,1,0.0
MnCoO4,0.0,-1.416557935488506,mp-756184,1,0.0
BaGd(CoO3)2,0.0,-2.161327148999999,mp-1214665,1,0.0
Li3CoO3,1.3011,-1.835935069999999,mp-755926,1,1.0
Mo6H2N2Cl14O,0.840299999999999,-0.3556278343,mp-1211112,1,1.0
Ba5Ho8Mn4O21,2.0623,-3.287884899124318,mp-17339,1,3.0
VCrO4,1.9112,-2.354943370833332,mp-19418,1,2.0
Sc2(WO4)3,4.2033,-2.702185727941176,mp-5516,1,6.0
MgV8Zn4O16,0.2904,-2.148980768793104,mp-1233918,1,0.0
LiCaEuFeO6,0.0,-2.156453924833334,mp-1517096,1,0.0
BaSr(NiO3)4,0.0,-0.858317118333333,mp-1523141,1,0.0
Mn3Fe2Sb(PO4)6,0.0,-2.33701554504584,mp-1176475,1,0.0
Li5Co3O8,0.0,-1.729252572916666,mp-1173996,1,0.0
Na2LiMnPCO7,3.6664,-2.377634720666603,mp-756734,1,5.0
La3SmV2Cr2O10,0.3219,-2.867871641805556,mp-1099885,1,0.0
Mn5NiO12,1.144,-1.597888842758619,mp-755683,1,1.0
Zn3Fe2(SiO4)3,2.4973,-2.317652705125,mp-1258162,1,3.0
Cr3Co3(SbO8)2,0.0,-1.6192948725,mp-757879,1,0.0
MnH8(BrO2)2,3.8298,-1.284140651195401,mp-540545,1,5.0
KUVO6,1.9806,-2.987966934138888,mp-541148,1,2.0
LiMn3(NiO4)2,0.0,-1.741463395509031,mp-755150,1,0.0
LaMgCrWO6,0.0,-2.7056849155,mp-1044938,1,0.0
KEuMnSnO6,0.0,-2.134458452518104,mp-1516881,1,0.0
HoVO4,2.9805,-3.209082368333334,mp-18734,1,4.0
MgTi2MnO6,2.4047,-3.155853712959771,mp-1221959,1,3.0
MgCr(WO4)2,2.0177,-2.292736947916667,mp-2218121,1,3.0
Li4V3Cr2Sn3O16,1.340899999999999,-2.308877662797619,mp-777461,1,2.0
LiFe(Se2O5)2,2.0499,-1.426054625481771,mp-887746,1,3.0
Ba4CaGd3(Co4O11)2,0.0,-2.196765745000001,mp-1229195,1,0.0
Sr2CrClO4,0.0,-2.740792428125,mp-693892,1,0.0
Ca3Mn2(IrO6)2,0.0,-2.066779471887478,mp-1340405,1,0.0
K4Mo5H4Se2O23,2.9130000000000003,-1.836668782991776,mp-1201718,1,4.0
Y2Fe2O7,0.0,-2.583788470454546,mp-1379819,1,0.0
Li2Mn2(CO3)3,4.1677,-2.014038978283047,mp-752466,1,6.0
Sr2UNiO6,1.545799999999999,-3.036749226499998,mp-560410,1,2.0
KMg30WO32,2.9611,-2.894347626832031,mp-1040243,1,4.0
CaCo3(SiO3)4,0.0,-2.689834717999999,mp-1227278,1,0.0
AlWF5,0.5218,-2.791011414999999,mp-1262038,1,0.0
VP2Pb2O9,2.314,-2.435503677627551,mp-645799,1,3.0
CoH2SeO5,1.6716000000000002,-1.264461807204861,mp-23967,1,2.0
Ni(XeF7)4,2.329399999999999,-0.9083850059090912,mp-556221,1,3.0
Sr10Mg5Mo4WO30,2.379499999999999,-2.886149864099999,mp-1218905,1,3.0
LiMn28O56,0.0,-1.776462592416498,mp-775739,1,0.0
LiFe2SiO4,0.0,-2.038943503541666,mp-1211190,1,0.0
CoH12(BrO6)2,3.2083,-1.014495913425926,mp-728892,1,4.0
Ca4Mn5Al(Si3O14)2,0.0,-2.728314966583072,mp-1227877,1,0.0
Li3Mn5O10,0.610399999999999,-2.032748503314176,mp-753084,1,0.0
BaTi2Fe4O11,1.6364,-2.451012954537036,mp-1227638,1,2.0
Ba2SmV3O11,3.501,-3.001296089558824,mp-1214884,1,5.0
BaSrEuCrO6,0.0,-2.6786120687499992,mp-1520360,1,0.0
MnIn2NiO6,0.0,-1.7535442976264362,mp-1188474,1,0.0
MgTiMn3O8,0.6669,-2.40773797862511,mp-2218854,1,1.0
VBiO4,2.2615,-2.154109184999999,mp-23044,1,3.0
Na4Mn2As(CO4)4,0.0,-1.843974750699233,mp-781108,1,0.0
MgZn(FeO2)4,1.7325,-1.884332203928571,mp-1221978,1,2.0
LiV(PO3)4,2.1576,-2.671968688994708,mp-26955,1,3.0
Mn2CuO4,0.0,-1.67853715726601,mp-1275201,1,0.0
Li4Co3CuO8,0.0,-1.605996868333332,mp-753919,1,0.0
V2Cu2BiO8,0.0,-1.647439529999999,mp-1216874,1,0.0
CaSm4(Mo2O7)2,1.258499999999999,-2.799472725652173,mp-1234486,1,1.0
CaFe2Sb2(PO4)6,2.870699999999999,-2.494762093081633,mp-698695,1,4.0
MnZnF4,3.0349,-2.714469238821839,mp-1931566,1,4.0
TmFeO3,0.0,-2.888833371666667,mp-558400,1,0.0
Li2V(SiO3)2,1.6437,-2.783060368787879,mp-863421,1,2.0
Co3P4O15,0.0,-1.939651557207791,mp-849725,1,0.0
BaNaBiWO6,2.427499999999999,-2.291984825137932,mp-1516254,1,3.0
LiCo5O5F,0.0,-1.518208781944444,mp-764225,1,0.0
Na6Mn7O10,0.261199999999999,-1.734127586251872,mp-774805,1,0.0
MgVAs2O7,2.3392,-2.1235587809090912,mp-1042807,1,3.0
Fe4Bi2O9,1.2366,-1.673642153333334,mp-504615,1,1.0
Ca2NbFeO6,2.087099999999999,-2.941695491999999,mp-1214121,1,3.0
Sr4Cu3NiO8,0.0,-2.035834488750001,mp-1218506,1,0.0
NaCr12Si8ClO28,2.1639,-2.619514370627586,mp-1221145,1,3.0
KSrSmFeO6,0.0,-2.225184434224999,mp-1520748,1,0.0
InAg(WO4)2,2.3704,-1.902841799861112,mp-560403,1,3.0
CsFeP2H3CO10,2.6647,-2.082714789038382,mp-1199835,1,4.0
Na12MnCu2H16(SO4)8,3.5092,-1.694923831682856,mp-1199501,1,5.0
CsV3O8,2.070599999999999,-2.375250615387931,mp-651814,1,3.0
V3(HO2)4,0.816199999999999,-1.784273629666667,mp-625870,1,1.0
Zn3Co4(SbO6)2,0.347099999999999,-1.670018547380951,mp-1216036,1,0.0
Ba4Pr4Co8O23,0.0,-2.237808099273503,mp-1228513,1,0.0
Li4Ti4Mn4FeO18,0.0,-2.565558895754542,mp-774578,1,0.0
BaMgCoO3,0.0,-1.871987663333333,mp-2210607,1,0.0
FeSb2C6(OF2)6,4.6192,-1.774855681296297,mp-19466,1,6.0
LiFeSnO4,1.7377,-2.013281224404761,mp-756311,1,2.0
CsNa3U4(MoO10)2,1.791799999999999,-2.947905821126436,mp-1194022,1,2.0
Li2Mo(PO3)8,0.045499999999999,-2.430333706394559,mp-687229,1,0.0
Mn(Si2O5)2,0.0,-2.796853897195403,mp-1043728,1,0.0
VNiH14(O2F)4,2.6441,-1.6186863716071431,mp-1199615,1,3.0
LiMn2P2(H2O5)2,0.7675999999999991,-2.140851298604269,mp-1235619,1,1.0
K2CoO3,0.125199999999999,-1.430972190333333,mp-1212013,1,0.0
Fe(AsO2)2,2.5252,-1.4988049775,mp-756549,1,3.0
Li12V3CoP4(CO7)4,0.881899999999999,-2.393832519010989,mp-766588,1,1.0
Ni17(As3O16)2,2.484999999999999,-1.4486515688181691,mp-705872,1,3.0
Ti3MnFe2(PO4)6,1.1408,-2.786359611827449,mp-774915,1,1.0
Ti3V2Fe(PO4)6,0.7339000000000001,-2.833680421051587,mp-758183,1,1.0
AlFe4(CuO4)3,0.0,-1.320949402,mp-1045728,1,0.0
Li4NbV3Cr2(PO4)6,0.298999999999999,-2.550650335779762,mp-1177323,1,0.0
Nd6Mo10O39,3.1605,-2.564442258,mp-558785,1,4.0
Na4Mn5O12,0.7189000000000001,-1.892449336198686,mp-759800,1,1.0
Na3Li3Co2F12,1.8967,-2.717113636581897,mp-21932,1,2.0
MgMn(Si2O5)2,3.0903,-3.04488733518319,mp-1043525,1,4.0
Ba3FeRu2O9,0.0,-2.242693849999999,mp-1214638,1,0.0
VZnO3,0.8621000000000001,-2.124512842500001,mp-1378086,1,1.0
NaDy(WO4)2,4.061199999999999,-2.599648561920497,mp-1221069,1,6.0
Ta(WO4)2,0.0,-2.38837201339394,mp-1041809,1,0.0
Li7Si2(NiO4)3,0.591499999999999,-2.129957849305555,mp-1640236,1,0.0
CoP6(N2O11)2,0.0072,-1.15761313069264,mp-1182419,1,0.0
Na2V2CuH4(OF)6,0.7481,-2.167060088464695,mp-1203632,1,1.0
Li10Mn3F16,3.3847,-3.052621003349187,mp-777562,1,5.0
SrCa7TiMn7O24,0.357,-2.613636894971263,mp-1247602,1,0.0
Re2NiO6,0.0,-1.80993885611111,mp-1173437,1,0.0
SrNdMgWO6,0.0,-2.89202198725,mp-1523147,1,0.0
K2LiCrF6,4.1644,-3.143772144783333,mp-1111927,1,6.0
CrHg5S2O5,1.7236,-0.8787701498076951,mp-541933,1,2.0
BaMn2O5,0.0,-2.05723651885776,mp-1095090,1,0.0
ZnCoP2O7,2.9562,-2.33091543198052,mp-562428,1,4.0
K2RbYV2O8,3.3843,-2.721709468,mp-1211701,1,5.0
VFeH2O5,1.8753,-1.805031254166667,mp-24102,1,2.0
Sm2Mo4O15,2.5504,-2.504615074365078,mp-16679,1,3.0
YCrGeO5,2.863,-2.819775249999999,mp-1207733,1,4.0
Sr20Fe3Co7(MoO6)10,0.9566999999999992,-2.494920821100001,mp-744266,1,1.0
CoH14SeN5O7,1.9253999999999991,-0.7431366390122761,mp-1199552,1,2.0
Rb4NaW2N5O,2.1188,-0.512306988567638,mp-1173505,1,3.0
Li5Nb6NiO18,0.4855,-2.761109240388889,mp-775480,1,0.0
Li4Mn2Ni3O10,0.0,-1.7038643889050211,mp-758690,1,0.0
Li8Fe3Sn(PO4)6,2.2619,-2.453829089274375,mp-775125,1,3.0
K2Te(MoO5)3,1.4054,-1.37397106981746,mp-1213449,1,2.0
Ba2MnZn2(AsO)2,0.0,-1.476176074492338,mp-19045,1,0.0
MoPH3O7,3.1912,-1.89604139986607,mp-723781,1,4.0
Rb3Na(MoO4)2,4.5827,-2.188677270991379,mp-1104938,1,6.0
Li2Cr3P9O28,3.002599999999999,-2.582762879010769,mp-778498,1,4.0
Fe3H4(OF4)2,0.9575,-2.144086808529412,mp-696951,1,1.0
TmWBrO4,2.6794,-2.671049450714285,mp-1192455,1,4.0
MnV3Co2(PO4)6,0.0,-2.424360743771894,mp-1176460,1,0.0
CsRb2VF6,0.0,-2.999623885465518,mp-1111390,1,0.0
Na2TmPWO8,4.8021,-2.81037581595396,mp-1198653,1,7.0
CsFe(MoO4)2,2.3737,-2.024767683304598,mp-1104989,1,3.0
RbMg30WO32,2.8539000000000003,-2.862738325117188,mp-1039670,1,4.0
Li5Mn2Ni5O12,0.0,-1.719885903438696,mp-771232,1,0.0
Li5Co5O9F,0.571499999999999,-1.729013598833333,mp-752861,1,0.0
Na2VSi(W2O9)6,0.0552,-1.045999415253694,mp-863300,1,0.0
Ca4Mg4V3AsO20,0.712699999999999,-2.587730388046875,mp-1227792,1,1.0
Ni17(AsO4)12,0.0,-1.491881754025974,mp-767798,1,0.0
Ba2La(FeO3)3,0.0,-2.375560699333332,mp-1228521,1,0.0
Li2V(PO3)4,3.0199,-2.642314666065162,mp-697754,1,4.0
Pr3VGeO9,3.1255,-3.197974291249999,mp-1209985,1,4.0
Li2V2P4H6O17,2.1062,-2.293245311862519,mp-1177876,1,3.0
Mo5PbO8,1.125099999999999,-1.508380348035714,mp-21759,1,1.0
CsCuNiF6,0.0,-2.094899824166641,mp-1228931,1,0.0
Y2Mn2S2O5,0.0,-2.298145410532916,mp-656880,1,0.0
NaV8O20,0.690099999999999,-2.310940236484344,mp-861842,1,1.0
Ba4Mg(Fe2O5)2,0.3003,-2.250430775,mp-2230883,1,0.0
CeBiW2O9,0.147699999999999,-2.443704648076923,mp-1204806,1,0.0
LiCrSnO4,2.847299999999999,-2.279595191904762,mp-756864,1,4.0
Li2Cr3(SiO3)4,2.3455,-2.782306284603175,mp-757728,1,3.0
BaNd(FeO3)2,0.0,-2.39824870475,mp-1227836,1,0.0
Ta2Mn3O8,2.352999999999999,-2.747085156804597,mp-31909,1,3.0
Sr4Ca(FeO3)5,0.0,-2.2122072244,mp-1218523,1,0.0
Na5Ni9O16,0.0,-1.188478778563217,mp-765602,1,0.0
CaLaMnRuO6,0.0,-2.369455040793103,mp-690556,1,0.0
Sr2UCoO6,0.0,-3.006939564499999,mp-22415,1,0.0
CoAuO2,0.5255000000000001,-0.953845545,mp-997158,1,0.0
KLiNiO2,2.026,-1.455943221116666,mp-774921,1,3.0
Rb6V6P6O31,0.986699999999999,-2.618424845670555,mp-1210240,1,1.0
NaNdMn4O12,0.0,-1.660738787255747,mp-1519099,1,0.0
NaV3H6(SO7)2,2.147,-1.949742876495357,mp-644318,1,3.0
Cs3V4Te2ClO14,2.2975,-2.204577854679119,mp-624117,1,3.0
Sb(WO4)2,0.0,-1.9530687513636371,mp-1047752,1,0.0
Li3Fe(PO4)2,2.4956,-2.561607267091837,mp-773399,1,3.0
LuVO4,2.9436,-3.211479616111111,mp-18993,1,4.0
SrTiFeBiO6,2.4347,-2.597554239083334,mp-1217783,1,3.0
U2Tl2Mo3O16,2.325,-2.444509421811594,mp-641191,1,3.0
Mn3Nb6O11,0.240599999999999,-2.450766437689654,mp-31908,1,0.0
La5Sm3Cr7FeO20,0.062999999999999,-2.825847560347224,mp-1100047,1,0.0
NaFeO3,0.0,-1.383083283275861,mp-754915,1,0.0
Mn3(SeO3)4,0.6878000000000001,-1.518603669903584,mp-773071,1,1.0
NiH14C10(N4O)2,3.5268,-0.219290565928572,mp-698298,1,5.0
Cr2TeO6,1.4893,-2.022343471296295,mp-21355,1,2.0
La2ReNiO6,0.282599999999998,-2.60260337425,mp-1078601,1,0.0
Mg2Ta2WO8,0.645699999999999,-2.82741869728205,mp-1046203,1,0.0
TbMoClO4,2.748,-2.689001050952381,mp-558223,1,4.0
Tl5V3O10,2.594999999999999,-1.87385383689815,mp-1208305,1,3.0
SrCaMn2O6,0.0,-2.459427463086206,mp-1218366,1,0.0
Mn2CdO3,0.0,-1.744773992643678,mp-1221887,1,0.0
Li2Mn2P4H6O17,0.9678,-2.18936479285807,mp-780897,1,1.0
BaMgMnO3,0.8426,-2.592390752988505,mp-2239860,1,1.0
Li4Mn3O5F3,0.7066999999999991,-2.421356707141762,mp-753944,1,1.0
Fe8O9,1.2314,-1.499313180588234,mp-705588,1,1.0
Na4Mn2C4SO16,0.233,-1.9785432903288631,mp-777623,1,0.0
Li2Cr2P2O7F2,2.219799999999999,-2.544288184730157,mp-758993,1,3.0
Eu3W(ClO2)3,0.0,-2.684059971923079,mp-1213105,1,0.0
Li2V3P4H4O19,1.7901999999999991,-2.35410563219494,mp-850740,1,2.0
ZnCr2(CuO4)2,0.274,-1.4507405,mp-1041447,1,0.0
La12Ga23MoO56,0.0,-2.803122886222825,mp-1224232,1,0.0
MgNi2(AgO2)2,0.0,-1.000556790925924,mp-2217089,1,0.0
Na2MgV2(OF)4,1.388999999999999,-2.80803980290451,mp-2218926,1,2.0
Li3Co2Ni3O10,0.0,-1.330457736388889,mp-1177722,1,0.0
MgNb2V2O10,0.7631000000000001,-2.7195239556666673,mp-2232321,1,1.0
MgMo2H4(Cl2O3)2,0.0,-1.578756784117647,mp-2240875,1,0.0
TiCrO3,0.4277,-2.774804165666667,mp-755606,1,0.0
Sr3CaTiMn3O12,0.0,-2.722495285606322,mp-1099855,1,0.0
Cr2H28C10N6O7,2.3938,-0.434513586037736,mp-1227848,1,3.0
MgFe4(TeO6)2,1.184499999999999,-1.64946185622807,mp-2230347,1,1.0
La2ZnCrO6,0.9615,-2.895180879999999,mp-1410247,1,1.0
Na4Ni5(P3O11)2,3.4051,-2.338817639010118,mp-554790,1,5.0
Li4VF8,1.950699999999999,-3.094535737179487,mp-753340,1,2.0
Li4Fe5Co3O16,0.0,-1.590227401547619,mp-772179,1,0.0
SmWO5,0.2851,-2.595847186785714,mp-1209012,1,0.0
CoAs2S6(NF3)6,1.9483,-1.428879252424242,mp-1203902,1,2.0
LiNbNiO4,3.493,-2.400649418690476,mp-777650,1,5.0
Fe13(NiO10)2,0.0,-1.555027266142857,mp-757258,1,0.0
NiH20C4(N5O6)2,3.4401,-0.848272646914894,mp-1210542,1,5.0
MnV2(PO4)3,0.0,-2.618056013714423,mp-775212,1,0.0
Li4Cr3Fe3(SnO8)2,0.468199999999999,-2.074022028333333,mp-775073,1,0.0
BaTbFe4O7,0.4784,-2.165346958205127,mp-1214367,1,0.0
CaCr4O6,0.2576,-2.315274481818181,mp-1043430,1,0.0
Mn3CoSn2(PO4)6,0.0,-2.330047030323618,mp-757703,1,0.0
Nd2V2O7,0.0,-3.133897131818182,mp-772562,1,0.0
Zn2Ni3O5,0.0,-1.371956057499999,mp-759178,1,0.0
SrMgInWO6,0.0,-2.4284691051666663,mp-1522468,1,0.0
NaLa(WO4)2,4.264,-2.617553508031611,mp-1220735,1,6.0
LiMnFeO4,0.6476000000000001,-1.940785748752052,mp-753432,1,0.0
K2RbLuV2O8,3.3743,-2.7502627213333333,mp-1211699,1,5.0
Li11(FeO3)4,0.0,-1.868822404691358,mp-849463,1,0.0
Mg30NbVO32,0.406699999999999,-2.934918368125,mp-1036762,1,0.0
MgMo2P2O9,2.616799999999999,-2.480157884591837,mp-1040870,1,3.0
Li12Mn3CrP4(CO7)4,2.3728,-2.405741291199317,mp-766531,1,3.0
Li7(NiO2)8,0.0,-1.416462578172042,mp-690528,1,0.0
MnSe2O9,0.0,-0.8621714702182111,mp-1198766,1,0.0
VP2H4O9,2.6685,-2.111109339642857,mp-504754,1,4.0
Te3W5O18,0.0,-1.72770793173077,mp-1046585,1,0.0
MnAlP2(HO)15,3.7952,-1.776860337528434,mp-758995,1,5.0
LiCr2(SO4)3,0.7267,-2.040897018379629,mp-770490,1,1.0
Tb3Fe5O12,1.6670999999999991,-2.542309987375,mp-19710,1,2.0
LiMnSnO4,1.3896000000000002,-2.135656558037766,mp-755934,1,2.0
Ni2Te3O8,3.0277,-1.449301156538462,mp-17360,1,4.0
Fe3P8H26NO36,1.3934,-1.598523914387066,mp-743549,1,2.0
Zn3Fe8CoO16,1.605499999999999,-1.699340281785714,mp-1215745,1,2.0
BaNb4CrO12,1.418799999999999,-2.868059169444444,mp-1519975,1,2.0
MgMnPb2WO6,0.7463000000000001,-1.779281179357365,mp-2222803,1,1.0
Sr2MnGaO5F,0.0,-2.674136821543104,mp-1218766,1,0.0
MgMn2O4,0.0,-2.33700030583744,mp-27510,1,0.0
SrEuCrBiO6,0.0,-2.3485124165,mp-1521023,1,0.0
Na2Mo2As3O16,0.0019,-1.099628773924287,mp-1203284,1,0.0
Li5Nb2Fe3O10,0.2852,-2.290213828333333,mp-754582,1,0.0
NaLa(NiO3)4,0.0,-0.8148693392432951,mp-1522197,1,0.0
Ca9LaMn10O30,0.0,-2.5571605270862072,mp-706340,1,0.0
V4ZnO8,0.0,-2.317225680769231,mp-1408935,1,0.0
Li2Ni3OF6,3.6759999999999993,-2.243742010555555,mp-753448,1,5.0
K2V4Zn5O20,0.0,-1.658789477887097,mp-863831,1,0.0
Ca4Al5FeSi6(HO13)2,2.714,-3.175291149147727,mp-1228294,1,4.0
Mg6CrNiO8,0.501999999999999,-2.619366356875,mp-1031671,1,0.0
Cs3Rb5Mo12(P3O17)4,2.4576,-2.389727596021798,mp-1226988,1,3.0
LiFe4OF7,2.7408,-2.442679449102564,mp-776991,1,4.0
KFeP2O7,1.9052,-2.535213072866876,mp-541673,1,2.0
Fe4P7O24,0.0,-2.364192177357142,mp-26756,1,0.0
Ca2Nb2FeO8,3.1679,-2.939534258846152,mp-1047759,1,4.0
K2U2WO10,1.9063999999999992,-3.025775993049999,mp-561009,1,2.0
Li14Co9(P2O7)8,2.1437,-2.45107139590476,mp-504263,1,3.0
Ti3V5O16,1.1618,-2.7553079804166662,mp-776195,1,1.0
Te3WCl4O,1.1293,-0.9954408537499992,mp-1198077,1,1.0
Li2Mn3F10,0.0,-2.857514081363985,mp-757143,1,0.0
Ba2WO6,0.0,-2.402359445,mp-1196168,1,0.0
Ti3VNi2(PO4)6,0.0,-2.743497893273808,mp-1101293,1,0.0
H(WO3)2,0.2986,-1.6653552401388891,mp-34047,1,0.0
Na6FeO4,0.9684,-1.45180559734326,mp-755280,1,1.0
Ca16Mn14Al2O47,0.2641,-2.580258014063726,mp-1247697,1,0.0
Na5CoSO2,1.378399999999999,-1.272089747155172,mp-19027,1,2.0
BaGdFeCuO5,0.0,-1.8657010961111111,mp-1206575,1,0.0
Li6MnNi7O16,0.179399999999999,-1.454927544264367,mp-758650,1,0.0
NaMn10O20,0.0,-1.794255211957732,mp-760841,1,0.0
Ba2MnO3,1.4139,-2.562281357571839,mp-27443,1,2.0
NdFe4(CuO4)3,0.8729999999999991,-1.6472652043749991,mp-1189790,1,1.0
K2U(MoO4)3,0.026699999999999,-2.362341616361111,mp-1211904,1,0.0
K3P(W3O10)4,3.2441,-2.227268613953443,mp-554269,1,4.0
CoSiH12(OF)6,0.0,-1.807731682115385,mp-24122,1,0.0
MgV4(PbO6)2,1.541099999999999,-2.274450323421053,mp-2230576,1,2.0
MgV2(SiO3)4,0.0,-2.972220134473685,mp-2230687,1,0.0
V4Fe2O13,2.3115,-2.182783057105263,mp-558525,1,3.0
VZnBiO5,2.9983,-2.038393132499999,mp-1044197,1,4.0
Na4(Fe2O3)5,1.3345,-1.636051642086802,mp-1221268,1,2.0
SrCa7Mn8O20,0.0917,-2.521388731693006,mp-1247682,1,0.0
La5Mn5O18,0.0,-2.681546492309114,mp-690531,1,0.0
Mn5Cr2O12,0.246399999999999,-1.9028788199818512,mp-755906,1,0.0
Ca3Mn2(GaO5)2,0.1267,-2.465408913580122,mp-1395621,1,0.0
ZnCoBiO5,0.1045,-1.3288091171875,mp-1044295,1,0.0
Ba2La2Zn(WO6)2,3.0766,-2.854017015789474,mp-41236,1,4.0
Sr2Mn3(BiO)2,0.0,-1.181195100421456,mp-546629,1,0.0
Li4Fe2P4H3O16,1.5845,-2.351810936057059,mp-1177422,1,2.0
Na2U2FeH8(C3O7)4,0.242599999999999,-1.76743012722186,mp-1201346,1,0.0
LiFe2(CO3)3,1.525399999999999,-1.8037289665555551,mp-1176763,1,2.0
Na4Mg(Ni2O5)2,0.466499999999999,-1.405257102658801,mp-2231875,1,0.0
Ba2AlTlCo2O7,0.0317,-2.075564499102566,mp-1046381,1,0.0
Li4Nb3V3(SnO8)2,0.122899999999999,-2.497259108690476,mp-757062,1,0.0
Ni4Mo4O19,0.205,-1.338731528333334,mp-1220121,1,0.0
Mn(FeO2)2,0.9977,-1.836117058275863,mp-18750,1,1.0
Mn3Fe3O8,0.0,-1.786942560270936,mp-753479,1,0.0
Rb4Co(PO4)6,0.008599999999999,-1.662736440510203,mp-1203531,1,0.0
Li3CrCo3O8,0.780199999999999,-1.771829998333333,mp-759149,1,1.0
Cs2VCl5O4,0.0,-0.7833713257758621,mp-1102108,1,0.0
Sr4CaYCo2(Cu2O7)2,0.0,-2.189794717692308,mp-1173231,1,0.0
LiV2P5O16,0.032999999999999,-2.683900550064484,mp-25812,1,0.0
CoP4H16(NO8)2,3.3299,-1.6658224079120871,mp-24300,1,4.0
MnH4(SO6)2,0.1622,-1.207374153575318,mp-696903,1,0.0
Li9Fe23O32,1.1087,-1.703363959375,mp-772996,1,1.0
Ba2Mn2ClF7,4.027900000000001,-3.413241539238506,mp-1214624,1,6.0
VSiP2O9,2.7927,-2.7472908507142852,mp-18882,1,4.0
Co(RhO3)2,0.0,-1.021530094444444,mp-1226570,1,0.0
AlFe3Se2ClO8,2.3164,-1.586237281645832,mp-1045601,1,3.0
BaLiGd2(MoO4)4,0.0392,-2.600783019305556,mp-1214380,1,0.0
MnCr2O4,2.2026,-2.337050971133004,mp-28226,1,3.0
W5O14,0.0,-1.395467416578946,mp-705284,1,0.0
CoH15N6(ClO)2,3.1259,-0.6482540526442321,mp-1227607,1,4.0