formula,bg,formation_energy,mp-id,fidelity,bg_category
Ho5Cu(WO4)8,0.8681000000000001,-2.673524001413042,mp-1224662,1,1.0
KCr2Fe3O14,0.0,-1.235757819862499,mp-1180836,1,0.0
Li4Ti2V3O10,0.674999999999999,-2.738901046842106,mp-758896,1,1.0
Li4Cr2Ni3Sb3O16,0.0615,-1.918672852619047,mp-764319,1,0.0
MgTi3Fe2Co(PO4)6,0.015299999999999,-2.693563899806949,mp-1234376,1,0.0
Mn5P3ClO12,3.0688,-2.472057838503988,mp-1210668,1,4.0
Ba3V2P6(HO4)6,1.823299999999999,-2.588361329642856,mp-758920,1,2.0
Li5NiO3F,0.0,-2.018101708166667,mp-758448,1,0.0
ErV2O2,0.0,-1.072083188499999,mp-1213643,1,0.0
Al4Si2Ni13(SbO14)2,2.347699999999999,-2.019428692448979,mp-1044564,1,3.0
EuMnSnWO6,0.153299999999999,-2.230546700793104,mp-1519332,1,0.0
NaCoP2HO7,0.004199999999999,-2.302038590992918,mp-1221116,1,0.0
K4Rb2Co2O5,1.0943,-1.396593309923077,mp-17522,1,1.0
Ca3MnH3(SO7)2,0.0,-1.3664687102904791,mp-1214341,1,0.0
LiMnFeF6,2.4344,-2.881047644584929,mp-22200,1,3.0
Ti3MnCo2(PO4)6,0.0,-2.715085884605227,mp-778393,1,0.0
Co3(SO6)2,0.046199999999999,-1.239274287794117,mp-1201339,1,0.0
LiLa4NiO8,1.515499999999999,-3.184178312380953,mp-19445,1,2.0
Li10Ti2Fe3Ni3O16,1.5521999999999991,-2.1096567491176472,mp-774319,1,2.0
Rb2Zn2(MoO4)3,3.5953,-2.040496877894737,mp-1209660,1,5.0
Li3Ni5OF11,3.6106,-2.4083659205,mp-753724,1,5.0
Li4Fe2Co3Sb3O16,0.921999999999999,-1.803323812976191,mp-759403,1,1.0
Co3(BO3)2,0.0,-2.278189580757578,mp-22632,1,0.0
Li4Fe3Ni3(SnO8)2,0.0,-1.657284767261904,mp-774855,1,0.0
Ca6Nd6ScMn11O36,0.0,-2.8211872072873563,mp-698723,1,0.0
Li2Ni5O7,0.0,-1.36155974154762,mp-754083,1,0.0
K3Ni(NO2)5,1.9658,-1.101639191144737,mp-1223825,1,2.0
W5O12F,0.0,-2.117884799166665,mp-766126,1,0.0
LiCo3CuO8,0.0,-1.107127973333333,mp-761730,1,0.0
CrNi(PO4)2,0.0,-2.256860874107142,mp-775333,1,0.0
CoH12(ClO3)2,3.0715,-1.252748564999999,mp-696766,1,4.0
Na8Fe7(PO4)8,0.008399999999999,-2.365197036875951,mp-760263,1,0.0
KMnF4,2.1486,-2.948373868363506,mp-558116,1,3.0
Li6Mn2O5F2,0.8348999999999991,-2.332128190057472,mp-766030,1,1.0
Mo2N5Cl9O,0.0,0.5166160061764691,mp-1236949,1,0.0
K2Th(MoO4)3,3.633099999999999,-2.48575743275,mp-556638,1,5.0
BaMn2TlO6,0.0,-1.653108480419541,mp-1046464,1,0.0
Sr2MnCO3F5,0.0,-3.13518649003592,mp-766465,1,0.0
Li11Ti8Fe5O32,0.152399999999999,-2.573792318630952,mp-769463,1,0.0
Sr3Y(CoO4)2,0.0,-2.52316989,mp-1218489,1,0.0
Mn(GeO3)2,1.438699999999999,-1.9031832075478932,mp-1043383,1,2.0
Mg6CrFeO8,0.7654999999999991,-2.609403750625,mp-1032130,1,1.0
Fe23O32,0.67,-1.559012010545455,mp-776135,1,1.0
MgCr2O6,1.3102,-1.941665173888888,mp-2223092,1,1.0
Ba(NiO2)4,0.323099999999999,-1.236639218461538,mp-18991,1,0.0
NaP(WO4)2,0.0,-2.3259336363351792,mp-555944,1,0.0
V5N4O,0.0,-0.8474634765000001,mp-691129,1,0.0
FePbO3,0.0,-1.356685948999998,mp-973579,1,0.0
TbWO5,0.090799999999999,-2.617574869880952,mp-1208379,1,0.0
ZnMoF5,2.6912,-2.499880723571428,mp-1404453,1,4.0
CeBMoO6,0.1158,-2.7780987796296293,mp-642871,1,0.0
Li4Ti(Co4O9)2,0.2275,-1.613745919247312,mp-774904,1,0.0
Fe2P3(HO3)3,0.0,-1.926072478981092,mp-23972,1,0.0
La3SmV2Cr2O12,0.7499,-3.0992700815,mp-1076218,1,1.0
Ni(GeO3)2,0.0,-1.452844103333333,mp-1043444,1,0.0
KNaW(OF2)2,3.1664,-2.651414223181034,mp-1189134,1,4.0
Li6Mn5SbO12,0.720499999999999,-2.116477128527298,mp-1648716,1,1.0
MnAl2(SiO5)2,0.0,-2.646264993028736,mp-1204710,1,0.0
Li6Fe5(P2O7)4,0.0,-2.43804865174772,mp-705431,1,0.0
Fe5(O4F)2,0.0,-1.583116242666668,mp-1178299,1,0.0
Al2V2O7,0.0,-2.487275749545455,mp-1261949,1,0.0
Mn3(AgO2)4,0.632599999999999,-1.226028946863984,mp-704268,1,0.0
Li3Fe2OF5,2.9943,-2.610426863181818,mp-773547,1,4.0
SrCaEuWO6,0.564599999999999,-2.9437157665,mp-1516941,1,0.0
LiMn3(FeO4)2,0.0686,-1.848206557651888,mp-756774,1,0.0
BaLaNiRuO6,0.0,-2.372736589499999,mp-622618,1,0.0
Ba2GdMoO6,0.9083,-3.040581021999999,mp-1079839,1,1.0
MnAgF3,0.0,-1.339749738919539,mp-1206344,1,0.0
LiV(CO3)2,2.0581,-2.141062827333333,mp-762019,1,3.0
Ba2HoCoCu2O7,0.0,-2.227665543846153,mp-1214661,1,0.0
Ca6Co3Si6O5,0.0,-1.110106755499999,mp-1196785,1,0.0
Lu2Mn(GeO3)4,1.9777,-2.685445642961284,mp-1222837,1,2.0
VH7N2O5,2.5435,-0.7869147507500011,mp-728437,1,3.0
Mg3Cr2(GeO4)3,2.9909,-2.461214513124999,mp-1327259,1,4.0
MgTiCr(PO4)3,2.4548,-2.896806376792327,mp-1044303,1,3.0
RbNa2V5H10O19,2.4772,-1.9063578893988824,mp-1220238,1,3.0
TiMn3Cr2(PO4)6,0.0,-2.557328475971767,mp-776109,1,0.0
Sr3Ca5Ti3Mn5O20,0.0075,-2.959592868115422,mp-1076134,1,0.0
SrLa(CoO3)2,0.0,-2.1937484525,mp-1218224,1,0.0
Ba2VTe4HO13,2.867399999999999,-2.062548027757937,mp-1201779,1,4.0
MnAl2Sb2(PO4)6,2.9471,-2.635590132736805,mp-1221856,1,4.0
Li7Ni2P7O24,0.0,-2.429297383145832,mp-867543,1,0.0
Li4Ti2Ni3Sn3O16,0.2379,-2.168366610178571,mp-753972,1,0.0
RbMn6As7O24,1.4179,-1.911787821383848,mp-556158,1,2.0
Mo(BrO)2,1.4684,-1.392631681999999,mp-1080460,1,2.0
Eu2Mn2O5,0.0,-2.649234663984676,mp-1099747,1,0.0
Ti11Fe17O42,1.0425,-2.47145578495238,mp-757435,1,1.0
NaFe4(MoO4)5,1.3009,-1.915587892045977,mp-558429,1,1.0
Li5FeO4,3.0845,-2.042025744666667,mp-19511,1,4.0
Na2MoAs2O9,3.0479,-1.908986646625616,mp-1221374,1,4.0
Sr2Ca6TiMn7O20,0.0,-2.690276635315293,mp-1076877,1,0.0
BaNdEuWO6,0.198999999999999,-3.042953516750001,mp-1522345,1,0.0
K8Hf(MoO4)6,4.0372,-2.323178935846153,mp-555607,1,6.0
Sr2CoSO3,0.0,-2.052197661785714,mp-1046632,1,0.0
LiCrPO4,2.1346,-2.566351388282313,mp-25447,1,3.0
Sr4Ca4Mn7FeO20,0.0,-2.522633878764368,mp-1076163,1,0.0
Na4(NiO2)5,0.517199999999999,-1.257373889237748,mp-753301,1,0.0
Ba2DyWO6,0.0,-3.081254584166666,mp-1518430,1,0.0
V2(CuO3)3,0.166899999999999,-1.4947536132142851,mp-1194512,1,0.0
Li2Mn2CuO6,0.235799999999999,-1.765942825684429,mp-755903,1,0.0
Cs2KMoF6,4.1117,-2.985054783656035,mp-557133,1,6.0
MgMn4(AgO4)4,0.289699999999999,-1.05921607573563,mp-2220534,1,0.0
Li6V3P8O29,0.0,-2.662222470263975,mp-760182,1,0.0
Na4NiP2O7F2,4.258,-2.582121299987684,mp-1194870,1,6.0
Nd4Mn(NiO4)3,0.343999999999999,-2.600712315896551,mp-1220251,1,0.0
Y2Mo4O15,3.3185,-2.507684173809523,mp-1203448,1,4.0
Sr2Ca2FeCo3O10,0.0,-2.192679666666667,mp-1099665,1,0.0
DyTl(WO4)2,2.917099999999999,-2.506151887499999,mp-1212931,1,4.0
CaFeClO2,0.6341,-2.374016877,mp-549711,1,0.0
LiVSiO5,2.1668,-2.688015865416666,mp-754539,1,3.0
Tm(FeO2)2,0.0,-2.393449642857143,mp-1077874,1,0.0
Li2CoPO4F,2.7098,-2.537132745006614,mp-770853,1,4.0
Eu6MgWO12,0.0177,-3.14332548225,mp-2230728,1,0.0
Ni5O4,0.0,-0.7320208499999991,mp-1220234,1,0.0
Mg6NbCrO8,1.1836,-2.596196746875,mp-1033427,1,1.0
LiCrSiO4,2.5874,-2.766164678333333,mp-763610,1,3.0
Ca2CoO3,0.9521,-2.400480239166666,mp-1182074,1,1.0
Li2NbCo3O8,0.6675000000000001,-1.962201984404762,mp-757558,1,1.0
MgMnAgO2,0.0,-1.59128216091954,mp-2210750,1,0.0
W2(OF3)3,0.0099,-2.152119966785714,mp-1193011,1,0.0
Zn(WO3)2,0.640799999999999,-1.963126036666666,mp-1045708,1,0.0
V2CuO6,0.523699999999999,-1.997068422222222,mp-2234110,1,0.0
Li5V2Co5O12,0.4879,-1.641904887777778,mp-771251,1,0.0
MnZn(Br2O3)2,0.0024,-0.385911388577586,mp-1180589,1,0.0
Sr4Fe3ReO12,0.0,-2.476204356875,mp-1218429,1,0.0
K4Mo2H6S2O9,3.371699999999999,-1.649843044195652,mp-1203753,1,5.0
VSiO3,0.0,-2.8087977035,mp-754608,1,0.0
CrOF3,2.1933,-2.2395654355,mp-31703,1,3.0
Li11V4F24,0.0,-3.168745008376068,mp-760823,1,0.0
Na2V3P2O13,1.7762,-2.533524697477217,mp-558049,1,2.0
Ca12Mn8Si7(H5O16)3,1.0723,-2.3381999524688712,mp-746884,1,1.0
KSc(WO4)2,3.1121,-2.623011134354166,mp-1211497,1,4.0
YMoO3,2.2163,-2.888439059000001,mp-1379411,1,3.0
MgMn6O12,0.342299999999999,-1.9845634559255911,mp-1003771,1,0.0
NaLi2FeF6,4.1704,-2.690261746804597,mp-1111348,1,6.0
Ba10Fe8Pt2Cl2O25,0.0,-2.21187992138298,mp-1228981,1,0.0
MnV3O8,0.0,-2.312740945660918,mp-756087,1,0.0
Li2U4W4O25,1.917899999999999,-2.856278014761904,mp-557893,1,2.0
Cs5CeNi2(NO2)12,0.0,-1.069268454051724,mp-704975,1,0.0
Li3Fe(BO2)5,4.082800000000001,-2.607662665833333,mp-752566,1,6.0
HoMn4(CuO4)3,0.0,-1.843333252836206,mp-641065,1,0.0
LiCo3(P3O10)2,0.9597,-2.244073058873016,mp-26567,1,1.0
NiP2(NO4)2,0.009099999999999,-0.624605932445054,mp-1204481,1,0.0
K2U2Cr2O15F2,0.7243,-1.851433217586955,mp-1196582,1,1.0
Fe3(AsO8)2,0.0,-0.756711918809524,mp-1190714,1,0.0
Li4MnCr2Fe3(PO4)6,1.1511,-2.435153299978038,mp-779026,1,1.0
K6Na2Pt(WO6)6,0.736699999999999,-1.120734919338404,mp-1200820,1,1.0
Ti3Cr2Co(PO4)6,0.0,-2.720734390218254,mp-775780,1,0.0
Mn4H2C8O17,2.2619,-1.706642914813682,mp-1222084,1,3.0
MnSO4,2.8118,-2.044368775905172,mp-22554,1,4.0
Mg30MnCrO32,1.6973999999999991,-2.959311416530172,mp-1037910,1,2.0
CrMoO4,0.0,-2.166948223333333,mp-1213733,1,0.0
K9(WO3)20,0.0,-2.236981033205056,mp-761779,1,0.0
KCaCr2F9,3.2258,-3.34565867350641,mp-1212098,1,4.0
KBaV3Cd2O11,3.066,-2.367167949430555,mp-1223694,1,4.0
Li2Mn(FeO3)2,0.871799999999999,-1.894502361630094,mp-759297,1,1.0
LiMn2(PO4)3,1.221,-2.372617994617999,mp-26061,1,1.0
Cr3(NO5)2,0.0865,-0.326094266222221,mp-1204126,1,0.0
Li4FeCo9O20,0.0049,-1.427536636568628,mp-759547,1,0.0
Li7Mn7P6(O8F)3,3.1773,-2.651437070887397,mp-758877,1,4.0
Li6Fe3Ni(PO4)6,0.0,-2.410318763696429,mp-771187,1,0.0
TbMn2BiO6,0.0,-1.687390461252874,mp-546339,1,0.0
AlTlFe2F2,0.0,-0.65837522138889,mp-1237061,1,0.0
Sr5Fe3F19,3.6135,-3.512167275185185,mp-1173207,1,5.0
La3Mn4AgO12,0.0,-2.559307303919539,mp-1223238,1,0.0
Li4Mn3Fe2Sn(PO4)6,2.024599999999999,-2.455728617249589,mp-1177412,1,3.0
La7SmTiV7O24,0.0,-3.200088255583334,mp-1075987,1,0.0
Li3V2P4(HO8)2,0.7338,-2.597799440039682,mp-775982,1,1.0
Mg6ZnCoO8,2.684,-2.5897776125,mp-1032604,1,4.0
Rb2CoPb(NO2)6,1.0031,-1.035472938409091,mp-1239379,1,1.0
Li2Cr(SiO3)2,0.194799999999999,-2.766318731969697,mp-1261497,1,0.0
Li9Cr3(WO4)7,0.0,-2.211536276808509,mp-778229,1,0.0
MnInF3,0.001,-2.50279309391954,mp-1099572,1,0.0
ZnCoO2,1.0065,-1.428705194375,mp-754633,1,1.0
ZnW3O7,1.036099999999999,-1.731621808409091,mp-1044651,1,1.0
Mg14CuNiO16,0.0258,-2.770387041562499,mp-1035352,1,0.0
K2CrHgF6,0.0,-2.6325176997,mp-1111938,1,0.0
KNi(PO3)3,5.2401,-2.517476101512755,mp-557878,1,7.0
Ni3Te(MoO7)6,0.0,-0.414673986955129,mp-1204457,1,0.0
ZnSi2WO6,0.0,-2.320195995,mp-1163919,1,0.0
LiMnO3,0.0,-1.6915997667528742,mp-1120793,1,0.0
VPbF5,0.4088,-2.904198873214296,mp-1208828,1,0.0
HfMnO3,3.3253,-3.171712297586205,mp-754657,1,4.0
ZnFeO3,0.0,-1.465996034999999,mp-755099,1,0.0
V6PbO15,0.6193000000000001,-2.298649182272727,mp-766653,1,0.0
Fe13O19,0.0,-1.391026822031249,mp-1195927,1,0.0
GaCoPH18C9NCl2O3,3.4843,-0.448184934990079,mp-562835,1,5.0
Mn3FeO8,0.0,-1.642681072399425,mp-756788,1,0.0
Ba3CaZrWO9,0.0,-3.059721445777777,mp-736122,1,0.0
K2Cr4CdO16,0.7229,-1.446262528021738,mp-1191337,1,1.0
CaNiF5,0.0,-2.894890377857142,mp-1389691,1,0.0
NaNd(MoO4)2,3.4059,-2.50792963740661,mp-1220980,1,5.0
Ti4FeBiPb4O15,2.0657,-2.505430643533333,mp-1217456,1,3.0
Ti4(Fe2O5)3,1.3816,-2.496962872733332,mp-759740,1,2.0
Ca2VMoO6,0.6962,-2.7241696865,mp-1227834,1,1.0
Ba4Nd4Ti3Mn(Cu2O11)2,0.0,-2.888055393103448,mp-1228289,1,0.0
HoZn(WO3)2,0.9625,-2.273552041499999,mp-1041307,1,1.0
Mn3Al2(SiO4)3,3.7426999999999992,-2.955633462439654,mp-6480,1,5.0
DyCrO4,0.297999999999999,-2.779022291111109,mp-18754,1,0.0
Sr3La7Mn8(FeO15)2,0.0,-2.829617415168966,mp-705096,1,0.0
Sr7CaMn4(FeO5)4,0.0,-2.430721331922891,mp-1099692,1,0.0
V2Cu(PO5)2,0.0,-2.341209362035713,mp-646720,1,0.0
K2Mn2P2O7F2,3.7232,-2.730384265143185,mp-558599,1,5.0
Na2W2O5,1.7199,-1.844033707528735,mp-1097712,1,2.0
Ba2TlCo2O7,0.0,-1.612230178194444,mp-1046346,1,0.0
Li4Mn3Cr3(WO8)2,0.0,-2.244149849183087,mp-776267,1,0.0
SrV2O6,2.8040000000000003,-2.670981360555556,mp-19038,1,4.0
NaVH2(OF2)2,3.4885,-2.39372904513793,mp-1195646,1,5.0
MgV4O10,1.5242,-2.4916120103333332,mp-2224992,1,2.0
La2GaCoO6,1.7713,-2.83003903675,mp-1223269,1,2.0
YMnO3,0.0,-3.027483251919541,mp-19385,1,0.0
BaMg(FeO2)4,1.6589,-2.020576196785713,mp-1044425,1,2.0
MgMn5Cr2O12,0.0453,-2.082761772232758,mp-2230064,1,0.0
Na7(NiO2)10,0.0,-1.209090568369057,mp-760203,1,0.0
CoPO4F,0.0,-1.937452378520408,mp-25444,1,0.0
Rb2NiO2,2.8076,-1.2654713379999991,mp-19167,1,4.0
LiCr10O15,0.203899999999999,-2.234091955320511,mp-770681,1,0.0
Be2NiH20N2(O3F4)2,4.9841,-1.652365674102563,mp-1198491,1,7.0
CrOF4,2.3505,-2.065883125833334,mp-760228,1,3.0
Na4CoO4,0.5364,-1.517222244022987,mp-27224,1,0.0
Li3Cr5O10,0.0,-2.241347587222222,mp-762282,1,0.0
LiMnPH2O5,3.715899999999999,-2.206006765340722,mp-758824,1,5.0
Sr16Fe6Co2Mo8O45,0.630899999999999,-2.426838183051948,mp-703320,1,0.0
ZnFeAs2O7,1.3387,-1.702977567500001,mp-1042820,1,2.0
MgScCr2Ag(H2O5)2,0.9857,-1.83244836245614,mp-2231980,1,1.0
K3VH6C4O13,2.9347000000000003,-1.708422564231482,mp-698305,1,4.0
Ni5(TeO6)2,0.205,-1.215971520701754,mp-756164,1,0.0
HfMg14WO16,0.054499999999999,-2.7100528996875,mp-1033809,1,0.0
Mn2O3F,0.0,-2.041098524310344,mp-1176477,1,0.0
Na5Cr2P(CO4)4,0.1257,-2.128551008804979,mp-775934,1,0.0
Ba3Er2MoO9,2.063,-3.225764984999999,mp-1228244,1,3.0
K2VAuF6,0.0,-2.49830392445,mp-1112253,1,0.0
Li2Fe2C4Cl2O13,0.025599999999999,-1.039221615724637,mp-1203916,1,0.0
LiTi4Mn(PO4)6,0.0,-2.972066451734856,mp-704600,1,0.0
Li3FeO3,2.0511,-1.9685776071428571,mp-770886,1,3.0
Ba2Li3Ho3(WO4)8,3.2447,-2.623026266354166,mp-1228762,1,4.0
Li3V3Cr2O10,1.166599999999999,-2.38058249527778,mp-849418,1,1.0
Sr3Co2TeO9,0.0,-2.184869441444445,mp-1218444,1,0.0
Ba2MgZnWO6,1.5369000000000002,-2.399370787727273,mp-2242187,1,2.0
CoH8C3(NO3)2,1.2842,-0.891203250624999,mp-1201582,1,1.0
Ba2Mg(MoO4)2,1.4981,-2.486186247307693,mp-2218462,1,2.0
KFe6H12S4O29,0.0,-1.53560007033173,mp-1224576,1,0.0
MgWF6,3.742099999999999,-3.201457285624999,mp-1407403,1,5.0
K4Li3Mn2O8,0.5697000000000001,-1.848540132933062,mp-758550,1,0.0
Li4Ti2Co7O18,0.0,-1.818425220645161,mp-774947,1,0.0
YbGaCoO4,0.0,-2.510830498571429,mp-1215744,1,0.0
Sr7PrFe4(MoO6)4,0.978499999999999,-2.563384927041666,mp-698609,1,1.0
Li2CoCu(PO4)2,0.0,-2.274752868639456,mp-756337,1,0.0
Ba3La7Ti3Cr7O30,1.854099999999999,-3.255805064899999,mp-697840,1,2.0
Mg8Mn3O11,2.3869,-2.738275184490596,mp-753927,1,3.0
Nb3Ni(PO4)6,0.0,-2.692674508760505,mp-775225,1,0.0
Rb2NiH12(SO7)2,4.8683,-1.604172858387096,mp-24688,1,7.0
MnRe(PbO3)2,0.0,-1.822523277376437,mp-1193019,1,0.0
NdCrGeO5,2.5312,-2.805828713749999,mp-1210145,1,3.0
K2Cr2NiO10,0.178799999999999,-1.3722657803,mp-1103927,1,0.0
KLiSm2(MoO4)4,3.337299999999999,-2.521801934190974,mp-1211510,1,5.0
MgCo2(WO4)2,0.4912,-1.811734499615384,mp-2240961,1,0.0
LiV6O13,0.6886999999999991,-2.415387879166667,mp-542050,1,1.0
Li3Mo2P5O18,1.4358,-2.522341078864796,mp-585177,1,2.0
Na2MgW4O13,0.0,-2.20737476413793,mp-2230091,1,0.0
Li3Mn2V3O12,1.055499999999999,-2.304638568918103,mp-774814,1,1.0
Mg2V2O5,0.0,-2.478373904444444,mp-1367520,1,0.0
MgMn3TeO8,0.9034,-1.983129455035366,mp-2218964,1,1.0
Nd4CoSi4(C2O11)2,0.0,-2.6117931265714303,mp-1211576,1,0.0
Sr2FeClO3,0.0,-2.6517125075,mp-630641,1,0.0
Ba10Nd4Y(MoO6)5,0.0,-3.0039359792,mp-1228897,1,0.0
NaMnAsO4,2.0178,-2.022084184901477,mp-17876,1,3.0
Li2VGeO5,0.0,-2.379973534629629,mp-18809,1,0.0
TlFe(MoO4)2,2.5843,-1.829072953194446,mp-645796,1,3.0
Li2FeO2,1.8966,-1.877975758333332,mp-755094,1,2.0
KFe(MoO4)2,2.4118,-2.008169349354169,mp-19362,1,3.0
Li5V3(NiO5)2,1.3068,-2.158781955333332,mp-755845,1,1.0
BaSr(CoO3)4,0.0,-1.201604781666666,mp-1517422,1,0.0
UNi(OF2)3,0.0,-2.18158635090909,mp-1191770,1,0.0
Li3Fe3NiO8,0.9259,-1.7087218359999992,mp-757161,1,1.0
Tl2V8O21,1.299399999999999,-2.203579532311826,mp-583506,1,1.0
ZnFeBO4,1.103599999999999,-2.083584753809523,mp-1215822,1,1.0
SrFeBi2O5,0.0,-1.752010775555556,mp-1208668,1,0.0
MnFe(PO4)2,1.0006,-2.377360948101396,mp-764401,1,1.0
Li6Co(SiO4)2,2.700299999999999,-2.527912713823529,mp-758702,1,4.0
Tl2Ni2(MoO4)3,3.8078,-1.711383492324563,mp-1208571,1,5.0
Na3Fe2P2O10F,0.0,-2.207504076162424,mp-1221362,1,0.0
CaNdHfFeO6,2.0833,-3.118562068749999,mp-1519219,1,3.0
Li2TiCr3O8,0.833299999999999,-2.568698478571429,mp-1275461,1,1.0
KCe2FeO5,0.036499999999999,-2.81298377386111,mp-1097060,1,0.0
CaV2O5,0.0,-2.8014750212500013,mp-19305,1,0.0
BaPrTaCoO6,1.685299999999999,-2.985226682399999,mp-1227898,1,2.0
Na3MgMo(OF)3,2.084899999999999,-2.535686778103447,mp-2240370,1,3.0
UMn(OF2)3,0.6489,-2.499500133902821,mp-1208585,1,0.0
Pr2Mn3Sb3O14,1.059299999999999,-2.437056792596655,mp-1219879,1,1.0
Zn3Si4(MoO7)2,0.9254,-2.466882238695652,mp-1047015,1,1.0
Li2TiMn2O6,1.5596,-2.470376443260187,mp-776053,1,2.0
SrCa7Mn6Al2O22,0.0424,-2.691647024739111,mp-1247617,1,0.0
CoH12PdC4(NO3)4,0.0,-0.6857650160294111,mp-1197384,1,0.0
ThMn4(CuO4)3,0.0,-1.949011755086206,mp-648519,1,0.0
Li3NbV4O8,0.0,-2.340457157499999,mp-754577,1,0.0
LaV2BiO8,3.2664,-2.682178571250001,mp-1222712,1,4.0
CaCoAsO5,1.0381,-2.076209731249999,mp-1373701,1,1.0
NaMo3P3O16,1.7809,-2.353771609143821,mp-505102,1,2.0
Sr2PrCoO6,0.0,-2.419391496166668,mp-1517407,1,0.0
CoTeMoO6,1.847299999999999,-1.670296165185186,mp-551806,1,2.0
Zn4Cr5(TeO6)3,0.1611,-1.848037977499999,mp-1046556,1,0.0
Li14Mn9(P2O7)8,3.7787,-2.62508886823507,mp-705402,1,5.0
NiH5CN(ClO)2,0.0,-1.0012521921875,mp-1190493,1,0.0
Li3Fe2(PO5)2,0.0,-2.268469202899159,mp-766138,1,0.0
K4Mo6Se25O,0.7692000000000001,-0.5677880250720491,mp-1224595,1,1.0
Mn6P7O24,0.0,-2.561727967569896,mp-504168,1,0.0
Na6U5V2O23,1.8105,-3.063350262521551,mp-700033,1,2.0
KNa2LiTi2MnFe(SiO3)8,2.1473,-3.025248564698491,mp-1223707,1,3.0
Ca3MnF6,0.0,-3.213976758793103,mp-1206786,1,0.0
Ba2AlTlCr2O7,0.0,-2.232931499871795,mp-1048438,1,0.0
VAg3F6,0.0,-1.823076867299982,mp-1205508,1,0.0
VCr3(PO4)6,0.0,-2.3851565884663852,mp-774402,1,0.0
BeCrO4,2.4705,-2.060414783749999,mp-770887,1,3.0
K2V3O8,2.0466,-2.445476564961539,mp-16787,1,3.0
La2Fe(SeO)2,1.1414,-2.601357070669643,mp-1078132,1,1.0
Li6MnSb3(PO4)6,0.2319,-2.451271397144705,mp-1176991,1,0.0
Li2Mn3(CoO4)3,1.0851,-1.682250485022988,mp-754774,1,1.0
Mn2F7,0.6527000000000001,-2.54508159454023,mp-760309,1,0.0
Er6MoO12,2.1216,-3.377652788947367,mp-1213660,1,3.0
Cu3NiP2O9,0.3954,-1.802985568785715,mp-1204774,1,0.0
V2CuH18(N3O5)2,1.027399999999999,-0.699908698175676,mp-1203102,1,1.0
Cs2V(PO4)2,2.9895,-2.67352772700739,mp-541679,1,4.0
Sr10Mg5Mo(W2O15)2,2.626,-2.9598721997,mp-1218935,1,3.0
Co(N3O4)3,0.0927,0.222740930227272,mp-726105,1,0.0
Co6Ge2(CO)19,1.3509,-0.7321735951086951,mp-650858,1,2.0
Ni5Sb(PO4)6,0.013199999999999,-2.061524326884919,mp-752690,1,0.0
Li3Si6NiO15,1.7001,-2.8154644731,mp-757292,1,2.0
Ag4Mo2Se3O16,1.7787000000000002,-1.227226647047916,mp-558550,1,2.0
Li5Si2NiO8,1.1305,-2.491865696041666,mp-753204,1,1.0
MnAsO4,1.148,-1.82111114632184,mp-557471,1,1.0
Na(CoO2)2,0.0,-1.442184006268473,mp-22474,1,0.0
KEuHfFeO6,0.0,-2.595830415225001,mp-1521506,1,0.0
CsV2S2O,0.0,-1.506241108275863,mp-1070912,1,0.0
SrPrDyNiO6,1.4826,-2.687236834333332,mp-1519887,1,2.0
Rb2CoB12(H2O3)10,3.3282,-2.070534044615384,mp-774813,1,4.0
K3Na8FeH12S6(NO18)2,2.177499999999999,-1.8130227951880071,mp-1181575,1,3.0
LaCe2Mn3O9,0.0,-2.839589566252874,mp-1223081,1,0.0
Ca2MnWO6,2.1817,-2.777544282293102,mp-19108,1,3.0
Er2Mn3Sb3O14,1.1665,-2.480006437445139,mp-1225740,1,1.0
BaBi12Mo5O34,3.3118,-1.907949145192308,mp-1215003,1,4.0
Fe2Pb(SeO3)4,1.8645,-1.436703488388157,mp-1224708,1,2.0
Li4VNi3O8,0.0,-1.846477958333333,mp-770620,1,0.0
Sm3Sc2(FeO4)3,2.1481,-3.110911003500001,mp-1209643,1,3.0
MgMn4FeO8,0.0,-1.986089833337439,mp-2226478,1,0.0
K2Cr2Cu(PO7)2,0.046699999999999,-1.931295399704082,mp-1204374,1,0.0
Sm2Fe2As2O,0.0,-0.931278337142858,mp-1219198,1,0.0
Mn2BiPO6,1.998099999999999,-2.285013969050493,mp-554449,1,3.0
Mg30MnBiO32,0.1233,-2.867624334498922,mp-1037840,1,0.0
Cs2MnOF5,0.0,-2.414539725249042,mp-1101095,1,0.0
SrMgV2O7,2.7983,-2.8024287706818183,mp-1208827,1,4.0
MoP2O7,1.9637,-2.50622534217857,mp-26616,1,2.0
CrH10SNO10,2.2834,-1.360313007934782,mp-721082,1,3.0
Ba2Ce2Ti2Fe(Si4O13)2,0.219,-3.340461791382114,mp-1229035,1,0.0
Li6V5O12,0.695399999999999,-2.45906167,mp-764771,1,1.0
Tl(WO3)3,0.0,-2.07528514756411,mp-766046,1,0.0
Mg7Fe(SiO4)4,4.1577,-3.097839281249999,mp-1094131,1,6.0
Na2MnCrF7,2.4576,-3.030118618850574,mp-14718,1,3.0
Na4RhW5O26,0.0,-1.133299716681034,mp-1223444,1,0.0
Er2MgCr2O8,1.0419,-2.875862371153846,mp-2218803,1,1.0
W3O,0.0,2.341756676250002,mp-21369,1,0.0
Mn7Cu(PO4)12,0.0,-2.126485466782816,mp-1176532,1,0.0
Li2V2Si5O13,2.5017,-2.926467896666666,mp-758036,1,3.0