formula,bg,formation_energy,mp-id,fidelity,bg_category
Li3Ti2(NiO4)2,0.6151,-2.408987487777778,mp-753424,1,0.0
Ba2Ca3Tl2(NiO3)4,0.0,-1.859636120289855,mp-1048352,1,0.0
La2CoRuO6,0.0,-2.647642955000002,mp-1211319,1,0.0
Hg2Mo2O7,2.198899999999999,-1.558184639545455,mp-554533,1,3.0
CrP3H18C6(SO)6,2.6313,-0.692406370035713,mp-728403,1,3.0
NbCrO4,0.0,-2.749603696666666,mp-758053,1,0.0
Li5Mg11(WO4)12,1.804599999999999,-2.451907320416666,mp-1177113,1,2.0
Fe4Te2MoC14(SO7)2,1.7006,-0.5624623209009001,mp-683793,1,2.0
CsSc(WO4)2,4.1422,-2.597089624554597,mp-1213157,1,6.0
Mg30FeSnO32,1.6793,-2.895303309921875,mp-1036955,1,2.0
TiVO3,0.0,-3.029616557666668,mp-1216763,1,0.0
Na2Co(SO6)2,0.0,-1.270844958397566,mp-1210905,1,0.0
Ba2PrVO6,1.6605,-3.058658729166667,mp-1519938,1,2.0
BaV2(CuO4)2,0.1615,-2.121815618653846,mp-557454,1,0.0
Mn3Sb5(IO3)3,0.7864000000000001,-1.660590790439648,mp-1196009,1,1.0
SrLi4La15(CoO8)4,0.924199999999999,-3.186298736041667,mp-766206,1,1.0
SrEuNiWO6,0.4733,-2.5385660235,mp-1516349,1,0.0
Cr2(WO4)3,3.0223,-2.174916648676471,mp-772321,1,4.0
Na4(WO3)9,0.0,-2.18668593951293,mp-766216,1,0.0
Zn3Ge3(MoO6)2,0.530199999999999,-1.85000749875,mp-1329623,1,0.0
U3Ag6Mo5O27,1.4163,-2.062823101463413,mp-560774,1,2.0
Mn3AlF15,0.0,-2.4940254017785852,mp-1358927,1,0.0
Li5V6(CuO4)6,0.007299999999999,-1.9111585549186991,mp-774871,1,0.0
Ca3Nd4Nb6(FeO14)2,0.0,-3.0749006586046512,mp-1365096,1,0.0
Cs3Li2Fe(MoO4)4,2.9686,-2.135014098485853,mp-1213707,1,4.0
Mg3Fe(SiO4)2,3.8682,-2.9844644692857143,mp-1222201,1,5.0
CoAg(CO)4,2.5425,-0.713803348416666,mp-647969,1,3.0
LiFe3OF5,2.7297,-2.397220531833333,mp-758661,1,4.0
Na7(WO3)20,0.0,-2.170868890340864,mp-1173836,1,0.0
Si2MoO7,0.6165,-2.412938923999998,mp-1143109,1,0.0
MgMn4In2O10,0.0,-1.974511925885733,mp-2229065,1,0.0
RbYMnWO6,2.6968,-2.6375868020431033,mp-1105374,1,4.0
Mn4Cu3BiO12,0.0,-1.542829750586207,mp-1210616,1,0.0
Rb2CrAgF6,3.0253,-2.736779278666666,mp-1110610,1,4.0
Ba2MgMn2(P2O7)2,1.9981,-2.716378747801457,mp-1233482,1,3.0
BaEuCrBiO6,0.0,-2.3439742825,mp-1522588,1,0.0
Mn3(OF2)2,1.019599999999999,-2.541545986532568,mp-849358,1,1.0
FeBP2O11,0.0,-1.597192549785714,mp-1213402,1,0.0
CaMnAl4SiP3(HO4)5,4.886700000000001,-2.739440860803131,mp-1199709,1,7.0
Be3Co2(NF6)2,0.0,-1.972841290131579,mp-1214936,1,0.0
MgTl2(FeO2)2,0.0,-1.209883346851853,mp-2240587,1,0.0
Rb9Fe7(PO4)10,2.397999999999999,-2.468016808620129,mp-1205160,1,3.0
LaZnFeCuO6,0.002199999999999,-1.7093674495,mp-1044050,1,0.0
BaMg2V2O8,3.5789,-2.8618394488461543,mp-19084,1,5.0
Sr2VCu2O7,0.0,-2.013763190833332,mp-1043859,1,0.0
SrWO3,0.0,-2.455699439000001,mp-1186764,1,0.0
KCo(N3O4)2,0.7653000000000001,-0.182939976546875,mp-1201035,1,1.0
Li2Ni(PO3)5,0.0,-2.43748463434265,mp-540011,1,0.0
HoCrTeO6,2.6338,-2.544345439074073,mp-1105351,1,3.0
Li2Mn4Si4O13,2.3459,-2.744559621886557,mp-860880,1,3.0
La2Mg(FeO3)2,2.3198,-2.679379851363637,mp-2240076,1,3.0
Mn13Si2SbO24,0.1655,-2.219651172744254,mp-557740,1,0.0
MgV2(CoO4)2,1.9323,-2.139910131923077,mp-2219669,1,2.0
Na4VS3O13,2.6285,-2.17472536954844,mp-699658,1,3.0
InFeCoO4,1.747,-1.639376057380953,mp-1224078,1,2.0
Co3(PO5)2,0.0,-1.7395811326190471,mp-1193155,1,0.0
K2Li3CoO4,1.4735,-1.77009624395,mp-757868,1,2.0
MgTiV(PO4)3,1.431699999999999,-2.899686340958994,mp-1044309,1,2.0
Mn3Se3O10,0.0,-1.632689340364034,mp-28915,1,0.0
K2RbDyV2O8,3.4091,-2.731318518833333,mp-1211702,1,5.0
Ca4Te3W5O18,0.8018999999999991,-2.089834488833332,mp-1046672,1,1.0
K6Cr2O9,0.522899999999999,-1.575412637558823,mp-755102,1,0.0
CeCr2O10,0.0,-1.592197779230768,mp-818536,1,0.0
Sr2CeVO6,0.0,-3.143956961999999,mp-1520912,1,0.0
Ba3Y4(NiO5)3,0.0,-2.487939516599999,mp-1376017,1,0.0
Ba3MoO6,2.2259,-2.673427223,mp-1205495,1,3.0
SrCa7Mn8O23,0.0,-2.4907687556012372,mp-1247632,1,0.0
KCr2FeO9,0.1063,-1.490485767096153,mp-727170,1,0.0
MgMnV5O12,1.0446,-2.441287683312161,mp-2230930,1,1.0
NiPNO10,0.0,-0.317691617280219,mp-1211010,1,0.0
TbV2O2,0.0,-1.253764824833334,mp-1208791,1,0.0
Ca19Co2(PO4)14,0.0,-3.202958688516483,mp-1228767,1,0.0
K4CoMo4O15,0.0,-2.039909089958333,mp-562390,1,0.0
Ba2V2CuClO8,0.0,-2.448424235714285,mp-1195300,1,0.0
KGaCoC4Cl3O4,3.7405,-1.205510123910715,mp-561754,1,5.0
Mn8NO16,0.8924999999999991,-1.520370037537932,mp-1221848,1,1.0
Rb2NiF6,2.421599999999999,-2.389794803888885,mp-556417,1,3.0
Li3MnPO5,2.4135,-2.523081131007389,mp-757770,1,3.0
CrCo(PO4)2,0.0,-2.276781196190475,mp-1178412,1,0.0
Li3Ti2NiO6,0.0,-2.661776715555555,mp-755155,1,0.0
K2Be2NiH6F8,2.1842,-1.8684953474736832,mp-1238483,1,3.0
NaCoBP2H4O11,0.121099999999999,-1.909514252074917,mp-1211027,1,0.0
TmSbMo2O9,3.2071,-2.377664586538462,mp-1204373,1,4.0
K2CoSiO4,2.9618,-2.33303936915625,mp-505285,1,4.0
Li6Co11(OF12)2,2.3223000000000003,-2.396961699069768,mp-761081,1,3.0
Eu3VGeO9,0.0,-2.8168901617857163,mp-1213659,1,0.0
CsRbMo3O10,3.3547,-2.104211814477012,mp-1213122,1,5.0
SrFe2(PO4)2,3.8426,-2.645428499560439,mp-542976,1,5.0
Li3Cr3(NiO6)2,0.728499999999999,-1.771243443625,mp-772885,1,1.0
Rb8Ti3Cr2Ni3(P2O7)8,2.2969,-2.7084620143668823,mp-1173606,1,3.0
La3Co3O8,0.0,-2.551963255714286,mp-29203,1,0.0
YFe3Se2ClO8,2.5557,-1.844118315979165,mp-1048596,1,3.0
K3CoPCO7,2.916699999999999,-2.234843319722527,mp-1580470,1,4.0
Rb5FeO4,1.8727999999999991,-1.473615956374999,mp-768830,1,2.0
KNiF3,0.0,-2.636112260449999,mp-560976,1,0.0
MgV2(CuO4)2,0.1774,-2.028509108076923,mp-560291,1,0.0
SnMoH6(CO2)2,4.109,-0.8620227189285711,mp-1199536,1,6.0
Ca8Al11Fe(Si3O13)4,0.0,-3.237326822380953,mp-1227897,1,0.0
CaEuMn4O12,0.0,-1.681421205373564,mp-1516447,1,0.0
Ti3Cr(PO4)6,0.414,-2.744947589642857,mp-774416,1,0.0
FeBP(HO3)2,4.2042,-2.179489658452381,mp-1213675,1,6.0
Na2Mg5Mn11Si12(AsO25)2,0.0219,-2.6416410207317083,mp-1202299,1,0.0
BaY2(MoO4)4,3.3185,-2.621783679782609,mp-1214357,1,4.0
Li9Mn5O12,1.3548,-2.059051863448277,mp-1176815,1,2.0
Li4Mn5SnO12,0.032799999999999,-2.039768433544932,mp-756595,1,0.0
Ni2P3O11,0.0,-1.9103749955580351,mp-26892,1,0.0
ZnCu2(WO4)2,1.2035,-1.612601272307692,mp-1041432,1,1.0
Li2Co3(P2O7)2,2.8306,-2.393093554358178,mp-584122,1,4.0
Na2Mg3(MoO4)4,3.6565,-2.348657088043678,mp-1221800,1,5.0
LiFe(MoO4)2,2.0562,-1.990976456944446,mp-561087,1,3.0
Mn7GeO12,0.5022000000000001,-2.052191077025861,mp-1172871,1,0.0
Fe(PO3)2,2.3833,-2.470533366309521,mp-649683,1,3.0
Tl2CoH12(SeO7)2,2.5576,-1.242385781979166,mp-1198158,1,3.0
Li5V5(NiO6)2,1.3552,-2.242366277361111,mp-756056,1,2.0
Sr2La2FeCoO8,0.0,-2.815128880714285,mp-1218706,1,0.0
Sm(FeO2)2,0.0,-2.352249432142857,mp-755338,1,0.0
V6P7O24,0.0,-2.59964301331081,mp-26766,1,0.0
LiFe4(PO4)4,0.756599999999999,-2.34921354127619,mp-632692,1,1.0
KMoO3,0.0,-2.04255605245,mp-1040469,1,0.0
Cs2Zr(WO4)3,2.9771,-2.555746231628352,mp-1226158,1,4.0
Ca(NiO2)2,0.0,-1.662092417499998,mp-1372361,1,0.0
Li3V3CoO8,0.8990999999999991,-2.269510057999999,mp-1177534,1,1.0
Li2NiPO4F,3.7462,-2.513087213062169,mp-554446,1,5.0
Gd2CrSbO7,1.9649,-3.006558049545453,mp-1224730,1,2.0
CsCrH18N6(ClO2)4,3.9754,-0.719411009530398,mp-24681,1,5.0
Na10Mn2O9,0.9707999999999992,-1.6289592206978651,mp-778825,1,1.0
Li4Mn3Nb2Co3O16,0.5073000000000001,-2.158112120611658,mp-763519,1,0.0
TlVSeO5,2.4187,-1.715909565397136,mp-1208048,1,3.0
Na(FeO2)2,0.0,-1.606661026982757,mp-759691,1,0.0
Li8Nb(FeO4)3,0.042999999999999,-2.0731437090277782,mp-754201,1,0.0
NaMn(SiO3)2,2.884699999999999,-2.783754242431035,mp-19349,1,4.0
Na3CrSiCO7,2.7167,-2.412307600318303,mp-771013,1,4.0
LuVO2,0.0,-2.411526214791667,mp-1210719,1,0.0
Mn7Ni(PO4)12,0.0,-2.134563879135757,mp-776812,1,0.0
Mn3Co2Te3O16,0.0,-1.482797588491379,mp-755884,1,0.0
Rb2Be2Co(O3F4)2,0.2145,-1.66309605605263,mp-1209794,1,0.0
Li5Ti2V3O10,0.349,-2.703298924166667,mp-760954,1,0.0
Rb2FeOF5,0.0,-2.322998488888888,mp-731573,1,0.0
Li12Fe5O16,0.0,-1.819351045454545,mp-760142,1,0.0
KCaDyWO6,2.8505000000000003,-2.8783435038916663,mp-1520891,1,4.0
Cr19O48,0.3451,-1.681366412388059,mp-780521,1,0.0
NaCr(SO4)2,2.7232000000000003,-2.082985674698276,mp-1210195,1,4.0
Li2V3(OF)4,1.2333,-2.821674548974359,mp-752838,1,1.0
Cs6Cr2O7,1.643999999999999,-1.857782984195404,mp-1193081,1,2.0
Li4TiNi3Sn2(PO4)6,2.3485,-2.471109463363094,mp-778249,1,3.0
Hf3MnF6,0.0,-2.078030256793103,mp-1206167,1,0.0
Li2VPHO5,2.6224,-2.388355777755953,mp-1275571,1,3.0
K2Ce2Fe4O11,0.094199999999999,-2.3297655183947352,mp-1097037,1,0.0
Sr2Ca6FeCo7O20,0.0,-2.1705673888888892,mp-1099653,1,0.0
VPH7N2O5,2.8255,-1.451865133962053,mp-758131,1,4.0
KSm(FeO3)4,0.0,-1.398967681791666,mp-1519502,1,0.0
TiFe5(PO4)6,1.365399999999999,-2.4583846939219582,mp-773598,1,2.0
Rb2CrHgF6,0.0,-2.57008291875,mp-1112407,1,0.0
BaCaMn4O8,0.0,-2.209659800837439,mp-1044544,1,0.0
Mo3Br6O,0.767999999999999,-0.583096999,mp-732041,1,1.0
Pu(MoO4)2,0.3953,-2.197123069886363,mp-1210278,1,0.0
MnNiO2,0.0,-1.529430349482758,mp-752562,1,0.0
BaNdMnSnO6,0.0,-2.605427895043104,mp-1521256,1,0.0
Ba8V7O22,0.0,-2.8913964970270283,mp-28902,1,0.0
Sr2V2GaO7,0.0,-2.5531870997916672,mp-1046832,1,0.0
K2MgMn2P6(HO10)2,3.843,-2.532617965627855,mp-1233500,1,5.0
NaCo3P3O13,0.0,-1.991508315515394,mp-1013830,1,0.0
CrSO9,0.0,-0.612119512045454,mp-1190795,1,0.0
Fe2C8SO10,2.453,-0.7442283304761901,mp-647840,1,3.0
Ba6ZnCo5(SiO4)6,3.061,-2.813128769047619,mp-1120751,1,4.0
Li7Fe3(WO8)2,0.0,-1.932350105119048,mp-771171,1,0.0
CsGd(MoO4)2,3.082,-2.529492260387931,mp-1213392,1,4.0
CaV(GeO3)4,0.1006,-1.948538907222222,mp-1521779,1,0.0
BaInCo4O7,0.0,-1.656284697051282,mp-22402,1,0.0
BaMn2O8,1.8724,-1.555597785532916,mp-27681,1,2.0
MgFe4(CuO4)2,0.0,-1.491191548999999,mp-2232109,1,0.0
Mg30CoBO32,2.088000000000001,-2.894089935143229,mp-1036995,1,3.0
La3SmCr2(FeO6)2,0.9318,-2.889261157,mp-1076611,1,1.0
Li3TiCr2O6,0.1105,-2.569035525277778,mp-1306033,1,0.0
V4ZnO6,0.0,-2.136723528636364,mp-1043021,1,0.0
KFePO4,3.3116,-2.439603845627551,mp-561267,1,4.0
Ca2YNiO5,0.0,-2.729927937222222,mp-1047556,1,0.0
Co2NiO4,0.0,-1.189508992142857,mp-38683,1,0.0
KMgMnO2,0.0,-1.6979840720362072,mp-2225311,1,0.0
AlAg(WO4)2,1.5659,-2.111626893888888,mp-1047674,1,2.0
Li4Ti3Cr3(CoO8)2,0.2543,-2.4575958894047623,mp-756278,1,0.0
Sr2Co(ClO)2,0.5379,-2.51143146,mp-23130,1,0.0
Li3Co(NiO3)2,0.0,-1.5740996858333332,mp-754316,1,0.0
YNi(WO4)2,0.9116,-2.317790333333333,mp-1041783,1,1.0
CoH2Cl2O,0.8128000000000001,-1.181906084166666,mp-1192030,1,1.0
Sr4FeRh2O9,0.0,-2.313339266562499,mp-1208805,1,0.0
Na2V6O15,0.0,-2.340349007728636,mp-778594,1,0.0
MgVRhO4,0.8327,-1.896311219285714,mp-2226547,1,1.0
CaMn3(P2O7)2,3.7443,-2.735728945334749,mp-1044590,1,5.0
LiFeP3H8O13,3.6786,-1.930690487394689,mp-849293,1,5.0
Cr(PO3)2,2.8745,-2.551782443809525,mp-772172,1,4.0
CoBO3,0.1471,-1.960627775833332,mp-757083,1,0.0
LiCo(PO3)3,0.0,-2.502126885518707,mp-26015,1,0.0
MgCrO15,0.030299999999999,-0.188941463235293,mp-1204672,1,0.0
Li4Fe3Co2Sn3O16,0.0,-1.7791761777976192,mp-775387,1,0.0
KNdFeSnO6,0.0,-2.153088216974998,mp-1518022,1,0.0
Li5Co3(NiO5)2,0.5467999999999991,-1.5614795628333331,mp-755076,1,0.0
Fe2TeO5,1.8884999999999992,-1.601952902083333,mp-560112,1,2.0
Li2CrFe(PO4)2,2.2877,-2.5104806214966,mp-861527,1,3.0
Mg(FeO2)2,0.0,-2.165017080714286,mp-608016,1,0.0
BaSr(MoO3)2,0.0,-2.509711093,mp-1227741,1,0.0
KLiMn2(SiO3)4,2.041,-2.827332989822496,mp-1189006,1,3.0
CsNiF3,5.3618,-2.565249565,mp-557772,1,7.0
Na2Co5Mo4(ClO4)4,2.358199999999999,-1.759426905895439,mp-699543,1,3.0
TiV2Fe3(PO4)6,0.0,-2.550406944199734,mp-769525,1,0.0
Cu2W2O7,1.0255,-1.668169785454545,mp-756162,1,1.0
EuDy(NiO3)4,0.0,-0.644160293148147,mp-1519890,1,0.0
CaP3W3O13,0.9698,-2.425453621696428,mp-1047875,1,1.0
PuNiO3,0.0,-2.067242016749998,mp-1188081,1,0.0
V2S3O14,0.0,-1.861500770657894,mp-818487,1,0.0
CaCo3O7,0.2475,-1.386732321590908,mp-1042545,1,0.0
CaAl2Si2(WO2)4,0.052799999999999,-1.360400835294117,mp-1215045,1,0.0
Li3Co(OF)2,1.2846,-2.324610656875,mp-754312,1,1.0
Mn2Be3(SiO4)3,0.2239,-2.753286738543104,mp-1250945,1,0.0
LaFe3(BO3)4,2.3045,-2.585897103583333,mp-22252,1,3.0
LiSi2NiO6,1.4438,-2.505998672083334,mp-753300,1,2.0
Li4CrSb(WO6)2,1.6873,-2.247668473666666,mp-752957,1,2.0
Mn2InO5,0.8958,-1.915702797816092,mp-774229,1,1.0
FeH4C3O5,2.6484,-1.1253517169230771,mp-559328,1,3.0
Mg6MnAlO8,0.367700000000001,-2.73017934612069,mp-1033146,1,0.0
LiMn16O32,0.0,-1.8365434261271412,mp-1003549,1,0.0
K2SmMoPO8,4.0009,-2.81048395128022,mp-1199136,1,6.0
Ba2Sr6Co5Cu3O20,0.002699999999999,-2.002691699583333,mp-1076893,1,0.0
Li2FeBO4,2.4266,-2.313577470416666,mp-771016,1,3.0
Mg14TiFeO16,0.142599999999999,-2.874906876666666,mp-1035770,1,0.0
V3CoNi2(PO4)6,0.063299999999999,-2.410115628273809,mp-759445,1,0.0
Ba2Mn2Sb2O,0.0,-1.223353110123153,mp-19213,1,0.0
ZrV2O7,2.5909,-2.817252799750002,mp-554326,1,3.0
PrMoO4F,4.0857,-2.9585828488095243,mp-1192358,1,6.0
AlVMoO7,2.3841,-2.4600990815,mp-20014,1,3.0
Li4Mn3Ni(PO4)4,2.7986,-2.56085531948921,mp-757417,1,4.0
Co3(PO4)4,0.0,-1.9271387025465831,mp-31554,1,0.0
BaLaMnInO6,0.0,-2.632436916459771,mp-697820,1,0.0
NaCo2(SO4)2,0.229,-1.389970340875332,mp-1193451,1,0.0
Fe6O5F7,1.2309,-2.112249932777777,mp-1178314,1,1.0
Zn2Fe3As3O26,0.0,-0.568355872426471,mp-1203053,1,0.0
Ba2AlTlW2O7,0.0,-1.788439666794872,mp-1046389,1,0.0
K2Na4Fe2O5,0.482199999999999,-1.518045855385942,mp-1211809,1,0.0
Mg3Fe4(BiO4)6,0.0,-1.589298598243243,mp-1043056,1,0.0
BaFe2P4H4O17,0.9647,-2.154908182806122,mp-1228787,1,1.0
Ba2DyMoO6,0.0,-3.036579568166666,mp-1206026,1,0.0
LiMg14FeO16,2.6398,-2.891903034791666,mp-1035435,1,3.0
Li5Mn5O9F,0.7369000000000001,-2.190026427816092,mp-753735,1,1.0
SmCrTeO6,2.694899999999999,-2.524806572962962,mp-1106360,1,4.0
CaEu(CoO3)4,0.0,-1.282613273055556,mp-1520376,1,0.0
Li2NiSn(PO4)2,2.1298999999999992,-2.338963866496599,mp-770823,1,3.0
SrLaTiFeO6,1.7674,-3.157936793833333,mp-1218147,1,2.0
Li5V5(FeO6)2,1.355,-2.275561112777778,mp-772522,1,2.0
Li9V19O48,1.216099999999999,-2.411679659078947,mp-776279,1,1.0
MgV2(PO5)2,1.2593,-2.703033718285714,mp-2232216,1,1.0
Na4Mg(Fe2O5)2,0.0,-1.6640009047640651,mp-2230090,1,0.0
VAg(HO2)2,2.0853,-1.542220900520833,mp-24576,1,3.0
UNiH14O9F4,2.3034,-1.803506043706896,mp-604490,1,3.0
Li12Fe3NiP4(CO7)4,3.159,-2.32328385978022,mp-766564,1,4.0
Gd2(MoO4)3,3.2407,-2.635878328529412,mp-3572,1,4.0
Li3LaNiO4,2.6223,-2.298148036388889,mp-768238,1,3.0
YCrO3,2.4831,-3.191012650500001,mp-18725,1,3.0
Na2U2CoH8(C3O7)4,0.0,-1.7413468440143132,mp-1201788,1,0.0
BaLaTaMnO6,1.0025,-3.186556689026438,mp-41283,1,1.0
Na2La7Ti8Mn2O30,0.292499999999999,-3.458661670822192,mp-1173810,1,0.0
LiZn6Fe17O32,1.380199999999999,-1.661163111130951,mp-771348,1,2.0
La4Mn5(Si2O11)2,1.0118,-3.035376521418719,mp-541464,1,1.0
Sr3Tl(FeO4)2,0.0,-2.21798069952381,mp-1218508,1,0.0
Ca3La5Mn7FeO24,0.0,-2.813885202762931,mp-694928,1,0.0
Co6Te3(ClO6)2,2.2763,-1.420483641739128,mp-562912,1,3.0
Li4Mn5(P3O11)2,3.101199999999999,-2.595323976914746,mp-25857,1,4.0
Mn2VNi3(PO4)6,0.0,-2.237450914547756,mp-759208,1,0.0
CsV2CrO7,2.1697,-2.366951099514105,mp-1191871,1,3.0
SrHfVSnO6,0.0,-2.8422859705,mp-1520913,1,0.0
Sr2YCr2O7,0.0,-2.703165924166666,mp-1045011,1,0.0
LiCr3(FeO4)2,1.3080999999999992,-2.124115562380952,mp-755327,1,1.0
VAgP2O7,2.0397,-2.4013978359956702,mp-1201897,1,3.0
LiMn3P3O11,3.2093,-2.544665063391944,mp-780780,1,4.0
Mn2FeC6(N3O4)2,0.381599999999999,0.188928799962519,mp-820860,1,0.0
Rb2Fe2As2O9,1.6391,-1.871612807166666,mp-1200007,1,2.0
K4V2O9,0.660799999999999,-1.8058709115999991,mp-731715,1,0.0
Ni5O6,0.0,-1.06833911,mp-754806,1,0.0
NiC4S4(NO6)2,0.0,-0.30814121695652,mp-1193000,1,0.0
MoPb5O8,2.5574,-1.66403174660714,mp-652366,1,3.0
Ca(MoO3)2,0.0,-2.268658478888889,mp-1774805,1,0.0
LiCrCdF6,3.9378,-2.91125776037037,mp-1211098,1,5.0
Li3CoF6,2.9404,-2.593125365999999,mp-1111290,1,4.0
Mn2CrSbO6,1.4196,-2.078288352086206,mp-1105510,1,2.0
Fe3P3O11,1.5619,-2.327649195084032,mp-540050,1,2.0
SrLaCoO4,1.3403,-2.763861028571429,mp-1274449,1,2.0
Mo3Se(NO6)2,2.0059,-0.830057279574653,mp-818262,1,3.0
CaMnSnWO6,1.329799999999999,-2.198747393293102,mp-1516574,1,1.0
FeBO3,1.4815999999999991,-2.270362331833334,mp-19097,1,2.0
Co2P2O11,0.0,-1.295571911785714,mp-1198807,1,0.0
Li4Nb2Cr3Fe3O16,1.800999999999999,-2.374551134761904,mp-755224,1,2.0
Na3WNO3,3.181899999999999,-1.63887794551724,mp-1221211,1,4.0
Li9Nb7V12O48,1.3957000000000002,-2.590264958026316,mp-849386,1,2.0
FeP2(H4O5)2,4.3922,-1.8041821237755091,mp-1205448,1,6.0
CoPHNO4,0.7814,-0.8578271119866071,mp-1213814,1,1.0
Mg2W9O13,0.0,-1.213531048541665,mp-1046047,1,0.0
Li4Nb3Fe2Ni3O16,0.4936,-2.163208206190476,mp-764250,1,0.0
MgTiFeO4,2.4409,-2.754148392619047,mp-2215958,1,3.0
Li4V3Cr3(FeO8)2,0.9559,-2.268905821904762,mp-772532,1,1.0
VCu2BiO6,0.0,-1.599227990416667,mp-699707,1,0.0
Nd2CoO4,0.0,-2.933724992142857,mp-1206526,1,0.0
KVF3,2.075899999999999,-3.03907132245,mp-557257,1,3.0
Ba4La6Mn(Co3O10)3,0.0,-2.33893109595862,mp-720103,1,0.0
Mg14NbVO16,0.0167,-2.8237596175,mp-1034421,1,0.0
Li4Cr3CoO8,0.8818,-2.231349322708333,mp-768946,1,1.0
MnVO3,0.3157,-2.284756146086208,mp-1106224,1,0.0
Li7Mn11O24,0.8300000000000001,-2.026578636918446,mp-690435,1,1.0
VZn2IrO6,0.2539,-1.6715305805,mp-1047088,1,0.0
Mg14FeCuO16,0.0571,-2.7892073109375,mp-1035796,1,0.0
Li4Ti3Mn4Cr2O18,0.4319,-2.5101456362921772,mp-768100,1,0.0
BaSrCoWO6,0.0,-2.575675568,mp-1227676,1,0.0
MgV2CdO6,2.1193,-2.3435824255,mp-2217172,1,3.0
Rb2MnV2O7,2.6012999999999993,-2.388964201285919,mp-19472,1,3.0
Ba2Ca3Tl2(FeO3)4,0.0,-2.0964328320289862,mp-1841520,1,0.0
LiMn2Fe3O8,0.0,-1.825769087799672,mp-756080,1,0.0
LiNiSbO4,1.920199999999999,-1.8821763740476192,mp-756254,1,2.0
Na2Ca6Mg7Fe(SiO3)16,0.0253,-3.190415231846982,mp-721039,1,0.0
NiH2SO5,0.0,-1.599307243888888,mp-643570,1,0.0
Fe3P2H6O11,3.5808,-1.871660419967531,mp-1182551,1,5.0
Li4VP6(H4O11)2,2.5922,-2.228985056126598,mp-780492,1,3.0
Li10Cr2Fe3Co3O16,0.0,-1.879407420980392,mp-774310,1,0.0
Li10FeNi9O20,0.0,-1.5320347100833331,mp-769545,1,0.0
Li2VSi2O7,1.733,-2.830347914305556,mp-765964,1,2.0
Sr7CaFe7CoO24,0.0,-2.182616462499999,mp-1076858,1,0.0
Li7V6Ni5O24,0.0,-2.125005253174602,mp-769574,1,0.0
NaVMoO6,2.7363,-2.172935941264368,mp-1220800,1,4.0
Li3Co2CuO6,0.0,-1.557955839166666,mp-754066,1,0.0
BaSrEuWO6,0.010399999999999,-2.96133452625,mp-1518836,1,0.0
BaAlCo4O7,0.187699999999999,-1.900414839615385,mp-1048382,1,0.0
SmEuCrSnO6,0.0,-2.7004627555000003,mp-1521686,1,0.0
CsMg14MnO16,0.0,-2.645851690549569,mp-1036562,1,0.0
RbMg14MnO16,0.0,-2.725446633294719,mp-1036182,1,0.0
U2Mn(AsO12)2,0.038399999999999,-0.918051298376932,mp-1194144,1,0.0
V3Cr2Cu(PO4)6,0.0,-2.455098472162698,mp-1101254,1,0.0
SmV2IO9,2.4889,-2.295206316153846,mp-1196559,1,3.0
V2Cu3H2O9,0.0,-1.090516255468751,mp-1207920,1,0.0
Ba2YCr3O7,0.0078,-2.704906609230768,mp-1048325,1,0.0
LiV3F10,1.8206,-3.133098876309524,mp-765496,1,2.0
LiVP4O13,0.9993,-2.524126822468672,mp-25948,1,1.0
MgFeBiO5,0.5377000000000001,-1.8178380096875,mp-1044380,1,0.0
Ba2Co9O14,0.0,-1.496708619599999,mp-510717,1,0.0
Rb2MnO4,0.6351,-1.721545900418719,mp-505209,1,0.0
MgTl4V2O7,0.0,-1.635637960238097,mp-2228511,1,0.0
NaWO2,1.267599999999999,-1.350405172844826,mp-1210088,1,1.0
Sr3CaTiMn3O10,0.0005,-2.808757070395913,mp-1076505,1,0.0
Li9V12Cr7O48,0.0158,-2.270571927894737,mp-772575,1,0.0
AlCo(WO4)2,1.6189999999999989,-2.254103944999999,mp-1252502,1,2.0
CeMn2(GeO3)4,0.4958,-2.40627627899274,mp-21635,1,0.0
MnV2Fe3(PO4)6,0.5415000000000001,-2.42554027293856,mp-766226,1,0.0
VCu(PO4)2,0.5038,-2.307575525357143,mp-755025,1,0.0
Er2V2O7,0.0,-3.250776504545453,mp-557684,1,0.0
Sr2La6Mn7CuO24,0.0,-2.81997787863793,mp-738741,1,0.0
CaMn12O24,0.0826,-1.888165529328984,mp-1080217,1,0.0
BaYVCuO5,0.0,-2.656487152777777,mp-1042482,1,0.0
K2MnPCO7,1.1157,-2.322483721839491,mp-769604,1,1.0
Sr2FeOsO6,0.0,-2.332112187499999,mp-1095170,1,0.0
Rb2MoAuF6,1.5341,-2.4014443765,mp-1110587,1,2.0
V3Co3(TeO8)2,0.0,-1.695191538888889,mp-775162,1,0.0
CrNiAg2F7,1.657399999999999,-2.192959935757575,mp-1213740,1,2.0
Sr2Y2Cr2O7,0.0,-2.979280948461538,mp-1047092,1,0.0
Nb2NiO6,2.998199999999999,-2.659272506666665,mp-22198,1,4.0
Li4NbFe5(PO4)6,0.5354999999999991,-2.43052806252976,mp-759245,1,0.0
Sr10Mg5Mo2(WO10)3,2.4223,-2.935252344899999,mp-1218914,1,3.0
BaTbEuWO6,0.146799999999999,-3.113751713666667,mp-1519421,1,0.0
TlMo2(PO4)3,0.8793000000000001,-2.385865752208995,mp-14498,1,1.0