formula,bg,formation_energy,mp-id,fidelity,bg_category
Sr2CeNiO6,1.322899999999999,-2.6470964159999992,mp-1517357,1,1.0
Fe7P6(HO6)4,3.1224,-2.043809949094076,mp-24474,1,4.0
Na7Cr2O6,0.201,-1.662248494643678,mp-831182,1,0.0
Na2LuPWO8,4.7657,-2.810566961466779,mp-1197089,1,7.0
LiNi(PO3)3,4.7526,-2.497688596947279,mp-26001,1,7.0
Ni(IO3)2,3.1711,-0.9547511808333332,mp-755246,1,4.0
W25O73,0.0,-2.16928806510204,mp-649605,1,0.0
CrNi3(PO4)4,0.0,-2.084695618690476,mp-754644,1,0.0
LiTiCoO4,0.629,-2.439223495238095,mp-1176576,1,0.0
Mg30FeCO32,2.485299999999999,-2.825755940078125,mp-1037498,1,3.0
UTl2(MoO5)2,2.2304,-2.27044913836111,mp-641097,1,3.0
Cs3CrF7,0.0,-2.94630910854232,mp-614724,1,0.0
Li2V5B3O13,1.9451,-2.6095997397463773,mp-772588,1,2.0
Rb2MnF5,1.5873,-2.972131870991379,mp-555014,1,2.0
Ti2CrFe3(PO4)6,0.561599999999999,-2.563326933458994,mp-1101304,1,0.0
CsVFeF6,1.814,-3.014621490517241,mp-1228886,1,2.0
MgTi3V5O16,0.9013,-2.8538869713999993,mp-1233709,1,1.0
Li3Co(BO2)5,3.0462,-2.57016183372807,mp-768669,1,4.0
LiMgCr7(SO4)12,2.7801,-2.05982159258454,mp-532590,1,4.0
Ba2AlW3O7,0.0,-1.8094774503846152,mp-1045008,1,0.0
Li4V5CuClO15,0.603699999999999,-2.20505072801282,mp-756583,1,0.0
BaTlVO4,3.5439,-2.518580615119048,mp-541006,1,5.0
CrH5O4,2.6506,-1.425992954624999,mp-1226463,1,3.0
Cr4P2O9,2.045799999999999,-2.336168390119048,mp-772202,1,3.0
ScMn2O4,0.0,-2.69459729726601,mp-1219298,1,0.0
Ba3Ho2MoO9,2.1402,-3.211279244666666,mp-1228250,1,3.0
Tm2MgCr2O8,1.7433,-2.857663850384616,mp-2218774,1,2.0
Ca9Co(PO4)7,0.845499999999999,-3.163307464944444,mp-780573,1,1.0
MnFeBO4,0.9277,-2.2113406363711,mp-1176443,1,1.0
Mn5Fe3O16,0.0,-1.552759837902298,mp-773198,1,0.0
LiMn2(CoO4)2,0.2606,-1.600199540707338,mp-778584,1,0.0
GdY3V4O16,2.9459,-3.181759697916668,mp-1224509,1,4.0
CoH2(CO2)2,2.1843,-1.189031421574072,mp-1203827,1,3.0
Ca3Ni2O7,0.0,-2.034510629583333,mp-1370002,1,0.0
Ba2Tb2Co4O11,0.0,-2.302270957807017,mp-22456,1,0.0
CeEu2WO6,0.0,-3.010968487250002,mp-1520203,1,0.0
Li3MgNi3O8,0.256499999999999,-1.544558984666667,mp-772324,1,0.0
Li5Ti2Mn5O12,0.128199999999999,-2.468359278457855,mp-771262,1,0.0
Li2Mn2NiO6,0.457399999999999,-1.88013132568443,mp-758510,1,0.0
Li10Fe2Co3Ni3O16,0.0,-1.654856339803922,mp-779007,1,0.0
Mn2Bi3Sb3O14,1.741699999999999,-1.910766743448276,mp-1221942,1,2.0
CsK2CoO2,1.675799999999999,-1.229804064025859,mp-551244,1,2.0
NaV5H18N2O19,2.4451,-1.580829454975095,mp-1198514,1,3.0
Na6Ca3MnC6(O9F)2,4.4368,-2.423801950172413,mp-766470,1,6.0
Mg6CrCdO8,1.7518,-2.5940571218749993,mp-1033407,1,2.0
Li5Mn7Fe3O20,0.0,-1.989925085633826,mp-779755,1,0.0
K5Mo4O14F,3.658699999999999,-2.20444649984375,mp-1195555,1,5.0
Sm2FeP2O,0.0,0.013270010952381,mp-1208878,1,0.0
MgCr4O6,0.0,-2.189782561363635,mp-1042710,1,0.0
Li3MnB8O15,1.3799,-2.662545740232014,mp-777353,1,2.0
BaGdCrFeO6,0.0,-5.153567591,mp-1518724,1,0.0
Co2PH2CO7,2.6567,-1.773397905164835,mp-23823,1,3.0
SrGdCoO4,0.8127000000000001,-2.720978178571429,mp-1218232,1,1.0
LiEu(MoO4)2,0.0,-2.323269312777778,mp-1212253,1,0.0
NaP4(W3O11)4,0.2105,-2.312223147048371,mp-1221142,1,0.0
Li4V2Fe3O10,0.8106000000000001,-2.117581080964913,mp-758719,1,1.0
Ba4Sr2Dy2Co4O15,1.351899999999999,-2.591078676975308,mp-1228722,1,2.0
Li4MnSi2O7,3.4122,-2.761740750804598,mp-752430,1,5.0
K3Co(NO2)6,2.6886,-1.104111695079546,mp-20299,1,4.0
Mn3CrNi2(PO4)6,0.0,-2.307522991712507,mp-758927,1,0.0
Ca3Fe3(AsO4)4,2.3749,-2.200034051538462,mp-1047531,1,3.0
Li8CoNi9O20,0.0,-1.399081425175438,mp-1176867,1,0.0
Al9Cr(BO9)2,3.946599999999999,-3.271842929277777,mp-1228622,1,5.0
Li10Ni4O9,0.0,-1.666692370797101,mp-1185196,1,0.0
Li2Cr2H4O9,2.6274,-1.6685000233333331,mp-696441,1,3.0
Cd(CoO2)2,1.9265999999999992,-1.319261409285712,mp-756301,1,2.0
H12W3C4S2Cl9O2,0.0164,-0.521344159687499,mp-601227,1,0.0
MgFe4H42(S3O23)2,2.2454,-1.506555122550504,mp-1200159,1,3.0
MgCo4NiO8,0.1713,-1.3816163725,mp-2241254,1,0.0
Sr4ZnCu(WO6)2,0.0,-2.570866036500001,mp-1218483,1,0.0
Li2CoPCO7,0.7917000000000001,-2.145116393025794,mp-25454,1,1.0
ZnCrAsO5,1.9526999999999992,-1.895506082812499,mp-1346852,1,2.0
FeMoClO4,1.5746,-1.746362022857142,mp-23123,1,2.0
LaFeAsO,1.285599999999999,-1.767602885000001,mp-1281007,1,1.0
MgCd2(WO4)2,1.6108,-1.98494947730769,mp-2219635,1,2.0
NaMgMnO2,0.0,-1.827626022862069,mp-2224996,1,0.0
Ba2SmMgMoO6,2.200699999999999,-2.72989736090909,mp-2227531,1,3.0
Cs2LiTm2(WO4)4,2.2391,-2.589749374905748,mp-1235075,1,3.0
KMn6O12,0.0,-1.920459751570327,mp-757832,1,0.0
MgMnV4O12,2.1181,-2.436575329607294,mp-2232942,1,3.0
CsMo2P3O13,2.2729,-2.4690161743991452,mp-1199248,1,3.0
Lu4Mo4O11,0.0,-2.743748446140351,mp-558119,1,0.0
Li5Cr(CO3)4,2.0518,-2.113228977007576,mp-1177153,1,3.0
Li3Fe2(NiO4)2,0.0,-1.573516122,mp-767955,1,0.0
LiVWO6,2.8759,-2.26299334037037,mp-754143,1,4.0
K2Rb4Fe2O5,0.980399999999999,-1.455434631115384,mp-1211726,1,1.0
FeC4N2O9,0.0,-0.437201012604167,mp-1195386,1,0.0
Ca(Fe9O13)2,0.9447,-1.5754943902222232,mp-1365538,1,1.0
Na6Mn2As(CO4)4,0.0,-1.986789513159928,mp-850884,1,0.0
NaSm(FeO3)4,0.0,-1.397017275909962,mp-1516706,1,0.0
Dy5(MoO6)2,0.0,-3.34389256464906,mp-1105361,1,0.0
Li5Mn3(SbO5)2,0.9025999999999992,-2.070005371522988,mp-1667016,1,1.0
MgTi3ZnNiO9,3.069,-2.9184285906666663,mp-1222049,1,4.0
Mn2Fe(CO)14,1.656699999999999,-0.7294621018020021,mp-1202382,1,2.0
NdSbMo2O9,3.2603,-2.371680794423077,mp-556535,1,4.0
MnH(CO)5,4.2636,-0.729794180140087,mp-1197162,1,6.0
VZnHPbO5,2.9144,-1.936224415694421,mp-734495,1,4.0
NaSrTbMnO6,0.0,-2.377393616597702,mp-1523204,1,0.0
Li3SiNi3O8,0.3814,-1.8297296226666664,mp-753399,1,0.0
Ba12MnRu5(ClO6)4,0.0043,-2.471793944085457,mp-1228797,1,0.0
K11Mn4O16,0.0,-1.779200090692714,mp-775539,1,0.0
EuTl(WO4)2,0.0,-2.309999132361112,mp-1212775,1,0.0
Ba3Nb2NiO9,2.680799999999999,-3.012424455833333,mp-1214516,1,4.0
Zn(WO2)4,0.103299999999999,-1.695347640769231,mp-1046548,1,0.0
Li2MnSi3O8,2.7880000000000003,-2.861777346399836,mp-753994,1,4.0
Li7Fe5O16,0.0,-1.4968235097619051,mp-1176883,1,0.0
KNaV4O12,0.0,-2.02770779881274,mp-1520241,1,0.0
Na3V3H6O7,0.3599,-1.194204832980943,mp-1237969,1,0.0
Sr2ScFePO3,0.0,-2.477015394330356,mp-1189114,1,0.0
MgMnCo3O8,0.7315,-1.592778203302388,mp-2219372,1,1.0
Li2Si4NiO10,3.7818,-2.8330511939215692,mp-770701,1,5.0
NaPrZrFeO6,0.0,-2.665075123304598,mp-1521691,1,0.0
Na4Cr2H6O11,3.0836,-1.697707900565967,mp-1204421,1,4.0
Rb3Mn16O32,0.0,-1.922243558615619,mp-758431,1,0.0
Na2LiCaVP2O9,1.7654,-2.725968921273604,mp-759615,1,2.0
BaGd2Mn2O7,0.0,-2.977401411946841,mp-510248,1,0.0
BaCuWO5,0.0,-1.863508000624999,mp-1042556,1,0.0
Ca2NiBiO6,0.0,-1.85225734,mp-1516857,1,0.0
Li4V2Co3Ni3O16,0.0,-1.695128677619047,mp-758110,1,0.0
Mn(PtO2)3,0.073399999999999,-1.188962142793099,mp-18971,1,0.0
Na6MgV2(SO3)2,1.6011000000000002,-1.892616064604462,mp-2240862,1,2.0
Co2Si(P2O7)2,0.0,-2.515171201836734,mp-17775,1,0.0
MgFeAgO2,0.0,-1.374158557333333,mp-2210754,1,0.0
CsMo(PO4)2,2.4808,-2.517353575120074,mp-541428,1,3.0
BaSr2Mn2(Si2O7)2,0.0,-3.103148711994003,mp-19122,1,0.0
Ba2Fe3F10,3.4795,-3.209111277333334,mp-28359,1,5.0
NaNiO2,0.4204,-1.333131863469827,mp-19149,1,0.0
Li3FeIrO5,0.0,-1.803864161,mp-1222630,1,0.0
Li5V3Cu(PO4)4,1.6189,-2.493456737594417,mp-760808,1,2.0
MnTlF3,2.6304,-2.5959912892528743,mp-998762,1,3.0
Na2FeH4C5(N2O)3,2.8033,-0.342927684417078,mp-540591,1,4.0
Ba2NiOsO6,0.0,-2.200199516333333,mp-504568,1,0.0
K2MnH2OF5,1.338499999999999,-2.515914316357367,mp-696630,1,2.0
Ni3Te2MoO10,2.9872,-1.5507354220833331,mp-1198070,1,4.0
NaNi4F10,0.0,-2.119927314777781,mp-673691,1,0.0
CaHo(FeO3)2,0.0,-2.550745396499999,mp-1041214,1,0.0
Cr(ClO2)3,0.0599,-0.5057389485,mp-1181814,1,0.0
LiCo3P3O11,2.5741,-2.138705941792328,mp-584239,1,3.0
La7SmCo6(CuO12)2,0.0,-2.4821057234999993,mp-1076076,1,0.0
MgSc2Cr2O8,1.070999999999999,-2.763892516538462,mp-2219069,1,1.0
NaUVO6,1.9662,-2.926880280431033,mp-1202065,1,2.0
LaVO3,0.0,-3.279302451000002,mp-19350,1,0.0
Li2Ni3(BO3)3,0.0,-2.066242286421568,mp-1177892,1,0.0
Fe2Ni3P6WO24,0.9977999999999992,-2.202097734940476,mp-771051,1,1.0
K2ZnCr2(H2O5)2,2.695999999999999,-1.707506785763158,mp-1195983,1,4.0
Te7WCl5O,0.6448,-0.736430562619047,mp-697593,1,0.0
Nb2Zn2WO8,0.2294,-2.289380753076923,mp-1047052,1,0.0
Ti3Fe2Te(PO4)6,0.117099999999999,-2.643572016792328,mp-775005,1,0.0
Y4Mn13Si2(SbO14)2,0.9658,-2.5045280967980292,mp-1044607,1,1.0
KSbWO6,2.8241,-2.149047612472221,mp-1223347,1,4.0
Na(MoO2)3,0.0,0.395278647862068,mp-1213541,1,0.0
FeBPbO4,2.1228,-2.08582655488095,mp-20028,1,3.0
LiMn7O12,0.0,-1.951754650817527,mp-770641,1,0.0
Lu2CoTe2(SO7)2,3.098,-2.353736057698412,mp-1190475,1,4.0
Na2CaFe2(PO4)3,0.2896,-2.616599863084359,mp-1210671,1,0.0
MgVCrO4,1.8579,-2.672792599285713,mp-1221990,1,2.0
Rb2WSO4,0.350099999999999,-1.468562470312499,mp-1219664,1,0.0
CrC7N2O5,0.1382,0.052838206666665,mp-565390,1,0.0
Sm3Ti4CoO14,0.0,-3.34838820219697,mp-1219208,1,0.0
Li2Mo(PO3)5,3.5063,-2.575388232168737,mp-540310,1,5.0
Na3PrV2O8,3.7323,-2.652042132557472,mp-1211038,1,5.0
Er2NiRuO6,0.0,-2.672538971499999,mp-1212954,1,0.0
Ba2Nd2Fe4O11,0.0,-2.561513236842106,mp-704634,1,0.0
Li2Ti2Fe3O10,0.2025,-2.3443336596078432,mp-762700,1,0.0
Ba2SmMnO6,0.0,-2.783816058293104,mp-1519192,1,0.0
Fe3H9S2O15,1.955299999999999,-1.542498014181034,mp-1224975,1,2.0
ZnCu3(WO3)4,0.0,-1.5448030165,mp-1043315,1,0.0
Tl3Mo4(P2O11)2,1.0921,-2.220034747456711,mp-1208648,1,1.0
Na14Ni2O9,1.632399999999999,-1.391473318972413,mp-764496,1,2.0
Na2MnH4(SO5)2,4.2231,-1.86434568345735,mp-1196197,1,6.0
Ca3MnS2O17,0.0,-1.4366882394752631,mp-1182615,1,0.0
CsFeH24(SO10)2,2.8673,-1.4511506937428151,mp-746702,1,4.0
AlFe3(SiO4)3,1.977,-2.429344390131579,mp-1250723,1,2.0
CaCrF6,1.5339,-3.29080727,mp-557519,1,2.0
Ta2Zn2WO8,0.5225000000000001,-2.424497761128205,mp-1046251,1,0.0
Mn7(AsO4)6,0.0,-1.85290658136533,mp-1203032,1,0.0
MnGaH4O2F5,3.0199,-2.182507244648541,mp-510638,1,4.0
FeSn3(PO4)6,0.0,-2.302721484789916,mp-772015,1,0.0
Li3V(SO4)3,0.0,-2.132523662763158,mp-772425,1,0.0
BaNb2CrO6,0.0,-2.713847554999999,mp-1519828,1,0.0
Ca3FeRhO6,0.8859,-2.460654356818181,mp-18843,1,1.0
Li9(CoO4)2,0.678299999999999,-1.851754422368421,mp-776979,1,1.0
TmCoO3,1.188599999999999,-2.637331035000001,mp-561954,1,1.0
Fe3Ni2Te(PO4)6,0.074999999999999,-2.203983788736772,mp-774923,1,0.0
Cr2Fe3Te(PO4)6,0.0,-2.299496415958994,mp-775014,1,0.0
Li2V3FeO8,1.2138,-2.346177711726191,mp-773482,1,1.0
Li2Mn2P2O7F2,3.073099999999999,-2.641869716620964,mp-770546,1,4.0
VCdPO7,0.473,-1.924100013964285,mp-1190083,1,0.0
MgFe2(ClO)2,1.4053,-1.654375060714285,mp-2242040,1,2.0
Ba2NdVO6,1.6381,-3.081399561749999,mp-1520908,1,2.0
Fe2S2O13,0.0,-0.908599169411764,mp-1200296,1,0.0
BaSrCr4O12,0.0,-1.902189903888889,mp-1517417,1,0.0
NaFe5O8,1.6739,-1.649200759205665,mp-1101666,1,2.0
Mn5Pb(SO4)6,4.1724,-2.025453528740422,mp-558292,1,6.0
BaLuCo4O7,0.8084,-2.093047877243591,mp-1200479,1,1.0
Ti3Mn3Cr2O16,0.849,-2.40406810849138,mp-756780,1,1.0
Sr2MnSi2O7,2.8825000000000003,-3.209908774827586,mp-1191740,1,4.0
PWO2,0.0,-0.294887127410714,mp-1209820,1,0.0
K4MoO5,3.1685,-1.995610981233334,mp-1211821,1,4.0
Li2MnNiO4,0.2564,-1.908763394324712,mp-753347,1,0.0
NiH2SeO5,2.9949,-1.252521247204866,mp-23968,1,4.0
Ba2Ca3Mn4Tl2O12,0.0,-2.256045356451774,mp-1048549,1,0.0
MnH8SN2O4F3,1.5799999999999992,-1.456262002785843,mp-1203692,1,2.0
MgTi8(NiO3)8,0.0575,-2.483639849308943,mp-2220227,1,0.0
K3CoF6,2.898399999999999,-2.683251744175,mp-1111145,1,4.0
MnP3NO9,0.287,-1.921657600847114,mp-1210751,1,0.0
NpFe(OF2)3,0.0,-2.219615949886363,mp-1211370,1,0.0
Sr5Ca3TiMn7O24,0.0,-2.579888220221264,mp-1075976,1,0.0
Sr18Co14O45,0.375399999999999,-2.150840471103896,mp-1219118,1,0.0
W10O29,0.0,-2.166001550897435,mp-27732,1,0.0
LiMnF6,0.0,-2.363049628908046,mp-752752,1,0.0
SrCaNdMnO6,0.0,-2.752436584043104,mp-1518192,1,0.0
BaNaCrF6,4.3208,-3.459497335014367,mp-1214564,1,6.0
Na4Fe3P4O15,0.0977,-2.260659387272641,mp-1203835,1,0.0
CaSi2WO6,1.589,-2.689883142875,mp-1041992,1,2.0
Na2RhW3(SO4)2,0.0,-0.491227589547412,mp-1212157,1,0.0
Ca2LaGa(FeO4)2,1.7441,-2.673125279821428,mp-1227683,1,2.0
V3Cr3(TeO8)2,1.137199999999999,-2.065200514305555,mp-763835,1,1.0
Li3V5P7O29,0.8812000000000001,-2.605573772897727,mp-1177763,1,1.0
Sr2UFeO6,1.121399999999999,-3.175285625,mp-559166,1,1.0
Ni3Sb4(OF)6,3.04,-2.032984044999999,mp-1105117,1,4.0
KGdV4O12,0.5637000000000001,-2.554477307069444,mp-1521101,1,0.0
Ni5Te(PO4)6,0.0,-2.023284495125661,mp-850365,1,0.0
Sr2YMo2O7,0.0,-2.463729237916668,mp-1047328,1,0.0
Li3V5Cr2O12,0.417799999999999,-2.398673164090908,mp-754708,1,0.0
Li16Mn15Fe(PO4)16,3.4633000000000003,-2.621991179165934,mp-849382,1,5.0
TiMn5(PO4)6,0.4187,-2.5572843897457123,mp-2214853,1,0.0
Li5Co4(NiO6)2,0.164099999999999,-1.520749964202899,mp-760155,1,0.0
Na(WO3)3,0.0,-2.190923142798406,mp-1221403,1,0.0
Na2VF5,2.4549,-3.162678913749999,mp-1120790,1,3.0
KLi4FeO5,0.0,-1.776893787325758,mp-756561,1,0.0
Ba2Mn3O8,0.0,-2.042186511830238,mp-1048172,1,0.0
MgMn5O9F,0.956199999999999,-2.099953802165948,mp-2232792,1,1.0
Sr2Cr2O7,0.9242999999999992,-2.468616637954545,mp-886160,1,1.0
YCr2O4,0.0,-2.649898928571427,mp-1388393,1,0.0
Li3Mn4F15,0.0,-2.8370535366692793,mp-759518,1,0.0
CaCr3P3O13,1.244399999999999,-2.730038958696428,mp-1047869,1,1.0
NiMoO3,0.0,-0.763874613,mp-977100,1,0.0
SrSmFeSnO6,2.1723,-2.562616553,mp-1518521,1,3.0
Rb4Fe2O,0.0,0.5061568549999991,mp-1209469,1,0.0
Ba2MnMoO6,1.265399999999999,-2.6296567122931043,mp-20399,1,1.0
RbV(PO4)2,2.1013,-2.591635470565476,mp-559279,1,3.0
Li4Ti3V3(CoO8)2,1.244,-2.604187353333333,mp-777010,1,1.0
Li3VBPO7,2.2187,-2.654809729523809,mp-768575,1,3.0
BaSr7Ti6Mn2O20,0.0,-3.167006066690614,mp-1076196,1,0.0
ErMoBrO4,1.9042,-2.593221584999999,mp-1194158,1,2.0
AlMoO3,1.4177,-2.4467161835,mp-1373731,1,2.0
Tl4Mo5O17,2.5639,-1.8054557649359,mp-554919,1,3.0
ZrMnTlF7,2.3108,-3.348520544626437,mp-557434,1,3.0
Li9V4(PO4)6,0.009199999999999,-2.6464762522757472,mp-760985,1,0.0
HoCrGeO5,2.9071,-2.835782280625,mp-1212155,1,4.0
K2LiVF6,0.0,-3.118392679783333,mp-1111921,1,0.0
Li4Cr2Ni3Sn(PO4)6,2.004399999999999,-2.351174179654761,mp-778614,1,3.0
FeHg2C6S2(NO2)2,1.5555,-0.262341900441177,mp-1198947,1,2.0
Fe2H4NF6,1.6671,-1.907256567499999,mp-1212793,1,2.0
SrDy2Fe2O7,0.0,-2.709507847361109,mp-1218289,1,0.0
RbVO3,3.0572,-2.4096175575,mp-19031,1,4.0
KMg14FeO16,2.0092,-2.756997215226562,mp-1035697,1,3.0
V2Sn(PO4)3,0.0,-2.5461022829960323,mp-850780,1,0.0
MnSiO4,0.0,-2.044731995627395,mp-1249486,1,0.0
Ba2Sr6Ti7MnO22,0.0,-3.353015755559587,mp-1246044,1,0.0
Li4Ti3V3(WO8)2,0.136899999999999,-2.669590014404761,mp-768668,1,0.0
NiSn3(ClO)6,0.023099999999999,-0.9427082534375,mp-1211345,1,0.0
KCoO3,0.0,-1.021574084449999,mp-1184947,1,0.0
Ta4Mn2Zn3O16,1.5191,-2.6648829522078152,mp-1378479,1,2.0
Mn(ReO5)2,0.0,-1.621453538687002,mp-1103967,1,0.0
UBi4WO12,0.8135000000000001,-2.164270105,mp-1216293,1,1.0
Li2CrCuO4,0.0,-1.9004155083333332,mp-754778,1,0.0
Ca3Fe4(MoO4)6,1.3464,-2.156451184864865,mp-1043101,1,2.0
CaDy(NiO3)4,0.0,-1.066182800092592,mp-1520698,1,0.0
Li5Cr3(PO4)4,2.168199999999999,-2.63333872197279,mp-1222580,1,3.0
KFe(SeO3)2,2.2925,-1.56972896944375,mp-654225,1,3.0
ZnCuW2O7,0.630999999999999,-1.6547390672727271,mp-1328687,1,0.0
LiMn4(BO3)4,0.0,-2.381375863415434,mp-850920,1,0.0
Ti6Fe(BiO3)9,0.0,-1.566593552441861,mp-1217937,1,0.0
MgFeAuO2,0.0,-1.363684186999999,mp-2227022,1,0.0
Li4Ti5Cr3O16,0.0,-2.9503441125,mp-777464,1,0.0
NaSrZrWO6,0.0,-2.857939619137931,mp-1519119,1,0.0
Zn3Ni4(SbO6)2,1.1224,-1.658493511190476,mp-1216023,1,1.0
Te2W(NO4)2,0.2703,-0.8423587094871791,mp-1193353,1,0.0
MnHg3F6,0.0,-1.860649764543105,mp-1207326,1,0.0
PrEuHfVO6,0.0,-3.324963372666666,mp-1520808,1,0.0
Na16W3(NO3)4,0.0643,-1.307860236059113,mp-1221537,1,0.0
RbHo(MoO4)2,3.6249,-2.549806155625,mp-1209629,1,5.0
CaMnAs2O7,1.5963,-2.201135154584639,mp-1042777,1,2.0
Mn2ClO3,0.280999999999999,-1.704430002227012,mp-1190593,1,0.0
VPPb3O8,3.0205,-2.158165051126373,mp-1216362,1,4.0
NbV3Cu2(PO4)6,0.0,-2.503698217996032,mp-766010,1,0.0
NaNiP2HO7,4.2632,-2.293797268354029,mp-726198,1,6.0
CoSb2S2(OF3)4,3.1386,-2.298663042857144,mp-562774,1,4.0
Na2CoO3,0.0,-1.514713897543104,mp-777786,1,0.0
BaU2V2(HO3)4,0.0,-1.94532751297619,mp-1215083,1,0.0
Co2Te3O8,2.4813,-1.474494457692308,mp-18855,1,3.0
ZnCoF6,0.6667999999999991,-2.1022106062500012,mp-1392030,1,1.0
Li3Co13O16,0.0,-1.350832270625,mp-867584,1,0.0
VCr2O6,0.0,-2.213218027777777,mp-1101261,1,0.0
LiFeSO4F,1.3691,-2.187057849166667,mp-943492,1,2.0
Li4V3Cr3O12,1.1798,-2.407101120151516,mp-849340,1,1.0
Ba8Mn8O21,0.8045,-2.492860230768872,mp-694888,1,1.0
Na6Co2B4SO16,0.151599999999999,-2.146569876118707,mp-780413,1,0.0
Mg30CoNiO32,0.0,-2.91299573109375,mp-1037175,1,0.0
Ni(BO3)6,0.1089,-0.924327425799999,mp-1202601,1,0.0
MgNb2V2O8,1.0547,-2.741247195,mp-2227321,1,1.0
SrMg30MnO32,2.827,-2.965970750748922,mp-1038040,1,4.0
K3Mn3H2C12O13,1.8941,-0.8646426491073671,mp-728768,1,2.0
Cs2Mo3SeO12,2.4983,-1.968016867869673,mp-18353,1,3.0
Ca8Mn8O23,0.0,-2.500125801434571,mp-1247706,1,0.0
Rb2W(OF2)2,3.1963,-2.681892906111111,mp-1219649,1,4.0
Pr2Te(Mo3O23)2,0.1139,-0.8413383727272731,mp-1221745,1,0.0
CdFeSn(PO4)3,0.0,-2.382031356051586,mp-684826,1,0.0
Li3Fe3TeO8,1.274699999999999,-1.833428953111111,mp-772334,1,1.0
K(MoO2)4,0.3487,-1.989601362096154,mp-504907,1,0.0
Ho(MoO3)2,0.9817,-2.4840094105555552,mp-1041198,1,1.0
V5O9,0.5147,-2.496833639107143,mp-542334,1,0.0
Li4Mn3Cr3(SnO8)2,0.0,-2.208629169183087,mp-776096,1,0.0
FePO4,1.3564,-2.351585960357142,mp-753395,1,2.0
CoSb2Br2O3,1.595799999999999,-1.4610845953124991,mp-550763,1,2.0
Na8V2O7,0.442099999999999,-1.842296578002028,mp-777227,1,0.0
CrP2H14(NO3)3,3.7499,-1.408661044027093,mp-720256,1,5.0
Rb5Fe3(SO5)6,0.1034,-1.575666437329545,mp-863290,1,0.0
Ce2W4S3O14,0.0026,-1.432663565978259,mp-1215148,1,0.0
Cs2FeO4,0.0,-1.439120684187192,mp-17443,1,0.0
LiFe2Si2O7,2.013,-2.509797227152777,mp-780866,1,3.0
K2Mo7O20,0.0,-2.030170302741378,mp-557167,1,0.0
Co21Cu3O32,0.017,-1.290592405535713,mp-757299,1,0.0
SrMoO3,1.3088,-2.596938715999999,mp-1542758,1,1.0
MgWOF4,0.0,-2.942568002857142,mp-2225303,1,0.0
NaYMnWO6,2.7563999999999993,-2.673562475431033,mp-1105401,1,4.0
La5V3S6O7,1.048599999999999,-2.761322732857142,mp-650816,1,1.0
Ca4Ni5(TeO6)3,1.817,-1.9437620406666651,mp-1046817,1,2.0
MnSb3(PO4)4,0.0,-2.295421877770936,mp-754886,1,0.0
MoF5,0.9911,-2.631161137083333,mp-504759,1,1.0
CoH6(SeO4)2,2.327899999999999,-1.216679825128676,mp-744574,1,3.0
Li4MnCu3(PO4)4,0.0,-2.291769255351278,mp-753744,1,0.0
NaLaVSbO6,0.0,-2.496047611637931,mp-1519706,1,0.0
Rb2Mo(CO4)2,0.8773000000000001,-1.5347607621153831,mp-1202471,1,1.0
Y2Mo(SeO4)3,2.9162,-2.244226930390623,mp-1204562,1,4.0
Na3Mg(CoO2)5,0.7888000000000001,-1.460002980480944,mp-2231249,1,1.0
LiFe2F7,3.1449,-2.739210143333333,mp-776692,1,4.0
VH4C4O6F,1.6558000000000002,-1.360194960625,mp-1207872,1,2.0
Co2Br3N7O2,0.0,0.853774716785713,mp-1194559,1,0.0
NdMnPO,0.0,-1.871686902518472,mp-19826,1,0.0
Li5Ti2Mn3O10,1.2347,-2.5980000256063223,mp-1311067,1,1.0
LiV2BO5,1.5331,-2.624064152500002,mp-770361,1,2.0
CrRhO3,0.0,-0.7593999869999991,mp-1183719,1,0.0
Li3Nb2Fe3O10,1.626399999999999,-2.325701104444445,mp-753638,1,2.0
PrGdTiVO6,0.4073,0.307991167249999,mp-1518028,1,0.0
Cr9(PO4)8,0.0,-2.465759808309037,mp-26164,1,0.0
Nd2P3H5WO9,2.488,-1.974796542508927,mp-1212504,1,3.0
La2Te6WO18,2.6468,-2.096294097592592,mp-1223414,1,3.0
Mg14MnAlO16,0.0,-2.891239595872845,mp-1036650,1,0.0
V2Ni(TeO5)2,0.8779999999999991,-1.8524438802222232,mp-559589,1,1.0
Li2MnAl2O6,1.9674,-2.679661604963427,mp-770689,1,2.0
SrLiVPO6,1.974599999999999,-2.842732017047619,mp-759976,1,2.0
AlCr3O6,1.408699999999999,-2.55627214925,mp-1048826,1,2.0
Sr8MgMn6O20,1.091399999999999,-2.568370213788177,mp-2216785,1,1.0
NpCo(N3O4)2,0.024299999999999,-0.8745274252343751,mp-1198186,1,0.0
La2MgNiO6,1.364099999999999,-2.8133004534999992,mp-1391671,1,2.0
Zr9VO20,1.714,-3.620520510000001,mp-759463,1,2.0
Zn2Ni2O5,0.0,-1.050918347777777,mp-1366467,1,0.0
ZrCrF6,2.6153,-3.59337900125,mp-2459069,1,3.0
Sb3P6WO24,0.191399999999999,-2.343831983466385,mp-775210,1,0.0
Cr3HO8,0.0,-1.539094940104166,mp-602355,1,0.0
Na2TiFe5(Si3O10)2,2.3118,-2.705201170326233,mp-557596,1,3.0
Li6Mn5O12,0.7128000000000001,-2.10174843541979,mp-779719,1,1.0