formula,bg,formation_energy,mp-id,fidelity,bg_category
Fe10O11,1.4714999999999991,-1.490957769047618,mp-705555,1,2.0
Li2Cr(PO3)8,0.0,-2.39968989582313,mp-540219,1,0.0
Ca3CoRhO6,0.024499999999999,-2.366588375909091,mp-1666380,1,0.0
Mn7CdO12,0.0,-1.88686250027586,mp-1105241,1,0.0
LiVP2(HO4)2,2.0157,-2.41343340465136,mp-753087,1,3.0
K4Na4Mo5(WO8)3,0.593,-2.126276935112931,mp-1099727,1,0.0
RbAlV(PO5)2,0.555199999999999,-2.578451161952379,mp-1203689,1,0.0
LiV2CoO6,0.8946000000000001,-2.090533908333333,mp-761801,1,1.0
Ca3Co3(AsO4)4,2.4163,-2.129949244807693,mp-1047370,1,3.0
CoH8C4(NO2)3,0.0,-0.7581672193181811,mp-1226766,1,0.0
Na3Co2SbO6,0.8215000000000001,-1.781557512011494,mp-19087,1,1.0
Li2Co2(CO3)3,2.7725,-1.793386191979166,mp-757737,1,4.0
TmCrO4,0.2142,-2.789211074166669,mp-22647,1,0.0
MgCo2(PO5)2,0.059499999999999,-2.001303121619047,mp-1044011,1,0.0
Ho2MgMo2(ClO4)2,1.7095,-2.659814385666665,mp-2227083,1,2.0
Ni(ClO3)2,0.0,0.128270121111111,mp-1084850,1,0.0
CrPbO4,2.0522,-1.724381490833334,mp-19146,1,3.0
Li3Mn4SbO8,0.0,-2.04497998885776,mp-756607,1,0.0
MnV4CrO12,0.2117,-2.311231840440611,mp-756885,1,0.0
Sr3Ca5Fe5(CoO8)3,0.0,-2.097182527,mp-1076802,1,0.0
CsK2MoF6,2.8022,-2.842407379415517,mp-1112308,1,4.0
LiNbTe2WO12,1.9943,-1.991402705686274,mp-752611,1,2.0
Li2V4CuNiO12,0.0258,-2.102731415333334,mp-1177805,1,0.0
LiMn4P7O24,0.9861999999999992,-2.489357183265486,mp-1101573,1,1.0
Sr2MnCrO6,0.0,-2.5172899022931032,mp-1218765,1,0.0
Rb3TbV2O8,3.3869,-2.713767508511899,mp-1209304,1,5.0
BaPrFeCuO5,0.0,-2.417477052962962,mp-1206136,1,0.0
FeAs2S4(O2F3)4,3.2335,-2.000691819629629,mp-1204738,1,4.0
FeB2P2(HO4)3,2.3365,-2.109502606568453,mp-1202257,1,3.0
BaCaCr4O8,0.0,-2.254842323571428,mp-1044468,1,0.0
Li4Ti2Fe3O10,1.4303,-2.445688105526316,mp-759041,1,2.0
Ni9Te5(PbO5)6,1.9839,-1.472855097166665,mp-1204674,1,2.0
ErTl(MoO4)2,3.252,-2.378769512986113,mp-1213125,1,4.0
TlVTeO5,1.985399999999999,-1.82178352375,mp-639714,1,2.0
ScVO3,1.5605,-3.202248177500001,mp-756546,1,2.0
Ba3ErMn2O9,0.0,-2.755539548724138,mp-555498,1,0.0
Cr3(NiO6)2,0.0108,-1.358177252794117,mp-776211,1,0.0
MoO4,0.498,-1.070325381,mp-1180203,1,0.0
CoReO4,0.0,-1.671448755416667,mp-28783,1,0.0
FeH12C5NCl2O5,1.7834,-0.749827814230768,mp-1203520,1,2.0
BaNd2MgMn2O7,0.938299999999999,-2.6608836092970822,mp-2218912,1,1.0
SrEuZrCrO6,0.0,-3.131043038499998,mp-1518073,1,0.0
BaYMnCoO5,0.1871,-2.594455076992337,mp-1277516,1,0.0
NbFe3Co2(PO4)6,0.0,-2.377554413551586,mp-758381,1,0.0
Ba8Sr3Ca(WO6)4,3.434,-2.98017458925,mp-1228515,1,5.0
Li4Co3Ni(PO4)4,2.5875,-2.363727572210885,mp-770952,1,3.0
Na3VBAsO7,2.2697,-2.285387788523431,mp-755361,1,3.0
Li2CrH8Cl5O4,2.8872,-1.478242029833332,mp-770676,1,4.0
Li3Mn7O16,0.0,-1.886640759058356,mp-770710,1,0.0
Li4CrFe3O8,1.897299999999999,-2.057254102083333,mp-768701,1,2.0
Al3Co(PO4)4,1.6574,-2.800954206711309,mp-1215069,1,2.0
V2Se2O11,2.1812,-1.575888708979166,mp-972384,1,3.0
Li4CrCo5O12,0.163899999999999,-1.6554769937878782,mp-771079,1,0.0
VBP2H5NO9,2.1173,-2.07054531801065,mp-24710,1,3.0
Li5Mn2Cu5O12,0.0,-1.566203557188697,mp-764735,1,0.0
MgMo3O7,1.1033,-1.854838875681817,mp-1349418,1,1.0
HgMoO4,2.2557,-1.5400649545833351,mp-19363,1,3.0
Fe3CoCu2(PO4)6,0.0,-2.064893238829365,mp-757713,1,0.0
SrV3O7,2.5494,-2.710209818636364,mp-510725,1,3.0
Li3V3O3F5,0.8607,-2.819509238571429,mp-759089,1,1.0
Li8VFe7(PO4)12,0.0,-2.453703816083958,mp-758577,1,0.0
NaFe(GeO3)2,1.5846,-2.045677166637932,mp-22614,1,2.0
KNa(WO3)2,0.0,-2.12373263886293,mp-1076224,1,0.0
Ni2PO5,0.0,-1.840905112455356,mp-755058,1,0.0
Li3Cu2(WO4)4,0.0,-1.972782908,mp-25293,1,0.0
YCu3(WO4)6,0.0,-1.876730294852941,mp-1329989,1,0.0
Li5Co2Cu2(PO4)4,0.0,-2.283767983628899,mp-764926,1,0.0
Li4Ti2Mn3Cr3O16,0.6505999999999991,-2.490164277992611,mp-770152,1,0.0
InFe11O16,0.0,-1.600668069880952,mp-759922,1,0.0
Sr3La7Ti2Mn8O30,0.0,-3.058594086902299,mp-694976,1,0.0
MnCu(CO3)4,0.3609,-1.122459494607279,mp-1222244,1,0.0
K2Be2Ni(O3F4)2,0.5479,-1.558878780763158,mp-1200199,1,0.0
CoPH21N5O7,0.6912,-0.9898184440969392,mp-775736,1,1.0
CaLaCrFeO6,0.0,-2.736746545499998,mp-1043895,1,0.0
MnH6(OF)3,1.5208,-1.745661282725463,mp-735521,1,2.0
Na5Tb(WO4)4,4.8887,-2.3934620139832012,mp-19463,1,7.0
Sr2Cu2NiO7,0.0,-1.51091968375,mp-1044112,1,0.0
Rb2LiMnF6,0.0,-2.9487951146264373,mp-1113711,1,0.0
V12CoH24C8(NO16)2,0.3802,-1.267808634430379,mp-1201666,1,0.0
LiNi5O5F,2.436,-1.482855701944444,mp-753465,1,3.0
Li5Mn2Fe17O32,0.9062999999999992,-1.753033100045156,mp-775411,1,1.0
MgMn2(GeO3)4,0.8586,-2.143820819519057,mp-2231275,1,1.0
Li2V2P2O9,1.731999999999999,-2.619033684730159,mp-758541,1,2.0
La3Ni4(P2O)2,0.0,-1.075634991043955,mp-1210896,1,0.0
KMgNiIO6,2.3441,-1.619848181725,mp-2222843,1,3.0
Ti3CrCu2(PO4)6,1.5183,-2.705528002440477,mp-775994,1,2.0
Mn2Co2O5,0.0,-1.20204872342912,mp-974861,1,0.0
Mn3AlO6,0.0,-2.280084986129311,mp-1045021,1,0.0
Mg30FeSiO32,1.851399999999999,-2.905951711875,mp-1037606,1,2.0
CrSb2H12(C2O)4,2.2893,-0.334606906666667,mp-698432,1,3.0
KCr12Si8BrO28,2.1822,-2.6219241420449992,mp-1223609,1,3.0
Li10Si2NiO10,2.6443,-2.415646886449274,mp-767066,1,3.0
BaSm(NiO3)4,0.0,-1.060384450833333,mp-1521346,1,0.0
VBiO3,1.297099999999999,-2.077773306,mp-756282,1,1.0
CoH20PtC4(NO3)4,3.026,-1.056065662023809,mp-1197411,1,4.0
NdFeC6(N3O2)2,1.642799999999999,0.162453090416665,mp-818675,1,2.0
VCuHPbO5,0.125999999999999,-1.7219994359722222,mp-505289,1,0.0
KZrVF7,2.4489,-3.569601635475,mp-554835,1,3.0
RbMgMn4O8,0.0,-2.013560603158868,mp-2227254,1,0.0
CrBiO5,0.098,-1.437625788392857,mp-728712,1,0.0
Ba3Fe2TeO9,1.701299999999999,-2.345328889111111,mp-1228445,1,2.0
KLiGd2(MoO4)4,2.9099,-2.513669500024306,mp-1211850,1,4.0
MgMnV4NiO12,1.574,-2.224530493312161,mp-2231564,1,2.0
RbLiV(PO4)2,2.0091,-2.623263224239926,mp-761134,1,3.0
SmMoO5,2.2979,-2.461695590714286,mp-1209026,1,3.0
BaMn9V6(HO13)2,2.1098,-2.28748378156544,mp-1194843,1,3.0
BaEr2CoO5,1.364299999999999,-3.162712931666666,mp-18746,1,2.0
Nd5Mo3O16,0.0,-3.0127984146875,mp-558671,1,0.0
VCu2HO5,0.049999999999999,-1.493371775416666,mp-1197678,1,0.0
Na3MoO4,1.3712,-1.9766602361422412,mp-1210288,1,2.0
Na3Li4Mn5O9,0.0,-1.859176814863164,mp-753127,1,0.0
La3NiW(SO2)3,0.0,-2.5793888276785712,mp-1193278,1,0.0
LiCe(WO4)2,0.1177,-2.623181658194445,mp-1211203,1,0.0
LaSmCo2O5,0.5165000000000001,-2.600562135833333,mp-1076759,1,0.0
V2Zn(PO4)2,1.4466,-2.429473843983515,mp-1041035,1,2.0
CaCd(WO4)2,3.1642,-2.310962862499998,mp-1227264,1,4.0
Eu2NiPtO6,0.0,-2.1518391055,mp-1212982,1,0.0
Li5Fe2Co3O10,0.0,-1.8053604555833331,mp-769566,1,0.0
SrPr(FeO3)2,0.0,-2.495576067666667,mp-1218069,1,0.0
MnH20C22(N5O3)2,0.957399999999999,-0.14760365843951,mp-1202611,1,1.0
Na2Mg5(MoO4)6,3.7513,-2.372518834263747,mp-1221409,1,5.0
Ca3Co2O7,0.174499999999999,-2.215158858333333,mp-1367827,1,0.0
SrFe2Se2O,0.0,-1.401487739947916,mp-1095252,1,0.0
Li2V2(PO4)3,0.0,-2.695738242005012,mp-849317,1,0.0
Mn16Bi16O45,0.0,-1.792044919505151,mp-1198549,1,0.0
Li4Ti3Mn3Cr2O16,0.0773,-2.6023725423973723,mp-771394,1,0.0
Li4Mn2Co3O10,0.026899999999999,-1.820022098378705,mp-778482,1,0.0
Rb2MgP2WO10,3.3881,-2.676908863627232,mp-561031,1,5.0
Li8Fe7Sn(PO4)12,0.0,-2.432886229570803,mp-777579,1,0.0
LuMn2O5,0.7359,-2.657710999066092,mp-542397,1,1.0
Mn2V3O12,0.0,-1.976086402109533,mp-849562,1,0.0
Mg30ZnCrO32,1.6493000000000002,-2.95244807984375,mp-1037573,1,2.0
Li6Fe2O5F2,1.9472,-2.208099643666667,mp-776572,1,2.0
BaTl(MoO3)2,0.0,-1.685853310833334,mp-1047046,1,0.0
HoMg(WO3)2,2.007,-2.550618318499999,mp-1041135,1,3.0
SrLaTaMnO6,2.742599999999999,-3.316988782276438,mp-684742,1,4.0
BaFeBP2O9,1.7888000000000002,-2.749762646675169,mp-1193185,1,2.0
BaNaCeFeO6,0.0,-2.436025611137931,mp-1519179,1,0.0
Li15Cr2O12,0.0,-2.064141583448275,mp-758530,1,0.0
Mg3Ni2(GeO4)3,0.181099999999999,-2.069685135374999,mp-1364008,1,0.0
Fe7(PO5)4,1.5842,-2.15698685672811,mp-690584,1,2.0
CoN5ClO4,0.2683,0.7638291602272711,mp-1201776,1,0.0
SrCoAsHO5,1.9987,-2.070111971527777,mp-1194871,1,3.0
Li3MnP2HO8,4.3354,-2.513076170397783,mp-775205,1,6.0
Li2V4Si4O13,2.0586,-2.76679714115942,mp-767720,1,3.0
KVSO9,0.6248,-1.114917467895835,mp-1211994,1,0.0
NaSmV4O12,0.133,-2.438386833687741,mp-1523362,1,0.0
V11Sb9O40,0.0,-2.206182076499999,mp-1100948,1,0.0
KLaZrFeO6,0.0,-2.731194154225001,mp-1519849,1,0.0
ZrNi5(BO5)2,1.4703,-2.062848308518518,mp-1215311,1,2.0
Ba3SrCo2Cu4(SO)4,0.0,-1.4899429249999991,mp-1228462,1,0.0
Li5Fe5(CoO6)2,1.4371,-1.778412174444445,mp-850359,1,2.0
Ca8Al3(FeO4)5,1.867999999999999,-2.782973514166665,mp-1227241,1,2.0
WBr4O,1.458,-1.0649816275,mp-32536,1,2.0
Fe2P2H4NO8,1.8033,-1.849390029222688,mp-1182833,1,2.0
Mn4(SiO3)5,0.398,-2.743063627571839,mp-1351269,1,0.0
K2Na2Mo3WO10,0.4965,-1.816314181444922,mp-1076891,1,0.0
V4Zn(CuO4)3,0.0,-1.8404753295,mp-1043184,1,0.0
Co(Mo3O17)2,0.014199999999999,-0.753184667439023,mp-1182727,1,0.0
CaFe2CoO7,0.0093,-1.542058967045454,mp-1338518,1,0.0
KNaMoWO6,0.209299999999999,-2.151015016112931,mp-1076659,1,0.0
Co3(AsO4)2,1.958699999999999,-1.5521458273076931,mp-562111,1,2.0
Nb2VZn2O8,0.9222999999999992,-2.52694661076923,mp-1046866,1,1.0
CrH12N3O8,1.840799999999999,-0.578525143125,mp-1194835,1,2.0
LiMnCo3O8,0.0,-1.463165672404951,mp-756037,1,0.0
LiGd(MoO4)2,2.978399999999999,-2.494311470277779,mp-1210959,1,4.0
Li2Ni2H24C6(N4O5)3,4.2989,-0.873009959699453,mp-1223325,1,6.0
BaNbInWO6,0.0,-2.420012677666666,mp-1520199,1,0.0
MgMn4(FeO6)2,1.3099,-1.832728572459164,mp-2230040,1,1.0
KV13O20,0.631699999999999,-2.40293827697794,mp-768095,1,0.0
MgMnAs2O7,1.4717,-2.083152737311912,mp-1042773,1,2.0
ZnWO4,3.2609,-2.055167530000002,mp-18918,1,4.0
Eu2Fe2O5,0.0,-2.358959756111113,mp-861621,1,0.0
TiBi8W(BrO8)2,1.464699999999999,-1.934359229761905,mp-1217238,1,2.0
MgV8(PO4)12,1.230499999999999,-2.604391072184265,mp-2235195,1,1.0
MgCr2O7,2.3945,-1.850499542499999,mp-1342174,1,3.0
MgMn8(SiO3)10,0.408599999999999,-2.8020696944581283,mp-1234735,1,0.0
Ba3Cr2MoO9,0.0,-2.690746808999999,mp-557755,1,0.0
Sr7CaMn2(FeO4)6,0.0,-2.276893203396551,mp-1076597,1,0.0
Ti3Co3O,0.0,-0.533254015000001,mp-504734,1,0.0
V2Co2O7,1.8533,-1.992428717045453,mp-27156,1,2.0
SmMoBrO4,2.0128,-2.589357923928572,mp-1194049,1,3.0
NaCeV4O12,0.0,-2.496148788965517,mp-1523217,1,0.0
K3FeF6,4.1409,-2.90860409517499,mp-1111491,1,6.0
CaTb4Al2(FeO6)2,2.6212,-3.13735069126984,mp-1233037,1,3.0
Sb3WC6O6F17,2.888,-1.942327993636362,mp-699606,1,4.0
Li5MnO5,0.0,-1.987118803599791,mp-770101,1,0.0
Li5(NiO2)6,0.201399999999999,-1.39571041289855,mp-690572,1,0.0
Mg14CrSnO16,2.4312,-2.76046073828125,mp-1034441,1,3.0
Li4Ti3Cr3(WO8)2,0.0,-2.639841913690477,mp-754340,1,0.0
Sr2YCr2GaO7,1.0382999999999991,-2.765322910576922,mp-1046077,1,1.0
K2Mo3O10,3.3529,-2.100159429299999,mp-540788,1,5.0
PbWO2,0.0,-0.7318785949999991,mp-1210335,1,0.0
K3Mo2BrO7,3.089099999999999,-2.104648582057692,mp-557902,1,4.0
VZnP2PbO9,0.046499999999999,-2.366746454323979,mp-1198645,1,0.0
K3Mo4(P2O11)2,0.1643,-2.157484529100649,mp-818285,1,0.0
V2Fe3(SiO4)3,0.0,-2.48443526175,mp-21791,1,0.0
PrEuHfMnO6,0.0,-3.194883035459771,mp-1522235,1,0.0
LiNi4(P2O7)3,0.0,-2.128885206755952,mp-779757,1,0.0
LiFe2OF3,3.056599999999999,-2.403546444047619,mp-776904,1,4.0
Li7Fe8(BO3)8,1.8478,-2.318966639716311,mp-1176890,1,2.0
FeF4,1.6505,-1.9570883979999991,mp-1396678,1,2.0
VZn2BiO6,2.7248,-1.9875375465,mp-1105584,1,4.0
Ca3Ti(FeO4)2,1.958899999999999,-2.831664266666667,mp-1227734,1,2.0
Co3SnC12ClO12,2.3171,-0.8417793899137931,mp-694189,1,3.0
GdVO3,0.0,-3.252683904,mp-541177,1,0.0
K5UCr3H3NO17,1.7000000000000002,-1.660263595416666,mp-1213511,1,2.0
Li2Al(NiO2)3,0.391899999999999,-1.917987695972222,mp-1302787,1,0.0
ZnCrFeO4,1.3234,-2.012926087142856,mp-1215793,1,1.0
Li2TiCr2O6,2.2356,-2.6303632045454552,mp-757086,1,3.0
MoCl4O,1.7247,-1.2801785633333331,mp-22974,1,2.0
NaNdMnWO6,2.2832,-2.6571764521810333,mp-20156,1,3.0
TlFe(SO4)2,2.070999999999999,-1.791656053194445,mp-1208045,1,3.0
Co2Bi11O20,1.050599999999999,-1.51251933030303,mp-690537,1,1.0
KV5NiO22,0.0502,-1.209858231974137,mp-1204947,1,0.0
Sr2FeCO3F5,1.8412,-3.094187293541666,mp-766474,1,2.0
Ca2MoWO6,1.550599999999999,-2.6614614210000003,mp-1347979,1,2.0
V3FeO8,0.390199999999999,-2.2386753125,mp-771199,1,0.0
Mg14MnCrO16,1.094799999999999,-2.880337177122844,mp-1036104,1,1.0
Li2Cr4Si4O13,1.4712,-2.66590274615942,mp-757512,1,2.0
Rb2CoO3,0.575299999999999,-1.459673444166666,mp-1277299,1,0.0
Na2VCoF7,2.3694,-2.875320869568966,mp-1180838,1,3.0
Sr4MgMn2(ClO3)2,0.0,-2.529073620057471,mp-2228751,1,0.0
Li3CuNi3O8,0.0,-1.320777778666666,mp-861850,1,0.0
Cr3Se2ClO8,0.4265,-1.581897012834822,mp-1048591,1,0.0
Mn3BO5,0.0,-2.274932117551085,mp-505442,1,0.0
Fe7(PO4)8,0.0,-2.189341627598784,mp-1178257,1,0.0
DyCu(MoO4)2,2.0132,-2.278202888993056,mp-15481,1,3.0
Li3Cu(NiO2)4,0.0,-1.376834824999999,mp-756169,1,0.0
HfCoO3,2.5156,-2.825757570999999,mp-753534,1,3.0
Li13Mn2O9,0.0,-2.021926420174808,mp-764770,1,0.0
MgSc2V2O7,1.287699999999999,-3.023105921666667,mp-2218145,1,1.0
Li2Mn5(FeO6)2,0.4674,-1.955604972920087,mp-769550,1,0.0
NaZr2VF11,2.163,-3.727254019091953,mp-558441,1,3.0
Mo2H13CN3O13,2.5377,-0.7996762116015621,mp-1202350,1,3.0
Li2VCrP2(HO5)2,2.134899999999999,-2.46725768380291,mp-753660,1,3.0
FeSiP3O11,2.8712,-2.635087714933036,mp-541929,1,4.0
Rb2NiAgF6,0.0,-2.3363778946666662,mp-1110604,1,0.0
V3Zn(P2O7)2,0.450099999999999,-2.486861505162336,mp-1044206,1,0.0
FeAg(SeO3)2,1.179,-1.247794580885416,mp-704626,1,1.0
MgMn2(SiO3)4,1.0387,-2.857189015308531,mp-2230268,1,1.0
MgCo2(AgO3)2,0.6367,-1.177666993484847,mp-2217730,1,0.0
Li2TeWO6,3.640099999999999,-2.088061287333333,mp-1196881,1,5.0
K7Bi2P6(W2O17)2,0.2834,-2.431596407709567,mp-1212704,1,0.0
Li12Mn11Fe(PO4)12,3.6905,-2.6187593036066152,mp-775195,1,5.0
Na2CeFeO6,0.0,-1.990470062275861,mp-1522277,1,0.0
LaCoO3,0.9497,-2.599926138,mp-1288145,1,1.0
Na3TiFe3O8,1.7711,-2.133860237831417,mp-1221213,1,2.0
CaNdCrO4,0.0,-3.148038119642856,mp-1227175,1,0.0
Li5W2O7,2.1295,-2.210054734404761,mp-1192707,1,3.0
YV3O9,1.3534,-2.5753199125,mp-1350084,1,2.0
BaYMgCrCuO5,0.0,-2.344295948,mp-2242141,1,0.0
NiH8(ClO2)2,4.3162,-1.234650515833332,mp-1220246,1,6.0
Sr3Fe2RuO9,0.0,-2.244272596333334,mp-1218474,1,0.0
Mg2VSbO6,1.186,-2.495816925000001,mp-1345395,1,1.0
Na2MnAgF6,0.0,-2.432016140235632,mp-1111324,1,0.0
Mn3P4H2(PbO8)2,3.4619,-2.361025251846835,mp-1196132,1,5.0
CaCo2(PO4)2,2.5259,-2.519168275714286,mp-1333984,1,3.0
Li9Fe3(WO4)7,0.0,-2.15181139574468,mp-772992,1,0.0
YbAg(MoO4)2,0.0,-2.367716986666664,mp-1215591,1,0.0
CrFeCoO4,1.0128,-1.784393092857142,mp-1226366,1,1.0
MoAsO5,1.787,-1.62034475892857,mp-1367924,1,2.0
CaVSi4O11,3.3626,-3.142063993529411,mp-1196058,1,5.0
Zn3Mo2O9,3.1649,-1.892342381785715,mp-29461,1,4.0
Ca2BiWO6,1.8101,-2.554903193,mp-1375332,1,2.0
LiNiBO3,3.0381,-2.216087830138889,mp-755271,1,4.0
KPr(WO4)2,3.8769,-2.650703597409722,mp-1211425,1,5.0
Cs2V2H2O7,3.086299999999999,-2.152565817831564,mp-1204913,1,4.0
K2ZrFe(PO4)3,2.6176,-2.822916329654135,mp-1211889,1,3.0
Li4V3CrO8,1.9358,-2.467459280520833,mp-769611,1,2.0
CoP3H12NO7,3.2132,-1.14647264360119,mp-561736,1,4.0
Mn6Zn3O16,0.0403,-1.683007745903448,mp-772816,1,0.0
Mn3NbFe2(PO4)6,0.0,-2.464461403656952,mp-776208,1,0.0
Li3Mn3CrO8,0.0,-2.120279504252873,mp-1177699,1,0.0
Na3Ca18Fe(PO4)14,2.2236,-3.206018535099324,mp-725491,1,3.0
La5Sm3V2Cr6O24,0.9265,-3.070278395500001,mp-1099675,1,1.0
K2LiMoF6,4.4161,-2.996193935783333,mp-1110837,1,6.0
Ba2NiTeO6,0.0,-2.277184675666666,mp-19011,1,0.0
NaNiIO6,1.7121,-1.035657982931034,mp-545399,1,2.0
Zn(MoO2)2,0.0,-1.7794806849999991,mp-1386665,1,0.0
Li3Cr(CoO2)4,0.0,-1.6652934787499991,mp-756763,1,0.0
MnH7C4N3O7,2.7594000000000003,-1.095367565303683,mp-1211657,1,4.0
U2WO8,0.0365,-3.13911347590909,mp-1208272,1,0.0
SrV(PO4)2,1.7975999999999992,-2.818742610148808,mp-1046421,1,2.0
Na2ZnFeF7,2.9496,-2.785228429568965,mp-15548,1,4.0
UCr4(H3O4)6,2.3974,-1.5213145071808511,mp-1204339,1,3.0
Sr2V3Se5O18,2.564899999999999,-2.023330669079242,mp-1197632,1,3.0
DyMgCu(WO4)2,1.679199999999999,-2.439466652820512,mp-2219016,1,2.0
Gd6Mo10O39,2.6567,-2.559868015272726,mp-1195215,1,3.0
Co4Sn(CO)16,2.1326,-0.8081155144594591,mp-562267,1,3.0
K5U4VS4O33,0.3546,-2.315744923749998,mp-1197655,1,0.0
Li2CrP4O13,0.1795,-2.546215657011905,mp-31739,1,0.0
Mn2SnC9BrO9,2.2137,-0.7612398729937301,mp-704550,1,3.0
GdAg(WO4)2,2.8117,-2.360401465555556,mp-1212867,1,4.0
KLiTb2(MoO4)4,3.3146,-2.528865176621529,mp-1211713,1,4.0
Si(NiO2)2,0.0,-2.114110612142857,mp-19072,1,0.0
La7SmTi3V5O24,0.0,-3.318808911,mp-1076581,1,0.0
Li6Ni2P(CO4)4,0.0,-2.041340426366996,mp-770626,1,0.0
BaFe2Si2O7,0.0,-2.7611882820833342,mp-1214455,1,0.0
SrMnSnWO6,1.4639,-2.258981318293102,mp-1519598,1,2.0
Li3Co2P2(O4F)2,0.175099999999999,-2.4107726402521013,mp-759682,1,0.0
CaFe6(OF2)4,1.813199999999999,-2.333125908421053,mp-1233207,1,2.0
Li3Fe3(OF)4,1.7811,-2.331221922857143,mp-755182,1,2.0
SrSmCoO4,0.6552,-2.715957714999999,mp-1217761,1,0.0
Ti3FeSb2(PO4)6,0.0,-2.6639641391071422,mp-776760,1,0.0
Cs2Mg(MoO6)2,0.5464,-1.36199061025355,mp-1203205,1,0.0
Sr4MgFe2(SO3)2,1.1753,-2.388072563333333,mp-1048638,1,1.0
Ba6Na2Mn2Nb2O17,9.999999999976696e-05,-2.738179471504162,mp-1214806,1,0.0
Mn2H2SO5,3.4249,-1.726070413336207,mp-1199375,1,5.0
NiAsO4,0.0,-1.277531324583333,mp-510749,1,0.0
BaNdMn2O5,0.0,-2.756928560929119,mp-546665,1,0.0
Mn5Co(PO4)6,0.0,-2.331133552708675,mp-771641,1,0.0
KMn2Zn3(Si2O5)6,0.0048,-2.933404789648168,mp-1260941,1,0.0
Ca3Fe4(WO4)6,2.0851,-2.211236309189188,mp-1043059,1,3.0
SrMg30VO32,1.8598,-2.9711245765625,mp-1036758,1,2.0
PrEuMnWO6,0.0,-2.59667588745977,mp-1518265,1,0.0
K2MoCl5O,2.767,-1.844305683555556,mp-559914,1,4.0
Ca2MnNiO6,0.0,-1.991806332293104,mp-1326305,1,0.0
Te7WBr5O,0.5302,-0.5712287160119041,mp-1198792,1,0.0
Be3Si3(NiO6)2,0.0,-2.512778453374999,mp-1048097,1,0.0
V3(PbO3)4,0.0,-2.045763886842105,mp-1208010,1,0.0
Mn2SnC9ClO9,2.3329,-0.791802968561914,mp-699647,1,3.0
Mg5Mn3Zn4(SiO6)4,0.0,-2.435088941219828,mp-1222211,1,0.0
Li2VSiO5,2.3621,-2.7659651535185192,mp-18860,1,3.0
CaEuV4O12,0.0,-2.551069454166667,mp-1518420,1,0.0
Zn5Co19O32,0.0,-1.449441651071429,mp-861852,1,0.0
FeF2,1.6921,-2.590574678333332,mp-556911,1,2.0
Mn(IO2)2,0.0,-0.8113150632758621,mp-1104590,1,0.0
CaEuMnCoO6,0.0,-1.172503775043104,mp-1522194,1,0.0
Ca3V2(Si2O7)2,0.144299999999999,-3.202818127173913,mp-1171437,1,0.0
TlV2AgO6,2.153299999999999,-1.896817975,mp-18853,1,3.0
Cs6Co2O7,1.1644,-1.46827028886207,mp-773199,1,1.0
Na9Fe2P4HO18,2.4284,-2.399109261683389,mp-1173859,1,3.0
V2Cd(P2O7)2,1.980199999999999,-2.60172714707483,mp-19452,1,2.0
Na4TeMo6H40(NO20)2,3.4168000000000003,-1.463914497657891,mp-1182759,1,5.0
Ba5Y8Mn4O21,1.5582,-3.248099350966425,mp-1199104,1,2.0
Li3CrFe3O8,0.5899000000000001,-1.933464951333333,mp-754939,1,0.0
Mg4Ni5(TeO6)3,1.8977,-1.873198462333333,mp-1046508,1,2.0
Mn2BrO3,0.0,-1.600250110977011,mp-1190924,1,0.0
Mn7Zn4Si2(AsO12)2,0.2096,-2.037539623731211,mp-1196244,1,0.0
MgTiMnV4O12,1.1576,-2.585247596645493,mp-2231994,1,1.0
Li5Co2(PO4)3,2.7403999999999993,-2.450207194231602,mp-780435,1,4.0
Li2Mn5(CuO6)2,0.0663,-1.737028891729611,mp-849474,1,0.0
Li3Cr4O8,0.748499999999999,-2.31575317,mp-768634,1,1.0
NaCr4O8,0.0,-2.10426133856764,mp-760012,1,0.0
Ba2YW3O7,0.0,-2.055476187307692,mp-1048468,1,0.0
Ti4Fe(PO4)6,2.3278,-2.956596792462584,mp-554569,1,3.0
Fe2Cl6O5,0.560099999999999,0.065202480192307,mp-1201978,1,0.0
CoCuO2,0.0645,-0.9799229074999992,mp-504711,1,0.0
Rb2LiFe(MoO4)3,2.6718,-2.088642553070176,mp-1198160,1,4.0
La2MnVO6,0.0,-3.158837756293104,mp-560369,1,0.0
Ta2MnZn2O8,1.8718,-2.678555380969054,mp-18369,1,2.0
Co5NiO12,1.146199999999999,-0.9964323888888892,mp-773511,1,1.0
Li24MnCr11O36,1.004,-2.230378456082376,mp-1178077,1,1.0
SrNdCoSbO6,0.0,-2.40408852975,mp-1523202,1,0.0
Rb3CrF7,1.4829,-2.943012476136363,mp-20919,1,2.0
ZnCo2P2O9,0.0,-1.968338326198979,mp-1041038,1,0.0
NaEr(MoO4)2,3.202099999999999,-2.5115786884482763,mp-1221047,1,4.0
SrNdFeO4,0.494299999999999,-2.853686715357143,mp-1218098,1,0.0
KLaNbNiO6,0.0,-2.525545193224999,mp-1520198,1,0.0
CrAg3F6,0.2042,-1.861633889499999,mp-1206806,1,0.0
K10MgMo7O27,3.7192,-2.217948739944446,mp-555868,1,5.0
BaTeMo2O9,3.0136,-2.150919276858974,mp-1203413,1,4.0
Ca2VP3H4O13,2.076,-2.571491697344721,mp-1200888,1,3.0