formula,bg,formation_energy,mp-id,fidelity,bg_category
Li2Ti(CoO3)2,0.9104,-2.109930225454545,mp-753110,1,1.0
Mg6MnCO8,2.522,-2.266239073308189,mp-1032752,1,3.0
Mn7P6(HO6)4,3.424499999999999,-2.382486493131082,mp-729046,1,5.0
Ca(MoO2)4,0.0,-2.034961632307693,mp-1044218,1,0.0
UCd(MoO4)4,2.0026,-2.220085507727272,mp-1208009,1,3.0
K2MoHOF5,3.275299999999999,-2.356799902574999,mp-1211865,1,4.0
Li4Mn3Cu3(SbO8)2,0.0,-1.773744931683088,mp-775279,1,0.0
Sr3Ca(FeO3)4,0.0,-2.211153925,mp-1094055,1,0.0
Li2V3CrO8,1.110199999999999,-2.487203856190476,mp-1302892,1,1.0
SrCaDyVO6,1.6157,-3.100331614166666,mp-1517733,1,2.0
Li5NiO4,1.898299999999999,-1.825500981916666,mp-771876,1,2.0
BaCaEuWO6,0.1995,-3.005478443500001,mp-1520996,1,0.0
V3MoO6,1.0915,-2.328854931000001,mp-1216518,1,1.0
LiFe2OF5,2.2883,-2.567205798703703,mp-755843,1,3.0
Li3V24O58,0.9363,-2.340348043294118,mp-1177621,1,1.0
Ni2ClO3,0.0,-0.7184786700000001,mp-1190465,1,0.0
Li4Mn3Fe3(TeO8)2,0.1232,-1.889544721444992,mp-757691,1,0.0
Na3Mg2(WO4)3,1.987099999999999,-2.313746582956896,mp-1210564,1,2.0
Ca2Fe2O5,0.8630999999999991,-2.456190248055555,mp-22113,1,1.0
Cs2VAgF6,0.0,-2.736490122166665,mp-1112639,1,0.0
NaCa3Fe4(SiO3)8,1.489099999999999,-2.936675876284482,mp-1173734,1,2.0
YFeF5,2.8958,-3.501270193571429,mp-1405645,1,4.0
Li3Fe2P4HO14,4.084799999999999,-2.440290853742558,mp-753272,1,6.0
Ba3Fe8Sn3O20,0.0429,-1.966840186617647,mp-1214965,1,0.0
CeMnSbO,0.0,-1.776625294482758,mp-510487,1,0.0
TiFeO4,0.0,-2.3577933930555552,mp-754900,1,0.0
K2MoH2S2O9,2.9943,-1.818874865281251,mp-744317,1,4.0
Mg2AgWO6,0.0556,-2.145787471166667,mp-1047193,1,0.0
Sr2AlCu2NiO7,0.111499999999999,-2.040384213076923,mp-1043524,1,0.0
EuMoO3,0.0,-2.482626111999999,mp-1184411,1,0.0
Ba8Mn8O23,1.0391,-2.484247075857648,mp-760130,1,1.0
Mg3V6(FeO6)4,2.2325,-2.31892518554054,mp-19067,1,3.0
Li3NiO3,1.7279,-1.716244253571428,mp-773516,1,2.0
UCr(HO2)3,1.4703,-1.185106562613635,mp-1208178,1,2.0
V2H10Se2O13,2.5124,-1.517312566192129,mp-1201097,1,3.0
Ca6MnBe4Si6HO24,0.0,-3.178903958016215,mp-1203787,1,0.0
Mg2SbWO6,1.673,-2.279452549,mp-1344776,1,2.0
SrV3P4O17,1.8247,-2.738988742242857,mp-15866,1,2.0
Na3Mg(NiO2)5,0.263399999999999,-1.3522200857441011,mp-2231103,1,0.0
NiBiP2O9,0.127699999999999,-1.888712144752748,mp-1043741,1,0.0
MgZn2(MoO4)2,1.207399999999999,-2.009839246538462,mp-2233950,1,1.0
NaSrLaWO6,3.0666,-2.869249961887931,mp-1516595,1,4.0
CoBi2O7,0.0,-0.983147559125,mp-1042672,1,0.0
Li3Al2FeO6,2.6790000000000003,-2.682679986458334,mp-770727,1,4.0
Li4V3Cr3(TeO8)2,0.8361000000000001,-2.226278001666667,mp-769563,1,1.0
CaNi2(P2O7)2,0.0,-2.374944264693876,mp-1340075,1,0.0
Li4V3Cr5O16,0.802299999999999,-2.397337386904762,mp-775818,1,1.0
MnCO3,3.2291,-2.012984636586208,mp-18814,1,4.0
Bi6Mo2O15,2.6683,-1.821042355869566,mp-1204598,1,4.0
Ca3WCl2O5,3.9325,-2.925349647954545,mp-558558,1,5.0
NaV3P3O13,1.4356,-2.671626947015394,mp-1012791,1,2.0
Mn3HO6,0.0,-1.755285574504311,mp-1003317,1,0.0
KNa7V6(MoO10)2,0.0,-2.180060529566811,mp-1099956,1,0.0
Nd20Mn20O59,0.020299999999999,-2.9513027778143512,mp-1173621,1,0.0
Zn2Fe9O13,0.7964999999999991,-1.524137046458334,mp-1045954,1,1.0
LiCr(SiO3)2,3.2645,-2.924964505583332,mp-510529,1,4.0
CdMoPO6,0.0,-2.216809399404761,mp-553877,1,0.0
NaZnFe(PO4)2,2.1881,-2.402129284153719,mp-1173582,1,3.0
RbNaCr2O7,2.6704,-1.889608905579937,mp-704546,1,4.0
Cr2B(PO4)3,2.4621,-2.6470646515608443,mp-559723,1,3.0
EuMoO5,0.0,-2.190111534285715,mp-1212798,1,0.0
Sr4Mn2Cu3(SO)4,0.0,-1.899515855344828,mp-555856,1,0.0
BaFeP3H2O11,2.617099999999999,-2.506787597023809,mp-1228444,1,3.0
Ni7(PO4)6,0.0,-2.009561998861003,mp-771985,1,0.0
MgVCrP2(HO5)2,2.056399999999999,-2.509230251575629,mp-2229489,1,3.0
NiH12(NO6)2,3.1523,-1.160228573148147,mp-1194565,1,4.0
CoH12SO10,2.6715,-1.392206910416667,mp-695883,1,4.0
CsV(NO4)2,1.7603,-1.490443107471263,mp-1200557,1,2.0
SrEuFeSnO6,0.0,-2.429639649,mp-1522302,1,0.0
LiVP4(H2O7)2,2.262299999999999,-2.323706724871031,mp-755618,1,3.0
Mo3PW9N3O40,0.1712,-1.6049913112436232,mp-729848,1,0.0
VClO,1.674,-2.194772937500001,mp-23061,1,2.0
Li3Nb(NiO2)4,2.0747,-1.911291241874999,mp-754319,1,3.0
TbWBrO4,2.6473,-2.66703991095238,mp-1192573,1,3.0
Li3MoP2O9,1.4696,-2.515760208285715,mp-25974,1,2.0
Mn5(P3O11)2,0.0,-2.456161912348858,mp-31954,1,0.0
RbMgIn(WO4)2,3.7818,-2.146792943012821,mp-2218601,1,5.0
VCdPHO6,2.0364,-1.855109206089285,mp-1207842,1,3.0
Li5NiO3F2,0.0,-2.170857027424243,mp-759151,1,0.0
Ba6Co6O16F,0.0,-2.117403700517241,mp-1228594,1,0.0
Li8Mn2O9,0.0,-1.98265745408046,mp-773132,1,0.0
Ba2MgMn2CuF14,1.1337,-3.204031762043104,mp-1045910,1,1.0
Ti2Fe(PO4)3,0.1711,-2.854402623366402,mp-778242,1,0.0
Rb2UMo2O11,0.856399999999999,-2.255076335624999,mp-1198786,1,1.0
RbAl(MoO4)2,3.8624,-2.373306999791667,mp-1209248,1,5.0
Mg8SiW9O49,0.074999999999999,-1.713580977537313,mp-1198202,1,0.0
Mo12PH24C6N3O40,2.341,-1.36427253336794,mp-720800,1,3.0
Li4V4(OF3)3,0.536999999999999,-2.910170265166666,mp-765901,1,0.0
MgV3NiO8,0.0,-2.192178055,mp-2224276,1,0.0
Li4Ti3Mn2Nb3O16,0.0,-2.8444145553284073,mp-760948,1,0.0
BaMg6CoO8,1.293599999999999,-2.4041107375,mp-1032360,1,1.0
CoAg(N3O4)2,0.0,0.011782941145833,mp-1181889,1,0.0
Na2CrCuF7,0.008399999999999,-2.716774048205329,mp-504978,1,0.0
TiNi5(PO4)6,0.0,-2.18035792614418,mp-772277,1,0.0
Ba5Fe5O14,0.0,-2.181284587708333,mp-542530,1,0.0
Li4Nb2V3Ni3O16,1.5990000000000002,-2.353096977619048,mp-776390,1,2.0
EuMoClO4,0.018999999999999,-1.821886765,mp-607826,1,0.0
VP(H2O3)2,1.9898,-1.993693849136904,mp-695981,1,2.0
VInO4,2.9684,-2.216125894444445,mp-22443,1,4.0
FeC4S2N3O5,0.3382,0.109431994666666,mp-1238261,1,0.0
KSrTbWO6,2.887399999999999,-2.938803420391667,mp-1516327,1,4.0
K2V3P4H4O19,1.9810999999999992,-2.399357096658482,mp-743881,1,2.0
NiAg4(PO4)6,0.0,-1.504690717843536,mp-1203837,1,0.0
MgCo2(SiO3)4,1.180699999999999,-2.629095385526317,mp-2230491,1,1.0
VCo3O8,0.0,-1.373698434583333,mp-752604,1,0.0
U3W2O17F2,0.0,-2.4267264156249992,mp-1195380,1,0.0
Na2Li4Mn2C4SO16,3.9371,-2.101562545670828,mp-759748,1,5.0
K3HoMgV2O8,1.7641,-2.526982132783333,mp-2228647,1,2.0
CrHSe3O8,3.000299999999999,-1.45425028890625,mp-1182406,1,4.0
BaNaCaMnO6,0.0,-2.032388149931035,mp-1517699,1,0.0
V3P4PbO17,1.7321,-2.560264219742856,mp-699581,1,2.0
Li5TiMn3O8,0.2561,-2.323607316693712,mp-761048,1,0.0
Sr2Cu2MoO7,0.0,-1.811867534583332,mp-1043112,1,0.0
La2Ni2O5,0.3528,-2.602793055555556,mp-1076121,1,0.0
Fe10O9F11,1.2038,-2.086308832333334,mp-780760,1,1.0
Li4Ti2V3Fe3O16,0.8507,-2.464251461428572,mp-776663,1,1.0
Li9(NiO2)10,0.3611,-1.439750425897435,mp-769454,1,0.0
WN2(OF2)2,3.0684,-0.474443541666666,mp-1216322,1,4.0
Li2(NiO2)5,0.473399999999999,-1.084125570980392,mp-762387,1,0.0
BaMgVO3,0.9272,-2.464062018333334,mp-2226159,1,1.0
KLiLu2(MoO4)4,3.1597,-2.524688605788194,mp-1211661,1,4.0
V3ZnP3O13,1.5596,-2.560559837446428,mp-1047813,1,2.0
Li4TiCo5O12,1.2388,-1.874517272348484,mp-1645230,1,1.0
Li6V2B4SO16,1.9211,-2.512980432902299,mp-772590,1,2.0
Li2Co2C2O7,2.171,-1.790428833397435,mp-758495,1,3.0
K5FeO4,2.298899999999999,-1.5476510366249991,mp-12040,1,3.0
Sm2V2O7,0.9596,-3.104152318636363,mp-779427,1,1.0
NiSnH12(OF)6,3.6811,-1.717413413076922,mp-24577,1,5.0
Li2Cr3CuO8,0.1772,-1.967773018869047,mp-1178058,1,0.0
LiCrPO5,0.1793,-2.451405901622022,mp-540292,1,0.0
CaV4(PdO4)3,0.0,-1.965612408,mp-1188629,1,0.0
TiMn4O10,1.4943,-2.063405258170498,mp-777945,1,2.0
Mn2P2H7NO10,0.791,-1.7996751010862642,mp-774928,1,1.0
Ti3Al2NiO,0.0,-0.947422548928571,mp-542029,1,0.0
YbVO4,0.0,-3.304186793333334,mp-18799,1,0.0
Sm2VFeO6,1.2635,-3.033228952500001,mp-1219215,1,1.0
V2Cu5(HO3)4,0.002099999999999,-1.404490512391304,mp-556753,1,0.0
CoP2H36C12Br2(N3O)2,2.9566,-0.343076613103044,mp-1199420,1,4.0
Na3Ag3W2(OF)6,2.323699999999999,-2.143203441456896,mp-1189708,1,3.0
Sr8Fe7CoO24,0.0,-2.18056368325,mp-1077660,1,0.0
NaMg30CrO32,3.7638,-2.978457580959051,mp-1039737,1,5.0
Li2Co2SnO6,0.844599999999999,-1.719854388333333,mp-753584,1,1.0
Ni2P4C11S2(OF8)3,2.5717,-1.420298055566771,mp-705014,1,3.0
KSrLaMnO6,0.0,-2.350742389018104,mp-1523124,1,0.0
KH8WN2(OF)3,3.8835,-1.469284123736111,mp-1223712,1,5.0
NaV2P2(H4O7)2,0.0,-1.969113688913519,mp-746817,1,0.0
MgMn2V4O12,1.1757,-2.376807663729582,mp-2230045,1,1.0
Li3Mn5(NiO6)2,0.504999999999999,-1.8667747893782651,mp-758709,1,0.0
Li4Ti2V3Cu3O16,0.0,-2.265666790714287,mp-777897,1,0.0
VCdClO3,2.698299999999999,-1.998744465833333,mp-555114,1,4.0
MgMo3O8,1.264799999999999,-2.041131569583334,mp-1046644,1,1.0
Ba2CeWO6,0.0,-3.0530593495,mp-1517855,1,0.0
Na9V14O35,0.4926,-2.407223768834721,mp-560778,1,0.0
Li4Cr2Fe3Co3O16,0.0,-1.710208494761904,mp-774878,1,0.0
Rb2CrF6,1.878099999999999,-2.964953194999999,mp-2041196,1,2.0
La2Ti3NiO10,0.0,-3.287117886875,mp-1223170,1,0.0
Li4CrFe3Cu2(PO4)6,0.357999999999999,-2.310603819779762,mp-1177494,1,0.0
La(WO3)11,0.0,-2.286780572,mp-675527,1,0.0
Mn2ZnO5,0.0,-1.534771013232759,mp-1043246,1,0.0
Cs2KVF6,0.0,-3.164672170656035,mp-558895,1,0.0
Ba2NdWO6,1.7938,-3.052404307750001,mp-1519207,1,2.0
Co2AsHO5,1.9439,-1.506828889305556,mp-1202958,1,2.0
CaSm(CoO3)4,0.0,-1.390185191388888,mp-1522014,1,0.0
Li4Fe3Ni2Sn3O16,0.0,-1.749699324940476,mp-774281,1,0.0
SrCa7Fe2(Co3O10)2,0.0,-2.207408410972223,mp-1099745,1,0.0
KEuSbWO6,0.266699999999999,-2.243359538225001,mp-1517569,1,0.0
Li3FeP2HO8,4.241299999999999,-2.44258809070238,mp-755383,1,6.0
Mn9Al8Fe3(SiO4)12,3.5858,-2.9132005387672413,mp-1221930,1,5.0
AlTl(MoO4)2,3.8702,-2.203208559444446,mp-18733,1,5.0
Na2Fe3(PO4)3,0.0,-2.388397204834359,mp-558822,1,0.0
V5H28C8N13O17,1.775,-0.9269155966197192,mp-1201428,1,2.0
Rb2BiPWO8,4.0107,-2.35318953478022,mp-1196931,1,6.0
Na2Fe2P2O8F,0.6897,-2.397425912469621,mp-1196373,1,1.0
Li2Ni2(SO4)3,3.8594,-1.923564851666666,mp-768896,1,5.0
Li4Co5CuO12,0.0845,-1.461822857878789,mp-773165,1,0.0
LiVP2O7,2.1466,-2.718353710010822,mp-26227,1,3.0
Na3MnBPO7,1.568299999999999,-2.490663470836807,mp-768574,1,2.0
Dy3VH3O8,2.3987,-2.876986805916666,mp-1225720,1,3.0
Li3Ti2(FeO4)2,1.0143,-2.5550791817777783,mp-762702,1,1.0
Sr2FeCu2O7,0.0,-1.6980532924999991,mp-1043304,1,0.0
CaMn6SiO12,0.5927,-2.38528582087934,mp-558986,1,0.0
Li7Mn10O20,0.269299999999999,-1.6051396619633431,mp-675075,1,0.0
Ba5Ti4MoO15,0.0,-3.288211716733334,mp-1228035,1,0.0
NiH16C4(N5O)2,2.2999,-0.457146756742425,mp-1197556,1,3.0
Li4Co3OF11,1.0803,-2.473533263859649,mp-754688,1,1.0
KCaCeFeO6,0.0,-2.402105791725,mp-1517359,1,0.0
TaAgWO7,0.0,-2.022998656399999,mp-1218048,1,0.0
NaV3(PO4)3,0.0,-2.673949151068835,mp-557634,1,0.0
KNdFeBiO6,0.4222,-1.975620191475,mp-1518702,1,0.0
Li5Co7O12,0.0,-1.453554391944444,mp-756433,1,0.0
V2P2O9,1.3672,-2.576943749175824,mp-628951,1,2.0
K2NiF4,3.6693,-2.735236737785715,mp-556546,1,5.0
Fe3Co7O20,0.0,-1.076702076333333,mp-775826,1,0.0
CoCu2O3,0.0,-0.9811618024999992,mp-20334,1,0.0
K2VCo6Cu2As5O24,0.4375,-1.6680551033,mp-1223921,1,0.0
Sr7CaTi3Mn5O24,0.0,-2.866788380991379,mp-1076827,1,0.0
K3FeF3,0.8008000000000001,-1.948749875249999,mp-690534,1,1.0
Mn2Te3O8,2.1851,-1.734562590066312,mp-18607,1,3.0
Sr8MnFe7O20,0.0,-2.383438430428638,mp-1076409,1,0.0
Ba2LiSmCoCu2O7,0.0,-2.109309978095238,mp-1235043,1,0.0
Cr6P7O24,0.1596,-2.525127207635136,mp-504359,1,0.0
VCuSe2O7,0.0,-1.49219532747159,mp-557097,1,0.0
Na3V5O23,0.0411,-1.265207130133481,mp-863288,1,0.0
Li3V4O5F7,1.2099,-2.841186421052632,mp-752564,1,1.0
Co5CuO8,0.0,-1.2565020196428571,mp-761404,1,0.0
LiTl3(MoO4)2,3.8133,-1.810235869523811,mp-556157,1,5.0
MnNiP2O7,3.028799999999999,-2.402808760656067,mp-1221356,1,4.0
DyAg(WO4)2,3.1201,-2.3768711390277772,mp-1212988,1,4.0
Na2NiH12(SO7)2,4.9138,-1.565576955572858,mp-542864,1,7.0
Na2AlCr(P2O7)2,3.3801,-2.7742889586968182,mp-1221476,1,5.0
BaLaEuWO6,0.0,-2.919986537,mp-1521896,1,0.0
LiCo3O4,0.0,-1.398882890416666,mp-755398,1,0.0
BaMnCO3F2,4.065399999999999,-2.794316631616379,mp-19054,1,6.0
SrZnSnWO6,2.9475,-2.1864815515,mp-1517877,1,4.0
MgMnV4CoO12,1.281799999999999,-2.272990954364791,mp-2230757,1,1.0
FeS6(NO2)9,0.1991,0.320184623235292,mp-1181467,1,0.0
NaFe12O19,0.0,-1.590262992699353,mp-1101695,1,0.0
CrFe3Co2(PO4)6,0.0,-2.240925494940475,mp-758226,1,0.0
Rb2FeCuF6,0.5338,-2.5381276245,mp-1113487,1,0.0
Na3Mo(OF)3,3.9164,-2.561763619413791,mp-18753,1,5.0
Li2Fe3(CoO4)3,0.0,-1.449137816833332,mp-752595,1,0.0
CoP2H18(NF2)6,2.6175,-1.4282163610714291,mp-694992,1,3.0
MoSCl7O,1.8759,-1.053019514,mp-699535,1,2.0
Li5Fe4(P2O7)4,1.4982,-2.490190412084655,mp-849492,1,2.0
Cs2MoO4,4.6118,-2.203920136687191,mp-1194312,1,6.0
Mo4P7O24,0.893999999999999,-2.472178156357142,mp-26744,1,1.0
CsTiCoOF5,2.3885,-3.114244638109834,mp-40502,1,3.0
CoH13C2N4O9,2.8847,-0.9808617455603452,mp-1195455,1,4.0
NaNi2Mo2H3O10,3.190699999999999,-1.7041412880627391,mp-1220997,1,4.0
Na6Al3Fe3(TeO6)4,2.6393999999999993,-2.070361827873563,mp-1220862,1,3.0
Li9V5(SiO8)2,1.6425,-2.5811801059375,mp-767624,1,2.0
Li7TiFe3(PO4)6,1.0661,-2.5932990735249692,mp-760106,1,1.0
Mn3BPO10,0.0,-1.920684498340173,mp-1197087,1,0.0
Li2TiV2O6,1.290499999999999,-2.7426694395454563,mp-752814,1,1.0
CoH9(NO)6,2.7323,-0.6008360859659091,mp-734411,1,4.0
VF4,2.2417,-3.037462301,mp-554799,1,3.0
Mn5Zn4(TeO6)3,0.2265,-1.810188886988506,mp-1046628,1,0.0
KCaNi2H3(SeO5)2,2.2301,-1.48460453924671,mp-1233117,1,3.0
Li3VFeP2(O4F)2,2.4464,-2.85169708672269,mp-1177545,1,3.0
NiP2(H4O5)2,3.7796,-1.7655269852040851,mp-510650,1,5.0
MgMn3HO6,0.9603,-1.990184070003919,mp-2218039,1,1.0
PuVO3,0.0,-2.892695518749998,mp-1209729,1,0.0
Ca3Ni2H8C10(S4O13)2,0.0,-1.063417662368422,mp-698271,1,0.0
La7SmCrFe7O24,0.8649000000000001,-2.760080938250001,mp-1099808,1,1.0
CeMoO2,0.0,-1.965416631249999,mp-1213789,1,0.0
KMgSc(MoO4)2,0.0123,-2.246040064403847,mp-2218308,1,0.0
KCrH18N6(ClO2)4,3.7571,-0.711356276046052,mp-24100,1,5.0
Li4V2Co3Sb3O16,0.8841000000000001,-1.8264804547619051,mp-775336,1,1.0
Li4Fe3(CoO4)3,0.0322,-1.597932755606059,mp-881189,1,0.0
Fe3P6H14(NO8)3,0.0,-1.700621161007142,mp-1213484,1,0.0
Na3Sr4Cr5F26,3.326699999999999,-3.424163031490471,mp-1201930,1,4.0
Li3V2(GeO4)3,0.0,-2.219808372375,mp-1013916,1,0.0
Mn3AgAs3(HO6)2,1.4337,-1.71578699168856,mp-542292,1,2.0
MgMo2(NO5)2,0.5523,-0.318952412666666,mp-1193572,1,0.0
Tl3VO4,2.5955,-1.670863315000004,mp-29047,1,3.0
NaLaMgWO6,3.5197000000000003,-2.892416510137931,mp-1173567,1,5.0
AlFe2BO5,2.8114,-2.436238123796296,mp-1096865,1,4.0
CaCoO2,0.0,-2.17549640125,mp-1048132,1,0.0
Eu3BWO9,0.184399999999999,-2.922402567083334,mp-556626,1,0.0
CaMg6VO8,3.793800000000001,-2.8868780737499993,mp-1032997,1,5.0
LiCr(SO4)2,2.1606,-2.079093766805556,mp-776761,1,3.0
Sr2Cr2GaO7,0.0,-2.316047616875,mp-1046770,1,0.0
Co5P4H12(O8F)2,2.0431,-1.6253034421428572,mp-1199673,1,3.0
Sr3Ca5Mn8O24,0.1912,-2.458125084961207,mp-1247636,1,0.0
MgCoO3,0.0,-1.826363841,mp-761524,1,0.0
RbMg6WO8,3.5322,-2.263100421093749,mp-1033623,1,5.0
YTl(MoO4)2,3.9713,-2.365936122361111,mp-1207730,1,5.0
Cr(SO4)2,0.0,-1.784916710113635,mp-780604,1,0.0
Li2(FeO2)3,0.0,-1.741920333787879,mp-752883,1,0.0
V2(CuO2)5,0.0,-1.477375675735294,mp-27550,1,0.0
Na4Ni3(SbO5)2,0.0,-1.781883533448275,mp-1221170,1,0.0
Ca6Mg2Co(AsO5)6,0.476299999999999,-2.012207903444444,mp-1227904,1,0.0
BaNdCo2O5,0.0,-2.325878256944446,mp-24853,1,0.0
Na2MnPO4F,0.0,-2.66222519198139,mp-556404,1,0.0
BaV2Cu3(HO5)2,0.0,-1.8342428590277784,mp-697492,1,0.0
Li3Co4TeO8,0.0,-1.568578554791667,mp-756161,1,0.0
Li3Cr3SiO8,3.077899999999999,-2.533138231333333,mp-755028,1,4.0
KMo2H29C9O11,2.6207000000000003,-0.688417077759616,mp-1203895,1,3.0
MnCuF6,0.0,-2.229693058491379,mp-1206085,1,0.0
V3Fe2Te(PO4)6,0.0108,-2.458721070681216,mp-776747,1,0.0
Li6V3P6WO24,1.5244,-2.620005365696428,mp-758674,1,2.0
CaFe2BiO6,0.0,-1.854154333000001,mp-1227229,1,0.0
Bi14MoO24,2.6318,-1.6976353046153851,mp-691119,1,3.0
K2BaLiCo(NO2)6,1.1227,-1.209828721644928,mp-1236436,1,1.0
Ti2MnO4,0.0,-2.926332923513958,mp-561097,1,0.0
LiFe23O32,0.8563000000000001,-1.6186948348809531,mp-773010,1,1.0
YTl(WO4)2,2.937099999999999,-2.494916040694445,mp-1207646,1,4.0
Sr4MgTiFe2(AsO3)2,0.0,-1.839599480208334,mp-1218475,1,0.0
Li6Fe(O2F)2,1.04,-2.234190397307692,mp-755545,1,1.0
Li4Mn5Cu(PO4)6,0.241899999999999,-2.43906891552114,mp-1177362,1,0.0
Rb2TlFeF6,2.9912,-2.679314555833333,mp-1113644,1,4.0
TiZnCo(PO4)3,1.4250999999999991,-2.498834501236772,mp-1044256,1,2.0
Cs2Co(PO3)4,2.5682,-2.508761783967462,mp-643125,1,3.0
Tb2(MoO4)3,3.3639,-2.656939632107843,mp-3114,1,5.0
Zr7VO16,1.762,-3.619999341875,mp-861179,1,2.0
MgFe2(CoO2)4,1.452599999999999,-1.474788603666667,mp-2241110,1,2.0
Ni3O4,0.0,-1.046750069285714,mp-656887,1,0.0
MnC5IO5,2.5815,-0.7939005556609201,mp-1192277,1,3.0
BaFe5Bi4O15,0.0,-1.730333613000001,mp-1228771,1,0.0
Ti2MnZnO6,2.2983,-2.871506938959771,mp-1217104,1,3.0
Co(SbO9)2,0.0,0.151805916587301,mp-1201975,1,0.0
Ba2NiRuO6,0.004,-2.068848193000001,mp-1147774,1,0.0
Ca(WO2)4,0.160899999999999,-1.881554758461537,mp-1045231,1,0.0
Ca4La4Mn7NiO24,0.0,-2.71843726038793,mp-697834,1,0.0
Li2MnH8(SO6)2,3.9071,-1.698995539083908,mp-779330,1,5.0
Nb2Zn2CoO8,2.6737,-2.374739018461539,mp-1046861,1,4.0
Na4Al3Cr(P2O7)4,3.576999999999999,-2.8355226064240933,mp-1221255,1,5.0
Sr2MgTiFeO6,2.507699999999999,-2.75119872439394,mp-2217649,1,3.0
KFeF4,2.7092,-2.837659914125,mp-555631,1,4.0
Mg2Ni3O8,1.197399999999999,-1.436934039230768,mp-1394387,1,1.0
Na2MgFeF7,3.904099999999999,-3.121345232068965,mp-1210436,1,5.0
Sr2YAlV2O7,0.7058,-2.959916556153846,mp-1252036,1,1.0
Li4Fe3Co3(WO8)2,0.5899999999999991,-1.875398349047618,mp-776860,1,0.0
Ba2Mo3O7,0.0,-2.040998407916667,mp-1048510,1,0.0
ZnCr5O7,0.035499999999999,-1.911391827307691,mp-1046078,1,0.0
RbFeBP2HO9,2.7445,-2.467841640146825,mp-24648,1,4.0
MgCo5SbO12,0.5405000000000001,-1.363991521315789,mp-2230310,1,0.0
Ba2CoReO6,0.198199999999999,-2.4478527995,mp-545792,1,0.0
SiNiO4,0.0,-1.522093008333333,mp-1364379,1,0.0
Co2P3H11N2O9,0.0,-1.354256253247355,mp-1226671,1,0.0
CrH17N4Cl2O3,3.6068,-0.9003818909722221,mp-24480,1,5.0
Co3Sb4(OF)6,2.343,-2.013515287894737,mp-1105290,1,3.0
MgMn2CoO7,0.0,-1.6062815712147331,mp-1365713,1,0.0
MgV4O9,2.424399999999999,-2.498227642142858,mp-1041375,1,3.0
V2Zn3(GeO4)3,1.0263,-2.042719812749999,mp-1325621,1,1.0
K3VO4,4.0392,-2.27827762240625,mp-560869,1,6.0
NaFe2(SiO3)4,0.0,-2.626484145862068,mp-755636,1,0.0
Li2CoBO4,1.4599,-2.177228885416666,mp-752707,1,2.0
SrCaHfWO6,0.0,-3.060122713999999,mp-1522396,1,0.0
Rb2Mn3O4,0.3306,-1.754988467643677,mp-1188117,1,0.0
Co3(P2O7)2,0.0361,-2.180758221836734,mp-27010,1,0.0
Na3Li3Mn2P2(CO7)2,3.787199999999999,-2.390123061703297,mp-771021,1,5.0
MgP2(WO5)2,1.232299999999999,-2.40410607095238,mp-1044122,1,1.0
La2Ti3VO10,0.0,-3.429486943749999,mp-1223106,1,0.0
Li8ScFe7(SiO3)16,2.7502,-2.828154589645835,mp-775203,1,4.0
Na2CaV4O12,2.9046000000000003,-2.529112228566243,mp-17968,1,4.0
RbVPO6,0.4138,-2.341563410099207,mp-1199688,1,0.0
DyFe5Bi4O15,1.793,-1.8667489324666664,mp-1226261,1,2.0
Cu6NiO6,0.0,-0.714042245384616,mp-1147668,1,0.0
Na5LiCo2P2(CO7)2,2.6862,-2.234078842673677,mp-768850,1,4.0
Li(CoO2)8,0.112999999999999,-1.161283075333333,mp-674388,1,0.0
Li2Mn3(P2O7)2,3.9326,-2.620111144740485,mp-26083,1,5.0
K2MoSeO6,3.4747,-1.927907686934375,mp-558021,1,5.0
MgHg8(W2O7)4,1.4644,-1.741593121,mp-2216938,1,2.0
ZnCoBi2O7,0.0,-1.25616332625,mp-1042620,1,0.0
MgVAgO4,2.2098,-2.158205882738095,mp-1192534,1,3.0
NaAsW2O9,2.4161,-2.065663175298409,mp-1194840,1,3.0
KNa3Mo2O17,0.325099999999999,-0.608400752016866,mp-1212291,1,0.0
Li4Ti3V4Cr2O18,0.3186,-2.68716149123656,mp-774678,1,0.0
Li2Si2Ni3O8,3.155699999999999,-2.215757569555556,mp-766974,1,4.0
K2Cr4O13,1.8378,-1.753510224184211,mp-542693,1,2.0
Li2VOF3,2.3687,-2.987914051666667,mp-765507,1,3.0
Sr2CoMoO6,0.0,-2.475307321000001,mp-510546,1,0.0
FeBr(NO)3,0.455499999999999,-0.222214550000001,mp-1181372,1,0.0
CeFe4(CuO4)3,0.0,-1.685703730499998,mp-1105352,1,0.0
K2Ni2(MoO4)3,3.2782,-1.940426785236842,mp-556279,1,4.0
Na3CrP8O23,3.675899999999999,-2.600100606679444,mp-8343,1,5.0
Sr2DyCrO6,0.0,-2.8735830421666653,mp-1517166,1,0.0
HfMg14NiO16,0.3383,-2.8495286225000003,mp-1034711,1,0.0
V(HO)2,1.4013,-1.5510046505,mp-32493,1,2.0
K2Mo(CO4)2,0.9431,-1.532895092846154,mp-1199178,1,1.0
Cs3CoF6,2.912,-2.661095949896553,mp-1206497,1,4.0
CoSbO4,2.114,-1.5383490141666671,mp-758123,1,3.0