formula,bg,formation_energy,mp-id,fidelity,bg_category
Li2Co4O7F,0.0,-1.567276254761903,mp-780622,1,0.0
Mg2Al16Fe6Si20O73,0.044399999999999,-3.108028392350428,mp-1223304,1,0.0
KEuMgWO6,0.0,-2.604762749725,mp-1519582,1,0.0
CoCu(PO4)2,0.005099999999999,-1.926310803690476,mp-761614,1,0.0
Li4V3Sn3(TeO8)2,1.0821,-2.098813247916667,mp-1662514,1,1.0
KEr(WO4)2,3.2910999999999992,-2.6854459251875,mp-558010,1,4.0
Ba2Ni3O7,0.0,-1.288748997083332,mp-1048554,1,0.0
Mn3Co(PO4)4,0.0,-2.295070602598521,mp-757412,1,0.0
Cs2LiMnO4,1.818,-1.88183337694684,mp-18722,1,2.0
K2V2P4O15,2.8177000000000003,-2.631965303611802,mp-619577,1,4.0
AlCoNF6,0.214099999999999,-2.074714915,mp-1229178,1,0.0
SrMg6CoO8,2.2982,-2.624031696875,mp-1032306,1,3.0
Co2TeSO8,0.021999999999999,-1.4139849082638891,mp-1195741,1,0.0
V2H38S4(N2O9)3,2.3843,-1.235979260941558,mp-1100935,1,3.0
Dy2Mn2O7,0.9041,-2.893416257199581,mp-755869,1,1.0
CoH8(CO4)2,2.2106,-1.354440835614034,mp-1204386,1,3.0
Li4Mn3NbCr2(PO4)6,0.4399,-2.547106982374589,mp-776566,1,0.0
LiCoHSO5,2.762299999999999,-1.830797941898148,mp-942704,1,4.0
GdFe4(CuO4)3,0.0,-1.3816251465,mp-1188097,1,0.0
FeN3ClO3,0.8434,-0.279210315000001,mp-558146,1,1.0
Zn2TeWO6,0.434999999999999,-1.6253852731666671,mp-1373817,1,0.0
K2Mo2Se2O11,2.787,-1.824171319658088,mp-1195788,1,4.0
LiVP4(H2O3)6,3.0255,-1.930623878664021,mp-778976,1,4.0
Li7Mn16O32,0.2915,-2.026796113095089,mp-694974,1,0.0
NaFeH22C10(NO6)2,2.5614999999999988,-0.856163689872484,mp-1195110,1,3.0
MgTi4FeO10,1.394299999999999,-3.222096965208333,mp-1221997,1,2.0
Zn(MoO6)2,0.0,-0.851668955833333,mp-1205019,1,0.0
Li4CoSn3(PO4)4,1.9623,-2.376283097389456,mp-758057,1,2.0
ErMoO5,0.200099999999999,-2.534156491071429,mp-1213170,1,0.0
Ti3Mn3(SbO8)2,0.6120999999999991,-2.422283950158046,mp-763292,1,0.0
CsCrFeF6,0.0,-2.956924186072797,mp-1225950,1,0.0
Li2MnCrO4,1.167399999999999,-2.2721526218247132,mp-755443,1,1.0
Ti2CoO5,1.7405,-2.963518827395834,mp-753066,1,2.0
MgV12Zn6O24,0.9427,-2.273067047093023,mp-1233628,1,1.0
SrMoO2,0.418,-1.995546126875,mp-1208650,1,0.0
Li3Fe4CuO8,0.0,-1.704922609999999,mp-756367,1,0.0
Fe2PClO4,0.5959999999999991,-2.116387919642856,mp-556581,1,0.0
K2NiHgF6,1.9584,-2.418037982700001,mp-1112157,1,2.0
Ba2YCo3O8,0.0,-2.230528755000001,mp-1048020,1,0.0
Li4Mn2Fe3Te3O16,0.8803000000000001,-1.784347012828408,mp-774569,1,1.0
Li4V5Cr2O12,0.9661,-2.383867866449274,mp-780707,1,1.0
Li4V7O9F7,0.8584,-2.7359309279012343,mp-867535,1,1.0
MgCo4(NiO4)2,0.0,-1.2767339029999991,mp-2232368,1,0.0
LaTb3(Mo2O7)2,0.2778,-2.925762261590908,mp-1222843,1,0.0
Na5Gd(MoO4)4,3.3922,-2.325360294303714,mp-556070,1,5.0
K4LiMn4O8,0.0,-1.821259002591616,mp-1235345,1,0.0
CaP2(WO5)2,1.8945999999999992,-2.577625835285713,mp-1044163,1,2.0
ZrMnF6,4.4442,-3.661806588491378,mp-1206098,1,6.0
La2MgTiNiO6,0.0,-2.665516965303031,mp-2223109,1,0.0
MoSeCl7O,2.4435,-1.130990043734375,mp-557464,1,3.0
Na4MnO5,0.2646,-1.6280259720948271,mp-1210615,1,0.0
Ba2MgFeWO6,1.9499,-2.362551027727272,mp-2223651,1,2.0
Li2MgMn3O8,1.9551,-2.21625923503284,mp-581301,1,2.0
Fe2CuO4,0.0,-1.407231362142857,mp-770107,1,0.0
Co20(As4O19)3,0.0932,-1.3332205761235951,mp-1229319,1,0.0
Na3MnP8O23,2.0079,-2.555084117620337,mp-1210983,1,3.0
Mg2NiWO6,2.5452,-2.306627134499999,mp-1372490,1,3.0
Li4Co2Ni3Sn(PO4)6,2.5939,-2.25581433465476,mp-776757,1,3.0
Li5Al(Co2O5)2,0.0,-1.899586408333334,mp-1222628,1,0.0
Fe2PO4F,0.2855,-2.365666674642858,mp-18121,1,0.0
Na4V3O8,1.858099999999999,-2.262387023701149,mp-765721,1,2.0
K2CoH12(C2O7)2,1.2163,-1.447624652560606,mp-1196673,1,1.0
Li4Ti3Mn3V2O16,0.0,-2.651260027397372,mp-770420,1,0.0
Nd2MnGaO6,1.2114,-2.996612798543103,mp-1220573,1,1.0
ZnFe2H28(S2O15)2,1.6923,-1.476442451,mp-1196074,1,2.0
KCaGdFeO6,0.0,-2.189446868725,mp-1521656,1,0.0
Sr16Mn8O29,0.3805,-2.74113580053676,mp-767781,1,0.0
Li2Cr5B3O13,1.3098,-2.470098337355071,mp-772573,1,1.0
Li2VO2F3,2.5919,-2.737477837708333,mp-772563,1,3.0
Li2Ni3O3F2,2.517699999999999,-1.942978122166665,mp-753499,1,3.0
Li3V4F19,1.3963,-3.010585777307692,mp-776128,1,2.0
CaFeWO6,0.0,-2.141556877777776,mp-1391360,1,0.0
Na3MnSiCO7,1.2865,-2.3490579011206902,mp-772101,1,1.0
Ca3MnNiO6,0.0,-2.575261859357367,mp-22533,1,0.0
Li4Cr7(PO4)6,2.2498,-2.4710938202729382,mp-777610,1,3.0
Ti3V2Ni(PO4)6,0.977399999999999,-2.816080271607141,mp-780859,1,1.0
TeMo3(NO6)2,1.5968,-0.937052131203704,mp-818265,1,2.0
Na3Fe2(GeO4)3,0.0,-1.787809153831896,mp-1013864,1,0.0
Pr5Te7WCl3O23,2.6893,-2.380788189102564,mp-1173612,1,4.0
Li4Fe3Cu3(WO8)2,0.0,-1.7839968679761902,mp-759296,1,0.0
CsAlFe3(SiO4)3,2.0275,-2.659040877482758,mp-1226105,1,3.0
Dy2CrSbO7,1.894299999999999,-3.048827102575755,mp-1225509,1,2.0
Fe25O32,0.0,-1.436958434385965,mp-1194978,1,0.0
Na3V(BO3)2,0.0,-2.472895422080938,mp-773603,1,0.0
MoH4O5,1.7927,-1.5200931728749991,mp-728527,1,2.0
K2Cu3(MoO4)4,0.597599999999999,-1.77147572218,mp-704317,1,0.0
CaNd2Mn3O9,0.0,-2.825481245252874,mp-1227543,1,0.0
Mn9Zn2O13,0.0,-1.9321382694324731,mp-1045310,1,0.0
HoCu(MoO4)2,1.922099999999999,-2.276958293125,mp-558437,1,2.0
Li6(NiO2)13,0.0,-1.141280560888888,mp-768104,1,0.0
Li2VCoO4,1.3205,-2.150772185833333,mp-773359,1,1.0
MgGe4(MoO6)2,1.7727,-2.123333117631579,mp-2230144,1,2.0
SrEu2Fe2O7,0.0,-2.559275993958334,mp-603128,1,0.0
Li2FePCO7,2.3388,-2.294970380109127,mp-753770,1,3.0
KNa3V2(MoO5)2,0.5920000000000001,-2.07268706903544,mp-1099868,1,0.0
Ba2YCoCu2O7,0.0,-2.217448923461538,mp-1214571,1,0.0
Ho2MgW2(ClO4)2,2.4305,-2.661276716333332,mp-2227208,1,3.0
SmFeGe2O7,1.1254,-2.46333323090909,mp-1195316,1,1.0
MgCoPb2WO6,1.3304,-1.6408067095454542,mp-2217979,1,1.0
CaCu3(NiO3)4,0.0,-1.142198382499999,mp-1043133,1,0.0
Li4V3Fe2Sn3O16,1.453,-2.184517941726191,mp-779746,1,2.0
LaSm(NiO3)2,0.0,-2.381329873249998,mp-1076325,1,0.0
MgV4(H4O7)2,2.19,-1.952967727962962,mp-1194238,1,3.0
Zn2CoP2(H2O3)4,3.339,-1.780480669271429,mp-1198849,1,5.0
CaMnSiO4,2.5993999999999993,-3.054609996490149,mp-1213991,1,3.0
Na4Co(MoO4)3,2.6495,-2.022854952525863,mp-1221245,1,3.0
Na2Mn3(PO4)3,0.0619,-2.5408632285240143,mp-1210501,1,0.0
SrCrBi12(Mo2O17)2,2.6491,-1.887968818076924,mp-642974,1,3.0
Li4Nb2Fe3Te3O16,2.143599999999999,-2.042420992261905,mp-753159,1,3.0
Ta2MoO8,0.9442,-2.554079332696969,mp-1046352,1,1.0
Cd2Mo3O8,1.5881,-1.7913467326923072,mp-1213890,1,2.0
CrFeO3,0.0,-2.026850883,mp-1078458,1,0.0
RbFe3O5,0.0,-1.663570134166666,mp-769468,1,0.0
TiV15O24,0.2542,-2.576924830583332,mp-760220,1,0.0
LiMn(SiO3)2,0.9289,-2.8096728130014372,mp-757866,1,1.0
Li3Mn5F15,0.0,-2.912517570637182,mp-759954,1,0.0
Cs2TlMoF6,3.8865,-2.760194740264368,mp-560710,1,5.0
FeSb2WC8Se2(O2F3)4,2.2834,-1.5357899016819851,mp-651106,1,3.0
Cu3NiF6,0.0,-1.616358662,mp-1238911,1,0.0
SrCaEuFeO6,0.0,-2.4160385945,mp-1519945,1,0.0
Th(WO4)2,4.4628,-2.726846018522726,mp-1208466,1,6.0
KMo2C4O11,0.083799999999999,-1.249701949569444,mp-1203538,1,0.0
RbNa3Fe7(PO4)6,3.1491,-2.376098710841344,mp-1209473,1,4.0
SrNdNiO4,0.0,-2.628828339642856,mp-1217981,1,0.0
K2TlMoF6,3.750599999999999,-2.689483886783335,mp-1111419,1,5.0
Mg3V2(SiO4)3,0.0,-2.997128344875,mp-14043,1,0.0
MnV2TeO7,0.0,-2.185949551781608,mp-559026,1,0.0
Ta2CrNO5,1.435999999999999,-2.68317245912963,mp-849504,1,2.0
LiFe3(P3O10)2,2.4449,-2.438690611373015,mp-25883,1,3.0
La2Fe2O5,1.260999999999999,-2.738956553333333,mp-1099626,1,1.0
Li4Ti3Co2Sn3O16,1.939099999999999,-2.441213014583333,mp-1661766,1,2.0
MoPbSeO6,2.3078,-1.697718594427082,mp-1196979,1,3.0
MnFeBiO5,0.373199999999999,-1.75462410474138,mp-1221879,1,0.0
BaCaZrWO6,0.0,-2.979708477,mp-1519763,1,0.0
YMo3Se2ClO8,0.6000999999999991,-1.641273062979166,mp-1045584,1,0.0
LiMn2F7,1.4182,-2.85023693041954,mp-763425,1,2.0
MnF2,2.3648,-2.966967116810346,mp-556585,1,3.0
RbV2I3O13,1.7589,-1.501278554868421,mp-560376,1,2.0
Cr(SbO3)2,0.0,-1.9627345175,mp-756024,1,0.0
Co7CuAs4(HO5)4,0.0,-1.46362828513889,mp-1226214,1,0.0
V2Cd3O8,2.4714,-1.94218713653846,mp-1216762,1,3.0
KMnSn3O8,0.8738999999999991,-2.080681330398542,mp-1298569,1,1.0
CrF2,0.006399999999999,-2.822883553333335,mp-554340,1,0.0
InAg(MoO4)2,0.0,-1.73607568625,mp-1224724,1,0.0
CaVSi4H12O11,0.0357,-1.610056807413793,mp-1214832,1,0.0
LiZn2Fe9O16,1.5292,-1.68294542297619,mp-773576,1,2.0
Ba2MnCu(P2O7)2,0.0,-2.775747880522838,mp-1228743,1,0.0
NaMn3F10,1.553,-2.639349160369457,mp-541104,1,2.0
LaV3TeO15,0.029899999999999,-1.749503913833333,mp-1180989,1,0.0
CaV(Si2O5)2,1.8618,-3.129913028124999,mp-1043605,1,2.0
MgVSbO4,1.196799999999999,-2.074665612142857,mp-2210742,1,1.0
RbLi2Ni2(BO3)3,0.9122,-2.123511704803922,mp-770719,1,1.0
Li9Al(CoO4)2,2.466999999999999,-2.0701116495,mp-770726,1,3.0
CrCuO3,0.0,-1.024200594999999,mp-1183696,1,0.0
Mn2TeO6,0.5941999999999991,-1.785552806392076,mp-1210598,1,0.0
MgMn6O5F7,0.462599999999999,-2.554629108557168,mp-1233971,1,0.0
SrCaVWO6,0.6616999999999991,-2.737379819,mp-1521594,1,0.0
Na3Mn5O12,0.0,-1.806843389189656,mp-850212,1,0.0
V3CdO7,2.2235,-2.2784302675,mp-541360,1,3.0
RbPr(MoO4)2,3.9205,-2.5214933615972233,mp-559424,1,5.0
Sr3FeCo(ClO2)2,0.6061000000000001,-2.401858762727272,mp-1218403,1,0.0
Li3FeB8O15,3.195699999999999,-2.652141746975308,mp-776601,1,4.0
SrLaCoRuO6,0.0,-2.286725569500001,mp-1218222,1,0.0
K5AlCr4(MoO4)10,2.756,-2.188899904604166,mp-1224806,1,4.0
VXe2F17,2.4443,-1.4008346705,mp-29759,1,3.0
MgMn2Fe2(PO4)4,0.0149,-2.47171751197734,mp-1234401,1,0.0
Li4Mn5Co3O16,0.0,-1.842892699392447,mp-768354,1,0.0
Sr6Ca2Co5(CuO8)3,0.0,-1.871011173999999,mp-1075901,1,0.0
ZnCrPO5,1.8273,-2.380194891830356,mp-1046678,1,2.0
Li2Fe(Si2O5)2,3.3375,-2.8858837139215683,mp-772589,1,5.0
Mo2PO8,0.0,-2.18411558974026,mp-25922,1,0.0
BaZn(MoO2)4,0.0,-1.523203352142858,mp-1044491,1,0.0
Li8Mn12Ni4O31,0.9554999999999992,-1.930436683760709,mp-771196,1,1.0
Li4Mn3Cu3(SnO8)2,0.0,-1.7616003931116582,mp-774670,1,0.0
Rb4WO5,2.9242,-2.033217402166666,mp-1209481,1,4.0
Li4Mn3Fe3(CuO8)2,0.0,-1.6854300848973731,mp-756989,1,0.0
Rb2SrV4O12,2.799699999999999,-2.560715802105264,mp-510558,1,4.0
Co5(P2O7)4,0.0,-2.098611341149825,mp-1178442,1,0.0
Dy2CoPtO6,1.767599999999999,-2.5754287548333332,mp-1213101,1,2.0
MgFeSbO4,0.0,-1.855797383571429,mp-2222767,1,0.0
Li6VFeP2(CO7)2,2.7163,-2.386358978818682,mp-756847,1,4.0
WBrCl3O,1.9672,-1.316920786666666,mp-1216192,1,2.0
BaNaSbWO6,1.394299999999999,-2.24982658413793,mp-1517995,1,2.0
Sr3LaTi2Mn2O12,1.4462000000000002,-3.142004831126438,mp-1573704,1,2.0
Li15Cr15SiO32,1.639,-2.381150207142856,mp-861689,1,2.0
Cs2ZrMn(PO4)3,0.0,-2.82092223098263,mp-1213813,1,0.0
K5Na3Nb6(WO12)2,0.0,-2.658750792509697,mp-1076412,1,0.0
Na5Cr2As(CO4)4,0.2379,-1.9777055431927344,mp-769542,1,0.0
K2MnF4,2.807,-2.990939026061577,mp-557610,1,4.0
Nd4Co3O10,0.0,-2.728539570735294,mp-562894,1,0.0
CsEr(WO4)2,4.7027,-2.64690820663793,mp-1213193,1,7.0
Co8C24(SO7)3,1.4802,-0.6206113368303561,mp-651461,1,2.0
V3Ni2P6WO24,1.7489,-2.48804289077381,mp-1101187,1,2.0
VP2H13CN3O11,2.8281,-1.466989856388249,mp-1100919,1,4.0
Li10Ti11Cr9O40,0.0,-2.9218297829999993,mp-769567,1,0.0
NdAg(WO4)2,3.143499999999999,-2.360732066180555,mp-1210051,1,4.0
Sr7CaFe6(CoO10)2,0.0,-2.303141564652778,mp-1076631,1,0.0
Ba2ScFeAsO3,0.0,-2.442726025624999,mp-862301,1,0.0
CuMo3O11,0.0,-1.387505667,mp-1198174,1,0.0
K3Fe3P4H2O17,2.2497,-2.343174429580049,mp-720729,1,3.0
Tl(MoO3)3,0.0,-1.841663305256411,mp-541775,1,0.0
Mo4H12N2O15,3.2002,-1.414301863636364,mp-1194636,1,4.0
Pr2MnNiO6,1.6564,-2.760933286626437,mp-1209751,1,2.0
K5Na3Nb5(WO8)3,0.0,-2.585916285259698,mp-1076481,1,0.0
CaLaFeO4,0.470799999999999,-2.905729902142857,mp-1227068,1,0.0
TlCr4BiO14,2.0832,-1.608283539166667,mp-616232,1,3.0
MnPH4O5F,3.76,-1.969065699381157,mp-1190204,1,5.0
BaTm2(MoO4)4,3.2386,-2.6371297000000022,mp-1214443,1,4.0
Fe3CoSb2(PO4)6,1.607199999999999,-2.248092414662698,mp-829913,1,2.0
Na3Co6Ag(P2O7)4,2.75,-2.257784185064075,mp-1221297,1,4.0
Li4Mn3Fe3(CoO8)2,0.0,-1.707378147397373,mp-754076,1,0.0
Ni(SO4)2,0.0,-1.44985851590909,mp-772505,1,0.0
Li9V21O40,0.653999999999999,-2.507324756571427,mp-766679,1,0.0
SrCaNbCrO6,2.083999999999999,-3.101288030499999,mp-1218539,1,3.0
CoBiO4,0.5144000000000001,-1.21933431,mp-755614,1,0.0
Rb2NiH8(CO5)2,3.0871,-1.564111735,mp-24623,1,4.0
V2P2H4O11,1.7147,-2.156970280093985,mp-744747,1,2.0
Li8Mn7Fe(PO4)12,0.0,-2.461569071946029,mp-776668,1,0.0
FeF6,0.5263,-1.5970489985714291,mp-1213622,1,0.0
BaPr2NiO5,2.167399999999999,-2.98089192425926,mp-18802,1,3.0
CaTiMo(PO4)3,1.0023,-2.913297633736772,mp-1044354,1,1.0
Mn3Fe(PO4)6,0.0,-2.174062561225006,mp-774347,1,0.0
Li5(NiO2)4,0.0,-1.502853623333332,mp-780518,1,0.0
Rb2Mo2H4C4O15,2.7213000000000003,-1.726010791481481,mp-554482,1,4.0
Na3MnBAsO7,1.5191,-2.187534427787356,mp-770765,1,2.0
VFeO4,0.0,-2.066525278333333,mp-18949,1,0.0
Li4Ti4Mn4CrO18,0.0,-2.627635813657767,mp-769455,1,0.0
RbLa(WO4)2,3.7897,-2.6731323460416663,mp-18605,1,5.0
Al3CrO6,3.8929,-3.147947862999999,mp-1228485,1,5.0
Li4Nb2Ni3Sn3O16,2.152,-2.210937124940476,mp-760315,1,3.0
RbV(IO4)2,2.7622,-1.477540501875,mp-556847,1,4.0
Mg14CrCoO16,0.006599999999999,-2.8349515796875,mp-1035031,1,0.0
MgV4O8,1.269,-2.540083061923077,mp-2218937,1,1.0
Mg4Co5(TeO6)3,1.4502000000000002,-1.9021889325,mp-1046497,1,2.0
Li3V6Fe4(CuO12)2,0.0,-2.048156287692307,mp-772865,1,0.0
Li2FeF5,3.66,-2.916305208333333,mp-776635,1,5.0
CaLa4Ni3WO12,1.157,-2.405541790476191,mp-1233168,1,1.0
Ca2Co3O8,0.0,-1.846933615384614,mp-1408395,1,0.0
Mn3Nb2Cr3O16,0.7195,-2.249142898074712,mp-771853,1,1.0
SmCoC6N6O5,0.5026,0.308861417631578,mp-1208956,1,0.0
Sr2Ca2TiMn3O12,0.0,-2.712902771356321,mp-1077669,1,0.0
Li5CoO3F,0.1718,-2.002049005666666,mp-760036,1,0.0
Li2Cr3O10,2.0403,-1.704335493111111,mp-772426,1,3.0
MgW2O7,4.0946,-2.165405251,mp-1042288,1,6.0
K(MoO3)3,0.0,-1.999278806711538,mp-16909,1,0.0
Ba2NaCe2Ti2FeSi8HO27,0.0072,-3.164957372143091,mp-1214950,1,0.0
Li2TiCrO4,0.3064,-2.6598656915625,mp-1302453,1,0.0
LiAl(MoO4)2,3.6252,-2.351329154027778,mp-19209,1,5.0
KBa2V2ClO7,3.2799,-2.797841482480769,mp-1223502,1,4.0
Si4MoH36C12(NO)2,3.6819,-0.330360844035087,mp-1195132,1,5.0
PrCrO3,2.0419,-3.121656220833332,mp-1105822,1,3.0
Sr4Ca4Fe3(CoO4)5,0.0,-2.217424614861111,mp-1076502,1,0.0
NaSr9Fe5(MoO6)5,0.6118,-2.469885917627584,mp-706231,1,0.0
Mn3CrO8,0.5742,-1.822919146566092,mp-773120,1,0.0
AlCoP2NO8,1.0388,-1.982441474368132,mp-1229214,1,1.0
Al3Tl4Fe(As2O7)4,2.7875,-1.929971314166668,mp-1229069,1,4.0
LiCa2Mn2Si5HO15,3.4069000000000003,-2.999119769055606,mp-1202461,1,5.0
SrNdCrO4,2.1056,-3.118902086785714,mp-1218137,1,3.0
V3Sb(PO4)4,1.572999999999999,-2.553616035357142,mp-754862,1,2.0
Na2FeNi2(PO4)3,0.0,-2.307405503584358,mp-1197871,1,0.0
MgFe4(S3O23)2,0.0,-0.6696553175438591,mp-1201359,1,0.0
Mn2FeWO6,0.0,-2.002447205586207,mp-1078277,1,0.0
LiNi2(PO3)5,4.0403,-2.4062275722412,mp-25823,1,6.0
FeSb3Pb4O13,1.253,-1.793942594642857,mp-1224890,1,1.0
Li4Co2OF7,1.408599999999999,-2.640621181309524,mp-1311449,1,2.0
Fe3TeC9SO9,0.6772,-0.5194963217028981,mp-560520,1,1.0
SrWO2,0.0,-1.694294828124999,mp-1208617,1,0.0
LiMn2(SO4)3,0.280499999999999,-2.017549905233079,mp-768898,1,0.0
RbTi3FeO8,2.2955,-2.990403979038461,mp-1219542,1,3.0
Sr2FeMoO6,0.6149,-2.5325863264166673,mp-1173284,1,0.0
VCr2O4,0.100899999999999,-2.23123429,mp-1314508,1,0.0
BaAlCuMoO5,0.0,-1.9084245883333344,mp-1042504,1,0.0
KNbW2O9,1.7707000000000002,-2.466136721198718,mp-1223705,1,2.0
Mg6ZnCrO8,1.6177,-2.68699182125,mp-1032507,1,2.0
BaV(AsO4)2,2.4757,-2.249424214374999,mp-557424,1,3.0
Mn3(O2F)2,0.0,-2.147536733754789,mp-763274,1,0.0
Ba2V3HO9,1.9502,-2.717228091083334,mp-1192628,1,2.0
Li2Mn2P2(H4O5)3,2.0708,-1.790440415509528,mp-1177931,1,3.0
Sr8Co8O23,0.0,-2.002559162435897,mp-565434,1,0.0
LaZnCrCuO6,0.0,-1.9400548485,mp-1049069,1,0.0
LiNi9O10,0.0,-1.250244247666665,mp-775737,1,0.0
MgFe2P2O9,2.0533,-2.440606171556122,mp-1041009,1,3.0
ZnCoNiP2O9,0.180099999999999,-1.974067785306122,mp-1043126,1,0.0
Li4FeNi3O8,0.0,-1.601898152083333,mp-765712,1,0.0
LiFe5O8,1.3685,-1.7119847100595251,mp-21735,1,2.0
SrMnP2O7,3.9331,-2.9191447613378863,mp-1208769,1,5.0
Li2TiV3O8,0.0,-2.724660326785714,mp-1304584,1,0.0
Li5Mn17(SiO16)2,0.4331,-2.162873726455255,mp-768071,1,0.0
CsLiH4W2SO3,0.0,-0.276684537540707,mp-1213673,1,0.0
Na4Co9(MoO4)12,0.6292999999999991,-1.816881066376948,mp-1221350,1,0.0
Fe(SO4)2,0.0,-1.63868466530303,mp-771312,1,0.0
Li3CrO4,1.1496,-2.180159844375,mp-770632,1,1.0
Li5VO4F,1.5311,-2.455651893787879,mp-759609,1,2.0
Li2Ti3V3O12,1.0266,-2.868105422083334,mp-753240,1,1.0
Ca5Cr3ClO12,0.9861,-2.6645643369047622,mp-1196512,1,1.0
Na3Fe2Mo5O16,0.7362000000000001,-1.940355878812997,mp-566333,1,1.0
Cr3H24C8(NO5)2,2.1774,-0.605575382925532,mp-728473,1,3.0
Y2MgCr3O9,0.0,-2.591997611333333,mp-2232778,1,0.0
LiMnBO4,1.0745,-2.3059453822044342,mp-1176642,1,1.0
Li4Mn3Sn3(SbO8)2,0.0,-2.094195003647372,mp-1177363,1,0.0
Ti3VCr2(PO4)6,0.0,-2.801768456607141,mp-1101287,1,0.0
V3Co10AsO20,1.5644,-1.653237573897059,mp-1208112,1,2.0
Li3Fe4P9O32,0.5851000000000001,-2.322519145453868,mp-705390,1,0.0
Sn3WO6,2.161499999999999,-1.85806374525,mp-556980,1,3.0
Y6WO12,3.4343,-3.6557847515789472,mp-19005,1,5.0
LiCe(MoO4)2,0.0,-2.466903007777778,mp-1222481,1,0.0
Cr(WO4)2,0.0,-1.9979559686363624,mp-1041693,1,0.0
La2Mg(CoO3)2,1.392999999999999,-2.564896122272728,mp-2240365,1,2.0
AlCu3(NiO3)4,0.0,-1.00328239,mp-1045829,1,0.0
Cs2Mo(SO)2,2.342,-1.608473800615764,mp-1193654,1,3.0
Er2CoTe2(SO7)2,1.8416,-2.297615561825396,mp-1190196,1,2.0
Mg14FeSnO16,2.7164,-2.742063164531249,mp-1036012,1,4.0
Ca4Mn3AlO11,0.084799999999999,-2.701444852897006,mp-1247717,1,0.0
NaMn3CuH24(SO6)4,4.2021,-1.465584696231095,mp-1180020,1,6.0
K4Mo2S4BrO20,0.0,-1.430909550612903,mp-1199707,1,0.0
Ge2MoO6,1.5908,-1.998700590000001,mp-1043238,1,2.0
Li3Mn2FeO6,0.3992,-2.034383114655172,mp-777446,1,0.0
NaCoH2C3O7,2.6116,-1.5756030293842371,mp-758128,1,3.0
Na2ErPWO8,4.7911,-2.806768939415498,mp-1201517,1,7.0
Cr4(CuO4)3,0.0,-1.587150263684211,mp-1043136,1,0.0
Ni4P7O24,0.0,-2.092600730214286,mp-26384,1,0.0
Na3VSO3,3.149,-2.000201474579742,mp-559500,1,4.0
KVPbO4,3.3834,-2.188754628178571,mp-541508,1,5.0
Tl2Mo3SeO12,2.3865,-1.726116859945024,mp-1201686,1,3.0
Li20(CoO2)21,0.0,-1.719215346827308,mp-532301,1,0.0
ErTl(WO4)2,2.9076999999999993,-2.5078555927777773,mp-1213014,1,4.0
FeBi25O39,2.2279,-1.619026768692307,mp-757766,1,3.0
V2CoO7,0.5191,-1.7894582152499992,mp-1336251,1,0.0
LiNi2P5O16,0.0,-2.276122712772818,mp-26192,1,0.0
FeH4N2F5,0.4173,-1.057408270625,mp-1212951,1,0.0
BaMgV2CuO8,0.1293,-2.478418851153845,mp-1228071,1,0.0
SrCoF5,0.7891,-2.9864417367857152,mp-1208712,1,1.0
Li4Co7O3F13,0.223299999999999,-2.285537745679013,mp-752818,1,0.0
MnNi(PO4)2,0.284999999999999,-2.208509382268062,mp-771700,1,0.0
Ba2Tl2Zn3(WO3)4,0.0,-1.317876036376812,mp-1842679,1,0.0
BaMnOF5,0.0,-2.723415279741379,mp-1189956,1,0.0
LiCo2(SO4)3,0.4145,-1.786329845879629,mp-769110,1,0.0
Na2ZrCo(P2O7)2,3.2085,-2.729934267787729,mp-19187,1,4.0
HoCrO4,0.296799999999999,-2.7799262849999993,mp-19076,1,0.0
K3CaV5O15,2.7603,-2.524329174447917,mp-561144,1,4.0
CaH36W6C12S6O25,2.9025,-0.936517728197674,mp-1200644,1,4.0
Sr2Ca2Mn3FeO12,0.0,-2.377887596689654,mp-1099674,1,0.0
Rb4Th(MoO4)4,3.6984,-2.417572738,mp-1194619,1,5.0
Zn3Cr6(FeO6)4,0.1932,-1.660517430810811,mp-1360264,1,0.0
Ti3Nb2Cr(PO4)6,0.106499999999999,-2.763142391884921,mp-776002,1,0.0
P2W2O11,3.1399,-2.383806170785705,mp-19522,1,4.0
RbVOF3,2.7001,-2.975115630416667,mp-559739,1,4.0
Mn3VSb2(PO4)6,0.023499999999999,-2.406189365323618,mp-764734,1,0.0
CsMgMnP3HO10,2.288399999999999,-2.390957666339105,mp-2229931,1,3.0
TiFe(PO4)2,0.2774,-2.7554561174404752,mp-752448,1,0.0
CoH12(BrO7)2,2.1314,-0.925316948103448,mp-643575,1,3.0
CsMg14CrO16,0.0,-2.647948552489224,mp-1099222,1,0.0
BaMg6MnO8,3.9317,-2.53096298299569,mp-1032679,1,5.0
LaMgCr2O6,0.0,-2.72608363,mp-1044928,1,0.0
CaMn3(CO)6,0.0,-0.515109434612068,mp-1215068,1,0.0
ZnW2O7,4.1933,-1.8920842635,mp-1042302,1,6.0
SrCr2O7,2.5156,-2.093333399125001,mp-557093,1,3.0
YNiF5,2.2381,-3.307505016428571,mp-1445738,1,3.0
K2MnP2H2(O4F)2,1.4885000000000002,-2.321173446718632,mp-1199919,1,2.0
Li6V2O5F2,1.8051,-2.491786425333333,mp-764951,1,2.0
MnCr(PO4)2,0.8088999999999991,-2.496907458934727,mp-775016,1,1.0
BaMn3O6,0.0,-2.196269830379312,mp-30153,1,0.0
Mn3CrTe2(PO4)6,0.0,-2.310754350971767,mp-766852,1,0.0