formula,bg,formation_energy,mp-id,fidelity,bg_category
RbV4O10,0.0,-2.359200614500001,mp-753320,1,0.0
Ba2TiMn2Si2PO13,0.0,-3.055706251611346,mp-1214713,1,0.0
SrTiFe3(BiO4)3,2.0819,-2.113115530666667,mp-1217793,1,3.0
LiV3O8,1.793,-2.343562962777778,mp-27503,1,2.0
Na2Mg(FeO2)4,0.9746,-1.759007263850574,mp-2232376,1,1.0
LiV3Zn2O8,1.377499999999999,-2.31999644952381,mp-1280709,1,2.0
CsCrCoF6,2.2148,-2.870498638295019,mp-1225975,1,3.0
Eu2VSbO6,0.0,-2.630698326000001,mp-1516546,1,0.0
Na2FeO4,1.142,-1.345641306108374,mp-19044,1,1.0
Tm2MgW2(ClO4)2,2.633,-2.733762223666667,mp-2232493,1,3.0
Li4Ti4Fe4CoO18,0.0,-2.388870975698924,mp-1177291,1,0.0
K4Na4Mo3W5O24,0.193099999999999,-2.163457768362931,mp-1099601,1,0.0
ScV(TeO4)2,2.9711,-2.27943895298611,mp-1197295,1,4.0
La2Mg(NiO3)2,2.3998,-2.490383331363635,mp-2217604,1,3.0
Mn3VFe2(PO4)6,0.0,-2.386946528101395,mp-758537,1,0.0
TeMoCl7O,2.5316,-1.260353141916666,mp-616455,1,3.0
LaCrAgO6,0.832399999999999,-1.8774336140740744,mp-1040828,1,1.0
Li5(NiO2)8,0.0,-1.259619617988505,mp-758751,1,0.0
Al(NiO2)2,0.0,-1.911670162142856,mp-768600,1,0.0
BaNaGdWO6,2.8728,-2.8934589121379313,mp-1516849,1,4.0
K5HfIn(MoO4)6,3.7205,-2.271835126835586,mp-695069,1,5.0
Li3Co(BO3)2,1.189099999999999,-2.356452307361111,mp-756335,1,1.0
Li4TiV8O18,0.0,-2.5265664065053772,mp-769497,1,0.0
Ni(PtO2)3,0.374,-0.983246442749998,mp-1272688,1,0.0
CrH10N2Cl5O,2.7203,-1.027762694605263,mp-1204986,1,4.0
Mg(Fe2O3)2,0.8881999999999991,-1.7791693118181822,mp-1043253,1,1.0
Li6Mn3(PO4)4,3.3653,-2.585389280426364,mp-780723,1,5.0
CaEu(FeO3)4,0.0,-1.535102543055555,mp-1517148,1,0.0
NaLiV4O12,0.0,-2.034465028595148,mp-1519923,1,0.0
Sr3(CoO3)2,1.3059,-2.316033964545454,mp-1192011,1,1.0
UVAgO6,1.6036,-2.566959402962963,mp-622619,1,2.0
CaV4O8,0.6497,-2.610714884615385,mp-1391864,1,0.0
Mg3Ge3(MoO6)2,2.2601,-2.297397349124999,mp-1363886,1,3.0
NdFe5Bi4O15,1.5224000000000002,-1.8445281857,mp-1220539,1,2.0
Rb3Na(WO4)2,4.5825,-2.237725503848522,mp-1104817,1,6.0
NaPWO6,3.723499999999999,-2.429373616641351,mp-21913,1,5.0
Sr6Y2Co3(Cu2O7)3,0.0,-2.094117923947369,mp-1845875,1,0.0
LaZnCrFeO6,0.868599999999999,-2.2860955825,mp-1044021,1,1.0
Fe2Cu(AsO7)2,0.0,-0.749299164210525,mp-1181853,1,0.0
K3TmV2O8,3.4169,-2.73772675226785,mp-1104265,1,5.0
SmV2O2,0.0,-0.9675612425000012,mp-1209711,1,0.0
Li4Cr3Co2Sb3O16,0.6456000000000001,-2.042945505119048,mp-764773,1,0.0
Li4Co5SbO12,0.0,-1.670971776515151,mp-757593,1,0.0
Ti3MnCu2(PO4)6,0.0,-2.6662736462718932,mp-1101389,1,0.0
Fe2OF2,2.1602,-2.083283962999999,mp-1178466,1,3.0
Eu2Mo2WO12,0.0,-2.393766879705881,mp-1226168,1,0.0
V2NiP2H6O13,1.9135,-2.012604418928572,mp-1179562,1,2.0
Tb2WO6,3.649,-3.318034524814814,mp-771017,1,5.0
LiCaFe3SnO8,2.010399999999999,-2.0786343755952372,mp-1176820,1,3.0
Fe3P3H12C2N2O13F2,0.2509,-1.323304107673745,mp-1201707,1,0.0
Li4Mn3Cu(PO4)4,0.0,-2.518219476274924,mp-757721,1,0.0
Fe3Co3(SbO8)2,0.0,-1.36231523,mp-757039,1,0.0
Ce3W(ClO2)3,0.0,-3.128397221153842,mp-1213830,1,0.0
Sr2MgCdWO6,0.7561,-2.353603884090909,mp-2215923,1,1.0
Li4Mn3Cr3(SbO8)2,0.529299999999999,-2.214017541683086,mp-774806,1,0.0
Na3CoF6,2.7172,-2.654233963913793,mp-1210465,1,4.0
Ti(FeO2)2,1.9887,-2.367246567976191,mp-780585,1,2.0
LiCr2P3O13,1.1477,-2.278648884592732,mp-705400,1,1.0
LaZn(FeO3)2,0.0,-2.0947431885,mp-1043921,1,0.0
K4NbFe3(PO4)6,2.3259,-2.4431578167594,mp-726116,1,3.0
Cs2RbFeF6,4.1178,-2.9258412786810353,mp-1112167,1,6.0
Fe3Pb4BrO8,1.233299999999999,-1.5120968790624991,mp-1212776,1,1.0
Ba2YTlCr2O7,0.0,-2.575966221410257,mp-1046345,1,0.0
Rb3Cr(HO)6,2.9455,-1.6063255506249992,mp-1200241,1,4.0
LiV3(O2F)2,1.4523,-2.690912926833333,mp-759980,1,2.0
MnTl(PO3)3,4.3339,-2.492708632513782,mp-1196500,1,6.0
Li2VOF4,1.6382999999999992,-3.032055145208333,mp-780857,1,2.0
Nd3W(ClO2)3,3.5002,-3.111938710576923,mp-1209888,1,5.0
La17Mn18O54,0.0,-2.943238126042232,mp-531223,1,0.0
Li5Ti3Mn2(PO4)6,0.0635,-2.749145872759646,mp-776210,1,0.0
CaFeAsO5,1.746099999999999,-2.2042568634375,mp-1325009,1,2.0
V3O5F3,0.0,-2.5714358236363632,mp-759530,1,0.0
Li3FeSiBO7,0.0,-2.424018424551282,mp-771289,1,0.0
Sr2WO5,3.1883,-2.900101233124999,mp-772676,1,4.0
Sr2ErMoO6,1.2643,-3.113661218499999,mp-18744,1,1.0
CoN7ClO5,0.0,0.421408699285714,mp-1214768,1,0.0
Li11Ni13O24,0.0,-1.457736674305555,mp-758517,1,0.0
Ca5Nd5Mn9CrO30,0.0,-2.764111021977586,mp-699041,1,0.0
Li2TeMoO6,3.0987,-2.015242366333333,mp-1203622,1,4.0
Sr3Ca5Fe5Co3O20,0.0,-2.281830828333334,mp-1076614,1,0.0
Cr(PO3)4,0.2983,-2.449520646386555,mp-540424,1,0.0
CaNiBP2H3O10,4.0377,-2.381019906233465,mp-23811,1,6.0
LiNiPCO7,0.0,-1.809108463906925,mp-25412,1,0.0
Sr2MnBiPbO6,0.0,-2.290264262766458,mp-1173263,1,0.0
Ba2Zn2Cr7Ga2(SnO11)2,0.0,-2.390260479594595,mp-1214629,1,0.0
PrEuFeCuO6,0.0,2.320763722083333,mp-1516741,1,0.0
Mn3Co2(PO5)4,0.446399999999999,-1.883258651288432,mp-1211298,1,0.0
Ca2La5Mn7NiO24,0.0,-2.664929430269672,mp-1357240,1,0.0
VFe(P2O7)2,1.2889,-2.475534951678572,mp-767722,1,1.0
RbVSO6,1.8148,-2.201899256388889,mp-642398,1,2.0
Sr5Ca3TiMn7O20,0.0,-2.679591573231961,mp-1076192,1,0.0
Mg2CoO4,0.7214,-2.140810158214286,mp-753991,1,1.0
ZnFe3(P2O7)2,2.4743,-2.332636473344155,mp-1044037,1,3.0
KVHO3,2.9702,-1.575889043083333,mp-1211305,1,4.0
W2OF8,2.0157,-2.638586075,mp-760102,1,3.0
Li3Fe5O9,1.6984,-1.768304815882352,mp-770655,1,2.0
K3VMo3H4O15,2.9506,-1.948169202567308,mp-1197826,1,4.0
Mg3Ta6(FeO6)4,2.6832000000000003,-2.793134669432431,mp-1042715,1,4.0
ZrCoF6,0.0,-3.404382454999999,mp-556360,1,0.0
NaFeBP2H3O10,1.9647,-2.248301606032316,mp-505478,1,2.0
LiNi4O5,0.0,-1.315415985833333,mp-677318,1,0.0
Fe5Sn(PO4)6,1.255499999999999,-2.33060874063492,mp-772062,1,1.0
CsV(MoO4)2,0.0,-2.212936793304597,mp-561748,1,0.0
CoHRu3(CO)13,2.0282,-0.8799520666532261,mp-734828,1,3.0
Li3Mn2CoO6,0.9128,-2.001385837155173,mp-1304294,1,1.0
Na3Zn2(WO4)3,1.846499999999999,-2.024652352206896,mp-1210410,1,2.0
MgMn3VO8,0.7370999999999991,-2.159406646830239,mp-2241282,1,1.0
ScFe3O8,0.0,-1.53137416375,mp-1219340,1,0.0
V3Cr2Sn(PO4)6,0.0,-2.524515427023809,mp-850428,1,0.0
HfTl8(MoO4)6,3.4877,-1.9073256970940191,mp-645513,1,5.0
Ba2CaFe2CoF14,2.6655,-3.3188854862499992,mp-1214725,1,4.0
Li5Mn8(BO3)8,0.238499999999999,-2.4458796098544062,mp-777359,1,0.0
Ba6Na2Mn2Ru2O17,0.3858,-2.336969942538645,mp-542399,1,0.0
V2SnO7,2.6767,-2.259000095750001,mp-773455,1,4.0
KVH6SO9,2.93,-1.7174275015138891,mp-560059,1,4.0
NiCO3,0.0,-1.6542193050000011,mp-19147,1,0.0
K2Ni(CO5)2,0.444,-0.890907925966665,mp-1212282,1,0.0
Fe19Co5O32,0.125499999999999,-1.476620489821428,mp-757738,1,0.0
KLa5V2O13,2.9836,-3.387968432488095,mp-1195137,1,4.0
Ba2Tl2Zn2Co3O10,0.0,-1.543201972982458,mp-1046507,1,0.0
EuMnNbSnO6,0.0,-2.569007454293105,mp-1516338,1,0.0
Ca2V2PbO8,3.2257,-2.6483442484615383,mp-1227801,1,4.0
Li3Ti2Mn5O12,0.6082999999999991,-2.446046844681294,mp-758512,1,0.0
RbMgCrF6,3.3825,-3.232546520277778,mp-1219571,1,5.0
Li(WO2)2,0.0,-1.807185349047618,mp-504103,1,0.0
Mn3CoNi2(PO4)6,0.0,-2.203042930879173,mp-1176478,1,0.0
CaLaTiCrO6,2.687699999999999,-3.376717194583332,mp-39159,1,4.0
Co2Hg2H2S2O11,1.650799999999999,-1.292491763684211,mp-510344,1,2.0
Li4Cr3P4O15,2.6174,-2.5651198423809523,mp-772300,1,3.0
Li6Cr3Sb(PO4)6,1.8971,-2.565437666196428,mp-758334,1,2.0
Na2Mo(HO2)2,2.0458,-1.078640057389846,mp-1210611,1,3.0
Li4Ti3V3Cr2O16,0.8934999999999991,-2.778582677619048,mp-772715,1,1.0
Na2VSiCO7,1.9359,-2.455030448979885,mp-772154,1,2.0
LiFe2(CO3)4,0.0978,-1.709615278070175,mp-758039,1,0.0
Cr4O9,0.1945,-1.6949272780769231,mp-1041443,1,0.0
CoSe2O5,2.3763,-1.272770595898438,mp-18973,1,3.0
LiMn7O14,0.0,-1.858937763811389,mp-1176738,1,0.0
NdFeO3,1.7349,-2.776405970499999,mp-20407,1,2.0
Zn3Cu(WO4)4,0.050699999999999,-1.958533805416666,mp-1215825,1,0.0
FeH10N2OF5,3.7672,-1.443161746578947,mp-24619,1,5.0
KCo2H3(SeO5)2,0.0,-1.38641459670486,mp-1223548,1,0.0
Fe5P3O13,1.4931,-2.196447655901361,mp-763767,1,2.0
NdSm(FeO3)4,0.0,-1.807266071805554,mp-1519418,1,0.0
Te2MoCl4O,1.211,-1.061626007916666,mp-554135,1,1.0
SmEuFeSnO6,0.0,-2.5376785775,mp-1516960,1,0.0
V16O3,0.0,0.7290848549999991,mp-30064,1,0.0
CsMg30CrO32,2.9493,-2.861948040932112,mp-1039740,1,4.0
Fe3P2(HO)8,1.6698,-1.232888043299319,mp-1212790,1,2.0
Ca3TiNiO6,3.1552,-2.9818401284848473,mp-997184,1,4.0
Na3V2(GeO4)3,0.7941,-2.207107278331896,mp-1012686,1,1.0
Li2Mn2(PO4)3,0.8459,-2.470617193760912,mp-759308,1,1.0
Li3CoSiCO7,1.233699999999999,-2.223874916923077,mp-770659,1,1.0
LiMg30MnO32,1.5303,-2.979540721582255,mp-1038038,1,2.0
SmTl(WO4)2,2.744,-2.494713035277778,mp-18041,1,4.0
Ca2Co9O13,0.0,-1.5226154127083331,mp-1370001,1,0.0
Sr5Cr3O12F,1.0321,-2.785607708571428,mp-18859,1,1.0
Ba2Mg2Tl2Cr3O10,0.0,-2.13278838508772,mp-1324064,1,0.0
Mg30ZnNiO32,4.0442,-2.939539594999999,mp-1037547,1,6.0
Eu2CrInO6,0.0,-2.480695680666667,mp-1517471,1,0.0
MgMn2(WO4)2,1.5824999999999991,-2.100044560835543,mp-2226704,1,2.0
K4Na4NbW7O24,0.0,-2.246943295612932,mp-1076751,1,0.0
Mg2CrWO6,1.596099999999999,-2.560821232999998,mp-1047222,1,2.0
NiSnF6,0.0,-2.637825353124999,mp-560023,1,0.0
MgFePO5,1.8649,-2.514721018705357,mp-1445676,1,2.0
Li2Fe(BO3)2,0.0,-2.31413772590909,mp-1177982,1,0.0
La3FeO6,2.0848,-3.3584037165,mp-1180667,1,3.0
Li5Ni3O5F3,0.405199999999999,-1.982216847916666,mp-759011,1,0.0
K2FeH2OF5,2.7881,-2.469089462227273,mp-696335,1,4.0
Mg14CoBO16,1.952199999999999,-2.757753665911458,mp-1035075,1,2.0
SrLa4Mn3(CuO9)2,0.0,-2.10382411656404,mp-1209217,1,0.0
Mn3Zn2(AsO6)2,0.0,-1.599405836778584,mp-1210774,1,0.0
Sr2Ce2YCoCu2O11,0.4184,-2.782901580526315,mp-1218876,1,0.0
SrNdV4O12,0.0,-2.63650238263889,mp-1520627,1,0.0
HoCoC6(N3O2)2,1.6674,0.094913038055556,mp-1212685,1,2.0
NdEuZrFeO6,0.0,-3.042082952250001,mp-1518988,1,0.0
Li12VCo3P4(CO7)4,0.7799,-2.32150045978022,mp-766565,1,1.0
MgCu3(MoO3)4,0.8205,-1.700195746249999,mp-1043122,1,1.0
NaMoO3,0.0,-2.023017042275861,mp-998627,1,0.0
Li3Mo3P3O17,1.7785000000000002,-2.41688222543956,mp-557652,1,2.0
ZnFe3P3O13,1.9597,-2.238952221696429,mp-1047809,1,2.0
U(WO4)2,0.181599999999999,-2.469348226931818,mp-704795,1,0.0
TiMnO3,2.004899999999999,-2.9546040562528733,mp-19082,1,3.0
MgNbV3O10,0.0151,-2.484283822333333,mp-2232233,1,0.0
KCr3O8,1.9034,-1.942798178520831,mp-19335,1,2.0
Li4V5O12,0.7449999999999991,-2.426929847539682,mp-851075,1,1.0
Li8Mn15CrO32,0.315199999999999,-2.079074758493431,mp-770529,1,0.0
Ba2CaMnFe2F14,2.1519,-3.412094242896551,mp-1214779,1,3.0
Pr7Mn8O24,0.0,-2.7994560498747423,mp-678801,1,0.0
SrLiVF6,2.6226000000000003,-3.57263433537037,mp-1208625,1,3.0
BaSrCeCrO6,0.0,-3.014313949999999,mp-1516756,1,0.0
AlWO4,2.9802999999999993,-2.682709359999999,mp-1182867,1,4.0
Li3Fe(Ni2O5)2,0.0,-1.305006534166666,mp-757287,1,0.0
KFePO4F,2.4331,-2.335828393205357,mp-6834,1,3.0
Na7Fe4(AsO4)6,0.5758000000000001,-1.877384474381834,mp-1195747,1,0.0
KHoCoSi2O7,3.0358,-2.928976559354166,mp-735519,1,4.0
ZnCr2O7,2.4233,-1.585691002499999,mp-1341886,1,3.0
Ca2TaWO6,2.1053,-3.034219709733332,mp-1367958,1,3.0
Co2P2NO8,0.8775000000000001,-1.512192328021978,mp-1213809,1,1.0
Ba2CaCuNi2F14,0.0,-2.960244863,mp-1046122,1,0.0
Fe2(SO7)3,0.0348,-0.399784829711538,mp-1213661,1,0.0
VSO8,0.0,-1.07020773,mp-728909,1,0.0
Ho2V2O7,1.2503,-3.241677890909092,mp-1178177,1,1.0
K2Mo2C4O15,0.2636,-1.511779120195652,mp-1212036,1,0.0
Li3V4P9O32,1.3638,-2.618811850349702,mp-705002,1,2.0
V5O7,0.5427000000000001,-2.2826896766666662,mp-1046039,1,0.0
Li4Co3O3F4,0.0,-2.270118624880953,mp-759580,1,0.0
Rb2FeF4,2.8943,-2.827688656428572,mp-1206640,1,4.0
V4P9O32,0.0,-2.4672550471507932,mp-705008,1,0.0
LiFe3SiPO8,3.5642,-2.386227039141156,mp-1222519,1,5.0
Li7Cr3Co(PO4)6,0.0,-2.556543429297328,mp-780115,1,0.0
ZnCr4O6,0.0,-1.942549378636362,mp-1042605,1,0.0
W(SO4)2,2.8632,-1.826408281590908,mp-850781,1,4.0
Li47(NiO4)8,1.067,-1.862523262950191,mp-850945,1,1.0
Ti2Mn3Fe3O16,0.0,-1.963817381685824,mp-755215,1,0.0
BaCaHfWO6,0.0,-3.056130819,mp-1521252,1,0.0
MnFe2(PO8)2,0.0,-1.14987939105794,mp-1181160,1,0.0
Tl3(MoO4)2,0.0,-1.55915288923077,mp-25272,1,0.0
Li2V6O15,0.0,-2.369821123985507,mp-27751,1,0.0
Mn(O2F)2,0.7807000000000001,-1.092780377204433,mp-1211062,1,1.0
ErNiO3,0.0,-2.5175578599999993,mp-18983,1,0.0
ScCu(WO4)2,0.9948999999999992,-2.340068339583332,mp-1209155,1,1.0
Ba3NiRu2O9,0.0,-2.186366352333339,mp-22363,1,0.0
MoIrO6,0.0,-1.435075251874999,mp-1047086,1,0.0
Mn3VCu2(PO4)6,0.0,-2.258302291156949,mp-1176676,1,0.0
FeH24C6(IO3)2,4.1759,-0.5972732215384601,mp-1181484,1,6.0
Mn6OF11,1.2102,-2.850571506532567,mp-774350,1,1.0
LiV(SO4)3,1.325699999999999,-1.907784593578431,mp-772428,1,1.0
Y3Mn2Sb3O14,0.0,-2.716891828902821,mp-1216224,1,0.0
Mg14NbNiO16,0.0495,-2.7769472556249992,mp-1034850,1,0.0
BaV2O6,2.878,-2.693702212592591,mp-18929,1,4.0
Mn(C2O3)2,0.129599999999999,-0.784111436175549,mp-1180381,1,0.0
AlTe(WO4)2,0.4372,-2.078406794722221,mp-1041870,1,0.0
Fe2H4O2F5,1.587,-1.995273671923077,mp-758075,1,2.0
NaMo2H25(C4O5)2,2.6772,-0.6983384760897681,mp-1201482,1,4.0
Mn5V2Pb3O16,0.607699999999999,-2.016048719602122,mp-631631,1,0.0
La2MgFe2(MoO6)2,1.0145,-2.486236675526316,mp-2230275,1,1.0
MnGaFeO4,1.5104000000000002,-1.997825486490147,mp-1221831,1,2.0
SrCaMnO4,0.0,-2.708866936133004,mp-1218332,1,0.0
Ca4Si6W3O19,0.0322,-2.656306745937499,mp-1214557,1,0.0
Ba2Tl2Zn2Fe3O10,0.0,-1.64432540508772,mp-1046524,1,0.0
Gd2MoO6,2.1748,-3.140404400555556,mp-582797,1,3.0
KBaCeMnO6,0.0,-2.616402962518104,mp-1517646,1,0.0
Mg14MnZnO16,1.7804000000000002,-2.879416433060345,mp-1036184,1,2.0
Rb2CaV2O7,3.4941,-2.6407835602083343,mp-559758,1,5.0
Li4MnCrO6,1.0548,-2.243357170522031,mp-768712,1,1.0
Ti3CrSn2(PO4)6,0.028599999999999,-2.786133101051587,mp-776286,1,0.0
Li2Ni2(MoO4)3,2.964299999999999,-1.938417592719297,mp-1211383,1,4.0
CoB12H28(NO15)2,1.7151,-1.848557908835616,mp-735475,1,2.0
Cs2MnV2(BrO3)2,1.8578,-2.231622479403182,mp-572800,1,2.0
Cs2LiCr3F12,3.1832,-3.11173661403576,mp-1226357,1,4.0
NaV3P2O13,2.1674,-2.473475569771844,mp-776555,1,3.0
Li4V3CoCu2(PO4)6,0.0,-2.418952804779762,mp-1177342,1,0.0
LiCo(SO4)2,0.092,-1.765250341527778,mp-1176804,1,0.0
Mn2Co3Te3O16,0.043399999999999,-1.390211058577586,mp-755888,1,0.0
RbNa7(CoO3)2,0.2889,-1.458611765447198,mp-550300,1,0.0
BaNd2NiO5,1.9985,-3.010076863333333,mp-18763,1,3.0
Ga(W3O10)4,0.117599999999999,-1.901984853349056,mp-727445,1,0.0
Li5FeNi3O8,0.0,-1.61118840362745,mp-759765,1,0.0
Mn2F5,0.0,-2.778075849408868,mp-753215,1,0.0
Ba10MgMn3V8(Cl3O7)4,2.4433,-2.7472482340127913,mp-1228946,1,3.0
Ba2Mg3Tl2(CoO3)4,0.0,-1.615805362681159,mp-1046344,1,0.0
RbV2PO11,0.6071000000000001,-1.64239503647619,mp-1195080,1,0.0
Mg7Co17O32,0.0,-1.693552856696429,mp-767945,1,0.0
MgCr3(FeO4)2,1.9517,-2.234407476785713,mp-2228448,1,2.0
KNiBiWO6,1.3429,-1.730307628724999,mp-1519358,1,2.0
NaVSiCO7,1.8429,-2.365184250579937,mp-772044,1,2.0
NaLiZrWO6,2.2652,-2.644630696471264,mp-1516357,1,3.0
Li6VCoP2(CO7)2,0.907799999999999,-2.362911470357143,mp-757109,1,1.0
V2OF8,2.5574,-2.750356062954545,mp-1101223,1,3.0
Li6Fe5SbO12,0.573199999999999,-1.9311833799999991,mp-765615,1,0.0
BaMnO4,0.5058,-2.064723187155174,mp-1214463,1,0.0
Ca2Mn2Si4H8O17,1.2933,-2.374654509117032,mp-1195231,1,1.0
Fe39Si3O56,0.7038000000000001,-1.7085785620408152,mp-1178317,1,1.0
Li3FeBO4,3.1401,-2.241013413796296,mp-778748,1,4.0
MgNi4O9,0.0,-0.7424785453571421,mp-1343548,1,0.0
Li4VFe(WO6)2,1.261,-2.211354143666666,mp-757500,1,1.0
Li3V4SnO12,1.3659,-2.364018471250001,mp-754315,1,2.0
LiFe7(OF3)3,2.3048,-2.253194045666667,mp-754332,1,3.0
Ba2Ca3Tl2(WO3)4,0.0,-1.949094912898551,mp-1843918,1,0.0
Ti5Mn3O16,1.4196,-2.771185909602491,mp-776100,1,2.0
YW2O9,1.0505,-2.119530889166667,mp-1191214,1,1.0
K3Mo4H6O16F,3.3179,-1.862435110474999,mp-744188,1,4.0
Ca2NiIrO6,0.0,-2.094400157,mp-1047142,1,0.0
Cs5CaNi4F15,5.4603,-2.835184835531035,mp-556893,1,7.0
ZnFeAsO5,1.9675,-1.682058298437501,mp-1047105,1,2.0
YCo(BO2)5,3.1218,-2.86607626637255,mp-19468,1,4.0
Li2CeSm(MoO4)4,0.139499999999999,-2.483759578402777,mp-1238771,1,0.0
NaNi3O8,0.0,-0.445798451781609,mp-1102157,1,0.0
SrLaMnSnO6,0.9869,-2.785886013293104,mp-1218210,1,1.0
Mg6CoSiO8,0.8366999999999991,-2.518662201249999,mp-1032193,1,1.0
ScCrO3,2.417799999999999,-3.130813287000001,mp-18961,1,3.0
LaZnFeMoO6,1.703199999999999,-2.312481552,mp-1044082,1,2.0
LiInMo3O8,0.0,-1.922488641538462,mp-22805,1,0.0
Ba2VCu2F12,0.6976000000000001,-3.036037740588236,mp-1214695,1,1.0
Ba4MgCo(ReO6)2,0.0,-2.5825823395,mp-2230422,1,0.0
Na3MnO4,1.846099999999999,-1.78920434150862,mp-1210340,1,2.0
BaZnMoF7,3.8518,-3.14330971125,mp-1047902,1,5.0
LiFe2(P2O7)2,0.0,-2.349222328424036,mp-1200149,1,0.0
KNiPO10,0.287199999999999,-0.6799731828379121,mp-1193290,1,0.0
Na2MgMn2O8,0.4516,-1.653623855663129,mp-2219449,1,0.0
YMg14CrO16,0.0,-2.8964391600000012,mp-1035956,1,0.0
BaEuSnWO6,0.1386,-2.5257852090000013,mp-1516731,1,0.0
Si2MoO6,0.2843,-2.753792037777777,mp-1143048,1,0.0
SrMnTeO6,0.9939,-1.929600084955299,mp-1218186,1,1.0
MgMn2V2(CuO4)2,0.7023,-1.909600720724138,mp-2241479,1,1.0
Na3MnAsCO7,2.6273,-2.059932001505304,mp-771035,1,3.0
Li4Fe3Co3(SbO8)2,0.537099999999999,-1.8136752744047624,mp-758042,1,0.0
Ba2CaMn2(P2O7)2,0.0,-2.735769151062326,mp-1233081,1,0.0
AlCo3F15,0.0,-1.948254995,mp-1041829,1,0.0
NaMnF3,2.7474,-2.9640653488620683,mp-560242,1,4.0
Sr2YGaCo2O7,0.1203,-2.514824027884615,mp-1046565,1,0.0
Na3Sc2V3O12,3.2558,-2.805971591456896,mp-6213,1,4.0
RbMg14CrO16,0.6754999999999991,-2.732575977109375,mp-1034246,1,1.0
Na2CrAsCO7,2.8794,-2.070048965854885,mp-771169,1,4.0
Ba2VFeO6,1.0389,-2.592685414,mp-1096782,1,1.0
HoTl(WO4)2,2.9276,-2.506112064027777,mp-1212131,1,4.0
NaNiO3,0.0,-0.745677687275861,mp-1186154,1,0.0
MgMn(SiO3)2,3.101,-3.011844112668105,mp-1041845,1,4.0
K4Zr3Mn(PO4)6,2.8643,-2.952474038547057,mp-704534,1,4.0
Bi(W3O10)6,0.0,-1.847880046582278,mp-1229330,1,0.0
BaMnNb2O6,0.0,-2.693586343793105,mp-1523372,1,0.0
CaNdFeSnO6,2.208,-2.54306906525,mp-1520035,1,3.0
Ca3Mn2(SbO6)2,0.5124000000000001,-2.332704721361161,mp-1374903,1,0.0
Li5Mn2V3O10,0.8444,-2.323020288126437,mp-754473,1,1.0
BaMg6FeO8,3.4644,-2.458981288749999,mp-1032152,1,5.0
ZnFe4CuO8,0.0,-1.53802864142857,mp-1215656,1,0.0
BaPr(CoO3)2,0.0,-2.191215208166666,mp-2222270,1,0.0
La6Mn3O14,0.147899999999999,-3.177459526469266,mp-772266,1,0.0
CsMg30WO32,2.6942,-2.817898137807112,mp-1098527,1,4.0
Li5Mn(CoO4)2,0.8935000000000001,-1.882962270912356,mp-1174000,1,1.0
SrEu(WO3)4,0.0,-2.406940142500001,mp-1516593,1,0.0
LiCoSnO4,0.7241000000000001,-1.842939414761904,mp-753496,1,1.0
PrVO4,3.0336,-3.163636718611112,mp-19169,1,4.0
Sr2YCu2MoO7,0.0,-2.309563151153845,mp-1043436,1,0.0
Mn2Co5O12,0.0,-1.295789990834846,mp-757022,1,0.0
Li7Mn2P7O24,1.2326,-2.5837040584173843,mp-757328,1,1.0
CaPr2Mn3O9,0.313599999999999,-2.505776736141763,mp-1147781,1,0.0
Li13Mn6(PO4)8,0.0,-2.561290230645125,mp-1178075,1,0.0
Li2Mn3(FeO4)3,0.1401,-1.755949613522987,mp-753998,1,0.0
Eu2MoO6,0.0,-2.7361915100000003,mp-1213281,1,0.0
AlVO3,1.569,-2.96073348,mp-1178549,1,2.0
BaMo4O7,0.0195,-1.439127018749999,mp-1048520,1,0.0
Sr10Fe10O27,0.0,-2.292196078404256,mp-1094099,1,0.0
Li4Fe3Sn3(SbO8)2,0.281,-1.996831068333332,mp-754898,1,0.0
RbMgV5(H8O11)2,1.3558,-1.56987914461111,mp-744816,1,2.0
BaCaCrF7,3.7209,-3.77080516575,mp-560577,1,5.0
Li4Mn3WO8,1.251799999999999,-2.1309651260704032,mp-773363,1,1.0
Li2Fe3Si3O10,3.1425,-2.552164171203704,mp-757294,1,4.0
LaWO2,0.0,-1.729968618749999,mp-1211437,1,0.0
CaNdFeO4,0.0,-2.8793390846428553,mp-1227142,1,0.0
Ba2AlFe3O8,0.0,-2.147870685714285,mp-1048153,1,0.0
LiZnFeO3,1.7135999999999991,-1.822810299722222,mp-1222343,1,2.0
CaMn2O5,0.0,-2.100146293857759,mp-1444407,1,0.0
Ba5Gd8Mn4O21,0.2378,-1.820576539650635,mp-19485,1,0.0
Li2Mn2F7,0.135599999999999,-2.936618599775339,mp-765055,1,0.0
Li35(FeO4)8,0.065399999999999,-1.935223689022221,mp-850218,1,0.0
SmEu(CoO3)2,0.0,-1.9765971745,mp-1521043,1,0.0
SrLa3Cr4O12,0.7477,-3.03949065825,mp-1647269,1,1.0
Tl2Fe2(SO4)3,3.8056,-1.520356358640351,mp-1208266,1,5.0
Li8Mn(O2F)2,2.7709,-2.28077370797318,mp-763440,1,4.0
Li3Al2CoO6,0.8303,-2.613757498333333,mp-1222601,1,1.0
K4Mg(MoO4)2,1.463,-2.094703618933333,mp-2232235,1,2.0
Ba2Co2F11,0.0,-2.795753403444445,mp-1041033,1,0.0
AcNiO3,0.0,-2.455476575499998,mp-1183139,1,0.0
MgV2ZnO6,2.0656,-2.4251186015,mp-2217478,1,3.0