formula,bg,formation_energy,mp-id,fidelity,bg_category
Li5Mn5(SbO6)2,0.0,-2.045062144846744,mp-773202,1,0.0
NaPr3Mn4O12,0.0,-2.665240282405172,mp-1221009,1,0.0
Li6Mn9O20,0.0,-2.045994372896552,mp-867994,1,0.0
CsNiO2,0.413699999999999,-1.034546733663792,mp-1232310,1,0.0
Li4Fe3Co3(NiO8)2,0.0,-1.4725183554761911,mp-760302,1,0.0
Li3Mn2O4,0.094899999999999,-1.904337525095786,mp-691164,1,0.0
VPNO5,0.94,-1.486154625736606,mp-1200963,1,1.0
MgCr2(SbO4)2,1.8748,-2.110107039615383,mp-2218283,1,2.0
Sr2CaV2(Si2O7)2,1.982699999999999,-3.118797368260868,mp-1233044,1,2.0
MnAlBiO5,0.269499999999999,-2.283884504428879,mp-1210873,1,0.0
Ti(CoO2)2,0.0,-2.229277574047619,mp-36765,1,0.0
MgFe2(CuO4)2,0.0,-1.277269997692307,mp-1041416,1,0.0
Rb7VSiO8,2.4409,-2.265004729411764,mp-1219828,1,3.0
LiP2WO7,3.934,-2.516418642965368,mp-752528,1,5.0
Ba2Fe2ClF7,3.653,-3.230347077916666,mp-1214722,1,5.0
ZnFe(SO8)2,0.0047,-0.420183978875,mp-1179238,1,0.0
MgMn2Co5O12,0.6438,-1.480024977043103,mp-2230034,1,0.0
NaMg6CrO8,3.0212,-2.740855650086207,mp-1030819,1,4.0
Sr2Co(SeO3)3,2.9627,-1.991365023135417,mp-17540,1,4.0
Li4V3Cr2O10,1.051899999999999,-2.394096786491227,mp-780727,1,1.0
Na3VS2(O4F)2,2.427699999999999,-2.384198573071121,mp-1194885,1,3.0
Na3FeSiBO7,0.0,-2.350754717177276,mp-771318,1,0.0
LiMnCuO4,0.0,-1.632520183752053,mp-773500,1,0.0
Li3VF5,2.5096,-3.056889675,mp-860790,1,3.0
Mg2TeWO6,0.6915,-2.150413075666667,mp-1370485,1,1.0
LiV3P3(HO6)2,2.632,-2.418469393798185,mp-778204,1,3.0
Mg2Mn2O5,0.0,-2.335652435095786,mp-1099805,1,0.0
Al2(WO4)3,4.6158,-2.494557517352938,mp-19516,1,6.0
Sr4Fe4O13,0.0,-1.732651109285713,mp-1204222,1,0.0
CsMnFeF6,1.1137,-2.889407558065134,mp-1228982,1,1.0
NbCo(PbO3)2,1.229899999999999,-1.9060418849999992,mp-1205736,1,1.0
Na2VAsCO7,0.9742,-2.130359692521551,mp-771012,1,1.0
TbFe4(CuO4)3,0.0,-1.6487880873333332,mp-1105642,1,0.0
Rb2Si5NiO12,3.8268,-2.8974196653749993,mp-1195212,1,5.0
Li3La3(MoO6)2,2.8495,-2.89354564875,mp-1185315,1,4.0
Cs3Nd(MoO4)3,3.7419,-2.416075304682395,mp-573369,1,5.0
Li4V2Ni3Sn3O16,1.450799999999999,-1.998482238154762,mp-774900,1,2.0
Na2Co6O7,0.0,-1.242409874850575,mp-759583,1,0.0
Li4Ni3WO8,2.085,-1.8659939045833331,mp-756537,1,3.0
Sr2Co2O5,0.0,-2.138443608333333,mp-556076,1,0.0
Rb3LiTbV2O8,1.127599999999999,-2.572285030833333,mp-1235065,1,1.0
SrCaCr4O12,0.0,-1.941559659444444,mp-1521869,1,0.0
NaNp3FeF15,0.0001,-3.441188978756467,mp-1221458,1,0.0
Ca4V5(TeO6)3,0.152,-2.382231066833335,mp-1046662,1,0.0
Dy2V2O7,0.0,-3.235672241666665,mp-642823,1,0.0
YTe(WO4)2,0.158999999999999,-2.280309915972223,mp-1043665,1,0.0
Mg6CoCO8,2.5892,-2.1363042546875,mp-1031988,1,3.0
Ca3Si3(WO6)2,2.481199999999999,-2.99070719425,mp-1154711,1,3.0
Na2W3SeO14,0.023499999999999,-1.627587859255118,mp-1221359,1,0.0
SrZnNi(PO4)2,4.0068,-2.611145653598901,mp-560864,1,6.0
NiH20S2(NO7)2,5.0831,-1.281672899358973,mp-23912,1,7.0
ErCrO3,0.2571,-3.236585073,mp-19063,1,0.0
Sr8Fe2Ru2O13,0.0,-2.4556513894,mp-1218567,1,0.0
Fe3(AsO4)2,1.7859,-1.414850181153845,mp-1212748,1,2.0
Co2P2H4O9,0.0,-1.909215473928572,mp-505176,1,0.0
Li3Mn4FeO8,0.0,-2.02380738198276,mp-756377,1,0.0
La4MgMnO8,0.113100000000001,-3.358019837352217,mp-2228445,1,0.0
K3EuV2O8,0.0,-2.559920303696429,mp-542181,1,0.0
MgMn4(NiO4)2,0.751599999999999,-1.779801707781608,mp-2232105,1,1.0
Co4(P2O7)3,0.8935000000000001,-2.064068520334101,mp-778880,1,1.0
CsMnH24(SO10)2,1.8193,-1.459329036720545,mp-729644,1,2.0
Li4Co3Cu2Sb3O16,0.0,-1.661013059761905,mp-763275,1,0.0
BaTlV2O6,0.0,-2.034377786333335,mp-1046784,1,0.0
Li(NiO2)3,0.7590999999999991,-1.042379711333332,mp-1222821,1,1.0
Li3VP2HO8,3.2231,-2.524588612369046,mp-755739,1,4.0
Na5WO5,0.0,-1.862863137899686,mp-764782,1,0.0
Mg30NbCrO32,0.469199999999999,-2.923092951562499,mp-1038594,1,0.0
Y2W2O7,1.8551,-2.93107879090909,mp-1323899,1,2.0
Li4Fe3Ni3(WO8)2,0.0,-1.861311133333333,mp-771917,1,0.0
TaZn2CrO6,0.0,-2.395322458733332,mp-1326240,1,0.0
Sr2ZnNi2(PO4)4,0.0,-2.493850015542857,mp-1657996,1,0.0
LiMn3O5,0.0,-2.031354083847382,mp-770511,1,0.0
LiLa2Fe2(TeO6)2,0.8026999999999991,-2.310705384035087,mp-1236767,1,1.0
Rb3Na3Sc2(MoO4)6,3.453999999999999,-2.381561482411523,mp-1220926,1,5.0
Li6VSn3(PO4)6,1.5387,-2.512749390821427,mp-775752,1,2.0
Mn3VCr2(PO4)6,0.019399999999999,-2.466427721990284,mp-2214625,1,0.0
LiFe2O2F3,1.5841,-2.326345968541666,mp-755438,1,2.0
Ca2Fe7O11,0.274899999999999,-1.914653511749997,mp-29248,1,0.0
Mn3O4,0.8134999999999991,-2.050409240541872,mp-18759,1,1.0
La2WO6,3.6801999999999992,-3.30309511277778,mp-774193,1,5.0
Rb3LiErV2O8,1.1197,-2.5792755990555563,mp-1235632,1,1.0
VCu3(PO4)4,0.0,-2.069254364107143,mp-755952,1,0.0
CaTi2FeO6,1.3812,-3.123574121416667,mp-1200872,1,2.0
MoH2Cl2O3,2.6314,-1.4444693621875,mp-731671,1,3.0
Na9(WO3)16,0.0,-2.171394371265942,mp-757561,1,0.0
Ca2V3O8,1.496299999999999,-2.862569322307692,mp-1284741,1,2.0
Pm2(WO4)3,4.0407,-2.732251823235293,mp-1209910,1,6.0
Sr2HfFeO6,0.0,-2.9756634325,mp-1078912,1,0.0
SrGd2(FeO3)3,0.0,-2.489024522333333,mp-1218646,1,0.0
LiSbTe2WO12,1.9194,-1.729649354509804,mp-754339,1,2.0
Ca3V2O7,0.9998,-2.994618132083334,mp-1370470,1,1.0
Ba2CaY2(Fe2O5)2,1.226199999999999,-2.450414802631579,mp-1233104,1,1.0
Rb5(WO3)18,0.0,-2.237184695681817,mp-761961,1,0.0
Zn3Fe2O7,0.0,-1.4858578887499991,mp-1371689,1,0.0
LiCaVF6,2.6309,-3.566594360925926,mp-1211094,1,3.0
AlMo3Se2ClO8,0.197,-1.436079465645833,mp-1266944,1,0.0
K2BiMoPO8,3.584799999999999,-2.325122204934065,mp-556606,1,5.0
Cr3CdF6,0.0,-1.715720755999999,mp-1214068,1,0.0
La2FeAs2O,0.0,-0.178650331666667,mp-1211381,1,0.0
Li5Ni2O2F5,2.1942,-2.583416931190477,mp-765310,1,3.0
MoP4O13,1.5786,-2.306278060337302,mp-26402,1,2.0
Rb4V2O9,0.6043000000000001,-1.800775339,mp-726133,1,0.0
CaCr(Si2O5)2,3.6256999999999993,-3.16275681640625,mp-19441,1,5.0
GdMoO5,0.035699999999999,-2.501441629285716,mp-1212636,1,0.0
Mn2Zn(CuO4)2,0.0189,-1.223978300643236,mp-1041405,1,0.0
K2CoP4(HO2)8,3.4852,-2.085670972357142,mp-1195899,1,5.0
Ca2AlMoO5,1.7716,-2.9510520650000003,mp-1046989,1,2.0
Fe4AgXeF5,0.0,-0.9284423056060592,mp-1212957,1,0.0
LiPWO4,0.0,-1.885543636853741,mp-504105,1,0.0
KCo(PO3)3,0.0,-2.502796225084183,mp-1192408,1,0.0
Na3V3Cr2O12,2.3608,-2.376675792081897,mp-1202673,1,3.0
NiSO11,0.0,0.125276202115385,mp-1180062,1,0.0
Sr3La2FeCo4O15,0.0,-2.2314228566,mp-1218694,1,0.0
Li4V3Cu(PO4)4,0.1306,-2.537826452568027,mp-1177267,1,0.0
KCe(MoO4)2,0.0,-2.4893943214375,mp-1223568,1,0.0
RbLaMnWO6,1.6904,-2.656909701543102,mp-1105199,1,2.0
Li24Mn11CrO36,1.2493,-2.184056704267242,mp-770492,1,1.0
LiFe3(SiO4)2,0.6455000000000001,-2.362510824761903,mp-780681,1,0.0
MoCl2O,0.0,-1.52618219375,mp-1221455,1,0.0
Ba2V5(PO6)4,1.0383,-2.691044271530613,mp-560918,1,1.0
LiCr4O12,0.037799999999999,-1.611579832696077,mp-773174,1,0.0
Li2Si5Ni5O16,2.982999999999999,-2.370267103809523,mp-756771,1,4.0
Be3Fe4Si3SO12,1.375599999999999,-2.5146479774999992,mp-627398,1,2.0
VCrO3,1.613299999999999,-2.443056250999997,mp-1216392,1,2.0
Li4CoO3F,1.9598,-2.093306115925926,mp-755064,1,2.0
Zn9Fe15O32,0.0,-1.638741121428571,mp-766377,1,0.0
Li5Mn2NiO8,0.5983,-1.979486413595546,mp-1222526,1,0.0
Mg3Si3(NiO6)2,0.0819,-2.565908383125,mp-1154758,1,0.0
W7(OF5)6,3.4979,-2.688386465813952,mp-764257,1,5.0
NiH14C2N10(ClO3)2,3.1647,-0.6186598095000001,mp-1202313,1,4.0
Sb(WO3)5,0.0,-2.059779611190476,mp-1219461,1,0.0
NiSeO4,2.1705,-1.18907068039063,mp-18817,1,3.0
LiCr(GeO3)2,2.756599999999999,-2.239092940583332,mp-21549,1,4.0
MgCo(GeO3)2,2.1627,-2.171137704,mp-1043189,1,3.0
VZn2P4N3O16,0.0,-1.339099823406593,mp-735194,1,0.0
Ba3MnNb2O9,1.7737999999999992,-3.127465983862069,mp-20921,1,2.0
NiH12(BrO6)2,0.041799999999999,-0.5245042837037031,mp-695957,1,0.0
Li6NiO4,3.462099999999999,-1.8873770504545464,mp-756411,1,5.0
Ca3NdMn2O8,0.0,-2.8772441059544343,mp-1227690,1,0.0
Be3Tl2Ni2F12,5.4318,-2.8594425314035092,mp-1214337,1,7.0
Li3Mn(OF)2,2.4533,-2.6378885222413793,mp-753602,1,3.0
Li4Cr3Ni3(WO8)2,0.259,-2.052763793333334,mp-757815,1,0.0
Ca2Fe2(SiO4)3,0.0,-2.675228492763158,mp-1251946,1,0.0
Mg2Ta2MnO8,2.731499999999999,-3.096388229045977,mp-1046101,1,4.0
Li4FeO3,2.6567,-1.907044623854166,mp-752680,1,3.0
CsVNiF6,2.3655,-2.9363620660727983,mp-1228899,1,3.0
SrNiRu5O11,0.0,-1.539672099097221,mp-1198840,1,0.0
TbMoO5,2.335,-2.482362786666666,mp-1208410,1,3.0
MnH20C2S2(NO2)6,4.7606,-1.092002670184441,mp-1201200,1,7.0
Yb2WN2O3,0.0,-2.106365081718749,mp-1215791,1,0.0
Lu2Mn3Sb3O14,1.0309,-2.458818227596657,mp-1222433,1,1.0
K3VC5N5O,2.9406,-0.46530502645,mp-705009,1,4.0
SmEu(CoO3)4,0.0,-1.4500930261111111,mp-1521244,1,0.0
SrFe2(SeO3)4,2.3881,-1.66005141680921,mp-560149,1,3.0
Mg30AlNiO32,1.7857,-2.971837685156249,mp-1038314,1,2.0
MgMn2CoO6,0.7966000000000001,-1.884180567086208,mp-2217277,1,1.0
YFeGe2O7,0.0,-2.468353752727271,mp-767438,1,0.0
MgFeCo5O12,0.2743,-1.302243429736842,mp-2230269,1,0.0
Li5V3Cr2O10,1.7069,-2.423343454333334,mp-756826,1,2.0
Sr2YCrCu2O7,0.0,-2.418698892692308,mp-1043147,1,0.0
HfNi5(BO5)2,3.165499999999999,-2.151686976712963,mp-558963,1,4.0
BaLa3TiCr3O12,1.8926999999999992,-3.242357749166665,mp-699403,1,2.0
Fe3CoBi4(AsO6)4,0.0,-1.531405708055556,mp-1225696,1,0.0
Ca8Mn4Al4O21,0.0,-2.785365464776328,mp-1247620,1,0.0
Na2CaV12O32,0.0784,-2.305562298569332,mp-1222059,1,0.0
Li3Cr5O8,0.739799999999999,-2.231449998125,mp-1311453,1,1.0
Ba3V2H12(C5O14)2,0.021399999999999,-1.771629708363637,mp-1195162,1,0.0
Sm2MnSb2O,0.0,-0.463152567155172,mp-1208954,1,0.0
BaLaNbCrO6,0.0,-3.0665843775,mp-1227851,1,0.0
V5(PbO6)2,1.840999999999999,-2.294812011052631,mp-22296,1,2.0
K2TlCoF6,2.5182,-2.472797150783334,mp-1111102,1,3.0
Na2FeBAsO7,0.6697000000000001,-1.9921455987021064,mp-756330,1,1.0
Cu2NiO4,0.0,-0.9165393,mp-1178410,1,0.0
Ba2La4Mn5SnO18,0.0,-2.815877459488507,mp-743694,1,0.0
Ba6Mn4Si12Cl3O34,0.009799999999999,-3.08828748969024,mp-1228733,1,0.0
Fe3H28(S2O15)2,1.0282,-1.4748084513076911,mp-1202481,1,1.0
NaV3F7,1.451299999999999,-2.932219807272725,mp-1120804,1,2.0
NbV3Fe2(PO4)6,0.0,-2.591398513273811,mp-1101685,1,0.0
MnCuH10Se2(ClO5)2,0.3221,-1.264149190293021,mp-729033,1,0.0
ZrCo3(BO4)2,1.3204,-2.211271828809524,mp-1215312,1,1.0
CoSeO3,0.0,-1.31058676809375,mp-562826,1,0.0
KNa2Li3Cr2(Si2O5)6,3.8492,-3.023571502200172,mp-16282,1,5.0
Cr(Si2O5)2,1.823899999999999,-2.9305943853333343,mp-779017,1,2.0
Fe21HO32,1.3254,-1.54452463548611,mp-705638,1,1.0
VCo5AsO10,1.317,-1.623792046029412,mp-1216818,1,1.0
BaV2Cu(AgO4)2,0.0,-1.910731084523808,mp-1192702,1,0.0
ZnFeAs4(Pb2O9)2,0.0,-1.5877251775,mp-1215919,1,0.0
LiMg6WO8,4.566,-2.700348210208333,mp-1031191,1,6.0
Ti3Mn2Cr3O16,0.9039,-2.431120013994254,mp-776119,1,1.0
Li3Nb(CoO2)4,1.761299999999999,-1.9374995425,mp-772083,1,2.0
Li2Cr3WO8,2.1889,-2.342886569047618,mp-775271,1,3.0
NaCo11O17,0.0,-1.27335888763377,mp-775864,1,0.0
CaSm(FeO3)4,0.0,-1.643790318055555,mp-1517111,1,0.0
Li3Fe4CoO8,0.0,-1.779098691875,mp-756592,1,0.0
Nb2Zn2NiO8,0.0,-2.367255105769231,mp-1046973,1,0.0
MoH12C2(N3O2)2,4.4599,-0.772978367600001,mp-1198270,1,6.0
Li5Mn3Cr(PO4)4,0.4939,-2.512404395139006,mp-764909,1,0.0
HoCrO2,0.0,-2.463089745624999,mp-1212114,1,0.0
V2Fe(CuO2)3,0.6603,-1.6548838191666662,mp-1216789,1,0.0
Mn2V3Cu(PO4)6,0.0,-2.491815557325532,mp-776003,1,0.0
K2WC2O9,2.8001,-1.5802317305,mp-556573,1,4.0
MgMo2(Cl4O)2,2.0948,-1.607169549615385,mp-2219271,1,3.0
PrMgCr2O6,0.0,-2.695875405666666,mp-1044528,1,0.0
Cr3Fe(PO4)6,0.0,-2.259469276995799,mp-775201,1,0.0
Ba2Co2O5,0.0,-2.054551607222222,mp-1076439,1,0.0
BaCeEuNiO6,0.0,-2.648304700499999,mp-1523236,1,0.0
Ba3Sr(CoO3)4,1.062199999999999,-2.0353396325,mp-1642439,1,1.0
CrAs2O7,0.8405,-1.593456358,mp-1042757,1,1.0
LaSm3Cr4O12,0.0,-3.176126981000001,mp-1222968,1,0.0
Sr4Ca(FeO2)5,0.3503,-2.28853004725,mp-1218462,1,0.0
Na6Co2As(CO4)4,0.0,-1.827968527268133,mp-771495,1,0.0
CaMnAsO5,1.2868,-2.33475015005388,mp-1326396,1,1.0
Sr3La(CoO4)2,0.052899999999999,-2.555347156785715,mp-1218340,1,0.0
CrP2H17N4O9,3.9867,-1.301323264410173,mp-735484,1,5.0
Mn5SbO12,0.0213,-1.767984775536398,mp-753773,1,0.0
UHg(MoO4)4,2.0624,-2.125163398977273,mp-1208038,1,3.0
Te2MoO7,2.8614,-1.667758174333332,mp-19453,1,4.0
Be2Tl2Ni(O3F4)2,1.059,-1.70857448140351,mp-1214791,1,1.0
Ti3Co2P6WO24,0.3561,-2.499991721607143,mp-867764,1,0.0
FeP4O13,0.1028,-2.108310276031746,mp-1101552,1,0.0
La7SmNi6(AgO12)2,0.0,-2.252523785333333,mp-1076723,1,0.0
GdTl(WO4)2,2.9492000000000003,-2.487807592361111,mp-1212540,1,4.0
Al7Cr(Bi2O9)2,2.5541,-2.767509591666667,mp-1228228,1,3.0
HoMoO4F,3.7444,-2.998061516785714,mp-559838,1,5.0
Li2Cr2Si5O13,2.957,-2.9100647105303032,mp-758237,1,4.0
MgVBiO4,1.5891000000000002,-2.069364037857144,mp-2227171,1,2.0
Co3Se4(ClO5)2,2.6502,-1.250368367598684,mp-1105151,1,3.0
CuBi(WO4)2,1.2814,-1.867399923333334,mp-556640,1,1.0
SiW12C16(NO10)4,2.0985,-1.1821741886301371,mp-1197711,1,3.0
Zr4MnO9,2.9462,-3.51104348520936,mp-763464,1,4.0
Sr2Mn2GaO7,0.0,-2.288432125696838,mp-1047085,1,0.0
NaSrTbFeO6,0.0,-2.244266951804597,mp-1517684,1,0.0
Li5V2Cr2O8,0.7816000000000001,-2.280375040980392,mp-752568,1,1.0
BaFe2S2O,0.0,-1.491538529999999,mp-1095213,1,0.0
Fe3(OF4)2,0.0,-1.968427066153846,mp-1104355,1,0.0
Mn2Se3(NO6)2,0.0495,-0.5919803762049111,mp-1211935,1,0.0
CoBiO3,0.0,-1.458912713,mp-545522,1,0.0
K2CaNi(NO2)6,2.138,-1.200390310659091,mp-22650,1,3.0
Fe5Ni(PO4)6,0.0,-2.220703979107142,mp-768933,1,0.0
Na3VP2O9,1.1306,-2.527962726894908,mp-1193226,1,1.0
Fe3P4H12(NO8)2,3.8429,-1.764610674961389,mp-1205149,1,5.0
Ti2V3Cr(PO4)6,0.0,-2.725325228736772,mp-759931,1,0.0
MgV2Pb(OF4)2,2.9101999999999992,-2.972085404642857,mp-2226519,1,4.0
Li4MnV3(P2O7)4,0.4958,-2.692126323600163,mp-777395,1,0.0
BaMn8O16,0.772899999999999,-2.038069592537961,mp-1228782,1,1.0
Rb2Mo(O2F)2,0.6217,-1.950910799444444,mp-1209419,1,0.0
ZnCr(GeO3)2,0.5417000000000001,-2.00587142725,mp-1648759,1,0.0
Li2Mn5(Si2O7)2,2.3497,-2.676340642652873,mp-756814,1,3.0
Ni2P2O7,1.558699999999999,-2.228525349707793,mp-554705,1,2.0
La7Mn8O23,0.0,-2.855446692985481,mp-760072,1,0.0
HoZn(FeO3)2,0.0,-2.130445861999999,mp-1041163,1,0.0
Sr7CaMn4(FeO6)4,0.0,-2.338670111293103,mp-1099713,1,0.0
MgAg4(MoO4)2,0.036799999999999,-1.118835832111111,mp-2232168,1,0.0
Mo2H3(CO2)4,1.024599999999999,-1.054684198602942,mp-726434,1,1.0
Ca2MnNbO6,0.0,-3.001140919793104,mp-1227519,1,0.0
CuH32W6(Cl6O11)2,1.0639,-1.226552555753425,mp-1201127,1,1.0
Y3Ga(FeO3)4,2.1509,-2.62933378675,mp-1216523,1,3.0
VCdBiO5,2.6632,-1.97526664859375,mp-558859,1,3.0
MgMnSiO4,3.131,-2.9073220404187192,mp-1210608,1,4.0
Li3MnVP2(HO5)2,2.0613,-2.414072307353513,mp-753439,1,3.0
BaGdCo2O5,0.0,-2.339440831666667,mp-1079551,1,0.0
KRbMn2Ga4P6(H2O7)4,3.3545,-2.284121680169383,mp-1223701,1,5.0
Ba2CoSi2O7,3.138099999999999,-3.05940255,mp-510015,1,4.0
Li4Mn13O24,0.0,-2.010638674303336,mp-698705,1,0.0
Rb2Ni(SO7)2,0.026699999999999,-0.91283350868421,mp-1209857,1,0.0
NaCoBP2H2O9,3.3144,-2.309087102958231,mp-562382,1,4.0
Tl3CrF6,3.2437,-2.447200462000004,mp-1205742,1,4.0
Mn2Fe(PO4)3,0.710599999999999,-2.393849332905036,mp-1223299,1,1.0
Co3BPO7,0.0033,-2.068523321984127,mp-562300,1,0.0
CoF4,1.613999999999999,-1.713008289,mp-1397055,1,2.0
ZnMo2P2O9,1.2143,-2.257001605663265,mp-1041036,1,1.0
Na2MnPO5F2,0.1841,-2.00813260684841,mp-1210636,1,0.0
Gd2Mo2O7,0.0,-2.879818378636373,mp-642754,1,0.0
DyVO2,0.0,-2.533210767916665,mp-1212946,1,0.0
NaV3O8,1.9032,-2.340779273448275,mp-752972,1,2.0
Na3Cr2(AsO4)3,2.7029,-2.041517589581897,mp-16383,1,4.0
Sr2Mg(WO4)2,2.5744,-2.649455267307692,mp-2218882,1,3.0
MgCu2(NiO4)2,0.0,-0.9280559388461532,mp-1041446,1,0.0
NaCa3MgFe(Si2O7)2,3.132,-3.118798279015803,mp-1221128,1,4.0
CaNi4O9,0.0,-0.847212817142857,mp-1348280,1,0.0
NaSc(WO4)2,3.501899999999999,-2.599620583448275,mp-1210161,1,5.0
Zr6Co2O,0.0,-0.468299622777777,mp-1215347,1,0.0
Cs2CoHgF6,0.0,-2.120758046181035,mp-1112601,1,0.0
ZnCoSn2O7,0.1659,-1.540946656136363,mp-1334806,1,0.0
Ba2AlCr3O7,0.0,-2.328945821153846,mp-1048330,1,0.0
KMoO4,0.668199999999999,-1.796735852875,mp-1191627,1,1.0
Sr8Tl3Cr(CuO5)4,0.0,-2.049667713333334,mp-559339,1,0.0
La4FeO8,0.713499999999999,-3.246115302884616,mp-754261,1,1.0
MgV2Zn4O8,1.1966,-2.058985383,mp-2232455,1,1.0
Bi28Mo2O47,0.9457,-1.6581430134415591,mp-698611,1,1.0
BaNi2(AsO4)2,2.8416,-1.953633648076923,mp-19388,1,4.0
Li4Ti4V5O18,0.9929999999999992,-2.816638275376345,mp-769487,1,1.0
LaCrWO6,0.7814000000000001,-2.721358199999999,mp-1040819,1,1.0
Cr2C13SN3(O2F)5,2.0408,-0.8050104762500001,mp-699555,1,3.0
Na4FeNi(PO4)3,2.1249,-2.4144029021164672,mp-1221201,1,3.0
Mn(SiO3)2,0.802,-2.670648114770115,mp-1142713,1,1.0
NaCa2Mg2V3O12,3.3486,-2.850536808193965,mp-706239,1,5.0
Rb2MnP2H3(O4F)2,1.9783,-2.364837960609263,mp-1220230,1,2.0
V12Fe6O35,0.0,-2.162157262169811,mp-757552,1,0.0
Sr4NbCoO8,1.4473,-2.884232578571429,mp-1218456,1,2.0
KMnO4,2.081099999999999,-1.453729503780173,mp-19046,1,3.0
BaErMn2O5,0.0,-2.797654440095786,mp-1188765,1,0.0
RbNiF3,4.6929,-2.615767754499999,mp-556488,1,7.0
Fe3(OF2)2,1.2338,-2.197414601111111,mp-754278,1,1.0
Sr2FeRuO6,0.0,-2.291433211,mp-1218831,1,0.0
Mg2TiWO6,1.6687,-2.810826894333334,mp-1328974,1,2.0
Li2FeSi4O11,0.055299999999999,-2.751633334259259,mp-758998,1,0.0
FeNiAg2F7,0.7212000000000001,-2.03957492621212,mp-1212687,1,1.0
Mn3CuNi2(PO4)6,0.0,-2.170776597823618,mp-772496,1,0.0
Li4Co3Ni2Sn3O16,0.8715,-1.680146877083333,mp-774657,1,1.0
PrAg(WO4)2,3.095799999999999,-2.354619601111112,mp-1209684,1,4.0
Na7Cr4(PO4)6,0.507899999999999,-2.547152274695421,mp-761050,1,0.0
FeMo2H7O11,2.6523,-1.541024084226189,mp-1567719,1,3.0
Sr7CaMn3Fe5O24,0.0,-2.306349909844827,mp-1076651,1,0.0
Ca8TiMn7O22,0.0,-2.651706566022383,mp-1247694,1,0.0
Na2ZrNi(P2O7)2,3.5821,-2.724803203242273,mp-18984,1,5.0
NaVSiO4,0.0,-2.731731129482759,mp-754456,1,0.0
Li3Ti6Co3O16,0.0,-2.8648615298214293,mp-772982,1,0.0
La2W2O9,3.4485,-2.944704858076923,mp-30162,1,5.0
Mn2CoO4,0.6991,-1.838113349408867,mp-1221996,1,1.0
LaMoO5,2.3042,-2.492983328928571,mp-1211854,1,3.0
Li4Fe3Co5O16,0.0,-1.524821714047618,mp-753106,1,0.0
MgVPO5,1.9802,-2.822804592767856,mp-1273519,1,2.0
Ba3Lu2MoO9,1.898299999999999,-3.259615391888888,mp-1228133,1,2.0
Li5Fe11O16,1.2236999999999991,-1.748551487395834,mp-766727,1,1.0
Y(NiO2)3,0.0,-1.57856882675,mp-1045129,1,0.0
Na6Cr2B4PO16,0.0,-2.393324352744323,mp-780628,1,0.0
SrEuDyCrO6,0.0,-2.910770853666666,mp-1520871,1,0.0
Ba4Ta10CoO30,2.4312,-3.338343036296295,mp-1228585,1,3.0
EuMnNbBiO6,0.0,-2.4089715162931062,mp-1520158,1,0.0
BaLi2MnV2O8,2.7197,-2.607254220685551,mp-1103771,1,4.0
CoH22S2N5O9,0.2647,-0.403566409615384,mp-735625,1,0.0
SrMn2Si2(H2O5)2,0.8719999999999991,-2.337973254255897,mp-1218288,1,1.0
CsLiMoO4,4.4239999999999995,-2.260392497569788,mp-551629,1,6.0
MgFe4(PO4)4,1.3153,-2.392362240142856,mp-2234827,1,1.0
LiVFeP2(HO5)2,1.7801,-2.302566429418767,mp-765988,1,2.0
Li4Nb2V3Cu3O16,0.0,-2.237197010119048,mp-774767,1,0.0
LaMgTiFeO6,2.5232,-3.028232238583333,mp-1043786,1,3.0
Mn(SO4)2,0.2655,-1.706180474508881,mp-771239,1,0.0
Li2Fe2SnO6,1.9888,-1.85647483060606,mp-756636,1,2.0
Li4FeP6(H4O11)2,4.0633,-2.201292920029035,mp-1177403,1,6.0
TiFe5O8,0.0,-1.962516560238094,mp-1216930,1,0.0
Ti3Fe2Sb(PO4)6,0.0289,-2.70479929938492,mp-778503,1,0.0
MgSc2(FeO3)2,0.802299999999999,-2.720433897727272,mp-2217644,1,1.0
Cr2(PO3)5,0.249099999999999,-2.539736880373375,mp-1101561,1,0.0
Ba6Na2V2Sb2O17,3.216299999999999,-2.723955865439953,mp-1214658,1,4.0
Ba2LiMn2(P2O7)2,0.0,-2.749558898163775,mp-1235287,1,0.0
VZn(GeO3)2,0.0,-2.061239671,mp-1043218,1,0.0
Fe13Si2(SbO14)2,0.016899999999999,-1.669433624888888,mp-1251404,1,0.0
Co2RuO4,0.0,-1.25661225642857,mp-34586,1,0.0
MnP2H4O5,0.445999999999999,-1.310301571018062,mp-743651,1,0.0
La6Sm2Co7AgO24,0.0,-2.402623328541667,mp-1076287,1,0.0
SrLaMn2O6,0.0,-2.763565402919541,mp-699554,1,0.0
CrFe3Sb2(PO4)6,2.3015,-2.353848586607143,mp-775989,1,3.0
Zn2Cr2O5,0.6607000000000001,-1.747545273333333,mp-1376393,1,0.0
Dy2(MoO4)3,3.581099999999999,-2.656520687254902,mp-1213120,1,5.0
SrCrO2,0.0,-2.54689945125,mp-1218326,1,0.0
Na2Fe(Si2O5)3,0.0,-2.83610406490661,mp-780575,1,0.0
Sr2ZnWO6,3.5827,-2.68336307975,mp-1195362,1,5.0
Na3LiFe4(SiO3)8,2.767399999999999,-2.7315718846867822,mp-1221254,1,4.0
Mg6VZnO8,3.143300000000001,-2.7348397206249992,mp-1032031,1,4.0