formula,bg,formation_energy,mp-id,fidelity,bg_category
Li5Ni7O12,0.0,-1.436192312361112,mp-756931,1,0.0
ZnCrF5,3.0837,-2.809395448571428,mp-1393890,1,4.0
La2TiNiO6,2.8034,-3.316128182333334,mp-1211325,1,4.0
Zn7Cu8(MoO4)12,0.0,-1.687730016,mp-1216462,1,0.0
CaPr3(CoO3)4,0.0,-2.34818748525,mp-1227199,1,0.0
Li2U(WO5)2,1.7613,-2.62765413311111,mp-759350,1,2.0
Li4V5O9F,1.3433000000000002,-2.5126743385964923,mp-765807,1,2.0
Li2MnV(P2O7)2,0.021799999999999,-2.664354146507687,mp-850939,1,0.0
LiSm4V4O12,0.9364999999999992,-3.060358061587302,mp-1236252,1,1.0
MgPb4(WO5)2,0.894699999999999,-1.789098480294117,mp-2229854,1,1.0
Li7Co(OF)3,2.4222,-2.335954758095237,mp-759770,1,3.0
Mn(SO6)2,0.163599999999999,-0.8112372006954011,mp-1211753,1,0.0
CsDy(MoO4)2,3.602,-2.546839806776821,mp-572231,1,5.0
Mg14CdCoO16,2.773799999999999,-2.784084236562499,mp-1035067,1,4.0
RbBaMnO4,1.8112,-2.220856379347291,mp-17445,1,2.0
K2Mn2Be3F12,4.7164,-3.295466983900635,mp-699937,1,7.0
LiCo6(OF5)2,1.0215,-2.073564135964913,mp-1235110,1,1.0
Sm3W(ClO2)3,3.454,-3.110908441538461,mp-1208868,1,5.0
CrPb6(Cl3O4)2,0.0,-1.140169588095237,mp-1191060,1,0.0
Na5Fe6(SiO3)12,0.0,-2.6960612931677392,mp-766401,1,0.0
LiV(SO4)2,1.8683,-2.138425172083332,mp-771941,1,2.0
MgSi2WO6,1.1673,-2.575025296375,mp-1041873,1,1.0
Li7Mn4(PO4)6,0.180299999999999,-2.568036078607674,mp-760033,1,0.0
Sr2CeCoO6,0.0,-2.71736649,mp-1516664,1,0.0
CaTiCo(PO4)3,1.264,-2.7660524070701062,mp-1044222,1,1.0
MoH12C4S2(BrO2)2,2.5453,-0.5763914978000001,mp-1201772,1,3.0
Sr3Ca5Mn7FeO20,0.0,-2.52438288612548,mp-1076750,1,0.0
Na2CaVP2O9,2.5752,-2.819876922636288,mp-561006,1,3.0
Ca2TaCrO6,2.7922,-3.233319104233332,mp-1214103,1,4.0
Li2Fe3(MoO4)3,0.0,-1.827687235208333,mp-1212199,1,0.0
NiO,2.300899999999999,-1.218085299999999,mp-19009,1,3.0
K2Cr4Co(HO4)4,1.9353,-1.6487220599814811,mp-601334,1,2.0
Ca6Sc(CoO4)3,0.9348,-2.685624827954545,mp-1227024,1,1.0
Mg6MnNbO8,1.7135,-2.61742690362069,mp-1032714,1,2.0
Li3V6O13,0.6651,-2.41993242659091,mp-542665,1,0.0
Co2SnO4,0.0,-1.637988171428572,mp-36028,1,0.0
Li2Co(PO3)4,3.212,-2.54190547632832,mp-26359,1,4.0
Rb2MgMo2P2(ClO5)2,0.8871000000000001,-2.355035466278195,mp-2231186,1,1.0
Al2NiO4,3.205599999999999,-2.802741493571429,mp-37614,1,4.0
V2Zn(CuO4)2,0.176399999999999,-1.800356723653846,mp-1041392,1,0.0
Ni2BiB(PO5)2,3.5479000000000003,-2.278201335528273,mp-1196616,1,5.0
Li5Mn5(PO4)6,0.560399999999999,-2.509940189354473,mp-773009,1,0.0
Rb3(MoO3)10,0.029399999999999,-2.010186109593023,mp-1202770,1,0.0
LuNiO3,0.0,-2.535460960833331,mp-19327,1,0.0
Na3VF6,0.0099,-3.084973801000001,mp-556633,1,0.0
MnV4NiO12,2.013,-2.213327408218392,mp-850419,1,3.0
Ba6Sr2CoCu7O20,0.0,-1.866239636527778,mp-1076296,1,0.0
Li2Mo2P2O11,0.0,-2.126950622997198,mp-1223051,1,0.0
Li3Fe2(CO3)4,1.7153,-1.906460164761905,mp-753336,1,2.0
Li2Co2(SO4)3,2.8014,-1.936566593114034,mp-778578,1,4.0
PWC5Br3O5,2.0011,-0.7699951723095241,mp-683598,1,3.0
V17Pb3O32,0.9697,-2.30508385173077,mp-1100950,1,1.0
Dy6Fe16O,0.0,0.786508764130435,mp-504491,1,0.0
CeMo12(NO27)2,0.0,-0.8910110698550731,mp-1182627,1,0.0
Li2Fe5F17,2.9095,-2.6570577812152782,mp-849403,1,4.0
Sr4Fe3MoO12,0.029399999999999,-2.4295859634999992,mp-1218549,1,0.0
In5(Mo9O14)2,0.0,-1.110205047124182,mp-1204440,1,0.0
CrH9C6(S2O)3,2.612,-0.4207262352499999,mp-698367,1,3.0
Ca3Co2(SiO4)3,1.990299999999999,-2.863979490625,mp-1163930,1,2.0
Mn7Fe(PO4)12,0.0,-2.178261292812228,mp-778021,1,0.0
Na3FeO3,2.3505,-1.701576663448275,mp-30947,1,3.0
Li2FeSn(PO4)2,3.238799999999999,-2.412164300960884,mp-772178,1,4.0
Mn3Cd3(TeO6)2,0.4897,-1.719881664106321,mp-1221836,1,0.0
CaFeSn(PO4)3,2.4914,-2.651234257718227,mp-743601,1,3.0
Na5LiMn2O8,1.778399999999999,-1.816730070536998,mp-554028,1,2.0
LiV2(SO4)3,0.5052000000000001,-2.11921011574074,mp-1176597,1,0.0
HoMg(CoO3)2,0.0,-2.150992257499999,mp-1041115,1,0.0
FeH4(SO5)2,0.0355,-1.520931173529411,mp-772432,1,0.0
LaCo(BO2)5,3.1157,-2.884990487254901,mp-19475,1,4.0
NaMnH2C3O7,2.5658000000000003,-1.69313564387931,mp-1210269,1,3.0
SrVO3,0.0,-2.878867755,mp-18717,1,0.0
YNiO3,0.0,-2.465712242,mp-19242,1,0.0
CaFe2P3HO12,1.2309,-2.497864244351503,mp-728240,1,1.0
TiZnCr(PO4)3,2.3963,-2.718065051236772,mp-1044311,1,3.0
Ho2VFeO6,0.0,-3.067664408499999,mp-1224186,1,0.0
Sr2La3Fe4CuO15,0.0,-2.4877576458,mp-1218789,1,0.0
Na2Co2(B4O7)3,2.7526,-2.617116390344828,mp-704577,1,4.0
SrMo2(AsO6)2,2.6928,-2.05143991617647,mp-541910,1,4.0
Ni3P2(HO)16,3.8665,-1.56758384592664,mp-1198584,1,5.0
Co3Ag2(P2O7)2,2.0647,-2.067122284430642,mp-505812,1,3.0
Na2Sr6ZnFe6F34,3.4149000000000003,-3.265445667301196,mp-697817,1,5.0
FeSb(PO4)2,0.0,-2.283807832857141,mp-861596,1,0.0
MnSb3XeF23,0.7159,-2.22300844135468,mp-1195126,1,1.0
BaZnFe6O11,1.0812,-1.811880224736842,mp-1227632,1,1.0
MgNiAgO2,0.0,-1.208656793333332,mp-2225602,1,0.0
Ti3NbFe2(PO4)6,0.0,-2.781239952440475,mp-778317,1,0.0
KMnPH2O5,2.838799999999999,-2.185186568482389,mp-23973,1,4.0
Sr2NbCoO6,1.5007,-2.777619402000001,mp-1218740,1,2.0
V2P2O7,2.989,-2.590186098571428,mp-753985,1,4.0
Li21(Co4O9)2,0.9658,-1.706694177234042,mp-850944,1,1.0
Ba2YFe2F11,3.9453,-3.588503543020833,mp-1049241,1,5.0
Cs2Mo3O10,3.4187,-2.117735942287357,mp-1193056,1,5.0
Fe2B(PO4)3,2.025,-2.476507414616402,mp-1197728,1,3.0
Fe(SeO3)2,0.324,-1.222069072465278,mp-1201086,1,0.0
Li2VP3O10,2.1352,-2.661730677849702,mp-757972,1,3.0
Mo2N2O7,0.100699999999999,-0.797595593181818,mp-1180397,1,0.0
CaNd3Cr4O16,0.291199999999999,-2.653219370104165,mp-1227184,1,0.0
Li5Fe3Sb2(PO4)6,1.5159,-2.384119220113095,mp-775305,1,2.0
Mn9Al2Si8(HO4)8,2.8092,-2.520593113243718,mp-707875,1,4.0
Cr4H67C20(NO)16,1.1999,-0.402462223201219,mp-706251,1,1.0
Li2MnV4O14,0.0,-1.93348629259989,mp-1191925,1,0.0
Na4VO4,1.067199999999999,-2.051262099501916,mp-754829,1,1.0
Na3V(MoO7)3,0.7254,-1.046495253004927,mp-728692,1,1.0
Li4NbFe(TeO6)2,1.8764,-2.087391199833332,mp-774933,1,2.0
NaBi(MoO4)2,2.8545,-1.997930923448276,mp-1210092,1,4.0
Li4Mn5Nb3O16,0.0,-2.441750757249589,mp-772148,1,0.0
Li4Ti2V3Sn3O16,0.0,-2.517220891250001,mp-757929,1,0.0
MnNO5,0.0,-0.976388218454433,mp-1202892,1,0.0
NiP2H24(C2O7)2,5.1636,-1.1382534724285711,mp-559120,1,7.0
BaV2O7,0.8513000000000001,-2.2244989135,mp-723402,1,1.0
Ti3Mn2Co(PO4)6,0.0,-2.786959343714422,mp-849251,1,0.0
SrCaMn2O5,0.0,-2.54931461065134,mp-1076496,1,0.0
SmFe3(BO3)4,1.375799999999999,-2.086454915583334,mp-1190829,1,2.0
CaMn4O8,0.5121,-2.16445706397878,mp-1003483,1,0.0
CoH14C10(N4O)2,2.6111,-0.219233618500001,mp-698295,1,3.0
V2Cd(PO7)2,0.0,-1.524857266278195,mp-1105353,1,0.0
MnSn(PO4)2,1.6824,-2.474738992684729,mp-775753,1,2.0
LiCrP3H8O13,0.6033000000000001,-1.959367673356227,mp-849450,1,0.0
Ba2La2MgZn(WO6)2,1.686499999999999,-2.74426968425,mp-2230018,1,2.0
BaMg(MoO2)4,0.0,-1.732673396785715,mp-1044540,1,0.0
MgFe3Co2Sb(PO4)6,1.686499999999999,-2.278859246833976,mp-2216303,1,2.0
P5(WO6)4,2.4669,-2.4048373534307372,mp-766541,1,3.0
KCrNiF6,3.1558,-2.829034705805555,mp-1223481,1,4.0
Li5Co3(SbO5)2,0.2193,-1.846686851583333,mp-755267,1,0.0
CaCr(GeO3)2,0.690399999999999,-2.402879968749999,mp-1645095,1,1.0
Ni5Te4(BrO6)2,0.0,-1.33437666789855,mp-704879,1,0.0
Mn3Cu2Ni(PO4)6,0.0,-2.125205874490285,mp-780130,1,0.0
Na4Ni(PO4)6,0.0,-1.801577664096409,mp-1201128,1,0.0
Ca5Cr3O13,0.3121,-2.614475246904761,mp-1182459,1,0.0
Li4V2SiGeO10,2.2163,-2.571074576018517,mp-772830,1,3.0
MnHgO3,0.0,-1.044812403086208,mp-1080187,1,0.0
MnO,1.310499999999999,-2.032569766465519,mp-1232659,1,1.0
Ca4Ti3FeO12,0.0,-3.20191842,mp-1227247,1,0.0
Li4V3Ni(PO4)4,1.804,-2.5660971947108853,mp-1177236,1,2.0
Na2(WO3)17,0.0,-2.191943910110839,mp-530781,1,0.0
Li4Cr2Fe3Sb3O16,0.9222,-2.010789234761904,mp-774252,1,1.0
TiCdFe(PO4)3,2.2598000000000003,-2.627358380681217,mp-695054,1,3.0
Be3Cr2(SiO4)3,1.8397,-2.8452774814999993,mp-1047903,1,2.0
NaFe2(Si2O5)3,1.998,-2.699860265994971,mp-818474,1,2.0
Mn2BeO4,0.0,-2.285951375123153,mp-770881,1,0.0
LaSmNi2O5,0.548099999999999,-2.522579839375,mp-1076810,1,0.0
Co11CuO16,0.0,-1.2585811,mp-757448,1,0.0
Rb3Li2Ga(MoO4)4,4.0648,-2.179747770641026,mp-1209544,1,6.0
Li4Co5(P3O11)2,0.0,-2.341950736518661,mp-26551,1,0.0
K3ReMoO8,2.7906,-2.261960089557692,mp-1224026,1,4.0
Li12Cr3CoP4(CO7)4,1.5513,-2.361278949010989,mp-1178129,1,2.0
K3Na5V2(MoO4)6,0.0,-2.084849425966164,mp-1076484,1,0.0
La4CuNiO8,0.0,-3.006924345357144,mp-1223008,1,0.0
TiCrSbO6,1.6451,-2.571235284537036,mp-1216859,1,2.0
CaCoSb2O7,0.8295999999999991,-1.987308288863635,mp-1042450,1,1.0
Li5Mn2Co(NiO5)2,1.0403,-1.863169863126437,mp-1222667,1,1.0
Li2PWO6,2.849,-2.482848292880953,mp-757392,1,4.0
FeP2CO8,0.2052,-1.512919158690474,mp-1182728,1,0.0
KLiMoO5,0.7766000000000001,-1.708287524916666,mp-1211848,1,1.0
ZnCr2P2O9,2.1697,-2.451265515841837,mp-1040893,1,3.0
SiNiH12(OF)6,5.2785,-1.843777925576922,mp-40144,1,7.0
ZnCu(WO4)2,0.312199999999999,-1.8749777399999992,mp-1215706,1,0.0
PrEuNbCrO6,0.0,-2.997073832666666,mp-1517625,1,0.0
MgV2(CO3)4,1.6349,-2.115955636052631,mp-2228787,1,2.0
Rb3CrO8,1.4565,-1.123869171041667,mp-1209300,1,2.0
Ca2VBiO6,3.097899999999999,-2.7471123265000013,mp-554381,1,4.0
Li4Ti3Fe3(SbO8)2,0.1614,-2.4319691526190472,mp-865132,1,0.0
La2NiO3F2,2.6467,-3.373425849375,mp-2646996,1,3.0
Li5FeOF5,4.355,-2.786418781180555,mp-777279,1,6.0
BaMn2Si2O7,2.6464,-2.934603474446838,mp-1196057,1,3.0
Fe2Te2SO13,0.0,-1.200540509629629,mp-1182492,1,0.0
CoCuSe2(ClO5)2,0.0,-0.399843042167969,mp-1214108,1,0.0
K4Na2FeH3F12,4.0785,-2.666252364795845,mp-694997,1,6.0
MgV3FeO8,1.0783,-2.317459627307693,mp-2218985,1,1.0
Li4Mn5Co(PO4)6,0.495,-2.465398316521142,mp-760813,1,0.0
MgMnO3,0.0,-2.365742391586207,mp-770618,1,0.0
V6CuO15,0.3368,-2.198725165454546,mp-1216902,1,0.0
CrPO4F,0.083199999999999,-2.463712235484694,mp-770697,1,0.0
Eu2HfVO6,0.0,-3.305448941000001,mp-1518592,1,0.0
Sr2AlTlFe2O7,0.0,-2.076592482948718,mp-1045986,1,0.0
NaZnFe2(PO4)3,2.5064,-2.384043948831993,mp-560769,1,3.0
RbTb(WO4)2,3.4143,-2.670850456180557,mp-1209144,1,5.0
Y6Fe16O,0.0,0.7872593076086961,mp-504492,1,0.0
BaV(AsO5)2,0.3913,-1.76079180125,mp-1199112,1,0.0
Ti3Fe2(BiO3)6,1.577,-2.203980591034484,mp-1217427,1,2.0
CaTmMn2O6,0.0,-2.797248206586208,mp-1227160,1,0.0
LiLaMn4O12,0.0,-1.680964478336526,mp-1523240,1,0.0
Na3Zr3Fe(PO4)6,2.4292,-2.965173599918785,mp-706238,1,3.0
K2FeH2Cl5O,2.2787,-1.633592597681818,mp-24008,1,3.0
Co3Cu3(TeO6)2,0.4457,-1.258305191166666,mp-1226601,1,0.0
LiV3(TeO6)2,1.924799999999999,-2.066824335370372,mp-559938,1,2.0
Mg3As4W3O16,0.0,-1.950565605,mp-1041766,1,0.0
SrV4(Bi3O10)2,2.891999999999999,-2.185147325483872,mp-553895,1,4.0
La7SmMn5(FeO8)3,0.0,-2.8138835717413793,mp-1099887,1,0.0
In2(WO4)3,4.3058,-2.076858201372548,mp-553953,1,6.0
Fe3Cu(PO4)4,0.0,-2.179921627440475,mp-775191,1,0.0
Sr2Ca14Mn14Al2O43,0.0561,-2.602520119347126,mp-1247643,1,0.0
VP2(NO4)2,1.5954000000000002,-1.48310159532967,mp-1207949,1,2.0
V3Bi2(PO4)6,0.9742999999999992,-2.450539382510205,mp-772437,1,1.0
CdNi(PO3)4,0.042999999999999,-2.411356851031707,mp-1213935,1,0.0
CoSiO4,0.9398,-1.956728489583334,mp-25268,1,1.0
Li4Nb3Co3(TeO8)2,0.786199999999999,-2.172740222559523,mp-774825,1,1.0
Li4Mn3V3Cr2O16,0.3668,-2.299913633825944,mp-770524,1,0.0
Y2Mg(CoO3)2,0.360199999999999,-2.57249686590909,mp-2217541,1,0.0
Ca2YMoO5,0.0,-2.790466045,mp-1368579,1,0.0
Cr2O5F2,2.3434,-1.711194328888888,mp-758873,1,3.0
Mg30VSnO32,1.8617,-2.912943563984375,mp-1036763,1,2.0
TaMnZn2O6,0.6467,-2.290894993026437,mp-1346860,1,0.0
Pr2MgV4O12,1.0226,-2.846292956754387,mp-2231378,1,1.0
Eu2Mn3Sb3O14,0.0,-2.290854570626958,mp-1225901,1,0.0
Mg3Si4(WO7)2,0.7106999999999991,-2.715735666956522,mp-1263350,1,1.0
Ba3TaFe3(SiO7)2,2.5099,-2.8622157146666662,mp-1190340,1,3.0
ZnNiAsO5,0.309299999999999,-1.453633775,mp-1339646,1,0.0
CsLiCrO4,3.0669,-2.0949266768555,mp-561778,1,4.0
Li2Co(SO4)2,3.2144,-2.047502192051282,mp-1194281,1,4.0
Gd2Mo5O18,3.1154,-2.400339138,mp-704238,1,4.0
SrV4(AgO6)2,2.0861,-2.211843805964912,mp-555885,1,3.0
NaMn(HO)3,1.9477,-1.492330034132542,mp-758826,1,2.0
Mg2Cr3O8,0.9761,-2.365315469999999,mp-1042695,1,1.0
LiP(WO4)2,1.8857,-2.356339737539682,mp-757610,1,2.0
MgMnF4,4.25,-3.299359460488505,mp-1046728,1,6.0
Na3(Mo9O26)2,0.7524000000000001,-1.283049052522438,mp-1173856,1,1.0
CoI2(N3O)2,0.060099999999999,0.107076534318181,mp-1204403,1,0.0
BaBi12Mo4WO34,3.347699999999999,-1.916597251923078,mp-557475,1,5.0
Ba2W(CO2)4,0.0817,-1.6785711823333331,mp-1214683,1,0.0
Sr3InNiO6,0.6869999999999991,-2.412428160151515,mp-1304797,1,1.0
Na3Cu2(MoO4)3,0.1823,-1.840838103456896,mp-1210638,1,0.0
NbVF6,0.0,-3.0980898775,mp-557023,1,0.0
Li2Mn(SeO3)2,3.2053,-1.666186604707746,mp-1177936,1,4.0
Sr2LiCoWO6,1.9398,-2.384250190303028,mp-1236582,1,2.0
Ba4Mn3O10,0.0,-2.546114705811359,mp-18791,1,0.0
Sr3CaV4O12,0.4009,-2.908300615750001,mp-1644003,1,0.0
Mg3CrO4,0.0,-2.674556645624999,mp-1024044,1,0.0
Na2LiFe(Si2O5)3,3.3949,-2.940600437643677,mp-6838,1,5.0
VPbO4,0.0,-1.874545469583334,mp-1207871,1,0.0
LiZn(Fe5O8)2,0.0,-1.6532269947619052,mp-756921,1,0.0
LaPr3Mn4O12,0.0,-2.950974244086206,mp-1222923,1,0.0
BiWO4,1.3413,-1.860550681666667,mp-1214148,1,2.0
LiNd2Tl(MoO4)4,3.0065,-2.428362841319445,mp-630880,1,4.0
Li4MnP6(H4O11)2,4.3744,-2.226362804612718,mp-779351,1,6.0
Li4Ti2Fe4(CoO6)3,0.3412,-1.9505467485483872,mp-775160,1,0.0
VCo2P2H3NO9,1.5049,-1.367346543224206,mp-1208085,1,2.0
LiFeP3(HO5)2,3.725,-2.266896393662465,mp-781053,1,5.0
KCaBiWO6,2.135299999999999,-2.207533469725001,mp-1516386,1,3.0
Li4CoTeO6,2.3692,-1.9867556625000011,mp-1222462,1,3.0
Li5V3Bi2(PO4)6,0.3195,-2.525694918113096,mp-1177171,1,0.0
CsRb2FeF6,4.1741,-2.832430517465517,mp-1111396,1,6.0
ZnGaFeO4,0.0,-1.955573348571428,mp-1215743,1,0.0
YV2O2,0.0,-1.0264340165,mp-1208032,1,0.0
ZrW2O11,0.004,-1.622552671785714,mp-1207524,1,0.0
La2MgCoO6,0.272899999999999,-2.834355419500001,mp-1274653,1,0.0
Li8Mn7Cr(PO4)12,0.0,-2.482193770103923,mp-776829,1,0.0
KSr3La8Mn12O36,0.0,-2.7900973148737083,mp-697306,1,0.0
SrPrNiRuO6,0.460899999999999,-2.125969711166667,mp-1218113,1,0.0
Mn12O5F19,0.0,-2.662429111810344,mp-760306,1,0.0
BaMg6CrO8,2.1705,-2.49589074375,mp-1033461,1,3.0
LiV4OF11,1.3346999999999989,-3.122406280490197,mp-779753,1,2.0
YWO5,0.001699999999999,-2.596063781428571,mp-1207657,1,0.0
Ni7(P2O7)4,0.0,-2.175273705166113,mp-778386,1,0.0
Li12V3NiP4(CO7)4,2.0119,-2.3924274001648342,mp-1178087,1,3.0
MnZn2SbO6,1.1147,-1.814858134793103,mp-1275133,1,1.0
Li3V2H4(OF5)2,0.7545000000000001,-2.573509116666666,mp-758217,1,1.0
MnTlF4,1.917,-2.5831384993773923,mp-1102938,1,2.0
LiFe3P3O13,0.0,-2.258844148113096,mp-1013899,1,0.0
La3Co2CuO9,0.044999999999999,-2.502769931666667,mp-1223344,1,0.0
Sr2Fe2P3(O6F)2,0.0,-2.764089910187075,mp-1200426,1,0.0
Rb2FeH2C5(N3O)2,2.779,-0.218171909305556,mp-735584,1,4.0
Li3CrSiO5,3.3198,-2.61505632625,mp-765411,1,4.0
Li3Co2Cu3O10,0.0,-1.276165690555555,mp-752567,1,0.0
NaMgFeO2,0.0,-1.602513965275861,mp-2224450,1,0.0
Zn(Co2O3)2,0.0,-1.06801192590909,mp-1043057,1,0.0
LiNbFeO4,2.2421,-2.495743894047618,mp-756415,1,3.0
Li5Mn(SiO4)2,0.5485999999999991,-2.636584486224857,mp-861554,1,0.0
SmFeH8C6(N3O2)2,2.119199999999999,-0.559835912692307,mp-1198412,1,3.0
Li17(WO3)19,0.274099999999999,-2.103150165824373,mp-685395,1,0.0
V3CuO8,0.0,-2.063724037499999,mp-755381,1,0.0
BaVCu4P4O17,0.012399999999999,-2.27980861031746,mp-559899,1,0.0
Ca2Al2FeSi4BHO16,1.7853,-3.105086537608023,mp-24392,1,2.0
NaMo3(PO7)2,2.1258,-2.26341120278325,mp-1210232,1,3.0
Li8Fe3Co5O16,0.0,-1.8114129852083332,mp-765504,1,0.0
Mg14TiMnO16,0.0,-2.905826184102011,mp-1036209,1,0.0
Sr2LiFeO3F,1.0076,-2.616473317916666,mp-1235959,1,1.0
La3Al(FeO3)4,0.0,-2.667165041750001,mp-1223294,1,0.0
LiMn2TeO6,0.012099999999999,-1.929150950586206,mp-1210977,1,0.0
Cr4OF11,0.0,-2.880685939375,mp-776505,1,0.0
Li3CoSiO5,1.201,-2.384313344,mp-758411,1,1.0
V25O32,0.232699999999999,-2.293715779649123,mp-685164,1,0.0
Ba3Ta2MnO9,2.3396,-3.273462715839847,mp-1214505,1,3.0
Na2CoPO4F,2.3128,-2.461070810822386,mp-10537,1,3.0
Li4Al3Cr3(SbO8)2,2.647,-2.597113029761904,mp-770625,1,3.0
NaFe3H6(SO7)2,1.882,-1.673020333226126,mp-604429,1,2.0
CaMn3O7,0.0,-1.8497332005721,mp-1044349,1,0.0
CrPC5Cl3O5,2.8280000000000003,-0.924497113976191,mp-1201901,1,4.0
TiWO4,0.0,-2.721982793333333,mp-753512,1,0.0
FeH10N2Cl5O,2.198,-0.9428890111842112,mp-849222,1,3.0
CoSb3(PO4)6,1.626,-2.27542429170168,mp-775217,1,2.0
Ba2CoWO6,0.0,-2.5761506235,mp-22112,1,0.0
LiGd(WO4)2,3.3513,-2.6403211419444452,mp-1210920,1,5.0
MgAsWO5,2.0233,-2.095575829375,mp-1047240,1,3.0
Na(NiO2)2,0.0,-1.125829909482756,mp-1176434,1,0.0
CuSb(MoO4)2,0.6344000000000001,-1.729172382083334,mp-558286,1,0.0
V5F11,0.6265000000000001,-2.9966478801562473,mp-760030,1,0.0
Mn2P2O9,0.009,-2.201911198665215,mp-1040954,1,0.0
BaLa2WO7,3.3342,-3.2908933645454552,mp-1203123,1,5.0
CrAg3ClO4,1.3861,-1.031783739444443,mp-555993,1,2.0
LiNb7V12O48,1.6223,-2.534161198872549,mp-774457,1,2.0
LiMnAlO3,2.3003,-2.642455379377394,mp-755509,1,3.0
Sr3LaMn2O8,0.0,-2.8932285089901493,mp-1218441,1,0.0
RbNiW(OF)3,2.2401,-2.345185899166667,mp-694996,1,3.0
CaCrO2,0.680299999999999,-2.605602871875,mp-1214059,1,1.0
MgMn2Cr2O8,0.3406,-2.022886614681696,mp-2218507,1,0.0
Ti3Mn2Fe(PO4)6,0.625999999999999,-2.828710141214422,mp-774935,1,0.0
EuNiO3,0.0,-2.074794617000002,mp-20718,1,0.0
Li4Ni3SnO8,0.0,-1.717865252395832,mp-755496,1,0.0
CoH8SO8,3.2666,-1.380123101388888,mp-728646,1,4.0
Li4Fe2Cu3Sn3O16,0.0,-1.64762952922619,mp-1177443,1,0.0
BaYFe4O7,1.5768,-2.19772502576923,mp-1048387,1,2.0
Li4Mn3Fe3(WO8)2,0.0,-2.058114988468801,mp-764443,1,0.0
NdTl(WO4)2,3.252,-2.484275819236111,mp-1209958,1,4.0
Li4Fe2Ni3Te3O16,1.122499999999999,-1.631269754761905,mp-779164,1,1.0
Eu2WO6,0.0,-2.8191394561111123,mp-1213585,1,0.0
Mn2Ni(PO4)3,0.0,-2.270627003043924,mp-759483,1,0.0
Ag2Mo3SeO12,1.7276999999999991,-1.549436900454281,mp-556429,1,2.0
Li4V5Co3O16,1.2917,-2.16919495297619,mp-1177160,1,1.0
Sr2NdMn3O9,0.0,-2.6495951767528743,mp-1218797,1,0.0
Pr2WO6,3.058,-3.181993228703702,mp-1209470,1,4.0
MnCu3(SeO3)4,0.104099999999999,-1.189215503365301,mp-1221764,1,0.0
BaZnFeF7,3.4151,-3.11474576125,mp-554362,1,5.0
Cr2P3O13,0.0,-2.150996067857144,mp-27100,1,0.0
Na3Co(NO2)6,2.5223,-1.048845851551724,mp-19310,1,3.0
MoPNO7,1.1863,-1.692881958964285,mp-1203523,1,1.0
Li5VP2O9,0.003499999999999,-2.658292912408963,mp-559308,1,0.0
CrNiPO5,0.0,-2.291926426830386,mp-1226272,1,0.0
K2CrH2Cl5O,2.3851,-1.781390104954545,mp-510467,1,3.0
La4FeSe6O,1.620899999999999,-2.2340751828385432,mp-1312000,1,2.0
Co2As2O9,0.8107000000000001,-1.216513179807692,mp-1196672,1,1.0
Cr(FeO2)3,1.0932,-1.538731719375,mp-1245256,1,1.0
CaWO2,0.0,-1.951485219374999,mp-1390191,1,0.0
CaCe3V4O16,0.0,-3.109792424999999,mp-1227464,1,0.0
Mn5O7,0.0,-1.8007708820545991,mp-1046066,1,0.0
Li3CrO3,1.1223,-2.191607945714286,mp-770755,1,1.0
Li4Ti3V2Ni3O16,1.6532,-2.475815008690477,mp-776519,1,2.0
NaCo2(MoO5)2,0.0,-1.605404612758622,mp-1103911,1,0.0
Sr5Ca3Fe2(Co3O10)2,0.0,-2.187436062916667,mp-1099798,1,0.0
MnNbO4,0.0,-2.557473098821839,mp-754809,1,0.0
Fe(HO)2,2.4707,-1.360181359499999,mp-626680,1,3.0
ZnWO2,0.0,-1.233105935624999,mp-1048324,1,0.0
K3YV2O8,3.4086,-2.712865512982143,mp-1105034,1,5.0
NaMn16O32,0.0,-1.824943012821955,mp-1003635,1,0.0
Sr2CoO3,1.4024,-2.2792741075,mp-2615276,1,2.0
Na2V16Mo2O45,0.777,-2.273422835657825,mp-1221666,1,1.0
Li2MnWO6,1.1277,-2.145863094959769,mp-776740,1,1.0
K2LiCoF6,0.0,-2.7391939207833342,mp-1111150,1,0.0
La6Sm2Co7AgO20,0.0,-2.587266563310186,mp-1076492,1,0.0
AlCu3(WO3)4,0.0,-1.5506729815,mp-1045892,1,0.0
Na3VSiBO7,1.5682,-2.613980326792661,mp-771154,1,2.0
Mo2P2NO11,0.8154,-1.521755791361607,mp-1197674,1,1.0
FeNiO3,0.0,-1.280436607,mp-1272388,1,0.0
CeEu2CrO6,0.0,-3.0493593,mp-1516700,1,0.0
LaMo2O5,0.7131999999999991,-2.311332252083333,mp-560684,1,1.0
Ca2Mo3O8,1.6928,-2.4509123742307692,mp-1042855,1,2.0
Nb2MoO8,1.7552,-2.451293767727272,mp-1046942,1,2.0
TlIn(MoO4)2,3.6347,-1.9009215875000012,mp-605771,1,5.0
Li4Fe5CoO12,0.0,-1.667477845606061,mp-769792,1,0.0
Zn2FeWO6,2.8349,-1.8712016285,mp-1047414,1,4.0
MgTl4(WO4)2,0.6381,-1.571624724555557,mp-2232187,1,0.0
CaDyMnSnO6,0.9511,-2.65505615345977,mp-706325,1,1.0
Li7V7(P4O17)2,1.1273,-2.609504533758503,mp-772948,1,1.0
LiVCoO4,2.071299999999999,-2.120816598333333,mp-753926,1,3.0