formula,bg,formation_energy,mp-id,fidelity,bg_category
Sr4Ca4Co7CuO20,0.0,-2.102748167916666,mp-1076175,1,0.0
NaMg14MnO16,0.9006999999999991,-2.882440313103448,mp-1036133,1,1.0
ZrMnO3,2.5635,-3.058372138586206,mp-754513,1,3.0
UH12W3C2S2(N3O5)2,0.042699999999999,-0.560115445277778,mp-1209450,1,0.0
KAlSi3Ni3(HO6)2,0.0,-2.436392992261362,mp-1223621,1,0.0
Mg3Si4(MoO7)2,1.4753,-2.795111671521738,mp-1248826,1,2.0
Mg3Ni2O7,0.0,-1.818312326666665,mp-1374684,1,0.0
Na3Np6FeF30,0.003499999999999,-3.572231408790948,mp-1211073,1,0.0
KP2W7O25,0.5797,-2.30208368290102,mp-1223452,1,0.0
Mg6CrSiO8,2.219999999999999,-2.55128895375,mp-1030893,1,3.0
HfNi(OF)6,0.771,-1.0997305735714291,mp-1104428,1,1.0
SrMg6NiO8,4.0079,-2.62154629125,mp-1031806,1,6.0
MgMnNbO4,0.0,-2.597044523275862,mp-2228271,1,0.0
VH6SO10,0.095199999999999,-1.474645619444444,mp-1217176,1,0.0
SrCo12O19,0.0,-1.358681409375001,mp-562506,1,0.0
Sr2Ca2Fe3CoO12,0.0,-2.132621278749999,mp-1075966,1,0.0
NaCoPH10CO10,3.3235,-1.5385512695217571,mp-1197566,1,4.0
Li2Co(SiO3)2,3.0051,-2.707444126969697,mp-753142,1,4.0
BaMg14MnO16,0.7568,-2.774850118060345,mp-1036171,1,1.0
KSrCeWO6,0.6406000000000001,-2.915984618724999,mp-1521083,1,0.0
CuWO4,0.0,-1.700866176666666,mp-22773,1,0.0
LiCoCuO4,0.0,-1.25378697404762,mp-754020,1,0.0
Fe(NF2)3,1.572799999999999,-0.2887231835,mp-1095055,1,2.0
Ca9Y3(CoO6)4,0.0,-2.53838633575,mp-1227804,1,0.0
LiV2OF5,1.8025,-3.062512554259259,mp-753339,1,2.0
La5Sm3VCr7O20,0.0,-2.845485937291667,mp-1076766,1,0.0
MgMn2Zn2O12,0.2671,-1.050794877697769,mp-1222262,1,0.0
Zn2Cr5(PO4)6,0.7738,-2.521481432915057,mp-1207502,1,1.0
Li2VSi3O8,3.1803,-2.85070760404762,mp-766402,1,4.0
DyWO5,0.0,-2.6165934466666663,mp-1212941,1,0.0
Na6V2C4SO16,2.7061,-2.111933511923306,mp-850796,1,4.0
Ca2FeOsO6,0.0,-2.329608482,mp-1105304,1,0.0
BaCa(CoO3)4,0.0,-1.197108286111111,mp-1521211,1,0.0
Mn2FeReO6,0.0,-1.896154997836208,mp-1105179,1,0.0
Na4Th(MoO4)4,3.9619,-2.393358206620689,mp-560175,1,5.0
Mn4FeO5,0.0,-1.837555392672415,mp-1221857,1,0.0
Na7(WO3)9,1.0388,-2.182249405922213,mp-763805,1,1.0
NdEuHfMnO6,0.0,-3.184998447043104,mp-1519733,1,0.0
Cr(AgO2)2,1.3899,-1.109907690833332,mp-542882,1,2.0
CaV4(AgO6)2,1.9174,-2.204038629912281,mp-16967,1,2.0
SbMoOF9,3.7468,-2.5498830525,mp-555680,1,5.0
ZnCu2(MoO4)2,0.9738,-1.570572925192307,mp-1041415,1,1.0
Li3Co3(Ge3O8)2,0.0,-1.968271094821429,mp-772493,1,0.0
Mg3MoO4,0.0,-2.291883581875,mp-1099250,1,0.0
ZnCoO3,0.213499999999999,-1.326151463,mp-753026,1,0.0
Co4Se3Cl2O9,2.4618,-1.296382262473958,mp-1195181,1,3.0
CaLa3Mn4O12,0.0,-2.8939826793362062,mp-1227182,1,0.0
Fe(GeO3)2,0.0,-1.7355363388888891,mp-1043501,1,0.0
BaSrZnWO6,3.3966,-2.652970814999999,mp-1227377,1,5.0
Nd4Mo31O56,0.8903999999999991,-1.8660096443956051,mp-705665,1,1.0
Li2NbCr3O8,1.9444,-2.568839499761904,mp-758202,1,2.0
V8ZnO24,0.2573,-1.8260399757575752,mp-1199959,1,0.0
La2NbNiO6,0.207600000000001,-3.065186532,mp-1211522,1,0.0
Sr2FeBiO6,0.349599999999999,-2.212546675000001,mp-1205525,1,0.0
LiMn3(P3O10)2,0.615799999999999,-2.481390695999452,mp-758642,1,0.0
KNaMn(Si2O5)2,2.8079,-2.965876960974138,mp-554248,1,4.0
PrSbMo2O9,3.2644,-2.367742396858975,mp-1199237,1,4.0
NiH9C4(NO2)3,4.3023,-0.913730089619565,mp-1198045,1,6.0
CaLa2MnO6,2.347200000000001,-3.191993362293105,mp-1272167,1,3.0
NaY(MoO4)2,3.2744,-2.502047439281609,mp-1220703,1,4.0
TiFe2Ni3(PO4)6,0.014699999999999,-2.276909493088625,mp-776008,1,0.0
SrLiLa3MnO8,1.7080000000000002,-3.209048819018884,mp-753433,1,2.0
CsV2P3O14,0.1499,-2.337070627054186,mp-1203962,1,0.0
KPrFeBiO6,0.3772,-1.9872505188916672,mp-1518082,1,0.0
Sr21Co14O43,0.0,-2.297277216858974,mp-758139,1,0.0
Li2Mn3(PO4)4,0.0,-2.429619398361247,mp-758818,1,0.0
Fe23O25,1.2771,-1.4789985053125,mp-705553,1,1.0
EuMgMnO3,0.0,-2.069038460488505,mp-2210618,1,0.0
K2HoPWO8,4.5636,-2.8562608251263732,mp-555335,1,6.0
MgCr2(WO4)2,1.2645,-2.166466304999998,mp-2227118,1,1.0
LiNi2P3O11,0.0,-2.148529806897759,mp-32389,1,0.0
Ga2(MoO4)3,3.6554,-2.032749425,mp-1213624,1,5.0
MgIn6WO12,0.0,-2.03469516025,mp-2230025,1,0.0
La2MnZnO6,1.5789,-2.9006005837931053,mp-1275611,1,2.0
Ba4Nd2Cu6NiO15,0.0,-2.061289326785715,mp-1228702,1,0.0
LiV3O3F7,1.215,-2.891967237380952,mp-1176719,1,1.0
Li4Mn(PO3)6,4.698,-2.610564443417983,mp-754890,1,7.0
ZnNiF6,1.6071,-1.936362921249999,mp-1391273,1,2.0
Ca4Mn2Al2O11,0.0,-2.898616175308529,mp-1227726,1,0.0
Mo8P9H56N12ClO56,2.7586,-1.503950271491448,mp-604773,1,4.0
Li7Cr7P6(O8F)3,1.5399,-2.589878075663628,mp-759336,1,2.0
NaW2(Br3O)2,0.0,-1.317857627398118,mp-557030,1,0.0
ZnNi2P2O9,0.0,-1.907679719056122,mp-1043209,1,0.0
Sm2Co2O5,0.7379999999999991,-2.612430643333334,mp-1076063,1,1.0
Sr2Mg2V3O14,0.763799999999999,-2.108196404404762,mp-734298,1,1.0
Li9Fe4(SiO5)4,0.0,-2.321320915945945,mp-759075,1,0.0
K4WO5,3.3802,-2.078901624233332,mp-504840,1,5.0
YSn(WO4)2,0.0,-2.431070379166666,mp-1042152,1,0.0
Cs3FeO3,2.1129,-1.547254847352217,mp-1193066,1,3.0
SmDy(CoO3)4,0.0,-1.519477454814814,mp-1518584,1,0.0
Rb2Fe2(SO4)3,3.834799999999999,-1.790318234868421,mp-1209476,1,5.0
LiMg4Al(MoO4)6,3.4516,-2.394198303148149,mp-1222638,1,5.0
Mn2Cr3FeO8,1.7368,-2.212638574704433,mp-1222018,1,2.0
Ta2NiO6,0.0,-2.890584630518518,mp-32308,1,0.0
Ga2WO6,2.8214,-2.189594627222222,mp-770692,1,4.0
NaCaDyWO6,2.861099999999999,-2.839973089304597,mp-1523242,1,4.0
Ba5Li2(WO5)3,2.291499999999999,-2.779990600866666,mp-557816,1,3.0
Na4NiMo6(H19O20)2,2.8117,-1.519115093179968,mp-1195146,1,4.0
Cr2Cu3(OF)12,1.106299999999999,-1.212736274827586,mp-1182221,1,1.0
Sr8Fe7CoO20,0.0,-1.606247267361111,mp-1076165,1,0.0
Ba7V6CoCl4O21,1.3615,-2.762819123205128,mp-1194914,1,2.0
Li4Mn3Nb2Ni3O16,0.4468,-2.14539265704023,mp-758591,1,0.0
Li9V12Fe7O48,0.0,-2.091375859736843,mp-850893,1,0.0
Na3Fe3(PO4)4,1.7179000000000002,-2.437781256642667,mp-556540,1,2.0
KCu3Ag(MoO4)4,0.4969,-1.630486525556666,mp-699550,1,0.0
Na2MoO4,4.3983,-2.149706168251234,mp-18852,1,6.0
Li3Zn(Fe5O8)4,1.053599999999999,-1.685766479821428,mp-771780,1,1.0
KCr12Si8ClO28,2.160999999999999,-2.624491959345,mp-1223595,1,3.0
KNiPO4,3.272099999999999,-2.316560863484693,mp-22655,1,4.0
Ca2Nb2CoO9,0.9124999999999992,-2.721500686785714,mp-1364209,1,1.0
Ba6Nb9CoO30,0.0,-3.075496367826086,mp-1228527,1,0.0
La2MnPbO9,0.0,-1.860397937917772,mp-1223416,1,0.0
Mn2AsO5,0.0,-1.9535515363577731,mp-1205062,1,0.0
W8O21,0.0,-2.135729148706896,mp-560362,1,0.0
CrSiH8(O2F3)2,0.032,-2.079500198749999,mp-1196749,1,0.0
Na2Si4NiO10,1.3731,-2.8297519092799193,mp-505307,1,2.0
Co(NO5)2,0.0,-0.294909733846153,mp-1104601,1,0.0
Li4Mn7O12,0.181999999999999,-2.0713311556022,mp-758315,1,0.0
LiMnCoO4,0.0,-1.785787682323482,mp-753984,1,0.0
NpCrH8C2(NO2)4,0.3299,-1.29288164578125,mp-1205162,1,0.0
Si2NiO6,0.0,-2.231324256666665,mp-1264292,1,0.0
Na3La8Ti9Mn3O36,1.2517,-3.371485453863238,mp-1173864,1,1.0
Li2V(PO4)2,1.310099999999999,-2.658300478150183,mp-26415,1,1.0
Li5CrFe4(P2O7)5,2.4695,-2.550389814965368,mp-1223507,1,3.0
Tl2TeMo2(PO7)2,2.8927,-2.064608524886646,mp-10448,1,4.0
CoPH3CO4,0.024499999999999,-1.058763718839286,mp-1204708,1,0.0
V2NiO6,2.1245,-2.115222795000001,mp-28162,1,3.0
Li4Cr2Fe3O10,0.9489,-2.01571577491228,mp-780315,1,1.0
CsFeH4Cl3O2,3.4992,-1.490824513832288,mp-744268,1,5.0
Rb2WO4,4.511,-2.248733529999998,mp-18864,1,6.0
Sr4Fe2CoNiO12,0.0,-2.033558936,mp-1218583,1,0.0
Li4Ti3Cr3(SbO8)2,0.0,-2.607652307619047,mp-758653,1,0.0
Sr2NiIrO6,0.0,-2.082495822,mp-1078518,1,0.0
KGa2NiP3(H2O7)2,4.1711,-2.209189322847143,mp-1197280,1,6.0
Li10Mn3Cr5O16,0.176799999999999,-2.184654287562542,mp-760073,1,0.0
MnBi2(IO)8,0.6180999999999991,-0.544532671470054,mp-1204173,1,0.0
Na6Ni2As(CO4)4,0.0,-1.83220391623365,mp-781671,1,0.0
Ca2MnAs2(HO4)2,0.1769,-1.867012362028736,mp-1214256,1,0.0
Co6OF11,0.8186,-2.205787613888889,mp-754817,1,1.0
La7SmMnFe7O20,0.8737,-2.740199189734195,mp-1099902,1,1.0
SbWO7,0.0,-1.289451520555555,mp-1219467,1,0.0
Sr7W4O19,3.114099999999999,-2.8757239845,mp-768610,1,4.0
CrNiO4,0.0,-1.5371248025,mp-18726,1,0.0
Fe8SiO12,0.4446,-1.8021914495238092,mp-758271,1,0.0
Ba2Ni3O8,0.0,-1.255626521538461,mp-1401956,1,0.0
VSO5,1.5119999999999991,-2.098150829285713,mp-22092,1,2.0
Li2Cr(CoO3)2,0.0,-1.77163136560606,mp-757009,1,0.0
Li12Co3NiP4(CO7)4,2.84,-2.289665167664834,mp-766567,1,4.0
V3O10,0.0,-1.432554382692308,mp-818205,1,0.0
SrSmV4O12,0.0,-2.6335752702777793,mp-1522304,1,0.0
VH14C4NO2F3,3.0679,-0.888975811299999,mp-560363,1,4.0
Na2Co2Si8H72C24N4O,0.2744,-0.254786469006714,mp-1194231,1,0.0
Li(NiO2)5,0.0,-0.891973365208333,mp-1222991,1,0.0
Na2NiH8(SO6)2,4.58,-1.655324263110344,mp-510526,1,6.0
Li3(NiO2)5,0.3803,-1.246013918888889,mp-1311345,1,0.0
Co(PO3)2,2.6019,-2.285493845476191,mp-541790,1,3.0
SrCaDyFeO6,0.297499999999999,-2.6401029041666653,mp-1517169,1,0.0
CaLa2WO6,2.0397,-3.145924291,mp-1385999,1,3.0
Sr4Fe6Bi7PbO24,0.0,-1.768833545952381,mp-1218820,1,0.0
Li2Cr(Si2O5)2,2.7634,-2.935426703039217,mp-758640,1,4.0
KMnF3,2.4058,-3.016103159036205,mp-1205353,1,3.0
Na12Ca3Fe2(SiO3)12,2.602299999999999,-2.8603256188700272,mp-1221962,1,3.0
CsLu(MoO4)2,3.6904,-2.58630772802682,mp-1213076,1,5.0
ZnMo3O14,0.0,-1.029730157222222,mp-1215835,1,0.0
Li9Cr19O48,0.052599999999999,-1.9747535317105251,mp-851096,1,0.0
Li4Fe2Co3Sn3O16,0.0,-1.803615038869048,mp-774889,1,0.0
Cs2SrV4O12,2.6812,-2.563402076805808,mp-18160,1,4.0
KFeH2S2O9,1.4988,-1.8410944513166672,mp-764405,1,2.0
NaMgNiO2,0.0,-1.511182243275861,mp-2226994,1,0.0
Li3Fe3WO8,0.012999999999999,-1.944658659999999,mp-1177706,1,0.0
DyWO4,1.9468,-2.9821638769444423,mp-755673,1,2.0
FeH12(NF2)3,4.1489,-1.303088939772727,mp-699478,1,6.0
MgCo5(P2O7)4,0.473999999999999,-2.2471412560034,mp-1235010,1,0.0
Li3MnCr3O8,1.7173,-2.306694291195402,mp-1177618,1,2.0
VNi3(PO4)4,0.0154,-2.173563119523809,mp-775192,1,0.0
YV(WO4)2,1.8602,-2.6117525587499992,mp-1042176,1,2.0
Zn3Fe4(MoO4)6,1.0337,-1.822521412702703,mp-1356436,1,1.0
Li3MnFeCo(PO4)3,2.4151,-2.493042212826648,mp-1177625,1,3.0
CaCo2O5,0.0,-1.608722593125,mp-1389398,1,0.0
CrP2H14C9O4,3.1304,-0.371821584142857,mp-1198661,1,4.0
Li6Cr5O12,0.0,-2.241557214347826,mp-781691,1,0.0
KNaCaSi8Ni5O24,0.4603,-2.624290873465733,mp-1223575,1,0.0
Mg6VNiO8,1.474999999999999,-2.666683626875,mp-1031776,1,2.0
BaMnF4,2.3195,-3.558479204655171,mp-556850,1,3.0
Sr2MnSbO6,0.8793000000000001,-2.587189905793104,mp-1218763,1,1.0
Na7(CoO3)2,0.0,-1.498345034310343,mp-19427,1,0.0
Rb5(W4O15)2,0.0,-1.88077905238372,mp-674969,1,0.0
Sr2La2FeCu3O10,0.0,-2.393824591111112,mp-1173276,1,0.0
La7SmMn7FeO20,0.0013,-2.902939732653258,mp-1099704,1,0.0
TiMn3Sb2(PO4)6,0.025399999999999,-2.493886643471766,mp-774911,1,0.0
KMoPO6,2.5431,-2.377654261321429,mp-17138,1,3.0
K2CoH2(SO4)2,0.6262,-1.521625919133333,mp-1212230,1,0.0
Ca3Ge3(WO6)2,2.0729,-2.499558590124999,mp-1331549,1,3.0
Ba2SrMgWO6,1.341799999999999,-2.611241115,mp-2240658,1,2.0
KPrDyFeO6,0.271,-2.473109339058332,mp-1522577,1,0.0
Mn(BO2)2,4.4584,-2.613749505716339,mp-1199954,1,6.0
Co(ReO4)2,0.0,-2.035404187727273,mp-31516,1,0.0
K2Fe2As2O9,1.8765,-1.876597094133334,mp-619092,1,2.0
HoZn(CoO3)2,0.074899999999999,-1.879291302499999,mp-1347018,1,0.0
Bi3Sb(WO6)2,1.404199999999999,-1.9495015377777771,mp-1227520,1,2.0
VGa(CuO2)2,0.0,-1.7634390084375,mp-1216344,1,0.0
NaLa5Mg4(WO6)4,3.3623,-3.03323918727314,mp-1173608,1,5.0
AlVP2C2N2O9,2.2879,-1.95611847039916,mp-735184,1,3.0
SmMgNiO3,0.0,-1.656895702500001,mp-2223038,1,0.0
MgMn4(HO4)2,0.0,-1.9010360592816091,mp-2232183,1,0.0
RbV2Fe(AgO4)2,2.029499999999999,-1.83693589470238,mp-1103452,1,3.0
CsSbWO6,0.1143,-2.173342098295019,mp-1540169,1,0.0
LiCr2P2O9,0.6726000000000001,-2.517752778937073,mp-1013922,1,1.0
MgV8O16,0.9959999999999992,-2.426218595800001,mp-2216842,1,1.0
VSi3Bi61O100,2.001,-1.741977559151517,mp-1217882,1,3.0
Na2LiV5H18O23,2.469999999999999,-1.752917536807999,mp-1203476,1,3.0
Sr10Fe10O29,0.0,-2.2502026578571432,mp-1094087,1,0.0
MnP6(WO8)3,1.1303,-2.48712215017024,mp-776341,1,1.0
Li4TiFe3Cu2(PO4)6,0.2187,-2.399087382363094,mp-778677,1,0.0
CaU2V2O17,0.9609999999999992,-1.987849190681817,mp-1196876,1,1.0
Li4Ti5Fe3O16,1.2162,-2.788818240714286,mp-777591,1,1.0
K2Be2Co(O3F4)2,0.2393,-1.669140226552632,mp-1212259,1,0.0
NdMoBrO4,2.0897,-2.585778148214286,mp-1193284,1,3.0
MgV4(WO6)2,0.9449,-2.328070694999999,mp-2230567,1,1.0
Li8MnNi7(PO4)12,0.0,-2.184913232372526,mp-777316,1,0.0
Mg14FeSiO16,2.646,-2.772007049374999,mp-1035561,1,3.0
Y2MgMn2S2O5,0.0,-2.480126384238506,mp-1046607,1,0.0
K5In(MoO4)4,3.4823,-2.146265986458333,mp-1203773,1,5.0
Li6Mg(Ni6O13)2,0.6691,-1.212142242555555,mp-759215,1,1.0
Li6Ni11(OF12)2,3.3305,-2.398915784186046,mp-759635,1,5.0
Ge3(MoO6)2,2.1691,-1.871993721617647,mp-1364316,1,3.0
MoN2O3F2,0.4553,-0.6549183565624991,mp-1199664,1,0.0
Ho2CrSbO7,1.6887999999999992,-2.956802449999999,mp-1224219,1,2.0
Li2Mn(NiO3)2,0.5479,-1.594435484054336,mp-762624,1,0.0
CaW5O7,0.0,-1.118312559230767,mp-1340542,1,0.0
BaTe2Mo2(HO6)2,3.0286,-1.9046019508333332,mp-1182595,1,4.0
Ti(WO4)2,2.4069,-2.433770533484848,mp-1041486,1,3.0
Ti(CoO3)2,0.0,-1.77583029037037,mp-753158,1,0.0
CaFeSiO5,0.0,-2.6252370825,mp-1046733,1,0.0
GdFeAsO,0.0,-1.667817868124998,mp-1078679,1,0.0
In6WO12,1.7679999999999991,-2.020597898947368,mp-20099,1,2.0
Cs2TlFeF6,2.9057,-2.724510652264368,mp-504603,1,4.0
FeRhO3,0.0,-0.466947915,mp-973648,1,0.0
Nd2Mo8O45,0.0376,-0.978946533818182,mp-1204857,1,0.0
SrCa3Mn2O8,0.0,-2.720425731133005,mp-1218408,1,0.0
BaSrPrNiO6,0.0,-2.329900621166666,mp-1520375,1,0.0
NaCr6O11,0.0,-2.148411580354405,mp-780132,1,0.0
Li7Mn4(P2O7)4,0.2872,-2.634016412600006,mp-1176940,1,0.0
Na7(WO3)8,0.0,-2.12896804204244,mp-761115,1,0.0
Mn2Zn(PO5)2,0.0,-2.086137005009853,mp-1043935,1,0.0
CsNa2Mn3P4ClO14,2.5772999999999993,-2.5731908377911332,mp-1195634,1,3.0
Fe2O2F5,0.8155999999999991,-1.949788103333332,mp-1190371,1,1.0
NaFe2P2H5O11,2.5432,-1.95883501413881,mp-1197635,1,3.0
LiFeNiO4,0.0,-1.436421586190476,mp-755275,1,0.0
Li2Co3NiO8,0.9352,-1.433889075119048,mp-756196,1,1.0
K2Zn2(MoO4)3,3.6629,-2.043182530236842,mp-12194,1,5.0
LiYMo3O8,0.0,-2.378474222564103,mp-19431,1,0.0
LiNbCoO4,2.266499999999999,-2.43439199904762,mp-777452,1,3.0
RbNa3Mo2H18O17,4.584300000000001,-1.576442667539949,mp-735488,1,6.0
Al3FeSiBO9,3.9052,-2.956474093444444,mp-1214903,1,5.0
Ti2MnNiO6,2.2676,-2.7714517739597713,mp-1217119,1,3.0
LiCr(WO4)2,2.4172,-2.274192492361109,mp-1191127,1,3.0
Li3Co2P5O16,3.281999999999999,-2.496773487623627,mp-26203,1,4.0
Mo8P6O49,0.014899999999999,-1.383014710521542,mp-818409,1,0.0
Ba3Sr5Co4(CuO5)4,0.0,-1.961106306736111,mp-1076683,1,0.0
MnNi7O8,1.0111,-1.269460427370688,mp-1221343,1,1.0
Li3Co5OF11,2.6076,-2.427307759,mp-754832,1,3.0
Ni3P3O11,0.043299999999999,-2.113312895672268,mp-585392,1,0.0
Li2FeGeO4,2.1565,-2.141823088958333,mp-1210923,1,3.0
Ba2YW3O8,0.0,-2.286321872142856,mp-1048138,1,0.0
Ba2Fe2CuF14,0.0,-2.801665327368421,mp-1361380,1,0.0
Tm2MgMo2(ClO4)2,1.7352,-2.6631383690000012,mp-2232507,1,2.0
NpCrO11,0.0,-0.7788790289423061,mp-1211219,1,0.0
Mn7SiO12,0.3909,-2.236868358525862,mp-3224,1,0.0
MgHg4(WO4)2,1.3495,-1.530240159000001,mp-2232580,1,2.0
BaCo2Sn4O11,0.0,-2.024231411111111,mp-1228162,1,0.0
SrPrVO4,0.034399999999999,-3.156155420238096,mp-1217973,1,0.0
Li3VOF6,3.2009,-2.899429912272727,mp-759965,1,4.0
SrCa7Fe2(CoO4)6,0.0,-1.990063214499999,mp-1076829,1,0.0
CsNaMoO6,0.711,-1.247784644559386,mp-1204588,1,1.0
CaBi3PbWClO8,0.0,-1.6978405826666672,mp-1233335,1,0.0
Li2FeCu(PO4)2,0.0,-2.3214841189965982,mp-758722,1,0.0
Fe3F,0.0,0.687243426250001,mp-1184279,1,0.0
CaP4W3O14,1.381999999999999,-2.189825225844153,mp-1048126,1,2.0
KVBP2HO9,0.0,-2.615884106796825,mp-24827,1,0.0
Li4CrSb(TeO6)2,1.390299999999999,-1.960649933833333,mp-781050,1,2.0
Ba2PrCoCu2O7,0.0,-2.184156434358974,mp-1214590,1,0.0
V2P2H2O11,1.785,-2.229945114222689,mp-1198775,1,2.0
Li2CrCu(PO4)2,0.053999999999999,-2.396412481139456,mp-752698,1,0.0
SrDyCoO4,0.9849999999999992,-2.689070690952381,mp-1218284,1,1.0
Mg7VFeMo15O56,2.0652,-2.1879912938125,mp-695554,1,3.0
Rb2MoO4,4.5041,-2.1996417928571432,mp-19212,1,6.0
BaCr4O7,0.9646,-1.9964581687499992,mp-1048371,1,1.0
Li2Fe5Si5O16,2.3446,-2.534015127738095,mp-767707,1,3.0
Li2Cr2SnO6,3.171599999999999,-2.248986266969697,mp-756493,1,4.0
Na(Mo2O3)2,0.0,-1.439486606034483,mp-1191832,1,0.0
CoBiAsO5,2.0761,-1.6534395684375,mp-1105091,1,3.0
BaHo2NiO5,0.0,-3.134184291666665,mp-19181,1,0.0
Li3TiFe3O8,1.8661999999999992,-2.225647984222222,mp-755163,1,2.0
CeCrS2O,0.0,-2.195788184999998,mp-551214,1,0.0
Li2VPO6,3.1546,-2.572074944630952,mp-616566,1,4.0
PrMg(CoO3)4,0.0,-1.301206962592592,mp-1517171,1,0.0
MgFe(GeO3)2,1.5423999999999989,-2.23204450675,mp-1043493,1,2.0
Li7MnCo3(PO4)6,0.0,-2.347723476320036,mp-887355,1,0.0
CrAsO4,2.5028,-1.966665451805549,mp-1204934,1,3.0
Li2Mn2OF6,1.6309,-2.810989276593521,mp-753723,1,2.0
La4Sm4Co7CuO24,0.0,-2.448884304500001,mp-1076219,1,0.0
VGa(TeO4)2,2.8924000000000003,-1.89668319861111,mp-1195697,1,4.0
MgCo12(BO5)4,0.0,-1.682912842477478,mp-1234270,1,0.0
RbFeP2O7,2.5011,-2.534139638344155,mp-18396,1,3.0
SrCr9Ga3O19,1.967299999999999,-2.420175350234374,mp-1218679,1,2.0
Sn(Mo2O3)2,0.0,-1.407954074090908,mp-505802,1,0.0
CaV2(BiO5)2,0.5859000000000001,-2.093910090166666,mp-1325619,1,0.0
Mn3Fe5O12,0.479499999999999,-1.7450539606896551,mp-757662,1,0.0
Mg30TiVO32,0.0,-2.974279532395833,mp-1036804,1,0.0
Na2Li8U11(WO22)2,1.300599999999999,-3.180109680439182,mp-555626,1,1.0
MgMn2(CoO4)2,0.236099999999999,-1.780798153912467,mp-2218976,1,0.0
Li4(CoO2)9,0.0,-1.346355424946237,mp-850020,1,0.0
HfCrO4,1.1371,-2.97761368375,mp-1980701,1,1.0
Li4Ti3Fe3(CoO8)2,0.0,-2.233529705119047,mp-768930,1,0.0
MgW2O5,0.0,-2.022251835625001,mp-1399005,1,0.0
Li3Fe(BO3)2,2.5875,-2.4727302313194452,mp-770825,1,3.0
LiMnNiO4,0.205499999999999,-1.706483919466339,mp-756366,1,0.0
K3CrO8,1.818899999999999,-1.134695215979166,mp-18876,1,2.0
Dy2MgMn4O8,1.026399999999999,-2.420673544003831,mp-1234815,1,1.0
Na4CrO3,0.0,-1.548893628814655,mp-849604,1,0.0
TiFe2Bi2PbO9,2.1131,-1.995355853555556,mp-1216934,1,3.0
LiNi4(PO4)3,3.6954,-2.172858817113096,mp-26511,1,5.0
Li4Ti2Fe5O12,1.5208,-2.263140436086956,mp-758960,1,2.0
Eu2YVO6,0.0,-3.119232440000002,mp-1522779,1,0.0
Ti11Fe13O36,1.7464,-2.624049638277777,mp-531901,1,2.0
NiH6(CO3)2,4.0189,-1.251116915055555,mp-1195478,1,6.0
Sr3Ca5Mn8O22,0.0,-2.492005253446008,mp-1247692,1,0.0
Ti3MnSb2(PO4)6,0.0,-2.69273711543856,mp-775892,1,0.0
Cs8Fe2O7,1.7378,-1.485079856602433,mp-1198676,1,2.0
Ca8Mn8O21,0.0,-2.521779840431035,mp-1247596,1,0.0
Li6Mn3Nb(PO4)6,0.7646000000000001,-2.627607283291257,mp-849778,1,1.0
CsCrClO3,2.8096,-1.818505302859195,mp-560270,1,4.0
KCeFeMoO6,0.5223,-1.849481895725,mp-1223771,1,0.0
V9PO25,0.9124999999999992,-2.277825972561226,mp-769551,1,1.0
Na2Mn2O3,0.0,-1.794531012660094,mp-558376,1,0.0
CaNiAs2O7,2.7064,-2.030143152727272,mp-1042887,1,4.0
MgFe2(BiO3)2,1.913,-1.720324059545455,mp-2217296,1,2.0
Ba3Fe2(Ge2O7)2,0.396799999999999,-2.405612431304347,mp-1228826,1,0.0
La3MgTi3CrO12,0.0,-3.4192712535,mp-2230553,1,0.0
AgMo5P8O33,2.5162,-2.355236106570415,mp-1229264,1,3.0
K2MnSO4F3,1.5234,-2.512292868175549,mp-18838,1,2.0
La4MgCr2O12,1.633499999999999,-2.964542667631579,mp-2228331,1,2.0
Li5Cu2Ni5O12,0.2376,-1.422397356111111,mp-754449,1,0.0
Co3Cu(PO4)4,0.0,-1.967021801607143,mp-775177,1,0.0
Li8WO6,2.981,-2.117255039777777,mp-755616,1,4.0
BaNaDyWO6,2.8635,-2.927216575304597,mp-1520399,1,4.0
Na3FeAsCO7,1.7516,-1.9772908193567271,mp-771144,1,2.0
BaCaMnWO6,1.885199999999999,-2.670369828793103,mp-1516715,1,2.0
Fe(ClO2)3,0.0,0.148608806,mp-1079439,1,0.0
YTi(WO4)2,1.7127,-2.801049497777777,mp-1042631,1,2.0
NaUVO7,0.338499999999999,-2.43833714088793,mp-1221190,1,0.0
Cr3O5,0.698399999999999,-1.886803229375,mp-1096920,1,1.0
Ho6WO12,3.4002,-3.6564756473684192,mp-19065,1,5.0
SrCo2As2(H2O5)2,2.7097,-1.748149730394736,mp-562127,1,4.0
NaFe(WO4)2,1.9174,-2.106803241364943,mp-22076,1,2.0
MgV2(FeO4)2,2.0903,-2.198918346538462,mp-2227701,1,3.0
Mg6VCdO8,3.1529,-2.638104292499999,mp-1031606,1,4.0
CaCo4(CuO4)3,0.0,-1.32432780525,mp-1043073,1,0.0
Rb2LiMoF6,4.622999999999999,-2.9892687018333333,mp-1110654,1,6.0
UCu4(MoO8)2,0.0,-1.591669642608696,mp-1191505,1,0.0
Dy2WO6,3.653799999999999,-3.311442006203702,mp-770559,1,5.0
Li7Ni(O2F)2,0.7928000000000001,-2.13337175720238,mp-1662701,1,1.0