formula,bg,formation_energy,mp-id,fidelity,bg_category
Na4Mn2P(CO4)4,0.0,-2.007023509297118,mp-782649,1,0.0
Li6Mn3Cr(PO4)6,0.7068999999999991,-2.536803308541255,mp-771092,1,1.0
Li4V2F9,0.9706,-3.125694068888889,mp-863369,1,1.0
LaP2H2(WO2)3,0.0,-0.9712969883418352,mp-1212648,1,0.0
SrEuZrMnO6,0.0,-3.066992060293105,mp-1521062,1,0.0
Sr2MgV2(Si2O7)2,2.3901,-3.001389160652174,mp-1233213,1,3.0
CaCoAsHO5,1.9298,-1.991736076805555,mp-23815,1,2.0
Li4Ti2Cr3Ni3O16,0.327599999999999,-2.169125769285713,mp-770552,1,0.0
YMn(WO4)2,1.6614,-2.566241396077585,mp-1042160,1,2.0
Li5Cr2Cu5O12,0.0,-1.463915002777777,mp-756836,1,0.0
Sr2TaCrO6,2.9169,-3.225134689733333,mp-1539400,1,4.0
Zn2Cr3FeO8,0.0,-2.145085084285714,mp-1215741,1,0.0
ZnCr(SiO3)2,0.0665,-2.6834657355,mp-1248912,1,0.0
Li(CoO2)2,0.665899999999999,-1.506478392440475,mp-774082,1,0.0
MnSn3F6,0.0,-1.251390966293102,mp-1213086,1,0.0
Li4CrFe3Sn2(PO4)6,1.8994,-2.447887531279761,mp-1177657,1,2.0
Ba3V2O7F5,1.4075,-2.767969835735294,mp-1215049,1,2.0
LiTi2Co3O10,0.1934,-2.075424916875,mp-762834,1,0.0
MnCrF5,2.2668,-2.99918572899015,mp-555156,1,3.0
Li4Mn(SiO3)3,2.8629,-2.779536190956728,mp-780578,1,4.0
V5CrO12,1.1348,-2.369230467222222,mp-754350,1,1.0
V2Ni(HO2)4,2.7872,-1.770659468333333,mp-542027,1,4.0
Li10Fe3Sb7O24,1.0632,-1.966037415530303,mp-770854,1,1.0
Li7Mn(OF)3,3.081899999999999,-2.4395052372331683,mp-760307,1,4.0
VSeO4,1.8197,-1.828767264973957,mp-28619,1,2.0
MnCo3O8,0.0,-1.234280509827585,mp-773602,1,0.0
Cs4Zr3Mn(PO4)6,2.7516,-2.939058139458129,mp-705889,1,4.0
Mn2Mo3O8,0.0,-1.744128114297082,mp-504503,1,0.0
CaNi2(PO4)2,3.1073,-2.503994431098902,mp-1040914,1,4.0
Li8Mn5O10,0.4868,-2.038509285927037,mp-764701,1,0.0
Pr12Mn11O36,0.0,-2.922114715970193,mp-530875,1,0.0
Li4Mn2Si3O10,3.159,-2.767020317326074,mp-757670,1,4.0
YMg30CoO32,1.0697,-2.9739356809375,mp-1037750,1,1.0
Rb8Fe2O7,1.6086999999999991,-1.524184723529411,mp-561139,1,2.0
CaMn4(SiO3)5,3.2266,-2.927157428668995,mp-558800,1,4.0
Li3Fe9O5F11,1.944599999999999,-2.241767499642857,mp-849473,1,2.0
Li4Co5O9F,1.1535,-1.705863688070175,mp-755408,1,1.0
Li3Ti3Fe(PO4)6,2.3884,-2.8677860348069513,mp-695021,1,3.0
Cs2Cr(NO3)5,2.7358,-1.248424550984508,mp-560716,1,4.0
KVPO4F,2.3034,-2.8474841446116073,mp-1239185,1,3.0
KVH2SO7,1.9909999999999992,-1.950043397895832,mp-728123,1,2.0
Li2FeAsCO7,2.2223,-1.9527329968055551,mp-771027,1,3.0
NiWO4,2.8991,-1.900100025833332,mp-21179,1,4.0
Li2Fe3(Si3O8)2,2.9702,-2.757814065432098,mp-757311,1,4.0
K8Li9Mn4O16,0.436899999999999,-1.8729941421547072,mp-757769,1,0.0
Na4Ni2O5,0.8644000000000001,-1.306033652319748,mp-780118,1,1.0
LiCoNiO4,0.0,-1.370053134047619,mp-754509,1,0.0
SrTbPrMnO6,2.2916,-3.027835131626437,mp-1519326,1,3.0
BaLaNdMn3O9,0.0,-2.796488486752874,mp-1227936,1,0.0
Ni(CO)4,4.1141,-0.676726623472222,mp-836407,1,6.0
Li2Si4(NiO4)3,0.0,-2.458541820198411,mp-849759,1,0.0
Li4Mn2Co3Sn3O16,0.0,-1.858180092649834,mp-850186,1,0.0
MnCu2P2O9,0.0,-1.9145349781940544,mp-1197083,1,0.0
Cs5FeO4,1.3283,-1.449985525077586,mp-1201412,1,1.0
Fe15O16,1.188899999999999,-1.441563290645162,mp-705551,1,1.0
BaCaVP2O9,2.5735,-3.064525238877551,mp-558004,1,3.0
Rb2VCuF6,0.0,-2.6840008875,mp-1113787,1,0.0
Cs4Fe(MoO4)3,3.0126,-2.115080500931035,mp-1226269,1,4.0
Lu(FeO2)2,0.0,-2.460051321666666,mp-1196239,1,0.0
NiSn3(PO4)4,0.7363000000000001,-2.288149525565476,mp-756765,1,1.0
CaLaTiFeO6,0.0,-3.200547504833333,mp-1043825,1,0.0
SrCaZrCrO6,0.0,-3.039029287999999,mp-1522114,1,0.0
CsHo(MoO4)2,3.540899999999999,-2.552484682054598,mp-1213347,1,5.0
Er2Mn2O7,1.1678,-2.9157233146238233,mp-19256,1,1.0
Mo3H8C4SN2Cl6O7,1.1369,-1.028787831048386,mp-698272,1,1.0
BaNaPrFeO6,0.0,-2.156300456304598,mp-1522267,1,0.0
BaSrCeFeO6,0.0,-2.846781751,mp-1522103,1,0.0
LiMnP2O7,1.2405,-2.565324869822735,mp-31924,1,1.0
LaFePO,0.0,-1.750613983660714,mp-510668,1,0.0
Gd4Mo4O11,0.4432,-2.66557848907895,mp-1200768,1,0.0
KV5Co(H8O11)2,2.052499999999999,-1.6812920321611111,mp-776014,1,3.0
Li2Co(NiO3)2,0.306999999999999,-1.347039314242424,mp-757774,1,0.0
V3H4NO7,1.5712000000000002,-1.790877274333333,mp-1192720,1,2.0
Sr3TaFeO7,0.0,-3.02220285936111,mp-1218521,1,0.0
Li5Mn5CoO12,0.1109,-1.994633266216892,mp-760336,1,0.0
Cs2FeH2Cl5O,2.4188,-1.642356647891849,mp-1193024,1,3.0
KBaGdWO6,2.8167,-2.937881864725,mp-1523079,1,4.0
Ba2V2BiPO11,2.999199999999999,-2.734340733508403,mp-1228794,1,4.0
IrWN5ClO4,0.3305,0.424808025208333,mp-1200098,1,0.0
Mg14VSnO16,2.842599999999999,-2.77993251984375,mp-1034549,1,4.0
Sr4La(CoO3)5,0.0,-2.0922221828,mp-1218687,1,0.0
BaEuFeBiO6,0.0,-2.2146952665,mp-1517846,1,0.0
Na2Hf(MoO4)3,2.8868,-2.35520882098659,mp-1210635,1,4.0
FeSNO,1.5851000000000002,-0.191897231406249,mp-622785,1,2.0
Tm6WO12,3.3673,-3.757400671578949,mp-756123,1,5.0
BaV2P4O17,0.9121999999999992,-2.392901864940476,mp-728140,1,1.0
KGd(WO4)2,3.247499999999999,-2.660793796020833,mp-505647,1,4.0
CsFe(OF2)2,0.0,-1.3846135030818971,mp-1213406,1,0.0
Na2Fe4O7,1.4146,-1.6340472513660471,mp-1120771,1,2.0
Li3(WO3)8,0.0,-2.206382801428572,mp-1222771,1,0.0
BaW4O7,0.0,-1.258230168749998,mp-1048515,1,0.0
K2SrV3O9,2.214299999999999,-2.6140968908,mp-554684,1,3.0
Zn3Co2(Si2O7)2,0.427299999999999,-2.337351344565217,mp-1262752,1,0.0
Re3NiO8,0.0,-1.8187224756250011,mp-1219614,1,0.0
LiMo2P2O9,1.8104,-2.441558773937076,mp-1012668,1,2.0
Sr2Pr(FeO3)3,0.0,-2.4067169184444452,mp-1218794,1,0.0
Mn3Al2F15,1.460699999999999,-3.067788531689655,mp-1265053,1,2.0
KNa2MoF6,2.0919,-2.7345319030008612,mp-1111010,1,3.0
Li4Cr2Si4O13,3.0944,-2.834331281666667,mp-759372,1,4.0
Sr2Y2Mn2O7,0.016599999999999,-2.964173598527851,mp-1048669,1,0.0
Fe2O2F3,0.0,-1.98008921142857,mp-755377,1,0.0
V(TeO3)4,1.0937,-1.538538349803922,mp-762679,1,1.0
Na2Fe(SO5)2,0.443899999999999,-1.613044631183908,mp-1196862,1,0.0
Zn(FeO2)2,1.6686,-1.745025911428572,mp-19313,1,2.0
SrNiO2,0.0,-2.01787988125,mp-19190,1,0.0
SrCaVInO6,1.7895,-2.617201030666666,mp-1518195,1,2.0
Li2FeH4(SO5)2,4.2418,-1.801750750877193,mp-770588,1,6.0
Ca6La2Mn7CrO24,0.0,-2.655991766137931,mp-743861,1,0.0
Eu2Mo2O7,0.0,-2.649039712272727,mp-1191878,1,0.0
Fe13Cu5O24,0.0,-1.407926506428571,mp-763652,1,0.0
MnCuO2,0.178699999999999,-1.539728060732759,mp-510589,1,0.0
CaMn4(AgO4)4,0.1282,-1.110220350335631,mp-1233090,1,0.0
Fe11(NiO3)8,0.0,-1.38919845627907,mp-36806,1,0.0
Cs2CrH2Cl5O,2.5142,-1.784442124710031,mp-542535,1,3.0
Sr4CaYFeCu4PbO14,0.0,-2.173725461153845,mp-1218684,1,0.0
Li3Ti2CrO6,0.0,-2.761631921388888,mp-756972,1,0.0
LiMn2P2(O4F)2,0.0,-2.461281937065408,mp-759719,1,0.0
CaMn7O12,0.0,-2.132179828275861,mp-29283,1,0.0
BaSrInWO6,0.0,-2.525219261666667,mp-1516873,1,0.0
GdFe3(BO3)4,2.291499999999999,-2.571434543333333,mp-560751,1,3.0
Li11(NiO4)2,0.0,-1.828003246984127,mp-769472,1,0.0
FeP2NO7,0.1441,-1.5811318137987,mp-1200863,1,0.0
CaNdCr4O12,0.0,-2.104133538194444,mp-1518380,1,0.0
Mn4NiO8,0.0,-1.721249697824935,mp-757060,1,0.0
Li13V24O52,0.5977,-2.420091244644195,mp-777360,1,0.0
K2Mo2H4C4O15,2.748,-1.722050000907408,mp-1196938,1,4.0
HoTl(MoO4)2,3.291,-2.378023333402778,mp-1212243,1,4.0
P2WO8,2.4666,-2.410133454935064,mp-687234,1,3.0
Sr2Pr2TlNi2O9,0.0,-2.449613268854167,mp-1218716,1,0.0
Li2Mn2Fe(PO4)3,0.8241,-2.457613428322866,mp-776051,1,1.0
NaLiCoPO4F,0.0,-2.497722196733945,mp-1204228,1,0.0
LiVBO3,1.7400000000000002,-2.487784760138888,mp-756785,1,2.0
Sr2Ca6Mn5Fe3O20,0.0,-2.459353368393198,mp-1076862,1,0.0
CaMn6(OF2)4,0.2836,-2.644665697767696,mp-1234479,1,0.0
Li2CoH8(SO6)2,2.6701,-1.612558675266667,mp-770611,1,4.0
Ce2Mo4O15,0.055899999999999,-2.489722987142856,mp-559828,1,0.0
UVH3O7,2.095799999999999,-2.319607172604166,mp-1194810,1,3.0
CsMoH2C2SO7,0.0176,-1.396972920332511,mp-1238260,1,0.0
Y2Co2O7,0.0,-2.342372649545453,mp-1369302,1,0.0
Li4Ti3Mn3(SbO8)2,0.0,-2.52699653454023,mp-758701,1,0.0
CsWF7,4.630599999999999,-2.923457344406128,mp-561687,1,6.0
Na8Co5O14,0.4634,-1.4063836233716471,mp-774400,1,0.0
V5O14,0.0,-1.904386669342105,mp-1204545,1,0.0
Mn3Co(PO4)6,0.0,-2.113040036225007,mp-757859,1,0.0
MgVO2F,1.7093,-2.842244662000001,mp-2225031,1,2.0
Li3Cr2Fe5O12,0.0,-1.848651597727272,mp-756384,1,0.0
LiVPO4F,1.6248,-2.8377582250595252,mp-25423,1,2.0
Na4Mg(NiO2)5,0.5004000000000001,-1.423085587025862,mp-2230006,1,0.0
KNdEuWO6,0.173,-2.843766694475,mp-1519055,1,0.0
KNi4(PO4)3,3.5552,-2.186760459058926,mp-21957,1,5.0
CaMnCu3(RuO4)3,0.0,-1.532994115396551,mp-1227254,1,0.0
Sr4Al6MoO16,3.5484,-3.294082419398147,mp-6120,1,5.0
NaFeSnO4,1.8559,-1.9399294959113291,mp-1221058,1,2.0
Fe6O7F6,0.0,-1.886679431842104,mp-779899,1,0.0
Li3V2(PO4)3,1.8718999999999992,-2.727606636196428,mp-6396,1,2.0
Li4MnV2WO12,1.1649,-2.228694701063218,mp-755727,1,1.0
La2MgMnO6,1.9571,-3.187289188293105,mp-19406,1,2.0
La2MgCr2(CoO6)2,0.4194,-2.254548232894736,mp-2231116,1,0.0
RbH3WO7,3.1797,-1.499240029270833,mp-560254,1,4.0
Ca2Al2FeSi3O13,0.0,-3.076116905476191,mp-1196208,1,0.0
CsTaWO6,3.1466,-2.763755162998724,mp-1225854,1,4.0
Ca3Mn2(SiO4)3,1.106799999999999,-3.068277864418105,mp-1265277,1,1.0
CrHO2,3.155799999999999,-1.9860185846875,mp-23910,1,4.0
Hf(MoO4)2,3.2774,-2.519785754393939,mp-687090,1,4.0
Mg2CoIrO6,0.0,-1.876322342,mp-1374810,1,0.0
Li4Mn2P4H3O16,0.5609000000000001,-2.40538627074196,mp-771909,1,0.0
K4(NiO2)3,0.691299999999999,-1.255388656076921,mp-1104174,1,1.0
CoMoH2SeO7,0.052799999999999,-1.511006784153645,mp-866480,1,0.0
Rb6In2Co2Si9O26,3.058199999999999,-2.7232710355185192,mp-562801,1,4.0
Li4Fe3Co2Ni3O16,0.0,-1.208128267619047,mp-753758,1,0.0
BaEuMgFe2O5,0.0,-2.1206177335,mp-2240715,1,0.0
EuMoO4F,0.0,-2.65965903607143,mp-582540,1,0.0
Ba2Mg3Tl2(NiO3)4,0.0,-1.629199142681159,mp-1813181,1,0.0
La2CoSiO2,0.0,-1.7227022600000002,mp-1147750,1,0.0
LiVOF3,1.5838,-2.977853840555556,mp-765230,1,2.0
LiCrFeO4,0.169599999999999,-1.981970361190476,mp-754600,1,0.0
Li4Ti3Nb2Ni3O16,1.8898,-2.676794084761905,mp-771129,1,2.0
Ba3Fe2BrO5,0.0,-2.287973905454547,mp-1147585,1,0.0
CoCBrN4O3,0.182699999999999,0.034004217499999,mp-1202336,1,0.0
Ca3La5Mn6(CuO12)2,0.0,-2.688695298814655,mp-706245,1,0.0
CaP2WO7,0.6886999999999991,-2.556919393116882,mp-1042052,1,1.0
Ti3Co2Ni(PO4)6,0.0144,-2.650902422996032,mp-849245,1,0.0
La5Sm3Cr6(FeO12)2,1.9061,-2.974390286,mp-1076580,1,2.0
Nd2FeSbO7,1.3969,-2.80928720272727,mp-1220431,1,2.0
LiMg30WO32,3.1002,-2.954541314739584,mp-1040082,1,4.0
Li8Fe7(PO4)8,0.0311,-2.461550309341991,mp-774835,1,0.0
CaCeAlFe2Si3O13,0.3082,-3.032245942619048,mp-1214122,1,0.0
NaCaZrWO6,0.0,-2.8019952261379313,mp-1516212,1,0.0
MgMn2(FeO2)4,1.3389,-1.754808101390805,mp-2232141,1,2.0
Ba2Mn2Se2OF2,0.0,-2.546645978394396,mp-1080029,1,0.0
Sr2Pr2MnCuO8,0.0,-2.771543827233169,mp-1218720,1,0.0
Li2FeCSO7,4.353099999999999,-2.027604755555555,mp-1579553,1,6.0
Ag2(MoO4)3,0.9809,-1.118035937254902,mp-1205258,1,1.0
MnAlB2(PbO4)2,0.2911,-2.46693785866174,mp-1221830,1,0.0
MnH2(CO2)2,2.4292,-1.411699862825671,mp-558013,1,3.0
MnVO2F5,0.589399999999999,-2.201367638659004,mp-1210967,1,0.0
Gd2Mn3Sb3O14,0.8407,-2.449043679717868,mp-1225126,1,1.0
MgW2(BrO)4,0.701199999999999,-1.687964050454545,mp-2227274,1,1.0
Na5Ca7Zr2TiMnSi8(O8F)4,0.179,-3.257102638636015,mp-1221189,1,0.0
Na3Ti2Mn3Si4(O8F)2,0.006099999999999,-2.94712267898659,mp-1210891,1,0.0
MgTi2(FeO2)4,0.0,-2.122010768777777,mp-2233216,1,0.0
SrNiF6,1.7074,-2.702901423750001,mp-555718,1,2.0
Co3(PO4)2,2.9001,-2.156004351868131,mp-19264,1,4.0
Mn2In(CO)9,2.0944,-0.724595617501368,mp-643670,1,3.0
MgMn2(BrO2)6,0.064899999999999,-0.521531875755336,mp-1180387,1,0.0
K2HgMoF6,0.0,-2.4351286777,mp-1112152,1,0.0
LiCo(SiO3)2,1.7181000000000002,-2.602430832333334,mp-755994,1,2.0
K6W2N4O3,2.0577,-0.933495355233332,mp-726858,1,3.0
CaFe5P5O22,0.6665999999999991,-2.293469929188311,mp-818432,1,1.0
Co3C7S2O7,1.7057,-0.70781813486842,mp-707110,1,2.0
Li4TiNi5(PO4)6,2.3297,-2.390106242863094,mp-770943,1,3.0
K2Cu2(MoO4)3,0.088799999999999,-1.820189981157894,mp-1212576,1,0.0
MnFe2Ag2(PO4)3,0.243999999999999,-2.115866138009647,mp-1210836,1,0.0
KTaWO7,0.9989999999999992,-2.244669890458332,mp-1223034,1,1.0
SrMgFe2(SeO3)4,3.1105,-1.7408086417187492,mp-2230288,1,4.0
K2BaNi(NO2)6,1.7322000000000002,-1.163279899749999,mp-690607,1,2.0
Ba3V2S4O3,0.4239,-2.269824494166666,mp-18000,1,0.0
ZnNiAs2O7,2.065699999999999,-1.629026573636363,mp-1042795,1,3.0
Mg3Co2(Si2O7)2,1.532599999999999,-2.7144933421739132,mp-1254259,1,2.0
LaBWO6,3.8287,-2.909348835462962,mp-1211317,1,5.0
Ba2NdV3O11,3.492499999999999,-2.996975628235294,mp-1214860,1,5.0
Ba8(CoO3)7,0.158499999999999,-2.089558520833334,mp-30201,1,0.0
Mn12HO24,0.0,-1.778389688822229,mp-1080220,1,0.0
VZnNiP2O9,1.9474,-2.33405102994898,mp-1333433,1,2.0
Ba2Na(NiO2)3,0.5781000000000001,-1.693221622614942,mp-19397,1,0.0
Ti2V(PO4)3,0.0769,-2.931885007810845,mp-771649,1,0.0
MgCoF6,0.0078,-2.559765698125,mp-1443950,1,0.0
CrCu(WO4)2,0.431299999999999,-1.984436133333332,mp-1213744,1,0.0
Mg30CrBiO32,0.0,-2.86418917234375,mp-1038546,1,0.0
K3NaCr2O8,3.0529,-2.048080444152094,mp-18964,1,4.0
Sr2NiO3F,0.0,-2.5946052,mp-1218709,1,0.0
CaEuDyNiO6,0.0,-2.493873161666666,mp-1519833,1,0.0
K3ErMgV2O8,1.7368,-2.534104643783333,mp-2232149,1,2.0
La5Sm3Co7CuO20,0.0,-2.299798638541667,mp-1076874,1,0.0
VBiO5,0.0,-1.554036183214285,mp-1372756,1,0.0
Ba(FeO2)4,0.0,-1.560009504615385,mp-1412406,1,0.0
K2Fe4O7,0.8588,-1.6840119368846131,mp-1120752,1,1.0
MnCr2Ni3(PO4)6,0.0,-2.194043427660782,mp-777895,1,0.0
La3BWO9,3.794799999999999,-3.3881831513690472,mp-554773,1,5.0
BaFe4O7,0.0,-1.860038219999999,mp-504445,1,0.0
LiMn4(CoO6)2,0.0,-1.582034045003025,mp-1235264,1,0.0
K3Sc(MoO4)3,3.971,-2.40758911456579,mp-555776,1,5.0
Cs2Cr4Cd(HO4)4,2.7195,-1.676280052752235,mp-572375,1,4.0
Mn2Be3(NF6)2,0.0,-2.177055024782214,mp-1212123,1,0.0
Na2LiNiF6,0.0,-2.586728331000009,mp-1114109,1,0.0
V2PbO6,2.2667,-2.213791998888889,mp-21126,1,3.0
ZnCr(Si2O5)2,3.3001,-2.87278921609375,mp-1043538,1,4.0
Ni3(BiO2)10,0.0,-1.348405020000001,mp-675540,1,0.0
Fe4As4H4O19,0.054099999999999,-1.473084660645161,mp-1225931,1,0.0
Sr2NdVO6,1.6477,-3.03149778275,mp-1522778,1,2.0
Mg6MnCrO8,2.130099999999999,-2.713119413620689,mp-1032690,1,3.0
YCoO3,0.0,-2.591207236500001,mp-22668,1,0.0
La2Mn3ZnO9,0.0,-2.5674586595862072,mp-1223644,1,0.0
Cd5Fe2(P2O7)4,1.5868000000000002,-2.359721515398671,mp-1214030,1,2.0
SrCrSnSbO6,0.879699999999999,-2.175102164499999,mp-1521763,1,1.0
MgFe6(OF2)4,1.8316999999999992,-2.228695885526315,mp-1233442,1,2.0
KLiWO3,0.0,-1.723211147597222,mp-1235719,1,0.0
SrSmNiO4,0.0,-2.638947473571428,mp-1217760,1,0.0
MoPb3Cl2O5,2.198199999999999,-1.769634967727272,mp-557563,1,3.0
Zn4Co5(TeO6)3,0.9073,-1.5492037505,mp-1046528,1,1.0
Fe3Sb5(IO3)3,2.5007,-1.49988522975,mp-1199909,1,3.0
Mn7Fe3O20,0.0,-1.5802633710172411,mp-777317,1,0.0
MgTiCo(PO4)3,1.4341,-2.67791947790344,mp-1044294,1,2.0
TmTl(MoO4)2,3.9679,-2.387890309444446,mp-1207819,1,5.0
LiFeCoO4,0.7167,-1.576017184047618,mp-850214,1,1.0
KLa(NiO3)4,0.0,-0.8251099634583331,mp-1522011,1,0.0
La16Ni8O33,0.0,-3.020805007105264,mp-867595,1,0.0
U2Mn(AsO10)2,0.0,-1.24958849171724,mp-1199293,1,0.0
Er8Mn3Mo5O28,0.666,-2.989450483949843,mp-1225972,1,0.0
CrBO3,0.0,-2.6201185768333333,mp-19299,1,0.0
Sr2YTlCo2O7,0.0,-2.273781652948718,mp-1048300,1,0.0
SrCa3(Co2O5)2,0.0163,-2.147788814513888,mp-1076675,1,0.0
Rb2CrH2Cl5O,0.7788,-1.790165848181818,mp-728170,1,1.0
Ba2MgCuWO6,0.8853999999999991,-2.280799592272727,mp-2234096,1,1.0
CoH16RuN10ClO10,1.1571,-0.593738518589743,mp-729048,1,1.0
KFe(SeO3)4,0.1021,-0.918280203145833,mp-1519803,1,0.0
Rb3VO8,0.0871,-1.180708367291667,mp-1180695,1,0.0
SrEuMgWO6,0.3566,-2.952167827000001,mp-1518310,1,0.0
Li2MnV4FeO12,1.395299999999999,-2.289026891729884,mp-755976,1,2.0
CaMgV2O7,2.7603,-2.78740285090909,mp-14381,1,4.0
Rb3Mo12PO40,2.2651,-2.075703972716836,mp-560115,1,3.0
Li4Cr3(CO3)6,0.653799999999999,-2.060149000430107,mp-758282,1,0.0
Fe7O8,1.0723,-1.493853144333332,mp-715333,1,1.0
CaLaPrMnO6,2.698,-2.97455164745977,mp-1522145,1,4.0
Zn2NiIrO6,0.0,-1.3365544205,mp-1047130,1,0.0
CeTl5Co2(NO2)12,0.0,-0.8498450285606071,mp-21973,1,0.0
Li4Fe2Ni3Sn(PO4)6,3.0536,-2.319630161404761,mp-780843,1,4.0
LaMgFeCuO6,0.1012,-2.154231970499999,mp-1043854,1,0.0
Li8MnCo7(PO4)12,0.0,-2.248093494872526,mp-758579,1,0.0
ZnCoPO5,0.1137,-1.9983827030803571,mp-2234517,1,0.0
La11Mn12O36,0.0,-2.912758906274111,mp-766296,1,0.0
Li4Mn2Ni3Sb3O16,0.0,-1.852268401756979,mp-766017,1,0.0
La4FeAs4Ru3O4,0.0,-1.9740845578125,mp-1223053,1,0.0
LiV2O4,0.6926000000000001,-2.507835831904763,mp-1288227,1,1.0
CaCrAsO5,1.272299999999999,-2.3929461065625,mp-1343018,1,1.0
Eu3V2O7,0.0,-3.000047516666667,mp-1212877,1,0.0
KTi3FeO8,2.3423,-2.996779545942307,mp-1223303,1,3.0
LiMn2P2H5O11,0.8279000000000001,-2.009887304034814,mp-780864,1,1.0
KMnBiWO6,0.0,-1.899153369518102,mp-1522301,1,0.0
LiMg6CoO8,1.3215,-2.646027305208334,mp-1032218,1,1.0
Na4Th(WO4)4,4.685300000000001,-2.461930786820689,mp-1200418,1,7.0
Ba4Dy2Cu6NiO15,0.0,-2.124594004583333,mp-1228235,1,0.0
MgV4O5F7,1.3792,-2.882799425588235,mp-2224803,1,2.0
Gd2VFeO6,1.6075,-3.0350072365,mp-1225231,1,2.0
Li2Ni3(P2O7)2,4.0597,-2.381122719140787,mp-25991,1,6.0
Mn(CoO2)4,0.0,-1.296383139071617,mp-757157,1,0.0
K5Na3Nb7WO24,0.0,-2.749062904759698,mp-1099622,1,0.0
VPbO2,0.049599999999999,-1.4056645075,mp-1208173,1,0.0
BaSmEuVO6,0.0,-3.087707772000001,mp-1516301,1,0.0
Mn4Be3Si3TeO12,3.1768,-2.717548969060469,mp-18320,1,4.0
MnZnP2O7,3.15,-2.499341746110613,mp-1048260,1,4.0
SrCaCrF7,4.2453,-3.7707881975,mp-1208686,1,6.0
Li5Fe2P2(CO7)2,1.624699999999999,-2.314682503038095,mp-1177151,1,2.0
KNa7V7MoO20,0.067699999999999,-2.269470942552922,mp-1099669,1,0.0
Ca4Zn3Fe(SiO3)8,3.0625,-3.026572536499999,mp-1227080,1,4.0
MgV4(OF6)2,1.229099999999999,-3.019062360263158,mp-2230997,1,1.0
Ba2Ca2Mn3Tl2O10,0.0,-2.22481868370841,mp-1046494,1,0.0
MgCoP2O7,3.1875,-2.61165304198052,mp-1048235,1,4.0
HoCo(BO2)5,3.124999999999999,-2.873404687254902,mp-19465,1,4.0
Li2Cr2Si4O11,1.855999999999999,-2.858575855877193,mp-757623,1,2.0
FeCoPO5,0.1222,-2.011240842142856,mp-542157,1,0.0
Lu3MnFe3O10,0.0,-2.765551637525356,mp-1222593,1,0.0
VPO4F,1.5351,-2.702751832806124,mp-1104878,1,2.0
Co2PO5,0.0,-1.9442250374553571,mp-1272384,1,0.0
Mn2Fe3Sb(PO4)6,2.28,-2.390417347325533,mp-775850,1,3.0
Li5Ti2Fe3O10,1.7744,-2.454141510166667,mp-1177123,1,2.0
LiNi(SO4)2,0.0,-1.770515055694444,mp-776292,1,0.0
CaMnO2,1.7860999999999991,-2.625429628857758,mp-1003322,1,2.0
KCrPCO7,0.8471000000000001,-2.249386081990259,mp-1178159,1,1.0
Cs2CrH4F10,1.9123,-2.437889239959432,mp-1204482,1,2.0
Eu2FeWO6,0.0,-2.521126592,mp-1521041,1,0.0
CoSiN5ClF6,0.0,-1.308867939642856,mp-1193831,1,0.0
V2I3NO13,0.0,-0.9442922181578952,mp-1199129,1,0.0
MgV4(O2F)4,1.255399999999999,-2.64453173735294,mp-2224270,1,1.0
V4CrCuO12,0.6418,-2.180077924444445,mp-756483,1,0.0
Li4Cr3Ni2Sn3O16,0.8408999999999991,-1.980348392440476,mp-774861,1,1.0
Mn2Cu3H24(OF)12,0.6733,-1.611703360299285,mp-505404,1,1.0
Li6NbCo3(PO4)6,0.3889,-2.474057359196428,mp-758592,1,0.0
MgV5(MoO5)5,0.836199999999999,-2.163405421111111,mp-1234912,1,1.0
Sr2V11NiO22,0.7712000000000001,-2.537432278333335,mp-1218689,1,1.0
Na3NiO3,0.0,-1.386525704876846,mp-755725,1,0.0
VH12C2S2(O2F)6,2.422599999999999,-1.5765326674285711,mp-699429,1,3.0
RbWO3,0.0,-2.0409458445,mp-975138,1,0.0
CaMnIrO6,0.0,-1.76091609532567,mp-1342876,1,0.0
Ti(FeO2)4,0.0,-1.903959635641024,mp-35482,1,0.0
Cd3Fe2(GeO4)3,1.9028,-1.836510163874999,mp-1215138,1,2.0
Ba3Fe4P8PbO28,4.0495,-2.713483659935064,mp-1228512,1,6.0
La3Fe4AgO12,0.0,-2.332838851833334,mp-1223177,1,0.0
V4O3F5,0.5565,-2.8233988566666692,mp-754530,1,0.0
RbSbMoO6,2.4282,-2.039864508055555,mp-1219606,1,3.0
NaCo2H3(SO5)2,0.0,-1.7071303822294062,mp-1173715,1,0.0
Li4Co3Sn(PO4)4,1.602399999999999,-2.300636453460885,mp-757004,1,2.0
CoSnO3,0.0,-1.7440109039999991,mp-761574,1,0.0
NbV3F6,0.0,-1.598486909500002,mp-1210162,1,0.0
Na13Mn5(SiO3)12,0.459999999999999,-2.726654133448276,mp-1221917,1,0.0
NiCO4,0.0,-1.008207566250001,mp-752591,1,0.0
Cr4Xe5F44,1.2921999999999991,-1.468676579103774,mp-1199834,1,1.0
FeCo3O8,0.0,-1.077854304166667,mp-761579,1,0.0
La2VZnO6,1.701799999999999,-3.075442359000001,mp-1405776,1,2.0
MnPO7,0.597299999999999,-1.113916985147098,mp-1212571,1,0.0
Sm2MoO6,2.2312,-3.143166101111113,mp-17591,1,3.0
VO2,0.7584000000000001,-2.522468176666668,mp-541404,1,1.0