formula,bg,formation_energy,mp-id,fidelity,bg_category
PrEuMnSbO6,0.0,-2.62261041845977,mp-1517197,1,0.0
Ba5MgMnV4(Cl3O7)2,2.6163,-2.778008514933259,mp-1214612,1,3.0
Ba6Y2Co4O15,1.209299999999999,-2.585296590185184,mp-1196872,1,1.0
Mg3Mn2(Si2O7)2,2.137099999999999,-2.902386055689655,mp-1250887,1,3.0
Fe3H10S2NO14,1.9047,-1.458063358416666,mp-40778,1,2.0
LiSiNiO4,0.273099999999999,-2.235122678333333,mp-761324,1,0.0
Sr4FeRuO8,0.0,-2.557285502142856,mp-1218399,1,0.0
MgFe2(CoO4)2,0.919,-1.485418495,mp-2219106,1,1.0
MgTiV3O8,1.0069,-2.742998146794872,mp-2219007,1,1.0
LiSc4(FeO3)4,1.3091,-2.678944788253968,mp-1236487,1,1.0
CoSb3XeF23,0.9364999999999992,-2.106697256339285,mp-1195576,1,1.0
FeH8N2F5,1.3954,-0.482072632656249,mp-1181422,1,2.0
MnNiO3,0.0,-1.619272340586208,mp-19331,1,0.0
Li2Si2Ni2O7,3.2881,-2.397919928397435,mp-766586,1,4.0
Fe2WC10(SeO5)2,1.955,-0.6185608559875001,mp-557864,1,2.0
MnTeC5O6F5,2.1624,-1.399438789005428,mp-650943,1,3.0
Fe32O35,0.507899999999999,-1.475207054701491,mp-863766,1,0.0
K2W4O13,1.9062,-2.251699962605264,mp-757860,1,2.0
Mn7Sb(PO4)12,0.0,-2.222973114429876,mp-776832,1,0.0
CaFeSbAs2O7,1.523699999999999,-1.871780772499999,mp-557398,1,2.0
Ba2Mn4Tl2Zn3O12,0.0,-1.7167225103648172,mp-1048574,1,0.0
Fe2H11(SeO5)3,0.123699999999999,-1.167122540912298,mp-765464,1,0.0
Na2V2(PO4)3,0.9548999999999992,-2.640946125088799,mp-760126,1,1.0
HoMoO5,0.0,-2.530902193928571,mp-1212177,1,0.0
Li5Ti4Co3O16,0.3601,-2.417654663035714,mp-769510,1,0.0
Co2O3F,0.0,-1.306400923333332,mp-850970,1,0.0
Sm3BWO9,3.825699999999999,-3.350879025654762,mp-561186,1,5.0
DyCrTeO6,2.7169,-2.542657223148146,mp-1105344,1,4.0
Sr3Cr2S2O5,0.0,-2.328772994999999,mp-1239342,1,0.0
SrEuNbVO6,0.0,-3.093793812500001,mp-1521910,1,0.0
Na3CrH14(C3O8)2,3.597,-1.412147612290948,mp-726543,1,5.0
LiSbWO6,2.3233,-2.111403034259259,mp-17290,1,3.0
Mg2FeBO5,2.085699999999999,-2.67784053574074,mp-1210692,1,3.0
Ca3Mn2(GeO4)3,1.017,-2.584876549293104,mp-744259,1,1.0
Mg14CoSnO16,0.3096,-2.73496367671875,mp-1035116,1,0.0
Li5Co5(CuO6)2,0.0,-1.503100148194445,mp-764915,1,0.0
Li4CoNi3(PO4)4,2.6828000000000003,-2.362365258639456,mp-850408,1,4.0
NaCa2V3(CoO6)2,2.1268,-2.475092731818965,mp-694918,1,3.0
BaVO3,0.0,-2.830250003000001,mp-19150,1,0.0
Fe4OF7,1.9278,-2.418891556249999,mp-763020,1,2.0
ZnCoP2H12O11,2.0092,-1.495038618121692,mp-1199400,1,3.0
Li4Mn5Fe(PO4)6,0.321099999999999,-2.491450573521141,mp-776660,1,0.0
Li4MnV3(PO4)4,2.694099999999999,-2.634225888922706,mp-757477,1,4.0
Rb2FeC5N6O,2.8058,-0.0009884805,mp-622613,1,4.0
MgV2O4,0.000199999999999,-2.7016632902380953,mp-1040943,1,0.0
KFeCu(PO4)2,0.6213000000000001,-2.284025564733515,mp-1199970,1,0.0
Li4Mn3Fe2Cu3O16,0.0,-1.619800402754515,mp-779210,1,0.0
Li4Ti3Ni3(TeO8)2,1.4504,-2.287136176130953,mp-763178,1,2.0
Co3CuH56(SO11)4,1.0868,-1.365792348981481,mp-1229150,1,1.0
Fe3C9Se2O9,1.811,-0.55733470433424,mp-629560,1,2.0
Li3VOF5,2.1558,-3.04199630225,mp-760816,1,3.0
V3Sb(PO4)6,0.9553,-2.51946127052521,mp-756472,1,1.0
V5Co(PO4)6,0.0,-2.511485572440474,mp-790064,1,0.0
MnTeO3,3.006299999999999,-1.73984980841954,mp-1176417,1,4.0
La2MgZnCoO6,2.2862,-2.702398248636364,mp-2217956,1,3.0
ScTl(MoO4)2,3.6236,-2.348050686527779,mp-19450,1,5.0
Li7Mn11(Si3O16)2,0.2855,-2.425796171438835,mp-757389,1,0.0
Co9Te5(PbO5)6,1.3596,-1.485331924266667,mp-1203045,1,2.0
LiFeH8(SO6)2,2.3339,-1.591101032222222,mp-781672,1,3.0
Hf3Ni(OF)6,0.0,-2.891145830624999,mp-1236837,1,0.0
Sr3LaMn4O12,0.0,-2.622405912836208,mp-1218500,1,0.0
LiNi5O3F5,2.6608,-1.8891311970238092,mp-758931,1,3.0
ZnCoMo2O7,0.6836000000000001,-1.687188429090908,mp-1042650,1,1.0
NaEuNiGeO6,0.0,-1.862870898887931,mp-1520407,1,0.0
CrSO6,0.0,-1.5265578384375011,mp-1198864,1,0.0
SmBiW2O9,2.6689,-2.474325542115385,mp-1200917,1,4.0
MgAg6Mo2ClO7F3,0.0,-1.39601088625,mp-2231172,1,0.0
Ti2Co(PO5)2,1.9118,-2.888954799896824,mp-562797,1,2.0
Li2CrP4(H2O3)6,2.4219,-1.956036007303732,mp-778674,1,3.0
Li4CaNiO4,2.7874,-2.057615936333333,mp-775950,1,4.0
La7(FeO8)2,0.0,-2.9596819682000013,mp-770762,1,0.0
Sr2CrO4,1.9972,-2.7884199301785713,mp-19514,1,2.0
Fe3C9(SO5)2,2.1639,-0.580044398541667,mp-654299,1,3.0
Mo4H8N2O13,3.1654,-1.44423050962963,mp-728126,1,4.0
Ba3La7Mn2(Co4O15)2,0.0,-2.459043673817242,mp-694945,1,0.0
ZnCr6Si2Pb10(O16F)2,2.327999999999999,-1.932493032075471,mp-556077,1,3.0
Al4Cr13Si2(SbO14)2,0.790199999999999,-2.406264099591836,mp-1044864,1,1.0
RbCrNiF6,3.227999999999999,-2.8505304430555563,mp-1219589,1,4.0
TiNi3(PO4)4,0.0,-2.294297536746032,mp-774679,1,0.0
NaHf2VF11,3.1712,-3.8249189550919542,mp-554121,1,4.0
MgMnF5,1.7552,-3.186037126133005,mp-1829192,1,2.0
Li2Mn2(SO4)3,4.6747,-2.141867725922564,mp-777817,1,7.0
V5Te(PO4)6,0.010599999999999,-2.507042281514551,mp-768349,1,0.0
Ni(PO5)2,0.0142,-1.12502908032967,mp-1210328,1,0.0
Na2VBAsO7,1.553499999999999,-2.236237924118774,mp-773190,1,2.0
Li4V3Fe3(TeO8)2,1.363999999999999,-2.03335777202381,mp-767773,1,2.0
UMo5O16,0.278,-2.231513562272728,mp-32069,1,0.0
Li12Mn7V(PO4)12,0.6222000000000001,-2.580944757015393,mp-1178090,1,0.0
LiCo2P4H3O16,0.0,-1.922082227909798,mp-752661,1,0.0
MgCrAs2O7,1.2053,-2.058054540681818,mp-1042772,1,1.0
MoBr3O,0.9067,-1.151260577499999,mp-1221539,1,1.0
Na2Mn2Cd(PO4)3,0.081399999999999,-2.476416242377463,mp-1210502,1,0.0
Tb3BWO9,3.8011,-3.382038129583333,mp-557110,1,5.0
La2(MoO4)3,3.6634,-2.654257838039218,mp-554402,1,5.0
Li3AlFeO5,0.244699999999999,-2.291145247999999,mp-770691,1,0.0
Na7Li3V10O30,3.1413,-2.379317615693103,mp-774938,1,4.0
CrMoF6,0.0,-2.90843886625,mp-557158,1,0.0
NaFe2Mo2H3O10,2.8704,-1.7775271786182951,mp-1221050,1,4.0
Ba6Gd2Fe4O15,2.1756,-2.704474228333334,mp-1215063,1,3.0
Fe7Sb10(Cl4O9)2,2.5717,-1.649865227674419,mp-1201515,1,3.0
PrMg(NiO3)4,0.0,-1.050842903148148,mp-1520134,1,0.0
Na4Co2O5,0.907899999999999,-1.507053062547022,mp-778475,1,1.0
Na2FeH8(SO6)2,4.2919,-1.679997243310345,mp-1196027,1,6.0
NaMnP2H10NO10,3.9037,-1.718112874643842,mp-757398,1,5.0
Ga13Fe11O32,0.2103,-1.9681001344196432,mp-758262,1,0.0
NdMn4(CuO4)3,0.0,-1.842725734461206,mp-1209905,1,0.0
Mn13Fe(SiO11)2,0.0,-2.163599593239565,mp-1210713,1,0.0
SrCa3(CoO3)4,0.0,-1.9268426775000012,mp-1076096,1,0.0
Ba2ZrWO6,0.0,-3.054233885,mp-1228086,1,0.0
Ba2Mn2TlO7,0.0,-1.941679264516284,mp-1048461,1,0.0
LiFeO2,1.712499999999999,-1.944936747708332,mp-757614,1,2.0
BaTbMn2O6,0.0,-2.693193453752873,mp-558858,1,0.0
Na2MnAsCO7,0.7056,-1.988914695682471,mp-773119,1,1.0
Li3FeCo3O8,0.1623,-1.636657191333333,mp-752570,1,0.0
NaLa(FeO3)4,0.0,-1.392342090354405,mp-1523161,1,0.0
Sr4Ca4Co7CuO24,0.0,-1.917980434,mp-1099611,1,0.0
Sr2La2MnCuO8,0.0,-2.8604462180665022,mp-1173270,1,0.0
NaCo3As3(HO6)2,0.0,-1.616384839827586,mp-505247,1,0.0
LiLa(FeO3)4,0.0,-1.405921035462963,mp-1520090,1,0.0
Rb2TiFe2(MoO4)6,2.5943,-2.118466420238096,mp-1219881,1,3.0
Dy2Mo4O15,3.315699999999999,-2.520972093015871,mp-1213187,1,4.0
Ca2FeAs2F,0.0,-0.382978958333332,mp-1214107,1,0.0
Ba3WCl2O5,3.9374,-2.908011544090908,mp-553883,1,5.0
Li4Cr3NiO8,0.3216,-2.185652997083333,mp-755661,1,0.0
Sr2HfCrO6,0.0,-3.195316816999998,mp-1095039,1,0.0
Li4Cr2TeWO12,0.6647000000000001,-2.0643671535,mp-774764,1,0.0
TaFeO4,0.0,-2.673982990388886,mp-761390,1,0.0
Li5Cr2P5O18,2.4505,-2.662172113162698,mp-26683,1,3.0
Cr(Bi7O12)2,2.019199999999999,-1.672403235128204,mp-698567,1,3.0
V2Zn3(SiO4)3,0.0,-2.482586457250001,mp-1251134,1,0.0
MgAl8Fe3(PO5)8,0.0,-2.696438090535714,mp-1222242,1,0.0
V(NF2)3,0.0,-0.1689847805,mp-726732,1,0.0
Sr3LaV3O12,3.2467,-3.043995866578947,mp-1218724,1,4.0
LiVTe2WO12,1.389999999999999,-1.796778548039215,mp-756572,1,2.0
Li2Mn2FeO6,0.0118,-1.974867729926855,mp-758874,1,0.0
V2N4O11,0.6625999999999991,0.5554291229411751,mp-795607,1,0.0
K2Cr2AsO10,0.0192,-1.70855906991111,mp-1202439,1,0.0
Mg2CoSbO6,0.430699999999999,-2.127222537999999,mp-1344636,1,0.0
EuCrO4,0.0,-2.5037239083333342,mp-22586,1,0.0
Cs3Mo5P7O24,1.3486,-2.356573683755525,mp-572886,1,2.0
CdCo(PO3)4,2.5498000000000003,-2.415384014642857,mp-1213911,1,3.0
Cs2VBr5O4,0.0,-0.719935855359195,mp-1102713,1,0.0
Li4V3Co3(TeO8)2,1.2845,-1.949751858095238,mp-771757,1,1.0
Li5Mn3O8,1.188699999999999,-2.150084919403736,mp-1284734,1,1.0
YCr4(CuO4)3,0.1077,-2.0308343435,mp-1045767,1,0.0
BaYNi4O7,0.0,-1.821246377307692,mp-1048406,1,0.0
BaV13O18,0.0,-2.404032934375001,mp-510249,1,0.0
Ca3Si3(MoO6)2,3.077000000000001,-3.06620171425,mp-1170750,1,4.0
LiMo2(PO4)3,1.3835,-2.507082738458994,mp-585265,1,2.0
CoH17C(NO)8,0.9486,-0.7389878724642851,mp-734885,1,1.0
Li4Fe(SiO4)2,0.2196,-2.498267425222222,mp-752650,1,0.0
V2Sn4H24C8O9,3.1643,-0.701150426914894,mp-867517,1,4.0
Co3Ni3(TeO8)2,0.1703,-1.129739973472222,mp-850530,1,0.0
MgV5H20NO22,2.501,-1.655719840306122,mp-1204069,1,3.0
ZnCr2O5,0.0,-1.773542630624999,mp-1043285,1,0.0
MgCo3(P2O7)2,0.0,-2.378005520844156,mp-1043564,1,0.0
KMn8O16,0.0,-1.899648894427931,mp-1223635,1,0.0
Ni5Te4(ClO6)2,3.039999999999999,-1.37247895289855,mp-555161,1,4.0
LiCo2P2O9,0.0684,-2.033778094294218,mp-1013953,1,0.0
Li6Mn5(P2O7)4,3.683799999999999,-2.609316126208468,mp-504387,1,5.0
VH3O4,0.0,-1.55632651921875,mp-1216479,1,0.0
Rb2Mo2O7,3.3984,-2.134647746363635,mp-554786,1,5.0
NbP6(WO8)3,1.034399999999999,-2.579455039642857,mp-867642,1,1.0
Zn2Ni9O13,0.0,-1.147969138958333,mp-1045893,1,0.0
Li3CrB4O9,2.147599999999999,-2.620189012745097,mp-752710,1,3.0
CrFe2C10(Se2O5)2,1.5206,-0.6350281143287041,mp-652318,1,2.0
Li15(NiO2)14,0.0,-1.469099628245613,mp-705910,1,0.0
Zn2MoSeO7,3.7131,-1.730790659303977,mp-1191333,1,5.0
Li2Mn2CoO8,0.0032,-1.5804527348099031,mp-1222848,1,0.0
Li4MnO2F3,2.577,-2.6824181918764363,mp-753501,1,3.0
Mg2MnSbO6,1.4181,-2.354586001793104,mp-1275484,1,2.0
Cr3InO8,0.3022,-1.856230470555555,mp-560181,1,0.0
TaZn2MoO6,1.740499999999999,-2.274960562733333,mp-1377229,1,2.0
MgFe(SbO3)4,0.583699999999999,-1.908892835277778,mp-2229252,1,0.0
KLiWO4,4.8086,-2.308324216392856,mp-1212005,1,7.0
Li2V3P5O18,1.058099999999999,-2.636453738745749,mp-759162,1,1.0
MnPH15C3N(ClO)3,4.114,-0.8291341891231061,mp-1200911,1,6.0
CrCo5O12,0.467299999999999,-1.130042175,mp-756950,1,0.0
Ca2Ni3O8,0.9173999999999992,-1.5759408007692302,mp-1387694,1,1.0
Li4Ti3V5O16,1.109999999999999,-2.758962322261904,mp-777694,1,1.0
Eu2CrSbO6,0.0,-2.619188668000001,mp-1516449,1,0.0
LuTl(MoO4)2,3.9398,-2.391052673541669,mp-1210978,1,5.0
Na5La(WO4)4,4.8522,-2.405288176611406,mp-540937,1,7.0
Li6NiOF6,1.8953,-2.859697304642857,mp-753283,1,2.0
Rb2Th(MoO4)3,3.616,-2.484004182499999,mp-1195528,1,5.0
CoS2N5O9,0.0,0.251054519264705,mp-1199610,1,0.0
Gd3BWO9,3.2389,-3.338328356369049,mp-561177,1,4.0
MgCr2(AgO4)2,1.4135,-1.530008158333332,mp-2219218,1,2.0
CoH12CN5O6,2.844999999999999,-0.828923369899999,mp-1198533,1,4.0
LaFe4(CuO4)3,0.0,-1.68143263775,mp-1105546,1,0.0
K2FeOF5,0.9737,-2.28887450161111,mp-727423,1,1.0
Cs3MnF7,1.5495,-2.892172022899687,mp-17040,1,2.0
Fe2P4Pb3O16,2.4141999999999992,-2.352073547942856,mp-704946,1,3.0
BaNaFe4P6H3O25,0.259799999999999,-2.273693595199662,mp-735783,1,0.0
Na3Mg4(MoO4)6,0.0084,-2.268640379030754,mp-1210397,1,0.0
Ba3MgMn3O9,1.067899999999999,-2.451848225862069,mp-2224748,1,1.0
V3Cd5O12,0.0,-1.8758423144999992,mp-1207892,1,0.0
NaNb7V2O14,0.0,-2.62148760005747,mp-1210152,1,0.0
ZnFe2(P2O7)2,2.3327,-2.413265474455781,mp-1120760,1,3.0
SrLaTaCoO6,0.0,-3.050700594566666,mp-1173186,1,0.0
Zr4FeBiPb4O15,2.3058,-2.6013954582,mp-1100812,1,3.0
Li4VNi3(PO4)4,1.525799999999999,-2.429504070782312,mp-757423,1,2.0
CoO,0.5880000000000001,-1.271831146250001,mp-22408,1,0.0
V3Fe2Co(PO4)6,0.0,-2.441566429662698,mp-768464,1,0.0
Ba2LiVP2O9,2.0816,-2.95243719384127,mp-760067,1,3.0
Mn2V3Ni(PO4)6,1.2659,-2.538987700381088,mp-774360,1,1.0
La6WO12,3.4959,-3.623329485263157,mp-755135,1,5.0
Sr2DyWO6,0.0,-3.037937008166666,mp-1519670,1,0.0
La7SmV7CrO20,0.2233,-2.896425323402779,mp-1076889,1,0.0
SrCrSnWO6,0.0,-2.2243093195,mp-1517968,1,0.0
Mn2Cr3O12,0.6347,-1.709367047844827,mp-760285,1,0.0
FeH2Cl5O3,2.0017,-0.580559383863636,mp-1182106,1,3.0
Na5Mn2P2(CO7)2,0.468799999999999,-2.335632672081773,mp-769536,1,0.0
BaV4O7,1.2406,-2.3108065379166662,mp-1376683,1,1.0
Na5LiV6O18,3.1909,-2.376005872507663,mp-774894,1,4.0
Np(WO4)2,0.459299999999999,-2.452776213863636,mp-1210384,1,0.0
CsFe(SO4)2,2.3514,-1.999110723929597,mp-560628,1,3.0
Cr2H21I7(N2O)3,1.6697000000000002,-0.7374842890705131,mp-765147,1,2.0
Li4Mn5NiO12,0.0605,-1.936924081954023,mp-753964,1,0.0
Li4Co(BO3)2,3.015399999999999,-2.3778534701282052,mp-1177472,1,4.0
Zn2Mo2NO10,0.0,-0.8791407883333331,mp-1215871,1,0.0
MgV4(OF2)4,1.043899999999999,-2.939173715588235,mp-2224434,1,1.0
KRb2CrF6,4.1522,-3.105047248825,mp-1203661,1,6.0
Ba2MnNbO6,1.162799999999999,-2.9635321102931043,mp-1272179,1,1.0
Ni3(PO4)2,3.7408,-2.111297404560441,mp-22697,1,5.0
Ni(PO3)4,0.0,-2.185853909915965,mp-26686,1,0.0
Li2Si12(NiO6)5,3.9543,-2.720908122993197,mp-772287,1,5.0
CaNi(PO3)4,4.6204,-2.68302037575397,mp-1045813,1,6.0
Li3Co2Si3O10,0.0,-2.526554791944443,mp-1177711,1,0.0
MgMo2(IrO6)2,0.0,-1.656049296764706,mp-2229029,1,0.0
BaMgCoF7,2.1012,-3.220248868999999,mp-1047866,1,3.0
Li5V2Fe5O12,1.1101,-2.030398202777778,mp-770493,1,1.0
Cs2Cd2(MoO4)3,4.1415,-1.9934673166742292,mp-1200495,1,6.0
ZnAsWO5,2.6036,-1.732380881562499,mp-1047474,1,3.0
SrDy(FeO3)4,0.0,-1.650019483981482,mp-1522927,1,0.0
CeMnO3,0.0,-2.792029400586206,mp-1183706,1,0.0
Li4MnCu3O8,0.0,-1.5808196675790231,mp-756491,1,0.0
KFeP4(HO3)4,0.039199999999999,-1.598861024355519,mp-1200689,1,0.0
Ba2Mn2AlF11,0.068799999999999,-3.627614539220546,mp-1044811,1,0.0
KFePCO7,0.0,-2.096512411535714,mp-769579,1,0.0
ErWBrO4,2.7085,-2.669785819285713,mp-1192576,1,4.0
BaV4ZnO8,0.9247,-2.316492755714286,mp-1044331,1,1.0
V2FeO6,1.923,-2.196907958333336,mp-1312206,1,2.0
NiGe3O8,1.9267,-1.629780885416667,mp-543103,1,2.0
ErVO4,2.9661,-3.212660742500001,mp-18960,1,4.0
TiCo3(PO4)4,0.251599999999999,-2.338708478412698,mp-863402,1,0.0
K3VF6,0.0,-3.047231967175,mp-1111308,1,0.0
CoPH3O4,2.9478,-1.609206018849206,mp-721058,1,4.0
Ba2UNiO6,1.6246,-3.084455379999998,mp-19093,1,2.0
Mg6AlCrO8,0.4602,-2.7519795675000003,mp-1033120,1,0.0
Na2MnSiCO7,1.0701,-2.2821763973491382,mp-770912,1,1.0
Cs3La(MoO4)3,3.7278,-2.432833100735027,mp-1214521,1,5.0
Fe2Co3O10,0.0,-1.086145637999999,mp-778217,1,0.0
MgMn3Zn2O8,0.4769,-1.99677531705665,mp-2226552,1,0.0
K2MnH4(SO5)2,3.846899999999999,-1.8901742398647912,mp-697984,1,5.0
NiP2N2(O6F)2,0.841,-0.8415199710150381,mp-1180704,1,1.0
KCrPO4F,2.5013,-2.766801125705358,mp-19498,1,3.0
Sr4Mn3BO10,0.0,-2.7337341882199873,mp-1208742,1,0.0
MnNi(BiO3)2,0.0,-1.621011599793104,mp-555839,1,0.0
Ta2Ni(NF2)6,0.0,-0.621728597365079,mp-818598,1,0.0
NaSrPrFeO6,0.0,-2.138374965304598,mp-1519261,1,0.0
Na9Mn21O40,0.0,-1.9535734436995071,mp-761085,1,0.0
K2Te(WO4)3,2.8707000000000003,-2.145831934092592,mp-558216,1,4.0
BaCaNiF7,2.0554,-3.265313916999999,mp-1047971,1,3.0
ZnCr2(PO5)2,0.0,-2.240601159619047,mp-1044104,1,0.0
K4Ti3Mn(PO4)6,1.2569,-2.839669269862847,mp-743671,1,1.0
SrCePrCoO6,1.8113,-2.880371544166667,mp-1523044,1,2.0
Li4Ni3Sb(PO4)4,0.8942000000000001,-2.277689328639456,mp-756181,1,1.0
BaDy2CoO5,1.3935,-3.143562266481481,mp-19164,1,2.0
Li4Cu3Ni(PO4)4,0.0,-2.22524317542517,mp-757757,1,0.0
V2CdO6,2.2611,-2.180888695555554,mp-540685,1,3.0
Li2Mn2Si3O10,1.2618,-2.698946549266397,mp-766544,1,1.0
MoP2PbO8,2.0672,-2.4210018251488092,mp-555025,1,3.0
MnAsH3O5,2.1119,-1.625316857168104,mp-695994,1,3.0
CrCdF6,0.0,-2.608249265000018,mp-559161,1,0.0
Na3CaFe(SiO3)8,0.0,-2.37286322416589,mp-1221288,1,0.0
Li2Fe2Ni(PO4)3,1.4032,-2.331602303029761,mp-776880,1,2.0
Rb2TlMoF6,3.848499999999999,-2.727277752833333,mp-1113863,1,5.0
Ca3Cr6(FeO6)4,0.5525999999999991,-1.998860174864864,mp-1357678,1,0.0
CeMnAsO,0.0,-1.889391043857759,mp-1078286,1,0.0
MgCr(GeO3)2,0.4642,-2.287763303499999,mp-1273498,1,0.0
MgFe2(AgO2)2,0.0,-1.288045183148147,mp-2240693,1,0.0
Ti3Fe2Cu(PO4)6,0.125599999999999,-2.692280293829365,mp-777685,1,0.0
YCo4(CuO4)3,0.0,-1.459902555,mp-1045774,1,0.0
Mn3Nb8FeO24,2.527399999999999,-2.83836056427203,mp-1221970,1,3.0
Cs4FeO4,2.000199999999999,-1.498143178735633,mp-1201003,1,3.0
V2SiPb5O12,2.6668000000000003,-2.15451597275,mp-1217159,1,4.0
MgV2(GeO3)4,2.0233,-2.309570527631579,mp-2231362,1,3.0
MnFeH14O7F5,0.0,-1.401134578765394,mp-744767,1,0.0
KSrPrMnO6,0.0,-2.307525675184771,mp-1519762,1,0.0
Nb3Fe(BiO3)6,2.3257,-2.212555495,mp-1220715,1,3.0
FeP6(WO8)3,2.0933,-2.480630746701681,mp-850225,1,3.0
VCd2PO7,2.8522,-2.216144432694804,mp-1216433,1,4.0
BiWO5,0.170699999999999,-1.6053643725,mp-1044227,1,0.0
Mg14MnBO16,0.0,-2.7400125192843032,mp-1036103,1,0.0
MgFe6(O2F)4,1.454,-1.93660266605263,mp-2231471,1,2.0
Gd2MgMo2(ClO4)2,1.614799999999999,-2.636487899666667,mp-2232458,1,2.0
Li3VF7,1.9212,-3.099581992272727,mp-759421,1,2.0
Nd2NiO4,0.0,-2.97884393,mp-505052,1,0.0
LiCo6O7,0.0,-1.278583967738094,mp-773572,1,0.0
Ba2Sr2Co(CuO4)3,0.0,-1.746319999,mp-1099763,1,0.0
Mn7FeCl3O10,0.9382,-1.903299647643679,mp-653429,1,1.0
CsMoP2O7,3.822199999999999,-2.592787929676444,mp-18496,1,5.0
LiNi2P2O9,0.0,-1.91594077465136,mp-1013987,1,0.0
U2CoSi2(H7O9)2,1.6392,-2.065230058445945,mp-1208188,1,2.0
Na3MnSiBO7,1.3618,-2.46449920663351,mp-772970,1,2.0
Li3V2NiO6,0.0,-2.2295033875,mp-755724,1,0.0
Mn7V(PO4)12,0.0,-2.246639703547522,mp-772136,1,0.0
Li9Co7O16,0.7064,-1.7498306231249992,mp-1175469,1,1.0
KLaNiSbO6,0.0,-2.090490447225,mp-1517441,1,0.0
LiCr(PO3)5,0.1909,-2.503408444502164,mp-705315,1,0.0
MnV2O4,0.1326,-2.368602888811577,mp-531268,1,0.0
NiAg4P6(HO3)6,0.0,-1.587136401486394,mp-1210391,1,0.0
TaAl(WO4)2,0.0,-2.598512537694444,mp-1047653,1,0.0
CoH32C8S4(NO5)2,2.5972,-0.6448951739473681,mp-1182596,1,3.0
Sr3CaTi2Mn2O12,0.0,-3.001871007126437,mp-1076138,1,0.0
CaTb3Mn4O12,0.0,-2.908001520086206,mp-1227131,1,0.0
Zr(MoO4)2,3.1883,-2.466229184545452,mp-1095622,1,4.0
Ca9LaTi8Mn2O30,0.0,-3.391338117150575,mp-694916,1,0.0
TiCr2Fe3(PO4)6,0.0,-2.505687070033069,mp-1101312,1,0.0
MgMn4(HO2)4,0.6445000000000001,-1.782523595983773,mp-2228978,1,0.0
LaCrCuO6,0.607,-2.004698488333334,mp-1040880,1,0.0
Ba2MgMoO6,2.2647999999999993,-2.8326574255,mp-1205825,1,3.0
BaSrNdCrO6,0.631599999999999,-2.8098591322499993,mp-1518926,1,0.0
KNa7V7MoO24,0.0,-2.214907759672628,mp-1076222,1,0.0
CrHC7NO5F2,3.566,-0.8127994188970601,mp-1197579,1,5.0
BaLaSmMn3O9,0.0,-2.796751835252873,mp-1227930,1,0.0
Mn(N3O8)2,0.0,0.040945332481259,mp-1180875,1,0.0
CoBr2(N3O)2,0.4408,1.155616794090908,mp-1190668,1,0.0
FePbC5N6O,2.3884,0.285404353214285,mp-640765,1,3.0
Mg6CrCO8,1.341,-2.2664240053125,mp-1033328,1,2.0
K8Li3Cr4O16,0.0,-2.012457104129032,mp-782640,1,0.0
SiMo12H24C6N3O40,2.4079,-1.335188354127907,mp-729152,1,3.0
Na4Fe2P(CO4)4,0.0,-1.957165617228151,mp-778673,1,0.0
Ta2VO6,0.0,-3.1219022371851852,mp-21860,1,0.0
Rb3V2ZnP4O17,1.2305,-2.55452893457672,mp-818385,1,1.0
Cr(WO4)3,1.4946,-1.947416420624999,mp-1178444,1,2.0
Sm2Fe2Se2O3,0.0,-2.29789733329861,mp-1079176,1,0.0
NaCoO2,2.245199999999999,-1.557503675344833,mp-18921,1,3.0
NiB12(H3O)12,0.147899999999999,-0.30102019704918,mp-728484,1,0.0
FeH9(NF)3,3.075199999999999,-1.059765457734374,mp-1196345,1,4.0
Sr3Ca5Fe4(CoO6)4,0.0,-2.0702099355,mp-1076602,1,0.0
Li3Fe2(CO4)2,2.203999999999999,-1.934322797999999,mp-765004,1,3.0
Cs2Mn2Be3F12,0.0,-3.130243368298547,mp-1213854,1,0.0
LiCoC8(N2O3)4,0.0,0.296848182555553,mp-1180698,1,0.0
Na2TlVF6,0.0,-2.622016502000025,mp-1110615,1,0.0
TiCr2Ni3(PO4)6,0.0,-2.360684617533069,mp-776057,1,0.0
Mg14CrCuO16,0.264499999999999,-2.834172056875,mp-1035284,1,0.0
VN2(Cl3O)2,1.332,-0.8791386554545461,mp-631589,1,1.0
Fe6P4H23O21,1.5143,-1.244956283746693,mp-1213654,1,2.0
MgTi2Mn2O6,0.016799999999999,-2.699382086138975,mp-2217743,1,0.0
MgBi4(WO6)2,1.8804999999999992,-1.928598120263158,mp-2231229,1,2.0
Li2Co3BiO8,1.1113,-1.563510446190476,mp-756423,1,1.0
NaCo3O4,0.0,-1.349856573922413,mp-752749,1,0.0
SrMg14CoO16,2.763199999999999,-2.8367635768749992,mp-1035008,1,4.0
LiMnSO4F,4.1107,-2.326407494845546,mp-942702,1,6.0
Sr51W12N56O3,0.0986,-0.9003421515983611,mp-699686,1,0.0
V3Cd5P6O25,1.937,-2.432544761739925,mp-558711,1,2.0
NiH7C3NO7,4.3251,-1.051216017828947,mp-1201597,1,6.0
LiV3Fe2CuO12,0.7355,-2.038248302280701,mp-766078,1,1.0
NaCaTiFe3O8,1.9018,-2.354717354979473,mp-1173807,1,2.0