formula,bg,formation_energy,mp-id,fidelity,bg_category
Li4Nb2V3Cr3O16,1.2778,-2.604384563690476,mp-770954,1,1.0
PrMoO5,0.122799999999999,-2.476638710952382,mp-1209482,1,0.0
V3Fe3(TeO8)2,1.523499999999999,-1.820950820972222,mp-774673,1,2.0
LiTiVO5,1.917399999999999,-2.748221734583333,mp-756178,1,2.0
RbNd(WO4)2,3.387099999999999,-2.6501685533333332,mp-558850,1,5.0
NaEuNbWO6,0.0,-2.642873745637932,mp-1522034,1,0.0
Sr2MnGe2O7,0.0023,-2.62461285191092,mp-22458,1,0.0
TaNiP2O9,0.0153,-2.521095702239927,mp-1043512,1,0.0
VH9(NF)3,2.5181,-1.2023177767968751,mp-1194816,1,3.0
KNa2NiO2,1.5423999999999989,-1.17711357458477,mp-558824,1,2.0
Ni3Sn(PO4)4,0.0,-2.112861002232142,mp-774257,1,0.0
K2Mo4O13,2.992,-2.059281836289473,mp-637680,1,4.0
KSrNdWO6,2.825799999999999,-2.871091192975,mp-1519244,1,4.0
Mg30FeBiO32,0.609399999999999,-2.85707909453125,mp-1037415,1,0.0
LaMo5O8,0.307699999999999,-1.7596719003571422,mp-3911,1,0.0
NaCaLaFeO6,0.0,-2.178690467637931,mp-1517244,1,0.0
Li4CrCo3O8,0.0,-1.788625274583334,mp-756706,1,0.0
Mn3Cr2Fe(PO4)6,0.0,-2.394209810601394,mp-1176482,1,0.0
SrMnZn(PO4)2,3.2563,-2.74431135593975,mp-1046402,1,4.0
Mg3Fe4(MoO4)6,1.2735,-2.05919919581081,mp-1042940,1,1.0
MgMn8O13F3,0.322099999999999,-2.061180105937932,mp-1233266,1,0.0
CrNi5(PO4)6,0.0,-2.04558446438492,mp-771940,1,0.0
Li2AlCoO4,0.7431000000000001,-2.387194207083333,mp-1222767,1,1.0
Mn2Ni(BiO3)3,0.0,-1.6433235130574722,mp-1221980,1,0.0
HoMgMn2O6,0.0,-2.650952472586206,mp-1041080,1,0.0
SrCo2(AsO4)2,2.3082000000000003,-1.956984372692308,mp-1193940,1,3.0
La5Re3NiO16,0.0,-2.9433375481,mp-698001,1,0.0
Cs2BiPWO8,3.9277,-2.346228930688709,mp-1201858,1,5.0
CoSeO4,1.3657,-1.333769276640624,mp-551407,1,2.0
Sr3Cr2Cu2S2O5,0.400699999999999,-2.151978576428571,mp-1048428,1,0.0
Ca2CrO8,0.0,-1.614589803636364,mp-795621,1,0.0
Li2Mn3SbO8,1.0917,-2.11220821003284,mp-763186,1,1.0
Li5Cr2Ni3O10,0.0,-1.869464598833332,mp-756855,1,0.0
Sr3Sc2Fe2As2O5,0.0,-2.289870317142856,mp-1103895,1,0.0
KLaHfFeO6,0.0,-2.812907237225,mp-1518711,1,0.0
ZnMo3O7,0.7544999999999991,-1.450501722954544,mp-1044405,1,1.0
Ba2TlW2O7,0.0,-2.03907697486111,mp-1046350,1,0.0
LiV4P7O24,1.843999999999999,-2.674275013356482,mp-1101513,1,2.0
Fe3B7BrO13,3.676799999999999,-2.499475033298611,mp-1181439,1,5.0
MgCoH16(ClO2)4,3.171999999999999,-1.369186343166667,mp-697924,1,4.0
Ti3Fe3(BiO3)7,1.6491999999999991,-2.113902347205883,mp-1217638,1,2.0
BaSrNiWO6,3.3716,-2.568518454999998,mp-1227411,1,5.0
Ba2TbV3O11,3.4739,-3.005782029803921,mp-1214852,1,5.0
CrSi(Ag3O4)2,0.0012,-1.207304139687499,mp-1200173,1,0.0
VMoO5,0.0,-2.147728544285714,mp-22006,1,0.0
Ba3V4O13,2.9577,-2.8231374335,mp-505392,1,4.0
Sr2Y2V2O7,0.0,-2.95459276,mp-1047231,1,0.0
Li3Cr2CoO6,0.8204,-2.162549980833333,mp-753687,1,1.0
Ba3LaIn(WO6)2,3.0435,-2.79071336008772,mp-684983,1,4.0
LiMgAl(MoO4)3,3.5881,-2.3801071537962972,mp-1222672,1,5.0
Sr2Mn2AlTlO7,0.0,-2.228021266476569,mp-1045984,1,0.0
Li4Nb3V2Co3O16,0.4543,-2.337931239761905,mp-775754,1,0.0
K4MoC4(NO2)4,0.0,-0.234526951142857,mp-1181187,1,0.0
Li2Fe2SiO6,2.5634,-2.288455406060606,mp-753647,1,3.0
Mg14MnVO16,1.363999999999999,-2.902441845872845,mp-1036151,1,2.0
LiFe3P3(HO6)2,3.4902,-2.249249006893424,mp-780853,1,5.0
LiEr(WO4)2,3.7954,-2.669882129861111,mp-1192111,1,5.0
Li2Mn3(SiO4)2,2.2669,-2.592964925141763,mp-849556,1,3.0
CrInO3,1.4521,-2.129044673833333,mp-756147,1,2.0
Nd2Cr2O5,0.0,-2.764409737777777,mp-1186240,1,0.0
YCrF5,1.6172,-3.618027963571428,mp-1395840,1,2.0
K4Na4Mo3(WO4)5,0.4079,-1.8056939955421452,mp-1076205,1,0.0
Mn5O3F5,0.7121000000000001,-2.478290895358091,mp-1277673,1,1.0
Cr2P4O13,2.804499999999999,-2.601479933740601,mp-29360,1,4.0
CsTm(WO4)2,4.7348,-2.653592392471266,mp-1213213,1,7.0
Na3Ni5O8,0.0,-1.26253112494612,mp-759953,1,0.0
TiV3Sn2(PO4)6,0.044599999999999,-2.635650319755291,mp-774862,1,0.0
Mn2Ni6Te3PbO18,1.8113,-1.533292138695403,mp-560090,1,2.0
CrSn(PO4)2,0.6181000000000001,-2.44514537577381,mp-772100,1,0.0
Li4MnH6(S2O9)2,4.6607,-1.859469144811041,mp-777769,1,6.0
Rb5ErHf(MoO4)6,3.8577,-2.4369254460135132,mp-557014,1,5.0
Ca(Fe2O3)4,1.1096,-1.664279626190476,mp-1233089,1,1.0
Li4Fe(WO4)3,2.2436,-2.211837189416666,mp-787524,1,3.0
Li4FeCu3O8,0.0,-1.517116058333333,mp-756375,1,0.0
Fe(CO)6,0.0,-0.184085473846154,mp-1212773,1,0.0
Li3Mn4SnO8,0.0,-2.083846611982759,mp-1290720,1,0.0
Li2Cr3(NiO6)2,2.4624,-1.735614386008772,mp-780190,1,3.0
CaFe4O9,0.0,-1.4430623067857131,mp-1048015,1,0.0
Na4CrH6ClO7,0.0,-1.496605193053538,mp-1221392,1,0.0
FeH8N3O13,2.3425,-1.107384066899999,mp-1199758,1,3.0
Li2Fe5(PO4)4,3.5627999999999993,-2.352971154268077,mp-540431,1,5.0
Li2MnSiCO7,1.3485,-2.324438292049809,mp-768606,1,2.0
Li7V3(SiO6)2,1.654399999999999,-2.612642457013888,mp-1176994,1,2.0
NiH8C4(NO3)2,3.111399999999999,-0.7155124142857141,mp-1195088,1,4.0
Li4TiCrO6,1.2264,-2.605904547013889,mp-768387,1,1.0
K3Mo2HCO13,2.4996,-1.25837031965,mp-1199601,1,3.0
Li2Ti2V3O10,0.605899999999999,-2.817225459019607,mp-759328,1,0.0
Fe2Co(AsO7)2,0.0215,-0.7396730099999991,mp-1197332,1,0.0
Si2Sb2Mo13O28,0.0,-1.710844095555554,mp-1044616,1,0.0
Li4Fe3TeO12,0.0,-1.579284039499999,mp-755294,1,0.0
MgBi4(MoO6)2,1.1842,-1.8370802802631592,mp-2228803,1,1.0
NiSb2H12(O3F4)2,5.0235,-1.77542192862069,mp-1199397,1,7.0
KFe2F6,0.0,-2.713677815694444,mp-1223730,1,0.0
K3Np(MoO5)2,0.0,-2.469684920031251,mp-558722,1,0.0
TiMn3Te2(PO4)6,1.3624,-2.4292951096754702,mp-758912,1,2.0
Li5Nb2V5O12,0.0,-2.396343775694445,mp-754737,1,0.0
Cs2MgMnV2(BrO3)2,0.9732,-2.10555126158867,mp-2226719,1,1.0
Ca3V2O8,3.5793,-3.010771011208791,mp-532028,1,5.0
Li3VO3F,1.9787,-2.6150383684375003,mp-758195,1,2.0
LiMnVO4,1.857499999999999,-2.371862765180622,mp-19107,1,2.0
Ba2Ho2Fe(CoO4)3,0.0,-2.233879782999999,mp-1228474,1,0.0
KLaDyFeO6,0.283399999999999,-2.531797851391666,mp-1516307,1,0.0
Ba2MnSi2ClO7,1.4732999999999992,-3.075644051956232,mp-558848,1,2.0
MgCrF5,3.1817,-3.332808360714285,mp-1395450,1,4.0
CoH40C10Br2(N2O)10,3.215899999999999,-0.7146947745783131,mp-1214998,1,4.0
KFeCo(PO4)2,2.1638,-2.3569526514642862,mp-1194524,1,3.0
Tb2MnSbO7,0.429599999999999,-2.950563000114941,mp-1217713,1,0.0
V3Fe2Ni(PO4)6,0.0,-2.468694351607143,mp-774828,1,0.0
Na3(CoO2)5,0.3081,-1.460745514118774,mp-861555,1,0.0
CaCr2P2O9,2.1309,-2.8154714065561213,mp-1040889,1,3.0
Li4Ti5Mn3O16,0.410699999999999,-2.8797325872783253,mp-777417,1,0.0
Li3Cr2(PO4)3,2.9720999999999993,-2.667552592696427,mp-780606,1,4.0
Mn6PbO12,0.0,-1.854342433030968,mp-757454,1,0.0
Ca2Mn3Si3O14,0.0,-2.654316726990595,mp-1214281,1,0.0
NaNi2O3,0.0,-1.270968449396551,mp-759286,1,0.0
Na4Ca7MnSi12(HO9)4,4.1171,-3.051187761382004,mp-1221263,1,6.0
Cs2CoO3,0.4238,-1.3731041444683911,mp-540730,1,0.0
Co3C10ClO9,2.1148,-0.6782316104347831,mp-562584,1,3.0
Fe2P3O10,0.383399999999999,-2.3856204509285712,mp-27008,1,0.0
CrGaO4,0.0,-1.8769375645833344,mp-756183,1,0.0
LaMgFeWO6,2.5265999999999993,-2.622371057499999,mp-1043975,1,3.0
Li3(NiO2)8,0.0,-1.067726349259259,mp-694965,1,0.0
AlCrFeO4,1.4767,-2.542837820714286,mp-1229097,1,2.0
LiMnB3(HO3)3,1.5952000000000002,-2.066260385442022,mp-778282,1,2.0
Li8Fe2O7,2.5588,-1.960386017598038,mp-779474,1,3.0
Bi14WO24,2.5439,-1.706017954871795,mp-705713,1,3.0
Sm2CoRuO6,0.0,-2.513297777000001,mp-1208928,1,0.0
VSO4F3,0.9792,-2.163628182777778,mp-768093,1,1.0
SrV2P2(H4O7)2,2.3395,-2.101709144417989,mp-728720,1,3.0
Li10Fe3Co2Ni3O16,0.0,-1.698573832156862,mp-778201,1,0.0
Li6MnO6,0.0,-1.891577938302388,mp-752842,1,0.0
SrCa7FeCo7O20,0.0,-2.180569837291666,mp-1099847,1,0.0
Mg3Ge3(WO6)2,1.0419,-2.217386750125,mp-1364208,1,1.0
Rb2LiVF6,0.0,-3.094341530833333,mp-1113694,1,0.0
Mg6CuNiO8,0.006,-2.508583026875,mp-1032112,1,0.0
MoF3,3.3753,-2.5476647137499993,mp-557539,1,5.0
Li4VCo3(PO4)4,1.1076,-2.437448980782311,mp-1177182,1,1.0
Li(Fe2O3)4,1.0797,-1.664684317063492,mp-758077,1,1.0
EuMgNiO3,0.0,-1.7999311475000002,mp-2225941,1,0.0
La5Sm3V2Cr6O20,0.0151,-2.855314994791667,mp-1076879,1,0.0
MoCl5O,0.467099999999999,-0.586233978571428,mp-1196724,1,0.0
MgV6(OF5)3,0.2148,-3.0634940362,mp-1234209,1,0.0
Mo6H10N2Cl14O,1.1047,-0.7489967399242431,mp-727579,1,1.0
Ca3Fe2(SbO6)2,0.0,-2.193806067368421,mp-1368120,1,0.0
Na2Ni3P2(HO5)2,3.9136,-2.02200359339707,mp-1190479,1,5.0
FeCu(PO4)2,0.0,-2.086375916190475,mp-775167,1,0.0
Li8MnFe7(PO4)8,3.8807,-2.497370901995367,mp-861717,1,5.0
V2Pb2O7,2.9261999999999992,-2.14506765840909,mp-22005,1,4.0
Cs3V2O2F7,2.8433,-2.995534360640394,mp-1226167,1,4.0
Ca8TiMn7O23,0.0,-2.6387268884320663,mp-1247628,1,0.0
NaSrSbWO6,1.115,-2.22424449913793,mp-1522343,1,1.0
FeTeO5,0.9235,-0.8382878300595231,mp-1197402,1,1.0
BaSr7Co5(CuO8)3,0.0,-1.86180515925,mp-1075982,1,0.0
CaLa9Ti5Cr5O30,0.0,-3.3985028734333342,mp-694926,1,0.0
CsCr(MoO4)2,3.1264,-2.163446979554597,mp-1213686,1,4.0
CaNdMn4O12,0.0,-1.91887824217912,mp-1521595,1,0.0
FeH6(CO3)2,3.545,-1.287891007166666,mp-510524,1,5.0
Li2P4WO13,3.0138,-2.563859008761904,mp-757625,1,4.0
NaLi2VF6,0.0,-2.825933653804598,mp-1111338,1,0.0
MgV2Zn2(SiO5)2,1.8008000000000002,-2.621540029705881,mp-2215892,1,2.0
Ni5(TeO6)3,0.0,-0.8753610280769231,mp-1046640,1,0.0
NaCaFe2(SiO3)4,1.5807,-2.868352482068965,mp-694890,1,2.0
MgMn8(SO3)8,1.212899999999999,-1.775521832401176,mp-1233998,1,1.0
CaFe12(PO6)8,0.0247,-1.443347780683229,mp-1228870,1,0.0
Li9Cr4C8(SO16)2,0.014699999999999,-2.080358217727274,mp-776454,1,0.0
CaMn4(CoO6)2,1.160699999999999,-1.773012849564429,mp-1233435,1,1.0
Sm2MnSbO7,0.355999999999999,-2.911215762539185,mp-1219206,1,0.0
Mg3Cr2(SiO4)3,3.4797,-2.964843920499999,mp-6700,1,5.0
Fe3Co(PO4)4,0.8486,-2.236502617023809,mp-774667,1,1.0
K2MgMn3V2(HO5)2,1.328999999999999,-2.064873936289655,mp-2230132,1,1.0
Na3Fe(BO3)2,1.4589,-2.310522661247605,mp-772223,1,2.0
MgFe4(HgO4)2,0.0,-1.393481869333333,mp-2232261,1,0.0
MnV3Sb2(PO4)6,0.0035,-2.479819859049672,mp-767358,1,0.0
LiMn2(PO3)5,4.428199999999999,-2.5808895511917243,mp-31961,1,6.0
Zn3Si3(NiO6)2,0.009999999999999,-2.10398845425,mp-1257835,1,0.0
Rb2CoAgF6,2.009299999999999,-2.356622655666667,mp-1110611,1,3.0
Li3NiO6,0.0,0.28145691,mp-1213623,1,0.0
Li2Mn7F18,0.7303000000000001,-2.8786068982290343,mp-753981,1,1.0
Ba2Mg(CoO3)2,1.049799999999999,-2.108117575909089,mp-2227473,1,1.0
BaVAsO6,2.6697,-2.455192690277778,mp-17264,1,4.0
BaVZnP2O9,2.3917,-2.7646019486989792,mp-15531,1,3.0
K3FeO2,1.1592,-1.215781174041666,mp-31218,1,1.0
TiCr2O5,1.0341,-2.730494912916667,mp-1208207,1,1.0
Sr4Mn3O10,1.195399999999999,-2.5845362531642992,mp-18998,1,1.0
Li4Nb3V2Fe3O16,0.4249,-2.426666282976189,mp-776847,1,0.0
Li2CoSiO4,2.996299999999999,-2.511143563333333,mp-753732,1,4.0
KMg2AlFe(SiO4)3,1.060199999999999,-2.9207112826125,mp-1223578,1,1.0
La4Nb(CoO4)3,0.0,-2.7463283135,mp-1223118,1,0.0
Na3VH11IO13,2.5564,-1.484752435099584,mp-1205476,1,3.0
Mn5(SiO5)2,0.9584,-2.458598246156188,mp-1198989,1,1.0
Ca3V3(CoO6)2,0.0,-2.537558555625,mp-1214146,1,0.0
Ni3B7BrO13,3.152799999999999,-2.400527950277776,mp-554323,1,4.0
Fe2H2Se3O10,2.3287,-1.385543542325367,mp-1213486,1,3.0
Mn5As4(HO2)10,1.725499999999999,-1.68034827928603,mp-1204184,1,2.0
LiPW4O13,0.897899999999999,-2.228919877261904,mp-757984,1,1.0
Li3VO12,0.099699999999999,-0.7758113906249999,mp-1106342,1,0.0
Sr16V12O39,0.6957,-2.94485501380597,mp-757304,1,1.0
Cs2MnSO4F3,0.0,-2.512663316112853,mp-1199926,1,0.0
Nd7V2BO17,2.742899999999999,-3.4246113560802462,mp-1210883,1,4.0
Nb12WO33,1.890399999999999,-2.954560287500001,mp-704637,1,2.0
YFeO3,0.0,-2.821769901999999,mp-1275986,1,0.0
Fe5(BiO4)3,1.7527,-1.574656109375,mp-531715,1,2.0
MgMnZnSiO6,1.0094,-2.436551599793104,mp-1210711,1,1.0
BaSrV4(NiO4)4,2.933199999999999,-2.267442980961537,mp-1227604,1,4.0
Co3H18C8(N3O4)2,1.4389,-0.589423874011628,mp-1195037,1,2.0
Li2CrCo(PO4)2,1.079199999999999,-2.461492747568027,mp-757895,1,1.0
Sr2La2CrNiO8,0.0,-2.900697247857142,mp-1218698,1,0.0
La5Mn7Co(PbO8)3,0.0,-2.458433042012932,mp-705288,1,0.0
Sr2MgMoO6,2.313,-2.860713332499999,mp-1078539,1,3.0
Sc2CrReO6,0.0,-2.18807847825,mp-1205485,1,0.0
AlSn(WO4)2,0.1697,-2.284469296249999,mp-1042285,1,0.0
Rb2CuNiF6,0.0,-2.4479118664999993,mp-1113474,1,0.0
FeSO10,0.417399999999999,-0.368020078819444,mp-1181880,1,0.0
Sr3CaCr2S2O5,0.0,-2.530876622307691,mp-1048627,1,0.0
Mn2NiO3,0.0,-1.688998426810345,mp-1221937,1,0.0
Fe5O7,0.0,-1.49997127625,mp-1095382,1,0.0
NaCaMn3Si5HO15,3.1151,-2.854058600823938,mp-1195048,1,4.0
VCl2O,1.804,-1.871469999375,mp-1216404,1,2.0
Ba2BiWO6,1.960399999999999,-2.4907615329999993,mp-1520885,1,2.0
Zr3NbCr4F24,0.221699999999999,-3.4637713996875,mp-1216109,1,0.0
Cr3Fe2O15,0.0,-1.090368134999999,mp-1182655,1,0.0
Co(ReO6)2,0.0,-1.096810326333333,mp-1104481,1,0.0
AlCr2O4,2.0559,-2.505557187857142,mp-1393022,1,3.0
FeNi(PO4)2,0.0,-2.128447954107143,mp-780106,1,0.0
CoRe3H22(N3O7)2,3.9408,-1.166703978260869,mp-1202096,1,5.0
Na2Cr2H4O9,2.7618,-1.637278410603448,mp-1199268,1,4.0
MnCu2(SO4)2,0.0,-1.176007945225464,mp-1211123,1,0.0
MnCu2SbO4,0.0,-1.25144204099138,mp-1221735,1,0.0
Li5NiP3O11,3.5265,-2.5605914737797613,mp-859097,1,5.0
V2HgO6,2.014299999999999,-1.9391908036111112,mp-17749,1,3.0
YCr2O2,0.0,-1.3205090255,mp-1208171,1,0.0
Na3CoSiBO7,0.036199999999999,-2.256621879484969,mp-756360,1,0.0
LiZnFe7O12,1.3962,-1.695330738492063,mp-771267,1,2.0
Cr2P5O16,0.1346,-2.5431893314441,mp-26134,1,0.0
Ba3NaMn4Si6O23,0.1147,-2.698204853529823,mp-1215159,1,0.0
Mg10FeO11,3.2225,-2.8944552545454543,mp-753206,1,4.0
P3W2N2(Cl5O)3,2.2434,-1.278960019657142,mp-1201704,1,3.0
CaZnFe(AsO5)2,0.0,-1.680484676333333,mp-1227168,1,0.0
Dy4Mo4O11,0.0,-2.647643510745614,mp-16390,1,0.0
Li3V2(CO5)2,0.1773,-2.188867332205883,mp-758380,1,0.0
Li2Fe3OF6,2.7425,-2.520365893888888,mp-849572,1,4.0
K2LiFeO3,2.0745,-1.746968267190476,mp-756221,1,3.0
Li12V3FeP4(CO7)4,2.6919,-2.404130859010988,mp-766535,1,4.0
P(W3O10)2,0.0,-2.255421323134921,mp-652282,1,0.0
Fe(SeO3)3,0.6845,-1.143366281117789,mp-818574,1,1.0
SrLa3Mn4O12,0.0,-2.890818365336207,mp-1218257,1,0.0
Rb3YV2O8,3.3415,-2.7096167330357153,mp-1209350,1,5.0
RbCr4O8,0.0078,-2.140790542115385,mp-19029,1,0.0
Co3Te2(PO7)2,0.0,-1.657059791077097,mp-1190932,1,0.0
CrFe5(PO4)6,1.411899999999999,-2.33271458938492,mp-768375,1,2.0
MgFeNiP2O9,0.216899999999999,-2.291104995484693,mp-1043103,1,0.0
Na3NiBAsO7,0.0,-1.9101748166003532,mp-771271,1,0.0
Li9Ti7Cr6O30,0.0,-2.692480919294871,mp-759088,1,0.0
CsCoF3,0.0,-2.496041867597702,mp-556943,1,0.0
EuZnBiWO6,0.0,-2.028231260500001,mp-1521380,1,0.0
Li4TiFe3O8,0.679999999999999,-2.246014116666666,mp-769962,1,1.0
Cu3Ni(CO5)2,0.0,-1.032609569062501,mp-1226082,1,0.0
Li3Nb4NiO12,0.6533000000000001,-2.6931550915,mp-756616,1,0.0
Li2CoNiO4,0.0,-1.620289180208333,mp-753536,1,0.0
V14Fe5O32,0.0,-2.253701856078432,mp-1101241,1,0.0
CoH7C3NO7,2.0607,-1.011988053223683,mp-1203013,1,3.0
KFe(SO4)2,2.1783,-1.993438723729166,mp-20968,1,3.0
Mo(RhO3)2,0.0,-1.503809329444443,mp-22097,1,0.0
NaMg14FeO16,2.5933,-2.852923057855602,mp-1035481,1,3.0
Ba2Mn2Si2O9,1.9934,-2.9412712876408063,mp-558695,1,2.0
BaSr3(CoO3)4,0.0437,-2.0267502425,mp-1227831,1,0.0
TiVZn(PO4)3,1.2856,-2.720616292347882,mp-1044402,1,1.0
Li4Fe2Cu3Sb3O16,0.0,-1.699337097261904,mp-754057,1,0.0
Mn3Cu(PO4)4,0.0,-2.287113597181856,mp-756349,1,0.0
Sr5La5Cu(NiO5)4,0.0,-2.653813956714286,mp-690554,1,0.0
Li2MnCr2O6,0.6409,-2.236623183751306,mp-850919,1,0.0
SrEu3(NiO4)2,0.0,-2.454945598214286,mp-1218566,1,0.0
V2GaO5,0.4596,-2.433464518854167,mp-757877,1,0.0
Rb5CeNi2(NO2)12,0.8425,-1.082640057897727,mp-557781,1,1.0
Mn3VNi2(PO4)6,0.047399999999999,-2.340635856990284,mp-867954,1,0.0
CaFe5O7,0.0,-1.816932862499999,mp-1195295,1,0.0
KCr2Fe(HO4)2,0.4241,-1.19273676355357,mp-1211729,1,0.0
MnCr3(PO4)6,0.0,-2.288828273405534,mp-774419,1,0.0
Rb2(WO4)3,0.0,-1.667107556176469,mp-1219769,1,0.0
Zr9W4O3,0.0,-0.6244580875000001,mp-1207430,1,0.0
Zn2Fe2O5,1.850199999999999,-1.596725206111112,mp-1377137,1,2.0
LiMn2(P2O7)2,0.318199999999999,-2.4160588503698492,mp-1236742,1,0.0
MoH2N2Cl5O,1.3323,-0.012376863636364,mp-735476,1,2.0
Ni(O2F)2,0.6775999999999991,-0.617328625714285,mp-1210254,1,1.0
KSrMnSnO6,0.0,-2.051306745018104,mp-1520965,1,0.0
Li5Fe4P4O16F,3.932,-2.446962612007936,mp-759015,1,5.0
Ni(ClO2)2,0.0,0.19022634,mp-1180134,1,0.0
NiOF2,0.7987000000000001,-1.58403074125,mp-767981,1,1.0
ZnMo(NO2)4,0.148399999999999,1.081118641428571,mp-724470,1,0.0
Na2Mo2Se2O11,2.7771999999999992,-1.7872522148497711,mp-1195277,1,4.0
LiTi2Mn3O10,1.497599999999999,-2.489483015237068,mp-753655,1,2.0
Ba2VI5O17,2.8537,-1.5346910215,mp-581324,1,4.0
LiVP3HO10,2.1024,-2.527270516313244,mp-849372,1,3.0
Li4TiV3O8,0.5023,-2.611450766041667,mp-764005,1,0.0
CaCr2Cu3(SbO6)2,0.7672999999999991,-1.8817545677499992,mp-21539,1,1.0
Li2Cr2O7,2.3955,-1.879422356515151,mp-754365,1,3.0
Fe3C10SeO10,2.3216,-0.5576228213476561,mp-704545,1,3.0
LiMnF3,3.7031,-3.024716084002874,mp-777355,1,5.0
Ca2Mn9O13,0.0,-2.204478888182473,mp-1045861,1,0.0
Li5TiMn9O20,0.0,-2.189138509182266,mp-778500,1,0.0
Li3MnSiCO7,1.0362999999999989,-2.430324807533157,mp-772668,1,1.0
K2MoP2O9,3.0368,-2.502757418306124,mp-542210,1,4.0
Li4V2Co3Sn3O16,1.2571,-1.980107967083333,mp-778338,1,1.0
BaHoCo4O7,0.0,-2.053564298461538,mp-17703,1,0.0
Ca3Fe2(SiO4)3,2.6416999999999993,-3.015575760875001,mp-6672,1,3.0
CoH5CN(ClO)2,1.7077,-1.009919609895834,mp-1190433,1,2.0
BaDy(CoO3)4,0.0,-1.367047880092593,mp-1521027,1,0.0
NaAl5FeP4(H5O12)2,4.577999999999999,-2.427631383387793,mp-1210323,1,6.0
MgV4FeCoO12,1.5113999999999992,-2.222990525526316,mp-2231237,1,2.0
V8O15,0.6674999999999991,-2.483571645869564,mp-556566,1,1.0
La7Mn8O24,0.0,-2.8748389500884173,mp-530585,1,0.0
CrH12(ClO2)3,3.197,-1.343920983181817,mp-734815,1,4.0
Li9V12Te7O48,1.7585000000000002,-2.100947018903509,mp-780621,1,2.0
BaNd(NiO3)4,0.0,-1.059498050416666,mp-1522925,1,0.0
LiV3O6,1.1511,-2.483645458833332,mp-1176549,1,1.0
Mn8O17,0.3141,-1.640940195137931,mp-1221945,1,0.0
K8Li3(FeO4)4,0.0642,-1.532048470580645,mp-758545,1,0.0
VBiO2,0.0,-1.202550405625001,mp-1207870,1,0.0
Mn(PO3)2,2.304,-2.595336400246305,mp-542139,1,3.0
MgCrPO5,1.752499999999999,-2.6829406437053582,mp-1046666,1,2.0
VCr2Ni3(PO4)6,0.0,-2.283318948829363,mp-780465,1,0.0
Li3Fe8O3F13,2.3476,-2.400907016666667,mp-758878,1,3.0
La2ZnMoO6,1.5064000000000002,-2.876989743,mp-1407332,1,2.0
LiFeSi3O8,3.3579,-2.84630608602564,mp-757037,1,5.0
Dy2Mn3Sb3O14,1.1330999999999989,-2.454995740778475,mp-1225368,1,1.0
Ba3NiSbRuO9,0.5658000000000001,-2.297858505666667,mp-1228276,1,0.0
LiCo3OF5,2.4933,-2.209381962333334,mp-760399,1,3.0
CoF2,2.2721,-2.341685073333334,mp-555908,1,3.0
CaCr2O7,2.6242,-2.001828125999999,mp-1042375,1,3.0
PrZn(CoO3)2,0.0,-1.8218911726666671,mp-1044793,1,0.0
Sr2TbVO6,1.6184,-3.1432366236666662,mp-1521423,1,2.0
Fe(ReO3)2,0.0,-1.822290417777778,mp-1224752,1,0.0
Li2NiH12(SO7)2,4.845099999999999,-1.560249456344086,mp-771658,1,7.0
Rb7EuFe6(P4O17)2,0.006899999999999,-2.4999693484757652,mp-1198666,1,0.0
Na2CaMnAl2P2H2(O5F2)2,4.3124,-2.93275328010312,mp-1221604,1,6.0
KFeP4(H2O7)2,3.0795,-2.260410076909226,mp-758349,1,4.0
Tl2Mo4O13,2.8189,-1.8473081692982471,mp-648007,1,4.0
PrMg(FeO3)2,0.0,-2.343268810166666,mp-1044536,1,0.0
La2HfNiO6,2.043399999999999,-3.247802997999998,mp-1078675,1,3.0
Li3Ti2(CoO4)2,0.681,-2.444674881111112,mp-781664,1,1.0
K4Li7Mn2O8,0.1221,-1.821897767295019,mp-766140,1,0.0
Y(FeO2)2,1.6711999999999991,-2.440143290714285,mp-1280748,1,2.0
KTaWO6,3.2588,-2.721223896620371,mp-1223039,1,4.0
MnP2H6O5,4.1776,-1.3919372381940531,mp-1210970,1,6.0
Rb2Be3Co2F12,0.000199999999999,-2.984824052105264,mp-1210314,1,0.0
MnSn3(PO4)4,0.8573000000000001,-2.383770128395936,mp-756328,1,1.0
NiH7C3NO6,4.4328,-1.062439532708333,mp-1220171,1,6.0
Sr3CaTi2Mn2O10,0.7831,-3.083949012918263,mp-1076875,1,1.0
K3YMgV2O8,1.5764,-2.5204591197833333,mp-2228697,1,2.0
LiFe(WO4)2,1.7127,-1.9787619011111104,mp-16933,1,2.0
Li4V5Ni3O16,1.134099999999999,-2.156089706904762,mp-1177166,1,1.0
SrFeP2O7,4.2064,-2.823731287889609,mp-17881,1,6.0
BaZn(WO2)4,0.0,-1.315483089999999,mp-1044892,1,0.0
Li2Ti3CoO8,2.4572,-2.982573306904761,mp-768110,1,3.0
MnCdO2,0.0,-1.6477820288577592,mp-1221645,1,0.0
CaMn25FeSi4SbO44,0.0177,-2.229018506029946,mp-1227954,1,0.0
Fe4P2O9,3.1713,-2.174402973619047,mp-636960,1,4.0
MnCoO3,0.0,-1.649918885586206,mp-20641,1,0.0
Rb2W2O5,0.0,-1.680029902777778,mp-1075937,1,0.0