formula,bg,formation_energy,mp-id,fidelity,bg_category
Li2Fe2SbO6,0.014199999999999,-1.846866374242424,mp-1177978,1,0.0
SmV2BiO8,3.0673,-2.669526983750001,mp-1218963,1,4.0
NiF3,0.0,-1.9186620925,mp-614777,1,0.0
K2Ni4P4O15,0.3734,-2.137884569722856,mp-558324,1,0.0
AcCrO3,2.0031,-3.1389721295,mp-866101,1,3.0
BaCaNiBiO6,0.0,-1.890207293999999,mp-1517136,1,0.0
Li9V6(P8O29)2,0.248,-2.593304350497592,mp-1176978,1,0.0
Fe4C14O13,0.9311,0.153414259758064,mp-706459,1,1.0
Na2Mg(NiO2)5,0.566099999999999,-1.280456635986589,mp-2229155,1,0.0
Mn5(P2O7)4,0.0,-2.415448507970684,mp-540042,1,0.0
La3FeW(SO2)3,0.0,-2.651584855535714,mp-1193798,1,0.0
Sr2FeMoNO5,1.284699999999999,-2.167673815999999,mp-1218838,1,1.0
Na2Ni(SO7)2,0.0,-0.857435765671506,mp-1210821,1,0.0
Mg30CoSnO32,0.239099999999999,-2.884891352421875,mp-1037255,1,0.0
Ba2LiMn2O6,0.7942,-2.365845859926854,mp-1235162,1,1.0
Li3V(H4O3)4,4.085100000000001,-1.579868709062499,mp-1201415,1,6.0
KPrNiWO6,3.102099999999999,-2.349893803891666,mp-1519999,1,4.0
Li4TiCo3O8,0.6587000000000001,-2.079161777604167,mp-1297766,1,0.0
Sc2Mn2O7,0.0,-2.805036003260187,mp-17619,1,0.0
Li3Cr4PH3O16,2.5845,-1.419484638829364,mp-1210973,1,3.0
TlP4(W5O17)4,0.0,-2.237795943138761,mp-1217667,1,0.0
LiFe2(PO3)5,0.5324000000000001,-2.439310804632505,mp-1176742,1,0.0
Co4(MoO4)3,0.0,-1.339829797894737,mp-1213876,1,0.0
LiFe3O4,0.010499999999999,-1.673903765416666,mp-1176726,1,0.0
K5Mo8As(H3O16)2,3.4022,-1.92209743079327,mp-1225259,1,5.0
ZrCrO3,1.5603,-2.9911010485,mp-755055,1,2.0
CoH16C6(N3O4)2,1.2872,-0.5123454108108111,mp-1199782,1,1.0
Sr2TbCoO6,0.0,-2.545272291666667,mp-1517177,1,0.0
Li24Mn7Cr5O36,1.0745,-2.201594126465517,mp-777641,1,1.0
VBi2O5,0.338199999999999,-1.893040367708334,mp-561165,1,0.0
Li14Ni9(P2O7)8,3.9337,-2.456856541062656,mp-540237,1,5.0
VCuO3,0.9255,-1.796338071,mp-2371810,1,1.0
TiP6(WO8)3,0.0,-2.611466679446778,mp-771891,1,0.0
Fe2CoAs2(H5O7)2,1.6683,-1.431944164568965,mp-510532,1,2.0
Ca2Al2FeSi4BO16,1.0825,-3.132356512467948,mp-734098,1,1.0
LaBMoO6,3.562299999999999,-2.844663909768519,mp-558445,1,5.0
Sr2EuWO6,0.008399999999999,-2.9907515225,mp-1519604,1,0.0
Na3Fe2(MoO4)3,0.6301999999999991,-1.961529854456895,mp-542274,1,0.0
Li4Y3VO8,2.207,-3.016320093958333,mp-1290983,1,3.0
Na2NiPCO7,0.0,-2.084152623950122,mp-774783,1,0.0
Li4Ti3Co3(SbO8)2,0.6442999999999991,-2.399832043869048,mp-773002,1,0.0
Li3FeNi2(PO4)3,3.4838,-2.3997254949489792,mp-1223005,1,5.0
Sr3Ca6V7BiO28,3.6107,-2.917199772444444,mp-532540,1,5.0
SrNiF4,5.0013,-3.196539493333334,mp-1208631,1,7.0
Mg30TiNiO32,0.631899999999999,-2.958468695677083,mp-1037199,1,0.0
Dy2FeMoO7,0.0,-2.731850596212119,mp-1225454,1,0.0
In2Co(SO)2,0.0,-0.124176734047618,mp-1147770,1,0.0
MnBi12W2(ClO8)3,0.8144,-1.789078247569786,mp-1222044,1,1.0
SrCaV4O12,0.153299999999999,-2.511313941666666,mp-1523281,1,0.0
Na2CoGeO4,1.9531,-1.9333854478448271,mp-545646,1,2.0
Co7(AsO6)2,0.0,-1.4648406442857151,mp-17489,1,0.0
Mn4SiTeBr2O7,2.694899999999999,-2.08337115689272,mp-1193463,1,4.0
HoFe4(CuO4)3,0.0,-1.643843274249999,mp-1106004,1,0.0
Rb2Mo2P2O11,2.4189,-2.440788813928571,mp-1219951,1,3.0
KMnBP2H2O9,4.6073,-2.434629455070838,mp-1197780,1,6.0
Sr3ZnCoO6,1.2648,-2.389107049090908,mp-1298662,1,1.0
Li2Fe3P4(HO4)4,3.7765999999999993,-2.218767008628898,mp-849240,1,5.0
Na3V5O10,0.0,-2.4005041430076632,mp-765742,1,0.0
CaPrNbVO6,0.0,-3.043155794166666,mp-1522827,1,0.0
Sr3Fe2(OF)4,0.0,-2.917011701538462,mp-1103995,1,0.0
Co3B7IO13,2.2929,-2.380745591006944,mp-23628,1,3.0
CsLiMnP3HO10,3.0472,-2.493658630211653,mp-752778,1,4.0
Li3Ge3(MoO6)2,0.0,-2.096992368250001,mp-1013795,1,0.0
Li3Ni(OF)2,0.5296000000000001,-2.249181244687499,mp-761272,1,0.0
KCrP2O7,2.875499999999999,-2.684641871503246,mp-18387,1,4.0
KLaVWO6,0.5106,-2.643391949225001,mp-1521904,1,0.0
FeCoO2,0.0,-1.0375637825,mp-1097012,1,0.0
LaTiCrO6,0.1022,-2.851319267592592,mp-1346591,1,0.0
Fe5O3F7,1.3664,-2.230133625999999,mp-777536,1,2.0
Ca2AlFeO5,0.698199999999999,-2.921796394444445,mp-1257214,1,1.0
VCuAgO4,0.0,-1.467899853452381,mp-510659,1,0.0
KBi(WO4)2,2.7107,-2.152997771020833,mp-23136,1,4.0
Na6MgV2O8,1.3967,-2.142102491957404,mp-2229148,1,2.0
BaLaMg(CoO3)2,0.0,-2.395161896363636,mp-2217308,1,0.0
Li4Fe3(NiO4)3,0.0,-1.507976291060605,mp-758854,1,0.0
Li7Co5O12,0.6824,-1.7574475763888882,mp-771155,1,1.0
ZnFeF4,0.0,-2.501203004166667,mp-1390771,1,0.0
Li4CrCu3O8,0.0,-1.624257412708334,mp-755699,1,0.0
La4(MoO4)9,0.1577,-2.206962376326532,mp-1212125,1,0.0
Co2BO4,0.425599999999999,-1.791130002380953,mp-1213790,1,0.0
RbMg14FeO16,0.0,-2.6889455008593752,mp-1035557,1,0.0
Na2MoH2O3F4,3.654099999999999,-2.293932572938218,mp-1201525,1,5.0
K2W2O7,2.4361,-2.283939672227272,mp-19037,1,3.0
Ti3CrFe2(PO4)6,0.107099999999999,-2.785796767440476,mp-774450,1,0.0
LiCo3Sb(PO4)6,0.0,-2.08067827917687,mp-764378,1,0.0
HoNiO3,0.0,-2.507236383999999,mp-18974,1,0.0
Li12Mn3FeP4(CO7)4,3.6464,-2.393650846968548,mp-767262,1,5.0
KV(IO4)2,2.7395,-1.470524658937501,mp-559744,1,4.0
Li2Mn(CO3)2,3.4212,-2.103223128145246,mp-765973,1,5.0
BaLi4NiO4,2.689299999999999,-1.9929300850833331,mp-776559,1,4.0
MnFe2Pb8F24,2.187599999999999,-2.697094647512314,mp-1201249,1,3.0
SrPrMnO4,0.0,-2.972998172799671,mp-1217972,1,0.0
BaMgMnV2(AgO4)2,0.9683,-2.053807189084291,mp-2232129,1,1.0
Li6WO6,3.6768,-2.264166848461538,mp-754634,1,5.0
Ti3Mn2V(PO4)6,0.0171,-2.864182918436645,mp-774589,1,0.0
Tb2MoO6,2.2016,-3.183555702870368,mp-18340,1,3.0
Ti7(WO5)6,0.0,-2.738256174031008,mp-851115,1,0.0
SrCa7Ti3Mn5O20,0.4537,-2.9282997050598643,mp-1247600,1,0.0
W17O47,0.0,-2.148147158828125,mp-1197770,1,0.0
CsNbNi(OF2)2,3.056499999999999,-2.879954609961684,mp-684827,1,4.0
Na5Fe3Ag2(As2O7)4,1.8185,-1.725254300331084,mp-1220973,1,2.0
Li2Cr3CoO8,0.0,-2.054850132619048,mp-756414,1,0.0
Ba2Ca3Tl2(CoO3)4,0.0,-1.90689335942029,mp-1807035,1,0.0
Li5MnO3F2,1.4369,-2.444193094281608,mp-753558,1,2.0
MgV2Te2O7F2,1.389299999999999,-2.201084704523809,mp-2227262,1,2.0
KEuZrFeO6,0.0,-2.519119702225,mp-1522589,1,0.0
Al5(NiO4)3,0.0,-2.418400280249999,mp-1380716,1,0.0
LaMnZnCrO6,1.0541,-2.396239134293103,mp-1049231,1,1.0
Ba2TlNi2O7,0.0,-1.352819269861111,mp-1411498,1,0.0
Ba2AlV3O7,0.0,-2.352625812692308,mp-1048346,1,0.0
Cr5Cu(GeO6)2,0.547099999999999,-2.14457261825,mp-1213937,1,0.0
VCr3O8,0.310199999999999,-2.014983926666666,mp-1246941,1,0.0
Al4(CoO4)3,0.0,-2.137776631842104,mp-1358877,1,0.0
CaNdMn2O6,0.0,-2.7512634397112072,mp-720198,1,0.0
LaMgMnFeO6,1.412399999999999,-2.531362042793103,mp-1043996,1,2.0
FeH4SO4,3.762,-0.9086371459999992,mp-1213353,1,5.0
MoP2N2O9,0.988599999999999,-1.273549025127551,mp-731047,1,1.0
NaMg14CrO16,3.1717,-2.903586231293103,mp-1034602,1,4.0
CaNiAsHO5,2.4759,-2.060292846805555,mp-505457,1,3.0
Mo8O23,0.9108,-1.935219598870967,mp-560190,1,1.0
KCe2FeO6,0.8443,-2.811204395225,mp-1097054,1,1.0
Mg3(Fe11O18)2,1.0484,-1.614565021557377,mp-531264,1,1.0
Na2V(SO6)2,0.0,-1.5272442469269771,mp-1210593,1,0.0
MnCu3(PO4)4,0.0,-1.985597141104269,mp-775168,1,0.0
Sr5Ca3Fe4(CoO5)4,0.0,-2.240145008680555,mp-1076428,1,0.0
Li3V4FeO12,1.8668,-2.332506084,mp-1666404,1,2.0
NaSrPrWO6,3.0064,-2.835865834554597,mp-1522333,1,4.0
Li2Ni(CO3)2,3.8553,-1.935655704015152,mp-766032,1,5.0
LiSbWO7,0.2052,-1.707404284333333,mp-1222410,1,0.0
CsVTeO6,1.7666,-1.971509252369094,mp-1225864,1,2.0
Sr3MgMn4O12,0.643799999999999,-2.224115946336206,mp-2230221,1,0.0
Li8Cr3SbO12,0.8148000000000001,-2.18113268611111,mp-1176846,1,1.0
Mg(CoO2)8,0.284799999999999,-1.157764641,mp-2220732,1,0.0
Na4Mn3P4O15,3.295799999999999,-2.585034710976221,mp-578949,1,4.0
Mn4P2O9,2.5275,-2.45586463023399,mp-770499,1,3.0
Mn5(Si2O7)2,0.3203,-2.64024640368066,mp-1643677,1,0.0
Na6(NiO2)7,0.334099999999999,-1.269553245121327,mp-850287,1,0.0
MnPb2WO6,1.6917,-1.925368126543102,mp-1194656,1,2.0
CsMg14FeO16,0.0461,-2.595664989364223,mp-1035604,1,0.0
MgV2Ag2(HgO4)2,1.6348,-1.564582594888889,mp-2232484,1,2.0
BaSr7Fe6(CoO10)2,0.0,-2.284640144652778,mp-1099862,1,0.0
Li2MoO4,4.1184,-2.273066940238093,mp-18050,1,6.0
SrFe5Bi4O15,0.0,-1.7206707554000011,mp-1218304,1,0.0
Mn2Nb2Zn2O9,1.7456,-2.439375908057472,mp-554400,1,2.0
MgCuNi3O4,0.0,-0.7708452305555551,mp-2223706,1,0.0
LuFeCuO4,0.0,-2.250434189523809,mp-1222330,1,0.0
CaMn3P3O13,0.339899999999999,-2.605115897386083,mp-1047886,1,0.0
Sr2Mn3(AsO)2,0.0,-1.417517160977012,mp-19060,1,0.0
Ti4Co(PO4)6,0.0,-2.908318997462584,mp-1217225,1,0.0
Li4Mn3Ni3(PO4)6,0.5872,-2.363641837374589,mp-775926,1,0.0
Na3Mn2V3O12,0.0,-2.252679676249999,mp-1210577,1,0.0
SmNiO3,0.0,-2.4529482349999983,mp-22495,1,0.0
Mn(PO5)2,0.0,-1.416313685170518,mp-1211068,1,0.0
NaFe3Si3O10,1.371699999999999,-2.547949637287018,mp-559532,1,2.0
Na2MnBSO7,1.368,-2.20533741269636,mp-771142,1,2.0
Li4Ti3Fe3(TeO8)2,1.1434,-2.356162594166666,mp-762517,1,1.0
Sr2GdMnCrO7,0.0,-2.833982616077585,mp-1218815,1,0.0
K4Ba2Na4Ti8MnSi16(W4O29)2,0.0,-2.53476407731797,mp-1213587,1,0.0
Li32Ti3Cr13O48,0.9914,-2.3740362102777772,mp-777558,1,1.0
MgCrPtO2,0.0,-1.6907222329999991,mp-2242022,1,0.0
Rb8W13O43,1.8216,-2.170842546171876,mp-706241,1,2.0
Na6Fe2C4SO16,0.0,-2.022411827440546,mp-21590,1,0.0
Li4Fe5SnO12,0.0,-1.807075616742424,mp-757181,1,0.0
Li3Mn3(BO3)4,0.7843,-2.423079560929989,mp-766488,1,1.0
Rb4V5CdClO15,2.3192,-2.342801133269231,mp-555007,1,3.0
Li2MgCo3O8,0.0,-1.679007737976189,mp-1177928,1,0.0
Ca2Co2O5,0.0,-2.184804022499999,mp-1195269,1,0.0
Ba2PrWO6,1.8049,-3.031186916416666,mp-1519439,1,2.0
Li4(NiO2)5,0.5285000000000001,-1.38220612122807,mp-763578,1,0.0
MgTi2(Fe2O5)2,1.5915,-2.392943238333333,mp-2229033,1,2.0
Li3NiAsCO7,3.5416,-1.985235249423076,mp-771015,1,5.0
V2CuP2O15,0.1459,-1.386989626214286,mp-1178904,1,0.0
Na4Cr2P4O15,0.563099999999999,-2.441746881963546,mp-1199320,1,0.0
Na5NiO4,1.8963,-1.415608920064655,mp-21996,1,2.0
LiMnSiO4,1.2118,-2.6386830123234812,mp-1662331,1,1.0
KSrEuFeO6,0.0,-2.075861652225001,mp-1523292,1,0.0
KVTeO5,3.378,-2.076915276427082,mp-18487,1,5.0
V8Cd3CuO24,0.306999999999999,-2.103165018611113,mp-1216476,1,0.0
MnSbO4,1.6205999999999992,-1.903333868405172,mp-1280914,1,2.0
NaSbWO7,0.0,-1.67946287913793,mp-1220907,1,0.0
NdMn3V4O12,0.0,-2.500968434064655,mp-1105305,1,0.0
MgCu2(MoO4)2,1.069299999999999,-1.800053061730769,mp-1348661,1,1.0
Li2Cr2O9,0.9987999999999992,-1.19395966128205,mp-1237680,1,1.0
Gd2MgV2O8,1.4005,-3.053918301153845,mp-2218343,1,2.0
TlCoF3,0.0,-1.993014821666668,mp-998160,1,0.0
Li2Mn3CoO8,0.3865,-1.9510453707471271,mp-1287701,1,0.0
Li3Co2(NiO4)2,0.0,-1.492467288666666,mp-779959,1,0.0
Sr2MnCu2(SO)2,0.0,-1.742359545881226,mp-551219,1,0.0
Mo2P2O11,2.0302,-2.264520319285714,mp-504196,1,3.0
Li4Fe3(NiO5)2,0.239799999999999,-1.612077328070175,mp-752964,1,0.0
La(Mo4O7)2,0.8643000000000001,-1.8652046611413051,mp-1199742,1,1.0
Mg11Mn2O13,1.990699999999999,-2.864551717725464,mp-753303,1,2.0
MgV2(Cl2O)2,0.0,-1.979170642777778,mp-2223059,1,0.0
FeCu2H21(O5F4)2,0.489699999999999,-1.504351567529761,mp-40573,1,0.0
Li4Co3TeO8,0.8300000000000001,-1.757933875,mp-772478,1,1.0
V16(CuO8)5,0.0,-2.063545233278688,mp-758314,1,0.0
BaLiCaVP2O9,2.02,-2.993959981341269,mp-759611,1,3.0
AgSbWO7,0.0,-1.508686119666665,mp-1229079,1,0.0
Li4Mn2NbNi3(PO4)6,0.4912,-2.433757865176313,mp-776611,1,0.0
Sr2CoCuSO3,0.0,-1.9615355103124992,mp-1048567,1,0.0
V2NiH24(N4O5)2,2.6456,-0.6699039266666661,mp-560788,1,3.0
BaMg14FeO16,3.7331,-2.745288483125,mp-1035662,1,5.0
RbCrP2O7,2.9787,-2.68076609948052,mp-1196895,1,4.0
Mn2SnO4,0.0,-2.070504940837438,mp-36884,1,0.0
V2Pb3O8,2.9795000000000003,-2.0668857126923,mp-19903,1,4.0
Mg2TaCrO6,2.9652000000000003,-2.942500407483332,mp-1323661,1,4.0
NaV5O10,0.0,-2.409595186961207,mp-752583,1,0.0
Li4Ti2Mn4(FeO6)3,0.0,-2.186201501829811,mp-774494,1,0.0
KPrVWO6,0.4008,-2.577525444891667,mp-1519436,1,0.0
Li6Cr3Fe(PO4)6,2.3775999999999993,-2.5854492424464293,mp-770489,1,3.0
MgZn2(FeO2)4,1.2365,-1.696165409666665,mp-2232657,1,1.0
Li2MnV4CuO12,0.0,-2.203644991729883,mp-774824,1,0.0
Na5LiMn2P2(CO7)2,3.678599999999999,-2.369287569052987,mp-754568,1,5.0
Ti3Co3(TeO8)2,0.4958,-2.071260583055556,mp-752786,1,0.0
CaAl2Si3W3O10,0.175699999999999,-1.901300685526316,mp-1214322,1,0.0
Ca2Fe3O8,0.013099999999999,-2.021611271153845,mp-1304288,1,0.0
MgMn6(OF)6,0.0,-2.459564602767696,mp-2231262,1,0.0
Na3(CoO2)2,0.0136,-1.460488677681992,mp-754437,1,0.0
Co2B2O5,0.0,-2.15124852925926,mp-510055,1,0.0
DyFe4(CuO4)3,0.0,-1.646393583083332,mp-1189224,1,0.0
CsUV3O11,2.274,-2.688471907790948,mp-572487,1,3.0
Li4V3Cr2Co(PO4)6,0.5606,-2.528898569279762,mp-771298,1,0.0
Na2CoH8(SO6)2,3.3006,-1.6557930321103451,mp-23689,1,4.0
Mn2V3(AgO4)3,0.095699999999999,-1.7588316684181031,mp-1210930,1,0.0
Na4UCr3O14,2.0333,-2.228144332978057,mp-555988,1,3.0
Ca(FeO2)4,0.6617000000000001,-1.703394224615384,mp-1398614,1,0.0
Rb4V2S4O19,2.0238,-2.184415428620689,mp-1198857,1,3.0
Li4Mn3Nb2V3O16,0.5613,-2.515133485968801,mp-775656,1,0.0
Li11Mn12(BO3)12,0.0,-2.491166317209002,mp-766526,1,0.0
Li2Fe2(WO4)3,3.4384,-2.093523409429824,mp-1211052,1,5.0
Sr4Ca4TiMn7O20,0.0,-2.680641864065293,mp-1099799,1,0.0
LiFe(PO3)5,0.0036,-2.423918112797619,mp-687200,1,0.0
Cs2MgMnV2(ClO3)2,1.487999999999999,-2.238623016588669,mp-2226471,1,2.0
Na5WNO4,3.0457,-1.6330794024451412,mp-558401,1,4.0
V2Zn3O11,0.0,-1.2611992078125,mp-1207938,1,0.0
Y3Al3V2O12,0.0,-3.396105122,mp-1207869,1,0.0
Li5Fe4(PO4)4,0.1413,-2.376635291042692,mp-759617,1,0.0
MnPHO5,0.727499999999999,-2.067485309227987,mp-756230,1,1.0
Li3(FeO3)2,0.268099999999999,-1.666974289999998,mp-1177753,1,0.0
Cr3SbO8,0.0352,-1.980909446249999,mp-773170,1,0.0
BaNaEuWO6,0.0,-2.691752255387932,mp-1518039,1,0.0
SrPrMn2O6,0.0,-2.727303758752873,mp-1218059,1,0.0
Li3V4CuO12,1.0834,-2.249886024000001,mp-756355,1,1.0
LiV(FeO2)4,0.485999999999999,-1.850701401666666,mp-1222391,1,0.0
Na2NiH6C4N4O3,3.510799999999999,-0.59114539601293,mp-728713,1,5.0
Mn2O2F9,0.613499999999999,-1.975402196604774,mp-27807,1,0.0
Lu2Mo4O15,3.3038,-2.526238371587302,mp-1210966,1,4.0
Mn15NiO32,1.1139,-1.7018775583117811,mp-851082,1,1.0
SmCoSe2ClO6,2.7367,-1.9374666313352271,mp-562836,1,4.0
Ti8Fe35O64,0.8245999999999991,-0.8754577836137061,mp-685232,1,1.0
Li3Mn3O3F5,0.5467000000000001,-2.647744739556651,mp-753322,1,0.0
SrV2ZnO7,2.8518,-2.541929695,mp-556361,1,4.0
Na(Mo2O7)2,0.0,-1.429543193756805,mp-1221810,1,0.0
Ca(CoO2)8,0.0,-1.0964661748,mp-1233473,1,0.0
K2CrSO7,2.4957000000000003,-2.033662543818181,mp-561541,1,3.0
BaCrP2O7,0.0343,-2.889971435389609,mp-19110,1,0.0
H2WO4,1.4761,-1.754318643928571,mp-29530,1,2.0
VTeO3,0.0,-1.345835018333333,mp-1100777,1,0.0
NaNiBP2O11,0.0421,-1.685162914156147,mp-1211194,1,0.0
Sr2Ca2Mn3FeO10,0.0,-2.494136742919061,mp-1076197,1,0.0
Li5Mo2P5O18,3.788599999999999,-2.607628893996032,mp-585269,1,5.0
Al2Fe3F15,2.7091,-2.9399847017500003,mp-1265576,1,4.0
Co4NiO8,0.9011,-1.038116163846153,mp-2215121,1,1.0
MnC2S2(NO6)2,0.2183,-0.554329838575317,mp-1189676,1,0.0
V5CoO15,0.343499999999999,-1.92797821595238,mp-674349,1,0.0
KCo(CO)4,3.802699999999999,-0.9681683159749992,mp-1180982,1,5.0
Ca(Co2O3)2,0.263799999999999,-1.546756162727272,mp-1043610,1,0.0
MgV2Cu3O8,0.0,-1.809719796071428,mp-2228442,1,0.0
Mg30VFeO32,2.004,-2.957466068593749,mp-1037070,1,3.0
SrCrHO2,0.5556000000000001,-2.09021523425,mp-1218324,1,0.0
Li2Co(WO4)2,2.6607000000000003,-2.151807988205127,mp-552307,1,3.0
Sr12Y4Fe8Co8O43,0.0,-2.033780191933333,mp-1173376,1,0.0
NaMgCoO2,0.0,-1.530744699275862,mp-2228265,1,0.0
Li2MnV2(PO4)3,0.0,-2.597164726676314,mp-757262,1,0.0
NaNbWO6,2.9255,-2.535004902931034,mp-1221083,1,4.0
La2Mn3Sb3O14,1.5179,-2.443096662217867,mp-1223293,1,2.0
MgCo2(SbO4)2,1.0245,-1.8286393811538464,mp-2219883,1,1.0
V10As2O35,0.7205,-1.413266774397163,mp-818713,1,1.0
MnAs2S4(NF6)4,3.5362,-1.780308190940886,mp-573010,1,5.0
K2Cr2O5,0.6522999999999991,-1.8598914721666664,mp-1076696,1,0.0
Na4CaFe4(PO4)6,2.1879,-2.532626861624983,mp-1173772,1,3.0
Li2Mn2C2O7,2.3358,-2.019777194617595,mp-760097,1,3.0
BaMo6I2O25,0.0,-1.709039418529412,mp-1201115,1,0.0
LaMn7O12,0.0,-2.253550999525861,mp-1189182,1,0.0
Li2Fe(PO3)4,4.189999999999999,-2.583792996065161,mp-26125,1,6.0
Na4V20(CuO4)15,0.0,-1.9166857131870432,mp-1221582,1,0.0
Na8Fe2O7,2.109099999999999,-1.659875048296146,mp-27557,1,3.0
SrPrZrMnO6,0.0,-3.11257298595977,mp-1519076,1,0.0
VGaO3,1.605299999999999,-2.309716111000001,mp-755580,1,2.0
Ca8TiMn7O24,0.4161,-2.623033576346264,mp-1247708,1,0.0
Li7Fe4NiO12,0.0,-1.744324536388889,mp-760174,1,0.0
MnC5BrO5,2.8045,-0.8313557098275861,mp-631350,1,4.0
Na2CaV12O36,0.0,-2.052831489661933,mp-1221892,1,0.0
Li4Ti3Ni2Sn3O16,2.2049,-2.422871346011905,mp-753836,1,3.0
KCoMo3(AsO6)3,0.011399999999999,-1.503393897634616,mp-1205282,1,0.0
Mn5CrO12,0.8396999999999991,-1.797174854980842,mp-1176453,1,1.0
TmWO5,0.0,-2.630053352142858,mp-1208061,1,0.0
HfMg6CoO8,0.182,-2.71388795625,mp-1031728,1,0.0
Ba2TaCoO6,1.532799999999999,-2.811752820733334,mp-1228308,1,2.0
LiNiOF2,2.7106,-2.101807207166666,mp-761152,1,4.0
MgCrFeO4,1.7536,-2.356955722142856,mp-1222047,1,2.0
NaSrYWO6,2.8804,-2.893746595137931,mp-1522178,1,4.0
Tb2Mo4O15,3.3306,-2.521284601587301,mp-29945,1,5.0
VZnF4,1.1417,-2.724139701249996,mp-1410296,1,1.0
BaCr2PO11,0.0097,-1.801909590309522,mp-1194334,1,0.0
Ca2CrWO6,1.7595,-2.787684323499999,mp-1282800,1,2.0
TlCr3O8,1.8267,-1.7782296165277771,mp-561221,1,2.0
CaCrAs2O7,1.3255,-2.179581049318182,mp-1042764,1,1.0
V2Ge2O7,1.9264,-2.262856224090909,mp-752409,1,2.0
Rb2FeCl5O,0.8704000000000001,-1.114548226388888,mp-1199883,1,1.0
Mn3Fe3(CoO8)2,0.0,-1.346727419324712,mp-768595,1,0.0
Cr4Si4O13,1.417599999999999,-2.727057510952381,mp-768078,1,2.0
VAsNO4F,1.1437,-1.21336760609375,mp-1207948,1,1.0
Mn(Ni3O4)2,1.4245,-1.361432144528734,mp-19442,1,2.0
VH16C6N6O7F2,1.3165,-0.9601346138157892,mp-558613,1,1.0
KFeCo3(PO4)3,2.3595,-2.250505898558928,mp-641497,1,3.0
Mn3F10,0.0374,-2.5479424718302393,mp-753434,1,0.0
Mn2P5O16,0.123199999999999,-2.453572990177233,mp-27026,1,0.0
Co(SO4)2,0.0,-1.478569253787878,mp-772268,1,0.0
BaLaCoSbO6,0.0,-2.5162983835,mp-1227876,1,0.0
Ba2MnWO6,2.2267,-2.746980555793102,mp-19085,1,3.0
Cs2Mn(PO3)4,4.6555,-2.649188342805937,mp-572790,1,6.0
FeCuH4S2O13,0.0,-1.180788276428571,mp-1203139,1,0.0
Dy2VFeO6,1.3296,-3.061456642833332,mp-1225428,1,1.0
KMnP(OF)3,0.1509,-2.784951782758209,mp-1198325,1,0.0
Li4Mn3Nb2Cr3O16,0.7219000000000001,-2.468195998468801,mp-756399,1,1.0
Sr2FeSO3,0.0,-2.231098478214285,mp-1046652,1,0.0
Sr3Ca5Ti3Mn5O24,0.0,-2.847616644491378,mp-1076628,1,0.0
Ca3CrF6,0.0624,-2.998172983999999,mp-1205573,1,0.0
Ba2SrWO6,3.2504,-2.968149434,mp-18764,1,4.0
NbFeNi(O2F)2,1.3901,-2.387645221666666,mp-1173431,1,2.0
CaCoO3,0.0,-1.976297139,mp-1368304,1,0.0
Ba4Fe12Si8ClO35,1.7846000000000002,-2.539442249583333,mp-1228666,1,2.0
CaV4O9,2.5061,-2.640345206785715,mp-18866,1,3.0
FeTe3ClO7,2.2711,-1.508050761458333,mp-1201019,1,3.0
HoCr2O6,0.096599999999999,-2.332655953333333,mp-1041225,1,0.0
Li6NbNi3(PO4)6,0.0,-2.462213710946427,mp-1176954,1,0.0
BaSmCrSnO6,1.959699999999999,-2.688117325999999,mp-1517794,1,2.0
Li4FeSi2O7,4.1088000000000005,-2.689888897380952,mp-757988,1,6.0
YV4(CuO4)3,0.0,-2.2016435705,mp-1045778,1,0.0
BaSr7(FeO3)8,0.0,-2.209420429,mp-1099685,1,0.0
CrNiF6,0.0,-2.534242858750021,mp-690539,1,0.0
MnV4(CuO4)3,0.0,-1.8858556213965512,mp-1105842,1,0.0
Y2CrFeO6,0.426899999999999,-3.015071830999999,mp-1216153,1,0.0
PrFeAsO,0.0,-1.485280211041667,mp-22491,1,0.0
Ba2MgFe2CuF14,1.0911,-3.15083888825,mp-1045836,1,1.0
Li2V3P4(HO4)4,2.3835,-2.343245681215107,mp-849336,1,3.0
NbWNO6,0.0,-1.459372759444444,mp-1220562,1,0.0
La7SmMn7CuO24,0.0,-2.847827810137931,mp-1099832,1,0.0
Li6MnO4,3.0413,-2.050808946630094,mp-770533,1,4.0
K3Co(C3O7)2,0.046899999999999,-1.434407429517361,mp-1204325,1,0.0
CsMoAsH2O7,3.4652,-1.792405212887932,mp-1205190,1,5.0
Sr2CoSeO2,0.342299999999999,-2.139365758723959,mp-1147648,1,0.0
KCaNbWO6,0.0,-2.629141614725,mp-1519547,1,0.0
CaMg14NiO16,3.4417,-2.9107756871875012,mp-1036402,1,5.0
Fe(CoO2)2,0.270599999999999,-1.419559434285716,mp-753348,1,0.0
SrCrP2O7,3.1321,-2.896869574935065,mp-1179211,1,4.0
Li4Ti2Cr3Co3O16,0.410499999999999,-2.242344912142857,mp-754733,1,0.0
MgV3CrO10,0.7322000000000001,-2.329508856333333,mp-2241072,1,1.0
Ba4Fe2MoWO12,1.280599999999999,-2.304363829499999,mp-1228108,1,1.0
Mg6VCrO8,2.0555,-2.728653356875,mp-1031588,1,3.0