formula,bg,formation_energy,mp-id,fidelity,bg_category
VH10(CO5)2,2.9338,-1.466103667173913,mp-759318,1,4.0
BaMnSnWO6,1.6954,-2.262229163293103,mp-1518034,1,2.0
Na5MnHO4,0.0499,-1.554679548961599,mp-759434,1,0.0
Li3FeO2F,2.812299999999999,-2.182421496785714,mp-761233,1,4.0
ZnFe2(AsO7)2,0.0,-0.8416587273684211,mp-1196363,1,0.0
Cr3B7ClO13,2.7626,-2.637260038715278,mp-559511,1,4.0
Mo2P3Pb2BrO15,0.0,-2.02462849386646,mp-705127,1,0.0
Ba2DyCoCu2O7,0.0,-2.227006853589744,mp-1214693,1,0.0
Sr2YAlCo2O7,0.0,-2.661657289615384,mp-1046824,1,0.0
Te3W2Se4(Cl4O)2,1.0677,-1.054922089177629,mp-556693,1,1.0
Ba3Nd3(Co3O8)2,0.0,-2.310912558303571,mp-1228415,1,0.0
MnTlOF4,0.0,-1.978743613752053,mp-1192864,1,0.0
MoO2,0.0,-2.021555188333332,mp-510536,1,0.0
BaSrVBiO6,0.985599999999999,-2.520552897,mp-1521465,1,1.0
Y2MgCr2O8,1.0673,-2.831382771153846,mp-2219397,1,1.0
Zn3Fe12(CoO12)2,0.0,-1.583548434878049,mp-1216048,1,0.0
FeP3(HO2)6,2.7053000000000003,-1.965908519837662,mp-604694,1,4.0
Ca4ZnCo(Si2O7)2,3.1546,-3.111526386979166,mp-1227034,1,4.0
KLi2FeO3,2.1349,-1.848047195559524,mp-1297690,1,3.0
KBa3Y2(Co3O8)2,0.0,-2.039632562044642,mp-1223593,1,0.0
V5(BO5)2,0.452399999999999,-2.5710847278431372,mp-771822,1,0.0
KTl2MoF6,2.4401,-2.535024284391668,mp-560959,1,3.0
Ba6Na2Ta2Mn2O17,0.0001,-2.811562852182322,mp-1214895,1,0.0
Ca2YFe3(SnO6)2,0.0,-2.472292858624999,mp-694869,1,0.0
Mn3Zn3(AsO4)4,1.3288,-1.8186721655305051,mp-1041525,1,1.0
Ca3Fe2(SeO3)6,1.9936,-1.8948348877262944,mp-560990,1,2.0
Li2TiMn2O5,0.643799999999999,-2.524998473086206,mp-770956,1,0.0
Al2CoP3NO14,0.0081,-1.928511836139455,mp-1204067,1,0.0
V5Ni(PO4)6,0.3405,-2.552843547718254,mp-1101285,1,0.0
Ti4VO8,0.0,-3.105722684102564,mp-768727,1,0.0
Li4Co4(OF3)3,0.4,-2.282163501166667,mp-755532,1,0.0
YbWO3,0.0,-2.004820586249999,mp-1187485,1,0.0
Na6MgV2(S3O)2,1.2152,-1.450190929310344,mp-2229140,1,1.0
Li3Cr(CuO2)4,0.0,-1.530870865625,mp-756800,1,0.0
Li5Co5(SnO6)2,0.0,-1.764418433611111,mp-756714,1,0.0
Mn2Fe3Cu(PO4)6,0.0,-2.237974545103311,mp-767774,1,0.0
Li3Ni4SnO8,0.0,-1.647393552812499,mp-755223,1,0.0
EuNbCrBiO6,0.0,-2.4683205475,mp-1522051,1,0.0
VP3(Pb3O8)2,3.2285999999999992,-2.248770474766483,mp-1216403,1,4.0
Ca2IrWO6,1.1277,-2.391784851999999,mp-1369951,1,1.0
Li2Mn4P4O15,3.0924,-2.539535387678489,mp-759540,1,4.0
Ca7MgMn8O20,0.0,-2.528024516345785,mp-1076897,1,0.0
Ba2ZnWO6,3.3679,-2.654629445,mp-548615,1,5.0
CaFeBiO5,0.716399999999999,-1.9432842900000011,mp-1044379,1,1.0
Li3Mn3(FeO5)2,0.891699999999999,-1.91642174743295,mp-753542,1,1.0
K2BaNa2Ti4Si8(WO7)4,0.103899999999999,-2.54703298878759,mp-1212630,1,0.0
SrWO4,4.6571,-2.745727157499999,mp-19163,1,6.0
CaEuZrVO6,0.0,-3.178246432500001,mp-1518352,1,0.0
Fe3(O2F)2,0.0,-1.8016414211111111,mp-850422,1,0.0
Ni2P5O16,0.0225,-2.155416209704968,mp-32393,1,0.0
MnP3H6NO7,2.6372,-1.487546764408866,mp-1211766,1,3.0
K4MnO4,1.4906,-1.697634221047893,mp-1211757,1,2.0
Sr4MgMn2(GaO5)2,0.0,-2.596804962413792,mp-1233475,1,0.0
MnCuO4,0.0,-1.013310017155171,mp-1221885,1,0.0
Li7Ho3(MoO4)8,3.3789,-2.437884138966666,mp-1222932,1,5.0
TbWClO4,3.4255,-2.756657644523808,mp-1103802,1,5.0
Li2TiFe(PO4)3,2.3733,-2.7565186602067673,mp-1222972,1,3.0
Li5Ti3V2(PO4)6,0.0827,-2.753343809113095,mp-850911,1,0.0
NiRu5C17O16,1.923699999999999,-0.8345864217948711,mp-1196196,1,2.0
Mn2Sn(PO4)3,0.0,-2.386113729155036,mp-774768,1,0.0
Er2Mo4O15,3.286699999999999,-2.524230554285712,mp-1212977,1,4.0
MoH20C7NClO6,2.6576,-0.503788976875,mp-1200340,1,3.0
Mg30VCdO32,1.7467,-2.941612510625,mp-1036735,1,2.0
SrDyMn4O12,0.0,-1.907951420743933,mp-1519263,1,0.0
NdFeAsO,0.0,-1.610240133749999,mp-622621,1,0.0
Sr3LaTa2(FeO6)2,1.379,-3.126094304233333,mp-1218631,1,2.0
ErAg(WO4)2,3.1912,-2.378641556805554,mp-17335,1,4.0
Na3FeS2(O4F)2,2.5691,-2.239654140258621,mp-1194982,1,3.0
Zn3Co2(SiO4)3,2.365999999999999,-2.198904756,mp-1327416,1,3.0
VSb3(PO4)4,0.444799999999999,-2.358205351607143,mp-754190,1,0.0
Li2Nb6NiO18,1.2399,-2.674981183580247,mp-759780,1,1.0
Na2FePO5,0.0,-2.306577281239053,mp-818654,1,0.0
LiMn5(P2O7)4,0.0009,-2.464747055717414,mp-540517,1,0.0
Rb2Mo3O11,0.4772,-1.813846248437499,mp-1219975,1,0.0
LiMo8(P2O11)4,0.3876,-2.282518147220921,mp-26051,1,0.0
NiP3NO9,0.0,-1.743827148137755,mp-720476,1,0.0
Sn(WO3)18,0.0,-2.15487865109589,mp-685528,1,0.0
Na4Mg(NiO3)2,0.7806000000000001,-1.459747370039787,mp-2224805,1,1.0
Li8Fe7Sb(PO4)12,0.0,-2.435565862268169,mp-776746,1,0.0
Sr4MgFe2(BrO3)2,0.5238,-2.282257702333333,mp-2228735,1,0.0
Cu3MoSO9,0.0,-1.447196947321429,mp-1213388,1,0.0
LiTi3VO8,1.6197,-3.101722933141026,mp-753531,1,2.0
CoS2N5ClO4,0.6526000000000001,0.206294548461538,mp-1196906,1,0.0
Li5Mn6(BO3)6,0.422099999999999,-2.482414127407225,mp-780308,1,0.0
MnSi2O5,2.237999999999999,-2.870239342241378,mp-19351,1,3.0
CaMn2CoO7,0.267299999999999,-1.7597305691692782,mp-1042685,1,0.0
Li4Mn5Ni3O16,0.0,-1.768968346535302,mp-756534,1,0.0
MgMn12Zn6O24,0.2225,-1.940084452562149,mp-1233432,1,0.0
Li4Ni7(PO4)6,3.541,-2.237632344907083,mp-32384,1,5.0
Si2WO7,0.6284000000000001,-2.4709514475,mp-1379381,1,0.0
CaCrO4,2.3714,-2.43201730833334,mp-19215,1,3.0
Ba8Co7O19,0.5323,-2.067173560294118,mp-704890,1,0.0
Sr3LaMn4O10,0.0,-2.681935350373564,mp-1218559,1,0.0
Na2TbWO6,0.0,-2.465841334942527,mp-1518133,1,0.0
BaNdMn2O6,0.0,-2.687230799336206,mp-22571,1,0.0
Na5Nd11Ti10Mn6O48,0.0,-3.237648577253952,mp-532608,1,0.0
Li6Fe3P8O29,0.0,-2.445059165698756,mp-26221,1,0.0
Li2Mn3(SiO3)4,1.4207,-2.744896837521893,mp-774444,1,2.0
FeH10N3O14,1.8689,-1.123094611339286,mp-1198118,1,2.0
NaFeRuO4,0.0,-1.590236200554186,mp-1221054,1,0.0
VF5,3.0176,-2.841025762916667,mp-27309,1,4.0
Li3Mn2C3O9F,4.1884999999999994,-2.167149946992337,mp-766471,1,6.0
SrCa(FeO3)4,0.0,-1.472811807222221,mp-1517238,1,0.0
MgFeP2O7,4.2706,-2.680121119707792,mp-1042037,1,6.0
LaSbMo2O9,3.2767,-2.396510463846154,mp-558000,1,4.0
LaAg(MoO4)2,2.5972,-2.261418322222167,mp-1223057,1,3.0
Li8MnFe7(PO4)12,0.0,-2.4133313553988422,mp-1176859,1,0.0
Mg2Mo2O5,0.0,-1.868414385,mp-1347236,1,0.0
CoH9C3N7O2,1.7343000000000002,-0.290491123011364,mp-1200667,1,2.0
K2FeHgF6,0.0,-2.4787819927,mp-1111935,1,0.0
Li2Ti4Ni(PO5)4,2.9428,-2.9620195299539183,mp-725430,1,4.0
Na3Mn2P2(CO7)2,0.864599999999999,-2.246883065621118,mp-774454,1,1.0
La6Mn5O18,0.0,-2.9724645934363862,mp-531111,1,0.0
MnC5ClO5,2.6719,-0.860290159827586,mp-623924,1,4.0
Na4Al3FeO8,3.4167,-2.635279114719828,mp-1221194,1,5.0
MgMn4O7F,0.8260999999999991,-2.157786846671086,mp-2227865,1,1.0
Tl2NiH12(SO7)2,4.6530000000000005,-1.466852183763441,mp-1199808,1,6.0
Cs2Cr4O13,1.7647,-1.770825199832124,mp-31378,1,2.0
MgCoNiP2O9,0.0,-2.183140277448979,mp-1043158,1,0.0
Sr2NdMnO6,0.0,-2.712296225543105,mp-1521512,1,0.0
Li3VBO5,1.8927,-2.502129693416668,mp-768849,1,2.0
Eu5(MoO6)2,0.0,-2.84772612394737,mp-1105347,1,0.0
Li2Co2Si2O7,2.8478,-2.448092957051282,mp-758338,1,4.0
Na6U2Mo4O21,2.0982,-2.490502361614419,mp-559430,1,3.0
Li2FeCo3O8,0.0,-1.562395027261905,mp-861570,1,0.0
U(MoO6)2,1.2727,-1.454809177999999,mp-818573,1,1.0
LiY(WO4)2,3.7774,-2.654157191944444,mp-1191085,1,5.0
MgCr2(Fe2O5)2,1.513,-1.93384463735294,mp-2229112,1,2.0
Ba3Nd3Co6O17,0.0,-2.262222792327587,mp-1228468,1,0.0
NaV4O10,0.8429000000000001,-2.329390984536398,mp-760274,1,1.0
Mn3CuO8,0.0,-1.464931576149425,mp-756525,1,0.0
Ca3Ta2Mn2O12,0.4045,-2.910886832133092,mp-1345521,1,0.0
FeP(HO2)2,1.5012,-1.200091605267856,mp-1212769,1,2.0
HoZn(MoO3)2,1.2034,-2.362216990499999,mp-1040974,1,1.0
Cs2Ti(WO4)3,2.8344,-2.5071201268135392,mp-1226157,1,4.0
CoP6(WO8)3,0.0,-2.431482152584033,mp-774466,1,0.0
Zn3Si3(MoO6)2,1.2614,-2.33302256125,mp-1154656,1,1.0
Na3SmV2O8,3.6922,-2.661162983747947,mp-1210666,1,5.0
Na3NiBSO7,2.7836,-2.102747079677276,mp-771143,1,4.0
CaDy(FeO3)4,0.0,-1.646875342314814,mp-1519459,1,0.0
Y2Fe3(SiO4)3,3.845799999999999,-2.8224947067499992,mp-1324167,1,5.0
LiCoO2,0.6623,-1.745659770833334,mp-22526,1,0.0
SrLaCrO4,1.9756999999999991,-3.174209009642858,mp-1218189,1,2.0
BaSrCaCrO6,0.5585,-2.5871239040000003,mp-1519678,1,0.0
Li8Mn5Fe3(BO3)8,3.072899999999999,-2.441535863951149,mp-778302,1,4.0
La4ZnCu2MoO12,0.359999999999999,-2.751361338499999,mp-1223629,1,0.0
Na2Mo3O13,0.0,-1.327628483764368,mp-1237504,1,0.0
Sr4CeY3Fe2(Cu2O9)2,0.0,-2.583972424374999,mp-1218645,1,0.0
Li4V3Co(PO4)4,0.616699999999999,-2.566085392210884,mp-765840,1,0.0
LiCoCO4,0.8597,-1.715758502976191,mp-758146,1,1.0
Cu6Te2Mo2H2Cl4O15,0.0,-1.302225830026881,mp-1226362,1,0.0
Ba2AlW3O8,0.0,-1.974056644285714,mp-1048143,1,0.0
TmV2O2,0.0,-1.087539423500001,mp-1208189,1,0.0
LiNiRhF6,1.6961,-2.314478848703703,mp-1222366,1,2.0
Ca5V3CO12,0.647899999999999,-2.610748677142856,mp-1214147,1,0.0
Na2(CoO2)3,0.0129,-1.365701744000783,mp-1203207,1,0.0
Nd2MgCr2O8,1.7066,-2.8121562715384623,mp-2241016,1,2.0
Li6Mn15O32,0.0,-1.936551737338972,mp-761797,1,0.0
Ba3LaMgIn(WO6)2,1.843,-2.718723096833333,mp-2230108,1,2.0
CrP4O11,2.660799999999999,-2.519964013504464,mp-774615,1,3.0
Li5V5(CoO6)2,1.33,-2.1972857161111112,mp-755938,1,1.0
BaFe(Si2O5)2,3.8792,-3.102870680937501,mp-19165,1,5.0
SrCaPrFeO6,0.6846000000000001,-2.568547439166666,mp-1517272,1,1.0
Cr5O12,1.794699999999999,-1.832207719999999,mp-773920,1,2.0
Mg2Fe2O5,0.1531,-2.185614972222221,mp-685434,1,0.0
Fe7(AsO4)6,1.5249,-1.698793269594594,mp-510450,1,2.0
LiNi2OF3,2.931,-2.183381122619047,mp-765582,1,4.0
Mg2V2CoO8,2.5147,-2.470540413461539,mp-1222196,1,3.0
Mn2V3NiO8,0.0,-2.223823277204435,mp-1280544,1,0.0
NiBiAsO5,2.8781,-1.64332654625,mp-557209,1,4.0
Sr3Fe2MoO9,0.7011000000000001,-2.489227529666668,mp-1218650,1,1.0
Sr6Ca2Co7CuO20,0.0,-1.9108180529166672,mp-1076118,1,0.0
Ba7Fe6CuF34,0.6143000000000001,-3.299934332291667,mp-553974,1,0.0
RbLiMoO4,4.5325,-2.257652557261905,mp-556209,1,6.0
K5Na3Nb4(WO5)4,0.338499999999999,-2.210938837302442,mp-1076208,1,0.0
Li4Mn2Cr3Sb3O16,0.123,-2.1675171056855502,mp-766080,1,0.0
SrMg(CoO3)4,0.0,-1.090412909722222,mp-1522326,1,0.0
Li7V4O11F,1.5892,-2.512304160579709,mp-758444,1,2.0
Eu2MgWO6,0.278599999999999,-2.9310433685,mp-1205507,1,0.0
Li3Mn5O2F9,1.9536,-2.7165881660344833,mp-758528,1,2.0
Mn3Sb(PO4)4,0.319199999999999,-2.39964119739019,mp-1648760,1,0.0
Li4CrO4,1.779,-2.178241171481481,mp-772434,1,2.0
Li3CrBPO7,3.318,-2.6254896410622712,mp-768576,1,4.0
Fe2Ir2O5,0.0,-0.6465980050000011,mp-1184418,1,0.0
VZn6P3O16,3.5098000000000003,-2.301695747074176,mp-1216343,1,5.0
Li3CoSiBO7,0.0521,-2.353067031474358,mp-771167,1,0.0
RbCrF3,0.9717,-2.8946429765,mp-1206325,1,1.0
VBO3,1.8746999999999991,-2.726639265833333,mp-18946,1,2.0
LiMn3NiO8,0.1792,-1.695354213625109,mp-757424,1,0.0
Li3V2(CO3)4,0.4979,-2.090589887142857,mp-1644899,1,0.0
MgInNi2SbO6,1.8513,-1.640176901060606,mp-2222766,1,2.0
K8V2(S2O9)3,1.9921,-2.210985844546512,mp-704408,1,2.0
Li4MnNb2WO12,1.3856000000000002,-2.503374487063219,mp-757199,1,2.0
Li4Ti3MnO8,0.0,-2.8125132063290232,mp-754722,1,0.0
PrCrTeO6,2.734099999999999,-2.507075172592591,mp-1190273,1,4.0
Ba4Cu3MoO12,0.0,-1.9910682555,mp-1232318,1,0.0
NaMgFe(SeO4)2,0.169699999999999,-1.550374600082061,mp-2218799,1,0.0
MgVCrP2(O4F)2,1.8437,-2.838765189619047,mp-2226915,1,2.0
Gd2MnNiO6,0.0,-2.801422737293103,mp-1212655,1,0.0
Li6Cr3P8O29,0.2506,-2.5564966254813672,mp-26976,1,0.0
KMgMn2(MoO5)2,0.1589,-2.146844309882005,mp-2232688,1,0.0
Be3Fe2(SiO4)3,1.450699999999999,-2.69078681475,mp-1047825,1,2.0
Li4V3Ni3(SnO8)2,0.152699999999999,-2.05714438547619,mp-775442,1,0.0
Li(CoO2)4,0.0,-1.296119834871794,mp-780322,1,0.0
Ca2Ta2CrO8,2.336999999999999,-3.171782793820512,mp-1046171,1,3.0
AlCo3Se2ClO8,1.8001,-1.466250656979166,mp-1264957,1,2.0
Li2VFeP2(HO5)2,1.758299999999999,-2.369444006580688,mp-1177767,1,2.0
BaCaV2Ni3(HO5)2,0.4437,-1.7988194259210522,mp-1233236,1,0.0
Fe10O11F9,0.313799999999999,-1.964531487666667,mp-777638,1,0.0
Ba3Cr2WO9,0.0,-2.7681211930000003,mp-541512,1,0.0
Na2Li(NiO2)3,0.2254,-1.371226447174329,mp-1290445,1,0.0
Ca3MnH12S2O17,2.363,-1.9304447660837432,mp-1204717,1,3.0
VCd2BiO6,2.248999999999999,-1.8547565015,mp-1207861,1,3.0
Li5Cu5(NiO6)2,0.0,-1.285261249027777,mp-770841,1,0.0
Ba2MgFeReO6,0.8922999999999991,-2.258594430681818,mp-2217890,1,1.0
SrMg30CrO32,0.530899999999999,-2.9413385884375,mp-1038723,1,0.0
BaEuDyMnO6,0.0,-2.888322498459771,mp-1520404,1,0.0
Li4Fe7(OF7)2,3.0765,-2.5615404497530863,mp-757088,1,4.0
Ca3Mn2O7,0.409799999999999,-2.647336472571837,mp-19042,1,0.0
MgFe2Si2SbO9,1.8731,-2.438311982666667,mp-2242239,1,2.0
Li4Mn9O18,0.0,-1.9725553138616991,mp-1177463,1,0.0
Cs2W(OF2)2,3.1768,-2.688816068812262,mp-1226138,1,4.0
ZnCoTeBr2O3,2.6795,-1.284775863802082,mp-561705,1,4.0
Ba6Lu2(WO6)3,2.9903,-3.116453225632183,mp-16928,1,4.0
WCO2,0.0,-0.19917894625,mp-1216158,1,0.0
V3Cr2Ni(PO4)6,0.0,-2.499363939662698,mp-774829,1,0.0
SrMg6VO8,3.668999999999999,-2.7520325850000003,mp-1031676,1,5.0
Ca8Mn6Al2O21,0.1477,-2.713632696759087,mp-1247683,1,0.0
KSrGdMnO6,0.0,-2.393713992518104,mp-1520699,1,0.0
Cs2MoO8,1.975099999999999,-1.045515627210031,mp-1213774,1,2.0
ZnMoAsO5,1.005299999999999,-1.751313726875,mp-1047153,1,1.0
Li4CoNi5O12,0.176099999999999,-1.310841614696968,mp-772703,1,0.0
Li2V3NiO8,1.6477,-2.289423585476191,mp-777896,1,2.0
Ho2CoTe2(SO7)2,3.0518,-2.338044712301586,mp-1190336,1,4.0
Li4Mn2Cr3Co3O16,0.0,-1.896101060328407,mp-758129,1,0.0
RbTm(WO4)2,3.324,-2.677703464375,mp-1209157,1,4.0
Fe2Ni3H4(Se3O10)2,2.0918,-1.337865173973214,mp-1212753,1,3.0
Li2Fe2Si4O11,3.4646,-2.781039900614035,mp-757429,1,5.0
CaLaFeWO6,2.471,-2.78816411,mp-1638691,1,3.0
Li4Cr2Co3Sb3O16,0.5819999999999991,-1.9172931433333331,mp-753885,1,0.0
W(CO)6,2.9818,-0.819981187115384,mp-541695,1,4.0
Mn3Fe2P6WO24,0.0,-2.37848803643473,mp-771478,1,0.0
NdCu(WO4)2,1.5763,-2.360119415624999,mp-504997,1,2.0
Mg6FeSnO8,2.242,-2.4533116509374993,mp-1032824,1,3.0
K3CoO2,1.6284,-1.245469531125,mp-28825,1,2.0
Mg2Nb2CrO8,1.188799999999999,-2.900613825384615,mp-1046839,1,1.0
Fe3P2(HO5)2,1.7308,-2.090372608928571,mp-1199228,1,2.0
Mn4FeO8,0.0,-1.814297802440318,mp-757061,1,0.0
Ca3Si3(NiO6)2,0.014299999999999,-2.780445715125,mp-1154587,1,0.0
La3MnO7,0.0,-3.07607955208464,mp-1178204,1,0.0
LaZnFeSbO6,1.167099999999999,-2.102518478500001,mp-1044018,1,1.0
ZrVF6,2.407299999999999,-3.646671824375,mp-557686,1,3.0
Li6Co6O5F11,0.2401,-2.2546054225,mp-850986,1,0.0
MgMn4CuO8,0.0,-1.956333849766009,mp-2228575,1,0.0
Ba2MgCuNi2F14,0.0,-2.8627154084999993,mp-1354763,1,0.0
FeRe2(H2O3)4,2.683799999999999,-1.6628104228260872,mp-1191971,1,4.0
Co2ClO3,0.0,-0.9748031325,mp-1102538,1,0.0
Co2H22C(N2O3)4,2.9117,-0.871029331277777,mp-1198550,1,4.0
MgTi2(FeO3)2,0.290599999999999,-2.5014842356060623,mp-2227414,1,0.0
Ba3Fe10SnO20,1.7977999999999992,-1.9486437351470571,mp-1228526,1,2.0
V3Cu2Ni(PO4)6,0.0,-2.333801654662698,mp-775338,1,0.0
Nb2Co(P2O7)3,1.4611,-2.652900934761905,mp-562076,1,2.0
Ho2Ni(B2O5)2,3.531799999999999,-3.085675563627449,mp-16779,1,5.0
CaMn2(SiO3)4,1.1615,-2.925257907676952,mp-1154719,1,1.0
Rb2Mo3O10,3.3978,-2.109251237,mp-541075,1,5.0
CrH20S2(NO7)2,2.8716,-1.313660945384614,mp-728691,1,4.0
Fe14Ni11O32,0.0,-1.32562531614035,mp-685456,1,0.0
V4P2O13,1.439,-2.5383671565413533,mp-753664,1,2.0
Mg6AlCoO8,1.134499999999999,-2.7474983775,mp-1033099,1,1.0
Na3LiMnBPO7,2.6676,-2.440436320657987,mp-759559,1,4.0
SrLaVO4,1.7713,-3.232452870357143,mp-1272417,1,2.0
LiP3W2O13,3.3183,-2.477413577619047,mp-758410,1,4.0
Li4Mn3(FeO5)2,0.413799999999999,-1.981151318269813,mp-753645,1,0.0
Mn3Co3(TeO8)2,0.007,-1.451856102380269,mp-772448,1,0.0
RbLiBi2(MoO4)4,3.054599999999999,-2.00898332982639,mp-650024,1,4.0
Ca2CoC(NO)2,0.0,-1.388483438125,mp-1147777,1,0.0
LiV5(BO5)2,0.0,-2.5373866623148142,mp-756548,1,0.0
YCr3O9,0.6657000000000001,-2.162561794230769,mp-1352636,1,0.0
Cr4Cu3(PO4)6,0.2974,-2.323718528320463,mp-17570,1,0.0
Sr3LaMn2(WO6)2,1.865,-2.819290158543103,mp-1218657,1,2.0
Fe5Te6(ClO9)2,0.021499999999999,-1.53193740483871,mp-645953,1,0.0
Li4Ti3Mn3(FeO8)2,0.485199999999999,-2.478265615254516,mp-770508,1,0.0
Sr5Ca3Ti5Mn3O24,0.0,-3.130680953761495,mp-1077659,1,0.0
Ca6Fe(CoO4)3,0.2065,-2.4546325347727262,mp-1227494,1,0.0
Li6Cr2O7,0.8789999999999991,-2.167338154,mp-885422,1,1.0
Li2Fe(SiO3)2,3.4496,-2.743686567651515,mp-753634,1,5.0
YMg14FeO16,0.0,-2.875369684999999,mp-1036118,1,0.0
MgBiMoO5,1.511199999999999,-2.118033507812501,mp-1044272,1,2.0
NpMoO3,0.0,-2.092779536750001,mp-1186334,1,0.0
K2NaMoF6,3.9023,-2.966080086587931,mp-556487,1,5.0
BaEuDyVO6,0.0907,-3.117460697666667,mp-1516727,1,0.0
Li6VNi3(PO4)6,0.0,-2.383403511446428,mp-759133,1,0.0
MgFe8(O7F)2,0.032499999999999,-1.634914621399999,mp-1233175,1,0.0
Li9Mn4(BO3)8,0.7028999999999991,-2.453038443667944,mp-759917,1,1.0
Li4V2Cr3Co3O16,0.0,-2.001832311190476,mp-753635,1,0.0
RbNiO2,0.4196,-1.011068764374999,mp-1232303,1,0.0
V2AsO6,1.4248,-2.20083250277778,mp-1200118,1,2.0
PrMg(WO3)2,2.0064,-2.484764637166667,mp-1044743,1,3.0
SrCa7Ti3Mn5O24,0.528299999999999,-2.882794022991379,mp-1247714,1,0.0
VNiO3,0.0,-1.970647114,mp-1206033,1,0.0
Li4Ti2Mn7O18,0.0,-2.287592126952168,mp-769508,1,0.0
Mn2Pt2O5,0.0,-0.8628062600957861,mp-1185978,1,0.0
Na2DyMoPO8,4.2135,-2.770452292812933,mp-555687,1,6.0
NdCoO3,0.0,-2.520969372499943,mp-22599,1,0.0
NaMoF6,0.0,-2.80708427125,mp-504778,1,0.0
YFeCl2O3,0.0,-1.861901992857143,mp-1104229,1,0.0
MgNiPO5,0.0487,-2.247665795580356,mp-1046740,1,0.0
LiCo3(OF3)2,0.187199999999999,-2.100724536111111,mp-850982,1,0.0
Ba2EuCoCu2O7,0.0,-2.078962150769232,mp-1214711,1,0.0
Li4V3Cr3(SbO8)2,1.3902,-2.354061978690477,mp-776595,1,2.0
Fe2As2H2PbO10,1.6533,-1.628038261029411,mp-1212702,1,2.0
Li4CuNi3(PO4)4,0.1027,-2.314919111139456,mp-753889,1,0.0
Na6Fe2P(CO4)4,0.0,-2.019794996824783,mp-780786,1,0.0
MnAs2O7,0.5803,-1.515838803793103,mp-1042875,1,0.0
LaCeMn2O6,0.0,-2.981461745086207,mp-1222969,1,0.0
La2MnRhO6,0.377699999999999,-2.762642829793104,mp-1223338,1,0.0
Li7Fe(O2F)2,2.6388,-2.2675687852380952,mp-850795,1,3.0
Fe3(GeO4)2,0.0,-1.866747364230768,mp-651997,1,0.0
BaNiO2,2.3221,-1.9038426225,mp-18943,1,3.0
CsMnBr3O2,0.3203,-0.9345771457266012,mp-1213628,1,0.0
Li2CoPHO5,2.8555,-2.2033065795,mp-943466,1,4.0
CdNiO2,0.0,-1.101630799999998,mp-1226706,1,0.0
Mn21Sn9O40,0.0,-1.992186497165024,mp-767308,1,0.0
K4Mo6PtO26,0.310799999999999,-1.604453612,mp-1204212,1,0.0
Sr2NiRuO6,0.0,-2.142298130499999,mp-1078758,1,0.0
La2MgMnZnO6,1.8657,-2.856684243902822,mp-2240284,1,2.0
LiP5WO15,2.8415,-2.517189992343073,mp-772973,1,4.0
MnFeH4NF6,2.147,-1.992814375033156,mp-1182519,1,3.0
Ba2CrF6,2.4321,-3.674939850555555,mp-1214706,1,3.0
Sr4MgRe2NiO12,0.0,-2.558300259,mp-2230175,1,0.0
Sr2GaNi2O7,0.0,-1.7605792339583322,mp-1043888,1,0.0
Li2FeBAsO7,0.2979,-2.025728766111111,mp-1177952,1,0.0
KYSnWO6,2.1069,-2.4758118202249992,mp-1522868,1,3.0
LiCo3NiO8,0.238199999999999,-1.223827918717947,mp-1275497,1,0.0
Li3La7(FeO8)2,0.998499999999999,-3.064262541607143,mp-756753,1,1.0
LaMgVCrO6,1.3575,-2.8906128344999993,mp-1044888,1,2.0
LaMn8Bi3O20,0.668,-2.070993510576508,mp-1222927,1,1.0
Li2Co2OF6,1.0269,-2.250279444242424,mp-756031,1,1.0
Mg14AlNiO16,1.6296,-2.9020941793749992,mp-1036618,1,2.0
Na4CrO4,0.0,-1.8990317633908032,mp-18884,1,0.0
Ca8Ti3Mn5O22,0.1513,-2.925507641964609,mp-1247663,1,0.0
KZrInWO6,0.489899999999999,-2.471966453391667,mp-1522688,1,0.0
NaCaLaWO6,2.3322,-2.771698829637931,mp-1521388,1,3.0
K2VAgF6,0.0,-2.688357245616667,mp-1112271,1,0.0
Li3Mn7O12,0.0318,-2.03200070600836,mp-1177687,1,0.0
Fe31Si5O48,1.120499999999999,-1.8678163863095252,mp-760116,1,1.0
Li10Ti3Mn5O16,0.895699999999999,-2.438016854499662,mp-761137,1,1.0
Cu2MoSeO7,0.0,-1.356836467713068,mp-1200069,1,0.0
LiVCO3F2,2.1268,-2.475746494479166,mp-766478,1,3.0
Mg3V2O8,3.336299999999999,-2.752985765000001,mp-19034,1,5.0
NbFe(PbO3)2,1.8713,-2.075322707999999,mp-1220306,1,2.0
MnP2WO8,2.327399999999999,-2.451694534768062,mp-754986,1,3.0
Li4VF6,3.387499999999999,-3.063459420757576,mp-857358,1,5.0
Ba2TmMoO6,0.0,-3.068558652,mp-1205595,1,0.0
Ca7Mg(Co2O5)4,0.005399999999999,-2.113814816458333,mp-1076526,1,0.0
Li4Mn2Fe3Sn(PO4)6,2.4669,-2.434291942051312,mp-1177457,1,3.0
Li4Ti3Co3(TeO8)2,1.1118,-2.296384598095239,mp-753426,1,1.0
Sr2CrFeAsO3,0.0,-1.9713965596875,mp-1189319,1,0.0
ZnCu3(NiO3)4,0.0,-0.878460211,mp-1043132,1,0.0
MgVBr2O,1.993199999999999,-1.808372878,mp-2242023,1,2.0
Li4Ti3(FeO4)3,0.0604,-2.545936431969697,mp-753168,1,0.0