formula,bg,formation_energy,mp-id,fidelity,bg_category
LaCrReO6,0.0,-2.614219399722222,mp-1040835,1,0.0
Li2VCrO4,0.9832,-2.449152683333334,mp-755540,1,1.0
ZnW2O5,0.498499999999999,-1.575032855625,mp-1043251,1,0.0
FeTe3S3Cl3(OF2)9,3.0463,-1.976578619594594,mp-1197776,1,4.0
Ca3Fe2(WO6)2,0.0,-2.513053843157894,mp-1275790,1,0.0
Fe3BO5,1.019499999999999,-1.9660454046296292,mp-22223,1,1.0
LiFe4(PO4)3,2.077699999999999,-2.310427394113095,mp-25825,1,3.0
Na4U(MoO4)4,0.0,-2.29850603922069,mp-558443,1,0.0
BaCoBP2HO9,2.5883000000000003,-2.617168281980158,mp-24828,1,3.0
KNiIO6,1.751799999999999,-1.0641831624722211,mp-550959,1,2.0
LaSm3(FeO3)4,1.5064000000000002,-2.806323776499999,mp-1222895,1,2.0
Li4V3Cr3(CuO8)2,0.0,-2.096511060476191,mp-778230,1,0.0
Li4Nb3Fe3(SnO8)2,0.230799999999999,-2.32707545797619,mp-753666,1,0.0
MnMoO4,1.409699999999999,-2.083752250488489,mp-19455,1,2.0
SrCaCo2O5,0.0,-2.136111192708333,mp-1099694,1,0.0
MnH12C2NCl3O2,3.9702,-0.8462546175205261,mp-1180863,1,5.0
GdFe4(BiO4)3,1.6060999999999992,-1.9202230005,mp-1225148,1,2.0
Co3Bi(CO)9,2.2248,-0.7375737000000011,mp-562048,1,3.0
YCrTeO6,2.6946000000000003,-2.530866930185184,mp-1105234,1,4.0
KCr2H(CO)10,0.7538,-0.6726612219166681,mp-743548,1,1.0
CaV4O6,0.282899999999999,-2.524892217272727,mp-1044005,1,0.0
LiMnCr2O6,0.300699999999999,-2.083604468126437,mp-850948,1,0.0
CaVSnWO6,0.457999999999999,-2.260939558500001,mp-1517951,1,0.0
Li2CoSn(PO4)2,2.3415,-2.362921119532313,mp-1662777,1,3.0
Mg6MnNiO8,3.0826,-2.648790484245689,mp-1031818,1,4.0
Co29Ge13O56,0.005499999999999,-1.5804295284183671,mp-764992,1,0.0
YMoO4F,3.7464,-2.975229910357143,mp-555913,1,5.0
Mn5Sb(PO4)6,0.0,-2.408182960486452,mp-772211,1,0.0
Li5V2OF11,1.4843000000000002,-3.053614274824561,mp-760197,1,2.0
SrLaCrSnO6,2.027599999999999,-2.806364175999999,mp-1521441,1,3.0
Sc10V10O37,0.0,-2.694474914298245,mp-1173573,1,0.0
MgCr4FeO8,2.6919999999999993,-2.398696282500001,mp-1222043,1,4.0
RbIn(WO4)2,4.2653,-2.145657781180554,mp-504667,1,6.0
Li4Cr5Sn3O16,0.214699999999999,-2.228600264226191,mp-770671,1,0.0
MnCrH18(NF)6,1.052,-1.112409540560344,mp-24116,1,1.0
Tl2CoH12(SO7)2,1.9805,-1.442247966182795,mp-1196372,1,2.0
MgSn2WO6,1.978399999999999,-2.023034342499999,mp-1519158,1,2.0
Fe38O39,1.3910999999999991,-1.425269673181818,mp-705753,1,2.0
V2Zn3H2O11,0.029299999999999,-1.474993297638889,mp-1216533,1,0.0
Ti3VSb2(PO4)6,0.0,-2.695979659662698,mp-774876,1,0.0
Mg3Fe2(SiO4)3,2.711699999999999,-2.782252023124999,mp-6551,1,4.0
BaNdCr4O12,0.0,-2.063683726527778,mp-1517084,1,0.0
Li4Nb3Cr2Fe3O16,0.170299999999999,-2.386636731904762,mp-765948,1,0.0
MgCr3(SO4)6,0.1778,-2.028446122941176,mp-771674,1,0.0
La7SmMn2(Fe3O10)2,1.032599999999999,-2.771089608079503,mp-1076418,1,1.0
K2Mo2H12C4N(OF3)3,0.0,-1.320752695287879,mp-744190,1,0.0
Li4Ni3TeO8,0.647899999999999,-1.7283107531250002,mp-756871,1,0.0
Ag2WO4,2.0439,-1.348469886904761,mp-504466,1,3.0
Li3V5O14,2.3936,-2.287017241818182,mp-755775,1,3.0
Ba4MnGa2(S3F2)2,2.9405,-2.495784271937119,mp-1197784,1,4.0
NaFe9H18(S3O22)2,0.1714,-1.5081308408830671,mp-1223165,1,0.0
NaNi2P2O9,0.0,-1.9073221546903592,mp-1094125,1,0.0
Li2Fe4O7,1.319999999999999,-1.633704040897435,mp-1120820,1,1.0
Li2CoO2,2.5449,-1.737626623333333,mp-755297,1,3.0
SrMn5(SO4)6,4.3163,-2.15304683087005,mp-554634,1,6.0
SrLa2CeMn2Cr2O12,0.1641,-2.971871034793103,mp-1218309,1,0.0
V3Fe(PO4)6,1.192,-2.473611010231092,mp-772911,1,1.0
ScMnO3,0.0,-2.983540803252874,mp-18954,1,0.0
LiNdMn4O12,0.0,-1.643814147364305,mp-1517398,1,0.0
Ba2Pr2Co4O11,0.0,-2.296939540964913,mp-1228571,1,0.0
Na3Li3Cr2F12,4.1042,-3.113010396081896,mp-14458,1,6.0
CrSbTeO6,0.8939,-1.8242671571296292,mp-1226197,1,1.0
Li12VFe3P4(CO7)4,2.642,-2.359581385549451,mp-766566,1,3.0
Cs4Ni3F10,4.181599999999999,-2.616040625882352,mp-17733,1,6.0
K2WO8,2.6972,-1.309973076621212,mp-29347,1,4.0
Fe3(AsO4)4,0.0,-1.37062999847826,mp-1331355,1,0.0
MnFeNF6,1.4212,-1.749142320742337,mp-1201036,1,2.0
Li4Fe2Co3Cu3O16,0.0,-1.3680755526190471,mp-754017,1,0.0
U2Co(AsO12)2,0.006699999999999,-0.8602162653448271,mp-1194235,1,0.0
Mg6MnCuO8,0.0863,-2.62266361799569,mp-1032892,1,0.0
KLaCeNiO6,1.3357,-2.488349694224999,mp-1517811,1,2.0
YMnF5,4.044,-3.6662396547044342,mp-1402653,1,6.0
Mn3PtF6,1.1688,-1.82344496737931,mp-1212233,1,1.0
SrMgNiO3,2.208699999999999,-2.333942805000001,mp-2228091,1,3.0
Li6Ca12W4N16O3,2.9006,-1.259552922804877,mp-15203,1,4.0
CoH20Se2(NO7)2,2.923,-1.100111275633013,mp-24758,1,4.0
LaZnCrWO6,1.9409,-2.4406944184999992,mp-1049246,1,2.0
K2CoP2WO10,2.685399999999999,-2.432804767892857,mp-645301,1,4.0
Li4Ni(BO3)2,3.5073,-2.367213206474358,mp-775949,1,5.0
VP2NO8,0.0,-1.65041855764881,mp-818266,1,0.0
YMg14VO16,0.0,-2.9074992309375,mp-1035981,1,0.0
Mn2SnC10(ClO5)2,2.6984,-0.8665211949344831,mp-637244,1,4.0
V2NiP2(H4O7)2,0.6379,-1.932484481084655,mp-23983,1,0.0
Fe5Sb(PO4)6,2.194,-2.321034022996032,mp-771885,1,3.0
ZnNiTe3O8,3.239999999999999,-1.52962794,mp-1215818,1,4.0
Fe2Co4Ge2(CO)21,1.9891,-0.6788138764499999,mp-652793,1,2.0
Mg14MnNbO16,0.0,-2.817160601497844,mp-1036050,1,0.0
V2As3N2O17,0.401899999999999,-0.506952475520834,mp-1200774,1,0.0
Li3Mo4P5O24,2.5369,-2.424595469950397,mp-705470,1,3.0
Sr3Fe2(HO)12,0.0,-0.6617925171551721,mp-744565,1,0.0
LiCo2(PO3)5,3.1948,-2.439145017893373,mp-1101526,1,4.0
Mn4GeP4(H6O11)2,3.3033,-1.986405739309198,mp-1201485,1,4.0
Ba2MgWO6,3.223099999999999,-2.9532242795,mp-18986,1,4.0
NaSrNdFeO6,0.0,-2.159810714887931,mp-1516413,1,0.0
Na2CoP4(H4O5)4,3.2722,-1.817674101891396,mp-758936,1,4.0
Pr(MoO3)2,0.580399999999999,-2.436316929074073,mp-1044744,1,0.0
Li4Ti4Mn(Co2O9)2,0.113199999999999,-2.356179599180571,mp-767219,1,0.0
K2MoC2O9,2.7355,-1.355511428892857,mp-559331,1,4.0
Sr6Ca2Fe3Co5O24,0.0,-2.051587451999999,mp-1076805,1,0.0
Sr7CaFe4(CoO5)4,0.0,-2.228400806875,mp-1076159,1,0.0
SmEuHfFeO6,0.0,-3.116883010000001,mp-1517536,1,0.0
LiMn(Si2O5)2,2.6044,-2.937055706172774,mp-849757,1,3.0
Mg3WO4,0.0,-2.135933133124999,mp-1099244,1,0.0
Cs2Na8U8Mo5O44,1.8121,-2.86264720299022,mp-1228549,1,2.0
K2MnV2O7,2.41,-2.389990744785918,mp-18251,1,3.0
BaSr(WO3)4,0.0,-2.39191452111111,mp-1521444,1,0.0
MnGa2P3H4NO14,1.2659,-1.901978106674383,mp-1200042,1,1.0
Li4Ti4Mn4VO18,0.8492000000000001,-2.659993329948091,mp-766883,1,1.0
CoP2H17N4O9,1.190599999999999,-1.21700890637987,mp-728003,1,1.0
Na6Co2P(CO4)4,0.0,-2.00518248941099,mp-770874,1,0.0
V2O5,2.161,-2.2890218171428582,mp-25279,1,3.0
Fe3OF9,0.794899999999999,-2.243188886538461,mp-818581,1,1.0
MgCrH3(CO3)2,2.0763,-1.180710055673076,mp-1210937,1,3.0
MgV3P3O13,1.284899999999999,-2.708577474946428,mp-1041461,1,1.0
LiCr2O4,0.6332,-2.258351875476191,mp-774032,1,0.0
VFe(CuO2)2,0.0,-1.52527590125,mp-1216360,1,0.0
Ba2AlCo3O8,0.0,-1.9156261857142851,mp-1048180,1,0.0
Li6CoNi9O20,0.0,-1.266630112499999,mp-775263,1,0.0
Sr3Fe2TeO9,2.1802,-2.399836242777778,mp-1218440,1,3.0
NaMnBiWO6,0.0,-1.8770781539310344,mp-1520467,1,0.0
CoAgO3,0.0,-0.742011777333333,mp-1273356,1,0.0
CoB10H31C18O,1.8074999999999992,-0.086448116072403,mp-1204268,1,2.0
SrLaMgMn2O6,1.312799999999999,-2.693029861442006,mp-2217867,1,1.0
Li5Cr6P5O24,0.625,-2.524692194497024,mp-758754,1,0.0
Fe2CoO4,1.5511,-1.5725015085714271,mp-753222,1,2.0
Li2MnVP2(O4F)2,0.8944999999999991,-2.7610766068052133,mp-1177877,1,1.0
Ca3Mg2Fe(CO3)6,4.030200000000001,-2.457845642000001,mp-1227854,1,6.0
LiFeH12(SO7)2,2.3529,-1.522254188944444,mp-780157,1,3.0
CrPbO3,0.0,-1.738003188999999,mp-22364,1,0.0
YWBrO4,2.7095,-2.650735798214286,mp-1192505,1,4.0
MgCo6(O2F)4,0.1082,-1.595077062894736,mp-2231930,1,0.0
Li9Cr5O12,1.4392,-2.262724667692307,mp-761270,1,2.0
LuAg(WO4)2,3.171799999999999,-2.375720084027777,mp-1210947,1,4.0
Fe2BO4,1.1644,-2.057117998095238,mp-20302,1,1.0
Cs3NdCr3O12,2.6163,-2.241230329945554,mp-572404,1,3.0
ZnCo(GeO3)2,1.767199999999999,-1.877849663499999,mp-1043317,1,2.0
La3MnW(SO2)3,0.3421,-2.7144057861022173,mp-1054584,1,0.0
KNi2H3(SeO5)2,2.6967,-1.3749369792048611,mp-1223496,1,4.0
MnCdO3,0.0,-1.411691312586207,mp-1016854,1,0.0
V(WO4)2,1.4784,-2.155440051818181,mp-1047717,1,2.0
LiCo2NiO6,0.6139999999999991,-1.258547901333333,mp-774305,1,0.0
NaMg6WO8,4.4364,-2.6210728782112063,mp-1030726,1,6.0
LiVF6,3.0939,-2.9705122079166673,mp-2710677,1,4.0
Ca8Ti2Mn6O21,0.038599999999999,-2.79814114633116,mp-1247703,1,0.0
Mn5Fe(PO4)6,0.0,-2.384147008542009,mp-771947,1,0.0
Sr10Cu5Mo4WO30,0.0,-2.385276411,mp-1218939,1,0.0
Y2Co2O5,0.0,-2.326374695,mp-1187759,1,0.0
Li4Fe2Cu3Te3O16,0.0,-1.515248503333333,mp-765617,1,0.0
Co2CN9(Cl2O3)2,0.304999999999999,0.619850867840908,mp-1182699,1,0.0
Na2Fe(SO6)2,0.0,-1.213298564279918,mp-1210951,1,0.0
Ba2EuWO6,0.0113,-2.9613594059999993,mp-1518337,1,0.0
Nd5Ti4FeO17,1.7847,-3.552762297716049,mp-557307,1,2.0
SrEuDyCoO6,0.0,-2.621137449666668,mp-1518286,1,0.0
Mn7Si3O14,0.032599999999999,-2.469183668146552,mp-1222225,1,0.0
Li4Fe5(NiO6)2,0.734,-1.703698535579709,mp-758177,1,1.0
K2V2O5,1.116799999999999,-2.250389128833335,mp-1099837,1,1.0
Li4Mn2Nb3Fe3O16,0.2134,-2.337242462471264,mp-769626,1,0.0
Rb2Fe4O7,0.268999999999999,-1.647522416923075,mp-768846,1,0.0
Mn4CdO5,0.0,-1.809217806672414,mp-1221716,1,0.0
BaSr6Fe3Bi3O16,0.0,-2.330999748275862,mp-1227908,1,0.0
LiLa(MoO4)2,3.7935,-2.534886955069446,mp-729006,1,5.0
ZnFe8Ni3O16,1.0206,-1.527566547857143,mp-1203466,1,1.0
LiMnO7,0.0,-0.216454010140485,mp-1210922,1,0.0
Li8MnNi7O16,0.100699999999999,-1.598419378268677,mp-761013,1,0.0
MnHC3O4,2.7731,-0.90475654546456,mp-746778,1,4.0
Na4Fe2(PO4)3,0.1451,-2.439779046640276,mp-18493,1,0.0
Li4MnOF5,0.7646000000000001,-2.886752946024033,mp-759491,1,1.0
Rb2Ti(WO4)3,2.8232,-2.492750830462963,mp-1219784,1,4.0
NaLiFePO4F,4.3042,-2.575147609789501,mp-1198378,1,6.0
FeH14C3Br3NO2,3.8008,-0.6409989850000001,mp-600221,1,5.0
LiV6P7O24,2.4016,-2.595842518048245,mp-26765,1,3.0
MgCr2CuO7,0.3327,-1.819808162878787,mp-1041768,1,0.0
LiV3CoO10,0.6737000000000001,-2.009057018222223,mp-754313,1,1.0
Cs(WO3)2,0.0,-2.224118584961686,mp-21857,1,0.0
YEr(FeO3)2,1.5885,-2.840965276999999,mp-1216032,1,2.0
Ba4Ta10NiO30,0.0,-3.322408681851852,mp-1228660,1,0.0
Li4Mn3NbFe2(PO4)6,0.5375999999999991,-2.50908834937459,mp-1177427,1,0.0
SmEuNbVO6,0.0,-3.040261787000001,mp-1522475,1,0.0
MnCo9O10,0.0,-1.234116752896551,mp-1176471,1,0.0
Rb2TlCoF6,2.0341,-2.473937786833334,mp-1113650,1,3.0
TiMn2Fe3(PO4)6,0.0,-2.511822717418125,mp-775993,1,0.0
Mn2Sb2O7,0.3025,-1.963357117351097,mp-541741,1,0.0
Li3Ti2Co3O10,0.4918,-2.177655187037037,mp-753046,1,0.0
V3Fe2CuO12,0.419699999999999,-1.914760766388889,mp-773088,1,0.0
Ba2PuMnO6,0.0,-2.969255502668103,mp-1205598,1,0.0
V2O3F2,0.0,-2.648090453571428,mp-761129,1,0.0
SrSmDyMnO6,2.277699999999999,-3.012987572459771,mp-1523010,1,3.0
Mn11Fe(PO4)12,0.438799999999999,-2.426654255596607,mp-849792,1,0.0
BaLa2Fe2O5F4,0.4773,-3.181126293928571,mp-1228011,1,0.0
BaSr7Fe6(CoO12)2,0.0,-2.143135069999999,mp-1099936,1,0.0
NaSrSnWO6,0.0,-2.28161892963793,mp-1521207,1,0.0
Sr5V3BrO12,3.7925,-3.021515788809523,mp-1195674,1,5.0
VBi(PbO3)2,2.7092,-1.916262451625,mp-640883,1,4.0
NaLaZrFeO6,0.0,-2.721391759637932,mp-1520308,1,0.0
MgMn2Tl2O6,0.7963999999999991,-1.785891277048069,mp-2217599,1,1.0
SmCr2O2,0.0,-1.0209973845,mp-1209164,1,0.0
La2Ti3CoO10,1.447,-3.368034806250001,mp-1223091,1,2.0
Ni5B2SbO10,0.0,-1.718305267129629,mp-1209850,1,0.0
MgTi2Tl2W2(O5F)2,1.3569,-2.494548063596492,mp-2230484,1,2.0
LiVBO4,2.5634,-2.600926649285714,mp-756511,1,3.0
EuMgSnWO6,0.232599999999999,-2.479769923500001,mp-1516717,1,0.0
PrCu(WO4)2,1.470899999999999,-2.354457971805556,mp-1209632,1,2.0
CrCu(PO4)2,0.0,-2.207990337440476,mp-867746,1,0.0
LiFeSbO4,1.3545,-1.9518820651190472,mp-774920,1,2.0
Li3TiCr3O8,2.3617,-2.592767026222222,mp-754193,1,3.0
Fe2P3C8N3(ClO2)4,2.3718,-0.694265047461734,mp-705041,1,3.0
Na2FeCSO7,3.6176999999999992,-1.9960400650215504,mp-771138,1,5.0
KMg3V3CuO12,0.8707,-2.4945249893624992,mp-1211434,1,1.0
NaMn2Si3BH2O11,0.0,-2.610445503945401,mp-1197081,1,0.0
K2MnAgF6,0.0,-2.5918495084097692,mp-1112281,1,0.0
GdTl(MoO4)2,2.9359,-2.362179484652779,mp-1212617,1,4.0
Li3Mn4VO8,0.0,-2.159086771357758,mp-770661,1,0.0
LaCrSnO6,0.312199999999999,-2.287562054444444,mp-1040852,1,0.0
Rb2NiH12(SeO7)2,3.665899999999999,-1.401544077086693,mp-24755,1,5.0
CsIn(MoO4)2,3.688599999999999,-2.067613580943487,mp-1213321,1,5.0
MgV3O6,1.003299999999999,-2.554332589500001,mp-2217203,1,1.0
MnH8C4(NO3)2,3.325599999999999,-1.018191682996717,mp-1195584,1,4.0
Ba3Tb2WO9,2.3808,-3.259709961222221,mp-1228418,1,3.0
NiH12(C2O5)2,0.3661,-0.7400009322222221,mp-1180155,1,0.0
Rb2LiFeF6,3.7234,-2.959949142833333,mp-22663,1,5.0
Rb4Mg(WO4)2,0.792899999999999,-1.946376009666666,mp-2232450,1,1.0
MnBiPO5,2.779,-2.348529656259237,mp-560153,1,4.0
Na2CrF4,1.1081,-2.903762755394088,mp-558383,1,1.0
CoP2H15N5O8,0.8032,-0.7493906080011531,mp-1182407,1,1.0
CaLaCr2O6,0.744899999999999,-2.905918001,mp-1048852,1,1.0
LaPrMn2O6,0.0,-2.9687474292528733,mp-1222975,1,0.0
KMnH4Cl3O2,4.1752,-1.581524176607366,mp-743617,1,6.0
Ti12Mn5(PO4)18,0.0,-2.945387920030155,mp-1217628,1,0.0
ZnCrAs2O7,0.6120999999999991,-1.773259136590908,mp-1042787,1,0.0
Ca2Mn2V3AgO12,2.0088,-2.478970691126436,mp-532537,1,3.0
MnCo5O12,0.0,-1.173885970440612,mp-755620,1,0.0
Li8Mn7Sb(PO4)12,0.0,-2.484361635498661,mp-1176842,1,0.0
Zn(Fe2O3)4,0.363699999999999,-1.62710895515873,mp-1100888,1,0.0
Na2CrPCO7,1.6749,-2.393824489575121,mp-769616,1,2.0
Te6Mo(OF5)6,2.7227,-2.232079582790698,mp-540984,1,4.0
CsCoF4,0.3388,-2.442887959609196,mp-1202342,1,0.0
NiMoO4,0.0,-1.7472281991666672,mp-505273,1,0.0
Ca(WO2)2,1.5984,-2.070880982857141,mp-1042163,1,2.0
Li6V(SiO4)2,1.8226,-2.6131421076470582,mp-765250,1,2.0
Na2FeBPO7,0.5201,-2.314007649714012,mp-756481,1,0.0
MgNiBiO5,0.7227,-1.5385012590625,mp-1044415,1,1.0
Li3MgNiO4,1.3094,-1.964559521805556,mp-776409,1,1.0
MnTe(PbO3)2,1.0191,-1.64501356345977,mp-1221598,1,1.0
LiCo2(PO4)2,0.6804,-2.245308665393773,mp-766523,1,1.0
Ba2ErMoO6,0.0,-3.056483002,mp-1205628,1,0.0
Li3AlCoO4,1.9572,-2.272821155555556,mp-771900,1,2.0
Ti3Mn3(SnO8)2,1.204,-2.4185966859913792,mp-776644,1,1.0
Na3Fe(SO5)3,0.4824,-1.45464912037748,mp-1202597,1,0.0
V3(OF)4,0.6841,-2.658268441818182,mp-760115,1,1.0
Li3Cr3CoO8,1.0004,-2.155946822,mp-759061,1,1.0
MoF6,4.1687,-2.636013854642857,mp-557259,1,6.0
KPrGdFeO6,0.0783,-2.441419959891666,mp-1521264,1,0.0
MgMn4(CuO4)2,0.0,-1.8039643791149431,mp-2228757,1,0.0
Tl2NiP4(HO2)8,4.8709,-1.946226195975422,mp-1203479,1,7.0
WO3,1.358499999999999,-2.190860606562499,mp-2383161,1,2.0
Li4NbCr5O12,0.9781999999999992,-2.436006451515151,mp-756524,1,1.0
LiMn2(B4O7)2,0.1751,-2.521446487701149,mp-1235124,1,0.0
V(ClO2)3,0.0,-0.446098006,mp-1178868,1,0.0
Li4Co3Ni3(TeO8)2,0.0,-1.571733301309523,mp-757279,1,0.0
K2Na2Mo(WO4)3,0.0,-2.15282484336293,mp-1099821,1,0.0
Li2Fe2(PO4)3,0.001899999999999,-2.402089132794486,mp-849334,1,0.0
CsMg30FeO32,2.029499999999999,-2.836254311088362,mp-1037605,1,3.0
Na6MnNi3(SbO6)2,1.466,-1.840837573175286,mp-1094109,1,2.0
Cr(PO4)2,0.3393,-2.103953685389611,mp-697815,1,0.0
Na2Zn11(MoO4)12,3.3150999999999993,-1.9360232446953232,mp-1221398,1,4.0
TiCr(PO4)3,0.0,-2.609129194838936,mp-1044382,1,0.0
LiV3(OF2)4,1.839,-2.640922733958334,mp-752988,1,2.0
Li4V2Cr3Sb3O16,0.6353,-2.19466843297619,mp-774622,1,0.0
NiAuO2,0.0,-0.8277594062500001,mp-997095,1,0.0
LiNiPHO5,0.006199999999999,-1.9895928360251312,mp-754131,1,0.0
Sr2Al4Fe3P4(H2O13)2,0.004199999999999,-2.490435855199335,mp-1209043,1,0.0
Na3MgVH6O7,1.5443,-1.682204822313218,mp-2228859,1,2.0
ZnNiSnP2O9,2.748199999999999,-2.227347512984694,mp-1043346,1,4.0
FePO4F,0.0,-2.186657573520409,mp-25382,1,0.0
CaMn2F10,1.7105,-2.854816824297083,mp-1412254,1,2.0
Li5Ni5(SnO6)2,0.1107,-1.75303883111111,mp-772998,1,0.0
BaCaMn4O12,0.0,-1.68143833954023,mp-1522423,1,0.0
SrPr3(FeO3)4,0.0,-2.628860465749999,mp-1218104,1,0.0
Sr2Ca2NdMn5O15,0.0,-2.581082921286207,mp-1219128,1,0.0
Mg3Cr2(Si2O7)2,2.4641,-2.943170073695651,mp-1266557,1,3.0
Mn2Sb3I3O5,2.017899999999999,-1.537437366604774,mp-1192820,1,3.0
K2CoHgF6,0.0,-2.267127319700001,mp-1112236,1,0.0
AlFe3(SO7)6,0.022,-0.498193270384616,mp-1215165,1,0.0
Sr2MnCuSO3,0.0,-2.214889160053879,mp-20239,1,0.0
Na2Co7H16(CO2)16,2.6442,-1.272943727846008,mp-1203292,1,3.0
Li14Mn5F24,3.5262,-3.022541639681903,mp-764848,1,5.0
ZrMo2O11,0.0812,-1.536238509642856,mp-1204294,1,0.0
CaEu(NiO3)4,0.0,-0.900421255277778,mp-1516746,1,0.0
KSr2Nb4FeO15,0.0,-2.768477517489131,mp-1223530,1,0.0
Rb3VF6,0.0,-3.04110724524999,mp-1113821,1,0.0
TlNiO3,0.0,-0.964600118166667,mp-18001,1,0.0
K2MgFe4O7,1.2704,-1.538321791749999,mp-2228468,1,1.0
Cr12Fe7O48,0.0098,-1.507687975373134,mp-1178459,1,0.0
Ca3V3(NiO6)2,0.0,-2.5659588368749993,mp-1214162,1,0.0
Li6FeSn3(PO4)6,2.420699999999999,-2.483800107571427,mp-1176997,1,3.0
K3Mn2O8,0.126399999999999,-1.599039684431697,mp-1194415,1,0.0
KAl2NiP3O14,0.023999999999999,-2.37348578910374,mp-1211858,1,0.0
Li8Mn2O7,0.960299999999999,-2.001510569119337,mp-770513,1,1.0
Mn3Ga4P6(H2O5)6,3.5464,-2.134145235211822,mp-758167,1,5.0
YMg6VO8,0.121999999999999,-2.809845561875,mp-1032755,1,0.0
Na6Co3B9P6H3O38,0.1923,-2.378758393882815,mp-1204177,1,0.0
LaMgCrSbO6,0.0,-2.477888207499999,mp-1044947,1,0.0
LiCo2O2F3,0.0,-1.906678995416667,mp-755433,1,0.0
Nd2Mo4O15,2.5839,-2.499877768253968,mp-16678,1,3.0
Y4V6O21,0.195799999999999,-2.783108557419354,mp-1324086,1,0.0
MnPH2O5,2.4307,-2.087878301397099,mp-23895,1,3.0
VPNO6,0.2687,-1.686290357876983,mp-1196520,1,0.0
K6MgV2(SO3)2,1.4296,-1.951934970205882,mp-2229785,1,2.0
Li3FeNi3O8,0.0,-1.468135599333333,mp-753275,1,0.0
MgCr2(HgO4)2,0.1491,-1.44030541923077,mp-2218914,1,0.0
K3Mn4P5H3O20,0.8538000000000001,-2.43414055929824,mp-1224486,1,1.0
Li4Mn(Ni2O5)2,0.0,-1.546402325856019,mp-758663,1,0.0
Li2Co2NiO6,0.0,-1.423847032424242,mp-754376,1,0.0
Li2MnFe3O8,0.0,-1.8183514267569791,mp-773804,1,0.0
CrP2H13(NO5)2,3.625,-1.521250431626276,mp-698227,1,5.0
Li3Mn(SbO3)4,0.0,-2.012358247396553,mp-757166,1,0.0
K3V5O14,2.2837,-2.402736184170454,mp-27704,1,3.0
Li2FeCoO4,0.844399999999999,-1.770816632083334,mp-753409,1,1.0
Li6FeCo3(PO4)6,0.8137999999999991,-2.303501184946429,mp-768625,1,1.0
TlFeO2,1.5549,-1.220559035833335,mp-607310,1,2.0
NaNd(WO4)2,4.1887,-2.591754704906609,mp-1220977,1,6.0
V2Cu3NiO6,0.5053999999999991,-1.6212210912499991,mp-1275560,1,0.0
Li4TiMn3Cr2(PO4)6,1.1419,-2.603736668707923,mp-778261,1,1.0
Mn4ZnO9,0.0,-1.44452850226601,mp-1047863,1,0.0
Co2PClO4,2.6302000000000003,-1.959027435892856,mp-622183,1,3.0
MgCrTe(WO6)2,0.579499999999999,-1.99575536362745,mp-2228921,1,0.0
MgFe(SiO3)2,3.804599999999999,-2.909882640625,mp-558339,1,5.0
MgCr4O10,0.0116,-1.857994751666667,mp-2227663,1,0.0
NiH32C8S4(NO5)2,3.233599999999999,-0.643377926315789,mp-554559,1,4.0
Cr3(CuO6)2,0.1179,-1.285158879852941,mp-764630,1,0.0
Er2FeSbO7,1.5915,-2.879694602272727,mp-1225637,1,2.0
CeVO3,0.0,-3.225797496499999,mp-18769,1,0.0
Zr12Ti4Ni8O,0.0,0.229515943666665,mp-1215809,1,0.0
KTb(FeO3)4,0.0,-1.397983701328703,mp-1522788,1,0.0
Li4Cr5Fe3O16,0.0,-2.030241009047619,mp-773204,1,0.0
Sr2HfWO6,0.0,-3.117664536,mp-1523371,1,0.0
YCr(BO3)2,3.2276,-3.062510550833333,mp-1232521,1,4.0
MgCr3O7,0.0,-2.01754639590909,mp-1044315,1,0.0
KCaEuFeO6,0.0,-2.012089856225,mp-1519702,1,0.0
CaMnB2O5,3.3848000000000003,-2.880527788890484,mp-555385,1,5.0
GdCrGeO5,2.412499999999999,-2.815770610937499,mp-1212488,1,3.0
MgFe4O9,0.0,-1.347309048571427,mp-1048047,1,0.0
Ti3Mn2Sb(PO4)6,0.036699999999999,-2.775856005381089,mp-776000,1,0.0
Li3Fe4(OF3)3,1.9674,-2.498645742631579,mp-754277,1,2.0
Bi2W3(CO)15,2.0228,-0.6967940484285721,mp-705040,1,3.0
NiC14S2N2O3,0.4472,0.6604121790909081,mp-1201562,1,0.0
ThV2SeO9,2.3117,-2.56012745671875,mp-1202658,1,3.0
Cr(NO2)2,0.5829,-0.392713444999999,mp-1181843,1,0.0
Li3CrSiBO7,1.218,-2.579653332243589,mp-773206,1,1.0
Li2NiH8(CO5)2,4.422000000000001,-1.561618557681159,mp-771916,1,6.0
Li10Mn2Fe3Co3O16,0.774899999999999,-1.8355468723292772,mp-777350,1,1.0
BaSr4(FeO3)5,0.0,-2.204770580600001,mp-1227739,1,0.0
Ni3SnH12(OF)6,0.7037000000000001,-1.318801939642857,mp-1213529,1,1.0
Nd4CuNiO8,0.0,-2.906284151428572,mp-1220220,1,0.0
As2W2O11,3.336,-1.864841947499998,mp-504532,1,5.0
NaMoO2,2.380499999999999,-1.888169442844827,mp-578610,1,3.0
Li3Cr10Fe5O24,1.4117,-2.170312636428571,mp-771093,1,2.0