formula,bg,formation_energy,mp-id,fidelity,bg_category
Li4Mn2Cu3O10,0.0,-1.622025959431337,mp-849495,1,0.0
KRb2VF6,0.0,-3.152215331225002,mp-557411,1,0.0
LiLa4MnO8,1.322699999999999,-3.345879896697456,mp-770950,1,1.0
LiLa4Ni3WO12,0.9354,-2.493662905873017,mp-1235780,1,1.0
MnZn2SiO6,0.0746,-2.179490987793103,mp-1180274,1,0.0
K3NiF6,0.0,-2.572764307175,mp-1111140,1,0.0
Mn2Fe5Si8(HO12)2,2.8509,-2.514432849472246,mp-1211939,1,4.0
LiP4WO13,2.5984,-2.522353976942355,mp-758454,1,3.0
Ca3Al4CoO10,2.637299999999999,-3.1994160720833342,mp-1199096,1,3.0
Zn2SbMoO6,0.0,-1.733625557500001,mp-1370720,1,0.0
CaPr(CoO3)2,0.0,-2.231611039166665,mp-1044741,1,0.0
BaYCuWO5,0.0,-2.343405843888888,mp-1042479,1,0.0
CaW2O7,4.2755,-2.297822475499998,mp-1042313,1,6.0
YAg(WO4)2,3.157599999999999,-2.364985081388889,mp-1207659,1,4.0
K2VH2OF5,0.2351,-2.674125571545454,mp-23839,1,0.0
V4Cd3(PO4)6,2.0024,-2.54380585480695,mp-1216514,1,3.0
Li5CoHO4,2.4322,-1.804708912310605,mp-777549,1,3.0
Li4V2Fe3Sb3O16,0.5433,-1.962630304404761,mp-777892,1,0.0
MgCoNi2O7,0.0393,-0.7486228787499991,mp-1335345,1,0.0
LiCrCO3F2,2.8318000000000003,-2.381571529791667,mp-766487,1,4.0
LiTb(WO4)2,3.7750999999999992,-2.659734967499999,mp-1211005,1,5.0
Ni5H2Se6(ClO4)4,3.0001,-1.24067005247159,mp-1195170,1,4.0
Te15Mo2(Cl6O)2,0.132299999999999,-0.708994623548387,mp-1217517,1,0.0
Li6Cr3Ni(PO4)6,0.3312,-2.540821539446429,mp-757295,1,0.0
K2TlNiF6,0.0,-2.469518316783334,mp-1111264,1,0.0
V(Si2O5)2,2.4305,-2.9523608958333343,mp-1043652,1,3.0
Mn8O13F3,0.0,-1.974501318477013,mp-776594,1,0.0
Tl3Co3O8,0.0,-1.111024096428572,mp-772043,1,0.0
Fe4As3O23,0.0,-0.5252309632499981,mp-1193500,1,0.0
LiCr2O3,1.6572,-2.187620916388888,mp-1272833,1,2.0
Li2VF7,1.7343000000000002,-2.945864939416667,mp-759125,1,2.0
MgAl2(CoO3)2,2.4641,-2.463928974090909,mp-2218061,1,3.0
Mg2Ta2CoO8,2.2862,-2.95876374824359,mp-1046092,1,3.0
Cr2Fe3Ni(PO4)6,0.0,-2.308824654940477,mp-776011,1,0.0
Li4Mn2(PO4)3,0.254799999999999,-2.597144554910666,mp-772945,1,0.0
GdCrO5,0.133,-2.295425780357143,mp-1198487,1,0.0
Ca2Fe3Sb(PO4)6,2.1868,-2.593674678829364,mp-695492,1,3.0
Li3V2(FeO4)2,0.9679999999999992,-2.151691066666666,mp-763659,1,1.0
Ge2(WO3)9,0.0,-2.0719914075,mp-766380,1,0.0
Rb2Na4Co2O5,1.3561,-1.435745639270557,mp-18151,1,2.0
Mn5Cu(PO4)4,0.139999999999999,-2.421552915316408,mp-1222156,1,0.0
LiCoH24C8(N2O3)4,2.7276,-0.457698086172839,mp-562139,1,4.0
Sr2V3O9,1.7738,-2.816274826071431,mp-1218556,1,2.0
KV3Cu5O13,0.0,-1.674848186238636,mp-563041,1,0.0
CaCoAs2O7,2.2492,-2.044447314318182,mp-1042739,1,3.0
Ba2YMgMn2TlO7,0.0,-2.403855598513957,mp-2228455,1,0.0
Li3Ti3CrO8,0.0,-2.896799700666667,mp-755762,1,0.0
YMoClO4,2.7874,-2.669297855,mp-560118,1,4.0
SrMn7O12,0.0,-2.133550639775863,mp-1105343,1,0.0
AlCrO4,0.0,-2.385538456666667,mp-753658,1,0.0
KIn(MoO4)2,3.6425,-2.060741107409723,mp-650228,1,5.0
BaDyFe2O5,0.0,-2.563711889074074,mp-24971,1,0.0
Sr4LaCrFe4O15,0.0,-2.4180615592,mp-1218634,1,0.0
LiV3O5F3,1.1332,-2.6895950465277783,mp-758438,1,1.0
SrMoO4,3.8445,-2.664873142499999,mp-18834,1,5.0
Li4V(TeO4)3,1.4009,-1.935813571416666,mp-1566890,1,2.0
CsV2SbO8,2.7044,-2.250436025179598,mp-1196047,1,4.0
NaFe11O17,1.263299999999999,-1.610168881254459,mp-1101699,1,1.0
Y2Mn3(SiO4)3,3.0614,-3.012546228814654,mp-1154524,1,4.0
La2TiMnO6,2.213199999999999,-3.465758080876438,mp-1223138,1,3.0
MnZn(FeO2)4,1.083899999999999,-1.753611730566502,mp-1221602,1,1.0
RbVPO5,3.0085,-2.648178462142857,mp-561349,1,4.0
Li4Cr2P4H3O16,0.9278999999999992,-2.4291759246777502,mp-756092,1,1.0
W(NF2)3,2.6271,-0.4013326565,mp-1207764,1,3.0
Rb8Mn5O10,0.8041,-1.690023302811094,mp-1196651,1,1.0
Li4Fe3Sb5O16,1.140299999999999,-1.907171385833332,mp-769870,1,1.0
Mn2Si2Pb2O9,1.3527,-2.292640229390805,mp-557611,1,2.0
V(SeO3)2,2.051,-1.617126915243063,mp-557295,1,3.0
Li2Co4O3F8,0.138399999999999,-2.045586827156863,mp-755735,1,0.0
Mg2Nb2WO8,0.3563,-2.693539959615385,mp-1046764,1,0.0
Fe2(MoO4)3,2.6649000000000003,-1.897518330441178,mp-21925,1,4.0
Li4Mn3Nb2Fe3O16,0.7841,-2.2705079813259452,mp-770941,1,1.0
Na11Mn13O32,0.0,-1.861939444969211,mp-760843,1,0.0
Li2MnBAsO7,0.984499999999999,-2.132378634688697,mp-772182,1,1.0
Li10Mn21O48,0.0,-1.891214795694748,mp-530628,1,0.0
V2Ni2PbO8,2.8852,-1.9419661321153852,mp-1207918,1,4.0
K2AlMo3(P2O7)4,0.1513,-2.639094745991497,mp-1223985,1,0.0
CsVOF3,2.7058,-2.975021502859196,mp-557931,1,4.0
V2OF4,1.8429,-2.958384173571429,mp-760069,1,2.0
LiCoSbO4,1.358699999999999,-1.893827387976191,mp-773085,1,2.0
Cs2Cu3NiF10,0.6046,-2.209980202285152,mp-1226365,1,0.0
Na2Ca2Zr2MnFeSi4O17F,1.7381000000000002,-3.126095836689654,mp-1221915,1,2.0
Li3V4(PO4)6,0.6562,-2.665296253455599,mp-766125,1,0.0
Sm7V(Se2O)4,1.4652,-2.623430655437499,mp-557063,1,2.0
YMo2O7F,3.1033,-2.610687678636363,mp-1190839,1,4.0
BaMnP(O2F)2,0.9484,-3.03700868361932,mp-1195656,1,1.0
Ni3BO5,0.0,-1.646923544351854,mp-1210020,1,0.0
CaEuDyVO6,9.999999999976696e-05,-3.089918915666667,mp-1520954,1,0.0
CsLiWO4,4.4294,-2.321442898998358,mp-1178391,1,6.0
Na8NiO6,0.0,-1.370119996068965,mp-849670,1,0.0
CrFe(BiO3)2,0.0,-1.823415379,mp-551086,1,0.0
Nb2Zn2CrO8,1.0557,-2.480852163461539,mp-1046856,1,1.0
LiMg6MnO8,1.5316,-2.794178793204023,mp-1032403,1,2.0
LiNi(PO3)4,0.0,-2.389440339828042,mp-26141,1,0.0
Tb2AlFeO6,2.4911,-3.278761241833332,mp-1217718,1,3.0
Cs2FeOF5,0.0,-2.311418956590039,mp-1189477,1,0.0
V2CuH6(NO3)2,0.6950000000000001,-1.314490267205881,mp-729018,1,1.0
Rb2TiFe(PO4)3,2.419,-2.576175425250626,mp-532655,1,3.0
La7SmMn5Fe3O20,0.4192,-2.854002445407088,mp-1099861,1,0.0
Li2Cr3P4(HO4)4,2.848199999999999,-2.290420843973727,mp-774386,1,4.0
MgTeWO6,0.0,-2.109451957962962,mp-2223111,1,0.0
BaLaFe2Cu2O11,0.0,-1.437402303529412,mp-705604,1,0.0
KCaCoC6(S3O5)2,0.0,-0.7518040902899991,mp-1197796,1,0.0
Sr3MgV2O8,1.604099999999999,-2.842817693214286,mp-2242152,1,2.0
MgFe2(HO2)2,1.5481,-1.651649034166665,mp-2217204,1,2.0
SrCa7FeCo7O24,0.0,-1.957545853249999,mp-1076861,1,0.0
Li5Ti2Ni5O12,0.074399999999999,-2.11622174888889,mp-770539,1,0.0
Mn3P3PbO12,0.8563000000000001,-2.48736967330114,mp-1202942,1,1.0
KMg30FeO32,2.6424000000000003,-2.9106521905820313,mp-1037604,1,3.0
Ba2NbVO6,0.0,-3.119411723,mp-1078969,1,0.0
SrV5NiO11,0.1852,-2.387491132222224,mp-1208754,1,0.0
Li6MnFe3(PO4)6,1.1904,-2.474911483394703,mp-771062,1,1.0
MnFe3Sb2(PO4)6,0.0,-2.311761579883005,mp-1176436,1,0.0
Li2V2P7HO24,1.5311,-2.464040349872685,mp-778184,1,2.0
Na5NiHO4,1.494299999999999,-1.409635776422413,mp-759009,1,2.0
NaLiMo(H2O3)2,4.5497,-1.76901490959328,mp-504845,1,6.0
NaSrEuMnO6,0.0,-2.118581172431036,mp-1517725,1,0.0
RbSm(MoO4)2,3.6776,-2.5380126908333343,mp-1209294,1,5.0
W2(CO)3,0.0,0.104770357499999,mp-1216282,1,0.0
Ba8Re2(WO8)3,0.0,-2.716439769054055,mp-581446,1,0.0
MnFeCo(PO4)3,0.6409,-2.265005688158867,mp-1176492,1,0.0
Ba5SrLa2Fe4O15,2.431199999999999,-2.727748692407406,mp-1228552,1,3.0
HoFeO3,1.5675,-2.855059119499998,mp-19785,1,2.0
Li4Mn3V3(CuO8)2,0.0,-2.009036653111658,mp-1177424,1,0.0
MgFe3(OF)3,1.8725,-2.268949763499999,mp-2217159,1,2.0
KLaV4O12,0.4331,-2.54040844401389,mp-1522036,1,0.0
SrEuNbWO6,0.0,-2.8453503705000003,mp-1518537,1,0.0
NiP4O11,5.039099999999999,-2.425757827410713,mp-28957,1,7.0
MnP(HO)7,3.984499999999999,-1.7148226964108682,mp-1182381,1,5.0
Ba2V2ZnCuF14,0.478699999999999,-3.205613428249999,mp-1379905,1,0.0
Cs2TlCrF6,4.1533,-2.890992305264368,mp-1112495,1,6.0
Li5Mn(Ni2O5)2,0.0,-1.6582211182298852,mp-850209,1,0.0
Li4Mn3NiO8,0.219599999999999,-2.023593851070402,mp-760206,1,0.0
BaNdMgCo2O5,0.0,-2.142679818750001,mp-2242118,1,0.0
KV3(SeO6)2,2.3366,-1.9756358092743052,mp-541520,1,3.0
Ca5V3O12F,3.8686,-3.121802199285714,mp-556759,1,5.0
Li4Mn5Cu3O16,0.0,-1.695254821892445,mp-752865,1,0.0
Ag6Mo10O33,1.8778,-1.626707688265305,mp-1205440,1,2.0
Na5Mn7O15,0.4331,-1.8861584654597692,mp-1247933,1,0.0
Mo3C7Br3NCl3O7,0.3186,-0.478368330208333,mp-1181015,1,0.0
MgCoMo2O7,0.8744000000000001,-1.927018621818181,mp-1042604,1,1.0
NaMo6O17,0.5921999999999991,-1.9853730473491231,mp-1210358,1,0.0
Li4Fe3P3O12F,3.586899999999999,-2.478303889011386,mp-759070,1,5.0
BaMg30FeO32,2.6279,-2.90616250328125,mp-1037485,1,3.0
Li4Zr8V3(P3O16)3,3.1339,-3.093563358126653,mp-1223569,1,4.0
La16Mn15O48,0.0,-2.994838509480577,mp-863425,1,0.0
SrMgVO3,0.0,-2.238114885,mp-2227408,1,0.0
BaAlCuNiO5,0.0,-1.818531000555555,mp-1042478,1,0.0
Mn3V2(SiO4)3,0.0,-2.664848467564655,mp-14046,1,0.0
Na4NiH38(W3O20)2,3.8222,-1.566037135651878,mp-1202939,1,5.0
Ba6Y3Co3(Cu3O11)2,0.0,-2.19577363675,mp-1228789,1,0.0
Sr5Ca3Mn6(FeO10)2,0.0,-2.493927719655174,mp-1076601,1,0.0
Mg2Ta2CrO8,1.7933,-3.063837166897436,mp-1663786,1,2.0
CaHoCr2O6,0.0,-2.9045832195,mp-1041195,1,0.0
BaCrF6,0.0,-3.31118269,mp-559246,1,0.0
Li(WO3)2,0.0,-2.19092567537037,mp-756203,1,0.0
Li4VCr(TeO6)2,0.8382000000000001,-2.017524436833334,mp-754916,1,1.0
CaLaMnCrO6,0.0,-2.855768193293104,mp-1049271,1,0.0
MgCr2(PO5)2,0.391299999999999,-2.487343506285715,mp-2232665,1,0.0
Rb2TiCr2(MoO4)6,2.5925,-2.213162129095238,mp-1219915,1,3.0
Sr4LiMn2Ga2O11,0.0,-2.48675303195977,mp-1235278,1,0.0
Li4Ti3V3(CuO8)2,0.2742,-2.523532372619047,mp-776176,1,0.0
Y2MgV2O7,1.429999999999999,-3.053985510833333,mp-2218245,1,2.0
MgZn2(MoO3)4,0.9895,-1.9804297134210511,mp-2230322,1,1.0
LiMnGaF6,3.7821,-3.030762117270114,mp-504460,1,5.0
MgNi2(MoO4)2,1.168199999999999,-1.749762787307692,mp-2218442,1,1.0
Li4Mn3Ni3(SnO8)2,0.019299999999999,-1.840273673825944,mp-774587,1,0.0
GdY(WO4)3,3.2727,-2.723052532647059,mp-1224627,1,4.0
PrCoO3,0.0,-2.497417969333276,mp-20090,1,0.0
Fe2Co3H4(Se3O10)2,1.746,-1.343779091973214,mp-1212758,1,2.0
Li2Mn4O5F3,0.349499999999999,-2.3755909984564862,mp-754142,1,0.0
Li8Co3NiO8,1.9892,-1.677025192333333,mp-761167,1,2.0
KSrSmMnO6,0.0,-2.356213903018104,mp-1520878,1,0.0
Ba2MgMn3Tl2Zn2O10,0.0,-1.882421559772989,mp-2230022,1,0.0
LiCr3O9,1.351,-1.696574826153846,mp-770652,1,2.0
Li5Mn3V2O10,0.8298999999999991,-2.294880365772989,mp-756863,1,1.0
Li6Ti3Fe(PO4)6,0.051499999999999,-2.789461677446428,mp-1176962,1,0.0
Cr2FeNO10,0.0,-0.478001719642857,mp-1213831,1,0.0
Nd20Mn19O60,0.0,-2.9542413005120163,mp-1173614,1,0.0
VCo3AsO8,0.0,-1.7222744809615371,mp-1216438,1,0.0
Ni3H6SO3,0.9577,-0.248330453846153,mp-1237012,1,1.0
Ca3Cr2(SiO4)3,3.247699999999999,-3.191363566999984,mp-6414,1,4.0
LiCr(FeO2)4,0.0121,-1.8364597530952371,mp-1222585,1,0.0
Li2Mn3CrO8,0.7263000000000001,-2.143387065925697,mp-775679,1,1.0
RbFeF3,0.0,-2.4904115045,mp-554465,1,0.0
Cr7FeO12,0.286899999999999,-1.9033627327499991,mp-1245071,1,0.0
CaLa2Fe2(TeO6)2,2.0811,-2.350726343333334,mp-1233928,1,3.0
Na3Li5Mn5O9,0.7238000000000001,-1.857580590248171,mp-765725,1,1.0
LiNi6P7O24,4.0414,-2.278997002127193,mp-504371,1,6.0
LiMnSi3O8,1.487699999999999,-2.856851485097259,mp-757876,1,2.0
SiMoO3,0.0,-1.674858800999999,mp-1186997,1,0.0
Sr2V2Se3O13,2.603799999999999,-2.162619035601563,mp-1199170,1,3.0
Li8Mn7Ni(PO4)12,0.0,-2.4323805682618183,mp-776162,1,0.0
NiAsO3,0.0,-0.5246274505,mp-976763,1,0.0
MgZn(NiO2)4,0.427099999999999,-1.320530480357142,mp-2228001,1,0.0
Li3Mn2F9,2.0503,-2.896742682204434,mp-754135,1,3.0
Nd(Mo4O7)2,0.0,-1.857436213586957,mp-28631,1,0.0
Co5Te4(ClO6)2,2.3649,-1.400075675724637,mp-561564,1,3.0
MgFe3Pb4ClO8,0.0,-1.439046680294117,mp-2228968,1,0.0
Li4Fe(BO3)2,3.9646999999999992,-2.43625138724359,mp-1650315,1,5.0
V4NO10,1.3364,-1.752712464999999,mp-1207886,1,2.0
CsNi2F6,0.0,-2.380659328333334,mp-647818,1,0.0
LiV(CuO3)2,0.0,-1.521713995333333,mp-1201317,1,0.0
LaMgFeO3,0.0,-2.147356122500001,mp-2226544,1,0.0
Li2TiMn2NiO8,0.7694000000000001,-2.260828330418719,mp-1222732,1,1.0
Ba2YTlFe2O7,0.0,-2.304899101410257,mp-1046351,1,0.0
Ba2MgCoMoO6,1.6445,-2.342117921363636,mp-2222775,1,2.0
Li2CoCSO7,2.5176,-1.980365150555556,mp-771972,1,3.0
Ca2AlCrO5,2.4178,-3.121868097222222,mp-1261316,1,3.0
K3NdV2O8,3.6565,-2.700558495660715,mp-16799,1,5.0
VFeMoO7,2.0434,-2.0215053575,mp-19180,1,3.0
La6MgWO12,2.752300000000001,-3.494618953249999,mp-2230066,1,4.0
LiV2Zn2(SiO5)2,1.3528,-2.543195657254902,mp-1235640,1,2.0
UCr(HO3)2,1.8085,-1.538246307749999,mp-1208618,1,2.0
KCr(SO10)2,0.0,-0.638022873010416,mp-1212822,1,0.0
K7Rb5(Fe2O5)2,1.3489,-1.462294593009615,mp-1223738,1,2.0
MgCo3P3O13,0.3042,-2.152406542696428,mp-1047887,1,0.0
Ba2V3O7,0.0,-2.406455527916666,mp-1393209,1,0.0
MgFeBiO3,0.0,-1.542377415,mp-2225597,1,0.0
KLaZrCrO6,0.0,-2.930011246225,mp-1517088,1,0.0
Mn2Hg(CO)10,2.6828000000000003,-0.768692667102699,mp-836207,1,4.0
La9Mn10O30,0.0,-2.892592470292049,mp-758449,1,0.0
Ca3La5Mn7NiO24,0.0,-2.7845240330129313,mp-39207,1,0.0
TiMn2O4,1.387999999999999,-2.67569474631363,mp-540763,1,2.0
LiVPH4O7,2.559999999999999,-2.035024844141156,mp-1203841,1,3.0
Ce3MoO7,0.0,-3.398195299545453,mp-639904,1,0.0
K4Th(MoO4)4,4.0216,-2.429724222360001,mp-555417,1,6.0
K2VO6,0.0233,-1.32783754925,mp-1201198,1,0.0
BaYCo4O7,0.7462000000000001,-2.052164372307691,mp-1194048,1,1.0
Bi2MoO6,2.129299999999999,-1.857507857499999,mp-23064,1,3.0
Li4Nb3V2Ni3O16,0.3624,-2.355932552261904,mp-1177484,1,0.0
MoH6NO3F2,2.7809,-1.444730550961538,mp-728891,1,4.0
CaFe3P3O13,0.717299999999999,-2.501463665696429,mp-560784,1,1.0
Nd2V2H2Se4O17,2.2434,-2.067293578032407,mp-1200480,1,3.0
MgCo2(SbO3)4,0.2881,-1.742929013947368,mp-2230991,1,0.0
BaSrMn4O12,0.0,-1.667678686206896,mp-1521375,1,0.0
RbMg14WO16,3.3325,-2.650884400859375,mp-1034167,1,5.0
Sr4Ca4Mn5Fe3O20,0.0,-2.466675892907087,mp-1076190,1,0.0
Li4CrFe(WO6)2,0.7280999999999991,-2.110001612666666,mp-754685,1,1.0
SrCa7Ti2Mn6O24,0.347199999999999,-2.748694946981321,mp-1247687,1,0.0
Ti2In3FeO10,1.559499999999999,-2.493317806354166,mp-1217450,1,2.0
CoSO8,0.0501,-0.5570185105000001,mp-1213843,1,0.0
La19Mn19O60,0.0,-2.935752349241731,mp-685375,1,0.0
Nd5Fe5As5O4F,0.0,-1.66624099525,mp-698941,1,0.0
Te4Mo(OF4)5,2.9955,-2.226682754222222,mp-560414,1,4.0
KMn2(MoO5)2,0.0,-1.922422811540804,mp-1104584,1,0.0
Rb17Fe5O16,1.978899999999999,-1.555261184144735,mp-768716,1,2.0
Li4Ti3Mn2V3O16,0.990499999999999,-2.7378953981855503,mp-773707,1,1.0
Ca2Cr3O8,0.4883,-2.522366256923076,mp-1404745,1,0.0
Na2Cr7O14,0.0,-2.054027971424287,mp-754789,1,0.0
La2NiAs2O,0.0,-0.197087813333334,mp-1213453,1,0.0
Ca5W(N2O)2,2.3489,-1.722604418749998,mp-558331,1,3.0
K2Na6V5(MoO8)3,0.0,-2.171620937069396,mp-1099629,1,0.0
CoH18S2Br(N3O2)2,0.0,-0.5977605501562511,mp-1196395,1,0.0
Na6Mo10O33,3.087399999999999,-2.024236461291344,mp-648992,1,4.0
Fe2Te4BrClO10,1.9778,-1.479781836064815,mp-1213361,1,2.0
Li3P2WO8,4.103199999999999,-2.544664939234692,mp-758018,1,6.0
KNiAs3F18,4.6169,-2.492137192271739,mp-558932,1,6.0
La3(NiO3)2,0.0,-2.771731707727272,mp-551749,1,0.0
Li2TiMn3O8,0.7526,-2.393462251342364,mp-775166,1,1.0
LiLa3MnO7,2.2799,-3.209354372813697,mp-1222623,1,3.0
KMg30MnO32,1.8944,-2.925748330862203,mp-1038115,1,2.0
Li2TiCo3(PO4)6,0.0,-2.285754399107142,mp-770585,1,0.0
CrFeTeO6,1.5522,-1.798793123518517,mp-1226257,1,2.0
KNi3As3O11,2.563399999999999,-1.651810094430556,mp-560548,1,3.0
Ca4Mn6Si5O28,0.0,-2.359921532502005,mp-1227666,1,0.0
Cs6Si2NiO8,3.087,-2.228306848701826,mp-556265,1,4.0
Ni5(PO4)4,0.0,-2.030412795742858,mp-26922,1,0.0
DyCrGeO5,2.83,-2.836865024583334,mp-1213026,1,4.0
RbUCrIO10,0.1483,-1.84280065767857,mp-1194508,1,0.0
V3FeCo2(PO4)6,0.0,-2.40831184327381,mp-759594,1,0.0
Mg2TaVO6,1.525999999999999,-2.9803983817333353,mp-1348043,1,2.0
BaMgV2ZnO8,3.175,-2.638737280961538,mp-1227934,1,4.0
Li4NbFe3O8,0.7523999999999991,-2.168984353958333,mp-770958,1,1.0
Li2Cr2FeO6,0.0,-2.082271752727274,mp-782636,1,0.0
Li2Co(CO3)2,2.9086,-1.960457732878788,mp-753950,1,4.0
Mn9Zn6Si4(SbO14)2,1.0069,-2.291742062068965,mp-850230,1,1.0
Li2Mn7O12,0.7027999999999991,-2.004863608913519,mp-758656,1,1.0
Li2Cr3SnO8,0.9501,-2.268205161011905,mp-774276,1,1.0
BaCdFeF7,3.796599999999999,-3.073525824,mp-1214477,1,5.0
LaMgMnCrO6,1.120099999999999,-2.677308482293102,mp-1044923,1,1.0
Li4Ti3Nb2Co3O16,1.497099999999999,-2.687692597797619,mp-776073,1,2.0
Li4Ti3V3(TeO8)2,0.6137,-2.568949824523809,mp-754525,1,0.0
SrGd2Co2O7,0.0,-2.634725344583332,mp-573240,1,0.0
NaLi5Fe2P2(CO7)2,3.6574,-2.326326305666603,mp-1101478,1,5.0
Li4Co3Cu3(TeO8)2,0.0,-1.503482172023809,mp-765052,1,0.0
Co2(SO4)3,0.1395,-1.561643072647058,mp-1178458,1,0.0
Mn3TeP2Pb3O14,2.4566,-2.15679154911937,mp-1192249,1,3.0
Mo(PO3)3,4.2428,-2.536424978635532,mp-5581,1,6.0
ZnNi9O10,2.0976,-1.2282467955,mp-753807,1,3.0
Ti2FeO5,1.518999999999999,-3.020799182708333,mp-28231,1,2.0
CaMo3P3O13,1.1772,-2.544687625696428,mp-1047841,1,1.0
La2Fe2S2O3,0.0,-2.420657534444444,mp-1211279,1,0.0
Mn3V3(TeO8)2,0.712299999999999,-1.9298860732136012,mp-772284,1,1.0
MgMn4(O2F3)2,0.2559,-2.587665151781609,mp-2226985,1,0.0
K3Al3Si3(WO3)4,0.027299999999999,-1.68466900587,mp-1212431,1,0.0
Li2Co4OF8,2.2509,-2.341500032111112,mp-765686,1,3.0
CsRbMnF6,3.3815,-2.8998884116762462,mp-1228944,1,5.0
Li3V12O29,0.0,-2.373684585340908,mp-772492,1,0.0
CaV2O6,2.8812,-2.699767045555556,mp-27624,1,4.0
Rb4MgU4Cr4O24,0.2917,-2.784996732837835,mp-1233406,1,0.0
K(Mo2O3)4,0.0,-1.509628608916665,mp-1224511,1,0.0
CoP4O11,3.364999999999999,-2.429095702254464,mp-562669,1,5.0
TlCo(CO)4,3.1135,-0.7682314643333341,mp-18789,1,4.0
RbNiO3,0.0,-0.650802962499999,mp-975373,1,0.0
Li2V(BO2)5,2.8596,-2.744421657916667,mp-772429,1,4.0
Ca16Mn14Al2O45,0.0,-2.592905008260189,mp-1247668,1,0.0
Mn4O7F,0.0,-1.890469118060344,mp-779274,1,0.0
CrBrO,1.6129,-1.818041353333332,mp-27842,1,2.0
SrMgCrO3,0.0,-2.195136605,mp-2225366,1,0.0
Li4MnNi5O12,0.503899999999999,-1.417562047784743,mp-779228,1,0.0
ZrNiO3,0.0,-1.766193799,mp-1188025,1,0.0
Fe2Cu2Ge4O13,0.2979,-1.74779175904762,mp-22219,1,0.0
VIn(TeO4)2,2.9841,-1.862377806041666,mp-1200957,1,4.0
SrCaV(PO4)2,2.6569000000000003,-3.056483598021977,mp-1046434,1,3.0
Li3VFe3O8,1.333999999999999,-2.025869882666667,mp-757069,1,2.0
Li4Nb3Fe3(NiO8)2,0.5187,-2.204339345476191,mp-754367,1,0.0
Mg30MnNbO32,0.3684,-2.929781569967672,mp-1037821,1,0.0
CoH15N7ClO5,0.157,-0.244875009525862,mp-744737,1,0.0
Li4Ti3Co3(NiO8)2,0.7622,-2.142970723333332,mp-763517,1,1.0
ZnNi3(B2O5)2,4.0858,-2.186826588148147,mp-1215679,1,6.0
Na2FeNiF7,2.7689999999999992,-2.708318773887147,mp-561395,1,4.0
Mn2Nb2ZnO9,0.7442000000000001,-2.376370183275863,mp-1366855,1,1.0
ZnFe4(CuO4)3,0.0,-1.250058050999999,mp-1043129,1,0.0
RbZrMnF7,2.3454,-3.570381424043103,mp-555669,1,3.0
SbP6(WO8)3,0.0,-2.427338771995798,mp-775007,1,0.0
Ba10Co7(IrO10)3,0.0,-1.9822176388,mp-1229198,1,0.0
Nb2(CoO3)3,0.0,-2.0344399925,mp-1341677,1,0.0
Ta2MnZnO8,1.1994,-2.625459605008141,mp-1328951,1,1.0
Sr24Ni19O54,0.4546,-2.01661176742268,mp-675428,1,0.0
Y2Mg(FeO3)2,0.1547,-2.668085425909091,mp-2217559,1,0.0
Li3Ti(FeO2)4,0.8568000000000001,-2.115317930208333,mp-755734,1,1.0
Mn3NiO10,0.0,-1.013588933485222,mp-1192587,1,0.0
NaLiCeWO6,1.8641,-2.594952043471264,mp-1517519,1,2.0
Li4FeCu3(PO4)4,0.0,-2.249071507210884,mp-1177402,1,0.0
MgFeH4S2NO8,0.0,-1.448372321764705,mp-2229742,1,0.0
Li4Mn3V2Fe3O16,0.8386,-2.072285790968803,mp-761239,1,1.0
Nd3Si(Mo2O7)2,1.342799999999999,-2.751328793409089,mp-1220991,1,2.0
BaCa(FeO3)4,0.0,-1.443547737777777,mp-1519251,1,0.0
W2O3,0.205699999999999,-0.9596805719999972,mp-1372094,1,0.0
Pr2MgMn2(GeO5)2,1.7428,-2.68610144612914,mp-2229749,1,2.0
Ti3Mn2Ni(PO4)6,2.0597,-2.809053885658867,mp-775759,1,3.0
MgMoOs(PbO3)2,0.3928,-1.556242818636363,mp-2218000,1,0.0
P2W5O19,0.0,-2.329886431318681,mp-28031,1,0.0
Li3Mn4(FeO6)2,0.4091,-1.98630908412972,mp-769530,1,0.0
CsFe3P3O14,0.1848,-2.039865639932558,mp-729483,1,0.0
Li3Fe2(P2O7)2,1.0356,-2.518181311133539,mp-849506,1,1.0
Ca2AlWO5,0.7542,-2.804067100555555,mp-1261272,1,1.0
Li2FeH8(SO6)2,3.809899999999999,-1.657894786466666,mp-778185,1,5.0
Li2MnCO5,1.1538,-2.058583023566411,mp-764236,1,1.0
YCrO4,0.7015,-2.75744404875,mp-1285565,1,1.0
Ba3Co2WO9,0.0,-2.3071981186666672,mp-1228027,1,0.0
ThCr(IO5)2,2.7329,-1.811411785714285,mp-686949,1,4.0
NaTbMnWO6,2.2708,-2.6879429475977,mp-555494,1,3.0
La2NiRhO6,0.0,-2.5721824465,mp-1223214,1,0.0
Sr4CaCo2(SO3)2,0.0,-2.270819703,mp-1048650,1,0.0
LiVTe(WO6)2,1.793899999999999,-2.011237426470588,mp-753012,1,2.0
V3Pb5O12F,3.002599999999999,-2.131194432857143,mp-1207903,1,4.0
MgTi(WO4)2,1.6719,-2.526243267361111,mp-2218111,1,2.0
VOF2,1.729299999999999,-2.858523329583334,mp-781604,1,2.0