formula,bg,formation_energy,mp-id,fidelity,bg_category
VFe2BO5,1.645999999999999,-2.2173640287962972,mp-1207977,1,2.0
Sr3Mn2Cu2S2O5,0.0,-2.077905366133005,mp-1275541,1,0.0
Sr5V3O12F,3.999999999999999,-3.144516391428572,mp-40674,1,6.0
Na3FePCO7,1.8038,-2.275798284521598,mp-22135,1,2.0
Mg14AlCrO16,0.0,-2.89822616125,mp-1036586,1,0.0
Li6Fe(BO3)3,2.0986,-2.436248122368422,mp-772525,1,3.0
Li5(FeO2)4,1.0719,-1.848594704215686,mp-780312,1,1.0
Rb2Ni2O3,1.9524,-1.140597875714285,mp-754858,1,2.0
Ca3Si6W7O15,0.0,-1.406488038225806,mp-1214353,1,0.0
Li2Ti2CoO6,2.3535,-2.738480190984849,mp-757277,1,3.0
Li4Ni8O9F7,0.109999999999999,-1.778944649047618,mp-764792,1,0.0
CdCoAsHO5,1.0398,-1.468586090694445,mp-1195662,1,1.0
Ba3Sr5Co3(CuO4)5,0.0,-1.940778845347222,mp-1076881,1,0.0
Ca2Fe3Si3O14,0.0245,-2.490263348181818,mp-1214297,1,0.0
Ti3Co2Sb(PO4)6,0.0,-2.643498008829365,mp-759100,1,0.0
BaSrCaFeO6,0.0,-2.353275510999999,mp-1521728,1,0.0
Li2TiNi3O8,0.7121999999999991,-1.765857367321428,mp-775328,1,1.0
Y4CdMo3O16,2.776899999999999,-2.8145270453125,mp-1216342,1,4.0
Ce2VFeO6,0.0,-3.064291228,mp-1227428,1,0.0
MnH14C3NCl3O2,4.0383,-0.7493882009554601,mp-600189,1,6.0
KCrO3,0.0,-1.671608068449999,mp-1076732,1,0.0
Mg6CoCuO8,0.0609,-2.490309103125,mp-1032153,1,0.0
MgCo6(O5F)2,0.0,-1.38186939868421,mp-2230256,1,0.0
MgCrO9,0.0,-0.6292983350000001,mp-1180584,1,0.0
SrLa2Mn2O7,0.0,-2.9990426946551723,mp-1218243,1,0.0
BaFe3Si4SO11,1.262699999999999,-2.577869148125001,mp-1214792,1,1.0
Li4Ti4V4CrO18,0.0,-2.799740236182796,mp-884288,1,0.0
Tb2Mo2O7,0.0,-2.910913877121213,mp-19200,1,0.0
V2Ni(H4O5)2,2.8013,-1.6054301692857131,mp-1179599,1,4.0
SrCaTbVO6,1.616699999999999,-3.084015487666667,mp-1517712,1,2.0
K3MgScV2O8,1.556099999999999,-2.502102618783333,mp-2227375,1,2.0
NaCrO2,2.891,-2.255811479719828,mp-578604,1,4.0
Dy(FeO2)2,0.0,-2.358419984523808,mp-756971,1,0.0
MgMn5CuO12,0.474,-1.776489791297641,mp-2230686,1,0.0
V3Sb2(PO4)6,0.0,-2.404813941653062,mp-773504,1,0.0
Ca3Fe2(Si2O7)2,2.2344,-3.007258125869565,mp-1254209,1,3.0
UAg2(WO5)2,1.0923,-2.179834346388887,mp-705061,1,1.0
TlMo6O17,0.0,-1.900545658263888,mp-28484,1,0.0
MnFe3Sn2(PO4)6,0.0733,-2.333307160716336,mp-776103,1,0.0
CrB2(PbO2)6,1.8898,-1.921576528134919,mp-1197022,1,2.0
FeBP2NO9,0.0,-1.68773777417517,mp-1212760,1,0.0
K2NaVF6,0.0,-3.163481748587931,mp-1080537,1,0.0
BaTiFe3(BiO4)3,2.064299999999999,-2.092950813166666,mp-1227513,1,3.0
Li5MnHO4,1.0695,-1.877231487349791,mp-759487,1,1.0
Sr2MgCrO4,1.6968,-2.714180018125,mp-2227890,1,2.0
Ba2NbFeO6,1.455,-2.8955537204999993,mp-1021504,1,2.0
KLaMgWO6,2.781499999999999,-2.820778298725,mp-1523297,1,4.0
SrLaMnSbO6,2.0708,-2.8178345975431043,mp-727395,1,3.0
MnH9C4NO6,3.478,-1.006731461865765,mp-654897,1,5.0
Mn5Co3O16,0.8854000000000001,-1.488618611652299,mp-756965,1,1.0
Sr3Mn2O12,0.0,-1.401622483874238,mp-1208580,1,0.0
Na3V2PO9,2.9184,-2.463411805752053,mp-1221289,1,4.0
Ca2Mn3O8,1.501399999999999,-2.416973564137931,mp-18893,1,2.0
Li3FeO4,0.332099999999999,-1.804516709999999,mp-849528,1,0.0
Ba2SmMoO6,0.9085,-3.0179772245,mp-1095110,1,1.0
Mn(PO3)3,1.310199999999999,-2.513638303860996,mp-771905,1,1.0
Mn3Co3(SbO8)2,0.5298,-1.5555690489080451,mp-863857,1,0.0
Li5V4O12F,2.5098000000000003,-2.436955837121211,mp-759940,1,3.0
Ca3V10O25,0.9242,-2.586048148684211,mp-758028,1,1.0
MnP2O7,0.0,-2.383533998471674,mp-771660,1,0.0
Ba2PrV3O11,3.4927,-2.993212700980393,mp-1214859,1,5.0
Li4Cr3Cu(PO4)4,0.0,-2.479182574710885,mp-1177451,1,0.0
Mn2(SO4)3,0.6835,-1.880867041374239,mp-768472,1,1.0
Mn3Cd2O8,1.214799999999999,-1.744743971061009,mp-18870,1,1.0
CoPH3O5,3.1384,-1.815691602339285,mp-1182617,1,4.0
VAgHgO4,1.2204,-1.405343847738096,mp-18901,1,1.0
LiV2F6,0.0,-3.148444538703703,mp-559701,1,0.0
LiNi2O2F,2.3993,-1.815387513888888,mp-753331,1,3.0
V(GeO3)2,1.6688,-2.164592917222222,mp-1043195,1,2.0
Li3V2O6,1.3768999999999991,-2.414965563636364,mp-762268,1,2.0
FeH12N3(OF2)3,3.5115,-1.2761868848,mp-1196925,1,5.0
Li6Fe3Co7O20,0.0,-1.595796041666665,mp-759810,1,0.0
Li3Mn3WO8,0.0,-2.131269921586207,mp-756701,1,0.0
LaMn3Cr4O12,1.6430999999999991,-2.4571780159396552,mp-1211359,1,2.0
K2BaMgCo(NO2)6,0.0,-1.152610001717391,mp-1233485,1,0.0
Li3CoRuO5,0.0,-1.6861695675,mp-1222819,1,0.0
NaV13O18,0.690499999999999,-2.342660879730603,mp-1101727,1,1.0
CaPrCr2O6,0.0,-2.855696057166667,mp-1044723,1,0.0
Li6Cr3Cu(PO4)6,0.000299999999999,-2.509142135446429,mp-774262,1,0.0
RbMgFe(SeO4)2,2.324799999999999,-1.636282334399038,mp-2218548,1,3.0
Ba2AlNi3O7,0.0,-1.840037855,mp-1048483,1,0.0
YMo3F15,1.8009000000000002,-2.850468216776314,mp-1041695,1,2.0
Li4NbCo3O8,0.8083,-2.050413932083333,mp-1273584,1,1.0
Li2MnGeO4,2.0368,-2.267405468387212,mp-1210796,1,3.0
Sr2MgZrCoO6,1.5822,-2.647945585909091,mp-2217759,1,2.0
FeBiAsO,0.0,-0.394467824375,mp-1022732,1,0.0
BaMn3(PO4)3,0.0,-2.719899778564298,mp-1204296,1,0.0
BaEuCr4O12,0.0,-1.437205491944444,mp-1522661,1,0.0
Mg6MnCoO8,1.6502999999999992,-2.64458938487069,mp-1032864,1,2.0
Na6Fe2B4AsO16,0.0,-2.122821876463535,mp-770768,1,0.0
TaTiCrO6,1.8289,-3.120324705074073,mp-1217930,1,2.0
Rb2V2Cu(PO6)2,0.947399999999999,-2.374126140225564,mp-556946,1,1.0
ZnTeMoO6,3.0952,-1.765172062962962,mp-558830,1,4.0
NdReMoO8,3.3573,-2.575887152727272,mp-687204,1,5.0
KAlNiF6,5.4566,-3.205277229694444,mp-1223554,1,7.0
MnAg4(PO4)6,0.0,-1.596129774641567,mp-1180483,1,0.0
MgFe3(PO4)3,1.9866,-2.401276030469924,mp-2230031,1,2.0
Sm6Fe6As6O5F,0.0,-1.680853028125,mp-697821,1,0.0
NaFe9Si6B3H2O31,1.4005,-2.398413173007294,mp-1121875,1,2.0
Na4Co7(PO4)6,2.3694,-2.260560870814009,mp-18012,1,3.0
NaVP2O7,2.1604,-2.710645244605911,mp-752810,1,3.0
Li23Ni17O40,0.0,-1.515544620708333,mp-705828,1,0.0
LiFe2O3F,1.6312,-2.019954299761905,mp-776573,1,2.0
K3Na5V3Mo5O24,0.0,-2.120570753716163,mp-1099606,1,0.0
Mn3Cr(PO4)6,0.0,-2.232744541519126,mp-771880,1,0.0
Mn2(PO4)3,0.0,-2.217549284105332,mp-26062,1,0.0
Ca3V2(GeO4)3,0.0,-2.69159893825,mp-1327747,1,0.0
SrNdZrCrO6,2.452699999999999,-3.249917282749999,mp-1520463,1,3.0
NaNbFe(PO4)3,2.432,-2.67102693918377,mp-1221032,1,3.0
Sr3La7Mn9FeO30,0.0,-2.836057824527587,mp-1173239,1,0.0
Li4Cr2Fe3Sn3O16,0.0,-2.02338876529762,mp-777903,1,0.0
CdFe2Sb2(PO4)6,2.8457,-2.352485540795919,mp-703231,1,4.0
CaSmV4O12,0.0,-2.626444660833335,mp-1518755,1,0.0
MnP2(HO)4,4.478899999999999,-1.500887107625765,mp-1195060,1,6.0
Li4VCr(WO6)2,1.4106,-2.318009224666666,mp-757863,1,2.0
BaSrCaWO6,3.404999999999999,-3.026779163999999,mp-1227701,1,5.0
MnZn5(BO5)2,0.0,-2.028834185070242,mp-1221663,1,0.0
MgVAsO5,1.792,-2.2971142090625,mp-1047070,1,2.0
CaV2(PO5)2,1.8731,-2.810424025952381,mp-556243,1,2.0
La2TcNiO6,0.0,-2.654395983499999,mp-1087477,1,0.0
Na3MoNO3,3.5662000000000003,-1.610738803642241,mp-19105,1,5.0
CsSm(WO4)2,3.4736,-2.638217751221264,mp-1213147,1,5.0
BaYZn3CoO7,0.0,-2.277275303461538,mp-1227396,1,0.0
Ba(WO2)4,0.0,-1.454954547692306,mp-1041454,1,0.0
Np2Cr3(NO4)4,0.186599999999999,-0.9524186145000012,mp-1201225,1,0.0
BaSrMn2O6,0.789099999999999,-2.481979802586207,mp-1227420,1,1.0
KNa7V7CrO20,0.5669000000000001,-2.269295352205698,mp-1076821,1,0.0
Na4MgCr2O8,1.0291,-2.006238348034483,mp-2232352,1,1.0
Ba2NiMoO6,2.3514,-2.44925213,mp-552567,1,3.0
LiVF3,2.654699999999999,-3.046416666666668,mp-752764,1,3.0
Li3Cr3CuO8,0.0,-2.054959044,mp-768828,1,0.0
Mn3Zn2AsO12,0.0,-1.136794803960728,mp-1222639,1,0.0
Li8NbFe7(PO4)12,0.0,-2.4974732963471182,mp-776163,1,0.0
Nd2MnCrO6,0.7902,-3.032181974293102,mp-1220516,1,1.0
La3Cd(FeO3)4,0.0,-2.461221113750001,mp-1223213,1,0.0
Fe2Cu(PO4)3,0.0,-2.118713424940477,mp-775240,1,0.0
Li4Si3NiO9,4.051,-2.677509451960785,mp-766702,1,6.0
LiFeP3(H7O8)2,3.932699999999999,-1.766302527136054,mp-850955,1,5.0
Li3Fe7O12,1.0915,-1.7294864004545452,mp-752897,1,1.0
LiMn8F33,1.466199999999999,-2.419108458613848,mp-765136,1,2.0
VFeP2(O4F)2,1.2924,-2.489254396020408,mp-777408,1,1.0
BaNdEuFeO6,0.0,-2.61146170325,mp-1517804,1,0.0
Li4V3FeO8,1.5136999999999992,-2.331083505833334,mp-765701,1,2.0
HfMg14MnO16,0.0,-2.8512827677478443,mp-1036036,1,0.0
K10Zr3Cd(MoO4)12,3.3373,-2.308949837601352,mp-699558,1,5.0
V2S2O11,2.3616,-2.0011645385,mp-28207,1,3.0
K7Mo12H31Pt2O59,2.5534,-1.663126097788288,mp-1225875,1,3.0
K8Li13(FeO4)4,1.825,-1.7874112514959342,mp-759598,1,2.0
Li4Cr5WO12,1.4398,-2.299218670151514,mp-756151,1,2.0
Li5Fe7O3F13,2.4995,-2.505193891309524,mp-780457,1,3.0
MgVZn2WO6,1.491699999999999,-2.003361465,mp-2217674,1,2.0
Mg3Co2(SiO4)3,2.539799999999999,-2.66045464875,mp-1324099,1,3.0
GdMoO4F,1.3117,-2.9649934303571452,mp-555179,1,1.0
Li3VAs2O9,1.7624,-2.0796015349999992,mp-1177474,1,2.0
Ca3AlFe(SiO4)3,2.9724999999999993,-3.22723622525,mp-1227902,1,4.0
Li4Mn3Ni3(TeO8)2,0.1057,-1.812229406444991,mp-770951,1,0.0
K5LuHf(MoO4)6,3.8503,-2.429561427916667,mp-1224538,1,5.0
MgMn3(P2O7)2,3.442599999999999,-2.618601429880205,mp-1043529,1,5.0
Al(NiO2)3,0.0,-1.53839788525,mp-1045119,1,0.0
CaTi3V5O16,0.8822999999999991,-2.854191778,mp-1233418,1,1.0
Ba4NdMn3O12,0.0,-2.635162862064654,mp-555245,1,0.0
Li5Mn4P4O16F,3.7058,-2.592438457398741,mp-759154,1,5.0
NaLaMn4O12,0.0,-1.685315533227969,mp-1520145,1,0.0
MgMn2(SO5)2,0.6512,-2.042440231057472,mp-2215822,1,0.0
Na5Mn2P(CO4)4,0.0,-2.071554054728624,mp-776602,1,0.0
CaCr2O2,0.0,-1.185973893,mp-1214428,1,0.0
LiV2(CO4)2,1.270499999999999,-2.120573355833333,mp-758446,1,1.0
Li4Mn5FeO12,0.0,-1.967952207408568,mp-756410,1,0.0
LiMn2V4O8,1.2514,-2.250262507279693,mp-1235517,1,1.0
Li4TiCr5O12,0.128499999999999,-2.4544307695454552,mp-759597,1,0.0
CrBiTeO6,0.0,-1.864559151296296,mp-1226306,1,0.0
Li2Fe2Si2O9,0.0317,-2.269639876944444,mp-1262173,1,0.0
LiFe5(OF2)4,1.6382,-2.30427253462963,mp-1176720,1,2.0
Li6Fe3Sb(PO4)6,1.3332000000000002,-2.440151067446428,mp-757289,1,2.0
LiNiP2O7,0.0336,-2.297861584329004,mp-26449,1,0.0
Pr16(Mo3O8)7,0.8094,-2.519606516146953,mp-1196789,1,1.0
Na4V10Co(H11O13)4,0.081799999999999,-1.5848890895542092,mp-1224720,1,0.0
Mn2AsHO5,0.0,-1.876243214401341,mp-1202591,1,0.0
Fe2P2H6C2O13,1.0491,-1.49735964167143,mp-1229091,1,1.0
MgP4W3O14,0.7528,-2.052988589935063,mp-1044085,1,1.0
Co3Sb(PO4)4,0.152899999999999,-2.117780244107143,mp-754002,1,0.0
Li4Mn3Co(PO4)4,1.984799999999999,-2.5615356130606393,mp-758017,1,2.0
NaMg3In(MoO4)5,2.962799999999999,-2.261465118101533,mp-1221106,1,4.0
CrCo3(PO4)4,0.5899000000000001,-2.161926772023809,mp-775991,1,0.0
FeSb3(PO4)4,1.3695,-2.262068606607142,mp-755192,1,2.0
Ca2NbCrO6,2.7637,-3.115843763499999,mp-1214115,1,4.0
Ca2Mn3Si3H3O14,1.7368,-2.603577032701723,mp-1214361,1,2.0
CsMgV2O5,1.1202,-2.317019782183907,mp-2223641,1,1.0
Li6Fe2B4SO16,0.0,-2.273828399454022,mp-770526,1,0.0
Na3Co2CuH8S4O17,0.3119,-1.464732091118227,mp-1221835,1,0.0
CoH18C4N8(ClO)4,2.3349,-0.7904722051923071,mp-728733,1,3.0
Li2Ni3TeO8,0.207799999999999,-1.5295413745238091,mp-1280510,1,0.0
CaCoF4,2.9021,-3.234448478333332,mp-1389180,1,4.0
Li6MnCr3(PO4)6,1.054199999999999,-2.596498261394704,mp-767775,1,1.0
TaZn2WO6,1.3028,-2.200857218233333,mp-1369089,1,1.0
Sr6Fe2Ru2O11,0.0,-2.314328644999999,mp-1218553,1,0.0
LiMg2Mn3O8,0.0,-2.309574234794746,mp-756823,1,0.0
Na3MnS2(O4F)2,1.418,-2.27466579762931,mp-1195590,1,2.0
Fe3Cu2Sn(PO4)6,0.0,-2.182999239523809,mp-775221,1,0.0
CaVAs2O7,2.394999999999999,-2.247324812272728,mp-1042925,1,3.0
NaNi4H9(CO5)3,3.7286,-1.485023322894665,mp-761175,1,5.0
V7C2(NO8)2,1.1224,-1.850507326851852,mp-1202853,1,1.0
K2BaV2ClO7,0.0,-2.38400470803846,mp-1211996,1,0.0
PuCrO3,0.0,-2.802689262749997,mp-1209736,1,0.0
Li4Mn5CoO12,0.6466000000000001,-1.949344791954023,mp-771545,1,0.0
Zr3V3O,0.0,-0.310974841428571,mp-504834,1,0.0
Li4CuNi3O8,0.036,-1.468299575208333,mp-752986,1,0.0
SrNdCrSnO6,2.090099999999999,-2.74340753025,mp-1521877,1,3.0
Li4(MoO4)3,0.0,-1.9667645075438591,mp-1211266,1,0.0
MgFe2(SbO4)2,0.119699999999999,-1.903594184999999,mp-2218640,1,0.0
CoP2(H8O5)2,2.252799999999999,-1.229139583509852,mp-542114,1,3.0
Na5Ca2Fe3(PO4)6,2.2799,-2.646220934868842,mp-1221180,1,3.0
K2NaNb2Fe7Si8H4O31,0.1119,-2.516754933379623,mp-743972,1,0.0
Mn3ZnO10,0.9335,-1.12729930205665,mp-1180467,1,1.0
Na2NiH4(SeO5)2,3.1791,-1.440821779602427,mp-1189952,1,4.0
Li3VCr(P2O7)2,0.6165,-2.66953781863354,mp-752491,1,0.0
MoH8(NF2)3,2.4636,-1.166390829166666,mp-1210624,1,3.0
TbFeO3,1.6263,-2.844573657333333,mp-19853,1,2.0
LiV2F7,2.12,-3.203560987833333,mp-756227,1,3.0
Al2FeP2(HO)18,4.0407,-1.813954158824042,mp-1199432,1,6.0
Y6MgMn6O18,0.019499999999999,-2.9620789394382663,mp-2224487,1,0.0
KLu(MoO4)2,3.9992,-2.56575306032639,mp-1211421,1,6.0
NaFe2(PO4)2,1.8351,-2.338171016205001,mp-1210447,1,2.0
CaCr4(PO4)4,0.9438999999999992,-2.599334152742857,mp-1233730,1,1.0
Li2Mn(SiO3)2,3.4864,-2.836832722690701,mp-754949,1,5.0
CaVF6,0.0,-3.492439452500001,mp-1391106,1,0.0
Li3V2(OF)4,1.329699999999999,-2.736693200769231,mp-776500,1,1.0
Fe5SiO8,1.292999999999999,-1.915255656607144,mp-705744,1,1.0
Rb2V2O5,0.0,-2.19911841888889,mp-1076354,1,0.0
MgV(SbO3)4,0.0,-1.994750660833333,mp-2233299,1,0.0
Mn3Cr2Co3O16,0.0,-1.464917692658047,mp-772635,1,0.0
MnP2PbO7,3.8098,-2.513227360883339,mp-541468,1,5.0
MgMo2O7,3.7069,-2.222699028749986,mp-27604,1,5.0
LiMnCO4,1.293,-2.05323571089491,mp-1661789,1,1.0
Na4WO5,3.8008,-2.135016239551723,mp-19334,1,5.0
Bi(MoO5)2,0.0,-1.2048929803846151,mp-1193126,1,0.0
Li17Fe6(Si2O7)6,0.0,-2.624287639307359,mp-760086,1,0.0
Ba2SmVO6,1.6332,-3.1162895735,mp-1517570,1,2.0
YLu3Cr4O16,0.0,-2.778865281666667,mp-1216059,1,0.0
MgMn2V2(BiO5)2,1.2545,-2.108241384756593,mp-2228987,1,1.0
Na3MoO4F,4.5355,-2.323430885181992,mp-1194849,1,6.0
Li2Fe2P4H3O16,0.0,-2.225593939962522,mp-1662213,1,0.0
Li5Co4(BO3)4,0.7533999999999991,-2.158904790933333,mp-1177143,1,1.0
Nb4VO12,1.878099999999999,-2.885376982352941,mp-753925,1,2.0
RbCoCl3O2,0.0,-0.8857191046428571,mp-1104978,1,0.0
Li2CoO3,0.0,-1.777049654444449,mp-1173879,1,0.0
Li2Fe3Co7O20,0.0,-1.272188113645834,mp-757626,1,0.0
MoPb2O5,2.9278,-1.830996234999998,mp-21138,1,4.0
Tb2VFeO6,1.3995,-3.079295732833334,mp-1217726,1,2.0
Li4Cr5BiO12,0.0,-2.152300413787878,mp-756777,1,0.0
Ca4CrFe3O10,1.7498,-2.519592239166666,mp-1227753,1,2.0
SrPrCrSnO6,2.0575,-2.751675773666666,mp-1522443,1,3.0
Na2MnBAsO7,0.5533,-2.079500486446361,mp-771164,1,0.0
RbTm(MoO4)2,3.100899999999999,-2.526751532291668,mp-1209114,1,4.0
Ca3Cr2(Si2O7)2,2.467399999999999,-3.151886527391304,mp-1264130,1,3.0
Mg3Al12FeSi4(BO9)4,3.7922,-3.251357421861111,mp-1222235,1,5.0
K4(CoO2)7,0.0,-1.33119371056,mp-562471,1,0.0
Na4FeO3,1.1884,-1.525675772564654,mp-1195898,1,1.0
MnH9C4(NO2)3,3.6169,-0.991324207138305,mp-1202547,1,5.0
MgSi4NiO10,3.2196,-2.878330605156249,mp-1043541,1,4.0
NaVCSO7,2.1092,-2.029554273989028,mp-772183,1,3.0
Sr5Co3F19,0.9893,-3.245354002962963,mp-1208697,1,1.0
V3Fe2Cu(PO4)6,0.0,-2.354684144107143,mp-774830,1,0.0
Mn3Al(SiO4)3,0.6549,-2.554064812041742,mp-1154487,1,0.0
V2Zn3(P2O9)2,1.3392,-2.370440005873016,mp-1371973,1,2.0
Na9Mn15O32,0.3355,-1.918528548596058,mp-764537,1,0.0
Li5Fe(Co2O5)2,0.0,-1.6262903973333331,mp-1222680,1,0.0
Mg14MnCuO16,0.0,-2.825148495560345,mp-1036333,1,0.0
Co(IO5)2,0.0,-0.288142910384615,mp-1213806,1,0.0
MgCo6O7F5,0.380499999999999,-1.707139749736842,mp-2230306,1,0.0
MgFeCuAs2PbO10,0.3859,-1.719510640625,mp-2232745,1,0.0
Li4TiMn3O8,0.47,-2.397410851695403,mp-760999,1,0.0
LiV2(PO3)5,0.0,-2.58757578876294,mp-756890,1,0.0
SrLaNiO4,0.0,-2.668460153571428,mp-1218155,1,0.0
BaCeEuCrO6,0.0,-3.026705817499999,mp-1517518,1,0.0
Ba6Nd2Fe4O15,2.3557,-2.681690976851851,mp-1228695,1,3.0
Ba5Cr3ClO12,1.0844,-2.6609496502380963,mp-1214675,1,1.0
Gd2Mo4O15,2.5091,-2.494723840555556,mp-555761,1,3.0
Mg6BWO8,2.966,-2.242536263697916,mp-1033247,1,4.0
Ti5V(PO4)6,0.0,-2.90750626262566,mp-772584,1,0.0
CaNiAsO5,0.0,-1.980232353124999,mp-1344634,1,0.0
BaTm2NiO5,1.5393,-3.176939882500002,mp-510134,1,2.0
V5Fe(PO4)6,0.0,-2.573528024384922,mp-829947,1,0.0
K2P2WO9,4.0913,-2.551688799377551,mp-561311,1,6.0
NiH6S2(NO4)2,0.257,-0.498527024342105,mp-1211120,1,0.0
CaCo2Te3(ClO4)2,2.1672,-1.745453416249999,mp-562004,1,3.0
Ca4Si6W5O17,0.342699999999999,-2.019096961093749,mp-1214164,1,0.0
YMg6NiO8,3.0069,-2.77198577125,mp-1032757,1,4.0
Eu2NiO4,0.0,-2.524308572857145,mp-770352,1,0.0
K3Na5V3(MoO4)5,0.0575,-2.036939268087405,mp-1076888,1,0.0
Tl2Mo3PCO12,0.545899999999999,-1.510076240858396,mp-722560,1,0.0
MgCr2P2O9,2.2107,-2.6760131304846952,mp-1040886,1,3.0
Ba2TbMoO6,0.0,-3.026519996666666,mp-1205597,1,0.0
TbEu2VO6,0.0,-3.119511784666668,mp-1520112,1,0.0
V2Cr(PO4)3,0.0177,-2.567361101051587,mp-771696,1,0.0
CaEuCrSbO6,0.0,-2.596469224499999,mp-1521154,1,0.0
Ti3Cu2P6WO24,0.0,-2.656150896051587,mp-759932,1,0.0
TiFe11O16,1.125499999999999,-1.768662905119047,mp-759782,1,1.0
V2FeAgO7,1.340799999999999,-1.925654196969697,mp-1191609,1,2.0
Fe2Pb3WO9,0.0,-1.747841644333332,mp-1224835,1,0.0
CrSb3Pb4O13,1.1067,-1.873557977142856,mp-1226278,1,1.0
Mg5Cr(Si2O9)2,0.0,-2.5683137110714283,mp-1211907,1,0.0
MgFe4(O3F)2,1.6989,-2.005824895,mp-2224795,1,2.0
Na6Cr2B4SO16,0.0,-2.373895713704914,mp-850803,1,0.0
KFe8P8H16N7(O4F)8,1.1171,-1.7412095468674111,mp-1225303,1,1.0
Na3VP8O23,2.4538,-2.619294039250879,mp-14391,1,3.0
Mn2CdTeO6,1.0581,-1.7823635472528732,mp-1221914,1,1.0
Ce2(WO4)3,0.079299999999999,-2.693502823235293,mp-17686,1,0.0
MgP2W2O9,1.869799999999999,-2.367450279770408,mp-1041003,1,2.0
K2MnOF5,0.0,-2.405529108047892,mp-1211959,1,0.0
Cs2HgMoF6,0.0,-2.528273312181036,mp-1113177,1,0.0
LaMgFeSbO6,2.0118,-2.402914525,mp-1043980,1,3.0
Li4Ti3Mn2Sn3O16,1.4402,-2.565531808006979,mp-755012,1,2.0
YMg30FeO32,0.0,-2.9564594642187503,mp-1037801,1,0.0
Na9Fe10(SiO3)20,0.0,-2.7091498791152913,mp-775293,1,0.0
La5Sm3Cr8O20,0.0,-2.8430960843055573,mp-1100028,1,0.0
Cr2P3O10,0.0,-2.522609971928569,mp-26116,1,0.0
HfMg6MnO8,0.085499999999999,-2.719465151120689,mp-1032770,1,0.0
Ta9Mn11O34,0.0,-2.152374103763728,mp-675520,1,0.0
GdFe2BiO6,1.317599999999999,-2.181158674000001,mp-1224629,1,1.0
CaCo(PO3)4,3.2999,-2.688315323531745,mp-1045787,1,4.0
Ni(CO)6,0.3746,0.276345739230768,mp-1211394,1,0.0
K2Na4Li2Ti4Mn3Fe(SiO3)16,1.7582,-3.033449140297629,mp-1224604,1,2.0
Mn2V3Fe(PO4)6,0.0,-2.566671258436645,mp-758220,1,0.0
SrDyCr4O12,0.0,-2.115455433425925,mp-1519508,1,0.0
LiTiMnO4,1.5162,-2.730021838513959,mp-1301329,1,2.0
Mn6PO12,0.0,-2.048049004459424,mp-26066,1,0.0
V2ZnPbO7,2.467799999999999,-2.146573545681818,mp-557548,1,3.0
MgCrO2,0.277499999999999,-2.419791065625,mp-1397370,1,0.0
Ca2Nb2MoO8,0.0,-2.871741029615384,mp-1047029,1,0.0
NaLi3Ti2Cr2(PO4)6,2.8178,-2.815534561471134,mp-776043,1,4.0
KP2(W3O11)2,0.0,-2.3114953811785712,mp-1223403,1,0.0
GeW2C10(BrO5)2,2.195999999999999,-0.7593849326999991,mp-704542,1,3.0
BaMg30CrO32,1.5460999999999991,-2.9128852090625,mp-1038639,1,2.0
Mg14FeBiO16,2.9930000000000003,-2.665057281249999,mp-1035533,1,4.0
Li5Ni6(P2O7)4,0.9115,-2.35136035391084,mp-886210,1,1.0
MnCrCoO4,0.171699999999999,-1.89630451041872,mp-1221841,1,0.0
KAl(MoO4)2,3.8895,-2.369613685604167,mp-19352,1,5.0
Y2MnNiO6,0.0,-2.822945541793103,mp-19192,1,0.0
KCr(SO4)2,3.153899999999999,-2.1248429076875,mp-1211656,1,4.0
Li4Nb3Ni3(SnO8)2,0.314,-2.264739787261905,mp-774703,1,0.0
K3Na5VMo7O20,0.0025,-1.916803572879071,mp-1076540,1,0.0
Ti2Fe4O9,1.340999999999999,-2.341758083777779,mp-765583,1,2.0
Cs7Fe4F15,3.431,-2.795340391830241,mp-562028,1,5.0
Ba2Mn2CuF14,1.1457,-2.965024216887477,mp-1045769,1,1.0
BaErFe4O7,0.0,-2.193267218076923,mp-1104205,1,0.0
HoMoBrO4,1.8564,-2.591267165714285,mp-1193901,1,2.0
NaHfCuWO6,0.8338999999999991,-2.347311471137931,mp-1521471,1,1.0
Li4MnFe3O8,1.0974,-1.986057234454023,mp-763910,1,1.0
LiFe2P3O13,0.0,-1.718004411961152,mp-697808,1,0.0
Na5LiFe2P2(CO7)2,3.7977,-2.284078314981368,mp-755968,1,5.0
BaEuDyWO6,0.1035,-3.1219355956666672,mp-1518565,1,0.0
Na4MgV10(H11O13)4,1.0425,-1.631226744013669,mp-1221556,1,1.0
FeMoO4,2.037,-1.875182581666667,mp-505526,1,3.0
Co(BrO6)2,0.0,0.194995412999999,mp-1214071,1,0.0
MnZnGeO4,0.8407999999999991,-2.010442540775863,mp-1193910,1,1.0
CaPrCrO4,2.643,-3.128204201666666,mp-1227145,1,3.0
Li19Ni23O42,0.0,-1.465116302896826,mp-698842,1,0.0
Mg30SiNiO32,0.0,-2.912233266406249,mp-1036904,1,0.0
Sr2Ca6Co7CuO20,0.0,-2.111510172499999,mp-1076470,1,0.0
Ca4Mn4O11,0.0647,-2.52329018798548,mp-698549,1,0.0
Tb2MgMo2(ClO4)2,1.7155,-2.659133244555555,mp-2232185,1,2.0