formula,bg,formation_energy,mp-id,fidelity,bg_category
LiV2NiO6,1.5283,-2.176241476333332,mp-1565491,1,2.0
LiMn2(PO5)2,0.051199999999999,-2.186798764565408,mp-766128,1,0.0
K2Sr3Mn2(P2O7)3,0.4074,-2.920780717300565,mp-561223,1,0.0
Li2Ni3P9O28,0.0,-2.291076328772675,mp-867594,1,0.0
RbVH6SeO9,2.723799999999999,-1.543930020130208,mp-1199880,1,4.0
Sr2CrMoO6,0.0,-2.642932968999999,mp-1205606,1,0.0
Sr2MgNiIrO6,0.0,-2.076052228636363,mp-2240423,1,0.0
KV2SbO8,2.8099,-2.2386957989375,mp-19496,1,4.0
Na2MnF5,1.693,-2.930590704148707,mp-555618,1,2.0
Li12Cr3NiP4(CO7)4,2.378099999999999,-2.362541504972528,mp-1178088,1,3.0
LiVMoO6,2.7403,-2.178402661481482,mp-1222368,1,4.0
Li7Fe3(SiO6)2,1.7107,-2.335240984722222,mp-753111,1,2.0
Li9Y(NiO4)2,2.7949,-2.0424171165,mp-776467,1,4.0
CsCrCuF6,0.0,-2.681499691628353,mp-1228892,1,0.0
Co5Te4(BrO6)2,2.2652,-1.362891933550725,mp-581171,1,3.0
Ba2Sr6Co5(CuO8)3,0.0,-1.8578459317499991,mp-1076429,1,0.0
NdVO3,1.034099999999999,-3.221048318000001,mp-541129,1,1.0
Li3MnCu3O8,0.053199999999999,-1.464257660528736,mp-756390,1,0.0
YMg6FeO8,1.5878,-2.740770251874999,mp-1033030,1,2.0
Li2Fe2Si5O13,3.5372,-2.824043972803032,mp-757523,1,5.0
La7SmMn2(FeO4)6,0.0,-2.735097495646552,mp-1076598,1,0.0
KLaEuWO6,0.0421,-2.740509018725001,mp-1523198,1,0.0
Ca2(Fe2O3)11,0.0,-1.72674302991228,mp-653005,1,0.0
NaWO3,0.0,-2.106962365275861,mp-19328,1,0.0
Tl2Mo3P3O17,2.348799999999999,-2.214422555523811,mp-1208507,1,3.0
Li2FeF4,3.594099999999999,-2.8994305263095232,mp-849283,1,5.0
Ba4Ga2Fe(S3F2)2,2.4483,-2.286659933823529,mp-1204862,1,3.0
Nd2WO6,3.7285,-3.237745801111111,mp-18057,1,5.0
Mn2CrFe3(PO4)6,0.0,-2.374237633436645,mp-851117,1,0.0
KLi(WO3)6,0.0,-2.19243271963782,mp-775511,1,0.0
Li2ZnCr3(SO4)6,0.7195,-2.025954631712962,mp-772839,1,1.0
Sr8Mn6Cu4Se4O15,0.0,-2.169350927350303,mp-1218663,1,0.0
NaSrNdWO6,3.0272,-2.856957951137931,mp-1518812,1,4.0
MnH12C8S2(NO)2,2.5994,-0.363738661775225,mp-1193229,1,3.0
NaLi2MnPCO7,3.598799999999999,-2.408014384470759,mp-1667394,1,5.0
Ho2MgV2O7,1.4803000000000002,-3.083101567499999,mp-2218211,1,2.0
Ba2Fe6O11,1.6653,-1.978964641710526,mp-652683,1,2.0
Li2Si3Ni3O10,3.7241,-2.43581092925926,mp-861061,1,5.0
Nb3Cr(PO4)6,2.6167,-2.8287109634663863,mp-774426,1,3.0
V4(CuO4)3,0.0,-1.86065644263158,mp-1367462,1,0.0
NiSeO10,0.0,0.21242458876302,mp-1200945,1,0.0
Na8FeO6,0.022399999999999,-1.5271764094023,mp-764501,1,0.0
KYMnWO6,2.8095,-2.651699235518103,mp-1105335,1,4.0
Ca3Co2(GeO4)3,2.112999999999999,-2.346806112875,mp-1326042,1,3.0
Li4Ti3Ni3(WO8)2,1.1067,-2.431726111547618,mp-769613,1,1.0
Mg3V4(PO4)6,1.9549,-2.823725441158301,mp-1232134,1,2.0
NaMoO3F,3.226099999999999,-2.283062166896552,mp-1209982,1,4.0
MgV3O7,2.4187,-2.563500954772728,mp-773444,1,3.0
KMgMn2AlGe3(O5F)2,1.9956,-2.575523750655603,mp-1223590,1,2.0
Sr8Mg3Fe(MoO6)4,0.0,-2.777958632375,mp-744025,1,0.0
Li7Mn5O12,0.9682,-2.156760055541188,mp-1175314,1,1.0
LiMo(PO3)4,4.4002,-2.577959808300264,mp-25987,1,6.0
V2O3,0.0,-2.53454769325,mp-21579,1,0.0
Mg6CdCoO8,2.6072,-2.4854795999999992,mp-1031978,1,3.0
Mo2W2O5,0.0,-0.248286299444444,mp-1186090,1,0.0
Li3Co2(SiO4)2,0.3791,-2.406467211333334,mp-753099,1,0.0
CoH9C6(S2O)3,2.4625,-0.408475332049999,mp-600168,1,3.0
Al2Cr4O19,0.133399999999999,-1.3456281894,mp-1205208,1,0.0
Mn2Cu(PO4)3,0.0,-2.202584269155035,mp-2215927,1,0.0
Li3Fe2Ni5O12,0.0,-1.363819294696969,mp-759182,1,0.0
Sr2La2MnZnO8,1.553099999999999,-2.956322597173645,mp-1218782,1,2.0
Ca2FeRhO6,0.0,-1.862237863999999,mp-1375556,1,0.0
FeB12(HO6)4,0.016599999999999,-2.238038550243901,mp-1194745,1,0.0
CsCrF4,2.8606000000000003,-3.094748532720306,mp-27149,1,4.0
NdMoO2,0.0,-1.984852184375,mp-1209996,1,0.0
Li4MnO3,1.439899999999999,-1.969048336408046,mp-755396,1,2.0
FeB2C6(O3F4)2,4.2736,-1.79996607036232,mp-555698,1,6.0
SrMgFeO3,1.6425,-2.474432801666667,mp-2227860,1,2.0
Mg14NiSnO16,1.1565,-2.72622762015625,mp-1034997,1,1.0
Ba2Ti4Cr2O13,1.8433,-3.2473455444444452,mp-1228511,1,2.0
Ba6Ga2Co11O26,0.0,-1.841235779222222,mp-562771,1,0.0
NiSn2H12(OF)6,4.6485,-1.689408495648148,mp-735541,1,6.0
LiNi5(P2O7)4,0.0,-2.120689679654194,mp-27060,1,0.0
Na2Mo2O5,0.555099999999999,-1.880717815306514,mp-1099875,1,0.0
Na2FePCO7,2.373199999999999,-2.253276604783455,mp-1176399,1,3.0
SrCr10O15,0.0,-2.316224642115383,mp-19505,1,0.0
Ti3Ni3(TeO8)2,0.2915,-2.021471573055555,mp-771243,1,0.0
YFe2Bi2(SeO2)2,0.0,-1.588042840426136,mp-1022730,1,0.0
Ni3(BO3)2,0.0,-1.976881564393941,mp-18806,1,0.0
Li15(FeO6)2,0.019299999999999,-1.9115229358620691,mp-758099,1,0.0
NaLi15V16O48,3.0463,-2.403000111892242,mp-1101663,1,4.0
AlV4(CuO4)3,0.3937,-1.9817258185,mp-1264182,1,0.0
V2Si4O11,0.380399999999999,-2.958981837058824,mp-867855,1,0.0
Co3As2(HO)16,2.8832,-1.367692757972972,mp-1213858,1,4.0
Cr2Fe3P6WO24,0.0,-2.36034642188492,mp-774903,1,0.0
V8Sn16H85(C8O9)4,1.5383,-0.5964237413912431,mp-705959,1,2.0
MnFe3Ni2(PO4)6,0.0,-2.227576040160782,mp-780788,1,0.0
LiAlCrO3,2.1161,-2.606142341388889,mp-770544,1,3.0
Mg3V6Cd2Cu3PbO24,1.6862,-2.153091445256409,mp-1222758,1,2.0
La2CrMoO6,0.0,-3.006532805000001,mp-1223257,1,0.0
LiVCrO4,0.0,-2.460201116904763,mp-756218,1,0.0
Nd4V5(Si2O11)2,0.0,-3.206550373142856,mp-16891,1,0.0
LiNi(WO4)2,0.0,-1.909189315277777,mp-25291,1,0.0
NaV24O58,0.0574,-2.299582378570835,mp-760173,1,0.0
Fe3NiSn2(PO4)6,0.057799999999999,-2.280631920218255,mp-776178,1,0.0
FeCu2(SO4)2,0.0,-1.255421459230767,mp-1213365,1,0.0
Li2V4O5F8,0.0,-2.8045808774561403,mp-752634,1,0.0
Ca3MnO4,2.908,-2.956653652241379,mp-1227657,1,4.0
KMo2P3O13,2.6781,-2.46487879137782,mp-558283,1,4.0
Li4Ti3Co3(WO8)2,0.046799999999999,-2.419310604047619,mp-779751,1,0.0
Na2H8WO12,2.943699999999999,-1.297845875989504,mp-1201382,1,4.0
Mg14VCoO16,0.907,-2.85321512125,mp-1035122,1,1.0
SrLa3Ti2(CoO6)2,0.0,-3.117353510583334,mp-1218234,1,0.0
Li5Fe3Co2(PO4)6,2.3781,-2.379451374363094,mp-758132,1,3.0
MnZnBiO5,0.8458000000000001,-1.56246736786638,mp-1044195,1,1.0
KLu(WO4)2,3.2486,-2.690631258243055,mp-18719,1,4.0
Li2CrSiO4,3.0789,-2.613795254583334,mp-752766,1,4.0
Li4V3P4O15,2.4193,-2.605404694880952,mp-773115,1,3.0
Li2NiF4,5.1236,-2.780159261190476,mp-35759,1,7.0
P2W3O13,0.1452,-2.369710164126985,mp-27738,1,0.0
Li3Fe4P3H12O19,0.001599999999999,-1.8120029631446,mp-759221,1,0.0
Y4ZrMn5O15,0.0,-3.020267235386206,mp-1216458,1,0.0
NaMgFe(SO4)3,1.87,-2.114986096604406,mp-1173576,1,2.0
FeTeO3F,1.4996,-1.844531574027777,mp-558502,1,2.0
Li3Cr(CoO3)2,0.9438,-1.9085749475000011,mp-1275904,1,1.0
KCoH2CN4O7,0.7127,-0.058825180609375,mp-1212205,1,1.0
Li2Cr3FeO8,0.101899999999999,-2.117409557083332,mp-777653,1,0.0
La2MgCrO6,1.138099999999999,-3.209736323499998,mp-1233043,1,1.0
Rb(WO3)4,0.0,-2.234417720702614,mp-706249,1,0.0
Na4W(NO)2,1.9524,-1.112864384501915,mp-19125,1,2.0
CoH8S2(NO2)4,0.9827,-0.9854558793478272,mp-1226417,1,1.0
Li4Ti2Mn3Co3O16,0.7902,-2.161720211921183,mp-861729,1,1.0
FeCu2SbO6,0.357,-1.412616166249999,mp-1225111,1,0.0
Li4Mn5V3O16,0.6207,-2.239635237249591,mp-773194,1,0.0
CoHO2,0.0,-1.3021709928125,mp-27913,1,0.0
Li8Fe7Te(PO4)12,0.030899999999999,-2.413536943671679,mp-1176834,1,0.0
NdMoO5,0.338099999999999,-2.4952316432142863,mp-1210103,1,0.0
KNaMo(OF2)2,2.229899999999999,-2.546651936514367,mp-975958,1,3.0
BaAlCuWO5,0.0,-1.946002060555555,mp-1044976,1,0.0
MgV4(FeO6)2,1.3899,-2.244597197631579,mp-2230701,1,2.0
Hf3Tl10Mo12PbO48,2.8327,-2.074633520045076,mp-705900,1,4.0
V(CoO2)2,0.1323,-1.749845271309522,mp-530941,1,0.0
MgMo2(PO5)2,1.297599999999999,-2.5029965749523813,mp-2228683,1,1.0
BaNb4(FeO7)2,2.3473,-2.712473551428571,mp-1096881,1,3.0
SrCa3V4O12,0.8810000000000001,-2.924197174,mp-1218581,1,1.0
SrFe12O19,1.140199999999999,-1.731081362812499,mp-3742,1,1.0
SrCa7Mn8O22,0.0,-2.50575132943285,mp-1268192,1,0.0
CaCo(GeO3)2,1.2006,-2.2812540775,mp-1043203,1,1.0
Na4Ni3P4O15,3.8566,-2.374958929003409,mp-560780,1,5.0
Mn2VO4,0.0696,-2.200187375123153,mp-531700,1,0.0
Ca9Fe(PO4)7,1.7533999999999992,-3.166883730166666,mp-554104,1,2.0
Ba2HoMoO6,0.0,-3.046044359499999,mp-1205837,1,0.0
K4Mg(WO4)2,1.3497,-1.993334986933333,mp-2241494,1,2.0
Mn3Cr3(SnO8)2,0.8681999999999991,-1.889329389324712,mp-771095,1,1.0
V2Cu3(Bi2O7)2,0.026299999999999,-1.706007219130435,mp-557876,1,0.0
Tl3FeF6,2.6238,-2.278096453,mp-1205667,1,3.0
Li3Cr2(AsO4)3,2.670199999999999,-2.072398058499999,mp-779404,1,4.0
Fe3MoC11SeS3O11,2.1224,-0.5846735721614591,mp-683831,1,3.0
V5O12,1.0797,-2.320203241176472,mp-778252,1,1.0
CaYMn2O6,0.0,-2.7689539160862062,mp-1227126,1,0.0
Co6O5F7,0.0,-1.709022001111111,mp-752440,1,0.0
Sr2La3FeCo4O15,0.0,-2.3853114196,mp-1218816,1,0.0
Co2H2CO5,2.365199999999999,-1.4443361265,mp-1202876,1,3.0
FeSeO5,0.312,-1.097326966049106,mp-1104227,1,0.0
Bi13Mo6(AsO14)3,2.5928,-1.830304102070313,mp-1228534,1,3.0
LiVTeO5,2.7905,-2.0766940428125,mp-1181006,1,4.0
YCu3(MoO3)4,0.3667,-1.8837956219999992,mp-1045838,1,0.0
Sr2YCr(CuO4)2,0.0,-2.360295351428572,mp-1218600,1,0.0
Ce2Fe(SeO)2,0.0,-2.465926162098213,mp-1078159,1,0.0
Ca2ZnFe(SiO3)4,3.2058,-3.021150068749999,mp-1227662,1,4.0
Li3Mn2P2O8F3,0.0,-2.6194633644526553,mp-1290947,1,0.0
Ba4Y2Cu4W2O17,0.0,-2.383165223275862,mp-741593,1,0.0
Cr3Pb5ClO12,0.5851000000000001,-1.707110170476189,mp-1213842,1,0.0
Na2V6O13,0.0,-2.40606982275041,mp-753267,1,0.0
Li4CrCo3(PO4)4,1.135899999999999,-2.41581284042517,mp-757257,1,1.0
PrCrO4,0.297199999999999,-2.726160331111111,mp-18863,1,0.0
SrEuZrFeO6,0.0,-2.9694834675000013,mp-1520461,1,0.0
Mg14MnBiO16,0.0,-2.698914144622844,mp-1036154,1,0.0
MgCr2(IrO6)2,0.0,-1.339985829117648,mp-2228995,1,0.0
Mg3AlFe(SiO4)3,2.450999999999999,-2.88276278025,mp-699146,1,3.0
SrLaMnFeO6,0.1239,-2.682492377793102,mp-1218252,1,0.0
Dy2Mo8O33,0.0236,-1.61917940635659,mp-1198422,1,0.0
Li2Fe2(SiO3)3,2.8911,-2.651608864791667,mp-1261131,1,4.0
La2ZrNiO6,1.9201,-3.144442355999999,mp-1079926,1,2.0
K3Na5V2(Mo3O10)2,0.0,-1.9747339134346271,mp-1076637,1,0.0
CaSi4(NiO6)2,0.0,-2.599321115263157,mp-1264011,1,0.0
CaMnBiO5,1.5535,-2.063325566616379,mp-1042623,1,2.0
NaSrVF6,2.5448,-3.533828349597701,mp-1210039,1,3.0
SrPrMnNbO6,0.7382999999999991,-3.00598780395977,mp-1522937,1,1.0
KMgFe(PO4)2,2.4804,-2.664561556464285,mp-1194865,1,3.0
BaVInWO6,0.0,-2.284228544666668,mp-1518364,1,0.0
CaPrCoO4,0.611799999999999,-2.708040257380953,mp-1227079,1,0.0
Li2Cr3O6,0.5722,-2.254454252878788,mp-758744,1,0.0
K2LiNiF6,0.0,-2.641061973783333,mp-1111147,1,0.0
ErCrO4,0.300399999999999,-2.784355649999998,mp-19240,1,0.0
Sr14Fe14O39,0.0,-2.277515534104477,mp-698670,1,0.0
LaFe5(GeO5)3,1.701099999999999,-2.080423667291667,mp-650954,1,2.0
Fe2P4Pb3O17,0.133,-2.1872542548489022,mp-1225206,1,0.0
Li10Mg12Fe(PO4)12,4.4817,-2.9216119874584052,mp-849374,1,6.0
RbMnPO4,0.0,-2.592141917510556,mp-556338,1,0.0
CsFeF3,3.424699999999999,-2.741391856597701,mp-555302,1,5.0
MgCr4(CuO4)3,0.0,-1.777060351749999,mp-1302062,1,0.0
TiFe3Cu2(PO4)6,0.0,-2.311330954755291,mp-775996,1,0.0
Mg2V9O13,0.0,-2.330398654374999,mp-1045970,1,0.0
SrLiNiF6,0.0,-2.990113115925926,mp-559663,1,0.0
TlVPO6,0.294699999999999,-2.102036179358467,mp-1198231,1,0.0
Li5Mn6O16,0.0,-1.8616880520093664,mp-758809,1,0.0
MnH4(SO5)2,0.0,-1.587162565760648,mp-772662,1,0.0
Li4TiCu2Ni3(PO4)6,0.050899999999999,-2.326652072113094,mp-776613,1,0.0
La4MnSe6O,0.0,-2.328155673499461,mp-16841,1,0.0
Sr2AlCrCu2O7,0.0,-2.260464093076923,mp-1043752,1,0.0
Li7Mn17O32,0.0,-2.049996266752873,mp-699179,1,0.0
K2FeP2H3(O4F)2,2.9297,-2.338775765418651,mp-1224019,1,4.0
LiMnOF2,0.9532,-2.6747602222528752,mp-776488,1,1.0
Mo17O47,0.0,-1.937681924531249,mp-285,1,0.0
RbNdMnWO6,2.6501,-2.624257397293102,mp-1105157,1,3.0
Mg2VWO6,1.7249999999999992,-2.610230057000001,mp-1047149,1,2.0
La2NiRuO6,0.0,-2.633363193,mp-19176,1,0.0
MgFe2S2(O4F)2,3.803099999999999,-2.196106457333333,mp-2232096,1,5.0
Mg(Mo3O8)2,1.1803,-1.8949065393478264,mp-1233165,1,1.0
FePH6NO5,3.5902000000000003,-1.50641145622449,mp-1281631,1,5.0
CsMoF7,3.4794,-2.808713502222221,mp-28936,1,5.0
Li2V2SnO6,1.8277,-2.303399334242424,mp-754074,1,2.0
NaPrCuWO6,0.0,-2.284303716804598,mp-1516899,1,0.0
CaEuV2O6,0.0,-2.8790875225,mp-1518366,1,0.0
Sr2MnP3O11,0.103499999999999,-2.961364052315213,mp-559244,1,0.0
Na2Cr2O5,0.0,-1.947786628639846,mp-1099683,1,0.0
Ba2Pr3(CoO3)5,0.0,-2.24062682,mp-1229013,1,0.0
Mg14TiCrO16,0.095399999999999,-2.8900997666666672,mp-1034067,1,0.0
Ca5Cr3O12,0.029099999999999,-2.7067932513749993,mp-21976,1,0.0
KVPHO6,2.421999999999999,-2.379009932439287,mp-735046,1,3.0
Co2S3(NO6)2,0.0,-0.857228205657894,mp-1213900,1,0.0
Li3Ni3OF7,3.6766,-2.4919661189285702,mp-753329,1,5.0
Ba3Ti3Fe3(BiO9)2,0.0,-2.425628873793104,mp-1228452,1,0.0
Ca2CrH2I2O11,2.9479,-1.778240452499999,mp-727552,1,4.0
Ba2SmCoCu2O7,0.0,-2.208653907692307,mp-1214586,1,0.0
Co3NiO8,1.1465,-0.9707674645833332,mp-752738,1,1.0
V(AgO)4,0.0,-1.057459651851851,mp-1207863,1,0.0
Pb5W3O9F10,0.0,-2.31645144648148,mp-1221334,1,0.0
RbCoCuF6,0.0,-2.203727652499999,mp-1219629,1,0.0
Sr2Ca6Mn7FeO24,0.0,-2.397113401637932,mp-1099788,1,0.0
CaCr2O6,0.275399999999999,-1.994758331666665,mp-1375444,1,0.0
MgP8(WO12)2,3.8568,-2.523506258061223,mp-1233126,1,5.0
RbMnO4,2.137099999999999,-1.469840426738501,mp-18301,1,3.0
KCa2Mg2V3O12,3.3434,-2.8361058408625,mp-1224080,1,5.0
MgFe2CoO7,0.0,-1.378584388295454,mp-1042681,1,0.0
MnH2SO5,3.3472,-1.804435337547893,mp-643427,1,5.0
CsVPO5,2.8884,-2.653014843349753,mp-1198694,1,4.0
Ba2Co(BO2)6,0.0,-2.865107833333334,mp-18735,1,0.0
Al2Mo2O7,0.5063000000000001,-2.326478674545453,mp-1262001,1,0.0
CoPHO5,0.5879000000000001,-1.737980412924107,mp-755227,1,0.0
V2CrO7,0.6825000000000001,-2.198481662249999,mp-773503,1,1.0
Li3Cr(FeO3)2,1.717299999999999,-2.094991399166666,mp-756692,1,2.0
NaNdFeWO6,2.4171,-2.5480660843879313,mp-1189143,1,3.0
Li4Ni3Sn3(SbO8)2,0.872499999999999,-1.944073769940476,mp-777462,1,1.0
K8Li3Mn4O16,0.0286,-1.824508837087876,mp-758155,1,0.0
DyNiO3,0.0,-2.501074798833333,mp-19265,1,0.0
RbSm(WO4)2,3.448399999999999,-2.657651141875,mp-1209136,1,5.0
Na3Mn2SbO6,0.8500000000000001,-2.0315296425,mp-985626,1,1.0
V2Ni(PO4)3,0.0,-2.49717771327381,mp-772873,1,0.0
CoNi(PO3)4,3.2203,-2.343543510753968,mp-540947,1,4.0
Fe2CoO6,0.0,-1.183482531666666,mp-753617,1,0.0
TlCr(SO10)2,0.0,-0.556657160243056,mp-1209098,1,0.0
NdTiCrO5,1.3246,-3.246325474479166,mp-1199036,1,1.0
MgV2Pb3O8,1.442899999999999,-2.054365844642857,mp-2240997,1,2.0
Li2Fe4Si4O13,2.9365,-2.548558446159421,mp-758011,1,4.0
Mo6H24C8N2O19,2.857199999999999,-0.954026189830508,mp-1199757,1,4.0
V2Cr3Sb3O16,1.4371,-2.097748622083335,mp-772143,1,2.0
MgMn(GeO3)2,1.5632,-2.329806196793104,mp-1043454,1,2.0
Sr3WO6,3.4987,-3.009926146499997,mp-755326,1,5.0
Li2Fe3O3F5,2.0061,-2.348568172820512,mp-849525,1,3.0
Na5CoCO5,1.3959,-1.663446971408046,mp-1221135,1,2.0
NaMn3Ag(PO4)3,0.0302,-2.379142602788381,mp-1210177,1,0.0
Ca7La3Ti5Cr5O30,0.0,-3.257029691433333,mp-744008,1,0.0
NaCaYWO6,2.8551,-2.8248962561379303,mp-1521011,1,4.0
PH3W(CO)5,2.9024,-0.632799704392857,mp-605052,1,4.0
Li4FeO3F,2.8051,-2.190993407037038,mp-780154,1,4.0
Na2CoAgF6,1.4033,-2.185827259442528,mp-1111334,1,2.0
NaCr2BiO6,0.0916,-1.881498348137931,mp-1120815,1,0.0
Li2V(SO4)2,3.567199999999999,-2.191077170705128,mp-759347,1,5.0
La2Co2Se2O3,0.0,-2.2415306077430572,mp-1079800,1,0.0
Fe8O17,0.0,-1.115156043999999,mp-1182503,1,0.0
MgMn2(SeO3)4,1.073,-1.6107683163282671,mp-2231769,1,1.0
MgFe2(OF)2,2.1112,-2.347607976428572,mp-2225985,1,3.0
SrEuDyMnO6,0.0,-2.896691844459771,mp-1517910,1,0.0
CaFe2P2O9,2.0735,-2.580595041556122,mp-1040941,1,3.0
Cs3VH8(Cl3O2)2,2.4005,-1.652601338134797,mp-644672,1,3.0
Co5BiO12,0.0,-1.049375884999999,mp-755838,1,0.0
K3NaMoC4(N2O)2,2.58,-0.5638624495419541,mp-1212132,1,3.0
Mn4ZnO6,0.0,-1.8807325010658311,mp-1042996,1,0.0
Cu3(MoO5)2,0.0,-1.396173429,mp-1192830,1,0.0
CaMn8(OF)8,0.0,-2.41288278933793,mp-1233270,1,0.0
NaMg30FeO32,2.6485000000000003,-2.9481917854903013,mp-1037628,1,3.0
Li3Cr2P5O18,0.0,-2.49238650565051,mp-26684,1,0.0
Fe3Co3(TeO8)2,0.0,-1.325348116388889,mp-761932,1,0.0
FeSiO3,2.7758,-2.577487781124999,mp-21939,1,4.0
PrV2IO9,2.5277000000000003,-2.293765612820527,mp-1198275,1,3.0
Rb2Ce2Fe4O9,0.0,-2.268622786470588,mp-1094097,1,0.0
Fe9O10,1.6184,-1.5020958310526311,mp-759037,1,2.0
CoSiO3,2.614699999999999,-2.45051476425,mp-699575,1,3.0
SrNbFeSnO6,1.796999999999999,-2.4489484315,mp-1518938,1,2.0
TeMo5O16,1.1411,-1.873891724962122,mp-27531,1,1.0
Li2Cr(PO3)4,2.822599999999999,-2.613525090933583,mp-697850,1,4.0
Mn3(PO4)4,0.0,-2.215851585537589,mp-697730,1,0.0
Ba2Cr2F11,0.429099999999999,-3.274423182777778,mp-1049253,1,0.0
Li3Ni4O4F3,2.241,-2.006737931071428,mp-752750,1,3.0
LiCr2(PO3)5,2.6793,-2.552454435067287,mp-25861,1,4.0
Be2Ni(NF7)2,1.0334,-1.570195767631578,mp-1215141,1,1.0
Ba3Mn2RuO9,0.198499999999999,-2.3629006387241382,mp-1228085,1,0.0
FeH24C2S2(N3O7)2,3.9827,-1.095906125306122,mp-1200723,1,5.0
Li8TiMn3(PO4)6,1.1976,-2.707943851229767,mp-768533,1,1.0
NaPrDyFeO6,0.340399999999999,-2.459909492471264,mp-1522047,1,0.0
NiH4(NO4)2,3.2376,-1.061345252666667,mp-1193552,1,4.0
LiTiCoF6,0.002899999999999,-3.066152468518518,mp-1211111,1,0.0
V6Zn3(FeO6)4,1.390399999999999,-2.0898772435135142,mp-542803,1,2.0
BaCaV2O7,3.2741,-2.915217995227272,mp-19484,1,4.0
Li2Fe2Si3O10,2.3524000000000003,-2.62243526009804,mp-766530,1,3.0
Rb2Mg(FeO2)2,1.3853,-1.644531326666666,mp-2217243,1,2.0
UVCuO10,0.0005,-1.30892434826923,mp-1196587,1,0.0
Eu2V2O5,0.003999999999999,-2.8211534861111143,mp-1099750,1,0.0
Na2Mo(H2O3)4,1.9423,-1.304862215228636,mp-1202861,1,2.0
Na2Mn2Si2O7,2.498499999999999,-2.640620402009283,mp-540871,1,3.0
La2Co2O5,0.0,-2.656410840555556,mp-1076438,1,0.0
Bi2WO6,1.913999999999999,-1.956552777222222,mp-23480,1,2.0
Li4Cr3Ni3(SbO8)2,0.0,-1.9455057944047611,mp-774232,1,0.0
Co6Te5O16,2.1733,-1.425609342808641,mp-562042,1,3.0
MgCr3InO8,0.7584000000000001,-2.051271311666666,mp-2218505,1,1.0
VP(HO)9,2.6738,-1.6886294286696422,mp-1197101,1,4.0
BaFeF5,3.7113,-3.344179041071432,mp-14999,1,5.0
Li4Cr3FeO8,2.3536,-2.293218064583333,mp-755721,1,3.0
BaYV4O7,0.0,-2.4732530134615383,mp-1048392,1,0.0
Er5Mg(MoO6)2,0.7666000000000001,-3.318729205749999,mp-2230038,1,1.0
CaV2(PO4)2,2.0737,-2.7930306001373633,mp-1049264,1,3.0
KFe(SO6)2,0.0,-0.8859208438906251,mp-818232,1,0.0
CrP2Pb5O13,2.1886,-2.091851693061223,mp-554745,1,3.0
Na2FeO3,1.8938,-1.651637902959769,mp-764074,1,2.0
LiVFeO4,2.2232,-2.210388556190476,mp-756201,1,3.0
Li2VP2HO8,2.129299999999999,-2.585221349264456,mp-754990,1,3.0
Li3Ti4MnO12,0.0,-2.81958487956322,mp-756540,1,0.0
MoP4C13O2,0.0,1.761550742321428,mp-1180604,1,0.0
Cs3VF6,3.1001,-3.104529692,mp-1206041,1,4.0
Li4Co5Ni3O16,0.0,-1.308706739404762,mp-772632,1,0.0
ReNi(PbO3)2,0.0,-1.625657261249999,mp-1205510,1,0.0
V3SiP5O19,2.0564,-2.730265087704081,mp-560988,1,3.0
V4As2O13,1.4928,-2.147247262631579,mp-28337,1,2.0
Fe3(PO6)2,0.0,-1.6199415114285711,mp-1181366,1,0.0
Li3Mn2(SeO3)4,0.7033,-1.737886894058909,mp-1211552,1,1.0
P4W3O14,1.635,-2.195933610408161,mp-1041213,1,2.0
NaMg14CoO16,1.3648,-2.812213131918104,mp-1035088,1,2.0
Ca2MnGaO5,0.0,-2.717583835603448,mp-630403,1,0.0
MgBi(WO4)2,2.3339,-2.188413657916665,mp-2218109,1,3.0
Mn2P3O10,0.1442,-2.503840145652709,mp-26978,1,0.0
MgAlFeO4,2.516,-2.7002392407142852,mp-1222041,1,3.0
MgWO6,1.2868,-1.5316205715625,mp-1202763,1,1.0
NaSrHfWO6,0.0,-2.93083650513793,mp-1516820,1,0.0
Li12V3CrP4(CO7)4,1.9742,-2.416355819395604,mp-766538,1,2.0
KNa(WO3)4,0.0,-2.178609371590517,mp-1516548,1,0.0
Li5V2Ni5O12,1.2516999999999991,-1.896376363611111,mp-756881,1,1.0
FeH12C4(N9O2)2,3.65,-0.428472732564102,mp-1213436,1,5.0
CaTiFe(PO4)3,0.0,-2.896108553736772,mp-39160,1,0.0
Sr18Fe6Ru3O34,0.0,-2.5402489511475412,mp-1173476,1,0.0
MgMnV4CuO12,0.5777999999999991,-2.235969695417423,mp-2230033,1,0.0
FeCu2As3O11,0.0,-1.120662936617647,mp-1204931,1,0.0
Ba4Sr4CoCu7O24,0.0,-1.721844599999999,mp-1099676,1,0.0
CaFeReO6,0.685099999999999,-2.256602484722222,mp-1343817,1,1.0
Ca4YFe5O13,1.0376,-2.493826706413043,mp-650518,1,1.0
Mg3Si3(WO6)2,2.1308,-2.709548628125,mp-1157231,1,3.0
K3VSO3,3.1383,-2.06444388803125,mp-561048,1,4.0
LiCr6P7O24,2.3798,-2.530631201469297,mp-504358,1,3.0
Na8Co2O7,1.412399999999999,-1.527247490502028,mp-778231,1,2.0
Na6Cr2As(CO4)4,0.0,-1.993497601750892,mp-770747,1,0.0
Li4Nb2Cr3Cu3O16,0.0,-2.125860550476191,mp-775290,1,0.0