formula,bg,formation_energy,mp-id,fidelity,bg_category
Ni8B3SbO15,0.0,-1.7673931225,mp-1220223,1,0.0
Sr3Fe2Br2O5,0.9887999999999992,-2.413766285416667,mp-23105,1,1.0
MnH6(SO4)4,5.2799,-1.665539751867815,mp-24071,1,7.0
CaNiBiO5,1.0234,-1.6537683959375,mp-1044575,1,1.0
V6F13,0.074799999999999,-2.986752309736842,mp-760168,1,0.0
K2MnH4(SeO5)2,2.3002,-1.33970091905887,mp-542385,1,3.0
LiCo3P4O15,0.6998000000000001,-2.144340652582815,mp-775872,1,1.0
KFeO3,0.5258,-1.26986237345,mp-1097023,1,0.0
K2UCoP2O11,0.0,-2.432932897869746,mp-1205017,1,0.0
TbVO2,0.0,-2.521285728541666,mp-1208383,1,0.0
Fe5(GeO4)3,1.6987,-1.8445098219999991,mp-1213223,1,2.0
P8W3O29,1.9218,-2.353570460928571,mp-776468,1,2.0
DyMoO4F,3.7538,-2.9978638091666663,mp-554213,1,5.0
K2W2O5,0.276799999999999,-1.795205629388888,mp-1097834,1,0.0
KCrF6,1.398,-2.618868484656249,mp-20076,1,2.0
KLa(WO4)2,3.8549,-2.681838703104167,mp-1211473,1,5.0
Na2FeHgF6,0.0,-2.306277580525862,mp-1111180,1,0.0
Rb8Th(MoO4)6,4.004300000000001,-2.339157032820512,mp-1195447,1,6.0
Mg2VO4,0.0,-2.7895048285714292,mp-30545,1,0.0
ZnFe2(CuO4)2,0.0,-1.065241350384615,mp-1041420,1,0.0
NaCo3P3(HO6)2,0.0,-2.145342439657518,mp-505246,1,0.0
Mn5FeO12,0.003299999999999,-1.67789142775862,mp-755276,1,0.0
Gd4Mo7O27,2.8488,-2.54450302388158,mp-704325,1,4.0
Na4VHO5,3.9961,-2.075926849706112,mp-554275,1,6.0
K2MoH(OF2)2,3.4815,-2.207352585825,mp-1211983,1,5.0
VCo2P2NO12,0.0,-1.852743505793651,mp-1203604,1,0.0
CaMnWO6,0.855699999999999,-2.313512528659004,mp-1290713,1,1.0
Na6TiMn(SiO3)6,2.804599999999999,-2.8744170074856332,mp-40374,1,4.0
Li7Mn7(P4O17)2,1.026199999999999,-2.441962941178453,mp-757472,1,1.0
V3P4H8N2O17,0.0,-1.959103424443277,mp-1217404,1,0.0
Li2Ni2SbO6,0.669,-1.707517661060606,mp-1639439,1,1.0
LiLa2TiCrO6,0.2176,-2.999418871515151,mp-1236061,1,0.0
Mg2MnNb2O8,2.6442,-2.935020601763927,mp-1046844,1,3.0
Cr2(Se2O5)3,0.018,-1.31387704517663,mp-562099,1,0.0
MgMn4(OF4)2,0.087499999999999,-2.733988857114943,mp-2232132,1,0.0
La2CoNiO6,0.9971999999999992,-2.572758715,mp-1223259,1,1.0
LaMn2O5,0.0,-2.630964337920259,mp-21444,1,0.0
Mo3P5Pb3O23,2.5385,-2.355462252815125,mp-704436,1,3.0
Li3Fe2P2(CO7)2,0.0,-2.179918772795031,mp-768593,1,0.0
Ta2Zn2NiO8,3.6028,-2.533209058435898,mp-1046140,1,5.0
BaCo2(PO4)2,2.284099999999999,-2.563938020714286,mp-1194023,1,3.0
SrMgCo(PO4)2,3.0854,-2.837137632637362,mp-1046375,1,4.0
Ba2LaCrO6,0.478299999999999,-2.82807571125,mp-1522286,1,0.0
Cs2NaFeF6,3.841,-2.927675845568965,mp-504611,1,5.0
Mn(WO4)2,0.6865,-1.932043958902821,mp-1041563,1,1.0
Li5Fe2Cu3O10,0.0,-1.576931387833334,mp-771233,1,0.0
HfMo2Se8(Cl7O)2,1.1895,-1.129869867916667,mp-554217,1,1.0
FeTe6O13,2.3607,-1.508757643499999,mp-561036,1,3.0
Li3Mn8(OF3)4,0.7559,-2.676040814201788,mp-1661801,1,1.0
SrCa7Ti2Mn6O21,0.0771,-2.7907458896419692,mp-1247570,1,0.0
Mn3SnO8,1.3795,-1.8371205198994252,mp-753706,1,2.0
LiV18O44,0.0,-2.29458869941799,mp-774591,1,0.0
Ca5Dy3Ti5Mn3O24,0.5649000000000001,-3.349115810886495,mp-743698,1,0.0
BaMoO2,0.4629,-1.84755926625,mp-1214454,1,0.0
Ca4Al6CrO16,2.8012,-3.227927518888888,mp-1227669,1,4.0
Mg6SiNiO8,0.7695999999999981,-2.515497496875,mp-1031808,1,1.0
LiMoP4O13,1.4889,-2.480874908126567,mp-26401,1,2.0
K2V(PO4)2,2.74,-2.669670406445054,mp-18935,1,4.0
Eu2HfFeO6,0.0,-3.06860048,mp-1518318,1,0.0
PuMoBrO5,0.097499999999999,-2.098452422343749,mp-1195343,1,0.0
Na2FeAgF6,1.7821,-2.389226476442528,mp-1111331,1,2.0
BaVCdF7,2.5315,-3.298060462249999,mp-1214298,1,3.0
Ba2V2O7,3.4599,-2.922540033863607,mp-19474,1,5.0
Li2CrSiO5,0.2542,-2.53837112587963,mp-757461,1,0.0
NaCa9Mn(PO4)7,4.2717,-3.223491849387181,mp-16553,1,6.0
Y2(MoO4)3,3.9811,-2.667609437794116,mp-556937,1,5.0
Ni6P7O24,0.0,-2.210057838175675,mp-504372,1,0.0
Na2Mg(NiO2)2,0.0,-1.398765710862068,mp-2223893,1,0.0
MgMnVP2(HO5)2,0.888799999999999,-2.448884710277455,mp-1233018,1,1.0
CoSn2(OF)6,0.0,-1.212143514,mp-731595,1,0.0
Fe(IO3)3,2.0217,-0.978675665384626,mp-23069,1,3.0
Li6TiFe3(PO4)6,1.3866,-2.590617163279761,mp-758142,1,2.0
MnSb2(OF4)2,0.0,-2.121335534840849,mp-1194472,1,0.0
VP2(HO)6,2.8845,-1.473720878452381,mp-735524,1,4.0
Cs2AgMoF6,2.7943,-2.602620705097701,mp-1113226,1,4.0
LiMo3P3O13,1.238999999999999,-2.410802314113096,mp-1013898,1,1.0
Li3Al(CoO3)2,0.8599000000000001,-2.145772447499999,mp-1222590,1,1.0
Fe(NiO2)2,0.0,-1.308646009285712,mp-640147,1,0.0
FeB4O7,2.679799999999999,-2.5940361665972222,mp-1191380,1,4.0
Mg2Cr5(PO4)6,0.6837000000000001,-2.68177777480695,mp-1210760,1,1.0
ScBi3(MoO6)2,2.8937,-2.173871347222223,mp-1209046,1,4.0
CsNbV2O8,2.4885,-2.606237143929598,mp-1194659,1,3.0
Li16Mn15(CuO12)3,0.3626,-1.9788665590328411,mp-760337,1,0.0
Li4Mn3V3(WO8)2,0.8176999999999991,-2.307249125611659,mp-753065,1,1.0
Ca2Ni2SF6,3.2989,-2.612712613863635,mp-1246700,1,4.0
NiMoP2O9,1.4081,-2.205641923791208,mp-1043472,1,2.0
Hg2W2O7,2.0599,-1.711076903636365,mp-754961,1,3.0
ZnCo2(PO5)2,0.0,-1.806631868619047,mp-1044114,1,0.0
PrCu(MoO4)2,1.9748,-2.266644913055556,mp-555912,1,2.0
Li5Mn5(CoO6)2,0.5221,-1.96786204651341,mp-765629,1,0.0
ThV2O6,1.498199999999999,-2.971173456666667,mp-1208215,1,2.0
La7SmTi2V6O24,0.0,-3.259819543916667,mp-1099746,1,0.0
VH11C3(ClO2)2,2.5048,-0.8124150872023811,mp-1203718,1,3.0
Cr2CoH20N6ClO8,2.621,-0.879762962039474,mp-1199663,1,3.0
Li2V2O5F2,2.4599,-2.542927888333333,mp-764224,1,3.0
Ca2Mn(PO5)2,0.2117,-2.5529980098144502,mp-726714,1,0.0
MnPHO3,4.2461,-2.090856610012315,mp-1198455,1,6.0
TiCo5O12,0.0,-1.411462097407407,mp-756754,1,0.0
K2NiAuF6,0.0,-2.20911092745,mp-1111941,1,0.0
LiMg3(WO4)3,0.0,-2.414623001885965,mp-1211749,1,0.0
K4CrO4,0.0,-1.8507469771111111,mp-1211715,1,0.0
Li4Ti3V6O18,1.028,-2.722509049784948,mp-1177271,1,1.0
Li3Cu(NiO3)2,0.0,-1.4408710833333331,mp-754458,1,0.0
KMg6WO8,3.989300000000001,-2.419726872328124,mp-1031281,1,5.0
Li3Mn3(PO4)4,1.0438,-2.534774449898635,mp-26143,1,1.0
MnH4(OF2)2,2.5561,-1.86431511299373,mp-772667,1,3.0
Pr2CoO4,0.0,-2.920110816190476,mp-1207107,1,0.0
Fe(TeO3)2,0.3005,-1.396129417453704,mp-818655,1,0.0
FeRu(NF)6,0.0,0.606294874107142,mp-1213535,1,0.0
Li7Mn8O20,0.0,-2.014819921908045,mp-767763,1,0.0
TbVO3,1.439599999999999,-3.291628755333334,mp-554811,1,2.0
NiS2(NO7)2,0.0,-0.258376626578946,mp-1180178,1,0.0
Li2Cr3BiO8,0.0,-2.143834620119047,mp-756154,1,0.0
CaLaTiMnO6,0.2488,-3.261212056376437,mp-40866,1,0.0
NiH8S2(NO2)4,0.779,-0.952631905,mp-1220589,1,1.0
Na2TbPWO8,4.7698,-2.800215352428317,mp-1199562,1,7.0
Na3Cr(Mo3O16)2,0.1672,-0.971995065812807,mp-1201927,1,0.0
MgV4SnO12,1.4647,-2.325838688333333,mp-2233097,1,2.0
Ba10LiW7O30,1.526,-2.7072173973611102,mp-772977,1,2.0
BaZn(FeO2)4,0.0,-1.80950839642857,mp-1044403,1,0.0
K2CoO2,0.1699,-1.4238854814,mp-28890,1,0.0
TlFeO3,0.7036999999999991,-1.356483360166667,mp-505819,1,1.0
Fe4Te2(CO)11,0.2195,-0.425090320922619,mp-624762,1,0.0
Li4Ti3Cr2Fe3O16,0.0,-2.489963857619047,mp-771902,1,0.0
Li3Fe10O7F9,1.9136,-2.088504366551723,mp-761203,1,2.0
Ca2Al4Si8(W3O8)3,0.0,-1.80576648893617,mp-1214742,1,0.0
Na3Mn2CuH10S4O17,3.905599999999999,-1.623960138445945,mp-1221479,1,5.0
NaCoPCO7,0.0078,-1.922659636911105,mp-1101670,1,0.0
Na3MnPCO7,2.079099999999999,-2.3599898335932172,mp-19261,1,3.0
MgMn3CoO8,0.8047999999999991,-1.919405044522546,mp-2219747,1,1.0
Li4Ti3Nb2Fe3O16,1.5852,-2.738667987797619,mp-775999,1,2.0
Rb2Mo4O13,3.1604,-2.059111636052632,mp-1209549,1,4.0
Mg3Fe2O7,0.3942,-2.157812779583333,mp-1378205,1,0.0
CaCr2F10,2.412899999999999,-3.017364530769231,mp-1385157,1,3.0
La4MgGa2(FeO6)2,2.4268,-2.878020214285714,mp-1233257,1,3.0
K2MnV14O40,0.0,-2.095583089340896,mp-1195076,1,0.0
K4Na4Mo7WO24,0.0,-2.081563687362931,mp-1076546,1,0.0
Li2VP2O7,2.9171,-2.672170341954364,mp-754669,1,4.0
Mg30CoCO32,0.877799999999999,-2.807297051328125,mp-1036880,1,1.0
ZnFe8Co3O16,1.5578,-1.614646970357142,mp-1215842,1,2.0
Na3MnBSO7,2.428099999999999,-2.235364233364279,mp-773188,1,3.0
CeTl(MoO4)2,0.0,-2.337175675486111,mp-1213849,1,0.0
Fe2ClO3,0.0,-1.121750620833333,mp-1103030,1,0.0
Mg30CdCoO32,1.245099999999999,-2.90092868234375,mp-1036927,1,1.0
SrCaYVO6,1.6094,-3.083408752000001,mp-1520379,1,2.0
Li3CrSiCO7,3.1997,-2.498921508269231,mp-774236,1,4.0
Co3P2O9,0.0,-1.91801425994898,mp-1202222,1,0.0
LiMn2P2HO8,3.6242,-2.432800044623651,mp-755339,1,5.0
La2Mn2O5,0.0461,-2.9399408373180083,mp-1099627,1,0.0
MgFe3O7,0.0,-1.449420020227272,mp-1044387,1,0.0
CoAg(NO3)3,2.480299999999999,-0.8487503960118931,mp-562172,1,3.0
MgMn2(CuO4)2,0.0516,-1.44615300525862,mp-1041410,1,0.0
Ni4O3,0.0,-0.613080739285713,mp-1094096,1,0.0
Li4Ti3Mn2Cr3O16,0.4319,-2.642338308185551,mp-778223,1,0.0
CaPr(WO3)2,1.4144,-2.568010211166667,mp-1044771,1,2.0
Na3NiPCO7,4.2779,-2.222635345483136,mp-770968,1,6.0
Ni7Te6(ClO9)2,2.7053000000000003,-1.3893078248484851,mp-555442,1,4.0
CaLaCrSbO6,1.4122,-2.787961126499999,mp-1667275,1,2.0
LiFePCO7,0.0259,-2.079139167997835,mp-1176697,1,0.0
LiMo2PO8,1.126799999999999,-2.274279622123015,mp-32123,1,1.0
Tm2V2O7,0.0,-3.259915154545456,mp-19036,1,0.0
Na5MoNO4,2.8972,-1.579880492445141,mp-554966,1,4.0
Ba12(CoO3)11,0.0,-2.058361398125001,mp-1195315,1,0.0
SrCo2H2(SeO3)4,2.629,-1.379030557708333,mp-735600,1,3.0
CrH10S2(NO2)4,0.506199999999999,-1.108422817299999,mp-753135,1,0.0
Sb2WO6,1.189099999999999,-1.961205790555554,mp-28918,1,1.0
NaMoP2O7,3.2076,-2.56320403869682,mp-18435,1,4.0
Li3Mn2Fe(BO3)4,1.2118,-2.402362691478579,mp-766489,1,1.0
LaMnO3,0.0,-3.009731305586207,mp-17554,1,0.0
NbFeF6,0.0892,-2.9860387975,mp-541138,1,0.0
CoNiP4(H8O5)4,2.98,-1.263399744975369,mp-1229196,1,4.0
CsV(SO4)2,0.0,-2.1913238158045982,mp-559316,1,0.0
Li5MnP2(O4F)2,1.627399999999999,-2.701533213734263,mp-758807,1,2.0
Li2MnP2O7,4.3532,-2.671244491990284,mp-1203394,1,6.0
Li4Cr5O10,0.0,-2.326938171754387,mp-753172,1,0.0
Gd2GeMoO8,2.4793000000000003,-2.9048386370833352,mp-1224706,1,3.0
Li4Mn2Fe3Co3O16,0.0,-1.686414589971264,mp-761441,1,0.0
Fe7Sb10(Br4O9)2,2.4551,-1.566406442790697,mp-1203691,1,3.0
VRu(NF)6,0.226399999999999,0.413573624107142,mp-1207895,1,0.0
Co(ClO3)2,0.0,0.114199228888888,mp-1181665,1,0.0
Li2Fe2C2O7,3.3943,-1.865567437243589,mp-759155,1,5.0
ZnFeSiO5,0.0,-2.092396290625001,mp-1255391,1,0.0
Ba4NbFeO8,2.7302,-2.904453096607143,mp-1022809,1,4.0
Fe6Ge2(CO)23,2.1928,-0.563401571574073,mp-653817,1,3.0
CaNi(GeO3)2,2.7331000000000003,-2.2760526775,mp-1043165,1,4.0
SrCaZrVO6,0.0,-3.180357429,mp-1519370,1,0.0
Cs2WO8,2.9976000000000003,-1.314754897664576,mp-1213748,1,4.0
Co2H26N12O13,2.0242,-0.646519916226415,mp-1204301,1,3.0
Sr2YTlNi2O7,0.0,-2.237367552948719,mp-1046045,1,0.0
Mn3Nb2ZnO9,1.905799999999999,-2.486674538252873,mp-557349,1,2.0
LiCo3P3O13,0.059199999999999,-2.045932699613094,mp-1013912,1,0.0
Li4FeTe2WO12,0.0,-1.9143475963333332,mp-775176,1,0.0
HfCrO3,1.7873,-3.103459338499999,mp-756322,1,2.0
YMn3O6,0.0,-2.37110215087931,mp-1045064,1,0.0
MgCr2(CuO4)2,0.0,-1.672737195576923,mp-1935909,1,0.0
NaVH2I2O9,3.0634,-1.410558748925287,mp-1193007,1,4.0
Na2TlCoF6,2.2651,-2.300214458609196,mp-1110620,1,3.0
Li4Mn3(CoO4)3,0.9449999999999992,-1.78893161964211,mp-1642421,1,1.0
Dy2MnNiO6,0.5364999999999991,-2.8550224766264383,mp-1104659,1,0.0
MnV2O7,0.5048,-2.007953910293102,mp-1189063,1,0.0
KTbSnWO6,2.084,-2.480637869391666,mp-1520163,1,3.0
Ba2YV3O8,0.0,-2.916394275714286,mp-1047835,1,0.0
Na2NiHgF6,1.7089,-2.2108729589,mp-1111162,1,2.0
SrLaVFeO6,1.2001,-2.849536051000001,mp-1218148,1,1.0
Mn4Be3Si3SeO12,3.1871,-2.749166153002953,mp-18554,1,4.0
CrFe2(PO4)3,2.0062,-2.379570877440475,mp-777476,1,3.0
Ba3Mo2(P2O9)2,2.391499999999999,-2.850849555502646,mp-554339,1,3.0
Li4Mn3F10,3.323,-3.01919104688979,mp-759565,1,4.0
K2W3O10,1.7366,-2.2581741993,mp-772962,1,2.0
BaLuFe4O7,0.0,-2.199277469358974,mp-1103986,1,0.0
NaLi2V3O9,3.0515,-2.390861973369732,mp-775412,1,4.0
SmFePO,0.0,-1.633765234910714,mp-505259,1,0.0
K10MnMo7O27,2.963399999999999,-2.103373845120691,mp-554698,1,4.0
BaNaSmWO6,2.92,-2.879206350137932,mp-1516632,1,4.0
Ba2CaV2FeF14,1.021399999999999,-3.58314929575,mp-1214736,1,1.0
Sr4Ca4TiMn7O24,0.0,-2.574826259221263,mp-1076561,1,0.0
Li2Fe2OF6,2.3338,-2.665471211060605,mp-755474,1,3.0
LuZn4FeO7,0.7772000000000001,-2.189462340512821,mp-1222463,1,1.0
NdEuHfFeO6,0.0,-3.136449568249999,mp-1520929,1,0.0
CaNiF6,2.1462,-2.578357005,mp-1323553,1,3.0
MgMo2(WO6)2,0.7705000000000001,-2.15473907735294,mp-2224454,1,1.0
Ca3Mn4BiO12,0.0,-2.341176747586206,mp-1227724,1,0.0
CaTiCr(PO4)3,2.4130000000000003,-2.986791975681216,mp-1044314,1,3.0
CaNiO2,2.166899999999999,-2.102208429374998,mp-1046307,1,3.0
Li2VBO4,1.9479,-2.546309413854167,mp-768177,1,2.0
Li4Ti2Mn5O12,0.411599999999999,-2.4576451745502252,mp-759589,1,0.0
LiMnP2(HO4)2,1.17,-2.296222867182149,mp-755468,1,1.0
Sr2CrInO6,0.0,-2.368671232666666,mp-1517551,1,0.0
LiCa3Fe5Sn3O16,0.8642000000000001,-2.179468234226191,mp-757592,1,1.0
Li2V(CO3)3,2.3592,-2.039725492111111,mp-758564,1,3.0
Li6Fe2P(CO4)4,1.3255,-2.108806774298028,mp-771083,1,1.0
Ca2Mn2Si4O17,0.0,-2.305174795234482,mp-1191515,1,0.0
LiMgVO4,3.482599999999999,-2.659056395476189,mp-560157,1,5.0
NiSb3XeF23,1.609299999999999,-2.127402873660714,mp-1195453,1,2.0
K4MoC5N6O,2.4596,-0.418379445676471,mp-705070,1,3.0
Mn3Nb2Co3O16,0.0,-1.886089394741379,mp-850531,1,0.0
FeH7C3NO6,3.893399999999999,-1.106030178263888,mp-1203197,1,5.0
K4CoP6O25,0.0619,-1.7963812681071412,mp-1211908,1,0.0
Li2FeWO6,0.0,-1.987055392666666,mp-774932,1,0.0
BaEu(WO3)4,0.0,-2.052436990277778,mp-1516333,1,0.0
MgV2(H2O3)2,0.9842999999999992,-1.897066986923077,mp-2219795,1,1.0
MgV3CoO8,1.025,-2.268465634230768,mp-2219453,1,1.0
Li4Fe3(SiO4)3,1.7632999999999992,-2.462228747765151,mp-1177429,1,2.0
Cr2WO6,1.609599999999999,-2.305236911666666,mp-19894,1,2.0
CaPrZrFeO6,1.9476,-3.0282782331666662,mp-1521801,1,2.0
ScV2O2,0.0,-1.160226016,mp-1209615,1,0.0
Sr2MgTiMoO6,0.156299999999999,-2.79244705621212,mp-2240169,1,0.0
Fe(Si2O5)2,1.182,-2.7275876848333342,mp-1043700,1,1.0
TmTl(WO4)2,2.731099999999999,-2.5121712036111132,mp-1207739,1,4.0
Rb4Fe8CuH6(Se8O25)2,1.0194,-1.456121522058823,mp-1202454,1,1.0
Mg3Fe2(Si2O7)2,2.0588,-2.804695020652173,mp-1263953,1,3.0
Nb2Fe4O9,2.021499999999999,-2.231729956333333,mp-1210013,1,3.0
CsV2P5O16,0.0091,-2.70310503449456,mp-504996,1,0.0
CoHRu(CO)6,2.2397,-0.813936280666666,mp-728942,1,3.0
CaFe8(OF)8,1.767599999999999,-2.107976666,mp-1233554,1,2.0
LaMgFeMoO6,1.3267,-2.353988540999999,mp-1044001,1,1.0
SrPrFeCoO6,0.0,-2.385984028166666,mp-1218109,1,0.0
SrCaCrBiO6,0.7929,-2.371309719,mp-1520712,1,1.0
SrVSi2O7,2.8547,-3.133475091363636,mp-19296,1,4.0
MnV(P2O7)2,1.0769,-2.499232703825122,mp-774043,1,1.0
Co2Hg2H3(SO5)2,0.471599999999999,-0.979782856118422,mp-1214084,1,0.0
Na4Zr(MoO4)4,3.6364,-2.305778072420689,mp-561158,1,5.0
Li8Fe7Ni(PO4)12,0.0,-2.368536380294486,mp-780776,1,0.0
LiMn7(O3F)3,0.0981,-2.182817185442528,mp-759358,1,0.0
Mn2NbV3(PO4)6,0.0,-2.661623351492199,mp-759695,1,0.0
Rb3FeF6,4.0898,-2.9028153082499992,mp-1113833,1,6.0
Ba10MgMn6(O12F)2,1.0335,-2.5391922491299113,mp-1233725,1,1.0
Ti6FeO16,0.0,-2.622961437826087,mp-1217466,1,0.0
Li20Co21O40,0.546999999999999,-1.68714979292181,mp-705640,1,0.0
Na8MgCr2O8,0.7363000000000001,-1.789295184001815,mp-2231606,1,1.0
NaV2(PO7)2,0.029,-1.717726796350791,mp-1180297,1,0.0
Na2(WO3)3,0.0,-2.159438586268474,mp-1221401,1,0.0
Co3P4H48(NO15)2,2.7396000000000003,-1.314140001592774,mp-1200029,1,4.0
La7Ta3(W2O15)2,3.5412,-3.269058061522727,mp-1223362,1,5.0
Li2MnFeO4,1.209299999999999,-2.036794229324712,mp-1177898,1,1.0
PrCr2O2,0.0,-1.1485374358333311,mp-1211150,1,0.0
DyY(FeO3)2,0.004599999999999,-2.834153474166665,mp-1225109,1,0.0
Mn2NiO4,0.0,-1.774506774408867,mp-36843,1,0.0
Ca8Mn7CrO20,0.2541,-2.540660425292144,mp-1247684,1,0.0
VFe3(PO4)6,0.0,-2.217459727289916,mp-774165,1,0.0
Li3MnF6,1.7214,-3.028254398293103,mp-760028,1,2.0
CaMn3Zn(SiO3)5,2.8848000000000003,-2.900469337951724,mp-1195724,1,4.0
MgV(WO4)2,2.0131,-2.343213707083334,mp-2218253,1,3.0
FeN2F5,0.0051,-0.503084851562501,mp-1213521,1,0.0
Sr2ScNiPO3,0.0,-2.412087461830356,mp-1189201,1,0.0
Sr2MnTeO6,1.4722,-2.511738971959771,mp-1208762,1,2.0
Ba2UCrO6,0.9356999999999992,-3.282478179999999,mp-1205611,1,1.0
LiNi2(CO4)2,0.2661,-1.194398912756411,mp-757925,1,0.0
Li3Mn2P5O16,4.202,-2.638230665926014,mp-26187,1,6.0
Ba2ZnMoO6,2.385199999999999,-2.540304109,mp-1206097,1,3.0
Li5V6O5F19,0.3494,-2.9602884459047623,mp-1177030,1,0.0
BaCo4O7,0.0,-1.3005097,mp-1345066,1,0.0
Rb2MgNi2W2(OF)6,2.1395,-2.320213093157894,mp-2230239,1,3.0
KMg14WO16,1.5868000000000002,-2.725679486164062,mp-1035811,1,2.0
Mn3H2Se3O10,0.181599999999999,-1.594668360740243,mp-24178,1,0.0
Ca2AlCoO5,0.0,-2.794079868333333,mp-1372050,1,0.0
Mg30BWO32,2.002799999999999,-2.837675439830729,mp-1038510,1,3.0
VHgO3,2.175599999999999,-1.788131403500003,mp-29188,1,3.0
RbDy(MoO4)2,3.6073,-2.546648039722222,mp-1209371,1,5.0
K2RbErV2O8,3.3886000000000003,-2.739897928714285,mp-1211720,1,5.0
K2Be3Ni2F12,6.1124,-3.083208955236843,mp-1212188,1,7.0
YWO3,2.2586999999999993,-2.7308813945,mp-1369924,1,3.0
RbNbV2O8,2.5161,-2.594877660208334,mp-1195415,1,3.0
Li2VCr3O8,1.0533,-2.387246063690476,mp-1177800,1,1.0
Li9V2P4HO18,0.4068,-2.581699100288866,mp-849392,1,0.0
KCaCrH10C6O17,3.3606,-1.620434781520833,mp-735489,1,5.0
Ho2Hf2(MoO4)7,3.1817,-2.586019559487179,mp-1212595,1,4.0
Ba3SrCa2(MoO6)2,2.2648,-2.886514551499999,mp-1228050,1,3.0
BaNdMg(CoO3)2,0.0,-2.221861661136363,mp-2240082,1,0.0
Cr5Sb3O16,0.273499999999999,-1.9912340733333331,mp-771316,1,0.0
Cr3O7,0.239299999999999,-1.718996839749999,mp-1044455,1,0.0
Mn2FeP2O11,0.236399999999999,-1.987966880634236,mp-1199538,1,0.0
K2NaCoF6,2.9932,-2.73241830858793,mp-1111105,1,4.0
V2Si2O7,1.8045,-2.894371363181818,mp-1273857,1,2.0
MnFeO3,0.8193,-1.824259613836207,mp-674482,1,1.0
Mo9O25,0.0,-1.936496298676471,mp-28777,1,0.0
Cs2CaV2O7,3.4021,-2.635270666817529,mp-1202328,1,5.0
YNi3Se2ClO8,1.3035,-1.683192531979167,mp-1048551,1,1.0
KDy(MoO4)2,3.5956,-2.5471512278263893,mp-1211686,1,5.0
Li8Cr3TeO12,0.9878,-2.149036955138889,mp-767678,1,1.0
Li3Co4O4F3,0.0,-1.9530607675,mp-760940,1,0.0
Rb2VAuF6,0.0,-2.5200214915,mp-1110581,1,0.0
MgV3(OF)4,1.2616,-2.928032040416667,mp-2218144,1,1.0
MgSb4(WO6)2,1.4817999999999991,-1.941420372894737,mp-2231000,1,2.0
TiV3Sb2(PO4)6,0.019,-2.5803313069775142,mp-1101307,1,0.0
Cr(NO3)5,0.0,-0.8307433573015871,mp-1178448,1,0.0
K2NaCrF6,4.2057,-3.116832699587931,mp-554252,1,6.0
PrV2O2,0.0,-0.900174576833333,mp-1209973,1,0.0
TlBi(MoO4)2,2.6848,-1.8472414331944451,mp-1208190,1,4.0
Li5VCr3O8,1.2556,-2.256098526862745,mp-760333,1,1.0
Sm(Mo4O7)2,0.0,-1.852868636086956,mp-28454,1,0.0
Co6C13(SO6)2,1.6518000000000002,-0.590727617121213,mp-622901,1,2.0
MgCo(Si2O5)2,2.9469000000000003,-2.9224088196875,mp-1043503,1,4.0
Sr5FeMo4O15,0.0,-2.532699091399999,mp-1218610,1,0.0
PW3O11,0.0,-2.3064757154761892,mp-29318,1,0.0
Ca3Mn2SbO9,0.1004,-2.561443479890804,mp-1227969,1,0.0
Ba2CeVO6,0.0,-3.171042035,mp-1517324,1,0.0
V2NO,0.0,-1.268616393750001,mp-690555,1,0.0
Ca6Co3RhO12,0.1344,-2.359387740454544,mp-1227118,1,0.0
Li3Cr2P2(CO7)2,0.0911,-2.324397854751551,mp-763241,1,0.0
Sr2TiMnO5,1.0056,-3.078760217362707,mp-1076627,1,1.0
CaHo(NiO3)2,0.0,-2.039905500499999,mp-1041234,1,0.0
MnBP(HO3)2,4.1606,-2.288084367355202,mp-1200751,1,6.0
CoPNO10,0.7028,-0.499838082664836,mp-1214243,1,1.0
CaMn2Cu3(RuO6)2,0.0,-1.6214159822931031,mp-1227234,1,0.0
Sr5La2Mn8(O3F)6,0.0,-2.757362289832007,mp-743681,1,0.0
CsVWO6,1.787,-2.308930576628352,mp-1225856,1,2.0
Na5Mn3F14,1.3818,-2.909546943440439,mp-28398,1,2.0
Li8Fe7P12WO48,0.0343,-2.463712781741855,mp-1176835,1,0.0
Li4Mn5Sn3O16,0.0,-2.067442550642447,mp-771907,1,0.0
Li9(NiO4)2,0.0,-1.701358826973684,mp-775731,1,0.0
Cr4CuO12,0.0,-1.488450762941176,mp-752836,1,0.0
K2Na2NbW3O10,0.120399999999999,-2.012919590194923,mp-1076206,1,0.0
Cs2MnHgF6,0.387399999999999,-2.614555661974138,mp-1112588,1,0.0
Ca8Ti3Mn5O23,0.0,-2.907621482427056,mp-1247666,1,0.0
Ca3Fe3(SbO6)2,0.0583,-2.337483338999999,mp-1214233,1,0.0
Lu2Co2O7,0.0,-2.450503338030305,mp-771384,1,0.0
NaCrH8(NF3)2,4.2236,-1.719106890632184,mp-976447,1,6.0
Mn2In2O7,1.048599999999999,-1.9003598490177631,mp-505751,1,1.0
KV3(PbO3)4,2.9891,-2.129240816862498,mp-1223484,1,4.0
V2Hg(P2O7)2,0.0,-2.520729114812924,mp-505236,1,0.0
Sr3Pr3Mn2Cu2O13,0.0,-2.6740871759070473,mp-1218561,1,0.0