formula,bg,formation_energy,mp-id,fidelity,bg_category
YVF5,2.691,-3.673272302142858,mp-1392327,1,4.0
Na2Th(MoO4)3,3.5214,-2.45649984098659,mp-1221303,1,5.0
Sr3La9Mn10(CuO18)2,0.0,-2.789676929071839,mp-698797,1,0.0
K2LiMnF6,0.0,-2.972153750576436,mp-1111670,1,0.0
Li6CoNiP2(CO7)2,2.848799999999999,-2.294567717087912,mp-756691,1,4.0
CoH4(CO3)2,1.96,-1.4072362575,mp-24296,1,2.0
BaFe12O19,1.2425,-1.73529611109375,mp-554293,1,1.0
LiLu4(CoO3)4,0.0,-2.551994226666666,mp-1235074,1,0.0
NaSrFeBiO6,0.0,-1.759574908137931,mp-1519031,1,0.0
Li4Ti3V2Co3O16,0.0,-2.469104426190477,mp-770621,1,0.0
Li2VCr2O6,1.320799999999999,-2.389671446363636,mp-849313,1,1.0
MgCo2(GeO3)4,1.2469,-1.9158289686842112,mp-2231473,1,1.0
ErFeC6N6O5,0.055699999999999,0.367393295789473,mp-1213524,1,0.0
SrDy(NiO3)4,0.0,-1.071333503425925,mp-1516331,1,0.0
CoAs4F18,3.4419,-2.433222992391305,mp-29758,1,5.0
SmMnSe2ClO6,2.6978,-2.099794565692593,mp-559195,1,4.0
Li5Mn5(SnO6)2,0.0986,-2.109538362346743,mp-771140,1,0.0
Sr7CaFe5(CoO8)3,0.0,-2.117596726499999,mp-1076062,1,0.0
BaZn(NiO2)4,0.0,-1.231658379999999,mp-1044577,1,0.0
Cs2W3SeO12,3.2939,-2.112789730925227,mp-18371,1,4.0
La2MgFeO6,0.5422,-3.00154486,mp-1272866,1,0.0
TiMn3Cu2(PO4)6,0.0,-2.352840376249544,mp-1101271,1,0.0
Li5Ti2Fe5O12,1.5550000000000002,-2.280244897638888,mp-756825,1,2.0
Mg14MnCoO16,1.4029999999999991,-2.8489367227478453,mp-1036235,1,2.0
Ca5MnSi9(Pb3O11)3,2.816699999999999,-2.7703193511040523,mp-651786,1,4.0
SrV10O15,0.9045,-2.512259845961538,mp-19509,1,1.0
LiCoAsO4,1.4055,-1.8227040079761911,mp-20046,1,2.0
KRb2CoF6,0.0,-2.7180167332250003,mp-560071,1,0.0
SrMnInWO6,0.0,-2.19414132845977,mp-1522574,1,0.0
CaZn2(FeO2)4,1.533,-1.664928548666666,mp-1233230,1,2.0
K2Al4Fe5Si5(HO6)4,1.054199999999999,-2.200435917261363,mp-685130,1,1.0
Fe3Si2O9,0.0,-2.141888595000001,mp-1193684,1,0.0
Zn3Mo3O8,1.180499999999999,-1.8084363500000011,mp-1100825,1,1.0
Rb3FeMo4O15,0.0,-1.936756411304348,mp-1199199,1,0.0
VNi5(PO4)6,0.0,-2.106247837996032,mp-768351,1,0.0
Mo2H33C13S2N4Cl3O5,2.226099999999999,-0.413643463084678,mp-1195191,1,3.0
SrCa2(FeO2)3,0.0,-2.291032122499999,mp-1218406,1,0.0
Li6Ni3Sn(PO4)6,0.0,-2.338771902821427,mp-1176956,1,0.0
Li2V(PO3)5,2.3301,-2.646454896733954,mp-540330,1,3.0
MnH(CO)4,2.793999999999999,-0.6410677694181031,mp-734199,1,4.0
CsFeCoF6,1.828,-2.679922508850574,mp-1226043,1,2.0
MnPH4N(OF)3,1.5509,-1.9334008328902992,mp-1197191,1,2.0
ScNiBO4,0.0,-2.794450316309524,mp-1219308,1,0.0
Fe3C9S2O9,1.9343,-0.5700196545652171,mp-652326,1,2.0
Cs2MoS3O,2.1503,-1.300489904544333,mp-1194448,1,3.0
LiEuYFeO6,0.0,-2.439296235833333,mp-1519180,1,0.0
LiMnV(PO4)3,0.9615,-2.503544866955162,mp-768544,1,1.0
Ca7MgMn8O24,0.0,-2.350744494961206,mp-1076485,1,0.0
Cr(CO)6,3.560499999999999,-0.8676144101923061,mp-647812,1,5.0
Li4Co5O12,0.0,-1.45202229611111,mp-759802,1,0.0
VS2NO9,0.0,-1.213944252692307,mp-735027,1,0.0
BaLa4TiCr4O15,1.9665999999999992,-3.227446001733335,mp-694938,1,2.0
Li3Co2RuO6,0.0,-1.702869288333333,mp-1222636,1,0.0
FeCSO7,0.8654000000000001,-1.620566087749999,mp-1178258,1,1.0
NaNbSnWO6,0.0,-2.183934782637931,mp-1519843,1,0.0
FeAsO6,1.886,-0.9445041990625,mp-1196271,1,2.0
Ni2P2O9,0.0,-1.658025806675824,mp-1044234,1,0.0
Li2Fe2(SO4)3,4.1485,-2.016949885877193,mp-777573,1,6.0
Na3FeBAsO7,2.0654,-2.115342865061891,mp-771393,1,3.0
Mg5V2(MoO8)2,2.8273,-2.5828453295333342,mp-646182,1,4.0
AgMo3(PO7)2,1.9584,-2.096760121047618,mp-17427,1,2.0
FeB10(H13O4)2,4.3224,-0.7043688376481481,mp-1203859,1,6.0
LiTi4VO8,0.0,-2.897457982619048,mp-753565,1,0.0
MnH4(C2O3)2,2.1937,-1.184296503528735,mp-1211095,1,3.0
NdFe6Bi(BO3)8,2.336,-2.410907275770834,mp-1220241,1,3.0
Eu2InFeO6,0.0,-2.303239613666668,mp-1518585,1,0.0
K3Fe5F15,0.0,-2.743160296163043,mp-1201518,1,0.0
Fe2S3(NO6)2,1.767399999999999,-1.053703703026315,mp-1213033,1,2.0
Sr2CdWO6,3.332,-2.618560415,mp-19014,1,5.0
FeP2H6NO8,2.0996,-1.69457229954365,mp-1225639,1,3.0
BaMgMoF7,4.7534,-3.50267215925,mp-1047848,1,7.0
Zn2NiWO6,0.0001,-1.772110101499998,mp-1275491,1,0.0
Li4Ti3Fe3(SnO8)2,1.1995999999999991,-2.499353323333333,mp-756308,1,1.0
Mg14VSiO16,3.151399999999999,-2.8106691490625,mp-1034449,1,4.0
NiOF,0.0,-1.205402673333333,mp-1147690,1,0.0
Ca2TaVO6,0.431499999999999,-3.254614706733334,mp-1373426,1,0.0
FeCo9O20,0.3016,-1.063038791333333,mp-771048,1,0.0
Mn3Co2Sn(PO4)6,0.0,-2.262633208240286,mp-758322,1,0.0
Li4Mn3V2Cu3O16,0.0,-1.858351523111659,mp-756039,1,0.0
Sm3FeO6,1.4942,-3.3350189425,mp-1105484,1,2.0
BaV2TeO8,2.6938,-2.399899590763889,mp-556790,1,4.0
CoTe6O13,2.716,-1.47371581025,mp-1198962,1,4.0
V2Pb4O9,2.912899999999999,-2.004045117333333,mp-647385,1,4.0
Li4Y3CrO8,3.3026,-2.984623385052083,mp-756514,1,4.0
K2Sm2Mg(MoO4)4,1.8645,-2.48793155998,mp-1233579,1,2.0
NaMn2(SO4)2,0.3342,-1.703204246710874,mp-1194228,1,0.0
Fe2NF6,1.8135,-1.7376558488888891,mp-1198504,1,2.0
MgMn4Cu2(PO4)6,0.373599999999999,-2.325029689853548,mp-1234087,1,0.0
Ba2Mn(AsO4)2,2.7135,-2.457532997148542,mp-558651,1,4.0
CsMnO4,2.2208,-1.489636837514363,mp-18994,1,3.0
RbVGa(PO5)2,0.6491,-2.36634515895238,mp-863294,1,0.0
Na4Co2P(CO4)4,0.0,-1.842213257598521,mp-771217,1,0.0
Mn4Se4O15,0.417,-1.353936735917354,mp-1199155,1,0.0
Li2Co(Si2O5)2,3.370399999999999,-2.8557932662745102,mp-1264368,1,5.0
ZnFe2O5,0.0,-1.2621362925,mp-1043265,1,0.0
NiF2,4.9116,-2.23065729,mp-559798,1,7.0
VCoH14(O2F)4,1.9759,-1.61872935,mp-1204593,1,2.0
MgMnF6,2.8029,-3.013671432866378,mp-1391800,1,4.0
Li4V2Si3O10,1.3892,-2.732972133333334,mp-766379,1,2.0
V2Cd2O7,2.5598,-2.076633188636363,mp-18740,1,3.0
MnV8O24,0.44,-1.882001562210032,mp-1211891,1,0.0
BaHo(CoO3)2,0.0,-2.1740156015,mp-1079686,1,0.0
CaV2(CuO4)2,0.2166,-2.114510688653846,mp-1041444,1,0.0
Li8Cr2O9,0.6961,-2.085889620219298,mp-770861,1,1.0
Na2FeSn(PO4)3,2.4688,-2.486617019825641,mp-1221475,1,3.0
Fe2Ni(PO4)2,0.0,-2.240946505329671,mp-17631,1,0.0
Ni(NF7)2,1.9538,-0.974040527058822,mp-27806,1,2.0
BaMnInWO6,0.0,-2.191957331459769,mp-1523111,1,0.0
Fe(CO)5,3.4783,-0.6835413481818191,mp-616561,1,5.0
Mn2Tl2O7,0.0,-1.493021963411704,mp-22354,1,0.0
Ho2WO6,3.643,-3.317423112222221,mp-775211,1,5.0
Dy2MnCoO6,0.391799999999999,-2.6560564936264353,mp-1237349,1,0.0
LiFeSiO4,2.9822,-2.536767287619047,mp-758562,1,4.0
Ba2NdMoO6,0.0,-2.982738908749999,mp-19389,1,0.0
NaV(PO4)2,1.8202,-2.525185704430418,mp-759218,1,2.0
Nd2MnAs2O,0.0,-0.297804153821841,mp-1209797,1,0.0
NdMn7O12,0.0,-2.235726351650862,mp-1210129,1,0.0
Li3Mo3(PO4)4,3.445599999999999,-2.50686125782967,mp-26351,1,5.0
LaZnCrMoO6,0.0,-2.440984663000001,mp-1049240,1,0.0
CsFeP2O7,2.4057,-2.5250215308128072,mp-20113,1,3.0
MgV4ZnO10,2.1797,-2.4498865665625003,mp-2224252,1,3.0
Na2DyPWO8,4.7314,-2.802022066082164,mp-1197813,1,7.0
Li6Nb3V3O16,0.664199999999999,-2.619443301428572,mp-776075,1,0.0
MnP2HO8,1.3029,-1.700991794872229,mp-1210948,1,1.0
Li4Nb2Co3Sb3O16,0.0,-2.081473275833334,mp-774912,1,0.0
Cr(OF)2,2.7,-1.84927018,mp-606313,1,4.0
Fe7Sb3P3(ClO6)3,0.0,-2.006358232468486,mp-1200389,1,0.0
Ca2CoAs2(HO4)2,1.872199999999999,-1.9460377275,mp-1214418,1,2.0
Li4Mn2OF7,0.9575,-2.8949881152996713,mp-753323,1,1.0
NaCaPrFeO6,0.0,-2.120986013304598,mp-1520029,1,0.0
Ba2MgCuMo2F14,0.339499999999999,-3.180903211,mp-1045901,1,0.0
BaMgMnF7,1.7811,-3.516194081543104,mp-1047862,1,2.0
SrV2(CoO4)2,2.1884,-2.259052480576923,mp-1195702,1,3.0
BaYInWO6,1.6116,-2.720576961666666,mp-1520192,1,2.0
Zn(NiO2)2,0.0,-1.230278035714286,mp-1047462,1,0.0
Mg14VCrO16,2.197000000000001,-2.8836373390625,mp-1034527,1,3.0
Cs2MoN(Cl2O)2,1.0733,-1.509915200431033,mp-1182795,1,1.0
Ta6Mn2FeO18,2.292699999999999,-3.051265765735633,mp-1218233,1,3.0
Dy2Cu(WO4)4,0.0,-2.482997972971012,mp-1213479,1,0.0
K2CoH12(SeO7)2,2.9128,-1.398038761102821,mp-1196625,1,4.0
Li4Fe3WO8,2.197799999999999,-1.989273714583332,mp-756528,1,3.0
CoH5SeClO5,2.9560999999999993,-1.253338922872596,mp-776636,1,4.0
CoH7C4(NO3)2,1.3106,-0.8474613534374991,mp-1204121,1,1.0
Co5P4(HO2)10,0.578399999999999,-1.836603335412087,mp-542935,1,0.0
Nb2Co4O9,0.0,-2.097964480333333,mp-31513,1,0.0
Na7Co3O8,1.372099999999999,-1.508714258036398,mp-776669,1,2.0
WO2F,1.6465,-2.32005222,mp-2675517,1,2.0
LiTiV3O10,1.8755,-2.533925881111111,mp-756940,1,2.0
V3(PO4)4,1.174499999999999,-2.595341590590062,mp-26588,1,1.0
Ni2Hg2SF6,0.0,-1.8490160375,mp-18626,1,0.0
KNa7V7CrO24,0.0,-2.162597169922628,mp-1076665,1,0.0
FeCoBi2(AsO6)2,0.0,-1.494440587500001,mp-1225216,1,0.0
Tl2FeC5N6O,2.4172,0.256736936888886,mp-654305,1,3.0
Mn7(PO4)6,0.0,-2.468798889820931,mp-770696,1,0.0
MnTeMoO6,1.721099999999999,-1.8678464282886331,mp-19090,1,2.0
Mg4Fe5(TeO6)3,0.5456000000000001,-1.919363099833334,mp-1046612,1,0.0
SrVClO3,2.189,-2.7373799945833333,mp-558871,1,3.0
MnH4(NO4)2,2.612199999999999,-1.1783720150287351,mp-1204140,1,3.0
LiMnH6O7,2.1661,-1.3219330789176251,mp-23785,1,3.0
Ga2CoP3NO14,0.169699999999999,-1.627782441615646,mp-1200913,1,0.0
Mn4(PO4)3,0.0,-2.489017405823827,mp-25970,1,0.0
Ba4La4Co8O17,0.0,-2.283805000303031,mp-1229302,1,0.0
HoV2O2,0.0,-1.240164448999999,mp-1212690,1,0.0
Mn3OF8,0.4559,-2.543746039482759,mp-850899,1,0.0
SrCaTiMnO6,1.536,-3.020582440626438,mp-1218391,1,2.0
Rb2MnH12(SO7)2,3.748199999999999,-1.651496561707452,mp-1196469,1,5.0
FeH8S2NO10,2.221,-1.4208196463636371,mp-1225445,1,3.0
MnP2HO7,1.6962000000000002,-2.351595590315159,mp-734805,1,2.0
Li3Cr4PO19,0.6109999999999991,-1.449355835542327,mp-729255,1,0.0
LiMnVP2(HO5)2,1.0341,-2.332317458414711,mp-753729,1,1.0
MnNb4FeO12,2.5194,-2.805095088496168,mp-1221858,1,3.0
MgCo(PO3)4,3.2528,-2.620924572976191,mp-1045773,1,4.0
Na2Cr2O7,2.5265,-1.852307996387146,mp-704459,1,3.0
Fe12O13,0.0,-1.444204812199998,mp-764326,1,0.0
Li3Ti(CoO2)4,0.0,-1.9663369014583332,mp-756324,1,0.0
TiMnFe(PO4)3,2.3036,-2.6945230677884973,mp-699376,1,3.0
Mg(Co2O3)2,0.298899999999999,-1.448538970454545,mp-1043200,1,0.0
Y2MgV2O8,1.7686000000000002,-3.083192293461538,mp-2218585,1,2.0
Na3V4(Bi10O21)2,0.0,-1.832328094697652,mp-1210725,1,0.0
K3FeO4,0.243299999999999,-1.5379639333437491,mp-28696,1,0.0
Li4Mn2Co3Sb3O16,0.203199999999999,-1.831042183899835,mp-770842,1,0.0
Fe2Ag(MoO4)3,1.1415,-1.761549528703704,mp-560130,1,1.0
Cr4AgBiO14,1.6986,-1.535249863083333,mp-23565,1,2.0
Sr5V3ClO12,3.945299999999999,-3.052969022857143,mp-556224,1,5.0
K2NiP2O7,3.400299999999999,-2.4037594841696412,mp-567227,1,5.0
Cr6PbO18,0.0,-1.283365906000001,mp-694897,1,0.0
Cr3Sb(PO4)6,0.0,-2.3355610484663862,mp-773143,1,0.0
LaFeMoO6,1.4188,-2.40167156,mp-1043944,1,2.0
FeCO3,0.0,-1.789342252,mp-18969,1,0.0
LiMnH4(SO5)2,1.045499999999999,-1.744798875070242,mp-1176828,1,1.0
Ba2Mn2Bi2O,0.0,-1.049723959408868,mp-556391,1,0.0
VNO6F,0.247599999999999,0.163043473888888,mp-1216861,1,0.0
Nd3MoO7,0.0354,-3.272352570227271,mp-557299,1,0.0
V11NiO18,0.6177,-2.423810526999999,mp-766394,1,0.0
Li2CrSn(PO4)2,2.1271,-2.459803939710884,mp-752553,1,3.0
Li4Co5Te3O16,0.0,-1.57677863297619,mp-781593,1,0.0
MgU2Cr2O16,0.0952,-1.883481243571428,mp-1198086,1,0.0
Rb2Mn(Cl2O)2,0.3581,-1.445645838103448,mp-1078743,1,0.0
LiMn5O7F,0.0,-2.141497738070608,mp-753411,1,0.0
Fe2P2O7,0.7385,-2.372593638571427,mp-1102399,1,1.0
Li4TiFe3Sn2(PO4)6,1.511699999999999,-2.530523049613096,mp-1177317,1,2.0
PrEuZrCrO6,0.021899999999999,-3.233817756666666,mp-1519575,1,0.0
Mg6CrSnO8,1.395,-2.5016109403125,mp-1031623,1,2.0
Cs2Te(MoO4)3,2.575599999999999,-2.001408935887612,mp-562767,1,3.0
Cs2KCrF6,4.287,-3.113987139656035,mp-560956,1,6.0
BaCr2(P2O7)2,3.1307,-2.79653768897959,mp-1192170,1,4.0
Li11Ti12(NiO8)4,0.051199999999999,-2.855145679096046,mp-760001,1,0.0
Cs4MgMn4H16(Cl3O2)4,1.2711,-1.50247238167433,mp-1234758,1,1.0
Li4V9O18,1.0621,-2.4343826894623652,mp-1177174,1,1.0
NaNiPO4,3.3393,-2.305945144074595,mp-776388,1,5.0
Li4Cr3Cu3(TeO8)2,0.0,-1.811136050238094,mp-770549,1,0.0
Li3Co2(CO3)4,0.7432000000000001,-1.8526756919047631,mp-1640104,1,1.0
Ba3V2Ni6(PO6)4,3.127399999999999,-2.443979860732602,mp-1228520,1,4.0
Li9Mn7O16,0.9314999999999992,-2.144572025797413,mp-1100541,1,1.0
Co5O8,0.0,-1.169614579999998,mp-761471,1,0.0
Mg2Cr2(SiO4)3,0.7938000000000001,-2.745695535657895,mp-1261423,1,1.0
K4Na4NbW7O20,0.6614,-1.909361760264366,mp-1099948,1,0.0
Sr3Y2FeCu3BiO12,0.0,-2.359301352272727,mp-1218551,1,0.0
Li2MnO2F,1.402699999999999,-2.487877149516282,mp-1280554,1,2.0
Li3Mn8O16,0.0,-1.9855160356832704,mp-531365,1,0.0
Cr2ReO6,0.080199999999999,-2.216127602500001,mp-21241,1,0.0
Ca3Cr3(AsO4)4,1.8614,-2.301503766923077,mp-1047487,1,2.0
Mn3Co3(TeO6)2,1.444999999999999,-1.658514854856322,mp-1221822,1,2.0
Sm2Mn2O7,0.975,-2.8170814059874583,mp-756215,1,1.0
Sr4LiMn2Cu3(SO)4,0.0,-1.841798973288634,mp-1235184,1,0.0
ZnCr2CuO7,0.2288,-1.5579233446969691,mp-1041817,1,0.0
Li13Mg(Ni6O13)2,0.0,-1.558443698429486,mp-769522,1,0.0
Ni3P4O15,0.0,-1.842904336071428,mp-1101501,1,0.0
FeCu2BO5,0.050899999999999,-1.62897110712963,mp-1225359,1,0.0
LuFeO3,0.0,-2.901636080666666,mp-1193395,1,0.0
SrCa7Mn6Cr2O23,0.0,-2.52427982622016,mp-1247633,1,0.0
Li4Ti5Mn4O18,0.9394999999999992,-2.7536899005394893,mp-766836,1,1.0
LiMn(CO3)2,0.904999999999999,-1.984233065876438,mp-1295192,1,1.0
Li3Fe(CuO3)2,0.098599999999999,-1.566039994166667,mp-755201,1,0.0
VP2O7,1.3194,-2.626824050928571,mp-26728,1,1.0
SrCeCrSnO6,0.127699999999999,-2.727758351499999,mp-1517421,1,0.0
Ca2W9O13,0.0,-1.212865875208334,mp-1378229,1,0.0
Ba2V3O9,1.5728,-2.8205224225,mp-32531,1,2.0
Li4Ti3Fe2Co3O16,0.2192,-2.270514088690475,mp-758015,1,0.0
Er4Mo4O11,0.0,-2.737091147236842,mp-16391,1,0.0
CaV4(NiO6)2,0.0,-2.237232340526316,mp-1233707,1,0.0
ScVO4,2.6851,-3.041869945833333,mp-19247,1,4.0
Li3NiF6,2.3599,-2.68679543025,mp-1211465,1,3.0
SrNd3(NiO4)2,0.5918,-2.815842635178571,mp-1218171,1,0.0
Tb2FeSbO7,1.3076,-2.737516973939395,mp-1217709,1,1.0
Sr3TaCoO7,1.0652,-2.930056257694444,mp-1298696,1,1.0
V(BiO3)2,0.0,-1.819856053055556,mp-1204532,1,0.0
MgNiF6,0.0,-2.385386819375,mp-1409292,1,0.0
Li16V3Ga13O32,1.748,-2.369667935950521,mp-774850,1,2.0
Li19Mn8C16(SO16)4,0.101699999999999,-2.047467546007042,mp-776592,1,0.0
CoHCO4,0.166899999999999,-1.452654910892856,mp-1022803,1,0.0
Ba2CoAg2(SeO)2,0.0,-1.432481649780092,mp-1078198,1,0.0
Cs2CoAgF6,1.8768,-2.318850262097701,mp-1113539,1,2.0
Li4Cr(TeO4)3,0.0,-1.889486811166666,mp-1177448,1,0.0
Li4Ti4Cr(Fe2O9)2,0.663899999999999,-2.496197868924732,mp-769457,1,0.0
Na5Mn11O24,0.0,-1.8283178256034491,mp-760866,1,0.0
MgMnNiP2O9,0.026899999999999,-2.374261912301196,mp-1043098,1,0.0
V4SnO12,2.5435,-2.231770928529412,mp-756857,1,3.0
Na6(WO3)7,0.0,-2.132158514213995,mp-867796,1,0.0
V8O,0.0,0.908732789444442,mp-714972,1,0.0
FeClO,1.9133,-1.492954021666667,mp-540828,1,2.0
CaFe8(O7F)2,0.0,-1.592429485999998,mp-1233028,1,0.0
VZn2SbO6,0.598299999999999,-1.96075379825,mp-1275528,1,0.0
MgMn2(MoO4)2,1.395,-2.079181530066313,mp-2218779,1,2.0
GaNi2BO5,3.072799999999999,-2.005459676296302,mp-505076,1,4.0
HfMg14FeO16,0.1553,-2.8399963403125,mp-1035541,1,0.0
Li4Fe3Cu3(SbO8)2,0.0,-1.6689839844047611,mp-764385,1,0.0
NiGeH12(OF)6,4.624499999999999,-1.712276203076922,mp-1173402,1,6.0
LiFeOF2,2.469499999999999,-2.518768028666667,mp-849274,1,3.0
BaMg(NiO2)4,0.0,-1.379032315357142,mp-2228542,1,0.0
CrCo3C16NO14,1.6084,-0.653957485714287,mp-648394,1,2.0
RbLiMnP3HO10,3.5241,-2.524671430526054,mp-760023,1,5.0
Na5V36O88,0.0,-2.31704451912323,mp-761084,1,0.0
ZrFeF6,3.2465,-3.49835055375,mp-562418,1,4.0
NaCaGdWO6,2.8136,-2.791639597137931,mp-1521963,1,4.0
Na3VBPO7,1.053999999999999,-2.585094013495957,mp-756707,1,1.0
Na4Mg(WO4)2,2.268399999999999,-2.074744051367815,mp-2232224,1,3.0
MnP2H9C2NO7,4.3048,-1.315221066521215,mp-1204234,1,6.0
Fe4Pb(CO)16,2.1306,-0.575112215405405,mp-652092,1,3.0
VSbO4,0.5192999999999991,-2.235131224999993,mp-29146,1,0.0
Co(PO5)2,0.0,-1.1903910045604391,mp-1213861,1,0.0
Li2Fe(CO3)2,4.1307,-2.007990744242425,mp-759605,1,6.0
Ba2CaY(Co4O7)2,0.54,-1.9498587542307704,mp-1228573,1,0.0
Li2Mn2SnO6,1.295799999999999,-2.095242284320794,mp-754419,1,1.0
Li2CrFeO4,2.0383,-2.177177298749999,mp-756242,1,3.0
ZrCrCu2(PO4)3,0.995499999999999,-2.510842703101504,mp-726391,1,1.0
LiNdGdFeO6,0.5916,-2.603742451333333,mp-1523057,1,0.0
BaNaEuMnO6,0.0,-2.110339325431036,mp-1519543,1,0.0
Li2MnSi4O11,0.063699999999999,-2.827900195810982,mp-757188,1,0.0
Mg6VFeO8,3.106899999999999,-2.699719025625,mp-1032499,1,4.0
ErMoO4F,3.7331,-3.001477765,mp-556766,1,5.0
YVO3,0.0,-3.2656779040000012,mp-18883,1,0.0
Na2HoPWO8,4.789,-2.8036797286462662,mp-1200859,1,7.0
K2CrH5C4S4N4O3,2.5372,-0.7865767940543471,mp-1195334,1,3.0
Li4Cr3Fe3(WO8)2,1.372799999999999,-2.144770536904762,mp-761030,1,2.0
NaCaMg3Fe6(PO4)9,2.1426,-2.582589787288661,mp-1173842,1,3.0
V3NiH48(SO10)4,2.0718,-1.450576111770832,mp-1217614,1,3.0
Ba2CaMn2CuF14,1.2563,-3.302105178293104,mp-1045850,1,1.0
AlW3Se2ClO8,1.4901,-1.705881104645834,mp-1045980,1,2.0
CsCrNiF6,3.2021,-2.8659248094061303,mp-1229022,1,4.0
Li2ZnFe(PO4)2,3.6034,-2.488912064889455,mp-756192,1,5.0
K2NaNiF6,0.0,-2.611750915587931,mp-556757,1,0.0
Eu2CoRuO6,0.0,-2.339215697000003,mp-1213340,1,0.0
Li4Mn2Ni3Sn(PO4)6,0.498399999999999,-2.381737971051313,mp-1177518,1,0.0
Na2CoPCO7,0.8442000000000001,-2.095554418533456,mp-770988,1,1.0
Y2MnCrO6,0.0,-3.092993584793103,mp-1189214,1,0.0
Ni9O10,0.0,-1.108309420526316,mp-656884,1,0.0
Li3FeBPO7,2.3438,-2.33503094029304,mp-756319,1,3.0
ZrFe(PO4)3,0.014899999999999,-2.567436242731092,mp-767499,1,0.0
Na3WO4F,4.4655000000000005,-2.368873922126437,mp-555842,1,6.0
MgV(CO3)2,2.9885,-2.2401821155,mp-2217161,1,4.0
AlFeO3,2.1792,-2.534268328,mp-1178577,1,3.0
Ba2CoO4,0.3179,-2.328969620000002,mp-16887,1,0.0
Th(MoO4)2,3.7356,-2.647793021704544,mp-4669,1,5.0
Sr8Nd2Fe5(MoO6)5,0.0,-2.585018410599999,mp-695057,1,0.0
CaCo6(OF5)2,2.3183,-2.208209176842106,mp-1234115,1,3.0
Cr9O13,0.7342000000000001,-2.038002178409091,mp-1045826,1,1.0
BaNaNdFeO6,0.0,-2.174832364887932,mp-1516692,1,0.0
CaCo5SbO8,0.0,-1.4957873546666671,mp-1234045,1,0.0
Li4Ti3Mn5O16,0.296699999999999,-2.536331334035304,mp-772971,1,0.0
Co8(BiO4)5,0.173,-1.185140948181818,mp-675023,1,0.0
BaPrEuWO6,0.235599999999999,-3.022443909166668,mp-1519531,1,0.0
YV(TeO4)2,1.5133,-2.288922011111111,mp-1194912,1,2.0
Sr3Fe2Ag2S2O5,0.0,-1.942875126666665,mp-1208725,1,0.0
LiNiBP2H6O11,0.0,-2.021527043982683,mp-1212004,1,0.0
Fe5OF11,1.2588,-2.444104868823529,mp-1178251,1,1.0
MnP2O5,0.3387,-1.686552138402093,mp-1200077,1,0.0
CoH7C3NO6,1.959299999999999,-1.074164292337963,mp-1195522,1,2.0
DyCr2O2,0.0,-1.163687818833332,mp-1213546,1,0.0
Li4Nb2V3Fe3O16,1.5942,-2.418863351190477,mp-762676,1,2.0
CaMgVO5,0.8268000000000001,-2.652710796874998,mp-1214024,1,1.0
Li24Ti11CrO36,1.5557999999999992,-2.91847836675926,mp-779361,1,2.0
Li3Nb2VO6,0.4979,-2.535134537708332,mp-773121,1,0.0
LiMo(PO3)5,1.6246,-2.508782130297619,mp-695791,1,2.0
Fe5HO8,1.103899999999999,-1.559502952946429,mp-1193306,1,1.0
K2LiMn2O4,1.1093,-1.801870873743934,mp-1290836,1,1.0
KRb2MnF6,1.704699999999999,-2.972165431018103,mp-1205717,1,2.0
Li5Mn2Ni3O10,0.181599999999999,-1.836374514626437,mp-754927,1,0.0
Li4FeNi3(PO4)4,3.0231,-2.390402855425171,mp-766022,1,4.0
Li2Ti2Mn3O10,1.1323,-2.545212362183907,mp-1273561,1,1.0
MgMn2P2(H2O5)2,3.2076,-2.218537334481462,mp-1233855,1,4.0
PrMgV2O6,0.894899999999999,-2.910620631666668,mp-1044527,1,1.0
Cs2U2Mo3O16,2.4566,-2.635036803991753,mp-572906,1,3.0
Ni5(P3O11)2,0.0,-2.050922819935064,mp-26314,1,0.0
Cs2MnH12(SeO7)2,2.775299999999999,-1.452761203126737,mp-1214073,1,4.0
AlCo3(SiO4)3,0.4352,-2.189463841578946,mp-1163946,1,0.0
MgMn2(AgO3)2,0.9213,-1.611514377654127,mp-2223323,1,1.0
Li2Mn2(Si2O5)3,3.2499,-2.93181058020115,mp-757647,1,4.0
LiNiSnO4,0.3588,-1.752339691904762,mp-756797,1,0.0
Na6Mo11O36,2.6103,-2.030994723175017,mp-581919,1,3.0
SrPrFeRuO6,0.0,-2.274469017666666,mp-1218067,1,0.0
K2AgMoF6,2.5573,-2.563260360616666,mp-1110842,1,3.0
LiFe2O3,1.555799999999999,-1.763118891388888,mp-1298536,1,2.0
CoH16C3N8O7,2.9437,-0.738497132285714,mp-744002,1,4.0
Li2V3O6,1.1285,-2.470883965151516,mp-752965,1,1.0
Li4Fe7O12,1.268599999999999,-1.798304625144927,mp-759241,1,1.0
Sr3MnBiO6,0.0,-2.580736265039185,mp-1208471,1,0.0
BaTl(CoO3)2,0.0,-1.119524638833334,mp-1046815,1,0.0
FeNiPO5,0.0,-2.077506058080357,mp-542158,1,0.0
LiV2P4(HO8)2,1.127,-2.402549486176191,mp-779002,1,1.0
MnFeO2,0.0,-1.435801359482759,mp-1221648,1,0.0