formula,bg,formation_energy,mp-id,fidelity,bg_category
Li3CrF6,3.9776,-3.152750621000001,mp-561396,1,5.0
Sr7CaTi5Mn3O20,0.0,-3.139446222582217,mp-1076202,1,0.0
Mn2H2SO6,2.7417,-1.8507025550783691,mp-24250,1,4.0
Li2CoOF2,0.1825,-2.491846323611111,mp-760048,1,0.0
MgFeAs2O7,1.911499999999999,-1.9848618138636351,mp-1042809,1,2.0
Ca4Mg3Fe(SiO3)8,4.1563,-3.260066760625,mp-1227644,1,6.0
La4Ni3O10,0.0,-2.716976697352941,mp-558316,1,0.0
CoSn3F6,0.460799999999999,-1.102152630499999,mp-1215120,1,0.0
Mn3B7ClO13,4.208299999999999,-2.666306990331657,mp-556656,1,6.0
Li7Co(O2F)2,1.2277,-2.197197502738094,mp-849470,1,1.0
Na6Mg(CoO3)2,0.9051,-1.577159278885057,mp-2233259,1,1.0
Na5CrO4,0.6585999999999991,-1.670308815564655,mp-780700,1,0.0
MoPbO3,0.0,-1.683171408999999,mp-1186106,1,0.0
VCr2Fe3(PO4)6,0.0,-2.419041582718253,mp-774917,1,0.0
KBaV5(H2O7)2,0.017199999999999,-1.652568149589999,mp-1212585,1,0.0
Nd2CoTe2(SO7)2,3.1295,-2.323884202063491,mp-1190341,1,4.0
Mn2SnC10(BrO5)2,2.4984,-0.833189956634483,mp-637502,1,3.0
CaLa2VO6,1.785899999999999,-3.375381797,mp-1385417,1,2.0
Ti5Ni(PO4)6,0.0,-2.85464059401455,mp-778504,1,0.0
Mg14NbCoO16,0.1714,-2.790955393125,mp-1035120,1,0.0
AsWO5,1.8533,-1.70954075392857,mp-1047270,1,2.0
TlCr2FeO8,1.858899999999999,-1.635725313611112,mp-1208083,1,2.0
CaV2O4,0.0,-2.801427047499998,mp-504712,1,0.0
Na3FeSiCO7,2.764699999999999,-2.292454339164456,mp-771204,1,4.0
Rb2Cr2O5,0.0,-1.838674209444444,mp-1076401,1,0.0
V2Cu3H6O11,0.0,-1.484980917386362,mp-721062,1,0.0
Li4V3Fe3(SnO8)2,1.0099,-2.189015332619048,mp-776806,1,1.0
Sr6Ca2Fe7CoO20,0.2066,-2.340144133472222,mp-1076884,1,0.0
KLi2Mn2O4,1.117999999999999,-1.908194573308748,mp-780874,1,1.0
Li2V2Cu(PO4)3,0.441199999999999,-2.483730046029762,mp-759398,1,0.0
LiMn(PO3)5,0.004,-2.4596806789535752,mp-1101538,1,0.0
ErVO2,0.0,-2.562434170625,mp-1212989,1,0.0
CoSb2(N2F3)3,0.4894,-1.093044251944445,mp-1227250,1,0.0
V12Cu10O33,0.4843,-1.76884941009091,mp-1100992,1,0.0
K5Na3(MoO4)4,4.3782,-2.171907860370997,mp-1223849,1,6.0
KEu(FeO3)4,0.0,-1.269353759013889,mp-1519988,1,0.0
BaMnSbF,0.0,-1.867510974482758,mp-1078949,1,0.0
Ba2Eu3Mn2(CuO6)2,0.0,-2.4517698205172422,mp-557447,1,0.0
VC4N2O11,0.133999999999999,-0.5777801625000011,mp-1202513,1,0.0
Mn2Cd3O5,0.0,-1.575338884086206,mp-760391,1,0.0
NaMn4(AsO4)3,1.1152,-1.968270862780172,mp-1210122,1,1.0
K2LiFeF6,3.9473,-2.975417636783333,mp-1112185,1,5.0
SrCa7Mn7CrO20,0.1993,-2.531297410083813,mp-1247650,1,0.0
BaYMnCuO5,0.0,-2.53389521032567,mp-1308658,1,0.0
MnHSeO4,0.360799999999999,-1.045058938789254,mp-1210724,1,0.0
CoH18N6(ClO)3,3.2102,-0.618187764758064,mp-1201414,1,4.0
Ti2Ni(PO4)3,0.158399999999999,-2.799099418921958,mp-771314,1,0.0
Rb2LiNiF6,0.0,-2.609514110833333,mp-1113709,1,0.0
Li5Co2Cu5O12,0.0,-1.3821921923611111,mp-771177,1,0.0
V(PO3)5,0.0,-2.413366240629251,mp-26152,1,0.0
NaAl3Fe6(SO19)2,0.0,-0.9621619725275852,mp-1181360,1,0.0
Mg2TaNiO6,0.0,-2.550171785233332,mp-1376265,1,0.0
MgV2(CuO3)2,0.5349,-2.004063396818182,mp-2224170,1,0.0
Ce2Mn2Se2O3,0.0,-2.433319412838839,mp-1078566,1,0.0
Rb4Te(MoO4)6,0.1006,-1.784514983904762,mp-1199659,1,0.0
MgCrF6,1.614099999999999,-3.114523169375,mp-554955,1,2.0
Ba2Co3O7,0.0,-1.64023794625,mp-1402976,1,0.0
RbFe5O8,1.4357,-1.5930232991071431,mp-768895,1,2.0
V2P4H3O16,1.2128,-2.275097747292857,mp-755425,1,1.0
SrLiCrF6,4.3642,-3.510632277037036,mp-1208634,1,6.0
Mn(NO3)4,0.1423,-0.88141888561359,mp-780939,1,0.0
Mn3V2Cr3O16,0.7050000000000001,-2.030839188491379,mp-773144,1,1.0
Li6V(OF)3,2.1076,-2.600934823076923,mp-861486,1,3.0
Na3VAsCO7,1.484999999999999,-2.06676183551061,mp-771270,1,2.0
Li2V2Cr(PO4)3,0.663099999999999,-2.572237618779762,mp-1177840,1,0.0
Li4Nb5V3O16,0.1318,-2.651487789761905,mp-770888,1,0.0
Co9O13,0.0,-1.003932737045455,mp-1343966,1,0.0
CrHgF6,0.0,-2.308362642812519,mp-558864,1,0.0
Co15O28,0.4962,-1.08509475116279,mp-766681,1,0.0
Na3W6N2O31,0.0,-1.052123363074713,mp-1212601,1,0.0
Ca3Zr2Fe2SiO12,2.6492,-3.132775534749999,mp-695062,1,3.0
Li9Mn7(PO4)12,0.0,-2.434190039095152,mp-778041,1,0.0
Co2I3(N2O)3,0.232299999999999,0.5752303107142851,mp-1194621,1,0.0
Li4Ni5Te(PO4)6,2.9686,-2.213238274696428,mp-774836,1,4.0
V2ZnO4,1.3106,-2.341038290952379,mp-1048867,1,1.0
MoP3Pb2O11,3.5617,-2.437991963613444,mp-554832,1,5.0
Sr2LiV2(Si2O7)2,0.6894,-3.033790610144927,mp-1235062,1,1.0
Li2Cr(H2O3)2,3.0725,-1.696262757820512,mp-505245,1,4.0
CrCuAsPb2O9,0.6524000000000001,-1.560037010535713,mp-1213944,1,0.0
Sr7CaTi5Mn3O24,0.0,-3.142417415761495,mp-1075948,1,0.0
Li2CuNi(PO4)2,0.0,-2.270798574353741,mp-767151,1,0.0
CaNdV4O12,0.0,-2.633858069305556,mp-1519252,1,0.0
LaMgCrMoO6,1.3459,-2.726271054500001,mp-1049205,1,2.0
K3V14O28,0.0,-2.469300894705556,mp-774428,1,0.0
SrCa7Ti3Mn5O22,0.061099999999999,-2.912933762885663,mp-1247696,1,0.0
Sr8MnFe7O24,0.0,-2.254760052448274,mp-1076445,1,0.0
Nb2WO8,2.3846,-2.532815379545455,mp-1046949,1,3.0
BaSrCeNiO6,1.190799999999999,-2.635558657999999,mp-1518458,1,1.0
LiMn3(OF3)2,0.7704000000000001,-2.6421389826772033,mp-753341,1,1.0
Ni(PO3)2,1.486299999999999,-2.380431134642857,mp-19135,1,2.0
Li2V2OF6,1.6348,-3.069434096515151,mp-753637,1,2.0
Ba2Mg(FeO2)4,0.0,-1.895480438999999,mp-2232179,1,0.0
RbMgFe(MoO4)2,0.7483000000000001,-1.973669487884615,mp-2218804,1,1.0
Na6TeMo6(H22O23)2,3.3242,-1.523472889902354,mp-1200032,1,4.0
RbLiVPO5,2.3554,-2.51211034005291,mp-758914,1,3.0
CuMo2O7,0.0,-1.649789195166667,mp-1041732,1,0.0
Rb2Cd2(MoO4)3,4.1251,-1.97545299118421,mp-1210143,1,6.0
Tl2CoF4,0.0,-2.1017444209523832,mp-1206757,1,0.0
CsMoIO6,2.6158,-1.640991870795019,mp-554274,1,3.0
NiSb(PO4)2,0.0,-2.182853807440477,mp-754291,1,0.0
Mg10(Fe3O8)3,0.0,-2.218309082558137,mp-34015,1,0.0
Ca5Si6W5O17,0.0784,-1.985950246515151,mp-1214286,1,0.0
FeBiO3,1.279099999999999,-1.672776781,mp-23501,1,1.0
NaLi2CoF6,3.085,-2.501523124804598,mp-1111550,1,4.0
K4MgV4O10,0.7029000000000001,-2.177483328105263,mp-2232080,1,1.0
CaVO2,0.0,-2.470800616250001,mp-1046296,1,0.0
Mo3As2O15,1.1219,-1.602470372,mp-1221944,1,1.0
Ti3FeCu2(PO4)6,1.440999999999999,-2.661499568829365,mp-776012,1,2.0
CrH12(CF)8,0.208599999999999,0.451193565344827,mp-1213766,1,0.0
Ni3P4H48(NO15)2,5.046699999999999,-1.332080011937602,mp-1203628,1,7.0
Li4Mn3Nb3(FeO8)2,0.352299999999999,-2.369134891325945,mp-762415,1,0.0
Ba2Mn3Tl2Zn2O10,0.0,-1.851130438445252,mp-2234160,1,0.0
KNi(BrO2)3,0.173,-0.523560410204545,mp-1212294,1,0.0
Ga2FeO4,0.5741,-2.064265934642857,mp-690544,1,0.0
Ti7Fe13O30,1.015299999999999,-2.3700788062666662,mp-1101107,1,1.0
MgFe2(CoO3)4,0.882599999999999,-1.3518917686842111,mp-2231797,1,1.0
NdCr2O2,0.0,-0.9936432295,mp-1210721,1,0.0
KNa(MoO3)2,0.0,-2.029428370862931,mp-1076831,1,0.0
CrP2O7,0.5948999999999991,-2.456210341428571,mp-26974,1,0.0
Mg6CdFeO8,3.7338,-2.557719983749999,mp-1032129,1,5.0
BaCeEuWO6,0.057,-3.0862584675,mp-1518915,1,0.0
RbFeO3,0.0,-1.164507126499999,mp-975322,1,0.0
CoSbO3,0.295499999999999,-1.068112115,mp-1183681,1,0.0
KNdMnWO6,2.6477,-2.651206464268102,mp-1105240,1,3.0
Li2Mn3NiO8,1.399299999999999,-1.950653339675697,mp-771112,1,2.0
MnFeC5N6O,1.394,0.18362229371921,mp-636959,1,2.0
MnH4(CO3)2,2.0943,-1.529960874840848,mp-23821,1,3.0
Li3P3WO11,3.9619,-2.5552004782738083,mp-758366,1,5.0
Li2NiP3O10,0.0,-2.375348690974702,mp-759146,1,0.0
Ca4TiMn3O11,0.0,-2.792046838006655,mp-1247725,1,0.0
MgMn(CO3)2,4.078900000000001,-2.225221826293105,mp-2217116,1,6.0
NaSr2MnO6,0.0,-2.028282391931034,mp-1522511,1,0.0
Mn3Ga2(GeO4)3,1.866099999999999,-2.146410063939655,mp-1211638,1,2.0
LiNd(WO4)2,3.6841,-2.642080600902778,mp-1211137,1,5.0
Rb2CoF4,0.0,-2.600321343571428,mp-559959,1,0.0
ZnFePO5,1.922,-2.182978319720983,mp-1207884,1,2.0
V4OF12,0.0,-2.974598109117646,mp-758958,1,0.0
K2MoO8,1.6859,-1.037081400863636,mp-559525,1,2.0
MgWF5,3.263,-3.046826014999999,mp-1387656,1,4.0
SrMg14NiO16,4.0966,-2.8354017540625,mp-1034783,1,6.0
MgCr2(FeO4)2,0.016599999999999,-1.724826997307691,mp-2219913,1,0.0
Rb4Mo5H4Se2O23,2.9553000000000003,-1.84462048828125,mp-1196754,1,4.0
LiFeP2(HO3)2,2.7734,-2.042332612093254,mp-1195117,1,4.0
Li4Mn2Fe3Sn3O16,0.6858999999999991,-1.9206551105069791,mp-1177473,1,1.0
SrLaMnO4F,0.0,-3.072911303803879,mp-1218175,1,0.0
BaTbNdFeO6,0.0,-2.814224132416666,mp-1517069,1,0.0
NaCo2P3O10,2.3732,-2.360503471269242,mp-759675,1,3.0
V2GePb5O12,2.7314,-1.98744018275,mp-1217012,1,4.0
Li3Fe(MoO4)3,2.304,-2.087210471973685,mp-1222986,1,3.0
Li4Co3WO8,1.9361,-1.897879435208334,mp-754232,1,2.0
Ba7Ca2Mn3V2O20,2.1808,-2.829841324523327,mp-560912,1,3.0
LiCaCoF6,0.0,-3.078052191481481,mp-555143,1,0.0
SrCaFe(PO4)2,3.991399999999999,-2.97432898686813,mp-1046496,1,5.0
Li4Ti3V2(Fe2O9)2,1.5484,-2.44505788123656,mp-768109,1,2.0
Cs2WSO4,0.4457,-1.485736262101293,mp-1226525,1,0.0
CaLa(CoO3)2,0.0,-2.1831188215,mp-1227082,1,0.0
Cr10Fe5O24,0.0,-1.9664549158974352,mp-771184,1,0.0
Ti3FeO7,1.2912,-2.917017173181817,mp-1103361,1,1.0
BaCaCrSbO6,1.2601,-2.567483896999999,mp-1516519,1,1.0
Co3BiO8,0.0,-1.120911605208334,mp-1178443,1,0.0
Na2MnInSi2O9,0.069899999999999,-2.270837548490422,mp-1180382,1,0.0
V2Cd5(P2O7)4,2.1237,-2.468999548538206,mp-1217403,1,3.0
NbMoO4,0.0,-2.535496439999999,mp-1220430,1,0.0
Zn3Fe4(BiO4)6,0.0,-1.381336785405406,mp-1043115,1,0.0
Fe2HgO4,1.1461,-1.362688660357143,mp-754491,1,1.0
Mg2Mn3O6,0.1394,-2.298740515799374,mp-1003485,1,0.0
CaU(MoO4)4,2.0852,-2.443331495227258,mp-556730,1,3.0
Cr3HgF6,1.1538,-1.64044621925,mp-1214307,1,1.0
Li5Fe6(BO3)6,1.6058,-2.309635864190476,mp-766637,1,2.0
Mg2Fe9O13,0.7421000000000001,-1.753005777291666,mp-1045982,1,1.0
Li2MnSiO4,2.176599999999999,-2.690084414012211,mp-559240,1,3.0
Sr2V3BiO11,2.781,-2.64590661,mp-556533,1,4.0
K4Hf3Mn(PO4)6,3.778299999999999,-3.000134102889163,mp-697304,1,5.0
Li2Si3NiO8,3.8704,-2.734116832261905,mp-757113,1,5.0
NiP4H16(NO8)2,4.443,-1.6608718573992671,mp-758839,1,6.0
Li5V7O12,0.242799999999999,-2.379098588194445,mp-764746,1,0.0
Li5FeO3F,2.5771,-2.153874175916667,mp-761250,1,3.0
Li4V3Fe2Ni3O16,0.539199999999999,-1.923734569047619,mp-780735,1,0.0
Sr3LaMnCrO8,1.2211,-2.95111440413793,mp-1218443,1,1.0
Li4Nb(FeO4)3,0.0,-1.765417127666666,mp-774238,1,0.0
VAsO5,2.1315,-1.946205387857143,mp-510763,1,3.0
SrLiLa3FeO8,0.9895,-3.095308892023809,mp-766044,1,1.0
NiPH6NO5,4.3435,-1.458528785510205,mp-735535,1,6.0
Ba2AlTlV2O7,0.0,-2.425441646025641,mp-1265780,1,0.0
LiAlFeO3,2.4018,-2.506567632638889,mp-756015,1,3.0
Eu3MoO7,0.0,-2.9206762750000013,mp-1213342,1,0.0
CsKMo4(P3O13)2,2.337,-2.464476342691114,mp-699557,1,3.0
NaNi2P3O10,3.914,-2.350393625956742,mp-761044,1,5.0
NaZr2NiF11,1.8738,-3.577501869758632,mp-554702,1,2.0
V12O29,0.5418000000000001,-2.283690791829268,mp-773019,1,0.0
RbNa2NiF6,0.0,-2.353891747025862,mp-1110622,1,0.0
CaPr(NiO3)2,0.0,-2.096811694166668,mp-1044733,1,0.0
Li11Fe12(BO3)12,1.0187,-2.3183690820657272,mp-766960,1,1.0
Ca2Nb2CrO8,1.669899999999999,-3.007563570769231,mp-1047030,1,2.0
V2Se2O13,0.1003,-0.733049582408088,mp-729904,1,0.0
Ba3VO5,1.2467,-2.894078152777777,mp-1214496,1,1.0
Nd3FeO6,2.080899999999999,-3.28377778625,mp-1186277,1,3.0
Sr2NiClO3,0.0,-2.343474359285714,mp-1104703,1,0.0
Li4FeBi(TeO6)2,1.0224,-1.7657390303333331,mp-776005,1,1.0
NiH36C12S6(I2O3)2,1.8746,-0.346205996153846,mp-766473,1,2.0
V2P3O11,0.6423999999999991,-2.640753043995536,mp-1244659,1,0.0
Li7Mn3Co3O16,0.085399999999999,-1.705705446107808,mp-759545,1,0.0
CoH10(SeO5)2,2.035199999999999,-0.930166158355978,mp-1182045,1,3.0
NaMnP2O7,0.8287,-2.526411064417823,mp-1192230,1,1.0
Rb7(FeO4)2,0.0,-1.528815732647058,mp-31512,1,0.0
MgV2Cr4O12,0.4767,-2.249407578684211,mp-2230584,1,0.0
Lu3Fe5O12,1.6766,-2.5530607265,mp-559750,1,2.0
Cs2TlCoF6,2.9239,-2.50312712826437,mp-1112565,1,4.0
Cr4Fe2O19,0.0,-1.0036767212,mp-1196629,1,0.0
K8Li9Cr4O16,0.762999999999999,-1.967919023459459,mp-850924,1,1.0
Li4Mn2Nb3Cr3O16,0.1076,-2.540496428185549,mp-867530,1,0.0
CaCr2(SiO4)3,0.0,-2.530685773055555,mp-1250522,1,0.0
Li12MnCr3P4(CO7)4,2.6193,-2.395400326855816,mp-1178079,1,3.0
Mn5H8S3O16,3.301999999999999,-1.709462598661098,mp-1202275,1,4.0
Sr5Mn5O13,0.0,-2.554798135854574,mp-603888,1,0.0
CrCo3O8,0.4768,-1.253708130833333,mp-861562,1,0.0
Li2Cr2P4H3O16,0.0,-2.335750929962523,mp-763238,1,0.0
K2Mn3V2(HO5)2,1.9596,-2.147237135831243,mp-762295,1,2.0
Mg3V2(Si2O7)2,2.0513,-2.999751579999999,mp-1250648,1,3.0
La7Sm(FeO3)8,0.8335999999999991,-2.704983934500001,mp-1076382,1,1.0
NaPrEuWO6,0.090499999999999,-2.8186476995545973,mp-1516834,1,0.0
LiFeMoClO4,3.0476,-1.956749722291666,mp-561410,1,4.0
SrLa3Mn3CrO12,0.3421,-2.927937594939656,mp-1218266,1,0.0
MgV6(FeO6)4,0.0,-1.9725267707142864,mp-1355442,1,0.0
MgNiMoP2O9,1.6919,-2.416451141556123,mp-1043146,1,2.0
Li2Fe3Co5O16,0.0,-1.308442652179488,mp-752817,1,0.0
Sr3CrF12,0.181899999999999,-2.7876251525,mp-1210197,1,0.0
CrAuO2,1.266,-1.62273908,mp-996996,1,1.0
FeH7SO8,2.2921,-1.481670656838234,mp-1213176,1,3.0
Sr4MgMn2(SO3)2,0.0,-2.483422983057471,mp-2228629,1,0.0
Cd(FeO2)2,1.8272,-1.617050185714285,mp-21333,1,2.0
Mn3Sn(PO4)4,0.1341,-2.452014197390189,mp-756099,1,0.0
Fe2H13C6NCl2O11,2.335,-1.109047792750001,mp-744001,1,3.0
Ba3FeGe5O14,1.597,-2.4607162315217392,mp-1214741,1,2.0
NaCoPO4,3.2132,-2.34385401836031,mp-562796,1,4.0
KLaNbCrO6,2.0549,-2.938738616224999,mp-1522297,1,3.0
Sr2GaFe2O7,0.0,-2.054834957708333,mp-1371485,1,0.0
LiV3OF11,1.4645,-2.979902225520833,mp-777269,1,2.0
Sr3V4CdO14,3.206099999999999,-2.705003647045454,mp-561266,1,4.0
Li2Cr5(Si2O5)6,1.6612,-2.858896840034013,mp-765349,1,2.0
ZnBiWO5,1.7322000000000002,-1.78119778046875,mp-1042736,1,2.0
SrLaTiMnO6,0.0,-3.261345454626437,mp-691117,1,0.0
VB(PbO2)4,2.9657,-2.026531270654761,mp-1201529,1,4.0
Mn3Ni3(TeO8)2,0.0,-1.4171345782136011,mp-756438,1,0.0
VZnF6,0.0,-2.823032161874999,mp-1392784,1,0.0
Li3FeOF4,2.3917,-2.761815898333334,mp-754295,1,3.0
Ti3MnCr2(PO4)6,0.0,-2.7660638946052263,mp-1101291,1,0.0
Sr2TiFeO6,0.0,-2.8805394425833333,mp-1218692,1,0.0
K2MoSO3,3.1004,-1.888405173142856,mp-1104220,1,4.0
Mn2P2O7F2,0.9245,-2.264842490203676,mp-770557,1,1.0
CsY(MoO4)2,3.9764,-2.559740210804598,mp-1213231,1,5.0
BaFe2F7,1.811699999999999,-3.102310879750001,mp-1214474,1,2.0
Rb5Er(MoO4)4,4.061100000000001,-2.365945834326924,mp-1199670,1,6.0
K4V5CuClO15,0.2673,-2.273027291692309,mp-560551,1,0.0
PrZn(WO3)2,1.2831,-2.230723381666666,mp-1044784,1,1.0
PrMn2O5,0.0,-2.595781837503592,mp-22802,1,0.0
Rb6Mg(FeO3)2,0.0,-1.500250355333333,mp-2226530,1,0.0
RbLiMoO5,0.4712,-1.697364793541666,mp-1204616,1,0.0
CaEuZrCrO6,0.0,-3.088078552499999,mp-1519369,1,0.0
K2UCr(IO6)2,2.141,-1.9427757006666664,mp-553996,1,3.0
BaCr4O8,0.0,-2.014097705384615,mp-1041288,1,0.0
LiVFe(P2O7)2,1.7188,-2.568229136281179,mp-752490,1,2.0
CeNi2N17O24,0.0,-0.050505166590909,mp-1196766,1,0.0
LiV6F13,1.9781,-2.928759198916667,mp-760005,1,2.0
NiB4O7,2.142299999999999,-2.535456436805554,mp-557107,1,3.0
MgMnPO5,0.0241,-2.636659642821736,mp-1280694,1,0.0
Li4Fe2Ni3Te(PO4)6,2.8717,-2.256037545696428,mp-1177446,1,4.0
BaV4O8,0.0,-2.395440216923078,mp-1041271,1,0.0
Li8Mn9O18,0.6379,-2.117269598229885,mp-759775,1,0.0
NaCaMgFe(SiO3)4,2.9279,-3.037103931693965,mp-1221075,1,4.0
Er2V10O53,0.0089,-0.996090503769231,mp-1238453,1,0.0
CoBi2SO7,2.244799999999999,-1.7479497363636372,mp-1195268,1,3.0
Li4Fe5P6WO24,2.0987,-2.373108686029761,mp-774930,1,3.0
LiCr6(OF)4,0.0,-2.062750807555555,mp-1235655,1,0.0
Co5RuO8,0.0,-1.308138256428572,mp-35690,1,0.0
MnH4S2O9,4.5401,-1.694412029870689,mp-505481,1,6.0
Li5Co7O3F13,1.976,-2.353306485595238,mp-849472,1,2.0
Na3FeO4,0.3186,-1.543383047079741,mp-764457,1,0.0
V3O2F5,1.4786,-2.910692034000001,mp-1101202,1,2.0
Li4Mn3Co3(NiO8)2,0.899,-1.580879527754516,mp-758046,1,1.0
Co3SbO8,0.0,-1.266479311250001,mp-757530,1,0.0
Ba2V2F11,0.9068,-3.45182685988889,mp-1040790,1,1.0
BaSrSmVO6,1.6407,-3.0945519385,mp-1517230,1,2.0
FeWO4,2.401,-2.022696756666667,mp-19421,1,3.0
Li4Mn2Fe3Sb(PO4)6,1.1094,-2.409767991426312,mp-776752,1,1.0
Co4Si(CO)14,2.5423,-0.766223979242424,mp-651279,1,3.0
Y2MnSbO7,0.434099999999999,-2.931267139811912,mp-1216107,1,0.0
GdNi(BO2)5,3.132,-2.853718377401962,mp-505232,1,4.0
CaCuW2O7,0.363999999999999,-2.034394212575757,mp-1041880,1,0.0
Li12(WO4)7,0.0,-2.219213294893617,mp-1210972,1,0.0
MgNi2O5,0.0,-1.104862696875,mp-1394225,1,0.0
ZnP2(WO5)2,2.7668,-2.214582261285714,mp-1044100,1,4.0
NaFeAsCO7,0.096,-1.70945102580721,mp-770821,1,0.0
K2RbCoF6,3.2015,-2.662046084199999,mp-1111385,1,4.0
Mn4Be3Ge3SO12,2.4229,-2.307096809966268,mp-21616,1,3.0
Li3P7W5O29,2.211699999999999,-2.465424308806817,mp-851107,1,3.0
Na3CoO3,0.8294,-1.5625870084482751,mp-31126,1,1.0
Ca2FeCuSO3,0.675999999999999,-2.117465202812499,mp-1105354,1,1.0
Cr3P6WO24,0.0,-2.422533893466387,mp-775219,1,0.0
TiNiO3,0.0,-2.5967176666666663,mp-18732,1,0.0
Li11Ti4Fe9O32,0.0,-2.092889603928572,mp-771347,1,0.0
Li2VCoO5,0.6361999999999991,-2.046620938518518,mp-758263,1,0.0
KV4Ag11O16,0.9235,-1.327608614236978,mp-553910,1,1.0
CaV2Bi2(PbO5)2,0.0,-1.923532232941176,mp-1234502,1,0.0
NbFeO3,0.0,-1.910904074999999,mp-1186220,1,0.0
Fe4O7F,0.0,-1.464719130833333,mp-780861,1,0.0
Li12Ni11O28,0.8900999999999991,-1.299669440980391,mp-759703,1,1.0
TiCo3O8,0.9972,-1.618431934444444,mp-1101280,1,1.0
KMo2(P2O7)2,1.1436,-2.5557522188486392,mp-1211413,1,1.0
MnBe2Fe2(P2O11)2,0.0088,-1.444627570532337,mp-1195414,1,0.0
ThCd(MoO4)3,3.5168,-2.364138134705882,mp-561023,1,5.0
Ce2Te(Mo2O15)3,0.0201,-0.713286547623456,mp-1229283,1,0.0
Na2MgMn4O8,0.508899999999999,-2.075096433965517,mp-2227237,1,0.0
KIn(WO4)2,4.3176,-2.135792368243054,mp-557734,1,6.0
MgV4Zn2O10,1.5314,-2.243042449117648,mp-2229119,1,2.0
Zn2Mo2O5,0.0,-1.393425374999999,mp-1346849,1,0.0
NaLiMnPCO7,0.875699999999999,-2.334686539773878,mp-760044,1,1.0
Li12Cr3FeP4(CO7)4,2.5199,-2.373983722664835,mp-766533,1,3.0
Fe3Pb5F19,2.9969,-2.671145758703703,mp-1213069,1,4.0
Li4NbFe3Cu2(PO4)6,0.1427,-2.366866301529762,mp-777855,1,0.0
V(SO4)2,1.3168,-1.920031615681818,mp-849323,1,1.0
SrMg30CoO32,2.0697,-2.93751602609375,mp-1037019,1,3.0
Al2Fe3(BiO4)3,1.781699999999999,-1.999028312,mp-1229137,1,2.0
K2MgCr2(H2O5)2,2.868699999999999,-1.872521814973684,mp-24835,1,4.0
Ca(Fe2O3)2,0.0,-1.8916754649999992,mp-27491,1,0.0
Li9Mn2AlO8,2.3726000000000003,-2.196633055418103,mp-770680,1,3.0
LaCoSbPbO6,1.5277999999999992,-2.228332163749999,mp-1223180,1,2.0
NaCaTbWO6,2.856599999999999,-2.8265727238045972,mp-1520168,1,4.0
As4W3O16,2.0997,-1.69846555152174,mp-1041770,1,3.0
Np2Co(O4F5)2,0.0,-1.873988046309523,mp-1201801,1,0.0
Li3(FeO2)5,0.459,-1.692278066666666,mp-752476,1,0.0
CsNd(MoO4)2,3.6679,-2.529240501846265,mp-1213270,1,5.0
NaMg3Al(MoO4)5,3.5484,-2.378230769045977,mp-542563,1,5.0
Li3Mo2P3O14,1.2828,-2.425664089553571,mp-699602,1,1.0
Sr3CaTi3MnO12,0.0,-3.270073866646552,mp-1099703,1,0.0
VZn2IO7,2.7456,-1.678447349090908,mp-1190901,1,4.0
SrCaMn(PO4)2,3.920099999999999,-3.056636314016672,mp-1046441,1,5.0
LiCo7O8,0.0,-1.278424718958334,mp-38489,1,0.0
Zn(W18O49)2,0.0,-2.129427962,mp-1217459,1,0.0
Y3Fe5O12,1.9136,-2.52611848025,mp-4704,1,2.0
La2ZnWO6,2.117,-2.866188211,mp-1445639,1,3.0
ZnCoSb2O7,0.526899999999999,-1.613297654090909,mp-1042576,1,0.0
K4Li5Cr2O8,1.079,-1.95143452082456,mp-1178153,1,1.0
K2UMo(IO6)2,2.2171,-2.008158812888888,mp-556764,1,3.0
DyFeH8C6(N3O2)2,2.7838000000000003,-0.6041543910256401,mp-745208,1,4.0
Ca2MnP2(H2O5)2,4.1295,-2.5033709611693022,mp-23718,1,6.0
Ti12Fe5O32,0.0,-2.899922224081633,mp-773026,1,0.0
CrSb2H12C8O5,2.685,-0.425076230357143,mp-1196843,1,4.0
Li2Mn3NbO8,0.7197999999999991,-2.35975752610427,mp-756486,1,1.0
Mg6TiCrO8,0.0,-2.754365281458333,mp-1031428,1,0.0
NaCrAsCO7,0.0,-1.8611223262617551,mp-773138,1,0.0
MnH8(NF3)2,3.3058,-1.522863210466532,mp-759690,1,4.0
MgTe(WO4)3,2.0,-2.105263127156863,mp-2229902,1,3.0
Ba4Cr13O28,0.0,-2.330009399999999,mp-1228860,1,0.0
VNi3Sn2(PO4)6,1.4986000000000002,-2.279166229662697,mp-775213,1,2.0
SrTbEuFeO6,0.0,-2.713697202166666,mp-1518143,1,0.0
Mn4O3F5,0.0,-2.482484363477012,mp-752492,1,0.0
CoH12CN4ClO7,3.6246,-0.7643987126923071,mp-1203219,1,5.0
Na6Ni2C4SO16,3.532199999999999,-1.97218532623365,mp-776196,1,5.0
Ba2Ca3Tl2Cr4O12,0.0,-2.317023345072464,mp-1838903,1,0.0
Li4Ti3Nb2V3O16,0.0,-2.878586430119048,mp-774881,1,0.0
Ca4ZnFe3(SiO3)8,3.1671,-3.0144740885,mp-1227136,1,4.0
MgW2(ClO)4,0.0,-1.754547012272726,mp-2223701,1,0.0