formula,bg,formation_energy,mp-id,fidelity,bg_category
Li6W2O9,2.678,-2.31024284617647,mp-766827,1,4.0
Sr2MgCo2O5,1.4838,-2.196804392000001,mp-2217124,1,2.0
KBaEuWO6,0.0,-2.728668683225001,mp-1520553,1,0.0
TiNi4GeO8,2.4005,-1.940748564880951,mp-1216682,1,3.0
Li2MnPCO7,0.7791,-2.34628349160338,mp-756699,1,1.0
CsFeBP2HO9,2.7398,-2.466938592790505,mp-757463,1,4.0
Fe(WO4)2,0.0,-1.845993679999999,mp-25197,1,0.0
La2ZnFeO6,0.0,-2.738182359000001,mp-1274023,1,0.0
Ta3ZnFe3(O6F)2,0.4022,-2.498860245809524,mp-1173129,1,0.0
Li5V3CrO8,0.7462999999999991,-2.292208458921568,mp-764013,1,1.0
CsNpMoO6,0.3369,-2.69163411815613,mp-1213571,1,0.0
Ti3VCo2(PO4)6,0.0,-2.726265692162697,mp-780701,1,0.0
BaMo2(P2O7)2,3.9317,-2.693897771360543,mp-16802,1,5.0
Cs4U3Mo3O20,2.0623,-2.7649411599540232,mp-562961,1,3.0
KMgCo2(MoO5)2,0.9408,-1.9169775226406252,mp-2241177,1,1.0
MnH8C2S2(NO2)2,3.3605,-0.894435684364792,mp-767297,1,5.0
Cr(ClO)2,2.4182,-1.254129389,mp-1079620,1,3.0
Na2MgMnP2O7F3,1.5187,-2.727606475935959,mp-2232789,1,2.0
Li4V3Fe3(WO8)2,1.087899999999999,-2.204269110833333,mp-770521,1,1.0
Li11Cr3Fe3O16,0.0,-2.038542399595959,mp-759872,1,0.0
Mg2Nb2VO8,1.091899999999999,-2.944542561923077,mp-1046836,1,1.0
Fe3OF7,2.5709,-2.37799072,mp-1178324,1,3.0
VCu3O4,0.1102,-1.31639714625,mp-510657,1,0.0
MnReO4,0.0,-2.062499820071838,mp-31906,1,0.0
Li4Fe3Co(PO4)4,1.6186,-2.4499876761394552,mp-758853,1,2.0
Mg3Fe2H4(Se3O10)2,2.1885,-1.6779201326875,mp-1210726,1,3.0
Li4Fe3CoO8,1.8037,-1.8834275164583332,mp-752777,1,2.0
LiMn2NiO6,1.349799999999999,-1.70144654241954,mp-25284,1,2.0
CaCu2(NiO4)2,0.0,-0.9832437686538452,mp-1047810,1,0.0
Ag2W2O7,1.9614,-1.646673068484848,mp-32537,1,2.0
LiCr3P4O15,2.2298,-2.573797012039337,mp-775294,1,3.0
TiMn2Ni3(PO4)6,0.0,-2.314437059918125,mp-776680,1,0.0
Rb2Cr2As2O9,2.2216,-2.0992869275,mp-622624,1,3.0
K2Li3CrO4,1.275799999999999,-1.9157940897,mp-766413,1,1.0
LiFeAs2O7,2.5882,-1.825409485757576,mp-18878,1,3.0
Li5Cu2Ni3O10,0.0,-1.447779704833332,mp-756021,1,0.0
Fe2P2NO11,0.0,-1.271885027455356,mp-1201744,1,0.0
MgMnCuO2,0.0,-1.514541416586206,mp-2228221,1,0.0
CsMo2P2O11,0.085499999999999,-2.388029461965055,mp-572395,1,0.0
NaCeMnWO6,0.139899999999999,-2.470723776931033,mp-1516942,1,0.0
KNaCaCo5(SiO3)8,0.8687,-2.643200898965733,mp-1223618,1,1.0
Cr3WO8,0.409799999999999,-2.143709030833333,mp-773181,1,0.0
K2RbLaV2O8,3.4692,-2.710005932642857,mp-1211738,1,5.0
NiH12S2O9,0.01,-0.355614485833333,mp-720324,1,0.0
Sr2Ca6Fe3Co5O24,0.0,-2.032236383249999,mp-1099890,1,0.0
MgMn3NiO8,1.533999999999999,-1.906242546830238,mp-2226836,1,2.0
LiLa3Ti3CrO12,0.0,-3.444271097916667,mp-755440,1,0.0
K6Na2V2S7O30,1.7577,-2.16572986726082,mp-704360,1,2.0
Nd5Te7MoCl3O23,2.6333,-2.3775388875427352,mp-1173624,1,3.0
Cr3Pb5F19,3.0614,-2.836037779629629,mp-653287,1,4.0
Na2NiPO4F,4.3816,-2.45697685721127,mp-1203157,1,6.0
Sr2ZrWO6,0.0,-3.036268159,mp-1522533,1,0.0
Gd2MnCoO6,0.9184,-2.810533952293104,mp-1224833,1,1.0
LiMnSbO4,2.014,-2.099758429109196,mp-755701,1,3.0
Li14Mn22Cr3Cu3O56,0.0,-1.995195968787238,mp-735790,1,0.0
ThV2O7,2.3154,-2.9463195680000003,mp-825406,1,3.0
Ba2ZnFe2F14,0.1839,-2.871632728421052,mp-1356655,1,0.0
HfMg30NiO32,0.0136,-2.942496232031249,mp-1036918,1,0.0
NbFe7(PO4)12,0.0,-2.207867726554622,mp-1101729,1,0.0
BaMgMn2O5,0.0,-2.397401518429118,mp-2240072,1,0.0
Ca2MnNb2O8,2.462,-3.034467063687002,mp-1047534,1,3.0
Ba3MnF12,0.0,-2.91699505924569,mp-1237261,1,0.0
Li3Fe(CoO3)2,0.5853,-1.778827615,mp-761602,1,0.0
MgTi2(CoO2)4,0.0,-2.020847538777778,mp-2232269,1,0.0
Mn6AgP7O24,2.309199999999999,-2.503213723993497,mp-16185,1,3.0
K3(MoO3)10,0.0,-2.006804716087208,mp-541614,1,0.0
MnSO8,0.1432,-0.8528259807931041,mp-1211211,1,0.0
BaCaFe4O7,1.5647000000000002,-2.074389128461538,mp-1193438,1,2.0
Cr4P9O32,0.0,-2.302497460706349,mp-504406,1,0.0
Li2Cr3Si3O10,2.3316,-2.668100568148148,mp-757421,1,3.0
CsMnH5(SO5)2,4.3098,-1.766457656254537,mp-1225960,1,6.0
Li5Mn3Co2(PO4)6,0.870699999999999,-2.420300396457922,mp-757824,1,1.0
Ce2MnN3F,0.0,-1.63703701684729,mp-1226975,1,0.0
KAl2NiP3(H2O7)2,1.5108,-2.456250234047142,mp-720723,1,2.0
LiEu2Cr2O8,0.0,-2.494279741794872,mp-1235174,1,0.0
Sr4Fe2MoWO12,1.0308,-2.57859377,mp-1218626,1,1.0
Gd2W4O15,3.4916,-2.592401870952381,mp-771090,1,5.0
K3Mo12PO40,2.2532,-2.065624871453443,mp-560580,1,3.0
LiCr4In4O12,0.0,-1.987390464285713,mp-1236597,1,0.0
LiCr3P3O13,0.0,-2.520575049363096,mp-1012789,1,0.0
Sr3Mo2O7,0.0,-2.63646218875,mp-1208726,1,0.0
Sr5Ca3Ti3Mn5O24,0.0,-2.856954031741378,mp-1075962,1,0.0
CsAlV(PO5)2,0.607399999999999,-2.584115604762726,mp-1204757,1,0.0
Na7Cr3Co(PO4)6,2.0518,-2.548268339573471,mp-532715,1,3.0
Y2Si3(WO4)3,1.121999999999999,-2.359491849499999,mp-1157227,1,1.0
Li4VFe3O8,1.0627,-2.070021283958334,mp-760357,1,1.0
K3Nb4Mo4(PO4)12,0.1069,-2.67793430038682,mp-1224474,1,0.0
Li5Co2Ni5O12,0.0,-1.480723818194444,mp-765625,1,0.0
KSm(WO4)2,3.5365,-2.660352503104165,mp-1211333,1,5.0
Cs3Mn4(PO3)12,0.0,-2.617358648298197,mp-542450,1,0.0
Li4Co3Ni5O16,0.672299999999999,-1.297888950119047,mp-772319,1,1.0
K2NiH8(CO5)2,4.4558,-1.59603296823913,mp-24573,1,6.0
Cs2LiMoF6,4.8178,-2.955805476264368,mp-1110974,1,7.0
Na2MnNiO4,0.0,-1.558911040086206,mp-1221327,1,0.0
SrFeMoO5,2.2075,-2.144298290625,mp-690817,1,3.0
Fe2H10S2O11,4.3362,-1.426297970599998,mp-1196332,1,6.0
La2MgZnNiO6,2.8024999999999993,-2.675934156818181,mp-2241389,1,4.0
SrNd(CoO3)2,0.0,-2.171538999749999,mp-1218211,1,0.0
CaLuMn2O6,0.0,-2.797704238752873,mp-1227180,1,0.0
SrU2Cr2O22,0.0,-1.319082141296295,mp-1179407,1,0.0
ThTe2WO9,3.1343,-2.367260936794871,mp-1194639,1,4.0
Co5(P3O11)2,0.102899999999999,-2.129621993874458,mp-26552,1,0.0
SrCrSnBiO6,0.9519,-2.159913142499999,mp-1517668,1,1.0
Mg(NiO2)4,0.7689,-1.184241403461537,mp-756552,1,1.0
Li7NiOF7,3.1729,-2.859025637083333,mp-765342,1,4.0
CoPb2WO6,1.87,-1.752120892999998,mp-20069,1,2.0
Ba3SrCa2(WO6)2,3.328,-3.024318170000001,mp-1228115,1,4.0
Fe2(WO4)3,2.6699,-1.975592756249999,mp-1213596,1,4.0
KSrLaWO6,2.9551,-2.8846842589749992,mp-1522351,1,4.0
ZnCr2CoO7,0.0,-1.618704897954545,mp-1042883,1,0.0
VH2SeO5,0.0,-1.62368805220486,mp-697501,1,0.0
LiVZnO4,3.35,-2.289123346190476,mp-1222477,1,5.0
SrCaFeBiO6,0.4131,-2.155213113,mp-1520073,1,0.0
LiFe2C2O7,1.5083,-1.783655144861111,mp-762511,1,2.0
ZnFe4NiO8,0.0,-1.626805588571429,mp-1215616,1,0.0
LiV2(SiO4)2,0.9269,-2.792705247948718,mp-762820,1,1.0
ErCu(WO4)2,1.087899999999999,-2.386358747083333,mp-17194,1,1.0
K6Mo7H18O35,2.373,-1.688264317212121,mp-1227772,1,3.0
SrCa7Mn7CrO21,0.0,-2.537046308122087,mp-1247578,1,0.0
Li4Fe3Cu2Sb3O16,0.0,-1.7485581429761892,mp-765704,1,0.0
NaSr12Ni7O23,0.8698,-2.163577095729751,mp-1221033,1,1.0
Mn2VPO7,1.598199999999999,-2.459959881409539,mp-1210613,1,2.0
NaAl6Fe3Si6B3O31,0.0,-2.951927876477585,mp-818418,1,0.0
InMoHSeO7,3.139599999999999,-1.674975801841854,mp-1205217,1,4.0
K4MgV2O7,1.3264,-2.260068977071429,mp-2241486,1,1.0
Na10Mn4O9,0.0,-1.642225616761618,mp-38089,1,0.0
Ca2Co(AsO5)2,0.0,-1.880365755,mp-1103860,1,0.0
Sr4Fe4O11,0.0,-2.295680029210527,mp-21059,1,0.0
Zn4CoO5,0.329499999999999,-1.680190324999999,mp-1215675,1,0.0
Li3Fe5O12,0.0,-1.45490572175,mp-759319,1,0.0
Cs2V5O13,1.2447,-2.410337946715519,mp-616573,1,1.0
KFeF3,0.0,-2.50385350045,mp-556891,1,0.0
TlV3Cd4O12,2.3305,-1.933473244416689,mp-1216804,1,3.0
Na6V2P(CO4)4,0.0,-2.189372201824784,mp-778480,1,0.0
CaMn3O6,0.0,-2.27668158700431,mp-560083,1,0.0
Rb8Mg(FeO4)2,1.832,-1.585626064473683,mp-2230085,1,2.0
V3CoSb2(PO4)6,0.0,-2.410768152718254,mp-1101253,1,0.0
TlV(SO4)2,2.0345,-1.973104946527778,mp-1208013,1,3.0
Eu2NiSbO6,0.0,-2.385380913000001,mp-1516533,1,0.0
V6H2Pb4Se3O26,2.2265,-1.900558507427591,mp-1196049,1,3.0
CrPtO2,0.0,-1.654502145625,mp-755584,1,0.0
CaCrNiP2O9,0.646799999999999,-2.586677785484693,mp-1327705,1,0.0
Tl2Co2(SO4)3,2.929699999999999,-1.709772517587719,mp-1208238,1,4.0
LiDy(WO4)2,3.786799999999999,-2.662636796666666,mp-1192153,1,5.0
Li5Mn7O16,0.871,-2.067267194185139,mp-530177,1,1.0
Mn3(OF3)2,0.8081,-2.431303156708465,mp-1639489,1,1.0
YCrO5,0.556,-2.305943738928572,mp-1204332,1,0.0
Li10Fe9CoO20,0.314299999999999,-1.9199254180833332,mp-770651,1,0.0
Fe4O5,0.0,-1.519237164444444,mp-1188678,1,0.0
PrFe4(CuO4)3,0.0,-1.644028250083332,mp-1105690,1,0.0
Na2AlFe(SiO3)4,2.9823,-2.9423030366379312,mp-1221399,1,4.0
MnZnH22C5N10(Cl2O3)2,4.0945,-0.872966430008796,mp-1201453,1,6.0
Na9CaFe10(SiO3)20,1.3327,-2.754588792924138,mp-720248,1,2.0
Li4Cr3Co3(SnO8)2,0.029399999999999,-1.972013616547618,mp-778219,1,0.0
NaLi9Fe10(SiO3)20,2.7254,-2.751215939713793,mp-1101479,1,4.0
NaVAsO5,1.5064000000000002,-2.158210942359914,mp-17507,1,2.0
LiTiNiF6,0.2452,-3.078456746666666,mp-1210957,1,0.0
CsMgAl(MoO4)2,0.0,-2.124465257281167,mp-2234041,1,0.0
K3(Fe11O17)2,0.040399999999999,-1.646198904605933,mp-1178199,1,0.0
MnH8(ClO2)2,4.0365,-1.352615226695402,mp-24385,1,6.0
Li12CoNi3P4(CO7)4,2.9723,-2.271467010934065,mp-766547,1,4.0
LiFeP2H5O9,3.58,-1.983768348964946,mp-779003,1,5.0
Na3Mn5(Ge3O10)2,0.3931,-2.12806570775862,mp-1211859,1,0.0
K2NaTi2Fe7Si8H4O31,1.466999999999999,-2.558069298409927,mp-1212500,1,2.0
MgAlTl(MoO4)2,0.0,-1.9725073329487184,mp-2241198,1,0.0
Ca2Gd2MnNiO8,1.6446,-2.903106324852216,mp-1227535,1,2.0
MnAgO3,0.0,-1.188434382919541,mp-754229,1,0.0
Li7Fe3Ni(PO4)6,2.4261,-2.458717846858304,mp-775193,1,3.0
Li4Fe2Ni3Sn3O16,0.200299999999999,-1.684660799940476,mp-775337,1,0.0
Cs2MnF4,3.459399999999999,-2.965928856748767,mp-1206528,1,5.0
V2OF5,1.3457,-3.046730802916667,mp-1648259,1,2.0
Li2V2Si4O11,2.1809,-2.903406565350877,mp-756730,1,3.0
Ca3Fe2(ReO6)2,1.3365,-2.430837287105263,mp-1366463,1,2.0
NiH44C12(N5O8)2,3.1696,-0.575400269216867,mp-746662,1,4.0
V4CuNiO12,0.557499999999999,-2.039255946666666,mp-756167,1,0.0
KNd(WO4)2,3.8022,-2.654838397895833,mp-559456,1,5.0
NaCaHfWO6,0.0,-2.87953496413793,mp-1516390,1,0.0
La7SmCo6(CuO10)2,0.0,-2.310536186666667,mp-1076871,1,0.0
Li2CrO2,1.014,-2.089189370833332,mp-1178001,1,1.0
Cr2H8N2O7,2.714299999999999,-1.120573429736842,mp-1198067,1,4.0
Na4Fe2As(CO4)4,0.0,-1.793604257889527,mp-780892,1,0.0
SmMo5O8,0.966499999999999,-1.796154034642857,mp-16673,1,1.0
Fe5Bi4O13F,2.0697,-1.726644986630434,mp-1225422,1,3.0
Li11V16O32,0.9689,-2.476581457909605,mp-758440,1,1.0
V3(Bi3O8)2,2.2173,-2.000582200400001,mp-29058,1,3.0
VGeO3,0.014299999999999,-2.159676125500001,mp-755199,1,0.0
MgVO2,0.367799999999999,-2.335293408750001,mp-2210700,1,0.0
CaCo2(CuO4)2,0.0257,-1.235552343076923,mp-1350165,1,0.0
SrLa2Fe2O7,0.0,-2.83297923125,mp-1217886,1,0.0
Li2Mn3OF6,1.7183000000000002,-2.791650295246648,mp-759714,1,2.0
Na4MoS3O14,2.7865,-2.092612203432601,mp-559561,1,4.0
MgMn3CuO8,0.0,-1.828736276830239,mp-2219379,1,0.0
RbMgCoF6,1.9239,-2.903187705833333,mp-1219588,1,2.0
FeSnO3,0.8620000000000001,-1.858812262000002,mp-1178212,1,1.0
Sn2MoH12C4O5,4.0067,-0.668847418229166,mp-1196260,1,6.0
LaNiO2,0.0,-2.364897973749999,mp-20392,1,0.0
Na2MnPCO7,0.6287,-2.311302962111043,mp-780530,1,0.0
MnVPbO5,1.178799999999999,-2.089242353178878,mp-818571,1,1.0
Li4V3Ni3(WO8)2,1.034299999999999,-2.144808082619047,mp-776367,1,1.0
NaLi3V4O12,3.0329,-2.392499203068966,mp-1220781,1,4.0
BaTb2Mn2O7,0.6727999999999991,-3.013942816182949,mp-554136,1,1.0
LiFeCuO4,0.0,-1.403321443333332,mp-775462,1,0.0
CaPr(FeO3)2,0.0,-2.506947514166667,mp-1044754,1,0.0
LiFeCO4,1.9645,-1.909023905833332,mp-757567,1,2.0
Bi2Mo2O9,2.88,-1.8867083211538471,mp-556586,1,4.0
Cs2ZrFe2(MoO4)6,2.6723,-2.160470091980295,mp-1226541,1,4.0
Ba4Na2W2O11,3.6266,-2.7136465809346633,mp-1228581,1,5.0
Sr6Mn3FeO14,0.0,-2.551597285158045,mp-1218555,1,0.0
Zn3Fe2(GeO4)3,1.91,-1.8263364543749991,mp-1363943,1,2.0
Sm2MgMo2(ClO4)2,1.9115,-2.639869969666667,mp-2232253,1,2.0
K2FeP2O7,4.1612,-2.472393431982142,mp-1191511,1,6.0
Ba2CoF6,0.0,-3.499635145555556,mp-555162,1,0.0
Ba3MgV2O8,1.7886000000000002,-2.794632418214285,mp-2227999,1,2.0
CaCeV2O8,1.5741,-3.028649919166666,mp-1227255,1,2.0
CaLa2CoO6,0.1054,-2.9298201425,mp-1273081,1,0.0
Pr2Mo15O28,0.796099999999999,-1.873455119851852,mp-33652,1,1.0
Li4Ti2V3Co3O16,1.3546,-2.362030467499999,mp-1177275,1,2.0
SrFeAsF,0.0,-1.679181760625,mp-20807,1,0.0
CuNi3O4,0.0,-1.084837146875,mp-761415,1,0.0
SrV2TeO8,2.6844,-2.390972508159722,mp-1198767,1,4.0
Nb3Co(PO4)6,2.1295,-2.709301038760503,mp-771766,1,3.0
K3Fe2(PO4)3,2.2618,-2.483016141533928,mp-581237,1,3.0
LiMoPO5,1.3971,-2.471247537247024,mp-504194,1,2.0
Li4Ti4MnCr4O18,0.7338,-2.704819205309602,mp-767369,1,1.0
V5FeO12,0.040899999999999,-2.284867542777778,mp-2215234,1,0.0
NaMg2Fe3P4(H9O13)2,0.7998000000000001,-1.542018205323162,mp-1173652,1,1.0
W11O12,0.0,-0.340157124347824,mp-1191069,1,0.0
Sr2SmMnO6,0.0,-2.7571004492931053,mp-1521945,1,0.0
Li3V4CrO8,0.5800999999999991,-2.344421494375,mp-755134,1,0.0
LaCoPO,0.0,-1.847783926160715,mp-19370,1,0.0
K5MoC7N7O,0.8609,-0.278756113392857,mp-1190879,1,1.0
VCdCoO5,1.537,-1.739821524375,mp-1194927,1,2.0
CsMg6CrO8,0.0,-2.223453401853448,mp-1099262,1,0.0
Li2Co2H24C6(N4O5)3,1.267999999999999,-0.845005010519126,mp-1223381,1,1.0
Sr6Mg(W2O9)2,2.3113,-2.783019298793103,mp-1234368,1,3.0
Ni3P4(NO8)2,0.5793,-1.632444604342857,mp-1204236,1,0.0
Sr2Fe2Se2OF2,0.0,-2.352246551076388,mp-550944,1,0.0
Pr5(Mo16O27)2,0.038599999999999,-1.815830051190476,mp-700127,1,0.0
V3H8C2NO7,0.0,-1.29446623952381,mp-560592,1,0.0
MgMo(WO4)2,2.604399999999999,-2.201521076249998,mp-2218257,1,3.0
CoSnC4Cl3O4,3.0475,-1.01589698576923,mp-551760,1,4.0
Ba2AlFe2F11,3.8605,-3.498076629062499,mp-1044845,1,5.0
Ba(FeO2)2,1.7417999999999991,-2.089097835714285,mp-19154,1,2.0
LiMg14CrO16,3.317199999999999,-2.943130446354167,mp-1035402,1,4.0
TmMoBrO4,1.9246,-2.595650299285715,mp-1194343,1,2.0
VFe2(CuO2)3,0.8204,-1.493432661666667,mp-1216357,1,1.0
Ba2LiV2(Si2O7)2,0.2716,-3.03065506057971,mp-1235709,1,0.0
Ba2MgMnMoO6,1.4017,-2.379696232993731,mp-2226724,1,2.0
Na2MnAuF6,0.0,-2.265300433068965,mp-1111303,1,0.0
LiCr4P7O24,2.169099999999999,-2.594289262800925,mp-1101527,1,3.0
Na6Mn2B4SO16,1.452,-2.342595209941537,mp-770500,1,2.0
Sr5Ca3Fe7CoO24,0.0,-2.1709468247499992,mp-1075955,1,0.0
Li5Co4(Si3O10)2,0.173,-2.493450009619049,mp-849656,1,0.0
LiMg4V3O12,3.3026,-2.717871643416666,mp-559155,1,4.0
NaFe(PO3)3,4.1472,-2.520219386629133,mp-764111,1,6.0
CaLaNbCoO6,0.713499999999999,-3.053297722000001,mp-1227224,1,1.0
MnFe3Co2(PO4)6,0.0,-2.23503323793856,mp-758013,1,0.0
VH7(CO2)4,0.030299999999999,-1.2726396759375,mp-698158,1,0.0
LiLa2Mn3O9,0.0,-2.5663463808084312,mp-1222383,1,0.0
Li11V12(CuO4)12,0.0,-1.936422995742972,mp-774644,1,0.0
Li4Mn2V3Sb3O16,0.0,-2.223952859971263,mp-765741,1,0.0
NaSrYFeO6,0.0,-2.229593585137931,mp-1518900,1,0.0
Na2Cr3O9,0.52,-1.861425405197044,mp-726718,1,0.0
Cr5(Si2O7)2,0.7892999999999991,-2.632610907391303,mp-757245,1,1.0
BaCo2P2H2O9,1.2309,-2.305696692611608,mp-644003,1,1.0
Ca2Mn2O5,0.182099999999999,-2.576240548984673,mp-20443,1,0.0
Li4V3(CO3)6,0.0,-2.100148351075269,mp-758087,1,0.0
PWO4,3.1622,-2.264803736190476,mp-25431,1,4.0
MnCd3F6,0.046599999999999,-1.807068964793102,mp-1205910,1,0.0
Li5Fe4(Si3O10)2,1.469199999999999,-2.627666443904762,mp-1177108,1,2.0
Li4Mn3Cr3(CuO8)2,0.0,-1.8855426545402292,mp-757000,1,0.0
VH26(C3O)4,2.0585,-0.379135578779069,mp-1217000,1,3.0
Li3Mn(CuO3)2,0.0,-1.64030431566092,mp-756973,1,0.0
Li4Ni2OF7,0.6723,-2.57623189845238,mp-753213,1,1.0
Zn2Mo3O8,0.0944,-1.862553625,mp-19216,1,0.0
VP2H8(NO4)2,0.0,-1.631743525204081,mp-765665,1,0.0
Ti4Cr3(PO4)6,0.0,-2.79202948489704,mp-555289,1,0.0
La2Te(MoO7)6,0.027499999999999,-0.972920725620915,mp-1203904,1,0.0
Fe2W4S2O9,0.0,-0.324930931764705,mp-1213561,1,0.0
Li6CoCu3(PO4)4,0.0,-2.263704558285714,mp-775260,1,0.0
Li4Mn3CoCu2(PO4)6,0.0,-2.3123462336245892,mp-1177395,1,0.0
Li9Mn20O40,0.4996,-2.040790375777113,mp-690161,1,0.0
V3ZnO8,1.933,-2.27554884375,mp-27284,1,2.0
NaCo2P2O9,0.0,-1.989291226297502,mp-1094138,1,0.0
Lu2Mn2O7,1.112099999999999,-2.938114664017765,mp-19153,1,1.0
VSn(PO4)2,0.0405,-2.473747787440475,mp-753543,1,0.0
MgV2(O2F)2,1.1017,-2.740902353888888,mp-2217104,1,1.0
NaFe(SO7)2,0.0,-0.730867469243295,mp-1198416,1,0.0
EuHfVSnO6,0.0,-2.842957942,mp-1517113,1,0.0
Rb2MgFe4O7,1.6873,-1.682385886071428,mp-2227668,1,2.0
SrSmMnSnO6,0.0,-2.611847228793105,mp-1520963,1,0.0
Li2FeNi(PO4)2,3.0324,-2.420106471139456,mp-756268,1,4.0
NaMg14WO16,4.263999999999999,-2.824054357230603,mp-1034599,1,6.0
CaCeMnO4,0.0,-3.009171259347289,mp-1227511,1,0.0
SrTbEuNiO6,0.0,-2.518103324166667,mp-1517629,1,0.0
Rb2NaVF6,0.0,-3.166100738637932,mp-560671,1,0.0
Li2Fe(CoO3)2,0.5655,-1.614878022878788,mp-1640067,1,0.0
ZnCr4O8,0.0,-2.026081265384615,mp-1384392,1,0.0
K4W2Cl10O,1.184,-1.825525066117647,mp-555210,1,1.0
MgZn2(FeO3)2,2.168199999999999,-1.905633360454546,mp-2217317,1,3.0
Li4Y3FeO8,2.708999999999999,-2.8787974120833333,mp-756449,1,4.0
BaEuYCrO6,0.0,-2.8921163335,mp-1517793,1,0.0
MgMn6Nb4O18,0.0193,-2.563406282847802,mp-2216037,1,0.0
Li3Co(CuO2)4,0.0,-1.355125085624999,mp-754273,1,0.0
KMgMn16O32,0.0,-1.895868547582931,mp-2216883,1,0.0
Li3Mn5OF11,2.2314,-2.873562903482759,mp-760153,1,3.0
Li7FeO5F,0.2303,-2.094607326130953,mp-759661,1,0.0
LiFeP(H6O5)2,4.0501,-1.574298170519048,mp-782655,1,6.0
SrU(MoO4)4,2.093499999999999,-2.438480872727273,mp-1208685,1,3.0
Sr2MgCuMoO6,1.482899999999999,-2.4367437904545453,mp-2240053,1,2.0
K2MoAs2O9,2.7838000000000003,-1.956495639428571,mp-561554,1,4.0
K3MnCrO8,0.8097000000000001,-1.773574471513925,mp-757140,1,1.0
Ba3Y4(CoO5)3,0.0,-2.5810427165,mp-1366002,1,0.0
LiCr(CoO3)2,0.0,-1.610460323333333,mp-756072,1,0.0
Li9Mn12Cu3O32,0.0,-1.886956794735221,mp-769514,1,0.0
V3Cr2Fe(PO4)6,0.0,-2.525161221051586,mp-774892,1,0.0
MoP(Cl3O)2,2.6537,-1.522937784214286,mp-555695,1,3.0
V2(OF)3,1.4803,-2.655440350833333,mp-763169,1,2.0
Mn3FeNi2(PO4)6,0.0,-2.26374072365695,mp-756802,1,0.0
W3Se2ClO8,0.6045,-1.180463173191965,mp-1045028,1,0.0
Mg5Fe6(S3O5)2,0.0,-0.950209605185184,mp-1210895,1,0.0
Zn2CuWO6,0.3496,-1.700905845999999,mp-1041762,1,0.0
MnFeO4,0.0,-1.511130670488506,mp-761315,1,0.0
BaMgCr4O8,0.0,-2.1847883575,mp-1044283,1,0.0
Li6Fe(OF)3,3.031799999999999,-2.451843423653846,mp-780876,1,4.0
Li11Fe6F29,3.2097,-2.825667445036231,mp-776099,1,4.0
Rb2Mo3Se3O16,2.6974,-1.762394380501302,mp-1194625,1,4.0
Li3Mn2(NiO4)2,0.0,-1.367121767057472,mp-763752,1,0.0
Li4V2SiO8,1.871699999999999,-2.5871648253888893,mp-766040,1,2.0
Ca8Fe5(WO8)3,0.0891,-2.593736447249999,mp-1227452,1,0.0
Fe3BO6,1.1726,-1.9873974904166671,mp-22774,1,1.0
Li2MnH4(SO5)2,4.4361999999999995,-1.874092138399879,mp-772240,1,6.0
MgCr(CoO3)2,0.0966,-1.7089064875,mp-2223659,1,0.0
ZnFeO2F5,1.7122000000000002,-1.973390204444444,mp-1178657,1,2.0
Sm3VGeO9,3.098,-3.240811219107143,mp-1209262,1,4.0
ReWO6,0.0,-2.1373404015625,mp-1404693,1,0.0
Li2CoH12(SO7)2,3.3291,-1.539531480537633,mp-770638,1,4.0
KFeS2O9,0.1805,-1.6639351163269231,mp-1192804,1,0.0
Pr5Mo3O16,0.0,-2.9951815867013902,mp-1202854,1,0.0
K2Li3NiO4,1.8411,-1.66320836995,mp-774432,1,2.0
Ba2Co4ClO7,0.0,-1.836360706071429,mp-646670,1,0.0
Be3V2(SiO4)3,1.8598,-2.904018475375,mp-1047935,1,2.0
Zn3Cr2(SiO4)3,2.681999999999999,-2.501444753249999,mp-1253507,1,4.0
Li2MnPHO5,3.3958,-2.357810007799055,mp-754995,1,5.0
SrCo(GeO3)4,0.0,-1.509491805,mp-1519959,1,0.0
KLi2MnPCO7,3.2428,-2.367799767037735,mp-761146,1,4.0
Sr4CaCr5O15,0.0,-2.537694403799999,mp-1218573,1,0.0
Li3MgV8O16,0.2817,-2.544384515178572,mp-771733,1,0.0
TmMoClO4,2.6792,-2.685963249285715,mp-559178,1,4.0
Na4Al3Fe(SiO3)8,3.023,-3.050296715137932,mp-1221226,1,4.0
CsVCoF6,2.2164,-2.836937833850575,mp-1228876,1,3.0
LiMn2P2O9,0.004499999999999,-2.381462801141508,mp-1097049,1,0.0
Li2Fe3BiO8,1.142,-1.745565866369047,mp-1177997,1,1.0
Ti3Mn2Nb(PO4)6,0.0,-2.8529329214922,mp-776180,1,0.0
LaVH2I4O15,2.8357,-1.456395037065217,mp-1201992,1,4.0
ZnMo2O7,3.7256,-1.859907702999998,mp-1042320,1,5.0
Mg2FeIrO6,0.0,-1.997453159000001,mp-1289222,1,0.0
Eu2NiWO6,0.442999999999999,-2.516327713,mp-1516887,1,0.0
Li6Mn3Sb(PO4)6,2.0149,-2.4813365480412553,mp-1177012,1,3.0
Li4V3CoO10,0.0,-2.239248441851851,mp-759134,1,0.0
Rb2Pr2Mg(WO4)4,2.0536,-2.581930958933333,mp-1234646,1,3.0
Mn7P12WO48,0.0,-2.265076218547522,mp-780613,1,0.0
K2Fe2Co2C12N12O,0.0,0.345263174532258,mp-1224487,1,0.0
ZnCr2O4,0.0,-2.277238717857142,mp-19410,1,0.0
LiNi6O7,0.0,-1.281280375595238,mp-753344,1,0.0