formula,bg,formation_energy,mp-id,fidelity,bg_category
LiFe(Si2O5)2,3.3411,-2.940133872708333,mp-857353,1,5.0
Fe2AsSO9,0.052699999999999,-1.542743548461537,mp-1224760,1,0.0
Co2NiO6,0.0,-0.938489986666666,mp-752759,1,0.0
Sr2MgZnWO6,2.0822,-2.530657917727273,mp-2217664,1,3.0
KFeC6(NO)3,4.4460999999999995,-0.328564096232143,mp-572159,1,6.0
BaCaCrBiO6,0.1804,-2.277217755,mp-1517595,1,0.0
YMg14MnO16,0.0,-2.900549952122844,mp-1036223,1,0.0
TbFeAsO,0.0,-1.694277398541667,mp-1079887,1,0.0
MgTiCo5O12,0.6403000000000001,-1.617295659912281,mp-2230350,1,0.0
Na16(WO3)19,0.0,-2.166185943772488,mp-1173873,1,0.0
Pr3Mn4PbO12,0.0,-2.628518488836206,mp-1220019,1,0.0
Gd2V2O7,0.9818,-3.110372110454546,mp-773164,1,1.0
Ba2MnNiClF7,2.5225,-3.26425919691092,mp-554990,1,3.0
Li3CoO6,0.0,0.046705086,mp-1212378,1,0.0
BaPrMgMn2O5,0.0,-2.362198615752874,mp-2240112,1,0.0
Fe3Sb2(BrO)4,2.3936,-1.423973968461538,mp-1194355,1,3.0
Ba2CuWO6,0.0,-2.444741072,mp-505618,1,0.0
Ca3V3(AsO4)4,1.0605,-2.304464553076923,mp-1041545,1,1.0
LiCr2(MoO4)3,0.7350000000000001,-2.097961947962964,mp-1211202,1,1.0
Tl3V5O14,2.1447,-2.128513405,mp-1192129,1,3.0
LiCa9Mn(PO4)7,4.290800000000001,-3.220385979538355,mp-554324,1,6.0
Li4Mn2Fe3Cu3O16,0.0,-1.545371491756979,mp-774612,1,0.0
NbCoO4,1.5819,-2.260482805000001,mp-31518,1,2.0
Li4MgNi3O8,0.3275,-1.713762544270833,mp-1282789,1,0.0
La8Mn9O27,0.0,-2.8756121162813493,mp-698617,1,0.0
BaMn2O3,0.0,-2.267367855143677,mp-27323,1,0.0
LiCr2(CO3)4,0.6712,-1.883301271754385,mp-753855,1,1.0
Li8Sc5Fe3(SiO3)16,2.9242999999999992,-3.119175549020833,mp-775186,1,4.0
K3V2O12,0.054099999999999,-1.201120399955882,mp-1200488,1,0.0
KCaPrWO6,2.8469,-2.7973999356416672,mp-1521614,1,4.0
Li4Ti3Mn4(CoO9)2,0.763999999999999,-2.336138354679274,mp-774525,1,1.0
UFeO4,0.7501999999999991,-2.873807404999998,mp-504549,1,1.0
LiNi3OF5,3.2492,-2.172157904333333,mp-753317,1,4.0
Li4Fe5(CoO6)2,0.0,-1.711085331231885,mp-775227,1,0.0
Hg2WO4,1.9051999999999991,-1.448770275000004,mp-29894,1,2.0
Ho2(WO4)3,4.7761000000000005,-2.769026879117645,mp-772566,1,7.0
KNaMo2O5,0.453599999999999,-1.839911794014368,mp-1076606,1,0.0
Li4WO6,0.0,-1.989194012121212,mp-1222509,1,0.0
Mn5Cu3(Te2O5)8,0.4852,-1.550147666348777,mp-1222077,1,0.0
Sr2MnGaO5,0.0,-2.675951816159004,mp-21302,1,0.0
NaFe3O5,1.5371,-1.676120402653257,mp-505170,1,2.0
Fe4AgP(XeF3)2,0.0644,-0.826279714736394,mp-1213409,1,0.0
NbTlWO6,2.931599999999999,-2.375812148148149,mp-1220301,1,4.0
PW5O17,0.0,-2.268443580636647,mp-29926,1,0.0
MnCo(PO4)2,0.718599999999999,-2.236406698518062,mp-775270,1,1.0
KCoPH2O5,1.6258,-2.010240645439286,mp-643954,1,2.0
Cr2O,0.0,0.007078628333333,mp-1206821,1,0.0
PrFeH8C6(N3O2)2,2.1322,-0.555184556217948,mp-1201732,1,3.0
Mg2Mn2(SiO4)3,1.3374,-2.681174748729583,mp-1264900,1,2.0
CaV4(CoO4)3,0.0,-2.201506104500001,mp-1189284,1,0.0
CsMn(PO3)6,0.304699999999999,-2.38752761520936,mp-1226083,1,0.0
Na3Mn(BO3)2,2.5967,-2.378766318991858,mp-773605,1,3.0
Ca2V3Co2AgO12,1.9349,-2.149128551708334,mp-726140,1,2.0
K4Mo6Se2O33,0.440799999999999,-1.149429283970833,mp-1225158,1,0.0
CaMg6CoO8,2.6627,-2.7268087925,mp-1032957,1,3.0
CoP4(H5O8)2,3.3954,-1.9176970564861744,mp-696788,1,5.0
Li10V5Cr3O16,1.1357,-2.289932280980392,mp-760983,1,1.0
K2Cr3(ClF3)2,2.4339,-2.656148201115384,mp-555898,1,3.0
Li6CoO4,1.9349,-1.938767046590909,mp-18925,1,2.0
LiNbWO7,0.1581,-2.113617273833333,mp-1222567,1,0.0
Li2MoP4O13,1.8745999999999992,-2.591928890261905,mp-1101555,1,2.0
Li8MgCo13O28,1.0704,-1.535040768033334,mp-777406,1,1.0
La5(Mo16O27)2,0.0487,-1.852779946208791,mp-654080,1,0.0
K2Th3Mg(MoO4)8,3.6343,-2.560688155641304,mp-1194804,1,5.0
DyCrO2,0.0,-2.454506310416666,mp-1212873,1,0.0
Li4Ti3V2Cr4O18,1.585799999999999,-2.659541970430107,mp-774581,1,2.0
RbEu(WO4)2,0.0,-2.476119666875,mp-1209558,1,0.0
Mn2P2O7,2.2949,-2.581613194104342,mp-18721,1,3.0
Al(CoO2)2,0.0,-2.05576668,mp-753184,1,0.0
Co3Cu3(TeO8)2,0.0,-1.063345296805556,mp-757881,1,0.0
CoRe3H15(NO3)5,0.0103,-0.795909735608974,mp-1202508,1,0.0
BeVO3,0.0,-1.710029862,mp-1183449,1,0.0
Y10W2O21,3.142,-3.594930444393939,mp-556220,1,4.0
Ba3V2Ni6(AsO6)4,3.1805,-2.057939319743591,mp-1228018,1,4.0
BaLaMnRuO6,0.320999999999999,-2.567296566293104,mp-1272796,1,0.0
Er2VFeO6,1.4206,-3.07514729,mp-1225732,1,2.0
CoPH14N4O7,0.6338,-0.5289038545238091,mp-1182136,1,0.0
Sr4Mn2Ga2O11,0.0,-2.53692582136116,mp-1218651,1,0.0
KVPCO7,1.842099999999999,-2.386515532444805,mp-755407,1,2.0
CeMoClO4,0.0,-2.657282696785714,mp-1196379,1,0.0
Li3Co(PO4)2,0.817299999999999,-2.456484207984694,mp-25996,1,1.0
Mn5VO12,1.1038,-1.870388304980843,mp-1176451,1,1.0
Mg2Tl2(MoO4)3,3.886199999999999,-2.141617877192984,mp-13187,1,5.0
NiH15IO12,2.448299999999999,-1.17635142150862,mp-1204231,1,3.0
UV2PbO9,2.1888,-2.64577476,mp-561210,1,3.0
Ba2Ca2Tl2Cr3O10,0.0,-2.26995324877193,mp-1046503,1,0.0
HfMg6FeO8,0.0,-2.65149135875,mp-1099238,1,0.0
Li2CrPO4F,2.3172,-2.68926614806217,mp-770894,1,3.0
Li5Fe3(BO3)4,0.4258,-2.377615975347222,mp-766507,1,0.0
Sr6Fe5Ag3(Se2O5)2,0.0,-1.862952648013392,mp-1218625,1,0.0
ScCr2Ag(H2O5)2,1.7683,-1.73466522787037,mp-559606,1,2.0
BaCaMnSnO6,0.0,-2.428504817293105,mp-1518884,1,0.0
Na2CoH4(SeO5)2,2.347899999999999,-1.21342697170769,mp-1180336,1,3.0
Ca4CoSi8(NiO8)3,3.8439,-2.9485411905,mp-1227711,1,5.0
ZnTcNiO4,0.0,-1.607959395714285,mp-1216043,1,0.0
MgMn(PO3)4,4.076,-2.717114503694581,mp-1045783,1,6.0
Sr4Mn2Cu3(SeO)4,0.0,-1.858075806190415,mp-1218497,1,0.0
Mn2InC10BrO10,2.5022,-0.811644937605365,mp-683668,1,3.0
Fe2Te4O11,1.4736999999999991,-1.553320587009804,mp-30995,1,2.0
SrNdMnCoO6,0.0,-2.4270500055431032,mp-1218143,1,0.0
CrPb2F7,3.6136,-2.83969733925,mp-1197980,1,5.0
Ca2CoSbO6,0.6627000000000001,-2.351119786499999,mp-1379512,1,0.0
Sr2VO4,0.0,-2.9606349314285723,mp-18972,1,0.0
Li4Nb2Co3Sn3O16,1.7506,-2.217645777440477,mp-771059,1,2.0
Na2VCSO7,3.061099999999999,-2.099568635646552,mp-771954,1,4.0
CdTeMoO6,3.189399999999999,-1.7270716379629631,mp-555560,1,4.0
Li3MnV2O6,0.3577,-2.367837964410919,mp-773501,1,0.0
Ca2Cr9O13,0.394599999999999,-2.274117973124999,mp-1045913,1,0.0
CaVSi4H8O15,3.177899999999999,-2.3681261911206892,mp-1198008,1,4.0
Fe7O3F13,1.2861,-2.284137505217391,mp-754593,1,1.0
Re2NiO8,3.963199999999999,-2.020867966136364,mp-32311,1,5.0
Li4Cr2Si3O10,2.5003,-2.727876355701755,mp-758615,1,3.0
BaSr3Co2Cu4(SO)4,0.0,-1.5684210666666671,mp-1227981,1,0.0
K4MoO8,0.569299999999999,-1.158084591461538,mp-705676,1,0.0
Sr2YAlCr2O7,1.6052,-2.984573137692308,mp-1046696,1,2.0
Li2Fe2(CO3)3,3.9898,-1.884219249791667,mp-1178002,1,5.0
Ca3Mn2O12,0.080399999999999,-1.482462054315415,mp-1214143,1,0.0
Er2WO6,3.6554,-3.3295026419444462,mp-17201,1,5.0
Nd2Mn3Sb3O14,1.1513,-2.447819605399685,mp-1220485,1,1.0
Li4V3(FeO5)2,1.37,-2.217976487017544,mp-752916,1,2.0
La24Ni12O49,0.0,-3.032415715470588,mp-759094,1,0.0
SrCaNiWO6,2.9899,-2.592528748,mp-1218491,1,4.0
V2CoO6,2.0354,-2.122171667777718,mp-755622,1,3.0
EuFeGe2O7,0.0,-2.268146896136356,mp-1213269,1,0.0
CrH14N4Cl3O,1.0029,-0.8372487124999991,mp-728578,1,1.0
Ba5Co5O14,0.0,-2.053313538333332,mp-22557,1,0.0
KNd(NiO3)4,0.0,-0.813603809708333,mp-1516468,1,0.0
LiCo2(CO3)4,0.302799999999999,-1.580106595964913,mp-753292,1,0.0
Li5Mn3Bi2(PO4)6,0.010799999999999,-2.476297943457923,mp-775601,1,0.0
TiMnZn(PO4)3,0.0,-2.639716613344051,mp-1044316,1,0.0
ZnFe3O7,0.0,-1.181025290227272,mp-1332408,1,0.0
K2MgMo2(H2O5)2,4.347,-1.992467306026316,mp-1181784,1,6.0
CaEuZrMnO6,0.0,-3.025417653293105,mp-1521618,1,0.0
LiV3(CoO6)2,0.2202,-1.8266139747685184,mp-761188,1,0.0
Na2CoP4(H2O3)6,2.8605,-1.89820698909,mp-1203473,1,4.0
LiNi(CO3)2,1.1106,-1.6894202523333322,mp-763540,1,1.0
Na9(WO3)13,0.0,-2.174038851433012,mp-1101697,1,0.0
Cr2CdH14(NO2)4,2.8216,-0.995989399913792,mp-24597,1,4.0
Li9Ni23O32,0.0,-1.351206059062499,mp-531942,1,0.0
MgTl6WO12,0.345899999999999,-1.447737265250002,mp-2230104,1,0.0
MnCu(SeO3)2,0.145499999999999,-1.327960414261853,mp-1221686,1,0.0
Li3Nb2CrO6,0.394199999999999,-2.504859032083332,mp-755780,1,0.0
MnZn3F6,1.3114,-2.142395851793103,mp-1237325,1,1.0
K4Ba2Na4Ti8Mn(Si8O33)2,0.083799999999999,-2.388648829595197,mp-1200379,1,0.0
V2H2Se2O13,0.102099999999999,-1.073648500641448,mp-1198938,1,0.0
Ba4Fe3(Se3F2)2,0.0,-1.451543361856618,mp-1195190,1,0.0
K2Li2NiO4,0.013899999999999,-1.467789510962962,mp-773004,1,0.0
Li4Mn5CuO12,0.3311,-1.892036264681296,mp-753851,1,0.0
La2MgVO6,1.7390999999999992,-3.366408281500001,mp-1411395,1,2.0
NdSm(CoO3)4,0.0,-1.535742385694443,mp-1517706,1,0.0
CsRbMo3P3O17,2.303499999999999,-2.391367263643348,mp-1213522,1,3.0
Sr9(NiO3)7,1.3374,-2.043437981891891,mp-759887,1,2.0
Ba2MgMnO4,0.9927999999999992,-2.652216966616379,mp-2227413,1,1.0
La2FeCoO6,0.0,-2.699818660000001,mp-1223373,1,0.0
MgV2Cd2O7,1.1821,-2.118231525833332,mp-2218250,1,1.0
Li6MnFeP2(CO7)2,3.9017,-2.379784029123721,mp-757146,1,5.0
V4(OF3)3,0.0,-2.955454478750001,mp-759536,1,0.0
Fe2(PO4)3,0.0,-2.087407932878151,mp-26582,1,0.0
Na3SiNiCO7,0.0,-2.114349157241378,mp-771030,1,0.0
Ca2Mn2B4O13,0.0,-2.330654041191843,mp-1201306,1,0.0
Li6Co3Ni5O16,0.0,-1.403894358333333,mp-760934,1,0.0
Ba2Mg3Tl2(FeO3)4,0.0,-1.874541301376812,mp-1811371,1,0.0
Li5CrO5,1.314099999999999,-2.079469437651516,mp-754233,1,1.0
Co21O40,0.0,-1.049597354918032,mp-850026,1,0.0
NaFeP3H7O13,2.6593,-2.007476200362315,mp-707911,1,3.0
Ca2FeClO3,0.5775,-2.612166277857142,mp-630511,1,0.0
K2UMo2O11,0.6880000000000001,-2.246566655749999,mp-1198457,1,1.0
K2Te2W3O5,0.035299999999999,-0.227620488152776,mp-1213027,1,0.0
Cs2KMnF6,1.7435,-2.983461569449137,mp-560861,1,2.0
LaMgMnO3,0.0,-2.027068627155172,mp-2222907,1,0.0
Li5VP3O11,3.150499999999999,-2.660752275529762,mp-757557,1,4.0
Ni(RhO2)2,0.0,-1.046046744999999,mp-636519,1,0.0
BaCr10O15,0.0,-2.326235645384616,mp-19500,1,0.0
Pr2Mn2Se2O3,0.556499999999999,-2.457776933209211,mp-1078664,1,0.0
Co(CO)4,2.6839,-0.8025171924999991,mp-608469,1,4.0
FeSiO4,0.605699999999999,-2.083260607083333,mp-1191756,1,0.0
Na2In2Mo5O16,1.5639999999999992,-1.996828840643678,mp-1221585,1,2.0
Na4MgMn2O6,1.5165000000000002,-1.92163548433687,mp-2220000,1,2.0
BiW2(Br4O)2,1.8201,-1.205330088461539,mp-1192987,1,2.0
K2V3(PO5)4,0.0213,-2.321259768209359,mp-1200624,1,0.0
Fe11Si4(H4O9)3,0.2893,-1.496061056296297,mp-1225211,1,0.0
Li12MnV7(PO4)12,0.1814,-2.704201557295567,mp-779342,1,0.0
LiTiFe2O5,1.4659,-2.310862949074075,mp-753225,1,2.0
V2FeAg3O8,1.6188,-1.587404762857142,mp-1192650,1,2.0
Na4Cu(MoO4)3,0.2423,-1.983658005525863,mp-556252,1,0.0
MgMnRe2(HO5)2,2.182,-2.07764954752694,mp-2240936,1,3.0
SrNb2NiClO7,0.0,-2.550572276249999,mp-1232351,1,0.0
V2Ni2O7,0.0,-1.967618996136364,mp-27157,1,0.0
VCdO3,0.0,-2.071688186000001,mp-556857,1,0.0
Li4Mn3(OF3)3,0.8171,-2.614214818269813,mp-753462,1,1.0
MgFe3P3O13,1.9737,-2.389956318946429,mp-1041464,1,2.0
VNiP2O9,0.0146,-2.212992383598901,mp-1350888,1,0.0
Rb2CrCl5O,1.0209,-1.727938965277777,mp-1198076,1,1.0
TbV(SeO4)2,2.0322,-2.18090161094618,mp-1197743,1,3.0
LiAlNiO3,3.021299999999999,-2.380168923888888,mp-754284,1,4.0
Zn3Fe9(PO4)8,3.3155,-2.302737440521979,mp-1216151,1,4.0
LiCoP2O7,0.0,-2.350351497965368,mp-27043,1,0.0
CoB4O7,3.2709,-2.6060307412847212,mp-22829,1,4.0
LiMn2P4H11O18,4.6113,-1.974828982264356,mp-780468,1,6.0
LiMn(PO3)4,1.3434,-2.5749866137408772,mp-26983,1,2.0
Li8VCo3(PO4)6,0.010899999999999,-2.4183185605839,mp-760152,1,0.0
BaNaLaFeO6,0.0,-2.201908446637931,mp-1520093,1,0.0
Ba8Mn6Co2ClO22,0.4049,-2.404169648656057,mp-1228330,1,0.0
VH9C3O4,2.6976,-0.7663863212500001,mp-560734,1,4.0
NiH48C16S8(NO7)2,3.3798,-0.410277299438201,mp-729907,1,5.0
K6V6P6O31,0.0392,-2.575802458293003,mp-1224907,1,0.0
BaV2(AsO5)2,2.166299999999999,-2.286222223833333,mp-1227827,1,3.0
MoH8(NO2)2,4.3596,-1.063187265000001,mp-1194494,1,6.0
Ta2Fe(NF2)6,0.013099999999999,-0.781930461650793,mp-1190747,1,0.0
MgCoCuO2,0.0,-1.251700705,mp-2226498,1,0.0
VCo(PO4)2,0.018999999999999,-2.40960435327381,mp-776006,1,0.0
Pr2MgCr2O8,1.66,-2.795782570641025,mp-2218317,1,2.0
Li11Nb4(Ni3O8)3,1.239099999999999,-2.102686992638889,mp-769524,1,1.0
Rb2MgCr2O14,0.1827,-1.009803530526314,mp-1210522,1,0.0
SrMnFeBiO6,1.188,-2.058466937793105,mp-1218209,1,1.0
Li2Mn3ZnO8,1.5525,-2.018102850389983,mp-704943,1,2.0
CaFe2(PO4)3,0.0,-2.505202056607143,mp-1214178,1,0.0
MoHO3,0.7623000000000001,-1.67037852725,mp-1221516,1,1.0
SrNd5Fe6(AsO)6,0.0,-1.5870818515624991,mp-694989,1,0.0
Mn3(AsO4)4,0.4497,-1.496301447556221,mp-1041708,1,0.0
Ti3Cr3(SbO8)2,0.7355,-2.528864603333333,mp-770891,1,1.0
VAs2H4O9,2.2586999999999993,-1.643592170937499,mp-505074,1,3.0
Ga(FeO2)2,1.146199999999999,-1.796815088214286,mp-1225246,1,1.0
Li4Ti3Fe2Cu3O16,0.0,-2.120455624761904,mp-778758,1,0.0
NiSb2H8(O3F4)2,0.0,-1.577028477,mp-1180862,1,0.0
Fe5Cu2(PO4)6,0.0,-2.1988294112934352,mp-558889,1,0.0
V4AgO10,0.0,-2.11993409211111,mp-1216506,1,0.0
SrEuNiBiO6,0.0,-2.0075490435,mp-1519106,1,0.0
BaLiCrF6,3.9628,-3.492257260648148,mp-560949,1,5.0
Fe14O15,1.019,-1.46212988775862,mp-764417,1,1.0
Y2Mn3Sb3O14,1.1622,-2.46827457403605,mp-1216129,1,1.0
Al2W5O16,0.0,-2.268952497826087,mp-561337,1,0.0
MnV2O10,0.4029,-1.364158538687003,mp-1211166,1,0.0
KMg14CrO16,2.5372999999999992,-2.805122622414063,mp-1034004,1,3.0
AlVO4,3.0384,-2.796821249444444,mp-18827,1,4.0
Ca10V6O25,2.3495,-3.018827914756098,mp-891956,1,3.0
AlNi(WO4)2,1.9588,-2.248289101249999,mp-1254576,1,2.0
KFe4(SiO4)3,1.924399999999999,-2.4052758448625,mp-1223588,1,2.0
Ba6Nd2Y(MoO6)3,1.1591,-3.0089145455,mp-1228132,1,1.0
V3Cr2Sb3O16,1.1772,-2.126851384999999,mp-778794,1,1.0
Li6CrO6,0.5276000000000001,-1.994271676923077,mp-753796,1,0.0
Li3VCrP2(O4F)2,0.622599999999999,-2.739563659369747,mp-753680,1,0.0
MgTiNiP2O9,3.0266,-2.770621761794218,mp-1043031,1,4.0
Eu2MnSbO7,0.0,-2.618987704357368,mp-1225478,1,0.0
Li3Ti3VO8,0.0,-2.944176315999999,mp-752665,1,0.0
MnAu2C4(N2O)2,0.0,0.259015315543766,mp-1180441,1,0.0
Li3VF8,2.0326,-2.948109282499999,mp-2913130,1,3.0
CoSeClO6,0.0,-0.283591398038195,mp-1213819,1,0.0
BaFe3(PO4)3,1.1157,-2.562997197838346,mp-1194498,1,1.0
P3RhW2O15,1.552299999999999,-2.281421520425169,mp-1194839,1,2.0
K6CoMo5O19,2.805,-2.045283702854838,mp-556109,1,4.0
Rb4Mg(FeO2)4,1.6821000000000002,-1.653285808529411,mp-2228930,1,2.0
Ba2V2CuBrO8,0.2924,-2.4155845166071432,mp-1195498,1,0.0
Li12MnV3P4(CO7)4,1.4911,-2.423955877432739,mp-861267,1,2.0
MnH14C8(NO3)2,2.5846,-0.6966853575945501,mp-1198023,1,3.0
Mn3WO6,1.8192,-2.133976629879308,mp-19158,1,2.0
Rb2Be3Ni2F12,6.149,-3.089417545657895,mp-1209719,1,7.0
MgNi2(SbO3)4,0.3304,-1.719453293947369,mp-2230390,1,0.0
Sr2Li2NiO4,2.7663,-2.233991758796296,mp-753817,1,4.0
Sc7V9O24,1.6977,-3.157138790125,mp-863413,1,2.0
Co2PHO5,2.4941,-1.920177615654762,mp-505217,1,3.0
Li5V3P8O29,0.9305,-2.62035637241799,mp-1177238,1,1.0
In(FeO2)2,0.0,-1.6524331452380951,mp-20693,1,0.0
Cr(CoO3)2,0.0,-1.314804237777778,mp-752462,1,0.0
Mn11ZnO16,0.661,-2.024981503115764,mp-861549,1,0.0
KMg2V3(CuO6)2,0.0,-2.234244228612499,mp-561861,1,0.0
V2NO5,2.3788,-1.9650297675,mp-1208115,1,3.0
RbNbWO6,2.929999999999999,-2.6130161891666672,mp-1219587,1,4.0
V3Pb2O9,1.7264000000000002,-2.20054111267857,mp-1101267,1,2.0
Fe(SbO3)4,0.0,-1.642270963529411,mp-754951,1,0.0
SmTl(MoO4)2,3.5068,-2.370648509444445,mp-19480,1,5.0
CaEuInFeO6,0.0,-2.208624451166666,mp-1519852,1,0.0
TaMnNbO6,2.569,-2.984529658918264,mp-1217948,1,3.0
Ba2VO4,1.5455,-2.930773886071427,mp-19096,1,2.0
Tl2FeH12(SO7)2,3.9101,-1.486657725376344,mp-1198334,1,5.0
SrWNO2,0.0,-1.876473239,mp-1217767,1,0.0
Cs2CrO4,3.2458,-2.067413580972909,mp-647813,1,4.0
Mn3V6(FeO6)4,1.4562,-2.1596034398322472,mp-559387,1,2.0
Li5V2P5O18,1.9323,-2.707321444662698,mp-26595,1,2.0
Mg2VIrO6,0.043,-2.2330959535,mp-1377792,1,0.0
Li3V4O8,1.0954,-2.466462916666666,mp-1302334,1,1.0
Na2UMo2H3O11,0.5059,-1.481922462316242,mp-1212280,1,0.0
AlFe4Hg2O2F,0.0047,-0.224473304500001,mp-1238368,1,0.0
NaV2O5,0.9307999999999992,-2.408836562047414,mp-760908,1,1.0
Ti5Fe11O24,1.1662,-2.3015886219166672,mp-694952,1,1.0
Sr2MnReO6,0.2928,-2.630640101043104,mp-1205767,1,0.0
Sr5V3H6(O3F8)2,2.9173,-3.033934275,mp-1198080,1,4.0
MnH8(SO6)2,0.409699999999999,-1.498594534801349,mp-778207,1,0.0
TiV3Cu2(PO4)6,0.0228,-2.540672195588624,mp-1101412,1,0.0
Li5Fe3(OF5)2,1.7943000000000002,-2.688068937833333,mp-1177125,1,2.0
InCu(MoO4)2,0.5448000000000001,-1.782514010972222,mp-616610,1,0.0
Sr2FeCoO6,0.0,-2.091232943,mp-1094054,1,0.0
Li3Fe(CoO2)4,0.0,-1.57555478375,mp-1177773,1,0.0
SrNdNiRuO6,0.3996,-2.152159281249999,mp-1218114,1,0.0
Li3Ti(FeO3)2,0.0316,-2.321905860277777,mp-774498,1,0.0
MgCo4(SbO6)2,0.8664000000000001,-1.54251263868421,mp-2231381,1,1.0
CsGaNiF6,4.4905,-2.82301691468391,mp-1225948,1,6.0
Li3MnV(P2O7)2,2.137699999999999,-2.699369753543584,mp-850951,1,3.0
MgCr2(SbO3)4,0.477699999999999,-1.909655448157894,mp-2231478,1,0.0
Ba2Tl2Ni3O10,0.0,-1.126828978039216,mp-1046591,1,0.0
La9Ni5O19,0.0,-2.934005355454544,mp-757549,1,0.0
CaHo(MoO3)2,1.3182,-2.773120962499998,mp-1041241,1,1.0
KV2(PO5)3,0.0,-2.114601869698979,mp-1204086,1,0.0
Ti3NbCo2(PO4)6,0.1888,-2.757854983829365,mp-776059,1,0.0
Li4MnFe5O12,0.284499999999999,-1.771486655966562,mp-771089,1,0.0
CoPtF6,1.9373,-1.9411580149999992,mp-556492,1,2.0
TlBi(WO4)2,2.7891999999999992,-1.979128261944444,mp-1208096,1,4.0
Y2Mn2O7,0.8710999999999991,-2.868369052351096,mp-18831,1,1.0
CaV2CuO7,0.478099999999999,-2.362450883939394,mp-557595,1,0.0
Na3CaMgCr3(SiO3)8,3.1858,-3.005437608728448,mp-1221259,1,4.0
Ni5O7,0.0,-0.8254484133333321,mp-1046095,1,0.0
Mn2PH9(C4O3)3,2.915499999999999,-0.5490980005077241,mp-728736,1,4.0
LiLu(WO4)2,3.8008,-2.68189497375,mp-1190882,1,5.0
Li4Y3MnO8,1.1037,-2.918235945235273,mp-756303,1,1.0
Li2W(OF2)2,4.169,-2.784309477685186,mp-772400,1,6.0
VPbO3,1.3715,-2.114616589,mp-20032,1,2.0
BaPr3(NiO4)2,0.4406,-2.749620936785713,mp-1227893,1,0.0
CaLa(FeO3)2,0.0,-2.539938195500001,mp-1043900,1,0.0
Ca2CoIrO6,0.0,-2.12642163525,mp-1287594,1,0.0
KFeSn3O8,1.4194,-2.02192704401923,mp-1223574,1,2.0
NiH12(ClO3)2,1.412599999999999,-1.248853538809524,mp-24231,1,2.0
Li2CrP4(H4O5)4,2.711999999999999,-1.875647157214838,mp-759552,1,4.0
Mn3NbCr2(PO4)6,0.0,-2.535107736712506,mp-775967,1,0.0
Li3V2P2O8F3,2.3625,-2.813991560932539,mp-758819,1,3.0
Ba2Ca2Zn5Fe3O14,0.2356,-1.9991172801923072,mp-694875,1,0.0
La7SmMn4(FeO5)4,0.9926,-2.831068928172892,mp-1076172,1,1.0
Pr3MoO7,0.016,-3.243233262727272,mp-30215,1,0.0
YbCrO3,0.0,-2.8502928842500013,mp-1187572,1,0.0
Sr5Ca3Fe2(CoO4)6,0.0,-2.012281078,mp-1076260,1,0.0
RbNi2F6,0.0,-2.335407549722222,mp-556497,1,0.0
K3CrPCO7,2.7248,-2.341193123184066,mp-774255,1,4.0
MgNi(TeO3)4,1.5113999999999992,-1.547715426203703,mp-2229023,1,2.0
Cs2CoH12(SO7)2,2.8743,-1.60162157368743,mp-863299,1,4.0
Sr2Y4Fe2Cu2O13,0.5308,-2.798261756956522,mp-1218649,1,0.0
Fe4P3(HO5)3,1.452799999999999,-2.091288250307142,mp-24470,1,2.0
NaVZnP2O9,0.8985999999999991,-2.450676232726072,mp-1199770,1,1.0
Ti3Fe2Ni(PO4)6,1.995699999999999,-2.739388042440476,mp-775987,1,2.0
Li3V2Fe3O10,1.347999999999999,-2.099959742777778,mp-753077,1,2.0
Tm2Mn(GeO3)4,1.9907,-2.680978025417424,mp-1216872,1,2.0
Ba2MnAl2CoF14,2.972299999999999,-3.574526734396551,mp-1214777,1,4.0
Sr2TaCoO6,1.6183,-2.892238627733334,mp-1283831,1,2.0
Li12VNi3P4(CO7)4,1.5977,-2.323820032087912,mp-766677,1,2.0
SrTbEuWO6,0.0,-3.102716760666668,mp-1518567,1,0.0
NaMn3P3O13,0.934999999999999,-2.3959257657050492,mp-1012742,1,1.0
LiMn3OF5,1.8051,-2.737499791962643,mp-761133,1,2.0
MgV4Zn2O12,1.155799999999999,-2.248396860263158,mp-2228788,1,1.0
FeCo(BiO3)2,0.5354999999999991,-1.518898982000001,mp-1225028,1,0.0
MgCo2(BO3)2,2.3143,-2.22836147121212,mp-2217796,1,3.0
Tl2Mo2P2O11,2.296699999999999,-2.195239186232494,mp-1217035,1,3.0
CsCoNiF6,1.4981,-2.4228049332950192,mp-1228915,1,2.0
Sr4Y2Fe2Cu4O15,0.0,-2.276390513148147,mp-1218585,1,0.0
CoN4Cl2O3,0.3566,0.069781053999999,mp-1182276,1,0.0
Li2MgCo13O28,0.9558,-1.255127420265151,mp-760219,1,1.0
HoZnCr2O6,0.0,-2.4997952895,mp-1041120,1,0.0
Li5Mn4(Si3O10)2,0.0,-2.7073510399540233,mp-778120,1,0.0
Eu2NiBiO6,0.0,-2.0480072440000012,mp-1517339,1,0.0
CoS2(NO7)2,0.0902,-0.7354277392105261,mp-1214687,1,0.0
Ba2Mg2MnF10,4.4494,-3.7776360565287352,mp-1214672,1,6.0
Ba2NbCrO6,1.582399999999999,-3.056199825000012,mp-31627,1,2.0
Mg14MnCO16,0.010299999999999,-2.646895204154094,mp-1036119,1,0.0