formula,bg,formation_energy,mp-id,fidelity,bg_category
Li5Fe5O12,0.048699999999999,-1.711110773712121,mp-759022,1,0.0
ZnCu(MoO4)2,0.4366,-1.735525131666667,mp-1216064,1,0.0
Li4Ti2Nb3Cr3O16,0.0,-2.708498389642857,mp-757702,1,0.0
Na4CrH8SO7,2.418599999999999,-1.527640686453201,mp-775341,1,3.0
Ca3LaMn2(IrO6)2,0.0,-2.427286103543104,mp-1227846,1,0.0
Cr2SiO4,1.9961,-2.507166292857142,mp-18800,1,2.0
Mn(HO)2,1.9589,-1.5574441130862071,mp-23789,1,2.0
CoB10(H13O4)2,2.7696,-0.690261814092592,mp-1198299,1,4.0
Fe2Cu8P4O21,0.0,-1.732204852387754,mp-1201149,1,0.0
NaCr12Si8BrO28,2.113799999999999,-2.611867941527586,mp-1221115,1,3.0
NbV3O10,1.5159,-2.420244780714285,mp-776661,1,2.0
Na11(WO3)13,1.0254,-2.174219009367816,mp-757528,1,1.0
YRe(WO4)2,0.0,-2.316537380625,mp-1043439,1,0.0
CoP2H13C2NO9,3.3787000000000003,-1.242668135822704,mp-1202935,1,5.0
BaLiV2Ni3(HO5)2,1.5942,-1.896609647149122,mp-1235580,1,2.0
K2FeH8(SO6)2,4.4501,-1.70428035698,mp-542146,1,6.0
KV5ZnO22,0.119399999999999,-1.270965698870689,mp-1198255,1,0.0
EuFeO3,0.0,-2.426775158000002,mp-504703,1,0.0
Fe6Bi(P3O13)2,0.0,-2.224575093791209,mp-1225123,1,0.0
Mn9FeO10,0.1508,-1.8947880305689664,mp-753618,1,0.0
SrMnOF5,0.0,-2.52343228411638,mp-1106083,1,0.0
Ca9LaTi9MnO30,0.0,-3.493289923058621,mp-694954,1,0.0
Mg14MnSiO16,0.6424999999999991,-2.801473968060345,mp-1036087,1,0.0
EuZrVSnO6,0.0,-2.760359143000001,mp-1518257,1,0.0
Mg6FeSiO8,2.8207999999999993,-2.512044828125,mp-1032523,1,4.0
Co(NO4)2,0.0,-0.479006048181818,mp-1190777,1,0.0
SrMo4H4O15,2.7437,-1.936615050989582,mp-1197507,1,4.0
Li3Cr(BO3)2,3.1353,-2.599849707569444,mp-760283,1,4.0
CaCu3(WO3)4,0.0,-1.8299331959999992,mp-1043310,1,0.0
Na6W10O33,3.4097,-2.144470525577058,mp-764858,1,5.0
Li3FeOF3,2.8447999999999993,-2.649457051875,mp-887364,1,4.0
CoHSO4,0.2809,-1.188048694107142,mp-1213835,1,0.0
CeTl(WO4)2,0.0,-2.466321212361111,mp-1213822,1,0.0
MgMn6(O2F)4,0.479099999999999,-2.311862219609801,mp-2231791,1,0.0
V2OF7,2.4554,-2.788621291000001,mp-765500,1,3.0
SrPrCoRuO6,0.0,-2.252347118666667,mp-1218107,1,0.0
V4CoH12C2(N3O10)2,0.0,-0.7313464190000001,mp-1217511,1,0.0
TiMn3Co2(PO4)6,0.0,-2.390725514860654,mp-1101396,1,0.0
MgFe2(NiO3)2,1.851999999999999,-1.633852250454544,mp-2223661,1,2.0
K3WF6,2.8446,-2.845175077174997,mp-555403,1,4.0
CaMn2P2O9,0.0,-2.672352445010556,mp-1364623,1,0.0
VO,0.9700999999999992,-2.09028776,mp-19184,1,1.0
Fe2PHO3F2,1.4983,-2.153178168154762,mp-1202411,1,2.0
CsLi5Mn(P2O7)2,3.959,-2.700472152612971,mp-1195536,1,5.0
Er2Mn(GeO3)4,2.0246,-2.674259645417424,mp-1225782,1,3.0
Cs(MoO3)3,0.0,-2.00205659458886,mp-17022,1,0.0
Mg2Ta2FeO8,3.667,-3.006367800743589,mp-1046118,1,5.0
RbMoPO6,2.8368,-2.382280824404761,mp-1198591,1,4.0
Ca3SmMn4O12,0.0,-2.640676185836207,mp-1227761,1,0.0
Li6Fe5WO12,1.639,-1.9261370033333332,mp-752576,1,2.0
MnTe2O5,1.7152,-1.6801198735955452,mp-16994,1,2.0
Li4Mn3Sn5O16,0.014499999999999,-2.13877079329023,mp-773180,1,0.0
ZnNiO2,0.0,-1.42118067,mp-1215685,1,0.0
Cs2Cr4Cu(HO4)4,0.8804000000000001,-1.575264359418901,mp-603257,1,1.0
KMoH8(NF3)2,3.263499999999999,-1.633674532625,mp-1211490,1,4.0
K4Na4Nb3W5O24,0.0,-2.419649339612931,mp-1099687,1,0.0
SrTbEuVO6,0.0586,-3.117756487166667,mp-1517713,1,0.0
Fe4O13,0.0,-0.424285692647058,mp-1181411,1,0.0
La4Sm4Co7AgO24,0.0,-2.373474636791667,mp-1099698,1,0.0
V3CrO10,0.0,-2.093440165714287,mp-755604,1,0.0
K4Na4MoW7O20,0.5568000000000001,-1.808396327069922,mp-1099972,1,0.0
Lu2MgV2O8,1.6928,-3.088900986794872,mp-2227827,1,2.0
Mg6VBiO8,0.347800000000001,-2.402408735,mp-1031470,1,0.0
V3CoSn2(PO4)6,0.0,-2.453822850773809,mp-774765,1,0.0
SmMgCoO3,0.0,-1.6517607908333332,mp-2226111,1,0.0
Zn(FeO2)4,0.0,-1.410079019999998,mp-1045634,1,0.0
Ti3Cr2Sb(PO4)6,0.0,-2.713167848551585,mp-774372,1,0.0
Nb6Ni6O,0.0,0.501899513461539,mp-541419,1,0.0
VZnP2O7,1.999299999999999,-2.505406533571428,mp-1048243,1,3.0
Li9Mn7Cr12O48,0.2242,-1.916069927177858,mp-851099,1,0.0
Na4NiAg2S8N5O12,0.0,-0.482881925432829,mp-1221251,1,0.0
Na4Mn2O5,0.0,-1.87743784648903,mp-18869,1,0.0
Na3CoSiCO7,1.0634,-2.148181175702918,mp-771041,1,1.0
Sr4Mg(Fe2O5)2,0.7330999999999991,-2.300020998157895,mp-2228813,1,1.0
Ca2MnO3,1.7349,-2.84006221882184,mp-1227324,1,2.0
Fe3H4(S2O9)2,1.2048,-1.7129122706896531,mp-696936,1,1.0
La4Fe(NiO5)2,0.0,-2.777767998823531,mp-1223077,1,0.0
Sr3Fe2S2O5,0.0,-2.074179264999999,mp-1046611,1,0.0
Ba4CrGa2(S3F2)2,2.1491,-2.403666906911764,mp-1199018,1,3.0
U2V2NiO16,0.0,-1.940340843809523,mp-1200707,1,0.0
Co2BP3(H3O7)2,3.0194,-2.027591654830586,mp-1214582,1,4.0
TiBi8W(ClO8)2,1.2218,-1.947677705833334,mp-1217203,1,1.0
Li2Cr2(SO4)3,2.4379,-2.086830598377193,mp-770410,1,3.0
K2CoC4S4N4O3,0.895899999999999,-0.311902126916666,mp-1196601,1,1.0
Fe3P2(H2O3)4,3.9078,-1.807567797371429,mp-721689,1,5.0
Mn4Be3Si3SO12,3.3366,-2.760727641488006,mp-19314,1,5.0
Cs2NaMnF6,0.0,-2.922730889362069,mp-554858,1,0.0
MnH8SO8,4.274100000000001,-1.5217441296072791,mp-24732,1,6.0
K2V6CdCu9O26,0.012099999999999,-1.702709460556818,mp-1224519,1,0.0
Li15Mn2O12,0.0,-2.025938532615934,mp-758672,1,0.0
NaVF3,2.020699999999999,-3.017998288,mp-1120756,1,3.0
LiCo8O9,0.0,-1.283355777685186,mp-771968,1,0.0
CaMnSiHO5,0.0,-2.682255667686781,mp-24017,1,0.0
Cd4MoW3O16,2.7918000000000003,-1.94592408375,mp-1226936,1,4.0
LaMgCrCoO6,0.117899999999999,-2.3614374395,mp-1047796,1,0.0
Cs3Mo2(O2F)3,3.9977,-2.430609173140396,mp-562523,1,6.0
Ca7Ni(IrO6)2,0.0866,-2.527796464999999,mp-1227125,1,0.0
V(BrO2)3,0.2237,-0.2271518655,mp-1178864,1,0.0
Ca5La7Mn7Ru5O36,0.0,-2.664452108508621,mp-743863,1,0.0
CaPrHfCrO6,2.684099999999999,-3.313105939166665,mp-1522185,1,4.0
Cr3Co3(TeO8)2,0.0,-1.561875765972222,mp-757983,1,0.0
Sr3CaMn2FeO10,0.0,-2.488433631521298,mp-1218360,1,0.0
ZnNi3(P2O7)2,3.1974,-2.2222902576623382,mp-1043713,1,4.0
Ni2O5,0.0,-0.184899414285714,mp-1094139,1,0.0
LiPrMn4O12,0.0,-1.639124634818008,mp-1520473,1,0.0
V2Ag6As2O13,0.9909,-1.35738644021739,mp-1204976,1,1.0
Ho2NiRuO6,0.0,-2.6560934209999982,mp-1211920,1,0.0
VPO4,1.834699999999999,-2.70069467577381,mp-18835,1,2.0
KEuDyWO6,0.3304,-2.918474499391667,mp-1520907,1,0.0
MnNiP2O9,0.0,-1.938996335170519,mp-1043595,1,0.0
YCo3F15,0.6741,-2.250593735263158,mp-1359624,1,1.0
K3VH2(CO5)2,2.2312,-1.750312234125,mp-559433,1,3.0
Li4Ti3Co3(SnO8)2,0.2835,-2.384046537619048,mp-777668,1,0.0
Mg3Cr6(FeO6)4,0.448399999999999,-1.893417391486486,mp-1360929,1,0.0
Eu2VO4,0.0,-3.080261765714289,mp-19815,1,0.0
Li4Nb3Fe3(TeO8)2,0.5071,-2.225447307738094,mp-779209,1,0.0
BaSr3Mn4O12,0.8782000000000001,-2.468077104086207,mp-1227712,1,1.0
Ba2W2F11,2.8686000000000003,-3.166635160555556,mp-1040871,1,4.0
VBrO,1.491099999999999,-1.9885223116666664,mp-27841,1,2.0
MnCuO3,0.0,-1.426801526586206,mp-1176440,1,0.0
Li4Co3Ni2Sb3O16,0.0,-1.728917804404762,mp-757795,1,0.0
CsLi7(NiO3)2,2.4418,-1.65990850893678,mp-754136,1,3.0
V2CoO8,0.098,-1.5105167200000011,mp-1194802,1,0.0
Ti5Fe(PO4)6,0.0,-2.873914445681216,mp-1101277,1,0.0
La2NbCrO6,0.0,-3.132338575999999,mp-1223155,1,0.0
La5Mg2Mn3O15,0.7944999999999991,-3.147731423751723,mp-1223268,1,1.0
MgFe3OF7,0.9061,-2.591620598750001,mp-2218104,1,1.0
LiTiV2CrO10,0.6066,-2.375540340444445,mp-1236317,1,0.0
Li3Fe2P2(O4F)2,1.5577,-2.5675158452521,mp-1177665,1,2.0
Li7Fe4(P2O7)4,1.564899999999999,-2.546403405861195,mp-1177031,1,2.0
K3LiMn4(MoO4)6,3.0348,-2.143332453994934,mp-725121,1,4.0
Li4Cr3Co5O16,0.0,-1.7107477229761912,mp-770878,1,0.0
CrP2H15N2O11,3.7807999999999993,-1.49891362767857,mp-698222,1,5.0
BaTl(WO3)2,0.0,-1.784968630833334,mp-1046939,1,0.0
Ti3Fe2Sn(PO4)6,0.077499999999999,-2.71963627952381,mp-1101366,1,0.0
V2NiO7,0.448899999999999,-1.7083608065,mp-818255,1,0.0
MgCr2(CoO3)4,0.321299999999999,-1.521760016052631,mp-2230385,1,0.0
Li3FeCu3O8,0.0,-1.335262088,mp-771350,1,0.0
Li4TiMn8O18,0.0,-2.134617075164998,mp-769509,1,0.0
Sr2Mn2O5,0.0,-2.571303136206898,mp-18798,1,0.0
HfMg30VO32,0.0,-2.944453706875,mp-1036714,1,0.0
Na2Li4Co2C4SO16,2.5437000000000003,-1.980689436503172,mp-760207,1,3.0
BaFeO3,0.0,-2.150281130333332,mp-1192651,1,0.0
BaMo4O15,1.2307,-1.575583413875,mp-729474,1,1.0
Li10Mn3Cr3(FeO8)2,1.048699999999999,-2.094024031091954,mp-777063,1,1.0
MnFe5O8,0.0,-1.616134753423645,mp-1221814,1,0.0
TiFe3Bi3PbO12,2.0919,-1.9100326131666672,mp-1217154,1,3.0
BaEu2CoO5,0.0,-2.6977684372222233,mp-541429,1,0.0
MoH(ClO)2,2.2179,-0.914557971041666,mp-1210599,1,3.0
NaCaTiMnSi2O8F,2.4152,-3.182861771676244,mp-1210293,1,3.0
MgCr3AgO8,0.381799999999999,-1.79329508051282,mp-2218476,1,0.0
InCoO3,0.0,-1.533098974333332,mp-755167,1,0.0
Sr2FeO3,0.0,-2.563631265,mp-1071505,1,0.0
MgMn2P2(HO5)2,0.661299999999999,-2.336000358391046,mp-2224767,1,0.0
Cr3O8,0.5890000000000001,-1.652323716363635,mp-2220540,1,0.0
Na6Mn3(PO4)4,2.3479,-2.471333386401393,mp-778858,1,3.0
Sr2CaPr2Fe2(RuO6)2,0.0022,-2.365954353015872,mp-1234301,1,0.0
VF3,1.6025,-3.238528048750001,mp-559931,1,2.0
Ti3MnSn2(PO4)6,1.303799999999999,-2.801831590160783,mp-1101302,1,1.0
KLiHo2(MoO4)4,3.226,-2.527140916690972,mp-1211688,1,4.0
Er2Mo3H2Se2O17,1.6125,-2.158496653930288,mp-1203166,1,2.0
Cr8O21,1.7012,-1.685936004310345,mp-558855,1,2.0
Zn2Co4P4O23,0.156199999999999,-1.129557183744588,mp-1179702,1,0.0
CeTl5Ni2(NO2)12,0.442599999999999,-0.843759311515152,mp-559686,1,0.0
Rb2U2Cr3(H6O11)2,1.6182,-1.924655748475608,mp-1211852,1,2.0
NaLi2Mo2P3O14,2.455899999999999,-2.4995791038397512,mp-559443,1,3.0
Ba2CaCuMo2F14,0.514,-3.271405586249999,mp-1045884,1,0.0
Ba7Fe6(OF16)2,0.822399999999999,-3.144099555106383,mp-821363,1,1.0
Sr24Fe16O53,0.0,-2.158912060483872,mp-765020,1,0.0
InNiAg2F7,1.4768,-2.109511752727272,mp-1212006,1,2.0
Cs4Mg(WO4)2,1.5228000000000002,-1.986470666908045,mp-2232192,1,2.0
Na2Mg2Fe2Se3(SO8)3,1.822299999999999,-1.8416839081191632,mp-1221456,1,2.0
Na2VPO6,3.294499999999999,-2.518586562990147,mp-559869,1,4.0
Cr6O11,0.0,-2.123403061470588,mp-1213798,1,0.0
Li2Fe(PO3)8,0.0,-2.3486452952517,mp-694564,1,0.0
SrCa(CoO3)4,0.0,-1.235496508888888,mp-1517017,1,0.0
Li2MnSiO5,0.557399999999999,-2.459204168288633,mp-755733,1,0.0
Fe2WO6,0.0,-1.892219712777778,mp-22124,1,0.0
MnC5(O2F)2,2.588899999999999,-0.892811297535921,mp-559604,1,3.0
Li3Ti(NiO2)4,0.263999999999999,-1.926909874583333,mp-1305999,1,0.0
KNa2LiTi2Fe2(SiO3)8,2.0557,-3.001443728000215,mp-510635,1,3.0
K4MgMn4O8,0.0,-1.863251407983773,mp-2221154,1,0.0
EuWO3,0.0,-2.403138358000001,mp-1184400,1,0.0
Ni4(BiO2)9,0.0,-1.342160395806452,mp-690570,1,0.0
Mn5VO8,0.4954,-2.140812590332513,mp-1193782,1,0.0
Li2Ti3Co(PO4)6,0.0,-2.7686644398478832,mp-758323,1,0.0
KZrMnBiO6,1.1158,-2.256004151518105,mp-1521496,1,1.0
Na4NiO4,0.789,-1.332105811168582,mp-752478,1,1.0
Sr2CaMoO6,2.561199999999999,-2.9194941195,mp-19116,1,3.0
SmEu(NiO3)4,0.0,-0.8092130850000001,mp-1521550,1,0.0
Mg14TiVO16,0.137500000000001,-2.913083967916667,mp-1034443,1,0.0
CsMgNiF6,0.386399999999999,-2.829395015517241,mp-1225959,1,0.0
Li4V3P8O29,1.124199999999999,-2.582964993192641,mp-1177550,1,1.0
TlV3O8,2.002999999999999,-2.191476307361112,mp-18996,1,3.0
Li10Ti3Co3(NiO8)2,0.9617,-2.224143112156863,mp-774315,1,1.0
MgCrPbO3,0.3243,-1.968616008333333,mp-2240153,1,0.0
LiAlVO4,1.7902,-2.809097857976191,mp-753631,1,2.0
Ba2YTlW2O7,0.0,-2.187452943717948,mp-1046386,1,0.0
K3MnO4,0.0,-1.765423763085129,mp-19140,1,0.0
FeAgP2O7,1.8448,-2.192921456904761,mp-1202376,1,2.0
LiMn2P3O10,4.013400000000001,-2.621550948632749,mp-26977,1,6.0
Fe3(BrO2)8,0.0,-0.325565654814815,mp-1226049,1,0.0
SrCa7Ti2Mn6O23,0.0,-2.764384595814176,mp-1247584,1,0.0
LiVCrP2(HO5)2,1.5227,-2.404784103242297,mp-765311,1,2.0
CaFeAs2O7,2.085499999999999,-2.103659425909091,mp-1042824,1,3.0
VPbClO3,2.3699,-2.049469373749999,mp-554803,1,3.0
KMn5(SeO3)6,0.4471,-1.655964202365588,mp-557389,1,0.0
Li4Ti4VCr4O18,1.500299999999999,-2.762740471505376,mp-774577,1,2.0
Li4Fe3O8,0.0,-1.724968086222222,mp-775127,1,0.0
SrSmMn4O12,0.0,-1.9142996764846751,mp-1522852,1,0.0
Tl2WO4,3.3207,-1.6987105345238132,mp-19341,1,4.0
Li2Mn2Ni(PO4)3,0.316899999999999,-2.411120515322866,mp-774573,1,0.0
Ba5Co4PtClO13,0.0,-2.030954588333335,mp-1228254,1,0.0
Fe2Si2SbO9,0.0116,-2.264676385357142,mp-1103957,1,0.0
Mg(MoO3)4,0.9870999999999992,-2.040433482058823,mp-2229132,1,1.0
Sr2CaMnO6,0.0,-2.463524308793103,mp-1521761,1,0.0
Y4(Mo2O7)3,0.4241,-2.567148798709677,mp-1328802,1,0.0
Li4Si3(NiO5)2,3.5721,-2.564268959385965,mp-765979,1,5.0
LiCrP4O13,0.0,-2.407409722468672,mp-1101523,1,0.0
CoTe2O7,0.0,-1.063249819833333,mp-1042498,1,0.0
Ca2Ta2NiO8,1.4678,-3.034880936512821,mp-1046168,1,2.0
Sr5Ca3Ti3Mn5O20,0.1095,-2.952205971587642,mp-1099762,1,0.0
Sr4Co3ReO12,0.2418,-2.288483668624999,mp-1218565,1,0.0
Li6MnCrP2(CO7)2,2.4086,-2.404123787200644,mp-753761,1,3.0
Fe5(OF4)2,1.304099999999999,-2.332608438333333,mp-1178293,1,1.0
Fe2(TeO4)3,1.5896,-1.29023127617647,mp-1042761,1,2.0
Sr2YTlCr2O7,0.0,-2.599218316794873,mp-1045989,1,0.0
RbNa2NiO2,0.0,-0.988130223376436,mp-546033,1,0.0
BaCo(SeO3)2,2.901,-1.81202276571875,mp-567548,1,4.0
BaSrCrBiO6,0.142,-2.336163041,mp-1517386,1,0.0
CoSn(OF)6,0.1727,-0.8366592692857141,mp-1193842,1,0.0
CaCr4O9,0.7228999999999991,-2.075527843214286,mp-1041451,1,1.0
MgV5FeO12,0.6494999999999991,-2.359003810263157,mp-2230433,1,0.0
ErSbMo2O9,3.222299999999999,-2.377287946153846,mp-1200438,1,4.0
MgTa4Mn4Nb4O24,0.244,-2.9049828417853383,mp-1233120,1,0.0
Ba2La2Mn(WO6)2,1.5055,-2.936868257522686,mp-560825,1,2.0
Li3Co3OF7,2.772199999999999,-2.501663428928573,mp-761096,1,4.0
ThV2TeO12,0.0569,-1.8227986899479172,mp-1196774,1,0.0
ZnCrH28C6N12Cl5O8,3.4335,-0.868687161311475,mp-728213,1,5.0
MgPb2(WO4)2,2.0652,-2.030783834230768,mp-2227115,1,3.0
V4CrCoO12,0.091999999999999,-2.203079149999999,mp-755778,1,0.0
LaFe2PbO6,0.0,-2.118355055,mp-1223018,1,0.0
PrEuNbVO6,0.0,-3.071161479666668,mp-1516611,1,0.0
Co3Ag2P3HO12,0.0,-1.916816781595804,mp-1226919,1,0.0
Na5VO5,2.281399999999999,-2.05042486744514,mp-18233,1,3.0
VP6(WO8)3,1.642399999999999,-2.524243819936975,mp-760032,1,2.0
Ba3La2Ti3Cr2O15,1.547199999999999,-3.3461760694,mp-684820,1,2.0
MgFe2(PO4)2,3.6256,-2.497156927637362,mp-1041045,1,5.0
NaMnCrF6,2.2911,-3.049081169923372,mp-18641,1,3.0
Mn3NiSn2(PO4)6,0.011099999999999,-2.3304907133791732,mp-1176570,1,0.0
MgMn9CdO10,0.758,-1.801888419827588,mp-1233639,1,1.0
Mg3Co2O7,0.268599999999999,-1.993128327916666,mp-1651567,1,0.0
Li7Mo4P9O32,3.2862,-2.56570972702152,mp-27067,1,4.0
RbBa2Ni2F9,5.267799999999999,-3.197435035892856,mp-1219599,1,7.0
MgCo4(HgO4)2,0.2705,-1.169711634666668,mp-2232298,1,0.0
Mn3Fe8CuO16,0.0,-1.682522585135469,mp-1221984,1,0.0
Li3Cr4P9O32,0.6013000000000001,-2.476605159828869,mp-705371,1,0.0
Li7Fe3Sb(PO4)6,0.0,-2.465454050029036,mp-1176924,1,0.0
Li3Co(NO2)6,2.4359,-1.057309587272728,mp-772317,1,3.0
LiTiMn3O8,0.626899999999999,-2.253139008496906,mp-759309,1,0.0
CaNiWO6,0.0,-1.856527274444444,mp-1345055,1,0.0
LiVPHO5,1.8043,-2.490393199080688,mp-753560,1,2.0
Co5SbO12,0.0,-1.194074808333333,mp-753116,1,0.0
NiAgO2,0.0,-0.799589819166665,mp-19284,1,0.0
KCoP2H5O9,3.4371,-1.984713495571428,mp-1223680,1,5.0
Ba2ErCuNi2O7,0.0,-2.215805484230769,mp-1214712,1,0.0
CoSn3(PO4)4,0.8635,-2.299318725982142,mp-757548,1,1.0
Ca2CoRhO6,0.074599999999999,-1.9179904905,mp-1378169,1,0.0
CrPdO2,0.0,-1.685489044999999,mp-1063607,1,0.0
Cs2FeH12(SO7)2,4.1905,-1.622970657397107,mp-24220,1,6.0
Li8V3P8O29,1.0229,-2.726913007996031,mp-849522,1,1.0
PrVO3,1.301599999999999,-3.2025637978333332,mp-1209329,1,1.0
CrPb2O5,1.8544,-1.6962362943749991,mp-22373,1,2.0
Na3Ni(BO3)2,0.0,-2.138169488539271,mp-772229,1,0.0
Cr2(MoO4)3,2.3556,-2.09364696382353,mp-647862,1,3.0
V3FeNi2(PO4)6,0.0,-2.4466918266071422,mp-1101188,1,0.0
Li4Ni3O3F4,2.168199999999999,-2.290109064166667,mp-753092,1,3.0
K2CoP4H10O17,3.0405,-1.924258480016807,mp-764838,1,4.0
Na5Co2P(CO4)4,0.0,-1.929996893269265,mp-1176370,1,0.0
Na2TlCrF6,3.7666999999999993,-2.658808712609196,mp-1110619,1,5.0
Li4Ti2Nb3Co3O16,0.8127000000000001,-2.582566828928572,mp-767657,1,1.0
Li8V11O22,0.8258000000000001,-2.461485562845529,mp-768084,1,1.0
Na8Ti3Fe(Si4O11)4,1.0806,-3.020453605847702,mp-1221107,1,1.0
Li3Mn2F7,3.6102,-3.014349321738505,mp-764189,1,5.0
Na3CoPCO7,2.223,-2.227513549713907,mp-770948,1,3.0
Li4Mn3O6F,0.0,-2.259444314437601,mp-753146,1,0.0
Li3MnP2O9,0.0,-2.40307239881445,mp-867845,1,0.0
Li13Mn3Nb2O16,1.074799999999999,-2.320507379621366,mp-764234,1,1.0
P4WO13,2.3556,-2.37304279172619,mp-766131,1,3.0
MgV4FeNiO12,1.901299999999999,-2.222890500263159,mp-2231114,1,2.0
CaLa2Ti2Cr2O12,0.0,-3.145804731403509,mp-1375159,1,0.0
BaMg14NiO16,3.750199999999999,-2.725633702812501,mp-1034854,1,5.0
Ni2As2O7,0.1813,-1.539293493636364,mp-1199861,1,0.0
Li5Co7O16,0.6043000000000001,-1.477170530238094,mp-771191,1,0.0
Ba3CoO5,0.422099999999999,-2.438738281388889,mp-1214566,1,0.0
Co(ClO)2,0.0,-0.277394135999999,mp-1069855,1,0.0
LiVFeP2(O4F)2,1.7350999999999992,-2.622406649507937,mp-777388,1,2.0
AgMo4H22C8(NO5)3,2.1547,-0.8299762871540881,mp-603946,1,3.0
Fe9Cu3O16,0.0,-1.419058577857142,mp-705842,1,0.0
TmCrTeO6,2.6432,-2.5521943835185192,mp-1105987,1,3.0
Li2FeP2HO8,2.4221,-2.421893151050169,mp-766101,1,3.0
Na2LiFePCO7,1.4357,-2.290484872171908,mp-1176392,1,2.0
Fe5(P3O11)2,0.0,-2.342702026298701,mp-31872,1,0.0
Ca12FeCo7O24,0.0,-2.413166239090908,mp-1227684,1,0.0
Mn(SeO3)2,1.5967,-1.427935919179836,mp-28669,1,2.0
Li4Ti3Cr5O16,0.186699999999999,-2.700224681547619,mp-771120,1,0.0
WF4,1.165,-2.625930304,mp-1402840,1,1.0
Li3NiOF3,2.1079,-2.630748494999999,mp-752550,1,3.0
MgCo3O7,0.0,-1.21191174465909,mp-1338614,1,0.0
Fe4Co3(PO4)6,1.837,-2.263583499131273,mp-18085,1,2.0
Na4Mg(CoO3)2,1.5767,-1.690890950039787,mp-2226674,1,2.0
FeS2O9,0.0,-1.3346470075,mp-1102979,1,0.0
V3(NO4)2,0.404499999999999,-1.420215366923077,mp-1193517,1,0.0
Mg6CrCoO8,0.0151,-2.635629673124999,mp-1032010,1,0.0
Li4(FeO2)5,0.337299999999999,-1.810295860701754,mp-752950,1,0.0
SrLaFeBiO6,0.0,-2.3429883165,mp-1518769,1,0.0
SrSm(CoO3)4,0.0,-1.401873728611111,mp-1521847,1,0.0
Na6Te(W3O23)2,0.2263,-0.786549516693941,mp-1204538,1,0.0
Na5Co2O5,1.3256,-1.513366565991378,mp-561875,1,1.0
Li3Fe2(PO3)7,4.0258,-2.492234298863636,mp-759417,1,6.0
SmVO3,1.5136,-3.249731109500001,mp-1188225,1,2.0
KMg14MnO16,0.255099999999999,-2.791098723599407,mp-1036233,1,0.0
MgCrSbO4,0.727599999999999,-2.122987003571429,mp-2227640,1,1.0
BaCrF7,0.0,-2.944391534166667,mp-1048114,1,0.0
Cu2WO4,1.3177,-1.448381621785714,mp-505402,1,1.0
NiSO10,0.0,-0.050169141041667,mp-1197146,1,0.0
Li4Mn(PO4)2,4.1309000000000005,-2.686699182203338,mp-26081,1,6.0
Mg3Mn2(GeO4)3,0.167399999999999,-2.318154776293104,mp-1327961,1,0.0
CeFeO3,0.6746999999999991,-2.869122613,mp-756062,1,1.0
Mn2As2O7,0.0,-1.901438464623832,mp-1221906,1,0.0
Fe(SbO2)2,0.5327000000000001,-1.707838569642855,mp-22265,1,0.0
La2NiMoO6,0.0,-2.634661562,mp-1206064,1,0.0
Li2Nb2W2O13,0.3811,-2.323819299035089,mp-1222998,1,0.0
Ba2SmNb4FeO15,0.0,-3.089065989999999,mp-1228654,1,0.0
MgCo6(O3F)3,0.4816,-1.511047940789474,mp-2228436,1,0.0
KHfInWO6,0.5172999999999991,-2.532502573391666,mp-1522604,1,0.0
VH15C4S2(NO5)2,1.9578,-1.034284297022059,mp-1202300,1,2.0
Li3Fe2(OF)3,0.984,-2.409672436363637,mp-1177682,1,1.0
Li3P2WO9,3.3804,-2.5683840177857142,mp-757576,1,5.0
Cs2KNiF6,0.0,-2.599469482656034,mp-557958,1,0.0
Li4Ti2Mn3(Fe2O9)2,0.9881,-2.1708094883481652,mp-767370,1,1.0
NiH14C3NCl3O2,3.4908,-0.6710035292708331,mp-600212,1,5.0
Li6Fe3Sb3O16,0.059099999999999,-1.902778274999999,mp-771508,1,0.0
Sr3Sm(CoO4)2,0.0,-2.543865024642857,mp-1218459,1,0.0
Sr3NiRhO6,0.0,-2.293177183181817,mp-510070,1,0.0
Mn13Si2(SbO14)2,0.0,-1.9285130238467432,mp-1931800,1,0.0
LaTl(WO4)2,2.600999999999999,-2.380905389444445,mp-1211739,1,3.0
LaCu(WO4)2,1.4387,-2.392477915416666,mp-16772,1,2.0
Li7VGeO8,3.5121,-2.36430672607843,mp-769539,1,5.0
MnNb3(PO4)6,0.0,-2.778881700170242,mp-775218,1,0.0
Mn5Cu(Te2O5)6,0.371799999999999,-1.617741552909482,mp-1224824,1,0.0
Li6Ti15Co3O32,0.0,-3.049225491964286,mp-772994,1,0.0
MnPO4F,0.0,-2.326389481081985,mp-25426,1,0.0
InFeO3,1.2138,-1.8030960023333331,mp-21094,1,1.0
RbFeO2,1.5864,-1.772249116875,mp-755536,1,2.0
Sr2MnWO6,1.8985999999999992,-2.767879497793102,mp-19315,1,2.0
TmMn2O5,1.221099999999999,-2.660034671982766,mp-1207725,1,1.0
LiMn10(PO4)7,3.0141,-2.485945063590079,mp-759206,1,4.0
Li4V3OF11,2.144,-3.1254174843859652,mp-765238,1,3.0