formula,bg,formation_energy,mp-id,fidelity,bg_category
SrCaSmFeO6,0.2989,-2.5659331515,mp-1521866,1,0.0
LaNd3Cr4O12,0.0,-3.152677579875,mp-1222944,1,0.0
NdCo(BO2)5,3.1184,-2.869298354901962,mp-19495,1,4.0
NaMnF4,2.0519,-2.905333789885058,mp-554517,1,3.0
Li4V3Ni2Sn3O16,1.574699999999999,-2.118567997083333,mp-777392,1,2.0
Sn3P6WO24,2.6987,-2.483796874789916,mp-774417,1,4.0
Mn(PO3)5,0.0,-2.301673885292634,mp-849736,1,0.0
Li5Fe3F14,3.343099999999999,-2.852808813030303,mp-849291,1,5.0
LiNi2O3,0.0,-1.402850592638888,mp-757063,1,0.0
Ba2Mg3Tl2(WO3)4,0.0,-1.622974695724638,mp-1340768,1,0.0
Li4Ti3Nb3V2O16,0.0,-2.8550774058333332,mp-756025,1,0.0
CrSbO4,0.8623000000000001,-2.119747337916659,mp-33857,1,1.0
Cs2V2Cu(ClO3)2,0.6817000000000001,-2.118779700235411,mp-1199641,1,1.0
Mn4(CuO4)3,0.0,-1.412599461143376,mp-1275750,1,0.0
Ca3Mn4O8,0.432999999999999,-2.40769367078161,mp-1003639,1,0.0
Li4Ti3Mn4(FeO9)2,0.7086999999999991,-2.3894810048405652,mp-774626,1,1.0
Zn3Si4(WO7)2,0.0,-2.423103282826086,mp-1248780,1,0.0
Co7(SbO6)2,0.8058999999999991,-1.528850798571428,mp-685142,1,1.0
LiMnP3(H5O7)2,4.0589,-1.91590926147217,mp-1204876,1,6.0
Ti4FeBi3O14,1.272599999999999,-2.599101816742424,mp-1217235,1,1.0
Li7Cr2O8,0.5376000000000001,-2.134670533137255,mp-757971,1,0.0
BaCaNdFeO6,0.5867,-2.54051799775,mp-1519220,1,0.0
Re(WO4)2,0.1038,-1.93316775840909,mp-1041585,1,0.0
Ba2CoGe2O7,2.124,-2.4915868775,mp-1190827,1,3.0
Ca2NiSbO6,0.0,-2.2539713955,mp-1373974,1,0.0
BaCrCdF7,4.103,-3.242997732749999,mp-1214499,1,6.0
NaSrCeFeO6,0.0,-2.435874235137931,mp-1522517,1,0.0
Eu2CoTe2(SO7)2,0.010899999999999,-2.142991763730158,mp-1190438,1,0.0
CoPH6NO5,0.7073,-1.462273103724489,mp-697560,1,1.0
Sr2MgZrVO6,0.9937,-2.9483365395454553,mp-2224177,1,1.0
VH16C4(NO4)3,3.1012,-1.202852631944444,mp-698262,1,4.0
BaSr7Co6(CuO12)2,0.0,-1.895994339749999,mp-1076681,1,0.0
K2VO2F3,2.9836,-2.797603298375,mp-18832,1,4.0
Na2Mn(SO4)2,3.521,-2.134707520822281,mp-754159,1,5.0
Rb4BaV6O18,3.0652,-2.5115133236206892,mp-1196343,1,4.0
KCr3H6(SO7)2,2.7365,-1.899850706913462,mp-24009,1,4.0
Na5Co2As(CO4)4,0.0,-1.772822343371305,mp-779756,1,0.0
CaHoMn2O6,0.0,-2.786210496086205,mp-39739,1,0.0
FeH4S2NO8,2.3185,-1.496299018124999,mp-684724,1,3.0
Rh2WO6,0.0,-1.521290434999999,mp-1209123,1,0.0
NaMgNiIO6,2.1715,-1.566670387137931,mp-2223065,1,3.0
Sm4Mg(Mo2O7)2,1.2937,-2.796127616304346,mp-1233068,1,1.0
Li2VFeO5,2.0048,-2.182334191851852,mp-753930,1,3.0
Ba6Na2Ta2V2O17,3.053899999999999,-3.075677158187079,mp-1214664,1,4.0
V5Sn(PO4)6,0.0393,-2.592033532301588,mp-790062,1,0.0
Li4CoOF4,0.0174,-2.736769666583333,mp-759652,1,0.0
VFe2Ni3(PO4)6,0.0,-2.196162607996031,mp-764497,1,0.0
K2Co2(SO4)3,2.7281,-1.9387713373421052,mp-21807,1,4.0
Co(BO2)2,2.069399999999999,-2.366990306190476,mp-1104788,1,3.0
MgFe(CoO3)2,0.0,-1.5621230215000002,mp-2240242,1,0.0
Ba3Dy2WO9,2.2084,-3.264355978222221,mp-1228348,1,3.0
LiCr4(HgO4)2,0.0,-1.75720547188889,mp-1235716,1,0.0
Mg14ZnCoO16,2.7637,-2.832769919375,mp-1035198,1,4.0
ThV2H4O9,3.1451,-2.323252834062499,mp-1195998,1,4.0
Rb3NaMg(MoO4)2,1.5515999999999992,-2.028312602591954,mp-2232370,1,2.0
K2Sc2Mo(PO6)2,3.0902,-2.949642414278195,mp-1225084,1,4.0
La7SmCo5Cu3O20,0.0,-2.336524488611112,mp-1076880,1,0.0
HfMg30MnO32,0.0,-2.940823054186422,mp-1037789,1,0.0
CaFe2(PO4)2,3.807199999999999,-2.6179899818681323,mp-1040917,1,5.0
Na3Li2Fe5(SiO3)10,2.7055,-2.735667297716091,mp-775329,1,4.0
Zr(WO4)2,3.1993,-2.573634890757575,mp-556713,1,4.0
NaFe3P2(H4O7)2,2.2698,-1.826015762880893,mp-744713,1,3.0
Li4Mn2Cu3Sn3O16,0.0,-1.7326246326498351,mp-776289,1,0.0
Li6Mn2B4SO16,1.642599999999999,-2.384646966725129,mp-831077,1,2.0
Ca4Mn2O7,0.0,-2.806712146604773,mp-18952,1,0.0
Ba5V3HO13,3.9795,-2.935093845284094,mp-1228550,1,5.0
Li6Mn3P8O29,0.6261999999999991,-2.50950257143339,mp-776277,1,0.0
Ba3Dy2MoO9,1.3959,-3.177327449555555,mp-1228336,1,2.0
Li4V2C4SO16,1.967499999999999,-2.118760684845679,mp-776347,1,2.0
AlVP2CNO9,0.5951000000000001,-2.123833889285714,mp-735041,1,0.0
Rb3NiO2,1.2717,-1.067843539583333,mp-1103360,1,1.0
K4MnH6(S2O9)2,4.6259,-1.819628063619122,mp-746688,1,6.0
MgV2P2(O4F)2,2.0141,-2.8793174656190472,mp-2224838,1,3.0
RbCoF3,0.0,-2.6213023615,mp-541814,1,0.0
Ca3MnZnO6,2.2454,-2.666855457993731,mp-19224,1,3.0
K2RbPrV2O8,3.424,-2.681127125261905,mp-1211736,1,5.0
CsCrO3F,2.8472,-2.108343284109196,mp-1225991,1,4.0
Ba8Ca5Mn3Fe8F56,2.2256,-3.4587245304224132,mp-1228779,1,3.0
CaMo2O7,3.727999999999999,-2.242650780499999,mp-1042314,1,5.0
Li4Nb2Fe3Co3O16,0.847399999999999,-2.063779784047619,mp-757731,1,1.0
ZnCr2F12,1.303799999999999,-2.368553822666666,mp-1785896,1,1.0
TlCrNiF6,3.2459,-2.605742392592593,mp-1216839,1,4.0
Li3MnBPO7,1.2583,-2.54715406167235,mp-757046,1,1.0
MgV4(NiO6)2,1.9218,-2.169297374473684,mp-1233433,1,2.0
K2Mn2O3,0.0,-1.75827920719458,mp-19148,1,0.0
MgZn2FeWO6,1.3728,-1.910698767727272,mp-2217753,1,2.0
Fe3Cu2Sb(PO4)6,0.0,-2.186573832440476,mp-776055,1,0.0
TlFeC3NO4,2.652999999999999,-0.515383687833333,mp-17436,1,3.0
CrPO5,1.7458,-2.182157174948979,mp-756450,1,2.0
Rb2V3P4O17,0.0,-2.571335690521977,mp-1220097,1,0.0
CaP4WO12,2.0453,-2.546837436587301,mp-1045855,1,3.0
Li2Mn2SbO6,0.9462,-2.050181137502612,mp-1567262,1,1.0
MgMn2FeWO6,1.246799999999999,-2.00998853007837,mp-2217875,1,1.0
Sr4MoN4O,2.370399999999999,-1.285817026124999,mp-6164,1,3.0
CaSi4NiO10,0.0,-2.9306052159375,mp-1043642,1,0.0
NiTeO4,0.2761,-1.411543647777782,mp-1220014,1,0.0
SrMo2(PO4)4,2.3907,-2.607436588850932,mp-560050,1,3.0
Na4Mg(FeO2)4,1.3258,-1.717037249442189,mp-2224830,1,1.0
Li8Mn(FeO4)3,0.0,-1.8808038793582371,mp-766973,1,0.0
SrHoMn2O6,0.0,-2.750531710086206,mp-1218261,1,0.0
CsMnCl3O2,0.0,-1.106152097155173,mp-1194554,1,0.0
Na2MnO3,1.9179,-1.902797412614942,mp-755874,1,2.0
MgNi(GeO3)2,2.606899999999999,-2.17000875475,mp-1043162,1,3.0
NiH8(IO5)2,3.6538,-1.130861045,mp-540626,1,5.0
BaSr7V8(Si2O7)8,2.838799999999999,-3.132123340681818,mp-778499,1,4.0
Li6VCr3(PO4)6,2.2569,-2.638875661946429,mp-1176888,1,3.0
KUVIO10,0.3862,-2.046626014982142,mp-1204908,1,0.0
Na3NiAsCO7,3.534,-1.9209550678183012,mp-770940,1,5.0
Na2MnTlF6,0.0,-2.516186545402299,mp-1110617,1,0.0
V3F10,0.0,-3.088922595384615,mp-1101191,1,0.0
Ga2(WO4)3,4.2839,-2.116957999558823,mp-772174,1,6.0
Sr2NdFeO6,0.2372,-2.583409728750001,mp-1519522,1,0.0
Sr2MnO4,0.0,-2.695346935418719,mp-18978,1,0.0
Co(C2O3)2,0.5397000000000001,-0.5016336018181831,mp-1191659,1,0.0
Pr2MgV2O8,1.75,-3.041077486794873,mp-2219431,1,2.0
RbEu(MoO4)2,0.0,-2.337285932708334,mp-1209361,1,0.0
Li2NiSn3(PO4)6,0.0,-2.376919995542328,mp-770658,1,0.0
MoSO,0.1438,-0.7411964266666661,mp-2646974,1,0.0
Sr2Ca2Co3CuO12,0.0,-1.8886465735,mp-1099844,1,0.0
Na2V2ZnO7,3.2743,-2.268499522729885,mp-557323,1,4.0
Li6Fe5CuO12,0.0,-1.786804091666666,mp-867783,1,0.0
Li7Mn3Fe(PO4)6,0.018899999999999,-2.504684580365453,mp-829746,1,0.0
Li2FeP4O13,0.0418,-2.443449731011905,mp-759091,1,0.0
Mg6AlVO8,1.3612,-2.743107495625,mp-1033159,1,2.0
MnC6S2NO5F6,3.0643,-1.086898202044334,mp-616160,1,4.0
Fe4O3F5,1.7259,-2.195661587083334,mp-753020,1,2.0
NaIn(WO4)2,3.4845,-2.180769027337163,mp-20678,1,5.0
V4(PO4)3,0.0,-2.576903486785715,mp-883520,1,0.0
CaMo4O9,1.032899999999999,-1.900669456071429,mp-1048023,1,1.0
Fe2Te2W(CO)10,1.8994,-0.589062896733332,mp-559754,1,2.0
K2SrNi(NO2)6,2.1937,-1.213852720772727,mp-19374,1,3.0
BiMoO3,0.0,-1.406245923000001,mp-1183479,1,0.0
Li2Fe4OF8,3.0204,-2.53885597811111,mp-849951,1,4.0
Sr4La4Cr(NiO5)3,0.0,-2.818914750185184,mp-1173211,1,0.0
MgFe2(CuO2)2,0.0,-1.266943341666666,mp-2224223,1,0.0
Li4CrNi3O8,0.0,-1.731019542083332,mp-757137,1,0.0
Pr2Te4MoO14,3.266899999999999,-2.221947571428571,mp-556092,1,4.0
MgTi2Mn4O12,1.0689,-2.435965561231095,mp-2231338,1,1.0
K2Mn2(SO4)3,4.5728,-2.147271033308528,mp-6531,1,6.0
FeP3H18C6(SO)6,1.7519,-0.6491986004107141,mp-746355,1,2.0
Ba12Sm4Al3(CoO6)5,0.6442999999999991,-2.838163261666667,mp-1229173,1,0.0
Al2Co3GeO8,0.298,-2.175519381071428,mp-1229034,1,0.0
Mg2Mn3O7,0.486699999999999,-2.304856968232757,mp-770496,1,0.0
Li5Ni3(SbO5)2,0.232199999999999,-1.832361592583333,mp-757079,1,0.0
La6Sm2V5Cr3O24,0.9385,-3.107902019250001,mp-1076253,1,1.0
K3WS3ClO,2.776399999999999,-1.501829202138887,mp-555092,1,4.0
Sr4Ca4FeCo7O20,0.0,-2.1659564225,mp-1100009,1,0.0
Na2VPCO7,2.152199999999999,-2.431764256033456,mp-770717,1,3.0
K2RbMoF6,3.0563,-2.887130868199999,mp-1110666,1,4.0
BaLa4(CoO3)5,0.2804,-2.430043463400001,mp-1228419,1,0.0
Li2NiBiO4,0.0,-1.6663564264583342,mp-755002,1,0.0
Zr9V9O2,0.0,0.185098234124998,mp-1217608,1,0.0
Rb2Mg2(MoO4)3,4.3146,-2.346951578421052,mp-1210378,1,6.0
V2Fe3Sn(PO4)6,0.0,-2.42266704563492,mp-774750,1,0.0
Li17(CoO4)4,0.804,-1.799366053423424,mp-768424,1,1.0
V3P4Pb2O17,2.0313,-2.461826518021977,mp-683863,1,3.0
ZnNiP2WO9,1.5939,-2.203033669948979,mp-1044171,1,2.0
MgMo2(Pb2O5)2,1.782499999999999,-1.7614488679411762,mp-2229267,1,2.0
KFe3(SO7)2,0.0,-1.392178692112499,mp-1180949,1,0.0
Pr2FeCuO6,0.3847,-2.5678164218333333,mp-1520601,1,0.0
Li3V6O16,0.0,-2.3786919144,mp-756397,1,0.0
Gd6WO12,2.7937,-3.617686128421053,mp-753421,1,4.0
V3Pb5ClO12,2.808299999999999,-2.061256764761904,mp-628782,1,4.0
CaV2CoO7,2.0284,-2.4443254863636352,mp-14382,1,3.0
MgV4O7F5,1.4943,-2.721195012647058,mp-2228986,1,2.0
VFe3Sb2(PO4)6,0.0,-2.355269034384921,mp-752811,1,0.0
Mo3Se2ClO8,1.3434,-1.341345009620537,mp-1045211,1,2.0
Sr2YCoCu2O7,0.0,-2.282733135384615,mp-542434,1,0.0
Li2MnNb3O8,0.1528,-2.63192209818555,mp-752436,1,0.0
CaMn3O4,0.7771999999999991,-2.277054964224138,mp-759804,1,1.0
MgScMo3O8,1.5242,-2.400405775384615,mp-2218557,1,2.0
NaSrDyFeO6,0.0,-2.248559018304597,mp-1518306,1,0.0
Fe7Pb7F34,2.2939,-2.660195482708332,mp-21679,1,3.0
Rb2CaNd2(WO4)4,1.9222,-2.612167160799998,mp-1234177,1,2.0
Li3AlCrO5,2.0263,-2.536767939249999,mp-770586,1,3.0
Cs2Fe2(MoO4)3,1.4418,-1.772846299700545,mp-1202238,1,2.0
BaDyMn4O12,0.0,-1.880689594632822,mp-1517693,1,0.0
ZnCuMo2O7,0.230399999999999,-1.642033243181819,mp-1041894,1,0.0
Li4Ti3Mn3(CuO8)2,0.104699999999999,-2.312349553468802,mp-781494,1,0.0
LiP5W3O19,1.0239,-2.431489804340986,mp-763535,1,1.0
Ca3LaTi2Cr2O12,0.7309000000000001,-3.2311241235833332,mp-1227769,1,1.0
VCdCuO4,1.1168,-1.730580807857142,mp-505424,1,1.0
Cr3Ni(PO4)6,0.0,-2.186557868760504,mp-774406,1,0.0
CsVSO6,2.141,-2.214066093433908,mp-1181965,1,3.0
V2Fe3Ni(PO4)6,0.0,-2.344599839107141,mp-1101236,1,0.0
CaLaTaFeO6,1.897199999999999,-3.217203053733333,mp-1043970,1,2.0
MgV2(PO4)2,2.001,-2.662501682060439,mp-1040887,1,3.0
CoAgF3,0.0,-1.6283116813333331,mp-1206910,1,0.0
MnV5O12,0.583,-2.345422407662835,mp-756126,1,0.0
SrNi(PO4)2,0.0,-2.366804814107143,mp-1658552,1,0.0
Li2Cr3P5O18,0.8466,-2.559992825888604,mp-775439,1,1.0
KGdSnWO6,2.0455,-2.451092032225,mp-1522247,1,3.0
NaMo3H29C8(BrO2)4,1.828399999999999,-0.569646965993006,mp-1198806,1,2.0
Eu2MgVO4,0.0,-2.361121291875001,mp-2242214,1,0.0
MgV(Si2O5)2,1.880599999999999,-3.020343634218751,mp-1043519,1,2.0
Li2CoCO4,2.5814999999999992,-1.9153448267708344,mp-757730,1,3.0
Ca2YFe4SbO12,1.667999999999999,-2.394157629749999,mp-743862,1,2.0
Ca11YAl15Cr4SiO48,0.0,-3.098710709374999,mp-697210,1,0.0
Na6Fe3(PO4)4,3.099699999999999,-2.390310554718871,mp-1176325,1,4.0
Ta2CrO8,0.0,-2.3883719549696982,mp-1046486,1,0.0
NiBiO3,0.0,-1.354572157000002,mp-998527,1,0.0
SrInGaWO6,0.9516999999999992,-2.2083153714166652,mp-1520202,1,1.0
Lu2FeCoO6,1.794599999999999,-2.782687023833334,mp-1247745,1,2.0
CrTe(WO6)2,1.6336,-1.728832003541666,mp-756075,1,2.0
Ba2SmWO6,1.7704,-3.086228743,mp-1517191,1,2.0
K2RbHoV2O8,3.3687,-2.7349989233571432,mp-1211709,1,5.0
MnZnF6,2.3517,-2.547889649741379,mp-1386276,1,3.0
DyMn2O4,0.0,-2.714598065361248,mp-1096947,1,0.0
Cr(PO3)5,0.0,-2.348242395867346,mp-705019,1,0.0
Mg2Al4Fe(PO6)4,0.0,-2.380270808244898,mp-1210822,1,0.0
Tb4Mo4O11,0.184,-2.706897104166667,mp-21950,1,0.0
YV(SeO4)2,1.3221999999999992,-2.153044592473958,mp-1190417,1,1.0
MoW11O36,0.969299999999999,-2.152346686041666,mp-1211051,1,1.0
NaLiMn2Fe4(PO4)6,1.404399999999999,-2.416720515485048,mp-776529,1,2.0
Na2NiO3,1.3061,-1.280901694626436,mp-755764,1,1.0
NaCa9Co(PO4)7,0.0007,-3.166792117801724,mp-562419,1,0.0
Li10Co3Ni7O20,0.0,-1.535362475583333,mp-769555,1,0.0
CoPH8C3N3O7,2.6717,-1.136119936614906,mp-1204541,1,4.0
RbNa2CrF6,3.4631,-2.850811771025862,mp-1110625,1,5.0
Cs2MnO4,0.6356,-1.728598686391625,mp-505300,1,0.0
KSmSnWO6,2.0587,-2.433707769224999,mp-1521946,1,3.0
CoH9C4(NO2)3,1.4646,-0.8772913764673911,mp-1202804,1,2.0
YCr3O6,1.6873999999999991,-2.660695653499999,mp-1045038,1,2.0
Fe2C2O7,2.1604,-1.673975420151514,mp-759204,1,3.0
CrTcO3,0.0,-1.40032656,mp-1183695,1,0.0
Ni(N3O2)2,2.1516,-0.284531746363636,mp-1103006,1,3.0
MgCoAgO2,0.0,-1.273560041333333,mp-2210649,1,0.0
MgMn2(FeO4)2,1.033,-1.783544340835544,mp-2218999,1,1.0
Nb2Co3(PO7)4,0.0,-1.544722886718145,mp-1199515,1,0.0
Mn3(AsO7)2,0.0369,-1.137423525199636,mp-1189523,1,0.0
Zn4Te3W5O18,0.295399999999999,-1.5847859855,mp-1046655,1,0.0
NaFe2P2HO8,3.554499999999999,-2.284492311208214,mp-1287635,1,5.0
LiCrP2O7,2.7339,-2.674344235238095,mp-19103,1,4.0
FePH2O5,2.0601,-1.98837572079365,mp-1188668,1,3.0
Nd2TeMo6H38O43,3.3103,-1.606650135824074,mp-1173529,1,4.0
EuCu(WO4)2,0.0,-2.2458249966666672,mp-1213368,1,0.0
CsEu(MoO4)2,0.0,-2.353069434137932,mp-1213374,1,0.0
MnZn4(IO3)10,0.027,-0.9258251360651332,mp-1222103,1,0.0
V2Cd6Se5O21,2.3771,-1.602691440859374,mp-561273,1,3.0
Ta3NbV4O20,2.0969,-2.845496595071428,mp-1218100,1,3.0
Li2VPCO7,2.2891,-2.473937374275793,mp-770949,1,3.0
Cr2HO4,0.000199999999999,-1.982399715892856,mp-675581,1,0.0
Rb3Ni2(NO3)7,2.9288,-1.156652626969697,mp-1196286,1,4.0
FeTe2ClO5,2.1486,-1.500365541481481,mp-559874,1,3.0
Cr3Ni(PO4)4,0.0099,-2.4078633807738092,mp-775135,1,0.0
Cs2Mn2Cr3O12,0.0,-1.7685085167196,mp-1214390,1,0.0
Mo9O26,0.4984,-1.9340294184285711,mp-706490,1,0.0
CaFeAsF,0.0,-1.629015594374999,mp-1079859,1,0.0
KV3CdCu4O13,0.066599999999999,-1.7406361921477271,mp-1211626,1,0.0
Tb2MgW2(ClO4)2,2.643,-2.690661457888887,mp-2232271,1,3.0
FeP2H2O9,0.0,-1.719056334770409,mp-743814,1,0.0
Ca2GaFeO5,0.189699999999999,-2.615057349722223,mp-648069,1,0.0
K2MgMo2P2(ClO5)2,1.0792,-2.349806974146616,mp-2230600,1,1.0
Na14Mn2O9,0.5456000000000001,-1.545669272806896,mp-27569,1,0.0
Mn4OF6,2.3017,-2.765324940611286,mp-752976,1,3.0
MgNiSbP2O9,0.0,-2.3216903706632652,mp-1043176,1,0.0
Mo3N2O11,0.5321,-0.2008126934375,mp-1238416,1,0.0
LiMn6O12,0.375299999999999,-1.869355390223836,mp-1176651,1,0.0
Li4CrTe2WO12,0.0,-1.964245865833333,mp-774655,1,0.0
ZnCoPHO5,0.165999999999999,-2.042817192321427,mp-561632,1,0.0
NiAs2O7,0.6749,-1.114323094249999,mp-1042747,1,1.0
Sr10Mg4Fe(MoO6)5,1.8798,-2.792559736999999,mp-1218897,1,2.0
CaV(SiO3)2,1.4277,-3.138288689000001,mp-1133299,1,2.0
Ca2PdWO6,0.0,-2.221463447,mp-20810,1,0.0
LiTl4(NiO3)4,0.079299999999999,-0.990281096984127,mp-1232975,1,0.0
Li2TiCo3O8,0.0277,-1.974278714642856,mp-757968,1,0.0
Rb2LiV(PO4)2,2.136199999999999,-2.570803415365646,mp-759578,1,3.0
LiCdMoO5,0.0,-1.740521983541667,mp-727198,1,0.0
Li4FeTe(WO6)2,1.546799999999999,-2.07468559875,mp-1569036,1,2.0
K3WC4N4OF,3.2134,-0.7617976861964291,mp-651173,1,4.0
La4Fe(CoO4)3,0.0,-2.6482538554999993,mp-1223109,1,0.0
Co2Ag3SbO6,0.3795,-1.166599589305555,mp-1181748,1,0.0
TiMoO4,0.0,-2.710971552222222,mp-1216722,1,0.0
MgTiP3WO12,0.8862999999999991,-2.773209793181216,mp-1044375,1,1.0
FeH18C3(N3F2)3,3.0071,-0.94335115293919,mp-24056,1,4.0
Li5MnV3O8,1.7945000000000002,-2.298915189241041,mp-764142,1,2.0
LiMnO2,1.150399999999999,-2.159869964066093,mp-754656,1,1.0
LiHo(WO4)2,3.7911,-2.666756416527777,mp-1191729,1,5.0
KRbMnV2O7,2.5913,-2.388069553973418,mp-1211605,1,3.0
Li6Mn(OF)3,2.1633,-2.512803458879311,mp-753452,1,3.0
Mg14BWO16,2.900699999999999,-2.632932341848958,mp-1033759,1,4.0
CsCrH8(NO4)2,1.9342,-0.693795180482759,mp-1105257,1,2.0
ReNiO4,0.0,-1.7855214645833342,mp-1209068,1,0.0
VZnF5,0.0322,-2.906657057142863,mp-1394906,1,0.0
TiTlWO5F,2.755499999999999,-2.586697433518519,mp-690560,1,4.0
Mo12PH13O40,0.0322,-1.06605409152868,mp-1212469,1,0.0
Li2Ni(SO4)2,4.045400000000001,-2.032585724455128,mp-560212,1,6.0
K2Co(SO5)2,0.7162000000000001,-1.632247538966666,mp-1181029,1,1.0
ZnAs2WO7,2.7645,-1.710767309318182,mp-1043070,1,4.0
UMoO5,0.1444,-2.870027866785713,mp-618968,1,0.0
Na10U8W5O44,1.7568,-2.909702043862583,mp-559577,1,2.0
CaPrMnSbO6,1.0769,-2.603217563959771,mp-1519847,1,1.0
Li4Mn3Co2Sn3O16,0.0,-1.9362055704330872,mp-774784,1,0.0
Mn3As(HO2)4,0.0,-1.729000424924569,mp-861683,1,0.0
ZnCo(Si2O5)2,2.7874,-2.74881651046875,mp-1043509,1,4.0
Li4Mn2V3Cr3O16,0.437199999999999,-2.326990466756978,mp-773000,1,0.0
LiMn2CoO6,1.3976,-1.7640313429195411,mp-1176665,1,2.0
Ba2YV2F11,2.467999999999999,-3.7222729453125,mp-1044893,1,3.0
Mo12PO46,0.1343,-1.456430536265133,mp-733678,1,0.0
Li3Co3CuO8,0.0,-1.474400783999999,mp-769624,1,0.0
Li4Co3P4O15,2.8956,-2.386878744400182,mp-778384,1,4.0
Mg3Mn5(BO4)4,0.8500000000000001,-2.585630404332922,mp-770722,1,1.0
Fe3PWC15BrO15,0.2532,-0.617314564295636,mp-704755,1,0.0
EuDyV4O12,0.0,-2.639784404259259,mp-1520082,1,0.0
Li5VP2(O4F)2,2.4678,-2.830407496997355,mp-554656,1,3.0
CaEuHfVO6,0.0,-3.2651381615,mp-1519493,1,0.0
NaMnAsCO7,1.3106,-1.821528739255485,mp-770900,1,1.0
SrV2(PO5)2,1.8276,-2.815497741619047,mp-559580,1,2.0
Na5Y(WO4)4,4.756799999999999,-2.398197092380636,mp-18944,1,7.0
SrSm3Mn4O12,0.0,-2.8662900968362073,mp-1218118,1,0.0
KMn3O6,1.1986,-1.96537085210431,mp-1016190,1,1.0
KFe3(PO6)2,0.0,-1.810341562585317,mp-863293,1,0.0
Cr2Ir2O5,0.0,-0.765864349444445,mp-1183870,1,0.0
Ba2MgCo2CuF14,0.018,-2.93115044125,mp-1358843,1,0.0
NaNdCoWO6,2.4461,-2.48992279138793,mp-1210062,1,3.0
BaNdFeSnO6,2.0832,-2.555025121249999,mp-1519858,1,3.0
Mg3Cr8FeO16,0.0,-2.513190454464286,mp-1222216,1,0.0
Li4Cr3Co3(NiO8)2,0.977499999999999,-1.711047586190475,mp-758563,1,1.0
Na5Fe11O16,0.8882999999999991,-1.653154320215517,mp-764460,1,1.0
Tl4Ni7(PO4)6,3.1027,-2.048073108565622,mp-560035,1,4.0
Cs4Mn2PdF12,1.082199999999999,-2.746524204446461,mp-542296,1,1.0
MgMn4O6,0.6494999999999991,-2.130510983338558,mp-2217359,1,0.0
Li3Cr3(CoO6)2,0.738499999999999,-1.791838146500001,mp-765542,1,1.0
V2Pb2Se2O11,2.5026,-1.8152776608639691,mp-1204734,1,3.0
Ba5Fe3W2O15,0.180799999999999,-2.5531686968,mp-1228597,1,0.0
P3RuW2O15,0.1199,-2.299114368341837,mp-1194833,1,0.0
Co(O2F)2,0.0,-0.191674875,mp-1213782,1,0.0
K2SrTh2(MoO4)6,0.0,-2.543203161985713,mp-1195516,1,0.0
VP2NCl10O,1.8039,-1.268146693619047,mp-561324,1,2.0
Li2Ni(PO4)2,0.0,-2.1996992673809532,mp-26692,1,0.0
NiPO5,0.0,-1.356085564234693,mp-1209842,1,0.0
Sr4Al6WO16,3.6877,-3.3083688602314822,mp-14865,1,5.0
MgTiV4FeO12,1.3376,-2.524994709385966,mp-2230449,1,2.0
Li4MnNi3O8,0.0,-1.710503631954022,mp-1177345,1,0.0
NaCoF3,2.9522,-2.596814546275862,mp-21404,1,4.0
HfMg14CoO16,0.1768,-2.8610697259375,mp-1034829,1,0.0
Lu2V2O7,1.1751,-3.262010215303032,mp-20406,1,1.0
W3O7,0.0,-1.999478751999998,mp-1044534,1,0.0
Li3VP2H2O9,2.428899999999999,-2.454468876281512,mp-774317,1,3.0
K2BiPWO8,4.0734,-2.354910759164835,mp-561230,1,6.0
Li9Cr4P4(CO7)4,0.385999999999999,-2.412654508338192,mp-1176987,1,0.0
KCeSnWO6,0.0,-2.419503587724999,mp-1520368,1,0.0
Pr(WO3)5,0.0,-2.174734176507935,mp-628549,1,0.0
Li5FeP3O11,4.2351,-2.6017041170297612,mp-757035,1,6.0
Mn2Pt(CO)12,1.7822,-0.7885829094763721,mp-573318,1,2.0
MgV3OF11,0.792,-3.0966032859375,mp-2224794,1,1.0
CsV3B2P4(H4O11)2,0.0,-2.320343315663998,mp-1200471,1,0.0
K(WO3)4,0.0,-2.234711635132352,mp-757494,1,0.0
CaFe2P2HO9,1.201299999999999,-2.481975573869046,mp-1200109,1,1.0
Li3V3FeO8,0.6469,-2.294518612666668,mp-755957,1,0.0
Li3Mn3P8O29,0.0,-2.314023674091534,mp-1177655,1,0.0
CoH8Se2(ClO4)2,1.889199999999999,-1.177954105461309,mp-1204801,1,2.0
La13Mn14O42,0.0,-2.780126504870066,mp-674504,1,0.0
K5Mn3O6,0.813299999999999,-1.7101432630387932,mp-1194679,1,1.0
Na2V9MoH35(N2O19)2,0.8195999999999991,-1.555708276252906,mp-1173851,1,1.0
Ba2AlNi3O8,0.0,-1.763076705,mp-1048224,1,0.0
Sr3Fe2O4F3,0.0,-2.80015865875,mp-1147568,1,0.0
Li4MnCr(WO6)2,0.7189000000000001,-2.173857955063218,mp-752745,1,1.0
NaCo2O3,0.7090000000000001,-1.437157760229884,mp-1283194,1,1.0
Li4Ti4Mn5O18,0.6976,-2.6062678219781232,mp-769512,1,1.0
CaV3O7,2.6227,-2.711808833181818,mp-19347,1,3.0