formula,bg,formation_energy,mp-id,fidelity,bg_category
Fe3B7ClO13,3.8698,-2.523761256840277,mp-556300,1,5.0
Ba2FeCoF9,2.0265,-3.300975195769231,mp-541648,1,3.0
Ba2Ca2Tl2Fe3O10,0.0,-2.071741096666667,mp-1046475,1,0.0
BaNdMgMn2O5,0.0,-2.379808121336208,mp-2227598,1,0.0
Co(Bi5O8)5,0.4478,-1.584172169646466,mp-686514,1,0.0
Ti3Fe9O16,1.507399999999999,-2.162470100357142,mp-530877,1,2.0
Sr2ZrCrO6,0.0,-3.11760866075,mp-1080742,1,0.0
Li2Ni(PO3)4,4.6885,-2.539445131854636,mp-26165,1,7.0
Ti2Ni3Te3O16,0.5629999999999991,-1.821326314861111,mp-754528,1,0.0
LiMoO2,0.0,-1.961930820833333,mp-19338,1,0.0
Mg6TiVO8,0.1385,-2.816768801458333,mp-1031659,1,0.0
MnCr3Te2(PO4)6,0.0,-2.338288355253374,mp-759795,1,0.0
Cd4Mo3WO16,2.4773,-1.834932342916666,mp-1226872,1,3.0
Fe2Pb3F12,3.137499999999999,-2.666823764999999,mp-28700,1,4.0
KCaLaWO6,2.8899,-2.831570657474999,mp-1522448,1,4.0
MnP3H10C3NO9,4.7284,-1.326500338031837,mp-729136,1,7.0
RbVSeO5,3.1068,-1.977680997167969,mp-1209169,1,4.0
VH10S2(NO4)2,1.7481,-1.248258820760869,mp-1100920,1,2.0
Zn2W9O13,0.0,-0.747956547291667,mp-1045978,1,0.0
Sb2Mo10O31,0.289899999999999,-1.923949107325581,mp-608522,1,0.0
AlFePO5,0.5231,-2.750685666517856,mp-17477,1,0.0
Li4CrP6(H4O11)2,2.8295,-2.215277567102206,mp-775207,1,4.0
Li5CoO4,1.6143,-1.920797472166666,mp-760147,1,2.0
KBaLaWO6,2.9056,-2.910136708975001,mp-1519429,1,4.0
Sr4La2Mn3(IrO6)3,0.0,-2.3794326057931032,mp-1218666,1,0.0
Li4Fe3Ni5O16,0.0,-1.297305146190476,mp-772168,1,0.0
Li2Ti(NiO3)2,0.3679,-2.005218391212121,mp-758759,1,0.0
Li4V3CoO8,0.0,-2.286211557708333,mp-771356,1,0.0
FeCo5O12,0.0,-1.062053368333333,mp-756471,1,0.0
CsRb2MoF6,3.0636,-2.8877340684655173,mp-1111457,1,4.0
K2MgCr2Cd(H2O5)2,1.1116,-1.745658919724999,mp-2230097,1,1.0
Cr2(GeO4)3,0.613699999999999,-1.501507167794117,mp-1329713,1,0.0
La4MgFeO8,1.0145,-3.309569691071428,mp-2228454,1,1.0
Ni(ClO4)2,4.0918,-0.5404013047727271,mp-28138,1,6.0
Li2Cr5(Si2O7)2,2.6538,-2.660144944066666,mp-867580,1,3.0
Rb2Cr5F17,2.5291,-3.053145324583333,mp-559386,1,3.0
Al4Zn3Cr2O12,3.5397,-2.770651122857141,mp-1228406,1,5.0
SrTlVO4,3.2379,-2.520933969404763,mp-560156,1,4.0
Al5(CoO4)3,0.3208,-2.531957335249997,mp-1252778,1,0.0
K2Fe2P2O7F2,3.5208,-2.479326232085715,mp-1182723,1,5.0
BaTl(NiO3)2,0.0,-0.959980250333334,mp-1046932,1,0.0
Cr2O3,0.0,-2.366587769,mp-19399,1,0.0
Li3V3O8,1.3413,-2.423794721785715,mp-1177493,1,2.0
Mo3(PO4)4,1.6657,-2.397028686024845,mp-32120,1,2.0
Li2Ti3FeO8,1.9638,-3.000462087797619,mp-775306,1,2.0
CeFeAsO,0.0,-1.697325840625,mp-605060,1,0.0
MnAsO5,0.254699999999999,-1.289309141490148,mp-1201829,1,0.0
Li4Ti3V3(NiO8)2,1.13,-2.594553920833333,mp-1177257,1,1.0
Li3MnP2H2O9,0.8971,-2.36358490851275,mp-780319,1,1.0
Ti3CrNi2(PO4)6,0.049999999999999,-2.734300250496032,mp-777498,1,0.0
Ca6Mn3Al(SiO6)4,0.0,-2.689954069310344,mp-1227703,1,0.0
Mn5(SO5)3,0.0739,-1.593526975311093,mp-1211070,1,0.0
Li4Ti4Mn(Fe2O9)2,1.0594,-2.479500795470893,mp-767373,1,1.0
Mg3Mn3(BO5)2,0.0,-2.6314556642848013,mp-555830,1,0.0
YMn2O5,1.1643,-2.633742017295227,mp-510598,1,1.0
V4CuO11,0.3697,-2.0902311809375,mp-1207908,1,0.0
Mg4Mn9O13,0.5563,-2.269170354091512,mp-766029,1,0.0
Mg14VZnO16,3.242400000000001,-2.8884619478125,mp-1035195,1,4.0
Y2VO5,1.600099999999999,-3.388980260937501,mp-1201610,1,2.0
BaLaMn2O6,0.0,-2.730775449086207,mp-19245,1,0.0
Na3CrF6,3.8005,-3.062070502913792,mp-560929,1,5.0
TiNi(OF)6,0.4477,-0.934004952380952,mp-1104830,1,0.0
Ba3Mo2(NO3)2,3.1689,-2.163700296923079,mp-1228095,1,4.0
Ce2MgV2O8,0.5493,-3.116668888076922,mp-2227597,1,0.0
V3P4O15,1.9615999999999991,-2.653181553003246,mp-28425,1,2.0
NbV2O7,0.0,-2.586424955000001,mp-773430,1,0.0
MgMn(CoO2)4,0.0,-1.559099607352217,mp-2226835,1,0.0
ZnCr4O9,0.6792,-1.760390922142857,mp-1041381,1,1.0
ErBiW2O9,2.543399999999999,-2.488767008461538,mp-1983109,1,3.0
ScNi2SbO6,0.0,-2.1776836625,mp-1078244,1,0.0
Li4Mn3(OF3)2,2.6617,-2.727360323808429,mp-753977,1,3.0
K2FeO4,1.6183,-1.428852621357141,mp-19320,1,2.0
Li5MnO3F,1.8139999999999992,-2.19585499320977,mp-759969,1,2.0
Zr8MnCu2(PO4)12,2.1231,-3.048232040755567,mp-1100802,1,3.0
Sr4Re2NiO12,1.866,-2.625762139868422,mp-32309,1,2.0
Fe2H54N18Cl4O,2.1142,-0.546468803322785,mp-1196821,1,3.0
Li4Cr2Co3Sn3O16,0.0,-1.926684121369047,mp-774884,1,0.0
La2FeAs2RuO2,0.0,-1.811613839375001,mp-1223264,1,0.0
VAg(IO4)2,1.3705,-1.172486243524306,mp-1198619,1,2.0
Mg6AlFeO8,2.007200000000001,-2.709434204375,mp-1033177,1,3.0
CaMnFeBiO6,0.7048999999999991,-2.096556755793103,mp-1227209,1,1.0
KMn16O32,0.0,-1.8526361180438071,mp-1080221,1,0.0
ZnFe2CoO7,0.0,-1.156358340568181,mp-1336629,1,0.0
Ca33Mo27O80,0.0,-2.482204300214285,mp-1229268,1,0.0
Sr16Fe16O47,0.0,-2.239842744240507,mp-530945,1,0.0
MnCoB2O5,2.5223999999999993,-2.336669708473819,mp-1221788,1,3.0
NaMnP2NO10,0.7464000000000001,-1.295589627906405,mp-1193615,1,1.0
Ba4Co(ReO6)2,1.536,-2.627954138684211,mp-1106249,1,2.0
Li4Ti3Mn3(CoO8)2,0.8256000000000001,-2.405072265254515,mp-770518,1,1.0
K2Mn3H6S3O16,3.3084,-1.879365915776437,mp-1197395,1,4.0
Ba2MgFe2B2(P2O9)2,3.5191,-2.837837869720853,mp-1234736,1,5.0
Li3Mn(BO2)5,4.123799999999999,-2.667294140461283,mp-768488,1,6.0
Na3CrC6O17,0.0,-0.916758484875478,mp-1224423,1,0.0
BaGd2NiO5,0.94,-3.069349602777778,mp-19332,1,1.0
Li9Mn7V12O48,0.3991,-2.214144035335753,mp-831248,1,0.0
Sr3Co2Cu2S2O5,0.0,-1.773583601428571,mp-1400076,1,0.0
Cr3Cu(PO4)4,0.0,-2.369026299940477,mp-756357,1,0.0
NaCaEuFeO6,0.0,-1.986794306637931,mp-1517224,1,0.0
Sr2Nd2TlNi2O9,0.0,-2.460256165833334,mp-1218767,1,0.0
SrLa9Mg2Ga6(FeO14)2,0.9001999999999991,-3.013871276666667,mp-684845,1,1.0
Gd3W(ClO2)3,2.5504,-3.083050970384614,mp-1212679,1,3.0
BaTbMn2O5,0.0438,-2.7938456980587483,mp-1106241,1,0.0
CoCIN5O4,0.9436,0.184980147291665,mp-1197836,1,1.0
SrPrNiBiO6,0.3113,-2.152540990166667,mp-1518344,1,0.0
KLiTm2(MoO4)4,3.2004,-2.5302160550243062,mp-1211810,1,4.0
KLiH2WO5,5.1568,-1.995080728808333,mp-760342,1,7.0
Li3Mn4P3H12O19,2.6208,-1.933761810991528,mp-759055,1,3.0
CsV2O5,0.089399999999999,-2.454590289956897,mp-540690,1,0.0
NaMnO2,1.222999999999999,-2.025652015452586,mp-18957,1,1.0
MgV28O70,1.2612,-2.294357921060607,mp-2237148,1,1.0
Ba2Nd2Fe(CoO4)3,0.0,-2.26666741775,mp-1228516,1,0.0
Li7CrFe3(PO4)6,1.1078,-2.509794000272938,mp-760796,1,1.0
RbMnCl3O2,0.0,-1.175293285775862,mp-1104379,1,0.0
K2RbNdV2O8,3.4296,-2.6902760749642862,mp-1211725,1,5.0
Li4Mn3NbV2(PO4)6,0.476,-2.573948305124589,mp-770640,1,0.0
TiCrO4,0.0,-2.703237982222222,mp-755596,1,0.0
BaSrSmCrO6,0.0,-2.8074998504999993,mp-1521852,1,0.0
CaMnAs2(H3O5)2,2.0092,-1.784158022271551,mp-780696,1,3.0
Li7(NiO2)12,0.0,-1.22972946868217,mp-758820,1,0.0
CaSmCoO4,1.040299999999999,-2.740207450714286,mp-1227147,1,1.0
UV2O8,2.1142,-2.791035894545455,mp-541493,1,3.0
Li7Mn3P3(CO7)3,0.377799999999999,-2.357525866379864,mp-1176894,1,0.0
Mn7BiO12,0.0,-1.937203649275861,mp-1188529,1,0.0
Li3Mn(CoO2)4,0.0,-1.67220304737069,mp-756302,1,0.0
Cs2NiH12(SO7)2,4.956300000000001,-1.60286292384872,mp-542420,1,7.0
LiMn2P2HO9,0.713499999999999,-2.338162012982075,mp-780733,1,1.0
Na6V2As(CO4)4,0.000399999999999,-2.043279393819857,mp-850910,1,0.0
LiV2(PO4)2,0.587399999999999,-2.656683559047619,mp-753869,1,0.0
LiFeBO3,3.1615,-2.332140617916666,mp-777049,1,4.0
NaSrSmMnO6,0.0,-2.322993727431035,mp-1519593,1,0.0
Na5CrHO4,0.068699999999999,-1.535309631081504,mp-758584,1,0.0
La14Mn13O42,0.0,-2.991185659030485,mp-867658,1,0.0
LaMnCrO6,0.443299999999999,-2.232381274770115,mp-1040818,1,0.0
Na4Ni7(PO4)6,3.0042,-2.235873041301814,mp-19470,1,4.0
Co3(SeO3)4,0.0,-1.126627656546053,mp-775276,1,0.0
K3Mn2F7,0.7123,-3.001450548551007,mp-554144,1,1.0
MgNbVO4,0.0,-2.610515403571429,mp-2225270,1,0.0
Cr3B7BrO13,0.466099999999999,-2.617598212881943,mp-23581,1,0.0
YBi(WO4)2,1.7894,-2.453547619166666,mp-1041757,1,2.0
Yb2MnCoO6,0.0,-2.910723611198276,mp-1215956,1,0.0
MgCo4O9,0.0,-1.116565563214286,mp-1041445,1,0.0
Li5NiHO4,2.5772999999999993,-1.74650008060606,mp-1177168,1,3.0
Li32Ti13Cr3O48,1.5932,-2.83934014625,mp-1177824,1,2.0
Zn2Fe7O12,1.1595,-1.703861347142856,mp-757326,1,1.0
Li6Ti7Cr5O24,0.0,-2.946033167460318,mp-774674,1,0.0
ScMn2O5,1.1108,-2.535182568232759,mp-773517,1,1.0
BaDy(NiO3)4,0.0,-1.058328575092592,mp-1518737,1,0.0
Fe7(SiO4)4,1.925999999999999,-2.324843376666666,mp-1197365,1,2.0
VPH5O7,2.0147,-1.891973512206631,mp-1195952,1,3.0
Li3Fe(OF)2,2.4911,-2.4890234628125,mp-755329,1,3.0
Ca15Ni(IrO6)4,0.0,-2.6317581425,mp-1227837,1,0.0
Li5NiOF5,2.0926,-2.8088594205555553,mp-753377,1,3.0
NiH14SO11,5.328,-1.380692313425926,mp-23877,1,7.0
ZnCr4CoO8,2.7994,-2.202175859285713,mp-1215697,1,4.0
FeCo2BO5,0.0,-1.750658042962963,mp-1203720,1,0.0
BaTiFe2(SiO5)2,0.0,-2.7708983764583333,mp-1202235,1,0.0
CsNa5(FeO3)2,2.2614,-1.671831762789409,mp-1226173,1,3.0
Ba3WO6,3.151399999999999,-2.865173970999999,mp-1228775,1,4.0
SrEuFeBiO6,0.0,-2.215269892500001,mp-1518745,1,0.0
FePH5CO4,3.8726,-1.325231659657738,mp-1273841,1,5.0
MgAl4Cr2O10,2.569199999999999,-2.964634825588236,mp-2229131,1,3.0
TbAg(WO4)2,3.1116,-2.377185793194444,mp-1208373,1,4.0
Sr4Fe4Bi5PbO18,0.0,-1.8623272065625,mp-1218774,1,0.0
Ba2Co2ClF7,2.632599999999999,-3.097569244999999,mp-556007,1,3.0
Li11V12(CoO8)4,1.033,-2.2522038226553662,mp-761141,1,1.0
Mo2O7,0.035999999999999,-1.371603178888888,mp-1180296,1,0.0
MnSb2Pb5O11,1.4424,-1.737715705417423,mp-687227,1,2.0
Li4Mn3Nb3(TeO8)2,0.4561,-2.335435650730706,mp-778817,1,0.0
K2MoH2(CO4)2,3.1115,-1.8147376521333332,mp-557603,1,4.0
CrGa(BiO3)2,2.0429,-1.95171915425,mp-1226251,1,3.0
Li4Mn5(FeO6)2,0.9478,-2.002121055999501,mp-759127,1,1.0
LiGa(MoO4)2,3.5664,-2.094604356319445,mp-557676,1,5.0
Na3(WO3)4,0.0,-2.160787121533575,mp-757849,1,0.0
Ni(Bi3O5)4,0.0,-1.52895501909091,mp-1209935,1,0.0
CrGeSbO6,1.7907000000000002,-2.110030223055556,mp-1226344,1,2.0
Li19Cr4P8O35F,1.9694,-2.650295061051883,mp-759194,1,2.0
VH12SO11,3.0716,-1.509519008699999,mp-1196378,1,4.0
Li3(CoO2)4,0.0,-1.5816086400000011,mp-759191,1,0.0
Mn3VTe2(PO4)6,0.4851,-2.335621775693988,mp-782657,1,0.0
SrMn2(SiO5)2,0.0,-2.312443744057471,mp-1218300,1,0.0
NaSrBiWO6,2.0972,-2.236169800137931,mp-1518378,1,3.0
Eu2Mo5O18,0.0481,-1.9068522800000012,mp-704384,1,0.0
Pr8Ni4O17,0.0,-2.7976147758045973,mp-1173645,1,0.0
SrDy(CoO3)4,0.0,-1.39597915787037,mp-1523033,1,0.0
Rb2ZrFe(PO4)3,2.431499999999999,-2.628530787048871,mp-694868,1,3.0
Ni(Pt3O4)4,0.0,-0.7722844844827581,mp-1220535,1,0.0
Li4Ti2Cr3Sn3O16,0.0,-2.465153735535715,mp-776772,1,0.0
K2CoH8(CO5)2,1.7805,-1.562949932369566,mp-24350,1,2.0
Al4(NiO4)3,0.0,-2.037278010263156,mp-1248275,1,0.0
Nd3Fe5O12,1.833099999999999,-2.496524885625,mp-1201849,1,2.0
U(MoO4)2,0.0,-2.512090697727272,mp-504890,1,0.0
NiPb2WO6,2.7937000000000003,-1.731523378999999,mp-1206631,1,4.0
Zn2TeMoO7,3.4519,-1.799333107878788,mp-1192126,1,5.0
Sr2YFe3O8,0.0,-2.519291254285713,mp-1208510,1,0.0
V2Cu3O11,0.0,-1.017604107187499,mp-1208093,1,0.0
Ba2Mg(NiO3)2,0.621999999999999,-1.946709705909091,mp-2215935,1,0.0
HoWO5,0.0,-2.618537466071428,mp-1212150,1,0.0
Mn2Nb4Zn3O16,1.233699999999999,-2.493647235234483,mp-1373205,1,1.0
PrMgCoO3,0.0,-1.952421331944444,mp-2239942,1,0.0
Sr2La2TlNi2O9,0.0,-2.491650067395834,mp-1218757,1,0.0
Li8FeO5F,2.9955,-2.167131664111112,mp-776549,1,4.0
KNa2CrF6,3.7636,-2.9014785230008613,mp-1111015,1,5.0
HfV2O7,2.7436,-2.886355527249998,mp-505679,1,4.0
CrAg(SO4)2,1.9491,-1.7888988488888882,mp-1213773,1,2.0
Sr2Eu2TlNi2O9,0.0,-2.242105109270834,mp-1218836,1,0.0
Li4Cr3Cu3(SbO8)2,0.0,-1.871071641190476,mp-783908,1,0.0
V3Ni(PO4)6,0.0,-2.389916116995798,mp-774649,1,0.0
Li6Cr3Co(PO4)6,1.6552,-2.536227786196428,mp-770502,1,2.0
Li4Mn3V5O16,0.8102,-2.34529487704023,mp-773187,1,1.0
Mo3O7,0.9197,-1.768803336499999,mp-1044452,1,1.0
CrBPbO4,2.324799999999999,-2.341418702380951,mp-21100,1,3.0
Fe5(OF2)4,0.0,-2.165191532941176,mp-754310,1,0.0
LiFe2(SiO4)2,0.0188,-2.337529474743589,mp-850962,1,0.0
Mn3Fe2Sn(PO4)6,0.0,-2.348911517962507,mp-776652,1,0.0
MgCo5NiO12,0.0,-1.219450541315789,mp-2230392,1,0.0
Li3FeAsCO7,2.7162,-2.036051671346153,mp-770939,1,4.0
K6Mo10O33,3.0507,-2.073007344969387,mp-559753,1,4.0
Ca2TaMoO6,1.4283,-3.083761082733332,mp-1366540,1,2.0
RbMgMoO3,1.337199999999999,-1.699933979583333,mp-2242203,1,2.0
YCr3F15,0.167199999999999,-2.7555613671052632,mp-1041853,1,0.0
V3H8(NO4)2,1.9786,-1.518807119285714,mp-765962,1,2.0
CaSmCr4O12,0.020599999999999,-2.120436591944444,mp-1522389,1,0.0
K2NaV5H10O19,2.4862,-1.915718028469711,mp-604368,1,3.0
MgFeBO4,1.8677,-2.539494614166666,mp-1210634,1,2.0
Ba3Fe3O8,0.0,-2.227407730714285,mp-1196000,1,0.0
Fe6P4H17O27,1.5183,-1.7767458777744691,mp-744374,1,2.0
FeP4O11,3.5753999999999992,-2.476959781629463,mp-759361,1,5.0
LiV5F11,2.247999999999999,-2.941389839313726,mp-759570,1,3.0
Ba2Sr6Ti7MnO24,1.0421,-3.3957105642816092,mp-1076337,1,1.0
Li4CoCu3(PO4)4,0.0,-2.22783057542517,mp-757489,1,0.0
K2Mn5Si12O31,0.568399999999999,-2.865191498683102,mp-1224568,1,0.0
Cu6Mo5O18,0.7167999999999991,-1.511939512586207,mp-5511,1,1.0
Rb2Mo3(As2O11)2,2.0986,-1.417575654516128,mp-818272,1,3.0
La2MgFe2(WO6)2,1.4957,-2.573395695526315,mp-2230665,1,2.0
V2P2H6PbO14,1.2767,-1.942671282871427,mp-1179451,1,1.0
KEu(MoO4)2,0.0,-2.349843173520833,mp-556949,1,0.0
Na2LiVF6,0.0,-3.015468999609195,mp-1114229,1,0.0
Na10(WO3)13,0.323499999999999,-2.168318533851501,mp-766145,1,0.0
SrLiLa7Fe3O16,0.0,-3.118039360654762,mp-756619,1,0.0
VZn(Si2O5)2,1.682599999999999,-2.83956232859375,mp-1043518,1,2.0
Ca2CrO4,1.893599999999999,-2.816624737321428,mp-780397,1,2.0
V2ZnP2O9,1.6989,-2.531037520841836,mp-1041048,1,2.0
Mn3FeCo2(PO4)6,0.0,-2.2273549803236192,mp-758090,1,0.0
NaEu(WO3)2,0.0,-2.3741524426379312,mp-1519258,1,0.0
CaSi4WO10,2.2125999999999992,-2.9611088878125003,mp-1043702,1,3.0
Li8Mn3Fe5(BO3)8,3.179999999999999,-2.397356337370689,mp-775252,1,4.0
LaFeSbO6,0.0,-2.187706751111111,mp-1043995,1,0.0
BaCaMnF7,0.0359,-3.614458342043103,mp-1047948,1,0.0
VBO4,2.6245,-2.5151507398611113,mp-754594,1,3.0
KCo4(PO4)3,2.5376000000000003,-2.211584867558927,mp-646599,1,3.0
Eu2NiRuO6,0.0,-2.323986671499997,mp-1213246,1,0.0
H2W2O7,2.0689,-1.88802101840909,mp-625525,1,3.0
Mg30ZnCoO32,1.2351,-2.925154815,mp-1037497,1,1.0
LiV2OF7,1.8637,-2.9605059930303033,mp-1285272,1,2.0
Mg3Si3(MoO6)2,2.667499999999999,-2.7910684796250003,mp-1327088,1,4.0
Ba5Sm8Mn4O21,1.9766999999999992,-3.213333743861161,mp-19471,1,2.0
Li9Cr5(SiO8)2,2.8676,-2.5252393953125,mp-756673,1,4.0
Sr2ZnMoO6,2.4361,-2.561958846,mp-1079971,1,3.0
V3H6CNO7,1.9904,-1.504560358055555,mp-600200,1,2.0
Mn7PbO12,0.0,-1.913850097775863,mp-1105431,1,0.0
Mn2Fe3Co3O16,0.0,-1.26822628566092,mp-772328,1,0.0
Mn3H24(O3F2)4,0.9821,-1.635742305187087,mp-743588,1,1.0
Al4Co(BO5)2,1.7495,-2.970759331078431,mp-19348,1,2.0
Li3FeF5,1.644,-2.920922298611112,mp-776129,1,2.0
La5(Mo2O7)3,1.0219,-2.745715874374999,mp-705132,1,1.0
Rb2FeAuF6,1.1878,-2.388655778499999,mp-1110592,1,1.0
SrCaZnWO6,3.3286,-2.612264107,mp-1518148,1,4.0
V3HPb5O13,2.8288,-2.000520792784091,mp-729185,1,4.0
Li4Ti2Mn3O10,0.563499999999999,-2.5971276612522702,mp-752796,1,0.0
V6Cu11O26,0.2561,-1.579165843488373,mp-29507,1,0.0
Co2H31S2N9O11,2.6535,-0.885707712795454,mp-1227779,1,3.0
Fe4Si2Sn7O16,0.0,-1.921594353620688,mp-628588,1,0.0
Mg2Mn(PO4)2,3.5063,-2.889421271324377,mp-555215,1,5.0
Ba6Pr2Fe4O15,2.369,-2.675031596234568,mp-1228608,1,3.0
LiCrP2HO7,3.1235,-2.424457104489086,mp-755270,1,4.0
Mo5O14,0.0,-1.935370803289473,mp-30544,1,0.0
Ca2MnAl2Si3HO13,1.192,-3.1185331772355,mp-745107,1,1.0
LiVB2O5,2.2721,-2.692947322129631,mp-768913,1,3.0
Ca3V3(CuO6)2,0.0,-2.513120131749998,mp-1214197,1,0.0
Nd3Er(WO4)6,4.019699999999999,-2.726873544779412,mp-1220548,1,6.0
BaLa(CoO3)2,0.0,-2.226180699499999,mp-20477,1,0.0
LiMnPO4,3.411499999999999,-2.6334287333438913,mp-18997,1,5.0
CaMnF5,2.5589,-3.410114536133009,mp-557426,1,3.0
Rb2Ce2Fe4O11,0.170399999999999,-2.321242692105263,mp-1094081,1,0.0
Rb2Co2O3,0.0,-1.325418458571426,mp-542299,1,0.0
Mg6CrCuO8,0.073999999999999,-2.631725850625,mp-1032334,1,0.0
Ca3V6(FeO6)4,1.7641,-2.415481845135134,mp-1042908,1,2.0
Li4Fe3P4(HO8)2,3.976599999999999,-2.357536800841543,mp-780175,1,5.0
KTh2V3O12,3.300899999999999,-3.053849811513888,mp-16814,1,4.0
Ba2TbWO6,1.6795,-3.140708241666666,mp-1214561,1,2.0
Ba2Mn3(SeO3)6,0.9861,-1.8396608135467452,mp-560955,1,1.0
Na3Cr(BO3)2,2.7307,-2.4481649833309382,mp-773526,1,4.0
Ti3Cu2Ni(PO4)6,0.0,-2.604259947440476,mp-777517,1,0.0
Sr2VCO3F5,2.4796,-3.278130180416667,mp-759772,1,3.0
Dy2MgCr2O8,1.5468000000000002,-2.840513100641024,mp-2218943,1,2.0
Li5Nb2Co3O10,0.863599999999999,-2.217836802333333,mp-757125,1,1.0
Ba4CeMn3O12,1.9704,-2.776246725689655,mp-561553,1,2.0
Li8Mn7Fe(BO3)8,2.9599,-2.4851029705316092,mp-775268,1,4.0
FeH4(ClO)2,3.851899999999999,-1.305381452777777,mp-23880,1,5.0
MnNb2ZnO8,1.208199999999999,-2.447972801910919,mp-1368842,1,1.0
Li32Mn3Cr13O48,0.8376999999999991,-2.223639307296455,mp-777842,1,1.0
Na17(WO3)20,0.0,-2.143567356633488,mp-530412,1,0.0
Li4TiFe4(Co2O9)2,0.0,-1.711824267150538,mp-774870,1,0.0
Mn5Sn(PO4)6,0.0,-2.422929928680897,mp-774344,1,0.0
MgGe2(WO4)2,1.793499999999999,-1.863434160384615,mp-2218480,1,2.0
KBaFe2(PO4)3,2.5436,-2.346550740325187,mp-725402,1,3.0
Mg30VCoO32,0.9893999999999992,-2.9489651490625,mp-1037188,1,1.0
TlV4O10,0.0,-2.222900838222223,mp-18842,1,0.0
La5Sm3Ni7AgO20,0.0,-2.189416497060185,mp-1076656,1,0.0
SrCrF5,3.0298,-3.542727267321428,mp-1209037,1,4.0
MoC4IO4,0.312999999999999,-0.7604087370000001,mp-1201209,1,0.0
LiCo(CO3)2,0.0,-1.766132306833333,mp-753103,1,0.0
La2FeP2O,0.0,-0.035944170714285,mp-1211330,1,0.0
NaLiFe2(SiO3)4,2.738,-2.7378567047356333,mp-850191,1,4.0
LiFe3P3O11,3.5021,-2.371854590958994,mp-705089,1,5.0
Ca3Fe2Cl2O5,0.0,-2.5127019133333333,mp-555981,1,0.0
RbLi2V2(BO3)3,2.4687,-2.600660130686275,mp-772424,1,3.0
Sr8MgZn4(WO6)4,2.2531,-2.603018250365853,mp-2217005,1,3.0
Li4Mn3Nb3(SnO8)2,0.0,-2.425669672040229,mp-760145,1,0.0
Li4NbCo5O12,0.0,-1.784021288787879,mp-753214,1,0.0
Sr6Ti3FeO14,0.003499999999999,-3.216646102291667,mp-1641158,1,0.0
Li5FeF8,3.8678999999999992,-2.99276931547619,mp-776687,1,5.0
MnAlPH4O7,3.6275,-2.053350340183849,mp-1211169,1,5.0
Mn5CrO8,0.3824,-2.107726380689656,mp-1221988,1,0.0
LiV2F9,1.7635,-3.017490097361111,mp-1176613,1,2.0
SrMo2Se2O11,2.7115,-1.9363447849804691,mp-1200408,1,4.0
EuHfCrSnO6,0.0,-2.756922555,mp-1523067,1,0.0
BaLaMgMn2O6,0.0,-2.734309908714733,mp-2217986,1,0.0
CoWO4,0.0,-1.918304684166666,mp-19092,1,0.0
Ba3Mn2IrO9,0.0,-2.306169035390805,mp-1228074,1,0.0
Li15Ni8(PO4)12,0.0,-2.341271979225473,mp-1178182,1,0.0
Ti3Cr2Sn(PO4)6,0.0,-2.74775992063492,mp-1101318,1,0.0
MnMoH2SeO7,1.8798,-1.656038892731232,mp-1192298,1,2.0
LiMn3P3O13,0.0,-2.39552577405275,mp-1013917,1,0.0
LiFe(SO4)2,2.056699999999999,-1.9498370187499992,mp-771819,1,3.0
Na2Cr4O13,1.9232,-1.682636018829401,mp-780184,1,2.0
KMn6P7O24,3.6268,-2.6047464728246372,mp-5997,1,5.0
Zn2BiWO6,1.561999999999999,-1.80319323,mp-1344198,1,2.0
Na5V2(PO5)3,0.0,-2.368040028633004,mp-1191760,1,0.0
BaMg6VO8,3.426199999999999,-2.536754338125,mp-1031593,1,5.0
BaNa2Fe4F12,3.1752,-2.889654381197822,mp-1227924,1,4.0
NiF4,0.8967,-1.3618308325,mp-1406123,1,1.0
ZrNi4O,0.0,1.0876719125,mp-1206021,1,0.0
Li5Co2O2F5,0.000199999999999,-2.534619144404761,mp-850204,1,0.0
Li3Fe2(BO4)2,0.0,-2.160867287888889,mp-759625,1,0.0
Na5Fe2P2(CO7)2,1.2347,-2.2603907144472912,mp-777585,1,1.0
Li47(CoO4)8,0.8284,-1.915420083754789,mp-1177487,1,1.0
UCr2O6,1.0302,-2.899558374444443,mp-22172,1,1.0
MnVBiO5,1.9709,-2.14577806036638,mp-558892,1,2.0
La2MgVZnO6,1.1763,-2.883629459545455,mp-2240439,1,1.0
LiCo(PO3)4,1.3617,-2.428703609133598,mp-26997,1,2.0
CrF5,1.4475,-2.309802503333333,mp-639662,1,2.0
LiFeP2HO8,0.0,-2.212254577220696,mp-758760,1,0.0
V16FeO41,0.5244,-2.1919237775,mp-867706,1,0.0
SbWNO6,0.0,-0.980776370555554,mp-1219471,1,0.0
BaSrNdMnO6,0.0,-2.733301824043104,mp-1523075,1,0.0
Li4MnCo2O7,0.9939999999999992,-1.88035325116174,mp-1174786,1,1.0
CaLaFeAgO6,0.0,-2.172619369416667,mp-1043917,1,0.0
Li6Ni5(P2O7)4,3.4812,-2.409616170683889,mp-705432,1,5.0
H2WO5,2.4913,-1.49187888375,mp-626865,1,3.0
Li2Mn2CrO6,1.2466,-2.123691414320794,mp-1568146,1,1.0
CsMnH4(OF2)2,2.1071,-2.114343025007184,mp-758775,1,3.0
LaMgCrAgO6,0.030699999999999,-2.119611355166666,mp-1049227,1,0.0