formula,bg,formation_energy,mp-id,fidelity,bg_category
Mg6FeCuO8,0.068999999999999,-2.552644878125,mp-1032624,1,0.0
Li19V12O32,0.6928999999999991,-2.44165074941799,mp-1223171,1,1.0
Li2MnVO4,0.0,-2.312365460574712,mp-754402,1,0.0
Li4Cr(PO4)3,1.3348,-2.482280206863095,mp-764927,1,2.0
Li3Co11O14,0.0,-1.190179005714285,mp-757926,1,0.0
LiFeCSO7,1.9035,-1.895208633712119,mp-770901,1,2.0
Cs2NiF6,2.4357,-2.466306513333333,mp-689925,1,3.0
Li10Mn2Fe3Ni3O16,0.431799999999999,-1.832191468505747,mp-764933,1,0.0
Eu2DyMnO6,0.0,-2.94672887395977,mp-1521818,1,0.0
LiVSiO4,2.1026,-2.839018775119048,mp-753702,1,3.0
Li2Al2FeO6,0.9758,-2.557758117424242,mp-768173,1,1.0
Li4Mn5NbO12,0.0,-2.211801281954024,mp-756259,1,0.0
AlRe(WO4)2,0.0,-2.065402343541667,mp-1042310,1,0.0
Na7(FeO4)2,0.0,-1.54027340189148,mp-779838,1,0.0
CeV2IO9,0.0,-2.28695300326923,mp-1201268,1,0.0
LiMg14CoO16,1.877199999999999,-2.8408074379166672,mp-1035145,1,2.0
BaNaYWO6,2.8552,-2.913068630137931,mp-1516963,1,4.0
VH5Se2NO7,2.127,-1.295972250058593,mp-698100,1,3.0
NiP6H4(N2O9)2,0.0484,-1.07000083569264,mp-1211379,1,0.0
BaLaMnSnO6,0.0,-2.745798053793103,mp-1227906,1,0.0
Zn(CoO2)4,0.0,-1.150041984615384,mp-1041352,1,0.0
MgCo2(AgO2)2,0.0,-1.085193936481481,mp-2217467,1,0.0
Li4Cr2Cu3Sb3O16,0.0,-1.81393086547619,mp-774683,1,0.0
Li10Mn5Fe3O16,0.748899999999999,-1.98777485214672,mp-759959,1,1.0
NaNdV4O12,0.1284,-2.439773279382184,mp-1520875,1,0.0
SrNd(NiO3)4,0.0,-1.076741342638889,mp-1519262,1,0.0
Zn3Ni7O10,1.7526000000000002,-1.322677733999999,mp-754030,1,2.0
FeH9(SO6)2,2.5427,-1.521576467552083,mp-1225460,1,3.0
Li4Mn5(Fe2O9)2,0.5236000000000001,-1.8469059284835,mp-1177555,1,0.0
YbNiO3,0.0,-2.267912244249999,mp-1187595,1,0.0
Mg2V3O8,1.8265,-2.671733286538461,mp-1661936,1,2.0
CaWF4,1.4295,-2.908056592499999,mp-1395287,1,2.0
LiCr(PO4)2,1.2457,-2.3680530508432542,mp-697692,1,1.0
BaGd2CoO5,0.0,-3.086305426111112,mp-505313,1,0.0
Li14Mn2O9,2.5922,-2.00955945110115,mp-770530,1,3.0
KFe2P2H5O11,2.5089,-1.992350725608843,mp-735566,1,3.0
Li13Mn21O48,0.0,-2.013090367315672,mp-530398,1,0.0
ErCrGeO5,2.8836999999999993,-2.838350435937499,mp-1213301,1,4.0
LaMnSbO,0.0,-1.879559361982758,mp-18745,1,0.0
NaMgMn2O4,1.088499999999999,-2.2256359340301732,mp-2217217,1,1.0
Fe2(AsO4)3,0.0,-1.360287838529412,mp-543107,1,0.0
Ca5Y7Al16Cr2(SiO24)2,0.081399999999999,-3.442913215125,mp-534807,1,0.0
V2PH8(NO4)2,2.3106,-1.598850185459183,mp-1216864,1,3.0
KNiPH2O5,3.3402,-2.009573537439285,mp-644129,1,5.0
MgNiBiP2O9,0.0,-2.2647244844132652,mp-1043481,1,0.0
MgV5O12,1.1131,-2.4601829597222222,mp-2228915,1,1.0
Li4Fe(PO3)6,4.6312,-2.578374428661741,mp-758649,1,6.0
LiV4(PO4)3,2.119599999999999,-2.543793030363096,mp-758417,1,3.0
Li4Mn2Fe(BO3)4,0.8621999999999991,-2.421163374385307,mp-766490,1,1.0
Li2FeTeO6,0.0,-1.706247392333333,mp-1177983,1,0.0
Cs2NaCrF6,4.2707,-3.096754161568966,mp-557047,1,6.0
Mn5Cr4O12,0.1472,-2.226036456888339,mp-1222112,1,0.0
Na7(WO3)12,0.0,-2.167653883448276,mp-759096,1,0.0
V2Zn2O7,2.5529,-2.170509448636363,mp-17458,1,3.0
Pr2FeSbO7,1.7804000000000002,-2.78547632257575,mp-1219865,1,2.0
CaMoO2,0.0,-2.09146664625,mp-1214054,1,0.0
SrCaDyMnO6,0.0,-2.779711638959772,mp-1518514,1,0.0
CaCo2(SiO3)4,0.0,-2.66752269,mp-1248436,1,0.0
LiMo2P3O11,3.4971,-2.473444413368347,mp-25827,1,5.0
Li2Ni3SnO8,0.540299999999999,-1.469569507797619,mp-760774,1,0.0
Ca6Pr6Mn11CrO36,0.0,-2.752354378787357,mp-706248,1,0.0
K2RbMn2F7,2.6186,-3.000733195238506,mp-558227,1,3.0
K4MoC4(N2O)2,3.2112,-0.709843751933333,mp-1212303,1,4.0
Rb2U2Mo3O16,2.3521,-2.62875034271739,mp-687091,1,3.0
MgV5CrO12,1.0249,-2.445012234999999,mp-2230483,1,1.0
CoH24C6Br2(N2O3)2,2.5201,-0.6361339676744181,mp-1195446,1,3.0
CoH9C4NO6,2.8245999999999993,-0.8921336607738101,mp-728934,1,4.0
Li3Fe2SnO6,0.031,-1.951372814583332,mp-773162,1,0.0
Cr2Fe3Cu(PO4)6,0.5381,-2.290529923551586,mp-776010,1,0.0
Ba2CaAl2(Fe4O7)2,1.2034,-1.984268626666666,mp-1234250,1,1.0
Li4Mn3Fe5O16,0.0,-1.849154527040231,mp-772071,1,0.0
Li4VO4F,4.0584,-2.605997201333333,mp-752582,1,6.0
GdMoClO4,2.4595,-2.669957121428571,mp-559032,1,3.0
HfVF6,3.2213,-3.7037399425,mp-557938,1,4.0
Li3V2BP4H2O17,2.237,-2.592495497077176,mp-1200046,1,3.0
VH2O3,1.712799999999999,-1.859304154583334,mp-27545,1,2.0
Li2Si6Ni2O15,3.854999999999999,-2.772709545966667,mp-850290,1,5.0
HoMg(FeO3)2,0.0,-2.409826185,mp-1041092,1,0.0
Ca5Nb4(CoO9)2,1.5737,-2.881040867068965,mp-1324889,1,2.0
CrCoO4,0.506,-1.565389313333333,mp-18788,1,0.0
Sm2WO6,3.6037,-3.26699742611111,mp-771966,1,5.0
Mn2Mo2NO10,0.0,-1.247825005390805,mp-1104385,1,0.0
BaAl2Si3(W2O5)2,0.0,-1.419227915,mp-1214647,1,0.0
LiV2O5,1.7026,-2.454240711041668,mp-777667,1,2.0
MgMn2(B4O7)2,1.093,-2.488580344967815,mp-1234300,1,1.0
Sr2Mn2Cu(AsO)2,0.0,-1.448966391206897,mp-1218747,1,0.0
MgMn3Cd2O8,0.0,-1.889706682770936,mp-2228528,1,0.0
LuCu(WO4)2,1.096499999999999,-2.394680906388888,mp-17630,1,1.0
Eu2NbWO6,0.0,-2.8138781780000013,mp-1519174,1,0.0
Li4V5(FeO6)2,1.3975,-2.265391205579711,mp-850103,1,2.0
MgFe2(SO5)2,1.6617000000000002,-1.925713499999999,mp-2228654,1,2.0
MgTiV4CoO12,1.5535,-2.488106462543859,mp-2231031,1,2.0
NaV10O15,0.0,-2.421068345822282,mp-849263,1,0.0
Li4V2Cr3Fe3O16,1.182999999999999,-2.159647649761905,mp-770523,1,1.0
Li2MnV5O12,0.0,-2.357592380729886,mp-776140,1,0.0
NaPrYFeO6,0.3532,-2.438942968304597,mp-1522734,1,0.0
Li3Fe4(P2O7)4,0.0,-2.388714686328902,mp-849425,1,0.0
Na2LiMn(PO3)5,3.4085,-2.593429649676553,mp-760056,1,5.0
LiCo7O7F,0.0,-1.447255622083333,mp-759978,1,0.0
P3(WO6)2,2.0967,-2.507801902584033,mp-780572,1,3.0
Li3(FeO2)4,0.7109000000000001,-1.7817139086666651,mp-756480,1,1.0
Mg3Co2(GeO4)3,2.4734,-2.160831350875001,mp-1329459,1,3.0
EuHfCrBiO6,0.0,-2.759242703500001,mp-1519362,1,0.0
V(SiO3)2,1.5244,-2.937264426388889,mp-1265975,1,2.0
GaFe2BO5,2.0716,-2.125574479074073,mp-1097025,1,3.0
Li4Mn2Fe3Sb3O16,0.0,-1.9534401171141211,mp-774898,1,0.0
K2Mn2(MoO4)3,3.0261,-2.131867448308531,mp-651434,1,4.0
Sr2VP2O9,1.5748000000000002,-3.073160467806122,mp-1218530,1,2.0
Li4Fe3Cu2Sn3O16,0.0,-1.713951242083332,mp-1177426,1,0.0
CoP2PbO7,3.161299999999999,-2.350182173798701,mp-505235,1,4.0
YCr3Se2ClO8,2.0598,-2.048648786645833,mp-1048488,1,3.0
Sr2Co(BrO)2,0.3275,-2.344424367857143,mp-23114,1,0.0
Ta12MoO33,2.2586,-3.235356202891303,mp-1217800,1,3.0
Li4(FeO2)9,0.0,-1.57224529172043,mp-771396,1,0.0
Mn3AsO8,0.0,-1.676688635316092,mp-1203335,1,0.0
Li6TiNi7O16,0.375999999999999,-1.602061093111111,mp-758326,1,0.0
Fe7Si3(H4O9)2,1.5576,-1.9152068808333331,mp-1225755,1,2.0
MgMn5NiO12,0.296,-1.788032333402904,mp-2230395,1,0.0
NaCaMgCr(SiO3)4,3.5919,-3.119906189568965,mp-1221077,1,5.0
YMg30VO32,0.0,-2.9741449785937513,mp-1037737,1,0.0
Y2Cr3(SiO4)3,2.2234,-2.902366650875,mp-1157313,1,3.0
MnZnO2,0.038999999999999,-1.7460686007327582,mp-1046085,1,0.0
Sr2Al3FeO8,3.403699999999999,-3.117777364285714,mp-1218880,1,5.0
Li4Mn2V5O12,1.248999999999999,-2.352897837356323,mp-759274,1,1.0
V5CoO23,0.0,-0.759645533275862,mp-1179434,1,0.0
V3(PO4)2,2.365,-2.554086533021978,mp-850528,1,3.0
Li4Ni7(OF7)2,2.7776,-2.343976484938272,mp-859156,1,4.0
La2FeNiO6,0.0,-2.662331269,mp-1223335,1,0.0
Li(FeO2)8,0.0,-1.345711989733333,mp-1236025,1,0.0
EuCrO3,0.0,-2.795692883500019,mp-1189762,1,0.0
Li3Fe4(PO4)6,0.0,-2.305362579131274,mp-766373,1,0.0
Li4Mn5Cr(PO4)6,0.3167,-2.531283272521141,mp-759645,1,0.0
BaCo2Si2O7,0.044799999999999,-2.6788259741666662,mp-19203,1,0.0
Na4MgV4O10,0.9535,-2.246693073185117,mp-2230535,1,1.0
K2Cr2Cd(H2O5)2,2.7899000000000003,-1.691923409973684,mp-24816,1,4.0
VFe2(PO4)3,0.0,-2.392035835773808,mp-780430,1,0.0
RbMoAsO6,2.4553000000000003,-1.9481381575,mp-16991,1,3.0
Li2CoH8(CO5)2,2.08,-1.590939380724637,mp-770598,1,3.0
Li7V8(PO4)12,0.8895999999999991,-2.687042323587302,mp-729675,1,1.0
La4Sm4Co7AgO20,0.0,-2.5757048983101862,mp-1076724,1,0.0
Li3Ti2Mn3O10,0.9607,-2.579832453081098,mp-753035,1,1.0
V2Cu3H24(OF)12,0.008199999999999,-1.661529099245282,mp-504939,1,0.0
CoP4F12,1.283999999999999,-2.508763833445378,mp-1203442,1,1.0
Ba4MgMn4(P2O7)4,1.3302,-2.809695490308155,mp-1234981,1,1.0
Ba2Y2Mg(Fe2O5)2,0.9007000000000001,-2.457243235526316,mp-1233074,1,1.0
K3Mo2O4F5,2.5171,-2.579541284946429,mp-1196835,1,3.0
Ti3FeCo2(PO4)6,0.0,-2.682059265773808,mp-758306,1,0.0
EuNiSnWO6,0.213999999999999,-2.062424404999999,mp-1516192,1,0.0
Sb2Te3MoC4(OF3)4,2.1121,-1.8131770913461531,mp-558675,1,3.0
NaFePH2(CO3)2,3.6274,-1.68882703911709,mp-1200387,1,5.0
Li6V5SbO12,0.8348999999999991,-2.325557530416667,mp-765677,1,1.0
SmDy(NiO3)4,0.0,-1.301881620925925,mp-1521868,1,0.0
SrMn2O6,0.472199999999999,-1.792495910651341,mp-1208638,1,0.0
BaFe15O23,0.0,-1.54843708551282,mp-705834,1,0.0
Li4Fe3Sb(PO4)4,0.346499999999999,-2.364140086496597,mp-1177409,1,0.0
ZnWF4,0.036999999999999,-1.900350416666666,mp-1828501,1,0.0
RbVH4(OF2)2,2.6044,-2.259430649375001,mp-728493,1,3.0
Ga2Mo(SeO5)2,3.6215,-1.755290112479167,mp-554901,1,5.0
KNaMnO2,0.274499999999999,-1.678409343312068,mp-559242,1,0.0
LiFeF5,0.5301,-2.455247463333334,mp-755653,1,0.0
Li2Si5Ni2O13,3.6093,-2.74334903939394,mp-859789,1,5.0
MgMn2(BO3)2,2.4787999999999992,-2.580768692654128,mp-2240029,1,3.0
VH24C8S2N2O9,3.1064,-0.6949547173913051,mp-721235,1,4.0
Mg14CoCO16,2.498999999999999,-2.60056295078125,mp-1035037,1,3.0
Li8Fe7Cu(PO4)12,0.0,-2.358172422926065,mp-1177097,1,0.0
Mg(MoO3)2,0.8757,-2.141439725000001,mp-1045691,1,1.0
Nd2W2O9,3.5126,-2.925593314807692,mp-560076,1,5.0
Li3TiMn3O8,1.1755,-2.387315356252874,mp-759205,1,1.0
Sr2ReNiO6,0.0,-2.333112200249999,mp-22353,1,0.0
SrCa3TiMn3O10,0.0,-2.824826143104246,mp-1076776,1,0.0
Sr4(NiO3)3,1.3317,-2.0802538103125,mp-759747,1,1.0
BaHo2CoO5,1.270699999999999,-3.087878961111109,mp-505037,1,1.0
V3FeSn2(PO4)6,0.0,-2.495357117440476,mp-850580,1,0.0
Li3Mn2CrO6,0.202199999999999,-2.214605592571839,mp-774897,1,0.0
VFeP2(HO5)2,1.123,-2.157423682611607,mp-753646,1,1.0
TiV3Cr2(PO4)6,0.0,-2.65220854725529,mp-882198,1,0.0
Fe4Si(CO)16,2.6229,-0.5947830526351351,mp-653596,1,3.0
Na2TbMoPO8,4.2208,-2.7687256189667813,mp-559111,1,6.0
Li24Mn5Cr7O36,1.0553,-2.210161436106322,mp-768842,1,1.0
MnFe2O3,0.0,-1.6141878063218391,mp-761716,1,0.0
Sr2FeIrO6,0.0,-2.221845612999995,mp-1208946,1,0.0
V3Se2ClO8,1.665,-1.74051463390625,mp-1048546,1,2.0
NaCr(WO4)2,2.2669,-2.245235919698275,mp-18851,1,3.0
Rb2U2Cr2O15F2,1.4068,-2.110998317826086,mp-1196718,1,2.0
Na10Co4O9,1.4835999999999991,-1.462982004295352,mp-562435,1,2.0
Ba2CrBiO6,0.039299999999999,-2.340303777,mp-1519532,1,0.0
VH8N2OF4,2.8379000000000003,-1.499542723593749,mp-1195824,1,4.0
Mg30CrFeO32,1.615299999999999,-2.9452742398437493,mp-1037531,1,2.0
ZnMoO6,1.7049,-1.13666248125,mp-728452,1,2.0
SrLiEu(CoO3)2,0.0,-2.163414261666667,mp-1236266,1,0.0
BaCaNbWO6,0.7630999999999991,-2.81802165,mp-1519910,1,1.0
SrCa3TiMn3O12,0.0,-2.708963457106322,mp-1076074,1,0.0
FeO2F,0.0,-1.256697267499999,mp-758879,1,0.0
Li5Mn3Cr2O10,0.8975000000000001,-2.223453044522989,mp-752479,1,1.0
Mn2NbC8(NO)8,0.0,0.414401050338441,mp-1196709,1,0.0
Mn3Cr2Sb(PO4)6,0.0,-2.404018625601395,mp-776056,1,0.0
Li3MnNb4O12,0.0,-2.7976185608965523,mp-780417,1,0.0
CsK2Mn3P4ClO14,3.61,-2.596746646860787,mp-1195628,1,5.0
K2NaFeO3,0.0,-1.6825733504827591,mp-560924,1,0.0
K2FePH5(CO5)2,2.5254,-1.721930477994897,mp-604071,1,3.0
Li3V5(PO4)6,1.9493,-2.659988452312029,mp-1177556,1,2.0
LiMn2Cr2O8,0.6418,-2.008132852053492,mp-780849,1,0.0
Li3NbFe3O8,0.8643000000000001,-2.125522257999999,mp-763729,1,1.0
ThTeWO7,3.258199999999999,-2.6144862811666663,mp-1195400,1,4.0
K7Mo12H29Pt2O59,0.070299999999999,-1.633532436073394,mp-1226142,1,0.0
Li6Mn(OF2)2,2.7828,-2.6273204109946953,mp-753986,1,4.0
Na3V5H26O27,2.4488,-1.646986626010457,mp-1201033,1,3.0
NaMoAsO8,0.0,-0.926020002170846,mp-1180039,1,0.0
HoCrO3,2.4964,-3.2267283235,mp-756834,1,3.0
CdWO4,3.262699999999999,-1.985844491666664,mp-19387,1,4.0
Ca2MgV10(H8O11)4,2.4519,-1.84081910983146,mp-1202316,1,3.0
Co5(Bi2O5)4,0.0395,-1.326164798181818,mp-674502,1,0.0
BaMnAlCuO5,0.0,-2.081436422547893,mp-1042474,1,0.0
NaEuYWO6,0.299599999999999,-2.863498008637931,mp-1518401,1,0.0
Na3V5H18O23,2.447899999999999,-1.738480728808938,mp-1196902,1,3.0
Sr3Ca5Mn7FeO24,0.0,-2.400237025887931,mp-1120829,1,0.0
BaCoSiO4,3.1021,-2.787397283333333,mp-562027,1,4.0
Li7Fe2P7O24,2.5575,-2.550459965520832,mp-757222,1,3.0
Ba3Fe2Cl2O5,2.4471,-2.531939594999999,mp-560330,1,3.0
Co2H21S3(NO2)6,1.0944,-0.923117341732954,mp-744397,1,1.0
AlCo(OF)6,0.0,-0.9338868860714292,mp-1214890,1,0.0
CaCoBi2O7,0.0,-1.643177003636363,mp-1042662,1,0.0
CoH21C2N6Cl2O5,0.672,-0.820959465506757,mp-603406,1,1.0
MnV3Cr2(PO4)6,0.0,-2.561232900438561,mp-775773,1,0.0
Ba2V2ZnO8,3.4759,-2.745950435961538,mp-556688,1,5.0
Co4OF11,0.6344000000000001,-1.951041234375,mp-763328,1,0.0
BaNb2Fe2O9,1.083899999999999,-2.5765479075,mp-1022731,1,1.0
K2W2O15,0.0,-0.8367553241842101,mp-1181389,1,0.0
SrLa3MnO8,0.0,-3.107615424456234,mp-753578,1,0.0
Mn2CrNi3(PO4)6,0.0,-2.178145219269978,mp-760233,1,0.0
MnCu(Te2O5)2,0.6787999999999991,-1.508879663099856,mp-505342,1,1.0
La3MoO7,0.0236,-3.3756849604545462,mp-29150,1,0.0
ZnCo(SiO3)2,2.5473,-2.5535754722500013,mp-1264233,1,3.0
Li2V5NiO12,0.8277999999999991,-2.301106314833333,mp-776323,1,1.0
Ba2YNi3O7,0.0,-2.179975938076922,mp-1048426,1,0.0
TiFe(BiO3)2,0.0,-2.178228017083333,mp-550745,1,0.0
ZrNiF6,0.0,-3.40175743625,mp-1206530,1,0.0
Co(WO4)2,0.0,-1.693821799090908,mp-25290,1,0.0
SrLaFeO4,0.516199999999999,-2.902433839285714,mp-1218154,1,0.0
Mg9V10O24,0.920099999999999,-2.693769381744186,mp-33705,1,1.0
V3P6WO24,1.1734,-2.579009747584033,mp-775437,1,1.0
Fe21O23,1.3538,-1.480480153068182,mp-706875,1,2.0
CrBiO4,0.5143999999999991,-1.758149844583335,mp-1274148,1,0.0
Fe3Pb4ClO8,1.120499999999999,-1.537336499374999,mp-630866,1,1.0
Sr2TaMnO6,0.001599999999999,-3.103931391526438,mp-1284552,1,0.0
Mn3O2F5,1.0419,-2.475973737379311,mp-759619,1,1.0
Ti3CrSb2(PO4)6,0.0,-2.667290611329365,mp-778268,1,0.0
NaCaInWO6,2.3994,-2.3313814788045972,mp-1518127,1,3.0
BaSr7MnFe7O20,0.0,-2.367917162859195,mp-1076473,1,0.0
Sr4Fe3O10,0.216299999999999,-2.273482406764706,mp-1173217,1,0.0
Cr(GeO3)2,0.6980000000000001,-1.972594523333332,mp-2237154,1,1.0
K3VCO8,2.4179,-1.641850875134615,mp-555154,1,3.0
VH12N3O5F2,2.7117999999999993,-0.97029756,mp-728290,1,4.0
MnPNO5,1.1345,-1.834284859071736,mp-1211113,1,1.0
Y2MgMn2O6,0.029599999999999,-2.866402815532915,mp-2217804,1,0.0
LaHo3Mn8O20,1.2373,-2.645414703232758,mp-1223035,1,1.0
Sr2HfCoO6,0.0,-2.798528335,mp-1517280,1,0.0
CrAgO4,0.0,-1.195661571944445,mp-754959,1,0.0
Na4AlCr3(P2O7)4,3.143599999999999,-2.711444037105911,mp-1221260,1,4.0
Li3Fe3SiO8,1.571899999999999,-2.147352104666666,mp-752904,1,2.0
K4BaV6O18,3.0658,-2.501586180482759,mp-1203528,1,4.0
TlV2I3O13,1.848799999999999,-1.389782752017545,mp-1198439,1,2.0
Na6Al4Fe(Si4O13)2,3.202499999999999,-3.048477230850574,mp-42298,1,4.0
CaNi2(PO5)2,0.0,-1.847298229285714,mp-1378551,1,0.0
SrCrO3,0.7210000000000001,-2.586664808,mp-761337,1,1.0
LaMgTaCrO6,2.2249,-2.972347464733332,mp-1049266,1,3.0
Li4Ti3Cr3(TeO8)2,0.3299,-2.513536416666666,mp-761028,1,0.0
CrReO4,0.0,-2.147153852916666,mp-31628,1,0.0
BaCaEuFeO6,0.0,-2.4060208605,mp-1519654,1,0.0
Mg3VO4,1.535499999999999,-2.7745264893750012,mp-1024068,1,2.0
BaNb2Fe2(PO4)6,2.445799999999999,-2.7592274335102043,mp-705895,1,3.0
MnWO4,2.356299999999999,-2.216569472988496,mp-19407,1,3.0
K2MoO4,4.3175,-2.204234955642857,mp-18914,1,6.0
Li9Cr12Fe7O48,0.1591,-1.806411871710526,mp-1176819,1,0.0
Na2MoO2,0.2431,-0.964532626551724,mp-1211013,1,0.0
MgTi(FeO2)4,1.1572,-2.179556314166666,mp-2228463,1,1.0
LiMn5P3O13,2.3593,-2.463054147132595,mp-759188,1,3.0
LiFe5O5F,1.0762,-1.694797344444444,mp-766142,1,1.0
Co5O7,0.0,-0.861694277499999,mp-1046082,1,0.0
Li4Nb2V3Sn3O16,0.0,-2.396430710654762,mp-774909,1,0.0
Ho2MgV4O12,0.7401000000000001,-2.90875010131579,mp-2230356,1,1.0
V2Ag(PO5)2,1.1175,-2.337035380396824,mp-1201392,1,1.0
Li7Eu3(MoO4)8,0.0705,-2.075953541366667,mp-1223167,1,0.0
LaCrMoO6,0.336599999999999,-2.021697605000001,mp-1040803,1,0.0
Zn3Fe4(WO4)6,1.5262,-1.884164367837837,mp-1043064,1,2.0
Li8CrO6,2.1346,-2.135592388777777,mp-780493,1,3.0
FeH10S2NO11,2.4313,-1.4135860645,mp-1205475,1,3.0
Li4Ni2(PO4)3,0.0,-2.373135896298186,mp-772620,1,0.0
KCr2FeO10,0.0,-1.234098764089286,mp-1104716,1,0.0
Li2VSiO4,2.0199,-2.617151495833333,mp-753346,1,3.0
Mn3Co3(CuO8)2,0.069099999999999,-1.173627785574712,mp-770859,1,0.0
CaMnBe2Si5O17,0.022599999999999,-2.4715356835742712,mp-1182751,1,0.0
Na8Li9(FeO4)4,0.0534,-1.772946923271201,mp-768443,1,0.0
Li3Cr(NiO2)4,0.0,-1.655373253749999,mp-756352,1,0.0
Na3(NiO2)2,0.8386,-1.280228382126435,mp-764056,1,1.0
CaTl4(NiO3)4,0.0,-1.092190334444445,mp-1234886,1,0.0
Mo4H14N2O17,2.4321,-1.365175969324324,mp-1197337,1,3.0
Na3MnO3,1.3748999999999991,-1.75822225208128,mp-755984,1,2.0
CaFeP2O7,3.3507,-2.798918775162337,mp-1343599,1,5.0
Na2Ni(SO6)2,0.015399999999999,-1.136196515456388,mp-1210784,1,0.0
Mn3Cr(PO4)4,0.3441,-2.4649156505151892,mp-774508,1,0.0
Fe2PCO7,1.8151,-1.905049961103896,mp-1213220,1,2.0
MnH6(CO3)2,3.5612,-1.358429877028736,mp-24476,1,5.0
MgFe10O9F11,0.9923,-2.086350556935484,mp-1233959,1,1.0
Li4Mn3Cr3(TeO8)2,0.0,-2.078402341087848,mp-774791,1,0.0
CaV2P2O9,1.5018,-2.901277977270408,mp-21541,1,2.0
Mn2Al4Si5O18,4.030900000000001,-3.178988181926279,mp-19477,1,6.0
Li2V4OF12,1.7229,-3.001945568508772,mp-757416,1,2.0
NaCaFe3(PO4)4,2.2436,-2.547532553898029,mp-850003,1,3.0
Rb2MoO8,1.9098,-1.035632129545455,mp-1209701,1,2.0
MnCo2TeO6,1.4605,-1.568870556959769,mp-1221785,1,2.0
Mg30MnCuO32,0.1409,-2.929974470592672,mp-1037989,1,0.0
Fe4P3H4NO12,3.3855,-1.948307801413689,mp-1197292,1,5.0
K5NaV2(MoO5)6,0.7734000000000001,-1.7722706969915771,mp-726386,1,1.0
Li2FeSiO5,0.0,-2.310007001296296,mp-1304562,1,0.0
Mn2CrO4,0.638,-2.189480853694581,mp-34139,1,0.0
NaMo3P3O13,1.5094999999999992,-2.417425916265394,mp-1012678,1,2.0
Li6Fe3Co5O16,0.0,-1.650502140666666,mp-759074,1,0.0
Tb2CoTe2(SO7)2,3.0646,-2.339246777222221,mp-1190385,1,4.0
Li7Cr3(SiO6)2,3.344,-2.575592460138888,mp-752502,1,5.0
Li4Mn3(FeO4)3,0.0,-1.924702048960292,mp-1177469,1,0.0
Li4Ti5Co3O16,0.0,-2.68264544607143,mp-1177251,1,0.0
Cr3Sb3(TeO8)2,1.5844,-1.8300240572222224,mp-756097,1,2.0
V2As3H17C4N8O17,2.2982,-1.139840741446078,mp-746324,1,3.0
CaVSiO5,1.1317,-3.1051841578125,mp-1213869,1,1.0
K4Zn(WO4)3,4.31,-2.2044483937,mp-559362,1,6.0
Li4VCr3O8,1.907499999999999,-2.425752464583333,mp-776618,1,2.0
Cs2Hf(WO4)3,3.0183,-2.597877944961685,mp-1539190,1,4.0
Ni3(AsO4)4,0.0,-1.044158349782608,mp-1352913,1,0.0
MgMn3CrO8,0.6286,-2.125428861445624,mp-2227372,1,0.0
Tm6MgWO12,0.0,-3.6315465082500022,mp-2230452,1,0.0
Sr2AlV11O22,0.6374000000000001,-2.684599707222224,mp-1218881,1,0.0
CoP3H16N4O11,3.3103,-1.361718850112245,mp-1197638,1,4.0
LiCoH8(CO5)2,0.7181000000000001,-1.450901137878787,mp-759255,1,1.0
LaMoI4O15,0.036599999999999,-1.380110144523809,mp-1199585,1,0.0
Na2NiP2(HO3)2,4.3873,-2.005641500541871,mp-1200779,1,6.0
NbFe(PO4)2,0.0903,-2.549829359107143,mp-772031,1,0.0
BaNiO3,1.469199999999999,-1.820022473000001,mp-19138,1,2.0
NiSnO3,1.7717,-1.725544296999999,mp-754654,1,2.0
Na2V2NiH4(OF)6,2.7460999999999993,-2.22592613275041,mp-1198199,1,4.0
VPPbO7,0.0,-1.925679788214284,mp-1202139,1,0.0
CaVSi4(H2O5)3,0.696099999999999,-2.353710264166666,mp-1201439,1,1.0
LiV4CuO12,0.3866,-2.08436254074074,mp-756257,1,0.0
LiSm(WO4)2,3.6314,-2.646701078194444,mp-1211004,1,5.0
Ca2Ta2VO8,1.766599999999999,-3.200371439974358,mp-1046185,1,2.0
Mg3Cr3(AsO4)4,1.4886,-2.132607004423078,mp-1047507,1,2.0
Sr3CeMn4O12,0.0,-2.635957596086207,mp-1218514,1,0.0
NiPdO3,0.0,-0.142819504999999,mp-1186345,1,0.0
NdCrO4,0.2958,-2.738855106249997,mp-19126,1,0.0
MnCo(BiO3)2,0.0,-1.631063862293103,mp-545769,1,0.0
CsTm(MoO4)2,3.584699999999999,-2.550410857471266,mp-1213346,1,5.0
FeRe(PbO3)2,0.0,-1.673228283249999,mp-1280283,1,0.0
RbCrCuF6,0.0,-2.667428340277777,mp-1219603,1,0.0
BaSr7Ti6Mn2O24,0.0,-3.272358260896551,mp-1075988,1,0.0
LiFeB2O5,2.8042,-2.457870005740741,mp-774231,1,4.0
Li4Co3SbO8,0.0,-1.730222008333333,mp-1177495,1,0.0
NaFe2O3,1.424499999999999,-1.606165311896551,mp-675397,1,2.0
LaTaFeO6,0.0,-2.786242780259259,mp-1044002,1,0.0
Fe(ReO5)3,0.0,-1.381493488289473,mp-1199365,1,0.0
Mg2CuWO6,0.2642,-2.2545116655,mp-1333042,1,0.0