formula,bg,formation_energy,mp-id,fidelity,bg_category
Sr8Ga16S31,1.845,-1.428554211681817,mp-532267,0,2.0
Cu2Sn1Zn1Se4,0.0846949999999999,,,0,0.0
FeNi2,0.0,0.103597121666667,mp-1072076,0,0.0
Ca5(IrN3)2,0.0,-0.597275413894226,mp-1245702,0,0.0
BiClO,2.5681,-1.695745048333333,mp-22939,0,4.0
CsNa2Bi,0.0,0.514019902916665,mp-1096426,0,0.0
Ba4N8O16,2.371957,,,0,3.0
CsCeMg6O8,0.120099999999999,-2.405962385603447,mp-1031196,0,0.0
Cs8Tl8O,0.206299999999999,-0.306712160524008,mp-561017,0,0.0
Ge4,0.0,,,0,0.0
Ge8S24Ba8,2.277978,,,0,3.0
Be2GeO4,4.2042,-2.695319498333333,mp-768285,0,6.0
GdHoIr2,0.0,-0.780845451249998,mp-1184535,0,0.0
Ga(IO3)3,3.318699999999999,-1.0737182925,mp-561104,0,5.0
Sr4Zn11,0.0,0.03207019333333,mp-1211218,0,0.0
Cs2Sb4Se8,0.979344999999999,,,0,1.0
Mg15Ti,0.0,0.075599065104166,mp-1023608,0,0.0
Na3CeF7,2.6973000000000003,-3.495887479012538,mp-38102,0,4.0
Na7La2Nb2Si5PO24,2.0097,-2.9317497244137742,mp-2714602,0,3.0
Li5Ti3O8,0.0,-2.958857431041666,mp-756645,0,0.0
Na2In2SiS6,2.2375,-1.016049212443182,mp-1190138,0,3.0
Sr8Cu8O17,0.0,-2.017589839242424,mp-766079,0,0.0
Ba(AgTe)2,0.673299999999999,-0.952725886833328,mp-18501,0,1.0
Dy4(CoB2)3,0.0,-0.343853084743587,mp-1104444,0,0.0
Tl3(SbO3)8,0.0,-1.545544303142858,mp-752438,0,0.0
PrGa4Os,0.0,-0.5396832891666741,mp-1209604,0,0.0
U2Si3Ni,0.0,-0.329608088333331,mp-1216879,0,0.0
Na5Hf2Zn2P5SO24,4.0267,-2.72416827087891,mp-2715059,0,6.0
Mg2Y4Se8,1.29997,,,0,2.0
Na3La2Mg2PS5O24,4.3003,-2.546043497737319,mp-2712734,0,6.0
Mg14CrFe,0.0,0.174341008125,mp-1027789,0,0.0
BaC20,0.1463,0.235427874285713,mp-28979,0,0.0
Ta2OsRh,0.0,3.96294677122917,mp-1095955,0,0.0
K3InCl6,3.5298,-2.013773516341666,mp-569132,0,5.0
CdBi3O7,0.0,-1.239101861363636,mp-34421,0,0.0
Tm(SiNi)2,0.0,-0.82272551,mp-4469,0,0.0
Sc3CoC4,0.0,-0.5217500606249991,mp-5075,0,0.0
Ca2TiNb2O8,0.0,-3.123602733333333,mp-1042259,0,0.0
SnH8C2Br3N,2.9304,-0.5340672995000001,mp-1203918,0,4.0
Fe4Mo2N,0.0,-0.110735267857143,mp-1225260,0,0.0
ZrNiGe,0.0,-0.7864166050000001,mp-1102687,0,0.0
Nb4CoSi,0.0,-0.336685225833334,mp-10003,0,0.0
PrNiC2,0.0,-0.229862100416665,mp-9312,0,0.0
FeSb,0.0,-0.076651172499999,mp-2619,0,0.0
V12O26Li2,0.208997,,,0,0.0
Tl8Sn4O12,1.190389,,,0,1.0
K5Tl3O,0.1349,-0.482518332361113,mp-555531,0,0.0
Fe16Ti8O40,1.725355,,,0,2.0
Na2BeF4,6.6745,-3.2637287621798032,mp-3318,0,7.0
USn3,0.0,-0.124970003749996,mp-20336,0,0.0
La13Al12Si18(N2O)18,0.0,-2.003024864175258,mp-1212074,0,0.0
Na2Y3Te4(ClO4)3,3.6276,-2.446068535184388,mp-1197762,0,5.0
Dy2MgAl,0.0,-0.25568068708333,mp-865006,0,0.0
Re6Te7Se8,0.9506,-0.643734732996032,mp-667286,0,1.0
Ga2Ge4Pb3O14,2.1691,-2.002855548913042,mp-636461,0,3.0
Nd5(BO3)4,0.257399999999999,-3.221195134246031,mp-1211058,0,0.0
Cl16,2.448508,,,0,3.0
VCoSn,0.0,0.465051341666665,mp-1018119,0,0.0
Pr2(Al3Ir)3,0.0,-0.921127299166666,mp-1209795,0,0.0
Na4Hf2In2Si3(SO8)3,2.591,-2.598284137316244,mp-2713685,0,4.0
Zn2BIr2,0.0,-0.334820853500002,mp-28787,0,0.0
La2B8O15,4.427700000000001,-3.105855060533333,mp-1019892,0,7.0
ZnSiTc2,0.394699999999999,2.770316608184522,mp-1097179,0,0.0
GeAs2,0.719599999999999,-0.062423882499999,mp-17524,0,1.0
SmTlS2,1.6781,-1.7143605708333272,mp-999138,0,2.0
In2CuAgSe4,0.0032,-0.540193613281253,mp-1223913,0,0.0
CaB3HO6,5.8113,-2.8249733817045453,mp-1194867,0,7.0
K2RbMoBr6,1.6014,-1.514152715199999,mp-1110757,0,2.0
Eu3TaO6,0.0,-3.235992456233334,mp-21406,0,0.0
Li2H2C6N9Cl,2.9466,-0.458516439208332,mp-2647033,0,4.0
Cs3Cr2Cl9,0.2688,-1.843279265535713,mp-1193179,0,0.0
U3Nb,0.0,0.341514542500007,mp-972551,0,0.0
Na2TaIn3Si2(SO6)4,1.955999999999999,-2.282692323335888,mp-2712554,0,3.0
Rb2NaBiBr6,3.136,-1.64683781763793,mp-1110743,0,5.0
BaSrBiSbO6,1.781899999999999,-2.453847309500001,mp-1518348,0,2.0
LiAl4Cd2O8,0.0,-2.531562624222222,mp-1235830,0,0.0
Br8Cl12P4N4B4,2.944585,,,0,4.0
Mg16Al12In,0.0,-0.008014348505746,mp-1185679,0,0.0
Re3Se4O8F,0.0607,-0.491957332617187,mp-1219891,0,0.0
LaP2H2O9,0.7193,-1.605046606913264,mp-696087,0,1.0
ZnCu2Au,0.0,-0.004584144999999,mp-1215545,0,0.0
Sr4In2Ta2O12,3.8290409999999993,,,0,6.0
Dy(BO2)3,5.636699999999999,-3.197834694666666,mp-3261,0,7.0
Na17Zr12Si11P7O72,4.1993,-3.127144227949145,mp-697308,0,6.0
Bi12F24N4,2.791641,,,0,4.0
CaScTl2,0.0,1.482191916249988,mp-1096448,0,0.0
C4D4,3.295114,,,0,5.0
Ho2ZnAg,0.0,-0.323386290416662,mp-1184634,0,0.0
Ho3(GePd)4,0.0,-0.8920292149999981,mp-3354,0,0.0
TbZrSb,0.0,-0.934793021666668,mp-4075,0,0.0
EuSbAu,0.0,-0.8633745166666671,mp-22475,0,0.0
NdGe,0.0,-0.9472384237499972,mp-663,0,0.0
Ba2YMgTlCu2O7,0.0,-2.060697682380952,mp-2241473,0,0.0
Ba2Tl7Au,0.0,-0.285093820583338,mp-31071,0,0.0
EuHg,0.0,-0.6125236712500021,mp-11375,0,0.0
BaSrCuCO4,0.0,-1.251624553124999,mp-677647,0,0.0
Hf2IrPd,0.0,-0.819708757499997,mp-981539,0,0.0
Er3Ni19B10,0.0,-0.440519506927082,mp-1201895,0,0.0
Pr2In3Ni,0.0,-0.397381673888887,mp-1220025,0,0.0
Ho4C7,0.7510000000000001,-0.286120912954541,mp-1154,0,1.0
PuInAu2,0.0,-0.565058152187496,mp-1188083,0,0.0
TmAs3,0.0,-0.588181614374999,mp-979900,0,0.0
Tb2Cl3,0.8523000000000001,-2.094997655499997,mp-1205852,0,1.0
Mg14MnSi,0.0,0.09240080762931,mp-1028099,0,0.0
BaZnPb,0.0,-0.410933811666665,mp-510311,0,0.0
K4P2Be1,1.145547,,,0,1.0
Tb3In,0.0,-0.3591234125,mp-1187299,0,0.0
Ge(SeO3)2,3.728,-1.5051566694097211,mp-1205339,0,5.0
GeTe7As4,0.412899999999999,-0.012912683472221,mp-8645,0,0.0
Ho3FeB7,0.0,-0.612727294924241,mp-1192262,0,0.0
Dy(BRh)4,0.0,-0.5775832892592571,mp-1105740,0,0.0
RbMg6Ti,0.0,0.318663158645833,mp-1021383,0,0.0
Pb1V1O3,0.92786,,,0,1.0
Rb12Li(ClO)4,0.0,-1.384390928253968,mp-1235279,0,0.0
CaGd2BeO5,2.5808,-3.549080214444444,mp-1227214,0,4.0
CeMg6Bi,0.0,-0.030145810624999,mp-1017498,0,0.0
Ca(BC)2,0.475099999999999,-0.429513749000001,mp-10289,0,0.0
SrCu2PbS4,0.008499999999999,-0.914884422083332,mp-1245497,0,0.0
LiPr2Ga,0.0,-0.324717272499999,mp-1185403,0,0.0
Rb2UC2SO11,0.5645,-2.114940896617647,mp-727594,0,0.0
YbCuAs2,0.0,-0.8933221762499991,mp-542132,0,0.0
Nd2Cd2O5,0.0,-2.14227217111111,mp-973773,0,0.0
NaB3O5,5.4351,-2.7846075488569593,mp-557406,0,7.0
Sn12Si2O16,1.79576,,,0,2.0
Ir3F,0.0,0.275622672916668,mp-1184748,0,0.0
LiDy6B3O14,4.7578,-3.600779786701386,mp-1211233,0,7.0
InSnTe2,0.0,-0.312703622500002,mp-1223695,0,0.0
Cs4Hg6Se8,1.166847,,,0,1.0
Ca3GeN,0.0,-0.8614104477499991,mp-11822,0,0.0
Te8MoW3,1.117899999999999,-0.145269558749996,mp-1028576,0,1.0
Ba2NaUO6,0.0,-3.076706050637931,mp-1214646,0,0.0
SrMg14SiO16,3.001900000000001,-2.7952190406249993,mp-1034686,0,4.0
Li2BeF4,7.7223000000000015,-3.364770863571428,mp-4622,0,7.0
Mn2Si4N7,0.0,-0.785399047846244,mp-1247373,0,0.0
NdAlPt,0.0,-1.053607782499997,mp-568130,0,0.0
Si2O3,0.9888999999999992,-2.165350534,mp-1179195,0,1.0
K2AlTlF6,4.7049,-3.1662907387833332,mp-1111379,0,7.0
ZrTiCuO5,0.0,-2.9293967397916663,mp-1197943,0,0.0
YbUTe6,0.0,-0.9060626637499992,mp-1215772,0,0.0
Pr2HfS5,1.0277,-2.182488898424477,mp-1203224,0,1.0
Ca3(TaN2)2,0.045399999999999,-1.095174112416667,mp-1246236,0,0.0
Y3Si,0.0,-0.279796941805553,mp-1187788,0,0.0
Ta2NbPt,0.0,4.025371703833333,mp-1096154,0,0.0
B5Mo2,0.0,0.05092408154762,mp-7229,0,0.0
DyCoSn,0.0,-0.477068743055552,mp-22228,0,0.0
Eu(Cu2Sn)2,0.0,0.447629389285714,mp-574507,0,0.0
OsBr3N5O,0.0,1.0264022685,mp-1180015,0,0.0
Sr4BrN2Cl,1.8982,-1.587937301875,mp-1218383,0,3.0
CrMoAs2,0.0,-0.178374201250001,mp-1226254,0,0.0
Y1Cu3Cr4O12,0.197768,,,0,0.0
LaNi2AsN,0.0,-0.8306758445000021,mp-1078408,0,0.0
YRe2SiC,0.0,-0.454426675000002,mp-1205734,0,0.0
Pr2MgSe4,1.0644,-1.922190819315475,mp-1232188,0,1.0
HgH10C3I3N,2.2744,-0.325737928333333,mp-569533,0,3.0
LuSnPt,0.0,-1.176926461111116,mp-1079727,0,0.0
HfU(TaC2)2,0.0,-0.718084627458338,mp-1224267,0,0.0
Ba2HgPd,0.0,0.7739404443749981,mp-1096200,0,0.0
As4V4Na4O20,1.5328,,,0,2.0
Nb4V3FeSe20,0.0,-0.9598818038169632,mp-1220619,0,0.0
Y(VSn)6,0.0,-0.225913073076924,mp-1104337,0,0.0
Sr2HoCu2RuO8,0.0,-2.261148191785712,mp-1218811,0,0.0
Ba4Rh,0.0,0.043603303,mp-1214412,0,0.0
La(NiGe)2,0.0,-0.6910069750000021,mp-19979,0,0.0
K2In2As3,1.000699999999999,-0.399509748261901,mp-21741,0,1.0
V2PS10,1.1465,-0.8532792550686801,mp-648414,0,1.0
Ho6Se11,0.5446,-1.9085931538051464,mp-32833,0,0.0
Mg6ZnMo,0.0,0.20213082875,mp-1022595,0,0.0
Li2Mg3Si2,0.2095,-0.161050131666665,mp-1222684,0,0.0
Mn2Pb3N4,0.0,0.141355727753837,mp-1246959,0,0.0
ZnH14C2(N2Cl)4,3.9838,-0.5803189052586211,mp-603910,0,6.0
Sr4Sn9Au7,0.0,-0.519045985749999,mp-1218558,0,0.0
NaLaNb2O6,0.0,-3.026661746637931,mp-1520737,0,0.0
BiAsO4,2.8719,-1.7711837741666672,mp-561068,0,4.0
K4P6,0.696676,,,0,1.0
HoCdPt2,0.0,-0.8219076862499951,mp-864673,0,0.0
Zr2FePt,0.0,2.7454664825,mp-1093669,0,0.0
Mg6TiSiO8,0.062999999999998,-2.612638478333333,mp-1031157,0,0.0
ZrAgAu2,0.0,1.607389147083338,mp-1093875,0,0.0
Zr9Mo4S,0.0,-0.309810977321428,mp-1207420,0,0.0
KCu2AsS3,1.1692,-0.6722343421071421,mp-554421,0,1.0
Cs3NiCl5,0.0871,-1.7945144413888852,mp-1189297,0,0.0
NaNb2H7O9,3.121699999999999,-2.011762596980491,mp-1194954,0,4.0
Na2Zr(Si2O5)3,4.8774,-3.21046014209411,mp-1221344,0,7.0
YB3H27N5,4.8121,-0.33829439957176,mp-1194737,0,7.0
Rb8Ta6O23,0.075099999999999,-2.429873854297297,mp-1197311,0,0.0
NaSi5N7,3.6384,-1.263114799615383,mp-1246168,0,5.0
Tl3Hg,0.0,0.018193175624993,mp-972185,0,0.0
BeC2,1.669699999999999,0.849215976666665,mp-1001023,0,2.0
Nd6Fe13As,0.0,-0.129857257124999,mp-1200485,0,0.0
HfRu3,0.0,-0.261035368749997,mp-1007657,0,0.0
TbBRh3,0.0,-0.7850072811666661,mp-3869,0,0.0
HfGaNi2,0.0,-0.557136344374998,mp-3498,0,0.0
NdCu6,0.0,-0.128073136428572,mp-1193079,0,0.0
AlNi4Ge,0.0,-0.393435677499998,mp-1228880,0,0.0
Ho3Tl5,0.0,-0.346311373749998,mp-1188242,0,0.0
LiCuP4(RuO7)2,0.0079,-2.123011315541125,mp-1235071,0,0.0
NaCS(OF)3,5.9224,-1.9613485809865912,mp-695305,0,7.0
MgTaZn,0.0,0.668751169222222,mp-631335,0,0.0
Ta3Bi7O18,2.6388,-2.335898079714286,mp-1196419,0,4.0
Eu2BrO2,0.0,-3.080129076000003,mp-605786,0,0.0
SrLiBS3,2.5603,-1.5057733649999991,mp-557962,0,4.0
TmGa2Pd,0.0,-0.8556266887499999,mp-11392,0,0.0
Zn1Pt3O6,0.306897,,,0,0.0
Cu4Sn2Se6,0.017677,,,0,0.0
Sm(GePt)2,0.0,-0.904771357000002,mp-1092291,0,0.0
Cs2LiAsO4,3.7302,-2.096997168767959,mp-14364,0,5.0
NaCuTe,0.6322999999999991,-0.583685075,mp-7434,0,1.0
AgSe,0.0,-0.090979823450521,mp-379,0,0.0
Ho6Al43Cr4,0.0,-0.266186434339621,mp-1199361,0,0.0
Hf2S6,1.053858,,,0,1.0
Na2InCuCl6,0.0,-1.296175764833327,mp-1111118,0,0.0
Na2La4Ti4Si3(S3O16)3,1.4152999999999991,-2.640676342956077,mp-2716469,0,2.0
Ba2B11H7O22,5.657,-2.570561496537697,mp-1196038,0,7.0
PrPH5CO7,3.744,-1.992399243837301,mp-555094,0,5.0
Ge2Fe4O8,0.959261,,,0,1.0
Hf5Sc5Si6,0.0,-0.7684636084375001,mp-1224451,0,0.0
K3SiF7,5.9294,-3.327964832886364,mp-13859,0,7.0
AsH9C2S(NO)4,3.0929,-0.7792764622023821,mp-1200478,0,4.0
PaSnRu2,0.0,-0.381550539999999,mp-1186407,0,0.0
Pm2MgSi,0.0,-0.264322742500001,mp-863696,0,0.0
SrB2,0.0,0.12886528574074,mp-1008755,0,0.0
UCd2O5,2.0853,-2.500243828124999,mp-1006058,0,3.0
Sr(B2Pt3)2,0.0,-0.491694847272728,mp-1218890,0,0.0
HoB2Rh3,0.0,-0.704134870555551,mp-1025027,0,0.0
RbCu3P3(O4F3)2,0.1238,-2.21301967197279,mp-1199313,0,0.0
Ba4Li6Ti19O44,0.0,-3.353738138949771,mp-767511,0,0.0
Rb3Mn2Br7,1.129,-1.594594636113506,mp-28002,0,1.0
Zn4CoSe5,0.030899999999999,-0.7898390421718741,mp-1215583,0,0.0
NdH5(SeO4)2,4.4543,-1.718690381464844,mp-24574,0,7.0
Ho2S3,1.461299999999999,-2.376410549020833,mp-878,0,2.0
MgNb2Te4Cl10O,0.0,-1.462664991481481,mp-1233782,0,0.0
Mg14AlCO16,0.417099999999999,-2.73002129703125,mp-1036461,0,0.0
Ni6Cl7,0.0,-0.418566099038459,mp-1022720,0,0.0
Na2Cu2S2O8F2,1.885344,,,0,3.0
Sm6Ni20As13,0.0,-0.6859722130128201,mp-1209077,0,0.0
Lu5Ge3C,0.0,-0.7435827203703691,mp-1105603,0,0.0
Sc2MnSn,0.0,-0.310790319324713,mp-1018017,0,0.0
CaMg14Sn,0.0,-0.016762701562499,mp-1028176,0,0.0
Sb2C3OF18,2.1709,-2.237652962083334,mp-1199341,0,3.0
ZrNbSi,0.0,-0.442772192314815,mp-1215262,0,0.0
SmEuHf2O6,0.0,-3.633910399,mp-1517665,0,0.0
MnV(Fe2Si)2,0.0,-0.41746282599138,mp-1221563,0,0.0
Co8RhS8,0.0,-0.732440719411764,mp-1188878,0,0.0
SmFeP,0.0985,-0.9529269432142852,mp-978695,0,0.0
Tb2Si3,0.0,-0.732668469,mp-1205298,0,0.0
HfZr2UC4,0.0,-0.85168137437499,mp-1224284,0,0.0
La6Sc2Be2S14,0.990898,,,0,1.0
NaBiAsCO7,0.0,-1.709100613534482,mp-768996,0,0.0
Al4Fe5Rh,0.0,-0.238662372,mp-1228777,0,0.0
EuTi2CdO6F,0.015,-2.780581758333333,mp-684730,0,0.0
Np3P,0.0,-0.472386193556545,mp-1186165,0,0.0
Ba1As2Ni2O8,2.919407,,,0,4.0
Gd4BClO7,3.0154,-3.661490686666666,mp-1201615,0,4.0
BaCaHg2,0.1807,0.809217431249996,mp-1097359,0,0.0
Cu2SiS3,0.8804000000000001,-0.530609594180757,mp-15895,0,1.0
RhSe,0.0,-0.313847860781248,mp-900,0,0.0
K4Y4P8Se24,1.860733,,,0,2.0
Re2Te4Cl22O,0.063799999999999,-1.10853704454023,mp-653823,0,0.0
Co4NiSb12,0.0,0.138091754656861,mp-1106327,0,0.0
Ba38Na58Li26N,0.0305,-0.010579917899728,mp-570185,0,0.0
Ni9(SnS)2,0.0,-0.32961285653846,mp-1220083,0,0.0
Sr4Cu2B4O12,1.508966,,,0,2.0
La(PRu)2,0.0,-1.046766056857133,mp-9886,0,0.0
Cs2NbAgS4,2.2195,-1.290435189497126,mp-623028,0,3.0
Cs2Sb2Pt,0.740699999999999,-0.6146043319999991,mp-1080614,0,1.0
Lu2Ti2O7,2.508,-3.782793325454544,mp-3200,0,3.0
TaTiTe4,0.0,-0.7891647995555551,mp-1217815,0,0.0
U2AlCu3,0.0,0.028502937500001,mp-7775,0,0.0
LiUNbO6,1.8096,-3.215188622592592,mp-17807,0,2.0
Ba4Tb(RuO4)3,0.0,-2.514739077833333,mp-6049,0,0.0
Ba4Tm2Cu6O13,0.0,-2.220641519800001,mp-1228146,0,0.0
Er2FeC4,0.0,-0.307194873571429,mp-9977,0,0.0
Dy4Co3,0.0,-0.148964698571421,mp-1225451,0,0.0
Na3BiF6,4.365600000000001,-2.727570453999999,mp-1238101,0,6.0
Y2RhPb,0.0,1.754628347500001,mp-1096146,0,0.0
Mg2MnB2Ir5,0.0,-0.436673870626437,mp-1189623,0,0.0
Rb(IO3)3,0.0,-0.8241445459615381,mp-1194106,0,0.0
Ba4Fe6P12O44H2,2.404527,,,0,3.0
Co2P2Na6C2O14,3.022764,,,0,4.0
Ho2CdIn,0.0,-0.379070246666661,mp-863651,0,0.0
K2AgI3,2.568699999999999,-1.262457217694445,mp-569943,0,4.0
Ba4CoN4,0.0,-0.440430897777778,mp-1246144,0,0.0
EuCuTeF,0.7290999999999991,-2.062303236666667,mp-13339,0,1.0
Na3AlP3NO9,5.1524,-2.624547281945088,mp-6860,0,7.0
Tb3Zr,0.0,0.102352269999997,mp-1187323,0,0.0
Na9Mg5NbP6(SO12)3,2.6922,-2.643390064212849,mp-2712750,0,4.0
LaCeF6,0.144099999999999,-4.370659118124999,mp-1223016,0,0.0
MnFe,0.0,0.09255887603448,mp-1009134,0,0.0
Li2SbSO4F3,4.4629,-2.37296680560606,mp-769153,0,7.0
CsTmCoS3,0.0,-1.544126444525862,mp-561722,0,0.0
Tm3AlC,0.0,1.3321480684999811,mp-574239,0,0.0
Co3(W5C2)2,0.0,0.276104078823537,mp-1199098,0,0.0
Rb4Te2H3(S2O3)4,0.0,-1.066995923002873,mp-1211268,0,0.0
NaScGaP(SO6)2,3.6136,-2.47562001889938,mp-2715616,0,5.0
ScNb(PbO3)2,2.574899999999999,-2.6439875104999992,mp-1219284,0,4.0
KReO4,3.6923,-2.349105578291658,mp-4757,0,5.0
Tl4Hf2Se6,0.514029,,,0,0.0
K6Sn25,0.0203,-0.140150835112902,mp-571066,0,0.0
ReTc(SnO3)2,0.0,-1.49434409875,mp-1078950,0,0.0
K4P4(H2O5)3,5.2047,-2.259307832416255,mp-721958,0,7.0
Th2BiTe,0.0,-0.947280731666664,mp-865224,0,0.0
Ca2Dy3Sb3O14,2.5795999999999992,-2.9736391149999992,mp-1227760,0,4.0
Be2PdRh,0.0,-0.650607097499999,mp-866115,0,0.0
Li2CuSb,0.4535,-0.485565228333332,mp-15988,0,0.0
Rb8N3O,0.0,0.196023800833333,mp-1020625,0,0.0
K7(Bi3O8)3,0.0,-1.51272422201875,mp-757202,0,0.0
MgH18C4SN8O9,5.3063,-1.00313108847561,mp-707938,0,7.0
Sr2Rh,0.0,-0.083595900000001,mp-1063245,0,0.0
K2PO4,3.2014,-2.328952516306122,mp-555840,0,5.0
Rb8Mo4S12O4,1.662245,,,0,2.0
Ti2Al,0.0,0.5471105313888901,mp-1008753,0,0.0
LiTiO4F3,1.370299999999999,-2.179245595185184,mp-755613,0,2.0
NaTi3AlO8,2.5385,-3.3258188501061,mp-1220885,0,4.0
Bi6Se8Br2,0.996626,,,0,1.0
As8Ca12Li4H4,1.429929,,,0,2.0
Pm2IrAu,0.0,-0.817601913749996,mp-863715,0,0.0
Na7UH4S4ClO20,1.871999999999999,-2.162175340936626,mp-1196696,0,2.0
Na3Sr2Ti3(Si2O9)2,0.0909,-3.142219466471264,mp-1210298,0,0.0
Hf3Ni,0.0,0.037310084999994,mp-1184570,0,0.0
Rb2V2Br6,3.052981,,,0,4.0
Na3Mg4Ta2P3(SO6)6,3.0439,-2.531281467920985,mp-2714414,0,4.0
SiC3,0.0,2.13563533406579,mp-972848,0,0.0
Nd(TmS2)3,1.0206,-2.396928890937499,mp-1209868,0,1.0
Rb2TlAuCl6,0.0,-1.460108712833335,mp-1111611,0,0.0
GdCoSi,0.0,-0.7005903600000001,mp-1077133,0,0.0
CsH7(C2O5)2,3.2534,-1.456239617427508,mp-721753,0,5.0
CsNaO3,0.0,-0.265537237206896,mp-1183929,0,0.0
Gd2Fe12P7,0.0,-0.167923829642855,mp-1191833,0,0.0
Y2Pb2O7,0.998699999999999,-2.52819351772727,mp-752849,0,1.0
Ce(Al2Fe)4,0.0,-0.412553496153843,mp-16486,0,0.0
BOs3,0.0,0.759747159375002,mp-1183263,0,0.0
RbHfAgTe3,0.319399999999999,-0.98028485986111,mp-9780,0,0.0
Nd(Fe5W)2,0.0,0.035300466346154,mp-1220607,0,0.0
La2Al(Ni3H4)3,0.0,-0.166766539791666,mp-1191246,0,0.0
YbAl3,0.0,-0.451476316249998,mp-1259,0,0.0
KAg5S3,0.6972,-0.399625676168981,mp-28468,0,1.0
Nb2Si2SO12,3.0617,-2.807076236127452,mp-2715784,0,4.0
ZnPt3O4,0.0,-0.7652031637499991,mp-1207390,0,0.0
CdRe2H8C2(N2O5)2,2.7859,-1.267847862592592,mp-733848,0,4.0
Nd2Ni17,0.0,-0.162364773421051,mp-570596,0,0.0
Ba2P2O7,5.3745,-3.223110419025973,mp-1019530,0,7.0
Ho(Al5Fe)2,0.0,-0.352880695384612,mp-1212162,0,0.0
NbCoAs,0.0,-0.508025800833332,mp-1101967,0,0.0
Eu2AgAu,0.0,-0.5343744529166711,mp-1183891,0,0.0
Nb2Cu3O8,0.0,-2.002704752307692,mp-1103953,0,0.0
Ga40AgMo8,0.0,-0.144327853503401,mp-1203027,0,0.0
Sc2Te,0.0,-0.9620751858333332,mp-21576,0,0.0
Sr7PtN6,0.066199999999999,-0.516224767232149,mp-1247110,0,0.0
Mg5Sb,0.0,-0.086898959166666,mp-1094555,0,0.0
Sr5As3H,0.676399999999999,-1.236794137361111,mp-24338,0,1.0
Tb6PbSe10,1.7114999999999991,-1.9537262425551452,mp-675130,0,2.0
NaZn2H3(SO4)2,4.3391,-1.650112926570581,mp-24488,0,6.0
Fe2Cl6,1.860885,,,0,2.0
Na3Te(PO7)2,0.0246,-1.423005620504514,mp-1197998,0,0.0
SeO2,3.2874,-1.154143574114583,mp-726,0,5.0
Mn2CuSb2Pt,0.0,-0.133827095977011,mp-1221896,0,0.0
Cu3As2H16C16Br3(NO)2,1.7114,-0.210434909431818,mp-605172,0,2.0
Mn5CuN4,0.0,-0.080664681678878,mp-1246923,0,0.0
DySI,2.7811,-2.107829651388888,mp-28929,0,4.0
SnP,0.0,0.006095231011904,mp-7526,0,0.0
Li5Ti2Cu3O10,0.174399999999999,-2.212030808166667,mp-780243,0,0.0
Rb4Mg(Se2O7)2,1.5472,-1.650557204972825,mp-1233109,0,2.0
CsC3(SeN)3,1.7791,-0.089986657168641,mp-569889,0,2.0
Na6Sc2Ga2Si3(SO8)3,2.963599999999999,-2.568427633727731,mp-2716180,0,4.0
SbSCl9,1.7743,-0.531450055028408,mp-557809,0,2.0
Ag2H2IOF,1.4591,-1.046624786547618,mp-690687,0,2.0
Zr2PtRh,0.0,2.340407845000005,mp-1095822,0,0.0
La2Fe2K2N12C12,3.71344,,,0,5.0
Sb4Te7Pb,0.507799999999999,-0.413879177222221,mp-1209139,0,0.0
Ta2Pt3Se8,0.6803,-0.923180312570511,mp-4425,0,1.0
Ca6Si6H2O19,4.4792,-3.245904816287879,mp-1183664,0,7.0
Rb2NaSmF6,6.3067,-3.538864388137931,mp-1206690,0,7.0
GdP2H9O10,2.907899999999999,-1.932135384456168,mp-541218,0,4.0
Na3Y3TaP5SO24,3.0491,-3.008988234383394,mp-2715940,0,4.0
BaGeAu3,0.0,-0.511960961000002,mp-1227958,0,0.0
MgVFeS4,0.0,-1.038496818571428,mp-1247175,0,0.0
CuSb3XeF23,0.5704,-2.083017015803571,mp-1196390,0,0.0
Y2GePd,0.000699999999999,1.70206850875,mp-1093907,0,0.0
Tl2Te(PO7)2,0.004099999999999,-1.068380153032582,mp-732347,0,0.0
Lu3Ga,0.0,-0.298174924999997,mp-973300,0,0.0
Hf2P4S12,2.297154,,,0,3.0
Eu5P3O12F,0.390699999999999,-3.341644417329932,mp-1212781,0,0.0
YH5(SeO4)2,4.431699999999999,-1.725208100527343,mp-24335,0,7.0
Na5Ti7Al(PO4)12,2.441799999999999,-3.000955081588276,mp-677499,0,3.0
Ta12Ga3(TeSe2)8,0.068299999999999,-0.9139922728546992,mp-1217809,0,0.0
Mn3IrN,0.0,-0.21834808375862,mp-22502,0,0.0
Na9Ca4Ta2(PO4)9,2.3543,-2.899630338203325,mp-2715460,0,3.0
CsHC2,4.5867,0.332289007273706,mp-31476,0,7.0
YMgCu4,0.0,-0.222078840833333,mp-13172,0,0.0
K3MoI6,1.4013,-1.091496250175,mp-1110957,0,2.0
MnAgN,0.0,0.064779964825191,mp-1247248,0,0.0
TaCu3Se4,1.598,-0.5959828879479191,mp-4081,0,2.0
ZnFeRh2,0.0,-0.276928189999999,mp-977361,0,0.0
Li3La14(CuO7)4,0.412999999999999,-3.137072320204081,mp-774918,0,0.0
LaC4NO11,0.3717,-1.331808787941177,mp-1181174,0,0.0
KNaMg2F6,6.3905,-3.49061268786293,mp-1223318,0,7.0
Ba7In2(Se3F4)2,1.198799999999999,-2.940161132060688,mp-1192196,0,1.0
Ho2MgTl,0.0,-0.20226546708333,mp-1184590,0,0.0
LuAl2,0.0,-0.550240265555553,mp-1234,0,0.0
Ba3PrRu2O9,0.0,-2.559985890111112,mp-16821,0,0.0
Zn2P2S6,2.252381,,,0,3.0
LiGd3,0.0,0.144432869166664,mp-1185526,0,0.0
CsH5S2(NO3)2,5.1116,-1.325309822869072,mp-773494,0,7.0
LuSiAg,0.0,-0.613306637777775,mp-1079794,0,0.0
Sr16Cu8BC7O40,0.0,-2.411980010891204,mp-686590,0,0.0
B12P2,2.476388,,,0,3.0