formula,bg,formation_energy,mp-id,fidelity,bg_category
YAlN2,2.766,-1.644057246875,mp-1245626,0,4.0
PH12C3N6O5F,4.6516,-1.015290836058673,mp-1199154,0,7.0
Pr3Ni,0.0,-0.143952676874998,mp-1106122,0,0.0
H18PbC6S4N2O9,4.9741,-0.6648903775625,mp-559034,0,7.0
CdAs2S2(OF3)4,3.4985,-2.198542333333333,mp-558288,0,5.0
Ba3WN3,0.0,-0.8871000535714281,mp-1246178,0,0.0
Nb4N3,0.0,-1.06429716755952,mp-569167,0,0.0
SmPt,0.0,-1.192881412499998,mp-1025431,0,0.0
K4Pd6Se8,0.7753829999999999,,,0,1.0
CS(NO)2,0.0,-0.139791899999999,mp-1191171,0,0.0
Gd5AgSe8,0.9084,-1.901959810982142,mp-685977,0,1.0
Os4Se8,0.0,,,0,0.0
Zn2P2H10O11,0.122199999999999,-1.435209692271428,mp-1201226,0,0.0
K3S3O5,0.2161,-1.664682091863636,mp-1202360,0,0.0
LaMg14Mo,0.0,0.138225406562499,mp-1026759,0,0.0
Sr2La2CuRuO8,0.0,-2.690403942142857,mp-1218695,0,0.0
YbBiPt,0.0,-1.158377599999994,mp-1018106,0,0.0
Sm2HfCo16,0.0,-0.082211171578946,mp-1219372,0,0.0
SrCa4Al10(SiO5)10,0.0,-2.633702072866667,mp-1218540,0,0.0
V3Pb3N5,0.0,-0.419591201477275,mp-1246026,0,0.0
Rb4Sr2V8O24,2.60079,,,0,4.0
Fe2TeSe,0.0,-0.346925777252603,mp-1225136,0,0.0
Zr4O8,3.600831,,,0,5.0
Ba3NaEu3(Si3O10)2,0.0,-3.292202161405434,mp-1098017,0,0.0
Tb8Rh5C12,0.0,-0.379864606133331,mp-1191018,0,0.0
K3Nd(PO4)2,4.9309,-2.967787349538264,mp-17187,0,7.0
Nb2Zn4(SO4)9,2.3571,-1.980088278578432,mp-2713968,0,3.0
Ca(GeRh)2,0.0,-0.868845092,mp-16261,0,0.0
SmP5,0.009399999999999,-0.6452046758134901,mp-9849,0,0.0
K3Be2H7C3O13,4.6287,-1.915470896892857,mp-1202397,0,7.0
CsMg6Mn,0.0,0.469648804051724,mp-1099119,0,0.0
Lu2Co12P7,0.0,-0.796788815039682,mp-1191153,0,0.0
RbTb2Ag3Te5,1.0504,-1.072103448106059,mp-1190149,0,1.0
K3DyCl6,5.0577,-2.366597296374999,mp-1211897,0,7.0
Pb10As6Cl2O18,2.612522,,,0,4.0
Sr3Lu2O12,0.081599999999999,-1.829822369607843,mp-1208701,0,0.0
Ta2FeTc,0.0,4.184608915083334,mp-1096511,0,0.0
PrSi2Mo2C,0.0,-0.418426871111111,mp-21891,0,0.0
K2Mn(C2O5)2,0.4759,-1.521583871025355,mp-728301,0,0.0
Lu(SiRh)2,0.0,-1.16606968733333,mp-3108,0,0.0
Te6Se2O16,2.908672,,,0,4.0
La2K2Si2S8,2.648215,,,0,4.0
Ho3(CoGe2)2,0.0,-0.706375420555552,mp-1078740,0,0.0
PrCuSb2,0.0,-0.7671486379166651,mp-19848,0,0.0
CsAlBP2HO9,5.393000000000001,-2.763287353290504,mp-542129,0,7.0
Na3V6N11,0.7884,-0.853698451687506,mp-1245818,0,1.0
Ta5Ni,0.0,0.106336616305559,mp-1191664,0,0.0
LiTe4H4(O3F4)2,0.8481000000000001,-1.883532478478261,mp-1235165,0,1.0
In2Au3,0.0,-0.224129884000001,mp-1017579,0,0.0
Zn2CoCu,1.396999999999999,1.6091542874999991,mp-1096365,0,2.0
U3TaSb5,0.0,-0.5473493185925931,mp-1207922,0,0.0
LaSnP(SO6)2,1.7712,-2.423080437331933,mp-2713103,0,2.0
Mg6VB,0.0,0.230288470104166,mp-1021779,0,0.0
Fe2Pb3N4,0.0,0.173470825,mp-1246216,0,0.0
Ni3K4O6,0.5870500000000001,,,0,0.0
CdH12C2S2(N4Cl)2,4.015,-0.363044717407407,mp-1200189,0,6.0
BH12C3N,5.645300000000001,-0.178913561421569,mp-1182357,0,7.0
LiGe3SbTe5,0.8269000000000001,-0.441520159166665,mp-1222357,0,1.0
CsEr6CI12,0.219999999999999,-1.477186284732758,mp-23118,0,0.0
Cd(GaS2)2,2.1205,-0.8257759216071421,mp-4452,0,3.0
Tm6Mn(GeS7)2,0.919099999999999,-1.7677449201274371,mp-1216995,0,1.0
Ce2MgCu2,0.0,-0.068175524666662,mp-22810,0,0.0
Ba2Ca2Tl2Sn3O10,0.0,-2.157466595350877,mp-1367446,0,0.0
RbCuCl3,0.185899999999999,-1.485598939499999,mp-23055,0,0.0
DyCu7,0.0,-0.104725540624999,mp-1225716,0,0.0
CuAs12P4S12Cl,2.2937,-0.412492535452381,mp-1197298,0,3.0
GdYCo4,0.0,-0.120285724999999,mp-1224937,0,0.0
AgI3O8,2.2937,-0.753021275972222,mp-1194592,0,3.0
Sr3CdIrO6,0.0,-2.3557943700000012,mp-15269,0,0.0
Na2MgSi5O12,5.018599999999999,-3.050280072137931,mp-560603,0,7.0
Na2Be3Si3O8,0.0552,-2.337763281109914,mp-1221869,0,0.0
AgC2S2N3,0.0,0.9626752787639532,mp-726944,0,0.0
Hg2Sn1Se4,0.22368,,,0,0.0
Sr11InSb9,0.9265999999999992,-1.084600449603174,mp-578752,0,1.0
CsY(PO3)4,5.5193,-2.9121688374014782,mp-1019725,0,7.0
K2CoSe2,0.0,-0.9068635288374992,mp-8768,0,0.0
Ba6In4P8,1.101196999999999,,,0,1.0
CsNaMg30O31,1.7947000000000002,-2.801098971841817,mp-1039864,0,2.0
Sn2PH32C11N3Cl2O,3.439,-0.24221774345467,mp-1196439,0,5.0
ZrCrCu,0.0,0.052451073333333,mp-1215282,0,0.0
CdFeS2,0.0,-0.572379081249998,mp-1226763,0,0.0
Hg2Cr2O8,1.352993,,,0,2.0
K3Al2As3,1.1862,-0.5576802861562501,mp-28347,0,1.0
CaAsO6,0.3679,-1.0239665190625,mp-1214130,0,0.0
HoPd2,0.0,-0.6675735515833351,mp-1062597,0,0.0
Sb8S14K4,1.374758,,,0,2.0
Na3LaSiGe(PO6)2,1.4129,-2.687376414004516,mp-2715508,0,2.0
PH9PtC3Cl2,2.3994,-0.397017208962053,mp-1200217,0,3.0
YMg(CoNi)2,0.0,-0.220489190833333,mp-1215977,0,0.0
Na9Zr8Si4(PO6)8,1.3802,-2.779948310903335,mp-720460,0,2.0
NaZn2(BH4)5,6.159499999999999,-0.239094898739736,mp-1201672,0,7.0
CuH4(IO4)2,0.5259,-0.9985807943333332,mp-756758,0,0.0
K4MgCu3F12,0.0,-2.6440644967,mp-1223957,0,0.0
Ti5Se4,0.0,-1.269583419560184,mp-11765,0,0.0
ZrSbRu,0.0,-0.667661066666667,mp-31457,0,0.0
Tl2PdSe2,0.0,-0.446582548624996,mp-28954,0,0.0
Tb(CoB)2,0.0,-0.5466502789999991,mp-3893,0,0.0
Rb2VCl6,0.0,-1.955501719444444,mp-1207222,0,0.0
Cs2InGaBr6,1.244,-1.531044263347701,mp-1112627,0,1.0
YbGdAg2,0.0,-0.298137601250001,mp-1187833,0,0.0
Na2Ca3Sn(SO4)6,0.027499999999999,-2.307417633965517,mp-2714031,0,0.0
La2MgHg,0.0,2.153925163124997,mp-1098699,0,0.0
ReN,0.0,-0.008583725624996,mp-1019052,0,0.0
FeN,0.0,-0.3137454275,mp-6988,0,0.0
Rb2MgH8(CO5)2,4.7717,-1.7631472856521742,mp-24606,0,7.0
Mg2MoW3S8,0.809199999999999,-0.981770660714284,mp-1247258,0,1.0
Sm5Zr3(Ni4As3)4,0.0,-0.8303933831944451,mp-1200970,0,0.0
NdMgTl,0.0,-0.342008233055557,mp-1206643,0,0.0
Sc2(Ni7B2)3,0.0,-0.380513407413792,mp-647205,0,0.0
CeY(MgNi4)2,0.0,-0.385091256666665,mp-1226870,0,0.0
Ca2Pr2O5,1.3285999999999991,-2.958393450925925,mp-1183496,0,2.0
Na8Cr2O8,1.996882,,,0,3.0
Ba5Bi3,0.0,-0.8955071224999981,mp-29621,0,0.0
CuGe5Pb3O14,0.8418000000000001,-1.880478839782607,mp-21727,0,1.0
La4Ni2O8,1.729669,,,0,2.0
BiH14C4S8N5O,2.8482000000000003,-0.446167505984848,mp-1199579,0,4.0
Pa3Mo,0.0,0.211592862499998,mp-1006127,0,0.0
AlRe,0.0,-0.382194888749999,mp-1228815,0,0.0
Na(OsN2)3,0.0,0.224261925862067,mp-1246006,0,0.0
Sm3ErS4,0.0,-2.247815896874998,mp-1219178,0,0.0
GdZnPO,0.5757,-2.029670577410714,mp-545506,0,0.0
CdSnPd2,0.7024,1.174848463750001,mp-1097428,0,1.0
Be2CuOs,0.294699999999999,2.9025743625,mp-1096063,0,0.0
Na(Pr2Se3)4,0.0,-2.142108493016438,mp-34713,0,0.0
RbTlO,1.201699999999999,-1.167734808611114,mp-1206230,0,1.0
Na6Nb20Zn4Si21(S5O48)3,1.305,-2.652221966622743,mp-2715551,0,2.0
Pm2CdIn,0.0,-0.5265062512500011,mp-862996,0,0.0
ErPPd,0.0,-1.273204666547616,mp-8919,0,0.0
BaCl2,5.4291,-2.96823858,mp-568662,0,7.0
Fe4W2N,0.0,-0.047201037857141,mp-1225423,0,0.0
RbU3TiTe9,0.0,-1.016394931488093,mp-1192694,0,0.0
Zr1V1F6,2.848422,,,0,4.0
EuMgBiSbO6,0.0,-2.313295919,mp-1523017,0,0.0
Na7Nb2Zn2Si3(PO8)3,1.785,-2.662477445615864,mp-2714996,0,2.0
CdAsPd5,0.0,-0.380318411071426,mp-1025294,0,0.0
DyTiFe11N,0.0,-0.203980070000001,mp-1225621,0,0.0
Dy20In40Rh19,0.0,-0.589844323164554,mp-1226356,0,0.0
Eu2Te4O11,0.0,-2.045717880980392,mp-31247,0,0.0
Ru3Sr2O10,0.0,,,0,0.0
Ba2Cu2Te2F2,1.296259,,,0,2.0
LiIO,0.0,-0.398625164444444,mp-1222278,0,0.0
Dy4Cu5P7,0.0,-0.97167924219271,mp-1225338,0,0.0
Na3Y2Sn2P5SO24,2.670499999999999,-2.727656582473483,mp-2716093,0,4.0
La2CuO4,0.0,-3.042022152857141,mp-1077929,0,0.0
Cl2Hg6S8As2,1.339571,,,0,2.0
Cs10Ga6Se14,2.143129,,,0,3.0
RbHg3N(Cl4O)2,0.0,-0.817067129333335,mp-1104672,0,0.0
NaBiTeO5,2.3709,-1.730482831630748,mp-1221124,0,3.0
Sr7Cu44As23,0.0,-0.277461890540538,mp-1195752,0,0.0
Cr4F20,1.408739,,,0,2.0
NdCdAu2,0.0,-0.6396255943750021,mp-977562,0,0.0
I2Rb2O8,2.431117,,,0,3.0
In8Te8Cl8,1.613056,,,0,2.0
LaAl4,0.0,-0.378442886333333,mp-21109,0,0.0
Er18Ti14O55,2.3658,-3.763499655766282,mp-686077,0,3.0
Cs2GdAgCl6,0.0,-2.209648464097701,mp-1113592,0,0.0
Eu(Ga4Ir)2,0.0,-0.472771489545455,mp-1203832,0,0.0
DyB2Ru,0.0,-0.6033682237499981,mp-1189977,0,0.0
IO2,1.4625,-0.6964737262499999,mp-23170,0,2.0
SrCaDy4Be2O10,4.0655,-3.566148480925926,mp-1218527,0,6.0
NpIn3,0.0,0.006129355312502,mp-21482,0,0.0
TaH24C8N4Cl,2.7991,-0.258436743745613,mp-1198272,0,4.0
Sc2TlGa,0.0,1.9145662850347231,mp-1096205,0,0.0
RbSr2MgNb3O10,0.0,-2.949355967794118,mp-2229307,0,0.0
Ru4Pb4O13,0.0,-1.517015615476188,mp-674149,0,0.0
Ba2NaSr2(SbO4)3,1.858299999999999,-2.538400447068966,mp-1228553,0,2.0
Lu5(In2Pt)2,0.0,-0.9474667830302992,mp-1210805,0,0.0
Zr2(TiSn)3,0.0,-0.398278216833322,mp-1215790,0,0.0
Nd(IO3)3,3.3445,-1.478823424423068,mp-558346,0,5.0
K2AgAsCl6,1.519,-1.501012421366666,mp-1112480,0,2.0
BeInPt2,0.0016,1.608241554583334,mp-1097595,0,0.0
Mg4Se3S,2.6628,-1.500530635566405,mp-1222134,0,4.0
Lu2Nb2O7,0.0,-3.409414042121212,mp-756724,0,0.0
Na5Ga3Si3Ge(SO8)3,2.455,-2.292073722569998,mp-2716287,0,3.0
Cr8Co3NiS16,0.0,-0.8527784010714271,mp-1226633,0,0.0
TlCuCl3,0.4143,-1.079016908166669,mp-1105457,0,0.0
CsPuO3,0.0,-2.807718800681032,mp-2647156,0,0.0
TbDy3Co8,0.0,-0.149569387638887,mp-1217592,0,0.0
Ca2MgN2,1.331699999999999,-0.9218710961249992,mp-1247107,0,2.0
K4B4H16,1.165191,,,0,1.0
Be3ZnS4,2.7906,-1.201725221874999,mp-1227344,0,4.0
Lu3Ge13Rh4,0.0,-0.506022676999999,mp-21750,0,0.0
BaMoP2,0.0,-0.492070197321428,mp-1096841,0,0.0
Ca2NF,1.1658,-2.264231005729166,mp-685352,0,1.0
Sr5(VN3)2,0.3265,-1.183200021089745,mp-1247227,0,0.0
K4Tc2H6C8O21,0.5238,-1.600771877719512,mp-722674,0,0.0
Na3YMgSi(SO6)2,3.7228,-2.588729296373564,mp-2712800,0,5.0
Na2LiTa,0.0,1.233161440890803,mp-631339,0,0.0
K3TaI6,0.0,-1.103151429908332,mp-1111158,0,0.0
V2(B24C)3,0.0,-0.06369285004329,mp-1217011,0,0.0
CuSO4,0.0,-1.509107240416665,mp-20525,0,0.0
Eu2InPd2,0.0,-0.709605048333334,mp-1095160,0,0.0
YAgSn2,0.0,-0.438700250416665,mp-1216005,0,0.0
H5ClO2,5.2194,-1.185515970156249,mp-24381,0,7.0
Ca8Ge4S16,2.483492,,,0,3.0
DyFe5,0.0,-0.043887316944443,mp-568006,0,0.0
FeAsSe,0.448599999999999,-0.474923531614584,mp-1101894,0,0.0
BaHfF6,7.123200000000001,-4.210183255625,mp-1214420,0,7.0
Na2MgH8(SO6)2,5.3764,-1.814907556910345,mp-559135,0,7.0
Re3Mo2,0.0,0.055882278750004,mp-1219297,0,0.0
BaSmHf4O12,0.0,-3.4231411252777773,mp-1519335,0,0.0
Si3Ru,0.0,0.196739859687497,mp-978509,0,0.0
K2YTlBr6,3.4148,-1.892974471783334,mp-1111194,0,5.0
Ta3FeS6,0.0,-1.286854416199997,mp-1189616,0,0.0
K2Mn(BH4)4,2.5177,-0.319220484199899,mp-1203215,0,4.0
TaIn(CuSe2)2,0.0,-0.378471675760419,mp-1208694,0,0.0
Rb2SiAs2,0.9554999999999992,-0.435768260000001,mp-6960,0,1.0
Na14Mg4In4Si5S7O48,2.3865,-2.361530301078989,mp-2715918,0,3.0
SrZrN2,1.227199999999999,-1.590221453125,mp-1029275,0,1.0
Li8NbS6,0.0,-1.402430659444444,mp-754227,0,0.0
YbDyRh2,0.0,-1.005741469999996,mp-865751,0,0.0
Li2N2O6,2.985228,,,0,4.0
Si3F,0.0,-0.2472311946875,mp-972767,0,0.0
MgZr2H10(S3O14)2,2.1562,-1.9512283313297871,mp-1234462,0,3.0
Rb4V6O16,2.013363,,,0,3.0
Na7La2Hf2Si3(PO8)3,4.073,-3.098881071550824,mp-2714728,0,6.0
Ba4Cl8,5.034141,,,0,7.0
RbNa2BO3,2.9274999999999993,-2.245913919203612,mp-8872,0,4.0
CsSbTe6(OF5)6,2.6359,-2.28634875163989,mp-680235,0,4.0
Nd2EuSe4,0.490699999999999,-2.2504451180357132,mp-36407,0,0.0
K4Se6,0.592572,,,0,0.0
BaMg2Si2O7,4.558,-3.294698232291667,mp-1019549,0,7.0
Ge3W5N9,0.0001,0.046371521691175,mp-1246552,0,0.0
U3Co2Ge7,0.0,-0.324113922916665,mp-20447,0,0.0
K3Tb,0.0,0.579236930250001,mp-1185125,0,0.0
RbGdH2S2O9,2.6941,-2.280083629666668,mp-24617,0,4.0
In3Pb,0.0,0.035158029999998,mp-1184932,0,0.0
Ti2CoRh,0.0,2.704752170833332,mp-1096729,0,0.0
Se4V4O22,2.087636,,,0,3.0
Lu6Ta4Al43,0.0,-0.31350161715723,mp-1211259,0,0.0
K3ReClF6,1.8139999999999992,-2.66220172675,mp-557125,0,2.0
Zn3Bi2O7,0.0,-1.539628377083333,mp-1330266,0,0.0
LiMg2H7Ru,3.151,-0.450502035643939,mp-643276,0,5.0
TaGaN2,1.123999999999999,-0.660435765479167,mp-1246663,0,1.0
NiAs2Rh3,0.0,-0.379045846666675,mp-1220148,0,0.0
CsDyS2,2.2244,-2.121056255156247,mp-984555,0,3.0
MnInGaS4,0.0,-0.765624202604677,mp-1221817,0,0.0
Mg14AlSnO16,0.0,-2.78174585890625,mp-1036646,0,0.0
Ce2H5,0.0,-0.6372129626785701,mp-1104579,0,0.0
NaY3Zn(SO4)6,4.670599999999999,-2.455432480563219,mp-2714889,0,7.0
In2Ni7B,0.0,0.284298038583335,mp-1224457,0,0.0
CoIr,0.0,0.0243366025,mp-1226007,0,0.0
Ge34,0.601374,,,0,0.0
YbGaCu4,0.0,-0.276619012500001,mp-1215637,0,0.0
ZrMoC2,0.0,-0.4934584521875,mp-1215218,0,0.0
YSiAg,0.0,-0.643740774444441,mp-1091398,0,0.0
DySnO3,0.0,-2.149717456333332,mp-1184153,0,0.0
ErNiGe3,0.0,-0.5523052889999981,mp-1078854,0,0.0
Ce4Ga5Br2,0.0,-0.978176397954544,mp-30944,0,0.0
Na3Sr4La3Ti10O30,1.9423999999999992,-3.478862383449426,mp-695582,0,3.0
La3Mg2WS8,0.105999999999999,-1.7251677382142852,mp-1246659,0,0.0
TiCo2Si,0.0,-0.6928583329166661,mp-3657,0,0.0
Ca(NCl)2,0.0,0.6009749095000011,mp-727235,0,0.0
Cu(RhSe2)2,0.0,-0.481471135892856,mp-15614,0,0.0
U2Ge3,0.0,-0.116629396650006,mp-1216823,0,0.0
Ca(IO2)2,1.587899999999999,-1.307543127857143,mp-725059,0,2.0
MgB6(H3O4)4,5.4762,-2.065514743785714,mp-1205090,0,7.0
SmSnAu,0.0655,-0.855774013333331,mp-13305,0,0.0
GeBiPd6,0.0,-0.268722495624999,mp-1224414,0,0.0
RbEr2Cu3Se5,1.1477,-1.323529165838068,mp-16884,0,1.0
SrBe(HO)4,3.9554,-2.057483686,mp-1196241,0,6.0
CoH20S2(NO7)2,0.474099999999999,-1.260423067051281,mp-510449,0,0.0
KRbS,2.2214,-1.176483886583332,mp-28760,0,3.0
SmB2Rh3,0.0,-0.6756441605555691,mp-2947,0,0.0
AgBiSeS,0.0,-0.207793395954858,mp-1229089,0,0.0
Na4CO4,2.1989,-1.724983732279693,mp-13274,0,3.0
Al13Si5H14Cl(O17F2)2,3.921999999999999,-2.760704525598591,mp-534982,0,6.0
ErRh5,0.0,-0.291512288333332,mp-1805,0,0.0
PmPrMg2,0.0,-0.084254717291665,mp-1186626,0,0.0
UMnFe,0.0,-0.080282832643677,mp-1216584,0,0.0
Y2CoRu3,0.0,-0.260264061666667,mp-1216066,0,0.0
CaTa2O6,3.473899999999999,-3.48066448774074,mp-18229,0,5.0
TbGa4Ni,0.0,-0.542364674444444,mp-1102206,0,0.0
Er2Co3Ge5,0.0,-0.5651152660000001,mp-1006352,0,0.0
Te4K4P8,1.11413,,,0,1.0
YbNdS3,0.0,-2.398504084187499,mp-560374,0,0.0
NdC3O11,0.3577,-1.071247645166667,mp-1204161,0,0.0
CsMgP(H6O5)2,4.8246,-1.737752688571921,mp-761178,0,7.0
Dy2Ga3Fe14,0.0,-0.102187665307016,mp-1203342,0,0.0
I7Cr1N6H18,1.634942,,,0,2.0
Na4Al11Si13Ag7O48,1.513199999999999,-2.78116882297812,mp-695373,0,2.0
Pm3Sm,0.0,0.020103564374998,mp-1186540,0,0.0
Rb2LiMoBr6,1.2695,-1.542953530833333,mp-1110711,0,2.0
Hf(CoGe)6,0.0,-0.304214095384615,mp-1103545,0,0.0
YTlAu2,0.0,1.005389529166663,mp-1093689,0,0.0
Al2Zn,0.0,0.024578678333333,mp-1206713,0,0.0
Al(IO3)3,3.346599999999999,-1.3017925411538451,mp-555903,0,5.0
CsRb2GaI6,1.1875,-1.199179196215517,mp-1111039,0,1.0
Cs2Au2S2,1.86445,,,0,2.0
HfTl,0.0,0.111812358333324,mp-1184549,0,0.0
La5Al2Ru3,0.0059,-0.455493359999999,mp-1185199,0,0.0
CeEr3,0.0,0.063768737499998,mp-1183865,0,0.0
Ga12I24,1.489774,,,0,2.0
HC12N3F10,2.5427,-0.7775642046634631,mp-1212737,0,4.0
Ca(NdS2)2,2.235,-2.380678228035713,mp-35876,0,3.0
Lu3Cd,0.0,-0.105817631666667,mp-1185440,0,0.0
SrTe5O11,0.258599999999999,-1.521374069607842,mp-676528,0,0.0
SiHgO3,0.0,-1.7200487435000011,mp-1016874,0,0.0
HoZnRh,0.0,-0.7397249399999961,mp-13380,0,0.0
In2Cl3,2.5084,-1.065011909162498,mp-667324,0,4.0
LaVN3,0.5744,-1.29009262308333,mp-989403,0,0.0
SrIn3Hg,0.0,-0.2938979285,mp-1218256,0,0.0
Na6Ca2Hf2Si3(SO8)3,2.6026,-2.732664172436064,mp-2716198,0,4.0
ScSi,0.0,-0.8583968999999999,mp-9969,0,0.0
Gd2(SO4)3,0.419399999999999,-1.685894177205882,mp-1188270,0,0.0
K10Gd22F79,0.0,-4.058271284211712,mp-1213565,0,0.0
Sc44Ir7,0.0,-0.372396754019607,mp-1200708,0,0.0
Gd(Al10Cr)2,0.0,0.081148632981365,mp-643271,0,0.0
SrSm(ClF)2,0.0,-3.145461504722225,mp-1217969,0,0.0
Cr3IrN,0.0,-0.357567363750001,mp-505628,0,0.0
Nd2MgIn,0.0,-0.318221406666666,mp-864612,0,0.0
GePb5O7,2.4172,-1.642073899999998,mp-583345,0,3.0
Se2S4O4N4,1.678547,,,0,2.0
Rb2Li3GaO4,3.5182,-2.027708752249999,mp-1209478,0,5.0
LiB3P(HO3)3,5.9877,-2.402489649880952,mp-850414,0,7.0
ZnRh3,0.0,-0.197140483750001,mp-971779,0,0.0
Ba4Nb14O23,0.0,-2.811276072805006,mp-4564,0,0.0
Mg6CrBi,0.0,0.122578734999999,mp-1016620,0,0.0
Nd3(Ge3Pt2)2,0.0,-0.916538159038461,mp-1210622,0,0.0
CuB2(PbO3)2,0.0,-2.036385760757575,mp-554812,0,0.0
YbPaO4,0.0,-4.097001039999999,mp-676985,0,0.0
Pr2Fe2Si2C,0.0,-0.553506088333332,mp-1025194,0,0.0
Rh3(PbS)2,0.0,-0.509241792142853,mp-15652,0,0.0
Mg5Tl2,0.0,-0.005540163095243,mp-570849,0,0.0
NaCaAl3(SiO4)3,3.477299999999999,-3.230799311943965,mp-677223,0,5.0
Sb12Ca10In4,0.139867,,,0,0.0
S2N(O2F)2,0.8715,-1.331219193888889,mp-1188569,0,1.0
Rb2NaYbF6,0.0,-3.625714126750002,mp-1205802,0,0.0
ZrVP,0.0,-1.104168687380952,mp-22302,0,0.0
Ru4Br20K8N4O4,1.669329,,,0,2.0
Lu3U,0.0,0.387502162499998,mp-973165,0,0.0
Y(GaCo)6,0.0,-0.316788582692309,mp-1207723,0,0.0
TbCo2Ni3,0.0,-0.224425569444443,mp-1217588,0,0.0
Lu1Na1Pd6O8,0.0,,,0,0.0
Fe3Sb,0.0,0.0268340512499999,mp-1184324,0,0.0
Li2MnSnS4,0.070699999999999,-1.095255814324711,mp-1105291,0,0.0
H4N4S28,2.715807,,,0,4.0
Ga2NiCl8,0.4607,-1.161966740454545,mp-580999,0,0.0
Li2MnBr4,1.7801,-1.535282463513957,mp-28250,0,2.0
Zr3Fe3C,0.0,-0.313599878571428,mp-1193698,0,0.0
LiEuSb,0.0,-1.006656034444449,mp-1095425,0,0.0
GaAsH5CNO5,0.2317,-1.025259340446429,mp-1203028,0,0.0
Na2La3NbP4(SO12)2,2.1698,-2.884234987166577,mp-2714176,0,3.0
Li3In,0.0,-0.299054724999999,mp-867226,0,0.0
Nd10US16,0.0,-2.29160745203703,mp-685926,0,0.0
La2Ni5C3,0.0,-0.2993291005,mp-615459,0,0.0
HfGa,0.0,-0.578133401250004,mp-510188,0,0.0
K2CuF4,0.382399999999999,-2.538780793499999,mp-8388,0,0.0
BaBi4(IO2)2,0.0,-1.332935748181819,mp-546846,0,0.0
ErB4,0.0,-0.653387246666667,mp-2847,0,0.0
P6H17S6(NO)7,3.6639,-0.869929508118769,mp-1204090,0,5.0
Th2AgP2O,0.0,-0.324261859325394,mp-1208234,0,0.0
EuC2,0.0,-0.181588124999999,mp-1018177,0,0.0
YSc3N4,0.0071,-1.966290174375,mp-1215918,0,0.0
Na2Ni2F2S2O12H8,4.455021,,,0,7.0
U2(Al3Rh)3,0.0,-0.6614053490476121,mp-1207964,0,0.0
GdSO4F,0.2226,-2.9655924146428583,mp-16801,0,0.0
Sr5Al11TlSi13O48,3.1064,-3.248165132222222,mp-1249531,0,4.0
Sr28In11,0.0,-0.28272872034188,mp-705522,0,0.0
H2Ru4(CO)13,1.7838,-0.8907666062499999,mp-721193,0,2.0
Rb4CO6,0.426999999999999,-1.286083522272727,mp-674325,0,0.0
CrNiAs,0.0,-0.212535562499998,mp-4989,0,0.0
HoLuTl2,0.0,-0.282972897083333,mp-973069,0,0.0
LaAg(PO3)4,3.7647999999999993,-2.728553837374338,mp-558465,0,6.0
LiSm(CuP)2,0.0,-0.7995634929365071,mp-973019,0,0.0
U(SiPt)2,0.0,-0.7479800819999951,mp-21101,0,0.0
Y2AlHg,0.1492,2.004576872083333,mp-1093546,0,0.0
Bi(BO2)3,3.858599999999999,-2.58729035375,mp-554718,0,6.0
Na2AlZnF7,4.8226,-3.227245769204545,mp-559982,0,7.0
K2Zn2(SO4)3,4.4939,-2.023256349052632,mp-6115,0,7.0
NaIO4,1.8841,-1.090923314396552,mp-27401,0,3.0
Li2CaGe,0.1008,-0.422755445416666,mp-865986,0,0.0
RbHS,3.0844,-0.93314142875,mp-696804,0,4.0
Na9Ca2Ta10Si9(PO8)9,3.027199999999999,-3.068303103761558,mp-2713075,0,4.0
AsS4N5F6,2.5059,-0.8535464760937491,mp-560180,0,3.0
Ba4Bi(PbO4)3,0.0,-2.151019652499999,mp-1228450,0,0.0
Se8O24,2.417204,,,0,3.0
DyNiGe,0.0,-0.79327706722222,mp-1102455,0,0.0
Sm3Ni3Bi4,0.0,-0.577002773000001,mp-1209049,0,0.0
Na3YSi3(HO2)6,4.9797,-2.446149798865517,mp-1210458,0,7.0
Dy4(SiS4)3,2.4083,-1.605575129407893,mp-10771,0,3.0
CaAg3,0.0,-0.164038766249998,mp-1183511,0,0.0
Ga3Tc,0.0,-0.060788612499999,mp-1183998,0,0.0
SrLaCuSbO6,0.368299999999999,-2.527859491000001,mp-1218225,0,0.0
Cu2SO4,1.436399999999999,-1.269847122499999,mp-28491,0,2.0
NdO2,3.4112,-3.159657924166664,mp-31049,0,5.0
Ca6HfO8,4.1479,-3.475491640666666,mp-755421,0,6.0
Rb16Sn16,0.6899689999999999,,,0,1.0
Bi4Sc4O12,2.694142,,,0,4.0
Cs7(InAs2)3,0.347699999999999,-0.302651043911638,mp-1203378,0,0.0
In2Pb4I10,1.85773,,,0,2.0
Na5La3Sn(PO4)6,2.245,-2.919835963369754,mp-2713188,0,3.0
Dy4Sb3,0.0,-1.065414672380946,mp-1927,0,0.0
RbGd(PO3)4,3.4649,-2.911017439642857,mp-561138,0,5.0
NaNbGe3(PO4)6,2.7907,-2.5546585584067563,mp-2713906,0,4.0
BaCaPb,0.2152,-0.5910742266666641,mp-1102214,0,0.0
LiPPd2,0.2112,1.468307408005953,mp-1095728,0,0.0
LiCaF3,6.5153,-3.6214914873333313,mp-1017626,0,7.0
Ti2Nb2Ni2C,0.0,-0.434528113095238,mp-1217366,0,0.0
TbNiSn,0.0,-0.669246038055553,mp-22299,0,0.0
TmBi,0.0,-0.9863939075000012,mp-23234,0,0.0
Li4Mn2Br8,3.779299,,,0,6.0
NaLaHf2O6,2.5748,-3.59259004263793,mp-1518369,0,4.0
SiH8(CI)4,3.3496,-0.125446876985295,mp-1205230,0,5.0
Cu4Na4O4,1.687805,,,0,2.0
CsH7O4,4.7523,-1.376566679867097,mp-28204,0,7.0
Rb2AlAuCl6,0.8409000000000001,-1.724260328499999,mp-1111467,0,1.0