formula,bg,formation_energy,mp-id,fidelity,bg_category
HoBi3,0.0,-0.420992946250002,mp-1184746,0,0.0
AuO2F,0.9596,-0.518941835,mp-997027,0,1.0
TlPO4,0.7150999999999991,-2.058387272162699,mp-13676,0,1.0
U(PdS2)2,0.0,-1.001355698214289,mp-22119,0,0.0
Ga2Mn1Se4,1.466614,,,0,2.0
CeCu6(PO7)3,0.0,-1.112080918352534,mp-1196371,0,0.0
Tm(Fe5Mo)2,0.0,-0.015876594615384,mp-1216935,0,0.0
Tl2TeH6SeO10,3.1641,-1.268327897158855,mp-1196566,0,5.0
Ce5CuSn3,0.0,-0.476324968888886,mp-1190264,0,0.0
ScCo3B2,0.0,-0.533771542222221,mp-4938,0,0.0
Tc,0.0,0.0,mp-113,0,0.0
Mn2Al4O8,3.223252,,,0,5.0
Ca2YAs(WO6)2,3.691899999999999,-2.767006752916666,mp-17019,0,5.0
UC,0.0,-0.255453932499996,mp-2489,0,0.0
CuH6C2SeI,2.468099999999999,-0.217414212485795,mp-1202646,0,3.0
Ca3Ga4O9,2.639299999999999,-2.738889307395833,mp-29226,0,4.0
TaZn2SnO6,0.0,-2.193625756233332,mp-1368521,0,0.0
Li3Ni,0.0,0.093283324999999,mp-1185204,0,0.0
Si4Al2O14Li2H1,0.438706,,,0,0.0
ErAlGe,0.0,-0.6400691416666651,mp-1024985,0,0.0
KAc3,0.0,0.334203422374997,mp-1185032,0,0.0
LaRe2Ag,0.0,0.6918312399999991,mp-631674,0,0.0
Li2S2O7,5.7164,-2.095934573560605,mp-1020013,0,7.0
Li8P56,1.628892,,,0,2.0
Na5Te2H36AuO28,2.4843,-1.361955597711525,mp-723082,0,3.0
KBi(PS3)2,2.2272,-0.81036056915357,mp-557437,0,3.0
Rb2MgV2(CuS2)4,0.0,-1.010786007058823,mp-2229476,0,0.0
Ba7Al4Sb9,0.0,-0.866964005000002,mp-1195461,0,0.0
ZrVMo,0.0,-0.106178043333332,mp-1215168,0,0.0
Ni3N,0.0,0.014724856562498,mp-2033,0,0.0
Sr2LiAl,0.029499999999999,1.395228914074074,mp-1097457,0,0.0
Hf5CuSb3,0.0,-0.544096777222217,mp-1105851,0,0.0
YAlAu,0.0,-0.896976113333333,mp-1102840,0,0.0
Ti4MnBi2,0.0,-0.267303283037766,mp-569743,0,0.0
HoNp3,0.0,0.6581419659375031,mp-1184931,0,0.0
Lu4CdPd,0.0,-0.466276114444446,mp-1210768,0,0.0
K4In9Si14,0.0,0.139079932444444,mp-1225988,0,0.0
SmAl7Au3,0.0,-0.5201712418181801,mp-16626,0,0.0
ThU8O18,0.0,-3.805169894074069,mp-760467,0,0.0
LiCu(PO3)4,0.6922,-2.342573588716932,mp-26262,0,1.0
Ce(ErS2)3,0.0,-2.368986080499998,mp-1189064,0,0.0
PrZnSn,0.0,-0.641104982222222,mp-22293,0,0.0
KPrTe4,0.176299999999999,-1.140553131736112,mp-11132,0,0.0
LaTm(Ge2Ir)2,0.0,-0.826296030625002,mp-16965,0,0.0
Mn3CdTe4,0.1766,-0.5696872495285521,mp-1221743,0,0.0
Ba3(BrO)2,2.5698,-2.751662989285714,mp-752648,0,4.0
Mg5Si9,0.0,0.161852478571428,mp-1075664,0,0.0
Rb2InBiCl6,1.691599999999999,-1.718065487166666,mp-1114071,0,2.0
La(ErSe2)2,0.0,-2.100705517559516,mp-1223286,0,0.0
K3Cu2P4HO14,0.3251,-2.3181469421488092,mp-695887,0,0.0
Cs3Mo2N5,1.5542,-0.5493501163965531,mp-1247239,0,2.0
Ge2Cu4O8,0.990732,,,0,1.0
Si2H6O,5.2626,-0.606059016388888,mp-27949,0,7.0
Nd2US5,0.0,-2.204897187382808,mp-1200551,0,0.0
Cs2AlTlH6,1.136199999999999,-0.206254971014368,mp-989575,0,1.0
Sr4Cr4O16,2.846846,,,0,4.0
Mg15C,0.0,0.27725512953125,mp-1023497,0,0.0
Na5TbO6,0.0,-1.732455944463601,mp-1210242,0,0.0
LaB2O4F,4.9384,-3.405545940572916,mp-1198007,0,7.0
Mo15Pb2Se19,0.018799999999999,-0.55467274908854,mp-1200386,0,0.0
SbH3NF6,4.6965,-1.940633199659091,mp-1195631,0,7.0
AgH12C4S2N5O3,2.8994,-0.423450542746914,mp-1196463,0,4.0
K2Te2Li2,2.414272,,,0,3.0
Y6Zr22O53,0.010799999999999,-3.73846863388889,mp-530787,0,0.0
K2H6PbO6,2.1354,-1.4505196888,mp-643801,0,3.0
YMg6Sn,0.0,-0.088227723124999,mp-1022844,0,0.0
Sr8Fe4O12F4,2.475787,,,0,3.0
RbInI3,0.0,-1.098630018833333,mp-1114161,0,0.0
Er3CrB7,0.0,-0.6922952075000001,mp-14503,0,0.0
MnAg2SnSe4,0.0,-0.52828406320492,mp-1210929,0,0.0
RbSnS2,0.0,-0.916330831874998,mp-999267,0,0.0
Sm(MnSn)6,0.0,-0.133014147891248,mp-1104709,0,0.0
PH8N3O2,4.6915,-0.9396968097959172,mp-697683,0,7.0
LaHg2,0.0,-0.577605156666673,mp-11463,0,0.0
Na3SNO8,0.6752,-1.547484645510609,mp-1194422,0,1.0
Ge4As12Na20,0.5026200000000001,,,0,0.0
Rb4Cu2Cl8O4H8,1.551212,,,0,2.0
ScGeRh,0.0,-0.992314130555554,mp-1095247,0,0.0
CsMg(BrO2)3,0.0078,-0.8255355017868341,mp-1191129,0,0.0
In4Cd4Br12,2.219074,,,0,3.0
CaNi5H,0.0,-0.143557228749999,mp-1078093,0,0.0
NaEuCl4,0.0,-2.238086135229887,mp-1210621,0,0.0
KLiZnO2,2.258,-1.809552719116666,mp-551092,0,3.0
SrCaYNbO6,2.8753,-3.322495085999999,mp-1519736,0,4.0
CdC,0.0,1.99010832125,mp-1006887,0,0.0
LiEuO2,0.0,-2.7441637020833363,mp-1019724,0,0.0
Si2Ge5N6,0.7609,-0.166702989551282,mp-1247486,0,1.0
EuBrCl,0.8183,-2.58214548166667,mp-1212756,0,1.0
LiScAg2,0.0,1.462386410364581,mp-1097460,0,0.0
Mg2Ta10Si9(SO8)9,1.3602,-2.759843269321895,mp-2713808,0,2.0
Ag12Au4Te8,0.1167779999999999,,,0,0.0
Y3Si3Pd2,0.0,-0.9494656849999992,mp-14244,0,0.0
MnSn4H24C8(Se5N)2,0.9195,-0.322333521252419,mp-1199595,0,1.0
UGaRh,0.0,-0.5430467302777781,mp-1078870,0,0.0
In2Te8K12Cl2,2.029843,,,0,3.0
LaB5IO11,1.2036,-2.609748445046296,mp-1205267,0,1.0
Tm3Th,0.0,0.031585173749995,mp-1187682,0,0.0
Tb2SO2,2.9772000000000003,-3.575732090166665,mp-12668,0,4.0
PaTlO3,2.6427,-3.167280823666671,mp-862832,0,4.0
Ba3Ag2,0.0,-0.224837397999999,mp-12612,0,0.0
Li(CuO2)2,0.0,-1.092193814761904,mp-25385,0,0.0
Rb4PbBr6,3.901099999999999,-1.843945469090908,mp-28564,0,6.0
Mn3W3C,0.0,-0.029914947278322,mp-15813,0,0.0
Tb2(Ga3Ir)3,0.0,-0.6778690993452351,mp-1208535,0,0.0
ThIrOs,0.0,-0.607858504999995,mp-1217331,0,0.0
Co4SnN4,0.0,0.149254004444443,mp-1245654,0,0.0
K2GaAuBr6,0.0,-1.269336524199999,mp-1112070,0,0.0
MgSi3,0.0,0.366541271249999,mp-1185967,0,0.0
MnSbSe2I,0.535199999999999,-0.613411129523706,mp-570268,0,0.0
C15Br7,1.2164,0.12402941806818,mp-1214506,0,1.0
Nb4Zn4Mn2O16,2.655119,,,0,4.0
Te7IrBr7,1.307,-0.564235489444444,mp-1193453,0,2.0
Ba2Ca7I18,3.3846,-1.856966079629629,mp-766303,0,5.0
Pd(SN)4,0.829499999999999,0.486358372291666,mp-1200143,0,1.0
Sr3Co3N5,0.0,-0.459070965909093,mp-1247212,0,0.0
Ba12Si4S20,2.806552,,,0,4.0
Ag(W3Br7)2,0.0,-0.8251726423412681,mp-29717,0,0.0
Ti2CrSi6,0.0,-0.40594569037037,mp-1217112,0,0.0
Ti3S4,0.0,-1.607071132857142,mp-1217101,0,0.0
FeCu6(SnS4)2,0.0,-0.441517136470587,mp-1105236,0,0.0
Cs3LiBr4,4.035,-1.951493565912356,mp-1189357,0,6.0
Sr10As6H2,0.6662750000000001,,,0,1.0
Gd3Pt,0.0,-0.6772916000000001,mp-1106170,0,0.0
PH4Br,3.9898,-0.369093825773809,mp-27689,0,6.0
LaNb2ClO6,2.5637,-3.20632168175,mp-554475,0,4.0
P4S16K12,2.824055,,,0,4.0
In2Ag,0.0,-0.050005156666661,mp-19974,0,0.0
Cd(In2I3)2,1.5341999999999991,-0.6918262328787871,mp-616218,0,2.0
Pu2ReB6,0.0,-0.359075863958341,mp-1201365,0,0.0
Be2CuRh,0.0,-0.422358172499999,mp-865308,0,0.0
Ba3SmIr2O9,0.0,-2.502996392666668,mp-1205402,0,0.0
Sm(IO3)3,3.6185,-1.473197720192309,mp-558007,0,5.0
Pm3Th,0.0,0.073014674374995,mp-1186545,0,0.0
Ti3CuS6,0.0,-1.486523869083332,mp-686094,0,0.0
Na4Sc2Si(PO6)2,4.388,-3.036050016816014,mp-2714473,0,6.0
K2Hg7,0.0,-0.237695974444445,mp-31473,0,0.0
Mo2Rh,0.0,-0.05931459333333,mp-1221484,0,0.0
Dy4CoB13,0.0,-0.468346132268517,mp-1200694,0,0.0
Tb2Si3Rh,0.0,-0.901135899722222,mp-17036,0,0.0
I4Sb4Cl32,1.507405,,,0,2.0
Na7La2Ti2Si3(PO8)3,2.5122,-3.001826864315051,mp-2714686,0,4.0
Dy3AlNi8,0.0,-0.497598409583331,mp-1192283,0,0.0
In4GeSb2Te,9.999999999976696e-05,-0.216603896041665,mp-1223874,0,0.0
Tb3Bi,0.0,-0.439313702916663,mp-1187275,0,0.0
Rb2Cu3(P2O7)2,0.607,-2.2359671899378872,mp-1198918,0,0.0
SrCaAg2,0.004599999999999,1.097094547687504,mp-1095901,0,0.0
TbFe5P3,0.0,-0.733678798399469,mp-1203752,0,0.0
Li3SmBi2,0.0,-0.8249558166666681,mp-1018780,0,0.0
Ba10Y5(Cu5O11)3,0.0,-2.193309195,mp-1229106,0,0.0
Tl4I16Ga4,2.513702,,,0,4.0
Na3Hf2Ta2Si3(PO8)3,3.7595,-3.184716888001797,mp-2712969,0,5.0
K2Mg2Sb2,1.230784,,,0,1.0
HfMg3O4,0.0,-2.629010076874999,mp-1099258,0,0.0
NaTa3ZnSi3(SO8)3,1.610599999999999,-2.638265824739409,mp-2714020,0,2.0
Na24Ta2Zn10Si9(SO8)9,2.5298,-2.326870136946588,mp-2715037,0,4.0
Bi3IrO2,0.0,-0.755456932500001,mp-1191283,0,0.0
InSn3Se4,0.0,-0.433629178281247,mp-1223673,0,0.0
RbTm(PO3)4,5.4711,-2.92147121561508,mp-541168,0,7.0
Sr6Cu3N5,0.4772,-0.6192317234821441,mp-29136,0,0.0
Gd2(FeB)7,0.0,-0.478498893229165,mp-680207,0,0.0
Tb5SbPd2,0.0,-0.761018437916665,mp-1208413,0,0.0
Sb8S12,1.270128,,,0,2.0
PrNdCo14B,0.0,-0.089577413284313,mp-1219868,0,0.0
TiNbSbO6,2.2347,-2.831692349259259,mp-1216833,0,3.0
CsNaNbOF5,4.3489,-3.2641850706704982,mp-1213599,0,6.0
TaTiN2,0.0,-1.527232698708338,mp-1217914,0,0.0
TmZrSb,0.0,-0.8829349900000001,mp-567807,0,0.0
RbNa2C,0.0,1.339414796185345,mp-1209600,0,0.0
Na3NbSi3GeO12,2.9431000000000003,-2.773393099831897,mp-2715378,0,4.0
RbBiF4,2.8776,-2.8141357929166673,mp-615746,0,4.0
Ba4K4Mn4O16,1.742676,,,0,2.0
Ac2NiGe,0.0,-0.343780956250007,mp-983587,0,0.0
Na5Sc(C2O7)2,0.4464,-1.931861565704023,mp-1201367,0,0.0
Lu15C19,0.0,-0.368247867794118,mp-1203650,0,0.0
HoB12,0.0,-0.265092979615384,mp-1104585,0,0.0
C6I3N4,0.0,1.499832043846152,mp-1203084,0,0.0
Tm3(GeRh)2,0.0,-0.937150762857145,mp-1208062,0,0.0
Ta7Co6,0.0,-0.234984563948718,mp-1104548,0,0.0
Os5(CO)16,1.991,-0.9244491112612612,mp-680248,0,3.0
Ca2Nb4Si3(SO6)6,1.6964,-2.522717230098039,mp-2713449,0,2.0
Rb3LuF6,5.977399999999999,-3.576023184916667,mp-1206967,0,7.0
La3IrBr3,0.0,-1.7604754785714292,mp-1192721,0,0.0
NaVCu3Se4,0.0,-0.700609850083811,mp-1180113,0,0.0
Np2Re3Si5,0.0,-0.32339999625,mp-1202868,0,0.0
MnBe12,0.0,-0.062953709071618,mp-1104792,0,0.0
MgTe4MoW3(SeS)2,0.0,-0.587524522411857,mp-2220021,0,0.0
Na3HfAlSi2SO12,4.1007,-2.857070811831896,mp-2714534,0,6.0
In2Si(AgSe3)2,0.476,-0.673044789157196,mp-640614,0,0.0
CaGe(SO4)3,1.4752,-2.062027979068627,mp-2714009,0,2.0
Y3RuI3,0.0,-1.146324451428571,mp-28747,0,0.0
Ho2CdCu2,0.0,-0.285036956999995,mp-1205581,0,0.0
Cu2Mo3Se4,0.0,-0.424669818472223,mp-571054,0,0.0
NdRhO3,0.6487,-2.495162424000007,mp-4582,0,1.0
Na2Sr7Al6F34,6.957199999999999,-3.9737082610767063,mp-555865,0,7.0
U3Ag2(GeO8)2,0.0118,-2.128331237753621,mp-1199576,0,0.0
SmInPd,0.0,-0.8900487922222231,mp-982004,0,0.0
HfZrRh2,0.0,2.489131286778843,mp-1097082,0,0.0
Np2C3,0.0,0.042244460000006,mp-1188564,0,0.0
AgIO3,2.4375,-0.713068665333332,mp-27384,0,3.0
Li11Ta37N48,0.0,-1.340301417670142,mp-685440,0,0.0
CeZr2F11,0.3153,-4.123051020357143,mp-1213767,0,0.0
Tb(AlC)3,0.0,-0.438241629285713,mp-972049,0,0.0
PrOF,4.437099999999999,-4.12563557388889,mp-769173,0,7.0
Ba(Si3N4)2,3.2602,-1.313510195333333,mp-567771,0,5.0
Be4InCu,0.0,0.171065972222222,mp-1227318,0,0.0
LiHo2O3,0.0,-3.152198239722219,mp-1235976,0,0.0
Sr2SmBiO6,1.8088,-2.811095234000001,mp-1208755,0,2.0
MgTi4Cd2O10,0.0,-2.805521550490195,mp-2229747,0,0.0
CaMg14Ga,0.0,0.0023265976562499,mp-1028139,0,0.0
V4O10Li2,0.355767,,,0,0.0
NaLaHg2,0.0,-0.467993412500007,mp-865099,0,0.0
BeTe,2.017299999999999,-0.570361940833332,mp-252,0,3.0
Tl12As4S16,1.460647,,,0,2.0
LaMg(BO2)5,4.7555,-3.11262242490196,mp-557758,0,7.0
CrGeTe3,0.0,-0.419505622000001,mp-541449,0,0.0
Ba2AlBi3O8,0.0,-1.843993282857143,mp-1042329,0,0.0
PrInPt,0.0,-0.9285065305555552,mp-1206016,0,0.0
In3Ga3N5,0.0,-0.047196825340912,mp-1246740,0,0.0
ZnGa2(TeO3)4,3.5765,-1.755740536140351,mp-1215782,0,5.0
NdGe2Pd,0.0,-0.7851898568749991,mp-1079203,0,0.0
KPrHfSnO6,3.366699999999999,-2.982058603391665,mp-1518396,0,5.0
Nd4Cu3Ni,0.0,-0.220736813749999,mp-1220196,0,0.0
Al2HgO4,1.346099999999999,-2.5423616575,mp-756317,0,2.0
SrPS3,3.1224,-1.3090447822827371,mp-9788,0,4.0
Ba(TbTe2)2,1.2848,-1.786948157142854,mp-17153,0,2.0
SmIn5Rh,0.0,-0.428525411190471,mp-1206468,0,0.0
TbInAu,0.0,-0.741065467777777,mp-22718,0,0.0
BeAgO3,0.0,-0.777852184333333,mp-1183417,0,0.0
Sr2GaReO6,0.0,-2.5935740039999993,mp-1206618,0,0.0
CrGeN2,0.0,-0.119095993749999,mp-1246695,0,0.0
Ru2Te18In4Cl16,1.191489,,,0,1.0
LiPrPCO7,0.3297,-2.612315641331168,mp-768250,0,0.0
Fe2C4O12H8,2.297615,,,0,3.0
NdZn(BO2)5,5.162999999999999,-2.920638476960784,mp-15519,0,7.0
NaNbGeO5,3.0795999999999992,-2.578586651109914,mp-17164,0,4.0
K5Se3,0.4286,-1.191292482910155,mp-755633,0,0.0
YHo3,0.0,0.015036158750003,mp-1187851,0,0.0
RbEr3O6,0.114899999999999,0.09504380725,mp-1207372,0,0.0
MgCuPb,0.0,-0.009511431666665,mp-1207094,0,0.0
MnNb2Cr,0.1705,3.826042715129308,mp-1095969,0,0.0
Cs2PdCl6,1.3617,-1.368716757222222,mp-1206568,0,2.0
Rb3Sb2Br9,1.876948,,,0,2.0
Na3Re,0.0,1.299978233836206,mp-984106,0,0.0
Be2PdRu,0.0,2.5662187175,mp-1097702,0,0.0
Tl8Nb4Se22,0.011377,,,0,0.0
La2CN3Cl,1.8792,-1.628443926428573,mp-567756,0,2.0
LiTb6B3O14,4.7094000000000005,-3.592606311284721,mp-1211079,0,7.0
HfMnN2,0.0,-1.212035098464447,mp-1246936,0,0.0
Th3U,0.0,0.244764972499993,mp-979114,0,0.0
NaH3C2O5,3.1827,-1.536797452739028,mp-696174,0,5.0
RbMg14AlO16,0.6901,-2.8193062855468742,mp-1036574,0,1.0
CsH18RuN6(ClO2)4,0.0,-0.652767457688294,mp-24110,0,0.0
Eu3(AsPd)4,0.0,-0.9303339168181832,mp-612175,0,0.0
ScTiP(SO6)2,2.142,-2.667110493704482,mp-2712939,0,3.0
Er(GaFe)6,0.0,-0.323458295,mp-1104959,0,0.0
NbCu3(PO4)4,0.0,-2.196926841190476,mp-772046,0,0.0
Sr4P2O,1.2134,-1.633793929183673,mp-8298,0,1.0
AcYbMg2,0.0,-0.042261125624996,mp-979950,0,0.0
Ba8Ta7O24,0.0,-3.344112180290599,mp-773073,0,0.0
CeCoSb2,0.0,-0.731608126249999,mp-1079392,0,0.0
Cs4S4O12N4H8,5.237095,,,0,7.0
KTm2Cl7,4.7734,-2.484546533125001,mp-1211484,0,7.0
Na2Si(H5O4)2,4.6022,-1.682647241440886,mp-707840,0,7.0
Ti2AlW,0.0,-0.262540418333333,mp-1187418,0,0.0
Zr6I24,1.77395,,,0,2.0
Pu3Np,0.0,0.204635862812494,mp-1186856,0,0.0
K2Ga2Sb3,1.1651,-0.429740458321426,mp-15433,0,1.0
Y5Mg13Cu5,0.0,-0.140985734347825,mp-568046,0,0.0
SrLa3MgAlO8,2.8049,-3.568084551428572,mp-1218241,0,4.0
KRb2InBr6,2.3739,-1.696922905891666,mp-1114122,0,3.0
Na7Sc2Ti2Si3(PO8)3,2.6256,-3.02236422821749,mp-2714906,0,4.0
Ba3NdIr2O9,0.0,-2.481080116833333,mp-1214535,0,0.0
Pr2Mn3Cu9As7,0.0,-0.300424387601259,mp-1191920,0,0.0
Hg5(ClO2)2,0.186199999999999,-0.752103948409092,mp-23358,0,0.0
ErGa5Co,0.0,-0.463273503928572,mp-1025225,0,0.0
Yb3SnC,0.0,1.5011902710000011,mp-22263,0,0.0
Ir1In7Ge1O8,0.422346,,,0,0.0
Sb5(PO4)6,0.3398,-2.274785141367346,mp-1101576,0,0.0
NaCaTa3Si3(SO8)3,1.4136,-2.750491573882266,mp-2713867,0,2.0
Ba5Mg18Si13,0.0,-0.242607069999976,mp-5080,0,0.0
Ba2ErRuO6,0.0716,-2.865575251999999,mp-6621,0,0.0
TcGe2Rh,0.0,2.288420667919119,mp-1097483,0,0.0
BaCaLaBiO6,1.950399999999999,-2.779050502500001,mp-1519241,0,3.0
BaPr2Ti3O10,1.947299999999999,-3.6416203386458337,mp-557074,0,3.0
NaNb3AlSiP5O24,2.2127,-2.940273098797913,mp-2715624,0,3.0
Ti24Ga5S48,0.0,-1.553847466396103,mp-686174,0,0.0
Sr4Pt4PbO11,0.533899999999999,-1.963278883749999,mp-556331,0,0.0
Cs3LiCl4,4.8732,-2.084680364583336,mp-606711,0,7.0
Mn(Mo3Se4)2,0.0,-0.565261330660924,mp-1105059,0,0.0
KBa2Bi2O9,0.0,-1.623980116589287,mp-1223544,0,0.0
Cr3Te4,0.0,-0.428506770952381,mp-1078012,0,0.0
HoBPd3,0.0,-0.6954327271881591,mp-3693,0,0.0
As1B1,1.193382,,,0,1.0
Hf3(VGa2)2,0.0,-0.414205644305554,mp-1200384,0,0.0
LiMgSb,1.4438,-0.616211496111109,mp-1207082,0,2.0
CsLiMg6,0.0,0.284446579841954,mp-1021289,0,0.0
YTiPd2,0.0,1.876435802083332,mp-1093880,0,0.0
Tl4I8Zn2,2.921883,,,0,4.0
K2PtN3(ClO2)3,2.7133000000000003,-1.191520107633333,mp-558532,0,4.0
NdPt5,0.0,-0.6934569879166661,mp-2359,0,0.0
In3Ni,0.0,0.195281764166662,mp-1184929,0,0.0
Zr2CuSiP2,0.0,0.444480930119047,mp-1207455,0,0.0
Mg6CdGa,0.0,-0.020174464687499,mp-1017037,0,0.0
Be2OsPt,0.0,2.9313319050000013,mp-1096368,0,0.0
CeBPd3,0.0,-0.503660158833332,mp-19948,0,0.0
UCu2Sn,0.0,0.192598958750002,mp-1080074,0,0.0
Hf2U,0.0,0.356737243333327,mp-1207072,0,0.0
Gd3Ag,0.0,0.002433807500004,mp-1185588,0,0.0
Nd(ZnGa)2,0.0,-0.4679856845,mp-1220338,0,0.0
SbCNCl8,0.0,-0.187335472559969,mp-726503,0,0.0
TiAs3,0.0,-0.092094971666664,mp-1187559,0,0.0
Ba3P2,0.250799999999999,-0.981139580857144,mp-32606,0,0.0
TeF6,4.3975,-2.162264906071428,mp-1875,0,7.0
Eu11(ZnAs2)6,0.0,-0.8803597787931061,mp-1194247,0,0.0
PrP3(HO2)6,5.1934000000000005,-2.262862091958874,mp-556063,0,7.0
C2SNOF,3.8048,-0.8077488618750001,mp-1198997,0,6.0
BaSrCeTiO6,2.1393,-3.519273123833334,mp-1522308,0,3.0
ZrTi2Ni9,0.0,-0.456163748888888,mp-1215266,0,0.0
NbPt3,0.0,-0.707492294375001,mp-12700,0,0.0
Li2CdGeO4,2.455,-2.113450307708333,mp-7688,0,3.0
Hg15(As2Cl3)4,1.3083,-0.415759584714286,mp-1224429,0,2.0
MgP4H24(NO)8,1.3072,-0.953635589190476,mp-1234393,0,2.0
SrCa3Al8(SiO5)8,0.026899999999999,-2.712969184166668,mp-1218635,0,0.0
HoSnRu2,0.0,-0.371573894999998,mp-1184856,0,0.0
K2Ag2SnSe4,0.8472000000000001,-0.8404800391342581,mp-570887,0,1.0
CaTlF3,4.4565,-3.263874733000008,mp-1097061,0,7.0
Cs3LaI6,3.056,-1.7953177013965511,mp-1188821,0,4.0
ZnSO4,3.823299999999999,-1.8630929675,mp-5126,0,6.0
K2AlAgBr6,1.4617,-1.491518860616665,mp-1112104,0,2.0
PuC2,0.0,-0.191335964583331,mp-1206675,0,0.0
Te2MoW3(Se2S)2,0.0,-0.439527650989584,mp-1028525,0,0.0
Rb4Cu1Si2O7,1.549032,,,0,2.0
Eu3Ho,0.0,0.082721212499997,mp-1184407,0,0.0
MgBi2F12,1.8808,-2.332517159,mp-1210707,0,2.0
TiSi7H42C14(ClO)2,2.4531,-0.374376119938725,mp-1202315,0,3.0
Dy4(Al8Pt3)3,0.0,-1.010103367837836,mp-1212875,0,0.0
Al3P3H7O12,2.9114,-1.7545679763071431,mp-1215156,0,4.0
U2PS,0.0,-1.315223298035711,mp-37297,0,0.0
SnIr3,0.0,0.02254852499999,mp-1187093,0,0.0
Mo3(SeS2)2,0.7782,-0.877465072152779,mp-1025925,0,1.0
Er11(In3Ge2)2,0.0,-0.6408492209523791,mp-1197179,0,0.0
La2CoSi3,0.0,-0.6212187849999941,mp-1223336,0,0.0
K2La2MgTi3O10,0.0,-3.056705966638889,mp-2233146,0,0.0
KSi5N7,3.421699999999999,-1.203135006615384,mp-1029584,0,5.0
K2PdO4,0.0,-0.968726657071428,mp-1211762,0,0.0
Lu2Cl2Mo2O8,2.737783,,,0,4.0
Tl2ZnH12(SO7)2,4.706799999999999,-1.492503597956989,mp-1202438,0,7.0
Tl4O8C4,2.41535,,,0,3.0
Na3Os,0.0,1.129059632586205,mp-1186064,0,0.0
TeH14C2(NO2)4,2.8115,-0.977190535833332,mp-758675,0,4.0
Zr2FeTc,0.0,-0.278902363749999,mp-1187984,0,0.0
Ti3C70Cl13,0.6291,-0.081203504302325,mp-1208787,0,1.0
MgFeAg2SnS4,0.0451,-0.54197621148148,mp-2227975,0,0.0
Ga7Sb7(Te4Cl13)2,1.4002,-1.217792329809027,mp-1203106,0,2.0
NaSnRh2,0.0,2.054733895905173,mp-1096739,0,0.0
Er2MnGa3,0.0,-0.547684289516283,mp-1225658,0,0.0
Ca(PrTe2)2,1.2828,-1.7539265619047582,mp-37520,0,2.0
Mn2Fe2F10O4H8,1.851746,,,0,2.0
Th2(Mo3S4)5,0.0,-1.025613183141902,mp-686487,0,0.0
Li7MoN4,0.0231,-0.700172361215278,mp-1245805,0,0.0
Zr9FeMo4,0.0,-0.090391663214286,mp-1193832,0,0.0
Mn3(FeN2)2,0.0,-0.282660434310345,mp-1245673,0,0.0
Nd5Co19,0.0,0.090753954218752,mp-1191158,0,0.0
Rb3Co,0.0,0.857264924374999,mp-975050,0,0.0
Mg14ZnCo,0.0,0.085772069375,mp-1027994,0,0.0
CsErZnTe3,1.386499999999999,-1.296922583275861,mp-569107,0,2.0
Sr6In2NF,0.0,-0.9959248813333332,mp-989402,0,0.0
Zn5Ag4Sn3Se13N6,0.0,0.405139865737567,mp-1202600,0,0.0
K16Sn2Sb8,0.2789629999999999,,,0,0.0
Ti2ZnO5,2.8156,-2.994516180833333,mp-1042941,0,4.0
KRb2AsF6,4.5539000000000005,-2.781942948975,mp-1113892,0,7.0
Cs3ScI6,2.4426,-1.624866260396552,mp-1113076,0,3.0
Sr4ZrTi3O12,1.980999999999999,-3.5509937615,mp-1218479,0,3.0
K2LuAuCl6,2.0732,-2.002456453116666,mp-1112066,0,3.0
HfMg30CuO32,0.012399999999999,-2.948991554999999,mp-1037139,0,0.0
Ti2AgBiO6,1.412,-2.464096025833334,mp-1217194,0,2.0
Mn3(GaN2)2,0.0,-0.151671000730368,mp-1246611,0,0.0
Ta3AlB8,0.0,-0.507975304333333,mp-1217997,0,0.0
KCu(CN)2,2.6146000000000003,-0.13716972378472,mp-6802,0,4.0
Na3IO,1.6831,-1.452116121494253,mp-769398,0,2.0
BePRu2,0.0,2.830845840089285,mp-1097675,0,0.0
C7Cl5,2.072199999999999,0.051784377552084,mp-1214386,0,3.0
GaSi2As(H3C)8,3.8157,-0.208979598193714,mp-568873,0,6.0
SrAl2B2O7,4.6876999999999995,-3.264373068194444,mp-558669,0,7.0
K3Cd16,0.0,-0.116238130592104,mp-1202778,0,0.0
Ti8InCo3NiSn3,0.0,-0.157036548020833,mp-1217480,0,0.0
RbMg14Ga,0.0,0.1369756734375,mp-1026679,0,0.0
CsPr9Nb(Br5N2)3,2.328,-2.088322267801723,mp-568707,0,3.0
MnV2Mo,0.0043,4.02417949887931,mp-1097684,0,0.0
Mg6NbCO8,0.4706,-2.2056754790625,mp-1033383,0,0.0
LiTi8O13,0.0,-3.225442069318184,mp-755797,0,0.0
B8PbO15,0.0,-2.340410253993055,mp-1201012,0,0.0
KTbEuGeO6,0.0,-2.558160411391667,mp-1521042,0,0.0
NbNi3(HC)2,0.0,0.160652514687499,mp-1079801,0,0.0
Cd2AsHO5,1.5943,-1.585974287847221,mp-1198923,0,2.0
Na5Al4P5SO24,5.0197,-2.801360742246432,mp-2715004,0,7.0
Na2TiF6,4.1813,-3.493224182899106,mp-556024,0,6.0
TmB2Rh3,0.0,-0.7084284563888891,mp-1076960,0,0.0
NaNdNb2O6,0.0,-2.941559484887931,mp-1519126,0,0.0
Fe3Mo6PtN2,0.0,-0.272732145,mp-1224884,0,0.0
Li2CdSb,0.0,-0.439461564166665,mp-16271,0,0.0
Eu2MgIrO6,0.0,-2.627190519,mp-1188494,0,0.0
MgSnRh2,0.0,-0.6325345399999991,mp-866073,0,0.0
Ba3Ta1Fe3Si2O14,2.586069,,,0,4.0
Ce3Zn22,0.0,-0.250417403599999,mp-698212,0,0.0
Mg14TiMn,0.0,0.113814169920976,mp-1028110,0,0.0