formula,bg,formation_energy,mp-id,fidelity,bg_category
Cd2GaCuS4,0.0,-0.6652364282812451,mp-1226976,0,0.0
In2CuO4,0.0,-1.446523719047617,mp-20476,0,0.0
Ba12Nb4As12O4,1.048929,,,0,1.0
GeH6C2(SO3)2,5.131,-0.991121437941176,mp-1194589,0,7.0
MgCu2(IO3)4,0.2778,-0.964083374473684,mp-2230637,0,0.0
GaGe(MoS2)4,0.0,-0.598036099464285,mp-1212670,0,0.0
Sr6Pr3Cu6O17,0.0,-2.4413290265625,mp-1218599,0,0.0
HoAgGe,0.0,-0.404483169444442,mp-7093,0,0.0
K1S2Fe3O14D6,1.985737,,,0,3.0
Sc7NiBr12,0.148399999999999,-1.80831785675,mp-1190159,0,0.0
UCl2O,0.0,-2.794829883124998,mp-640563,0,0.0
Na3Hf2SiGe2P5O24,3.1494,-2.846417664883393,mp-2713015,0,5.0
PuSn3,0.0,0.067408542812493,mp-2279,0,0.0
CrFeS4,0.0,-0.5487344591666651,mp-1226336,0,0.0
Se2Pd2O6,1.006276,,,0,1.0
MnZn(GaSe2)4,0.9038,-0.8720408069057881,mp-1221562,0,1.0
Ba2PrBiO6,1.759999999999999,-2.746031445166667,mp-1214573,0,2.0
Mg9Si4(HO9)2,5.0615,-3.023366194469697,mp-1222597,0,7.0
La2Hf2O7,4.2879,-4.042177013636373,mp-12533,0,6.0
Ru4Cd4O14,0.0,,,0,0.0
TiGeRu2,0.0,-0.764102924166667,mp-865640,0,0.0
K2LiTi2(AsO5)2,0.0,-2.462361621735294,mp-772826,0,0.0
Na(SiO4)2,0.0,-1.417546497398118,mp-727389,0,0.0
La3As2ClO7,3.154099999999999,-3.074482101153847,mp-555073,0,5.0
Ce3Si11Pt23,0.0,-0.876291151351349,mp-568452,0,0.0
TbSi2,0.0,-0.584975848333336,mp-1077398,0,0.0
K3Cu2P4O14H1,1.720319,,,0,2.0
ScNbTc2,0.0,-0.25523869875,mp-867795,0,0.0
BaZnO2,2.2724,-2.3654240366666652,mp-4236,0,3.0
Cs2MoSe4,1.224,-1.135338229812192,mp-866654,0,1.0
Li6Sn5(P2O7)4,2.6782,-2.45773508855623,mp-765227,0,4.0
Al5Se8,0.0,-0.926900271087742,mp-1228165,0,0.0
CsVN2,0.5028,-0.9516149918749992,mp-1029293,0,0.0
BrNO3,2.208,-0.5361104965000001,mp-29526,0,3.0
BaSbPt,0.0,-0.940368766666667,mp-8606,0,0.0
Lu2Zn17,0.0,-0.235398627807016,mp-30715,0,0.0
SrNd2BeO5,3.8313,-3.470162010833333,mp-1218200,0,6.0
Ti(PO4)2,0.0621,-2.536294297510822,mp-1208291,0,0.0
Sr3GeO,0.3188,-1.5590189605,mp-30950,0,0.0
K5Na3Ta6Nb2O24,1.7476999999999991,-3.001785161359698,mp-1099860,0,2.0
Ba6Eu(ClF6)2,0.0,-3.965430515476189,mp-556702,0,0.0
HoAlSi,0.0,-0.66815269333333,mp-1206025,0,0.0
K3(CuO2)2,0.0,-1.363693005194443,mp-1188268,0,0.0
Rb2PbCl5,0.0,-1.7038104240624992,mp-1209718,0,0.0
Ta2Be17,0.0,-0.18140817945614,mp-1189402,0,0.0
HCO,4.3277,-0.875737294940476,mp-995234,0,6.0
Sn3Ru,0.0,0.384358504999994,mp-1187108,0,0.0
TaFeGe,0.0,-0.30702168161111,mp-1103196,0,0.0
KSbS2,1.601,-0.8528676698437501,mp-11703,0,2.0
CsRbMg30O31,1.763599999999999,-2.7350218687643673,mp-1040252,0,2.0
RbHfC(OF)4,2.193,-2.539728187954546,mp-1204072,0,3.0
LiNd2Ga,0.0,-0.338958590416666,mp-865578,0,0.0
Na4SrCaSi2,0.1322,-0.083359933275861,mp-1221144,0,0.0
Li4P5HO15,5.9352,-2.588314757911904,mp-765567,0,7.0
Mg6NiBi,0.0,0.027990123124999,mp-1021972,0,0.0
Ga(PbN)3,0.138999999999999,0.128682571607145,mp-1246316,0,0.0
NaLa(SO4)2,4.1818,-2.541620686364942,mp-557840,0,6.0
InGa(AgS2)2,0.6488,-0.588790021406248,mp-1223852,0,1.0
K4U5Te2O21,1.769,-3.029818397729165,mp-556212,0,2.0
BaTaS3,0.0,-1.7826291849666651,mp-4001,0,0.0
NaCu5S3,0.0,-0.324793824875477,mp-28317,0,0.0
Nb2TcW,0.0748,4.500806255,mp-1096606,0,0.0
TiTc,0.0,-0.518699978333334,mp-11573,0,0.0
Cu7H9(SN)4,0.7182000000000001,-0.287839268802083,mp-1229304,0,1.0
Tb3(SbPd2)4,0.0,-0.8363542176666651,mp-1208491,0,0.0
Li2ZnPd,0.0013,1.065332108333333,mp-1093569,0,0.0
LiZn2Ru,0.046399999999999,1.780826054166666,mp-1096439,0,0.0
V2FeMo,0.0,3.959849202500001,mp-1097660,0,0.0
Sb2H12Pd(CCl)4,1.477599999999999,-0.390956371630435,mp-1195625,0,2.0
LiCu2F4,0.0,-2.014070816666667,mp-752742,0,0.0
BeAlSiO5,0.424799999999999,-2.95067214125,mp-727932,0,0.0
LaAlCu4,0.0,-0.280316579166665,mp-1222898,0,0.0
CsSe4,0.9736,-0.401577691078122,mp-1201920,0,1.0
K3Ti4Si3O20,0.0,-2.421588160169444,mp-1194354,0,0.0
FeNiS2,0.0,-0.502379641249999,mp-1224903,0,0.0
Li2Ce2Si3,0.0,-0.528974603095235,mp-1210884,0,0.0
Mg2AsO5,0.714599999999999,-2.300873521562501,mp-1199509,0,1.0
Ca2Th(Si2O5)4,4.986599999999999,-3.431682531935484,mp-555528,0,7.0
Na2ZnPO12,0.0515,-0.8716559279625921,mp-1213586,0,0.0
Sr11(SiN5)2,0.0,-0.6790342548913091,mp-1246141,0,0.0
CaZr2PbO6,3.131399999999999,-3.23484439125,mp-1227884,0,4.0
U2AsN2,0.0,-1.628152047999998,mp-3583,0,0.0
La2ZnIr,0.0,-0.491481925,mp-867124,0,0.0
K2AsAuF6,0.7657,-2.230307611199999,mp-1112267,0,1.0
Te2Y1Tl1,0.622618,,,0,0.0
Nb16N9,0.0,-0.8892379790166681,mp-685050,0,0.0
SmOF,4.6648,-4.200559043333337,mp-9488,0,7.0
Na3MnN2,0.0,-0.01699443746408,mp-1245366,0,0.0
Na6MgSn7(PO4)12,2.4955,-2.551101494107976,mp-2714638,0,3.0
Ca2AgSbO6,0.535399999999999,-2.183374302666666,mp-1374044,0,0.0
Zn3Cu2(SiO4)3,0.4172,-2.048300552875,mp-1157205,0,0.0
Na27Ca3Al5(P2O7)12,4.9458,-2.789745149011677,mp-677638,0,7.0
Na2Nb5Ga3(PO4)12,1.8765,-2.773378975585328,mp-2713924,0,2.0
Ba6Ir2C6N6,0.676057,,,0,1.0
Cs4Te2S4,1.163856,,,0,1.0
Na10Mg3Sn5(PO4)12,2.4292,-2.6121192295663342,mp-2713363,0,3.0
Na4TiO4,3.3237,-2.4216694132056182,mp-14726,0,5.0
TbWC2,0.0,-0.385446593124999,mp-1190096,0,0.0
SrYCu3Se4,0.8155999999999991,-0.9901448598611112,mp-1179003,0,1.0
Li2ZnGeS4,2.1846,-1.136056408958332,mp-1210804,0,3.0
ZrMnRh2,0.0,-0.569834949482757,mp-1188022,0,0.0
CsZn4As3,0.0,-0.299692310269398,mp-1084778,0,0.0
KLi(BH4)2,6.1328,-0.474269417826389,mp-1197966,0,7.0
KC4N3,3.746299999999999,0.052166856041667,mp-574029,0,5.0
Nb6CuSe8,0.0,-0.782619534833304,mp-1220463,0,0.0
LuC2,0.0,-0.187417912222223,mp-8371,0,0.0
Sn3TePb4O13,1.3676,-1.813841691269841,mp-1219089,0,2.0
Zr5NiSb9,0.0,-0.674069954999999,mp-1192450,0,0.0
Sc2CuOs,0.0,-0.408872759999998,mp-867802,0,0.0
TiH8(OF2)3,4.3532,-2.111761136435185,mp-1217384,0,6.0
Mg16Al12Tc,0.0,0.009443006034483,mp-1185712,0,0.0
Cs12Sn2As6O,0.558,-0.509562345517242,mp-1226383,0,0.0
SrLaTl(AsO4)2,3.5498000000000003,-2.511914951025641,mp-685195,0,5.0
Sm2Ge6Pd,0.0,-0.531028572222223,mp-1207158,0,0.0
Nd2Al2Fe15,0.0,-0.035543961315788,mp-1179971,0,0.0
Li2P2H2O7,5.3519,-2.362636286291209,mp-733849,0,7.0
NaSrTbNbO6,0.0,-2.9618387498045973,mp-1521856,0,0.0
Na14Sc3Ta5(SiO4)12,3.3024,-3.07257267647533,mp-2713056,0,5.0
Ca(GdS2)2,1.4034,-2.343501229464284,mp-36358,0,2.0
TbCu2Ni3,0.0,-0.286165471111111,mp-1217570,0,0.0
Cs2GaHgBr6,0.0,-1.417699020931035,mp-1113302,0,0.0
MnTlRh2,0.0,-0.190864449454025,mp-1221548,0,0.0
Na3La2Y2P3(SO8)3,4.5247,-2.874548703889185,mp-2713897,0,7.0
CeThCN,0.0,-1.048602929329629,mp-1226550,0,0.0
Ho3(Si3Pd10)2,0.0,-0.831926794655172,mp-1212354,0,0.0
YbSmPt2,0.0,-1.288388681249998,mp-979965,0,0.0
ZrTi(NiH3)2,0.0,-0.471388325083332,mp-1215245,0,0.0
Ba2Eu(CuO2)4,0.0,-1.937123295666666,mp-1214709,0,0.0
CeAlCo4,0.0,-0.251531558333333,mp-1226649,0,0.0
Ba2LuMgNbO6,0.0,-2.84082896469697,mp-2217600,0,0.0
Rb5Ta(TlAs2)2,1.5088,-0.426723429499999,mp-570566,0,2.0
RbSr2Cl5,5.2035,-2.739873020000002,mp-1209161,0,7.0
GdSi,0.0,-0.7704727649999991,mp-601371,0,0.0
K2InSbF6,2.1143,-2.579122219116666,mp-1112181,0,3.0
LaNb3O9,1.7846,-3.244713615,mp-757457,0,2.0
Ti2FeRe,0.233299999999999,3.5247106927083323,mp-1096740,0,0.0
TbZn2,0.0,-0.446996983333335,mp-2338,0,0.0
LiThAu2,0.0,-0.6073597483333311,mp-865940,0,0.0
Nd2Ge2Ru,0.0,-0.814634345749993,mp-1206625,0,0.0
Ag3W,0.0,0.867660342500002,mp-1183177,0,0.0
Pd1K2O2,1.445556,,,0,2.0
Hf(Ni2P)2,0.0,-0.791054988707484,mp-1104541,0,0.0
Li3DySb2,0.0,-0.877165958611109,mp-1018763,0,0.0
Rb3BiSe3,1.7768000000000002,-1.143012966718751,mp-29168,0,2.0
EuTa2O6,0.0,-3.472808839685183,mp-505434,0,0.0
CsPbI3,2.5181,-1.263226744931036,mp-540839,0,4.0
CeAgAs2,0.0,-0.7764827454166651,mp-985705,0,0.0
Na2CeO3,2.294599999999999,-2.8266003417097663,mp-1221453,0,3.0
Sr2CeSbO6,0.0,-2.985677997499999,mp-1518851,0,0.0
Nb10C7,0.0,-0.540557961176469,mp-32679,0,0.0
LiCuS,1.5952,-0.90458490861111,mp-1407369,0,2.0
Rb6O,0.0,-0.51585459642857,mp-540855,0,0.0
ZrNbRu2,0.0,3.329881499583326,mp-1097587,0,0.0
K2GaSb2,1.215199999999999,-0.488991842149999,mp-30077,0,1.0
Li3Nd2(BO3)3,4.7893,-3.088789137941177,mp-15362,0,7.0
Y2Si3(SnO4)3,2.2625,-2.8608498553749993,mp-1154662,0,3.0
ThPb3,0.0,-0.3205560675,mp-21381,0,0.0
LiYb2Ga,0.0,-0.366537774166669,mp-864753,0,0.0
Na13Zr7Si5P7O48,3.7281,-3.035972955005388,mp-695390,0,5.0
Ge16Se36,1.268193,,,0,2.0
LaCeBe26,0.0,-0.141967527321428,mp-1222939,0,0.0
PrSbO4,2.2095,-2.794670680694446,mp-13194,0,3.0
Cs2K1Cu1F6,1.76346,,,0,2.0
Ce3Th3O11,0.272199999999999,-4.120083553235292,mp-754176,0,0.0
TaInBi2O7,2.322599999999999,-2.268673407181817,mp-1217945,0,3.0
Cs2LiMoCl6,1.5978,-1.7532968331666892,mp-1110989,0,2.0
Eu2B5BrO9,0.799199999999999,-2.99033144534314,mp-558834,0,1.0
NaYSiSn(SO6)2,1.1598,-2.447784405261814,mp-2712545,0,1.0
LiZn2Rh,0.0,-0.425434644166665,mp-865912,0,0.0
SrLuCuS3,1.344199999999999,-1.93318916236111,mp-13189,0,2.0
Tl1F1,2.07027,,,0,3.0
KCS2N(O2F)2,4.5234,-1.410260153386364,mp-555146,0,7.0
CeMg14Ga,0.0,0.02371401265625,mp-1026775,0,0.0
Zr4Ir,0.0,0.387596773499996,mp-1207442,0,0.0
Zr2TcOs,0.0,-0.585212774999998,mp-1188002,0,0.0
O6N10C2I2H16,2.222571,,,0,3.0
Nd2Hf2O7,4.0703,-3.98081208681819,mp-1190845,0,6.0
Na30Ta20Zn4Si33(SO48)3,2.8017000000000003,-2.956917459318573,mp-2716395,0,4.0
K2NaScCl6,3.9133,-2.240232137666674,mp-1111621,0,6.0
In3S4,0.0,-0.653458343749999,mp-556597,0,0.0
H8C2I3N,2.0068,-0.340531713392857,mp-568713,0,3.0
Fe(PdSe)2,0.0,-0.453654773937499,mp-12466,0,0.0
Cs2C4O4,2.68189,,,0,4.0
CeEr4S7,0.0,-2.313295308541664,mp-1226714,0,0.0
TaAlP2SO12,3.448299999999999,-2.773249399359945,mp-2713423,0,5.0
BH9(CO)3,5.7775,-0.7573198981510411,mp-558506,0,7.0
Na14Hf4Ti4Si11SO48,2.7982,-3.067593033131833,mp-2714456,0,4.0
Hf2Ga2SiS5O24,2.9724,-2.383101554877452,mp-2713105,0,4.0
YV2Fe10N,0.0,-0.1792076675,mp-1215812,0,0.0
Cr6Co2CuSe12,0.0,-0.6814118508630951,mp-1226097,0,0.0
K2P2PdS6,1.242099999999999,-0.954251330116882,mp-1201278,0,1.0
Tm2NiPt,0.0,-0.864475592500002,mp-1187625,0,0.0
KRbTi4(PO4)6,2.5755,-3.027754263498346,mp-1223406,0,4.0
Ni2Rb6O4,1.299347,,,0,2.0
CsTi5Se8,0.0,-1.471291201790846,mp-1105859,0,0.0
Sr3Sm,0.0,0.18267029,mp-1187166,0,0.0
InTeClO3,3.0755,-1.674929610972222,mp-557992,0,4.0
InP2Pb,0.0,0.496235549672611,mp-631312,0,0.0
MgCo4(SbS)4,0.0,-0.344775150384615,mp-2226878,0,0.0
NbMoS3,0.0,-1.182717036499998,mp-1220398,0,0.0
TbTh3,0.0,0.047040870000003,mp-1187390,0,0.0
K3NbP2O9,2.8105,-2.778276411569048,mp-554572,0,4.0
K2Pt4Se6,0.939334,,,0,1.0
MgMnCu2SnS4,0.4965,-0.644585197547891,mp-2240049,0,0.0
SrLi2Nb2O7,1.6613,-3.014817200138888,mp-557857,0,2.0
Cd6Sb5,0.0,0.394812445340908,mp-669510,0,0.0
Tc8Br32,0.929297,,,0,1.0
Te2N4Li16,2.427712,,,0,3.0
NaLi2Hg,0.0,0.649035937248564,mp-1093671,0,0.0
Sc2TcAu,0.0,-0.5072878362499981,mp-862378,0,0.0
CsFeBr4,1.0776,-1.366222624525862,mp-1213351,0,1.0
Mg3N2,1.952799999999999,-0.9422394225,mp-1559,0,3.0
BaSrPb6,0.0,-0.346758185416664,mp-1227928,0,0.0
MgPt2,0.0,-0.573020828333336,mp-1185948,0,0.0
Na2NbGa3P4(SO12)2,2.0211,-2.455141394319354,mp-2712809,0,3.0
Nb1O8N3H12,2.817382,,,0,4.0
Er3CuGeS7,1.7469,-1.705177416458331,mp-555081,0,2.0
Er3(Co2Sn)4,0.0,-0.284100371333333,mp-1213031,0,0.0
Y2PS,0.0,-2.122971735197172,mp-1216056,0,0.0
Na3LaNbSi2PO12,1.9971,-2.93115855018904,mp-2715495,0,3.0
Li6Eu5Sn9,0.0,-0.521608572000001,mp-1196198,0,0.0
TiP2,0.0,-0.852471852539681,mp-20327,0,0.0
Na2Cu(PO3)4,0.8701999999999991,-2.457761200859476,mp-557171,0,1.0
Sr2MgCuAg2(SO)2,0.0,-1.419999321333332,mp-2240507,0,0.0
K5NaS4(ClO6)2,5.1579,-2.088474174692886,mp-557645,0,7.0
CaZnO2,1.5973,-2.411118379999999,mp-1227007,0,2.0
Rb2CeO3,2.409999999999999,-2.707191813333332,mp-676666,0,3.0
Na2GaCuF7,0.0,-2.679259795478056,mp-21552,0,0.0
Pa,0.0,0.0,mp-62,0,0.0
AgN4O3,0.0,1.5572979347916651,mp-1190337,0,0.0
Tl2Mn1Sn1Te4,0.342053,,,0,0.0
SmAlPd,0.0,-0.880286700833333,mp-1102212,0,0.0
Ba10Li2Bi4O21,0.0,-2.368056011801802,mp-774832,0,0.0
BeH6(NF2)2,7.2812,-1.585742140384616,mp-707175,0,7.0
TiS4(NCl)5,1.4847,-0.459077701722222,mp-554353,0,2.0
NaAgTe5O14,0.877899999999999,-1.423405581851385,mp-1210534,0,1.0
TiCrAs,0.0,-0.584777569166666,mp-1079641,0,0.0
Nd2TlIn,0.0,-0.4321375437499999,mp-1186261,0,0.0
Zn8P16,1.392458,,,0,2.0
K2SmCuCl6,2.3789,-1.9575590557499971,mp-1112218,0,3.0
Lu11Cd45,0.0,-0.207917806755948,mp-1199571,0,0.0
K6La2Te4O18,2.634222,,,0,4.0
InAu3,0.0,-0.149090706249999,mp-569683,0,0.0
BaZn5,0.0,-0.221107078333332,mp-303,0,0.0
Li4Sn2P4H3O16,0.265,-2.319329579850163,mp-777312,0,0.0
HgRuO3,0.0,-0.8271473795000011,mp-1016851,0,0.0
Lu5Si3B,0.0,-0.6371503103703761,mp-13234,0,0.0
In2Pb3N4,0.583499999999999,0.314990149166665,mp-1246204,0,0.0
KMg6C,0.0,0.339677796253906,mp-1021350,0,0.0
CdBiS2Br,1.729499999999999,-0.8601711219999991,mp-561079,0,2.0
CaLaGaO4,3.4555,-3.223998694642857,mp-559969,0,5.0
Sr5U3O14,2.0501,-3.629398166590907,mp-29743,0,3.0
MgScCu2,0.0,1.87437018,mp-1097652,0,0.0
GeSe,0.8988,-0.451703091171873,mp-700,0,1.0
Ho(Al5Re)2,0.0,-0.349771004102563,mp-1212490,0,0.0
Ti(PbN)3,0.0,-0.148787761488088,mp-1246100,0,0.0
Ga7Te10,0.5754,-0.410190464117647,mp-18388,0,0.0
SrH2Br2O7,4.0463,-1.168909013124999,mp-24479,0,6.0
La2P3(HO2)5,4.496,-2.454081355508928,mp-1196855,0,7.0
Zr6SiI14,1.084,-1.245098149285715,mp-1207498,0,1.0
Pr5CuSe8,1.012299999999999,-1.910482484166652,mp-35031,0,1.0
Pb1As2O6,2.086387,,,0,3.0
Ce2TeO2,0.0,-3.209099825333325,mp-4873,0,0.0
InH6(ClO)3,3.715499999999999,-1.348558533397436,mp-1201210,0,5.0
YbPPt,0.0,-1.481345977658729,mp-9828,0,0.0
La10Cl18C4,1.641525,,,0,2.0
ZrTaN2,0.0,-1.528825428291668,mp-1215247,0,0.0
Hg4Cl10C2N6H12,2.500231,,,0,3.0
BaH5BrO3,4.7616,-1.692264442125,mp-642844,0,7.0
Au8F40,0.867788,,,0,1.0
NaY2Hf2P3(SO8)3,4.1691,-2.918627103746893,mp-2716546,0,6.0
CaLa2ZrO6,2.2496,-3.373393578000001,mp-1227065,0,3.0
Bi1Te1I1,1.255004,,,0,2.0
Zn3H12C9O13,3.7954,-1.065788290202704,mp-1202110,0,6.0
Nb12Cu4O32,1.132029,,,0,1.0
ScFeGe,0.0,-0.554730274444444,mp-9549,0,0.0
PrGe2Ir,0.0,-0.7877160929166661,mp-1188330,0,0.0
Zr3(Sn2Sb)2,0.0,-0.489796475,mp-1215570,0,0.0
Er20Cu6(Pb3S14)3,1.3189,-1.7569074757792191,mp-1228844,0,2.0
TbAg3H6C6(N2O)3,2.5854,-0.474909126966666,mp-23772,0,4.0
Ce2SbAu3,0.0,-0.716979846666665,mp-1226895,0,0.0
Cs4Te4Mn2S12,1.8458,,,0,2.0
Lu2AgIr,0.0,-0.692300233750001,mp-866145,0,0.0
GdSiO3,0.0,-2.882494295,mp-1184484,0,0.0
NaO5,0.0,-0.098451477729884,mp-1180210,0,0.0
Tm10S19,0.5289,-2.017769418739225,mp-1204382,0,0.0
K5In3P6Se19,1.0646,-0.796086778595101,mp-1199321,0,1.0
AlZnPd2,0.0763,1.195476845,mp-1097561,0,0.0
Cd8Te12O36,2.100856,,,0,3.0
LaC2,0.0,-0.330961655,mp-2367,0,0.0
TlBi3,0.0,0.082800169583336,mp-1187484,0,0.0
Ba2Zn3(PO3)10,4.945,-2.687640255031746,mp-555980,0,7.0
GdInCu4,0.0,-0.271171081666667,mp-1077293,0,0.0
HoCdRh2,0.0,-0.568266246249997,mp-1184739,0,0.0
Cs2PdCl4,1.839,-1.572084017142858,mp-1078085,0,2.0
PmPa,0.0,0.26362563125,mp-1186637,0,0.0
Cr4S3N2,0.0,-0.6135627680555531,mp-1246741,0,0.0
OsRh3,0.0,0.088762388750001,mp-1186377,0,0.0
AgBO3,0.0,-1.501129671166666,mp-780275,0,0.0
CdHg4(AsI2)2,0.4617,-0.40619386318182,mp-570838,0,0.0
ZnMoN2,0.0,-0.447395112500001,mp-1245674,0,0.0
MgCrInS4,1.071099999999999,-1.11681747095238,mp-1247083,0,1.0
Ce3Bi4Pt3,0.2042,-0.858599480499999,mp-1105392,0,0.0
Rb3BrO,0.3851,-1.500405602499999,mp-30055,0,0.0
NaCaHfBiO6,1.4638,-2.54767169313793,mp-1519024,0,2.0
Er4TaV7B24,0.0,-0.7386413129814801,mp-1225684,0,0.0
SrNiGe2,0.0,-0.5188153912499981,mp-13513,0,0.0
CdIrO3,0.0,-1.187265921666666,mp-2647004,0,0.0
CIF7,4.6791,-1.830134193333333,mp-29409,0,7.0
Er(CrSi)2,0.0,-0.419872512666663,mp-12082,0,0.0
Na8CaZr3Si4(PO12)2,3.7482,-3.021833622547307,mp-2715685,0,5.0
Cs4Zr3Te16,1.1555,-1.033387468055971,mp-667336,0,1.0
K2ReI6,0.222999999999999,-0.893170333,mp-30216,0,0.0
SrThF6,5.1442,-4.26680758854167,mp-1173137,0,7.0
Sr2I2O,3.2812,-2.4442030669999992,mp-551203,0,5.0
La17Al4(Si3N11)3,1.8766999999999991,-1.559799937301589,mp-866690,0,2.0
Ti2InCo,0.0,-0.071759558333333,mp-1018043,0,0.0
Na2La2Ga2SiS5O24,1.5553,-2.3616773309794072,mp-2715577,0,2.0
Ca4Y8S16,1.552636,,,0,2.0
LaTh3Ru8,0.0,-0.276725476249999,mp-1222809,0,0.0
Sm4MgNi,0.0,-0.168250105416664,mp-1208976,0,0.0
SrAlSi5N7O2,3.577199999999999,-1.7803334628125012,mp-1218436,0,5.0
Cr(InN)3,0.0,0.089334191249997,mp-1246120,0,0.0
Na2Pt1O6H6,2.655666,,,0,4.0
RbPdCl3,0.0,-1.437161573499999,mp-998173,0,0.0
Na4Zn3SiSnS5O24,2.0022,-2.046495011965366,mp-2713166,0,3.0
Pb4Cu2B4O12,1.559269,,,0,2.0
Li3CuSbO5,0.432299999999999,-1.938577124999999,mp-767395,0,0.0
K2YHgBr6,0.0,-1.728962646699999,mp-1112025,0,0.0
CaAg2,0.0,-0.281140916666667,mp-13270,0,0.0
RbPd2F5,0.0,-1.8879882734375,mp-8958,0,0.0
Na(SnAs)2,0.0,-0.243014151275862,mp-9378,0,0.0
Ca2ScNbO6,3.1457,-3.508125961499999,mp-1214125,0,5.0
K4TeP4(HO2)10,3.585699999999999,-1.998221085172771,mp-720494,0,5.0
LaYO3,4.3416000000000015,-3.8749824815,mp-10429,0,6.0
LaGePd,0.0,-0.882156273333333,mp-1222934,0,0.0
NaCa3,0.0,0.081487712499999,mp-1186132,0,0.0
Na2PbO3,1.2504,-1.678842735876432,mp-1210368,0,1.0
BaNdAgS3,1.6623,-1.865910495277778,mp-1095616,0,2.0
K3Zr,0.0,0.978084337749999,mp-1185188,0,0.0
C3N4O3,0.0,0.30573321425,mp-1198447,0,0.0
UAu2,0.0,-0.487258318333327,mp-12072,0,0.0
ErNiSn2,0.0,-0.554825608333331,mp-1196661,0,0.0
MgTiInS4,0.0,-1.32119409642857,mp-1247234,0,0.0
Na2MgTi3Si2(SO6)4,1.103899999999999,-2.611663136604406,mp-2712683,0,1.0
Rb8Te12,0.587013,,,0,0.0
Ag2Cd1I4,1.797742,,,0,2.0
Ag6HgNO11,0.0,-0.537861301184209,mp-1229201,0,0.0
Pd1S2Cl6,1.601978,,,0,2.0
Cu4GeS4,0.6528,-0.462387100694443,mp-565590,0,1.0
Lu3Mg2VS8,0.0,-1.920168357142856,mp-1246931,0,0.0
Na2MgB4(H5N)4,4.9681,-0.41849279046533,mp-1204556,0,7.0
Hg4P4O18H8,1.925094,,,0,3.0
MgGaMoS4,0.0,-0.9885923674999992,mp-1246689,0,0.0
Cs2HgSbCl6,0.0,-1.605228663181035,mp-1112902,0,0.0
Na2Sc4In4SiS11O48,1.9868,-2.299759695551313,mp-2714217,0,3.0
P4(SeO2)3,3.493,-1.641778460623283,mp-29467,0,5.0
SrYMg14O16,0.0,-2.903981942499999,mp-1035900,0,0.0
Sb6Cu1O16S2,1.144048,,,0,1.0
HoTeClO3,3.857299999999999,-2.602439169027776,mp-559805,0,6.0
Ac2CuIr,0.0,-0.342298746250001,mp-861883,0,0.0
TmCu4Ag,0.0,-0.246742937500002,mp-1025116,0,0.0
Sr11Ga4Sn3,0.0,-0.5823115708333351,mp-567959,0,0.0
Ta2As,0.0,-0.458686094333333,mp-672222,0,0.0
NbSeCl9,2.078,-0.902460145066287,mp-29968,0,3.0
YbDyZn2,0.0,-0.401091244999999,mp-1187609,0,0.0
Ce5(In2Pt)2,0.0,-0.6745358510606081,mp-670677,0,0.0
NaLaH2S2O9,4.4962,-2.29281760325862,mp-557508,0,7.0
Hg4I12K4O4H8,1.68272,,,0,2.0
LiIO3,3.7886,-1.385911869166666,mp-23384,0,6.0
CrSbS3,0.0,-0.7856886109999991,mp-9130,0,0.0
BaLa2ZnS5,1.4565,-2.150266564722222,mp-16452,0,2.0
CaAl2(SiO4)3,0.442299999999999,-2.767253435277778,mp-1214062,0,0.0
TmNiGe,0.0,-0.812686090000003,mp-21157,0,0.0
LuCuSn,0.0,-0.6299424488888881,mp-13200,0,0.0
VIn3Se4,1.2782,-0.6173359728645801,mp-1120735,0,2.0
Nd3InC,0.0,-0.473411236499998,mp-20385,0,0.0
Cs2Na3InO4,2.428599999999999,-1.613931031761493,mp-504852,0,3.0
Ca(YTe2)2,0.611499999999999,-1.713494200952382,mp-1227380,0,0.0
Co2Na4O16C8H8,3.086254,,,0,4.0
NdGaSi,0.0,-0.796210309166667,mp-1220152,0,0.0
Na2Tl,0.0,-0.137885058749998,mp-30795,0,0.0
Ag4Ge2Rb4S8,1.880788,,,0,2.0
Nd2(InSn)3,0.0,-0.48227358625,mp-1220560,0,0.0
RbSb2F7,4.2672,-2.812468973000009,mp-557260,0,6.0
K2Ca2MgH2(SO4)4,2.4694000000000003,-2.103175627111111,mp-1212031,0,3.0
ThBr4,2.6098,-2.171205707999996,mp-570229,0,4.0
Na4Mg11AlSi12(HO10)4,0.0,-2.942412127715517,mp-1221236,0,0.0
BaSr2Y2Cu2PtO10,0.5624,-2.536334781111111,mp-1227763,0,0.0
YCuAu2,0.1632,1.3142727375,mp-1097458,0,0.0
Ba12In4As12,0.53058,,,0,0.0
Ba3NaN,0.0,-0.331969978275862,mp-8868,0,0.0
CsCaO3,0.0,-1.483104438931034,mp-984240,0,0.0
TmCuPbSe3,1.1223,-1.228736204088542,mp-640324,0,1.0
Ti4GaC3,0.0,-0.8052742969791671,mp-1217125,0,0.0
SmAs3,0.0,-0.6646235356250011,mp-978502,0,0.0
Ca4Al2H22CO20,4.3173,-1.90793294739796,mp-707897,0,6.0
LaCoGe,0.0,-0.602897624999999,mp-20761,0,0.0
Zr5Ir3,0.0,-0.8586421139583341,mp-30749,0,0.0
SrZnF2,2.609,-2.727970035624999,mp-1208622,0,4.0
ZnHCO4,0.0,-1.469934481607142,mp-1007768,0,0.0
K3Nb8O21,0.0,-2.958041572242187,mp-5867,0,0.0
Sr2BN2F,2.5675,-2.023247366944444,mp-10234,0,4.0
Li2BSeO4,2.3625,-2.121287183522135,mp-770832,0,3.0
Er10In20Ni9,0.0,-0.41508497264957,mp-1199385,0,0.0
Pm2NiRh,0.0,-0.489082573749996,mp-863714,0,0.0
Nd(CoB)4,0.0,-0.392116013055556,mp-581471,0,0.0
La(FeP)2,0.0,-0.985999190857137,mp-6956,0,0.0