formula,bg,formation_energy,mp-id,fidelity,bg_category
K3SnC7O16,0.078399999999999,-1.465557357564814,mp-1196323,0,0.0
W(S2N)2,0.0,1.313390293303572,mp-728567,0,0.0
CaLuPd2,0.0,-0.811954837083334,mp-1183596,0,0.0
Hg3AsBrO4,1.8436,-1.04613586777778,mp-558945,0,2.0
Nb2F5,0.1513,-2.89589557238095,mp-466,0,0.0
Lu5Rh3,0.0,-0.8562939191666671,mp-865778,0,0.0
Bi6Cl7,1.6481,-0.74810237631411,mp-582968,0,2.0
Sr2FeH6,1.3141999999999991,-0.618383489722221,mp-1078746,0,2.0
GdCu,0.0,-0.141202164999999,mp-614455,0,0.0
Al9Ir2,0.0,-0.5658966736363621,mp-12003,0,0.0
YbSnRh2,0.0,-0.905517036249996,mp-865992,0,0.0
MgTe2O5,2.4916,-1.9416406572916671,mp-5746,0,3.0
CeCoGeH,0.0,-0.655798514062495,mp-644499,0,0.0
Tb8Cu3Te16,0.0461,-1.25144333611113,mp-1173106,0,0.0
Mg3Cr,0.0,0.28454970125,mp-978277,0,0.0
Tb3Se4,0.0,-2.056671905624999,mp-568808,0,0.0
LiAc2Si,0.0,-0.173839342083334,mp-861876,0,0.0
Na3W2N5,2.240199999999999,-0.6226133119137921,mp-1029565,0,3.0
Nd3CuSiS7,1.6357,-1.842290476666665,mp-556975,0,2.0
BaSr(PbO3)2,0.5665,-2.125177245499999,mp-1227843,0,0.0
Sr4BiO7,0.1803,-2.5109672195833332,mp-1191534,0,0.0
NpCuPO,0.0,-1.700199693348213,mp-1087496,0,0.0
Tb5Pb4,0.0,-0.5399642017592581,mp-1198033,0,0.0
Cs1Cr1P2S7,1.521968,,,0,2.0
LiBeN,2.6858,-0.9938989936111112,mp-29463,0,4.0
RbIO2,1.6879,-0.628640683125,mp-1209265,0,2.0
Li2La(NO3)5,3.7223,-1.449697932463769,mp-1211252,0,5.0
Fe14As12O48,1.365497,,,0,2.0
LiSm(SO4)2,5.4634,-2.400219252777777,mp-1210992,0,7.0
Mo(C2N3)3,0.0,0.199106814999998,mp-1247204,0,0.0
Tb6O11,0.0047,-3.420675259558822,mp-16302,0,0.0
Na3YSn3(PO4)6,2.4,-2.663697989648516,mp-2714678,0,3.0
Y11(In3Si2)2,0.0,-0.5953540635714271,mp-1202129,0,0.0
CsAuO,1.3835,-1.061347121551727,mp-9986,0,2.0
Tl8Sb21As19(PbS17)4,1.5289,-0.52964404590972,mp-581586,0,2.0
U2Ge4Mo3,0.0,-0.33908273333334,mp-541491,0,0.0
Na3Si2SnGePO12,2.9739,-2.5585801938557062,mp-2715385,0,4.0
K23(Sn3Au4)3,0.0,-0.307407335494317,mp-1195947,0,0.0
Ce3S3N,0.0,-2.277140687812497,mp-543033,0,0.0
MgNb2PdS6,0.0,-1.190462224999999,mp-2222797,0,0.0
LiCe3,0.0,0.264831667916666,mp-1185343,0,0.0
Hf6Ga16Ni7,0.0,-0.459467399655172,mp-1193078,0,0.0
Zr3(MnNi2)2,0.0,-0.323723089540229,mp-1215885,0,0.0
Na2PdF6,2.0894,-2.2368059,mp-1210356,0,3.0
Rb3Ho,0.0,0.6445837831250011,mp-974962,0,0.0
Mn2Fe3Sn2(CO)19,1.9171,-0.6118027054636,mp-704255,0,3.0
Si5(PbN4)2,1.6458000000000002,-0.926468274027776,mp-1246988,0,2.0
K2V8O21,1.247483,,,0,1.0
Al2CoOs,0.0,-0.5402784149999991,mp-984352,0,0.0
Li10Zn(PS4)4,2.7251000000000003,-1.12360837360983,mp-1147695,0,4.0
Rb6CuAgO4,1.1344,-1.175864809513888,mp-1219689,0,1.0
BaNa2Sr,0.2492,0.9764834043103452,mp-1097658,0,0.0
Rb4FeSbCl12,0.0,-1.699170616111111,mp-1219783,0,0.0
Ge1Ca2O4,2.840906,,,0,4.0
Ba2YCu3SO6,0.0,-1.9949550651923071,mp-1214650,0,0.0
Ba3In2(PO4)4,3.7254,-2.92877177267619,mp-1200796,0,5.0
NaLi2Sn,0.0,-0.288079030761494,mp-1186135,0,0.0
VCu13As3S16,0.0,-0.5259184670454551,mp-1202812,0,0.0
BaNaSn,0.0,-0.176811905459769,mp-962067,0,0.0
K3As11,1.5084,-0.25697280155357,mp-541000,0,2.0
La5ZnPb3,0.0,-0.548124911666666,mp-1188901,0,0.0
Ni2Mo,0.0,-0.039348750000002,mp-784630,0,0.0
Cs2SiP4(HO7)2,5.1816,-2.568855413060076,mp-697078,0,7.0
NdPd,0.0,-0.815613898749999,mp-999336,0,0.0
Ba5Mg18Ge13,0.0,-0.391134225694444,mp-1228121,0,0.0
Al(NCl)3,0.0,0.818047580178571,mp-1104358,0,0.0
ScAsO4,3.5491,-2.6847117654166652,mp-546125,0,5.0
ScAg4,0.0,-0.186317074999999,mp-30354,0,0.0
BH3OF4,7.657299999999999,-2.285948338657407,mp-696379,0,7.0
Zn3Cd,0.0,0.111207838749999,mp-981200,0,0.0
ZrTaTe4,0.0,-0.8607127423333321,mp-1215227,0,0.0
TiAl4Ni15,0.0,-0.443608320166666,mp-1217285,0,0.0
NiPt(CN)6,1.4603000000000002,0.239697965714285,mp-1210015,0,2.0
Na7NbIn3Si3(PO8)3,2.3845,-2.6264837382174893,mp-2714923,0,3.0
LaAl12O19,0.0,-3.407997023124999,mp-765688,0,0.0
Nd3In5,0.0,-0.6659771665624981,mp-1188947,0,0.0
Zr(NiN)4,0.0,-0.219812833333334,mp-1246335,0,0.0
BMo2,0.0,-0.322163114166668,mp-2501,0,0.0
Ba2H14C12S4N4O15,2.643799999999999,-1.1103399363235311,mp-1215051,0,4.0
TaTiTlO5,2.5923,-2.9920090805000013,mp-1217858,0,4.0
K6Te6,0.256741,,,0,0.0
K2Zn(CN)4,6.050800000000001,-0.238564278409092,mp-6424,0,7.0
La4P20,0.159328,,,0,0.0
RuN3Cl3O,0.2001,0.436196665937497,mp-1197250,0,0.0
ZrTe,0.0,-1.042866607500002,mp-1539,0,0.0
NdUTe6,0.0,-0.9944240190624992,mp-1220117,0,0.0
CaZnPb,0.0,-0.377030583333333,mp-1096880,0,0.0
Mn2K2P6O20H2,1.314134,,,0,2.0
La8Sb4Br4S20,1.474544,,,0,2.0
Na3Ca2BiO6,1.5495,-2.278402140344827,mp-557506,0,2.0
NbInPt,0.0,0.051087372583339,mp-961708,0,0.0
Hf2ZnMo,0.385,3.38948425664747,mp-1096095,0,0.0
Bi2Se2Cu2O2,0.614205,,,0,0.0
P3N5,3.559999999999999,-0.489872645959822,mp-567907,0,5.0
CuO2,0.0,-0.529777563333333,mp-25378,0,0.0
Sm6Mg(GeS7)2,2.0667,-1.8845222673913031,mp-1219149,0,3.0
SiSnPt5,0.0,-0.5817946607142841,mp-1025324,0,0.0
La2(GaNi)5,0.0,-0.473521089791666,mp-1223634,0,0.0
Cr1S2O8N4H10,2.726147,,,0,4.0
Rb8SbO3,0.0,-0.7948756104166671,mp-1102981,0,0.0
Mg(AlH4)2,4.3638,-0.144007213181818,mp-23709,0,6.0
Ca2Si3Ag,0.0,-0.513929418333333,mp-29570,0,0.0
Sb2Ba6Na2O12,2.853778,,,0,4.0
BaP3H10C3NO9,5.6733,-1.456501409497354,mp-1204596,0,7.0
Ba3(AlN2)2,1.5661999999999991,-1.033622193333334,mp-17133,0,2.0
CaAlGa,0.0,-0.466938088333332,mp-1226821,0,0.0
Nd(CoB)2,0.0,-0.462772958499999,mp-5553,0,0.0
Ni3(PbS)2,0.0,-0.475795109999998,mp-22596,0,0.0
ZrPb7N6,0.470699999999999,0.091599108095234,mp-1246139,0,0.0
BaLaSmCuO5,0.5899000000000001,-3.000971456111112,mp-1229306,0,0.0
Pr11O20,0.0,-3.259380655107526,mp-1209915,0,0.0
Cu3(Mo3S4)4,0.0,-0.6779221646774191,mp-675781,0,0.0
Ce(CrB3)2,0.0,-0.5803184449999981,mp-2873,0,0.0
CeCo2B2C,0.0,-0.458673697222221,mp-1025095,0,0.0
NdN3O13,0.710199999999999,-0.764694064558824,mp-1180599,0,1.0
Na2YTaSi(PO6)2,2.6586,-3.039923322423386,mp-2712613,0,4.0
Ti2SnC,0.0,-0.7897175870833321,mp-3871,0,0.0
Y2H2C,0.0,-0.5824686735000001,mp-644278,0,0.0
ZnH13RuN5(Cl2O)2,2.6024000000000003,-0.842653562355768,mp-1201403,0,4.0
NaHCO2,4.9349,-1.537835974525861,mp-23684,0,7.0
Nd(BIr)4,0.0,-0.633753530277772,mp-9584,0,0.0
SrBiS2F,0.8544,-2.067490063,mp-1078631,0,1.0
YMg14Sb,0.0,-0.056057074374999,mp-1027963,0,0.0
Na10NbAl7Si6(SO8)6,2.016599999999999,-2.637846216352049,mp-2713455,0,3.0
Ba3Sr2As3ClO12,3.9136,-2.7466681220238103,mp-1214567,0,6.0
Y3SiS2,0.0,-1.8708191101041671,mp-1216052,0,0.0
K2U(BrO)4,1.2993,-1.715675866772726,mp-1102885,0,2.0
Na6CaHf3Si4(SO12)2,3.8306,-2.931383575748564,mp-2714416,0,6.0
Ce3(BN2)2,0.0,-1.5515597431481492,mp-3603,0,0.0
K2TiAuF6,0.0,-2.807723693783332,mp-1111957,0,0.0
Sr3UO6,2.213399999999999,-3.533912545000001,mp-3956,0,3.0
Rb2PrAgCl6,3.6461,-2.146478773833332,mp-1110805,0,5.0
Cd15As9Cl2O37,0.9608,-1.61692698392857,mp-1227896,0,1.0
Sr8MgP4(IO4)4,1.6882,-2.9475434158658023,mp-1233937,0,2.0
P4SO6,3.6856,-1.8841161280519472,mp-28673,0,5.0
Rb8Cr8O28,2.738816,,,0,4.0
Ge(C6F5)4,0.5082,-0.180857943666666,mp-1197268,0,0.0
Mg6As4,0.5496719999999999,,,0,0.0
FePCl8,1.4768,-1.204013893464289,mp-540760,0,2.0
Sr2NdBiO6,1.7139000000000002,-2.78517597775,mp-23093,0,2.0
Sc2AgIr,0.0,-0.667457705416666,mp-862432,0,0.0
Hg6Sb5Br7,1.0115,-0.60877720472222,mp-23453,0,1.0
Ca2MnN3,0.0,-0.985573419238505,mp-1029959,0,0.0
Tl4AuSe3,0.0,-0.202367258023436,mp-1106106,0,0.0
H4NClO,5.4806,-0.7409286985714281,mp-24019,0,7.0
Rb3Sm,0.0,0.610432698124999,mp-978034,0,0.0
LiY3,0.0,0.192883224166665,mp-1185245,0,0.0
Ba4Ru3O10,0.0,-2.290307375588237,mp-17304,0,0.0
KEu3,0.0,0.198342784249998,mp-1185115,0,0.0
Si2Ir,0.0,-0.5403598966666671,mp-1206741,0,0.0
ScCoSi,0.0,-0.811022963333331,mp-1103034,0,0.0
KH28S4N7O16,0.004299999999999,-0.367188024772321,mp-720529,0,0.0
AgHPbC2SN2O,3.1811,-0.348111200879629,mp-1195948,0,5.0
EuIn4Au,0.0,-0.364217857777773,mp-1102671,0,0.0
PrSmB12,0.0,-0.5361399029761901,mp-1219729,0,0.0
LiMgAlH6,3.3555,-0.287372329537036,mp-1193498,0,5.0
Th7Os3,0.0,-0.376079801000003,mp-569819,0,0.0
Sm(CuSn)2,0.0,-0.389501194999998,mp-1079204,0,0.0
Sr3Pt2,0.0,-0.788311620666668,mp-1104074,0,0.0
ReIrBr6N5Cl,0.0,0.9944592814285712,mp-1200188,0,0.0
CsTlF4,2.7921,-2.379133330416664,mp-1541564,0,4.0
Y1Rb1S2,2.318436,,,0,3.0
K8Ag4I12,2.572374,,,0,4.0
Mn2C2N4,2.2432,,,0,3.0
K2B(CN)3,2.4621,-0.340440412074074,mp-1205404,0,3.0
ZrHg3(SeCl3)2,2.5759,-1.403146085182293,mp-570520,0,4.0
KSb5S8,1.591599999999999,-0.460628250446427,mp-15559,0,2.0
Mg3B11O24,0.0,-2.346164692587719,mp-1196889,0,0.0
Pr23Cd4Rh7,0.0,-0.413754906715685,mp-1210413,0,0.0
K2Na3TlO4,1.5642,-1.4526352391971271,mp-17375,0,2.0
Ag8GeS6,0.6102000000000001,-0.327256603055552,mp-9770,0,0.0
Ba4Cu8Te8,0.819411999999999,,,0,1.0
K4Ge2As4,0.779941,,,0,1.0
DyU2S3O2,0.0,-2.68707550677083,mp-1206004,0,0.0
SrSmB12,0.0,-0.5308569835714291,mp-1217758,0,0.0
Y2FeSi2,0.0,-0.6657078970000001,mp-1205522,0,0.0
Ba12Cl5F19,5.9802,-3.913170230694445,mp-560641,0,7.0
Al3Ge,0.0,0.09748668375,mp-1183195,0,0.0
SnH22(Cl3O5)2,3.1623,-1.273807783141026,mp-554808,0,5.0
Mg14BiC,0.0,0.214452899062499,mp-1098186,0,0.0
Ta8V(CS2)4,0.0,-1.106917574698412,mp-1218036,0,0.0
Rb3Ta2AgSe12,1.423499999999999,-1.019109294275463,mp-569378,0,2.0
CaMnBi2,0.0,-0.346675369428872,mp-1232776,0,0.0
K2Se3,0.644,-1.073890771306249,mp-7670,0,1.0
ThNi5,0.0,-0.408373441666666,mp-1567,0,0.0
Y2SiCO7,4.7935,-3.283968047272727,mp-556661,0,7.0
Nd3SiAgS7,1.770899999999999,-1.748846723515624,mp-864666,0,2.0
Y2CoNi5,0.0,-0.330162924583332,mp-1216367,0,0.0
OsC3I2O3,1.795599999999999,-0.9219372133333332,mp-616196,0,2.0
In4AsP3,1.2212,-0.364143684553571,mp-1223884,0,1.0
V5P3,0.0,-0.8261550442410691,mp-1188605,0,0.0
Ca2PClO4,5.377099999999999,-3.260033313080356,mp-554081,0,7.0
Y3GeO8,0.0,-2.8527954920833323,mp-1207832,0,0.0
Rb3Cu3Cl8O,0.0741,-1.434706170333334,mp-1196031,0,0.0
Te8K4O24,1.132714,,,0,1.0
Tl4Bi2S5,1.394499999999999,-0.6316266425757591,mp-23408,0,2.0
Li3Ga7,0.0,-0.254432013,mp-567306,0,0.0
Zn3(Se2O7)2,0.8375,-0.9929110773511892,mp-1195169,0,1.0
FeAg3,0.0,0.346758665000001,mp-1184294,0,0.0
Na12Mg10Ta2Si3(S5O24)3,1.757299999999999,-2.406884041523846,mp-2713355,0,2.0
KCuIO6,0.0,-1.020663453583333,mp-1147553,0,0.0
Li2Nb(PO4)2,0.092,-2.745848653534797,mp-26721,0,0.0
Nd5As4(ClO4)3,3.7175,-2.865603284270832,mp-556908,0,5.0
Li7Zr3Nb(TeO6)4,1.9009,-2.429331326923077,mp-695434,0,3.0
MgAl,0.0,0.0143388125,mp-1039141,0,0.0
Ba2Zn(BO2)6,4.2768999999999995,-2.924281693809524,mp-558680,0,6.0
Sr2C(NCl)2,4.202,-1.8577654721428571,mp-567655,0,6.0
Nd3Zn22,0.0,-0.2841790253,mp-1199143,0,0.0
Gd3Dy,0.0,0.073850511250007,mp-1184431,0,0.0
ScRu(NF)6,0.0174,0.022971838749998,mp-1210193,0,0.0
HfCo7,0.0,0.077081483437495,mp-1105489,0,0.0
K8NbSnAs5,1.2448,-0.467981875866666,mp-1194900,0,1.0
Re2P5,0.485199999999999,-0.432155798554422,mp-27736,0,0.0
Sm2(CuSn)3,0.0,0.594917580624999,mp-1206240,0,0.0
BaTbEuSbO6,0.0097,-3.050115185166666,mp-1520921,0,0.0
Na5Cu3As4HO16,0.575199999999999,-1.699898647177466,mp-1210224,0,0.0
RbZnF3,4.0784,-2.7951774025,mp-4975,0,6.0
Sr9La5Br33,2.8873,-2.427094694680851,mp-851109,0,4.0
Mg149Ta,0.1461,0.016626209384444,mp-1185640,0,0.0
Sc15C19,0.0,-0.547402738474789,mp-15957,0,0.0
LiMg6GaO8,4.433800000000001,-2.824346687552083,mp-1031142,0,7.0
ZnCuAsHO5,0.3267,-1.4886352398611111,mp-510608,0,0.0
NaZnH2C3O7,3.4034,-1.637402389562808,mp-1195353,0,5.0
Tb2Fe17C3,0.0,-0.075804052196969,mp-1191539,0,0.0
Co(C2N3)3,0.5292,0.3782694709375,mp-1247408,0,0.0
V2P2Cl18,1.646983,,,0,2.0
NiBi,0.0,0.026048007500001,mp-999318,0,0.0
CuSi4P3,0.0,0.078561064217261,mp-1225800,0,0.0
YCd,0.0,-0.315869994999999,mp-915,0,0.0
K1Ru1F6,1.132252,,,0,1.0
Ba4Cu8Se8,0.850873,,,0,1.0
Rb2LiTiF6,0.0,-3.317555614166666,mp-1113704,0,0.0
Rb8W4Se16,1.306399,,,0,2.0
ZnGaP2H4NO8,3.7033,-1.9559007031932771,mp-721013,0,5.0
Na4Ga3Si3B(HO3)4,4.2524,-2.231634270266071,mp-534870,0,6.0
KYO2,3.973899999999999,-3.075378259312499,mp-8409,0,6.0
Y2Sn5Rh3,0.0,-0.7027724590000001,mp-30864,0,0.0
Sb2S4Na2,0.560725,,,0,0.0
Li2CdPt,0.0,-0.444232986666665,mp-1184966,0,0.0
Y2Si3N4O3,3.024599999999999,-2.363416295416667,mp-6941,0,4.0
K2AlAgCl6,2.4737,-1.832410795616666,mp-1111973,0,3.0
Nb24I35Br9,0.1755,-0.5677425701470581,mp-686026,0,0.0
Cu3Te2(BrO3)2,0.0,-1.121687574871795,mp-572313,0,0.0
Y2Ni12As7,0.0,-0.5279677496428571,mp-1191314,0,0.0
SnGeSe2,0.7457,-0.551021347421874,mp-1218835,0,1.0
Re3S4Cl,1.6748,-0.935011268124999,mp-653579,0,2.0
Mg6CoSi,0.0,0.1408851875,mp-1022054,0,0.0
La(Ge2Rh3)2,0.0,-0.752380926818181,mp-1095552,0,0.0
Ce2Mg17,0.0,-0.004785766842104,mp-680564,0,0.0
NaLi5N2,0.7385,-0.350365862629309,mp-569525,0,1.0
Zr2Mn4P3,0.0,-0.8695192822947461,mp-1196264,0,0.0
La(YC3)2,0.0,-0.162272112777778,mp-1223273,0,0.0
Ta11O2,0.0,-0.493306778512819,mp-673681,0,0.0
Na6Ca4Y4SiS11O48,4.1588,-2.5851885834339092,mp-2712575,0,6.0
K5CuCO5,1.0851,-1.6864241596875,mp-1224071,0,1.0
Fe(Co5N4)2,0.0,0.13281012736842,mp-1247046,0,0.0
Kr4As4F28,2.477038,,,0,3.0
Na2YCuBr6,1.671199999999999,-1.580670454275861,mp-1111744,0,2.0
Li3Sb17S27,0.7390999999999991,-0.632199356648934,mp-767137,0,1.0
ErSb2,0.0,-0.406175611111114,mp-1018159,0,0.0
Er(ReO4)2,0.0,-2.543080508636363,mp-755194,0,0.0
NbInS2,0.0,-1.114172520416666,mp-1018022,0,0.0
Mn3CuN,0.0,-0.209661352189658,mp-510380,0,0.0
Na3(CO3)2,0.287,-1.875786229012539,mp-1210402,0,0.0
TbUTe4,0.0,-1.252312555833337,mp-1217433,0,0.0
H22RhC3(N3O4)2,3.2285,-0.8899466449374991,mp-600156,0,5.0
Ta2PdSe6,0.0,-0.7847910432268521,mp-8436,0,0.0
Ba3Nb,0.0,0.7857501925000001,mp-1183322,0,0.0
Nb2CuRe,0.0,3.865531676875001,mp-1095726,0,0.0
HoSi3Ni5,0.0,-0.6929581986111101,mp-1200132,0,0.0
UC2O9,0.8047000000000001,-1.642903450208333,mp-1198839,0,1.0
K2Hg2SCl4O3,2.2126,-1.61420317975,mp-559061,0,3.0
Ce2Zn3Cu7,0.0,-0.181424291666666,mp-1226833,0,0.0
Na4LaZn(PO4)3,3.5667,-2.711915335767262,mp-2715172,0,5.0
CaSn,0.0,-0.648111144999998,mp-2450,0,0.0
NbRe2W,0.0,4.864209470624999,mp-1096054,0,0.0
Ba3SbAs,0.148699999999999,-0.8547799735,mp-1013562,0,0.0
KY(TeO3)2,3.1251,-2.3055569965583342,mp-1194980,0,4.0
Sr3Cr3N5,0.0,-0.8380748545605871,mp-1246582,0,0.0
CdInAsSe,0.0,-0.5110040216276031,mp-1226742,0,0.0
Ba2CrN3,0.0,-0.9845998641666672,mp-1029843,0,0.0
CaTl2O4,0.0439,-1.72750916166667,mp-5402,0,0.0
HoCo3Ni2,0.0,-0.185079927499998,mp-1223880,0,0.0
Li3Sn2P5O16,4.0919,-2.524975561662088,mp-684470,0,6.0
Na2HgO2,1.6474,-1.336780317051725,mp-4961,0,2.0
La5CuPb3,0.0,-0.50582190111111,mp-1188578,0,0.0
Nb3SI7,0.5787,-0.9132827831818172,mp-541158,0,0.0
LaTb3,0.0,0.016554397499998,mp-972257,0,0.0
TbZr3,0.0,0.06243853375,mp-1217416,0,0.0
Sc2HgPt,0.0,1.505884581874999,mp-1097286,0,0.0
MgTi3P3O13,0.0,-2.951602913946429,mp-1041140,0,0.0
BeFe2P,0.0,2.338682310089285,mp-1095998,0,0.0
Ba3Tm,0.0,0.237866994999998,mp-1183349,0,0.0
ZnGa11Co4,0.0,-0.201456188437502,mp-1215609,0,0.0
Gd2Fe17H3,0.0,-0.058366884261363,mp-1191093,0,0.0
CaMg14Zn,0.0,0.0269594999999999,mp-1028173,0,0.0
Nb2O2I4,0.857333,,,0,1.0
HfCo2Sb,0.395999999999999,2.45605095101428,mp-1097490,0,0.0
Tm2CdHg,0.0,-0.372334788125004,mp-979258,0,0.0
Rb3Bi2I9,2.4754,-1.177800070535715,mp-29895,0,3.0
CeB4ClO8,0.0,-2.732090382619048,mp-1193133,0,0.0
CdIn,0.0,0.059352905,mp-1183669,0,0.0
La6TaGa11O28,3.4452,-2.929610374778986,mp-1223200,0,5.0
CsTa(BO3)2,3.4027,-3.013451491032184,mp-9309,0,5.0
La(SiRu)2,0.0,-0.8646734290000011,mp-5105,0,0.0
MnSbIr,0.0,-0.204147135977011,mp-10154,0,0.0
TbInAg2,0.0,-0.363992091666665,mp-22382,0,0.0
H13RuN5(ClO)2,2.4194,-0.7197242052717381,mp-1196664,0,3.0
Nb12Al3In,0.0,-0.1625848245625,mp-1220944,0,0.0
Na2Cu2Si4H4O13,0.185699999999999,-2.240989840910345,mp-555953,0,0.0
LaSiIr,0.0,-0.9994050800000012,mp-3555,0,0.0
Te2Cl12N4C8H8,0.4510659999999999,,,0,0.0
YMn2,0.0,0.105754827037034,mp-1103127,0,0.0
Rb2TlInI6,0.8542000000000001,-1.1217037525,mp-1114166,0,1.0
Ho4FeSn8,0.0,-0.462068432307689,mp-1224253,0,0.0
CaZrTi2O7,2.9332000000000003,-3.62191468560606,mp-1227163,0,4.0
Rb2NaSmCl6,5.0726,-2.44517877713793,mp-1114014,0,7.0
Tb(CuS)2,0.0,-0.993681271124989,mp-1018637,0,0.0
Na3BrO,1.8815,-1.615873120827586,mp-985586,0,3.0
Ca3In2(GeO4)3,2.6717999999999993,-2.592754080291666,mp-1214247,0,4.0
VNi3,0.0,-0.2159190275,mp-171,0,0.0
LaGdTl2,0.0,-0.398256005416667,mp-1185230,0,0.0
Ca4Rh6Pb19,0.0,-0.002562336551722,mp-1214426,0,0.0
TaFe2,0.0,-0.192937615777779,mp-568077,0,0.0
Ga5Ni,0.0,-0.155533319166667,mp-1095578,0,0.0
BiBr,0.7863999999999991,-0.742962326250001,mp-568758,0,1.0
Sc5Si3,0.0,-0.7977898131250001,mp-7822,0,0.0
CsNa2Be6(BO3)5,4.5106,-2.884511432180935,mp-866613,0,7.0
Na2HgPb,0.0,-0.234316489531252,mp-1078628,0,0.0
Hg12Se8Br8,0.0,,,0,0.0
CaZn2(PO)2,0.0,-0.950866512755101,mp-634817,0,0.0
Fe4Ca4Cl4O8,2.416295,,,0,3.0
Nd3GaN,0.0,0.789070526986114,mp-636273,0,0.0
H9C3N6ClO5,4.4935,-0.55481255109375,mp-1212546,0,7.0
BaPb3,0.0,-0.372574795,mp-21446,0,0.0
Cd4P2I3,1.377799999999999,-0.443081471170634,mp-568545,0,2.0
Cs2KGaBr6,2.125499999999999,-1.701227277406034,mp-1112623,0,3.0
Tl2Sn(AsS3)2,0.9788999999999992,-0.5746093356060611,mp-6023,0,1.0
Tl2(ReSe2)3,1.1345,-0.502335278125,mp-616190,0,1.0
DyCo3,0.0,-0.154753695416663,mp-568945,0,0.0
Ce(Al4Fe)2,0.0,-0.418513920454542,mp-607077,0,0.0
Mg13Ir3,0.0,-0.231604088125,mp-16860,0,0.0
LuScO3,3.0848,-4.006214216666667,mp-772180,0,4.0
KNdH6C4O11,3.2645,-1.803751139663043,mp-1201323,0,5.0
Zr6FeCl15,0.0,-2.060220138636364,mp-1192112,0,0.0
NdGe2Pt,0.0,-0.8989366899999991,mp-1106223,0,0.0
Li3VS3,0.0,-1.347091729642857,mp-1177470,0,0.0
AlBiSe4,0.0194,-0.406646809726571,mp-1268005,0,0.0
Ca2SnHg,0.1485,-0.659526856875,mp-866229,0,0.0
Sr15Ti23O61,1.8133,-3.494360285521886,mp-1201432,0,2.0
Zr6Zn23Si,0.0,-0.331631574666666,mp-1207426,0,0.0
SrTbEuSbO6,0.296,-3.013247925166668,mp-1516843,0,0.0
HgP2(PdO4)2,0.552499999999999,-1.757071193214285,mp-1192405,0,0.0
NaZnAs,0.357599999999999,-0.414957609626436,mp-13097,0,0.0
PrAl2Ag,0.0,-0.413611760833334,mp-1101762,0,0.0
AlCr4CuS8,0.0,-1.048169373571428,mp-1228960,0,0.0
Cr2SeN2,0.0,-0.45086800046875,mp-1245404,0,0.0
Mo2Cl10,0.140697,,,0,0.0
Na3TaGa3P5SO24,3.1817,-2.579052109045556,mp-2715902,0,5.0
YMg30ZnO32,0.559499999999999,-2.9648550148437502,mp-1037725,0,0.0
Li3(HN)2,0.0,-0.387279116071429,mp-1210795,0,0.0
CuH4Pb2(ClO2)2,0.175999999999999,-1.325931599615384,mp-643378,0,0.0
Li5AuO4,1.958799999999999,-1.805457756666666,mp-757242,0,3.0
CaCd3O4,0.1892,-1.848988828749998,mp-760403,0,0.0
Rb8C4O7,0.0,-0.7356800881578941,mp-676534,0,0.0
LuCuTe2,0.3889,-0.9763717175,mp-1206615,0,0.0
Na8NbIn3Si4(PO12)2,2.5101,-2.6326935631822272,mp-2716246,0,4.0
Sm2Co14B,0.0,-0.120020068480391,mp-1195895,0,0.0
HoMnAl,0.0,-0.239649602643676,mp-1223751,0,0.0
Pr3Sb5O12,3.167999999999999,-2.589983342499998,mp-2973,0,5.0
P3H22C3N9O11,5.1383,-1.105677026383928,mp-720461,0,7.0
NbSbRh,0.0,-0.400565796666666,mp-31453,0,0.0
Bi4Pb8V4O24,2.150874,,,0,3.0
Si7NiN10,0.597699999999999,-0.999062579999997,mp-1246774,0,0.0
BaP3HNO9,2.07,-2.01741854867857,mp-1215026,0,3.0
KAlSe2,2.4189,-1.377478732359374,mp-1211743,0,3.0
SbP2AuF12,3.948299999999999,-2.577052034017857,mp-1198127,0,6.0
Hf2CuOs,0.0,-0.427814107499997,mp-864974,0,0.0
I10Y6Co1,0.173629,,,0,0.0
Ba6Sn12S18,1.114361999999999,,,0,1.0
Ga2NiS4,0.0,-0.824637273571427,mp-6959,0,0.0
HfAlCu,0.0,-0.332944006666666,mp-1224481,0,0.0
NdBN2,2.167999999999999,-1.573379355208333,mp-1192144,0,3.0
PmEuO3,0.0,-2.8423352195,mp-1186571,0,0.0
Zr6Ga2Fe,0.0,-0.368473441666668,mp-1080526,0,0.0
Ni(PS3)2,0.3491,-0.4601554215873,mp-769218,0,0.0
Na10Al4In4Si5S7O48,2.8257,-2.397245777858459,mp-2715196,0,4.0
TiAg,0.0,-0.054529908333332,mp-1017985,0,0.0
UCO5,2.2864,-2.821639237142857,mp-29761,0,3.0
YSiPt,0.0,-1.293444214999998,mp-1103176,0,0.0
Hf4NiP,0.0,-0.686591300912705,mp-1102542,0,0.0
NaSbPCO7,0.0,-2.099855689638378,mp-768121,0,0.0
HgNCl3O,0.3605,-0.026830907500001,mp-1181074,0,0.0
Li2CeGa,0.0,-0.221387993333333,mp-1184980,0,0.0
Y2AgRh,0.0,1.783080582083334,mp-1097092,0,0.0
PrN,0.0,-1.545793825208331,mp-343,0,0.0
K3NaTi2(SiO4)3,2.6024000000000003,-2.975829658085523,mp-2716502,0,4.0
Nb2Se4Cl4,0.952176,,,0,1.0
Ba(TeO3)2,1.762,-1.997902103148148,mp-27254,0,2.0
LiPa,0.0,0.279126033333334,mp-1185271,0,0.0
NaAg3S2,0.9312,-0.45348791052083,mp-16992,0,1.0
Ti9ZnS16,0.0,-1.621070493269229,mp-531696,0,0.0
UCrC2,0.0,-0.204266192499998,mp-1190293,0,0.0