formula,bg,formation_energy,mp-id,fidelity,bg_category
CdCu4H14(SO9)2,0.0,-1.3286603167307691,mp-1201664,0,0.0
Cs2MgZr(PO4)3,0.0,-2.899493005828364,mp-1213730,0,0.0
Na10Be4Si4O17,3.9432,-2.711822081108374,mp-555606,0,6.0
Rb2Ge4O9,2.862,-2.152708218,mp-557372,0,4.0
Lu2TlZn,0.0,-0.285605019166669,mp-1185453,0,0.0
TbBPd3,0.0,-0.654714329409088,mp-3022,0,0.0
Tb4CuPt3,0.0,-1.139227755,mp-1217627,0,0.0
Tl3Ga,0.0,0.097246365625004,mp-1187539,0,0.0
Mo4S16Rb8,1.489915,,,0,2.0
UHg3,0.0,0.159286731249999,mp-1216624,0,0.0
Mg(IO8)2,1.233699999999999,-0.298077822894737,mp-1181590,0,1.0
Ca2P6O17,5.5089,-2.8559254763142863,mp-758337,0,7.0
Mg8Sn4S16,2.09648,,,0,3.0
SbAsO3,3.509899999999999,-1.697553926,mp-28109,0,5.0
CuP4(RuO7)2,0.0,-2.100515305646257,mp-1213434,0,0.0
Li3Ga14,0.0,-0.181210765294117,mp-1222489,0,0.0
DyPa,0.0,0.194081465000003,mp-1183835,0,0.0
Ta2OsW,0.0,-0.346737053666664,mp-864650,0,0.0
K4O12,0.0,,,0,0.0
LiIn(TeMo)6,0.0316,-0.25372573142857,mp-1223004,0,0.0
Na2CaTa(PO4)3,2.9017,-2.890788890036168,mp-2713633,0,4.0
Pb12La2Cl2O14,2.120812,,,0,3.0
KBePt,0.0,0.7478105492499999,mp-631464,0,0.0
KFe,0.0,1.026204258875,mp-1097017,0,0.0
Ba8S16In4,1.882019,,,0,3.0
MgTi3,0.0,0.0957912237499999,mp-1094865,0,0.0
Nd6Fe13Ge,0.0,-0.085616390999999,mp-1198335,0,0.0
KPSe3,1.4182,-0.799751221618154,mp-569702,0,2.0
SmBiRu2O7,0.0,-2.050081601818182,mp-1219095,0,0.0
TiIN,0.0,-1.396928674444446,mp-27848,0,0.0
TmPt3,0.0,-1.161888827499999,mp-2351,0,0.0
Eu2MgGa3,0.0,-0.435255282916668,mp-1225624,0,0.0
YbTi2O5F,0.0,-3.656449693009259,mp-1215761,0,0.0
Y2InNi2,0.0,-0.502710679333333,mp-569523,0,0.0
MgAg4(RuO3)4,0.0,-1.096019430079365,mp-1233247,0,0.0
Yb(P2Rh3)2,0.0,-0.973026664264068,mp-1103449,0,0.0
Na2Zn2S3,2.1599,-1.115347805133928,mp-1094107,0,3.0
Ti15NbO32,0.0,-3.461866468749999,mp-1099073,0,0.0
Zn4Y8S16,2.415406,,,0,3.0
K12Cd2Te8,1.64183,,,0,2.0
K2TcC2S4NO4,1.5891000000000002,-0.917876536392856,mp-1181454,0,2.0
CsCuF4,1.5436,-2.108593645,mp-540921,0,2.0
Mg149Ti,0.200299999999999,0.009609734877778,mp-1185639,0,0.0
Na3Ca8Nb4P3(S5O24)3,2.1927,-2.462355842481586,mp-2714279,0,3.0
NdSi2Ni9,0.0,-0.465600115208333,mp-1190833,0,0.0
TmB2HO5,4.6471,-2.845210811620371,mp-1201207,0,7.0
Tm4Fe,0.0,0.433458511999993,mp-1208166,0,0.0
Ba3BiIr2O9,0.0,-2.102765382333333,mp-1194190,0,0.0
KHoH8RuC6(N3O2)2,3.6696,-0.8023064217499991,mp-24765,0,5.0
LiH4SNO5,5.7564,-1.408643107256945,mp-1203097,0,7.0
Si4SnO10,2.968,-2.845776680666667,mp-1043403,0,4.0
Li3CaMnN3,0.073199999999999,-0.79806856849138,mp-569112,0,0.0
Lu5CuPb3,0.0,-0.425805747592591,mp-1210658,0,0.0
Rb(NbS2)2,0.0,-1.341741379642856,mp-1219792,0,0.0
CsP4N7,3.584499999999999,-0.662918790401792,mp-679983,0,5.0
Ca(BH4)2,4.9736,-0.478314454848485,mp-1190619,0,7.0
RbNb3CuCl9,0.9843,-1.65395203625,mp-569710,0,1.0
CsK2ScCl6,4.0703,-2.313783583915517,mp-1112309,0,6.0
Ba(BS2)2,2.7453,-1.273449396190475,mp-30126,0,4.0
Tb7CoI12,0.2763,-1.449075854833332,mp-1105706,0,0.0
TlSn2Br5,2.3623,-1.141054301041667,mp-568244,0,3.0
Nb2FeTc,0.0,3.918349593749999,mp-1097292,0,0.0
NaLaP2H4CO7,4.7036,-2.118968268635314,mp-1195950,0,7.0
MoH8(S2N)2,1.7787000000000002,-0.575086519333333,mp-1199487,0,2.0
In3Bi,0.0,0.044236198749999,mp-1184488,0,0.0
Na4Si5Sn2O17,0.3552,-2.611970638768472,mp-1221161,0,0.0
Be5Fe,0.0,-0.090075755833333,mp-1025010,0,0.0
Ca3Al7Ag2,0.0,-0.337991456666666,mp-11430,0,0.0
Tl1Sc1Se2,0.574233,,,0,0.0
Ca10Si6F,0.0,-0.875490980588236,mp-1227429,0,0.0
Cs1Ti3P5O19,2.662792,,,0,4.0
Th2SbNO,0.220699999999999,-2.450983603999998,mp-1217259,0,0.0
K3AsF12,0.289299999999999,-1.973760470578125,mp-1212135,0,0.0
GdH2C2SNO9,0.3791,-1.509725736875,mp-1200033,0,0.0
Mg2MnNi3S8,0.0,-0.8053550784236441,mp-1247200,0,0.0
Na(BH)5,4.8194,-0.279452651993209,mp-776332,0,7.0
NaSc2Ge2P3(SO8)3,2.0515,-2.466563688699273,mp-2716468,0,3.0
MgTl6(SbS4)2,1.9119,-0.6089930461764721,mp-2229229,0,3.0
Li2TeO3,3.6349,-2.021365671805556,mp-27231,0,5.0
Li7VAs4,0.8996000000000001,-0.791133263472222,mp-673833,0,1.0
BaSnS3,0.8569,-1.394803844999997,mp-1183370,0,1.0
Rb2CaNb2(TeO6)2,2.4418,-2.373870545701754,mp-1233618,0,3.0
BiH5(NO3)3,0.0,-0.042084997013889,mp-1214376,0,0.0
Na3Mg2Nb2P5SO24,2.1343,-2.736508672113124,mp-2716107,0,3.0
Sr7SN6,0.0,-0.569775436093753,mp-1245374,0,0.0
Ge4Rb4Br12,1.837385,,,0,2.0
Eu3(MgGe)5,0.0,-0.493645459615386,mp-1201532,0,0.0
Ba(GaO3)2,0.0,-1.635764670972222,mp-1199346,0,0.0
SmMn2,0.0,0.145981326379308,mp-1102799,0,0.0
H5NO2,3.5725,-0.6494571317187491,mp-1204044,0,5.0
Re12Se16Br8Cs4,1.436664,,,0,2.0
ZrAlMo,0.0,-0.381163404313722,mp-1215307,0,0.0
SrCdAs2O7,2.4738,-2.101297096363635,mp-1190367,0,3.0
Gd2Ni17,0.0,0.403569672105263,mp-580102,0,0.0
NaSrMg6,0.0,0.096997795455479,mp-1017360,0,0.0
Mo12Br12S6,0.998991,,,0,1.0
Na4Pd2Se4,0.674871,,,0,1.0
TiNi2Sb,0.0,-0.402608968333332,mp-10261,0,0.0
Pb4Cs4Na12O16,1.472702,,,0,2.0
Sc2FeB2Ir5,0.0,-0.7214436913333341,mp-22425,0,0.0
Pb4Mn4V4O20H4,2.237348,,,0,3.0
TiCrSi4,0.0,-0.350294972777779,mp-1216927,0,0.0
LaB2Rh3,0.0,-0.657990270555555,mp-3465,0,0.0
BaNaVS4,1.5001,-1.5875672548399,mp-1227892,0,2.0
Ho5Ge3,0.0,-0.7890066449999971,mp-1106032,0,0.0
Ca2TaSnO6,0.0,-2.989977827233333,mp-1331696,0,0.0
BaP2(HO2)4,5.801,-2.323708426285713,mp-706400,0,7.0
ZnCdO2,0.036199999999999,-1.514723342499999,mp-1215505,0,0.0
Nd3Tl5,0.0,-0.365583785520841,mp-1189917,0,0.0
Rb3Ce(PSe4)2,0.2138,-1.152545020216836,mp-669351,0,0.0
PmPrTl2,0.0,-0.50230098979167,mp-1186631,0,0.0
Li2GaAu,0.0,-0.552045800833333,mp-30381,0,0.0
Zn3Si,0.0,0.196565497499999,mp-1187936,0,0.0
KPt2S3,1.273899999999999,-0.802294120364583,mp-30533,0,2.0
Na6Ta2In6Si5S7O48,1.271,-2.32519661723571,mp-2715864,0,2.0
InH12(NF2)3,5.5754,-1.395474031780303,mp-1204788,0,7.0
Ga3Te3Cl,1.3323,-0.6166950096428551,mp-1212726,0,2.0
ZrMn(CuS2)2,0.191,-0.8801543284913791,mp-1215300,0,0.0
Ba5Cd2Sb5F,0.0,-1.315326113846153,mp-865528,0,0.0
Rb6U3Sb2(PS4)8,0.1976,-1.054383732296917,mp-1195451,0,0.0
OsPt3,0.0,0.077709582499998,mp-1220038,0,0.0
Pb2Na12O10,1.044908,,,0,1.0
CaMg6Fe,0.0,0.209882465,mp-1023293,0,0.0
V3B2,0.0,-0.776987983,mp-2091,0,0.0
TmMg2Sc,0.0,-0.02263321375,mp-979073,0,0.0
CeZr3O8,2.1318,-3.8004957349999993,mp-1226592,0,3.0
Ho2Ga4Fe13C2,0.0,0.069537198095239,mp-1224299,0,0.0
Re2Si,0.0,0.135191012499999,mp-669547,0,0.0
Ho2Cu2O5,0.140899999999999,-2.610879746944443,mp-5029,0,0.0
Ba2ErTaO6,3.393399999999999,-3.600573126733332,mp-1205803,0,5.0
PrSiO4,0.0,-3.197090425277776,mp-756013,0,0.0
Pb2Mn6P6O24,0.414188,,,0,0.0
DyGeRu,0.0,-0.717329469722219,mp-19986,0,0.0
YCu3PbSe4,1.9033,-0.584932177083329,mp-1178697,0,3.0
KP4(CO2)4,0.001,-0.137101312107142,mp-1212211,0,0.0
Na2MgTi2O5,0.0,-2.64702120694253,mp-2224464,0,0.0
K2NaAsBr6,2.5764,-1.47256193633793,mp-1111240,0,4.0
Mg5Sn(BO5)2,3.8299,-2.901269854907406,mp-1198031,0,6.0
Mg6AlCo,0.0,0.114985305,mp-1023504,0,0.0
Zr2CoS4,0.0,-1.572656064285712,mp-1215573,0,0.0
Y4Co4O12,1.235501,,,0,1.0
Sr2B1N2Br1,2.407021,,,0,3.0
K3PS4O,2.4344,-1.03632182015476,mp-734082,0,3.0
Tm6Ta4Al43,0.0,-0.295471145081761,mp-1208183,0,0.0
Sr3CePC3O13,0.053999999999999,-2.892381724982994,mp-561145,0,0.0
Cs2P2S6,1.912806,,,0,3.0
Na4AlSi2SnPO12,3.383399999999999,-2.720644195960005,mp-2716193,0,5.0
Li2MgIn,0.0,-0.216344614583332,mp-12128,0,0.0
Zn8P4O20H4,3.926818,,,0,6.0
Na8Nb5O14,0.2576,-2.479611486149425,mp-762344,0,0.0
U(HO2)2,2.258,-2.576122922142855,mp-510128,0,3.0
K2TeS3,2.3419,-0.8753895005729171,mp-29692,0,3.0
NaPO6,0.9954,-0.9507994591902712,mp-1210814,0,1.0
Pd2O4,0.0,,,0,0.0
LiGaGe,0.0,-0.267365490277776,mp-7874,0,0.0
Y10Mn13C18,0.0,-0.294056674222036,mp-1197605,0,0.0
SmZrF7,6.050800000000001,-4.200733338055556,mp-18506,0,7.0
Dy3AlNiS7,0.0,-1.841669728541665,mp-1192418,0,0.0
RbHfMg14O15,0.5447999999999991,-2.736158766532258,mp-1034945,0,0.0
YAl(SO4)3,5.0684,-2.459064164460784,mp-2713858,0,7.0
K2P2PdO7,1.1969,-2.373244744273808,mp-1224154,0,1.0
Zr32N17O39,0.0,-3.072702335681817,mp-765235,0,0.0
Hf2SiNi3,0.0,-0.6690019632499961,mp-1224364,0,0.0
TbGa2Ag,0.1192,-0.5163901227083311,mp-1208317,0,0.0
K4PH5Se3O16,3.768,-1.6961158423077272,mp-695043,0,6.0
Tl2S5,1.667899999999999,-0.498485183452379,mp-30520,0,2.0
Br3N,0.0,1.477386134999999,mp-36891,0,0.0
Mn2Sn2B4O12,2.754372,,,0,4.0
Pd(XeF8)2,1.3427,-0.9910050425,mp-649616,0,2.0
Mg6ZnCuO8,0.0052,-2.585389678125,mp-1032598,0,0.0
Li2GaRh,0.0,-0.487105041041666,mp-2988,0,0.0
Na2Ga2D8,4.613244,,,0,7.0
Ca2CdHg,0.0,-0.439013755625001,mp-1183458,0,0.0
HfCuSi,0.0,-0.582629535,mp-22489,0,0.0
Pr6Ge3S14,1.3322,-1.7711431369565231,mp-1219880,0,2.0
YAgSb2,0.0,-0.6974421150000011,mp-1078739,0,0.0
Na1Fe7P6O24,0.517394,,,0,0.0
ScTaP2SO12,3.2143,-2.875591664457984,mp-2713481,0,5.0
ZrPdAu2,0.253099999999999,1.7987104559166691,mp-1096203,0,0.0
SbC(N3Cl2)3,1.9054,0.089989012898286,mp-650049,0,3.0
NaMg3Nb(SO4)6,0.200499999999999,-2.276996926896553,mp-2714626,0,0.0
Ho2InAg,0.0,-0.386477922083331,mp-865297,0,0.0
SmGePd2,0.0,-0.8881711787500011,mp-1188088,0,0.0
La2Li1Fe1O6,1.007969,,,0,1.0
Zr3Au,0.0,-0.387764593749999,mp-11263,0,0.0
Re4K8Cl20O4,0.6544139999999999,,,0,1.0
Cu4BrCl3,0.1787,-0.461359466875,mp-1225692,0,0.0
P2S5,2.554,-0.215660227502126,mp-541788,0,4.0
ErWC2,0.0,-0.306758343124997,mp-1188587,0,0.0
Rb3Hg,0.0,-0.043141508750001,mp-974951,0,0.0
Mg2Nb2SiS5O24,0.7693000000000001,-2.3489197895343152,mp-2713053,0,1.0
MnZnTe4,0.0,-0.409956674099615,mp-1221521,0,0.0
Tl4C2O6,2.611352,,,0,4.0
Er5SbAu2,0.0,-0.8602317895833451,mp-1188308,0,0.0
Mg3SbN,1.623399999999999,-0.705936314,mp-1080847,0,2.0
Ga2P2H9NO11,3.3274,-1.719609335121427,mp-705497,0,5.0
CeMnNi4,0.0,-0.269097694655171,mp-5951,0,0.0
H6Ru1Sr2,2.259029,,,0,3.0
Al8V5,0.0,-0.260518184615383,mp-1214872,0,0.0
LiMnSb2,0.0,0.109278967420976,mp-1207008,0,0.0
MgSnAs2O7,2.0152,-1.945312079772727,mp-1042426,0,3.0
Sr6Mg(Te4O11)2,1.6761,-2.219964907252252,mp-1233312,0,2.0
Ge9Pd25,0.0,-0.45306283102941,mp-15843,0,0.0
Sr5Pb4,0.0,-0.664357346666659,mp-1203353,0,0.0
YHfRu2,0.0,2.8704913275,mp-1097207,0,0.0
Sr4Cu2Se6O18,1.5273,,,0,2.0
LaSn3,0.0,-0.566906818749998,mp-633,0,0.0
NbSn2,0.0,-0.117157088333333,mp-1046,0,0.0
TcB4,0.0,0.384577388499998,mp-1105617,0,0.0
C2N12H18Cl2,4.980278,,,0,7.0
LaSi3Os,0.0,-0.6537202870000011,mp-1069882,0,0.0
Sr2GaSn2O7,0.2338,-2.371302992291666,mp-1048064,0,0.0
Cs2Bi4Br14,2.828562,,,0,4.0
PmHgRh2,0.0,-0.442916833749997,mp-862913,0,0.0
MnNi5N4,0.0,0.011827366718388,mp-1245431,0,0.0
Eu(GaSe2)2,0.0,-1.20667493875,mp-1104392,0,0.0
Lu3C4,0.0,-0.378183050142857,mp-1203767,0,0.0
RbNbS2O9,2.7814,-2.269225859038462,mp-562977,0,4.0
Ce6Cd4Pd13,0.0,-0.667756962173911,mp-1190285,0,0.0
LaAl4Co,0.0,-0.516136435833331,mp-12274,0,0.0
SbPO4,4.002099999999999,-2.355047281607143,mp-3439,0,6.0
CaHF,4.674,-2.426918358749999,mp-1227052,0,7.0
NiPd,0.0,0.042641950000003,mp-1220057,0,0.0
UCu3Pd2,0.0,-0.195082266111114,mp-1216729,0,0.0
In(BO2)5,0.0,-2.42805360140625,mp-1188835,0,0.0
LuCoGe2,0.0,-0.5514128141666681,mp-973938,0,0.0
Tl4Ni2C8N8,2.774573,,,0,4.0
Li2PrP2,0.0,-0.999392025940476,mp-7777,0,0.0
LiY3(PO4)3,0.0,-3.177944673013784,mp-1235146,0,0.0
Hg5Cs1Cl11,2.707992,,,0,4.0
Tb(FeSn)6,0.0,-0.113974608974358,mp-21581,0,0.0
Sm6U3O17,0.0632,-3.845084492499967,mp-1173414,0,0.0
Mg4B16,0.390426,,,0,0.0
CeCo2SiB,0.0,-0.5484892278333321,mp-1226630,0,0.0
UP2O7,0.0929,-3.07597940842857,mp-1200695,0,0.0
CsGdO2,2.4891,-2.911224106163794,mp-755651,0,3.0
NaCN,5.0374,-0.306098440833333,mp-30053,0,7.0
Ca3ZnSe4,2.0499,-1.687047022421874,mp-1079594,0,3.0
CaInCu4,0.0,-0.181928133333334,mp-570769,0,0.0
Ce(Sn3Ru2)2,0.0,-0.34812414090909,mp-20752,0,0.0
Na2Ge(S2O7)3,4.067,-1.8575646463419544,mp-1020145,0,6.0
Na7Ca2Y2P5SO24,4.2774,-2.8924719787895,mp-2715917,0,6.0
NaEr(SO4)2,5.7302,-2.535232650114942,mp-10476,0,7.0
BaGdCuBO5,0.0,-2.848131011018518,mp-1214529,0,0.0
ReW2Br,0.0,1.138445420625,mp-631424,0,0.0
CeTlF5,1.511,-3.519873931011908,mp-1213886,0,2.0
Na3Ti2Zn2P3(SO8)3,2.3372,-2.465727661546843,mp-2713812,0,3.0
Cs12Ta4Se16,2.452631,,,0,3.0
GdGa6,0.0,-0.323896736428569,mp-1104838,0,0.0
Nd4CdNi,0.0337,-0.233335300416664,mp-1210076,0,0.0
KAgTeS3,1.8269,-0.640841080513887,mp-1211783,0,2.0
KRb2AlCl6,4.6491,-2.160005042224999,mp-1113984,0,7.0
Pb2Mg1W1O6,2.376802,,,0,3.0
Al3(PO4)4,0.0,-2.641377338742236,mp-608080,0,0.0
Cs(BO)12,0.0,-1.292962129186206,mp-1192281,0,0.0
Zn2GeO4,2.2752,-1.969291861428572,mp-5909,0,3.0
CuSn(PO4)2,0.399999999999999,-2.223373917023809,mp-758849,0,0.0
NaMg3Al6Si6B3O31,0.097299999999999,-3.035102316777586,mp-728227,0,0.0
Bi4Cu2K2S8,0.903043,,,0,1.0
RbMg14V,0.0,0.253540270156249,mp-1028310,0,0.0
Th2Ta2O9,3.506,-3.779916136320512,mp-29368,0,5.0
AsXeF7,2.8699,-1.8946784313888752,mp-27750,0,4.0
Al4Ni15Ge,0.0,-0.387781004000002,mp-1228288,0,0.0
Sr3CaZr16(PO4)24,4.1978,-3.254246265795918,mp-1218809,0,6.0
PH7CN2O5,5.4918,-1.311897468962054,mp-542041,0,7.0
Ba6Hg6O12,2.255012,,,0,3.0
Y4C5,0.0,-0.304072381666668,mp-9459,0,0.0
KPt3O4,0.0,-0.9608128652812492,mp-1211302,0,0.0
HoTmCd2,0.0,-0.28529741625,mp-1184872,0,0.0
Ce(PRh)2,0.0,-1.209520480190474,mp-505502,0,0.0
Na3YMgP2SO12,4.3849,-2.763262734046182,mp-2712556,0,6.0
KLa3,0.0,0.4282747755,mp-973250,0,0.0
Cu3N,0.1947,0.19208041625,mp-1933,0,0.0
LiYGeO4,3.817,-2.891697127619047,mp-1211012,0,6.0
Na6Ca2Si3Ge2(SO8)3,0.0,-2.36538454560273,mp-2716270,0,0.0
HoTl,0.0,-0.428563092499992,mp-1540,0,0.0
Sr2YCu2BiPbO8,0.0,-2.248471217666666,mp-1219942,0,0.0
NaSmHg2,0.0,-0.431585578750002,mp-865108,0,0.0
Ba(GaSe2)2,1.8578,-1.36306374919643,mp-7841,0,2.0
LaTh4O10,0.0,-4.126057385666665,mp-756428,0,0.0
Na2Zr4Si3(SO8)3,2.4979,-2.89100960931274,mp-2713427,0,3.0
Ce3Nd2O9,1.7969,-3.821363692857143,mp-676077,0,2.0
NaZrZnP(SO6)2,3.5023,-2.429025796260491,mp-2715564,0,5.0
Mg30TiBiO32,0.0,-2.872412494583333,mp-1040359,0,0.0
Nb4S12,0.276452,,,0,0.0
KEuHfTiO6,0.0,-3.292914888558333,mp-1521954,0,0.0
Hf2V3Ge,0.0,-0.272989803333333,mp-1224430,0,0.0
ZnRhF6,0.0,-2.010389030625,mp-15637,0,0.0
K2P2Pd,1.0789,-0.516321371757141,mp-7505,0,1.0
ThAl2,0.0,-0.509280889999999,mp-669,0,0.0
GdMgAg2,0.0,-0.281870002083331,mp-1184490,0,0.0
MgCu2Ag(SO5)2,0.109799999999999,-1.558777495104166,mp-2233356,0,0.0
CuH12(IN)4,0.7524000000000001,-0.480817820714285,mp-634716,0,1.0
Rb2LiAlF6,7.248,-3.423521409833333,mp-1113747,0,7.0
Ba2YAg5S6,1.365799999999999,-1.240946243095236,mp-1104423,0,2.0
ZrVCo,0.0,-0.207111278666663,mp-1215194,0,0.0
Cd2As2K2,0.140021,,,0,0.0
La4Li2Ru2O12,0.307157,,,0,0.0
Lu7(TeRu)2,0.0,-0.7209396563636371,mp-1210749,0,0.0
Zr2CoNi,0.0,-0.3953490375,mp-1215600,0,0.0
Ba2Si3Au,0.0,-0.440042773333333,mp-1228346,0,0.0
Sr21Hg109,0.0,-0.280317985788467,mp-1219820,0,0.0
MoCl3,0.150099999999999,-0.9998242821875,mp-22853,0,0.0
CaTlCl5O7,0.0,-0.667494508452381,mp-1181953,0,0.0
P4F8O8C4N4,5.903269,,,0,7.0
Ti3AlO6,0.0,-3.25269935175,mp-1048819,0,0.0
La6Ni20As13,0.0,-0.6855919971153841,mp-1212204,0,0.0
Sm5Co19,0.0,-0.0292326918749999,mp-1197433,0,0.0
CoWN3,0.1728,0.037443002875002,mp-1247505,0,0.0
CaPd3C,0.0,-0.201407233499998,mp-12572,0,0.0
Er(FeB)2,0.0,-0.451049055666666,mp-3190,0,0.0
TeI2,0.7359,-0.288183233888888,mp-862773,0,1.0
TaSi2PH18C6(NCl3)2,3.105,-0.580549450332672,mp-568259,0,4.0
K2BiBr5O2,1.2438,-0.989030725825,mp-1181561,0,1.0
Na3Ca3Y(SO4)6,4.8298000000000005,-2.51288865835508,mp-2714937,0,7.0
Zr3W5,0.0,0.447910758437494,mp-1188207,0,0.0
ZrGaNi,0.0,-0.646892376944444,mp-1078832,0,0.0
YCuAs2,0.0,-0.9308459400000012,mp-10991,0,0.0
GdMg2,0.0,-0.095684053333331,mp-21049,0,0.0
NdTmTl2,0.0,-0.330607878541674,mp-974708,0,0.0
NaSi2BH2O7,3.9917,-2.515085125234305,mp-862999,0,6.0
RbGaBP2HO9,4.8043,-2.552223135146852,mp-24761,0,7.0
Tm(BRh)4,0.0,-0.581074018518518,mp-1204414,0,0.0
LiCaSb,0.6443000000000001,-1.006045865277776,mp-16264,0,1.0
K2RbPdF5,2.2313,-2.516116336888889,mp-14334,0,3.0
K2Mn1Cl6,0.4561429999999999,,,0,0.0
O24Si12,5.449259,,,0,7.0
Y(CuO2)3,0.018499999999999,-0.997893814,mp-1372494,0,0.0
Cs2AgSbBr6,1.1916,-1.4068146840977,mp-1112943,0,1.0
Ho8In3Co,0.0032,-0.333368739166663,mp-1192267,0,0.0
S40,1.975665,,,0,3.0
LaV,0.0,0.549601012499998,mp-973891,0,0.0
EuSeO3,0.086599999999999,-2.250813653468751,mp-755177,0,0.0
TiBi(PO4)3,0.2153,-2.520460233956581,mp-1043764,0,0.0
Cu6Hg3(SbS3)4,0.186099999999999,-0.4518013059,mp-1190563,0,0.0
TbTa5Ag2O15,2.5293,-3.001481598550724,mp-1208376,0,4.0
Mn12Ge4N3,0.0,-0.262834666851181,mp-1222504,0,0.0
Al12Si12Ag16S5O48,0.0,-2.462017470905016,mp-1248193,0,0.0
Ba(PRu)2,0.0,-0.9410360498571412,mp-4484,0,0.0
Pt4D18Li10,0.0,,,0,0.0
Na7Y2Ti2Si3(PO8)3,2.5991,-3.022693554884156,mp-2714730,0,4.0
Mg2VNi3S8,0.0,-0.885202930714284,mp-1246825,0,0.0
Fe4N,0.0,-0.056231034999999,mp-535,0,0.0
BaAlCuSnO5,0.0,-1.974052467777778,mp-1042199,0,0.0
TcAgO4,1.6034,-1.52597048111111,mp-7206,0,2.0
H8Pd(NCl3)2,1.0278,-0.822487205,mp-643735,0,1.0
Cs2KTlI6,0.5223,-1.206729194989369,mp-1112692,0,0.0
NaPt,0.0,-0.242267979137935,mp-1186175,0,0.0
Cr2P2Se6,1.105565,,,0,1.0
Sc2Al3Ru,0.0,-0.6516289283333321,mp-10911,0,0.0
GdAgSe2,0.0,-1.371408310781245,mp-1097028,0,0.0
BeAlPt2,1.469599999999999,1.63971887375,mp-1097646,0,2.0
TiGeOs,0.0,-0.593652570000001,mp-1208195,0,0.0
SrCuH4(CO2)4,0.6988000000000001,-1.448279712222222,mp-1205438,0,1.0
LiAu(S2O7)2,1.983299999999999,-1.644062793166666,mp-1105750,0,3.0
Ca2F4,6.267186,,,0,7.0
Cd2Pd6O8,0.0,,,0,0.0
Re6Pb6O19,0.0,-1.77286048596774,mp-758073,0,0.0
HfAlPt2,0.0,-1.117120210625003,mp-1206362,0,0.0
GdCu5,0.0,-0.165827425000001,mp-636253,0,0.0
CsH24Ru(SO10)2,0.6028,-1.407301452440731,mp-707854,0,0.0
Mg4AlZn11,0.0,0.0572603681249999,mp-1222218,0,0.0
HoSbO4,2.3323,-2.869708189583331,mp-1212288,0,3.0
GaH12C4NCl3,3.9409,-0.461414372976191,mp-600257,0,6.0
Nb3(BiO3)5,1.267199999999999,-2.310411621086957,mp-645592,0,2.0
RuRh,0.0,0.032567702500003,mp-1219503,0,0.0
Ba2HfS4,0.8648,-2.208330561428571,mp-9321,0,1.0
K2Os(NO5)2,0.0,-0.710323496633334,mp-1180977,0,0.0
LaTl(SO5)2,1.211399999999999,-1.71626776327381,mp-1197791,0,1.0
Li(FeGe)6,0.0,-0.189658964615384,mp-652399,0,0.0
Sn3Mo15Se19,0.0,-0.529085737086148,mp-1219414,0,0.0
SmGa3Pt,0.0,-0.7160804474999971,mp-1219019,0,0.0
S(NF3)2,3.2434,-0.4636795886111099,mp-1207067,0,5.0
NpSnRh2,0.0,-0.217914920937499,mp-864834,0,0.0
Ba11(CN5)2,0.3746,-0.666403935652174,mp-1246400,0,0.0
La2As2O6,2.704954,,,0,4.0
CS3,0.168999999999999,0.658470432633928,mp-734582,0,0.0
Pr3AlFeS7,0.0,-1.847838409791666,mp-1191486,0,0.0
Ba4Na(BO3)3,3.9753,-3.050984258095842,mp-6575,0,6.0
ZrFeSi2,0.0,-0.669065311041666,mp-1199521,0,0.0
Fe2Cr4O8,1.550126,,,0,2.0
Pd2Li4F12,1.976614,,,0,3.0
Lu2MgOs,0.0,-0.213461112083335,mp-865315,0,0.0
TbReB4,0.0,-0.6416628525000001,mp-1192121,0,0.0
Ho3(Al3Ru)4,0.0,-0.6611149184210511,mp-1212260,0,0.0
KTa5O13,3.1991,-3.291708990864036,mp-27169,0,5.0
Co21(SnB3)2,0.0,-0.159943118448275,mp-542739,0,0.0
CaLa2BiO6,0.0,-2.9915695650000003,mp-1396966,0,0.0
HoMg(SnO3)2,0.0,-2.562192504499999,mp-1049287,0,0.0
H4IN,3.6458,-0.572706234166666,mp-643062,0,5.0
TiNb(BiO3)3,2.4233,-2.431936003095239,mp-1216863,0,3.0
K3NaNp4H4(S2O13)2,0.4573,-2.456045820669747,mp-1199989,0,0.0
Sc4Te10O26,2.939153,,,0,4.0
DyP3H5O6,1.3218,-1.822977549789681,mp-1225759,0,2.0
NdAgPb,0.0,-0.5761480291666641,mp-20880,0,0.0
Sr2YTaCu2O7,0.0,-2.615382315564102,mp-1046305,0,0.0
TaSiPt,0.0,-0.7046382007777771,mp-1208554,0,0.0
Sn2Pd2Au,0.0,-0.368197793000018,mp-1219001,0,0.0
BaP3NO11,2.4885,-2.342527926808036,mp-1202402,0,3.0
Fe2CoN2,0.0,-0.000673399000001,mp-1245531,0,0.0
Ba3Sr4O7,2.4311,-2.9288347089285702,mp-760515,0,3.0
LaN2Cl5,2.236799999999999,-1.2060216628124991,mp-1213500,0,3.0
MgCuAs2O7,0.043899999999999,-1.806012882727272,mp-1042399,0,0.0
AgH4CSN2Cl,2.6044,-0.483836554541667,mp-1201812,0,4.0
SmPd,0.0,-0.8843563675,mp-31380,0,0.0
Mg2TlCd,0.0,1.142990016666665,mp-1096612,0,0.0
La8N4S6,1.198111,,,0,1.0
Nd3Pd,0.0,-0.131874508124998,mp-976423,0,0.0
LaPrZn2,0.0,-0.307574546666666,mp-1185138,0,0.0
CsHo3,0.0,0.730355778017241,mp-1183916,0,0.0
Li2As2Se4,0.304606,,,0,0.0
SrMg6BiO8,0.553499999999999,-2.47735703875,mp-1033410,0,0.0
Au2Se16K6P4,1.178519,,,0,1.0
Ba2NdCu2HgO7,0.0,-2.061667085,mp-1214587,0,0.0
Cd2CuPt,0.0,1.402704580000001,mp-1096359,0,0.0
SbH7F11,0.395,-1.929520333355263,mp-676763,0,0.0
PrSi2Ru,0.0,-0.7902706516666661,mp-31083,0,0.0
Sr2RuN2,0.0,-0.627311666166662,mp-1245855,0,0.0