formula,bg,formation_energy,mp-id,fidelity,bg_category
Ta3CrSe6,0.0,-1.037401092606248,mp-1187280,0,0.0
Sm(CoGe)2,0.0,-0.596627511000003,mp-4334,0,0.0
TmLuMg2,0.0,-0.033474039166669,mp-865210,0,0.0
AsPCl3OF5,4.5687999999999995,-2.072597064967532,mp-557360,0,7.0
MgSb2O5,0.0,-1.862902789375001,mp-1411280,0,0.0
CsLaO3,0.0,-2.224715933931035,mp-1183918,0,0.0
ScCrC2,0.0,-0.3405148062499999,mp-4992,0,0.0
LiDyIn2,0.0,-0.487198355416666,mp-974059,0,0.0
Ag11Hg9,0.0,0.078607919083339,mp-770433,0,0.0
CuPO5,0.0,-1.351393367806123,mp-1181537,0,0.0
K2TiTlF6,0.0,-3.031086850116667,mp-1111414,0,0.0
Sb8Cl2O11,2.883,-1.721948148809524,mp-557022,0,4.0
BaSrTbHfO6,0.0,-3.457829558416667,mp-1522244,0,0.0
Hf2Ga3Ni,0.0,-0.51632038375,mp-1223946,0,0.0
KB3(HO3)2,5.1004,-2.411243223677083,mp-605642,0,7.0
MnAl24Cr,0.0,-0.084138947612731,mp-1221714,0,0.0
CsLaZnTe3,1.587399999999999,-1.366428569109195,mp-510460,0,2.0
Pu3Br,0.0,0.27211999218751,mp-1186813,0,0.0
La(CuSi)2,0.0,-0.618768921,mp-3995,0,0.0
CaZnSiH2O5,3.639999999999999,-2.46385951625,mp-696853,0,5.0
Ca5ThF14,4.8369,-4.140358005416674,mp-675846,0,7.0
Tc2Xe2F10O8,2.039202,,,0,3.0
TmZnGa,0.0,-0.6318103516666671,mp-1071694,0,0.0
Mn4CdS5,0.0,-1.021653665699354,mp-1221706,0,0.0
Mn2AlRe,0.0,-0.197732694590518,mp-864989,0,0.0
Os4Te4Sb4,0.872381,,,0,1.0
Te2NO7,0.0,-1.108604792583332,mp-1203388,0,0.0
Cs4Co4O8,0.5370039999999999,,,0,0.0
K4(S2O3)5,0.097299999999999,-1.1317639147931031,mp-867980,0,0.0
Li2Ti7O15,1.5360999999999991,-3.297761216458334,mp-756565,0,2.0
LuAlCu2,0.0,-0.415212584166663,mp-1185509,0,0.0
K4Np3H8Cl7O10,0.2418,-2.148874753445313,mp-1199713,0,0.0
Nb2CuTc,0.0,3.632008864999996,mp-1096414,0,0.0
Bi(Mo2Cl5)3,2.133299999999999,-1.355434271022727,mp-679989,0,3.0
Cr24P11C,0.0,-0.326428645446428,mp-1226632,0,0.0
ZrCoN2,0.0,-0.8024657887500001,mp-1246862,0,0.0
TbHg3,0.0,-0.421204935625006,mp-867288,0,0.0
Nb(NCl3)2,0.0,0.278643158425928,mp-1205990,0,0.0
Na6Ta4Al4Si7S5O48,2.2836,-2.77533497646544,mp-2713028,0,3.0
CoSnRh2,0.0,-0.205864253749999,mp-1018085,0,0.0
Sm2CdRh2,0.0,-0.627479651000002,mp-1206219,0,0.0
LaTiNbBi2O9,1.7236,-2.8400828741666673,mp-636654,0,2.0
Ba(SnSe)32,0.0,-0.67073484653846,mp-1120806,0,0.0
Ta4Ag6K6S16,2.297443,,,0,3.0
NaAl2Ga2PS5O24,2.9887,-2.2478020157673,mp-2714049,0,4.0
NaPrPCO7,0.1606,-2.590824706153529,mp-767717,0,0.0
V4O8,0.897817,,,0,1.0
Mn2GeS4,0.0,-0.7185546969088661,mp-621925,0,0.0
UInPd,0.0,-0.312846546851845,mp-1078683,0,0.0
Zr3Pb(O2F3)2,2.844999999999999,-3.663523270357143,mp-541097,0,4.0
P8S12,2.085955,,,0,3.0
Mg14CdBi,0.0,-0.000987539999999,mp-1026441,0,0.0
Li2Bi2(SO4)3,1.8644,-1.891518465745614,mp-777356,0,2.0
DyTl3,0.0,-0.294048468750006,mp-2415,0,0.0
ZrWC2,0.0,-0.476254043749999,mp-1215167,0,0.0
U2IrC2,0.0,-0.340684823999998,mp-6940,0,0.0
Th2N2O,1.9719,-2.5607627569999982,mp-1206128,0,3.0
Ce3NdC8,0.0,-0.256286250520837,mp-1226856,0,0.0
TiZn2IrO6,0.0,-1.993011589833332,mp-1369121,0,0.0
RbAg(PO3)2,2.9292,-2.3290688688452392,mp-1209385,0,4.0
Sr(InHg)2,0.0,-0.315897921666668,mp-1068325,0,0.0
Ta10Zn2Si9(SO8)9,1.4951,-2.694844786674838,mp-2713771,0,2.0
Er4MgZr4O14,0.0,-3.573122541956521,mp-1234243,0,0.0
Zn16V8O36,2.805157,,,0,4.0
Sm4MgRh,0.0,-0.357029802083332,mp-567957,0,0.0
Ge2C2(SeF2)3,2.424,-1.353944768040864,mp-541146,0,3.0
SmSnPd,0.0,-0.917127909999999,mp-571581,0,0.0
Na2Hf6Mg2Si3(S3O16)3,2.9265,-2.704678355717981,mp-2716292,0,4.0
Li2Ce2Ge3,0.0,-0.6318557138095231,mp-3770,0,0.0
BaPb2C2(O3F)2,4.0572,-2.347954051538461,mp-560874,0,6.0
La2TeO2,2.028699999999999,-3.386965779333334,mp-4547,0,3.0
SmAgH4C2SO10,2.5559000000000003,-1.804252106008772,mp-1196380,0,4.0
Sb2Te2Se1,0.09943,,,0,0.0
SmPuO3,0.0,-2.849570497749998,mp-981250,0,0.0
Ho4(CoB2)3,0.0,-0.350014519615383,mp-1103959,0,0.0
Na3LiCuPCO7,1.8161,-2.114544749793865,mp-775936,0,2.0
Ca6Ti5AlSi6O29F,2.4854000000000003,-3.485607767951389,mp-693358,0,3.0
Zn2InI4,0.0,-0.5983723680952381,mp-1207577,0,0.0
KPrAlBiO6,0.0,-2.414907063891667,mp-1522018,0,0.0
TmCdAu2,0.0,-0.660687274999999,mp-865887,0,0.0
KH2SNO3,5.2066,-1.45599771059375,mp-1203260,0,7.0
MgBHO3,5.5459,-2.595760374236111,mp-23748,0,7.0
BaSrHf2O6,3.748199999999999,-3.784133113999999,mp-1227645,0,5.0
Na7Y2Nb2Si5PO24,2.2647,-2.973460965064179,mp-2714497,0,3.0
Ba8N8B4O2,2.815286,,,0,4.0
TiBeAu2,0.274,1.721783805416666,mp-1093715,0,0.0
SbSI,1.6276000000000002,-0.605854298333329,mp-23041,0,2.0
Cs1I1Cl2,2.243851,,,0,3.0
Nb3ICl6,1.0733,-1.573383112124999,mp-28585,0,1.0
Y3Al6Si6B3H3O31,0.0,-3.099765021274039,mp-1207887,0,0.0
Ce10Y22O53,1.8209,-3.919867537117645,mp-531564,0,2.0
RbBi2,0.0,-0.323160939166671,mp-23253,0,0.0
NaMg14CO16,0.810399999999999,-2.615430442074353,mp-1034419,0,1.0
K2AgPdF6,0.0,-2.153241984616666,mp-1112279,0,0.0
U8MnSe17,0.0,-1.36883480837595,mp-1194359,0,0.0
RbSm2I5,0.0,-1.417209939375,mp-1209205,0,0.0
Dy3Pt,0.0,-0.7920070031249931,mp-1105479,0,0.0
Na2NbSi2SnPO12,2.816099999999999,-2.77587362942464,mp-2715108,0,4.0
NpB12,0.0,-0.265630878365385,mp-1103809,0,0.0
LiCuCSO7,0.0,-1.667625056893938,mp-768599,0,0.0
Na2Sb8S13O2,0.0,-0.479004570410343,mp-1210386,0,0.0
NaScS2,1.678999999999999,-2.00244756515625,mp-999460,0,2.0
Th2Fe17,0.0,-0.017917188947366,mp-843,0,0.0
ScAlAg2,0.0,-0.328348003749999,mp-31169,0,0.0
NiP,0.0,-0.452832292113093,mp-27844,0,0.0
VH2,0.0,-0.226861982499999,mp-24728,0,0.0
Ba3Ga2Ge4O14,2.112478,,,0,3.0
Sr2GdNbO6,2.8344,-3.413976458500001,mp-1518774,0,4.0
Cs4Cu1Si2O7,1.528432,,,0,2.0
Na6La2In2Si3(SO8)3,2.3836999999999993,-2.53619156885273,mp-2716159,0,3.0
Na2IrAuF6,0.3562,-1.82079917266667,mp-1111304,0,0.0
DyAl3,0.0,-0.480560818749998,mp-864995,0,0.0
Sr3Zn3Te(PO7)2,2.9354,-2.63813170721532,mp-1190181,0,4.0
Ca3Au4,0.0,-0.8282316014285731,mp-12699,0,0.0
BaPt2S3,1.3649,-1.229962742916658,mp-558588,0,2.0
AgPO4,0.0,-1.596965384176587,mp-1352343,0,0.0
S2(NO2)3,0.0,0.232316318181817,mp-1192108,0,0.0
Hf2Zr8Ta8Ti4Nb5B54,0.0,-0.8887505525967081,mp-2646932,0,0.0
Li2CdAu,0.0,-0.435236238333331,mp-865577,0,0.0
NpSbTe,0.0,-0.7913595468055591,mp-1018824,0,0.0
Y2Zr24O51,2.6145,-3.767211850844157,mp-531103,0,4.0
Rb4MgTi2(CuS2)4,0.0,-1.16926130114035,mp-2228392,0,0.0
Ca8Mn3N8,0.0,-0.969455304410163,mp-1246243,0,0.0
Mo2Cl2P2Rb2O10,0.4309449999999999,,,0,0.0
TiSbRh,0.0,-0.33756545111111,mp-1206908,0,0.0
Y2AgIr,0.0,-0.5774173904166641,mp-866160,0,0.0
EuTl2Cd,0.0,-0.322450771250004,mp-861902,0,0.0
Na6Sc2Ta6Si9(SO16)3,2.7956000000000003,-2.9767839784879633,mp-2712848,0,4.0
BaYCuS3,1.1779,-1.950495586249999,mp-1103275,0,1.0
CrGaTe,0.0,0.356367661944444,mp-631421,0,0.0
Ba2LiHg,0.114899999999999,1.022201031041665,mp-1096603,0,0.0
BeInSi2,0.0,0.7485456745833331,mp-631467,0,0.0
Sn4I4Cl4,2.369537,,,0,3.0
Ca2Pr19(CoI12)3,0.0,-1.501972301861111,mp-1228704,0,0.0
C(Se2Br)2,1.5997,-0.281954660267857,mp-28131,0,2.0
Lu2MgCd,0.0,-0.149581029583333,mp-973759,0,0.0
Tb2CdCu2,0.0,-0.285950077666666,mp-1208521,0,0.0
BiSb2Os,0.0,0.7353753435416761,mp-631474,0,0.0
Ti2In2SiS5O24,2.1422,-2.263233080220588,mp-2712950,0,3.0
LaNb2CuBrO7,0.2314,-2.7863151875,mp-1201335,0,0.0
EuTiClO3,0.0,-3.197513430555556,mp-555860,0,0.0
LiH2N,3.135799999999999,-0.5905356927083331,mp-23702,0,5.0
Tb2Al,0.0,-0.343376898333332,mp-1103391,0,0.0
Cr7Te8,0.0,-0.340036060888888,mp-1213756,0,0.0
Na7Zr3Nb(SiO4)6,2.7923,-3.086092286333053,mp-2713025,0,4.0
Ta4FeS8,0.0,-1.315657393410258,mp-554416,0,0.0
CsH3AuN,0.8861,-0.327236564166675,mp-1192000,0,1.0
LuSnAu,0.0,-0.931271765555555,mp-5177,0,0.0
Sr4Mo2Ca2O12,1.816548,,,0,2.0
Yb(BRu)4,0.0,-0.541484531111112,mp-1200533,0,0.0
Na5ZrGa3(PO4)6,3.603399999999999,-2.68630306710907,mp-2716544,0,5.0
Si4CO13,1.077,-1.674491538888889,mp-1209673,0,1.0
YSnAu2,0.0,-0.681623648749997,mp-865514,0,0.0
H16PtC4(NCl3)2,2.2425,-0.5263173282758611,mp-1194093,0,3.0
AlNCl4,0.0,-0.220567450000001,mp-1191162,0,0.0
Ta6Al8O27F,0.0,-3.336769284380953,mp-1218123,0,0.0
TmCu2,0.0,-0.294117043333334,mp-1077209,0,0.0
Ba4ZrN4,0.8917,-0.9207402516666672,mp-1245594,0,1.0
Mg6VCo,0.0,0.267129617499999,mp-1022082,0,0.0
KHfZrBiO6,0.802,-2.871659386725,mp-1521210,0,1.0
Na14Nb5Ga3(SiO4)12,2.524599999999999,-2.825277734656224,mp-2712861,0,4.0
Ba2Rh4Si18,0.136947,,,0,0.0
KCeH2S2O9,0.013799999999999,-2.268196608816666,mp-510463,0,0.0
Na3AuCl6,0.0,-1.321830939413793,mp-1113311,0,0.0
MgPHO9,0.0,-0.682274101324405,mp-632723,0,0.0
NaTiPCO7,2.6906,-2.639933244941409,mp-767556,0,4.0
MgVCoS4,0.0,-1.058138901428571,mp-1247035,0,0.0
Ba2AsAu,0.5211,-0.946146861875,mp-861937,0,0.0
Zr6Zn23Ge,0.257499999999999,-0.328160350166666,mp-1207432,0,0.0
S4F10N2C2,2.783295,,,0,4.0
Na(MoSe)3,0.0,-0.8244828326547111,mp-1103846,0,0.0
CsEuTa6Cl18,0.109199999999999,-1.903183706679044,mp-1213620,0,0.0
Sr2B8Ru7,0.0,-0.423724595,mp-649084,0,0.0
K5As4,0.0,-0.420609611805556,mp-1223503,0,0.0
Na2IrO3,0.0,-1.542240887959768,mp-754844,0,0.0
TiVFe,0.0,0.080999153888889,mp-1216964,0,0.0
Mn6Ni16As7,0.0,-0.21450196448573,mp-21628,0,0.0
Tb4GaSbS9,2.0116,-1.843069935777776,mp-1202576,0,3.0
Cd1K2N12,2.887168,,,0,4.0
ThN3F7,0.026899999999999,-1.626563265454546,mp-1179398,0,0.0
Na4Zn2S4,2.727241,,,0,4.0
BaTa4O11,3.4836,-3.392521305583331,mp-769399,0,5.0
Tb2B4C,0.0,-0.6493043942857151,mp-1025379,0,0.0
La4C5Cl2,0.0,-0.944688601818183,mp-667192,0,0.0
YTh9MgO20,0.5968,-4.084920968225806,mp-1233234,0,0.0
SrZn(SeO3)4,0.0,-1.150475910520833,mp-1516822,0,0.0
Na2Nb4Al4Si5S7O48,1.2587,-2.5871985989322672,mp-2716187,0,2.0
RbLaTa2O7,2.2853,-3.382045553833332,mp-541600,0,3.0
HfU3Sb5,0.0,-0.7054986188888891,mp-12890,0,0.0
KTl(CN)4,5.5212,0.233115227941665,mp-12334,0,7.0
Ti2Ni,0.0,-0.277328606388889,mp-1808,0,0.0
Ag5(PbO3)2,0.0,-0.8022593106410231,mp-22286,0,0.0
Bi8AsAuCl9,1.385199999999999,-0.906302310526317,mp-570053,0,2.0
CsTl(SO5)2,0.0,-1.2845182323563231,mp-1193610,0,0.0
Na7Ca3Nb(PO4)6,2.014599999999999,-2.8510713079881063,mp-2714076,0,3.0
CsGaP3HO10,4.8914,-2.52582192045836,mp-1200666,0,7.0
Rb2YAgCl6,3.8008,-2.172295242666666,mp-1110800,0,6.0
NdFeSb3,0.0,-0.6005669652499991,mp-1201926,0,0.0
Mn3S,0.0,-0.17790633078933,mp-975439,0,0.0
PrCr2Si2C,0.0,-0.388670934444444,mp-21402,0,0.0
GdN,0.0,-1.815181784374996,mp-940,0,0.0
Ce2Bi,0.0,-0.8024929899999991,mp-1077367,0,0.0
Na5P3H2O11,0.3449,-2.278065357777386,mp-722904,0,0.0
C8Na2O10H6,2.8393930000000003,,,0,4.0
Sm5Rh4,0.001,-0.7024024444444481,mp-1196525,0,0.0
Se4In4,1.014549,,,0,1.0
K8MgTi2O8,0.3797,-2.151294387350876,mp-2231066,0,0.0
Li2CuP6H20C2(N3O11)2,0.4524,-1.5699968827037931,mp-721086,0,0.0
CaAs3,0.0,-0.6725508368750001,mp-1900,0,0.0
Pt1Cs2Cl6,2.064804,,,0,3.0
Cs4Ti2Ag4S8,1.525452,,,0,2.0
Sm3(CoGe2)2,0.0,-0.693794579444444,mp-567997,0,0.0
Ca2Ti2Si2O10,2.791525,,,0,4.0
Y10U4O27,1.7321,-3.891439072804877,mp-685633,0,2.0
TmZn2,0.0,-0.445124533333334,mp-569406,0,0.0
Gd(SiNi5)2,0.0,-0.388018544615385,mp-1225143,0,0.0
Gd(Al3Ni)3,0.0,-0.524354092692306,mp-568693,0,0.0
K6InP3,0.748699999999999,-0.315470439909522,mp-1224505,0,1.0
ScP3(HO2)6,5.306699999999999,-2.28667560211039,mp-696457,0,7.0
Sn12Na10Sr1,0.665053,,,0,1.0
Rb2N2D4,1.974114,,,0,3.0
TmTlTe2,0.743599999999999,-1.2342258841666611,mp-1008561,0,1.0
Y6Ga6O18,2.81212,,,0,4.0
Sm12Al7Si,0.0,-0.403014774645836,mp-1209154,0,0.0
Tb6Ge3Se14,1.107899999999999,-1.576002175122284,mp-1217650,0,1.0
YFeNi4,0.0,-0.237412833333332,mp-1215961,0,0.0
Gd2InPd2,0.0,-0.8504641243333311,mp-20654,0,0.0
Hg1N8B2C8,4.561948,,,0,7.0
NaCaNbP2SO12,1.8196999999999992,-2.6625054712869463,mp-2712763,0,2.0
ScH11(BrO3)2,4.143599999999999,-1.5181751279375,mp-1197297,0,6.0
Re2PtRh,0.0,0.5032646783633651,mp-631377,0,0.0
Ho2CuTe2(SO7)2,0.8660000000000001,-2.282444884206348,mp-1190440,0,1.0
Rb2TlGaCl6,2.5867,-1.783494178583334,mp-1114004,0,4.0
LuNb6Cl13O3,0.947099999999999,-2.127828529202898,mp-1211982,0,1.0
RbCuO3,0.0,-0.6591540465000001,mp-975364,0,0.0
ErFeC2,0.0,-0.276566877499998,mp-1018064,0,0.0
LuUTc2,0.0,-0.130547316041685,mp-865488,0,0.0
PbBr2,2.6578999999999993,-1.293377115833332,mp-2456335,0,4.0
NpScTc2,0.0,-0.094568220937501,mp-1186342,0,0.0
La4PtO7,0.9892,-3.352182622083333,mp-1223078,0,1.0
Ho4Al,0.0,0.481352507500008,mp-1212293,0,0.0
SCl2,2.093,-0.115615843472221,mp-28128,0,3.0
RbMgNbO3,1.9038,-2.32315563125,mp-2227220,0,3.0
LaAu,0.0,-0.8244094650000041,mp-1002136,0,0.0
Zr3V3C,0.0,-0.260492084499996,mp-505573,0,0.0
NaSmSe2,1.8016,-1.976580612031249,mp-999450,0,2.0
Ba2V(CuS2)3,0.682399999999999,-1.308857779999999,mp-560493,0,1.0
SrCa3Al6Si6(HO13)2,4.9056,-3.275320132329545,mp-1218654,0,7.0
HoGa2Co3,0.0,-0.364180751666663,mp-1105905,0,0.0
Al3Tc,0.0,-0.3549679925,mp-867347,0,0.0
SrCa(RuO3)2,0.0,-2.199978838,mp-1218505,0,0.0
NaCeTi4O12,0.0,-2.998830302484036,mp-1523025,0,0.0
Ba2Zn3F10,4.2996,-3.231544782666666,mp-1214592,0,6.0
Ce2SnS5,0.0,-1.733398568437499,mp-1106406,0,0.0
Gd(CoSi)2,0.0,-0.7713836000000001,mp-542985,0,0.0
K2InHgBr6,0.0,-1.368445925366667,mp-1112203,0,0.0
TaTc,0.0,-0.567750153666672,mp-11572,0,0.0
Ba2Zr6BCl17,1.0883,-2.324829702660257,mp-568105,0,1.0
Na14Ti4Zn4Si7S5O48,1.5274,-2.536429974757851,mp-2715759,0,2.0
Sm2Nb2S7O30,0.117299999999999,-2.263603196158536,mp-1201050,0,0.0
MnCrSb2,0.0,-0.153557751120693,mp-1221668,0,0.0
TeP2(N2O7)2,1.1097,-1.100976238378683,mp-729179,0,1.0
La2MgZrO6,2.9647,-3.5129807365,mp-1223208,0,4.0
La3SnC,0.0,-0.624586847,mp-1206443,0,0.0
Fe4S8,0.4602279999999999,,,0,0.0
SiBi2O5,2.7077,-2.280801145625002,mp-28144,0,4.0
Ca2AgSn,0.0,-0.532931791666665,mp-867751,0,0.0
NaGa(TeO3)2,3.014999999999999,-1.802984319596264,mp-554193,0,4.0
Ba8Lu3(Pt2O9)2,0.0,-2.693198786969698,mp-1214446,0,0.0
MgSc2Nb2O8,0.6437,-3.16105658653846,mp-2241366,0,1.0
Tb3Ni7P5,0.0,-0.980519161714284,mp-1217778,0,0.0
K3Zn2Cl7,3.6029,-1.915471735145833,mp-1190451,0,5.0
CoN3Cl5,0.069799999999999,1.016344269722223,mp-1204466,0,0.0
MnP2,0.0,-0.431280275738916,mp-754064,0,0.0
LiY2Os,0.0,-0.226022481666667,mp-862719,0,0.0
Na2PdAuF6,0.0,-1.755471605333335,mp-1111301,0,0.0
Cu4K2Se8Ta2,1.798504,,,0,2.0
Ta2FeMo,0.0,-0.164796696166664,mp-979267,0,0.0
Mg6NbCdO8,0.926099999999999,-2.4872770474999992,mp-1033344,0,1.0
CsMg6Ni,0.0,0.262502216293103,mp-1022474,0,0.0
Cs2RbPbF6,0.0,-2.752321537681034,mp-989525,0,0.0
Ba(MgSi)2,0.0,-0.295223082000001,mp-7875,0,0.0
Nd2HgPb,0.0,-0.6318309431249951,mp-1186242,0,0.0
UF3,0.2155,-3.992617684583336,mp-18299,0,0.0
CaTbEuSbO6,0.1396,-2.948490992166666,mp-1519014,0,0.0
Cd2AsCl2,1.0845,-0.923716266499999,mp-27776,0,1.0
Li2B4H4O9,5.145,-2.3158437578070172,mp-604459,0,7.0
Na3CaInSi(SO6)2,0.0658,-2.370553242373564,mp-2712755,0,0.0
Te24Na24,0.508962,,,0,0.0
CeMnSn2,0.0,-0.213597524482757,mp-1206151,0,0.0
CaTiBi(PO4)3,1.1153,-2.812786353736773,mp-1043757,0,1.0
Li3Pr2Sb3,0.0,-0.07637821416667,mp-1211878,0,0.0
Ce(CuSb)2,0.0,-0.470570917999999,mp-1006321,0,0.0
Mg3Zr,0.0,0.058782966249999,mp-1094792,0,0.0
Tl6SeI4,1.6854,-0.772034905667617,mp-28517,0,2.0
Dy2CuRu,0.0,-0.333347355833331,mp-865220,0,0.0
I3O8,0.0,-0.622583312045455,mp-727952,0,0.0
LuTlRh2,0.0,-0.5930293950000011,mp-865438,0,0.0
Ce2Zn2Ni5,0.0,-0.359821763333331,mp-17587,0,0.0
CdIn4TeAs4,0.0,-0.056614669333332,mp-1226770,0,0.0
Cr3N2,0.0,-0.534668094833332,mp-1096898,0,0.0
Lu(SiPt)2,0.0,-1.046290971333337,mp-7109,0,0.0
K2TlAuI6,0.0,-0.894728185783334,mp-1112333,0,0.0
Al4SiPd,0.0,-0.310677451041667,mp-1228117,0,0.0
Y2Ge5Ru3,0.0,-0.6341028914999991,mp-620812,0,0.0
Tb6In23Pt12,0.0,-0.7577299846654191,mp-680468,0,0.0
KPr(SO4)2,5.5778,-2.535914334909721,mp-554057,0,7.0
Sm3(Sb7Te12)2,0.0,-0.495949113780486,mp-675760,0,0.0
HoTmCu2,0.0,-0.2850956162499999,mp-976972,0,0.0
Ba3SrAg4,0.0,-0.280498098333334,mp-1228028,0,0.0
La1N1,0.0,,,0,0.0
Eu5Cd2Sb5O,0.0,-1.2229432823076951,mp-1193503,0,0.0
SnRuW,0.0,0.6243340659523731,mp-631387,0,0.0
Be(B3H7)2,4.314999999999999,-0.198275026666666,mp-27748,0,6.0
Na5Pr4Ge4O16F,3.6885,-2.777117020952107,mp-1192433,0,5.0
Ce1O2,2.145195,,,0,3.0
Np2S5,0.0,-1.604470567366072,mp-1209834,0,0.0
Al2SiSn2S5O24,2.3465,-2.172949801397059,mp-2712836,0,3.0
Sr3CaHf4O12,4.1782,-3.806895532999999,mp-1218494,0,6.0
Na10La4Zn4Si3(S3O16)3,2.948,-2.382344844546493,mp-2714667,0,4.0
WCl3,0.0641,-0.8674048647916661,mp-23269,0,0.0
Os2Sb4F28O4,1.414443,,,0,2.0
Sn4Hf4S12,1.055521,,,0,1.0
ZrTlF5,4.8808,-3.488529985119052,mp-30997,0,7.0
AlRh,0.0,-1.17748661,mp-364,0,0.0
ScInNi2,0.0,-0.442703425416665,mp-21301,0,0.0
Tl8Ga8S16,1.727482,,,0,2.0
SrIn,0.0,-0.420070577708332,mp-608072,0,0.0
Tm3Mg,0.0,-0.011885498750004,mp-1216590,0,0.0
Sr2Ti5(Bi2O9)2,2.094299999999999,-2.888576598505748,mp-1218800,0,3.0
Sr4In8O16,1.76429,,,0,2.0
SrInPt,0.0,-0.761655913055555,mp-22284,0,0.0
Ta2RhW,0.0,4.3657747848194575,mp-1095986,0,0.0
Sn2Sb2S5,0.785099999999999,-0.352255500173605,mp-17835,0,1.0
Rb12Br8O2,1.530168,,,0,2.0
Sr2K2B4Be4O12F2,4.899457,,,0,7.0
Rb2NiP2,0.6448,-0.435391938857142,mp-1205511,0,1.0
EuCdPb,0.0,-0.418606240000006,mp-1018696,0,0.0
SnAs3,0.0,0.354681655520835,mp-978881,0,0.0
Pr5Co2,0.0,0.056821945952382,mp-1104821,0,0.0
NiP2W,0.0,-0.483564948988096,mp-1086669,0,0.0
Ti4(PO5)3,0.080499999999999,-3.124759740633116,mp-684056,0,0.0
ErZnSn,0.0,-0.5560460433333301,mp-1212948,0,0.0
Ti3O10Sr4,1.729746,,,0,2.0
LaMg6V,0.0,0.212580636875,mp-1021700,0,0.0
K2Th(CuS2)2,1.126,-1.4406986949444431,mp-555425,0,1.0
Sr4(PPd)5,0.0,-0.9451931148724492,mp-28201,0,0.0
MgBe2Pt,1.1192,1.76218668625,mp-1093719,0,1.0
LaSn2,0.0,-0.7200286116666681,mp-1077735,0,0.0
Gd4PdO7,1.04,-3.353109737083334,mp-1213473,0,1.0
Sm2PdRu,0.0,-0.535509165859373,mp-867128,0,0.0
Rb4TmI6,0.0,-1.557336632727272,mp-568627,0,0.0
Zn7SiN6,0.5856,-0.210759234642856,mp-1246760,0,0.0
Na6MgTi3Si4(SO12)2,1.8612,-2.779903103123563,mp-2714467,0,2.0
Ta(Si5W2)2,0.0,-0.271019003822217,mp-1217773,0,0.0
SbAsPCl13,2.1081,-1.190696538571428,mp-569209,0,3.0
NaNb2SiGe2P5O24,2.6158,-2.700381875083627,mp-2715802,0,4.0
CaH14I2O7,3.6765,-1.344419831354166,mp-1195969,0,5.0
BaSiO3,4.6708,-3.404013206000001,mp-776084,0,7.0
K2ZnO2,1.9785,-1.577443975899999,mp-8187,0,3.0
YH3,0.0,-0.7154308986458331,mp-1178678,0,0.0
Na2ZnP2,0.0,0.247770289059526,mp-1210372,0,0.0
SrCuAs,0.0038,-0.928628890833332,mp-12557,0,0.0
Li15Ti11Nb5O42,2.2729,-3.056304059817351,mp-767393,0,3.0
Ce2Ge4Pt7,0.0,-0.788867408461537,mp-567664,0,0.0
PaInPt2,0.0,-0.87195052749999,mp-862824,0,0.0
NaNdHg2,0.0,-0.442352603125002,mp-865115,0,0.0
CePr2O6,0.0,-3.316956717037037,mp-1226529,0,0.0
Ba2Si4Be4O14,5.636918,,,0,7.0
CeLu3,0.0,0.024845188749999,mp-1006323,0,0.0
Na8Sc2Zn2Si3(SO8)3,2.565299999999999,-2.504339353417489,mp-2715015,0,4.0
Rb2Ti4P6O24,2.460872,,,0,3.0
Na4B4Sb2SO16,1.9099,-2.323136091469774,mp-769713,0,3.0
Ca3ScN3,0.3366,-1.013330640714285,mp-1247344,0,0.0
Er5BiAu2,0.0,-0.7987123195833371,mp-1181438,0,0.0
TaMnP,0.0,-0.764780168302408,mp-21066,0,0.0
HfP2H4O9,5.4914000000000005,-2.460893436674107,mp-697652,0,7.0
YGaNi,0.0,-0.627158344166667,mp-1102603,0,0.0
Y2(MgZn)3,0.0,-0.251234501874999,mp-1216143,0,0.0
TiPb9O11,2.017,-1.704774214206348,mp-674350,0,3.0
Tm12Fe2Pb3,0.0,-0.224874750588234,mp-1208135,0,0.0
Li4Cu4Cl10O,0.079599999999999,-1.349348990701754,mp-769256,0,0.0
As8K8O24,3.032429,,,0,4.0
Ti10CrSb5,0.0,-0.471670994791669,mp-1217253,0,0.0
Zn2Cu10Sb4S13,0.5294000000000001,-0.483425104051723,mp-1215797,0,0.0
Co2Sn,0.0,0.157687893333333,mp-571365,0,0.0
BaErO3,0.0,-3.164587624999998,mp-1183291,0,0.0
Ba2N1Cl1,1.062833,,,0,1.0
Na2ZnO2,1.4567,-1.6469667305517222,mp-29488,0,2.0
GaBN2,3.1499,-0.6571503875000011,mp-1007823,0,5.0
Ca8Si4S16,3.101568,,,0,4.0
Ho(MnAl)6,0.0,-0.24566306250663,mp-1224066,0,0.0
HfPdAu2,0.5404,1.8682391564583651,mp-1096699,0,0.0
Na30Ca4Nb20Si33(SO48)3,2.15,-2.909643133221707,mp-2716571,0,3.0
Li3AsO4,4.1268,-2.2690334671875,mp-9197,0,6.0
Sc6Ga16Ir7,0.0,-0.642436120689655,mp-1193281,0,0.0
Ag2CN2,1.0037,0.268039843333338,mp-574486,0,1.0
CsB5(H2O3)4,5.9007000000000005,-2.126572790018788,mp-23742,0,7.0
Mn2InN2,0.0,-0.133800908293108,mp-1245585,0,0.0
Bi4Ti3O12,1.349806,,,0,2.0
Cs3SbO4,2.7517,-1.8914261192456892,mp-1201472,0,4.0
FeAg3H6(C3N4)2,0.0,0.032577229687499,mp-690706,0,0.0
BaLaI5,2.3708,-1.899186180714286,mp-755350,0,3.0
CaNdZn2,0.0,-0.307927686875,mp-866220,0,0.0
PmErAl2,0.0,-0.417013890208334,mp-1186559,0,0.0
Hg2Bi4S8,1.114779,,,0,1.0
CI(NO)3,0.597799999999999,0.2588176184375,mp-1198908,0,0.0
Pr3Sn13Rh4,0.0,-0.5715651339999991,mp-683897,0,0.0