formula,bg,formation_energy,mp-id,fidelity,bg_category
Co(PbN)3,0.1149,0.402420515714291,mp-1245608,0,0.0
Ho7Ru2C11,0.0,-0.276935849749999,mp-1212223,0,0.0
Si2CN4,4.3744,-0.807115940714284,mp-30161,0,6.0
Ge3Pb11O17,2.141299999999999,-1.6851794500537631,mp-680143,0,3.0
Th(BOs)2,0.0,-0.5184760096666651,mp-1079803,0,0.0
MgAgF3,2.1901,-2.763583444333332,mp-998418,0,3.0
Ga4Ca4O10,2.114468,,,0,3.0
Na14Zn2Si9Ge6(SO16)3,1.8193,-2.38923755424972,mp-2714860,0,2.0
PbSe,0.425699999999999,-0.6725727545312451,mp-2201,0,0.0
La3MgTi2N3O4,0.0,-2.5010933578205132,mp-2226952,0,0.0
SrMnBi2,0.0,-0.33530029323276,mp-29207,0,0.0
Zn3Cr8FeSe16,0.0,-0.810931952767856,mp-1215604,0,0.0
Mg3Ti,0.0,0.186571565416666,mp-1094395,0,0.0
La(PRh)2,0.0,-1.128313337857143,mp-1080183,0,0.0
Na10Ca3Sn5(PO4)12,1.8573,-2.6313314264253083,mp-2713528,0,2.0
Er2Cu(B2O5)2,0.6619,-3.028765231568627,mp-17699,0,1.0
La3GaO6,4.004399999999999,-3.521538328749999,mp-754150,0,6.0
Li6Y(BO3)3,4.9703,-2.814071734342105,mp-14704,0,7.0
NaAlH2CO5,4.943,-2.180591954887931,mp-644506,0,7.0
K6Fe2O6,2.230643,,,0,3.0
Nd2ZnRu,0.0,-0.224146188749998,mp-1186258,0,0.0
ZnBi3P3O13,2.38,-2.2023090384464292,mp-1041188,0,3.0
SrCaZr2O6,3.1592,-3.610185258,mp-1519527,0,5.0
Zr2SeN2,0.3368,-1.925750150312501,mp-1079726,0,0.0
Nd(FeB)4,0.0,-0.430633831018519,mp-1106404,0,0.0
YbPu3,0.0,-0.113592254062496,mp-1187775,0,0.0
YbCdPb,0.0,-0.269660772777778,mp-1080127,0,0.0
Fe2S2,0.4603509999999999,,,0,0.0
Al2CoNi,0.0,-0.625177445,mp-1228913,0,0.0
Na2SiGe2(PO6)2,3.136,-2.50485499344093,mp-2712760,0,5.0
NaH3C4S4(OF)12,6.2926,-1.755741959725814,mp-709432,0,7.0
Rb3TaS4,2.8992999999999993,-1.527510968104166,mp-17220,0,4.0
Mn3(Al2Si)2,0.0,-0.291158298199233,mp-1221843,0,0.0
Cs2NaTiF6,0.0,-3.293792025735632,mp-562050,0,0.0
RbGa3S5,2.8639,-1.144059651944444,mp-558706,0,4.0
Y8In3Co,0.010799999999999,-0.335072713333332,mp-1192970,0,0.0
ScZn2Cd,0.0,1.41876972125,mp-1096412,0,0.0
NaLa(SeO5)2,0.5275000000000001,-1.42595136739763,mp-1200482,0,0.0
ZrZnF6,6.0953,-3.45703982625,mp-1025509,0,7.0
K3Cd,0.0,0.021702187714842,mp-982780,0,0.0
K4Zn10As8,0.552686,,,0,0.0
Mg14MnCu,0.0,0.09348593575431,mp-1028157,0,0.0
ZnAg3P3O13,0.0,-1.622993774446428,mp-1041175,0,0.0
LaGa3Pd2,0.0,-0.806249142499998,mp-21201,0,0.0
LaPd2,0.0,-0.6103124780000021,mp-1063255,0,0.0
PrClO,4.7029,-3.453472725555557,mp-27984,0,7.0
Co6V4O16,1.753489,,,0,2.0
LiNd2(HO)6,0.0,-2.038884000388888,mp-1235651,0,0.0
V2P2S6,2.35927,,,0,3.0
Na6Zr8Si7S5O48,2.658699999999999,-2.9353815638618372,mp-2713014,0,4.0
CsReF8,1.7181,-2.381502616749999,mp-29842,0,2.0
Ti(Sn2O5)2,1.6151,-2.360442101555556,mp-766391,0,2.0
MgSO8,0.5294,-1.112332356249999,mp-1180687,0,0.0
H8PtO6,1.830699999999999,-1.161056693666667,mp-625208,0,2.0
Na2In2Sb3,0.9394,-0.385320350446428,mp-541692,0,1.0
La(SeO3)2,0.0,-1.947259507326389,mp-726315,0,0.0
C2N2O5,3.3865,-0.717251537222223,mp-725609,0,5.0
Mg2TiCo3S8,0.0,-1.044516058809523,mp-1246845,0,0.0
TaP2O7,0.0,-2.774222282911902,mp-1208592,0,0.0
YbB2Os,0.0,-0.718824563750004,mp-1105649,0,0.0
Sb6O5F8,3.4235,-2.238221645526315,mp-753233,0,5.0
RbMg6W,0.0,0.5167342878125001,mp-1017182,0,0.0
LiNb2Te4Cl10O,0.0,-1.45796559361111,mp-1236135,0,0.0
KRu2C4(ClO4)2,0.004899999999999,-1.028109638220588,mp-1202772,0,0.0
Nb4AlC3,0.0,-0.5181479693750001,mp-3103,0,0.0
SmSnRh,0.0,-0.8699913033333311,mp-1080129,0,0.0
Ti3H3Au,0.0,-0.498758896607142,mp-1104290,0,0.0
SmY(MnGe)4,0.0,-0.479446147672413,mp-1219106,0,0.0
Na3TiGaSi2SO12,2.4925,-2.633105906123563,mp-2714482,0,3.0
Ge2Pt3,0.0,-0.456285174749996,mp-21673,0,0.0
TlZn(PO3)3,4.670599999999999,-2.414439971590136,mp-557589,0,7.0
Th(SiRh)2,0.0,-1.143618434000001,mp-4413,0,0.0
Te5PbO11,3.0704,-1.5081023262254891,mp-1203659,0,4.0
Y3PbC,0.0,-0.5440004069999951,mp-21017,0,0.0
BeGeN2,3.3941,-0.8018419456250001,mp-1019550,0,5.0
Ce4SiRh12,0.0,-0.722649634117643,mp-1190081,0,0.0
Ba3As2H34O25,4.1695,-1.541996996445312,mp-1194837,0,6.0
K2Zn3(P2O7)2,4.207899999999999,-2.5314932842639752,mp-560668,0,6.0
Rb2CuH12(SeO7)2,0.5613,-1.362084831925403,mp-510018,0,0.0
TmMgIn,0.0,-0.336304389444448,mp-20979,0,0.0
AgP(XeF5)2,1.3266,-1.801092190807823,mp-554766,0,2.0
URe2,0.0,-0.016571293333332,mp-569480,0,0.0
Ce3Y4O12,1.503499999999999,-3.872963959999999,mp-755046,0,2.0
Ca(CuSn)2,0.0,-0.317747624,mp-568974,0,0.0
DyTeAs,0.3109,-1.357830932500003,mp-1212803,0,0.0
NaNb2PO8,1.994399999999999,-2.903408520501847,mp-560016,0,3.0
TiGa5Co,0.0,-0.329258880119048,mp-1025229,0,0.0
LaPb6BrO7,1.930499999999999,-1.8782037909999991,mp-560665,0,3.0
BaCaP2(HO4)2,5.327,-2.8055404440561222,mp-733968,0,7.0
Bi4Mn8O20,0.27682,,,0,0.0
KZrTl2OF5,3.1083,-2.943272496391668,mp-40204,0,4.0
Mg2TiAl3S8,0.0,-1.47241379095238,mp-1247022,0,0.0
FeGe4H24C8(S5N)2,0.3155,-0.314401033979592,mp-736330,0,0.0
CaCu3(IrO3)4,0.0,-1.3095097324999991,mp-1105220,0,0.0
Rb2Se,1.7968,-1.207288049114582,mp-11327,0,2.0
YTlS2,1.5298999999999991,-1.727480834583323,mp-1066131,0,2.0
BaSr4U3O14,2.0784,-3.637355124545455,mp-559427,0,3.0
Hg4Cl12N4C12H4,2.654871,,,0,4.0
Sr2GdCu2HgO7,0.0,-2.134018062884615,mp-1209074,0,0.0
Ho3Os,0.0,-0.333544759375001,mp-1190011,0,0.0
Na3Mg5Nb(SO4)9,1.4450999999999992,-2.308404920585888,mp-2714163,0,2.0
GdMg3,0.0,-0.067499458749999,mp-20534,0,0.0
Dy9Al5S21,2.4394,-1.986824433973213,mp-1226139,0,3.0
Ho11Te16ClO48,2.8672,-2.488153566074559,mp-557285,0,4.0
NdMgHg2,0.0,-0.460280274375001,mp-864924,0,0.0
BaMg6Fe,0.0,0.2720911112499999,mp-1022387,0,0.0
Li3Tm3(TeO6)2,3.1382,-2.7804097757916693,mp-1211248,0,5.0
Tm6Al7Cu16,0.0,-0.418253278620691,mp-980195,0,0.0
K6Na15Tl18H,0.0049,-0.093989677635994,mp-733675,0,0.0
Ho2MgS4,1.9659,-2.165219511428566,mp-1232270,0,3.0
Te36Li12,0.189503,,,0,0.0
Cs3NaLi2(BO3)2,3.6137,-2.323294394667487,mp-607931,0,5.0
Br2F6,1.809247,,,0,2.0
Mg2GeB2Ir5,0.0,-0.494200954333335,mp-1106175,0,0.0
NbPHO5,0.1305,-2.485711221361607,mp-756508,0,0.0
LuNiGe,0.0,-0.815416234722219,mp-19922,0,0.0
Re3Br10N,0.058,-0.376446282678571,mp-1194150,0,0.0
Ca16Mg3Sn13,0.0,-0.600321526562499,mp-1227563,0,0.0
Ag2AsS4N,0.0,0.536835336542969,mp-1080805,0,0.0
Sn6Se16K8,1.446577,,,0,2.0
Be3Nb,0.0,-0.235792051249998,mp-11273,0,0.0
NaCeMg6O8,0.405099999999999,-2.868259033211206,mp-1030999,0,0.0
NaMg14Ga,0.0,0.029569707570043,mp-1026697,0,0.0
ZnGaCo2,0.0,-0.078108571249998,mp-1187911,0,0.0
Nd2Mn3(SbS3)4,0.150699999999999,-1.002829479985623,mp-1192080,0,0.0
Li3Mg3Ti6O16,0.0,-3.237680050892857,mp-773055,0,0.0
KRb(InAu2)4,0.0,-0.268511155101189,mp-1223353,0,0.0
La21Fe8Sb7C12,0.0,-0.551166405104167,mp-582023,0,0.0
Pr2Pb17Se20,0.6896,-0.8532115396046951,mp-676516,0,1.0
Nb6Cl16,0.116018,,,0,0.0
CsP7,1.2774,-0.246341467291665,mp-1201790,0,2.0
Na4Ti2Ge2O10,3.14832,,,0,5.0
YAl3Ni,0.0,-0.590546874999999,mp-4054,0,0.0
YHfMg6O8,0.1623,-2.793973569999999,mp-1032610,0,0.0
H3BrO,4.4183,-1.02984396275,mp-625509,0,7.0
Ca1Pd3Ti4O12,0.4768059999999999,,,0,0.0
Ba2TbSbO6,3.507199999999999,-3.084002428666667,mp-6265,0,5.0
Hf2V3Ru,0.0,-0.327156048333336,mp-1224435,0,0.0
Tb(SiPd)2,0.0,-0.922091847333335,mp-4250,0,0.0
CuP4O11,0.6119999999999991,-2.329917067254464,mp-505436,0,0.0
LaB5HO10,0.1492,-2.783520202034314,mp-1211684,0,0.0
K2YHgI6,0.0,-1.2965844967,mp-1112022,0,0.0
Ir3Se8,0.0,-0.361656984772728,mp-9888,0,0.0
Sm3GaFeS7,0.0815,-1.7646389349999991,mp-1191750,0,0.0
Hg3(SI)2,1.3129,-0.467214151785717,mp-29956,0,2.0
Pr2TeO6,2.933099999999999,-2.926918404444445,mp-1209377,0,4.0
Tl(Cu3S2)2,0.0,-0.356122746666667,mp-557929,0,0.0
Th4Al,0.0,0.7243711380000031,mp-1208289,0,0.0
KSrHfBiO6,1.1399,-2.644646899725,mp-1518644,0,1.0
La3YHf4O14,0.2984,-3.616403521136362,mp-1223169,0,0.0
Ce2AlFe3,0.0,-0.16429355,mp-1226839,0,0.0
Sc(AsO)2,0.1185,-1.405891341,mp-1209725,0,0.0
Ca2As4(Xe3F14)3,2.4552,-1.871158090614035,mp-1202522,0,3.0
BaAgSbS3O,0.0,-0.9674813361309512,mp-1195220,0,0.0
NaVSe2,0.0,-1.087406231516702,mp-3567,0,0.0
La3In2(GaO4)3,3.3646000000000003,-2.871792972541667,mp-1211871,0,5.0
Tm6Co2Sn,0.0,-0.354385165555563,mp-1208052,0,0.0
Mg7Cr,0.0,0.1635496693749999,mp-1016326,0,0.0
Bi2(BO3)3,0.0,-2.05635400625,mp-755446,0,0.0
CeRhO3,0.0,-2.552756445499999,mp-1213826,0,0.0
K2Mg5Sn3,0.0,-0.18333791145,mp-1087476,0,0.0
Hg1O2,0.0738689999999999,,,0,0.0
In2I2,1.372388,,,0,2.0
Pr7Ru3,0.0,-0.200810019416661,mp-1197932,0,0.0
Ca3(AsO4)2,3.6559,-2.701729207527472,mp-530449,0,5.0
BaCd(ClO)4,1.2241,-1.068522255,mp-1182162,0,1.0
Cs2ZnGe3Se8,1.4028,-0.912048649325739,mp-1194749,0,2.0
Cd2Hg,0.0,0.004843204166666,mp-11299,0,0.0
Sr3Bi2,0.0,-0.676365987800005,mp-1013587,0,0.0
Na1Br1,4.120055,,,0,6.0
Li2AlPCO7,5.732,-2.654816158859127,mp-767214,0,7.0
Fe2Sr2S2O1F2,2.604322,,,0,4.0
Na5As4,0.0,-0.530444247777778,mp-1080834,0,0.0
BaNaY(BO3)2,3.335,-3.151498996337513,mp-1182342,0,5.0
RbAsOF5,0.150799999999999,-2.35851352109375,mp-728313,0,0.0
Ba(Cu3P)2,0.039099999999999,2.861549736746031,mp-1247881,0,0.0
CrSb,0.0,-0.0070296375,mp-1641,0,0.0
RhN5Cl3,0.2511,1.463301628055557,mp-1179758,0,0.0
Na2MnN2,0.7166,-0.309274898896551,mp-1029605,0,1.0
Y8Ba5Mn4O21,2.045653,,,0,3.0
Sr(BrO3)2,4.148000000000001,-1.149098946111112,mp-504910,0,6.0
SmTa6Br13O3,0.9535999999999992,-1.816159060065215,mp-1209869,0,1.0
Pr7Ni3,0.0,-0.171183464666665,mp-1189469,0,0.0
Rb2TmCuCl6,2.4353,-2.138892495500001,mp-1112412,0,3.0
CuH9C4S4N,0.019199999999999,-0.176750911513158,mp-738675,0,0.0
KLaGaBiO6,0.0,-2.164523605975001,mp-1516828,0,0.0
Fe5Si2B,0.0,-0.330035583645832,mp-1188610,0,0.0
Nb2Al2Cl16,2.028455,,,0,3.0
Sr2ZrTiO6,2.516,-3.589645374333334,mp-1080028,0,4.0
W4Ba8Ca4N16,1.846559,,,0,2.0
CuH12Br4(NO)2,0.4456,-0.8307283045238091,mp-24103,0,0.0
TmMg3,0.0,-0.045474281250001,mp-1187610,0,0.0
CsTh2(PO4)3,4.5121,-3.3441776829768752,mp-1198898,0,7.0
Hf(Al2Fe)4,0.0,-0.408610126923075,mp-1104561,0,0.0
TbZn(BO2)5,5.227,-2.928356961911765,mp-15520,0,7.0
Pu6Co,0.0,0.54342866758928,mp-1105020,0,0.0
LiMg30GaO32,4.239799999999999,-2.9899755914192703,mp-1040051,0,6.0
TbSiPt,0.0,-1.291662352499997,mp-7124,0,0.0
Ba7GeB3ClO13,3.5944000000000003,-3.0713096577,mp-1194658,0,5.0
Cr8Ga3CuSe16,0.0,-0.796552851071428,mp-1226330,0,0.0
Be2Mo,0.0,-0.319916492499999,mp-1677,0,0.0
Th(NiH)2,0.0,-0.457274888499998,mp-1187412,0,0.0
YbGa5Co,0.0,-0.452371466428573,mp-20627,0,0.0
SrP11H28N9,1.9578,-0.381205299919824,mp-1198273,0,3.0
LiEu(SO4)2,0.0,-2.277028959444445,mp-621928,0,0.0
VCo2Si,0.0,-0.381213402760415,mp-20586,0,0.0
NaBrO3,4.4812,-0.9990614762758612,mp-23339,0,7.0
Mg2TaN3,3.012899999999999,-1.232323945388888,mp-1029442,0,4.0
YPt,0.0,-1.3662163925,mp-1025448,0,0.0
NaH5S2O9,0.1529,-1.109027521625254,mp-733973,0,0.0
NaGa3Se5,1.8605,-0.993323243469228,mp-570622,0,2.0
Mg14CdSi,0.0,0.03453562875,mp-1026704,0,0.0
Mg2GaPb,0.1391,1.357101328125,mp-1097225,0,0.0
Tm(CuS)2,0.0,-0.944986070624992,mp-1018640,0,0.0
La1Sb2Li3,0.165792999999999,,,0,0.0
BaLaMgNbO6,2.792899999999999,-3.313065879,mp-39288,0,4.0
Sr4Ru2O12,0.457635999999999,,,0,0.0
LiBr,4.9348,-1.835894534166666,mp-976280,0,7.0
Hg3I2ClO6,0.132,-0.477252338125002,mp-727800,0,0.0
Nd2PdO4,0.0,-2.570911439285713,mp-1025319,0,0.0
CeMg7,0.0,0.047736538124997,mp-1016346,0,0.0
Cs2N6C8,3.7878879999999993,,,0,6.0
Be3Fe,0.0,-0.208987261249999,mp-983590,0,0.0
SrCaGdNbO6,2.6866,-3.3836881345,mp-1523005,0,4.0
K4Nb2Se11O,1.361,-1.257873135126736,mp-560666,0,2.0
Cr4Te3S,0.0,-0.308350873437498,mp-1226328,0,0.0
Ge4Cu4Ca4O20H8,1.186447,,,0,1.0
Tb3SiBr3,0.0,-1.62798025,mp-30232,0,0.0
Hf3In4,0.0,-0.120388065428573,mp-1105078,0,0.0
ZrPbF6,5.0238,-3.510055982500001,mp-7310,0,7.0
Ta4Cr,0.0,1.413849178499998,mp-1208441,0,0.0
Eu5CdCu2,0.0,-0.154517006250003,mp-1189588,0,0.0
Na5Ca2Sc2P3(SO8)3,3.6361,-2.730752265127994,mp-2714777,0,5.0
NaLa(SeO3)4,0.0,-1.41510637587524,mp-1522181,0,0.0
K4Nb11Al2O20F,0.6848999999999991,-2.754130073263158,mp-557200,0,1.0
Os8Br32,0.068756,,,0,0.0
RbMg14GaO16,3.5837,-2.736218515468749,mp-1034094,0,5.0
Ca2Ag7,0.0,-0.22075397611111,mp-16770,0,0.0
Mg30SiBiO32,0.098399999999999,-2.845722814687499,mp-1039843,0,0.0
PuZr2,0.0,0.53157895999999,mp-1219764,0,0.0
MgTiCo2,0.0,-0.197108172083333,mp-1185975,0,0.0
SbNF4,1.3727,-1.231108880833333,mp-1202415,0,2.0
Li3Ag,0.0,-0.122345376249999,mp-865875,0,0.0
K2YTlF6,4.3847000000000005,-3.279106814783334,mp-1111122,0,6.0
MnCN2,0.2076,-0.09281004283944,mp-12335,0,0.0
Gd3Lu,0.0,-0.005006935416666,mp-1184496,0,0.0
Ti2ZnRh,0.0,2.3935927833333333,mp-1096027,0,0.0
CaHfTiSnO6,2.3192,-3.145945214833333,mp-1522722,0,3.0
SiBr4,4.1046,-1.260954186249998,mp-570285,0,6.0
RbCuPO4,0.0,-2.139787241020408,mp-669427,0,0.0
CaZnF2,2.1738,-2.729452889374999,mp-1214021,0,3.0
Li2Fe12P7,0.0,-0.5162144347222221,mp-760680,0,0.0
Sr4N8O20H8,2.272346,,,0,3.0
Zr4Ni,0.0,0.449998142999999,mp-1207489,0,0.0
Na7CaAl3(PO4)6,4.5817,-2.845229798394609,mp-2714070,0,7.0
Sn4I12Rb4,2.400668,,,0,3.0
Na3Hf2Si2PO12,4.6472999999999995,-3.208672257064039,mp-2713249,0,7.0
Zr2P3H4NO12,4.3079,-2.601160563814934,mp-39770,0,6.0
LiSi2B,1.166799999999999,-0.1432247421875,mp-1198027,0,1.0
Pr5Si2Ge,0.0,-0.609573606041666,mp-1188522,0,0.0
PrFeGe3,0.0,-0.489482641333333,mp-1069147,0,0.0
Ge12Zn8O32,2.646882,,,0,4.0
YbPb3,0.0,-0.273653551249999,mp-21430,0,0.0
ZnSi4H35C13ClO,3.7616,-0.239222013795454,mp-1196440,0,5.0
Cu2H10C6S3N4,2.7527,-0.149813585699999,mp-555729,0,4.0
Rb2SO4,4.9943,-2.265059515357137,mp-3372,0,7.0
SmH18(BrO6)3,4.4536,-1.1935598435625,mp-1219120,0,7.0
Ba2B2AsH3F18,5.0476,-3.013855941714744,mp-1198263,0,7.0
TbCl3,3.7966,-2.539397689374999,mp-23293,0,6.0
Zr2IrAu,0.0703,2.395088404145845,mp-1097588,0,0.0
Cr3RhN,0.0,-0.31229571708333,mp-21244,0,0.0
TbFeCu,0.0,-0.039253015555555,mp-1217542,0,0.0
Zn1In2Te4,0.903327,,,0,1.0
SrCeMg14,0.0,0.044608718020834,mp-1026736,0,0.0
Na4MgTiSi2SO12,2.1345,-2.703546141810345,mp-2714539,0,3.0
BaSrPrZrO6,0.0,-3.284757232666666,mp-1521255,0,0.0
Eu4C2N4F5,0.162399999999999,-2.497867247583336,mp-1204426,0,0.0
Tm2IrPt,0.0,-1.095071167500003,mp-1187565,0,0.0
LiY4Ti4(S2O5)2,0.0,-3.190923624637682,mp-756557,0,0.0
Y2Hg2O5,1.0656,-2.386983860277778,mp-769289,0,1.0
Co8Se8O32,2.188871,,,0,3.0
ZnSnN2,0.1207,-0.111148210625,mp-1029469,0,0.0
MgSc2O4,3.7117,-3.541573628571428,mp-1222055,0,5.0
K8Mo4O4Cl20,0.90871,,,0,1.0
Rb3FeS3,0.0,-1.109423229642855,mp-1193685,0,0.0
Ca2Cu(SO)2,0.0,-1.935871299285713,mp-1147536,0,0.0
TaSnRu2,0.0,-0.304171011833332,mp-867475,0,0.0
CdInAgTe3,0.0,-0.423294029999998,mp-1226727,0,0.0
Rb2EuCl5,0.0114,-2.332081015000001,mp-1209650,0,0.0
Ir8Se16,0.03825,,,0,0.0
Eu(MgGa)2,0.0,-0.338362518000001,mp-1212857,0,0.0
Ce2U3O10,0.0,-3.873041026666668,mp-773114,0,0.0
Na4YSi2GePO12,1.6323999999999992,-2.723909236991751,mp-2715522,0,2.0
LiAg2F5,0.0,-1.701232737239582,mp-760273,0,0.0
Sr3Nb2ZnO9,2.6769,-3.070764791666668,mp-1218413,0,4.0
Fe2(PdAu)3,0.0,-0.001348064999999,mp-1224715,0,0.0
Al3As,0.0,0.050127136875001,mp-1183129,0,0.0
Cs1Ge1Cl3,1.997233,,,0,3.0
HoZrCo4,0.0,-0.218580815833332,mp-1223821,0,0.0
K1S2Cr3O14H6,2.28671,,,0,3.0
K2LiNb2P2(CO7)2,0.0291,-2.418299979439957,mp-1235953,0,0.0
Na4In2Si2SO12,2.9013,-2.36996180188971,mp-2714596,0,4.0
Th(NO4)4,0.049699999999999,-0.70453871797619,mp-1179472,0,0.0
CaTe4H4(O3F4)2,1.9457,-1.967469167463767,mp-1234072,0,3.0
Te1Rb2Br6,2.018523,,,0,3.0
TmMgS3,0.0,-1.638149115833333,mp-1232251,0,0.0
LiCu2Pd,0.2124,1.759473418333332,mp-1096671,0,0.0
TaIn3SiS5O24,1.7078000000000002,-2.127394188279412,mp-2713080,0,2.0
YErFe14B,0.0,-0.108591120245096,mp-1216335,0,0.0
NdZn2Cd,0.0,-0.321501334374999,mp-974770,0,0.0
MnCr3Te4,0.0,-0.260108151824711,mp-1221638,0,0.0
Sr3BPO3,2.0101,-2.587786172976191,mp-9702,0,3.0
Yb3Cd,0.0,-0.119622558750002,mp-1187925,0,0.0
Ge1Zn1Li2,0.040132,,,0,0.0
HoRh2,0.0,-0.747021569999998,mp-546,0,0.0
TePb3Cl4O3,3.2599,-1.58628772060606,mp-1196950,0,5.0
Hf2CoCu,0.0,-0.242313967499999,mp-1184620,0,0.0
Cs2NaErF6,6.8647,-3.603906971068965,mp-13816,0,7.0
TcC4NO4,0.411699999999999,-0.115784877,mp-1237438,0,0.0
Li3CuF4,0.855699999999999,-2.645253740624999,mp-758689,0,1.0
KSrPrSbO6,0.0,-2.564562514391666,mp-1521724,0,0.0
Na3Tl,0.0,-0.094140162499998,mp-977403,0,0.0
ZrAl3N4,0.0,-1.358537277500001,mp-1215334,0,0.0
NaLa2Ta2P5SO24,2.822899999999999,-2.966603145336008,mp-2716269,0,4.0
Be(BC)2,0.2171,-0.094812020166666,mp-569299,0,0.0
FeAgSb(S2N3)2,0.0,0.452980762564103,mp-1194556,0,0.0
Gd2Ge(BO4)2,3.183799999999999,-3.175222310833333,mp-1196136,0,5.0
Cs2SnAs2Se9,0.7742000000000001,-0.7442552250288641,mp-568403,0,1.0
TiNiP,0.0,-1.065870581825397,mp-1102188,0,0.0
Al3F9,7.423995,,,0,7.0
AlAgS2,1.8992,-0.904003048906249,mp-5782,0,3.0
Y2CdAu,0.2181,1.7907868,mp-1093811,0,0.0
Pt1K2Cl6,1.859734,,,0,2.0
MnH6(CN2)4,1.0154,-0.030833005154266,mp-1195586,0,1.0
K3Na2InO4,2.133199999999999,-1.625013810867528,mp-553975,0,3.0
Ce3S4,0.0,-2.353140328749999,mp-1382,0,0.0
HgSeO4,0.8439999999999991,-0.964944491640622,mp-10796,0,1.0
MgTi3Nb2(PbO3)6,1.9854,-2.559447301166666,mp-677094,0,3.0
Ba2InO3F,2.046699999999999,-2.866102289523809,mp-19956,0,3.0
Rb2P3,0.7643999999999991,-0.431276638785714,mp-2079,0,1.0
In2PbS4,1.414699999999999,-0.8158923165476171,mp-619279,0,2.0
Ru2O8,2.629128,,,0,4.0
U3P2(PbO8)2,1.8728999999999991,-3.031925149534161,mp-1209059,0,2.0
PrB2Ir3,0.0,-0.6186925749999971,mp-11594,0,0.0
Al2Re3B,0.0,0.193116242916673,mp-18503,0,0.0
Ge2W,0.0,0.068304931666669,mp-1101810,0,0.0
BaAl4S7,3.1571,-1.592054923958332,mp-8258,0,5.0
Nd6Ti4Al43,0.0,-0.355906396069181,mp-1210322,0,0.0
KLiB4O7,5.3382,-2.7958759248846152,mp-6648,0,7.0
Tl4Si5O12,3.1736,-2.636476214206347,mp-1201442,0,5.0
Hf3Zn3C,0.0,-0.549929837857149,mp-722912,0,0.0
Rb6Al2O6,2.612866,,,0,4.0
Na2Cr6O16,1.673695,,,0,2.0
Na2LiP3H8O13,5.133500000000001,-2.031010439815575,mp-740710,0,7.0
Tb3Si2Ni,0.0,-0.7024201804166651,mp-1190904,0,0.0
PrAg,0.0,-0.231795441666664,mp-2525,0,0.0
NaZrP2O9,1.132499999999999,-2.252880196781925,mp-1180130,0,1.0
Mg6CrW,0.0,0.364906453125,mp-1016614,0,0.0
Cu12Sr12N12,0.5607800000000001,,,0,0.0
Dy4MnS7,0.3597,-2.157549495347519,mp-1225337,0,0.0
Cs2BeCl4,5.3524,-2.170488689544335,mp-1193604,0,7.0
K2Mg(CuO2)2,0.0019,-1.418620747722222,mp-2240155,0,0.0
H6C(N3O2)2,2.7113,-0.403738086470589,mp-707543,0,4.0
SiAg5O4,0.7138000000000001,-1.124494541083332,mp-1205049,0,1.0
PmInAu2,0.0,-0.785680726875,mp-862917,0,0.0
Tm2(Al3Pd)3,0.0,-0.7254968576285701,mp-1207996,0,0.0
Rh8Ge8Te8,0.310707,,,0,0.0
B5Pb2IO9,3.3111,-2.482953740637255,mp-1200548,0,5.0
CaCePd2,0.0,-0.6816876420833321,mp-1183507,0,0.0
YbMn3,0.0,-0.019573137112068,mp-1187582,0,0.0
Ce2Co7,0.0,-0.121471789444444,mp-1188550,0,0.0
Ag9(PbO3)4,0.0,-0.8176260189999981,mp-675327,0,0.0
Mg(TiH3)2,0.0086,-0.133095129907406,mp-1222166,0,0.0
Pb(SeO3)2,1.285299999999999,-1.24906093329861,mp-558163,0,2.0
H20SN8O13,3.0575,-0.8542830855357141,mp-1224778,0,4.0
Zn2Si2As3P,1.182299999999999,-0.216795475892857,mp-1215555,0,1.0
ScHCl,0.0,-1.6233753570833331,mp-24081,0,0.0
CS3N5Cl,2.2843,0.460191036805061,mp-558295,0,3.0
ZrSnP2SO12,2.8504,-2.616709950693278,mp-2713140,0,4.0
NaCO3,0.6623,-1.787248678275861,mp-1120755,0,1.0
Tb3(MnC3)2,0.0,-0.274213749623823,mp-28827,0,0.0
CeB2Ir2Rh,0.0,-0.6816856547222211,mp-1226636,0,0.0
Sm2CoGe2,0.0,-0.6923916320000001,mp-1079047,0,0.0
Ce2NiB10,0.0,-0.576847378205128,mp-21169,0,0.0
Na2YPCO7,4.7715,-2.750636495616789,mp-767462,0,7.0
Na2PrSiO5,0.5707000000000001,-2.804834358825031,mp-1210331,0,0.0
Hg2I4O12,2.698227,,,0,4.0
LuCo2Sn,0.0,-0.320218685416667,mp-865797,0,0.0
CeH(CO2)3,0.209699999999999,-2.014177818977272,mp-1203970,0,0.0
Ba4Cu3Ge20,0.0,-0.275172483518518,mp-669542,0,0.0
HoBiRh,0.0,-0.7331123983333371,mp-1205953,0,0.0
Sc2InAu2,0.0,-0.825378769999997,mp-1209388,0,0.0
K15P16Pd9O56,0.0072,-2.316542411594121,mp-1212473,0,0.0
RbH(CO2)2,3.095399999999999,-1.68992671703125,mp-1209330,0,4.0
Tb2Ga3Co14,0.0,-0.187822483464913,mp-1217733,0,0.0
TmTiO3,0.0,-3.652124086666668,mp-755525,0,0.0
LaEu2NbO6,0.1855,-3.326676971749999,mp-1517202,0,0.0
MgRuO3,0.0,-1.455940119999999,mp-1016829,0,0.0
CsPb2Cl5,3.8164,-1.7664631599569,mp-984872,0,6.0
Na6Nb4Zn4Si5S7O48,1.1241,-2.367169006271745,mp-2715976,0,1.0
K13Na2W7N19,1.557099999999999,-0.633116986634356,mp-569918,0,2.0
SnPd2,0.0,-0.519858699166666,mp-1851,0,0.0
Cr2CdSe4,0.0,-0.8274603791964281,mp-22605,0,0.0
Eu(AlGa)2,0.0,-0.489557803000002,mp-20867,0,0.0
Sc2H5,0.0,-0.568449427857142,mp-33112,0,0.0