formula,bg,formation_energy,mp-id,fidelity,bg_category
Na4Er2(IrO4)3,0.0,-2.115248631691297,mp-1210209,0,0.0
ScTlO3,1.2891,-2.455815971666668,mp-752429,0,2.0
Rb2LiBiF6,4.9741,-2.934599426833333,mp-1110656,0,7.0
Na2Ca3Hf(SO4)6,2.5699,-2.49802789456737,mp-2714171,0,4.0
Te8Mo3W,0.527,-0.253438896249993,mp-1030331,0,0.0
Er5NiPb3,0.0,-0.513024055,mp-570864,0,0.0
Pm2ZnGe,0.0,-0.587247632500002,mp-862742,0,0.0
FePd2,0.0,-0.045495663333332,mp-1224793,0,0.0
Nb5As3,0.0,-0.5612512189062511,mp-623038,0,0.0
Na3YH12(CO5)3,4.5966000000000005,-1.780227198504057,mp-601241,0,7.0
Cs2HgBiBr6,0.0,-1.4245559681810351,mp-1112905,0,0.0
Fe(NiN)3,0.0,0.100776372857142,mp-1245580,0,0.0
ZnCu3,0.0,-0.021427164999999,mp-1215518,0,0.0
Eu(LuSe2)2,0.1428,-2.225436789583333,mp-645692,0,0.0
SnPd3,0.0,-0.4929071675,mp-718,0,0.0
BaLa(BiS3)2,0.837299999999999,-1.487824404749999,mp-555699,0,1.0
Li3TeHO4,3.5927,-1.9420064519907412,mp-696949,0,5.0
LiMg14BO15,2.8804,-2.758048147338709,mp-1035344,0,4.0
Mn(GaS2)2,1.1791,-0.9256231851046792,mp-20025,0,1.0
Al2CuNi,0.0,1.735505917416448,mp-1095860,0,0.0
Cs2TlAuCl6,0.0,-1.4937989392643691,mp-1113536,0,0.0
ErAl4Ni,0.0,-0.5421772558333321,mp-31183,0,0.0
Ta4AgS8,0.0,-1.276828668923074,mp-677597,0,0.0
K8Cu4Sb4S12,1.446688,,,0,2.0
Cs4Fe8F24,1.147554,,,0,1.0
K2I6Zr1O18,3.282062,,,0,5.0
MgZnNi2,0.0,-0.199294948749999,mp-1185615,0,0.0
ZrTiCN,0.0,-1.461204632604161,mp-1215184,0,0.0
CsN2,0.0,0.424191214952109,mp-1104441,0,0.0
Nb4SiC3,0.0,-0.5618800367098721,mp-1188839,0,0.0
Mg1O6N6H12,4.598592,,,0,7.0
Na3InSi3Sn3(SO8)3,1.8754,-2.255145179413638,mp-2716373,0,2.0
Pr3(Ni9Ge4)4,0.0,-0.117470490272727,mp-1220212,0,0.0
Si6Sb2H36(C4O)3,3.3746,-0.406636990508474,mp-1196398,0,5.0
CeSiGePd2,0.0,-0.8503381389999981,mp-1226545,0,0.0
AlV,0.0,-0.286383295,mp-1228001,0,0.0
FeMoP,0.0,-0.590417117380951,mp-1102843,0,0.0
BaP2,0.5585999999999991,-0.8030356214285691,mp-1105095,0,0.0
CsYMg30O32,2.9483,-2.896286897182111,mp-1037012,0,4.0
CdRe2H8C2S2(NO2)4,2.776799999999999,-1.089039348518519,mp-1203521,0,4.0
LaMnSi2,0.0,-0.68145861987069,mp-3213,0,0.0
ZnCu2PH7O9,0.480999999999999,-1.5013039351696431,mp-1201576,0,0.0
Cu7S4,0.0,-0.231353755340908,mp-624299,0,0.0
Zn1Se1,1.788975,,,0,2.0
Be46Rh7,0.0,-0.170260893207547,mp-1227672,0,0.0
Lu11Te4,0.0,-0.7325023220000001,mp-569141,0,0.0
Li2Al2Si4O13,0.3016,-2.954259110555556,mp-1222886,0,0.0
Tl5Te3,0.0,-0.432765907708335,mp-174,0,0.0
PrBiPd2,0.0,-0.6926631279166661,mp-976884,0,0.0
Rb4Sn2Te10,0.612564,,,0,0.0
PuPtO3,0.0,-1.523519266749996,mp-975588,0,0.0
Li2(TmGe)3,0.0,-0.656593381458336,mp-1188157,0,0.0
Rb10Co4O8,1.270846,,,0,2.0
Ca4Si2H2CO11,4.8124,-2.938727908999999,mp-604909,0,7.0
TlCO2,2.8853,-1.408513062708335,mp-556745,0,4.0
Ag4Sn2(HgSe3)3,0.403499999999999,-0.45372355473669,mp-1229187,0,0.0
Sr7CaTi8O20,0.0,-3.265423468379629,mp-1076695,0,0.0
Pb2Cl2O2H2,2.812955,,,0,4.0
U6Al39Mo8,0.0,-0.221069346603771,mp-1208408,0,0.0
CdH9C3NCl3,0.0,-0.441696528308823,mp-698392,0,0.0
CdBrO,0.0,-0.8714872233333331,mp-1102017,0,0.0
K2AgRuF6,0.0,-2.222506260616666,mp-1112276,0,0.0
Lu12In4S24,1.10007,,,0,1.0
Ga3Cu3(Te2Se)2,0.101199999999999,-0.406449156093756,mp-1224939,0,0.0
CsFe2Se3,0.0,-0.7575462427810741,mp-662563,0,0.0
Y(AlFe)6,0.0,-0.385315964615384,mp-1216148,0,0.0
Na2MgGaP(SO6)2,3.2524,-2.337648140082534,mp-2713468,0,5.0
Hg4Ba4S8,1.337585,,,0,2.0
CsUSbO6,1.6823,-2.781130564406129,mp-1225841,0,2.0
Sr2GeN2,0.0529,-0.8044763772500041,mp-29089,0,0.0
CeAl3Cu,0.0,-0.492592462000001,mp-1069443,0,0.0
Na10Nb7Al(SiO4)12,2.69,-2.986005415988801,mp-2713429,0,4.0
TmSbIr,0.0,-0.878813726666669,mp-1207694,0,0.0
Co8P4O20H4,2.477562,,,0,3.0
Na16K4Ge4As12,0.615014,,,0,0.0
La3RuI3,0.1048,-1.292993156428572,mp-29824,0,0.0
Rb2InGaF6,3.2609,-2.802686308916666,mp-989566,0,5.0
Sm(SiAg)2,0.0,-0.459132385999998,mp-567600,0,0.0
Nb12Al3Ge,0.0,-0.1969106784375,mp-1220748,0,0.0
CeAl2Pt3,0.0,-1.036073346666665,mp-7225,0,0.0
Gd3Se4O12F,2.7821,-2.4563521654687492,mp-559447,0,4.0
Ag2Mn2F8O8H16,0.0,,,0,0.0
SiH18C2N8(OF3)2,4.9958,-1.105233896554053,mp-766429,0,7.0
Ba4Au8F48,1.312852,,,0,2.0
YRe2,0.0,-0.255498969999995,mp-570923,0,0.0
Pt(NCl3)2,0.0,0.8176645637037011,mp-726178,0,0.0
K2Be2Cu(O3F4)2,0.167799999999999,-1.724509093131579,mp-1212661,0,0.0
Ti1Sr2O4,1.858912,,,0,2.0
ThInAg2,0.0,-0.218022792499997,mp-862932,0,0.0
Cs3Ge4Au,0.9316,-0.269019377370689,mp-510341,0,1.0
PmGePd2,0.0,-0.6631933831249991,mp-1186576,0,0.0
PrNdMg2,0.0,-0.086958564791665,mp-975848,0,0.0
Cd8F12O2,1.87754,,,0,2.0
N1Cl2Li5,2.09107,,,0,3.0
Rb2Ni2Cl2N4C4,2.965554,,,0,4.0
PrRe2,0.0,0.068405951666666,mp-1102111,0,0.0
DyB2Ru3,0.0,-0.471399321666666,mp-3092,0,0.0
MgGa,0.0,-0.13322318125,mp-574266,0,0.0
Hf2SiH,0.0,-0.775688877187498,mp-1181094,0,0.0
Si(Hg2S3)2,0.4391,-0.5357173454545471,mp-17948,0,0.0
CsPPbSe4,1.5613,-0.831329519453289,mp-1193277,0,2.0
Dy2Ge2O5,0.0,-2.282943559814814,mp-1184160,0,0.0
TmNiBi,0.149099999999999,-0.650753763333339,mp-568269,0,0.0
RbSn2Br5,2.3883,-1.381098447812502,mp-567780,0,3.0
Ta2Mn(ReSe4)2,0.0,-0.547236716184574,mp-1218108,0,0.0
Sm3CrSe6,0.064999999999999,-1.829731205906252,mp-10386,0,0.0
SrLiTl2,0.0,1.019335451458335,mp-1097176,0,0.0
Ce(Co2B)6,0.0,-0.339823817105262,mp-1205398,0,0.0
Zn9Ga3Mo2,0.0,-0.117750361607142,mp-1215657,0,0.0
K3NaP2O11,0.4878,-1.478785163377354,mp-1202013,0,0.0
K2Ge2S5,2.3273,-1.040038007166665,mp-541878,0,3.0
Rb2Ca2(SiO3)3,4.133500000000001,-3.167380317812501,mp-1020641,0,6.0
Gd3ReO7,0.0,-3.299133534318182,mp-31101,0,0.0
Ca(NdTe2)2,1.2735,-1.755312290357145,mp-37263,0,2.0
Mn4K8Na4O16,1.646627,,,0,2.0
Cd4As2I3,1.174,-0.464909622916666,mp-27528,0,1.0
Nd2CdPd2,0.0,-0.733384360999999,mp-1205689,0,0.0
Lu3S4,0.0,-2.290574807321422,mp-1222266,0,0.0
Re2S2NCl11,0.3737,-0.843514260937499,mp-555493,0,0.0
Cs2B12I12N2C4H6,1.804103,,,0,2.0
BaReH7,0.0224,-0.260355372916667,mp-1188671,0,0.0
Hg2K2S6N6C6,2.022437,,,0,3.0
CsLa(NbBr3)6,0.9812,-1.537290434602121,mp-1213403,0,1.0
Hg2CNCl5,0.0,0.139128822696764,mp-1224287,0,0.0
Te3Pd10,0.0,-0.100560524873445,mp-30067,0,0.0
Cs8K4Cu2Si4O16,1.560601,,,0,2.0
Li8PO3,0.0,-1.4439706388591271,mp-1020029,0,0.0
TeH18(Br3O4)2,2.1486,-1.136357558762626,mp-740696,0,3.0
LiLa2Cd,0.0,2.104900939166666,mp-1096476,0,0.0
Cs2K2TeO5,2.024899999999999,-1.7816462860477011,mp-556400,0,3.0
Ba4Ti11O26,2.5309,-3.506091387479676,mp-1228496,0,4.0
Rb8Fe4S10,1.458286,,,0,2.0
TeC6(ClF7)2,3.3316,-1.343098502527173,mp-560280,0,5.0
K2PtC2Cl2O5,0.0,-1.319829316625,mp-1191429,0,0.0
K2HgS4,1.2077,-0.794015403142857,mp-725977,0,1.0
Al17Mo4,0.0,-0.298053397738093,mp-570651,0,0.0
K4CuP6(H4O11)2,0.6351,-2.175830402240418,mp-723175,0,1.0
CaV2S5,0.0,-1.295695330312499,mp-1366511,0,0.0
Yb5Zr3(Ni4As3)4,0.0,-0.8721125124999981,mp-1202354,0,0.0
Nb1K5C8N8,1.774038,,,0,2.0
Rb2CeAgCl6,0.2738,-2.141492367666666,mp-1110809,0,0.0
Mg6TiAl,0.0,0.087275070833333,mp-1023400,0,0.0
NaSr8NdTi10O30,1.7844000000000002,-3.515687375044253,mp-695470,0,2.0
Dy2CdIn,0.0,-0.388437054999998,mp-864973,0,0.0
NaBr,4.0895,-1.8350720331896544,mp-22916,0,6.0
Y6Te2Pd,0.0,-0.7960799075925921,mp-642293,0,0.0
Ti9O8,0.0,-2.591554100882353,mp-32544,0,0.0
Pb2CBr2O3,2.7849,-1.610757234374999,mp-510633,0,4.0
Pu(Mo3Se4)2,0.0,-0.778388774749983,mp-1104216,0,0.0
Na4Zr3ZnSi3(SO8)3,2.4387,-2.6972460362636133,mp-2713652,0,3.0
AuBr3,0.8891,-0.556991212499999,mp-27213,0,1.0
Rb2SnAs2,0.680999999999999,-0.407228313,mp-8931,0,1.0
Ag2Se6As2F12,1.623,,,0,2.0
Cs2Ti(CuSe2)2,1.3642,-1.168822045779853,mp-10489,0,2.0
La4C2Cl5,0.0,-1.971627815454549,mp-569637,0,0.0
Eu(BH4)2,1.572,-0.470098719848484,mp-2646920,0,2.0
CuH16(ClO8)2,0.0,-0.983548048142856,mp-705846,0,0.0
Os2Xe(O3F5)2,1.928599999999999,-1.367739468157894,mp-1205001,0,3.0
Pt12Cl36,1.12308,,,0,1.0
Na7Sc3ZnSi3(SO8)3,3.748,-2.660294481556631,mp-2714039,0,5.0
NaCl3,2.7105,-0.9392581831249992,mp-1189265,0,4.0
K4ZnBi2,0.329099999999999,-0.473334222142861,mp-1103566,0,0.0
Mg2V3GaS8,0.0119,-1.215726003392857,mp-1246477,0,0.0
K2La2B2O7,4.2792,-3.1484122946410262,mp-1019777,0,6.0
BaPS3,3.1164,-1.474063243928571,mp-11006,0,4.0
Na8CaHf3Si5SO24,3.4873,-2.995503641869869,mp-2716135,0,5.0
Ba3TiAl10O20,3.2524,-3.450860982450979,mp-1228063,0,5.0
K2MnSnSe4,0.2833,-1.018125356788253,mp-628305,0,0.0
SrAu2(SO4)4,1.6783,-1.746705066086956,mp-1197529,0,2.0
Pr2Fe14B,0.0,-0.040314487941174,mp-569428,0,0.0
K2V6Se4O24,2.365473,,,0,3.0
Sc2Fe3Si5,0.0,-0.6548933142500001,mp-21588,0,0.0
MgTi2S2(Cl6O)2,0.6648000000000001,-1.682541890350877,mp-2230365,0,1.0
GdTiFe11C,0.0,-0.071492037023809,mp-1225296,0,0.0
Rb2(TcSe2)3,0.899,-0.99938600650568,mp-541355,0,1.0
Cs2PtS6(O3F)6,2.1952,-1.919435322251828,mp-622197,0,3.0
TlAsPt5,0.0,-0.170732132678584,mp-1025353,0,0.0
Tm2ZnRu,0.0,-0.415417280000004,mp-865351,0,0.0
CsH,2.3475,-0.247597554374998,mp-1057286,0,3.0
Ni5P2,0.0113,-0.44563825573129,mp-1200923,0,0.0
Al3Cr,0.0,-0.156632639999998,mp-867780,0,0.0
LiNbZnO4,2.7777000000000003,-2.5797311494047612,mp-6146,0,4.0
CaFeSi2Rh,0.0,-0.6734796739999991,mp-1227116,0,0.0
Ba3DyRu2O9,0.0,-2.632982266444444,mp-541720,0,0.0
TlP,0.0,0.208131988678569,mp-1007776,0,0.0
TlIn2GaTe4,0.2111,-0.5303071338541661,mp-1216591,0,0.0
Ca4Cl6O,5.2239,-2.896422515454545,mp-23326,0,7.0
DyB2Rh2C,0.0,-0.588163240833334,mp-571041,0,0.0
Na10Zn2Si7Ge6S5O48,1.4039,-2.279723297879826,mp-2714167,0,2.0
K2ZnP2O7,4.129,-2.595199219273809,mp-16695,0,6.0
NpSnAu2,0.0,-0.5747862971874931,mp-977411,0,0.0
LiEu2RuO6,0.0,-2.4704307528333342,mp-1211562,0,0.0
Si10Mg18,0.0,,,0,0.0
KTh2F9,6.4422,-4.294207528729155,mp-1211350,0,7.0
Tb6RhBr10,0.0,-1.92762893117647,mp-1189825,0,0.0
Cs1I1,3.698159,,,0,5.0
BaPdO5,0.354299999999999,-1.055678494285715,mp-1182093,0,0.0
Sr2CaReO6,0.0,-2.920525596750001,mp-1188807,0,0.0
La(Fe2B)6,0.0,-0.27458297736842,mp-1188975,0,0.0
Dy(CoGe)2,0.0,-0.600370298333334,mp-19771,0,0.0
Ce3Co4Sn13,0.0,-0.345100572999999,mp-21915,0,0.0
NdCu5Sn,0.0,-0.249249532142856,mp-1209987,0,0.0
Na6Al2Ga2Si3(SO8)3,3.0915,-2.47705644672773,mp-2716230,0,4.0
Ca3BiP,0.0759,-1.121780490595242,mp-1013558,0,0.0
Ho2C3,0.0,-0.258942248499997,mp-2332,0,0.0
K6OsN4,0.0,0.028734762863636,mp-1246625,0,0.0
GdSe,0.0,-2.009486029531245,mp-510404,0,0.0
Y3Ru2,0.0,-0.230452114,mp-1205786,0,0.0
BaMg30BiO32,0.0,-2.825840186249999,mp-1038632,0,0.0
KNa2BO3,2.7985,-2.2572514841678992,mp-8263,0,4.0
K2NbCuS2,0.0,-0.386775514083332,mp-1212580,0,0.0
DyErZn2,0.0,-0.384624007083331,mp-1183842,0,0.0
Eu3P,0.0,-0.517810729494051,mp-865685,0,0.0
Co2NiS4,0.0,-0.745516640714294,mp-22658,0,0.0
SF4,4.903399999999999,-1.7032138570625,mp-1203812,0,7.0
Cs2NaRhF6,1.9082,-2.620182286068965,mp-1111979,0,3.0
K2NaBiF6,4.8062000000000005,-2.891291591587931,mp-1110833,0,7.0
PdAu2(NCl2)4,0.017,1.027056352666666,mp-1105104,0,0.0
CaAl6H12(SO7)4,5.5902,-2.239315578921568,mp-1194752,0,7.0
Pr(AlZn)2,0.0,-0.441834750333331,mp-11846,0,0.0
MgBi,0.0,-0.077709407500001,mp-1039305,0,0.0
Dy2Se3,0.3663,-2.162599036937499,mp-7368,0,0.0
MnVSb,0.0,-0.008986163994251,mp-1221584,0,0.0
Lu3Ni2Ge3,0.0,-0.8194812774999971,mp-29779,0,0.0
Eu2YTaO6,0.5364,-3.457112330733333,mp-1206828,0,0.0
LaDyRu2,0.0,-0.190167861666665,mp-977143,0,0.0
Cd2Cr4O8,2.298158,,,0,3.0
Zr3InF15,5.404999999999999,-3.7696306531578943,mp-34291,0,7.0
K2N2H4,2.065815,,,0,3.0
Ag4Cl4O8,0.6160869999999999,,,0,0.0
KB6H4(OF3)2,2.7101,-1.817898160249999,mp-1200547,0,4.0
AgH,0.8512000000000001,0.120898396666667,mp-1096804,0,1.0
ErAl4Ge2Au,0.0,-0.415212449999999,mp-12020,0,0.0
K3C6N9O,2.6745,-0.406293224828947,mp-1190105,0,4.0
Pb2Ti4O9F2,2.210192,,,0,3.0
Re2C3(ClO2)3,0.849699999999999,-0.950739333035714,mp-1204665,0,1.0
CeMg6Zn,0.0,0.0769935475,mp-1099273,0,0.0
Cs2LiSmCl6,4.9508,-2.476640961764368,mp-1112671,0,7.0
Dy7Rh3,0.0,-0.608613185666659,mp-1105786,0,0.0
NaCd2(SiO3)3,0.219,-2.519888704091954,mp-1193671,0,0.0
Li3NdSb2,0.0,-1.00149313625,mp-1018769,0,0.0
Na6Zn2Si3Ge2(SO8)3,0.176499999999999,-2.203503100936064,mp-2716219,0,0.0
BaTi2O5,2.8033,-3.532110458333396,mp-558159,0,4.0
Sr4Co2Ge4O14,1.810802,,,0,2.0
Cr3Cu,0.0,0.2938468025,mp-984711,0,0.0
RbInBr3,1.3264,-1.499045154833333,mp-1110737,0,2.0
NaLi3Ga4(SiO3)8,4.2953,-2.877053568784483,mp-1220817,0,6.0
LiPrSn2,0.0,-0.573567277499999,mp-1078879,0,0.0
Ca2Bi3O8,0.0,-2.029871610769231,mp-1396659,0,0.0
K4Se4,0.938891,,,0,1.0
SbO2F,1.3329,-1.9869488425,mp-752561,0,2.0
PaTe2Au,0.0,-0.486941534999999,mp-862829,0,0.0
CaMgHg2,0.0,-0.409551220000002,mp-867144,0,0.0
Al22PbO34,3.6212,-3.349244203684211,mp-530984,0,5.0
Yb(ZnGe)2,0.0,-0.303456803,mp-1207198,0,0.0
Cs8Cd4Br16,3.333096,,,0,5.0
MgIn5,0.0,0.010828671944447,mp-973372,0,0.0
Tm2SiO5,4.6073,-3.8274684203125022,mp-17704,0,7.0
Ba3LaBr9,3.0509,-2.526689624615384,mp-772024,0,4.0
Cs6Dy21S34Cl,1.9469,-2.307999552385983,mp-1197810,0,3.0
Mn2OsN3,0.0,-0.045758442119248,mp-1247071,0,0.0
V2S6Na6O24,0.237444,,,0,0.0
Zn2Pd,0.0,-0.437536906249997,mp-1215714,0,0.0
NaY3SiS7,2.195699999999999,-1.824244827890628,mp-7220,0,3.0
Li2PtAu,0.0274,0.953173304166664,mp-1096417,0,0.0
Dy9(SbO)5,0.0,-2.369895161315787,mp-556015,0,0.0
O48Ca8Mn8Ti16,1.445447,,,0,2.0
Ce8C8Cl5,0.0,-1.132048698809523,mp-583042,0,0.0
YWC2,0.0,-0.2571022987499999,mp-1189574,0,0.0
Na3Be,0.0,0.525558130215517,mp-2774343,0,0.0
SrSn,0.0,-0.779094372500001,mp-1698,0,0.0
MgMnPd2,0.0,-0.468040895732759,mp-1185892,0,0.0
ScCrGe2,0.0,-0.478346948958333,mp-1197663,0,0.0
Tm2AlOs,0.0,-0.412836122500003,mp-865283,0,0.0
Gd3Sc2S7,0.0,-2.277265811640622,mp-1224776,0,0.0
Y4Zn5Ge6,0.0297,-0.552190318999999,mp-1194159,0,0.0
Hg1K2O2,2.129655,,,0,3.0
TaTiNb2,0.099799999999999,4.423987064166667,mp-1097329,0,0.0
U2(P2O7)3,0.268499999999999,-1.949557694753693,mp-622122,0,0.0
Ti5(FeSb)4,0.0,-0.435868339743589,mp-1217260,0,0.0
BaSr3Ti4O12,1.7434,-3.533106272666666,mp-1227688,0,2.0
Ba2ZnBi2,0.082399999999999,-0.740846427999996,mp-1079130,0,0.0
Na3CaTaSi(PO6)2,2.4423,-2.886810654037849,mp-2715432,0,3.0
LaNiSnH2,0.0,-0.6422015465,mp-24805,0,0.0
GdH9C5(NO4)2,3.0353,-1.24643922425,mp-1190565,0,4.0
Os3C10(BrO5)2,0.5678000000000001,-0.669331445799999,mp-680415,0,0.0
Na3CaSn3P5SO24,1.7912,-2.508734425221231,mp-2715934,0,2.0
Na9Hg,0.0583,0.628066935267237,mp-1210811,0,0.0
PmMgCd2,0.0,-0.307593135624999,mp-862939,0,0.0
NaAs2,0.0,-0.158376559583333,mp-1077399,0,0.0
LiH4(NO2)3,3.161299999999999,-0.9698058273809532,mp-1211054,0,5.0
LiScSn,0.3626,-0.07124034111111,mp-1100438,0,0.0
Yb(ZnSi)2,0.0,-0.292857219000001,mp-1206961,0,0.0
Cs2AlInCl6,3.1183,-1.7911140397500032,mp-1113280,0,4.0
LiZnNi2,0.0,-0.141806453333332,mp-1185421,0,0.0
Sm4CdIr,0.0,-0.470069579166668,mp-1208937,0,0.0
TbZn3,0.0,-0.404498425625,mp-1188983,0,0.0
AcAgHg2,0.0,-0.398351831124948,mp-862873,0,0.0
CoAs,0.0,-0.213544173750001,mp-583,0,0.0
AcBr3,4.103299999999999,-2.494519163125,mp-27972,0,6.0
SnPd3C,0.0,0.139074630500005,mp-1018636,0,0.0
Mn8Si8O24,3.104117,,,0,4.0
Ti3Al5,0.0,-0.4510570825,mp-1217092,0,0.0
NaIn(GeO3)4,0.0,-1.538593787669221,mp-1519692,0,0.0
Y2Cl2Mo2O8,2.489998,,,0,3.0
Ca2ZrTiO6,2.393299999999999,-3.479441290333334,mp-1518628,0,3.0
Ba4Ce(RuO4)3,0.0,-2.550727824833333,mp-1214942,0,0.0
Sm3Zn22,0.0,-0.278351623599984,mp-1201457,0,0.0
HfPt3,0.0,-1.184154229375003,mp-11456,0,0.0
CaCu(Si2O5)2,1.0521,-3.006848306875,mp-6189,0,1.0
Bi2Rb2S8N8C8,2.646294,,,0,4.0
LiPN2,3.801599999999999,-1.025848460535714,mp-3524,0,6.0
H11CSO8F3,5.6433,-1.439295554635416,mp-1202796,0,7.0
W6Sn4Cl28,0.776494,,,0,1.0
La(CuO2)2,0.0,-2.044481595,mp-9416,0,0.0
ScS2,0.0,-1.495295626510416,mp-862373,0,0.0
MgAgF5,0.0,-2.288201064523809,mp-1401831,0,0.0
Lu3SnC,0.0,-0.668651213999996,mp-10609,0,0.0
CaAs2F12,4.8214000000000015,-2.618063421,mp-1213993,0,7.0
Na2LiN,0.0,-0.05188392145474,mp-7149,0,0.0
Li10Si(PS6)2,2.6895,-1.24362323450476,mp-720509,0,4.0
TaPb3,0.0,0.7300887099999961,mp-1187282,0,0.0
Pt1O2,1.493355,,,0,2.0
ScWN3,1.2255,-1.024203774499999,mp-1246967,0,1.0
Sr4Zn(IrO4)3,0.0,-2.094111872,mp-1218538,0,0.0
Ta2Se3,0.0,-0.8427346813708311,mp-9983,0,0.0
ZnBiF6,0.0,-2.29314638125,mp-1446593,0,0.0
NbBi4ClO8,1.5312,-2.046183301250014,mp-23630,0,2.0
PuTe2,0.0,-1.05908852069444,mp-1019107,0,0.0
CsDyI3,0.0,-1.471886077264367,mp-505418,0,0.0
BN(OF2)2,3.002199999999999,-2.098579680208334,mp-555207,0,4.0
Ba6Fe8S15,0.0,-1.31050921801724,mp-27489,0,0.0
Na4Eu(SiSe3)2,0.9075999999999992,-1.286615082659982,mp-1221181,0,1.0
TbAu3,0.0,-0.7136540329166641,mp-1025478,0,0.0
KSr2I5,3.649299999999999,-1.878176295593748,mp-1211448,0,5.0
YHoAg2,0.0,-0.31519344458333,mp-979425,0,0.0
Te7RuI6,1.001399999999999,-0.314587301547618,mp-1192722,0,1.0
LiH2SNO3,5.1849,-1.387534919322916,mp-699450,0,7.0
Ag4Se(IO2)2,1.2752,-0.6861801392282191,mp-556570,0,2.0
Pu3Mg,0.0,0.212888316250001,mp-1186811,0,0.0
CsRb2GdCl6,3.2239,-2.416271157465517,mp-1111780,0,5.0
HoOF,5.089399999999999,-4.275245123333333,mp-1072114,0,7.0
Pr10US16,0.0,-2.281087523719133,mp-675336,0,0.0
ZrZnN2,1.99,-1.155319141875001,mp-1014244,0,3.0
Pb4O4,0.221138,,,0,0.0
Cs6ZnGe8,0.9495999999999992,-0.194699185417625,mp-619101,0,1.0
KAl11O17,4.6859,-3.380122822146524,mp-1252068,0,7.0
Sm12Al5Fe14,0.0,0.139529915161291,mp-1201074,0,0.0
DyAl,0.0,-0.482276216249999,mp-433,0,0.0
Na2LaAlSi(SO6)2,4.0824,-2.6284494856715073,mp-2713643,0,6.0
Ba(Sb3Ru)4,0.0,-0.464568108235292,mp-9976,0,0.0
NaMg14Ni,0.0,0.084496591788793,mp-1028368,0,0.0
U2AlCo2,0.0,-0.186476056499992,mp-21269,0,0.0
Li3AsH36(SeN3)4,1.8623999999999992,-0.513047472354911,mp-866667,0,2.0
Ba2BiRuO6,0.0,-2.191964763499999,mp-561147,0,0.0
LaEuS2,0.0,-2.422839286406248,mp-1222958,0,0.0
Pt1I6Rb2,0.5110359999999999,,,0,0.0
KLaH2S2O9,4.4236,-2.304812567872222,mp-1195845,0,7.0
Cd12Ge17(B4O29)2,0.0001,-2.107194630824561,mp-1204954,0,0.0
DyFeB4,0.0,-0.6134154338888821,mp-1191987,0,0.0
Ag4C4N8H12,2.228964999999999,,,0,3.0
In3Cu3O8,0.0,-1.467939466428571,mp-759544,0,0.0
CsTcO4,3.414399999999999,-2.165791816192528,mp-27250,0,5.0
Sr(SmSe2)2,1.9221,-2.223309766607144,mp-38152,0,3.0
UGa5Pt,0.0,-0.442281116785715,mp-1078074,0,0.0
NaZn3H3S2O9,3.373199999999999,-1.676072638896073,mp-1220814,0,5.0
NbCr3S8,0.0,-0.966482930833333,mp-1247748,0,0.0
SbRh2,0.0,-0.375052091666664,mp-21359,0,0.0
TiCr2P3,0.0,-0.632122673015866,mp-1217080,0,0.0
HfTaN2,0.0,-1.5305571295416691,mp-1224296,0,0.0
TmGa2Ni,0.0,-0.6555273137500001,mp-1025504,0,0.0
Eu3Y,0.0,0.07105771208333,mp-1184475,0,0.0
Ba2SnSe4O5,0.212599999999999,-1.426393919322917,mp-1201423,0,0.0
Na2Co2O4,0.946728,,,0,1.0
MgTiBi(PO4)3,1.8678,-2.739739190681217,mp-1043828,0,2.0
DyP3(HO)6,5.3411,-1.811001431755952,mp-1198016,0,7.0
K4U3(AsO8)2,1.8696,-2.844375022559999,mp-1194764,0,2.0
In7Br9,1.6148,-1.008634638697915,mp-28988,0,2.0
SiH2O,0.0,-0.6472227768750001,mp-675098,0,0.0
Ho2NiRu,0.0,-0.414829864999996,mp-1184689,0,0.0
Ni9BiTeS8,0.0,-0.5672994145614031,mp-1189904,0,0.0
TiI2O7,2.5363,-1.588837904833334,mp-1205304,0,4.0
Cs2CuH8(SeO6)2,2.9431000000000003,-1.375873503759914,mp-1198901,0,4.0
Er8Rh5C12,0.0,-0.395251378800001,mp-1213315,0,0.0
Eu3(SiNi3)2,0.0,-0.400290825909091,mp-1191000,0,0.0
Ca(Al2Cu)4,0.0,-0.290848722307692,mp-10877,0,0.0
Rb6ReN4,0.0,-0.082190706590909,mp-1246396,0,0.0
Ba3Tm(BO3)3,3.8436,-3.315729301302068,mp-14385,0,6.0
MgZn2(Bi2O5)2,0.0,-1.625208979117647,mp-2229087,0,0.0
LuH24C4N4Cl7,5.0138,-0.743570058541666,mp-600181,0,7.0
Rb2Mg2(SO4)3,5.6159,-2.379198236447368,mp-1209620,0,7.0
GaN2OF5,1.8303,-0.301879894166666,mp-1197441,0,2.0
Te6Cr2Si2,0.222849,,,0,0.0
RbAs2H5O8,3.9867,-1.571865657343749,mp-699453,0,6.0
K9In9GeSb22,0.472199999999999,-0.34150611146951,mp-1223750,0,0.0
CeSi3Ir,0.0,-0.839946479999999,mp-1068906,0,0.0
NaP2H5O8,5.8073,-2.026037591682189,mp-505701,0,7.0
Ba(MgGe)2,0.0,-0.459078816000001,mp-7876,0,0.0
Ca2Cu2Ge4O12,1.46184,,,0,2.0
V2CrRe,0.0,-0.234624835624998,mp-865484,0,0.0
Er2Si3Ni,0.0,-0.673039171666665,mp-1225562,0,0.0
Sm2AlAg3,0.0,-0.352011184166665,mp-1219227,0,0.0
Th4Ru,0.0,0.231747944666665,mp-1208262,0,0.0
Na14Mg4Zr4Si7S5O48,2.6644,-2.723664211424517,mp-2715575,0,4.0
LiMg14Nb,0.0,0.094360064791667,mp-1026820,0,0.0
Pr2In,0.0,-0.458098612777774,mp-19854,0,0.0
Cu2BrCl,0.2172,-0.4165266837499999,mp-1225798,0,0.0
Ag2Te(H2O3)2,0.7501000000000001,-1.096259264615384,mp-1193238,0,1.0
Ba2CdGe10,0.059899999999999,-0.240146585192307,mp-1228889,0,0.0
Ca1Al1Si1D1,0.325889,,,0,0.0
Na2Ge2Se5,1.4997,-0.8632113688308221,mp-17964,0,2.0