formula,bg,formation_energy,mp-id,fidelity,bg_category
Ba32P24,0.7067439999999999,,,0,1.0
Ca6Mg2ZnP6(H2O5)6,5.033,-2.566139742155388,mp-1227427,0,7.0
Tl6TeO12,0.0,-1.202291198771932,mp-14410,0,0.0
Sr(FeS2)2,0.0,-1.085167064285714,mp-1218900,0,0.0
BO2F3,0.0,-2.114042669861111,mp-1182442,0,0.0
CaMg30BiO32,0.145099999999999,-2.89819962234375,mp-1037798,0,0.0
CuSn,0.0,0.009223705,mp-10598,0,0.0
Mg14SiCO16,1.4845000000000002,-2.65236542078125,mp-1034615,0,2.0
Ba2NbRhO6,0.8889,-2.733223787000001,mp-1205833,0,1.0
Ne,11.6898,0.0,mp-111,0,7.0
CaTmPt2,0.0,-1.179210548625,mp-866226,0,0.0
LuGeRh,0.0,-0.9924840172222212,mp-20610,0,0.0
Mn27Sb26,0.0,-0.28589921205595,mp-684881,0,0.0
YbZnCuP2,0.0,-0.8827929431904771,mp-1215494,0,0.0
V8Fe3N8,0.0,-0.8563940763157891,mp-1247009,0,0.0
Li5Nb6O18,0.0,-2.828623132126438,mp-531722,0,0.0
Cs2V2P6O20H2,1.987707,,,0,3.0
Ti2SiNi3,0.0,-0.613328751944444,mp-1208276,0,0.0
CsH3(SeO4)2,3.6551,-1.325113565399476,mp-1197584,0,5.0
Ta4NiS8,0.0,-1.252751379179486,mp-1218136,0,0.0
Sr2Y2Ti2O7,0.0,-3.253798047820512,mp-1048099,0,0.0
Bi2Sb2(TeSe)3,0.324099999999999,-0.531774874703125,mp-1227440,0,0.0
Al2Si2PbO8,4.2562,-3.105306262596153,mp-1195073,0,6.0
H5N2ClO4,5.4935,-0.496045368645833,mp-24370,0,7.0
Tm2ZnPd,0.0,-0.6430384100000031,mp-1187599,0,0.0
Ca3Os,0.0,0.415913635000002,mp-1183510,0,0.0
Cs3W2Cl9,0.265199999999999,-1.691383276354679,mp-568614,0,0.0
PrMnNi4,0.0,-0.19862639493295,mp-1219805,0,0.0
Li2ErPCO7,5.066800000000001,-2.789580831359126,mp-768195,0,7.0
Nd4Co,0.0,0.345587627666668,mp-1210260,0,0.0
Na2Be(SiO3)2,4.7889,-2.961274072523512,mp-556013,0,7.0
SrH4(SO4)3,5.865600000000001,-1.893720170875,mp-757723,0,7.0
Ba2PuZnO6,0.6585000000000001,-2.863711808874998,mp-1207069,0,1.0
KBr,4.3224,-2.018192221125,mp-23251,0,6.0
SiW3,0.0,1.356319324999994,mp-570334,0,0.0
Ba2Ce2O5,0.0,-3.35177787111111,mp-769656,0,0.0
Na1K3P2O6F2,4.541539,,,0,7.0
PuCl3,0.0,-2.3443700303125,mp-22918,0,0.0
CeTlCd,0.0,-0.332448681944451,mp-1018668,0,0.0
NdHoMg2,0.0,-0.073374888124998,mp-1186307,0,0.0
Ba4Cd4Sb6,0.0,,,0,0.0
Zr3(MnGa3)2,0.0,-0.468486055078371,mp-1191025,0,0.0
Li2Mg,0.0,-0.031753756111111,mp-976843,0,0.0
Cu2Lu2B10O20,2.018804,,,0,3.0
Br,1.326199999999999,0.0,mp-23154,0,2.0
SiHC3O,0.204199999999999,1.112808932291666,mp-698558,0,0.0
Li4Zn(H2N)6,2.6176,-0.5390171323188401,mp-1194891,0,4.0
Y3Ga9Pt2,0.0,-0.6679234641071431,mp-1104240,0,0.0
YSnPd,0.0,-0.924447789166666,mp-1095628,0,0.0
Gd4Si2S3O7,1.186599999999999,-3.243118321093749,mp-1204595,0,1.0
Sc2BeTl,0.0,2.408973740416665,mp-1095712,0,0.0
BeFe2W,0.0,3.6906544912499992,mp-1096665,0,0.0
S2Cs2Na2,2.52751,,,0,4.0
Li2H2Pt,0.0,-0.567461766166665,mp-644136,0,0.0
Ta2CS2,0.0,-1.133026158933333,mp-559976,0,0.0
AcPm3,0.0,0.038333158749999,mp-1183264,0,0.0
MgPbF6,3.0406,-2.853937199374999,mp-19734,0,4.0
Mg3Ge3(BiO6)2,2.6699,-2.1352050485,mp-1333536,0,4.0
Na4Si3(SnO6)2,3.174299999999999,-2.611213505500822,mp-554853,0,5.0
SmCdGa,0.0,-0.513057454166668,mp-1095197,0,0.0
Li2VPb2,0.0,0.193338047666667,mp-1205909,0,0.0
Ge(Bi3O5)4,2.3762,-1.696776255303031,mp-23352,0,3.0
Na2Sc2Nb6Si7S5O48,1.8661,-2.781870878956076,mp-2715591,0,2.0
Na8La3NbSi4(PO12)2,2.4671,-2.978582326475878,mp-2715620,0,3.0
In5S8Cs1,1.299592,,,0,2.0
Sr4Ca2Cu4Bi4IO16,0.0,-2.008814389354839,mp-1209382,0,0.0
GdFe2,0.0,0.016234090000002,mp-20089,0,0.0
Nd3(Co2Sn)4,0.0,-0.269395295166666,mp-1210125,0,0.0
Sm4Tm4MgO12,0.657899999999999,-3.5743649269047633,mp-1233301,0,1.0
Eu3Al5O12,0.0,-3.346018073500003,mp-21757,0,0.0
GdCuSe2ClO6,0.754,-1.838754899517045,mp-554419,0,1.0
H6N4O9,2.7873,-0.799036628026316,mp-1181419,0,4.0
Te6MoBr3,1.182499999999999,-0.434813409249999,mp-622262,0,1.0
CsHS2O7,5.3167,-1.865770863264106,mp-1190463,0,7.0
V5Sb4,0.0,-0.166437631111111,mp-30536,0,0.0
Tm(SiOs)2,0.0,-0.8005515119999981,mp-570217,0,0.0
La4Al,0.0,0.3681215425,mp-1211397,0,0.0
ZnBiO3,0.880799999999999,-1.511590225,mp-1378105,0,1.0
TmAu2,0.0,-0.9735891799999952,mp-560,0,0.0
K(Zr3I7)4,0.0422,-0.970870923530488,mp-685503,0,0.0
Ag3BiBr6,0.0,-0.492091700499999,mp-1120715,0,0.0
Ba2CuSn2F14,1.3161,-3.097228690526316,mp-1358549,0,2.0
SiBO3,0.0,-0.9995801968333332,mp-972839,0,0.0
CsHg,0.0,-0.206870159827587,mp-1080797,0,0.0
Hf,0.0,0.0,mp-103,0,0.0
La2U3O11,0.0,-3.602431232812497,mp-1223142,0,0.0
BCl3,4.7135,-1.0426612775,mp-23184,0,7.0
ThNF,2.259,-3.109788090000002,mp-8226,0,3.0
CeZnCuP2,0.0,-0.734047499857141,mp-1226509,0,0.0
In4Ba8Al4O20,2.036233,,,0,3.0
Nd7In6Ni5Ge3,0.0,-0.5965969555952371,mp-1220717,0,0.0
Yb3TlC,0.0,1.579169522999996,mp-22004,0,0.0
SrPrGaCuO5,0.159099999999999,-2.6167283449074072,mp-1173145,0,0.0
ClF,2.0897,-0.3409642162499999,mp-29504,0,3.0
Dy2Ge2O7,3.7413,-3.059176502575755,mp-772793,0,5.0
Rb2CeCu3Te5,0.0,-0.8717317907575751,mp-581778,0,0.0
RbSnO3,0.0,-1.6498113955,mp-1186893,0,0.0
Tl3GaF6,3.327699999999999,-2.311866914,mp-1205554,0,5.0
Cs2NaHoCl6,5.2906,-2.497521565568965,mp-542951,0,7.0
LuOs3,0.0,0.259833618333335,mp-973866,0,0.0
MoWSe3S,0.5986,-0.651270362083333,mp-1028541,0,0.0
Tl2SnCl6,2.4814,-1.431323001296296,mp-27832,0,3.0
Sr2Cu(BO3)2,0.5013000000000001,-2.782948522575758,mp-9660,0,0.0
Tb2Pt2O7,1.3579,-2.449571400757576,mp-754768,0,2.0
Sr8Mn4Mo4O24,0.685913,,,0,1.0
MgSi4SnO10,2.4662,-2.96392378203125,mp-1043375,0,3.0
Rb8Cd4O8,1.359512,,,0,2.0
Ca3NiN3,0.0,-0.7246630678571421,mp-1246203,0,0.0
LiZnP2HO7,4.4957,-2.417495878343253,mp-1211621,0,7.0
Na6Y6Ta2Si5S7O48,1.522599999999999,-2.77546847178526,mp-2715960,0,2.0
SrCa5N4,0.4205,-0.7903725513749991,mp-1246052,0,0.0
Li2ScCuCl6,1.856599999999999,-1.57492299833333,mp-1111262,0,2.0
RbP4N7,3.917399999999999,-0.6871483590476181,mp-505496,0,6.0
GeMoAs,0.0,-0.182783362916663,mp-1224404,0,0.0
Al6Si4O20H6,5.481019,,,0,7.0
Ba2ZnSb2,0.2922,-0.95065891,mp-1079149,0,0.0
Lu3In,0.0,-0.326272431249989,mp-1185478,0,0.0
MgTi2Zn2O6,0.167199999999999,-2.602450664696969,mp-2218034,0,0.0
Y6Br10Ni1,0.288967999999999,,,0,0.0
SrNd5S8,0.0,-2.350759100357137,mp-34680,0,0.0
Th5Sn3,0.0,-0.5672089462499981,mp-30873,0,0.0
NpZn(OF2)3,0.2011,-2.157969101704545,mp-1210186,0,0.0
Na4Cd7(N5O6)6,2.8612,-0.633174758643081,mp-1221989,0,4.0
Cu4In4Si2S12,0.798353,,,0,1.0
YCd3,0.0,-0.254545123749997,mp-2349,0,0.0
K3PrF6,5.521100000000001,-3.432067384341666,mp-1110852,0,7.0
CaP3,0.0049,-0.7309107334821421,mp-9122,0,0.0
Os4Se4Sb4,1.074203999999999,,,0,1.0
RbCrI3,0.168499999999999,-1.000396931,mp-27442,0,0.0
Y2Br3,0.6648000000000001,-1.838593256999999,mp-1205567,0,1.0
K4Mn2S4,2.550597,,,0,4.0
BaP6H16(N2O9)2,5.1044,-1.799903029619047,mp-1204631,0,7.0
SrMg14CdO16,4.7897,-2.826400232187499,mp-1034491,0,7.0
CsLiMg6O7,0.0,-2.3248214178658992,mp-1099243,0,0.0
Ni1Li2O2,3.738495,,,0,5.0
CaYCd2,0.0,-0.324767139999998,mp-1183556,0,0.0
Na3Zr3InSi3(SO8)3,3.3716,-2.727060082431657,mp-2714806,0,5.0
PrUTe6,0.0,-0.9561421695833372,mp-1219811,0,0.0
Dy11(In3Si2)2,0.0196,-0.732932806904765,mp-1205037,0,0.0
Eu2N,0.0,-0.907163462916666,mp-1212961,0,0.0
SrMgGe,0.0269,-0.524246304999999,mp-15643,0,0.0
SrRuN2,0.0,-0.308640371874998,mp-1246744,0,0.0
TaP4S4Cl5,1.8505,-1.029706076493196,mp-555967,0,2.0
Na7Ti16O32,0.0,-3.155197294781608,mp-760172,0,0.0
EuGe3Pd,0.0,-0.5810112079999981,mp-1068422,0,0.0
B5I,0.099499999999999,0.574756913611111,mp-1182499,0,0.0
NdY3Zr4O14,0.6442,-3.573025275795454,mp-1220113,0,1.0
CuHgSBr,0.449199999999999,-0.538091971875001,mp-554879,0,0.0
Tm2TlHg,0.0,-0.478607924375005,mp-981381,0,0.0
Ca8Be5Al3(Si9O28)2,0.0196,-3.210040931611111,mp-1227789,0,0.0
NaZrGaSi(SO6)2,3.4302,-2.4908707890118142,mp-2712609,0,5.0
Rb2AuI,3.182399999999999,-0.5810805799999991,mp-1093748,0,5.0
RbHfMg6,0.0,0.3260601553125,mp-1017066,0,0.0
Mn3Cr3Si7Ni16,0.0,-0.423002172690742,mp-1221908,0,0.0
Rb2MnCl4,1.2877,-1.954087174704433,mp-22978,0,2.0
SrZnSn(PO4)2,3.238699999999999,-2.6057906660989,mp-1046206,0,5.0
Ag1Sc1O2,2.140471,,,0,3.0
SbN6Cl,0.5765,0.241500694687497,mp-628690,0,0.0
Er2(Al3Pd)3,0.0,-0.7330825184395591,mp-1212854,0,0.0
Ba3CaI8,2.9489,-1.965274799166666,mp-859126,0,4.0
Sm2SbS,0.0,-1.677265054375,mp-1219172,0,0.0
Th7Ir3,0.0,-0.728711456500002,mp-571094,0,0.0
Tb5NiPb3,0.0,-0.528054605925928,mp-640444,0,0.0
Gd3S4,0.0,-2.262120790892855,mp-20036,0,0.0
HgP2Xe5F22,2.0719,-1.7419683479761912,mp-1195071,0,3.0
Kr1F2,2.847026,,,0,4.0
LuZr3,0.0,-0.000450144166663,mp-1185530,0,0.0
K2NaPdF6,0.5740000000000001,-2.494741916587931,mp-1205681,0,0.0
LiCa3Zr3TaO12,4.0214,-3.538013744533333,mp-677136,0,6.0
Ba3Lu(BO3)3,3.8606,-3.32100134421875,mp-14386,0,6.0
La4B4I5,0.0,-1.283685998589741,mp-1223076,0,0.0
GdMn2,0.0,0.218313671379306,mp-1076939,0,0.0
Ba5Y3Br19,3.4194,-2.38264081537037,mp-861730,0,5.0
Na2Zr2Zn2SiS5O24,2.4994,-2.343945227229406,mp-2714615,0,3.0
EuIn4Ir,0.0,-0.349732596944446,mp-1095333,0,0.0
As(IF2)3,1.3305,-1.726892136249988,mp-27445,0,2.0
YPd2,0.0,-0.624840596416665,mp-1062893,0,0.0
Na10Zn7Sn7H24(S13O6)2,1.946,-1.131169355974337,mp-720670,0,3.0
KB6P(H2O7)2,6.1480999999999995,-2.470841539015109,mp-758840,0,7.0
BaNd2Ti3O10,2.254299999999999,-3.656562611874999,mp-6285,0,3.0
LaNdCuO4,0.0,-3.006572671785714,mp-1222802,0,0.0
DySnAu2,0.0,-0.6910928916666661,mp-866287,0,0.0
Tm(Mo3Se4)2,0.0,-0.786803159916663,mp-1105008,0,0.0
Li3ThF7,5.682,-3.555880871931816,mp-27761,0,7.0
Mn5Si2,0.0,-0.279748866360839,mp-608655,0,0.0
ErGe2Pt,0.0,-0.8407238399999991,mp-17760,0,0.0
Ba(HoTe2)2,0.785,-1.77085865702381,mp-17273,0,1.0
CsIn(Cu3O4)2,0.0,-1.105328966020115,mp-1232361,0,0.0
CaCeIn2,0.0,-0.5731214125,mp-1183677,0,0.0
Na7Zn2SiSn2P5O24,1.9567,-2.48230799031389,mp-2715660,0,3.0
CeAlPt,0.0,-1.016719620833331,mp-19827,0,0.0
PtF4,1.295399999999999,-1.375093648,mp-8943,0,2.0
Na6Ta3Ga5(PO4)12,3.08,-2.73238069446158,mp-2714715,0,4.0
NaHf2Mg2PS5O24,3.938799999999999,-2.5621720967673,mp-2714236,0,6.0
MgCO6,1.9396,-1.099375789375,mp-1198523,0,3.0
Zr7Sb4,0.0,-0.7650108845454501,mp-32967,0,0.0
CuSe2Cl,0.8067000000000001,-0.336460636406249,mp-31038,0,1.0
CaPrRh2,0.0,-0.481732005416665,mp-1183584,0,0.0
LiH,2.981,-0.489362137708333,mp-23703,0,4.0
K2S2O7,5.2193,-2.115194569045453,mp-562102,0,7.0
Mg149Si,0.340399999999999,0.0058617449,mp-1185634,0,0.0
Ag2Cs4F8,0.203156999999999,,,0,0.0
Na4Sr2SiP4,0.9527,-0.8033550015367961,mp-1221153,0,1.0
RbGdSe2,1.033899999999999,-1.9765518055468752,mp-10781,0,1.0
Zr5Sb3Ru,0.0,-0.72374624694444,mp-1190262,0,0.0
CeYC4,0.0,-0.151488745,mp-1226549,0,0.0
Mg6NbV,0.0,0.243754978124999,mp-1021699,0,0.0
ZnSb2P2O9,3.721299999999999,-2.241176755663266,mp-1044935,0,5.0
Na6TeP6(H3O5)6,4.0377,-1.949972717054093,mp-1211028,0,6.0
Bi12PbO19,2.2324,-1.601876709843751,mp-757785,0,3.0
ZrWN3,0.0,-1.001811556458335,mp-1246572,0,0.0
FePSe3,0.0015,-0.41521412933482,mp-2928,0,0.0
K2LiPrCl6,4.8264,-2.275048830333337,mp-1110866,0,7.0
KCaNbBiO6,0.0,-2.396354770725,mp-1517626,0,0.0
CaMg14Zr,0.0,0.0639606437499999,mp-1028164,0,0.0
YB4W3,0.0,-0.363723334583333,mp-1215950,0,0.0
FeCoSi2,0.0,-0.5178229725000001,mp-1224983,0,0.0
La12Ni6Pb,0.0,-0.308559437894738,mp-1211984,0,0.0
LiMg2,0.0,-0.055750262222222,mp-865939,0,0.0
Mo4Cr2Li2O16,2.363708,,,0,3.0
CeB4(IrOs)2,0.0,-0.498265284074073,mp-1226711,0,0.0
Pd34Se11,0.0,-0.185382848314045,mp-568593,0,0.0
Na3La2In2P3(SO8)3,2.8756999999999993,-2.557037797853149,mp-2713913,0,4.0
Zr3CoSe6,0.0,-1.361778884437484,mp-1215665,0,0.0
Sr2NbInO6,3.3968,-2.982250818166667,mp-20222,0,5.0
Ce(Ni2B)6,0.0,-0.390979724736847,mp-21695,0,0.0
Re2P2O11,0.5705,-2.304902737285715,mp-647218,0,0.0
Os3C12(IO6)2,2.1452,-0.953079058620688,mp-621944,0,3.0
Ce2Gd2O7,1.432099999999999,-3.849013955681817,mp-1229315,0,2.0
YbRh2Pb,0.0,-0.661964873749994,mp-866027,0,0.0
LiMg2Ir,0.0,-0.339763440833333,mp-1232420,0,0.0
Rb2SeO4,3.6558,-1.802562071763392,mp-4618,0,5.0
BaSeO4,3.7215,-2.156183486640623,mp-12010,0,5.0
NaC4N3,3.5619,0.065052230156245,mp-574822,0,5.0
Sr3(PO4)2,5.4064,-3.3192211222527472,mp-4632,0,7.0
Na10Hf2Mg6Si3(S3O16)3,2.9427000000000003,-2.511692055016579,mp-2714914,0,4.0
Cu3Sb(PO4)4,0.002199999999999,-1.990310899940475,mp-780043,0,0.0
LuTaRu2,0.0,-0.509273698500001,mp-866125,0,0.0
Nd3GaO6,3.6505,-3.4508841035,mp-11773,0,5.0
Nd7Al7Co6,0.0,-0.354920315124996,mp-4983,0,0.0
Ba6Ni5O15,1.273159999999999,,,0,2.0
BaLaMg14,0.0,0.0824319809375,mp-1026766,0,0.0
Fe4Na12O12,2.296168,,,0,3.0
Na3H7Ru,2.5681,-0.338394054659091,mp-698032,0,4.0
U6Al43Mo4,0.0,-0.198552458301885,mp-1202283,0,0.0
CdBiSe2Br,1.388599999999999,-0.841849463937499,mp-570590,0,2.0
Li2FeBr4,0.0,-1.36176947095238,mp-22967,0,0.0
Pr4Fe,0.0,0.446596466666667,mp-1209804,0,0.0
Tl3Cu,0.0,0.286394302499999,mp-1187519,0,0.0
Sr24Ta8O43,0.0,-3.272354341115556,mp-675061,0,0.0
Mg2AgIr,0.0,-0.283800000416665,mp-864976,0,0.0
S2XeNO4F3,2.765,-1.201601158636363,mp-560139,0,4.0
TmAg3,0.0,-0.135910759166662,mp-30360,0,0.0
HoAl7Au3,0.0,-0.568672183181816,mp-16621,0,0.0
GdFe11W,0.0,0.006908339230769,mp-1225192,0,0.0
BaU11(GeO19)2,1.6020999999999992,-3.401486729230767,mp-1182767,0,2.0
Hg9(PO4)4,1.9039,-1.627610261243844,mp-542054,0,3.0
ZnBi4(PO6)2,3.1523,-2.150765471047933,mp-1201539,0,5.0
Ba4Sr2Lu3(BiO6)3,1.0072,-2.863542493666668,mp-1228201,0,1.0
Th(SiNi)2,0.0,-0.8282889399999971,mp-5682,0,0.0
RbH3(SO4)2,5.6712,-1.757586377232142,mp-733612,0,7.0
Mg16Si8HO32,1.903699999999999,-3.107696011951754,mp-1248719,0,3.0
LiNi9S10,0.0,-0.6004389734166651,mp-676685,0,0.0
Cs2RbZrOF5,4.7097999999999995,-3.359053138681035,mp-42022,0,7.0
Ni4Mo6CN,0.0,-0.195776754166667,mp-1220098,0,0.0
Eu3BrO4,0.0,-2.991215663750001,mp-540915,0,0.0
W3Cl18,1.607063,,,0,2.0
Cs2NaTlI6,0.0817,-1.1778754554023,mp-1112139,0,0.0
NaCeAu2,0.0,-0.497790127844825,mp-865080,0,0.0
Bi3(TeCl5)2,1.2582,-0.897175858666669,mp-1193877,0,2.0
Zr2In5Ni,0.0,-0.270326778229165,mp-602268,0,0.0
ThCd11,0.0,-0.11651580722222,mp-1204208,0,0.0
Sm(AlAu)2,0.0,-0.7379393630000001,mp-1078787,0,0.0
Y3Al2(Ni2H3)3,0.0,-0.459088001812499,mp-1202694,0,0.0
BaCe(SnSe3)2,0.0,-1.366786804156249,mp-1195945,0,0.0
Nd3AlNiS7,0.0,-1.845456008333332,mp-975614,0,0.0
Na5InO4,1.8906999999999992,-1.67336482335632,mp-14493,0,3.0
Hg8Te4O20,0.576379,,,0,0.0
Mn11Pd21,0.0,-0.225310051476291,mp-758104,0,0.0
Ba2PrIrO6,0.0,-2.67204645016668,mp-6135,0,0.0
Nb2CS2,0.0,-1.053680776,mp-4384,0,0.0
Na14Mg5Zr3Si6(SO8)6,2.9141,-2.628297637837119,mp-2714159,0,4.0
Sr(Mg4Al3)4,0.0,-0.022916239310344,mp-1187106,0,0.0
Nd6Al43W4,0.0,-0.306631938679251,mp-1196069,0,0.0
SiH9C3Cl,5.764200000000001,-0.376227084017856,mp-863018,0,7.0
Ba2Te6,0.743132,,,0,1.0
HfTiF6,0.0,-3.621669591666666,mp-37737,0,0.0
CaUF6,0.0,-4.002024404374975,mp-1227064,0,0.0
Mg5Si6,0.0,0.079327718636363,mp-568306,0,0.0
Dy4CrGe8,0.0,-0.563483163333328,mp-1225565,0,0.0
Hf2(TiGa)3,0.0,-0.3226559953125,mp-1224532,0,0.0
Cs2ZnBr4,3.8346,-1.779485215615764,mp-1193173,0,6.0
SiH12C2(NF3)2,6.966200000000001,-1.355020743913043,mp-556298,0,7.0
Li2Cu2F5,0.0,-2.279606559814814,mp-762259,0,0.0
Pm2CdSi,0.0,-0.448319074999997,mp-863654,0,0.0
RbPH3O4F,5.7119,-2.136029846839286,mp-761252,0,7.0
SnPd,0.0,-0.501837157500002,mp-2369,0,0.0
Nb2Pb3N4,0.0,-0.172072121499998,mp-1246173,0,0.0
CaEuZrGaO6,0.0,-3.026413273250001,mp-1522936,0,0.0
Ca2ZrTi(SiO5)2,3.1228,-3.515864087083335,mp-1227799,0,4.0
LiCrS2,0.6463000000000001,-1.252680724583332,mp-4226,0,1.0
GaNi2Pt,0.0,-0.377416704374998,mp-1224791,0,0.0
Os3P12,1.310251,,,0,2.0
NbAgO3,1.4737,-2.180191696583333,mp-5537,0,2.0
Ca4H8,2.82329,,,0,4.0
MnZn2Pt,0.068,1.663274223017242,mp-1095878,0,0.0
Cs2RuAuF6,0.0,-1.995628077800003,mp-1113110,0,0.0
KHfMg14,0.0,0.170366873296875,mp-1026836,0,0.0
K2Na3SiP3,0.8900999999999991,-0.408629041674055,mp-541694,0,1.0
CaOs3,0.0,0.8536668462500001,mp-1183599,0,0.0
P4K4Se24,1.779735,,,0,2.0
Rb2Bi8Se13,0.9539,-0.7904102748029891,mp-30145,0,1.0
I4K12O20,1.275508,,,0,2.0
FeIr,0.0,0.014803875000001,mp-1224967,0,0.0
CuSb(PO4)2,0.0,-2.106167429523809,mp-755148,0,0.0
Ac3Yb,0.0,0.050884636875004,mp-972002,0,0.0
CuBi,0.0,0.149742647499998,mp-569792,0,0.0
Zn2As2PbO10,0.0,-1.170561539,mp-1105438,0,0.0
KTb2F7,6.8138,-4.211747999558333,mp-1211521,0,7.0
TbH3,0.0,-0.7222324707291671,mp-982384,0,0.0
Sr2La2Mg(RuO4)3,0.0,-2.59513443225,mp-1218729,0,0.0
SrMgF4,6.6872,-3.994696773333332,mp-561022,0,7.0
Y3AlO6,4.6014,-3.823918631500001,mp-754979,0,7.0
CaThI6,2.9664,-1.628335603749999,mp-1214004,0,4.0
Tl2C3O4,2.932,-1.124671940740742,mp-555790,0,4.0
Li4HN,1.9079,-0.470201509097221,mp-30228,0,3.0
Cd2Y4S8,1.121772,,,0,1.0
CaP4(HO6)2,5.6369,-2.572141027951114,mp-697657,0,7.0
YB6,0.0,-0.462353786428573,mp-2203,0,0.0
RbLuS2O9,1.013299999999999,-2.215119485897437,mp-1210108,0,1.0
CdCuN,0.0,0.249110791666666,mp-1245663,0,0.0
KCdCu7Se2Cl9O8,0.0,-1.122152131676339,mp-553914,0,0.0
Cs2Sb,0.2839,-0.5605273737500001,mp-1191118,0,0.0
Na2H4(SO4)3,5.7006,-1.782520454417077,mp-707470,0,7.0
Ba3Ti3O8,0.0,-3.316361045714285,mp-33339,0,0.0
Y2Ge2Ru,0.0,-0.7959781299999991,mp-1207905,0,0.0
Y2Te3,0.559299999999999,-1.6689013615,mp-1189791,0,0.0
Sr2Ti(SiO4)2,3.8662,-3.424073574102564,mp-1192641,0,6.0
PtC4(NCl3)2,0.7987000000000001,0.6956150522115431,mp-729934,0,1.0
CsSi2BO6,5.3918,-3.052513583007184,mp-1019719,0,7.0
Nb3GeTe6,0.0,-0.720635351249998,mp-28754,0,0.0
HoSiPt2,0.0,-1.2735074568749951,mp-1190095,0,0.0
Cs3Li2I5,3.7443,-1.58983028506322,mp-1181918,0,5.0
PmSm3,0.0,0.020715573124999,mp-1186633,0,0.0
Si4Ir3,0.0,-0.7147565164285731,mp-15656,0,0.0
Sc5(Si5Rh2)2,0.0,-0.793217329999999,mp-1196760,0,0.0
Er3(Si3Pd10)2,0.0,-0.834602074482759,mp-1212872,0,0.0
Rb6Nb4As2Se22,1.136326,,,0,1.0
CeSmI4,0.0,-1.414910457499999,mp-570470,0,0.0
MgCd2,0.0,-0.055590078333331,mp-1094763,0,0.0
Na2Nb8Si9(SO16)3,2.3977,-2.870679718932266,mp-2714227,0,3.0
RbNaMg14O15,3.279699999999999,-2.662314041738042,mp-1034563,0,5.0
BaCaNdNbO6,2.9859,-3.3517735105,mp-1519641,0,4.0
LiY2Ru,0.0,-0.244852593333332,mp-862673,0,0.0
SiCCl3,3.423899999999999,-0.901636052936842,mp-1209042,0,5.0
Mg14ZrCd,0.0,0.0268233193749999,mp-1027841,0,0.0
CaP2(H2O3)3,5.5328,-2.146688795376984,mp-706278,0,7.0
Be2RuRh,0.0,2.974650495,mp-1097267,0,0.0
Nb2P2O9,0.0,-2.778430149175825,mp-756631,0,0.0
KCa4Si8H16O28F,4.8743,-2.4933198284870692,mp-1196532,0,7.0
Rb4S6Si2,2.812231,,,0,4.0
Ba15Fe7S25,0.020999999999999,-1.723899049787234,mp-680291,0,0.0
Li7Ti2P7O24,0.224899999999999,-2.735079755812501,mp-757327,0,0.0
K2ScSi4O10F,4.7453,-3.291773420249999,mp-557777,0,7.0
ScZnCu,0.0,-0.295312874166667,mp-1219292,0,0.0
Ho2Ge3,0.0,-0.467687924999997,mp-1224077,0,0.0
Lu2Mn17C3,0.0,-0.100737218552769,mp-1211163,0,0.0
PuBiPd2,0.0,0.169963082812503,mp-861726,0,0.0
Ti9Mn2(B4Ru9)2,0.0,-0.558646228356632,mp-1197511,0,0.0
Cd1Al2S4,2.722357,,,0,4.0
Na8Cu2O7,0.0,-1.336787869325556,mp-779159,0,0.0
Cs2SmCuCl6,2.5700000000000003,-2.026102832499998,mp-1111449,0,4.0
Eu(GaGe2)2,0.0,-0.223269307857144,mp-1225812,0,0.0
Ta3Co2Mo,0.0,-0.180928858666664,mp-1217987,0,0.0
Zn2Cr4S8,1.045532,,,0,1.0
Pb3(SO6)2,1.1614,-1.275718280588235,mp-1220658,0,1.0
LiGdSe2,1.1717,-1.926430368697914,mp-15792,0,1.0
NdGaAu2,0.0,-0.614731418749999,mp-1186306,0,0.0
NdEuHg2,0.0,-0.584440166874998,mp-1186311,0,0.0
Fe4O10B4,2.959076,,,0,4.0
LiRuN2,0.0,-0.167019189583333,mp-1245526,0,0.0
SmFe2,0.0,0.02292652,mp-1729,0,0.0
Ba3P2(SeO)4,1.3262,-2.345350810281593,mp-1192881,0,2.0
ZrPRh,0.0,-1.27738813404762,mp-1101753,0,0.0
ZnCuO2,0.0,-1.180529732499999,mp-1048350,0,0.0
In2Ga2S6,1.633933,,,0,2.0
YMgHg2,0.0,-0.443571210000004,mp-866164,0,0.0
Ho4Sb3,0.0,-1.1249773321428531,mp-2124,0,0.0
TmH2ClO2,5.0219,-2.435831701666668,mp-1190688,0,7.0
Zn3P6H6O19,0.0,-1.438178971186974,mp-1198871,0,0.0
VNi,0.0,0.002416562083332,mp-1216313,0,0.0
GaC,0.0,0.9963498899999992,mp-1184015,0,0.0
SrCaTbNbO6,2.865,-3.3205194576666672,mp-1522128,0,4.0
LiErGe,0.0,-0.7107592472222211,mp-13474,0,0.0
Cd1C1N2,2.305662,,,0,3.0
Gd5(AlCo)2,0.0,-0.309209814999999,mp-1189017,0,0.0
CePt3,0.0,-1.032251205000001,mp-11318,0,0.0
LiTm2Co,0.0,-0.112856828333338,mp-867136,0,0.0
Pr2Al2CuNi,0.0,-0.417233226666665,mp-1219968,0,0.0
KNaS,2.4851,-1.285839426354165,mp-28383,0,3.0
Cd(PO4)2,0.2756,-1.58171967660173,mp-726886,0,0.0
Zr(CoGe)6,0.0,-0.205702425769231,mp-10359,0,0.0
NaNp3,0.0,1.090682916799565,mp-1186195,0,0.0
PrAlPt,0.0,-1.024592158888887,mp-570042,0,0.0
ErO3,0.2098,-2.077117393749999,mp-1025483,0,0.0
KGdTi4O12,0.0,-2.883047241699074,mp-1521350,0,0.0
U2PN2,0.0,-1.65618982309524,mp-5381,0,0.0