formula,bg,formation_energy,mp-id,fidelity,bg_category
Cd(CuO2)2,0.320199999999999,-1.080805735714285,mp-772099,0,0.0
Ba2Ti2F11,0.0531,-3.8402101101111112,mp-1044618,0,0.0
La11Hg45,0.0,-0.389609972008916,mp-1204948,0,0.0
Dy2ZnHg,0.0,-0.463977093125002,mp-984627,0,0.0
SrHgO2,2.1978,-2.040084700625002,mp-665922,0,3.0
SrSmScO4,3.7388,-3.627285303571427,mp-1217782,0,5.0
Mn1Ba2Te1O6,1.021438,,,0,1.0
BaCaB2O5,4.4673,-3.206978065092593,mp-1019542,0,7.0
MgCrCu3Se4,0.0,-0.563302297152777,mp-1180289,0,0.0
Mg4AlB10,0.0,-0.131363380111109,mp-1222150,0,0.0
CeNi9Ge4,0.0,-0.396633321785714,mp-1193206,0,0.0
Mg14CdW,0.0,0.15094312625,mp-1026476,0,0.0
LaSn,0.0,-0.926039674999998,mp-1018047,0,0.0
K2BaNb2S11,0.9839,-1.297709277859374,mp-1212599,0,1.0
SrAgGe,0.0,-0.452680055809524,mp-1218537,0,0.0
Cd2GaAgS4,1.0437,-0.8115381298958321,mp-6356,0,1.0
TcP3,0.450600000000001,-0.511002482857142,mp-28029,0,0.0
LiTl2InCl6,2.8771,-1.573692023666667,mp-989512,0,4.0
LiLaBi2,0.0,-0.886761129166671,mp-1095149,0,0.0
S16N16,2.169887,,,0,3.0
Nb9As2O25,0.0,-2.576075217500001,mp-1210182,0,0.0
Hf4Co7Ge6,0.0,-0.5819388817647051,mp-1105833,0,0.0
La5Al15Cu2Au3,0.0,-0.5903970446,mp-1225911,0,0.0
Er2Fe14B,0.0,-0.117598462745096,mp-3680,0,0.0
NaSrTbBiO6,0.0,-2.368149300804597,mp-1517259,0,0.0
Na3SiSnCO7,0.0,-2.264262104933686,mp-771250,0,0.0
KLaGeS4,2.303599999999999,-1.588957184607142,mp-559043,0,3.0
Rh2Te12I6,0.879367,,,0,1.0
Re3Ru(N3O7)2,0.0,0.191281058229165,mp-1196627,0,0.0
Mo2Na8N4O4,2.386239,,,0,3.0
Na4SiO4,3.2221,-2.381574120057471,mp-7500,0,5.0
Cd12K8Te16,1.461383,,,0,2.0
MnHg3,0.0,0.294414591767242,mp-1185994,0,0.0
VFeN2,0.0,-0.543579893750001,mp-1246237,0,0.0
Gd4Cu5P7,0.0,-0.904956004270832,mp-1224964,0,0.0
Cs2NaTbF6,6.8618000000000015,-3.58348305773563,mp-1206873,0,7.0
Cs4SiO4,2.8227,-2.203128711235632,mp-771255,0,4.0
Dy2Zn17,0.0,-0.274633795526314,mp-30964,0,0.0
La3Ir3O11,0.0,-2.451199532794116,mp-9612,0,0.0
NiGeRh2,0.0,2.472402775624999,mp-1097160,0,0.0
Li3AsH16(SO2)4,2.3283,-1.223003575,mp-1196446,0,3.0
Li8Hf3,0.0,1.049582007575754,mp-1190933,0,0.0
La5B4Rh15,0.0,-0.6337971142361111,mp-1223216,0,0.0
Sb4Rb4Se8,1.423538,,,0,2.0
LaSi4Ni9,0.0,-0.5679900817857141,mp-11726,0,0.0
Ga3Sn,0.0,0.1934804925,mp-1184031,0,0.0
Sr11Al4In3,0.0,-0.256080985277777,mp-642031,0,0.0
Li4Ti2Cu3Sb3O16,0.0,-2.104482110357143,mp-776445,0,0.0
Y2Zn3N4,1.680499999999999,-0.8522401019444421,mp-1246637,0,2.0
Y2Cd3N4,0.030499999999999,-0.454572259999999,mp-1246032,0,0.0
Zn2Bi3O8,0.0,-1.437785043846154,mp-1445003,0,0.0
Ti(CuS)4,1.4256,-0.82992570925926,mp-29091,0,2.0
NaSmTe2,1.1738,-1.5892576775000011,mp-999447,0,1.0
Ti2IrW,0.0,-0.5145119691666691,mp-972337,0,0.0
KP2H8SN7O2,4.7374,-0.730929565370747,mp-707368,0,7.0
Sr2H6Pt,1.276,-0.662981073611111,mp-1208839,0,2.0
SrPrZnRuO6,0.0,-2.437875147666666,mp-1218068,0,0.0
Sc3Si6N11,2.461900000000001,-1.405888751,mp-1245870,0,3.0
PuPt5,0.0,-0.440962174791662,mp-7751,0,0.0
Pr2Nb11O30,0.0,-3.143996733565892,mp-557497,0,0.0
Zr2Co3Mo,0.0,-0.244601512499999,mp-1215796,0,0.0
Er2Be2SiO7,5.3446,-3.591676005833333,mp-1212878,0,7.0
Hg3HN2O7,2.335099999999999,-0.785108260288463,mp-1199625,0,3.0
MnSbPd,0.0,-0.093836222643677,mp-4142,0,0.0
Na4CuTe2O29,0.036499999999999,-0.448679727329182,mp-1199423,0,0.0
Yb5Sn3,0.0,-0.7201032175000031,mp-1188350,0,0.0
Mg8Fe3N8,0.0,-0.5664010121052631,mp-1245495,0,0.0
In5Cl9,2.9777,-1.120648401607141,mp-28112,0,4.0
As2PbO6,2.1358,-1.7332001416666651,mp-20015,0,3.0
ErThCN,0.0,-1.037512179999998,mp-1225387,0,0.0
PrFeCo4,0.0,-0.01298433361111,mp-1219989,0,0.0
RbIO3,2.8369,-1.3725295435,mp-27193,0,4.0
NdAlNi4,0.0,-0.469391071249998,mp-1220177,0,0.0
RbLi2(H2N)3,2.2125,-0.534164239305555,mp-722455,0,3.0
Ba9La5I33,2.045,-1.92519031393617,mp-851110,0,3.0
MgAu2(SO4)4,1.7625000000000002,-1.654320421956522,mp-1194889,0,2.0
AlBi3,0.0,0.231929007499999,mp-1183170,0,0.0
Na18Ca4Nb8Si15(SO24)3,1.6189,-2.817085524477731,mp-2714006,0,2.0
CuAg3S2,0.1828,-0.112988973298608,mp-644883,0,0.0
Sr3Y2(GeO4)3,3.2862,-3.0728215795,mp-15103,0,5.0
Lu2Sb2O7,2.0983,-2.840538141666667,mp-772486,0,3.0
Li2BiO3,0.0,-1.8518620152777772,mp-753162,0,0.0
KRuN2,0.0,-0.109952636916666,mp-1029978,0,0.0
Ca2IrRhO6,0.0,-2.106184376999999,mp-1227404,0,0.0
Li3Ti(Si2O5)3,0.323099999999999,-3.083487563033334,mp-772545,0,0.0
Sr2MgCuC(NO)2,0.0,-1.03066939,mp-2239929,0,0.0
La6UO12,1.9728,-3.939659098421054,mp-19992,0,3.0
Ag1N1O2,1.721322,,,0,2.0
Cd1Cl2,3.463756,,,0,5.0
Cs3GaBr6,2.3433,-1.684047033646552,mp-1112368,0,3.0
TiCr,0.0,0.222220635416666,mp-1216959,0,0.0
NbCrRe2,0.0087,4.54865912812501,mp-1097435,0,0.0
Ti2HCSe4Cl16O5,0.3528,-1.290639852492816,mp-1217613,0,0.0
Nb2V3(Cu3S4)5,1.0546,-0.8511451694999991,mp-1220816,0,1.0
Hg4Cd2Se2O12,0.920192,,,0,1.0
Li7IrN4,0.308399999999999,-0.378898179756945,mp-1245361,0,0.0
TaAlCu,0.0,-0.293247576611108,mp-1218096,0,0.0
KTlCl2,4.032,-1.784517678270835,mp-1211405,0,6.0
Ag2AsO2,0.0,-0.152529003166665,mp-1215023,0,0.0
PdPb4Au,0.0,-0.138493770000006,mp-1219939,0,0.0
Ba2Sm(CuO2)3,0.0,-2.22244960375,mp-622576,0,0.0
B4H12,5.133896,,,0,7.0
TbH2,0.0,-0.8003036291666681,mp-24724,0,0.0
NaSi2H7O8,4.9156,-1.992495151951628,mp-1221121,0,7.0
Hf6Ni16Ge7,0.0,-0.600447166551722,mp-580092,0,0.0
MoPRu,0.0,-0.541038211825397,mp-22451,0,0.0
Hg2P2S7,1.8095,-0.490929933344155,mp-27171,0,2.0
Co2O4S2Na10,1.885347,,,0,3.0
Ba2BiIrO6,0.0,-2.127008411,mp-1078727,0,0.0
Li9Bi3P8O29,4.1824,-2.568742424227404,mp-585305,0,6.0
Sm3(Bi7Te12)2,0.0,-0.400777082865848,mp-675353,0,0.0
Ho2Ni7,0.0,-0.397168906111108,mp-1190300,0,0.0
CaB2H3,0.0,-0.202092710763888,mp-1191384,0,0.0
Ce2InNi2,0.0,-0.463238113333329,mp-640108,0,0.0
H5IO6,2.3577,-1.003818804479166,mp-27773,0,3.0
EuCu4Pd,0.0,-0.245665530833334,mp-1225153,0,0.0
RbMg14Ti,0.0,0.214889113697916,mp-1026502,0,0.0
Pr2EuS4,0.472799999999999,-2.401814077083332,mp-34309,0,0.0
ErCuPbS3,1.5553,-1.352142200416665,mp-1225628,0,2.0
CsAsF4,4.6128,-2.718765889525862,mp-5707,0,7.0
CeZn2Ag,0.0,-0.216130537916665,mp-867186,0,0.0
Ba5In5O12,0.0,-2.331098504242424,mp-753422,0,0.0
K4NO,0.0,-0.322600918166666,mp-1072340,0,0.0
DyB4Rh,0.0,-0.609679234722246,mp-1212866,0,0.0
Dy2CuAg3,0.0,-0.260100366388886,mp-1225292,0,0.0
Mg2SnHg,0.4011,0.995264203124998,mp-1097268,0,0.0
Bi2Te2Cl2,1.274917,,,0,2.0
PdC4S4(IN4)2,0.135399999999999,0.42587761105263,mp-1202068,0,0.0
YScAu2,0.1025,1.465533856250004,mp-1097242,0,0.0
PmPrHg2,0.0,-0.555264278541663,mp-1186627,0,0.0
PbSeO3,3.367199999999999,-1.45657471196875,mp-630329,0,5.0
Ca2Ni3Ge2,0.0,-0.5030077828571421,mp-1104825,0,0.0
K3(Mg10In7)2,0.0,-0.071768424731981,mp-571068,0,0.0
La2TlIn,0.0,-0.456167927500004,mp-1185194,0,0.0
Tm2ZnAg,0.0,-0.374587262500003,mp-971979,0,0.0
MgAl2(OF4)2,0.7397,-2.898704291153846,mp-1104738,0,1.0
Li3Sn11Pd4,0.0,-0.366830746944442,mp-1222500,0,0.0
CsSe,0.0,-0.729525776406248,mp-1058331,0,0.0
SnCl,0.0,-0.550427714374999,mp-978928,0,0.0
Mg(AuF4)2,1.981099999999999,-2.026663795909089,mp-8708,0,3.0
Eu(P3Ru)4,0.0,-0.6965870141596641,mp-1188524,0,0.0
DyMnSn2,0.0,-0.371592212399422,mp-1202416,0,0.0
Fe3N8C8Br16,1.882895,,,0,3.0
Rb2AlTlCl6,3.8790999999999993,-1.962521743833334,mp-1114008,0,6.0
Cr2GaC,0.0,-0.129634181874999,mp-20197,0,0.0
CeP2N2O9,0.0,-1.177002990306122,mp-1213838,0,0.0
Rb3HoF6,5.1981,-3.50467449775,mp-1206005,0,7.0
UP2H10CO11,2.5169,-1.819109942371427,mp-1203862,0,4.0
YZnSi,0.0,-0.7206466100000001,mp-1215676,0,0.0
K3TmF6,6.7339,-3.622052274675001,mp-1211645,0,7.0
Rb3Ba,0.0,0.150170544374999,mp-975053,0,0.0
CeMg2,0.0,-0.043528237222221,mp-1039345,0,0.0
Sr2YCu2SnO7,0.0,-2.375008713076922,mp-1046186,0,0.0
PC2S2N3,3.2539,-0.038766001108633,mp-652353,0,5.0
Sr(CrAs)2,0.0,-0.442601077,mp-570031,0,0.0
Tb4Co,0.0,0.306220327666667,mp-1208529,0,0.0
NdNiC2,0.0,-0.255400774374999,mp-5383,0,0.0
Tm2TlZn,0.0,-0.382602256250002,mp-1187601,0,0.0
NdMgCd2,0.0,-0.307852513124997,mp-866065,0,0.0
Na2HfMgSi(SO6)2,3.6334,-2.635660436197822,mp-2713314,0,5.0
La14Au51,0.0,-0.6633894832307691,mp-1223670,0,0.0
Nd3O2F5,3.8537,-4.093184895249999,mp-1101619,0,6.0
LiAgF4,1.3393,-1.877827997777777,mp-765559,0,2.0
HoH16C2S2NO12,5.5807,-1.3597412942647051,mp-555297,0,7.0
Ce3SiS2,0.0,-1.834043576770833,mp-1226845,0,0.0
Ce2C3,0.0,-0.3768693485,mp-20181,0,0.0
NaHo3,0.0,0.314332133362068,mp-1186150,0,0.0
Ce2S4O17,0.145499999999999,-2.209403391956521,mp-1190870,0,0.0
Li3YBr6,4.1363,-1.998035573,mp-1147619,0,6.0
S8H16,3.243037,,,0,5.0
Na12Ca10Nb2Si3(S5O24)3,1.027,-2.493282086132033,mp-2713349,0,1.0
Ga2Te2I14,1.825508,,,0,2.0
LiSbRh2,0.0,-0.632197939166665,mp-861667,0,0.0
CeMg2Cu9,0.0,-0.114479988645832,mp-542934,0,0.0
Re(Te4Cl3)2,0.204899999999999,-0.5325663015555551,mp-624000,0,0.0
V6GaSn,0.0,-0.1439320037499999,mp-1216451,0,0.0
MgC2S2(OF)2,1.3063,-0.5901798811111101,mp-1222075,0,2.0
USNO9,0.0236,-0.817139540208332,mp-1179327,0,0.0
La2TeO6,2.9623999999999993,-3.003671611018521,mp-17350,0,4.0
KN3O4,2.8552,-0.7777177634062501,mp-3768,0,4.0
V4Zn5,0.0,-0.07320986611111,mp-30883,0,0.0
FeCu2Sn3S8,0.652999999999999,-0.667444031071427,mp-1225180,0,1.0
PrCuGe2,0.0,-0.637492519166666,mp-978092,0,0.0
Nb2Te3,0.0,-0.676008516,mp-570451,0,0.0
RhPb2,0.0,-0.103205234999999,mp-321,0,0.0
Er3B5O12,5.3497,-3.365137111291666,mp-560278,0,7.0
Cs2NbAuF6,0.1377,-2.604898890000007,mp-1112641,0,0.0
CuH2(CO2)2,0.867,-1.102490466944443,mp-1201042,0,1.0
Ga2Cu(SO)2,0.0,-0.18399686142857,mp-1147755,0,0.0
Rb2Ni1F6,1.871558,,,0,2.0
TiAlNi,0.0,-0.488745074444443,mp-1217084,0,0.0
Li6MnS4,1.946799999999999,-1.37908535026646,mp-756490,0,3.0
CdSiAs2,0.400199999999999,-0.10667615875,mp-3078,0,0.0
K19Na6Tl24Au,0.0,-0.0980589525205199,mp-1202061,0,0.0
EuAgP,0.0,-0.890965169325397,mp-20482,0,0.0
UAlIr,0.0,-0.662281418888885,mp-1079219,0,0.0
Na3B7O12,4.9219,-2.76291957946839,mp-31073,0,7.0
U2Ti3Si4,0.0,-0.6028777589999971,mp-22814,0,0.0
U(PO3)4,0.0139,-2.836625027783613,mp-1202567,0,0.0
Ag8Cl4N4O12,1.682294,,,0,2.0
UNi2Sn,0.0,-0.211664506249997,mp-672374,0,0.0
Fe4P6SN12,0.0,0.482813112375776,mp-1225202,0,0.0
HfMg14NbO16,0.2984,-2.7909678325,mp-1033870,0,0.0
Be2RhAu,0.0,-0.414462902499998,mp-866024,0,0.0
Ca(Sm2Se3)4,0.0,-2.154587452678578,mp-34196,0,0.0
YbCo3P2,0.0,-0.917021850714288,mp-1203041,0,0.0
Na2Sc3Nb5(PO4)12,1.9543,-2.988177290906756,mp-2713761,0,3.0
ZrSiRu2,0.2353,-0.7984018825000021,mp-1183042,0,0.0
CdSeO3,3.0904,-1.414481231468751,mp-9186,0,4.0
DyCuTe2ClO6,0.6082000000000001,-1.9982956261363631,mp-554882,0,0.0
BRu3,0.0,0.457341790208335,mp-1183231,0,0.0
ErSi2Rh3,0.0,-1.059357048333332,mp-8535,0,0.0
Li2C,0.0,0.8478305273148151,mp-1210743,0,0.0
ScTiCo2,0.0,2.66487389125,mp-1097148,0,0.0
ScGaCo2,0.0,-0.349506956250001,mp-867915,0,0.0
LaCoTc2,0.0,0.6380505156260801,mp-631633,0,0.0
Cd3Se3O10,3.0782,-1.373679018564463,mp-542117,0,4.0
Ho2InOs,0.0,-0.247253231666663,mp-1184630,0,0.0
Bi2Se12Cu2P4,0.97196,,,0,1.0
Ba2Ho(CuO2)3,0.0,-2.243011351249999,mp-616166,0,0.0
Mn4SbAs,0.0,0.008092433462643,mp-1221724,0,0.0
Sc(SeO3)3,0.4171,-1.468155964387019,mp-1193171,0,0.0
Cr2CoS4,0.0,-0.8285461771428551,mp-21299,0,0.0
Pd(C4N3)2,1.450699999999999,0.379602661111111,mp-1245403,0,2.0
Na3Ge,0.0,-0.028741722494611,mp-1185667,0,0.0
Dy10Al4Ge11,0.0,-0.81423864619999,mp-1226088,0,0.0
Sr4CaSm2Ta2O12,0.379699999999999,-3.249818336412698,mp-1233600,0,0.0
As2Xe4Ag2F20,1.862139,,,0,2.0
CuAsSe2,0.322,-0.063733577656254,mp-29643,0,0.0
BaGe,0.0,-0.5962258124999991,mp-1730,0,0.0
NaNb2AsO8,2.700199999999999,-2.5742503603232763,mp-560032,0,4.0
Na3GaSi2SnSO12,2.460999999999999,-2.391448087373564,mp-2714340,0,3.0
Al2NiN3,0.008599999999999,-0.7967260623611121,mp-1246782,0,0.0
Na2Y4Ga4SiS11O48,1.473,-2.317694982551314,mp-2714220,0,2.0
Tb3NiGe2,0.0,-0.7819041724999991,mp-1191273,0,0.0
Na2ScNb3Si4(SO12)2,1.8431,-2.840335379150702,mp-2715541,0,2.0
K3Ce,0.0,0.631775958999998,mp-1185298,0,0.0
HoSeO3F,4.2961,-2.816129303723958,mp-558538,0,6.0
Zr4Al3,0.0,-0.51850827,mp-12752,0,0.0
Hg3I8Cs2O1H2,1.596683,,,0,2.0
EuZnAu2,0.0,-0.495666281250001,mp-1184264,0,0.0
Er3Ga8Au3,0.0,-0.585837396476193,mp-1104332,0,0.0
Co4Sb8O16,1.990701,,,0,3.0
Ru2P8,0.729872,,,0,1.0
KBaC20,0.0,0.203027896943179,mp-1223585,0,0.0
Ga2Mn1S4,2.178456,,,0,3.0
Tb4C2Br3,0.0,-1.333102814074075,mp-1208505,0,0.0
Sm14Ag51,0.0,-0.254334374076923,mp-1219378,0,0.0
KUCuS3,0.0,-1.457796867458331,mp-13349,0,0.0
Al7(CN)3,0.0,-0.682936678461539,mp-569102,0,0.0
LiNb2(PO4)3,0.0,-2.777763071236772,mp-26389,0,0.0
Hg1In2Te4,0.50976,,,0,0.0
MgAlO2F5,0.395899999999999,-2.458742468888888,mp-1189240,0,0.0
K2RbAsI6,2.3175,-1.08254078295,mp-1111606,0,3.0
Y(AsO)2,0.2561,-1.414272881,mp-1208180,0,0.0
BaCaEuSbO6,0.0,-2.826719530500001,mp-1520835,0,0.0
Er3B7W,0.0,-0.623808392651513,mp-1191731,0,0.0
NaZrSi2O7,0.0,-3.042402821943573,mp-725970,0,0.0
AlBMo,0.0,-0.486898272500001,mp-7574,0,0.0
Ti4Cd4O12,2.120702,,,0,3.0
Rb9Na2Al11Si13O48,2.456,-3.073222792051309,mp-720212,0,3.0
Nd4Se3O4,1.323299999999999,-3.134966523366476,mp-553278,0,2.0
Mn3HgN,0.0,-0.170498983189659,mp-1206402,0,0.0
La3TaSiS5O24,2.4827999999999992,-2.667263219014706,mp-2713036,0,3.0
Er2Ga3Cu,0.0,-0.6723941694444421,mp-1225597,0,0.0
HoGa,0.0,-0.6207172537499981,mp-1018073,0,0.0
InI4N,0.0,0.304575846805555,mp-1191052,0,0.0
CsAlSiO4,4.466799999999999,-3.186565120307881,mp-1192933,0,7.0
ErZn12,0.0,-0.194130867179489,mp-30614,0,0.0
PrBi2BrO4,1.2269,-2.343494804583335,mp-551900,0,1.0
Na3Sr3GaP4,0.746699999999999,-0.772180782291759,mp-10096,0,1.0
Na3Ca(BO2)5,4.556699999999999,-2.810742140393224,mp-542719,0,7.0
Ba3CaNb2O9,2.646,-3.3031831950000012,mp-1214569,0,4.0
Al(SnO2)2,0.0,-1.997496740714284,mp-1444267,0,0.0
ErSbIr,0.0,-0.8892689541666621,mp-1213011,0,0.0
Zn3Ge3(BiO6)2,1.7341000000000002,-1.694931535375,mp-1332100,0,2.0
KYSiS4,2.806199999999999,-1.6339810678571431,mp-863754,0,4.0
Mg2ClO3,2.0435,-1.773582713333333,mp-1210988,0,3.0
Sr2CaTi3O9,2.0672,-3.541167437833334,mp-1218872,0,3.0
Al(Ag3Se2)3,0.0,-0.291738269648437,mp-1214959,0,0.0
Te(HO2)2,1.7198,-1.299081003452381,mp-625526,0,2.0
K4Al2O,0.0,0.029391955857143,mp-1211680,0,0.0
K2CeS3O13,0.394499999999999,-2.172799007868421,mp-1197944,0,0.0
Na7La2Zn2P5SO24,3.8939999999999992,-2.653046449033401,mp-2715910,0,6.0
Ba8Sn4Se16,1.234772,,,0,1.0
Ta6Co16Si7,0.0,-0.5477768749655161,mp-570661,0,0.0
Os4Rb6Br18,0.4988959999999999,,,0,0.0
ZrF4,5.3453,-4.027976308499999,mp-1105223,0,7.0
Sc2B4Os5,0.0,-0.465943770151514,mp-1192274,0,0.0
CeRh,0.0,-0.804688919999996,mp-1018117,0,0.0
Ta4SeS,0.0,-0.659872519862846,mp-1217968,0,0.0
Na2Ta4Nb4Si9(SO16)3,2.3648,-2.938331062017981,mp-2714266,0,3.0
LaHfMg6O8,0.1463,-2.7054213465625,mp-1030988,0,0.0
MgSi(HO2)2,5.1541999999999994,-2.3584411196875,mp-1078877,0,7.0
Na2In2Si(SO6)2,0.0,-2.177181107776769,mp-2713280,0,0.0
PmLuZn2,0.0,-0.361856911041666,mp-1186608,0,0.0
BaSm3,0.0,0.209358663749999,mp-1183309,0,0.0
Cs12In4O12,2.072794,,,0,3.0
Rb2Ba8Sb6O2,0.8413459999999999,,,0,1.0
Er2Si5Ru3,0.0,-0.812508271499997,mp-8808,0,0.0
CsK2InF6,4.7905,-2.8712173220821833,mp-1112317,0,7.0
Nd2H12C7N2O17,3.2262,-1.6487036947500011,mp-1197778,0,5.0
LiInGe,0.0,-0.224599848333332,mp-16343,0,0.0
MgNb2(I3O)2,0.0,-1.393887539545455,mp-2224222,0,0.0
Ti4Zn3SnO12,1.4189999999999992,-2.699205424916666,mp-1120724,0,2.0
CaTiF4,0.0,-3.555190774722221,mp-1407767,0,0.0
UTa2S6Cl6O,0.182999999999999,-1.708477979979165,mp-866812,0,0.0
Sc3(Si2Ni)2,0.0,-0.8102671863888891,mp-542486,0,0.0
NdSnPd,0.0,-0.914228098055554,mp-22695,0,0.0
Zr2S2O2,0.725447,,,0,1.0
ZnP2,1.4617,-0.315425149067459,mp-11025,0,2.0
K2Nb6Ag(PO8)3,1.7961,-2.828975649724867,mp-686747,0,2.0
Nb4Cr,0.0,1.242221259999996,mp-1210078,0,0.0
OF3,0.0,-0.15729891875,mp-974002,0,0.0
Si2Os,0.6496999999999991,-0.4983536825,mp-17123,0,1.0
TiCu3O4,0.0,-1.724905211666666,mp-1216931,0,0.0
Sm2(N4O9)3,2.4371,-0.7691284565853661,mp-1212564,0,3.0
LaCoSb2,0.0,-0.7647049987500001,mp-1078968,0,0.0
Na6Ca7Sn(SO4)12,2.2256,-2.392792015089314,mp-2715074,0,3.0
K3TaO2F7,0.0524,-2.852131253583333,mp-734845,0,0.0
ReCl4,0.0,-0.6772989286111111,mp-27340,0,0.0
Be3Ni,0.0,-0.283685701249999,mp-865168,0,0.0
Tl1Mn1Cl3,2.64173,,,0,4.0
Na3Sc2Ge2P5SO24,2.6369,-2.6779495516626732,mp-2715886,0,4.0
La6Ni6P17,0.0,-0.9226932406527092,mp-17684,0,0.0
Nd2Ge2O7,3.4278,-2.984836285,mp-581345,0,5.0
Lu1Cu1S2,1.687681,,,0,2.0
Li8Pb8Cu4B16O40,1.941246,,,0,3.0
UMo13P9,0.0,-0.591121921164607,mp-30190,0,0.0
Zn2FeN2,0.0,0.042371736999999,mp-1408692,0,0.0
La3Yb,0.0,0.025352912500004,mp-1185226,0,0.0
YbAgPd2,0.0,-0.6966689650000001,mp-866177,0,0.0
SrLaCuO4,0.0,-2.632974647857143,mp-1218202,0,0.0
Na2Ga2Si3(HO3)4,3.6402,-2.408921720011244,mp-1173829,0,5.0
Ho3(CuGe)4,0.0,-0.622964346818179,mp-3683,0,0.0
Tm15C19,0.0,-0.533092329152944,mp-1204458,0,0.0
Nd15Si7Ni2,0.0,-0.483445707604166,mp-1221118,0,0.0
Hf5MnSb2,0.0,-0.464637462435341,mp-1212462,0,0.0
MnZnS4,0.0,-0.650168269459924,mp-1221529,0,0.0
LiCd2Cu,0.0,-0.143031636666666,mp-1185314,0,0.0
YbSbPt,0.0,-1.378672905000002,mp-570014,0,0.0
RbTiCl3,0.0,-2.029099489166666,mp-28282,0,0.0
Nd(CoSi)2,0.0,-0.697864005499999,mp-4228,0,0.0
Sm2MgSi2,0.0,-0.663193272000002,mp-1208848,0,0.0
Ta2MoRh,0.0,3.954352247184623,mp-1097354,0,0.0
TeS7Cl2,2.3049,-0.16951334571875,mp-672186,0,3.0
BaBePO4F,6.051500000000001,-3.324733488080356,mp-754604,0,7.0
LiAlAs2O7,3.049699999999999,-2.214197438484848,mp-547017,0,4.0
Na3Nb2Zn2P5SO24,2.0004,-2.550187352293304,mp-2716106,0,3.0
Eu3(GeAs2)2,0.012199999999999,-0.8063613013888911,mp-1200526,0,0.0
Si3(TeO6)2,2.438,-2.230763610637255,mp-1143703,0,3.0
Pd1K2Se2,0.7812509999999999,,,0,1.0
TmAlRh,0.0,-0.9473090383333372,mp-568685,0,0.0
Ta2NiS4,0.0,-1.160196269238093,mp-1218077,0,0.0
Sm3CuSiS7,1.655699999999999,-1.836235165624999,mp-554097,0,2.0
YErNi2,0.0,-0.444665213749999,mp-1215981,0,0.0
La14C14Cl9,0.0,-1.249329258108108,mp-570240,0,0.0
CaC2O5,0.7591,-1.73939350140625,mp-729142,0,1.0
RbNaMg14,0.0,0.166996271945043,mp-1026692,0,0.0
YZr5Si5PO24,3.9423,-3.531246652490079,mp-532768,0,6.0
NaSb(PS3)2,2.075799999999999,-0.724686881316501,mp-554384,0,3.0
CsCaMg6,0.0,0.250296296827498,mp-1023288,0,0.0
V1Li6Cl8,3.336394,,,0,5.0
Ba3Al2(SiO4)3,3.4204,-3.15571533125,mp-14049,0,5.0
HfScRh2,0.0,-0.9569838462499972,mp-865041,0,0.0
Sr6Bi2O11,1.1426,-2.460687109736842,mp-675103,0,1.0
Sm(NiGe)2,0.0,-0.699670193,mp-5167,0,0.0
K5Na3Ta4Nb4O24,1.607099999999999,-2.941930257493032,mp-1076095,0,2.0
Na6Ca2Ti6Si5S7O48,0.9416,-2.662917744064539,mp-2716037,0,1.0
Ca5(GePd)6,0.0,-0.7889428041176441,mp-1105294,0,0.0
Cs8Pd2Mn4F24,1.144475,,,0,1.0
Sc3Hg,0.0,-0.270864366874999,mp-861910,0,0.0
PrAsPd,0.0,-1.172417284722221,mp-1207199,0,0.0
Cs2Si(HO2)2,3.7654,-2.151546748534482,mp-1259944,0,6.0
Hf6Be15Co8,0.0,-0.330601581551723,mp-1212451,0,0.0
ReTeS,0.075099999999999,-0.6838039330555581,mp-5222,0,0.0
Ce3Ni2B2N3,0.0,-1.230539086333331,mp-21136,0,0.0
Hg5Br11N,0.0,-0.409596044852943,mp-1189137,0,0.0
Al4CO,0.0,-0.7048498133333321,mp-1173027,0,0.0
K2RuCl5O,0.0,-1.592966662999999,mp-1195869,0,0.0
Rb2Ta2P7O24,0.0,-2.751682389061904,mp-734428,0,0.0
La3(OsO5)2,0.0,-2.780886327666676,mp-27330,0,0.0
Nd4Al2O9,4.1884,-3.7161393765,mp-561084,0,6.0
CaB2(H6O5)2,5.5885,-1.786347540133333,mp-554736,0,7.0
V3Sb2,0.0,-0.201267670000001,mp-29617,0,0.0
Sm3Ga2Sn3,0.0,-0.6882729243750011,mp-1208826,0,0.0
Rb3Sb2Au3,1.222,-0.461997609062499,mp-9274,0,1.0
Eu2MgSi2O7,0.0118,-3.341890984583333,mp-982662,0,0.0
CsCa2Nb3O10,2.0693,-3.155311811540949,mp-581330,0,3.0
Fe3(SnS4)2,0.0,-0.630054332307691,mp-754767,0,0.0
Ba6Li2Ti16O39,2.315,-3.465604477698412,mp-775484,0,3.0
CeEuAl4,0.0,-0.483847925833333,mp-1226635,0,0.0
Sr4Nb5O15,0.0,-3.217466105208333,mp-1218550,0,0.0
K2RbNdCl6,4.359500000000001,-2.36959559595,mp-1110756,0,6.0
BaLiAs,0.5928,-0.939694690277778,mp-10616,0,0.0
Li3La,0.0,0.201262778749999,mp-1185192,0,0.0
GaPt3C,0.0,0.3490512395,mp-1017563,0,0.0
Li3BiH8O7,4.049499999999999,-1.523802227894736,mp-769868,0,6.0
Na8Nb2Cu4S21,1.2382,-0.940423624672412,mp-554071,0,1.0
CsGdHgSe3,0.0,-1.472191653197738,mp-22291,0,0.0
KC10,0.6507000000000001,0.209659416325757,mp-16791,0,1.0
Fe3Ge,0.0,-0.156686391249999,mp-20344,0,0.0
Cs12Sn2Sb6O,0.3235,-0.5709695438505751,mp-1226335,0,0.0
LiCu2(RhO2)4,0.0,-1.075410927555556,mp-1235381,0,0.0
Ga11NO15,1.572999999999999,-2.106118374537037,mp-676333,0,2.0
Mg14MnCo,0.0,0.14530404450431,mp-1028148,0,0.0