formula,bg,formation_energy,mp-id,fidelity,bg_category
Y6Fe(SiS7)2,0.8721000000000001,-1.8424201823913031,mp-1216206,0,1.0
AcCdHg2,0.0,-0.466220838124996,mp-864644,0,0.0
I12Br12P4B4,1.915876,,,0,3.0
Er3Mg,0.0,-0.009437183749998,mp-1225566,0,0.0
Na2TeH5SO10,0.2192,-1.545787174114488,mp-758235,0,0.0
Dy5C2Br9,0.8479999999999991,-1.8927655541145811,mp-567407,0,1.0
Na6Y4Ta4Si7S5O48,2.4522,-2.882349165519495,mp-2712948,0,3.0
Ge(PbS2)2,2.0309,-0.7537919746428551,mp-560370,0,3.0
NaY(IO3)4,3.3147,-1.443672968132183,mp-581868,0,5.0
Ba4Si21Au2,0.0,-0.238834158888888,mp-1228313,0,0.0
Y2Cl2O,0.0,-1.474635055,mp-1206162,0,0.0
YCo3P2,0.0,-0.9125613154365112,mp-1203265,0,0.0
HoLuRu2,0.0,-0.405608240416664,mp-973114,0,0.0
Dy3Ni2,0.0,-0.358840148999996,mp-7281,0,0.0
SrCaSmSbO6,3.476,-2.996656710999999,mp-1523170,0,5.0
Lu3Si13Os4,0.0,-0.45053128075,mp-1202999,0,0.0
Pr3Bi4Au3,0.337099999999999,-0.735627228000007,mp-1105252,0,0.0
ZnIn3AsSe4,0.8177999999999991,-0.715063079652777,mp-1215418,0,1.0
K2SnBi,0.0,-0.341502553625001,mp-31486,0,0.0
EuCd3,0.0,-0.303322893749999,mp-864634,0,0.0
Na7MgNbO6,0.3038,-1.834863599643678,mp-2232351,0,0.0
CdCl2,3.5244,-1.274515514999999,mp-22881,0,5.0
Ru2Au2N10Cl12O,0.0,0.744918959814814,mp-1219841,0,0.0
Sc3V2Si3,0.0,-0.7042763382407421,mp-1208991,0,0.0
Ta4Ba4Rb4S16,2.453865,,,0,3.0
InSnCl3,3.0433,-1.302332409333332,mp-998567,0,4.0
ZrAg2,0.0013,-0.045560235000001,mp-1008601,0,0.0
Tb3Co4Ge13,0.0,-0.410630634499999,mp-1198511,0,0.0
MnGeP2,0.0,-0.018524755554186,mp-1206503,0,0.0
K1H1,3.422112,,,0,5.0
La8Ti2Ga2O19,2.6223,-3.59110047827957,mp-1223323,0,4.0
Mg14ZnNi,0.0,0.037937365,mp-1028047,0,0.0
CdCuSb,0.0,0.147573177916664,mp-568800,0,0.0
IrS2,0.5371,-0.502745337291661,mp-2833,0,0.0
TbPRu2C,0.0,-0.677339108261904,mp-1080794,0,0.0
CsNaSe,2.027,-1.313769136354165,mp-8658,0,3.0
Mg2As2K2,1.113006,,,0,1.0
Cu1Y1O2,2.894446,,,0,4.0
NaInAg2,0.0,-0.08625744,mp-976326,0,0.0
MnGaPt,0.0,-0.454163451810345,mp-569151,0,0.0
Zn1Te1,1.598007,,,0,2.0
Ba2LaTaO6,3.621299999999999,-3.506661578233334,mp-13055,0,5.0
V2B3,0.0,-0.833172252499998,mp-9208,0,0.0
Gd3SOF5,1.9623,-4.003937893250002,mp-1224717,0,3.0
RbCoBr3,0.0,-1.228234084499999,mp-1206319,0,0.0
Ca2CdIn,0.0,-0.412268204166666,mp-977453,0,0.0
Ca2FeH6,1.500299999999999,-0.6509286475,mp-1205964,0,2.0
Cd3Bi,0.0,0.103720063749999,mp-1183658,0,0.0
Ta3Cr3N,0.0,-0.499363014214286,mp-1193113,0,0.0
Cd1Tl2Te4,0.0,,,0,0.0
AgHg3SbO6,0.709299999999999,-1.005880865833335,mp-12362,0,1.0
Zr2ReIr,0.052999999999999,3.476241341874998,mp-1093573,0,0.0
Mg7C,0.0,0.5467097403125001,mp-1016272,0,0.0
IBrNCl,0.0,1.045461783125,mp-726091,0,0.0
EuZn5,0.0,-0.250875500833332,mp-2436,0,0.0
Mg5Sn,0.0,-0.020839058333332,mp-1094199,0,0.0
Ge7F16,4.4142,-2.25422968,mp-29500,0,7.0
CsTiCu3Se4,1.251199999999999,-0.951975477484833,mp-570706,0,1.0
Nd2FeGe4,0.0,-0.591171174999999,mp-1220434,0,0.0
Na5Ti2Si2PO13,2.5298,-2.9440710005741773,mp-18271,0,4.0
HfSiTc2,0.121,3.214118641541663,mp-1097298,0,0.0
La3Sn,0.0,-0.5563944612499999,mp-1681,0,0.0
HoLuO3,4.9114,-3.993262638833333,mp-770472,0,7.0
KTl(CoSe)4,0.0,-0.5270285599958341,mp-1223231,0,0.0
Pr(CrB3)2,0.0,-0.5001929129629581,mp-1095025,0,0.0
Mg3N,0.0,0.46495436765625,mp-1185783,0,0.0
MgSc2Ga,0.0,-0.339333310625,mp-1185965,0,0.0
HfTi(SnO3)2,1.8075,-2.721022644333333,mp-1520521,0,2.0
Ho3CuSiS7,1.822499999999999,-1.799584653124997,mp-17486,0,2.0
V2CrTe4,0.0,-0.5133551723809521,mp-1216577,0,0.0
LiMg2Pt,0.0,-0.613423705833333,mp-864614,0,0.0
HoCoNi,0.0,-0.315239301666663,mp-1223910,0,0.0
CdIn3Te4As,0.5664,-0.513312851574072,mp-1226849,0,0.0
HfP2O7,5.5167,-3.195483319178573,mp-768745,0,7.0
TbAsSe,0.075099999999999,-1.597437550503471,mp-1102476,0,0.0
Na10Mg4Ga4Si3(S3O16)3,2.1275,-2.292136966127689,mp-2714804,0,3.0
KYF4,6.9712,-3.993005433060185,mp-28726,0,7.0
CrRe3,0.0,0.133099923750002,mp-1183703,0,0.0
TbCo3,0.0,-0.140580489166666,mp-1095562,0,0.0
BeZnO2,2.6575,-2.398314915,mp-550433,0,4.0
KRb2TlCl6,2.416,-1.810011363558334,mp-1114031,0,3.0
Sr3CuN3,0.0,-0.427757686607143,mp-1246848,0,0.0
Cr3GaFe3As2,0.0,0.026759927499999,mp-1226345,0,0.0
HoSn3,0.0,-0.403801459999997,mp-11477,0,0.0
Ge1Se1,0.079369,,,0,0.0
Mg7NbH16,0.0,-0.230892106041666,mp-1191131,0,0.0
Cs3I,0.0,-0.7138716122413801,mp-1184038,0,0.0
ErSiNi,0.0,-0.8102410091666631,mp-1213005,0,0.0
NaPr(CO3)2,0.0003,-2.5217468303045982,mp-1210097,0,0.0
Al7CoCu2,0.0,-0.271402750749999,mp-17856,0,0.0
Sc(CoSi)2,0.0,-0.752868847,mp-4131,0,0.0
Bi8Mn8O24,0.5293249999999999,,,0,0.0
TmB12,0.0,-0.266125806153847,mp-1104905,0,0.0
CrSiTe3,0.0,-0.438944071999998,mp-3779,0,0.0
Ba3(InN2)2,0.9988999999999992,-0.396278605925926,mp-1246176,0,1.0
NaGa2Sn2P3(SO8)3,2.066,-2.212909369508797,mp-2716358,0,3.0
PH9C3S2NClO4,4.0792,-0.616751059447278,mp-559704,0,6.0
Ba3Sr5Tl5Cu3O19,0.0,-2.002699041761906,mp-1228463,0,0.0
V2ReRu,0.0,-0.363411096875001,mp-981365,0,0.0
Co1F12Sb2O4S2,3.022801,,,0,4.0
Ta3Re,0.0,-0.247184713625003,mp-1187203,0,0.0
Sn3Te,0.0,0.074631830000001,mp-1187080,0,0.0
Ta2Sn3,0.0,0.403146069833337,mp-1218088,0,0.0
AlC7IN,0.0,0.9221746515,mp-1182993,0,0.0
Tm2Ge6Pt,0.0,-0.499166436666668,mp-1206030,0,0.0
Cs2NaSbI6,1.8895,-1.237659143068965,mp-1112140,0,3.0
Tm(NiGe)2,0.0,-0.665955976,mp-4195,0,0.0
Cs6GaSb3,0.4411,-0.578140799999999,mp-9697,0,0.0
CeInIr,0.0,-0.681186746666666,mp-20449,0,0.0
PrMg,0.0,-0.090499218333333,mp-1548,0,0.0
Na3Zr3ZnP5SO24,3.6401,-2.868485393194205,mp-2715913,0,5.0
Zn2SiGeN4,2.5815,-0.6708882731249991,mp-1215642,0,4.0
Mn5NiN4,0.0,-0.17816622061638,mp-1245394,0,0.0
Tl3Ir,0.0,0.522891524999998,mp-971750,0,0.0
In2(Co7B2)3,0.0,-0.094810592873565,mp-1194164,0,0.0
CaP2PdO7,0.3569,-2.583296714935064,mp-1214043,0,0.0
ErAlCu,0.0,-0.463179307777778,mp-1078592,0,0.0
SrHg8,0.0,-0.164657878055561,mp-1203966,0,0.0
Pr2Mn4Co13,0.0,0.032326049733816,mp-1219878,0,0.0
Ca3B3N5,2.6709,-1.148288306174243,mp-1245874,0,4.0
LiGaH4,4.6818,-0.167716062033729,mp-1192145,0,7.0
K4P4O15,0.117199999999999,-2.122360901198758,mp-1211925,0,0.0
InCl,2.2049,-0.910675994374999,mp-23276,0,3.0
Pr(Cd10Ni)2,0.0,-0.06538344985507,mp-1199068,0,0.0
Dy2InHg,0.0,-0.582496736875,mp-984660,0,0.0
Cs3In2Cl9,3.5398,-1.775917081249998,mp-27172,0,5.0
Ba2PrTiO6,0.0,-3.218090049499999,mp-1520146,0,0.0
Cs2RbInF6,5.3728,-2.987577245347701,mp-989605,0,7.0
Mg149P,0.000299999999999,0.005223285535714,mp-1185593,0,0.0
NaCa3ScZn3(SiO3)8,4.3797999999999995,-3.103591203784482,mp-693463,0,6.0
LiS2N3O8,2.527199999999999,-0.5638062563095241,mp-1193297,0,4.0
Pb4Cs8O8,1.837288,,,0,2.0
Tl2Mo4Cl14O4,0.5355,,,0,0.0
Tl2Hg12S8Br10,1.796921,,,0,2.0
H13ClO6,4.9350000000000005,-1.2318972799375,mp-720861,0,7.0
Na10Hf4Al4Si7S5O48,3.901,-2.814858317452476,mp-2715970,0,6.0
K2Sn1Cl6,2.414025,,,0,3.0
TmZr,0.0,0.060829237499998,mp-979011,0,0.0
GeH2(C2F5)2,6.3321,-1.487318052794117,mp-1194908,0,7.0
Ca2SbN3,1.239499999999999,-0.5865484749999991,mp-1246528,0,1.0
AlGaCl4,4.2234,-1.398451875416666,mp-541111,0,6.0
KEuPdO3,0.0,-2.020182513708333,mp-555949,0,0.0
Na6Zr3ZnSi2(PO6)4,3.7194,-2.942802350504516,mp-2715277,0,5.0
As3Pd4Pb,0.0,-0.353177193906251,mp-1228991,0,0.0
TiSiGe(SO6)2,2.5644,-2.332957388921569,mp-2713169,0,4.0
AcCl3,5.0865,-2.788094297499999,mp-27971,0,7.0
Sr2N1D1,1.772896,,,0,2.0
Hg7(P2Br3)2,1.346,-0.461261167121851,mp-541403,0,2.0
GaSiRu2,0.0,-0.5141424487499999,mp-865615,0,0.0
KHSeO3,4.2413,-1.5562146559739591,mp-24433,0,6.0
HoClO2,0.0,-2.238983506249998,mp-1025493,0,0.0
NaPF6,7.0251,-2.907488104747024,mp-10474,0,7.0
BaH2(S2O3)2,2.8811,-1.192812475192307,mp-1214729,0,4.0
SrB2F8,8.3012,-3.430601943863636,mp-556106,0,7.0
Na14Hf4Ga4Si9(SO16)3,3.5317,-2.75674047823346,mp-2714713,0,5.0
CeTlZn,0.0,-0.232261996111112,mp-1018669,0,0.0
CuBiO3,0.0,-1.092523053,mp-1184051,0,0.0
Rb2Si3SnO9,3.8147,-2.86547719,mp-17382,0,6.0
KMg6Cr,0.0,0.37690493846875,mp-1021307,0,0.0
K2TaCuSe4,2.0288,-1.182607521401041,mp-8972,0,3.0
MgF2,6.824,-3.8240409166666662,mp-1249,0,7.0
Hg3S2Si1F6,2.803872,,,0,4.0
K3Sc,0.0,0.6149614614999991,mp-973535,0,0.0
CaSmAg2,0.0,-0.299959087499999,mp-1183560,0,0.0
Mg4V4O14,2.691088,,,0,4.0
V3Pd,0.0,-0.153891481249999,mp-1664,0,0.0
Tl12Cs12,0.193649,,,0,0.0
HfMg6Fe,0.0,0.195071860625,mp-1022136,0,0.0
Na7ZnGa3Si3(SO8)3,2.842,-2.299675165154192,mp-2714238,0,4.0
ThRu2,0.0,-0.310515984999999,mp-574438,0,0.0
Pb2Sc1Ta1O6,2.590012,,,0,4.0
CrGaSe3,0.0,-0.8617633184062491,mp-8829,0,0.0
Hg8Bi2S4Cl10,2.296002,,,0,3.0
Zn1Al2Te4,1.684232,,,0,2.0
Na14La4Al4Si7S5O48,3.2347,-2.727384353904191,mp-2715631,0,5.0
Sn2P2Cl18,2.075737,,,0,3.0
Cs2S4O14H2,5.426304,,,0,7.0
CsCa2Ta3O10,2.1798,-3.318698403853449,mp-10347,0,3.0
CS30,0.0192,0.938354449032258,mp-1215137,0,0.0
CeAl5Ni2,0.0,-0.583317357499998,mp-4817,0,0.0
Mg14GaBO16,2.351099999999999,-2.712593556145832,mp-1033774,0,3.0
Na3As,0.064,-0.5529736389583331,mp-655,0,0.0
Ti5Ga4,0.0,-0.439712224629629,mp-30675,0,0.0
Dy6Ga19Pt3,0.0,-0.601381535089284,mp-1225770,0,0.0
Yb3Ta,0.0,0.273768799416664,mp-979953,0,0.0
InH4NCl4,3.637399999999999,-1.095029209166667,mp-863731,0,5.0
Ba2InCuO4,1.110799999999999,-2.225249320833332,mp-1228360,0,1.0
Hf3AlMo8,0.0,-0.09038525963543,mp-1224436,0,0.0
HfZrS6,1.086599999999999,-1.570038580624999,mp-1224121,0,1.0
Ni3Pt,0.0,-0.069345527499999,mp-12798,0,0.0
CaCuP,0.0,-0.980624210992064,mp-8432,0,0.0
Y6RhI10,0.0877,-1.463542870000002,mp-1207685,0,0.0
SmDyTl2,0.0,-0.351101210833339,mp-978527,0,0.0
Pd3(PbSe)2,0.0,-0.453399455446425,mp-1078089,0,0.0
Rb2GaAgCl6,1.213,-1.686171565416666,mp-1111468,0,1.0
YZrTc2,0.0,3.311206476458331,mp-1096721,0,0.0
Lu5SbPt2,0.0711,-1.143066871041661,mp-1210524,0,0.0
LuTc2W,0.0,-0.111866545416674,mp-866124,0,0.0
Hg12Cl4P4O16,2.34055,,,0,3.0
Dy2N3,0.0,-0.818117746749999,mp-1205065,0,0.0
Ti(Si2O5)2,2.401,-3.135141733722222,mp-1043406,0,3.0
HfZn2Ga,0.0,-0.379541322499999,mp-1224173,0,0.0
LiGa2Tc,0.0,1.851726255833332,mp-1096584,0,0.0
Li3Nd,0.0,0.196847693125,mp-976264,0,0.0
ZrCrSi2,0.0,-0.571565480416666,mp-21591,0,0.0
CsSn2Cl5,3.0582,-1.3908436603125,mp-30164,0,4.0
BaVSe3,0.0,-1.494618498406249,mp-676597,0,0.0
GdSnPt,0.0,-1.080331086111114,mp-1079739,0,0.0
NaLiMg14,0.0,0.04280573573635,mp-1026841,0,0.0
LiTaRu2,0.0,-0.212481911000001,mp-861954,0,0.0
CdGe(BiO3)2,1.9126999999999992,-1.7806711045,mp-555027,0,3.0
Ce2Si7Rh15,0.0,-0.862579937083333,mp-628614,0,0.0
HoWC2,0.0,-0.290986251875001,mp-1181041,0,0.0
TmCdPd2,0.0,-0.7535983124999951,mp-865982,0,0.0
Mg5Ga2,0.0,-0.107189749285713,mp-1770,0,0.0
Cs4Mo6Se2O24,2.364861999999999,,,0,3.0
ZrTiTe4,0.0,-0.932106601944449,mp-8677,0,0.0
Gd5Y3O12,3.065,-3.916968407,mp-752459,0,4.0
U2Si5Rh3,0.0,-0.7699834542954591,mp-1187808,0,0.0
SbCNCl6,2.0446,-0.436319794525455,mp-570727,0,3.0
Cu(Mo3S4)2,0.0,-0.7055114344999991,mp-675745,0,0.0
Ti20(Sb3Se)3,0.0,-0.6384719802718091,mp-530251,0,0.0
Ba1Mo4P2O16,1.970483,,,0,3.0
U2Cl5O2,0.0,-2.7038389922222192,mp-27661,0,0.0
TmCuSi,0.0,-0.727845513333335,mp-8123,0,0.0
Mg6GaCo,0.0,0.0941154921875,mp-1022084,0,0.0
KMg6Fe,0.0,0.39675542721875,mp-1022507,0,0.0
YCuSi2Ni,0.0,-0.6823230799999991,mp-1215939,0,0.0
Cr4F8O8,2.137321,,,0,3.0
Tc3Os,0.0,-0.068445983750002,mp-862779,0,0.0
Lu8Pd4O16,0.0,,,0,0.0
Mg2Pd,0.0,-0.5076209874999991,mp-18316,0,0.0
Y6Al43W4,0.0,-0.273693356415093,mp-1199868,0,0.0
Eu5Pd2,0.0,-0.476083825714287,mp-1104610,0,0.0
KMgAs,1.1621,-0.6617146915833331,mp-1019089,0,1.0
Ti4Ni4Ge7,0.0,-0.5129568452222221,mp-1193680,0,0.0
ZrGeO4,3.750099999999999,-2.964421039166666,mp-8042,0,5.0
Rb4Cu2V2S8,1.599589,,,0,2.0
Ta(Cu3O4)2,0.0,-1.378206894488889,mp-1147689,0,0.0
H6PbCNCl3,2.796599999999999,-0.7897134831250001,mp-1021464,0,4.0
BaLi2P2O7,5.3686,-2.961264845496031,mp-6175,0,7.0
In2Pt2O7,2.196199999999999,-1.519275636666668,mp-755116,0,3.0
K2CaPrO4,0.0,-2.540652197020832,mp-1223663,0,0.0
Y4BBr6,0.0,-1.81574009287879,mp-29485,0,0.0
Nd5S9,0.0,-2.078194752678566,mp-1220359,0,0.0
Ca11Sn3C8,0.6589,-0.347281230227272,mp-1198370,0,1.0
UAg2P2H2CO8,1.352299999999999,-1.966401347351189,mp-1194811,0,2.0
NbSiPt,0.0,-0.855165805833337,mp-10469,0,0.0
Na2Zn(GeSe3)2,1.3476,-0.8725742951655561,mp-1190476,0,2.0
Ir(SeBr3)3,1.6213,-0.605433674002404,mp-1192469,0,2.0
Ba(IrO3)2,0.0,-1.7087357877777771,mp-674187,0,0.0
La10(ErS3)9,0.0,-2.467735274836957,mp-669516,0,0.0
Sr5(BiO4)3,0.0,-2.3815041635,mp-33444,0,0.0
NbTc2Ge,0.0,-0.259307798750001,mp-977409,0,0.0
Na3AlH10C6O17,3.281399999999999,-1.660342808219944,mp-698350,0,5.0
RbNp3,0.0,1.624576451562498,mp-1186969,0,0.0
Na2La4Ga4SiS11O48,1.808,-2.309852075456076,mp-2714312,0,2.0
CaTi4O9,2.6041,-3.435326306309524,mp-1040874,0,4.0
U2SnIr2,0.0,-0.526187730999998,mp-1095100,0,0.0
SrPH3O4,5.7674,-2.178045197321428,mp-24171,0,7.0
Pb(CO)4,2.951,-0.9724268127777772,mp-1179835,0,4.0
TlSb(PS3)2,2.145899999999999,-0.604686315761904,mp-1105300,0,3.0
Cu2PPd2,0.0,-0.276902384928571,mp-1001022,0,0.0
Sr6Ga6N12Li6,1.828272,,,0,2.0
As3(HO2)5,3.066599999999999,-1.456309445486112,mp-27404,0,4.0
Lu5Pt4,0.0,-1.353579225092592,mp-1202267,0,0.0
ScAlRu2,0.0,2.67375379125,mp-1093884,0,0.0
Sb2TeRu,0.0217,-0.319934177916666,mp-1219496,0,0.0
La3Si2Rh3,0.0,-0.917924883125,mp-601852,0,0.0
HoGa2Ni,0.0,-0.6502340350000021,mp-1025433,0,0.0
Mg14ZnSnO16,2.7099,-2.759511867031249,mp-1035213,0,4.0
Cu5Si4(HO7)2,0.0,-1.9773279016,mp-709325,0,0.0
Mg(GaS2)2,2.3518,-1.181832509047618,mp-667323,0,3.0
Ba6Ti5S15O,0.696499999999999,-2.103465227191357,mp-555781,0,1.0
AuBr2,0.0,-0.337731516666666,mp-1214775,0,0.0
Eu2AgRh,0.0,-0.331835102125001,mp-1183909,0,0.0
HoCdCu4,0.0,-0.239123255833334,mp-12007,0,0.0
Zn2Mn4O8,1.283404,,,0,2.0
Ba2SiO4,4.6319,-3.361976853214285,mp-17612,0,7.0
Zr3Ge6N11,0.0,-0.391928228187501,mp-1247537,0,0.0
Sr2PdO3,0.2353,-2.394458980833334,mp-4359,0,0.0
Yb3Sc,0.0,-0.023244477500004,mp-1187986,0,0.0
Na22In5O15,0.0,-1.478318140682813,mp-758513,0,0.0
ZnH12N4Cl4O3,3.2449,-0.8890957903124991,mp-762311,0,5.0
TiI3,0.180899999999999,-1.089017867083334,mp-23264,0,0.0
Sr7Bi23O40,0.0,-1.8950524748571431,mp-758327,0,0.0
MgZn4(Se2O5)4,1.8546,-1.399992659810606,mp-1233738,0,2.0
RbLiMg14O15,1.267399999999999,-2.703177118897849,mp-1035479,0,2.0
Rb6N10H24,2.117798,,,0,3.0
Na15Re7N19,0.0,-0.400749861175357,mp-1029650,0,0.0
Na4MgGe3(PO4)6,2.397999999999999,-2.530284368246694,mp-2713678,0,3.0
BaZrN2,0.9972,-1.423864360000001,mp-3104,0,1.0
Na2Al2Ga2SiS5O24,1.7165,-2.262865076072,mp-2714575,0,2.0
Er5Al3Ni3Ge4,0.0,-0.783890886333332,mp-638521,0,0.0
Dy2SiPd2,0.0,-0.7888396146666641,mp-1225435,0,0.0
ScFeGe2,0.0,-0.5353488216666681,mp-1201682,0,0.0
Li2GaSb,0.154199999999999,-0.498415702137679,mp-631316,0,0.0
Yb3Ge5,0.0,-0.686023140625003,mp-767,0,0.0
K2AsPCO7,4.0808,-2.19283586930357,mp-1178156,0,6.0
Zn6Sr8F28,0.0,,,0,0.0
Na2Pd3O4,0.4208,-1.141165042528733,mp-27562,0,0.0
Na2SbAuF6,0.7439999999999991,-2.119919269275861,mp-1111412,0,1.0
CsSc3(CuTe3)2,0.006999999999999,-1.177219663721264,mp-607477,0,0.0
Eu2SnSe5,0.0,-1.327058246914063,mp-1096952,0,0.0
Mg3Te,0.0,-0.239216677916666,mp-1185797,0,0.0
NaSbCO2F3,3.0893,-2.316412064547413,mp-554716,0,4.0
V4Se4O20H8,2.194098,,,0,3.0
Pt(I3N2)2,0.2467,1.124062853636363,mp-1179853,0,0.0
CuAg10(PbO4)3,0.0,-0.729068750256409,mp-1226080,0,0.0
Sr5(ReO6)2,2.0795,-2.874758189122808,mp-555428,0,3.0
TaNbRu2,0.0,3.772322028166659,mp-1096449,0,0.0
Na10Ti4Si9Sn4(SO16)3,2.6094,-2.672165678200339,mp-2714232,0,4.0
As4N36,2.782258,,,0,4.0
Th6Mn23H16,0.0,-0.163252305831416,mp-1179303,0,0.0
Dy3Ge13Rh4,0.0,-0.5400424392499991,mp-1204450,0,0.0
CdPd(CN)6,3.5839,0.324134291428571,mp-606650,0,5.0
Ho(AlSi)2,0.0,-0.374958485999998,mp-1206416,0,0.0
Hg2Br6N2C4H16,2.513523,,,0,4.0
Li2MgAg,0.0,-0.174071358333332,mp-1222653,0,0.0
Cl4S4O4C4H12,0.784554,,,0,1.0
In(BiSe2)3,0.520099999999999,-0.479238505104166,mp-1223998,0,0.0
NaNbO2,1.378099999999999,-2.522986689094827,mp-3744,0,2.0
Yb(YSe2)2,1.085899999999999,-2.145861784464285,mp-1215857,0,1.0
OsIN5Cl2O,0.0,1.3175144875,mp-1079737,0,0.0
U2GaCo2,0.0,-0.229916663833336,mp-1207894,0,0.0
TlGaS2,1.7885,-0.8847134923958341,mp-4016,0,2.0
Ho(CuTe)3,0.7792000000000001,-0.5899708237500031,mp-1224142,0,1.0
Sr9CaSi6,0.0,-0.471228269687504,mp-1218424,0,0.0
YMg6Fe,0.0,0.16934325,mp-1022917,0,0.0
Er14Ti10O41,1.113,-3.672647751820512,mp-685945,0,1.0
K2Re3TeC3(SN)3,2.0933,-0.592973807327777,mp-1213559,0,3.0
K4Mn2P4S12,2.466247,,,0,3.0
NpH3,0.0,-0.573973663749999,mp-977385,0,0.0
Nd5In11Ni6,0.0,-0.405240194583332,mp-669645,0,0.0
MgBO3,0.188799999999999,-2.531132217583333,mp-1199652,0,0.0
SbPS4,2.196,-0.5979237114682521,mp-572597,0,3.0
Zr2Fe3Si,0.0,-0.521062873333332,mp-16336,0,0.0
Cs2GeB4O9,4.274900000000001,-2.6563783634985643,mp-1226455,0,6.0
NaP2H5CO6,5.6578,-1.679089763961002,mp-1200873,0,7.0
Rb2Na1Rh1F6,2.074637,,,0,3.0
Al2PH3O7,5.2448,-2.546159664876373,mp-1193864,0,7.0
La3InC,0.0,-0.474441098999997,mp-29056,0,0.0
MgB3O13,0.0,-1.111394539264706,mp-1181156,0,0.0
Ba2Ca(PO4)4,0.0124,-2.537529329720496,mp-1203389,0,0.0
Ca(BiO3)2,0.4473,-1.699418975000001,mp-1045327,0,0.0
Zn2InAgTe4,1.2843,-0.5803853531249981,mp-1215550,0,2.0
ScAgS2,1.2377999999999991,-1.407028206406249,mp-1094066,0,1.0
Na3HfInSi(PO6)2,3.7828,-2.851171469504515,mp-2715238,0,6.0
Er3(GaNi3)2,0.0,-0.5735991963636351,mp-1190853,0,0.0
Sc5Ru3,0.0,-0.456239408124999,mp-1209003,0,0.0
Si3Ag3(SnP3)2,0.2673,-0.125195378775508,mp-18310,0,0.0
Mn4CoSb4Ir3,0.0,-0.167749340143677,mp-1221947,0,0.0
Na5La2SiSn2P5O24,1.8409,-2.7728706672678,mp-2716081,0,2.0
Ba3GdIrRuO9,0.0,-2.559445923333334,mp-1228796,0,0.0
Nd2Sb3Au,0.1213,2.1858070625000012,mp-1206316,0,0.0
Er2BPt6,0.0,-1.038605371018516,mp-1225050,0,0.0
Rb2PH3SeO8,4.099,-1.8755504550491071,mp-753854,0,6.0
Na6Hf7ZnSi6(SO8)6,3.6929,-2.8629202173866113,mp-2714727,0,5.0
NaCaH6Ir,3.4213,-0.654117088764367,mp-1180133,0,5.0
DyAgSb2,0.0,-0.70119505083333,mp-10965,0,0.0
MgPd,0.0,-0.7267530875,mp-506,0,0.0
TaNiP2,0.0,-0.7227140664464251,mp-1188762,0,0.0
Li16N8H8,2.808935,,,0,4.0
LiIn4(HgO4)2,0.0,-1.5571944056666671,mp-1235327,0,0.0
Na5BiO5,0.8517999999999991,-1.6656732319905951,mp-760400,0,1.0
Pt1In6Ga2O8,0.613842,,,0,0.0
Ce3Sc,0.0,0.0237973875,mp-1226864,0,0.0
K4Au4S8N8C8,2.384269,,,0,3.0
Dy2CoGe4,0.0,-0.664164502857143,mp-1225553,0,0.0
NpCO4,0.450499999999999,-2.332236571041667,mp-1191563,0,0.0
Cs2Sb2O10H8,3.310798,,,0,5.0
Sc39N34,0.0,-1.953534321849315,mp-685209,0,0.0
Ge3(SbTe3)2,0.0,-0.328263020454545,mp-1212511,0,0.0
Hf2Si,0.0,-0.7910358300000031,mp-9938,0,0.0
CeSi2Rh3,0.0,-1.014437221666665,mp-1213768,0,0.0
Te4Br4F20O12,2.750096,,,0,4.0
Pt1Tl2Cl6,1.68645,,,0,2.0
TcF6,0.0,-2.118926539285714,mp-1208328,0,0.0
Hf9B2W3,0.0,-0.0959244805357,mp-1224535,0,0.0
LaReN3,0.0,-0.929144192750001,mp-989581,0,0.0
Na7Mg2Ta2Si3(PO8)3,2.6798,-2.877676253615864,mp-2714700,0,4.0
Al10Si2O19,3.7364,-3.343859447580645,mp-1247887,0,5.0
Ti2FeRu,0.0,-0.575021109166666,mp-1187428,0,0.0
LiMgAs,1.372299999999999,-0.8998631680555551,mp-12558,0,2.0
RbAlF4,6.9433,-3.637255926416667,mp-13997,0,7.0
Nb2Bi3Pb2ClO11,1.1272,-2.134589629210527,mp-1220834,0,1.0
Lu2Pt2O7,1.6572999999999989,-2.497053484848487,mp-753414,0,2.0
Na6Zn2Si5Sn6S7O48,0.9625999999999992,-2.174012154334809,mp-2716038,0,1.0
Mg14NbFe,0.0,0.184039415625,mp-1027814,0,0.0
Mg45Si32(H29O69)2,4.3207,-2.617225413873627,mp-1204533,0,6.0
VSnPd,0.0,-0.047391654015148,mp-961664,0,0.0
YMgAl4,0.0,-0.252069395833332,mp-1215929,0,0.0
Ba2Sm3Si3SeO12,0.0,-3.385657808444941,mp-1214802,0,0.0
CdSiN2,0.0,-0.7376335070833341,mp-1246975,0,0.0
K2LaP2S7,2.3832,-1.354670371982142,mp-542081,0,3.0
Eu2SeS,0.0,-2.386894502968751,mp-1225299,0,0.0
La3TaO7,3.4556,-3.825579913848483,mp-31415,0,5.0
C7F3,1.4282,-0.454336392787498,mp-645316,0,2.0
SrCaTi(PO4)2,0.3346,-3.085739913663003,mp-1046217,0,0.0
La4TiO8,2.4243,-3.583714175,mp-1212566,0,3.0
Ir2(Se3Cl2)3,1.5989,-0.3864001440625,mp-1196619,0,2.0
TmBeO3,0.0,-2.8847607240000013,mp-972395,0,0.0
Sm2Ge5Ru3,0.0,-0.6497122580000021,mp-754776,0,0.0
K2PrBr5,4.068799999999999,-2.199331474520835,mp-28276,0,6.0
NdB2HF10,7.7826,-3.337575044791667,mp-977417,0,7.0
Sc(VN)9,0.0,-1.244285015789474,mp-675671,0,0.0
KZn4(PO4)3,3.4541,-2.4366458559339272,mp-560419,0,5.0
Eu2SiO5,0.0,-3.272983015000003,mp-867966,0,0.0
NaNdTl2,0.0,-0.259280411386496,mp-865122,0,0.0
LiTl2GaF6,4.3717,-2.645941066750001,mp-989577,0,6.0
TbSbIr,0.0,-0.901037101388883,mp-1208331,0,0.0
YCo4Ge,0.0,-0.219036485833333,mp-1215928,0,0.0