formula,bg,formation_energy,mp-id,fidelity,bg_category
Lu2Co17,0.0,-0.09089375991228,mp-1204082,0,0.0
Pr2Ta2O9,0.277399999999999,-3.249341197153848,mp-1330400,0,0.0
Pb12Cl8O8,2.390607,,,0,3.0
Gd3Ge13Os4,0.0,-0.338996593499999,mp-1202465,0,0.0
Zn3Si4(BiO7)2,2.4696,-2.399651391521739,mp-1260235,0,3.0
U(SiAu)2,0.0,-0.235937339999998,mp-5510,0,0.0
BaLa2FeS5,0.0,-2.049230424722222,mp-16531,0,0.0
Sc2Ge4Mo3,0.0,-0.542669066388888,mp-1199518,0,0.0
Ti4P6Mn1O24,2.297453,,,0,3.0
Rb4Ge(PS3)4,2.1162,-0.9577815863605432,mp-1195703,0,3.0
Ti2Te3,0.0,-0.8482427841666661,mp-1217210,0,0.0
Na4Co2Ge2O8,1.486115,,,0,2.0
Tb4Ga21Ni10,0.0,-0.5093068944047601,mp-1203178,0,0.0
Lu2Fe3Si5,0.0,-0.6552801813333341,mp-541557,0,0.0
AlCr3B4,0.0,-0.362877286249998,mp-637575,0,0.0
Ti3Cu2Te(PO4)6,0.5289,-2.601190781514551,mp-777144,0,0.0
CeAlAu,0.0,-0.660280730833334,mp-1102423,0,0.0
NaB(S2O7)2,5.6373999999999995,-1.912359439152298,mp-1020655,0,7.0
SrLaB12,0.0,-0.57900378392857,mp-1218188,0,0.0
Hg1Ag2I4,1.049262,,,0,1.0
LuAgSn,0.0,-0.5783277172222221,mp-12505,0,0.0
BH7C2N4OF4,5.0921,-1.31181782502193,mp-1198829,0,7.0
Sm2TiCuO6,0.0,-3.172998904333333,mp-1219251,0,0.0
Na10Mg4Zn4SiS11O48,3.9819999999999993,-2.203757559396921,mp-2713246,0,6.0
Rb3P3O10,0.9204,-2.382940656964286,mp-1204746,0,1.0
TeC12(ClF5)2,3.1123,-0.729283181024997,mp-1208586,0,4.0
Na4SnH32(SeO4)4,2.298,-1.228169253156004,mp-762089,0,3.0
Sr4Mn2Si4O14,2.958444,,,0,4.0
TiBeIr2,0.0,-0.8116055345833341,mp-866154,0,0.0
Bi6In10S24,1.315381,,,0,2.0
K4Ba2SnAs4,0.498599999999999,-0.665169131272727,mp-1224063,0,0.0
TmSi3,0.0,-0.217219866249998,mp-980646,0,0.0
ThPd3,0.0,-0.948610190625004,mp-570184,0,0.0
Sm2NiSn4,0.0,-0.615576228571428,mp-645182,0,0.0
Sm3AlNiS7,0.0,-1.849740185624999,mp-1192334,0,0.0
Cs2Hg6S7,0.6230999999999991,-0.626981313120692,mp-17905,0,0.0
LaScTl2,0.0,1.831900083333329,mp-1097552,0,0.0
Tb5Ir3,0.0,-0.7873600635416641,mp-1201266,0,0.0
SnI3,0.0,-0.558575128749999,mp-1095094,0,0.0
CoAs2,0.172299999999999,-0.290117705833334,mp-2715,0,0.0
IrF3,1.1410999999999991,-1.485668521250001,mp-2437,0,1.0
Sm2Co7,0.0,-0.0652793725,mp-540547,0,0.0
PrYSi2O7,5.1978,-3.6261255762878792,mp-1201353,0,7.0
Na3ScGe3(PO4)6,2.3653,-2.607947380504372,mp-2716307,0,3.0
TmSiOs2C,0.0,-0.6004261460000061,mp-1205607,0,0.0
Sm5Mg,0.0,0.016990683333333,mp-979459,0,0.0
LiH2ClO5,5.5649999999999995,-1.102834517592593,mp-1195620,0,7.0
Rb(CuO5)2,0.0,-0.250628962115384,mp-1209792,0,0.0
CeP4NO12,0.0,-2.418304096587301,mp-1213804,0,0.0
Ho2Ga3Fe,0.0,-0.471688152083331,mp-1224158,0,0.0
Eu2CdHg,0.0,-0.485680344375005,mp-1183915,0,0.0
HoZrOs2,0.0,-0.421636779296875,mp-977437,0,0.0
CaPt5,0.0,-0.600580696666668,mp-30481,0,0.0
Os2O4,0.2184489999999999,,,0,0.0
CsRb2AsF6,3.8491,-2.712054949215517,mp-1111463,0,6.0
TcCl4,0.8658,-0.885796349,mp-27780,0,1.0
Cs2Cu2O4,1.236595,,,0,1.0
Rb2NaAlF6,6.791,-3.430538285637931,mp-1079583,0,7.0
PH16C6S2NO4,4.4868,-0.432846228571429,mp-559674,0,7.0
Rb2LiTlBr6,0.5529000000000001,-1.525932038166667,mp-1114027,0,0.0
Ag2Al2S4,1.891728,,,0,3.0
LiNd6(CuO6)2,0.081399999999999,-3.053568413730159,mp-756531,0,0.0
DySn3,0.0,-0.421737786666665,mp-570860,0,0.0
PNCl2,4.018899999999999,-0.9679972134107132,mp-652364,0,6.0
Nb7S2I19,0.4354,-0.893764864374999,mp-583476,0,0.0
CuAu4,0.0,0.012961134,mp-1225742,0,0.0
Ga4GeO8,2.056899999999999,-2.232362397307692,mp-29455,0,3.0
Sr2TiRuO6,0.0,-2.866145533333333,mp-1218387,0,0.0
BaTb2O4,3.2062,-3.662951830119048,mp-18258,0,5.0
Cs(BH)3,4.324199999999999,-0.34196713360222,mp-23951,0,6.0
Hg8Br4P12,0.948098,,,0,1.0
BaMg6Sb,0.0,-0.041840447499999,mp-1016609,0,0.0
Tl24Cs40Sn4O12,0.118353,,,0,0.0
Ba3GeO5,3.2649,-2.85352409027778,mp-778602,0,5.0
K2AlAuBr6,0.0,-1.378608272449999,mp-1111999,0,0.0
Ga3Pd7,0.0,-0.5882995559999981,mp-31467,0,0.0
Na7Ca2Hf2SiP5O24,3.8648,-2.979200649500881,mp-2715640,0,6.0
Cu1Li1O2,0.5278200000000001,,,0,0.0
Dy10Ti6O27,2.597,-3.764608464457362,mp-37310,0,4.0
HgCS(OF)3,3.3625,-1.6125031772222231,mp-560125,0,5.0
NdOF,4.5028,-4.1572077274999995,mp-5634,0,7.0
Ho2TiO5,3.284899999999999,-3.890509348541666,mp-768605,0,5.0
LaGeRu,0.0,-0.698553216666667,mp-19898,0,0.0
Sm2Co7B3,0.0,-0.322041775208334,mp-505207,0,0.0
PrAg2,0.0,-0.265720576666667,mp-1072619,0,0.0
Ce4SmO9,0.0,-3.895134748571429,mp-754306,0,0.0
Na5Nb2In2Si3(PO8)3,2.158,-2.714387604038251,mp-2714140,0,3.0
U2CoSi3,0.0,-0.365500679999997,mp-1216755,0,0.0
Fe3Ni,0.0,0.00598572,mp-1224780,0,0.0
Sr2B5H3O11,5.1638,-2.711193324742062,mp-1201098,0,7.0
Dy(AlCr)6,0.0,-0.098305016538461,mp-1225667,0,0.0
Sc6Al16Pd7,0.0,-0.7680927989655161,mp-1194261,0,0.0
Ti3O4,0.0,-3.16382181714286,mp-1217157,0,0.0
Ba4Se4S16O31,0.0,-1.199424550624999,mp-1229279,0,0.0
H5N2F,5.4711,-0.721092279999999,mp-27235,0,7.0
Ta2ReRh,0.0,4.032253275395824,mp-1096583,0,0.0
Ba3MnN3,0.0,-0.811151963275859,mp-9324,0,0.0
Zr2P4O17,0.0,-2.441005772763975,mp-1215996,0,0.0
FeSiNi,0.0,-0.393415239166665,mp-1103705,0,0.0
Na3AlS3,3.3446,-1.397249384062499,mp-560538,0,5.0
CaBiB,0.077799999999999,0.849236478055549,mp-631550,0,0.0
Ba4Nd(RuO4)3,0.0,-2.473973363875,mp-1214781,0,0.0
BeCuPd2,0.074699999999999,2.00530131875,mp-1093749,0,0.0
Re1Cs2Cl6,1.227117,,,0,1.0
Pd16S7,0.0,-0.306646519551629,mp-393,0,0.0
LiPt7,0.0,-0.301626324583331,mp-30765,0,0.0
H5CN7O2,2.4724,-0.100704016916666,mp-1212560,0,3.0
YGe2,0.0,-0.580612243888888,mp-10213,0,0.0
Ho5CoSb2,0.0,-0.7388014699999971,mp-510594,0,0.0
Na2Al3P3(HO7)2,4.9664,-2.784416246528632,mp-1198443,0,7.0
SmMn5Co7,0.0,0.064504681180371,mp-1219042,0,0.0
BaYMgTiCuO5,0.0,-2.597919226333333,mp-2240418,0,0.0
LiAlGa2,0.6543000000000001,1.156407643583332,mp-1097579,0,1.0
TbUTe3,0.0,-1.416351945000002,mp-1217533,0,0.0
Dy6Al43V4,0.0,-0.312038951792451,mp-1213242,0,0.0
CdCuF4,0.7327,-2.150013655,mp-9075,0,1.0
LiBi(PdO2)2,0.445999999999999,-1.383742147916666,mp-559893,0,0.0
K2Ti4O9,3.0211,-3.258138655522222,mp-1194282,0,4.0
Na2CaH10C2O11,4.6291,-1.731174831356099,mp-24229,0,7.0
In2HgBi,0.018899999999999,0.723859079375003,mp-1096342,0,0.0
La2Mn3CuGe4,0.0,-0.47215423137931,mp-1223801,0,0.0
Sb7Mo3,0.0,0.002706001000001,mp-1521,0,0.0
K(BH)3,5.0082,-0.331861284232143,mp-23950,0,7.0
Pt2O4,0.634319,,,0,1.0
Li3AuS2,2.0985,-1.206511225833334,mp-15999,0,3.0
NaH8SNO6,5.1527,-1.382499880716278,mp-540714,0,7.0
PmMgAg2,0.0,-0.288774393958333,mp-862936,0,0.0
U2Si7Ni2,0.0,-0.23918280181818,mp-1216948,0,0.0
P2K4Zn1,0.943204,,,0,1.0
Ba2AlInO5,2.0183,-2.872980514907408,mp-556282,0,3.0
TbSeI,0.0647,1.050988206996528,mp-1207331,0,0.0
Ba6NaNd(SiO4)4,3.647599999999999,-3.329182422817118,mp-1214692,0,5.0
Ta2S,0.0,-0.7663241943333311,mp-555935,0,0.0
MgV3CrS8,0.0,-1.202402091923076,mp-1246413,0,0.0
Si6C8N2Cl4O3,0.6958000000000001,-0.151923998695654,mp-728532,0,1.0
Er7(TePd)2,0.0,-0.8451811940909071,mp-1205487,0,0.0
Cs2YAgBr6,3.335,-1.9004306030977012,mp-1112323,0,5.0
Rb3V5O14,2.256686,,,0,3.0
Cu8Cl8,1.123257,,,0,1.0
Cd4Na4As4,0.0,,,0,0.0
YAl7Fe5,0.0,-0.395412830769229,mp-1215964,0,0.0
TlPb,0.0,0.001412025000007,mp-1216530,0,0.0
K2ZnBr4,3.6771,-1.72332079992857,mp-23535,0,5.0
NaMg30BO31,2.3338,-2.8890589810404133,mp-1039849,0,3.0
LiMnPd2,0.0,-0.365073502816093,mp-861629,0,0.0
YU2(BRh)12,0.0,-0.468293545555554,mp-1216402,0,0.0
LaNbP2SO12,2.433799999999999,-2.811713916967787,mp-2713436,0,3.0
BaCaAlF7,7.1873000000000005,-4.1013565515,mp-18065,0,7.0
Pu2SbAu,0.0,-0.313057614374992,mp-1186791,0,0.0
La(LuS2)3,1.0627,-2.418229514687496,mp-1106254,0,1.0
Tl9BiTe6,0.7500999999999991,-0.461768193750001,mp-34361,0,1.0
Rb2ZnO2,1.792399999999999,-1.5484322495,mp-555977,0,2.0
Ti5SiSb2,0.0,-0.6829321166666641,mp-1208204,0,0.0
HoInCu,0.0,-0.405067560555557,mp-3015,0,0.0
SmCuTeS,0.0937,-1.425976595416666,mp-561248,0,0.0
PrZnGa,0.0,-0.535190169722222,mp-1018946,0,0.0
P8S10,2.362272,,,0,3.0
Y2ZnPt,0.0,-0.7674051349999991,mp-1187764,0,0.0
Ca10P6CO27,5.137399999999999,-3.253250209496753,mp-1195864,0,7.0
Tb3(VFe8)4,0.0,-0.058713115384614,mp-1217799,0,0.0
CeSiAg,0.0,-0.385828453888887,mp-1226539,0,0.0
KTb(CO3)2,4.4195,-2.5724752823916672,mp-1211249,0,7.0
NaU3O8,0.0,-3.519768515948274,mp-1210061,0,0.0
CeAsN(O2F)2,0.0,-1.726042801388888,mp-1189824,0,0.0
NpCd11,0.0,0.034168359826386,mp-1201611,0,0.0
HgF2,0.9687,-1.572511545833333,mp-8177,0,1.0
KNa2PdF6,0.0,-2.259310108000861,mp-1111008,0,0.0
ZrSiS,0.0,-1.344748419166665,mp-3938,0,0.0
Cr2P,0.0,-0.325101402976192,mp-29184,0,0.0
Ba3Nd(BO2)9,5.1019,-3.116745395322581,mp-1214606,0,7.0
Nd(Fe5Re)2,0.0,0.005947240576923,mp-1220627,0,0.0
Zr2(Ni7B2)3,0.0,-0.372515271551724,mp-5172,0,0.0
NaCaH6S2NO9,4.9222,-1.713142502818966,mp-1173840,0,7.0
PrRhO3,0.6013000000000001,-2.47127042533334,mp-4789,0,0.0
Sr2CaUO6,2.2089,-3.575181262999999,mp-14551,0,3.0
CdN6,2.867,0.44439326553571,mp-570471,0,4.0
SmBi2BrO4,1.278299999999999,-2.383572875,mp-550111,0,2.0
ErTl,0.0,-0.303069561666669,mp-1054,0,0.0
As4S5,1.996999999999999,-0.154503639895832,mp-502,0,3.0
K3SnSe3,1.627599999999999,-1.194529416611607,mp-541875,0,2.0
SmB2,0.0,-0.45281292366667,mp-10141,0,0.0
ThRe2,0.0,-0.105720185833339,mp-1659,0,0.0
In2Pt3,0.0,-0.5838570670000021,mp-510439,0,0.0
Ba(ZnN)2,0.5185000000000001,-0.292137242,mp-1245788,0,0.0
Hf(MnSn)6,0.0,-0.147910652838194,mp-753669,0,0.0
NbBr2O,0.9038,-1.975614217499999,mp-550070,0,1.0
P3Cl15,1.744571,,,0,2.0
Tm3Ga5Ni,0.0,-0.6629650408333371,mp-1206164,0,0.0
Na2Ca2Si3Ge6(S3O16)3,0.670199999999999,-2.100051528241791,mp-2716503,0,1.0
YMg14Cd,0.0,0.0075161856249999,mp-1028030,0,0.0
KEr2Cu3Se5,1.141,-1.3243278785426131,mp-1192275,0,1.0
Na6Sc4Ga4Si3(S3O16)3,3.0406,-2.436453019582557,mp-2713781,0,4.0
Rb2Y2Te4,1.369248,,,0,2.0
TlHg3,0.0,-0.027266808124998,mp-11474,0,0.0
LiDyF2,0.0889,-2.584465499374998,mp-1211162,0,0.0
Ca2H6Os,2.7001,-0.7095563258333341,mp-1207196,0,4.0
Nb3ZnAu,0.0,-0.0793053,mp-1220523,0,0.0
H3CSO3,4.1726,-0.7327736728125,mp-1199075,0,6.0
K4Cu4Zr4F28,2.666885,,,0,4.0
V6InS8,0.0,-1.195866721777778,mp-1216503,0,0.0
Tm9(FeGe)10,0.0,-0.54590742896552,mp-4193,0,0.0
Li6Cu1B4O10,1.912296,,,0,3.0
SmTlZn,0.0,-0.333235747777778,mp-1019256,0,0.0
BaLiSi,0.0,-0.159634137777778,mp-9950,0,0.0
TbMg149,0.253099999999999,0.004489277722222,mp-1188078,0,0.0
Cs7(FeS2)4,0.2416,-1.047283233294008,mp-1195066,0,0.0
GdH6C6Cl3(O3F2)3,3.1422,-1.624729029758064,mp-605688,0,5.0
La6Co2Ga2S14,1.302695,,,0,2.0
Te5As2Br4O5F26,2.1603,-2.03942771484127,mp-680183,0,3.0
Al3Si3Ag4IO12,2.364,-2.5295411824637672,mp-1214863,0,3.0
K2RbGaBr6,2.3254,-1.59928143995,mp-1111213,0,3.0
LiTi3Sb(PO4)6,2.488699999999999,-2.847361820891157,mp-766098,0,3.0
Eu2Ga7Ag,0.0,-0.493423524500002,mp-1225364,0,0.0
TiNbS4,0.0,-1.458828228888888,mp-34289,0,0.0
PrYFe4,0.0,0.042774526388889,mp-1219699,0,0.0
La3InS6,1.359499999999999,-2.081571309437498,mp-540877,0,2.0
Dy2SnAu2,0.0,-0.8349497706666641,mp-1105466,0,0.0
Ca2BAsO8,0.0,-2.131352784722222,mp-1095596,0,0.0
LaIn5Co,0.0,-0.263240936904763,mp-21414,0,0.0
SrCu2O3,0.0,-1.682521740833333,mp-3255,0,0.0
Ba8Sb4Fe4S20,1.044903,,,0,1.0
Zn2K4O4,2.450976,,,0,3.0
KEuS2,0.0,-1.798971391093751,mp-1018137,0,0.0
BaNb3O6,0.0,-2.489484236,mp-1205727,0,0.0
CS3N,2.8283,0.195385110857145,mp-29700,0,4.0
Ge5Te4Se,0.4144,-0.293111968401041,mp-1224356,0,0.0
SiSbOs2,0.0,0.8619082989583401,mp-631368,0,0.0
Bi2Ba6Na2O12,1.751211,,,0,2.0
YCuPbS3,1.595199999999999,-1.346010115833332,mp-542802,0,2.0
K2ZnGeO4,3.0302,-2.044669127593749,mp-6386,0,4.0
K4Hg3Ge20,0.0,-0.091801737648148,mp-1212086,0,0.0
GdCuSb2,0.0,-0.7422639949999991,mp-20502,0,0.0
CuH6N4O5,0.0191,-0.4548731615625,mp-1200663,0,0.0
TbGaNi,0.0,-0.630571898055553,mp-1103670,0,0.0
CeY(AlPd)2,0.0,-0.858927258333333,mp-1226694,0,0.0
CaYbCd2,0.0,-0.359801973749998,mp-1183573,0,0.0
O8Cr2K3Na1,3.046173,,,0,4.0
Cu2IO3,0.0,-0.695610755,mp-1095489,0,0.0
Er3Hg,0.0,-0.187677427708337,mp-1184154,0,0.0
Li5TlIn,0.0,-0.306873047619047,mp-1222587,0,0.0
Br16O24,1.851882,,,0,2.0
MnCuPd2,0.0,-0.223007231982759,mp-864946,0,0.0
Be2I4,4.045272,,,0,6.0
Ca21(Mn2Sb9)2,0.0,-0.949929859226141,mp-30217,0,0.0
Na7Hf2In2Si3(PO8)3,3.2096,-2.856989737729684,mp-2714876,0,5.0
Pm3Cd,0.0,-0.145891868125001,mp-1186498,0,0.0
Ag2N4C4Cl4Sb2F12,2.957716,,,0,4.0
Mg6TiH16,0.0,-0.180645619275362,mp-1191852,0,0.0
LiTb(SO4)2,5.6184,-2.402702175416665,mp-1210998,0,7.0
ErIO9,0.548,-0.6321145638636361,mp-1213502,0,0.0
Rb2ScAgCl6,3.2973,-2.120679242166666,mp-1110795,0,5.0
Na2Ca(CO3)2,4.4361999999999995,-2.3531554546826032,mp-1194807,0,7.0
YbTlHg2,0.0,-0.239946267500002,mp-972061,0,0.0
Ho4Ni,0.0,0.255806361000004,mp-1212334,0,0.0
CsCu2Br3,1.4959,-1.063013854942529,mp-23017,0,2.0
Na4LaTa3Si4(PO12)2,3.051,-3.077280786450955,mp-2714933,0,4.0
MnSb2H8(SN)4,0.8498000000000001,-0.366901241470054,mp-1195781,0,1.0
Na2Zr4Nb4Si7S5O48,1.6432000000000002,-2.8438830193370292,mp-2715589,0,2.0
Fe4Cl16K4,2.377135,,,0,3.0
Rb4UC3O11,2.167799999999999,-2.457306784736841,mp-1209486,0,3.0
PbBrCl,3.437699999999999,-1.411569416666664,mp-22997,0,5.0
Ca2Mn2Si4O17H6,0.0,,,0,0.0
Dy3Ho,0.0,0.044931632500002,mp-1184065,0,0.0
ErCuP2,0.0,-0.976192187321428,mp-30196,0,0.0
Fe2CuS3,0.0,-0.503543897083331,mp-1225005,0,0.0
RbNaUSi2O9,0.4432,-2.7955219745628073,mp-1193598,0,0.0
K2SnHgTe4,0.622799999999999,-0.7669801835833331,mp-1223855,0,0.0
Y2(OF)3,1.1258,-3.14789798,mp-1216131,0,1.0
Ga2Se2O7,3.4975,-1.6914541479261371,mp-1196063,0,5.0
Rb2LiSmCl6,4.918699999999999,-2.4479876173333333,mp-1113973,0,7.0
Ba1Ag2Ge1Se4,0.113063,,,0,0.0
Na2U2ZnH8(C3O7)4,0.2233,-1.770418752882237,mp-1202403,0,0.0
VCu3Te3Se,0.503599999999999,-0.518270894042967,mp-1216358,0,0.0
BeCr3,0.0,0.126639486250001,mp-1183401,0,0.0
O12N8,0.0,,,0,0.0
Ag4O4,0.1075049999999999,,,0,0.0
HoNiAs,0.0,-1.040260963333331,mp-1212066,0,0.0
Ba2Si3Ge5O18,3.2348,-2.7052119141071422,mp-1228626,0,5.0
Bi4Ge2O10,2.178926,,,0,3.0
Cs2Pb(ICl)2,2.9646,-1.709331011330049,mp-2647097,0,4.0
ErMgSe3,0.0,-1.499178231739583,mp-1232210,0,0.0
CsYMg14O16,0.0,-2.719806035926723,mp-1035953,0,0.0
CaSmZn2,0.0,-0.30602266375,mp-866061,0,0.0
Cs3Cu2(BiS2)5,0.4676,-0.679966887822925,mp-669419,0,0.0
Er2Sb2O7,1.7511,-2.830319283181817,mp-772137,0,2.0
USCl9,0.4958,-1.092125913873096,mp-28103,0,0.0
VCrB2,0.0,-0.6526933687500001,mp-1216398,0,0.0
Ti3Te4,0.0,-0.856451345714284,mp-15669,0,0.0
LiTi(SiO3)2,0.0,-3.134037300666667,mp-11206,0,0.0
Mn3(CrN2)2,0.0,-0.395029170730366,mp-1246904,0,0.0
Li4S4C4N4,3.624112,,,0,5.0
Ba5Cd2Sb4O2,0.0,,,0,0.0
C3N4,1.181499999999999,0.088740559642857,mp-971684,0,1.0
Ca2YBiO5,2.392299999999999,-2.863662839444443,mp-1347575,0,3.0
K5Sb4,0.0,-0.575929994305555,mp-30021,0,0.0
Hf5Ir3,0.0,-0.824096651666668,mp-1212499,0,0.0
B3Os2,0.0,-0.273454191500002,mp-1079348,0,0.0
Ho(CoB)4,0.0,-0.498842546851851,mp-1188650,0,0.0
MgP2(HO)12,5.3457,-1.8050223871957671,mp-1211044,0,7.0
Mg2VB2Ir5,0.0,-0.5060303113333341,mp-1105469,0,0.0
Lu2GaCu,0.0,-0.445440787708335,mp-973996,0,0.0
PdSeS,0.3662,-0.320489183958334,mp-1219871,0,0.0
TlHgPb2,0.0,1.085646295624997,mp-1095888,0,0.0
Cs2Cu2Si8O19,0.7552000000000001,-2.868689805622913,mp-556177,0,1.0
NbAlCo2,0.0,-0.4162606125,mp-5149,0,0.0
K2Se(SO3)2,2.9936,-1.85027872834943,mp-560223,0,4.0
Y7C3I6O,0.0,-1.296105226764706,mp-554027,0,0.0
Nb4Ba4K4S16,2.034853,,,0,3.0
HfBi,0.0,-0.226193917500002,mp-1212407,0,0.0
As2H6CO6,4.087899999999999,-1.106431402499999,mp-1194260,0,6.0
BePd,0.0,-0.5927108225000001,mp-11274,0,0.0
K2BrCl,4.487,-2.129546822374999,mp-1223648,0,7.0
Mg2MnN2,0.0,-0.649470411586207,mp-1402707,0,0.0
UMnC2,0.0,-0.133778046982756,mp-1207882,0,0.0
Nb4FeSi,0.0,-0.278190123333333,mp-22312,0,0.0
MgTi3O7,2.8332,-3.338316207727273,mp-1043866,0,4.0
Ta20Te5S3,0.0,-0.355897821875,mp-1208493,0,0.0
Rb3RuF6,0.0,-2.578471849249998,mp-1113825,0,0.0
SrBi3I3O4,0.0,-1.671250767727273,mp-1218434,0,0.0
Tl2SCl2,2.134,-0.454422844833336,mp-1206395,0,3.0
BaNd(SnS3)2,0.3689,-1.475641081499998,mp-1195589,0,0.0
Bi4W8Ag4O32,2.514819,,,0,4.0
YZnAu2,0.421699999999999,0.9913899032626852,mp-1097223,0,0.0
Ta2VMo,0.0,4.605576200595237,mp-1096615,0,0.0
SiH6(NF3)2,7.129300000000001,-1.857477502833333,mp-1196212,0,7.0
Na2Zn3(SiO4)2,2.9909,-2.474306230628352,mp-555300,0,4.0
Rb2ScInI6,2.0229,-1.391071834666666,mp-1114188,0,3.0
RbMg6GaO8,3.255299999999999,-2.3953844334375,mp-1033551,0,5.0
Na3Ca2In2PS5O24,2.9575,-2.303679482331913,mp-2712728,0,4.0
Na4HfMgSi2SO12,3.6522,-2.781296163794473,mp-2714477,0,5.0
Ba2Mg2C4O8,0.892632,,,0,1.0
PrB6,0.0,-0.5475135952380941,mp-12762,0,0.0
CsPr3CI6,0.7084,-1.534854066332288,mp-1190682,0,1.0
Rb3IrCl6O,0.0,-1.452065859090909,mp-1209539,0,0.0
Co2F6,1.800638,,,0,2.0
Lu2CdIn,0.0,-0.447348713333333,mp-866211,0,0.0
Ti5As3,0.0,-0.976199255229168,mp-1208252,0,0.0
AlZnB5H16C4(N2O5)2,4.4996,-1.343222935691057,mp-1195007,0,7.0
K3AlCl6,4.6098,-2.120414557174999,mp-1111502,0,7.0
Sr2Fe1Mo1O6,0.5740839999999999,,,0,0.0
Na10La4Si7Sn4S5O48,0.945,-2.552810214546493,mp-2715926,0,1.0
Mg3Si4(SbO7)2,1.9461,-2.731484702173912,mp-1249986,0,3.0
Sb2S2O,1.2374,-0.9498377925,mp-28711,0,1.0
SrBi2Br2O3,0.0,-1.82118825125,mp-1218502,0,0.0
PuP2H4CO7,0.133599999999999,-1.984118824785713,mp-1200565,0,0.0
K3Zn,0.0,0.142045400908652,mp-1185031,0,0.0
S2N2Cl,2.604,0.228063968812499,mp-29067,0,4.0
Nb3SiSnMo3,0.0,-0.272952931830353,mp-1220572,0,0.0
MnAlRh2,0.0,-0.683740049482759,mp-10894,0,0.0
BeNbRu2,0.0,-0.27588973375,mp-867828,0,0.0
YMg14Bi,0.0,-0.024276831249999,mp-1027953,0,0.0
BeReB,0.0,0.8464212311111101,mp-631537,0,0.0
TmBi2BrO4,1.360199999999999,-2.4285416168750023,mp-546350,0,2.0
Tb3Ni11Ge4,0.0,-0.434508764722221,mp-1208582,0,0.0
DySbO4,2.3553,-2.866834643194442,mp-1213234,0,3.0
Cd2Sc4S8,0.943632,,,0,1.0
Mn2SiS4,0.3536,-0.9834398043165012,mp-5056,0,0.0
Y5B4Rh15,0.0,-0.713636570277776,mp-1216199,0,0.0
Co4Te3N2,0.0,0.081045223055557,mp-1247088,0,0.0
Ca3AsBr3,1.6726,-2.014183470357142,mp-27294,0,2.0
Na2RhS2O11,0.0812,-1.204201092359913,mp-1203876,0,0.0
Y2MgSe4,1.3007,-1.95491398919643,mp-15803,0,2.0
Dy3CrS6,0.0,-2.027208119499998,mp-1212952,0,0.0
Lu6(Ga3Co)7,0.0,-0.458891331102941,mp-1203513,0,0.0
Na3Ca2Ta2P5SO24,2.69,-2.811127990617628,mp-2715871,0,4.0
Pt2PbO4,0.0,-1.119710785000001,mp-22048,0,0.0
Ba3Al3P5,1.4661,-0.9240449513528132,mp-1196964,0,2.0
NdEuB12,0.0,-0.55773304732143,mp-1220180,0,0.0
YZr5O12,0.0,-3.655512732777778,mp-676515,0,0.0
K8In8S16,2.044821,,,0,3.0
K3BiSe3,2.0759,-1.145052701611606,mp-28980,0,3.0
Pr(Al10Cr)2,0.0,-0.135908346004145,mp-1200116,0,0.0
CrN2,0.0,-0.341096689583333,mp-1080200,0,0.0
ErTmPd2,0.0,-0.9679020358333332,mp-1184248,0,0.0
Tb3(Al3Ru)4,0.0,-0.66457157973684,mp-1195573,0,0.0
LaSi3Rh,0.0,-0.839988951000002,mp-1070124,0,0.0
CaMg14Ni,0.0,0.053787000625,mp-1028203,0,0.0
SbPt,0.0,-0.445911402499994,mp-2845,0,0.0
SrLi2Ca,0.5205000000000001,1.203796484375,mp-1097486,0,0.0
Y2BiO2,0.0,-2.916590982000001,mp-1070510,0,0.0
Rb2Ti(GeO3)3,3.0665,-2.441583086111111,mp-555252,0,4.0
Li2Ba2P2,0.94404,,,0,1.0
Tm2C3,0.0,-0.457055261060003,mp-9545,0,0.0
Sr2F2Te2Ag2,1.321603,,,0,2.0
Zn3Bi2(PO6)2,0.0,-1.961736093383458,mp-1356795,0,0.0
MgBe13,0.0,0.000521484642856,mp-855,0,0.0
Ca2AsClO4,3.808899999999999,-2.75325286625,mp-560595,0,6.0
Fe4P,0.0,0.411684799071429,mp-20885,0,0.0
As8O20,1.342631,,,0,2.0
TiTl3,0.0,0.288850605833332,mp-1100771,0,0.0
Y2B5Pd14,0.0,-0.486864326114222,mp-4597,0,0.0
Ce(In2Pd)2,0.0,-0.515915881309522,mp-641911,0,0.0
O12In4La4,2.801759,,,0,4.0
Cu1Cd2P2O8,1.681663,,,0,2.0
Sm3Dy,0.0,0.002891308750001,mp-972502,0,0.0
BaSrTbSbO6,3.5885,-3.077656314166667,mp-1520523,0,5.0
Mg15Nb,0.0,0.0990772953125,mp-1023502,0,0.0
Mo4Te24Br12,0.0,,,0,0.0
Sc5(NiTe)2,0.0,-0.870272376203704,mp-29769,0,0.0
Na6Mg8Nb16Si15(S7O48)3,1.1738,-2.563896589456076,mp-2716224,0,1.0
TmNi3,0.0,-0.446105120833324,mp-1102684,0,0.0
Ba2Al8Se14,2.451289999999999,,,0,3.0
Na11Zr8Si7P5O48,4.0624,-3.134642928840337,mp-1266342,0,6.0
Sm2TlIn,0.0,-0.426267315,mp-1187001,0,0.0
Pb4Mn4B4O16,0.567353,,,0,0.0
KCaMg14,0.0,0.108772720290816,mp-1028171,0,0.0
Ca4Ti5(TeO6)3,0.0468,-2.8565283552222223,mp-1046360,0,0.0
Ca(BO5)2,0.0,-1.413370670641026,mp-1192983,0,0.0
Be(B6C)2,0.0,-0.035376789666666,mp-1104026,0,0.0
Sc6Te2Os,0.0,-0.712972387037037,mp-11754,0,0.0
CeP5N2O15,0.0,-2.095468875139752,mp-1199266,0,0.0
Pr5Fe2Sb,0.0,-0.193031441666665,mp-1209713,0,0.0
Si2B2O5,0.0,-1.015579242592593,mp-972793,0,0.0
K2Sb2SeO5F6,0.1897,-2.034136473708984,mp-1196236,0,0.0