formula,bg,formation_energy,mp-id,fidelity,bg_category
LaAl2Pt3,0.0,-1.206610494166663,mp-1222903,0,0.0
TiTl3F6,0.0,-2.653224633333335,mp-15635,0,0.0
Hf2NbIr,0.092099999999999,3.560097282500001,mp-1096661,0,0.0
Ce(SiAu2)2,0.0,-0.461635238571424,mp-569496,0,0.0
Yb2Si,0.0503,-0.6034137258333341,mp-1207599,0,0.0
Eu2As3Pt,0.0,-0.8805135820833361,mp-1225431,0,0.0
Zr4CuNi,0.0,-0.2131833,mp-1215371,0,0.0
Tm(SiPt)2,0.0,-0.9986962220000012,mp-7108,0,0.0
Zr2InN,0.0,-1.2439080084375,mp-1084767,0,0.0
Na14Sc3Nb5(SiO4)12,2.5198,-2.9957173134672,mp-2712987,0,4.0
TiGa3,0.0,-0.374128426458333,mp-2731,0,0.0
ZrOsO3,0.0,-1.231561315,mp-972296,0,0.0
NdMgAu,0.0,-0.6405343830555551,mp-1205903,0,0.0
AlAg3,0.0,-0.072474530250002,mp-1228988,0,0.0
LaRh,0.081199999999999,-0.7398523274999991,mp-1002107,0,0.0
LiHo2Os,0.0,-0.299264179166666,mp-867269,0,0.0
PrMnGe,0.0,-0.424344749865899,mp-21271,0,0.0
Cu4N4Cl4H12,2.510328,,,0,4.0
Cu2K2Na2Si8O20,2.192791,,,0,3.0
Hf5CuPb3,0.0,-0.090539584444441,mp-607409,0,0.0
Ti3Cd,0.0,0.042240975833335,mp-1187466,0,0.0
YbPmCu2,0.0,-0.229210920625,mp-1187538,0,0.0
CeCrSe3,0.0,-1.4712222024062511,mp-20170,0,0.0
Cu4OF6,0.0,-1.579423875454546,mp-753717,0,0.0
Li(ErGe)4,0.0,-0.823574698703701,mp-1211564,0,0.0
Li3B5(HO5)2,5.833799999999999,-2.571589393666667,mp-1199091,0,7.0
CeAl2Ag3,0.0,-0.258239522499997,mp-1226637,0,0.0
Ti2Cl12S2O2,2.461123,,,0,3.0
Ca3Al2Ge3,0.0,-0.6229662850000001,mp-27997,0,0.0
Er2SnAu2,0.0,-0.839084712499998,mp-31143,0,0.0
K8La(PSe4)4,0.086799999999999,-1.069826670657635,mp-1223693,0,0.0
Pr2MgNi9,0.0,-0.275464783194443,mp-1219964,0,0.0
ThP2(HO4)2,0.4894,-1.9411323560027471,mp-1197197,0,0.0
K15Nd7Zr9(PO4)24,4.2042,-3.145461721408467,mp-686607,0,6.0
KB3(H3O4)2,4.0008,-1.582853228874999,mp-707961,0,6.0
Na2CaP2O7,4.962,-2.88676357392036,mp-561260,0,7.0
Ba2PrPbO6,0.0,-2.558548934166666,mp-1228494,0,0.0
Na7NbSi6(GeO8)3,2.5418000000000003,-2.668652213365574,mp-2712958,0,4.0
Li3Cr2(PS4)3,1.384599999999999,-0.9070402784464272,mp-778433,0,2.0
MgSnF6,4.9612,-3.22494402875,mp-1397451,0,7.0
TaSi2H36C12N4Cl,2.618999999999999,-0.245715324952381,mp-1197423,0,4.0
Cs6Na2Nb6H36O37,3.605299999999999,-1.848773117364249,mp-557127,0,5.0
MnSbSe2Br,0.6252000000000001,-0.748830724523707,mp-567478,0,0.0
Pr3Hg,0.0,-0.194385367291673,mp-1186716,0,0.0
AlCr4AgS8,0.0,-1.011209352261903,mp-1228999,0,0.0
ZnPt(CN)4,3.9641,-0.0198526865,mp-1189491,0,6.0
Ag4Te(ClO3)2,0.0,-0.293216047371793,mp-738646,0,0.0
Ba7Ga4As9,0.0,-0.8892164171250001,mp-1195273,0,0.0
Gd3BBr3,0.0,-1.5176677580952351,mp-1212672,0,0.0
Mg149V,0.0807,0.0115107451,mp-1185641,0,0.0
La2ReO5,0.7077,-3.26176853218751,mp-27539,0,1.0
Zr2Ge2Te8,0.3807069999999999,,,0,0.0
NiCl2,0.0,-0.9834993083333332,mp-27396,0,0.0
Bi(WBr3)3,1.9682,-0.939206879807692,mp-1198859,0,3.0
Na5Y3Ti(PO4)6,1.9071,-3.046900321233001,mp-2713156,0,3.0
Sr(CuGe)2,0.0,-0.366230667999997,mp-3241,0,0.0
CdSnP14,1.444499999999999,-0.034333152968748,mp-1199087,0,2.0
Na2Ca3Ti(SO4)6,0.891899999999999,-2.438030710400702,mp-2714212,0,1.0
Ce3C2Br3,0.0,-1.380088277031248,mp-1215059,0,0.0
La3BeInS7,1.6217,-1.882939714513889,mp-1192038,0,2.0
K2Ag4S3,0.128299999999999,-0.599046196770831,mp-7494,0,0.0
LuS2,0.0,-1.8280156690972211,mp-1018792,0,0.0
CaPmAg2,0.0,-0.303594609375,mp-1183552,0,0.0
KPrGdGeO6,0.0,-2.675153778391667,mp-1517428,0,0.0
Mg7Fe,0.0,0.173882143125,mp-1016317,0,0.0
SrCaTi2(GeO5)2,2.8285,-3.046455474479167,mp-1218580,0,4.0
LaTiNbO6,2.7987,-3.528812414537038,mp-1222933,0,4.0
Mn23(BC2)2,0.0,-0.083195626957986,mp-1222165,0,0.0
CeTaO3,0.0,-3.053413314466667,mp-1183701,0,0.0
Cu2GeO4,0.0,-1.3558092,mp-9600,0,0.0
Na3LaMgSi(SO6)2,3.5956,-2.56780387429023,mp-2712802,0,5.0
TmRe2SiC,0.0,-0.442034798,mp-1205618,0,0.0
CsKMg14,0.0,0.20375289494181,mp-1026854,0,0.0
S3N,1.6651,0.25892899546875,mp-1209413,0,2.0
CaSmB12,0.0,-0.508219788571427,mp-1227050,0,0.0
Li2HgO2,1.1767,-1.502459395833334,mp-1206880,0,1.0
CrIn3,0.0,0.30830919625,mp-1183750,0,0.0
Ce7Rh3,0.0,-0.472711688499993,mp-1106144,0,0.0
Ni(N3Cl)2,0.0,2.754390264999999,mp-1084748,0,0.0
Ba9Ca3(MoN4)4,2.3264,-1.072325411562501,mp-1228642,0,3.0
NaNb4(PO4)6,0.0,-2.812892898549613,mp-1221022,0,0.0
Cs6Cu2Hf4Te20,1.151789,,,0,1.0
Mg14MnCr,0.0,0.14814556700431,mp-1028055,0,0.0
Nb9P2O25,0.0,-2.6761103334523813,mp-1210146,0,0.0
Al2Cu3(SiO4)3,0.123499999999999,-2.440744174124999,mp-1154457,0,0.0
Nd(Ge3Pt)4,0.0,-0.383006174558822,mp-975665,0,0.0
V2NiP,0.0,-0.423542558660714,mp-1216521,0,0.0
NaCa2TiSi2O8F,3.676199999999999,-3.221428657480842,mp-1263670,0,5.0
I4Se12Cu4P16,1.325727,,,0,2.0
Tc8O28,2.926766,,,0,4.0
ScTi(NiSn)2,0.0,-0.568638249722221,mp-1219264,0,0.0
MgNb2Al2O8,0.1905,-2.976336549615384,mp-2218439,0,0.0
Sb2H10C3NCl9,0.179,0.1263029231,mp-677704,0,0.0
H8Pt(N4O)2,2.3138,-0.379649889210526,mp-1195149,0,3.0
Ta11(NiSe4)2,0.0,-0.746391374019842,mp-22744,0,0.0
RbZn13,0.0,-0.048061099107142,mp-2504,0,0.0
Ce2K2P8O24,3.957539,,,0,6.0
Mn6ZnGaC2,0.0,1.957327918491379,mp-1221882,0,0.0
Na4CaTiSi2SO12,1.9929,-2.7189812957785993,mp-2714360,0,3.0
Na2CuP4H18N4O15,1.120099999999999,-1.455380244632501,mp-1205271,0,1.0
K5BrCl4,4.5107,-2.198903494124999,mp-1223752,0,7.0
Si7Tc4,1.0648,-0.553621656590911,mp-1203760,0,1.0
K2IrAuF6,0.549199999999999,-1.9544253884499991,mp-1112262,0,0.0
LaAsRuO,0.0,-0.356088888125,mp-1084754,0,0.0
K3HPdS2(ClO3)2,2.0652,-1.823885751533332,mp-697127,0,3.0
Dy2NiB10,0.0,-0.508632518076922,mp-1213050,0,0.0
GdPt2,0.0,-1.095334959999998,mp-1422,0,0.0
Ba3La3Pr3Cu9O22,0.0,-2.307833212249998,mp-1229252,0,0.0
Ca(MnN)2,0.0,-0.252996443172413,mp-1385829,0,0.0
In2Sn2O7,0.2819,-1.9634221921212112,mp-755027,0,0.0
Ca2InHg,0.0,-0.585514224375,mp-1183598,0,0.0
Na7La3NbSi3(PO8)3,2.4829,-2.987858568827246,mp-2715072,0,3.0
KHfPCO7,4.6102,-2.818826496535714,mp-772778,0,7.0
LaZnAsO,0.5760000000000001,-2.060511224375001,mp-549589,0,0.0
Be(NF2)2,0.0,-0.725120850357143,mp-726066,0,0.0
CeSn3,0.0,-0.534640256249996,mp-1911,0,0.0
Mg(GeN)2,9.999999999976696e-05,-0.304913712999999,mp-1247326,0,0.0
KBePO4,5.2634,-2.888861876698979,mp-7324,0,7.0
K2USO7F2,0.152999999999999,-2.521229281692306,mp-863004,0,0.0
Ba2As2S5,1.6148999999999991,-1.368974388472221,mp-28134,0,2.0
Ba8Mn4S12,1.857771,,,0,2.0
TaN2Cl5,0.0,-0.107613190916667,mp-726132,0,0.0
Ba15(ZrSe3)14,0.2641,-1.94166378878081,mp-620609,0,0.0
MgCu4(OF2)2,0.0,-1.753319381363636,mp-2217616,0,0.0
Dy5Sn3,0.0,-0.712904919791663,mp-30623,0,0.0
TaIr,0.0,-0.6471931228333381,mp-571499,0,0.0
Ho2Hf2O7,3.1157,-4.009504141363635,mp-554082,0,4.0
Ta2Si,0.0,-0.594204636555555,mp-2783,0,0.0
Cr(FeN)3,0.0,-0.196240710714286,mp-1246664,0,0.0
Hg2Se2O8,0.910668,,,0,1.0
Cs2As2Pd,0.9487999999999992,-0.503128553862067,mp-8857,0,1.0
Na3Be3B3P6O25,1.008,-2.668866858362376,mp-1211231,0,1.0
SrTi3Al8O19,2.6519,-3.465720377580646,mp-1217828,0,4.0
Mg5Mn4,0.0,0.403574454808428,mp-1212684,0,0.0
K3P3H4O11,5.412800000000001,-2.279909065925169,mp-707908,0,7.0
Gd2B5,0.0,-0.613702832142856,mp-28366,0,0.0
Eu2HfSnO6,0.2862,-3.141001103500001,mp-1517993,0,0.0
Np(GePd)2,0.0,-0.455058705749999,mp-10866,0,0.0
Ca12N8,1.360089,,,0,2.0
TiP2O9,0.0,-1.967684098343254,mp-1198831,0,0.0
Na2Ca5Ti3(SO4)12,1.6555,-2.413380128896552,mp-2714711,0,2.0
Sr(AuO2)2,1.2361,-1.477021438571423,mp-9298,0,1.0
Er(CuO2)2,0.0,-2.092032177857141,mp-15186,0,0.0
Sm3Al5O12,4.1364,-3.643962838374996,mp-780370,0,6.0
Mg14AlMo,0.0,0.1190666225,mp-1028241,0,0.0
RbCr3S5,0.0,-1.110039205555554,mp-616544,0,0.0
Mg2ScMo3S8,0.0,-1.1657948903571431,mp-1247091,0,0.0
IF7,1.4397,-1.692126078749999,mp-27988,0,2.0
Ba2NaOsO6,0.0,-2.386168429137932,mp-22442,0,0.0
DyZnSi,0.0,-0.715805074999998,mp-1225041,0,0.0
KRb2TmCl6,4.871499999999999,-2.472512341225,mp-1114032,0,7.0
Na6Ca3TiP4(SO12)2,2.2019,-2.740436089712849,mp-2712597,0,3.0
Mg4Ta2(SO4)9,3.0302,-2.300943206316994,mp-2713918,0,4.0
Na2K2O2,2.137253,,,0,3.0
Ca7Cu(PtO6)2,0.5033999999999991,-2.485199199545454,mp-560453,0,0.0
CsNbF6,5.2004,-3.2849833050000012,mp-11980,0,7.0
Na3ZrAlSi2SO12,3.9878,-2.816221173165231,mp-2714373,0,6.0
BaCe2CoS5,0.0,-1.958872654166665,mp-22288,0,0.0
Cs4Au8F28,1.852036,,,0,2.0
SrCa4P3O12F,5.4986000000000015,-3.417529170187073,mp-1208696,0,7.0
MnHg2S3,0.0,-0.5014789275718401,mp-1221581,0,0.0
Nb2Li2O6,2.312424,,,0,3.0
N3Na1,3.778109,,,0,6.0
TeH4C2(NCl)6,0.0494,-0.238026071666666,mp-1217518,0,0.0
EuIn2(GeIr)4,0.1271,-0.487910063484849,mp-1095411,0,0.0
Mg2BiN3,0.4835,-0.241080560833334,mp-1245781,0,0.0
Y(GeRh)2,0.0,-0.878617119999992,mp-4889,0,0.0
KCaCeNbO6,2.0677,-3.208623010975,mp-1518415,0,3.0
Dy2S2F,0.0,-0.956592118958352,mp-1206833,0,0.0
Ho6Al43Mo4,0.029999999999999,-0.313838959339621,mp-1212353,0,0.0
DyAgS2,1.6628,-1.564351824583331,mp-1200233,0,2.0
HfNp3,0.0,0.5358863234374951,mp-1184793,0,0.0
I2Na2O4N4C4H8,4.233677,,,0,6.0
Na3Hf2Zn2P3(SO8)3,4.6276,-2.572103954790086,mp-2713988,0,7.0
I4O12,1.794837,,,0,2.0
Na2Ti4Ga4Si3(S3O16)3,1.283599999999999,-2.356941836194172,mp-2716463,0,2.0
Hf3Sb,0.0,-0.428481436875003,mp-15964,0,0.0
Sm2Br2O,0.0,-1.470669987,mp-1207282,0,0.0
KRuF6,1.1302,-2.437992797156249,mp-8013,0,1.0
HfGeS,0.0,-1.219511659166665,mp-7918,0,0.0
Mg2Ge2P4,1.472457,,,0,2.0
Br2F10,3.44207,,,0,5.0
CeAl3Pd,0.0,-0.621950383833342,mp-1226634,0,0.0
Nd2Si2PbS8,2.408899999999999,-1.534113729999998,mp-1220623,0,3.0
Ba5La2Cl16,4.2391,-2.861193770869565,mp-772019,0,6.0
NdMgCu4,0.0,-0.188007068749999,mp-1071051,0,0.0
Na42Ca16Ta8Si21(S5O48)3,1.6832,-2.673956090646739,mp-2715815,0,2.0
Mn4S3N2,0.0,-0.6887048734159491,mp-1246527,0,0.0
Mg(InTe2)2,1.4769,-0.7187970564285721,mp-1222182,0,2.0
Bi8Se7,0.0,-0.32793277778471,mp-680214,0,0.0
La2Zn2As2O2,0.717893,,,0,1.0
ErCl2,0.0,-2.031574337407411,mp-861968,0,0.0
TaPbF7,5.132499999999999,-3.202671064703701,mp-557163,0,7.0
Ce3Pa,0.0,0.114350100000002,mp-985284,0,0.0
Na3Bi2H42C18I9(N2O3)3,0.0442,-0.373295588894808,mp-1050641,0,0.0
Na3TmTi2Nb2O12,2.1266,-3.14146571429023,mp-1173701,0,3.0
TaGaCo2,0.0,-0.345240171208333,mp-30555,0,0.0
Cl1Na1,4.045108,,,0,6.0
Rb2NaTaCl6,0.0,-1.919332065371264,mp-1110677,0,0.0
NaLiTi3O7,2.781399999999999,-3.205351060601053,mp-555420,0,4.0
NaO8,0.0554,-0.118000116819923,mp-1201981,0,0.0
Sr2TbSnO6,0.0,-2.893595585166667,mp-1517981,0,0.0
LuCuAs2,0.0,-0.864688731666667,mp-1079944,0,0.0
YSnF7,4.8779,-3.549092376388889,mp-18183,0,7.0
BePNO4,0.0,-1.433902246734694,mp-726947,0,0.0
NdCrGe3,0.0,-0.403187484333332,mp-13008,0,0.0
HfGeTe,0.0,-0.760137838333335,mp-13964,0,0.0
V(FeS2)2,0.0,-0.901952874285712,mp-1216724,0,0.0
KB6S4(Cl3O4)2,1.7539,-1.373751951889999,mp-1200783,0,2.0
Ba8As8Se20,0.9123329999999992,,,0,1.0
Mg30CuBiO32,1.254399999999999,-2.868149521249999,mp-1037183,0,2.0
BaTi4ZnO8,0.0,-2.926744168809523,mp-1046922,0,0.0
Dy(Fe5Mo)2,0.0,-0.007029009358973,mp-1225446,0,0.0
Ce3Tm,0.0,0.139146840833333,mp-1183769,0,0.0
Eu(Mg4Al3)4,0.0,-0.043379898793103,mp-1183991,0,0.0
Cs6Hf5(O2F13)2,0.0246,-3.2910829216568542,mp-1201448,0,0.0
Nb4Rb12S16,2.448348,,,0,3.0
SrCdAu,0.0,-0.590600186666666,mp-1095513,0,0.0
GeC4NCl3,0.4563,0.7129338431944411,mp-1197524,0,0.0
Na5ZnSiGe3P5O24,2.0946,-2.460472428507116,mp-2715997,0,3.0
O1Zn1,1.750509,,,0,2.0
Zr6Be15Co8,0.0,-0.304428660862069,mp-1207415,0,0.0
CaCe4Si3O13,0.1608,-3.615002708809524,mp-1229253,0,0.0
Tb11In9Ni4,0.0,-0.507058600138887,mp-1191293,0,0.0
Sn4P4Na4F4O16H4,3.57494,,,0,5.0
K3(FeSe2)2,0.0,-0.9573468217916672,mp-541998,0,0.0
NaLa3TaP3(SO8)3,2.9412000000000003,-2.841324247337369,mp-2716372,0,4.0
Y8Hf4S20,1.216119,,,0,1.0
Na3LaTiSi2SO12,2.305,-2.82771615391523,mp-2714579,0,3.0
Gd3TaO7,2.6563,-3.803172537939394,mp-769809,0,4.0
SnHC2O3,2.1618,-1.162017457321428,mp-697873,0,3.0
Bi8Ge4O20,2.323103,,,0,3.0
SnC8(S3N)2,0.0,0.747092412505253,mp-1179442,0,0.0
Ho3(SiNi3)2,0.0,-0.665978022727271,mp-1191275,0,0.0
Th2Ni7,0.0,-0.434111924166664,mp-867004,0,0.0
Gd4MgRh,0.0,-0.372102442083331,mp-1191587,0,0.0
LaGa2,0.0,-0.8260203783333321,mp-19839,0,0.0
Na2TiNbSi2PO12,2.743999999999999,-3.007276597056218,mp-2713031,0,4.0
Zr7P4,0.0,-1.167079413961038,mp-583740,0,0.0
Dy6Cu23,0.0,-0.197867905172411,mp-1194041,0,0.0
Sr(MnN)4,0.0,-0.485435461673052,mp-1246465,0,0.0
PaInCu2,0.0,-0.102407864999996,mp-862823,0,0.0
MgS2O7,5.5211000000000015,-2.145147585,mp-1020122,0,7.0
Ce(SiPd)2,0.0,-0.880937751999999,mp-3826,0,0.0
YTi3Se2ClO8,1.1446,-2.613675697979167,mp-1048604,0,1.0
TlP3(NO6)2,0.0092,-1.35145446401455,mp-1217308,0,0.0
NdMgZn2,0.0,-0.338612443124999,mp-864925,0,0.0
K4CO6,0.1431,-1.32547911490909,mp-675766,0,0.0
K4HgP2,0.9356,-0.476857046921769,mp-8753,0,1.0
Ba2TbHfO6,0.0,-3.460192446916667,mp-1521114,0,0.0
Na4Eu2GeP4,0.0,-0.615494934917152,mp-1221300,0,0.0
KCeNbSnO6,1.6239,-2.745545489725,mp-1520451,0,2.0
Pd1K2Cl6,1.20408,,,0,1.0
Li2Nb2O4,1.604177,,,0,2.0
LiAlGe,0.052699999999999,-0.291353459444444,mp-5920,0,0.0
CeGa3Pt,0.0,-0.684243602499999,mp-1226576,0,0.0
TePbO3,3.2104,-1.550890769833333,mp-543039,0,5.0
MgMoWS4,0.3597,-0.961622581428571,mp-1247218,0,0.0
Rb3Sr,0.0,0.135942339374999,mp-1186873,0,0.0
Ba12Ge4S20,2.024901,,,0,3.0
BaGd2O4,2.8146,-3.6056465425,mp-17143,0,4.0
Ir(N3O4)3,0.5113000000000001,0.131089603409091,mp-1181246,0,0.0
Na8Zn3Si3Sn(SO8)3,1.8354,-2.24316771266352,mp-2715050,0,2.0
KSnSb,0.2609,-0.391280400749997,mp-3486,0,0.0
Li4Al3Ge3ClO12,4.1175,-2.663627579275362,mp-556886,0,6.0
Mg6GaSi,0.0,0.0523087796875,mp-1017362,0,0.0
K2LiAuF6,0.449899999999999,-2.360179859783333,mp-1111111,0,0.0
Na7Sr6Nd7Ti20O60,0.0,-3.4049976626882192,mp-1173858,0,0.0
CsRb2PdF5,2.3387,-2.514136872739464,mp-8202,0,3.0
Al3H,0.0,0.388532224062499,mp-1183138,0,0.0
Sc2OsRh,0.0,-0.700234014999996,mp-1186957,0,0.0
Rb2GeF6,5.807,-3.048175578888887,mp-7949,0,7.0
LiMg14Al,0.0,0.017806654791666,mp-1028223,0,0.0
Rb3Nb1O8,2.674207,,,0,4.0
ZnC4(NO3)2,3.7725,-1.199871168846153,mp-729632,0,6.0
NaSnS2,0.0,-0.812001042656257,mp-27682,0,0.0
CdAg2SnS4,0.0,-0.5332702472916651,mp-1226773,0,0.0
ZrSnPd2,0.0,-0.752581591250002,mp-977568,0,0.0
SmGdS2,0.0,-2.302930077500001,mp-1219007,0,0.0
Pr9Al5S21,2.2704,-2.002411640830358,mp-1220043,0,3.0
RbTaTiO5,3.0092,-3.234394786645834,mp-1219631,0,4.0
Ta6Fe16Si7,0.0,-0.443793649448273,mp-542996,0,0.0
MgMnInS4,0.0,-1.036319473513956,mp-1246814,0,0.0
EuSe,0.0,-2.357297482031249,mp-21009,0,0.0
TaVCN,0.0,-0.8747966890208331,mp-1217824,0,0.0
Na4Ti3ZnSi3(SO8)3,1.134399999999999,-2.61573407275484,mp-2713322,0,1.0
Tb11CuSe16,0.0,-1.967640336636903,mp-685414,0,0.0
Na2SO9,0.0,-0.7662086629382181,mp-1180435,0,0.0
ThCuO3,0.0,-2.467409856999999,mp-1187487,0,0.0
Ba5Ru2O11,0.0,-2.256200781111109,mp-867790,0,0.0
Sr2EuBiO6,0.0,-2.625174678000001,mp-1208871,0,0.0
Mg2V2O6,2.420696,,,0,3.0
Sn2Pb2O7,0.0,-1.732623209090907,mp-1191975,0,0.0
MgCu4As2(ClO4)2,0.0,-1.423242373529412,mp-2229207,0,0.0
Eu3Hf,0.0,0.376324975000002,mp-1184326,0,0.0
Ta4(CuNi3)3,0.0,-0.229647244458337,mp-1218103,0,0.0
Ho4CdIr,0.0,-0.516213347083331,mp-1212283,0,0.0
Tl2B2Se7,1.2951,-0.28725675440341,mp-16183,0,2.0
Ba4CN4,1.309,-0.729569926111111,mp-1247171,0,2.0
YMgTiS4,0.0,-1.845105548333333,mp-1246823,0,0.0
Ti2AlFe,0.0,-0.232216314166666,mp-999069,0,0.0
Cs2LiPrCl6,4.7971,-2.462699099431034,mp-1111836,0,7.0
Na9Mg11Nb(SO4)18,0.888799999999999,-2.317358196598323,mp-2715089,0,1.0
Na2AlGe7O16,0.0,-2.196356539529177,mp-1221447,0,0.0
Tl(CuSe)2,0.0,-0.315751109624997,mp-5000,0,0.0
La6Ag2Si2Se14,1.664837,,,0,2.0
Nd3PbC,0.0,1.404299619433334,mp-20808,0,0.0
Ag2C8N6,3.357065,,,0,5.0
Cs6Cl4O,1.9928,-1.962108515721004,mp-29983,0,3.0
K6P4B2,1.665719,,,0,2.0
LaAlAg2,0.0,-0.300839431666666,mp-1185007,0,0.0
AcAg,0.0,-0.271156981250001,mp-866199,0,0.0
Na9Nb4Zn2Si6(PO12)3,2.049,-2.7804838800223712,mp-2713303,0,3.0
Dy4Co,0.0,0.31521919766667,mp-1213098,0,0.0
Cr(FeTe2)2,0.0,-0.26504784095238,mp-1237584,0,0.0
Dy3Ga5,0.0,-0.741793305625002,mp-1196980,0,0.0
TlCuPO4,0.0,-1.919917295068028,mp-541201,0,0.0
CeSi3N5,0.118999999999999,-1.489711484583334,mp-29466,0,0.0
AgBO2,1.2853,-1.8833510627864571,mp-559803,0,2.0
Te24As16,0.22685,,,0,0.0
CeSiIr2,0.0,-1.004984055624999,mp-1105540,0,0.0
Sm(AsO)2,0.0,-1.28684612,mp-1209675,0,0.0
ErPaTc2,0.0,-0.21812609083333,mp-863734,0,0.0
Na8Y2Hf2Si5SO24,3.8485,-3.020531121393678,mp-2715760,0,6.0
Ho2Ni12As7,0.0,-0.5284165896428571,mp-1191795,0,0.0
CdAg3,0.0,-0.046257173749996,mp-1183647,0,0.0
Al2NiOs,0.0,-0.607955297499998,mp-1183155,0,0.0
YbGaNi,0.0,-0.7101070191666661,mp-1095431,0,0.0
CuSeS,0.0,0.000532578340279,mp-1225747,0,0.0
Hg(Mo3S4)2,0.0,-0.886053220833333,mp-35860,0,0.0
Sb2SN2O5F6,0.0,-0.8921679140625001,mp-1209560,0,0.0
KRb(SO4)2,0.011299999999999,-1.863043650395832,mp-1211652,0,0.0
HoTe2ClO5,2.9145000000000003,-2.246676288703702,mp-558875,0,4.0
UCl2O15,0.189199999999999,-0.463287495138888,mp-1204022,0,0.0
ThMn2Ni3,0.0,-0.22276005097701,mp-1217327,0,0.0
Ta(NiTe)2,0.0,-0.5362470501333321,mp-28667,0,0.0
Nb(NF4)3,0.0,-0.8448126740625,mp-1210548,0,0.0
CsGeBr3,0.7856000000000001,-1.446721973931033,mp-1068340,0,1.0
Tc2F12Na4,1.774321,,,0,2.0
Na2Te2O7,0.7191000000000001,-1.681452471462903,mp-20254,0,1.0
ZnOs,0.0,0.179514875000005,mp-1187910,0,0.0
GdPaTc2,0.0,-0.067188080000001,mp-1184505,0,0.0
Ho2As7Rh12,0.0,-0.6831535377380941,mp-1224190,0,0.0
BaN6O,0.022899999999999,0.037338124999998,mp-1182281,0,0.0
BaGe4(RhS3)2,1.4674,-0.978727853846152,mp-1194551,0,2.0
OsBrN5Cl2O,0.0,1.353893674499999,mp-1078848,0,0.0
Sr(NiGe)2,0.0,-0.50936324,mp-3207,0,0.0
GdAg,0.0,-0.247884267499991,mp-542779,0,0.0
CsAuN12,1.4864,0.448506887053566,mp-568861,0,2.0
Pd1K2S2,1.047882,,,0,1.0
K3Lu(SiO3)3,3.4819,-3.122942266151042,mp-653861,0,5.0
Na2ScSiO5,0.0,-2.835659041834292,mp-1194817,0,0.0
Ba3Sn2O7,1.820699999999999,-2.668888976666666,mp-770846,0,2.0
K2AsAuI6,0.0,-0.8351918832,mp-1112432,0,0.0
KSm,0.0,0.469136570999999,mp-1185056,0,0.0
Th3Pb,0.0,-0.225155104999984,mp-1187049,0,0.0
CaGd2Zr(GaO3)4,3.255599999999999,-3.07568079925,mp-686296,0,5.0
MgAu,0.0,-0.591989967499998,mp-437,0,0.0
Nd2Ni7,0.0,-0.307100926666665,mp-1190187,0,0.0
Tl6Sb2S8,1.329326,,,0,2.0
Th2P2S,0.0,-0.072520257252949,mp-1207155,0,0.0
YbGaRh2,0.0,-0.976825936250001,mp-865757,0,0.0
NaH4IO7,0.9986,-0.93236256433687,mp-1220998,0,1.0
Mg2Ga3WS8,0.0,-0.990714622321427,mp-1247139,0,0.0
HgN,0.0,1.415452025,mp-973674,0,0.0
CrH18I7N6,1.421199999999999,-0.555748303671874,mp-758907,0,2.0
ZrTe2Br5,1.1062,-1.267670202291665,mp-28671,0,1.0
GdVB4,0.0,-0.677755479444443,mp-1191160,0,0.0
CsThO3,0.0,-2.963829882931033,mp-1183997,0,0.0
Ca2SiS4,3.1115,-1.7529088494642862,mp-1194033,0,4.0
HfMg14BO16,2.9669,-2.749247124661457,mp-1033686,0,4.0
AlGaCu2(SeS)2,0.7461000000000001,-0.736743179843749,mp-1229038,0,1.0
Ac2ZnSn,0.0,-0.491821567499997,mp-1183061,0,0.0
Nb3O2F5,0.676299999999999,-2.88384777925,mp-760226,0,1.0
Pb2S2,1.07445,,,0,1.0
Ba4Bi4O10,1.7473800000000002,,,0,2.0
Sr3Y(BO3)3,4.4109,-3.32911240484375,mp-17025,0,7.0
RbAlSiO4,4.3806,-3.185218679642857,mp-6434,0,6.0
Ho3(AlNi3)2,0.0,-0.5738117627272711,mp-30791,0,0.0
Na2PSe3,1.7908000000000002,-0.850967542943948,mp-567228,0,2.0
In4I12,2.211396,,,0,3.0
Pr2Ge5Rh3,0.0,-0.813258272333332,mp-975634,0,0.0
Dy(MnAl2)4,0.0,-0.34159764026083,mp-1104103,0,0.0
HfTc2W,0.0,-0.394319512499997,mp-866114,0,0.0
Cs3Na2SnP3,1.027,-0.370968194516967,mp-17707,0,1.0
Na2TlAsF6,2.0624,-2.228802435250003,mp-1111404,0,3.0
SrMg4,0.0,-0.02593932031349,mp-567526,0,0.0
H3Os4C12ClO12,2.5882,-0.8908684823046871,mp-707931,0,4.0
CaCu3(PtO3)4,0.0,-1.146631897,mp-1106325,0,0.0
NdCuO2,2.411499999999999,-2.610852319374999,mp-4886,0,3.0
TcC5ClO5,2.6834,-1.083303329583335,mp-1199462,0,4.0
Rb2Na2Al3(SiO4)3,0.0,-2.975448708079936,mp-1209704,0,0.0
CdRh3F6,0.0,-1.005435717000003,mp-1215109,0,0.0
Ho2S2F,0.0,-1.178342042791638,mp-1207264,0,0.0
Ce3SiPt5,0.0,-1.10005256222222,mp-569913,0,0.0
Lu2B6Ru,0.0,-0.739539045925924,mp-1201540,0,0.0
MgH6(CO3)2,4.8995,-1.507202240166667,mp-542785,0,7.0
Al2N2,3.406647,,,0,5.0
Ag16Sn2Se12,0.0,,,0,0.0
Ca4Pb4O12,0.954979,,,0,1.0
Ho6Zn23,0.0,-0.309025495517242,mp-1192847,0,0.0
Rb4Mn6Se8,2.328549,,,0,3.0
Ba2MgBiSbO6,0.9859,-2.310331183181818,mp-2239985,0,1.0
CaTiAsO5,1.7906,-2.821140971041666,mp-1359041,0,2.0
Pr2TeO2,1.655599999999999,-3.215270251999999,mp-16032,0,2.0
La5Rh4,0.0,-0.6939602611111111,mp-1197877,0,0.0
Ce2Sr4O8,2.648256,,,0,4.0
Cs2TlHgCl6,0.0,-1.593100511514369,mp-1113292,0,0.0
Mn3Fe,0.0,0.118937151551723,mp-999545,0,0.0