formula,bg,formation_energy,mp-id,fidelity,bg_category
Cs2KSbCl6,3.393,-1.9321687676560344,mp-1111873,0,5.0
Rh3F,0.0,0.125933554999996,mp-974386,0,0.0
NdUCo10,0.0,0.010730975193515,mp-1220445,0,0.0
Ba4HfO6,3.1648,-3.213950358181818,mp-756014,0,5.0
H6PbCNF3,4.1192,-1.153155378333333,mp-1097019,0,6.0
HgC4NCl3,0.6603,0.530577478807866,mp-1196399,0,1.0
Yb3Se4,0.0,-2.115639631607142,mp-1215699,0,0.0
K15Si92,0.0,0.023120777762849,mp-1224497,0,0.0
RbSbN2,1.2125,0.093334649843749,mp-1247223,0,1.0
LiMgSnAu,0.0,-0.400730428333332,mp-7554,0,0.0
Si2Ru,0.407,-0.561740338333334,mp-569815,0,0.0
GdTl,0.0,-0.443171955000003,mp-19966,0,0.0
Np2Si3,0.0,-0.291837180325001,mp-1220075,0,0.0
Dy4FeSe7,0.1685,-1.781873074422742,mp-1225442,0,0.0
Mg2GaHg,0.068499999999999,1.083407887499998,mp-1096317,0,0.0
Eu2Cu(GeO3)4,0.1997,-2.283422741578948,mp-1213059,0,0.0
Ho3Te3N,1.136199999999999,-1.7787396112500011,mp-1192541,0,1.0
Ba6Na2Si4O15,4.4294,-3.216130917879948,mp-560889,0,7.0
Ta3(CrSi)8,0.0,-0.29828410902632,mp-1200627,0,0.0
Ce2Ta3(SeO4)2,0.0,-3.124354192112499,mp-1214188,0,0.0
Sc(VSi)5,0.0,-0.6262879798538961,mp-1219499,0,0.0
Cu2PO4F,0.0,-1.858791852142857,mp-504476,0,0.0
Mg6FeCu,0.0,0.17996332625,mp-1022464,0,0.0
KEuZr2O6,0.0,-3.242493447225001,mp-1522904,0,0.0
MoWN3,0.0,-0.160692939999999,mp-1247512,0,0.0
Nd(HoS2)3,1.0278,-2.398549836937499,mp-1189307,0,1.0
CaSb3P3O13,2.2614,-2.41911582344643,mp-1041203,0,3.0
K3B12H12I,4.6690000000000005,-0.454466500419641,mp-24240,0,7.0
Sr2RuO6,0.3993,-1.435414065,mp-675618,0,0.0
Li3OsN2,0.637799999999999,-0.21481733625,mp-1245764,0,1.0
CrMo2N3,0.0,-0.210607339166666,mp-1245955,0,0.0
I30Pb15,0.807466,,,0,1.0
LiMg6BO7,2.3826,-2.435273040499999,mp-1031116,0,3.0
TlPt2Se3,0.461999999999999,-0.5280740395312521,mp-541487,0,0.0
Tm3Pt,0.0,-0.823955138750001,mp-1189442,0,0.0
K12Mg2O8,1.612915,,,0,2.0
Zn6V4O16,2.970852,,,0,4.0
SmSi2Ru3,0.0,-0.70731269333333,mp-1206515,0,0.0
K3SbS3,2.6955,-1.151684633526786,mp-1194266,0,4.0
La1Al1H6,2.4748319999999993,,,0,3.0
Tb2Si5Os3,0.0,-0.8061094989999951,mp-542754,0,0.0
TiMnAs,0.0,-0.6500703595881221,mp-1205741,0,0.0
Mg149Bi,0.2936,0.002534944966667,mp-1185557,0,0.0
Ni10(WC)3,0.0,0.169160804140624,mp-1198477,0,0.0
SmB2Rh2C,0.0,-0.5890774480555571,mp-567077,0,0.0
Al2Ga(PO4)3,0.0,-2.932562292857142,mp-1228998,0,0.0
Er2S3O20,0.0,-1.151398204099999,mp-1197221,0,0.0
Ho2OsPd,0.0,-0.632210927421866,mp-863729,0,0.0
BaH2(SO4)2,5.7691,-2.074808110192307,mp-703568,0,7.0
Ca7Au3,0.0,-0.591584341225001,mp-30369,0,0.0
Ca3(BN2)2,2.4714,-1.384212677962963,mp-1227905,0,3.0
MgBi4O9,1.104299999999999,-1.647599028214287,mp-1041365,0,1.0
GaSi6BiH54C18(NCl)4,1.3898,-0.273621851193182,mp-1198245,0,2.0
Dy(BC)2,0.0,-0.5456053069999991,mp-2958,0,0.0
Cr1O2,0.0,,,0,0.0
Ba4OF6,3.8362,-3.90523325090909,mp-754354,0,6.0
UBC,0.0,-0.5448871858333321,mp-5816,0,0.0
Na2Cu2Zr2S6,0.726194,,,0,1.0
Cs2Sn1Br6,1.39693,,,0,2.0
HoInRh,0.0,-0.745243544999997,mp-11104,0,0.0
Na6Ca5NbP3(SO6)6,2.1697,-2.585222888547446,mp-2713386,0,3.0
Na2Y4SiS5O24,3.1185,-2.708358938340518,mp-2714548,0,4.0
U(CrC)4,0.0,-0.167591263333335,mp-2971,0,0.0
La8Cu3O16,0.0,-3.058845543703703,mp-1178189,0,0.0
TiB4Mo,0.0,-0.7140219827777751,mp-1217026,0,0.0
Sr2CaSn5,0.0,-0.5458275712499999,mp-1218852,0,0.0
AlSbO3,3.9107,-2.527291851499999,mp-1261047,0,6.0
HoAl3Ni2,0.0,-0.651546777499998,mp-1212127,0,0.0
Cs2InAuF6,0.6895,-2.409391365000002,mp-1112611,0,1.0
LiMo6(SeS3)2,0.0,-0.968412870201388,mp-1222346,0,0.0
KRbO3,0.0,-0.331069649949999,mp-1184957,0,0.0
BiNF4,2.7898,-1.4820958891666671,mp-734390,0,4.0
Sc2CuRh,0.0,-0.638488027499999,mp-1186958,0,0.0
ZrMnGa,0.0,-0.357363590143677,mp-1216045,0,0.0
Cs2Li2B2P4O15,5.601,-2.756388813915271,mp-1019606,0,7.0
PrGa2Co3,0.0,-0.376570845000003,mp-1179854,0,0.0
Pm2AgOs,0.0,-0.191615904999999,mp-1186439,0,0.0
SrGaSnH,0.415099999999999,-0.489479390937499,mp-978852,0,0.0
Mg30BSbO32,2.2125999999999992,-2.8167938124869782,mp-1038429,0,3.0
HfMg6Zn,0.0,0.093794055,mp-1022590,0,0.0
Hg2PCl2,1.4683,-0.467817223666659,mp-29679,0,2.0
Sb2F12Br2O4,2.116767,,,0,3.0
Mn4Sr6O14,0.487513,,,0,0.0
Cs1Br2F1,1.724457,,,0,2.0
BaLi2Ti6O14,2.9428,-3.392609160507246,mp-558083,0,4.0
MgGaBO4,3.112,-2.745339111666666,mp-1210623,0,4.0
YO3,0.194799999999999,-2.0104380375,mp-1206099,0,0.0
Sr2ScIrO6,0.0,-2.806069953499994,mp-10301,0,0.0
GdHfF7,4.4446,-4.221664682777777,mp-1212387,0,7.0
Ba3Te2O9,2.381599999999999,-2.3881671898809542,mp-17009,0,3.0
Y2Se3,1.315799999999999,-2.1991457209375,mp-1105821,0,2.0
Y3Mg(PO4)3,1.3281,-3.142876635206766,mp-1233278,0,2.0
Co2B4Mo,0.0,-0.349874744285715,mp-10055,0,0.0
Sb14K6S6O18,1.804977,,,0,2.0
CuS2(NO4)2,0.0,-0.36220152576923,mp-1213485,0,0.0
Cs5Si3AgO9,2.821499999999999,-2.501421636385697,mp-554842,0,4.0
DyAl7Fe5,0.0,-0.395691109358973,mp-1225357,0,0.0
Tm5Pt4,0.0,-1.331379809166662,mp-1199106,0,0.0
Ba2MoN3,0.0,-0.955018352916667,mp-1247251,0,0.0
PuAsO4,0.059999999999999,-2.444841808541664,mp-1209622,0,0.0
Na2TiSi2SnSO12,2.5382,-2.621801675803087,mp-2712715,0,4.0
CaAlSiHO5,5.2447,-3.085990001805555,mp-24402,0,7.0
NaLiSi2H4O7,4.8696,-2.275643727647508,mp-1192726,0,7.0
GaCo2N3,0.0,0.315570972291668,mp-1245644,0,0.0
K3Mo,0.0,1.16626064275,mp-1184863,0,0.0
MnPd3,0.0,-0.228938158232756,mp-31138,0,0.0
K3Cu11Te16,0.0815,-0.448675202613887,mp-569136,0,0.0
Ce3SiCl5O4,0.031399999999999,-3.118285181346153,mp-1229323,0,0.0
Er3FeB7,0.0,-0.638584478106059,mp-1190715,0,0.0
Li7Sn2,0.0,-0.37388265648148,mp-30767,0,0.0
Ga(Ni3B2)4,0.0,-0.290721410674602,mp-1213377,0,0.0
CrAu4,0.0,-0.070824973999998,mp-1070789,0,0.0
K3YSi3O10,0.0,-2.8124983793676472,mp-737385,0,0.0
Ba3BN3,0.1975,-0.8218982091666661,mp-1246468,0,0.0
MgNb2(PS)2,0.0,-0.908705892755102,mp-2227705,0,0.0
BiBOF4,3.202499999999999,-2.71463632702381,mp-1147533,0,5.0
Ba4Br2P14,1.600502,,,0,2.0
CaTaNO2,1.6554000000000002,-2.750553648966665,mp-556340,0,2.0
K8Zr6MnBr20,0.1425,-1.8032897581694591,mp-1212020,0,0.0
La(AlSi)2,0.0,-0.462766530999999,mp-1206998,0,0.0
Sr2CaI6,3.9625999999999992,-1.917714192222222,mp-756238,0,6.0
Rb2Ti(AgS2)2,1.5994000000000002,-1.207925935740739,mp-1209316,0,2.0
CsP(OF)2,5.1874,-2.889113884883004,mp-1193041,0,7.0
N12S10,2.049545,,,0,3.0
Sm3AlNi8,0.0,-0.417853062499999,mp-1191453,0,0.0
Li2CuN,0.323999999999999,-0.372926694776785,mp-1246596,0,0.0
Ge7O16,0.0,-1.6583465358695642,mp-731900,0,0.0
KSmS2,2.2759,-2.104493069312499,mp-15783,0,3.0
LiSm(PO3)4,6.0068,-2.927127276216931,mp-1199215,0,7.0
Gd(VFe5)2,0.0,-0.048079273076923,mp-1225910,0,0.0
Sr2Cu2Te(BrO3)2,0.009099999999999,-1.893765146666666,mp-555814,0,0.0
Gd10S19,0.445,-2.035244603911639,mp-646008,0,0.0
ReOsRu,0.0,0.687556893444442,mp-631354,0,0.0
K3(CuS)4,0.0,-0.8461715806136361,mp-1120730,0,0.0
F8,2.063564,,,0,3.0
Y4CdS7,1.186499999999999,-2.062261083541665,mp-1216108,0,1.0
Si2Fe4O8,2.566222,,,0,4.0
CsLiN2,0.0,1.013545607243772,mp-1206673,0,0.0
K1Cl1,5.040855,,,0,7.0
Rb3BiCl6,4.1433,-1.921167814249997,mp-1110734,0,6.0
Li3ScF6,6.6768,-3.602170455333333,mp-560890,0,7.0
Nd4MgNi,0.0,-0.151500287083329,mp-1210038,0,0.0
GdH3,0.0,-0.674504033645831,mp-505686,0,0.0
H16S(N3O5)2,3.3281,-0.877527829166666,mp-1201498,0,5.0
Ho2SeOF2,2.8657999999999992,-3.7330882806684,mp-1195358,0,4.0
BaLu2Si3O10,4.830500000000001,-3.632689089895833,mp-1194557,0,7.0
Cr(CN)3,0.0,0.194045828214284,mp-1246433,0,0.0
Bi4I4O16,2.365632,,,0,3.0
KMg14Ti,0.0,0.178614138713541,mp-1026658,0,0.0
Mg7Al22O40,3.5233,-3.348124007608695,mp-530826,0,5.0
LaLuTl2,0.0,-0.340379862083338,mp-1185069,0,0.0
Ce(NiSn)2,0.0,-0.500898182999999,mp-1078794,0,0.0
RhN2,0.0,0.116563699999995,mp-2831849,0,0.0
Y3Al,0.0,-0.181672055000003,mp-30338,0,0.0
Al2RhC4Cl7O4,2.0191,-1.413871529166667,mp-680477,0,3.0
Tm3CrS6,0.328,-2.009922509250001,mp-1208101,0,0.0
RbLa2Ti2NbO10,1.6672,-3.459167585885417,mp-1219633,0,2.0
Tl2MoCl6,0.0,-1.374365319629633,mp-29562,0,0.0
ZnFePb,0.0,0.7816588900000011,mp-631270,0,0.0
Cs2MgH4,3.931899999999999,-0.303352698115764,mp-644236,0,6.0
Lu3Ga9Pd2,0.0,-0.642696128367366,mp-1104225,0,0.0
Ga4Te3N2,1.296799999999999,-0.263218156944453,mp-1247260,0,2.0
K2Fe2Mo4O16,2.137863,,,0,3.0
Lu2(SO5)3,0.0,-1.709082496291666,mp-1204198,0,0.0
Ba2UPbO6,1.194599999999999,-3.040996817999999,mp-1080842,0,1.0
K5InPb8,0.0,-0.20637432663691,mp-571021,0,0.0
Ba8Sb4Ga4S20,2.155598,,,0,3.0
Sr2SeS,2.2889,-2.382859880468748,mp-1218707,0,3.0
LiHo2Rh,0.0,-0.493070855833329,mp-865954,0,0.0
MgAg4(GeO4)2,0.0,-1.313477109444443,mp-2228680,0,0.0
PrTlP2S7,2.4484999999999992,-1.067109250844155,mp-1194930,0,3.0
ZnH2C4(S3N2)2,2.3203,-0.178913012352941,mp-1207565,0,3.0
GdCo2,0.0,1.548743026666666,mp-542633,0,0.0
Na2B29,0.0,-0.024165642951613,mp-29953,0,0.0
Tc3Ir,0.0,-0.253854544999995,mp-862770,0,0.0
Gd3OsO7,0.1301,-3.144721616022726,mp-567291,0,0.0
La2(SO7)3,0.5061,-1.163904520480769,mp-1180833,0,0.0
Y2Al2Co15,0.0,-0.129681250526316,mp-1200452,0,0.0
KBrF4,3.2009,-1.973058777874999,mp-23550,0,5.0
Ho3InC,0.0,1.61326020666667,mp-10356,0,0.0
K2TbAuCl6,1.9175,-1.996172140116665,mp-1112060,0,3.0
Ba2UCu2Se5,0.0,-1.506168162171873,mp-1078441,0,0.0
SmHoO3,4.5947,-3.877823318999999,mp-755717,0,7.0
Na6Hf4Si7Ge4S5O48,2.233,-2.639186859762738,mp-2712872,0,3.0
Na2InPCO7,2.7683,-2.310784772005677,mp-767521,0,4.0
INO4,1.6941,-0.225704938333333,mp-1102791,0,2.0
La3OsI3,0.0,-1.229233897500006,mp-1211014,0,0.0
Sr2SnSe5,1.2442,-1.360317969570314,mp-568525,0,1.0
Cu(BrN3)2,0.0,1.784652179999999,mp-1181539,0,0.0
NaTl2Hg,0.0,0.7752148052083351,mp-1096090,0,0.0
Rb2AlInCl6,2.9942,-1.922781310166666,mp-1114076,0,4.0
Zr3N4,0.970499999999999,-1.852383193928572,mp-277,0,1.0
Se2O16H20,1.910113,,,0,3.0
Ba2Y1Nb1O6,2.875664,,,0,4.0
Zr2CuH5,0.0,-0.47619401828125,mp-1105830,0,0.0
NbCo3,0.0,-0.140504996249999,mp-977426,0,0.0
GdAs,0.0,-1.745141461249996,mp-510374,0,0.0
K2TlHgBr6,0.0,-1.289060817033334,mp-1112026,0,0.0
KPPdS4,1.477,-0.926457869913264,mp-866637,0,2.0
Al3FeSi2,0.0,-0.232199439583332,mp-505229,0,0.0
Mg14GaNi,0.0,0.01860453703125,mp-1099077,0,0.0
Ta2Te3,0.0,-0.606275635933332,mp-542634,0,0.0
HoMgCd2,0.0,-0.265760282499996,mp-1184816,0,0.0
BaEuTi4O12,0.0,-2.884442477685186,mp-1518538,0,0.0
NbBr4,0.8728,-1.326321304000006,mp-1080428,0,1.0
SrLuCuSe3,1.122699999999999,-1.764532271449653,mp-568191,0,1.0
LuTe3,0.0,-1.145172917916666,mp-1080689,0,0.0
KBa2As5,0.3124,-0.691431676427084,mp-675063,0,0.0
Na6Nb4In4Si7S5O48,1.8127,-2.5281204385465212,mp-2713003,0,2.0
Zn(H4N5)2,3.8777,-0.142391558421053,mp-1188715,0,6.0
K5Ta(TlAs2)2,1.5206,-0.4375199210625,mp-1211936,0,2.0
ZnPH3O5,4.3223,-1.902881223339286,mp-707311,0,6.0
Na14Mg5Zr3(PO4)12,3.9179999999999993,-2.875676281301114,mp-2714192,0,6.0
CaSb2S5,0.0,-0.747705203437499,mp-1361153,0,0.0
Cs2GdAuCl6,1.511099999999999,-1.911720818708337,mp-1112633,0,2.0
HoMn2,0.0,0.067629223955935,mp-1102759,0,0.0
K3Rh(NO2)6,0.0,0.747139625375,mp-20364,0,0.0
Al53Fe17Si12,0.0,-0.300293978902438,mp-1229054,0,0.0
KPH2SO3,4.5259,-1.831456460861606,mp-643033,0,7.0
MnNi2Ge,0.0,-0.223669968232758,mp-22029,0,0.0
Nb(NiP4)4,0.0,-0.313982312823127,mp-30541,0,0.0
NpSb3,0.0,-0.292754159687499,mp-977366,0,0.0
Yb3Lu,0.0,-0.011820044166668,mp-1187999,0,0.0
Hg3S3,1.569886,,,0,2.0
HoCuPb,0.0,-0.375390489999998,mp-16750,0,0.0
NdY3(Co4B)4,0.0,-0.256617432256944,mp-1220135,0,0.0
Er(ZnP)3,0.3703,-0.723462966037414,mp-1212805,0,0.0
Na2SrV4O12,2.8729999999999993,-2.535827691987297,mp-18975,0,4.0
Sc3As,0.0,-0.570887300624997,mp-1186963,0,0.0
Sm5Mg41,0.0,-0.018578645869565,mp-1201293,0,0.0
Nb3Sb2Te5,0.844599999999999,-0.644887052833331,mp-569571,0,1.0
Sm2CdS4,1.994,-1.8420556542857132,mp-35281,0,3.0
SrCd6,0.0,-0.16147538988095,mp-1219283,0,0.0
CaTe2O5,3.3756,-2.097978778541672,mp-5040,0,5.0
RbTa(CuSe2)2,1.7333,-0.986762766776041,mp-11925,0,2.0
InPd2,0.0,-0.5518911749999941,mp-22646,0,0.0
Gd5AgS8,1.140399999999999,-2.120556462261904,mp-676156,0,1.0
Lu4Ga12Pd,0.0,-0.5915148245098021,mp-1190231,0,0.0
ScAg(PSe3)2,1.6441,-0.805521450501487,mp-13383,0,2.0
Hg2SN2Cl4O3,2.7910999999999992,-0.133457688125001,mp-1191290,0,4.0
TiCu3,0.0,-0.092779899166666,mp-12546,0,0.0
H18RuC6S3N3ClO3,2.4583,-0.3328606975,mp-706304,0,3.0
RbSm3F10,6.906499999999999,-4.261201100178572,mp-1209116,0,7.0
MnFePd6,0.0,-0.181498782241378,mp-1221696,0,0.0
PuCNO5,0.2996,-1.512500301718748,mp-1189912,0,0.0
CaThBr6,2.0535,-2.204842008124998,mp-29015,0,3.0
Rb(SbSe2)2,1.1191,-0.767052543124999,mp-9798,0,1.0
VFe2Sn,0.0,0.002712658750001,mp-636359,0,0.0
Ce5Ge2Rh,0.0,-0.621520168124997,mp-542005,0,0.0
TlBO2,2.8659,-2.193856436875002,mp-28244,0,4.0
Tm5Ge3,0.0,-0.797719528125004,mp-1188310,0,0.0
Ti2CrCo,0.0,3.225185483020835,mp-1095821,0,0.0
YEr3,0.0,0.024628425000003,mp-1187847,0,0.0
Y2ZnSe4,0.239,-1.7675823984821422,mp-1001021,0,0.0
RbAlO2,3.3716,-2.861165701874999,mp-14070,0,5.0
Eu3P4,0.0,-1.202033099557821,mp-1105092,0,0.0
CsTiCuOF5,0.0,-2.927818403109834,mp-677489,0,0.0
H18AuN6Cl,3.594,-0.452121209903845,mp-1199528,0,5.0
MgVInS4,0.0,-1.149875586666666,mp-1247055,0,0.0
YbSc(BO3)2,0.0,-3.354262101750001,mp-1215572,0,0.0
NdTaO4,3.9439,-3.676533317472242,mp-3203,0,6.0
As2S5N4(OF6)2,0.5332,-1.1356111359,mp-1247820,0,0.0
Tb2(Ni2B)5,0.0,-0.459762255098038,mp-1201581,0,0.0
Nb2SiTe4,0.2534,-0.737800462023804,mp-29072,0,0.0
Ba(InTe2)2,0.9642,-1.017688293571426,mp-21183,0,1.0
Zr(MnAl)6,0.0,-0.269677162122015,mp-1215711,0,0.0
CaSi3SnO11,1.0011,-2.371948639218749,mp-1182049,0,1.0
KCu3S2,0.4727,-0.6254775112083331,mp-9868,0,0.0
Pr11Cd45,0.0,-0.319665135952374,mp-1204245,0,0.0
Nb4Cl24Na4,2.22515,,,0,3.0
Er2Zr8O19,2.4179,-3.769287183965517,mp-675556,0,3.0
KNa2RhF6,2.23,-2.414702676000861,mp-1111007,0,3.0
Ba2Zn,0.0,-0.144461570000001,mp-1018178,0,0.0
TbSiRh,0.0,-0.8299319072222211,mp-1239087,0,0.0
KMg30BO31,1.9818,-2.860800436212963,mp-1040287,0,3.0
PrN2,0.097299999999999,-0.830115587361114,mp-1219988,0,0.0
Au8Br24,0.841263,,,0,1.0
Tm4InRh,0.0,-0.569057211944449,mp-582278,0,0.0
Cs3Pr5(PS4)6,2.3179,-1.413561229346209,mp-1226429,0,3.0
La3SnN,0.0,-1.172514944749997,mp-1206994,0,0.0
Ta3Ru2,0.0,-0.309936508400005,mp-1218044,0,0.0
BeIn3,0.0,0.461126501250001,mp-984776,0,0.0
KSrTbSbO6,0.0,-2.657941577141668,mp-1522221,0,0.0
La(Al10V)2,0.0,-0.212273896086956,mp-1195666,0,0.0
Bi4I,0.0,-0.161865844000005,mp-583234,0,0.0
Na6Ca3HfSi2(SO6)4,3.1606,-2.62039602579023,mp-2712735,0,5.0
Na2PH11O8,5.2623,-1.539804417779612,mp-720570,0,7.0
Ba2UTiO6,0.0,-3.508536928333332,mp-1205557,0,0.0
VCoTe,0.0,-0.153596478888889,mp-1008631,0,0.0
NpGe3,0.0,-0.2582524046875,mp-20365,0,0.0
Na5P3(H3O4)4,4.4239,-1.932333497245142,mp-703521,0,7.0
DyTmRh2,0.0,-0.917271470416666,mp-1184158,0,0.0
Ca7NbSi4O17F,3.5509,-3.479967510333332,mp-542863,0,5.0
Pb4O18P2N4H2,3.344924,,,0,5.0
Na2SnBAsO7,1.311899999999999,-2.132936059952106,mp-772625,0,2.0
Zr2Fe,0.0,-0.139135274999998,mp-1159,0,0.0
Zr3(VNi2)2,0.0,-0.290436861111111,mp-1216016,0,0.0
Pb2V4O12,2.192460999999999,,,0,3.0
Ca2InPd2,0.0,-0.7601758499999981,mp-20792,0,0.0
Sm31(CuSe16)3,0.7063,-2.041381366432899,mp-1173540,0,1.0
Rb2MgH12(SeO7)2,3.9236,-1.527070554506048,mp-780006,0,6.0
ZrCuSi,0.0,-0.644550211666667,mp-22522,0,0.0
LiCuC2O5,1.3792,-1.618273540370371,mp-757669,0,2.0
Te2Ta2Cl18,2.498107,,,0,3.0
Na9Ta5Zn(SiO4)9,3.2198,-2.997144487693008,mp-2715393,0,5.0
BaYb3,0.0,0.2704118475,mp-1183433,0,0.0
SrCaI4,3.8007,-1.929449283333333,mp-1101340,0,6.0
UVC2,0.0,-0.491736871875001,mp-7810,0,0.0
EuTi4SnO12,0.0,-2.971287507962963,mp-1519079,0,0.0
NaPrSe2,1.7927,-1.952799964947917,mp-999461,0,2.0
Tm(BIr)4,0.0,-0.510415907962962,mp-1178924,0,0.0
SiPtSe,0.787899999999999,-0.7361546121875001,mp-1103261,0,1.0
NaSr3LaTi5O15,1.8593,-3.501803329321839,mp-40830,0,2.0
LiTiPd2,0.0,-0.523111463333332,mp-1185238,0,0.0
SrRuO3,0.0,-2.190611637000002,mp-22390,0,0.0
ScCuSe2,0.6646000000000001,-1.2877515370312491,mp-1219343,0,1.0
Ba2CaReO6,0.0,-2.915715638250001,mp-12417,0,0.0
ScAl,0.0,-0.466177762500001,mp-331,0,0.0
Mo2W(SeS2)2,0.7707,-0.82459298381945,mp-1026023,0,1.0
PuN2O11,0.0,-0.9635119563392852,mp-1194776,0,0.0
Te4Mo3,0.0,-0.302481884285713,mp-8601,0,0.0
Ti45Se16,0.0,-0.7790107801229511,mp-680260,0,0.0
Ca4Se12P4,0.0,,,0,0.0
Ti4FeBi2,0.0,-0.288368466190479,mp-570271,0,0.0
YBr3O8,0.2563,-0.5880401968749991,mp-1178757,0,0.0
Ca2P2O7,5.734199999999999,-3.213395772435064,mp-17922,0,7.0
Nd2CdAg,0.0,-0.267133861666663,mp-1186236,0,0.0
Dy5Si3,0.0,-0.776258386874999,mp-2836,0,0.0
Nd4Ni,0.0,0.218723821000001,mp-1210201,0,0.0
HfTlCdF7,4.9416,-3.213438970500001,mp-1212147,0,7.0
CrGa7P8,0.0,-0.381954031488094,mp-1106199,0,0.0
ZnCu2Ge(SeS)2,0.2317,-0.6451603524609371,mp-1215417,0,0.0
BaB2H2O5,4.7844,-2.554731680083334,mp-757727,0,7.0
Se12P16I8,1.920645,,,0,3.0
Cs2Zr7CI18,0.1184,-1.310087956582515,mp-571150,0,0.0
Mg5Te,0.0,-0.13286517861111,mp-1185828,0,0.0
LaAgO3,0.0,-2.088594065333333,mp-768308,0,0.0
Cs2Sn(HO2)6,2.5642,-1.144847741514778,mp-1193049,0,4.0
K2IO9,0.0,-0.514713620791667,mp-1192976,0,0.0
Ba3FeS5,0.0,-1.761802130555554,mp-630328,0,0.0
Ag4Si2Zn2S8,1.790905,,,0,2.0
Co6WN4,0.0,0.063765034715906,mp-1247444,0,0.0
Na18Ca16Ta8Si9(S3O16)9,1.2085,-2.549731584531506,mp-2713722,0,1.0
EuBPd3,0.0,-0.514773107499996,mp-20040,0,0.0
GdC2,0.0,-0.304990589999998,mp-12765,0,0.0
Lu2AlSi2,0.0,-0.7379644066666621,mp-10531,0,0.0
IrS2Cl3O7,0.2995,-1.244022330384615,mp-1194026,0,0.0
CsTbSiS4,2.8851999999999993,-1.725227939117404,mp-1194142,0,4.0
Sc5Si4,0.0,-0.7896566341666661,mp-1209086,0,0.0
Na3Sr4Nd3Ti10O30,1.964,-3.458237928599425,mp-686697,0,3.0
La7Pt3,0.0,-0.8605668244999941,mp-1189501,0,0.0
Cs3TlCl6,2.5305,-1.828544490229886,mp-1112344,0,4.0
Na2USiO6,1.927899999999999,-3.06451681890086,mp-560004,0,3.0
Si3As(H3C)9,3.3859,-0.222364601223216,mp-1197341,0,5.0
P4PtF12,4.9313,-2.432313209523809,mp-555863,0,7.0
I2O20S2H14,2.462304,,,0,3.0
PmBiAu2,0.0,-0.6515261356249981,mp-862879,0,0.0
AcMgTl2,0.0,-0.242557518541673,mp-861735,0,0.0
Ge3NO6,2.8743,-1.320995948124999,mp-1212692,0,4.0
NaNb2Ga2P5SO24,2.4629,-2.627674404202675,mp-2716123,0,3.0
GdBC,0.0,-0.089460396388818,mp-1071879,0,0.0
Gd(NiSb)2,0.0,-0.620959411999999,mp-569296,0,0.0
NaH6CSNO3,2.9697,-1.053074003567639,mp-1199991,0,4.0
CaSb4H6(SO8)2,3.5227,-1.814621188534481,mp-1196948,0,5.0
SbXe2OF15,1.2557,-1.280297388947368,mp-554896,0,2.0
Pb7(BrO4)2,1.1437,-1.298132812058822,mp-1199533,0,1.0
Ga3Ge,0.0,0.087421188125,mp-973875,0,0.0
Ho2P4O13,5.6319,-3.168548099135339,mp-779637,0,7.0
Li6N4H6,2.070323,,,0,3.0
Fe4K4Na8O12,2.667392,,,0,4.0
CsCu(BiS2)2,0.6050999999999991,-0.623689597239607,mp-558907,0,0.0
GdInPd,0.0,-0.8076951644444421,mp-20224,0,0.0
DyAlB14,0.0,-0.178038491178666,mp-1201129,0,0.0
CdH6(CO3)2,4.6025,-1.273617408333333,mp-24749,0,7.0
Na5(InTe3)2,1.003699999999999,-0.8847859379022971,mp-505045,0,1.0
Mn3B4,0.0,-0.445066131921182,mp-10118,0,0.0
Na3Zr3AlSi3(SO8)3,3.6371,-2.8189391956748993,mp-2714766,0,5.0
BiXeF9,1.9598,-1.549742650000001,mp-555132,0,3.0
Mg14NbSb,0.0,0.041361974375,mp-1026520,0,0.0
Zr21S8,0.0,-0.954136957931035,mp-1193856,0,0.0
Ce4(Si3Rh)3,0.0,-0.79171800625,mp-1226886,0,0.0
Pt1Ni1F6,2.083629,,,0,3.0
Si2BPH28C9,5.16,-0.21216578684024,mp-1199409,0,7.0
Al12Re,0.0,-0.151872914807689,mp-1648,0,0.0
KLaYBiO6,1.7059000000000002,-2.674490460975,mp-1519780,0,2.0
SmH3(CO2)3,3.8052,-1.754727922596153,mp-23771,0,6.0
NaTi5O10,0.0,-3.359500017690374,mp-760024,0,0.0
ZnCr2(SeS)2,0.0,-0.9414984092410712,mp-1215673,0,0.0
Ta2CuO6,0.197899999999999,-2.774847067601851,mp-530850,0,0.0
LiErTlO2,0.0,-2.443245007333334,mp-1236123,0,0.0
CeNiSn,0.0,-0.590188871666665,mp-21119,0,0.0
Y3Si3O11,0.184899999999999,-3.49149591117647,mp-727913,0,0.0
Li2InSi,0.0,-0.034526865833333,mp-1222655,0,0.0
InAgP2O7,2.4499,-2.273233377056276,mp-1204248,0,3.0
LiInRh2,0.0,-0.343516731666667,mp-862775,0,0.0
Yb2PbAu2,0.0,-0.8761785269999961,mp-1205295,0,0.0
Ba2MgCuTeO6,0.0,-2.134559377424241,mp-2218048,0,0.0
YbTlPd,0.0,-0.7129836205555571,mp-11548,0,0.0
Cs2KTbCl6,5.0878,-2.514091067322701,mp-580631,0,7.0
Na3CaHf3P5SO24,4.2491,-3.0431665586897,mp-2715950,0,6.0
TaCr3(CuS4)2,0.1422,-0.997331535880951,mp-1239167,0,0.0
Mg2Be3(NF6)2,0.0,-2.332433575263158,mp-1211021,0,0.0
Re3Br8Cl,0.9143,-0.821896765625002,mp-1219236,0,1.0
Ba3Dy,0.0,0.228939094583334,mp-1183385,0,0.0
KNd,0.0,0.438822569750001,mp-1185036,0,0.0
CdSbS2Cl,1.6373000000000002,-0.679851513374998,mp-557049,0,2.0