formula,bg,formation_energy,mp-id,fidelity,bg_category
Pm2SnAu,0.0,-0.8121548862499991,mp-865467,0,0.0
KAu(Cl2O)2,0.6744999999999991,-0.406802799343749,mp-1212182,0,1.0
MgZn4(SnO2)4,0.0,-1.633105410294116,mp-1234474,0,0.0
Ni4Se8,0.5514060000000001,,,0,0.0
Cs1Fe1Mo2O8,2.237111999999999,,,0,3.0
Ni6P4Na4O20H4,4.154635000000001,,,0,6.0
Na10Ca4In4Si3(S3O16)3,0.0,-2.331577764119142,mp-2714913,0,0.0
Hg2V2O6,2.063095,,,0,3.0
HPtN5Cl4,0.100099999999999,1.304876657613636,mp-1212694,0,0.0
Tl2SiSe3,1.682799999999999,-0.7155503406163201,mp-14241,0,2.0
CaCdSi,0.0,-0.084177969999998,mp-962078,0,0.0
RbAgSe4,1.1614,-0.6960230001736081,mp-18585,0,1.0
Tl3Cl,0.0,-0.464927350000005,mp-983458,0,0.0
Ba6Tl2NCl,0.0,-0.7124858671666681,mp-989542,0,0.0
AlPPt5,0.0,-0.6679614925680291,mp-1025271,0,0.0
Na14Zr4Si11Sn4SO48,3.454299999999999,-2.815384897115574,mp-2714326,0,5.0
La2Cd2O5,1.3022,-2.671380542500001,mp-770847,0,2.0
K2Cr2V4O14,2.110402,,,0,3.0
K2PtCl6,1.8566,-1.37339736361111,mp-23513,0,2.0
CaInO3,0.0,-1.978930112333332,mp-1183543,0,0.0
Er2Se3,0.7923,-2.173853193270832,mp-209,0,1.0
BeVRu2,0.0,-0.351394493749999,mp-867874,0,0.0
Ca3Si4(AgO7)2,0.7307,-2.698132041666666,mp-1248597,0,1.0
CuIrBr,0.0,1.000008725,mp-631427,0,0.0
CdH4(C2O3)2,2.6837,-1.09622443011111,mp-1182013,0,4.0
MgH12(NO6)2,3.5293,-1.306570752962962,mp-734042,0,5.0
RbNb2PSe10,0.912999999999999,-0.9168557968271672,mp-1192452,0,1.0
Sr2CdAg,0.0,0.978993092083334,mp-1096465,0,0.0
K2Cu(IF)2,0.0,-1.6640639249285711,mp-1147659,0,0.0
Li2Pt,0.0,-0.5886431711111111,mp-2170,0,0.0
Tm2CdGe2,0.0,-0.669781885000004,mp-1079644,0,0.0
KIrNCl5O2,0.3791,-0.846080050725,mp-1195936,0,0.0
V2N,0.0,-1.082968217361111,mp-33090,0,0.0
CeDyC4,0.0,-0.30455732213889,mp-1226616,0,0.0
Tb3Ir2,0.0,-0.7795576137142841,mp-1198700,0,0.0
Li2CrFeAs2,0.0,-0.280551903611111,mp-1222681,0,0.0
KB5(H2O3)4,5.804,-2.125727549733974,mp-706621,0,7.0
Ga31Mo6,0.0,-0.135912226148648,mp-1203833,0,0.0
PuF3,0.0,-4.190149390937499,mp-8033,0,0.0
LaTl(PS3)2,2.4808,-1.143025320511904,mp-1195614,0,3.0
Mg(Mo3Se4)2,0.0,-0.8331080485833331,mp-675833,0,0.0
Na2NbInSi(PO6)2,2.1667,-2.704794140546194,mp-2712807,0,3.0
Mg149S,0.157899999999999,-0.001504465016665,mp-1185578,0,0.0
Ba2CuGe2O7,0.196299999999999,-2.384455024999999,mp-22067,0,0.0
CaGaBiB2O7,3.6637,-2.653597008402777,mp-1227107,0,5.0
C6BrF4,3.5625,-0.7661679122727281,mp-1214333,0,5.0
Lu2CdOs,0.0,-0.277363333333331,mp-1185459,0,0.0
ZnH18Ru2Br7N6,0.5347000000000001,-0.644228837279412,mp-707342,0,0.0
K6NbAs3O,1.0969,-0.8344472975909081,mp-561202,0,1.0
Na5Y4P5SO24,4.6177,-3.01993603053703,mp-2714931,0,7.0
Na4CaHf3Si3(SO8)3,2.987599999999999,-2.854536444421507,mp-2713219,0,4.0
Zr6Cl17Ba2B1,1.076435,,,0,1.0
K2RhAuF6,0.7098,-2.064346536449999,mp-1112258,0,1.0
GdSClO4,1.9163,-2.623044390714286,mp-558122,0,3.0
Ce(SiAg)2,0.0,-0.363825308666665,mp-5605,0,0.0
ZrP2N4(O4F)2,0.4147,-1.188624043487395,mp-1189360,0,0.0
CsZnN,1.069799999999999,0.010458438654211,mp-1247210,0,1.0
Zr2Au,0.0,-0.468447070000001,mp-2348,0,0.0
Cs2Pd3Se4,0.986699999999999,-0.8634484318055541,mp-11694,0,1.0
Y6Ag(GeS7)2,0.0,-1.704682671594201,mp-1216221,0,0.0
Y3TlC,0.0,-0.461531047666666,mp-9960,0,0.0
Ba2As4O12,2.741414,,,0,4.0
Te2AsS4N4(ClF2)3,0.7743,-0.8709847382916671,mp-695699,0,1.0
Er2S2O,2.6476,-2.974195047499999,mp-8762,0,4.0
Lu(CoB)4,0.0,-0.5160989875925921,mp-1189538,0,0.0
I6Si2,2.848816,,,0,4.0
TmCuPbS3,1.5547,-1.34976200125,mp-1216911,0,2.0
Ir3Os,0.0,0.021401844999999,mp-1184761,0,0.0
U(ClO)2,1.7799,-2.8901927329999952,mp-23013,0,2.0
KUH3SO8,2.165499999999999,-2.275513088107142,mp-1204032,0,3.0
Ba(ZnSb)2,0.0,-0.6088550874999981,mp-14207,0,0.0
Cu16P8O32,0.087474,,,0,0.0
Tm3(Al3Os)4,0.0,-0.67658443,mp-1207816,0,0.0
F2N2,0.901458,,,0,1.0
Pr3Y,0.0,0.044607141250001,mp-1186735,0,0.0
CsGa(SO4)2,4.001,-2.040740989346263,mp-1213179,0,6.0
Eu(ReO4)2,0.2764,-2.5257097918181812,mp-2929310,0,0.0
Pr3(P3Pd10)2,0.0,-0.6911855104433551,mp-1209430,0,0.0
Zn(CO2)2,3.2028,-1.621088253571429,mp-559437,0,5.0
RbSmI3,0.0,-1.5179301745,mp-1206676,0,0.0
Lu(BiO2)3,2.0936,-2.224196386666668,mp-754693,0,3.0
Sr2NbSnO6,0.0,-2.809514884500001,mp-1521167,0,0.0
Tl4Te2I12,1.576693,,,0,2.0
Er3P4Pd7,0.0,-0.9912715206122432,mp-9149,0,0.0
YbPPd,0.0,-1.38075188515873,mp-1207514,0,0.0
LiCaGaN2,2.1319,-0.840424472166667,mp-570948,0,3.0
La2MgSi2,0.0,-0.6301950070000011,mp-1205762,0,0.0
Ho2NiSb4,0.0,-0.821739819999998,mp-1223952,0,0.0
TaCoGe,0.0,-0.411111859111112,mp-1095502,0,0.0
Li2InIr,0.0,-0.345496073333333,mp-31443,0,0.0
Li2PmGa,0.163499999999999,-0.334400625208333,mp-983460,0,0.0
Na2Mn2Se3,0.0,-1.13380760445043,mp-29745,0,0.0
VAu2,0.0,-0.052279986666661,mp-30423,0,0.0
ScCu2Ag,0.0295,1.873572642916665,mp-1093709,0,0.0
ErMgAg2,0.0,-0.295765719583332,mp-1184233,0,0.0
ThH28C12(N2O3)6,3.367899999999999,-1.046434700633803,mp-1200732,0,5.0
Na5Y3ZrSi3(SO8)3,3.0902,-2.835037660497348,mp-2716312,0,4.0
ScPaO4,2.493500000000001,-4.045086822500001,mp-1219240,0,3.0
DyMn2SiGe,0.0,-0.556536472505747,mp-1225693,0,0.0
Er2CdOs,0.0,-0.239608554999997,mp-1184134,0,0.0
PmPbAu2,0.0,-0.6766938668749981,mp-862951,0,0.0
Bi2Se2S,1.17,-0.404265913687493,mp-1227504,0,1.0
Ba10Si69,0.0,-0.030556950379747,mp-1229228,0,0.0
PmZnRh2,0.0,-0.5221306493749991,mp-1186679,0,0.0
LiCaAl3N4,3.093,-1.347443300648148,mp-1020107,0,4.0
AlZnCo2,0.0495,2.235773549886364,mp-1096171,0,0.0
Zn2Hg2OF6,0.8682000000000001,-2.038081691363638,mp-17972,0,1.0
Er2CuOs,0.0,-0.310016727499999,mp-866100,0,0.0
Ba(ClO)2,0.0,-0.9177921294999992,mp-726753,0,0.0
K7NbAs4,1.1294,-0.447438780479166,mp-18361,0,1.0
Nb5(CuSi)4,0.0,-0.5321200861538451,mp-13967,0,0.0
TbCo3B2,0.0,-0.470916637499999,mp-3040,0,0.0
Ce23Cd4Ir7,0.0,-0.374173923235291,mp-1214774,0,0.0
Ti4S4O24H8,2.318652,,,0,3.0
Na10Ca4La4Si3(S3O16)3,3.5476,-2.627660218478117,mp-2714832,0,5.0
K4BeP2,1.136099999999999,-0.360037676183672,mp-9872,0,1.0
Er2CuIr,0.0,-0.644442577499999,mp-1184124,0,0.0
KRb2YF6,6.383,-3.579900120725,mp-7012,0,7.0
Sm2CdAu2,0.0,-0.714357422999997,mp-1205933,0,0.0
Yb3Sb5O12,0.0,-2.326643973,mp-22019,0,0.0
TlIn5Se7,0.3414,-0.65936406821313,mp-574279,0,0.0
Li7(Cu6S5)2,0.0,-0.734440714425286,mp-766483,0,0.0
Mn3Sn2Pd5,0.0,-0.36046372887931,mp-1222087,0,0.0
Na4CaZnP2SO12,3.885,-2.510070067331887,mp-2712977,0,6.0
Ti2P2O11,0.0,-2.446387160730159,mp-1193635,0,0.0
Sr3LaTa3O12,3.247099999999999,-3.5031161008947382,mp-1218499,0,5.0
V2F8,2.466046,,,0,3.0
Ag2Al2O4,1.539445,,,0,2.0
KSrCeSbO6,1.9095,-2.853109766975,mp-1522321,0,3.0
PmHo,0.0,0.0185516337499999,mp-973796,0,0.0
Y(NCl2)3,0.0,0.734601124249999,mp-1205880,0,0.0
ReSe2,1.1434,-0.463165817708329,mp-541582,0,1.0
W4K12O6N8,2.126291,,,0,3.0
Y3(Si3Ru)4,0.0,-0.593360943947367,mp-1201499,0,0.0
Ho5Bi3,0.0,-0.796138401562501,mp-31465,0,0.0
TlCdCl3,3.2976,-1.434297047166665,mp-28218,0,5.0
Ca2HgPd,0.1795,0.8517774718749991,mp-1097426,0,0.0
TcC4IO4,2.3296,-1.032401359625001,mp-662721,0,3.0
Ce3CuSiS7,0.0071,-1.805704806458332,mp-558375,0,0.0
CaDy2(GeO3)4,3.179699999999999,-2.8294352575438593,mp-1227805,0,5.0
UTl4C3O11,1.8800999999999992,-2.03212675254386,mp-18136,0,2.0
EuGdRh2,0.0,-0.574330798749997,mp-1184442,0,0.0
Y6Cr2Be2S14,1.061639,,,0,1.0
Ta3MnN6,0.0,-0.90541831046078,mp-1247209,0,0.0
Na2Nb6Al2Si7S5O48,1.8355,-2.7267289488608393,mp-2715801,0,2.0
Sm5Br11,0.0,-1.93047878625,mp-680266,0,0.0
P2H19S6N5O2,0.7844,-0.136354904942227,mp-1238312,0,1.0
Y5(Ge5Os2)2,0.0,-0.615750331052634,mp-1195689,0,0.0
Li2GeAu,0.0,-0.485090115416667,mp-2935,0,0.0
Yb2Ge6Pt,0.0,-0.525271661111111,mp-1092256,0,0.0
Sr2La2MgRuO8,0.0,-3.021687624642857,mp-1173266,0,0.0
Na4Ga4Si19,0.7966999999999991,-0.02360338335249,mp-1195858,0,1.0
Ti(CrS2)2,0.0,-1.231788804761901,mp-1078058,0,0.0
Cd(CuSe)2,0.0,-0.5034926709375,mp-1096867,0,0.0
K2PrCl5,4.8776,-2.424467699583335,mp-569967,0,7.0
PuPa3,0.0,0.381048309999997,mp-1186847,0,0.0
MgTi2P2O9,0.0,-2.9696142645323143,mp-1044937,0,0.0
Ba(GaTe2)2,0.5291,-1.025832131666665,mp-38117,0,0.0
Na5TiGa3Si3(SO8)3,1.9246999999999992,-2.421513478681108,mp-2713489,0,3.0
Bi3PO7,2.5842,-2.080539872694806,mp-775485,0,4.0
Rb3NbS4,2.4982,-1.485389006874999,mp-3719,0,3.0
H2C2S3N2(OF)6,5.8985,-1.365677323095238,mp-723065,0,7.0
TaZn2BiO6,1.8737,-2.159649673733333,mp-1378723,0,2.0
BaY4Si5O17,4.9928,-3.6168604677777783,mp-1019546,0,7.0
NdGaSb2,0.438699999999999,-0.8159637206249991,mp-1220193,0,0.0
Na3AuO2,1.9715,-1.316017036939655,mp-28365,0,3.0
Eu5Ga3,0.0,-0.393490012812502,mp-1213313,0,0.0
Rb2SnTe5,0.6872,-0.7997832179166671,mp-28520,0,1.0
CaBeAsO5,0.6178,-2.406895010000001,mp-1196768,0,0.0
Tb6Al3Si,0.0,-0.467453344375005,mp-17652,0,0.0
Yb4As2O,0.9593,-1.65518781196429,mp-9799,0,1.0
Mg4Cr8O16,2.551128,,,0,4.0
Na6P4W,1.2626,-0.544517753809524,mp-9007,0,2.0
CeDy3,0.0,0.08277064125,mp-984779,0,0.0
ReGeAs,0.0,-0.069154260615079,mp-1219536,0,0.0
CaNdEuSbO6,0.0,-3.01111793325,mp-1517143,0,0.0
PrCd11,0.0,-0.187861843749996,mp-1201245,0,0.0
K2Ti(Si2O5)3,3.4389,-3.189101877201389,mp-557301,0,5.0
Si2B2H37C12N5,3.250499999999999,-0.285417667794539,mp-1201331,0,5.0
NbSeOF7,4.5144,-2.737582058484375,mp-17921,0,7.0
Th2Cu(PO4)3,2.9463,-3.167140958551586,mp-6698,0,4.0
Cs2KAlCl6,4.6198,-2.194529311656035,mp-1113059,0,7.0
Gd2SO2,2.019399999999999,-3.519234681499997,mp-4805,0,3.0
Pb2Al4S8,2.64526,,,0,4.0
Al2TeSO9,0.0,-2.126607313397436,mp-1194492,0,0.0
Ca2Sn2O6,1.53404,,,0,2.0
BaZrInSbO6,0.7056999999999991,-2.586593238666666,mp-1517982,0,1.0
Mg3SiO4,0.8046999999999981,-2.413047461875,mp-1024036,0,1.0
CsPdF3,0.0,-2.019031868999997,mp-1207302,0,0.0
Sr4CaTb2(RuO6)2,0.0,-2.733536743492063,mp-1234335,0,0.0
Cs4I16,1.752856,,,0,2.0
LiNdTl2,0.0,-0.335290086875002,mp-866019,0,0.0
H1Cl1,2.728092,,,0,4.0
YbAgGe,0.0,-0.6936264977777751,mp-9776,0,0.0
MgBi3O7,0.0,-1.620186144090908,mp-1043868,0,0.0
Tl4P20,1.130318,,,0,1.0
CeGe2,0.0,-0.5731381266666651,mp-21055,0,0.0
Na4Ag2As2,0.684651,,,0,1.0
Hg8Mo4O16,1.617189,,,0,2.0
EuAg2Sn,0.0,-0.35678689625,mp-865192,0,0.0
U8FeS17,0.0,-1.670813840288456,mp-559388,0,0.0
TiAlIr2,0.0,-0.907798535833331,mp-1187464,0,0.0
MgInPt2,0.001699999999999,1.424849094583334,mp-1095745,0,0.0
KEr(PO3)4,5.5675,-2.9251457596289683,mp-554615,0,7.0
ZrCo4Si,0.0,-0.179581575,mp-1215253,0,0.0
TbAlCu4,0.0,-0.297209047083332,mp-1217579,0,0.0
PmDyIn2,0.0,-0.610364498124997,mp-983428,0,0.0
Al1O1,0.0,,,0,0.0
NaCa5ScZn5(SiO3)12,4.1363,-3.075535121272989,mp-705485,0,6.0
LiGaNi2,0.0,-0.312183139166666,mp-867197,0,0.0
Mn4N,0.0,-0.295696929336207,mp-505622,0,0.0
Eu(Ga4Rh)2,0.0,-0.522650795,mp-1198816,0,0.0
Na14Nb4In4Si11SO48,2.5938,-2.713417572318826,mp-2714589,0,4.0
Tm2AgRu,0.0,-0.40883406291667,mp-865282,0,0.0
Ba2NaMgReO6,0.0,-2.385960863534483,mp-2217618,0,0.0
Tm2ZnRh,0.0,-0.647074820000002,mp-972022,0,0.0
Sm27Y5O48,3.7595,-3.8756642604375,mp-861145,0,5.0
Li2Zr6MnCl15,1.1644,-2.012156412691572,mp-1222826,0,1.0
SrH3Pd,0.0,-0.515080370749999,mp-1207079,0,0.0
PmCd3,0.0,-0.348575549374995,mp-862899,0,0.0
ZrMnP,0.0,-1.036217961691297,mp-20147,0,0.0
Lu(Mo3Se4)2,0.0,-0.7768144393611081,mp-1104068,0,0.0
CaSe,2.0728,-2.315957819531251,mp-1415,0,3.0
K2Eu2O3,0.0,-2.320944256357143,mp-755649,0,0.0
Pb8Se16Si4,1.625801,,,0,2.0
DyGaCo4,0.0,-0.217756566527776,mp-1225686,0,0.0
DyP2(HO2)5,5.614400000000001,-2.237755534289021,mp-1226255,0,7.0
CsEuS2,0.0,-1.742171750156249,mp-1076928,0,0.0
Na3YZrSi2SO12,3.9238,-2.92858637741523,mp-2714324,0,6.0
Np(SiAu)2,0.0,-0.455028007750001,mp-20166,0,0.0
Rb2Nb1F6,0.216413,,,0,0.0
Er2FeSi2,0.0,-0.6912688439999981,mp-31095,0,0.0
SrTiZn(PO4)2,0.0,-2.772615362509157,mp-1046114,0,0.0
Bi5O4F7,3.0651,-2.339283810625001,mp-760230,0,4.0
Sr5As3ClO12,3.8284,-2.757308327976191,mp-559965,0,6.0
Na2Cs2Te2,1.999917,,,0,3.0
CN2O,0.2846,-0.083557825,mp-1182145,0,0.0
AlTc2Mo,0.0774,3.538903659999995,mp-1097493,0,0.0
Rb2Ta2Si2O11,0.516699999999999,-2.688032389906862,mp-1211926,0,0.0
GaRh,0.0,-0.6799595537499991,mp-2444,0,0.0
Rb2LiNdI6,2.9632,-1.624093795583333,mp-1110748,0,4.0
SrPd,0.0,-0.605112284999998,mp-999143,0,0.0
Sr2P6Rh7,0.0,-0.8867449481904731,mp-669387,0,0.0
Ba(TmTe2)2,1.3203,-1.755499247738097,mp-18196,0,2.0
Tl3SiF7,3.5757,-2.661565670909092,mp-1133284,0,5.0
TlBrO3,3.5098000000000003,-0.6422784746666681,mp-29798,0,5.0
Na3AsH14SO10,3.5311,-1.384578818504756,mp-721287,0,5.0
EuFe2,0.0,0.343701285833332,mp-1101922,0,0.0
Pb4CN4,0.343199999999999,0.289211413333336,mp-1246391,0,0.0
NaPrDySbO6,3.303499999999999,-2.7979935354712633,mp-1519867,0,5.0
Na2NbAsO6,3.1214,-2.385238387025862,mp-559968,0,4.0
YZn2Pd,0.101799999999999,1.6872296675,mp-1093568,0,0.0
CsB2H5O6,5.0467,-1.96592014030275,mp-863006,0,7.0
ErB6,0.0,-0.419698139761905,mp-1296,0,0.0
Sr2PrTaO6,3.37,-3.3771437089,mp-1207116,0,5.0
LiCuAu2,0.0,-0.303081698333334,mp-1185322,0,0.0
Rb2TlAsCl6,1.9544,-1.622903490583333,mp-1114009,0,3.0
P4H4PtIO10,0.1734,-1.69957692042857,mp-1204055,0,0.0
Tl3As1Se3,0.680086,,,0,1.0
Ca2GaCu2,0.0,-0.292262311999999,mp-30472,0,0.0
Rb2Zn8B6O18,3.48062,,,0,5.0
Li6Zn3(PS4)4,2.7064,-1.004933042881772,mp-1147605,0,4.0
Mo4Ru,0.0,0.121083122666664,mp-1221461,0,0.0
Sn(PO3)2,3.8768,-2.431295273253955,mp-766947,0,6.0
La8Bi4Cu4S20,1.233756,,,0,1.0
Na4CaHfSi(PO6)2,3.6472,-2.965221984435061,mp-2714339,0,5.0
LaCO3F,3.9263,-3.132186842222221,mp-638731,0,6.0
La6Al5Fe9,0.0,-0.219588290749999,mp-1211603,0,0.0
LiB(HO2)2,3.6262,-1.852322804687499,mp-698205,0,5.0
SrLa2O4,3.788,-3.598485091428571,mp-754211,0,6.0
Ni4O8Ca1,0.562765,,,0,0.0
BH5(NF2)2,6.2913,-1.600555010659723,mp-706612,0,7.0
Pr2IrPd,0.0,-0.6643380683333321,mp-861483,0,0.0
Ce(AlSi)2,0.0,-0.390076357999994,mp-1207106,0,0.0
NaHf2Zr2P5SO24,3.6239,-3.110863027488389,mp-2716186,0,5.0
Tm2Ni2Sn,0.0,-0.613359536000002,mp-1095204,0,0.0
CuTe,0.0,-0.0842046275,mp-20826,0,0.0
Pr3Sc,0.0,0.067405820000001,mp-1186730,0,0.0
Sm2B5,0.0,-0.622048077857144,mp-570421,0,0.0
Zn2P2H12O11,5.0354,-1.553040872010581,mp-696085,0,7.0
Zr5Sn,0.0,-0.218210216666667,mp-1094254,0,0.0
Ge2O4,0.987565,,,0,1.0
Ag3P2N(O3F)2,0.0,-1.370495817091836,mp-1197801,0,0.0
TmBH4,0.0,-0.235216520112482,mp-2646998,0,0.0
CsKICl,4.0996,-1.9261847254762932,mp-1002083,0,6.0
Na3Y2Ti2P5SO24,2.4194,-2.972715389950962,mp-2716073,0,3.0
Na3InAs2,0.981399999999999,-0.6001142727083331,mp-21622,0,1.0
Cu2Fe4F16O4H8,2.462717,,,0,3.0
KMg14Si,0.0,0.150868961421875,mp-1099101,0,0.0
RbNaMg6O7,0.0,-2.251709008925287,mp-1030980,0,0.0
Sr3Th,0.0,0.403074097499999,mp-1187140,0,0.0
La2ZnSb3,0.1431,1.7589321649999992,mp-1207077,0,0.0
Re3H,0.0,0.777424362499999,mp-1186895,0,0.0
TbNiP,0.0,-1.213128120436508,mp-1208320,0,0.0
HOs3C10ClO10,2.4922,-0.9530606452500012,mp-706652,0,3.0
Ba2PrF7,6.2167,-4.215402317666666,mp-676002,0,7.0
EuNi2B2C,0.0,-0.356697278055555,mp-21064,0,0.0
Y3(CuGe)4,0.0,-0.624807238181818,mp-1103265,0,0.0
Ba2Cd2Sb3,0.0,-0.761305063571422,mp-1104804,0,0.0
Na3MgNb5Si6(SO12)3,1.8665,-2.769092359104406,mp-2715664,0,2.0
HoGa2Pd,0.0,-0.797386366249998,mp-982511,0,0.0
NbBiO4,2.938799999999999,-2.521130047083335,mp-23413,0,4.0
PtN2,1.3251,0.214806325833331,mp-1095618,0,2.0
Rb(SnAs)3,0.5979000000000001,-0.2492626775,mp-1192409,0,0.0
PrCo3Ni2,0.0,-0.088344158611111,mp-1219681,0,0.0
NaCaAlF6,7.1135,-3.830305885338441,mp-17944,0,7.0
FeTc2Ge,0.0,-0.075069463750001,mp-1184276,0,0.0
K2Cd(NO2)4,2.4789,-1.097468229966666,mp-560982,0,3.0
Tl4Cu4P4O16,1.078777,,,0,1.0
Lu2InPd2,0.0,-0.8869577849999981,mp-12691,0,0.0
K7Ti8(PO4)12,0.0,-2.981201487375078,mp-1223973,0,0.0
Y2InPd2,0.0,-0.92352477,mp-1079112,0,0.0
BaBiO3,0.0,-2.233427010999999,mp-559051,0,0.0
Cs2TmCl5,5.0095,-2.454417691562499,mp-1213743,0,7.0
Na4Nb2Zn2Si3(SO8)3,0.434199999999999,-2.393621189333787,mp-2713316,0,0.0
Sm3Sn13Ir4,0.0,-0.492823617249997,mp-1200898,0,0.0
Ba14AlSb11,0.7923999999999991,-1.111051576442307,mp-530714,0,1.0
BaCa3Si10(N2O)6,3.2698,-2.0328706725,mp-1228049,0,5.0
TlN,0.0,0.733445353333333,mp-1017982,0,0.0
Zr5Si3,0.0,-0.8719251650000001,mp-568115,0,0.0
Sr12Cu6N10,0.624487999999999,,,0,0.0
Ca2GaSi2O7,0.194599999999999,-3.020102749374999,mp-1214106,0,0.0
K2Ca(NO2)4,2.4394,-1.216402876966665,mp-557597,0,3.0
Zr3Hg,0.0,-0.179214738125001,mp-1630,0,0.0
Ca(BO4)3,0.1449,-1.33808050546875,mp-1204932,0,0.0
K10Tl7,0.0,-0.087606712107845,mp-1212012,0,0.0
Al45Cr7,0.0,-0.093452932115384,mp-31019,0,0.0
CaTiF6,4.5826,-3.971624565416666,mp-27315,0,7.0
CdH6C(IN)3,2.597,-0.555474209464285,mp-1192575,0,4.0
ThSiRu2C,0.0,-0.682782486000002,mp-1205580,0,0.0
Fe(CuS)2,0.0,-0.330165705499999,mp-672708,0,0.0
CsAlF4,6.977,-3.638168761111111,mp-554899,0,7.0
Hf3Tl,0.0,-0.024140797500002,mp-976106,0,0.0
LiMg30SiO32,0.0,-2.9683186533333332,mp-1040157,0,0.0
HoCoSn,0.0,-0.478056388333327,mp-5601,0,0.0
BaAlSi,0.0,-0.364180733333332,mp-13149,0,0.0
DyTmCu2,0.0,-0.27760004625,mp-1184109,0,0.0
RePtN5Cl8O,0.0,0.273729223124999,mp-1199902,0,0.0
Li7Ti12NbO30,2.6204,-3.227854914866666,mp-767146,0,4.0
B4PF9,5.7654,-2.352066383605442,mp-27426,0,7.0
KEr3F10,7.0218,-4.3033513065,mp-683945,0,7.0
Dy2PdRu,0.0,-0.6453013658333311,mp-865216,0,0.0
Cr2H24(IN3)3,1.9093,-0.560167718026316,mp-720712,0,3.0
Tb(Fe5Mo)2,0.0,-0.003925792820512,mp-1217866,0,0.0
Mo3Ir,0.0,-0.110200976250006,mp-1120,0,0.0
Eu2TiCuO6,0.0,-2.809159832833334,mp-1225669,0,0.0
YScS3,1.7758,-2.275333159687498,mp-7792,0,2.0
Ta2Nb3O12,0.0,-3.102705318068627,mp-780456,0,0.0
CuSiO4,0.0,-1.660293027777777,mp-1204686,0,0.0
CaBi2(CO4)2,1.061799999999999,-1.948677346153846,mp-556411,0,1.0
PrPt2,0.0,-1.017723627222225,mp-1061,0,0.0
Tb2Al6Si4Au,0.0,-0.392796674102567,mp-11629,0,0.0
Na3ScSiSn(PO6)2,2.7076,-2.806904403337849,mp-2715501,0,4.0
O8,0.0,,,0,0.0
CaPbF6,3.455899999999999,-3.030607506249999,mp-20463,0,5.0
Na3LiY3P3CO15F2,4.5183,-3.124129539782136,mp-1205167,0,7.0
Ba6Nd2Ga4O15,3.649499999999999,-2.9436760922222223,mp-1214555,0,5.0
Sr16Ge8N16,0.060023,,,0,0.0
Ba2CaTl2(CuO4)2,0.0,-1.8822247744444451,mp-6885,0,0.0
Cu2F8N4O4H16,2.469069,,,0,3.0
Na4Sn4H10O11,2.7446,-1.50050101596611,mp-772039,0,4.0
Nd2(PRh)3,0.0,0.48960430138393,mp-1206074,0,0.0
Mg2CdPt,0.073599999999999,1.1630926225000011,mp-1093552,0,0.0
Lu2Co7,0.0,-0.185575828703704,mp-1189949,0,0.0
Zn4Ga2S7,0.3563,-0.532414200525412,mp-1094018,0,0.0
Rb2NaHoF6,6.5281,-3.59472864613793,mp-15318,0,7.0
Zr5CuBi3,0.0,-0.394316569999998,mp-1188159,0,0.0
Tl(SeO3)2,0.0,-0.8714562100578711,mp-1202760,0,0.0
GaSnO3,0.0,-1.517511535499999,mp-1184243,0,0.0
Sr4NbAlO8,2.962,-3.296228674107142,mp-558114,0,4.0
Gd11In9Ni4,0.0,-0.5103819970833331,mp-1192974,0,0.0
K3Nb3Si2O13,2.1432,-2.987607624607143,mp-559346,0,3.0
SnF4,3.114999999999999,-2.571479623999999,mp-2706,0,4.0
K11Mn4Li1O16,1.697173,,,0,2.0
Fe(PdN)2,0.0,0.189821743999999,mp-1246508,0,0.0
KNa4SnSb3,0.479,-0.431994915029692,mp-6758,0,0.0
LiSbP2O7,4.0469,-2.497008056601731,mp-26341,0,6.0
Dy5Zr3(Ni4As3)4,0.0,-0.8240862546759251,mp-1198172,0,0.0
YGa2Ni,0.0,-0.6438635449999991,mp-11444,0,0.0
V2Cl2O2,1.455572,,,0,2.0
ZrInPd2,0.0,-0.7542684887499961,mp-977475,0,0.0
BeRu3,0.0,0.091868763749999,mp-1183473,0,0.0
Na3IrN2,0.0,-0.115895164022988,mp-1029569,0,0.0
NaNdTi2O6,2.14,-3.405671969554598,mp-1220984,0,3.0
Mg30NbZnO32,0.301099999999999,-2.92297475890625,mp-1037462,0,0.0
K1F1,6.103375,,,0,7.0
RbTlI3,0.0,-1.024051937166668,mp-1114149,0,0.0
CaTi2(CuO4)2,0.5975,-2.392578074166666,mp-1040989,0,0.0
Ti3Zn3(AsO4)4,0.1944,-2.1523336442307692,mp-1352773,0,0.0
SrMgPb,0.0,-0.443582686666665,mp-1103314,0,0.0
CaCd2(ClO)6,0.0847,-0.8469435673333331,mp-1193522,0,0.0
K2NaAlAs2,1.026,-0.554715968479885,mp-9069,0,1.0
Sr3Li,0.0,0.072006270416666,mp-1187126,0,0.0
La8S8O8,1.484552,,,0,2.0
MnFeP,0.0,-0.55609625502463,mp-1101988,0,0.0
S3(NO7)2,1.405,-1.255126798289473,mp-540798,0,2.0
Rb4Sn(Te2O)2,1.172999999999999,-1.134742518787878,mp-1191418,0,1.0
Ce1Sr3P1C3O13,3.844852,,,0,6.0
ErFeB4,0.0,-0.63937201736111,mp-1191434,0,0.0
Mg6CrCu,0.0,0.1844162025,mp-1022064,0,0.0
CeAlAg2,0.0,-0.199525888333331,mp-865968,0,0.0
TbInPt,0.0,-1.144207848888887,mp-567413,0,0.0
B6Pb,0.9206,0.115100015000004,mp-1096825,0,1.0
HfTiN2,0.0,-1.947126786041668,mp-1224286,0,0.0
Pm3Ti,0.0,0.240045923541664,mp-1186532,0,0.0
Er2Mn12P7,0.0,-0.715000024651066,mp-1191019,0,0.0
K3P6S6N7,3.5612999999999992,-0.798602928277596,mp-680247,0,5.0
BaNdHf4O12,0.0,-3.42375560875,mp-1520155,0,0.0
Cs2PdI6,0.044899999999999,-1.040615926590038,mp-569066,0,0.0