formula,bg,formation_energy,mp-id,fidelity,bg_category
RbEuAsS3,0.0,-1.381656499166667,mp-646129,0,0.0
Na7Hf3Nb(SiO4)6,2.712,-3.1430220509672,mp-2712835,0,4.0
Tb2CBr,0.0,-1.104796899583334,mp-1025498,0,0.0
Rb2LiCo(CN)6,4.129,-0.286376732395833,mp-15182,0,6.0
Cs1Br1,4.453972,,,0,7.0
Pt2Li4F12,2.542183,,,0,4.0
K6Se2O9,1.6318,-1.722961703275735,mp-559613,0,2.0
Cd3Ga3N5,0.0,0.001004677613635,mp-1245997,0,0.0
Li3RuN2,0.0,-0.309802965625,mp-1247350,0,0.0
BaNa(FeAs)4,0.0,-0.380267210137931,mp-1227868,0,0.0
Ce3Ag,0.0,0.098215925833335,mp-1183754,0,0.0
Sc5Cl8,0.0,-1.973734355,mp-542449,0,0.0
Co3Ge2,0.0,-5.5336000002625965e-05,mp-1226445,0,0.0
Eu(InS2)2,0.0,-1.283939015476191,mp-1105168,0,0.0
UTe,0.0,-0.8740584120833361,mp-11447,0,0.0
NaInBP2HO9,4.1928,-2.496268156016608,mp-1198616,0,6.0
PrMgS3,0.0,-1.5738670361666651,mp-1232362,0,0.0
Tb3Se2ClO8,4.086,-2.815241285870535,mp-558490,0,6.0
N8,6.985543,,,0,7.0
NbTe4Os,0.0,-0.5534139690277771,mp-1192146,0,0.0
Sm3(SiRu)2,0.0,-0.7288280189285711,mp-1208957,0,0.0
Pm2PdRh,0.0,-0.7872124312499971,mp-863726,0,0.0
ThGaAu2,0.0,-0.600490434374995,mp-862875,0,0.0
ZnH12C3SeS3(N3O2)2,3.4695,-0.608404545244791,mp-1198643,0,5.0
Sr4Ca(SO4)4,0.3616,-2.5030519216,mp-1233446,0,0.0
LaNiGe2,0.0,-0.7774648062499999,mp-21077,0,0.0
Na3Te(AsO7)2,0.0,-1.011843707790229,mp-1210785,0,0.0
Ag7Sb9O25,0.398299999999999,-1.435631241382114,mp-766328,0,0.0
DySiPd2,0.0,-0.9807996841666652,mp-1105784,0,0.0
Gd2In,0.0,-0.482921611666659,mp-638079,0,0.0
Cs8S20,1.737824,,,0,2.0
Rb2Fe2S4,1.403894,,,0,2.0
PrZrF7,5.943,-4.175093544074073,mp-1209283,0,7.0
Zn4Na8O8,2.178128,,,0,3.0
As14H6O31,2.2221,-1.4395855305392171,mp-1229223,0,3.0
BSbPbS4,2.1522,-0.6995956877380931,mp-1228703,0,3.0
La2MgTi2(AgO4)2,0.0,-2.911888947,mp-2232516,0,0.0
LiH2BrO,4.3086,-1.503645087666667,mp-754153,0,6.0
Ca(FeN)2,0.0,-0.086437723999999,mp-1423472,0,0.0
La2Th3O9,2.548199999999999,-4.168961438214284,mp-673677,0,4.0
Ca2BrN,2.4254,-1.635277027499999,mp-23009,0,3.0
PdRuBr4N5Cl,0.3559,0.159066752499999,mp-1212298,0,0.0
CaNb2(PO5)2,0.0996,-2.765218283952381,mp-1234946,0,0.0
Al1P1,1.624884,,,0,2.0
Na2SrAl4(SiO4)4,4.782599999999999,-3.295185041398465,mp-556356,0,7.0
MnAl2Ni,0.0,-0.468009194482758,mp-1221656,0,0.0
KUO3,0.4454,-3.335109890449998,mp-4126,0,0.0
Mn6Si7,0.0,0.198143274580978,mp-1103939,0,0.0
TmBr,0.0,-1.223910962500004,mp-1187584,0,0.0
In2(Ni7P2)3,0.0,-0.398653241650243,mp-21683,0,0.0
Sm4AlSi5(NO)7,1.320999999999999,-1.941556358333335,mp-1173490,0,2.0
HoSi2Ni,0.0,-0.8272305350000001,mp-5150,0,0.0
Nd2Ge3Pt,0.0,-0.870479566666668,mp-1220495,0,0.0
Sc3Tl,0.0,-0.279433678750002,mp-1186974,0,0.0
Cs2As2OF10,3.9471,-2.67757732962069,mp-557115,0,6.0
NbFeGe,0.0,-0.342487292777777,mp-1190207,0,0.0
K5TlO4,1.7631,-1.393179652208333,mp-14439,0,2.0
CsMgF3,6.7028,-3.427780151749997,mp-8401,0,7.0
PrB2HF10,7.7517,-3.338888834017857,mp-861500,0,7.0
LiCuS2,0.0,-0.771961742083332,mp-753722,0,0.0
Sr3LiRuO6,0.5632,-2.581730161212121,mp-6721,0,0.0
K2Mg4U3(H13O12)4,1.7029,-1.609617057610091,mp-1202138,0,2.0
RbLaNb2O7,1.7695,-3.204687685681818,mp-553965,0,2.0
VCuRh2,0.0,-0.322075322499998,mp-979910,0,0.0
KPtN2O5,0.6258,-0.953624645527777,mp-1211559,0,0.0
Cs6InAs3,0.496999999999999,-0.347898671709772,mp-22506,0,0.0
LaSi3Ir,0.0,-0.861072935,mp-2914,0,0.0
Y2Fe3N4,0.0,-0.763589416666666,mp-1247169,0,0.0
Ca2(TlPb)3,0.0,-0.2875282175,mp-1227788,0,0.0
Cs2TeP2H8O13,3.5688,-1.846689092317798,mp-1229058,0,5.0
Ni2Mn2O6,1.694365,,,0,2.0
Pt3PbC,0.0,0.357862233499997,mp-20097,0,0.0
Nb4CrS8,0.0,-1.397666051153846,mp-5306,0,0.0
Dy5BiPd2,0.0,-0.767802663124996,mp-1212882,0,0.0
Ho2ZnRu,0.0,-0.377942149999998,mp-867320,0,0.0
La2Ni22C3,0.0,-0.114208539629628,mp-573282,0,0.0
NaAlGaP(SO6)2,4.1605,-2.371541880010491,mp-2715765,0,6.0
H(CO)2,2.8322,-0.9266503035,mp-675395,0,4.0
Ti5ZnO7,0.0,-2.736197490128205,mp-1045822,0,0.0
Ba2La1Bi1O6,1.811025,,,0,2.0
Ho12InPt7,0.0,-1.013785860833325,mp-31109,0,0.0
NaTi2BiO6,2.7382,-2.8309337488045982,mp-39681,0,4.0
Ti8Ni3(B4Ru9)2,0.0,-0.47406486364865,mp-1217553,0,0.0
Sr1Se1,2.199261,,,0,3.0
Fe2SbTe3,0.0,-0.383836103333332,mp-1224691,0,0.0
Ni8Bi8SI,0.0,-0.1926564412499999,mp-1105564,0,0.0
LiCuF4,0.782899999999999,-2.123160671944444,mp-753257,0,1.0
I4F4O8,2.890136,,,0,4.0
H6CNCl,4.9006,-0.511724911666666,mp-1096989,0,7.0
FeCo5N4,0.0,0.008971313499999,mp-1246461,0,0.0
BaCaSmSbO6,3.3996999999999993,-3.0130150755,mp-1517996,0,5.0
PrGa3,0.0,-0.636153669166667,mp-862756,0,0.0
Na30Ca16Nb8Si15(S7O48)3,1.4123,-2.5970901371319632,mp-2715153,0,2.0
ReW4,0.0,0.047402554999996,mp-1219494,0,0.0
Tb2InAu2,0.0,-0.8103618609999971,mp-1079501,0,0.0
Ni2W11C4,0.0,0.292302682549006,mp-1220415,0,0.0
LiCaHg2,0.0,0.6474635979166631,mp-1096680,0,0.0
AgPS3,1.3228,-0.232501206282736,mp-5470,0,2.0
Ca(BO3)3,0.042399999999999,-1.71445776326923,mp-1193777,0,0.0
Y2RuRh,0.0,-0.5632615750000001,mp-866173,0,0.0
Sr(CoSi)2,0.0,-0.457034018,mp-1069057,0,0.0
ZnH14C2N10(ClO3)2,3.2858,-0.643071395214286,mp-1198181,0,5.0
H4SNO4,3.5707,-1.074602138999999,mp-1181341,0,5.0
Sm3Mg,0.0,0.017494587499998,mp-978849,0,0.0
Rb2MgF4,6.2257,-3.33899116,mp-8861,0,7.0
KUPO7F,0.1532,-2.509388504035713,mp-1204594,0,0.0
La4S3N2,1.1943,-2.228839775104164,mp-556958,0,1.0
RhI3,1.0096,-0.5667571437499991,mp-1206891,0,1.0
Cs2RbSbBr6,2.8409999999999993,-1.652872563681034,mp-1112121,0,4.0
Nd2Ga12Pd,0.0,-0.420000025666666,mp-1193335,0,0.0
Tb5BiPd2,0.0,-0.755160647708336,mp-1208420,0,0.0
DyZnIn,0.0,-0.539421279999996,mp-1018681,0,0.0
Cd,0.0,0.0,mp-94,0,0.0
Y5(Co2Ge5)2,0.0,-0.6376944594736831,mp-1207788,0,0.0
SiPAu,0.983499999999999,-0.242352154325397,mp-1207095,0,1.0
Hg3(SeBr)2,1.3272,-0.64565954745536,mp-31075,0,2.0
Ta2NbMo,0.0232,4.761565092699996,mp-1096718,0,0.0
La20Os12C13,0.0,-0.219575419666666,mp-1223651,0,0.0
Mg14SiSnO16,2.14,-2.684903548906249,mp-1034282,0,3.0
HoGa5Co,0.0,-0.464502878928571,mp-4856,0,0.0
KClO2,2.3095,-1.0358831843125,mp-31368,0,3.0
KCeAgTe4,0.0,-1.079232500083331,mp-1212465,0,0.0
Ca4Bi2O1,0.739613,,,0,1.0
Ac2S3,2.2962,-2.4930635934375,mp-32800,0,3.0
Tm2SiPd2,0.0,-0.802378149000002,mp-1216871,0,0.0
RbC10,0.6839000000000001,0.21803635310606,mp-16975,0,1.0
Pr2ZnPtO6,0.0,-2.558768000833332,mp-1209351,0,0.0
TeMo2Se3,0.949299999999999,-0.6199698086979161,mp-1217314,0,1.0
ErUTe6,0.0,-0.918858208541664,mp-1225699,0,0.0
Mg3Nb6O11,0.2437,-2.7617290999999993,mp-505365,0,0.0
CoNi2Sn,0.0,0.0533748462499999,mp-1226203,0,0.0
Rb12Mg(ClO)4,0.7497,-1.355944235,mp-1234577,0,1.0
KIO3,2.7868,-1.366622997449999,mp-23487,0,4.0
Ba5Y3F19,6.5926,-4.215059607962963,mp-778387,0,7.0
AlInGaSb3,0.029799999999999,-0.221159770000004,mp-1228917,0,0.0
Rb2ErAuCl6,2.1263,-2.042189960499999,mp-1113656,0,3.0
NaZn(BH4)3,5.7671,-0.25747974316937,mp-1203290,0,7.0
Ag2V2S8K4,1.525048,,,0,2.0
Cs3ZnCl5,4.2844,-1.9658915391666651,mp-570262,0,6.0
Li4NO,0.0,-1.100331540555555,mp-1077223,0,0.0
TiP2O7,2.6682,-2.961131424511889,mp-761010,0,4.0
HfSe2,0.5342,-1.564946299374999,mp-985831,0,0.0
Sb3ClO4,2.6812,-1.7093936262500011,mp-29591,0,4.0
Ga8Cu3Mo2,0.0,-0.187890555192307,mp-567502,0,0.0
LiAg2P3(HO5)2,2.4329,-2.044618744894181,mp-695951,0,3.0
Cr2Cu2Sr4S2O6,1.280072,,,0,2.0
Na2PtSe2,0.8690000000000001,-0.974080661624998,mp-14588,0,1.0
Na3Ca2La2PS5O24,4.3194,-2.627501256836418,mp-2713650,0,6.0
LuAg4,0.0,-0.229042311333333,mp-568953,0,0.0
KCe(PO3)4,0.3409,-2.894500825462302,mp-540753,0,0.0
LiP5Pb2O15,4.6531,-2.538434123110764,mp-1222447,0,7.0
DyMn2,0.0,0.008618160622605,mp-2876153,0,0.0
Ti2MnIn,0.0137,-0.051165427816092,mp-1018041,0,0.0
LiEr2Ir,0.0,-0.6210271408333341,mp-862554,0,0.0
Dy3AlN,0.0,-1.087709248749999,mp-1017557,0,0.0
Si6NiMo9,0.0,-0.383428530379465,mp-1219304,0,0.0
SmMnGe2,0.0,-0.460038673232759,mp-1095161,0,0.0
K2SnO6,0.0,-1.100048962166666,mp-1181405,0,0.0
ZnH10C2(Se2N)2,1.3324,-0.370042224177632,mp-1198883,0,2.0
BIr,0.0,-0.21504744125,mp-1183252,0,0.0
Sc2B6Ir,0.0,-0.7334988208333321,mp-1209019,0,0.0
Mn4Ge6Ir7,0.0,-0.224662185395537,mp-20246,0,0.0
La6I10C2,0.204388999999999,,,0,0.0
SiSbO4,0.0,-2.111793947083333,mp-1142725,0,0.0
Ba4Tl4Cu2O11,0.0,-1.737264578968254,mp-1228311,0,0.0
Mg6ZrCr,0.0,0.192546114375,mp-1022472,0,0.0
Li2InHg,0.0,-0.362242510208332,mp-1184978,0,0.0
Na2Mg4Zr4SiS11O48,2.235299999999999,-2.480316272551314,mp-2714080,0,3.0
BaZrNbInO6,0.6060999999999991,-3.001397889666667,mp-1517252,0,0.0
Sr3(SnIr)4,0.0,-0.5869383472727291,mp-22418,0,0.0
Cr3N4,0.0,-0.558815138035717,mp-1014345,0,0.0
K2WCl6,0.0,-1.535023900277776,mp-568914,0,0.0
SbClF8,3.1317,-1.977394823999999,mp-27314,0,4.0
Na5Zr2Al2SiP5O24,3.999,-2.984453122225064,mp-2714272,0,6.0
NaEr(ReO5)4,0.0,-1.7079376571684362,mp-1210594,0,0.0
Sb4Se8K2,1.037816,,,0,1.0
TiFeN2,0.0,-0.948557231458334,mp-1245552,0,0.0
Pr2CuSb3,0.0863,2.201651276111112,mp-1209898,0,0.0
MgTe2Mo2W2(Se2S)2,0.0091,-0.753862914823716,mp-2218919,0,0.0
Rh4Bi4S4,0.283995,,,0,0.0
CeInCuAg,0.0,-0.226349719583331,mp-1226682,0,0.0
Na3Ca2Sn2P3(SO8)3,2.4409,-2.451660114069365,mp-2713939,0,3.0
KTlO3,0.0,-0.7949232771166671,mp-984454,0,0.0
Al4D16Cs4,4.8883,,,0,7.0
K3Mn1O4,1.951483,,,0,3.0
YGa3NiGe,0.0,-0.512549877083333,mp-1216105,0,0.0
KEuNb4O12,0.0,-2.974987693458334,mp-1523239,0,0.0
Rb2(ReS2)3,1.426899999999999,-1.053173752727272,mp-557824,0,2.0
Ce3Os,0.0,-0.126361149374997,mp-1188974,0,0.0
La3AsI3,0.0,-1.629814794999999,mp-29997,0,0.0
Cu7Te6(O9F)2,0.0,-1.29736256121212,mp-1195764,0,0.0
La3Zn3Ge2SbO14,2.9042000000000003,-2.653723902826086,mp-672262,0,4.0
LaGe2IrRu,0.0,-0.766260873,mp-1222835,0,0.0
CaP2(HO)4,5.5901,-1.81487664538961,mp-24130,0,7.0
As(IF3)2,0.5218,-1.912761675277777,mp-558244,0,0.0
HfMg14Cd,0.0,0.05206748375,mp-1026440,0,0.0
Sm2AlNi2,0.0,-0.475056705999999,mp-1206462,0,0.0
SnBi3,0.0,0.106889578749999,mp-978882,0,0.0
Li7Ca8Nb12O40,0.0,-3.097135598557213,mp-773078,0,0.0
CsTaTe3,0.0,-0.842346070397699,mp-1228798,0,0.0
MnNCl3,0.0,-0.248574424396549,mp-1190482,0,0.0
K2PH4O5,4.5942,-1.882585541803571,mp-1204619,0,7.0
Rb2WCl6,0.0,-1.785055874999996,mp-30227,0,0.0
U2P2H2CO14,0.0,-1.608260043537414,mp-1198873,0,0.0
TeWCl9,0.0,-0.7982041956818191,mp-669325,0,0.0
HoMnFe,0.0,0.016196822356323,mp-1223745,0,0.0
YB2Mo,0.0,-0.412556100694443,mp-1215920,0,0.0
Sr3B6H2O13,5.3122,-2.900514172395834,mp-1201690,0,7.0
NaNbS2,0.6250999999999991,-1.453704387844829,mp-7937,0,0.0
RbB6S2(Cl3O2)2,1.7797,-1.322890030394737,mp-1201123,0,2.0
NaNb4Bi5O18,2.7554,-2.42387236290638,mp-1221019,0,4.0
Ga2P4K4Na2,1.368141,,,0,2.0
Ta2CrTc,0.0,4.298565161625007,mp-1097484,0,0.0
Ti4NiS8,0.0,-1.521895754871795,mp-1104366,0,0.0
SmMg2Ti3S8,0.0,-1.70566551392857,mp-1246585,0,0.0
KZrS2,0.0,-1.739137890562498,mp-1002123,0,0.0
Ba3(IrN2)2,0.121999999999999,-0.250497041388889,mp-1247183,0,0.0
ErScZn2,0.0,-0.359154388749999,mp-1184239,0,0.0
Re4Cs8Cl12O12,2.276321,,,0,3.0
Sr(NdSe2)2,1.7524,-2.242733372321428,mp-39033,0,2.0
CoB10H19C11,1.7185,-0.049833663058943,mp-1195847,0,2.0
Sn4Pb8O16,2.060232,,,0,3.0
Sr2Ga2O5,3.1468,-2.749741818333333,mp-1020723,0,5.0
YMg6C,0.0,0.378961676875,mp-1022713,0,0.0
Sn5Zn4S17Cs1K5,1.593989,,,0,2.0
BiAsO5,0.0259,-1.270817376428572,mp-1347378,0,0.0
Mn5Ga4Pd3,0.0,-0.244033378304597,mp-1221400,0,0.0
Zn2P,0.0,0.179341575674604,mp-1207457,0,0.0
RbSb2P(SO6)2,4.0806,-2.103376007341269,mp-1195172,0,6.0
Hg2H8C2NCl5,2.7957,-0.6214394118055561,mp-1194654,0,4.0
TbYbHg2,0.0,-0.577637395000003,mp-865254,0,0.0
Zr2NbMoC4,0.0,-0.6177319585937471,mp-1215534,0,0.0
HfTiRe2,0.0,4.217184107916665,mp-1097439,0,0.0
LiNi2As,0.006399999999999,1.802624268333334,mp-1096495,0,0.0
Nd2Fe4Co13,0.0,-0.038597019736842,mp-1220336,0,0.0
Li3Mn3Fe3F18,2.287509,,,0,3.0
DyIn2Ni,0.0,-0.422730382499996,mp-1079916,0,0.0
Mo3S3Br,0.0,-0.9771396467857132,mp-29231,0,0.0
Hf2InPd2,0.0,-0.695898650999998,mp-1212691,0,0.0
NiRu,0.0,0.155754655000002,mp-1219922,0,0.0
Na2CuPCO7,0.0,-2.035364312283457,mp-767534,0,0.0
LaNdN2,0.053999999999999,-1.5999842624999971,mp-1222795,0,0.0
Nd3Si2S8Br,2.664,-1.809467116607143,mp-559237,0,4.0
Al2(PS3)3,2.2406,-0.5995079285004761,mp-1193708,0,3.0
NaYInP(SO6)2,4.1742,-2.480419098853084,mp-2714426,0,6.0
FeCl3,0.4268,-1.164680918333334,mp-583463,0,0.0
Na5Cu3(AsO4)4,0.050399999999999,-1.675343687389162,mp-1193279,0,0.0
ZnS,2.0195,-0.962698349620534,mp-554820,0,3.0
Ba2GeAs2,0.578599999999999,-0.889334313500002,mp-8195,0,0.0
Mg7Bi,0.0,-1.450625000565253e-06,mp-1016327,0,0.0
TbMg4Cu,0.0,-0.096382321944445,mp-567690,0,0.0
MnFeSeS,0.0,-0.292986534443697,mp-1221700,0,0.0
Nd5As2ClO10,3.2983,-3.22806242625,mp-558340,0,5.0
Cs3AuO,1.3261,-0.866148916793104,mp-505212,0,2.0
Gd2Tl,0.0,0.46737612166667,mp-579628,0,0.0
Sn2Pd3Au,0.0,-0.396172375000015,mp-1219015,0,0.0
YAgO3,0.000999999999999,-2.153766481666667,mp-1369676,0,0.0
TiOF5,1.5871,-2.460329842261905,mp-731850,0,2.0
BaSrTbNbO6,2.982599999999999,-3.442391359666666,mp-1522360,0,4.0
SmInCo2,0.0,-0.205943415416666,mp-1079575,0,0.0
KBP2PbO8,4.5984,-2.62135429159249,mp-1223679,0,7.0
Cs2LiPrI6,2.960899999999999,-1.670642214431034,mp-1113008,0,4.0
PtPb,0.0,-0.311851534999995,mp-1066274,0,0.0
TiC,0.0,-0.965351713333333,mp-631,0,0.0
LuSiRh,0.0,-1.16640589222222,mp-22801,0,0.0
CuH20C2S3(NO)8,0.665,-0.7070208604761911,mp-696200,0,1.0
ScAu3,0.0,-0.6308624287499921,mp-972895,0,0.0
Lu2C3,0.0,-0.266005849166667,mp-15319,0,0.0
Na14Ga8Si7S5O48,2.8537,-2.372093051952972,mp-2715795,0,4.0
Cs2U2O7,1.5078,-3.274979256755456,mp-548479,0,2.0
CaLa4Ti3RuO15,0.0,-3.391557538541666,mp-1227252,0,0.0
HS2N(O2F)2,5.8161000000000005,-1.473873702625,mp-1105944,0,7.0
NaSmGeO4,3.6029,-2.829869232339901,mp-555904,0,5.0
FeH2(CN2)2,0.0,-0.041078075277777,mp-1188709,0,0.0
DyHoTl2,0.0,-0.436759467500003,mp-1183780,0,0.0
HoNpRu2,0.0,-0.212514578437499,mp-1184909,0,0.0
ScB2,0.0,-0.8867963533333341,mp-2252,0,0.0
KrF2,2.92,-0.009234352222222,mp-30009,0,4.0
CaBiF5,3.9514,-3.240805360714288,mp-1407843,0,6.0
La2Bi,0.0,-0.9098970450000032,mp-1077063,0,0.0
Mg2Al3,0.0,0.1060142615,mp-1210739,0,0.0
Ca3Pb3I14,0.0,-1.222109674499999,mp-771827,0,0.0
La2PC,0.0,-0.8693988911607161,mp-866691,0,0.0
Nd2Cu4Sn5,0.0,-0.251179446363635,mp-1205509,0,0.0
Bi5(S2Cl)3,1.4488,-0.55629623245533,mp-675345,0,2.0
Pr3GaFeS7,0.0,-1.758804516666665,mp-1191762,0,0.0
As2Pb8O13,2.0725,-1.634658171956522,mp-31107,0,3.0
Ba3Pa,0.0,0.7545531025000001,mp-1183382,0,0.0
LuSF,2.614099999999999,-3.289838426493053,mp-555850,0,4.0
Mg6ZnC,0.0,0.26770612875,mp-1022576,0,0.0
CrIr,0.0,0.007127100000005,mp-1226229,0,0.0
TlBiS2,0.4949,-0.6623738170833361,mp-554310,0,0.0
SrCa2WN4,2.6883,-1.23143243140625,mp-567568,0,4.0
Be(BH4)2,6.190300000000001,-0.242476565189394,mp-27344,0,7.0
Pr(CuGe)2,0.0,-0.5832343063333321,mp-4924,0,0.0
Fe2P2O8C2D10,3.6097159999999993,,,0,5.0
TbSnIr,0.0,-0.8422700272222181,mp-1205755,0,0.0
PrSi2Ag,0.0,-0.508420734583332,mp-1025554,0,0.0
Nd2Fe17C,0.0,0.285780813500001,mp-1220532,0,0.0
Fe2Ti4P4O20,1.762075,,,0,2.0
KNaSmNbO5,3.4945,-3.011719499292145,mp-556438,0,5.0
Mn4Cu4O8,0.588226,,,0,0.0
Se4S8C8N8,2.228753,,,0,3.0
YbCdAg2,0.0,-0.292216333750001,mp-865739,0,0.0
CsK2YF6,5.2336,-3.432307082415517,mp-1112240,0,7.0
Co,0.0,0.0,mp-102,0,0.0
TbSi2Rh3,0.0,-1.021624016111112,mp-754875,0,0.0
Tl2V6Se4O24,2.384772,,,0,3.0
CeEr,0.0,0.061628662499998,mp-1226960,0,0.0
CsTmS2,2.223999999999999,-2.112461235156249,mp-1078990,0,3.0
Zr2Fe2Cl12,2.632534,,,0,4.0
HfMg14W,0.0,0.17357545375,mp-1026467,0,0.0
Ru4I20K8N4O4,1.387537,,,0,2.0
SbN(OF3)2,3.0857,-2.0230342475,mp-1078298,0,4.0
C4SO2,1.4627,-0.341084214642857,mp-638445,0,2.0
K3InBr6,2.385399999999999,-1.648848100841666,mp-1111490,0,3.0
K3Cr(CN)6,1.9153,-0.262073139484375,mp-568773,0,3.0
SrAl2Au3,0.0,-0.642451484999999,mp-1190136,0,0.0
Sc3TlB,0.0,-0.418380284944441,mp-10140,0,0.0
Rb2CeAgI6,0.2128,-1.403327147666666,mp-1110825,0,0.0
Sr4As2,0.0,,,0,0.0
Te2S(O2F3)2,4.047899999999999,-2.137926823333333,mp-555457,0,6.0
BaCaDy2F10,2.8364000000000003,-3.916222968809524,mp-1228037,0,4.0
Ca4Co2O6,1.715167,,,0,2.0
Re2I12K4,0.727223,,,0,1.0
KNa3Mg4F12,6.57,-3.485649473069396,mp-1223410,0,7.0
CaHg11,0.0,-0.052588333680546,mp-30475,0,0.0
Mg4VN4,0.0,-0.960685053333334,mp-1246378,0,0.0
Ba3(ClO)2,2.4432,-2.889153341428571,mp-1178551,0,3.0
ThZr2,0.0,0.091328356666674,mp-1217329,0,0.0
NdBiO4,0.579699999999999,-2.408715061249998,mp-756400,0,0.0
Nb39C34,0.0,-0.516384108030824,mp-1173628,0,0.0
Al5O8,0.0,-3.231499842307692,mp-1182893,0,0.0
Pr5Ga3,0.0,-0.525225250104163,mp-669594,0,0.0
KNdZr2O6,2.5109999999999992,-3.362208780474999,mp-1522387,0,4.0
In4(P2O7)3,3.5933,-2.4978299786943152,mp-558065,0,5.0
Ag5TePO4,0.471299999999999,-1.141271934512986,mp-1191803,0,0.0
Ba2Zn2S2O2,2.372226,,,0,3.0
CdNO4,0.0432,-0.817214483749999,mp-726098,0,0.0
Li6ReN4,0.0,-0.734031787196971,mp-1246483,0,0.0
Sb8I2O11,1.2782,-1.551201914523809,mp-1219562,0,2.0
Na14Al4Sb10,0.240945,,,0,0.0
MgAsPd2,0.4189,1.384740686875,mp-1097674,0,0.0
Dy2B6Ru,0.0,-0.669916522592591,mp-1198707,0,0.0
Ru3C10(NO6)2,1.0966,-0.8905803471296291,mp-680280,0,1.0
Na6B4Sb2PO16,0.0,-2.395374068951219,mp-780399,0,0.0
Te2W3S4,0.0,-0.54574226958333,mp-1025586,0,0.0
YGaCu2,0.0,1.856744715625,mp-1095918,0,0.0
Er5P12Ir19,0.0,-0.8000368665476161,mp-1225792,0,0.0
KZnSi3(H11C4)3,2.7228,-0.198541685820709,mp-1203909,0,4.0
Ba3HfNb4O15,2.2464,-3.320587975652173,mp-1228349,0,3.0
Sm(BC)2,0.0,-0.528827930999997,mp-6916,0,0.0
GaGeP(SO6)2,2.1412,-2.038230686988795,mp-2713069,0,3.0
Rb6CdO4,1.291,-1.255203589545454,mp-1209286,0,2.0
Y6Ta4Al43,0.006,-0.334880393855344,mp-1207857,0,0.0
Cs4MgZr3(PO4)6,3.7689,-3.066301630696785,mp-690929,0,6.0
Sr(BiPd)2,0.0,-0.5991461920000001,mp-567114,0,0.0
Zn4P3O13,0.0,-2.070997193446428,mp-1216289,0,0.0
In4As5(BrO4)3,2.987999999999999,-1.701521488923611,mp-1200791,0,4.0
TaTiSe4,0.0,-1.27394123667361,mp-1217829,0,0.0
MgAg14(PbO3)6,0.066199999999999,-0.877956412521366,mp-1233398,0,0.0
Sn1Cl6N2H8,2.260433,,,0,3.0
TeW2S3,0.0,-0.553927702656248,mp-1028512,0,0.0
AlSiTc2,0.0,2.88540939688138,mp-1095930,0,0.0
Cs2U4Nb4O23,1.838499999999999,-3.286115133766979,mp-1228671,0,2.0
Bi4S4I4,1.835079,,,0,2.0
Ca4Sb2O,0.907899999999999,-1.781754134999996,mp-13660,0,1.0
Nd2NiGe3,0.0,-0.636409153333332,mp-1220397,0,0.0
Sc3SnB,0.0,-0.6759556734999991,mp-10139,0,0.0
TbGa2,0.0,-0.7846199033333341,mp-2684,0,0.0
Cr3AsN,0.0,-0.337746798499999,mp-22209,0,0.0
Mg5(SiO3)6,0.128299999999999,-3.051653312068966,mp-1198184,0,0.0
Ba1Ti1O3,2.45777,,,0,3.0
Rb2Na(NO3)3,3.014199999999999,-1.397380374758622,mp-1020630,0,4.0
Ca(CdSb)2,0.102,-0.517741565999997,mp-7430,0,0.0
Mg2Mo3WS8,0.163,-0.8514654542857131,mp-1246595,0,0.0
PaTaO3,0.0,-2.613868040466667,mp-1186403,0,0.0
Ba3SrIr2O9,0.0,-2.328023163,mp-554266,0,0.0
Cs8In8S16,2.178535,,,0,3.0
Na3Be3Pb2F13,5.3256,-3.160545298054187,mp-1221271,0,7.0
H10C3NClO4,5.6433,-0.367658358815789,mp-560498,0,7.0
HfMg14C,0.0,0.2720540428125,mp-1026630,0,0.0
DyTlCu,0.0,-0.227941463000002,mp-1225954,0,0.0
NaHoF4,6.8743,-4.000236969166667,mp-675798,0,7.0
Sn3(AsO4)4,0.568299999999999,-1.590664148260869,mp-1047488,0,0.0
Re3(Cl5O4)2,0.0,-0.297285669761905,mp-1179612,0,0.0
BaEuDySnO6,0.0,-3.023078161416667,mp-1521304,0,0.0
CsPr2Ti2NbO10,1.5705,-3.402494333728448,mp-1228959,0,2.0
Ti2(CN2)3,0.0,-0.6120820771212131,mp-1246224,0,0.0
Rb2SbAuCl6,0.377499999999999,-1.500795139499999,mp-1111715,0,0.0
SmMg3,0.0,-0.082707537499998,mp-30779,0,0.0
Lu2Al3Fe,0.0,-0.415488330555553,mp-1222342,0,0.0
La8Zr4Se20,0.772915,,,0,1.0
K2TaTlF6,0.0,-2.668923663516667,mp-1111415,0,0.0
GdMgAu,0.0,-0.669280926111105,mp-580154,0,0.0
La13Cd58,0.0,-0.253934309859153,mp-581920,0,0.0
K2AsAuS4,0.9987999999999992,-0.878102668375,mp-9511,0,1.0
Rb3Ir,0.1087,0.7905514543750001,mp-974949,0,0.0
NbVW2,0.0,4.892137030000001,mp-1093743,0,0.0
La(SiRh)2,0.0,-1.044830758999997,mp-5936,0,0.0
YH18C3S3(O2F)9,5.959099999999999,-1.659149296923076,mp-540956,0,7.0
Sr3Nd2Nb10O30,0.0,-3.210196111222222,mp-1218643,0,0.0
PbAuO3,0.0,-0.6029205189999991,mp-982245,0,0.0
Tl2GeF6,4.7147000000000014,-2.432599606666665,mp-1208162,0,7.0
V3P,0.0,-0.7141346001190471,mp-18350,0,0.0
La5Cu5O13,0.0,-2.511112312608697,mp-753437,0,0.0
PaOsO3,0.0,-1.652130342999999,mp-1186404,0,0.0
YNi4B,0.0,-0.475623711527776,mp-7559,0,0.0
Ba(NiN)2,0.0,-0.357389526,mp-1247460,0,0.0
La4Os,0.0,0.257756405999998,mp-1211568,0,0.0
Ge1Ca3O1,0.0,,,0,0.0
KNaSi2O5,4.5364,-2.906399697347701,mp-557679,0,7.0