formula,bg,formation_energy,mp-id,fidelity,bg_category
Na6Ca4Ta4Si5S7O48,1.4603000000000002,-2.642933455992467,mp-2716046,0,2.0
Lu11(Ni10C)6,0.0259,-0.292044648484848,mp-1203980,0,0.0
Ba1Li1F3,6.586627,,,0,7.0
LiRh2N3,0.0,0.15600983451389,mp-1245613,0,0.0
TiCu2Te3,0.0,-0.488242698611112,mp-541754,0,0.0
MgNi4(PS)4,0.0,-0.477370564890109,mp-2241116,0,0.0
Re3P4,0.0,-0.419484654200679,mp-1474,0,0.0
Sr2Cu1W1O6,0.795474,,,0,1.0
TbSb3,0.0,0.7098243118750031,mp-1208309,0,0.0
Rb2Te(H6O5)2,3.0252,-1.426026749666666,mp-558396,0,4.0
K(In3Au2)2,0.0,-0.257564454295453,mp-567545,0,0.0
BaZnSn,0.0,-0.525703331666667,mp-31148,0,0.0
CeSnPd4,0.0,-0.7218578089583321,mp-1197289,0,0.0
CeAsO3,0.286099999999999,-2.818903420749999,mp-1195015,0,0.0
LiLuIn2,0.0,-0.445900235833331,mp-1185369,0,0.0
MgMo3W(SeS3)2,0.0,-1.007256198822115,mp-2219351,0,0.0
EuCoGe3,0.0,-0.451206875000002,mp-10690,0,0.0
Sc2GaB2Rh5,0.0,-0.890809058583332,mp-542024,0,0.0
CsAgF3,0.0,-2.063023354,mp-561920,0,0.0
Ca2TaTiO6,0.0,-3.445841080066666,mp-1373655,0,0.0
LuB2Ir3,0.0,-0.689254534166671,mp-1024990,0,0.0
KTa2O6,0.0,-2.9462573063240742,mp-1223256,0,0.0
CN,4.8638,0.5111094381249981,mp-27461,0,7.0
FeNCl3,0.0,0.153870783999999,mp-1212990,0,0.0
K4Na2Al2As4,1.066456,,,0,1.0
KRb2LaCl6,4.7565,-2.472246867725,mp-1114123,0,7.0
Na3TaF8,4.8651,-3.317658471027778,mp-17245,0,7.0
EuAsO4,0.0,-2.453927178750007,mp-13576,0,0.0
Li2Nb1F6,0.016797,,,0,0.0
OsCl4,0.0,-0.516484928000002,mp-571035,0,0.0
CsZr6MnI14,0.5971000000000001,-1.212039032844827,mp-570192,0,0.0
Ti2Be17,0.0,-0.198756861666667,mp-1201649,0,0.0
Cu2Si2F12O8H16,2.621435,,,0,4.0
Cs2LiBr3,4.3476,-1.961647589607278,mp-1095674,0,6.0
Ca2CdH24(ClO2)6,4.3913,-1.474097778,mp-720868,0,7.0
NiAg2Sn3S8,0.255699999999999,-0.5970052913095161,mp-1220114,0,0.0
Mn4F16O4Li4H8,1.942928,,,0,3.0
U4Ga12Fe,0.0,-0.235760387647057,mp-642477,0,0.0
CaAs2(XeF5)4,2.6249,-1.934836184074074,mp-557180,0,4.0
K4B10H4O19,5.1195,-2.559081467855856,mp-1197401,0,7.0
Tl3Ir(NO2)6,0.0,1.010915487272726,mp-20116,0,0.0
Te(RhO3)2,0.0,-1.267517131851851,mp-1208293,0,0.0
Si3Au10,0.0,0.0481247476923,mp-1219349,0,0.0
Fe(NiSe2)2,0.0,-0.527306065624999,mp-1025359,0,0.0
ErNi2,0.0,-0.480249809999998,mp-1939,0,0.0
UBiTe,0.0,-0.834864838333345,mp-972408,0,0.0
Eu6Mg7H26,0.4268,-0.467652147115384,mp-697962,0,0.0
Sr3N2,0.3481,-0.6396512315,mp-986716,0,0.0
Ga4S4,1.698187,,,0,2.0
Na8La2Zr2Si5SO24,3.628,-2.969580704488917,mp-2715581,0,5.0
Mg14VB,0.0,0.271821631302083,mp-1028283,0,0.0
Bi7RhBr8,1.104899999999999,-0.7883284354687511,mp-29516,0,1.0
La3AlO,0.0,-1.473911112000002,mp-1206996,0,0.0
Li3MnN2,0.0,-0.541449458821839,mp-1246635,0,0.0
Ba2CuC(NO)2,0.0,-1.472068381875,mp-1021669,0,0.0
CaZrN2,0.3938,-1.796189295625,mp-1029267,0,0.0
LaSiNi4,0.0,-0.5417325258333341,mp-1071627,0,0.0
Nb3P,0.0,-0.6365586055357141,mp-505528,0,0.0
Cr3Co2,0.0,0.078546827000002,mp-1226444,0,0.0
Ca2Ni12As7,0.0,-0.466517389166666,mp-1191589,0,0.0
Li2Ge(S2O7)3,3.7659,-1.852932946333333,mp-1080241,0,6.0
Er(CuS)3,1.445599999999999,-1.001650598824403,mp-1225120,0,2.0
La11In9Ni4,0.0,-0.497009142291669,mp-974045,0,0.0
H9PtC3Br,3.6463,-0.161589429196428,mp-1199369,0,5.0
Ba(SmS2)2,1.759,-2.397762902500001,mp-1194376,0,2.0
Sc6CuTe2,0.0,-0.6928869853703701,mp-1209096,0,0.0
Cu2H4CO5,0.0,-1.079593268333334,mp-1192779,0,0.0
Er2Ru2O7,0.0,-2.606790154090907,mp-30902,0,0.0
Mn2S3,0.0,-0.903138795480602,mp-974355,0,0.0
TeWS,0.0,-0.404362260104169,mp-1028761,0,0.0
Cs2SiO3,3.6834,-2.605466210162837,mp-505734,0,5.0
SrLi2Si,0.1927,1.393785535833333,mp-1096762,0,0.0
DyRe2SiC,0.0,-0.460577265333333,mp-1206141,0,0.0
Y(CuS2)3,0.0,-0.5371979755156271,mp-1353425,0,0.0
Ce2Sb4Ir3,0.0,-0.687352046388888,mp-1196528,0,0.0
Cs2ZrF6,6.697699999999999,-3.6710611049999993,mp-7903,0,7.0
CaHg(IO2)4,0.3824,-0.847544912321429,mp-735135,0,0.0
GdRhO3,0.0,-2.071613033000001,mp-1184503,0,0.0
Se4Ti2O12,2.36771,,,0,3.0
Na4TaAl3(PO4)6,3.561899999999999,-2.931043694229151,mp-1221172,0,5.0
SmRe3O16,0.3552,-1.5623426005,mp-1209603,0,0.0
YbNdCd2,0.0,-0.365749085624997,mp-971702,0,0.0
K12Mn2S8,1.873255,,,0,2.0
Sc2InTc,0.0,2.386394297083334,mp-1093836,0,0.0
Sc3Os,0.0,-0.173217879999999,mp-1186981,0,0.0
BaCeEuHfO6,0.0,-3.8427719149999993,mp-1516655,0,0.0
K2CuH14C4(N3O4)2,1.094199999999999,-0.9921232724857152,mp-1202524,0,1.0
Er4Sb3,0.0,-1.08963017547619,mp-12052,0,0.0
Ba2PrMgCu3O7,0.0,-2.036724896547618,mp-2228452,0,0.0
Ce3Pb,0.0,-0.276019757499997,mp-570018,0,0.0
KAuF6,2.1117,-1.8190603521562492,mp-12442,0,3.0
Pb9(Br5O2)2,2.9717,-1.388803789130432,mp-28041,0,4.0
Cs5Nb2Br9S4,1.768219,,,0,2.0
Pd2Tl4C8N8,2.678435999999999,,,0,4.0
TbSnPt2,0.0,-0.9968021866666632,mp-1078626,0,0.0
La3U(ClO2)3,1.577199999999999,-3.608026729230769,mp-554303,0,2.0
Dy4Ga21Ni10,0.0,-0.509113620690475,mp-1185142,0,0.0
Ca17(Y7S19)2,0.0,-2.169813985751823,mp-686346,0,0.0
LuCo4B,0.0,-0.314640925972224,mp-1210782,0,0.0
Co3Re25B12,0.0,-0.230656726587511,mp-1226569,0,0.0
Bi4(TeSe)3,0.3444,-0.366819922718752,mp-1227439,0,0.0
SrS2,1.2822,-1.593265490208332,mp-1950,0,2.0
Sr3CaRu2O9,0.0,-2.481131521500001,mp-557111,0,0.0
Al2K2O4,2.972557,,,0,4.0
SrIn4,0.0,-0.25857772733333,mp-567207,0,0.0
Nb4AgBi5O18,2.140799999999999,-2.305072142916668,mp-1220551,0,3.0
Nb2CrMo2,0.0,0.064228848000004,mp-1220705,0,0.0
Sr2CuGe2O7,0.0,-2.391299852083332,mp-17265,0,0.0
Mg14NbSn,0.0,0.0572766178125,mp-1026404,0,0.0
In2Te3,0.136499999999999,-0.441935591555554,mp-1223866,0,0.0
EuAlO3,0.0,-3.324379768500001,mp-21455,0,0.0
Co2Te2Mo2O12,2.174252,,,0,3.0
Na10Ta4Si11Sn4SO48,3.2592,-2.816282981631963,mp-2716493,0,5.0
TmSbPd2,0.0,-0.904551244999996,mp-866205,0,0.0
Sm3Bi(Ru2O7)2,0.0,-2.295351373863636,mp-1219209,0,0.0
InP2PbO8,0.0,-2.302554845704364,mp-1204811,0,0.0
Ba8Mn8Bi8O4,0.640508,,,0,1.0
NaCaCeSbO6,2.0266,-2.72941293413793,mp-1521478,0,3.0
K2MnN2,0.0,-0.353524028986207,mp-1246385,0,0.0
Gd2AgAu,0.0,-0.5509218812499981,mp-1184381,0,0.0
PmYRh2,0.0,-0.7469928868749981,mp-1186677,0,0.0
K3NaSi6(SnO10)2,0.26,-2.545252559316541,mp-1224587,0,0.0
GdAl7Au3,0.0,-0.5655467863636361,mp-22711,0,0.0
UB4Os,0.0,-0.491481310277777,mp-1095488,0,0.0
La6Mn2Al2S14,2.195952,,,0,3.0
TlBSe3,0.9154,-0.297648988937498,mp-29959,0,1.0
Nd3Ga5SiO14,3.5227,-2.938829264347825,mp-1220307,0,5.0
Gd3Si2S8Br,0.0,-1.77868656392857,mp-1194050,0,0.0
LaMgCd2,0.0,-0.312525934999999,mp-867848,0,0.0
ZrGaCo2,0.0,-0.429421736875,mp-1188052,0,0.0
Cr8S12O48,2.66919,,,0,4.0
Lu2ZnAg,0.0,-0.375621630833332,mp-973653,0,0.0
Ca4Sb2,0.0,,,0,0.0
NdMg(BO2)5,5.9713,-3.096820669019608,mp-1210080,0,7.0
Sr2PrBiO6,1.7451,-2.7672128346666662,mp-1516990,0,2.0
NdTiGe,0.0,-0.7431613880555541,mp-22331,0,0.0
TbCdAu,0.0,-0.645446068888887,mp-1205950,0,0.0
Te4WCl6,0.0,-0.5802986790151501,mp-616228,0,0.0
Ce3Ho,0.0,0.09429760875,mp-1183838,0,0.0
CaBiF6,0.0372,-2.888242355625001,mp-1387328,0,0.0
TmTlSe2,1.1879,-1.595562889531248,mp-1067280,0,1.0
MgVCr3S8,0.480699999999999,-1.115814630384614,mp-1246349,0,0.0
Ca5Ga3,0.0,-0.429381379374998,mp-1189870,0,0.0
MnCdSe2,0.2055,-0.723800653154632,mp-1221646,0,0.0
Ga3GePt8,0.0,-0.487357615624998,mp-1224871,0,0.0
BiAuO2,1.0829,-1.1179759625,mp-997082,0,1.0
Si3W5,0.0,-0.1436224025,mp-31219,0,0.0
Li5IO6,2.590699999999999,-1.899762689305558,mp-1211142,0,4.0
Mg2Al3WS8,0.4324,-1.2651164642857131,mp-1247155,0,0.0
Ce7Ru3,0.0,-0.270621242999997,mp-31164,0,0.0
MgTiF5,0.266399999999999,-3.666989048333334,mp-1443056,0,0.0
CS4N2(OF)3,1.3824,-0.988897245961537,mp-555309,0,2.0
TeCF3,2.5075,-1.328688632958338,mp-29429,0,3.0
MnV2Fe,0.0,-0.191578074482759,mp-1186011,0,0.0
Y2AlNi2,0.0,-0.513972116,mp-604516,0,0.0
Y1K1O9C4H4,4.012872,,,0,6.0
Mn6Mo6P7,0.0,-0.501405525267695,mp-1210673,0,0.0
NdMgTl2,0.0,-0.23885198729167,mp-975184,0,0.0
LiSiNi2,0.0,-0.487065033333332,mp-10181,0,0.0
Co2(GeTe)3,0.4535,-0.158883350937497,mp-2994,0,0.0
TbZnNi,0.0,-0.454986832222221,mp-13536,0,0.0
Rb2CdCl4,3.1677,-1.9395278435714292,mp-29873,0,5.0
CrN,0.0,-0.726675164374999,mp-1232890,0,0.0
Ce9DyO20,0.0,-3.85047666372222,mp-674320,0,0.0
C13Cl3,2.1018,0.197431000611979,mp-646059,0,3.0
NdCu2,0.0,-0.196883715833332,mp-11852,0,0.0
Ta4Te16PtI8,0.0,-0.293886976413792,mp-1208488,0,0.0
Ag2Cs2C4,2.516797,,,0,4.0
K2SnN2,0.0,0.185484442099999,mp-1245945,0,0.0
Sn2Cu2O12N4H24,1.937696,,,0,3.0
Sb10Se10Al2Cl8,1.202957,,,0,1.0
Pt3Fe2N12C12,1.746416,,,0,2.0
Rb2Pt3S4,1.4542,-0.9379258116666632,mp-4030,0,2.0
YbHoHg2,0.0,-0.5737131362500061,mp-1187616,0,0.0
PrMgTi2O6,0.0,-3.408052724333333,mp-1044092,0,0.0
Li3Tb,0.0,0.21079133125,mp-1185282,0,0.0
SrZr7N10,0.8078000000000001,-1.669717822083318,mp-1245834,0,1.0
Ho3TaO7,3.4507,-3.87093620930303,mp-31416,0,5.0
La2ZnCu,0.0,2.002400094999999,mp-1093834,0,0.0
Na2N2O3,0.464799999999999,-0.91025062634647,mp-1173776,0,0.0
Lu2Cu(B2O5)2,0.6675,-3.037570600588235,mp-17268,0,1.0
Ce4Si2S3O7,0.0,-3.176806382343748,mp-561726,0,0.0
Mg2InW3S8,0.0596,-0.980516148333332,mp-1246242,0,0.0
YbGa2,0.0,-0.6898012116666661,mp-13449,0,0.0
Ce4C4Br3,0.0,-1.084614049545454,mp-569330,0,0.0
AgBi2Se3Cl,0.549999999999999,-0.495857170907746,mp-569939,0,0.0
Y(CoGe)2,0.0,-0.597658338,mp-4908,0,0.0
Dy3ReO7,0.0,-3.362467477954543,mp-1191990,0,0.0
CsRb2GaF6,5.539300000000001,-2.9955569472155172,mp-989629,0,7.0
LaTbC4,0.0,-0.322121387812501,mp-1222729,0,0.0
K2EuAuCl6,0.0,-1.87955891895,mp-1112428,0,0.0
CrH9(CN2)3,0.4028,-0.274746534539473,mp-504919,0,0.0
Tm2NiGe6,0.0,-0.485971786666668,mp-1205942,0,0.0
ErPt3,0.0,-1.144343858333336,mp-1913,0,0.0
Ba(YSe2)2,1.4872,-2.240760022410714,mp-1193099,0,2.0
TiNbHO5,2.820599999999999,-2.865200347447918,mp-1216937,0,4.0
EuMnBi2,0.0,-0.354298520732761,mp-1078314,0,0.0
HfTeS,0.0,-1.378788370937504,mp-1224272,0,0.0
W4Na4O14,2.220656,,,0,3.0
Te2WCl6,0.0,-0.714394174537037,mp-662513,0,0.0
SrTlCu3Se4,0.2198,-0.349868555324071,mp-1179060,0,0.0
Sc4Co7Ge6,0.0,-0.60202990764706,mp-1190179,0,0.0
NaH4ClO2,4.923,-1.458138004547413,mp-504600,0,7.0
K2LiNdCl6,4.8605,-2.284230588666671,mp-1110867,0,7.0
Sc3NbP2(SO6)4,2.2919,-2.6885184073809523,mp-2712915,0,3.0
Hf4V8O28,2.690907,,,0,4.0
Eu2HfTiO6,0.003499999999999,-3.622099957333334,mp-1521653,0,0.0
Ho3Rh2,0.0,-0.777818700714282,mp-1200753,0,0.0
Na2CaSiSn(SO6)2,0.789,-2.334245148127646,mp-2713701,0,1.0
VAsRh,0.0,-0.5563890249999991,mp-20395,0,0.0
Zr2P2O9,4.1075,-3.299050528021978,mp-27132,0,6.0
Na4Cu3S8N5O12,0.0,-0.490354097516164,mp-1203070,0,0.0
Ti3Cr3Si5,0.0,-0.345729145795453,mp-1217231,0,0.0
LaBr3,2.9266,-2.423042803749999,mp-23263,0,4.0
MnAlCu2,0.0,-0.130849419482758,mp-3574,0,0.0
Ba4PrNd(Cu3O7)2,0.0,-2.148963025352563,mp-1228202,0,0.0
Ca4Cu2Zn4P6,0.307293,,,0,0.0
NaB11H12C,5.7094000000000005,-0.196507191628114,mp-2646947,0,7.0
NaNdSe2,1.8121,-1.964508348906246,mp-999471,0,2.0
SrPt2,0.0,-0.934931951666664,mp-1349,0,0.0
Sn(PS3)2,1.194299999999999,-0.354657503647487,mp-36381,0,1.0
Li2NdAl,0.0,-0.227230827708332,mp-866178,0,0.0
Ba3Bi2RuO9,0.4466,-2.219612243666668,mp-1228299,0,0.0
Np3H,0.0,0.241398929218753,mp-1206932,0,0.0
UH12(ClO2)3,0.5733,-1.437660061363636,mp-24333,0,0.0
Ba2Y2Fe4O10,0.281613,,,0,0.0
Ce2(Zn2Ge)3,0.0,-0.385433355,mp-11665,0,0.0
Ba2Zn(P3O14)2,0.9096,-1.751510279401544,mp-1182747,0,1.0
PRhS,1.3994,-0.838464131929564,mp-1219924,0,2.0
Cs2NaTlCl6,1.9178,-1.8345188524023,mp-1112527,0,3.0
Cd(W3Br7)2,2.0519,-0.903951352738094,mp-29052,0,3.0
CeSmFe4,0.0,0.0058716725,mp-1226561,0,0.0
Li4Ti3NbO8,0.0,-2.822163981458333,mp-756660,0,0.0
Al(OF)3,0.382,-1.138839335714285,mp-1096807,0,0.0
Mn2P2Rb2,1.103369,,,0,1.0
EuNiGe2,0.0,-0.605846436250001,mp-1080556,0,0.0
ErSn3,0.0,-0.389093261249999,mp-11372,0,0.0
ScNbO4,3.3026,-3.466261806666667,mp-553961,0,5.0
RbHSO2,3.2989,-1.61750887075,mp-1189251,0,5.0
Ca2MgAg3,0.0,-0.274192746666665,mp-1227417,0,0.0
Na2Si5Sn4Ge4S7O48,1.4407,-2.133456121979885,mp-2716139,0,2.0
PrMg2Cu9,0.0,-0.156007577222222,mp-13220,0,0.0
Ba3Dy2(PS4)4,2.418999999999999,-1.4917140576761891,mp-560798,0,3.0
SrAlSi,0.0,-0.455122275,mp-3698,0,0.0
Pr3Si2,0.0,-0.5727084449999971,mp-1079937,0,0.0
Sm3TmS4,0.0,-2.239537793125,mp-1219179,0,0.0
Zr2SO3,1.0071,-2.854348773750001,mp-1215422,0,1.0
Gd3I,0.0,-0.19232876875,mp-1184423,0,0.0
Gd2Si3Ni,0.0,-0.6948975233333351,mp-1224775,0,0.0
Ho2MgIn,0.0,-0.288879742916662,mp-977392,0,0.0
KMg3,0.0,0.203519626749999,mp-1016287,0,0.0
Cu1Br1La1Nb2O7,0.0,,,0,0.0
Ce3(Si3Pd10)2,0.0,-0.7836776331034511,mp-1192814,0,0.0
W3I8,1.064,-0.393111996022726,mp-1196387,0,1.0
Al(SO6)2,0.0,-0.8852573573333341,mp-1204923,0,0.0
Li2HoIn,0.0,-0.271620682083331,mp-865622,0,0.0
Li2SbPd,0.0,-0.713076248333331,mp-10180,0,0.0
Re(Te2Mo)2,0.0,-0.466002064166667,mp-1219145,0,0.0
Tb5Pt4,0.0,-1.268977607222217,mp-1198980,0,0.0
Na9Ca2Nb10Si9(PO8)9,2.3739,-2.959203506344141,mp-2712917,0,3.0
LiBiS2,1.4793,-0.986257074583332,mp-1222404,0,2.0
La4Ti4O12,0.0,,,0,0.0
Si5Mo10P,0.0,-0.386090603467266,mp-1219291,0,0.0
MgZr2Tc,0.0,3.0548849725,mp-1096262,0,0.0
RbNdSe2O11,0.958299999999999,-1.1236285473125,mp-1194243,0,1.0
LaThPb6,0.0,-0.339613338124999,mp-1223029,0,0.0
Mn3FeN3,0.0,-0.333848030541872,mp-1247277,0,0.0
Nb3AgO8,1.5603,-2.657896582222223,mp-16837,0,2.0
SbPdSe,0.0,-0.443803751354167,mp-4368,0,0.0
LuBiPt,0.0,-1.140844233888884,mp-1206992,0,0.0
RuC4(IO2)2,2.061099999999999,-0.922383283636364,mp-672184,0,3.0
U2NiGe2Pd,0.0,-0.40444413083333,mp-1216885,0,0.0
Lu2CuAs3,0.1633,2.309589139444448,mp-1207304,0,0.0
Na2TiN2,0.0,-0.8025616676436781,mp-1247552,0,0.0
MnGePd,0.0,-0.291409818754788,mp-610972,0,0.0
LiAg2Pd,0.0,-0.193859034166667,mp-974634,0,0.0
Li3Ga2,0.0,-0.368982908,mp-9568,0,0.0
Y3Se4,0.0,-2.135785200178572,mp-32727,0,0.0
Ba5Nb4O15,2.5999,-3.271554933958334,mp-3563,0,4.0
Cu1O8N10H12,1.87019,,,0,2.0
In2CuS4,0.0,-0.5648328573586361,mp-1212041,0,0.0
Cs3AlAs2,0.969,-0.476871602119253,mp-582723,0,1.0
Pr3AlC,0.0,-0.231287657222222,mp-10039,0,0.0
Cs2Sn2S6,1.656552,,,0,2.0
Ca3Y2(GeO4)3,3.426599999999999,-3.078806506875,mp-669331,0,5.0
Bi12Cr4O30,2.248186,,,0,3.0
Cs2Ti(Si2O5)3,3.5085,-3.19604436552682,mp-6748,0,5.0
Ca5As3CO12,0.7066,-2.316473752261904,mp-1214089,0,1.0
ZnCuF5,0.0,-2.015590484285713,mp-1369804,0,0.0
Mg4Sn6Pt5,0.0,-0.644006683999999,mp-1222154,0,0.0
K2HS2NO6,5.2849,-1.774226852145833,mp-695383,0,7.0
Bi7O5F11,3.9069,-2.425375946086959,mp-1190898,0,6.0
In4O8H4,1.682003,,,0,2.0
NaTb(Pd3O4)2,0.020699999999999,-1.443742751752872,mp-1209956,0,0.0
BeCrIr2,0.0,3.10487353625,mp-1097173,0,0.0
GdNiAs,0.0,-1.051586172499998,mp-1206977,0,0.0
Mg5ZnN4,0.79,-0.6685431415,mp-1246773,0,1.0
Mg14ZnMo,0.0,0.115351065,mp-1028005,0,0.0
Ga5Rh3,0.0,-0.597840527187498,mp-30923,0,0.0
Sm4Fe31Co3,0.0,0.004127271842104,mp-1219400,0,0.0
ZnB2(NF2)4,0.6404000000000001,-0.8195326793888891,mp-1199452,0,1.0
BaCaCO3,0.0,-2.104458599166666,mp-696695,0,0.0
ThN,0.0,-1.771323434374998,mp-834,0,0.0
CsScCl3,0.0,-2.2092879565,mp-27359,0,0.0
La2O3Li1H1,1.954535,,,0,3.0
Ca2Cu6Sb4Cr4O24,1.37663,,,0,2.0
NdInNi2,0.0,-0.403820976041664,mp-1079595,0,0.0
HfS,0.0,-1.691345381406254,mp-1206743,0,0.0
CoP3,0.0,-0.495244297857142,mp-1944,0,0.0
AgSbN2,0.015599999999999,0.335179069166667,mp-1247477,0,0.0
Ba2Sb3O8,0.0,-2.249451882307691,mp-1042189,0,0.0
Sr4RhN4,0.0,-0.5374577502777741,mp-1246313,0,0.0
Na5NbO5,2.637499999999999,-2.228964725172415,mp-5477,0,4.0
Ni10SnP3,0.0,-0.431534245399658,mp-29885,0,0.0
Zr4(AlC2)3,0.0,-0.7534914796153851,mp-569326,0,0.0
ZnCdAg2,0.0,-0.0503267012499999,mp-1215496,0,0.0
Cu4Au,0.0,0.064797944,mp-1225761,0,0.0
Na7MgAl3(PO4)6,4.7417,-2.841436347703553,mp-2714118,0,7.0
Tl2Pt3,0.0,-0.160020050000002,mp-30853,0,0.0
Y12Co5Bi,0.0,-0.239281165555553,mp-1207809,0,0.0
Sr4GaCN5,1.4465,-0.8653635839772731,mp-672334,0,2.0
K2YCl5,4.783200000000001,-2.41867705625,mp-1211533,0,7.0
Ca3PCl3,1.8419,-2.253346153639455,mp-29342,0,2.0
KICl4O,0.0,-0.758657857464285,mp-743256,0,0.0
CsSiBiS4,2.4826,-1.099223499950739,mp-558426,0,3.0
B1P1S4,2.098655,,,0,3.0
VSiOs2,0.0,-0.430694701250004,mp-865506,0,0.0
Tl2Cu6Se4,0.4292709999999999,,,0,0.0
Sb4O9,0.0,-1.564208818076924,mp-1041270,0,0.0
Rb3TmF6,5.9785,-3.56506299125,mp-1205998,0,7.0
Rb3Br1O1,0.290651,,,0,0.0
Y2ZnOs,0.127799999999999,2.395038386923076,mp-1097265,0,0.0
Si2Sb15O28,0.4383,-1.79375582911111,mp-1044140,0,0.0
DyTmCd2,0.0,-0.287128220416666,mp-1184116,0,0.0
Ba2NO6,0.251799999999999,-1.582268682777777,mp-1078941,0,0.0
Eu(In4Rh)2,0.0,-0.344447881893946,mp-21952,0,0.0
ZnAg2C4(SN)4,3.0031,-0.026998848398811,mp-559335,0,4.0
Pt1Re2O12C12,1.834938,,,0,2.0
Na5Zr2Si6ClO20,0.0,-2.79094565520284,mp-1201520,0,0.0
LiEr2Tl,0.0,-0.177070156666667,mp-976744,0,0.0
ZnCr8Cu3Se16,0.0,-0.7779419634821411,mp-1215824,0,0.0
Pr5Sn3,0.0,-0.671518957291665,mp-570696,0,0.0
Nb17Ir3Se40,0.0,-0.979524376729167,mp-674017,0,0.0
Mn6VSi5HO19,0.7677,-2.639695536057381,mp-729576,0,1.0
Mn12Zn4CN3,0.0,-0.326948487425092,mp-1222039,0,0.0
NbGaO4,3.4012,-2.724292765416665,mp-7601,0,5.0
Nd3Al,0.0,-0.229044203124999,mp-1080098,0,0.0
H15IrBr3N5,3.0246,-0.60524000171875,mp-1205028,0,4.0
Cd5(SiO5)2,0.0,-1.908116657941176,mp-1182036,0,0.0
Yb3SnH2,0.0,-0.6553128304166661,mp-1207571,0,0.0
Rb18Mg6B29O58F,3.7864999999999993,-2.776975914248511,mp-1200013,0,6.0
DyYRh2,0.0,-0.8461059754166651,mp-979917,0,0.0
TbAl7Fe5,0.0,-0.394125295128204,mp-1217593,0,0.0
Sr4Sb2Sc2O12,3.488161999999999,,,0,5.0
LuNpO3,0.049299999999999,-3.107431188083334,mp-1185498,0,0.0
Ba2Mo4Se4O22,2.168454,,,0,3.0
U3Cu,0.0,0.179065667500005,mp-1187776,0,0.0
Ce3(MgRh2)2,0.0,-0.602696566666665,mp-1226900,0,0.0
TiVW2,0.0,4.655468016666663,mp-1097130,0,0.0
Ho4CdPd,0.0,-0.438006155416663,mp-1212312,0,0.0
LiCu2BP2(HO5)2,0.6144000000000001,-2.103776531904762,mp-1199484,0,0.0
NdP5O14,5.5926,-2.823288783535714,mp-560681,0,7.0
H5(C2N3)6,0.042699999999999,-0.106805800892857,mp-1202134,0,0.0
CsMg6AlO8,2.0891,-2.346000824978448,mp-1033065,0,3.0
Mg4Ta2O9,4.2018,-3.240302830644448,mp-17481,0,6.0
CdB4O7,4.1707,-2.649513388680555,mp-13603,0,6.0
YCu,0.0,-0.245902609999999,mp-1080443,0,0.0
Ni3Sn2,0.0,-0.2608192055,mp-669720,0,0.0
CaAlSiO4F,5.2089,-3.54634152625,mp-6873,0,7.0
Rb2Hg(CN)4,5.7607,-0.089247000454547,mp-619486,0,7.0
Ho2Ni2Sn,0.0,-0.594722595999999,mp-1078261,0,0.0
TiVS2,0.0,-1.405375185833332,mp-1216761,0,0.0
Zn(GaSe2)2,1.400099999999999,-0.915275577767856,mp-15776,0,2.0
Na6Sn2P(CO4)4,0.0,-2.029484959238576,mp-769373,0,0.0
Dy4MgCo,0.0,-0.133090871527772,mp-1212913,0,0.0
V12O26,1.139369,,,0,1.0
Tm(Ni2As)2,0.0,-0.6200749178571441,mp-1104519,0,0.0
As8S9,1.7164,-0.156522180606617,mp-31070,0,2.0
Mg2Te3O8,3.5007,-2.053979498461537,mp-769077,0,5.0
LiNd(C2O5)2,1.0943,-1.6149109170833331,mp-1211846,0,1.0
Sb2Se3,0.7564000000000001,-0.284494587937501,mp-2160,0,1.0
Nb2Al,0.0,-0.345805192333333,mp-18427,0,0.0
TcAs3,0.0,0.359745335000003,mp-972202,0,0.0
LuRh2Pb,0.0,-0.5972035491666651,mp-865443,0,0.0
Na3TiP8O23,0.0,-2.65884027570326,mp-16140,0,0.0
Sc2(VSi)3,0.0,-0.34291542423611,mp-1219438,0,0.0
CaMg14Sb,0.0,-0.042963094374999,mp-1028150,0,0.0
TaMnSi,0.0,-0.5445036945325681,mp-1105570,0,0.0
Ti2Cr4Si5,0.0,-0.461265404848487,mp-1208248,0,0.0
Cs2TeH6(ClO3)2,3.2584,-1.524698912263353,mp-1201918,0,5.0
CsNdZnTe3,1.3651,-1.314421084525861,mp-12342,0,2.0
Al3Sn,0.0,0.158353866249999,mp-1183131,0,0.0
K3TmSi2O7,3.755499999999999,-3.091405516416668,mp-16598,0,5.0
NbV2Re,0.0,4.114561851458337,mp-1097351,0,0.0
PrGa6,0.0,-0.394295900238093,mp-1104070,0,0.0
Te4MoW3Se4,0.3382,-0.323210138437498,mp-1029264,0,0.0
Ni3(PbSe)2,0.0,-0.305626806874999,mp-19747,0,0.0
La4Ba1Cu5O12,0.235567,,,0,0.0
Ni2P2S6,1.453295,,,0,2.0
SrIn2,0.0,-0.441040342777775,mp-20074,0,0.0
NaInAs2O7,2.3567,-1.891734908231445,mp-559710,0,3.0
GdMgRh2,0.0,-0.66018253625,mp-866059,0,0.0
ReBi3O8,2.7276,-1.900739962916668,mp-28287,0,4.0
Pb4Y2Sb2O12,2.74524,,,0,4.0
SrTi7N10,1.6312,-1.515324943425925,mp-1247012,0,2.0
MgInHg2,0.0,0.8097145558333301,mp-1097441,0,0.0
RbAgCl3,0.0,-1.418798929833333,mp-998201,0,0.0
Nd3Cu3Sb4,0.1983,-0.8819578227499981,mp-3435,0,0.0
TiMo3,0.0,-0.134486429166667,mp-1017983,0,0.0
Mg(SnO2)4,0.5714,-2.026550259615384,mp-1046228,0,0.0
Pt1Cs2S6F6O18,2.323397,,,0,3.0
Nb3V3Ir2,0.0,-0.404937758750001,mp-1220586,0,0.0
Np3Cu,0.0,0.315725108437504,mp-1186160,0,0.0
DyThFe6,0.0,-0.074204907708331,mp-1225766,0,0.0
La3Mg2MoS8,0.504,-1.783430083928571,mp-1247121,0,0.0
Ba5Nb5O14,0.0,-3.034516175833333,mp-766302,0,0.0
Er2Mg,0.0,-0.03405604,mp-862915,0,0.0