formula,bg,formation_energy,mp-id,fidelity,bg_category
Ga3Rh,0.0,-0.4248304237499999,mp-1188977,0,0.0
Li3PF6,3.259099999999999,-2.597040727811905,mp-1238766,0,5.0
Rb2TbGa(SiO3)4,4.1811,-3.141671946583334,mp-558318,0,6.0
Mg10Si3(O7F2)2,4.7366,-3.276063732741935,mp-1194872,0,7.0
K3Pr(PO4)2,4.8643,-2.9625048259073132,mp-1192352,0,7.0
Gd2ZnRu,0.0,-0.329497107499996,mp-866217,0,0.0
KGaAs2O7,2.6826,-1.938650839977273,mp-557918,0,4.0
YTmCu2,0.0,-0.256047185000003,mp-982007,0,0.0
Cu2Fe1Sn1S4,0.499034,,,0,0.0
Ti4WC5,0.0,-0.784344799666666,mp-1217128,0,0.0
Ru16Si24,0.52476,,,0,0.0
Na4NbGa3Si3(SO8)3,2.4228,-2.401339341066244,mp-2713672,0,3.0
Sb2Au(XeF6)2,0.490899999999999,-2.063910726470588,mp-1190046,0,0.0
Os2(CO)7,1.9918,-0.93513153078125,mp-28636,0,3.0
CePS,0.0,-1.72698442529762,mp-1006371,0,0.0
Cr2MoP3,0.0,-0.450943639821422,mp-1226421,0,0.0
Ca3Ga8,0.0,-0.515835851818181,mp-12611,0,0.0
Li3GdBi2,0.0,-0.796041649999997,mp-1077469,0,0.0
GdYIr2,0.0,0.483101870000002,mp-1184732,0,0.0
ZrCrAgS4,0.468199999999999,-1.200540584523808,mp-1246994,0,0.0
InHgW2,0.0,1.089269986875002,mp-631431,0,0.0
HoSnPd,0.0,-0.908984421666661,mp-11764,0,0.0
Cs1Ba2Nb3O10,1.373612,,,0,2.0
Zr2Mo4O16,2.64093,,,0,4.0
DyTe,0.0,-1.495048897499998,mp-2159,0,0.0
Pr(SiOs)2,0.0,-0.680903862333332,mp-5852,0,0.0
C7I3N4,0.012499999999999,0.7064399958928561,mp-729795,0,0.0
MnGe2Pd3,0.0,-0.421724743821838,mp-1192666,0,0.0
Ce(Sn2Rh)2,0.0,-0.6104514664285701,mp-1193462,0,0.0
Na(VS2)2,0.0,-1.256359480197044,mp-676586,0,0.0
ZrCuGe2,0.0,-0.4862800125,mp-1095201,0,0.0
AlSiMo,0.0,-0.409703927222223,mp-1228015,0,0.0
BaAl9Fe2,0.0,-0.316697639999999,mp-16483,0,0.0
DyCu4Pd,0.0,-0.373592705833334,mp-1206430,0,0.0
Sn3SO7,2.4105,-1.718869042954545,mp-734280,0,3.0
YbIn,0.0,-0.5305468924999981,mp-2459,0,0.0
TiMnSi2,0.0,-0.611703208232759,mp-21606,0,0.0
BaMnSnSe4,0.9066,-1.176872656936576,mp-1204333,0,1.0
RbYP2O7,5.1682,-3.133555994253246,mp-17897,0,7.0
MgInNi2,0.0,-0.186938640416665,mp-19929,0,0.0
ThP7,0.0,-0.431458277857135,mp-28410,0,0.0
PrDyMg2,0.0,-0.075159143333331,mp-862757,0,0.0
Br4F16O8N4,2.514717,,,0,4.0
LuNiGe3,0.0,-0.5124445843333331,mp-1079715,0,0.0
Na2CaTiP2SO12,1.7982,-2.716511765414614,mp-2713239,0,2.0
K3Zn(BO2)5,4.3815,-2.648206880135965,mp-1019786,0,6.0
K2TlAsF6,2.726,-2.523982153533333,mp-1111426,0,4.0
NaGdRe4(H2O5)4,3.1586,-2.009472192981745,mp-707097,0,5.0
Pr2CuIr,0.0,-0.434110008819445,mp-861499,0,0.0
Li15Au4,0.0,-0.353683592894736,mp-567395,0,0.0
CsCuO2,0.9672,-1.348183712413794,mp-553310,0,1.0
ErZrSb,0.0,-0.8926948944444411,mp-5848,0,0.0
Tb4Nb4O11,0.0,-3.26774425482456,mp-780453,0,0.0
Bi4Se4Br4,1.547492,,,0,2.0
NaY2F7,7.0369,-4.156960444499999,mp-675778,0,7.0
Mg149Nb,0.1185,0.013537042166666,mp-1185589,0,0.0
Ti2Co3Sn2,0.0,-0.395147083809524,mp-1217124,0,0.0
Sr4Cu2O12H12,1.939539,,,0,3.0
ScNi2,0.0,-0.520921808333332,mp-850,0,0.0
BaSrNdNbO6,3.070299999999999,-3.37162564975,mp-1522395,0,4.0
Cs2Li3GaO4,3.6593,-2.003143927681034,mp-555140,0,5.0
SrYPd2,0.0,1.139349775,mp-1097161,0,0.0
Al10Ge2O19,2.2265,-3.138372869193547,mp-28499,0,3.0
KEuDySeO6,0.0,-2.432366820626042,mp-1516648,0,0.0
Ag2Cs4Zn2S10C10N10,3.144434,,,0,5.0
Nb3Br7N2O5,0.0,-1.084942415294117,mp-1202214,0,0.0
TaCu3S4,1.9231,-0.8680332296666661,mp-10748,0,3.0
Na3HfZn3PS5O24,3.928999999999999,-2.213486800800383,mp-2712701,0,6.0
Ba2EuCu2HgO7,0.0,-1.946718056346154,mp-1214738,0,0.0
Pr2Ni3Ge5,0.0,-0.642702362833332,mp-1188239,0,0.0
ZrTi(NiH)2,0.0,-0.400914984305554,mp-1215287,0,0.0
Y3FeB7,0.0,-0.5779453253787861,mp-14542,0,0.0
VC3,0.0,0.5953324588194431,mp-1178822,0,0.0
Sn4Sr8,0.1185359999999999,,,0,0.0
Na6Ca3Si2Ge(SO6)4,1.714,-2.4536582734985632,mp-2712601,0,2.0
Na3Mg4Ta8P15(SO24)3,2.6704,-2.861397513189976,mp-2716238,0,4.0
Mg4Si3,0.0,0.020876875714285,mp-1074467,0,0.0
Nd3Co11B4,0.0,-0.245814868828445,mp-5568,0,0.0
Rb4Na8Co4O10,1.82426,,,0,2.0
KRb2BiF6,4.7966999999999995,-2.8983316162249992,mp-554941,0,7.0
Hf2CuSi3,0.0,4.14317634,mp-1207334,0,0.0
K2ZrSi3O10,0.7432000000000001,-2.89096503746875,mp-729333,0,1.0
W4Rb4O14,2.384341999999999,,,0,3.0
HfNiSb,0.0,-0.5713773224999981,mp-1212231,0,0.0
Mo4P4O20,0.978498,,,0,1.0
Ag4SI,0.0,0.000285668472223,mp-685999,0,0.0
Ba4Yb(CuO3)3,0.0,-2.277796831985293,mp-653337,0,0.0
Ag3O4,0.0,-0.40144617142857,mp-1605,0,0.0
F8N10H12C4B2,4.3041800000000014,,,0,6.0
RbFe2Se3,0.0,-0.742234188255207,mp-15120,0,0.0
CsCrCl3,0.153299999999999,-1.721930033499998,mp-29616,0,0.0
CeCo2,0.0,-0.234194716666665,mp-1112,0,0.0
AlH11SO10,5.6133,-1.631665221032608,mp-722527,0,7.0
Rb12Al2Sb6,0.2579079999999999,,,0,0.0
Cd5H2(NO7)2,0.0,-0.41842087097826,mp-1213988,0,0.0
Nd4Mg2Ti3(Si2O11)2,2.496,-3.506303025571427,mp-1173532,0,3.0
Na2Y4Hf4Si3(S3O16)3,2.8929,-2.76761515324179,mp-2716323,0,4.0
Sm(PIr)2,0.0,-1.007925343857139,mp-1095072,0,0.0
LaGdAl4,0.0,-0.540436121666668,mp-1223045,0,0.0
PBrNF,4.2482,-1.354472441160713,mp-559366,0,6.0
AlCo3,0.0,-0.178359348749998,mp-1080667,0,0.0
Sr2PrTlCu2O7,0.0,-2.202962546923077,mp-1208792,0,0.0
ThAs,0.0,-1.608917741250003,mp-1753,0,0.0
Re2Rh2O5,0.0,-0.6174409899999991,mp-1186924,0,0.0
LiSnRh2,0.0,-0.5665361545833321,mp-864784,0,0.0
Mg8Mn3N8,0.0,-0.634437547041742,mp-1246692,0,0.0
ZnCu2PO8,0.034399999999999,-1.227186738511904,mp-1196376,0,0.0
Y4Ge(O4F)2,0.4224,-3.363429801666667,mp-1216125,0,0.0
SmGa3(BO3)4,4.6969,-2.779462990208332,mp-1208640,0,7.0
Li6Bi5O14,0.0,-1.6565017997999991,mp-769010,0,0.0
Na4Fe2O8,1.424926,,,0,2.0
Cs6U2(Cu4S5)3,0.517199999999999,-1.061458859298029,mp-1199290,0,0.0
SbI5F6,0.9323,-1.562112360694446,mp-27859,0,1.0
Nd6S4BrN3,1.399,-2.08655018517857,mp-559019,0,2.0
HfMg6CuO8,0.180800000000001,-2.7158204593749993,mp-1032239,0,0.0
In12Te12I4,1.284007,,,0,2.0
CuGeN2,0.0,0.130761764999999,mp-1245520,0,0.0
V3Cr3B8,0.0,-0.6306327607142851,mp-1216493,0,0.0
CoCu2SiS4,0.0,-0.470670829909455,mp-11769,0,0.0
CeNi3,0.0,-0.390226659583332,mp-580354,0,0.0
Cs2HgC2SI4O,1.3411,-0.5759784017554871,mp-1182270,0,2.0
BiH(SeO3)2,3.659,-1.34051360959375,mp-1106073,0,5.0
Al5CuW2,0.0,-0.169023851999998,mp-1228126,0,0.0
K2RuO5,0.9515,-1.518044849625,mp-1201514,0,1.0
SmMg2Ni9,0.0,-0.255113349583332,mp-569494,0,0.0
Dy3Te3N,1.1036,-1.787555252678572,mp-1192365,0,1.0
Lu6Mn23,0.0,-0.042085031462544,mp-1193176,0,0.0
TaV2Re,0.0,4.277434035041665,mp-1096369,0,0.0
Zn8K2O18B6,3.476989,,,0,5.0
NdZn,0.0,-0.314734558749997,mp-1053,0,0.0
RbBr3,0.0,-1.014657263125,mp-975411,0,0.0
CdInPd2,0.0,-0.462063496666664,mp-862374,0,0.0
K3Sm,0.0,0.5593364752499991,mp-976221,0,0.0
Ag2Ba2Y2Se6,1.324094,,,0,2.0
BeGeB,0.0,0.7571133102777781,mp-631541,0,0.0
LaBi2ClO4,1.3154,-2.4272930293750012,mp-1205991,0,2.0
Sm2Fe14B,0.0,-0.077493803627451,mp-1196306,0,0.0
LiU4P3O20,1.838899999999999,-3.229446636955781,mp-555232,0,2.0
Cs2PdSe8,1.1887,-0.5860474318181801,mp-31285,0,1.0
Tl2Cu2SnS4,0.2195,-0.532658789074075,mp-18240,0,0.0
ErGa6,0.0,-0.326529952619046,mp-1103883,0,0.0
CrPt,0.0,-0.275839335,mp-1206750,0,0.0
Ho2Pb2O7,1.1706,-2.5463481468181812,mp-1178175,0,1.0
Nb(GaNi4)3,0.0,-0.307518460781249,mp-1220743,0,0.0
CsC(OF)2,0.809999999999999,-1.96892646994253,mp-1213690,0,1.0
Na3YC2(O3F)2,4.8938,-2.656645732616996,mp-1221283,0,7.0
Bi4(PO4)3,0.0,-2.058185831259399,mp-1214289,0,0.0
B5H9,5.9647000000000014,-0.062420617061689,mp-1338697,0,7.0
Sm(GeIr)2,0.0,-0.780850043000004,mp-1079613,0,0.0
CaMg2N2,1.996899999999999,-0.9967938875,mp-5795,0,3.0
YbAlB14,0.0,-0.177660884687501,mp-1198572,0,0.0
CaGdZn2,0.0,-0.297662474999999,mp-1183638,0,0.0
TiFeSi,0.0,-0.7120907655555551,mp-8648,0,0.0
Rb16Sn16F47,0.9131999999999992,-2.745764419556961,mp-530885,0,1.0
BaGa2(SiO4)2,4.1576,-2.979884517884614,mp-6759,0,6.0
BeCo,0.0,-0.2933258175,mp-2773,0,0.0
Sm2Ga12Pd,0.0,-0.405027513666667,mp-1193493,0,0.0
EuP,0.0,-1.208571291488095,mp-20300,0,0.0
Ba3SbP,0.299199999999999,-0.8819724669285711,mp-1013737,0,0.0
Hg4Te6Ag4O24,0.2071279999999999,,,0,0.0
Na(SeO3)2,0.1912,-1.191264579562978,mp-1180273,0,0.0
H13Se2N3O8,3.4101,-0.910538147728366,mp-1225464,0,5.0
ErHSe,1.4817,-1.64061590704861,mp-1206742,0,2.0
Sr2LiInGe2,0.0,-0.5268599433333321,mp-571617,0,0.0
MgScWS4,0.0,-1.353247404999998,mp-1247207,0,0.0
SrHfNbSnO6,0.0,-2.9855093475,mp-1519878,0,0.0
NdZnAsO,0.8621999999999991,-1.96026755375,mp-7061,0,1.0
Cs2ZrTlOF5,3.8902,-3.166270673264369,mp-42227,0,6.0
Ni2Ti4P4O20,2.790435,,,0,4.0
MgTlCu3Se4,0.0,-0.327508413078704,mp-1180325,0,0.0
ZrHg3(SCl3)2,2.5687,-1.375439815625001,mp-554183,0,4.0
Na2Be2(SiO3)3,4.8522,-3.038928223453664,mp-555182,0,7.0
Rb2Hf2O5,1.9412,-3.137224715555555,mp-863749,0,3.0
Ti5Si3C,0.0,-0.8566720775925931,mp-995201,0,0.0
ScBC,0.0,-0.6420903975000001,mp-1232372,0,0.0
SbPOF8,4.769299999999999,-2.734204389740261,mp-560310,0,7.0
MoNCl3,1.6768,-1.09528815100001,mp-23396,0,2.0
Eu4Al2O9,0.0573,-3.263056390666669,mp-582606,0,0.0
CeThSi4,0.0,-0.632159936666662,mp-1226485,0,0.0
TiAlRu2,0.0,-0.830631444166666,mp-866155,0,0.0
NbInSe2,0.0,-0.793856209531249,mp-20279,0,0.0
Y2HfS5,1.2263,-2.157783095507815,mp-16919,0,1.0
MnSbRh,0.0,-0.367694117637933,mp-4846,0,0.0
Nb3CoSe6,0.0,-1.041379700406247,mp-1186227,0,0.0
Os3C9Se2O9,2.409399999999999,-0.9730326547690212,mp-649754,0,3.0
V3GaN,0.0,-0.750254636500005,mp-1078963,0,0.0
Li3(CrS2)4,0.0,-1.147732210666666,mp-755947,0,0.0
Tl2GeS3,1.7699,-0.6634929456944351,mp-7277,0,2.0
Sc12In4S24,0.5897009999999999,,,0,0.0
Sm7(BrO6)3,0.354599999999999,-1.9392363773214292,mp-1209442,0,0.0
TmMnIn,0.0,-0.078131891532568,mp-1216695,0,0.0
LiErSn2,0.0,-0.385646305833332,mp-1080658,0,0.0
CeIn2Rh,0.0,-0.683835596875013,mp-1206576,0,0.0
TiNb6Tl2O18,2.5982000000000003,-2.889843011851853,mp-1216944,0,4.0
Fe1Ga2Se4,0.772658,,,0,1.0
H7BrO3,3.8402,-1.150615766704545,mp-625560,0,6.0
Li2HClO,4.969200000000001,-1.932182832083333,mp-1120754,0,7.0
V2Mo2O10,2.02424,,,0,3.0
DyOs2,0.0,-0.391299045000001,mp-1102508,0,0.0
Na4NbAl3Si3(SO8)3,2.2729,-2.6464521080179972,mp-2713713,0,3.0
Na6Hf3MgSi4(SO12)2,3.494799999999999,-2.904106988706897,mp-2714531,0,5.0
NaNbSi2SnSO12,2.6549,-2.581775769845148,mp-2715587,0,4.0
Lu6MnBi2,0.0,-0.393976359770117,mp-1206034,0,0.0
Cd4GeSe6,0.7557,-0.745511873551135,mp-18163,0,1.0
KLaGdSbO6,2.2343,-2.8418386982249992,mp-1520259,0,3.0
Y2IrPd,0.0,-0.8661350749999981,mp-865600,0,0.0
NbAsRu,0.0,0.095154014166666,mp-1100406,0,0.0
Na4YTiSi2PO12,2.174,-2.978896680642545,mp-2715544,0,3.0
Ac3Ho,0.0,0.070545855624999,mp-1183111,0,0.0
VSn2,0.0,-0.018103586666666,mp-20887,0,0.0
Li11TiAs5,0.301099999999999,-0.8386020185294131,mp-675818,0,0.0
Ba3Co3N5,0.0,-0.43804730590909,mp-1245810,0,0.0
Dy2Co7,0.0,-0.130271823703702,mp-1188496,0,0.0
Fe(CN)6,0.0,0.9898077853846152,mp-1212815,0,0.0
Ho(FeSn)6,0.0,-0.105553828846152,mp-1172877,0,0.0
K3Bi2I9,2.5425,-1.136715078339285,mp-1120792,0,4.0
Rb2TbAgCl6,3.7266,-2.176792811333333,mp-1111724,0,5.0
CsB9H14,3.8056,-0.194913009114606,mp-27590,0,6.0
TaGaOs2,0.0,-0.415546201833329,mp-867788,0,0.0
Ga,0.0,0.0,mp-142,0,0.0
GdAlO3,3.2382,-3.6904500495,mp-5223,0,5.0
Zn2Sn2Sb4,0.026558,,,0,0.0
Tb5CuBi3,0.0,-0.789825461805555,mp-1190137,0,0.0
Er2B4O9,5.689200000000001,-3.288378234111112,mp-756914,0,7.0
Cs6Na4Tl13,0.0,-0.208561835652171,mp-1213698,0,0.0
Sn3Te2Se,0.0,-0.30673111651042,mp-1218966,0,0.0
Na4YZn(PO4)3,3.8856,-2.741093777830753,mp-2715137,0,6.0
U(RhO3)2,0.428899999999999,-2.237327120555554,mp-13836,0,0.0
Dy2PdRh,0.0,-0.879749865833332,mp-1184072,0,0.0
Tb3Si,0.0,-0.315226416250006,mp-972310,0,0.0
Na10Zn3Sn5(PO4)12,2.2683,-2.482237578262916,mp-2716279,0,3.0
Na6TiZn3Si2(SO6)4,1.2711,-2.263474169456897,mp-2712791,0,2.0
LaInAu,0.0,-0.752052902777778,mp-21438,0,0.0
NaInGeP2SO12,1.6619000000000002,-2.254805850546205,mp-2712578,0,2.0
Y2CuPt,0.0,-0.7944589899999991,mp-1187771,0,0.0
Li5Cr1Cl8,2.50751,,,0,3.0
CsK4TlO4,1.5380999999999991,-1.387595534323851,mp-562074,0,2.0
Ta6Ni16Ge7,0.0,-0.355065238514106,mp-582719,0,0.0
Ba2La1Ru1O6,0.2195339999999999,,,0,0.0
Fe4Sb8O16,1.687493,,,0,2.0
Tm(Mg4Al3)4,0.0,-0.051313403793103,mp-972093,0,0.0
Sm4Sb3,0.0,-1.226047945,mp-367,0,0.0
YbCdNi4,0.0,-0.354802542499998,mp-1077738,0,0.0
K4Ti3S14,1.2102,-1.326334095190475,mp-541735,0,1.0
Rb2Li14Pr3O14,0.0,-2.25488288111111,mp-17971,0,0.0
La2MgS4,2.885299999999999,-2.203979872142857,mp-1232227,0,4.0
BaBO3,0.0,-1.573943142833333,mp-1214407,0,0.0
Sr4Te3(ClO2)4,3.3574,-2.435052639999999,mp-1218587,0,5.0
NaH5CO4,5.1155,-1.385784376602664,mp-1191547,0,7.0
TeI4,1.8562999999999992,-0.425142452833333,mp-570884,0,2.0
Ho2Sn3(PbS4)3,0.6225,-1.133203089499998,mp-559287,0,0.0
P2H12C4O3,5.2716,-0.6814750275850331,mp-1199137,0,7.0
AgAs,0.0,0.223952004166665,mp-1183178,0,0.0
Na16Al12Si12I3ClO48,4.234999999999999,-3.0391238577942272,mp-1221546,0,6.0
Nb5P7O30,2.585,-2.86010181577381,mp-654301,0,4.0
Na7Zn2In2P5SO24,3.4372,-2.40690824683828,mp-2715863,0,5.0
Ca4Ge3O11,0.0,-2.589777186527778,mp-1203676,0,0.0
Na2Zn3(PO3)4,0.1068,-2.083643278158573,mp-1195849,0,0.0
CsHCO3,4.9478,-1.868622745150863,mp-1238754,0,7.0
Pr2B5,0.0,-0.5469307311904731,mp-16713,0,0.0
Cs(AsRh)2,0.0,-0.609050766931034,mp-569012,0,0.0
MnAl2Fe,0.0,2.375522478017241,mp-1093629,0,0.0
TaMoN,0.0,-0.879287952444443,mp-9587,0,0.0
Na4Mg3P4O15,4.9429,-2.8393778234264873,mp-1020162,0,7.0
DyYO3,3.0318,-3.882854416666666,mp-768333,0,4.0
SiOs,0.5122,-0.392482408749998,mp-2488,0,0.0
K4Ga8P8O32F,0.0,-2.505321176530998,mp-1197093,0,0.0
SiTc2Ge,0.1167,2.692798442000001,mp-1096625,0,0.0
LiZnP,1.3386,-0.655819149880952,mp-10182,0,2.0
Ti2ReIr,0.0,-0.7583951897916651,mp-865717,0,0.0
Li2ZnHg,0.6725999999999991,0.693762899791666,mp-1095895,0,1.0
SrP2,0.796899999999999,-0.920609550873016,mp-1105302,0,1.0
Na2InAgCl6,1.284,-1.312393254333331,mp-1111534,0,2.0
SmMg2Cu9,0.0,-0.166958945833332,mp-13222,0,0.0
Y10H21,0.0,-0.7856751568951601,mp-32697,0,0.0
LuReO3,0.0,-1.9413582028333332,mp-1185529,0,0.0
K3AsSe3,2.1248,-1.110978559111606,mp-18594,0,3.0
K16Si16,1.123147,,,0,1.0
LaH3,0.0,-0.685341640312499,mp-1018144,0,0.0
Sr4MgTi3O10,0.0,-3.240515753611112,mp-2229402,0,0.0
Gd(ReO5)3,0.587699999999999,-1.755702159210526,mp-1199105,0,0.0
BaMgHg2,0.1452,0.748680559999996,mp-1096735,0,0.0
Ba3Nb6(Si2O13)2,2.281,-3.243477344102567,mp-6101,0,3.0
La2FeSn4,0.0,-0.533903844285714,mp-1223275,0,0.0
Tl2Pd1Cl4,1.103556,,,0,1.0
Na6Ca3ZrSi2(SO6)4,2.333,-2.606489084873564,mp-2712803,0,3.0
ZrTaCN,0.0,-1.243887570270832,mp-1215225,0,0.0
U2SN2,0.0,-1.937167664062496,mp-5739,0,0.0
Nd4Al,0.0,0.434977592000001,mp-1209964,0,0.0
K6Al4As6,1.11578,,,0,1.0
ScTlTe2,0.044599999999999,-1.133194870416661,mp-13314,0,0.0
SrNiSn2,0.0,-0.480990396249999,mp-862750,0,0.0
Cs2KBiI6,2.656599999999999,-1.3145647096560351,mp-1113055,0,4.0
Nb2Zn4O9,2.5331,-2.327878003666667,mp-17808,0,4.0
Mn1K4Cl6,3.725104,,,0,5.0
Sc2Ni,0.0,-0.356486544999999,mp-867501,0,0.0
ZnH16(IO8)2,2.069,-1.128151785,mp-1203570,0,3.0
Mn3(SiTe3)2,0.0,-0.25896282775149,mp-675570,0,0.0
NdBr2,0.0,-2.0334028958333352,mp-1210109,0,0.0
Zr7As4,0.0,-0.997009414090911,mp-1191610,0,0.0
Y2Ti3(SiO4)3,0.3182,-3.06669114375,mp-1163922,0,0.0
CaH8(BrO6)2,3.1367,-1.057088174347826,mp-1182712,0,5.0
USiS,0.0,-1.162026596215284,mp-754474,0,0.0
Ba6Nb3HO14,3.4195,-3.092055730677083,mp-1204543,0,5.0
VFeCoSi,0.0,-0.448134604999999,mp-1066609,0,0.0
PrSbPd,0.0,-1.071634687222212,mp-1024964,0,0.0
K2HgBr2(NO6)2,2.0322,-0.926646605894737,mp-561222,0,3.0
Ti13Si31Ni40,0.051200000000001,-0.700187626170634,mp-867049,0,0.0
Sm2FeSi3,0.0,-0.465344996666666,mp-1219186,0,0.0
K3Sb,0.389399999999999,-0.5482814765625,mp-14017,0,0.0
Zr12N16,1.069512,,,0,1.0
TaCo,0.0,-0.230748183666662,mp-1218179,0,0.0
Pr3IrI3,0.0,-1.318263322857141,mp-1209846,0,0.0
CsDyN4O15,0.326099999999999,-0.786024798872469,mp-734031,0,0.0
PmAs3,0.0,-0.5697836912499981,mp-1186534,0,0.0
Mg2HgPb,0.398699999999999,1.016378134374999,mp-1095767,0,0.0
Ho(CoB)2,0.0,-0.559335152666665,mp-573995,0,0.0
BaRe3S4O7,0.0,-0.826355845166667,mp-1193342,0,0.0
Tb3Ni19B10,0.0,-0.428032440677082,mp-1197368,0,0.0
Y2HfO5,4.3829,-3.977348098750001,mp-755537,0,6.0
NaLi2RuF6,0.0,-2.34505622395833,mp-1111341,0,0.0
Ti3Te,0.0,-0.298776962291665,mp-1187477,0,0.0
K2HBrO,3.5348,-1.735865829149999,mp-24589,0,5.0
PrMgAu2,0.0,-0.709627366666667,mp-975893,0,0.0
CsNO2,2.3632,-1.267775601163792,mp-3288,0,3.0
CdCN2,2.3076,-0.027482624374998,mp-10969,0,3.0
EuSi3Rh,0.0,-0.730941609999999,mp-1068807,0,0.0
Nd(Fe2B)6,0.0,-0.278297787499999,mp-641957,0,0.0
Cs(TeMo)3,0.0,-0.486728921379311,mp-1104612,0,0.0
RbPr(SeO4)2,3.4666,-2.004761853029514,mp-1209454,0,5.0
Dy2(GaNi)5,0.0,-0.564348018124998,mp-1226188,0,0.0
Au2As2K4S8,0.6993469999999999,,,0,1.0
Eu(NiSb)2,0.0,-0.6209355390000041,mp-570308,0,0.0
Ca2Cu(BrO)2,0.0,-2.260203145714285,mp-545481,0,0.0
SrBiAu2,0.0,0.726285273562503,mp-1095770,0,0.0
SiSb3,0.0,0.32900151375,mp-972794,0,0.0
Hg4Cr4O16,1.749589,,,0,2.0
Ca2ScSbO6,3.6317999999999993,-3.1275018395,mp-1189528,0,5.0
OsN2,0.0,0.251375380833332,mp-973935,0,0.0
CdCu2GeSe4,0.0,-0.570855355546874,mp-10967,0,0.0
Sr2TaInO6,3.9813,-3.0995229389,mp-1190108,0,6.0
Ce4YO9,0.0,-3.9080529503571433,mp-773102,0,0.0
TaTiNi6,0.0,-0.410037768833332,mp-1217832,0,0.0
RbMg6Ni,0.0,0.2691749278125,mp-1099319,0,0.0
CoPt,0.0,-0.073157964999999,mp-949,0,0.0
KZn2Ru2C4(ClO12)2,0.0,-0.6206665822071421,mp-1196794,0,0.0
La6Ge11,0.0,-0.8095890938235301,mp-647589,0,0.0
CeRh2,0.0,-0.7625730166666691,mp-951,0,0.0
Ta5Ga3B,0.0,-0.488879257685185,mp-1208348,0,0.0
Pb4N8C4,1.6957060000000002,,,0,2.0
Li2TlZn,0.026399999999999,0.9217628895833372,mp-1093843,0,0.0
MnBe2Rh,0.0,-0.414552101982758,mp-864945,0,0.0
ScFeSi2,0.0,-0.642485562916666,mp-1199097,0,0.0
NaTa2SiGe2P5O24,3.1304,-2.77191926074077,mp-2715729,0,4.0
Nb3IrSe8,0.0,-1.020512563229163,mp-1173033,0,0.0
P3Pb5O13,0.0,-2.221813069948979,mp-1210036,0,0.0
Na4GaSi2GePO12,2.845399999999999,-2.558512694967941,mp-2715732,0,4.0
Na3P,0.4033,-0.461604223244047,mp-1598,0,0.0
Na12Mg4Ta2Si6(SO12)3,2.5664,-2.669095060217752,mp-2714480,0,4.0
K2ThO3,3.7257,-2.946080960333331,mp-1211547,0,5.0
Cs4Na2ScGaF12,6.314999999999999,-3.312048162693965,mp-1228955,0,7.0
Lu1Tl1Te2,0.599993,,,0,0.0
Eu2ZrTiO6,0.0034,-3.537095413333334,mp-1520462,0,0.0
KNb8O14,0.0,-2.761231749010886,mp-22826,0,0.0
NdMgAu2,0.0,-0.7259730481249981,mp-866064,0,0.0
PaCl4,0.155399999999999,-2.149853655000001,mp-27291,0,0.0
LaSiNi,0.0,-0.7015016166666631,mp-7030,0,0.0
HoCdPd2,0.0,-0.733078928749994,mp-864760,0,0.0
CeIn4Pd,0.0,-0.437694206944442,mp-642458,0,0.0
Ba2Ni2O6,1.442124,,,0,2.0
Sr2TbTaO6,3.8367,-3.5905146108999992,mp-1208756,0,6.0
BaHgO2,2.2727,-1.9609385931250012,mp-3915,0,3.0
Sm3B3O7,0.8086000000000001,-2.838613515192307,mp-1173570,0,1.0
GdTmRh2,0.0,0.424742092499998,mp-1184489,0,0.0
Sr3Cu,0.0,0.268709149791666,mp-1187104,0,0.0
Ba4Mg(GeO3)4,2.3638,-2.582906832142857,mp-1233553,0,3.0
Ge8Br16,2.226122,,,0,3.0
Cu(NF2)2,0.0,0.468972877142856,mp-1103827,0,0.0
DyGa3Ru,0.0,-0.5851521268333261,mp-1105019,0,0.0
TbSbRh,0.0,-1.069665752222223,mp-22115,0,0.0
Fe2Sr4O6Br2,0.713907,,,0,1.0
Hg2Pt,0.0,-0.080404438333336,mp-11470,0,0.0
TlSbSe2,0.8323,-0.388810932031248,mp-567318,0,1.0
ZrCrTc2,0.0,3.851356255625003,mp-1096714,0,0.0
LaIn5Rh,0.0,-0.45144766690476,mp-21479,0,0.0
Ge2SeN2,1.6955,-0.27932568846875,mp-1247419,0,2.0
Mg149Mn,0.1095,0.018153133180459,mp-1185627,0,0.0
Na3CuO3,0.774,-1.44253688273399,mp-28556,0,1.0
SrSm2O4,3.8076,-3.61718043,mp-754942,0,6.0
Cr1Co1N12C6H18,3.824127,,,0,6.0
CsSc3H6(Se3O10)2,4.2231,-1.9001762446866024,mp-1229290,0,6.0
PdC2S2(O4F)2,2.4013,-1.52410516,mp-566960,0,3.0
KTeOF3,4.2547,-2.501048959819444,mp-559932,0,6.0
Rb3Tm,0.0,0.628147774374998,mp-974748,0,0.0
PuH3,0.0,-0.616369731249999,mp-23679,0,0.0
Cs2SO4,5.0111,-2.257878981687191,mp-505782,0,7.0
HfTa2VC4,0.0,-0.717124114767365,mp-1224304,0,0.0
Na6Ta4Ga4Si7S5O48,2.2295,-2.609987357276251,mp-2712966,0,3.0
Ta6Mn(CS2)3,0.0,-1.059873065745689,mp-1218119,0,0.0
Ce2CuS2O,0.0,-0.957877674999998,mp-1213871,0,0.0
Hg3(NCl3)2,0.0,0.493528319772733,mp-1191688,0,0.0
Sm3InN,0.0,-1.105729227750001,mp-19716,0,0.0
LiCaAlF6,7.6448,-3.870292022592592,mp-6134,0,7.0
MgSb2,0.0,-0.133815308333333,mp-1094556,0,0.0
La3AlO6,4.2016,-3.792187195999999,mp-1178155,0,6.0
Y1V2O8K3,3.399586,,,0,5.0
RbBF4,7.737,-3.308195844444444,mp-3032,0,7.0
Ce2O3,0.0,-3.768251280249999,mp-542313,0,0.0
O12Si4Cr2Na2,2.68463,,,0,4.0
Er3Si11Pt23,0.0,-0.856328505135133,mp-1201817,0,0.0