formula,bg,formation_energy,mp-id,fidelity,bg_category
GaCo4Ge3,0.0,-0.111980443750001,mp-1224863,0,0.0
Tm3(AgPb2)2,0.0,-0.120204215925926,mp-1217505,0,0.0
PH9AuC3S3Cl,3.0168,-0.312872466438491,mp-603254,0,4.0
AgC4(BrO)2,2.5782,-0.469115513518518,mp-1214977,0,4.0
Ga21Rh4,0.0,-0.301287379099999,mp-1200191,0,0.0
Na3Sb3(AsO7)2,1.8894,-1.924756273824451,mp-556577,0,3.0
MnBiS2Br,0.7358,-0.8459528145862071,mp-557805,0,1.0
Ta2MoS6,0.0,-1.303495369962962,mp-1218002,0,0.0
Ba3NaNbO6,3.0766,-2.9767851755799373,mp-8960,0,4.0
AuSeClO3,1.3674,-0.915634184140625,mp-560549,0,2.0
Na3ZrScSi2SO12,4.0225,-2.923753865748565,mp-2714535,0,6.0
KNaP2H2O7,5.4362,-2.338919022531925,mp-504943,0,7.0
Ca2Ge4O10,2.213433,,,0,3.0
ZnC2(N2O)4,2.4099,-0.606918752333334,mp-726874,0,3.0
Mn5Fe5Si6,0.0,-0.348963265603448,mp-1221407,0,0.0
YFeCu,0.0,-0.023290815,mp-1215980,0,0.0
Na3Mg2Sn2P3(SO8)3,2.822,-2.399451203889184,mp-2713830,0,4.0
FePd,0.0,-0.063690459999999,mp-2831,0,0.0
Li1Y1S2,1.864342,,,0,2.0
Mn2(Ni7B2)3,0.0,-0.170038550266052,mp-1193061,0,0.0
Zr2TcRh,0.0,-0.717358112499997,mp-1188004,0,0.0
BaHfMg6,0.0,0.1863484762499999,mp-1016652,0,0.0
HfZrFe2,0.0,-0.2550748375,mp-1184648,0,0.0
NaCaY(SO4)3,5.1953,-2.551006631141444,mp-2714189,0,7.0
Ba2Au(CO)2,0.0,-0.870982083571428,mp-1232309,0,0.0
Ho2TlIn,0.0,-0.370566932499999,mp-1184644,0,0.0
Nd3AlC,0.0,-0.282441754500001,mp-571330,0,0.0
Mn8P4F4O16,3.450577,,,0,5.0
Na3YHfSi(PO6)2,4.2925,-3.114453704504515,mp-2715224,0,6.0
Y2ZnRu,0.0,-0.337626422499998,mp-865592,0,0.0
GaPH9C3Cl3O,4.9838000000000005,-0.752712780744047,mp-1198682,0,7.0
Ba2LiZn2(SO)2,0.0,-1.780028299814814,mp-1236024,0,0.0
CuH12N2(Cl2O)2,0.6548,-0.917911988571428,mp-604996,0,1.0
NdSi6(C6N)3,0.5009,0.373136924509824,mp-1180641,0,0.0
O24In16,0.791114,,,0,1.0
LiHo2In,0.0,-0.246871437499995,mp-1185328,0,0.0
CaSmHg2,0.0,-0.616676951249999,mp-866014,0,0.0
LuSbO4,2.343299999999999,-2.8913096627777772,mp-1237257,0,3.0
DyReB4,0.0,-0.587880060972221,mp-1190368,0,0.0
Al4C3,1.3154,-0.238256372857143,mp-1591,0,2.0
Ba3TaOF9,0.0,-3.722990939809524,mp-1228505,0,0.0
CoW3,0.0,0.285036375833328,mp-1183680,0,0.0
Ag2Ga2S4,0.905913,,,0,1.0
Na2TiSiGe(PO6)2,2.508199999999999,-2.758763527388299,mp-2712542,0,3.0
Ba9La3Mg5Nb7O36,2.4954,-3.2874515795,mp-695214,0,3.0
K2ErCuCl6,2.419699999999999,-1.962646889833334,mp-1112164,0,3.0
Pr2SiS5,2.4505,-1.8662348785416651,mp-1209396,0,3.0
CdH8(NO5)2,3.5725,-1.1473211940476191,mp-1182065,0,5.0
NbTcW2,0.041599999999999,4.821432379999997,mp-1096279,0,0.0
YB3(H9N)2,5.319,-0.332093884658561,mp-1194951,0,7.0
KY2Cl7,4.5404,-2.496989918624999,mp-1211540,0,7.0
TiCuRh2,0.0,2.139747009166667,mp-1093915,0,0.0
Mg2Co12As7,0.0,-0.256600477857143,mp-569003,0,0.0
Ba2Ho(CuO2)4,0.0,-2.061363985,mp-6205,0,0.0
Ag1Bi1Se2,0.0497849999999999,,,0,0.0
BaH2(CO3)2,0.1391,-0.8479615938636371,mp-1228613,0,0.0
H9OsN7Cl2,0.160499999999999,-0.216106788355264,mp-706624,0,0.0
ZrTaRe2,0.0,4.530790721916666,mp-1096000,0,0.0
YSiO3,0.0,-2.795143751,mp-1187862,0,0.0
UAlRu,0.0,-0.420235395079367,mp-1080013,0,0.0
SrMg2(GaN2)2,2.126499999999999,-0.7922364850000011,mp-1218201,0,3.0
Mg2MnCr3S8,0.0,-1.140770620566501,mp-1246817,0,0.0
SmMgSe3,0.0,-1.481431618072917,mp-1232201,0,0.0
Y3In2(GaO4)3,2.719099999999999,-2.867926784166667,mp-1207946,0,4.0
LiBH2,1.336199999999999,0.097772291875,mp-568523,0,2.0
TiPd3,0.0,-0.654274433541662,mp-1105911,0,0.0
Mn31Si11P,0.0,-0.148476832337324,mp-1222619,0,0.0
O2Ba2,2.897364,,,0,4.0
Na2Ta3AlSi2(PO6)4,3.0599,-3.061894185185094,mp-2715584,0,4.0
MgCo2S5,0.0,-0.746758154062499,mp-1342988,0,0.0
Sr13Al6Si8O,0.0,-0.5826641416071421,mp-581263,0,0.0
Zr4W,0.0,1.074362124500004,mp-1207453,0,0.0
PdSeO3,1.0589,-1.032893985468749,mp-545482,0,1.0
MgCu2Ag(SeO5)2,0.0,-1.185776101334635,mp-2233248,0,0.0
Ti3Cr17Si12,0.0,-0.184094224999999,mp-1217346,0,0.0
Fe4O10P2,0.546432,,,0,0.0
Ca(MnS2)4,0.0,-1.062181336187002,mp-1395180,0,0.0
RbYbO3,0.0,-2.1327498265,mp-980537,0,0.0
Li2AcIn,0.0,-0.340779062708332,mp-865897,0,0.0
KEu(SnO3)2,0.0,-2.290207433725,mp-1518112,0,0.0
LuSc(BO3)2,4.4627,-3.503524534,mp-1222283,0,7.0
MgCoCu3Se4,0.0,-0.480027983819443,mp-1180322,0,0.0
SmY3Fe34,0.0,0.003785061710526,mp-1219085,0,0.0
Y19Mg97,0.0,-0.01083165426724,mp-1217184,0,0.0
Tl8Ti4O12,2.245119,,,0,3.0
LiMg2Ag,0.0,-0.198029603749999,mp-864598,0,0.0
NbNi2,0.0,-0.191378612499999,mp-1103618,0,0.0
Al13Os4,0.0,-0.53140296588235,mp-567929,0,0.0
Ho10Mn13C18,0.0,-0.32094997983179,mp-1199972,0,0.0
AlGaCu2(AsO5)2,1.053,-1.86513066015625,mp-1229072,0,1.0
La8Hf4MgO20,1.0572,-3.801289173484849,mp-1234029,0,1.0
TiNbGaO6,0.0,-2.92560960787037,mp-1216751,0,0.0
NaSi2N3,4.184299999999999,-1.255398330208333,mp-8973,0,6.0
Be2Te7Cl6,1.2797,-0.9212067327777632,mp-30096,0,2.0
YbIn4Pt,0.0,-0.546045927499998,mp-21897,0,0.0
LiCo2Si,0.0,-0.389936305833333,mp-867293,0,0.0
AlFe2W,0.0,-0.208302922499999,mp-862288,0,0.0
PrH3,0.1572,-0.6036326819791651,mp-981547,0,0.0
BaLi2Ca,0.1436,1.282294495833333,mp-1097520,0,0.0
Rb3AlI6,1.9042,-1.30915006925,mp-1114162,0,3.0
S3N2O5,2.7323,-0.94638615975,mp-29224,0,4.0
Li4Ca3Nb6O20,1.325999999999999,-2.945617543737374,mp-1222663,0,2.0
Rb3Er(PO4)2,4.6168,-2.9706023558418373,mp-1103762,0,7.0
KBi(PO3)4,4.896000000000001,-2.54906419435119,mp-559020,0,7.0
K2RbBiBr6,3.4181,-1.5972092142,mp-1110760,0,5.0
Ta2C,0.0,-0.679055604888887,mp-7088,0,0.0
Ni3Rh,0.0,0.024257211249999,mp-1186347,0,0.0
Eu2MgS4,0.0,-1.7861567601785722,mp-1232050,0,0.0
Nb9Co4Ge,0.0,-0.170533495714286,mp-505764,0,0.0
HIN2,0.0,0.253087570937498,mp-1224351,0,0.0
LiB3H18N5,3.4331,-0.387670604382716,mp-604486,0,5.0
Ti2N2F2,0.592513,,,0,0.0
I4Sb4Se8Mn4,1.133717,,,0,1.0
Na5Zn2Ge2P5SO24,1.6577000000000002,-2.346777952844723,mp-2715008,0,2.0
SmNiSb,0.0,-0.889733718333329,mp-1206264,0,0.0
CuRe2Cl,0.0,1.20220839472222,mp-631418,0,0.0
Nb25S48,0.0,-1.365069760547945,mp-684620,0,0.0
ZrNbC2,0.0,-0.8117210587500021,mp-1215222,0,0.0
Ca4ZrN4,1.2411,-1.340286513333334,mp-1029660,0,1.0
NaPrMgNbO6,0.0,-2.829461891804597,mp-1516482,0,0.0
ScAlCo,0.0,-0.4445849425,mp-1219393,0,0.0
K2PH3O5,4.2902000000000005,-2.066140985376623,mp-706521,0,6.0
TmNpRu2,0.0,-0.267250379687507,mp-865949,0,0.0
Tb4H9,0.0,-0.7731245506730771,mp-32565,0,0.0
Dy5Mg5Al12(Fe2Si3)2,0.0,-0.352239072916667,mp-1200833,0,0.0
Pr2(SiPt)3,0.0,0.471446314583333,mp-1206158,0,0.0
SbTe7SXeCl(OF4)9,1.4924,-2.080700096324405,mp-581488,0,2.0
Cs2RbTmCl6,5.0734,-2.505352563681035,mp-1111479,0,7.0
SrLaZnRuO6,0.4717,-2.4661474745,mp-1218204,0,0.0
MgScAu2,0.0,-0.743946162499998,mp-1185960,0,0.0
Ce3(SiNi)4,0.0,-0.7556152663636351,mp-1206722,0,0.0
Pr5(CBr4)2,0.7229000000000001,-1.830400881222218,mp-571575,0,1.0
Na2Al2(SiO4)3,0.5721,-2.620473579618875,mp-1196695,0,0.0
Sr(SO4)2,0.024,-1.971897701136362,mp-733869,0,0.0
RbCu2H3(SeO5)2,0.446599999999999,-1.238161301996528,mp-1209301,0,0.0
Ho6CoTe2,0.0,-0.736491792592586,mp-976064,0,0.0
Y(AgCl2)3,2.8066,-1.343167612999999,mp-35906,0,4.0
ReNi2N3,0.0,0.129375728194453,mp-1246880,0,0.0
AlH20Ru(Cl3O5)2,0.0,-1.358770485657895,mp-603609,0,0.0
Dy4CdPd,0.0,-0.434807079861106,mp-1212939,0,0.0
HoMg2Cu9,0.0,-0.169033566249999,mp-13226,0,0.0
BaYCl5,4.0352,-2.797612444285714,mp-756564,0,6.0
K2Zr(PO4)2,4.4906,-3.014198637214285,mp-1223853,0,7.0
P2Ge2Rb6Se14,1.492621,,,0,2.0
ZrInN2,0.0,-0.85114328708333,mp-1246102,0,0.0
Na10Sc7Nb(PO4)12,2.6672,-3.045763877750095,mp-2716340,0,4.0
Ag4Cr4O14,1.298976,,,0,2.0
S16N16C8,0.297649,,,0,0.0
Nd(NiGe)2,0.0,-0.6932111655000001,mp-4302,0,0.0
CoNi5N4,0.0,0.161628679666668,mp-1246265,0,0.0
SbAsRh,0.5387000000000001,-0.5664825225000001,mp-1219478,0,0.0
MgH4(ClO4)2,5.522499999999999,-1.138291255333332,mp-1193165,0,7.0
K3SiTe3,1.7179,-0.9843654023214292,mp-7657,0,2.0
Tb4FeGe8,0.0,-0.590947894358973,mp-1217802,0,0.0
CaMgPb,0.0,-0.423588522499996,mp-861738,0,0.0
NaEuDySeO6,0.0,-2.414606664038973,mp-1522079,0,0.0
Na6Nb3In(SiO4)6,2.8804,-2.8745227957485633,mp-2715367,0,4.0
Tb3Se,0.0,-0.490996613085936,mp-1187303,0,0.0
DyCdNi4,0.0,-0.347084358611108,mp-1071811,0,0.0
U3Cu3Sn4,0.0,-0.031155239999997,mp-1189666,0,0.0
Sb11F43,3.623199999999999,-2.661460519722222,mp-28294,0,5.0
Nb2Cl24P4N2,2.414935,,,0,3.0
Dy4In(NiGe2)2,0.0,-0.7748124348484821,mp-20748,0,0.0
BaSrDy4O8,3.6976,-3.702935540119046,mp-1227771,0,5.0
YAl2N3,2.267299999999999,-1.6920118293750002,mp-1247331,0,3.0
Ti2ZnMo,0.0,3.055735583333333,mp-1093964,0,0.0
TePb,0.8063,-0.503829899999999,mp-19717,0,1.0
Ba2NdNb(CuO4)2,0.0,-2.675009604821428,mp-10062,0,0.0
Pr2FeSi2Ru,0.0,-0.6162470105555541,mp-1219859,0,0.0
YbZnIn,0.0,-0.491322928333336,mp-1077753,0,0.0
Co8RuS8,0.0,-0.7176172417647051,mp-1181796,0,0.0
Er2In,0.0,-0.459435567222224,mp-877,0,0.0
Rb2TaCuI6,0.0,-0.8413938472333331,mp-1110718,0,0.0
ThInAu2,0.0,-0.642016716666663,mp-622041,0,0.0
Na6CuO4,0.0,-1.330768972115987,mp-778925,0,0.0
Na3Ca2Nb2P5SO24,1.9803,-2.7528557823833952,mp-2715981,0,3.0
Th3Si2,0.0,-0.6874808749999941,mp-1079146,0,0.0
Na3Sc2In2P3(SO8)3,3.4329,-2.545446076862157,mp-2713877,0,5.0
CoPd3,0.0,0.001640874999999,mp-1183687,0,0.0
Pr23Mg4Rh7,0.0,-0.359218297450979,mp-1210296,0,0.0
Ba2RuO4,0.0,-2.391290938571427,mp-1025237,0,0.0
Sr2NbSbO6,1.144899999999999,-2.80272625725,mp-1520815,0,1.0
LiUF5,0.147799999999999,-3.820240795238096,mp-27403,0,0.0
Na6Mg4Nb2P6(SO12)3,2.115199999999999,-2.6439842538356673,mp-2713250,0,3.0
Na2BiAsCO7,3.480299999999999,-1.938846533771552,mp-1176418,0,5.0
Li2Ca5N4,0.0,-0.804992693598491,mp-1246584,0,0.0
Hf2TiIr,0.0501,3.453723536666667,mp-1093574,0,0.0
BaVSeS2,0.0,-1.579575895468749,mp-1227435,0,0.0
Bi12PO20,0.0,-1.75161822256494,mp-757798,0,0.0
Si7C7,1.853383,,,0,2.0
Ca8MgAl6Si5O28,2.9092,-3.054920174062498,mp-744914,0,4.0
PrCu,0.0,-0.15713975958333,mp-1079091,0,0.0
BaMg(BiO2)4,0.618599999999999,-1.846464721785714,mp-1046893,0,0.0
Na2GdCl5,2.608399999999999,-2.265676057187498,mp-1210500,0,4.0
Y(CO3)2,0.0,-1.989889493055555,mp-1200903,0,0.0
Rb2LiAuF6,0.4775,-2.358340762833333,mp-1113735,0,0.0
Li3N,0.984,-0.4825014221875,mp-2251,0,1.0
NaCaMg6,0.0,0.066760843249912,mp-1099110,0,0.0
Rb8Pd4I24,0.996212,,,0,1.0
Cr3Te5,0.0,-0.227314757916666,mp-1226350,0,0.0
Ho2B6Os,0.0,-0.668125050555553,mp-1200778,0,0.0
MnSbRh2,0.0,-0.47634839549568,mp-571163,0,0.0
Nb16N13,0.0,-1.063092412887934,mp-32913,0,0.0
LiAg3F8,0.0,-1.5218604688888882,mp-867824,0,0.0
MgAl2Ga2Cu4(AsO5)4,0.024599999999999,-1.892293579090909,mp-1234616,0,0.0
KSn3,0.0,-0.123303955562499,mp-1185151,0,0.0
KHCO3,4.9811,-1.88157533975,mp-634431,0,7.0
SiNi3Mo2,0.0,-0.341714268333333,mp-1219280,0,0.0
Y3Sb5O12,3.177499999999999,-2.6440452115,mp-1207793,0,5.0
Sc3Si3Ni2,0.0,-0.8520413637499981,mp-11338,0,0.0
Ca2MgHg,0.2777,1.135032120624999,mp-1096403,0,0.0
Ca2Al3H3O8,4.488300000000001,-2.873662701328125,mp-1198782,0,7.0
Li12Nb14ZnO42,3.262499999999999,-2.87503791710145,mp-767604,0,5.0
ErGaRh,0.0,-0.909514500833328,mp-1103035,0,0.0
KSi4O9,0.5781000000000001,-2.857326509446429,mp-1211221,0,0.0
Sr2CaIrO6,0.0,-2.5457749655,mp-15002,0,0.0
In1N1Ni3,0.0,,,0,0.0
Y6Cu2Ge2Se14,1.17982,,,0,1.0
CaCeN2,0.389199999999999,-1.460997576875,mp-1227227,0,0.0
CsCrP2S7,1.0727,-0.8910345937673511,mp-1103473,0,1.0
Nd2S3O20,0.219699999999999,-1.1493943893,mp-1211239,0,0.0
Eu(ClO4)3,0.0,-0.8604378440625,mp-627640,0,0.0
In2Mo4Cu2O16,0.6170749999999999,,,0,0.0
Y5Tl3,0.0,-0.471177748125001,mp-1188434,0,0.0
AlBP2H5NO9,5.4268,-2.187111668931705,mp-24757,0,7.0
MgTe4Pb6(BrO3)4,0.4121,-1.481196624876542,mp-1234074,0,0.0
TcXeO4F5,2.0717,-1.147031543636364,mp-554361,0,3.0
Tb6Co2Sn,0.0,-0.310551380555554,mp-1208446,0,0.0
Ba11(OsO6)4,0.0,-2.523989859615384,mp-559484,0,0.0
Th(GePt)2,0.0,-1.002198164000003,mp-1078793,0,0.0
NdCoSi2,0.0,-0.718578306874999,mp-5170,0,0.0
K1Zn1Sb1,0.557935,,,0,0.0
SCl2O,3.6424,-1.072571903124999,mp-28406,0,5.0
Zr6Ag7F31,2.9066,-3.143432856022727,mp-29934,0,4.0
Pm3Ga,0.0,-0.299450925625002,mp-1186501,0,0.0
W4Cl12O4,0.188778,,,0,0.0
Cs3TiF7,2.9901,-3.423382921118078,mp-12244,0,4.0
Pr(ClO)3,0.0,-1.283442162738094,mp-1210675,0,0.0
Li3Y,0.0,0.183025114583332,mp-1185289,0,0.0
LiDySe2,1.534799999999999,-1.9649048499479131,mp-15795,0,2.0
Sr2Cu(BiO3)2,0.0,-2.040110309090909,mp-555827,0,0.0
Mn4CoNi3Ge4,0.0,-0.238357090977012,mp-1222036,0,0.0
SmPO4,5.8081,-3.46913106660713,mp-1102486,0,7.0
Cr(FeSe2)2,0.0,-0.560545777053571,mp-568349,0,0.0
Na6ZrZn3P4(SO12)2,3.897199999999999,-2.450330463212849,mp-2712810,0,6.0
YMgZn,0.0,-0.270347122777777,mp-6908,0,0.0
KCa10(PO4)7,5.2646,-3.293435558798912,mp-6813,0,7.0
Tb3Th,0.0,0.047697172500001,mp-1187328,0,0.0
Zr2GaCu,0.0205,2.941761308124999,mp-1095777,0,0.0
Ba2CuO6,0.0,-1.446450925555555,mp-1182377,0,0.0
K(GeO2)2,0.0,-1.960950423595237,mp-1212777,0,0.0
Mg6MnB,0.0,0.407292859737787,mp-1022889,0,0.0
Hf14Cu51,0.0,-0.155761783538461,mp-1224756,0,0.0
Ba5LaSi6,0.0,-0.447056708333333,mp-1195178,0,0.0
Er(FeSi)2,0.0,-0.6511957740000001,mp-5688,0,0.0
CeNiAs,0.0,-1.016250069166663,mp-1061766,0,0.0
As8S16,1.161835,,,0,1.0
VFeRu2,0.0,-0.106915669999999,mp-980749,0,0.0
Y3Ru,0.0,-0.2741241025,mp-1207781,0,0.0
Nb2B2O8,2.628821,,,0,4.0
Li3(CuO2)2,0.0,-1.584708797777777,mp-1222709,0,0.0
Tm4CdIr,0.0,-0.5329173945833421,mp-1208012,0,0.0
Pu3In,0.0,0.161104050312502,mp-614895,0,0.0
V4P8O28,1.636189,,,0,2.0
AlSi,0.0,0.303207859999999,mp-1021666,0,0.0
Ru1K4N6O12,2.317173,,,0,3.0
Pb4Cu4S4O24H8,1.68134,,,0,2.0
Al24Zn3O40,0.0,-3.194382054179105,mp-531864,0,0.0
Zr6Ga16Os7,0.0,-0.421784548252197,mp-1194111,0,0.0
K6Ge2S6,2.224659,,,0,3.0
HoCoSi,0.0,-0.7000273674999961,mp-510688,0,0.0
Ti4(NbAl3)3,0.0,-0.404784685341667,mp-1208235,0,0.0
Sb1Li5O5,2.947413,,,0,4.0
H6RuCI3N,0.0,-0.246227208958333,mp-1012740,0,0.0
InGeN2,0.9608999999999992,0.017624692395832,mp-1246869,0,1.0
PmSmHg2,0.0,-0.562610520625007,mp-983063,0,0.0
Na5Ta3Ti(SiO4)6,3.038399999999999,-3.111669648946066,mp-2713408,0,4.0
Mg(Hg11N3)2,0.044699999999999,0.5520488993103391,mp-1193322,0,0.0
Ti5Bi4(PbO9)2,2.1665,-2.596820993678161,mp-1217792,0,3.0
YGa5Co,0.0,-0.462413911071429,mp-1025375,0,0.0
HoH18C3S3(O2F)9,5.965999999999999,-1.661318167788462,mp-541101,0,7.0
YbBi3,0.0,-0.218589067499998,mp-1187914,0,0.0
HoBrO,4.5018,-3.351563836666667,mp-1178160,0,7.0
Cs2AlAuF6,1.5293,-2.830555843222217,mp-1113113,0,2.0
CsCeMg30O32,0.0,-2.871420210775861,mp-1039964,0,0.0
AlFe,0.0,-0.326887014999999,mp-2658,0,0.0
RbHO,3.3341,-1.512544081249999,mp-626620,0,5.0
FeNiP6,0.0,-0.406196352857141,mp-1224986,0,0.0
BaCd2Pt,0.0,-0.492565979999999,mp-1078435,0,0.0
Tl1Sb1Te2,0.0297419999999999,,,0,0.0
K2MgP4(HO2)8,5.368099999999999,-2.214848072518433,mp-1204159,0,7.0
Si3P3Rh,0.659899999999999,-0.372379291275509,mp-1219203,0,1.0
CsCaCO3F,4.5255,-2.780938087331692,mp-862701,0,7.0
Li3CuF5,0.6339,-2.658323517777777,mp-759433,0,1.0
SmH4(C3O4)2,2.8017000000000003,-1.378581784078947,mp-1209104,0,4.0
Rb1Ca2Nb3O10,1.470984,,,0,2.0
U(BOs)4,0.0,-0.26948556185185,mp-1196935,0,0.0
Sc2MnS4,0.0,-1.90159271153325,mp-3930,0,0.0
MgHg8(NO4)4,0.9849,-0.8090452643103461,mp-1233506,0,1.0
Fe2V2O8,2.038266,,,0,3.0
HoS,0.0,-2.220644193906249,mp-1240,0,0.0
Re4Cl12O8,1.842911,,,0,2.0
Nd2CdAs2O,0.0,-0.406317715833333,mp-1206271,0,0.0
CeSi2,0.0,-0.6778101900000001,mp-1898,0,0.0
CaSiBHO5,5.390499999999999,-2.932558775601852,mp-554371,0,7.0
S2I2O11,2.614099999999999,-1.237320586500002,mp-1202716,0,4.0
TeS7Br2,2.0926,-0.551103265666658,mp-1201162,0,3.0
Mn(InS2)2,0.0,-0.8882078865332491,mp-22168,0,0.0
Cs3B3Se10,1.7936,-0.8384767774939391,mp-1196535,0,2.0
Cs2RbTlBr6,1.5132999999999992,-1.589017462014368,mp-1112116,0,2.0
LiSnAu2,0.0,-0.388961372083331,mp-865710,0,0.0
Mg4Ti3,0.0,0.147450648571428,mp-1094481,0,0.0
La3Cu4(As2O)2,0.0,-1.475836285000001,mp-1211261,0,0.0
La8I8Si4O16,3.151539,,,0,5.0
Tb2(Ga3Co)3,0.0,-0.483270940773809,mp-1193699,0,0.0
Ca2Nd3Si3O13,0.0,-3.511992388928572,mp-1214181,0,0.0
Li2SiO3,5.0766,-2.882894919444446,mp-5012,0,7.0
GdAsS,0.0,-1.765762074270829,mp-1101897,0,0.0
Be13Tc,0.0,0.723051038035713,mp-1215101,0,0.0
KSmEuSbO6,0.0,-2.678610639475001,mp-1520194,0,0.0
NiRuS4,0.0,-0.7079756391666651,mp-1220049,0,0.0
BaMg6Mn,0.0,0.25651038025862,mp-1022982,0,0.0
Se12C8N8,1.917448,,,0,3.0
VB2Ru,0.0,-0.5333672965367471,mp-1216407,0,0.0
Eu2(AlAu2)3,0.0,-0.66169265409091,mp-1190659,0,0.0
AgH2C2N3O,3.2954,-0.367248163935186,mp-707277,0,5.0
Sm(SiOs)2,0.0,-0.803066927999998,mp-567408,0,0.0
Li3Sb1,0.7011539999999999,,,0,1.0
Li2P3NO9,0.0,-1.988910397373016,mp-734003,0,0.0
Nd2C3O17,0.8538,-1.269109257045454,mp-1202637,0,1.0
Na30Nb20Zn4Si33(SO48)3,1.984,-2.849286153990937,mp-2716457,0,3.0
Ag2Hg3P4Br3,0.8896000000000001,-0.3418639457837299,mp-1229184,0,1.0
Al2Ge(HO3)2,3.8758,-2.485961266590909,mp-643346,0,6.0
Sc6Te2Rh,0.0,-0.7950038537037061,mp-31072,0,0.0
CrSbSe3,0.0,-0.6863518204062491,mp-15236,0,0.0
CsMg6BO7,1.5829,-2.502292993588122,mp-1098281,0,2.0
ZrCoRe,0.0,-0.296730986666666,mp-1215322,0,0.0
LiPaPt2,0.0,-0.860604424166666,mp-865046,0,0.0
HgHOF,1.459099999999999,-1.332393404687502,mp-23844,0,2.0
Gd3(GaNi3)2,0.0,-0.524928734999999,mp-1191116,0,0.0
Ac3Br,0.0,-0.250735133125,mp-1183119,0,0.0
K2PtSe2,0.9345,-1.088003907837501,mp-8621,0,1.0
Hg4S2Cl8K4O6,2.144045,,,0,3.0
La2Co2I,0.0,-0.6809606889999991,mp-1205615,0,0.0
LuP5,0.1367,-0.597845676091267,mp-9853,0,0.0
Cs2Li3(BO2)5,4.5354,-2.691020628257185,mp-966802,0,7.0
Cr4FeNiS8,0.0,-0.641369867857141,mp-1226289,0,0.0
Li2LaPb,0.0,-0.379026470416668,mp-861893,0,0.0
NaCe3GeS7,0.0074,-1.806972407406608,mp-1191748,0,0.0
K3Gd(BH4)6,2.7268,-0.438632559022058,mp-1194976,0,4.0
La6I2Si4S16,2.460448,,,0,3.0
Ta4Ni2Se10,0.054228,,,0,0.0
Zn3Au,0.0,-0.176854814687501,mp-30424,0,0.0
Sn2H21C6ClO2,3.0309,-0.187284922851562,mp-605078,0,4.0
Cu3SnAu,0.0,0.104271397499999,mp-1181705,0,0.0
Rb3SiF7,5.646599999999999,-3.327109302499999,mp-12243,0,7.0
LuB2Ru3,0.0,-0.485952925833333,mp-5578,0,0.0
ErPdPb,0.0,-0.7135944377777751,mp-1079880,0,0.0
SrZnP2O7,4.4557,-2.845789504935064,mp-558616,0,7.0
Pr,0.0,0.008044545,mp-97,0,0.0
Ba8Mn3N8,0.0,-0.7368795975680581,mp-1245975,0,0.0
Ca2Al2(SiO4)3,0.0,-3.126250246578947,mp-1227582,0,0.0
Ca6Al4P8,1.242606,,,0,1.0
Ca(BH2)2,0.246199999999999,-0.212193529404761,mp-1214284,0,0.0
SiP2O7,5.7952,-2.781827299928557,mp-18157,0,7.0
K12Ga4Se12,2.105385,,,0,3.0
Na10Mg3Ge5(PO4)12,1.9964,-2.560960117557787,mp-2713199,0,3.0
Rb2CuSbF6,0.9861999999999992,-2.4788471875,mp-1110659,0,1.0
Gd(GePd)2,0.0,-0.809401839999998,mp-22181,0,0.0
TbPrMn4,0.0,0.241226533879306,mp-1217499,0,0.0
Na3Al2Zn2PS5O24,4.3545,-2.2424011832328152,mp-2712681,0,6.0
Li2TlAg,0.0,-0.236424752083333,mp-1222611,0,0.0
CaH4C4(SO)4,1.3607,-0.7276180832352951,mp-1196609,0,2.0
Na2Cu(SeO5)2,0.4265,-1.080260628496408,mp-1104648,0,0.0
Na5Ta2Zn2SiP5O24,2.5731,-2.7077450743105342,mp-2716070,0,4.0
Zn3P4H28C8(NO6)2,4.9546,-0.8835622123433581,mp-1199347,0,7.0
Na3MgGe(PO4)3,2.043599999999999,-2.597759303403324,mp-2715513,0,3.0
KLiSO4,5.3245000000000005,-2.302688434726189,mp-6800,0,7.0
CeGaO2,0.0,-2.396664444374999,mp-1226543,0,0.0
ErGeBiO5,3.5344,-2.65841232984375,mp-559109,0,5.0
K11B62,0.0,0.081754285126711,mp-685078,0,0.0
NaAgS2O3,2.586,-1.413518209720852,mp-1192874,0,4.0
KB6,0.0,-0.080323154107143,mp-1076,0,0.0
BaB2H10O9,1.0013,-1.523610055037879,mp-1182666,0,1.0
V2Br4S4N6,0.873089,,,0,1.0
RbAuSe,1.7116,-0.9068824016145832,mp-9731,0,2.0
Si16O32F,0.1894,-3.189843517755102,mp-1219433,0,0.0
Na4Si4H18O19,4.8578,-1.915831116789272,mp-1199706,0,7.0
Ba4Cu6Li2O12,0.345976,,,0,0.0
Zn1V2O6,2.584468,,,0,4.0
Mn3(P3Pd10)2,0.0,-0.435491066953455,mp-5979,0,0.0
U(Fe5Re)2,0.0,0.003073533461539,mp-1217031,0,0.0
Ag4Te4O12,1.223917,,,0,1.0
Na3Nd(BO3)2,3.9757,-2.799580951455938,mp-558805,0,6.0
V2GaC,0.0,-0.5695347312500001,mp-1080835,0,0.0
ZrUNb,0.0,0.159964403333328,mp-1215196,0,0.0
PRuC4(OF)3,3.029,-1.2445697143973211,mp-667356,0,4.0
CaMg2Al6O12,3.278299999999999,-3.316888824285713,mp-1227128,0,5.0
Zr3Ga2,0.0,-0.618283761,mp-30684,0,0.0
K2LiTlCl6,1.5798,-1.7663663211166671,mp-1111660,0,2.0
Ca6Si3O13,0.339299999999999,-3.227319914772728,mp-734368,0,0.0
YbOs2,0.0,-0.469599379166661,mp-1095482,0,0.0
LaEuB12,0.0,-0.595980079999999,mp-1222902,0,0.0
PrSe4O11,0.036,-1.530097264127603,mp-1179933,0,0.0
Al8P8H22C14N4O33F2,0.673,-1.741629688732339,mp-1229326,0,1.0
Na4TiZnSi2SO12,1.8464,-2.554275426492885,mp-2714597,0,2.0
K1Bi1Li6O6,1.491442,,,0,2.0