formula,bg,formation_energy,mp-id,fidelity,bg_category
ZnSO11,0.135799999999999,0.066768346346154,mp-1208071,0,0.0
In4Pb,0.0,0.008507498,mp-1223890,0,0.0
Rb2AlHgCl6,0.0,-1.792912767750001,mp-1113345,0,0.0
AlS2NO8,0.0,-1.422820226666666,mp-1214883,0,0.0
NaZr2Ga2P3(SO8)3,3.2018,-2.556153158080226,mp-2716331,0,5.0
KSnO2,2.395799999999999,-1.892573711812499,mp-752538,0,3.0
Ba3CeIr2O9,0.0,-2.582166853333333,mp-1214640,0,0.0
USeO10,0.0,-1.098245698320311,mp-1179177,0,0.0
AlRh3,0.0,-0.50482574375,mp-1183306,0,0.0
Sc5Si7Pt9,0.0,-1.085741812142855,mp-13573,0,0.0
Sr(PN2)2,4.271,-1.106844574421769,mp-645364,0,6.0
MgSbF5,4.3034,-3.1379392525,mp-1373332,0,6.0
Cd4Sn2O8,0.385322,,,0,0.0
Na2ScCuCl6,1.839299999999999,-1.723878963999999,mp-1111532,0,2.0
Cu7Se2(Cl3O4)2,0.0,-0.985864047812499,mp-1195946,0,0.0
FeI2,0.0,-0.35320006,mp-571122,0,0.0
LiYSiO4,5.274999999999999,-3.402774547261903,mp-558941,0,7.0
TmPPt,0.0,-1.487898745992059,mp-7169,0,0.0
Ce(Ni2Sn)2,0.0,-0.405819573571427,mp-510125,0,0.0
Mg6NbZn,0.0,0.1462387225,mp-1022602,0,0.0
NaCeMg14,0.0,0.059623615942054,mp-1026758,0,0.0
CeY2(AlPd)3,0.0,-0.875248127037034,mp-1226510,0,0.0
Dy3GaO6,3.5913,-3.591464098749998,mp-31113,0,5.0
LiNd(PN2)4,3.5181,-1.032657830671769,mp-1195211,0,5.0
Sc(CrGe)6,0.0,-0.197359130384616,mp-1103749,0,0.0
Na3Sc2(BO3)3,3.7232,-3.016048803331642,mp-561018,0,5.0
Rb2Pb2O3,2.0393,-1.539362617142854,mp-1209489,0,3.0
K3Cu3As2,1.2741,-0.29791358959375,mp-14205,0,2.0
Nd3NbO7,2.873,-3.643603394090909,mp-557763,0,4.0
Tl3Os,0.0,0.97304307625,mp-1005760,0,0.0
Cs2Sb2Cl12,1.951332,,,0,3.0
Na5Sc3Si3Sn(SO8)3,2.5133,-2.680379556480254,mp-2716541,0,4.0
Sm2CdSb4,0.0,-0.7864957157142841,mp-1219184,0,0.0
Ti2Nb2(CuO4)3,0.0,-2.450323868245615,mp-756799,0,0.0
Mn4Mo4O16,2.417694,,,0,3.0
La3Zn22,0.0,-0.309130701199999,mp-1200584,0,0.0
PtCl3,0.9465,-0.502917241458334,mp-31134,0,1.0
Rb2MnBi2,0.0,0.525005501413791,mp-1209753,0,0.0
Nd4Ge7,0.0,-0.793062668181815,mp-29778,0,0.0
Sr2Y2Cu2O7,0.0,-2.706615954615384,mp-1048239,0,0.0
Mg10TiSn(BO5)4,3.2487,-3.015660785277779,mp-1222637,0,5.0
Sr6Nb7O21,0.0,-3.209138147205883,mp-1173080,0,0.0
NdAs2Au,0.0,-0.7570331074999981,mp-1186304,0,0.0
TaGe2,0.0,-0.193197005777777,mp-7558,0,0.0
MnFe5N4,0.0,-0.127578163793104,mp-1247476,0,0.0
NaAg(CN)2,2.9494,-0.036525504340277,mp-568422,0,4.0
Ba3LiRu2O9,0.0,-2.298855071222223,mp-542122,0,0.0
CdPd2Au,0.0,-0.2871393425,mp-1183633,0,0.0
La6Cu2Si2Se14,1.661279,,,0,2.0
HfMg30GaO32,0.0,-2.929066824023436,mp-1038444,0,0.0
KNaMg3Zn2(Si2O5)6,4.285,-3.086494195074068,mp-1223684,0,6.0
BaCaHf4O12,0.0,-3.243007375555555,mp-1518468,0,0.0
Rb2Mn3Se4,0.0,-0.921309325907568,mp-4052,0,0.0
ReSnGe,0.0,0.951728916428569,mp-631754,0,0.0
K3ErCl6,5.196899999999999,-2.370378161208333,mp-30197,0,7.0
K3NaP2(O3F)2,4.5042,-2.759114648029644,mp-7257,0,7.0
BaAu,0.0,-0.722707377499999,mp-570775,0,0.0
YbCu2Ni3,0.0,-0.275421745833334,mp-1215563,0,0.0
Na6Mg6SiGe2S11O48,1.1863,-2.244683193298773,mp-2712534,0,1.0
HoLuCd2,0.0,-0.283293842916665,mp-973276,0,0.0
Rb3PO4,3.664799999999999,-2.496436364642857,mp-558170,0,5.0
U24CrFe3,0.0,0.017050876071434,mp-1217610,0,0.0
DyMn4(CrGe3)2,0.0,-0.268813796414677,mp-1225989,0,0.0
Er(MnSn)6,0.0,-0.136714839045098,mp-1103936,0,0.0
GdMgPt,0.0,-0.931498114999996,mp-22028,0,0.0
Sm4(SiS4)3,2.1071,-1.716019286578945,mp-1196898,0,3.0
Hf5Re24,0.0,-0.258195181379311,mp-567490,0,0.0
Cu4Pb4V4O20H4,1.694014,,,0,2.0
CaRe2Si,0.0,0.8283785837500011,mp-631420,0,0.0
Ag6Ge(S2Br)2,0.5586,-0.45820348653846,mp-1214970,0,0.0
Ba2Si3GeO10,4.1604,-3.136317816250001,mp-1228564,0,6.0
Sr4LaCl11,2.3139,-2.640736751093753,mp-677371,0,3.0
Sr20P12Br3ClO48,4.9604,-3.30302203762755,mp-1218945,0,7.0
UH5Se2O9,0.038,-1.329752727702205,mp-1208419,0,0.0
HfMg6BO7,0.3348,-2.381739400944444,mp-1033374,0,0.0
Nd6CdFe13,0.0,-0.017418288249999,mp-1202421,0,0.0
Y3CBr3,0.0,-1.518486817142858,mp-1216138,0,0.0
NiBiSe,0.0,-0.235065106261563,mp-1103017,0,0.0
TeSO5,3.133899999999999,-1.632247434880953,mp-1195479,0,4.0
LiSn4Au3,0.0,-0.282338886041664,mp-31301,0,0.0
AgSb3PbS6,1.116299999999999,-0.5472571222537861,mp-1198276,0,1.0
CoNiPt2,0.0,-0.088807944999998,mp-1226004,0,0.0
Ce5Ir4,0.0,-0.7244636658333311,mp-680536,0,0.0
Pr2WC2,0.0,-0.254376303666663,mp-568326,0,0.0
Li4Ti15O32,1.9455,-3.293196668888888,mp-759678,0,3.0
MnV3,0.0,-0.080095723620688,mp-864984,0,0.0
Tb3Fe2Si3,0.0,-0.615430974374999,mp-1208479,0,0.0
K6Na14Tl18Cd,0.001999999999999,-0.10560993725155,mp-1211804,0,0.0
K2LaTa6(Br5O)3,1.1473,-1.850550738833332,mp-1212099,0,1.0
K2SmBr5,4.0333,-2.192009798062502,mp-1211730,0,6.0
NaPrHf2O6,2.8634999999999993,-3.531624702304597,mp-1518838,0,4.0
P3RhO9,1.691799999999999,-2.279308427994506,mp-14935,0,2.0
Cs2I4O11,2.984999999999999,-1.153329669371196,mp-572805,0,4.0
Ho2CuO4,0.0,-3.117483926428569,mp-754263,0,0.0
Rb2VAgSe4,1.0307,-1.103068673880207,mp-14635,0,1.0
C4Se16Br8,1.218821,,,0,1.0
Nd2Ir7,0.0,-0.5182861055555591,mp-1188750,0,0.0
Al(NF2)3,0.0,-0.1422048095,mp-1079140,0,0.0
K2CoBr4,0.972299999999999,-1.450634660642856,mp-1212556,0,1.0
KScO3,0.0,-2.33650292545,mp-973960,0,0.0
Cd4CoS5,0.2391,-0.6063728729479201,mp-1226929,0,0.0
Rb3Ti3(PO4)5,2.5989999999999993,-2.981380438410138,mp-6390,0,4.0
Ac3Tl,0.0,-0.163813968124998,mp-985506,0,0.0
KMg6Zr,0.0,0.20507940409375,mp-1022584,0,0.0
Li2GaIr,0.0,-0.476742215833333,mp-31441,0,0.0
CoSb,0.0,-0.038880820000002,mp-2644,0,0.0
Al2Mn1Te4,1.002967,,,0,1.0
NbAlZn,0.0,-0.314987010833333,mp-1220408,0,0.0
Cs4Se12B4,1.616093,,,0,2.0
K2InAsBr6,0.563599999999999,-1.313457371866666,mp-1110640,0,0.0
Rb8Li4Ta4S16,2.708803,,,0,4.0
Na16Si4Se16,2.185924,,,0,3.0
NbTe4Ir,0.0,-0.6850153948611071,mp-505164,0,0.0
Sn3Hg,0.0,0.218814791875001,mp-1187047,0,0.0
V2Cu4S8Rb2,1.444363,,,0,2.0
Li3YF6,5.3213,-3.346384613500001,mp-1110575,0,7.0
Ba3SbN,0.455499999999999,-0.925612945999998,mp-12814,0,0.0
Sr2CuSO2,0.0,-2.13757237125,mp-1147582,0,0.0
Na2Mg5(Si2O5)6,4.6080000000000005,-3.178974496586911,mp-1221511,0,7.0
K4I4O12,2.908227,,,0,4.0
K2Sn,0.0,0.090021850166667,mp-1021516,0,0.0
Tl2CuO4,0.0,-0.8610877309523831,mp-1147753,0,0.0
Ca5(GeN3)2,1.976599999999999,-0.9380204705769252,mp-1247566,0,3.0
SrYMg6O8,0.195399999999999,-2.831489836875,mp-1032600,0,0.0
DyCdPt2,0.0,-0.8120568879166631,mp-1183773,0,0.0
Y3Tl,0.0,-0.254546015000002,mp-1187822,0,0.0
ZrSc,0.0,0.025691794999996,mp-1215201,0,0.0
Ca2BeSi2O7,4.9868,-3.39017086125,mp-6208,0,7.0
Ta3InO9,2.952,-3.035498554128206,mp-770380,0,4.0
Rb2CdSi5O12,4.1094,-2.947160866937499,mp-15125,0,6.0
Y1K1S2,2.337597,,,0,3.0
Mg6NbSn,0.0,0.094971041875,mp-1021399,0,0.0
YErAl6,0.0,-0.464674586041664,mp-1215992,0,0.0
PH5(NO2)2,0.0,-0.97612683111607,mp-721442,0,0.0
Dy2Al3Fe,0.0,-0.397417413888886,mp-1225310,0,0.0
Bi4Ag2Cl2S6,0.796627,,,0,1.0
Cs2BiAuI6,0.0,-1.018955944931034,mp-1113421,0,0.0
KHfMg30O31,0.6113000000000001,-2.890467550829365,mp-1040164,0,0.0
Nd6Fe13Cu,0.0,0.0045026875,mp-1198821,0,0.0
RbLiS,2.745,-1.344921642777777,mp-8751,0,4.0
CsLa(SO6)2,0.4555,-1.290243147478448,mp-1205125,0,0.0
K11Li4Ta15O45,2.0781,-3.028102298774443,mp-1225077,0,3.0
Se16K12P4,1.670635,,,0,2.0
Tc2P3,0.0,-0.591620003785712,mp-9895,0,0.0
Mo1Na3O3F3,3.648024,,,0,5.0
ZnGeRh2,0.0,-0.517830203749998,mp-1187920,0,0.0
Eu2ZnGe3,0.0,-0.5652314225,mp-1095470,0,0.0
U2Si3Ru,0.0,-0.415942524166664,mp-1216891,0,0.0
Mg3Tc,0.0,0.237341812499999,mp-1185793,0,0.0
Er4Ga12Pt,0.0,-0.6103376594117641,mp-1212821,0,0.0
Ba3Bi(ClO)3,3.628699999999999,-2.7221205962500012,mp-556855,0,5.0
Tb7RhI12,0.1656,-1.484895873833325,mp-1190279,0,0.0
Pd2N,0.0,0.437788583333331,mp-1019238,0,0.0
Zr2Ni7,0.0,-0.427306064444444,mp-2717,0,0.0
Ag15P4S16Cl3,1.288799999999999,-0.481952741541352,mp-560328,0,2.0
Na2Ca4ZrNbSi4O17F,4.0396,-3.362388403258619,mp-6903,0,6.0
Sn(C4N3)2,3.1357,0.301071965444444,mp-1246898,0,5.0
KRb2PdF6,0.5057,-2.488656168224999,mp-1205859,0,0.0
InN,0.0,-0.117700666874998,mp-22205,0,0.0
Ba2Cu1Cl1O2,2.6679500000000003,,,0,4.0
Ba(AsPd)2,0.0,-0.778867536000001,mp-571350,0,0.0
Ba4Ir3N7,0.074399999999999,-0.279787366428571,mp-1245380,0,0.0
IO2F,2.8952,-1.135413572499999,mp-29946,0,4.0
Ba3Au2,0.0,-0.6060228466666711,mp-1104164,0,0.0
Sc(CuS)3,1.0553,-0.9260874397767852,mp-1219520,0,1.0
U3CrSb5,0.0,-0.345716481666662,mp-1189121,0,0.0
Na6Hf7Mg(PO4)12,4.537,-3.16726827530167,mp-2716537,0,7.0
KRb2AuCl6,0.2445,-1.561162481225,mp-1114398,0,0.0
Tl2Ge2S5,2.162099999999999,-0.6816438457407381,mp-12307,0,3.0
Ba3ScCO3F7,4.9085,-3.715831228,mp-560519,0,7.0
NpCo2,0.0,-0.079578202916669,mp-310,0,0.0
Dy(BrO2)3,1.591,-1.050072126166666,mp-727356,0,2.0
Na3W,0.0,1.370424620086206,mp-1186093,0,0.0
Sb8K6B2O26,1.885484,,,0,3.0
TiZnP2O7,0.0,-2.509878132283549,mp-1044096,0,0.0
K4O4,2.236264,,,0,3.0
K2Ti2O5,3.2005999999999992,-3.057675286240742,mp-28075,0,5.0
Y2AsS,0.0,-1.90545488875,mp-1216047,0,0.0
Ba2Mg(GeIr)4,0.0,-0.601355714090909,mp-1190166,0,0.0
NiIr,0.0,0.035063555,mp-1220071,0,0.0
Ag(BCl)6,2.7028,-0.736950766538461,mp-567334,0,4.0
CaCd(NO3)4,0.9696,-0.8436642579629631,mp-1204540,0,1.0
RbLa2C6N6ClO6,4.103999999999999,-1.595810883977258,mp-1195186,0,6.0
LaZnIn,0.0,-0.5646461233333321,mp-1018758,0,0.0
Y3ScN4,0.0585,-1.864154559375,mp-1216069,0,0.0
KU3,0.0,0.8779695861249971,mp-1224693,0,0.0
Gd3RuO7,0.1389,-3.130438856363636,mp-17237,0,0.0
Er12Co5Bi,0.0,-0.297742125555556,mp-1212883,0,0.0
Ba3Cu6Ge3S12,1.350522,,,0,2.0
LiPtF6,0.0,-1.836476935833332,mp-1095099,0,0.0
Eu4O3F7,0.0,-3.475199790000001,mp-753354,0,0.0
Sr2CuSeO2,0.0,-2.133033340390625,mp-1147580,0,0.0
Pt1Sn1Ti1,0.7849959999999999,,,0,1.0
Ca2Y2Si2CO16,0.0,-1.9700647889130432,mp-1182411,0,0.0
Rb2Be4B2O6F4,5.904683,,,0,7.0
Pu2Re3Si5,0.0,-0.327793702499997,mp-1199331,0,0.0
U2(Si2Ni)3,0.0,-0.470882303636363,mp-1207979,0,0.0
CsHo(NbBr3)6,0.9589,-1.513412637102122,mp-1213418,0,1.0
US,0.0,-1.676318363906254,mp-2423,0,0.0
Pb2CCl2O3,3.2298,-1.7158688628125,mp-504593,0,5.0
U3TlF13,0.1153,-3.823567010588236,mp-1208070,0,0.0
Na2TiZn3(SO4)6,0.9317,-2.052234168271073,mp-2714063,0,1.0
SrNbNO2,0.0,-2.477501867000001,mp-1218149,0,0.0
Nb3Pb2(O2F)4,0.0,-2.773504577647059,mp-1210028,0,0.0
Ba4La2Ti3Nb2O18,2.1891,-3.46496732310345,mp-684815,0,3.0
Na2Zn5Sn3(SO4)12,1.5447000000000002,-1.884164847682266,mp-2714892,0,2.0
Sr3Pr10Al12Si18(N2O)18,3.058699999999999,-2.102567933676976,mp-534935,0,4.0
Mo15Pb3Se19,0.0,-0.5537810938429081,mp-1224355,0,0.0
Na8Al6Si6SO28,4.035900000000001,-3.019507004806913,mp-41734,0,6.0
TaFe,0.0,-0.186261669435894,mp-1218218,0,0.0
Cu2C8O8,0.815345,,,0,1.0
Na8Y3NbSi4(PO12)2,2.4175,-3.008049206118735,mp-2715752,0,3.0
Y2(SiIr)3,0.0,0.7201326037499991,mp-1206214,0,0.0
K3Zn2F7,4.0269,-2.840116175562499,mp-3125,0,6.0
Ba3Al3N5,1.776499999999999,-1.091942301363637,mp-1247525,0,2.0
Th3Cd,0.0,-0.021079927499989,mp-1187405,0,0.0
Sr10Sn4P12,0.380936,,,0,0.0
Sc2CdOs,0.0,-0.321971174999999,mp-1186935,0,0.0
In4Ga4Br16,2.750178,,,0,4.0
Rb2SbCl3F2,3.0086,-2.293246118125,mp-554605,0,4.0
UOs2,0.0,-0.091182474999996,mp-1102439,0,0.0
Na2LiTi3Al(PO4)6,2.5293,-2.988804707133759,mp-769074,0,4.0
Np3Se5,0.0,-1.474200145683626,mp-1197019,0,0.0
Rb2NaScCl6,3.9108,-2.401621242137931,mp-1113963,0,6.0
Ca7Ge,0.0,-0.044570664999999,mp-10008,0,0.0
Ca4Zr4S12,1.229463,,,0,1.0
AlPd,0.0,-0.9356018049999992,mp-7189,0,0.0
RbPH6C2(NO)4,5.299799999999999,-1.136329176091269,mp-1200508,0,7.0
Ba4Cd11Ge12,0.0,-0.070711643148146,mp-1214704,0,0.0
LuScPd2,0.0,-0.948753260416662,mp-974065,0,0.0
ScFeB4,0.0,-0.670273864027777,mp-1191106,0,0.0
Sr3As,0.0,-0.45396336201389,mp-971740,0,0.0
Zn4B6O13,3.4134,-2.5115879147826092,mp-4812,0,5.0
Cd(BiO2)2,2.7639,-1.5502618776785722,mp-541433,0,4.0
LaIn,0.0,-0.648769407499997,mp-20582,0,0.0
BaAl2Si3(NO)4,3.5521000000000003,-2.3824693942857142,mp-1019531,0,5.0
Ho2GaNi2,0.0,-0.5803655854999991,mp-1207237,0,0.0
Tb2Co17,0.0,-0.070512017017543,mp-1189067,0,0.0
Be46Ru7,0.0,-0.094057953018868,mp-1227622,0,0.0
Ce(Al10Co)2,0.0,-0.169583452173912,mp-16966,0,0.0
Y4NiSn8,0.0,-0.566661031538461,mp-1216215,0,0.0
Na2H18Pt(NF)6,2.5225,-0.9524038915229872,mp-1196042,0,4.0
P3Au,0.0,0.619503958258931,mp-982510,0,0.0
KZrSnF7,4.0133,-3.442278692225,mp-556631,0,6.0
Al2Sn,0.0,0.315926898333335,mp-1206714,0,0.0
Tl3AsS3,1.649299999999999,-0.528355104821433,mp-559356,0,2.0
Sb(Br3N)2,0.0,0.536319153333333,mp-1209055,0,0.0
Sn1I4,1.610331,,,0,2.0
Na3Hf2Mg2P3(SO8)3,4.8465,-2.75149737929459,mp-2713740,0,7.0
Cd4Sb4O14,0.3711919999999999,,,0,0.0
Ba2Cu2B4O10,1.653041,,,0,2.0
SmRhO3,0.7331000000000001,-2.528890301999999,mp-3317,0,1.0
Lu3Mg2TiS8,0.0,-2.014152128809523,mp-1247231,0,0.0
Sc6FeTe2,0.0,-0.7170950092592571,mp-10445,0,0.0
Pb2Sr4O8,1.344467,,,0,2.0
Ni2RhS4,0.0,-0.700684647142856,mp-675691,0,0.0
La2SnHg,0.0,-0.738844999374997,mp-1185178,0,0.0
HfTiSi(SO6)2,2.238699999999999,-2.754268448921569,mp-2713426,0,3.0
Rb3Y(PO4)2,4.705,-2.948579585841836,mp-1209357,0,7.0
Na14Al4O13,2.5926,-2.251951860784205,mp-31008,0,4.0
BaCuRu5O11,0.0,-1.530018532222222,mp-1214483,0,0.0
KMg7,0.0,0.174974488374999,mp-1016293,0,0.0
BeVCo2,0.0,-0.280405191249999,mp-866288,0,0.0
Sr8Pr4Cu9(HgO8)3,0.0,-2.1584841415451392,mp-1218674,0,0.0
YBiTe3,1.024699999999999,-1.051943438,mp-1215930,0,1.0
Ag1Ta2F12,0.7251280000000001,,,0,1.0
Ba3SrTl2Cu2HgO10,0.0,-1.867928634166668,mp-1228298,0,0.0
KF3,0.0924,-1.63867237025,mp-867934,0,0.0
Ni2Sn4Au,0.0,-0.213230798571429,mp-568925,0,0.0
TbCuPbSe3,1.2303,-1.241465798949651,mp-601286,0,1.0
Sb2XeClF11,2.1165,-2.174529170666666,mp-1199772,0,3.0
Rb2ErCuCl6,2.2131,-2.1385495995,mp-1113288,0,3.0
CeCu2,0.0,-0.110831111666667,mp-2801,0,0.0
Li(ReO3)5,0.0,-2.123106817777778,mp-686110,0,0.0
MgIn4(Ge2O7)2,0.0,-1.843765560072462,mp-1233556,0,0.0
LaPb8N7O33,0.001499999999999,-0.9247931593877552,mp-1196738,0,0.0
EuInPt4,0.0,-0.6929169552777701,mp-1077596,0,0.0
CaMg6Zr,0.0,0.0369693812499999,mp-1023329,0,0.0
AgMo6Br13,2.0242,-0.995895149583333,mp-680482,0,3.0
LaSbIr,0.0,-0.8940747241666631,mp-1211358,0,0.0
Mg6NbGa,0.0,0.1055402171875,mp-1016596,0,0.0
La6S3(OF4)2,2.6035,-3.9099562830263177,mp-1223425,0,4.0
Nb2CrTc,0.0,3.9379049275,mp-1093888,0,0.0
Ni3As,0.0,-0.10482235958333,mp-976930,0,0.0
Tc3Te,0.0,0.305518772083335,mp-1187392,0,0.0
Sm23Cd4Ir7,0.0,-0.498362566029412,mp-1209425,0,0.0
Sm2As4O9,3.3407,-2.465260411000001,mp-4794,0,5.0
BaSO2,1.513,-2.122906246249999,mp-696582,0,2.0
Li3Ga,0.0,-0.2307619475,mp-976023,0,0.0
Na2ZnP4(H4O5)4,5.2168,-1.864718904565815,mp-1198456,0,7.0
Li5Ti8O16,0.0,-3.151682846666666,mp-758044,0,0.0
Ba2YTi3O7,0.0,-3.176756771153845,mp-1047867,0,0.0
V2CN,0.0,-0.8440022555555511,mp-1216616,0,0.0
Pr2Fe17H3,0.0,-0.036473288049242,mp-1191073,0,0.0
KMg6SiO8,0.7852,-2.486119954828125,mp-1031251,0,1.0
K2EuSi4O10F,0.098099999999999,-3.176592283305555,mp-1198799,0,0.0
Ca3(B3O10)2,0.156199999999999,-1.682124555517241,mp-1214604,0,0.0
Sn2(PO3)5,0.0231,-2.425336844464285,mp-26950,0,0.0
NaF3,0.0,-1.2423262325,mp-976404,0,0.0
NaS,1.2348,-1.00427061140625,mp-2400,0,1.0
VBC,0.0,-0.159621723333335,mp-1238776,0,0.0
Tb14Ti10O41,2.389099999999999,-3.7414739972564113,mp-676167,0,3.0
Be4FeGe,0.0,-0.0753326375,mp-1227297,0,0.0
LaNp3,0.0,0.7060522346875041,mp-981435,0,0.0
NaZr3Ta(PO4)6,3.5942,-3.139988199901994,mp-2713728,0,5.0
Zr5Sc5Ga6,0.0,-0.5798780573437351,mp-1215392,0,0.0
Cs2Ta6PbCl18,1.4561000000000002,-1.79341851567816,mp-569879,0,2.0
Hf9Re4As,0.0,-0.40725731053571,mp-1193669,0,0.0
Al5AgS8,1.5406,-1.111908254583328,mp-1228170,0,2.0
BaLa3,0.0,0.165259353749998,mp-1183311,0,0.0
AlAg7Se5,0.0424,2.352093770072114,mp-1247813,0,0.0
Er5(In2Pt)2,0.0,-0.955184138787878,mp-1213169,0,0.0
U4SiNi7,0.0,-0.322104962499996,mp-1216955,0,0.0
SrCaAl2(SiN3)2,3.2892,-1.449268785,mp-1218409,0,5.0
Sm14Au51,0.0,-0.632690324307692,mp-1219385,0,0.0
PtBr3N2,0.046599999999999,0.989347569166666,mp-1179984,0,0.0
SiRh3,0.0,-0.360563960625,mp-978552,0,0.0
BF3,8.1347,-2.927657615937501,mp-27896,0,7.0
Cd12Rb8S16,1.76803,,,0,2.0
Yb2TlCd,0.0,-0.3857382025,mp-864743,0,0.0
Nd5Co19B6,0.0,-0.220165477396174,mp-569415,0,0.0
LiMgH6Ir,3.6437,-0.514580118703703,mp-866640,0,5.0
S4O16N4D16,3.539997,,,0,5.0
EuHo2O4,0.4124,-3.7410430299999993,mp-1213002,0,0.0
TmNiAs,0.0,-1.035815900833338,mp-1207672,0,0.0
In2IrRh,0.0489,2.076699481249996,mp-1096402,0,0.0
Sm3Pd4,0.0,-0.8891924821428581,mp-1104311,0,0.0
LiPr2Zn2(PO)2,0.0,-1.717004417328042,mp-1235849,0,0.0
Lu2TcAu,0.0,-0.525055783645832,mp-973456,0,0.0
SrBi2B2O7,2.8040000000000003,-2.496932166805556,mp-558323,0,4.0
DyGaPd2,0.0,-0.9353382,mp-1189769,0,0.0
Mg2CdH24(BrO2)6,3.3871,-1.3689833913333331,mp-1203195,0,5.0
Ba2LaUO6,0.8498000000000001,-3.567626822499999,mp-1205700,0,1.0
K2Ag2GeS4,1.6880000000000002,-0.8864509708703691,mp-558500,0,2.0
Ba2CaCuAg2F14,0.0,-2.698657741166666,mp-1045649,0,0.0
Lu(BRu)4,0.0,-0.498766748425926,mp-568184,0,0.0
ErB4Mo,0.5880999999999991,-0.6379020765277761,mp-1190816,0,0.0
CuP2H12N2(O4F)2,0.0582,-1.4863378527513231,mp-690769,0,0.0
Na6Mg4Si3Ge4(S3O16)3,0.9988999999999992,-2.227667169267242,mp-2713855,0,1.0
NbGaPt,0.0,-0.088440139166665,mp-961669,0,0.0
Lu3Ga5Ni,0.0,-0.655622115277773,mp-973878,0,0.0
Lu2IrPd,0.0,-1.027502483333331,mp-865589,0,0.0
PrTi2O6,0.0,-3.310298883703702,mp-1044451,0,0.0
PrAgPb,0.0,-0.453045102777772,mp-19712,0,0.0
MgTi2(Bi2O5)2,1.0396,-2.254275718333334,mp-2229590,0,1.0
Rb4HfS4O17,0.359699999999999,-2.192710084134615,mp-1198468,0,0.0
Ba2TlCuO5,0.0,-1.8797028387037051,mp-20942,0,0.0
Rb4Nb2Si8O23,3.7154,-3.096012737702703,mp-542121,0,5.0
CaMg5P3CO16,0.5948,-2.879117235920329,mp-733871,0,0.0
La3Sm,0.0,0.0253169762499999,mp-1185147,0,0.0
Ta3MnS6,0.0,-1.313679263993103,mp-1208432,0,0.0
Nd3Ga10Ni,0.0,-0.5513662905357151,mp-1104426,0,0.0
CsRb2TmCl6,4.4431,-2.4289428404655182,mp-1110814,0,7.0
Bi2SeO6,0.6916000000000001,-1.336639374149306,mp-754798,0,1.0
MgTi2(PO5)2,3.1637,-3.147307040063492,mp-561065,0,5.0
Na4TaAl3Si3(SO8)3,3.1533,-2.675129086193437,mp-2713545,0,5.0
Na2Nd2B2O7,4.421099999999999,-3.109349281237842,mp-1210464,0,7.0
In2CuTe3Br,0.0,-0.586364529761904,mp-1224103,0,0.0
Cs2KAlBr6,3.2314,-1.843999176656034,mp-1113061,0,5.0
CsKO3,0.0,-0.411330488381034,mp-984357,0,0.0
B2TeO6,2.6841,-2.061545466388888,mp-779332,0,4.0
SrTh2Se5,1.48,-2.139048075351564,mp-17282,0,2.0
TePdI,0.0,-0.5872695705555581,mp-29748,0,0.0
Er3Th,0.0,0.040600982500009,mp-1225523,0,0.0
Rb2PrAgBr6,3.2758,-1.848100200833332,mp-1110818,0,5.0
Na7Zr2Ti2Si5PO24,2.9164000000000003,-3.065101275226781,mp-2714616,0,4.0
CaO2,2.7345,-2.206560153333333,mp-634859,0,4.0
BaSi2(H3O4)2,5.0579,-2.244087048088235,mp-721586,0,7.0
LuInNi4,0.0,-0.411852845555557,mp-1206270,0,0.0
YPt3C,0.0,-0.253258834999998,mp-1018645,0,0.0
Na3Zn3SnPS5O24,2.2449,-2.030420804809391,mp-2712526,0,3.0
NbSiRu2,0.0,-0.417447732499999,mp-1186228,0,0.0
Cs3BiSe3,2.034799999999999,-1.132060919955356,mp-581738,0,3.0
Ba2Se6,0.936295,,,0,1.0
EuZnPd,0.0,-0.6360103866666671,mp-1102897,0,0.0
TbMg,0.0,-0.068604870833333,mp-1635,0,0.0
Sn4K4P4S16,1.871162,,,0,2.0
Ba5(GeN3)2,1.4705,-0.666100903461538,mp-1246227,0,2.0
Y4Mn2Cr2O12,0.7354200000000001,,,0,1.0
Cs3AlTe3,2.1588,-1.168032883214282,mp-1193748,0,3.0
KMg3AlSi3(O5F)2,0.0,-3.323647632612499,mp-1223512,0,0.0
Cs12Cl8O2,2.108262,,,0,3.0
Cu4K4P4O20H8,1.660507,,,0,2.0
Tm3(SbPd2)4,0.0,-0.8205771767096811,mp-1208001,0,0.0
KGdTe4,0.0,-1.097483393958332,mp-542281,0,0.0
K3Ho,0.0,0.5822494852500011,mp-1184912,0,0.0
Er6FeBi2,0.0,-0.41952677777778,mp-1206002,0,0.0
SmMg2,0.0,-0.067482015,mp-529,0,0.0
ZrBe2Pt,0.0,2.8047843775,mp-1093851,0,0.0
Nb6ZnS8,0.0,-1.235723551333332,mp-1220442,0,0.0
Na2Ta4Zn4Si3(S3O16)3,1.444699999999999,-2.304666013803695,mp-2716451,0,2.0
Co5B16,0.0,-0.111861681944445,mp-1194572,0,0.0
Dy2Fe15Si2C,0.0,-0.117402541416666,mp-1225614,0,0.0
LaMgTl,0.0,-0.361751663333337,mp-11985,0,0.0
Sn5O7,0.41,-1.617972189166665,mp-1045856,0,0.0
Rb2GeSe3,1.4969,-1.110592218671873,mp-9794,0,2.0
La2Mg3H48(NO5)12,3.681899999999999,-1.336338742119999,mp-706447,0,5.0
Sr3Ta2Ti6O21,0.0,-3.349300081395833,mp-1208814,0,0.0
DyAgGe,0.0,-0.647566033888886,mp-567574,0,0.0
TbMnB4,0.0,-0.6412610931273921,mp-1191670,0,0.0
KTbO3,0.0,-2.272926431783332,mp-981313,0,0.0
AgBi(PSe3)2,1.2778,-0.465881064501488,mp-569126,0,2.0
Ar1,8.622969,,,0,7.0
Cu3As4H18C8I3(NO2)2,2.7858,-0.384909173154761,mp-542554,0,4.0
Ca4Ge3Au5,0.0,-0.7213274754166681,mp-1227613,0,0.0