formula,bg,formation_energy,mp-id,fidelity,bg_category
NpPS4,0.0,-0.894481056479096,mp-1200979,0,0.0
TiTe(PO4)3,0.0236,-2.538180725525211,mp-1043738,0,0.0
LiEr2Ga,0.0,-0.374101838333334,mp-976793,0,0.0
DyC2,0.0,-0.370022661666666,mp-541840,0,0.0
YbHfRh2,0.0,-0.9795249562500032,mp-865759,0,0.0
Ba7Ge6,0.0,-0.5599183742307691,mp-1204965,0,0.0
UCl2,0.4727,-0.7164425413888911,mp-1208294,0,0.0
Pr3Sm,0.0,0.03093227875,mp-1186726,0,0.0
Zr3TiZn8,0.0,-0.273769935277777,mp-1215394,0,0.0
AlGa(CuSe2)2,0.4356,-0.6638856482812491,mp-1228950,0,0.0
YMg2Sc,0.0,-0.043360238749999,mp-979435,0,0.0
Cs2TlInBr6,1.8255,-1.577039565931035,mp-996944,0,2.0
YbAgSe2,0.0,-1.399850340781249,mp-1106005,0,0.0
Lu4CrS7,0.0,-2.030934934097221,mp-1222396,0,0.0
In10Se10Cl2,0.8686619999999999,,,0,1.0
Ba2Se12B4,1.601147,,,0,2.0
CaIn,0.0,-0.5830892187499981,mp-21187,0,0.0
Li4SiGe3O10,0.000299999999999,-2.39980577712963,mp-1222533,0,0.0
BaY2ZnO5,3.0989,-3.226324356388889,mp-6121,0,4.0
TmBiPd2,0.0,-0.799436512499994,mp-972400,0,0.0
Sr2LiTaN3F,2.934,-1.798932879145835,mp-979340,0,4.0
YZn3,0.0,-0.40087510625,mp-30884,0,0.0
Ba8Cd4Se12,1.54611,,,0,2.0
Os2P4,0.7781619999999999,,,0,1.0
Li3Gd(NO3)6,2.6228,-1.4197407966071431,mp-1212476,0,4.0
EuMgSn,0.0,-0.560991325000002,mp-1102145,0,0.0
Na3Nd2(NO3)9,3.4712,-1.429605692661901,mp-679958,0,5.0
SrB12O7,0.8162,-1.106676921749999,mp-1189346,0,1.0
Na8Y2Si5Sn2SO24,2.7003,-2.72411183218733,mp-2715689,0,4.0
Eu2In3Ni,0.0,-0.322381481666667,mp-1225919,0,0.0
Na2Zr4In4Si3(S3O16)3,2.0447,-2.405288912051314,mp-2716501,0,3.0
Cs2Sn2Se6,1.064286,,,0,1.0
Ba2EuMgNbO6,0.043,-2.932225472727273,mp-2240659,0,0.0
SrYSi4N7,2.7523,-1.498300949711541,mp-6606,0,4.0
Ba2CdReO6,0.0,-2.46229983225,mp-551702,0,0.0
Nd2InPd2,0.0,-0.805626273333329,mp-21450,0,0.0
Ba4Zn8As8,0.317118999999999,,,0,0.0
Zn2Cr4Se8,0.2799419999999999,,,0,0.0
Ba4NbP4(O9F)2,0.0,-2.7603735809852212,mp-695140,0,0.0
Mo7S8,0.0,-0.649492895833333,mp-673645,0,0.0
Sr2O3,0.0,-1.947883841,mp-1187089,0,0.0
In2Sb2,0.0,,,0,0.0
PrCo(CN)6,4.2005,-0.340845692886909,mp-1194133,0,6.0
Ga3Ni12Sn,0.0,-0.257572414843749,mp-1224940,0,0.0
Fe4Rb4F16,3.230648,,,0,5.0
LaMg6Cd,0.0,0.0050339587499999,mp-1017478,0,0.0
Lu4As4Se4,0.0,,,0,0.0
Mg2NF,2.127399999999999,-1.9785479875,mp-7589,0,3.0
Ba3InHg10,0.0,-0.372521225833337,mp-1103999,0,0.0
TlCu7S4,0.6768000000000001,-0.327612340902778,mp-21964,0,1.0
SbTeO3,0.0,-0.853818866333332,mp-973269,0,0.0
Ni2Li4O4,3.923223,,,0,6.0
BaHS2O3,2.0692,-1.505513883035714,mp-1214550,0,3.0
CsRuF6,1.235199999999999,-2.359593356875001,mp-8015,0,1.0
Cs4ZrO4,2.7365,-2.273180096235632,mp-28543,0,4.0
CsAlH2,0.0,0.244470734375001,mp-1213693,0,0.0
Li4Zn4Nb4O16,2.929014,,,0,4.0
Ir2S3,0.7821,-0.488082574187501,mp-1188655,0,1.0
Lu6CuTe2,0.0,-0.704516600648148,mp-642315,0,0.0
BaCaZrNbO6,0.0,-3.313915328,mp-1519061,0,0.0
Ba2In4Te8,0.962673,,,0,1.0
FeSnRu2,0.0,-0.016346891249998,mp-636599,0,0.0
Mo12Cl26Li2,2.466833,,,0,3.0
La2ThTa(ClO2)3,4.0531,-3.625107752871795,mp-1223220,0,6.0
K2SeS3O7,0.0874,-1.396074000334133,mp-1204915,0,0.0
Yb2ZnSn,0.0,-0.493549078750003,mp-1187958,0,0.0
Li27As10,0.0,-0.7952328702195951,mp-676620,0,0.0
RbSeO3,0.0368,-1.43366439796875,mp-725554,0,0.0
Cs2Ce10Os2I17,0.0196,-1.377816909493881,mp-623165,0,0.0
AlSiHO4,5.571899999999999,-2.82826644017857,mp-643829,0,7.0
La5Ti2AgS5O7,1.5072,-3.061508407541667,mp-555253,0,2.0
Ba3Ti4Sb4O21,2.4014,-2.850029601979166,mp-1228624,0,3.0
Ta6Cr3Co3C2,0.0,-0.323722576357141,mp-1218084,0,0.0
Nb2Co3Si,0.0,-0.428580233333332,mp-10366,0,0.0
La5Pb3Se,0.0,-1.008159708593748,mp-1188274,0,0.0
Na6Ti3ZnSi4(SO12)2,1.9495,-2.7027520248318972,mp-2714352,0,3.0
Cs2MnSe2,0.0,-1.303543036521552,mp-573947,0,0.0
Tl8Cu4F11,0.7966000000000001,-1.498772830217401,mp-674421,0,1.0
Sr4N3,0.0,-0.5242598008928571,mp-1173210,0,0.0
In12Sn4I20,2.004263,,,0,3.0
K2(TaS2)3,0.0,-1.486517682863632,mp-1223710,0,0.0
Ta5GeB2,0.0,-0.641214438333328,mp-1105309,0,0.0
Li(HoS2)3,0.0,0.659434113666669,mp-1207296,0,0.0
Sr12Ga2N10,0.265735,,,0,0.0
AlNi9B8,0.0,-0.286195237129629,mp-1194505,0,0.0
ScCdAg2,0.0,-0.235171138749997,mp-867127,0,0.0
Na24In5O15,0.0,-1.44395494639629,mp-559023,0,0.0