formula,bg,formation_energy,mp-id,fidelity,bg_category
Ho3CuSnS7,1.460899999999999,-1.691742650624997,mp-554553,0,2.0
FeSnRh2,0.0,-0.301023718749998,mp-1018062,0,0.0
La(GeIr)2,0.0,-0.8106395149999991,mp-1095046,0,0.0
TbNi2,0.0,-0.43123975722222,mp-276,0,0.0
LiTiAu2,0.2514,1.261713875416671,mp-1096022,0,0.0
K2CuBiI6,0.8293,-0.94561742945,mp-1110946,0,1.0
NdMgO3,0.0,-2.8331640494999992,mp-975521,0,0.0
U(WC)4,0.0,-0.16647632027779,mp-672676,0,0.0
BaLa3Sc4HO12,3.804499999999999,-3.643768943630953,mp-1228009,0,6.0
Pr(NiSb)2,0.0,-0.7226558513333311,mp-1078736,0,0.0
Er12(MnC3)5,0.0,-0.372770349832973,mp-1213203,0,0.0
CsRbNa2,0.325599999999999,0.547916480021551,mp-1097089,0,0.0
Ca2GeN2,0.0,-0.9813410222499992,mp-29809,0,0.0
Ag16Ge4O16,0.0,,,0,0.0
Mn2F8O4N4H16,4.785842,,,0,7.0
LiZrAu2,0.0,-0.589742580416668,mp-865924,0,0.0
Ca1Mg2Sb2,0.775277,,,0,1.0
BaSrSi4(NO)4,3.5329,-2.3391754075,mp-1227610,0,5.0
RbTbF5,0.0,-3.452643963452381,mp-1209681,0,0.0
Na4Mn4As4O16,2.27726,,,0,3.0
Ti12Cu9(BiO18)2,0.0659,-2.508431548305085,mp-1217434,0,0.0
Na2Ca4Zr4SiS11O48,2.285,-2.551022228122742,mp-2714296,0,3.0
TcH2NO2,0.0,0.022578122916667,mp-1236926,0,0.0
CaCuSi,0.0,-0.415770030040652,mp-1227246,0,0.0
Ga2As4K4Na2,0.808349,,,0,1.0
Sb2RuC6(OF2)6,4.7648,-1.8998305414814811,mp-6891,0,7.0
Y5Pb4,0.0,-0.317652313809516,mp-672188,0,0.0
Tm2MgIr,0.0,-0.495490328750003,mp-865360,0,0.0
As2Os,0.6646999999999991,-0.303892785000002,mp-2455,0,1.0
TbMnGe,0.0,-0.484959264032567,mp-21154,0,0.0
KAlF4,6.9087,-3.648254212874994,mp-561424,0,7.0
TlRe3(S2Cl)2,1.8577,-1.029938029833332,mp-560005,0,2.0
ZrSnRu2,0.0,-0.6605679037500031,mp-1183048,0,0.0
CuSe3I,1.2273,-0.168803863406249,mp-29450,0,1.0
LiP(HO2)2,5.8553999999999995,-2.194765020684523,mp-24610,0,7.0
HgCl,2.7243,-0.621251812500002,mp-22897,0,4.0
Na4ZnGa(PO4)3,3.418199999999999,-2.503955974775198,mp-2714932,0,5.0
DyMgTl,0.0,-0.305730285555558,mp-1206809,0,0.0
ScH13Cl2O7,4.8615,-1.541730545923913,mp-541015,0,7.0
PdRhN5Cl5O,0.0,0.667164246730769,mp-1179981,0,0.0
EuTh3,0.0,0.146234252499994,mp-1184384,0,0.0
KTa3CuO9,0.0,-2.904744851196429,mp-541373,0,0.0
CeZn2AsO2,0.0,-0.9257877212499992,mp-1206252,0,0.0
Zn2C4N16O,0.422899999999999,0.438359755869564,mp-729187,0,0.0
Ho4NiB13,0.0,-0.482812671898146,mp-1202173,0,0.0
Ce5Ge2Ir,0.0,-0.653685319062498,mp-1214716,0,0.0
Li2BeAs2,0.0,0.212011332666666,mp-1211024,0,0.0
TmSeI,0.094999999999999,0.995520634218747,mp-1206385,0,0.0
LuIr,0.0,-1.011689813333335,mp-1529,0,0.0
Dy9B5S21,1.4641,-1.7486563509523771,mp-1225776,0,2.0
Ho8Fe68C3,0.0,-0.03692589892405,mp-1225150,0,0.0
Ba2Zn2ClF7,4.3544,-3.256032589583333,mp-555271,0,6.0
K2LiPrI6,2.9382,-1.57489150895,mp-1110938,0,4.0
InOF2,0.556999999999999,-1.959807607916666,mp-695736,0,0.0
Na2TaIn3P4(SO12)2,1.898,-2.456479901675835,mp-2712649,0,3.0
KNb3O8,2.4752,-2.986958873937498,mp-27998,0,3.0
BaS5O8,0.093,-1.147252439107142,mp-1194419,0,0.0
LiScHg2,0.0,-0.438690244166668,mp-863659,0,0.0
Gd2(Al3Rh)3,0.0,-0.881293271785712,mp-1213364,0,0.0
CsTlBr3,0.998499999999999,-1.442000211597704,mp-1112177,0,1.0
BaBi2(BrO)2,0.0,-1.426785987142859,mp-1227974,0,0.0
Al2Bi7Ru(BrCl4)2,1.185,-1.107761786000001,mp-1197319,0,1.0
Ti3Ga,0.0,-0.321384534375,mp-30672,0,0.0
Ce2S3O16,0.0,-1.61285199095238,mp-730380,0,0.0
Na2SrSn4,0.0,-0.411834035714286,mp-1104604,0,0.0
Eu2H6Ru,0.0,-0.6883325719444421,mp-634945,0,0.0
Ce2(Ni7B2)3,0.0,-0.334654490517239,mp-541851,0,0.0
Ti11CuP8,0.0,-1.105995420440476,mp-1208222,0,0.0
KAuN12,1.4624,0.461700291589285,mp-567218,0,2.0
RbNdS2,2.2617,-2.0674841125,mp-9363,0,3.0
BaNaTiNbO6,1.565099999999999,-3.137727508471265,mp-1227835,0,2.0
Fe(SbS2)2,0.1989,-0.495418450714285,mp-20767,0,0.0
Na2Hf4Al4Si3(S3O16)3,3.2251,-2.6273673566703613,mp-2716437,0,5.0
KNaCaTh(Si2O5)4,4.908,-3.310627612457165,mp-1223475,0,7.0
BaThN2,0.435799999999999,-1.362820061249998,mp-1206598,0,0.0
NdCl2,0.0,-2.210736965277777,mp-973953,0,0.0
Mn1Sn1F6,2.701242,,,0,4.0
Cs2RbSb,0.004399999999999,0.520190733297413,mp-1095809,0,0.0
Ga2P3(NO4)3,1.4223,-1.835470924696428,mp-1197103,0,2.0
Al(CuN)3,0.0,-0.082109512678568,mp-1147771,0,0.0
Mn4Na4O8,1.613681999999999,,,0,2.0
TaAsRu,0.0,0.024332799072643,mp-1100407,0,0.0
Sr10Nb5N5O14,0.0,-2.5861900269117633,mp-1218907,0,0.0
Cr2NiSe4,0.0,-0.6979948156249981,mp-1025151,0,0.0
Eu2Al3O8,0.2191,-3.1897769542307692,mp-1212582,0,0.0
PrMg(BO2)5,5.9464999999999995,-3.093005201029412,mp-1209670,0,7.0
PmNp,0.0,0.604018181875005,mp-1186621,0,0.0
Na3Ti2SiGe2P5O24,2.531099999999999,-2.7498377043428532,mp-2713112,0,4.0
K3Mo3C3(Se2N)2,0.0961,-0.642370078075,mp-1211951,0,0.0
AgPbO2,0.0334,-0.994731772916665,mp-997019,0,0.0
LaCoNi4,0.0,-0.213637635833332,mp-1222949,0,0.0
Eu3Ge5,0.0,-0.6642021062500021,mp-1189484,0,0.0
SrNdEuNbO6,0.096299999999999,-3.3334541735,mp-1519937,0,0.0
Zr6Ga2CoH10,0.0,-0.5476859840789471,mp-1207445,0,0.0
B11H18C4S2NCl,3.5272,-0.221327170495495,mp-1198154,0,5.0
La(SiPt)2,0.0,-1.2043965499999951,mp-1080606,0,0.0
Er(CrGe)6,0.0,-0.197911466923076,mp-1105108,0,0.0
Ba2La4Ti5O18,2.3756,-3.622963055747126,mp-1228650,0,3.0
EuMg2Fe,0.0,0.372685711249998,mp-1067840,0,0.0
Rb2CoBr4,0.7445,-1.491602892142858,mp-23366,0,1.0
TmB2C,0.0,-0.6533817550000011,mp-15604,0,0.0
Tb(NO5)3,0.6283000000000001,-0.7151928616666671,mp-1179259,0,1.0
BaH2S5O6,2.9946,-1.125837158571428,mp-1214636,0,4.0
KNa2SbF6,2.654299999999999,-2.635762935000861,mp-1111407,0,4.0
TeC4S4(N2F)4,0.2935,0.312659278968254,mp-1179346,0,0.0
DyCdAg2,0.0,-0.268829113749997,mp-867256,0,0.0
CrGaRh2,0.0,-0.385778979374999,mp-1183690,0,0.0
Tl16Ti4S16,2.353553,,,0,3.0
Cs4Ga2Se5,2.1204,-1.242127720028409,mp-574485,0,3.0
MnAlCo2,0.0,-0.356646874482758,mp-3623,0,0.0
Ba2GdUO6,0.8429000000000001,-3.618613175999999,mp-1205845,0,1.0
NdMgAg,0.0,-0.247594094722222,mp-1209825,0,0.0
Gd2Fe17N2,0.0,-0.165907783809523,mp-1225193,0,0.0
K2CuO2,0.0,-0.5416731168999991,mp-1021659,0,0.0
LiAlCu2,0.0,-0.221278555833333,mp-867272,0,0.0
Ni4RuN4,0.0,0.233624859814815,mp-1247328,0,0.0
Cr2Ni,0.0,0.278757505000001,mp-1077252,0,0.0
Na6La3NbSi2(PO6)4,2.4475,-3.011348889962849,mp-2715294,0,3.0
Li4ScIn3(SiO3)8,3.9221,-2.954179862708334,mp-1222575,0,6.0
Sc(Fe2P)2,0.0,-0.703504854183673,mp-510133,0,0.0
Mn2Co3Ge,0.0,-0.024743340977011,mp-22702,0,0.0
Dy2(BiO2)7,0.0,-2.065205561449275,mp-753975,0,0.0
Ba(MgBi)2,0.396799999999999,-0.5920732000000011,mp-29209,0,0.0
Na3ZnInSi(SO6)2,2.7377,-2.161481992956897,mp-2712629,0,4.0
Ti2SbP,0.0,-0.99371750157738,mp-5244,0,0.0
ScAlNi,0.0,-0.592524805833332,mp-1219369,0,0.0
Hg2Pb(SI)2,1.6317,-0.589620708571429,mp-557605,0,2.0
Na2ZnSiSn(SO6)2,1.405399999999999,-2.128032235408349,mp-2713220,0,2.0
Dy2Mn3Cu9P7,0.0,-0.41852616093459,mp-1191383,0,0.0
C2S3,1.7265,0.243854096607144,mp-1214192,0,2.0
F16Ge6,3.991971,,,0,6.0
Nd12Co6Pb,0.0251,-0.100850194210522,mp-1210632,0,0.0
ZnSnO3,1.080999999999999,-1.939425192999999,mp-13334,0,1.0
Na2Mg5Ti3(SO4)12,1.5367000000000002,-2.338243520444171,mp-2714656,0,2.0
La2ZnNi2,0.0,-0.359044422,mp-13532,0,0.0
Y3GaO6,3.6846,-3.54831445175,mp-554722,0,5.0
CsRe3(O3F5)2,3.0473,-2.514888288607758,mp-541867,0,4.0
HfCoSi,0.0,-0.8228001208333331,mp-1103227,0,0.0
CsH24Rh(SO10)2,2.747099999999999,-1.4132110031178151,mp-707209,0,4.0
Ba2Ca2Ti3Tl2O10,0.0,-2.79054479508772,mp-1046109,0,0.0
TbO2,0.0,-3.187126932222221,mp-2458,0,0.0
K3AuF6,1.0341,-2.298890059175,mp-1206879,0,1.0
Y2ZnHg,0.0,-0.476495073125001,mp-1187731,0,0.0
Ba3Zn6Si4Te1O20,3.310924,,,0,5.0
Li6Nb3P8O29,0.064899999999999,-2.707364884285714,mp-778109,0,0.0
Nb13Co40Si31,0.0,-0.5486817944047621,mp-1196553,0,0.0
Tl2Ti2P2S10,1.087167,,,0,1.0
Na2ZrSi4H4O13,4.9217,-2.714522347614943,mp-1210375,0,7.0
Ba2YInTe5,0.473199999999999,-1.522011588888887,mp-1106096,0,0.0
SbAsF8,3.8741,-2.5556112302500003,mp-27317,0,6.0
UB2,0.0,-0.617520190000002,mp-1514,0,0.0
H32RuC8N4Cl7,0.144399999999999,-0.450712049230769,mp-571170,0,0.0
Cs8S16O32,2.36037,,,0,3.0
Ho3Si3O10F,5.2841000000000005,-3.7223536476470582,mp-16165,0,7.0
PrPd3S4,0.0,-1.1582202895833311,mp-1188365,0,0.0
ErGe2Os,0.0,-0.530612717291665,mp-1198064,0,0.0
V3Fe,0.0,-0.1711368862499999,mp-1079399,0,0.0
Nb3Pd,0.0,-0.157793584999996,mp-1220635,0,0.0
B12H21C4S2I,4.2823,-0.238817737343749,mp-849805,0,6.0
PdSCl,0.9647,-0.480198357187499,mp-560901,0,1.0
Na8Ca2La2Si3(SO8)3,3.002399999999999,-2.6888022484174883,mp-2715135,0,4.0
Na6Sn2O7,2.190299999999999,-1.869324576885056,mp-773498,0,3.0
Rb3Re,0.0,1.557705373749999,mp-974856,0,0.0
Li2SnIr,0.0,-0.413437137916664,mp-1222612,0,0.0
Na4Cu4P4O16,1.6113300000000002,,,0,2.0
PmHoRh2,0.0,-0.7796415706249981,mp-1186592,0,0.0
MgNi3B2,0.0,-0.377924163333333,mp-571428,0,0.0
Eu(SiIr)2,0.0,-0.936589553,mp-21849,0,0.0
Ce(CoB)4,0.0,-0.458716993518518,mp-22165,0,0.0
CsSb2F11,4.502499999999999,-2.788554103189654,mp-556061,0,7.0
Li3RuF6,0.0,-2.418111476374999,mp-1111685,0,0.0
Al1V1Fe2,0.0,,,0,0.0
RbBePO4,4.9629,-2.881756237806122,mp-1209324,0,7.0
Rb8Ta6O19,3.4925,-2.9356604487575773,mp-1209439,0,5.0
NdGa4Co9,0.0,-0.215205165178572,mp-1193230,0,0.0
Mg6ZrGa,0.0,0.0002303546875,mp-1022479,0,0.0
Ba2CePbO6,2.3054,-2.873834082999999,mp-1228392,0,3.0
PH8IN4,4.0191,-0.537253677474488,mp-643158,0,6.0
RbPS3,1.8376,-0.979465044928566,mp-556953,0,2.0
Re3Se4Cl,1.1641,-0.560260590781247,mp-580748,0,1.0
ZnSiH12(OF)6,5.3956,-1.872398666730769,mp-40134,0,7.0
SbPC3Cl5O,1.1166,-0.276295905649351,mp-726922,0,1.0
Ho(SiIr)2,0.0,-1.086479175000001,mp-567513,0,0.0
BaZnF4,4.5489,-3.392223955833333,mp-3881,0,7.0
Ba2Y7Cl25,4.1748,-2.6825634525,mp-769023,0,6.0
Ca7RuN6,0.2519,-0.7859554887499991,mp-1245935,0,0.0
Ca2Sn9O13,0.0,-1.837643875,mp-1045693,0,0.0
YScCu2,0.0428,2.295052276249999,mp-1097277,0,0.0
Rb6Ti2O7,3.4079,-2.509190043444444,mp-770408,0,5.0
NaPbO3,0.0,-1.088504399275861,mp-1186153,0,0.0
Nd3MnBi5,0.0,-0.531357585603449,mp-569606,0,0.0
CeAlH2Ir,0.0,-0.646162232499999,mp-1079691,0,0.0
Ca2Ga2Bi(B2O7)2,1.6383,-2.036404776811594,mp-695449,0,2.0
Mg17Al12,0.0,-0.009331720172413,mp-2151,0,0.0
PH4N3,4.7672,-0.45626424250744,mp-28892,0,7.0
Co4Ta8O24,2.452792,,,0,3.0
Mg9(FeN4)2,0.0209,-0.6209294286842111,mp-1245778,0,0.0
LaGdN2,0.0,-1.663228306874998,mp-1222851,0,0.0
U2SnPd2,0.0,-0.269779586999997,mp-21337,0,0.0
KPH3O4F,5.7538,-2.136675501064285,mp-761185,0,7.0
Al2Cu11B13,0.0,0.617689761057691,mp-1215060,0,0.0
U8Bi2O19,0.0,-3.36547055051724,mp-677724,0,0.0
Ba1B6,0.0,,,0,0.0
Mn2GeW,0.0,3.380285399784481,mp-1095786,0,0.0
TaCrNi,0.0,-0.112727552944448,mp-1218063,0,0.0
SrLaAl3O7,4.415,-3.581151387083333,mp-1218220,0,7.0
KMg14TiO16,0.7464000000000001,-2.868070436893229,mp-1034191,0,1.0
Y2Sn3(PbS4)3,0.5405999999999991,-1.132077395999998,mp-1197404,0,0.0
Pr4Si2Se3O7,2.3921,-3.170509341324869,mp-14836,0,3.0
Li2HoTl,0.0,-0.300348039583333,mp-865624,0,0.0
MnGeRh,0.0,-0.370406882643679,mp-18649,0,0.0
CsLa2Ti2NbO10,1.5818999999999992,-3.458847388520116,mp-1225974,0,2.0
CaYMg2,0.0,1.869597975,mp-1096179,0,0.0
Er2CoIr,0.0,-0.5745190599999991,mp-1184125,0,0.0
KSnPO5,3.0231,-2.503160578205357,mp-541459,0,4.0
Li3H6Ir,3.1818,-0.541248367499999,mp-722890,0,5.0
Li3Ti2Cu3O10,0.0907,-2.045897611481481,mp-849652,0,0.0
YMg6BO8,3.3055,-2.586341380572916,mp-1031931,0,5.0
Na14Ca5Hf3Si6(SO8)6,3.2525,-2.702600852328988,mp-2714270,0,5.0
RbNbTeO6,2.274499999999999,-2.288146800462963,mp-1219576,0,3.0
SmBr,0.0,-1.40973337,mp-972742,0,0.0
Sr2Pr2PtO6,0.819299999999999,-2.724112004848484,mp-1218742,0,1.0
NaH4Au(Br2O)2,1.1175,-1.126315193031609,mp-761916,0,1.0
K2Y4Cu4Se9,0.7046999999999991,-1.499322636610196,mp-863763,0,1.0
Ba2Cl2F,0.0,-1.827063417,mp-1207049,0,0.0
PrBPt2,0.0,-0.900692511041671,mp-1209526,0,0.0
YBr2,0.0,-1.890311351666666,mp-865534,0,0.0
MgBi5,0.0,0.070073285833331,mp-1185698,0,0.0
Ru(CN)2,1.3609,0.259964337000002,mp-1245675,0,2.0
C8N16H12Cu2,2.021395,,,0,3.0
Mg14AlBO16,0.7059999999999991,-2.797423536848958,mp-1036399,0,1.0
Ba3Sn5,0.0,-0.625945496875001,mp-18636,0,0.0
Na5AgGe2S7,1.758199999999999,-1.03734780407088,mp-1194446,0,2.0
Li2ScTl,0.0,1.57333748458333,mp-1096746,0,0.0
P3S3N6F5,2.143799999999999,-1.133012580231092,mp-560409,0,3.0
LaSnF7,5.2136000000000005,-3.4903794819444443,mp-18566,0,7.0
GdMnSi,0.0,-0.545758339310345,mp-20553,0,0.0
Sr3Tm2(GeO4)3,3.1627,-3.1112325325,mp-1209021,0,5.0
NaHgCl3,2.5331,-1.170227544500005,mp-608490,0,4.0
UFeS3,0.0,-1.241572883499998,mp-22667,0,0.0
Al6ZnP4(H4O7)4,2.2586,-1.580573839974025,mp-686801,0,3.0
Rb3SbS4,2.022799999999999,-1.138582374687499,mp-17154,0,3.0
SrHgO3,0.0,-1.3590512335000011,mp-971975,0,0.0
Tm5(In2Ni)2,0.0,-0.516117088333335,mp-1191271,0,0.0
ScBPt3,0.0,-0.636092646833331,mp-1018627,0,0.0
Li2InCuF6,0.0,-2.304409231333333,mp-1111100,0,0.0
NaYbS2,0.0,-2.139647165156249,mp-4494,0,0.0
PaTe2Pd,0.0,-0.5864961824871241,mp-1186417,0,0.0
NiAs,0.0,-0.291481691249998,mp-590,0,0.0
BaSb2Pd,0.0,-0.9061885287499992,mp-9768,0,0.0
TaSiGe,0.0,-0.329080731095236,mp-1217900,0,0.0
DyHoZn2,0.0,-0.340149279166663,mp-1183799,0,0.0
La3Ir,0.0,-0.48856958375,mp-1188506,0,0.0
Na1La2C3O9F1,3.520027,,,0,5.0
LuTaOs2,0.0,-0.375750661000019,mp-866127,0,0.0
YLu(BRh)8,0.0,-0.571830367222222,mp-1215994,0,0.0
RbEu3,0.0,0.270458561874995,mp-1186947,0,0.0
LiThHg2,0.0,-0.339903192916672,mp-1185437,0,0.0
Dy2Ni17,0.0,-0.199735178070175,mp-1197654,0,0.0
Th2AuF11,2.3273,-3.590026694999995,mp-29890,0,3.0
Ce(BC)2,0.0,-0.521316082000001,mp-20908,0,0.0
BaTi2Bi2O,0.0,-1.323680846944444,mp-1070808,0,0.0
Mn3Fe3N5,0.0,-0.238112974435737,mp-1246617,0,0.0
HfCl4,4.1668,-2.028435395,mp-29422,0,6.0
Na3ZnSn(PO4)3,2.3868,-2.476684132069992,mp-2715492,0,3.0
Pr2(CuGe)3,0.0,-0.5390127679166661,mp-1206102,0,0.0
Mg14TiC,0.0,0.315539166354166,mp-1026445,0,0.0
RbCuF3,0.0,-2.337212868500001,mp-8858,0,0.0
KCe2CuSe6,0.083999999999999,-1.502879523631249,mp-669330,0,0.0
BH10C2N5O3,4.5529,-0.857907994007937,mp-734069,0,7.0
Sr2TlCl5,4.29,-2.499066477291666,mp-1208784,0,6.0
Te8Rh3,0.0,-0.398017688181818,mp-7273,0,0.0
Ce2Mn3Si4Pd,0.0,-0.61060409937931,mp-1226880,0,0.0
Np(SiNi)2,0.0,-0.629866642750005,mp-571509,0,0.0
HoMgIn,0.0,-0.358167041111109,mp-20538,0,0.0
Ca11GaSb9,1.0841,-1.057568984880958,mp-1214384,0,1.0
Re4La6O18,0.146668,,,0,0.0
Eu(IO3)3,0.0,-1.323787097307693,mp-556079,0,0.0
Lu5NiPb3,0.0,-0.479233872592595,mp-568942,0,0.0
Ba4Zr3TiO12,1.7076,-3.587298165166667,mp-1228038,0,2.0
OsRu,0.0,-0.014805672500003,mp-1220023,0,0.0
Cd12As4Cl12,1.439229,,,0,2.0
Dy2Pt2O7,1.5345,-2.4584393239393942,mp-1178365,0,2.0
PrPS,0.2892,-1.781677135818452,mp-1190998,0,0.0
HoLuAg2,0.0,-0.332111466249998,mp-973283,0,0.0
LiSb(TeO4)3,1.658799999999999,-1.569226888431372,mp-761825,0,2.0
LaY(SO4)3,4.6238,-2.6478218433823533,mp-2713819,0,7.0
Ca2MgAs2(H2O5)2,3.856,-2.213057013157895,mp-1214276,0,6.0
Cd2GaCuTe4,0.2627,-0.430595276249995,mp-1227008,0,0.0
Mo3Se4,0.0,-0.5819315730357171,mp-21021,0,0.0
Y3AlNiS7,0.0,-1.829692037708332,mp-1190741,0,0.0
TiMn2Mo,0.006099999999999,3.612979485201148,mp-1096044,0,0.0
Ba2HoMgCu3O7,0.0,-2.081824445357142,mp-2241402,0,0.0
Ba5(Sn3Bi2)3,0.0,-0.47377888375,mp-1214565,0,0.0
Nd3Co4Sn13,0.0,-0.361106573874997,mp-1198940,0,0.0
Y7Mg3Ge8,0.0,-0.7328095905555551,mp-1216194,0,0.0
Sr2Mg3Al,0.0,-0.097511580833333,mp-1208806,0,0.0
YMn2SiGe,0.0,-0.552902662172414,mp-1216092,0,0.0
Ce3Se4,0.0,-2.111994037053569,mp-567370,0,0.0
Li2HN,2.0831,-0.582572850104166,mp-1189725,0,3.0
CaEuGdSbO6,0.210599999999999,-2.9114742825000013,mp-1516953,0,0.0
Ti2Sb(PO4)3,0.0,-2.735729106421958,mp-773711,0,0.0
CeSiRu2C,0.0,-0.563452773999999,mp-1205654,0,0.0
Ho4Fe,0.0,0.437493243000004,mp-1213581,0,0.0
CuH8C4(NO3)2,0.0,-0.878184068571429,mp-560533,0,0.0
Cu3P4C4(NO6)2,0.555199999999999,-1.076845279142856,mp-1197453,0,0.0
CaLaTl2,0.0,1.488126047083329,mp-1095769,0,0.0
Cu3P4Pb3O16,0.497199999999999,-2.114238172060439,mp-1202993,0,0.0
Ca2AgPd,0.0,-0.461979811249998,mp-1183456,0,0.0
Na5Hf2Ta2Si5PO24,3.407799999999999,-3.165968412210412,mp-2716426,0,5.0
Na4Y2Si2SO12,3.7148,-2.877539848080186,mp-2714374,0,5.0
ScAsO3,0.0,-1.7497117375,mp-973156,0,0.0
I2Al2O8H12,4.332996,,,0,6.0
Hg16I20As4,0.943776,,,0,1.0
Rb2AlAgCl6,2.4448,-1.860683853666666,mp-1111472,0,3.0
Na8ZnSi5Ge3SO24,1.6362,-2.442934043496853,mp-2715656,0,2.0
Li2Lu5B3O13,4.4597,-3.525434384673912,mp-1210908,0,7.0
Pr4AlFe33,0.0,0.034246146666668,mp-1219956,0,0.0
LiGe2(PO4)3,3.442199999999999,-2.478640178181215,mp-541272,0,5.0
EuN,0.0,-1.049405746874999,mp-20340,0,0.0
CeSmB12,0.0,-0.550204870714286,mp-1226503,0,0.0
Rb2NbCuSe4,1.639399999999999,-1.192566984296874,mp-15222,0,2.0
BaU(SeO4)2,0.413099999999999,-1.8658469764322911,mp-683942,0,0.0
Ba3(CdAs2)2,0.0,-0.83204799111111,mp-1080464,0,0.0
Ho5Sb3,0.0,-1.038638835624997,mp-2681,0,0.0
CsInS2,2.4776,-1.178435854531249,mp-559459,0,3.0
Na3Ta2Nb2Si5PO24,2.956,-3.08339953495804,mp-2714577,0,4.0
Li6Br3N,2.273399999999999,-1.281221850124999,mp-568365,0,3.0
TiTl2W,0.0,0.792433242500003,mp-631374,0,0.0
Ca(NO3)2,3.6398,-1.522508383333334,mp-3142,0,5.0
Tm2BeOs,0.0,-0.143707006250004,mp-979042,0,0.0
MgNiGe,0.0,-0.358549449999999,mp-1102387,0,0.0
Pr4In21Pd10,0.0,-0.5268356456190461,mp-680610,0,0.0
LiMg9B20,0.0,-0.163795812394701,mp-35040,0,0.0
KBaMg6,0.0,0.18404436534375,mp-1021345,0,0.0
Pd1O2Li2,1.294554,,,0,2.0
UBiSb,0.0,-0.362708326666686,mp-980664,0,0.0
Cu(NCl2)2,0.005199999999999,1.150794603571427,mp-1104198,0,0.0
PrBS3,2.4441,-1.550804115666665,mp-862754,0,3.0
Na10Y4Zr4Si7S5O48,3.0187,-2.885695341725981,mp-2716023,0,4.0
Sr1Cd2P2,0.70457,,,0,1.0
NaB24S6(Br2O)12,0.0,-0.741681977184765,mp-1197248,0,0.0
SrHg,0.0,-0.525794336250005,mp-542,0,0.0
SmZnAu2,0.0,-0.6066496987500001,mp-867860,0,0.0
P2PdPbO7,0.3293,-2.18961626220779,mp-1195693,0,0.0
AgBi2S3Cl,0.7834000000000001,-0.707342042023809,mp-558368,0,1.0
K2EuGeSe5,0.2239,-1.282853604857638,mp-628810,0,0.0
PmCu2Si,0.0,-0.429390709638717,mp-1186567,0,0.0
Hf2MnFe,0.0,3.549130193017242,mp-1096246,0,0.0
Ca2AlZn16,0.0,-0.188522674736838,mp-1227383,0,0.0
Pr3CuGeSe7,1.2189,-1.586641349700519,mp-571347,0,1.0
CuPt3,0.0,2.363563227500002,mp-1213433,0,0.0
CsRuO3,0.0,-1.267780486931035,mp-1183971,0,0.0
K4Ti4I12O,0.0,-1.45124756368254,mp-1190669,0,0.0
AuC2,2.8504,1.543402631666666,mp-1214766,0,4.0
Cu2Li4O4,1.074042,,,0,1.0
ScCoNiSn,0.0,-0.441767664999999,mp-1219300,0,0.0
Li4AuS4,0.0,-0.787456992037036,mp-1211793,0,0.0
CaAgAsO4,1.3007,-2.046540524166666,mp-1213950,0,2.0
SbPbS2,0.0,-0.522243496249998,mp-1219470,0,0.0
SbCN2OF3,1.6382999999999992,-1.2314538775,mp-1198449,0,2.0
BeSiP2,1.1502,-0.372595443571428,mp-1009085,0,1.0
K1Ag2Sb1S4,0.5696669999999999,,,0,0.0
Bi24Br10O31,1.476,-1.572121369307693,mp-766249,0,2.0
Mg4H2O5,4.0052,-2.553808647954545,mp-30242,0,6.0
Ca2F,0.0,-1.982806110666667,mp-684949,0,0.0
Y6Pb8OF32,4.0829,-3.514431159255318,mp-621825,0,6.0
Y5(Ge5Ir2)2,0.0,-0.7731281692105261,mp-1196414,0,0.0
Pt3O4,0.0,-0.8267827357142831,mp-1604,0,0.0
Na7Zr2Si5Sn2PO24,3.5476,-2.854658903600765,mp-2714389,0,5.0
CuAs2H6C2IO2,2.5975,-0.511778557410715,mp-1197759,0,4.0
TaGaO4,3.2819,-2.8569991833055552,mp-753378,0,5.0
Cu2NiSnSe4,0.0,-0.484526595546874,mp-1225885,0,0.0
K2Cu2C4,2.409372,,,0,3.0
Se2O6N2H10,4.381826,,,0,6.0
Rb2Se4Sc2O12,4.073376,,,0,6.0
Ru4K8Cl20N4O4,1.81848,,,0,2.0
Ba3(AlGe)2,0.0,-0.478304637142857,mp-10669,0,0.0
K4ZnH6(S2O9)2,0.4878,-1.6432586357272732,mp-703836,0,0.0
Y8V4O20,1.680079,,,0,2.0
U3P2Se,0.0,-1.075994180271567,mp-1216742,0,0.0
Ag2Cu4S8P2,1.403779,,,0,2.0
TbLu,0.0,0.007760676666663,mp-1217467,0,0.0
Na14Mg4Al4Si5S7O48,3.5076,-2.529726410875736,mp-2715869,0,5.0
K2CuBiF6,0.8218000000000001,-2.49143177645,mp-1110841,0,1.0
FeCo3,0.0,0.028938069999999,mp-1007852,0,0.0
Na3(GePt)4,0.0,-0.561276299090908,mp-21199,0,0.0
Ba8Ta6Li2O24,3.081311,,,0,4.0
Re6H12Pb3C2S2(N2O13)2,2.395699999999999,-1.5218550634545451,mp-707491,0,3.0
ZrSiSe,0.0,-1.209888084114576,mp-4628,0,0.0
Mg15Ni,0.0,0.0473893378125,mp-1023622,0,0.0
Na8TiZn3(PO4)6,1.6831,-2.572962414894245,mp-2715200,0,2.0
BaAg2GeSe4,0.035,-0.94860190346354,mp-569790,0,0.0
TmIr2,0.0,-0.8452270983333351,mp-30743,0,0.0
NdMgRh,0.0,-0.585448164166665,mp-1209841,0,0.0
LiPm2Co,0.0,0.090516054583336,mp-1185413,0,0.0
SiSnPd5,0.0,-0.606985762142853,mp-1077994,0,0.0
Sb2Kr6F22,1.288346,,,0,2.0
Sr2Zn3Te2(PO7)2,3.556899999999999,-2.432398993157349,mp-1194862,0,5.0
Hf3Ag,0.0,0.097794913749986,mp-1184564,0,0.0
MnMoAs2,0.0,-0.249077085732759,mp-1221596,0,0.0
Cu8S8N8C8,2.846761,,,0,4.0