formula,bg,formation_energy,mp-id,fidelity,bg_category
LiGa2Pt,0.0,-0.6194263145833321,mp-20363,0,0.0
Sc2Ge2O7,3.7047,-2.9545466199999972,mp-757450,0,5.0
Tb6CoCl10,0.0,-2.210081001176471,mp-1105586,0,0.0
LiNd14(Cu3O14)2,0.0,-3.010613823435373,mp-766561,0,0.0
Na2ReO3,1.9954999999999992,-2.011853257126435,mp-1210286,0,3.0
Mg(Fe5N4)2,0.0,-0.125371383421052,mp-1245863,0,0.0
Nb4I12Se4,0.608571,,,0,0.0
ZrNiP2,0.0,-0.941227853571428,mp-1078514,0,0.0
Na4Y3TaSi3(SO8)3,2.9676,-2.8324615432987,mp-2713559,0,4.0
Er10NiSb5,0.0,-0.8592507874999981,mp-1225477,0,0.0
SbS2NF6,2.6713,-1.827770044,mp-12368,0,4.0
LaZn,0.0,-0.325346419999998,mp-2615,0,0.0
Sc2Ga8Ni,0.0,-0.466083530909089,mp-1208973,0,0.0
Li5CuHO4,0.3567,-1.731310787083333,mp-758945,0,0.0
Ba(CdSb)2,0.0,-0.6039184979999991,mp-8150,0,0.0
Sc4Ge6Ru7,0.0,-0.620636898235294,mp-1188796,0,0.0
Mo9HS18,0.0,-0.777549056986608,mp-990086,0,0.0
Y2(GePt3)3,0.0,-0.7647385817857271,mp-1207911,0,0.0
PaRe3,0.0,0.300544411250001,mp-1186413,0,0.0
Ce(MnGe)2,0.0,-0.450927067172415,mp-21089,0,0.0
Li6B4O9,4.8958,-2.675169603508771,mp-1020024,0,7.0
Ca3Cu6(PO4)8,0.041399999999999,-2.216097518513119,mp-1350627,0,0.0
DyVSb3,0.0,-0.6239021693333311,mp-1181506,0,0.0
UPbO4,1.5098,-2.967640787499997,mp-504922,0,2.0
ReBr,0.0,1.046157041249999,mp-974474,0,0.0
Sb2Se8As6F12,1.7318,,,0,2.0
Ni8Ge2B3,0.0,-0.300986961346154,mp-22703,0,0.0
Na2CdH4(SO5)2,3.9833,-1.793923464092559,mp-698056,0,6.0
Cs2CeN5O17,0.101199999999999,-1.254179772172414,mp-1198000,0,0.0
Pr4Bi3,0.0,-1.0043844602381,mp-23314,0,0.0
P16S12,2.627502,,,0,4.0
Th5OF19,0.7837000000000001,-4.284045014399998,mp-1208339,0,1.0
Ta11(CoSe4)2,0.0,-0.7365045183055561,mp-21584,0,0.0
LiEr4(HCl)4,0.0,-1.417684370641024,mp-1222333,0,0.0
U2Cl2O,0.0,-1.317727030999996,mp-1207293,0,0.0
MgTlAs(H6O5)2,4.5372,-1.500888863833333,mp-556009,0,7.0
InPS4,2.3185,-0.48460511487103,mp-20790,0,3.0
CaPm3,0.0,0.097397565624998,mp-1183605,0,0.0
ErSiPd2,0.0,-0.992638473125,mp-3352,0,0.0
Li2PtO3,1.842,-1.682490645,mp-531826,0,2.0
Th4Os,0.0,0.351731368666662,mp-1208312,0,0.0
Mg9CuO10,0.0,-2.79245543375,mp-753285,0,0.0
Na6Y4Nb4Si7S5O48,1.763,-2.822268808005981,mp-2713032,0,2.0
Th2Si3Os,0.0,-0.757456817499999,mp-1217276,0,0.0
H4CSN2Cl,3.6373,-0.513696741944444,mp-720300,0,5.0
K(NiS)2,0.0,-0.7965754164499991,mp-558518,0,0.0
Na4GeSe4,1.7906,-1.087092957349138,mp-28292,0,2.0
Nd3Si11Pt23,0.0,-0.884613616824323,mp-1196005,0,0.0
AlH18(NO6)3,3.3987,-1.291577204687501,mp-707784,0,5.0
SrBi5O9,0.0,-1.778133489666668,mp-753357,0,0.0
Na2CaMg(SO4)3,5.0629,-2.3961619938732612,mp-2714724,0,7.0
Sb2IrC3O3F13,2.8205,-2.089927890227272,mp-1203024,0,4.0
CeBr3,0.0,-2.261770134999998,mp-569850,0,0.0
Si2BAsH29C9N,3.354,-0.189340165416666,mp-1203624,0,5.0
Li(FeS2)2,0.0,-0.8052452404761901,mp-1040470,0,0.0
Hg(BiS2)2,1.1861,-0.582541794642855,mp-554921,0,1.0
Dy2Te5,0.0,-1.139798270000004,mp-1103932,0,0.0
BiH18C3S3(O2F)9,5.5252,-1.535049917692308,mp-1199850,0,7.0
Ce2SiSeO4,0.0,-3.308823604355468,mp-542664,0,0.0
Mg2GaW3S8,0.0684,-1.010583275535713,mp-1247078,0,0.0
NaCuSe,0.047699999999999,-0.7227659013541671,mp-7433,0,0.0
La21Fe8Sn7C12,0.0,-0.452047177916667,mp-607917,0,0.0
Rb2Cr(ICl)2,0.0,-1.568209331428571,mp-1209504,0,0.0
Er12Ga9Ge11,0.0,-0.708177831015623,mp-1225474,0,0.0
Ba3Ta6Si4O23,0.0,-3.151371994694444,mp-559929,0,0.0
Ta2Zn2CuO8,0.1017,-2.431773333051281,mp-1045963,0,0.0
CeBi,0.0,-1.166013417500003,mp-23285,0,0.0
HfTiBe2,0.0,3.602343319166667,mp-1097550,0,0.0
Mo2Co2Na1O10H3,0.086098999999999,,,0,0.0
Mg16MnAl12,0.0,0.014782243174792,mp-1185724,0,0.0
BiOsSe,0.477199999999999,-0.004123136909721,mp-1103374,0,0.0
ThCoSi2,0.0,-0.776504499999997,mp-1206216,0,0.0
CuB2P2(HO2)6,1.206,-2.009843115983436,mp-1200514,0,1.0
RbSn2(PO4)3,3.3458,-2.540144043412685,mp-1179711,0,5.0
NdPPd,0.0,-1.240854755714272,mp-3570,0,0.0
CsCrBr3,0.0,-1.450127142931035,mp-27179,0,0.0
ErB4W,0.5911000000000001,-0.605055370277785,mp-1192093,0,0.0
LiMgBi,0.3587,-0.396783942777777,mp-570213,0,0.0
PrZn2,0.0,-0.355737690555556,mp-1072856,0,0.0
EuHgAu2,0.0,-0.5296377318750041,mp-977581,0,0.0
Ni2Cr2O8,2.245148,,,0,3.0
Y2CrS4,0.0,-1.8658876444642851,mp-555795,0,0.0
Cs2TlAgI6,0.0,-1.010044748431035,mp-1112933,0,0.0
As2PbO4,2.846199999999999,-1.646121696071428,mp-28537,0,4.0
BaIn2Pt,0.0,-0.6262856920833311,mp-21032,0,0.0
Na3Ca2Mg10Si16(O11F)4,0.9215,-2.644904801065037,mp-1173853,0,1.0
U2(Fe7B2)3,0.0,-0.233257408448275,mp-1208129,0,0.0
Ho5(SiSb)2,0.0,-1.050691224444443,mp-1212206,0,0.0
Zn(CuN)2,0.0,0.500860289999999,mp-1389439,0,0.0
Li2Ge2O5,3.3005,-2.245412622962963,mp-7998,0,5.0
Mg2PdRh,0.0,-0.625471557499999,mp-864969,0,0.0
TaP2NCl12,2.8674,-1.40031957728869,mp-669508,0,4.0
K2Au2Se2,1.802508,,,0,2.0
Cr2I4,1.168635,,,0,1.0
GaP2H11O12,4.892,-1.752331796366757,mp-1212715,0,7.0
CuH18C4N10(ClO)2,0.9943,-0.549836889391892,mp-721789,0,1.0
Lu2N3,0.0,-0.9163753719166692,mp-1200511,0,0.0
LaScO3,3.8973,-3.950563377999999,mp-31116,0,6.0
Mg2TiIn3S8,0.0,-1.190836301666665,mp-1247164,0,0.0
TbMgO3,0.0,-2.757292313333333,mp-1187347,0,0.0
Ti(NiN)4,0.0,-0.192540070925926,mp-1245900,0,0.0
H4NClO4,5.3564,-0.6449428545,mp-706586,0,7.0
Eu2PCl,0.0,-1.854195227619047,mp-1225319,0,0.0
Cs2SeCl6,2.7509,-1.275681211562499,mp-27830,0,4.0
Al6O12Cd4S1,2.751429,,,0,4.0
La4CdNi,0.0,-0.240752457499998,mp-1211864,0,0.0
Mg2Cr4O8,2.643869,,,0,4.0
NaSnN,0.917899999999999,-0.194624833793103,mp-12433,0,1.0
Sb4PtC4(O2F11)2,3.5545,-2.197733829785714,mp-559420,0,5.0
ZnTe2O7,1.3178,-1.218527715833332,mp-1042155,0,2.0
Na6CaTi3Si2(PO6)4,2.548599999999999,-2.952473356546181,mp-2715370,0,4.0
Ca3Ru3N5,0.0,-0.450320633636363,mp-1247052,0,0.0
NaY2Zr2P3(SO8)3,3.3811,-2.877695222604035,mp-2716561,0,5.0
Ti9Se2,0.0,-0.531307158153409,mp-619905,0,0.0
Cs2KCeCl6,4.0361,-2.477003932656034,mp-1112872,0,6.0
Gd3Ni19B10,0.0,-0.412981400364582,mp-866774,0,0.0
K2H2Se(IO5)2,3.7575,-1.307863585255514,mp-1197713,0,5.0
Sr2PrGeO6,0.0,-2.805281211916666,mp-1521453,0,0.0
Ba2NbCu2Pb2ClO8,0.0,-2.1794499893749992,mp-1228495,0,0.0
PrZnPd,0.0,-0.674469673888891,mp-12710,0,0.0
Pr2Mn3(SbS3)4,0.1756,-1.045601473672686,mp-1192303,0,0.0
Ti2K4F14H2,4.541794,,,0,7.0
Er4CdNi,0.0,-0.301027393749992,mp-1212924,0,0.0
Er2Fe17C3,0.0,-0.086707613863635,mp-1212962,0,0.0
Ho4InIr,0.0,-0.5815388636111091,mp-567479,0,0.0
Co5(SnAs)2,0.0,0.047694850555555,mp-1226112,0,0.0
Y3(SiNi3)2,0.0,-0.635021798181816,mp-1207795,0,0.0
Y3Ga9Cu2,0.0,-0.484913577678573,mp-1207797,0,0.0
NiTePd,0.0,-0.236874964166666,mp-569511,0,0.0
Rb5SiAs3,0.7647,-0.385169219166666,mp-17490,0,1.0
Nd3Sc,0.0,0.047528344375002,mp-1186283,0,0.0
U11(PbO12)3,1.6609999999999991,-3.395031799899999,mp-1198411,0,2.0
K4Pt2I9,0.0,-1.0339114924,mp-685901,0,0.0
YH3(SO4)3,5.3734,-2.032065631315789,mp-24656,0,7.0
CsCuRhF6,0.0,-2.157748554961685,mp-1228942,0,0.0
MgBPO6,0.0,-2.402094971904762,mp-1202864,0,0.0
ZnH8(O2F)2,5.1226,-1.539463170999999,mp-706616,0,7.0
Na7Cu3O8,0.9234,-1.420506316647509,mp-675539,0,1.0
KLi3TiO4,4.6824,-2.6511318892314812,mp-1211546,0,7.0
MgAu5,0.0,-0.255084704166662,mp-1185852,0,0.0
K2ErAgCl6,3.6443,-2.1412248506166662,mp-1112473,0,5.0
ScU8S17,0.0,-1.877286469723554,mp-619571,0,0.0
Na10Y4Si7Sn4S5O48,1.5014999999999992,-2.591635853264442,mp-2715968,0,2.0
Ca(MgBi)2,0.3886,-0.516634074000004,mp-29208,0,0.0
Ca6Al7O16F,3.8751,-3.498796359666667,mp-1227337,0,6.0
TaNb(Cu3Se4)2,1.424,-0.594848794989555,mp-1217928,0,2.0
Gd2ZrS5,0.0,-2.198077516875003,mp-1200036,0,0.0
ErTmMg2,0.0,-0.043739617500002,mp-1184240,0,0.0
Mg6VC,0.0,0.232116833124999,mp-1021449,0,0.0
Na2Hf4Si3(SO8)3,3.184299999999999,-2.9656010559794073,mp-2713424,0,5.0
Ba2CdAg,0.3205,1.072896072083334,mp-1093931,0,0.0
K2SrP2O7,4.8616,-2.919873771357142,mp-557747,0,7.0
Ba2SrY2Cu2PtO10,0.585399999999999,-2.534219222222221,mp-1214627,0,0.0
YbZnAu2,0.0,-0.698349319999998,mp-865431,0,0.0
H10PtC(N4O)2,2.0724,-0.329469737840909,mp-604702,0,3.0
Sm13Cd58,0.0,-0.200672589647886,mp-582240,0,0.0
Ho2NiGe6,0.0,-0.49623418222222,mp-12987,0,0.0
BaNaAu2,0.0,0.443739142155172,mp-1093620,0,0.0
Sr6B(PO4)5,4.8124,-3.249417187886905,mp-6044,0,7.0
K2Hg3S4,1.7408,-0.758762799666664,mp-1211986,0,2.0
MnFe4SiB2,0.0,-0.359255160783046,mp-1105397,0,0.0
Li2CuF6,0.0,-2.142215233703704,mp-759169,0,0.0
K2TaAgCl6,0.0,-1.597737288349999,mp-1112083,0,0.0
Sr2ErGaCu2O7,0.0,-2.501707244807692,mp-541324,0,0.0
Rb2NdBr5,4.0291,-2.213959484062501,mp-1209500,0,6.0
NaAuSe2,0.9131,-0.6177059851562521,mp-29139,0,1.0
O4H8,5.194564,,,0,7.0
La6Mg23Sb,0.0,-0.169848682166666,mp-1192585,0,0.0
SrPbAu2,0.0,0.7372749062499999,mp-1095778,0,0.0
NaNb3Zn(PO4)6,1.251599999999999,-2.772782337025804,mp-2713883,0,1.0
Cu4Sb2O12Na6,1.384505,,,0,2.0
K2YAgCl6,3.6689,-2.012176435999998,mp-1110872,0,5.0
Na7Hf4Si5PO24,4.3705,-3.193881032381253,mp-2714403,0,6.0
B5H12NO12,5.760400000000001,-1.844216078194444,mp-703444,0,7.0
Na6La4Zr4Si5S7O48,2.923599999999999,-2.819908242352827,mp-2715851,0,4.0
Cs(SeO3)2,0.016699999999999,-1.11948552659363,mp-1189389,0,0.0
Ho2AgAu,0.0,-0.596929542916663,mp-1184622,0,0.0
GaNi2,0.0,-0.30052139,mp-570904,0,0.0
Rb20Si4As12,0.347619,,,0,0.0
SiH2,4.0154,0.033403332416666,mp-1192532,0,6.0
Na4Zn4O6,1.913596,,,0,3.0
K2RbAlCl6,4.487,-2.0999662172,mp-1111613,0,7.0
Cl4N4O4,1.764295,,,0,2.0
Mg18Al11,0.0,0.00334974275862,mp-1094700,0,0.0
Na4Br(ClO4)3,4.8747,-1.057053452525861,mp-1221202,0,7.0
K2SrTa2O7,2.0748,-3.146543844513889,mp-7148,0,3.0
HfGaRu2,0.0,-0.670260705,mp-865010,0,0.0
Cu2H2CO5,0.0,-1.2588766395,mp-504588,0,0.0
NaGaBP2H3O10,4.9585,-2.320842966448982,mp-1199672,0,7.0
RbSi2BP(H3C)9,2.6532,-0.202797376251452,mp-1205289,0,4.0
KTaPt,0.0,1.166402431805556,mp-631314,0,0.0
Xe2NO2F13,2.8973,-0.8392523713888891,mp-556244,0,4.0
Dy10Si17,0.0,-0.7190935442592601,mp-569825,0,0.0
Sr4PdO6,1.4647,-2.581484783181816,mp-29775,0,2.0
Nb6Fe7,0.0,-0.112549219230768,mp-1103885,0,0.0
K2Os(Cl2O)2,1.4297,-1.426470847166667,mp-23097,0,2.0
Mg3(InN2)2,0.313099999999999,-0.328688682037037,mp-1246014,0,0.0
SrMg3,0.0,-0.008191132613635,mp-1094320,0,0.0
Si4Al2O14Li2H2,3.460903999999999,,,0,5.0
Mg6CoW,0.0,0.314360693541667,mp-1022059,0,0.0
Na34Cd6Ga92Cu7,0.156,-0.124215544510046,mp-1224252,0,0.0
AgMo12PbS16,0.0,-0.903015552722222,mp-1229112,0,0.0
Sm3AuO6,1.7477,-3.077528223500002,mp-10560,0,2.0
Tc1F6Rb2,1.828984,,,0,2.0
Ag3AsO4,9.9999999999989e-05,-0.964007315312498,mp-1229124,0,0.0
Pr6Cu8P8O3,0.089,-1.289799151685714,mp-1219867,0,0.0
TmRh3,0.0,-0.56125227,mp-1187567,0,0.0
Bi8SbAuBr9,1.2248,-0.720775032763159,mp-573727,0,1.0
K5In3(SiO3)7,3.6681,-2.8100615634375,mp-557237,0,5.0
Ba2CaCu2HgO6,0.0,-2.014209259375,mp-6879,0,0.0
Mn14Si23,0.0,0.294459801235667,mp-650285,0,0.0
Lu4S16P4,2.093066,,,0,3.0
CoHg3,0.0,0.474176409999998,mp-985285,0,0.0
SbTeRh,0.552099999999999,-0.7041532030555531,mp-1219458,0,0.0
CdH12C4I2(NO)4,3.343899999999999,-0.699728671296296,mp-1197055,0,5.0
Rb2CuRuF6,0.0,-2.228017409499999,mp-1113795,0,0.0
Pd2Cu2Se10Rb2,1.0708,,,0,1.0
LaDyO3,4.401499999999999,-3.899716204333333,mp-756272,0,7.0
Nd(Ga2Fe)4,0.0,-0.279947073653846,mp-1209923,0,0.0
NbClF8,3.2783,-2.149215507749999,mp-649253,0,5.0
Cs4In6,0.010232,,,0,0.0
BaSr11Al4(O4F)4,4.0628,-3.419791733888888,mp-1227818,0,6.0
Pm2ZnGa,0.0,-0.5177212025000021,mp-977546,0,0.0
Na2Nb2Se4,0.514456,,,0,0.0
Mn3AsN,0.0,-0.177386089258621,mp-1206774,0,0.0
Ga3Se,0.0,-0.099465567890623,mp-1184214,0,0.0
Fe2SiP,0.0,-0.472616739910713,mp-1225141,0,0.0
Th4UTe5,0.0,-1.107250492199978,mp-1217457,0,0.0
BaCaAl3P2(HO7)2,0.117299999999999,-2.759302755295031,mp-1233113,0,0.0
La(SiIr)2,0.0,-1.027113736999999,mp-3585,0,0.0
SmGe2,0.0,-0.5827179600000001,mp-12750,0,0.0
HoFe5P3,0.0,-0.742922422936506,mp-1200877,0,0.0
K2Na5Al7Si5O24,2.2955,-3.000122484102245,mp-697305,0,3.0
Pr2InAu2,0.0,-0.7532620869999941,mp-1205890,0,0.0
Ba11Cd6Sb12,0.1617,,,0,0.0
LaNi5H6,0.0,-0.308710518541665,mp-1222987,0,0.0
LiCeTl2,0.0,-0.408952979166663,mp-867295,0,0.0
YbSmHg2,0.0,-0.561462400000003,mp-866020,0,0.0
Sr4Li(BO3)3,4.1806,-3.140659022990197,mp-554003,0,6.0
P6Pb3Xe11F58,2.4318,-2.019118585998168,mp-559292,0,3.0
U4Al18Ni5,0.0,-0.313887611111109,mp-581536,0,0.0
Ba3Ca3(MoN4)2,2.2313,-1.110501928125002,mp-1228693,0,3.0
PrTa3O9,3.1742,-3.502792147974359,mp-558248,0,5.0
H8N2Br2,4.338025,,,0,6.0
Ni3Au,0.0,0.097466912500003,mp-976818,0,0.0
Sm2ZnIr,0.0,-0.536793945,mp-867182,0,0.0
ErIr,0.0,-0.921583655000002,mp-2713,0,0.0
NaMg14Zn,0.0,0.054073937413793,mp-1027972,0,0.0
Na3AlSiGe(PO6)2,2.912399999999999,-2.695768474087849,mp-2715233,0,4.0
CSN2,2.474199999999999,0.278754541919644,mp-1214102,0,3.0
Na4Bi2P(CO4)4,0.0695,-1.959672487968892,mp-779878,0,0.0
ZnPd2Au,0.0,-0.336700667499998,mp-977383,0,0.0
TbLuIn2,0.0,-0.5536789641666641,mp-1187340,0,0.0
CaHoPd2,0.0,-0.7988026862499921,mp-1183569,0,0.0
CsTmMnSe3,0.5038,-1.556506105769575,mp-1213648,0,0.0
ZnH8C2(SN3)2,4.2828,-0.251050591578947,mp-696420,0,6.0
Ho2HgO4,2.096899999999999,-3.055237869642856,mp-11706,0,3.0
Zn1Cu3O6Cl2H6,1.302041,,,0,2.0
Co3P2O16H16,1.347126,,,0,2.0
KBCNF3,6.6966,-2.141902432166667,mp-1202872,0,7.0
Pb2Br5N,0.0,-0.318934708124999,mp-731813,0,0.0
Lu4Ni13C4,0.0,-0.360191075079363,mp-865141,0,0.0
AgPd(IO3)3,1.4039,-0.736862955833334,mp-1193499,0,2.0
Y(MnGe)2,0.0,-0.479865997172407,mp-20649,0,0.0
Dy2NiSn6,0.0,-0.454394718148146,mp-1079605,0,0.0
Zr9ScO20,0.0,-3.695166541833335,mp-674976,0,0.0
TiV2Os,0.0,3.714246172708328,mp-1097211,0,0.0
YFe2SiC,0.0,-0.496070346,mp-1206116,0,0.0
Ag4Ca2V8O24,1.899609,,,0,3.0
Na7Mg3SnP5SO24,2.8881,-2.6312229552122632,mp-2715841,0,4.0
Pr3Te4,0.0,-1.692801774285718,mp-2127,0,0.0
P2O3F4,5.7922,-2.7372636221428572,mp-1200699,0,7.0
K4In2S14P4,1.848541,,,0,2.0
Ho2CuOs,0.0,-0.334136735000001,mp-1184585,0,0.0
CaB2H13N3,4.6,-0.474148691425438,mp-1197534,0,7.0
Ti2AlV,0.0,-0.124545791458334,mp-999068,0,0.0
Sr3Ga3N5,1.361899999999999,-0.776397881704547,mp-570971,0,2.0
SnPbS2,0.8400999999999991,-0.722553672499998,mp-1218951,0,1.0
Pr2(Zn2Ge)3,0.0,-0.42067859621212,mp-11666,0,0.0
TiZn(BiO3)2,1.3495,-2.210799909333334,mp-1084840,0,2.0
ErAgS2,1.4169,-1.557589201979164,mp-1197880,0,2.0
SnS,0.904799999999999,-0.47208111515625,mp-2231,0,1.0
Ba3InAs3,0.5236000000000001,-0.972754154880954,mp-620346,0,0.0
LaTiGe,0.0,-0.728003070555554,mp-20756,0,0.0
SrCo7N10,0.0,0.06205727111111,mp-1247416,0,0.0
TiAlFe2,0.0,-0.454166500833332,mp-31187,0,0.0
Cs2LiIr(CN)6,5.4079,-0.36910487079023,mp-574653,0,7.0
Ac3Tb,0.0,0.065176126875002,mp-1183099,0,0.0
RbPrO2,3.3978,-2.8677276547916652,mp-1101401,0,5.0
GdDy3Ni4,0.0,-0.438018673124998,mp-1224739,0,0.0
NaH2Pd3,0.0,-0.193659951249998,mp-643273,0,0.0
Er2SiSO4,2.811400000000001,-3.460493296562498,mp-555990,0,4.0
NaLiMg6,0.0,0.054836401889367,mp-1021282,0,0.0
Sm4PdO7,1.088499999999999,-3.34128856375,mp-1208908,0,1.0
Cu2I4N2O,0.0,0.306169206388888,mp-1197496,0,0.0
Ca2Ni7,0.0,-0.148624289444443,mp-1105997,0,0.0
MgCu2(GeO3)2,0.0,-1.646452726818182,mp-2239972,0,0.0
Mg6ZnSnO8,2.457099999999999,-2.486620793437499,mp-1032036,0,3.0
Ba3Sb2O,0.359399999999999,-1.67538219125,mp-29911,0,0.0
Na7La2Zr2Si3(PO8)3,4.032500000000001,-3.065133579680905,mp-2715128,0,6.0
ThTl3,0.0,-0.235015804999996,mp-2061,0,0.0
Ba3AlO4,0.0,-2.944955424687499,mp-1199363,0,0.0
K2FeGe3Se8,0.113199999999999,-0.7921985091607141,mp-1200819,0,0.0
AlB2Pb,0.0,1.762802246549995,mp-631514,0,0.0
Pb1Cs2Cl6,1.315377,,,0,2.0
Zn(GaO2)2,2.310499999999999,-2.176957137857143,mp-5794,0,3.0
Sc2(Co7B2)3,0.0,-0.243715639482759,mp-1193429,0,0.0
Ba3TiO5,2.483,-3.263125456481483,mp-1214495,0,3.0
Tm6ReO12,0.064599999999999,-3.681282751710513,mp-10342,0,0.0
Eu2CdPb,0.0,-0.483101227500001,mp-1183962,0,0.0
HoNp,0.0,0.8873930856249991,mp-1184927,0,0.0
K3Ta2Cu3S8,2.313,-1.223357986963542,mp-1197797,0,3.0
DySbRh2,0.0,-0.7187644579166641,mp-1184063,0,0.0
Hg7Br6Ag2P8,0.709231,,,0,1.0
Pr5Pb3,0.0,-0.70575996854167,mp-1188302,0,0.0
Ho3Si13Ir4,0.0,-0.5534948159999981,mp-1201803,0,0.0
Li2PrSb2,0.0,-0.8977205839999951,mp-22446,0,0.0
Gd6Mg23C,0.0,-0.064710267,mp-1192643,0,0.0
La6Ti3Se9O5,0.0,-2.687457624177989,mp-1172881,0,0.0
SmHg3,0.0,-0.446874828125004,mp-867879,0,0.0
CeMgZr7O16,0.0,-3.571631905,mp-1233982,0,0.0
Sr3Ti,0.0,0.522095526666666,mp-1187142,0,0.0
Ce3SnN,0.0,-1.046695569999997,mp-1206922,0,0.0
Cr2S2BrCl,0.0,-1.19218155,mp-1226363,0,0.0
Hf2Sb3Pd,0.0,-0.5403007271901711,mp-1070907,0,0.0
AgSbTe3Pb,0.0,-0.368296730277776,mp-1229036,0,0.0
H26Os2N12Cl4O9,2.3686,-0.6172889695754721,mp-707822,0,3.0
K2Li4O6H6,2.675616,,,0,4.0
Sc2H6(SeO4)3,4.394699999999999,-1.8581110506317944,mp-776325,0,7.0
Ba2Na(CuO2)3,0.0,-1.788666265531609,mp-6496,0,0.0
HgNO5,0.0,-0.345562393214288,mp-1203186,0,0.0
Ho2B4O9,5.6616,-3.286751686777776,mp-768301,0,7.0
Tm2Te3,0.5788000000000001,-1.634462023000003,mp-1188133,0,0.0
Ba2Mg2C4O12,4.422663,,,0,7.0
CeAl3Ni2,0.0,-0.608201551666667,mp-20338,0,0.0
CsTmCdTe3,1.548,-1.263423064109196,mp-12496,0,2.0
VReW2,0.0,5.135422171874993,mp-1096654,0,0.0
Mg3Au13,0.0,-0.304194505937498,mp-1222172,0,0.0
Cu2SnS3,0.0,-0.410344964739583,mp-1225832,0,0.0
Cs4Ni6S8,1.615419,,,0,2.0
Zn3Cu6(AsS3)4,0.6826999999999991,-0.5754768811999991,mp-1215617,0,1.0
PtS2,1.5467,-0.440054991874996,mp-762,0,2.0
Th(BRh)4,0.0,-0.645987377863248,mp-1106347,0,0.0
TiGaCu2,0.0,-0.236540667708332,mp-1187459,0,0.0
Nd(ErS2)3,1.024799999999999,-2.394001295437499,mp-1189069,0,1.0
CaH2,3.0275,-0.6668815449999991,mp-23713,0,4.0
K2CuSbF6,0.8543000000000001,-2.46324798345,mp-1110839,0,1.0
Cs2PbCl6,1.4541,-1.7420681677011471,mp-23425,0,2.0
Sm2Fe17B3,0.0,-0.057168046704545,mp-1190200,0,0.0
Ba3Si2(B3O8)2,5.4031,-3.15190176574074,mp-1019526,0,7.0
Y3VCo8,0.0,-0.1077346075,mp-1216183,0,0.0
SrCu9Ge4,0.0,-0.155742497142857,mp-11144,0,0.0
EuInAu,0.0,-0.6625764147222211,mp-19901,0,0.0
In2Ni3S2,0.0,-0.548374455476188,mp-20708,0,0.0
TmB2,0.0,-0.734535728333334,mp-800,0,0.0
NbCr3,0.0,0.122229140000001,mp-999390,0,0.0
CaCu3(SnO3)4,0.3997,-1.8395668184999991,mp-18190,0,0.0
Dy2AlGe2,0.0,-0.811393761999971,mp-21382,0,0.0
SmGaPd,0.0,-0.862868278333333,mp-1102601,0,0.0
AlGaCo2,0.0,-0.377527439999999,mp-1228893,0,0.0
Dy2Pb2O7,1.1816,-2.5488151693939383,mp-769222,0,1.0
SmF2,0.0,-3.627615614444446,mp-1206711,0,0.0
Bi2PO6,0.0,-2.011157012460318,mp-1194903,0,0.0
BaMg30ZnO32,3.2977,-2.913395161249999,mp-1037611,0,5.0
Sc7(Mn3Ge4)2,0.0,-0.53892603821839,mp-1212513,0,0.0
CsAlPdF6,0.0,-2.875400613981485,mp-17033,0,0.0
Li2LuUS4,0.0,-1.822443035416665,mp-1222743,0,0.0
CuH4C10(N2F7)2,1.1184,-1.102203376515151,mp-1203211,0,1.0
Mg14CrB,0.0,0.267266836927083,mp-1026516,0,0.0
KBa(FeAs)4,0.0,-0.405541922725,mp-1223517,0,0.0
CsMg30AlO32,3.166799999999999,-2.906620597025861,mp-1038225,0,5.0
Ba7HfN6,1.0086,-0.7885139673214281,mp-1246932,0,1.0
Rb2ScHgF6,0.0,-3.10664248325,mp-1111002,0,0.0
Hf5CoAs3,0.0,-0.8579129283333291,mp-505333,0,0.0
MgZn,0.0,-0.0731228575,mp-978268,0,0.0
CdInGaS4,0.2643,-0.7228359908928591,mp-630773,0,0.0
ZrRu3,0.0,-0.191267674999998,mp-1017544,0,0.0
Ba2O6H4,0.14024,,,0,0.0
Na3CdPCO7,3.1961,-2.257984603367752,mp-767430,0,5.0
LaTl,0.0,-0.417935594166669,mp-11488,0,0.0
Sm5(Mo3Se4)12,0.0,-0.7732014348174011,mp-685296,0,0.0
PrGeRu,0.0,-0.652899892222222,mp-978090,0,0.0
Cs2NaCaCl6,0.0,-2.04173653625,mp-989644,0,0.0
Ba4Ge2Se8,1.335453,,,0,2.0
NiH6(BrN)2,0.5768000000000001,-0.593858477954545,mp-1220108,0,0.0
Al6Ru,0.0,-0.353180652857143,mp-16529,0,0.0
Gd2(Zn2Ge)3,0.0,-0.397637983181818,mp-582406,0,0.0
Na24Ca10Ta2Si9(SO8)9,2.500999999999999,-2.641618753137064,mp-2715197,0,3.0
Lu5Ge4,0.0,-0.825895878148148,mp-1199467,0,0.0
ErTm3,0.0,-0.017941169583338,mp-1184302,0,0.0
Mg2Te2,2.36641,,,0,3.0
EuAs,0.0,-1.143880177916669,mp-1101926,0,0.0
Cs3Zr7BCl20,1.1888,-2.241879189939748,mp-567781,0,1.0
TaNbOs2,0.0,4.377051044992051,mp-1095889,0,0.0
Pu3S2,0.0,-1.078180438749991,mp-1209790,0,0.0
Ca(VN2)2,1.490199999999999,-1.088487781369047,mp-1246211,0,2.0
NaMgPH18O13,4.6447,-1.5845227753977111,mp-1195867,0,7.0
HoPt3,0.0,-1.125324341249999,mp-195,0,0.0
Rb5Sb4,0.0,-0.494078151944444,mp-1219574,0,0.0
BaAlCuSbO5,0.0,-1.889367541666667,mp-1266326,0,0.0
Na4Ga8Ge15,0.0,-0.036160938908046,mp-1202531,0,0.0
TiAu3,0.0,-0.312750681666663,mp-1187512,0,0.0
Nb3B3C,0.0,-0.7018207807967001,mp-29979,0,0.0
Sr5(CrN3)2,0.0,-0.9755362142307692,mp-1246530,0,0.0
Na2CuAuF6,0.0,-1.971181321275861,mp-1111283,0,0.0
Bi16Rb16,0.224857,,,0,0.0