formula,bg,formation_energy,mp-id,fidelity,bg_category
Fe2Pt,0.0,0.107300243333334,mp-1224692,0,0.0
Co2Ca2Si4O12,2.825335,,,0,4.0
TmSe,0.0,-1.898432479531251,mp-2822,0,0.0
In9Ga3(BiS6)4,1.7826,-0.674168031499991,mp-1224634,0,2.0
Sr2La3Ti2O10,0.0,-3.586342256274509,mp-1208909,0,0.0
PrAgGe,0.0,-0.5995956611111091,mp-1206286,0,0.0
Te8Pd5Se2,0.0,-0.302551397374998,mp-1217383,0,0.0
InAg3(PO4)2,1.221699999999999,-1.854770775782311,mp-555746,0,1.0
V4S4O20,1.592036,,,0,2.0
NCl,0.0,2.1616432675,mp-1057084,0,0.0
CuH6C2SeCl,2.6288,-0.292740752258522,mp-1197914,0,4.0
Tb(SiNi)2,0.0,-0.8275502453333331,mp-4466,0,0.0
PmAlAg2,0.0,-0.326297171874998,mp-862837,0,0.0
Sr2Au4O8,1.656346,,,0,2.0
Ag2PO2,0.0,-0.5808117695952361,mp-1215041,0,0.0
Ce(FeAs3)4,0.1467,-0.405623462941166,mp-1021509,0,0.0
Sm3Gd,0.0,0.635473080000004,mp-1005895,0,0.0
DyYMg2,0.0,-0.064177132916666,mp-1184136,0,0.0
La9Lu11(GaO4)12,3.2578,-3.406927461854167,mp-1224763,0,5.0
ThUP4H4(CO8)2,0.0306,-1.9359469147704071,mp-1200542,0,0.0
CsReF6,0.0,-2.5539297140625012,mp-9632,0,0.0
K4Na8Co4O10,1.970396,,,0,3.0
Ca2K2Be4B4O12F2,5.256318,,,0,7.0
MgTa4O12,0.0,-2.955021527313726,mp-1234639,0,0.0
Na2ZnH3Cl4,2.2566,-0.538679106650862,mp-1210311,0,3.0
Na10NbGa7Si6(SO8)6,2.1814,-2.362955612666151,mp-2713490,0,3.0
Cu2AsO8,0.282299999999999,-0.320836546136364,mp-1204375,0,0.0
CdH2(BrO3)2,1.9558,-0.036816167499999,mp-1213914,0,3.0
LiSc2Tl,0.0,2.012831776666669,mp-1096494,0,0.0
DyTiClO3,3.1574,-3.538176204166665,mp-556108,0,5.0
K2GeSe3,1.7264,-1.096713106088544,mp-9692,0,2.0
CsMo3Br3Cl4,2.5467,-1.404492303377743,mp-581922,0,4.0
CNO,0.0,0.014190440833332,mp-1103367,0,0.0
Li7La3(SnO6)2,3.8804,-2.705486955555555,mp-1200057,0,6.0
Ni4GePt5,0.0,-0.068542083499998,mp-1220122,0,0.0
Ba4Hf3S10,0.5937,-2.146369037941175,mp-1189858,0,0.0
UAs2H6O11,2.547,-1.854382227375,mp-768283,0,4.0
Ba3Cd2Sb4,0.0,,,0,0.0
TiCrS4,0.0,-1.203767281388888,mp-1247743,0,0.0
SmMgZn2,0.0,-0.343209364999999,mp-867871,0,0.0
Ba2Bi2O5,2.012899999999999,-2.288425597777783,mp-28670,0,3.0
Ba5Li2U3O15,1.2725,-3.389303742866665,mp-1228411,0,2.0
Cd4Sn3Se13K6,1.072491,,,0,1.0
Nd2RuO5,0.0182,-2.8225510634375,mp-1210187,0,0.0
TlFeBr3,0.0,-0.920841691166668,mp-504821,0,0.0
Li10Sn(PO6)2,3.272599999999999,-2.447264314704762,mp-721238,0,5.0
Li1Y1Mo3O8,1.282528,,,0,2.0
Mn4P16,0.5905549999999999,,,0,0.0
Rb4MgH12(SeO3)8,0.9106,-1.400894473239796,mp-1233254,0,1.0
Ag6P3O12H3,1.303072,,,0,2.0
Nb2O2I6,0.657006,,,0,1.0
BaYSnSbO6,2.4839,-2.61780412075,mp-1523133,0,3.0
Pu4Bi3,0.0,-0.796178834285716,mp-1209700,0,0.0
Dy2Fe2Si2C,0.0,-0.667379262619046,mp-11705,0,0.0
BaNa2Ca,0.2224,1.027340246810345,mp-1096333,0,0.0
Dy2In16Pt7,0.0,-0.6349174563487211,mp-510050,0,0.0
Ba4LiNb3O12,2.579799999999999,-3.206630116416666,mp-18274,0,4.0
Co2NiN2,0.0,0.071018070099999,mp-1245646,0,0.0
BaNaNd(GeO3)3,3.7869,-2.654333084425288,mp-14353,0,6.0
Fe7C3,0.0,0.06518426425,mp-21717,0,0.0
Ga1V4Se8,0.260102,,,0,0.0
Li3NbN2,0.0,-0.6981037192460261,mp-1246022,0,0.0
Tm2MgTl,0.0,-0.179662072083338,mp-971705,0,0.0
Na6MgZr7(PO4)12,3.7628,-3.095937562103471,mp-2714873,0,6.0
Cs3LiI4,3.9867,-1.634236638412356,mp-569238,0,6.0
BaAlCu4O7,0.0,-1.6287711407692311,mp-1048141,0,0.0
CuAs2,0.0,0.084536406666667,mp-21859,0,0.0
CaSnPt,0.0,-0.915520447499998,mp-1102040,0,0.0
LiGdSn,0.0,-0.658283102777778,mp-1191877,0,0.0
YErAl6(BO3)8,5.398100000000001,-3.247983375833333,mp-1216022,0,7.0
Ca3Mg(SiO4)2,4.894299999999999,-3.381161893571428,mp-558209,0,7.0
Dy3(Si3Pd10)2,0.0,-0.8314819377586231,mp-1213199,0,0.0
LiAc2Ru,0.0,-0.001742076666666,mp-862686,0,0.0
Ti2AlCu,0.0,-0.081409876458332,mp-999079,0,0.0
YbCdIn,0.0,-0.432203901666667,mp-1215546,0,0.0
Ta4CoNi,0.0,-0.233644413222223,mp-1217989,0,0.0
TmB4Rh,0.0,-0.627572566527779,mp-13343,0,0.0
Zn3Ga4Pd7,0.0,-0.6062750799999991,mp-30662,0,0.0
Ba2Mn2Sb2F2,1.097886,,,0,1.0
HXeNO3F2,2.3757,-0.8517001095312501,mp-1204146,0,3.0
Pb(BrO3)2,3.6017,-0.6555051605555561,mp-754665,0,5.0
MgZrRh2,0.0,-0.7863486762499999,mp-864910,0,0.0
Cs2TlAsCl6,2.0627,-1.667370324014368,mp-1112502,0,3.0
K2Mg3Zn2(Si2O5)6,4.388999999999999,-3.090634864479592,mp-1224589,0,6.0
K2In3CuSe6,1.2031,-0.97760566008854,mp-21713,0,1.0
Rb2NaMn(CN)6,0.0,-0.240615807456896,mp-505659,0,0.0
Na2I2Ca4O12,2.736489,,,0,4.0
KPr(PO3)4,5.3956,-2.911510364304894,mp-1200142,0,7.0
Bi2PbSe4,0.4549,-0.502461465178571,mp-675543,0,0.0
Sm(SbTe2)2,0.0,-0.6760058330952371,mp-35197,0,0.0
Sn4Mo20O32,0.0,,,0,0.0
TaVW2,0.2004,5.090896333548613,mp-1097616,0,0.0
BiBPbS4,2.0872,-0.7182401963095231,mp-1227425,0,3.0
Al2(FeSi)3,0.230299999999999,-0.453948241874999,mp-29110,0,0.0
Y2Co3N4,0.0,-0.599257678888888,mp-1246971,0,0.0
CuH12(BrO6)2,0.0,-0.544214593333333,mp-740737,0,0.0
K(VS2)2,0.0,-1.287636778178571,mp-1223993,0,0.0
HoAl7Fe5,0.0,-0.396811802692306,mp-1223779,0,0.0
KZnAs3F18,4.3172,-2.563196828467391,mp-1194994,0,6.0
Ti3O8,0.0,-2.492625366363636,mp-1217105,0,0.0
Li2FeS2,0.2352,-1.089106984333333,mp-756187,0,0.0
BaPb2IF5,2.8346,-2.878751976666666,mp-554245,0,4.0
BaNa2Nd2Si4CO15,4.8226,-3.179911402910345,mp-559586,0,7.0
Tl2ZnP4(HO2)8,4.7666,-1.970572382749616,mp-1187832,0,7.0
Mg6Ni16Ge7,0.0,-0.377028498103448,mp-21725,0,0.0
AlCuAsO5,0.4476,-2.0388126803125,mp-560271,0,0.0
Pm2CuPd,0.0,-0.47875115375,mp-1186462,0,0.0
ThP2O7,5.4109,-3.278453477178571,mp-5156,0,7.0
Li2ZnSb,0.0,-0.351937540711807,mp-1222606,0,0.0
Sr2ZnCd,0.4788,1.078635855,mp-1096564,0,0.0
ThSi2Ru3,0.0,-0.813271009999998,mp-1025056,0,0.0
Na7Ta2In2Si5PO24,3.1472,-2.786399697454424,mp-2714500,0,5.0
Co5CuN4,0.0,0.184168288500001,mp-1247509,0,0.0
Sn3P3O13,0.0,-2.337786284680452,mp-1041231,0,0.0
LiCd2Pd,0.0,-0.386321438333331,mp-867196,0,0.0
Na5SiP3,1.325099999999999,-0.540155518492063,mp-5929,0,2.0
Na3CuSiCO7,0.0,-2.06908040877984,mp-771162,0,0.0
Na2(NbSe2)3,0.0,-1.136170488579531,mp-1221482,0,0.0
Zr6CoCl15,1.0883,-1.91292519625,mp-28734,0,1.0
In2Bi4Pb4S13,1.200399999999999,-0.740109845362318,mp-650840,0,1.0
Dy5Pt4,0.0,-1.284681663611107,mp-1202228,0,0.0
Na10Nb6Al2Si11SO48,2.2349,-2.923407719802904,mp-2716473,0,3.0
Y2AgRu,0.0,-0.321750000416666,mp-865561,0,0.0
Pa2P3,0.1406,2.992783128714291,mp-1207343,0,0.0
LiAsH20(C2O)4,0.382999999999999,-0.341853553259804,mp-738611,0,0.0
KCuS,1.8615,-0.921985167416667,mp-28270,0,2.0
CuSeO5,0.0,-0.6512582285491071,mp-1194215,0,0.0
K1B1Be2O3F2,5.969564,,,0,7.0
Ta2Ba4N8Li6,2.412366,,,0,3.0
AuF3,1.5542,-1.101981742499999,mp-942,0,2.0
Na2Zn2Se3,2.2788,-1.069232612827123,mp-1024049,0,3.0
TlSn2I5,1.545399999999999,-0.754969267291667,mp-1208036,0,2.0
Sr(BN)2,3.4007,-0.8094099979,mp-1068850,0,5.0
Sc2ZnOs,0.0,-0.440798949999998,mp-867243,0,0.0
Na5Nb2Si5Sn2PO24,2.498599999999999,-2.7847458958514393,mp-2716328,0,3.0
VCoNiPd,0.0,0.046124277499999,mp-1216424,0,0.0
AlH4NF4,6.8114,-2.19714858625,mp-696815,0,7.0
Na7La3MgSi3(SO8)3,3.2707,-2.712242328751753,mp-2714286,0,5.0
Cs2AuI,3.172599999999999,-0.6276407360775861,mp-1093896,0,5.0
HgSNClO3,0.0,-0.238673235714287,mp-1192535,0,0.0
Ti2CdC,0.0,-0.610056893333332,mp-9961,0,0.0
La4CdPt,0.0,-0.542257012500002,mp-1211384,0,0.0
Si(PH2)4,3.9992,-0.045422894377288,mp-29549,0,6.0
Rb3GaF6,5.6871,-3.035707203999998,mp-1113627,0,7.0
Ba4Y8Se16,1.374860999999999,,,0,2.0
KMg14Mn,0.0,0.192312501551185,mp-1028101,0,0.0
NaZn13,0.0,-0.080990319285714,mp-950,0,0.0
CaBiAu4,0.0,-0.432268994166671,mp-1213974,0,0.0
ErB4Os,0.0,-0.5943680531944501,mp-1191929,0,0.0
PH2NF2,4.7552,-1.429005247857144,mp-752833,0,7.0
CaCu2(SbO4)2,0.0,-1.6952755607692311,mp-1041041,0,0.0
NaB15,0.0,-0.07871145171875,mp-2315,0,0.0
Sr(HoS2)2,1.801899999999999,-2.439235399821427,mp-1194314,0,2.0
MnZn4S5,0.3707,-0.9943305212116672,mp-1221533,0,0.0
TaTcPb2,0.0,0.692369155666661,mp-632176,0,0.0
Rb3VS4,1.7482000000000002,-1.424777078749998,mp-505721,0,2.0
SrHBrO,4.3214,-2.3211875803125,mp-1080045,0,6.0
DyAu6,0.0,-0.40799249559524,mp-1199277,0,0.0
Na4Y3Ta(PO4)6,3.2486,-3.077276524141432,mp-2713662,0,5.0
KLa2Ag3Te8,0.0,-0.9989821182559512,mp-1211557,0,0.0
Be3Tl2Zn2F12,5.4725,-2.948231829035088,mp-1214313,0,7.0
Rb3TlCl6,2.4291,-1.856721826583333,mp-29384,0,3.0
NaTl2Ag,0.0926,0.908565635694447,mp-1096703,0,0.0
Na2Sc6Nb2Si3(S3O16)3,1.4525,-2.662729145051313,mp-2716311,0,2.0
TlAg3Te2,0.0,-0.035323195277777,mp-8925,0,0.0
Mn2Se2O8,2.194332,,,0,3.0
S3N3Cl3O,2.925,-0.2461477295,mp-1203684,0,4.0
Ba7GeN6,0.9194,-0.567729049821429,mp-1245756,0,1.0
S7N,0.672999999999999,0.228931761445314,mp-728449,0,1.0
UH16C4(NO3)4,1.9161,-1.262891619391891,mp-738654,0,3.0
U(SiPd)2,0.0,-0.734372137000002,mp-4793,0,0.0
CsTaN2,2.1446,-1.138485138708329,mp-34293,0,3.0
HoInPt4,0.0,-0.786679730277775,mp-1025022,0,0.0
ThH2,0.0,-0.56397526583333,mp-24291,0,0.0
ScGaNi,0.0,-0.6076799808333341,mp-1219310,0,0.0
KC(NO2)3,2.1635,-0.7798784979318181,mp-555972,0,3.0
LiB(H8O5)2,5.0895,-1.480243255446428,mp-1222914,0,7.0
Rb2SiF6,6.9955,-3.432261107222219,mp-10492,0,7.0
Na16O16Be8,2.90516,,,0,4.0
Ca2SiO4,4.199400000000001,-3.476631411785713,mp-4481,0,6.0
NaHg2Pb,0.0,0.602243467916665,mp-1093809,0,0.0
TbSiIr,0.0,-1.048637917222224,mp-20383,0,0.0
BaSrDyNbO6,3.0423,-3.454179356666666,mp-1518454,0,4.0
Sr2CaSbO6,0.0,-2.740657546,mp-1208881,0,0.0
CdSn3F6,0.871499999999999,-1.309523013,mp-1214431,0,1.0
Ta10Al6B,0.0,-0.343240523649021,mp-1217788,0,0.0
ZrBeCd,0.0,0.7948190983333341,mp-631509,0,0.0
CaY3(PO4)3,0.0,-3.145972840206766,mp-1233576,0,0.0
Sc(FeGe)6,0.0,-0.27840350653846,mp-19739,0,0.0
Zr2CuTc,0.0,-0.269826008749999,mp-1232423,0,0.0
TbSiPd,0.0,-0.973434810555556,mp-1208374,0,0.0
Sr3(CrN2)2,0.0,-0.878825561203713,mp-1246148,0,0.0
TaNb2FeSe10,0.0,-0.9500554150550592,mp-1217949,0,0.0
Sm11Y5O24,4.0238,-3.885687876875,mp-765639,0,6.0
NdZnAu2,0.0,-0.586275844374999,mp-977576,0,0.0
In3Ag3(HgTe4)2,0.9131,-0.328148814687505,mp-1224083,0,1.0
Zr3Rh5,0.0,-0.8747733599999991,mp-2626,0,0.0
K4O12N4,2.949076,,,0,4.0
Sr10Cu(RuO5)4,0.0,-2.441998443714285,mp-1173638,0,0.0
Co7SnN6,0.0,0.166458484642857,mp-1245341,0,0.0
Nb3Al,0.0,-0.218436486249999,mp-796,0,0.0
Ca9Zn4Sb9,0.0,-0.8896565311363581,mp-21594,0,0.0
Bi4Fe4O12,0.6631220000000001,,,0,1.0
LiFeRh2,0.0,-0.121665890833333,mp-862290,0,0.0
Pb4Cr4B4O16,2.138428,,,0,3.0
AcGaO3,2.895900000000001,-3.063252617,mp-1183053,0,4.0
Cd3(FeN2)2,0.0,0.190487284444444,mp-1246194,0,0.0
K2I6O2H4,1.918193,,,0,3.0
CaSb3O7,0.0,-2.027194842045454,mp-1043964,0,0.0
LaMgVS4,0.0,-1.62009743,mp-1247070,0,0.0
Dy6Zn23,0.0,-0.352097433275863,mp-1193674,0,0.0
Ho2ScNbO7,2.0336,-3.699699579999998,mp-1224028,0,3.0
Tm9B5S21,1.436099999999999,-1.731255440380952,mp-1217003,0,2.0
TiZnAu2,0.0,-0.350653943333334,mp-865730,0,0.0
Yb(ZnP)2,0.7887000000000001,-0.7374645341904761,mp-9582,0,1.0
Ta24Cu13O72,0.0,-2.753752039412845,mp-530658,0,0.0
NaYS2,2.263499999999999,-2.13529353640625,mp-10226,0,3.0
SrCaMg2,0.052599999999999,1.508503327499999,mp-1093909,0,0.0
Te2AuI,0.0,-0.406147092083331,mp-27527,0,0.0
Pr3Ir,0.0,-0.475658411874995,mp-1106395,0,0.0
Na3Mg2Ta10Si3(P5O24)3,2.8743,-3.033873950067755,mp-2715796,0,4.0
Cs1Bi1F6,2.885399,,,0,4.0
Sr10Ga6O19,3.223099999999999,-2.820452242714286,mp-680384,0,5.0
Ba2Eu2Ti2Cu2O11,0.0,-2.8539367442982453,mp-616471,0,0.0
ZrCr2,0.0,0.004494367916665,mp-570608,0,0.0
Gd2B4O9,2.8237,-3.262042608777776,mp-31369,0,4.0
Dy2CI3,0.552099999999999,-1.347893768055555,mp-1225760,0,0.0
Na3VS4,1.4686,-1.284463191767239,mp-29143,0,2.0
Sn2O3,0.0,-1.650764018499999,mp-1046850,0,0.0
K3YbF6,6.0621,-3.5403399016250012,mp-1205753,0,7.0
Ca3SnH2,0.111799999999999,-0.6884731820833331,mp-984605,0,0.0
Ti(C5Cl)4,1.0716,-0.104553706433334,mp-1205237,0,1.0
KCu3GeSe4,0.9037,-0.436543283513888,mp-1180842,0,1.0
CrB,0.0,-0.41076425125,mp-1080664,0,0.0
Er(BiO2)3,2.1356,-2.203960773,mp-754989,0,3.0
Na9Mg5Ta7(PO4)18,2.4042,-2.909182818759628,mp-2714647,0,3.0
Sc2B4Ru5,0.0,-0.629005778787881,mp-1209048,0,0.0
LaGa4Os,0.0,-0.474478460277778,mp-1211555,0,0.0
Sm39S56,0.0,-2.332588432578946,mp-684860,0,0.0
Ag8S4O12,2.211667,,,0,3.0
Zr2H12(N2O7)5,1.4474,-1.22880192322034,mp-559369,0,2.0
AgBiTe3Pb,0.0,-0.260800182083329,mp-1229113,0,0.0
LuGe2Ru,0.0,-0.662156656666668,mp-1195981,0,0.0
Dy(Zn10Rh)2,0.0,-0.243418789855071,mp-581987,0,0.0
BaMg(CO2)2,1.262099999999999,-1.929740540624999,mp-1080511,0,2.0
CsTmBr3,0.0,-1.885503000931036,mp-1206103,0,0.0
CeInNi4,0.0,-0.367101282777787,mp-1206393,0,0.0
TlGaI4,2.2717,-0.849844910972226,mp-570306,0,3.0
Na2ErCuCl6,1.698999999999999,-1.776939179083334,mp-1111508,0,2.0
Fe2Te4,0.087139,,,0,0.0
HoIr,0.0,-0.878807982499999,mp-11476,0,0.0
Bi2Pt,0.0,-0.285321039583332,mp-568531,0,0.0
K2P3,1.0327,-0.549982655785713,mp-569857,0,1.0
Cs2NaTaF6,0.0,-2.953787457802299,mp-1114087,0,0.0
Cs3Y(PO4)2,4.588900000000001,-2.949137237553659,mp-1019614,0,7.0
Na2Ho2B2TeO10,2.9344,-2.854732783691683,mp-1194989,0,4.0
Sr2In4Te8,0.876772,,,0,1.0
BH3NF4,7.5583,-2.001906939768519,mp-697120,0,7.0
Nd4Fe4Co12B3C,0.0,-0.193211614687498,mp-1220278,0,0.0
K2AgRhF6,1.4182,-2.246720276616666,mp-1111950,0,2.0
TbIn2Ni9,0.0,-0.213190816249999,mp-1191278,0,0.0
CeNbO4,0.0,-3.473460117499996,mp-7550,0,0.0
Rb2Cu2I4O,0.0867,-0.744131125277777,mp-734811,0,0.0
YAl3Ag,0.0,-0.395802444853332,mp-1215933,0,0.0
La3(GeRh)4,0.0,-0.919720407727272,mp-15009,0,0.0
Re4F24N4,2.29588,,,0,3.0
DyCo3P2,0.0,-0.923520280992062,mp-1195923,0,0.0
TiNbTl(O2F)2,2.6792,-3.00778477462963,mp-677378,0,4.0
K2TeSe3,1.7896,-0.942468340116318,mp-28419,0,2.0
ZnReN2,0.0,0.091865183124999,mp-1247543,0,0.0
Ho4Ni13C4,0.0,-0.346240300952381,mp-863728,0,0.0
Pb2I1Na1O6,2.610238,,,0,4.0
Na10Ta7In(SiO4)12,3.5863,-3.056465061817861,mp-2713206,0,5.0
Yb3Pa,0.0,0.157719411249999,mp-1187998,0,0.0
Rb2SCl6F,0.0,-0.93863103875,mp-989388,0,0.0
TiH9(SO6)2,0.448399999999999,-1.678989700920139,mp-1196178,0,0.0
Ca10Al2Cu19,0.0,-0.140944409065285,mp-1215019,0,0.0
Y3(GaNi3)2,0.0,-0.531584281363635,mp-1191954,0,0.0
Dy2ZnRh,0.0,-0.5988679583333301,mp-1184107,0,0.0
Nd2Th3O9,2.4834,-4.107406755714286,mp-1173423,0,3.0
Zr3C,0.0,0.605955345250002,mp-1188023,0,0.0
Na6Ca2Nb4Si3(PO6)6,2.107,-2.895268507651457,mp-2712644,0,3.0
BNF4,2.723099999999999,-1.496908582777778,mp-1182455,0,4.0
Sc(SeO5)2,0.0,-1.099669279206731,mp-1219489,0,0.0
Sm2Au5F21,1.630099999999999,-2.225081326875,mp-8778,0,2.0
TlPd5Se,0.0,-0.248399142723213,mp-1025248,0,0.0
BeRh,0.0,-0.607815922499999,mp-11276,0,0.0
AgBH2OF4,3.044,-2.163186291203704,mp-24058,0,4.0
Sr1Cd2As2,0.100706,,,0,0.0
MgPSe3,2.0382,-0.8816437593348211,mp-30943,0,3.0
MnPdAu2,0.6412,1.585645443017241,mp-1097226,0,1.0
Ba12SrCa3(Ru2O9)4,0.1854,-2.4646319715,mp-1229266,0,0.0
Ba9Y2(SiO4)6,4.5982,-3.444188032439024,mp-1019533,0,7.0
Na4Nb2Si5Sn2SO24,2.621699999999999,-2.701856628149578,mp-2714939,0,4.0
Rb3As7,1.5816,-0.356747705812501,mp-680413,0,2.0
LiEuS2,0.0,-1.706334393333334,mp-1222312,0,0.0
RbMoN2,0.0,-0.57719645171875,mp-1029852,0,0.0
Ta2Pd1S6,0.0,,,0,0.0
GeP2O9,0.369,-1.776191828690476,mp-1196290,0,0.0
Ga(BO)6,0.0,-0.380848670192307,mp-1212929,0,0.0
Pm3Hg,0.0,-0.224835020000007,mp-1186514,0,0.0
Nb3Sb3O13,2.612,-2.474891653421053,mp-1220709,0,4.0
Ti2H11(N2F3)4,0.0,-1.567375924558081,mp-1199492,0,0.0
ReIr3,0.0,-0.136248745625003,mp-867792,0,0.0
LaSiO3F,4.541399999999999,-3.780507211388888,mp-541995,0,7.0
SrMg6Sn,0.0,-0.015395706874999,mp-1021395,0,0.0
Cs3Nb2S11,1.5397,-1.200589469935343,mp-669313,0,2.0
CsNiN,0.0159,-0.031481794602489,mp-1245581,0,0.0
Tb(SiNi5)2,0.0,-0.438103825128203,mp-21601,0,0.0
Ba10Er5Cu15O34,0.0,-2.204404043437501,mp-1229210,0,0.0
NaSr2In,0.0,-0.212689639511493,mp-865124,0,0.0
CuNiPd2,0.0253,2.37607208875,mp-1095798,0,0.0
Zn(AgI2)2,2.0567,-0.63674058190476,mp-1104888,0,3.0
LaAlSi,0.0,-0.7525105499999991,mp-1222884,0,0.0
Gd3(P3Pd10)2,0.0,-0.193253794408865,mp-1213489,0,0.0
Ba1Se1,1.18452,,,0,1.0
RhPb,0.0,-0.136691916666663,mp-442,0,0.0
GdPaO4,0.0,-4.141709236666668,mp-37014,0,0.0
Al2TcAu,0.0,1.8995658543750011,mp-1097381,0,0.0
Eu3Au,0.0,-0.450594708750005,mp-1189094,0,0.0
Re2Cl5O4,0.7773,-1.590041603181817,mp-1102176,0,1.0
K3NdF6,5.614,-3.449900987924999,mp-1110853,0,7.0
Cs3PdF6,0.0,-2.396905287500002,mp-1113156,0,0.0
ZrCoBi,0.9771999999999992,-0.412615006666669,mp-31451,0,1.0
K2Li2N12C8,4.511222,,,0,7.0
H6N2O,3.8941,-0.565065976203704,mp-625374,0,6.0
LaIn6Ni7,0.0,-0.220664748571427,mp-1211840,0,0.0
Sc2SnAu2,0.0,-0.8425256424999871,mp-1209036,0,0.0
Ba3Ta3N5,0.0,-0.985102097454544,mp-1246332,0,0.0
Cs4Ti2S6,1.130445,,,0,1.0
Na14Nb4Zn4Si9(SO16)3,1.3415,-2.560715657379801,mp-2714739,0,2.0
Li1Sc1Mo3O8,1.216367,,,0,1.0
AlSnO3,0.0,-2.436627378,mp-1340379,0,0.0
Li,0.0,0.0,mp-1018134,0,0.0
LiMgH14Cl3O7,5.380599999999999,-1.470652702724359,mp-1222589,0,7.0
ThAl2Fe3,0.0,-0.299127399999999,mp-1217300,0,0.0
SrLaTa2(NO)3,1.1562,-2.462502115966667,mp-694929,0,1.0
V2P4O14Li2,1.957879,,,0,3.0
Cu3(P3O16)2,0.048699999999999,-0.903020209947735,mp-1204313,0,0.0
ThAsSe,0.0,-1.6446734471875,mp-1019357,0,0.0
K2Cu(PO3)4,0.8983000000000001,-2.480498010161653,mp-6598,0,1.0
Ni2SbTe,0.0,-0.381064794166665,mp-38006,0,0.0
Ta2MoOs,0.0,-0.455647456166666,mp-864770,0,0.0
Rb5(DyI4)3,0.0,-1.596961333124999,mp-1209369,0,0.0
Eu2MgH6,0.3404,-0.5203141925,mp-644292,0,0.0
Sr2HfNbO6,0.0,-3.441441281,mp-1518847,0,0.0
Ce2Si5Pd3,0.0,-0.7766601725000011,mp-1213852,0,0.0
Ba2MgCuAg2F14,0.1195,-2.609720167166666,mp-1045802,0,0.0
Ba2Sc2O5,2.851399999999999,-3.507443436666667,mp-755950,0,4.0
C2Se3N2,1.9919,0.172171346495535,mp-542699,0,3.0
SrN,0.0,-0.668827469375001,mp-29973,0,0.0
KLuBeF6,7.475899999999999,-3.902700769879628,mp-1211243,0,7.0
Hg3H4S2O11,1.737299999999999,-1.340475802625,mp-721053,0,2.0
DyAgPb,0.0,-0.395864592777774,mp-510687,0,0.0
CaLaMgAl2Si3HO13,4.446700000000001,-3.319122309602274,mp-1195311,0,7.0
Sm2MnSi2,0.0,0.879581292413792,mp-1207312,0,0.0
La4Se4Cl4,1.325181,,,0,2.0
La5In11Ni6,0.0,-0.430511453560605,mp-1192186,0,0.0
Ca2HgBi,0.0,-0.8079776801282391,mp-1183503,0,0.0
Cs2InAgF6,2.1888,-2.632801037764368,mp-1113588,0,3.0
Na3GaSiSn(PO6)2,3.117,-2.557557317712849,mp-2715486,0,4.0
Sr3Li4(SiN3)2,2.107,-1.040308551555555,mp-1104857,0,3.0
La2Fe4Sb5,0.0,-0.480100665454544,mp-1223457,0,0.0
Mg4Al2H12CO18,0.0,-1.7909739035135142,mp-1222250,0,0.0
Sr3ReN3,0.0,-0.828368318214286,mp-1029531,0,0.0
Na3CaPCO7,4.475,-2.601146720290829,mp-767552,0,7.0
Zr2Np,0.0,0.5425205737500011,mp-12707,0,0.0
DyAlCo,0.0,-0.358501916388887,mp-1225470,0,0.0
NaAl3P2(HO3)4,5.8652999999999995,-2.600357126962047,mp-1220886,0,7.0
Sr2Y2Sn2O7,0.2621,-2.7528577257692293,mp-1046778,0,0.0
ScP2H5O9,4.8909,-2.274896055619749,mp-1209257,0,7.0
K2Zn(Si2O5)2,4.2665,-2.946104038647059,mp-555568,0,6.0
PaZnRu2,0.0,-0.383159449999999,mp-862843,0,0.0
Ho3Ge5,0.0,-0.688896161875,mp-542748,0,0.0
Er2TiCuO6,0.0,-3.141656281333333,mp-1225752,0,0.0
Ho4CoSn8,0.0,-0.5067741099999981,mp-1224297,0,0.0
Se1Rb2Cl6,2.577125,,,0,4.0
BaSr3Pd2(OF)4,0.0,-2.887423437857143,mp-1227694,0,0.0
K2V2F6,2.788432,,,0,4.0
Cs4Cu6Ti2F24,1.84895,,,0,2.0
Cr4GaS8,0.0,-0.9915397713461532,mp-1226264,0,0.0
Mn6BP,0.0,-0.308291900174467,mp-1221372,0,0.0
Eu2Co12P7,0.0,-0.6799005982142861,mp-1191681,0,0.0
Tm(MnSi)2,0.0,-0.603600003172415,mp-1207007,0,0.0
K2LiAlP2,1.8853,-0.633230926186506,mp-6450,0,3.0
Li5Tl2,0.0,-0.281346916190476,mp-12283,0,0.0
K2Zn3SiAs4,0.168899999999999,-0.33168539145,mp-1223862,0,0.0
Mg30NbAlO32,0.0,-2.931817104218749,mp-1038214,0,0.0
K2AgAuCl6,0.0,-1.343391598616666,mp-1112479,0,0.0
Ag2Ba1Mn1V2O8,2.469453,,,0,3.0
NaClO2,2.4465,-0.9925589840948272,mp-30965,0,3.0
Na5(CN2)3,0.0,-0.493442903363096,mp-724972,0,0.0
H3CSClO,2.3655,-0.559434038035714,mp-644221,0,3.0
Na2ZrCd(CO3)8,0.0,-0.9908952209099612,mp-1212421,0,0.0
Na3Ca7Ti7Nb3O30,1.180499999999999,-3.276742368749425,mp-695506,0,1.0
Zn5Cl2O9,0.0,-0.6239469490625,mp-1188863,0,0.0
NaZnAsO4,3.009,-1.931494910077997,mp-14901,0,4.0
Sr2ZnPb,0.0542,-0.537701737519235,mp-1187098,0,0.0
CuF,0.0,-1.0199156775,mp-10634,0,0.0
NaYGeO4,3.647,-2.8548585309113292,mp-17394,0,5.0
CsNaB10H31N7,3.4168,-0.335432688314995,mp-1199766,0,5.0
Rb2B7H5O14,5.1122,-2.413025882514881,mp-1197195,0,7.0
KAlH4,5.0652,-0.275994969791666,mp-31097,0,7.0
Mg6TiC,0.0,0.200873241458332,mp-1021374,0,0.0
GaCo4,0.0,0.077889641,mp-1224812,0,0.0
Na5Ca2Ti2P5SO24,1.8587,-2.820471468742158,mp-2714956,0,2.0
BaTi5O11,2.6235,-3.513178326568626,mp-27790,0,4.0
CuH14C3S3N6ClO,2.7848,-0.518234119568966,mp-1196726,0,4.0