formula,bg,formation_energy,mp-id,fidelity,bg_category
Ba2SmMgCu3O7,0.0,-2.063474589642857,mp-2228487,0,0.0
Pu5Ru3,0.0,0.298661862031258,mp-1992,0,0.0
ReSbOF9,0.9941,-2.512612063333333,mp-541654,0,1.0
Cr6Cl18,2.372338,,,0,3.0
CoBi3,0.0,0.0474219412499999,mp-1105522,0,0.0
Ba2UInO6,0.6779000000000001,-3.174252212666658,mp-1205569,0,1.0
Al2B2Ru3,0.0,-0.5191039216666691,mp-29674,0,0.0
SrTi4(CuO4)3,0.0,-2.691188633166666,mp-1208604,0,0.0
PrGe2Pt,0.0,-0.892172635416666,mp-1106226,0,0.0
Zn20S20,2.715082,,,0,4.0
LiCa2CuN2,1.039699999999999,-0.7586214130555551,mp-1222411,0,1.0
Ge3Os2,1.084299999999999,-0.084102020749998,mp-16610,0,1.0
SmSbIr,0.0,-1.01647506416667,mp-11160,0,0.0
Si2N3,0.0,-0.8770224413333311,mp-1080623,0,0.0
LuZrF7,5.8374,-4.232078621851843,mp-1210678,0,7.0
Ho2CuSb3,0.1558,2.372930465000002,mp-1206948,0,0.0
YCl3,4.9300999999999995,-2.531578373124999,mp-27455,0,7.0
CaEu2O3,0.0,-3.154596212500001,mp-756244,0,0.0
Tm2(Al3Rh)3,0.0,-0.818823629642863,mp-1208005,0,0.0
K2NbO6,0.0,-1.409352048277778,mp-675298,0,0.0
Er(CO3)2,0.316999999999999,-2.008889189444444,mp-1189663,0,0.0
K4CaU(Si2O7)2,2.0738,-3.128585341624999,mp-1195727,0,3.0
PaIr3,0.0,-0.924499727499998,mp-30741,0,0.0
Cs2Li3B3P6(PbO12)2,5.0959,-2.683245777116686,mp-1196318,0,7.0
Pb9As4S15,1.521207,,,0,2.0
MgAg3P3O13,0.0,-1.779025186946427,mp-1040985,0,0.0
Na10Ti5Zn3(PO4)12,1.7349,-2.763268330848385,mp-2713421,0,2.0
CdNi,0.0,0.006270499166665,mp-985556,0,0.0
Y4(FeB2)3,0.0,-0.372535064230768,mp-1104580,0,0.0
Na6Mg4Ta4Si5S7O48,1.3683,-2.588309921082558,mp-2716062,0,2.0
Y3Pd4,0.0,-0.935079866428574,mp-1104019,0,0.0
Ce2Pt4,0.0100039999999999,,,0,0.0
MnTc2As,0.0,-0.125913528857759,mp-1186000,0,0.0
Mn6Ni16P7,0.0,-0.425832560347798,mp-22372,0,0.0
Na3Sc2Ta2SiP5O24,3.1042,-3.0661580477122232,mp-2713058,0,4.0
K2Mn(PSe3)2,0.7664000000000001,-0.815324757343567,mp-863265,0,1.0
K3NbHOF7,4.1033,-3.039829815615385,mp-696651,0,6.0
RbYMg6O8,4.102499999999999,-2.6340179092187492,mp-1032574,0,6.0
VCu(PS3)2,0.0,-0.67444827442857,mp-1216387,0,0.0
Cs2RuO4,0.585599999999999,-1.7267785377586211,mp-17546,0,0.0
Ta3Te4ClO15,2.5158,-2.3347117352681432,mp-1208669,0,4.0
HoAlB4,0.0,-0.5545350587500001,mp-1212096,0,0.0
BaTm2O4,3.229699999999999,-3.735884278928573,mp-754599,0,5.0
Eu2Ni3Sb4,0.0,-0.666482582222222,mp-1225511,0,0.0
Zn3Cu3(TeO6)2,0.5244999999999991,-1.380788468916666,mp-1215702,0,0.0
Ni2Sc1Sb1O6,2.7540489999999997,,,0,4.0
LaNO6,0.0,-1.166712436875,mp-1223037,0,0.0
ThP2(NO4)2,1.728899999999999,-2.028811057637362,mp-1217520,0,2.0
LuN3O13,0.3191,-0.5196666693627451,mp-1204124,0,0.0
Be2HgTe,0.0,0.703955182708332,mp-631516,0,0.0
Er2Si2PbO8,3.3232,-3.257661212051281,mp-1226117,0,5.0
CeFe2,0.0,-0.080344541666664,mp-204,0,0.0
LiTiH6(OF3)2,0.027199999999999,-2.205768829635416,mp-1235748,0,0.0
CsAgCl2,2.200999999999999,-1.397385576249998,mp-567558,0,3.0
Na5Nb2Al2Si3(PO8)3,2.4279,-2.908507907542525,mp-2714054,0,3.0
GdAlPd,0.0,-0.853993127777774,mp-20058,0,0.0
Mg149Ga,0.4779,0.0009263836499999,mp-1185597,0,0.0
NaEuHfNbO6,0.0038,-3.278236633637931,mp-1518553,0,0.0
YAl3(Si5N8)3,3.0518,-1.38395061127907,mp-532803,0,4.0
Zr9Ni11,0.0,-0.3788139055,mp-30814,0,0.0
Na12Ca4Ta2Si3(PO6)6,3.158899999999999,-2.880801593715485,mp-2714341,0,5.0
CaTbRh2,0.0,-0.605651189166666,mp-1183546,0,0.0
InH12S3(NO4)3,3.9872,-1.324122614569891,mp-1213492,0,6.0
Na2Hf6Zn2Si3(S3O16)3,3.129,-2.612613693337028,mp-2716424,0,4.0
V4Na4F16O8H8,3.321177,,,0,5.0
Sr2Cu3O4Br2,0.240996,,,0,0.0
CaCd(CO3)2,3.336299999999999,-2.221535567000001,mp-1227329,0,5.0
CaMg5P3HCO16,5.0362,-2.890649596488095,mp-1214060,0,7.0
La23Mg4Ni7,0.0,-0.186316835735295,mp-581781,0,0.0
NaPrNb2O6,0.0,-2.9515006523045972,mp-1522162,0,0.0
Eu(CuSb)2,0.0,-0.520817588000001,mp-505769,0,0.0
NdSbSe,0.0,-1.614989898020833,mp-1103651,0,0.0
K2BiAuF6,1.0663,-2.325779534449999,mp-1112330,0,1.0
ErTiSi,0.0,-0.7369731900000001,mp-20918,0,0.0
SmTl(PSe3)2,1.5815,-0.924625335168155,mp-1105449,0,2.0
Cs2RbRuF6,0.0,-2.605896715681034,mp-1112166,0,0.0
NaTmTi2O6,2.4036,-3.449023275304598,mp-1220905,0,3.0
Hg4V8O24,1.976632,,,0,3.0
NaC,3.165899999999999,0.231464213599137,mp-1267,0,5.0
Na15Ca2Nb10Si15(PO24)3,2.6195,-2.955457299184771,mp-2716552,0,4.0
CuHgSeBr,0.4656,-0.531227599960939,mp-567720,0,0.0
LiHo2Al,0.0,-0.247774739166665,mp-973841,0,0.0
Au2Cs2Cd2S4,2.085874,,,0,3.0
NdGa2Ni3,0.0,-0.519520614861109,mp-1220258,0,0.0
LuTaTiO6,3.3524,-3.662955973592592,mp-1222583,0,5.0
ZrRh,0.0,-0.8852850074999981,mp-669917,0,0.0
RbTlCl2,4.0858,-1.782612162708334,mp-1209198,0,6.0
Ta4S22K8,1.643359,,,0,2.0
Eu(C2N3)3,0.0,-0.07046903125,mp-637267,0,0.0
Sr(SnHg)2,0.0,-0.338039202999999,mp-1078257,0,0.0
LiCd2Ni,0.0,-0.110278376666665,mp-1185212,0,0.0
U(FeB3)2,0.0,-0.5170871638888891,mp-1087505,0,0.0
KCa9Mg(PO4)7,5.3098,-3.277895412277173,mp-9468,0,7.0
CsC,3.105099999999999,0.347644051422412,mp-505806,0,4.0
Yb2(Ni7B2)3,0.0,-0.349119779827586,mp-1193375,0,0.0
Er2ZnTe2(SO7)2,3.9585999999999992,-2.377382144206348,mp-1190377,0,6.0
Cr2SiC,0.0,-0.1245467925,mp-1078494,0,0.0
NaNO3,2.9451,-1.363196969275862,mp-4531,0,4.0
La3CuSnSe7,1.2088,-1.649447434869789,mp-567753,0,1.0
CeCoGe3,0.0,-0.570767636999998,mp-21116,0,0.0
Zr(Zn10Co)2,0.0,-0.168150898043478,mp-1195250,0,0.0
Ca5As3O14,0.0,-2.263920141477272,mp-1214218,0,0.0
LiCu2Si12(H3C)27,2.7035,-0.173524757923441,mp-1202845,0,4.0
TlInS2,0.4748,-0.7771798081250011,mp-20042,0,0.0
Na4Al2Si(PO6)2,4.5372,-2.87050337800649,mp-2714518,0,7.0
Pr2Ni7,0.0,-0.279933445925924,mp-1201333,0,0.0
Tm(CuSi)2,0.0,-0.609068221999999,mp-4903,0,0.0
ErNiB4,0.0,-0.5773542002777761,mp-27895,0,0.0
Zr2P3S,0.0,-1.162268013571427,mp-1215423,0,0.0
La4SnBi2,0.0,-1.0550757957142871,mp-1223150,0,0.0
Dy2ScNbO7,2.2697,-3.701198258030301,mp-1225349,0,3.0
Fe3H,0.0,0.5667507859375001,mp-984102,0,0.0
AlAgTe2,1.0469,-0.439261488750002,mp-14092,0,1.0
Li2Ti3ZnO8,3.1747,-3.055663913869047,mp-774797,0,5.0
K3SbCl6,3.3878,-1.639418502624997,mp-1110880,0,5.0
Na5TaO5,2.538,-2.318986056293624,mp-8957,0,4.0
Ba8Tl2Bi2Pb4O17,0.0,-2.068514163383839,mp-677325,0,0.0
Na3YAl(PO4)3,4.6344,-2.960663290153325,mp-2715254,0,7.0
Rb2NaHg,0.0,0.38154927278017,mp-1097299,0,0.0
MgMnWS4,0.0,-0.9762110097044332,mp-1247089,0,0.0
C8N8Zn2Pd2,4.160815,,,0,6.0
Rb2ScAuI6,1.138399999999999,-1.252791744999999,mp-1111788,0,1.0
VCrMo2,0.0,4.148389774999998,mp-1096206,0,0.0
In3Na3O6,1.954115,,,0,3.0
Na10Ta4Ti4Si11SO48,2.4749,-3.03808617795675,mp-2716492,0,3.0
Tb2AlFe3,0.0,-0.157529342222221,mp-1217696,0,0.0
TmRh3C,0.0,-0.538234423000005,mp-10714,0,0.0
Y2Te2Cu1S2O14,1.802975,,,0,2.0
Pb4S8N12H12,1.849866,,,0,2.0
YErIn2,0.0,-0.576009958333333,mp-979424,0,0.0
KSmHf4O12,0.0,-3.196068626791666,mp-1518407,0,0.0
Nd(SiPt)2,0.0,-1.076870467499998,mp-1084815,0,0.0
Li2GaHg,0.002999999999999,0.809711754791665,mp-1097256,0,0.0
Ta6Nb3Te2S3,0.0,-0.6858885196309521,mp-1208430,0,0.0
CsRb2YBr6,3.7632,-2.096308063465517,mp-1113330,0,6.0
LiAgAu2,1.712099999999999,0.811455391666655,mp-1093804,0,2.0
BaBe2Si2O7,5.5695,-3.30665925,mp-12797,0,7.0
Pr(ZnGa)2,0.0,-0.470740501333332,mp-1219916,0,0.0
CeCdIn,0.0,-0.508248183333336,mp-1227074,0,0.0
Ho8Rh5C12,0.0,-0.389610581199999,mp-1192194,0,0.0
B6O12Zn4Se1,5.018351,,,0,7.0
Na3AlSi2GeSO12,2.2743,-2.539651278081896,mp-2714333,0,3.0
PrAlRh,0.0,-0.791235201388891,mp-1209554,0,0.0
Hf4CN3,0.0,-1.80164295953125,mp-1224384,0,0.0
Na3Ti3InSi3(SO8)3,2.1531,-2.638438677837061,mp-2714920,0,3.0
Pr4Ho2Mn23,0.0,0.12113721237862,mp-1219945,0,0.0
TlCd(NO2)3,2.1399,-0.833016798030304,mp-11018,0,3.0
KLaYNbO6,2.1338,-3.227024238225,mp-1516868,0,3.0
ErVB4,0.0,-0.7305981127777771,mp-10983,0,0.0
Y(Ni2P)2,0.0,-0.819045511326528,mp-1104054,0,0.0
Rb2BaBr4,4.2176,-2.253214423571429,mp-1219768,0,6.0
Tb,0.0,0.0,mp-18,0,0.0
YCdAg2,0.0,-0.271089368333331,mp-865503,0,0.0
TaO2,0.4284,-3.054668550569444,mp-510,0,0.0
YSiRu,0.0,-0.812563497499998,mp-21069,0,0.0
Hf(BH4)4,5.7195,-0.206406909047619,mp-28040,0,7.0
Rb2In(IO3)6,0.0,-1.098672648209877,mp-1193095,0,0.0
Na8Y2Zn2Si3(SO8)3,2.7255000000000003,-2.500586000163519,mp-2715185,0,4.0
SrLiAs,1.0323,-1.199801943055556,mp-1101989,0,1.0
Ho20In40Rh19,0.0,-0.587814589578056,mp-1225241,0,0.0
Na7Ti3ZnSi3(PO8)3,2.224199999999999,-2.855535636754076,mp-2714842,0,3.0
Bi4As4Co4O20,2.59845,,,0,4.0
Rb2NaTaF6,0.0,-2.942962404371264,mp-1110644,0,0.0
Fe2Re3,0.0,-0.009121351999999,mp-639789,0,0.0
InBiS3,1.379999999999999,-0.5640077746874991,mp-1078776,0,2.0
CePt2,0.0089,-1.153960923333329,mp-2109,0,0.0
NaCdPO4,2.9173,-2.38876374228888,mp-6684,0,4.0
SrCaZn2,0.0,-0.222162887499999,mp-1218336,0,0.0
Bi2Cd4As2O12,2.024096,,,0,3.0
K2B10H6O19,5.7646,-2.461983183612612,mp-1205077,0,7.0
LiGaIr,0.0,-0.481180653888889,mp-1207274,0,0.0
Hf3ZnF6,0.0,-2.3322006650208382,mp-1206063,0,0.0
Cs8As8Se16,1.376238,,,0,2.0
Sr4Cu4Se8O24,1.584387,,,0,2.0
K2SrCu(NO2)6,0.042499999999999,-1.171304879295454,mp-12161,0,0.0
Ta12N20,0.0,,,0,0.0
YFeCo3B,0.0,-0.299060579027777,mp-1101797,0,0.0
Ba3CaRu2O9,0.0,-2.477575224000001,mp-6443,0,0.0
KZrH2OF5,5.846299999999999,-3.045322368475,mp-555482,0,7.0
Ca8In3,0.0,-0.417590735909091,mp-1191538,0,0.0
NaTa3AlSiP5O24,3.0965,-3.049342034759817,mp-2715599,0,4.0
ZrGeRu,0.0,-0.8634817855555571,mp-637736,0,0.0
Sm2Ni17,0.0,-0.178207499473682,mp-1203310,0,0.0
MgSbRhO4,0.113199999999999,-1.675233362142856,mp-2226702,0,0.0
Ba4Ce1Mn3O12,1.8639549999999991,,,0,2.0
Bi9I2,0.0,-0.15641075409091,mp-28149,0,0.0
Li3Ce4B12(H12Cl)4,0.058499999999999,-0.440087606056337,mp-1223687,0,0.0
Sr4Nd3Ta2Al5O21,3.194,-3.536336247490476,mp-1173209,0,5.0
MgBi2P2O9,2.3591,-2.411884900306124,mp-1327704,0,3.0
Pr2Ni12P5,0.0,-0.6776772427130321,mp-1209747,0,0.0
YAg2Pb,0.032399999999999,1.612467190416701,mp-1093543,0,0.0
Cs4Ba(PO3)6,5.1063,-2.780187510395788,mp-560944,0,7.0
U2AsPNO19,0.0,-1.428022856755951,mp-1191672,0,0.0
Na2TiZnP2SO12,2.0055,-2.527087144888298,mp-2713247,0,3.0
Pr4ZrCo25,0.0,0.003032945946142,mp-1220153,0,0.0
SbC2SCl3O,0.7110999999999991,-0.14992781984375,mp-1204034,0,1.0
Co4Si4Li8O16,2.930668,,,0,4.0
HoZnSi,0.0,-0.589831284999998,mp-1223786,0,0.0
FeH3,0.0,0.1489955190625,mp-1018061,0,0.0
Zr2CoRe,0.0,3.623886539375,mp-1097564,0,0.0
U3Bi4,0.0,-0.123830358571426,mp-23196,0,0.0
Nd2Te5,0.0,-1.286536387857142,mp-1119,0,0.0
LiSm2Al,0.0,-0.229923601666666,mp-1185458,0,0.0
U2Co3Si,0.0,-0.464442074999998,mp-1102105,0,0.0
InGa(AgTe2)2,1.0657,-0.357866566249999,mp-1223856,0,1.0
ErSnRh2,0.0,-0.8253240662500001,mp-862931,0,0.0
ScTaN,0.0,-1.140669757444444,mp-1219257,0,0.0
VCrAs2,0.0,-0.32152627375,mp-1216397,0,0.0
Li4Sm3Ge4,0.0,-0.672048737121212,mp-1103229,0,0.0
La(PPd)2,0.0,-1.005096950857144,mp-1207202,0,0.0
Ca3CdO4,2.52,-2.831232277499999,mp-755287,0,4.0
K3TaF6,0.0,-2.8935074489083332,mp-1110844,0,0.0
Si10(H3C)19,3.2821,-0.19383039732849,mp-1202794,0,5.0
Na6Ta4Zn2Si6(SO12)3,2.4109,-2.6965114194756,mp-2712594,0,3.0
Hf15Mo11Se2,0.0,-0.141863492593744,mp-1224584,0,0.0
UTa2O7,0.150199999999999,-3.410023664966665,mp-675679,0,0.0
U5Sb4,0.0,-0.399534272777771,mp-1207950,0,0.0
Mg2NiH4,1.571899999999999,-0.3319514775,mp-697331,0,2.0
InTe2O5F,3.2424,-1.798260462222222,mp-1204544,0,5.0
Cs2KScCl6,3.7113,-2.452173358156034,mp-571124,0,5.0
Cs6Cl18Tl4,1.966403,,,0,3.0
K2PtC4(IN2)2,1.3594,-0.320244695346154,mp-570105,0,2.0
Ho(Fe2Ge)2,0.0,-0.289832964285712,mp-1212389,0,0.0
Cs2TbAuCl6,2.181,-2.074623368597698,mp-1112921,0,3.0
Zn3Os,0.0,0.037268560000004,mp-971960,0,0.0
Dy2SnS5,0.171599999999999,-1.721246515104164,mp-1189757,0,0.0
Nb4Fe4Si7,0.0,-0.576473713,mp-1192618,0,0.0
LiMgHg2,0.0,-0.300294600833337,mp-1185363,0,0.0
Ba4V4Cl4O12,2.367035,,,0,3.0
Dy2YTaO7,3.3865,-3.846649592787877,mp-1225383,0,5.0
SbCl5,1.5374,-0.7330447383333331,mp-570796,0,2.0
Sr2F2Cu2S2,1.971405,,,0,3.0
Nb10(SnGe)3,0.0,-0.314130740625,mp-1220810,0,0.0
Na4Sn2Ge5HO16,2.129,-1.979348627205972,mp-1210394,0,3.0
CaEuO2,0.0,-3.181973046250001,mp-755389,0,0.0
Sb2IBr2F11,1.708899999999999,-2.209712475859374,mp-560928,0,2.0
Ba(ClO4)2,5.4454,-1.110697699090904,mp-1190390,0,7.0
K3NbF6,0.0,-2.952687989174999,mp-1111115,0,0.0
Cs2TiS3,1.2724,-1.621142408357278,mp-3247,0,2.0
U2(PdAu)5,0.0,-0.357137743055564,mp-1217158,0,0.0
HfNCl,2.2055,-2.150861657083332,mp-541911,0,3.0
RbIn3F10,3.4583999999999993,-2.873881656964286,mp-1179709,0,5.0
Ag4S4C4N4,2.616013,,,0,4.0
SmNiB4,0.0,-0.55687622111111,mp-979948,0,0.0
ScReGe2,0.0,-0.513221969791667,mp-1197212,0,0.0
K4CdAs2,0.6091000000000001,-0.403009840571427,mp-29585,0,0.0
K2Na3P3O10,4.3865,-2.638942295142583,mp-1019781,0,6.0
Cu2SiP4,0.0,0.461042405958707,mp-1213539,0,0.0
AlSb2(SeCl2)2,1.122,-1.301340974131944,mp-1194909,0,1.0
La8S16,0.6321629999999999,,,0,1.0
La8Co8O20,0.995319,,,0,1.0
RbVCu3Se4,0.0,-0.6435518274305551,mp-1179694,0,0.0
RbScF4,5.9581,-3.911551707083333,mp-1209160,0,7.0
K2C6Se2S6N6O,0.2585,-0.042644700182064,mp-733782,0,0.0
Rh2Te12Br6,1.160186,,,0,1.0
BaS2(NO3)2,1.7141000000000002,-1.284484112272726,mp-728538,0,2.0
K3(SeO4)2,0.398499999999999,-1.593381530879808,mp-721956,0,0.0
TbGdO3,3.1586,-3.844252297333332,mp-756224,0,5.0
Na3HoCl6,5.2296,-2.239178432999999,mp-29836,0,7.0
Na2MgGe3P4(SO12)2,1.517399999999999,-2.344682178879538,mp-2712676,0,2.0
VH11N3Cl5,0.0,-0.887563360312501,mp-720859,0,0.0
Co1Ga2S4,1.655024,,,0,2.0
La8Sb14Pt17,0.0,-0.906604595897435,mp-1211963,0,0.0
Cu4O2Cl4,0.869023,,,0,1.0
SrAl7Tl5Si5O24,1.7681,-2.86954890670635,mp-1173192,0,2.0
Ca(SiO2)5,0.9177,-2.918721804375001,mp-1233759,0,1.0
Na2ZnH4(SeO5)2,3.0449,-1.488347683286638,mp-643776,0,4.0
S12N16C4,1.74008,,,0,2.0
Al12Te12I4,2.014175,,,0,3.0
SnP2PbO8,3.769999999999999,-2.449247168482141,mp-22821,0,6.0
Pb4Ge4S12,1.584843,,,0,2.0
Sm(AlSi)2,0.0,-0.434237711999999,mp-7120,0,0.0
Mg2ZnHg,0.248799999999999,0.996376434374998,mp-1097317,0,0.0
IrSe3,0.0,-0.268489813379842,mp-685099,0,0.0
Ho2Sn2O7,2.7013,-3.027425837727271,mp-3884,0,4.0
Cs12P28,2.359571,,,0,3.0
TiZnF4,0.0,-2.761654537222222,mp-1407835,0,0.0
LaTi6Bi7O24,2.4667,-2.707786648815789,mp-1223128,0,3.0
As8Na4O22,2.074971,,,0,3.0
RbDy(SO4)2,5.719399999999999,-2.553862191805554,mp-18109,0,7.0
MgNiH3,0.0,-0.251848013749999,mp-1017629,0,0.0
Th2CoB10,0.0,-0.643832884230767,mp-22548,0,0.0
MnCu2SnTe4,0.0,-0.350787789949712,mp-1025532,0,0.0
Cs2NaAs7,1.4374,-0.345263397568965,mp-1197430,0,2.0
La2Te5,0.0,-1.490293036190476,mp-1104212,0,0.0
Mg3Tl,0.0,-0.013980935833334,mp-864938,0,0.0
NdCu3(RuO3)4,0.0,-1.551248296375,mp-22666,0,0.0
GaN,1.726499999999999,-0.670049406875,mp-804,0,2.0
BaP8,0.8917,-0.309704130238093,mp-30275,0,1.0
BaCuS2,0.0,-1.387985878749991,mp-1147715,0,0.0
BaAl4Se7,2.3933,-1.370573937617186,mp-1191234,0,3.0
Na5BrCl4,4.27,-2.042080057189655,mp-1221147,0,6.0
Lu2Si5Ir3,0.0,-0.905438718833336,mp-568336,0,0.0
K3Al3Si3O16,0.0287,-2.171296593669999,mp-1181028,0,0.0
SmGe3,0.0,-0.395154118749999,mp-979013,0,0.0
Ba2TaTlO6,2.241,-2.814804107066668,mp-1205650,0,3.0
Cd(NO3)2,3.4581,-0.992588532916667,mp-27198,0,5.0
V2ReRh,0.0,3.4664312343750012,mp-1093714,0,0.0
La2MgNbO6,0.2118,-3.4389927145,mp-1211365,0,0.0
CuC4(NO5)2,0.027499999999999,-0.8733561385294121,mp-1182624,0,0.0
Au8Tl4S6,1.073826,,,0,1.0
Au2Se4O11,1.4326,-0.988463535257348,mp-27441,0,2.0
TbLuO3,4.9973,-3.986720298666666,mp-754145,0,7.0
InBi37Br48,1.3903,-0.823500822751939,mp-680466,0,2.0
Ba5Sn3,0.0,-0.6202585968749991,mp-17325,0,0.0
SiO2,5.719,-3.27283134388889,mp-7000,0,7.0
KCaCl3,5.5615,-2.48754682375,mp-1211643,0,7.0
SrCa2I6,3.7364,-1.885161441111111,mp-754517,0,5.0
Ca(FeS2)4,0.0,-0.878370849999999,mp-1387732,0,0.0
CaI2,3.8971,-1.89441126,mp-30031,0,6.0
Ba3NdIrRuO9,0.0009,-2.529088223500001,mp-1228241,0,0.0
ZrNb,0.0,0.110828225000002,mp-1215202,0,0.0
RbCa2Ta3O10,2.202499999999999,-3.315439509968751,mp-6680,0,3.0
Ca3Ni7B2,0.0,-0.33624928486111,mp-8308,0,0.0
Mo(WS3)2,1.1932,-0.9063480796527772,mp-1026034,0,1.0
GePdS3,1.3441,-0.6512282284999991,mp-541785,0,2.0
TiSn9O20,1.126299999999999,-2.233100057611111,mp-766163,0,1.0
In3Cu3SiSe8,0.6336,-0.672734595249999,mp-1224530,0,1.0
Pb4Ir4O14,0.1930869999999999,,,0,0.0
LiSnHg2,0.1794,0.6783130766666631,mp-1096075,0,0.0
C5N4,5.8888,0.565152831944445,mp-651723,0,7.0
Ba2YInSe5,1.176799999999999,-1.878695495376157,mp-1205397,0,1.0
Ba2(SnSb2)3,0.0,-0.5219400047727271,mp-29087,0,0.0
Zn4IrN4,0.0,0.243940802615382,mp-1246152,0,0.0
Lu4CoSn8,0.0,-0.426698852051282,mp-1222557,0,0.0
Au6F16,0.567693,,,0,0.0
ZrAlCr,0.0,-0.281577295111105,mp-1215346,0,0.0
Sr2La14Zn3Cu5O32,0.0,-2.969849130178572,mp-695252,0,0.0
ZrP2(HO3)2,4.1162,-2.53249874288961,mp-24030,0,6.0
Mn6Ga29,0.0,-0.113235278125616,mp-1196402,0,0.0
V20S16,1.105383,,,0,1.0
Ta2Co3Si,0.0,-0.470072852444443,mp-1217775,0,0.0
H12C4IN(OF)2,4.6425,-0.5244459743181821,mp-1195695,0,7.0
HoB4Mo,0.5762,-0.6310179636111091,mp-1191115,0,0.0
Sr2InHg,0.0,-0.479376847291668,mp-1187240,0,0.0
KNdH2S2O9,5.3773,-2.283803648816666,mp-1203714,0,7.0
Na2Mn3Te4,0.0,-0.760840602854405,mp-1221335,0,0.0
Y2Si4CN6,3.0876,-1.360354627692308,mp-6353,0,4.0
K2Zr(BO3)2,3.4092,-2.9816018693484843,mp-8891,0,5.0
Na2Nb3InSi2(PO6)4,2.3707000000000003,-2.8524884553147243,mp-2715557,0,3.0
ZrAsPd,0.0,-0.915322760833332,mp-669436,0,0.0
K4Br2O,0.9912,-1.699231186285714,mp-28627,0,1.0
TmAl2,0.0,-0.5705990833333341,mp-858,0,0.0
YB2Pd7,0.0,-0.39812322243747,mp-13560,0,0.0
AgI,1.3759,-0.467759898333332,mp-580941,0,2.0
U2C4NO15,0.498799999999999,-1.622629908181817,mp-1204041,0,0.0
Cu3Ag,0.0,0.090374920833333,mp-1184011,0,0.0
Fe(W3Cl7)2,0.7656000000000001,-1.074648506190476,mp-1197576,0,1.0
Ba3TaN3,0.6057,-0.911617286761904,mp-1247074,0,0.0
BaNd2MnS5,0.0,-2.035298276159003,mp-16456,0,0.0
VSiPt,0.0,-0.430407303333333,mp-961710,0,0.0
ZrCo3,0.0,-0.095514842032084,mp-1188034,0,0.0
MnAsPd2,0.0,-0.238381408857758,mp-12559,0,0.0
Ti8Cu3Ni,0.0,-0.16076476138889,mp-1217065,0,0.0
Mn6GaGe,0.0,-0.011805052510776,mp-1221938,0,0.0
NaEuHfZrO6,0.0,-3.29621775163793,mp-1522962,0,0.0
Sm5Ge3C,0.0,-0.645278864444445,mp-1188536,0,0.0
NdBi2IO4,1.265399999999999,-2.2763558465625,mp-549333,0,2.0
ZrGeTe,0.0,-0.898266104999999,mp-3208,0,0.0
CsNb3VCl11,0.0,-1.558155052890622,mp-1213417,0,0.0
BaHfN2,1.2537,-1.52112418875,mp-10322,0,1.0
CeNdC4,0.0,-0.258506172708334,mp-1226536,0,0.0
CrPdBr4N5Cl,0.0,0.182338162083333,mp-1203543,0,0.0
NpHgO3,0.0,-2.379468141250002,mp-1186320,0,0.0
Na10Y6Ta2Si7S5O48,2.8846,-2.863923299520851,mp-2715822,0,4.0
Yb3In,0.0,-0.177437223749997,mp-980052,0,0.0
UNbN2,0.0,-1.511787744375006,mp-1207913,0,0.0
Ce4Ru3,0.0,-0.371323679285712,mp-570629,0,0.0
Na3La2(BO3)3,3.790199999999999,-3.021893579213996,mp-560129,0,6.0
ThZr2H7,0.0,-0.526538632839293,mp-30085,0,0.0
Cu7S4N,0.0,0.378145854895837,mp-1226184,0,0.0
Mn10CuN8,0.0,-0.254193868609345,mp-1247185,0,0.0
Sb11S18,0.0,-0.21243215322737,mp-753921,0,0.0
Tl3GeF7,3.5864000000000003,-2.313548461363638,mp-1208140,0,5.0
Sm(Al4Co)2,0.0,-0.459324104999999,mp-1200854,0,0.0
YbGaCuO4,0.0,-2.351465337142857,mp-1215588,0,0.0
NaLaGdSbO6,2.2363,-2.806181082637931,mp-1517067,0,3.0
CsHoSiS4,2.9111,-1.715519464950737,mp-1193331,0,4.0
Al(MoS2)12,0.0,-0.782854547157657,mp-1264535,0,0.0
Sm(Al10V)2,0.0,-0.198337126086971,mp-1195763,0,0.0
Mn2Sb2PtRh,0.0,0.008676237356322,mp-1221535,0,0.0
Tb3GaFeS7,0.071899999999999,-1.758917167499999,mp-1190757,0,0.0
Li10Si(PSe6)2,1.606599999999999,-1.074566643429761,mp-721253,0,2.0
Zr5AgSb3,0.0,-0.693028715185184,mp-1190110,0,0.0
RbLaMg30O32,3.5797,-2.913797100351562,mp-1040029,0,5.0
CsGaBP2HO9,4.6544,-2.54955072495717,mp-1201408,0,7.0
Ni2Mn4O12Li4,1.804011,,,0,2.0
La3Al11,0.0,-0.421035652499999,mp-16505,0,0.0
NaCe4I7N2,0.0,-1.673256604027092,mp-646565,0,0.0
KCuPSe3,1.0928,-0.720559654265129,mp-568611,0,1.0
TaCu3(TeSe)2,1.6151,-0.610303749419269,mp-1217991,0,2.0
Na4Sc3NbSi3(SO8)3,2.215899999999999,-2.7996896940267693,mp-2713659,0,3.0
K2Cu(CO3)2,0.5492,-1.854281311318182,mp-542332,0,0.0
Sc2AlCo3,0.0,-0.341890823333336,mp-1219430,0,0.0
Na7Al4P9O32,4.9808,-2.8510504322392483,mp-1020724,0,7.0
ScSiPd2,0.0,-0.8674162964285691,mp-862556,0,0.0
BaCaCuBiO6,0.0,-1.891478206,mp-1521412,0,0.0
B4Rh5,0.0,-0.408349034444442,mp-567926,0,0.0
BaSb2Xe5F22,2.5745,-1.920397485666666,mp-556539,0,4.0
Ca1Cr1F6,1.563331,,,0,2.0
MgB4Os3,0.0,-0.265860658125003,mp-10503,0,0.0
Na3Mg3GePS5O24,1.8063,-2.285090102061644,mp-2713281,0,2.0
Sb2O5,0.5057,-1.74803409,mp-1705,0,0.0
CsBi4Se7,0.6571,-0.579970496783872,mp-1226121,0,1.0