formula,bg,formation_energy,mp-id,fidelity,bg_category
NaNbIn(PO4)3,2.3857,-2.693881960572661,mp-2713817,0,3.0
Al2(CuO2)3,0.0,-1.75783324409091,mp-1329157,0,0.0
Ti(PS3)2,1.4501,-0.9187834819576712,mp-13666,0,2.0
CaP2H8(CO3)2,5.475099999999999,-1.527020160751879,mp-1203091,0,7.0
Sb2HCSCl6O5F3,2.5456000000000003,-1.51924776875,mp-1201024,0,4.0
K6As4B2,1.295127,,,0,2.0
Ca(MnAl3)3,0.0,-0.254768511061007,mp-1227419,0,0.0
Ba2SrB18,0.8369000000000001,-0.421116569761903,mp-1228370,0,1.0
RbLuBeF6,7.551,-3.897784789907407,mp-1209222,0,7.0
K4Eu2U(GeO4)4,0.0,-2.609611466629629,mp-1194519,0,0.0
Na2K2Mo2O4F8,1.31377,,,0,2.0
K2Pd3Se4,0.764,-0.9122132659861112,mp-14339,0,1.0
VH10SNO9,2.7481,-1.4089021295454551,mp-555799,0,4.0
AlSi2HC6NCl3,1.0662,0.061593201339285,mp-1248231,0,1.0
Hg8Ge2S12,0.3294149999999999,,,0,0.0
Se12Ge4Na8,1.588348,,,0,2.0
Ta1Rb3O8,2.962356,,,0,4.0
H12C4N2O9,3.3009,-1.136421747777778,mp-1225208,0,5.0
Ca2Cu2As2,0.1144979999999999,,,0,0.0
Eu3NbO6,0.0,-3.333018813999996,mp-1188621,0,0.0
Na6TaIn3Si2(PO6)4,1.0192,-2.655728069937849,mp-2715278,0,1.0
K2TeH10(NO7)2,2.785,-1.332471049091954,mp-707744,0,4.0
PrB3,0.0,-0.093490412500001,mp-16762,0,0.0
Lu2AlTc,0.0,-0.31029451267361,mp-973625,0,0.0
Tb2C3,0.0,-0.412298592999999,mp-7024,0,0.0
Cs(PRu)2,0.0,-0.7290987031904761,mp-1207015,0,0.0
NaHfMg30O31,0.5456000000000001,-2.931224510259989,mp-1039713,0,0.0
HoH2,0.0,-0.799699360833334,mp-24152,0,0.0
NaGeSb5O,0.0,-0.199094288297413,mp-1210268,0,0.0
Mg2Ti3VS8,0.0,-1.535940514999999,mp-1246861,0,0.0
NdLuMg2,0.0,-0.065189018541667,mp-975515,0,0.0
ZrMo3,0.0,0.227824803749999,mp-30790,0,0.0
Ti5Te8,0.0,-0.8498283341025661,mp-1208221,0,0.0
Sc7I12Co1,0.2296929999999999,,,0,0.0
MgTi2(SiO4)2,0.2338,-3.140570073205128,mp-2219468,0,0.0
Cs12Ga2Sb6,0.452484,,,0,0.0
CsNaTiO3,3.361799999999999,-2.7420402407279703,mp-560791,0,5.0
Pb2Ge4S12K4,2.031975,,,0,3.0
TiZn10(B4Rh9)2,0.0,-0.438476269909909,mp-1208284,0,0.0
LuAlCu,0.0,-0.442044945555556,mp-1222329,0,0.0
Na2Al2Se4,2.210847,,,0,3.0
KMg4(PO4)3,5.0625,-3.001999511058927,mp-557844,0,7.0
ZnH4(IO4)2,3.2913,-1.134069161999999,mp-757256,0,5.0
Mg30NbCuO32,0.357399999999999,-2.9137970542187492,mp-1037239,0,0.0
Mg14GaC,0.0,0.174469341718749,mp-1026540,0,0.0
CuH36S8I2(N3O4)3,2.6872,-0.8246716286029401,mp-1197502,0,4.0
Rb2PH4Se3O2,1.3946,-1.138266276389508,mp-1199971,0,2.0
BaMg14V,0.0,0.182753581874999,mp-1028319,0,0.0
RbNb(BO3)2,3.4532,-2.893123393783333,mp-556808,0,5.0
Sr(In4Rh)2,0.0,-0.340037566893944,mp-21756,0,0.0
Hf2Sc2SiS5O24,3.927,-2.711621605514706,mp-2712847,0,6.0
MgCuPtO2,0.0,-1.024324908999999,mp-2227998,0,0.0
Cu2IBr,0.0,-0.21155773,mp-1225799,0,0.0
SrScBe,0.0,1.290938323333333,mp-631468,0,0.0
AlBi2Se2BrCl4,1.1162,-1.36788832746875,mp-1190020,0,1.0
NaZnGa3(SO4)6,3.441599999999999,-1.947184141777505,mp-2714689,0,5.0
RbEuS2,0.0,-1.7665767568750022,mp-20584,0,0.0
MoSeS,1.2025,-0.8448410206249971,mp-1221404,0,1.0
Zr(TeCl6)2,3.0775,-1.491940822555555,mp-569684,0,4.0
Cr3PN,0.0,-0.489215054202378,mp-1080816,0,0.0
Cu2V2O6,0.970314,,,0,1.0
Li19La12Zr8O48,0.011499999999999,-3.041729757969349,mp-1239180,0,0.0
Ac3Sc,0.0,0.119352678124997,mp-985561,0,0.0
Th(MnGe)2,0.0,-0.469127685172405,mp-21281,0,0.0
LuIn3,0.0,-0.430421821666669,mp-977,0,0.0
Sr2TaAlCu2O7,0.0,-2.450535957102563,mp-1046620,0,0.0
Cs4Cr2Cl10O2H4,2.408317,,,0,3.0
Ba2LiReO6,1.8198,-2.741621015583333,mp-6270,0,2.0
La2Ir7,0.0,-0.47710935833333,mp-1195853,0,0.0
P4PtIO10,0.314199999999999,-1.679047343660713,mp-1197900,0,0.0
Li2HgPt,0.0,0.8731616397916611,mp-1093641,0,0.0
OsO2F3,0.5235000000000001,-1.8332988608333332,mp-559897,0,0.0
Ti6Al16Ni7,0.0,-0.5638814393103441,mp-865235,0,0.0
NaSrMg2F7,6.508900000000001,-3.776020496363636,mp-1220897,0,7.0
HoBi2C,0.0,0.7088709834374991,mp-1239078,0,0.0
Na4La31(CoI12)5,0.012599999999999,-1.553790360405172,mp-1223438,0,0.0
K2NaYI6,3.1298999999999992,-1.579217140587931,mp-1110826,0,4.0
Fe4Te3Se,0.0,-0.320180506542968,mp-1224987,0,0.0
Na7Ca2Ta2Si3(PO8)3,2.6769,-2.909382959550823,mp-2714858,0,4.0
SnH8(ClO)4,3.2964,-1.322371815882353,mp-1198797,0,5.0
RbGa2Au3,0.0,-0.334250915,mp-1191301,0,0.0
Cs2AlTlCl6,3.9209,-2.001432016264369,mp-1112505,0,6.0
Sr3Dy2(BO3)4,4.5247,-3.367470948809522,mp-1209630,0,7.0
MnPt(CN)6,0.0,0.15505480229064,mp-1210881,0,0.0
La4Al5Br2,0.0,-0.9739260990909052,mp-569398,0,0.0
EuMgGa3,0.0,-0.4192933745,mp-1225137,0,0.0
NaTeO3,0.0,-1.583567150609195,mp-977117,0,0.0
YZrS2,0.0,-1.897223823749999,mp-1215700,0,0.0
SmHoIr2,0.0,-0.7466430524999981,mp-972641,0,0.0
Ba14Na7CaN6,0.0,-0.391120517130541,mp-570449,0,0.0
Zn3P2(H2O3)4,3.7539,-1.824436237071428,mp-1200806,0,5.0
RbCoCu3Se4,0.087299999999999,-0.417870438541667,mp-1179750,0,0.0
W2NCl9,1.7961,-0.922365597604167,mp-583581,0,2.0
Ca4SmB3O10,4.3982,-3.375311077916666,mp-6388,0,7.0
H2Ru6(CO)17,1.5665,-0.86795293422619,mp-720808,0,2.0
TaGaNi2,0.0,-0.357744934333336,mp-21175,0,0.0
B2Mo,0.0,-0.448641116666668,mp-2331,0,0.0
YCr2Si2C,0.0,-0.425556407499999,mp-1206170,0,0.0
CaHfMg6,0.0,0.0882120825,mp-1023227,0,0.0
NaTmS2,2.3614,-2.13906569640625,mp-9076,0,3.0
Sm4GdS5,0.0,-2.2436222027499992,mp-1219448,0,0.0
Dy(CrGe)6,0.0,-0.139228726025639,mp-1105070,0,0.0
CsSi2SbO7,3.401799999999999,-2.730482914211076,mp-581955,0,5.0
TbSb2Pd,0.0,-0.897952395416665,mp-1095192,0,0.0
KCa2(SiO3)8,0.0,-2.305139551635713,mp-1224857,0,0.0
C4O8N12Ag4,2.212373,,,0,3.0
Tb(CrFe5)2,0.0,0.008235891025641,mp-1217844,0,0.0
SrTeO4,2.2486,-2.273476966527777,mp-4274,0,3.0
KBi,0.4308,-0.475921130312507,mp-31104,0,0.0
KZrP2HO8,4.1806,-2.880001730021978,mp-541071,0,6.0
TlS3,0.0,0.037595353541665,mp-1187543,0,0.0
CSN3,0.0,0.287041587035714,mp-1214236,0,0.0
Ti6Al16Co7,0.0,-0.515703900775857,mp-1192877,0,0.0
CuAgPd2,0.0,2.141462203750002,mp-1095713,0,0.0
Li3Cu4F15,0.0,-2.005111902545447,mp-760784,0,0.0
CeScPd6,0.0,-0.8581363443749971,mp-1226501,0,0.0
Cs3Sb1,0.6660729999999999,,,0,1.0
Ta2B,0.0,-0.56823540072222,mp-1032,0,0.0
CeGe5,0.0,-0.296426074166664,mp-984703,0,0.0
PrIn3,0.0,-0.577024107916667,mp-20903,0,0.0
Al2Pt,0.0,-0.989689963333328,mp-1502,0,0.0
ZrAlCu,0.0,-0.402913398333333,mp-1215318,0,0.0
Ta2TeO8,0.170399999999999,-2.359907766030302,mp-1046049,0,0.0
Rb2U6Pt4Se17,0.0,-1.2759563296497831,mp-1220068,0,0.0
Ba8Sb16Ga16,0.096662999999999,,,0,0.0
Tl2HgBi,0.0,0.69935414384723,mp-1096535,0,0.0
CsNa2Sb,9.999999999976698e-05,0.504038126666666,mp-1096304,0,0.0
Na3Pd,0.0,0.0056851175,mp-1186067,0,0.0
Nd23Mg4Pt7,0.0,-0.539768071691175,mp-1200594,0,0.0
K4Sb4O12,0.988116,,,0,1.0
Tm3P,0.0,-0.433018850327385,mp-971958,0,0.0
Na6Nb3Ga5(PO4)12,2.2624,-2.682778624119237,mp-2716418,0,3.0
YCuGe,0.0,-0.6377815683333331,mp-1215905,0,0.0
ErCo5Si3,0.0,-0.5828574968518511,mp-1198238,0,0.0
Co21(ReB3)2,0.0,-0.104551050000001,mp-541852,0,0.0
CeAl2,0.0,-0.502238053333333,mp-2088,0,0.0
HoTc2,0.0,-0.227511016666663,mp-1101968,0,0.0
RbEuO2,0.0,-2.531090263125001,mp-20277,0,0.0
SrMg5,0.0,-0.035247420833332,mp-981214,0,0.0
Yb2O3,0.0,-4.052655219750003,mp-2814,0,0.0
Ta3Te14Pd3,0.0,-0.628555874266667,mp-505132,0,0.0
Y5(SiB4)2,0.0,-0.7452462990000011,mp-1207750,0,0.0
Cr4Na8Cl16,2.243513,,,0,3.0
Cu4BiSe4I,0.009699999999999,-0.402724436437501,mp-1202250,0,0.0
Zn4In2O7,0.661999999999999,-1.802474966794871,mp-1216040,0,1.0
K4F2O8H6C2,4.695817,,,0,7.0
Er(GaCo)6,0.0,-0.323710538076923,mp-1212871,0,0.0
SO12,0.0,-0.213955299038461,mp-1194011,0,0.0
Te3(PdBr)4,0.7702,-0.697410387727271,mp-638749,0,1.0
Zr2GaTc,0.0,2.9360886878125,mp-1096282,0,0.0
Na4Sc2Si3Ge2(SO8)3,0.748599999999999,-2.512206566614489,mp-2713721,0,1.0
K2BeF4,6.8508,-3.318164689214286,mp-5185,0,7.0
Er6CoTe2,0.0,-0.7442821681481471,mp-1079725,0,0.0
PrMnB4,0.0,-0.518926203247123,mp-1191805,0,0.0
Dy2(GePt3)3,0.0,-0.8542756203571401,mp-641314,0,0.0
Cs2Au2Te2,1.219491,,,0,1.0
Pr3GaO6,3.8735,-3.415209581750001,mp-753821,0,6.0
NdPt,0.0,-1.141360196249998,mp-1080485,0,0.0
B5H9N,3.9,-0.226861548683335,mp-27893,0,6.0
ZnCuHg4As7S12,0.0,-0.298740297566667,mp-677563,0,0.0
Cs3MnI5,1.9819,-1.421442310766285,mp-569118,0,3.0
Ag2TeO6,0.2808,-0.635002848888888,mp-1183014,0,0.0
Mg14MnSn,0.0,0.04596257856681,mp-1028154,0,0.0
AlI2NO15,0.0,-0.230661672105263,mp-1182904,0,0.0
GdBi2IO4,1.3080999999999992,-2.297375686875001,mp-628631,0,2.0
Sr6Ir2RuO12,0.0,-2.384233316666666,mp-1218532,0,0.0
BaOsO2,0.0,-1.332083665625,mp-1214372,0,0.0
V(ZnN)4,0.0,-0.249449532777778,mp-1246275,0,0.0
LaAl3,0.0,-0.489353447499999,mp-959,0,0.0
Na3ZrZn3PS5O24,3.5157,-2.196014411521103,mp-2712665,0,5.0
Zr3NiSb7,0.0,-0.6287328236363731,mp-22174,0,0.0
Au1Xe2Sb2F12,0.521172,,,0,0.0
BH6N,6.0173,-0.30631064765625,mp-1105968,0,7.0
Hg1Cu2I4,0.631107,,,0,1.0
Ba2Bi2Cu2,0.0,,,0,0.0
Ag6Se2N2O6,0.552346,,,0,0.0
Sm4In20Ni11,0.0,-0.269685973523808,mp-1203754,0,0.0
Gd3InO6,3.0601,-3.4112711201666652,mp-756715,0,4.0
Mn6Ni16Ge7,0.0,-0.116862892502972,mp-1194507,0,0.0
PuB12,0.0,-0.291514150673077,mp-1104892,0,0.0
K2PH4S3O2,2.8749,-1.215193831595237,mp-1199891,0,4.0
ZnH12C6(S2N)2,2.4966,-0.231661237599998,mp-1204777,0,3.0
KCeHf4O12,0.0,-3.291455355402778,mp-1516339,0,0.0
NbReTc2,0.0,4.429438805624997,mp-1097251,0,0.0
NdYIn2,0.0,-0.613462731874999,mp-1186379,0,0.0
MgAlMoS4,0.277499999999999,-1.173355821428571,mp-1247044,0,0.0
NaLaS2,2.191,-2.12479554765625,mp-675230,0,3.0
SrSbPt,0.0,-0.9505581366666672,mp-8605,0,0.0
Rb2Na4B2O6,3.094148,,,0,4.0
YSn2,0.0,-0.595892614999998,mp-13010,0,0.0
Pb5I2F8,2.906816,,,0,4.0
I2Mo2O12Li2,1.980308,,,0,3.0
Na4HfGaSi2PO12,3.8025,-2.8662112421107993,mp-2716258,0,6.0
TlCNO,2.5255,-0.736037945833335,mp-1216754,0,4.0
AlCuGeSe4,0.8904999999999991,-0.7430883706249991,mp-1228980,0,1.0
LiCu5F12,0.0,-1.939937189259258,mp-753031,0,0.0
Sc3Bi,0.0,-0.382106168541668,mp-1186964,0,0.0
SrAl2O4,4.141999999999999,-3.458835004642857,mp-3094,0,6.0
YHfRh2,0.0,2.123317182500001,mp-1097261,0,0.0
SmCd6,0.0,-0.155034022738093,mp-1219961,0,0.0
Ba2Ni1Mo1O6,1.993364,,,0,3.0
TaCoN2,0.0,-0.568357118083334,mp-1245350,0,0.0
TbInPd,0.0,-0.9118470233333332,mp-21308,0,0.0
PtAu,0.0,0.012786540000007,mp-1219709,0,0.0
Zr6Be15Pd8,0.0,-0.471745859137931,mp-1207398,0,0.0
ErBiPt,0.0,-1.166693212777782,mp-30454,0,0.0
Mn(CoN)4,0.0,0.026356780229883,mp-1246097,0,0.0
Y3CrS6,0.0,-2.0134434955,mp-1207827,0,0.0
Ba2ZrSnO6,3.6894,-3.1393160845,mp-1228067,0,5.0
KBiP2S7,2.3782,-0.7979409535487001,mp-23572,0,3.0
NaEuZrTiO6,0.0,-3.195847522971264,mp-1517534,0,0.0
ScH24C3S3(N3O5)3,4.3698,-1.133525364227274,mp-559113,0,6.0
Zn2Hg2H2S2O11,2.2221,-1.553248311578948,mp-761169,0,3.0
Cd3FeSe4,0.0,-0.649099568671874,mp-1226917,0,0.0
Eu2Re6S11,0.099,-1.121075552236841,mp-572604,0,0.0
HoN,0.087499999999999,-2.059664416874998,mp-883,0,0.0
Ba2CeC3O9F,0.0766,-2.8186706456249992,mp-6850,0,0.0
Na3LaZnP2SO12,3.5204,-2.5726324782128502,mp-2712565,0,5.0
Tl4Fe2C10N12O2,2.456471,,,0,3.0
Y3Ni7B2,0.0,-0.47559849736111,mp-1192116,0,0.0
AcAg2Pb,0.0,-0.311332194375005,mp-1183065,0,0.0
NaHf4(NCl)4,0.0,-1.9461725101061,mp-1220754,0,0.0
CoTeSe,0.0,-0.212796636354165,mp-1225994,0,0.0
BaNa4O3,1.7869000000000002,-1.719177010064655,mp-756084,0,2.0
CdSb5OF28,0.0242,-2.44791595742857,mp-1198900,0,0.0
Sb16S16O8,1.061848,,,0,1.0
LiV2N3,0.0,-1.136574449652777,mp-1029338,0,0.0
La3Y(MnSi)4,0.0,-0.611062961443963,mp-1223332,0,0.0
Ti5Ge3,0.0,-0.7418544810416651,mp-568151,0,0.0
Na3Re2N5,0.6341999999999991,-0.348981235163795,mp-1246353,0,1.0
Sc7P3,0.0,-1.038444755392858,mp-1105778,0,0.0
Sr7TiN6,1.386399999999999,-0.963807843333333,mp-1245386,0,2.0
Nb6Co16Ge7,0.0,-0.286330558103447,mp-580140,0,0.0
Ho(SiRu)2,0.0,-0.8828779309999981,mp-5720,0,0.0
CeAl2Pt,0.0,-0.8646705987499991,mp-1079160,0,0.0
Na6CaTi7(PO4)12,2.1841,-2.98094886379266,mp-2716417,0,3.0
K2Mn(NbCl3)6,1.031699999999999,-1.748129269719668,mp-570972,0,1.0
Mo2S4N,0.0,0.036493669285715,mp-1210552,0,0.0
MgBi2O5,0.433899999999999,-1.835202140937501,mp-1042428,0,0.0
Sr4Li(RuO4)3,0.0,-2.254725459666667,mp-1218614,0,0.0
BeF4,0.0312,-1.871982486999999,mp-1214240,0,0.0
Nd3(AgGe)4,0.0,-0.61145357113636,mp-1206903,0,0.0
Na10Al4Zn4Si3(S3O16)3,3.3529,-2.272088624161878,mp-2714817,0,5.0
CaPt3O4,0.0,-1.403879482499999,mp-755647,0,0.0
Ba2ThS6,1.3091,-1.98355595166667,mp-1189897,0,2.0
YCdBiO4,2.0854,-2.1821172725,mp-1203156,0,3.0
Rb2Ba8Ca(Sb3O)2,0.5611,-1.334804417631578,mp-1234470,0,0.0
CrH2,0.0,0.002280474166666,mp-24208,0,0.0
MgSc2Os,0.0,-0.2714687812499999,mp-866081,0,0.0
BaSi3Pt,0.0,-0.553016668,mp-1069809,0,0.0
Sr6As6,0.0,,,0,0.0
Na4Ti2In2Si3(SO8)3,1.3376,-2.4982426917022083,mp-2713697,0,2.0
Rb3Pr2(NO3)9,3.416,-1.469249607825203,mp-679928,0,5.0
Ba2Zn1Te1O6,0.594777,,,0,0.0
La3Ce4O12,0.0,-3.86383846868421,mp-756286,0,0.0
Sr2ZnGe2S6O,2.3133,-1.5670970491666651,mp-1208502,0,3.0
O20Mg6Mn6B4,0.5862539999999999,,,0,0.0
Tb2ZnSb3,0.131699999999999,1.873412569866668,mp-1206277,0,0.0
LaSn3Ru,0.0,-0.5311842907500001,mp-30756,0,0.0
Pm2TlSn,0.0,-0.5949271487500021,mp-1186476,0,0.0
BH4NF4,7.481199999999999,-1.969816386166667,mp-720391,0,7.0
Ho3Sn7,0.0,-0.517460868000002,mp-1079218,0,0.0
LiEu2Ge3,0.0,-0.6085927818055571,mp-637249,0,0.0
H14C4NF3,7.2811,-0.647428408011364,mp-601774,0,7.0
AlTlF4,4.433300000000001,-3.254028930000002,mp-3751,0,7.0
LiOs2W,0.293899999999999,3.889125453333328,mp-1096048,0,0.0
La4MgTi3O12,0.0,-3.66139217475,mp-2230488,0,0.0
Na14Hf4In4Si9(SO16)3,2.990199999999999,-2.7347775171358992,mp-2714654,0,4.0
KY(PSe3)2,1.938699999999999,-1.06768733930982,mp-571057,0,3.0
LaCo5H3,0.0,-0.128228738749999,mp-1222959,0,0.0
TlTe,0.0,-0.469588094687503,mp-2048,0,0.0
DyNi3Sn2,0.0,-0.340728648055553,mp-1213483,0,0.0
Cr8Fe3CuS16,0.0,-0.845954579642857,mp-1226582,0,0.0
LiZnAs,0.5518000000000001,-0.518190976944444,mp-9124,0,0.0
TlBrO4,3.028899999999999,-0.48934782888889,mp-23404,0,4.0
U(WC)2,0.0,1.389434967499994,mp-1179553,0,0.0
Li2TlAu,0.0,-0.409286208333334,mp-865711,0,0.0
HfGaCu,0.0,-0.3825865525,mp-1018714,0,0.0
La4Ba4Cu4Te12,0.933413,,,0,1.0
RbEuGeS4,0.0,-1.371076978928571,mp-1219610,0,0.0
Ba10CaY4(Cu3O7)5,0.0,-2.136966623,mp-1228878,0,0.0
Be3H42N13(ClO)3,4.2986,-0.7779174525390621,mp-1197819,0,6.0
Ba2NaCu3S5,0.4504,-1.218905568534482,mp-1191092,0,0.0
Ho3Ga2,0.0276,-0.5319828224999961,mp-1197194,0,0.0
NbCl4,1.0797,-1.412415387999999,mp-31040,0,1.0
Ga5Pt,0.0,-0.305706946666666,mp-1199016,0,0.0
Y2TiCuO6,0.0,-3.087970947333333,mp-1216142,0,0.0
TlClO3,4.3481,-0.720069275666668,mp-29738,0,6.0
Eu(GaSb)2,0.0,-0.5688677280000001,mp-945228,0,0.0
NaAlSi2H2O7,4.7537,-2.713585609817639,mp-676991,0,7.0
As3Pb5ClO12,3.271899999999999,-1.75413000345238,mp-566301,0,5.0
Na8Hf3MgSi5SO24,3.5798,-2.980866601274631,mp-2716226,0,5.0
Dy2Sc3Si4,0.0,-0.884634189166664,mp-1213190,0,0.0
CoH16C4(NCl2)2,0.9515,-0.488086590833332,mp-568314,0,1.0
CrCuS2,0.219699999999999,-0.768421636249998,mp-5862,0,0.0
Mn(BMo)2,0.0,-0.5189308358965511,mp-1092278,0,0.0
YSO4F,5.851699999999999,-2.9764699232142853,mp-17769,0,7.0
CaCuAsHO5,0.294799999999999,-1.944732065416666,mp-510729,0,0.0
LiNd2RuO6,0.4246,-2.8044745583333333,mp-1211080,0,0.0
SrHfMg30O32,0.0,-2.944490539375,mp-1098545,0,0.0
Na4HfSi3SnO12,3.3857,-2.895098944151615,mp-2716570,0,5.0
TiNb3Cl7O2,0.0,-2.110440672564102,mp-561357,0,0.0
Pr(Al5Ru)2,0.0,-0.562262926282049,mp-1193957,0,0.0
Ba3InIr2O9,0.016399999999999,-2.148578039444445,mp-1214916,0,0.0
NaYbSe2,0.0,-1.9783063707812512,mp-10988,0,0.0
CsAg3S2,0.4114,-0.497267531770833,mp-561902,0,0.0
CaOsN2,0.0,-0.33152775,mp-1245888,0,0.0
Ca7Cu17O24,0.0,-1.599018556666666,mp-765523,0,0.0
Cu2Cd1Ge1Se4,0.019902,,,0,0.0
Cl8Ga2Cu2,2.493528999999999,,,0,3.0
K3Sb2Au3,1.1046,-0.5525112789062511,mp-9273,0,1.0
NaH4BrO2,4.2665,-1.398204434547413,mp-23674,0,6.0
Na4O1I2,2.22683,,,0,3.0
Mg(AlC)2,1.7481,-0.055014741,mp-9514,0,2.0
Ba4LiBi3O11,0.0,-2.212391477280702,mp-775429,0,0.0
Zr4(B5Ir4)3,0.0,-0.592729977338711,mp-1215396,0,0.0
BiOs3(CO)9,0.1279,-0.7918287534090901,mp-1237295,0,0.0
SiSn,0.429199999999999,0.1919988225,mp-1009813,0,0.0
TiFe,0.0,-0.420830151666665,mp-305,0,0.0
Ba1Xe5Sb2F22,2.570691,,,0,4.0
Ca3Ga3Ge3O14,0.0,-2.504783290760869,mp-1214023,0,0.0
Na2Nb3InSi4(SO12)2,1.9734,-2.690996790863666,mp-2715579,0,3.0
LiOsO3,0.0,-1.744555773666667,mp-1078358,0,0.0
Tb3Sc,0.0,0.06118799875,mp-1187305,0,0.0
Li8BiS6,0.0,-1.251108146777777,mp-756213,0,0.0
Rb4P2Se9,1.4612,-0.9451267643586332,mp-569862,0,2.0
LaC,0.0,0.4236770485,mp-1001925,0,0.0
CeSb(SBr)2,0.0,-1.540692898333332,mp-680417,0,0.0
Dy2Zr2O7,2.7479,-3.864660388030302,mp-754302,0,4.0
Zn6Ni7Ge2,0.0,-0.234969894333332,mp-30030,0,0.0
Cd2S,0.623899999999999,-0.295316800937503,mp-1120762,0,0.0
Na2LaSn(PO4)3,1.7092,-2.7577015917554673,mp-2713557,0,2.0
Cr8P4O16I4,1.717366,,,0,2.0
H12Pd(I2N)4,1.4565,-0.486720614599999,mp-721713,0,2.0
Mg2MoN3,0.0,-0.8664033683333331,mp-1245635,0,0.0
Rb3GdCl6,3.2771,-2.44069221425,mp-1114105,0,5.0
NaTl2,0.0,-0.012088408333326,mp-1210089,0,0.0
CBrN,5.0373,0.192974841666665,mp-27989,0,7.0
Cd2V2O7,2.526466,,,0,4.0
Rb2TlHgBr6,0.0,-1.335001944083334,mp-1114086,0,0.0
Ba3Mn2O8,1.721463,,,0,2.0
Ho2Fe17C2,0.0,0.170859002380952,mp-1224177,0,0.0
Zn4RuN4,0.0,0.19494214611111,mp-1246383,0,0.0
LiIn2Ag,0.0,-0.204197270416663,mp-1185379,0,0.0
CsTiCl3,0.0,-1.946154178833333,mp-28283,0,0.0
TeNO4,0.0,-0.7561286394444441,mp-1179065,0,0.0
Ca3Sn,0.0,-0.438042506249998,mp-1183489,0,0.0
Ba3Al2F12,6.7238,-4.072744122794116,mp-3361,0,7.0
Ni2Ti2O6,2.922058,,,0,4.0
Te4Sr4O16H8,3.895634999999999,,,0,6.0
Na4AgCl5,2.7062,-1.74256010375,mp-1221198,0,4.0
KLi2AlSi4(O5F)2,0.8465,-2.310591513895833,mp-735824,0,1.0
Ce(PrS2)2,0.0,-2.321770512261896,mp-1226961,0,0.0
LiLa5Si4N10O,2.393399999999999,-1.69411446015873,mp-1222517,0,3.0
WAu3,0.0,0.5145121075000031,mp-1187758,0,0.0
Na3BS3,2.5824000000000003,-1.15523431368637,mp-29976,0,4.0
Na3LuBr6,4.5111,-1.999619794080456,mp-1210441,0,7.0
SrCaO3,0.0,-2.177782510999999,mp-978842,0,0.0
NaSrNb2O6,0.0,-3.031476777137931,mp-1220869,0,0.0
Er(Mg4Al3)4,0.0,-0.052536478965516,mp-1184190,0,0.0
V6SiC,0.0,-0.093959728124998,mp-1216452,0,0.0
Sm(BIr)2,0.0,-0.741381615666671,mp-1079428,0,0.0
Y4SiS3,0.0,-1.980860350429688,mp-677445,0,0.0
Ti2Zn3O7,2.2433,-2.557326850555554,mp-1324916,0,3.0
Mn2VN3,0.0,-0.577328252744254,mp-1245505,0,0.0
BaSrI4,3.3457,-1.98409903,mp-754852,0,5.0
KH2CN5,4.0164,-0.344007858583334,mp-1211655,0,6.0
Na2Sc4Ta4Si5S7O48,1.8518,-2.763973147160838,mp-2716160,0,2.0
ThMn3Ni2,0.0,-0.060195355632182,mp-1217318,0,0.0
Ba3Ho(BO3)3,3.822199999999999,-3.305286329843749,mp-14384,0,6.0
Ce(CrSi)2,0.0,-0.30350441933333,mp-1207209,0,0.0
Ba6C6N12,2.256578,,,0,3.0
TbMn3,0.0,0.296371771551722,mp-1187368,0,0.0
RhC2IO2,1.7956,-0.8368771908333341,mp-630303,0,2.0
Ca2IN,2.348499999999999,-1.358238939999999,mp-28553,0,3.0
Bi2Cu2Sr2,0.0,,,0,0.0
Pr2FeSi3,0.0,-0.442129823888888,mp-1219869,0,0.0
SrPr2O4,3.3444000000000003,-3.496288963333332,mp-29605,0,5.0
Te8Mo4O28,2.591374,,,0,4.0
Nb13AgO33,1.79,-2.653369768164892,mp-1210284,0,2.0
KTb(N2O7)2,1.3149,-0.987042933445833,mp-1181143,0,2.0
Pb4V4O12Cl4,2.283275,,,0,3.0
TiZnCu2,0.0,-0.166646768333333,mp-865930,0,0.0
NaSbNO4F3,0.2345,-1.528656360137931,mp-1200283,0,0.0
Cs2IrCl5O,0.9333999999999992,-1.570417891590038,mp-1189428,0,1.0
Zn4O8,2.76964,,,0,4.0
NiP2,0.0,-0.407918691150792,mp-22619,0,0.0
V6CoRh,0.0,-0.239371997499999,mp-1216457,0,0.0
Nd3I,0.0,-0.233259760624999,mp-976581,0,0.0
NbAlFe,0.0,-0.317843516666666,mp-1220549,0,0.0
NdAl4Co,0.0,-0.5162427445833321,mp-12896,0,0.0
Sr5U5O18,0.0057,-3.727729963214284,mp-675076,0,0.0
Zn3(GaS3)2,0.0,-0.7831617248457741,mp-1096788,0,0.0
BaSrLa4O8,3.1952,-3.579481161071429,mp-1227776,0,5.0
BaSe3,0.926,-1.391277738007811,mp-7548,0,1.0
Na4Ca3SnP2(SO6)4,1.7483,-2.47991912438078,mp-2713358,0,2.0
Ti(BiO3)2,0.0,-1.842582277037038,mp-1397541,0,0.0
Cs2HgSbF6,0.0,-2.513057586181035,mp-1112957,0,0.0
Pr3Ge13Pt4,0.0,-0.519063692249999,mp-1195347,0,0.0
Tl2PdCl4,1.0534,-1.177903445238097,mp-29889,0,1.0
Mg2TiNb2O8,0.0,-3.02203833025641,mp-1048076,0,0.0
PbCClO2,2.9227,-1.58720106,mp-552056,0,4.0
Nd8Ga3Co,0.0,-0.324812498958332,mp-1192259,0,0.0
PrBi3(Ru2O7)2,0.060899999999999,-1.785618239166667,mp-1219692,0,0.0
LaEuPt2,0.0,-1.013020110000001,mp-1185181,0,0.0
VGePt,0.0,-0.129194331666666,mp-961674,0,0.0
RbYO3,0.0,-2.258841818500001,mp-975173,0,0.0
PmH,0.0,-0.488602570625001,mp-863656,0,0.0
NdMgPd,0.0,-0.642530406388887,mp-1205891,0,0.0
Lu2B4O9,5.780299999999999,-3.282634584,mp-772781,0,7.0