formula,bg,formation_energy,mp-id,fidelity,bg_category
Pr2MgIn,0.0,-0.309022076250001,mp-1186729,0,0.0
Na2TiH4O5,0.2417,-1.860858989257663,mp-1191567,0,0.0
Dy(CrFe5)2,0.0,0.004762961410257,mp-1225683,0,0.0
ThSnRh,0.0,-0.926533066111114,mp-1095053,0,0.0
Ba2AlCu3O7,0.0,-1.859185651153846,mp-1048073,0,0.0
Ru3F,0.0,0.265428729166661,mp-1186909,0,0.0
SrZnCl4,4.3014,-2.02666814,mp-23034,0,6.0
Sr3RuN3,0.0,-0.7226307673214291,mp-1029750,0,0.0
Cd(AgI2)2,1.7741,-0.6328093847619031,mp-1025377,0,2.0
Cs4GeO4,2.895499999999999,-1.856568144568966,mp-779716,0,4.0
Nb3Se5Cl7,1.0202,-1.119994935520835,mp-540615,0,1.0
Na2Mg3Zn2(Si2O5)6,4.1812,-3.07096433903589,mp-1221527,0,6.0
Cu2Fe1Sn1Se4,0.056594,,,0,0.0
Dy4GaSbS9,2.0092,-1.8360287627777752,mp-1196712,0,3.0
Na2YC(OF)3,5.4017,-3.050273570025862,mp-559833,0,7.0
Pb8S2O16H4,2.687704,,,0,4.0
KTa3(TeO6)2,2.9431000000000003,-2.681342558337963,mp-1200554,0,4.0
U8MnS17,0.0,-1.6728008071319511,mp-1192848,0,0.0
TiFeAs,0.0,-0.669403793611113,mp-1095148,0,0.0
LaU3,0.0,0.5598043825000041,mp-1185171,0,0.0
B10H13Cl,3.6163,-0.254496649392361,mp-1195877,0,5.0
Rb2U5(PO7)4,0.121,-2.961647804963368,mp-867996,0,0.0
Pb8O12,0.98513,,,0,1.0
Hf2BeRe,0.0,3.984166448125,mp-1096396,0,0.0
SiTc4,0.0,0.140239927499999,mp-1219219,0,0.0
PCl5,1.7516,-0.650811190079366,mp-569410,0,2.0
Cu11PdN4,0.0,0.23217075348214,mp-1105864,0,0.0
MgZn3Cu2H14(SO9)2,1.135,-1.4719308331875,mp-1235006,0,1.0
Ba4S12Cu16,0.8477640000000001,,,0,1.0
Cu(Cl2O)2,0.0,0.210846468571428,mp-1213144,0,0.0
Sr3Ta3N5,0.0,-1.057060015022727,mp-1245946,0,0.0
Na10La4In4Si5S7O48,2.6951,-2.502786986191792,mp-2715011,0,4.0
Yb(ZnGa)2,0.0,-0.460732865000002,mp-1206522,0,0.0
Sr4CaYGa2(Cu2O7)2,0.0,-2.390712942884614,mp-1218546,0,0.0
Al2OsRh,0.0,-0.8597437825,mp-1183136,0,0.0
KH5C3N2O5,3.1387,-1.1844258567812491,mp-1203680,0,5.0
Sr3AlN3,0.4973,-0.9911259657142892,mp-1246311,0,0.0
Na6ScNb3(SiO4)6,2.641,-3.00329830866523,mp-2715327,0,4.0
Sr3(AlAs2)2,1.1456,-1.154644779999999,mp-1189305,0,1.0
Ti6Zn2C,0.0,0.670803547222222,mp-1217252,0,0.0
MgAlNF6,2.9224,-2.692343139444444,mp-1222157,0,4.0
Sm2NiB10,0.0,-0.529480403205126,mp-1208882,0,0.0
PrP2H2CO6,0.020199999999999,-2.143771518204365,mp-1190971,0,0.0
EuAlF5,0.7047999999999991,-3.971933438482144,mp-1202507,0,1.0
Al(MoS2)4,0.1104,-0.93897091767949,mp-554868,0,0.0
Pr3NbSb5,0.0,-0.996034558888886,mp-1209745,0,0.0
K2Hg3(GeS4)2,1.552099999999999,-0.793643768133335,mp-17792,0,2.0
KPt,0.0,0.250319469124999,mp-1185153,0,0.0
Sr2Bi2O4I2,2.861026,,,0,4.0
As1Cu3Se4,0.0,,,0,0.0
CdH2SO5,3.4934,-1.65218316861111,mp-1194602,0,5.0
H18O12Se4Sn1Sr2,0.588534,,,0,0.0
Nd2Mn3FeSi4,0.0,-0.555944458879309,mp-1220287,0,0.0
K3BN2,1.5863,-0.532952924736111,mp-1029756,0,2.0
Te6RhI3,1.0601,-0.345438092499999,mp-1205361,0,1.0
UNi2,0.0,-0.246478774166658,mp-17023,0,0.0
Sn1Tl2Cl6,2.395911,,,0,3.0
TaIn3Se4,1.821799999999999,-0.606074554197913,mp-1120727,0,2.0
Li31Zr2As13,0.0,-0.612464452844202,mp-34355,0,0.0
Cs3HoCl6,5.1094,-2.527698744896551,mp-1214360,0,7.0
NdH2C2Cl2O9,0.8022,-1.3923315196875,mp-1197929,0,1.0
Mg2TlHg,0.0,1.003979896041663,mp-1096533,0,0.0
Ge(BrF5)2,2.9063,-1.813037871153854,mp-27218,0,4.0
Mg3(HO3)2,2.2049,-1.802669275227273,mp-37315,0,3.0
Nb5Ge3B,0.0,-0.5639284860185201,mp-1105818,0,0.0
Dy3Hg,0.0,-0.196670595625001,mp-1184059,0,0.0
Tl4Te3Mo,0.0,-0.062771848541669,mp-35138,0,0.0
TbAgSe2,0.468099999999999,-1.400293207005207,mp-979271,0,0.0
LuCoB4,0.0,-0.6302139213888881,mp-1210846,0,0.0
PuPt,0.0,-0.550982481874992,mp-1065793,0,0.0
La3RuO7,0.0,-3.154186080454543,mp-3222,0,0.0
Re4Ge7,0.6991,0.040247733409097,mp-1201064,0,1.0
Na3In2Ge2P5SO24,0.5778000000000001,-2.384736727608619,mp-2715980,0,0.0
NdEr3,0.0,0.011750423125,mp-1186305,0,0.0
Bi3As,0.0,0.276770030000001,mp-1183505,0,0.0
Ta2Al,0.0,-0.295702173888889,mp-1193531,0,0.0
Cs2BaCl4,4.9334,-2.516765029187193,mp-1229192,0,7.0
Na2Nb4O11,2.661299999999999,-2.910097219868153,mp-1202153,0,4.0
Mg6NbCd,0.0,0.149414555,mp-1016606,0,0.0
MnBe2Ru,0.0,-0.225344529482758,mp-1185985,0,0.0
LiCuP4O11,0.3436,-2.309414955553221,mp-780764,0,0.0
LuMnGe2,0.0,-0.509471069899425,mp-28516,0,0.0
Na2Mg2Zr2SiS5O24,2.2587,-2.533332828618296,mp-2715735,0,3.0
Dy4InRh,0.0,-0.541577346388884,mp-571230,0,0.0
Pr2Te3,0.9258999999999992,-1.7168151456666692,mp-32581,0,1.0
CdIn2SnAu2,0.0,-0.248311259999998,mp-1226759,0,0.0
Fe6O8,0.0,,,0,0.0
Ho2AgSb3,0.106599999999999,2.212114391388891,mp-1207314,0,0.0
Na2GaAgI6,0.0,-0.7563067011925281,mp-1111188,0,0.0
Ti2Co,0.0,-0.204600972361111,mp-1191331,0,0.0
Cs2Fe2S4O16,2.15189,,,0,3.0
Hf6Al16Ir7,0.0,-0.8190861031034481,mp-1212464,0,0.0
K6Si2S6O,3.1497,-1.582541440566664,mp-555596,0,5.0
Lu5Zr3(Ni4As3)4,0.0,-0.796999818148149,mp-1196994,0,0.0
SnPO3F,3.6834,-2.502231003273809,mp-555838,0,5.0
Sm2MgS4,1.382099999999999,-2.132411396964285,mp-1232090,0,2.0
Na2Nd2PtO6,2.1448,-2.5020311702507843,mp-1221329,0,3.0
Na5TiGa3(PO4)6,2.2374,-2.658803198391121,mp-2716381,0,3.0
Na2MgSiO4,3.7488,-2.7987684303448273,mp-6406,0,5.0
Li2AlHgF6,0.0,-2.647429631472228,mp-1111352,0,0.0
NbTcMo2,0.0,4.283468302499997,mp-1095939,0,0.0
Ba2GaBiTe5,1.065199999999999,-1.188787954537037,mp-1202829,0,1.0
PrHg3,0.0,-0.463145012291668,mp-861487,0,0.0
HfCuP,0.0,-0.063840678214284,mp-569933,0,0.0
Li2ErTl,0.0,-0.208945395000001,mp-865573,0,0.0
Na2La2Nb6Si7S5O48,1.9397,-2.777830214717982,mp-2715785,0,3.0
Cd2O14C4H12,3.56574,,,0,5.0
PrCo5,0.0,0.022624767300295,mp-2837,0,0.0
PrH(SeO3)2,3.529699999999999,-1.978059625760416,mp-733581,0,5.0
CeBiPd,0.0,-1.028045071666667,mp-604453,0,0.0
Cs2PrAgF6,3.2577,-3.144332087264368,mp-1113230,0,5.0
Mg14ZnFe,0.0,0.128522576875,mp-1027981,0,0.0
Mg14AlZnO16,0.0,-2.8970391328125,mp-1036610,0,0.0
NaLaHfSnO6,2.6241000000000003,-3.021612577137931,mp-1521559,0,4.0
Tl2Se3,0.8149999999999991,-0.261407308437497,mp-1080677,0,1.0
Nb5GaSn2,0.0,-0.308594486874998,mp-17230,0,0.0
NdP5,0.0,-0.6451083537301581,mp-7332,0,0.0
CeZn4Ni,0.0,-0.307807229999996,mp-1226482,0,0.0
HfReSi,0.0,-0.7654363352777771,mp-1079831,0,0.0
Bi12RuO20,0.7278,-1.57260870909091,mp-1214239,0,1.0
Sm2(PPt2)3,0.0,-0.989561086720778,mp-570141,0,0.0
Sc2CoPt,0.0,-0.793826804999998,mp-1186939,0,0.0
Sn5(GeN3)2,0.5625,0.111753444615382,mp-1246768,0,0.0
Co(H3Br)2,0.0338,-0.074418701388888,mp-1213803,0,0.0
LiMgPb2,0.0,-0.168886152083332,mp-1185374,0,0.0
Ba2MgNb6(NO7)2,0.0,-2.790469027399999,mp-1233478,0,0.0
Tb14(PbSe8)3,1.821199999999999,-1.91205519535569,mp-676110,0,2.0
Ba2Sb,0.0,-0.924349306666666,mp-9908,0,0.0
Na3SbBr6,2.5372,-1.346438406413793,mp-1111701,0,4.0
Ba10Ta4Cl4O18,3.527046999999999,,,0,5.0
CuPS2,0.0,-0.061144175874023,mp-1225675,0,0.0
LiBi4B3O11,3.5918,-2.158150576096492,mp-768774,0,5.0
Na4Ta2Si5Ge2SO24,2.949,-2.744531405289928,mp-2715053,0,4.0
LaGaSi,0.0,-0.814376208333333,mp-1222823,0,0.0
Na2CaSi2Sn3(SO6)4,0.345699999999999,-2.240382698085888,mp-2712819,0,0.0
Hf6Zr4Ta8Ti3(NbB9)6,0.0,-0.875028082761314,mp-2646956,0,0.0
Na4In2Si(PO6)2,3.1895,-2.527965774673157,mp-2714510,0,5.0
FeCoH18(NCl)6,0.8328,-0.736306239062499,mp-24447,0,1.0
TmInPt,0.0,-1.139411601111116,mp-20103,0,0.0
BaRe2H2O9,3.9278999999999993,-2.255222034642858,mp-695984,0,6.0
KNb5Pb2O15,1.907499999999999,-2.770796058793478,mp-1223583,0,3.0
H2C3N2O3,2.7327,-0.9194816509999992,mp-1212515,0,4.0
YbDyS3,0.0,-2.3461414616875,mp-1215722,0,0.0
Sc8Rh8O24,1.245293,,,0,1.0
RbAl11O17,4.7302,-3.3769185659482472,mp-766387,0,7.0
Tb7O12,0.0,-3.609492971403508,mp-22083,0,0.0
Fe1Ti4P6O24,2.189745,,,0,3.0
K2ScAgCl6,3.248,-1.9393501924166652,mp-1112448,0,5.0
As2B12,2.649788,,,0,4.0
Eu2(SbPd)3,0.0561,1.122912766249999,mp-1213420,0,0.0
MnSe,0.0,-0.949901936772628,mp-999540,0,0.0
Ti24Pb19,0.0,-0.068677405116278,mp-1217869,0,0.0
RbAl(H2N)4,2.6557,-0.599466153750009,mp-1193778,0,4.0
In3Au7,0.0,-0.171849140757573,mp-567550,0,0.0
Ta2H4O7,3.1332,-2.350788297282051,mp-625957,0,4.0
Pb4Sn4S12,0.97115,,,0,1.0
Ta8Cu4O24,0.602652,,,0,0.0
K3Rh,0.0,0.5385528427499999,mp-1180789,0,0.0
RbCuS3,0.0,-0.418439149999999,mp-1219609,0,0.0
Th(GeIr)2,0.0,-0.9111452229999992,mp-1079959,0,0.0
Zn2SbN3,0.1737,-0.012024489479164,mp-1029334,0,0.0
Pr3GePO9,4.7801,-3.331268122653062,mp-14328,0,7.0
TiSb3(PO4)6,0.0,-2.485233960035013,mp-774803,0,0.0
Ba20Cd4Hg99,0.1421,-0.299961595914639,mp-1197757,0,0.0
Na6Ca5TaP3(SO6)6,3.0194,-2.605362145342768,mp-2713506,0,4.0
Ba2Ag4Hg4O8,1.210807,,,0,1.0
Ba8Ga4Mn2S12F8,2.891472,,,0,4.0
RbZr6CI14,0.0,-1.26650264125,mp-1209204,0,0.0
KBaB(PO4)2,5.302799999999999,-2.96434354082326,mp-1223526,0,7.0
Y(AlSi)2,0.0,-0.413991692,mp-10435,0,0.0
Cs2GeSe3,1.6551999999999991,-1.132241111056933,mp-1102254,0,2.0
SrEu,0.0,0.0200322775,mp-1187259,0,0.0
Ca5Mg,0.0,-0.001449810833333,mp-1039086,0,0.0
Ga2(Ni7B2)3,0.0,-0.303814563793102,mp-1193255,0,0.0
Be4SiNi,0.0,-0.115919073333332,mp-1227282,0,0.0
Cs1Sr2Ta3O10,1.979686,,,0,3.0
BeSiRu2,0.0,-0.5546445212500011,mp-867835,0,0.0
Ag8S4,1.00349,,,0,1.0
Gd3Cu2Te7,0.0,-1.047972823333334,mp-1226688,0,0.0
TbInGe2O7,2.7325,-2.554677998030302,mp-1217549,0,4.0
Ba5Al2In2IrClO13,0.0,-2.699298291388888,mp-559534,0,0.0
Na6Mg2Zr2Si3(SO8)3,1.81,-2.66731887860273,mp-2716268,0,2.0
Y2TiO5,3.279299999999999,-3.848928632604167,mp-17559,0,5.0
Rb4Se12B4,1.492367,,,0,2.0
TiCoSi,0.0,-0.7580421472222221,mp-21306,0,0.0
U2Cu3NiGe4,0.0,-0.236289624999998,mp-1216803,0,0.0
Ca4Fe4Ge8O24,1.152644,,,0,1.0
Zr2Se,0.0,-1.062496986909723,mp-22642,0,0.0
BaMg14Ga,0.0,0.06070888703125,mp-1026578,0,0.0
Dy11(Ni10C)6,0.0,-0.272731268679652,mp-1202044,0,0.0
CuHg3As2Br3,0.2734,-0.437561295833335,mp-571268,0,0.0
Ba8Zn4Te12,1.312657999999999,,,0,2.0
Ti2MnCo,0.0,-0.378944631149426,mp-863690,0,0.0
K2ErTi(PO4)3,2.5650999999999993,-3.096632968908521,mp-677014,0,4.0
Ag2S(NO)4,0.0,-0.256663681439394,mp-1192523,0,0.0
C4,3.35301,,,0,5.0
Ba2Ti2AlF11,0.3585,-3.658886314062499,mp-1044573,0,0.0
TiGe2,0.0,-0.392877595555556,mp-567889,0,0.0
Ho5S7,0.0,-2.369066010390623,mp-1102510,0,0.0
PrMg3Ni8,0.0,-0.236953539722221,mp-1219993,0,0.0
KNiN,0.212699999999999,-0.066383326583333,mp-1245791,0,0.0
KPr9(Si3O13)2,4.4388,-3.61371499767262,mp-1223421,0,7.0
Ca3Zn,0.0,-0.119407757499999,mp-30485,0,0.0
Hf2CoRe,0.0,-0.403520345624997,mp-864877,0,0.0
Sc2Pt2O7,1.7836999999999992,-2.355756619090907,mp-778152,0,2.0
Ir2(Se3Br2)3,1.519299999999999,-0.6796020390349271,mp-1195597,0,2.0
Cd3H18S4N2O21,3.6991,-1.417398167656249,mp-1202482,0,5.0
LiLa4CuO8,0.7702,-3.167302960238095,mp-21496,0,1.0
Tm(Al5Re)2,0.0,-0.345862022692309,mp-1208145,0,0.0
Ba3NaSbO6,2.8068,-2.648861400579937,mp-1190024,0,4.0
RbGa3(P3O10)2,4.5915,-2.6040896172619052,mp-560761,0,7.0
SnGe4Te4Se,0.6132999999999991,-0.38636515540104,mp-1218953,0,0.0
Na2Mg5Ge3(SO4)12,1.1793,-2.095494843229885,mp-2714636,0,1.0
Ti2Cu(PO4)3,0.5627,-2.805604998088624,mp-772797,0,0.0
TiBe2,0.0,-0.193782676111111,mp-2749,0,0.0
BiPd6Se,0.0,-0.159492154500885,mp-1227421,0,0.0
Pu(SiAu)2,0.0,-0.136850561083338,mp-541381,0,0.0
MgCoS2,0.0,-0.811844725,mp-2227450,0,0.0
EuAl3Cu2,0.0,-0.37079765416667,mp-1025136,0,0.0
Nd2Mg,0.0,-0.048576671666666,mp-976425,0,0.0
Er2Re3Si5,0.0,-0.551159938499998,mp-1204807,0,0.0
NdZnSn,0.0,-0.6437857999999991,mp-20201,0,0.0
YbPrCd2,0.0,-0.355002301666665,mp-980044,0,0.0
CsAcTe2,0.8775000000000001,-1.466690679375005,mp-863760,0,1.0
Rb2InSbF6,2.231999999999999,-2.615952154166666,mp-1113930,0,3.0
Pd1S8P2K4,1.747428,,,0,2.0
Dy4Zn5Ge6,0.0,-0.549259530777776,mp-1194035,0,0.0
Er3Np,0.0,0.349597347812498,mp-1184205,0,0.0
Rb2Pt1C2,1.093109,,,0,1.0
La3(GaNi2)2,0.0,-0.5040645611111101,mp-573548,0,0.0
MgSb2(PO5)2,2.2659,-2.372765404285715,mp-2228722,0,3.0
Na4Ta2Zn2Si3(SO8)3,1.1923,-2.451421514982911,mp-2713702,0,1.0
Tm2Pd2O5,0.0,-2.016748981666669,mp-1187634,0,0.0
W3Si6,0.046299,,,0,0.0
ErMn2,0.0,-0.129300379932949,mp-11855,0,0.0
Eu5Sb3,0.0,-1.073759988125001,mp-1105949,0,0.0
Cs2Sr2Li3B3(PO4)6,5.6206,-2.901800295804187,mp-1019609,0,7.0
KMg3Cu(AsO4)3,0.7082,-2.191541717487498,mp-1211416,0,1.0
Ho3(GeRh)2,0.0,-0.924043567499997,mp-1212370,0,0.0
Na5Ho4Si4O16F,4.7593,-3.3219412910632142,mp-1192403,0,7.0
Tl2Ru2O7,0.0,-1.304436474696969,mp-22094,0,0.0
AlH18C6N2Cl3,5.384399999999999,-0.449573012416666,mp-1197837,0,7.0
Cu2Cr4O8,0.754365,,,0,1.0
PmNdRu2,0.0,-0.101992264374999,mp-1186615,0,0.0
Eu(MgSb)2,0.0,-0.798328447000001,mp-582736,0,0.0
Sm3I,0.0,-0.193460655,mp-978798,0,0.0
LiCa2Ge3,0.0,-0.5708681451388891,mp-504670,0,0.0
AgSbSe2,0.0,-0.211895628281251,mp-1229000,0,0.0
BaMg6NbO8,1.3262,-2.429590070625,mp-1033386,0,2.0
Nb2VTc,0.0,4.077603012499999,mp-1093858,0,0.0
Mn2Cr3GaS8,0.0,-0.9537309002401472,mp-1221909,0,0.0
Ba2U2O7,0.5051,-3.681598229999999,mp-583034,0,0.0
Sm4Cl6O,0.0,-2.357926266363637,mp-28544,0,0.0
Cs2HgI4,2.0411,-1.261049519544335,mp-28421,0,3.0
CeAu3,0.0,-0.583065826249996,mp-865572,0,0.0
TmThRu2,0.0,-0.479417117499997,mp-980648,0,0.0
HoTi2ZnO6,0.0,-3.195797315666667,mp-1049276,0,0.0
USnRh2,0.0,-0.535804289374998,mp-1207880,0,0.0
Na3In(PO4)2,3.267699999999999,-2.547104268577879,mp-6017,0,5.0
GdZnAsO,0.6654999999999991,-1.983100411874999,mp-1078542,0,1.0
Na6Y3NbSi2(PO6)4,2.5572,-3.036156545921182,mp-2715451,0,4.0
Fe3Ni3P2,0.0,-0.387595917410713,mp-1224865,0,0.0
BaEr4Si5O17,4.782,-3.651867641851852,mp-1195598,0,7.0
Sr2Zn1Mo1O6,2.065286,,,0,3.0
SrZrS3,0.551199999999999,-2.084204747999996,mp-558760,0,0.0
SrBr2,4.498,-2.505356606166666,mp-32711,0,7.0
Eu2MgTi2(ClO3)2,0.250399999999999,-3.172647440128206,mp-2224836,0,0.0
TcGe3,0.0,0.269510168125002,mp-972077,0,0.0
TaB4W3,0.0,-0.480220977166666,mp-1217974,0,0.0
Pr3SnC,0.0,1.422657074999997,mp-20543,0,0.0
Na5TiIn3(PO4)6,2.0686,-2.626674907557787,mp-2713515,0,3.0
Nd2GaCo2,0.0,-0.270398000499999,mp-1206412,0,0.0
SnPClO2,2.641899999999999,-1.70959967742857,mp-725947,0,4.0
Pm3Dy,0.0,0.021592566874996,mp-1186504,0,0.0
Sr2La14Mg4Ga12O43,0.0,-3.016481736866668,mp-1173283,0,0.0
Ta2Te2O9,3.2261,-2.497068913692307,mp-3180,0,5.0
YCoSn,0.0,-0.472232714999999,mp-1095491,0,0.0
Zn2PtRh,0.0,-0.512522459999997,mp-977427,0,0.0
LiYb2Hg,0.0,-0.29092479854167,mp-864781,0,0.0
Y4Li4F16,7.926802,,,0,7.0
Dy2ReC2,0.0,-0.413789640666665,mp-1188135,0,0.0
Li2CrS4,0.0,-1.048362303809522,mp-753833,0,0.0
RbHg3,0.0,-0.212489786250008,mp-975170,0,0.0
TlAgI2,1.5659,-0.634143947500001,mp-27801,0,2.0
TbHg2,0.0,-0.488418365416663,mp-1206728,0,0.0
Pr5AgSn3,0.0,-0.632313126111112,mp-1209345,0,0.0
Sn2PbSe3,0.006,-0.494126072864583,mp-1219016,0,0.0
ScMoN3,1.2502,-0.9372712835000012,mp-1246879,0,1.0
YTl5Cu2(NO2)12,0.0,-0.803201384356062,mp-21963,0,0.0
Pr2S3,0.7775000000000001,-2.365342227854165,mp-15179,0,1.0
KCuP2Se5,1.291099999999999,-0.6130262503616061,mp-622199,0,2.0
SrCaEuSbO6,0.0,-2.8224710715,mp-1518710,0,0.0
LiMnSb,0.0,-0.280968351149425,mp-1018786,0,0.0
Dy2CO5,4.4556,-3.259751936666667,mp-1225362,0,7.0
TiAlV2,0.0,-0.102252381666666,mp-1217032,0,0.0
Na3Y(CO4)3,0.0,-1.54331919837568,mp-1212703,0,0.0
Eu(In2Au)2,0.0,-0.409964821309523,mp-1192981,0,0.0
Mg3BiSb,0.1607,-0.296550967,mp-2647001,0,0.0
HfNb2VC4,0.0,-0.641185272881944,mp-1224360,0,0.0
In4Rb8Na12O16,1.905893,,,0,3.0
Ba2Sm2Ti2Cu2O11,0.0,-3.026394965877192,mp-1214615,0,0.0
Cs4K4Cd6O10,1.256404,,,0,2.0
Na2Hf8Si5S7O48,3.0906,-2.9111455087894083,mp-2716151,0,4.0
AgH12N4F,3.4709,-0.569223980648148,mp-1203884,0,5.0
LiTb(CuP)2,0.0,-0.912795412103174,mp-8220,0,0.0
V2P2O8F2Li2,1.747279,,,0,2.0
SmRe2,0.0,-0.113328665833336,mp-1102035,0,0.0
Ti2NiSe4,0.0,-1.202804020863095,mp-1025281,0,0.0
SmGdZn2,0.0,-0.344378553749997,mp-1187041,0,0.0
NaRuN,0.4093,-0.072202157126437,mp-1029313,0,0.0
LuB4,0.0,-0.620318216833331,mp-571495,0,0.0
Ho8(AlGe3)3,0.0,-0.722412820749998,mp-1224112,0,0.0
Tm3C4,0.0,-0.5446521288571401,mp-1205180,0,0.0
NdCuS2,1.0776,-1.602238972656248,mp-10495,0,1.0
Ti5Re24,0.0,-0.262113010459768,mp-518,0,0.0
NaP2PtO9,0.0,-1.674632240243464,mp-1205174,0,0.0
UCo5Sn,0.0,-0.069467127499998,mp-642894,0,0.0
RuCl(OF3)2,0.562,-1.5419199315,mp-556834,0,0.0
Al2CoTc,0.0108,2.685363373333334,mp-1093958,0,0.0
NaH9Rh2C5O12,1.705899999999999,-1.213401652676872,mp-1201841,0,2.0
Li9Al4,0.0,-0.168604108461538,mp-568404,0,0.0
Hf6Cr5Si7,0.0,-0.601628901527776,mp-14504,0,0.0
SnH4C2NO4F,2.6803,-1.333720848461537,mp-561270,0,4.0
Nb6Cl30,2.125477,,,0,3.0
Sr3Ir3N5,0.0,-0.275731470492437,mp-1245587,0,0.0
Co2PbN2,0.0,0.260378672000001,mp-1247409,0,0.0
Ba3Cu2(ClO2)2,0.1749,-2.247765554545455,mp-559757,0,0.0
Ba5P4,0.9422,-1.010274563730141,mp-1105231,0,1.0
Na8Cu8F24,2.138122,,,0,3.0
Te12Fe10Cl4O36,0.077827,,,0,0.0
RbMg6Nb,0.0,0.380558766562499,mp-1017173,0,0.0
Ag4Sr2V8O24,1.961104,,,0,3.0
Mg6TiNi,0.0,0.107316442083333,mp-1021904,0,0.0
NbCoTe2,0.0,-0.582735417708335,mp-571471,0,0.0
Cs5Nb2S4Cl9,1.7925,-1.881543902413791,mp-621112,0,2.0
Ce2Ge5Ir3,0.0,-0.745780766499999,mp-1188091,0,0.0
Hg6Se8Rb4,1.079973,,,0,1.0
PuAl2,0.0,-0.522911192916666,mp-21416,0,0.0
Mg5H8O9,3.5669,-2.09649716909091,mp-697921,0,5.0
Ti4P6PbO24,2.7893,-2.9754567806054433,mp-554218,0,4.0
Rb3Pm,0.0,0.6119894599999991,mp-1186864,0,0.0
NpF4,0.0,-4.010959970083332,mp-504787,0,0.0
Th2Ge,0.0,-0.6408838399999961,mp-16370,0,0.0
PtPbF6,1.971099999999999,-1.9420238949999984,mp-20458,0,3.0
Sr14Hg51,0.0,-0.351207155807697,mp-1218949,0,0.0
Ba10Cu5O17,0.0,-2.212478942968749,mp-766417,0,0.0
TeAs(SeF3)2,1.7121,-1.8999764728229172,mp-651161,0,2.0
LiZn3,0.0,-0.164604937916667,mp-865907,0,0.0
Zr(Ni2As)2,0.0,-0.546468843571429,mp-1104853,0,0.0
Sc2AlZn,0.0,-0.424913742499999,mp-862548,0,0.0
LiSmS2,1.9482,-2.053430080833333,mp-1222296,0,3.0
Na2Ca2Hf2SiS5O24,2.8211,-2.626513211581259,mp-2714353,0,4.0
Na3(FeSe2)2,0.0,-0.763428980390324,mp-505443,0,0.0
AlH18C3(N3F2)3,5.3705,-1.073924155101351,mp-24554,0,7.0
Ir(Br3O)2,0.0,0.6403275899999991,mp-1079118,0,0.0
EuTa3O9,0.0,-3.350895101307694,mp-1225272,0,0.0
TcC5IO5,2.2829,-1.014380561250001,mp-1190985,0,3.0
Ta3Si,0.0,-0.469426434250003,mp-568646,0,0.0
Ni4Sb8O16,2.038848,,,0,3.0
CsZr6BI14,0.8390999999999991,-1.292994896764629,mp-571410,0,1.0
Ca4As3H9O16,3.9317,-2.069565690429687,mp-1199574,0,6.0
MgCdH4(N2O5)2,2.5957,-1.129555336499999,mp-722714,0,4.0
Sr3TaGa3(SiO7)2,3.8537999999999992,-3.098988449992753,mp-16136,0,6.0
Rb3Ag6Sb3S12,0.594662,,,0,0.0
HoP2H7O10,0.065599999999999,-1.817841238776785,mp-1203894,0,0.0
K3AlP2,0.9707999999999992,-0.6229684774503971,mp-541684,0,1.0
PIrS,1.8489,-0.8595514077628931,mp-1220004,0,2.0
MgSnN2,1.0648,-0.5252638456250001,mp-1029791,0,1.0
HoGa3Ru,0.0,-0.5832111921666661,mp-1104547,0,0.0
Na2CrCl4,0.0,-1.667486751428574,mp-28716,0,0.0
Nb6CdS8,0.0,-1.261373705333332,mp-1220444,0,0.0
ZnGeO3,2.1201,-1.966392216999999,mp-8285,0,3.0
CeTl3,0.0,-0.325969957500007,mp-20603,0,0.0
Nd2H5,0.0,-0.692367744821429,mp-1104060,0,0.0
AlIn(CuS2)2,0.7319999999999991,-0.7876838114062531,mp-1229077,0,1.0
LiAs4(PO4)4,0.052399999999999,-2.09796646967619,mp-1236232,0,0.0
HI(ClO)4,0.01,-0.097529657624999,mp-1212600,0,0.0
Mn2Li2O8,1.458604,,,0,2.0
Ta5Sb4,0.0,-0.192132802962962,mp-2598,0,0.0
Tl8Te8O20,2.641079,,,0,4.0
Rb2CuAuF6,0.0,-2.125885313499999,mp-1111034,0,0.0
U2ReB6,0.0,-0.566040955555553,mp-1202234,0,0.0
Sm2I2F,0.0,-1.174543135,mp-1207240,0,0.0
Zr2Si4Ni3,0.0,-0.761251374444443,mp-1189144,0,0.0
K3NaP2H8O11,4.5369,-1.9752201125966,mp-1212547,0,7.0
Na42Ca20Nb4Si15(S7O48)3,1.451,-2.593170189371672,mp-2715896,0,2.0
Nb2As,0.0,-0.5234662991666661,mp-1200152,0,0.0
Sr2TbCu2(BiO4)2,0.0,-2.157861986444445,mp-1208746,0,0.0
Tm5SbPd2,0.0,-0.8597478568749991,mp-1207986,0,0.0
Cs2Au2I6,0.7323069999999999,,,0,1.0
LiMg14W,0.0,0.163620203020832,mp-1026795,0,0.0
AsN2F7,3.5121,-1.53555581085,mp-685810,0,5.0
NaPr2S2O8F3,6.1633,-2.99504651373204,mp-560673,0,7.0
YMg6Ti,0.0,0.127412078333333,mp-1022818,0,0.0
ZrScRh2,0.0,2.16937796125,mp-1095710,0,0.0
Be5Au,0.0,-0.085352155833334,mp-1220,0,0.0
KAu2,0.0,-0.345464143750002,mp-30401,0,0.0
Er2AgAu,0.0,-0.612601145416663,mp-1184110,0,0.0
KGaFe(CN)6,4.117199999999999,-0.131357898316666,mp-1223610,0,6.0
Li3Cd,0.0,-0.181382304999999,mp-975904,0,0.0
Tl4F12,0.629346,,,0,1.0
Mg(ScSe2)2,1.0918,-1.8389814006249992,mp-1001019,0,1.0
Na2Ca2(CO3)3,4.788699999999999,-2.462403052047414,mp-557391,0,7.0
Ti4S8Cl6O,1.597,-1.739123310964912,mp-558135,0,2.0
Lu(Mo3S4)2,0.0,-0.990399594611108,mp-1104347,0,0.0
Na3BiO4,0.9732,-1.7188922086422411,mp-27345,0,1.0
Dy(SiPd)2,0.0,-0.914674314333331,mp-3301,0,0.0
Th3O,0.0,-0.051427253749997,mp-979038,0,0.0