formula,bg,formation_energy,mp-id,fidelity,bg_category
Ta4InBi3O16,2.820899999999999,-2.709500348166666,mp-1218158,0,4.0
CeZn2Ni3,0.0,-0.327140151666666,mp-1226538,0,0.0
Cs2LiTlCl6,1.5236,-1.823550346597702,mp-1112999,0,2.0
LaCuPb,0.0,-0.424605114999997,mp-1025128,0,0.0
Lu5Pt3,0.0,-1.182565592291666,mp-1190342,0,0.0
Pr5Sn3Au,0.0,-0.733393084814811,mp-1209635,0,0.0
TiTe3O8,2.7479,-1.99700330111111,mp-5214,0,4.0
Ta2Te5Pd3,0.0,-0.4194446013,mp-28934,0,0.0
K3SnHF8,5.1576,-2.880980994846154,mp-696683,0,7.0
KMgSb(PO4)2,3.870999999999999,-2.553120830887362,mp-2228147,0,6.0
AcYbAg2,0.0,-0.232558955625002,mp-1183196,0,0.0
TiHg,0.0,-0.045858262083335,mp-1526,0,0.0
Mo2Li8O10,2.508937,,,0,4.0
LaZnAgP2,0.508899999999999,-0.842167952273808,mp-1222704,0,0.0
Cs2AgAsF6,2.4428,-2.433482206847701,mp-1114305,0,3.0
Na10YNb7(SiO4)12,2.7503,-3.006823506202476,mp-2713378,0,4.0
Ta6V3Ni3C2,0.0,-0.389516527785713,mp-1218112,0,0.0
ZrScP(SO6)2,3.9052,-2.76120780527311,mp-2712853,0,6.0
RbMg6C,0.0,0.389826267187499,mp-1017159,0,0.0
NbH14C4NO14,3.206,-1.425088006176471,mp-758842,0,5.0
TlCo(NCl)6,0.4377,0.7106186861904751,mp-1179462,0,0.0
Sr6YTl3(Cu2O7)3,0.0,-1.825926346621622,mp-1357400,0,0.0
KSNO3,0.0,-1.203923243708332,mp-727248,0,0.0
SrEuHfSbO6,0.0,-2.979932907500001,mp-1517552,0,0.0
Nb2S8Cu2K4,2.116821,,,0,3.0
CaTiP2O7,0.143399999999999,-2.894883685238094,mp-1041168,0,0.0
Zn3S3,2.748399,,,0,4.0
Gd3Cu3Sb4,0.3003,-0.827454231,mp-1189617,0,0.0
YbSb,0.0,-1.271971607500003,mp-1916,0,0.0
Ho5Pb4,0.0,-0.503604366111106,mp-1203932,0,0.0
CeGaPd,0.0,-0.796269040833335,mp-1102053,0,0.0
Cs2Ag2Zr1Te4,1.423772,,,0,2.0
K12P44,1.87565,,,0,2.0
Ca2AgBi,0.0,-0.728312803333341,mp-983598,0,0.0
Ag3As,0.0,0.0883969775,mp-1183193,0,0.0
Tb4Se3N2,1.3453,-2.057414417077544,mp-30291,0,2.0
AsP3(PbO8)2,1.3138,-1.425704048246752,mp-1229257,0,2.0
NaHfTi(PO4)3,2.4515,-3.128781798257846,mp-2713844,0,3.0
Te2N2O7,1.2571,-0.920158115984848,mp-1179247,0,2.0
Mg14SbMo,0.0,0.081978695,mp-1026455,0,0.0
Na4LaNb(SiO4)3,2.286699999999999,-2.927481890342091,mp-2716462,0,3.0
C8,0.101161,,,0,0.0
Tb6Ti4Al43,0.0,-0.342817325911949,mp-1208501,0,0.0
Ta2I5,0.0,-0.302886051380951,mp-32554,0,0.0
U2SbSe2,0.0,0.161618955062502,mp-1207046,0,0.0
FeWN2,0.0,-0.3876383512499999,mp-29076,0,0.0
LiHoAu2,0.0,-0.776720307916662,mp-862722,0,0.0
TmGaPt,0.0,-1.111987115833338,mp-1103049,0,0.0
Sr3Mg,0.0,0.029235729583332,mp-1094297,0,0.0
Ca3SnN,0.0,0.6716416300000001,mp-637179,0,0.0
Pr2S2F,0.0,-0.73799214679166,mp-1207260,0,0.0
Cs8Tl2Cl24Sb2,1.063134,,,0,1.0
NaMg14Co,0.0,0.128027538166837,mp-1026864,0,0.0
Ta2V3Si,0.0,-0.361400224111112,mp-1095672,0,0.0
PrC2ClO7,0.0,-1.316822979924241,mp-1197238,0,0.0
InRe4C14I3O14,1.6973,-0.97007288324074,mp-1200518,0,2.0
Dy2Ni22C3,0.0,-0.125922193086418,mp-1197710,0,0.0
Na14Si11Sn4Ge4SO48,2.8832,-2.534996811831021,mp-2714448,0,4.0
CsKAu2,2.9061999999999992,0.07546813245834,mp-1095752,0,4.0
TlCu5Se3,0.0,-0.195888933020831,mp-541923,0,0.0
Rb2B10(H5N)5,3.8973,-0.35701176637897,mp-1197795,0,6.0
Gd(Tl3Te2)3,0.497199999999999,-0.6309591306250041,mp-1188567,0,0.0
DyHo3,0.0,0.003040362500001,mp-1183844,0,0.0
Ca6Al4N8,2.545599999999999,,,0,4.0
NpH28C12(N2O3)6,0.396899999999999,-0.941161070968309,mp-1197564,0,0.0
Hg(ClO7)2,0.0,0.287179241617647,mp-1212198,0,0.0
Th3B,0.0,0.533331231093754,mp-979412,0,0.0
LiAc2Ge,0.0,-0.295858690833336,mp-862667,0,0.0
Ba4I2P14,1.719952999999999,,,0,2.0
Rb3Pr3(PS4)4,2.324899999999999,-1.390687516964284,mp-555448,0,3.0
UCoNi,0.0,-0.24582244833333,mp-1216321,0,0.0
Sn8K32O24,2.243006,,,0,3.0
Nd3PO7,4.2816,-3.630125993679653,mp-1203311,0,6.0
Cu2N5Cl8,0.0,1.063981581666669,mp-1194379,0,0.0
CaZr3P2(SO6)4,3.254699999999999,-2.722878854684874,mp-2712978,0,5.0
ZrH8C2S(OF2)2,4.5471,-1.534013529305554,mp-1215373,0,7.0
SmDyHg2,0.0,-0.572579385000004,mp-978557,0,0.0
LaSmIr2,0.0,-0.613397045000001,mp-1185061,0,0.0
Dy2MgNb2O8,0.5032000000000001,-3.240651612179486,mp-2226786,0,0.0
Au4Cs8S16P4,1.996937,,,0,3.0
Sn2Ta4O14,1.506325,,,0,2.0
BaI2O,1.7326,-1.576712530625,mp-725677,0,2.0
Gd(Ni2B)6,0.0,-0.39292668105263,mp-1204079,0,0.0
Re3S4Br,1.6485,-0.884527891874999,mp-652046,0,2.0
LiSnIr2,0.0,-0.284437219583333,mp-864768,0,0.0
PHPb2N2O9,3.34,-1.41355914472619,mp-1193857,0,5.0
Sc3InP4,1.0939,-0.924636144613092,mp-1219383,0,1.0
Ti2MnIr,0.0,-0.702065421149425,mp-865569,0,0.0
Gd3Pd2,0.0,-0.638129452999993,mp-22077,0,0.0
K4BaNb5O15,0.0,-2.93462329656,mp-1224039,0,0.0
Sc2TcAg,0.0,-0.240928231666664,mp-862379,0,0.0
Cs2GaCuCl6,0.0,-1.648100147681034,mp-1113185,0,0.0
Ca5CdN4,0.6227,-0.669710915,mp-1245643,0,0.0
SmTlO2,1.7431,-2.620571869583335,mp-755128,0,2.0
Hf9Mo4S,0.0,-0.324998799129462,mp-1194092,0,0.0
Tl4Sn,0.0,0.045918155999999,mp-1216560,0,0.0
Cs2Mn1V2O6Cl2,2.080842,,,0,3.0
CsCrI3,0.0,-1.034791208431034,mp-580597,0,0.0
PCN2Cl3,3.635099999999999,-0.643230302359693,mp-679969,0,5.0
LuSnPd,0.0,-0.955843614444442,mp-1080768,0,0.0
PrIn4Ni,0.0,-0.35505653972222,mp-1102576,0,0.0
TmAu4,0.0,-0.658681100000001,mp-1068348,0,0.0
Sr2LiLaTi4O12,1.837099999999999,-3.470441762583333,mp-1218768,0,2.0
P2H19C6I2NCl4,2.1612,-0.38076217700105,mp-567256,0,3.0
YbHoRh2,0.0,-1.022845397499995,mp-865783,0,0.0
BaCaEuBiO6,0.0,-2.580258534500001,mp-1516652,0,0.0
Gd2TlZn,0.0,-0.400997908749992,mp-1184390,0,0.0
UGa5Fe,0.0,-0.267809378214283,mp-1078098,0,0.0
TeBr6,0.0,-0.551377956666666,mp-1104734,0,0.0
Lu(ClO4)3,5.7567,-0.976230328541671,mp-29789,0,7.0
Cs2ZrO3,3.8566,-2.729279389051728,mp-8759,0,6.0
Ba4Ga22Sn,0.0,-0.214906561481481,mp-1214544,0,0.0
ZrSiO4,4.1495,-3.55875977333333,mp-4820,0,6.0
ThAlIr,0.0,-1.050253446666665,mp-1079846,0,0.0
BaBiBS4,1.931099999999999,-1.220141967738095,mp-861618,0,3.0
La4GeO8,3.8436999999999992,-3.555280567500015,mp-1211987,0,6.0
ErFeNi4,0.0,-0.258086223333331,mp-1225589,0,0.0
PmCl2,0.0,-2.184052750833333,mp-863657,0,0.0
Cs2Ni2Br2N4C4,2.726149,,,0,4.0
Ba4Sb3Li1O12,1.473653,,,0,2.0
Ba2Tl2Sb3O10,0.0,-1.804231673333334,mp-1046128,0,0.0
Gd5P12Ru19,0.0,-0.9070942389087312,mp-1199296,0,0.0
In11S16,0.0,-0.722336423518518,mp-1224223,0,0.0
MgTiSiO5,2.892599999999999,-3.266128816666667,mp-1256211,0,4.0
KNa2WN3,2.029499999999999,-0.595459795894088,mp-1223632,0,3.0
Y2Ti2SiS5O24,2.0003,-2.6135142194362753,mp-2713019,0,3.0
CsPPbO4,4.0581,-2.42757103775686,mp-1192530,0,6.0
CaAcTl2,0.0,-0.506917204375,mp-1183500,0,0.0
K2Ba(FeAs)6,0.0,-0.364114478633333,mp-1223766,0,0.0
NaTi2HO5,0.0,-2.784791423810664,mp-1079509,0,0.0
Sr8PbN6,0.0,-0.406290095722218,mp-1247458,0,0.0
MnCo2Si,0.0,-0.424367394482758,mp-4492,0,0.0
Sr3SbI3,1.479399999999999,-1.714566723571428,mp-1208807,0,2.0
Mg(AlSe2)2,1.053,-1.221501893482143,mp-9479,0,1.0
HfScTc2,0.0,-0.277731591249995,mp-1184559,0,0.0
K2S5,1.929899999999999,-0.700578589866071,mp-17146,0,3.0
BaH2C4S4N2(O3F4)3,6.1503,-1.675720262794118,mp-554761,0,7.0
K2U2O5,0.0,-2.99931104661111,mp-867366,0,0.0
La3RuBr3,0.0,-1.589775835357142,mp-1192912,0,0.0
V1K3O8C1,2.310259,,,0,3.0
Na7MgSi3Sn3(PO8)3,2.4775,-2.607018502526432,mp-2714709,0,3.0
SrMg14Ni,0.0,0.082356306875,mp-1028382,0,0.0
NaEuF4,0.374,-3.529517034396552,mp-1221406,0,0.0
BaRhO3,0.0,-1.997272270499999,mp-7685,0,0.0
Na5Mg2Ge2P5SO24,1.676699999999999,-2.516724339596859,mp-2715032,0,2.0
LiIn(MoSe)6,0.0484,-0.5555203902784901,mp-1222592,0,0.0
Tm3TlS6,0.0,0.726171173166665,mp-1207062,0,0.0
LuCuSi,0.0,-0.629427517222222,mp-8125,0,0.0
U3Ga5,0.0,-0.200138536875009,mp-669688,0,0.0
Bi12Rh3Br2,0.0,-0.319194126764708,mp-645514,0,0.0
ErB2Os,0.0,-0.606931606458331,mp-1189333,0,0.0
O16Sb8,1.859634,,,0,2.0
MgCu4(GeO4)2,0.0,-1.435304407,mp-2232124,0,0.0
K16Ga8P16,1.206801,,,0,1.0
YNbSi(SO6)2,1.593999999999999,-2.63391883382353,mp-2713406,0,2.0
U2H18C4Se3N2O17,2.307,-1.200790940370244,mp-1195410,0,3.0
PuReB2,0.0,-0.439418646463074,mp-1106002,0,0.0
AcSnHg2,0.0,-0.482384125624996,mp-1183197,0,0.0
NaAl3,0.0,0.166475473362068,mp-1186098,0,0.0
Ca5Ge3O11,3.3456,-2.910897137631578,mp-774105,0,5.0
KNa9In2O8,2.0006,-1.654022357649855,mp-553903,0,3.0
NaSrZrSbO6,3.1782,-2.831858720137931,mp-1518455,0,5.0
Cs2RhCl5O,0.9935,-1.537880129923371,mp-1105996,0,1.0
BaNpO3,0.0,-3.376933662750002,mp-8558,0,0.0
Ba(V5S8)2,0.0,-1.352422692962962,mp-1228772,0,0.0
Cu2Cr2O8,1.254456,,,0,2.0
Ce2NCl3,0.0,-2.434280765208333,mp-1101996,0,0.0
Dy11(Mn2C3)6,0.0,-0.335830017158676,mp-1213205,0,0.0
Mg3Os,0.0,0.084235210312495,mp-978290,0,0.0
BaMgTiO3,0.6172000000000001,-2.712712627222222,mp-2210610,0,0.0
In(IO3)3,3.0751,-1.049928341282051,mp-23559,0,4.0
YTa3O9,3.3272,-3.507284730538463,mp-752515,0,5.0
PmInO3,1.6185,-2.435841807833333,mp-1186597,0,2.0
Ta3Bi,0.0,0.344155489999998,mp-1187199,0,0.0
Ca2WN2,0.0,-0.8456095115000011,mp-1446433,0,0.0
CaInAu2,0.0,-0.6447403674999991,mp-861960,0,0.0
Hf2CS,0.0,-1.510628716953128,mp-13137,0,0.0
Ba3Nb2ZnO9,2.7287,-3.071309408333333,mp-7249,0,4.0
Na6La4In4Si3(S3O16)3,2.397599999999999,-2.4272730289068822,mp-2713853,0,3.0
Cs5Te3H4NCl18,2.6571,-1.484021575750834,mp-682548,0,4.0
CsU2H3(C2O7)2,2.1084,-2.234983745558548,mp-605374,0,3.0
Zn11(B4Rh9)2,0.0,-0.425707618063062,mp-1207530,0,0.0
Se(Br3N)2,0.0,0.817031646406249,mp-723017,0,0.0
EuAgHg2,0.0,-0.378902198611115,mp-1184389,0,0.0
Pr2Zn5Sn,0.0,-0.455559307291667,mp-1189436,0,0.0
La2Cu3Ni,0.0,-0.243320718333335,mp-1223291,0,0.0
Ce4GaSbS9,0.0,-1.76155875635417,mp-1195104,0,0.0
Ba3ThSe7,0.923,-1.938250703309655,mp-1095255,0,1.0
SnH2N2O3F2,0.0,-0.8403950537500001,mp-644442,0,0.0
Sb4ClO6,0.0,-1.636612156363636,mp-1209106,0,0.0
SmMg5Sb4,0.0,-0.563234456,mp-1208793,0,0.0
Ca2MgB2H16(CO9)2,4.988099999999999,-1.890078684593496,mp-707983,0,7.0
AgH11C4(SO)3,3.4618,-0.437502573428029,mp-560182,0,5.0
ScMn6GaGe5,0.0,-0.312635292698939,mp-1219367,0,0.0
Ba2Sn,0.0,-0.607812785000002,mp-1981,0,0.0
Ti(NbSe2)3,0.0,-1.259802855239583,mp-1188631,0,0.0
Cs2KTaCl6,0.0,-1.971582266389368,mp-1112693,0,0.0
CaBePO5,0.5863,-2.8933326221428572,mp-1200025,0,0.0
Cr8K8O28,2.706146,,,0,4.0
Sr(AuO4)2,0.0,-0.546673442727272,mp-1102450,0,0.0
Ag2Ge2O5,1.0401,-1.485430639074073,mp-554988,0,1.0
LuGaNi2,0.0,-0.603917634791667,mp-1210999,0,0.0
Sc2IrRh,0.0,-1.042154367499999,mp-862334,0,0.0
H7C2N7O6,2.2437,-0.386399433806819,mp-1200776,0,3.0
CsLaS2,2.5035,-2.159362920156248,mp-561586,0,3.0
Na12As4S12,2.529313,,,0,4.0
Ba2ZnReO6,0.0,-2.533858086249999,mp-549970,0,0.0
Tl(ZnSb)2,0.0,-0.031978649952384,mp-29740,0,0.0
V3Au,0.0,-0.088406430000002,mp-839,0,0.0
Dy3Mg2TiS8,0.0,-1.994577973452379,mp-1246597,0,0.0
V6C5,0.0,-0.6353447772727261,mp-28731,0,0.0
Rh1Li1O2,1.513386,,,0,2.0
Cs3UF6,0.0,-3.203069021896552,mp-1205746,0,0.0
BaLaAlO4,4.4355,-3.516998215357143,mp-16934,0,7.0
H6CN8O5,3.1104,-0.350127887875,mp-1212645,0,4.0
Cs2YAuCl6,2.2263,-1.928428167749996,mp-1112919,0,3.0
Na3IrS2N2(Cl2O5)2,0.0,-1.326293329506269,mp-1204262,0,0.0
Sn1S1,0.120442,,,0,0.0
SrCaNbInO6,3.4575,-2.871862377666666,mp-1522466,0,5.0
MgMoW3(Se3S)2,0.103199999999999,-0.85007468262019,mp-2218488,0,0.0
GdLuIr2,0.0,-0.8383990116666661,mp-1184485,0,0.0
NaFeN,0.4481,-0.192616698793103,mp-1245896,0,0.0
MnGaAsN,0.0,-0.01339474948276,mp-1221727,0,0.0
Na3TlH24(ClO2)6,2.3972,-1.156879422336332,mp-686722,0,3.0
Mg30SiBO32,0.7318,-2.873800718893228,mp-1039876,0,1.0
Sb2Pd5,0.0,-0.446073763809522,mp-569451,0,0.0
YNbP2SO12,2.394,-2.822990090693279,mp-2713357,0,3.0
Na18Ta8Zn16Si9(S3O16)9,1.553999999999999,-2.240003431423398,mp-2713831,0,2.0
ScGeIr,0.0,-0.955258894999994,mp-1102855,0,0.0
La2CoIr,0.2128,1.508110824999999,mp-1096474,0,0.0
Ba3La2Cl12,3.6567,-2.8793371073529412,mp-771914,0,5.0
Ca4ZrTi3(GeO5)4,2.8582,-3.067235874375001,mp-1227190,0,4.0
K3Sn2S3ClO12,3.9145,-2.048092998535714,mp-42091,0,6.0
GaMo4(SeS)4,0.0,-1.00324953360577,mp-1224843,0,0.0
Sr2Ti2As2OF2,0.0,-2.546133841851851,mp-1079747,0,0.0
AlCr2,0.0,0.035209829999999,mp-1699,0,0.0
Li3Te,0.0,-0.814818062916666,mp-1185280,0,0.0
Ga4Os2,0.719911,,,0,1.0
KNaZnP2O7,4.4030000000000005,-2.582073273784585,mp-554157,0,7.0
Na6Mg2Ta4Si3(PO6)6,2.764099999999999,-2.958708017288883,mp-2712562,0,4.0
Nd(SiRu)2,0.0,-0.9460035935,mp-4013,0,0.0
Li2SbPt,0.0,-0.7628624933333331,mp-3158,0,0.0
Ta3WS8,0.0,-1.305962481000001,mp-1218062,0,0.0
Gd2SiTeO4,0.0,-3.260868998020833,mp-16788,0,0.0
NbTeBr3,0.5947,-1.175170097333334,mp-28038,0,0.0
Na2La2Y2SiS5O24,3.4777,-2.710999377970147,mp-2714442,0,5.0
Tm2(Ni5B3)3,0.0,-0.424001260096153,mp-1203552,0,0.0
Na3YH6(CO4)3,5.0238,-1.9813855237655171,mp-734150,0,7.0
TlPdPb,0.0,-0.182420264999999,mp-1216566,0,0.0
NaPr2Se3,0.0,-2.007406086753472,mp-1220945,0,0.0
Tb2Co14B,0.0,-0.146637359705882,mp-1196092,0,0.0
Sm(AlZn)2,0.0,-0.434062123000002,mp-569657,0,0.0
LiMg10AlH24,3.7167,-0.271865879537037,mp-571132,0,5.0
Cs2AlAgCl6,2.4585,-1.701600587500004,mp-1113621,0,3.0
Li8N2H2,2.001422,,,0,3.0
Ni7(Mo3P2)3,0.0,-0.44818777725109,mp-1209818,0,0.0
Dy(AsO)2,0.2588,-1.418054248833332,mp-1213554,0,0.0
H3NCl,5.1807,-0.6498290347499991,mp-1200750,0,7.0
K2NaTaCl6,0.0,-1.884568399321264,mp-1112873,0,0.0
KHoO2,3.9742,-3.118591663062497,mp-754883,0,6.0
ScTlRh2,0.0,-0.5796567395833351,mp-867881,0,0.0
Sn3Ru2,0.0,-0.1499195775,mp-680677,0,0.0
KZrCuSe3,0.214399999999999,-1.343207952380207,mp-9318,0,0.0
PH6(NO)2,4.8465,-1.033073579058441,mp-706622,0,7.0
NaH12RuC4S2(Cl2O)2,0.068999999999999,-0.6080530733222811,mp-1202543,0,0.0
PrBPt4,0.0,-0.765969916805547,mp-13483,0,0.0
Na8Ca3Ti(PO4)6,1.3776,-2.860745894021229,mp-2715058,0,2.0
Rb2YTlI6,3.0376,-1.488978744833334,mp-1114164,0,4.0
HoSeI,0.0762,1.036962420885418,mp-1206872,0,0.0
Bi8Mn2S14,0.804959,,,0,1.0
Ga(MoSe2)4,0.2052,-0.875350558173076,mp-567394,0,0.0
Ho2In8Co,0.0,-0.268167588484846,mp-1095593,0,0.0
SrFe5N4,0.0,-0.098839461,mp-1247553,0,0.0
Mg16Al12Sn,0.0,-0.007051226724137,mp-1185711,0,0.0
Na10Ti4In4Si7S5O48,1.5112,-2.546450026725981,mp-2715957,0,2.0
Sc2GaIr,0.0,-0.8053350518749991,mp-972899,0,0.0
FeH21C7S3N,0.2953,-0.187369306780303,mp-1201806,0,0.0
Ge3Sb,0.0,0.28510261625,mp-976111,0,0.0
SmCdAg2,0.0,-0.274145252083332,mp-867853,0,0.0
DyMg2Mn3S8,0.0,-1.276384524675697,mp-1246726,0,0.0
LuO3,0.0,-2.011761946666666,mp-973457,0,0.0
LiScSi,0.444999999999999,0.058109410555555,mp-962070,0,0.0
SrMg3O4,0.0,-2.798580238125,mp-1218196,0,0.0
DyAu,0.0,-0.8778207408333321,mp-1007918,0,0.0
Sc57Ru13,0.020799999999999,-0.286477200285713,mp-1210377,0,0.0
BiSeBr,1.6912,-0.8835410691145841,mp-569707,0,2.0
La2CuSnO6,0.0,-2.773569056,mp-14735,0,0.0
TiInRh2,0.0,-0.6416888299999971,mp-866170,0,0.0
Na2PdO3,0.8889999999999991,-1.357433480668103,mp-685478,0,1.0
YC9(BrO4)3,0.0029,-0.4224873188,mp-1208063,0,0.0
TbSnAu2,0.0,-0.698085210416664,mp-864599,0,0.0
Cs3Pt,0.0,0.188860439051723,mp-1064000,0,0.0
RbTeNO3F4,3.3979,-1.9631787174166664,mp-560578,0,5.0
LiNd2Rh,0.0,-0.341829567083332,mp-1185389,0,0.0
Tb10B7C10,0.0,-0.543120562152786,mp-570655,0,0.0
FeAu3,0.0,0.1536743725,mp-973557,0,0.0
Ga2Te4O11,3.512499999999999,-1.714579051568626,mp-30187,0,5.0
Ti2Te2P,0.0,-1.020435598261906,mp-12527,0,0.0
SmSe2,0.0,-1.8409462043750011,mp-1019253,0,0.0
Li3Sn2(PO4)3,2.5065,-2.518207703196427,mp-26701,0,3.0
Na3B,0.0,0.828705478456896,mp-1186020,0,0.0
Ag3BiO3,1.546999999999999,-0.7834499885714281,mp-505145,0,2.0
Ti8Pb8O23,0.0,-2.650114892094016,mp-1101432,0,0.0
TaZnOs2,0.0,-0.210690350583334,mp-979291,0,0.0
Nb3GeS6,0.0,-1.283144029499999,mp-867739,0,0.0
BiBCl,0.0,1.589840658240741,mp-631539,0,0.0
Ho11Sn10,0.014999999999999,-0.712722199047615,mp-1203269,0,0.0
PrH2,0.0,-0.7171147630555551,mp-24095,0,0.0
Al11NO15,4.052600000000001,-3.247849188518518,mp-675682,0,6.0
KB(SO4)2,6.4023,-2.139315429493054,mp-1019804,0,7.0
Sm(VFe5)2,0.0,-0.046982761923077,mp-1219210,0,0.0
K3Mo3Se14,0.9008,-0.9064793647281252,mp-651347,0,1.0
Al6N2C3,0.04038,,,0,0.0
Er3(CuSn)4,0.0,-0.486679820909089,mp-1095537,0,0.0
Ag4P8,0.750842,,,0,1.0
LaSeS,0.0,-2.096320584791667,mp-1222829,0,0.0
Sr2YMgCu3O7,0.0,-2.211494766428571,mp-2241019,0,0.0
Mg6AlCO8,1.979999999999999,-2.4336580178125,mp-1032999,0,3.0
Sr3Pr4O9,2.3402,-3.312569934479167,mp-686055,0,3.0
Ba3Na(SiO4)2,0.145499999999999,-3.038079821527093,mp-1182396,0,0.0
LiMg30BO31,2.358799999999999,-2.903775236944445,mp-1040125,0,3.0
Na2BeCl4,5.4555,-2.008289888608374,mp-1210352,0,7.0
NaTa3O8,2.68,-3.205221514448276,mp-14532,0,4.0
Ba4Tm6O13,2.566899999999999,-3.607066081521741,mp-772408,0,4.0
Li2AgF3,2.0539,-2.464303996388886,mp-754466,0,3.0
Sr(PIr)2,0.4416,-1.02326143052381,mp-15074,0,0.0
Li5TiAs3,0.5890999999999991,-0.8547465072222211,mp-677039,0,0.0
BiCl3,3.3934,-1.044261659374999,mp-22908,0,5.0
LuSeO3F,3.8707,-2.862012023168403,mp-1095437,0,6.0
Ba4MnN4,0.0,-0.6916763769923381,mp-1246840,0,0.0
U2Cu(GeO9)2,0.059699999999999,-1.212440406086956,mp-1239037,0,0.0
NbCr3(CuS4)2,0.0,-0.975402395,mp-1239153,0,0.0
Eu2ZnSn,0.0,-0.512197548750003,mp-1184291,0,0.0
Ca4O8D8,4.372456,,,0,6.0
Na2CN2,3.024,-0.607621109499999,mp-541989,0,4.0
Mn3(ZnN)8,0.0,0.010252510443511,mp-1246028,0,0.0
Ca5TaTi3Al(SiO5)5,2.8624,-3.465145833308333,mp-720394,0,4.0
Li2InPb,0.0,-0.259459083333331,mp-1184985,0,0.0
Cs2LiAl3F12,7.0872,-3.662050771257982,mp-13634,0,7.0
ErB4Ru,0.0,-0.648689226527777,mp-1191359,0,0.0
Ce(GeRu)2,0.0,-0.6487171459999981,mp-22343,0,0.0
Ba4Cs4V4S16,1.665736,,,0,2.0
BeSO8,0.046699999999999,-0.6373660922499991,mp-732207,0,0.0
Dy3Tl5,0.0,-0.371255296875006,mp-1189763,0,0.0
Tm5Ti5O17,0.0,-3.697889414320989,mp-778664,0,0.0
PmI,0.0,-1.103290356249999,mp-1186593,0,0.0
Nd2PbSe4,1.7754,-1.732364408392856,mp-675100,0,2.0
Cs4Mn(SbCl6)2,2.0025,-1.82619681376588,mp-2646913,0,3.0
Cs3MgH5,2.5844,-0.287513181135058,mp-643895,0,4.0
Tl(NiS)2,0.0,-0.5258413216666671,mp-559492,0,0.0
RbInTe3O8,3.0269,-1.714865890320511,mp-1192556,0,4.0
Sm6Cd(GeS7)2,2.0564,-1.79872527021739,mp-1219158,0,3.0
Ba3W1O6,2.714143,,,0,4.0
Si(Bi3O5)4,2.347799999999999,-1.792994503333337,mp-23492,0,3.0
Ce5AgS8,0.0,-2.068612170119046,mp-675643,0,0.0
Ti3Be,0.0,-0.0005910737499999,mp-1187475,0,0.0
Ca(InS2)2,0.8012,-1.190360938214285,mp-1227503,0,1.0
NaPrHfGaO6,0.0,-2.873243091054598,mp-1522723,0,0.0
P2N3O8,0.5978,-0.259347372060439,mp-1210601,0,0.0
YbAg,0.0,-0.368561955,mp-2266,0,0.0
Co2Br4,2.070936,,,0,3.0
Ba4Ga3Ge20,0.0,-0.23355466712963,mp-1214614,0,0.0
H8C2BrN,4.7501,-0.402308483333333,mp-568157,0,7.0
Tm3(Si3Pd10)2,0.0,-0.834067574482764,mp-1208056,0,0.0
Sm2TlAg,0.0,-0.327108961250003,mp-972536,0,0.0
YInPdAu,0.0,-0.827749280426825,mp-1215995,0,0.0
La2Rh7,0.0,-0.453486609722221,mp-568375,0,0.0
BaGe7N10,2.1552,-0.355066663333333,mp-1029679,0,3.0
MgAuO2,0.0,-1.6732092212499992,mp-997032,0,0.0
Na6Mg4Ta8Si9(SO8)9,1.8098,-2.705843839763357,mp-2713128,0,2.0
Sm,0.0,0.0,mp-69,0,0.0
TbAlGa,0.0,-0.666116323333334,mp-1217557,0,0.0
Rb3Sc2Si4(O2F)5,5.195399999999999,-3.446416112291666,mp-1196025,0,7.0
Ba6Nb14Si4O47,0.0,-3.197763532253522,mp-560469,0,0.0
Dy2IrRh,0.0,-0.8725378233333301,mp-864999,0,0.0
Cs3(Cr5Se8)4,0.002099999999999,-0.903971328617555,mp-1228215,0,0.0
TbMgHg2,0.0,-0.451840549166671,mp-867234,0,0.0
W2Bi4Te4O20,2.845804,,,0,4.0
SnAsO4,0.0,-1.60543903375,mp-1179370,0,0.0
BaCaLu2F10,6.809,-4.374406041666667,mp-1228137,0,7.0
Cs8Co4I16,1.845057999999999,,,0,2.0
Ce3(Ge3Pd10)2,0.0,-0.6443028810344811,mp-672275,0,0.0
TlAgF3,0.0,-1.608294547875004,mp-1400626,0,0.0
La4Li1Co1O8,1.444494,,,0,2.0
Pm3Pd,0.0,-0.151489580625003,mp-1186528,0,0.0
KSn2(PO4)3,3.449899999999999,-2.547108168121032,mp-1180718,0,5.0
Pb4K12O10,2.187349,,,0,3.0
Na3Y4P3(SO8)3,4.6775,-2.882144736952248,mp-2713871,0,7.0
ZnH2SO5,4.2653,-1.6927066750000002,mp-643066,0,6.0
Na5Zn2Ga2P3(SO8)3,3.1086,-2.243609177136543,mp-2714758,0,4.0
EuSiO3,0.0,-3.071255264,mp-866030,0,0.0
YBiO12,0.0,-0.331611344285714,mp-1207734,0,0.0
Te4W3S2,0.0,-0.279861917291662,mp-1026362,0,0.0
Gd2AlCo2,0.0,-0.350464496,mp-637222,0,0.0
Pb4P4S16Rb4,2.425913,,,0,3.0
EuInGe,0.0,-0.47283144388889,mp-1225613,0,0.0
Sr16Cr8O32,1.821009,,,0,2.0
Er6InCo2,0.0,-0.279243144074072,mp-1213258,0,0.0
SmAs,0.0,-1.798826756249997,mp-1738,0,0.0
Ti3Sb2(PO4)6,2.1559,-2.707436092224489,mp-774763,0,3.0
Ba2YCu3O7,0.0,-2.176878082692307,mp-20674,0,0.0
AgSbS2,1.3716,-0.250111398906248,mp-3922,0,2.0
Li5B4,0.0,0.147170024444444,mp-632822,0,0.0
Ag2SnBiSe4,0.0,-0.267650979218768,mp-1229140,0,0.0
NaScSn,0.303999999999999,-0.026545640793652,mp-1100440,0,0.0
Y2CoIr,0.2135,2.3582201175,mp-1093950,0,0.0
KBaPSe4,1.3932,-1.289564559466837,mp-18156,0,2.0
Pb4Zn4V4O20H4,2.931815,,,0,4.0