formula,bg,formation_energy,mp-id,fidelity,bg_category
Tl32Si8O37,0.7955000000000001,-1.64871121235931,mp-1218127,0,1.0
Mg6CoB,0.0,0.073962925625,mp-1022088,0,0.0
Na2SnO3,2.7011,-2.066409340876436,mp-761184,0,4.0
Sr3Sm2(BO3)4,4.5184999999999995,-3.3544146148412692,mp-1209534,0,7.0
RbClO3,5.3288,-1.1442688205,mp-23011,0,7.0
Nd2CdSb3,0.1359,1.838514262500001,mp-1206232,0,0.0
Al2Ga2Bi2O9,2.7318,-2.468417401666667,mp-1214864,0,4.0
Li2CdCl4,3.8715,-1.7027495197619051,mp-38008,0,6.0
NdPt3,0.0,-0.848344491874996,mp-569120,0,0.0
Zn4P3C3N3O13,0.0,-1.099452432843407,mp-1199842,0,0.0
Si2Ni3,0.0,-0.499238612499999,mp-29667,0,0.0
Li2Cu2(SO4)3,0.150099999999999,-1.781498495219298,mp-768832,0,0.0
BaLiGe2,0.0,-0.531027867083333,mp-13140,0,0.0
Sb12Sr10In4,0.061723,,,0,0.0
Th(PS3)2,2.448,-0.997178864758596,mp-14249,0,3.0
As2Cl3OF5,3.3444000000000003,-1.891481795454545,mp-557417,0,5.0
Ca(AsPd)2,0.0,-0.7979935890000001,mp-5166,0,0.0
Cs2V6O16,2.072332,,,0,3.0
Na2P2H2O7,5.215,-2.338663634964948,mp-698063,0,7.0
LiTc2Pd,0.0,0.580329040833333,mp-631334,0,0.0
Pb3SeO5,2.4633,-1.478446876371529,mp-510293,0,3.0
LiAlSiH2O5,4.8099,-2.618136637333333,mp-697020,0,7.0
SmYB12,0.0,-0.480271802008932,mp-1218969,0,0.0
Nd4In21Pd10,0.0,-0.525978006285713,mp-1200754,0,0.0
Tm2CdCu2,0.0,-0.292998220000004,mp-1205861,0,0.0
Y2AlSiNO5,0.0,-2.738710989,mp-1100918,0,0.0
Y15TmO24,4.1426,-3.96091708125,mp-757001,0,6.0
SrMg14BiO16,0.061099999999999,-2.70571075125,mp-1034358,0,0.0
PAuS,0.5507999999999991,-0.093166629411442,mp-1094079,0,0.0
Yb(ErSe2)2,1.106699999999999,-2.124786456845239,mp-1215863,0,1.0
CsXe3O3F13,2.8413,-0.783457365857758,mp-651768,0,4.0
Ca1Sn1F6,5.393184,,,0,7.0
BaMg14Cr,0.0,0.173382878125,mp-1026563,0,0.0
Sm3OsO7,0.0,-3.134779229090907,mp-5447,0,0.0
Na4Ca2SnP4,0.9208,-0.603464538553514,mp-1221212,0,1.0
Zr6Al16Pd7,0.0,-0.7551117965517241,mp-1193840,0,0.0
CaHgAu2,1.652899999999999,0.370826448749994,mp-1093882,0,2.0
Nb8Ge4Te16,0.120103,,,0,0.0
LaTiAgO4,1.4657,-2.950561660714286,mp-22621,0,2.0
PrTh,0.0,0.065650449166675,mp-1219741,0,0.0
Tl2Sc2S4,0.926742,,,0,1.0
Os3(CO)10,0.2799,-0.8289872095652171,mp-1199357,0,0.0
SrNi3Ge2,0.0,-0.445394130833329,mp-12521,0,0.0
DyBr2,0.0,-1.87631455222222,mp-864986,0,0.0
Ba2BiAu,0.422799999999999,-0.865384862499998,mp-862947,0,0.0
Na2Ca4Ta4Si3(S3O16)3,1.2858,-2.544313646089409,mp-2716296,0,2.0
GeSb2H16C4(S3N)2,2.489899999999999,-0.356000306290321,mp-1199720,0,3.0
Cr2S8N12C8H16,2.48896,,,0,3.0
Al2OsPd,0.380399999999999,2.224005810729167,mp-1248716,0,0.0
Yb2CdSb2,0.0055,-0.7229657420000021,mp-569106,0,0.0
Lu2ZnOs,0.0,-0.372941370833332,mp-865261,0,0.0
Hf3(Mn2Si3)2,0.0,-0.6147710975364711,mp-1212656,0,0.0
PICl8,1.6941000000000002,-0.962801141464286,mp-573373,0,2.0
Sc(P2Ru3)2,0.0,-0.726534252142857,mp-1102487,0,0.0
ZrH24C8(NF3)2,6.552,-0.831270650243902,mp-1203669,0,7.0
Th(CoP)2,0.0,-1.039404355190476,mp-1079824,0,0.0
Pb12La2Br2O14,1.852023,,,0,2.0
Hf5Ga3,0.0,-0.5180995300000001,mp-22337,0,0.0
ErPH5CO7,3.7291,-2.012836982392857,mp-558204,0,5.0
Li4CuSi2O7,0.6827999999999991,-2.567689882023809,mp-756422,0,1.0
OsXeO3F8,2.341299999999999,-1.2257697320192311,mp-1197858,0,3.0
LaAlH6,2.476499999999999,-0.4340783521875,mp-1079283,0,3.0
LaPbNO5,2.3416,-1.980386719375,mp-1225594,0,3.0
Ag2H21N7(ClO4)2,0.0,-0.237947276364583,mp-686742,0,0.0
Nd3GaNiSe7,0.0,-1.592892186367186,mp-1190815,0,0.0
Y6Ga2S12,2.093026,,,0,3.0
Eu2TlCl5,0.6218,-2.4268468138541692,mp-1213054,0,0.0
Mg30SnCO32,0.0,-2.7871310721875,mp-1095701,0,0.0
Cd3(Pt3O4)10,0.0,-0.8518078271232871,mp-759817,0,0.0
Na3GaBr6,1.6742,-1.407966354163793,mp-1110798,0,2.0
MgCd4(TcO3)4,0.0,-1.474452750714284,mp-1233285,0,0.0
RbAlCl4,5.2186,-2.184869732916666,mp-1209422,0,7.0
La20Ti11(S22O3)2,0.285099999999999,-2.39365276909465,mp-662600,0,0.0
Ho(SiAu)2,0.0,-0.578963702999999,mp-569013,0,0.0
Er3Mn3Ga2Si,0.0,-0.432228989425971,mp-570867,0,0.0
Li3Al(BO3)2,4.8248,-2.848371881527777,mp-6097,0,7.0
Sr8CaCu4(ReO8)3,0.0,-2.4234768259375,mp-21652,0,0.0
Cu4Sb8O24,0.5752729999999999,,,0,0.0
CsInI4,2.4128,-1.158595765636974,mp-607987,0,3.0
LiAg3O2,0.727799999999999,-0.8048942663888881,mp-27227,0,1.0
NaLaZrNbO6,0.0,-3.209760540637931,mp-1520149,0,0.0
NaCePCO7,1.1947,-2.7321256682747412,mp-767538,0,1.0
K(Nb3Se4)2,0.0,-1.147290645733331,mp-1223754,0,0.0
Nb5Te4,0.0,-0.5491252340740751,mp-30797,0,0.0
TiNb2Mo,0.0,4.260872866388894,mp-1097379,0,0.0
DyNiSn4,0.0,-0.344997537777776,mp-1212896,0,0.0
Cs2IBr,3.713999999999999,-1.4951225773275871,mp-1096010,0,5.0
NaSrTiBiO6,0.6261000000000001,-2.450685473471265,mp-1522682,0,0.0
MgPa3,0.0,0.1994692325,mp-976742,0,0.0
GdErRh2,0.0,-0.838685382499999,mp-1184815,0,0.0
Ba2CaTi2CuF14,1.0044,-3.688344636833334,mp-1380678,0,1.0
Ba2Tl2Bi3O10,0.0,-1.7093905345098062,mp-1046253,0,0.0
KAs2Rh,0.0,-0.1965873955625,mp-1223477,0,0.0
LiFeCl4,1.2679,-1.5214270234722211,mp-1210931,0,2.0
Li5Br2N,2.0781,-1.160461586458333,mp-29025,0,3.0
La4Ti5(Si2O11)2,0.0,-3.541655396476189,mp-559176,0,0.0
HfAlTc2,0.0,3.232701025250009,mp-1096748,0,0.0
Ta2InCuTe4,0.0,0.110903111499999,mp-20505,0,0.0
Dy(Fe2Ge)2,0.0,-0.290376235952379,mp-20247,0,0.0
CeZn11,0.0,-0.197829122499999,mp-640370,0,0.0
BrNO,1.315799999999999,-0.299115316666667,mp-1102937,0,2.0
K3GeTe3,1.1611,-0.975083446678569,mp-27331,0,1.0
ZnBi2P2O9,2.3411,-2.165566192806124,mp-1044783,0,3.0
Nd2Tc2O7,0.0,-2.745416420909092,mp-1191821,0,0.0
ThUBe26,0.0,-0.105332248928571,mp-1217315,0,0.0
NaLa9(Ge3O13)2,3.808,-3.175751434913793,mp-1220900,0,6.0
Sc(P2Rh3)2,0.0,-0.856436187597401,mp-1102147,0,0.0
AlSeCl7,2.5979,-0.9633391423958332,mp-1205403,0,4.0
ThCd3,0.0,-0.187694853749995,mp-1025443,0,0.0
Cu2As9P3S9I2,2.0858,-0.387808171457142,mp-1200181,0,3.0
Na2ScPCO7,4.351,-2.7383891927001223,mp-767518,0,6.0
NaInI4,2.478999999999999,-1.032746076340995,mp-28570,0,3.0
NaSi3BO8,5.3553,-3.071139196580459,mp-696416,0,7.0
DyAl2Ni,0.0,-0.634236020416664,mp-569385,0,0.0
Li3SmSb2,0.0,-0.994693448333334,mp-1018781,0,0.0
YErRh2,0.0,-0.8770607099999991,mp-980645,0,0.0
NdErIn2,0.0,-0.5839707902083291,mp-975442,0,0.0
Cs2LiLaCl6,4.4927,-2.383809663916666,mp-1112681,0,7.0
CoAu2(CN)4,0.9938999999999992,0.252718088068184,mp-570037,0,1.0
Tm2Sn2O7,2.6576,-3.032940869545466,mp-3334,0,4.0
Lu4Ge8Pd,0.0,-0.5800769251282061,mp-1222674,0,0.0
Ce3HfSb5,0.0,-1.111594018888884,mp-1213881,0,0.0
Nd4MgSi4(C2O11)2,0.658199999999999,-2.71287584742857,mp-1211102,0,1.0
Al4Bi2O9,2.800199999999999,-2.857885393999998,mp-23426,0,4.0
KTiSi3O11,0.5903,-2.448725673317708,mp-1211776,0,0.0
Ca5(GaAs3)2,0.088999999999999,-0.94208742576923,mp-17558,0,0.0
Na7Hf2Zr2Si5PO24,4.382,-3.156822170267431,mp-2714508,0,6.0
Rb2GeO3,3.2916,-2.076389065416665,mp-556051,0,5.0
Y2(Ga3Ir)3,0.0,-0.669480166607142,mp-1207736,0,0.0
CuPb2(ClO)2,0.0,-1.329378934285713,mp-1147595,0,0.0
AlPH8(CCl2)2,5.5737000000000005,-0.789295251462053,mp-569751,0,7.0
Rb8Zn12O16,2.265587,,,0,3.0
Cs4Zn6S8,3.174578,,,0,5.0
Rb9O2,0.0,-0.6578798943181801,mp-27561,0,0.0
LiHS,3.8142,-0.93523908611111,mp-644419,0,6.0
ZnCoCu3Se4,0.0,-0.379609004374999,mp-1178642,0,0.0
Mg6VSi,0.0,0.173216616249999,mp-1021687,0,0.0
Ag1Bi2F12,0.218723,,,0,0.0
Ag25(BiO6)3,0.056799999999999,-0.5467989480797101,mp-28729,0,0.0
Sm2O,0.0,-2.074061101666668,mp-33104,0,0.0
GdInPt4,0.0,-0.799347841111104,mp-1072097,0,0.0
Mg6FeW,0.0,0.338065518125,mp-1022209,0,0.0
KBaPS4,2.3898,-1.469412471341834,mp-17088,0,3.0
Na3Sb3(PO7)2,2.1435,-2.271439127655618,mp-1210360,0,3.0
Na5Bi(P2O7)2,4.2843,-2.561572092727832,mp-560624,0,6.0
LiBe2Rh,0.0,0.358172524166666,mp-1239018,0,0.0
V(PbN)4,0.000899999999999,0.00660227791667,mp-1246993,0,0.0
Cr4FeCoS8,0.0,-0.831686255,mp-1226300,0,0.0
GdInPt,0.0,-0.7155571122222221,mp-582029,0,0.0
Te2Cl8S8N8,1.8878,,,0,3.0
Tl6S6B2,1.087843,,,0,1.0
NaBiPd2,0.0,-0.29739817541666,mp-1186107,0,0.0
ScAgSe2,0.6794,-1.2746940445312511,mp-12908,0,1.0
Ba6P8,0.481597,,,0,0.0
Ho3B7W,0.0,-0.601426517196967,mp-1191254,0,0.0
LiIr2N3,0.0,0.200508011944445,mp-1245453,0,0.0
NaZr2Sc2P3(SO8)3,3.3873,-2.861731575842131,mp-2716288,0,5.0
BaN2,0.0,-0.7517035683333341,mp-1001,0,0.0
Li2ZnSnS4,2.1758,-1.149664108333332,mp-555186,0,3.0
Na6Zn2Si3Sn2(SO8)3,0.5407000000000001,-2.232348079686064,mp-2716120,0,0.0
Be(PN2)2,4.0393,-0.8947092060884351,mp-1019545,0,6.0
Cs4C4N12H16,3.792375,,,0,6.0
Pt4Si4Se4,0.6964969999999999,,,0,1.0
Mn6Al31Cu2,0.0,-0.164290564168876,mp-1211191,0,0.0
H9C3SeN3,3.3638,-0.049627501865234,mp-1200281,0,5.0
Li2Th(AsO4)2,3.9494,-2.542340858589743,mp-1194965,0,6.0
SrTl,0.0,-0.494066029999999,mp-2434,0,0.0
Er5CoSb2,0.0,-0.7449689225,mp-510595,0,0.0
Nb4FeP,0.0,-0.375065802440476,mp-1103173,0,0.0
Nd2Co,0.0,1.280144524747479,mp-1210116,0,0.0
LiSeO3,0.5306000000000001,-1.434109698135416,mp-1211104,0,0.0
CeDy4S7,0.0,-2.353163881515475,mp-1226713,0,0.0
Mg2Si2As4,1.21075,,,0,1.0
Zn3Ge,0.0,0.187027941249999,mp-971928,0,0.0
ScCdPt2,0.0,-0.807852176249999,mp-1186978,0,0.0
Y2CrN3,0.0,-1.500871537708337,mp-1245636,0,0.0
Sr2InBr5,3.375299999999999,-2.105717833333332,mp-1208825,0,5.0
SrEuBiSbO6,0.0,-2.471179959500001,mp-1516901,0,0.0
Dy2Co7B3,0.0,-0.386842039652776,mp-569158,0,0.0
Np2H12SO14,0.500599999999999,-1.880929764310343,mp-560243,0,0.0
MgZrN2,0.0,-1.50183626625,mp-1245429,0,0.0
RbHoBeF6,0.0,-3.894240709166665,mp-1209229,0,0.0
Cr3Ga4,0.0,0.011925793333335,mp-18654,0,0.0
Na9Sr2Nd9Ti20O60,2.152199999999999,-3.432563550165805,mp-694961,0,3.0
NaYZrP2SO12,3.7018,-2.954588925638799,mp-2712737,0,5.0
Sn4O2F4,2.541079,,,0,4.0
GeBr2,2.597,-0.927984858749999,mp-541610,0,4.0
AcYb3,0.0,0.097318301874999,mp-1183236,0,0.0
CsRu2C8(ClO4)2,0.0,-0.083489362126435,mp-1198675,0,0.0
Ba24In19N11,0.0,-0.394542648364197,mp-677705,0,0.0
Rb2NaPrI6,3.112,-1.628247420804597,mp-1110769,0,4.0
MnH16C4S4(N4Cl)2,1.643399999999999,-0.484438152726601,mp-1199490,0,2.0
ZnH20PtC4(NO3)4,3.0854,-1.072467992738094,mp-1199354,0,4.0
PH18PtC6S3ClF6,3.2089,-0.833189135892857,mp-1202301,0,5.0
Y4ZrSi3,0.0,-0.7748074973750041,mp-1216135,0,0.0
Mn8(Al9Zn)3,0.0,-0.137957275222322,mp-1211131,0,0.0
Li2PrGa,0.0693,-0.323365633749999,mp-1185017,0,0.0
Sm3Al2(Ni2H3)3,0.0,-0.432234306812499,mp-1204639,0,0.0
Mg3Zn,0.0,-0.026333484999999,mp-1094451,0,0.0
SrTl2O4,0.079299999999999,-1.719419101666666,mp-4655,0,0.0
In16Se12,0.1754349999999999,,,0,0.0
Pt(I2O)2,0.0,0.048206044285714,mp-728614,0,0.0
B13P2,0.0,0.653572230325396,mp-13862,0,0.0
FePH12(CCl)4,1.5822,-0.5259942104383111,mp-1194875,0,2.0
Ba2Na2Zr2Si6O23,0.0,-2.703033864007388,mp-1229309,0,0.0
HoAlCo,0.0,-0.371943440833331,mp-1224090,0,0.0
GaCoRh2,0.0,2.490208448125,mp-1097340,0,0.0
Li13In3,0.0,-0.255294934479166,mp-510430,0,0.0
Na6Ta4Si9Ge4(SO16)3,2.6025,-2.6973520761726473,mp-2713049,0,4.0
Na3HfZn(PO4)3,4.3508,-2.7955447312366593,mp-2715443,0,6.0
CeP3,0.0,-0.6395180880654731,mp-1183770,0,0.0
Na2Pr4Cl9O2,0.5886,-2.767083719966193,mp-555829,0,0.0
CaNdAg2,0.0,-0.301223394374996,mp-1183555,0,0.0
Mo16Y8Cu8O64,2.035919,,,0,3.0
Ho2ZnS4,2.3423,-1.979258615357138,mp-1193207,0,3.0
Na2La3TaSi2(SO6)4,2.497899999999999,-2.748839059956257,mp-2712523,0,3.0
Y8Cu3(SiS7)3,0.0,-1.628346162214285,mp-1250066,0,0.0
Cd(NCl)2,1.198799999999999,1.371015690999998,mp-722666,0,1.0
Ca3Al2S(OF)8,0.6910000000000001,-2.742922414204545,mp-1198254,0,1.0
TmTlRh2,0.0,-0.5773008233333351,mp-865288,0,0.0
Mg16Al12Te,0.0,-0.011428971264367,mp-1185713,0,0.0
Cr3Ge,0.0,0.09220284625,mp-20685,0,0.0
Tb2As3Au,0.1272,2.355027070694444,mp-1206950,0,0.0
Zr3(Cu2Si)2,0.0,-0.512764974444443,mp-7930,0,0.0
Na3ScTiSi2SO12,2.4676,-2.868418132581898,mp-2714366,0,3.0
LiSb3,0.0,-0.062544406458336,mp-1185416,0,0.0
Li2MgH4,3.8467,-0.384605993809523,mp-1104241,0,6.0
Ni2Se2,0.179674,,,0,0.0
Zr3Sb,0.0,-0.5787569462499991,mp-1105139,0,0.0
H2Os3(CO)10,1.7321,-0.882056934900001,mp-600347,0,2.0
Pt2Rb4C8N8,2.390972,,,0,3.0
Mg14TiCo,0.0,0.124964191666666,mp-1028031,0,0.0
Sr2Cu2O5,0.0,-1.942848560555556,mp-21129,0,0.0
Yb3SnO,0.0,-1.545781028750002,mp-11651,0,0.0
CaB2Rh3,0.0,-0.6132523613888891,mp-28705,0,0.0
RbPrNb2O7,1.3752,-3.14527639810606,mp-1190185,0,2.0
Ba3Li(AsO4)2,0.0,-2.459523221309524,mp-1235212,0,0.0
Ca5CdCu2,0.0,-0.179855944374999,mp-1105558,0,0.0
Zr3ZnN,0.0,-1.030142710750001,mp-1014226,0,0.0
Ba3Sr3Np2,0.0,0.6653973240624991,mp-1228565,0,0.0
CaSm2S3,0.0,-2.311452210416664,mp-1227043,0,0.0
Eu2BIN2,0.189499999999999,-1.466280629861112,mp-1192731,0,0.0
NaCu4(AsO4)3,0.0,-1.432031734693966,mp-542185,0,0.0
YUGa4,0.0,-0.363035143333332,mp-1215823,0,0.0
Ti(GeO3)2,3.1302,-2.524066678148148,mp-1042864,0,4.0
Sm(CuTe)3,0.6511,-0.5973398869643021,mp-1219189,0,1.0
Na10Hf4Sc4Si7S5O48,3.8409999999999993,-2.916794344717433,mp-2715836,0,6.0
NaHfMgP(SO6)2,4.1427,-2.653458680797529,mp-2714495,0,6.0
Cd2Cs2Br6,2.898008,,,0,4.0
Sb8Rb4S14,1.186196,,,0,1.0
Na3Sc2Zn2PS5O24,3.9657,-2.354905516385968,mp-2713709,0,6.0
CePrMg2,0.0,0.010507304583334,mp-1183722,0,0.0
ZrGaCo,0.0,-0.5451700458333331,mp-1079246,0,0.0
Cu2TeO6,0.0363,-1.014237880185184,mp-1188594,0,0.0
As2Ir,0.8155000000000001,-0.571072849166668,mp-15649,0,1.0
Tm5Co19P12,0.0,-0.8888853826587291,mp-1216929,0,0.0
Tl3Nb1S4,2.405025,,,0,3.0
NaCNO2,1.594199999999999,-0.916204225775862,mp-1210777,0,2.0
TbAgSn,0.0,-0.599214716111108,mp-31422,0,0.0
Tl2In10S12,0.983601,,,0,1.0
Eu3(Cu2Sn)4,0.0,-0.302211643666667,mp-11638,0,0.0
KRb2RuF6,0.0,-2.609928074225,mp-1113753,0,0.0
CsHF2,6.5123,-2.4787930714762942,mp-24668,0,7.0
Cu3Nb1Te4,1.049952,,,0,1.0
CuAs2S4(O2F3)4,0.7932999999999991,-1.984851546666666,mp-556926,0,1.0
Na14Nb5In3(SiO4)12,2.4949,-2.805321574666386,mp-2713071,0,3.0
Ba2DyUO6,0.8682999999999991,-3.656206646166667,mp-1205693,0,1.0
Nb2PS10,1.5194,-0.964960996703299,mp-648932,0,2.0
Rb3AsF6,4.2827,-2.750770718999998,mp-1113850,0,6.0
Pr(IO3)3,3.4024,-1.475615418782052,mp-556346,0,5.0
LuPaTc2,0.0,-0.283012331666668,mp-865801,0,0.0
Al4S12Na12,3.164502,,,0,5.0
Cs(Bi2Te3)2,0.848399999999999,-0.5948350747413801,mp-672338,0,1.0
Cr1Cu1S2,0.184553,,,0,0.0
P2Pb(XeF6)3,2.4778,-2.122139237678571,mp-558403,0,3.0
Ca5Si2C2O13,4.9049,-3.106294844318182,mp-6753,0,7.0
YIn3,0.0,-0.52248454,mp-20131,0,0.0
U6Co30Si19,0.0,-0.499585392272726,mp-569882,0,0.0
HoCuAs2,0.0,-0.92207961,mp-21364,0,0.0
La4Se3N2,1.657699999999999,-2.106673152447916,mp-1205351,0,2.0
Na7Al10Si14(AgO16)3,2.3001,-2.9486297460323803,mp-690987,0,3.0
EuNbO4,0.0,-3.188677660833333,mp-12646,0,0.0
SrMg14Nb,0.0,0.160059429374999,mp-1026571,0,0.0
PuAlFe,0.0,0.51033139541667,mp-1219827,0,0.0
H1Br1,1.250968,,,0,1.0
Fe12N5,0.0,-0.158987435882352,mp-27908,0,0.0
Ti2MnNi,0.0,-0.338393503649425,mp-865712,0,0.0
YPu3,0.0,0.211710708333328,mp-1187959,0,0.0
Zr6Br18K4C1,1.174285,,,0,1.0
Li2ZrO3,3.7336,-3.040215971111112,mp-4156,0,5.0
RbMo6Se7,0.0,-0.8667896613504461,mp-17030,0,0.0
Na8NbO6,0.0,-1.842883976068965,mp-849285,0,0.0
ZrPtPb,0.0,-0.21671589666667,mp-961709,0,0.0
Pr6RuBr10,0.2138,-1.908911898823529,mp-570902,0,0.0
MnCd3Te4,0.5059,-0.5807688905603421,mp-1221667,0,0.0
Ca2ZnAs2(H2O5)2,0.0,-2.052664014736842,mp-1214401,0,0.0
K5NaRu(IO11)2,0.0499,-0.440671315729977,mp-1228171,0,0.0
AlRu2W,0.254899999999999,3.322559923541668,mp-1093864,0,0.0
K2TiO3F4,0.129699999999999,-2.640622786033333,mp-726681,0,0.0
TiV2W,0.0,4.320266909166666,mp-1096710,0,0.0
Cd8Ag5,0.0,-0.053803280769229,mp-567857,0,0.0
LiTb2Ir,0.0,-0.555401524166667,mp-867285,0,0.0
LaAlPt,0.0,-1.14559586833333,mp-1103109,0,0.0
Cs2TaCuCl6,0.0,-1.598200449664368,mp-1113336,0,0.0
Ho3As,0.0,-0.5390935893749961,mp-1184710,0,0.0
USnTe,0.0,-0.57033779222222,mp-504687,0,0.0
Hf2Se6,0.0,,,0,0.0
LiSm2Ga,0.0,-0.352197914166666,mp-1185441,0,0.0
Rb8Ag4I12,2.566776,,,0,4.0
SrCdSn,0.0,-0.480994341666667,mp-1218342,0,0.0
Cs3Eu(Si2O5)3,0.6834,-3.091351737458621,mp-1229260,0,1.0
PrNbO3,0.0,-2.925943977333332,mp-975913,0,0.0
ICl,1.852199999999999,-0.464540954999999,mp-567998,0,2.0
Sr2Ge(S2O7)4,3.4847,-2.027125121025643,mp-1020704,0,5.0
Ge(TePd4)2,0.011599999999999,-0.356263993257574,mp-1224632,0,0.0
Er2Pt2O7,1.4127,-2.478018743636361,mp-756440,0,2.0
K2PSO8,0.002299999999999,-1.94823993805357,mp-1224224,0,0.0
Cs3AlP2,1.1821,-0.6025924699503941,mp-619651,0,1.0
In4GeSe4,0.6181000000000001,-0.634701106921295,mp-530545,0,0.0
Cs2BrCl,4.4631,-2.096901866077586,mp-1226161,0,7.0
Mn2PdPt,0.0,-0.284900688965517,mp-1185926,0,0.0
Ba6Ti7(Sb3O14)3,0.0,-2.759917369739583,mp-773058,0,0.0
In12Ga4Ir2O15,1.4187,-1.650040963333333,mp-1204264,0,2.0
UCu2(PO5)2,0.0,-2.485950907285713,mp-558650,0,0.0
PrZn(SnO3)2,0.0,-2.291776015666665,mp-1044499,0,0.0
SmEuZn2,0.0,-0.278297847500001,mp-1187071,0,0.0
Zr3Cu8,0.0,-0.167075955909091,mp-1195821,0,0.0
Na2Y2In2SiS5O24,0.6079,-2.381220568618295,mp-2714359,0,0.0
CaReN3,1.8813,-0.7351132354999901,mp-989606,0,3.0
LuMn6GaGe5,0.0,-0.299648971288682,mp-1222359,0,0.0
Li(ReO3)4,0.0,-2.123757287254903,mp-756519,0,0.0
Pr3Co29(Si2B5)2,0.0,-0.366851562644928,mp-16084,0,0.0
Ga3Pd5,0.0,-0.632974879999999,mp-2408,0,0.0
Cu6SnGe,0.0,0.018745429999999,mp-1225733,0,0.0
Na6Mg8Nb4Si3(S5O24)3,0.0,-2.388472247507184,mp-2714430,0,0.0
Rb5GaO4,2.1824,-1.642377376999998,mp-1020613,0,3.0
Pr14Ag51,0.0,-0.23547985782051,mp-1220249,0,0.0
Ag3B5O9,1.8021,-2.16436092504902,mp-1194638,0,2.0
Sc(MnGe)6,0.0,-0.322399350198942,mp-19936,0,0.0
Li2Sn(HO)6,3.8055,-1.662158031277777,mp-1194119,0,6.0
Cd2InCuSe4,0.0,-0.720794460755207,mp-1227031,0,0.0
Tb2MgTiO6,3.2311,-3.694526558666666,mp-1208534,0,5.0
Sr2CdAs2,0.5223,-0.941229887000002,mp-863261,0,0.0
Sc(AlFe)6,0.0,-0.399302111923076,mp-1219472,0,0.0
Ba2LiOsO6,0.0,-2.442012323333333,mp-10584,0,0.0
YErAl2,0.0,-0.431560573333335,mp-972415,0,0.0
PH12C2N6O3F,5.0108,-0.9303642093857132,mp-698449,0,7.0
MnNiGe,0.0,-0.259201899310344,mp-20007,0,0.0
Na4Mg3SiGeS5O24,1.5028,-2.290783269114489,mp-2713133,0,2.0
K2TlSbF6,2.6523000000000003,-2.603626546783334,mp-1111125,0,4.0
LaGe5,0.0,-0.270399530833335,mp-1025100,0,0.0
La2Co14B,0.0,-0.055482552352941,mp-1197631,0,0.0
Ta3In2Cl9,1.2972,-1.537544011095234,mp-662572,0,2.0
Li3MgPCO7,5.5024000000000015,-2.588202613049449,mp-768190,0,7.0
AlAuO2,0.5888,-2.224651209999999,mp-16613,0,0.0
Yb2SbAu,0.0082,-0.785525567499995,mp-864783,0,0.0
Na(OsO3)2,0.0,-1.542519566264368,mp-555792,0,0.0
Rb2LiSbI6,1.721499999999999,-1.181190730833333,mp-1110746,0,2.0
Tl3V(SeS)2,1.3155,-0.81807517871094,mp-1216543,0,2.0
Te12Cs20,0.387789,,,0,0.0
Ba3NaIrO6,0.0,-2.373929211943573,mp-9746,0,0.0
BaAlPO5F,0.3407,-3.123066507460318,mp-1214467,0,0.0
ScTc2,0.0,-0.305034234166666,mp-1101860,0,0.0
ThSiO4,4.8900000000000015,-3.826331624166665,mp-5836,0,7.0
Te4Sr2Cu4Cl4O12,1.258598,,,0,2.0
La3Bi3O11,0.0,-2.488440405882353,mp-772194,0,0.0
BePH4NO4,5.082699999999999,-1.851745256103883,mp-24473,0,7.0
Ca2AlCuO5,0.0,-2.688202504444444,mp-1264781,0,0.0
Rb3TlO3,1.460799999999999,-1.373017168690475,mp-28380,0,2.0
Ho(VFe5)2,0.0,-0.073764794230768,mp-1224152,0,0.0
Hg1Ge1Cu2S4,0.277034,,,0,0.0
Na3Al,0.0,0.180173110086206,mp-974270,0,0.0
BaMg6Ti,0.0,0.223187674583333,mp-1021520,0,0.0
KHSeO4,3.6287,-1.503727016995535,mp-707536,0,5.0
Na4MgZrSi2SO12,3.548499999999999,-2.7448511066516152,mp-2714412,0,5.0
Sn6Sb4Cs4S20,1.686967,,,0,2.0
Na4Eu2P4Pb,0.0,-0.509885844917152,mp-1221311,0,0.0
CrFeN2,0.0,-0.24428277125,mp-1246373,0,0.0
Nd2Ti4O11,3.0914,-3.655330315490194,mp-654139,0,4.0
Nb2V4Si5,0.0,-0.455495289166668,mp-17210,0,0.0
Y2GaNi2,0.0,-0.541022153499999,mp-1070755,0,0.0
LiCaPrTeO6,3.4532,-2.724112551166666,mp-40186,0,5.0
K3Cr11S18,0.2216,-1.095485292710936,mp-654008,0,0.0
Dy3TlC,0.0,1.464350566453345,mp-22513,0,0.0
Cr8O28Na8,2.484646,,,0,3.0
DySeI,0.0658,1.048141335329862,mp-1206751,0,0.0
Eu4Ti3O10,0.0,-3.512420362352943,mp-1212797,0,0.0
Ca(CrN)2,0.0,-0.267063268333322,mp-1420270,0,0.0
NaIn2Ag,0.1055,0.9270765123922012,mp-1095961,0,0.0
TaWC2,0.0,-0.195838314333329,mp-1217826,0,0.0
ScFe3,0.0,0.028773685,mp-1186986,0,0.0
PmHoRu2,0.0,-0.229320918125,mp-1186586,0,0.0
NaTl2Pb,0.0,-0.114015813333331,mp-977162,0,0.0
Na2Cu6F14,2.237606,,,0,3.0
NdMg(NiH)4,0.0,-0.347746025749999,mp-1189636,0,0.0
Ba2MgTi2CuF14,0.069,-3.586525925583333,mp-1360674,0,0.0
YSiRh,0.0,-1.0143583925,mp-19728,0,0.0
Ca(TmTe2)2,0.5905,-1.705078517142859,mp-1227395,0,0.0
Ba2MgTiO4,0.0,-2.8224961435416662,mp-2240575,0,0.0
La2Si2PbSe8,1.9379,-1.569529802596153,mp-1223272,0,3.0
RbAg5(PS4)2,1.162499999999999,-0.5652161298511891,mp-1195102,0,1.0