formula,bg,formation_energy,mp-id,fidelity,bg_category
MgBiF6,0.0,-2.908280518125,mp-1383723,0,0.0
BaNa2Sr6Al6(OF16)2,0.8469000000000001,-3.811560327403238,mp-1227953,0,1.0
LuMg149,0.3255,0.003968756322222,mp-1185595,0,0.0
Hg2GeSe4,0.4336,-0.502389455625003,mp-3167,0,0.0
S2NO9,0.006199999999999,-1.246104646666667,mp-1191172,0,0.0
Er3SnC,0.0,1.487178100000002,mp-22537,0,0.0
Ba2DyCl7,4.8933,-2.870415304166666,mp-1214746,0,7.0
PrTl,0.0,-0.5041326808333361,mp-12599,0,0.0
LiZn2Au,0.0,-0.392206324166668,mp-867255,0,0.0
Na6Mg8Ta16Si15(S7O48)3,1.8269,-2.649699311729092,mp-2716218,0,2.0
K2AgC3(SN)3,3.1998,-0.341399164598932,mp-680232,0,5.0
Ca12Be17O29,3.7478,-3.180722960862069,mp-27407,0,5.0
SrCr7N10,0.0,-0.6294710934444391,mp-1247318,0,0.0
Mg5Al7O16,0.0,-3.24122944267857,mp-1222118,0,0.0
O6N6C6H6,4.638595,,,0,7.0
HfGeIr,0.0,-0.8403105958333351,mp-1102841,0,0.0
Rb3EuCl6,0.3451,-2.31343439475,mp-1210383,0,0.0
SrYb,0.0,0.315296387499998,mp-1186775,0,0.0
Zn3Si3(AgO6)2,0.0,-1.844965469666666,mp-1324601,0,0.0
K2NaAuF6,0.5742,-2.32410380858793,mp-1111920,0,0.0
Cs2KYBr6,4.2852,-2.180973091656034,mp-1112842,0,6.0
Ni(BW)2,0.0,-0.439447912999997,mp-1070761,0,0.0
Se2Pd2O8,1.258374,,,0,2.0
Rh2P4O18H8,0.228605,,,0,0.0
Cs2Mn3Te4,0.0,-0.949366303160922,mp-5927,0,0.0
BaGa3Sn,0.0,-0.4075560295,mp-1227967,0,0.0
PdSe,0.0,-0.391958783281246,mp-21165,0,0.0
P3SN4Cl5O,2.6243,-0.85555570242347,mp-624218,0,4.0
Cu4Na4Si8O22,2.059835,,,0,3.0
Cs2YTlF6,4.705399999999999,-3.327059235999999,mp-1112482,0,7.0
Y2MgPd2,0.0,-0.750614964999999,mp-1205518,0,0.0
I6P2,2.20115,,,0,3.0
La6Si7Br3,0.0,-1.1557192759375,mp-29560,0,0.0
K2Zr3OF12,5.4252,-3.860545978861111,mp-17888,0,7.0
TbPPt,0.0,-1.526961322658735,mp-7168,0,0.0
Ca4Co4P8O28,3.078679,,,0,4.0
Tb7Co6Sn23,0.0,-0.411428318935182,mp-1208387,0,0.0
Bi8Ta4O22,2.728018,,,0,4.0
SrNi5As3,0.0,-0.54547824861111,mp-17396,0,0.0
Tl2Cu2S2O10H2,1.692968,,,0,2.0
HfMg14SiO16,0.040499999999999,-2.758391591249999,mp-1034573,0,0.0
Re(C2N3)3,0.0,0.29147886497396,mp-1247354,0,0.0
Na2SbPCO7,4.019,-2.247123653950123,mp-768144,0,6.0
Sr2Co2O6,0.143403,,,0,0.0
LiSn2(PO3)5,4.0844,-2.501042855719462,mp-26949,0,6.0
XeF6,2.7931999999999992,-0.7935726327678571,mp-560366,0,4.0
Mn2CuGe,0.0,0.137755707284482,mp-1065918,0,0.0
TlCd2Bi,0.0,0.92535713483334,mp-1097115,0,0.0
Ba3Sr(CO2)8,3.3897999999999993,-2.186250693571428,mp-1228375,0,5.0
U(IO4)2,2.051699999999999,-1.820930397272725,mp-30143,0,3.0
BeFeRh2,0.0,-0.326204368749999,mp-867840,0,0.0
CaH12(ClO3)2,4.9868000000000015,-1.4793389064285711,mp-23914,0,7.0
Ta2OsRu,0.0,-0.346605649886896,mp-1186759,0,0.0
TbMn2SiC,0.0,-0.490319781505746,mp-1205526,0,0.0
Nd6Ga3Fe11,0.0,-0.150926412124999,mp-1221312,0,0.0
CeSiHRu,0.0,-0.770666635312499,mp-604496,0,0.0
Cu10Se4Cl4O16,1.336844,,,0,2.0
K3Hg11,0.0,-0.222350668125004,mp-11028,0,0.0
Cu2In2Se4,0.017624,,,0,0.0
Ti3InC,0.0,-0.542402516333332,mp-20325,0,0.0
La3AlCrS7,0.0,-2.005301981875,mp-861904,0,0.0
LiMg2Al,0.0,0.243783751666667,mp-1015814,0,0.0
CsRbZr6BCl15,1.0453,-2.200714720471743,mp-1213588,0,1.0
Tm5(Ge5Os2)2,0.0,-0.5277422218421061,mp-1198939,0,0.0
TmZn3,0.0,-0.395408230000001,mp-1189726,0,0.0
LiTm2Ga,0.0,-0.372029666666669,mp-1185242,0,0.0
Cs2Te13,0.7813999999999991,-0.244504350111109,mp-505464,0,1.0
Ho5(In2Ni)2,0.0,-0.5101470324242411,mp-1191532,0,0.0
EuBi3,0.0,-0.496213250000003,mp-865246,0,0.0
Ti2Sb,0.0,-0.526163157777778,mp-1206780,0,0.0
Mg14ZrMo,0.0,0.125398631875,mp-1027843,0,0.0
Zn2PbN2,0.063099999999999,0.335139154333336,mp-1245684,0,0.0
UC2S(NO2)4,0.0,-1.011206416249999,mp-1204770,0,0.0
Sm2MgCd,0.0,-0.187358421249999,mp-1187002,0,0.0
Zr4CuP,0.0,-0.560960381607143,mp-581733,0,0.0
Mn2AsP,0.0,-0.405835840751231,mp-1221923,0,0.0
CeMnSi,0.0,-0.5333544631609161,mp-505331,0,0.0
Na3Tb(PO4)2,4.954,-2.947164855095735,mp-1211011,0,7.0
NbMo,0.0,-0.068644354999996,mp-1220327,0,0.0
Fe(WCl5)2,0.0,-1.170341508461538,mp-1192985,0,0.0
EuErO3,0.0,-3.140364764000001,mp-1183905,0,0.0
U2AsSe,0.0,-0.990185982460933,mp-1173089,0,0.0
K3(SO4)2,0.3421,-2.105975507442307,mp-1211790,0,0.0
Bi8Te9,0.0815,-0.234825029999997,mp-580062,0,0.0
LiMg6Sc(SiO3)8,3.2098,-2.996980280333333,mp-695000,0,5.0
Tl4Ni4O12,0.6555409999999999,,,0,1.0
Sb3Rh,0.0,-0.4443963125,mp-2395,0,0.0
ZrAlV,0.0,-0.316414906777779,mp-1215306,0,0.0
Au4Cs4O4,1.340368,,,0,2.0
Ag4C(NO3)3,2.3921,-0.512760366568628,mp-1229230,0,3.0
Ag5BS4,0.0,-0.105090334749998,mp-1229225,0,0.0
Y12(ReC3)5,0.0,-0.341739494921876,mp-1207803,0,0.0
Rb3Nb2S11,1.5349,-1.179775708906248,mp-541745,0,2.0
CaCuSb2O7,0.515699999999999,-1.850121632121212,mp-1041622,0,0.0
LiAl2Pd,0.0,-0.6666604541666651,mp-30817,0,0.0
TiH16C4(NCl3)2,2.2255,-0.705844567701149,mp-1203619,0,3.0
Na2La2PtO6,2.095899999999999,-2.556851717978056,mp-1221367,0,3.0
TlBi(SO4)2,4.0547,-1.829850562152778,mp-1194570,0,6.0
Sc3InS6,0.6738000000000001,-1.684671027124997,mp-1201644,0,1.0
Na14Ca4In4Si5S7O48,2.4298,-2.410106850957037,mp-2716119,0,3.0
CsK2NbF6,0.0,-2.8702571534155172,mp-1111974,0,0.0
LuTc2,0.0,-0.308747242222224,mp-1095487,0,0.0
Ca2Ta2SiS5O24,1.394299999999999,-2.476097307612745,mp-2713091,0,2.0
SmDyRh2,0.0,-0.7895103966666661,mp-972650,0,0.0
Na7VN4,1.243199999999999,-0.298501439788073,mp-1245360,0,1.0
Rb2TeI6,1.6225,-1.029657680185183,mp-28070,0,2.0
TbTmHg2,0.0,-0.577128541249997,mp-978988,0,0.0
NaLiMg14O15,1.75,-2.8141476141842783,mp-1035393,0,2.0
Na7CaY3Si3(SO8)3,3.4553000000000003,-2.759970368426549,mp-2714206,0,5.0
CsLaO2,2.9322,-2.914428993663793,mp-1178449,0,4.0
La10Ga3Co7,0.0,-0.235009663125001,mp-1226984,0,0.0
Rb8Ge8Se20,1.485595,,,0,2.0
CaNdNb2O7,0.0,-3.309244456590908,mp-1227105,0,0.0
K(SnAu2)2,0.0,-0.244568708892856,mp-30402,0,0.0
Ti2IrRu,0.0,-0.794050424166666,mp-1187430,0,0.0
Na8Gd2O7,1.8532,-2.116756149913792,mp-780360,0,2.0
LiSbS2,0.091099999999999,-0.921434160833334,mp-1079885,0,0.0
Cs3PrF6,5.5517,-3.410153749166667,mp-1206084,0,7.0
NpOs2,0.0,0.194786163750004,mp-11535,0,0.0
Hg3Bi2(SCl4)2,2.7814,-1.099962459500002,mp-1104411,0,4.0
K2GeTe4,1.0714,-0.784129733738094,mp-28126,0,1.0
Eu(Al4Fe)2,0.0,-0.369575167045445,mp-504740,0,0.0
LiMg2Zn,0.0,-0.122345653333332,mp-864762,0,0.0
Fe(RhSe2)2,0.0,-0.5924629027678561,mp-1078162,0,0.0
LiYGa4,0.0,-0.494129358888887,mp-11743,0,0.0
Dy3Mg2CrS8,1.073799999999999,-1.8694997996428544,mp-1247249,0,1.0
Eu(AsRh)2,0.0,-0.808824886,mp-638841,0,0.0
Ba4P2O,1.0411,-1.5078049841836731,mp-28164,0,1.0
NaCaSnP(SO6)2,1.053699999999999,-2.323996733297528,mp-2714604,0,1.0
Ca10Ti8NbAl(SiO5)10,2.8619,-3.4528573833333343,mp-693409,0,4.0
Mn(CN)2,1.5421,0.218808658228449,mp-1245492,0,2.0
Gd2Cl3,0.1814,-2.051747162499998,mp-1078829,0,0.0
RbZn2P2HO8,3.9293,-2.37537065057398,mp-24683,0,6.0
Er(SiPd)2,0.0,-0.931306624000002,mp-3218,0,0.0
Cs2WBr6,0.0,-1.46370183770115,mp-541753,0,0.0
KHfSnSbO6,2.857999999999999,-2.450963136224999,mp-1522710,0,4.0
Ca2AlPbOF8,1.8579,-3.5288462249999992,mp-1227802,0,2.0
DyTe3,0.0,-1.049751963749997,mp-1086673,0,0.0
GdGa,0.0,-0.63112670625,mp-20353,0,0.0
Na10Ca3Zr5Si6(SO8)6,2.3756,-2.762976112078544,mp-2713375,0,3.0
Na3La2Ga2P3(SO8)3,2.8627,-2.5581511942045,mp-2713864,0,4.0
W4Te6Se8Cl16O4,0.441944,,,0,0.0
Ba2Cu4O4,1.871042,,,0,2.0
Eu4Bi3,0.0,-1.103729497857151,mp-1104641,0,0.0
Na9Ca4Ta8Si3(P5O24)3,2.8829,-2.970372832438948,mp-2713072,0,4.0
Sb4Ag12S12,1.417745,,,0,2.0
In2GaBiS6,1.8499,-0.6783089225208241,mp-556231,0,2.0
CdH9C4(N2O3)3,2.8528,-0.847483874698276,mp-1195900,0,4.0
Tb2CuGe6,0.0,-0.469135111666667,mp-1079671,0,0.0
Tl2Pt2O7,0.6958000000000001,-1.149196037878786,mp-13801,0,1.0
ErGaRh2,0.0,-0.8602678368749961,mp-863711,0,0.0
Ba2MgN2,0.0,-0.480540911,mp-1247488,0,0.0
TaCl3O,3.0691,-2.282241472466665,mp-1208583,0,4.0
Sr2MgCu(PO4)2,0.0,-2.640556328877551,mp-2227424,0,0.0
Mn7Al4V5,0.0,-0.273137950344827,mp-1221730,0,0.0
NaEuNb2O6,0.0,-3.007519069637931,mp-1519267,0,0.0
Sb2P2O9,0.9173,-2.188577220714287,mp-1044841,0,1.0
BaCaSn,0.2437,-0.676116901666669,mp-11265,0,0.0
Mg14ZnSi,0.0,0.041498540625,mp-1027962,0,0.0
Sr2(ZnAu2)3,0.0,-0.550100250454545,mp-1190711,0,0.0
SnCNCl3,1.4742,-0.336803867708335,mp-1103126,0,2.0
Th2NCl2,0.0,-0.8791365712499951,mp-1208256,0,0.0
Ba2SrTm6O12,2.4154,-3.7237142995238113,mp-1228529,0,3.0
Rb2MgH4,4.006,-0.294232024999999,mp-643770,0,6.0
KNa2TiF6,0.0,-3.087698711334195,mp-1111003,0,0.0
Ba2Sb3O7,0.0,-2.133355110416666,mp-1048150,0,0.0
Co4O8,0.0,,,0,0.0
AlNi2As,0.0,-0.372717294866074,mp-1228849,0,0.0
TbNi4Au,0.0,-0.379282369444444,mp-1077552,0,0.0
ErB2,0.0,-0.7018323727777791,mp-1774,0,0.0
Bi2(PbS2)3,0.5274999999999991,-0.721297862727272,mp-629690,0,0.0
Mg6VBi,0.0,0.127640095624999,mp-1021676,0,0.0
RbH12AuC4(SO3)4,2.101,-0.9785926818382352,mp-1202779,0,3.0
ZnN,0.0,0.503238693124998,mp-999485,0,0.0
Er3Pd2,0.0,-0.7811134539999951,mp-12545,0,0.0
ThTeSO7,4.226799999999999,-2.542572022916665,mp-1195677,0,6.0
Na3Mg2Nb10Si3(P5O24)3,2.1371,-2.915800734988389,mp-2715707,0,3.0
Lu2IrRh,0.0,-1.025723208333333,mp-865623,0,0.0
Li4SeO5,2.4442,-1.950933552567708,mp-4426,0,3.0
K6Bi2O8,1.135295,,,0,1.0
LiSb2P5O16,3.333,-2.430624879439483,mp-684104,0,5.0
H2C3(N2Cl)2,3.7114,-0.323289670454546,mp-698476,0,5.0
AgRuO4,0.0,-1.012188526944443,mp-761035,0,0.0
Na4Zn4Te6O18,3.026014,,,0,4.0
Ba4PtO6,1.8103999999999991,-2.467705925000003,mp-8727,0,2.0
K2Ge2O3,2.0371,-1.7642879877857152,mp-1211960,0,3.0
LiMgCd2,0.0,-0.159461544583332,mp-1185358,0,0.0
MgAlSi,0.0,-0.0052545925,mp-4499,0,0.0
CrTc2Ge,0.203799999999999,3.165126235124994,mp-1093624,0,0.0
Ca3Si3(HO5)2,4.745999999999999,-3.077182623194444,mp-1202207,0,7.0
K2PtC2,0.9937999999999992,-0.183952175499999,mp-976876,0,1.0
Hg6Ge4Se16K4,0.983783,,,0,1.0
Mg7Ti,0.0,0.111548657708333,mp-1078548,0,0.0
Na3Sr3GaAs4,0.4377,-0.813139928330721,mp-10097,0,0.0
Cd7GeN6,0.0605,0.345685985119047,mp-1245377,0,0.0
PrErZn2,0.0,-0.313637030416666,mp-976129,0,0.0
Mg16Al12Pd,0.0,-0.062701240344827,mp-1185686,0,0.0
KSr2Si4O10F,4.8589,-3.343021841375,mp-1211577,0,7.0
Zr1K2O6B2,3.463857,,,0,5.0
P3CN2Cl13,0.011099999999999,-0.8754068502067671,mp-1198055,0,0.0
Sr2Mg(CuO2)2,0.0,-2.072116464999999,mp-2240714,0,0.0
Cs(BI)6,1.687599999999999,-0.610277082088859,mp-640353,0,2.0
Li47Mn5As19,0.0,-0.59702233984256,mp-532427,0,0.0
TeC4(BrF3)2,2.5918,-1.008998841089744,mp-559902,0,4.0
Sr3Li3(NiN)4,0.0,-0.609684302857142,mp-568322,0,0.0
Y4Ti13Si2(SbO14)2,0.0,-3.015011600068026,mp-1257812,0,0.0
La2MgAl,0.0,-0.238569438750001,mp-1185014,0,0.0
Na10La7TaSi6(SO8)6,3.2291,-2.8250186264246993,mp-2716356,0,5.0
Ba3Ca,0.0,0.029850338749998,mp-1183374,0,0.0
ThAl3,0.0,-0.437031219999997,mp-1306,0,0.0
Ce3Sn5,0.0,-0.5908296562499991,mp-1189084,0,0.0
YSnO3,0.0,-2.795236929,mp-1376465,0,0.0
Eu2Cd2As3,0.0,-0.741667148214286,mp-1104962,0,0.0
CuH3C3O4,0.469299999999999,-0.935344464886364,mp-1194779,0,0.0
Cu9Se4(Cl3O7)2,0.0,-1.028227847253787,mp-558647,0,0.0
NClOF4,1.3315,-0.928872943571428,mp-556500,0,2.0
BaHo2ZnO5,3.0589,-3.269829354722221,mp-6501,0,4.0
SrMg2N2,1.6917,-0.826653964,mp-10550,0,2.0
Gd2Ga8Co,0.0,-0.483007334545456,mp-1102482,0,0.0
K2TiOF4,3.031599999999999,-3.413155031291666,mp-556623,0,4.0
Li1Br1,4.933235,,,0,7.0
Ga(BiCl)4,1.422499999999999,-0.922525083240742,mp-569237,0,2.0
MgZn2Bi3O8,0.0,-1.797844076785714,mp-2228505,0,0.0
BaRe2H12C3N6O11,2.9738,-1.2795015135,mp-722880,0,4.0
Nd2ScNbO7,2.5738,-3.6587557963636352,mp-1220400,0,4.0
K5Nb(CN)8,1.7548,-0.353510081647728,mp-569711,0,2.0
La8Sb2Se15,1.541699999999999,-1.9584793377062504,mp-1212218,0,2.0
Ho(PPd)2,0.0,-0.91250339685714,mp-1207099,0,0.0
Dy12Co5Bi,0.0,-0.263076719999994,mp-1213103,0,0.0
Na5OsO6,0.0,-1.789956756408045,mp-20067,0,0.0
LiMg3O4,0.0,-2.636561944791666,mp-1099259,0,0.0
Na4Ge4Zn2S12,2.230328,,,0,3.0
Pr2Mg,0.0,-0.038853221111109,mp-1186685,0,0.0
CsAg5Te3,0.020099999999999,-0.363232744444445,mp-9206,0,0.0
Sc6Al16Ru7,0.0,-0.671189298965517,mp-1192947,0,0.0
Bi2Br6,2.813174,,,0,4.0
Nb6Sn5,0.0,-0.182846895909092,mp-1192223,0,0.0
Tm12Co5Bi,0.0,-0.30573990444445,mp-1208024,0,0.0
SbPb4,0.0,0.065220747999995,mp-1219484,0,0.0
Ag4K4P8O24,2.8619529999999997,,,0,4.0
U3MnSb5,0.0,-0.289632360325667,mp-20513,0,0.0
UFeGe,0.0,-0.327509604999994,mp-607816,0,0.0
SiB11H10C4F11,3.4685,-1.268772109211711,mp-559162,0,5.0
Sb4Cu4S12Na8,1.442898,,,0,2.0
Na3LaHf3(PO4)6,4.7579,-3.178214119107976,mp-2714665,0,7.0
LiPr2Ru,0.0,-0.119812463363093,mp-861661,0,0.0
NaAlAsO4F,3.4772,-2.606811734234914,mp-14395,0,5.0
Tb2Pd2Pb,0.0,-0.8385197886666641,mp-31087,0,0.0
Ce(FeP3)4,0.520899999999999,-0.647170686218489,mp-16272,0,0.0
Ca5As4(HO2)10,3.8991,-2.104900654935897,mp-24436,0,6.0
Na3Mg8Ta4P3(S5O24)3,2.9417,-2.422773906570475,mp-2714283,0,4.0
Pa2Rh2O5,0.0,-2.054741628333333,mp-1186384,0,0.0
Pr2CdSn,0.0,-0.518202112083333,mp-982009,0,0.0
Hf2ScGa3,0.0,-0.5920631436111421,mp-1224670,0,0.0
UAg2(SeO4)2,1.4654,-1.771008178693908,mp-558289,0,2.0
Ba2LiSi3,0.0921,-0.394212633888888,mp-15521,0,0.0
Sn1As2S6K2,1.081194,,,0,1.0
Li2EuIn,0.0,-0.233964614583333,mp-1184914,0,0.0
ErB4(IrRh)2,0.0,-0.558044372407406,mp-1225576,0,0.0
Ca13Si10H12(O17F5)2,5.0622,-3.071413105759493,mp-703370,0,7.0
Cs2GaAuCl6,0.0,-1.579664933681034,mp-1113218,0,0.0
InAg4,0.0,0.055501302333331,mp-1223819,0,0.0
Sr5(TiN3)2,1.8023999999999991,-1.26680554429487,mp-1247347,0,2.0
HoZn3,0.0,-0.360306134374998,mp-30736,0,0.0
C3F2,2.9499,-0.647513257833333,mp-1214300,0,4.0
Na2Pr2MgTi2O8,0.0,-3.01364131251724,mp-2227303,0,0.0
Ba2NaLaTi4O12,1.78,-3.447405203985631,mp-1228472,0,2.0
Dy3NbO7,2.8339,-3.699847019090907,mp-676951,0,4.0
Ca5(Ga3O7)2,3.3099,-2.760807544999999,mp-3080,0,5.0
KPrZr2O6,2.5349999999999993,-3.375919957891667,mp-1518622,0,4.0
Hg3Te3,0.47798,,,0,0.0
ScB2Ir3,0.0,-0.620235400555556,mp-1077776,0,0.0
Na2LiNdCl6,4.0094,-2.096593988666667,mp-1113739,0,6.0
MgAsH15O11,4.2081,-1.465185349151785,mp-720817,0,6.0
Co2N,0.0,0.177865282083333,mp-22631,0,0.0
RhCl3,1.521199999999999,-0.784634455624997,mp-27770,0,2.0
Gd2CdO4,0.0,-3.087541293571429,mp-754093,0,0.0
V4I6Cs2O26,1.808495,,,0,2.0
AlH12C4NF4,7.0013,-1.005940588636363,mp-1228596,0,7.0
KFe5N4,0.0,-0.0512618752249999,mp-1246643,0,0.0
Na14Hf4Zr4Si11SO48,4.1249,-3.116419256709069,mp-2714342,0,6.0
K3Ge7HO20,0.0,-1.513487596709677,mp-1224397,0,0.0
Tb(SiIr)2,0.0,-1.094001369333335,mp-5752,0,0.0
Ba3UMnSe6,0.0,-1.6202204433630472,mp-1190712,0,0.0
Sm(CrB3)2,0.0,-0.528595908333334,mp-1079198,0,0.0
LiLa14(Cu3O14)2,0.0,-3.030424921496598,mp-774931,0,0.0
Ru2Te4,0.3765219999999999,,,0,0.0
Na2PS3,2.6345,-1.086184180816912,mp-1101885,0,4.0
Ta2Zn4(SO4)9,3.1665,-2.023088116316994,mp-2713766,0,5.0
Ce(AlPd)2,0.0,-0.8410899446666541,mp-1078340,0,0.0
K(GeSe2)2,0.0,-0.751230216482142,mp-639900,0,0.0
Ba16Br8Si12,0.315372,,,0,0.0
Zr2P,0.0,-1.078520665621693,mp-28511,0,0.0
Na5Al(HO)8,3.2472,-1.71542255497257,mp-1197684,0,5.0
Nb10Ge6C,0.0,-0.5342615473529401,mp-1220750,0,0.0
LiMg15,0.0,0.002009268645832,mp-1023493,0,0.0
InAg3(CN)6,3.9157,0.41292904296875,mp-1212079,0,6.0
LaAsO4,4.002499999999999,-2.852417035416668,mp-4917,0,6.0
UPO5,0.019199999999999,-3.220146757806124,mp-505225,0,0.0
HoMnB4,0.0,-0.6650915140996161,mp-978098,0,0.0
GePtSe,0.6596000000000001,-0.7084225741145841,mp-20817,0,1.0
Zn16Br32,3.820415,,,0,6.0
Na8Hg3,0.0,-0.165423600909091,mp-541787,0,0.0
InAsO6,0.5028,-0.9022015720833332,mp-1213280,0,0.0
Na26(Ge3Au8)5,0.0,-0.34780163413579,mp-1222153,0,0.0
Na7Hf3Ta(SiO4)6,3.5546,-3.173004607324923,mp-2713077,0,5.0
YPd3,0.0,-0.8816768799999971,mp-559,0,0.0
Tl6SI4,1.7784,-0.76957963977273,mp-27938,0,2.0
NiPt,0.0,-0.095115924999998,mp-945,0,0.0
Ca6TiAl5Si6(O5F)5,2.863799999999999,-3.533616396319445,mp-695616,0,4.0
TlC4S4N,0.0,0.292613396166665,mp-1179159,0,0.0
Rb2AlCuF6,1.271299999999999,-2.9932984475,mp-1113818,0,2.0
RbSr(BH4)3,5.242800000000001,-0.479544668088234,mp-1194771,0,7.0
CePd3,0.0,-0.8212443124999991,mp-2092,0,0.0
Na4CaSi2GeSO12,1.6831,-2.492325922048441,mp-2714568,0,2.0
Mg2C3ClO15,0.1184,-0.7582612700000001,mp-1196274,0,0.0
SiHg2(O2F3)2,0.181299999999999,-1.722257833461539,mp-1103920,0,0.0
Zn4TeO3,0.0,-1.230421962708333,mp-1215755,0,0.0
PrCu3(RuO3)4,0.0,-1.548487052583333,mp-1105109,0,0.0
Ba4Ge2Ga2N2,0.0,,,0,0.0
Pb4I2O4H2,2.275191,,,0,3.0
HfGe2Ru,0.0,-0.600233028291654,mp-1204281,0,0.0
NaPrHfTiO6,2.2549,-3.438231605637931,mp-1522207,0,3.0
Yb5P12Ir19,0.0,-0.877161327797618,mp-1215833,0,0.0
TbPrFe4,0.0,0.269983888611111,mp-1217477,0,0.0
Sm2ZnS4,1.621899999999999,-1.82563608,mp-675067,0,2.0
U3(SiC)2,0.0,-0.232828229999997,mp-28838,0,0.0
AlZnCrS4,0.0,-1.177997197857142,mp-1228837,0,0.0
Rb3Au7,0.0,-0.276466496250004,mp-31144,0,0.0
SrY,0.0,0.228532458333333,mp-1186769,0,0.0
Sr2LiIn,0.0,-0.240165594999999,mp-867208,0,0.0
LaTlZn,0.0,-0.360041314444447,mp-1018755,0,0.0
Na14Sc4Ta4Si11SO48,3.4374,-3.030826048408256,mp-2714578,0,5.0
TbZnGe,0.0,-0.788768200000002,mp-1208296,0,0.0
MgPt3O4,0.0,-1.101323791874999,mp-1210584,0,0.0
MgFeAgS2,0.0,-0.527172502333332,mp-2228220,0,0.0
LiPbN,9.999999999976698e-05,-0.04275620111111,mp-1247389,0,0.0
CaLaI5,1.887499999999999,-1.833648429285714,mp-770473,0,3.0
Y4(Cu2O5)3,0.8103,-2.059829053300001,mp-1335004,0,1.0
TaInNi,0.0,0.7493166550555561,mp-961692,0,0.0
EuAlGa,0.0,-0.5302447733333311,mp-1225194,0,0.0
Pr2Al2Co15,0.0,-0.073956467064557,mp-1188126,0,0.0
Nd3Lu,0.0,0.028265045208339,mp-1186275,0,0.0
SrTiGeO5,2.878599999999999,-3.044169573229167,mp-559957,0,4.0
SrMg6Si,0.0,0.059145114375,mp-1017456,0,0.0
Li2MgZr2H4(OF3)4,0.6743,-2.6872884762666662,mp-1223295,0,1.0
Li8TiS6,2.2861,-1.526205142666666,mp-753546,0,3.0
KPbO2,1.4532,-1.568944236187498,mp-28574,0,2.0
LiAlH2,0.0,0.108547800833331,mp-1211149,0,0.0
La2AgAs3,0.124499999999999,2.029051467638888,mp-1207354,0,0.0
CeThB12,0.0,-0.5577263978571421,mp-1226486,0,0.0
RbPb2Br5,3.0406,-1.484788659687499,mp-23043,0,4.0
BaSrTi2O6,1.7175,-3.513404691666667,mp-1227336,0,2.0
ErAl7Au3,0.0,-0.562638111666666,mp-16624,0,0.0
LiTm2(ClO)2,0.0,-2.722946161904764,mp-1236076,0,0.0
NbOF2,0.0,-2.98614324875,mp-752474,0,0.0
Eu3Tm,0.0,0.083478132083335,mp-1184443,0,0.0
Sb9S4F39,1.7301,-2.495519182019229,mp-14673,0,2.0
Ba2TmReO6,0.0,-3.07167965825,mp-13934,0,0.0
K3Zn4As3O17,0.133999999999999,-1.346101477194444,mp-1224561,0,0.0
BaSrBi3,0.0,-0.738515049499997,mp-1214332,0,0.0
Ca2AsI,1.5566,-1.500340893124999,mp-28554,0,2.0
AlInB,0.0,1.047582126033333,mp-631543,0,0.0
Ba4N8O24,3.590513,,,0,5.0
Y4Rh6Pb19,0.0,0.008864248965519,mp-1208196,0,0.0
Na3TlPCO7,0.0,-2.129311322085702,mp-768155,0,0.0
Na3B5SO8,4.122,-2.536758188233602,mp-560266,0,6.0
DyTiSi,0.0,-0.7309316788888881,mp-20954,0,0.0
NdRh3,0.0,-0.503514276041665,mp-864699,0,0.0
SnC8(NCl3)2,0.6509,1.9530747945465732,mp-1198081,0,1.0
K2NaMoI6,1.085899999999999,-1.064971140587931,mp-1110934,0,1.0
LiHPd,0.0,-0.408219288472221,mp-1018133,0,0.0
NdP2(HO4)2,0.0,-1.7073895985989,mp-1204204,0,0.0
Rb2CuPb(NO2)6,0.0,-0.926130674772727,mp-22515,0,0.0
Ca3(ClO3)2,0.0,-1.622517872727272,mp-1102874,0,0.0
AsPO4,4.5760000000000005,-2.198969101190476,mp-8140,0,7.0
VInPt,0.0,0.131659474444444,mp-961717,0,0.0
KP(OF)2,5.236499999999999,-2.874157661565477,mp-559062,0,7.0
Ba(Mo3S4)2,0.0,-1.163883688000015,mp-5716,0,0.0
In1Sn1Co3S2,0.178192,,,0,0.0
U7Te12,0.0,-1.096341625526322,mp-20414,0,0.0
Cs2S5O12,0.0,-1.406731666937386,mp-1213923,0,0.0
Ca3Y,0.0,0.122562598333333,mp-1183487,0,0.0
Nb2InC,0.0,-0.4825382937499999,mp-19835,0,0.0
LaGa2Rh3,0.0,-0.814432501666665,mp-1071252,0,0.0
USO6,1.9501,-2.7364963206249993,mp-17637,0,3.0
MgH2(SeO3)2,4.240200000000001,-1.624817587471591,mp-697236,0,6.0
Ba2YF7,7.167499999999999,-4.283659783000002,mp-777744,0,7.0
Ba2TiS4,2.096799999999999,-2.099204554761902,mp-17908,0,3.0
NiH20(C4N5)2,2.008899999999999,-0.234856437948718,mp-570535,0,3.0
Y3Ni,0.0,-0.207370064374998,mp-1105633,0,0.0
Ba2Pd1O3,0.041664,,,0,0.0
Ba4Cu3SeO12,0.0,-1.799391756117187,mp-1147525,0,0.0
TbSn2,0.0,-0.603541178888885,mp-1072922,0,0.0
CeGa2Ni,0.0,-0.576111439999995,mp-1025446,0,0.0
O12Pb8,0.979135,,,0,1.0
KUCuSe3,0.0,-1.297711085713539,mp-582421,0,0.0
Ac2SiHg,0.0,-0.461455381875005,mp-983586,0,0.0
AsClOF8,2.8596,-1.771880500681818,mp-1201143,0,4.0
Se4O20Na16,1.362327,,,0,2.0
Ho9B5S21,1.470499999999999,-1.742336199380949,mp-1224577,0,2.0
Sm3MnGaS7,0.0,-1.825130501910919,mp-1191873,0,0.0
Sr(ZnSb)2,0.0,-0.55789577,mp-7431,0,0.0
LiCu2(C2O5)2,0.143399999999999,-1.551207393725491,mp-1176814,0,0.0