formula,bg,formation_energy,mp-id,fidelity,bg_category
KNbCl6,2.2072,-1.89249050215625,mp-675801,0,3.0
Ag3Te2Au,0.1725,-0.105850737500001,mp-5710,0,0.0
KLiDyF5,7.3887,-3.808915327781249,mp-1211461,0,7.0
CaSiPd,0.0,-0.814780433333332,mp-8842,0,0.0
Li4Ga4S8,2.976014,,,0,4.0
NaLa2Y2PS5O24,4.2993,-2.71973288781492,mp-2714094,0,6.0
CsFe2S3,0.0,-0.950289332025856,mp-542475,0,0.0
Ho2Nb3Ge4,0.0,-0.7375992274999951,mp-1202575,0,0.0
Pr2CdS4,1.6469999999999991,-1.814673069583331,mp-36912,0,2.0
Ba2CaCuSn2F14,0.0,-3.21821492675,mp-1361075,0,0.0
K3Mn2Cl7,1.1779,-1.8909916789762944,mp-28076,0,1.0
LiHg2Rh,0.2458,1.115422807708331,mp-1093670,0,0.0
Mg6CdCO8,3.425199999999999,-2.132921014687499,mp-1033230,0,5.0
Zn5Pd3,0.0,-0.425067864999999,mp-1215488,0,0.0
Na2Sr(PO3)4,5.3329,-2.809370941122633,mp-540951,0,7.0
MgZrAu2,0.0,-0.59993698875,mp-864920,0,0.0
LaGaPt,0.0,-1.041668220833334,mp-1095587,0,0.0
BaC2(SN)2,3.9015,-0.726569811428571,mp-10928,0,6.0
SrCa3Hf4O12,4.44,-3.811308669499999,mp-1218454,0,7.0
Sc2FeB2Ru2Rh3,0.0,-0.6277362068333331,mp-1219440,0,0.0
Rb(CO)2,2.6948,-1.3185024625,mp-546810,0,4.0
MgSb2(RhO4)2,0.0,-1.592093255769229,mp-2219248,0,0.0
Cs2KGaF6,6.0476,-3.073085906406034,mp-989531,0,7.0
Zn2PdAu,0.0,-0.389478787499999,mp-1215448,0,0.0
CsHgF3,0.7228,-2.246846599431038,mp-561947,0,1.0
KBO2,4.1255,-2.6440814391041663,mp-3919,0,6.0
Li2AgGe,0.0,-0.241829315833333,mp-1184969,0,0.0
LiCr2(PS4)3,0.0,-0.733078859708994,mp-778530,0,0.0
NdGdIr2,0.0,-0.710643049374994,mp-1186378,0,0.0
BaGe2B,0.0,0.738176705208333,mp-631556,0,0.0
LiTm2Br5,0.0,-1.742148474166668,mp-1211067,0,0.0
Na2ErPCO7,4.5857,-2.7643219043667893,mp-767573,0,7.0
BeGe2Te,0.0,0.513970239583333,mp-631450,0,0.0
Li6FeN4,0.0,-0.5460529000000001,mp-1029739,0,0.0
AcLaCd2,0.0,-0.274911696875,mp-1183118,0,0.0
TaTe4I,0.5627000000000001,-0.626391921499993,mp-28691,0,0.0
Ca2SnAu,0.0,0.8745061387499999,mp-1097367,0,0.0
Y3Bi,0.0,-0.412033556180556,mp-1187735,0,0.0
SrMg14ZnO16,4.9841,-2.869875491875,mp-1034944,0,7.0
Ta3As,0.0,-0.384385178000002,mp-1198134,0,0.0
GaTeCl,2.1702,-0.818999890833334,mp-27449,0,3.0
Na5Nd4Si4O17,0.054999999999999,-3.153908374729885,mp-1193130,0,0.0
Na2AgAuCl6,0.0,-1.159400961442529,mp-1111541,0,0.0
Cu4O28B12Li12,2.079822,,,0,3.0
Ag6As2Se6,0.729594,,,0,1.0
ThP2H2CO8,1.9858,-1.88685342637755,mp-1199323,0,3.0
NaScInP(SO6)2,3.5723000000000003,-2.462782056353084,mp-2714607,0,5.0
Na3CuBPO7,0.0,-2.218105001380572,mp-756517,0,0.0
LiAsPd2,0.0,-0.5105556197916631,mp-862321,0,0.0
K2TiAl(PO4)3,2.9115,-2.985116810619047,mp-677733,0,4.0
Eu(YS2)2,0.453599999999999,-2.383789080178537,mp-38971,0,0.0
Nb3Cu,0.0,0.171096255000001,mp-1186214,0,0.0
CdNiP,0.0,0.551679837188494,mp-631410,0,0.0
Sn2O4,0.629998,,,0,1.0
LaInAg2,0.0,-0.408292476249997,mp-568917,0,0.0
PrP2(HO)7,5.2315,-1.864069436011904,mp-734771,0,7.0
Na4Ga2Si3Ge2(SO8)3,0.7994999999999991,-2.264733626307472,mp-2713706,0,1.0
Tb4Cu5P7,0.0,-0.903990570348959,mp-1217645,0,0.0
Cu2AgBiPbS4,0.5293,-0.488174187129629,mp-1225935,0,0.0
CsPtBr3,0.0,-1.014211876931034,mp-1213235,0,0.0
Mg2TaSbO6,1.106099999999999,-2.659767978233334,mp-1348334,0,1.0
Pr2Y2O5,0.0,-3.091418369814814,mp-1186702,0,0.0
LiGa(SiO3)2,4.4399999999999995,-2.889362718083334,mp-6241,0,7.0
Ba3LaY2(Cu3O7)2,0.0,-2.275214167115384,mp-1228381,0,0.0
NdNi3,0.0,-0.309904714374996,mp-1095561,0,0.0
Na5Ga4P5SO24,3.8086,-2.470232274639595,mp-2715010,0,6.0
Li3ScN2,2.401399999999999,-1.049828191874998,mp-542435,0,3.0
Rb2Na1Mn1F6,1.50429,,,0,2.0
Cs2Ge1Cl6,2.138443,,,0,3.0
Er3Ga8Ir3,0.0,-0.6506976707142841,mp-1104360,0,0.0
CdH5Br3N2,2.8322000000000003,-0.66716281215909,mp-1198034,0,4.0
Pb4P28,0.799636,,,0,1.0
Li3Fe,0.0,0.4056625075,mp-1185215,0,0.0
Zn10S10,2.721482,,,0,4.0
Sm2ZnAg,0.0,-0.295225897916665,mp-979057,0,0.0
Sb2S3,1.2866,-0.287243025187498,mp-2809,0,2.0
NaCaTaTiO6,2.5592,-3.297078093704598,mp-39712,0,4.0
Cr4FeCu(SeS)4,0.0,-0.788362952098214,mp-1226331,0,0.0
Al3Ni2Pt,0.0,-0.7399057316666651,mp-1228921,0,0.0
AsBr5F6,1.6507,-1.387976065208333,mp-28647,0,2.0
Zn2InCuS4,0.7250999999999991,-0.8898318270833321,mp-1215696,0,1.0
Zr6CoAs2,0.0,-0.724913500555557,mp-29135,0,0.0
PrSb3,0.0,-0.6428427304166641,mp-975802,0,0.0
MgFeWS4,0.239899999999999,-0.870058247857141,mp-1247392,0,0.0
Ba10GdY4(Cu3O7)5,0.0,-2.17207375423077,mp-1229303,0,0.0
La2Bi2Se4O2,0.713762,,,0,1.0
NaSrPrBiO6,0.0,-2.298584441054596,mp-1519121,0,0.0
Na3CaZr(PO4)3,3.7859,-2.961908288069992,mp-2715471,0,6.0
Zr3(Ni10B3)2,0.0,-0.449808846724137,mp-1193952,0,0.0
Co21(B3W)2,0.0,-0.134613936724139,mp-672221,0,0.0
H3CO2F,5.5308,-1.356881859821428,mp-1192496,0,7.0
Tb2Fe17C2,0.0,-0.056599762063492,mp-1217725,0,0.0
NbVSi,0.0,-0.461095274166657,mp-1220478,0,0.0
CeEu3,0.0,0.148830081249997,mp-1184049,0,0.0
Na4PuH7O9,0.8335,-1.830720174905582,mp-1200574,0,1.0
Hg12I8Se8,1.154816,,,0,1.0
LiNpRu2,0.0,0.097170501979164,mp-1185267,0,0.0
Na5Te2AuO28,0.034699999999999,-0.417571913339719,mp-1212047,0,0.0
Mg2Bi3O8,0.0,-1.803109676923077,mp-1042429,0,0.0
Te4MoW3(SeS)2,0.0,-0.38784784697917,mp-1028980,0,0.0
Tm3Ge3Ru2,0.0,-0.7826875550000011,mp-1105861,0,0.0
RbAgC2,2.6814,0.368285960208333,mp-1207136,0,4.0
Ba4B10Cl2O19,0.0,-2.861611105761904,mp-1194958,0,0.0
Cs2LiScF6,6.6268,-3.531894355666664,mp-1113081,0,7.0
Sr3Ta4TiO15,2.470099999999999,-3.467046486202899,mp-1218658,0,3.0
Cs2Sb2O4,2.408935,,,0,3.0
SiRh,0.0,-0.8408696187499981,mp-818,0,0.0
Xe4Sb2Cu1F20,2.120185,,,0,3.0
Rb2LiYI6,2.9884,-1.620097080833333,mp-1110744,0,4.0
Nd3Cu4(P2O)2,0.0,-1.463308204697801,mp-1209832,0,0.0
Cr2NiS4,0.0,-0.828262072857142,mp-27512,0,0.0
NaPb2C2O7,0.0,-1.723287811364941,mp-1191095,0,0.0
KCrIO6,2.5061,-1.474562101916666,mp-557449,0,3.0
SmGaAu2,0.0,-0.634731245624999,mp-972626,0,0.0
CaCd2In,0.0,1.075227323333335,mp-1096227,0,0.0
MgH12(ClO5)2,3.2582,-1.2137633526,mp-707373,0,5.0
Sr4Zn4O8,2.710402,,,0,4.0
Ca(B2O5)3,0.036099999999999,-1.70448792125,mp-1204348,0,0.0
TmNi5,0.0,-0.338314189999998,mp-11526,0,0.0
Na5Sc2Nb2Si3(PO8)3,2.2796,-2.9954724910467982,mp-2714053,0,3.0
Ho5P12Ru19,0.0,-0.8595362255753961,mp-1199917,0,0.0
SmCo3NiB,0.0,-0.273456495694444,mp-1103082,0,0.0
NdCd,0.0,-0.299887293749998,mp-1059,0,0.0
GdNiBi,0.0,-0.6714214433333361,mp-567422,0,0.0
KNaHf4(PO4)6,5.000500000000001,-3.2542226801801792,mp-1223505,0,7.0
BaLaMgRuO6,0.300899999999999,-2.756379858,mp-39249,0,0.0
YGa,0.0,-0.6466602412499991,mp-11420,0,0.0
FePH12(CBr)4,1.2953,-0.445005571801947,mp-1190395,0,2.0
NaTi3F10,0.0,-3.5621007104556672,mp-1120740,0,0.0
Tm2P4O13,5.7551,-3.176265521503759,mp-772232,0,7.0
Er2Au,0.0,-0.7473506830555571,mp-1102972,0,0.0
Na2Ca5Ge3(SO4)12,1.0168,-2.164332012253695,mp-2714875,0,1.0
SrLa2Ti3O9,0.0,-3.610828147000001,mp-1218904,0,0.0
YSc(BO3)2,4.452,-3.4722385793333332,mp-1215941,0,7.0
Ag2K2Se2,0.4730789999999999,,,0,0.0
Hf(VGa2)2,0.0,-0.349141078571431,mp-1025167,0,0.0
K2Ru(NO2)5,0.1857,-1.009613603305557,mp-1197421,0,0.0
BaSi2O5,4.7582,-3.360721377187507,mp-3031,0,7.0
Cs4Mn6Te8,1.422588,,,0,2.0
Tl2Hf3Cu2Se8,0.629209,,,0,1.0
Co2Se2O8,2.093552,,,0,3.0
Zn8Na8O12,2.026575,,,0,3.0
SiSbPt5,0.0,-0.437063003928585,mp-1025366,0,0.0
Na5Y4Si4O16F,4.7696000000000005,-3.299521337729885,mp-557696,0,7.0
Nd3Tm2(GaO4)3,3.6506,-3.363100337750006,mp-1210408,0,5.0
Sr2Hf7O16,4.4407,-3.934111165199997,mp-757149,0,7.0
BiP2O7,0.0,-2.304206742928571,mp-26210,0,0.0
Tl(V3S4)4,0.0,-1.258656017011491,mp-1216912,0,0.0
Na2HoNb5O15,1.9229999999999992,-3.010398228815592,mp-1210526,0,3.0
Cs2MgH8(CO5)2,4.440399999999999,-1.7534730226874071,mp-733936,0,7.0
Y(VS2)2,0.0,-1.441432635714284,mp-1045335,0,0.0
Li(BH)3,0.0,-0.258906044940476,mp-1211289,0,0.0
Ba2HCl2,0.0,-0.93184294625,mp-1214876,0,0.0
TaNi2TeSe,0.0,-0.642832238268748,mp-622009,0,0.0
KH9O5,4.7217,-1.348374966066667,mp-28196,0,7.0
NaLiO,2.8819,-1.674364853237547,mp-755144,0,4.0
Ce2USe5,0.0,-1.903603474902342,mp-985277,0,0.0
BaTa6O16,2.1822,-3.377683681043479,mp-769349,0,3.0
TmNiPb,0.0,-0.387984972500001,mp-1208118,0,0.0
VGaFe2,0.0,-0.298421076874999,mp-21883,0,0.0
ThCN,1.5224,-1.090921178749994,mp-30521,0,2.0
Sm3(CuGe)4,0.0,-0.6207811022727271,mp-1103415,0,0.0
Ca10Al6Si13N30,1.8951,-1.398868988305084,mp-695592,0,3.0
Nb2VMo,0.0,4.316059317499999,mp-1095742,0,0.0
Lu2ZnIn,0.0,-0.446912234583329,mp-973635,0,0.0
ZnCoH18N6Cl5,2.3904,-0.7439798391129021,mp-706995,0,3.0
CuH16C6S4(NO)6,0.6443,-0.368127059615384,mp-1198893,0,1.0
LaErMg2,0.0,-0.0630560287499999,mp-1185048,0,0.0
ZnRu2Br7N6,0.0348,0.516453721874999,mp-1207549,0,0.0
CeS3,0.0,-1.320858668437498,mp-1183858,0,0.0
Na1Cl7,0.380005,,,0,0.0
Mg6MnCr,0.0,0.27066995338362,mp-1022934,0,0.0
NbGeRu2,0.0,-0.267934366250008,mp-864669,0,0.0
AcTh,0.0,0.167875863749998,mp-1183157,0,0.0
CsLaMg6,0.0,0.236651436918103,mp-1021161,0,0.0
S8Zn4,1.72041,,,0,2.0
LiTlAg2,0.9163,0.929559551111118,mp-1096099,0,1.0
U(CuSn)2,0.0,0.018470090000002,mp-1080696,0,0.0
Rb3Bi2,0.0,-0.304667488500002,mp-1207251,0,0.0
HgCN2,2.4669,0.278421680624997,mp-29853,0,3.0
Mn2Na4S4O20H8,4.437306,,,0,7.0
CaAl3PSO14,0.0,-2.287321638107143,mp-1226903,0,0.0
Zr(PO4)2,0.0,-2.6477367067532462,mp-1201586,0,0.0
CaTmIn2,0.0,-0.539571607500001,mp-1183672,0,0.0
NaCdF3,3.482,-2.660950373275862,mp-4360,0,5.0
NaSrMg14,0.0,0.074328623742129,mp-1026674,0,0.0
Y12Si5S28,1.746699999999999,-1.815316970749998,mp-1216324,0,2.0
Na3NpO6,0.0097,-2.198706270788792,mp-1180326,0,0.0
Na2Tm2B2TeO10,3.1794,-2.867805426044626,mp-1195532,0,5.0
Mn9(NbGe4)2,0.0,-0.193621103493648,mp-29905,0,0.0
Cs2TlAsBr6,1.2314,-1.421802531014368,mp-1112112,0,1.0
NaScNb(PO4)3,2.4092,-3.004738187702291,mp-2713866,0,3.0
Ba4Na(IrO4)3,0.0,-2.038212114068966,mp-1228077,0,0.0
Y2Ga8Co,0.0,-0.476697727272726,mp-1103036,0,0.0
As2Na6,0.11566,,,0,0.0
Hf2Hg,0.0,-0.160965005833342,mp-1018154,0,0.0
GdTe,0.0,-1.601623279999998,mp-1184509,0,0.0
K3SbSe4,1.4318,-1.086499508265623,mp-8704,0,2.0
K4Sb2O5,2.5575,-1.853752598090911,mp-757850,0,4.0
Pa3Tc,0.0,0.123533861249995,mp-973853,0,0.0
Na3La2Al2P3(SO8)3,4.2257,-2.717427881907204,mp-2713862,0,6.0
TmCdRh2,0.0,-0.6039427575,mp-865206,0,0.0
Cs2HgBiI6,0.0,-1.077058503181035,mp-1113303,0,0.0
Ca(TbS2)2,2.1434,-2.38068118482143,mp-38327,0,3.0
MgScZn2,0.0,-0.307532452499999,mp-1185961,0,0.0
Mg8B16C16,1.018841,,,0,1.0
Rb2Be4Pt3,0.0,0.140508596111111,mp-795639,0,0.0
Pr5P12Ru19,0.0,-0.8763374566402111,mp-1205135,0,0.0
PbAu3,0.0,0.028900653437503,mp-982246,0,0.0
Pr2ZrSe5,0.7200999999999991,-1.98628279264323,mp-1195609,0,1.0
Er3C4,0.0,-0.346394796428571,mp-1203719,0,0.0
AgAs(S8F3)2,2.765,-1.08640704392361,mp-556837,0,4.0
Cs2Nb4O11,3.0055,-2.955835613341785,mp-581217,0,4.0
HfTeRu,0.0,0.253267908333332,mp-1100419,0,0.0
Ti3CuSn2(PO4)6,0.0,-2.69812474438492,mp-775589,0,0.0
Nb3Pb3N5,0.0,-0.399227097863636,mp-1246639,0,0.0
Zr4Te3N2,0.0,-1.252514544259254,mp-1246151,0,0.0
NaY3,0.0,0.299118803362068,mp-1186202,0,0.0
SrEu2BeO5,0.0,-3.090513773888891,mp-1218318,0,0.0
In3AsF6,2.9287,-1.930447624250004,mp-1212418,0,4.0
InH36C12S6(IO2)3,2.5131,-0.384114510026042,mp-24281,0,4.0
BeAlIr2,0.0,-0.7749259637500001,mp-865966,0,0.0
K3GaSe3,2.4441,-1.269708642325892,mp-541687,0,3.0
Ca2Ti2SiGeO10,2.7324,-3.259998187604166,mp-1227370,0,4.0
K3Au3I8,1.0602,-0.901752224410714,mp-1211892,0,1.0
BaSn5,0.0,-0.269230147499996,mp-571353,0,0.0
U5CrSb3,0.0,-0.02167383055555,mp-1207952,0,0.0
K2CeAgBr6,2.5986,-1.795749157616665,mp-1110919,0,4.0
CuCl,0.5569000000000001,-0.498003276249999,mp-1225654,0,0.0
Pb2Tl4Hf2Se8,0.578566,,,0,0.0
SrMn2Si,0.0,0.506373645593868,mp-631376,0,0.0
NdAl7Au3,0.0,-0.5195107870454531,mp-16622,0,0.0
Ca3Cu6(AsO4)8,0.1007,-1.590592010816326,mp-1351940,0,0.0
Sr2CaTi6N2O11,0.0,-3.096757538863636,mp-1233964,0,0.0
NaU2H5C4O15,2.2147,-2.11149905935664,mp-1204626,0,3.0
Sr(SiPd)6,0.0,-0.5959118126923081,mp-1218917,0,0.0
Na2SiO3,3.8657,-2.692845917126435,mp-4533,0,6.0
Cu2P2PbO8,0.0,-1.9978886910989,mp-582882,0,0.0
FeCoB2,0.0,-0.364744174583333,mp-1224999,0,0.0
AgF,0.0,-1.122615552499999,mp-7592,0,0.0
NaAgF4,1.546399999999999,-1.8731128199999991,mp-7386,0,2.0
U7(Se6O)2,0.0,-1.754359542767854,mp-1190315,0,0.0
Sm2GeRh3,0.0,-0.8351848724999991,mp-31402,0,0.0
Te(HO)6,3.0698,-1.307733724166666,mp-30981,0,4.0
Ba2SrTeO6,3.129199999999999,-2.730477315666667,mp-13356,0,4.0
LiDy(PO3)4,5.9658000000000015,-2.9289450921428553,mp-6413,0,7.0
SrGdCuSe3,1.0135,-1.793536467421874,mp-1190889,0,1.0
DyN7O15,0.0139,-0.531625184565217,mp-1213400,0,0.0
BeTcSe,0.0,0.416852705885416,mp-631462,0,0.0
CaEuHf4O12,0.0,-3.264570811388888,mp-1520501,0,0.0
SmAgAu2,0.0,-0.583560251666669,mp-867254,0,0.0
La2GeS5,1.9676,-1.834056909687506,mp-622086,0,3.0
Ni2Te12O26,1.981602,,,0,3.0
Hf(Ni2As)2,0.0,-0.492343598571428,mp-1104089,0,0.0
Cs2Zr(IO3)6,3.4585,-1.3684978555300131,mp-556129,0,5.0
SmCuSn,0.0,-0.599014081666666,mp-12791,0,0.0
Dy(MnSn)6,0.0,-0.13828193378868,mp-1105051,0,0.0
RbMg6Zn,0.0,0.2492504853125,mp-1022659,0,0.0
U6Al8Fe5Si9,0.0,-0.368792054999998,mp-1193401,0,0.0
K9Fe2Se7,0.454899999999999,-1.053200991480902,mp-21960,0,0.0
H5N2Cl,0.0,-0.194992783593749,mp-1181786,0,0.0
Sr3(TiN2)2,0.0,-1.262623303055559,mp-1247349,0,0.0
Y3ReB7,0.0,-0.668080343636365,mp-7625,0,0.0
ReBiO4,0.0,-1.9056163254166671,mp-27360,0,0.0
EuIBr,0.9729999999999992,-2.121622472500001,mp-31361,0,1.0
Ca2ScReO6,0.0,-2.973097350249999,mp-1214154,0,0.0
Be2PH5O7,5.2189,-2.004632560892856,mp-705909,0,7.0
HoMgTl2,0.0,-0.180134904166668,mp-864747,0,0.0
Sb2F6,4.437379,,,0,7.0
ThCoSn,0.0,-0.5246538094444411,mp-22339,0,0.0
Ba3GaS4Cl,3.1691,-2.13071918916666,mp-1198976,0,5.0
Ba(GaP)2,1.427699999999999,-0.655365195857142,mp-1105728,0,2.0
Li2Be2As2,0.978472,,,0,1.0
Li9(NbS2)14,0.0,-1.529307293921569,mp-767218,0,0.0
W7N6,0.0,-0.282912020576921,mp-1216967,0,0.0
PrNdSb,0.0,-1.013531304722221,mp-1219742,0,0.0
KEr2F7,7.250500000000001,-4.2256183490999994,mp-27925,0,7.0
Rb11Cu18(Cl15O)2,0.0,-1.299645648893443,mp-1205239,0,0.0
Sc3IrC4,0.0,-0.500057319999999,mp-570074,0,0.0
Tm4CdS7,1.205799999999999,-2.061892934375002,mp-1216548,0,1.0
Ba1Mn2O3,0.276483999999999,,,0,0.0
CeNi5Sn,0.0,-0.388559626428568,mp-574423,0,0.0
Rb2Cd5As4,0.0,-0.264851970454544,mp-1191656,0,0.0
K2Na2H16XeO14,0.9084999999999992,-1.125553452064531,mp-1195062,0,1.0
Na10Mg4In4Si3(S3O16)3,2.2766,-2.278994706341364,mp-2714726,0,3.0
YbSiPd2,0.0,-1.031596303749998,mp-1189833,0,0.0
Na2LiBiCl6,3.5061,-1.528863747083333,mp-1111659,0,5.0
Ga4Se4,0.831838,,,0,1.0
H10C4SN2,3.633099999999999,-0.20046189235294,mp-1203314,0,5.0
K2MnSe2,0.9895,-1.118830064423706,mp-8716,0,1.0
GdH7C2SO8,2.8774,-1.6155353171710531,mp-559733,0,4.0
Sb(C2N3)3,3.065,0.230562177499999,mp-1245690,0,4.0
ZnH2(SeO4)2,2.7465,-1.229102607091346,mp-24547,0,4.0
CaHoRh2,0.0,-0.627668618749997,mp-866283,0,0.0
Ba2DyGaSe5,1.6672,-1.906788933431712,mp-1105698,0,2.0
NaMgH3,3.103,-0.297041661525861,mp-23730,0,4.0
PrAs2Pd3,0.0,-0.8870552155555561,mp-1209563,0,0.0
Ho2ZrS5,1.2326,-2.168007852187497,mp-1199431,0,1.0
HfNbB2,0.0,-0.8173601312500011,mp-1224347,0,0.0
Y5Ga3,0.0,-0.4975373256249999,mp-672256,0,0.0
Cs6Ho21S34Cl,1.9586,-2.308875774644053,mp-1199243,0,3.0
La2PbF8,5.3332,-3.9664301354545457,mp-676816,0,7.0
Sr2Te6O16,2.179332,,,0,3.0
Gd(Mg4Al3)4,0.0,-0.048277029999999,mp-1185278,0,0.0
Ho5In3,0.0,-0.366502071874995,mp-1189750,0,0.0
HfScHg2,0.162299999999999,2.189963226249986,mp-1097378,0,0.0
Na2TaAuF6,1.189,-2.464241126243328,mp-1111549,0,1.0
Ti3Pb5F19,0.028599999999999,-3.093142687592592,mp-1208830,0,0.0
Rb2CuBrCl3,0.348199999999999,-1.63758293,mp-1219782,0,0.0
KBiO3,0.4914,-1.572585075950002,mp-29799,0,0.0
LiUAsO6,2.2759,-2.709139970648147,mp-558943,0,3.0
Na3WN2,0.0612,-0.025898083606321,mp-1247511,0,0.0
MnBe2,0.0,-0.250302259310346,mp-11270,0,0.0
Na10Ta4Zn4Si7S5O48,1.8701,-2.491941891717433,mp-2714127,0,2.0
Gd4As2O9,2.243999999999999,-3.143852511333333,mp-1178271,0,3.0
MgNb2(PO5)2,0.176,-2.784166830952381,mp-2215922,0,0.0
SbS2O9,0.1125,-1.253568051979167,mp-1198180,0,0.0
UO11,0.0,-0.917663627083333,mp-1178875,0,0.0
Mg1Al2S4,2.009828,,,0,3.0
Mg4Al9Cu(SiO4)9,1.9894999999999992,-3.238361179322034,mp-695202,0,3.0
Na8ZrZn3Si3(SO8)3,3.056899999999999,-2.378155258734949,mp-2715211,0,4.0
Na11Ti8(PO4)12,0.0,-2.82550602667789,mp-761068,0,0.0
SrUS2,0.0,-1.45565672703125,mp-674944,0,0.0
Cs2Pt1F6,2.714052,,,0,4.0
Ba6Ho2Al2Rh2O15,0.0,-2.937138739074074,mp-1228344,0,0.0
Sb1K1P2O8,2.956811,,,0,4.0
Li2B3O4F3,6.573499999999999,-3.002820090763889,mp-1196457,0,7.0
Gd3(CuGe)4,0.0,-0.6204493281818181,mp-621619,0,0.0
Cs3BrO,1.5515,-1.547563800793103,mp-1205638,0,2.0
Hf5Ge3,0.0,-0.7400822718749961,mp-1739,0,0.0
Ta2Cd(P2O7)3,3.6268,-2.78390624066746,mp-559692,0,5.0
Cs3Ag2Sb3S8,1.131599999999999,-0.8063513457686771,mp-1198053,0,1.0
La(AlBr4)3,2.6085000000000003,-1.7695752034375,mp-568896,0,4.0
Ca4Lu8S16,1.510878,,,0,2.0
ThCuPO,0.0,-2.170959519910713,mp-1087483,0,0.0
Sr3NiN3,0.0,-0.54462779839286,mp-1246578,0,0.0
Er5Ga2As,0.0,-0.835806705729169,mp-1225757,0,0.0
Li4CaB10(HO5)4,4.884799999999999,-2.627765837051282,mp-1202263,0,7.0
Nd7Ni3,0.0,-0.197628966749999,mp-1105619,0,0.0
CsTmZnSe3,2.171599999999999,-1.6387968836144051,mp-505713,0,3.0
Y3Ge5,0.0,-0.7753190293750051,mp-17118,0,0.0
Rb2Cd3H6S3O16,3.3659,-1.737310749166666,mp-542567,0,5.0
Cs4Ru2Cl10O,0.6222,-1.708788028595334,mp-679984,0,0.0
RbCoCuS2,0.0,-0.708456734499999,mp-1219564,0,0.0
Ca4SeN4,0.0,-1.073686653506945,mp-1246485,0,0.0
LaAlRh,0.0,-0.8327823137499991,mp-1211543,0,0.0
H2Pd(S2O7)2,1.021,-1.511231047023809,mp-1201925,0,1.0
CaCdS2,2.2388999999999992,-1.5482983012499991,mp-1227235,0,3.0
CaH12(W3Cl)2,0.0,0.446527763571428,mp-1214410,0,0.0
Ca5(Si3O11)2,0.274999999999999,-2.374325061515152,mp-1199479,0,0.0
Tm2Fe17C3,0.0,-0.08871759090909,mp-1208084,0,0.0
K2Zr(H2N)6,2.809199999999999,-0.541635250753967,mp-1196420,0,4.0
Sm2EuSe4,0.5113000000000001,-2.232783345178571,mp-1173299,0,0.0
Na4BrN3,0.0,0.5683274080603441,mp-1204306,0,0.0
BaF2,6.6029,-4.162401843333335,mp-1029,0,7.0
Ga2HgS4,1.5707,-0.826619146785716,mp-4809,0,2.0
Li2Pd2Ga2F12,0.941262,,,0,1.0
Sc2InOs,0.100099999999999,2.3771324883333342,mp-1096019,0,0.0
LaPd3S4,0.0,-1.113890505781249,mp-2889,0,0.0
EuZr2SnO6,0.0009,-3.169501646000001,mp-1518757,0,0.0
Ce(SeO3)2,1.2671,-2.138710006631945,mp-541090,0,2.0
Ti2ZnIr,0.0,2.471097613333333,mp-1095897,0,0.0
Sn4Zn2S12Na4,1.797627,,,0,2.0
Na3Al2(AsO4)3,3.386,-2.304288524956897,mp-556676,0,5.0
La6Se14Ag2Si2,1.707032,,,0,2.0
Li7Sn3,0.0,-0.393682952333333,mp-30768,0,0.0
Nd2Ge5Ir3,0.0,-0.7504412384999981,mp-1106400,0,0.0
Ba2F2Mn2Se2O1,2.084345,,,0,3.0
SiH10C2N4(OF3)2,5.5609,-1.496897098499999,mp-722686,0,7.0
Ca2CdGe,0.004699999999999,1.163878273750001,mp-1093877,0,0.0
Sn2Se2,0.197486,,,0,0.0
Cr9In7S24,0.0,-0.9214063346666652,mp-676500,0,0.0
Na9Ta7Zn5(PO4)18,2.3047,-2.755193235110978,mp-2716415,0,3.0
Li2Ca2Ta3O10,0.0,-3.208209978745099,mp-15902,0,0.0
Sc(ReO3)2,0.0,-2.518813405000001,mp-558610,0,0.0
CaGe,0.0,-0.7516937049999991,mp-2360,0,0.0
CoNiN,0.0,0.083275141833335,mp-1246020,0,0.0
KNaPrNbO5,3.4049,-2.9925289778106663,mp-558317,0,5.0
Ba4IrN4,0.0,-0.42939929,mp-1246507,0,0.0
Ni(RhSe2)2,0.0,-0.41746097255952,mp-4852,0,0.0
CsAlO2,4.273499999999999,-2.846654709913793,mp-14069,0,6.0
Ca8Ir2O12,0.0,,,0,0.0
Sn(CO)4,0.019199999999999,0.016649145833333,mp-1202685,0,0.0
Er10Mn13C18,0.0,-0.332954273734229,mp-1198824,0,0.0
Pr8(BCl)7,0.0,-1.401748467651512,mp-568295,0,0.0
Hg12Se6O25,0.0,-0.854451426024711,mp-1195762,0,0.0
Rb(Nb3S4)2,0.0,-1.397279265833346,mp-1219680,0,0.0
Ba2CaIrO6,0.0,-2.537359926,mp-20841,0,0.0
LiTiPCO7,2.8436,-2.672862814209956,mp-25418,0,4.0
AlSi9Ni16,0.0,-0.516726196987183,mp-1228673,0,0.0
Li4Pt,0.0,0.066144166333334,mp-1211180,0,0.0
RbOsO3,0.0,-1.610804351499998,mp-998602,0,0.0
La4CdCo,0.0,-0.189479653750001,mp-581510,0,0.0
TmRu3,0.0,0.093614302499998,mp-1187581,0,0.0
LaH13C3S3O11,4.321099999999999,-1.285322188346774,mp-698218,0,6.0
La4S8,0.597909,,,0,0.0
MgCoMoS4,0.0097,-0.8382241757142841,mp-1247143,0,0.0
InRhO3,1.0391,-1.504941201083333,mp-1203220,0,1.0
Na4Sn2Ge5O17,0.0038,-1.989845989304187,mp-1199922,0,0.0
GdEr3,0.0,0.021126878750003,mp-975612,0,0.0
YSi2Ag3O7,1.3627999999999991,-2.373460021282052,mp-1207721,0,2.0
Na4YAlSi(PO6)2,4.0335,-2.936742171816014,mp-2714545,0,6.0
SrLa7Cu4(SnO6)4,0.0,-2.709066436125,mp-694970,0,0.0
Cs11Rb7O3,0.0,-0.516089229343186,mp-572722,0,0.0