formula,bg,formation_energy,mp-id,fidelity,bg_category
ZrH7CN4F5,4.319,-1.55747899076389,mp-722270,0,6.0
Mg6SiGe2,0.271799999999999,-0.201845083333333,mp-1222090,0,0.0
Li4H3ClO3,4.4775,-1.8546471983712112,mp-643259,0,7.0
K4GeH4N2O3,2.687999999999999,-1.174372120107143,mp-720197,0,4.0
Ni1Si3P4,0.3568059999999999,,,0,0.0
DySiPt,0.0,-1.188239201388884,mp-20571,0,0.0
Tl3N3O6,1.351037,,,0,2.0
PrTlCd,0.0,-0.433045685555555,mp-1018942,0,0.0
Y3Ga15Ru4,0.0,-0.5129223182954551,mp-1210366,0,0.0
La3ScBi5,0.0,-1.03645002722222,mp-569411,0,0.0
Na6La8Si3(S3O16)3,3.7701,-2.748241121384359,mp-2713961,0,6.0
Cu1O4N8C6H4,1.557088,,,0,2.0
Nb2O3F2,0.2096,-3.031614809285713,mp-753532,0,0.0
Ba10Re6CO30,0.0,-2.573378435319149,mp-1228940,0,0.0
Na3Si2Sn2PO12,2.9557,-2.58306704893904,mp-2715487,0,4.0
Na3CoN2,0.348199999999999,-0.028579199346264,mp-1247563,0,0.0
Na3Ti2Nb2Si3(PO8)3,2.6679,-3.013941487605401,mp-2712999,0,4.0
Y(Cd10Ni)2,0.0,-0.051115742391302,mp-1195833,0,0.0
KSi2HO5,5.0122,-2.785849177055555,mp-1203642,0,7.0
FeBiSbS4,0.1598,-0.488263354642857,mp-601716,0,0.0
Si5H42(C7N)2,4.0818,-0.262789751031746,mp-1201090,0,6.0
Tm2MgSe4,1.4057,-1.952045741339285,mp-15802,0,2.0
CuSe2Br,0.8486,-0.584083218046874,mp-29567,0,1.0
CdGaPd2,0.1206,1.101213965625001,mp-1097377,0,0.0
Sr2HgSb,0.0,0.560138961874998,mp-1097227,0,0.0
FeCu5S4,0.0,-0.358184722999999,mp-675830,0,0.0
VH21C7N4Cl7,1.5863,-0.377733038093749,mp-710509,0,2.0
YZn2Cd,0.0,1.4630163025,mp-1096174,0,0.0
Ce4Zn3Sb8,0.0,-0.7262668079999981,mp-1226943,0,0.0
Tb3Ce,0.0,0.0397689475,mp-1217716,0,0.0
Bi2Ba4Se10In2,0.993446,,,0,1.0
RbSeBr3,1.2364,-1.095789010968749,mp-998299,0,1.0
U2Co2Sn,0.0,-0.178101630999996,mp-22360,0,0.0
KCuCl3,0.268199999999999,-1.29111858725,mp-27450,0,0.0
As2SeS2,1.2161,-0.076119631604181,mp-1229167,0,1.0
MnTl3,0.0,0.390205288017241,mp-975059,0,0.0
BaNaSb,0.422899999999999,-0.694239730459769,mp-961774,0,0.0
Ni2Rb4O4,2.8822419999999997,,,0,4.0
BePd3,0.0,-0.381979747499999,mp-13453,0,0.0
Rb4Mo21S25,0.0,-1.022409289349999,mp-579861,0,0.0
K2H2C3S2O7F6,5.5289,-1.75046468725,mp-699253,0,7.0
Na2Ca2SiSn2S5O24,0.0,-2.256511536859036,mp-2714334,0,0.0
Ba2TbIrO6,0.0,-2.770439125666666,mp-12410,0,0.0
CrRe3B4,0.0,-0.181406036249995,mp-1226262,0,0.0
TbGaAu,0.0,-0.78973157138889,mp-1217530,0,0.0
CaLaO3,0.0,-2.667460735999999,mp-1183562,0,0.0
Ti2Ag2P2S11,0.6643,-0.88437805392857,mp-623058,0,1.0
La2MgSbO6,0.0,-3.012830934499999,mp-1403741,0,0.0
CaInAg2,0.0,-0.312169444999998,mp-1183617,0,0.0
KCaI3,3.602399999999999,-1.793116879450001,mp-1205722,0,5.0
V3Bi2,0.0,0.342292928499995,mp-1120800,0,0.0
K3Bi5(PO4)6,4.0925,-2.458142991305451,mp-565692,0,6.0
CaMg6BiO8,0.0007,-2.556248723125,mp-1031768,0,0.0
Er15Fe4Ru4C25,0.0,-0.293568210520833,mp-1226143,0,0.0
Na4CaZr3(PO4)6,3.8079,-3.055900042983537,mp-2713661,0,6.0
Lu8C14,0.0,,,0,0.0
RbPO4,0.0,-2.03799529702381,mp-726130,0,0.0
CuH24C9S3IN6,2.6997,-0.256267619034091,mp-1196314,0,4.0
Tb12FeCoBi4,0.0,-0.429946735555555,mp-1217857,0,0.0
Na9Al2(H9O7)3,3.6299,-1.595808440019725,mp-1199831,0,5.0
RbGeCl3,3.7529,-1.691380211499999,mp-27369,0,5.0
LuAlNi,0.0,-0.6512075244444431,mp-1079819,0,0.0
U4Ga12Co,0.0,-0.370751324705876,mp-641621,0,0.0
Al2Si4Mo3,0.0,-0.415967468492063,mp-1228443,0,0.0
Ga2Pd5,0.0,-0.5673327939285691,mp-405,0,0.0
Cs12Sb4S16,2.14956,,,0,3.0
Ga4Bi3N,0.0,0.152938396718745,mp-1224888,0,0.0
DyS2,0.0,-1.908543638541665,mp-1018675,0,0.0
Na2Ca2Ti2SiS5O24,1.2486,-2.517421639266444,mp-2714520,0,1.0
In5(SiN3)3,0.0139,-0.241676966102938,mp-1245359,0,0.0
Na2Sr(P2O9)2,0.567399999999999,-1.377179334853201,mp-1180362,0,0.0
Ho2MgCu2,0.0,-0.223123537999998,mp-1205563,0,0.0
LaYbS3,0.0,-2.470636438687498,mp-8215,0,0.0
TmCuPb,0.0,-0.35469634833333,mp-20663,0,0.0
Bi11PO20,0.0,-1.68228415983259,mp-758223,0,0.0
Eu3Th,0.0,0.219296820000003,mp-1184405,0,0.0
Ba5CrN5,0.1251,-0.8842139368181821,mp-29082,0,0.0
Ho2Co17,0.0,-0.078507607631578,mp-1023,0,0.0
MgAlVS4,0.0,-1.353581971428571,mp-1246431,0,0.0
Zn1Si1Cu2Te4,0.3755119999999999,,,0,0.0
LiIn2Ni,0.0,-0.273389036666664,mp-1185381,0,0.0
Na12Cu4Sn4Se16,0.925108,,,0,1.0
W9C4,0.0,-0.022551838461534,mp-684989,0,0.0
Ag5HgSbO6,0.0,-0.808870453910256,mp-1194068,0,0.0
Hf10NiSb5,0.0,-0.5460718799999991,mp-1224579,0,0.0
Ni6SnTe2,0.0,-0.273742513148146,mp-1219797,0,0.0
PuPb2,0.0,-0.009445992083327,mp-1102374,0,0.0
SnH6C(NCl)3,3.0469,-0.757991641071428,mp-1199443,0,4.0
Ce3(GaNi)2,0.0,-0.479402137142855,mp-1194147,0,0.0
MgRh2Pb,0.0,-0.315811041249999,mp-977571,0,0.0
TbGaAu2,0.0,-0.657128586041666,mp-1187339,0,0.0
Ba4Hg8Cl8O8,1.580152,,,0,2.0
Sm(CrSi)2,0.0,-0.311007634500001,mp-567830,0,0.0
TiMnSn4,0.0,-0.106054815766282,mp-1208338,0,0.0
MnFe3,0.0,0.051220863017242,mp-999542,0,0.0
CaIn4(Ge2O7)2,0.0,-1.882386421594201,mp-1233935,0,0.0
Nd2S4N2O17,0.0,-1.4006078712,mp-1191304,0,0.0
Tm2Mo2C3,0.0,-0.512303087142856,mp-1025369,0,0.0
LaSb5O12,3.1365,-2.182705333611111,mp-31419,0,5.0
Hg6Te4Cl4,1.990662,,,0,3.0
Na6HfZn7(SO4)12,4.1530000000000005,-2.041382013670395,mp-2715217,0,6.0
Sc2Si2Ru,0.0,-0.8603050130000001,mp-13583,0,0.0
I6B2,2.569204,,,0,4.0
SnCl2,3.1002,-1.055039141666666,mp-29179,0,4.0
LiI,4.3818,-1.422324364166667,mp-570935,0,6.0
LaNb7O12,0.416299999999999,-2.8816067825,mp-29183,0,0.0
B2Pb6SO12,2.9511000000000003,-1.9778218513492052,mp-553930,0,4.0
Zn3Cu2H14(SO9)2,0.0,-1.439818714679487,mp-1204058,0,0.0
TiCuAu2,0.0,1.694898046666666,mp-1096596,0,0.0
Rb4Cd4Br12,2.704963,,,0,4.0
Li4Ga4P4O17F3,0.084999999999999,-2.607063370372024,mp-1222599,0,0.0
V5Bi3,0.0,0.322678028437497,mp-1120797,0,0.0
SbP3C(NCl5)3,2.0859,-0.998942884736034,mp-647342,0,3.0
TiP3,0.0,-0.088518524494048,mp-980204,0,0.0
LiYb2Ir,0.0,-0.7426528991666671,mp-864759,0,0.0
NaMg6Al3Si6(BO10)3,0.0,-2.844099041201618,mp-1221241,0,0.0
Na2ZrSiGe(PO6)2,3.058099999999999,-2.813013006423387,mp-2712729,0,4.0
CeReB4,0.0,-0.577357480277775,mp-22361,0,0.0
KHgC3(SN)3,1.8915,-0.212660478386364,mp-630760,0,3.0
FeSn2,0.0,0.012180615,mp-22752,0,0.0
Sm3S3N,1.3713,-2.205252602499998,mp-4038,0,2.0
LiMg2Pd,0.0,-0.459120258333332,mp-977380,0,0.0
Ta5As4,0.0,-0.583565058518521,mp-8312,0,0.0
DyCuSe2,1.066799999999999,-1.4194057257812491,mp-675349,0,1.0
LaBiPd,0.121699999999999,-1.09791517666667,mp-1206717,0,0.0
LiHg3,0.0,-0.200812466041668,mp-1079267,0,0.0
Ti2Zn2O6,2.844583,,,0,4.0
Y2GaAg,0.0,-0.465876212291666,mp-1187711,0,0.0
LiPu2TeO2,0.0,-2.122389926249995,mp-1235186,0,0.0
Ba3Nd,0.0,0.181071070625,mp-1183351,0,0.0
LiTi2(PO4)3,2.4425,-3.018196908273809,mp-18640,0,3.0
C2SeN2,3.3719,0.450684779031249,mp-639826,0,5.0
Ag2Ge(S2O7)3,2.8072,-1.599947565999999,mp-1196546,0,4.0
Na3H5(SeO4)4,3.4814,-1.371419431777247,mp-1193700,0,5.0
Ba3LiIr2O9,0.0,-2.186956230222224,mp-554837,0,0.0
Ho2GaCo2,0.0,-0.410950735499999,mp-1206810,0,0.0
Na7Mg2Zr2SiP5O24,3.7122,-2.916894900232589,mp-2715543,0,5.0
Eu2ZrO4,0.1058,-3.419125524285717,mp-1206153,0,0.0
TiGeRu,0.0,-0.7267062684007921,mp-1188712,0,0.0
Ho2Si4CN6,3.2459,-1.3770119799999991,mp-6825,0,5.0
Nb10N11O,0.0,-1.297280783409091,mp-1173557,0,0.0
Li2TmTl,0.0,-0.261420439046297,mp-975786,0,0.0
Tm2NiAs2,0.0,-1.209438374000003,mp-11581,0,0.0
Li3YN2,2.079799999999999,-0.9234487106249992,mp-1029592,0,3.0
ZrZnIr2,0.0,-0.7596843924999981,mp-1183038,0,0.0
Ba2(CaAl3)3,0.0,-0.288931049285713,mp-1228507,0,0.0
Y2InGe2,0.0,-0.700015085333333,mp-1206898,0,0.0
Ba4UCr2S9,0.0,-1.861490918177082,mp-21686,0,0.0
B10H13I,2.5463,-0.202337827725694,mp-1199051,0,4.0
Rb3Ru,0.0,1.112438989375,mp-974810,0,0.0
CsUP2(HO4)2,0.147,-2.384761917245776,mp-1199474,0,0.0
DyTm3,0.0,0.001715199999992,mp-1184143,0,0.0
Mn3Os,0.0,0.257254487887934,mp-1185935,0,0.0
YbZnPt,0.0,-1.100896796666669,mp-13026,0,0.0
Li3CuN2,0.0,-0.206682426061508,mp-1246961,0,0.0
Sn4P2O9,3.1685,-2.204915951619048,mp-561545,0,5.0
SmErTl2,0.0,-0.338921110416669,mp-978543,0,0.0
Nb5(SeS)2,0.0,-0.981168859965278,mp-1220382,0,0.0
Hf2Al3Ni,0.0,-0.586813046666667,mp-1223828,0,0.0
Al2Si3(NO5)2,0.0,-1.995839814411764,mp-1196501,0,0.0
FeCu8Sb3S13N6,0.0,0.387567587499999,mp-1196630,0,0.0
SmYO3,4.2852,-3.844085645,mp-755685,0,6.0
Cs2GaHgCl6,0.0,-1.668577993931035,mp-1113202,0,0.0
NaYZrS4,1.079799999999999,-1.942901240197044,mp-1220690,0,1.0
Na2ZrSi6O19,0.0,-2.40858781991995,mp-1210412,0,0.0
RbReN2,0.0,-0.366810465937501,mp-1080850,0,0.0
Tb3(GeRh)2,0.0,-0.917320642142854,mp-1208569,0,0.0
Pr(AsPd)2,0.0,-0.8529325593333341,mp-570183,0,0.0
CsSm2Ti2NbO10,1.4476,-3.400208304145116,mp-1225973,0,2.0
Eu3Sb,0.0,-0.6076871875000031,mp-1184203,0,0.0
Ba8Mn6O20,1.033327,,,0,1.0
Y(AlCu)6,0.0,-0.389353766153847,mp-1216210,0,0.0
CaClO,0.6506000000000001,-2.302852986666666,mp-726702,0,1.0
PmSmMg2,0.0,-0.089596940625,mp-862964,0,0.0
KU2H5C4O15,2.1426,-2.120449471425926,mp-554037,0,3.0
Yb3Mo,0.0,0.323027353749999,mp-1187964,0,0.0
Ba5Tm2ZrAl2O13,2.493099999999999,-3.505004390434783,mp-1214492,0,3.0
Na8Al11Si13(AgO16)3,2.1602,-2.9322906420004142,mp-677572,0,3.0
ThFe4Ni,0.0,-0.094308458333332,mp-1217349,0,0.0
Zr(FeSi)2,0.0,-0.626345204,mp-569247,0,0.0
Ti2NiH,0.0,-0.353001456979166,mp-644259,0,0.0
K8AsO3,0.0,-0.8736821425416661,mp-1095551,0,0.0
Bi12PbO20,1.691799999999999,-1.5947809093939371,mp-667342,0,2.0
Ca4Fe3As8Pt,0.0,-0.6066798437500001,mp-1227730,0,0.0
NbPb2Se2ClO8,2.3641,-1.853369136763392,mp-1193560,0,3.0
Ta2Cl5,0.056,-1.7210291288809512,mp-23274,0,0.0
LiNbPO5,0.0,-2.761183432872023,mp-774859,0,0.0
CdH16C4(NCl2)2,3.4096,-0.5642678330555551,mp-568812,0,5.0
ZrNbN2,0.0,-1.521874890625003,mp-1215256,0,0.0
TaNi,0.0,-0.246536440839743,mp-1217954,0,0.0
CsYbCl3,5.3324,-2.106338284499998,mp-1070599,0,7.0
NdZnPO,1.231799999999999,-1.996526119285714,mp-9518,0,1.0
Tm(AlCr)6,0.0,-0.119849806153846,mp-1216674,0,0.0
Te4Mo2WSe2,0.3986,-0.346948514791658,mp-1025675,0,0.0
NdGaPt,0.0,-1.020425134166665,mp-1103572,0,0.0
LaMgO3,0.0,-2.943346983,mp-1184964,0,0.0
YbB2,0.0,-0.7654443500000001,mp-10145,0,0.0
CuSb2(XeF4)6,0.0,-1.57046051,mp-560231,0,0.0
In3Sb5O12,2.328299999999999,-1.824100506499999,mp-28617,0,3.0
Zn(SbO2)4,1.8582,-1.677023276153845,mp-1046270,0,2.0
Ba4Ge8As8,0.022421999999999,,,0,0.0
Rb2Cd3H10S4O21,3.5315,-1.6993236903125,mp-1211234,0,5.0
Sr2F4,6.51859,,,0,7.0
Li3P11(H3N)17,1.9745,-0.408482023473431,mp-722502,0,3.0
Ga2PbO4,3.4457,-2.070018908571427,mp-20496,0,5.0
Pb4SO8,0.0,-1.496315438269229,mp-1193720,0,0.0
U2Ga5Cu3,0.0,-0.102405335749998,mp-1217218,0,0.0
In12Se19N2,0.0,-0.208035625317234,mp-1226983,0,0.0
Na2Al2Sb3,1.102199999999999,-0.397485729464284,mp-30039,0,1.0
LaY3Ti4O14,2.8136,-3.740304071742424,mp-1222804,0,4.0
Se4N4S2As4F24,2.285268,,,0,3.0
Bi5P3O12F,0.0101,-1.980425926377551,mp-1214374,0,0.0
In4P6Pb2O23,3.7106,-2.454213285129251,mp-1224124,0,5.0
Y3Ni13B2,0.0,-0.408941680462962,mp-567863,0,0.0
Cs2Mn(TeS3)2,0.687199999999999,-0.621066829615841,mp-1192359,0,1.0
Yb4Co,0.0,0.353643298000002,mp-1207631,0,0.0
GaGePt6,0.0,-0.384239164062496,mp-1224823,0,0.0
BaNdEuNbO6,0.1223,-3.353430624750001,mp-1518460,0,0.0
Re3Te4Br3,0.0,-0.5709196749166671,mp-1209284,0,0.0
La7Ir3,0.0,-0.585843329000001,mp-1105837,0,0.0
MgAl2(Si3O8)2,4.4704999999999995,-3.232082622199999,mp-1233307,0,7.0
Tb3Ag,0.0,0.015671212083335,mp-1187267,0,0.0
Sr3(GeN)2,0.0,-0.7668531057142841,mp-29088,0,0.0
LaY3Ti4O12,0.0,-3.602087057916667,mp-1222863,0,0.0
Na5Nb2Ga2Si3(PO8)3,2.3757,-2.746464432542525,mp-2714318,0,3.0
LiCa3,0.0,0.067862878333332,mp-1185350,0,0.0
Ta4WC5,0.0,-0.474069924933331,mp-1218023,0,0.0
Na2Li3GaO4,3.5213,-2.074097865275861,mp-540945,0,5.0
Te(AsO2)2,0.0,-1.138008560238095,mp-1217487,0,0.0
K2TlPCO7,1.2579,-2.131631461456349,mp-1178146,0,2.0
K2CoS2,0.0,-0.912805718291666,mp-5131,0,0.0
Se4Ga4,0.954035,,,0,1.0
Sm(CoB)4,0.0,-0.474816989629631,mp-1105839,0,0.0
Mn4IrN4,0.0,-0.187188120747126,mp-1246345,0,0.0
Mg17Al11Pd,0.0,-0.066058249482758,mp-865352,0,0.0
Eu2Al3Ag,0.0,-0.393477641249996,mp-1225429,0,0.0
NaTiGe(PO4)3,2.569899999999999,-2.739685529183772,mp-2713361,0,4.0
Hf4CuSi3,0.0,-0.656177658749999,mp-1224354,0,0.0
UHg4(AsCl3)2,0.3242,-1.164319996250001,mp-570252,0,0.0
InGeP(SO6)2,1.8718,-2.009305592135855,mp-2712909,0,2.0
CsRb2Bi,0.1872,-0.302958773663794,mp-1185546,0,0.0
Al6W5N16,2.2371,-0.8491749508564811,mp-1246158,0,3.0
TbMgTl,0.0,-0.318017896111113,mp-1206540,0,0.0
BaCdAs2O7,2.5654,-2.101627822272726,mp-1190335,0,4.0
Hf2(Co7B2)3,0.0,-0.259579637413802,mp-1194066,0,0.0
SrGe4O9,3.0685,-2.338752899642857,mp-9380,0,4.0
TmSiPt2,0.0,-1.177647143125001,mp-1190240,0,0.0
Li7PSe6,0.9336,-1.118473910108418,mp-1211446,0,1.0
Y2MoO6,1.9796,-3.153788929999999,mp-31124,0,3.0
YCr5Fe7,0.0,0.031088517692308,mp-1216062,0,0.0
Mg6BiB,0.0,0.213196822604166,mp-1017230,0,0.0
In4Bi2S9,1.6307999999999991,-0.6317526160208331,mp-27195,0,2.0
Al2ZnO4,3.845999999999999,-3.021072628571429,mp-2908,0,6.0
Ca3Zr2O7,3.3234,-3.5628100291666662,mp-756052,0,5.0
Ba2Na(SnAs)6,0.0,-0.453373910425287,mp-1228433,0,0.0
Ba3Mo3N5,0.0,-0.636882517272729,mp-1246568,0,0.0
La3InCoS7,0.0,-1.790231285347221,mp-1192284,0,0.0
Cd4Sn4K8S16,1.455516,,,0,2.0
AlVCr2,0.0487,3.157587792500001,mp-1096125,0,0.0
Ba4Ge23,0.0,-0.179283108518519,mp-1214616,0,0.0
In6Ge2PtO9,1.3445,-1.751959449166666,mp-22186,0,2.0
La5S7,0.0,-2.244597854973953,mp-1223399,0,0.0
Na2Cu(ICl)2,0.0,-1.20437124182266,mp-1147764,0,0.0
LaBi2(CO)2,0.0,-0.334345667857144,mp-1147562,0,0.0
Ni4O8Sr1,0.43991,,,0,0.0
K6Ni6Cl18,3.39159,,,0,5.0
Pr(FeAs3)4,0.0,-0.365806701862735,mp-1189397,0,0.0
Ba3(CdSb2)2,0.0,-0.846956712222224,mp-571069,0,0.0
Ce3CuSnS7,0.0,-1.695654588541664,mp-510567,0,0.0
SmYS2,0.0,-2.2483487075,mp-1218975,0,0.0
CaHf3SiS5O24,3.1879,-2.687456128946078,mp-2713012,0,5.0
SiRu,0.229899999999998,-0.6545326474999981,mp-189,0,0.0
Zr2OsRu,0.0,-0.713463296250004,mp-977549,0,0.0
LaCuTeO,1.1839,-2.177470654166667,mp-546790,0,1.0
CeBN2,0.0,-1.498592068958333,mp-29595,0,0.0
K2Mg2(SO4)3,5.6845,-2.381485589710526,mp-6299,0,7.0
Sr2P7Br,2.1331,-0.7776184609999971,mp-1195664,0,3.0
NaAsSe2,1.4318,-0.650343115781248,mp-984519,0,2.0
NaGaSiSn(SO6)2,2.4245,-2.166437300215518,mp-2712773,0,3.0
Ca(GaSe2)2,1.922499999999999,-1.172936590357143,mp-13873,0,3.0
BeAu3,0.0,0.0800051237499999,mp-983539,0,0.0
B11(Pb2O9)3,0.0,-2.0981186941477272,mp-1199204,0,0.0
Sr3Ir6P6,0.403282,,,0,0.0
HoTlRh2,0.0,-0.551500002083331,mp-976590,0,0.0
K2Na6Zn4Si14O45,0.2925,-2.081567289405294,mp-1196368,0,0.0
Sb1S2F6N1,2.63866,,,0,4.0
As2O3,4.0339,-1.626348611000001,mp-1582,0,6.0
Cu2PbO2,0.629,-0.981045425999998,mp-29396,0,1.0
SrGeO3,3.4179,-2.743115335333333,mp-17464,0,5.0
Pr(Co2B)6,0.0,-0.324471977192982,mp-1105562,0,0.0
Ti5MnS10,0.0,-1.519785353099855,mp-1217196,0,0.0
Gd3CuSiSe7,0.844399999999999,-1.615131611367189,mp-641576,0,1.0
Nd2TlHg,0.0,-0.422012687708337,mp-1186255,0,0.0
CeSb3Pd,0.0,-0.476944873000013,mp-1078616,0,0.0
ErHCl,0.0,-1.610010280416666,mp-24051,0,0.0
Te16Ga8K8,1.254641,,,0,2.0
HgCBr3N,0.0,0.341416699583331,mp-1102100,0,0.0
HoScO3,4.476,-3.965070402999999,mp-31121,0,7.0
LaOs2Rh,0.0,0.758729136249998,mp-631522,0,0.0
LiP4(RuO7)2,0.030999999999999,-2.257291626757368,mp-1211129,0,0.0
Ba4Tl2O14H14,2.360364,,,0,3.0
HfMg14B,0.0,0.213631219427083,mp-1026463,0,0.0
K2PrZr(PO4)3,4.4282,-3.140609015662908,mp-556867,0,7.0
Pd(SeBr3)2,1.3249,-0.588552463854165,mp-29496,0,2.0
Rb2MgBi2O5,0.6324000000000001,-1.6456868205,mp-2228078,0,1.0
La4Se24P8K4,1.964674,,,0,3.0
Rb2Li3B(P2O7)2,5.5554,-2.738594326780752,mp-1020705,0,7.0
Rb5Re3S7,1.6441,-1.101806723499998,mp-676329,0,2.0
KMgSb,1.267199999999999,-0.632861344083333,mp-7089,0,2.0
ZrMnNi,0.0,-0.279755664310344,mp-1215315,0,0.0
Ba2LaMgNbO6,0.0,-2.8227559099999993,mp-2217682,0,0.0
ErCl3,3.7739,-2.431907822708332,mp-863029,0,6.0
CrCoH18(CN2)6,1.8356,-0.23530092611842,mp-24376,0,2.0
Ca8Pd2O12,1.882897,,,0,3.0
K4Te4Na4,1.939156,,,0,3.0
Na5La3HfSi3(SO8)3,3.5504,-2.838952764642647,mp-2713176,0,5.0
Sr12Sn8As16,0.664015,,,0,1.0
BaMg6Zn,0.0,0.06159166375,mp-1022622,0,0.0
Pb10S(ClO3)4,0.044,-1.551441793240739,mp-1180071,0,0.0
CoCN2,0.0,0.200496389375,mp-567767,0,0.0
LiSn2N3,0.8538999999999991,-0.196823265555555,mp-1029294,0,1.0
ReN2(OF4)2,0.1732,-1.703244030384614,mp-623064,0,0.0
Hf5Sn4,0.0,-0.437330000555555,mp-510691,0,0.0
Th4C3,0.0,-0.387404339999997,mp-1217395,0,0.0
Ba4La2Cu6O13,0.0,-2.198501341000001,mp-1228239,0,0.0
SnBrF,1.9941,-1.8203426883333331,mp-989193,0,3.0
K2CdSnSe4,1.6721,-1.052944497359374,mp-1079645,0,2.0
DySiOs2C,0.0,-0.6172180609999941,mp-1205579,0,0.0
Li2Sn(SO4)2,3.7469,-2.040846587628204,mp-780576,0,5.0
CdH4CS2(NO3)2,0.0,-0.477606433671875,mp-1198870,0,0.0
Rb14ZnGe16,1.0649,-0.181603568064516,mp-1194699,0,1.0
Ca5Zn3,0.0,-0.200851730624999,mp-2786,0,0.0
Bi12Si1O20,2.34794,,,0,3.0
Sr4Hf4S12,1.46941,,,0,2.0
BH8CN,6.158,-0.250448400833333,mp-567989,0,7.0
Ni2F4,5.188566,,,0,7.0
K4Mg4N8D12,1.760321,,,0,2.0
Pb2Cu6V4Cl4O16,0.925348,,,0,1.0
BaLiZr2F11,5.7585,-3.9773184472222223,mp-555845,0,7.0
Ba2CuClO2,2.3029,-2.449774615,mp-551456,0,3.0
Hf2Si(SO6)2,4.5141,-2.860605034607843,mp-2713341,0,7.0
Mg3Cu(SnS4)2,0.0,-1.02516270892857,mp-1222185,0,0.0
BaGaBO3F2,4.9696,-3.1632819270833332,mp-10509,0,7.0
Mn2Sb4O12,1.727663,,,0,2.0
TiO2,2.0586,-3.508055451944444,mp-390,0,3.0
K2TcI6,0.7245,-0.971071166055554,mp-573568,0,1.0
DyB3H18C2S,3.717,-0.260546856766666,mp-2647168,0,5.0
Sr(NiP2)2,0.0,-0.7070769052721091,mp-1103788,0,0.0
HoTlS2O9,1.7190999999999992,-2.087589261025642,mp-1212994,0,2.0
LaNiBN,0.0,-1.043596932291667,mp-20881,0,0.0
Na15SnGe8P,0.0235,-0.180372703413299,mp-569991,0,0.0
K6Fe24S26Cl,0.0,-0.783430225763156,mp-680728,0,0.0
Fe4Na4O8,3.213372,,,0,5.0
CoH12C2(I2N)2,0.954199999999999,-0.390085378154761,mp-1194525,0,1.0
Ca6Cr2HN6,0.0,-1.082650831416665,mp-1104786,0,0.0
Na2AgF4,0.561299999999999,-2.270849716428571,mp-1104717,0,0.0
TiH,0.0,-0.408514614791668,mp-690760,0,0.0
Ce2Bi5Rh3,0.0,-0.550232516310586,mp-606121,0,0.0
LiMg14Ni,0.0,0.038665604791667,mp-1028360,0,0.0
Mg30TiCuO32,0.5640000000000001,-2.963554499895832,mp-1037311,0,0.0
Ag8Pb4O8,1.12122,,,0,1.0
Cs2GeF6,6.0336,-3.052358112701146,mp-8217,0,7.0
NaNb3GaSiP5O24,2.301199999999999,-2.847300048345532,mp-2715546,0,3.0
Ta2AlC,0.0,-0.580154792416667,mp-1025441,0,0.0
Dy2OsC2,0.0,-0.525578103499998,mp-1213167,0,0.0
Na2Au2F8,2.129366,,,0,3.0
Sm2Si2Ru,0.0,0.813424128499988,mp-1207324,0,0.0
Eu3B2Pt7,0.0,-0.8314095677777731,mp-1102298,0,0.0
Cl2F8N2O2,1.631389,,,0,2.0
Zr7V5N2,0.0,-0.552582329107141,mp-1215416,0,0.0
Ba4Al,0.0,0.303417706,mp-1214528,0,0.0
K2Ca2(SO4)3,5.6275,-2.529100358789472,mp-15600,0,7.0
Tb3SbO7,2.752,-3.417252454999999,mp-1191378,0,4.0
La3HfSb5,0.0,-1.184220801666665,mp-9436,0,0.0
Co2H36Pt3(NCl)12,1.7355,-0.613289959923076,mp-1195200,0,2.0
CaGa2Cu3(SbO6)2,0.8308000000000001,-1.837195975,mp-41331,0,1.0
PrSbSe,0.0,-1.624453302743053,mp-1102688,0,0.0
Na2Ti2Si4O12,0.153556,,,0,0.0
Ca2ZrSnO6,3.5577,-3.0079911025,mp-1518540,0,5.0
Hg5(SbI3)2,1.5463,-0.436793125384616,mp-28889,0,2.0
Cs2EuCuCl6,0.0,-2.066089241431039,mp-1113208,0,0.0
La6Cr2Al2S14,0.0,,,0,0.0
K2Er(NO3)5,3.4576,-1.4715622131304351,mp-558276,0,5.0
CaMg(B3O11)2,0.0,-1.089518906333333,mp-1214468,0,0.0
Se2S(NCl)2,1.6977,0.161051887142325,mp-559231,0,2.0
KOsN2,0.0,-0.05861148665625,mp-1246367,0,0.0
Ag3Bi7S12,0.6774999999999991,-0.351237027064392,mp-1229165,0,1.0
BaYCuSe3,0.9653,-1.809767559505208,mp-1101801,0,1.0
Ce4C10O31,1.0241,-1.569554939444444,mp-1228140,0,1.0
LaAl33O51,2.736999999999999,-3.419918198588236,mp-1178196,0,4.0
CaMnSn,0.0,-0.249845862643677,mp-20233,0,0.0
MnCrP2,0.0,-0.556306764304186,mp-1221673,0,0.0
Eu4Sb2O,0.0,-1.72598407071429,mp-1078192,0,0.0
ErBi2C,0.0,0.8117205521874981,mp-1213611,0,0.0
Sr3BiSb,0.0,-0.6675142980000001,mp-1013585,0,0.0
NaCa9Ti9Nb(SiO5)10,2.841599999999999,-3.427623457517241,mp-534850,0,4.0
Ce(NiGe)2,0.0,-0.6666246099999981,mp-3325,0,0.0
Cu2H26C6S7N12O5,2.516199999999999,-0.4510341425,mp-774726,0,4.0
ScNbOs2,0.0,-0.431905126249994,mp-867786,0,0.0
Ge4N4O2,2.530827,,,0,4.0
La6Sb2Be2S14,1.504866,,,0,2.0
Ag2Nb6O16,1.515914,,,0,2.0
U(FeP3)4,0.0,-0.5444340238655461,mp-21053,0,0.0
InRh3PbS2,0.0,-0.578700944523807,mp-1077905,0,0.0
Ba3Ce2O6,0.0,-3.233961353636363,mp-1178568,0,0.0
K(TeMo)3,0.0,-0.589392469107143,mp-1103956,0,0.0
P3H11N4O9,5.157,-1.392254250654762,mp-695955,0,7.0
Mo2WSe6,0.9875,-0.617456908263884,mp-1025905,0,1.0
Ce3Eu,0.0,0.207937961249996,mp-1183912,0,0.0
Sr2AlGa3,0.0,-0.51817272,mp-1218855,0,0.0