formula,bg,formation_energy,mp-id,fidelity,bg_category
K8Mg(SiO3)8,0.010099999999999,-2.566360615195122,mp-1234313,0,0.0
Na14Ca4Zn4Si3(S3O16)3,2.536699999999999,-2.316911233131834,mp-2714428,0,4.0
Ba3PuO6,0.3789,-2.996677969874999,mp-1205571,0,0.0
Na10Mg3Zr5Si6(SO8)6,2.6507,-2.727850323168288,mp-2713472,0,4.0
LiTaS2,0.8540999999999991,-1.523093417666668,mp-1206881,0,1.0
PaPd3,0.0,-0.7811981012499981,mp-862854,0,0.0
Hf4Co,0.0,0.515361398250001,mp-1212302,0,0.0
Hf8PbO24,0.0,-2.613930104848484,mp-676713,0,0.0
In3Ru,0.229,-0.235972947500002,mp-607450,0,0.0
Li6VCl8,1.5371,-1.945569067333334,mp-29250,0,2.0
Cs2YTlBr6,3.6928,-1.998179181264368,mp-1112106,0,5.0
TlV(CrS2)4,0.0,-1.012786173809523,mp-1216866,0,0.0
PrSO,1.409,-2.918105473888887,mp-774472,0,2.0
NaSc2In2PS5O24,3.0214,-2.354199360481586,mp-2714295,0,4.0
HoF3,7.7482,-4.4940336612500005,mp-561877,0,7.0
CsNa2Si17,0.0,0.020098730879309,mp-4877,0,0.0
Na3Y2Ta2SiP5O24,2.9494,-3.050469524288799,mp-2713044,0,4.0
ErBPtRh2,0.0,-0.8744739078333331,mp-1225493,0,0.0
ErPtF7,2.2785,-2.816598800925924,mp-18341,0,3.0
K2TlRuF6,0.0,-2.348355317783333,mp-1111417,0,0.0
Sr(Cd2Pt)2,0.0,-0.432956165714286,mp-1104117,0,0.0
TbRh5,0.0,-0.297762254444445,mp-11562,0,0.0
K2NaInSb2,0.5808,-0.517965529174328,mp-505767,0,0.0
Na2BiPCO7,3.6596,-2.261253049783456,mp-768140,0,5.0
CBrF2,4.5314,-1.3588376325,mp-1214136,0,7.0
Sm2TiGe2,0.0,0.575867051333332,mp-1206574,0,0.0
Sc2TlCu,0.0,2.079035687361109,mp-1096057,0,0.0
AlH4(SeO4)2,0.0,-1.543535619979166,mp-699431,0,0.0
As4Mo4Li4O24,2.081752,,,0,3.0
Ba14MnBi11,0.0,-0.878120967324271,mp-567518,0,0.0
CeZnNi2,0.0,-0.339960812083332,mp-1193027,0,0.0
Ti9O13,0.0,-3.126782524772727,mp-1045643,0,0.0
TiCr2,0.0,0.083971022777776,mp-1425,0,0.0
BaNd2PtO5,2.5077,-2.974262720555556,mp-556525,0,3.0
Os(NCl3)2,0.0,0.6934606333333241,mp-1207216,0,0.0
TiPO4,0.058199999999999,-2.956461151329365,mp-5839,0,0.0
IrN3,0.0,0.080325009375002,mp-1211954,0,0.0
Pt(CN)2,1.7825,0.436615168000003,mp-1247533,0,2.0
HfMnRh2,0.0,-0.887145171120689,mp-865091,0,0.0
YTc2,0.0,-0.175481984166665,mp-1102030,0,0.0
RbMg14Cr,0.0,0.247273303281249,mp-1026619,0,0.0
HgO2,0.3104,-0.064082885000001,mp-557266,0,0.0
Rb2LiCeF6,0.5522,-3.516280681833333,mp-1110655,0,0.0
HoAl3,0.0,-0.4712367875,mp-1184638,0,0.0
La5Sb4(O4F)3,3.3095,-3.188700376562499,mp-559298,0,5.0
Na2LaGe(PO4)3,0.9782,-2.672334105439677,mp-2713640,0,1.0
Ba3LaNb3O12,2.6586,-3.299096265526316,mp-1228150,0,4.0
Ce(ClO)3,0.0,-1.181127912142856,mp-725444,0,0.0
Li2DyTl,0.0,-0.309952047083335,mp-865581,0,0.0
Nd26Ga7Co10,0.0,-0.235858109011627,mp-1202605,0,0.0
Ce2CuGe6,0.0,-0.420160808888888,mp-5684,0,0.0
Hf4Cr,0.0,0.938434233499998,mp-1212226,0,0.0
Ba(SiNi)2,0.0,-0.527597261999999,mp-27388,0,0.0
BeAlSiN3,5.0289,-1.426333574166667,mp-1227412,0,7.0
BaHfMg6O8,0.2202,-2.527097362499999,mp-1033337,0,0.0
SnF3,2.7195,-2.533785512499999,mp-8289,0,4.0
Au4Cl28S4,1.364708,,,0,2.0
HoTmAg2,0.0,-0.329258187083332,mp-1184835,0,0.0
Gd2Se2O,1.4185,-2.7998750604375,mp-669388,0,2.0
Ba2ZnO6,0.0,-1.444122203888889,mp-1182550,0,0.0
NaNbAl(PO4)3,2.6148,-2.9166183972393283,mp-2713177,0,4.0
EuAgGe,0.0,-0.5283396078571581,mp-1225254,0,0.0
AgI2,0.0,-0.299594967222221,mp-33154,0,0.0
Ag4S8O16Na4H8,1.905525,,,0,3.0
LiHfPt2,0.0,-1.022987341666663,mp-867834,0,0.0
NbInSi(SO6)2,1.7456,-2.292886340490196,mp-2713193,0,2.0
Cr3NiSb4,0.0,-0.008298850937499,mp-1226332,0,0.0
NaBF4,7.846299999999999,-3.138607858749999,mp-3521,0,7.0
Ni3Sb,0.0,-0.095732265,mp-672371,0,0.0
KSr2Cd2Sb3,0.184299999999999,-0.747192067781249,mp-866639,0,0.0
CeP3O14,0.465599999999999,-1.871408309523809,mp-1203734,0,0.0
Sm2AgIr,0.0,-0.5791798606306311,mp-867868,0,0.0
TmInAu,0.0,-0.852922887777778,mp-1092318,0,0.0
ScNb2B2Ru5,0.0,-0.521353528333332,mp-1219294,0,0.0
Na8Fe2O6,1.554716,,,0,2.0
Co4H,0.0,-0.008489950249999,mp-1226072,0,0.0
EuHo3,0.0,0.139103832499998,mp-1184452,0,0.0
K3NaMg(RuO4)2,0.521,-1.705816652541954,mp-2226902,0,0.0
YbInNi4,0.0,-0.408797477499999,mp-1206307,0,0.0
Sm(GaS2)2,0.0,-1.296598226428571,mp-1104219,0,0.0
YMgPt2,0.054999999999999,1.09802432875,mp-1095896,0,0.0
Np2Te2As,0.0,1.293682728333333,mp-1212578,0,0.0
MgFe5N4,0.0,-0.146924880499999,mp-1246592,0,0.0
Ce2(ZnGe2)3,0.0,-0.39122477090909,mp-17567,0,0.0
KGeCl3,2.8924,-1.6556768374500002,mp-998613,0,4.0
K9Mg3Nb5(PO5)8,0.0,-1.9622252325752751,mp-735580,0,0.0
Ce4Fe,0.0,0.323613251000001,mp-1213958,0,0.0
KBaBiTeO6,1.561499999999999,-2.074538539391667,mp-1040443,0,2.0
Cs2RbScI6,2.3929,-1.633877158181035,mp-1112117,0,3.0
Nb6Tl3SBr17,0.319899999999999,-1.050219966018519,mp-680340,0,0.0
Na2ScNbSi2SO12,2.2407,-2.829339859575016,mp-2712604,0,3.0
Cs2Br2F2,2.494445,,,0,3.0
USbAs,0.0,-0.7482576608333361,mp-20803,0,0.0
NaSn2F5,3.7838,-2.564370442500001,mp-13599,0,6.0
Mo16Sb32O96,1.353197,,,0,2.0
Lu(P2Rh3)2,0.0,-0.990990738051953,mp-1095635,0,0.0
DyErCd2,0.0,-0.290402317916662,mp-1183828,0,0.0
Ti(PO5)2,0.0,-1.880828515201465,mp-1204088,0,0.0
La3Cl,0.0,-0.321657329624997,mp-1185116,0,0.0
Cs2UMoO7,1.9356,-2.7359571487251833,mp-581443,0,3.0
CaAu5,0.0,-0.452440076666666,mp-568920,0,0.0
Sr12Si4O4,0.39133,,,0,0.0
Li4Ca4N4,1.473558,,,0,2.0
YBe2B5O11,5.3906,-3.090871714517543,mp-1020740,0,7.0
ZnGe3,0.0,0.268869641249999,mp-971753,0,0.0
RbUB5O11F,0.436799999999999,-2.893893505175438,mp-1204153,0,0.0
Ba3(PS4)2,2.533599999999999,-1.5672991626373511,mp-554255,0,4.0
Ag5Te2Br,0.207899999999999,-0.310763617083332,mp-1215016,0,0.0
LuAlFe,0.0,-0.349344917222223,mp-1222488,0,0.0
LaPt3,0.0,-0.9021456387499992,mp-11487,0,0.0
LaAs2Pd3,0.0,-0.930465002222222,mp-1211237,0,0.0
BaTiO3,2.292999999999999,-3.492277977666666,mp-5777,0,3.0
Be3As2(H2O5)2,3.9653,-2.008922607894737,mp-24570,0,6.0
Fe8Al8O24,2.336546,,,0,3.0
MgHg2(IO)6,0.139399999999999,-0.450598171000001,mp-1211953,0,0.0
Pm2CdHg,0.0,-0.461945700625001,mp-1186436,0,0.0
NdYCo14B,0.0,-0.123369882598039,mp-1220235,0,0.0
Na14Ca6Hf2Si5S7O48,2.8855,-2.641853169615573,mp-2716058,0,4.0
Nd6AlFe13,0.0,-0.026467288749998,mp-1210208,0,0.0
DyInPt4,0.0,-0.903577389083352,mp-1025113,0,0.0
Tb4Co3,0.0,-0.137213794761907,mp-1217743,0,0.0
Tm5Re2C7,0.0,-0.414844667142859,mp-1207951,0,0.0
Ca2Ni10H,0.0,-0.130534251634614,mp-1104215,0,0.0
In4CuAg3Te8,0.0,-0.369100797500003,mp-1224343,0,0.0
TbPd2,0.0,-0.645769656999997,mp-1061979,0,0.0
Sc2P2S8,1.794345,,,0,2.0
SrHf2Mo,0.0,0.856987337708325,mp-631313,0,0.0
Tl8Pb2I12,2.317512,,,0,3.0
KCaN,1.390499999999999,-0.254925439402775,mp-1245709,0,2.0
LiNd(SO4)2,5.3668,-2.399247307569444,mp-1211135,0,7.0
Ce(Sb3Ru)4,0.0433,-0.476115077647058,mp-1189811,0,0.0
LuRh,0.0,-1.102816348333334,mp-377,0,0.0
I6Sn2Cs2,0.633162,,,0,1.0
LiCa2Nb3O10,2.1782,-3.149551102552083,mp-766983,0,3.0
Nd6Ni20P13,0.0,-0.869176886034803,mp-1210112,0,0.0
CaMg6Al,0.0,0.030955725,mp-1023487,0,0.0
ZrPd,0.0,-0.6931005650000011,mp-13495,0,0.0
TaMn2V,0.0,3.899195403425281,mp-1097184,0,0.0
UNb,0.0,0.204178600000005,mp-1216538,0,0.0
Eu2TiO4,0.0,-3.454467420476194,mp-1025200,0,0.0
NaIr(N2O3)4,0.0,-0.207870377789969,mp-726216,0,0.0
K3TiF6,0.0,-3.266874859508333,mp-1111692,0,0.0
K3SmF6,5.7545,-3.478113902674999,mp-1205731,0,7.0
Rh7(PbO5)3,0.0,-1.2663883235,mp-555277,0,0.0
HoIr2,0.0,-0.830710680000002,mp-928,0,0.0
Sm3Ge13Ru4,0.0,-0.44522653775,mp-1200023,0,0.0
Ba2La3Ti3NbO15,2.7971,-3.605261031041667,mp-1228754,0,4.0
Zn2PHO5,3.239,-2.124911981765873,mp-722516,0,5.0
Sm(ZnP)3,0.186399999999999,-0.601270169846938,mp-15109,0,0.0
Rb2F2S2O8,2.411377,,,0,3.0
Ca2HfSnO6,3.5477,-3.097831073499999,mp-1519136,0,5.0
CsH4NO,3.6993,-0.8906141735221671,mp-1202018,0,5.0
Bi4I4Se4,1.542968,,,0,2.0
Ti13O22,0.0,-3.379983054809523,mp-656852,0,0.0
V4P4O20,1.907348,,,0,3.0
Ho3AlC,0.0,-0.400513577999993,mp-29677,0,0.0
HfScIr2,0.0,-0.994417118749998,mp-865000,0,0.0
Sr22Nb10O47,2.361899999999999,-3.202888136139239,mp-677636,0,3.0
NaCaTaP2SO12,2.5994,-2.724420203823982,mp-2712658,0,4.0
YInAu,0.0,-0.876083925555563,mp-621176,0,0.0
Mn4Ga4S10,0.332877,,,0,0.0
Hf9NiMo4,0.0,-0.193377073214285,mp-1194426,0,0.0
MgH20Br4(NO)4,4.1121,-0.920515035454545,mp-1234392,0,6.0
K2Zn(SO7)2,0.0,-0.9025337507631572,mp-1211833,0,0.0
NaCd(PO3)3,4.706399999999999,-2.518585510914848,mp-15250,0,7.0
Pt,0.0,0.0,mp-126,0,0.0
Zr2CoMo3,0.0,-0.128422396666666,mp-1215659,0,0.0
K3La(AsO4)2,3.882099999999999,-2.413142842982143,mp-975577,0,6.0
Sc3Al3C2O5,0.425799999999999,-2.564503754999999,mp-1005666,0,0.0
MgTe4Mo(WS)2,0.0,-0.5130465616666651,mp-2223643,0,0.0
K6InAs3,0.4983,-0.397738309266665,mp-1226185,0,0.0
BaSrGdSbO6,3.4364,-3.04948501175,mp-1523308,0,5.0
Rb2NaPrCl6,4.9807000000000015,-2.427235913804597,mp-1110701,0,7.0
TmGePt,0.0,-1.125458032500003,mp-1102110,0,0.0
SrLiLaTi3O9,1.8409,-3.446122692888889,mp-1218165,0,2.0
BaMgSi,0.0,-0.35283726,mp-9934,0,0.0
Y3Pd2,0.0,-0.7358642346666671,mp-1104388,0,0.0
DyAg2,0.0,-0.318310541666664,mp-2618,0,0.0
CsPSe6,1.6167,-0.434104952793898,mp-1225967,0,2.0
Cs4Zr2Se6,1.334399,,,0,2.0
Na2Sn(CO2)4,2.7678000000000003,-1.737967641850574,mp-554823,0,4.0
InGaAs2,1.2801,-0.401440061249998,mp-1223781,0,2.0
ErNi4Au,0.0,-0.404521658333332,mp-1025001,0,0.0
Lu2F2S2,2.559084,,,0,4.0
Nb40N21O16,0.0,-1.15635809461039,mp-685674,0,0.0
Sr2TiO4,1.914199999999999,-3.443433267619047,mp-5532,0,3.0
Tl6Se6B2,1.036489,,,0,1.0
Th2HN3,1.4184,-1.51795016458333,mp-1019323,0,2.0
DyMn12,0.0,-0.063398836061008,mp-20656,0,0.0
Ni4O28B16,3.537989,,,0,5.0
In(FeN)2,0.0,-0.004940051333333,mp-1246548,0,0.0
Dy5(In2Pd)2,0.0,-0.805455750909087,mp-1191956,0,0.0
CsRb2TbCl6,4.4147,-2.422234976132183,mp-1110815,0,7.0
Sr2Pt8P12,0.388256,,,0,0.0
Tl2SiNi,0.0,0.638950250833332,mp-631548,0,0.0
ErMn4(FeSn3)2,0.0,-0.127570891671088,mp-1225626,0,0.0
Gd3(BiO4)2,0.0,-2.869384636923077,mp-1178246,0,0.0
Tm2ZnPt,0.0,-0.833659437500001,mp-865338,0,0.0
Na10La4Nb4Si9(SO16)3,1.8748,-2.828878728841365,mp-2714214,0,2.0
Sm11Br24,0.0,-1.927968580142857,mp-684193,0,0.0
In3Cu7,0.0,-0.031135998249999,mp-21985,0,0.0
TaAlRe2,0.3358,4.117144762333332,mp-1095983,0,0.0
NaAcHg2,0.0,-0.442966260624999,mp-864806,0,0.0
Cd2Re2O7,0.0,-1.74951875090909,mp-16783,0,0.0
In1Bi2S4Cl1,1.518947,,,0,2.0
Mn6Sb10I6O18,2.3988,,,0,3.0
NaPH4O5,5.4573,-1.902531214865652,mp-554288,0,7.0
Dy6GaNi2,0.0,-0.348448903611104,mp-1189487,0,0.0
LuIn2Pd,0.0,-0.6144220449999991,mp-1211130,0,0.0
CaMg14TiO16,0.0,-2.9633266963541662,mp-1036369,0,0.0
AsS4N4F5,1.92,-0.894612451785714,mp-558254,0,3.0
Gd4NiB13,0.0,-0.426559458287037,mp-1197241,0,0.0
Ti7P4,0.0,-1.199295311233766,mp-1191079,0,0.0
HgIBr,2.362,-0.686197600833332,mp-570172,0,3.0
GeBr4,3.0038,-1.061983198249999,mp-571246,0,4.0
GdIn,0.0,-0.5669377199999981,mp-19819,0,0.0
K(NaIn3)3,0.0,-0.112636614145224,mp-1200661,0,0.0
ZrSnN2,0.649199999999999,-0.906787053541666,mp-1246688,0,1.0
InC4Br7N4,0.0,0.807439312864582,mp-1196807,0,0.0
RbH2CN5,4.1362,-0.352022349722222,mp-1209399,0,6.0
Li4UF8,0.316199999999999,-3.501945456474365,mp-14169,0,0.0
Pr25(B7C13)2,0.0,-0.353741035297434,mp-1221234,0,0.0
NbCr2W,0.0,4.4954550650000025,mp-1097499,0,0.0
LuB12,0.0,-0.259349367435898,mp-1104289,0,0.0
CaRhF6,0.0,-2.63975013875,mp-9928,0,0.0
Cs2YAgCl6,3.8705,-2.207876866097701,mp-1112288,0,6.0
Ag6As6S12,1.426179,,,0,2.0
Al2Na6H12,2.934711,,,0,4.0
MgGeN2,2.6358,-0.760936786249999,mp-7798,0,4.0
Np2Tc3Ge4,0.0,-0.278051728611111,mp-1189843,0,0.0
TmIn2Sn,0.0,-0.360819437083334,mp-1216827,0,0.0
CeCoSb3,0.0,-0.667851143999993,mp-568089,0,0.0
EuTiAgO4,0.0,-2.659671293928572,mp-505238,0,0.0
LiSnS2,0.0,-0.9605306033333332,mp-1001783,0,0.0
BaMgH4,2.3007,-0.491338425,mp-643718,0,3.0
SrCa(CuO2)2,0.0,-2.083795151249999,mp-1218417,0,0.0
V8O12,1.185341,,,0,1.0
Hf5ZnSb3,0.0,-0.554143701666665,mp-9952,0,0.0
Zr4Co,0.0,0.5029660139999971,mp-1207434,0,0.0
Na15Ca7Ta5(PO4)18,2.8048,-2.8892531028284423,mp-2713190,0,4.0
Ca3Ga2(GeO4)3,3.172099999999999,-2.6550530695,mp-1019565,0,5.0
Mn2Cr13S20,0.0,-0.912423300738914,mp-1222474,0,0.0
Ba2Sn2Ge6O18,2.629563,,,0,4.0
Ce3Hf,0.0,0.1018622637499999,mp-1183827,0,0.0
Ge2N2O,2.6165,-0.817928909,mp-4187,0,4.0
Hf6Al2Co,0.0,-0.33273785222222,mp-1224408,0,0.0
Mo6Cu6O24,1.647173,,,0,2.0
Ba2NdMgCu3O7,0.0,-2.048892579821427,mp-2228520,0,0.0
Rb2Ti6O13,2.6235,-3.3320984680952392,mp-540784,0,4.0
PrAgSn,0.0,-0.613051211111108,mp-31421,0,0.0
LiPH2S3N7,0.1482,1.899694607644557,mp-1212315,0,0.0
Rb2ScSi4O10F,5.0158,-3.288188046805555,mp-1198458,0,7.0
ThI4,1.8452,-1.5396167125,mp-27697,0,2.0
Tb2AlGe6,0.0,-0.463580736111111,mp-1208536,0,0.0
Te6Nb4O22,2.411379,,,0,3.0
Te2Ni1V2O10,1.872495,,,0,2.0
LiB(SO4)2,6.5201,-2.120887938541666,mp-1020106,0,7.0
NbVCo,0.0,-0.152050066666666,mp-1220522,0,0.0
K3Ga3As4,0.8722000000000001,-0.453143967174998,mp-567524,0,1.0
DyRh5,0.0,-0.294621025277776,mp-30620,0,0.0
LiCeHg2,0.0,-0.414726450416665,mp-1185334,0,0.0
Pr5In11Ni6,0.0,-0.378869112803029,mp-616210,0,0.0
Ba3Zn2B3O9F,3.381099999999999,-2.905894588055556,mp-1195688,0,5.0
Ca4Mn2W2O12,1.739743,,,0,2.0
Li15Nb16O48,0.0,-2.872560712911392,mp-530846,0,0.0
Rb6NaU3Si4O20F,2.147399999999999,-3.160805641039408,mp-1197419,0,3.0
Zn2Sn2P4,0.918681,,,0,1.0
Mn11Si19,0.8909,-0.278257408485467,mp-567968,0,1.0
NbZn(PbO3)2,0.0,-1.948934633999999,mp-1220505,0,0.0
TbGePt,0.0,-1.127136826388891,mp-22324,0,0.0
Br24P4B4,2.692765,,,0,4.0
Li2Pt1O6H6,2.665898,,,0,4.0
ErGa,0.0,-0.731367804166666,mp-1018077,0,0.0
SrMg3SiN4,2.413299999999999,-1.133934508749999,mp-1020587,0,3.0
Na2AlAuF6,0.905099999999999,-2.675296087166669,mp-1111088,0,1.0
ZnSiRu2,0.0,2.5871873025,mp-1095749,0,0.0
Ca2TlPb,0.0,-0.495178358333334,mp-861604,0,0.0
NaSrPrSbO6,0.0,-2.543591947804597,mp-1521671,0,0.0
YAl6Si30(N15O)3,2.912399999999999,-1.409541973411766,mp-686618,0,4.0
Ni12Mo18P7,0.0,-0.262982185518024,mp-1221709,0,0.0
Ag5BiO4,1.5002,-0.6585394598333311,mp-28812,0,2.0
Ba2PPd2,0.0,-0.69405696492857,mp-685613,0,0.0
Li16Ge4S16,2.415967,,,0,3.0
Rb2U(PtS2)3,0.0,-1.199087473333332,mp-1191149,0,0.0
CaGaGeH,0.4359,-0.4696297834375,mp-1018093,0,0.0
LiHoO2,4.3851,-3.299361123333331,mp-12645,0,6.0
Zr2ZnCd,0.0,2.7698685975,mp-1093703,0,0.0
ErC8N4Cl7,0.9905,0.392187550249999,mp-1203936,0,1.0
Zn2GeS4,2.3269,-0.8779191107142841,mp-675748,0,3.0
KGaGeS4,2.3828,-1.058345203892856,mp-1223528,0,3.0
Mg6MnBi,0.0,0.10071000338362,mp-1022940,0,0.0
Li2Fe4F12,1.193323,,,0,1.0
Ag5Au3S4,0.9308999999999992,-0.096961325243057,mp-1247859,0,1.0
Cs4Rh2K2N12C12,5.473903,,,0,7.0
Li2InRh,0.0,-0.417349363333332,mp-31442,0,0.0
La3Si2,0.0,-0.7094216589999971,mp-10162,0,0.0
Ce2Co3Ge5,0.0,-0.59318137,mp-1188584,0,0.0
SbN9,2.8646000000000003,0.5930840256250001,mp-510350,0,4.0
Ta4Co4Si7,0.0,-0.592107078622223,mp-1192706,0,0.0
Cs4Ag2Nb2Se8,1.817097,,,0,2.0
MoW,0.0,-0.000450780000001,mp-1221387,0,0.0
Pb13(Br3O5)2,2.1245,-1.470961341034478,mp-622491,0,3.0
TaSb3O8,2.3703,-2.27191142936111,mp-1217944,0,3.0
Ca3(CuO3)2,0.0,-2.158963377272726,mp-1446283,0,0.0
TbHfO4,0.0,-3.582074436111109,mp-1101350,0,0.0
RbBiF3,1.3584,-2.5356505525,mp-677028,0,2.0
CsAg2BiS3,1.0635,-0.6870099889983571,mp-1193928,0,1.0
Mg7Si4,0.0,0.068653700454545,mp-1074843,0,0.0
ZrAlAu2,0.0,-0.594448286249999,mp-864878,0,0.0
LiUPO6,2.0684,-3.126618595330688,mp-561098,0,3.0
MgH8(ClO6)2,5.3273,-1.123647846304347,mp-865188,0,7.0
U3Sn4Au3,0.0,-0.144780343999997,mp-1188816,0,0.0
HoCoSi2,0.0,-0.7371078212499971,mp-8743,0,0.0
MoW2(Se2S)2,0.722599999999999,-0.6501523090972351,mp-1025740,0,1.0
TbRh,0.0,-0.8508432933333301,mp-11561,0,0.0
Na3InF6,5.1364,-2.932756415,mp-1210420,0,7.0
V4O8Na2,0.4713679999999999,,,0,0.0
Eu2HgSb,0.0,-0.8183727956250041,mp-1183882,0,0.0
CdPHO3,3.4223,-1.875685138204365,mp-1204110,0,5.0
Eu2Ag2O5,0.0,-1.784846327592594,mp-1099927,0,0.0
Na14Nb4Al4Si11SO48,2.329,-2.8842479404082573,mp-2714559,0,3.0
H19C6S2(NO2)5,3.3494,-0.5395508163988101,mp-1203194,0,5.0
LuBiPd2,0.0,-0.7880984926666551,mp-1185495,0,0.0
MnCrRe,0.0,0.7117488023563201,mp-631383,0,0.0
Ca3SiCSO25,0.0,-1.014096207983871,mp-1199820,0,0.0
AlCuSeS,1.2404,-0.8500360760937401,mp-1229065,0,1.0
Bi2SeO5,2.8422,-1.58014964341797,mp-29839,0,4.0
KLiZnS2,2.5442,-1.320778135116665,mp-774907,0,4.0
YO2F,0.0,-2.7303877649999992,mp-1215963,0,0.0
Ca4Sb4O14,1.714525,,,0,2.0
SbTe(SeF3)2,1.447099999999999,-1.826589103135416,mp-662919,0,2.0
Sr4Bi6Se13,0.948,-1.230151114585598,mp-28397,0,1.0
Y(SiRh)2,0.0,-1.1148804820000011,mp-3441,0,0.0
HfMg6ZnO8,0.2896,-2.676536242499999,mp-1032543,0,0.0
LaAlGe,0.0,-0.808275546666666,mp-11511,0,0.0
Zr6Al2Fe,0.0,-0.302350854444447,mp-11038,0,0.0
CsMg6SbO8,2.3895,-2.098931437478449,mp-1033518,0,3.0
ZnH12SeO10,4.0911,-1.29753928780599,mp-24500,0,6.0
AgB10P2H40C15NCl2O3,1.9977,-0.187648865407014,mp-1204520,0,3.0
As3H9RhC3(BrO)3,2.0079,-0.638366551988635,mp-605173,0,3.0
LaYbZn2,0.0,-0.335202847499999,mp-865833,0,0.0
NaTmCl4,5.089399999999999,-2.3740253675,mp-1209998,0,7.0
LiPRh2,0.115599999999999,1.702985573620527,mp-1096567,0,0.0
TbPm3,0.0,0.021348716874999,mp-1187369,0,0.0
Rb4Ge23,0.0,-0.083463798518518,mp-1209551,0,0.0
UCoCuSi2,0.0,-0.353210543999998,mp-1216320,0,0.0
U2Mn3Si5,0.0,-0.441554270879306,mp-21531,0,0.0
CsNa2(H5O3)3,4.43,-1.389931076246806,mp-733457,0,7.0
La2P3(HO3)3,4.5066,-2.6895395422163872,mp-1195921,0,7.0
U(Al10Cr)2,0.0,-0.131455151304346,mp-1199103,0,0.0
Zr3Sc,0.0,-0.015423973749999,mp-1188062,0,0.0
Sm2In3Cu,0.0,-0.5390951709259231,mp-1219253,0,0.0
CaTe,1.5535,-1.9175140150000012,mp-1519,0,2.0
CsEu,0.0,0.299267086034483,mp-1183965,0,0.0
Ba7Al10,0.0,-0.23075273117647,mp-570400,0,0.0
CeSiBIr3,0.0,-0.722063368194444,mp-1226531,0,0.0
ReTeN,0.0,0.062329225277776,mp-1246820,0,0.0
Cs2KGaI6,0.8284,-1.263232662406034,mp-1112783,0,1.0
Tl2Al2Se4,0.532521,,,0,0.0
Na6Mg7Ti(SO4)12,1.8918,-2.33957412666589,mp-2714978,0,3.0
H2SO5,4.5613,-1.30554411609375,mp-1197484,0,7.0
Rb2TiTlF6,0.0,-3.063451584166667,mp-1113853,0,0.0
K2Cu6S4,0.742955,,,0,1.0
CsCeSiS4,0.0225,-1.672603798392856,mp-1194418,0,0.0
Gd2US5,0.0,-2.14654628988281,mp-1202826,0,0.0
Li3Nd2(N3O10)3,0.788,-1.191733255056819,mp-1213390,0,1.0
Zn2Te3O8,3.2965,-1.609161185769229,mp-3502,0,5.0
NpInRh2,0.0,-0.447669134687487,mp-977402,0,0.0
Dy2(SiPt)3,0.0,0.407450850833335,mp-1206186,0,0.0
SbP(OF3)2,4.4149,-2.679027140464286,mp-554701,0,7.0
Sb(OF3)2,1.3717,-1.461930324999999,mp-541473,0,2.0
Te4Cl8S8N8,1.667675,,,0,2.0
Ag3Sb,0.0,0.041008395000002,mp-16240,0,0.0
Lu2(TeO3)3,3.071399999999999,-2.488984792380952,mp-1202045,0,4.0
AgN3O4,1.9792999999999992,-0.312138822083333,mp-644729,0,3.0
Ba(SmSe2)2,1.4344,-2.236313439196427,mp-1193757,0,2.0
K2BiH4Cl5O2,3.657299999999999,-1.611705133714286,mp-1197978,0,5.0
Ce(ZnP)3,0.0,-0.586407386989795,mp-1213847,0,0.0
SnPPd5,0.0,-0.54337621137755,mp-1025296,0,0.0
ZnCu2PO9,0.1594,-0.8703490053571421,mp-1207907,0,0.0
Ba4Lu8Se16,1.330456,,,0,2.0
Ba2Sr(PO4)2,5.309799999999999,-3.294440574560439,mp-1228498,0,7.0
BaAl,0.0,-0.12189161,mp-1079984,0,0.0
Na2PdS2,0.9447999999999992,-0.992209108124998,mp-10223,0,1.0
U2C6NO14,0.0,-1.45895040619565,mp-1202911,0,0.0
Ba5Ru2Cl2O9,0.0,-2.509366172777778,mp-556443,0,0.0
HfBe2Pt,0.0,2.882600462500001,mp-1096152,0,0.0
YTi3F15,1.4202,-3.663601560263159,mp-1047530,0,2.0
Rb3Er7S12,1.94,-2.242840693977274,mp-1219776,0,3.0
K2Mg1Cr2O10H4,2.916392,,,0,4.0
Dy11Y5O24,3.963199999999999,-3.9886371067083313,mp-766279,0,6.0
Te4Fe4F4O12,2.32477,,,0,3.0
Yb2ZnIn,0.0,-0.47058939875,mp-1187929,0,0.0
La4Te3N2,0.8813000000000001,-1.8791122783333312,mp-641010,0,1.0
Na2LaScP2SO12,4.0006,-2.915419644888298,mp-2713223,0,6.0
K2BiCl5O2,1.0207,-0.8294894249500001,mp-1196462,0,1.0
ScRu3C,0.0,-0.276268568000001,mp-7130,0,0.0
GdCoB4,0.0,-0.5545368190277761,mp-21230,0,0.0
KNa2Ga3(SiO4)3,3.963199999999999,-2.730581326309935,mp-1211711,0,6.0
DySnAu,0.0,-0.8139786638888921,mp-31414,0,0.0
P2H6C5N2Cl4O,2.7036,-0.333362616964285,mp-605047,0,4.0
Tm2RuAu,0.0,-0.6460549550000041,mp-1187585,0,0.0
Rb2CN2,2.8228,-0.5724393999999999,mp-1029784,0,4.0
Ba12Sn8P16,0.7747700000000001,,,0,1.0
KGeAuS3,2.220399999999999,-0.859637387249999,mp-554859,0,3.0
PmHg3,0.0,-0.434079409999995,mp-1186580,0,0.0
KLaMg14,0.0,0.116857301734375,mp-1026382,0,0.0
Mg15Bi,0.0,0.0168663821875,mp-1023495,0,0.0
YTaOs2,0.125399999999999,3.782466547565128,mp-1096446,0,0.0
Pr(Ge2Rh3)2,0.0,-0.7348798765151501,mp-1102817,0,0.0
BaZr2Ti3Pb4O15,2.240399999999999,-2.917692798599999,mp-1227980,0,3.0
Na1V1Zr2F11,2.553835,,,0,4.0
Sr2P7I,2.105799999999999,-0.7073302407499991,mp-1195270,0,3.0