formula,bg,formation_energy,mp-id,fidelity,bg_category
Cu4Li12O12,1.316004,,,0,2.0
Rb4Ag2V2Se8,1.236178,,,0,1.0
Lu5In4,0.0,-0.509848586481477,mp-1210556,0,0.0
TaV,0.0,0.080267545666664,mp-1217812,0,0.0
Mn3Fe3Si2,0.0,-0.255233071724138,mp-1221761,0,0.0
Li5Cu3(TeO5)2,0.258099999999999,-1.6134647765,mp-755495,0,0.0
K2RbCO3F,3.8124,-2.2888350315,mp-1223949,0,6.0
ZrCr5P3,0.0,-0.5866400471031721,mp-18686,0,0.0
Pr3OsBr3,0.0,-1.41282689892857,mp-1209814,0,0.0
CeMg3,0.0,-0.054588338749999,mp-1798,0,0.0
Cs2ScAuF6,1.8594,-2.982187894666674,mp-1112595,0,2.0
Ta3Os,0.0,-0.303158008000004,mp-1187197,0,0.0
Ce2YSi2,0.0,-0.688722832999997,mp-1207182,0,0.0
ErOF,5.1794,-4.288221441666665,mp-1072193,0,7.0
LaH6(ClO3)3,2.5974,-1.208604006973685,mp-554650,0,4.0
MnCd2S3,0.0,-0.8965275685422631,mp-1221703,0,0.0
La5Ga3,0.0,-0.56255211625,mp-672217,0,0.0
Bi2Mn2As2O10,2.58171,,,0,4.0
Rb2Sn4Br10,2.315135,,,0,3.0
SrMgNiH4,1.812399999999999,-0.515139569999999,mp-643293,0,2.0
Cs2InGaF6,3.3133,-2.741083707347701,mp-1113099,0,5.0
Cs4Sn21Hg2,0.2411,-0.184343872726693,mp-1226308,0,0.0
Sm2Si3Ni,0.0,-0.685705971666667,mp-1219157,0,0.0
Ce2SbS5Br,0.0,-1.6775189522222211,mp-629511,0,0.0
K2AlOF5,1.1958,-2.877748093277777,mp-731701,0,1.0
PrAl,0.0,-0.44112123333333,mp-568417,0,0.0
Tb3Co,0.0,-0.133015399999998,mp-1188994,0,0.0
Pr2CdCu2,0.0,-0.229155998666666,mp-861595,0,0.0
Ta6Cr3Cu3C2,0.0,-0.187282794928571,mp-1218082,0,0.0
Mo4P16,0.0,,,0,0.0
Na4LaNb3Si4(PO12)2,2.260099999999999,-2.9837514998193773,mp-2714972,0,3.0
Ba3GaN3,0.361899999999999,-0.644586031785714,mp-1029573,0,0.0
Sb2K3F7O6N2,2.92564,,,0,4.0
YbEuO3,0.0,-3.095093227249998,mp-1187715,0,0.0
Rb2NaScF6,6.9076,-3.57439819013793,mp-1113669,0,7.0
Cs3Y7Se12,1.5161,-2.124948892443182,mp-1226222,0,2.0
Ge16Cs8Na8,0.938053,,,0,1.0
Cs4Bi12S20,1.382201,,,0,2.0
Cs2TlAsI6,1.0046,-1.059115153014369,mp-1112544,0,1.0
NaB5PbO9,4.586,-2.677595987794541,mp-1199541,0,7.0
CsTlO3,0.0,-0.7549294995977021,mp-1185544,0,0.0
MgCu4H8(CO5)2,0.082499999999999,-1.1750715834,mp-1233260,0,0.0
NdSi,0.0,-0.828679736249998,mp-9967,0,0.0
TiH42N14Cl3,0.987,-0.5668688455972221,mp-1195393,0,1.0
La3Fe2S7,0.0,-1.7451150947916672,mp-675895,0,0.0
As12S13,0.480399999999999,0.074955975587502,mp-1247882,0,0.0
Ta2I4Cl4,1.129361,,,0,1.0
SmSiO3,0.0,-2.8364629000000012,mp-978506,0,0.0
Sn2BSe,0.0,0.8336005475580911,mp-631557,0,0.0
Cu2Na4S4O20H8,1.736183,,,0,2.0
YMg14SnO16,0.0,-2.787668998906249,mp-1035975,0,0.0
K2SbPCO7,3.833299999999999,-2.266041721595237,mp-756981,0,6.0
Zr2K4F12,5.895574,,,0,7.0
Rh4Li4O8,1.560064,,,0,2.0
Sc6Ni18Ge11,0.0,-0.5882239180000001,mp-569969,0,0.0
SrCrRh2,0.0,0.32639712125,mp-631355,0,0.0
Eu2(ZrSe2)5,0.0,-1.758272022683817,mp-1226114,0,0.0
Cs2ScAgF6,3.651099999999999,-3.200004091597701,mp-1113115,0,5.0
Si4Ge(H3C)11,3.7758,-0.190856636045918,mp-1199342,0,6.0
CaEuZr2O6,0.0,-3.5897776075,mp-1523074,0,0.0
Al4Ni15Sn,0.0,-0.374563562749998,mp-1228460,0,0.0
Li3Al3P3H2O14F,5.7714,-2.8522159410164822,mp-695635,0,7.0
Pr(P3Ru)4,0.0,-0.72779525455182,mp-4341,0,0.0
CeAl4,0.0,-0.346700889999999,mp-2289,0,0.0
Sm2Fe15Si2C,0.0,-0.077293065749999,mp-1219255,0,0.0
CsTmI3,0.0,-1.414454532931036,mp-1213177,0,0.0
K2Na2Sm4Ta2O13,3.973799999999999,-3.286492741388056,mp-1198935,0,6.0
NpSn3,0.0,-0.320239902187502,mp-881,0,0.0
BaPPt,0.0,-1.079450174047616,mp-21236,0,0.0
Ba2TeP2O9,3.4372,-2.854489903282313,mp-560742,0,5.0
BaLaAgSe3,1.6435,-1.8427492439496511,mp-1101818,0,2.0
NaAsO3,2.8628,-1.8849056684425292,mp-17868,0,4.0
As2Ca1Be2,0.642396,,,0,1.0
S7(N3O4)2,2.0284,-0.6203530367857131,mp-28474,0,3.0
Dy3Y5O12,4.1693,-3.973016534250001,mp-752458,0,6.0
Li2CeP2,0.8280999999999991,-1.146139635857143,mp-9912,0,1.0
NaBi3(ClO2)2,2.3702,-1.767961122137941,mp-1220820,0,3.0
Hf5Pb,0.0,0.020506999999999,mp-1018715,0,0.0
Na1Bi1F6,2.861748,,,0,4.0
YGeAu,0.0,-0.929752046666668,mp-10098,0,0.0
LiHfSe2,0.0,-1.482287628697918,mp-1206373,0,0.0
Gd2MgCd,0.0,-0.202455828749999,mp-1184409,0,0.0
K2CuS(ClO2)2,0.731,-1.889739489699999,mp-560601,0,1.0
Na2Se2O7,2.8061,-1.491280715222374,mp-1190423,0,4.0
Na6MgTi3Si2(PO6)4,2.1506,-2.936470217129516,mp-2715397,0,3.0
AcOF,4.256600000000001,-4.159415700833336,mp-36526,0,6.0
Zr10(GaSb)3,0.0,-0.726179249375,mp-1215715,0,0.0
Na2Al2Si3H6O13,4.4745,-2.475800012509947,mp-1199031,0,7.0
MoWS4,1.2209,-0.921465910208333,mp-1027335,0,1.0
Ca1Cu3Ti4O12,0.842525,,,0,1.0
Sc9Te2,0.0,-0.528235628030301,mp-1197413,0,0.0
VZnRh2,0.0,-0.472162936250001,mp-865487,0,0.0
Nb3AlN4,0.0,-1.102134095625,mp-1220659,0,0.0
Na5Hf2Sc2SiP5O24,4.2822,-3.131840722225064,mp-2714300,0,6.0
ZrP2S7,1.660299999999999,-0.96832660617857,mp-31014,0,2.0
Ga8Cu3W2,0.0,-0.117008091538462,mp-568017,0,0.0
Te8I32,1.719393,,,0,2.0
U(N2O7)2,0.280599999999999,-0.53308153368421,mp-1179579,0,0.0
HC3ClO2,1.1598,-0.7731796823214281,mp-1212514,0,1.0
Fe2O12C6H6,2.01334,,,0,3.0
Na14Sc4Si9Ge4(SO16)3,2.6957999999999993,-2.669891087095249,mp-2714849,0,4.0
Ti2Ga2SiS5O24,2.1948,-2.2772075931127462,mp-2713020,0,3.0
Ba2GeO4,3.7979,-2.856575843809524,mp-780263,0,6.0
ZnH12(IN2)2,0.5486,0.070192984999999,mp-707471,0,0.0
B10H14C10S(OF2)3,4.337199999999999,-0.5832827583333341,mp-1194781,0,6.0
PmDyMg2,0.0,-0.075224409791665,mp-862902,0,0.0
LuMn2,0.0,0.004934154157087,mp-1102182,0,0.0
Sm(SiRh)2,0.0,-1.075789157,mp-3882,0,0.0
Mg14ZnC,0.0,0.1899260828125,mp-1028019,0,0.0
Ca4Te4O16,2.269178,,,0,3.0
Mg7SiN6,1.553899999999999,-0.9325492939285712,mp-1246442,0,2.0
NaTm3,0.0,0.325849163362068,mp-976863,0,0.0
Sb5IO7,2.7123,-1.635265971153846,mp-556869,0,4.0
Sr8Co3N8,0.0,-0.6690220615789481,mp-1030752,0,0.0
K3BiTe3,1.2282,-0.958600962321428,mp-29379,0,1.0
La6Cr(SiS7)2,0.0,-1.9993885341304352,mp-1223175,0,0.0
K4Ge2(Se2O)3,0.9478,-1.197007396537499,mp-1204149,0,1.0
Li2PmAl,0.0,-0.229276615208334,mp-862929,0,0.0
V2Cu1F8O4N2H14C2,1.424755,,,0,2.0
YMnFe,0.0,0.064626202356322,mp-1215943,0,0.0
Mg7P2(HO2)8,5.121700000000001,-2.425599390584416,mp-699232,0,7.0
CsSmSiS4,2.8414,-1.731508455307881,mp-561635,0,4.0
LiSmO3,0.0,-2.290626914666666,mp-973136,0,0.0
Sm9Ni24Sn49,0.0,-0.350213598658536,mp-1219586,0,0.0
Na2Ca2P2O7F2,3.2883,-2.9500585756362883,mp-1173838,0,5.0
Cs2Cu5Se4,0.0,-0.5795965455681801,mp-28467,0,0.0
Tl4CdI6,2.1721,-0.841666844393942,mp-570339,0,3.0
PmLuIn2,0.0,-0.561200213541663,mp-1186606,0,0.0
LiInPt,0.0,-0.5995654477777721,mp-1206734,0,0.0
Ca2P2H8O11,4.9617,-2.18891290529503,mp-554174,0,7.0
BaTi4AlO7,0.2764,-2.940419334871794,mp-1048108,0,0.0
K2N6,4.239607,,,0,6.0
TbGd(PO4)2,3.407299999999999,-3.477970189662697,mp-1217539,0,5.0
Be4CuSi,0.0,0.127331294999999,mp-1227281,0,0.0
Cd1Cl4Cu1O4H8,1.665345,,,0,2.0
CuP2(H2O3)2,0.2624,-1.5409511984065931,mp-730473,0,0.0
Ag12S4Br4,0.05107,,,0,0.0
Hf6F24,5.304625,,,0,7.0
Nb1Na1N2,0.7965409999999999,,,0,1.0
Ta2O5,1.2267,-3.346563131380951,mp-10390,0,1.0
S8Cd4,1.168057,,,0,1.0
YMgIn,0.0,-0.386279303888888,mp-21503,0,0.0
PrPd3,0.0,-0.7583322279166661,mp-1571,0,0.0
TiMnSb,0.0,-0.252600280421456,mp-1216728,0,0.0
Na3Ga2Sn2P5SO24,3.072599999999999,-2.4416251845906,mp-2716085,0,4.0
Na6GaAs3,0.347699999999999,-0.399280600327586,mp-1173830,0,0.0
AgSb(S8F3)2,2.7813,-1.14026821361111,mp-559602,0,4.0
Sn1Ti1O3,0.990966,,,0,1.0
PaTi,0.0,0.093168068333341,mp-1186423,0,0.0
Na3Zr3ScSi3(SO8)3,3.608599999999999,-2.877401786801025,mp-2714666,0,5.0
Na3Ca2Zr2P3(SO8)3,3.910399999999999,-2.780494436952247,mp-2713964,0,6.0
As2Cu2F14,2.543472999999999,,,0,4.0
BaSrNd4O8,3.4682,-3.523416962142857,mp-1227531,0,5.0
HfTi,0.0,0.060464616666664,mp-1224258,0,0.0
Se10Ge4Na8,1.630588,,,0,2.0
EuBeO3,0.0,-2.565422535,mp-1184325,0,0.0
MnV2Re,0.0,3.804851375754314,mp-1093538,0,0.0
FeH16C4N2Cl5,1.6142,-0.541894077678571,mp-1204478,0,2.0
Hf2CuRe,0.0,-0.291589190625,mp-977567,0,0.0
SrDy2CuO5,0.0,-3.085557710092592,mp-17687,0,0.0
Bi4I4,0.701441,,,0,1.0
Eu5Ta4O15,0.0,-3.420848036222223,mp-1192440,0,0.0
K3Al(PO4)2,4.521,-2.837004077335883,mp-1197607,0,7.0
Ho3Al5O12,4.753799999999999,-3.703416676499999,mp-14388,0,7.0
EuPbO3,0.0,-1.9991665940000012,mp-1184348,0,0.0
Ba10PrY4(Cu3O7)5,0.0,-2.17394330148718,mp-1228989,0,0.0
Sb4IO6,0.0,-1.567448479999999,mp-1192087,0,0.0
CsAg5Se3,0.012399999999999,-0.470734910835527,mp-10480,0,0.0
Si5Pt12,0.0,-0.656851773529424,mp-567618,0,0.0
K6Sn2Se7,1.9105,-1.186122996410416,mp-29386,0,3.0
MgAg4(PO3)4,0.635899999999999,-1.946099542392289,mp-1233098,0,1.0
Sr2La14Mg4(Ga4O15)3,2.7118,-3.095677221363636,mp-686724,0,4.0
RbNa2GaF6,4.693,-2.8175082957758613,mp-1110623,0,7.0
CaGe2O5,2.696599999999999,-2.507824764062499,mp-4279,0,4.0
Zn2BiSbO6,1.0598,-1.681346604499999,mp-1342422,0,1.0
LiCu6OF11,0.0,-1.803439730175438,mp-1236446,0,0.0
Tm2Ge5Ru3,0.0,-0.613841463500003,mp-1106240,0,0.0
BaU2Se5,0.0,-1.6956798155273411,mp-1195370,0,0.0
ScGePt,0.0,-1.065894349166668,mp-1095253,0,0.0
Pr2SiC(NO2)2,3.8967,-2.657481699833334,mp-1186715,0,6.0
SrCdPt,0.0,-0.664173500833327,mp-1102073,0,0.0
Li3Er(NO3)6,3.1214,-1.427085421339287,mp-559129,0,4.0
Ti6Si2B,0.0,-0.6854489058333301,mp-11750,0,0.0
Ce2Si2NiPt,0.0,-0.923702966666664,mp-1226865,0,0.0
UAl3Fe7Si2,0.0,-0.194276696923076,mp-1217002,0,0.0
GdCdPt2,0.0,-0.776240217499998,mp-1184494,0,0.0
NdMg2Ag,0.0,-0.101489907291665,mp-644504,0,0.0
In2Ga2Te4,0.0,,,0,0.0
TbAl4,0.0,-0.376345068999999,mp-1079618,0,0.0
Mg2CuN2,0.2577,-0.468758942166667,mp-1406172,0,0.0
CsZn2P2HO8,3.9656,-2.372955266442205,mp-699213,0,6.0
Bi4Pb4Cu4S12,0.874589,,,0,1.0
HfTiNi2,0.0,2.881194859166667,mp-1097535,0,0.0
Ho5(In2Pt)2,0.0,-0.8055696451515121,mp-1212246,0,0.0
RbDyBr3,0.0,-1.882085690333332,mp-1209279,0,0.0
Cs3Mg3In(PO3)12,4.665699999999999,-2.744289017024482,mp-720658,0,7.0
Cr2Cu5P4O18,0.1197439999999999,,,0,0.0
Ba6Fe14Cu11S27,0.017999999999999,-0.891555477974137,mp-686328,0,0.0
ZrTi2O,0.0,-1.596375502916664,mp-1215204,0,0.0
TeN2,0.0,1.090759937777778,mp-1445439,0,0.0
Ti3Cu2NiS8,0.0,-1.209494034999998,mp-1217153,0,0.0
Cd3H2CSeO8,2.8702,-1.4902433291562491,mp-697981,0,4.0
Fe6V6O24,2.209643,,,0,3.0
Pr4Se3N2,1.3742,-2.000509450706014,mp-31303,0,2.0
MnSnAu,0.0,-0.171871310804595,mp-22027,0,0.0
UCuP2,0.0,-0.7918317589880951,mp-30534,0,0.0
NaI3O8,3.1418,-1.016346651781611,mp-559065,0,5.0
Na6Ca2Ta4Si6(SO12)3,2.5301,-2.823896331142268,mp-2712645,0,4.0
SrEuInSbO6,0.0,-2.504636793166666,mp-1520042,0,0.0
SbCl3,3.7476,-0.94430403125,mp-22872,0,5.0
CuPb2(SCl)2,0.0,-0.7633410564285701,mp-1147601,0,0.0
Ce6Pt6Sb8,0.412259,,,0,0.0
Ca(AlH4)2,4.7209,-0.241428752045454,mp-1198688,0,7.0
Pr2RuO5,0.0,-2.795801746354167,mp-1209517,0,0.0
Na3DyTi2Nb2O12,2.5852,-3.138795482623563,mp-689927,0,4.0
Rb(MoS)3,0.0,-1.020204569285711,mp-8117,0,0.0
Nb3Fe,0.0,0.030735325,mp-999395,0,0.0
Cs2LiGdCl6,2.782,-2.482845278264368,mp-1112624,0,4.0
Pb2Fe2Ge6O20H8,2.327064,,,0,3.0
Na10Ca6Si3Sn2(S3O16)3,0.9283,-2.431927747708886,mp-2714785,0,1.0
Li4Be3As3ClO12,4.4494,-2.356381743731884,mp-560072,0,7.0
Tb3(Al3Os)4,0.0,-0.6851077910526321,mp-1208548,0,0.0
Sr1Zn2Sb2,0.0,,,0,0.0
Na6Sc5Ta3(PO4)12,2.9922,-3.0690696648332,mp-2714624,0,4.0
Ba9(NbN6)2,1.261099999999999,-0.8774315854347831,mp-541765,0,2.0
K(CrS2)2,0.0,-1.122947655321429,mp-1238839,0,0.0
CsBa3Ga5(Se5Cl)2,2.2057,-1.54864705764727,mp-1225999,0,3.0
Li8CaSn7,0.0,-0.344105258854166,mp-1211196,0,0.0
SmZn2Ag,0.0,-0.296511144166666,mp-867140,0,0.0
Na(BH)6,5.6439,-0.361555401346154,mp-978278,0,7.0
Cs3CdBr5,3.0548,-1.8009280726628372,mp-1188465,0,4.0
Cs2TmCuCl6,2.436499999999999,-2.02414600125,mp-1111447,0,3.0
Ba2NbO,0.0,0.313019386249999,mp-34023,0,0.0
Ca9Nb2Ga10(SiO7)6,0.044999999999999,-2.927926188768116,mp-1228104,0,0.0
CaPH3O4,6.067200000000001,-2.17247984454365,mp-24170,0,7.0
Ge4Se16K8,1.746176,,,0,2.0
Th(TeI)2,1.033399999999999,-1.343993580666666,mp-542180,0,1.0
Mn8F32,1.391481,,,0,2.0
BP4(SBr)3,2.6424000000000003,-0.573135143658007,mp-863030,0,4.0
ZrH5S3O14,0.006199999999999,-1.821467757989129,mp-1203733,0,0.0
Na5Zr2In2SiP5O24,3.608799999999999,-2.813109065814808,mp-2715979,0,5.0
Ca5(CoN2)2,0.0,-0.850118299772727,mp-569383,0,0.0
SmTlPd,0.0,-0.650092461666664,mp-569047,0,0.0
HC6,0.0,0.040110008660713,mp-995202,0,0.0
Ge2,0.0,,,0,0.0
SbH8C2S2Br3N4O,0.0,-0.398025648095238,mp-1204309,0,0.0
RbDyBeF6,7.407500000000001,-3.894115011574073,mp-1209211,0,7.0
Nb2Pb2O7,0.9375999999999992,-2.492317274545454,mp-754711,0,1.0
Rb2IrF6,0.0,-2.479511632777776,mp-554337,0,0.0
Ba3Fe3N5,0.0,-0.557285952272727,mp-1247465,0,0.0
NaMg14Nb,0.0,0.132491895538793,mp-1026670,0,0.0
Th4Mg(B2O5)4,1.2878999999999992,-3.221860481767676,mp-1233955,0,2.0
BaSrTm4O8,3.7798,-3.76699159357143,mp-1227530,0,6.0
TaCr2Re,0.0,4.496697874208337,mp-1097518,0,0.0
Mg6ZnSiO8,2.9215,-2.548876583124999,mp-1032002,0,4.0
GaGeO3,0.0,-1.401622939499999,mp-1183980,0,0.0
Hg3AsO5,1.3663,-1.059342347222227,mp-1203433,0,2.0
Cs4Ag2Ta2S8,2.58846,,,0,4.0
Lu(CoGe)2,0.0,-0.571077171333332,mp-571552,0,0.0
Li10B14Cl2O25,6.4018999999999995,-2.744636391503268,mp-23122,0,7.0
Cu4Fe4P4O20,1.613343,,,0,2.0
Na6Ca2Mg2SiS5O24,3.6799,-2.441954193394397,mp-2713935,0,5.0
In5B4Ir9,0.0,-0.299637451111108,mp-570692,0,0.0
La9Mn5S21,0.0,-1.788294553086807,mp-1224522,0,0.0
Al6In6Se18,0.6839700000000001,,,0,1.0
La3BeVS7,0.0,-2.005277304374999,mp-1191498,0,0.0
CaBe(SiO4)3,0.0,-1.7911939757352942,mp-1214917,0,0.0
Ba4W(N2Cl)2,2.2089,-1.621013265000002,mp-570453,0,3.0
Dy2Ni7,0.0,-0.395253259814812,mp-865205,0,0.0
Ti6Ge2B,0.0,-0.6677853580555531,mp-1080829,0,0.0
Rb2TlInF6,3.6593,-2.7585047335,mp-989532,0,5.0
SmEu2NbO6,0.0829,-3.342808789000001,mp-1516269,0,0.0
SrInHg2,0.0,-0.403129535416669,mp-867173,0,0.0
EuAg5,0.0,-0.173007971666668,mp-542568,0,0.0
TmAl7Fe5,0.0,-0.398955514615382,mp-1216685,0,0.0
CaCdPd,0.0,-0.5882633474999991,mp-1103172,0,0.0
MgTi2(SeO3)4,1.208699999999999,-2.022203403739035,mp-2231003,0,1.0
Pd2Ba2S4,0.362431999999999,,,0,0.0
Ca4Ge4Mg4,0.0,,,0,0.0
Cr12B4O24,1.404756,,,0,2.0
Rb3GePSe7,1.5629,-0.953461704879092,mp-861898,0,2.0
Dy3Mg2WS8,0.0535,-1.7639440846428551,mp-1247060,0,0.0
Na4TiP2O9,2.8528,-2.783534966946018,mp-680756,0,4.0
K2NaLaCl6,4.6105,-2.313077244249997,mp-1111139,0,7.0
ZnBP(HO3)2,4.7538,-2.220371031482683,mp-1198157,0,7.0
K2NaNdI6,3.1157999999999992,-1.58009016033793,mp-1110963,0,4.0
LiIO5,0.2278,-0.719532271190476,mp-1193215,0,0.0
NdBC,0.0,-0.493766424,mp-568966,0,0.0
Hf2SiAs3,0.0,-0.711452193750001,mp-1224317,0,0.0
LiAlSiO4,5.2489,-3.210481965714286,mp-18220,0,7.0
Rb3Dy,0.0,0.633603218958334,mp-1186841,0,0.0
Ti5S8,0.0,-1.696053202820513,mp-1208223,0,0.0
Ba8V4O16,1.576757,,,0,2.0
Li4TbF8,0.0,-3.335848798397434,mp-505089,0,0.0
PtW,0.0,-0.054905329999996,mp-1219711,0,0.0
LuCdHg2,0.0,-0.351147112916663,mp-865988,0,0.0
Re3Ni,0.0,-0.108916283124997,mp-862604,0,0.0
ScZnHg2,0.0,1.129549242499996,mp-1096068,0,0.0
TiBe2Rh,0.0,2.866303379166666,mp-1095733,0,0.0
SrSmTi4O12,0.0,-3.149047070462963,mp-1522156,0,0.0
Mg2Mn3InS8,0.0,-1.027326385747125,mp-1246492,0,0.0
Ge8As8Se8,1.453316,,,0,2.0
W1Fe1Sr2O6,0.856368999999999,,,0,1.0
Y2Cu6Fe8O24,0.817407,,,0,1.0
DyB6,0.0,-0.460506672857144,mp-568319,0,0.0
Ba2NdTlCu2O7,0.0,-2.180424118141026,mp-1228402,0,0.0
Cu2N6,1.502534,,,0,2.0
PrThCN,0.0,-0.9641771514375,mp-1219723,0,0.0
LiPmTl2,0.0,-0.427448618541667,mp-862928,0,0.0
Rb2Ta2Ge2S10,0.963136,,,0,1.0
K2RbIrF6,2.2706,-2.468909647199999,mp-1111440,0,3.0
Ba8Cu8O19,0.0,-1.906748576428571,mp-766404,0,0.0
Ag1Cr1O2,1.632221,,,0,2.0
Cs2LiCo(CN)6,4.2816,-0.30138707579023,mp-6884,0,6.0
H25C8IN2(OF2)2,4.616,-0.524715212886905,mp-1199286,0,7.0
Ba8Na2Ge6S20Cl2,1.752862,,,0,2.0
Na6Ta2Ga6Si5S7O48,2.1233,-2.368678628339314,mp-2716114,0,3.0
CsK2AsF6,3.5457,-2.668328153165517,mp-1112326,0,5.0
Nd2As6Xe5F46,2.7183,-2.305996859322033,mp-559792,0,4.0
K3Na3Nb8(PO7)5,0.0384,-2.902101006187078,mp-560541,0,0.0
Ag12As4S12,1.598823,,,0,2.0
ZnCd3Se4,0.6264000000000001,-0.857671489921874,mp-1078597,0,0.0
Tc3W,0.0,0.107239275000004,mp-1187398,0,0.0
Zr40S27,0.0,-1.292167270037313,mp-1100827,0,0.0
SmGa2Co,0.0,-0.5300658887499999,mp-980004,0,0.0
BaSrMg14O16,4.2835,-2.7852842068749992,mp-1034518,0,6.0
Eu3Pd2,0.0,-0.630571121000002,mp-1105286,0,0.0
CsMgGaF6,5.6419,-3.325233388017241,mp-1225927,0,7.0
Ba4Eu2Cu6O13,0.0,-2.061245566200001,mp-1228334,0,0.0
UFe2SiC,0.0,-0.353800630999998,mp-1205771,0,0.0
CeH12N5F4,2.0538,-1.038000356818182,mp-1204317,0,3.0
TiB2,0.0,-1.099568030555556,mp-1145,0,0.0
Ba4LaPr(Cu3O7)2,0.0,-2.15644863602564,mp-1228253,0,0.0
Os3C10SO10,2.8238000000000003,-0.9629051490625,mp-621927,0,4.0
CeAl2Cu3,0.0,-0.398093601666668,mp-1226644,0,0.0
K2Li4UO6,2.1501,-2.477332779064102,mp-559263,0,3.0
Y5Pt3,0.0,-1.059424733749999,mp-1178745,0,0.0
LuSiO3,0.0,-2.715639010333333,mp-973655,0,0.0
Au4Se4O14,1.311427,,,0,2.0
TaTlS3,0.595799999999999,-1.086338705633336,mp-10795,0,0.0
Ce2Te4Cl2O11,1.4548,-2.228753902719308,mp-1195865,0,2.0
Cd2Cu(SO)2,0.0,-0.245269574999999,mp-1147654,0,0.0
Cs2Ca(Cl2O)2,2.7473,-1.613831735478926,mp-1079663,0,4.0
CsCdN,0.4225,0.259248521870394,mp-1246389,0,0.0
Zr4NiP,0.0,-0.652163738273809,mp-1103567,0,0.0
BaPAu,0.0,-0.875082199880953,mp-985439,0,0.0
PH8NO4,0.0,-0.851494292831632,mp-1179823,0,0.0
SrTi4SnO12,0.0,-2.737034062685185,mp-1516251,0,0.0
Bi2IBr,0.1943,-0.61161366875,mp-1227605,0,0.0
Sm3Re2O9,0.0589,-3.039753250357145,mp-541928,0,0.0
Cd2InBi,0.0,0.9467470549999992,mp-1097224,0,0.0
Zn3Ag(AsO4)3,0.0,-1.47541635258772,mp-1197075,0,0.0
AuClO2,0.2618,-0.161596089999999,mp-997018,0,0.0
ZnH22C5N18O17,0.9052,-0.493404660912699,mp-1205040,0,1.0
Dy3Ge5,0.0,-0.7794576968749991,mp-505577,0,0.0
ErInCu4,0.0,-0.323308962222223,mp-1206262,0,0.0
PtO6,0.0,-0.139992583571429,mp-1179845,0,0.0
Ba3Ge2B7H3O20,0.0,-2.566196639940475,mp-1202293,0,0.0
RbZn2P3O14,0.0,-1.460053936071428,mp-1179765,0,0.0
Os2Sb4,0.361244,,,0,0.0
La3InGe,0.0,-0.743515690749995,mp-1224015,0,0.0
Pt(PbO2)2,0.523799999999999,-1.283191952857141,mp-29332,0,0.0
Cs2KRb,0.0,0.032940831484913,mp-1183766,0,0.0
NaMgNb3Si3(SO8)3,1.065299999999999,-2.630552797206076,mp-2713894,0,1.0
PbSe2O5,3.133899999999999,-1.362965099648438,mp-662535,0,4.0
Ca6Ga4N8,1.906304,,,0,3.0
SnGeS3,1.6591,-0.684868667,mp-5045,0,2.0
Ho15Si9C,0.0,-0.634255528999995,mp-1224472,0,0.0
Pr3HfSb5,0.0,-1.076048909999997,mp-1209778,0,0.0
V2O6H4,1.579215,,,0,2.0
TmCl2,0.0,-1.964777019768519,mp-27302,0,0.0
Zn2CuNi,0.0,-0.163784274999999,mp-1215438,0,0.0
BaCuCO3F2,0.4303,-2.449935235624999,mp-556030,0,0.0
Sb4Cl12,3.651526,,,0,5.0
B2PCl2,3.8439,-0.546763339636905,mp-28426,0,6.0
SrEuS2,0.0,-2.424662930156248,mp-1218296,0,0.0
RbInAs2O7,2.5506,-1.916321938333333,mp-558208,0,4.0
Ba4Te8P16,1.122249,,,0,1.0
Rb2LiTlF6,3.4666,-2.730992243166667,mp-1113693,0,5.0
NdHo3,0.0,0.003934851875001,mp-973685,0,0.0
MgPd5,0.0,-0.332213634166667,mp-976976,0,0.0
CaTaBiO5,3.5935,-2.894228631229166,mp-1042364,0,5.0
Mg14NbW,0.0,0.2004234475,mp-1026531,0,0.0
K12Sb4Te12,1.733718,,,0,2.0
LaSiI,0.0,-1.244760629999999,mp-1206265,0,0.0
Ca4Al51Cr7,0.0,-0.146165152580644,mp-30174,0,0.0
Tm3(CuSi)4,0.0,-0.684905152727274,mp-1102518,0,0.0
Os(SeCl6)2,0.0736,-0.40278331070833,mp-582444,0,0.0
Zr3Al,0.0,-0.318824856249999,mp-1471,0,0.0
ZnCu3(BiO3)4,0.0,-1.18493122,mp-1042729,0,0.0
Mg14AlW,0.0,0.160991936875,mp-1028226,0,0.0
TiZnN2,2.342,-1.028000667083334,mp-1016108,0,3.0
CaSnS3,0.8106999999999991,-1.320681702999998,mp-1100381,0,1.0
CuH14C4(NO2)4,0.2589,-0.9279357850806452,mp-1199425,0,0.0
HoNiSn2,0.0,-0.5618576268749981,mp-1199966,0,0.0
GdErAl6,0.0,-0.455333500833333,mp-1225066,0,0.0
CeTm3,0.0,0.083288681249996,mp-1183813,0,0.0
Al3Fe2Si,0.0,-0.389890746666666,mp-1190708,0,0.0
Ba2La4Ti6O20,1.93049,,,0,3.0
LiBSbO3,1.0561,-2.21955773375,mp-756853,0,1.0
Sc1Ni1Sb1,0.0,,,0,0.0
Mg3Nb,0.0,0.27918526625,mp-1016220,0,0.0
RhSe2,0.0,-0.5162596327083331,mp-1192175,0,0.0
KCrS2,1.1644,-1.181443520562499,mp-4026,0,1.0
Li7Ti12O24,0.0,-3.150760669147287,mp-38468,0,0.0
PF5,7.1089,-2.726831949662697,mp-8511,0,7.0
Li2C3SN6O7,0.1291,-0.14504993495614,mp-1198353,0,0.0
Ni2Cr4O8,2.355906,,,0,3.0
Na4AlGaSi2SO12,3.7159,-2.565768052881774,mp-2714424,0,5.0
SrGeN2,2.4586,-0.7068573370312501,mp-1029497,0,3.0
InSn2Te3,0.0,-0.296832678333331,mp-1223682,0,0.0
SmMg2H7,2.4888999999999992,-0.421001159124999,mp-1179401,0,3.0
BaZn2,0.0,-0.197343143333332,mp-30435,0,0.0
K3FeSe3,0.0,-1.067580413397321,mp-541997,0,0.0
SiAg2(S2O7)3,3.529599999999999,-1.69300184611111,mp-1198966,0,5.0
Li2Zr2O5,3.934999999999999,-3.223184514074075,mp-772105,0,6.0