formula,bg,formation_energy,mp-id,fidelity,bg_category
Gd2Si2O7,3.2104,-3.629723050909088,mp-13775,0,5.0
Mo4Co4O16,1.57661,,,0,2.0
TiS,0.0,-1.719362965416666,mp-1018028,0,0.0
Ta(C2N3)3,0.0,0.072005904567713,mp-1246886,0,0.0
KCa2P4H9O17,5.5297,-2.283900358774892,mp-706303,0,7.0
Ba2H6Os,1.9655,-0.517956494166666,mp-697044,0,3.0
NaCaLaSeO6,2.403299999999999,-2.384227164872306,mp-1521407,0,3.0
PuCd11,0.0,-0.115270129618052,mp-1197139,0,0.0
Cu12C8O32H8,1.098668,,,0,1.0
Tl4SnS3,0.8640000000000001,-0.520482668541669,mp-9622,0,1.0
Rb2ScTlCl6,3.4475,-2.208681938333334,mp-1114003,0,5.0
Ce(CuSi)2,0.0,-0.593460608000003,mp-5452,0,0.0
Ca11(Cd9Au2)2,0.0,-0.408541299090907,mp-1227912,0,0.0
Ho12In3Fe2,0.0,-0.203698937058816,mp-1212423,0,0.0
BaLa2PtO5,2.4067,-3.030775586666667,mp-8809,0,3.0
K2YPCO7,4.6021,-2.776696912011904,mp-756647,0,7.0
GdCu2,0.0,-0.200788816666668,mp-1077933,0,0.0
H9CN5Cl2,4.7232,-0.454272925514706,mp-759603,0,7.0
CuPb3(ClO2)2,0.0,-1.322879303499998,mp-1190173,0,0.0
La12Fe11S30,0.0,-1.598631170849055,mp-1227608,0,0.0
Tl8Te4S12,1.288407,,,0,2.0
Ca(AlSb)2,0.0,-0.349231167999999,mp-1147656,0,0.0
NpF3,0.0,-4.007879197187499,mp-14107,0,0.0
CrNiSb,0.0,-0.015090736666666,mp-1018161,0,0.0
Ba3Be2B5HO13,3.6139,-2.976427974670139,mp-1228181,0,5.0
Ba4Hf3O10,3.604,-3.679772133235295,mp-779519,0,5.0
Tm2Be2GeO7,4.3832,-3.29546294375,mp-1208014,0,6.0
Cs2Ba3(P2O7)2,4.8929,-3.042783893820946,mp-1019605,0,7.0
H9CN6Cl,4.6841,-0.285961875661765,mp-1200524,0,7.0
SrLi2Sn,0.0,-0.473174742916666,mp-867171,0,0.0
Y2Cu3(SiO4)3,0.123599999999999,-2.474899936250001,mp-1261874,0,0.0
RbUAsO9,0.324,-1.566613621458334,mp-1219976,0,0.0
Zn3FeN3,0.0,0.023201083571429,mp-1247011,0,0.0
Na14Nb4Ga4Si11SO48,2.5597000000000003,-2.735313659473297,mp-2714418,0,4.0
Se8N8,1.743376,,,0,2.0
HoAgHg2,0.0,-0.319932665416669,mp-864775,0,0.0
K2AlTlBr6,2.8488,-1.581349104783334,mp-1111591,0,4.0
NaLaTi8(CuO4)6,0.0646,-2.67709339082615,mp-1220839,0,0.0
H10C3IN,4.3218,-0.263557244499999,mp-567221,0,6.0
LiSi4H27(C3O)3,3.276,-0.40313242874053,mp-1200227,0,5.0
NdH4C3O8,3.3175,-1.839665506328125,mp-698317,0,5.0
Y2NiRu3,0.0,-0.334746998333333,mp-1216057,0,0.0
DyAsO4,3.6275,-2.8459666998611173,mp-5632,0,5.0
Na7Y3TaSi3(PO8)3,3.2439,-3.047531943518303,mp-2714660,0,5.0
Na14Zr4Ga4Si9(SO16)3,3.4715,-2.7185390046968743,mp-2715055,0,5.0
Rb2MnBr4,0.825399999999999,-1.662182246133004,mp-27263,0,1.0
Sr2CeZrO6,2.3352999999999993,-3.59379191675,mp-1519555,0,3.0
Ca8Si4Se16,2.395231,,,0,3.0
TaGa3P2(SO6)4,3.1792,-2.24581475252311,mp-2712931,0,5.0
La3(ReO5)2,0.0,-3.065446080666686,mp-29326,0,0.0
GaIr,0.0,-0.456335330000001,mp-11388,0,0.0
Pr3(Ge3Pt2)2,0.0,-0.9113616884615352,mp-645543,0,0.0
Na10Y4Hf4Si7S5O48,3.6306,-2.91443262698239,mp-2716090,0,5.0
Li3Ti7O14,0.0,-3.266100809722223,mp-1177528,0,0.0
Mg29Ir4,0.0,-0.164095882979797,mp-31499,0,0.0
Cd2BiAsO6,2.0584,-1.64887122325,mp-556653,0,3.0
EuSi,0.0,-0.671324204999997,mp-21279,0,0.0
CsDyCdTe3,1.5476,-1.2834591277203051,mp-12487,0,2.0
LiTmO2,0.0001,-3.349264163958334,mp-1176564,0,0.0
HfTaRe2,0.0,-0.396153335583335,mp-865025,0,0.0
Ba2F2S2Cu2,1.965518,,,0,3.0
Ce2ReC2,0.0,-0.291477234500001,mp-985704,0,0.0
LaMgMnS4,0.0,-1.503045726133004,mp-1247059,0,0.0
TiSiNi,0.0,-0.821395529444443,mp-510409,0,0.0
Tl2S3,0.0,0.612670637166664,mp-1206297,0,0.0
K3VSe4,1.0092,-1.180764797640624,mp-1147776,0,1.0
Na4ZnSn3(PO4)6,2.476999999999999,-2.495372527676519,mp-2713256,0,3.0
In11(CN5)2,0.0,0.241576872789852,mp-1246655,0,0.0
Ca2MoN3,0.0,-1.050433568333332,mp-1029689,0,0.0
K2Be2Zn(O3F4)2,0.210099999999999,-1.543103470499999,mp-1212261,0,0.0
PrCdAu,0.0,-0.622389334999995,mp-1205879,0,0.0
Na5Lu(SiO3)4,3.8211,-2.994407140313479,mp-1133325,0,6.0
LiY2Ga,0.0,-0.326173605208332,mp-1185244,0,0.0
Rb2Y(NO3)5,3.3354,-1.463058105144928,mp-561251,0,5.0
LaYCd2,0.0,2.04145452875,mp-1093697,0,0.0
Eu4BClO7,0.0,-3.093656465897437,mp-1199302,0,0.0
Na4Zn2Ga2SiS5O24,2.434599999999999,-2.078773645035541,mp-2713492,0,3.0
Na2HfGa(PO4)3,4.023,-2.870488120308099,mp-2713307,0,6.0
MgHg2(BiO3)2,0.9405,-1.43418335818182,mp-2240231,0,1.0
La5PPb3,0.0,-0.8624662838492061,mp-1188357,0,0.0
Rb2ErTi(PO4)3,2.5652,-3.104253134461153,mp-1220012,0,4.0
TmIn5Co,0.0,-0.191795977619047,mp-19911,0,0.0
Ho2FeC4,0.0,-0.294031897142857,mp-1103948,0,0.0
KHgC2IN2,2.6355999999999993,-0.203753307821429,mp-568604,0,4.0
TbCu,0.0,-0.253565384999998,mp-1837,0,0.0
ScAg2Sn,0.0,1.67568435208333,mp-1093744,0,0.0
Ca2Y3Si3O13,0.0,-3.538746074761905,mp-732235,0,0.0
Eu2H16S3O20,0.0,-1.727200552987805,mp-1203361,0,0.0
CsLa3,0.0,0.5204075542672401,mp-1183949,0,0.0
Cs2RbScCl6,4.0707,-2.438831018181035,mp-1112120,0,6.0
KCuSb3F18,0.2823,-2.62400225575,mp-1195095,0,0.0
Sm3(CuSn)4,0.0,-0.526168290454544,mp-1205497,0,0.0
Ba3SnP3,0.8242,-0.8735758373469371,mp-540923,0,1.0
Cu4H7SO11,0.1906,-1.023887666793477,mp-698171,0,0.0
DyGePd2,0.0,-0.910212492916664,mp-1106158,0,0.0
Mn2NiSb,0.0,-0.119495010474139,mp-1206364,0,0.0
V2K4F10O2H4,2.241763,,,0,3.0
Ba(CuO)2,1.386299999999999,-1.616588649999994,mp-7374,0,2.0
Mg30ZnCO32,2.895299999999999,-2.833410278359374,mp-1037463,0,4.0
Tm2PdAu,0.0,-0.9635711550000032,mp-1187605,0,0.0
TiZn3,0.0,-0.20619162583333,mp-1187531,0,0.0
Ti13Pb3,0.0,-0.069966754166664,mp-1217515,0,0.0
GeTe5Pb4,0.6379,-0.391679008999994,mp-1224514,0,1.0
Ti(SnO2)2,1.077499999999999,-2.432151184404761,mp-18288,0,1.0
LuInNi2,0.0,-0.411526305833332,mp-865945,0,0.0
Co2PS3,0.0,-0.501799400652281,mp-1226453,0,0.0
KBe3ZnF9,6.245900000000001,-3.311582430160715,mp-18509,0,7.0
Ca2Al4Si4O20H8,5.023701000000001,,,0,7.0
LiIn2Cu,0.030899999999999,1.105335640958339,mp-1096237,0,0.0
VZnFe2,0.0,2.618332632499999,mp-1096682,0,0.0
Zr5Sb3Se,0.0,-0.9537148232291672,mp-1106288,0,0.0
Ba2LaReO6,0.0,-2.96140979275,mp-20958,0,0.0
KTl(SO4)2,2.0234,-1.831071993798611,mp-1211257,0,3.0
Hg8Cu8S8Br8,0.937852,,,0,1.0
ScAsO5,0.4293,-2.037701233928572,mp-1105046,0,0.0
TiFeH,0.0,-0.37359505986111,mp-1077746,0,0.0
Cr2FeSe3S,0.0,-0.688561183504463,mp-1226396,0,0.0
P6N7Cl9,3.9369,-0.8851360274025971,mp-650015,0,6.0
CaCuBi2O7,0.0,-1.490569784545455,mp-1047760,0,0.0
Mg3MnH7,1.6630999999999991,-0.345851856061911,mp-643573,0,2.0
Na2Y4Nb4Si5S7O48,1.1332,-2.70544255921798,mp-2716164,0,1.0
TmIr,0.0,-0.9546286100000052,mp-11483,0,0.0
Fe1Zr1F6,3.095442,,,0,4.0
LaI2,0.0,-1.678985305000001,mp-23194,0,0.0
KB5O8,5.4892,-2.842433144505952,mp-12183,0,7.0
HoInPt,0.0,-0.986927420555555,mp-21290,0,0.0
HfBe13,0.0,-0.175479483214286,mp-1878,0,0.0
CaTiSiO5,2.985499999999999,-3.476201650416667,mp-6109,0,4.0
Cd8Cl8P4,1.397371,,,0,2.0
AgAsF7,0.0,-2.1067146368518532,mp-4807,0,0.0
HfThO3,0.0,-3.158203890999999,mp-1184597,0,0.0
GdEr3Mn8,0.0,0.5365237861614051,mp-1225348,0,0.0
Pb2Cd1Cl2O2,2.421511,,,0,3.0
Na14Mg4Ti4Si7S5O48,1.5579,-2.6827781470749232,mp-2715560,0,2.0
CeMnSi2Pd,0.0,-0.6611456835862051,mp-1226515,0,0.0
Cs2U3P6(HO5)4,0.2355,-2.665206041204785,mp-1202678,0,0.0
Nd6Al3Fe11,0.0,-0.123370308999999,mp-1220621,0,0.0
LiZn2Pt,0.0,-0.561745348333332,mp-867251,0,0.0
Hf2Pd,0.0,-0.531846506666667,mp-11454,0,0.0
Cu8N24,2.491813,,,0,3.0
Li2Cu3(CO3)3,0.065199999999999,-1.571255108921569,mp-758427,0,0.0
Tm2FeSi2,0.0,-0.6957865480000021,mp-1206971,0,0.0
VCrSi4,0.0,-0.337930901666663,mp-1216378,0,0.0
YScAg2,0.076699999999999,2.059703301250003,mp-1097110,0,0.0
Ta9P2O25,0.0,-2.93854094834127,mp-1208647,0,0.0
K2Y2(PO4)3,0.031099999999999,-3.080057542680451,mp-1211807,0,0.0
Al(BiO2)2,0.0,-1.854024146785714,mp-1096811,0,0.0
S9,2.176846,,,0,3.0
Nb2Sr1O7Li2,1.369874,,,0,2.0
BaH2,2.8697,-0.6047468716666671,mp-23715,0,4.0
Ta2VOs,0.0,-0.384749546166666,mp-864670,0,0.0
Nb3IrS8,0.0,-1.168842896249999,mp-675367,0,0.0
BaCa(SnO2)4,0.0,-2.151575137142856,mp-1047389,0,0.0
K4HfC8O21,0.5307000000000001,-1.3911305413676471,mp-1204255,0,0.0
Cu2Se2NO10,0.0,-0.325155659979167,mp-1103918,0,0.0
EuCuO3,0.0,-1.977672172,mp-1075902,0,0.0
Tl4Cs4Br16,1.75257,,,0,2.0
CaCO3,4.999499999999999,-2.687544458,mp-3953,0,7.0
Th2CoSi3,0.0,-0.753227709166665,mp-1217302,0,0.0
CsBi2Br7,2.8535,-1.363464121965517,mp-1105273,0,4.0
BiSCl,1.9636,-0.7342089301041691,mp-23318,0,3.0
Gd2Fe2I,0.0,-0.5986554539999981,mp-567844,0,0.0
Ca2BiN3,0.169799999999999,-0.221265858277782,mp-1247314,0,0.0
GdIr3,0.0,-0.382984297500009,mp-510400,0,0.0
Cs2LiAlF6,6.8832,-3.437782690264368,mp-1206808,0,7.0
Ni3Mo2P,0.0,-0.288999980218254,mp-1220086,0,0.0
Zn3(AsO5)2,0.0662,-1.078836982666666,mp-1196319,0,0.0
Rb2SnCl6,2.5452,-1.8884658099999991,mp-23059,0,4.0
Na4LaYSi(PO6)2,3.7444,-3.023732840228712,mp-2714436,0,5.0
Sm2CuIr,0.0,-0.5488407323611101,mp-867887,0,0.0
Na10Ti4Si9Ge4(SO16)3,2.5642,-2.651191821918289,mp-2714221,0,4.0
Hg2SBr4N2O3,2.4712,-0.039923161458334,mp-1191291,0,3.0
BaSmTi4O12,0.0,-3.13146275712963,mp-1517119,0,0.0
Na2Al2As3,1.531799999999999,-0.6375267442857141,mp-17473,0,2.0
Y2PbAu,0.0,1.4747242510000191,mp-1096199,0,0.0
Na3B5Pt9,0.0,-0.490392327205878,mp-505055,0,0.0
Na3CuO2,1.3047,-1.350923166522984,mp-755401,0,2.0
LiNiN,0.0,-0.149841617527776,mp-29719,0,0.0
La8(BiPb)3,0.0,-0.7705155342857151,mp-1223136,0,0.0
Se4O8C16,1.333029,,,0,2.0
Na4Ta3GaSi5SO24,3.0084,-2.898581906382033,mp-2715042,0,4.0
Cs(BBr)6,2.5614,-0.9517041070888612,mp-569897,0,4.0
Na5ZrGa3Si3(SO8)3,3.049699999999999,-2.444024804493074,mp-2716485,0,4.0
SmI,0.0,-1.076776040000002,mp-978679,0,0.0
Cu3P8(S2Cl)3,1.872599999999999,-0.5457013773571421,mp-559558,0,2.0
Lu2Pd2Pb,0.0,-0.8419802716666681,mp-31091,0,0.0
K6Na2Re4O18,1.788455,,,0,2.0
NaAlSiO4,4.7132000000000005,-3.14732338966133,mp-560334,0,7.0
AsH3C(SF2)3,2.852,-1.414070421339284,mp-759958,0,4.0
Fe1Na1F6N2H8,3.617487,,,0,5.0
Sr2Bi3,0.0,-0.812347422499999,mp-31150,0,0.0
TiOF2,2.054999999999999,-3.568734357083334,mp-1216625,0,3.0
Na7HfZn3P5SO24,3.92,-2.551533359683808,mp-2715860,0,6.0
Ho2ZnPd,0.0,-0.6161086424999961,mp-1184649,0,0.0
Rb4C2O9,0.0091,-1.371118384000001,mp-1209669,0,0.0
W1Cu1Ba2O6,0.711245,,,0,1.0
Ho2Fe2Si2C,0.0,-0.67148414642857,mp-1025316,0,0.0
Li4Mg(HN)3,2.9272,-0.648587624280303,mp-1101935,0,4.0
Cr2As,0.0,-0.042650805833333,mp-20552,0,0.0
CaSiSn3S5O24,0.2194,-2.077651145073531,mp-2712876,0,0.0
In2Ga2O6,1.211932,,,0,1.0
Hf2ReRh,0.0,-0.6860638156249971,mp-977407,0,0.0
Th2Al4Si2Au3,0.0,-0.674321373636362,mp-1208226,0,0.0
Cs2KNa,0.1589,0.5285818361465521,mp-1095948,0,0.0
NaLa(RuO3)2,0.0,-2.007820645637932,mp-1220759,0,0.0
Au3Cl,0.0,0.280503911875001,mp-1183201,0,0.0
SmCuSeO,1.286499999999999,-2.236524274335937,mp-9194,0,2.0
PrCu2,0.0,-0.173217068888888,mp-1071904,0,0.0
Ta3O8,0.0,-3.154825579045454,mp-727194,0,0.0
Si2Ag9NO11,0.150299999999999,-1.137440053695651,mp-1219350,0,0.0
CeAs2Au,0.0,-0.782787381249998,mp-1226657,0,0.0
Sb2Pt,0.0,-0.541804146666663,mp-562,0,0.0
YCl,0.0,-1.70672460375,mp-540884,0,0.0
Ba3GeI2,0.0,-1.344987884583333,mp-568836,0,0.0
Ba2LaMgCu3O7,0.0,-2.051563483928571,mp-2228606,0,0.0
Ca(PO3)2,5.4963,-2.971411012281744,mp-5680,0,7.0
K4Ti2C8O23,0.6422,-1.48112181968018,mp-1181261,0,1.0
Pu2Sn3,0.0,-0.285201179300008,mp-1210741,0,0.0
Y(Co5Mo)2,0.0,-0.006311996153847,mp-1216218,0,0.0
B2(CN2)3,2.2701,-0.34049531318182,mp-2455462,0,3.0
CeSi2Mo2C,0.0,-0.535659118333332,mp-1018666,0,0.0
Nd2PbS4,1.7921,-1.87764620142857,mp-675620,0,2.0
Th2CuSi3,0.0,-0.6585380750000001,mp-1217294,0,0.0
Ba3Gd2(PS4)4,1.404399999999999,-1.493288370442856,mp-684036,0,2.0
GeBiNO7,2.1807,-1.0860978925,mp-1195356,0,3.0
CaAg4(RuO3)4,0.0,-1.145724115079364,mp-1233339,0,0.0
GaSiCN,0.5371,-0.233309686014798,mp-1092268,0,0.0
Ba4NaAuO8,1.0979,-1.903619717955664,mp-560188,0,1.0
La2ZnGa,0.0,-0.492499133749998,mp-973847,0,0.0
Ca5Sn3S11,1.9316,-1.5307512756578932,mp-1100378,0,3.0
AgSO4,0.0,-1.3706151004861111,mp-1196324,0,0.0
Cd3H6C2I6(NO)2,2.5574,-0.7601251265476201,mp-1204973,0,4.0
H2Se,0.0,0.645250212552082,mp-24420,0,0.0
CaYHg2,0.0,-0.602788378750002,mp-866223,0,0.0
MgZnCu2SnS4,0.5177,-0.692295134444444,mp-2240691,0,0.0
Y2Cr2Te2O12,2.656566,,,0,4.0
BaNb4O6,0.0,-2.728184333636361,mp-505517,0,0.0
EuBr3,0.0,-1.957539588750002,mp-1205810,0,0.0
CaTmRh2,0.0,-0.6544295799999981,mp-1183550,0,0.0
Rb3Ce,0.0,0.8038806943750001,mp-1186965,0,0.0
DyPt3,0.0,-1.109663841250004,mp-2465,0,0.0
DySe2,0.0,-1.790737476041665,mp-1018683,0,0.0
NpSiO3,0.0,-2.52523175675,mp-1186349,0,0.0
Na7La2Si3Sn2(PO8)3,2.7819000000000003,-2.78437559211993,mp-2714910,0,4.0
CeSiBRh3,0.0,-0.766413868194445,mp-1226584,0,0.0
WSeS2Cl5,2.2845,-1.027800370815972,mp-573078,0,3.0
Sm2Re2Si2C,0.0,-0.57100698,mp-1025249,0,0.0
Dy2AgAu,0.0,-0.5903140237499951,mp-1184089,0,0.0
ThFe5,0.0,-0.054154229999998,mp-2689,0,0.0
BaBeSiO4,4.6114,-3.3246150149999982,mp-550751,0,7.0
V2FeSi,0.0,-0.459187637499999,mp-1216581,0,0.0
Gd6Mn23,0.0,0.9264030088822892,mp-1194710,0,0.0
CaGaAu3,0.0,-0.6220695137500001,mp-567485,0,0.0
Ba(BO4)2,0.0,-1.277819508143938,mp-1201084,0,0.0
SmYFe6,0.0,-0.026471827708333,mp-1219057,0,0.0
Ba2(IrO3)3,0.0,-1.871456811071432,mp-510508,0,0.0
Mg6SnC,0.0,0.3976143775,mp-1021392,0,0.0
Hg3Pd8Se9,0.0,-0.5270091986796921,mp-1202782,0,0.0
Lu(AlCu)6,0.0,-0.380560481282051,mp-1222454,0,0.0
Na3Mg2Ge2P3(SO8)3,2.683799999999999,-2.361791204069365,mp-2713737,0,4.0
NaHf2(PO4)3,5.029999999999999,-3.250018321128214,mp-40161,0,7.0
S(NO2)2,0.5172,-0.658585401428571,mp-1179642,0,0.0
HfAl2O5,4.9993,-3.584016893125,mp-2647075,0,7.0
Tl(CuTe)2,0.0,-0.326141221333334,mp-569204,0,0.0
La2Si2O5,0.0,-2.700842459444445,mp-1185023,0,0.0
Ru2C8O8I4,2.082049,,,0,3.0
Gd3Lu2(GaO4)3,3.078999999999999,-3.388616952541667,mp-1213450,0,4.0
Ba2SmCu3O7,0.0,-2.169248834615385,mp-21451,0,0.0
Co21(B3Mo)2,0.0,-0.131760311896553,mp-542728,0,0.0
MgTi4(PO4)6,2.4111,-3.047504249034013,mp-1222070,0,3.0
Rb6In2S6,2.241561,,,0,3.0
Ba3Al2O12,0.8126000000000001,-1.7777542995588231,mp-1204798,0,1.0
Dy2Ga8Co,0.0,-0.4837137030303,mp-1102381,0,0.0
ZrAlNi,0.0,-0.6447182466666671,mp-5723,0,0.0
BaCu2Te2(ClO3)2,0.0,-1.655935796410256,mp-554401,0,0.0
Cs3Ga9,0.034127999999999,,,0,0.0
Hf5NiSb3,0.0,-0.5893368522222201,mp-1188693,0,0.0
Cs4H4SeS3O16,3.9122,-1.845501460659443,mp-1229175,0,6.0
Al3Pd,0.0,-0.3517151540625,mp-1183127,0,0.0
NaScZn(SO4)3,4.271000000000001,-2.26806407706737,mp-2714151,0,6.0
HoPS4,2.173,-1.199412282579362,mp-18532,0,3.0
CaRhO3,0.0,-2.093056296999999,mp-1078659,0,0.0
Li2CdBi,0.0,-0.386866282083332,mp-1184983,0,0.0
LiTa2CuO6,1.1642,-2.768063167799999,mp-1222423,0,1.0
EuCl3,0.0,-2.125660104375001,mp-569895,0,0.0
Sm2(SiPt)3,0.0,0.431145533750002,mp-1206140,0,0.0
Tm3Co4Ge13,0.0,-0.396452796750001,mp-1202164,0,0.0
NbGaCu,0.0,-0.278593203333336,mp-1220472,0,0.0
MgGaAg2,0.0,-0.141955728958331,mp-865183,0,0.0
K2H6Pt,3.9976,-0.481529435555554,mp-643279,0,6.0
VSi3Mo4,0.0,-0.473640636249999,mp-1207805,0,0.0
CaHI,3.5271,-1.299942560416665,mp-24204,0,5.0
Dy2AgOs,0.0,-0.274108186249996,mp-864977,0,0.0
Tm(MnAl2)4,0.0,-0.340914733209549,mp-1103516,0,0.0
Ti4S8N,0.0,-1.111638555256409,mp-1217155,0,0.0
GaSi3,0.0,0.514813873125,mp-1184252,0,0.0
Eu2TlCd,0.0,-0.463020557499994,mp-1184281,0,0.0
Sr3Zr2Nb2O12,2.0602,-3.4124335447368432,mp-1218510,0,3.0
TbGePd2,0.0,-0.910464104791666,mp-1208316,0,0.0
CsReOF6,2.9741,-2.662115719961686,mp-557451,0,4.0
Bi4W2O12,2.100569,,,0,3.0
RbMg6TiO8,1.075899999999999,-2.505882419427083,mp-1031226,0,1.0
Nd5Ir2,0.0,-0.590957939642854,mp-1104605,0,0.0
Ce2SeO2,0.0,-3.354982122468743,mp-754640,0,0.0
Cs4Os2Cl10O,0.8307,-1.675717980801217,mp-1202549,0,1.0
SrGa4Au3,0.0,-0.463656115,mp-1208621,0,0.0
Fe1N12C6Co1H18,0.0,,,0,0.0
Hg8Si2S12,0.413024,,,0,0.0
Sm2Co16Ge,0.0,-0.061850691842105,mp-1219168,0,0.0
Mn2B4W,0.0,-0.421926713780785,mp-1077988,0,0.0
Sm2PdRh,0.0,-0.7711791925000011,mp-972572,0,0.0
O6Co2Ti2,2.003924,,,0,3.0
Pr3Ge5,0.0,-0.8137149881249991,mp-1209801,0,0.0
K3LuSi2O7,3.6132,-3.092836822570512,mp-557543,0,5.0
YB4Mo,0.2774,-0.6713338599999991,mp-7691,0,0.0
SbPbClO2,1.9127,-1.710929169,mp-23138,0,3.0
NaCd4(GeO3)5,0.5545,-1.851016050255172,mp-728783,0,0.0
Sm4Al2O9,4.1441,-3.757058576000003,mp-1208969,0,6.0
Re2Ag2O8,1.818905,,,0,2.0
SrTaF7,5.4935,-3.778625073037037,mp-555119,0,7.0
Ti1S2,0.0,,,0,0.0
EuCuSeF,0.030499999999999,-2.201644781835938,mp-21356,0,0.0
Na14Ti8Si11SO48,2.6275,-2.981132979310695,mp-2714563,0,4.0
Tb3CuSe6,0.7672000000000001,-1.704865274156249,mp-1217751,0,1.0
AlBrO,3.0144,-2.583134489166666,mp-1214833,0,4.0
H4NClO2,2.8159,-0.565984196875001,mp-696666,0,4.0
Fe2P12W,0.0,-0.346975559214284,mp-1199047,0,0.0
Er5C2Br9,0.922099999999999,-1.88502260015625,mp-29401,0,1.0
CaN,0.0,-0.441381772656249,mp-1058549,0,0.0
CsLaMg14,0.0,0.179671748459051,mp-1026767,0,0.0
Bi4Ag20O16,1.456159,,,0,2.0
Er3Ga15Ru4,0.0,-0.509654780454545,mp-1213476,0,0.0
Si8HgC18,0.0,1.199329223337231,mp-1219839,0,0.0
Na2La2P2SO12,4.5601,-2.944643760677772,mp-2713716,0,7.0
TbHf,0.0,0.174190115000001,mp-1187341,0,0.0
Ca(AsO3)2,3.3115,-2.227475808333333,mp-4555,0,5.0
K2MgF4,6.405900000000001,-3.367804555642856,mp-31212,0,7.0
Na6Hf2Mg2Si3(SO8)3,2.5826,-2.701283077602731,mp-2716190,0,4.0
Ho2AlFe3,0.0,-0.189347366666664,mp-1223966,0,0.0
Ca11(CoN5)2,0.0,-0.6940126306702881,mp-1246415,0,0.0
NaGaTe2,1.5786,-0.79603450055316,mp-1094098,0,2.0
Na3MgNbSi2SO12,1.5936,-2.63254713566523,mp-2714404,0,2.0
Cs2TePO10,0.0248,-1.240054524151419,mp-1199233,0,0.0
Tl2TeO6,0.0,-1.289525664074077,mp-18191,0,0.0
LaLuMg2,0.0,-0.064452017916668,mp-1185060,0,0.0
UC3S(NO4)2,0.0,-0.8242397704999991,mp-1208253,0,0.0
BiTe2Pb2AuS3,0.0,-0.590508887314814,mp-1227557,0,0.0
K2HgAsCl6,0.0,-1.44466598845,mp-1112212,0,0.0
DySnRu2,0.0,-0.354631731666665,mp-865358,0,0.0
YMg14TiO16,0.0,-2.914868506041666,mp-1035993,0,0.0
Na8TaIn3Si5SO24,2.9678999999999993,-2.584938207600028,mp-2716134,0,4.0
Er5Pb4,0.0,-0.495404623055553,mp-1198040,0,0.0
NaMg3P3(HO6)2,5.2188,-2.714224203467042,mp-1195665,0,7.0
LaMg14Bi,0.0,-0.0196302078125,mp-1026729,0,0.0
Sn(NF)2,0.9325999999999992,-1.229652501,mp-1069819,0,1.0
As4S11(N6Cl7)2,1.2323,-0.056938329908534,mp-706455,0,1.0
Y(CrS2)2,0.0,-1.368239800714285,mp-1045419,0,0.0
BaGePt,0.0,-0.9001778516666641,mp-22151,0,0.0
K4Li(CO3)2,0.0,-1.8765455401794864,mp-1235099,0,0.0
HfNb(PO4)3,2.9362,-3.090933334838936,mp-2713909,0,4.0
Th(AlAu)2,0.0,-0.709222360000003,mp-1078533,0,0.0
HfMoP,0.0,-0.967549962658724,mp-7032,0,0.0
Co4O13B6,2.991987,,,0,4.0
U6O11,0.0,-3.605931631470585,mp-761153,0,0.0
CaSn3P3O13,0.0,-2.48566077419643,mp-1353875,0,0.0
Au8Cd2K4S8,2.024458,,,0,3.0
Al2PdRu,0.0,-0.8579669187500011,mp-862715,0,0.0
Mg6GaFe,0.0,0.1211911384375,mp-1022199,0,0.0
LuIr2,0.0,-0.8471208155555541,mp-1761,0,0.0
Re2S2O13,2.3825,-1.851876866764707,mp-974650,0,3.0
VNiP,0.0,-0.7619939440476191,mp-1103470,0,0.0
Sr8Ca3NdTl2Cu8(PbO14)2,0.0,-2.122127271618589,mp-1218785,0,0.0
Sm9In(SiS7)3,1.921699999999999,-1.911605013063724,mp-1219368,0,3.0
Cs12S12B4,2.512959,,,0,4.0
SbRhS,0.871799999999999,-0.670336395937499,mp-1103317,0,1.0
Ge1C1,1.635762,,,0,2.0
Hf6Al16Rh7,0.0,-0.8702147972413821,mp-983480,0,0.0
Dy2InNi2,0.0,-0.524012281999996,mp-1068319,0,0.0
LaBi,0.0,-1.294214520000004,mp-22926,0,0.0
LaCdPd,0.0,-0.680504899444444,mp-1078614,0,0.0
Ca2Rb2N6H12,2.013167,,,0,3.0
CoSe2,0.0,-0.345678589375,mp-20862,0,0.0
LiAu3,0.0,-0.381727351666661,mp-11248,0,0.0
Lu3Pu,0.0,0.70538071,mp-1185611,0,0.0
HfBeIr2,0.0,-0.7256527887499999,mp-1184576,0,0.0
NaCaSb2O7,0.0,-2.135386510125391,mp-1221074,0,0.0
Nb2ZnO6,3.2845,-2.764786504722221,mp-17177,0,5.0
Cs2MgSn3Se8,1.4299,-1.013353350218596,mp-1195633,0,2.0
CsMgSb(PO4)2,3.723,-2.53762899568776,mp-2218629,0,5.0
AgPdF6,0.0,-1.3849059325,mp-31215,0,0.0
ZrBiO4,1.0659,-2.6097999625,mp-752685,0,1.0
Cu3Cr4P6O24,0.816155,,,0,1.0
Ca2Zn3Ag,0.0,-0.305917126944445,mp-1227685,0,0.0
Ca7Si6CO23,0.0,-3.038121873243243,mp-1227284,0,0.0
NpB2C,0.0,-0.415325711979164,mp-1095351,0,0.0
Dy2Fe12P7,0.0,-0.7052289112301571,mp-1190791,0,0.0
Nd4Mg(CuO4)2,1.1545,-2.845946872333332,mp-2226846,0,1.0
Cs2HgAuBr6,0.0,-1.220187976181035,mp-1113305,0,0.0
ZnAuO3,0.0,-0.153992088999999,mp-971700,0,0.0
EuAsAu,0.0,-0.912312789166666,mp-19729,0,0.0
Sr2TmReO6,0.0,-3.048674391250002,mp-13940,0,0.0
Y3Sn,0.0,-0.374432348749999,mp-982243,0,0.0
LuZn12,0.0,-0.176222629743591,mp-1104393,0,0.0
Na18Mg8Nb16Si21(S5O48)3,1.0575,-2.661119837330305,mp-2713023,0,1.0
NaSr3Be3B3O9F4,4.7554,-3.28618608603823,mp-1192032,0,7.0
Sb2F7,3.8056,-2.679369363611093,mp-28062,0,6.0
YGa3,0.0,-0.5767257743749991,mp-865598,0,0.0