formula,bg,formation_energy,mp-id,fidelity,bg_category
CoPW,0.0,-0.352964905992062,mp-1102504,0,0.0
Sr2YGaCu2O7,0.0,-2.485577612499999,mp-556575,0,0.0
Er2CuO4,0.0,-3.134255980714284,mp-753901,0,0.0
CaYb3(InGe2)2,0.0,-0.7153895105000031,mp-1227085,0,0.0
BaPr2ZnS5,1.171999999999999,-2.059574781203702,mp-16454,0,1.0
CaMgSi,0.0,-0.402603495833332,mp-5473,0,0.0
Ca4Cr4O12,0.5117780000000001,,,0,0.0
K2U3(IO5)4,1.8921,-2.167465826362081,mp-556374,0,3.0
ThMgAu2,0.0,-0.6667310187499951,mp-1187438,0,0.0
K2SnHCl4,1.9466,-1.40488323103125,mp-1211894,0,3.0
FePt3,0.0,-0.173685672499999,mp-649,0,0.0
MgCo,0.0,0.028191304583331,mp-542488,0,0.0
Na6La3NbSi4(SO12)2,2.3158,-2.847513946873563,mp-2714506,0,3.0
TcOs3,0.0,-0.091212437499997,mp-867212,0,0.0
ZnBi3,0.0,0.177580922499998,mp-971718,0,0.0
CrPd3,0.0,-0.127191602500001,mp-865786,0,0.0
PrInCo2,0.0,-0.162917739583332,mp-1101088,0,0.0
SmCu6,0.0,-0.142153082499999,mp-30699,0,0.0
Na3Li3In2F12,5.382199999999999,-3.013227017373563,mp-6527,0,7.0
Cd18Sn19O56,0.0,-1.722289453172042,mp-685363,0,0.0
KNdPdO3,0.6506000000000001,-2.2765922624583332,mp-558831,0,1.0
La4S4O4,1.471425,,,0,2.0
MgH2(SeO4)2,3.298899999999999,-1.474973943629807,mp-24546,0,5.0
KCu3PbSe4,0.175599999999999,-0.247819904069443,mp-1180900,0,0.0
Li3Cu2P5O16,0.300899999999999,-2.386644062815933,mp-25871,0,0.0
K3BiO3,2.9552,-1.67534266132143,mp-29524,0,4.0
CS4N4ClO2,0.5571,-0.059469256875,mp-726331,0,0.0
Er2ZnS4,2.3854,-1.9610397668452384,mp-1192811,0,3.0
Sc3OsC4,0.0,-0.4365457525,mp-867215,0,0.0
Na2Cu2Se2,0.4528939999999999,,,0,0.0
Rb8Se20,0.744072,,,0,1.0
CdPbO3,0.0,-1.375123976249999,mp-685257,0,0.0
LiTbIn2,0.0,-0.495212079166666,mp-1185445,0,0.0
Cu8K24O16,1.873263,,,0,2.0
Na14Y6Ta2Si9(SO16)3,2.7157,-2.924366180729395,mp-2714764,0,4.0
BaLi2(MgSi)2,0.0,-0.279435683809524,mp-570771,0,0.0
Ca3Co3N5,0.0,-0.55049667965909,mp-1246509,0,0.0
Sr2DySbO6,3.6641,-3.110212678666666,mp-561072,0,5.0
K5CuAs2,0.252499999999999,-0.32626086953125,mp-14623,0,0.0
NaTaCl6,2.9288,-1.928379467651579,mp-28179,0,4.0
Dy(NiP)2,0.0,-1.012031162190474,mp-5227,0,0.0
ErGaPt,0.0,-1.10979886083333,mp-1102669,0,0.0
PmEuZn2,0.0,-0.277409433125003,mp-1186579,0,0.0
Ca22H51Rh11,0.0,-0.5827788721130951,mp-685437,0,0.0
MgPbO3,0.0,-1.494377025999999,mp-976722,0,0.0
Zr4Fe2N,0.0,-0.6663198317857131,mp-1193097,0,0.0
TmCO4,0.4881,-2.541007492291667,mp-1200742,0,0.0
Si4Al6O20H6,5.477262,,,0,7.0
Gd4Ga12Pd,0.0,-0.419194007647056,mp-1189271,0,0.0
Cs2AgI3,2.8367,-1.320910873079503,mp-540881,0,4.0
Li3GdO3,3.582999999999999,-2.6697603209523812,mp-1177660,0,5.0
Li(YGe)4,0.0,-0.8373095225925901,mp-1210940,0,0.0
LiMgIr,0.0,0.239636138888889,mp-1095638,0,0.0
TmTa3,0.0,0.34593759083333,mp-981251,0,0.0
Hf3I,0.0,0.272925495,mp-1184661,0,0.0
Sm4Ge9Ir13,0.0,-0.671590680384615,mp-1197262,0,0.0
SrEu4O5,0.0,-3.1026560165000032,mp-769800,0,0.0
LuAgSe2,1.3047,-1.385930871197914,mp-1189356,0,2.0
Cu3Ag2P2O9,0.0,-1.596806901804315,mp-1195349,0,0.0
YMgAlGe2,0.0,-0.467202094999999,mp-1215910,0,0.0
Hg1Na2O2,1.659223,,,0,2.0
RbBiF6,2.6387,-2.530267789687501,mp-27421,0,4.0
Mg6TiSnO8,0.116800000000001,-2.548458843645832,mp-1031502,0,0.0
Bi3Pt2Pb,0.0,-0.266112457465273,mp-1227493,0,0.0
LuAgTe2,1.164699999999999,-1.055462540416667,mp-1206851,0,1.0
P3H18OsC6(SO)6,0.2016,-0.634483964785714,mp-698354,0,0.0
KMn(CN)3,0.0,-0.223804382835129,mp-1196258,0,0.0
Ca6La14Mg7Ti13O60,1.1974,-3.6189598814833337,mp-720199,0,1.0
SmAgHg2,0.0,-0.414758697499998,mp-867218,0,0.0
Ga3Fe4Co8Si,0.0,-0.263447672031249,mp-1225352,0,0.0
CsMgAs(H3O2)2,0.0,0.202437519257294,mp-1213043,0,0.0
K2RbAlI6,1.9161,-1.259210377199999,mp-1111610,0,3.0
KSmHf2O6,2.7483,-3.516868117225,mp-1518329,0,4.0
GdRh5,0.0,-0.303516111388892,mp-571283,0,0.0
Bi2O2Br2,2.197014,,,0,3.0
Cr2K2O4,2.824045,,,0,4.0
Gd(NO3)3,2.5904000000000003,-1.446212558846155,mp-1203247,0,4.0
LuNiC2,0.0,-0.342596214166666,mp-1001603,0,0.0
RbTiBr3,0.0,-1.687460090166666,mp-569807,0,0.0
P16Be8,0.832738,,,0,1.0
Na2LaYSi(SO6)2,4.1481,-2.772581326899577,mp-2713253,0,6.0
CaEuHg2,0.0,-0.601035267500002,mp-1183530,0,0.0
Ce2(Al5Ru)3,0.0,-0.5274837653749991,mp-567554,0,0.0
S4N3O2F,2.15,-0.5199536375,mp-556512,0,3.0
AgHg2NO5,0.5517000000000001,-0.680979918240742,mp-560443,0,0.0
TaFe4W,0.0,-0.10904160288889,mp-1217935,0,0.0
Rb2NaDyCl6,5.1403,-2.4609179838045923,mp-1114023,0,7.0
Mn2NiSn,0.0,0.067113844784483,mp-1221821,0,0.0
AsP,0.458199999999999,0.059072495833333,mp-1228799,0,0.0
Rb3Os,0.0,1.408671126875,mp-974843,0,0.0
U(CoGe)6,0.0,-0.204185819230768,mp-1103983,0,0.0
La4B4Cl5,0.0,-1.737931922820511,mp-569894,0,0.0
Na7Ta3Zn(SiO4)6,2.3779999999999992,-2.914872931747688,mp-2712904,0,3.0
CuSbRh2,0.0,-0.295379342500002,mp-867753,0,0.0
N4Sr2D8,2.391994,,,0,3.0
CsHgSbSe3,1.0746,-0.748989510697738,mp-1225936,0,1.0
PSeCl9,2.2607,-0.533182666094426,mp-662547,0,3.0
Ba2YBr7,3.8664,-2.449319338,mp-752620,0,6.0
NaTa4O8,0.0,-3.020694886977913,mp-1220959,0,0.0
Lu2GaNi2,0.0,-0.640211480666664,mp-1206147,0,0.0
ZrZn,0.0,-0.326053845,mp-570276,0,0.0
K5BaNbAs4,1.1094,-0.6104924910227281,mp-1223953,0,1.0
Gd2Re3Si5,0.0,-0.556343903249999,mp-1198764,0,0.0
CaTi6(H2O7)2,0.0,-2.8795451226,mp-1233761,0,0.0
Cu4SnP10,0.241699999999999,-0.16827058131746,mp-34126,0,0.0
Te6As4C3(NF8)3,2.1702,-1.718586524375,mp-555419,0,3.0
LiSiRu2,0.0,-0.352916888333333,mp-865838,0,0.0
Na2ZrPCO10,0.3286,-1.808279799826765,mp-1180616,0,0.0
K2H4Pd(N2O5)2,2.3,-1.116345750452381,mp-1192109,0,3.0
Dy5(In2Ni)2,0.0,-0.512761570909086,mp-607124,0,0.0
LiNb8O10,0.0,-2.388641615175439,mp-772215,0,0.0
MgReN2,0.0,-0.319633774375001,mp-1245716,0,0.0
TlCoCl3,0.202499999999999,-1.120604813666668,mp-2353285,0,0.0
Er4Ga12Ni,0.0,-0.5556536494117641,mp-1106190,0,0.0
Cu2Bi8Pb3Se3S13,0.3505,-0.635833396018319,mp-1226431,0,0.0
K2NaInF6,5.2445,-2.9891306462545972,mp-6686,0,7.0
Mg6MnCd,0.0,0.096475109633621,mp-1022939,0,0.0
Ba(MnN2)2,0.0,-0.594911927266009,mp-1245357,0,0.0
LiH6NO6,3.272,-1.308234898988095,mp-23906,0,5.0
BaMg6Nb,0.0,0.237774526249999,mp-1016650,0,0.0
Na2GaAgF6,1.5786,-2.521764819192527,mp-1111329,0,2.0
Na2LiPdF6,0.0,-2.353466008083337,mp-1114237,0,0.0
Sm(Ge2Rh3)2,0.0,-0.7429999486363631,mp-1103010,0,0.0
Na4ScSi2GePO12,2.3719,-2.7685234213568313,mp-2715597,0,3.0
Ca3Ru2O7,0.0,-2.404844892916665,mp-3258,0,0.0
Ba4In2O7,1.4717,-2.46355127025641,mp-757745,0,2.0
Rb2CeCuCl6,0.2559,-2.105191103499999,mp-1113306,0,0.0
TaMoN3,0.0,-0.6737603224666671,mp-1247469,0,0.0
TmCo2Sn,0.0,-0.298786728750001,mp-1187580,0,0.0
BaCu2GeSe4,0.3567,-0.952095912213542,mp-17252,0,0.0
Er2InHg,0.0,-0.5538206235416681,mp-1184102,0,0.0
Mg(CrS2)2,0.9995,-1.200620108571424,mp-1400392,0,1.0
SrCdSi,0.0,0.422365833333333,mp-962076,0,0.0
CeCu5,0.0,-0.104226895000001,mp-761,0,0.0
Sr2CuClO2,2.384299999999999,-2.505375169444444,mp-561243,0,3.0
NdSnPt,0.0,-1.045247506388894,mp-21111,0,0.0
Cd2Ge2O6,1.573393,,,0,2.0
LaAuO2,2.7167,-2.563249235,mp-997003,0,4.0
MgNi2Sb,0.0,-0.278498023749999,mp-30773,0,0.0
NdP2H9O10,5.4423,-1.9355212896834424,mp-23970,0,7.0
Na10CaSn12,0.416399999999999,-0.254896576251873,mp-30252,0,0.0
CsSmS2,2.1397,-2.053268447413792,mp-9082,0,3.0
Be24N16,3.32618,,,0,5.0
Na12Bi4O12,2.907089,,,0,4.0
Ba3N,0.0,-0.400365088750002,mp-10736,0,0.0
Sr(ZnP)2,0.8285999999999991,-0.810472131190476,mp-8276,0,1.0
K15Os7N19,0.062399999999999,-0.127325286920732,mp-1029965,0,0.0
Zr6Ga2NiH10,0.0,-0.5628969159210531,mp-1207411,0,0.0
YC2,0.0,-0.172125136666667,mp-313,0,0.0
LiPd2Au,0.000199999999999,-0.292139246249995,mp-1185262,0,0.0
CdN,0.0,0.8603301724999991,mp-1008918,0,0.0
Sr2Cu3O5,0.0,-1.8400379805000011,mp-552089,0,0.0
Li3Co,0.0,0.327907933749999,mp-977165,0,0.0
Sc4Si7Ni12,0.0,-0.7000067657971001,mp-567443,0,0.0
Na6Sn2S7,2.084699999999999,-1.077305547645833,mp-4907,0,3.0
Cs2AgAsCl6,1.5886,-1.5611243658477,mp-1113543,0,2.0
K2PH4O7,4.2014,-1.767981229581632,mp-1224569,0,6.0
Tl3SbSe3,1.0148,-0.435857006741071,mp-4876,0,1.0
Zn6Mo4O18,2.635787,,,0,4.0
ZrHg3(SBr3)2,1.8586,-1.106959395208335,mp-1207395,0,2.0
UH3CO6,2.1322,-2.158632930340908,mp-1191449,0,3.0
LiLu2Ga,0.0,-0.361883632083333,mp-976596,0,0.0
UInNi2,0.0,-0.096005836666663,mp-646821,0,0.0
SmFeC2,0.0,-0.20616082375,mp-999178,0,0.0
RbErP2O7,5.0563,-3.1548688499350632,mp-1196892,0,7.0
Mg3H13C9NO13,4.1024,-1.266000690801282,mp-605684,0,6.0
ZnSiN2,3.1944,-0.994469309375,mp-1020712,0,5.0
CuSi2N3,0.0,-0.902758002777776,mp-1247244,0,0.0
CeDyZn2,0.0,-0.263002830416664,mp-984702,0,0.0
Hf3Ti2Ga3,0.0,-0.480012712395832,mp-1212187,0,0.0
CuAgC3S3N7,0.566299999999999,0.512488608319942,mp-728890,0,0.0
Na2MgGaF7,5.8978,-3.240176965023511,mp-1210433,0,7.0
Ti2RePd,0.0,-0.5250984064583331,mp-865538,0,0.0
Mg2PtRh,0.0,-0.688206122499999,mp-864940,0,0.0
Sn6In4S14,0.486824,,,0,0.0
Ca6Sn2NF,0.132299999999999,-1.314570633,mp-989590,0,0.0
Tb(PPd)2,0.0,-0.9380211051904752,mp-1206776,0,0.0
ErPb3,0.0,-0.238688687499994,mp-388,0,0.0
Nd(MnGe)6,0.0,-0.281482032698938,mp-1104674,0,0.0
Zn2Hg3(S2I)2,0.600799999999999,-0.384109289772728,mp-1216409,0,0.0
Co2(GeSe)3,0.3737,-0.523631975253906,mp-5094,0,0.0
MnCoSnRh,0.0,-0.250279553232758,mp-1221622,0,0.0
USn,0.0,0.042649132500003,mp-972495,0,0.0
Gd8MgAlNi2,0.0,-0.254826625833331,mp-1225213,0,0.0
MgNb3,0.0,0.264392963749999,mp-1185899,0,0.0
Li5GaO2,0.2996,-1.339381263333333,mp-558082,0,0.0
NdSmMg2,0.0,-0.082475873124999,mp-1186328,0,0.0
Cs3Re3(SI)4,2.4339,-1.236948106533252,mp-669364,0,3.0
BaSi6,0.0,-0.020854319285714,mp-1480,0,0.0
TbCuSe2,0.8242,-1.45312432783854,mp-12984,0,1.0
Li2TiTeO6,2.4255,-2.418253728166667,mp-756117,0,3.0
KBi6BrO9,2.3328,-1.688726687779412,mp-555393,0,3.0
K2ZrGe2O7,3.9148,-2.6008527645416653,mp-16871,0,6.0
Sr5Sn3,0.0,-0.7373520218749999,mp-17720,0,0.0
Zn3Cr12(GaSe12)2,0.0,-0.832466246859755,mp-1215748,0,0.0
VPCl9,0.123799999999999,-0.983966061406926,mp-27523,0,0.0
La3PbI3,0.0,-1.30978687285714,mp-31317,0,0.0
Mo21S8,0.0,-0.122767335603451,mp-1210708,0,0.0
Mg2Sb3,0.0,-0.209429909999999,mp-1206370,0,0.0
Ba3MgTi2O7,0.0,-3.028745158205128,mp-2218647,0,0.0
BaY3F11,7.1448,-4.344770196666666,mp-752674,0,7.0
PuH2,0.0,-0.6058255287499981,mp-24720,0,0.0
BeH12S2(NO5)2,5.2492,-1.407312871481482,mp-1195480,0,7.0
Sm2Fe4Co13,0.0,-0.058779114210526,mp-1219231,0,0.0
Ca11Si4SO18,3.5249,-3.368165604338234,mp-555508,0,5.0
BaNdEuSbO6,0.150199999999999,-2.9830744687500013,mp-1518347,0,0.0
LiAuC4S4(OF)12,1.5318,-1.724165057156863,mp-1201845,0,2.0
Ga8K16Sb16,1.102997,,,0,1.0
Mg7Nb,0.0,0.139065994375,mp-1079163,0,0.0
Ti3O7,0.158699999999999,-2.913736122499999,mp-1179358,0,0.0
Ba3(LiBi)4,0.0,-0.770237662121219,mp-1095231,0,0.0
KNa2TaF6,0.0,-2.7521096497341953,mp-1111004,0,0.0
KLi(PO3)2,5.493799999999999,-2.7001274273619043,mp-559142,0,7.0
W2Co2Sr4O12,1.80552,,,0,2.0
Zr6Al7Cu16H9,0.0,-0.353043361348683,mp-505576,0,0.0
SrLa11Mg3Ga9O34,1.4869,-3.099192539956897,mp-677725,0,2.0
Sr6Sn4O14,2.139301,,,0,3.0
KRb2AlBr6,3.283,-1.802056757225,mp-1114046,0,5.0
SrCuGe,0.0,-0.404525548333333,mp-1218273,0,0.0
CsMg14Sn,0.0,0.158405032209051,mp-1028333,0,0.0
Ce2Al2Co15,0.0,-0.147488668947367,mp-16484,0,0.0
Cs2Pb2O3,2.0761,-1.523258277758619,mp-1213706,0,3.0
Mg(Mn5N4)2,0.0,-0.440839037068965,mp-1245829,0,0.0
Ba17Er16Zn8Pt4O57,2.249399999999999,-3.003902968480391,mp-561249,0,3.0
Ca2Cd3(Cl5O9)2,0.1592,-0.5705541721212121,mp-1182722,0,0.0
CuH20Se2(NO7)2,0.2929,-1.082071012812499,mp-703398,0,0.0
Hg12Sb4As4S12,1.454843,,,0,2.0
Er2AlGe4,0.0,-0.42469373142857,mp-1225079,0,0.0
Hf1Pd1Sn1,0.397988,,,0,0.0
Ba4Co2Si4O14,2.900706,,,0,4.0
BaMg30SnO32,1.647100000000001,-2.862507249609375,mp-1095706,0,2.0
BaLaCuTe3,0.8131,-1.517794134999999,mp-17063,0,1.0
Al22CdO34,2.3255,-3.326903878070176,mp-674298,0,3.0
Yb2BiAu,0.0055,-0.643898396250001,mp-865800,0,0.0
Ho2(Ga3Rh)3,0.0,-0.702366868035712,mp-1212406,0,0.0
Cd3(ClO)2,1.1749,-1.4199080907142871,mp-29297,0,1.0
K3AuBr6,0.0,-1.2875076071749991,mp-1111500,0,0.0
Na2Mg4Nb4Si3(S3O16)3,0.6871,-2.435685198860838,mp-2716350,0,1.0
YMg2W3S8,0.0,-1.002423064999998,mp-1247222,0,0.0
I32Zn16,2.474774,,,0,3.0
Na5Ca6Nd5Zr16O48,3.6731,-3.587309457429956,mp-695571,0,5.0
ErO,0.0,-3.127546397499999,mp-1184211,0,0.0
UCo3B2,0.0,-0.429198554722222,mp-10056,0,0.0
La16As32,0.485755,,,0,0.0
Li3LaGa8,0.0,-0.352153039368055,mp-1222997,0,0.0
LiCr2N3,0.0,-0.662626366388889,mp-1246665,0,0.0
CrBW,0.0,-0.166764154583338,mp-1226225,0,0.0
Na8Co2O6,1.573003,,,0,2.0
CsYbSe2,0.0,-1.9868075895312491,mp-12325,0,0.0
K12Si16Li4,1.511797,,,0,2.0
Dy2AlZn,0.0,-0.423186521250002,mp-865159,0,0.0
Li3TiSiO5,0.0,-2.831167206333334,mp-766449,0,0.0
Ba2Bi6O11,1.8232,-1.706079742894737,mp-674537,0,2.0
NaZn2CdF7,2.804599999999999,-2.634894780125392,mp-1220707,0,4.0
Na(Sm2Se3)4,0.0,-2.1231989757738052,mp-36711,0,0.0
Cs2YbH4,2.9141999999999992,-0.309177155714286,mp-1025273,0,4.0
K8W4Se16,1.208178,,,0,1.0
YCu3HgSe4,0.890899999999999,-0.537520616388879,mp-1178710,0,1.0
In16Bi8Pb3S38,0.0,-0.7461008744871781,mp-1225888,0,0.0
Ba4NdY(CuO2)8,0.0,-2.023510272583333,mp-1228248,0,0.0
Ca8MgSi4(ClO8)2,0.746,-2.974837106935484,mp-686598,0,1.0
TbTaTiO6,3.153499999999999,-3.657415306092592,mp-1217522,0,5.0
Bi3P,0.0,0.410417297916666,mp-1183506,0,0.0
Mg3Sn2(GeO4)3,0.0791,-2.189287800624999,mp-1329748,0,0.0
ZnSnS3,0.358799999999999,-0.5004279738303591,mp-1093994,0,0.0
As4O12K4,3.151337,,,0,5.0
Sc50In3Rh13,0.0,-0.5076069698484841,mp-1210379,0,0.0
Te2W3Se4,0.1471,-0.405511189027777,mp-1026348,0,0.0
Ho5(Ge5Ir2)2,0.0,-0.767795012631577,mp-643659,0,0.0
K3AsCl6,3.4739,-1.756854090925,mp-1111182,0,5.0
LiMgSO4F,5.9657,-2.623291837604167,mp-1222350,0,7.0
GdTa7O19,2.6916,-3.415069960419754,mp-770124,0,4.0
YBe13,0.0,-0.184163488928571,mp-1193534,0,0.0
Ho2Al3Si2,0.0,-0.577433002857144,mp-3328,0,0.0
Rh4O8,0.0,,,0,0.0
AgC6,0.0,1.388995832619043,mp-1214982,0,0.0
TaTiCo,0.0,-0.140455646055555,mp-1217951,0,0.0
Dy2GeO5,4.0049,-3.368152111354172,mp-28351,0,6.0
ReCNCl3O2,0.554099999999999,-0.436934405,mp-1201283,0,0.0
Cs2RbBiBr6,3.4129,-1.706946280681034,mp-1112132,0,5.0
Zr2Sb,0.0,-0.741361555000002,mp-31379,0,0.0
CoAsS,0.0,-0.480634103437499,mp-553946,0,0.0
MnCr(Ni2Sn)2,0.0,-0.106780749741378,mp-1221685,0,0.0
Zr2TcPt,0.0,2.733472677812504,mp-1097159,0,0.0
MgTl2(SbO3)2,0.0,-1.655945112878789,mp-2217989,0,0.0
Cs3YO3,2.3415999999999992,-2.182955728423644,mp-770815,0,3.0
GdYAl4,0.0,-0.5738361633333321,mp-1224416,0,0.0
LaNdNi2,0.0,0.331746426874999,mp-1223354,0,0.0
Mg16Al12Au,0.0,-0.044862016206896,mp-1185648,0,0.0
NpBe13,0.0,-0.064021997410716,mp-30442,0,0.0
Li2MnN,0.0,-0.366855992399425,mp-1210748,0,0.0
Na2Ta4O11,3.4629,-3.184666606887761,mp-3285,0,5.0
PrMgAg,0.0,-0.239762373888886,mp-1079756,0,0.0
Tc3Pt,0.0,-0.310300714999996,mp-867281,0,0.0
I1Ba2H3,2.142025999999999,,,0,3.0
Na2LaCuCl6,1.3857,-1.791900309499999,mp-1110995,0,2.0
Nd6Fe13Si,0.0,-0.062714164999999,mp-5932,0,0.0
YLuCd2,0.0,-0.293992334166666,mp-979432,0,0.0
CoMoP,0.0,-0.5529794193253961,mp-22262,0,0.0
Na2ZrSi2O7,4.5653,-3.146840108563217,mp-558191,0,7.0
LiB3,0.091899999999999,-0.285529338541667,mp-1222413,0,0.0
Bi10(Pb2O7)3,2.3242,-1.566915397162162,mp-758225,0,3.0
SrZrCdH8(C4O11)2,0.2208,-1.562320050487804,mp-1217853,0,0.0
AlSiMo6,0.0,-0.295583669375002,mp-1228032,0,0.0
KGdF4,4.3628,-3.953526257041667,mp-1211415,0,6.0
Pm2AgRh,0.0,-0.515014192499997,mp-982929,0,0.0
ErFeRu,0.0,-0.269306496666663,mp-1225543,0,0.0
TaRe2Mo,0.0,4.7593048503541775,mp-1093870,0,0.0
Li3Np,0.0,0.672853502812497,mp-1185256,0,0.0
Sc2NiIr,0.0,-0.8072102925000001,mp-862360,0,0.0
Ca2NbO6F,0.0,-2.3637042525,mp-1227502,0,0.0
Mn6C,0.0,0.127697333304597,mp-1193506,0,0.0
RbH5C7SO5,3.7954,-0.8130857763815791,mp-604583,0,6.0
Mg2TiFe3S8,0.0,-1.029110760952379,mp-1246685,0,0.0
CeMg5Ru2,0.0,-0.21463265625,mp-1199279,0,0.0
Li8Pr7Ge10,0.0,-0.6808864387333331,mp-1190840,0,0.0
KNaP6(PbO3)8,3.3234,-2.376625910662161,mp-1223429,0,5.0
Tl4SnI6,2.192499999999999,-0.8260787721212141,mp-1208143,0,3.0
RbPSe3,1.122999999999999,-0.8051613375014881,mp-571464,0,1.0
SmSi2Ni9,0.0,-0.475490591666666,mp-1191393,0,0.0
Na2Sc3TaP4(SO12)2,2.9951,-2.918775612370279,mp-2712738,0,4.0
YGe2Pt,0.0,-0.856786734999999,mp-1105716,0,0.0
BaZnSbF7,4.3858,-3.08558458925,mp-1041326,0,6.0
VPS3,0.1223,-0.7786472474285699,mp-1078971,0,0.0
SmHoMg2,0.0,-0.068354989999998,mp-867130,0,0.0
HoSn2,0.0,-0.5711334800000001,mp-1072865,0,0.0
NbCo2Sn,0.0,-0.11795156625,mp-1205387,0,0.0
Sm4Bi2O,0.0,-1.393839969285715,mp-1077975,0,0.0
Lu2PbSe4,1.802099999999999,-1.72941053610119,mp-1192914,0,2.0
CsBaMg14,0.0,0.201476453771551,mp-1026632,0,0.0
SmCl3,3.4912,-2.428301643125001,mp-863026,0,5.0
SmErIn2,0.0,-0.5847715733333311,mp-978542,0,0.0
Ba3In4(CuO4)3,0.376699999999999,-1.9581004728030291,mp-679985,0,0.0
Tm2Au,0.0,-0.7643416283333361,mp-1095690,0,0.0
Ga3Bi,0.0,0.069062200624998,mp-983237,0,0.0
K2CuP4H8O15,0.0124,-1.746472212269047,mp-1193339,0,0.0
Sc2MnB2Rh5,0.0,-0.6028310736264371,mp-542022,0,0.0
CaU2Si2O17,0.2611,-2.027057960454544,mp-1198547,0,0.0
Sm4(FeB2)3,0.0,-0.334985851923076,mp-1104274,0,0.0
Na2CaSnP2SO12,1.4886,-2.506295768484789,mp-2713327,0,2.0
BaTi14O28,0.0,-3.460968946899224,mp-773131,0,0.0
Ba4Ca4Sn4,0.238472,,,0,0.0
MgSnP2O7,3.758899999999999,-2.644805453571427,mp-1044868,0,5.0
Ba(AgGe)2,0.0,-0.332178010666667,mp-13910,0,0.0
TmAl7Au3,0.0,-0.558152500454543,mp-16627,0,0.0
Rb2Pu(Cl2O)2,0.0,-2.141858193749998,mp-1095062,0,0.0
Ba4Al5,0.0,-0.221805648333332,mp-2631,0,0.0
Rb1Cl1,4.81337,,,0,7.0
Ag8Si2O8,0.689469,,,0,1.0
ZrScMnNi3,0.0,-0.389106705488506,mp-1215226,0,0.0
Ti2FeCo,0.0,-0.399876224166667,mp-1187429,0,0.0
Na3Nb2Zn4P3(SO6)6,2.3169,-2.231166561630862,mp-2715777,0,3.0
CdGeP2,0.6455000000000001,-0.150831632738094,mp-3668,0,1.0
CrInCoS4,0.0,-0.7251369995238091,mp-1226298,0,0.0
RbNb(GeO3)3,3.1728,-2.39532423375,mp-540633,0,5.0
KPt2Se3,0.9439,-0.8762813707135411,mp-14796,0,1.0
Ti5CoSe10,0.0,-1.321041832506511,mp-1217213,0,0.0
NaB7H14C2(NO7)2,4.7153,-1.700310610451149,mp-1195917,0,7.0
Rb2LiNdBr6,4.001,-2.104992439583333,mp-1110710,0,6.0
B9Pb8O21F,3.4333,-2.368508859807691,mp-1182634,0,5.0
K3DySi2O7,3.7062,-3.078036326032047,mp-16595,0,5.0
Rb2Nb3C3S3N3(Cl3O)2,0.09,-0.837236676931818,mp-1220771,0,0.0
TbCu4Au,0.0,-0.338702201111111,mp-1077752,0,0.0
LiC12,0.0,-0.02326666128205,mp-1021323,0,0.0
CsCu4Se3,0.0,-0.454216238398435,mp-505198,0,0.0
Eu2AlNO3,0.0,-2.69194624857143,mp-1025206,0,0.0
SnBi4Te7,0.410999999999999,-0.274179998333333,mp-1101917,0,0.0
La(SeO4)3,0.0,-1.299702425751952,mp-1211372,0,0.0
K3Nd(BO3)2,3.3697,-2.8005122927152772,mp-1211700,0,5.0
Tb(InCu)6,0.0,-0.185415501373628,mp-1217863,0,0.0
Cu8Nb8O24,1.331341,,,0,2.0
HfMnIr2,0.0,-0.622707136982757,mp-1184581,0,0.0
BaCuPClO4,0.464999999999999,-2.502249712142857,mp-556604,0,0.0
Bi4Ga8Se16,1.857795,,,0,2.0
SmSn3Ru,0.0,-0.465869095999998,mp-1201411,0,0.0
Li2TiGeO5,3.4593,-2.715895492777778,mp-13182,0,5.0
Ca6Li2Ru2O12,0.27927,,,0,0.0
Mg(C4N3)2,2.9284,0.064690462666665,mp-1246252,0,4.0
NaCeS2O9,0.530799999999999,-2.263616154721485,mp-1203888,0,0.0
ErSe,0.0,-1.9252824361979144,mp-2491,0,0.0
Mg2ZnO3,0.0,-2.5751674474999993,mp-1222123,0,0.0
Mg14CoMo,0.0,0.180214296874999,mp-1028400,0,0.0
Fe3W10C3,0.0,0.1995728159375,mp-1196849,0,0.0
Se14Na4B4,1.473463,,,0,2.0
In3Ni7,0.0,-0.105779737,mp-1213091,0,0.0
As2Se4Li2,0.45603,,,0,0.0
Sc5CCl8,0.0,-2.037317738214285,mp-31024,0,0.0
Y2Al3Si2,0.0,-0.5741434414285721,mp-9177,0,0.0
NaYbO2,0.0,-3.191410233124999,mp-752924,0,0.0
Hf2Al3Au,0.0,-0.5988095116666631,mp-1224327,0,0.0
Hf3Al2,0.0,-0.377014727000005,mp-8462,0,0.0
Pr2ZnAs4,0.0,-0.8688289076190471,mp-1219837,0,0.0
NaMg6SbO8,4.0239,-2.582079133211206,mp-1030662,0,6.0
Pt(SN)4,1.1025,0.376909085069442,mp-734425,0,1.0
LaMg6Zn,0.0,0.006370480625,mp-1099271,0,0.0
NaGd(PO3)4,3.3984,-2.895489390691708,mp-561131,0,5.0
Cu3Bi2S3Br2,0.0,-0.5701929247499999,mp-1226093,0,0.0
SmIn2Ir,0.0,-0.679197829999999,mp-21853,0,0.0
Ba2NdGaSe5,1.6574,-1.905005200746528,mp-1205363,0,2.0
KHgC2N2ClO,0.5758000000000001,-0.07698618371875,mp-725081,0,0.0
ZnP2H3C4NO8,0.0153,-0.815129442791353,mp-1199010,0,0.0
Eu4As3,0.0,-1.227785142500002,mp-20995,0,0.0
Ca3(Si4P7)2,1.2361,-0.401014470999999,mp-1195188,0,1.0
MgSnO3,2.5629,-2.492748274,mp-1176491,0,4.0
GeAsW,0.0,-0.034412003055554,mp-1224396,0,0.0
Au8Se8Br8,0.5609919999999999,,,0,0.0
Na6Hf3MgSi2(PO6)4,4.2568,-3.078273517546183,mp-2715407,0,6.0