formula,bg,formation_energy,mp-id,fidelity,bg_category
Al2CrS4,0.0,-1.153561719999999,mp-36310,0,0.0
N8C6,3.212543,,,0,5.0
Na3Zr3GaSi3(SO8)3,3.7119,-2.737562112364089,mp-2714778,0,5.0
ZrGa6FeCo5,0.0,-0.059450042692309,mp-1215361,0,0.0
CsH6C2S2NO4,5.2633,-0.8494081088846991,mp-1203517,0,7.0
LaMg2TiO6,0.0,-2.3801777908333333,mp-1206537,0,0.0
K2Te2Pd,0.2103,-0.9473361494999972,mp-1206350,0,0.0
Na10La4Al4Si5S7O48,3.7935,-2.657160425636237,mp-2715096,0,6.0
K2HgHCl4,2.1534,-1.22723693915625,mp-1212075,0,3.0
MgCu2GeS4,0.6525000000000001,-0.844362185,mp-2222834,0,1.0
CdSb2Se3Br2,1.1429,-0.795428425878906,mp-567556,0,1.0
Bi3Ir3O11,0.0,-1.443432850882353,mp-772189,0,0.0
Sm3Co,0.0,-0.092368299375,mp-980752,0,0.0
RbSbSe2,1.5375,-0.9248630299218732,mp-1189259,0,2.0
Mg3Pd5,0.0,-0.6371764093749991,mp-1210703,0,0.0
TcSnO3,0.0,-1.498840827,mp-1187400,0,0.0
RbMg6Cr,0.0,0.4421807053125,mp-1017197,0,0.0
Li5OsO6,0.0,-2.048656912222223,mp-1211132,0,0.0
K11(In2Bi3)3,0.0282,-0.320181209028843,mp-680539,0,0.0
AlBi3Sb2O11,2.6904999999999992,-2.050862982647059,mp-1229110,0,4.0
Na6U(SO5)4,0.1429,-2.072006138008898,mp-867972,0,0.0
NaBiS2,1.446899999999999,-0.8714844376562491,mp-1221125,0,2.0
TaAsPCl13,2.6098,-1.436664849029762,mp-672248,0,4.0
Y2S2F,0.0,-1.158699943124993,mp-1206456,0,0.0
Na3YF6,4.8054000000000014,-3.416323306500001,mp-1114251,0,7.0
Hf2CuIr,0.0,-0.575825659999997,mp-864939,0,0.0
Cr(C2N3)3,0.9792,0.154551419062499,mp-1246883,0,1.0
Ca2Cu,0.0,-0.080960578333333,mp-12614,0,0.0
Na3NbZn5(SO4)9,1.69,-1.98628303280811,mp-2714092,0,2.0
Mo2Fe2Cl2O8,1.77977,,,0,2.0
HoTmIn2,0.0,-0.420532037083332,mp-1184828,0,0.0
Zr3Ti2Ga3,0.0,-0.5124433767708341,mp-30676,0,0.0
Y2Ti2Fe22N,0.0,-0.13832214265432,mp-1216299,0,0.0
Ho2Cr2C3,0.0,-0.311419584999997,mp-8499,0,0.0
CrNi2,0.0,0.111591173333332,mp-784631,0,0.0
ReTe7O7F32,0.558999999999999,-2.233607991046099,mp-649107,0,0.0
NaZnBi,0.0,-0.254736326666664,mp-2647002,0,0.0
Ac2CuRu,0.0,-0.016838317499995,mp-1183120,0,0.0
Na2SbAs,0.6434000000000001,-0.464080729374998,mp-1221319,0,1.0
ZrTaCo4,0.0,-0.217284777888888,mp-1215205,0,0.0
Mg6NiSn,0.0,-0.105445233437499,mp-1210716,0,0.0
Ba5B3BrO9,3.781399999999999,-3.126504320972222,mp-1199246,0,6.0
Na10Y4Ta4Si9(SO16)3,2.7204,-2.921268972807177,mp-2714110,0,4.0
SrLa4Si3O13,4.419399999999999,-3.7257383626190497,mp-1218249,0,7.0
HgN2Cl4O,1.116,0.477989129062498,mp-1202562,0,1.0
Na4NbIn3Si3(SO8)3,2.0736,-2.359584886175892,mp-2713597,0,3.0
Y2AgOs,0.0,2.285145984218751,mp-1097683,0,0.0
Na5Ca4(SiO3)6,0.0,-3.015750381219087,mp-1210654,0,0.0
Gd2TiZnO6,2.7632000000000003,-3.369564110833333,mp-1105276,0,4.0
Ta7(P2O7)8,0.002899999999999,-2.785474395387581,mp-758374,0,0.0
HgPb4,0.0,0.023017000499999,mp-1224108,0,0.0
CaCuSb,0.0,-0.731821528333333,mp-5910,0,0.0
Na5Ga3Si3Sn(SO8)3,2.5191999999999988,-2.297741952142647,mp-2713348,0,4.0
Tc2As3,0.0,-0.324703084500001,mp-8886,0,0.0
SmScSi,0.0,-0.6751191238095231,mp-8320,0,0.0
B5Pb2BrO9,3.4116,-2.536091862401961,mp-23623,0,5.0
Yb,0.0,0.0,mp-1187875,0,0.0
BaCoCu3Se4,0.0,-0.602898337708332,mp-1182299,0,0.0
ZnH8(CO2)4,2.6306000000000003,-1.151238709523809,mp-698274,0,4.0
Li3IrN2,0.8756,-0.362127500416666,mp-1247375,0,1.0
Sr3VN3,0.337299999999999,-1.085256314464286,mp-1246302,0,0.0
Mn3Be,0.0,-0.007354160948276,mp-974571,0,0.0
Ag12Si4O14,0.2051349999999999,,,0,0.0
Nd2FeCo17Si8,0.0,-0.439124241607143,mp-1220467,0,0.0
Zn7H10(CO8)2,3.0495,-1.572193962642857,mp-1207528,0,4.0
Zr2IrRh,0.0,2.533097113750003,mp-1096183,0,0.0
PmCdPd2,0.0,-0.6538971368749931,mp-862898,0,0.0
TmScZn2,0.0,-0.35981797625,mp-1187670,0,0.0
Sr5Cd5P6(O12F)2,2.869099999999999,-2.827364163520406,mp-1218628,0,4.0
Pd1Rb2Te2,0.526238,,,0,0.0
Ba3(GeN)2,0.0,-0.6857238157142851,mp-29092,0,0.0
CaCoSe2,0.0,-0.888475692552086,mp-1147527,0,0.0
Sn2Mn4S8,0.28642,,,0,0.0
Mn2Na12S8,1.991403,,,0,3.0
Rb2Sr(PO3)4,5.437200000000001,-2.835119066503753,mp-1209338,0,7.0
RbTaPS6,1.7462,-1.086471906955687,mp-680498,0,2.0
Ba4SnGe2(S4Br)2,1.9955,-1.663234342941176,mp-1228355,0,3.0
TbFe11Mo,0.0,-0.009010866666667,mp-1217545,0,0.0
Na3P11,1.623899999999999,-0.298578826088434,mp-473,0,2.0
DyCoGe,0.0,-0.64860826472222,mp-1102863,0,0.0
ZrTiCu,0.0,-0.108437207777776,mp-1215181,0,0.0
K2Ta4O11,3.3655,-3.200980261990259,mp-1195471,0,5.0
Na2Nb2S4,0.6423479999999999,,,0,1.0
Gd4Au2O9,1.9649,-2.803804601666671,mp-623092,0,3.0
CaBr,0.0,-1.5522055524999991,mp-1183444,0,0.0
PuTlO3,0.0,-2.518833282916666,mp-2647162,0,0.0
Ta4K12S16,2.755401,,,0,4.0
Tm(Fe5Re)2,0.0,-0.046627363461539,mp-1216766,0,0.0
Mg3TcH7,2.6125,-0.38036269215909,mp-864942,0,4.0
BaY3Cl11,3.8318,-2.708353833333334,mp-769003,0,6.0
Zr2HgAu,0.0,2.443197639374998,mp-1096259,0,0.0
Cu4Mn2Si2S8,1.811218,,,0,2.0
KLiO,2.3803,-1.63544179686111,mp-559612,0,3.0
NaSm2Se3,0.0,-2.012342916197916,mp-1220865,0,0.0
PNF6,0.0,-1.577760712767856,mp-1209862,0,0.0
CaPO6,0.687,-1.849638853080358,mp-1214151,0,1.0
Co4Rb4K8O10,1.626004,,,0,2.0
Na2CaGaP(SO6)2,2.1123,-2.3588841067492012,mp-2713124,0,3.0
HgAu3,0.0,0.041530125624994,mp-1184705,0,0.0
Mo2AsP3,0.0,-0.470569075654765,mp-1221509,0,0.0
LiGaPt2,0.0,-0.7146841527083331,mp-867170,0,0.0
Ba10IBr4N5,1.125899999999999,-1.366714386,mp-1228784,0,1.0
Er6Ni20P13,0.0,-0.916550707188667,mp-1213358,0,0.0
Li2Nb4ZnO12,2.9399,-2.811698610877192,mp-756793,0,4.0
Li4V4P4O20,1.766579,,,0,2.0
HoCd6,0.0,-0.129095123095235,mp-1225485,0,0.0
Mn4Na4F12,3.924062,,,0,6.0
Na4LaNb3Si5SO24,1.9459,-2.9097233337197532,mp-2715126,0,3.0
EuHfZrSnO6,0.0,-3.199007758000001,mp-1518972,0,0.0
La(FeAs3)4,0.0,-0.396813026764695,mp-22470,0,0.0
Ag3N,0.0,0.98054021875,mp-985299,0,0.0
K2F10,0.994472,,,0,1.0
TmIn2Pd,0.0,-0.630066700583334,mp-1207945,0,0.0
Rb2NaAsBr6,2.5701,-1.513598301387931,mp-1114025,0,4.0
Tb2Ni7,0.0,-0.386674139259258,mp-1189379,0,0.0
Sr4Y2GaCu5(PbO4)4,0.0,-2.114566871484374,mp-1218790,0,0.0
Ti3VS6,0.0,-1.6091525674999991,mp-1217148,0,0.0
NaCd3,0.0,-0.044948075344826,mp-1186127,0,0.0
Sm2Se3O20,0.0,-0.705905235081249,mp-1200056,0,0.0
K2NaCeF6,0.230199999999999,-3.459384251587931,mp-1112864,0,0.0
CaU2(PO2)2,0.0,-2.156971276587299,mp-1078571,0,0.0
Cd(GaTe2)2,1.0357,-0.469118834285715,mp-13949,0,1.0
SmErZn2,0.0,-0.335605633749998,mp-972630,0,0.0
Ba1Cl2,5.444953,,,0,7.0
AlSeBr3N,1.878099999999999,-0.905372837057292,mp-567060,0,2.0
Ca4MgAs4O27,0.0,-1.322184903055556,mp-1197953,0,0.0
Tb5(Sn3Rh)6,0.0,-0.5402879794252861,mp-1217735,0,0.0
VSe2,0.0,-0.833392346041667,mp-694,0,0.0
Te8Ge2K8O4H8,0.597401,,,0,0.0
Er5(In2Pd)2,0.0,-0.6856752492424221,mp-1190725,0,0.0
Mn2SiNi,0.0,-0.38401348176343,mp-999558,0,0.0
Na3MgScSi(SO6)2,3.7407999999999992,-2.589740710956897,mp-2712670,0,5.0
Ir2K6Li2O8,0.39761,,,0,0.0
H12C4INO3,3.9971,-0.342314347261904,mp-554527,0,6.0
CaAcHg2,0.0,-0.612949323125008,mp-865173,0,0.0
Cs2RbSmCl6,4.8937,-2.486713688181034,mp-1112118,0,7.0
P2H24PtC12(IN3)2,2.1069,-0.139628266899695,mp-1198949,0,3.0
ScGePd2,0.0,1.4728457575000011,mp-1097477,0,0.0
Zn(BIr)2,0.0,-0.350874656000002,mp-28786,0,0.0
Nd11Hg45,0.0,-0.329115137678578,mp-1201594,0,0.0
CeAsRh,0.025599999999999,-1.2581861849999991,mp-10478,0,0.0
Na3SiSe4,1.809699999999999,-1.095006389501616,mp-28303,0,2.0
BaNaBO3,3.6487,-2.851670440090996,mp-6660,0,5.0
Na8Ca3HfSi3(SO8)3,3.1132,-2.671539067623837,mp-2715192,0,4.0
NbCuRh2,0.172899999999999,2.58774328,mp-1096519,0,0.0
ZnP2(H4O5)2,4.7628,-1.806148116156463,mp-1196989,0,7.0
La2Th8O19,3.0896,-4.26082310327586,mp-675564,0,4.0
Er3Ni2,0.0,-0.382962911333334,mp-540546,0,0.0
Pd3PbC,0.0,0.191766308500007,mp-21031,0,0.0
Os4Se4Bi4,0.479149,,,0,0.0
UOF3,0.0,-3.336262721999998,mp-1216814,0,0.0
Rb4Mn(AsS4)2,1.082099999999999,-0.974011670528736,mp-1219636,0,1.0
Zr2P3H3O13,4.263599999999999,-2.775022956318027,mp-1216369,0,6.0
VPt8,0.0,-0.260165278888888,mp-1079997,0,0.0
Ba(LaSe2)2,1.7602,-2.304316377767856,mp-37741,0,2.0
PrSm3S4,0.0,-2.273576948333332,mp-1219738,0,0.0
Ba10Nb3Bi7O30,0.8441000000000001,-2.5943256522,mp-1228874,0,1.0
Cr2Cl6,2.252694,,,0,3.0
Na2Si5Sn8S7O48,1.381599999999999,-2.159592128837028,mp-2716233,0,2.0
Zn3C,0.0,1.040288750624999,mp-971857,0,0.0
La12Lu4Se24,0.4501489999999999,,,0,0.0
Tb2InAg,0.0,-0.384315172916664,mp-1217699,0,0.0
LaMgPd,0.0,-0.6557057255555541,mp-1078841,0,0.0
Ce(BOs)2,0.0,-0.479009708666666,mp-1080734,0,0.0
CaCoSi,0.0,-0.475822595,mp-1018658,0,0.0
Ba4Ti5PbO15,1.7552,-3.318825024466666,mp-1228218,0,2.0
MnCu3,0.0,0.092749218017241,mp-974747,0,0.0
Sr2RuO4,0.0,-2.472956615714286,mp-4596,0,0.0
ReTc,0.0,-0.006981326249999,mp-1186915,0,0.0
La(AlGa)2,0.0,-0.5552614609999971,mp-569696,0,0.0
LiY2Tc,0.431799999999999,2.383635809479166,mp-1095885,0,0.0
NdZrO3,0.0509,-3.5634469955,mp-756246,0,0.0
Y5Ge3C,0.0,-0.718193769444444,mp-1178768,0,0.0
MgGaAu2,0.0,-0.422164844374999,mp-1079175,0,0.0
Ti4Co,0.0,0.500707847833336,mp-1208254,0,0.0
MgVCu3S4,0.0,-0.7562501916666661,mp-2224165,0,0.0
Ti2P2SO12,2.5547,-2.8087443045168072,mp-2713207,0,4.0
UHgO3,0.0,-2.6441475635,mp-1187745,0,0.0
CoAsSe,0.3947,-0.380765520104167,mp-505511,0,0.0
RbSnF3,3.689899999999999,-2.784564051125,mp-1198796,0,5.0
MgMnCrS4,0.0,-1.110817161133004,mp-1247048,0,0.0
K2LiSn4,1.0043,-0.287122640851189,mp-680450,0,1.0
NaLiP2(H4O5)2,5.15,-1.893755671469621,mp-723426,0,7.0
Na6Zr4Ta4Si9(SO16)3,3.157299999999999,-3.016001002253729,mp-2712856,0,5.0
LuGePt,0.0,-1.1192496180555571,mp-13580,0,0.0
Na4La3Nb(PO4)6,2.4211,-3.02130756250108,mp-2713254,0,3.0
Sn1Sr2O4,2.815701,,,0,4.0
Ba(FeP)2,0.0,-0.811679707857145,mp-4883,0,0.0
K2NaCd,0.0,0.5556216085301731,mp-1095721,0,0.0
ReClO3,3.5834,-1.8571246845,mp-974724,0,5.0
DyPO4,5.8933,-3.503172621884905,mp-5767,0,7.0
Er2PdAu,0.0,-0.9481179916666632,mp-983555,0,0.0
Ba6Y2Ga4O15,3.6041,-2.986573302037037,mp-1214542,0,5.0
Ba2MnTeSe2,0.0,-1.674919763630867,mp-1228544,0,0.0
CeNdI4,0.0,-1.439927227083332,mp-570728,0,0.0
RbSO3,5.0206,-2.077418668333333,mp-3404,0,7.0
Cs2ErSi6O14F,4.6876999999999995,-3.301847211325432,mp-1195142,0,7.0
Fe8P4O20,1.613543,,,0,2.0
K2InAuCl6,0.0,-1.547664979116666,mp-1111983,0,0.0
H8CN5ClO3,3.1788,-0.607855097916666,mp-1204636,0,5.0
K2Mg(PSe3)2,1.8749,-0.973371604804382,mp-11643,0,2.0
ErSnGe,0.0,-0.5998341366666651,mp-1071492,0,0.0
In2Ge5N8,0.2198,-0.087795205388889,mp-1246555,0,0.0
UAsC2N2(O2F)2,0.617799999999999,-1.361514603541667,mp-1199274,0,0.0
H12OsSN4O7,0.8076,-0.750342307899999,mp-1197750,0,1.0
Na4PtO4,0.8409000000000001,-1.4140846317241371,mp-760492,0,1.0
Dy6Mn(SiS7)2,0.986699999999999,-1.887889007083956,mp-1225409,0,1.0
GaP2I9,1.7419,-0.517897441294643,mp-29817,0,2.0
UTiFe,0.0,-0.036706017777776,mp-1216898,0,0.0
CaU2(SiO8)2,0.0,-2.087186367619046,mp-1202413,0,0.0
Ho2Ga3Cu,0.0,-0.5904729254166621,mp-1224004,0,0.0
Ge2RuC4(Cl3O2)2,3.1001,-1.193084750882354,mp-1201091,0,4.0
ZrBr,0.0,-1.2709659325,mp-504594,0,0.0
Mn2V(PO5)2,0.0,-2.314729307843186,mp-725694,0,0.0
Ti3Ag,0.0,0.110806144583335,mp-621131,0,0.0
Cr5S6,0.0,-0.8685724436363611,mp-1311,0,0.0
Tm2InAu2,0.0,-0.925723494000004,mp-1078625,0,0.0
Li3Hg,0.0,-0.295252721875,mp-976047,0,0.0
SrPrAlO4,2.9327,-3.505392873095238,mp-1217963,0,4.0
Na3IrF6,2.0362,-2.333949917999999,mp-1110568,0,3.0
YH6C2SNO9,3.2063,-1.709086492375,mp-1197598,0,5.0
CdCu2SiSe4,0.339999999999999,-0.6097984155468741,mp-1189879,0,0.0
CaMg2Al4SiO12,0.143299999999999,-3.1269903135,mp-1227133,0,0.0
Ba2ZnGe2S6O,2.1081,-1.577256675416665,mp-17244,0,3.0
KTb2CuS4,0.9798999999999992,-1.907721698197915,mp-11605,0,1.0
Na2AgSbCl6,1.5820999999999992,-1.165585368750001,mp-1111538,0,2.0
Er(Co2B)6,0.0,-0.330593030263157,mp-1188589,0,0.0
CuClO,0.046699999999999,-0.817016257083333,mp-1181633,0,0.0
Lu(PO3)3,5.7855,-3.04109520360348,mp-1198201,0,7.0
NaPO3,5.1185,-2.645570333871101,mp-864891,0,7.0
FeSbRh2,0.0,-0.220136502499999,mp-1206853,0,0.0
U3Cu2Sb3,0.0,-0.380094978437504,mp-30070,0,0.0
Ti(PbN)4,1.3751,-0.103740195601845,mp-1246003,0,2.0
VGa,0.0,-0.169116296874999,mp-1216325,0,0.0
Eu2B5ClO9,0.759,-3.026125939754903,mp-553918,0,1.0
U(Al2Fe)4,0.0,-0.316695899230777,mp-4606,0,0.0
Mn(CoN)3,0.0,0.006612053152708,mp-1245959,0,0.0
Se2F20C24,2.755577,,,0,4.0
Tb2FeCo3,0.0,-0.149804658888888,mp-1217710,0,0.0
Rb2Ni3S4,0.8026000000000001,-0.9472556427777772,mp-1079718,0,1.0
H19C6N7O4,4.7942,-0.605043263298612,mp-1203308,0,7.0
CuH5IO7,0.0993,-0.993109920982142,mp-1205250,0,0.0
KPrS2,2.2688,-2.111774870260417,mp-15782,0,3.0
YFeN2,0.0,-0.78067924734375,mp-1245408,0,0.0
Ag2In2P4Se12,0.538007,,,0,0.0
Ta6O,0.0,-0.638052871999998,mp-1218065,0,0.0
Zr21N12O24,2.920551,,,0,4.0
CaEuTiSnO6,0.285899999999999,-3.006452671333334,mp-1522056,0,0.0
Dy2CuGe6,0.0,-0.456863354074082,mp-1095027,0,0.0
Yb2PrDyS6,1.271199999999999,-2.405467888854167,mp-561096,0,2.0
BaFeS,0.0,-0.880363164166666,mp-1096808,0,0.0
Ce3Sn13Ir4,0.0,-0.496776308499998,mp-1200449,0,0.0
Pr2Sb3Pd,0.0141,2.277377241111112,mp-1207360,0,0.0
KEuAlBiO6,0.0,-2.256885840225,mp-1521352,0,0.0
Sn4Ge(H3C)12,3.3604000000000003,-0.090667846698112,mp-1201032,0,5.0
NdCdNi4,0.0,-0.276064149583332,mp-1077379,0,0.0
ErZn,0.0,-0.393381069166665,mp-1660,0,0.0
SmBN2,2.3704,-1.622246661666667,mp-1192040,0,3.0
Ba4Zr4S12,1.047733,,,0,1.0
AsCF3,3.3193,-1.290979925749998,mp-27274,0,5.0
U6Fe16Si7C,0.0,-0.399726486499997,mp-642273,0,0.0
Ca3GeO4F,0.0,-2.968150066666666,mp-1214065,0,0.0
S2Sn1,1.524003,,,0,2.0
Tl3FeCl5,0.0,-1.258202050000003,mp-27334,0,0.0
Rb1Au1C2,2.081914,,,0,3.0
Ba2CuTeO2,0.0,-1.9764333977777784,mp-1147751,0,0.0
Na5Ca2Zn2PS5O24,3.7276,-2.283918582795882,mp-2713625,0,5.0
AcInTe2,0.3799,-1.165022114374998,mp-861460,0,0.0
SmAgAs2,0.0,-0.899050113124999,mp-1179404,0,0.0
Te7As6,0.1968,1.037334381538458,mp-1211390,0,0.0
Eu10Mn6Sb13,0.0,-0.670661904744353,mp-1204179,0,0.0
LiZrPt2,0.0,-0.96266349541667,mp-865866,0,0.0
Cd3As2,0.0,-0.065839916874999,mp-570634,0,0.0
HfAu9,0.0,-0.213183162999996,mp-1224390,0,0.0
Hg2BrN,0.6998000000000001,0.005750088749996,mp-23354,0,1.0
K2PbCl6,1.6065,-1.445836170277776,mp-1211440,0,2.0
La5FeGe3,0.0,-0.480183080555556,mp-1211823,0,0.0
Y6InCo2,0.0,-0.233638320740737,mp-1207941,0,0.0
Na2La2Si(SO6)2,4.0896,-2.773777764180279,mp-2713667,0,6.0
TbPtF7,2.1737,-2.8184733074999992,mp-1208369,0,3.0
Cu3Ag3(PS4)2,0.9971999999999992,-0.304462018965772,mp-1225783,0,1.0
Cs2ScHgCl6,0.0,-2.066120647681035,mp-1113294,0,0.0
Na10Ga4Si7Ge4S5O48,1.7498,-2.317850328050766,mp-2715947,0,2.0
BeSiNi2,0.0,-0.508235893749999,mp-865792,0,0.0
AgH8C5S2O2F3,3.3148,-0.7263921232936511,mp-559423,0,5.0
KCu2H20N3(Cl2O)4,0.9117,-1.013325050453947,mp-42805,0,1.0
KB2SbO6,2.9208,-2.463232087558332,mp-1105367,0,4.0
Si2TcIr,0.0,2.634763634375002,mp-1097230,0,0.0
YMg30SiO32,0.0,-2.921265972343749,mp-1037665,0,0.0
Sm(Sb3Os)4,0.0,-0.216806414117647,mp-569082,0,0.0
GdZrF7,4.4744,-4.19869627277777,mp-1212520,0,7.0
Ti6Al16Pd7,0.0,-0.6708122936206871,mp-1194178,0,0.0
NaLi2Sb,0.6796000000000001,-0.7055747683333331,mp-5077,0,1.0
Ca4AlZn43,0.0,-0.163823254583332,mp-1227673,0,0.0
Mg8Ag8Sb8,0.0,,,0,0.0
Sb4Cl16N12,1.855932,,,0,2.0
DySi,0.0,-0.9016268125000012,mp-1182,0,0.0
Nb3Si2,0.0,-0.686334926,mp-1078996,0,0.0
La3Tm2(GaO4)3,3.691799999999999,-3.400094205625001,mp-1212025,0,5.0
NbO3,0.0,-2.466314308749999,mp-1220361,0,0.0
Nb16Tl16O53,0.0,-2.364159269509805,mp-863389,0,0.0
Er(PO)2,0.0,-1.466257879357142,mp-1213464,0,0.0
USi,0.0,-0.240552303499995,mp-19715,0,0.0
K3SbBr6,2.96,-1.559241955174999,mp-1110924,0,4.0
Ge4Rb12O14,2.90466,,,0,4.0
HfMg,0.0,0.146668872500001,mp-1094181,0,0.0
Na2Ti4As6O24,2.174764,,,0,3.0
Ca3Si3(BiO6)2,3.2982,-2.931089537375,mp-1163927,0,5.0
K3AlBr6,3.316799999999999,-1.758407436174999,mp-1111185,0,5.0
Te10Al4,0.924117,,,0,1.0
MoW3(Se3S)2,0.6557000000000001,-0.6373920012500011,mp-1028642,0,1.0
CaGdTh(PO4)3,2.609099999999999,-3.417549832023808,mp-695308,0,4.0
Bi2Rb2O4,2.121595,,,0,3.0
YHSO5,5.5269,-2.525894708125,mp-707095,0,7.0
Zn4P6SN12,4.092599999999999,-0.7335198824068311,mp-15833,0,6.0
Cu4Te5(ClO3)4,0.0,-1.252839492533333,mp-558364,0,0.0
Sm2C3,0.0,-0.357325423999998,mp-569335,0,0.0
LaGePt,0.0,-1.225666304999994,mp-1077797,0,0.0
MgH2SO5,5.5024,-2.054308188333334,mp-24041,0,7.0
Cu5Sn2Te7,0.0,-0.183553526428572,mp-1103821,0,0.0
NbC4N3O13,0.0074,0.074607444047619,mp-1200027,0,0.0
Ag2H12S(NO)4,2.9514,-0.7796728774275351,mp-723002,0,4.0
Al(FeS2)2,0.0,-0.848194870714284,mp-1926096,0,0.0
Cs2PrAgI6,2.5343,-1.461820751264368,mp-1112942,0,4.0
YFe5Co5Mo2,0.0,-0.027968509230768,mp-1216162,0,0.0
Fe24N11,0.0,-0.148068191857141,mp-684887,0,0.0
Nd4Mg(RhO3)4,0.2298,-2.346106132142857,mp-1233249,0,0.0
Mg(VS2)2,0.0,-1.26777901642857,mp-1407214,0,0.0
LiBH4,6.3705,-0.448582993749999,mp-1192133,0,7.0
K3ScSi2O7,3.6378,-3.03779018975,mp-557577,0,5.0
Sb8Pb7S19,1.3029,-0.6386233828676451,mp-641987,0,2.0
KDyH2C2SO9,3.0557,-2.143843279307291,mp-605166,0,4.0
AsPHCl3OF6,4.9259,-2.041108488145605,mp-1197012,0,7.0
Yb2RhAu,0.0,-0.9802466525,mp-1187934,0,0.0
Gd(AlSi)2,0.0,-0.364110759999998,mp-8651,0,0.0
NaInH6(SeO4)2,2.4287,-0.7564894686240821,mp-1210806,0,3.0
Y4Ti2Nb2O15,2.4457,-3.576364936159422,mp-1216114,0,3.0
CsSm(NbBr3)6,0.9853,-1.51804406229443,mp-1213498,0,1.0
Ta9(NiS3)2,0.0,-0.916830413,mp-3824,0,0.0
NaZrGaP2SO12,3.603999999999999,-2.660487370685095,mp-2712584,0,5.0
Hf2RePt,0.0228,3.3002669793750012,mp-1096469,0,0.0
Hg2Sb2O7,0.0,-1.467053617727276,mp-557697,0,0.0
Na3MgCu2SbO6,0.6338,-1.746767528395225,mp-2218795,0,1.0
P2Pd,0.341899999999999,-0.42824703142857,mp-28266,0,0.0
CaCeAg2,0.0,-0.19449022833333,mp-865460,0,0.0
BaSrYb2,0.0,0.426352086249998,mp-980191,0,0.0
Na18Ca8Ta4Si9(SO8)9,1.2493,-2.626276199347175,mp-2716141,0,1.0
CaSnAu,0.0,-0.7379697391666661,mp-29561,0,0.0
Al17(BC3)6,0.0,-0.081390237098575,mp-1247832,0,0.0
Ho4Cu5P7,0.0,-0.947995475270834,mp-1224054,0,0.0
Se16P16,2.111469,,,0,3.0
TiNbO4,0.0,-3.1747575938888892,mp-1216686,0,0.0
Cs2NaTaBr6,0.0,-1.6173913898022991,mp-1111728,0,0.0
MgH24(ClO6)2,5.1716,-1.364941156794871,mp-1196666,0,7.0
Ca3Ge4,0.331199999999999,-0.657808381666668,mp-1204241,0,0.0
Na5SrTaP4,1.3769,-0.7652421794761891,mp-1220774,0,2.0
Sr2S4,1.291018,,,0,2.0
Na2TaGa3Si2(SO6)4,2.1874,-2.313059539331259,mp-2712663,0,3.0
Tl5Se2I,0.710199999999999,-0.610619385169277,mp-23488,0,1.0
SrAcTl2,0.0,-0.489930826874996,mp-978953,0,0.0
Sr2GaSi,0.0,-0.516267526250002,mp-1218812,0,0.0
Nd4Zn3Au5,0.0,-0.689001724999999,mp-1220202,0,0.0
Th3V,0.0,0.356614589999999,mp-1187060,0,0.0
BaNa4Ti2Si10(BO15)2,3.4488,-3.157506589806474,mp-1228057,0,5.0
Ba2Li(CuO2)3,0.0,-1.8243083702777771,mp-18713,0,0.0
TiInCo2,0.0,-0.224757665,mp-865548,0,0.0
Ca2NdF7,5.2602,-4.153204206416666,mp-675896,0,7.0
LiNp3,0.0,0.440101445104168,mp-1185274,0,0.0
Ga2FeCo,0.0,-0.1678869537499999,mp-1224867,0,0.0
CaMg6W,0.0,0.261957171568877,mp-1023208,0,0.0
HfTiRh2,0.0,2.509195114166667,mp-1093653,0,0.0
ReP4,0.8553000000000001,-0.388405733380952,mp-27267,0,1.0
Y(FeGe)6,0.0,-0.272108088461538,mp-1194620,0,0.0
Au1Cr1S2,0.472664,,,0,0.0
K3Ac,0.0,0.435412493374997,mp-1184792,0,0.0
Cs4TlSbCl12,0.7270000000000001,-1.7374094801085591,mp-650007,0,1.0
NaMg30TiO32,0.5575999999999991,-3.005080560854885,mp-1098352,0,0.0
ZrHg,0.0,-0.166733571250003,mp-2510,0,0.0
GaSbCl6,3.939999999999999,-1.0932361646875,mp-27735,0,6.0
Be3Si3C4SO12,1.659899999999999,-1.300041298804346,mp-1214189,0,2.0
Li6Al13Cu8,0.0,-0.20041386111111,mp-1211217,0,0.0
LaS,0.0,-2.43041202890625,mp-2350,0,0.0
K2RbPrCl6,4.349600000000001,-2.3619077303666662,mp-1110755,0,6.0
ThB2C,0.0,-0.591609773749998,mp-2997,0,0.0
MgSe2O5,3.054599999999999,-1.757401463710943,mp-16771,0,4.0
Ba4Co2Ge4O14,2.000441,,,0,3.0
Pr(Ni2Sn)2,0.0,-0.402940343809522,mp-1104946,0,0.0
Rb2HgAsCl6,0.0,-1.4856812145,mp-1113319,0,0.0
In7Te10,0.8223,-0.458874379411765,mp-669311,0,1.0
CeAsS,0.0,-1.826635000937497,mp-1095675,0,0.0
Rb3Ge4Au,0.9115,-0.2660482840625,mp-17830,0,1.0
KNd2CuS4,0.9129,-1.874289024031248,mp-11603,0,1.0
SnTe4Pb3,0.413,-0.438009198750002,mp-1218925,0,0.0
Nb4Pb3(O6F)2,2.7985,-2.736320866785715,mp-1220828,0,4.0
MgH6S2O3,4.4439,-0.8398008039583331,mp-1212262,0,7.0
Cu2NiSn3S8,0.0,-0.6198768074999991,mp-1225853,0,0.0
Ti2FeRh,0.0376,2.805759225833333,mp-1095865,0,0.0
Cu3V1Se4,1.15175,,,0,1.0
LiSmSn2,0.0,-0.523130357083332,mp-1080712,0,0.0
La3ZrSb5,0.0,-1.220513247777777,mp-9435,0,0.0
K2YSbO7,0.0,-1.846647603590909,mp-1211512,0,0.0
ThMg149,0.0234,0.012710905633333,mp-1188076,0,0.0