formula,bg,formation_energy,mp-id,fidelity,bg_category
BiI,0.8279000000000001,-0.483924530000001,mp-568388,0,1.0
TlSnF7,1.8333,-2.343756699444444,mp-17649,0,2.0
Li14Ti21O48,0.0,-3.221947902610442,mp-530600,0,0.0
Dy2(Ga3Ru)3,0.0,-0.538509323988094,mp-22627,0,0.0
NaGaCl4,4.2848,-1.790796196479886,mp-1190761,0,6.0
Mn2Pt6O12,0.186441,,,0,0.0
NdZr3Mn8,0.0,-0.022269793412357,mp-1220133,0,0.0
TlHg3As2Cl3,0.8909,-0.6809305142592621,mp-628647,0,1.0
Nb3As,0.0,-0.417017440624999,mp-504425,0,0.0
HfAg,0.0,-0.113591427499997,mp-13156,0,0.0
Dy11Sn10,0.0,-0.7284756456349081,mp-30624,0,0.0
Ba(SbRu)2,0.0,-0.5167504860000001,mp-1069937,0,0.0
MgGa5,0.0,-0.039031807083333,mp-1094651,0,0.0
Cs2InHgBr6,0.0,-1.455149463847701,mp-1113300,0,0.0
LiYSi,0.0,-0.575185543333331,mp-14208,0,0.0
TaAlRu2,0.0,-0.832035074333337,mp-862446,0,0.0
Li2Ti(TeO4)3,1.7739,-1.930162530277778,mp-758894,0,2.0
Ta4BTe8,0.0,-0.670550465910253,mp-505499,0,0.0
GdCu6,0.0,-0.138737828214285,mp-1194708,0,0.0
Y3Pd,0.0,-0.483205361875,mp-1207777,0,0.0
Pb7(ClO4)2,1.2132,-1.359798694705881,mp-1199985,0,1.0
NaP7,1.7429,-0.190906175572916,mp-1195785,0,2.0
Ti2Se,0.0,-0.986123859947916,mp-620032,0,0.0
YScIn2,0.0,1.867411321250003,mp-1095911,0,0.0
DyCuSeO,1.1846,-2.265136002252602,mp-9304,0,1.0
Ba4LiTa3O12,3.113299999999999,-3.367030845016667,mp-16792,0,4.0
KZrCuS3,0.592499999999999,-1.507553859125,mp-9317,0,0.0
Na2ZnBr4,3.7194,-1.606862671108372,mp-28830,0,5.0
Sr3H,0.0,0.43846772177083,mp-1187129,0,0.0
Ca(HoTe2)2,0.6065,-1.726284751428575,mp-1227385,0,0.0
Na4Zr2Ti(CO4)4,3.1741,-2.590579435142614,mp-560843,0,5.0
LiCu2P3(HO5)2,1.4935,-2.021118499986772,mp-849424,0,2.0
K3Tl(Cl3O)2,0.0,-0.9185307285188492,mp-1182725,0,0.0
C4I4F12,3.646943,,,0,5.0
CaCdP2O7,3.8448,-2.783027142662337,mp-1213987,0,6.0
Li2Ti4O9,2.8917,-3.284199176666667,mp-772151,0,4.0
Ca1Mg2N2,2.045806,,,0,3.0
Mg10(SiO6)3,0.0331,-2.828578526129033,mp-1180416,0,0.0
Lu2(Ni5B3)3,0.0,-0.425600337820512,mp-1201139,0,0.0
K2SnN6,0.0,1.9275852678333332,mp-1080457,0,0.0
DyNi4Au,0.0,-0.38688771861111,mp-1077279,0,0.0
Sm3Er,0.0,0.013697782916668,mp-979614,0,0.0
Si2Mo,0.0,-0.46614492,mp-2592,0,0.0
Ba3(GeN2)2,0.557,-0.46729582,mp-1246626,0,0.0
Lu2Si5Ni3,0.0,-0.719679069333334,mp-1105977,0,0.0
Sr4Tl2CO9,1.347299999999999,-2.381200595416668,mp-1218552,0,2.0
CdIn2Bi,0.018699999999999,0.806804427500001,mp-1097339,0,0.0
Rb8BiO3,0.0,-0.752867234583333,mp-1103284,0,0.0
SiWCl2,0.0,1.046228950937493,mp-631389,0,0.0
Tb5Sn3,0.0,-0.7198736172916671,mp-1106357,0,0.0
Tl2Cu4O4,0.0,,,0,0.0
Ag3AuSe2,0.023499999999999,-0.14919083427083,mp-3172,0,0.0
TbO3,0.156399999999999,-2.045014071666666,mp-1025387,0,0.0
Li2Fe2Si2O8,2.741828,,,0,4.0
Lu3Co,0.0,-0.209261264375,mp-1189116,0,0.0
CuC2S2(OF)6,0.2434,-1.685296834411764,mp-555656,0,0.0
Li2Sr2S12B6,2.872698,,,0,4.0
GdYCo6,0.0,-0.131797534583333,mp-1224920,0,0.0
GaFe3,0.0,-0.135317621874999,mp-19870,0,0.0
LiLaMg6O8,5.6156,-2.917850889270833,mp-1030894,0,7.0
Na3YTiSi(PO6)2,2.0505,-2.996451293171183,mp-2715267,0,3.0
Hf3ZnP2(SO6)4,4.2221,-2.6458090039986,mp-2712970,0,6.0
Gd3Ge13Ir4,0.0,-0.5263906850000011,mp-1197897,0,0.0
Sr2DyRuO6,0.2518,-2.857345851166667,mp-1188108,0,0.0
Co4Sb4O14,0.694005,,,0,1.0
Y(SiOs)2,0.0,-0.8093397199999971,mp-567749,0,0.0
NaCu3PbSe4,0.0,-0.168218159768523,mp-1179888,0,0.0
Li7TaO6,4.373399999999999,-2.494037494333333,mp-28891,0,6.0
Si4La8S20,2.424451,,,0,3.0
K7(FeTe2)4,0.060099999999999,-0.7980911962675441,mp-1195306,0,0.0
K2TlAgI6,0.0,-0.91785513895,mp-1112078,0,0.0
RbNa3Li12(SiO4)4,4.8031,-2.6236429144899422,mp-17240,0,7.0
Na3CaInP2SO12,2.831,-2.53621411846285,mp-2712775,0,4.0
CuH10(CO4)2,0.2689,-1.196213451071428,mp-558144,0,0.0
TbGa5Co,0.0,-0.469159409166666,mp-1025288,0,0.0
Na3FeS3,0.0,-1.061404747376846,mp-561456,0,0.0
Ba4Ti2PtO10,1.9973,-3.007728040980392,mp-558894,0,3.0
CaNb4O8,0.0,-2.967008903589728,mp-1227240,0,0.0
SmNiAs,0.0,-1.036178380833333,mp-16734,0,0.0
Ga2CuPd,0.0,1.175157653410217,mp-1093625,0,0.0
Na2Zr(WO4)3,2.8712,-2.443864616819922,mp-558710,0,4.0
YbSnRh,0.0,-0.976305928333336,mp-11973,0,0.0
Nd(FeP3)4,0.0,-0.5927575625420151,mp-16431,0,0.0
Mn2O4H4,1.996711,,,0,3.0
Rb3Sc2(AsO4)3,3.8122,-2.469267704374999,mp-1205185,0,6.0
Ag6SbAsS6,1.441999999999999,-0.178491079419645,mp-1229145,0,2.0
Th6MnBr15,0.0,-1.910017016951411,mp-1208365,0,0.0
KTi2(PO4)3,2.5455,-3.032237108769179,mp-541238,0,4.0
Nb2Te6I,0.7160000000000001,-0.7073724358333341,mp-28745,0,1.0
PrSCl,2.6929,-2.441018495937543,mp-1210046,0,4.0
Zr5Sn3Se,0.0,-0.8895043132291671,mp-1190294,0,0.0
Na3TlO2,1.8471,-1.336874567911876,mp-29454,0,2.0
Ca2CoN2,0.0,-0.8337875895000011,mp-1029532,0,0.0
Cs1La1S2,2.492022,,,0,3.0
Ti3InN,0.0,-0.930242820333333,mp-21233,0,0.0
MnGaRu,0.0,0.145281113409962,mp-1206997,0,0.0
CeMg6Si,0.0,0.0343020587499999,mp-1017493,0,0.0
Gd2Ti12(CuO4)9,0.082899999999999,-2.714581798644068,mp-1226218,0,0.0
NdAl3(BO3)4,5.1342,-3.235679775958333,mp-6535,0,7.0
Ag3Te32Au13,0.0,-0.088411267239569,mp-1229219,0,0.0
K2Se5,1.0284,-0.569201022674107,mp-18609,0,1.0
Cu15Bi4(Se4I)4,0.0,-0.418165180448719,mp-1226181,0,0.0
RbH18RuN6(ClO2)4,0.1947,-0.649883382368421,mp-24680,0,0.0
GaAsO4,3.0694,-1.9393015047222224,mp-3996,0,4.0
LuBiTe3,1.104299999999999,-1.018663021333333,mp-1222293,0,1.0
AlPO6,0.0,-1.8578585858928571,mp-1202156,0,0.0
K4Ni6S8,1.394115,,,0,2.0
Sr(MnAs)2,0.0,-0.443193772172414,mp-4343,0,0.0
KRb2SmCl6,4.796,-2.450773727725,mp-1114033,0,7.0
Nd3Th,0.0,0.077310561875002,mp-974068,0,0.0
Dy2B3O8,0.117099999999999,-3.216313358141024,mp-1200687,0,0.0
Cs2HfCl6,4.2277000000000005,-2.262170020555553,mp-1120741,0,6.0
Ba8Mn8O24,0.6713800000000001,,,0,1.0
Sb2NO6,0.0,-1.212542391944444,mp-1197554,0,0.0
Zr10HN8,0.0,-1.732423444671054,mp-674456,0,0.0
BaTl(PO3)3,4.8597,-2.720317251411566,mp-1214441,0,7.0
Nb12N11,0.0,-1.050015661431162,mp-1220830,0,0.0
CeBi2SeO4,0.424199999999999,-2.298157951542968,mp-1025437,0,0.0
CrCuRhSe4,0.0,-0.696057939196427,mp-1226276,0,0.0
Hf2Al3C4,0.0,-0.64716877888889,mp-570784,0,0.0
Lu(CoGe)6,0.0,-0.342451268974359,mp-1104467,0,0.0
Tb(ClO2)3,1.3419,-0.987986523666666,mp-1189972,0,2.0
Mn2TeSe,0.0,-0.7363719661233821,mp-1221790,0,0.0
K(SnAs)3,0.519199999999999,-0.244979977464285,mp-1192538,0,0.0
Hg4O4,1.17637,,,0,1.0
TaAgN2,1.941999999999999,-0.568540207302078,mp-1246632,0,3.0
CaTiAs2O7,2.7133000000000003,-2.50232282030303,mp-1042508,0,4.0
ZrFeMo,0.0,-0.135004536666665,mp-1215339,0,0.0
Ba3Mg(SiO4)2,4.6934000000000005,-3.321365118452381,mp-556703,0,7.0
LiLa5Ti8O24,2.106999999999999,-3.638279348552631,mp-560293,0,3.0
Nd5Zr3(Ni4As3)4,0.0,-0.8241924785416661,mp-1202368,0,0.0
PmZn2Cd,0.0,-0.350385824374999,mp-862975,0,0.0
Pb1F2,4.412078,,,0,7.0
SmMgTiO3,0.0,-2.473156514722222,mp-2222762,0,0.0
Re3HgO9,0.0,-1.884725549615386,mp-1219127,0,0.0
PrNiSn,0.0,-0.604733643055555,mp-22164,0,0.0
NaCoP3(H4O5)2,0.363499999999999,-1.696441478491648,mp-728306,0,0.0
Mg14CdFe,0.0,0.120172909375,mp-1027778,0,0.0
CaP6(HN3)4,4.1792,-0.7376460903416151,mp-1195714,0,6.0
SmErMg2,0.0,-0.069512721249998,mp-978513,0,0.0
CsK2IrF6,2.017699999999999,-2.424780316415517,mp-1112315,0,3.0
InSb3(PO4)6,2.5289,-2.3784556442507,mp-1224667,0,4.0
Li2SnO4,2.275299999999999,-1.829857293095238,mp-1222981,0,3.0
La8Ni2S14,1.787667,,,0,2.0
Sc2AgHg,0.0,-0.388856000625001,mp-862702,0,0.0
LiReN2,0.0,-0.372972536687502,mp-1245517,0,0.0
Y2CdS4,1.1109,-1.936631014999999,mp-35785,0,1.0
TiBi6(PO8)2,2.591199999999999,-2.252744042104763,mp-1208225,0,4.0
Sn2C4O8,2.239565,,,0,3.0
Bi4Pb7Se13,0.5369,-0.561818589492186,mp-1190436,0,0.0
KLaTbGeO6,0.0,-2.760022864391666,mp-1522529,0,0.0
Na14Hf3Mg5Si6(SO8)6,3.3114,-2.648673367959069,mp-2714111,0,5.0
Er3Tl2Cu5S8,1.2826,-1.250816894259258,mp-1189719,0,2.0
Na6Zr6Zn2Si5S7O48,2.4076,-2.6451487635690443,mp-2716054,0,3.0
Rb3NbO8,2.3443,-1.679315607708331,mp-9808,0,3.0
K3AgSn3Se8,1.3566,-0.912112711144444,mp-571594,0,2.0
TaAsO5,3.0581,-2.524299438904761,mp-1208608,0,4.0
B3Ru7,0.0,-0.141645979250003,mp-17535,0,0.0
BaMgCuF7,0.2498,-3.0965032295,mp-1041212,0,0.0
Ca2PI,1.6997,-1.503881859910714,mp-23040,0,2.0
U3Cu2S7,0.0,-1.420801893541656,mp-619067,0,0.0
Nd(PdO2)2,0.0,-1.94622754892857,mp-15051,0,0.0
LiOs2N3,0.0,0.117576719444445,mp-1246844,0,0.0
Pt8I24,0.266944,,,0,0.0
AlH12(CN)3,3.7497,-0.216605543815789,mp-1204288,0,5.0
K4I4Cl16,2.212292,,,0,3.0
KNa2Bi,0.0,-0.517660647187501,mp-863707,0,0.0
CeGe3Rh,0.0,-0.6881033349999971,mp-13121,0,0.0
Na6Y4Sc4Si3(S3O16)3,3.1008,-2.728513210078053,mp-2713911,0,4.0
BaSrY4(CuO5)2,0.0,-3.046324297777778,mp-1227594,0,0.0
Gd3Zn,0.0,-0.059451026249988,mp-1184460,0,0.0
Sm2Cu(SeO3)4,0.52,-2.005956999177631,mp-17874,0,0.0
Ba7Ru4Cl2O15,0.0,-2.387151570178571,mp-554143,0,0.0
Ca4Ce2TiSi4(BO6)4,1.2601,-3.357529777179488,mp-728512,0,2.0
La2Al3Ge4,0.0,-0.548753113888889,mp-669456,0,0.0
FeCoH18(CN2)6,0.0,-0.230764894802631,mp-505732,0,0.0
Zr2MnFe3,0.0,-0.25595714632184,mp-1215517,0,0.0
Pr3(Al2Si3)2,0.0,-0.407544520384616,mp-571302,0,0.0
Yb3Pr,0.0,0.085521073333325,mp-1187955,0,0.0
Sn5BF13,4.1741,-2.720310189298246,mp-28271,0,6.0
NaGaGeO4,3.121699999999999,-2.223321698292282,mp-1210845,0,4.0
MgAl2H4Pb2(O2F3)2,1.0779,-2.4115538426315792,mp-1234634,0,1.0
Y4NiB13,0.0,-0.449602574953703,mp-1201729,0,0.0
Li2RhO3,0.0,-1.755058311944445,mp-754870,0,0.0
Al5Rh2,0.0,-0.8065616792857131,mp-1791,0,0.0
Cu2B2S4,1.954799,,,0,3.0
NaEu3,0.0,0.099302565862068,mp-1186172,0,0.0
Y13Cd58,0.0,-0.164250761478871,mp-582709,0,0.0
Ti8Co3NiSn4,0.0,-0.170018543541667,mp-1217234,0,0.0
DyRe2,0.0,-0.279237405000003,mp-1102210,0,0.0
Sb6Li6S12,1.066744,,,0,1.0
K2Cu(C2O5)2,0.0087,-1.288025196147058,mp-1212236,0,0.0
TbSnRh,0.0,-0.8938189683333331,mp-1084759,0,0.0
K12Co2S8,1.890025,,,0,3.0
Ti3P4(NO9)2,0.0,-2.066767818835979,mp-1208416,0,0.0
YbMnSb2,0.0,-0.666413333620688,mp-1094016,0,0.0
BaAlCuBiO5,0.0,-1.895034289444445,mp-1042180,0,0.0
Sr4LiSm2Ta2O12,0.0,-3.296030246571429,mp-1235143,0,0.0
EuYSi4N7,0.0,-1.42741696423077,mp-22517,0,0.0
KBiS2,1.4158,-0.9206185710937512,mp-1223443,0,2.0
Zn13Rh,0.0,-0.134944325357143,mp-13447,0,0.0
Sm11Cd45,0.0,-0.233865624196427,mp-567122,0,0.0
Na4Ti7O16,2.4322,-3.14308654217965,mp-760863,0,3.0
La2UTe5,0.0,-1.459152836666665,mp-1223195,0,0.0
Ta13Se26,0.0,,,0,0.0
MgRe2(SbO6)2,0.0,-1.978997998235294,mp-2241337,0,0.0
Lu5Ni2Bi,0.0,-0.5090686466666621,mp-1210651,0,0.0
KAu(IO3)4,2.1181,-0.916315649291666,mp-557441,0,3.0
Lu2NiIr,0.0,-0.7777233333333331,mp-865337,0,0.0
CeCd2Ag,0.0,-0.136087185416664,mp-31173,0,0.0
CuH38C12(S4O7)2,0.7565000000000001,-0.5697047202397261,mp-1201449,0,1.0
CsGaBr4,3.3514,-1.611976532442529,mp-672251,0,5.0
PaZnNi2,0.0,-0.260000284999998,mp-1186422,0,0.0
SrAl2,0.0,-0.285075443333332,mp-22318,0,0.0
GdZnGa,0.0,-0.564951115833333,mp-1077244,0,0.0
Pm2CdPb,0.0,-0.535074441250003,mp-1186480,0,0.0
K2BeH4(SeO5)2,3.8147,-1.658622659299342,mp-542813,0,6.0
MgTlP(H6O5)2,4.6526,-1.654680342919048,mp-554894,0,7.0
ReTe5O6F25,2.1693,-2.221833516171171,mp-649177,0,3.0
K4Sn9,1.2502,-0.216400631846152,mp-570900,0,1.0
Rb2Li2N12C8,4.403625,,,0,7.0
TmCu(BO2)5,0.5997,-2.820029439460785,mp-17395,0,0.0
ErI3O11,0.3238,-1.013167869,mp-1213243,0,0.0
Cd(Mo3S4)2,0.0,-0.7451223788333321,mp-1104677,0,0.0
HoErTl2,0.0,-0.30947066541667,mp-974221,0,0.0
CaNb4O14,0.0,-2.287260858947368,mp-1227103,0,0.0
LaTe2Se,0.0,-1.58152371641927,mp-4034,0,0.0
Ho4MgNi,0.036399999999999,-0.18975136333333,mp-1212308,0,0.0
H6C3(NO)2,4.7894000000000005,-0.5958022951923071,mp-1203544,0,7.0
H9C6N10ClO5,3.4478,-0.440010256653225,mp-1195829,0,5.0
CoPt3,0.0,-0.047526424999997,mp-922,0,0.0
BaGd2CuO5,0.377299999999999,-3.023537846388889,mp-1182677,0,0.0
Pb2Cu7As6O24,1.415012,,,0,2.0
Lu2CoCu,0.0,-0.267938758333334,mp-1185457,0,0.0
Na14La4Ta4Si11SO48,3.389999999999999,-3.008498129505819,mp-2714405,0,5.0
YHfMg14O16,0.0,-2.856898720625,mp-1035835,0,0.0
Cs4Sn2As4,0.7655029999999999,,,0,1.0
Ag4Fe4Se8O24,1.684858,,,0,2.0
SbS7IF6,2.0126,-1.278051135999999,mp-555408,0,3.0
Na7AlSn11(PO4)18,3.319,-2.556444295121345,mp-686729,0,5.0
CuRh2Pb,0.0,-0.034997475,mp-1184104,0,0.0
MgCrWS4,0.137599999999999,-1.012043285714284,mp-1247262,0,0.0
K3Al2(PO4)3,4.6074,-2.937700390033927,mp-560629,0,7.0
Mg14MnBi,0.0,0.06177444387931,mp-1028078,0,0.0
NaTi3Nb(PO4)6,2.3867000000000003,-2.9862578167400913,mp-2713786,0,3.0
LuH2ClO2,4.8109,-2.432238665277778,mp-976349,0,7.0
Mg6GaNi,0.0,0.0083393053125,mp-1021777,0,0.0
HW,0.0,0.161137274374997,mp-1007761,0,0.0
TiPb7N6,0.599599999999999,0.100683082291668,mp-1245331,0,0.0
Bi2W4K2O16,2.728001,,,0,4.0
As4HN2(ClO3)2,0.0,-0.247535281416667,mp-1214628,0,0.0
Tl8Fe2C12N12,3.218315,,,0,5.0
Au2Cs2Cl8,1.954318,,,0,3.0
La2(Ni2B)3,0.0,-0.325319223409089,mp-1223681,0,0.0
BiIrSe,0.5346000000000001,-0.339743973020835,mp-1103228,0,0.0
YbGaGe,0.0,-0.5852841283333341,mp-12846,0,0.0
Na2Sn2P2,0.520934,,,0,0.0
Pr(Re2Si)2,0.0,-0.399876221666667,mp-1025309,0,0.0
Na6Sc4Si5Ge4S7O48,1.4262,-2.473747806361837,mp-2716048,0,2.0
La3Ga5SnO14,3.311399999999999,-2.832190112065217,mp-6788,0,5.0
Er3Co4Ge13,0.0,-0.402362624249999,mp-1196873,0,0.0
Na2Al3Si3NO13,0.0,-2.477735451375393,mp-1203545,0,0.0
Ho2AlGe3,0.0,-0.6228477545833311,mp-1212392,0,0.0
CsPuP2S7,0.1506,-1.08502425160826,mp-680370,0,0.0
Li3B3(H8N)2,5.961,-0.312182648229166,mp-1232407,0,7.0
Rb2ZrTe3,0.498499999999999,-1.231146231666667,mp-29603,0,0.0
Sb2Cl26As2P2,1.93155,,,0,3.0
CeInPt,0.0,-0.916540587777777,mp-640922,0,0.0
Na2LiCu(PO3)4,2.2133,-2.461377702233169,mp-1176393,0,3.0
Tb12Al7Si,0.0,-0.442161557687501,mp-1208605,0,0.0
BaAl9Ni2,0.0,-0.3610682775,mp-12549,0,0.0
K2Nd4Ge4O17,0.0,-2.278391252018517,mp-1212472,0,0.0
Bi2Te4Pb,0.4945,-0.338825842857147,mp-676250,0,0.0
Rb2Y2(PO4)3,0.0303,-3.090327935864662,mp-1209577,0,0.0
SmH5(SeO4)2,4.4368,-1.688281600371093,mp-733508,0,7.0
SmSiPd,0.0,-1.012754614722221,mp-1208992,0,0.0
Ce3Cu4(P2O)2,0.0,-1.526837387582416,mp-1213889,0,0.0
KNd9(Si3O13)2,4.454,-3.629071956065477,mp-1223480,0,7.0
InGeTe2,0.0,-0.264860332857143,mp-1223647,0,0.0
Ba2Ca1W1O6,2.761506,,,0,4.0
Zn2Bi6Ru8O27,0.0,-1.5108901719767451,mp-1215916,0,0.0
ZrCu3,0.0,-0.0777720325,mp-1188040,0,0.0
SiNi2As,0.0,-0.3795481484375,mp-21598,0,0.0
Ca12P16Si8,0.8472719999999999,,,0,1.0
K2V12O22,0.289172,,,0,0.0
La4Rh3,0.0,-0.7052303307142881,mp-626,0,0.0
Be2W,0.0,-0.303591991666665,mp-11282,0,0.0
Y6N2O5,0.0,-2.958092744999999,mp-780722,0,0.0
Si4Te2H44Pt(C8Cl)2,2.1648,-0.21788502352657,mp-1201326,0,3.0
Rb2Pd1C2,1.532989,,,0,2.0
Sr2LiBeB3O8,4.9369,-3.085197766055542,mp-1020647,0,7.0
Sr2CaCu2Bi2IO8,0.0,-1.96015155875,mp-1209124,0,0.0
RbYSeCl2O3,4.313,-2.415441979980468,mp-1209082,0,6.0
BiI5,0.068199999999999,-0.4976974262499999,mp-1214795,0,0.0
BaAs2,0.414499999999999,-0.7792174177777801,mp-31243,0,0.0
Tb2H16S3O20,5.4981,-1.84114867355691,mp-542222,0,7.0
Li3Bi2P5O18,0.216599999999999,-2.434741948864796,mp-26245,0,0.0
Na2Mg5(PO4)4,4.9369,-2.956213745049261,mp-561486,0,7.0
KMg6B,0.0,0.296608005874999,mp-1021467,0,0.0
BaEu2PtO5,0.0,-2.653670721111114,mp-1188181,0,0.0
Ta2CrRe,0.0,-0.232991294291664,mp-1186772,0,0.0
Mn3Ge,0.0,-0.075110627198277,mp-865027,0,0.0
Zn3Sn3(AsO4)4,1.9343,-1.6703400363461531,mp-1333351,0,3.0
Ho2CdHg,0.0,-0.372875563124996,mp-1184627,0,0.0
Mn12O16,1.056457,,,0,1.0
Co5NiN4,0.0,0.1372098902,mp-1246516,0,0.0
NdSm3,0.0,0.0237957493749999,mp-1186333,0,0.0
Ca2AsAu,0.1981,-1.093239665624999,mp-867113,0,0.0
Rb8C8,3.532628,,,0,5.0
VCr2Re,0.0,3.621673451874997,mp-1097336,0,0.0
CuH12C3S3BrN6,2.7521,-0.420276259471152,mp-1197738,0,4.0
EuB6,0.0,-0.548947279999999,mp-20874,0,0.0
K3La2(NO3)9,3.4725,-1.486015092237804,mp-680063,0,5.0
Ba4GaSn3,0.0,-0.6207613903125,mp-1228036,0,0.0
CsTm2Cl7,4.6387,-2.516597611500001,mp-1213262,0,7.0
Zr2PdAu,0.0,2.3715820472794142,mp-1097538,0,0.0
Na5Zr2Ga2SiP5O24,3.641899999999999,-2.828905321754979,mp-2715929,0,5.0
SmY4Se5,0.0,-2.020290479531252,mp-1218990,0,0.0
InNi2Au,0.0,-0.072453102499999,mp-1184770,0,0.0
LiLa2OsO6,0.3355,-2.8770802708333343,mp-12451,0,0.0
Y2NCl3,2.0584,-2.402162087708333,mp-28580,0,3.0
K2NaZn(BO2)5,4.2359,-2.645673866011192,mp-1019787,0,6.0
Ti(AlCl4)2,0.055199999999999,-1.663658449630317,mp-570951,0,0.0
Ta2Au,0.0,-0.070430426555556,mp-1194495,0,0.0
NaGd3GeS7,1.367,-1.806558899906608,mp-1190797,0,2.0
Lu4Ge8Ru,0.0,-0.5324208789743591,mp-1222645,0,0.0
Na7Hf2Ga2Si3(PO8)3,3.9446,-2.8739837837052953,mp-2714684,0,6.0
Ta4Ba2Sr2O14,2.128529,,,0,3.0
NaDyTi2O6,2.3542,-3.439443815971264,mp-1221056,0,3.0
La7CoI12,0.0,-1.54260262875,mp-1223204,0,0.0
PmMgZn2,0.0,-0.344056933125,mp-862937,0,0.0
NaHSeO4,3.3874,-1.45566417999615,mp-1220802,0,5.0
Rb2TlBiF6,3.3382,-2.676157918833334,mp-1113927,0,5.0
Se32Ge16,1.391653,,,0,2.0
Fe2P4Na6O16,2.195695,,,0,3.0
PrDyIn2,0.0,-0.597281921666667,mp-1186570,0,0.0
Ba4I4O2,2.969277,,,0,4.0
UNb6O16,0.0,-3.054632434347826,mp-756770,0,0.0
Na5In2SiSn2P5O24,2.611799999999999,-2.528781585729338,mp-2716003,0,4.0
Lu4Hf3O12,4.7135,-4.089766204298246,mp-676653,0,7.0
InGaCuO4,0.0,-1.720036156309523,mp-1223748,0,0.0
Ho5Pt3,0.0,-1.134693241354163,mp-1189141,0,0.0
Sb4I12,0.456044,,,0,0.0
CsEr2Cu3Se5,1.2246,-1.296321139876893,mp-542482,0,1.0
NdCoP,0.0,-0.930323304047618,mp-1018813,0,0.0
Er2Pt2O5,0.0,-1.888624570555555,mp-1184114,0,0.0
Rb2BaPt2(CN)8,1.7071,-0.336942289285715,mp-637582,0,2.0
Li5SiP3,1.316099999999999,-0.5903389078439151,mp-685991,0,2.0
Si7PbN10,2.780500000000001,-1.143768223240739,mp-1246059,0,4.0
MgZnAg2,0.0,-0.152613897083332,mp-11236,0,0.0
TlPC4S4(N2O)4,0.0,0.694869033955626,mp-1208264,0,0.0
SmAsS,0.025599999999999,-1.732295830000001,mp-1102762,0,0.0
Rb2InAgCl6,1.293,-1.710742968333332,mp-1111634,0,2.0
TiAl2O5,2.9434,-3.441487001041667,mp-4930,0,4.0
InGa2N3,0.9052,-0.472523307708335,mp-1246567,0,1.0
Zr2Mn12GaSn11,0.0,-0.112378371064323,mp-1216500,0,0.0
HoFe11Re,0.0,-0.021241709807691,mp-1224069,0,0.0
RbMnTe2,0.0,-0.6729746896910911,mp-10287,0,0.0
Ba2La3Nd(CuO5)2,0.7635000000000001,-2.99609303625,mp-1228493,0,1.0
CrGa3P4,0.0,-0.270960577738094,mp-985440,0,0.0
CsOsC3(ClO)3,3.6727,-1.375367989059562,mp-1196677,0,5.0
Li3U7(AsO7)5,1.7877,-2.83852460705,mp-1223319,0,2.0
SrHfMg6,0.0,0.1378718187499999,mp-1098297,0,0.0
PuCuO3,0.0,-2.001217212749996,mp-2647102,0,0.0
Mg6CdBiO8,0.000899999999999,-2.3264775206249992,mp-1033256,0,0.0
Ce2MnN3,0.0,-1.520320355122126,mp-10068,0,0.0
Sm2VCo16,0.0,-0.064863578947368,mp-1219230,0,0.0
Sr3BiN3,0.0,-0.397307129607136,mp-1246737,0,0.0
LiTiNF6,2.7812,-2.53720674449074,mp-1211870,0,4.0
U3Sb4Ir3,0.0,-0.489286004999996,mp-1105777,0,0.0
Zn3Cd3(TeO6)2,1.8056,-1.626822070791657,mp-1207534,0,2.0
Ni5As2,0.0,-0.212250520714284,mp-941,0,0.0
Mg6CoC,0.0,0.377347937291666,mp-1022051,0,0.0
Nd11Sn10,0.0,-0.7597649158333311,mp-1202367,0,0.0
Pr2USe5,0.032099999999999,-1.93198534219401,mp-1200172,0,0.0
Sr2Cr1Ta1O6,2.724384,,,0,4.0
Na8S16,1.950744,,,0,3.0
La3(TaN3)2,0.0,-1.6765968092878771,mp-29964,0,0.0
LiDyAu2,0.0,-0.712369966249997,mp-861885,0,0.0
Hg1Ga2Se4,0.895809,,,0,1.0
Na4Ge9O20,3.1508,-2.152216912894461,mp-3153,0,5.0
Er2AlCd,0.0,-0.337334309999998,mp-1184106,0,0.0
Ba2Al2F4O6B2,6.080639,,,0,7.0
Ce9Sb16Cl3,0.0,-1.173278365982148,mp-567514,0,0.0
Nd3ErFe34,0.0,0.03644104493421,mp-1220953,0,0.0
KLiPH2O4F,5.138,-2.345249437522619,mp-690708,0,7.0
Yb(BiTe2)2,0.7362000000000001,-0.520062219999999,mp-677162,0,1.0
Na1N1O2,2.421871,,,0,3.0
Dy3Al2,0.0,-0.377738425499998,mp-571624,0,0.0
Cu2(WSe2)3,0.0,-0.162072763579539,mp-1226152,0,0.0
BaBi2(IO)2,0.0,-1.227532267142858,mp-1228023,0,0.0
Cs2H6CO6,4.0513,-1.6034788661206891,mp-758948,0,6.0
Al2Cd3(GeO4)3,2.9874,-2.271887525875,mp-1214967,0,4.0
Na2AgPdF6,0.0,-1.911347691916671,mp-1111321,0,0.0
MnGaIr,0.0,0.059754581522989,mp-1206694,0,0.0
KH2AuC4N4O,4.2733,-0.175797196711539,mp-1196083,0,6.0
Gd3Ti2MnSi3,0.0,-0.205797713288635,mp-569019,0,0.0
Sr2Al3In,0.0,-0.293060894444443,mp-1218865,0,0.0
PmLu3,0.0,-0.008689154374991,mp-1186605,0,0.0
Sr2YTi2GaO7,0.0,-3.03479592878205,mp-1048031,0,0.0
Sm5Se9,0.0,-1.9553446327232111,mp-684959,0,0.0
ReSeCl,1.5368,-0.64675341607639,mp-676712,0,2.0
V2Co9Mo,0.0,-0.041157209027777,mp-1216772,0,0.0
KRb(Fe2S3)2,0.0,-0.928381587479166,mp-1223357,0,0.0
Hg2Na2P2O8,1.520441,,,0,2.0
KMg14SbO16,3.7864999999999993,-2.694594100539062,mp-1035669,0,6.0
HoReB4,0.0,-0.652611437083334,mp-975064,0,0.0
BaMnS2,0.0,-1.585543703232757,mp-8347,0,0.0