formula,bg,formation_energy,mp-id,fidelity,bg_category
Na4Ta3AlSi4(PO12)2,3.184999999999999,-3.055106833775516,mp-2715140,0,5.0
ErCuAs2,0.0,-0.9088039158333352,mp-10993,0,0.0
InI2,1.8885999999999992,-0.763738817222221,mp-29312,0,3.0
TaNb(Cu3S4)2,1.7338,-0.8580247160833321,mp-1217925,0,2.0
ErSnIr,0.0,-0.851634797222217,mp-1078876,0,0.0
GaPt3,0.0,-0.444162443125,mp-862621,0,0.0
Cu4O2,0.647621,,,0,1.0
WC,0.0,-0.153540745,mp-1894,0,0.0
Ho4CdS7,1.1961,-2.067291051874997,mp-1223995,0,1.0
Na3Cd2IrO6,0.0,-1.53080485367816,mp-9741,0,0.0
Sr4(RuO4)3,0.0,-2.192789076315788,mp-766284,0,0.0
NaLaGaP(SO6)2,2.4535,-2.464630256769751,mp-2714517,0,3.0
Y5Si3,0.0,-0.7842043937500001,mp-2538,0,0.0
DyHoRu2,0.0,-0.333420509166662,mp-1183786,0,0.0
Pb2Se2O6,2.839016,,,0,4.0
CaYGa3O7,3.1464,-2.812737839375,mp-1227159,0,5.0
Na6Nb2In2Si5SO24,2.3344,-2.66725246947773,mp-2713762,0,3.0
VCrP2,0.0,-0.650768273988095,mp-1216354,0,0.0
Pr3(Co2Sn)4,0.0,-0.252396866666666,mp-1209618,0,0.0
Sb8O11F2,2.2226,-1.803743424523809,mp-759873,0,3.0
TiMnIr2,0.0,-0.5778051828160901,mp-1187499,0,0.0
K3Cr1O4,1.075998,,,0,1.0
Ba4Os6ClO18,0.0,-2.069719544827587,mp-561099,0,0.0
Na2ZnSe2,2.139599999999999,-1.117794387489223,mp-1021465,0,3.0
S1Sr1,2.47816,,,0,3.0
Na2La3TaP4(SO12)2,2.9356,-2.922459536722132,mp-2712643,0,4.0
Er2Sn2O7,2.6825,-3.030940987272725,mp-3688,0,4.0
Li10Zn3(GeO4)4,3.3757,-2.232187988282828,mp-768947,0,5.0
U2Si3Pt,0.0,-0.494002761666664,mp-1216606,0,0.0
Sr2CuPt,0.0,-0.396272736341661,mp-1187070,0,0.0
Li3Ta7O19,2.868299999999999,-3.163698085390804,mp-772220,0,4.0
Nd2UTe4,0.0,-1.451231658809535,mp-33312,0,0.0
RbTi5Se8,0.0,-1.480372705208331,mp-975271,0,0.0
ZrNiH3,0.0,-0.5358002857499999,mp-29658,0,0.0
LiTiNbO4,0.0,-2.919071198095237,mp-774908,0,0.0
Mg6ZnFe,0.0,0.150905693749999,mp-1099270,0,0.0
Zn14S14,2.707886,,,0,4.0
TbGeIr,0.0,-0.9252124772222152,mp-22755,0,0.0
Cs2CeCuCl6,1.674099999999999,-1.974937743500004,mp-1113363,0,2.0
Nb2TlO7,0.0,-2.252054367833333,mp-1220680,0,0.0
EuGeS3,0.0,-1.3593574088333351,mp-581575,0,0.0
Na3LaZnSi(SO6)2,3.1156,-2.417538891956897,mp-2712692,0,4.0
Cr8Be4O16,2.398217,,,0,3.0
SrPdF4,1.3251,-2.864338633333332,mp-12622,0,2.0
YAgSe2,1.279799999999999,-1.42491480703125,mp-1188559,0,2.0
CeMg14Nb,0.0,0.113601573125,mp-1026718,0,0.0
MnAl12Fe,0.0,-0.188397641995073,mp-1221672,0,0.0
NaLaMg6O8,5.4148,-2.8644436966487072,mp-1031108,0,7.0
BaUTe4,0.0,-1.235411361111107,mp-1095338,0,0.0
Pu2InPd2,0.0,-0.291973087833322,mp-19825,0,0.0
Gd5Pb3,0.0,-0.647988331249997,mp-1106250,0,0.0
TlCdSb,0.0,-0.116218627499999,mp-7379,0,0.0
Ba9La5Cl33,3.4436,-2.9152080664893623,mp-781880,0,5.0
Eu(Ga4Co)2,0.0,-0.365364396136364,mp-1197356,0,0.0
USnIr,0.0,-0.466022409444434,mp-1080803,0,0.0
CoSI,0.0,-0.370909570833333,mp-1181832,0,0.0
NaYAlP(SO6)2,4.397200000000001,-2.65002312977901,mp-2714344,0,7.0
Rb2TlRuF6,0.0,-2.3817422508333332,mp-1113854,0,0.0
Cs4Mn6Se8,1.767312,,,0,2.0
Na4Sr(SiO3)3,4.2471,-2.872665538265721,mp-559773,0,6.0
Y2MgTl,0.0,-0.236926054583335,mp-1187721,0,0.0
Sr2MgHg,0.455999999999999,1.029462103124998,mp-1095841,0,0.0
Ba2SmMgNbO6,0.0,-2.8492023,mp-2222862,0,0.0
SrMg6B,0.0,0.2651074504055,mp-1016337,0,0.0
FeAg2Sn3S8,0.8741000000000001,-0.639291724166665,mp-1225099,0,1.0
Sr4HfO6,3.846,-3.345469832727272,mp-779428,0,6.0
Ca3Y2(SiO4)3,3.800099999999999,-3.565784487875,mp-1214208,0,6.0
DyHSO5,5.5844000000000005,-2.543283218020833,mp-1196991,0,7.0
K2PAuS4,1.5691000000000002,-1.010385426142856,mp-9509,0,2.0
Cr4W4O16,0.625809,,,0,0.0
Sr3TiNb4O15,2.0061,-3.257794921884058,mp-1218661,0,3.0
K2Li14Zr3O14,4.356,-2.569991883671717,mp-17208,0,6.0
Pr(BIr)4,0.0,-0.559472110370369,mp-1189206,0,0.0
Tl20Cl4Se8,0.3577579999999999,,,0,0.0
CeH3(CO2)3,0.0,-1.7244711306730771,mp-642731,0,0.0
Ba9(AuO6)2,1.8544,-2.463638764021739,mp-28788,0,2.0
La3Ru,0.0,-0.235455680000001,mp-1189592,0,0.0
Na4BeAlSi4ClO12,4.6344,-3.00330622176162,mp-23151,0,7.0
Cr1O10C4H4N1,0.953213,,,0,1.0
DyAlPt,0.0,-1.26940722833333,mp-1103319,0,0.0
C6F5,3.776399999999999,-0.792840673465908,mp-1214171,0,6.0
Hg8I4O4,0.8488509999999999,,,0,1.0
Rb8Zr6BBr20,0.089999999999999,-1.887629681119048,mp-1209464,0,0.0
La7BP2O17,4.416900000000001,-3.656684638646385,mp-1212336,0,7.0
Pr32In3Rh19,0.0,-0.564422394506172,mp-1220898,0,0.0
PrAlSi2,0.0,-0.439967944166666,mp-571554,0,0.0
Lu(Al2Cr)4,0.0,-0.216942939282047,mp-1104319,0,0.0
USe,0.0,-1.223744236171874,mp-2143,0,0.0
H7C2SN5O3,2.9961,-0.560065951319444,mp-1212675,0,4.0
La6Mn(SiS7)2,1.1259,-2.003745713211206,mp-1223191,0,1.0
CaCuH4(CO2)4,0.7001000000000001,-1.442214210277778,mp-23686,0,1.0
Ti2FeSi,0.0,-0.348007951666666,mp-1094030,0,0.0
Na4HfZr(SiO4)3,4.1652000000000005,-3.147182888199234,mp-2716347,0,6.0
HgRhF6,0.0,-1.633558684687502,mp-15639,0,0.0
Sb2XeF15,0.0219,-1.982643652222223,mp-1195732,0,0.0
K2AsAuCl6,0.219999999999999,-1.3907846072,mp-1112434,0,0.0
LaOF,4.204999999999999,-4.2567084316666675,mp-8111,0,6.0
Dy3Ir2,0.0,-0.799615182571428,mp-1204219,0,0.0
H24C8Se(NO2)2,4.0876,-0.340469567752404,mp-677203,0,6.0
Zr5AlSn3,0.0,-0.664041480555558,mp-510321,0,0.0
PrCo5H4,0.0,-0.141799264666667,mp-1206545,0,0.0
ThFe3,0.0,-0.057837391666665,mp-30638,0,0.0
Sm6Al43V4,0.0,-0.313024828207547,mp-1208892,0,0.0
CaTbPd2,0.0,-0.7930893362499911,mp-1183553,0,0.0
Er20Si12C,0.0,-0.6972248407575751,mp-1225168,0,0.0
CsMg6BO8,0.6152999999999991,-2.275014024926364,mp-1099263,0,0.0
ScGa3,0.0,-0.5140333662500001,mp-932,0,0.0
K3TlAu5,0.0,-0.287411333342588,mp-976190,0,0.0
K2Cd3SnAs4,0.0,-0.291411720949999,mp-1223689,0,0.0
KSbMoO5,3.2057,-2.03678175621875,mp-561478,0,5.0
RuF5,0.710199999999999,-1.872036438333334,mp-540829,0,1.0
CsCu4S3,0.0,-0.475161472304687,mp-7785,0,0.0
Y(Fe5Re)2,0.0,-0.029772809615384,mp-1216227,0,0.0
Li4IO3,0.0,-1.471976248541667,mp-1189189,0,0.0
Ba2ZnGe2O7,3.1063,-2.580144032916666,mp-1190949,0,4.0
Mg6AlSn,0.0,0.0027788443749999,mp-1023398,0,0.0
Nb32N27,0.0,-0.9745495818573492,mp-685079,0,0.0
ZrSbPd,0.0,-0.803571210833335,mp-22036,0,0.0
TiZnIr2,0.0,-0.7074610533333321,mp-865048,0,0.0
Ba8Ga4S14,2.550512,,,0,4.0
Ca18Eu2P12(SO16)3,0.0608,-3.253276386364027,mp-677016,0,0.0
Nb5Ga13,0.0,-0.289393720238093,mp-1072,0,0.0
SmFeSi2,0.0,-0.6681123400000001,mp-1207071,0,0.0
La5Ge3,0.0,-0.820686564999999,mp-1188469,0,0.0
HCS(OF)3,6.9361000000000015,-1.670891332638889,mp-1201933,0,7.0
In2NiS4,0.0,-0.6990659054761891,mp-674493,0,0.0
HfBe5,0.0,-0.2293877075,mp-2025,0,0.0
Cd4Ge4O12,0.7605109999999999,,,0,1.0
K2Na2Fe2Si8O20,2.765253,,,0,4.0
ZrAlCu2,0.0,-0.352965232499999,mp-3736,0,0.0
MgPPd5,0.0,-0.5912694728061211,mp-1025261,0,0.0
K2NpO4,0.2662,-2.890354923321427,mp-1025162,0,0.0
Ta2O10P2,3.789964,,,0,6.0
Tl2SiF6,4.976,-2.836305280555557,mp-5033,0,7.0
AsXeF11,2.0307,-1.543623313653846,mp-554379,0,3.0
Na14Mg8Si3(S3O16)3,2.87,-2.415687889554598,mp-2714523,0,4.0
La(SiAg)2,0.0,-0.495986191,mp-16237,0,0.0
AlAgF4,2.4951,-2.902761048750007,mp-1214923,0,3.0
Ca3Ga3Ir2,0.0,-0.706121084999999,mp-31481,0,0.0
Ba4(PtO3)3,1.5148,-2.075194557812495,mp-757840,0,2.0
K2ZrS4,2.0197,-1.555417740107142,mp-560331,0,3.0
ZrAl2Zn,0.0,-0.519380847499999,mp-1215329,0,0.0
PH11C(NO2)2,0.2476,-0.873039491889097,mp-722382,0,0.0
BaPb2(SO4)3,4.1233,-2.172667287916666,mp-1228616,0,6.0
RbNa8(GaAs2)3,0.4329,-0.438502057557471,mp-1200468,0,0.0
AsRuSe,0.7335,-0.487357613020833,mp-1214794,0,1.0
Li2NiN,0.0,-0.416370175520833,mp-1210761,0,0.0
CeCuS2,0.0,-1.628191004531251,mp-5766,0,0.0
PrNiGe3,0.0,-0.592177524333331,mp-13073,0,0.0
Tl2CuH12(SO7)2,0.792899999999999,-1.424111553924731,mp-24196,0,1.0
NbV2Fe,0.0,3.9536683725,mp-1095905,0,0.0
Ce4(GeS4)3,0.0,-1.528470254210524,mp-606703,0,0.0
Ba2As6Cu7O24,0.896119,,,0,1.0
K2MgCl4,4.7652,-2.252388238499999,mp-27207,0,7.0
Ba3UIn2O9,1.5562,-2.970591268888888,mp-1228397,0,2.0
Sr2YTaO6,3.8491,-3.586965255233333,mp-12355,0,6.0
IrPd3,0.0,0.127581837499999,mp-1184784,0,0.0
YbEuCd2,0.0,-0.333056594999998,mp-1187660,0,0.0
Mg2B4C4,1.257799,,,0,2.0
K2B4H8O11,5.2209,-2.058823672146666,mp-721901,0,7.0
CsCO2,4.155699999999999,-1.8960735174137944,mp-555131,0,6.0
Pd13Pb9,0.0,-0.260624321846586,mp-30826,0,0.0
Na4La2Si3Ge2(SO8)3,0.0,-2.458555119596945,mp-2713321,0,0.0
RbLaSi(CN2)4,3.5697,-0.7139393675000001,mp-568228,0,5.0
U2Fe2Sn,0.0,-0.151027227999995,mp-21357,0,0.0
CrIr3,0.0,-0.258463607500004,mp-12083,0,0.0
ErSe2NO11,0.579299999999999,-0.9536582763125,mp-1213595,0,0.0
Lu2SnAu2,0.0,-0.7094529996666491,mp-1210987,0,0.0
NaTaNbSi2PO12,3.0128,-3.080444596945677,mp-2713379,0,4.0
Na4Al2Zn2SiS5O24,3.6881999999999993,-2.24466184543028,mp-2713200,0,5.0
LiAl3,0.0,-0.093289819166666,mp-10890,0,0.0
KEuHf4O12,0.0,-3.062832602347222,mp-1519413,0,0.0
Cs8Bi8Zn4S20,1.740324,,,0,2.0
Na12B4N8,1.742243,,,0,2.0
TiPO4F,2.4692,-3.166999982568028,mp-1541018,0,3.0
MgIr2,0.0,-0.293149803333335,mp-11883,0,0.0
CuAs2Pb8Cl5O9,1.9391999999999991,-1.558126801599999,mp-653930,0,3.0
Na30Ta8Zn16Si15(S7O48)3,2.2704,-2.34567331191259,mp-2714984,0,3.0
Na10Ca4Ta4Si7S5O48,1.6491,-2.676720026631963,mp-2715882,0,2.0
La4MgIr,0.0,-0.381873982916669,mp-570078,0,0.0
Sr2Cu(OF)2,0.0,-2.9726358285714283,mp-1025280,0,0.0
Hg2TeSe,0.0,-0.19775142851563,mp-1223932,0,0.0
BP(H3N)3,4.8937,-0.322010276111819,mp-1203334,0,7.0
NaSmHf4O12,0.0,-3.201275946465516,mp-1519351,0,0.0
BaMg30SiO32,1.6209,-2.87259671015625,mp-1039822,0,2.0
Lu3NbO7,2.1162,-3.60814389590909,mp-676725,0,3.0
Ba2Sb2Li2,0.680167,,,0,1.0
Te3Pt2,0.0,-0.43693187,mp-541180,0,0.0
TiAlNi2,0.0,-0.623069183333332,mp-7187,0,0.0
Ca(CoS2)4,0.0,-0.6746416198076961,mp-1402635,0,0.0
La4Bi8S24Ba4,0.551446,,,0,0.0
K2BiAuBr6,0.389,-1.27118850945,mp-1111995,0,0.0
NaCdAsS3,1.975299999999999,-0.835361653979884,mp-1192203,0,3.0
NdSnRh,0.0,-0.8506385219444421,mp-567214,0,0.0
Cu3H8S4(NO8)2,0.417999999999999,-1.319305894924243,mp-1213584,0,0.0
V2Co3N4,0.0,-0.397380791111111,mp-1246838,0,0.0
Na3MgTi(PO4)3,2.2633,-2.8593887004449923,mp-2715434,0,3.0
Rb2NaIrF6,2.3345,-2.55136360963793,mp-1113675,0,3.0
BaEuYSnO6,0.0,-3.000609284750001,mp-1518507,0,0.0
CeMg6B,0.0,0.229087957187499,mp-1017491,0,0.0
Ho2S3O20,0.0,-1.125870287899999,mp-1212747,0,0.0
Sb4PdC4(O2F11)2,3.2057,-2.173123076357142,mp-557661,0,5.0
ZnCuAs,0.0,-0.001164133333333,mp-1100815,0,0.0
Rb2TlAsBr6,1.1412,-1.374339472583334,mp-1114116,0,1.0
Nd(YS2)3,1.0532,-2.4001071289375,mp-1188689,0,1.0
CaAl2O12,0.2233,-0.9375662568888892,mp-1215043,0,0.0
As2S3(NF6)2,2.2041,-1.773116919078947,mp-541204,0,3.0
LiY2Al,0.0,-0.261960931666667,mp-862555,0,0.0
Tb6(Ga3Co)7,0.0,-0.479548464632352,mp-1203765,0,0.0
Sr2LaGaO5,3.596399999999999,-3.110187525277778,mp-1218758,0,5.0
TcW2C,0.0,0.152039986250002,mp-1217376,0,0.0
Na17Zr7Sc5Si6(PO6)12,4.1506,-3.09206374516103,mp-693746,0,6.0
K3P,0.2117,-0.335066864806547,mp-7897,0,0.0
AlNi6Pd,0.0,-0.182494957500001,mp-1228861,0,0.0
Sb2K6,0.371839,,,0,0.0
ErMg2,0.0,-0.03480295333333,mp-1184269,0,0.0
Lu4Ni,0.0,0.248175298166665,mp-1210828,0,0.0
KTeAu,0.0,-0.7731471412499971,mp-3553,0,0.0
Zr2Al3C5,0.0,-0.213337551749995,mp-571402,0,0.0
La8Ni4O16,0.0,,,0,0.0
CaTi4(CuO4)3,0.0,-2.702762577666666,mp-22592,0,0.0
TiNbC2,0.0,-0.7829835516666651,mp-1216707,0,0.0
K3Na7Mg2H12S6(NO18)2,3.4588,-1.8931983544324291,mp-1224548,0,5.0
Nd2SnS5,0.0,-1.742452682187499,mp-555750,0,0.0
Sr4CaCl10,5.1811,-2.717574591000002,mp-1218427,0,7.0
Sr2Mn4P4,0.951958,,,0,1.0
PuPaO4,0.0,-3.8972000031249983,mp-675479,0,0.0
YAlCo,0.0,-0.342381689166667,mp-1216079,0,0.0
Ho3Si13Os4,0.0,-0.523111027062918,mp-1202418,0,0.0
RbAuC4S4(OF)12,1.8291,-1.740650892132354,mp-1200298,0,2.0
CsTlF3,2.1858,-2.419469716,mp-1078203,0,3.0
ZrAgMo,0.0,0.9523461230555532,mp-631561,0,0.0
Ba3UO6,2.157199999999999,-3.307360320999998,mp-1206273,0,3.0
Y2Al,0.0,-0.336266310833335,mp-11230,0,0.0
Gd4Ni13C4,0.0,-0.320640399523813,mp-866397,0,0.0
HfMg14AlO16,0.0,-2.84100152125,mp-1036470,0,0.0
Cs2Te4O9,2.405899999999999,-1.675637743231801,mp-1203081,0,3.0
Hf2OsRh,0.0,-0.879132967499998,mp-865131,0,0.0
Nd5Bi3,0.0,-0.7712238321875,mp-1105838,0,0.0
Tc8As12,0.0,,,0,0.0
Ge2Br4F20,2.83271,,,0,4.0
Ba2ErReO6,0.0,-3.060387017249996,mp-1205977,0,0.0
Rb2Pt4Se6,1.003127,,,0,1.0
Mg2In,0.0,-0.050700419999999,mp-31326,0,0.0
EuCdO3,0.0,-1.675695014,mp-1183878,0,0.0
DyBRh3,0.0,-0.793701890166664,mp-3183,0,0.0
Sc(VGa2)2,0.0,-0.468930729285714,mp-1025365,0,0.0
Np5Ge3,0.0,0.122504094531251,mp-542019,0,0.0
SmCo12,0.0,0.193721007307691,mp-1094061,0,0.0
BaSrNdTlCu2O7,0.0,-2.199928214294871,mp-1227445,0,0.0
Cs5In3As4,0.9419,-0.408023425689655,mp-582182,0,1.0
MgSbO3,1.997199999999999,-2.213517803499999,mp-1347225,0,3.0
K2Tc,0.0,1.404246204111111,mp-1180954,0,0.0
Ca5P12Ir19,0.0,-0.7979557537698391,mp-18360,0,0.0
Ba8Hg4S12,1.3609429999999991,,,0,2.0
Al2CrIr,0.0,2.288346431666667,mp-1096638,0,0.0
Ho14Ge23,0.0,-0.691587349729727,mp-29774,0,0.0
K6H6S6N2O23,5.0947,-1.7357113323488371,mp-706366,0,7.0
RbSb4S7O,1.0185,-0.487355567884614,mp-1197769,0,1.0
CeGd3,0.0,0.078651548750002,mp-1185539,0,0.0
Sr3Tl5,0.0,-0.438774325000011,mp-1188539,0,0.0
YMgMoS4,0.0,-1.492431160714284,mp-1247018,0,0.0
K(FeSb3)4,0.0,-0.222279318661763,mp-1212045,0,0.0
Hf2MnNi,0.0,3.345741375858477,mp-1095824,0,0.0
MgNb2(SCl)4,0.9002999999999991,-1.41504036590909,mp-2217903,0,1.0
Tb2EuS4,0.455,-2.392403860178571,mp-1173110,0,0.0
Hg2SeO5,1.0118,-0.91931130685547,mp-30123,0,1.0
CuCS,0.0,1.299409829895833,mp-1102385,0,0.0
Na6Nb3Ga(SiO4)6,2.6135,-2.8855583437277312,mp-2715283,0,4.0
ThH20C4S2N8O15,0.2819,-1.141627943249999,mp-707467,0,0.0
Ba3HoRu2O9,0.0,-2.638737857666666,mp-1214536,0,0.0
KPH12PtC2N2(ClO2)2,2.597699999999999,-0.946712301675714,mp-1201468,0,4.0
Li4Re6S11,1.732799999999999,-1.018776120634919,mp-1181012,0,2.0
NaTiGaSi(SO6)2,2.1205,-2.436928047067371,mp-2712648,0,3.0
Ba2ZrS4,0.6025,-2.173588482857141,mp-3813,0,0.0
ScRu,0.0,-0.5430755124999991,mp-30867,0,0.0
GePt,0.0,-0.485953963749999,mp-542640,0,0.0
AsRh,0.0,-0.5242963187499999,mp-22079,0,0.0
Ba(Ag3O2)2,0.9577999999999992,-0.830284046590908,mp-27286,0,1.0
LuHfF7,6.9578,-4.27695964962963,mp-1210837,0,7.0
CaSn3O7,1.1138,-2.192631527272726,mp-1044042,0,1.0
MnCr4CdS8,0.665099999999999,-0.980324310566501,mp-1221813,0,1.0
Ho3(CuSi)4,0.0,-0.6841016795454541,mp-31423,0,0.0
LiGa(SeO3)2,4.2558,-1.720058152802083,mp-1198930,0,6.0
Ce3Al3Pd2Pt,0.0,-0.8331513677777751,mp-1229297,0,0.0
Mg3Sn,0.0,-0.116137969999999,mp-978294,0,0.0
TaAgO3,1.9156,-2.405688931799999,mp-9890,0,3.0
KRb2ZrOF5,4.5842,-3.358261073225,mp-39542,0,7.0
MgHgPd2,0.0,-0.4660525568749999,mp-1185884,0,0.0
SrSc2O4,3.6335,-3.737810427499999,mp-770771,0,5.0
Re2Cu1O8N4H12,1.939094,,,0,3.0
Mn1Bi2Te4,0.011479,,,0,0.0
Pr7C3Br10,0.102399999999999,-1.740806148833353,mp-1202671,0,0.0
Rb4Cu2Nb2Se8,1.750052,,,0,2.0
NbBi3O7,0.0,-2.097080187727272,mp-35185,0,0.0
Y3TlF10,5.8088,-4.115191565178573,mp-1207844,0,7.0
Zn2InCuTe4,1.1334,-0.578267237916665,mp-1215701,0,1.0
ScSiAu,0.0,-0.8063665049999991,mp-9023,0,0.0
Er(BRh)4,0.0,-0.5819357094444421,mp-1200942,0,0.0
MgSbF6,0.0,-3.013647811875,mp-1397377,0,0.0
Sc4Ni4P4,0.0,,,0,0.0
Cs2RbAsBr6,2.8942,-1.570585874431034,mp-1112134,0,4.0
LaCO4,0.040599999999999,-2.552757269074076,mp-1202759,0,0.0
Te4Cl18N6S8,2.193445,,,0,3.0
ZrFeSe,0.0922,-0.6915341807812501,mp-961651,0,0.0
Re2Os(Se2Cl)2,1.2869000000000002,-0.835950994930555,mp-1219275,0,2.0
CoRh,0.0,0.082390137499999,mp-1226026,0,0.0
Mg3Ge,0.0,-0.116053993750001,mp-642855,0,0.0
CsYbBr3,4.3382,-1.805314813500001,mp-568005,0,6.0
Cu2P2Na6C2O14,1.44137,,,0,2.0
Ga2S5N5Cl7,2.519,-0.402559268721214,mp-555282,0,4.0
UCl2O13,0.0,-0.74868700703125,mp-1196192,0,0.0
Na6Ca3GeP4(SO12)2,1.9217,-2.605060400254516,mp-2712706,0,3.0
Gd(BO2)6,0.128,-2.640947852894736,mp-1202527,0,0.0
Ca4PdO6,1.822699999999999,-2.675235593636361,mp-10299,0,2.0
Th(GeO)2,0.0,-1.268785575999999,mp-1208598,0,0.0
Ti4Br16,2.69134,,,0,4.0
Rb4Ba12Sb10O2H2,0.843426,,,0,1.0
Co1O8N8C6H12,2.209949,,,0,3.0
Tb2Al3Co,0.0,-0.437675075555555,mp-1217686,0,0.0
Sr4Zn4As4O20H4,3.22124,,,0,5.0
Na3AsSe3,2.008099999999999,-0.956518379955357,mp-8686,0,3.0
V(CoN)4,0.0,-0.137147230555557,mp-1246063,0,0.0
B24N4O,0.5870999999999991,-0.116234581120689,mp-1182541,0,0.0
RbB2P2HO9,6.0197,-2.618908958424603,mp-758281,0,7.0
Gd3SbO3,0.249299999999999,-3.137536690000002,mp-1104777,0,0.0
Na3Hf3Al(PO4)6,4.738199999999999,-3.1360046484323,mp-2714868,0,7.0
Cs4UC3O11,2.0837,-2.45335258019056,mp-573096,0,3.0
MnCdS2,0.456899999999999,-0.957926238776936,mp-1221632,0,0.0
Na6La2Nb6Si9(SO16)3,1.9425,-2.863273396677152,mp-2713082,0,3.0
Ba4TiSi12(SnO12)3,3.2599,-3.165014318184525,mp-1228270,0,5.0
Ba4H8,2.792379,,,0,4.0
LuNi4Sn,0.0,-0.413182655277777,mp-568552,0,0.0
Ba3EuRu2O9,0.0215,-2.484864778333334,mp-556259,0,0.0
Cs2InCl5O,2.623599999999999,-1.419149157886335,mp-1200718,0,4.0
LaMgHg2,0.0,-0.481968931250002,mp-867833,0,0.0
V3AsN,0.0,-0.8696673849166581,mp-1079224,0,0.0
ZrGaIr2,0.0,2.284317148125,mp-1095828,0,0.0
Na5Ga3Sn(PO4)6,3.0602,-2.5431498855278742,mp-2713216,0,4.0
LaGa3Ni,0.0,-0.5457789335000001,mp-1223040,0,0.0
H2C2S,0.0,0.8374159547857141,mp-1096982,0,0.0
Na3Pr,0.0,0.315253761336206,mp-1186070,0,0.0
Na3InCl6,3.7859,-1.751821308999999,mp-23503,0,6.0
Ca3Mg4Zn11,0.0,-0.146092845833333,mp-1094707,0,0.0
Ba4TiAs4,1.0537,-1.101933833842593,mp-15503,0,1.0
Hf2FeOs,0.0,-0.5233899349999971,mp-865179,0,0.0
Ca2Be2P2O9F,0.7538,-3.105760103705357,mp-1227534,0,1.0
NaLu(Pd3O4)2,0.0,-1.446170874252872,mp-6533,0,0.0
MgH,0.0,0.123888946874999,mp-1185871,0,0.0
Pr2Sn2O7,2.6358,-2.955287218030299,mp-4394,0,4.0
S24N8H8,2.696228,,,0,4.0
Cu,0.0,0.0,mp-30,0,0.0
K2BiAu,0.8705,-0.519921641875001,mp-1084770,0,1.0
Bi4RuI2,0.165,-0.322096066428565,mp-541771,0,0.0
Na2Sn3O7,1.6767,-2.063544755021551,mp-2646915,0,2.0
Rb2InHgF6,0.0,-2.5527608854166672,mp-1112225,0,0.0
Cs1Hg1Cl3,0.0,,,0,0.0
Au2Rb2Br8,1.511983,,,0,2.0
P2PbO8,0.012799999999999,-1.8473286453896092,mp-1180118,0,0.0
Mg6BiW,0.0,0.288905225,mp-1017036,0,0.0
ZnCu4Sn2HgS8,0.012799999999999,-0.6160297157812491,mp-1215727,0,0.0
Te7As5I,0.615699999999999,-0.048209042243589,mp-1217385,0,0.0
TiSnPd2,0.0,-0.603945289166667,mp-865679,0,0.0
Dy2Pd2Pb,0.0,-0.8376781776666591,mp-31088,0,0.0
Tl2InBi,0.271,1.003108320000002,mp-1097214,0,0.0
Er7IrI12,0.3853,-1.48772457,mp-1105808,0,0.0
SrLu2O4,4.1640999999999995,-3.834088167261906,mp-772820,0,6.0
TiCuO3,0.0,-2.2287045096666662,mp-1147748,0,0.0
KTbPrNbO6,2.399899999999999,-3.157931810558332,mp-1522191,0,3.0
Ho6Ag(GeS7)2,0.0,-1.7040003711594172,mp-1224168,0,0.0
Sm(InCu)6,0.0,-0.182362709835165,mp-1219370,0,0.0
Tl2SeS,0.487899999999999,-0.475448476627607,mp-1216595,0,0.0
BaLiN,0.0,-0.481156127777778,mp-1247100,0,0.0
HoTmO3,4.4948,-3.962808583,mp-1178178,0,7.0
LaCu3Ni2,0.0,-0.233867999166671,mp-1222942,0,0.0
Li2La4O7,2.160599999999999,-3.000945850128206,mp-1120737,0,3.0
BaCaNdSbO6,3.4966,-2.982774850249999,mp-1521785,0,5.0
KAuCl3,0.0,-1.291860333449999,mp-1110854,0,0.0
Co4As12,0.0,,,0,0.0
Na6Nb2Zn4Si3(SO6)6,1.9403,-2.257870107250454,mp-2713655,0,3.0
BaBi4(BrO3)2,0.0,-1.769119293846154,mp-561172,0,0.0
AlC4NCl2,0.6016,0.126156773124998,mp-1229258,0,0.0
K3Y,0.0,0.563028944833334,mp-976373,0,0.0
Mg30SiCO32,1.037699999999999,-2.848256845078125,mp-1039816,0,1.0
Sr2UO5,2.1693,-3.6145626018750017,mp-18471,0,3.0
RbAu(SO4)2,1.7149,-1.681593854374999,mp-555741,0,2.0
Sr12Ge8P16,0.8827649999999999,,,0,1.0
LiPRu2,0.0,2.402424457282269,mp-1096601,0,0.0
K4Ge9O20,3.0665,-2.17915325890909,mp-30962,0,4.0
Co4Mo4O16,1.810179,,,0,2.0
Gd4Ti(SeO)4,0.3285,-2.977144272516025,mp-554519,0,0.0
Na3LaZrSi2SO12,3.724599999999999,-2.902150406165231,mp-2714505,0,5.0
Ga2CoN3,0.0,-0.197910937916667,mp-1245747,0,0.0
NaTeH12(CO)3,2.0311,-0.628778091777298,mp-558463,0,3.0
YAl4Ni,0.0,-0.5498965866666651,mp-3602,0,0.0
Eu(Sb3Os)4,0.0,-0.248074940294117,mp-640956,0,0.0
MgNiBi,0.0,-0.190246501666669,mp-29733,0,0.0
ScSnPt,0.0,-1.001755710555556,mp-18198,0,0.0
MnVGaCo,0.0,-0.300802195732758,mp-1190398,0,0.0
Y2CuTe2(SO7)2,0.879,-2.270457513730158,mp-1190208,0,1.0
K2CuH12(SeO7)2,0.7578,-1.354456001909274,mp-554335,0,1.0
Mn2InCu4Sn,0.0,0.07454132536843,mp-1221859,0,0.0
Rb8Tl11,0.0,-0.120511559035092,mp-542781,0,0.0
Y2MgNb2O8,0.269499999999999,-3.190663020384614,mp-2242160,0,0.0
LiLuF2,0.0,-2.547093742222221,mp-1211015,0,0.0
VCdCu3Se4,0.0,-0.480463387708333,mp-1178806,0,0.0
Eu3SbO7,0.0,-2.869598592727273,mp-1190831,0,0.0