formula,bg,formation_energy,mp-id,fidelity,bg_category
H4C6O,2.923699999999999,-0.221896368636365,mp-995204,0,4.0
Tm2NiOs,0.0,-0.383494925000001,mp-865368,0,0.0
ReMoC2,0.0,0.521032658125001,mp-1219523,0,0.0
ErU,0.0,0.429009579999998,mp-1184350,0,0.0
I4As4F48,0.680582,,,0,1.0
PmRuO3,0.0,-2.186149372499999,mp-983513,0,0.0
Si9Ni25,0.0,-0.438077467205881,mp-1209041,0,0.0
Na4C8O8,2.463194,,,0,3.0
ZnFeS2,0.0,-0.7023406737500001,mp-1215469,0,0.0
NaMg14TiO16,0.4659,-2.9652116863972693,mp-1034101,0,0.0
Rb8In4S10,2.013885,,,0,3.0
LiDy2Tc,0.0,-0.045281677395838,mp-862588,0,0.0
TlSbAs2PbS6,1.4503,-0.553582197348484,mp-1208201,0,2.0
Ba4As3,0.0,-1.046557892499999,mp-1214488,0,0.0
Cu2H4C4N3O,0.0,0.299386118392857,mp-686268,0,0.0
GdCuSn,0.0,-0.625907560000001,mp-21436,0,0.0
TmCoSi,0.0,-0.72735799416667,mp-1102633,0,0.0
GdSnRh2,0.0,0.56503649125,mp-866089,0,0.0
Nd4MgTa4Ti4O24,0.0,-3.526500644261261,mp-1234296,0,0.0
SrEuHg2,0.0,-0.527108090000005,mp-1100769,0,0.0
BaGaGeH,0.0661,-0.5332795509375,mp-1018095,0,0.0
NaY(Te2O5)2,3.065,-2.013630201752874,mp-1195227,0,4.0
Na2ScHgF6,0.0,-2.855925310583337,mp-1111062,0,0.0
Lu2B6Os,0.0,-0.7195976162037031,mp-1199915,0,0.0
YbPt3,0.0,-1.184153733750001,mp-300,0,0.0
K2U(Si2O5)3,0.016,-3.1945012614375,mp-1195515,0,0.0
CaInRh,0.0,-0.612339487499999,mp-20220,0,0.0
KNd(SnO3)2,1.1914999999999991,-2.354517174475,mp-1519724,0,1.0
BiAsPd6,0.0,-0.2147606793749999,mp-1227409,0,0.0
YBiRu2O7,0.0,-2.056801979545454,mp-1215989,0,0.0
Rb2LaF5,6.3647,-3.73628018125,mp-1209616,0,7.0
Rb2LiInCl6,2.8282,-1.9803788034999992,mp-989583,0,4.0
Si5Rh4,0.0,-0.760410692222219,mp-568792,0,0.0
YF3,7.545699999999999,-4.469034024375,mp-2416,0,7.0
Sm6Ta2Ti4O21,0.0,-3.662666607060607,mp-1219194,0,0.0
Ho7Rh3,0.0,-0.620573199999996,mp-1106336,0,0.0
Ba3Nb2CdO9,2.8138,-3.019409024333334,mp-1214502,0,4.0
Cs4O16C8H4,2.331575,,,0,3.0
ThCrB4,0.0,-0.5649598474999991,mp-22528,0,0.0
NaHf3MgP3(SO8)3,4.4106,-2.850848397699272,mp-2716357,0,7.0
LaBN2,2.172799999999999,-1.605943394583332,mp-29597,0,3.0
NaAlPO4F,5.4354,-3.083286763252771,mp-8678,0,7.0
Pr2CBr,0.0,-1.001755945833332,mp-568066,0,0.0
LiErAu2,0.0,-0.7798675875000001,mp-862599,0,0.0
NaNb3(TeO4)4,2.1321,-2.233152925543582,mp-559336,0,3.0
Li7CuO4,2.2488,-1.8113065227777772,mp-780217,0,3.0
NdHoFe14B,0.0,-0.076952858039215,mp-1220477,0,0.0
Sc2TlC,0.0,-0.6224958462499971,mp-13071,0,0.0
Tb3Ni,0.0,-0.234536608124997,mp-623751,0,0.0
Ba2As2Se5,1.155,-1.294868916857641,mp-28348,0,1.0
AsAu3,0.0,0.150763255000001,mp-984353,0,0.0
Ga2PbS4,2.2715,-0.9529603046428552,mp-1196984,0,3.0
TiAlCu,0.0,-0.329200258055556,mp-1217214,0,0.0
Mo4Se4Cl20S8,2.010366,,,0,3.0
Dy(Ni2As)2,0.0,-0.624940569523809,mp-11340,0,0.0
Ba4Sb2O9,2.8294,-2.649286959666665,mp-801028,0,4.0
FeS4Br4N5,0.811099999999999,0.182866634285715,mp-731744,0,1.0
CrGa4,0.0,-0.104997613999999,mp-1070544,0,0.0
AgH8C2S2N4Cl,0.0,-0.452294893425926,mp-1202929,0,0.0
Tb3Te,0.0,-0.5492055075000011,mp-1187309,0,0.0
TmMgAg,0.0,-0.251416111111114,mp-1206263,0,0.0
LiCuH4Cl3O2,0.4198,-1.3246097580303031,mp-722280,0,0.0
Nd2Si3Ni,0.0,-0.6752251774999991,mp-1220388,0,0.0
La3Ni2Sn7,0.0,-0.6441747683333381,mp-13093,0,0.0
PrS2NO12,0.0,-0.595338584947916,mp-1210798,0,0.0
Rb2GaAuF6,0.7904,-2.511523400249999,mp-1110591,0,1.0
NbSbF10,4.3644,-2.979953557083334,mp-27472,0,6.0
Tm2HgOs,0.0,-0.411117404374998,mp-865340,0,0.0
NaH5SO4,4.0396,-1.410845710693573,mp-540554,0,6.0
Na4Zr2Nb2Si5SO24,2.5691,-2.991857756395192,mp-2715077,0,4.0
Ag9(SI)4,0.0,-0.206386471470586,mp-676430,0,0.0
NaLiZnS2,1.8297999999999992,-1.267659303942527,mp-1220972,0,2.0
YbPO4,0.0,-3.372331683829365,mp-4179,0,0.0
V4O10Na2,0.0957819999999999,,,0,0.0
AgBiTeSe,0.0,-0.191390204765625,mp-1229083,0,0.0
Dy2NbGaO7,1.8804999999999992,-3.310342327803028,mp-1225329,0,2.0
Gd3ReO8,1.643199999999999,-3.269572775416667,mp-30137,0,2.0
Na3UF8,0.0,-3.461805859583334,mp-864913,0,0.0
Nd17Au36,0.0,-0.7675254248584901,mp-567586,0,0.0
LiYHg2,0.0,-0.505823462916669,mp-867810,0,0.0
Pr3Ga,0.0,-0.266905816249998,mp-11406,0,0.0
Li9Sb3S,0.041399999999999,-0.7600440034615381,mp-767516,0,0.0
LiSiO3,0.0,-2.394241709666666,mp-1185414,0,0.0
LiCd2In,0.0,0.8255630465000021,mp-1097218,0,0.0
KRb2NbF6,0.0,-2.987359461224999,mp-1113891,0,0.0
Na2Nb4Zn4Si3(S3O16)3,0.9095,-2.241482796194171,mp-2716320,0,1.0
TlAg3S2,0.9032999999999992,-0.284645771805555,mp-4762,0,1.0
Ba2TmTaO6,3.4065,-3.612670555733333,mp-1206029,0,5.0
Fe4C,0.0,0.133001996,mp-1078579,0,0.0
Sr4Bi11,0.0,-0.292741316000001,mp-1218680,0,0.0
K3AlF6,6.431000000000001,-3.420461138174996,mp-1201513,0,7.0
Mn4Te3N2,0.0509,-0.369106480395114,mp-1247496,0,0.0
CsLa(SO4)2,4.3402,-2.581556988929597,mp-560260,0,6.0
Si2Pb3O7,2.642199999999999,-2.415327059444444,mp-21767,0,4.0
GaAu(I4N)2,0.0,0.5732214893749991,mp-1202583,0,0.0
Ti2C,0.0,-0.7262925011111101,mp-10721,0,0.0
PuB7IO14,0.0,-2.495848471539853,mp-1196747,0,0.0
Li3SiO4,0.0,-2.525796783125,mp-1211198,0,0.0
CuSiN2,0.0,-0.486753191614582,mp-1246214,0,0.0
ZrSe,0.0,-1.55715228703125,mp-1183040,0,0.0
NaLi4(H2N)5,2.6774,-0.5623296581106321,mp-1221130,0,4.0
Mn7Ni8Sn,0.0,-0.069460618157326,mp-1221903,0,0.0
NaMgPH12O11,0.3617,-1.5603902885008512,mp-703517,0,0.0
Sm2MgIn,0.0,-0.320705070416666,mp-1187179,0,0.0
LiDySn,0.0044,-0.645973769166664,mp-1192210,0,0.0
NaGa(GeO3)2,2.6524,-2.17340680838793,mp-1020596,0,4.0
La2SnS5,0.0,-1.771116159882812,mp-12170,0,0.0
ErNiGe2,0.0,-0.6914187406249991,mp-582572,0,0.0
PuAlNi,0.0,0.299807282638893,mp-1080177,0,0.0
LiInRh,0.0,-0.420134720555554,mp-1207156,0,0.0
Nd2Co3,0.0,-0.017783496999999,mp-1084826,0,0.0
Mg14CdCu,0.0,0.028757575625,mp-1026877,0,0.0
AuCl4O3,0.0956,0.120228591874999,mp-1195965,0,0.0
Zr6Co16Ge7,0.0,-0.42104192586207,mp-672654,0,0.0
MgNi3C,0.0,-0.129826543999999,mp-10700,0,0.0
SrN2,0.0,-0.623243369166668,mp-10564,0,0.0
Fe16O24,1.004526,,,0,1.0
Ce2Fe17H3,0.0,-0.070726712443181,mp-1190701,0,0.0
LiIrF6,0.0,-2.024642520833334,mp-11172,0,0.0
AlH6ClO4,5.1309000000000005,-1.694250019791666,mp-1190676,0,7.0
Ba6Pr2Ga4O15,3.657999999999999,-2.9313484045679012,mp-1214591,0,5.0
Na7Al2Ga2SiP5O24,4.0809,-2.718231678565923,mp-2715525,0,6.0
Nb3I8,0.0677,-0.797843850000002,mp-27772,0,0.0
Na3U6GaF30,0.2519,-3.737880582790948,mp-1195790,0,0.0
Cs3GeAsSe5,1.842499999999999,-1.025787790068427,mp-582708,0,2.0
Na4NbAl3(PO4)6,2.3175,-2.893843632983537,mp-2713245,0,3.0
N20H20,4.298469,,,0,6.0
ThGa3,0.0,-0.5706963837499971,mp-865450,0,0.0
BaMgCu3O4,0.0,-1.608058458333332,mp-2222792,0,0.0
Rb18I6O6,0.572152,,,0,0.0
Sc4NCl6,0.0,-2.32578594,mp-23414,0,0.0
SrU2(AsO10)2,0.0,-1.474077129799999,mp-1198396,0,0.0
La4CdRu,0.0,-0.295602855,mp-570820,0,0.0
Nd3(BN2)2,0.0,-1.527090516944443,mp-29588,0,0.0
NpCdPt2,0.0,-0.228259987187499,mp-864787,0,0.0
ErF3,7.6163,-4.498629927083332,mp-9371,0,7.0
Nb3Si,0.0,-0.469220244374998,mp-17848,0,0.0
K2In2P2HO10,0.1349,-2.275937950639356,mp-733854,0,0.0
SmDyFe17,0.0,0.008907445438597,mp-1219083,0,0.0
Ta3Sb(PO4)6,2.2733,-2.866042717054636,mp-1218132,0,3.0
VCo,0.0,-0.149045140000001,mp-1002109,0,0.0
In2Si2Te6,0.463051,,,0,0.0
K3Ta3B2O12,2.662993,,,0,4.0
Lu2Te2Co1S2O14,2.929829,,,0,4.0
CaH8C2N4O5,4.982,-1.109231097500001,mp-1201531,0,7.0
Fe7W6,0.0,-0.016129649999999,mp-1473,0,0.0
Tb20In40Rh19,0.0,-0.593164576835441,mp-1217876,0,0.0
RbY(TeO3)2,3.1745,-2.302052576083333,mp-1194706,0,5.0
Dy2TlHg,0.0,-0.519289754375002,mp-1184105,0,0.0
Sr2ScF7,6.369300000000001,-4.241399934749999,mp-14926,0,7.0
CdPNO5,2.375099999999999,-1.672777752455357,mp-725997,0,3.0
Nb2RePd,0.0,3.805950199375001,mp-1095836,0,0.0
La2(GeO3)3,3.091,-2.825423223928571,mp-703350,0,4.0
ZnS2(NO2)4,0.169299999999999,-1.097007789666667,mp-1178614,0,0.0
Ba2LaCu2HgO7,0.0,-2.075272398653846,mp-1214663,0,0.0
Na7CaNb3(SiO4)6,1.9058,-2.912831513650126,mp-2712957,0,3.0
Th4P6PbO24,4.4866,-3.30804156565306,mp-1217448,0,7.0
Yb2FeS4,0.0,-1.778166285892855,mp-5643,0,0.0
Tb2Si5Ir3,0.0,-0.9507090128333332,mp-1187284,0,0.0
Ba3(PSe4)2,1.1278,-1.375478198502747,mp-571415,0,1.0
Zr2(V2Sb3)3,0.0,-0.334597183676468,mp-29785,0,0.0
Mg2RuN3,0.0,-0.414379735,mp-1246569,0,0.0
PrRhC2,0.0,-0.252393080416666,mp-999287,0,0.0
K4Ni2P4,1.412292,,,0,2.0
Sr3LaBr9,2.9842999999999993,-2.464118832884615,mp-771955,0,4.0
Sc2CrB2Rh5,0.0,-0.6789291108333311,mp-542021,0,0.0
CaMg6Mo,0.0,0.18829778,mp-1023161,0,0.0
K2TcF6,1.7181,-2.83393911883333,mp-1091363,0,2.0
Mo2O2Cl8,1.263702,,,0,2.0
Na4Al3Si3B(HO3)4,4.9487000000000005,-2.570640312951254,mp-694981,0,7.0
NaCa9Mg(PO4)7,5.1723,-3.274630549106071,mp-9467,0,7.0
Ca2(ZnAu3)3,0.0,-0.450363405000001,mp-1227416,0,0.0
BaSr3(SnO3)4,1.228599999999999,-2.603740592999999,mp-1227795,0,1.0
Rb2FeI4,0.0139,-1.143363469285714,mp-568928,0,0.0
K2LiGaF6,6.1271,-3.104614807533333,mp-1111112,0,7.0
ZrUCN,0.0,-1.2739842396875,mp-1215199,0,0.0
Li2ZrCuO4,0.0,-2.445841007083332,mp-754213,0,0.0
In2Zn2S5,0.256671,,,0,0.0
GdThO3,0.0,-3.137951190999999,mp-1184491,0,0.0
La2AgOs,0.0,1.867419972083332,mp-1095967,0,0.0
AcZn2In,0.0,-0.416209142760422,mp-1183190,0,0.0
LiEuO3,0.0,-1.989367384666667,mp-1185344,0,0.0
Na2LuPCO7,4.5459,-2.7795373032556783,mp-767562,0,7.0
Cs4Ga3FeS8,0.538099999999999,-1.214107412570042,mp-1226418,0,0.0
DyAlCo4,0.0,-0.234686736944444,mp-1225308,0,0.0
La6Al3Fe11,0.0,-0.121115257499999,mp-1223390,0,0.0
Hg3Au,0.0,0.115798553229168,mp-973626,0,0.0
K4Pb4P4S16,2.392197,,,0,3.0
CsPH3O3F,6.4259,-1.94040505283867,mp-574928,0,7.0
Co2SbTe,0.0,-0.255921439166666,mp-35189,0,0.0
Pr4(FeB2)3,0.0,-0.261313853205128,mp-1104305,0,0.0
NaCa3RuO6,0.439,-2.569328564216301,mp-6281,0,0.0
TmAl,0.0,-0.470790372500001,mp-16721,0,0.0
Ca2Bi10O17,1.5480999999999991,-1.817621099827587,mp-677291,0,2.0
CdCu3NiSe4,0.0,-0.371385628819443,mp-1181879,0,0.0
K2NdPCO7,4.328699999999999,-2.75328594305357,mp-772835,0,6.0
MgTiH4,0.0,-0.380426968888889,mp-1077185,0,0.0
Na6Ti3ZnSi2(PO6)4,2.129499999999999,-2.8547140635045163,mp-2715325,0,3.0
Tm3Fe2Ge3,0.0,-0.620004861875002,mp-1208100,0,0.0
Sb4Br4Mn4S8,1.653829,,,0,2.0
Ba2ClF3,5.7361,-3.8213447158333342,mp-1018650,0,7.0
Er12Co7,0.0,-0.202081798421051,mp-30970,0,0.0
YbNbO3,0.0,-2.422019406250001,mp-1187578,0,0.0
HOs3,0.0,0.938164963749997,mp-1184598,0,0.0
BeNbOs2,0.0,3.81393899875,mp-1095938,0,0.0
Pb8Pt4O16,0.0,,,0,0.0
BaZn3P4(H7O9)2,0.0,-1.664410225526786,mp-723480,0,0.0
Ba2HoMgNbO6,0.0,-2.844757603636363,mp-2217913,0,0.0
BaPuO3,0.0,-3.34406189474999,mp-505025,0,0.0
Li8TeO6,2.6749,-1.969396036222222,mp-760690,0,4.0
Sr3Sc2N4,1.714699999999999,-1.203431553333333,mp-1246980,0,2.0
CePmTl2,0.0,-0.475523181874997,mp-983551,0,0.0
Sm2TlCd,0.0,-0.347928643333333,mp-867191,0,0.0
Rh3(PbSe)2,0.0,-0.382736006874998,mp-1077854,0,0.0
Pd1Se2O8Na2,1.713706,,,0,2.0
Pr2Co16Cu,0.0,0.006495197916655,mp-1219957,0,0.0
LiDy2Cl5,0.1485,-2.000920411458333,mp-28068,0,0.0
SrAl9Ni2,0.0,-0.372340575833336,mp-1103130,0,0.0
KCa4Si8O28F,0.2732,-2.384455678982143,mp-1181193,0,0.0
Rb2RhF6,0.0,-2.491937804999998,mp-22214,0,0.0
Mg2Si2O5,1.653399999999999,-2.451927216111112,mp-1185778,0,2.0
Mg5(Si8Pt5)2,0.0,-0.5579494953225811,mp-30324,0,0.0
Li(SeO3)2,0.295099999999999,-1.216014720891203,mp-726416,0,0.0
NaTbSe2,1.839,-1.931277130683368,mp-999127,0,2.0
Dy5(ReO6)2,0.0,-3.354670727017543,mp-1225661,0,0.0
Re3Sn,0.0,0.5487435850000041,mp-974426,0,0.0
CaTbF6,0.0,-3.784435634062499,mp-20154,0,0.0
ZrGaRh,0.0,-0.8235517869444461,mp-1078756,0,0.0
Pr2Se3O16,0.133199999999999,-1.206536090136408,mp-1200382,0,0.0
NaDyP2H2CO7,0.458099999999999,-2.072031154630834,mp-1204537,0,0.0
Yb3N2,0.3418,-1.5074439315,mp-864675,0,0.0
DyHoIr2,0.0,-0.8447974666666621,mp-984768,0,0.0
Mg6CrFe,0.0,0.3011869525,mp-1022208,0,0.0
Cu2Se,0.076299999999999,-0.075607576145832,mp-1097707,0,0.0
AgGe2N3,0.5654,0.019035748055555,mp-1245460,0,0.0
CdSb,0.020099999999999,-0.095869849374999,mp-1321,0,0.0
Sm2Cr2Fe15,0.0,0.043933924210527,mp-3890,0,0.0
V2H,0.0,-0.170647656249999,mp-642659,0,0.0
RbSmTe2,1.316399999999999,-1.609176243958335,mp-999269,0,2.0
PC18F17,3.5637,-0.8931861542493351,mp-1210382,0,5.0
Rb2U3(TeO7)2,1.851299999999999,-2.872551534206348,mp-542501,0,2.0
Xe4O12,1.346198,,,0,2.0
Li2CuSiO4,0.0,-2.343638917708333,mp-758311,0,0.0
Eu2BBrN2,0.0,-1.598976852361113,mp-1077381,0,0.0
Tm5Ru2,0.0,-0.404191932857148,mp-1104150,0,0.0
Pr3Cu,0.0,0.154553797708331,mp-975642,0,0.0
Rb4CdBr6,3.189899999999999,-1.823142556363636,mp-28315,0,5.0
K3P5RuSe10,1.0744,-0.7701869475474611,mp-568011,0,1.0
HfMg15,0.0,0.0712011403125,mp-1023478,0,0.0
Ti(ZnN)4,0.0,-0.404022155925926,mp-1246954,0,0.0
Cs6OsN4,0.0584,-0.102015940637412,mp-1247513,0,0.0
Hf3Bi,0.0,-0.070508909583338,mp-976419,0,0.0
Os3C8(SO4)2,1.7215,-0.9478513033928572,mp-679948,0,2.0
P2H10SN6,4.0112,-0.5085367440413521,mp-1202324,0,6.0
Na14Mg4Zn4Si3(S3O16)3,2.9391,-2.265035135326956,mp-2714554,0,4.0
RbMnCu3Se4,0.1044,-0.5272647594228921,mp-1179714,0,0.0
LaYbAg2,0.0,-0.288859117499999,mp-865811,0,0.0
CeTl2P2S7,0.232899999999999,-1.018705782162698,mp-638100,0,0.0
CeNiB4,0.0,-0.5843726744444431,mp-1191074,0,0.0
Y2PtPb,0.1086,1.5612190925000031,mp-1096689,0,0.0
Ga4Mn2S8,0.0,,,0,0.0
Pr4In5Cu19,0.0,-0.229726161398815,mp-1220295,0,0.0
MnTc2Sb,0.0,-0.110705578620688,mp-1186002,0,0.0
Se4Al2Mg1,1.048442,,,0,1.0
CeFeCo,0.0,-0.152310708333331,mp-1226668,0,0.0
Na6Ca4Si3Sn4(S3O16)3,1.173299999999999,-2.320492536023999,mp-2713758,0,1.0
Ce2Ge5Rh3,0.0,-0.8052210899999991,mp-1106369,0,0.0
Li2ZnCd,0.675999999999999,0.8052619929166651,mp-1096253,0,1.0
Yb2NiSb2,0.0,-1.078621249999997,mp-1215858,0,0.0
Cs2NaNF6,2.797399999999999,-1.797923644568965,mp-989527,0,4.0
Tl2Fe3Se4,0.0,-0.428789075115741,mp-1101014,0,0.0
NaLaScSbO6,3.311199999999999,-2.992124237637931,mp-1220803,0,5.0
DyLuMg2,0.0,-0.04306361208333,mp-866295,0,0.0
Mg6SiW,0.0,0.26407178875,mp-1017367,0,0.0
Li5(Cu2P3)2,0.0,-0.5213463907460311,mp-865734,0,0.0
EuCo9Si2,0.0,-0.18181848083334,mp-1192337,0,0.0
Al3Cu2,0.0,-0.195314849999999,mp-10886,0,0.0
K2SiF6,7.1895,-3.428395247722219,mp-13002,0,7.0
RbGeSbO5,2.177699999999999,-2.10033013796875,mp-6639,0,3.0
DyGa3(BO3)4,4.4185,-2.784707502541667,mp-1212835,0,7.0
Al2Si2Pb2O9,2.824899999999999,-2.874237976666667,mp-561246,0,4.0
GaMo4CS8,0.0,-0.5523500594642851,mp-15862,0,0.0
KGaS2,2.9211,-1.292719006499997,mp-17650,0,4.0
Ac3Np,0.0,0.461717105937495,mp-1183280,0,0.0
CsIn(PO3)4,4.3152,-2.591154096429256,mp-16464,0,6.0
PrNiSb2,0.0,-0.8228185141666661,mp-1080568,0,0.0
Cs2IrF6,0.077699999999999,-2.396600496666666,mp-572797,0,0.0
Cs(SbS2)2,1.4413,-0.615817549464286,mp-8890,0,2.0
Ru4F16O4,0.968079,,,0,1.0
Ho4Ga12Pt,0.0,-0.615823419411762,mp-1212255,0,0.0
BaYCuBiO5,0.0,-2.368437550555557,mp-1042214,0,0.0
ZnH20Se2(NO7)2,3.637,-1.141515961017627,mp-24759,0,5.0
K2MgTi2(PS5)2,0.0369,-1.211237983556021,mp-2224737,0,0.0
Na4LaSi2GePO12,1.2857,-2.68317633476953,mp-2716182,0,2.0
Na3Eu2(GeSe3)2,0.0,-1.295274043707725,mp-1210456,0,0.0
Tl2Cd1Sn1Te4,0.115481,,,0,0.0
Mg30TiBO32,0.5093000000000001,-2.906259279257812,mp-1040308,0,0.0
BaYMg6O8,0.223599999999999,-2.662373569999999,mp-1032663,0,0.0
YErO3,4.544399999999999,-3.907949494999999,mp-755109,0,7.0
Mg2F4,6.873435,,,0,7.0
MgTi2(PO4)2,0.006099999999999,-2.695860212957875,mp-1044655,0,0.0
EuGa4,0.0,-0.5073272430000031,mp-21884,0,0.0
CeCd2,0.0,-0.331581483333333,mp-866189,0,0.0
Er3Co,0.0,-0.174361510624998,mp-1188770,0,0.0
BiPd6Pb,0.0,-0.263281955625,mp-1227313,0,0.0
U2CrN3,0.0,-1.414389716041663,mp-10247,0,0.0
Nb2(AlGa)3,0.0,-0.4133975112499999,mp-1220675,0,0.0
Nd5CuBi3,0.0,-0.700098558611111,mp-1189755,0,0.0
Zr4S3N2,0.0,-1.72221755361111,mp-1245503,0,0.0
Ca6In4As8,0.176436999999999,,,0,0.0
HoInPd,0.0,-0.8083280338888851,mp-4299,0,0.0
Au4Sb4S16Rb8,1.295344,,,0,2.0
VGaTc2,0.0,-0.304928472499998,mp-865471,0,0.0
Mg(FeS2)4,0.0,-0.750755198076921,mp-1394404,0,0.0
Pt4Ge4S4,0.765952,,,0,1.0
BaPO3F,5.25,-3.284489056190476,mp-1197491,0,7.0
NaCdO2,0.0,-1.293167512844826,mp-754567,0,0.0
PmPrIn2,0.0,-0.621125292291665,mp-1186698,0,0.0
Ba3BiAs,0.0,-0.8243075855,mp-1013563,0,0.0
Ba(SnO2)4,0.0,-1.879435217692307,mp-1047280,0,0.0
CaAu,0.0,-0.8549962350000011,mp-12723,0,0.0
TlCuO2,0.4306,-0.9478048508333352,mp-997042,0,0.0
K3Nb(SO4)4,2.9664,-2.224065158927082,mp-559516,0,4.0
K2Nd2IrO7,0.2913,-2.468049836208333,mp-555717,0,0.0
Sr5Re3ClO15,2.3602,-2.774143396458334,mp-667283,0,3.0
Rb12S16P4,2.814206,,,0,4.0
KCaSmSeO6,2.066599999999999,-2.353657891459375,mp-1523349,0,3.0
NaCa4(BO3)3,4.0868,-3.146121006698783,mp-554240,0,6.0
K8Cd4O8,1.331884,,,0,2.0
Zn3H24C4Se5(N4O5)3,4.267799999999999,-0.8402238242336311,mp-1198217,0,6.0
Ca7(Si2O5)8,0.7426,-3.265610745555555,mp-1203093,0,1.0
EuMgSi,0.0,-0.414819040833338,mp-1102652,0,0.0
Y9Lu3Al20O48,4.5394,-3.686752151125,mp-1216268,0,7.0
U2O5F8,0.5118,-2.6742971431666662,mp-1179411,0,0.0
Rb2Au2Br6,0.5973400000000001,,,0,0.0
Cs19(W2N5)6,0.0,-0.66844146120407,mp-1228320,0,0.0
TiBeO3,0.0,-2.312304958666666,mp-1187465,0,0.0
Rb4Br2O1,0.481838,,,0,0.0
Li5BiO5,1.3597,-1.948860575606061,mp-29365,0,2.0
Co3Pt,0.0,-0.0757368437499999,mp-865193,0,0.0
CsRb2AlCl6,4.4662,-2.120574464465517,mp-1111710,0,7.0
LiCa2Al,0.0,-0.158353436666667,mp-862632,0,0.0
Sb4O5F2,3.0517,-1.971858786363635,mp-753445,0,4.0
Dy2In,0.0,-0.481883855000001,mp-21351,0,0.0
CdHgSBr,0.0,-0.476919220625,mp-1188137,0,0.0
CeHfF7,0.3565,-4.264207262777769,mp-1213837,0,0.0
Na10Nb2Al6Si7S5O48,2.144,-2.688570699503758,mp-2715965,0,3.0
CrTe4Au,0.0,-0.426834436111112,mp-12743,0,0.0
GaBiS,0.0,0.145146409062505,mp-1213041,0,0.0
Hf2I2N2,0.983919,,,0,1.0
La3Nb8O24,0.0,-3.274476783571429,mp-850556,0,0.0
U(AsO6)2,0.0571,-0.7833754819166661,mp-1204439,0,0.0
NdSBr,2.6382,-2.357365391666667,mp-27180,0,4.0
Ag10O8P2Te2,0.3934169999999999,,,0,0.0
Mo12I36,0.6911600000000001,,,0,1.0
Sr2GdBeO5,0.0,-3.147357455000001,mp-1208913,0,0.0
ZrTe7SeCl6,1.0312,-0.971022730934027,mp-1207516,0,1.0
Al2Cu,0.0,-0.212656983333333,mp-985806,0,0.0
NpBO3,0.0,-2.262327972583333,mp-977058,0,0.0
RbSbS2,1.9492999999999991,-0.9653269774999972,mp-10621,0,3.0
Sr2CeGeO6,2.0483,-3.0996312835,mp-1517419,0,3.0
Tb5Ge4,0.0,-0.993572234166666,mp-1673,0,0.0
Nb2AgPS10,1.1059,-0.8964081025935381,mp-554930,0,1.0
NaAgO3,0.0,-0.406951861609194,mp-1186101,0,0.0
LiC4OF9,6.074199999999999,-1.8670903853888892,mp-1204247,0,7.0
YZnCuP2,0.052799999999999,-0.7645778338571421,mp-1215705,0,0.0
Na2HgS2,2.1799,-0.952342901801726,mp-28858,0,3.0
MnInCuS4,0.0,-0.5421586886761101,mp-1221767,0,0.0
Sn2PClO4,2.570599999999999,-2.139350682455357,mp-555836,0,4.0
LaCuSi2Ni,0.0,-0.6471853549999991,mp-1222926,0,0.0
CdP2H10(NO4)2,4.1723,-1.425713676055899,mp-1197983,0,6.0
Sr4IrO6,0.0,-2.6421329136363623,mp-9039,0,0.0
GaCuGeSe4,0.7335,-0.6582163459821421,mp-1224851,0,1.0
Tb3Pm,0.0,-0.000210759375001,mp-1187308,0,0.0
LiDy2(OF)2,0.0,-3.447886305238094,mp-1235112,0,0.0
SrMg7,0.0,0.055676599888391,mp-1016268,0,0.0
Ag7NO11,0.0,-0.5118082090350791,mp-37695,0,0.0
TaNi3,0.0,-0.327089084958334,mp-569776,0,0.0
Sn2Au,0.0,-0.095483415833337,mp-1462,0,0.0
Nd2Ga2Fe15,0.0,-0.002923916842104,mp-1106126,0,0.0
SrLi4Ca(SiO4)2,5.0666,-3.036285777395833,mp-555089,0,7.0
Nb8F40,4.334248,,,0,6.0
K7VN4,0.217899999999999,-0.0508640472499999,mp-1245353,0,0.0
Rb(InAu2)2,0.0,-0.264514722261904,mp-20804,0,0.0
Cs12In2As6,0.534964,,,0,0.0
NaHf3ZnP3(SO8)3,4.4543,-2.756863064889749,mp-2716520,0,7.0
Mg2PO4F,5.1652000000000005,-3.213282907611607,mp-6095,0,7.0
MnGe2,0.0,-0.034347787643678,mp-1094140,0,0.0
Br16S12N8C4,1.279214,,,0,2.0
Li3Cu4F9,0.0,-2.151931585624998,mp-754095,0,0.0
RbSm(ClO)4,0.0,-1.16713591075,mp-1209421,0,0.0
Gd2InAg,0.0,-0.431605303749996,mp-1224988,0,0.0
BaMg14Zn,0.0,0.083428363125,mp-1028089,0,0.0
Rb2SBrCl6,0.0,-1.16344676575,mp-989518,0,0.0
KAlBr4,4.214399999999999,-1.764494914958331,mp-1211750,0,6.0
PrSmFe4,0.0,0.073528618888888,mp-1219727,0,0.0
TlHg5Br11,2.1763,-0.8463224706372571,mp-1208065,0,3.0
MgTi2ZnO6,3.187699999999999,-3.079953116166667,mp-1221954,0,5.0
Sr2La4Mg2RuO12,0.0,-3.180221284761905,mp-1173268,0,0.0
Ba2MgZn,0.0,1.33993917875,mp-1097603,0,0.0
Mg6CdSiO8,3.5345,-2.461233490624999,mp-1030825,0,5.0
EuInPd,0.0,-0.699862070555555,mp-22322,0,0.0
NbMo3C4,0.0,-0.003878638854168,mp-1220378,0,0.0
ScClO,3.9253,-3.2787202716666672,mp-989195,0,6.0
NaMg14SbO16,3.878999999999999,-2.7849618100431033,mp-1034338,0,6.0
SrCe3,0.0,0.360160884583329,mp-972286,0,0.0
RePt,0.0,-0.021544471249995,mp-1219500,0,0.0