formula,bg,formation_energy,mp-id,fidelity,bg_category
Ce3Tl,0.0,-0.269940165000001,mp-21412,0,0.0
Na8Zr2Al2Si5SO24,3.9816,-2.897844424250822,mp-2715742,0,6.0
La3(CrN3)2,0.0,-1.23174992522727,mp-569565,0,0.0
CaB2H10O,5.4184,-0.5224097177380941,mp-1198143,0,7.0
Li2CeAs2,0.0,-1.159338309666668,mp-8152,0,0.0
NaCaZrNbO6,2.284,-3.159409084137931,mp-1518125,0,3.0
Nd3GaFeSe7,0.1405,-1.591187624283853,mp-1192755,0,0.0
Rb2YAgI6,2.4884999999999993,-1.408657044666666,mp-1110816,0,3.0
La5B3O13,0.0,-3.397070315833335,mp-1211502,0,0.0
Y2Pt,0.0,-1.009406129166668,mp-1102657,0,0.0
Bi4Se4Cl4,1.551204,,,0,2.0
Y2Cu5Ni12,0.0,-0.159969367894736,mp-1198320,0,0.0
NaHoP2O7,5.3517,-3.112327446878637,mp-1203462,0,7.0
Na14La4Ti4Si9(SO16)3,2.2439,-2.888763952583054,mp-2714902,0,3.0
Nb2Ni5Te6,0.0,-0.5352981049999981,mp-1220914,0,0.0
UCrSe3,0.0,-1.144346538406248,mp-1106185,0,0.0
YMnN2,0.0141,-0.939538992214439,mp-1245344,0,0.0
SmYIn2,0.0,-0.6126495375000011,mp-978833,0,0.0
Li3ClO,4.9291,-2.064159397,mp-985585,0,7.0
Al2CdSe4,2.004699999999999,-1.075488398482142,mp-3159,0,3.0
K3GaO3,2.6237,-1.887288735607144,mp-13743,0,4.0
ZrTi4(PbO3)5,2.0719,-2.740167682733332,mp-1215414,0,3.0
K2SnP2O7,4.1651,-2.545925729482141,mp-554825,0,6.0
Hf2Se4Cl24,2.846325,,,0,4.0
SrTe,1.7616,-2.0176923,mp-1958,0,2.0
Y(PPd)2,0.0,-0.921652493857142,mp-1207032,0,0.0
Eu2ZnBi2,0.0,-0.578915138000003,mp-1225393,0,0.0
LiBiCSO7,3.7537,-1.906087325075756,mp-770759,0,5.0
Na2Th(AsO4)2,3.6688,-2.505807026366047,mp-1192524,0,5.0
La(SiOs)2,0.0,-0.7025394449999991,mp-567203,0,0.0
Ti3Se,0.0,-0.578375758085938,mp-1217116,0,0.0
Mo4I4C16O16,0.626755,,,0,0.0
Dy(FeB)2,0.0,-0.436771019999997,mp-568725,0,0.0
Nd2TlAg,0.0,-0.319850047500001,mp-1186256,0,0.0
NaAlTe2,1.2875,-0.823727190000003,mp-10163,0,2.0
Zr5Te6,0.0,-1.037563954090907,mp-29957,0,0.0
LaNi3,0.0,-0.323666344583332,mp-2764,0,0.0
RbMg6Al,0.0,0.2813194928125,mp-1023304,0,0.0
Cu3Si,0.0,-0.0462268525,mp-867317,0,0.0
SrCaS2,2.423199999999999,-2.401079551406249,mp-1218330,0,3.0
V2P4O12H12,2.686545,,,0,4.0
Ba2LaNb5O15,0.0,-3.253384114782608,mp-1228649,0,0.0
Na3LaMg3(SO4)6,4.4478,-2.388752737273999,mp-2714929,0,7.0
NaNb4Si3(PO8)3,2.6558,-2.989108100056416,mp-2714175,0,4.0
CuAsPb2SO9,0.672399999999999,-1.632068392857142,mp-1213421,0,1.0
Ca4Cu4Ge8O24,1.878981,,,0,2.0
OsO2,0.0,-1.343400869999998,mp-996,0,0.0
Al12W,0.0,-0.072104121538459,mp-11227,0,0.0
DyThN2,0.0,-1.869779008124993,mp-1225519,0,0.0
SrPH10S3O5,3.266,-1.294515614482142,mp-1201697,0,5.0
La2C(NO)2,1.9623,-1.81142807357143,mp-1223241,0,3.0
B11H10SI,3.4062,-0.272871323188404,mp-1203795,0,5.0
Cd2S3(NO6)2,0.0,-0.894016287105263,mp-733551,0,0.0
Ca2Nb4P6(SO12)3,2.467,-2.699345423242297,mp-2713504,0,3.0
Dy3Co29(Si2B5)2,0.0,-0.399673991340579,mp-758934,0,0.0
ErPRu2C,0.0,-0.6702185359285651,mp-1205587,0,0.0
ScGa(SO4)3,3.8455,-2.246705246960785,mp-2713794,0,6.0
SrPrAl3O7,4.2972,-3.550316002222221,mp-1218014,0,6.0
Zr4NbGa3,0.0,-0.584997028749999,mp-1105702,0,0.0
Ba2Tm2Zn8O13,1.621299999999999,-2.394862740600001,mp-1228595,0,2.0
SrGaH5,3.3941,-0.338492205178571,mp-1192424,0,5.0
Zn2H24C12Br7O6,2.282299999999999,-0.449574180784313,mp-1195346,0,3.0
LiLa3,0.0,0.144942230416663,mp-973415,0,0.0
NaMgAlH18(C2O7)3,3.5644,-1.594209957094707,mp-1198421,0,5.0
Rb3Bi2S2(ClO2)5,1.1148,-1.6077196255681812,mp-729342,0,1.0
K6ZnSe4,1.6517,-1.239638240715908,mp-1147626,0,2.0
Sm(ErSe2)3,0.8068999999999991,-2.1723017229374992,mp-13282,0,1.0
Co3ReB4,0.0,-0.2340641343125,mp-1226435,0,0.0
Zn3CdSe4,0.9315,-0.9103523349218752,mp-1079034,0,1.0
Sc2NiPt,0.0,-0.8843554249999991,mp-862368,0,0.0
YZrRu2,0.0,-0.455289484999999,mp-866159,0,0.0
Mo6OsRu,0.0,0.018155627166663,mp-1221468,0,0.0
Li2MgTi9O20,2.7058,-3.385399147864584,mp-1222757,0,4.0
Bi2Ag2P4S12,1.166888,,,0,1.0
Fe6BP,0.0,-0.265287384226189,mp-1225034,0,0.0
Ce2Ga10Pd,0.0,-0.468068704230769,mp-12746,0,0.0
SrC4(O2F3)2,4.5786,-2.094719646111111,mp-1194723,0,7.0
BaSn2Bi,0.0,-0.4584359881249999,mp-1227803,0,0.0
Cs2MoBr6,0.0,-1.516381913256704,mp-1207229,0,0.0
KMgH(CO5)2,9.9999999999989e-05,-1.123918017566667,mp-1211898,0,0.0
Sr2LiSiN3,0.0,-0.989982853333332,mp-1218778,0,0.0
Rb3BN2,1.2192,-0.470694391111112,mp-1247386,0,1.0
MnFeCoGe,0.0,-0.172998520732758,mp-1018024,0,0.0
Ni2Ga4Cl16,3.203275,,,0,5.0
VS4N3,0.3596,1.7191495828125,mp-1203341,0,0.0
PaGaPt2,0.0,-0.791950396875,mp-1186396,0,0.0
CaSc2O4,3.457999999999999,-3.783688220714285,mp-4056,0,5.0
In4P2O10,2.026106,,,0,3.0
Sr4HfTi3O12,0.0001,-3.5978766634999992,mp-1218423,0,0.0
Ca1Zn2As2,0.712168,,,0,1.0
CuI2,0.0,-0.160968143333333,mp-1147667,0,0.0
In4S4,0.927191,,,0,1.0
Zn2Ge2O6,2.577722,,,0,4.0
Li14P2(N2O)3,3.601799999999999,-1.314420231638095,mp-1020011,0,5.0
U2Si5Tc3,0.0,-0.513831194130853,mp-21620,0,0.0
FeCu6GeS8,0.0,-0.555414216562499,mp-1225017,0,0.0
Tb(Al2Cr)4,0.0,-0.210935688974359,mp-1104540,0,0.0
Na4Hf2(SiO4)3,4.179699999999999,-3.184035271373837,mp-2716478,0,6.0
YVFe11H,0.0,-0.091001650089286,mp-1215830,0,0.0
NaSr2Ca,0.0,1.238242432528734,mp-1097635,0,0.0
BaGaH4,0.0,-0.236458077916667,mp-1182080,0,0.0
Al8Mo3,0.0,-0.381623915454546,mp-2733,0,0.0
LiHfHg2,0.0502,1.6123970448958291,mp-1097465,0,0.0
Ca5(TiN3)2,1.7929,-1.330304097820512,mp-1247343,0,2.0
LiSb3(P3O10)2,2.866499999999999,-2.356143440373015,mp-762248,0,4.0
Na2Nb6In2Si7S5O48,1.8697,-2.629484474527505,mp-2715782,0,2.0
K2GeSe4,1.7939,-1.016514824839289,mp-29022,0,2.0
Mn2ZnS4,0.0,-0.9183119237042492,mp-1104162,0,0.0
Dy3Se4O12F,3.741099999999999,-2.483394327718746,mp-555217,0,5.0
Tb(SiPt)2,0.0,-1.113413916000001,mp-569737,0,0.0
LuAl2Ni,0.0,-0.6974564229166641,mp-1025389,0,0.0
Eu3Mg,0.0,0.001353034999995,mp-1184342,0,0.0
CeBrO,0.0,-3.227982858333332,mp-754112,0,0.0
CeEu2ZrO6,0.067699999999999,-3.560849031250001,mp-1521539,0,0.0
Eu4Br6O,0.8538000000000001,-2.567701471363641,mp-559031,0,1.0
Cs3CoI5,0.9287,-1.285313343218389,mp-569323,0,1.0
Cr4Cl4O12K4,2.769353,,,0,4.0
CsLaCdTe3,1.730099999999999,-1.366133713275861,mp-12491,0,2.0
La10I18C4,1.409978,,,0,2.0
AlAu3,0.0,-0.199118088749997,mp-1183223,0,0.0
CuSbO4,0.3338,-1.173195239166665,mp-1041001,0,0.0
K4Ba(SiO3)3,4.2288,-2.882499321705883,mp-558347,0,6.0
ZnH9C4NO6,4.447999999999999,-0.965815299940476,mp-1201379,0,7.0
Y2Fe17CN,0.0,-0.124214965238093,mp-1216203,0,0.0
Zn2Y4Se8,0.307747,,,0,0.0
Li6Cu9(PO4)8,0.389599999999999,-2.123253203584415,mp-26303,0,0.0
Fe2O4H2,1.96042,,,0,3.0
Cr4InCuSe8,0.0,-0.7855761346726151,mp-20809,0,0.0
Y2(B2Rh3)3,0.0,-0.6279080167647051,mp-1216181,0,0.0
Er2CuTc,0.0,-0.151292746249996,mp-1184097,0,0.0
InRh,0.0,-0.499603400000001,mp-899,0,0.0
TaAlOs2,0.0,-0.680675936833338,mp-862445,0,0.0
Ba(C4N3)2,3.505099999999999,-0.029124689555555,mp-1245468,0,5.0
PrClO2,0.0,-2.276532652916666,mp-1179810,0,0.0
Sb2Se2Te1,0.539685,,,0,0.0
Na4H6Ru,2.0349,-0.354535263409091,mp-643001,0,3.0
V2(Ni7B2)3,0.0,-0.276274094999999,mp-1207902,0,0.0
La2ScSi2,0.0,-0.751757497999997,mp-1205647,0,0.0
H13S2N3O8,5.302700000000001,-1.156254712740395,mp-757652,0,7.0
Bi3Pd5,0.0,-0.170394602916665,mp-1227388,0,0.0
NdCo9Si2,0.0,-0.255843214791691,mp-1191853,0,0.0
Lu5(Co2Si7)2,0.0,-0.599704332971012,mp-17460,0,0.0
Ce3Sb3Au2,0.0,-0.863673129999997,mp-569941,0,0.0
Pu3Al,0.0,0.192647803281232,mp-20130,0,0.0
Ba2YMgCu3S7,0.0,-1.273160211964285,mp-2228540,0,0.0
Ta2NbRe,0.0,-0.274090649291665,mp-1186767,0,0.0
K2CuPCO7,0.0811,-2.0471636053452382,mp-754351,0,0.0
EuCuSF,0.0733,-2.249085525625,mp-21354,0,0.0
B2Pb2S5,1.7364000000000002,-0.7674925912037031,mp-662553,0,2.0
Ce5Sm2O13,1.316599999999999,-3.875228506749999,mp-753792,0,2.0
Sr3BN3,0.4152,-0.9849508218452392,mp-1029665,0,0.0
NaSn2Cl5,3.0516,-1.311803290625,mp-28947,0,4.0
Si3Ru5,0.0,-0.453373160625002,mp-1105935,0,0.0
K3AsF6,4.3402,-2.750747019925,mp-1111501,0,6.0
ReAs3,0.0,0.583457615833335,mp-1186907,0,0.0
LaF3,6.042899999999999,-4.508268510833333,mp-905,0,7.0
MgClO,0.0,-1.8691385833333332,mp-1222028,0,0.0
TaNiGe,0.0,-0.444626632444444,mp-22636,0,0.0
CdIn2Ga,0.0,1.081729418125,mp-1096341,0,0.0
K2LiScCl6,3.741399999999999,-2.23790182833333,mp-1111932,0,5.0
KSnN3,0.0,1.699245804549999,mp-1079672,0,0.0
Ac3Ag,0.0,0.077761538124995,mp-1183080,0,0.0
DyU3,0.0,0.536941382500003,mp-1184142,0,0.0
ZrN2O9,0.305,-0.782845059166666,mp-1204890,0,0.0
Na14Zr6Zn2Si9(SO16)3,3.2115,-2.814589990916387,mp-2714844,0,5.0
Ga2SiSn2S5O24,1.956999999999999,-1.981913591053922,mp-2713010,0,3.0
K2PuCl6,0.3467,-2.200004475916665,mp-505397,0,0.0
Ta2AlRe,0.0,4.233125543352486,mp-1096286,0,0.0
Na5SnSb3,0.6311,-0.415062769516282,mp-29739,0,1.0
Na3TaIn3P5SO24,3.184,-2.552040428887898,mp-2715825,0,5.0
Y4Mn2Ni2O12,1.719336,,,0,2.0
S16N20F4,2.395379,,,0,3.0
P6H24N6O19,0.0,-1.394880214597402,mp-730823,0,0.0
Rb3SnP3Se11,0.8838,-0.792165932900544,mp-570167,0,1.0
Si(Hg2Se3)2,0.1443,-0.5111246471875021,mp-18230,0,0.0
SbSe6IF6,1.5285000000000002,-1.404785815290178,mp-559000,0,2.0
Nb4FeS8,0.0,-1.323789466923077,mp-1193686,0,0.0
Eu(Sb3Ru)4,0.0,-0.445885890882354,mp-20855,0,0.0
K2Sn2OF6,0.0,-2.392216663136364,mp-732277,0,0.0
NaU(B2O5)3,0.2873,-2.409133278538231,mp-1201797,0,0.0
Zr4Ir2N,0.0,-1.236054596964282,mp-1193886,0,0.0
Mn3AuN,0.0,-0.316705495064636,mp-1207183,0,0.0
Na2CeH2C5O11,0.2017,-1.965823310012314,mp-1204151,0,0.0
Ba2Si,0.0,-0.290134812500001,mp-9905,0,0.0
TiPb2Se2ClO7F,2.4534,-2.001392863430059,mp-1193369,0,3.0
Cr21(FeC3)2,0.0,-0.048398689999999,mp-1213780,0,0.0
KCaP3H4O11,5.4102000000000015,-2.383245658683928,mp-706367,0,7.0
Ag4Te4O14,0.0,,,0,0.0
ZrCl2,1.0479,-1.87860569,mp-23162,0,1.0
Rb5Pt3(C4O9)3,0.0,-1.362090962712766,mp-1200276,0,0.0
TaInSi(SO6)2,0.9441,-2.355725031607844,mp-2713531,0,1.0
Gd3GaNiSe7,0.0,-1.574523083242188,mp-1191156,0,0.0
NaPrHfNbO6,0.0,-3.217899045304598,mp-1522403,0,0.0
CsMnTe2,0.0,-0.840808900787354,mp-1207341,0,0.0
K3NaFeCl6,0.0,-1.918006570739028,mp-23125,0,0.0
AuN7O9,0.0,0.6784873435294101,mp-1228842,0,0.0
SmInAu,0.0,-0.736517479444444,mp-621351,0,0.0
GdGeRh,0.0,-0.946003355833332,mp-1095527,0,0.0
Rb3Lu(PO4)2,4.6991,-2.9779045284608863,mp-1103735,0,7.0
Er3Al3CoGe2,0.0,-0.7351710099999991,mp-1205920,0,0.0
ErMgZn2,0.0,-0.328422618749999,mp-977433,0,0.0
AsSe2S(NF3)2,1.5718,-1.381299441432291,mp-560986,0,2.0
Au8P12,0.0,,,0,0.0
BaAlGeH,0.7492999999999991,-0.5559276915625,mp-1207108,0,1.0
Er(CoGe)2,0.0,-0.5943035559999981,mp-5497,0,0.0
K3TbCl6,4.6505,-2.309309644624997,mp-1110877,0,7.0
SbSO2F7,3.4888,-2.259452741136363,mp-1197121,0,5.0
Mg2Mn4O8,1.375295,,,0,2.0
Pr2B3Cl,0.0,-0.678438721874217,mp-567730,0,0.0
PrInRh,0.0,-0.672986867222222,mp-20037,0,0.0
Rb3Ti4Tl(PO5)4,2.9233,-2.975287868991816,mp-1219659,0,4.0
Pb2Cu2As2O8,2.056132,,,0,3.0
Bi2Na2O4,0.86826,,,0,1.0
Nd5S4,0.0,-1.9885035487499931,mp-1220205,0,0.0
UPbI6,0.0,-1.018513701250001,mp-1208402,0,0.0
Li4Sb(TeO4)3,0.044299999999999,-1.818285607666666,mp-776021,0,0.0
Ca(SiNi)2,0.0,-0.6166805160000031,mp-5292,0,0.0
Cs2NaTaCl6,0.0,-1.9463033918022992,mp-1111428,0,0.0
BaC2(NO)2,4.5717,-1.5429026683333331,mp-1195678,0,7.0
Sm12(OsC3)5,0.0,-0.433493595624998,mp-1209054,0,0.0
Na4InGaSi2SO12,3.1024,-2.3915517756595532,mp-2714529,0,4.0
Na2Ga4SiS5O24,1.5158,-2.084721088247925,mp-2714573,0,2.0
CsCaF3,6.9005,-3.715830655999998,mp-7104,0,7.0
Fe4Ni5P3,0.0,-0.393320670119046,mp-1225419,0,0.0
Sm(CuGe)2,0.0,-0.530388595000002,mp-13400,0,0.0
S8O16C32,1.1248,,,0,1.0
Ba2GdMgSbO6,1.7200000000000002,-2.629576092272727,mp-2217708,0,2.0
Bi6PtCl10,1.612499999999999,-1.155757506544118,mp-570417,0,2.0
Mg(AgO2)2,0.448099999999999,-1.072082281547618,mp-1047695,0,0.0
Li(NiP)2,0.0,-0.6454539225238091,mp-8310,0,0.0
Ti3Pt5,0.0,-1.026515769999996,mp-30851,0,0.0
Dy2Ga3(Fe7C)2,0.0,-0.146350525515872,mp-1225932,0,0.0
Sr5Pb3F,0.0,-1.288510695000001,mp-1188272,0,0.0
Cs4As6,0.418106,,,0,0.0
Tm3Ru,0.0,-0.367259828750006,mp-1207837,0,0.0
V2CrOs,0.0,-0.324751372499999,mp-865485,0,0.0
Ag2PbO2,1.3818,-0.817315429666662,mp-20210,0,2.0
Sr2U2O7,0.0,-3.660240964090907,mp-1218482,0,0.0
Ce2CN3Cl,0.0,-1.530719484285716,mp-1213870,0,0.0
CsPr2Cl7,4.3786,-2.688033882173851,mp-1213617,0,6.0
Rb1Ru1F6,1.178055,,,0,1.0
KLi2As,0.6878000000000001,-0.581931216604166,mp-28994,0,1.0
Ce1Cs2Cl6,2.088453,,,0,3.0
TmC6(OF)9,0.0834,-1.6533894076,mp-1197080,0,0.0
Na5SbO5,1.653599999999999,-1.841294021990595,mp-759876,0,2.0
SnIrSe2,0.0,0.454572592187489,mp-631308,0,0.0
Mn3Bi,0.0,0.393624719051722,mp-623452,0,0.0
Cr3(GaN2)2,0.0,-0.302466319444445,mp-1245715,0,0.0
TaBi(P2O7)2,3.0778,-2.705841241545221,mp-1218131,0,4.0
Na3Sc2Sn2P5SO24,2.924499999999999,-2.718401294275285,mp-2715990,0,4.0
TeH12(Cl2O3)2,3.3769,-1.22410706768116,mp-707765,0,5.0
Ho11(In3Si2)2,0.0,-0.570038662857138,mp-1199978,0,0.0
Be5Co,0.0,-0.187673225833333,mp-1071690,0,0.0
MgP2(HO)18,0.131499999999999,-1.360993084276557,mp-1210771,0,0.0
ScZn3,0.0,-0.313133792499999,mp-862260,0,0.0
Ti2NiOs,0.0,3.052452493333332,mp-1093952,0,0.0
Mn2Cu2AsP,0.0,-0.066923895500819,mp-1221925,0,0.0
Rb1F1,5.430095,,,0,7.0
Ba4Ge2Pb(Se4Br)2,1.3865,-1.588289575514705,mp-1228759,0,2.0
U2H14S2O19,2.1315,-1.8992323356081071,mp-706594,0,3.0
SbN3Cl4,1.9086,-0.1886126331249999,mp-27351,0,3.0
Tb11Ge10,0.0,-0.971811689047621,mp-1196953,0,0.0
Cs2NaLaCl6,4.6183,-2.399424666499999,mp-1080017,0,7.0
PrInNi,0.0,-0.430599453888892,mp-1079387,0,0.0
Na2H5RuN5O12,2.1254,-1.094561938160344,mp-707508,0,3.0
S6Na4C2,1.186949,,,0,1.0
Na6Al4Si5Sn4S7O48,1.8384,-2.390676356001476,mp-2715986,0,2.0
Ag7Te4,0.0,0.141600593113637,mp-28228,0,0.0
D16Mg4Ni4Sr4,2.073955,,,0,3.0
Y3Pb4F17,5.0725,-3.532225664375,mp-38916,0,7.0
Li2TeO4,2.4198,-1.9498305744047624,mp-13843,0,3.0
NaMg14Sb,0.0,-0.006908083836206,mp-1026659,0,0.0
LiGaSiO4,4.2293,-2.785973274166667,mp-18147,0,6.0
DyHg,0.0,-0.578035626249999,mp-2443,0,0.0
BiPPbO5,3.3519,-2.225278606205357,mp-556878,0,5.0
BaHg2Pb,0.0,-0.430415881250005,mp-864618,0,0.0
Li3UO4,0.378,-2.948547609999998,mp-551675,0,0.0
LaGaNi,0.0,-0.5872798058333341,mp-1102982,0,0.0
Sr2LiMgSi3,0.0,-0.364837629047618,mp-1218749,0,0.0
LiScPt2,0.0,-0.962303979583333,mp-865228,0,0.0
Mg2IrPd,0.0,-0.50694018,mp-1185767,0,0.0
Zn3(InS3)2,0.0,-0.7914362245211061,mp-637614,0,0.0
YbSmCd2,0.0,-0.374056788749999,mp-1187522,0,0.0
KLuO2,3.940399999999999,-3.180326248479166,mp-1178135,0,6.0
TbFe10Mo2N,0.0,-0.132439784404762,mp-1217582,0,0.0
CaMg3,0.0,-0.0463531662499999,mp-1094734,0,0.0
Pr8Sb14Pt17,0.0,-0.8489980822649561,mp-1209768,0,0.0
Hg2As5H6O2F31,2.8459000000000003,-2.151544418586957,mp-1201277,0,4.0
Ga2CoIr,0.0,-0.354782565416663,mp-1184229,0,0.0
Ca3Ta2O8,4.1391,-3.473256686128205,mp-769266,0,6.0
Ba3SrMgNb2O9,0.9994,-2.9184297056250013,mp-2232695,0,1.0
FeSi2Tc,0.0,2.620779531249999,mp-1097398,0,0.0
Cu2IO8,0.0,-0.318026503636364,mp-1190743,0,0.0
KMg2(PO4)2,0.0,-2.783438084733515,mp-1211428,0,0.0
TeMo6,0.0,0.393327624642852,mp-1179059,0,0.0
SmZnCo2,0.0,-0.154215704583333,mp-1208993,0,0.0
W2S6P8O10C10,2.364136,,,0,3.0
Rb4Li(SO4)4,0.0,-1.992940850133332,mp-738389,0,0.0
FeSbPt,0.0,-0.018259020833332,mp-1102707,0,0.0
YbGaPd2,0.0,-0.8867221462499971,mp-865756,0,0.0
Zn5(SiN3)2,1.281499999999999,-0.462914877692307,mp-1246318,0,2.0
Pd1S8K2O26,1.669857,,,0,2.0
Ho3Pb,0.0,-0.240991323749995,mp-973992,0,0.0
CeYAl4,0.0,-0.5124104766666661,mp-1226528,0,0.0
V3As,0.0,-0.5148442456249991,mp-292,0,0.0
Mg149Te,0.1529,-0.000809762744444,mp-1185638,0,0.0
Ga3Bi5Cl12,1.813,-1.229581060875,mp-569854,0,2.0
Pr(ReO4)2,0.0,-2.50389236060606,mp-754632,0,0.0
NaSrEuSeO6,0.0,-2.205103040872306,mp-1518459,0,0.0
KPbBr3O,1.6397,-1.263504963708333,mp-1102208,0,2.0
La(Al2Fe)4,0.0,-0.391193529615384,mp-977054,0,0.0
PH8C2NO2,5.182499999999999,-0.7351747390816321,mp-561521,0,7.0
Ho2MgTiO6,3.226199999999999,-3.703829085833332,mp-1212333,0,5.0
PrCdGa,0.0,-0.5894637327777761,mp-1079448,0,0.0
CsTmZnTe3,1.383899999999999,-1.289688254942528,mp-1103187,0,2.0
Li(Bi3O5)4,0.0,-1.548994611919193,mp-769006,0,0.0
LiGa2Au,0.0074,0.904153043098961,mp-1096393,0,0.0
Yb2C(NO)2,0.0,-2.504269704999996,mp-13041,0,0.0
Ge3W5,0.0,0.189101511250001,mp-1189576,0,0.0
HfMgIr2,0.0,-0.83837989375,mp-865020,0,0.0
TbSiRu2C,0.0,-0.600375370333326,mp-1205603,0,0.0
Y(BIr)2,0.0,-0.735122803666666,mp-14622,0,0.0
Cs2BeO2,3.1264,-2.017852933362068,mp-755292,0,4.0
Ba4Y3F17,6.6616,-4.317373688541667,mp-34578,0,7.0
TlH6(NO4)3,1.8153,-1.006025180946969,mp-696189,0,2.0
Tb(TiGa2)2,0.0,-0.5351393661904761,mp-1025253,0,0.0
ZnH3CNO3,3.6825,-1.26347275486111,mp-604229,0,5.0
Mg54Ag17,0.0,-0.109799734624412,mp-678,0,0.0
Bi6Sb2O14,2.151023,,,0,3.0
Sc7As3,0.0,-0.9860226027499972,mp-1219422,0,0.0
LiCe2O3,0.0,-3.045277483055554,mp-1236294,0,0.0
O4D8,5.235198,,,0,7.0
Ce2MgNb2O8,0.0456,-3.059137788846153,mp-2219864,0,0.0
Ca9Cd4Bi9,0.0,-0.6482595470454551,mp-30446,0,0.0
LaInHg2,0.0,-0.5429520949999961,mp-867979,0,0.0
Ce2CdPd2,0.0,-0.651066946,mp-11965,0,0.0
Tl2SnTe3,0.585499999999999,-0.469369003611112,mp-28662,0,0.0
TlHg2Pb,0.0,0.780573778749996,mp-1096464,0,0.0
CrCdInS4,0.8689999999999991,-0.901640823095236,mp-1226286,0,1.0
Zr5TePb3,0.0,-0.493109521111105,mp-1189342,0,0.0
PuP3,0.0,-0.721506478348217,mp-861511,0,0.0
K6MnS4,1.2969,-1.314099447566614,mp-18244,0,2.0
Mg6TiBi,0.0,0.065917780833332,mp-1021362,0,0.0
Na6Zn3P4H6O19,3.9851,-2.198912545377559,mp-24507,0,6.0
Al3(BRu2)2,0.0,-0.6468797016666671,mp-541849,0,0.0
NdRe3(H2O5)3,3.7822,-2.0351237586,mp-1205210,0,6.0
Pr2(ZnGe2)3,0.0,-0.381105064848484,mp-18209,0,0.0
Na2Np(CO4)2,0.0483,-2.029919944731432,mp-1203886,0,0.0
Dy6H40N8O49,2.9558,-1.5685790026699031,mp-1196453,0,4.0
AlNiPt2,0.0,2.058936860000001,mp-1096407,0,0.0
PmSnAu2,0.0,-0.7305114218750001,mp-862956,0,0.0
Th7Te12,0.0,-1.45078965684211,mp-9521,0,0.0
Ca4LaB3O10,4.3032,-3.379169608472222,mp-6076,0,6.0
Pu3Zn22,0.0,-0.108568658649998,mp-567814,0,0.0
CdH2(CO2)2,4.2235,-1.257492856944444,mp-644265,0,6.0
Er21(In2Rh5)2,0.0,-0.717411724190473,mp-1213466,0,0.0
Li3NdGa8,0.0,-0.415366749041664,mp-1222551,0,0.0
CaB3H3O7,5.9041,-2.495121676875,mp-722262,0,7.0
Sc3Pb,0.0,-0.339607571249999,mp-978531,0,0.0
CaMg14B,0.0,0.168102161611392,mp-1028149,0,0.0
Al2Ce2O6,2.691335999999999,,,0,4.0
Cu2O2,0.0,,,0,0.0
Cs4V6O16,2.046025,,,0,3.0
SmAg2Sn,0.0,-0.387455830833332,mp-862735,0,0.0
Cd3H16C8(N10F)2,2.9772,-0.390664114183673,mp-1214170,0,4.0
Fe3Au,0.0,0.141915145000001,mp-1184272,0,0.0
KUHSeO7,0.0,-1.808938787803976,mp-1211927,0,0.0
Ti4P4O20H4,2.673144,,,0,4.0
RbVH24(SO10)2,0.5364,-1.490365129947916,mp-729050,0,0.0
CsYbF3,7.0604,-3.205172131,mp-8398,0,7.0
W4Co2O16Li4,2.6761500000000003,,,0,4.0
MgMo3(Se2S)2,0.0343,-0.9069696539375012,mp-2239931,0,0.0
AsPOs,0.7610999999999991,-0.409364932658732,mp-1228801,0,1.0
Pr2CdSb4,0.0,-0.841874789047616,mp-1219919,0,0.0
LiAlH8C16(O2F9)4,5.8174,-1.770079505619048,mp-1196128,0,7.0
Ba2Li3TaN4,2.397,-0.9867448322333332,mp-573677,0,3.0
Ti4Si2O17,0.0,-2.215149524166667,mp-1217602,0,0.0
AlBO3,5.8392,-3.118357856833333,mp-8110,0,7.0
ErMgIn,0.0,-0.348407178333332,mp-1205779,0,0.0
LiSc4(Si2O7)2,0.046599999999999,-3.298440050579709,mp-1235717,0,0.0
K2CuSbS3,1.2062,-0.956065839214284,mp-554343,0,1.0
NdPd3,0.0,-0.790976059374998,mp-2333,0,0.0
LiDy2Ir,0.0,-0.57367242166666,mp-861915,0,0.0
Mn2Fe4O8,1.073756,,,0,1.0
ErCo9Si2,0.0,-0.291738758333334,mp-1191958,0,0.0
MgCu(GeO3)2,0.0,-2.028678915999999,mp-1042915,0,0.0
Tb4CdNi,0.0604,-0.281525892361112,mp-1208455,0,0.0
Cs3ZnH5,2.7476,-0.299532800023946,mp-643702,0,4.0
Mn4Rb8O16,0.522373,,,0,0.0
Ba(NO2)2,2.3829,-1.476445576428571,mp-27897,0,3.0
Eu5Sn3H,0.0,-0.7856823581944481,mp-1188090,0,0.0
Ca2ZnHg,0.0,-0.392878973124999,mp-1183464,0,0.0
UCuPO,0.0,-1.712338136160712,mp-20370,0,0.0
La6Cd2Al2S14,2.442212,,,0,3.0
Ho5BiAu2,0.0,-0.806577254374999,mp-1188851,0,0.0
Na5HfMg3P3(SO8)3,3.9095,-2.640253947222012,mp-2714645,0,6.0
WSeS,1.5081,-0.7325418422916711,mp-1216174,0,2.0
SrZnO2,2.0793,-2.43478201625,mp-5637,0,3.0
Ca3Tl,0.0,-0.270518237499999,mp-984744,0,0.0
ScNbRu2,0.0,-0.5343486862499981,mp-867146,0,0.0
MgTi4O8,0.0,-3.336112619871795,mp-2219114,0,0.0
Nd2Zn17,0.0,-0.267603306578961,mp-30711,0,0.0
Ta2CdBi,0.0,0.806676277583335,mp-631451,0,0.0
LuRu,0.0,-0.468460538333335,mp-11495,0,0.0
Zr3Ga5,0.0,-0.677382829374998,mp-1207393,0,0.0
Bi6Rh12O29,0.0141,-1.310978553191489,mp-559631,0,0.0
Cs3SbSe4,1.3871,-1.070998582031251,mp-17811,0,2.0
Nd3Ho,0.0,0.023210206875003,mp-1186276,0,0.0
ZnAu3,0.0,-0.158001659999996,mp-669566,0,0.0