formula,bg,formation_energy,mp-id,fidelity,bg_category
Na2YZr(PO4)3,4.0204,-3.108116102632659,mp-2713324,0,6.0
UZn3,0.0,0.148289248750001,mp-972147,0,0.0
AgAs(XeF5)2,1.4049,-1.604767044940475,mp-557631,0,2.0
Cu6As4O16,1.563949,,,0,2.0
NaZnSn3P3(SO8)3,2.2952,-2.175114571223083,mp-2716305,0,3.0
Nd2Co17N2,0.0,-0.149452122261902,mp-1220610,0,0.0
LiHgPd2,0.0,-0.352852471458333,mp-862737,0,0.0
Y4AlSi2(O2F)5,0.0,-3.60291097159091,mp-1178743,0,0.0
Ho(BO2)3,5.693099999999999,-3.197634458124999,mp-680713,0,7.0
GaFe2Co,0.0,-0.148083434375,mp-1224895,0,0.0
Pm2GeAu,0.0,-0.825982106249998,mp-863684,0,0.0
Zr2(PO4)3,0.0,-3.075247171113444,mp-774483,0,0.0
Sr2MgN2,0.1204,-0.631522443,mp-1246812,0,0.0
Na5Zr2F13,6.1043,-3.5798151235,mp-555272,0,7.0
TaBeO3,0.0,-2.106223181466666,mp-972222,0,0.0
Pr(Sb3Os)4,0.0,-0.239692185980395,mp-4251,0,0.0
Tb2Re3Si5,0.0,-0.557963339833332,mp-1203495,0,0.0
Ga3P6O31,0.0,-0.872814203633928,mp-1199824,0,0.0
SmEuSe2,0.0,-2.211856643281251,mp-1219049,0,0.0
TmPaTc2,0.0,-0.243465782499995,mp-865788,0,0.0
GdAu3C6(N2O)3,0.0,0.196739499473684,mp-1196045,0,0.0
NaAl3(SiO4)3,2.9953000000000003,-2.931882703756807,mp-1220946,0,4.0
HoGaO3,2.883999999999999,-3.168367698833334,mp-769045,0,4.0
Cd1Pt3O6,0.234348,,,0,0.0
SrYbEu2,0.0,0.210120561249997,mp-1186778,0,0.0
LiCu3F10,0.0,-1.744602749404764,mp-759131,0,0.0
Nd2Si3,0.0,-0.679567251999998,mp-1220308,0,0.0
DyMgTiS4,0.0,-1.848260660714284,mp-1246294,0,0.0
Ba6Si4As8,0.8009390000000001,,,0,1.0
Pr23Cd4Ru7,0.0,-0.21551240112745,mp-1197990,0,0.0
BaNb4Bi4PbO18,1.856199999999999,-2.495371262857144,mp-1228636,0,2.0
Tb6IrI10,0.0,-1.506828735294115,mp-1105727,0,0.0
Si(Ni3Se)2,0.0,-0.419839330520833,mp-1219269,0,0.0
Mg3MnTe4,1.1158,-0.8769617899497111,mp-1222145,0,1.0
P5HC(NCl6)3,2.0385,-0.961988269177296,mp-703293,0,3.0
Ca4Be2Al2Si9(HO14)2,4.933,-3.234690236010637,mp-1214670,0,7.0
NaCaNb3(BiO6)2,1.3275,-2.666496990072595,mp-1221100,0,2.0
LuPd,0.0,-1.01141381333333,mp-2205,0,0.0
Cs2AgBiBr6,1.3547,-1.456030710097701,mp-1078250,0,2.0
U(CuGe)2,0.0,-0.185656180066661,mp-21388,0,0.0
Lu3BC3,0.0,-0.495186403452381,mp-10566,0,0.0
K4C4O12Ag4,2.252553,,,0,3.0
Mn2(Co7B2)3,0.0,-0.145244994857312,mp-1194187,0,0.0
SnOs2Ru,0.0,0.604863694077387,mp-631946,0,0.0
Cr2P6C6O6H18,3.124082,,,0,4.0
H6C2N4O,4.5933,-0.5058854019230771,mp-758097,0,7.0
PrBi2IO4,1.2196999999999991,-2.260997688333334,mp-545728,0,1.0
Ba3(Br2Cl)2,4.379700000000001,-2.71620308111111,mp-1228327,0,6.0
DyLu3,0.0,0.001344011250004,mp-1183846,0,0.0
La4Ba2Pd2O10,2.465899,,,0,3.0
Na2MgTiP2SO12,2.1068,-2.707031190502333,mp-2713320,0,3.0
LaHg,0.0,-0.579265096249997,mp-734,0,0.0
TaI2O,0.8866,-1.681656821833334,mp-29027,0,1.0
La2Sn4Ir,0.0,-0.6601777242857141,mp-1223426,0,0.0
SmCoSi,0.0,-0.6672801233333401,mp-1019108,0,0.0
HoMg,0.0,-0.050898224999997,mp-1199,0,0.0
Nb2ReRh,0.0,3.968895419375,mp-1096554,0,0.0
Ta6Fe7,0.0,-0.189399633384615,mp-1104956,0,0.0
YZr4O9,0.0757,-3.7149481960714272,mp-758784,0,0.0
CeYCo4,0.0,-0.153421233333332,mp-1226470,0,0.0
Zn2FeS3,0.0,-0.824316896249999,mp-1215640,0,0.0
La3Hg,0.0,-0.254141844374999,mp-1185127,0,0.0
Cd2S2O9,0.009099999999999,-0.5584112555769231,mp-1205273,0,0.0
Ba6NaCu3Te14,0.6019999999999991,-1.237638945613026,mp-569168,0,0.0
K4Ag18Te11,0.0,-0.428316942040402,mp-1203532,0,0.0
CaCu2(GeO3)4,0.0,-1.852425440526315,mp-1368855,0,0.0
Tl(V3S4)2,0.0,-1.205699643555554,mp-1216802,0,0.0
Ca5MgN4,1.040499999999999,-0.8637781024374981,mp-1246397,0,1.0
Eu3Ge13Os4,0.0,-0.271935791000004,mp-1204216,0,0.0
Te20Al14,1.364254,,,0,2.0
K6Al32O51,2.822399999999999,-3.249958889983145,mp-863387,0,4.0
U(C2O5)2,0.259,-1.832696759,mp-1193074,0,0.0
Zn3P6H30(N3O13)2,1.0909,-1.411884530216298,mp-1201544,0,1.0
Y2USe3,0.0,-1.73330940783854,mp-1216060,0,0.0
Sm2RuAu,0.0,-0.484804959999999,mp-978824,0,0.0
NaAl(SO4)2,5.7223,-2.305674947198275,mp-1210191,0,7.0
Ca11Al14O32,3.4332000000000003,-3.447732863508824,mp-33318,0,5.0
NdTmIn2,0.0,-0.5773304543749981,mp-1186338,0,0.0
KYbO3,0.0,-2.138255775000002,mp-1184953,0,0.0
Na2UTeO7,1.880799999999999,-2.517456909947752,mp-1190512,0,2.0
Mg44Ir7,0.0,-0.187182428137256,mp-569273,0,0.0
Dy3Ga9Pd2,0.0,-0.7016360725860851,mp-1104013,0,0.0
MgZn3O4,1.4627,-2.089444236874999,mp-1221958,0,2.0
Cs2Ca5N4,0.0,-0.494262299724832,mp-1247417,0,0.0
K2MgZn2(PO3)6,0.8884999999999991,-2.338379823357143,mp-1233329,0,1.0
EuC2(SN)2,0.0,-0.6331071271853781,mp-22175,0,0.0
Tl4Si2Se6,1.530939,,,0,2.0
Zn2BiO6,0.0,-1.032958080555555,mp-1207464,0,0.0
CsNaTe,1.9696,-1.229981633333333,mp-5339,0,3.0
FeAgSe2,0.0,-0.300996155338541,mp-1096959,0,0.0
Fe(CoS)8,0.0,-0.703073324117647,mp-1188182,0,0.0
Sb2Os,0.344700000000001,-0.083994378333334,mp-2695,0,0.0
Cs2TiO3,3.3373,-2.684312073773946,mp-1178403,0,5.0
Ca4YB3O10,4.4498,-3.383046821527776,mp-1214020,0,7.0
MgTa2(ReO6)2,0.0,-2.644157745568628,mp-2229205,0,0.0
Cu5Sn(BO5)2,0.0116,-1.598555919768518,mp-1226321,0,0.0
Pb4As8O16,2.751073,,,0,4.0
YHoRh2,0.0,-0.8570938837499991,mp-1187859,0,0.0
LuGa2Pd,0.0,-0.8404531804166631,mp-1079942,0,0.0
Ti4P8O28,2.607227,,,0,4.0
Y(BIr)4,0.0,-0.5564558651851881,mp-981396,0,0.0
HgPbF6,1.3192,-1.854256394687503,mp-35659,0,2.0
MoW3(SeS3)2,0.6825000000000001,-0.8165536108333331,mp-1030520,0,1.0
GdNiC2,0.0,-0.304200385000001,mp-1065668,0,0.0
Na3Y(Si2O5)3,4.609,-3.165751951165517,mp-1221246,0,7.0
CsGd2Cl7,2.621299999999999,-2.508595772500001,mp-1213349,0,4.0
PrTe2Se,0.0,-1.3219848776822931,mp-30125,0,0.0
Hf2ZnIr,0.180699999999999,2.893919232500001,mp-1097343,0,0.0
Ca4Ti3Si4SnO20,2.9791,-3.33933064953125,mp-1227165,0,4.0
AcPr3,0.0,0.042426806874999,mp-1183239,0,0.0
La10C4I15,0.0,-1.481810344999999,mp-567775,0,0.0
VTeRu,0.0,-0.114689085555555,mp-1100422,0,0.0
BaCuAs2O7,0.6804999999999991,-1.970172824090908,mp-6571,0,1.0
Gd2Zr2O7,2.8082000000000003,-3.84645998909091,mp-757233,0,4.0
CsY2Cl7,4.4204,-2.530575375250001,mp-1213252,0,7.0
CeTmO3,0.094799999999999,-3.862318291,mp-1213788,0,0.0
TiRu3,0.0,-0.246630010416666,mp-998947,0,0.0
YP5O14,5.4476,-2.8240077880357153,mp-556335,0,7.0
Eu(CuSn)2,0.0,-0.361400986999993,mp-1069357,0,0.0
Zr6Ga16Rh7,0.0,-0.6557914813793101,mp-1193205,0,0.0
Ba4Y2Cu6O13,0.0,-2.2029181126,mp-20897,0,0.0
Be2P3NO10,0.0,-2.187379128683035,mp-1197425,0,0.0
CaCdPb,0.0,-0.37421893,mp-623089,0,0.0
GeO2,1.2157,-2.156655663333334,mp-470,0,1.0
SiBH3CNCl3,4.8578,-1.002199792291666,mp-1199507,0,7.0
CuH36C8(N5O4)2,0.9715,-0.549277633571428,mp-698361,0,1.0
Na4LaAlSi2SO12,3.538699999999999,-2.756318046334155,mp-2714322,0,5.0
Nd2(BiO2)7,0.8950999999999991,-2.043335826739131,mp-1101681,0,1.0
BaB2O9,0.097299999999999,-1.026605657986111,mp-1196854,0,0.0
Nb3Bi,0.0,-0.030583905,mp-568014,0,0.0
K2AgSb,1.1871,-0.5024591443749991,mp-7643,0,1.0
Dy2B4O9,5.6245,-3.288080790333332,mp-16600,0,7.0
HgC4N6(ClO2)2,0.9763,-0.362527270441177,mp-1200813,0,1.0
Ca2ZnP2(H2O5)2,4.6954,-2.456841777593985,mp-1214144,0,7.0
Eu4Pt,0.0,-0.124952172000004,mp-1213212,0,0.0
Nd3Tl,0.0,-0.208955888958334,mp-1533,0,0.0
PrO3,0.6315000000000001,-1.938387684166666,mp-720472,0,1.0
Fe4Co4B4O16,1.166901,,,0,1.0
Nd4(ErS2)11,0.0,-2.3648608081699622,mp-1200469,0,0.0
LiGdIn2,0.0,0.766301585208339,mp-1185472,0,0.0
ErNiC2,0.0,-0.34271762,mp-11723,0,0.0
Na18Mg8Ta4Si9(SO8)9,1.0701,-2.564836639847175,mp-2716214,0,1.0
Ba3PrIr2O9,0.0,-2.466770013111112,mp-1214562,0,0.0
SrLi2Al4(PO5)4,0.0,-2.768558283072197,mp-1203266,0,0.0
Sm(Ga3Co)3,0.0,-0.166404681346153,mp-1219382,0,0.0
K12Bi4Te12,1.528694,,,0,2.0
Ba2YReO6,0.0,-3.026363982249999,mp-6430,0,0.0
Ca(MnSb)2,0.0,-0.378338781172413,mp-4150,0,0.0
NaCa2Al2As2O11F4,0.0,-2.420130023017241,mp-1180232,0,0.0
H7ClO3,5.3812,-1.219445966249999,mp-625151,0,7.0
K3P11,1.9674,-0.374327798856292,mp-1568,0,3.0
SrTi11O20,0.0,-3.428457587864583,mp-28740,0,0.0
Tb2SnS5,0.132299999999999,-1.731748506354167,mp-555069,0,0.0
Mg3(CrN2)2,0.0,-0.622575443333333,mp-1246023,0,0.0
DyZnSn,0.0,-0.585244025555557,mp-1213053,0,0.0
Gd(ClO4)3,2.2925,-0.9653105109375,mp-1212754,0,3.0
SmFe2Co2B,0.0,-0.232589642361111,mp-1219073,0,0.0
Mn2Lu4S8,1.363751,,,0,2.0
Gd(SiPd)2,0.0,-0.913856672,mp-19753,0,0.0
YGa2,0.0,-0.649560048333333,mp-1914,0,0.0
Rh4Cl24K12,1.793556999999999,,,0,2.0
Na3PaF8,4.2399,-3.607279028333332,mp-27478,0,6.0
Li5SbS,1.1128999999999991,-0.9841099063095232,mp-767409,0,1.0
SiH6C4N5F6,0.173799999999999,-0.890835659999999,mp-1196697,0,0.0
KNdZrSnO6,3.1768,-2.884811901975,mp-1521108,0,5.0
Ca3(InGa2)2,0.0,-0.561470509444439,mp-1229014,0,0.0
BH2CN,4.8878,-0.168918568333333,mp-1228833,0,7.0
ZnAgN,0.0,0.216945158771932,mp-1245648,0,0.0
Yb(CdSb)2,0.092399999999999,-0.372389270999997,mp-9257,0,0.0
Ni4As4O14,2.704886,,,0,4.0
CrFeGe2,0.0,-0.029818414999999,mp-1226385,0,0.0
TiH12N2(O2F3)2,3.8376,-1.626452739533332,mp-703567,0,6.0
Mo2S3,0.0,-0.773987577687501,mp-1627,0,0.0
HfNi,0.0,-0.5166862600000001,mp-1018056,0,0.0
Ag4O6C2,0.5651689999999999,,,0,0.0
YV2(FeCo)5,0.0,-0.073177243076923,mp-1215819,0,0.0
Gd(Re2Si)2,0.0,-0.44385025285714,mp-1105253,0,0.0
Ho(GaCo)6,0.0,-0.321346777692307,mp-1212396,0,0.0
Mn4RuN4,0.0,-0.084890032270116,mp-1246408,0,0.0
Re8P20,0.471109,,,0,0.0
Sr6Cu3Cl3O6,2.787064,,,0,4.0
Hf2MgRe,0.0,3.621805745625001,mp-1097289,0,0.0
B1Al3N4,3.366415,,,0,5.0
Os(SeBr6)2,0.075699999999999,-0.642403067645827,mp-1104676,0,0.0
CdH24C4(BrN2)6,3.576699999999999,-0.566464168297872,mp-707501,0,5.0
Rb1F2B1O3Be2,5.913578,,,0,7.0
Ba4Cu6S10Na2,0.8706659999999999,,,0,1.0
SrPmPt2,0.0,-0.984746794375006,mp-1187217,0,0.0
Ca2NCl,2.371,-1.796587630312501,mp-22936,0,3.0
TlH12C4S2I3O2,1.8029,-0.395781531805554,mp-1202038,0,2.0
Cs2V6Te4O24,2.434784,,,0,3.0
Na4CaSiSn(PO6)2,1.4493,-2.660816631101728,mp-2714465,0,2.0
Ho3Mn3Ga2Ge,0.0,-0.359831059865897,mp-1224174,0,0.0
Y2TlCu,0.0,2.070725148923614,mp-1096218,0,0.0
SrGaSn,0.0,-0.622364492500002,mp-8914,0,0.0
Na2CePCO7,0.2139,-2.715527651866788,mp-1176428,0,0.0
NaUP3O11,2.4628,-2.888372675175492,mp-1198126,0,3.0
Er6Al41Cr6,0.0,-0.276343464245282,mp-1226597,0,0.0
NaAlH24(SO10)2,5.6387,-1.542905487580818,mp-24046,0,7.0
Nd14Ag51,0.0,-0.253953847076921,mp-1220721,0,0.0
NaIn2Sn2P3(SO8)3,1.6465,-2.192092475842131,mp-2716352,0,2.0
SnH12C2(NCl)6,2.8585000000000003,-0.758089743148148,mp-1198673,0,4.0
K8Fe4O16,1.746152,,,0,2.0
La2Os2I,0.0,-0.673462867000003,mp-1205536,0,0.0
Ca7SiN6,1.8220999999999992,-1.124152129642856,mp-1029474,0,2.0
CsGeCl3,2.153499999999999,-1.710205844931034,mp-22988,0,3.0
TmB4Os,0.0,-0.597919728194452,mp-982777,0,0.0
YbHoPd2,0.0,-0.968265954999996,mp-1187646,0,0.0
O4C4H4N12,3.386893,,,0,5.0
LaMnGe,0.0,-0.439826030977011,mp-20195,0,0.0
La3NbP2(SO6)4,2.3312,-2.729041297086835,mp-2713076,0,3.0
Yb3GaC,0.0,-0.6945973430000031,mp-21206,0,0.0
BiXeF7,2.1799,-1.703675860555556,mp-1196930,0,3.0
CaBi3P3O13,2.869,-2.47481880519643,mp-1041219,0,4.0
TiAlFeCo,0.1246,-0.574893555833333,mp-998980,0,0.0
Ca2CuSO2,0.0,-1.840456147916666,mp-1147722,0,0.0
S4N5F,2.496099999999999,0.182255175499999,mp-504830,0,3.0
SrNdCuS3,1.2165,-1.909333639166665,mp-1190834,0,1.0
Ba7Pb17O24,2.3275,-1.889409310416666,mp-758059,0,3.0
P2Na2O8N8C4H12,4.959935,,,0,7.0
ZrBi2,0.0,-0.274914924999997,mp-29642,0,0.0
Na2(GaSb)3,0.1913,-0.333942136282327,mp-28413,0,0.0
Mg2IrAu,0.0,-0.426804469999999,mp-1185765,0,0.0
Cs2BeF4,6.6981,-3.29938227275862,mp-5013,0,7.0
Mn(PdN)2,0.0,0.114011982413792,mp-1245932,0,0.0
AcSe3,0.0,-1.206915763671876,mp-867800,0,0.0
Eu2Sc2O5,0.0,-3.558378030555557,mp-1096978,0,0.0
Pr2MgTi4O12,3.0677,-3.515797810087718,mp-2231577,0,4.0
Na2Sc2In2SiS5O24,1.9051,-2.363942527414592,mp-2714603,0,3.0
Ca3BCNCl2,2.1079,-1.551805647395832,mp-649453,0,3.0
BaHg11,0.0,-0.135665620069451,mp-1600,0,0.0
Pt3(RhSe5)2,0.0,-0.452949670208298,mp-1219761,0,0.0
MnAs2S2(OF3)4,1.801699999999999,-2.267552622758621,mp-542064,0,2.0
Tb3Al,0.0,-0.228971270000002,mp-11226,0,0.0
Ho2(SeO3)3,3.9629,-2.347713149073661,mp-769014,0,6.0
KRb2AuBr6,0.0,-1.334208712225,mp-1114125,0,0.0
V2Cl4,3.12463,,,0,4.0
Hg8Se4O12,1.985669,,,0,3.0
TiCrP2,0.0,-0.7511042419047621,mp-1216841,0,0.0
GdP,0.0,-1.7729932389880931,mp-510401,0,0.0
Ti2FeIr,0.0,-0.667715469166665,mp-861672,0,0.0
GdHSe,0.5979000000000001,-1.634186529270832,mp-1207092,0,0.0
Ba2Nd2Si4O13,5.046200000000001,-3.512607946904762,mp-561462,0,7.0
Na9Os3O15,0.142312,,,0,0.0
Er(MnAl2)4,0.0,-0.342159017055703,mp-1104101,0,0.0
Na3ZnGe3P5SO24,1.8842,-2.3473362558518622,mp-2715903,0,3.0
H9C8NO9,2.6115,-0.888537010694446,mp-1196548,0,4.0
Zn4Si2H2O9,3.115,-2.230838627500001,mp-1215671,0,4.0
Na3CaTa5Si3(PO6)6,3.2123,-3.067857652475218,mp-2715627,0,5.0
Rb4Al2S5,3.015399999999999,-1.498468691818181,mp-1194520,0,4.0
Ca3PN,0.8055999999999991,-1.205423485345237,mp-11824,0,1.0
Er4MgCo,0.0,-0.148976073333334,mp-1212959,0,0.0
KSrPrBiO6,0.0,-2.297660031891667,mp-1517051,0,0.0
Tb5(In2Pt)2,0.0,-0.9631710390909072,mp-1208691,0,0.0
AlW2C,0.0,0.003612559249997,mp-1079892,0,0.0
Na3BiAsCO7,0.3433,-1.844731211664455,mp-754871,0,0.0
Dy(SiIr)2,0.0,-1.09055244833333,mp-4065,0,0.0
Bi2Te2O7,2.561199999999999,-1.6145225083712111,mp-667426,0,4.0
KSrNdSeO6,1.9635,-2.384047295709374,mp-1517988,0,3.0
H3CS,3.5897,-0.145903376589286,mp-559204,0,5.0
W8Fe4Na4O32,2.344113,,,0,3.0
Eu5As4,0.0,-1.177770870555559,mp-1106198,0,0.0
Ba3(CrN2)2,0.0,-0.789147460277777,mp-1246167,0,0.0
Nd2Ti12(CuO4)9,0.0898,-2.716349748559323,mp-1220529,0,0.0
Ba4SiN4,0.0,-0.5548836261111111,mp-1246210,0,0.0
CaAlF5,7.1538,-4.010018601428571,mp-8836,0,7.0
S4N5Cl,2.2113,0.399901824781251,mp-556273,0,3.0
Rb2AlTlF6,5.3013,-3.190875712833334,mp-1113654,0,7.0
La2TiCo16,0.0,-0.058359959309233,mp-1223096,0,0.0
SbTeI,0.8429000000000001,-0.495501532222224,mp-28051,0,1.0
ErTc2,0.0,-0.24928374861111,mp-1095604,0,0.0
Ho2NiAs2,0.0,-1.224555818999997,mp-8787,0,0.0
KBeO3,0.0,-1.19330633545,mp-973396,0,0.0
TeAuI,1.1214,-0.405502547222223,mp-27741,0,1.0
Ca4Mg4Fe3,0.0,0.389560040909091,mp-1102584,0,0.0
CsCeSiSe4,0.2913,-1.509963012718595,mp-573969,0,0.0
ZnSiPbO4,3.1964,-2.381144441607142,mp-21724,0,5.0
Sr2Cu2RuPb2ClO8,0.0,-1.7832774887499991,mp-1218869,0,0.0
SmGa6,0.0,-0.383721051428571,mp-1104451,0,0.0
Mg2PtAu,0.0,1.07876796,mp-1095816,0,0.0
Mg14ZrFe,0.0,0.108724439374999,mp-1028010,0,0.0
KZr(PO4)2,0.0019,-2.874850160961308,mp-726320,0,0.0
Ce2MnSi4Pd3,0.0,-0.7749806667931011,mp-1226782,0,0.0
V4F8,2.704716999999999,,,0,4.0
LiCO2,3.5989,-1.960809693333333,mp-1190287,0,5.0
CdGa2(SeS)2,1.6405,-0.922036687812499,mp-1226810,0,2.0
Y2OF,0.0,-2.2924589025,mp-1206733,0,0.0
SrH2Cl2O,4.0428,-1.7970119395833342,mp-642662,0,6.0
K2Li2Zn2O4,2.722786,,,0,4.0
Nb6SiSn,0.0,-0.280111901874999,mp-1220364,0,0.0
KBaYSi2O7,4.6841,-3.378215464562499,mp-559670,0,7.0
Rb2NaErF6,6.4981,-3.60256619763793,mp-13815,0,7.0
Mg2SiO4,4.6395,-3.213125702857142,mp-2895,0,7.0
SrMg6C,0.0,0.309470121238833,mp-1016514,0,0.0
Pd4K8N16O32,2.107504,,,0,3.0
Sm3Y5O12,3.9454,-3.912053223,mp-860969,0,6.0
Y2PtAu,0.0,1.3301883312499991,mp-1097356,0,0.0
Pb(ClO3)2,4.3339,-0.7205493000000031,mp-28513,0,6.0
Ta2ZnRe,0.0056,4.006945209770834,mp-1097369,0,0.0
MgMnPt2,0.0,-0.5800832007327561,mp-976406,0,0.0
KNaCa3Mg10(SiO3)16,3.325599999999999,-3.018655759729485,mp-1224270,0,5.0
Cl12P4,3.906569,,,0,6.0
MgB2H4C8(N4O)2,5.3302,-0.359071873933334,mp-1200331,0,7.0
Ga2RhC4Cl7O4,2.0166,-1.2387931525,mp-572409,0,3.0
Sb2O8K6,1.746023,,,0,2.0
Rb2NaScBr6,3.1115,-2.05306927813793,mp-1114016,0,4.0
Ho12Ni6Pb,0.0,-0.377039606315787,mp-1212509,0,0.0
NbPt4,0.0,-0.312096008499997,mp-1220285,0,0.0
Na30Mg4Ta20Si33(SO48)3,3.032899999999999,-3.009697321711735,mp-2716319,0,4.0
Nb2Se,0.0,-0.598921481354165,mp-27793,0,0.0
Sr3AlAs3,0.9824,-1.2562482685714271,mp-1192533,0,1.0
Na2Sn(HO)6,3.307,-1.527179706350574,mp-643788,0,5.0
KCeZr4O12,0.0,-3.134472950402778,mp-1519492,0,0.0
TlGeCl3,3.3207,-1.284060811666667,mp-998743,0,5.0
Mo2(CN2)3,0.176099999999999,-0.080665837272727,mp-1245672,0,0.0
CsCdAuS2,2.0699,-0.8536747171249881,mp-560558,0,3.0
Si3CCl7,4.020300000000001,-1.067101446191985,mp-30051,0,6.0
YbTmRh2,0.0,-1.058858321250003,mp-865422,0,0.0
PmTlTe2,0.0662,-1.044794818541668,mp-862968,0,0.0
CeCdHg2,0.0,-0.466994606249997,mp-866274,0,0.0
SiH16C8(NO2)4,5.4024,-0.726737361486486,mp-1194877,0,7.0
Ba2PrMgNbO6,0.0,-2.8487779778787883,mp-2224757,0,0.0
Nb4O4Br12,1.825178,,,0,2.0
Na3PH24SO15,0.7932,-1.265519870597291,mp-695398,0,1.0
Li4In4S8,2.186266,,,0,3.0
BaLa2(SiS4)2,2.7289000000000003,-1.868184513461538,mp-1228069,0,4.0
Ag2Au2Cl8,0.846528,,,0,1.0
Ti4Zn(CuO4)3,0.0,-2.430172866666666,mp-1042621,0,0.0
Sr2Cu2SbO7,0.0,-1.776554670416666,mp-1046176,0,0.0
Na2Ca5Sn3(SO4)12,0.8434,-2.217093082063218,mp-2714830,0,1.0
MgMn4(ZnS4)2,0.0,-0.8986420297816071,mp-2232551,0,0.0
V2O10P2,1.770671,,,0,2.0
NaSbO12,0.6369,-0.379241441884236,mp-1210742,0,1.0
Mg149Cr,0.0245,0.010655343366666,mp-1185585,0,0.0
PrGa2,0.0,-0.8078835105555551,mp-668,0,0.0
Sb,0.0,0.0,mp-104,0,0.0
Cu16As12O48Na4,1.651361,,,0,2.0
LiIn2,0.0,-0.068373334722219,mp-1210993,0,0.0
PrBiPd,0.0,-0.935451583888889,mp-1206720,0,0.0
K2MgSiO4,4.2164,-2.782260907281249,mp-15171,0,6.0
Ba2ZnS3,2.0208,-1.912240619166665,mp-5587,0,3.0
VCrRe2,0.0,4.474931213125,mp-1096517,0,0.0
LiCd4(GeO3)5,0.5378000000000001,-1.865362021133332,mp-1202839,0,0.0
Nb3FeSe6,0.0,-1.037374212906246,mp-1190037,0,0.0
MgRe3S4O11,0.0,-0.527832556184211,mp-1204180,0,0.0
Pr(HoS2)3,1.021,-2.398605138354165,mp-1188730,0,1.0
Hf4FeP,0.0,-0.544094011607141,mp-1102664,0,0.0
SiAg5ClO4,0.4149,-1.169058042178029,mp-647305,0,0.0
CePRu2C,0.0,-0.6447711119285711,mp-1080729,0,0.0
ZrSiRu,0.0,-0.9924654838888872,mp-7544,0,0.0
Na2RhAuF6,0.7408,-1.894455808833338,mp-1111300,0,1.0
Y2Cu3,0.0,0.360209274000001,mp-1190402,0,0.0
NaB10H3Pb4O21,0.010099999999999,-2.1460880869691272,mp-1210485,0,0.0
La5CrPb3,0.0,-0.309706584999999,mp-1188288,0,0.0
CuBi(PO4)2,0.0,-2.093222128273809,mp-755760,0,0.0
MgRh,0.0,-0.4497744375,mp-1172,0,0.0
Ba4Pr3BiO12,0.0,-2.85183876775,mp-1228380,0,0.0
KBa2Cd2Sb3,0.187599999999999,-0.7629497402812491,mp-1205075,0,0.0
BaB2F8,8.0511,-3.542616619848482,mp-558430,0,7.0
Sm3PO7,4.3882,-3.668078586482684,mp-1209446,0,6.0
NdEr3Fe34,0.0,-0.000613593355262,mp-1220311,0,0.0
VCu12As3S16,0.365899999999999,-0.5404441541406251,mp-1216456,0,0.0
PrCu9Sn4,0.0,0.002749741309523,mp-1210048,0,0.0
PrTi2ZnO6,0.0,-3.145793748333334,mp-1044485,0,0.0
H9C4NO4,3.2367,-0.7635532825694441,mp-23668,0,5.0
Na3InN2,0.070599999999999,-0.052876395208333,mp-1245471,0,0.0
Yb(CdAs)2,0.1452,-0.540153227999997,mp-1206487,0,0.0
Re3N5,0.0,0.109322276718753,mp-1080194,0,0.0
UB2Rh2C,0.0,-0.461351175595244,mp-1025127,0,0.0
Fe2B2O6,2.216142,,,0,3.0
NaYHfP2SO12,4.4556,-2.992004382120279,mp-2712787,0,7.0
Nb4Mn8O18,2.357487,,,0,3.0
NaNbSiGe(PO6)2,2.7659,-2.7282060509628723,mp-2715738,0,4.0
Li2TlSb,0.6976000000000001,-0.481713678333335,mp-1184973,0,1.0
TaTl2AgS4,2.0324,-0.8669619891458351,mp-558241,0,3.0
La6Br2Si4S16,2.545639,,,0,4.0
Tl2CdBi,0.0,0.7894568724166711,mp-1096440,0,0.0
PN2,0.0,0.001687952757935,mp-1102941,0,0.0
Ti5TlSe8,0.0,-1.375937897053571,mp-8244,0,0.0
LaAsS,0.054,-1.9011905992708331,mp-1103471,0,0.0
LiLu2Co,0.0,-0.136676321666668,mp-1185373,0,0.0
MoPd4,0.0,-0.035522127999993,mp-1221442,0,0.0
KNd(CO3)2,4.4267,-2.546365839725,mp-557940,0,7.0
K2EuF5,0.1588,-3.438427809000001,mp-1212263,0,0.0
Se20Ge8K8,1.731343,,,0,2.0
SrPbO3,0.7941,-2.155550595499999,mp-20489,0,1.0
Na3NpO10,0.478299999999999,-1.2798539194919951,mp-1180306,0,0.0
Nd4AlSi5(NO)7,0.8365,-2.037310619583334,mp-1249065,0,1.0
Mg6CdNi,0.0,0.026082433125,mp-1021772,0,0.0
PuRe2,0.0,0.322736150000006,mp-1103797,0,0.0
Sc2VB2Ir5,0.0,-0.767005026833334,mp-20524,0,0.0
TaMoW2,0.0,5.175655786604167,mp-1097618,0,0.0
LuMg,0.0,-0.030598615833335,mp-2195,0,0.0
BaP2(HO4)2,0.4731,-2.260209488791207,mp-707120,0,0.0
Na3Ca3ZrPS5O24,3.3634,-2.5692118808904723,mp-2713571,0,5.0
Ba4NaGa2B8(ClO6)3,4.4113,-2.91785510485313,mp-1195176,0,7.0
K2Ba(NO2)4,2.1868,-1.379379104133333,mp-560282,0,3.0
Sn2Ca2O6,2.948628,,,0,4.0
Na3BiBAsO7,3.2842,-2.117094011984968,mp-770475,0,5.0
V7S8,0.0,-1.173721176,mp-1100925,0,0.0
TbCuO3,0.0,-2.251320996333332,mp-1187321,0,0.0
Os2Se4Cl24,0.046088,,,0,0.0
Lu2SeO2,2.0255,-3.519900169135417,mp-1206825,0,3.0
Eu2Al6Si3Au2,0.0,-0.447779401538462,mp-1225642,0,0.0
C13F7,1.1244,-0.564603623302083,mp-1196461,0,1.0
La3Ir2,0.0,-0.6879023709999991,mp-1104303,0,0.0
Tm4CdNi,0.0,-0.302652303333336,mp-1207915,0,0.0