formula,bg,formation_energy,mp-id,fidelity,bg_category
Os1Te2Cl12,0.0,,,0,0.0
Cd2Si5N8,1.656699999999999,-0.938861585444444,mp-1247495,0,2.0
Rb2Mn(TeS3)2,0.7723999999999991,-0.7560742723876681,mp-1209516,0,1.0
GaPO4,4.439100000000001,-2.59967003924603,mp-4122,0,7.0
P2Pd2O7,0.8063,-1.904524799935064,mp-554320,0,1.0
FeAgAs(S2N3)2,0.0846,0.5310310069871781,mp-1181427,0,0.0
Zr2Cu3H32(O8F7)2,0.6984,-1.7658367864925362,mp-555139,0,1.0
NaLaMgTeO6,2.5432,-2.6082844158045972,mp-9239,0,4.0
K2Sb4S7,1.5478,-0.6407888023798151,mp-27749,0,2.0
MnZnPd2,0.0,-0.398006396982758,mp-1186001,0,0.0
TiTlPO5,2.748,-2.786311612819942,mp-6706,0,4.0
K2TlSbCl6,1.9155,-1.649728586783334,mp-1111196,0,3.0
Ta24Ti5Se48,0.0,-0.977680543703462,mp-685767,0,0.0
HfP2(H3O5)2,5.2369,-2.263450094304512,mp-697913,0,7.0
MgCN2,3.7571,-0.7761498281249991,mp-9166,0,5.0
ReC3O4F,2.8601,-0.989605865000001,mp-1203853,0,4.0
TcI4,0.0,-0.295391453,mp-1203591,0,0.0
K2AlInBr6,1.7287,-1.546376112116666,mp-1112191,0,2.0
Na6Nb8Si11SO48,2.8614,-2.974595553591567,mp-2714419,0,4.0
Pr3RuI3,0.0,-1.167842017142858,mp-28746,0,0.0
RbCuO2,0.9136,-1.357687516875,mp-7467,0,1.0
U5SiS4,0.0,-1.36586211632499,mp-1216882,0,0.0
NaCa2Tl,0.0,-0.298018542500003,mp-865051,0,0.0
Rb2Ag(AsSe2)3,1.4299,-0.70040900047743,mp-541916,0,2.0
KLaMg14O16,4.3806,-2.835362560070312,mp-1033981,0,6.0
Nb3AlFe8,0.0,-0.1725743075,mp-1220667,0,0.0
Cu2PC2SO13,0.089699999999999,-0.5576658040601501,mp-1198442,0,0.0
ZrGaNi2,0.0,-0.529860206875,mp-22580,0,0.0
Zr9BMo4,0.0,-0.136415280000002,mp-1192463,0,0.0
Ca3(GeP2)2,0.9508,-0.924094267433861,mp-17817,0,1.0
Sr6Mg7D26,2.938097999999999,,,0,4.0
I2Se12As2F12,1.461651,,,0,2.0
CeP,0.0,-1.756998903988094,mp-2154,0,0.0
B2TeO5,3.333399999999999,-2.247413569375,mp-768235,0,5.0
RbPdC4Br,0.0,0.620433546785714,mp-1147545,0,0.0
VNiSb,0.0,-0.124684422309523,mp-505599,0,0.0
TaNbTe4,0.0,-0.6847298378888881,mp-1217942,0,0.0
Co6BP,0.0,-0.176292886622022,mp-1226141,0,0.0
LiSiRh2,0.0,-0.8362333983333331,mp-867902,0,0.0
TmHfIr2,0.0,-0.907993967500001,mp-980201,0,0.0
K2NbCuSe2,0.0,-0.265251469447916,mp-1212810,0,0.0
RbNa3SnO4,2.3483,-1.850938011848658,mp-556968,0,3.0
K2AgIrF6,1.515199999999999,-2.145001022616666,mp-1112282,0,2.0
Cu2AsO5,0.0,-1.22535767375,mp-1198036,0,0.0
YbCeAg2,0.0,-0.205011878749999,mp-1187657,0,0.0
BHS3O11,5.696299999999999,-1.784108224244791,mp-1200187,0,7.0
TaC,0.0,-0.659460603666666,mp-1086,0,0.0
Ti2CoNiSn2,0.0,0.228149477222223,mp-1217160,0,0.0
As12Ga4Ca10,0.098536,,,0,0.0
Li2Ca4Si4O13,4.6645,-3.303861107028985,mp-556137,0,7.0
BaSrYTlCu2O7,0.0,-2.222204291410257,mp-1227606,0,0.0
DyPPt,0.0,-1.517993547658733,mp-16326,0,0.0
NbZn3,0.0,-0.163834115000001,mp-953,0,0.0
TaNb2W,0.026899999999999,4.8971640331666535,mp-1093977,0,0.0
Dy5Rh3,0.0,-0.710030191666662,mp-1188653,0,0.0
La2SbAu3,0.0,-0.860475635,mp-1223122,0,0.0
Na2ZnH8(SO6)2,4.9405,-1.688238596910344,mp-23787,0,7.0
Sm6MnS10,0.0,-2.137066685025355,mp-1173568,0,0.0
Y3TlS6,0.000599999999999,0.910198699166666,mp-1207379,0,0.0
ErTl2P2Se7,1.0722,-0.8502220976965531,mp-1195632,0,1.0
KAl2P2H4O11,0.5065000000000001,-2.375107204826785,mp-1256014,0,0.0
Na2H6Ir,0.0,-0.197133064629629,mp-1022729,0,0.0
Gd4Ge3O13,0.0137,-2.903357660250002,mp-1200081,0,0.0
CaZn2(H5O4)2,3.829,-1.583987967023809,mp-1202252,0,6.0
Sm6Mg(Sb5O12)2,0.4072,-2.504689481341462,mp-1234711,0,0.0
Rb2ScAgI6,2.1449,-1.343710374166666,mp-1111799,0,3.0
Tb4Si3Ge,0.0,-0.917009714374998,mp-1217620,0,0.0
Zn2Si2As4,1.112092,,,0,1.0
Zr8F32,5.08374,,,0,7.0
BH11C4NClF4,6.4112,-0.94173200808712,mp-559235,0,7.0
NaAlH12(SO7)2,5.2103,-1.703030859462643,mp-1199345,0,7.0
Sr(AsRh)2,0.0,-0.8846263909999971,mp-569006,0,0.0
Zr2ScTc,0.0,3.446147175,mp-1095992,0,0.0
MgGe2,0.0,0.011873634166665,mp-1185867,0,0.0
Th(SiIr)2,0.0,-1.181183707999997,mp-1080037,0,0.0
Ca2Eu2In3Ge4,0.0,-0.504837956363636,mp-1227823,0,0.0
Na3BiO3,2.8428,-1.711620799519704,mp-27914,0,4.0
TmUTe6,0.0,-0.9081572456250052,mp-1216819,0,0.0
CaB12(H3O)8,1.1297,-0.5986091946111111,mp-1238166,0,1.0
KNdHfSnO6,3.3158,-2.970457464975,mp-1516381,0,5.0
Ti8GaCo4Si3,0.0,-0.319560743385417,mp-1217174,0,0.0
Na3Au,0.0,-0.1798231025,mp-1186018,0,0.0
CrNiP,0.0,-0.514590547380951,mp-1101790,0,0.0
Tb2SmS4,0.0,-2.285963022619046,mp-38931,0,0.0
Pr(AlBr4)3,3.3673,-1.742100152812498,mp-567874,0,5.0
Tm2CuPd,0.0,-0.6310741000000021,mp-979045,0,0.0
CrBr3,1.2759,-1.21740412,mp-27734,0,2.0
Gd4Si2Se3O7,1.0029,-3.174619841689453,mp-558965,0,1.0
ScSiRh2,0.0,-0.929153363749999,mp-972970,0,0.0
GaH5(NF)2,2.7259,-1.0974375528749991,mp-759288,0,4.0
MnSi2Pd3,0.0,-0.518226945766283,mp-1221623,0,0.0
CaPH4O5F,4.978400000000001,-2.256773609136905,mp-721347,0,7.0
KSiO3,0.0,-2.462709077199999,mp-1199261,0,0.0
Eu3AlO5,0.0,-3.325880598333335,mp-1019729,0,0.0
Na5CaSiGe3P5O24,1.8726999999999991,-2.5494115784216462,mp-2716026,0,2.0
YbHoCd2,0.0,-0.380104019999997,mp-1187615,0,0.0
Ba2Ti1Zr1O6,2.17067,,,0,3.0
VSnPt,0.0,-0.295878668333332,mp-961716,0,0.0
CaZn3Se4,2.1424,-1.148342482421874,mp-1084796,0,3.0
ThMnSe3,0.0,-1.616431631334045,mp-11778,0,0.0
KCu3S2ClO9,0.0,-1.561990052796875,mp-555595,0,0.0
Te2NO6,0.0,-0.455772003425926,mp-1196142,0,0.0
K12Ga4Te12,1.571643,,,0,2.0
Cs2AlGaH6,0.8501000000000001,-0.160572485431034,mp-989648,0,1.0
Y(SiRu)2,0.0,-0.879523911999996,mp-568673,0,0.0
NaMg14Bi,0.0,0.016678188663793,mp-1026660,0,0.0
RbTl(FeSe)8,0.0,-0.526940456087962,mp-1219594,0,0.0
Ca1Sn1B2O6,3.766657,,,0,6.0
NaLuCl4,5.1598,-2.369259266527777,mp-29001,0,7.0
NaGa(SO4)2,4.319999999999999,-2.037933520323275,mp-1210086,0,6.0
LaH6S3(NO3)3,4.3757,-1.5043312277272731,mp-1223775,0,6.0
Be3Zn4Si3SO12,4.2033,-2.689035306630435,mp-6856,0,6.0
Nb4Al5Co3,0.0,-0.313621354999999,mp-1220527,0,0.0
Rb2Cd3Se4,1.5237,-1.042348969652775,mp-16818,0,2.0
La5Sn3I,0.0,-0.910928391111112,mp-30211,0,0.0
Fe6F18,3.769027,,,0,6.0
HoTmPd2,0.0,-0.960040376249995,mp-1184830,0,0.0
MgV2S4(Br2N3)2,0.6042000000000001,-0.5070546726470591,mp-2229658,0,0.0
KZn4SbO7,0.8601000000000001,-1.877066480557691,mp-1193473,0,1.0
Zr3Ta,0.0,0.153261153750001,mp-1188053,0,0.0
KCa(H2N)3,2.5876,-0.6008382749999991,mp-720856,0,4.0
YCdAu2,0.0,-0.6523260525000011,mp-865522,0,0.0
Rb3In,0.0,0.102852842708333,mp-974982,0,0.0
Th(InBr3)2,2.7543,-1.625695282592591,mp-617543,0,4.0
Sm4Ga3Fe31,0.0,-0.055077647434211,mp-1219432,0,0.0
Sn1Se1,0.1928379999999999,,,0,0.0
NaLiMnS2,0.0,-1.031742843528734,mp-1220987,0,0.0
Pt4I8,0.649482,,,0,1.0
CsRbN,0.0,0.646898569281608,mp-1009541,0,0.0
Tb2Pb2O7,1.1856,-2.550893196212119,mp-769211,0,1.0
MoPt,0.0,-0.35810017,mp-999502,0,0.0
Sb(PO3)4,1.6871,-2.376532749621848,mp-1045606,0,2.0
K3TbSi3(HO5)2,4.8809000000000005,-2.850949327811403,mp-759928,0,7.0
Os7C19SO19,1.4865,-0.904421803532607,mp-648805,0,2.0
Te6RuBr8,1.4039,-0.6184011031666661,mp-1198778,0,2.0
SmFeGe2,0.0,-0.489239986249999,mp-1206145,0,0.0
TiSn6F16,2.7165,-2.83530745557971,mp-505113,0,4.0
K2LiInF6,5.2984,-3.02043609045,mp-1111671,0,7.0
Na4Zn2In2SiS5O24,2.6209,-2.066677856746068,mp-2713441,0,4.0
Ba3GdInS6,1.9502,-2.056138201060605,mp-1190744,0,3.0
Rb2Se2O7,3.0932,-1.553559318607953,mp-1190543,0,4.0
Tm3Sc2Al3O12,4.9796,-3.834630633250002,mp-1207916,0,7.0
TiAlNi6,0.0,-0.473768206666666,mp-1217044,0,0.0
Sm2Pb2O7,1.009199999999999,-2.433658827272727,mp-778141,0,1.0
Zn11Ni2,0.0,-0.162326948076924,mp-11532,0,0.0
BaMgTiF7,0.227399999999999,-3.846200952333333,mp-1041239,0,0.0
LiNb(PO4)2,2.2693,-2.75884310563492,mp-673070,0,3.0
MgPaPt2,0.0,-0.862502686249999,mp-1185914,0,0.0
Ba2TlIn,0.6467,1.111827389999998,mp-1093785,0,1.0
Cu4SnS4,0.0014,-0.316626001111111,mp-504536,0,0.0
ErTiClO3,3.1421,-3.542939039722222,mp-1212930,0,5.0
ZrCu4Ag,0.0,-0.148498893611106,mp-1070869,0,0.0
ThMg(N3O13)2,0.0,-0.425362825147059,mp-1196564,0,0.0
Th(GePd)2,0.0,-0.8140985039999971,mp-4147,0,0.0
Cs2RbEuCl6,0.0,-2.303289740181035,mp-1112519,0,0.0
UNbC2,0.0,-0.508671231250001,mp-1216653,0,0.0
TcAsH2(OF5)2,2.816099999999999,-2.16884103296875,mp-1199434,0,4.0
LiSn3Sb(PO4)6,2.712799999999999,-2.4659924801768702,mp-761694,0,4.0
UO,0.0,-2.608501917499996,mp-7830,0,0.0
Li4Si4Bi2O13,3.916499999999999,-2.6532596059057982,mp-756672,0,6.0
Na3CuPCO7,0.2214,-2.135967272983137,mp-767526,0,0.0
NaPmTl2,0.0,-0.358777494375004,mp-862949,0,0.0
LaCuNi4,0.0,-0.272428915833331,mp-1222960,0,0.0
Mg6CoSb,0.0,0.053597185625,mp-1022062,0,0.0
Na10Zr4Ta4Si11SO48,3.6653,-3.099753839965297,mp-2716400,0,5.0
Mg6SnMo,0.0,0.15377858625,mp-1021390,0,0.0
TbMgCo4,0.0,-0.119193556944445,mp-1070837,0,0.0
Li2YIn,0.047899999999999,-0.394097875833333,mp-1185233,0,0.0
KBeF3,7.061299999999999,-3.40532521745,mp-1211678,0,7.0
GaW2N3,0.0,-0.050641725347224,mp-1245845,0,0.0
Ba3Se12Ge3Cu6,0.679418,,,0,1.0
InSbS3,1.476099999999999,-0.522175905687501,mp-21365,0,2.0
Ce2HfS5,0.0,-2.207799110820314,mp-985298,0,0.0
CaTlI3,3.2233,-1.466711516666668,mp-1206188,0,5.0
Ni20(SnB2)3,0.0,-0.270806557586206,mp-29724,0,0.0
Sm2AgHg,0.0,-0.431318780624998,mp-978545,0,0.0
Sm30(P4Ir5)13,0.0,-1.004357266268221,mp-1220044,0,0.0
NdB4Rh7,0.0,-0.322281214513888,mp-1220226,0,0.0
Y4Co16B3C,0.0,-0.231644369270833,mp-1216253,0,0.0
HgC2Br3N,1.0226,0.312808006964284,mp-1181520,0,1.0
BaSr2Tm6O12,2.6054999999999993,-3.766883942380954,mp-1227814,0,4.0
PrNiSb,0.0,-0.8830706088888861,mp-1024955,0,0.0
Sr3RhF12,0.0,-2.7238224365624992,mp-1237311,0,0.0
CePr3O8,0.0,-3.235669708749999,mp-1226562,0,0.0
NdIn5Co,0.0,-0.338741262499996,mp-1078125,0,0.0
KMg30CO32,0.480999999999999,-2.792157595191406,mp-1040199,0,0.0
Cu2WSe4,1.275699999999999,-0.400722725178574,mp-1025340,0,2.0
Tl2SO3,2.580999999999999,-1.398672000694447,mp-690541,0,4.0
Mn2P2O12C2H4,3.313564,,,0,5.0
LiCu2(CO3)2,0.0,-1.570633899848485,mp-753403,0,0.0
Cs2TlAuBr6,0.0,-1.295307690264369,mp-1112500,0,0.0
Sr2YTi2AlO7,0.0,-3.243584902435896,mp-1048068,0,0.0
Ho5BiPd2,0.0,-0.7686687256249981,mp-1212221,0,0.0
Sr(SiPd)2,0.0,-0.7186036160000011,mp-568402,0,0.0
La5Se6N,1.588099999999999,-2.249373512526041,mp-1224631,0,2.0
SmCoSi2,0.0,-0.7313519062499999,mp-13478,0,0.0
TbEu2GeO6,0.0,-3.020643271166667,mp-1519127,0,0.0
Na3Zr,0.0,0.7727243025862071,mp-1186104,0,0.0
Mg(NbS3)4,0.0,-1.11669008852941,mp-2229008,0,0.0
LaEuPd6,0.0,-0.679879225625001,mp-1222993,0,0.0
NaW6NCl18,0.5959000000000001,-1.323488244860744,mp-569050,0,0.0
SmTl,0.0,-0.37951780416667,mp-2541,0,0.0
Na6Zr4In4Si5S7O48,1.331699999999999,-2.514112096181656,mp-2715956,0,2.0
Ho(HO)3,3.6657,-2.244273694107142,mp-24075,0,5.0
Gd2AgRh,0.0,-0.505994883749998,mp-1006068,0,0.0
Mn4K2P4O18H2,0.561091,,,0,0.0
Lu5(Co2Ge5)2,0.0,-0.623031691754386,mp-1200552,0,0.0
ZrRu,0.0,-0.7388692800000031,mp-214,0,0.0
Na5Ti2Zn2P5SO24,1.7887,-2.616349927631048,mp-2714975,0,2.0
Ca(ZnAs)2,0.3873,-0.6555636290000011,mp-9571,0,0.0
Cs2U2O5,0.0,-2.937240151590038,mp-1183901,0,0.0
La3Co,0.0,-0.033744761874999,mp-640095,0,0.0
K3NaAl12Si12(HO6)8,4.803,-2.9973814618229673,mp-1203739,0,7.0
K6Sn3As5,0.7018999999999991,-0.420795158821425,mp-28728,0,1.0
Tm2Cr2C3,0.0,-0.336101299285716,mp-1025181,0,0.0
YNi2,0.0,-0.403158921666666,mp-1019,0,0.0
Ag2Mo3Te3O16,1.772596,,,0,2.0
Cs2Lu7CCl18,0.0,-2.493433478249179,mp-569387,0,0.0
K6MoN4,0.8855000000000001,-0.161045389863636,mp-1245841,0,1.0
Ge3Ir2Se3,0.5894,-0.6481776277539061,mp-975924,0,0.0
Na1V1O2,1.584646,,,0,2.0
HfAu,0.0,-0.6057786524999991,mp-1007755,0,0.0
Sr1Bi2Ta2O9,2.013284,,,0,3.0
CaSn6S13,0.413599999999999,-0.7317328661249981,mp-1247782,0,0.0
Pd2Cu2Se10K2,1.083296,,,0,1.0
In2Cu3(PO4)4,0.089299999999999,-2.15299094067619,mp-566150,0,0.0
Sc5As3,0.0,-1.232107622499999,mp-505002,0,0.0
Sr6Pt2Ni2O12,2.547757,,,0,4.0
Tm(TlTe2)3,0.0,0.437962417999997,mp-1209436,0,0.0
Na3Mg4Nb8P15(SO24)3,1.9629,-2.76830560044077,mp-2716204,0,3.0
La4(CoB2)3,0.0,-0.286288940528843,mp-1104122,0,0.0
Rb2SbF5,3.573399999999999,-2.8543856196875,mp-1209567,0,5.0
K3Cu(CN)4,4.164899999999999,-0.331191081684026,mp-6610,0,6.0
NbHSe2,0.0,-0.409237676171873,mp-1206422,0,0.0
Cu3Pb2Se2(NO7)2,0.4208,-1.139615479116847,mp-1202064,0,0.0
TeAsRh,0.670399999999999,-0.4032203175,mp-1217325,0,1.0
HoCuS2,1.607299999999999,-1.59167361328125,mp-12453,0,2.0
SmHIClO13,0.130699999999999,-1.040496033602941,mp-779015,0,0.0
NdHfF7,6.8273,-4.240553623055555,mp-1209889,0,7.0
KPb2Br5,3.0699,-1.47434131903125,mp-31508,0,4.0
GaAgTe2,0.1926,-0.342137992499999,mp-4899,0,0.0
CuPbF6,0.2011,-1.962069736249999,mp-1213055,0,0.0
ScAs,0.0,-1.585676658749999,mp-2052,0,0.0
Tm2TeS2,1.788999999999999,-2.136118575124999,mp-1216554,0,2.0
Li2AcPb,0.0,-0.306289522291665,mp-865915,0,0.0
Sn2Ge2O7,1.764399999999999,-1.969025513863635,mp-768877,0,2.0
KMgP,1.6589,-0.628996292297619,mp-1018737,0,2.0
YbTlSe2,0.0,-1.59138915078125,mp-570118,0,0.0
Tb6GaNi2,0.0,-0.341163775277776,mp-1188114,0,0.0
Na2Hf4Nb4Si7S5O48,1.5441999999999991,-2.883648800146552,mp-2715614,0,2.0
Na5Sc2Al2P5SO24,4.5782,-2.883289827032757,mp-2715191,0,7.0
Mg(FeS2)2,0.0,-0.844958678571428,mp-1389421,0,0.0
PrFeCo,0.0,0.063062502777777,mp-1219987,0,0.0
Cs3SmCl6,4.7485,-2.329584442500001,mp-1112348,0,7.0
Mg3ZnO4,2.8326,-2.693945698125,mp-1024045,0,4.0
LiNi3,0.0,0.062328318333333,mp-1185266,0,0.0
Ca(BeAs)2,0.6613999999999991,-0.6064358749999991,mp-1018630,0,1.0
TlP5,1.184899999999999,-0.044324999146825,mp-27411,0,1.0
GeSb3,0.0,0.15228952,mp-1184683,0,0.0
TcPt,0.0,-0.095135290624995,mp-1187458,0,0.0
Sc2Se3,0.625799999999999,-1.963220283937502,mp-1205354,0,0.0
HoAg,0.0,-0.32771211833333,mp-2778,0,0.0
UReB4,0.0,-0.5385332031944471,mp-1102585,0,0.0
SrAg,0.0,-0.273446333999999,mp-568716,0,0.0
USiH2PbO7,1.8234,-2.597905871666665,mp-1202774,0,2.0
CaTiS2,0.0,-1.790093604583332,mp-1041194,0,0.0
Ba2TbSnO6,0.0,-2.904990106166666,mp-1228305,0,0.0
Nd2S3O17,0.8189000000000001,-1.341423683977273,mp-1220911,0,1.0
Mg6TiBO8,0.092999999999999,-2.52681432703125,mp-1031319,0,0.0
Sm3CuGeSe7,1.1611999999999991,-1.571149619283853,mp-570226,0,1.0
LiPm2Ge,0.0,-0.426732410833333,mp-861955,0,0.0
Pb3BrO3,0.6278,-1.2548616421428551,mp-1193975,0,1.0
Al14(CuSe8)3,0.0,-0.8418800285708851,mp-1248857,0,0.0
ThI3,0.0,-1.4919749593749951,mp-540904,0,0.0
SnH12C6(NO2)2,4.244400000000001,-0.6016918521000001,mp-1201486,0,6.0
Na2Ca4SiGe4S11O48,0.3423,-2.135558378598933,mp-2714290,0,0.0
Sr2CdGe,0.0,1.11732306375,mp-1096602,0,0.0
KCaPO4,0.075299999999999,-2.233956031698979,mp-1224557,0,0.0
Mn4Ti4O12,1.708354,,,0,2.0
Al2H12(SeO5)3,4.745100000000001,-1.6108465986572271,mp-707424,0,7.0
Na42Ca8Nb16Si33(SO48)3,2.029,-2.852542195611509,mp-2714459,0,3.0
Tb3CrSe6,0.0,-1.817317890906246,mp-505638,0,0.0
U3P2Pb2O21,0.090999999999999,-2.23036578015306,mp-1198284,0,0.0
BaH5ClO3,4.9758,-1.742991589624999,mp-642834,0,7.0
SeS,0.0,0.384928130662203,mp-2559,0,0.0
TmOs3,0.0,0.246768127500004,mp-1187673,0,0.0
CsCSN,4.3764,-0.665828705538793,mp-614311,0,6.0
BaTeO3,2.7149,-2.357057434333336,mp-5431,0,4.0
CaU2Si2H12O17,1.9307,-2.314318699999999,mp-730691,0,3.0
Na6Y2Ta2Si5SO24,2.9969,-2.98402698867773,mp-2713835,0,4.0
Fe2Bi2S4Br2,1.630324,,,0,2.0
CuPb2Cl3O2,0.0,-1.076652068281249,mp-1195366,0,0.0
LiIr3,0.0,-0.220141506666664,mp-30738,0,0.0
O18Sb4Ge6,2.825868,,,0,4.0
Tb4BBr6,0.0,-1.818444819621213,mp-29847,0,0.0
Co4As4S4,0.833653,,,0,1.0
CaPmMg2,0.0,-0.080341531874999,mp-1183567,0,0.0
In2CoS4,0.0,-0.5431005739880921,mp-21173,0,0.0
Sr2(BiPd)3,0.0,1.164423239999999,mp-1207133,0,0.0
U(Zn10Ru)2,0.0,-0.130074176521738,mp-1199869,0,0.0
Ba6Te10Br2O25,3.0197,-2.108817363236434,mp-1197646,0,4.0
TlCl,2.5181,-1.325818244166667,mp-571079,0,4.0
Co6Se4O20C4,2.444577,,,0,3.0
Nd5Si3,0.0,-0.667828575937498,mp-567735,0,0.0
Pr4CdPt,0.0,-0.5052381527777741,mp-1209686,0,0.0
Ba2As6O11,3.1926,-2.062824206578948,mp-757280,0,5.0
BaH(BrO3)2,3.5321,-0.8196203416250001,mp-1214490,0,5.0
Na2TiSi4H4O13,4.1008,-2.6653750204621662,mp-1200866,0,6.0
TiN2F5,0.0,-1.024552299791667,mp-1208194,0,0.0
UN2O7,0.7019000000000001,-1.3771985189999991,mp-1179344,0,1.0
AlBiCl6,3.7568,-1.714143323750001,mp-672273,0,5.0
Ta2Si(PO6)2,3.7852,-3.122860372389356,mp-2715695,0,6.0
GdZrSb,0.0,-0.8814114916666671,mp-1071459,0,0.0
NaPr(SeO5)2,0.6248,-1.4042860012666771,mp-1210478,0,0.0
H4C7,2.2582,0.016622453787879,mp-1097016,0,3.0
Na6Sn2Se7,1.7754,-1.071317183645473,mp-16889,0,2.0
Ta3AlFe8,0.0,-0.216734832666665,mp-1218090,0,0.0
Li2B8SeO15,4.8776,-2.639770570282452,mp-1198324,0,7.0
Cs4Ag2V2S8,1.58958,,,0,2.0
Tb2Fe17,0.0,-0.003787115438596,mp-1194635,0,0.0
ThSiSe,0.0,-1.335073589114581,mp-1076936,0,0.0
Hf2N4,0.532682,,,0,0.0
HgAs2H2F14,3.320599999999999,-2.179017322631587,mp-1105456,0,5.0
CdH10C3NCl3,4.1544,-0.536730459999999,mp-863012,0,6.0
Cs3Sc2Cl9,3.9353,-2.377844639107142,mp-637194,0,6.0
Ge3Bi2O9,2.979399999999999,-1.972623079642858,mp-29218,0,4.0
TeC2(NO2)4,0.220399999999999,0.235333378555554,mp-1179087,0,0.0
Cr1K1F6,1.321381,,,0,2.0
Tm(MnGe)6,0.0,-0.323664321352786,mp-5641,0,0.0
Sn5O6,1.7702,-1.762198781818187,mp-978114,0,2.0
Ti9O17,0.0,-3.448527105384616,mp-27273,0,0.0
ErGa2Co3,0.0,-0.368264194166667,mp-1189735,0,0.0
La4In5S13,0.0,-1.535388584957385,mp-21571,0,0.0
RbTa7(CuO7)3,0.0,-2.787171089026041,mp-1220008,0,0.0
HfMg14CO16,1.2385,-2.698168228906249,mp-1033660,0,1.0
SrZnRu5O11,0.0,-1.625098344930555,mp-1197440,0,0.0
Nd3AlSi5N10O,2.898299999999999,-1.615270088375,mp-1173524,0,4.0
Ba2Ti(GeO4)2,3.7129,-2.894512731410256,mp-6289,0,5.0
KB11H13C2NO,4.8833,-0.418701613942529,mp-1195330,0,7.0
TmBeCu4,0.0,-0.194294372499999,mp-1216565,0,0.0
ErGePt,0.0,-1.132784888333329,mp-13579,0,0.0
K2CdSnS4,1.4957,-1.090346006187498,mp-1194826,0,2.0
K14ZnGe16,0.8916000000000001,-0.18919705166129,mp-1195294,0,1.0
K2Ag4Pt3(NO2)12,1.8494,-0.762454828359259,mp-557863,0,2.0
Tb3NbO7,2.7232,-3.742577128636361,mp-754415,0,4.0
La2I5,0.1718,-1.777881522857142,mp-30282,0,0.0
PRuS,0.5699000000000001,-0.668903889429562,mp-1095584,0,0.0
Cs2NaMn(CN)6,0.0,-0.252657553038793,mp-20915,0,0.0
U3Ti,0.0,0.256819012083319,mp-1187772,0,0.0
Ba6Co2Sb4O18,1.856123,,,0,2.0
SmMn6(Sn2Ge)2,0.0,-0.213397244814324,mp-1208950,0,0.0
MnCdRh2,0.0,2.199737668879311,mp-1096673,0,0.0
Os(SCl6)2,0.032699999999999,-0.309395096375,mp-28865,0,0.0
Rb3Cu2Cl7,0.1654,-1.611625493958334,mp-27804,0,0.0
HC4NCl2O3,2.9954,-0.8485626487500001,mp-1212586,0,4.0
Rb2Mn2Sb2,1.025131,,,0,1.0
Sb8Cl2O15,0.1261,-1.172653546199999,mp-1219725,0,0.0
Ti10FeSb5,0.0,-0.532530450208333,mp-1217288,0,0.0
Tl4Br16K4,1.579062,,,0,2.0
BaCaGdNbO6,2.824299999999999,-3.40090976025,mp-1517031,0,4.0
Zn2CoN2,0.0,0.128956449272725,mp-1399347,0,0.0
NdOs2,0.0,-0.168142375833336,mp-569630,0,0.0
Pt1Sc1Sb1,0.648148,,,0,1.0
RuSN4(ClO)2,0.5038,0.449498235999999,mp-1198427,0,0.0
Ba8Si12Li4,0.088039999999999,,,0,0.0
K2Au(IO3)5,1.9927,-1.03311708823913,mp-1195201,0,3.0
Nd12(OsC3)5,0.0,-0.390313210937495,mp-1210077,0,0.0
Ba3MgSb2O9,2.6494,-2.697531417666667,mp-16978,0,4.0
NaSc2Ga2PS5O24,2.3243,-2.355332227862539,mp-2714188,0,3.0
Hg6Cl3O2,0.0,-0.5885879267045491,mp-558260,0,0.0
BaDy2ZnO5,3.0569,-3.260596762592592,mp-6643,0,4.0
ThVB4,0.0,-0.7007983658333331,mp-1095627,0,0.0
Nb4K12S16,2.341033,,,0,3.0
K2RbNdF6,5.2708,-3.415484198949999,mp-1110673,0,7.0
PrBrCl2,3.8627,-2.599954732916666,mp-1219679,0,6.0
InGaSb2,0.0,-0.215765754999999,mp-1223638,0,0.0
Cu8SiSe6,0.415199999999999,-0.313336529604166,mp-10428,0,0.0
Mg14BMo,0.0,0.281976201927083,mp-1026474,0,0.0
CsK2SbCl6,3.1654,-1.7908493524155171,mp-1112055,0,5.0
SmCrGe3,0.0,-0.384108376,mp-13009,0,0.0
MgNbCu3S4,0.0,-0.6602458438888881,mp-2222826,0,0.0
La6Mg(SiS7)2,1.9699,-2.084417004782611,mp-1223141,0,3.0
CsGe2N3,0.0,-0.078043777442528,mp-1246456,0,0.0
SrSe2O5,3.2926,-1.920166128085942,mp-28346,0,5.0
KHC(NO)2,0.851499999999999,-0.6016623083571431,mp-1192729,0,1.0
Ba2CuSO2,0.0,-2.058557482916666,mp-1147767,0,0.0
CsScAgF6,0.006699999999999,-3.057064507369093,mp-1225939,0,0.0
Er2Fe14C,0.0,-0.080297939411762,mp-567623,0,0.0
K2Re,0.0,1.57863790522222,mp-1181016,0,0.0
BaAl2O4,4.1027,-3.448150932499999,mp-4202,0,6.0
Y13Ho19O48,4.182600000000001,-3.9973242730624983,mp-758033,0,6.0
Rb3Nb2AsSe11,1.181199999999999,-1.038247646810662,mp-683902,0,1.0
Er5B2(O2F3)3,5.9864,-4.037555718333333,mp-1199169,0,7.0
AlCuSnS4,0.712699999999999,-0.910110392142856,mp-1228961,0,1.0
LiNO3,2.9369,-1.3867624986666651,mp-8180,0,4.0
CsMo6Se7,0.0,-0.875004013290102,mp-5883,0,0.0
Ca2S2O9,1.0726,-2.294183082307692,mp-1196095,0,1.0
ZnPH5C2N4O3,4.6363,-0.959875022868304,mp-766204,0,7.0