formula,bg,formation_energy,mp-id,fidelity,bg_category
La2Pr2O7,0.0,-3.331233522575756,mp-755355,0,0.0
YSeBr,1.545799999999999,-1.375550599114583,mp-1100439,0,2.0
Ce2(AgSb)3,0.0,0.240371705625001,mp-1206228,0,0.0
La2Cu2S2O2,1.970336,,,0,3.0
Eu(Al2Cu)4,0.0,-0.294342721923077,mp-1104923,0,0.0
Cu2Al2Br8,2.829613,,,0,4.0
Ca3Ag,0.0,-0.037221020833332,mp-1183452,0,0.0
Y2MgCuO4,0.0,-2.397989175625,mp-2225369,0,0.0
Ce12InPt7,0.0,-0.79218860833333,mp-637609,0,0.0
As4S12Li12,2.302252,,,0,3.0
Zr2Cl5,0.0,-1.86567839791667,mp-648774,0,0.0
Ti3C3N7,0.0,-0.6014975287500021,mp-1245543,0,0.0
BH6CN3F4,5.6634,-1.432805491777777,mp-862539,0,7.0
ErAl8Ni3,0.0,-0.309777451944443,mp-1225606,0,0.0
Zn2Sn2As4,0.015616999999999,,,0,0.0
KZnP,0.839599999999999,-0.576517767242063,mp-7437,0,1.0
Ti12F48,3.908001,,,0,6.0
FeBr4N,0.0,-0.078267498749999,mp-1213553,0,0.0
MgTiGaS4,0.0,-1.332156828690476,mp-1247254,0,0.0
Ba2SmPaO6,3.4592,-3.680276951499999,mp-1205602,0,5.0
CaSm4(HO2)4,0.0,-2.537105137941176,mp-1234002,0,0.0
K3Bi,0.024699999999999,-0.5012231678125,mp-31286,0,0.0
YScO3,3.1392,-3.941366084666667,mp-769007,0,5.0
BiSbSe3,1.0106,-0.344257173187503,mp-1227508,0,1.0
Te3MoWSe,0.6311,-0.281625304010418,mp-1030161,0,1.0
CrFeSb4,0.0,-0.091441213333332,mp-1226216,0,0.0
Ca2TiN2,0.0,-1.167790804666667,mp-1386487,0,0.0
Sm2HfS5,1.1083,-2.207648429375,mp-1202520,0,1.0
Fe8As4O22,2.198853,,,0,3.0
Ba2MgNbInO6,1.128199999999999,-2.465177273787878,mp-2218010,0,1.0
Na5HfIn3(PO4)6,2.4365,-2.683362584908215,mp-2713131,0,3.0
PrCdIn,0.0,-0.558639453888886,mp-1219724,0,0.0
Ca(SiPd)2,0.0,-0.815204341999998,mp-567769,0,0.0
Ba2YIrO6,0.0,-2.761594729999999,mp-15888,0,0.0
TiVN2,0.0,-1.555961596041665,mp-1216767,0,0.0
NdLuSe3,0.4956,-2.18705656127083,mp-13327,0,0.0
TiCrRe2,0.0,4.24144111149818,mp-1096257,0,0.0
Sr9Zn4(CuO7)2,1.7851,-2.492094681034483,mp-555609,0,2.0
Rb2Mn2F6,4.384707,,,0,6.0
K3TbF6,6.6915,-3.591290042341666,mp-1211662,0,7.0
Na4LaInSi(PO6)2,2.9857,-2.75964564300649,mp-2714521,0,4.0
ZnP2H14C2(NO)6,5.0041,-1.000711493122119,mp-757310,0,7.0
TmZrF7,5.8705,-4.225493081111111,mp-1207980,0,7.0
RuW,0.0,0.142531552499995,mp-1219476,0,0.0
CsMg14Fe,0.0,0.290118440021551,mp-1027860,0,0.0
Cs2LaCuCl6,2.1808,-2.047499776999994,mp-1113523,0,3.0
SrCdP2O7,3.9048,-2.802720797662336,mp-17693,0,6.0
Ba3Ti3(BO6)2,2.1313,-3.342956696916667,mp-11772,0,3.0
Pr2(Ga3Ru)3,0.0,-0.571281309880952,mp-1210301,0,0.0
Cs2CaO2,2.3181,-1.937322568862069,mp-753803,0,3.0
KRbMg14,0.0,0.207200774078125,mp-1026413,0,0.0
Tm3Sb5O12,3.1331,-2.681940301249999,mp-768450,0,4.0
Cs4Pd4Al4F24,0.743379,,,0,1.0
PrS2,0.346299999999999,-2.010772799930554,mp-555096,0,0.0
SnS2(O3F)2,4.351800000000001,-1.939172750454545,mp-554599,0,6.0
MgGaPd2,0.0,-0.710474510624998,mp-865123,0,0.0
CaAl2Si6H10O21,5.137799999999999,-2.562285500437501,mp-1214127,0,7.0
Ni3(BiSe)2,0.0,-0.230446720446431,mp-30973,0,0.0
SrCu(SeO3)2,0.7134,-1.731845364968749,mp-9640,0,1.0
Y2AlPb,0.0,1.932182500267853,mp-1096270,0,0.0
Ca5P3O13,0.4885,-3.243580392806123,mp-1195767,0,0.0
TiF6,2.9814000000000003,-2.379295843333333,mp-1209717,0,4.0
EuZn(BO2)5,0.0,-2.801632591225491,mp-1019730,0,0.0
HfTiTc2,0.0,3.527619370833324,mp-1097517,0,0.0
Na2La4Sc4SiS11O48,2.536699999999999,-2.634366625598934,mp-2714152,0,4.0
CaMg14Nb,0.0,0.122803743125,mp-1028106,0,0.0
Pu(CuSi)2,0.0,0.068068066250003,mp-20751,0,0.0
MgB12(H2O)6,0.0,0.085426593225806,mp-1199979,0,0.0
Zr4CoNi,0.0,-0.282171088333334,mp-1215379,0,0.0
In2F6,3.805703,,,0,6.0
Cd2Hg2S2O11,0.0254,-1.3381478864705891,mp-1195970,0,0.0
Cs2Al2F8O4H8,6.403445,,,0,7.0
B11Rh18,0.0,-0.321630215431033,mp-1228811,0,0.0
Sm2Zn17,0.0,-0.262779661052629,mp-30712,0,0.0
GdReB4,0.0,-0.6001313124999991,mp-1191130,0,0.0
Cu2AsClO4,0.0,-1.187193590937501,mp-617283,0,0.0
Li2MnO3,1.368399999999999,-2.180112729932952,mp-18988,0,2.0
CuH12C2(NO2)6,1.0065,-0.6536370924242431,mp-1201390,0,1.0
K2Zn(SiO3)2,3.9235,-2.734427540409092,mp-555318,0,6.0
EuSbO4,0.0,-2.500180786666666,mp-510637,0,0.0
CsMg6Sb,0.0,0.098301522543103,mp-1016372,0,0.0
Eu2Ga2GeS7,0.0,-1.391598496875,mp-1192354,0,0.0
In8Se16K8,1.469271,,,0,2.0
TiGaPd,0.0,-0.647722110277776,mp-1025045,0,0.0
Li2Mo15Se19,0.0,-0.6222686729509701,mp-1197196,0,0.0
K2H2RuO5,0.8767,-1.5971485741999991,mp-696941,0,1.0
SiRh2,0.0,-0.7421774966666681,mp-20418,0,0.0
Rb1Fe1Mo2O8,2.155969,,,0,3.0
Cd3TeO6,0.5061,-1.504367380166665,mp-14243,0,0.0
Ti2Mn3V,0.0,-0.239920565909963,mp-1217200,0,0.0
La3Ni7P5,0.0,-0.919042873714284,mp-1224382,0,0.0
CdH8C2S2(N2Cl)2,3.8023,-0.57318698131579,mp-1200842,0,6.0
TcC,0.0,0.5580503837499999,mp-1009848,0,0.0
Li3Cu,0.0,0.056218754999999,mp-975882,0,0.0
Na10Sc4In4Si5S7O48,2.943699999999999,-2.505197256576408,mp-2715003,0,4.0
Na2Nb2Al6Si3(S3O16)3,0.909999999999999,-2.482376062956076,mp-2716291,0,1.0
MgTi3CuO8,0.0,-2.903755640384616,mp-2218833,0,0.0
Sr4Sc8S16,1.363115,,,0,2.0
Ag2Au4F16,0.29665,,,0,0.0
TmSi,0.0,-0.885302892500003,mp-1066975,0,0.0
Mn3Cd,0.0,0.527203849051723,mp-1185933,0,0.0
K3SO4F,5.2302,-2.4147752738055552,mp-557035,0,7.0
TlH6C3S3(O4F3)3,2.7202,-1.612699539803921,mp-1198235,0,4.0
La3(NbN3)2,0.0,-1.538639261590909,mp-10558,0,0.0
SiH14(OF)6,6.2972,-1.7919681176851852,mp-1209032,0,7.0
Sr2Cu2Lu2Se6,1.256345,,,0,2.0
CsMg14BiO16,1.9598,-2.520174896239224,mp-1035309,0,3.0
Ca3Ag3As3,0.0,,,0,0.0
RbEuCl3,0.454199999999999,-2.547815950500001,mp-1206801,0,0.0
Ca3Er3Ge2BO13,3.8902,-3.324719248825758,mp-41109,0,6.0
Na2Nb3AlSi4(SO12)2,1.7821,-2.790322005215518,mp-2715538,0,2.0
Ba(CdAs)2,0.157599999999999,-0.614831377000001,mp-8281,0,0.0
KMnSe2,0.0,-0.919266482467133,mp-1207101,0,0.0
Gd2InNi2,0.0,-0.497728899333338,mp-1076993,0,0.0
Sn3H6CNO7,1.0608,-1.045879450138889,mp-1016212,0,1.0
Li8Mn4O12,1.728597,,,0,2.0
Li2Na1Sb1,0.682862,,,0,1.0
LiCeO3,0.0,-2.5452602596666662,mp-973613,0,0.0
BaLi2Tl,0.0,1.119085502499998,mp-1096003,0,0.0
Cs2ReO4,0.0,-2.121571860258621,mp-1096938,0,0.0
Ce(GeIr)2,0.0,-0.785544749999996,mp-510315,0,0.0
LaScSb,0.0,-1.023274423333333,mp-1076970,0,0.0
NaPNO3,0.0492,-1.207427405170361,mp-1102530,0,0.0
Na2Cu2(B4O7)3,0.6782,-2.604301021290773,mp-1203872,0,1.0
Li2TiS2O,2.3009999999999993,-2.010395815416666,mp-769287,0,3.0
Dy4FeS7,0.214599999999999,-1.959634813263885,mp-1225468,0,0.0
Zr2O4,3.71837,,,0,5.0
Sm3Ge13Rh4,0.0,-0.547335124499999,mp-1204494,0,0.0
Ce(In2Au)2,0.0,-0.381718202738093,mp-21537,0,0.0
Nd(CuGe)2,0.0,-0.588987317499999,mp-3177,0,0.0
ErFeGe2,0.0,-0.434217507499999,mp-1087539,0,0.0
TlPt,0.0,0.462474104861115,mp-11553,0,0.0
Pr2(GeIr)3,0.014799999999999,2.046812912708333,mp-1206275,0,0.0
Ba2Ti3O8,0.7315,-3.308228299230768,mp-1400415,0,1.0
Zn2Cu(AsO4)2,0.4821,-1.630548818846154,mp-6278,0,0.0
Ca3SnS5,2.0189,-1.733499701388887,mp-1100370,0,3.0
NdN2,0.0,-0.866220309305554,mp-1220310,0,0.0
Cs6Y4I18,2.69769,,,0,4.0
Mg4Sb2O9,2.4289,-2.560751251666667,mp-676305,0,3.0
In4Au9,0.0,-0.158686871468524,mp-680545,0,0.0
Ta2NiSe7,0.0,-0.9262612351072912,mp-541183,0,0.0
Cs(AsRu)2,0.0,-0.387576420931038,mp-570837,0,0.0
LiCu2F5,0.0,-2.123371035833331,mp-752721,0,0.0
Mg14VMo,0.0,0.203410518125,mp-1028324,0,0.0
Ge19(SbBr)4,1.2834,-0.192272236481481,mp-1212667,0,2.0
Sr4Hg8Cl8O8,1.659453,,,0,2.0
Na8Zr2Sc2Si5SO24,4.0034,-2.985951956393678,mp-2716247,0,6.0
Sc4B12Rh17,0.0,-0.6196028880303021,mp-1200575,0,0.0
Mg2Ta2SiS5O24,1.2905,-2.411327467416667,mp-2713083,0,2.0
U2H12C2S3(NO8)2,1.9032,-1.639324987229729,mp-1199632,0,3.0
K4Fe2P4O14,3.368737,,,0,5.0
K2GeAs2,0.8442000000000001,-0.386287133900002,mp-8930,0,1.0
AuN2,0.0,0.430680151666668,mp-1018648,0,0.0
K2Nb3Cl7O5,2.3144,-2.446307399088236,mp-559790,0,3.0
Ba2ZrUO6,0.0,-3.5405289179999992,mp-1205832,0,0.0
Ba4Fe3Se10,0.0,-1.33272432079044,mp-1195255,0,0.0
K2Ni1F6,2.249877,,,0,3.0
Tl4GeSe4,1.0793,-0.6013629875231511,mp-1196396,0,1.0
YScCd2,0.0,2.041861713750001,mp-1096067,0,0.0
CeMgCu,0.0,-0.053399669999998,mp-1205969,0,0.0
LiCa2ReO6,1.5831,-2.649083681583334,mp-1205694,0,2.0
Se18K6P6,1.373974,,,0,2.0
Er4MnS7,0.555399999999999,-2.144296875625298,mp-1225601,0,0.0
Ca5(RhN3)2,0.0,-0.5783221112179471,mp-1245432,0,0.0
Zn16S16,2.712902,,,0,4.0
CrGa,0.0,0.01662467730769,mp-1182452,0,0.0
Li3AlN2,3.162099999999999,-1.045083798333333,mp-13944,0,5.0
Ba4LaGe3SbSe13,1.4214,-1.457794821725851,mp-683936,0,2.0
Ce2Co17H3,0.0,-0.120003379034092,mp-1213920,0,0.0
Na5ScNb3Si5PO24,2.4175,-3.003560823586481,mp-2716487,0,3.0
Zr3As,0.0,-0.7430221796875011,mp-1200894,0,0.0
Cs2DyCuCl6,2.2443,-2.02527425424999,mp-1112958,0,3.0
Cu2AgH(SeO5)2,0.340199999999999,-0.9163641467252612,mp-1213178,0,0.0
Sr2B11HO21,0.0,-2.4583551282023812,mp-1209355,0,0.0
Mg2SiPt,0.0,-0.5998960062499991,mp-14793,0,0.0
K6As8O19,0.0,-1.326143278742423,mp-1224773,0,0.0
Na2AlGaP2SO12,4.125500000000001,-2.548254320633912,mp-2713329,0,6.0
DySb,0.0,-1.214562465833331,mp-1007,0,0.0
Na4Zr2Al2Si3(SO8)3,3.0794,-2.738173914246068,mp-2713576,0,4.0
K16Zn4O12,2.010752,,,0,3.0
ErSnPt2,0.0,-1.009108922500002,mp-30611,0,0.0
Cr2Ag2Te4,0.0,,,0,0.0
Eu2Zr2O7,0.0,-3.5298340995454542,mp-685944,0,0.0
Ag2IO5,0.0,-0.521240238541666,mp-1203252,0,0.0
Ni17(GeSe)4,0.0,-0.363539274374999,mp-1220298,0,0.0
AsC2(OF3)2,1.1157,-1.544790152045454,mp-1190837,0,1.0
EuPuRh2,0.0,0.188202004062501,mp-1184467,0,0.0
TlInCl3,1.559699999999999,-1.3742267120000011,mp-998713,0,2.0
Ca2CuSbO6,0.343199999999999,-2.282519315499999,mp-1372293,0,0.0
LuZn2,0.0,-0.436090370555556,mp-1024948,0,0.0
BaSr2Eu,0.0,0.042798028749998,mp-1183392,0,0.0
SrSn(BO3)2,3.617799999999999,-2.832876895333332,mp-8000,0,5.0
Ba4ZrNb9O18,0.0,-2.942862634999999,mp-1228044,0,0.0
Sb4H2SO10,3.3641,-1.710180376617647,mp-698480,0,5.0
Mg3Ti3(AsO4)4,0.2153,-2.381570689423077,mp-1350689,0,0.0
NdHf2F11,6.5541,-4.201867995535715,mp-1209873,0,7.0
Hf2Ga3Cu,0.0,-0.426178548749999,mp-1223908,0,0.0
NaSb3F10,4.968,-2.751694213669951,mp-27573,0,7.0
Ca2N12C16,2.998826,,,0,4.0
Hf2SiTe2,0.0,0.299160193500011,mp-1212437,0,0.0
Bi3Sb5Pb4O21,1.376599999999999,-1.801583341666666,mp-1227674,0,2.0
Cu2Fe1Ge1S4,0.8166059999999999,,,0,1.0
CsEuCl3,0.0,-2.5000581545000022,mp-1213256,0,0.0
ErGa2,0.0,-0.72364276111111,mp-2422,0,0.0
SrCaCu(PO4)2,0.8914999999999991,-2.837925794175823,mp-1046249,0,1.0
TaCoB2,0.0,-0.6237687001666671,mp-1189690,0,0.0
Ce(SeO4)2,1.2845,-1.8422844406534071,mp-21838,0,2.0
Ga2Au7,0.0,-0.084934749629627,mp-571598,0,0.0
Bi3BrO4,0.9257999999999992,-1.630138166874999,mp-866311,0,1.0
Pm3Pr,0.0,0.024317488958335,mp-1186526,0,0.0
LiHoF2,0.101599999999999,-2.592666624583332,mp-1211001,0,0.0
YLuIn2,0.0,-0.5489967316666651,mp-971819,0,0.0
Zr5Sb3C,0.0,-0.880141622222219,mp-1105738,0,0.0
Na3ScCl6,3.9823,-2.163718957499999,mp-1189516,0,6.0
Au4Ba2P8,0.237978,,,0,0.0
BaGe2S5,2.277999999999999,-1.146028342499999,mp-28710,0,3.0
HfTaV4,0.0,-0.028202971222228,mp-1224275,0,0.0
HoCdHg2,0.0,-0.340256892500003,mp-977413,0,0.0
NaB2HO4,5.2923,-2.460541837385954,mp-706489,0,7.0
Ca2Nb2SiS5O24,0.8953000000000001,-2.4159796121813732,mp-2713035,0,1.0
PrAlO3,4.1325,-3.655848326333328,mp-3466,0,6.0
AlSiO3,0.0,-2.154149702999999,mp-1183132,0,0.0
LiYbGe,0.0,-0.80947635388889,mp-8482,0,0.0
Sm2In8Co,0.0,-0.316636609393938,mp-1102596,0,0.0
Pd(Br2N)2,0.0,1.043877804285714,mp-1078150,0,0.0
Li5BiS4,1.873799999999999,-1.251523454666667,mp-755139,0,2.0
Cr12Fe3S20,0.0,-0.8939817408571411,mp-1226707,0,0.0
Zn2AgPt,0.0,1.258729457083334,mp-1093900,0,0.0
NdDyMg2,0.0,-0.077100907291665,mp-866063,0,0.0
In32Cl32,2.145223,,,0,3.0
Tb(P3Ru)4,0.0,-0.638781730140054,mp-13245,0,0.0
Cs(CoSe)2,0.0,-0.5493137293839281,mp-571343,0,0.0
LiTi2O4,0.0,-3.246210392142857,mp-5670,0,0.0
Al2Os1,0.32543,,,0,0.0
Li3Ca,0.0,0.045540925,mp-976075,0,0.0
Ba3NaOs2O9,0.0,-2.33338267875862,mp-542208,0,0.0
CsNaB10(H2O9)2,5.7673000000000005,-2.555895239491212,mp-1226923,0,7.0
TmNi3Ge2,0.0,-0.6128750066666661,mp-1208263,0,0.0
ReH12C4NO4,4.5007,-0.6636833143181821,mp-1199139,0,7.0
Sm(MgBi)2,0.0,-0.399612687000001,mp-1068021,0,0.0
Sc2S3,1.034999999999999,-2.171633972687499,mp-401,0,1.0
Hf6Al16Os7,0.0,-0.631305023017234,mp-973769,0,0.0
Li2CuH14C4(N3O4)2,1.082099999999999,-0.961566396404763,mp-769075,0,1.0
Ba6Dy2Ga4O15,3.5896,-2.997786968271605,mp-1214605,0,5.0
RbVN2,0.5831000000000001,-0.9150327306250012,mp-1029312,0,0.0
Ho2H16S3O20,5.3217,-1.839888801646341,mp-1202923,0,7.0
Ta(NF2)3,1.1796,-0.7389047642333331,mp-1208688,0,1.0
CuTcBi,0.0,0.6814291816666671,mp-631463,0,0.0
La(CuGe)2,0.0,-0.6056744510000011,mp-20322,0,0.0
TbErIr2,0.0,-0.846996966666664,mp-1187345,0,0.0
TeS3N2,1.5236,0.367373273159718,mp-1192539,0,2.0
Sn2F6,2.623759,,,0,4.0
Pr3Al,0.0,-0.212668897499998,mp-1079266,0,0.0
PrI3,1.9493,-1.689724197916664,mp-862800,0,3.0
Tb2Y2O5,0.0,-3.246901876481481,mp-1187277,0,0.0
BeZnPt2,0.0,1.77607242125,mp-1096662,0,0.0
PrMnSi2,0.0,-0.562440917399425,mp-1080530,0,0.0
HfZn,0.0,-0.232181902500002,mp-1014219,0,0.0
Ba(SO4)2,0.1563,-1.555352767272726,mp-1182450,0,0.0
ScOF,4.4798,-4.125764553333335,mp-4661,0,7.0
RbLaMg6O8,3.8649,-2.59540512140625,mp-1031004,0,6.0
HfZnIr2,0.0,-0.7433310700000011,mp-864798,0,0.0
D2Cl2,5.912271,,,0,7.0
CaPd5,0.0,-0.366331009999998,mp-11826,0,0.0
Ca3Si3(AgO6)2,0.1654,-2.576056236416666,mp-1157153,0,0.0
LaP5,0.1139,-0.678575252480158,mp-1864,0,0.0
Mg149Al,0.5011,0.002754187233333,mp-1185596,0,0.0
AlCuNi6,0.0,-0.1850688525,mp-1228938,0,0.0
RbSmO3,0.0,-2.1981835435000012,mp-975207,0,0.0
Rb3DyF6,5.906000000000001,-3.534895507416666,mp-1206146,0,7.0
Cs2RbYCl6,4.9337,-2.495544132681034,mp-1112114,0,7.0
MgCuP,0.018499999999999,-0.419133639047621,mp-7352,0,0.0
Sm3Sc,0.0,0.034707054999998,mp-978845,0,0.0
YbTmPd2,0.0,-0.9869358987500012,mp-1187537,0,0.0
Cd5Si(PO6)2,2.0401,-2.220261511589285,mp-1227191,0,3.0
Zr2CoTc,0.0,-0.389741042500002,mp-864896,0,0.0
CCl3F,4.9147,-0.5863191532499991,mp-23071,0,7.0
Ba4Y8S16,1.754268999999999,,,0,2.0
Ta22(CuS12)3,0.0,-1.276533301333331,mp-686369,0,0.0
Tb12(MnC3)5,0.0,-0.338328428270473,mp-1208636,0,0.0
TiI4,1.0859,-1.031189425666664,mp-541013,0,1.0
Cs2LiDyCl6,5.0917,-2.4873172784310342,mp-1113018,0,7.0
Sr2MgCd,0.3408,1.17328895125,mp-1093736,0,0.0
InGaN2,0.2331,-0.316682221875,mp-1223660,0,0.0
LiPaO3,3.1954,-3.339490445666668,mp-1185263,0,5.0
MgGaPt2,0.0,-0.7027672531249981,mp-1185861,0,0.0
Rb3Y2(BO3)3,4.1682,-3.018221083529412,mp-556206,0,6.0
BaCu2(HgO2)2,1.1949,-1.235696421666667,mp-1147526,0,1.0
NaPNO8,0.067999999999999,-0.5260907137292871,mp-1190961,0,0.0
AlAg(PSe3)2,1.6205999999999992,-0.5870029005014871,mp-1228964,0,2.0
Gd4B3C4,0.0,-0.5237199579545451,mp-29821,0,0.0
ScGa5Co,0.0,-0.443533387857142,mp-1025242,0,0.0
Na3GaSiGe(PO6)2,2.6199,-2.53164795646285,mp-2715401,0,4.0
Sr3MgRhO6,0.0,-2.638171944545454,mp-16984,0,0.0
SrHfMg6O8,0.0135,-2.722126034999999,mp-1033367,0,0.0
TbMnFe,0.0,0.048358326800767,mp-1217486,0,0.0
Ba5P9,0.0,-0.838168841913264,mp-567378,0,0.0
Ho2SiSO4,2.6279,-3.452076566249998,mp-17366,0,4.0
Rb3Sb,0.0878,-0.395674879375,mp-16319,0,0.0
Li2RhAu,0.7466,1.267476843666664,mp-1097387,0,1.0
Y2(InSn)3,0.0,-0.409081861874998,mp-1216238,0,0.0
K2LiTa6(PO8)3,3.0431,-3.122564722660053,mp-684817,0,4.0
Mn2AlTc,0.0,2.972770209784482,mp-1093791,0,0.0
Be2O2,7.418398,,,0,7.0
Y2PdAu,0.0,1.478733980000004,mp-1093733,0,0.0
Sc2CoB2Ir5,0.0,-0.628851521833333,mp-1208990,0,0.0
Te2Ag4S6,1.262155,,,0,2.0
MgCu4(ClO3)2,0.0,-1.112801688076923,mp-2218499,0,0.0
FeGe,0.0,-0.122145530833333,mp-22478,0,0.0
Lu(Fe5Mo)2,0.0,-0.019534850512821,mp-1222535,0,0.0
Sr2Cl4O8,2.443814,,,0,3.0
Cs12Cu8Br20,2.710165,,,0,4.0
CsTlBr4,1.9724,-1.340932351331418,mp-573702,0,3.0
Cu3B6H2O13,0.3612,-2.127567617604166,mp-1203923,0,0.0
Na5AuSe12,1.0748,-0.6052610313194451,mp-29198,0,1.0
BaGdCuSe3,0.8826,-1.823016102838541,mp-20157,0,1.0
Er16In4Ir4O,0.0,-0.8327419700666651,mp-1212967,0,0.0
La3Si2S8Cl,2.6154,-1.84137820142857,mp-556246,0,4.0
CsTi2I7,0.209599999999999,-1.105786670132184,mp-30951,0,0.0
KNaH6PtC4N4O3,1.3944,-0.716985441056465,mp-696179,0,2.0
CsGd2Cu3Se5,0.893699999999999,-1.336279976033993,mp-1190996,0,1.0
SmAg2Hg,0.0,-0.303810620115587,mp-978516,0,0.0
Sr(GaAu)2,0.0,-0.601445783999999,mp-12780,0,0.0
HoP5,0.1063,-0.630045229146825,mp-9851,0,0.0
AlSO10,0.2066,-1.001096870208333,mp-1183023,0,0.0
Tm2AgHg,0.0,-0.468254340625001,mp-979176,0,0.0
Mg(CoN)2,0.0,-0.062541877250004,mp-1234733,0,0.0
RbLiMg(BH4)4,6.4948,-0.411157531195652,mp-1219622,0,7.0
HoPaOs2,0.0,-0.413282853281259,mp-977364,0,0.0
Th3As4,0.2713,-1.557892197142848,mp-382,0,0.0
Dy2Fe15Co2C,0.0,-0.028582510416666,mp-1225909,0,0.0
YPdPb,0.0,-0.8108154944444481,mp-1205369,0,0.0
GaNi3C,0.0,-0.065463401499998,mp-1206991,0,0.0
Na3InSiGe(PO6)2,2.108,-2.4828216592545163,mp-2715431,0,3.0
KInSe2,1.8437,-1.13291374277604,mp-505700,0,2.0
Ba5Gd2ZrAl2O13,2.4626,-3.440172720217391,mp-1214525,0,3.0
NaMg,0.0,0.123355703843438,mp-973334,0,0.0
ZrIn,0.0,-0.439153042499999,mp-1207380,0,0.0
RbSbS(O2F)2,4.6867,-2.288881598333332,mp-554732,0,7.0
Zn2Fe4O8,1.763231,,,0,2.0
As6S10Al2Cl8,2.321321,,,0,3.0
Ac2ZnIr,0.0,-0.414113234999995,mp-865398,0,0.0
Dy5SbPt2,0.0,-0.9834674710416632,mp-1212858,0,0.0
Na2Mn(H2N)4,0.560999999999999,-0.36356434837931,mp-723034,0,0.0
BrClO,1.1661,-0.263298104999999,mp-755831,0,1.0
Li8Nb2S9,1.1298,-1.3705181527192971,mp-769036,0,1.0
Nd12C6I17,0.0,-1.331748449285712,mp-571309,0,0.0
CeH3(SO4)3,0.337799999999999,-2.002340699539473,mp-1227490,0,0.0
Sr2Mn1Mo1O6,0.590421,,,0,0.0
CaZnH10Br4O5,3.228199999999999,-1.223751176309523,mp-1182668,0,5.0
Ag6Fe2V4O16,1.410702,,,0,2.0
OsC4ClO4,2.4789,-1.0353093395,mp-652048,0,3.0
LiCrRh2,0.0,-0.151835279166668,mp-1185306,0,0.0
CaLaMg6,0.0,0.047266524375,mp-1023211,0,0.0
LaRhC2,0.0,-0.329284552499999,mp-3380,0,0.0
Pr23Mg4Ni7,0.0,-0.151835626274509,mp-569425,0,0.0
BaMg14CuO16,0.9077,-2.71266189125,mp-1035297,0,1.0
Bi4Se3N2,0.4481,-0.108784316354166,mp-1247172,0,0.0
RbUH2SeO7F,2.2095,-2.235395449026442,mp-1196487,0,3.0
BaCa2N2,0.008399999999999,-0.441699549,mp-1245603,0,0.0
CsTaCl6,2.9077,-2.032214450248564,mp-1213077,0,4.0
SrRhF6,0.0,-2.66345302375,mp-9926,0,0.0
LaLuS3,2.232199999999999,-2.46214010452083,mp-1106374,0,3.0
Ho(BiO3)2,0.0,-2.013704112777778,mp-1040838,0,0.0
Ce5NiPb3,0.0,-0.379318306111108,mp-640447,0,0.0
La3Er,0.0,0.034690657916666,mp-972912,0,0.0
Fe12B4O24,1.956664,,,0,3.0
NaSeO3,3.097299999999999,-1.497195065494612,mp-728664,0,4.0
RbBe4(BO3)3,5.1736,-2.957246211911764,mp-556393,0,7.0
Yb2GaHg,0.0,-0.5865676093750021,mp-979967,0,0.0
SrCa3(BrN)2,2.2318,-1.5929586,mp-1218377,0,3.0
GdB4Mo,0.0,-0.60244415861111,mp-1190272,0,0.0
Sr9(MnN4)2,0.0,-0.797324962940109,mp-1247555,0,0.0
HoIO,3.4546,-3.092498383333333,mp-753173,0,5.0
Ce2TlAg,0.0,-0.117943408749999,mp-1183716,0,0.0
Rb2NaSbCl6,3.052499999999999,-1.87563242763793,mp-989545,0,4.0
NbCoB2,0.0,-0.603037637083334,mp-20877,0,0.0
RbTi3Si2P6O25,0.0,-2.998718503658302,mp-1209312,0,0.0
BaSiB,0.0,1.162864000277778,mp-631544,0,0.0
Bi4O3F7,0.156,-2.301318686428572,mp-753832,0,0.0
Nd(MnCo2)4,0.0,0.058758227751988,mp-1104681,0,0.0
Na4InGaSi(PO6)2,3.3778,-2.545759306379506,mp-2714556,0,5.0
Li2Ti4P6O24,2.280934,,,0,3.0
ErCu4Au,0.0,-0.351131458333335,mp-1077290,0,0.0
IrAuN5Cl6,0.1207,1.039467920769235,mp-1212274,0,0.0
Na5Hf2Zr2Si3(PO8)3,4.3155,-3.167505429593806,mp-2714218,0,6.0
Sm2SiTeO4,2.0793,-3.277470313020834,mp-6055,0,3.0
Cu3AsS4,0.0,-0.27387824234375,mp-3345,0,0.0
ScFeRh2,0.0,2.32885932875,mp-1095879,0,0.0
Eu2ZnIn,0.0,-0.349925461666668,mp-1184464,0,0.0
Li4Sb4O12,2.138552,,,0,3.0
TlCuPS3,1.9735,-0.594400572996031,mp-1190539,0,3.0
MgCu3(BiO3)4,0.0,-1.31694427525,mp-1042728,0,0.0
Cs1Zn4As3,0.067083,,,0,0.0
Cs3P6N11,4.2176,-0.8142863672053561,mp-16108,0,6.0
NbZnRu2,0.0,-0.257951754999998,mp-864840,0,0.0
LiNdSe2,1.587299999999999,-1.9115091468229184,mp-37605,0,2.0
Mg4P6SN12,4.830500000000001,-1.048474256319875,mp-6137,0,7.0
Dy4Fe28BC,0.0,-0.088250632230391,mp-1226156,0,0.0
ScNb6Cl13O3,0.923999999999999,-2.1047936925,mp-667315,0,1.0
Na9Ca4Nb2(PO4)9,1.658599999999999,-2.858255549431102,mp-2715365,0,2.0
Nd2CuRu,0.0,-0.178804083906243,mp-864837,0,0.0
CaAl2B2O7,4.8228,-3.267489926111109,mp-557689,0,7.0
CeCuSn,0.0,-0.538675721666661,mp-22761,0,0.0
LiTbSn2,0.0,-0.457282546249999,mp-1078515,0,0.0
Pr2CuSn4,0.0,-0.561814143333333,mp-1220000,0,0.0
Ca2Mg5Si8(HO12)2,4.8269,-3.157632202134145,mp-1196550,0,7.0
RbGeIO6,2.4295,-1.520279379722222,mp-549697,0,3.0
Fe(RhS2)2,0.0,-0.6943667864285701,mp-10754,0,0.0