formula,bg,formation_energy,mp-id,fidelity,bg_category
HS2N(ClO2)2,4.0761,-1.103855826125,mp-1201798,0,6.0
LuMnSn2,0.0,-0.327198842816091,mp-1203057,0,0.0
SiNi6Ge,0.0,-0.340441519375,mp-1219193,0,0.0
LiInPt2,0.0,-0.633030456666666,mp-862774,0,0.0
Fe2SiS4,0.324099999999999,-0.6570295871428561,mp-1024054,0,0.0
Sr3Nd10Al12Si18(N2O)18,3.0869,-2.109219332319587,mp-1260118,0,4.0
Mg3(TaAl9)2,0.0,-0.116577614768116,mp-1198942,0,0.0
KU2(B5O12)2,0.195999999999999,-2.670686869700449,mp-1201877,0,0.0
Zr3As2,0.0,-1.049880229000002,mp-972228,0,0.0
FeCo,0.0,-0.055374125,mp-2090,0,0.0
Li(BH)4,1.7113,-0.223918387222221,mp-1211283,0,2.0
Sb3O4F,2.7753,-1.898026300625,mp-753510,0,4.0
Na2Cs4Au6C12N12,2.419078,,,0,3.0
SrMgPb2,0.4216,1.167903471250001,mp-1093825,0,0.0
Ba6Si6O18,2.135007,,,0,3.0
LaZnO3,0.0,-2.522841183999999,mp-1184965,0,0.0
Zn2TeBr2O3,3.3087,-1.509473885989582,mp-558350,0,5.0
Na2I2O8,1.824693,,,0,2.0
La8Cu7O19,0.0,-2.607607659558824,mp-1181551,0,0.0
Er3Sb4Au3,0.612499999999999,-0.8228336082142781,mp-1105695,0,0.0
TbGa2Pd,0.0,-0.863886184999998,mp-972423,0,0.0
V4NiS8,0.0,-1.1220229453846151,mp-696867,0,0.0
Mg(SiO2)8,2.322,-3.0602370198,mp-1233496,0,3.0
Sn4BRh6,0.0,-0.488198604015151,mp-30061,0,0.0
Nb6SI9,0.0,-0.8079748401562491,mp-654051,0,0.0
NaZr2TiF11,0.0,-3.735522496647509,mp-15056,0,0.0
LiCa9Mg(PO4)7,4.7063,-3.242132811268114,mp-686484,0,7.0
Zr19O40,0.1026,-3.575846019152542,mp-685070,0,0.0
CsBiSe2,0.9529999999999992,-0.8080232826562541,mp-1096942,0,1.0
RbAu(IO3)4,2.1073,-0.913650205972222,mp-1188141,0,3.0
Hg1S2O8C2H10,3.088802,,,0,4.0
Li2ZnGeO4,3.1053,-2.225629343333333,mp-8184,0,4.0
Cs2CrCl4,0.0,-1.872968705714285,mp-28497,0,0.0
Na9NbZn11(SO4)18,1.3958,-1.9806752037604851,mp-2715105,0,2.0
ErCo2(B2Rh)2,0.0,-0.499299696296296,mp-1225579,0,0.0
GdIn2Cl5,1.1082,-1.730154382499998,mp-1212862,0,1.0
U2Te5,0.0,-0.8960931192857191,mp-573810,0,0.0
TiWC2,0.0,-0.489941254166666,mp-1216690,0,0.0
YCrN2,0.0,-1.13908788453125,mp-1245561,0,0.0
Ta3Al4O14,0.0,-3.267546114380951,mp-1190518,0,0.0
Na2V2F4O4,2.232608,,,0,3.0
Mg4Nb2O9,3.4212,-3.091869043333334,mp-17841,0,5.0
Ho2Se3O20,0.4312,-0.7777941834812491,mp-1213090,0,0.0
LiNb7O12,0.0,-2.699049458166665,mp-772147,0,0.0
Ba3Nd3(Cu3O7)2,0.0,-2.23299144701923,mp-1228353,0,0.0
Cs2TlGaI6,0.5740000000000001,-1.123866864014369,mp-1112110,0,0.0
GeIr,0.0,-0.362193048749993,mp-208,0,0.0
AgH36C15S3N6Cl,3.46,-0.214160620430107,mp-1205047,0,5.0
Ba8Bi4Fe4S20,1.14343,,,0,1.0
YbIn5Ir,0.0,-0.434770097857137,mp-636565,0,0.0
CS5,0.539299999999999,0.679967819523807,mp-1215005,0,0.0
K2Hg3S3O10,2.3606,-1.590946711222223,mp-558792,0,3.0
Th2C3,0.0,-0.384807695499995,mp-1188514,0,0.0
Nb2Cr,0.0,0.6660999766666621,mp-1077258,0,0.0
NaLi2N,0.0,-0.275996250571119,mp-570998,0,0.0
Na2La4In4SiS11O48,1.1101,-2.314786729694172,mp-2714207,0,1.0
SmZnGe,0.0,-0.693451870833335,mp-1208849,0,0.0
Nd12Ni6Sn,0.0,-0.302752121315786,mp-542879,0,0.0
Te4Rh3,0.0,-0.435488722857144,mp-1025159,0,0.0
Sr8In4Cu3N5,0.0,-0.5929313110833331,mp-571541,0,0.0
YbNiC2,0.0,-0.46604550125,mp-1064469,0,0.0
MnZnCdTe3,0.406099999999999,-0.537457186321838,mp-1221520,0,0.0
KLaSiSe4,2.208099999999999,-1.564348765946428,mp-861606,0,3.0
Na10Ta4In4Si9(SO16)3,0.6686999999999991,-2.657419333020851,mp-2714202,0,1.0
Ba2PtAu,0.0,-0.7329175962499991,mp-675690,0,0.0
Rb2UBr5,0.504699999999999,-1.916837127187501,mp-1209530,0,0.0
Fe10CoN8,0.0,0.024444532105262,mp-1247037,0,0.0
LuGa,0.0,-0.7140119558333311,mp-1001613,0,0.0
Na7Sc4SiP5O24,4.5512,-3.046217887468362,mp-2715658,0,7.0
Na2PrCuCl6,3.361,-1.844187332166667,mp-1113375,0,5.0
Tl2Mo9Se11,0.0,-0.593870811122172,mp-1198146,0,0.0
Tm3Np,0.0,0.345724300312497,mp-1187729,0,0.0
AcYbRh2,0.0,-0.6750111106249931,mp-980005,0,0.0
Co1As2O6,1.987183,,,0,3.0
K2Ba3Sb4,0.3424,-0.7680351657777771,mp-531968,0,0.0
RbH4O3,0.416999999999999,-1.212907830625,mp-1219618,0,0.0
Zr6C(I7O5)2,0.0,-0.883355661451613,mp-1199921,0,0.0
NaGdHg2,0.0,-0.372562254375004,mp-1186166,0,0.0
K2SmP2S7,2.2591,-1.304387124273808,mp-555587,0,3.0
Na5Hf2Si3Sn2(PO8)3,3.3461,-2.887643776773294,mp-2714289,0,5.0
NaPr9Si6(SO12)2,3.145599999999999,-3.503513225985223,mp-1221010,0,5.0
Pr2Fe6Co8B,0.0,-0.077065348823529,mp-1199281,0,0.0
CsNa2BO3,3.2483,-2.224025207368637,mp-8871,0,5.0
ZrTiW4,0.0,-0.03846236083333,mp-1215175,0,0.0
Sc5(GeN3)3,1.8617,-0.953612823382352,mp-1247007,0,2.0
Li2ErIn,0.0,-0.357171304166666,mp-865579,0,0.0
Na5Ga7H12S13O6,2.9954,-1.220697341090617,mp-1204283,0,4.0
Mg149Hg,0.5682,-0.000680090049999,mp-1185579,0,0.0
Sc(BRu)4,0.0,-0.469604800185183,mp-1200617,0,0.0
Re3(PbS3)2,0.2053,-0.6764885368181811,mp-1209809,0,0.0
Rb4CuSi2O7,0.7041000000000001,-2.3968598675,mp-557618,0,1.0
Na4Ta2Si5Sn2SO24,3.0341,-2.765768363184666,mp-2715139,0,4.0
Mo2Fe1Cs1O8,2.07991,,,0,3.0
Ho2ZnHg,0.0,-0.391284630624998,mp-1184637,0,0.0
Sr16N16C4,1.172203,,,0,1.0
Ba2NdBiO6,1.683,-2.763932660750001,mp-546321,0,2.0
KBaNbS4,2.0731,-1.702888030321427,mp-16780,0,3.0
Y2Zr2SiS5O24,3.4546,-2.700621132083334,mp-2712992,0,5.0
H8Se2N2O5,3.646,-0.914378236305147,mp-722865,0,5.0
Pr5Sb3,0.0,-1.122030110416663,mp-1190256,0,0.0
NdH3CSO7,4.6221,-2.022735582980769,mp-1197612,0,7.0
KAlH6(OF3)2,7.1417,-2.337382004046875,mp-723378,0,7.0
Ca2TaInO6,0.0,-3.111972430399999,mp-1214135,0,0.0
Eu2CuS3,0.0,-1.7938099050000011,mp-1192020,0,0.0
Dy2CuSb3,0.128499999999999,2.3580181994444462,mp-1207340,0,0.0
In(CuN)3,0.0,0.568128558749998,mp-1147731,0,0.0
SrSi6,0.0,-0.061141213571429,mp-1009,0,0.0
NaHfMg14,0.0,0.102684391788793,mp-1026636,0,0.0
CdSO5,0.0,-1.262602108928571,mp-1192703,0,0.0
AlH7C2SCl4,4.6652000000000005,-0.820527590833333,mp-1198123,0,7.0
CuP4Se3Cl,1.6399,-0.412182346733631,mp-1196912,0,2.0
NaHg2Sb,0.175699999999999,0.5102758353125011,mp-1096017,0,0.0
MgZn2Pd,0.663999999999999,1.11015406375,mp-1097358,0,1.0
Pr6Fe13Si,0.0,-0.04451690275,mp-9537,0,0.0
Ca1Br2O6C6H24,5.216775,,,0,7.0
La2Cl6O18H12,2.617065,,,0,4.0
Ca2Sn3S8,1.1330999999999989,-1.190004422692307,mp-1100346,0,1.0
Ti3(Ni10B3)2,0.0,-0.425774017758625,mp-1193912,0,0.0
Na5ZrSc3(PO4)6,3.8232,-3.077090741104796,mp-2713446,0,6.0
Na2CuH2(SO4)2,0.0,-1.404779663350574,mp-1210745,0,0.0
CsH6Rh(N3O4)2,2.7874,-0.8098937507797811,mp-1195264,0,4.0
Na3GaSi3Ge3(SO8)3,2.1595,-2.242028607183908,mp-2714796,0,3.0
Ni12P5,0.0,-0.471399799992996,mp-2790,0,0.0
Ho2InPd2,0.0,-0.8716588713333281,mp-7241,0,0.0
LuMgCrS4,0.8926000000000001,-1.639961190952381,mp-1246966,0,1.0
Bi4Te4I4O12,0.0,,,0,0.0
Ca2ZnGe2O7,3.0488,-2.565611808749999,mp-18596,0,4.0
CoAs3,0.0,-0.295034004999999,mp-452,0,0.0
Cd5P3ClO12,2.1598,-2.179083453520407,mp-23643,0,3.0
Bi2B2O7,0.2188,-2.011912110757575,mp-756526,0,0.0
Ba2MgCuHgO4,0.0,-1.537805829722222,mp-2226422,0,0.0
Cs4Li2V2S8,1.870961,,,0,2.0
Lu2Co2C12N12,4.669211,,,0,7.0
PuOF,0.0,-3.593356927916668,mp-20230,0,0.0
Na2HgPdF6,0.0,-1.951963834525862,mp-1111157,0,0.0
Li2AcAl,0.0,-0.116891227222225,mp-1185001,0,0.0
Ca5P3ClO12,5.625299999999999,-3.312047423877551,mp-555164,0,7.0
Te2As2SI6(OF6)2,0.126899999999999,-1.434603378933333,mp-1101144,0,0.0
ThSbTe,0.0,-1.247597982222224,mp-1019361,0,0.0
Tm2Cu(GeO4)2,0.6673,-2.722467856538462,mp-1208044,0,1.0
Nb6Co16Si7,0.0,-0.517709478965516,mp-541938,0,0.0
Y3H2,0.0,-0.461271010500001,mp-569037,0,0.0
Cs11Tl6Cl29,1.6653,-1.6933647929610212,mp-1197143,0,2.0
Bi10Cs6Cu4S20,0.69167,,,0,1.0
TlCoBi,0.0,0.8453412447777751,mp-631546,0,0.0
LiCa2Sn,0.0,1.188042620416667,mp-1095800,0,0.0
NaCdIn2,0.2033,1.00108605382184,mp-1093636,0,0.0
K2UF6,0.0,-3.632473544944441,mp-1224157,0,0.0
ErLuCu2,0.0,-0.298483732499999,mp-1184202,0,0.0
Rb3Mo,0.0,1.204717359374999,mp-974933,0,0.0
K6Ba2CaU6O24,2.0426,-3.338218396243588,mp-1224235,0,3.0
VP,0.0,-0.8615036089880941,mp-1114,0,0.0
Na6Ti2O7,3.5301,-2.548764408662833,mp-778364,0,5.0
Na2Hf2Zn2SiS5O24,3.0217,-2.379242994081258,mp-2715569,0,4.0
Ti4ZnS8,0.0,-1.509660375641024,mp-1387289,0,0.0
CuTeO3,0.0019,-1.238739726333333,mp-558696,0,0.0
CsGaO2,2.9834,-2.097983166945042,mp-1213401,0,4.0
Cu5(AsO6)2,0.0912,-1.128087337105262,mp-1188383,0,0.0
UP2H15C5NO13,2.5868,-1.207132899811776,mp-1198886,0,4.0
Se4N4O16D4,2.54039,,,0,4.0
TiAuBr,0.0,0.253401070555555,mp-1100442,0,0.0
Lu2AlRu,0.0,-0.438247928333334,mp-973631,0,0.0
Ta2NbOs,0.0,-0.353501543666673,mp-864639,0,0.0
Li2CuPO4,1.3886,-2.30660807422619,mp-26851,0,2.0
Ta3Au,0.0,-0.054570624250004,mp-569249,0,0.0
Na3Mg(BO2)5,4.8134,-2.754812489143224,mp-683990,0,7.0
NdO,0.0,-3.073332891249999,mp-754545,0,0.0
Sm(CoP)2,0.0,-0.991340212857143,mp-573563,0,0.0
Nb1K7S6O24,2.801398,,,0,4.0
Sb2XeF12,2.7297,-2.255613694333317,mp-1193829,0,4.0
Hf2AlRe,0.1464,3.737959004375001,mp-1248522,0,0.0
Lu4Cu4Pb4Se12,1.389495,,,0,2.0
Au2O3,0.8689999999999991,-0.457853394999998,mp-27253,0,1.0
Be6N4,3.360261,,,0,5.0
TbCdNi4,0.0,-0.341966801111111,mp-1077082,0,0.0
Li7Ti7O16,0.0,-3.074287731555555,mp-34052,0,0.0
Rb3Pr,0.0,0.5838578264583331,mp-974662,0,0.0
Na3Ta2Si3Sn2(PO8)3,3.507899999999999,-2.84504287052432,mp-2712954,0,5.0
Na14Zn6Si5Sn2S7O48,1.230699999999999,-2.192223352542404,mp-2716020,0,1.0
La2P4O13,4.923500000000001,-3.1636110951879712,mp-771240,0,7.0
K2InAsCl6,0.5021999999999991,-1.554528238866666,mp-1112187,0,0.0
Ba2YCu2F11,0.8427,-3.3162703536458342,mp-1044526,0,1.0
La2ThSe5,1.118199999999999,-2.272254670664061,mp-1198974,0,1.0
K2Ca1Ni1N6O12,2.155035,,,0,3.0
Na2NbIn3Si2(SO6)4,0.9225999999999992,-2.251851096095147,mp-2712725,0,1.0
Mg2Sc,0.0,-0.013943961666666,mp-1185774,0,0.0
FePt,0.0,-0.231995889999999,mp-2260,0,0.0
KNa3Al4(GeO4)4,3.7542,-2.643202964156711,mp-1205426,0,5.0
Ti2AlMo,0.0,-0.345249995833333,mp-861627,0,0.0
Sr6YGa3(Cu2O7)3,0.0,-2.059063330067567,mp-1333973,0,0.0
TeMo2S3,0.413699999999999,-0.7477313080729141,mp-1217334,0,0.0
CeCu5Ag,0.0,-0.122010115238094,mp-1194241,0,0.0
ZnSO10,0.0,-0.051592204375,mp-1200369,0,0.0
Pu2Si4Tc3,0.0,-0.6751720252777821,mp-20934,0,0.0
Zn4FeCu10(SnSe4)5,0.0,-0.5980181912968751,mp-1216277,0,0.0
Bi24B2O39,2.075199999999999,-1.686977302666668,mp-775842,0,3.0
Cu4Mn2Ge2Se8,0.199629,,,0,0.0
PrSb2,0.0,-0.942220501388888,mp-1102202,0,0.0
Na3SbS3,2.3949,-1.032834377276785,mp-1193673,0,3.0
Tl2CuSe2,0.0,-0.202806839553574,mp-1207073,0,0.0
Eu(BiPd)2,0.0,-0.621575202000002,mp-1080767,0,0.0
K6S4F4O16H6,0.612989,,,0,0.0
Hg1Fe1S4C4N4,1.809001,,,0,2.0
UTlO3,0.2736,-2.9387770976667262,mp-865322,0,0.0
GdSe2,0.0,-1.789611787708328,mp-1018707,0,0.0
Nb3Fe3N,0.0,-0.483630028928573,mp-1194201,0,0.0
TeBrO3F5,2.7668,-1.561555379416667,mp-554523,0,4.0
Mg3Au,0.0,-0.392609770416664,mp-17783,0,0.0
Ba2YbSbO6,0.0,-2.998014517750002,mp-14294,0,0.0
MnGa6,0.0,-0.00311949421182,mp-1104563,0,0.0
ErCoC2,0.0,-0.350624124999998,mp-13501,0,0.0
Ga2FeSe4,0.0,-0.7180241691964281,mp-1078053,0,0.0
LaY(Co4B)2,0.0,-0.238645246944444,mp-1222740,0,0.0
LaH4C4NO8,3.2798,-1.6921319808333342,mp-557512,0,5.0
Ba(AlCl4)2,5.3891,-2.295567081363635,mp-30023,0,7.0
MnZn3(CrSe2)8,0.141,-0.846259150193964,mp-1221561,0,0.0
K3(FeS2)2,0.0,-0.90460924936111,mp-541447,0,0.0
Na2Ca9NdY5HoF41,6.107699999999999,-4.2180058785310734,mp-720432,0,7.0
KHfNbInO6,0.0,-2.775466161391666,mp-1516503,0,0.0
MnAl2Tc,0.0,-0.316107403232759,mp-1185976,0,0.0
Tm4MgTi2O10,0.151799999999999,-3.572974870098042,mp-2229419,0,0.0
LiPm3,0.0,0.155674056041668,mp-1185395,0,0.0
N2Cl2O4H8,3.053216,,,0,4.0
Na2HfTaSi2PO12,3.6194,-3.16968596033692,mp-2714945,0,5.0
Na10Sc4Si7Ge4S5O48,1.6853,-2.563258274375553,mp-2715919,0,2.0
Na2CuH12(SO7)2,0.8741,-1.527113143314793,mp-1196772,0,1.0
ScB(PO5)2,0.282599999999999,-2.306497367865646,mp-1209202,0,0.0
CaH8C6S2(NO4)2,2.5632,-1.113314341851851,mp-1214326,0,4.0
CsRb2TlF6,3.6496,-2.628411509798851,mp-1111451,0,5.0
Na6Y4Zr4Si5S7O48,2.8142,-2.82748212041589,mp-2715925,0,4.0
NdCrSb3,0.0,-0.588394532999998,mp-1209908,0,0.0
NaTi8O13,0.0,-3.245529319683909,mp-28649,0,0.0
ZnCuAsO5,0.4527,-1.4580736865625,mp-1207469,0,0.0
Nd5Rh4,0.0,-0.6467813172222201,mp-1201296,0,0.0
Ce4SmO10,0.0,-3.759123616999999,mp-1226911,0,0.0
La5Pb3I,0.0,-0.797210635555562,mp-31288,0,0.0
Ti3Cu4,0.0,-0.13434752285714,mp-2643,0,0.0
TiAl3,0.0,-0.433889631666666,mp-542915,0,0.0
CsBaPS4,2.3742,-1.490361739899717,mp-1192526,0,3.0
Hg1Cs2F4,2.066566,,,0,3.0
NaNbO2F,0.0,-2.735472987275861,mp-557590,0,0.0
Dy3GaFeSe7,0.0,-1.537373597825519,mp-1191229,0,0.0
YMg14Ni,0.0,0.03399701125,mp-1028247,0,0.0
CaMgNi4,0.0,-0.193812554166664,mp-13434,0,0.0
Mg(BeAs)2,0.404199999999999,-0.311679811999999,mp-865185,0,0.0
Na2Zr4Sc4Si3(S3O16)3,2.5995,-2.722717826575124,mp-2716392,0,4.0
Rb(CoS)2,0.0,-0.804153500499998,mp-560663,0,0.0
NdTlAg2,0.0,-0.248954253541667,mp-974782,0,0.0
Pr(ClO4)3,4.8980000000000015,-0.985875243541666,mp-29887,0,7.0
Lu(BC)2,0.0,-0.421629687000002,mp-10858,0,0.0
H9C4Se2N,3.5264,-0.091357550527344,mp-568817,0,5.0
Rb2TlAgI6,0.0,-0.963766696,mp-1111798,0,0.0
Pb1Sb2Te4,0.207264,,,0,0.0
Ce2MgCo9,0.0,-0.111526912916666,mp-1227012,0,0.0
In6TeO12,1.0099,-1.901781515087719,mp-22189,0,1.0
K5BaTaP4,1.267599999999999,-0.590815254286795,mp-1223894,0,2.0
KLu,0.0,0.5695006434999991,mp-973245,0,0.0
Cr3C2,0.0,-0.098586212499998,mp-20937,0,0.0
ThSi3Ir,0.0,-0.861921389000002,mp-1068869,0,0.0
TaVCu,0.0,0.072003800444439,mp-1217827,0,0.0
RbBaSc(SiO3)3,4.9748,-3.344169308333333,mp-1197457,0,7.0
LaBe13,0.0,-0.136425675000001,mp-1193251,0,0.0
MnCrSeS,0.0,-0.6236212019436961,mp-1221717,0,0.0
Ta13Al23,0.0,-0.300561538718524,mp-1217883,0,0.0
BaBPF10,7.2843,-3.383666902600732,mp-1199844,0,7.0
CaLaRh2,0.6927999999999991,1.00649494625,mp-1095715,0,1.0
Te4Pb5Se,0.412999999999999,-0.5173998659062531,mp-1217406,0,0.0
YbSi,0.0,-0.8845694450000031,mp-10651,0,0.0
Ag2SeO2,0.154,-0.099599672135416,mp-1215036,0,0.0
Tl2P2O8,0.438061,,,0,0.0
AgH18C4S4BrN8O,3.103,-0.47394312018018,mp-1200682,0,4.0
K2Pt(N2O5)2,0.6222999999999991,-0.690971657323529,mp-1189013,0,0.0
Na3Tc,0.0,0.9903270900862072,mp-1186008,0,0.0
Ta2Se2Cl10C4H12,2.201077,,,0,3.0
Al2CrB2Mo,0.0,-0.377522966485509,mp-1228929,0,0.0
Lu2AlZn,0.0,-0.414974569583332,mp-973538,0,0.0
Ba2SrUO6,2.2855,-3.509292623,mp-14552,0,3.0
Y3(ZnAu2)2,0.0,-0.806349250000001,mp-1216085,0,0.0
Ba2Ho2CuPtO8,0.2622,-2.68361437642857,mp-1214783,0,0.0
CsMg30BO32,3.376399999999999,-2.859895494200341,mp-1039625,0,5.0
CuPtF6,0.0814,-1.613711773125,mp-28488,0,0.0
Mg30CdSnO32,1.641499999999998,-2.879129550546874,mp-1095703,0,2.0
Na15Sn4,0.0,-0.21150782868421,mp-30794,0,0.0
LiMgP,1.7113,-0.75129741765873,mp-36111,0,2.0
Li1Au1C2,1.380599,,,0,2.0
RbPSe6,1.8728999999999991,-0.695075516400669,mp-17945,0,2.0
Ca2UO17,0.0,-1.098064653499999,mp-1205219,0,0.0
BaSmC2O6F,4.295999999999999,-2.90590646818182,mp-15073,0,6.0
Sr2InBiO6,0.6187,-2.302158729166667,mp-1518266,0,0.0
Tm3Ni11Ge4,0.0,-0.464205705555556,mp-1208110,0,0.0
LiGd(C2O5)2,1.1393,-1.612027000833332,mp-1212087,0,1.0
HoAgSn2,0.0,-0.423166764166664,mp-1223789,0,0.0
NpAl3Pd2,0.0,-0.6399809227083321,mp-1206258,0,0.0
Hg3Se4O5,1.8293,-0.822829030989585,mp-558456,0,2.0
SrGa2(SiO4)2,3.9438,-2.987542761153846,mp-14235,0,6.0
Cr3Ga,0.0,0.152237707499999,mp-1231,0,0.0
Cs2As3,0.447499999999999,-0.432719623362069,mp-15557,0,0.0
HoTlO2,1.4262,-2.722815777083333,mp-754555,0,2.0
ZrBi,0.0,-0.373875650833339,mp-30933,0,0.0
Fe3SbN,0.0,-0.038893239999998,mp-1246554,0,0.0
Ag2PO3F,1.0803,-1.769361049353741,mp-558151,0,1.0
Nd(Al2Fe)4,0.0,-0.404221595192307,mp-1104273,0,0.0
BaSrDySbO6,3.549699999999999,-3.085056982666665,mp-1518907,0,5.0
Nd6F17,0.697499999999999,-4.286477665386473,mp-531687,0,1.0
SrTiNbSnO6,0.0,-2.905083342833333,mp-1517760,0,0.0
Hf(Se2Cl3)2,1.3426,-1.036272630113638,mp-29420,0,2.0
Na7Ca2Ti2SiP5O24,1.7605,-2.862228231939905,mp-2715607,0,2.0
La2P2AuO,0.0,-1.880955056547619,mp-1095626,0,0.0
Na2Li1Al1D6,2.74987,,,0,4.0
La2(BiO2)7,0.0,-2.028920913043479,mp-753524,0,0.0
DyMg2Mo3S8,0.0,-1.177789186547618,mp-1246624,0,0.0
TmHg,0.0,-0.565094673750003,mp-11475,0,0.0
AlPd5,0.0,-0.462044958333332,mp-605663,0,0.0
CaSO6,1.9221,-1.701993453124999,mp-1197885,0,3.0
LiMg2Si,0.0,-0.015038488333332,mp-1067042,0,0.0
KC,3.274899999999999,0.240058434390626,mp-243,0,5.0
UNiSb2,0.0,-0.436923127499997,mp-1080551,0,0.0
CaNb2Bi2O9,0.0,-2.11722371607143,mp-555616,0,0.0
CuH6(SeO4)2,0.2459,-1.193212970422793,mp-733650,0,0.0
Al3P3H9C2NO13,5.31,-2.008765764038017,mp-772922,0,7.0
EuAg3,0.0,-0.176122236250002,mp-1184392,0,0.0
Li2AlRh,0.0,-0.5350247866666661,mp-30820,0,0.0
K2GeF6,5.799799999999999,-3.034860290499997,mp-7825,0,7.0
Gd5B3O13,0.0,-3.390067270119048,mp-1212669,0,0.0
Rb2NaLaCl6,4.6431,-2.466887044137931,mp-1114018,0,7.0
TmMgHg2,0.0,-0.424158312500002,mp-865981,0,0.0
K2TaCuCl6,0.0,-1.5647956101833331,mp-1112377,0,0.0
Hg2C4N4O4,3.610817,,,0,5.0
Be12Nb,0.0,-0.148409677692308,mp-568912,0,0.0
Na6Ta4Ti4Si9(SO16)3,2.0349,-2.958370087749223,mp-2713018,0,3.0
LiMg14V,0.0,0.103101078541667,mp-1028313,0,0.0
Mn4Cu4As4,0.066064,,,0,0.0
Sr4Zn2O12H12,3.030103,,,0,4.0
Tm10Ti6O27,1.9524,-3.786226298720932,mp-685862,0,3.0
Ce5Ga2Ge,0.0,-0.461171328749999,mp-1189602,0,0.0
KTlS2,1.164799999999999,-0.8647856995208341,mp-1211499,0,1.0
NbBiO3,0.0,-1.999815811000001,mp-1186216,0,0.0
Na5Y3HfSi3(SO8)3,3.5455,-2.848967395198202,mp-2713162,0,5.0
Tb3TlF10,5.8541,-4.134146750952381,mp-1208522,0,7.0
HfZnCo2,0.0,-0.246721101249999,mp-866096,0,0.0
P8Se20,1.156394,,,0,1.0
Ga4Li20O8,0.479454,,,0,0.0
CsCOF3,6.1248,-2.328574122025864,mp-14734,0,7.0
Na3Ca2Y2PS5O24,4.693099999999999,-2.62941963944903,mp-2712535,0,7.0
Rb1Se2Ga3O14H6,2.830697,,,0,4.0
W4Cu4F8O12,1.998522,,,0,3.0
YCCl,0.0,-1.427804618333335,mp-1206889,0,0.0
Nd7Pd3,0.0,-0.493289812749998,mp-1106115,0,0.0
Nd2AlNi2,0.0,-0.437260090999998,mp-1069330,0,0.0
Ba4CoNi3S8,0.0,-1.426833935625,mp-1228155,0,0.0
AlH15(OF)6,6.1309000000000005,-1.7891163374553571,mp-1229104,0,7.0
Lu6FeBi2,0.0,-0.414004870000005,mp-1205874,0,0.0
Cd13(In13Se27)2,0.0005,-0.7810949897838251,mp-680136,0,0.0
Li(NdSi)2,0.0,-0.5671532786666661,mp-1091362,0,0.0
KSbF6,4.9633,-2.90020621465625,mp-541908,0,7.0
SrI2,3.801999999999999,-1.961197940833329,mp-568284,0,6.0
BaLaEuSbO6,0.2517,-3.002975984500001,mp-1520390,0,0.0
Hg1F2,0.905002,,,0,1.0
InP2H6NO8,3.9258,-1.805672853941798,mp-1201067,0,6.0
LaHoSi2O7,4.9618,-3.674736055681818,mp-1222979,0,7.0
YSe2,0.127299999999999,-1.798971327708334,mp-1232213,0,0.0
Tb4NiB13,0.0,-0.453450833935184,mp-1202802,0,0.0
Na6Y8Si3(S3O16)3,3.5499,-2.743491641114088,mp-2713947,0,5.0
Sb8Cl2O21,0.0,-1.165989116774193,mp-727928,0,0.0
Hf2GaSb3,0.0,-0.5059647016666701,mp-1018709,0,0.0
Sc(GaCo)6,0.0,-0.061384994384608,mp-1219518,0,0.0
Hf2BiB,0.0,0.9424658864583292,mp-631558,0,0.0
Lu5Sc5(Si5Ir2)4,0.0,-0.8143678062719291,mp-1222705,0,0.0
Pr3InN,0.0,-0.999355070749996,mp-20990,0,0.0
TeP6H30(NO4)6,3.6744,-1.468530022119758,mp-707206,0,5.0
La3ScBeS7,0.9344,-2.195395254375,mp-866696,0,1.0
TlCdSe2,0.0,-0.561064014505209,mp-998946,0,0.0
TmCuS2,1.6576,-1.591410292656252,mp-12455,0,2.0
Ba8LiTa7O24,0.0,-3.299643312116667,mp-772523,0,0.0
ZnOF,0.0,-1.588446188333333,mp-1215626,0,0.0
Na2Zr12B2I5Cl23,1.2537,-2.001510168206635,mp-532604,0,1.0
PuPbO3,0.0,-2.469338892749996,mp-1186799,0,0.0
Dy2Ge6Pd,0.0,-0.572451761481479,mp-1202284,0,0.0
Na4Hf2Sc2Si3(SO8)3,3.1062,-2.8847143542460683,mp-2713638,0,4.0
Tl2P4Pd3O14,1.1747,-1.996893419575592,mp-1194963,0,1.0
LuAl8Ni3,0.0,-0.350553043527777,mp-1222497,0,0.0
NaAg2Pd,0.051999999999999,1.355082354374989,mp-1093746,0,0.0
BaNb2Xe5F22,2.6409,-2.194228877666667,mp-1192672,0,4.0
Mg5MnSb4,0.0,-0.298246914293103,mp-1222105,0,0.0
TbBi2ClO4,1.3439,-2.462889460833334,mp-547125,0,2.0
BaMg6BiO8,0.539099999999999,-2.330030460624999,mp-1033406,0,0.0
Bi2O18B8H6,4.215085,,,0,6.0
Th2Si3Pt,0.0,-1.052147630833332,mp-1217278,0,0.0
CsClO3,5.5682,-1.154319855931034,mp-779389,0,7.0
LiZrO2,0.0,-2.951050153333334,mp-755253,0,0.0
Er3FeGe3,0.0,-0.662668993571428,mp-1104653,0,0.0
Sr4CN4,1.2186,-0.84473969111111,mp-567601,0,1.0
Li2PrIn,0.0,-0.408762071249999,mp-866196,0,0.0
NaP(HO)6,5.5455000000000005,-1.765188300608726,mp-696157,0,7.0
Ti3(TeSe)2,0.0,-1.211805134002976,mp-1217118,0,0.0
InCoSi2,0.0,0.6061652174999991,mp-631694,0,0.0
Tb5(In2Ni)2,0.0,-0.5142941377272711,mp-1191784,0,0.0
Nd2P2AuO,0.0323,-1.776769579047618,mp-1103406,0,0.0
Na6HfMg3Si2(SO6)4,3.0787,-2.538505629248563,mp-2712732,0,4.0
K4Cd1As2,0.6831689999999999,,,0,1.0
P6N12Cd4S1,3.01851,,,0,4.0
NiI,0.0,-0.053076927499999,mp-973936,0,0.0