formula,bg,formation_energy,mp-id,fidelity,bg_category
Zn2IrRh,0.145,2.3901516275,mp-1097172,0,0.0
NaTaAl(PO4)3,3.476099999999999,-2.986864669591179,mp-2713437,0,5.0
Ba2HoNbO6,2.8516,-3.4687507135,mp-12641,0,4.0
Na2Hf2Mg2SiS5O24,2.9264,-2.569085478988666,mp-2715558,0,4.0
Mg14MnNi,0.0,0.09230657700431,mp-1028195,0,0.0
Na4Y2Si(PO6)2,3.8516,-3.038937600308078,mp-2714558,0,6.0
Cs3Sr,0.0,0.171510612385056,mp-1183952,0,0.0
ZrB2O5,3.7962,-3.1929747007291662,mp-559571,0,6.0
Zr5(Te2P)2,0.0,-1.24684244508658,mp-1215367,0,0.0
Na10Zn6Si3Sn2(S3O16)3,1.6365,-2.096316820999484,mp-2714866,0,2.0
NaNbZn3(SO4)6,0.7598,-1.97946280903941,mp-2714661,0,1.0
MgSb3XeF23,1.6103,-2.306906462946429,mp-1195096,0,2.0
Ta2H36C12N6Cl2O,2.6784,-0.350125133002824,mp-1198552,0,4.0
Li(CO)2,2.2184,-1.351057391666667,mp-546920,0,3.0
P3NCl12,1.9710999999999992,-1.071170401026785,mp-569386,0,3.0
Cu6O32C16Na4H16,1.221031,,,0,1.0
La4Al6O15,4.345299999999999,-3.5918759578,mp-1024042,0,6.0
SrPb2I6O7,0.0,-0.348000799687499,mp-1201873,0,0.0
Mg3NbO4,0.0,-2.447695585624999,mp-1023920,0,0.0
K2MgH12(SeO7)2,3.945699999999999,-1.524795808360886,mp-1198329,0,6.0
Zr3In,0.0,-0.304234531250003,mp-20695,0,0.0
Na6Sc2Al2Si3(SO8)3,3.1518,-2.717510823269397,mp-2716137,0,5.0
LiInAu2,0.0,-0.458102386666666,mp-867287,0,0.0
LiH20C8BrO4,4.7535,-0.485033432598039,mp-738609,0,7.0
Ce2BiO2,0.0,-2.869922813999996,mp-23003,0,0.0
Rb2SmAuCl6,2.2894,-2.025409937,mp-1113640,0,3.0
Y4GeO10,0.0,-2.906843370333334,mp-1216141,0,0.0
CaTi4O8,0.0,-3.388729337948717,mp-1387047,0,0.0
TmPd3,0.0,-0.953765537499997,mp-982,0,0.0
CrFe2Sn,0.0,0.25434606875,mp-1008226,0,0.0
LiAc2Ga,0.0,-0.261359985416667,mp-862613,0,0.0
GdFe10Mo2N,0.0,-0.115548991785713,mp-1226068,0,0.0
MgZrZn2,0.0,-0.19886775625,mp-1185622,0,0.0
YP4NO12,0.0,-2.321322884503969,mp-1200252,0,0.0
Zr3TiCu2,0.0,-0.1163554688888899,mp-1215384,0,0.0
Ho(GeRh)2,0.0,-0.8711544749999981,mp-569650,0,0.0
Tb2Co12P7,0.0,-0.7836010888492061,mp-980937,0,0.0
LaTiAlPbO6,1.8555,-3.191545713833334,mp-686726,0,2.0
NpMn2,0.0,0.18578883179597,mp-1859,0,0.0
AlCu2Sb(HO)12,0.0,-1.402724558988095,mp-532554,0,0.0
Ge3H,0.0,0.5399889559375001,mp-1184556,0,0.0
La3PtI3,0.1793,-1.491130473571429,mp-1211495,0,0.0
Na2PH3O5,4.8148,-2.055477281468316,mp-644245,0,7.0
TiS2N,0.0,0.006619856666667,mp-1063927,0,0.0
BeRu2W,0.0,-0.206969273749999,mp-862622,0,0.0
Ba2GdCu2HgO7,0.0,-2.077383540576923,mp-1214867,0,0.0
ScReTc2,0.0,-0.202172446875003,mp-862609,0,0.0
Zr5P7Pd9,0.0,-0.93365491345238,mp-29932,0,0.0
MgMo3S4,1.2065,-1.045445640625,mp-677217,0,1.0
Na15CaNb11(SiO4)18,2.4488,-2.978720330005895,mp-2713142,0,3.0
LiRuPbO3,0.0,-1.226662028055556,mp-1236510,0,0.0
LiB6S4(Cl3O4)2,1.509399999999999,-1.354287028933333,mp-1196966,0,2.0
LiAlH4,4.7457,-0.217149126527777,mp-27653,0,7.0
Cd8As4O16F4,1.676215,,,0,2.0
RbMg14Ni,0.0,0.18991776328125,mp-1028374,0,0.0
GdDyZn2,0.0,-0.360958308749996,mp-1184524,0,0.0
PO3,0.5789999999999991,-1.939241882410714,mp-1209592,0,0.0
Na6La2Ta6Si9(SO16)3,2.611799999999999,-2.959387247406882,mp-2713006,0,4.0
Lu10Al4Ge11,0.0,-0.675690976866667,mp-1222866,0,0.0
C2SeS2O7F6,7.103,-1.62844788235243,mp-557877,0,7.0
La4Au2O9,1.892299999999999,-2.8411514525,mp-9160,0,3.0
Na3SbS4O9,2.493499999999999,-1.622875623184584,mp-734169,0,3.0
Pr2TlAg,0.0,-0.307970379583333,mp-978085,0,0.0
Ag6O2,0.0,,,0,0.0
V2FeSe4,0.0,-0.835282899910714,mp-1025182,0,0.0
SrLaAlO4,2.8439,-3.5491682278571433,mp-1218184,0,4.0
K5Br4Cl,4.3415,-2.060305979624999,mp-1223780,0,6.0
Cu2As3,0.0,0.174705179,mp-1245668,0,0.0
LiMg14Fe,0.0,0.099301425416667,mp-1027926,0,0.0
Bi6P2O15,0.0,-1.939901304534162,mp-767410,0,0.0
Mg15Co,0.0,0.065632021093749,mp-1023624,0,0.0
Pb3(IO6)2,0.7997999999999991,-0.9607244969117652,mp-1195077,0,1.0
Ba6Tm2Al4O15,3.888499999999999,-3.430331428703704,mp-1214515,0,6.0
Rb2YTlCl6,4.1524,-2.258796112833334,mp-1114000,0,6.0
Rb6Nb6H14O27,0.247699999999999,-2.03661328995283,mp-1220940,0,0.0
Cs2RbTlI6,0.6116,-1.202185388014368,mp-1112510,0,0.0
LaErO3,4.4376,-3.938616242,mp-7538,0,7.0
Na2Gd2B2O7,3.061,-3.130948937199381,mp-583646,0,4.0
Er2BPd6,0.0,-0.8418337843518481,mp-1225046,0,0.0
Sn8Sb8S20,0.6571,,,0,1.0
Co2S3,0.0,-0.480042951687499,mp-1183728,0,0.0
B5F6,3.296999999999999,-1.960301607272729,mp-30936,0,5.0
Fe3SiN4,0.0,-0.371752036875001,mp-1246800,0,0.0
BaRh2,0.0,-0.090883238333335,mp-568430,0,0.0
SiH8(CBr)4,4.2427,-0.245799023235294,mp-1198339,0,6.0
LiTaF6,5.9035,-3.455313644249999,mp-1080679,0,7.0
LiCeS2O9,0.358899999999999,-2.25407463948718,mp-1198410,0,0.0
Tb4Bi3,0.0,-0.8992822057142901,mp-570759,0,0.0
Sn3Sr3Cu6S12,0.7997449999999999,,,0,1.0
Tm2CoIr,0.0,-0.6025380450000031,mp-865309,0,0.0
Ba2AlTlSn2O7,0.0,-1.938131338333332,mp-1046027,0,0.0
NbSeN,0.0,-0.736369001807868,mp-1246323,0,0.0
Na3NbZnSi2SO12,1.534,-2.479751795581897,mp-2714513,0,2.0
Tm(NiP)2,0.0,-0.998033589857144,mp-570100,0,0.0
PrPtF7,2.4352,-2.905339645462958,mp-17446,0,3.0
ErCo3P2,0.0,-0.934474517936506,mp-1197872,0,0.0
Ca3Ge3Au8,0.0,-0.5115259946428561,mp-1227773,0,0.0
HoAlAu,0.0,-0.893311231666667,mp-1102992,0,0.0
Sc20O19,0.0,-3.162139099615384,mp-684697,0,0.0
Ce2(B2Rh3)3,0.0,-0.6956440355882321,mp-1227070,0,0.0
Si2Sn13(SbO14)2,0.492899999999999,-1.882921094333332,mp-1044174,0,0.0
I3N,0.0,0.812030718124999,mp-1190039,0,0.0
Fe2Si5,0.0,-0.259145679285714,mp-1225170,0,0.0
Al2W2O8,1.123838,,,0,1.0
VNCl4,1.2419,-0.8677314474999901,mp-27868,0,1.0
I8Cl16K8,2.351361,,,0,3.0
KMg14Ga,0.0,0.098824084703125,mp-1026859,0,0.0
Ba2CuBrO2,2.307299999999999,-2.365879127499999,mp-552934,0,3.0
Al5Re24,0.0,-0.106053192241374,mp-1192984,0,0.0
MnCo2Sn,0.0,-0.108265855732759,mp-20840,0,0.0
K2AlAuCl6,0.8600000000000001,-1.6952945814499991,mp-1112440,0,1.0
Dy5B2C5,0.0,-0.612011350624998,mp-18628,0,0.0
Cs2AsBrCl6,0.0675,-1.432586326181034,mp-989511,0,0.0
MgCoGe,0.0,-0.2235747,mp-1018808,0,0.0
HoCuP2,0.0,-0.967022948988095,mp-30195,0,0.0
Ba2LuNbO6,2.847899999999999,-3.506273435666666,mp-12644,0,4.0
Na3HfSi2SnPO12,3.3857,-2.895146693814038,mp-2715231,0,5.0
Eu2AgPd,0.0,-0.482664801666672,mp-1183902,0,0.0
Na3La,0.0,0.290165338836207,mp-1186114,0,0.0
K3NpO8,0.105099999999999,-1.772196550875,mp-1192453,0,0.0
Er2CuPt,0.0,-0.860273706666667,mp-862940,0,0.0
Sm2Cl2O,0.0,-1.652083085000001,mp-1208887,0,0.0
Ca2MgP2(H2O5)2,5.3863,-2.621099851541352,mp-23717,0,7.0
Ti(CrSi3)2,0.0,-0.297082842962963,mp-1217270,0,0.0
Na21Nb8Zn4Si15(PO24)3,1.761,-2.774959392950359,mp-2714325,0,2.0
Na5Ca2Ta2SiP5O24,2.4264,-2.910802839267799,mp-2715971,0,3.0
HfZn(SO4)3,4.8209,-2.247044126029412,mp-2713876,0,7.0
Ho2Pa2O5,0.0,-2.64752144611111,mp-1184810,0,0.0
Tm(Fe2Si)2,0.0,-0.452499092142858,mp-1104799,0,0.0
Tm2Mn12GaGe11,0.0,-0.314201469910478,mp-1216985,0,0.0
RbAlCuF6,0.0,-3.039467765,mp-1209376,0,0.0
Ba51(Pd12O5)2,0.0,-0.94655321717647,mp-1229286,0,0.0
TiPb(S2O7)3,2.7366,-1.9264472816666671,mp-1203799,0,4.0
HIO4,1.5105,-0.702473125208333,mp-1224433,0,2.0
Sb4S8N4C4H12,0.8929539999999999,,,0,1.0
Na6Ca2Si5Ge6S7O48,0.7882,-2.236304264830305,mp-2715995,0,1.0
Tb3GaO6,3.605399999999999,-3.579312696749999,mp-31112,0,5.0
Nb5P3,0.0,-0.871207835022321,mp-648999,0,0.0
Cs4Bi4Ag8S12,1.001029,,,0,1.0
HoErCu2,0.0,-0.276176987083335,mp-1184750,0,0.0
Ac3Zn,0.0,0.051860592239577,mp-1183116,0,0.0
Ga10Si2O19,2.2561,-2.388993646129031,mp-768931,0,3.0
MnPt3,0.0,-0.353653399482757,mp-1180,0,0.0
AlS2(NCl2)2,1.046199999999999,-0.671159369965276,mp-557272,0,1.0
Rb4V4P4Cu2O24,1.653473,,,0,2.0
Na3TaTi(SiO4)3,3.0383,-3.076363538656898,mp-2715475,0,4.0
PrGaAu2,0.0,-0.597683749791666,mp-976125,0,0.0
SbS(BrF2)3,2.532,-1.8641572904545451,mp-555288,0,4.0
Sm3Eu3S8,0.0,-2.342188863571428,mp-675396,0,0.0
Sr3CaAl8H24(C2O11)4,5.0444,-2.166924278977272,mp-1218664,0,7.0
Ba2YTi2TlO7,0.0,-3.007942628846154,mp-1046020,0,0.0
Cs3Tm11Te18,0.9707,-1.647634144375,mp-1201357,0,1.0
BPd4,0.0,0.004238579750003,mp-1228682,0,0.0
MnCoGe,0.0,-0.193154482643678,mp-21286,0,0.0
Cs3Y2Cl9,4.8945,-2.47087584875,mp-1192829,0,7.0
Nd2CoSi3,0.0,-0.5932798849999961,mp-1220282,0,0.0
U2PCl11O,0.0,-2.016506684476189,mp-1196133,0,0.0
TmGeIr,0.0,-0.953393797500008,mp-1102700,0,0.0
Sm(ZnGa)2,0.0,-0.485758990000001,mp-1219174,0,0.0
HfSnRu2,0.0,-0.7016819350000031,mp-866219,0,0.0
Ba10Re3O22,0.0,-2.660433894214285,mp-1203847,0,0.0
P2HNF4,4.8939,-1.929655789129464,mp-758989,0,7.0
RbGdS2O9,0.827499999999999,-2.184441951923077,mp-1211017,0,1.0
Cs2Rb4Pd2F10,2.310158,,,0,3.0
Sr10Sm6Al6Si30N54O7,2.9163,-1.663871178716814,mp-560093,0,4.0
Rb3SbF12,0.5611,-2.06011305703125,mp-1209744,0,0.0
K2SrBe2F8,7.162599999999999,-3.592963974961538,mp-12626,0,7.0
ScZnAg2,0.1718,1.496792015416667,mp-1097467,0,0.0
CsInI3,0.0,-1.15781627026437,mp-998314,0,0.0
RbCeMg6O8,0.371399999999999,-2.585249413593749,mp-1031089,0,0.0
AlCdSbTe,0.7791,-0.430926161666665,mp-1228925,0,1.0
BeH8(NF2)2,6.801,-1.565097325166666,mp-24614,0,7.0
LuZnPt,0.0,-0.9986656638888892,mp-1210625,0,0.0
Hf2Co7,0.0,-0.222675214985144,mp-1079776,0,0.0
Cs12Mg4H20,2.47667,,,0,3.0
MgTlO3,0.0,-1.195977604666668,mp-1185613,0,0.0
Na5GaO4,2.4236,-1.805002025939654,mp-7656,0,3.0
SmMnGe,0.0,-0.454054452643678,mp-1219329,0,0.0
Ba2Zn3As2O2,0.456402,,,0,0.0
Sr4Sc8Te16,0.465209,,,0,0.0
Tl(IO3)3,2.1696,-0.8475369471795051,mp-972032,0,3.0
InBr2,2.4137,-1.152392488888888,mp-568108,0,3.0
Eu2Se3,0.0,-1.727511991124998,mp-1189540,0,0.0
Na10Zr5Zn3(PO4)12,3.5336,-2.849834191617616,mp-2716290,0,5.0
Y2NiPt,0.0,1.7705958000000002,mp-1098698,0,0.0
Y3Mg2Si3O13,0.0,-3.359704694761906,mp-1207885,0,0.0
BaCaHfNbO6,0.0,-3.380671266999999,mp-1521804,0,0.0
Mg30AlBiO32,0.292899999999999,-2.890488282187499,mp-1038205,0,0.0
Ba2B10O17,5.7815,-2.99083868178161,mp-1019522,0,7.0
Sr12Al4As12,0.960705,,,0,1.0
Mg6ZnCr,0.0,0.146244200625,mp-1022618,0,0.0
Dy5B3O13,0.0,-3.440238323849206,mp-1212938,0,0.0
CsS2N(O2F)2,5.5362,-1.783460926715517,mp-541750,0,7.0
HoAl3(PbO4)2,3.117899999999999,-2.986323307857142,mp-8888,0,4.0
K11Cd2Sb5,0.5584,-0.5726775039583331,mp-1194660,0,0.0
W8Cs10Na2N20,1.791623,,,0,2.0
KZrSnSbO6,2.7769,-2.382344117225,mp-1516231,0,4.0
Sr6Ga4P8,1.068828,,,0,1.0
Sr2Ta2O7,2.928,-3.499453334060604,mp-13664,0,4.0
Gd4GaSbS9,1.5642,-1.844906339999998,mp-1199284,0,2.0
Ba4As4V4O24,2.680558,,,0,4.0
ErFe2SiC,0.0,-0.522678315999999,mp-1206739,0,0.0
Cs2RbAuCl6,0.1911,-1.593291858681035,mp-1112523,0,0.0
LuNi2,0.0,-0.494506283888888,mp-2130,0,0.0
Na11Ti10O21,0.0,-2.7488428468691852,mp-532249,0,0.0
CsSbS2,1.736399999999999,-0.854614326406252,mp-561639,0,2.0
CuAg5As3O11,0.009399999999999,-1.115236050041666,mp-556402,0,0.0
Lu2RuRh,0.0,-0.7752929083333311,mp-865601,0,0.0
BaTl3,0.0,-0.289495290000002,mp-984725,0,0.0
CeSi2Ni9,0.0,-0.479123864999999,mp-1191823,0,0.0
H11C4NO10,3.4486,-1.242136370144231,mp-560323,0,5.0
Al2Pb3F12,5.266,-3.187346978088234,mp-14941,0,7.0
Tl2CoSe2,0.0,0.597397689474996,mp-1207273,0,0.0
K3PSe16,1.1164,-0.342337343694642,mp-29947,0,1.0
CeSiPt3,0.0,-1.054200257999992,mp-1207119,0,0.0
Ho2Sb2O7,1.8314,-2.825480507575756,mp-780448,0,2.0
BPBr6,2.7247,-0.87197091328869,mp-1201622,0,4.0
Au2Cl14Te2,1.413294,,,0,2.0
CeCu5Sn,0.0,-0.222549439285711,mp-637204,0,0.0
Y3CuGeS7,1.7881,-1.712041366041666,mp-556781,0,2.0
RbSi2N3,3.4111,-0.9587605529166672,mp-1245922,0,5.0
Na15Ca7Nb5(PO4)18,1.9294,-2.835846814993684,mp-2713476,0,3.0
Y(BO2)6,0.1572,-2.642711075526316,mp-1200404,0,0.0
MgCo4(NiS4)2,0.0,-0.7025655123333321,mp-2232296,0,0.0
Cr12As4C3N,0.0,-0.133197193499998,mp-1226081,0,0.0
Sm3Co6Sn5,0.0,-0.328608953571428,mp-22002,0,0.0
Na4NbAl(SiO4)3,2.6686,-2.91562779891352,mp-2716384,0,4.0
LaCuSO,1.668499999999999,-2.355128379375,mp-6088,0,2.0
Yb(Al2Cu)4,0.0,-0.332828187307692,mp-1104848,0,0.0
UH12(NO7)2,2.423899999999999,-1.474590626379309,mp-720789,0,3.0
GaTc2W,0.0,-0.174587085000002,mp-865746,0,0.0
NaHf2TiF11,0.0,-3.818279509980842,mp-1220815,0,0.0
CS2NClO2,2.7134,-0.671606195357143,mp-23150,0,4.0
SbClO,3.1726,-1.605962536666666,mp-504662,0,5.0
Mg(PbN)2,0.0,-0.079741332999999,mp-1247051,0,0.0
Mg3P2,1.7980999999999991,-0.647706519857142,mp-2514,0,2.0
SmV2(FeCo)5,0.0,-0.054786770384616,mp-1219062,0,0.0
K5SnAs3,0.5222,-0.420843784305555,mp-16989,0,0.0
KMgPO4,4.7791000000000015,-2.909216694198978,mp-558795,0,7.0
Cs2TlAgCl6,0.0,-1.5787584944310251,mp-1113442,0,0.0
Cr4Fe1Cu1S8,0.152671,,,0,0.0
Sm3Si2ClO8,4.5816,-3.624159441071429,mp-23622,0,7.0
PrYTl2,0.0,-0.478961765416663,mp-982017,0,0.0
CaAsO7,1.095999999999999,-1.186862147083333,mp-1215135,0,1.0
CsNa5(WN3)2,1.8273,-0.595201752789409,mp-581834,0,2.0
NdAlH6,2.0357,-0.381056153749999,mp-1078999,0,3.0
Nb6BiTe8,0.0,-0.5842331348888881,mp-1220488,0,0.0
Nd2Fe14C,0.0,-0.01275123970588,mp-1199650,0,0.0
Be13W,0.0,0.8667784208928571,mp-1215017,0,0.0
Nd4Ga2S5O4,2.9949,-2.6222761888333332,mp-558333,0,4.0
SmB7(HO2)8,5.7436,-2.372665259505208,mp-1199202,0,7.0
Tl2V6O16,1.910144,,,0,3.0
Al3Fe,0.0,-0.154061757499999,mp-984873,0,0.0
Mg3BO6,0.0,-2.346346504916666,mp-1189526,0,0.0
V(ZnN)2,0.0,-0.159767387,mp-1393899,0,0.0
K4Cu4F4C4O12,1.268625,,,0,2.0
Li2Y14Ti14(S2O5)7,0.0,-3.233333792447256,mp-774554,0,0.0
Na6Sc4Al4Si3(S3O16)3,3.2618,-2.60176803210508,mp-2713834,0,5.0
Al2P2NO8,3.667,-2.4535991360989,mp-1214928,0,5.0
Nd6Mn16Ni7,0.0,0.039829460624257,mp-1193759,0,0.0
GdH(SeO4)2,2.8802000000000003,-1.7692892116406251,mp-1203437,0,4.0
Dy3TaO7,3.408299999999999,-3.860788213393936,mp-755652,0,5.0
Na3MgSn(PO4)3,2.5606,-2.644980366403325,mp-2715479,0,4.0
Hg4PHNO7,0.0,-1.003433588099491,mp-1212483,0,0.0
PH14C4NO4,5.5565,-0.7908866437351191,mp-1203912,0,7.0
Na9Ta2Zn4(PO4)9,2.6294,-2.620743566786657,mp-2715473,0,4.0
Er2Pt,0.0,-1.080020761388889,mp-30610,0,0.0
Th3U3P8,0.0,-1.361262671343533,mp-1217411,0,0.0
CaSn2(PO5)2,2.4805,-2.596076468619047,mp-1043566,0,3.0
Pr6Fe13Sn,0.0,-0.07049879325,mp-1197173,0,0.0
ScZnRh2,0.0,-0.7752742837499991,mp-867769,0,0.0
Ce10Se19,0.0,-1.9408401060183171,mp-652044,0,0.0
Ni21(SnB3)2,0.0,-0.281091989827585,mp-21573,0,0.0
Sr10Ge4N12,1.354863,,,0,2.0
MgSnBiO5,0.0,-2.00647238375,mp-1042377,0,0.0
Na3BiH8O7,3.893699999999999,-1.469063229691469,mp-1202144,0,6.0
LiZn(HCl)3,1.6197,-0.7426871208854161,mp-1211644,0,2.0
Hg7(PO5)2,1.6085,-1.3996353450939891,mp-29958,0,2.0
Dy2Sn2O7,2.7123,-3.027287646212119,mp-20845,0,4.0
Si2Rh3,0.0,-0.854004504000002,mp-1207013,0,0.0
MgCuSb,0.0,-0.325658744999998,mp-3522,0,0.0
AsIrS,1.863,-0.699005755937501,mp-1228823,0,2.0
MgTi5,0.0,0.066651698055556,mp-1094322,0,0.0
ZnCu2(SnO4)2,0.2845,-1.375599337884615,mp-1041311,0,0.0
LaBrO,3.7256,-3.411858679999999,mp-23023,0,5.0
Pr3AsBr3,0.0,-1.835831351428576,mp-1209432,0,0.0
Y4MgIr,0.0,-0.391530479166666,mp-1207822,0,0.0
Co4Os,0.0,0.146557017999995,mp-1226016,0,0.0
DyAl4Ni,0.0,-0.55090449861111,mp-31180,0,0.0
Er4Ga21Ni10,0.0,-0.505993655642856,mp-1184507,0,0.0
SbCl3F2,1.8283,-1.7644496987500011,mp-29391,0,2.0
LaRe3O16,0.0,-1.31369480625,mp-1203779,0,0.0
LuTiClO3,3.0696,-3.5472499799999992,mp-1210698,0,4.0
KSeO4,0.0,-1.277096745557292,mp-735141,0,0.0
RbNaTi2(PO5)2,3.0461,-3.018798374364481,mp-1209409,0,4.0
Bi2Se4Cu6Br2O16,1.027971,,,0,1.0
Sc,0.0,0.0,mp-67,0,0.0
Sc2Sb,0.0,-0.8804195516666671,mp-7192,0,0.0
Rb3Ti3Te11,0.0809,-0.9940920097549,mp-505639,0,0.0
PmSbRh2,0.0,-0.670716754375,mp-862955,0,0.0
Os4SeS11Cl8,0.1225,-0.569880106035155,mp-1220410,0,0.0
Cs8Te4K8O20,2.021483,,,0,3.0
Na3Co,0.0,0.661498431336206,mp-1006112,0,0.0
Ba3Dy(BO2)9,5.1786,-3.1326509764247312,mp-1214634,0,7.0
Na3LaZr3Si3(SO8)3,3.4771,-2.865451264368593,mp-2714917,0,5.0
Ce2Zr2O7,0.0,-3.813959809090908,mp-560329,0,0.0
CdHgSeO6,0.0,-0.823858123871528,mp-1190127,0,0.0
LaNi3B,0.0,-0.441663717833339,mp-1205795,0,0.0
TeAsOs,0.6915999999999991,-0.171871186249992,mp-1208287,0,1.0
Zn(ReO4)2,3.992,-2.101178606818182,mp-10326,0,6.0
In5S4,0.0,-0.5279782604166661,mp-22846,0,0.0
LiDy2Br5,0.1202,-1.771922923333332,mp-29431,0,0.0
Sr2Ca2Cu3BiO8,0.0,-2.024991963124999,mp-1173287,0,0.0
Th2Fe17C,0.0,-0.036517892749998,mp-1217390,0,0.0
Yb(MnSi)2,0.0,-0.6740550407931061,mp-13398,0,0.0
La3Rh2,0.0,-0.661728863000001,mp-1104495,0,0.0
Nb4O8I4,0.914204,,,0,1.0
Sm2Ga2Fe12Co3C,0.0,-0.073674288999998,mp-1219365,0,0.0
Na1Cl1,5.297766,,,0,7.0
SrH6C6S2N2O7,2.7544,-1.107515460312499,mp-1209405,0,4.0
Mg3Si(O2F)2,5.1736,-3.408786739499999,mp-558458,0,7.0
NaTiVS4,0.0,-1.452831959244663,mp-1220884,0,0.0
Li4P20,1.154129,,,0,1.0
Na10La2Ta6Si11SO48,3.0152,-3.040346601307177,mp-2716512,0,4.0
U8TiS17,0.0,-1.76692270772436,mp-1193754,0,0.0
Hf(CoSi)2,0.0,-0.726055823999999,mp-571367,0,0.0
Tb3(Si3Ru)4,0.0,-0.5999068252631571,mp-1197099,0,0.0
Si8Br32,4.047595,,,0,6.0
NaScNb3SiP5O24,2.2872,-2.992229207036008,mp-2715608,0,3.0
Ga2(TeO3)3,3.7830999999999992,-1.7639596453571431,mp-1181313,0,6.0
SrI2O,1.9019,-1.58460803,mp-1179200,0,3.0
NdCuSO,1.617999999999999,-2.261039174999999,mp-542314,0,2.0
KNa2AlF6,5.1973,-3.244064075000862,mp-1111019,0,7.0
SrGeAu3,0.0,-0.559157473999999,mp-1078860,0,0.0
Ce3Al,0.0,-0.235436592499997,mp-2413,0,0.0
CsHgBr2Cl,0.0,-1.373529238431036,mp-1228835,0,0.0
Tl6Te1O6,1.788644,,,0,2.0
LaPmTl2,0.0,-0.40243132479167,mp-1185094,0,0.0
Re6Cl18,0.999406,,,0,1.0
Ba3LuIrRuO9,0.0,-2.616161725777778,mp-1228300,0,0.0
P(H2I)2,1.638399999999999,1.748144430765306,mp-1210218,0,2.0
Mo4N12Na12,1.66585,,,0,2.0
Mg6CrSn,0.0,0.099215514375,mp-1021379,0,0.0
Ba3(SiAs2)2,0.8265,-0.8022187861111091,mp-11692,0,1.0
Ag13(PbO3)6,0.0,-0.823027415585585,mp-676840,0,0.0
Mn2VGe,0.0,-0.277524035215515,mp-865554,0,0.0
Ca7SnN6,1.149,-0.8629704928571431,mp-1246105,0,1.0
Mn(PbN)4,0.0,0.251109792904698,mp-1247021,0,0.0
YBPd3,0.0,-0.6827228513308651,mp-1018643,0,0.0
Tb(ClO4)3,5.2328,-0.9719217869791712,mp-1208575,0,7.0
Sn2IF2,0.0,-1.565261066,mp-1208906,0,0.0
Tb2Nb2O7,0.0,-3.382738889393939,mp-754174,0,0.0
Ce(Mo3Se4)2,0.2967,-0.970558108583333,mp-675769,0,0.0
PmInPd2,0.0,-0.798036106874999,mp-862924,0,0.0
Cs2TlBiF6,3.093899999999999,-2.596629716500001,mp-557664,0,4.0
RhSCl5,1.5419,-0.87174704392857,mp-1179727,0,2.0
Nd(Mo3S4)2,0.0,-1.065004819999999,mp-1103989,0,0.0
K2Li3B(P2O7)2,5.590599999999999,-2.740575714364087,mp-1019778,0,7.0
Ba1Pd1I4O12,1.931091,,,0,3.0
AlGeRu2,0.0,-0.517801542499999,mp-867904,0,0.0
N4,6.922957,,,0,7.0
Ce(MnCo2)4,0.0,0.027686026790451,mp-1104214,0,0.0
CuF2,0.0,-1.8150299499999991,mp-1229,0,0.0
Au4S2,2.009329,,,0,3.0
Ca4Ni20H,0.0,-0.108871873249999,mp-1190866,0,0.0
SnBiO4,0.0,-1.694535004166666,mp-754839,0,0.0
Na6Ga4Si5Ge4S7O48,1.74,-2.207001126767242,mp-2715924,0,2.0
Ba10BrN5Cl4,1.0519,-1.515424087,mp-1228725,0,1.0
NdGaNi,0.0,-0.5561840666666641,mp-1103550,0,0.0
PrScO3,4.2605,-3.878540392833331,mp-559756,0,6.0
Ba3As2H14S8O7,2.167399999999999,-1.308984016985293,mp-722774,0,3.0
Na3YNb3Si3(PO8)3,2.2787,-3.003334395172968,mp-2712921,0,3.0
SrLaDySnO6,3.2292,-3.214551690166666,mp-1521737,0,5.0
Nb8N32Li56,3.357875,,,0,5.0
K3Co,0.0,0.74051801275,mp-976583,0,0.0
Li3Re,0.0,0.8359992687499991,mp-983152,0,0.0
Th3SiGe,0.0,-0.720222298999999,mp-1217353,0,0.0
CeYNi4,0.0,-0.371519674999998,mp-1226560,0,0.0
H3CBr,4.5531,-0.27788988375,mp-1078197,0,7.0
Cd2Te2O7,1.768799999999999,-1.510689258030302,mp-30940,0,2.0
Co2Ge5N8,0.007,0.129915370242061,mp-1246730,0,0.0
Ta2AgF12,0.7160000000000001,-2.9984202086444443,mp-28375,0,1.0
GdAsO4,3.4222,-2.8055586137499993,mp-776200,0,5.0
LiAl5O8,5.5169000000000015,-3.350604872559511,mp-530399,0,7.0
Cs2KGdCl6,3.2188,-2.376788072874999,mp-1113049,0,5.0
Cu4La8S16,1.736052999999999,,,0,2.0
UH6C2SeN3O7,2.058799999999999,-1.3937331784921871,mp-1203047,0,3.0
AlC3NCl3,0.9859999999999992,0.408765686874998,mp-1105616,0,1.0
Rb2In2Sb3,0.9657999999999992,-0.421848017083331,mp-21760,0,1.0
InSi2P(H3C)8,3.7122,-0.200809710429165,mp-569070,0,5.0
KNb3(TeO6)2,2.4149000000000003,-2.495599053643518,mp-1202170,0,3.0
La6Mg2Al2S14,2.428324,,,0,3.0
LuSi2Ni,0.0,-0.7929120054166651,mp-973633,0,0.0
CeCo5H4,0.0,-0.202103030499999,mp-1205715,0,0.0
Li4Fe4As4O16,1.902739,,,0,3.0
NaHO,2.9879,-1.544601617543103,mp-626000,0,4.0
Y2TeS2,1.865199999999999,-2.132454324333332,mp-1216058,0,2.0
H11I(NO3)2,2.558799999999999,-0.8412530279374991,mp-1224477,0,4.0
Te4Ag4V4O20,2.217346,,,0,3.0
Dy7(TePt)2,0.0,-1.161182355909085,mp-1206619,0,0.0
Nd3CuSnS7,1.7587000000000002,-1.731557277916665,mp-560300,0,2.0
TmFeB4,0.0,-0.6498716536111121,mp-1207990,0,0.0
Rb2YCuI6,1.7585000000000002,-1.3486702405,mp-1110761,0,2.0