formula,bg,formation_energy,mp-id,fidelity,bg_category
LuTlO3,1.0776,-2.528349047500002,mp-754597,0,1.0
InRu3,0.0,0.277810702083336,mp-1095082,0,0.0
Se12Sn4Na8,1.293477,,,0,2.0
InIO5,0.0,-0.631528098452381,mp-1196400,0,0.0
Lu2MnSe4,0.7626000000000001,-1.7092109308056251,mp-1103893,0,1.0
RbVBr3,0.607899999999999,-1.5489731195,mp-568136,0,0.0
Sc2MnB2Ir5,0.0,-0.626617536126435,mp-1208987,0,0.0
Sr1S1,1.767392,,,0,2.0
Sr2Li7CuN4,0.5680000000000001,-0.522848028095238,mp-1218762,0,0.0
Zr5Pt3,0.0,-0.9236079306250032,mp-1188953,0,0.0
Er2(Ni7B2)3,0.0,-0.351252980862067,mp-1193830,0,0.0
TbEu2NbO6,0.0659,-3.406000175416667,mp-1519884,0,0.0
Sc13Cu13O33,0.0,-2.497786070677966,mp-686085,0,0.0
SrGeO4,0.6716000000000001,-2.004906681666666,mp-1208652,0,1.0
Sm(MgSb)2,0.0,-0.689576625,mp-1068052,0,0.0
Tl2Hg2Pd1Cl8,1.650594,,,0,2.0
Ca3Ti2O7,2.5302,-3.511848975138888,mp-4163,0,4.0
PrNdHg2,0.0,-0.554989438541667,mp-975883,0,0.0
Tm2NiSn6,0.0,-0.416406622222224,mp-1079270,0,0.0
U2AsS,0.0,-1.479693656328123,mp-1216688,0,0.0
Ba4Bi4O12,0.0,,,0,0.0
Cs2AgSbS4,1.4883,-0.897385242622125,mp-510710,0,2.0
TeAs2,0.0,0.214010288333334,mp-1217320,0,0.0
Sn2K4Br12,1.586688,,,0,2.0
Nb8Zn4C3,0.0,-0.129359108333332,mp-672681,0,0.0
Li2In2Si4O12,3.500867,,,0,5.0
BiBPbO4,2.8773,-2.094411144166665,mp-556601,0,4.0
Al2FePt,0.0,1.864647045,mp-1095825,0,0.0
Cs2RbAlBr6,3.2239,-1.837406719681034,mp-1112531,0,5.0
UC3N4O11,0.0,-0.289794117894737,mp-1203204,0,0.0
Na2ZrAl(PO4)3,4.3789,-2.9855671409659923,mp-2713598,0,6.0
Y4Cl6N2,2.050947999999999,,,0,3.0
Na6Ta8Si11SO48,3.6789,-3.113950662222197,mp-2714581,0,5.0
Ba2YbNbO6,0.0,-3.3757481147500012,mp-19751,0,0.0
Na10Hf4Si9Ge4(SO16)3,2.7270000000000003,-2.7390404214482023,mp-2714183,0,4.0
Au4Zn2F16,1.708034,,,0,2.0
CuH2(SeO3)2,0.0849,-1.170794665198863,mp-24164,0,0.0
BePbO3,0.0,-1.392075337999999,mp-1183499,0,0.0
Mn4FeGe3,0.0,-0.113871682090517,mp-1222161,0,0.0
Y8Mo4O24,1.881106,,,0,2.0
Tb3PO7,4.525600000000001,-3.723364369361473,mp-1208687,0,7.0
K2Ti(GeO3)3,2.8409,-2.377613964855555,mp-680158,0,4.0
HoAlFe,0.0,-0.302426583333331,mp-1224022,0,0.0
Sr12Ge4Mg4N16,1.432531,,,0,2.0
VRu4,0.0,0.215790745999998,mp-1216276,0,0.0
SbRuS,0.9252,-0.6839663625000001,mp-1103434,0,1.0
HfNi2,0.0,-0.469123983333332,mp-30708,0,0.0
Co1Cl2O8,2.967604,,,0,4.0
Ho3Ga,0.0,-0.228458043124994,mp-1184660,0,0.0
Ta6TeSe2,0.0,-0.5183363444837911,mp-1218083,0,0.0
ZrNbP,0.0,-1.078617695714285,mp-4500,0,0.0
Na6Mg6SiSn2S11O48,1.6741,-2.266556096677151,mp-2713622,0,2.0
Yb2AgBi,0.0,-0.385643545,mp-865546,0,0.0
Se16Na8,0.67217,,,0,1.0
Re3Ge7,0.0,0.012616640750002,mp-29141,0,0.0
HfP,0.0,-1.431191451488096,mp-9953,0,0.0
Nd(CoP)2,0.0,-0.9672324753571432,mp-5622,0,0.0
H12Li8Ru2,2.489541,,,0,3.0
K2NaTbCl6,4.9113,-2.31291194625,mp-1111622,0,7.0
Pd1Rb2Br6,0.533584,,,0,0.0
Ni9S8,0.0,-0.610980450588233,mp-976920,0,0.0
LiAlH34(C3N)4,4.2603,-0.150807755496795,mp-1195591,0,6.0
K2Te4O9,2.9189000000000003,-1.679416738577777,mp-29128,0,4.0
La4DyC10,0.0,-0.311847170522221,mp-1223002,0,0.0
BaCaRu2,0.0,0.8395265075,mp-631512,0,0.0
Ce8U2O21,0.0,-3.7846005988709672,mp-674412,0,0.0
LuHfRu2,0.0,-0.667736076666667,mp-865846,0,0.0
NdSe,0.0,-2.106972128281249,mp-1453,0,0.0
Ru3C10I2O9,1.9521,-0.705431867916667,mp-707821,0,3.0
SrEuIn2,0.0,-0.417507262083333,mp-1100785,0,0.0
Tb2AlGe3,0.0,-0.7234179405000041,mp-571381,0,0.0
Na14Y4Hf4Si9(SO16)3,3.9367,-2.993398392176549,mp-2714865,0,6.0
CdB2XeF10,2.8874,-2.519370684880952,mp-559282,0,4.0
PrZn11,0.0,-0.220078364305556,mp-568148,0,0.0
Ba3SrNb2O9,3.0998,-3.263567879333334,mp-540949,0,4.0
GdCo5P3,0.0,-0.813012841825395,mp-1198946,0,0.0
TaAlO4,3.282,-3.411296655805555,mp-8898,0,5.0
NiAg3,0.0,0.1849671575,mp-976762,0,0.0
KHf6CCl15,1.1511,-2.180692597163043,mp-1211876,0,1.0
LaCo9Si4,0.0,-0.399143071428572,mp-568056,0,0.0
RbMg(ClO2)3,0.155599999999999,-0.6033225984090911,mp-1192480,0,0.0
Ta2Ge2O7,2.4021,-2.589611530424241,mp-1101376,0,3.0
ThU4O10,0.0,-3.852704267333331,mp-1217343,0,0.0
K6Al2O6,2.796987,,,0,4.0
Os4Se4S12Cl16,1.429847,,,0,2.0
NdH12S2NO12,5.1286,-1.628996286428571,mp-605694,0,7.0
Ta3B2Ru5,0.0,-0.575070497199999,mp-1188194,0,0.0
K2Na4Ca5(Si6O17)2,0.0,-2.976772594912583,mp-1205191,0,0.0
Ni3W3C,0.0,-0.005904283877555,mp-1194387,0,0.0
Dy3AlC,0.0,-0.529014536999997,mp-29676,0,0.0
CsMg3,0.0,0.276176545517241,mp-1016231,0,0.0
LiDy3,0.0,0.189761626666665,mp-1185340,0,0.0
LuB2,0.0,-0.7770810205555561,mp-11219,0,0.0
LuNiB4,0.0,-0.568030970972222,mp-865491,0,0.0
Sr16(Ru5O16)3,0.0,-2.180495083924051,mp-758162,0,0.0
NaCa2Zr2PS5O24,2.9646,-2.586191569719682,mp-2714029,0,4.0
CsGa7,0.0,-0.154486704374999,mp-30574,0,0.0
Mg6AlCd,0.0,0.0212666875,mp-1023306,0,0.0
Ca10Ag(PO4)7,3.7416,-3.2201642245471,mp-1202534,0,5.0
Be3ZnO4,4.2643,-2.688549454374999,mp-1227338,0,6.0
BaRe2Sn,0.0,1.298175267499998,mp-631703,0,0.0
Pr3NF6,3.3108,-3.758598495999999,mp-33319,0,5.0
TmB2Ir3,0.0,-0.6948531963888911,mp-1077393,0,0.0
Pm2MgGa,0.0,-0.331468791875,mp-863705,0,0.0
LiSbPt2,0.5508000000000001,1.487302175364583,mp-1096520,0,0.0
AsH3C(OF3)2,5.2115,-1.891747990192307,mp-1197870,0,7.0
Ni3Ag,0.0,0.233211393333332,mp-1100764,0,0.0
Se12I4Ag4,1.322154,,,0,2.0
UP3H10BrO8,0.2494,-1.524639039518632,mp-740732,0,0.0
LaNi2B2C,0.0,-0.441237624722222,mp-568083,0,0.0
Mg6ZrNb,0.0,0.14867559375,mp-1022478,0,0.0
Er2TlCu3S5,1.428799999999999,-1.323273260530303,mp-1192137,0,2.0
Dy3(SbPd2)4,0.0,-0.8324013786666641,mp-1213109,0,0.0
NaNdTiO4,2.4465,-3.335226827458949,mp-20980,0,3.0
Ho3(P3Pd10)2,0.0,-0.730676966995074,mp-1212386,0,0.0
Fe3(GeN)8,0.0,0.081669993157894,mp-1246138,0,0.0
Na10Ga6F28,5.140926,,,0,7.0
TiPCl9,2.1747,-1.547784684816025,mp-27664,0,3.0
Nd2SiTeO4,2.0477,-3.272833390208333,mp-18542,0,3.0
Zn6B5Ir11,0.0,-0.311213660568181,mp-1215752,0,0.0
RbTcO4,2.9741,-2.159367522916668,mp-975115,0,4.0
Na21Mg4Ta8Si15(PO24)3,2.7557,-2.9583784660289503,mp-2714368,0,4.0
AuSCl5,1.7772,-0.298684163973214,mp-28192,0,2.0
Li(CuN)3,0.0,0.5053487193792521,mp-1147674,0,0.0
LaP5Cl18O17,3.484,-1.15611198239547,mp-565354,0,5.0
Nd3(SnPd)5,0.0,-0.7979715101923041,mp-1192386,0,0.0
S12C8N8,2.610255,,,0,4.0
SbH2(NF2)3,0.113399999999999,-1.172432627291667,mp-697087,0,0.0
Tm2Co7B3,0.0,-0.413227546458333,mp-1190854,0,0.0
InSn4,0.0,0.147845552000001,mp-1223653,0,0.0
CeAl4Si2Rh,0.0,-0.616502328749998,mp-1078224,0,0.0
Nd2SO6,5.1449,-3.065552504722224,mp-1078455,0,7.0
TaAs2,0.013399999999999,-0.531900830777781,mp-12561,0,0.0
MgH12(BrO3)2,4.3514,-1.3760326533333331,mp-1190888,0,6.0
SrAl3(PO7)2,0.0067,-2.368454261464285,mp-1179134,0,0.0
CsZnB(PO4)2,4.9295,-2.658869724469812,mp-560244,0,7.0
Cs2NaYbCl6,0.0,-2.400583374999999,mp-567172,0,0.0
K14In4O13,1.8384,-1.6504666592957,mp-554146,0,2.0
Gd2Nb2S7O30,0.029799999999999,-2.255677599695121,mp-1201421,0,0.0
Dy4Ga16Co3,0.0,-0.504617553768114,mp-1191222,0,0.0
TlInF6,2.6572,-2.348622986249999,mp-1216588,0,4.0
Pt2Na4S4,1.153699,,,0,1.0
Hf2VRe,0.0,4.229558996875,mp-1097571,0,0.0
Cs2Si3SnO9,3.9233,-2.869980218954023,mp-554359,0,6.0
Na6Ta8Zn16Si3(S11O48)3,1.0181,-2.103821082592583,mp-2714263,0,1.0
Ag15S5I4Br,0.5666,-0.277351580299998,mp-1229151,0,0.0
CeTiGe,0.0,-0.574949012777776,mp-19860,0,0.0
In(MoSe)3,0.0,-0.5963633981473221,mp-1104518,0,0.0
Er(FeGe)6,0.0,-0.279111493076922,mp-1202201,0,0.0
Nb2SbO6,0.0,-2.630985755555555,mp-755840,0,0.0
LiNb6Cl19,0.7552000000000001,-1.507739980737179,mp-29985,0,1.0
NaSc4PS5O24,3.3389,-2.672662873053014,mp-2714259,0,5.0
TlB5O12,0.4269,-1.730902531759259,mp-1179393,0,0.0
Hg1Te1,0.0,,,0,0.0
Ag3Cl,0.0,-0.02073470645833,mp-1183265,0,0.0
Ca4Ni,0.0,0.217337325000001,mp-1214129,0,0.0
Ti2ZnSnO6,0.029899999999999,-2.6530652511666672,mp-1120801,0,0.0
MgSiP2,1.3728,-0.411262341071428,mp-2961,0,2.0
BaCu2Ge2O7,0.213999999999999,-1.968493761249999,mp-542101,0,0.0
Rb2Pd3Se2,0.0,-0.549414756383927,mp-1211418,0,0.0
Ca3C3Cl2,1.2768,-1.211400115625,mp-28160,0,2.0
Rb2NbCuS4,1.9749,-1.316151084999999,mp-15221,0,3.0
U2Bi18O31,0.0,-1.621835024019608,mp-1101031,0,0.0
Ba4Sr(SnO3)5,0.4443,-2.586489571599999,mp-1228076,0,0.0
Ca2CdGa,0.0,-0.390616901874999,mp-1183448,0,0.0
NaSrAs,0.806999999999999,-1.054213939722223,mp-9775,0,1.0
Pr(Ga4Co)2,0.0,-0.35470374765151,mp-1199241,0,0.0
DyAu2,0.0,-0.8639723905555521,mp-11241,0,0.0
LiSb3O8,0.974399999999999,-1.960145810277778,mp-29892,0,1.0
UReO3,0.0,-1.845745087499997,mp-1187779,0,0.0
Y2CrH6,0.298199999999999,-0.5934531421296241,mp-1095185,0,0.0
Mg6Si5,0.0,0.049520425454544,mp-1073910,0,0.0
Mg14CdSb,0.0,-0.027879092499999,mp-1026437,0,0.0
Th(BIr)4,0.0,-0.635162060555551,mp-1106302,0,0.0
Ti2Zn2SnO7,2.860299999999999,-2.5448167226388883,mp-1120807,0,4.0
LiDy2Os,0.0,-0.282779916666669,mp-867776,0,0.0
Cs1Cu3S2,2.199284999999999,,,0,3.0
Sr4S12B4Li4,2.386337,,,0,3.0
Na7Hf2Si5Ge2PO24,3.4854,-2.869784489942229,mp-2714515,0,5.0
K3NaTh2O6,3.6675,-2.9537472777607743,mp-17850,0,5.0
Li17Nb20O60,0.0,-2.835461855635739,mp-686160,0,0.0
ThC,0.0,-0.430737664999995,mp-1164,0,0.0
Si2SeN2,2.9484,-1.03635049946875,mp-1245915,0,4.0
K2BaCu(NO2)6,0.2281,-1.164849560204545,mp-12145,0,0.0
Cs8Se18P4,1.430514,,,0,2.0
KAl2Si4(HO6)2,0.0,-2.8386810930833333,mp-1211839,0,0.0
Tl2Na1Rh1F6,1.909325,,,0,3.0
CsBHC3OF9,5.7833000000000006,-1.936974646566992,mp-1199273,0,7.0
GdPt,0.0,-1.229529129999997,mp-11428,0,0.0
NbSiTc2,0.0,-0.456378368749998,mp-864672,0,0.0
LiTi2P4H3O16,2.6125,-2.612677450858516,mp-753653,0,4.0
NaTl2RhF6,1.7848000000000002,-2.211141618804599,mp-14037,0,2.0
TiSiRh,0.0,-0.9466052852777752,mp-672645,0,0.0
ErZr,0.0,0.075232084999996,mp-1225381,0,0.0
Ce4Ni4Bi3Sb5,0.0,-0.724094156874998,mp-1227577,0,0.0
Cs3As,0.0,-0.215695615783049,mp-542220,0,0.0
K2Ba1Co1N6O12,1.063739,,,0,1.0
Te4Cs8O16,2.885779,,,0,4.0
Li3SNO3,4.9652,-1.817342632187499,mp-1222478,0,7.0
MnCoP2,0.0,-0.6064299618041871,mp-1221679,0,0.0
Na4Br4O20H8,3.167784,,,0,5.0
Na14Nb5Al3(SiO4)12,2.4725,-2.9381655223493133,mp-2712833,0,3.0
NaSc2Ta2P5SO24,3.147999999999999,-2.98731228124077,mp-2716189,0,5.0
TiPd2,0.0,-0.6493621622222201,mp-1061861,0,0.0
Tb(Mo3S4)2,0.0,-1.050516298833336,mp-1103853,0,0.0
CuS4BrN4,0.928099999999999,0.16509899925,mp-557980,0,1.0
Cu6GeSb,0.0,0.143390968125,mp-1225743,0,0.0
ThSbSe,0.0,-1.448349823020829,mp-1019359,0,0.0
Ca12In4P12,1.036323,,,0,1.0
YMg6Mo,0.0,0.226085525624999,mp-1022683,0,0.0
CaPtO3,1.2953,-1.991501694000001,mp-4784,0,2.0
Gd2B3C2,0.0,-0.5523732953571421,mp-28702,0,0.0
NaBeHCO5,0.0,-1.696542990708812,mp-1210975,0,0.0
K8P12,1.031584,,,0,1.0
CaIrN2,0.0,-0.323942644375002,mp-1245650,0,0.0
Na4P4(H2O5)3,4.9445,-2.200483281089265,mp-740750,0,7.0
Be2B,0.0,0.040718446944444,mp-1432,0,0.0
ThTl3F7,3.1788,-3.07901688522727,mp-29030,0,5.0
LiNb3O7F,0.0,-2.962288806944444,mp-1235339,0,0.0
DyMgPd,0.0,-0.679350994444443,mp-1078639,0,0.0
ReAgO4,2.3102,-1.707686205694444,mp-7094,0,3.0
CaMg6AlO8,0.0098,-2.843927999374999,mp-1033062,0,0.0
Cd4P8,1.468394,,,0,2.0
CaHo3,0.0,0.140400850000002,mp-1183597,0,0.0
SmBO3,5.2713,-3.488289486333333,mp-8627,0,7.0
U(Al3Fe)3,0.0,-0.272271499230766,mp-1216881,0,0.0
Na5Mg3TiP3(SO8)3,1.4497,-2.591734464059619,mp-2714840,0,2.0
CsGaTe2,1.2835,-0.8982057531250011,mp-17688,0,2.0
K3ErSi2O7,3.7371,-3.086262415262821,mp-16597,0,5.0
La3Ti2N3O4,1.0174,-2.809993341388889,mp-754172,0,1.0
SrLi3MnN3,0.0,-0.752861739741379,mp-570931,0,0.0
Li3Ni11As7,0.0,-0.42009294892857,mp-1222560,0,0.0
TeC2Se2(BrN2)2,0.033299999999999,0.374822426240529,mp-1191103,0,0.0
Na5Tb4Si4O16F,4.7059000000000015,-3.316587696952107,mp-1192492,0,7.0
Hf2Sc3Si4,0.0,-0.8168226625925911,mp-1200760,0,0.0
LaRuO3,0.0,-2.5601037775,mp-20472,0,0.0
Li2Y5In9,0.0,-0.5869304119270811,mp-638690,0,0.0
Tb2Sn5Rh3,0.0,-0.7097738328333321,mp-1189471,0,0.0
NaSiO3,0.0,-2.354524145275862,mp-1186167,0,0.0
CeNi4B,0.0,-0.452237268194442,mp-1095459,0,0.0
PaAgAu2,0.0,-0.316874893749997,mp-977444,0,0.0
Rb3In(PO4)2,3.4028,-2.553281954978739,mp-557875,0,5.0
Zn4CdSe5,0.9516,-0.9188377461718752,mp-1215624,0,1.0
LiHg,0.0,-0.376031632083332,mp-2012,0,0.0
Be2As(HO)9,4.4006,-1.7018556741071431,mp-720433,0,7.0
Hf3(NiGe)4,0.0,-0.6953234172727291,mp-10076,0,0.0
Re3Se4Br,1.4268,-0.7573641083593741,mp-624200,0,2.0
PrPbO3,0.0,-1.980562581333332,mp-1186471,0,0.0
U3NF13,0.0,-3.35309120117647,mp-1202871,0,0.0
Ba8Ru4Bi4O24,0.0,,,0,0.0
URu2Rh,0.0,-0.492614203749994,mp-1216633,0,0.0
Mg14TiSb,0.0,0.016523034791666,mp-1026414,0,0.0
Si2BiO6,0.0,-2.5675406033333332,mp-1172399,0,0.0
SrLiPrTeO6,3.4614000000000003,-2.703693509166667,mp-39144,0,5.0
Sm3Mg2MoS8,0.388399999999999,-1.777505670357142,mp-1247038,0,0.0
Al2Tc2O5,0.0,-1.799650814999999,mp-1183257,0,0.0
LaPmRu2,0.0,-0.097541503124999,mp-1185021,0,0.0
Ca1Cu4Re3Sr8O24,0.5405409999999999,,,0,0.0
Ce(N4O9)2,0.0,-0.5842681711111121,mp-729466,0,0.0
Mg2CrMo3S8,0.0,-0.943926422142855,mp-1247146,0,0.0
ErMnGe,0.0,-0.500197680977011,mp-20172,0,0.0
Zr2H2Pd,0.0,-0.539732397499997,mp-1070557,0,0.0
LuP,0.0,-1.818098097321424,mp-10192,0,0.0
NdCrS3,0.0,-1.685189645499999,mp-15931,0,0.0
NaCeCuTe4,0.0,-1.008061000435138,mp-1210305,0,0.0
Ti17(NO4)6,0.1402,-3.055171652695036,mp-779107,0,0.0
As1Na3,0.163075,,,0,0.0
KSn2F5,3.0803,-2.711320516114588,mp-686016,0,4.0
V4Cu3S8,0.0,-0.978328866,mp-29211,0,0.0
La2Re3B7,0.0,-0.532198218541665,mp-27894,0,0.0
Ta4CrTe4,0.0,-0.5340268370555551,mp-1197597,0,0.0
K3MgCu2F9,0.0,-2.743810196116666,mp-1223920,0,0.0
PrMgAg2,0.0,-0.274575847499996,mp-975892,0,0.0
NdGa2Co3,0.0,-0.319041806527778,mp-1189391,0,0.0
Cu2Bi4O8,1.40316,,,0,2.0
Ca3RhN3,0.0,-0.7603484701785721,mp-1247259,0,0.0
Sm3Pt4,0.0,-1.13539612214285,mp-1104800,0,0.0
Ca4Al4N8Li4,2.787939,,,0,4.0
NbVRe,0.0,-0.200278084444439,mp-1220369,0,0.0
SrAgSb,0.0,-0.474327903888887,mp-11217,0,0.0
SrMgP3N5O2,4.356000000000001,-1.623117393244046,mp-1020629,0,6.0
Ti2C2O9,0.007799999999999,-1.890026109935898,mp-1198230,0,0.0
NdAsO2,0.0,-1.970008851874999,mp-1209977,0,0.0
NpAl2,0.0,-0.401012394583332,mp-20660,0,0.0
SrTl2(PO3)4,4.453600000000001,-2.615299761854649,mp-1208595,0,7.0
SrCa3(PbO4)2,1.9231,-2.524493525714284,mp-1218448,0,3.0
Sn7Ir2Os,0.0,-0.184851842375002,mp-1219021,0,0.0
Nd2Ge3Rh,0.0,-0.791328879999999,mp-1220389,0,0.0
SmGaPt,0.0,-1.057748152499993,mp-1102464,0,0.0
S36,2.342096,,,0,3.0
Na6Nb2Ga6Si5S7O48,1.3509,-2.3396132932762512,mp-2715987,0,2.0
Na30Ta16Zn8Si27(SO16)9,1.9532,-2.730032609770139,mp-2714222,0,3.0
Be13Mo,0.0,0.8207566439285711,mp-1215126,0,0.0
Na12Ga4S12,2.80582,,,0,4.0
Cd2BO4,1.2871,-1.721707786130952,mp-1201604,0,2.0
Mg2HgRh,0.218699999999999,1.403254841874998,mp-1096715,0,0.0
Hg2La2Cs2Se6,1.43465,,,0,2.0
Be2IrAu,0.0,2.157754745,mp-1097628,0,0.0
Cs(CO)2,2.711,-1.318671075931035,mp-545487,0,4.0
Be2FeRu,0.0,3.066935645,mp-1096327,0,0.0
K2PdBrCl3,1.4958,-1.658569178499999,mp-1223847,0,2.0
K2ErPCO7,4.4968,-2.790824125345237,mp-754613,0,7.0
Np2Si4Tc3,0.0,-0.664248312500003,mp-505267,0,0.0
H6PdC2(SO3)2,1.561599999999999,-0.8855471289705881,mp-1197675,0,2.0
HoMgRh2,0.0,-0.7243100999999961,mp-864744,0,0.0
Er5Ru2,0.0,-0.391305977142855,mp-1103691,0,0.0
NaTa2In2P5SO24,3.0136,-2.6710697340979133,mp-2716203,0,4.0
In2As2Cl2O5,3.1511,-1.746976193030302,mp-1191856,0,5.0
Rh4P8,0.4046809999999999,,,0,0.0
NaU2Cl6,0.0,-1.9523543657088112,mp-676303,0,0.0
Sb2Cl7O6,0.0906,-0.6947444077499999,mp-1203379,0,0.0
Ce5(C2Br)3,0.0,-0.898813743928569,mp-1193043,0,0.0
Tm3GaC,0.0,1.044850077999981,mp-10351,0,0.0
Rb2PdC2,1.5802,0.038577118999999,mp-10918,0,2.0
LaFe5H12,0.0,-0.177260033333333,mp-570653,0,0.0
Na3Tl4,0.0,-0.121669004642853,mp-1221203,0,0.0
Co4Se4O16H8,2.921433,,,0,4.0
Na6La5Ta3(PO4)12,2.8055000000000003,-3.032009153166534,mp-2714825,0,4.0
TlPb8Br9O4,2.9557,-1.395477406969696,mp-560133,0,4.0
K2MgH8(SO6)2,5.2249,-1.83796986978,mp-699266,0,7.0
LaThN2,0.0,-1.745250065624993,mp-1222707,0,0.0
DyCl2,0.0236,-2.044305081666664,mp-1213029,0,0.0
Er3O2F5,5.6188,-4.383207447000001,mp-560114,0,7.0
Na4Ca2V8O24,2.862971,,,0,4.0
HoGePt,0.0,-1.126322076666661,mp-1103105,0,0.0
Rb2LaNb2O8,0.0513,-2.8259033284615382,mp-1103803,0,0.0
ScSnPd,0.0,-0.871613816666666,mp-17092,0,0.0
Sb12Cd6Sr11,0.30105,,,0,0.0
ErPd,0.0,-0.960327171666666,mp-851,0,0.0
Mg3Ag,0.0,-0.093537232916665,mp-864952,0,0.0
Ba2DyMgSbO6,2.806499999999999,-2.7999618087878773,mp-2240337,0,4.0
AgC4OF9,2.4341,-1.638952751111111,mp-561205,0,3.0
LiVIr2,0.0,-0.5806818716666661,mp-867927,0,0.0
Bi16O24,2.314097,,,0,3.0
Pr5Ge3,0.0,-0.7900635235416651,mp-17124,0,0.0
Y2CuPd,0.0,1.891471246249999,mp-1095840,0,0.0
Sr2CeSiO6,1.763,-3.383880043,mp-1521551,0,2.0
Cs5YO4,1.9342,-1.881678657577586,mp-1178475,0,3.0
Na4GeO4,2.8173,-2.009036232279693,mp-2970,0,4.0
Sb6O16Li2,0.968,,,0,1.0
Tm6Zn23,0.0,-0.341036902931036,mp-1194452,0,0.0
Ti2I4O14,2.324121,,,0,3.0
BaAl4,0.0,-0.24118154,mp-1903,0,0.0
Y5(SiN3)3,1.938799999999999,-1.662351581838232,mp-1245467,0,3.0
Ti3Bi2(PO4)6,2.343,-2.741198451081632,mp-768296,0,3.0
YTlPd,0.0,-0.726733002222223,mp-11547,0,0.0
CaP3H10NO12,5.1305,-1.890977069960317,mp-705854,0,7.0
Hf6Ga2Fe,0.0,-0.344043299444442,mp-1087487,0,0.0
Ho2Ga8Fe,0.0,-0.442683772727271,mp-1102211,0,0.0
Eu2CuO4,0.0,-2.517811431428571,mp-22306,0,0.0
NaO3,0.6064,-0.595979831594827,mp-22464,0,0.0
GePt2,0.0,-0.371081158888886,mp-20061,0,0.0
CuHgO2,0.0,-0.745885760625001,mp-996973,0,0.0
TaZnRh2,0.0,-0.5910538055833351,mp-865804,0,0.0
Fe(CoN)2,0.0,0.076577720999999,mp-1245599,0,0.0
CaC2,2.0383,-0.138030033333333,mp-1575,0,3.0
AgP2H8SN7O2,3.4266,-0.539852775164399,mp-1183028,0,5.0
BaCu2P2H2O9,0.178399999999999,-2.169046367611608,mp-697156,0,0.0
LaH16N7O19,3.4143,-1.126063492906976,mp-1199223,0,5.0
Y2CuO4,0.0,-3.059798596428571,mp-755924,0,0.0
Mo2Fe2Cl2O8Li2,2.000535,,,0,3.0
Dy4Fe29Si5,0.0,-0.108686279649121,mp-1226028,0,0.0
EuAs3,0.0,-0.619419693125002,mp-1078796,0,0.0
TiFe2,0.0,-0.283385237777777,mp-2454,0,0.0
UGa5Os,0.0,-0.278518313928568,mp-1077911,0,0.0
Nd2ZnSb3,0.088,1.8875935375,mp-1206091,0,0.0
Ta3C,0.0,0.917875466333335,mp-1187218,0,0.0
Li6IrN4,0.0,-0.404957845,mp-1029726,0,0.0
KEuNbInO6,0.0,-2.562364598891667,mp-1518309,0,0.0
LaNO5,0.0,-1.6805795542857151,mp-1223061,0,0.0
RbTeO3,0.0,-1.572874093833333,mp-975190,0,0.0
PuP,0.0,-1.541022508363092,mp-926,0,0.0
U2CuAs2(H4O5)4,1.1269,-1.788790619756097,mp-510226,0,1.0
Nd3Re2O9,0.163,-3.017871513750001,mp-1210151,0,0.0
Si3Pt2,0.0,-0.5443171599999971,mp-10744,0,0.0
TmHg3,0.0,-0.363315783124996,mp-865327,0,0.0
KZnO3,0.0,-0.938129754449999,mp-1184946,0,0.0
LiB3O5,6.484299999999999,-2.810832107592593,mp-3660,0,7.0
Ce5Si3,0.0,-0.637579376249998,mp-570175,0,0.0
Nd(SeO4)3,0.0,-1.277738906220703,mp-1198525,0,0.0
Ba6Ca6Cu9Hg3O25,0.0,-2.021393518214285,mp-1228760,0,0.0
Pb6Mo2O10Cl4,1.654697,,,0,2.0
PdPb,0.0,-0.267064972500001,mp-1210215,0,0.0
Cu2Na4P8O24,2.184641,,,0,3.0
Sn3Ir2Se3,0.3647,-0.5366352543359411,mp-1194504,0,0.0
Ba4Bi3Na1O12,0.285969,,,0,0.0
W1Ag1S4N1H4,1.658038,,,0,2.0
Tl2FeCu3Se4,0.0,-0.431529106604168,mp-1216847,0,0.0
Sb4Kr4F28,2.391799,,,0,3.0
Na6MnS4,1.400299999999999,-1.280418367793886,mp-5055,0,2.0
Na8Ge8Se20,1.295155,,,0,2.0
Sb3C2N(OF8)2,4.0241,-2.258248968020833,mp-566334,0,6.0
TiBr4,2.4977,-1.658768930916667,mp-569814,0,3.0
Rb3SbSe3,1.9999999999999991,-1.15537654064732,mp-17912,0,3.0
Na8Al6Si6CO27,3.365999999999999,-3.018920060021551,mp-39823,0,5.0
Sr2ErReO6,0.0,-3.03235778425,mp-13939,0,0.0
PtC2(NO2)2,0.0,-0.099421625555556,mp-1209601,0,0.0
BAuO3,0.0,-0.300731618833333,mp-1183212,0,0.0
UMnCo,0.0,-0.091970789310342,mp-1216660,0,0.0
Lu(SiPd)2,0.0,-0.9226481393333332,mp-3507,0,0.0
Zr6Nb2O17,2.0519,-3.5560670402,mp-766207,0,3.0
U2(Ni7B2)3,0.0,-0.319641632241384,mp-10130,0,0.0
TiH6(OF3)2,4.4992,-2.239493396055556,mp-1208179,0,7.0
NdCuSe2,0.7529,-1.452259168281248,mp-3739,0,1.0
Cu2NiSn,0.0,0.04159868375,mp-4367,0,0.0
Na4Al3Si3CNO13,4.369400000000001,-2.8438506594206903,mp-1173717,0,6.0
Na6La6Ta2Si5S7O48,1.6904,-2.762212578451927,mp-2716047,0,2.0
SnPt,0.0,-0.6177887774999961,mp-19856,0,0.0
Ba3SrNd2(IrO6)2,0.0,-2.683638905749999,mp-1228090,0,0.0
Si13Rh20,0.0,-0.788048140378784,mp-1219339,0,0.0
DyGeAu,0.0,-0.8252924688888881,mp-22149,0,0.0
EuCuO2,0.0,-2.285445806249987,mp-13696,0,0.0
Mg14MnV,0.0,0.15646473325431,mp-1028144,0,0.0
YCdB,0.4316,-0.037992936388887,mp-1100401,0,0.0
RhI,0.0,0.1834307,mp-975142,0,0.0
Ba(LaI4)2,2.1563,-1.812846194545455,mp-754198,0,3.0
Na2CaPO4F,4.7508,-3.027008469989053,mp-559376,0,7.0