formula,bg,formation_energy,mp-id,fidelity,bg_category
Si8,0.189413,,,5,0.0
Mg2Cr4O8,4.105304,,,5,5.0
Te4Br4F20O12,4.037035,,,5,5.0
Ti1F6N6C2H12,3.901584,,,5,4.0
Cd2Fe4O8,3.049424,,,5,3.0
W4O13Na2,2.518658,,,5,3.0
Te1Be4O7,2.892269,,,5,3.0
Tc4F4O12,3.874629,,,5,4.0
Ca2Zn2Ge4O12,4.022476,,,5,5.0
Cu2Na4P8O24,4.414219,,,5,5.0
K4P6,1.316659,,,5,1.0
Lu4Ni4O12,0.7835719999999999,,,5,1.0
Cs2Pd1I6,0.7187819999999999,,,5,0.0
Cu4K2Se8Ta2,2.554927,,,5,3.0
Ba2Au4O8,3.00338,,,5,3.0
Ba1Ti1O3,3.836902,,,5,4.0
Mg4H8,3.290225,,,5,4.0
Cu2S1,0.6610159999999999,,,5,0.0
Ru4S8,1.580138,,,5,2.0
K2Mn2P2,2.063362,,,5,2.0
Pt2Rb4C8N8,3.646907,,,5,4.0
Ca2N12,4.722587,,,5,5.0
Ba3Ru3O9,0.020503,,,5,0.0
Rb8Sb8,1.023574,,,5,1.0
Cs2Sb2O4,3.399524,,,5,4.0
Cr2Fe2O6,2.824085,,,5,3.0
Sb8Si8K8O40,4.585945,,,5,5.0
Mg2Mo2N4,1.466358,,,5,1.0
Rb8Cu4Cl12,3.71424,,,5,4.0
Cd8Te8O28,3.090067,,,5,3.0
Rb1N3,4.956521,,,5,6.0
Mn6Se6O20,1.101746,,,5,1.0
K6Sb2Se8,2.29956,,,5,2.0
O2C6N4H16,5.507732,,,5,6.0
As4Sr4Li4,1.678907,,,5,2.0
Ni2Li4O4,4.998578,,,5,6.0
Cu2S2O10H4,3.624759,,,5,4.0
Rb6In6I24,3.488873,,,5,4.0
Bi10Mo3O24,3.439148999999999,,,5,4.0
Li2B2F4C4O8,5.525023,,,5,6.0
Ca6As6,0.327781,,,5,0.0
K4Cu4C8N8,4.178517,,,5,5.0
Te1K2,2.856831,,,5,3.0
Te4S12K8,0.635535,,,5,0.0
Fe4Na4O8,4.57745,,,5,5.0
Ca8Pd2O12,3.485708,,,5,4.0
Bi12Pb1O20,2.687305,,,5,3.0
Lu2Sr2Cu2S6,2.335457,,,5,2.0
La2Tl2O6,1.075689,,,5,1.0
Mo4Co4O16,2.424635,,,5,3.0
Ni1K2O2,3.425274,,,5,4.0
Rb2Na4B2O6,4.733369,,,5,5.0
Ag20Ge4O16,1.671092,,,5,2.0
Cs1Ge1Cl3,2.770637,,,5,3.0
Ba2V6O16,2.894688,,,5,3.0
Au5Rb7O2,1.565381,,,5,1.0
Te2Ag4S6,2.131638,,,5,2.0
K2V12O22,0.918202,,,5,1.0
Cr8S12O48,4.371017,,,5,5.0
W2N8Li12,4.173398,,,5,5.0
Fe2Cl6,2.889304,,,5,3.0
Ba4Lu8Se16,2.199,,,5,2.0
Y8F4Si6O22,6.788829,,,5,7.0
Au4Bi4Br24,2.079914,,,5,2.0
Cs4Br12,3.225319,,,5,4.0
K6Sn6O9,1.933174,,,5,2.0
Na6Ca6Al2Sb8,1.002877,,,5,1.0
F8I4O8Rb4,5.793376999999999,,,5,7.0
Ti1S2,0.283644,,,5,0.0
Ge2Se8Ag4K4,1.880177,,,5,2.0
Ba6Ti2S10,2.170885999999999,,,5,2.0
Rb3Nb1O8,4.421017,,,5,5.0
Ca8Fe4Ga4O20,3.190942,,,5,3.0
Ce1Cs2Cl6,3.162277,,,5,3.0
Pb8W4Mn4O24,2.619685,,,5,3.0
Sr4S16B8,3.82835,,,5,4.0
Cs2Fe2O4,4.999271,,,5,6.0
Pb4Bi4O16B4,3.839148,,,5,4.0
Mo2F6,3.444349,,,5,4.0
Cs2V6O16,3.022681,,,5,3.0
Ba8Bi4Ga4S20,3.015018,,,5,3.0
Tl8Ga8S16,2.420977,,,5,3.0
Cs4Ni2N8O24,4.835663,,,5,5.0
Cs2Ag2Br4,3.096206,,,5,3.0
Ba6Si4As8,1.4036369999999991,,,5,1.0
Zn2Fe4As4O20H4,3.764154,,,5,4.0
Tl2Hf2Cu2S6,1.725443,,,5,2.0
Be24N16,4.55563,,,5,5.0
K6P4B2,2.345078,,,5,2.0
La10O4N2S8,2.279717,,,5,2.0
Tl12Pb4Br20,3.726576,,,5,4.0
Ca12In4P12,1.70356,,,5,2.0
Ag4O2,1.121675,,,5,1.0
Ba4Rb4P4S16,3.340027,,,5,4.0
La4Br4Mo4O16,2.561396,,,5,3.0
Ba4W4O16,4.238375,,,5,5.0
La4Rh4O12,2.031809,,,5,2.0
Hf2Ge2Te8,0.837689,,,5,1.0
Na2Fe2S4O16,2.990534,,,5,3.0
Sb2O8K6,3.249604,,,5,4.0
Sr4Co2Se6O18,4.362489,,,5,5.0
I2Br2,2.209218,,,5,2.0
Rb10Fe6O12,2.7766800000000003,,,5,3.0
Mn12B8O24,4.225276000000001,,,5,5.0
Cu4As8O16,3.429871,,,5,4.0
Cs2Au2F8,4.459158,,,5,5.0
Sc4Mn4O14,2.11713,,,5,2.0
Cs4Cu2Nb2Se8,2.581064,,,5,3.0
Cu1Cr1O2,2.690795,,,5,3.0
Sb4S4Br4,2.452143,,,5,3.0
Li8B8Si16,1.650665,,,5,2.0
V4Na4F16O8H8,4.621461,,,5,5.0
Na2Cu2S2O8F2,4.082307999999999,,,5,5.0
K8Hg4S8,3.105064,,,5,3.0
Ta6Cl18K4,1.944136,,,5,2.0
Be1O1,10.121819,,,5,7.0
Cd2Mn4O8,2.523309,,,5,3.0
I2O8N2H8,4.274342,,,5,5.0
K2Mn1Se2O10H4,1.575801,,,5,1.0
Ca2Cl4O8,4.4717,,,5,5.0
D10K6Pd2,4.058837,,,5,5.0
Cs2Pt1F6,4.702214,,,5,5.0
N4,9.234795,,,5,7.0
K8Mo4S16,2.031145,,,5,2.0
Ag1Cl1O4,4.446148,,,5,5.0
Rb1Cr1F6,2.615988,,,5,3.0
Na12Co2S8,3.078182,,,5,3.0
Ba8Nb6Li2O24,3.913264,,,5,4.0
Zr6N8,1.549379,,,5,1.0
Cs4Sn3Se9Sr1,2.165451,,,5,2.0
Bi8W4O24,3.070564,,,5,3.0
Zr1N2Li2,2.759975,,,5,3.0
K2P2N6C4S4O6H10,4.650558999999999,,,5,5.0
Rb18I6O6,1.640251,,,5,2.0
In12Ru4,0.560098,,,5,0.0
Li2Na2S2,4.217542,,,5,5.0
K4Cu4Zr4F28,4.905152,,,5,6.0
B4N4,2.671721,,,5,3.0
As1Cu3Se4,0.0496,,,5,0.0
Mo2Cl10S4N4,1.296975,,,5,1.0
In4O4F4,2.72434,,,5,3.0
Ar1,10.280692,,,5,7.0
Sr1Cd2As2,0.787998,,,5,1.0
Mg8H16,3.078657,,,5,3.0
N8,9.274506,,,5,7.0
Ta4Cl24Na4,4.036423,,,5,5.0
K6Ga2O6,3.952234,,,5,4.0
Cs3Sb2Cl9,3.093443,,,5,3.0
K4Au4S20,2.691395,,,5,3.0
Sb2P2O8,5.255107,,,5,6.0
Se2O6H4,5.971007,,,5,7.0
Ca4Fe4O8,2.981795,,,5,3.0
Ba6C6N12,3.254348,,,5,4.0
Cu3V1Se4,1.698735,,,5,2.0
Tl2Cu4Ta2S8,2.749861,,,5,3.0
Ag8Cu8F24,3.753581999999999,,,5,4.0
Ba2F2As2Zn2,0.961527,,,5,1.0
Bi6Fe2Mo4O24,3.376819,,,5,4.0
La2Ge2K2Se8,2.218364,,,5,2.0
Sn2P4O16H4,4.329352,,,5,5.0
Ba4S12,1.939723,,,5,2.0
Tl8Sn4O12,1.941554,,,5,2.0
Si4La8S20,3.362519,,,5,4.0
Mn4O8H4,1.628888,,,5,2.0
Sr1Al2B2O7,6.330872999999999,,,5,7.0
Mn2B4H16,5.386055,,,5,6.0
Pb2Ga4O8,4.491315,,,5,5.0
Ag1N1O2,3.325447,,,5,4.0
Ba4K4Mn4O16,3.247557,,,5,4.0
Ti4As8O28,4.203714,,,5,5.0
Ni6Mn1O8,2.970055,,,5,3.0
Hg8I4O4,1.549273,,,5,1.0
Cu2In2P4Se12,1.241102,,,5,1.0
Zr4P8O28,6.484273,,,5,7.0
S2Cl14Al2,3.989362,,,5,4.0
Ca4Ti4O12,3.5106029999999993,,,5,4.0
Pt1Ni1F6,4.083953,,,5,5.0
Ca2Br1H3,2.507407,,,5,3.0
Ba4Ge8P8,1.145791,,,5,1.0
Ta4Cl16,2.101705,,,5,2.0
Mg4Te8O20,3.257887,,,5,4.0
Cs12As4Se16,2.274952,,,5,2.0
La4Cu4S4Te4,1.106482,,,5,1.0
Tl4La4S24P8,3.650388,,,5,4.0
Ge2Cu6P4O20,3.815465,,,5,4.0
Co4As4S4,1.672478,,,5,2.0
Rb2Pd1F6,4.411084,,,5,5.0
Cd6P2Cl6,2.785976,,,5,3.0
Ba4In2Y2Se10,1.901715,,,5,2.0
Cs6Fe2Br10,3.426741,,,5,4.0
Cs1H1,3.149353,,,5,3.0
B2N2,5.636532,,,5,6.0
Se2Ga3K1O14H6,4.800452,,,5,5.0
Mg4Cr8O16,4.123637,,,5,5.0
Fe4Cl16K4,3.625688,,,5,4.0
La4F12,7.697114,,,5,7.0
Mn1Cl2,4.795309,,,5,5.0
Li4O20V8,1.188081,,,5,1.0
K1Nb1O3,2.72759,,,5,3.0
Si4O8,7.393358,,,5,7.0
Tl5Nb2Cl9S4,2.537506,,,5,3.0
Cd2Sn2O6,2.502783,,,5,3.0
K4Cu2P4O14,3.224156,,,5,4.0
Br16S8O8,3.763712,,,5,4.0
Re8S16,1.880923,,,5,2.0
Hf2I2N2,1.773484,,,5,2.0
Na2Fe2S2O8F2,4.443832,,,5,5.0
Tl8Cr4O16,2.968998,,,5,3.0
Hg11Ga4P4Cl16,2.327821,,,5,2.0
Cs6Mo4O14Br2,3.764898,,,5,4.0
Cs4Ag4Al4F24,2.143879,,,5,2.0
Pt2Cs4C8N8O4H4,2.489668,,,5,3.0
Y2Ba2Fe2Cu2O10,2.433533,,,5,3.0
K4Cu4F4C4O12,3.487837,,,5,4.0
Hg5Cs1Cl11,4.012357,,,5,4.0
Rb2Au2Se2,2.633783,,,5,3.0
La2Sb6O18,3.299536,,,5,4.0
Ba4Fe2Ge4O14,2.030303,,,5,2.0
Au4K4Br16,1.986434,,,5,2.0
Pd1Mg1F6,3.945322,,,5,4.0
La8Ge4S20,2.869485,,,5,3.0
K4Cd1As2,1.272741,,,5,1.0
Li8Pb8Cu4B16O40,3.947817,,,5,4.0
Cr2F10B2N4C8H12,4.461728,,,5,5.0
Si19C19,2.898092,,,5,3.0
Na1H1,4.854205,,,5,6.0
Li8N4H4,3.732493,,,5,4.0
Bi16O24,3.27232,,,5,4.0
Ba2Ga8S14,3.438388,,,5,4.0
Fe6Sb4Br8O8,2.664384,,,5,3.0
Fe4Nb8O24,2.275378,,,5,2.0
Ba2Mn1W1O6,2.501739,,,5,3.0
Na9Os3O15,1.69178,,,5,2.0
P3Ca3Ag3,0.191869999999999,,,5,0.0
Ca4C6Li2H2,1.990268,,,5,2.0
La2Mn1Mg1O6,3.229018,,,5,4.0
Hg4Re4O16,3.204516,,,5,3.0
Hg4Au8F48,3.433077,,,5,4.0
V4O8,1.473815,,,5,1.0
Sb4O8,2.98839,,,5,3.0
Na2Te1,2.806577,,,5,3.0
Pb4S4,1.25305,,,5,1.0
Cu2Co1Si1S4,1.785025,,,5,2.0
Sn2O12Li4H12,2.432595,,,5,3.0
Li3Mn3Ti3F18,3.136149,,,5,3.0
Al2P2,2.689678,,,5,3.0
Bi4Li12O16,2.321545,,,5,2.0
Cs2La2Zn2Te6,2.314133,,,5,2.0
Mn12W4O24,2.848506,,,5,3.0
Cs2Pd4F10,2.421816,,,5,3.0
Zn2V2O7,3.363205,,,5,4.0
Tl8Ge8S16,2.354841,,,5,2.0
Mg4P4O12,6.756458,,,5,7.0
Sr1Ce1N2,2.159559,,,5,2.0
Na2Al2Se4,3.174374,,,5,3.0
Na3S1O4F1,6.25057,,,5,7.0
Fe4Li4P4,0.788065,,,5,1.0
Hg1Si1Cu2Te4,0.6153900000000001,,,5,0.0
S24N8H8,3.843828,,,5,4.0
O12Si4Mn2Na2,2.452812,,,5,3.0
Tl10Br2Te4,0.464591,,,5,0.0
Na2Sn2P2,1.021831,,,5,1.0
Sr2O6H4,5.323964,,,5,6.0
K8P8,1.696084,,,5,2.0
Sb2Ba6Na2O12,4.386678,,,5,5.0
Cu2S4O12C4F12,3.915959,,,5,4.0
Rb4O12,2.30275,,,5,2.0
Nb2Ca14Si4N18,3.164623,,,5,3.0
Na8K12Sn4P12,1.693956,,,5,2.0
Na2Nb2Se4,0.971952,,,5,1.0
Mo4Te24Br12,0.020622999999999,,,5,0.0
Ge4Li2N6,3.931891,,,5,4.0
Ba2Cd2Sb2F2,0.933666,,,5,1.0
Pb2Cs4O6,2.701461,,,5,3.0
Ca4O8D8,6.118395,,,5,7.0
N12O10C2H12,3.671631,,,5,4.0
Cl4S4O4C4H12,1.322642,,,5,1.0
Os4O4F20,2.811655,,,5,3.0
Ba2Bi2O6,0.31847,,,5,0.0
Hf2Mo6Cs4O24,4.898011,,,5,6.0
Na1N1O2,4.413895,,,5,5.0
In1N1Ni3,0.06091,,,5,0.0
Ag2In2P4S12,2.088778,,,5,2.0
Be16I32,5.176865,,,5,6.0
Tl4Cu4Se4O20H4,3.631822,,,5,4.0
As8Nb2Rb14,1.319075,,,5,1.0
Cu1Cd2P2O8,3.710696,,,5,4.0
Al4C3,2.157612,,,5,2.0
Te1Rb2Cl6,3.452851,,,5,4.0
Au4Li4F16,4.14487,,,5,5.0
Rh2Sr6In2O12,3.177291,,,5,3.0
V14O26,0.355803,,,5,0.0
Cs2Ag2Cl4,3.729877,,,5,4.0
V4Se4,2.403802,,,5,3.0
Tl2Fe4S6,2.120148,,,5,2.0
Bi2Se3,0.232891,,,5,0.0
Sr4Cu2O12H12,4.028371,,,5,5.0
Ir4Bi4Se4,1.144628999999999,,,5,1.0
K4Mn2S4,3.433518,,,5,4.0
Sr1Zn2P2,1.43732,,,5,1.0
Cs1F1,7.076575,,,5,7.0
Ag8Se4,0.08121,,,5,0.0
Pb8S16Si4,2.842563,,,5,3.0
Pb2O4,0.6271559999999999,,,5,0.0
Hg6Se6O20,3.461911,,,5,4.0
Ba8Zn4Se12,2.642089,,,5,3.0
C10N8,7.053225,,,5,7.0
Nb8Ag4O22,3.42029,,,5,4.0
K8Mo4O4Cl20,2.864172,,,5,3.0
Pb4O2F2Cl2,3.530253,,,5,4.0
Na1Ta1O3,3.529549,,,5,4.0
P4K4Se24,2.596353,,,5,3.0
Pt2O4,1.17704,,,5,1.0
Al6N2C3,0.153668,,,5,0.0
Na2I2Ca4O12,4.472647,,,5,5.0
Mn2As2Rb2,1.628893,,,5,2.0
S16N8O12F4,1.802435,,,5,2.0
Te6Mn4O16,3.398127,,,5,4.0
K4Ag2As2,1.734808,,,5,2.0
Pd4S24N8,1.915116,,,5,2.0
Rb4Sn2As4,1.375427,,,5,1.0
Hg4Te6Ag4O24,1.19755,,,5,1.0
Pb8Sb4I12S8,2.483754,,,5,3.0
Cd1Hg1O2,1.7925,,,5,2.0
Ba12Fe8Br8O20,4.430853,,,5,5.0
Zr2N2Br2,3.919569,,,5,4.0
F8N10H12C4B2,5.6892000000000005,,,5,7.0
V2B2O6,2.67598,,,5,3.0
Ca8F4N8B4,4.126163,,,5,5.0
Y8Cu8O20,0.5346839999999999,,,5,0.0
Sr4Fe2O6,2.816618,,,5,3.0
Sc7Co1Cl12,0.618727,,,5,0.0
Ba4S4O8,2.587788,,,5,3.0
Li1Y1S2,2.807647,,,5,3.0
P8S12,3.032826,,,5,3.0
Ba2As4O12,4.406608999999999,,,5,5.0
Ru2As4,0.970016,,,5,1.0
Mg2Y4Se8,2.193167,,,5,2.0
Nb6Se10Cl14,1.989968999999999,,,5,2.0
Cu4Cl12K4,2.860764,,,5,3.0
Cu2Cr2O4,3.009277,,,5,3.0
Tl4Hg4As4S12,0.908073,,,5,1.0
Sb4Nb4O16,3.376026,,,5,4.0
K4S4O10,1.660732,,,5,2.0
Cs8Cd4I16,3.775366,,,5,4.0
Ge2O4,2.806486,,,5,3.0
Pb1K2O6H6,3.377501,,,5,4.0
Ge4V6K2O18,2.742846,,,5,3.0
Al4Si4O18H8,6.843156,,,5,7.0
Pb10As6Cl2O18,3.61336,,,5,4.0
Pb4S4,1.13084,,,5,1.0
Ba4V2P4O18,3.66062,,,5,4.0
I1P1Ca2,2.427352999999999,,,5,3.0
Mn4Ti4O12,2.698112,,,5,3.0
Tl2Pt4Se6,0.936249,,,5,1.0
La4Sn4O14,4.11157,,,5,5.0
Hf2N4,1.469404,,,5,1.0
V2P4O14Li2,3.066321,,,5,3.0
Sb2Cd2Br2S4,2.269105,,,5,2.0
Hg8C8N16,3.733007,,,5,4.0
Be6N4,4.650154,,,5,5.0
Hg1Cd1S4N4C4,3.612542,,,5,4.0
Zn4N24,4.481151,,,5,5.0
Ag2Sb2O6,1.585515,,,5,2.0
Pb3Na6S16P4,3.254924,,,5,4.0
Mg1O1,4.6276019999999995,,,5,5.0
Cs8Ag4Br12,4.042447,,,5,5.0
P4As4O20,3.8068,,,5,4.0
Hg4S4O12C4H12,4.119984,,,5,5.0
Hg12Cl16O4,2.668748,,,5,3.0
N4C8O4H24,4.484554,,,5,5.0
Mn2Fe2F10O4H8,2.541717,,,5,3.0
Au1S4O14Li1,3.487422,,,5,4.0
Ba3Zn6Si4Te1O20,4.413031,,,5,5.0
Hg1Cs2O2,3.469507,,,5,4.0
Ba1Co2P2O8,5.005382,,,5,6.0
Y6H18,0.299315,,,5,0.0
La2Cu2S2O2,3.000441,,,5,3.0
V8O20Na4,2.342212,,,5,2.0
Cd1Sn1Na2S4,2.936274,,,5,3.0
Zn14S14,3.461562,,,5,4.0
Cu2F8Na4,4.835847,,,5,5.0
Ca12Mn2N10,1.910307,,,5,2.0
Sn4Sb2S4I6,1.148424,,,5,1.0
Cr24P16O64,3.280409,,,5,4.0
Ag8Mn8P8O32,3.305978,,,5,4.0
Ag3I9Tl6,3.189507,,,5,3.0
Sb2Cl12O4H10,3.153605,,,5,3.0
W2Cd2O8,4.236298,,,5,5.0
Cs8Bi8Mn4S20,2.235259,,,5,2.0
Sb4S4I4,2.260185,,,5,2.0
W2Ca2Sr4O12,4.046697999999999,,,5,5.0
I2Se4Tl10,1.218841,,,5,1.0
Hg2K2S6N6C6,3.133318,,,5,3.0
Cr1Co1N12C6H18,2.47883,,,5,3.0
Li1Ru1F6,3.498357,,,5,4.0
S8Zn4,2.502034,,,5,3.0
Na4Pt2Se4,1.775489,,,5,2.0
Na4S4C2N4O8H16,0.7039730000000001,,,5,0.0
Ce2P10O28,4.649643,,,5,5.0
Ca1Cr1F6,2.912923,,,5,3.0
In12Se18,1.185861,,,5,1.0
Nb4Na4O12,3.694668,,,5,4.0
As4Cl12O4,3.869446,,,5,4.0
Rh8Ge8Te8,0.709747,,,5,0.0
Os1K2O2Cl4,3.096801,,,5,3.0
La8Co8O20,2.378818,,,5,2.0
Ba2O14C8H12,4.104585,,,5,5.0
Na2Fe2Se2O1,2.78873,,,5,3.0
Pb2Co1Te1O6,2.76871,,,5,3.0
Bi4Tl12I24,3.290331,,,5,4.0
Zn8P4O20H4,5.175259,,,5,6.0
Ba2Pt8As12,0.5963899999999991,,,5,0.0
I2Se12As2F12,2.266305,,,5,2.0
Zn14S14,3.464165,,,5,4.0
Ba8Si4,0.4228579999999999,,,5,0.0
K1Zn4P3,1.103076,,,5,1.0
Br4N4O16H16,5.066666,,,5,6.0
Ag12C6O18,2.225142,,,5,2.0
Tl2Cr6Se10,1.072689,,,5,1.0
Ta2Sr2N2O4,1.983797,,,5,2.0
In4Mn2Se8,0.21447,,,5,0.0
Sr4Fe8Se8O4,2.851733,,,5,3.0
Cs2S4O14H2,7.331619,,,5,7.0
Ca12Al8N16,3.379163,,,5,4.0
K6Cu4F14,3.29464,,,5,4.0
In2Cl2,1.878009,,,5,2.0
N8C6,1.694579,,,5,2.0
Nb2Li2O6,3.602255,,,5,4.0
Ba1Si1F6,9.735936,,,5,7.0
Ba6Ru2Pt1Cl2O12,2.535892,,,5,3.0
Na4Cu1As2O8,3.812183,,,5,4.0
Sr8F4N8B4,3.668372,,,5,4.0
Y1Ba2Ag5S6,2.316321,,,5,2.0
Cl1Ba2H3,0.397053999999999,,,5,0.0
Y2Cr2O6,3.084581,,,5,3.0
Re1K2F6,4.056726,,,5,5.0
Mg1Al2S4,3.073314,,,5,3.0
Ru8Ge12,0.651829,,,5,0.0
Cu2Cl8N4H20C4,2.622312,,,5,3.0
Rb4Mn6Se8,3.219769,,,5,4.0
P4F8O8C4N4,7.745597999999999,,,5,7.0
Se4In4,1.696787,,,5,2.0
Tl4Mo6Se2O24,3.309717,,,5,4.0
P8O20,7.473458,,,5,7.0
Fe2Br6,2.363459,,,5,2.0
Rb12Cl8O2,2.833433,,,5,3.0
I4As4F48,2.738961,,,5,3.0
Cu4K8F16,3.612473,,,5,4.0
Sr2Cu4B4O12,3.657679,,,5,4.0
Sb12Rb4Se20,1.691647,,,5,2.0
Cd8Cr8O32,3.490276,,,5,4.0
Ba12Sb12Al4,0.983476,,,5,1.0
Bi2Rb2S8N8C8,3.514585,,,5,4.0
Mn4N12C12K4,1.97959,,,5,2.0
Cl4O12,2.456975,,,5,3.0
Pd2O12N4,3.433736,,,5,4.0
Pt3Fe2N12C12,2.835365,,,5,3.0
Cl2O4Sb2F12,4.034702,,,5,5.0
Bi10Cs6Cu4S20,1.292867,,,5,1.0
Bi8O14,1.769728,,,5,2.0
Sn4S16Mn4Li8,2.875785,,,5,3.0
O24Si12,7.222044,,,5,7.0
Ru1C1,1.472176,,,5,1.0
Na6Al2As4,1.593172999999999,,,5,2.0
Te12Br4O22,3.581142,,,5,4.0
Ir2Te12Br6,1.738082,,,5,2.0
Cu1C8H16N8Ni1,3.868814,,,5,4.0
Co4Cl16Rb8,4.497935,,,5,5.0
Sb4Mo8Cu4O32,1.27879,,,5,1.0
Ru2Sb4,0.53363,,,5,0.0
Sn4Te20Ba8,0.397611,,,5,0.0
I4Tc12Se16,1.442841,,,5,1.0
Bi2Pd1O10Li8,2.057749,,,5,2.0
Os8O12F28,1.513323,,,5,1.0
Sb4Cl24P4O8,3.567356,,,5,4.0
Ir1Na3N6O12,4.35843,,,5,5.0
La12Sb4O12,1.301852,,,5,1.0
Fe2P6O20N2H10,3.864832,,,5,4.0
Pb8Pt4O16,0.786542,,,5,1.0
Ba2Y1Os1O6,1.904508,,,5,2.0
Sr1Sn1O3,2.577727,,,5,3.0
Rb4Mo4I4O24,3.312067,,,5,4.0
K1Ag2Sb1S4,1.610489,,,5,2.0
O24Ta8Cr4,0.850971,,,5,1.0
Ba2Zr2N4,2.011504,,,5,2.0
Na2Al10Ti4O24,4.086174,,,5,5.0
Li2Te1,3.214822,,,5,4.0
Ta4V4O20,3.192392,,,5,3.0
Se5Bi2Pb2,1.143615,,,5,1.0
Ca2F4,8.449621,,,5,7.0
Ba12B8N16,3.537333,,,5,4.0
Ti2N2Br2,1.39658,,,5,1.0
Si2O4,7.106375,,,5,7.0
Zn1As2F12N12C12,6.264702,,,5,7.0
Ge12S24,3.374857,,,5,4.0
K4Te4Na4,2.688324,,,5,3.0
Mn4Br8,4.146348,,,5,5.0
Ba12Sn8P16,1.325772,,,5,1.0
Ge16S32,3.329959,,,5,4.0
Tl2Ba3Cl2O5,0.07078,,,5,0.0
Sr2Cu1Te1O6,2.819274,,,5,3.0
Li2Zr4As6O24,5.623068,,,5,6.0
Cs8V4S20O4,2.595287,,,5,3.0
Sr16Ge8N16,0.3419109999999999,,,5,0.0
Rb2Zn8B6O18,4.884085,,,5,6.0
Fe4S4,2.412437,,,5,3.0
Pt4Cl8O8C8,4.517151,,,5,5.0
Hg4Ni4S2F12,2.980502,,,5,3.0
Ag4Fe4O8,2.342042,,,5,2.0
Ba6Se8P4O8,2.145506,,,5,2.0
Bi2W4K2O16,3.820251,,,5,4.0
Pb4Cr4B4O16,3.328646,,,5,4.0
As16S12,2.861081,,,5,3.0
Bi1Te1I1,1.73876,,,5,2.0
K1N1O3,4.987877,,,5,6.0
Ca2Ti1Mn1O6,2.239711,,,5,2.0
Cs4Hg2I8,2.915166,,,5,3.0
Sr4As12,0.0135059999999999,,,5,0.0
Rb8Co8O12,2.777153,,,5,3.0
Cs1Zn4As3,0.487859,,,5,0.0
Ag3C6N6K2Na1,3.829615,,,5,4.0
Pd1Ag2O2,1.145458,,,5,1.0
Sb2Kr6F22,3.268315,,,5,4.0
K3Cr11S18,1.387761,,,5,1.0
Mn2Se2O8,3.434347,,,5,4.0
Na1Ag1Zr2F11,2.957515,,,5,3.0
V2Mo2O10,3.130299,,,5,3.0
Ag6Fe2V4O16,2.487261,,,5,3.0
Pb4Cl16,2.73893,,,5,3.0
I8Cl8F8O8,3.249707,,,5,4.0
Ag1I1,2.488344,,,5,3.0
Bi4Se4Fe2Cl6O14,3.042019,,,5,3.0
Pt6Cl12,3.128502,,,5,3.0
Hg9S3O18,1.999941,,,5,2.0
Zn6Sr8F28,7.315039,,,5,7.0
Hg2Sn1Se4,0.947482,,,5,1.0
Rb2Te5,0.7676769999999999,,,5,1.0
As2Sn2Sr1,0.041425999999999,,,5,0.0
Nb2Se4Br4,1.874327,,,5,2.0
W1N2,1.857936,,,5,2.0
Hg8O16Ag4As4,1.692346,,,5,2.0
Zr4O8,5.459707,,,5,6.0
Si6C6,2.941479,,,5,3.0
K12Mn2S8,2.685137,,,5,3.0
Cs2Sb4S8,1.878586,,,5,2.0
Se12Cs12Bi4,2.774554,,,5,3.0
Ge2S6O4H6K6,4.177635,,,5,5.0
Tl8I12Cu4,2.59211,,,5,3.0
H6Ru1Sr2,3.629575,,,5,4.0
Li4In4Si2Se12,2.288208,,,5,2.0
Co2Al4Cl16,4.240625,,,5,5.0
Hg8Mo4O16,2.252265,,,5,2.0
Ba1Mn2Sb2,0.8851079999999991,,,5,1.0
Mg2B4H16,6.674404,,,5,7.0
Re4S4Te4Cl16,3.270207,,,5,4.0
Fe2Ti4O10,1.616234,,,5,2.0
Hg6As4O16H4,3.352638,,,5,4.0
Bi2Se12P4Ag2,2.077407,,,5,2.0
Ba8Sn4F8Se12,2.603566,,,5,3.0
I1Sr2H3,2.951741,,,5,3.0
Ge1Cs1Cl3,2.806025,,,5,3.0
Mg2Si2As4,1.80809,,,5,2.0
Cs2La2Cd2Te6,2.454384,,,5,3.0
Pt1Cs2S6F6O18,3.610095,,,5,4.0
Bi18Rh4I6,0.551929,,,5,0.0
K2Pd1Cl4,3.155924,,,5,3.0
Hg8Te4Br12,2.771243,,,5,3.0
O1Zn4P6N12,4.812737,,,5,5.0
Na8O16N8H8,4.395874,,,5,5.0
Zn2Cr4S8,1.756256,,,5,2.0
Rb6Cu4Cl14,1.805287,,,5,2.0
Hg2Mo2O8,3.096414,,,5,3.0
In2Si2O7,4.277083,,,5,5.0
K12Sc4Cl24,5.6441,,,5,6.0
K1F1,7.828571,,,5,7.0
Rb2Fe4Te6,1.507939,,,5,1.0
Hg4O16N4H4,3.686936,,,5,4.0
Ba4Bi2Ta2O12,3.467661,,,5,4.0
Rb3Ag6Sb3S12,1.640306,,,5,2.0
Os2Ge4,0.262971,,,5,0.0
Pb4Rb8O8,2.714658,,,5,3.0
In2Li2Se4,2.440582,,,5,3.0
Sr2Cu1Se4O12H2,3.797631,,,5,4.0
Tl1Br1,2.815663,,,5,3.0
Tl8Si2S8,2.519755,,,5,3.0
K4Al4Sb16,0.8585179999999991,,,5,1.0
K2Li2Zn2O4,3.872103,,,5,4.0
Au4Cl12S8C4,2.942705,,,5,3.0
Li8P56,2.363283,,,5,2.0
La8Ga4N12,2.687503,,,5,3.0
Mg4V8O20,3.607768,,,5,4.0
Ba1Mg2P2,1.772545,,,5,2.0
Ba2P1Cl1,1.893812,,,5,2.0
Pb2Fe2Ge6O20H8,2.794186,,,5,3.0
Zn18S18,3.457168,,,5,4.0
Rb2Cu2O4,2.855878,,,5,3.0
Ca2Ge4O10,3.913603,,,5,4.0
Sr4Lu2Nb2O12,4.599318,,,5,5.0
Ba2Bi2O4I2,3.946096,,,5,4.0
Ag1Sc1O2,3.533055,,,5,4.0
Cd2P2Se6,2.015627,,,5,2.0
Cu1Fe2As2O10H2,3.249554,,,5,4.0
Ge3Co10O16,2.580109,,,5,3.0
Lu1Tl1Se2,1.62946,,,5,2.0
Lu1Cu1S2,2.53821,,,5,3.0
Au2N10O28,3.289021,,,5,4.0
Bi4Te2O12,2.320432999999999,,,5,2.0
Cs2V2S4O16,3.222018,,,5,4.0
Zn2F4,6.297909,,,5,7.0
Si8Br32,5.370757,,,5,6.0
Cs4Bi4Ge4S16,2.561091,,,5,3.0
Ag2In2Se4,0.73799,,,5,0.0
P2Ti2Cl18,3.503625,,,5,4.0
Cs8Co4I16,3.111398,,,5,3.0
Sr2F2Sb2Mn2,1.527922,,,5,1.0
I2Tc2O10C10,3.374215,,,5,4.0
Ta4O4N4,3.218523,,,5,4.0
Ni1B12,0.8624729999999999,,,5,1.0
Ge1Te1,0.592233,,,5,0.0
Na1Ta1N2,2.092961,,,5,2.0
Be12Cl24,7.960891,,,5,7.0
Cr6P8O28,2.064349,,,5,2.0
Ca12N8,2.251554,,,5,2.0
Pb8Rh4F28,3.847252,,,5,4.0
Cu2Se4O16H12,3.553826,,,5,4.0
Na2V2F4O4,3.15517,,,5,3.0
Re4K8Cl20O4,2.162994,,,5,2.0
P8S8,3.229103,,,5,4.0
Ca2Cl4,6.931097,,,5,7.0
Au2Ge8K6,1.240362,,,5,1.0
La6In2Be2S14,2.472746,,,5,3.0
Ir4Br20K8O4C4,3.28379,,,5,4.0
Cs1F2O3Be2B1,7.701253,,,5,7.0
Cs2As6O16,3.984133,,,5,4.0
Cs4Pt2Bi4,0.863455,,,5,1.0
Ga12Te12I4,2.099611,,,5,2.0
Pb4C4N8,2.486256,,,5,3.0
I2Se12Sb2F12,2.277935,,,5,2.0
Ag4Si2Zn2S8,2.919359,,,5,3.0
Pb4Cr4O16,3.075594,,,5,3.0
Hg3S3,2.479385,,,5,3.0
As6Fe6O24,3.063724,,,5,3.0
Tl2Hf3Cu2Se8,1.316088,,,5,1.0
Cs1K2Sb1,1.430175,,,5,1.0
Cs2Pt1C2,1.9905449999999991,,,5,2.0
Cu5Na2Si4O14,3.637525,,,5,4.0
Mn12O16,2.303584,,,5,2.0
Fe4Zn2Se8O24,3.184919,,,5,3.0
Sc2Cl6,5.370616,,,5,6.0
K4Si8O20H4,6.911722,,,5,7.0
Bi1N1Ca3,1.019972,,,5,1.0
Ag8S4,2.04097,,,5,2.0
La4As4Te4,0.521358,,,5,0.0
Rb4As4Si2,1.692943,,,5,2.0
Tc2Xe2F10O8,3.460303,,,5,4.0
Hg1Ag2I4,1.999088,,,5,2.0
Al1Ag1S2,2.835937,,,5,3.0
Ag4Cs4O4,2.745141,,,5,3.0
Bi2O3,1.963719,,,5,2.0
Na12Ge4Se14,2.491579,,,5,3.0
Ir1K4O4,2.289401,,,5,2.0
Na8P8,1.574765,,,5,1.0
In9S15Rb3,1.998303,,,5,2.0
Zr4S28P8,2.516073,,,5,3.0
Y6Ga2S12,3.079975,,,5,3.0
Sn16F32,3.187007,,,5,3.0
In4Zn4S10,0.726147,,,5,0.0
Ba8Sb4Fe4S20,1.844974,,,5,2.0
Sr2Mn1Mo1O6,1.204262,,,5,1.0
Ta4O10,1.349048,,,5,1.0
Pd8Br16,1.953901,,,5,2.0
Ba32P24,1.354461,,,5,1.0
La6Ir2O14,0.306738,,,5,0.0
Rb4Cu2V2S8,2.248141,,,5,2.0
Al2F6,10.05277,,,5,7.0
Ba8S16In4,2.943493999999999,,,5,3.0
Ta4Rb12S16,3.810784,,,5,4.0
Ba8Cu4I4O8,3.852441,,,5,4.0
Ca4Ga8O16,4.590393,,,5,5.0
Fe8Zr8O24,3.019368,,,5,3.0
Mn2Rb4F12,5.091735,,,5,6.0
Sr4Cu4Se8O24,3.567555,,,5,4.0
Ta2Te4Br12,1.64154,,,5,2.0
Hg6Zr2S4Cl12,3.860508,,,5,4.0
Sr6Li2Ru2O12,2.381691,,,5,2.0
Y1P1,0.102215,,,5,0.0
Ag4I4,2.510047,,,5,3.0
Fe4Cs8O16,3.312204999999999,,,5,4.0
Cu4Li4O4,2.740767,,,5,3.0
Mo1F6,5.417175,,,5,6.0
Se2O16H20,3.717567,,,5,4.0
Ba11Cd6Sb12,0.7040149999999991,,,5,0.0
Zr4P8O28,6.486496000000001,,,5,7.0
Sb2Cu6S8,0.256838,,,5,0.0
Ca4O12C4,6.935732000000001,,,5,7.0
Ti6K2O13,4.035234,,,5,5.0
La6F18,10.211139,,,5,7.0
K1Ni1I1O6,3.113573,,,5,3.0
Sn10P4O20,3.636501,,,5,4.0
Ta2I4Cl4,2.051501,,,5,2.0
Mo2O8Ag4,3.490969,,,5,4.0
S32O4,3.440001,,,5,4.0
Na4In4Si2S12,3.283771,,,5,4.0
Sr2Ca1Mo1O6,3.063111,,,5,3.0
O16Sb8,2.897841,,,5,3.0
Au2S8O28Na2,3.457556999999999,,,5,4.0
Pt1N4H6O4,3.838888,,,5,4.0
Pb4Mn4Cr2O18,2.291386,,,5,2.0
Na4Sn4F6C6O12,3.667793,,,5,4.0
K2Cu2O4,2.807851,,,5,3.0
Tl16Si4Se16,1.88184,,,5,2.0
Re4Sb8O26,3.565004,,,5,4.0
W4Cl12N4,2.691257,,,5,3.0
Cd12As4Cl12,2.354521,,,5,2.0
Na4C12O12,1.557967,,,5,1.0
Mn8P4F4O16,4.676775,,,5,5.0
Ge4V8F8O16,2.899101,,,5,3.0
K8Mn6F24,2.451962,,,5,3.0
Ca2Au2P2,0.056906999999999,,,5,0.0
Ru4Rb8O16,2.461844,,,5,3.0
Sr4N8O20H8,4.111479,,,5,5.0
Nb4Na4O12,3.935821,,,5,4.0
Cs4Si2S6,4.023005,,,5,5.0
O16,2.338902,,,5,2.0