formula,bg,formation_energy,mp-id,fidelity,bg_category
Y16O24,5.6079229999999995,,,5,6.0
K2V6O16,3.040603,,,5,3.0
Mg8Si4S16,4.032467,,,5,5.0
Bi2Cu5B4O14,3.025051,,,5,3.0
Ca4Sr4Si4,0.852255,,,5,1.0
Sr2Fe2O4,2.144439,,,5,2.0
Mg2Cr4O8,4.146006,,,5,5.0
Fe2Te12O26,2.45628,,,5,3.0
Se8Zn2N4H12,1.146119,,,5,1.0
Bi2Te1O2,0.280325,,,5,0.0
Fe6P6Na2O24,1.095114,,,5,1.0
W4N12Na12,2.994801,,,5,3.0
Bi8Cd4Ge4O24,2.955269,,,5,3.0
Sn2V2P2O10,1.668625,,,5,2.0
Cs1Ge1Br3,1.168092999999999,,,5,1.0
Rb2Li2Se2,3.250198,,,5,4.0
Cs8Mo4S16,2.474312,,,5,3.0
Mn3P4O12K2H4,5.652033,,,5,7.0
Tl1Bi1Te2,0.6565759999999999,,,5,0.0
B16S24,3.317452,,,5,4.0
Ba4Ca4Si4,0.7295200000000001,,,5,0.0
Ni2Rb6O4,2.276769,,,5,2.0
Cs6Bi4I18,2.97118,,,5,3.0
Na16K4Ge4As12,1.09234,,,5,1.0
Pb2Sr4O8,2.311968,,,5,2.0
In2Se2O14C2H8,5.07192,,,5,6.0
Cd2I4,3.336233,,,5,4.0
Cr2Cu2Sr4S2O6,2.266872,,,5,2.0
Ba12In4As12,1.027215999999999,,,5,1.0
Ru2C8O8,2.931138,,,5,3.0
Hg4Ag4I4S4,2.157059,,,5,2.0
Sn4Zr4S12,1.539954,,,5,1.0
Ba2Hf1S4,1.595811,,,5,2.0
Ni2Se2,1.402305,,,5,1.0
Ba4H8,3.786666,,,5,4.0
Nb4Cl20,3.420896,,,5,4.0
Li2Ti4P6O24,3.810221,,,5,4.0
Hg8Cu8S8Cl8,1.934702,,,5,2.0
Ni1Re2O8,4.754414,,,5,5.0
Br4Cl4F4C4H12,4.045727,,,5,5.0
Rb4Mn2Se4,3.037554,,,5,3.0
Tl8Ge8Se20,2.129129,,,5,2.0
Mn8Ga16Te32,0.8075,,,5,1.0
Pb4Ag4Sb4S12,1.557504,,,5,1.0
Ba12I8Si4,0.673096,,,5,0.0
Cd4P8,2.160213,,,5,2.0
Sn2F6,3.767847,,,5,4.0
Cs8Bi8Zn4Se20,2.034061,,,5,2.0
Mo2Cr2V2O14,3.481383,,,5,4.0
Cd2As4,0.7926559999999999,,,5,1.0
Ga4Te4,1.433252,,,5,1.0
Sn4Se16Li16,2.439552,,,5,3.0
Cr2S8N12C8H16,3.598069,,,5,4.0
Tl4Rb12Cl24,3.187443,,,5,3.0
Hg1S1,0.313503,,,5,0.0
In4P4O16,4.344472,,,5,5.0
Ag4Cu2Rb2N8C8,3.600362,,,5,4.0
Ba1Xe5Sb2F22,4.353986,,,5,5.0
Cu2Pb4Sr4Fe2O12,1.315067999999999,,,5,1.0
Pd1Na2D4,3.415095,,,5,4.0
Bi2Ba4Se10In2,1.671039,,,5,2.0
Ta4Pt6S16,1.11777,,,5,1.0
Rb8Cr4O4Cl20,1.908735,,,5,2.0
Ag6Se4K2,0.756635,,,5,0.0
La2Cr2O6,3.659907,,,5,4.0
Ce1Rb3F6,2.651607,,,5,3.0
Na2In2Te4,1.273205,,,5,1.0
S2La1K1,3.556247,,,5,4.0
Ba2Te4Mg2O14,3.301185,,,5,4.0
Rb2N6,5.448978,,,5,6.0
Ti12F48,5.822247,,,5,7.0
Cs2V2I6,3.62066,,,5,4.0
Ba6Ni2Sb4O18,3.965599,,,5,4.0
Sn1Se1,0.117688,,,5,0.0
Fe1Li2Br4,3.429566,,,5,4.0
Ag4Sr2Mn2V4O16,2.90992,,,5,3.0
Pd1K2S2,2.218475,,,5,2.0
Sr12Ga2N10,1.157553,,,5,1.0
Rb2Cr6S10,1.90745,,,5,2.0
Cu2Ge1S3,0.436903,,,5,0.0
O24Fe16,2.399116,,,5,3.0
Cs4Cu2P4O14,3.813666,,,5,4.0
Pb2Bi2V2O10,3.415477,,,5,4.0
N4S8Cl24Al4,2.883206,,,5,3.0
Te6S4C4F12O12,2.615943,,,5,3.0
In2F6,5.994182,,,5,7.0
Sc2Ba2Ga2Zn6O14,4.053545,,,5,5.0
Pt2S4Cl16,3.03237,,,5,3.0
O4D8,7.321311,,,5,7.0
Cs6Zr4I18,1.27619,,,5,1.0
Y8S12,1.467515,,,5,1.0
Cs2Sn1N6H12,3.910212,,,5,4.0
Bi12Si1O20,3.440852,,,5,4.0
Rb4Cu2Nb2Se8,2.53394,,,5,3.0
Cs4As6,0.943213,,,5,1.0
Pb4I2O4H2,3.175821,,,5,3.0
Fe8O16Si4,2.042772,,,5,2.0
Cl4N8H20,6.743755,,,5,7.0
Ag1Sn1F6,2.664888,,,5,3.0
Cu4Zr4Ti4O20,3.444223,,,5,4.0
Cu2Pt2F12,3.465392999999999,,,5,4.0
Ba4Sn4S8,2.272984,,,5,2.0
K3Ta3B2O12,3.998107,,,5,4.0
Pd1Zr1F6,3.990673,,,5,4.0
Sb2Na6,0.967728,,,5,1.0
Cs8Bi2Cl24Sb2,1.277137,,,5,1.0
Mg4F8,9.037448,,,5,7.0
La6V2O16H6,3.290699,,,5,4.0
C6N8,1.948298,,,5,2.0
Ru2Te16Cl4,0.356342,,,5,0.0
Cu1As1Se2,0.5757689999999991,,,5,0.0
Ba12Al4As12,1.248015,,,5,1.0
Tl2Sn4Br10,3.182799,,,5,3.0
Co4Sb4O14,1.945716,,,5,2.0
Ag4S8O16Na4H8,3.243006,,,5,4.0
Mn8Sn4Se16,1.320835,,,5,1.0
C11N4,0.631209,,,5,0.0
Cd1Rb1O6N3,4.164554,,,5,5.0
Cr4C6N12,2.6458500000000003,,,5,3.0
Na1V1Zr2F11,3.437478,,,5,4.0
K1Br1,5.021406,,,5,6.0
Mo4O16C8H8,3.038764,,,5,3.0
Cs4Sn2Ge6O18,4.194183,,,5,5.0
Bi2Pd4O8Li2,1.691225,,,5,2.0
N2Na3Li3,0.472603,,,5,0.0
Cd4Cs8Br16,4.624708999999999,,,5,5.0
La4Zn2Ga4S12O2,3.609401,,,5,4.0
Na8Mn4O10,3.203366,,,5,3.0
Y2Zn2As2O2,1.808427,,,5,2.0
Ba3In2Cl2O5,2.731665,,,5,3.0
Cs4Co4O8,2.233359,,,5,2.0
Ba4Ga8P8,1.838189999999999,,,5,2.0
Co8Na24O16,2.692132,,,5,3.0
Te8O16,3.065087,,,5,3.0
V4O10,2.227034,,,5,2.0
Bi2Br6,3.610234,,,5,4.0
Fe2Rb2Se4,2.084309,,,5,2.0
Ba4Ge2Se8,2.201578,,,5,2.0
Pb2Se4,0.074749,,,5,0.0
Se8Fe4,1.255595999999999,,,5,1.0
H12Li8Ru2,3.911051,,,5,4.0
Ba8Ta4N12,2.933801,,,5,3.0
Pt8I24,0.8186800000000001,,,5,1.0
Fe1Mo2K1O8,3.621278,,,5,4.0
Zn8K2O18B6,4.87848,,,5,6.0
Rb6Mn2F14,3.272286,,,5,4.0
Cu9P4O20H2,2.949285,,,5,3.0
Ca1K2O8N4,3.888468,,,5,4.0
Ca12Ge8P16,1.310286,,,5,1.0
Cr8P4O16Br4,3.284625,,,5,4.0
Ta6N10,2.10297,,,5,2.0
Ta4Cu6K6Se16,2.777628,,,5,3.0
K4Te4,1.415006,,,5,1.0
Nb12Cl20O8,1.729191,,,5,2.0
Re8Si14,0.532261,,,5,0.0
Pd3S8P2,2.678555,,,5,3.0
Ag6P22,1.425984,,,5,1.0
Bi4I4O16,3.503567,,,5,4.0
K2Mg2Sb2,1.874128,,,5,2.0
Y4Na4Ge4O16,5.258071,,,5,6.0
Cs4Sn4P4S16,2.703338,,,5,3.0
Mg4D16Fe2Na4,4.035433999999999,,,5,5.0
Na4Se4,1.371964,,,5,1.0
Ag4Sb4S8,2.070761999999999,,,5,2.0
Tl2Ti2P2S10,2.041791,,,5,2.0
Sc4Cr4O12,3.963926,,,5,4.0
Cd16Ge16O48,2.736814,,,5,3.0
Sc2V2O8,3.806658,,,5,4.0
Sb8Br8Co4O12,1.798449,,,5,2.0
Ce1Na1Cs2Cl6,4.724906,,,5,5.0
Te8Cu4Cl4,1.375618,,,5,1.0
Se12P4Na8,2.725016,,,5,3.0
Rb4Re4S4O12,3.748114,,,5,4.0
Sr4Mn6Bi4O4,1.135146,,,5,1.0
Ba2Te2Ta6O21,4.137619,,,5,5.0
Fe2Ca4Cl2O6,1.367623,,,5,1.0
Mn2K4F10O2H4,3.428032,,,5,4.0
Ba8Bi4Fe4S20,1.988364,,,5,2.0
Cd2Sc4Se8,1.400408,,,5,1.0
Na1Ta1O3,3.522053,,,5,4.0
Ag6Ge6Sn4P12,0.4882789999999999,,,5,0.0
As8Se12,1.099532,,,5,1.0
Rb2N6C8,5.090555,,,5,6.0
In2Zn2S5,0.726846,,,5,0.0
Sr6Zn2Pt2O12,4.270311,,,5,5.0
Nb2S4Cl4,2.457545,,,5,3.0
Nb4Cu4O12F4,3.814046,,,5,4.0
V4Ca8N12,2.561744,,,5,3.0
K1In1P2S7,3.056974,,,5,3.0
Na8Au24Ge8,0.094627,,,5,0.0
K2Sn4Br10,3.193243,,,5,3.0
Al3F9,9.7954,,,5,7.0
La2Ni2O4,2.561908,,,5,3.0
Zn2K4O4,3.515193,,,5,4.0
K12S12B4,3.764047,,,5,4.0
Ba6Mg2Sb4O18,4.344349,,,5,5.0
Rh1N8O12Na1H8,4.370029,,,5,5.0
Ge2Mg2O6,4.022595,,,5,5.0
Sr2Pt8As12,0.454209999999999,,,5,0.0
Fe2Ti2O6,1.93644,,,5,2.0
Cd2Ge2Li4O8,3.984117,,,5,4.0
Ba1Co2P2O9H2,4.846946,,,5,6.0
Sr2Ga1Sb1O6,2.282299,,,5,2.0
Rb6Se18P6,2.032271,,,5,2.0
Li5Re1O6,3.609245,,,5,4.0
Mn2Na4Se4O20H8,3.757296,,,5,4.0
Sb8F48,5.135398,,,5,6.0
Ge2S4,3.458665,,,5,4.0
Cs16Fe4O16,2.051781,,,5,2.0
Sc8Te12,0.244831,,,5,0.0
Ba10In4Sb12,0.4382379999999999,,,5,0.0
N20H20,5.571624,,,5,6.0
Mg2Se2,3.565122,,,5,4.0
Sb4Sr4Li4,1.204561,,,5,1.0
Cu8Cl4O12H12,3.447005,,,5,4.0
Na2I2Sr4O12,4.305715,,,5,5.0
K1Tl1O2,1.841017,,,5,2.0
Te3Bi2,0.022645,,,5,0.0
Lu8S12,1.603308,,,5,2.0
Hg2Sr2As4O14,2.975615,,,5,3.0
V2K2S2O18H12,4.188469,,,5,5.0
Ce2Se8K2,1.476477,,,5,1.0
W6Cl17P1,0.311623,,,5,0.0
Zn1Cu2Sr2S2O2,2.164224,,,5,2.0
Ba4Cr8O16,3.688221,,,5,4.0
Bi2Au2K4,1.328635,,,5,1.0
Ca2Ag2Bi2,0.236947,,,5,0.0
Ta4Cu4S12,1.166006,,,5,1.0
Sn4Se8O24,4.14472,,,5,5.0
Ba4Ni4Lu8O20,3.0214,,,5,3.0
Sr4In4O10,2.23332,,,5,2.0
Na4Pd2F8,3.440588,,,5,4.0
Si6O12,7.441236,,,5,7.0
Si3O6,7.623206,,,5,7.0
Ag2As6O18H4,2.250247,,,5,2.0
W1O1Br4,1.719492,,,5,2.0
Sc1Ag1Se2,1.546012,,,5,1.0
K2O1,2.8771839999999997,,,5,3.0
Au2Rb6Sn8,0.8682639999999999,,,5,1.0
Ba5V5O14,1.245215999999999,,,5,1.0
Ca12Al4As12,1.311858,,,5,1.0
Ag8Cr4O16,2.153293,,,5,2.0
As8Na4O22,3.818543,,,5,4.0
Se1Rb2Cl6,3.308901,,,5,4.0
Mo1V2O8,2.009036,,,5,2.0
Au2Sr5O8,2.852288,,,5,3.0
Rb2Bi4Br14,3.725895999999999,,,5,4.0
N2B2C4,3.302521,,,5,4.0
Zn1Sn1Ag2S4,1.217172,,,5,1.0
Cs2P2O8H4,6.996327,,,5,7.0
Cd2Y4S8,2.126354,,,5,2.0
Na2B6H16,6.360742999999999,,,5,7.0
V2Cl2O2,2.47121,,,5,3.0
Cd2Cr4S8,1.823787999999999,,,5,2.0
Pt1Rb2S2,2.351297,,,5,2.0
Ni1Li2O2,4.787629,,,5,5.0
Sb8O16,2.911791,,,5,3.0
Li4Na4Se4,3.434165,,,5,4.0
Ba4F8,7.739469,,,5,7.0
Ba4P14Cl2,2.140451,,,5,2.0
Mo12Br24,3.197112,,,5,3.0
Zn2O2,2.657034,,,5,3.0
Ni1S2C2N6H12,4.985602,,,5,6.0
Ba1Sr2Mn2Si4O14,3.153453,,,5,3.0
Ti2Ca8N8,2.455902,,,5,3.0
Cs2V2P6O20H2,3.062715,,,5,3.0
Ba2S8B4,3.665619,,,5,4.0
La4Cr4O12,4.138675,,,5,5.0
K4S6,2.334169,,,5,2.0
Cd1Rb4V5Cl1O15,3.28863,,,5,4.0
Pb1Cu3Sn4O12,2.9403,,,5,3.0
Zn1S1,3.609357,,,5,4.0
Cs4Ag4Se16,2.052412,,,5,2.0
Ca2Cr2P4O14,4.209083,,,5,5.0
Pt4Ge4Se4,0.7655679999999999,,,5,1.0
Mn4Sb8O16,2.645922,,,5,3.0
Ba8Sb4Si2Se22,1.653768,,,5,2.0
Bi14Pd1Br16,1.375046,,,5,1.0
C1I4,1.824437,,,5,2.0
Ge2Co4O8,2.694215,,,5,3.0
Cr8F32,3.161052,,,5,3.0
La4Se24P8K4,2.943114,,,5,3.0
Pd8P8S8,2.010455,,,5,2.0
In4S10Cs8,3.112528,,,5,3.0
Pb2Br2F2,3.594572,,,5,4.0
Sn4O8,2.011987,,,5,2.0
Ga4Ca4O10,3.672541,,,5,4.0
Pb4Ti4O12,3.248311,,,5,4.0
Ca4In2Os2O12,1.941106,,,5,2.0
Se6,2.299414,,,5,2.0
Si2O4,6.647183,,,5,7.0
Mg6P4,1.763382,,,5,2.0
Hg6I3Na3O6,2.415537,,,5,3.0
Pb4Cu2B4O12,3.392847,,,5,4.0
Hg14Br12P8,2.127835,,,5,2.0
Rb6Ti2F14,4.598932,,,5,5.0
Te1K2Cl6,3.306642,,,5,4.0
Zn2As2Na2,1.17943,,,5,1.0
Sr2H4,2.180285,,,5,2.0
Ba1Cd2Sb2,0.282739,,,5,0.0
Pb4Mn4V4O20H4,2.825804,,,5,3.0
B32Cl32,1.559609,,,5,1.0
Na4V4P4O20,2.908723,,,5,3.0
C2B12Li2,2.085419,,,5,2.0
Sb2Zn2Li2,0.987955,,,5,1.0
Ag4P8,1.378546,,,5,1.0
Ba6Ni2Sb4O18,1.859282,,,5,2.0
In8Se16K8,2.381825,,,5,2.0
Bi4Ca4F4O16C4,3.792248,,,5,4.0
Cu4Sn2Se6,0.145875999999999,,,5,0.0
Cd1V2O6,3.164899,,,5,3.0
Mg8Si4Se16,3.069618,,,5,3.0
In2Hg14S12Cl10,2.452398,,,5,3.0
V2Rb2S2O18H12,4.19264,,,5,5.0
K12P44,2.680529,,,5,3.0
Sn1Na2N6H12,1.902382,,,5,2.0
Cu12C8O32H8,3.265746,,,5,4.0
Ag6Hf4F28,0.8450500000000001,,,5,1.0
Cs8Se20Si8,3.398498,,,5,4.0
O4Cl2Cd2Bi2,4.025217,,,5,5.0
Rb2Mn2Sb2,1.634095,,,5,2.0
Hg1Se4Co1N4C4,3.09748,,,5,3.0
Cd2S4Cl4C4N8H16,4.411731,,,5,5.0
Sr2Cu1Mo1O6,2.032419,,,5,2.0
Ru4Se4C12O12,3.179814,,,5,3.0
K2Sn2As2,0.698388,,,5,0.0
Mn4P16,1.778717,,,5,2.0
In1Li1Se2,1.530664,,,5,1.0
La4Pd4K4O12,2.131373,,,5,2.0
Ag4K4N8O24,4.197526,,,5,5.0
Si2Se4,2.631459,,,5,3.0
Sr2Fe4P8O28,3.770958,,,5,4.0
Au4La4O12,3.410112,,,5,4.0
Cu2Fe2O4,1.766352,,,5,2.0
Rh4Cl12,3.065685,,,5,3.0
Ba4Cu6S10Na2,1.741767,,,5,2.0
K1F1,8.170745,,,5,7.0
Ag8Se4O12,3.122742,,,5,3.0
Rb12V4S16,2.651739,,,5,3.0
Ge2Ni4O8,3.353068,,,5,4.0
Nb4Cu6K6S16,2.879227,,,5,3.0
Ni1V2Se4,0.480888,,,5,0.0
Na2Ga10Ti4O24,4.142375,,,5,5.0
Fe4S6O24,3.537513,,,5,4.0
In2O4H2,3.528905,,,5,4.0
Cl8F24,4.02996,,,5,5.0
K8F24,3.624174,,,5,4.0
As8Zn8,1.048958,,,5,1.0
Au6Cl6O6,2.265219,,,5,2.0
Mo2Mn4P24,0.8460369999999999,,,5,1.0
Na8Cs12Sn4P12,1.796626,,,5,2.0
Ti4I12,1.216448,,,5,1.0
Hg12P4O16,1.212545,,,5,1.0
K4Sn4Se10,1.543628,,,5,1.0
Sn4Sr4S12,1.474454,,,5,1.0
In2Br6,3.600842,,,5,4.0
Be3F6,10.323668,,,5,7.0
V1O1Br2,0.557554,,,5,0.0
Cu12Se8O24Cl8,2.493201,,,5,3.0
Na2Ag2N4O8,4.027926,,,5,5.0
Sc12In4S24,1.415684,,,5,1.0
Os3Si2Cl6C12O12,3.484728,,,5,4.0
Sr3N6C3,4.383291,,,5,5.0
Zn1O1,1.206902,,,5,1.0
Ba4In2O6Br2,3.07181,,,5,3.0
Tl2Hg1Sn1Te4,0.57835,,,5,0.0
Na2Au2Te2,0.018523,,,5,0.0
Ba2Pb2O6,0.551307,,,5,0.0
Cu2F8N4O4H16,4.799292,,,5,5.0
Cs8S16O32,3.800688,,,5,4.0
Sr1Te1,1.116099,,,5,1.0
Cs4Zn6S8,4.035376,,,5,5.0
Cr8As8O32,3.733113,,,5,4.0
Bi4W2O12,3.14691,,,5,3.0
V8O20Li4,2.428738,,,5,3.0
Al2Mn1Te4,1.632262,,,5,2.0
Bi8Ti6O24,3.670114,,,5,4.0
Ag4Te4O12,2.494537,,,5,3.0
Cs8Sn4Te16,1.088296,,,5,1.0
Sr16N16C4,2.053562,,,5,2.0
Fe4O10B4,3.516822,,,5,4.0
Fe24O32,1.185824,,,5,1.0
Ba8Cr4Nb4O24,2.639874,,,5,3.0
Ca1C2,2.591454,,,5,3.0
Au4K4Cl16,2.8400380000000003,,,5,3.0
Ba3Zn1N2O1,1.195659,,,5,1.0
Se2Y1Tl1,1.873221,,,5,2.0
Hg4Cl4P2,2.469567999999999,,,5,3.0
Lu2P10,0.695538,,,5,0.0
Na8Ge2O8,4.43022,,,5,5.0
Sn1Ti1O3,1.899045,,,5,2.0
Ni4Rb12O8,2.503952,,,5,3.0
K4Si4H12,3.355669,,,5,4.0
S8N12O2H8,3.149388,,,5,3.0
Mg4Cl8,4.120136,,,5,5.0
Mn2Sr2Sn2,0.0788089999999999,,,5,0.0
Ba2Ca1Mo1O6,3.092068,,,5,3.0
Se16K12P4,2.667471,,,5,3.0
Cd24P16,0.647369,,,5,0.0
Ca4C8,3.566352,,,5,4.0
Al1P1,2.326595,,,5,2.0
Na2Te3Mo3O16,3.339493,,,5,4.0
Te8C8F24,3.503721,,,5,4.0
Ca1Cu3Ge4O12,3.176526,,,5,3.0
Mn2Na6F12,3.183352,,,5,3.0
He1,20.301832,,,5,7.0
Sn4Zn2S12Na4,2.753277,,,5,3.0
Cu4O4,1.940761,,,5,2.0
Ba1Ti1B2O6,3.853531,,,5,4.0
Si6O12,7.467871,,,5,7.0
Li4Fe2Sn2S8,2.697087,,,5,3.0
K2Sn1Br6,2.189989,,,5,2.0
Cd2Y4Se8,1.515194,,,5,1.0
I14Cd7,3.354806,,,5,4.0
Br1P3Cl14,2.656414,,,5,3.0
Ir4Sb12,0.612042,,,5,0.0
K6S12B6,3.807364,,,5,4.0
W4K12O6N8,3.244397,,,5,4.0
Ir4Sb4S4,2.205511,,,5,2.0
In1Ag1S2,0.877934999999999,,,5,1.0
K4Bi4Si4S16,2.722089,,,5,3.0
Mo2As4Rb4O18,3.829748,,,5,4.0
Mg4C6,2.416571,,,5,3.0
Ca6N4,1.757514,,,5,2.0
Mn2Rb3Cl7,4.067247,,,5,5.0
La2O2Te1,2.910867,,,5,3.0
I2Mo2O12Li2,3.084951,,,5,3.0
Ru8O8F32,2.345559,,,5,2.0
Ag2Ti1I6O18,3.640956,,,5,4.0
Te8C8F16,2.508598,,,5,3.0
Zr2F12Cu2O8H16,4.866666,,,5,6.0
Sr4Ce4O12,4.044659,,,5,5.0
Ge2S2,0.907479,,,5,1.0
As4O12K4,4.936528,,,5,6.0
S12P4Al2Na2,3.720741,,,5,4.0
Au2Cl8N10S10,2.564893,,,5,3.0
Mg4B16,0.706402,,,5,0.0
Ca4Cd2P4,2.058244,,,5,2.0
Hg12S8Cl2Br6,2.584285,,,5,3.0
S4O16N4D16,5.875148,,,5,7.0
Ta2Cl20P2,3.834702,,,5,4.0
Ba6Bi6O18,0.308893,,,5,0.0
Se4O8C16,2.212300999999999,,,5,2.0
Cu2Na4S4O20H8,3.936919,,,5,4.0
Ba4Cr4O16,4.024749,,,5,5.0
I8S4N8,2.5413,,,5,3.0
Rb2V2F8O4H8,3.504187,,,5,4.0
K2Mn1Cl6,1.559884,,,5,1.0
Au4Se6O20,2.568096,,,5,3.0
Cs4Sn2Se6,2.655796,,,5,3.0
Rb2Sb2O4,3.203995,,,5,3.0
Sn2P2S6,2.225448,,,5,2.0
Y4Mn2Ni2O12,2.506446,,,5,3.0
S6O28N4,3.407267,,,5,4.0
Sr2Ni1Mo1O6,2.710593,,,5,3.0
W4Cl12O4,0.97639,,,5,1.0
Pt1Mn2C12O12,2.508661,,,5,3.0
Mn4Mo6O16,2.540056,,,5,3.0
Ti2S6,0.980361,,,5,1.0
Te36Li12,0.620833,,,5,0.0
Na2Au2O4,2.601332,,,5,3.0
Tl6N6C3,2.512165,,,5,3.0
Au2Se4K2,1.681404,,,5,2.0
I2Cl6,2.814538,,,5,3.0
Ti8O12,0.7882739999999999,,,5,1.0
In1Tl1S2,1.189845,,,5,1.0
Ba2Ge6Cu4O20H4,3.607403,,,5,4.0
Br2Cu2N4H12,3.533932,,,5,4.0
Na2S1,3.494743,,,5,4.0
Sc1F3,8.639701,,,5,7.0
Cs4Ti2Ag4S8,2.204082,,,5,2.0
Rb4Co2S4,3.72375,,,5,4.0
Nb4Na4O12,3.411349,,,5,4.0
I2Sb10O14,3.321439,,,5,4.0
Na8Pd4Cl16,2.907423,,,5,3.0
Pb4Bi8Nb8O36,2.290455,,,5,2.0
Nb4Pd6Se16,0.993409,,,5,1.0
Se6Ge2Mg1Na4,2.657952,,,5,3.0
Rb8V8F24O8,4.114803,,,5,5.0
Nb4K12S16,3.298023,,,5,4.0
Ba2Zn1Te1O6,2.052034,,,5,2.0
Ba4In4O10,2.12527,,,5,2.0
Te4Bi6Cl20,1.784454,,,5,2.0
Ca1Cu3Ti4O12,2.593069,,,5,3.0
K12Si16Li4,2.093867,,,5,2.0
Co2O4S2Na10,2.779818,,,5,3.0
Hg4Ba8S20,2.683308,,,5,3.0
Na4Y4Ti4O16,3.770294,,,5,4.0
Fe16Ni8O32,2.222574,,,5,2.0
Ag2S6P2,2.2778259999999992,,,5,2.0
Tl4Na4K8O12,2.368907,,,5,2.0
La6Mg2Al2S14,3.415463,,,5,4.0
Ge2V8S16,1.035885,,,5,1.0
Mo2Te8Br2,1.433762,,,5,1.0
Zn2K4Cr4O20H8,3.949803,,,5,4.0
Li5Na1N2,3.955694,,,5,4.0
Rb4V8O18,3.000838,,,5,3.0
Cu2Na4N8O24,3.745414,,,5,4.0
Bi2Na6O8,2.349611,,,5,2.0
Zr2Cl6,1.38411,,,5,1.0
Cs2Cd2Br6,4.06832,,,5,5.0
Mn4Te4,1.454051,,,5,1.0
Fe2C10O10,4.951419,,,5,6.0
Bi2Ti4O11,3.231979,,,5,4.0
Fe6K6O21B6,4.443747,,,5,5.0
Na4N2Li2,1.537564,,,5,1.0
Pt4P8O28,3.22478,,,5,4.0
Ag3In3O6,1.407334,,,5,1.0
Pt1K2Cl6,3.178887,,,5,3.0
In2Se2,1.037299,,,5,1.0
Pd1Rb2Te2,0.922806,,,5,1.0
Ag2Na2C4N4,3.766462,,,5,4.0
Na2Cr6O16,2.790114,,,5,3.0
Cd4Sb4O14,1.684874,,,5,2.0
Si6N8,5.74863,,,5,7.0
In12Te12I4,1.935302,,,5,2.0
Zr2N2I2,2.219979,,,5,2.0
Tl8Ta4S22,0.7945329999999999,,,5,1.0