formula,bg,formation_energy,mp-id,fidelity,bg_category
Bi4Cs6Br18,3.278034,,,5,4.0
Cu4S4O16,3.345453999999999,,,5,4.0
Mg1O1,6.20401,,,5,7.0
Tl4Mn2F10O2H4,2.183264,,,5,2.0
Au2K2S14P4,2.50753,,,5,3.0
Ba8Tl8O20,0.316901,,,5,0.0
Fe4Cl32P4,3.709965,,,5,4.0
Na1Nb1O3,2.788355,,,5,3.0
Ru3Sn15O14,2.168468,,,5,2.0
Zn2Ge2O6,4.018626,,,5,4.0
Cu2Cl6S2O2N8C2H18,2.807009,,,5,3.0
Li3N1,2.067652,,,5,2.0
In2Ga2Zn4O10,2.851566,,,5,3.0
Li1Ga1As2O7,4.338193,,,5,5.0
Ag12S4Br4,1.005146,,,5,1.0
Pb2Ca4O8,2.516177,,,5,3.0
Te4O8,3.935911,,,5,4.0
Ba6Cu4Cl4O8,2.788271,,,5,3.0
Ni2F4,5.791046,,,5,7.0
Fe1Na1F6N2H8,5.152263,,,5,6.0
Rb8Au12S10,2.571088,,,5,3.0
Ag6Tl4P6O24,1.273395,,,5,1.0
Ba1Xe5Nb2F22,4.354392,,,5,5.0
Na2Mn2As2,1.603509,,,5,2.0
Te6Se2O16,4.03742,,,5,5.0
Pb4Bi4As4O20,3.592789,,,5,4.0
Sr6Cd2Pt2O12,3.633943,,,5,4.0
Y8Te12,1.199813,,,5,1.0
Zn1Al2Te4,2.371072,,,5,2.0
Te8Mo4Cl16O4,0.461939,,,5,0.0
Na4O16B4H16,7.099796,,,5,7.0
Be9Cl18,7.658965,,,5,7.0
Sr2B1N2Br1,3.505882,,,5,4.0
Fe2N2,0.888219,,,5,1.0
Rb4Bi4F16,4.746774,,,5,5.0
Sb2Na6O8,3.823512,,,5,4.0
V4K8O8F12,4.249673,,,5,5.0
Au4Bi4Cl24,2.745784,,,5,3.0
Cu2P2Na6C2O14,3.527581,,,5,4.0
K2Cu2C4,3.167162,,,5,3.0
O2Ba2,4.216795,,,5,5.0
Te5Ga2,1.518542,,,5,1.0
Se8Ge4O24,4.415756,,,5,5.0
Hg14P4O20,2.598621,,,5,3.0
Fe2Te4,1.144405,,,5,1.0
Se4Al2Mg1,1.983487,,,5,2.0
Cu1I1,2.562085,,,5,3.0
Bi2Sb2O8,3.878955,,,5,4.0
Ag1Fe2Ga1Te4,1.991083,,,5,2.0
Ca6O12Zn2Mn2,3.66961,,,5,4.0
V2O6H4,2.655158,,,5,3.0
K4F2O8H6C2,6.491887999999999,,,5,7.0
Te4Ba2O12,2.894158,,,5,3.0
Al4Ti2O10,4.320189,,,5,5.0
Ba4Lu8Te16,1.467814,,,5,1.0
Na4Fe4Se8O24,3.123676,,,5,3.0
B4N4,7.204422,,,5,7.0
K4As4Se8,2.247087,,,5,2.0
Ta1Tl1P2O8,4.3938999999999995,,,5,5.0
Cu2K4Sb2,1.804295,,,5,2.0
Rb8In8S16,3.100748,,,5,3.0
Tc1N1,0.392521,,,5,0.0
Ba4Au8F48,3.236834,,,5,4.0
K4Mn2F8,4.790096,,,5,5.0
Hg2Al4Se8,1.232596999999999,,,5,1.0
Te20Al14,2.059806,,,5,2.0
Pt2Rb4C8N8O4H4,2.464646,,,5,3.0
Ni6P4Na4O20H4,5.062004,,,5,6.0
O16F4H4P4K4Mn2,1.913541999999999,,,5,2.0
Cs2Cl14Ti4,2.102983,,,5,2.0
V2Al4Cl16,4.408342,,,5,5.0
Na2Fe2Ge4O12,3.957967,,,5,4.0
Ir2Cl6O6H20C4,3.630041,,,5,4.0
La4Se8Ga4O4,2.212985,,,5,2.0
Co4As4O14,3.277186,,,5,4.0
Rb6As2Se32,1.650573999999999,,,5,2.0
Au6F16,2.671098,,,5,3.0
Nb8Rb2Cl22,1.319738999999999,,,5,1.0
Ga4Mn2S8,0.066026,,,5,0.0
Re6Se8Cl4Tl2,2.158459,,,5,2.0
Sr1C2,2.925551,,,5,3.0
K16Ge16,1.32331,,,5,1.0
Ag1Ta2F12,3.190341,,,5,3.0
Hg3S3,2.485278,,,5,3.0
Ba2Fe6P6O24,1.126695,,,5,1.0
Ba4I4O2,4.07501,,,5,5.0
Pb2Mo4Se4O22,3.054571,,,5,3.0
Cs3Mn3Cl9,4.899417,,,5,6.0
Os1Cl4,2.100267,,,5,2.0
Bi4Ga4O12,2.933422,,,5,3.0
Pt2K4C8N8O4H4,2.28985,,,5,2.0
K2La2Ti3O10,3.231192,,,5,4.0
Zn2Cr4O8,4.012216,,,5,4.0
Y4As4Se4,0.134703,,,5,0.0
Si3O6,7.553812,,,5,7.0
Sn4O12C8H4,3.301565,,,5,4.0
Sc1F3,8.633286,,,5,7.0
Ir8P8Te8,1.474899999999999,,,5,1.0
Hg2Se2O8,2.466939,,,5,3.0
Ge2,0.153005,,,5,0.0
Zn1I2,2.730087,,,5,3.0
Ba2Bi1Ta1O6,3.69967,,,5,4.0
Sn2Zn2Li4S8,3.268119,,,5,4.0
Ni12Mo8Se4O44,3.406011,,,5,4.0
Cs2Mg1D4,3.924863,,,5,4.0
Li8Fe4Si4O16,3.69041,,,5,4.0
Rb2V2F6,4.143595,,,5,5.0
Br12S16N12,2.793107,,,5,3.0
Bi2Cd2I2Se4,1.945783,,,5,2.0
Rb2Mn1Cl6,1.68622,,,5,2.0
Re12S16Br4,2.375114,,,5,2.0
K12Al2Sb8Na6,1.28874,,,5,1.0
Au2Se16K6P4,2.037549,,,5,2.0
Tl4Cl8,2.74845,,,5,3.0
Os2K4Cl6N6O10,3.475205,,,5,4.0
Sr6P2B2O6,2.945028,,,5,3.0
In1Se8Cr4Cu1,0.558187,,,5,0.0
Bi8S12,1.95083,,,5,2.0
Zn6S6,3.493048,,,5,4.0
K8Sn4O12,3.592147,,,5,4.0
Si12O24,7.351474,,,5,7.0
Ir2Te12Cl6,1.634728,,,5,2.0
Pb1Zr1O3,3.67666,,,5,4.0
Sb8Cl40,2.895172,,,5,3.0
Ag1I1,1.81418,,,5,2.0
Hg2Cu4Si2Se8,0.927045999999999,,,5,1.0
Fe24O32,1.156775,,,5,1.0
Li4Sr1P2,1.660941,,,5,2.0
Ba2Zn2S2O2,3.306205,,,5,4.0
Bi4S4O2,1.376836,,,5,1.0
Re4Xe3F14O10,2.987893,,,5,3.0
Te2N4Li16,3.379276,,,5,4.0
B8C8Be4,1.114345,,,5,1.0
Os4I4C12O12,3.241331,,,5,4.0
Sr6Br4Fe4O10,3.48457,,,5,4.0
K6Na2Mn2Cl12,5.20935,,,5,6.0
Li2Nb2W2O12,3.623597,,,5,4.0
P42,2.463714,,,5,3.0
P2Rb2O8N8H12C4,6.874682,,,5,7.0
B1N1,5.760974,,,5,7.0
Ge2Se4,2.262624,,,5,2.0
K2Pt1Br6,2.111782,,,5,2.0
Na2Mn2F8,3.54748,,,5,4.0
In2Mo4Cu2O16,1.042087,,,5,1.0
Cl2S10N10,2.235011,,,5,2.0
Ba2Mn2Sb2F2,1.62641,,,5,2.0
Mn2P2O8C8H4,4.168136,,,5,5.0
Bi8O12,3.079337,,,5,3.0
Fe2P4,1.844685,,,5,2.0
K2I6Zr1O18,4.533508,,,5,5.0
Na1N3,5.044904,,,5,6.0
Pd1I8Ga2,2.303506,,,5,2.0
Fe2Cl2O6N6,1.793397,,,5,2.0
Sn4Te12Cs12,1.743056,,,5,2.0
Sb2Cl6S16,3.866079,,,5,4.0
C4,4.442174,,,5,5.0
Tl8In8S16,1.959128,,,5,2.0
Sr12Ge4O4,0.81808,,,5,1.0
Hg12Te16Rb8,1.7884600000000002,,,5,2.0
Rb6In2S6,3.246685,,,5,4.0
Cd8F12O2,3.562276,,,5,4.0
Se2Ga3Na1O14H6,4.768834,,,5,5.0
Na6P2S8,3.291168,,,5,4.0
Ba2F2Se2Ag2,2.234553,,,5,2.0
Sr6Fe4O10,2.316447,,,5,2.0
Cs1Au3S2,3.050077,,,5,3.0
B12O20Ag4,3.945052,,,5,4.0
Au2Co2Na8O10,3.539867,,,5,4.0
Ta1Bi4Cl1O8,2.191785,,,5,2.0
Si14C14,2.728215,,,5,3.0
La2Mn2Sb2O2,1.240174,,,5,1.0
Ce2Sr4O8,3.983069,,,5,4.0
Ag2Cu2S2,1.251828,,,5,1.0
Ru4Br20K8N4O4,3.103946,,,5,3.0
Se6Zr2,1.038285,,,5,1.0
K4Ag2Nb2S8,3.03595,,,5,3.0
Ti8O16,3.947669,,,5,4.0
Ni2N8C4H4,3.646985,,,5,4.0
Co8Ge12Te12,1.028759,,,5,1.0
Ca1Cu3Mn4O12,0.678954,,,5,0.0
K1S2Cr3O14H6,3.868327,,,5,4.0
K2Cu2Se2,1.265888,,,5,1.0
Pd2K4S8N8C8,2.785163,,,5,3.0
Fe3N8C8Br16,2.444739,,,5,3.0
Ca4Sr4Sn4,0.6357729999999999,,,5,0.0
Rb6Nb4As2Se22,1.868271,,,5,2.0
Sr2Sb2Se4F2,0.294039,,,5,0.0
Pb4As4Cu4S12,1.714117,,,5,2.0
V1Cu3S4,1.982861,,,5,2.0
Cs6Ni2Cl10,3.66308,,,5,4.0
Cr14P12O48,1.472538,,,5,1.0
S14N12O16,3.401987,,,5,4.0
Ge4Se8,2.306787,,,5,2.0
Re1O6Na5,3.467592,,,5,4.0
W4Rb8S16,2.72775,,,5,3.0
Na4Te4O14,2.139119,,,5,2.0
Cs4Sb4S24,1.299022,,,5,1.0
Ba1Se1,2.026515,,,5,2.0
La4Mn2V2O12,1.627192,,,5,2.0
Cr1Na1S2,2.032200999999999,,,5,2.0
Se2Pd2O8,3.06127,,,5,3.0
K4O12N4,4.956476,,,5,6.0
In4Ba8Al4O20,3.35289,,,5,4.0
Te1Rb2Br6,2.670229,,,5,3.0
V8O20,3.232927,,,5,4.0
Ga4I16Li4,3.467446,,,5,4.0
V1I2,3.510757,,,5,4.0
Ti12O22,0.3112229999999999,,,5,0.0
La12O12N8B4,2.15246,,,5,2.0
Ti4O8,3.915086,,,5,4.0
Al4Sr12Sb12,1.066247999999999,,,5,1.0
Br2Hg6Se8As2,2.017197,,,5,2.0
Na2K2O2,3.479197,,,5,4.0
Sb1S2F6N1,3.256124,,,5,4.0
Br6P2Cr2C10O10,3.227426,,,5,4.0
Te2Cd6O12,1.99341,,,5,2.0
K4Ag8Se6,0.6850710000000001,,,5,0.0
Sn1Cs2I6,0.936289,,,5,1.0
Na4Zr2Se6,2.198258,,,5,2.0
Se4Co3Cl2O10,4.074532,,,5,5.0
W4Rb4O14,3.590623,,,5,4.0
K4Ag4O4,2.805628,,,5,3.0
Sb12Cd8Sr8K4,0.684164,,,5,0.0
Si8Se16,3.229466,,,5,4.0
Cu2Zn1Ge1Te4,0.298608,,,5,0.0
Ba4Se8,1.406809,,,5,1.0
Sb8O16,1.142262,,,5,1.0
Au2Cl14Te2,2.554817,,,5,3.0
Mo2N8Li12,3.937998,,,5,4.0
K8Sb8,1.147005,,,5,1.0
Lu1Ni1Sb1,0.35731,,,5,0.0
Fe4Nb4O16,3.608131,,,5,4.0
Pd1Ca1F6,4.281731,,,5,5.0
W4Co2O16Li4,3.808654,,,5,4.0
Mg2Te2,3.141129,,,5,3.0
Ru2P4,1.046072,,,5,1.0
Zn2Si2P4,1.923514,,,5,2.0
Ba10Al6F38,9.118025,,,5,7.0
K2Sr2Nb4F2O12,3.183349,,,5,3.0
Os4Se4Bi4,1.131399,,,5,1.0
Tl2In2P4Se12,2.169105,,,5,2.0
K4N4O12,4.910965,,,5,6.0
Cd1S1,2.102119,,,5,2.0
Na2Ti3Cl8,1.583856,,,5,2.0
Pb4Br10Ag2,3.050442,,,5,3.0
Ag1Br1,2.013035,,,5,2.0
Ag6Cs2Se4,1.024015,,,5,1.0
Sr8Si4,0.745475,,,5,0.0
Pt2Cl4O4N4H16,3.307957,,,5,4.0
Y1Na1S2,3.254137,,,5,4.0
Al4O6,7.731107,,,5,7.0
Nb4I16,1.115362,,,5,1.0
Al2N2,4.691554,,,5,5.0
Fe1Ge1Cu2Se4,0.560453,,,5,0.0
Mn2Se4O12,2.468768,,,5,3.0
Cu4Ge4O12,4.047294,,,5,5.0
O12,3.185315,,,5,3.0
Te4Ag4V4O20,3.214169,,,5,4.0
K4Sn4S10,2.237308,,,5,2.0
Hg2Te4F20O4,4.119496,,,5,5.0
Pb4N8C4,2.487629,,,5,3.0
Ba6Ni5O15,2.365772,,,5,2.0
Cs2Bi4Cu2S8,1.050985,,,5,1.0
Re1Te2Cl12,2.440919999999999,,,5,3.0
Sr1B6,0.4733679999999999,,,5,0.0
N4O8,4.298106,,,5,5.0
K2Ti2P2S10,2.117337,,,5,2.0
Fe4Cr8O16,2.042906,,,5,2.0
Bi2Fe2O6,3.563223,,,5,4.0
K4Ge12As12,1.038286,,,5,1.0
I2N2O2F14H2,4.289862,,,5,5.0
C24F40,6.162108,,,5,7.0
La2Na2Te2Mg2O12,4.096785,,,5,5.0
In4Na12K8O16,3.339563,,,5,4.0
As6O18Na6,4.650301,,,5,5.0
Co8S12Ge12,1.151615,,,5,1.0
La6Sn2Ag2Se14,2.04707,,,5,2.0
Te4Ba2O12,2.870829,,,5,3.0
Ag12V4O16,2.109137,,,5,2.0
Fe2Te4,1.140036,,,5,1.0
Cs6Ti2F14,4.524902,,,5,5.0
C2O4,9.859671,,,5,7.0
As2Cl10,2.661599,,,5,3.0
S16C6,2.489682,,,5,3.0
Bi4Ti3O12,2.634646,,,5,3.0
Ba4Pd2F12,3.933191,,,5,4.0
V4Ge4O20Li8,3.420665,,,5,4.0
Mn2Ti2O6,3.14211,,,5,3.0
Ir4N8,1.140953,,,5,1.0
Ni1O2,2.755727,,,5,3.0
Cr12B4O24,3.087599,,,5,3.0
K4Cd1V5Cl1O15,3.31257,,,5,4.0
Na12Ga4Se12,3.102034,,,5,3.0
Pb12Cd2Te2O20,2.930723,,,5,3.0
Tl12S16P4,2.745135,,,5,3.0
Cs4Ag2Nb2Se8,2.645324,,,5,3.0
Pb2Mo6P4O28,1.186041,,,5,1.0
Ag4Sn2Se8K4,1.645592,,,5,2.0
K1V1S2O8,3.102703,,,5,3.0
Na4V4Si8O24,2.899053,,,5,3.0
Bi4Te4Cl16Al4,2.865216,,,5,3.0
La4P20,0.6600039999999999,,,5,0.0
K4Cu4O4,2.906657,,,5,3.0
Te4Bi2Br8,1.523487,,,5,1.0
Ba1Co3V2O10H2,3.389587,,,5,4.0
Cd2In4Se8,0.84982,,,5,1.0
Co1Cl2,4.167026,,,5,5.0
Si2Al2O9H4,6.847053000000001,,,5,7.0
Cu2N6H12F2,2.023077,,,5,2.0
Sb2S4Na2,0.682107,,,5,0.0
Ba4Si4N8,4.000655999999999,,,5,4.0
As6Na18,0.6558069999999999,,,5,0.0
Co4As12,0.5157189999999999,,,5,0.0
In2Sb4Se8Br2,1.517262,,,5,1.0
Ba3Nb6Si4O26,3.64162,,,5,4.0
K6Bi2O8,2.5730299999999993,,,5,3.0
Rb8Ge8S20,3.387251,,,5,4.0
Tc12Br25Na1,1.627744,,,5,2.0
Sr12Sn8As16,1.204087,,,5,1.0
La4Li1Ni1O8,3.224825,,,5,4.0
Rb4Ti2Si6O18,4.57614,,,5,5.0
Ba1O2,3.821415,,,5,4.0
Cl8S8N8C8,3.905113,,,5,4.0
Sn4Rb4Se10,1.540408,,,5,1.0
W1O3,1.420132,,,5,1.0
Cu8O6,2.142684,,,5,2.0
Ba4Ru24O48,0.024505,,,5,0.0
Sb2Se2Te1,0.907544,,,5,1.0
Tl1Bi1S2,0.405207,,,5,0.0
Ni1N6O4H12,1.611116,,,5,2.0
Cu4Si16O40Na8,4.404767,,,5,5.0
As8O20,3.143587,,,5,3.0
D24Li12Rh4,3.419089,,,5,4.0
Nb4La2Rb2O14,3.220369,,,5,4.0
Li1Co1O2,2.589467,,,5,3.0
S9P3N15F6,3.476539,,,5,4.0
La2K2Si2Se8,2.968557,,,5,3.0
In16O24,2.2649,,,5,2.0
Rb4S2,2.803009,,,5,3.0
Sr2N1Cl1,2.929077,,,5,3.0
Ba2Pb1O4,2.131659,,,5,2.0
Pt3Na6F18,4.765459,,,5,5.0
As4Mo4Li4O24,3.557202,,,5,4.0
Re2Fe1O12H8,1.598253999999999,,,5,2.0
Nb6Mg3O11,1.253918,,,5,1.0
Pb9As4S15,2.15923,,,5,2.0
Ti4P6Mn1O24,3.758705,,,5,4.0
In10Br2S10,1.651256999999999,,,5,2.0
Rh8S12,1.100445,,,5,1.0
K2Cd8V6O24,3.732149,,,5,4.0
Ba3Se12Ge3Cu6,1.456631,,,5,1.0
Cs2Ni3Se4,1.923131,,,5,2.0
Ag2La2Ti3O10,3.104871,,,5,3.0
Cd2Sn2P4,0.9005719999999999,,,5,1.0
Tl2Au2P2Se6,1.685198,,,5,2.0
V1K3O8C1,3.709627,,,5,4.0
Ag2Se12Sc2P4,2.492782,,,5,3.0
Cu4Si2Mg2S8,2.986546999999999,,,5,3.0
Rb1Tl1S2O8,2.990637,,,5,3.0
Ge4Se4,1.257953,,,5,1.0
Cs2Nb8Cl22,1.323772,,,5,1.0
I6Cu2Na2O18,3.388601,,,5,4.0
Na4Ca2V8O24,4.039417,,,5,5.0
P6N10,4.967159,,,5,6.0
Nb2I10,1.531528,,,5,1.0
Cu4As4S4,0.5779740000000001,,,5,0.0
Cr12P12O48,3.979219,,,5,4.0
Y16Co2In6,0.217074,,,5,0.0
Na1Fe3S2O14H6,3.23356,,,5,4.0
F4O8C4H12,7.42236,,,5,7.0
Co4K12O8,2.464197,,,5,3.0
Y2Ba2Ga2Zn6O14,3.918829,,,5,4.0
Ba4Bi4O12,0.4049649999999999,,,5,0.0
Cr8O28Na8,3.727543,,,5,4.0
Li4Ga4Se8,3.041588,,,5,3.0
Cs12Cu8Br20,3.635434999999999,,,5,4.0
Ni16Nb8O36,3.574819,,,5,4.0
Sn2Na2N2,1.690123,,,5,2.0
La4Ti3O12,4.196705,,,5,5.0
Mn2Li2V2F12,3.001478,,,5,3.0
As8O12,5.293749,,,5,6.0
K4Cs2Pd2F10,4.503659,,,5,5.0
Pb2Cl2O2H2,3.747122,,,5,4.0
Hg1Zn1C4N4S4,3.649077,,,5,4.0
Ta2Sr1O7Li2,3.424395,,,5,4.0
Os4F12O8,2.188404,,,5,2.0
Rb4Mn2P4S12,3.336555,,,5,4.0
W1Fe1Sr2O6,2.430601999999999,,,5,3.0
Li2Pd2Al2F12,3.994774,,,5,4.0
Na4C8O8,4.034648,,,5,5.0
Tl8Al8S16,2.601421,,,5,3.0
Sr1Zr4As6O24,6.056233000000001,,,5,7.0
C3N4,2.961039,,,5,3.0
Ru4Na12O16,2.516003,,,5,3.0
In10Cl18,3.765916,,,5,4.0
Cu2Si2F12O8H16,4.986295,,,5,6.0
Li4Mn2Br8,4.767447,,,5,5.0
Ba1Sn1O3,1.884762,,,5,2.0
Tl4As2Cu2O8,2.617543,,,5,3.0
Al2N2,4.707983,,,5,5.0
Na3Ba3P3,1.522375,,,5,1.0
Ge4Cu4O12,4.05406,,,5,5.0
Pd4S16P4K4,2.679237,,,5,3.0
Cu4Cr4P8S24,2.03388,,,5,2.0
Hg11As4Br16Ga4,1.433942,,,5,1.0
K4B4H16,2.136845,,,5,2.0
La6Co2Fe2S14,1.94835,,,5,2.0
P4F16H4,9.583405,,,5,7.0
As4O12Li4,4.770447,,,5,5.0
Al8Mo3,0.140491,,,5,0.0
Tl4Mn4I12,3.08381,,,5,3.0
Sn2K8O8,3.757261,,,5,4.0
Na4Sn8Cl20,3.865097,,,5,4.0
Mg2Cu4Ge2S8,1.953033,,,5,2.0
Ba2Se12B4,2.528031,,,5,3.0
Rh4Bi4S4,0.776181,,,5,1.0
Fe2O4H2,3.188851,,,5,3.0
Co4Rb4K8O10,2.884149,,,5,3.0
Ba20Sb16,0.736406,,,5,0.0
Tl4Ni2C8N8,3.502572,,,5,4.0
As8Cu12S18,1.160251999999999,,,5,1.0
V2O4,1.513875,,,5,1.0
Pt2F8,3.138205,,,5,3.0
Ba6Mg2Ru4O18,1.663307,,,5,2.0
Ti2F4,3.963946,,,5,4.0
Cs4K4C8,4.771103,,,5,5.0
Na14Cd2O9,2.837956,,,5,3.0
Ca4Sn2O8,4.25704,,,5,5.0
Ag4Te8O22,1.870719,,,5,2.0
Ta4Na4O12,3.977051,,,5,4.0
Ba2Ce2C4O12F2,4.54935,,,5,5.0
Pb1Ti1O3,2.816176,,,5,3.0
Sc7Cl12,0.858945,,,5,1.0
Na2K2Mo2O4F8,2.931723,,,5,3.0
La1F3,7.281386,,,5,7.0
Ag2Al2Te4,1.838293,,,5,2.0
Hg2Pd4P4O16,2.478604,,,5,3.0
Fe2S4,0.9418859999999992,,,5,1.0
Al2Na2Cs4F12,8.961626,,,5,7.0
Al12Te12I4,2.693465,,,5,3.0
Co4As8,0.403039,,,5,0.0
Ag4S4N4C4,3.82678,,,5,4.0
Te2Co4Cl4O6,3.969189,,,5,4.0
Ba1Ti1O3,3.007174,,,5,3.0
Ba1Ce1O3,4.008526,,,5,4.0
Ba4Mn12P12O48,0.994289,,,5,1.0
K2In2Te4,1.685757,,,5,2.0
Ag4Li2P6O20H4,4.306001,,,5,5.0
Pd2Cu2Se10Rb2,1.823453,,,5,2.0
O1Zn1,2.481709,,,5,3.0
Pb4Mn4B4O16,1.654766,,,5,2.0
Fe6F18,5.302704,,,5,6.0
Zr4N4Se2,1.159275,,,5,1.0
I4Sb4Cl8F24,3.203017,,,5,3.0
H4N4S28,3.841687,,,5,4.0
Ge6O16B2N2H8,4.707327999999999,,,5,5.0
Sr8Zn4W4O24,4.331737,,,5,5.0
Cs1Cd1Br3,1.854566,,,5,2.0
Sr2V2Si4O14,3.935336,,,5,4.0
Te4Cl8Mn16Si4O28,3.750072,,,5,4.0
Zn1V2O6,3.58294,,,5,4.0
Sb2S4Na2,1.071172,,,5,1.0
Cs6Mn2Cl10,5.476952000000001,,,5,6.0
Ba4V6O18H2,3.043289,,,5,3.0
Ir2Te12I6,1.329589,,,5,1.0
C2N4,6.278319,,,5,7.0
Cs12S12B4,3.529534999999999,,,5,4.0
Cu3Sb1S4,0.31537,,,5,0.0
Ca1Cu3Pt4O12,1.867873,,,5,2.0
Hg4Mo2O8,2.216197,,,5,2.0
In4Te4Br4,2.441099,,,5,3.0
Bi4S4Cl16Al4,3.758032,,,5,4.0
Ag8Bi4O12,1.129547,,,5,1.0
Re4F24N4,3.760384,,,5,4.0
Cs4Ag2Nb2S8,3.142943,,,5,3.0
Si4O6,3.420308,,,5,4.0
Mn2K2P6O20H2,2.656236,,,5,3.0
C1N2Li2,4.99725,,,5,6.0
Rb4K4S4,3.111366,,,5,3.0
Ag12Si4O14,1.332624,,,5,1.0
Cd2V4P8O28,2.53002,,,5,3.0
Sr4Mn2O8,1.841862,,,5,2.0
Fe2P2O10H4,3.477694,,,5,4.0
Li1Au1C2,2.24461,,,5,2.0
Nb2Se4Cl4,1.869682,,,5,2.0
Pd1K2O2,3.236109,,,5,4.0
Cs16Ga8Sb16,1.6059929999999991,,,5,2.0
Ca4Sc8S16,2.25428,,,5,2.0
Pt8Cu4S16,0.891834,,,5,1.0
Ag6S2O12N6C2,3.528516,,,5,4.0
Ba2Se6,1.846117,,,5,2.0
Fe4As4Te4,1.556879,,,5,1.0
Sn2Tl8Te6,0.2190039999999999,,,5,0.0
Au7P10I1,1.004751999999999,,,5,1.0
K8Cu4Sb4S12,1.930642,,,5,2.0
Sr1Si1O3,4.275697,,,5,5.0
Ni2S2,2.075513,,,5,2.0
Rb2Cr6O16,2.707985,,,5,3.0
Rb4V6O16,3.064957,,,5,3.0
Mn2F8O4N4H16,6.03437,,,5,7.0
Ir2Sn2Cl16K6,2.969648,,,5,3.0
Li1Bi1F6,4.495645,,,5,5.0
Cs2Zn8B6O18,4.965565,,,5,6.0
Cd1As2O6,3.956795,,,5,4.0
Tl2Hg12Se8Br10,2.572854,,,5,3.0
Ba2Ag2P2,0.710516,,,5,0.0
Ca10Sn4As12,0.796075999999999,,,5,1.0
Ag4Mg4V4O16,3.551923,,,5,4.0
Ba3Ti6O15,3.156708,,,5,3.0
Mg2In4S8,2.711211,,,5,3.0
Pb8Sb8S20,1.487595,,,5,1.0
Sb4Cl12F8,2.973497,,,5,3.0
S4C4Cl8,4.315183,,,5,5.0
Mg1S2O12H12,1.001465,,,5,1.0
Hg1Al2S4,3.130477,,,5,3.0
In14Te20,1.532801,,,5,1.0
Ba4Co2Ge4O14,3.281079,,,5,4.0
Cu6Mo4O18,3.058345,,,5,3.0
Ti10O18,0.4498049999999999,,,5,0.0
Sc1Au1Sn1,0.293578,,,5,0.0
Sb4S12Cr4,1.554822,,,5,1.0
La6Cu2Sn2S14,2.748266,,,5,3.0
Cs1Ca1D3,4.219765,,,5,5.0
Cd1Cr1F6,2.792591,,,5,3.0
Ba2La4Ti6O20,3.253416,,,5,4.0
Si18N24,4.442479,,,5,5.0
F4,5.42837,,,5,6.0
Mo12I24,2.584426,,,5,3.0
Co1I2,2.298287,,,5,2.0
O8Fe2K3Na1,3.16958,,,5,3.0
C6N8,4.885329,,,5,6.0
Se4Nb4F36,6.556507,,,5,7.0
Sn2Cd2S8Li4,2.964039,,,5,3.0
Ru2P8,1.495495,,,5,1.0
Tl4Te4V4O20,3.298248,,,5,4.0
Ni1O2,2.798005,,,5,3.0
Te12Cl4O22,4.035956,,,5,5.0
Rb4Te2W6O24,3.801153,,,5,4.0
Fe2F4,3.628333,,,5,4.0
Sb1Cu3Se4,0.1133209999999999,,,5,0.0
Ba2Hf2N4,2.169353,,,5,2.0
Mn4Si4N8,3.647907,,,5,4.0
K3I3O9,3.643067,,,5,4.0
Fe4P6O24B2,4.016504,,,5,4.0
V4O8,1.751987,,,5,2.0
Co1Br2O6H12,4.555485,,,5,5.0
Ba1,0.0569169999999999,,,5,0.0
Cs1La1S2,3.365069,,,5,4.0
Nb8Te24I4,1.03465,,,5,1.0
Li2Be2As2,1.599482,,,5,2.0
Cs1Sn1Cl3,1.42523,,,5,1.0
Ca4C8,2.753606,,,5,3.0
Cu4O2,1.96662,,,5,2.0
Ag10Cu2As6O22,1.923583,,,5,2.0
Hg8Si2Se12,0.693068,,,5,0.0
Ti2Na4Si8O22,4.045786,,,5,5.0
Cu4Si2S6,0.720407999999999,,,5,0.0
Te8I8,1.409897,,,5,1.0
I16Hg8,1.811961,,,5,2.0
Te7O6F30,4.033572,,,5,5.0
Ba2Mg1Te1O6,3.318005,,,5,4.0
Se8N8,2.581105,,,5,3.0
Mn4V4Cl2O14Cs2,2.498619,,,5,3.0
Nb4Ca4O14,2.586698,,,5,3.0
Ba4Re12S22,2.033251,,,5,2.0
Ta2Cl24P4N2,4.116833,,,5,5.0
O1Na2,3.391681,,,5,4.0
Cs2N6,5.318157,,,5,6.0
Na4Fe2S2F6O8,3.749291,,,5,4.0
Pd6Cl12,2.851935,,,5,3.0
Ti10O18,0.4339559999999999,,,5,0.0
Cu2N8O8H12,3.153209,,,5,3.0
Ni2O2,4.454755,,,5,5.0
Hg1Na2O2,3.161647,,,5,3.0
Sr6Na2Sb2O12,4.578878,,,5,5.0
Y2V2O8,4.097016,,,5,5.0
Al8Se12,2.77101,,,5,3.0
Ca8C16,3.320227,,,5,4.0
Lu4Mn4O12,1.574259,,,5,1.0
Hg4Br16Cs8,3.496664,,,5,4.0
Pb1Te1,0.421069999999999,,,5,0.0
As1Na3,0.724681,,,5,0.0
La6Cu2Si2S14,2.772093,,,5,3.0
Ag2Sr2P2,0.8444249999999991,,,5,1.0
Pb1Rb2Cl6,2.240401,,,5,2.0
Fe1Cr2S4,1.452728,,,5,1.0
La2Au6F24,4.237798,,,5,5.0
Ag2Mn2F8O8H16,1.751207,,,5,2.0
As16Cu4Cl4S12,2.705893,,,5,3.0
Sn2Cu6Fe1S8,0.317631,,,5,0.0
Pb4Rb8O12,2.633998,,,5,3.0
Sr2Cu1Br1O2,4.093261,,,5,5.0
Ta2I4O2,1.703729,,,5,2.0
Ag6Nb4K6S16,2.837173,,,5,3.0
Bi8Cu4O16,2.841183,,,5,3.0
Se12Fe2P4K4,2.563486,,,5,3.0
O6N10C2I2H16,3.338079,,,5,4.0
Pt1Re2O12C12,2.567781,,,5,3.0
Cu2Zn1Sn1S4,1.08122,,,5,1.0
Au4Se8O22,2.859101,,,5,3.0
Cu16Sn4S16,0.681497,,,5,0.0
Cd2Si2As4,1.136841,,,5,1.0
Mo4Cl12N4,2.569749,,,5,3.0
Si12S24,3.760981,,,5,4.0
Mo4K4P4O24,3.993054,,,5,4.0
Bi4Sr2Ta4O18,3.572249,,,5,4.0
Y1Tl1S2,2.116999,,,5,2.0
Ca2Mn2Si4O17H6,1.077963,,,5,1.0
Ba1Al1Ge1D1,1.132928,,,5,1.0
Li2Cr2Ge4O12,4.124077,,,5,5.0
Te2Cl8S8N8,2.679206,,,5,3.0
Ru16Ge24,0.7987339999999999,,,5,1.0
Ba2Mg2C4O12,6.29476,,,5,7.0
La8Hf4Se20,1.448452,,,5,1.0
Ba1Cl2,6.723062,,,5,7.0
Pb4V4P4O24,3.316642,,,5,4.0
W4O14Li10,1.1475,,,5,1.0
Na4Cu4Ti4S12,0.775273,,,5,1.0
K2Sn2O3,1.763538,,,5,2.0
Mg2Rh4O8,3.042557,,,5,3.0
I6Cd3,3.351006,,,5,4.0
Sn2Se2,0.565825,,,5,0.0
K4I4O12,4.029463,,,5,5.0
Mo4Se4Na4O22,3.577102,,,5,4.0
Ba4Tl2O14H14,3.702915,,,5,4.0
Hf2P4S12,3.249804,,,5,4.0
Tl20Cl4Se8,0.822573,,,5,1.0
Fe4O8H4,3.251323,,,5,4.0
Rh8Se12Ge12,0.8843139999999999,,,5,1.0
Ge2S4,2.129862,,,5,2.0
Y1K1S2,3.344225,,,5,4.0
Cd1Al2Se4,2.953237,,,5,3.0
Rb2Pt3S4,2.426874,,,5,3.0
Mg1Cl2,6.976449,,,5,7.0
Pt1K2S2,2.349555,,,5,2.0
Sr10Sn4P12,0.978995,,,5,1.0
Cr2Cl4O4,3.132229,,,5,3.0
Cu2O14P4Li4,3.922121,,,5,4.0
V4S4,2.59856,,,5,3.0
Na1Zn4As3,0.699534,,,5,0.0
Li1Al1Si1,0.519257999999999,,,5,0.0
K4Ag2Sb2,1.732412999999999,,,5,2.0
K6Tl6F24,4.082862,,,5,5.0
Cs14Nb2In6As10,1.504282,,,5,1.0
S3F18,8.547205,,,5,7.0
Rh2Br6,2.589921,,,5,3.0
P2S6Na4,3.76389,,,5,4.0
K12Co2S8,2.788071,,,5,3.0
K4Ni2P4,1.806203,,,5,2.0
Pb4Ti2Se4Cl2O14F2,3.262495999999999,,,5,4.0
Cr4O6,4.172056,,,5,5.0
Sn1Tl2As2S6,1.673509,,,5,2.0
Sn4W4O16,1.409277,,,5,1.0
Ba1Mg1C2O6,6.060695,,,5,7.0
Cd1K4P2,1.402886,,,5,1.0
Rb2Fe2F8,4.613815,,,5,5.0
Si2N6Sr3Li4,3.206716,,,5,4.0
Na1V1Se2,0.8717639999999991,,,5,1.0
Cs4Pd2Sb4,1.359486,,,5,1.0
Fe2I4,2.881398,,,5,3.0
Ga4As8Na8Li4,1.38856,,,5,1.0
Rb4Co6S8,1.885104,,,5,2.0
Ca4Sb4O14,3.293801,,,5,4.0
Ca4Sb2O1,1.58956,,,5,2.0
Rb12Br8O2,2.66493,,,5,3.0
K4Cu4Ga4F24,4.757011,,,5,5.0
Cd2Au4F16,3.718301,,,5,4.0
Te1K2Br6,2.628055,,,5,3.0
Ni2Cr4S8,1.8657629999999992,,,5,2.0
B12O2,2.796231,,,5,3.0
Fe3O2H4F8,1.212788,,,5,1.0
Ge1Mg2,0.541955999999999,,,5,0.0
Cu2I2,2.3632519999999992,,,5,2.0
C2N12H18Cl2,6.535755,,,5,7.0
Sr2Mn4P4,1.632318,,,5,2.0
Ca4Mn2Ta2O12,1.483081,,,5,1.0
I1Ba2H3,2.978640999999999,,,5,3.0
Ba8Sn4F8S12,3.3258,,,5,4.0
Ag2P30,1.774323,,,5,2.0
Sr6As6,0.591522,,,5,0.0
Sn2Sr4S8,3.501886,,,5,4.0
Cs4Si4Te12,1.7693329999999992,,,5,2.0
Ca1Pd3Ti4O12,1.899661,,,5,2.0
Na2Tl6Te4Cu8O24,3.014958,,,5,3.0
Ca4Mn4Si4O20H4,3.160792,,,5,3.0
Pd1N4H6O4,4.002078,,,5,4.0
Pb2Li8O8,2.722158,,,5,3.0
Cu2Zn1Ge1Te4,0.4240609999999999,,,5,0.0
Ag14Ta2S12,1.687763,,,5,2.0
Ag4Sb4F24,3.538918,,,5,4.0
Br1K1As4O6,4.018767,,,5,4.0
O8Cr2K3Na1,4.192764,,,5,5.0
Si5C5,2.883087,,,5,3.0
Rb4Cu8I12,3.388860999999999,,,5,4.0
Mo12I32,2.324943,,,5,2.0
Pb4Cs6C6I2O18,4.241911,,,5,5.0
Cr8K8O28,3.982371,,,5,4.0
Cs1Pb1Br3,2.182216,,,5,2.0
Lu4S6,3.533126,,,5,4.0
Tl1Sc1Se2,1.166394,,,5,1.0
Cs1Cd1Cl3,3.052211,,,5,3.0
Nb1K3O8,4.335562,,,5,5.0
La12Te16Br4,0.479684,,,5,0.0
Rb2K1Rh1F6,4.511219,,,5,5.0
Te12Cs20,1.095039,,,5,1.0
Li2N6,5.006667,,,5,6.0
Mn1I2,3.315538,,,5,4.0
Ag12S8Na4,1.897288,,,5,2.0
Cl16,4.102159,,,5,5.0
In1Na1Se2,1.785538,,,5,2.0
Y4F4S4,3.646403,,,5,4.0
Au8Se8Br8,0.949673,,,5,1.0
N1B1C2,2.73063,,,5,3.0
La4Li1Au1O8,3.223791,,,5,4.0
Hg6Te4Se2O20,3.41312,,,5,4.0
Pt2Cl4K4C8N8,3.983328,,,5,4.0
Cs4Tc4Cl4N4O16,4.014471,,,5,4.0
Cs2Pd1F6,4.367258,,,5,5.0
Cu2In2Se4,0.590245,,,5,0.0
Cd2Na4Se4O20H8,4.764146,,,5,5.0
Sr12Cu6N10,1.477418,,,5,1.0