formula,bg,formation_energy,mp-id,fidelity,bg_category
Pd1Rb2Se2,1.654981,,,5,2.0
K4Mn4F16O4H8,3.348853,,,5,4.0
Mo12Cl26Li2,3.569277,,,5,4.0
Pb8Na16O16,3.328926,,,5,4.0
Ba4Y8S16,2.699425,,,5,3.0
Cu6V4O16,2.965922,,,5,3.0
Cs1Hg1F3,2.406669,,,5,3.0
Ge8As8Se8,2.235262,,,5,2.0
Os4N4Cl20K8,3.121607,,,5,3.0
Au4K4Cl16,2.837226,,,5,3.0
In4Ge8Sr8Li4,0.03817,,,5,0.0
Mg8Ge4S16,3.333618,,,5,4.0
Ba3Cl6,5.821614,,,5,7.0
Sr4Sb4O14,2.878556,,,5,3.0
Rb2Cu4Br6,3.202719,,,5,3.0
Cs8Te4,2.500349,,,5,3.0
Mn2Na12S8,2.878158,,,5,3.0
Ge2Cu16S12,1.604709,,,5,2.0
Nb6Mn3O11,1.260406,,,5,1.0
Ga2Mn1Se4,1.503428,,,5,1.0
P1Nb9O25,3.446564,,,5,4.0
Li2Zr1Te1O6,4.382302,,,5,5.0
Ba1O1,3.353773,,,5,4.0
Fe1Zr1F6,3.659929,,,5,4.0
La6Cu2Ge2S14,2.862289,,,5,3.0
Ag4As4Se4,0.077651,,,5,0.0
Co1Sn1F6,3.734789,,,5,4.0
Mn4Al4F20,6.107873,,,5,7.0
La5Re3Mg1O16,1.220274,,,5,1.0
Cr1K1O2,4.087182,,,5,5.0
Mg2Se2O8,4.817306,,,5,5.0
Hg2I4Ag4S2,2.213423,,,5,2.0
P56Na8,2.442756,,,5,3.0
Li2Se1,3.848211,,,5,4.0
Ga2Cl6,5.464939,,,5,6.0
Y4Cr4B16,0.606368999999999,,,5,0.0
Li1Zn1P1S4,3.843471,,,5,4.0
Pb4I12N4H16,3.449756,,,5,4.0
Cd2O14C4H12,5.432304,,,5,6.0
Zn1Ga2Se4,2.339165,,,5,2.0
Ni2O8Ba6,3.444255,,,5,4.0
Ga12Te12,1.875982,,,5,2.0
Ag2Ta2O6,3.163197,,,5,3.0
Hg4N24,3.181803,,,5,3.0
Ge4P12Na20,1.68005,,,5,2.0
Pb8O12,1.80607,,,5,2.0
Rb4Ge12As12,1.098764999999999,,,5,1.0
Cr8P4O16I4,2.739567,,,5,3.0
Na2Cu6F14,4.586878,,,5,5.0
Sr2Bi2O4I2,3.849446,,,5,4.0
Li2Nb2S4,1.178375,,,5,1.0
Mn2Mg6D14,3.509482,,,5,4.0
Mn2Sn2B4O12,3.961015,,,5,4.0
K4Sn2Cl12,3.90098,,,5,4.0
Y1Se1H1,2.278548,,,5,2.0
Li4Cr4Ge8O24,4.089615,,,5,5.0
Fe4Na12O12,3.737425,,,5,4.0
Si3O6,7.630173,,,5,7.0
Na4Cu4Hf4Se12,1.061766,,,5,1.0
Y8Mn16O40,2.662854,,,5,3.0
Y1Cu3Cr4O12,1.533022,,,5,1.0
Na4Zn4O6,2.7525239999999997,,,5,3.0
Pb8Hf8O24,3.842204,,,5,4.0
Tl8Sr4O16,1.030737,,,5,1.0
Co4P8,0.557685,,,5,0.0
Pb12Cl4O12H4,3.064233,,,5,3.0
La4Ni2O8,2.388861,,,5,2.0
Si12O24,7.503491,,,5,7.0
Li1Mg1As1,1.973654,,,5,2.0
Hg4Cu4S4Br4,1.663937,,,5,2.0
Ag3Fe1C6N6,2.263035,,,5,2.0
Pb12B4O16F4,3.232053,,,5,4.0
Cs1Fe1Mo2O8,3.551906,,,5,4.0
N2B2,0.514794,,,5,0.0
Mn3Cu2O8,2.623861,,,5,3.0
Ga4Os2,1.285421,,,5,1.0
Sb4O8,3.116444,,,5,3.0
Zr6Br18K4C1,1.79176,,,5,2.0
W4Cs8S16,2.949761,,,5,3.0
Pt2Ca7Cu1O12,2.995861,,,5,3.0
Rb2Cr2V4O14,3.095476,,,5,3.0
Pb6B6O15,3.8281989999999992,,,5,4.0
S32,3.557204,,,5,4.0
Cs8Tl2Cl24Sb2,2.128254,,,5,2.0
Rb3Au1O1,0.980242,,,5,1.0
Na16Pb16,0.2288639999999999,,,5,0.0
Fe6O8,0.3811739999999999,,,5,0.0
Pt2Cu2Sr6O12,2.878051,,,5,3.0
Cs4In4I16,3.017226,,,5,3.0
Ag2Ta2S6,0.416126,,,5,0.0
Zn4N24,4.400614,,,5,5.0
Mn2S2,3.552612,,,5,4.0
Sb4Cd4S12Na4,1.73527,,,5,2.0
Ca1Bi2Ta2O9,0.324696,,,5,0.0
Bi2Mn2As2O10,3.471094,,,5,4.0
As8Ca12Li4H4,2.166467,,,5,2.0
Li16O16,3.753813,,,5,4.0
Ru1Ba2D6,3.194025,,,5,3.0
Cs4S12,2.56249,,,5,3.0
Cu6O4F8H4,4.388446,,,5,5.0
Bi2Te2Cl2,1.843069999999999,,,5,2.0
Ni2Ga4S8,1.816856,,,5,2.0
Rb1Sc5Te8,1.105396,,,5,1.0
La8S12,1.747765,,,5,2.0
Sr2Mo4As4O24,3.856186,,,5,4.0
Te4Sr2Cu4Cl4O12,3.083317,,,5,3.0
Ba4Mn4P4F8O16,2.707885,,,5,3.0
Y2V2O8,3.947204,,,5,4.0
O24,3.055153,,,5,3.0
Mn4Ta8O24,4.088919,,,5,5.0
F6Na2Co2,4.812643,,,5,5.0
I6B2,3.603531,,,5,4.0
W1Cu2S4,2.443688,,,5,3.0
Mo2Cl12Na6,3.765039,,,5,4.0
Cu2K4As2,1.746809,,,5,2.0
Na1Cu1Zr2F11,4.860609,,,5,6.0
Ta2Te4Br10O1,1.406765,,,5,1.0
Nb6Te10Sb4,1.2556,,,5,1.0
Ag4Cr4O14,2.263689,,,5,2.0
Ru3P12,2.057598,,,5,2.0
Mo2Zn2O8,3.044245,,,5,3.0
Sr4Ga8As8,0.671409,,,5,0.0
Cu4Sb4S8,1.627616,,,5,2.0
Hg9S3O18,1.984547,,,5,2.0
La4Ni2Mn2O12,2.325633,,,5,2.0
La4Cr4S8O4,1.935621,,,5,2.0
Sr6Si4As8,1.503638999999999,,,5,1.0
Li1Sc1S2,2.504231,,,5,3.0
Bi2Lu1O4I1,2.264059,,,5,2.0
C3N4,4.034636,,,5,5.0
I4Sb6Cd1S8,2.092617,,,5,2.0
La4As4S4,0.072044,,,5,0.0
Fe4Cr8O16,2.415743,,,5,3.0
Rh4Sr2Ga4,0.04187,,,5,0.0
Tl1I1,2.537098,,,5,3.0
Ba4V6P12O44H2,2.5653,,,5,3.0
Cs4Ag4Se12P4,2.313418,,,5,2.0
Be6P4,0.7755219999999999,,,5,1.0
Mn2Li2O8,2.463382,,,5,3.0
Os2Cl4O8C8,3.675017,,,5,4.0
La2Fe2O6,3.663584,,,5,4.0
Cu6P2S8,2.347933,,,5,2.0
Cu8S8N8C8,3.747074,,,5,4.0
Na4In4Ge2Se12,2.172747,,,5,2.0
Ta1Rb3O8,5.184463,,,5,6.0
Li4V4P4O20,2.909588,,,5,3.0
Ba2Bi2O6,0.4875739999999999,,,5,0.0
In2Ga2O6,2.800899,,,5,3.0
O6Mn2Ba2,3.680355,,,5,4.0
La2O3,5.247587,,,5,6.0
W8Cl22P2,1.222042999999999,,,5,1.0
Ta8O24Cr4,1.626825,,,5,2.0
Ca2V4P4O20,2.781792,,,5,3.0
Ba2Zr1S4,1.382358999999999,,,5,1.0
Sr2Zn1N2,1.715306,,,5,2.0
Ba8Sb12Cd8K4,0.7130500000000001,,,5,0.0
Bi4Ge2O10,3.400742,,,5,4.0
Ga24Se48,0.944493,,,5,1.0
Sr2Be4N4,3.026602,,,5,3.0
Re4P12,0.632155,,,5,0.0
Hf6F24,7.451003,,,5,7.0
Ba4Zn8As8,0.769045999999999,,,5,1.0
Pb4Y2Sb2O12,3.881146,,,5,4.0
Fe2Se4,1.777346,,,5,2.0
Pd2S2O8,3.115511,,,5,3.0
In2Zn8Ga2O14,2.610548,,,5,3.0
Cu2Sr2O16C8H8,4.031634,,,5,5.0
Hg4Se2O8,2.265058,,,5,2.0
Ba4As4V4O24,3.898394,,,5,4.0
Al12Mo4,0.090643,,,5,0.0
Hg1Cs2F4,3.79697,,,5,4.0
F24Tc8O16,4.300206,,,5,5.0
Sc1Na1S2,2.729339,,,5,3.0
Se2Cs2Na2,3.004145,,,5,3.0
K2Na1Mn1F6,3.079591,,,5,3.0
Sn1Se4Cd1K2,2.519223,,,5,3.0
I2Tl2,2.813869,,,5,3.0
Pb4I8O24,3.822206,,,5,4.0
Co4S4O16,4.134931,,,5,5.0
Na16Ge16,1.143825,,,5,1.0
Tl8Fe2C12N12,4.078922,,,5,5.0
Cd2In4S8,1.98501,,,5,2.0
Ga8Cl16,4.783141,,,5,5.0
Fe12P4O28,3.670633,,,5,4.0
Y8Cu8O20,3.440181,,,5,4.0
Na14Mn2O9,2.082794,,,5,2.0
Sb2Se12K2P4,2.460954,,,5,3.0
V4I6Rb2O26,2.526041,,,5,3.0
K4Na2Al2As4,1.773953,,,5,2.0
Li4In4S8,3.193232,,,5,3.0
Te8Na4O18,3.702733,,,5,4.0
Cu12P2S10Br2,1.945795,,,5,2.0
V2Li4F12,3.212698,,,5,4.0
W1Cl6,2.636811,,,5,3.0
Ag8Te8O24,2.654460999999999,,,5,3.0
Te1Rb2Br6,2.694983,,,5,3.0
Rb4Mo6Se2O24,3.422222,,,5,4.0
Ga4Ge2S12Li4,3.545917,,,5,4.0
Ni1Pb1F6,2.655236,,,5,3.0
Ag2Se6As2F12,2.687754,,,5,3.0
Fe3N6C6D6Cl8,3.595156,,,5,4.0
W6Te2Cs4O24,3.791900999999999,,,5,4.0
Ba4F8,8.860323,,,5,7.0
Nb4I12Se4,1.517944,,,5,1.0
In4Se4,1.175394,,,5,1.0
Ta2Cs2I12,1.715863999999999,,,5,2.0
C4O4,8.028059,,,5,7.0
Ag4S2,1.677959,,,5,2.0
Fe2P6O18H12,3.842929,,,5,4.0
Sb8Cs8Se16,1.882998,,,5,2.0
Li2Mn2F8,3.357247,,,5,4.0
Tl8Ta4Se22,0.086639,,,5,0.0
Cd2Cl2O2H2,3.969654,,,5,4.0
Fe2Se2Br14,2.62193,,,5,3.0
As16S16F24,3.340424,,,5,4.0
Rb2Ag6S4,1.213491,,,5,1.0
Sr4Zn4As6,0.698395999999999,,,5,0.0
Cu6Pb2As4O20H4,3.432241,,,5,4.0
Rb2Ag2Hf2Te6,0.744525,,,5,0.0
Na4Ti2Ge2O10,4.935883,,,5,6.0
Ge2Br4F20,4.67602,,,5,5.0
Rb2Na1Mn1F6,3.063908,,,5,3.0
Sr10Sn4As12,0.581871,,,5,0.0
Pd2Ag4Cl8,2.4244,,,5,3.0
Ba6P8,1.104792,,,5,1.0
La6W2Fe2S6O12,0.7929100000000001,,,5,1.0
Fe5Cu2P6O24,1.394737,,,5,1.0
Ba4Ag4Sb4S12,2.064838,,,5,2.0
Mn4O8,2.248128,,,5,2.0
Br2Na2O10H12,1.013903,,,5,1.0
Pb2Co1Te1O6,2.896107,,,5,3.0
Ir4As12,0.719151,,,5,0.0
Rh8O12,1.942342,,,5,2.0
O16C24,4.893145,,,5,6.0
Cu4P4O20N4H24,2.99635,,,5,3.0
Hg8Te4O20,1.589543,,,5,2.0
Na2Mo12Br26,3.095751,,,5,3.0
La8Sb4Br4S20,1.914395,,,5,2.0
Au1Ag1Cs2Cl6,1.507505,,,5,1.0
Ca4Al2F14O2H4,8.893557999999999,,,5,7.0
Sr2V6O14,3.683734,,,5,4.0
Os16C24,0.304817,,,5,0.0
N2B2C4,3.301016,,,5,4.0
V2K2Se2O18H12,4.13278,,,5,5.0
Sr2Bi4Ta4O18,3.519957,,,5,4.0
Nb8Te18I8O2,0.926915,,,5,1.0
Ce1Ru4Sn6,0.274382,,,5,0.0
Si4Al2O14Li2H2,5.371637,,,5,6.0
Mn2Br4O4H8,4.8454559999999995,,,5,6.0
Bi1Rb1S2,2.029959,,,5,2.0
Hf2N2S1,3.12878,,,5,3.0
Ca8N4H4,2.376602,,,5,2.0
Bi8O12,1.932232,,,5,2.0
Sr2H4,2.166843,,,5,2.0
Ca8Cu6Zn4P10,0.739466,,,5,0.0
Bi4In4O12,3.835014,,,5,4.0
Cu16As12O48Na4,3.649103,,,5,4.0
In2Se3,0.656955,,,5,0.0
Si6O12,7.606742,,,5,7.0
Cu4S8C4N4H8,2.8178229999999997,,,5,3.0
Hg1Ga2Se4,1.71995,,,5,2.0
Rb4Cu4O4,2.758326,,,5,3.0
Sb64S64O32,1.894982,,,5,2.0
K4Ag4O4,2.809626,,,5,3.0
Ba8Ru4Bi4O24,0.570269,,,5,0.0
Li4In4I16,3.204895,,,5,3.0
Ba8Ga4Bi4Te20,1.605285,,,5,2.0
Br24Si12,3.374948,,,5,4.0
Tl18S9,1.24748,,,5,1.0
Ge6N8,3.195382,,,5,3.0
Na1Cu1O1,0.071924,,,5,0.0
Ge2Pd2S6,2.490855,,,5,3.0
Sb4O8,2.765595,,,5,3.0
W3Cl18,2.536116,,,5,3.0
Ru4Se8,1.138644,,,5,1.0
P2K4Zn1,1.611624,,,5,2.0
Se8Cl24N4Ga4,2.373464,,,5,2.0
La6Cu2Ge2Se14,2.085094,,,5,2.0
K2La2Ti2O8,3.691809999999999,,,5,4.0
Ni2Cs6O4,2.406806,,,5,3.0
Rb1Se2Ga3O14H6,4.776765,,,5,5.0
Hg3I8Cs2O1H2,2.507829,,,5,3.0
Hg1Te4Sn1Rb2,1.316132,,,5,1.0
Cu6I6,2.949733,,,5,3.0
Na2Pt1O6H6,4.347252,,,5,5.0
Bi4Pd2Se8O24,3.798381,,,5,4.0
Rb2I6O18H4,4.57275,,,5,5.0
Ge1Cs1Br3,2.006761,,,5,2.0
Na6Ag2S4,3.272071,,,5,4.0
Co4Se4O16H8,4.542307,,,5,5.0
Ba4Ce1Mn3O12,3.347246,,,5,4.0
Hg4Ag4I4S4,2.291369,,,5,2.0
Zn8Nb4O18,4.073163,,,5,5.0
Sr2Pb2F12,1.125768,,,5,1.0
Sr4O12In2Os2,2.184183,,,5,2.0
Sr4Co4As4O20H4,3.7815939999999992,,,5,4.0
In16S24,1.883385,,,5,2.0
Ba4Ca4Sn4,0.5895170000000001,,,5,0.0
Rb2Y2Te4,2.141978,,,5,2.0
Pt12I32,0.4410469999999999,,,5,0.0
Ce2Si2O8,2.998973,,,5,3.0
Ba6Si8P12,1.050732,,,5,1.0
K2Cu1Fe1C6N6,3.108285,,,5,3.0
K2N2H4,3.401245,,,5,4.0
Sn6I12,2.307698,,,5,2.0
Co2Li4S4O16,4.847618,,,5,6.0
Se2Zr1,0.154857,,,5,0.0
Ag2Cd4Ga2S8,2.092385,,,5,2.0
Ba6Co2Sb4O18,3.033237,,,5,3.0
Rb4Sb12Se20,1.122155,,,5,1.0
Ag4Lu4Se8,2.075283999999999,,,5,2.0
Sr4Sn12Sb16,0.034873,,,5,0.0
Cs4Ni2P4,1.613353999999999,,,5,2.0
B2N2,6.565391,,,5,7.0
Ba6Cu6N6,0.6657879999999999,,,5,0.0
Cs4Pd4Cl12,3.123848,,,5,3.0
Au6Rb10O4,1.798625,,,5,2.0
Ca1Mg2As2,1.907953,,,5,2.0
Li1Sr1H3,2.646692,,,5,3.0
K2Mn1Nb6Cl18,1.501377,,,5,1.0
Rb4Na2N6O18,5.039921,,,5,6.0
Ca4Co4P8O28,4.875602,,,5,6.0
Ag12Au4Te8,0.6295589999999991,,,5,0.0
Fe4As4O16,3.959216999999999,,,5,4.0
Ir2F6,2.986603,,,5,3.0
Cu1Ga1O2,2.158588,,,5,2.0
Sr12In4P12,1.463006,,,5,1.0
Na2Ti4P6O24,3.785821,,,5,4.0
Ba4Cu8Se8,1.5791110000000002,,,5,2.0
S88,3.15351,,,5,3.0
Re2La6O16,2.869448,,,5,3.0
Sb6Te6,0.014681,,,5,0.0
Rb8Ag4I12,3.666182,,,5,4.0
Si2O4,8.052941,,,5,7.0
Sr2Cu4B4O12,3.642684,,,5,4.0
Hg4Cl4S4N4C4,1.662728,,,5,2.0
Mo4S4Br4,1.805005,,,5,2.0
Nb8Br22Rb2,1.123122,,,5,1.0
Sr6P28,2.461494,,,5,3.0
Ca4Sb4Li4,1.179548999999999,,,5,1.0
La4O4C4,4.311566000000001,,,5,5.0
Zn2Cl4,5.789725,,,5,7.0
Ca4K4O18C6,6.5484860000000005,,,5,7.0
Tl4Hg4As4S12,2.2707,,,5,2.0
N3Na1,5.043561,,,5,6.0
Ga12Te12I4,2.098907,,,5,2.0
Pb3Te1Mg3P2O14,4.7446730000000015,,,5,5.0
Ir1Cs4O4,2.155507,,,5,2.0
W12Br24,3.567531,,,5,4.0
Ag20F16C4,3.294992,,,5,4.0
Au2Ge8Rb6,1.310809999999999,,,5,1.0
Tl16Te4Cu4O24,2.445974,,,5,3.0
K2Mn2F6,5.206948,,,5,6.0
Si2Mg2Na4O8,5.571454,,,5,6.0
Sr4Mn2W2O12,2.420924,,,5,3.0
Cu2Ga2Se4,1.076808,,,5,1.0
Na8As8,1.083039,,,5,1.0
Ta4La4N8O4,1.625889,,,5,2.0
Ce4Rh8O20,1.937822999999999,,,5,2.0
Fe4Na8O16Li12,4.280291,,,5,5.0
Rb16Fe4O14,2.66171,,,5,3.0
O2N16Li4Sr8Si8,3.756374,,,5,4.0
Ca2Co2S2O2,2.905624,,,5,3.0
Ru2K2O8,1.22684,,,5,1.0
N1Cl1Li4,2.850073,,,5,3.0
Te4O16Li8,3.851024,,,5,4.0
Cs12Ga2Sb8K6,1.221324,,,5,1.0
Cr1Li1S2,1.942387,,,5,2.0
V2Br4S4N6,1.5060900000000002,,,5,1.0
Ba2S6,2.433895,,,5,3.0
Cs2Hg1Pd1Cl6,2.629618,,,5,3.0
Sr4As2,0.17049,,,5,0.0
Cu2Zn1Sn1Se4,0.520761,,,5,0.0
Rb16Ge4O16,3.91048,,,5,4.0
K12Ga4S12,3.790501,,,5,4.0
Te4Cu4Br4O10,2.562379,,,5,3.0
Sr6Pt2Ni2O12,4.086368,,,5,5.0
Pb4S4,0.534092,,,5,0.0
K8Na4In4Sb8,1.120002,,,5,1.0
Cd8Cl8P4,2.228082,,,5,2.0
La3Si3B3O15,7.056425000000001,,,5,7.0
Bi8O12,2.283464,,,5,2.0
Zn1Sn2F6O6H12,5.380673,,,5,6.0
Se12K12Sb4,3.066807,,,5,3.0
Y4Mn4O12,2.285651,,,5,2.0
Li1B1Ge1O4,4.383877,,,5,5.0
Hg4Br2As6,1.441833,,,5,1.0
Zn8P16,2.174319,,,5,2.0
Sr2Ni1Te1O6,3.016055,,,5,3.0
Hg4Ge2O8,1.823831,,,5,2.0
Pb4Te4,1.184939,,,5,1.0
Cu2Hg1Ge1Se4,0.279499,,,5,0.0
Sr2Zn1Mo1O6,3.168274,,,5,3.0
Cr4Cl4O12K4,4.092945,,,5,5.0
Mg8Ni4H16,2.483664,,,5,3.0
Bi4Al8Se16,3.018357,,,5,3.0
Tl4Ta4S12,1.001557,,,5,1.0
Ag4Cu4O6,2.049534,,,5,2.0
Cd4Mo4P4O24,2.759425,,,5,3.0
S16F4O8N12,3.033335,,,5,3.0
I12Te4Nb4,1.269072,,,5,1.0
Pt1Cs2Te2,1.7293759999999991,,,5,2.0
K3Co1N6O12,4.293992,,,5,5.0
Tl4Si4Al4O16,5.082682,,,5,6.0
Re4Cl24S2,2.415841,,,5,3.0
Cr2P6C6O6H18,4.098589,,,5,5.0
Cs4Cu4S16,2.888506,,,5,3.0
Te8Mo4O28,3.672854,,,5,4.0
Au2Br6Cs2,1.109487,,,5,1.0
Ba4V4Cl4O12,3.481099,,,5,4.0
P4S16K12,3.984589,,,5,4.0
Bi1B3O6,5.147045,,,5,6.0
Mn4Ge4N8,2.448042,,,5,3.0
Se2Cl14Al2,2.987178,,,5,3.0
Fe1Cr2Se4,0.510062,,,5,0.0
Pt2F8O8C4Cs4,4.339037,,,5,5.0
Cs4Co2Si2O8,4.201129,,,5,5.0
Ba2F2Mn2Se2O1,2.837282,,,5,3.0
Ba8Fe16O32,4.598756,,,5,5.0
Ta12N20,0.322839,,,5,0.0
Ca2Ru1H6,3.884479,,,5,4.0
Al4Si4P12,0.861939999999999,,,5,1.0
Pb4P4S12,3.000806,,,5,3.0
Ge8V4O24Li4,3.162003,,,5,3.0
Cs10Ag2Si6O18,4.322567,,,5,5.0
Cd2In2Ga2S8,1.203293,,,5,1.0
In4Mg4Br12,2.765958999999999,,,5,3.0
Cd2Al2Cl8,3.382704,,,5,4.0
Ba6Ca2Ru4O18,2.646017,,,5,3.0
Al16S24,2.612279,,,5,3.0
Ge1I2,2.558108,,,5,3.0
Hg4O4,2.376175,,,5,2.0
Ag4In4Ge2S12,1.936037,,,5,2.0
Mg4Te8,1.806046,,,5,2.0
Co2O2,1.634123,,,5,2.0
Nb6Te2I14,1.264166,,,5,1.0
Te8I32,2.533283,,,5,3.0
Be1S1,4.087134,,,5,5.0
K4In2S14P4,2.947364,,,5,3.0
Ge2Cu4O8,2.960639,,,5,3.0
Sn4S8,1.964143,,,5,2.0
Bi6Se8Br2,1.54619,,,5,1.0
K8Mn2Br12,4.532783,,,5,5.0
Ni2Se2,0.358878,,,5,0.0
Rb2Ni3S4,2.239208,,,5,2.0
Mn2P8,1.504369,,,5,1.0
Rb4Cu4P4O16,3.098107,,,5,3.0
Rb8Mo4S8O8,2.945704,,,5,3.0
Ge4O8,2.132839,,,5,2.0
W1Ag1S4N1H4,2.431259,,,5,3.0
Hg12I8Te8,2.079463,,,5,2.0
K4Zr4V4F28,3.77775,,,5,4.0
Bi1F3,5.651168,,,5,6.0
Cs4Ga4Se12,2.649137,,,5,3.0
I20As4F24,2.285688,,,5,2.0
Na1Cu1O2,2.398748,,,5,3.0
Tl6Fe2Cl10,3.507274,,,5,4.0
Sr2Cr1Ta1O6,3.796337,,,5,4.0
Ca4As2O1,1.95965,,,5,2.0
Pt1K2Br4,2.793699,,,5,3.0
Ba2Pb2O6,0.344873,,,5,0.0
Sr4V6O18H2,3.035845,,,5,3.0
Na2Ge6P6,1.71611,,,5,2.0
Cd4Sn2O8,1.771079,,,5,2.0
Cu2Al2O4,3.423551,,,5,4.0
La2Bi2Se4O2,1.147781,,,5,1.0
Sr2N1O6H3,4.600722,,,5,5.0
Sr8Mn8O20,2.775156,,,5,3.0
Ag2Rb4S8P2,3.297518,,,5,4.0
Te3Li18O18,4.504824,,,5,5.0
W4Cl20N4S4,1.814798,,,5,2.0
Cu3Te1S3Cl1,1.810302,,,5,2.0
K4Mn2Te4,3.100112,,,5,3.0
Fe4O10P2,0.5341859999999999,,,5,0.0
Se6Ag1V1P2,1.161688,,,5,1.0
K12Cd2Te8,2.355397,,,5,2.0
Cl8O16,1.626686,,,5,2.0
Sc1Pd1Sb1,0.480492,,,5,0.0
Cu12Mo8O40H8,3.468281,,,5,4.0
Re4Cl24O8Ga4,3.110625,,,5,3.0
Na2Pt1H4,3.185769,,,5,3.0
Al4Br12,5.270942,,,5,6.0
Cs12Sb4S12,3.45973,,,5,4.0
Fe1Ti4P6O24,2.623593,,,5,3.0
Sr6Cu3Cl3O6,4.077158,,,5,5.0
Ga2Se2,1.661536,,,5,2.0
Ca8Cr16O32,4.431132,,,5,5.0
Mn2Te2Mo2O12,3.236954,,,5,4.0
V4Se4O20H8,3.378842,,,5,4.0
Cu1Cl1La1Nb2O7,1.59061,,,5,2.0
Ti4P8O28,4.081153,,,5,5.0
Sr1Li1P1,1.459967,,,5,1.0
In1Sn1Co3S2,0.73867,,,5,0.0
Hg6Se4Cl4,2.804841,,,5,3.0
Ca1Te1,0.4742889999999999,,,5,0.0
V16Na8O32,2.167175,,,5,2.0
La10I18C4,2.080498,,,5,2.0
Pd2Au4F16,2.945376,,,5,3.0
Bi4Pb7Se13,0.4813139999999999,,,5,0.0
Nb4Zn2Mn6O18,3.296116,,,5,4.0
I4P4Cl32,2.643157,,,5,3.0
Ca2Mn2As4O20H12,3.911251,,,5,4.0
Na2Ti2Si4O12,2.438963,,,5,3.0
Ag4Na4O4,2.354542,,,5,2.0
Zn8Si4O20H4,4.068195999999999,,,5,5.0
Zn4V2P4O18,3.933425,,,5,4.0
Ba3Nb1Fe3Si2O14,3.943544,,,5,4.0
Ni2P2S6,2.122605,,,5,2.0
Li2C4O4,3.777188,,,5,4.0
Sr4Cu2F12,5.294321,,,5,6.0
K6Al4As6,1.956969999999999,,,5,2.0
Sn2D8,4.667528,,,5,5.0
Mn4Mo4O16,3.216656,,,5,4.0
Lu2Cl2Mo2O8,3.876991,,,5,4.0
V2Tl2S2O18H12,3.756861,,,5,4.0
La2O2Cu2Te2,2.246626,,,5,2.0
Rb4Cd2Cr4O20H8,3.88137,,,5,4.0
Zr2Cl2N2,2.81371,,,5,3.0
Br8N24,3.229206,,,5,4.0
O14P4Cr2Ba1,4.403192000000001,,,5,5.0
Sb1Cl6S2N1,2.611402,,,5,3.0
Nb4Br20,2.363096,,,5,2.0
Tc1K2Cl6,3.173689,,,5,3.0
Rb4Fe8F24,1.385808,,,5,1.0
Na1Fe1Se2O8,3.087123,,,5,3.0
Ba4Pd4Cl16,3.115188,,,5,3.0
La4P28,1.500317,,,5,1.0
Sb2Se8As6F12,2.649432,,,5,3.0
Mo16Y8Cu8O64,2.841732,,,5,3.0
Na4S4,2.322736,,,5,2.0
Lu6Au6Sb8,1.000350999999999,,,5,1.0
Bi6Al6O18,3.959969,,,5,4.0
Na12P44,2.537937,,,5,3.0
O8Pd6Ca2,0.310548,,,5,0.0
Rb14Na2Zn4O12,2.786055,,,5,3.0
Cu4Fe4P4O20,3.462504,,,5,4.0
Rb4As6,0.8969619999999999,,,5,1.0
K4Zn10As8,1.046257,,,5,1.0
Ag8Cd2Ge4S14,1.645217,,,5,2.0
O12Si4Fe2Na2,4.106262,,,5,5.0
Rb4Ag2Ta2S8,3.462573,,,5,4.0
Sc4O4I4,3.149376,,,5,3.0
Si2Cu4Mg2Se8,1.962412,,,5,2.0
Hg1Sn1Cu2Se4,0.165034,,,5,0.0
Ba2Sn2Cu4Se8,1.4581,,,5,1.0
V4S4,2.60235,,,5,3.0
In5S8Rb1,2.148959,,,5,2.0
Mn2Na4S4O20H8,5.808194,,,5,7.0
Sr4Mn2Ge4O14,3.17008,,,5,3.0
C4O8,8.469341,,,5,7.0
Li2N2O6,5.014179,,,5,6.0
As2Ca1Be2,1.288014,,,5,1.0
Sb2S2Cl18,2.925201,,,5,3.0
Cs2Au2Se2,2.615133,,,5,3.0
In4Te4Br4O12,4.161419,,,5,5.0
Mn2Te2Mo2O12,3.140364,,,5,3.0
Ca24N16,2.043033,,,5,2.0
Cs3Sb2I9,1.974416,,,5,2.0
Y2Se4V2O16,2.223208,,,5,2.0
Ca2W2O8,5.375432,,,5,6.0
Ga4S4,2.553598,,,5,3.0
Rb1Zn4P3,0.881126,,,5,1.0
Al2F6,10.022585,,,5,7.0
K2Nb2S4,1.294629,,,5,1.0
V4P8S26,2.190796,,,5,2.0
Sr4Cu2Si4O14,3.522896,,,5,4.0
La2Mg1Ge1O6,6.049494999999999,,,5,7.0
Li2Fe2Si4O12,4.069965,,,5,5.0
W4O12,2.646793,,,5,3.0
Sr6Fe4O8F8,3.351251,,,5,4.0
I16Cd8,3.334791,,,5,4.0
La6Cr2Be2S14,1.980339,,,5,2.0
Hg6Se8O10,2.953693,,,5,3.0
Sr2N1D1,2.665139,,,5,3.0
Ca1B6,0.4487919999999999,,,5,0.0
Os16Ge24,1.281101,,,5,1.0
Ba3Zn2As4,0.139132,,,5,0.0
Sr6Ga8O18,4.296945,,,5,5.0
Ca8Ge4S16,3.57961,,,5,4.0
Rh2Sr6Y2O12,4.055655,,,5,5.0
Li4C4N12H16,5.579283,,,5,6.0
As4Pb4Ag4S12,1.935167,,,5,2.0
Tl4Zr2S6,1.452526,,,5,1.0
Te24Na24,0.957569,,,5,1.0
K2Mg1Cr2O10H4,4.175217,,,5,5.0
Cu2H2,1.543349,,,5,1.0
Ag4Ca2V8O24,2.8726,,,5,3.0
Tl6P2O8,3.626665,,,5,4.0
Cu4Nb8O24,3.593918,,,5,4.0
Cr4F8O8,3.570436,,,5,4.0
Ba2Bi1Sb1O6,2.603709,,,5,3.0
Al3P3O12,0.582433,,,5,0.0
W4Fe4O16,2.110922,,,5,2.0
La4Ba4Cu4Se12,1.808821,,,5,2.0
Ba1Te1,1.479534,,,5,1.0
Cu2Sn1Zn1S4,1.244691,,,5,1.0
Ca12Cl8C4B4N4,3.15312,,,5,3.0
K2V2F6,3.735231,,,5,4.0
Cs4Cr4Cl4O12,4.099737,,,5,5.0
Ge5Te8As2,0.330784999999999,,,5,0.0
Tl8O6,1.165648,,,5,1.0
Co2Sb2S2,0.5659200000000001,,,5,0.0
Te4F16,5.203724,,,5,6.0
Y1N1,3.084559,,,5,3.0
Ti4O8,3.64088,,,5,4.0
Cu2P2O7,3.73658,,,5,4.0
Ag2S2O6F6C2,4.554208,,,5,5.0
Se2N4Li16,2.994971,,,5,3.0
K4Au4S8N8C8,3.505802,,,5,4.0
Zr6F24,6.951645,,,5,7.0
Sc4Rh4O12,2.764603,,,5,3.0
As6Ni6O21,3.802765,,,5,4.0
Ag2Sc2P4S12,3.090082,,,5,3.0
Sr2Ti2O6,3.205185,,,5,3.0
Rb4Zn6S8,3.839596,,,5,4.0
Cr6Cl18,3.70006,,,5,4.0
Ca4Ni4As4O20H4,4.024344,,,5,5.0
La4Ga4S8O4,3.135163,,,5,3.0
Sb4K2S4P2O24,5.476047,,,5,6.0
Na4Pd2S4,1.998986,,,5,2.0
K2Co2P2O10D4,4.483896,,,5,5.0
Au4Cl12,2.518383,,,5,3.0
K16As8Te16,1.510451,,,5,1.0
La4Au2P4O2,0.222347,,,5,0.0
Be1Te1,2.688552,,,5,3.0
Mo2As2Al1Li3O14,4.00795,,,5,4.0
Ca4D22Fe3Mg4,3.913297,,,5,4.0
Cs2Ag6S4,1.376493999999999,,,5,1.0
Nb6Te2Cl14,1.573274999999999,,,5,1.0
Ba12P16Sn8,1.331125999999999,,,5,1.0
Ba4Ti8O20,4.127639,,,5,5.0
Cs1I1,4.685534,,,5,5.0
Zn2Sn2O6,2.730326,,,5,3.0
Cs4K4Cd6O10,2.484803,,,5,3.0
Sr2P4O16H4,5.110356,,,5,6.0
Ni2Ti2O6,3.973109,,,5,4.0
Ba1Fe2P4O14,3.98271,,,5,4.0
Hg4Ag4Br4S4,2.331397,,,5,2.0
Cu5Na8O10,1.304016,,,5,1.0
Fe2P6O12H12,3.885731,,,5,4.0
Ba8Ce3Sb4O24,3.583574,,,5,4.0
Hg2Br2I2,3.339371,,,5,4.0
Ge8I8S12,3.213391,,,5,4.0
Ba4Y8Te16,1.499468999999999,,,5,1.0
Na1Au1I4O12,3.41796,,,5,4.0
Pb2F2I2,2.928402,,,5,3.0
Y2Sr2Si8N14,4.071293,,,5,5.0
Se4Ti2O12,3.739278,,,5,4.0
B12P2,3.44227,,,5,4.0
Y3F9,7.869972,,,5,7.0
Na6O6,3.920646,,,5,4.0
Y4Cu4S8,2.767376,,,5,3.0
W4Te6Se8Cl16O4,1.35065,,,5,1.0
Ba4K4P4S16,3.356883,,,5,4.0
Tl4Sb4O12,3.3334,,,5,4.0
Pd1S8P2K4,2.882805,,,5,3.0
I8Cr4,2.543412,,,5,3.0
Hg1Cd1Se4N4C4,3.264701,,,5,4.0
Ta4Ni2S10,0.118392,,,5,0.0
Ni2As4O12,4.056883,,,5,5.0
Hg1As2O6,2.390836,,,5,2.0
Cu4C8H8O16,3.946006,,,5,4.0
Ti2As8Na16,1.694139999999999,,,5,2.0
Ni8P32O88,5.622287,,,5,6.0
Zn2In4S8,2.174153,,,5,2.0
Ca1Zn2As2,1.247822,,,5,1.0
Tc2O14Li2H12,5.041551,,,5,6.0
In8Cd2I12,1.978982,,,5,2.0
P2S8Al2,4.024227,,,5,5.0
Sr8Ge8Se20,1.827857,,,5,2.0
Tl6S6B2,1.650128,,,5,2.0
Na4V4O12,4.457168,,,5,5.0
Na4Mg2Al2F14,8.97024,,,5,7.0
Cs2Sb4Se8,1.5627749999999991,,,5,1.0
Ba3V6O18,4.004271,,,5,4.0
Sb2Ag6S6,1.716923,,,5,2.0
Rb8Co4Br16,3.98073,,,5,4.0
Pt4Ge4S4,1.275804,,,5,1.0
Na4Y4Ge4O16,5.265218,,,5,6.0
Ag6Ge10P12,0.914798999999999,,,5,1.0
Ca3Cu2Zn2P4,0.81469,,,5,1.0
Rb4O16H4C16,4.041032,,,5,5.0
Cs2Nb8Br22,1.130693,,,5,1.0
Cu1I4N4H12,2.545191,,,5,3.0
Ni3K4O6,1.303767,,,5,1.0
Ge4S14Na12,3.544854,,,5,4.0
Na1Nb1O3,2.80775,,,5,3.0
Pb2Cu8As6O24,1.381266,,,5,1.0
Ca4V4O12,1.201251,,,5,1.0
La2Cu4O8,1.73829,,,5,2.0
K8W4Se16,1.855119,,,5,2.0
K3Cr1O4,1.865924,,,5,2.0
K12Na6Ga2Sb8,1.218494,,,5,1.0
Na2Ga2D8,5.765114,,,5,7.0
Hg12Tl4Sb8Br12,1.297701,,,5,1.0
Li2I2O6,0.018217,,,5,0.0
K1Y1Te2,2.090857,,,5,2.0
La4Ni2O8,3.519491,,,5,4.0
Zr1Mo2O8,3.621623,,,5,4.0
Li1Zn1As1,1.624763999999999,,,5,2.0
Hg2Al4S8,2.334486999999999,,,5,2.0
Na8Cr2O8,3.264679,,,5,4.0
Lu4Mn8O20,2.183779,,,5,2.0
Zn8B3O14H3,4.434277,,,5,5.0
Ge1Bi2Te4,1.163098,,,5,1.0
Pb4Se2O16N4,4.042204,,,5,5.0
Au4S4Cl20,2.889338,,,5,3.0
V4O8,1.976376,,,5,2.0
Sr2Cu2O10H12,3.983241,,,5,4.0
Si3O6,7.538321,,,5,7.0
Si12O24,7.510421,,,5,7.0
Fe1N12C6Co1H18,2.543534,,,5,3.0
Tl4S4,0.992001,,,5,1.0
Bi8Cr8O24,2.778594,,,5,3.0
Cd1In2Se4,1.6672900000000002,,,5,2.0
V6O20H12,2.490021,,,5,3.0