formula,bg,formation_energy,mp-id,fidelity,bg_category
Ta2Cl10P8S10,2.988322,,,5,3.0
As8S12,2.59238,,,5,3.0
Na2Mn6F20,1.814571,,,5,2.0
Sb2Na2O6,4.565537,,,5,5.0
Ni2Ti4P4O20,4.174727,,,5,5.0
Fe4Se12Na12,2.278679,,,5,2.0
Ga4Se4,1.769253,,,5,2.0
Cd2Ge4O10,2.998451,,,5,3.0
Cs2Li1Cr1C6N6,4.699677,,,5,5.0
Zn6N36,4.816958,,,5,5.0
Sr4N8D16,3.749753,,,5,4.0
Pb4Cs4Na12O16,2.845243,,,5,3.0
Bi2Fe2O6,3.301963,,,5,4.0
Sn2O8Rb8,3.551723,,,5,4.0
K1S2Fe3O14H6,3.228518,,,5,4.0
V2S8K2Cu4,2.027602,,,5,2.0
Mn2Rh4O8,2.71553,,,5,3.0
Bi4Al8O18,3.810564,,,5,4.0
Hg2Br6N2C4H16,3.676446,,,5,4.0
Rb3Br1O1,1.390246,,,5,1.0
Ba2Cu2Se2F2,2.548129,,,5,3.0
Y8V4O20,2.760243,,,5,3.0
Mn4Ga4S10,1.011987,,,5,1.0
Ag8N8O24,3.645899,,,5,4.0
Tl4Hg6Se8,1.85564,,,5,2.0
I2Zn2O8H2,4.84814,,,5,6.0
K2Cu2Hf2S6,1.633703,,,5,2.0
Fe6O8,1.300365,,,5,1.0
Ag4Na4S8O12,3.95316,,,5,4.0
Ge1Rb1I3,0.8757400000000001,,,5,1.0
Pb4F12,2.785979,,,5,3.0
Ge2Se4,2.323774,,,5,2.0
Rb2Ta2Ge2S10,1.650287,,,5,2.0
Li1Y1Mo3O8,2.410179,,,5,3.0
V2F6,2.519931,,,5,3.0
Cs4Ni2O4,4.023869,,,5,5.0
Li2Na1Sb1,1.244633,,,5,1.0
Si4N4C4O4H12,7.107604,,,5,7.0
Hg4S2O8,3.035179,,,5,3.0
Na4Br4O20H8,4.651282,,,5,5.0
Na4Mn8O16,1.042497,,,5,1.0
In2Se4V2O16,2.891551,,,5,3.0
Cs12Cu8I20,3.656035,,,5,4.0
Na8Al8Se16,3.283779999999999,,,5,4.0
Cs2Cu1Cr4O16H4,3.352568,,,5,4.0
Se12Cu4Br4,1.817182,,,5,2.0
Ba2Cu2As2,0.191836,,,5,0.0
Rh2N6Cl6H18,4.298821,,,5,5.0
Na4V4P4O20,2.994485,,,5,3.0
K16Sn2Sb8,0.761721,,,5,1.0
La2Ni10H14,0.922167,,,5,1.0
Na1Nb1O3,2.833721,,,5,3.0
Nb4N4S4Cl24,2.916014,,,5,3.0
Ag4O4,0.846208,,,5,1.0
Sb4F40Cl4,4.408869,,,5,5.0
I6O18N2H8,3.304714,,,5,4.0
Bi6Co1S2O16,3.187377,,,5,3.0
I6P2,3.098866,,,5,3.0
Rb2Sb4Se8,1.583674,,,5,2.0
As4S12Li12,3.22555,,,5,4.0
Te8I8,1.411043,,,5,1.0
Ni2Au4F16,3.567521,,,5,4.0
Ca4N2I2,3.408036,,,5,4.0
Cs12Cl4O4,2.667483,,,5,3.0
Ga2Te2I14,2.573567,,,5,3.0
K8Ga8S16,3.664115,,,5,4.0
Ba4P12,2.025793,,,5,2.0
Zn2Cu2Cl2O6H6,4.074648,,,5,5.0
Rb2Ni1F6,4.191814,,,5,5.0
Co8Ge8Te8,0.795510000000001,,,5,1.0
Sb4Br4Mn4S8,2.31445,,,5,2.0
Zn2Se2,2.570554,,,5,3.0
Li8Mn4O12,3.245189,,,5,4.0
Rb16Si16,1.649427,,,5,2.0
Hg1S2C2N2,3.58584,,,5,4.0
As2Mg1Be2,0.976122,,,5,1.0
Hg4Ni4F12O2,1.958635,,,5,2.0
Hg4Te4O12,3.255318,,,5,4.0
Sb4Cl4N24,1.470953,,,5,1.0
Zr4I16,2.561594,,,5,3.0
Mn8Ge4O16,2.679043,,,5,3.0
Pt4P8,1.610889,,,5,2.0
Y2K2Si2S8,3.773383,,,5,4.0
Sr1Al1Si1D1,1.080394,,,5,1.0
Ti2Cl12S2O2,3.697928,,,5,4.0
Bi4K8O10,3.463465,,,5,4.0
Rh2Te12Br6,1.745581999999999,,,5,2.0
Ba3W1O6,3.999236,,,5,4.0
Cu4Rb4O4,2.759122,,,5,3.0
La4Bi8S24Ba4,1.181273,,,5,1.0
Rb6As4B2,1.940265,,,5,2.0
Na2Ga2Ge4O12,4.153417,,,5,5.0
Cr1N6H18Cl2O8Br2Cs1,5.144037,,,5,6.0
Ca8Ir2O12,1.15584,,,5,1.0
Zn1Al2Se4,3.183437,,,5,3.0
Ba2Nb4O12,3.051995,,,5,3.0
As2Ca4,0.4707159999999999,,,5,0.0
Sn8I32,2.942779,,,5,3.0
Rb1Fe1Mo2O8,3.478282,,,5,4.0
Te16Ga8K8,2.013284,,,5,2.0
Al1P1O4,0.862471,,,5,1.0
Na1Cu3Te2,0.949236,,,5,1.0
Li4Sr2Nb4O14,3.037373,,,5,3.0
Tl3N3O6,2.861712,,,5,3.0
Sn4S4C4N4F4,3.717559,,,5,4.0
Hg1I1O6H3,2.262554,,,5,2.0
Rh2C8O8Ga4Cl14,3.453089,,,5,4.0
Rb2Pd1C2,2.324598,,,5,2.0
W1Co1Sr2O6,2.364058,,,5,2.0
Hg1O2,1.487131,,,5,1.0
Te7O6F30,4.040822,,,5,5.0
Ni6As4O16,3.740389,,,5,4.0
Cr2Br4,3.021507,,,5,3.0
Cs2Hf1I6,3.089765,,,5,3.0
Sr4Ca2Mo2O12,3.425209,,,5,4.0
Mn4K4Cl12,4.970812,,,5,6.0
Pt1K2F6,4.60789,,,5,5.0
Na1K3P2O6F2,6.29565,,,5,7.0
S24,3.369181,,,5,4.0
Se4Ni4O12,4.259868,,,5,5.0
Hf2Se4Cl24,3.977791,,,5,4.0
Re3Li15O18,3.337748,,,5,4.0
Ba1Co2P2O8,3.869674,,,5,4.0
Y2Ba2Mn4O12,1.852574,,,5,2.0
Sr2N1Br1,2.877611,,,5,3.0
O6Pb2Te1Mg1,3.714858,,,5,4.0
Ag2Cu8As6O24,3.04123,,,5,3.0
Tl4La4Se24P8,2.624976,,,5,3.0
Hg8Pb4I8S8,2.513756,,,5,3.0
Se12Cs12Sb4,3.008256,,,5,3.0
Y6Cu2Ge2Se14,1.926861,,,5,2.0
I6Pb3,3.154645,,,5,3.0
Ta4S9Br8,1.851122,,,5,2.0
Pb2Cl4O8,2.666821,,,5,3.0
Tl2V6O16,2.495385,,,5,3.0
V2Na6F12,3.528669,,,5,4.0
Mo2Cl4O6H4,3.118274,,,5,3.0
Rb1La1S2,3.527517,,,5,4.0
Te16Ge4K8,1.662465,,,5,2.0
Ag4O6C2,1.957255,,,5,2.0
Hg3Te3,0.931215,,,5,1.0
Ca4Bi4Li4,1.042754,,,5,1.0
Cu6Se18I6,2.053343,,,5,2.0
Zn1Te1,2.192322,,,5,2.0
Cs4Pd8Cl20,2.973515,,,5,3.0
Ba6Ga4S12,3.6641269999999992,,,5,4.0
Cr8F20,2.112799,,,5,2.0
Rb2Te4Ag6,0.953419,,,5,1.0
Cd4Nb4O14,3.455332,,,5,4.0
P2Mg1Be2,1.296660999999999,,,5,1.0
Rb8As8Se16,2.328908,,,5,2.0
K2Au2N8O24,3.634217,,,5,4.0
Y4V4O12,2.581692,,,5,3.0
Ge16Se36,2.169188,,,5,2.0
Zr2Te4Br10,1.307171,,,5,1.0
Na8Si8,1.689275,,,5,2.0
Mn8F32,3.300555,,,5,4.0
Y2N2,1.828233,,,5,2.0
Se8Cl12N4,1.041642,,,5,1.0
K4O8,0.954582,,,5,1.0
K12Al4Te12,2.9016070000000003,,,5,3.0
B3N3,1.921114,,,5,2.0
P8N16H8,6.38152,,,5,7.0
V2Sb2O8,1.654853,,,5,2.0
Re6O18F6,3.991617,,,5,4.0
Co2C2O6,4.342264,,,5,5.0
W4Cu8O16,2.255503,,,5,2.0
Hg4O4F4H4,2.934012,,,5,3.0
F12Bi4,5.649001,,,5,6.0
Sb10Cd4K22,1.182328,,,5,1.0
Na6Au2S4,3.428259,,,5,4.0
Cd1Ba2B2O6,4.790811,,,5,5.0
Cs12Cr18O60,3.292618,,,5,4.0
Ca2Ga4S8,3.602736999999999,,,5,4.0
K3Au1O1,1.453293,,,5,1.0
Ba2Ag4Hg4O8,2.105166,,,5,2.0
Tl4Sn12Na20,0.3047709999999999,,,5,0.0
I8Cd4,3.333312,,,5,4.0
Ag2Al2Se4,2.166235999999999,,,5,2.0
Xe4Cr4F24,3.119165,,,5,3.0
Te2Se2O8,4.044252999999999,,,5,5.0
Rb4Cu4F12,4.823457,,,5,5.0
Cu8P28,1.448609,,,5,1.0
As8O20,3.073161,,,5,3.0
In10Tl2S14,1.251326,,,5,1.0
Rb1Ca2Nb3O10,2.80661,,,5,3.0
Fe2F6,5.32496,,,5,6.0
Os8Si16,1.389095,,,5,1.0
Sr14Sn3As12,1.423423,,,5,1.0
Cu1Cl2,2.265312,,,5,2.0
Rb4Ba12Sb10O2H2,1.482949,,,5,1.0
Hg2I4,1.541555,,,5,1.0
Cu8N10C4H6,3.349202,,,5,4.0
Tl2P2S6,2.725726,,,5,3.0
Ce6Pt6Sb8,0.802014999999999,,,5,1.0
Ca2N1Cl1,3.5237,,,5,4.0
Os4F16O4,2.246404,,,5,2.0
V2N6Ca6,1.918973,,,5,2.0
Hg3Sr3O6,3.787976,,,5,4.0
Cu2Fe2S4,1.234744,,,5,1.0
Ba2Ni2O6,3.121861,,,5,3.0
Tc4Cl20K8O4,2.327159,,,5,2.0
Tl4Sb4O12,3.304092,,,5,4.0
Cu8K24O16,3.197369,,,5,3.0
O20Mg6Mn6B4,1.558339,,,5,1.0
Bi2V2O8,3.288694,,,5,4.0
Bi4Se4Br4,2.217672,,,5,2.0
Ba8C16,3.846373,,,5,4.0
Cr4Re2O12,1.2779,,,5,1.0
Rb3V5O14,3.210461,,,5,4.0
Sn4F10O2,2.8101089999999997,,,5,3.0
Si3O6,7.548794,,,5,7.0
Au2Sc2O4,3.054355,,,5,3.0
Ba1Ca1Fe4O8,4.691858,,,5,5.0
Mo4P6Na2O26,2.939317,,,5,3.0
Cd6Cl4O4,2.53366,,,5,3.0
Ag6Se2N2O6,1.719867,,,5,2.0
Rb2Au2O4,3.146289,,,5,3.0
La2Sb2Sr4O12,5.200324,,,5,6.0
Se20Si8Na8,3.415516,,,5,4.0
Ba9Ta6S24,1.266143999999999,,,5,1.0
La2O3,3.108751,,,5,3.0
Ag4Zn2Si2O8,2.269231,,,5,2.0
Cs1I1,4.73557,,,5,5.0
Zr1S2,1.81672,,,5,2.0
Tl3V1O4,3.30148,,,5,4.0
Pb8Fe6O16Cl2,2.905594,,,5,3.0
Ba2Ni2S4,0.4104379999999999,,,5,0.0
Ag4Cd2Ge2S8,1.578331,,,5,2.0
Sr10As6H2,1.282601,,,5,1.0
Tl2Ga2Se4,1.076758,,,5,1.0
La6Au6Sb8,0.9094239999999992,,,5,1.0
Na16Sb8Sn2,0.781563,,,5,1.0
K4Se6,1.381647,,,5,1.0
Na2Al2Te4,1.93803,,,5,2.0
Sr4Y2Ru2O12,2.13833,,,5,2.0
La1O6N3,4.121284,,,5,5.0
P12Se16I4,2.505195,,,5,3.0
Rb2In4O7,2.760276,,,5,3.0
Cd1Cr2O8N4H14,3.967016,,,5,4.0
Na6Mn1Cl8,5.34558,,,5,6.0
Mo2Cl2P2K2O10,2.306264,,,5,2.0
Fe4Rb4F16,4.584334,,,5,5.0
Si4Cl8,2.8762600000000003,,,5,3.0
Sn2Ca6H4,0.56705,,,5,0.0
Sb2S8K6,3.271274,,,5,4.0
Dy8O4S8,3.497856,,,5,4.0
Ba8Cd4S12,3.099256999999999,,,5,3.0
Si4S8,4.166398,,,5,5.0
I4Cu2O12,3.28923,,,5,4.0
Hg6S4O22H8,3.355377,,,5,4.0
K4Mn4F12,5.245857,,,5,6.0
Ba12Si4S20,3.786797999999999,,,5,4.0
Cd4P6Br2,1.800598,,,5,2.0
K12Bi4Te12,2.191121,,,5,2.0
Ag16As8S16,1.314572,,,5,1.0
W4O12,2.217322,,,5,2.0
Hf2Cl2N2,3.236764,,,5,4.0
Ca6Cl4C6,2.038807,,,5,2.0
Cr4S4,1.922324,,,5,2.0
Ga1N5O14,3.216128,,,5,4.0
K1Mg1H3,3.496699,,,5,4.0
Nb8Si4Te16,0.4580289999999999,,,5,0.0
Cd8P16,2.168771,,,5,2.0
Ce1O2,3.356874,,,5,4.0
C8Na2O10H6,4.301609,,,5,5.0
C8N16H12Cu2,3.897715,,,5,4.0
Ag6N10O12,3.565115,,,5,4.0
Ba4V4F16O4,3.878116,,,5,4.0
Ca2O10C4N8H16,6.301013,,,5,7.0
Mn8Si8O24,4.263624,,,5,5.0
Mo4As4K4O24,3.802726,,,5,4.0
Hg8Se4O12,3.013414,,,5,3.0
Mn2Cr4O8,3.835415,,,5,4.0
Ba4Cd4S8,2.534237,,,5,3.0
Nb2Na10O10,4.254138,,,5,5.0
Be2I4,5.087285,,,5,6.0
Y6Ni2Al2S14,2.811042,,,5,3.0
Ir8S12,1.727784,,,5,2.0
Hg1Mn2C10O10,3.262718,,,5,4.0
Tl4I16Ga4,3.51481,,,5,4.0
Ba2Ti12O26,3.868306,,,5,4.0
Cs4Ni2P4S12,2.753795,,,5,3.0
La6Sb2O14,4.405762,,,5,5.0
Cs8S20,2.758816,,,5,3.0
Rb2K4Pd2F10,4.505492,,,5,5.0
Pb4Br8,3.948022,,,5,4.0
Ba2Fe1W1O6,1.816087999999999,,,5,2.0
Li4Ru2F12,2.475436,,,5,3.0
Sn8S12,1.234822,,,5,1.0
Cs1P3Zn4,0.795743,,,5,1.0
Ce2Al2O6,3.658954,,,5,4.0
P16S12I8,2.727701,,,5,3.0
Zn1Sn1Cu2Te4,0.379814,,,5,0.0
Cs2Ag2Cl4,3.657946,,,5,4.0
Hf2Br2N2,2.854772,,,5,3.0
Ba10Ga12D4,0.858482,,,5,1.0
Na2Ga2Te4,0.754238,,,5,0.0
Cs4Mn2S4,3.616848,,,5,4.0
Bi8Mo4O24,0.811716,,,5,1.0
K2Sn1Cl6,3.685573,,,5,4.0
Ir2Se6Br18,2.549416,,,5,3.0
Ru2O8F12C8,1.972045,,,5,2.0
K1N1O2,4.430061,,,5,5.0
Zn2S2,3.545718,,,5,4.0
Na4Ti4Si8O24,2.361703,,,5,2.0
Bi4Pb8V4O24,3.099857,,,5,3.0
Mn1Ba2Te1O6,1.780556,,,5,2.0
Xe2Sb4F32,3.90146,,,5,4.0
Bi8Ta4O22,3.869899,,,5,4.0
K12Ga4Se12,3.060028,,,5,3.0
Mo8Fe4Na4O32,3.350885,,,5,4.0
P84,2.115622,,,5,2.0
Na2Ni2O4,2.100798,,,5,2.0
K12Sb4Te12,2.434103,,,5,3.0
O12Rb8,1.297983,,,5,1.0
Ba12Sn8As16,1.264682,,,5,1.0
Zr1V1F6,3.701888,,,5,4.0
Hg12Cr4S8O16,2.9201479999999997,,,5,3.0
Sn8P8O28,4.445105,,,5,5.0
Ru4S4Sb4,1.741505,,,5,2.0
Se4F16,5.537088,,,5,6.0
Ge2Te5Sb2,0.0918279999999999,,,5,0.0
S8Cl4O8N4C4,3.808706,,,5,4.0
Ba2P20,1.890551,,,5,2.0
Ta4N12Li16,3.746719,,,5,4.0
Mg24P16,2.251255,,,5,2.0
Sr2Fe1Mo1O6,1.515227,,,5,1.0
Cu4O10C2H8,3.255494,,,5,4.0
C6H20Br2N2,6.125501,,,5,7.0
Sr4P12,0.4681389999999999,,,5,0.0
Sr4Zr4Se12,0.833704,,,5,1.0
Cs4Ti2Ge6O18,4.441362,,,5,5.0
Cu4In4P4O20,3.83377,,,5,4.0
Mo4As4O24Li4,3.650342,,,5,4.0
Ba4Mn6Sb4O4,1.335622,,,5,1.0
Ce2Lu2S6,1.397807,,,5,1.0
Hf8I32,3.114761,,,5,3.0
O6Co2Ti2,3.210605,,,5,4.0
Pd4K2O6,1.727982,,,5,2.0
Ca2Nb4P4O22,3.804182,,,5,4.0
Mo2Fe2V2O14,3.413017,,,5,4.0
Zn1Ga2S4,3.31387,,,5,4.0
W12O24,1.374001,,,5,1.0
Rb20Si4As12,1.017171,,,5,1.0
Cs20Ge4As12,1.1929709999999991,,,5,1.0
Sr2Cu3O4Br2,2.269563,,,5,2.0
Pb4O16C8H8,3.973568,,,5,4.0
Pt12Cl36,1.905097,,,5,2.0
C8O8H4,4.345133,,,5,5.0
K4B2C6N6,3.434521,,,5,4.0
K4Cr8O26,3.064545,,,5,3.0
Cu4As4S4,0.578579,,,5,0.0
Fe4K4Br12,3.92056,,,5,4.0
Se12C8N8,2.988181,,,5,3.0
V4Sb4,0.587757,,,5,0.0
V4O10,2.5275600000000003,,,5,3.0
Cs8Cd4Br16,4.513606,,,5,5.0
Na12B4N8,2.82153,,,5,3.0
Al1As1,2.153546,,,5,2.0
Ca2Cu2Sb2,0.345671,,,5,0.0
Si3O6,7.373361,,,5,7.0
Na3Sr3P3,2.030213,,,5,2.0
Cs20Si4As12,1.258438,,,5,1.0
S12Cl4N20C4,3.392524,,,5,4.0
Sr8Sn4O16,4.150921,,,5,5.0
Cs2Mn2F8O4H8,3.613689,,,5,4.0
Sb4Na4P8S24,2.768582,,,5,3.0
Ba2Ru7O18,0.1013879999999999,,,5,0.0
Tl8Ti4O12,3.12575,,,5,3.0
Mg1O6I8H12,2.211909,,,5,2.0
V4Na8F16O4,4.149922,,,5,5.0
K6Ni6Cl18,4.310652,,,5,5.0
Xe4Sb2Cu1F20,4.188044,,,5,5.0
Hf1S2,1.922823,,,5,2.0
Os2O4,0.6483,,,5,0.0
Sr1Cu3Sn4O12,2.697548,,,5,3.0
Ta1Tl3Se4,2.869544,,,5,3.0
Sn4F8,4.210249,,,5,5.0
Y6Ga6O18,4.40465,,,5,5.0
Hg4N4O8,3.121549,,,5,3.0
Te4Cu1Ca2Cl2O10,3.457629,,,5,4.0
In2V2O8,2.655309,,,5,3.0
K4O1Br2,2.0507,,,5,2.0
Ti4K2P6O24,3.910543,,,5,4.0
Ir2P6O18,4.187638,,,5,5.0
Cr1B6H16,3.109962,,,5,3.0
Cs3V1Cl6O4H8,3.251252,,,5,4.0
Pb4Ba4Fe4Co4O20,1.463305,,,5,1.0
Hg4Ag8O8,1.309485,,,5,1.0
Lu4Rh4O12,2.660165,,,5,3.0
Ba12Ga4P12,1.203054,,,5,1.0
Re2Cl18P2,2.732173,,,5,3.0
Cu5I4O4C2N2H8,1.125013,,,5,1.0
Cr4V4O16,3.384772999999999,,,5,4.0
F12C6,6.547825,,,5,7.0
Li8Te4Se12,0.187082,,,5,0.0
Co4F8,4.82131,,,5,5.0
Ni1Br2,3.228254,,,5,4.0
Sb2Al2I12,2.916677,,,5,3.0
I4Se4As4,1.7535489999999991,,,5,2.0
Pb2Ba2O6,0.349271,,,5,0.0
W1Cl4O1,2.824832,,,5,3.0
I4Hg1Ag2,2.153297,,,5,2.0
Au1F16H4Sb2,3.215507,,,5,4.0
Tl1I1,1.667114,,,5,2.0
Na3Sr3As3,1.515888999999999,,,5,1.0
In4Zn2S8,0.909601,,,5,1.0
K4Ag2P2,1.845227,,,5,2.0
Rb4Co2I8,3.061738,,,5,3.0
Cu2Ga2S4,1.895106,,,5,2.0
Se6O24N6H12,3.632346,,,5,4.0
S6Cl6N6,3.745995,,,5,4.0
Pb2Ti4O9F2,3.497354,,,5,4.0
Mo2Br4O4,1.314745,,,5,1.0
Zn8Br4N4,3.333275,,,5,4.0
K4Fe2P4O14,4.044327,,,5,5.0
Sn2Na8O6,2.676136,,,5,3.0
K10Cu2As4,0.847803,,,5,1.0
Ag4S4C4N4,3.680051,,,5,4.0
Se3,1.764976,,,5,2.0
Hf8I32,3.077503,,,5,3.0
In4O8H4,3.17249,,,5,3.0
Co2F8N4O4H16,5.091731,,,5,6.0
Ga2Se2Br14,3.150998,,,5,3.0
K1S2Fe3O14D6,3.122214,,,5,3.0
Cd2P2S6,2.842682,,,5,3.0
Lu6Fe6O18,2.571187,,,5,3.0
Ni1N2F14,2.208729,,,5,2.0
Fe2B2O6,3.534261,,,5,4.0
P16Se12Br8,2.9081509999999993,,,5,3.0
Ba4Cu8S8,1.852776,,,5,2.0
Ag4Se4V4O20,1.564451,,,5,1.0
Rb1Lu1S2,3.315142,,,5,4.0
W2Bi4Te4O20,3.927964,,,5,4.0
K8Fe4O10,4.148409,,,5,5.0
As8O16,5.106115,,,5,6.0
Mn5O8,1.427129,,,5,1.0
F24Ni8,2.412104,,,5,3.0
La4Se4Cl4,2.135487,,,5,2.0
Pb1Cs2Cl6,2.366543,,,5,2.0
Ba2Au4F16,4.521498,,,5,5.0
Bi2Na2O4,1.548291,,,5,1.0
Ir4Sb4Te4,1.256422,,,5,1.0
Ca4Sb4O14,1.283175,,,5,1.0
Na2Nb2O4,2.27473,,,5,2.0
Na2K2W2O4F8,3.727913999999999,,,5,4.0
Cd8Ge2S12,2.362117,,,5,2.0
Tl2P2O8,1.897664,,,5,2.0
Ag6C6N6O6,4.259021,,,5,5.0
Tl3Nb1Se4,2.711083,,,5,3.0
Cr2V2O8,2.917102,,,5,3.0
V4K2Na2O12,4.455325,,,5,5.0
Zn8P16,2.16693,,,5,2.0
Pb4I2Na2O12,3.917413,,,5,4.0
Te2K4Br12,2.829933,,,5,3.0
Li2Ni2P2O8,4.732804,,,5,5.0
Mo2S4,1.731633,,,5,2.0
Ni2Mn2O6,2.599927,,,5,3.0
Si2,1.188769,,,5,1.0
Bi2Xe2F18,3.662897,,,5,4.0
Rb4Cr4Cl12,3.166402,,,5,3.0
Ge1Te7Sb4,0.6247400000000001,,,5,0.0
Fe4F12,4.01951,,,5,4.0
Cd2As2K2,0.735105,,,5,0.0
Sb14K6S6O18,2.492766,,,5,3.0
K2Sb2O6,4.186529,,,5,5.0
P6Rb4,1.361874,,,5,1.0
Y4Ba4Mn8O24,0.332586,,,5,0.0
Sc1P1,2.439626,,,5,3.0
H12Na8Ru2,3.486448,,,5,4.0
W4Y4B16,0.457842,,,5,0.0
Cd1K2Cr2O10H4,3.933555,,,5,4.0
Cr2O4H2,3.58508,,,5,4.0
Hg1Ge1Cu2S4,0.937127,,,5,1.0
Si4O8,7.128796,,,5,7.0
Se4O8,4.798761,,,5,5.0
Sr8Zn4S12,3.377838,,,5,4.0
Pt2Ba1Rb2C8N8,2.785326,,,5,3.0
Ba2Ag2Sb2,0.519553,,,5,0.0
Pb8As8O20,3.841868,,,5,4.0
Co4B4O10,4.346667,,,5,5.0
Sn1F4,5.242883,,,5,6.0
Ba8Fe4Se12,2.282588999999999,,,5,2.0
Cd2As2O7,3.259892,,,5,4.0
O12H24,7.310218,,,5,7.0
Pb1V1O3,2.283045,,,5,2.0
Ba1Zn2As2,0.190239,,,5,0.0
Y4Mn4O12,1.552443,,,5,1.0
In2Mn2O6,0.2454009999999999,,,5,0.0
Ba8In4Te4S10,2.798413,,,5,3.0
Cs20Si4P12,1.464534,,,5,1.0
Mn6F36Li12,4.699208,,,5,5.0
Y6Cu2Ge2S14,2.745174,,,5,3.0
Zn8S8,3.483787,,,5,4.0
Rb8Li4Nb4S16,3.177852,,,5,3.0
Rb16Pb16,0.666227,,,5,0.0
As16S16,2.591853,,,5,3.0
Pd1K2Se2,1.504118,,,5,1.0
I18Cd9,3.335638,,,5,4.0
Mn2Cs2Br6,3.854599,,,5,4.0
Mn2Li2P4O14,2.74558,,,5,3.0
Rb2Hg2Pd1Cl8,3.41245,,,5,4.0
Li8Mg4Si4,0.497073,,,5,0.0
Cr3Si6,1.341492,,,5,1.0
Na12B4O12,4.776948,,,5,5.0
Fe1S4C4O6H12,2.692264,,,5,3.0
La12O12N6B2,2.090934,,,5,2.0
K8Mo4S8O8,2.812229,,,5,3.0
B8F24,10.522191,,,5,7.0
Cd2Rh4O8,2.750215,,,5,3.0
Pb4Tl12I20,3.334275,,,5,4.0
Sn4Se12K12,2.406755,,,5,3.0
Rb2Ti1Cl6,3.345185,,,5,4.0
Ar2,10.280159,,,5,7.0
Pb4W2O10,3.750211,,,5,4.0
Cs1Ta3Se2O12,3.919662,,,5,4.0
Y6F18,10.36124,,,5,7.0
Cd4Si6Na8O20,4.3923119999999995,,,5,5.0
Bi10Al6Cl24,2.393165,,,5,3.0
Ba1Mn2P2,1.164446,,,5,1.0
Mn2P2O10H4,2.938247,,,5,3.0
Ge6N8,3.263586,,,5,4.0
La4Ba2Pd2O10,4.216274,,,5,5.0
B1P1,1.973924,,,5,2.0
Cu4Cd2Ge2S8,1.519499,,,5,1.0
Ca2D6Os1,3.960766,,,5,4.0
Re4S4O26,3.700692,,,5,4.0
Sr3S12B6,3.942414,,,5,4.0
La4Pd4O10,2.848744,,,5,3.0
Re4Se4Te4Cl16,3.256689,,,5,4.0
I2Cu2,2.948468,,,5,3.0
V4O10,2.161385,,,5,2.0
Mg1Se1,2.627516,,,5,3.0
O6N6C6H6,6.545792,,,5,7.0
Ce6P6O24,4.6822420000000005,,,5,5.0
Cs16Zr4O16,4.106921,,,5,5.0
Cs4S4P4O8,5.352587,,,5,6.0
P4O10,7.182713,,,5,7.0
Cd4Na4As4,0.1049529999999999,,,5,0.0
Cs8Ge8Se20,2.497337,,,5,3.0
Tl16Sn8Se24,1.487797,,,5,1.0
Hg2Cs2Y2Se6,2.271762,,,5,2.0
Cs4Si2P4,2.039149,,,5,2.0
Cs3Sb2Br9,2.541135,,,5,3.0
Ca12Si8As16,1.426378999999999,,,5,1.0
Rh8Ge12Se12,0.8845689999999999,,,5,1.0
Ba6Mg7D26,3.921646,,,5,4.0
Nb4Se20Rb2P2,1.709614,,,5,2.0
Cu1Cl1,2.333013,,,5,2.0
Bi16Se24,1.110703,,,5,1.0
Hg2Na2P2O8,3.236768,,,5,4.0
Ba2Mn2As2O1,1.721041,,,5,2.0
Y4Cu4Pb4S12,2.578279,,,5,3.0
P8S10,3.356043,,,5,4.0
Rh1Li1O2,3.27862,,,5,4.0
Cd4Sb4O14,2.088748,,,5,2.0
Ga1Li1Si1,0.623308,,,5,0.0
Cu2Cr4O8,2.234203,,,5,2.0
K4Pd4Zr4F28,3.570819,,,5,4.0
Cs8As4Te12,0.6055090000000001,,,5,0.0
Mn4Se8,1.37716,,,5,1.0
K4Na4Mn4O8,2.664956,,,5,3.0
Ba4Mn4O12,2.944704,,,5,3.0
Cu6P2Se8,0.994821,,,5,1.0
Os1K2O6H4,1.637119,,,5,2.0
Tl1Br4Nb1O1,1.949592,,,5,2.0
Pd2Cl4,2.278981,,,5,2.0
Ba4Ce4O12,4.050097,,,5,5.0
I8F24O12,3.950436,,,5,4.0
Y6Cu2Si2Se14,2.491347,,,5,3.0
Re4Te8Cl16,3.129293,,,5,3.0
Zr2S2O2,1.565312,,,5,1.0
Ag2O6N2,3.468997,,,5,4.0
Ni6Mo4Te2O22,3.382625,,,5,4.0
Ni4O8Sr1,1.383627,,,5,1.0
La2F6,8.843397,,,5,7.0
Ta6Cl18Pb1Cs2,1.973634,,,5,2.0
Pd1K2F6,4.1966,,,5,5.0
Ge12Ca12Al8,0.054683999999999,,,5,0.0
Pd2Mn2Te2,0.025209,,,5,0.0
Ba2N4Be4,2.302553,,,5,2.0
Te2O4,0.642214,,,5,0.0
Tl1F1,3.115524,,,5,3.0
As4K4O8,5.111795,,,5,6.0
Sr2F2Fe2Se2O1,3.342045,,,5,4.0
Ir4O8,0.436824,,,5,0.0
Hg6O4Cl4,1.176844,,,5,1.0
Zn4Sb8O16,3.461541,,,5,4.0
Fe2As4,1.620818,,,5,2.0
Ti4Li4As4O20,4.589688,,,5,5.0
Ag2Cs2C4,3.472215,,,5,4.0
W4S8N12Cl12,1.54861,,,5,1.0
La8S16,1.305186,,,5,1.0
W2Zn2Sr4O12,4.268834,,,5,5.0
Br8O4,2.509437,,,5,3.0
Pt1Rb2Te2,1.563292,,,5,1.0
Zn4Lu8S16,3.37763,,,5,4.0
Nb2Cl20P2,3.367105,,,5,4.0
Cu2In2Te4,0.714298,,,5,0.0
Sr4Fe4P4O16F8,3.543762,,,5,4.0
In4Si4O14,3.553181,,,5,4.0
Pb2C4O8,4.192888,,,5,5.0
Ag4K4P8O24,4.693617,,,5,5.0
Mn2Cr2O8,1.765869,,,5,2.0
Co2Te2Mo2O12,2.974329,,,5,3.0
Ca2Al4Si4O20H8,7.005287,,,5,7.0
Pb6Se4I4O12,3.619894,,,5,4.0
Mo4S8Cl12,2.237862,,,5,2.0
Ge2Na4O6,4.539468,,,5,5.0
O32Ti8Mn16,2.753175,,,5,3.0
Na1La2C3O9F1,5.977449999999999,,,5,7.0
I4Rb2V2O16,3.892251,,,5,4.0
Pb8Hf8O24,3.764064,,,5,4.0
Rb6Mn6Br18,4.638877,,,5,5.0
Te2N8H24Li2,2.25118,,,5,2.0
Pb2K2Li6O8,2.753203,,,5,3.0
Mo6P4Sr2O28,1.307176,,,5,1.0
Bi2Pb1Te4,1.123987,,,5,1.0
V1Li6Cl8,4.284346,,,5,5.0
Rb16Zn8O16,2.738694,,,5,3.0
Ba2Na1Re1O6,2.987835,,,5,3.0
Zn1Se1,2.535196,,,5,3.0
Rb4Ga12S20,3.606161,,,5,4.0
S18,2.841776,,,5,3.0
Pd2Te2I4,0.4760049999999999,,,5,0.0
Na12Al4Te12,2.852661999999999,,,5,3.0
Pb12W4O24,3.143024999999999,,,5,3.0
Li4V4Si8O24,3.009297,,,5,3.0
Ru1O2,2.355914,,,5,2.0
Bi2Y1O4Cl1,2.643055,,,5,3.0
Ag2Ta2O6,3.15123,,,5,3.0
Ga4Ca4Li4N8,3.246144,,,5,4.0
Rh2C8O8Al4Cl14,3.470158,,,5,4.0
La4Ba2Pd2O10,4.216907,,,5,5.0
Cd1Tl4V5Cl1O15,2.711013,,,5,3.0
K6Mo2S8O2H2,2.773133999999999,,,5,3.0
Fe6V6O24,3.348052,,,5,4.0
Na4Ga4O8,4.383232,,,5,5.0
Sr12Al4As12,1.590066,,,5,2.0
Rb8W4Se16,1.966594,,,5,2.0
Al4Cl12,6.728762,,,5,7.0
As2Ag6S6,1.953894999999999,,,5,2.0
Nb2La6O14,4.106527,,,5,5.0
K12Sn4Te12,1.856137,,,5,2.0
Ge4V2Na2O12,3.167561,,,5,3.0
K4C4O12Ag4,3.740377,,,5,4.0
As16Se12,2.010582,,,5,2.0
Cs2Sn4Br10,3.225594999999999,,,5,4.0
Nb1Fe1Sb1,1.227824,,,5,1.0
Ba1Sb2O6,4.472186,,,5,5.0
Pd2O4,0.7283649999999999,,,5,0.0
N4,9.214831,,,5,7.0
La6Ag2S14Si2,2.875283,,,5,3.0
Ba2Ag2La2Se6,2.326826,,,5,2.0
Te2Mn2V4O14,2.563973,,,5,3.0
Sn1Cs2Cl6,3.913838,,,5,4.0
Ag2Co2O4,1.440709,,,5,1.0
La8Mn2S14,3.073333,,,5,3.0
K2Sb2Mo4O16,3.020355,,,5,3.0
B12C3,2.486434,,,5,3.0
Ca3Si2N6Li4,3.520048,,,5,4.0
Ce6Pt6Bi8,0.696380999999999,,,5,0.0
Ga2Mn2F10O4H8,4.591834,,,5,5.0
Cr4K6Na2O16,4.181281999999999,,,5,5.0
Sr8Ge4N8,0.1411629999999999,,,5,0.0
K12S16V4,2.531026,,,5,3.0
Au2P2K4,1.527938,,,5,1.0
Se4V2K2O14H2,2.43976,,,5,3.0
Bi4Te4I4O12,0.198672,,,5,0.0
Rb4Te4,1.517404,,,5,1.0
Hf2N2Br2,3.152075,,,5,3.0
Os4O4Cl16,2.337935,,,5,2.0
In4Cs8Na12O16,3.444185,,,5,4.0
Nb8Sr4O24,4.322864,,,5,5.0
Rb4Cd4Ge4As8,1.2503669999999991,,,5,1.0
Cu2Rb4Cl4Br4,2.340987,,,5,2.0
Rb2Nb1F6,2.265239,,,5,2.0
Ni2P4,1.378865,,,5,1.0
Ca1Ti4P6O24,4.080989,,,5,5.0
Pd2Tl4C8N8,3.72717,,,5,4.0
Sb16Cs16,1.074472,,,5,1.0
Mn1Br2,4.288202,,,5,5.0
Y8Cl12,1.299074,,,5,1.0
Ba6Bi2N2,1.29263,,,5,1.0
Au4Cl16P4,3.469807,,,5,4.0
Hg2Cr4O8,2.496676,,,5,3.0
Ba4Se8Si2,3.160398,,,5,3.0
Na4O14C8H12,4.200204,,,5,5.0
P16,3.54675,,,5,4.0
Ta1Cu3Te4,1.8420059999999991,,,5,2.0
Cs4Te2S4,2.006284,,,5,2.0
As16S16,2.470675,,,5,3.0
O6Al4,6.710443,,,5,7.0
Cs1Sb1P2O8,4.74049,,,5,5.0
Ni2In1Sb1O6,2.628873,,,5,3.0
Ca4Pb4O12,1.582336,,,5,2.0
Os3P12,2.065064,,,5,2.0
Ir2Cs4Na4O8,2.14307,,,5,2.0
La4Ba4Sb8Se24,1.13567,,,5,1.0
Zn8As16,0.918728,,,5,1.0
Ir2Te14Cl14,2.036809,,,5,2.0
Ba2Ca1Te1O6,4.62327,,,5,5.0
Lu1K1S2,3.354197,,,5,4.0
Pd1I2Cl4Cs2,1.89159,,,5,2.0
V2Cu4Se8K2,1.687282,,,5,2.0
K4Ni1N6O12,3.735505,,,5,4.0
Sn5Zn4S17Cs1K5,2.650871,,,5,3.0
Pb2Pd2O4,1.013272,,,5,1.0
Cs2Ag2Br4,3.329071999999999,,,5,4.0
K2Cu3As4O12,3.194887,,,5,3.0
Y4Fe4O12,3.591186,,,5,4.0
Cs4Cr2F20H8,2.999931,,,5,3.0
Cs8C8,4.313794,,,5,5.0
Zn8P4O20H4,5.176378,,,5,6.0
Rb4Ni6Se8,1.788288,,,5,2.0
Ga2N2,2.9403479999999997,,,5,3.0
Cs6Mg2D10,3.422066,,,5,4.0
Cd4P6Cl2,1.870575,,,5,2.0
Sb16Ga8Rb16,1.536588,,,5,1.0
Ba10Sb8,0.6995939999999999,,,5,0.0
Rb2Na1Rh1F6,4.297385,,,5,5.0
Na4Ge4Zn2S12,3.272574,,,5,4.0
Tl8Ga8Se16,1.886302,,,5,2.0
Zr1O2,4.932145,,,5,6.0
Sc8Pb4S16,2.40895,,,5,3.0