formula,bg,formation_energy,mp-id,fidelity,bg_category
HfU2,0.0,-0.089842,,2,3.0
AlRh2Ac,0.0,-0.0423198999999999,,2,3.0
Ga6PtTh,0.0,-0.0336267,,2,3.0
Al5Re,0.0,-0.0184977,,2,3.0
Zn2LaPt2,0.0,-0.0430587,,2,3.0
O6ZrBa2Hf,3.2803,-0.024638,,2,3.0
SiRhTm,0.0,-0.033069,,2,3.0
F6SrPb,2.6691,-0.0176948,,2,3.0
HNi3Cd,0.0,-0.0164221,,2,3.0
AlLuIr2,0.0,-0.0524259,,2,3.0
F6NbCs2,0.0,-0.0176126,,2,3.0
MgCd2Pu,0.0,-0.0439465,,2,3.0
Na2BaAu2,0.0,-0.03785,,2,3.0
Li3O8Si2Ni2,0.0,-0.0095091,,2,3.0
MnCoRhSn,0.0,-0.0267475,,2,3.0
F6S2Cd3Sn,1.81,-0.0158606,,2,3.0
PRhDy,0.0,-0.032053,,2,3.0
O4Cu2Se2ErBi2,0.0,-0.0290124,,2,3.0
GeNbGd,0.0,-0.0377541999999999,,2,3.0
BeCu4Ho,0.0,-0.0192377,,2,3.0
O8CsTbW2,4.51,-0.025505,,2,3.0
S3K2Hf,1.6607,-0.0197443,,2,3.0
KSn2Pt2,0.0,-0.0446085,,2,3.0
H6Rb2Pt,3.8357,-0.015224,,2,3.0
RhCd2Nd,0.0,-0.0350747,,2,3.0
H3PdHo,0.0,-0.0190437,,2,3.0
Ge2Y2Sn,0.0,-0.0267823999999999,,2,3.0
O6FeBa2Tb,0.2563,-0.0208907999999999,,2,3.0
F6ScAgCs2,3.4982,-0.0174167,,2,3.0
AgTe2Hg,0.0,-0.0435619,,2,3.0
Al4ScTa,0.0,-0.0189967,,2,3.0
LiO6Ca2Te,0.0,-0.0118135,,2,3.0
Al2Ag3Gd,0.0,-0.0283869,,2,3.0
HCl2Y2,0.0,-0.0167002999999999,,2,3.0
AgTe3BaHo,0.5399,-0.0399922,,2,3.0
LaNd3,0.0,-0.0434499,,2,3.0
ZnPa,0.0,-0.0565763,,2,3.0
C2SnHo3,0.0,-0.0343671999999999,,2,3.0
Si2Ti2Mo,0.0,-0.0181249,,2,3.0
Sc2ZrLa,0.0,-0.0255016,,2,3.0
Al3Si2FePu3,0.0,-0.0438153,,2,3.0
MgBa2Ir2,0.0,-0.0454897,,2,3.0
NiPb,0.0,-0.0458784,,2,3.0
H3CaPt,1.158,-0.018725,,2,3.0
Li5O10Ti2Fe3,0.0349,-0.0103793,,2,3.0
Al2Si2Sm,0.0,-0.0163208,,2,3.0
O4PbNp,0.0,-0.0368905,,2,3.0
AlAg2Au,0.0,-0.0351456999999999,,2,3.0
Al7Ni2Tb3,0.0,-0.0195294999999999,,2,3.0
N2Tb7Pb3,0.0,-0.0488752,,2,3.0
RuNd,0.0,-0.039417,,2,3.0
Rh5Pm,0.0,-0.0358066,,2,3.0
NaS3MnNi,0.0,-0.0120714,,2,3.0
TiBr6Cs2,1.4928,-0.0248578,,2,3.0
F4NiSr,0.573,-0.0120032,,2,3.0
CuNbTe2,0.0,-0.0310845999999999,,2,3.0
AlCu2Sr2,0.0,-0.0166994,,2,3.0
CdTe2,0.3758,-0.0352237,,2,3.0
S2RbU,0.0,-0.0373564,,2,3.0
CoInU,0.0,-0.0514124,,2,3.0
SrAuBi2,0.0,-0.0626972,,2,3.0
Sc2SnPt2,0.0,-0.0422325999999999,,2,3.0
F6ZnTb,0.0,-0.0131958,,2,3.0
Cu2SnHf,0.0,-0.0325173,,2,3.0
Ca2Tl2Pb,0.0,-0.0484619,,2,3.0
CaGa2Ho,0.0,-0.0233952999999999,,2,3.0
CaPtBi,0.0,-0.0537514,,2,3.0
ScZn4Os,0.0,-0.0236862,,2,3.0
O6TiFeBa2,0.0,-0.017783,,2,3.0
CuPrPb,0.0,-0.0453873,,2,3.0
Mg2Al2Ag,0.0,-0.0114022,,2,3.0
Te3CsPt2,0.633,-0.0490912,,2,3.0
Rh2CdLu3,0.0,-0.0449221999999999,,2,3.0
Ga2AgHg2,0.0,-0.0399478999999999,,2,3.0
O4Cu3Ba,0.0,-0.0150894999999999,,2,3.0
H8Mg2CaRh,0.0,-0.0071464,,2,3.0
HMn3Os,0.0,-0.0259808,,2,3.0
ZnRh2,0.0,-0.0272179,,2,3.0
Al5DyOs,0.0,-0.0231805,,2,3.0
O7NaP2Ca,0.0,-0.0096613,,2,3.0
FK3Au,0.0,-0.0208344,,2,3.0
Li2Cd2Sn2Ba,0.0,-0.0257642999999999,,2,3.0
Na2FeSe4Sn,0.0,-0.0185923,,2,3.0
N3ZnPr,0.0,-0.0174380999999999,,2,3.0
LiO5Ni4,0.0,-0.0112152,,2,3.0
Cu7Zn,0.0,-0.01502,,2,3.0
NCr2Ga,0.0,-0.0160043,,2,3.0
SrBaPt4,0.0,-0.0579822,,2,3.0
CrRu2,0.0,-0.0292914,,2,3.0
Ga5TbOs,0.0,-0.0291354,,2,3.0
BN2Na2Cs,2.4804,-0.0127167999999999,,2,3.0
NBr2Er2,0.0,-0.0317361,,2,3.0
Se7InBi4,0.0,-0.0410195999999999,,2,3.0
Y2AgPb2,0.0,-0.0482946,,2,3.0
MgCu3Te4,0.0,-0.0251357,,2,3.0
PCl2Se4Ag5,0.7025,-0.0222463,,2,3.0
Zr6RhSn2,0.0,-0.0328389,,2,3.0
F6CsPt,0.0,-0.0180442,,2,3.0
SiCoHf4,0.0,-0.046799,,2,3.0
SrHg2Tl,0.0,-0.0582209,,2,3.0
H5GaBa,2.8701,-0.0107729,,2,3.0
Cu4SmTl,0.164,-0.0297955,,2,3.0
ScCu4Y,0.0,-0.017375,,2,3.0
Al3Ni2Pa3,0.0,-0.044655,,2,3.0
AlCuHfIr,0.0,-0.0400323,,2,3.0
Zn2InDy2,0.0,-0.0317405,,2,3.0
CSnTm3,0.0,-0.0410058,,2,3.0
LiAlAs2Rb2,1.3314,-0.0160787,,2,3.0
Pd2BaPb,0.0,-0.0457886,,2,3.0
NMoTe2Ba,0.0,-0.0321976999999999,,2,3.0
Rh2GdLu,0.0,-0.0463989,,2,3.0
SiScPt,0.0,-0.0328868,,2,3.0
AlCo,0.0,-0.0131696,,2,3.0
GaGeDy,0.0,-0.0284541,,2,3.0
MgCaSn,0.0,-0.0174834,,2,3.0
Cu4Ga2Pr3,0.0,-0.0252271,,2,3.0
H3Sr2I,1.8971,-0.0162669,,2,3.0
KZnSe3Sm,1.8734,-0.0226651,,2,3.0
O2RbAg,1.1278,-0.0169434,,2,3.0
Cd2InHf2,0.0,-0.0440144,,2,3.0
B6MgCo2,0.0,-0.0095358,,2,3.0
Rh2TlPa2,0.0,-0.0685134999999999,,2,3.0
BScCo4,0.0,-0.0153806,,2,3.0
C4CoSm3,0.0,-0.0241778,,2,3.0
CeDyAu2,0.0,-0.0585823,,2,3.0
O8V2YBi,2.6736,-0.0186255,,2,3.0
Si3Ir2,0.0,-0.0350917,,2,3.0
P3Pm,0.0,-0.0191158999999999,,2,3.0
Ca2SrPb2,0.0,-0.0392976,,2,3.0
MgCu2Y3,0.0,-0.0200518,,2,3.0
SiMnU,0.0,-0.0442772,,2,3.0
VCu3Te4,0.529,-0.0267818,,2,3.0
CoRbTe3Th,0.0,-0.0419154,,2,3.0
Sr2Pd3,0.0,-0.0292415,,2,3.0
BAl2PrRe2,0.0,-0.0351834,,2,3.0
CaCuTe3Sm,0.3427,-0.0314429,,2,3.0
Ni2BrTm2,0.0,-0.0319614,,2,3.0
Rh8Cd,0.0,-0.0333333,,2,3.0
Sc3Tc,0.0,-0.0195853,,2,3.0
N3MnPr,0.0,-0.018666,,2,3.0
LiPd2Sb2Er,0.0,-0.0330218,,2,3.0
N3MoTh,0.0,-0.0329339,,2,3.0
Mg2CuY2,0.0,-0.0162999,,2,3.0
Al3Si2Ti3Co,0.0,-0.0126578,,2,3.0
Pd2Te2Ba,0.0,-0.0368421,,2,3.0
PdSn3Ba,0.0,-0.0367194999999999,,2,3.0
F6NaRb2Eu,0.0,-0.0153153,,2,3.0
ScZr,0.0,-0.0224669999999999,,2,3.0
Si2PtTh,0.0,-0.0476509,,2,3.0
SiRu2Tb2,0.0,-0.0353072,,2,3.0
O4Na3As,3.2967,-0.009087,,2,3.0
Co2CdEr2,0.0,-0.0333423,,2,3.0
F6NaK2Lu,6.5001,-0.0133246,,2,3.0
MnISm,0.0,-0.033774,,2,3.0
KTi4Cl11,0.0057,-2.032570901598959,mp-1203502,2,3.0
O4SCeBi2,0.5613,-0.0314871,,2,3.0
Sc2Pd2Tl,0.0,-0.0341171,,2,3.0
LiRh2W,0.0,-0.0351482,,2,3.0
O6Si2CaSn,2.8552,-0.0130259,,2,3.0
GdAu5,0.0,-0.0679605,,2,3.0
O2K2PdCs,0.0,-0.0176813,,2,3.0
CuZr2In,0.0,-0.0278038,,2,3.0
KCr2As2,0.0,-0.0173646,,2,3.0
In2Sb,0.0,-0.0347037,,2,3.0
O3RbBi,1.2284,-0.0247684,,2,3.0
MgCu4Rh,0.0,-0.0166895,,2,3.0
Cl6CuRb2Rh,0.2901,-0.0151624,,2,3.0
ClGa2Sr2,0.0,-0.0182406,,2,3.0
PrSmPb2,0.0,-0.0605524,,2,3.0
O5S2Fe2Sr3Ag2,0.0,-0.017326,,2,3.0
CSi2Tm2Re2,0.0,-0.0400924,,2,3.0
Ag5Au3,0.0,-0.0456171,,2,3.0
Na2Au2Pb,0.0,-0.0448376,,2,3.0
CSi2Mo2Nd,0.0,-0.0243744,,2,3.0
C5Al4Ta2,0.0,-0.0198304,,2,3.0
NiCdTh,0.0,-0.0478185,,2,3.0
Mg2SrCd,0.0,-0.0158174,,2,3.0
H6LiNa2Mn,0.0,-0.005241,,2,3.0
In3Nd3Pt2,0.0,-0.0474124,,2,3.0
Ag3In2,0.0,-0.0321814,,2,3.0
LiRhPu2,0.0,-0.0640285999999999,,2,3.0
K2Pt2Tl,0.0,-0.0460187,,2,3.0
AlCu2Y,0.0,-0.0169605,,2,3.0
ZnCeBi2,0.0,-0.0542785999999999,,2,3.0
O6MoHf2,0.0,-0.0251136,,2,3.0
O6MnZnSr2,0.0,-0.0135512,,2,3.0
PSbEr2,0.0,-0.0385289,,2,3.0
Be2Ti2Os,0.0,-0.0229926999999999,,2,3.0
Al3CoSn2Lu3,0.0,-0.0315699,,2,3.0
CaCoAs2,0.0,-0.017536,,2,3.0
Co2Ni3Pr,0.0,-0.0211288,,2,3.0
O7As2In2Ba,2.9401,-0.0176285999999999,,2,3.0
RhLu6Bi2,0.0,-0.0588294,,2,3.0
Na2BaPb2,0.0,-0.0403896,,2,3.0
Co2Ge2Tb,0.0,-0.0245307,,2,3.0
Y3CdPt2,0.0,-0.0435168,,2,3.0
Y3Ac,0.0,-0.0434404,,2,3.0
NiBr4Cs2,0.5278,-0.0255462999999999,,2,3.0
Si2EuOs,0.0,-0.0370396,,2,3.0
AsPd3,0.0,-0.0300622,,2,3.0
NdGdHg2,0.0,-0.0603549,,2,3.0
Ni5Zn3,0.0,-0.0153184,,2,3.0
AgTmHg2,0.0,-0.0553132,,2,3.0
PFeTa,0.0,-0.0324667,,2,3.0
AlCu2Gd2,0.0,-0.0315252,,2,3.0
CrTe2Tb6,0.0,-0.0421336,,2,3.0
Cu2Zr2Pb,0.0,-0.0338233999999999,,2,3.0
SrBa2Pb2,0.0,-0.0512976,,2,3.0
YPtHg,0.0,-0.0564343999999999,,2,3.0
F4NaTm,6.9193,-0.0156845,,2,3.0
LiZnRhIn,0.0,-0.0212115,,2,3.0
FeSm2Ir2,0.0,-0.0505752,,2,3.0
SiClDy,0.0,-0.0233954,,2,3.0
F6RhLa,1.8603,-0.0153131,,2,3.0
Sc6FeSn2,0.0,-0.0199393,,2,3.0
O8Ce3Tb,0.0,-0.0227592,,2,3.0
CuZnEr,0.0,-0.0267592,,2,3.0
Pd5Dy3,0.0,-0.0393074,,2,3.0
CoSn2Pr6,0.0,-0.0392183,,2,3.0
RuSnU,0.0,-0.0582289999999999,,2,3.0
RhPd2Sn,0.0,-0.0341396,,2,3.0
O4CuAsTl2,1.1976,-0.0266752,,2,3.0
Al5ScCr,0.0,-0.0104832,,2,3.0
TbTmHg2,0.0,-0.0594354999999999,,2,3.0
Ni2SrSn2,0.0,-0.0257227,,2,3.0
GaNbTc2,0.0,-0.0301904,,2,3.0
Zn2Cd2Cs,0.0,-0.0250507,,2,3.0
O5Ti2Te2Gd2,0.0,-0.026066,,2,3.0
Al2Cu2Er,0.0,-0.0197354,,2,3.0
Zn3Ag2Ce,0.0,-0.0248794,,2,3.0
SiSe4Hg2,0.7873,-0.0327102,,2,3.0
N2Pr7Tl3,0.0,-0.0458149999999999,,2,3.0
P2Co2Lu,0.0,-0.0231776,,2,3.0
H2Zr2Tl,0.0,-0.0286057999999999,,2,3.0
BaHg2Bi,0.0,-0.064209,,2,3.0
Si4Co4Zr3,0.0,-0.0190809,,2,3.0
Ag2LaHg,0.0,-0.0438523,,2,3.0
SiSe3Dy4,0.0,-0.034439,,2,3.0
Cu2GaLu2,0.0,-0.0319809,,2,3.0
AsSe3Tm4,0.0,-0.0378212,,2,3.0
S4ScCu4,0.0,-0.0132912999999999,,2,3.0
Ni2Dy4Tl5,0.0,-0.0536794,,2,3.0
K2AgHg,0.0,-0.0292093,,2,3.0
LiGe2La2,0.0,-0.0261517,,2,3.0
Br2ICs,2.0802,-0.0294068,,2,3.0
Mg2ZnCd,0.0,-0.0136207,,2,3.0
B2O6BaDy,0.0,-0.0169223,,2,3.0
Sr2CsBi2,0.0,-0.0486738,,2,3.0
TcAgPt2,0.0,-0.0518714,,2,3.0
AlP2In,1.5624,-0.016009,,2,3.0
Al3Ti2Au,0.0,-0.0213654,,2,3.0
CTi2Te2,0.0,-0.0240734,,2,3.0
SiITb,0.0,-0.0322607,,2,3.0
Au5U,0.0,-0.0750995,,2,3.0
Ge2Y3RuIn3,0.0,-0.0292729,,2,3.0
Pd2In3Eu,0.0,-0.0371546,,2,3.0
O8P2K2CsHo,5.0381,-0.0153152,,2,3.0
NdPmTl2,0.0,-0.0586734999999999,,2,3.0
LiSm2Os,0.0,-0.0410240999999999,,2,3.0
RuSb2Lu,0.0,-0.0418534999999999,,2,3.0
ScTl7,0.0,-0.0651445,,2,3.0
B4O7Pb,4.1671,-0.0148768999999999,,2,3.0
Ag4CdLa,0.0,-0.0334205,,2,3.0
Ge3Au2,0.0,-0.0391397,,2,3.0
Ge2PbTh2,0.0,-0.0617175,,2,3.0
MgDy2Au2,0.0,-0.0487518,,2,3.0
O4DyTm,1.022,-0.0238882,,2,3.0
NiIHo,0.0,-0.034914,,2,3.0
ZnSb2,0.0,-0.0292603,,2,3.0
P2Rb2SrCd,0.6108,-0.0198196,,2,3.0
Zn2ZrPd2,0.0,-0.0251947,,2,3.0
Sn2Dy2Pb,0.0,-0.0492813,,2,3.0
F6AlIn2,0.0,-0.0135331,,2,3.0
Na2Sb2Cs,0.0,-0.0246043,,2,3.0
BMg2Pt6,0.0,-0.049477,,2,3.0
BCo4,0.0,-0.0153716,,2,3.0
C4NiTm3,0.0,-0.026919,,2,3.0
RuSm3Pt2,0.0,-0.0524045,,2,3.0
CoNiSe4,0.0,-0.0192036,,2,3.0
GePdPt,0.0,-0.0412316,,2,3.0
Ti,0.0,-0.0160288,,2,3.0
Fe2GaTa,0.0,-0.0300928,,2,3.0
Na2MgSiSe4,2.3533,-0.0140482,,2,3.0
BNi2La,0.0,-0.0210882,,2,3.0
Al2AgPr,0.0,-0.0230383,,2,3.0
O2Rb2Rh,0.0,-0.0186514,,2,3.0
Sc2Os,0.0,-0.0339894,,2,3.0
F6GaTb,6.6536,-0.0141112,,2,3.0
CaCdAu,0.0,-0.0371771,,2,3.0
Pd2InTm,0.0,-0.0386068,,2,3.0
CaCu2Ga5,0.0,-0.0155465,,2,3.0
H9N3Cl3In,4.1223,-0.0079746,,2,3.0
S2AgLa,1.3646,-0.0250215999999999,,2,3.0
PInPt5,0.0,-0.056885,,2,3.0
Br3AuTl,0.0,-0.0404213,,2,3.0
Br3Te,2.0353,-0.0242411999999999,,2,3.0
CoDy2Ir2,0.0,-0.0518372999999999,,2,3.0
In3Pt2,0.0,-0.0486956,,2,3.0
BeNi3,0.0,-0.0134172999999999,,2,3.0
Cl6Br2SbI3,0.9439,-0.0199362,,2,3.0
NFSr2,1.5212,-0.0164157,,2,3.0
Si3ZrPd,0.0,-0.0192667,,2,3.0
F6ScRb2,0.0,-0.0117096,,2,3.0
Cl6K2CuTb,2.4023,-0.0146054999999999,,2,3.0
O5Cu2BaNd,0.0,-0.0181555,,2,3.0
MnNi2Ac,0.0,-0.0355107,,2,3.0
ClKBr2,1.9857,-0.0148589,,2,3.0
Al2ILa2,0.0,-0.0286007,,2,3.0
Ca2SrI6,3.5328,-0.0308991,,2,3.0
Si2CePt,0.0,-0.0348335,,2,3.0
Cu4GdPb,0.0,-0.0326851,,2,3.0
LiSK,3.1412,-0.0082108,,2,3.0
MoWIr2,0.0,-0.0620827,,2,3.0
Br6Rb2Pa,0.4317,-0.0304536,,2,3.0
YPd2La,0.0,-0.0349964,,2,3.0
AlScZr,0.0,-0.0178787999999999,,2,3.0
Si2SmRe,0.0,-0.0344748,,2,3.0
AgCs3Pt,0.2132,-0.0429377,,2,3.0
KSbTl,0.0,-0.0396052,,2,3.0
N2La2Pt,0.0,-0.0364973,,2,3.0
Tc7Rh,0.0,-0.0348942,,2,3.0
O8Pd3PtBi2,0.0,-0.0276915,,2,3.0
O6NaScSbLa,3.6685,-0.0164719,,2,3.0
P2Cu2CsTb,0.0,-0.0234445,,2,3.0
PLa2Au,0.0,-0.0427629999999999,,2,3.0
Li2Mg2CaSn2,0.0,-0.0142224,,2,3.0
O4TmLu,0.539,-0.0251776,,2,3.0
LiPdIn2,0.0,-0.0259976,,2,3.0
Pt2Pb3,0.0,-0.0737679,,2,3.0
O4AlAs,1.3565,-0.0110138,,2,3.0
Zn2PdIn,0.0,-0.0235562,,2,3.0
TeHg2Tl2,0.0,-0.063774,,2,3.0
Co2GaNp,0.0,-0.0394988999999999,,2,3.0
AuPb2,0.0,-0.0736501,,2,3.0
CSi2TbW2,0.0,-0.0363782,,2,3.0
SiCoDy,0.0,-0.025758,,2,3.0
N2PrPu,0.0,-0.0444093999999999,,2,3.0
C3Al2Th2,0.0,-0.0343597,,2,3.0
P4Fe,0.823,-0.012348,,2,3.0
PrNd3,0.0,-0.0435084,,2,3.0
LiSiZn,0.0,-0.008751,,2,3.0
SbBaTl,0.6771,-0.0505117,,2,3.0
Mg2CoCe,0.0,-0.0180477,,2,3.0
O6CdLa2Pt,1.8189,-0.0248088,,2,3.0
MgSm2Ir2,0.0,-0.0480463999999999,,2,3.0
OCuSeSm,1.3981,-0.0236484,,2,3.0
O4ScTa,4.0784,-0.021097,,2,3.0
CaScZn2,0.0,-0.0130537,,2,3.0
O8MgP2Ba,0.0,-0.0121347,,2,3.0
S4TiHf,0.1258,-0.0211323,,2,3.0
O6Sr2YNb,3.1794,-0.0176413,,2,3.0
Co4Ir5,0.0,-0.0470951,,2,3.0
CTa,0.0,-0.0389318,,2,3.0
SbLa2Au2,0.0,-0.0534756,,2,3.0
KAsAu,0.0,-0.0330808999999999,,2,3.0
TcIn,0.0,-0.0342793,,2,3.0
GaInBi2,0.0,-0.0517443999999999,,2,3.0
H6LiNa2In,0.7914,-0.0066033,,2,3.0
Si3OsU,0.0,-0.0414209,,2,3.0
Co3Ga2La,0.0,-0.0215392,,2,3.0
NiPdPu2,0.0,-0.0672399,,2,3.0
Si3Ba,0.0,-0.0175479999999999,,2,3.0
F3Er,7.9236,-0.0197059,,2,3.0
O3PrTm,3.5431,-0.0265559,,2,3.0
Rh2In5Hf4,0.0,-0.0446656,,2,3.0
Fe3Ta,0.0,-0.030345,,2,3.0
B4CTb2,0.0,-0.0196928,,2,3.0
TiCrSe4,0.0,-0.0200662,,2,3.0
LiZnHg,0.0,-0.0282786,,2,3.0
YPd4Cd,0.0,-0.032261,,2,3.0
Ni2Zn3Y,0.0,-0.0172242999999999,,2,3.0
AlBa2Ir,0.0,-0.0399337,,2,3.0
SiRu2Dy2,0.0,-0.0357399,,2,3.0
RuIn3Ba,0.0,-0.0352924,,2,3.0
AsSrPt,0.0,-0.0387715,,2,3.0
H16B6Cr,0.5831,-0.0052141999999999,,2,3.0
MnSe4Zr2,0.0,-0.0242094,,2,3.0
C2UPu,0.0,-0.0584508,,2,3.0
GaRhSm,0.0,-0.0324637,,2,3.0
S2Ni3Bi2,0.0,-0.0324259,,2,3.0
NCa3Au,0.0,-0.022407,,2,3.0
O6ZrCe2,1.8655,-0.0212053,,2,3.0
Na2GaIn2,0.0,-0.0184472,,2,3.0
F8SrTb2,7.12,-0.0174749,,2,3.0
ZnCd2Au2,0.0,-0.0427246,,2,3.0
Ni2Ge4Pt,0.0,-0.0259345,,2,3.0
O4AgIr,0.0,-0.0217068,,2,3.0
LiTe6Hf3,0.0,-0.0422807,,2,3.0
NdTl2,0.0,-0.0632665999999999,,2,3.0
O2GaSn,0.0,-0.017696,,2,3.0
O6MgBa2Ta,0.0,-0.0218067999999999,,2,3.0
AlInHo,0.0,-0.0305572,,2,3.0
FeSe3HfTl,0.0,-0.0364253,,2,3.0
P2KNi2,0.0,-0.0128773999999999,,2,3.0
CSi2Co2Ho2,0.0,-0.0239239,,2,3.0
S4Bi3,0.0,-0.039374,,2,3.0
Sb2La6Au,0.0,-0.045596,,2,3.0
SeRuLa2,0.0,-0.0364597,,2,3.0
Zn2PdPr,0.0,-0.0264024,,2,3.0
Al3CuGe2Ho3,0.0,-0.0255813999999999,,2,3.0
HZr3Cd,0.0,-0.0255028,,2,3.0
Li2MgPd,0.0,-0.0109924,,2,3.0
AlCrMo,0.0,-0.0204926,,2,3.0
Ga6PdEr,0.0,-0.0231247,,2,3.0
Ni3YAu2,0.0,-0.0361888,,2,3.0
LiP2SrRh2,0.0,-0.0198377,,2,3.0
ZnTb2,0.0,-0.0359745,,2,3.0
F11Sb2I2,0.0,-0.0144721,,2,3.0
S4BaAu2Pb,0.0514,-0.0372370999999999,,2,3.0
KBa2Pt,0.0,-0.0399438,,2,3.0
K2TlPb,0.0,-0.0414540999999999,,2,3.0
SAsPr,0.1182,-0.0261665999999999,,2,3.0
YAg4,0.0,-0.0309027999999999,,2,3.0
O6Mn3Te,0.0,-0.0146766,,2,3.0
O8P2CaEu,0.0,-0.0139368,,2,3.0
CdIn2Dy2,0.0,-0.0390847,,2,3.0
Cu2Tb3Hg,0.0,-0.0402238,,2,3.0
O3NaKRu,0.3705,-0.0124736999999999,,2,3.0
O7PGa3,3.3923,-0.0115909,,2,3.0
OBr4NbTl,0.9609,-0.0283991,,2,3.0
C2La,0.0,-0.0214055,,2,3.0
YIr3,0.0,-0.0610162,,2,3.0
FeIr5,0.0,-0.062357,,2,3.0
SePd,0.0,-0.0268115999999999,,2,3.0
MnSe2Tm6,0.0,-0.0418227,,2,3.0
P5Y,0.0276,-0.0139528,,2,3.0
CrFeCoGa,0.0,-0.0176671,,2,3.0
Ca2CuSr,0.0,-0.0141778999999999,,2,3.0
NiTeBa2,0.0,-0.0337783,,2,3.0
MgGa2Np,0.0,-0.0363062,,2,3.0
O6GaSr2Sb,1.559,-0.0160264,,2,3.0
In2HoPu,0.0,-0.0567205999999999,,2,3.0
RuLa2Pb,0.0,-0.0497448,,2,3.0
ZnPd4,0.0,-0.0291272,,2,3.0
O4NbIr,0.7216,-0.0233917,,2,3.0
MnRh2Au,0.0,-0.0389742999999999,,2,3.0
MnI6Cs2,0.0,-0.0359540999999999,,2,3.0
Co2GePr2,0.0,-0.0283129999999999,,2,3.0
F8SmDy2,0.0,-0.0194783,,2,3.0
B4TiMo,0.0,-0.0141384,,2,3.0
MnZr2Tc,0.0,-0.0289549,,2,3.0
LiOF11V4,0.0,-0.0100626,,2,3.0
KCuPb2,0.0,-0.0439061,,2,3.0
Zn2ZrHf2,0.0,-0.0368005,,2,3.0
Cr3Mn4,0.0,-0.0181976,,2,3.0
LiErPt2,0.0,-0.0493515,,2,3.0
RhTa2W,0.0,-0.059475,,2,3.0
Co2CuSe4,0.0,-0.0188586,,2,3.0
BeZr2In,0.0,-0.0250337,,2,3.0
Se2Rb2Rh,0.0,-0.0239742,,2,3.0
Sb2Tm,0.0,-0.0428585,,2,3.0
Si2Zn2Pa,0.0,-0.029539,,2,3.0
MgSr2Ir2,0.0,-0.0386985,,2,3.0
F2Cl2Hg,0.3841,-0.0189636,,2,3.0
In3Sn2Tb3Pt,0.0,-0.0433252,,2,3.0
Ge3RuCe,0.0,-0.0280202,,2,3.0
AsSe4Br2Ag5,0.3195,-0.0248902,,2,3.0
Ti2CuZn,0.0,-0.0153934,,2,3.0
Al6NiNd,0.0,-0.0137339,,2,3.0
Te2TbEr,0.0,-0.0442648999999999,,2,3.0
HGeSrIn,0.5388,-0.0200226,,2,3.0
Te4HgTl2Pb,0.0,-0.0548694,,2,3.0
Os2HgTh3,0.0,-0.0835697,,2,3.0
MnZr2Au,0.0,-0.0376328,,2,3.0
CaCu4La,0.0,-0.0190078999999999,,2,3.0
MnI2,0.8078,-0.0313667,,2,3.0
Fe2Zn,0.0,-0.0166102999999999,,2,3.0
O3CaSb,1.5375,-0.0153265,,2,3.0
KZrTe3Au,0.0,-0.0375664,,2,3.0
Si3CuTh2,0.0,-0.0401655999999999,,2,3.0
F6GaPu,0.0,-0.0216384,,2,3.0
O4BrPrBi2,1.0324,-0.0326113,,2,3.0
Ge2Sm2Tl,0.0,-0.04067,,2,3.0
AlScPt,0.0,-0.0321361,,2,3.0
Si4FeAs4,0.8273,-0.0155436,,2,3.0
O4CaAsAg,1.177,-0.0141426,,2,3.0
MgNiPd2,0.0,-0.0220339999999999,,2,3.0
H3C3O6Nd,4.0016,-0.0109198,,2,3.0
Pd2CdSm2,0.0,-0.0378152,,2,3.0
Sr2AgIn,0.0,-0.0277271,,2,3.0
Ni2MoIr,0.0,-0.0347733,,2,3.0
SiVOs2,0.0,-0.0433359,,2,3.0
Pd2SbHo,0.0,-0.0388997,,2,3.0
HAlInEu,0.0,-0.0250197,,2,3.0
NaSe6Nb3,0.0,-0.0233175999999999,,2,3.0
RuPdDy2,0.0,-0.0415396,,2,3.0
HTeTh,0.0,-0.0464869,,2,3.0
Li2O6TiV2,0.0,-0.0111376,,2,3.0
Al3Sc3MnSn2,0.0,-0.0178843,,2,3.0
LiO4ClFeMo,0.0,-0.0129794,,2,3.0
Se2ZrPb,0.0,-0.0377478,,2,3.0
H8Mg2CaOs,2.6574,-0.0104149999999999,,2,3.0
Ca2FeIr2,0.0,-0.0363541999999999,,2,3.0
O6CrBa2Pu,0.0,-0.0275117,,2,3.0
CCl2Pu2,0.0,-0.0503266,,2,3.0
CFe2Ge2Hf2,0.0,-0.0304426,,2,3.0
O7Ga2Sb2Ba,3.1761,-0.01787,,2,3.0
FeAs2Nb,0.0,-0.0233286,,2,3.0
Ti2Ni2Hg,0.0,-0.0269152,,2,3.0
O4AlTa,4.061,-0.0197456,,2,3.0
H11B5,4.4135,-0.0047541,,2,3.0
CaAg4La,0.0,-0.0299472,,2,3.0
O8Ti3Sn,2.3609,-0.0140806,,2,3.0
O8Mn4Fe,0.0,-0.0128012,,2,3.0
O6K3Se2Rb,4.3667,-0.0118899,,2,3.0
CePb,0.0,-0.0608233,,2,3.0
Se3Ag5,0.0,-0.0271161,,2,3.0
Sn2NdPt,0.0,-0.0473483,,2,3.0
O3Cr,2.0628,-0.0109386,,2,3.0
CPV2,0.0,-0.0146288,,2,3.0
Si2Ga3Ce3Os,0.0,-0.0311344,,2,3.0
LiCl6K2Np,0.078,-0.0194062,,2,3.0
Sm2PtAu,0.0,-0.058222,,2,3.0
Se3AgCsHf,0.5614,-0.0332357999999999,,2,3.0
Ag2InHf,0.0,-0.039758,,2,3.0
O2IBaBi,2.8247,-0.0353629,,2,3.0
C2CrTb,0.0,-0.0215915,,2,3.0
Mg4YLa,0.0,-0.0152743,,2,3.0
Zn2Zr4In5,0.0,-0.0292245,,2,3.0
Gd2Os,0.0,-0.0633888,,2,3.0
AgSbAu,0.0,-0.0460241,,2,3.0
LiSc2In2,0.0,-0.0199442999999999,,2,3.0
H2O6SMn2,1.4417,-0.0098986,,2,3.0
O12Nb4Nd,0.0,-0.0175055,,2,3.0
SiMnSm,0.0,-0.0248489,,2,3.0
ScNiPt2,0.0,-0.0437252999999999,,2,3.0
PdSbCe,0.0,-0.0393542,,2,3.0
B2Co3Nb,0.0,-0.0169892,,2,3.0
NaBa3,0.0,-0.0306641,,2,3.0
TeCsAu,1.0091,-0.0489207,,2,3.0
Be2PBr,2.0063,-0.010169,,2,3.0
O6CdBa2Ir,0.02,-0.0237094,,2,3.0
Gd,0.0,-0.0588151,,2,3.0
Ga2Y2Pd,0.0,-0.0250891,,2,3.0
MnSbPt5,0.0,-0.0585754,,2,3.0
H2Mn2Re,0.0,-0.0229229,,2,3.0
CaEuPb2,0.0,-0.0544773,,2,3.0
Pd2AuPu,0.0,-0.0615713,,2,3.0
ScAs2Y,0.0,-0.0222545,,2,3.0
Si2ClIr,0.0,-0.0252166,,2,3.0
RuRh4,0.0,-0.0339673,,2,3.0
O4AsTl3,2.3559,-0.0339386,,2,3.0
LiMnGePt,0.0,-0.0282024,,2,3.0
Co3RuLu2,0.0,-0.0331493,,2,3.0
S2CuIr,0.8557,-0.0267494,,2,3.0
AlFe5,0.0,-0.016542,,2,3.0
SbTe3Nd4,0.0,-0.0419623,,2,3.0
Al8Cu4Pr,0.0,-0.0131645,,2,3.0
Si2DyPt,0.0,-0.0356381999999999,,2,3.0
In2CsHg2,0.0,-0.0483921,,2,3.0
ZnAg2Er,0.0,-0.0319015,,2,3.0
B2ScNi2,0.0,-0.0129168,,2,3.0
Al5Ti4Mn2,0.0,-0.0129768,,2,3.0
O2SeCe2,0.0,-0.0276094,,2,3.0
Ni2IEr2,0.0,-0.0346925,,2,3.0
OINd,3.5436,-0.031805,,2,3.0
MgTc5,0.0,-0.0299752,,2,3.0
AlGeRe,0.0976,-0.032992,,2,3.0
H7F12Sb,5.0515,-0.0070203,,2,3.0
TaAu2Hg,0.0,-0.0683434,,2,3.0
ORhHf3,0.0,-0.0472005,,2,3.0
Ga2Ag2Tm,0.0,-0.0297947,,2,3.0
LiMgGeRu,0.0,-0.0156278,,2,3.0
LiF6GaPd,0.8606,-0.0105164,,2,3.0
LiSiCa,0.0,-0.007697,,2,3.0
Co4Pt,0.0,-0.0279396,,2,3.0
Co4Rh5,0.0,-0.0263844999999999,,2,3.0
S3KZnPr,2.3047,-0.017355,,2,3.0
Sm2IrAu,0.0,-0.058209,,2,3.0
LiNBa3,0.0,-0.0264017,,2,3.0
AlAg2In,0.0,-0.0259843,,2,3.0
In2LuTh,0.0,-0.0548851999999999,,2,3.0
MgSc2Ge2,0.0,-0.0150963,,2,3.0
O4SmHo,1.9747,-0.0228155,,2,3.0
Ga2LuAc,0.0,-0.0451349999999999,,2,3.0
PCrPt5,0.0,-0.0547178,,2,3.0
Se3Ac2,2.6159,-0.0504772,,2,3.0
Al3Ru2La3,0.0,-0.0282822,,2,3.0
O6FeTa2,0.0,-0.0236680999999999,,2,3.0
In2Hg3,0.0,-0.0542501,,2,3.0
Si2Hf2Ir,0.0,-0.0443615,,2,3.0
Ni4GaEr,0.0,-0.0223256,,2,3.0
B4DyTa,0.0,-0.024725,,2,3.0
Ge2Y2Ir,0.0,-0.0340341,,2,3.0
O8AlTi3Rb,2.5807,-0.0129269,,2,3.0
Ti3In3Au2,0.0,-0.0362505,,2,3.0
Ca3Co4Ge4,0.0,-0.0163362,,2,3.0
S2Cu2Sr,0.8927,-0.0154224,,2,3.0
Co2SnTb2,0.0,-0.0332276,,2,3.0
O6KCoI,0.0,-0.012036,,2,3.0
Zr2CdIr2,0.0,-0.0476267,,2,3.0
BNU,0.0,-0.0411463,,2,3.0
AlRh2Gd2,0.0,-0.0395357,,2,3.0
Si2Ti2Re,0.0,-0.0253813,,2,3.0
O6Sr2PrW,0.0,-0.022455,,2,3.0
Ni2Sn5Tm4,0.0,-0.0387612,,2,3.0
OCdSbNd,0.5734,-0.0311777,,2,3.0
Co2TlPu2,0.0,-0.0653101,,2,3.0
AlCu2Dy,0.0,-0.0219403,,2,3.0
F6KRh,0.0,-0.0099248999999999,,2,3.0
O6Rb5Mo,0.0,-0.0163927,,2,3.0
RbCd4Sb3,0.0,-0.032005,,2,3.0
H5GaSr,3.2702,-0.0082773,,2,3.0
RhCd2Er,0.0,-0.0367573,,2,3.0
MgKIn2,0.0,-0.020215,,2,3.0
Ga2Zr2Ag,0.0,-0.0256598,,2,3.0
Li4CdBa,0.0,-0.0133431,,2,3.0
NiPr3,0.0,-0.0366697,,2,3.0
O4GeEu,0.0,-0.0183701,,2,3.0
Sb2Cs3Pt3,0.0,-0.0501705,,2,3.0
Mg2Si2Zn,0.0,-0.0087162,,2,3.0
P2Rb2CdBa,0.1113,-0.0226837,,2,3.0
O3CoPb,0.0,-0.0235095,,2,3.0
S2ScCu,0.7618,-0.0136511,,2,3.0
BeW,0.0,-0.0372045,,2,3.0
CrNiIr2,0.0,-0.0443922,,2,3.0
PS4AuTl2,0.8726,-0.0332742,,2,3.0
Ni4TbAu,0.0,-0.0304798,,2,3.0
Mg3Ag4,0.0,-0.020232,,2,3.0
OAsRuNd,0.0,-0.0282784,,2,3.0
MnCdPt2,0.0,-0.0478547,,2,3.0
CoRbI3,0.0,-0.0303721,,2,3.0
OSc3Nb,0.0,-0.0176205,,2,3.0
LuPt4Hg,0.0,-0.0681897,,2,3.0
O6CoSrBaW,0.0,-0.0211704,,2,3.0
Si2Sc3CuGa3,0.0,-0.0147546999999999,,2,3.0
PRe3,0.0,-0.0560329,,2,3.0