formula,bg,formation_energy,mp-id,fidelity,bg_category
Na2Pd,0.0,-0.01383,,2,3.0
NiLu3Pt2,0.0,-0.0549594,,2,3.0
In2Te5Bi2,0.0,-0.0457586,,2,3.0
CaRh,0.0,-0.0220621,,2,3.0
O8CoMo2Cs,0.9004,-0.0165976,,2,3.0
NiSbLu,0.2188,-0.0372758,,2,3.0
ErTmPb2,0.0,-0.0640409,,2,3.0
Mn2Ni3Pr,0.0,-0.0216967,,2,3.0
Ge2As2Sr,0.0,-0.0206114999999999,,2,3.0
H2Ru2Re,0.0,-0.0294596,,2,3.0
Si2In3Pr3Ir,0.0,-0.0364337,,2,3.0
Li4Au5,0.0,-0.0399834,,2,3.0
Se2PdCs,0.0,-0.0284336,,2,3.0
Na2Si2Sr,0.0,-0.0103121,,2,3.0
SiCoRu2,0.0,-0.0245577,,2,3.0
Rh2SnHo2,0.0,-0.0412713,,2,3.0
P2Mn2Sm,0.0,-0.0213159999999999,,2,3.0
Sn2LaIr2,0.0,-0.0521558,,2,3.0
Cs2Pt,1.3374,-0.0487231,,2,3.0
S3KCuY,0.0,-0.0148423,,2,3.0
GaIn2Te4Tl,0.0,-0.0383791,,2,3.0
Si2YRu,0.0,-0.0215936999999999,,2,3.0
Sn2HoPu,0.0,-0.0581994,,2,3.0
P4Zn,0.0,-0.0111448,,2,3.0
Ta5Au,0.0,-0.0670947,,2,3.0
B3CoNb,0.0,-0.0150686999999999,,2,3.0
IHg2Tl2,0.0,-0.0637385999999999,,2,3.0
H6ZnSr2,0.8547,-0.009189,,2,3.0
Cl2BrTl,1.9337,-0.0275338,,2,3.0
CuRh2In,0.0,-0.0292027,,2,3.0
F6CdTb,0.0,-0.0152877,,2,3.0
Si2Ga3Ho3Os,0.0,-0.0327199,,2,3.0
RuOs2,0.0,-0.0595478,,2,3.0
O3NaTiCs,3.3837,-0.0154474,,2,3.0
BRh2,0.0,-0.025331,,2,3.0
O4AlW,1.0693,-0.019748,,2,3.0
Cl6K2AgTm,3.3699,-0.0167674999999999,,2,3.0
B2TbIr3,0.0,-0.0466434,,2,3.0
Ni2Zn3Th,0.0,-0.0285186999999999,,2,3.0
F6NaPd,0.0,-0.0089441,,2,3.0
LiZn2Cd,0.0,-0.0151185,,2,3.0
Al3Ge2Zr3Au,0.0,-0.0254695,,2,3.0
SiCu2Pa,0.0,-0.0352141,,2,3.0
MnNi2In,0.0,-0.0212352,,2,3.0
AsTeIr,0.7321,-0.0434207,,2,3.0
AgSnGd,0.0,-0.0427021999999999,,2,3.0
LiNSr3,0.0,-0.0161025999999999,,2,3.0
CuPd2La3,0.0,-0.0356048,,2,3.0
MgSe2Sn,0.2867,-0.021096,,2,3.0
Ge2PdNd3Tl3,0.0,-0.0472130999999999,,2,3.0
NiTcHf2,0.0,-0.0447109,,2,3.0
OK3Hg,0.0,-0.0206288,,2,3.0
B2CoTc2,0.0,-0.0207755,,2,3.0
P2Ru2Hf,0.0,-0.0314865,,2,3.0
ZnInGd,0.0,-0.0357914,,2,3.0
Na2Ge2Sr,0.0,-0.0141017,,2,3.0
Al3Si2Ce2,0.0,-0.0193997,,2,3.0
Sr3RhCd,0.0,-0.02639,,2,3.0
MoTaW2,0.0,-0.0603365,,2,3.0
SiLaPt2,0.0,-0.0495967,,2,3.0
H7O7TeHg,2.5883,-0.0117936999999999,,2,3.0
CSi2Mo2Nd2,0.0,-0.0272928,,2,3.0
LiF6IrTl2,1.7522,-0.0259577,,2,3.0
NInBa2,0.0,-0.030964,,2,3.0
F6ZnTl,0.0,-0.015183,,2,3.0
F4ICs,3.0236,-0.0168155,,2,3.0
F6AlTi,0.0,-0.0092982,,2,3.0
SrSnIr,0.0,-0.0436804,,2,3.0
Ca2AgSb,0.0,-0.0227235,,2,3.0
NdErTl2,0.0,-0.0602036,,2,3.0
Mg2PdBa,0.0,-0.0210517,,2,3.0
CoGe2In3Ho3,0.0,-0.034265,,2,3.0
Li2Sb2Hg,0.0,-0.0297882,,2,3.0
LiF2Ag,1.6237,-0.0123191,,2,3.0
MgPt2Au,0.0,-0.0542268,,2,3.0
Ag2Au2Hg,0.0,-0.053834,,2,3.0
Ti2Cu2Sn,0.0,-0.0199116,,2,3.0
KAsPt,0.0,-0.0334897,,2,3.0
Al2Ge4Ho3,0.0,-0.0271622999999999,,2,3.0
ScPd2,0.0,-0.0274472999999999,,2,3.0
HO3SK,4.7694,-0.0082487,,2,3.0
O4SCe,1.1797,-0.0156773,,2,3.0
Li2Sr2Hg,0.0,-0.0237424,,2,3.0
B2N3Ce3Os2,0.0,-0.0332,,2,3.0
LiBr6InTl2,1.658,-0.0307697,,2,3.0
Pd2Cd2Sb,0.0,-0.0330374,,2,3.0
CrCoIr,0.0,-0.0356760999999999,,2,3.0
NNd2Bi,0.0,-0.0451434,,2,3.0
Co3Ga2Th,0.0,-0.0303656,,2,3.0
KZnTe3Tm,1.1954,-0.0320735,,2,3.0
As3Eu,0.0,-0.0292831,,2,3.0
LiCu2F7,0.2837,-1.916863630666666,mp-2759992,2,3.0
NiGe3Ba,0.0,-0.0230615999999999,,2,3.0
Al3Ge2Dy3Pt,0.0,-0.031596,,2,3.0
Si2RhTm,0.0,-0.0273976,,2,3.0
H2O4Sn2Ba,1.9018,-0.0176052,,2,3.0
SrAgHg2,0.0,-0.0479341999999999,,2,3.0
Ru3Te8,0.0,-0.036848,,2,3.0
Li2P2Ti,0.0,-0.0092015999999999,,2,3.0
GeBr2Nd2,0.0,-0.0306689,,2,3.0
F6RhEu,0.0,-0.0163555,,2,3.0
Ge2Th,0.0,-0.0453362,,2,3.0
O3SbAu,0.0,-0.0259819,,2,3.0
GeSm2Pt3,0.0,-0.0543078,,2,3.0
F2Y2Ru,0.0,-0.0220254,,2,3.0
AlMnPa,0.0,-0.0422601,,2,3.0
Si2Rh3Ba,0.0,-0.0276915,,2,3.0
BeCu2Ga,0.0,-0.0128959,,2,3.0
NbRu2Dy,0.0,-0.0380486,,2,3.0
PCrTb,0.0,-0.0260725,,2,3.0
SiRhPt,0.0,-0.0389773,,2,3.0
AlRhGd,0.0,-0.0343947999999999,,2,3.0
YBaAu2,0.0,-0.0523797,,2,3.0
CV3Ge,0.0,-0.0168872,,2,3.0
GeGd,0.0,-0.0398601,,2,3.0
CaBaAu,0.0,-0.0400853,,2,3.0
Si2Os2Th,0.0,-0.0527797,,2,3.0
KBr3Sr,3.9378,-0.0199147,,2,3.0
As2Rh2Nd,0.0,-0.0313983,,2,3.0
ZnAg2Au,0.0,-0.036459,,2,3.0
MoTa2W,0.0,-0.0595969,,2,3.0
H2RbCdIn,0.0,-0.0184294,,2,3.0
CaNi2Ac,0.0,-0.0331259,,2,3.0
CaGa2Pd2,0.0,-0.0223855,,2,3.0
CeHo3,0.0,-0.0478305999999999,,2,3.0
O8Rb3Ta,3.1339,-0.0164683999999999,,2,3.0
KInAu2,0.0,-0.045381,,2,3.0
PNiY2,0.0,-0.0216425,,2,3.0
NiRh8,0.0,-0.031778,,2,3.0
ScIn2Pb,0.0,-0.0395413,,2,3.0
Al6Si2Rh,0.0,-0.0114521,,2,3.0
Cu4GaHf,0.0,-0.023466,,2,3.0
NaCdPb2,0.0,-0.0466991,,2,3.0
Li2MnRh,0.0,-0.0144284,,2,3.0
CaPtTl2,0.0,-0.0566898,,2,3.0
B2Rh3Dy,0.0,-0.028166,,2,3.0
O4ErTm,0.4042,-0.0243125,,2,3.0
Be2YPt2,0.0,-0.0364763,,2,3.0
SiTiRh2,0.0,-0.0244136,,2,3.0
MgCu4Tl,0.0,-0.023029,,2,3.0
B4Fe2Mo,0.0,-0.0147289,,2,3.0
Ga3La3Ir2,0.0,-0.040892,,2,3.0
SiPdHf,0.0,-0.036166,,2,3.0
AgLa2Au2,0.0,-0.052023,,2,3.0
ZnSn2,0.0,-0.0283356,,2,3.0
Ni4YHg,0.0,-0.0270966,,2,3.0
As2Rh2Np,0.0,-0.0435531,,2,3.0
TcTaPt2,0.0,-0.0611976,,2,3.0
O4LaPa,3.4132,-0.0319512,,2,3.0
H2O2Eu,0.0,-0.016524,,2,3.0
AsNd,0.0,-0.0335954,,2,3.0
Ca2YAu2,0.0,-0.0379639,,2,3.0
Co2Tm2Hg,0.0,-0.0415825,,2,3.0
CZnTm2,0.0,-0.0321746,,2,3.0
LiGaSn,0.0,-0.0185436,,2,3.0
NaAsRh,0.0,-0.0200229,,2,3.0
In4Eu,0.0,-0.0378307,,2,3.0
CoGe2In3Sm3,0.0,-0.0327772999999999,,2,3.0
Mg2TeI2,1.5957,-0.0251946,,2,3.0
O8KNiMo2,0.0,-0.0139235,,2,3.0
PZnBa,0.0,-0.0219164,,2,3.0
Rh4InCe,0.0,-0.036026,,2,3.0
Al2K3As3,1.2865,-0.0133286999999999,,2,3.0
ZnAgEu2,0.0,-0.0383595,,2,3.0
SiCu2,0.0,-0.013473,,2,3.0
NdLu3,0.0,-0.0523908,,2,3.0
LiNi2Sb2Tm,0.0,-0.0275074,,2,3.0
SiRb2Te4Hg,0.7869,-0.0341939,,2,3.0
As2Ru2Sm,0.0,-0.0317711,,2,3.0
AgSnPr,0.0,-0.0376153,,2,3.0
Cu2Pd3Sm,0.0,-0.0293639,,2,3.0
LiCaIn4,0.0,-0.0247125,,2,3.0
F6Cu,0.5703,-0.0059251,,2,3.0
MgGa2Ru2,0.0,-0.0217681,,2,3.0
Cl6MnCs2,1.3887,-0.0174747,,2,3.0
SrSn2Au,0.0,-0.0415042,,2,3.0
Se2RbSm,1.7221,-0.0283211,,2,3.0
LiSc2Ag,0.0,-0.0157065,,2,3.0
AlPt3,0.0,-0.0554094,,2,3.0
Zn2AgEr,0.0,-0.0275056,,2,3.0
H3RhEr,0.0,-0.0196278,,2,3.0
FeLa2,0.0,-0.0345969,,2,3.0
O5S2Sc2Ce2,0.4011,-0.0185746,,2,3.0
F3Sr,0.4423,-0.0113192,,2,3.0
K2Br6Zr,2.5529,-0.0200039,,2,3.0
Cl6InCs2Bi,0.7353,-0.0250564,,2,3.0
CrRu3,0.0,-0.0306923,,2,3.0
CNi3In,0.0,-0.0184095,,2,3.0
SnPm2Hg,0.0,-0.0487705,,2,3.0
GaU,0.0,-0.0601002,,2,3.0
H4LiO5SK,4.9379,-0.0069463,,2,3.0
Ga3RhSn2Pr3,0.0,-0.0324336,,2,3.0
ScCoZn4,0.4641,-0.0144943,,2,3.0
NiSn3Ho,0.0,-0.0350515,,2,3.0
GeNdAu,0.0,-0.0450024,,2,3.0
Li4P2Tb,0.0,-0.0119663,,2,3.0
SiCrRh2,0.0,-0.0246289,,2,3.0
Fe3Os,0.0,-0.0315429,,2,3.0
Ca2NiAu,0.0,-0.026683,,2,3.0
Al5Ni2Ba,0.0,-0.014329,,2,3.0
Li4SrLa,0.0,-0.0124095,,2,3.0
Cl2Ag2Hg,0.5541,-0.0297079,,2,3.0
CAlMn3,0.0,-0.0147423,,2,3.0
Rh2CeHo,0.0,-0.0411032,,2,3.0
PFePd5,0.0,-0.0278915,,2,3.0
H8FeZn2Ba,1.178,-0.009571,,2,3.0
O6TiSr2Bi,0.0,-0.0202587,,2,3.0
Zn2Pb,0.0,-0.0341702,,2,3.0
Rh2Tb3Au,0.0,-0.0471595,,2,3.0
Y2Cd3,0.0,-0.0297918,,2,3.0
Cl2In2Hg,0.5506,-0.0308386,,2,3.0
S3K2Ho,0.0,-0.0173534,,2,3.0
SiBrTb,0.0,-0.0267284,,2,3.0
F6CuDy,0.8645,-0.0135172,,2,3.0
Al3Ge2Ho,0.0,-0.0186678,,2,3.0
CoSbTa,0.0,-0.0405136,,2,3.0
ZnPd2Sm,0.0,-0.0316590999999999,,2,3.0
Mn2ZnU,0.0,-0.0384483,,2,3.0
LiCl6Rb2U,0.324,-0.0215803,,2,3.0
S3SeAg2Bi2,0.0803,-0.0337885,,2,3.0
MgCu2Ho3,0.0,-0.0306281,,2,3.0
Ba2Ir3,0.0,-0.0587267,,2,3.0
TiCuInPt,0.0,-0.0342905,,2,3.0
MnGeNp,0.0,-0.0483544,,2,3.0
Ge2SrPd,0.0,-0.0240306,,2,3.0
AlAg2Ce,0.0,-0.029009,,2,3.0
OY3In,0.0,-0.0262613999999999,,2,3.0
RhCsHg3,0.0,-0.0554727,,2,3.0
Ni4Rh,0.0,-0.0196606,,2,3.0
OBrU,0.0,-0.0453444,,2,3.0
PY2Pb,0.0,-0.0367612,,2,3.0
Be7Mn,0.0,-0.0061155,,2,3.0
GeTb,0.0,-0.0338865,,2,3.0
CaSeAu2,0.0,-0.0428403,,2,3.0
PTl2,0.0,-0.0516304,,2,3.0
F7Ca2Pr,6.7262,-0.0129571,,2,3.0
CaRh2Ac,0.0,-0.0424042,,2,3.0
C2O6HgTh,3.1921,-0.0241714,,2,3.0
Hf3Bi,0.0,-0.0667633,,2,3.0
Br2ZrHg,0.0,-0.0354031,,2,3.0
CSiTi2,0.0,-0.0138996,,2,3.0
H6RuNd2,0.0,-0.0164487,,2,3.0
Li2AgAu2,0.0,-0.0353265,,2,3.0
SeBiNp,0.0,-0.0691181,,2,3.0
AlGeTa,0.0,-0.0314417,,2,3.0
AlGa5Ce,0.0,-0.0194595999999999,,2,3.0
Zn5Mo4,0.0,-0.0229835,,2,3.0
B6Co2Gd,0.0,-0.0157906999999999,,2,3.0
B2GdIr3,0.0,-0.0486156,,2,3.0
O5Te2La2Hf2,1.0535,-0.0320154,,2,3.0
Ti2VTe4,0.0,-0.0290877,,2,3.0
MgPr2Os2,0.0,-0.0472034,,2,3.0
Ag3Pr,0.0,-0.0345635,,2,3.0
BeRh2In,0.0,-0.0268399,,2,3.0
Cu5Lu,0.0,-0.0221179,,2,3.0
OBr2Cs4,0.6441,-0.0296665999999999,,2,3.0
N3K5Co3,0.0,-0.0110466,,2,3.0
KBa5,0.0,-0.0342944,,2,3.0
Zn2GaIr,0.0,-0.0289766,,2,3.0
B2N3Pd2Ce3,0.0,-0.0254647,,2,3.0
TmPb2,0.0,-0.0682868,,2,3.0
H3MgRh,0.0,-0.0101714,,2,3.0
GaSrAu2,0.0,-0.0449535,,2,3.0
Sn2SmIr,0.0,-0.04761,,2,3.0
TiZn3,0.0,-0.0144088999999999,,2,3.0
P2Ni2CsTm,0.0,-0.0246157,,2,3.0
ZnLa,0.0,-0.028683,,2,3.0
AlAs2Sn,0.0,-0.0211583,,2,3.0
Al2Si4Fe3,0.0,-0.0125467,,2,3.0
InBaHg4,0.0,-0.0579003,,2,3.0
LiO10P2Nb2,0.0,-0.0126913,,2,3.0
MgGa2Pa,0.0,-0.0345232,,2,3.0
O5SiCaSn,3.3654,-0.0135876,,2,3.0
Si2CeAu4,0.0,-0.0493233999999999,,2,3.0
Fe2AsPm,0.0,-0.0255302,,2,3.0
Mn2NdPu,0.0,-0.0475491,,2,3.0
PrDy3,0.0,-0.0466568,,2,3.0
LiAlCd2,0.0,-0.0178856,,2,3.0
Cu3Au,0.0,-0.0287633,,2,3.0
MgSiRu,0.0,-0.0171538,,2,3.0
CSnHf3,0.0,-0.0475361,,2,3.0
TmPtBi,0.0,-0.0681354999999999,,2,3.0
Se4Zr5,0.0,-0.0272397,,2,3.0
Ni2CuLa2,0.0,-0.0270189,,2,3.0
Al6TiTa,0.0,-0.016518,,2,3.0
H4YPd,0.0,-0.0129388,,2,3.0
TiSbNd,0.0,-0.033103,,2,3.0
O6TiNiY2,0.9997,-0.0157658,,2,3.0
CBiTh2,0.0,-0.0706258,,2,3.0
O7P2Mo,0.0,-0.0122187,,2,3.0
NdPmHg2,0.0,-0.0566613,,2,3.0
F6K2CsTm,6.0606,-0.0162883999999999,,2,3.0
FeNi4U,0.0,-0.0311911,,2,3.0
Li3Sb2Nd,0.0,-0.021796,,2,3.0
LiBr3Eu,0.3157,-0.0248216,,2,3.0
SrPrHg2,0.0,-0.0511781,,2,3.0
O6NiBa2Ce,1.1283,-0.0204067,,2,3.0
NiTaPt,0.0,-0.0516302,,2,3.0
PIrPu,0.0,-0.0646812,,2,3.0
O2ScTb,0.0,-0.021545,,2,3.0
CaBa2Pb2,0.0,-0.0487644999999999,,2,3.0
HLiO5PCo,0.9038,-0.0092093,,2,3.0
MnRhPd2,0.0,-0.029681,,2,3.0
Cu2SrPd3,0.0,-0.0255587,,2,3.0
BeCN2,3.563,-0.0088404,,2,3.0
K2RbCd2,0.0,-0.0196777,,2,3.0
Y2LaAu2,0.0,-0.0483124,,2,3.0
MnWPt2,0.0,-0.0576239,,2,3.0
BeIr3,0.0,-0.0547323,,2,3.0
PCa3In,0.0,-0.0153035999999999,,2,3.0
CeNdPb2,0.0,-0.060637,,2,3.0
H2Tb,0.0,-0.0186793,,2,3.0
SbBa2Bi2,0.0,-0.0555127,,2,3.0
Zn2SrCe,0.0,-0.0236403,,2,3.0
CCo2Ge2Pr2,0.0,-0.0247929,,2,3.0
GaRh2Th2,0.0,-0.0560783,,2,3.0
P2CeAu2,0.0,-0.0414217,,2,3.0
HHf3Tl,0.0,-0.052992,,2,3.0
SeBrI,0.8543,-0.0254743,,2,3.0
Ru2CdNd3,0.0,-0.0387464,,2,3.0
F6Na2RhAg,1.248,-0.0114869,,2,3.0
Al2YNd,0.0,-0.0221438999999999,,2,3.0
MgZrPb,0.0,-0.0374576,,2,3.0
Rh2SnTb2,0.0,-0.0403184,,2,3.0
Al2RuTh,0.0,-0.0372416,,2,3.0
MnNiGa2,0.0,-0.0171201,,2,3.0
Cl6YAg3,2.8036,-0.0183157,,2,3.0
N2Tl2Bi,0.0,-0.0481626,,2,3.0
S3KZrRh,0.0,-0.0182875,,2,3.0
Fe5Ir,0.0,-0.0268376,,2,3.0
Li2Mg2Sn2Tb,0.0,-0.0195272,,2,3.0
LiYRh2Sb2,0.0,-0.0295993,,2,3.0
MgTh,0.0,-0.0504273,,2,3.0
LiO7GaAs2,2.7694,-0.0110131999999999,,2,3.0
Si2Cu2Th,0.0,-0.0298329,,2,3.0
MnSe4Ta2,0.0,-0.0339456,,2,3.0
GaGeCe,0.0,-0.0274006,,2,3.0
GaLu2Os2,0.0,-0.0547608,,2,3.0
S4KCuHo2,0.8814,-0.0219002,,2,3.0
Be2ZnHf2,0.0,-0.0297873,,2,3.0
AlRhHfIr,0.0,-0.0450299,,2,3.0
LiO11Ba4Bi3,0.0,-0.0263947,,2,3.0
SiNi2Eu2,0.0,-0.0303707,,2,3.0
Rh2PdPu,0.0,-0.0529248,,2,3.0
MgZnSr,0.0,-0.0137752,,2,3.0
Li2PAg,0.3347,-0.0121286,,2,3.0
P4Rh6Pr,0.0,-0.0270956,,2,3.0
NaPdIn,0.0,-0.0238302,,2,3.0
S2KAu3,1.1289,-0.039692,,2,3.0
O7Ga2Ge2,2.5033,-0.0122435,,2,3.0
Ni5As4,0.0,-0.0182108,,2,3.0
B2CYIr2,0.0,-0.0331942,,2,3.0
CaSe3AgNd,1.1062,-0.0257759,,2,3.0
As2LaAu2,0.0,-0.0451125,,2,3.0
CuPtAu,0.0,-0.0515947,,2,3.0
F6K2GaRb,5.7329,-0.0104243,,2,3.0
O3SbBa,0.5787,-0.0212968,,2,3.0
La10S14O,1.9025999999999992,-2.609798111700001,mp-561194,2,3.0
O2CuIn,0.3649,-0.0165607,,2,3.0
F6RuLu,0.0,-0.016972,,2,3.0
Li2Mg2Ge2Lu,0.0,-0.0158919,,2,3.0
Be2GaIr2,0.0,-0.0340086,,2,3.0
NiSn3Ba,0.0,-0.0332081,,2,3.0
F6CoCu,0.0735,-0.0086362,,2,3.0
O3AgTa,1.7298,-0.0255125,,2,3.0
O3CoSe,0.0,-0.0121482,,2,3.0
Li2Zn2La,0.0,-0.0151907,,2,3.0
F4S2SrCe2,0.0,-0.0196396,,2,3.0
C4Sc3Cu,0.0,-0.0127103,,2,3.0
Al5Mn2Ce,0.0,-0.015342,,2,3.0
Si6Ni3Au,0.0,-0.0181371,,2,3.0
B4CrTa,0.0,-0.0196598,,2,3.0
Ni2In5Pr,0.0,-0.0306579,,2,3.0
Al2LaAu,0.0,-0.0327571,,2,3.0
LiSi2Hf2,0.0,-0.0301022,,2,3.0
Ta4Ir3,0.0,-0.0691329,,2,3.0
NCo3Au,0.0,-0.0260925,,2,3.0
O9RbW3,0.0,-0.0242963,,2,3.0
CMgPr2,0.0,-0.0255281999999999,,2,3.0
AlTaOs,0.0,-0.0492827,,2,3.0
GaYIr,0.0,-0.0394785,,2,3.0
MoPd3,0.0,-0.0333579,,2,3.0
CuRu2Tb3,0.0,-0.0379298,,2,3.0
HTi3Sb,0.0,-0.0182948,,2,3.0
CuRh2Er3,0.0,-0.0397861,,2,3.0
P2SmOs2,0.0,-0.0426504,,2,3.0
B4Fe4Ce,0.1316,-0.0166937,,2,3.0
Ge4Pd4Ba3,0.0,-0.0303912,,2,3.0
O6ZnBa2Ce,0.0,-0.0199818,,2,3.0
BFe2Ga2Lu,0.0,-0.0223575,,2,3.0
TmAuBi2,0.0,-0.0700605,,2,3.0
CuAs2Tb2,0.0,-0.0311233,,2,3.0
Ho6ReBi2,0.0,-0.058574,,2,3.0
N2S3Sm4,1.1197,-0.027205,,2,3.0
F6FeU,0.0,-0.021037,,2,3.0
ZnGa5Y,0.0,-0.0178935,,2,3.0
CaEu3,0.0,-0.0426572,,2,3.0
N2CaMo,0.0,-0.0166823,,2,3.0
F6VRb3,0.0,-0.0132334,,2,3.0
PSCu,0.0,-0.0120296,,2,3.0
BAl2Fe2Er,0.0,-0.01867,,2,3.0
Si3RhNp,0.0,-0.0346179,,2,3.0
FeRh2In,0.0,-0.0301235,,2,3.0
CuSrRh,0.0,-0.0238773,,2,3.0
ZnPd8,0.0,-0.0307953,,2,3.0
ScSbIr,0.0,-0.0419425,,2,3.0
Al3Si2Ho3Re,0.0,-0.0296972,,2,3.0
MgRhPt2,0.0,-0.045372,,2,3.0
O6NiSr2Er,0.0,-0.0173824,,2,3.0
MgRh2Tb3,0.0,-0.0361516999999999,,2,3.0
Mg6Sn3Sm2,0.0,-0.020953,,2,3.0
CoGa5Eu,0.0,-0.0222062999999999,,2,3.0
NCo3Ge,0.0,-0.0160254,,2,3.0
Be3P2,0.0,-0.0064538,,2,3.0
O4Na4Ti,3.3675,-0.0087481,,2,3.0
AlPTa4,0.0,-0.0478445,,2,3.0
KSe2Bi,1.0939,-0.0326071,,2,3.0
B2O6CaPb,2.0766,-0.0161149999999999,,2,3.0
K2FeBr6Ag,0.0,-0.0193775,,2,3.0
Na2S2Zn,2.4078,-0.0093911999999999,,2,3.0
Rh2CdSn2,0.0,-0.0342888,,2,3.0
LiBr6Rb2Tm,4.2183,-0.0232297,,2,3.0
InTeSm,0.0,-0.0393586,,2,3.0
O6CaNbBa2,0.0,-0.0188509,,2,3.0
SrInI4,0.0,-0.0348772,,2,3.0
MgZn2Sm3,0.0,-0.027857,,2,3.0
N3SrTc,0.4739,-0.0175899,,2,3.0
Al2SrRh,0.0,-0.018626,,2,3.0
CFe2Y2Sn2,0.0,-0.0252473,,2,3.0
H5O3ClBa,5.1094,-0.0099293,,2,3.0
Ag3Te2,0.0,-0.0337566,,2,3.0
Cl3GeLa3,0.0,-0.0265395,,2,3.0
BCo2Ga2Dy,0.0,-0.0209272,,2,3.0
S4SnBaHg,1.8465,-0.026992,,2,3.0
Al3CrGe2Hf3,0.0,-0.030223,,2,3.0
RuRhLu2,0.0,-0.0457419,,2,3.0
H5AlSr,3.3741,-0.0071712,,2,3.0
Si3Co2Tb3,0.0,-0.0263032,,2,3.0
NaAsBr6Rb2,2.4552,-0.0195914,,2,3.0
RuIn6Bi2,0.0,-0.0436002,,2,3.0
MnFe2Lu2,0.0,-0.0330498,,2,3.0
Tb2PtAu,0.0,-0.0594543,,2,3.0
Li2GeSe4In,0.0,-0.0179788,,2,3.0
LiSrRh2,0.0,-0.0232676,,2,3.0
In2TmPt,0.0,-0.0481036,,2,3.0
NiPm2Pb,0.0,-0.0453652,,2,3.0
In2Sn2Tl,0.0,-0.042155,,2,3.0
B6MgMn2,0.0,-0.0098335,,2,3.0
In2La3,0.0,-0.0397847,,2,3.0
ZnCdBa2,0.0,-0.0310247,,2,3.0
CuAs2Ba,0.0,-0.0244957,,2,3.0
AlPrAu,0.0,-0.0410486999999999,,2,3.0
Zn2Pd3La,0.0,-0.0288273,,2,3.0
CoAg2I4,0.3384,-0.0326548,,2,3.0
AlInBi2,0.0079,-0.0495667,,2,3.0
Si3MnNd,0.0,-0.018853,,2,3.0
O6CoMoTe,0.148,-0.0156835,,2,3.0
Cl4CoNi,0.0,-0.0117461,,2,3.0
MgRh2Sm2,0.0,-0.0330588,,2,3.0
InTe2Bi,0.0,-0.0468255,,2,3.0
GaNdPt,0.0,-0.0446162,,2,3.0
Sb2Ho6Pt,0.0,-0.049694,,2,3.0
Cl6Ag3Sm,2.7881,-0.019958,,2,3.0
O6Sr2GdBi,1.4574,-0.0245018,,2,3.0
B2Er,0.0,-0.0224416,,2,3.0
Ti2MnSe4,0.0,-0.0198567,,2,3.0
CaZn2Eu,0.0,-0.0228845,,2,3.0
PS4Cu3,1.0901,-0.0121748,,2,3.0
SeBr6Rb2,1.5598,-0.0208359999999999,,2,3.0
Li2SrAg,0.0,-0.0147730999999999,,2,3.0
Al5MnHf,0.0,-0.0174112,,2,3.0
Se4SrNd2,1.6205,-0.0293101,,2,3.0
LaPr3,0.0,-0.0432612999999999,,2,3.0
InDy3,0.0,-0.0445760999999999,,2,3.0
B2ErIr2,0.0,-0.0423654,,2,3.0
YOs2,0.0,-0.057606,,2,3.0
Mg6Si3La2,0.0,-0.0136563,,2,3.0
NiSn2Er,0.0,-0.0351145,,2,3.0
NiW2Ir,0.0,-0.0568129,,2,3.0
TiCo2Nb,0.0,-0.0212213999999999,,2,3.0
Al3CoTa2,0.0,-0.0293752,,2,3.0
MgCu2Zn4,0.0,-0.0128765,,2,3.0
S4CoRh,0.0,-0.0154352999999999,,2,3.0
Ca3Cd2Bi4,0.0,-0.0455205,,2,3.0
O4ZnGeAg2,0.1594,-0.0161638,,2,3.0
Rh2Sm2Hg,0.0,-0.0456925,,2,3.0
Al3Pd2Tb,0.0,-0.0235747,,2,3.0
Co2Br8Pd,0.0,-0.0206833999999999,,2,3.0
O7NiBrNb2La,0.0,-0.0183232,,2,3.0
Ge2InPt2,0.0,-0.0428223,,2,3.0
GaYAg,0.0,-0.0258248999999999,,2,3.0
Rb4HgBi2,0.3805,-0.0445046,,2,3.0
Li5Au4,0.0,-0.0326112,,2,3.0
Si2Sc2In,0.0,-0.0170024,,2,3.0
MgP2Y,0.0,-0.014413,,2,3.0
H10C2N2O5,3.2823,-0.0063526999999999,,2,3.0
H6NaGaCs2,1.0394,-0.0119047,,2,3.0
O6Ca2CdPt,0.0,-0.0174559,,2,3.0
AsRh2Pm,0.0,-0.0337737,,2,3.0
AlMnFeHf,0.0,-0.0270285,,2,3.0
As2RuTb6,0.0,-0.040372,,2,3.0
AlZn2Tb,0.0,-0.0208297,,2,3.0
O2SNd2,2.7647,-0.0252711,,2,3.0
NaGa4Th,0.0,-0.0279938,,2,3.0
SeRbTl,1.2282,-0.0385882,,2,3.0
O6InTeHo,2.6018,-0.0195927,,2,3.0
SiScPt2,0.0,-0.0425096,,2,3.0
N2YGd,0.0,-0.0282177,,2,3.0
F6KCrRb2,2.237,-0.0120851,,2,3.0
ScRu2In,0.0,-0.0296277,,2,3.0
Mn2FeCo,0.0,-0.0180613,,2,3.0
AsSbHo2,0.0,-0.0402688,,2,3.0
Ca2CoGa3,0.0,-0.014691,,2,3.0
AlTiFe2,0.0,-0.0154158,,2,3.0
Cl12Rb4SbTl,0.8244,-0.0174739,,2,3.0
LiS2Zr,0.0,-0.0148528,,2,3.0
Ni2SnHo2,0.0,-0.0339165,,2,3.0
LiIn4Ce,0.0,-0.0305708,,2,3.0
CuCd2Pt,0.0,-0.0367432,,2,3.0
AgLaHg2,0.0,-0.0532003,,2,3.0
GdHg3,0.0,-0.0662996,,2,3.0
AlCo3Lu2,0.0,-0.0287325,,2,3.0
TiAg2Cd,0.0,-0.0272831,,2,3.0
Cl2SbLa2,0.0,-0.0299077,,2,3.0
Pd5La,0.0,-0.0351096,,2,3.0
MnHf2Os,0.0,-0.0544468,,2,3.0
ScInIr2,0.0,-0.0482097,,2,3.0
SiGaSe,0.8925,-0.0158976,,2,3.0
TiFeNi2,0.0,-0.0169883999999999,,2,3.0
PdCePt4,0.0,-0.060462,,2,3.0
AlCoZrIr,0.0,-0.0326672,,2,3.0
K3Ba,0.0,-0.0160838999999999,,2,3.0
Ti3Pt5,0.0,-0.0509434,,2,3.0
PrIrPb,0.0,-0.0640786,,2,3.0
Al3Ga3Nb2,0.0,-0.0177721,,2,3.0
B2Mg2SiIr5,0.0,-0.0397705,,2,3.0
Ga2Tl2Bi,0.0,-0.0510964999999999,,2,3.0
Na2As2Hg,0.0,-0.023748,,2,3.0
Ca6Te2Pt,0.0,-0.0235321,,2,3.0
LiTcTb2,0.0,-0.0327917,,2,3.0
Sn2ErAc,0.0,-0.0537914,,2,3.0
B2O12K3Ta3,2.689,-0.0185758,,2,3.0
MgY2,0.0,-0.0203015,,2,3.0
P2CaPd2,0.0,-0.0201193,,2,3.0
H2Cu2Pd,0.0,-0.0139759,,2,3.0
O3SrMo,0.0,-0.0177785,,2,3.0
Zn5Zr,0.0,-0.0166118,,2,3.0
Zn2CsAu,0.0,-0.0336153,,2,3.0
AsNdIr,0.0,-0.0461118,,2,3.0
BeSiTi,0.0,-0.0106854999999999,,2,3.0
Sc5Ru,0.0,-0.0179253,,2,3.0
CsBi2,0.0,-0.0653588,,2,3.0
AgIn2Pb,0.0,-0.0434122,,2,3.0
O7Mn2Nb2,0.8101,-0.0157905,,2,3.0
LiAlAg2,0.0,-0.0185153,,2,3.0
CuZn2Sm,0.0,-0.0220375,,2,3.0
Cl6K2HgBi,0.0,-0.0223895,,2,3.0
PHf,0.0,-0.0379279,,2,3.0
Ga2YAg,0.0,-0.0235628,,2,3.0
OF5RhCs2Tl,0.0,-0.022699,,2,3.0
Rh2Tm3Tl3,0.0,-0.0557115,,2,3.0
MgGaIr,0.0,-0.0313525,,2,3.0
Sn4Te5Pb,0.0208,-0.0408084,,2,3.0
VAs,0.0,-0.01941,,2,3.0
PCl2Ir,2.2974,-0.025179,,2,3.0
Ge2Ru2Sm,0.0,-0.0312511,,2,3.0
PmAu2Tl,0.0,-0.0643703,,2,3.0
B2CNi2Pa,0.0,-0.0266569,,2,3.0
ClGaTe,2.1455,-0.0212958,,2,3.0
Li2O8V3Sn,0.0,-0.0126155,,2,3.0
Zr2InAu2,0.0,-0.0473652,,2,3.0
KZnTe3Dy,1.196,-0.0314187,,2,3.0
HLi3Hg,0.0,-0.0161465,,2,3.0
MnSe4Cs3,0.5465,-0.0275118,,2,3.0
CuRb2Sb,1.183,-0.0238337,,2,3.0
OAgTeTb,1.2999,-0.0324367,,2,3.0
NaAsRb2,0.13,-0.0169083,,2,3.0
AlMo2Os,0.0,-0.0376803,,2,3.0
KMnSb2,0.0,-0.0256054,,2,3.0
BeAs2Sb,0.0,-0.020497,,2,3.0
CaRh4Pb,0.0,-0.0369348,,2,3.0
BeCoNi2,0.0,-0.0137466,,2,3.0
Sc2RhTl,0.0,-0.0344521,,2,3.0
Li2O6Ti2Co,0.2257,-0.0109234,,2,3.0
AlAg2Pr,0.0,-0.0287817,,2,3.0
H3CuBa,0.0,-0.0133507,,2,3.0
YPd2Tb,0.0,-0.0360126,,2,3.0
F4NaDy,6.9439,-0.0149880999999999,,2,3.0
N2CuLa2,0.0,-0.0252127,,2,3.0
ClMn2Nd2,0.0,-0.0270057,,2,3.0
Ca5Ga5Pb,0.0,-0.0193008,,2,3.0
RhTeNd,0.7584,-0.0394466,,2,3.0
B2VW2,0.0,-0.0348472,,2,3.0
Ni2ErIr3,0.0,-0.0498241,,2,3.0
TiGeOs,0.0,-0.0362853,,2,3.0
In2TeTl,0.0,-0.0442143,,2,3.0
DyTmTl2,0.0,-0.0615922,,2,3.0
CuGa6Sr,0.0,-0.0173138,,2,3.0
PdCd2Tm,0.0,-0.0369574,,2,3.0
Fe3NiGe2Zr3,0.0,-0.0227881,,2,3.0
VAsRu,0.0981,-0.0247002999999999,,2,3.0
Si2CoNd,0.0,-0.0209467,,2,3.0
Si2Zr2Hf,0.0,-0.0297043,,2,3.0
ScIn2Th,0.0,-0.0445987999999999,,2,3.0
LiO4KW,4.0774,-0.0173478,,2,3.0
LiMgSn2,0.0,-0.0200657999999999,,2,3.0
NGaPr,0.0,-0.0240352,,2,3.0
SbTe3,0.0,-0.0372462,,2,3.0
MgIr8,0.0,-0.0638202,,2,3.0
Te2CsLa,1.5535,-0.040549,,2,3.0
Cl6Cs3Ho,4.8175,-0.0233846,,2,3.0
Al4RuNp,0.0,-0.0291574,,2,3.0
BHo2Pt6,0.0,-0.0596432,,2,3.0
AsBrEu2,0.0,-0.0384883,,2,3.0
Na2Mg2Sn2Ba,0.0,-0.018901,,2,3.0
O4AgTe,0.0,-0.016255,,2,3.0
Nb3Ru2Au,0.0,-0.0399471,,2,3.0
SiRh3Ho2,0.0,-0.0360054999999999,,2,3.0
O6Au3Hg,0.0,-0.0314178,,2,3.0
ScPdIn,0.0,-0.0276734,,2,3.0
Ge4Rb3Pt4,0.0,-0.0385534,,2,3.0
Al3CeAu,0.0,-0.0281774,,2,3.0
Fe4ZnW,0.0,-0.0258313999999999,,2,3.0
SnHo2Au2,0.0,-0.0555134,,2,3.0
H4O5NaAs,3.8917,-0.0076348,,2,3.0
Be4ZrRe,0.0,-0.0201947,,2,3.0
K2AgBi,0.8527,-0.0320413,,2,3.0
S3MnPrTl,0.0,-0.0285559,,2,3.0
CrRh7,0.0,-0.0319603,,2,3.0
F6K3Zr,0.0334,-0.0109541,,2,3.0
F6In2Th,2.1918,-0.0235477999999999,,2,3.0
MgZn2Sr2,0.0,-0.0154811,,2,3.0
NaP2Ni2Hf,0.0,-0.0207993,,2,3.0
RhAgPt2,0.0,-0.0513796,,2,3.0
MnPt8,0.0,-0.064681,,2,3.0