formula,bg,formation_energy,mp-id,fidelity,bg_category
CaI2Hg2,0.0,-0.0447458,,2,3.0
B2Ru,0.0,-0.0168858,,2,3.0
F6AlTl3,3.5255,-0.0272578,,2,3.0
F6AgDy,0.4237,-0.0152263,,2,3.0
CoHf2,0.0,-0.0478506,,2,3.0
Al3ZnZr2,0.0,-0.0169507,,2,3.0
Dy6ReBi2,0.0,-0.0577748,,2,3.0
O6Ba2LaBi,2.0214,-0.0263715,,2,3.0
LiY7,0.0,-0.0245362,,2,3.0
HMn3Sn,0.0,-0.0189464,,2,3.0
LiO4S,0.0,-0.0076761999999999,,2,3.0
AlCo2Pr,0.0,-0.0216184,,2,3.0
RhLa5,0.0,-0.0418209,,2,3.0
K5Cd,0.0,-0.0120022,,2,3.0
Cu2Nb,0.0,-0.0212031,,2,3.0
In3Dy3Ir2,0.0,-0.049015,,2,3.0
NiRhIr,0.0,-0.0403441,,2,3.0
BrSnI,2.1322,-0.0312972,,2,3.0
BTi,0.0,-0.0126135,,2,3.0
ScGa3Rh2,0.0,-0.0225749999999999,,2,3.0
LiSnCe,0.0,-0.0282378,,2,3.0
O4NdTa,3.9093,-0.0260177,,2,3.0
SGa2Se3Ag2,0.4641,-0.0211715,,2,3.0
NiHg2,0.0,-0.0507462,,2,3.0
Al3Ca2,0.0,-0.0087777999999999,,2,3.0
ZnCd2Dy,0.0,-0.0308957,,2,3.0
Cd5Bi,0.0,-0.0383414,,2,3.0
KPt2,0.0,-0.0498667999999999,,2,3.0
F6NbIn2,0.0,-0.0159255999999999,,2,3.0
KScNiSe3,0.0,-0.01773,,2,3.0
LiO8Cr3Fe2,0.0,-0.0124534,,2,3.0
B2CEuPt2,0.0,-0.0372059,,2,3.0
Ge2Pd2Pb,0.0,-0.0361964,,2,3.0
CrIr,0.0,-0.0450546999999999,,2,3.0
BaEuAu2,0.0,-0.0577713,,2,3.0
O8CrNiSr2Nd2,0.0,-0.0183648,,2,3.0
Si2Ga3RhTb3,0.0,-0.0278823,,2,3.0
Li3O8Co2Ge2,0.0,-0.0104261,,2,3.0
O9TbBi5,1.6086,-0.0345725,,2,3.0
O7Fe4YBa,0.0,-0.0162983,,2,3.0
O4K4Ti,3.2723,-0.0104609,,2,3.0
CaNi4Hg,0.0,-0.0238166,,2,3.0
Tm2HgPb,0.0,-0.0625188,,2,3.0
ScZrRu,0.0,-0.0270855,,2,3.0
Cr4Re,0.0,-0.0289532,,2,3.0
O6Sr2SmPt,0.0,-0.0220782,,2,3.0
NaS3NiNb,0.0,-0.0147806,,2,3.0
AlGeTb,0.0,-0.0252552,,2,3.0
GeBaNd,0.0,-0.0346636,,2,3.0
Mg3Co4Ge4,0.0,-0.0147097,,2,3.0
SnPa2,0.0,-0.0784933999999999,,2,3.0
O8ScMo2Tl,3.4426,-0.0195836,,2,3.0
Fe2SnLu2,0.0,-0.0368454,,2,3.0
KAs2,0.363,-0.0166881999999999,,2,3.0
O4NaCl,5.6011,-0.0068715,,2,3.0
VRh3,0.0,-0.0301572,,2,3.0
Ni3TbAu2,0.0,-0.0393335999999999,,2,3.0
Tl3Pb5,0.0,-0.0745005,,2,3.0
SiCeOs,0.0,-0.0428779,,2,3.0
Cl8Sr3Ba,5.157,-0.0169661,,2,3.0
GaHf,0.0,-0.0401384,,2,3.0
GeRbSb,0.1869,-0.0259815,,2,3.0
Y6Sb2Au,0.0,-0.0354356,,2,3.0
O4MgCo2,0.7315,-0.0111925,,2,3.0
Ni2Lu2Tl,0.0,-0.043645,,2,3.0
CoIn2Sm6,0.0,-0.0392839,,2,3.0
Al3Er2Ir2,0.0,-0.0390921,,2,3.0
MnGaHf,0.0,-0.0328827,,2,3.0
Ga2TmIr,0.0,-0.0398221,,2,3.0
Rb2CdInTe4,0.0,-0.0324797999999999,,2,3.0
N3CaZn,0.0,-0.0105578,,2,3.0
Cu4Te4Hf,1.1431,-0.0305923,,2,3.0
H5Ca2Co,0.3817,-0.0073060999999999,,2,3.0
MnRu2,0.0,-0.029294,,2,3.0
PdCeTl,0.0,-0.0505903,,2,3.0
CoPdPm2,0.0,-0.034928,,2,3.0
MgAlBa,0.0,-0.0175482,,2,3.0
Ag2Tm2Tl,0.0,-0.0481443,,2,3.0
TiPd2Pt,0.0,-0.0387599,,2,3.0
F6CeEr,0.0,-0.0187365,,2,3.0
SrCd2Lu,0.0,-0.0349286,,2,3.0
Au2Np,0.0,-0.0820694,,2,3.0
Li4P4La3,0.0,-0.0176354,,2,3.0
Ga2Pd2Ba,0.0,-0.028268,,2,3.0
Ge2YOs2,0.0,-0.042493,,2,3.0
Ga3BaAu2,0.0,-0.0383233,,2,3.0
Pd3InBa2,0.0,-0.0356946,,2,3.0
Eu2HgTl,0.0,-0.0626452,,2,3.0
AgEu2Au,0.0,-0.0526266,,2,3.0
BO3RbSr,3.286,-0.0141228,,2,3.0
CO5U,2.3615,-0.0231334,,2,3.0
LiNa2Pt3,0.0,-0.0374214,,2,3.0
CrTe2Lu6,0.0,-0.047802,,2,3.0
BSc2Rh6,0.0,-0.0273665999999999,,2,3.0
O6MnNbEu2,0.0,-0.0224929,,2,3.0
MoTcRh2,0.0,-0.0346077,,2,3.0
Mn2Zr3In3,0.0,-0.0289417,,2,3.0
Ni3SnEu2,0.0,-0.032229,,2,3.0
HNa3Hg,0.0,-0.0170372,,2,3.0
LiAu4Tl,0.0,-0.0587646,,2,3.0
B8O24Al6YEr,5.4326,-0.0114764999999999,,2,3.0
MnZnPt,0.0,-0.0346125,,2,3.0
SiTc,0.0,-0.023085,,2,3.0
NaInPm2,0.0,-0.031648,,2,3.0
MgTb2Tl,0.0,-0.0430744,,2,3.0
O3TbEr,4.5175,-0.0270217,,2,3.0
Ru2DyNp,0.0,-0.0563699,,2,3.0
Co4GdEr,0.0,-0.029879,,2,3.0
RuTb3,0.0,-0.0441283,,2,3.0
H6CrDy2,0.0982,-0.0155611999999999,,2,3.0
ScCuSe3Pb,0.6711,-0.0285954,,2,3.0
Cu2GaY2,0.0,-0.0209716,,2,3.0
MgRu2La3,0.0,-0.0341673,,2,3.0
ScRuSb2,0.0,-0.0315140999999999,,2,3.0
BeGeHf,0.0,-0.0292889,,2,3.0
Sc2PdAg,0.0,-0.0238302,,2,3.0
Sc2HgBi2,0.0,-0.05131,,2,3.0
CdHg2Bi,0.0,-0.0612718,,2,3.0
O6AlBa2Ce,0.0,-0.0199917,,2,3.0
C2ScCo,0.0,-0.0132748,,2,3.0
B2CrMo,0.0,-0.0174872,,2,3.0
TiHf2Ir,0.0,-0.0538061,,2,3.0
RbAg2Cs2,0.0,-0.0317389,,2,3.0
As2Se6Pb3,0.4252,-0.0356238,,2,3.0
Al3PdDy2,0.0,-0.0260402,,2,3.0
P2Mn2Ce,0.0,-0.0212877,,2,3.0
P2KCu2Ho,0.0,-0.0189301999999999,,2,3.0
BeCu5,0.0,-0.0134522,,2,3.0
ZnZrAg,0.0,-0.0254275,,2,3.0
C2O6MgIn,0.0,-0.0113496,,2,3.0
SiVAs,0.0,-0.0163627,,2,3.0
FeGa3Dy2,0.0,-0.0276749,,2,3.0
HPt3Tl,0.0,-0.0571963999999999,,2,3.0
RuSb2Ce,0.0,-0.0392286,,2,3.0
Li2SrCd2,0.0,-0.0178458,,2,3.0
GeNdHf,0.0,-0.0424584,,2,3.0
Fe2RhTa,0.0,-0.0343835,,2,3.0
I6Cs2Ir,0.0,-0.0416094,,2,3.0
Tb5Bi3,0.0,-0.0595268,,2,3.0
Mn2Au3,0.0,-0.0492466,,2,3.0
O6CaBa2Ir,0.0,-0.0220991,,2,3.0
Sr2RhTl,0.0,-0.0380539,,2,3.0
EuTbPb2,0.0,-0.0636733,,2,3.0
CaAg2Hg,0.0,-0.0354299,,2,3.0
H2O2Ni,0.7606,-0.0082745,,2,3.0
S3KSmHg,1.7138,-0.02641,,2,3.0
MgPm2Pb,0.0,-0.0426511,,2,3.0
CuGa2AgTe4,0.2576,-0.0288085999999999,,2,3.0
NaInAc2,0.0,-0.0548797,,2,3.0
C4Al3Zr2,0.0,-0.014509,,2,3.0
O6Sr2RhPd,0.0,-0.016596,,2,3.0
N2PdHo2,0.0,-0.0315132,,2,3.0
Ga2CeIr2,0.0,-0.0447414,,2,3.0
MgTlPb,0.0,-0.0511048,,2,3.0
Be2Rh2Pd,0.0,-0.0223357,,2,3.0
As2Ce,0.0,-0.0294058,,2,3.0
O3CrIn,0.7042,-0.0162401,,2,3.0
LiIn4Sm,0.0,-0.0305727,,2,3.0
Fe2IDy2,0.0,-0.0342032,,2,3.0
N2CrCs,0.0,-0.0193351,,2,3.0
Al2MnLu6,0.0,-0.0408158,,2,3.0
MgZn2Gd,0.0,-0.0230761,,2,3.0
H6Sr2Ir,0.0,-0.0158473,,2,3.0
ZnTcTb2,0.0,-0.035722,,2,3.0
CaAu7,0.0,-0.0619792,,2,3.0
Al3Si2La3Pt,0.0,-0.0278421999999999,,2,3.0
NiGa6Y,0.0,-0.0182412,,2,3.0
CaSbAu2,0.0,-0.0469945,,2,3.0
Rh2PbBi,0.0,-0.05547,,2,3.0
CuZnZr2,0.0,-0.0227817,,2,3.0
LiO4AsCs2,3.9355,-0.0173478,,2,3.0
CoInLa3,0.0,-0.0363435,,2,3.0
RbTe2Lu,1.1963,-0.0391368,,2,3.0
CAsTh3,0.0,-0.064283,,2,3.0
S3KTiRh,0.0,-0.0156648,,2,3.0
O2Ta,0.0,-0.0291047,,2,3.0
Cr3Mo,0.0,-0.0225566,,2,3.0
SmHoAu2,0.0,-0.0590017,,2,3.0
S3MnZrPb,0.0,-0.0266975,,2,3.0
ClCuSeTe,0.84,-0.0204742,,2,3.0
Zn2RbBi2,0.0,-0.0411867,,2,3.0
Ti3RuRh2,0.0,-0.0259543,,2,3.0
ScCu2Au,0.0,-0.0289105999999999,,2,3.0
Li7N4CuSr2,0.4789,-0.0086626,,2,3.0
Ru2InEr2,0.0,-0.0412641,,2,3.0
Na2S4FeIn,0.0,-0.0132302,,2,3.0
H3NBrAg,2.3976,-0.0121598,,2,3.0
O3TiMn,0.7237,-0.0134481,,2,3.0
MgAgNd,0.0,-0.026978,,2,3.0
O2SrRh,0.0,-0.019014,,2,3.0
BSc3Sb,0.0,-0.0182045999999999,,2,3.0
CDy2Pb,0.0,-0.0460225,,2,3.0
SbTe2Pt2,0.0,-0.050942,,2,3.0
I2Pr,0.0,-0.0404339,,2,3.0
GeZr2Pd2,0.0,-0.0300623,,2,3.0
B2NiTa2,0.0,-0.0334716,,2,3.0
Sn2CeHg,0.0,-0.0466038,,2,3.0
NiSbHf,0.0,-0.0393318,,2,3.0
BNMnPu,0.0,-0.0370252,,2,3.0
Al2RbPb2,0.0,-0.0376974999999999,,2,3.0
Mg2AlS8Cr3,0.7993,-0.0120338999999999,,2,3.0
F6Rh,0.504,-0.0092043,,2,3.0
Zn3Cd2,0.0,-0.0201631,,2,3.0
B4CoTm,0.0,-0.0171324,,2,3.0
Si3CeHf,0.0,-0.0280780999999999,,2,3.0
Na2S4CdPb,1.1337,-0.0198923999999999,,2,3.0
F3Ca,0.0,-0.0080129,,2,3.0
LiSiGd,0.0,-0.0243136,,2,3.0
NaClK3,0.0,-0.0082439,,2,3.0
Al2Ge4Er3,0.0,-0.0275972,,2,3.0
Fe4Sb12Pr,0.0,-0.0332955,,2,3.0
MgSn2Gd,0.0,-0.0343731,,2,3.0
Pd2Sn2La,0.0,-0.0370045,,2,3.0
O6MnCdPr2,1.6364,-0.0200385,,2,3.0
PNiZr4,0.0,-0.02562,,2,3.0
Be2As2Ba,0.0,-0.0184614,,2,3.0
Li11P5Ti,0.5504,-0.00637,,2,3.0
Li2S2Bi,0.0,-0.0214193999999999,,2,3.0
BrRb3I2,3.7768,-0.0276101,,2,3.0
Rh5Tb,0.0,-0.0362710999999999,,2,3.0
F6NaMg2K,6.4818,-0.0078634,,2,3.0
Cr3Zn2GaSe8,0.0,-0.0193187,,2,3.0
Zn2PmEu,0.0,-0.0315118,,2,3.0
H3KCa,3.1157,-0.0061563,,2,3.0
Hf2Os,0.0,-0.0663107,,2,3.0
BPrPt3,0.0,-0.0532814,,2,3.0
Li3O8Cr2Ni2,0.0,-0.0104149999999999,,2,3.0
Cu5Pt2,0.0,-0.0310403,,2,3.0
C4Dy3Os,0.0,-0.0323242,,2,3.0
Zn2Rh2Cd,0.0,-0.0252493,,2,3.0
LiS6Zr3,0.0,-0.0169884999999999,,2,3.0
MgTbIr4,0.0,-0.0566978,,2,3.0
RhTbPb2,0.0,-0.0585669,,2,3.0
Ga2AgHf2,0.0,-0.0383164999999999,,2,3.0
PdTm6Pb2,0.0,-0.0556516,,2,3.0
Al2As2Cs,0.0,-0.0192531999999999,,2,3.0
RhPm2Pt,0.0,-0.0490194,,2,3.0
Na2GeSe4Sn,1.2779,-0.0186866999999999,,2,3.0
Al4Si2Ca3,0.0,-0.0092708999999999,,2,3.0
Ti2FeNi,0.0,-0.0169338,,2,3.0
MgDy2Pb2,0.0,-0.0510575,,2,3.0
SrAg4Pb,0.0209,-0.0374997,,2,3.0
Ge2In3Er3Ir,0.0,-0.0408529,,2,3.0
SiNbLa,0.0,-0.029337,,2,3.0
AgBaBi,0.0,-0.0506015,,2,3.0
H6NaK2In,1.0917,-0.0076843,,2,3.0
S4CuRb2Nb,1.9454,-0.017268,,2,3.0
Ag2Cd2Tl,0.0,-0.0391512,,2,3.0
Pd3SbPb2,0.0,-0.0482113999999999,,2,3.0
BGa2Ru2Ho,0.0,-0.0271479,,2,3.0
BO5CuBaSm,0.0,-0.0180558,,2,3.0
LiSbPb,0.3641,-0.0387434,,2,3.0
CuGa3La,0.0,-0.0220994999999999,,2,3.0
Co2ZrHf2,0.0,-0.0383223,,2,3.0
NiGaI4,0.0,-0.0301974,,2,3.0
C2Hf3Pb,0.0,-0.0482207999999999,,2,3.0
O8SiZr3,4.0045,-0.0162443,,2,3.0
CuAgCd,0.0,-0.025612,,2,3.0
SiTiHo,0.0,-0.0257126,,2,3.0
ScRh2Bi,0.0,-0.0406702,,2,3.0
Nb3Pd2,0.0,-0.0332633,,2,3.0
AsPtTl,0.0,-0.0544416,,2,3.0
Al2Ca2Ga3,0.0,-0.0123906,,2,3.0
O5NaKNbNd,3.4087,-0.0162435,,2,3.0
F6YIr,2.0363,-0.0179007,,2,3.0
Li2O6SnTe,2.2452,-0.013283,,2,3.0
Cu2GaGd,0.0,-0.0267491999999999,,2,3.0
LiSiIn,0.0908,-0.0154307,,2,3.0
O6AlBa2Ir,0.0,-0.02191,,2,3.0
NaBa2Hg,0.0,-0.0381603,,2,3.0
MnGe3Pr,0.0,-0.0242435,,2,3.0
MgCa2Ag2,0.0,-0.0177215999999999,,2,3.0
MnIr8,0.0,-0.0653663,,2,3.0
O6ZnEu2W,0.2599,-0.0254198,,2,3.0
O2Na2Zn,1.7093,-0.008358,,2,3.0
S8Co5Ni,0.0,-0.013368,,2,3.0
Mo5W,0.0,-0.0406886,,2,3.0
CAl4I5,0.0,-0.0226978,,2,3.0
NiGe3Np,0.0,-0.0362812,,2,3.0
ScI2,0.0,-0.0304488999999999,,2,3.0
HfAu3,0.0,-0.0681669,,2,3.0
Zn2Ag2Hg,0.0,-0.0315148,,2,3.0
S3CrCuCs,0.0,-0.017625,,2,3.0
H3CaPd,0.0,-0.0111544,,2,3.0
HMn3Ir,0.0,-0.0259662,,2,3.0
Ge3U,0.0,-0.040466,,2,3.0
BCScCu,0.0,-0.0122011,,2,3.0
RhCd2,0.0,-0.0317031,,2,3.0
Co2GaTm2,0.0,-0.031345,,2,3.0
Li2AlAu,0.0,-0.0210918,,2,3.0
SiS4SrAg2,0.6303,-0.0176967,,2,3.0
ScCoGaRu,0.0,-0.0211048,,2,3.0
FeCoGe,0.0,-0.0182189,,2,3.0
H3O10NaS2Co2,0.0,-0.0087631999999999,,2,3.0
As6BaPt4,0.2305,-0.0409666,,2,3.0
O4KIr,0.1305,-0.0183242,,2,3.0
Se2W,0.9915,-0.0371433,,2,3.0
Co4ZnHf,0.0,-0.0244116,,2,3.0
O4FeRu,0.0,-0.0143171,,2,3.0
KTl,0.0,-0.0405561,,2,3.0
GaPdEu,0.0,-0.035061,,2,3.0
H2Mg2Hg,0.0,-0.017224,,2,3.0
ZnGaSm2,0.0,-0.0302268,,2,3.0
F6NiEr,0.0,-0.0140834,,2,3.0
Ge3ZrTh,0.0,-0.0374453,,2,3.0
Zn2CeAu4,0.0,-0.0503457999999999,,2,3.0
H2LiO4As,4.117,-0.0082659,,2,3.0
Ca2Pd2Sn,0.0,-0.0250131,,2,3.0
Al10Ru2La,0.0,-0.0152339,,2,3.0
FCa2Ba,0.0,-0.0170972,,2,3.0
N3GdW,1.5313,-0.0324140999999999,,2,3.0
Sr2IBi,0.8669,-0.0413301,,2,3.0
Al2RhHf,0.0,-0.0288729,,2,3.0
GePd8,0.0,-0.0314333,,2,3.0
F6MnZr,2.4621,-0.0123447,,2,3.0
N6Y3Nb2,0.0,-0.0201621999999999,,2,3.0
Co2GaCe2,0.0,-0.0283263999999999,,2,3.0
O4YCe,0.0,-0.019602,,2,3.0
O6HoTaPb2,2.3752,-0.0329493,,2,3.0
PPd2Ba,0.0,-0.0297374,,2,3.0
Al2TbPt,0.0,-0.0343138,,2,3.0
AlNi4Y,0.0,-0.0171588999999999,,2,3.0
RuLa3Tl,0.0,-0.0478335,,2,3.0
O6ScSr2Zr,0.0,-0.0160284,,2,3.0
Al2Ni3Pr,0.0,-0.0184820999999999,,2,3.0
NInHo3,0.0,-0.0391458,,2,3.0
CaI4Ce,0.0,-0.0350952,,2,3.0
SeSb5,0.0,-0.0343918,,2,3.0
PS3Zn,2.6645,-0.011079,,2,3.0
NiBi,0.0,-0.0473504,,2,3.0
MgAl2Pr3,0.0,-0.0253592,,2,3.0
MnILu,0.0,-0.037454,,2,3.0
Al2CaPt2,0.0,-0.0343744999999999,,2,3.0
Rh3Pd2Nd,0.0,-0.0354969,,2,3.0
CoGa3Hf2,0.0,-0.0324763999999999,,2,3.0
Zr2MoTc,0.0,-0.033064,,2,3.0
Li2P2Sr,0.0,-0.0105352,,2,3.0
LiKAu4,0.0,-0.0482591,,2,3.0
LiGeRh,0.0,-0.0190218,,2,3.0
LiYPd2Sb2,0.0,-0.0293147,,2,3.0
Fe6Ge3Dy2,0.0,-0.0241128,,2,3.0
TiGa5Ru,0.0,-0.0193537,,2,3.0
CaTe3HoAu,0.4114,-0.0411731,,2,3.0
TiCu2Hg,0.0,-0.0287189,,2,3.0
AlPCr,0.0,-0.0125808,,2,3.0
LiF6Co,0.0,-0.0070576999999999,,2,3.0
CScBr,0.0,-0.0157377,,2,3.0
AsPd5Tl,0.0,-0.0370299,,2,3.0
NOHo6Pb2,0.0,-0.0474799,,2,3.0
BrLa2Ir,0.0,-0.0456467,,2,3.0
PAs2Sb,0.0,-0.0219288,,2,3.0
TbAu2Pb,0.0,-0.0659328,,2,3.0
Al3Ga2Ba,0.0,-0.0161539999999999,,2,3.0
KSe3Pt2,0.9052,-0.0355953,,2,3.0
TcReOs2,0.0,-0.0626009,,2,3.0
Zn2YSb2,0.0,-0.0263177,,2,3.0
InIr2Th2,0.0,-0.0744407,,2,3.0
LiCl6CaRb2,0.0,-0.0121374999999999,,2,3.0
ZnIn7,0.0,-0.0307805,,2,3.0
MgTe2CsAu,1.9409,-0.0381916999999999,,2,3.0
Br3Ag2,0.0,-0.0245288,,2,3.0
Al2RhI8,0.2736,-0.0317375,,2,3.0
Cu2GdTl,0.0,-0.0405641,,2,3.0
OInEr3,0.0,-0.0397383,,2,3.0
Al3MnGe2Er3,0.0,-0.0263595,,2,3.0
Bi2Au5F21,1.2285,-1.7513867525,mp-557090,2,3.0
Fe2ZrU,0.0,-0.042679,,2,3.0
P3Eu2Pt4,0.0,-0.0477345,,2,3.0
Se3Rb2Nb,0.0,-0.0236642,,2,3.0
O7K2GdTa2,0.0,-0.0239331999999999,,2,3.0
F6Rb2AgAu,0.0,-0.0182197,,2,3.0
LiF6Rb2Pb,0.0,-0.0167438,,2,3.0
Ni2HfPt,0.0,-0.0421349,,2,3.0
MnBrSn3,0.6806,-0.0292416,,2,3.0
H2Y2Pb,0.0,-0.0285128999999999,,2,3.0
Rh2In3La3,0.0,-0.0378743,,2,3.0
AlMnCoRh,0.0,-0.0199721,,2,3.0
Fe4Ge4Dy3,0.0,-0.0271097,,2,3.0
PdErTl,0.0,-0.0525925,,2,3.0
LiO9Na3Mn5,0.1591,-0.0111037,,2,3.0
CNNaS,4.0608,-0.0087593,,2,3.0
Co4Sn6Ce,0.0,-0.0300863,,2,3.0
NaP2Pt2,0.0,-0.0336373,,2,3.0
As2Zr6Pd,0.0,-0.0294522,,2,3.0
BAl2CaRu2,0.0,-0.0176587,,2,3.0
ScZrTc2,0.0,-0.0290936999999999,,2,3.0
YPd2Sn,0.0,-0.0333012,,2,3.0
Mg2ZnTb,0.0,-0.0177846,,2,3.0
LiSe2Th,0.0,-0.0362379,,2,3.0
H2O5MgMo,4.0783,-0.0106948,,2,3.0
NiRhRe2,0.0,-0.0481295,,2,3.0
HSeCe,0.0,-0.0242504999999999,,2,3.0
B4Co5Dy2,0.0,-0.019751,,2,3.0
O8Mo2CeTl,0.0,-0.022074,,2,3.0
MgLa2Au,0.0,-0.0406608,,2,3.0
O7Nd2Hf2,4.111,-0.0270009,,2,3.0
F6BaIr,0.0,-0.0191119999999999,,2,3.0
O6MgSnBa2,0.0,-0.0180189999999999,,2,3.0
F6ScAg,0.4092,-0.0109662,,2,3.0
O7Na2CaTa2,2.1059,-0.0191356,,2,3.0
SPu,0.0,-0.0614041,,2,3.0
MgP2CaSe6,2.1076,-0.0164468,,2,3.0
HoTaOs2,0.0,-0.0652381,,2,3.0
NaCu2As2Ce,0.0,-0.0206463,,2,3.0
Mg2TbBi2,0.0,-0.0432213,,2,3.0
LiGeHo,0.0,-0.0242507,,2,3.0
S4AsBrHg3,1.4068,-0.0316390999999999,,2,3.0
Rh2Ba2Pb,0.0,-0.0448819,,2,3.0
Ag2CdSb,0.0,-0.0325429,,2,3.0
SnCe,0.0,-0.0409755,,2,3.0
B3O9Bi2,0.0,-0.0185069,,2,3.0
P4Mn7,0.0,-0.0160282,,2,3.0
CaRh2Lu,0.0,-0.0338864,,2,3.0
F6Se2SnHg3,2.5543,-0.0267822,,2,3.0
N2O3Ti3,1.5365,-0.0132822999999999,,2,3.0
CoRh2Os,0.0,-0.0391237,,2,3.0
AgCe2Os,0.0,-0.0482106,,2,3.0
Si2ScCo,0.0,-0.0135817,,2,3.0
AlCuLa2,0.0,-0.0275927,,2,3.0
As4Rh6Nd,0.0,-0.0305570999999999,,2,3.0
Sc2Ga2Y,0.0,-0.0183784,,2,3.0
NaSnSm,0.0,-0.0286967999999999,,2,3.0
Gd2TlPb,0.0,-0.0670130999999999,,2,3.0
Na2KSb,0.7811,-0.0140324,,2,3.0
CeTl2Th,0.0,-0.0715798,,2,3.0
H6Na2Pd,2.5764,-0.0071495,,2,3.0
DyBiTh,0.0,-0.0747219,,2,3.0
AlCuAg2,0.0,-0.0215314,,2,3.0
Ga4Rb,0.0,-0.0173741,,2,3.0
O8Mn3Ni,0.2794,-0.0118301,,2,3.0
HCaLa3,0.0,-0.0286275,,2,3.0
Ga2HoIr2,0.0,-0.0456391,,2,3.0
H2CoRh2,0.0,-0.0183044,,2,3.0
Si2Fe,0.0,-0.0130321,,2,3.0
Mg2S8TiSm3,0.0,-0.0188232,,2,3.0
P2NiTb,0.0,-0.0219891,,2,3.0
Na2AgIn,0.0,-0.0184177999999999,,2,3.0
Br2Pd,0.8237,-0.0242729,,2,3.0
NDy2,0.0,-0.0362106,,2,3.0
F2NaBr,1.449,-0.0094603,,2,3.0
CaCuSb2,0.0,-0.0253729,,2,3.0
Na2Ca2Ba,0.0,-0.0133846,,2,3.0
Pd2GdHg,0.0,-0.0488085,,2,3.0
CaY2Pd2,0.0,-0.0269592,,2,3.0
GdTmAu2,0.0,-0.0632883,,2,3.0
KZrSb2,0.0,-0.0289845,,2,3.0
Mg3PCl3,2.2834,-0.0086172,,2,3.0
NaSr3Au,0.0,-0.0284636999999999,,2,3.0
LiP2Ni2Ho,0.0,-0.0184355,,2,3.0
CaSeRh,0.0,-0.0222183,,2,3.0
SCl7Nb3,0.7917,-0.0164718,,2,3.0
O4GeEr,0.0,-0.0182095,,2,3.0
ZnCd2Hg,0.0,-0.0355728,,2,3.0
Ag4Dy,0.0,-0.0348906,,2,3.0
F3MgTl,4.0449,-0.0206158,,2,3.0
PBr2Ho2,0.0,-0.0314113,,2,3.0
SiPd2Er,0.0,-0.0325512,,2,3.0
CdInPt,0.0,-0.045124,,2,3.0
Li2O2FV,0.0,-0.0091095,,2,3.0
CuI3Tl,0.0,-0.0397989,,2,3.0
NiInEr,0.0,-0.0338833,,2,3.0
Co2TaOs,0.0,-0.0433827,,2,3.0
Si3NiHf,0.0,-0.0223125,,2,3.0
H3NaAg,0.0,-0.0091876,,2,3.0
C2Tb3Tl,0.0,-0.0392349,,2,3.0
SrIn3Hg,0.0,-0.0385881,,2,3.0
MnNi4Nd,0.0,-0.0213731,,2,3.0
AsRu2Pm,0.0,-0.0336994,,2,3.0
LiO2Pr,3.4482,-0.0175782,,2,3.0
Sr(GaS2)2,2.797399999999999,-1.458343040535713,mp-14425,2,3.0
Ca2GeRh2,0.0,-0.0219643,,2,3.0
O2CuAg,0.0,-0.0153155,,2,3.0
Tb3Os2Hg,0.0,-0.0591426,,2,3.0
S2RbIr,1.1218,-0.0285978,,2,3.0
OK3,0.0,-0.0086752,,2,3.0
O8AlS2K,5.8293,-0.0092599,,2,3.0
PRbBa3,0.0,-0.0304447,,2,3.0
La2HgTl,0.0,-0.0573688999999999,,2,3.0
NaSnPb2,0.0,-0.0480134,,2,3.0
H2AsCd2,0.0,-0.0174798,,2,3.0
AlZnCe2,0.0,-0.0278107,,2,3.0
CCl5Tb4,0.0,-0.0256406,,2,3.0
ScMnI,0.0,-0.0236754,,2,3.0
LiScBr6Cs2,2.9955,-0.0228704,,2,3.0
O7CaGe2Pu,0.2728,-0.0208027,,2,3.0
KCoTe2,0.0861,-0.0255259,,2,3.0
P2KCu2In,0.0,-0.0156752,,2,3.0
F6NiIn,0.0,-0.0111475,,2,3.0
FeCo,0.0,-0.0179482,,2,3.0
GaNbOs,0.0,-0.0408713,,2,3.0
SiTbAu2,0.0,-0.0496084,,2,3.0
BeTi2,0.0,-0.0121995,,2,3.0
Rh2BaTl2,0.0,-0.0505632,,2,3.0
O5CaTiGe,2.7752,-0.0123532,,2,3.0
Nb3Te2,0.0,-0.0351706,,2,3.0
As2Nb2Ba,0.0,-0.0300827,,2,3.0
NNiBa,0.0,-0.0221544999999999,,2,3.0
SrIn3Pt,0.0,-0.0391993,,2,3.0
O10Sr2CsTa3,1.941,-0.0247006,,2,3.0
Cl7Sc3Se,2.6398,-0.0130587,,2,3.0
Sc5Sb3,0.0,-0.0238115,,2,3.0
MgCo2,0.0,-0.0131827,,2,3.0
P2Cu4Gd,0.0,-0.0205965,,2,3.0
MgGa2Hf2,0.0,-0.0330659,,2,3.0
Ge2GdIr2,0.0,-0.048738,,2,3.0
Be2SiCr,0.0,-0.0095207,,2,3.0
HGaSnEu,0.0,-0.027893,,2,3.0
SiNi3Er2,0.0,-0.0272354,,2,3.0
CoSrIn3,0.0,-0.0281717,,2,3.0
YIPt,0.7067,-0.0463324,,2,3.0
NaS2Cu3,0.0,-0.0119604,,2,3.0
FFeBr2Ag,0.0,-0.0193088,,2,3.0
NInTh3,0.0,-0.066888,,2,3.0
Se2CsIrHg,0.4712,-0.0440208,,2,3.0
CaErPb2,0.0,-0.053523,,2,3.0
Ag8Te,0.0,-0.0320031,,2,3.0
NOSn2Er6,0.0,-0.0403646,,2,3.0
Sc2Rh2Au,0.0,-0.0339403,,2,3.0
ScFe4Zn,0.0,-0.0167837,,2,3.0
Ga2Ir3Np,0.0,-0.0592419999999999,,2,3.0
Co10YSm,0.0,-0.0204919,,2,3.0
GeYRu,0.0,-0.0281189999999999,,2,3.0
MnIn2Tm6,0.0,-0.0442903,,2,3.0
CaTe3TbAu,0.3905,-0.040819,,2,3.0
CaSe3AgTm,1.2563,-0.0271164999999999,,2,3.0
SGe2Se,0.6819,-0.0171625,,2,3.0
LiBeSb,1.0147,-0.0149848,,2,3.0
NCl2Dy2,0.0,-0.0263941,,2,3.0
CuHf2Pt,0.0,-0.0533957,,2,3.0
S8Cr5In,0.0,-0.0154868,,2,3.0
MnGaOs2,0.0,-0.0447888,,2,3.0
S3Cu2Zr,0.4004,-0.0160127999999999,,2,3.0
SeBrPd,0.0,-0.0245084,,2,3.0
NaRhTe2,0.1603,-0.0288297,,2,3.0
KMnSe3Sm,0.1767,-0.0235139,,2,3.0
Mo2Lu,0.0,-0.0416808,,2,3.0
S2NbCs,0.1043,-0.0237758,,2,3.0
AlFeNiHf,0.0,-0.02674,,2,3.0
LiO3I,3.2619,-0.012621,,2,3.0
CCo2Sn2Er2,0.0,-0.0314707,,2,3.0
Zn3Au2,0.0,-0.0360435999999999,,2,3.0
ScSe3RbAu,0.0,-0.0285752,,2,3.0
LiO8V3Zn2,0.0,-0.0117606,,2,3.0
Ag2CeHg,0.0,-0.0440756,,2,3.0
CBr2U2,0.0,-0.0518977,,2,3.0
FeMoSn,0.0,-0.0295253,,2,3.0
CaCuCd2,0.0,-0.0217057,,2,3.0
O4VNd,2.9305,-0.0176144999999999,,2,3.0
KAs2La,0.0,-0.0239777999999999,,2,3.0
Si2Co3Sm,0.0,-0.0199795,,2,3.0
ZrPd2,0.0,-0.0329416,,2,3.0
CuTe2Pu,0.0,-0.0505125,,2,3.0
O5V2Zn,0.3637,-0.0123155,,2,3.0
CdSb4Pr2,0.0,-0.0388289,,2,3.0
TiZn2Pd,0.0,-0.0193875999999999,,2,3.0
Ni2PdTb3,0.0,-0.0347994,,2,3.0
BMoRu,0.0,-0.025992,,2,3.0
MgGaSr2,0.0,-0.0166728999999999,,2,3.0
NaAs2Rh2Eu,0.0,-0.0283509999999999,,2,3.0
CaFeY3,0.0,-0.0221658,,2,3.0
AlGe2Lu2,0.0,-0.0320709999999999,,2,3.0
O6Sr2YTa,3.7375,-0.0211095,,2,3.0
Al4RhLu,0.0,-0.020776,,2,3.0
Al3FeRu2,0.0,-0.0191754999999999,,2,3.0
Li7O6Ni2Rb,0.2421,-0.0083579,,2,3.0
Na4Pt,0.0,-0.0174842,,2,3.0
P2SrRh,0.0,-0.0201439,,2,3.0
Si2Ti2W,0.0,-0.0250217,,2,3.0
NaAs2Pd2Dy,0.0,-0.0271902,,2,3.0
Se3Dy4Pb,0.0,-0.0425812,,2,3.0
Pd2LaIr3,0.0,-0.0541351999999999,,2,3.0
ClSeMo,0.7024,-0.0218084,,2,3.0
FTeTl3,0.0,-0.0524176,,2,3.0
Mg2CuTl,0.0,-0.0244696,,2,3.0
Pd5Nd,0.0,-0.0351431,,2,3.0
Dy3Pt4,0.0,-0.0620116,,2,3.0
LiO4CoSb,0.0,-0.0133481,,2,3.0
CrTe2Cs,0.527,-0.033454,,2,3.0
CGe2SrMo2,0.0,-0.0236609,,2,3.0
Br2SnDy2,0.0,-0.0355486,,2,3.0
PY4Te3,0.0,-0.0307497,,2,3.0
HfBi2,0.0,-0.0734606,,2,3.0
F6CaCe,3.204,-0.0134118,,2,3.0
CoInNd,0.0,-0.0317132,,2,3.0
Mg2As2Rb,0.0,-0.0148582,,2,3.0
ZnInLa,0.0,-0.0306021,,2,3.0
CrRh2Cd,0.0,-0.0291859,,2,3.0
CoGeNb4,0.0,-0.028446,,2,3.0
YPm3,0.0,-0.0399343999999999,,2,3.0
O2As,3.0329,-0.0121145,,2,3.0
NiEr6Bi2,0.0,-0.0533851,,2,3.0
PCa3Ba,0.0,-0.016271,,2,3.0
OCuAsNd,0.0,-0.023172,,2,3.0
Si2Er2Pt,0.0,-0.0393501,,2,3.0
ZrPd2Hf2,0.0,-0.0449294,,2,3.0
ZnLu6Pb2,0.0,-0.0556629,,2,3.0
Ge4Dy3Ir4,0.0,-0.0467676,,2,3.0
LiCo5,0.0,-0.0146697,,2,3.0
CaSrCd4,0.0,-0.0259843,,2,3.0
H2SnNd3,0.0,-0.0295783999999999,,2,3.0
H6MnNb2,0.0,-0.0117775,,2,3.0
Pd3BaTl2,0.0,-0.0475507,,2,3.0
B4Lu2Ir5,0.0,-0.045956,,2,3.0
Be3N2,3.2822,-0.0075721,,2,3.0
Co4ZrTc,0.0,-0.0225982,,2,3.0
MgP2Cs4,0.5335,-0.0257251,,2,3.0
AlMnTh,0.0,-0.0408564,,2,3.0
O6Ca2MoPr,0.0,-0.0164176,,2,3.0
Al2Ge2Ho,0.0,-0.0209835,,2,3.0
MnGaTm,0.0,-0.0293296,,2,3.0
Zn5Ru4,0.0,-0.0230052,,2,3.0
CuCd2La,0.0,-0.0300208,,2,3.0
Cu4DyHg,0.0,-0.0297474,,2,3.0
LiAl2W,0.0,-0.021968,,2,3.0
ScRbTe3Au,0.0,-0.0369279,,2,3.0
O6AlSr2Pt,0.0,-0.0183706,,2,3.0
F8CaGd2,4.5433,-0.0183849,,2,3.0
ZnIDy,0.0,-0.0336215,,2,3.0
N2PrLu,0.0,-0.031113,,2,3.0
LiFeInIr,0.0,-0.0315282,,2,3.0
Si4Cu4Sm3,0.0,-0.0219644,,2,3.0
GaI3Cs,0.0,-0.0338011,,2,3.0
AgTe2I,0.0,-0.0357105,,2,3.0
PdSn5Ce,0.0,-0.0370949999999999,,2,3.0
O4S2Cu2Bi2Pu,0.0,-0.0324439,,2,3.0
GaTe2La,0.156,-0.0345583,,2,3.0
NiNb3,0.0,-0.0289654,,2,3.0
ZnGa6Gd,0.0,-0.0215863,,2,3.0
Al5Os2Th,0.0,-0.0353727,,2,3.0