formula,bg,formation_energy,mp-id,fidelity,bg_category
MnTa8,0.0,-0.0612306,,2,3.0
LiMg2Pd,0.0,-0.0118209,,2,3.0
InHoPb2,0.0,-0.0588585,,2,3.0
TiCuAu2,0.0,-0.042781,,2,3.0
IrPtPu2,0.0,-0.0908391,,2,3.0
AlNi2Pr2,0.0,-0.0257742,,2,3.0
As2Y6Cd,0.0,-0.0271830999999999,,2,3.0
SnLu2Hg,0.0,-0.0543063,,2,3.0
C2O6Na3,0.0,-0.0080759,,2,3.0
LiO6P2Cu,2.1792,-0.0096907,,2,3.0
Li2NaCa2,0.0,-0.0056117,,2,3.0
CaRu2Np,0.0,-0.0466043,,2,3.0
O6SnSbEu2,0.0,-0.0240532,,2,3.0
KPdPb2,0.0,-0.048524,,2,3.0
CGe2Mo2Er,0.0,-0.0284146,,2,3.0
PmPb2Pu,0.0,-0.0768215,,2,3.0
Ga2RbAg,0.0,-0.021295,,2,3.0
NaCdTl2,0.0,-0.0449499,,2,3.0
Br4Ta,0.9217,-0.029835,,2,3.0
Zn2GaTm2,0.0,-0.0299102,,2,3.0
P2K3Ga,0.846,-0.0108732,,2,3.0
O6Na5Os,0.0,-0.012454,,2,3.0
Sc3ZnAg2,0.0,-0.0202302,,2,3.0
BeAs2,0.0,-0.014834,,2,3.0
Si2Ir2U,0.0,-0.0539691,,2,3.0
Zn2SrPt3,0.0,-0.0441610999999999,,2,3.0
AuHg2Ac,0.0,-0.0745311999999999,,2,3.0
SiCoTb,0.0,-0.0254056,,2,3.0
Na2Se,1.9936,-0.0107444,,2,3.0
Al3Ge2Y3Os,0.0,-0.0249719,,2,3.0
Sc2SrPt2,0.0,-0.039417,,2,3.0
Co2Ni3La,0.0,-0.021098,,2,3.0
AsZr2Ir,0.0,-0.0393504,,2,3.0
ScCu2Lu,0.0,-0.0253473,,2,3.0
O4PrBi2,0.0,-0.034069,,2,3.0
CAl2S,1.5579,-0.0095291,,2,3.0
P2Cu2CsPr,0.0,-0.0228392,,2,3.0
NNiNb,0.0,-0.0202533999999999,,2,3.0
B2O7Na2Al2,4.4791,-0.009155,,2,3.0
Al2YPt3,0.0,-0.0437004999999999,,2,3.0
Mn4ZnZr,0.0,-0.019498,,2,3.0
F4KAg,1.7956,-0.0108599,,2,3.0
CuGe4Pt2,0.0,-0.0334884,,2,3.0
S3K2Np,0.0,-0.0268622,,2,3.0
NiSn2Ho6,0.0,-0.0429769999999999,,2,3.0
OAsRuSm,0.0,-0.0285117,,2,3.0
Cr2As2Rb,0.0,-0.0198268999999999,,2,3.0
Cr2CoIr,0.0,-0.031407,,2,3.0
PmDy3,0.0,-0.0468279,,2,3.0
Ba2AuBi,0.3623,-0.057709,,2,3.0
F7Na3Fe,0.0,-0.0076486,,2,3.0
SiV4Sb2,0.0,-0.0224144,,2,3.0
RhIn6,0.0,-0.0335307,,2,3.0
CAl2Ge2Tb2,0.0,-0.0230264,,2,3.0
NaAlPt,0.0,-0.0281701,,2,3.0
As2RbSb2,0.0,-0.0273087,,2,3.0
HLiO5PMn,0.2047,-0.0095349,,2,3.0
O4NbSn,0.9832,-0.017861,,2,3.0
YInLa2,0.0,-0.0372522,,2,3.0
CaGa2Tm,0.0,-0.0240973,,2,3.0
Sc2TcTl,0.0,-0.034409,,2,3.0
H24C8N2F6Zr,6.8744,-0.0065255999999999,,2,3.0
Ge2PmTh,0.0,-0.0451391,,2,3.0
O6Ba2ErPt,0.0,-0.0262601,,2,3.0
MgLaHg,0.0,-0.0393829,,2,3.0
C3W2Th2,0.0,-0.0519139,,2,3.0
ClDy,0.0,-0.0295514,,2,3.0
Ga3Pr2Ir2,0.0,-0.0405345,,2,3.0
PSU,0.0,-0.0423218,,2,3.0
O7Ir2Bi2,0.0,-0.0322266,,2,3.0
AlZn2Pa2,0.0,-0.0469426,,2,3.0
O7Re2,2.5729,-0.022163,,2,3.0
HAlEuPb,0.0,-0.0356504,,2,3.0
Si2SnHo2,0.0,-0.0314509,,2,3.0
O6Ca2ScOs,0.0,-0.0169174,,2,3.0
ZrMoW,0.0,-0.045244,,2,3.0
MgInBi,0.0,-0.0390857,,2,3.0
Cu3Se4,0.0,-0.0180554,,2,3.0
Sr2Cd2Tl,0.0,-0.0359132,,2,3.0
HoAc3,0.0,-0.0800550999999999,,2,3.0
K3AsBr6,2.9068,-0.0174771,,2,3.0
ScCePb2,0.0,-0.0531673,,2,3.0
Ga3Ru2Ho2,0.0,-0.0316258,,2,3.0
In3Sn3Ce2,0.0,-0.0377021,,2,3.0
LiCl6K2Bi,3.5486,-0.0162112,,2,3.0
Fe8Ni,0.0,-0.0179814,,2,3.0
LiSc2Fe,0.0,-0.0122924,,2,3.0
Si2Ga3Y3Pd,0.0,-0.0214338,,2,3.0
S3GaIn,1.7639,-0.0164589999999999,,2,3.0
N2TeHf2,0.0,-0.0378856,,2,3.0
Fe2BrPr2,0.0,-0.0290566999999999,,2,3.0
O6V2MnBr2Cs2,0.571,-0.0180968,,2,3.0
Al3MnY2,0.0,-0.0167518,,2,3.0
I4Dy,0.0,-0.0400629,,2,3.0
S4ZnGeAg2,0.8714,-0.0171828,,2,3.0
KLuBi,0.0,-0.0479225,,2,3.0
B2O4Co,0.0,-0.0103438,,2,3.0
Rh7Th,0.0,-0.0418477,,2,3.0
ScZn2Pd,0.0,-0.0191193999999999,,2,3.0
Be4FeOs,0.0,-0.0182544,,2,3.0
B2LaOs2,0.0,-0.0408758,,2,3.0
K2MnSb2Ba,0.1466,-0.0255159999999999,,2,3.0
NSiSc3,0.0,-0.0136637,,2,3.0
Cu2ZnPr2,0.0,-0.026367,,2,3.0
SrTe3NdAu,0.4412,-0.0424982,,2,3.0
S3KCoTa,0.0,-0.0212165,,2,3.0
PFe5Ga,0.0,-0.016981,,2,3.0
Mg2ZrCd,0.0,-0.0178862999999999,,2,3.0
Sb2IPt2,0.0,-0.0506919,,2,3.0
Li3OF3Fe,0.0,-0.0078385,,2,3.0
ClLa2Au,0.0,-0.0423078,,2,3.0
GaTcHf2,0.0,-0.0446957,,2,3.0
O5Se2Zr2Eu2,0.0,-0.0248707,,2,3.0
GaSm2,0.0,-0.0355621,,2,3.0
Si2SnIr2,0.0,-0.0401201999999999,,2,3.0
Ga2Zr2Au,0.0,-0.0334483,,2,3.0
SiTm2Pt2,0.0,-0.0521873,,2,3.0
NaPCd,0.1976,-0.0154374,,2,3.0
F6RbOs,1.1829,-0.0165041,,2,3.0
LiMg2Sr,0.0,-0.0086654,,2,3.0
PdHgTl3,0.0,-0.0636396,,2,3.0
Ni2InLa2,0.0,-0.0308641,,2,3.0
Ga2LaHg2,0.0,-0.0429972,,2,3.0
O5VGa2,0.0,-0.0123973,,2,3.0
MnRh2Ho,0.0,-0.0344815,,2,3.0
MgPd4,0.0,-0.0276188,,2,3.0
BRh2La,0.0,-0.0302384,,2,3.0
ICs,3.8355,-0.0389943,,2,3.0
Sc2Pt2Bi,0.0,-0.0506644,,2,3.0
H4CuCs2,0.0,-0.0150294,,2,3.0
O6MgGd2Pt,2.0379,-0.0257173,,2,3.0
N3CoHo,0.1203,-0.0194668,,2,3.0
AlGa3,0.0,-0.0141336,,2,3.0
Br3CdIn,0.7606,-0.0252118,,2,3.0
GeDyOs,0.0,-0.0469183,,2,3.0
O6MgSnSm2,4.0571,-0.0197421,,2,3.0
Li4O7P2,5.7114,-0.0082916,,2,3.0
KSb2Ir,0.0,-0.0388827,,2,3.0
O6FeSr2Nb,0.0,-0.0160746,,2,3.0
Al3Si2Ce3Ir,0.0,-0.0283663,,2,3.0
Se5Sb2Pb2,0.0489,-0.0366462,,2,3.0
NdPtPb,0.0,-0.0642355,,2,3.0
PY,0.0,-0.0209853999999999,,2,3.0
O4AlIr,0.0,-0.0191953,,2,3.0
TiI3,0.0,-0.0323988,,2,3.0
CoAs2Dy6,0.0,-0.0389978,,2,3.0
CTi2Br2,0.0,-0.0174304999999999,,2,3.0
Zr2PdRe,0.0,-0.0419003,,2,3.0
N2PrDy,0.0,-0.0291717,,2,3.0
As2Sr2Hg,0.0978,-0.0316586,,2,3.0
Al3Fe7,0.0,-0.0152188,,2,3.0
H4NaIn,3.1928,-0.0085978999999999,,2,3.0
Al4IrU,0.0,-0.0347777,,2,3.0
O6CaNbLa2,0.1551,-0.0199813,,2,3.0
TiGe3Dy,0.0,-0.0248737,,2,3.0
Na2KAu,0.0,-0.0216521,,2,3.0
Si2Rh2Pr,0.0,-0.0273713,,2,3.0
P4Pd7Tb3,0.0,-0.0304618,,2,3.0
OZnSmBi,0.0953,-0.037426,,2,3.0
As2Pd2Ba,0.0,-0.0299453,,2,3.0
AlFe4,0.0,-0.0162016,,2,3.0
ClGaTm,0.0,-0.0268791,,2,3.0
Mg6SrY,0.0,-0.0100039,,2,3.0
N3MoNd,1.1337,-0.0223385,,2,3.0
Zn2As2Cd,0.0,-0.0196889,,2,3.0
Zr6RuTl2,0.0,-0.0407667,,2,3.0
Ge2Er3,0.0,-0.0386802,,2,3.0
SeTeAu2,0.0,-0.0489826,,2,3.0
CoSeBi,0.0,-0.0387872,,2,3.0
S2AgBa,0.0,-0.0237403,,2,3.0
InHo2Au,0.0,-0.0509433,,2,3.0
F8Na2CaNb,0.0,-0.0099855,,2,3.0
Na2SbCs,0.3773,-0.0213798,,2,3.0
Zn7Au,0.0,-0.0205148,,2,3.0
RuSn4,0.0,-0.0357279,,2,3.0
Sc2Ga2In,0.0,-0.0195962,,2,3.0
P2KNi4,0.0,-0.0138346,,2,3.0
AsSbPt2,0.0,-0.0499344,,2,3.0
Co2RhU,0.0,-0.0432472,,2,3.0
Be2TiPt2,0.0,-0.0339840999999999,,2,3.0
Mg2As2Np,0.0,-0.0320508,,2,3.0
CNb,0.0,-0.0221171,,2,3.0
SiCr2Os,0.0,-0.029944,,2,3.0
Al5RuTm,0.0,-0.0184987,,2,3.0
I3Ho,2.7589,-0.0413177,,2,3.0
Si3CaOs,0.0,-0.0227412,,2,3.0
HO2Nd,3.7617,-0.0176604,,2,3.0
LiF6PdTl2,0.0,-0.0220843999999999,,2,3.0
ClSbPb2,0.2068,-0.0496482,,2,3.0
PdTmTl,0.0,-0.0530832,,2,3.0
CGeLu3,0.0,-0.0397607,,2,3.0
Zr2Rh2In,0.0,-0.0333225,,2,3.0
ZnPd2La3,0.0,-0.0353924,,2,3.0
Sb2S19F12,1.9679,-1.419513633863635,mp-723419,2,3.0
B6CrRe13,0.0,-0.0495955,,2,3.0
Cu2ZnGeSe4,0.0,-0.0183085,,2,3.0
Li2O4AlNi,0.0,-0.0090289,,2,3.0
Nb2LaOs2,0.0,-0.0509829999999999,,2,3.0
O8P2RbNp,0.0,-0.0191896999999999,,2,3.0
Sn2Sb2Te5,0.0,-0.0371004,,2,3.0
Al5CaCo2,0.0,-0.0107403,,2,3.0
Ca2Ir2Pt,0.0,-0.0470634,,2,3.0
PTiNi5,0.0,-0.0158184,,2,3.0
Li3K2I5,3.8493,-0.0222017999999999,,2,3.0
H2Zr3Pb,0.0,-0.029599,,2,3.0
B2TiW2,0.0,-0.0345968,,2,3.0
Al2CoRh,0.0,-0.0176238999999999,,2,3.0
Cd2InAc,0.0,-0.0465164,,2,3.0
Ru2Pr,0.0,-0.0377853,,2,3.0
SrPdIn2,0.0,-0.0311618,,2,3.0
MgGa2Tb2,0.0,-0.0268608,,2,3.0
Al4CrHo,0.0,-0.016712,,2,3.0
Cd2InTm2,0.0,-0.0399836,,2,3.0
Cl2BrSb,2.6868,-0.0189121999999999,,2,3.0
Cl6Rb2MoAg,0.7996,-0.0170308,,2,3.0
As2Sb2Cs,0.0,-0.0307594,,2,3.0
Ti2Rh,0.0,-0.0226686,,2,3.0
Cl6K2ScTl,3.1216,-0.0171016,,2,3.0
Al2Eu2Tl,0.0,-0.0394296,,2,3.0
OCuSeTb,1.3179,-0.024253,,2,3.0
N3MoBa,0.5038,-0.0211625,,2,3.0
B3O6Tb,5.0031,-0.0136522,,2,3.0
CuEr3Os2,0.0,-0.0520521,,2,3.0
Be4O7Te,1.4103,-0.0105874,,2,3.0
NCl2Lu2,0.0,-0.0294395,,2,3.0
NaCa2Bi2,0.0,-0.0368806999999999,,2,3.0
Cl3CuBrCs2,0.0,-0.0206781,,2,3.0
Zn2BaPb2,0.0,-0.0440562,,2,3.0
Zn3ZrPd2,0.0,-0.0233637,,2,3.0
O4CoSm,0.0,-0.0164548,,2,3.0
PCeLu,0.0,-0.0378808,,2,3.0
C3YLa,0.0,-0.0205513,,2,3.0
ClSeLu,2.1281,-0.0300638,,2,3.0
SLu2,0.0,-0.0414482,,2,3.0
H8Mg2BaPt,0.0,-0.0126168999999999,,2,3.0
Al3Ge2AgTm3,0.0,-0.0282676,,2,3.0
CoSn3Gd,0.0,-0.0370924,,2,3.0
Cu2CdNd,0.0,-0.0263282,,2,3.0
Cd2SmTh,0.0,-0.0505265,,2,3.0
MnRuIr2,0.0,-0.0490942999999999,,2,3.0
F6NaP,7.3921,-0.0073781,,2,3.0
LiGeNd,0.0,-0.0224363,,2,3.0
Na2CrAs2,0.0,-0.0138727,,2,3.0
FSRb3,2.086,-0.0168898,,2,3.0
MgGe2Ru2,0.0,-0.0228966,,2,3.0
Cs3Bi,0.0,-0.0484314,,2,3.0
Al3FeGe2Np3,0.0,-0.0446293,,2,3.0
N3Sr3In,0.3405,-0.0189139,,2,3.0
Zn2InPr,0.0,-0.0264023,,2,3.0
KAs2Cd2,0.0,-0.0222374,,2,3.0
CrGa2Pa,0.0,-0.0379843,,2,3.0
Fe3Mo,0.0,-0.0222695,,2,3.0
N2NaRe,0.0,-0.0236614,,2,3.0
H4O4P2Zn,3.9184,-0.0078902,,2,3.0
Li2F4Cu,1.0294,-0.0074442,,2,3.0
Nb3Sb,0.0,-0.0345482,,2,3.0
WRe2Pt,0.0,-0.0706855,,2,3.0
SiFe3Ho2,0.0,-0.0273800999999999,,2,3.0
H8N4K2Zn,2.0015,-0.0067622,,2,3.0
Ni3Pd,0.0,-0.0202909,,2,3.0
Al2Ti2Au,0.0,-0.0239086,,2,3.0
Al2RhDy,0.0,-0.0252304,,2,3.0
BS3Pr,2.3038,-0.0174093,,2,3.0
Gd4Ga2O9,3.085299999999999,-3.371509364833332,mp-1178283,2,3.0
O6SiBrCs,1.4982,-0.0127169,,2,3.0
LiS2Ni,0.0,-0.0102543,,2,3.0
NSr,0.0,-0.0164734,,2,3.0
Mg3CaZn3,0.0,-0.0094591,,2,3.0
O6ZnPr2Pt,1.855,-0.0232014,,2,3.0
CaNdTl2,0.0,-0.0501075,,2,3.0
Li5Al3,0.0,-0.0045006,,2,3.0
OBrEu,0.0,-0.0290211,,2,3.0
S2MnSe2In2,0.0,-0.0213311,,2,3.0
Al7TmAu3,0.0,-0.0292249,,2,3.0
N3NdIr,0.0,-0.0289652,,2,3.0
LiS2Dy,1.7128,-0.0194563,,2,3.0
CaGeSe2,0.7005,-0.0181636,,2,3.0
Ni2CuNd,0.0,-0.0229074999999999,,2,3.0
MnSe2Rh,0.0,-0.0235118,,2,3.0
Ni2InHf,0.0,-0.0325449,,2,3.0
H6Rb3Ru,0.0,-0.0119815,,2,3.0
YZrPd2,0.0,-0.0317987,,2,3.0
S3InSb,1.2115,-0.0203814,,2,3.0
H4NiTh,0.0,-0.0214429,,2,3.0
ONa2Sb2Hf2,0.0,-0.0318553,,2,3.0
C3N6Y2,3.8999,-0.0138503,,2,3.0
O6V2Cd,2.145,-0.0137234,,2,3.0
F6RuAu,0.1242,-0.0171626,,2,3.0
S3CoRbHf,0.0,-0.0229955,,2,3.0
O6CuBa2Pu,0.123,-0.0267754,,2,3.0
OPdTb3,0.0,-0.0375404,,2,3.0
SCd,1.0958,-0.0207822,,2,3.0
Si3Tb,0.0,-0.0195227,,2,3.0
CTeLu2,0.0,-0.0405473,,2,3.0
LiRhIr2,0.0,-0.044759,,2,3.0
S4KAg2Sb,0.3051,-0.0188042,,2,3.0
MgAl2Pr2,0.0,-0.0217125,,2,3.0
Cl6CoRb2Ag,0.092,-0.0151614,,2,3.0
Nb2Sn,0.0,-0.0342967999999999,,2,3.0
F3NaMn,1.4551,-0.0095193,,2,3.0
Mg2As2Ba,0.9966,-0.0190673999999999,,2,3.0
Al3RhBa,0.0,-0.0198974,,2,3.0
NSc2Ga,0.0,-0.0149018,,2,3.0
F6ScBa,0.0,-0.0129412,,2,3.0
O7Sm2Bi2,0.1423,-0.0284585,,2,3.0
Cl2Gd,0.0,-0.0271919,,2,3.0
Ag2LaEu,0.0,-0.040205,,2,3.0
Li2MgPt,0.0,-0.0206298,,2,3.0
OAsPdDy,0.0,-0.0287897,,2,3.0
ZnTcRh2,0.0,-0.0293145,,2,3.0
Cu2ZnAu,0.0,-0.0284225,,2,3.0
BRh6Pr2,0.0,-0.0335927,,2,3.0
BNScCo,0.0,-0.0132733,,2,3.0
CaPdSn,0.0,-0.0270116,,2,3.0
LiSc2Os,0.0,-0.0261068,,2,3.0
MnTe,0.0,-0.0281687,,2,3.0
AsSe3Y4,0.0,-0.0259533999999999,,2,3.0
Al5Mn2Zr,0.0,-0.0137538,,2,3.0
KCdAu4,0.0,-0.0528181999999999,,2,3.0
O4SiNi2,0.6438,-0.0116756,,2,3.0
N2FeEu2,0.0,-0.0297556,,2,3.0
Cl6Rb2SbHg,0.0,-0.0207737,,2,3.0
Ti3Ni2Zn,0.0,-0.0159945,,2,3.0
RuIHo,0.0,-0.0410764,,2,3.0
AgCd4,0.0,-0.030606,,2,3.0
NaMnCu2As2,0.0,-0.0158547,,2,3.0
B2Ni7Tb3,0.0,-0.0228855,,2,3.0
LiCdHg,0.0,-0.0339685,,2,3.0
Be2Ti2Tc,0.0,-0.0154346,,2,3.0
MgSc2Rh2,0.0,-0.0210581,,2,3.0
YRhSn5,0.0,-0.0348315,,2,3.0
B3O6Nd,5.5152,-0.013332,,2,3.0
O8As2BaTh,3.941,-0.0212988,,2,3.0
H6IrPu2,0.0,-0.034936,,2,3.0
Li2Ge2Zr,0.0,-0.0152051,,2,3.0
Li2O4SiFe,0.0601,-0.009641,,2,3.0
LiO8Ni4,0.0,-0.0101832,,2,3.0
SiAu6,0.0,-0.0607644,,2,3.0
SbTeDy,0.0,-0.0419646,,2,3.0
C6Al4Hf3,0.0,-0.0221180999999999,,2,3.0
Ti2RuIr,0.0,-0.0354775,,2,3.0
O8P2CaPr,0.0,-0.0132306,,2,3.0
Zn2LaHo,0.0,-0.03015,,2,3.0
Mg2HoEr,0.0,-0.0273815,,2,3.0
Al2Cr2Ge,0.0,-0.0143092,,2,3.0
H2ZnNb2,0.0,-0.0175249,,2,3.0
O8CrFe3Zn2,0.0,-0.0125082,,2,3.0
Ge2Ru2Pr,0.0,-0.0310229,,2,3.0
NaTiBr6Rb2,0.0,-0.0195335,,2,3.0
ZnPd2In,0.0,-0.0286328,,2,3.0
S4ZrNb,0.0,-0.0184382,,2,3.0
O6Cu3Ba2La,0.0,-0.0192012,,2,3.0
N2TbTh,0.0,-0.0421295,,2,3.0
MgDyPb2,0.0,-0.051448,,2,3.0
GeI2Nd2,0.0,-0.0373177,,2,3.0
TiFePt2,0.0,-0.0445601,,2,3.0
H3ZrRe,0.0714,-0.0227681,,2,3.0
Fe3GePu2,0.0,-0.0490317,,2,3.0
Sr2Pd2Ba,0.0,-0.0304173,,2,3.0
F6Rb2CdCs,0.0,-0.0155465,,2,3.0
RbI3Eu,0.8141,-0.0386089,,2,3.0
Mg2TbIr,0.0,-0.0325557999999999,,2,3.0
S3CaAgBa,0.0,-0.019763,,2,3.0
FeCoPt2,0.0,-0.0443308,,2,3.0
S2TaAu,0.0,-0.0396073,,2,3.0
Pd2AgSn4,0.0,-0.0346559,,2,3.0
O2ClPb2,0.0,-0.03547,,2,3.0
SiFe2Mo,0.0,-0.0204227999999999,,2,3.0
LiMgPdTl,0.0,-0.0286026999999999,,2,3.0
B3FeNi,0.0,-0.0114366,,2,3.0
Si3NiTh2,0.0,-0.0404882,,2,3.0
Se2RbAg3,1.4842,-0.0263213,,2,3.0
O4CoTa,0.2863,-0.0204822,,2,3.0
Li3O6Zn2Sb,2.5642,-0.0109529,,2,3.0
Li2O8Fe3Co,0.0,-0.0107785,,2,3.0
KTmBi,0.0,-0.0467762,,2,3.0
Mg2AgTm,0.0,-0.023539,,2,3.0
SbAuPb2,0.0,-0.0645526,,2,3.0
O6ScCuBa2,0.0,-0.0168487,,2,3.0
C4NiTb3,0.0,-0.024942,,2,3.0
TbTmPb,0.0,-0.0586953,,2,3.0
CuZn2Y2,0.0,-0.0199392,,2,3.0
K2ZnPt,0.0,-0.0253459,,2,3.0
MgInSm,0.0,-0.0281595,,2,3.0
CrW4,0.0,-0.05938,,2,3.0
Li3P2Sc,0.0,-0.0080963999999999,,2,3.0
Cl7AsCs2,0.2819,-0.016397,,2,3.0
LiCoGe,0.0,-0.0130991,,2,3.0
NiNb,0.0,-0.0247951,,2,3.0
LiSe2Nb,0.586,-0.0201123,,2,3.0
K3Br6Nd,4.4601,-0.0205436,,2,3.0
NiIn2,0.0,-0.0277944,,2,3.0
GeRh3Tb2,0.0,-0.0366875,,2,3.0
O2FeRb,0.0,-0.0145311,,2,3.0
Co2CdTm2,0.0,-0.0339471,,2,3.0
FeZrSn,0.0,-0.0285838,,2,3.0
Li3F5Rb2,6.1177,-0.0095931,,2,3.0
Zn2CeDy,0.0,-0.0301632,,2,3.0
Li4O12MnTe3,0.8218,-0.0123666,,2,3.0
SKPd2,0.0,-0.0214481,,2,3.0
O2PdCs2,0.6999,-0.0252494,,2,3.0
Cu2LaPt,0.0,-0.0365185,,2,3.0
Ga2RuLa6,0.0,-0.0366829,,2,3.0
ScZrIr4,0.0,-0.0558056,,2,3.0
CoGa2Sm6,0.0,-0.0354846,,2,3.0
MgScIr4,0.0,-0.0512491,,2,3.0
O4AlSb,1.3956,-0.0139919,,2,3.0
S3Pd2In,0.0,-0.0217416,,2,3.0
B2CCo2Np,0.0,-0.0279405,,2,3.0
SbDy2,0.0,-0.0451616,,2,3.0
MgRu2Hf3,0.0,-0.0443228,,2,3.0
Al3Si2Eu2,0.0,-0.0219052,,2,3.0
O5K2Fe2,0.0,-0.0109004,,2,3.0
LiSe2Dy,1.3067,-0.0244904,,2,3.0
CaGdHg2,0.0,-0.0519067999999999,,2,3.0
AsCePt,0.0,-0.0464163,,2,3.0
O4Te3Ho4,0.4247,-0.0331,,2,3.0
MgRhPr,0.0,-0.0280287,,2,3.0
NiZn2In,0.0,-0.0192239,,2,3.0
Ni2CdTb2,0.0,-0.0317253,,2,3.0
S2RbDy,2.1144,-0.0240731,,2,3.0
Pd2Er3,0.0,-0.0441677,,2,3.0
Si3PdDy,0.0,-0.0228131,,2,3.0
AlGa2Sr,0.0,-0.0160488,,2,3.0
SiFe2Dy2,0.0,-0.0285963999999999,,2,3.0
MgSbTl,0.0,-0.0384546,,2,3.0
AlGeHf,0.0,-0.0302803,,2,3.0
LiAgCd,0.0,-0.0216028,,2,3.0
Au3Pb,0.0,-0.0708319999999999,,2,3.0
LiCl6Rb2Y,4.8663,-0.0143173,,2,3.0
Y6IrBi2,0.0,-0.0447374,,2,3.0
CuAs2,0.4221,-0.0185297,,2,3.0
ScGePt,0.0,-0.0358308,,2,3.0
O3Mn2Fe,0.0,-0.0138716,,2,3.0
HfIrPt2,0.0,-0.0696711,,2,3.0
GaSe2Tb,0.0406,-0.0271639,,2,3.0
Cu4Tb,0.0,-0.021644,,2,3.0
O8ScCuW2,0.9712,-0.0205834,,2,3.0
Ni2Ho3Pb3,0.0,-0.051389,,2,3.0
Al5CrDy,0.0,-0.0152801,,2,3.0
Mg2DyLu,0.0,-0.0283263999999999,,2,3.0
GaRh2Np2,0.0,-0.0598506,,2,3.0
CaAsAg,0.0227,-0.0212798,,2,3.0
B2O6CuSr2,0.5994,-0.0128419,,2,3.0
SbTe2Au,0.0,-0.0453506,,2,3.0
LiSiCu,0.0,-0.009367,,2,3.0
Ge2PdSm,0.0,-0.0297354,,2,3.0
Mn2CdLu3,0.0,-0.0390342,,2,3.0
NAgPr2,0.0,-0.0327217,,2,3.0
O2SePr2,2.0664,-0.0271414,,2,3.0
Al5NiU,0.0,-0.0229109,,2,3.0
AlRu2Pu2,0.0,-0.0597262,,2,3.0
Lu,0.0,-0.0553444,,2,3.0
NiGa3Br,0.0,-0.0172954,,2,3.0
SiCaAu2,0.0,-0.0401915,,2,3.0
H7LiMg2Os,3.2078,-0.0102932,,2,3.0
CuBr,1.0149,-0.0175991,,2,3.0
CNHfTa,0.0,-0.0383816,,2,3.0
N3MnCe2,0.0,-0.0240401,,2,3.0
Li5Tl2,0.0,-0.0227365,,2,3.0
Fe3Ga,0.0,-0.017887,,2,3.0
Al5Cu2Sr,0.0,-0.0117808,,2,3.0
Al4RhPu,0.0,-0.0297398,,2,3.0
MgGeTb,0.0,-0.0242791,,2,3.0
NaSi2Cu2,0.0,-0.0109573999999999,,2,3.0
KGa2Tl2,0.0,-0.0372915,,2,3.0
LaPb2,0.0,-0.0656221,,2,3.0
Fe4TcIr,0.0,-0.0297704,,2,3.0
PdSnPa2,0.0,-0.0672826,,2,3.0
Ge7Ir5,0.0,-0.041127,,2,3.0
LiScGe,0.0,-0.0126257,,2,3.0
H12C2N6F6Si,5.138,-0.0066798,,2,3.0
V2CrFe,0.0,-0.0180327,,2,3.0
Ge2RuLaIr,0.0,-0.0383615,,2,3.0
BaPt2Tl2,0.0,-0.0654101,,2,3.0
ScPd8,0.0,-0.0311468,,2,3.0
S2KCdAu,1.9702,-0.0262681,,2,3.0
MnCo2Dy2,0.0,-0.0298228,,2,3.0
SiTe3Lu4,0.0,-0.0440608,,2,3.0
Sc3Ru2Hg,0.0,-0.0308104,,2,3.0
ZnLu3Os2,0.0,-0.054394,,2,3.0
GePdTm2,0.0,-0.0397853,,2,3.0
Ge2PdSn3La3,0.0,-0.0350713999999999,,2,3.0
ZnRhLa,0.0,-0.0308402999999999,,2,3.0
Na2SiSe4Hg,1.526,-0.0216343,,2,3.0
Al3Si2CrCe3,0.0,-0.0222474,,2,3.0
P2Pd2Cs,0.0,-0.0254462,,2,3.0
NMg6AsBi2,0.1499,-0.0221767,,2,3.0
Si2Ga3Lu3Pt,0.0,-0.0348016,,2,3.0
H6RhSm2,0.0,-0.0165003,,2,3.0
Cl4SrEu,0.9693,-0.0206903,,2,3.0
Pd2CdPr2,0.0,-0.0373231,,2,3.0
H2PtTl,0.0,-0.0372801,,2,3.0
H6C2O7Ca,3.5972,-0.0073487,,2,3.0
SCuSb,0.0,-0.0208651,,2,3.0
NaZn2Ge2,0.0,-0.0140124,,2,3.0
Al3CuGe2La3,0.0,-0.0235537,,2,3.0
TiSbHo,0.0,-0.0348927,,2,3.0
Li2NiIn,0.0,-0.013817,,2,3.0
Cr4NbSn,0.0,-0.0237289,,2,3.0
O6AlCa2Ru,0.0,-0.0125698,,2,3.0
CO3Sr,4.3379,-0.0126921,,2,3.0
ClSeSm,2.2433,-0.0264649,,2,3.0
P4Mn6Zn,0.0,-0.0154754,,2,3.0
Ni2ZnW,0.0,-0.0289759,,2,3.0
Pd5Pm,0.0,-0.0352085,,2,3.0
LiO8P2Nb,2.7139,-0.0113942,,2,3.0
Si2PdEr,0.0,-0.026642,,2,3.0
BaAuBi,0.0,-0.0633939,,2,3.0
Ca3Au2,0.0,-0.0342851,,2,3.0
GaBr3Eu3,0.0,-0.0352135,,2,3.0
YI6Cs2,0.0,-0.037412,,2,3.0
Dy2Au2Hg,0.0,-0.0613825,,2,3.0
O5Cu3Ba2,0.0,-0.0171769,,2,3.0
H4NiPu,0.0,-0.0236083999999999,,2,3.0
LiHo2Tl,0.0,-0.0435063,,2,3.0
LiO4ScV,0.0,-0.0114197,,2,3.0
Co6As4Cd,0.0,-0.0196393999999999,,2,3.0
GeYPt,0.0,-0.0404423999999999,,2,3.0
PdIn2Lu,0.0,-0.0394436,,2,3.0
Ho3Pt2Au,0.0,-0.0607594,,2,3.0
PCl6BrCs2,0.8195,-0.0165639,,2,3.0
LiSiIr2,0.0,-0.0394816999999999,,2,3.0
Mg2SSe,2.8199,-0.0114532,,2,3.0
CuTm3Os2,0.0,-0.0528249,,2,3.0
NiCdIn2,0.0,-0.0283993,,2,3.0
LiBO3Cd,2.1744,-0.0119817,,2,3.0
Si2Th3,0.0,-0.0621574,,2,3.0
Zn2SbTl2,0.0,-0.0417031,,2,3.0
Sc5Pt,0.0,-0.0240732,,2,3.0
AlInTb2,0.0,-0.0341640999999999,,2,3.0
Li3Eu,0.0,-0.015139,,2,3.0
GeNdTa,0.0,-0.0437018,,2,3.0
LiSc2Y,0.0,-0.0145798,,2,3.0
AlSc2Au2,0.0,-0.0358665,,2,3.0
Al3Si2RhU3,0.0,-0.0434124,,2,3.0
LiBr6Cs2Tb,4.0574,-0.0261932,,2,3.0
F6MgPu,0.5224,-0.0207137999999999,,2,3.0
O3FeSn,0.0,-0.0160921999999999,,2,3.0
H6NO5PCu,0.0,-0.0074221,,2,3.0
O6Sr2RuPd,0.0,-0.0168358999999999,,2,3.0
S4MnGeRb2,1.0332,-0.0157407,,2,3.0
RuPd2Dy3,0.0,-0.0414767,,2,3.0
ZnPd2Tb2,0.0,-0.0353823999999999,,2,3.0
SiGaEr,0.0,-0.0262213,,2,3.0
O6CrNbBa2,0.4419,-0.0198138,,2,3.0
BaEuPb2,0.0,-0.0619025,,2,3.0
C5Ca4Co3,0.0,-0.0118481,,2,3.0
O5S2KTi2Y2,0.0,-0.015244,,2,3.0
Rb2Ag3In,0.0,-0.028238,,2,3.0
CrMn2Ni,0.0,-0.017997,,2,3.0
Li2NaAg,0.0,-0.0101682,,2,3.0
Co7As4,0.0,-0.0184128,,2,3.0
FeSe3HoTl,0.0,-0.0343817,,2,3.0
F6Rb2Nd,0.0,-0.0150566,,2,3.0
Mg2ZrPt,0.1029,-0.0284494,,2,3.0
FeNb2Re,0.0,-0.0390671999999999,,2,3.0
B6Fe2Nd,0.0,-0.0142661,,2,3.0
O6MoRuBa2,0.4362,-0.0210203999999999,,2,3.0
Al4CaAg,0.0,-0.0122486,,2,3.0
O2FSeCs,3.3591,-0.0164611,,2,3.0
TiAu5,0.0,-0.0605476,,2,3.0
NaGa4Sr,0.0,-0.0156874,,2,3.0
NiLa4,0.0,-0.0377978999999999,,2,3.0
H4Rb2Pt,3.3312,-0.0184312,,2,3.0
AgTe2Lu,0.7711,-0.0412438,,2,3.0
Cl2AsPt,0.0,-0.0271703,,2,3.0
SiCoTa,0.0,-0.0319565,,2,3.0
PScCo,0.0,-0.0151164,,2,3.0
B6Rh9Er2,0.0,-0.0271762,,2,3.0
F4Al,0.6918,-0.007269,,2,3.0
ScZr2In,0.0,-0.0275868,,2,3.0
LiMgCoGe,0.0,-0.0110869,,2,3.0
Zn3Cd,0.0,-0.0176766,,2,3.0
Li4O2F2Fe,0.0022,-0.0075602,,2,3.0
AsCeNd,0.0,-0.0372456,,2,3.0
Se2SnBa,1.4489,-0.0302718999999999,,2,3.0
ClI,1.3199,-0.0225153999999999,,2,3.0
H6RuTb2,0.0,-0.0171522,,2,3.0
Zn2TbDy,0.0,-0.0308123,,2,3.0
BPd4La,0.0,-0.0309895,,2,3.0
MgGeRu2,0.0,-0.0236786,,2,3.0
MgDyPt4,0.0,-0.0566573,,2,3.0
Sr5(Sb11O19)2,2.5443,-2.044198520076922,mp-1197996,2,3.0
Rh3Te2,0.0,-0.0355474,,2,3.0
Be13Dy,0.0,-0.0076372,,2,3.0
CdTbIr4,0.0,-0.0607232,,2,3.0
O3DyTm,4.5497,-0.0275613,,2,3.0
O4NaMnRb2,1.1397,-0.0130609,,2,3.0
Si2Fe2Th,0.0,-0.0310077,,2,3.0
CePtBi2,0.0,-0.0686779,,2,3.0
BrHo,0.0,-0.0355819,,2,3.0
F2AlLa2,0.0,-0.0227199999999999,,2,3.0
Ni2InPt,0.0,-0.0341958,,2,3.0
Al3Hf2Au,0.0,-0.0369638,,2,3.0
PdPrHg,0.0,-0.0488983,,2,3.0
Pd2SbPm,0.0,-0.0376013,,2,3.0
CuLu2Ir,0.0,-0.0500996,,2,3.0
LuIr3,0.0,-0.0678782,,2,3.0
CGe2W2Th,0.0,-0.0475252,,2,3.0
O3HoLu,4.6482,-0.0285448,,2,3.0
Sb3Au,0.0,-0.0453219,,2,3.0
S2NiRb,0.0,-0.0147398,,2,3.0
Pd2LuTh,0.0,-0.0550352,,2,3.0
NiSbTm,0.2615,-0.0361104,,2,3.0
In2Hg2Pb,0.0,-0.0557345,,2,3.0
S8Mo6Dy,0.0,-0.0232888,,2,3.0
Al9Fe3Sm,0.0,-0.0133782,,2,3.0
FeGe3Tb,0.0,-0.0249037,,2,3.0
LiSc2Pt,0.0,-0.026168,,2,3.0
Li2O6TeTa,0.0,-0.0167259,,2,3.0
O8MnAs2Ba,0.6417,-0.0142926,,2,3.0
Al3Ge2Hf3Ir,0.0,-0.0363797,,2,3.0
Cl8BaSm2,3.9026,-0.0201036,,2,3.0
B2Mn3Pa,0.0,-0.0286021,,2,3.0
AlZnNd,0.0,-0.0220944,,2,3.0
RhInSn,0.0,-0.0347631,,2,3.0
Hf6AuPb2,0.0,-0.0666363,,2,3.0
O6CaZrLa2,4.261,-0.0200617,,2,3.0
KInSb,0.2126,-0.0267714,,2,3.0
KSn2Ir,0.0,-0.0380910999999999,,2,3.0
O6MgCuPr2,0.1059,-0.0170247,,2,3.0
AsCdAu5,0.0,-0.0566668,,2,3.0
O2RhAu,0.3171,-0.0295606,,2,3.0
CrPt7,0.0,-0.0638915999999999,,2,3.0
MgZn2Zr,0.0,-0.0159693,,2,3.0
NiCuZr,0.0,-0.0210091,,2,3.0
NiBaPb2,0.0,-0.0521854,,2,3.0
RuEr6Tl2,0.0,-0.0539799,,2,3.0
PI2Np2,0.0,-0.0602411,,2,3.0
Na3AsSe4,0.3731,-0.01498,,2,3.0