formula,bg,formation_energy,mp-id,fidelity,bg_category
S2InHf,0.0,-0.0300925,,2,3.0
HRh3Cd,0.0,-0.0270549,,2,3.0
Ru2CdEr3,0.0,-0.0424074,,2,3.0
LiZn2Hg,0.0,-0.0245713,,2,3.0
Li5O10Fe2Ir2,0.0,-0.0149003,,2,3.0
AlYAg4,0.0,-0.0270387999999999,,2,3.0
Co2InU,0.0,-0.0428707,,2,3.0
HFeNi,0.0,-0.0126211,,2,3.0
CaPdSn2,0.0,-0.0292977,,2,3.0
TiBi2Th6,0.0,-0.0834178,,2,3.0
MgCuAs,0.0,-0.0138707,,2,3.0
CrZn2Tc,0.0,-0.0201137,,2,3.0
ZnPrAu2,0.0,-0.0495518,,2,3.0
CaTe3Ta,0.0,-0.0378806999999999,,2,3.0
Dy2Ir2Pb,0.0,-0.0634372,,2,3.0
Al2Ni3Tm,0.0,-0.0199866,,2,3.0
LiIn2Gd,0.0,-0.0324846,,2,3.0
HLi2OI,4.3551,-0.011796,,2,3.0
Sc3Ru2Ir,0.0,-0.0314372,,2,3.0
PErPt,0.0,-0.0452006,,2,3.0
Al2SrPt3,0.0,-0.0426573,,2,3.0
Li2AlAu2,0.0,-0.0307455999999999,,2,3.0
Br7Nb3Te,0.6254,-0.0258084,,2,3.0
AsBrSm2,0.0,-0.0337076,,2,3.0
GaRb2Au,0.0,-0.0319831,,2,3.0
Cl5Pa,2.524,-0.0252339,,2,3.0
SILa,2.6866,-0.0319529,,2,3.0
TiZr2Ir2,0.0,-0.044811,,2,3.0
O4GaBi,0.0353,-0.0212247,,2,3.0
O6FTa2Bi,2.299,-0.0278749,,2,3.0
Cu5Ho,0.0,-0.0210504,,2,3.0
Al6BaPt,0.0,-0.0201207999999999,,2,3.0
F6ErTm,7.273,-0.0197936,,2,3.0
LiMgSc2,0.0,-0.008929,,2,3.0
H5RuLa2,0.0,-0.0178895,,2,3.0
SiErPt2,0.0,-0.051554,,2,3.0
HPCa,0.2593,-0.008688,,2,3.0
MgIn2Pr2,0.0,-0.0322376999999999,,2,3.0
CuMoTa2,0.0,-0.0458564,,2,3.0
Si4Ca3Pd4,0.0,-0.019034,,2,3.0
F8Al2Ca,7.3361,-0.0087196,,2,3.0
NiAs2Lu2,0.0,-0.0347607,,2,3.0
B2CScCo2,0.0,-0.0127268,,2,3.0
SAsCe,0.0,-0.0265486,,2,3.0
O6NaSc2Bi,1.643,-0.0173496,,2,3.0
Al3FeBa,0.0,-0.0163806,,2,3.0
CaIn,0.0,-0.0221441,,2,3.0
CaGa2Au2,0.0,-0.0368616,,2,3.0
MoRu2Ir,0.0,-0.0441113,,2,3.0
MgKSe3Er,2.3024,-0.0223938999999999,,2,3.0
O6Ca2IrPt,0.0,-0.021677,,2,3.0
MgHgPb,0.0,-0.0497847,,2,3.0
S3RhHfTl,0.0,-0.0339526,,2,3.0
Al2NiY2,0.0,-0.0179511,,2,3.0
MgSi2Os2,0.0,-0.0341087,,2,3.0
Cl6KRb2Tb,4.7561,-0.0167754,,2,3.0
Ga2Ag2Th,0.0,-0.0386158,,2,3.0
F4Na2Ag,0.5769,-0.0099457,,2,3.0
HRb,2.6678,-0.0123562999999999,,2,3.0
O8RbMo2Tl,3.2006,-0.0195960999999999,,2,3.0
GaCd3Ba,0.0,-0.0298096,,2,3.0
CdTe2Pb,0.0,-0.0455208,,2,3.0
SbCsHg,0.0,-0.0482605,,2,3.0
C2Cl5Y4,0.0,-0.0174091,,2,3.0
SeBrLa2,0.0,-0.0332506,,2,3.0
MnPtAu2,0.0,-0.0571032,,2,3.0
O6TiEu2Ta,0.0,-0.0260368,,2,3.0
GaAsPt5,0.0,-0.0557694,,2,3.0
NiZnPd2,0.0,-0.0240884,,2,3.0
AlGa2Tb,0.0,-0.0223433,,2,3.0
CaI6Ba2,2.3639,-0.0362235,,2,3.0
F4CuZn,0.8327,-0.009264,,2,3.0
O4TbHf,0.0,-0.0258074,,2,3.0
Sc6ZnAs2,0.0,-0.0162571,,2,3.0
AlSiCs,0.0,-0.0186189,,2,3.0
F6ZrAg,0.0898,-0.0133162,,2,3.0
AlNi2Pt,0.0,-0.0282723,,2,3.0
Al2PPb,0.0,-0.0255368,,2,3.0
Hg2PbBi,0.0,-0.0725822,,2,3.0
LiNLa3,0.0,-0.0287853,,2,3.0
Ni2Ga3,0.0,-0.0167305999999999,,2,3.0
NiRhLu2,0.0,-0.0409883,,2,3.0
Be5Hf,0.0,-0.0142852,,2,3.0
Rb2Pt3,0.0,-0.0506077999999999,,2,3.0
Li4O8MnFe3,0.0,-0.0102227,,2,3.0
LiMgIr,0.0,-0.0264781,,2,3.0
MgCu4Hg,0.0,-0.0223932,,2,3.0
ScCoZn,0.0,-0.0152432,,2,3.0
Ru8Pt,0.0,-0.0386891,,2,3.0
HNi3Zn,0.0,-0.0132319,,2,3.0
Ag2TmTl,0.0,-0.0469872999999999,,2,3.0
SiCuPa,0.0,-0.0420139,,2,3.0
CaBr3Tl,3.4856,-0.029816,,2,3.0
Al2Se4Ba,2.9853,-0.0208311999999999,,2,3.0
LiSr2Pd,0.0,-0.0201858,,2,3.0
GaPdAc2,0.0,-0.0581338999999999,,2,3.0
NiBr4Tl2,0.2327,-0.034772,,2,3.0
KCaSb2,0.0,-0.0238233999999999,,2,3.0
Y3Pt2Au,0.0,-0.0501746,,2,3.0
Y2Pd2Au,0.0,-0.0390803,,2,3.0
Ca2As2Cd,0.9073,-0.0190925,,2,3.0
CoGa4Nd,0.0,-0.0215822,,2,3.0
CaAg2Dy,0.0,-0.0303774,,2,3.0
S3MnHoTl,0.0,-0.0295296,,2,3.0
N3GdRe,0.0,-0.032333,,2,3.0
AsAgI4,0.409,-0.0332359999999999,,2,3.0
ZnIn5Ce,0.0,-0.0324188,,2,3.0
Li3Ir2,0.0,-0.0301263,,2,3.0
ClZnY,0.0,-0.0178214,,2,3.0
BPd6Cd2,0.0,-0.0298754,,2,3.0
O4MnRh,0.0,-0.0143789,,2,3.0
Cu2As2RbTb,0.0,-0.0238125,,2,3.0
LiPd2Te,0.0,-0.0268651,,2,3.0
GaLu2,0.0,-0.0428477,,2,3.0
As2Rb2Tl,0.0,-0.0311798,,2,3.0
Ge3RhNp,0.0,-0.0400006,,2,3.0
SiS4Cu2Cd,1.0505,-0.0142853999999999,,2,3.0
V2Re,0.0,-0.0357979,,2,3.0
BeSnTm,0.0,-0.031183,,2,3.0
LiCoLa3,0.0,-0.0297786,,2,3.0
HClRb2,3.7339,-0.0143869,,2,3.0
Si3CuHo2,0.0,-0.024633,,2,3.0
Ag2PbBi,0.0,-0.0541648,,2,3.0
NaPdHg3,0.0,-0.048436,,2,3.0
Zr2TcRe,0.0,-0.0422725,,2,3.0
Cl6K2Re,0.7461,-0.0165354,,2,3.0
RbSrSb,1.3362,-0.0276528999999999,,2,3.0
SSnGd,0.0,-0.0362322,,2,3.0
LiO12NbTe3,1.7791,-0.0145315999999999,,2,3.0
S2KCu2,0.0,-0.0122833,,2,3.0
ZnGaPa,0.0,-0.0434067999999999,,2,3.0
AsI2Nd2,0.0,-0.037838,,2,3.0
OK2Se4,0.4038,-0.0155734,,2,3.0
In3Ho3Ir2,0.0,-0.0494717,,2,3.0
MnCo3Nd2,0.0,-0.0261594,,2,3.0
LiErHg2,0.0,-0.0478692,,2,3.0
InSnTe2,0.0,-0.0361873999999999,,2,3.0
Si3RuU,0.0,-0.0340627,,2,3.0
Sr2PdAu,0.0,-0.0373547,,2,3.0
Ce2Pt,0.0,-0.0538837,,2,3.0
Si3SmOs,0.0,-0.0299419,,2,3.0
Al13Si4Cr4,0.0,-0.0103787,,2,3.0
CuPdPm2,0.0,-0.034516,,2,3.0
LiSiPt2,0.0,-0.0390812,,2,3.0
Al4AuTh,0.0,-0.0331954,,2,3.0
ErHf5,0.0,-0.0605893999999999,,2,3.0
O4Cr2Cu,0.0,-0.0130324,,2,3.0
Ti6As2Rh,0.0,-0.0197433,,2,3.0
SiCo3Er2,0.0,-0.0275020999999999,,2,3.0
Zn4Au,0.0,-0.0247721,,2,3.0
CaSe3TmAu,0.9898,-0.0333817999999999,,2,3.0
S3CuRhCs,0.0,-0.0199272,,2,3.0
O7Si2ZrBa,4.3938,-0.0154568,,2,3.0
Zn2NdEr,0.0,-0.0306241999999999,,2,3.0
K3Au2,0.0,-0.0329326999999999,,2,3.0
Al2RuEr,0.0,-0.0258594,,2,3.0
Pd4La,0.0,-0.0354322,,2,3.0
F8K2CaNp,0.3387,-0.0171317,,2,3.0
O3Ir,0.0,-0.0230315,,2,3.0
Cd5Nd,0.0,-0.032867,,2,3.0
Rh3Pd3U2,0.0,-0.0514107,,2,3.0
Co2InTm2,0.0,-0.0347100999999999,,2,3.0
Br6Cs2Nd,0.0,-0.0279925,,2,3.0
Si2Hf,0.0,-0.0280971,,2,3.0
LiN2V,1.3136,-0.0106692,,2,3.0
Ca2RbBi2,0.0,-0.0401782,,2,3.0
O4ClScSb2,0.9046,-0.0173424,,2,3.0
CoNb3,0.0,-0.0291676,,2,3.0
O4CoGa2,0.4127,-0.0125419,,2,3.0
Ag7Pb6,0.0,-0.0517874,,2,3.0
O8P2SrHo,0.0,-0.0147936,,2,3.0
MgGa2Ru,0.0,-0.0184791,,2,3.0
N6O12K2CoBa,0.0948,-0.0102096,,2,3.0
LiSeTl,0.0,-0.0324085,,2,3.0
LiO12Ba4Bi3,0.2973,-0.0254655,,2,3.0
O4IGdBi2,1.2174,-0.0366455,,2,3.0
Li2O6V3,0.0,-0.0111548999999999,,2,3.0
B2Co2Nb,0.0,-0.0169934,,2,3.0
CBrPu,0.0,-0.047277,,2,3.0
Ge3Tm,0.0,-0.0277476999999999,,2,3.0
CuSm2Ir,0.0,-0.0444135,,2,3.0
Ni2CuZn,0.0,-0.0153449,,2,3.0
PdCeBi2,0.0,-0.0593394,,2,3.0
GeZrNd,0.0,-0.0318623,,2,3.0
O6ZnRhPr2,0.0,-0.019599,,2,3.0
Si2Zr,0.0,-0.0175432,,2,3.0
Al3FeY2,0.0,-0.0166453,,2,3.0
CAlDy3,0.0,-0.0327215,,2,3.0
AgBi,0.0,-0.0548708,,2,3.0
BeOs2,0.0,-0.0495788,,2,3.0
V2Se3,0.0,-0.0198241,,2,3.0
CFe2Sn2Pr2,0.0,-0.0296314,,2,3.0
Al3Sn2Ho3Ir,0.0,-0.0357033,,2,3.0
Al3Rh2Tb,0.0,-0.0239457,,2,3.0
Cl4CrRb2,0.0,-0.0149862,,2,3.0
Y2Pd2Cd,0.0,-0.0312234,,2,3.0
K2Se,2.1156,-0.0135221,,2,3.0
Pm2OsAu,0.0,-0.0577616,,2,3.0
O4NbLa,3.931,-0.0202211999999999,,2,3.0
Al3In2Ho3Au,0.0,-0.034737,,2,3.0
Ca2ScPt2,0.0,-0.0358021,,2,3.0
Br2Te,1.092,-0.0256501,,2,3.0
Al3Sn2Tm3Ir,0.0,-0.0366392,,2,3.0
F6GaTm,6.6222,-0.0147819,,2,3.0
AsSrPb,0.0,-0.0402555,,2,3.0
Al3Si2Pr2,0.0,-0.0190796999999999,,2,3.0
Sn4Pt,0.0,-0.0430286,,2,3.0
NaTe2Nd,0.9594,-0.0320839,,2,3.0
Pd2CdTb2,0.0,-0.0387753,,2,3.0
Mg2AgSm,0.0,-0.0217265,,2,3.0
HfPt7,0.0,-0.0698022,,2,3.0
OBrHo,4.3211,-0.0281366,,2,3.0
Sn6TbAu4,0.0,-0.0493109,,2,3.0
GaPdSn,0.0,-0.028768,,2,3.0
Zn5Ir4,0.0,-0.0392461,,2,3.0
F6IrPt,0.0686,-0.0216517,,2,3.0
ClCoDy,0.0,-0.0256014,,2,3.0
PTiPt,0.0,-0.0332815,,2,3.0
CoGe3Tb,0.0,-0.024834,,2,3.0
S2Np,0.0,-0.043348,,2,3.0
Al3CuSn2Er3,0.0,-0.0296592,,2,3.0
NiGe2Tm6,0.0,-0.0411529,,2,3.0
MgGa2Pr2,0.0,-0.0254444,,2,3.0
Ga2Ru3Pr,0.0,-0.0304549,,2,3.0
O2TeLu2,0.5995,-0.0353498,,2,3.0
ZnYZr2,0.0,-0.025846,,2,3.0
Zn2In2Hg,0.0,-0.0323001,,2,3.0
Cl6RbCs2Tm,5.0005,-0.0219953,,2,3.0
SiLa2Tl,0.0,-0.0427563,,2,3.0
S3SrAgSm,1.5506,-0.0229891,,2,3.0
Se3NdLu,0.3084,-0.0339624,,2,3.0
Mg2CaLu,0.0,-0.0187452,,2,3.0
HoTl2,0.0,-0.064973,,2,3.0
Pt2PbTh2,0.0,-0.0828187,,2,3.0
NMn3Ru,0.0,-0.0200258,,2,3.0
OF5NaNbCs2,0.9602,-0.0167016,,2,3.0
MnPdAg2,0.0,-0.0286511,,2,3.0
AlCuPr,0.0,-0.0225153,,2,3.0
MgSe2Pb,0.6502,-0.0311852,,2,3.0
Tc5Re,0.0,-0.0410694999999999,,2,3.0
Sc6FeGa2,0.0,-0.0154972,,2,3.0
GePtPu2,0.0,-0.0777161,,2,3.0
Ca3BaIr,0.0,-0.0281494,,2,3.0
O7Nb2Pu2,0.0,-0.0327188,,2,3.0
LiNaPb2,0.0,-0.0398602,,2,3.0
F7RbTl2,2.0259,-0.021171,,2,3.0
CaSc2Os,0.0,-0.0278242,,2,3.0
HoAu2,0.0,-0.0635131,,2,3.0
Li3Sb2Dy,0.0,-0.0224572,,2,3.0
MgY2Os,0.0,-0.0334246,,2,3.0
Rh2In3Ho3,0.0,-0.0401542,,2,3.0
F4CuAg,0.0,-0.0116088,,2,3.0
PCePr,0.0,-0.0339094,,2,3.0
Li3Sb2Th,0.0,-0.0303487,,2,3.0
O3YTm,3.2936,-0.0235673,,2,3.0
Mg3Rh2Ba,0.0,-0.0206596,,2,3.0
SiGdPt2,0.0,-0.0535663,,2,3.0
NHf2Au,0.0,-0.0523461,,2,3.0
LiP2PrPt2,0.0,-0.0356292,,2,3.0
LiO6FNb2Ce,0.0,-0.0169935,,2,3.0
Al5Fe2La,0.0,-0.0151178,,2,3.0
CuSe3PrPb,1.1019,-0.0335195,,2,3.0
AlFe2Tm2,0.0,-0.0297193,,2,3.0
HGaGeLa,0.0,-0.0211245,,2,3.0
MgKCd4,0.0,-0.0225432,,2,3.0
GeOs3Pa2,0.0,-0.0728035,,2,3.0
Mn2Ge2Dy,0.0,-0.0251329,,2,3.0
B2O6SrHo,0.0,-0.0153315999999999,,2,3.0
B2Ca3Rh7,0.0,-0.0239192,,2,3.0
O6MgPdPr2,1.7661,-0.0188802,,2,3.0
Si3NiCe2,0.0,-0.0232693,,2,3.0
GeSnDy,0.0,-0.0349598999999999,,2,3.0
P3SeIn4,0.0,-0.0233566,,2,3.0
Ba4Sm3Cl16,0.0,-2.7916524121739132,mp-1196927,2,3.0
CuPt2Au,0.0,-0.0562569999999999,,2,3.0
AlSm2,0.0,-0.0325067,,2,3.0
Co5Ta3,0.0,-0.0358220999999999,,2,3.0
Li8Se,0.0,-0.0047215999999999,,2,3.0
Al2NiEu,0.0,-0.0218774,,2,3.0
In2DyPt,0.0,-0.0471177,,2,3.0
F6MgW,0.0,-0.0149354,,2,3.0
S4Cu2InHg,0.0,-0.0216974,,2,3.0
F6ScPt,0.4581,-0.0158895,,2,3.0
Ni2PbPa2,0.0,-0.061825,,2,3.0
F6CoBi,0.8167,-0.0169192,,2,3.0
InTe2U,0.0,-0.0532551,,2,3.0
RhPb3,0.0,-0.0652662,,2,3.0
TbAuBi,0.0,-0.0656527,,2,3.0
CScI,0.0,-0.0212131,,2,3.0
GeAgBa,0.0,-0.0304705,,2,3.0
O4Na2MgGe,3.2873,-0.0093962,,2,3.0
S2HfHg,0.0,-0.0387967,,2,3.0
In5Tm4Os2,0.0,-0.0475615,,2,3.0
SiGeHo2,0.0,-0.0326628,,2,3.0
Be2CoCu,0.0,-0.0105891,,2,3.0
HCs3Au,0.0,-0.0374196,,2,3.0
Si2ScTa,0.0,-0.0258405,,2,3.0
CaYAu2,0.0,-0.0450035,,2,3.0
Cu2Sb2Cs,0.0,-0.0287323,,2,3.0
Al3MnTm2,0.0,-0.0247393,,2,3.0
Sn3Os2Th3,0.0,-0.0679333,,2,3.0
PNp,0.0,-0.0593999,,2,3.0
O3NaAs,3.2165,-0.0102718,,2,3.0
Co2Sn3Nd3,0.0,-0.0346487,,2,3.0
O4TiCs3,0.0,-0.0214149,,2,3.0
AsSeLa2,0.0,-0.0336753,,2,3.0
F6TiTm,0.0,-0.0150791,,2,3.0
Cl6Rb3Ho,5.189,-0.0182675,,2,3.0
Fe2CoIr,0.0,-0.0313922,,2,3.0
Cu3EuPt2,0.0,-0.0404059,,2,3.0
Co2Ge2Zr,0.0,-0.0212105,,2,3.0
AgLa,0.0,-0.0375613,,2,3.0
NiRh2Ho2,0.0,-0.0371038,,2,3.0
Si2Y2Rh,0.0,-0.0229029,,2,3.0
O6MgSr2Au,0.0,-0.0175225,,2,3.0
Al2CuNd,0.0,-0.0190602,,2,3.0
CdITh,0.1612,-0.0549736,,2,3.0
Li2Mg2Si2Nd,0.0,-0.0115828,,2,3.0
S2Tc,0.9823,-0.0188126,,2,3.0
Mg2ScSb2,0.0,-0.020268,,2,3.0
NSnHo3,0.0,-0.0396616,,2,3.0
ZnGa3Sm,0.0,-0.0219519,,2,3.0
Co2InEr,0.0,-0.0298857,,2,3.0
PCuSm,0.0,-0.0244725,,2,3.0
AlScHg2,0.0,-0.0399712,,2,3.0
CoRu2Ta,0.0,-0.0385625,,2,3.0
MnRh2In,0.0,-0.0303424,,2,3.0
NaSn2Ba2,0.0,-0.0316045,,2,3.0
AgHo,0.0,-0.0405715,,2,3.0
OF5Rb2ZrTl,3.9515,-0.0199103999999999,,2,3.0
Co2In3La3,0.0,-0.0334418,,2,3.0
AlScOs,0.0396,-0.0319603,,2,3.0
LiNi2Sb2Ce,0.0,-0.0263064,,2,3.0
Se2SmTl,0.86,-0.0407873,,2,3.0
V2MoW,0.0,-0.0350095,,2,3.0
SnBa2Bi2,0.0,-0.05521,,2,3.0
LiCl3Sn,3.3683,-0.0138668,,2,3.0
O2Cl4K2Pa,0.0674,-0.020135,,2,3.0
NSr2,0.0,-0.0186478,,2,3.0
Zn2TlTh2,0.0,-0.0585409,,2,3.0
Co3Ni2La,0.0,-0.0212651,,2,3.0
ScNi5,0.0,-0.0161316,,2,3.0
KCsHg2,0.0,-0.0458651,,2,3.0
Zn3Tm2,0.0,-0.0292242999999999,,2,3.0
RuIrPt,0.0,-0.058756,,2,3.0
Zn2GdPt,0.0,-0.039816,,2,3.0
Sc4Pd2In5,0.0,-0.0270291,,2,3.0
O9Tb5,0.0,-0.0240177,,2,3.0
S4MnNb,0.0,-0.0158723,,2,3.0
Li2SiIr,0.0,-0.0220736,,2,3.0
Sc2CoZr,0.0,-0.0192821,,2,3.0
PtPu,0.0,-0.0908523,,2,3.0
PCoU2,0.0,-0.0591239,,2,3.0
LiCl3Ba,4.1099,-0.0156441,,2,3.0
Si2BaAu2,0.0,-0.0401383,,2,3.0
Ge2Au2Tl,0.0,-0.04977,,2,3.0
AlFe2Th2,0.0,-0.0472697999999999,,2,3.0
Y2Ag2La,0.0,-0.0325668999999999,,2,3.0
GaRh2Ce,0.0,-0.0329506,,2,3.0
Ni4ZnLu,0.0,-0.0226672,,2,3.0
SeCsHg,1.9564,-0.0428288999999999,,2,3.0
GeAu2Pu,0.0,-0.0672588,,2,3.0
GeOsPa,0.0,-0.0641898,,2,3.0
SiRhPr,0.0,-0.0300877,,2,3.0
O6CoSr2Sb,0.1092,-0.0159145,,2,3.0
B12LaCe,0.0,-0.0132344,,2,3.0
Al3CrGe2Er3,0.0,-0.0263445,,2,3.0
BeSiPt,0.0,-0.0288705,,2,3.0
Be2Mn2Os,0.0,-0.0236679999999999,,2,3.0
Li2F8CaFe,0.5091,-0.0079446,,2,3.0
Te2TbAu,0.1297,-0.0485998,,2,3.0
Sc4Tc3,0.0,-0.0233482,,2,3.0
H2Cr2Re,0.0,-0.022857,,2,3.0
O6MgCr2,1.0321,-0.0110029,,2,3.0
S4K3As,1.9323,-0.0114816,,2,3.0
Mg2Zn2Bi,0.0,-0.0231644,,2,3.0
TiNbW2,0.0,-0.0471011,,2,3.0
Al2ZrRu,0.0,-0.0209798,,2,3.0
ZnDy2Os2,0.0,-0.0509988,,2,3.0
Mg5Ru,0.0,-0.0099864,,2,3.0
Er2TlPb,0.0,-0.0627222,,2,3.0
SiAuPu2,0.0,-0.0751632,,2,3.0
Ga2Sb2Ba,0.0179,-0.0298803,,2,3.0
KAg,0.0,-0.0198099,,2,3.0
Sc2Cu2Zn,0.0,-0.0148379999999999,,2,3.0
Mn2NiOs,0.0,-0.0312857999999999,,2,3.0
NaS2Th,0.0,-0.031682,,2,3.0
YPmIr2,0.0,-0.0543522,,2,3.0
BeSc2Au,0.0,-0.0260821,,2,3.0
MgSnCs2,0.3304,-0.0293554,,2,3.0
O7Eu2Ta2,0.2192,-0.0290059,,2,3.0
ZnBaBi2,0.0,-0.0531064,,2,3.0
Cs2PtBi2,0.3792,-0.0610499,,2,3.0
PFeTc2,0.0,-0.0248855,,2,3.0
O6TiBa2Ir,0.0,-0.0229593,,2,3.0
MgHg2Th,0.0,-0.0597454,,2,3.0
LiP2Pt2U,0.0,-0.0453175,,2,3.0
Cl2Br2Hf,1.7494,-0.0251998,,2,3.0
S6Mn3Rh,0.0,-0.0154009,,2,3.0
P2Pd2Ba,0.0,-0.026062,,2,3.0
O2Br2LaGd,2.8994,-0.0287559,,2,3.0
LiLa2Au,0.0,-0.0399436,,2,3.0
Al2Au2Tl,0.0,-0.0456023,,2,3.0
Sr2TeI2,2.6546,-0.0329587,,2,3.0
LiNi2Sb2Lu,0.0,-0.0280728,,2,3.0
Cl2Ca2Se,3.2142,-0.0135614,,2,3.0
O7Si2BaHf,4.7876,-0.0183804,,2,3.0
RhLaPb2,0.0,-0.0577253,,2,3.0
LiF6K2Sc,6.9499,-0.0090318,,2,3.0
O7Pr2Th2,2.6745,-0.0331387,,2,3.0
Y2Bi,0.0,-0.0455259,,2,3.0
H2Rh2W,0.0,-0.0289128,,2,3.0
Si2BaPt2,0.0,-0.0410238,,2,3.0
BePK,1.9434,-0.0082890999999999,,2,3.0
AlOs5,0.0,-0.0612963,,2,3.0
OICe,0.0,-0.0320687,,2,3.0
GePdLa2,0.0,-0.0353286,,2,3.0
O6MgSb2,1.1989,-0.0149452,,2,3.0
Nb5Ir7,0.0,-0.0558528,,2,3.0
RhLa2Pt,0.0,-0.0486567,,2,3.0
KBrRb3,0.0,-0.0187245999999999,,2,3.0
Ag2SnDy,0.0,-0.0370153,,2,3.0
OCuSeLu,1.1401,-0.0264015999999999,,2,3.0
GeRhTe3,0.0,-0.0332288,,2,3.0
H2CaGa2,0.0,-0.0102849,,2,3.0
Ta4Os,0.0,-0.0679454,,2,3.0
SiCoZr2,0.0,-0.0227992,,2,3.0
CuZrIn,0.0,-0.0268238999999999,,2,3.0
CrGa3Ge2Ho3,0.0,-0.0287693,,2,3.0
Li2GeEu,0.0,-0.0198506,,2,3.0
LiAlRb2Sb2,1.2053,-0.0216102,,2,3.0
NiRuGd2,0.0,-0.0424554,,2,3.0
Mg2As2Er,0.0,-0.0210705,,2,3.0
AlPt5Bi,0.0,-0.0629359,,2,3.0
Mg2Tl,0.0,-0.0276118,,2,3.0
Si2SnCe2,0.0,-0.0296428,,2,3.0
ZnTlPb2,0.0,-0.0592542,,2,3.0
O6FeNiSr2,0.0,-0.0137339,,2,3.0
As2PtTh6,0.0,-0.0771043,,2,3.0
O6Sr2RhIn,0.0,-0.016915,,2,3.0
NiZn2Th,0.0,-0.0351697,,2,3.0
B2FeW2,0.0,-0.0348126,,2,3.0
O8CrNiSrPr3,0.1404,-0.0199747999999999,,2,3.0
Si2Tm,0.0,-0.0244252,,2,3.0
NiGa5In,0.0,-0.0187628,,2,3.0
P2La,0.0,-0.0224398,,2,3.0
ScPt2,0.0,-0.052855,,2,3.0
RuTb6Pb2,0.0,-0.052464,,2,3.0
InI2Tb2,0.0,-0.0411370999999999,,2,3.0
CCl2Ce2,0.0,-0.0245661,,2,3.0
MgLa2Ir2,0.0,-0.0474435,,2,3.0
Ca2Se2Pd,0.0,-0.0198623,,2,3.0
CdPrAu,0.0,-0.0484561,,2,3.0
CoYSn2,0.0,-0.0297051,,2,3.0
O6CuSr2Mo,0.0,-0.0156139,,2,3.0
MgSi2Ca2,0.0,-0.0092895,,2,3.0
TeI2Dy2,0.0,-0.0426483,,2,3.0
CN2Cl2Ca2,4.542,-0.0108961,,2,3.0
Ru2SnEr2,0.0,-0.0418459999999999,,2,3.0
BrIn3Ir,0.0,-0.0386389,,2,3.0
LiO2CoRb,0.0313,-0.0120316,,2,3.0
BeVOs2,0.0,-0.0418515,,2,3.0
Al4MnLa,0.0,-0.0158216,,2,3.0
MnSb2Hf6,0.0,-0.0525411,,2,3.0
AgBiPu,0.0,-0.0734636,,2,3.0
CSi2Mo2Tb2,0.0,-0.0282635,,2,3.0
As2AuTl,0.0,-0.0455932,,2,3.0
NBr2Zr2,0.0,-0.0235713,,2,3.0
In2PmPu,0.0,-0.0554789,,2,3.0
Y2Rh2Bi,0.0,-0.0412084,,2,3.0
F6DyHg,0.0,-0.0197806,,2,3.0
SiP2Zn,1.1631,-0.0114693,,2,3.0
P3MnW2,0.0,-0.0318529,,2,3.0
N2GdTh,0.0,-0.0450731,,2,3.0
Sr2PtPb,0.0,-0.0484242,,2,3.0
ZrRuSb,0.0,-0.0350018,,2,3.0
Al3Sn2Tm3Pt,0.0,-0.0365537,,2,3.0
Al2ZnLu,0.0,-0.0214729,,2,3.0
PCaSr,0.0,-0.015097,,2,3.0
O8K3Gd,0.0,-0.0125138,,2,3.0
Si4Zr3Rh4,0.0,-0.0254491,,2,3.0
YPd2Pu,0.0,-0.0514003,,2,3.0
K2Br6MoAg,0.4402,-0.0210732,,2,3.0
Si2Ru2Ba,0.0,-0.0265429,,2,3.0
AlInNd,0.0,-0.028812,,2,3.0
H12O6Cl2Ca,5.0518,-0.0062742,,2,3.0
Hf2Hg,0.0,-0.0647373,,2,3.0
TiCu4Hg,0.0,-0.0242286,,2,3.0
O5CuBaPrBi,0.0,-0.0251985999999999,,2,3.0
Sm3Ir2Tl3,0.0,-0.0621901,,2,3.0
SrBaPt,0.0,-0.0447266,,2,3.0
AlCa2Ir,0.0,-0.0251279,,2,3.0
ZnGe2Dy2,0.0,-0.0302475,,2,3.0
B2O6F3Sm3,5.6203,-0.0176837,,2,3.0
F6NaRb2Pr,6.2263,-0.0144655,,2,3.0
Cs2Au3,0.0,-0.0570206,,2,3.0
MgCu4Pt,0.0,-0.0228863,,2,3.0
F6ScRb2Ag,3.0567,-0.0139762,,2,3.0
Pd2Sn2Ba,0.0,-0.0361512,,2,3.0
O7ScGe2Er,4.0474,-0.0161279,,2,3.0
Ag3Sm,0.0,-0.0348531,,2,3.0
HONd,1.8168,-0.0201418,,2,3.0
CdSn2Ir,0.0,-0.0435162,,2,3.0
YIr2Pu,0.0,-0.0706289,,2,3.0
F6CdLa,0.0,-0.0147523,,2,3.0
Zr2AgIn,0.0,-0.0318088,,2,3.0
SnTe4Bi2,0.2602,-0.0490482,,2,3.0
Al5NiHf,0.0,-0.0172586,,2,3.0
Fe2ZnCe2,0.0,-0.0278541,,2,3.0
SrCd2Pt,0.0,-0.038959,,2,3.0
LiPSc,0.0,-0.0100536999999999,,2,3.0
O2Mo,0.0,-0.0177908,,2,3.0
BSrRh3,0.0,-0.0265521,,2,3.0
CdPt3,0.0,-0.0604482,,2,3.0
Zr2ReOs,0.0,-0.0516471,,2,3.0
Co2Zr2Pt,0.0,-0.0338586,,2,3.0
S4Cu2ZnSn,0.0094,-0.0153227,,2,3.0
CoGeSm,0.0,-0.0275887,,2,3.0
Ti2PdAu,0.0,-0.0340418,,2,3.0
SbLa5,0.0,-0.0425394999999999,,2,3.0
AlP2Se7Rb,1.3716,-0.017808,,2,3.0
Y2AgTl,0.0,-0.0404094,,2,3.0
In3Sn2Ho3Ir,0.0,-0.044101,,2,3.0
N2MgCe,1.3588,-0.0183634,,2,3.0
LiGe4Pt,0.0,-0.0250814,,2,3.0
Zr2Pd2Hg,0.0,-0.0397192,,2,3.0
P2Ni2RbDy,0.0,-0.0211096,,2,3.0
CaSr2Au2,0.0,-0.0393215,,2,3.0
CuSnNp,0.0,-0.0526678,,2,3.0
O4YMo,0.0,-0.0175587,,2,3.0
AlAgLu2,0.0,-0.0378366,,2,3.0
H12O6F6SiZn,4.8699,-0.0064463,,2,3.0
LiTcSb2,0.0,-0.0281848,,2,3.0
OAsRuPr,0.0,-0.0281972999999999,,2,3.0
Si7Fe2Sm3,0.0,-0.0205004,,2,3.0
AlScRuRh,0.0,-0.0236445,,2,3.0
Zr6AgBi2,0.0,-0.0417566,,2,3.0
LaCe3,0.0,-0.044111,,2,3.0
OAu,0.1612,-0.0378275999999999,,2,3.0
Si4Pt3,0.0,-0.036473,,2,3.0
Al3Si2CrGd3,0.0,-0.0270547,,2,3.0
MgZn2Sm,0.0,-0.0195253,,2,3.0
O2DyTl,1.519,-0.0357402999999999,,2,3.0
Sr2Sb2Pb,0.0,-0.0397092999999999,,2,3.0
MnZnAu,0.0,-0.034017,,2,3.0
SiNi2Dy2,0.0,-0.0282832,,2,3.0
CuNdPb,0.0,-0.0454821,,2,3.0
NiGa2Hf2,0.0,-0.0354288,,2,3.0
SeTe2Pa,0.0,-0.0493767,,2,3.0
O3Na2Pa,0.0,-0.0237953,,2,3.0
KHgPb2,0.0,-0.0572185,,2,3.0
O8NaCr2Fe,0.0,-0.0109283,,2,3.0
ClPu,0.0,-0.0603577999999999,,2,3.0
O5Nd2,2.9022,-0.0195002,,2,3.0
NSiGd3,0.0,-0.0401114,,2,3.0
BAl2DyOs2,0.0,-0.0363962,,2,3.0
F6PdBa,1.9257,-0.0142708,,2,3.0
LiF6Pt,0.0,-0.013563,,2,3.0
Co3Ga2Pu,0.0,-0.0325339,,2,3.0
Al7Sc3Cu2,0.0,-0.0110932,,2,3.0
SiEuIr,0.0,-0.0458857,,2,3.0
S2KIr,1.1389,-0.0255348,,2,3.0
Co2NiLu3,0.0,-0.0365360999999999,,2,3.0
O8CoCu4,0.0,-0.0105224,,2,3.0
NGeSr3,0.0,-0.0196784,,2,3.0
SeTbBi,0.0,-0.0498245,,2,3.0
BCo2Ga2Ho,0.0,-0.0211238999999999,,2,3.0
Li2SnHg,0.0,-0.0276269,,2,3.0
Ni4SnNd,0.0,-0.0242844,,2,3.0
B2Pb4O7,2.454499999999999,-2.046420790641024,mp-1203040,2,3.0
Ba2In2Se5,1.281,-1.515504987089119,mp-573635,2,3.0
Se2HfPb,0.0,-0.0456871,,2,3.0
MnGa3Ge2Pr3,0.0,-0.0268584,,2,3.0
F6NaK2Ce,0.0743,-0.0120776,,2,3.0
LiHo2Ir,0.0,-0.0436079,,2,3.0
Al5LaOs2,0.0,-0.0287677,,2,3.0
B2Pt2Au,0.0,-0.0451385999999999,,2,3.0
F6NaNi,0.0,-0.0069604,,2,3.0
CdEuPt4,0.0,-0.0615839,,2,3.0
Sr2Ag2La,0.0,-0.0302924,,2,3.0
AuTl2,0.0,-0.0713537,,2,3.0
Cl4Ce,0.8741,-0.0174316999999999,,2,3.0
BaIn2O4,1.090599999999999,-2.255538429583333,mp-578629,2,3.0
Co3Ho2,0.0,-0.0301609,,2,3.0
Cu3Ga5La2,0.0,-0.0219389,,2,3.0
O3Sr2Ir,0.0,-0.0245769,,2,3.0
SeBrPt,0.0,-0.0369981,,2,3.0
AlMnRuIr,0.0,-0.0337697999999999,,2,3.0
MnFe3Zr2,0.0,-0.0225749999999999,,2,3.0
H2O10Cu3Mo2,0.1497,-0.0123285,,2,3.0
LiZn2Ta,0.0,-0.0241173,,2,3.0
BeGeLu,0.0,-0.026952,,2,3.0
V4ZrHf,0.0,-0.0271659,,2,3.0
LiP2Rh2U,0.0,-0.0332190999999999,,2,3.0
F6NiBi,0.0,-0.0166427,,2,3.0
F8Na2CaNd,0.0,-0.0109308,,2,3.0
NInNp,0.0,-0.0505674,,2,3.0
SGa2Se2,1.7789,-0.0171441,,2,3.0
Y3RuBa,0.0,-0.0317988,,2,3.0
LiAl2Pd2,0.0,-0.0175929,,2,3.0
Al2NdIr3,0.0,-0.0464446,,2,3.0
NSm3Pb,0.0,-0.0448219,,2,3.0
GeBaPr,0.0,-0.0345781,,2,3.0
F6CdTl,0.0,-0.0172073,,2,3.0
BeSiSb2,0.32,-0.0221495,,2,3.0
In2Sn2Ba,0.0,-0.0360539,,2,3.0
Pd7Pb,0.0,-0.0382725,,2,3.0
Ca2Ga7Au,0.0,-0.0208451,,2,3.0
Al2Te3,1.6212,-0.0259418,,2,3.0
Li4Ag3,0.0,-0.0149568999999999,,2,3.0
MnZn2Ru,0.0,-0.0202486999999999,,2,3.0
GaPdNd,0.0,-0.0318575,,2,3.0
Rh2InAc,0.0,-0.0484587,,2,3.0
AlGe2Sm2,0.0,-0.0277687,,2,3.0
Se8AgSm5,1.3339,-0.0314779,,2,3.0
LiO2Sc,3.8698,-0.0105572,,2,3.0
RhSb2Th2,0.0,-0.0610451,,2,3.0
O2Y2Ba,0.0,-0.0240847,,2,3.0
Si2PdEr2,0.0,-0.0316858,,2,3.0
F6SnTl3,0.0,-0.0294213999999999,,2,3.0
Al2CuEr,0.0,-0.020787,,2,3.0
Al5RhSm,0.0,-0.017405,,2,3.0
MgSr2Pb,0.0,-0.0318192,,2,3.0
O3KNp,0.0,-0.0296495999999999,,2,3.0
MgScIn2,0.0,-0.0219820999999999,,2,3.0
NbBi2,0.0,-0.0634102,,2,3.0
CoGa3Sn2Ho3,0.0,-0.0323366,,2,3.0
Na2RbAg2,0.0,-0.0183426,,2,3.0
DyHgPb2,0.0,-0.0672889,,2,3.0
ScMo2,0.0,-0.0280139,,2,3.0