formula,bg,formation_energy,mp-id,fidelity,bg_category
H3Be2BO5,5.806,-0.007404,,2,3.0
FeZr3,0.0,-0.0276094,,2,3.0
GeZr4Sb7,0.0,-0.0341946,,2,3.0
MnSnPt,0.0,-0.042124,,2,3.0
AuPa2,0.0,-0.0897272,,2,3.0
TeEu,0.0,-0.0473238,,2,3.0
P4SrPd2,0.0,-0.0191928,,2,3.0
Ru2In3Lu3,0.0,-0.0424923,,2,3.0
SrPrTl,0.0,-0.0465069,,2,3.0
SiGeSr,0.0,-0.0174808999999999,,2,3.0
ZnBaTl,0.0,-0.0422042,,2,3.0
O3YAu,1.0518,-0.0252855,,2,3.0
H4O8AlSe2,0.0,-0.0087166,,2,3.0
K2As2Pd,0.5383,-0.0185936999999999,,2,3.0
KCu2As2Sr,0.0,-0.0175327,,2,3.0
LiGeSr,0.0,-0.0150192,,2,3.0
Sr2CdBi,0.0,-0.0390623,,2,3.0
As2RbRu2,0.0,-0.0266661,,2,3.0
Fe3Pt,0.0,-0.0314531,,2,3.0
Y2AgPt,0.0,-0.0402647,,2,3.0
NaHg2Ac,0.0,-0.0583025,,2,3.0
NGaGd,0.0,-0.0292602,,2,3.0
PdInTb,0.0,-0.0385793,,2,3.0
O7Al3CaLa,4.2859,-0.0134572,,2,3.0
Ge2PdPu,0.0,-0.0457098,,2,3.0
Al3Si2MnY3,0.0,-0.0168147,,2,3.0
Pd2Ba2Hg,0.0,-0.0431465,,2,3.0
ORh,0.0,-0.0207092,,2,3.0
SnTbHg,0.0,-0.0509568,,2,3.0
Co4InTb,0.0,-0.0249737,,2,3.0
Ti3Zn2Cd,0.0,-0.0177773,,2,3.0
H16O10Sr,3.8966,-0.0063152999999999,,2,3.0
F3CdCs,3.1945,-0.0184365999999999,,2,3.0
Ga4Nb2Th,0.0,-0.0330307,,2,3.0
AlLuPt,0.0,-0.0458753,,2,3.0
PdSbTb,0.2523,-0.040223,,2,3.0
B12Ho,0.0,-0.0109284999999999,,2,3.0
C2NiY,0.0,-0.0164866,,2,3.0
AlNi2Cu,0.0,-0.014259,,2,3.0
O6RuBa2Pb,0.0,-0.0246495,,2,3.0
LiSnIr,0.0,-0.0368127,,2,3.0
H2OMgCl2,5.4239,-0.0072975,,2,3.0
SiRu3Np2,0.0,-0.0550690999999999,,2,3.0
FSeDy,0.7465,-0.0269418,,2,3.0
O4AsAg2Cs,0.5471,-0.0193258,,2,3.0
Fe2ZnTh,0.0,-0.036453,,2,3.0
Mg2KGe2,0.0,-0.0115274,,2,3.0
SiCl6K2,2.9587,-0.0099615,,2,3.0
In3Sm3Au2,0.0,-0.0473392,,2,3.0
AsSrIr,0.0,-0.0386911,,2,3.0
Ti2CdIr2,0.0,-0.0417263,,2,3.0
NiGa6Dy,0.0,-0.020719,,2,3.0
Li2S4GeEu,0.0371,-0.0159016,,2,3.0
MnNi2Pr,0.0,-0.0237495,,2,3.0
NiZn2Tm,0.0,-0.024231,,2,3.0
ZrCd2Hg,0.0,-0.040136,,2,3.0
BCCuY,0.0,-0.0155956,,2,3.0
Al4YEr,0.0,-0.0187520999999999,,2,3.0
Zn2In2Dy,0.0,-0.0287049,,2,3.0
Ti2FeMo,0.0,-0.021381,,2,3.0
Co5Re,0.0,-0.0261683,,2,3.0
Mg3NdPt2,0.0,-0.0340157,,2,3.0
Te4Bi3,0.0,-0.0550755,,2,3.0
H3CuPu,0.0,-0.0273052999999999,,2,3.0
ZnSb2Np,0.0,-0.0488312,,2,3.0
Al4FeHo,0.0,-0.0167866,,2,3.0
Zn3Sr2,0.0,-0.0172788,,2,3.0
Al2S4Ca,3.3076,-0.0106897,,2,3.0
Li2O3Ru,0.0,-0.0114614,,2,3.0
Co4Ge6Tb,0.0,-0.0213291,,2,3.0
MgCa2Ga,0.0,-0.0104308,,2,3.0
CaCd2Dy,0.0,-0.0300141,,2,3.0
Cl6KCs2Dy,5.1445,-0.0203673,,2,3.0
O8K3Nb,2.5983,-0.0105131999999999,,2,3.0
Al5HoAu2,0.0,-0.0289219,,2,3.0
Tb3Ir2Pb3,0.0,-0.0644711999999999,,2,3.0
F8SrPu2,0.0,-0.0284675,,2,3.0
Al2KIn2,0.0,-0.01822,,2,3.0
CuTe2Dy6,0.0,-0.0425407,,2,3.0
NaK2AsBr6,2.4581,-0.0170624,,2,3.0
O2SeBi2,0.4433,-0.0388386,,2,3.0
CoBi2Pa,0.0,-0.0686875,,2,3.0
CoSe3HoTl,0.0,-0.034203,,2,3.0
N2Ca3Br2Sr,2.1077,-0.015185,,2,3.0
SiCo2Pr,0.0,-0.0222951,,2,3.0
Br6YAgCs2,3.1456,-0.0269401,,2,3.0
NIHf,1.5221,-0.0378861,,2,3.0
BK2I2,0.0,-0.0195394,,2,3.0
Li3OF3Ni,0.0,-0.007646,,2,3.0
Pd6Sb4Dy,0.0,-0.0363845,,2,3.0
Ho3Re,0.0,-0.054587,,2,3.0
Si2SmOs,0.0,-0.0349048,,2,3.0
LiYTe2,0.7098,-0.0276513,,2,3.0
ScTl2Th,0.0,-0.0639872,,2,3.0
HFePd3,0.0,-0.0241208999999999,,2,3.0
Be2As2U,0.0,-0.0308,,2,3.0
Ni2GeHo,0.0,-0.0257817,,2,3.0
Ni8Hf,0.0,-0.0215135,,2,3.0
Cl2,2.0103,-0.0079737,,2,3.0
NiTeLa2,0.0,-0.0358406999999999,,2,3.0
Mn3CoNb2,0.0,-0.0231359,,2,3.0
O3SrAg,0.0,-0.0157339,,2,3.0
ZnSnGd,0.0,-0.0366906,,2,3.0
PRbOs,0.0,-0.0347473,,2,3.0
In6Eu,0.0,-0.0365237,,2,3.0
O6NiGeTb2,0.7994,-0.0193945,,2,3.0
LiF2Pt,0.0,-0.0219616,,2,3.0
OTb3Os,0.0,-0.0451679,,2,3.0
HFe,0.0,-0.0107806999999999,,2,3.0
Al3NiGe2Th3,0.0,-0.0412175,,2,3.0
TiFe2Rh,0.0,-0.0219446,,2,3.0
MgTi3Re2,0.0,-0.0328935,,2,3.0
F4Cs2Ce,0.0,-0.0223945,,2,3.0
Ga2PdPa,0.0,-0.0418374,,2,3.0
InAu2Pu,0.0,-0.0708326,,2,3.0
H4TiMn3,0.0,-0.010752,,2,3.0
H3B3K,4.8723,-0.0062195,,2,3.0
SClSm,2.6004,-0.0231154,,2,3.0
AsSmAu,0.0,-0.0457607,,2,3.0
ZnCeAu,0.0,-0.0431467,,2,3.0
PrPt2Tl,0.0,-0.0648174,,2,3.0
C4LaNd,0.0,-0.0214644,,2,3.0
Cu2As2RbZr,0.0,-0.0209787,,2,3.0
Rh2La3Tl3,0.0,-0.0524211,,2,3.0
S3Sc4As,0.0,-0.0152235999999999,,2,3.0
AlSmPt2,0.0,-0.0494965,,2,3.0
N2Sm7Tl3,0.0,-0.0465399,,2,3.0
Be2Zr2Pd,0.0,-0.0210456,,2,3.0
SBi,0.0,-0.0443203999999999,,2,3.0
YZrTc4,0.0,-0.0334072,,2,3.0
O6FeSnLa2,0.3189,-0.0204448,,2,3.0
KSrBa2,0.0,-0.0273725999999999,,2,3.0
FeRu2,0.0,-0.0291395,,2,3.0
Si2Ni3,0.0,-0.0141586,,2,3.0
H2ONaI,3.5729,-0.0120193,,2,3.0
AsSe4RbAg2,0.0,-0.0233919,,2,3.0
GaIEu,0.0,-0.036743,,2,3.0
OTi2ZrPd,0.0,-0.0217927,,2,3.0
KBa2Hg,0.0,-0.0392543,,2,3.0
Se3SnNd4,0.0,-0.0356186,,2,3.0
SnAc,0.0,-0.0638899,,2,3.0
LiO4SiMn,0.0,-0.0105248,,2,3.0
Br6Cs2Pa,0.4278,-0.0343133,,2,3.0
AlSnBa,0.0,-0.0282761999999999,,2,3.0
DyHo3,0.0,-0.0486828,,2,3.0
LiP2Ni2Pa,0.0,-0.0267847,,2,3.0
LiF6K2Tl,3.5657,-0.0138873,,2,3.0
CFe3In,0.0,-0.019433,,2,3.0
BSe3Sr,0.0,-0.0182995,,2,3.0
O2ScAg,2.2314,-0.0170392,,2,3.0
GaCdDy,0.0,-0.0321522,,2,3.0
AlMnSe3Tl,0.0,-0.02719,,2,3.0
Ge2Tm3,0.0,-0.0395681,,2,3.0
SiAs3Hf2,0.0,-0.0334288,,2,3.0
OZr3Au,0.0,-0.0350718,,2,3.0
NaBr6Cs2Tb,4.2467,-0.0263887,,2,3.0
CaGe2Ac,0.0,-0.0351525,,2,3.0
AgLa5,0.0,-0.0412381999999999,,2,3.0
O6MoBa2Ho,0.0,-0.023115,,2,3.0
NbIr5,0.0,-0.0652126,,2,3.0
B2O6BaU,0.0,-0.0225567,,2,3.0
Al7Ag2Th3,0.0,-0.0341372,,2,3.0
S2AgTm,1.2638,-0.0271295,,2,3.0
RhSm2Au,0.0,-0.0488592,,2,3.0
AlPa2,0.0,-0.0690998,,2,3.0
AlTmAu2,0.0,-0.0504941999999999,,2,3.0
Ti2GaW,0.0,-0.0298768,,2,3.0
Si2PrRe4,0.0,-0.0501316,,2,3.0
O3NiEu,0.0,-0.0198682,,2,3.0
Na2CuSn2,0.0,-0.0192097,,2,3.0
AsI3Ba3,0.6231,-0.0373235,,2,3.0
LiAs2Re,0.0,-0.0286926999999999,,2,3.0
AlCdGd,0.0,-0.0327828,,2,3.0
Al4SrPt,0.0,-0.0212922,,2,3.0
Se7Dy5,0.0,-0.033714,,2,3.0
TiFeGa,0.0,-0.0171611,,2,3.0
Sc2BaPb2,0.0,-0.0445603,,2,3.0
NiInNd,0.0,-0.0315684,,2,3.0
LiAlAg,0.0,-0.0140668,,2,3.0
LiMg2Si2,0.0,-0.0065393,,2,3.0
LiWPt2,0.0,-0.0536107,,2,3.0
SiGe,0.4629,-0.0145287,,2,3.0
Rb2Pt3Tl,0.0,-0.0542451,,2,3.0
Si3Er2Au,0.0,-0.0341639,,2,3.0
Mg2SbAu2,0.0,-0.0376670999999999,,2,3.0
SeBrAg2,0.0,-0.0257331,,2,3.0
O2ClAsEu,0.0886,-0.0210096,,2,3.0
RbSn2Bi2,0.0,-0.0501178,,2,3.0
O2IPbBi,1.7382,-0.0417965,,2,3.0
CeIr3Pt2,0.0,-0.0669962,,2,3.0
Zn2BrLa2,0.0,-0.0274605,,2,3.0
N2Ba7Pb3,0.0,-0.0442751,,2,3.0
LiSn2Au2,0.0,-0.0427533,,2,3.0
AlIr,0.0,-0.0406474,,2,3.0
O5MnCd4,0.0,-0.0184663,,2,3.0
NGePr3,0.0,-0.0326203999999999,,2,3.0
NInHf2,0.0,-0.0431724,,2,3.0
SeTe2Nd,0.0,-0.0358605,,2,3.0
AlGa2Tm6,0.0,-0.0394230999999999,,2,3.0
CaCd2I2,0.0,-0.0295366,,2,3.0
S3MnRbAg,0.0,-0.0172969,,2,3.0
AgIn2Dy,0.0,-0.0369264,,2,3.0
HLiO5AlP,5.857,-0.0087416,,2,3.0
RuSbPa,0.1197,-0.0579087999999999,,2,3.0
AsPd2Ac,0.0,-0.0449499,,2,3.0
PSe3Ag,0.5986,-0.0204781,,2,3.0
CeErIr2,0.0,-0.060155,,2,3.0
ZnAg2Hf,0.0,-0.0347694,,2,3.0
F6KCr,0.0,-0.0086305999999999,,2,3.0
F4NaCa,0.0,-0.0076798,,2,3.0
P2CeAu,0.0,-0.034468,,2,3.0
F6KCrTl2,1.6339,-0.0219171,,2,3.0
CdTlBi,0.0,-0.0605001,,2,3.0
NCa2Pb,0.0,-0.0270002,,2,3.0
O2Na2Sr,2.361,-0.0105639,,2,3.0
Sb2LaIr2,0.0,-0.0527856,,2,3.0
S3CuLuTl,0.0,-0.0297667,,2,3.0
AlFe3,0.0,-0.0157998,,2,3.0
P3ClCd2,1.1383,-0.017116,,2,3.0
HoPt2,0.0,-0.0644385,,2,3.0
Al3Mn2Nb3,0.0,-0.0201951,,2,3.0
CeHf5,0.0,-0.0595702,,2,3.0
La2Pb3,0.0,-0.0635075,,2,3.0
NbSbTh,0.0,-0.056005,,2,3.0
F6MnGa,0.2308,-0.0097666,,2,3.0
Se2AgEr,0.9424,-0.0318221,,2,3.0
Rh2CdEr2,0.0,-0.0405611,,2,3.0
LaPrPb2,0.0,-0.0602752,,2,3.0
AlPGe2,0.4451,-0.0141051,,2,3.0
AlCd2Ba,0.0,-0.0273194,,2,3.0
S4In3,0.0,-0.0204264,,2,3.0
NiHoBi,0.1986,-0.0487173,,2,3.0
CClPu,0.0,-0.0436314,,2,3.0
Ni6As4Tb,0.0,-0.0209422,,2,3.0
BeSiZr2,0.0,-0.0196135,,2,3.0
B4Co5Ho2,0.0,-0.0199777999999999,,2,3.0
Si2PdNd,0.0,-0.025018,,2,3.0
CuZn2Tb,0.0,-0.0226381,,2,3.0
S4Ag2SnTb,0.0,-0.023853,,2,3.0
Na3TbBi2,0.0048,-0.0366369,,2,3.0
Cl6FeTl2,0.0,-0.0243317,,2,3.0
LiGeI3,1.3403,-0.0270007,,2,3.0
HNLa2,0.0,-0.025816,,2,3.0
PCl11,1.8583,-0.0084197,,2,3.0
Br4I2Cs2Ir,0.0,-0.0341256,,2,3.0
YHfIr2,0.0,-0.0591524,,2,3.0
Be7Mo6,0.0,-0.0186301,,2,3.0
Al3CuPr,0.0,-0.0168975,,2,3.0
S3CuSnEr,1.137,-0.0228881,,2,3.0
O6Na3AsCd2,1.2987,-0.0124907,,2,3.0
O6NbBa2Nd,2.8774,-0.0225532,,2,3.0
Fe3Tm2Pt,0.0,-0.0385608,,2,3.0
CO7PKCo,0.0,-0.0099545,,2,3.0
Si2CoGa3Tm3,0.0,-0.0275816,,2,3.0
O4Cu2Se2PrBi2,0.0,-0.0283085,,2,3.0
NaP2Pd2Dy,0.0,-0.0240069,,2,3.0
YPt,0.0,-0.0505079,,2,3.0
Li4O8VFe3,0.0,-0.0102803,,2,3.0
CuZrAg2,0.0,-0.0271941999999999,,2,3.0
LaAuTl,0.0,-0.0623733999999999,,2,3.0
HNa3Bi,0.0,-0.0192218,,2,3.0
MgFe2Sm2,0.0,-0.0259647,,2,3.0
F6AsCs3,4.1696,-0.0181083,,2,3.0
MoW3,0.0,-0.0609934,,2,3.0
Ta2W,0.0,-0.0677047,,2,3.0
LiPmTl2,0.0,-0.0482834,,2,3.0
LiGa2Rh2,0.0,-0.0211952,,2,3.0
CaAg2Pt,0.0,-0.0360606,,2,3.0
GaSm,0.0,-0.0310604,,2,3.0
Sb2OsNp,0.0,-0.0634215,,2,3.0
PIBa2,1.116,-0.0331906,,2,3.0
Ge2Rh3Sm,0.0,-0.031622,,2,3.0
WBi2Th6,0.0,-0.0893925,,2,3.0
CN2BrCe,0.0,-0.0197576,,2,3.0
BeCu2La,0.0,-0.0196284,,2,3.0
OMnTeBa,0.3845,-0.0272189,,2,3.0
MoIn4,0.0,-0.0337352,,2,3.0
NiGePt2,0.0,-0.0442622,,2,3.0
HoPb2Ac,0.0,-0.0734322999999999,,2,3.0
AlMnCoPd,0.0,-0.0197034,,2,3.0
Ag2Cd3La,0.0,-0.0331526,,2,3.0
MnPdHf2,0.0,-0.0445317999999999,,2,3.0
HoLuHg2,0.0,-0.0608658,,2,3.0
LiMgInIr,0.0,-0.0284676,,2,3.0
SmHg2Tl,0.0,-0.0637274,,2,3.0
LiMgBr6Cs2,0.0,-0.0215792,,2,3.0
MgCo4Sn6,0.0,-0.0263574,,2,3.0
Fe2TaIr,0.0,-0.0438133,,2,3.0
LiS2Au,0.0,-0.0233267999999999,,2,3.0
As2Se6Rb2Pb,0.2189,-0.0258534,,2,3.0
Ag2CdEr2,0.0,-0.039137,,2,3.0
P2Sc6Zn,0.0,-0.0141115999999999,,2,3.0
PCoHf4,0.0,-0.0470386999999999,,2,3.0
DyPtPb,0.0,-0.0656561,,2,3.0
NOSc6In2,0.0,-0.0182714,,2,3.0
Al5ScCu,0.0,-0.0100653,,2,3.0
SbBaPt,0.0,-0.05012,,2,3.0
Si4Zn4Dy3,0.0,-0.02217,,2,3.0
Fe2As2Pu,0.0,-0.037692,,2,3.0
ScZr2Re,0.0,-0.036877,,2,3.0
N2Ca2Cd,0.0494,-0.0143681,,2,3.0
Cr3Se2Te2,0.0,-0.0249247,,2,3.0
PdBaBi,0.0,-0.051154,,2,3.0
TcRh3,0.0,-0.0341948,,2,3.0
Al6LaPt,0.0,-0.0207011,,2,3.0
Sc2PtPb,0.0,-0.044606,,2,3.0
Fe2InDy2,0.0,-0.03324,,2,3.0
Al6LaNd,0.0,-0.0171188,,2,3.0
LiCdBi,0.0,-0.037463,,2,3.0
Li3B2O6V,0.4245,-0.0089499,,2,3.0
Li2O8MgTi3,2.435,-0.0107664,,2,3.0
AgCdPt,0.0,-0.0441706999999999,,2,3.0
SiCo2Sr,0.0,-0.016986,,2,3.0
PCaPu,0.0,-0.0442694,,2,3.0
Li2KTl2,0.0,-0.0317888,,2,3.0
Li8Au,0.0,-0.0100266,,2,3.0
AlSr2Ir,0.0,-0.0313886,,2,3.0
Li5Ni,0.0,-0.0046043,,2,3.0
HZnBr,3.0622,-0.0125913,,2,3.0
ZnGe2In3Dy3,0.0,-0.0334325,,2,3.0
Li2O8Ti3Ni,0.6722,-0.0113304,,2,3.0
Tb(GePt)2,0.0,-0.961600836000002,mp-2017836,2,3.0
Ga2LuPt,0.0,-0.0406604,,2,3.0
B4O9SiCs2,4.7246,-0.0134172999999999,,2,3.0
CuGaAg2,0.0,-0.0235057,,2,3.0
Br4SrEu,0.8362,-0.027905,,2,3.0
O6Cu2SrBa2Hg,0.0,-0.0216282,,2,3.0
ZnYTe2,0.0,-0.0299771,,2,3.0
GaRhEr,0.0,-0.0345124,,2,3.0
Ga2OsPa6,0.0,-0.0783341999999999,,2,3.0
O3HgPb,0.0,-0.0331405,,2,3.0
LiGa2Ru2,0.0,-0.0212193,,2,3.0
B2O6CaTh,4.862,-0.0190595,,2,3.0
Al5PdNp,0.0,-0.0258615,,2,3.0
O8Mn2Sr3La,0.0,-0.0170045,,2,3.0
Rb3Bi2,0.0,-0.0442793,,2,3.0
Al2Si2Dy,0.0,-0.0170583999999999,,2,3.0
Cl6CuRhCs2,0.2288,-0.0185807,,2,3.0
S3Rb2Th,2.5046,-0.0295092,,2,3.0
MgCd2Tb,0.0,-0.0285683,,2,3.0
Cu2Te3Pb,0.0,-0.0364201,,2,3.0
BeMgY2,0.0,-0.0162888,,2,3.0
HCo3As,0.0,-0.0150565,,2,3.0
Er5Pt2Bi,0.0,-0.0599692999999999,,2,3.0
ScSb,0.0,-0.0267772,,2,3.0
Ga2BaPt2,0.0,-0.0434341,,2,3.0
Al3Sn2Sm3Ir,0.0,-0.0341762,,2,3.0
NiSnU,0.0,-0.0519836,,2,3.0
Zr2Tl,0.0,-0.0448633,,2,3.0
SiFeEr,0.0,-0.0267461,,2,3.0
Al2SiPu,0.0,-0.0340437,,2,3.0
Al2In3Tm3,0.0,-0.0343537,,2,3.0
O8P2YBa,0.0,-0.014475,,2,3.0
MnAu2Pb,0.0,-0.0583224,,2,3.0
Fe2NiRh,0.0,-0.0216871,,2,3.0
Ni2TmTl,0.0,-0.0395173,,2,3.0
MgSnPu,0.0,-0.0505546999999999,,2,3.0
K2GaBr6In,0.5168,-0.0195263,,2,3.0
Rh2Sm4Tl5,0.0,-0.0558128,,2,3.0
P4Fe3Ni,0.0,-0.014519,,2,3.0
PSe3Cs,0.7948,-0.0223465,,2,3.0
O2BaAu,1.1613,-0.0319329,,2,3.0
O2RhCs,0.8369,-0.0221087,,2,3.0
Mg2IrAu,0.0,-0.0381788,,2,3.0
MnGaPt,0.0,-0.0356689,,2,3.0
O8CuLuW2,1.128,-0.0240744,,2,3.0
NiAs2Nd6,0.0,-0.0360891,,2,3.0
Se2RhAu,0.1133,-0.0361519,,2,3.0
O3Na2Se,4.0857,-0.0094693,,2,3.0
Mg2Sr3Bi4,0.0,-0.0442085999999999,,2,3.0
Ga3Ge2Pr3Au,0.0,-0.032602,,2,3.0
BeCl2Se,0.0,-0.0106816,,2,3.0
O4NpPu,0.0,-0.04369,,2,3.0
GePd2In,0.0,-0.0299894,,2,3.0
F8Dy2Tm,0.0,-0.0201642,,2,3.0
Ga3Tb2Os,0.0,-0.0364644,,2,3.0
I2Tm2Bi,0.0,-0.0523005,,2,3.0
N3FeSr,0.0,-0.0141442,,2,3.0
Co3Se8,0.0,-0.0195801,,2,3.0
Ge2Rh2Ba,0.0,-0.0299248,,2,3.0
OF2Ge2,3.0188,-0.0120525,,2,3.0
Zn5Ho,0.0,-0.0197896,,2,3.0
O3CdBi,0.7756,-0.0265927,,2,3.0
HMg3Pb,0.0,-0.0189408,,2,3.0
K3RbAg,0.0,-0.0153526,,2,3.0
O4PrPu,0.1742,-0.0331293999999999,,2,3.0
As2PdDy,0.0,-0.0312191,,2,3.0
Li2MgY,0.0,-0.009384,,2,3.0
Ni2Ge4Pd,0.0,-0.0205316,,2,3.0
O2CuI2Ba2,0.0,-0.0276051,,2,3.0
ScFeRh2,0.0,-0.0256474,,2,3.0
Ce3Bi,0.0,-0.0534992,,2,3.0
SiBrCe,0.0,-0.0259937,,2,3.0
Cl6FeInCs2,0.0,-0.0190365,,2,3.0
CuInLa,0.0,-0.0310561,,2,3.0
OMn,0.0,-0.0141259,,2,3.0
FeCo2Pr2,0.0,-0.0277895,,2,3.0
F6YGd,4.6597,-0.0177476,,2,3.0
Al2Ho3,0.0,-0.0328385,,2,3.0
F6RbCs2Tb,6.351,-0.0199677,,2,3.0
NiInSb,0.0,-0.0291262,,2,3.0
ScCoIn,0.0,-0.0219361,,2,3.0
P2Cr2Ba,0.0,-0.0201599,,2,3.0
O4ICs,2.5877,-0.0173716,,2,3.0
BeSe2Rb2,2.4651,-0.0182612,,2,3.0
O3PRb,4.9005,-0.0124586,,2,3.0
P2FeTm6,0.0,-0.0395794,,2,3.0
Al10Ru2Tb,0.0,-0.0155185,,2,3.0
KVSe2,0.0,-0.0175642999999999,,2,3.0
S4ZnGa2,2.3623,-0.0129511,,2,3.0
N2HoPu,0.0,-0.0460469,,2,3.0
Y2TePt,0.0,-0.0422734,,2,3.0
CRh3Tb,0.0,-0.0322029,,2,3.0
BMn2Ga2Ce,0.0,-0.0206722,,2,3.0
CaGa2Ce,0.0,-0.0222599,,2,3.0
Al8Cu4Lu,0.0,-0.0140735,,2,3.0
Co2Y3In3,0.0,-0.027691,,2,3.0
Rh5Pt,0.0,-0.0398552,,2,3.0
AlGa3Ge2Tm3,0.0,-0.0284459,,2,3.0
ZrRh2Pd,0.0,-0.0335343,,2,3.0
O8As2CsBi,1.056,-0.0184906,,2,3.0
In6BaIr4,0.0,-0.0479323,,2,3.0
Ru2RhCe3,0.0,-0.0399391,,2,3.0
Cl3InCs,1.4353,-0.0206604,,2,3.0
Li2BaTl,0.0,-0.0295149,,2,3.0
Si3NbEu,0.0,-0.0238688,,2,3.0
RhSn5Tb,0.0,-0.0375312,,2,3.0
F4SnPb,3.2677,-0.0233499,,2,3.0
OBa,1.8485,-0.0256102,,2,3.0
F6FeZn,0.0,-0.0088687,,2,3.0
NaP2Ni2La,0.0,-0.0175536,,2,3.0
Hf2Pt2Au,0.0,-0.0681048,,2,3.0
In5NdIr2,0.0,-0.0444874,,2,3.0
CoZr2Os,0.0,-0.038249,,2,3.0
KRh2Sn2,0.0,-0.0299296,,2,3.0
ScZn3Au2,0.0,-0.0327081,,2,3.0
AsSe3Ag3,0.3831,-0.0250348,,2,3.0
LiMnSnPt,0.0,-0.0324137,,2,3.0
HoPt3,0.0,-0.0660626,,2,3.0
Th(Se2O5)2,3.5655,-1.8574293114583331,mp-1195373,2,3.0
O3NaIr,0.0,-0.0199834,,2,3.0
GaIn5Eu,0.0,-0.0341082,,2,3.0
TeLa2Au,0.0,-0.0495094,,2,3.0
Y2Ag2Tl,0.0,-0.0386011,,2,3.0
TiAsRh,0.0,-0.0243655,,2,3.0
C5Co3Th4,0.0,-0.0406861,,2,3.0
MgIn2Sn2,0.0,-0.0286546999999999,,2,3.0
O5S2Tb2Hf2,2.4128,-0.0279218,,2,3.0
GaSe3Pt2,0.0,-0.0366546,,2,3.0
Sb2Cs2Bi,0.0,-0.0461255999999999,,2,3.0
LiAs2SmPt2,0.0,-0.0390287,,2,3.0
BeSb2Cs4,1.0982,-0.0333342,,2,3.0
MgCd2Au,0.0,-0.0340544999999999,,2,3.0
O6FeSr2Er,0.1269,-0.0178463,,2,3.0
B2O6MgSr2,4.645,-0.0123411,,2,3.0
Si2NiSr,0.0,-0.0151687,,2,3.0
Mg2AsRu2,0.0,-0.0203321,,2,3.0
Ca6As2Pt,0.0,-0.0197256,,2,3.0
ClFeSm,0.0,-0.0246408999999999,,2,3.0
ZnZr6Te2,0.0,-0.030872,,2,3.0
P2Cu2Dy,0.0,-0.0206094,,2,3.0
HScPd3,0.0,-0.0239468,,2,3.0
FeGa2Sm6,0.0,-0.0355502,,2,3.0
Tm2Pt2Tl,0.0,-0.0644860999999999,,2,3.0
PNiTb,0.0,-0.0257553,,2,3.0
O4Cu2As2Se2Y,0.0,-0.0163288,,2,3.0
Se4Pt3,0.0,-0.0419998,,2,3.0
NiSrBa3,0.0,-0.0313426,,2,3.0
LiSrBa2,0.0,-0.0259211,,2,3.0
O8V3Ni,0.0,-0.0121949,,2,3.0
O7Al2SrLa2,2.8844,-0.017536,,2,3.0
NGeTa3,0.0,-0.0463054,,2,3.0
SiScRu,0.0,-0.0206966,,2,3.0
HSNbTe,0.9123,-0.0215757,,2,3.0
Ti3Cu2Ru,0.0,-0.0192726,,2,3.0
Si3RuLu,0.0,-0.0246865,,2,3.0
LiF6Na2Ru,0.0,-0.0091796,,2,3.0
AgSbPt,0.0,-0.0465185,,2,3.0
Al2ScCd,0.0,-0.0154318,,2,3.0
NOSr6In2,0.0,-0.0226542,,2,3.0
OF5Na2Nb,4.2291,-0.0102983,,2,3.0
O4Cu2Lu,0.0,-0.0177906,,2,3.0
K2I2Hg,3.0777,-0.032904,,2,3.0
LiAu2Pb2,0.0,-0.0586651,,2,3.0
Zr2CdTl,0.0,-0.0412999,,2,3.0
AlZnHf,0.0,-0.0284251,,2,3.0
RuLu2Ir,0.0,-0.0551114,,2,3.0
H8CaMnCd2,0.0,-0.009785,,2,3.0
B2TiNb2,0.0,-0.0201135,,2,3.0
N3Mg2Ru,0.0,-0.0125441,,2,3.0
Li2IHg,0.0,-0.0279761,,2,3.0
Sc2CdOs,0.0,-0.0332865,,2,3.0
Li2NaSb,0.7018,-0.0122031,,2,3.0
Ru2CdLa2,0.0,-0.0375044,,2,3.0
O6Ca2CoPa,1.4383,-0.0202789,,2,3.0
AlSc2Pd2,0.0,-0.0213216,,2,3.0
CoZn2Re,0.0,-0.0287968,,2,3.0
Co2ZnGa,0.0,-0.0161882,,2,3.0
LiPr2Os,0.0,-0.0403554,,2,3.0
F6AlGaCs2,4.9364,-0.0151861999999999,,2,3.0
YLaOs,0.0,-0.0478609,,2,3.0
PdPr3,0.0,-0.0411181,,2,3.0
SbLu,0.0,-0.0474008,,2,3.0
NiSb2Lu6,0.0,-0.0476381,,2,3.0
LiI3Pr,0.0,-0.0325374,,2,3.0
Be13Sm,0.0,-0.0073844,,2,3.0
ScNi2Hf,0.0,-0.027809,,2,3.0
O3NaRbNb,0.7625,-0.0150625,,2,3.0
Y3In,0.0,-0.0296119,,2,3.0
AlCo2Hf,0.0,-0.0268821,,2,3.0
O4Cu2Sb2Te2Lu,0.0,-0.0250905999999999,,2,3.0
B4NdOs4,0.0,-0.0405288,,2,3.0
TiZrRu2,0.0,-0.0299089999999999,,2,3.0
CoGa2Pr6,0.0,-0.0347079,,2,3.0
Ru2AgCe3,0.0,-0.039378,,2,3.0
P4Ni6Cd,0.0,-0.0157187,,2,3.0
Al5NiEu,0.0,-0.0159009,,2,3.0
NiSe2Au,0.0,-0.031601,,2,3.0
O8KMnSe2,0.5829,-0.0109817,,2,3.0
O6MgRhTb2,0.0,-0.0197794,,2,3.0
Ru5Os,0.0,-0.0410128,,2,3.0
MgSe2Cs2,2.3164,-0.0256132,,2,3.0
O7CoCu2Ba2Dy,0.0,-0.0189377,,2,3.0
Rh2HgTh2,0.0,-0.0663849,,2,3.0
O2CdSbI,1.5592,-0.0245082999999999,,2,3.0
GeTeTb,0.0,-0.03535,,2,3.0
NNi3Tl,0.0,-0.0259648,,2,3.0
FePd2,0.0,-0.0281008999999999,,2,3.0
Al3PdPr2,0.0,-0.0244873,,2,3.0
LiNiGe,0.0,-0.0129495,,2,3.0
LiGaSe2,2.1203,-0.0157408,,2,3.0
Ga3Os2Th3,0.0,-0.060535,,2,3.0
Sc3Pd2Pb3,0.0,-0.0426958,,2,3.0
SiPd3Ce2,0.0,-0.0337475999999999,,2,3.0
Cl6VCs2,0.0,-0.0174684999999999,,2,3.0
GaPr2Ir2,0.0,-0.0499271,,2,3.0
O8Cr3Ag,0.0972,-0.0131702,,2,3.0
Rh2LaPr,0.0,-0.0391741,,2,3.0
MgZn4La,0.0,-0.0172816,,2,3.0
P2Ti2Re,0.0,-0.0256963,,2,3.0
S4CoI,0.0,-0.0154408999999999,,2,3.0
Rh2Ir3Th,0.0,-0.0633326,,2,3.0
TiMo2,0.0,-0.0286675,,2,3.0
Ca2CuGa,0.0,-0.0129512,,2,3.0
LiSiNd2,0.0,-0.0252626,,2,3.0
F3KFe,0.0,-0.0100518,,2,3.0
Ga2ZrRu,0.0,-0.0251834999999999,,2,3.0
SnTbPt,0.0,-0.0522513999999999,,2,3.0
LiCuZnIn,0.0,-0.0163086,,2,3.0
Al5Ag5Ba2,0.0,-0.0232459,,2,3.0
Mg5Zr,0.0,-0.0092453,,2,3.0
CoRhPt,0.0,-0.0404978,,2,3.0
Co4Ge6Tm,0.0,-0.0217869999999999,,2,3.0
CSiDy3,0.0,-0.0332333,,2,3.0
OBr4SnTa,0.0,-0.0278707999999999,,2,3.0
Zn3Nb2Ru,0.0,-0.0238043,,2,3.0
Al4FeTm,0.0,-0.0172521,,2,3.0
B2N3Fe2La3,0.0,-0.0219068,,2,3.0
NiGa5Lu3,0.0,-0.0300973,,2,3.0
LiNiTe2Cs,0.0,-0.0268693999999999,,2,3.0
Na2TeHg,0.7324,-0.0292284,,2,3.0
LiCu2As2Sr,0.0,-0.0165785,,2,3.0
Sc5Rh3,0.0,-0.022364,,2,3.0
Ti2CoGa,0.0,-0.0169389,,2,3.0
Zn3Rh2Th,0.0,-0.0346015,,2,3.0
MgGe2Lu2,0.0,-0.0315569,,2,3.0
O3ScSb,3.2441,-0.0166179999999999,,2,3.0
NaPS4Pd,1.0538,-0.012957,,2,3.0
Ge2RbSb2,0.0,-0.0267798,,2,3.0
TbTmPb2,0.0,-0.0631528,,2,3.0
Al3NiPd2Tb3,0.0,-0.0281331999999999,,2,3.0
Li4MgY,0.0,-0.007037,,2,3.0
As2RhHo2,0.0,-0.0358017,,2,3.0
Al2SnAu2,0.0,-0.0383185,,2,3.0
K2ZnAg,0.0,-0.015339,,2,3.0
Te5Pt,0.0,-0.0429328,,2,3.0
O4Mn2Fe,0.0,-0.0132763,,2,3.0
O4K2Ba,2.0567,-0.0130987,,2,3.0
BO4NaSi,5.8315,-0.0094046,,2,3.0
TaReIr2,0.0,-0.070572,,2,3.0
Na2Se2Te,0.0,-0.0179093,,2,3.0
YCd,0.0,-0.0296316999999999,,2,3.0
Cd2LaHg2,0.0,-0.0484927,,2,3.0
NSnTm2,0.0,-0.0385992,,2,3.0
O11YZr5,0.6107,-0.0183897,,2,3.0
RuTm3,0.0,-0.048008,,2,3.0
Li3Pd,0.0,-0.0103011,,2,3.0
Al2ScZr,0.0,-0.0155765,,2,3.0
AlPr2Os2,0.0,-0.0479756,,2,3.0
CuSr2,0.0,-0.0198832,,2,3.0
Al4Y3Sn2,0.0,-0.0212844,,2,3.0
Si6Os4Th,0.1936,-0.0408694,,2,3.0
F4PdCs,0.0,-0.0161854,,2,3.0
Si2TiHf2,0.0,-0.0330783,,2,3.0
Ce2Re,0.0,-0.0534427,,2,3.0
MnIn5Nd,0.0,-0.0330523999999999,,2,3.0
BCHoIr,0.0,-0.0350319999999999,,2,3.0
GaPd5I2,0.0,-0.032041,,2,3.0
Cu4Se4Hf,1.0848,-0.0231842,,2,3.0
O8KMnMo2,0.0,-0.014326,,2,3.0
AlTiCrRu,0.0,-0.0199658,,2,3.0
CoGaSm,0.0,-0.0264512,,2,3.0
AlNd,0.0,-0.0261106,,2,3.0
In2SmTm,0.0,-0.041369,,2,3.0
In5SmAu,0.0,-0.0404903,,2,3.0
O2NiPt,0.0,-0.025712,,2,3.0
MoIr4,0.0,-0.064083,,2,3.0
AgPtAu2,0.0,-0.0599827,,2,3.0
SiCdLa,0.0,-0.0284092,,2,3.0
PIEu2,0.0,-0.0402141,,2,3.0
GaPdEr,0.0,-0.0341779,,2,3.0
Cu2SrY,0.0,-0.0202542,,2,3.0
Ga3Pd2Tm3,0.0,-0.0346224,,2,3.0
AlZr2Pt,0.0,-0.0357392,,2,3.0
SeBrAu,1.1408,-0.0364485,,2,3.0
CuRh2Er,0.0,-0.0338179,,2,3.0
BFe4Tm,0.0,-0.0222131,,2,3.0
O2ScHo,0.0,-0.0221347,,2,3.0
GaGe2Nd2,0.0,-0.0291447,,2,3.0
MnNi,0.0,-0.0175751,,2,3.0
Cd3Hg4,0.0,-0.0519904999999999,,2,3.0
Al2S3,2.9293,-0.0101207,,2,3.0
CoGeTb,0.0,-0.0283847,,2,3.0
GeSeIn,0.3522,-0.0245788,,2,3.0
HLi2Pb,0.0,-0.0213609,,2,3.0
Li3O8P2Mo,1.0639,-0.0104831,,2,3.0
PdTe2La6,0.0,-0.0416327,,2,3.0
C7Sc5Re2,0.0,-0.02087,,2,3.0
O8CdRe2,4.1394,-0.0218258,,2,3.0
Sr2CdPb2,0.0,-0.0458921,,2,3.0
MgRh4Tb,0.0,-0.0317396,,2,3.0
Si2CrSm,0.0,-0.0211846,,2,3.0
NiSe3HfPb,0.0,-0.0366368,,2,3.0
H5Ho2Os,0.0,-0.0239741,,2,3.0