formula,bg,formation_energy,mp-id,fidelity,bg_category
OZr3Ag,0.0,-0.0271874,,2,3.0
RhCdSn,0.0,-0.0336315,,2,3.0
Ti2Pd2Pb,0.0,-0.0351423,,2,3.0
CrRe,0.0,-0.0447723,,2,3.0
Al4RhEr,0.0,-0.0199628,,2,3.0
OF5MnCs3,1.0453,-0.0183434,,2,3.0
GaSn2Hg,0.0,-0.0388711,,2,3.0
H4LiCN3,4.4166,-0.0064579,,2,3.0
CoZr6Sn2,0.0,-0.0308628,,2,3.0
Al2Sb2Cs,0.0,-0.0258728,,2,3.0
AlInAu,0.0,-0.0372131,,2,3.0
NaPd2Bi2,0.0,-0.045653,,2,3.0
Rb2CdHg2,0.0,-0.0418534,,2,3.0
Al3Ge2Sr3Pd,0.0,-0.0184609999999999,,2,3.0
Si2Ru2Sn,0.0,-0.0255244,,2,3.0
MgHoAu,0.0,-0.041947,,2,3.0
Ru2Te2Lu7,0.0,-0.049144,,2,3.0
Ca2Zn3Ga,0.0,-0.0131418,,2,3.0
AlNiPdHf,0.0,-0.0306302,,2,3.0
O8CaCu2Ba2Tl2,0.0,-0.0225784999999999,,2,3.0
S3BaTa,0.0,-0.0286908,,2,3.0
S4Co3,0.0,-0.013393,,2,3.0
LiSiNd,0.0,-0.0192604,,2,3.0
Sc8Sb,0.0,-0.0169812,,2,3.0
Ca2Ge3Pt,0.0,-0.025309,,2,3.0
CdCePt,0.0,-0.0493114,,2,3.0
SiSCe,0.0,-0.0227625999999999,,2,3.0
AlCo4,0.0,-0.0155765,,2,3.0
O4Ba2Tb,0.0,-0.0244564,,2,3.0
Li2CdHg,0.0,-0.0262275,,2,3.0
N2Sc7Sn3,0.0,-0.0200414,,2,3.0
Al3Ge2Zr3Os,0.0,-0.0258114999999999,,2,3.0
Be3Cr4,0.0,-0.0123822,,2,3.0
O4ZrTh,4.3257,-0.0291916,,2,3.0
SiHfAu,0.0,-0.0479702,,2,3.0
Zn3SrRh2,0.0,-0.0221792,,2,3.0
RhTa2Ir,0.0,-0.0601748,,2,3.0
Al3Si2FeCe3,0.0,-0.0222136,,2,3.0
Tc7Ir,0.0,-0.0396135,,2,3.0
Ge3RuHo,0.0,-0.0288139,,2,3.0
Sr2InSn,0.0,-0.0290896,,2,3.0
CePt2,0.0,-0.0628481,,2,3.0
B3MnTa,0.0,-0.0220573,,2,3.0
F6NaMnRb2,0.4172,-0.0115402,,2,3.0
H6CrNb2,0.0,-0.011773,,2,3.0
O6TiSr2Er,0.0,-0.0180826,,2,3.0
SiSb2Te4,0.0,-0.033338,,2,3.0
Cu5Zr,0.0,-0.0179453,,2,3.0
Ni2SrBi2,0.0,-0.0426728,,2,3.0
CaHg3,0.0,-0.0540384999999999,,2,3.0
OInDy3,0.0,-0.0382272,,2,3.0
BPd4Ce,0.0,-0.0311671,,2,3.0
B2O6NaScBa,4.0148,-0.0130620999999999,,2,3.0
MnGa2Hf,0.0,-0.0288769,,2,3.0
NiGe,0.0,-0.0179817,,2,3.0
S2IPb,0.0,-0.0330113,,2,3.0
CuGaSeTe,0.1174,-0.0225979,,2,3.0
NiGaHf,0.0,-0.0324675,,2,3.0
Zn2SrAu,0.0,-0.030139,,2,3.0
Li6O4Zn,3.6781,-0.0067674,,2,3.0
H6NaGaRb2,0.872,-0.0084913,,2,3.0
BeSiCu2,0.0,-0.011218,,2,3.0
RhTl4,0.0,-0.0645599,,2,3.0
MgZrAu,0.0,-0.0356201,,2,3.0
F6RhEr,1.8209,-0.0162331,,2,3.0
FeNi2Pr,0.0,-0.0236493,,2,3.0
O3Na2Ru,0.0,-0.0118719,,2,3.0
Al3CuY2,0.0,-0.0162054,,2,3.0
Li4ZnSr,0.0,-0.0075409,,2,3.0
B2O6SrSn,3.8179,-0.0136737,,2,3.0
N2ZnCe,1.4137,-0.0201218,,2,3.0
CaCuI,0.0,-0.0213849,,2,3.0
SiPdPm2,0.0,-0.0333885,,2,3.0
Ga2Sb2Eu,0.0,-0.0326875,,2,3.0
InHfPt,0.0,-0.0563592,,2,3.0
MgCu4Zr,0.0,-0.0162911,,2,3.0
LiZnCd,0.0,-0.0156219,,2,3.0
Mg3In5,0.0,-0.0228574,,2,3.0
Mg7Au,0.0,-0.0131595999999999,,2,3.0
Ca2ZnRu2,0.0,-0.0206411,,2,3.0
O6AlRuBa2,0.0,-0.0184305,,2,3.0
Ag2SbTe4Bi,0.0,-0.0410097,,2,3.0
FePdHf2,0.0,-0.0445272,,2,3.0
B2TiTc2,0.0,-0.0207863,,2,3.0
B2TiCo,0.0,-0.0127308,,2,3.0
S8Cr5Rb,0.0,-0.0147631,,2,3.0
Be2Ti2Zn,0.0,-0.0110995,,2,3.0
InSb2La,0.0,-0.0384433,,2,3.0
LiPOs,0.0,-0.0287729,,2,3.0
Na2SrPb,0.0,-0.0270493999999999,,2,3.0
F4Rb2Cd,3.8022,-0.0150006,,2,3.0
Al3Si2FeHo3,0.0,-0.023811,,2,3.0
CdErIr4,0.0,-0.0613312,,2,3.0
As2CdTl2,0.0,-0.0430867,,2,3.0
H6NiPr2,0.0968,-0.0142529,,2,3.0
O5Co2BaNd,0.0,-0.0188002,,2,3.0
LiPt8,0.0,-0.0628667,,2,3.0
CCo2Sn2La2,0.0,-0.0294746,,2,3.0
Br2SbGd2,0.0,-0.0403635,,2,3.0
BeSc2,0.0,-0.0109863,,2,3.0
Sn3Er,0.0,-0.0400012,,2,3.0
CrGa5Ho,0.0,-0.021704,,2,3.0
PdSb2Pa,0.0,-0.0523767,,2,3.0
MgKCu2As2,0.0,-0.0144061,,2,3.0
Cl6Sr2Ba,5.2705,-0.0173778,,2,3.0
AlNiDy,0.0,-0.0245649,,2,3.0
SiTiNd,0.0,-0.0238312,,2,3.0
MgTl4,0.0,-0.0588943,,2,3.0
MoRh5,0.0,-0.0341407,,2,3.0
CuZrSb,0.0,-0.0282663,,2,3.0
F6CoNb,0.1803,-0.0116882,,2,3.0
CuCd,0.0,-0.0227642999999999,,2,3.0
SiOs3Th2,0.0,-0.0700367,,2,3.0
O6CuSr2Pt,0.0,-0.0184053,,2,3.0
Cu2AsAc,0.0,-0.0356878,,2,3.0
Al4PrNd,0.0,-0.0201880999999999,,2,3.0
Cd2SnCe2,0.0,-0.0376219,,2,3.0
F6K2Ru,0.0,-0.010615,,2,3.0
Rh2LaHf2,0.0,-0.0480429,,2,3.0
O4NiSb,0.0,-0.0144484,,2,3.0
B3NiTa,0.0,-0.0214986,,2,3.0
CSi3Ti5,0.0,-0.0142251999999999,,2,3.0
K2PdI4,0.7527,-0.0290848,,2,3.0
N2MgPu,0.0,-0.034534,,2,3.0
ClIn2Hg,0.0,-0.0361521,,2,3.0
ScZn2Cd,0.0,-0.0182466,,2,3.0
Al3Si2RhEr3,0.0,-0.0262862,,2,3.0
Se4Pr2Pb,1.687,-0.0363537,,2,3.0
Mg5Cu3,0.0,-0.0089115,,2,3.0
O6Sr2RhLu,0.0,-0.0197404,,2,3.0
O4CuGd2,0.0,-0.0254156,,2,3.0
CeIrPt2,0.0,-0.0648676,,2,3.0
BPd2Tb,0.0,-0.0307437,,2,3.0
Mg2As2Dy,0.0,-0.0205879,,2,3.0
Sc2Ag2Tl,0.0,-0.0330441,,2,3.0
MoRh8,0.0,-0.0340346,,2,3.0
Cl4Rb2Pu,0.0,-0.0281582,,2,3.0
Ni3DyPt2,0.0,-0.0400516999999999,,2,3.0
AlYI,0.0,-0.025122,,2,3.0
Cu4ZnHo,0.0,-0.0208233,,2,3.0
SiFe3Pa2,0.0,-0.0442866,,2,3.0
CGe2Mo2Dy,0.0,-0.0280166,,2,3.0
SrPd2In,0.0,-0.0309923,,2,3.0
CCl2Ho2,0.7921,-0.0265721999999999,,2,3.0
Be4YRh,0.7842,-0.0135713,,2,3.0
P2Ag2Pb,0.0,-0.0318017,,2,3.0
AlNiY2,0.0,-0.0203044,,2,3.0
CN2Cs2,2.4297,-0.0214414,,2,3.0
SeSbAu,0.0,-0.0423598,,2,3.0
BGa2Ru2Dy,0.0,-0.0269568,,2,3.0
LiPtHg,0.0,-0.0472832,,2,3.0
CuPd2Hf3,0.0,-0.0453057,,2,3.0
KCaTl2,0.0,-0.0410535,,2,3.0
N3Rb2I,4.0829,-0.0183796,,2,3.0
KGa3Tc,0.0,-0.0187387,,2,3.0
PNiTh,0.0,-0.0420722,,2,3.0
LiSiZnIr,0.0,-0.024766,,2,3.0
CuGa2Pr,0.0,-0.0233557,,2,3.0
LiZr2Re,0.0,-0.0339408999999999,,2,3.0
Rb2I4Au,0.0,-0.037756,,2,3.0
Ti3Fe2Sn3,0.0,-0.0242394,,2,3.0
Te2CsPb2,0.0,-0.0533476,,2,3.0
MgGaNd,0.0,-0.0222002,,2,3.0
Sc2Co2In,0.0,-0.0196769,,2,3.0
S3CuBaDy,0.978,-0.0238503,,2,3.0
H3FeCe,0.0,-0.0149595,,2,3.0
Si2Sc2Ga,0.0,-0.0136507,,2,3.0
F6GePt,1.3648,-0.0157016,,2,3.0
CuZr6In2,0.0,-0.029847,,2,3.0
PTcLa2,0.0,-0.0336234,,2,3.0
Ge2CePu,0.0,-0.0488100999999999,,2,3.0
CO7Na2PAs,4.2389,-0.0096666,,2,3.0
CaMn2As2,0.0,-0.0179960999999999,,2,3.0
NiSn3Dy,0.0,-0.0348325,,2,3.0
MnAs2Cs2,0.0,-0.0273877999999999,,2,3.0
Cu2LaPt2,0.0,-0.0434539,,2,3.0
MgPd2Hf2,0.0,-0.0398436999999999,,2,3.0
Si2Ga3Y3Ru,0.0,-0.0216056,,2,3.0
Cu5Pt4,0.0,-0.0397774,,2,3.0
O7P2Cd2,3.004,-0.013545,,2,3.0
Sr3PdIn3Sn2,0.0,-0.0308495,,2,3.0
NiLa2,0.0,-0.0343246,,2,3.0
O8Mg3V2,3.3073,-0.0105199,,2,3.0
ZnAsAu5,0.0,-0.0542331999999999,,2,3.0
LiPm2Os,0.0,-0.0407687,,2,3.0
Zn2BaPt2,0.0,-0.0420188,,2,3.0
CuRu2Pr2,0.0,-0.0344962,,2,3.0
ScGa5Pt,0.0,-0.0243766,,2,3.0
Ru2DyHf,0.0,-0.0457162,,2,3.0
SbPt5,0.0,-0.0647729,,2,3.0
H3Pa,0.0,-0.0278449999999999,,2,3.0
Al6Mn,0.0,-0.0094264,,2,3.0
Be4FeGe,0.0,-0.009165,,2,3.0
NaZn2As2,0.0,-0.0146187,,2,3.0
LiTi2Ni2,0.0,-0.013637,,2,3.0
N2Se3Tb4,1.1823,-0.0316356,,2,3.0
Ga3Dy2Ir,0.0,-0.0368447,,2,3.0
Rb2InHg2,0.0,-0.0424542,,2,3.0
Zn2La3Hg,0.0,-0.037906,,2,3.0
O8Cu2Sr2TbIr,0.0,-0.0193609,,2,3.0
Si4Pr3Ir4,0.0,-0.0424183999999999,,2,3.0
InCePt2,0.0,-0.0556090999999999,,2,3.0
P4Fe6Zn,0.0,-0.0151747,,2,3.0
Ni4MoRh,0.0,-0.0222662,,2,3.0
Si2RhIn3La3,0.0,-0.0322406,,2,3.0
BeY2Os,0.0,-0.0332646999999999,,2,3.0
Ni4Ga4Tb3,0.0,-0.0252127,,2,3.0
Na3Rh4Sn4,0.0,-0.0269247,,2,3.0
CuGaHf2,0.0,-0.0395645,,2,3.0
BeFe2Mo,0.0,-0.0188898,,2,3.0
CuPdEr2,0.0,-0.0378402,,2,3.0
NMg3P,1.4631,-0.0078276,,2,3.0
YErPb2,0.0,-0.0581085,,2,3.0
GaErIr,0.0,-0.0470028,,2,3.0
OZnAsU,0.0,-0.0372771,,2,3.0
YRu2Ta2,0.0,-0.0465507,,2,3.0
Zn2Zr3Ru,0.0,-0.0261597,,2,3.0
SAsEr,0.0,-0.0284734,,2,3.0
ScY2Au2,0.0,-0.0425873,,2,3.0
Ho3Ni7B2,0.0,-0.512078376527766,mp-1192069,2,3.0
O4K3Nb,3.6053,-0.0126783,,2,3.0
Al2AgLa2,0.0,-0.0269957,,2,3.0
Co3Cu2Nd,0.0,-0.0210571,,2,3.0
LiN3V2,0.0,-0.0120289,,2,3.0
Ni2Hf2Bi,0.0,-0.0476775,,2,3.0
Li2O4GeEu,0.0,-0.0152265,,2,3.0
O4Cl2Cu2Sr3,0.0,-0.0147646999999999,,2,3.0
NaCa2Ag2,0.0,-0.0174993,,2,3.0
O14Al4Ta3,0.0,-0.018225,,2,3.0
TiNiGa,0.0,-0.0168264999999999,,2,3.0
AlNiAs,0.0,-0.015218,,2,3.0
ScGeSe,0.0,-0.0189746999999999,,2,3.0
Cu4SnEr,0.0,-0.0247549,,2,3.0
H2Ti2Cd,0.0,-0.0142350999999999,,2,3.0
O4MgMo,3.7494,-0.0133115,,2,3.0
CoGeNd,0.0,-0.0272817,,2,3.0
H3ZnGd,0.0,-0.0169683999999999,,2,3.0
NaAsBr6Cs2,2.4474,-0.023063,,2,3.0
CoBrSm,0.0,-0.0280845999999999,,2,3.0
CuZn2Er2,0.0,-0.0289158,,2,3.0
S2TbAu,0.5926,-0.0351909,,2,3.0
H4O2ZnBr2,3.5707,-0.0097609999999999,,2,3.0
B2N3Mn2Pr3,0.0,-0.0219788,,2,3.0
Li2TmTl,0.0,-0.0325897999999999,,2,3.0
PTb2Bi,0.0,-0.0469722999999999,,2,3.0
F6RhPd,0.0,-0.012583,,2,3.0
Li2MgCu2,0.0,-0.0080033,,2,3.0
Na2KCs,0.0,-0.0136016,,2,3.0
Be2ScOs,0.0,-0.0240401,,2,3.0
O3AlCe,0.0,-0.0177904,,2,3.0
RuTa2Ir,0.0,-0.0603101,,2,3.0
O2RbSm,3.6245,-0.0223069999999999,,2,3.0
Al5Ta,0.0,-0.0176917,,2,3.0
O7Ca2As2,3.4467,-0.0116598,,2,3.0
Co2La3,0.0,-0.0326507999999999,,2,3.0
CuGeLa,0.0,-0.0265502,,2,3.0
Cl4CuTl2,0.0438,-0.0283128,,2,3.0
O5VMo,0.0,-0.0142425,,2,3.0
S2PdBa,0.1648,-0.02431,,2,3.0
Co2IDy2,0.0,-0.0339555999999999,,2,3.0
Fe2Tm2Tl,0.0,-0.0426,,2,3.0
LiMgGa4,0.0,-0.0123882,,2,3.0
Co2GaAc,0.0,-0.03554,,2,3.0
H8CoZn2La,0.0,-0.0097387999999999,,2,3.0
RuOs3,0.0,-0.0626319,,2,3.0
LaIr2Pu,0.0,-0.0744437999999999,,2,3.0
Al2AgLa,0.0,-0.0229353,,2,3.0
PHfPt5,0.0,-0.061494,,2,3.0
NO2Na,2.372,-0.007428,,2,3.0
Sn2Er3,0.0,-0.0453087999999999,,2,3.0
Fe4TcOs,0.0,-0.0298081,,2,3.0
N2GaIn,0.4242,-0.0173996,,2,3.0
SmTb3,0.0,-0.0461668,,2,3.0
CuBr4In,1.0051,-0.0217558,,2,3.0
CoSbTh2,0.0,-0.0621236,,2,3.0
O6TiSr2Tm,0.0,-0.0182484,,2,3.0
CuAs2Sm,0.0,-0.0259543,,2,3.0
CeNdTl2,0.0,-0.0587375,,2,3.0
CrFeTa2,0.0,-0.0425455,,2,3.0
ClFeGd,0.0,-0.0294452,,2,3.0
N2Tm3,0.0,-0.0364914,,2,3.0
TeIBi2,0.0,-0.0579722,,2,3.0
BeO2Cd,1.4183,-0.0138264999999999,,2,3.0
AlY2In2,0.0,-0.0266184,,2,3.0
NSr4In2,0.0,-0.0242554,,2,3.0
Ga5AuNp,0.0,-0.0370482,,2,3.0
InPt2Pu,0.0,-0.0715667,,2,3.0
Li3Sb2Hf,0.0,-0.0245943,,2,3.0
SiK2Pt,0.0,-0.0246101,,2,3.0
LiSr2Rh,0.0,-0.0203142,,2,3.0
ZnCs2Pb,0.4416,-0.0414875,,2,3.0
Zn4Cd5,0.0,-0.0228014,,2,3.0
F6MgGe,5.8982,-0.0087239,,2,3.0
As2Rh2Tl,0.0,-0.0365231,,2,3.0
Te3Th,0.3387,-0.0529535,,2,3.0
AlGeCe,0.0,-0.0244837,,2,3.0
CN2ClLu,3.4598,-0.0197566,,2,3.0
LiF2Pd,0.0,-0.0126632999999999,,2,3.0
RuRhGd2,0.0,-0.0471084,,2,3.0
MgHg4,0.0,-0.0556189,,2,3.0
LiCo2As2Y,0.0,-0.0182467,,2,3.0
Co3Nd2Os,0.0,-0.0351019999999999,,2,3.0
B2C2Ce,0.0,-0.0164388,,2,3.0
ScSb2,0.0,-0.0302342,,2,3.0
GePdDy,0.0,-0.0343302,,2,3.0
CoLa,0.0,-0.0302801,,2,3.0
Li2AlIn,0.0,-0.011764,,2,3.0
O5Pd2La2,1.1869,-0.0227824999999999,,2,3.0
ZnSnTm2,0.0,-0.0388144,,2,3.0
O6Ba2HoOs,0.0,-0.0264867,,2,3.0
Be2MnFe,0.0,-0.011538,,2,3.0
Cd2PrAc,0.0,-0.0490359,,2,3.0
Cl6K3Nb,0.0,-0.0124534,,2,3.0
ZnHo2Os,0.0,-0.0462909,,2,3.0
F6CoSn,0.3618,-0.011767,,2,3.0
LiO4RbMo,4.6439,-0.0141745,,2,3.0
P2RbRh2,0.0,-0.0226789999999999,,2,3.0
PCoPa,0.0,-0.0434731,,2,3.0
MgYSn,0.0,-0.0235778,,2,3.0
O5PPbBi,3.299,-0.0263749,,2,3.0
CGe2Tb2Ir2,0.0,-0.041411,,2,3.0
Mg2Cl7Cs3,4.5782,-0.0171398,,2,3.0
Rh2Pr3Pb3,0.0,-0.0538577,,2,3.0
PNiDy,0.0,-0.0261032,,2,3.0
OInNd3,0.0,-0.035682,,2,3.0
B2Fe2Eu,0.0,-0.021187,,2,3.0
CdAu2Pa,0.0,-0.0675436,,2,3.0
Fe2InSm2,0.0,-0.031788,,2,3.0
ScAs,0.0,-0.0187526,,2,3.0
SnHgPu2,0.0,-0.0811731,,2,3.0
Cl2Sc2Ge,0.0,-0.0143974,,2,3.0
NiAs2Tm,0.0,-0.0280395,,2,3.0
RhBi2,0.0,-0.0638911,,2,3.0
B6Cr2Er,0.0,-0.015229,,2,3.0
GeBr3Rb,0.3065,-0.0207846,,2,3.0
MgHfPt,0.0,-0.0468814,,2,3.0
Ga2GePb2,0.0,-0.040507,,2,3.0
Al3Cr2Pa3,0.0,-0.0450048,,2,3.0
TiGa2Ta2,0.0,-0.0367452,,2,3.0
S3TaTl,0.1918,-0.0344529,,2,3.0
CuHoBi2,0.0,-0.055775,,2,3.0
TiCr4Zr,0.0,-0.0200719,,2,3.0
F13Sb2,0.0,-0.009832,,2,3.0
Se2PdSn,0.0,-0.0274757,,2,3.0
S8Nb3W,0.0,-0.0215412,,2,3.0
Sc2Ga2Pb,0.0,-0.0279371,,2,3.0
GaHo6Bi2,0.0,-0.0525661,,2,3.0
AlIn2Ba,0.0,-0.0289051,,2,3.0
Si4Rh4Lu3,0.0,-0.0321571,,2,3.0
Ni2ZnY,0.0,-0.0188152,,2,3.0
Al2PdOs,0.0,-0.0308694999999999,,2,3.0
KCoTe3Hf,0.0,-0.0341109,,2,3.0
Si2RuRhTb,0.0,-0.0282281,,2,3.0
S3ClCu3Se,0.3676,-0.0130657999999999,,2,3.0
Si4Sm3Os4,0.0,-0.042624,,2,3.0
Cu3SrPt2,0.0,-0.035093,,2,3.0
H4NiNd,0.0,-0.0128012,,2,3.0
Cd2TlBi,0.0,-0.0528718,,2,3.0
B2Ni2Cu,0.0,-0.0126318,,2,3.0
SiMo2,0.0,-0.0268721,,2,3.0
NNb,0.0,-0.022453,,2,3.0
Al3RhIn2Tb3,0.0,-0.030118,,2,3.0
H6CNCl3In,0.0,-0.0087331,,2,3.0
B2CCu2Th,0.0,-0.025505,,2,3.0
Ga2CdNd2,0.0,-0.030698,,2,3.0
AsInPr,0.0,-0.033354,,2,3.0
LiF4Pu,0.0,-0.0246463,,2,3.0
SbHf,0.0,-0.0505592,,2,3.0
O5MnSe2,0.9852,-0.012395,,2,3.0
Al3Si2NiLu3,0.0,-0.0258288,,2,3.0
ScAsNb,0.0,-0.0235154999999999,,2,3.0
S2ZnRb2,2.5677,-0.0160795,,2,3.0
SbNdPt,0.446,-0.0517372,,2,3.0
La2OsHg,0.0,-0.0569388,,2,3.0
CaZn2Tb,0.0,-0.0212179,,2,3.0
LiScLa2,0.0,-0.0256314,,2,3.0
VGaOs2,0.0,-0.0447937999999999,,2,3.0
P2KSr,0.0,-0.013624,,2,3.0
AgTbHg,0.0,-0.0492468,,2,3.0
Ga3Sn2Lu3Pt,0.0,-0.0404743,,2,3.0
F6MoPb,0.0,-0.0189831,,2,3.0
NiIn2La,0.0,-0.0320444,,2,3.0
MnZn4Hf,0.0,-0.0226916,,2,3.0
Fe3Th,0.0,-0.0375008,,2,3.0
Al3Ge2Ho3Au,0.0,-0.0316926,,2,3.0
HSr3Tl,0.0,-0.0289231,,2,3.0
Ni2CuTh2,0.0,-0.0481894,,2,3.0
CuCdTm,0.0,-0.0328432,,2,3.0
Al5NiNd,0.0,-0.0145263,,2,3.0
K2RbCd,0.0,-0.0169092,,2,3.0
BNRhBa,0.0,-0.0232948999999999,,2,3.0
P2Ru2Cd,0.0,-0.0246666,,2,3.0
SrAu4Pb,0.0,-0.0629101,,2,3.0
PmAu3,0.0,-0.0636804,,2,3.0
ZnTmAu,0.0,-0.0457204,,2,3.0
NaCuSe3Er,0.0,-0.0229147,,2,3.0
NiCuAu2,0.0,-0.0424239999999999,,2,3.0
Pt3Pa,0.0,-0.0786608999999999,,2,3.0
HO5PMn,1.0364,-0.0099665999999999,,2,3.0
Y3Cd5,0.0,-0.0298674,,2,3.0
GaDyPt2,0.0,-0.0523556,,2,3.0
Ge2RhIn3Ho3,0.0,-0.0362757,,2,3.0
TiFeGe,0.0,-0.0183069999999999,,2,3.0
LiGeDy,0.0,-0.0238559,,2,3.0
LiCl2Ga,2.8168,-0.0099423999999999,,2,3.0
GaSb2Sm,0.0,-0.0345291,,2,3.0
S3CuSrEr,1.1387,-0.0213767999999999,,2,3.0
FeCo2Dy2,0.0,-0.0297767,,2,3.0
MgAs2Sn,0.4654,-0.0206819,,2,3.0
Rh5Ir3,0.0,-0.047791,,2,3.0
Al2HfAu,0.0,-0.0374671,,2,3.0
ScLaAu2,0.0,-0.0499336,,2,3.0
Te2Er6Ir,0.0,-0.0506993,,2,3.0
Tm3Pt,0.0,-0.0572771,,2,3.0
O4GeCe,1.6639,-0.0175276,,2,3.0
CrW,0.0,-0.0440278,,2,3.0
CoNi2,0.0,-0.0165546,,2,3.0
Pt5Bi,0.0,-0.071529,,2,3.0
CuPd7,0.0,-0.0306039,,2,3.0
As2SmPt2,0.0,-0.046087,,2,3.0
O7Na2Si3,4.8157,-0.0096082,,2,3.0
CO7PKPr,0.0651,-0.0129092,,2,3.0
H2BrBa2,0.0,-0.0221438999999999,,2,3.0
TaPtAu2,0.0,-0.0691148,,2,3.0
O6CaPdBa2,0.0,-0.0179288999999999,,2,3.0
Fe7Zn,0.0,-0.0174705,,2,3.0
HIPt,1.1469,-0.0369013,,2,3.0
Zr4Ru2Tl5,0.0,-0.0507087,,2,3.0
CaCd4Tl,0.0,-0.0341291,,2,3.0
H4CoHo,0.0,-0.0138684999999999,,2,3.0
NaCdAu2,0.0,-0.0435313,,2,3.0
LiAgPb,0.0,-0.036698,,2,3.0
HLi4N,1.9134,-0.0042045,,2,3.0
K2Ga3,0.2608,-0.0133774,,2,3.0
H4CrBa,0.0,-0.0123036,,2,3.0
OSCl2,3.5075,-0.0085791,,2,3.0
YAg4Hg,0.0,-0.0371466,,2,3.0
Tm5Pt2Bi,0.0,-0.0609059,,2,3.0
RhIr2Np,0.0,-0.071119,,2,3.0
CdAu7,0.0,-0.0643897,,2,3.0
AlBaPt2,0.0,-0.0479622,,2,3.0
AlCrIr2,0.0,-0.0428664,,2,3.0
AlTiNi2,0.0,-0.0147356,,2,3.0
AlP2S7K,2.4859,-0.0102421,,2,3.0
Al3Ge2ReTh3,0.0,-0.0472961,,2,3.0
Ni2Y2Bi,0.0,-0.0338896999999999,,2,3.0
S2AgSn,0.6954,-0.0218906,,2,3.0
Ca2Cu2Pb,0.0,-0.0254628,,2,3.0
NiAsBa,0.0,-0.0260953,,2,3.0
Ti4Pd,0.0,-0.0196329999999999,,2,3.0
F6MnNp,0.0,-0.0217122,,2,3.0
Li2MgRh,0.0,-0.0111545,,2,3.0
NiSe3SrHo,0.0,-0.0262612,,2,3.0
NiTm,0.0,-0.0345173,,2,3.0
CSiFe2Dy,0.0,-0.0212989,,2,3.0
O4ClSb2Pr,0.5498,-0.0209408,,2,3.0
Zr6CdSb2,0.0,-0.0326444,,2,3.0
FeGa3Ge2Tb3,0.0,-0.0279849,,2,3.0
C3Lu2W2,0.0,-0.0404981,,2,3.0
ZrSnIr,0.0,-0.0468416,,2,3.0
Ge2ErPt,0.0,-0.0406259,,2,3.0
PHg2,0.0,-0.0488244,,2,3.0
Fe2DyPu,0.0,-0.0485921,,2,3.0
Li2Mg2Si2Pr,0.0,-0.0115482,,2,3.0
CoLa2Au,0.0,-0.0435925,,2,3.0
PCeSm,0.0,-0.0343034,,2,3.0
Si2Er2Hg,0.0,-0.0384789,,2,3.0
ScZnGa2,0.0,-0.0156056,,2,3.0
LiMgGa2,0.0,-0.0102614,,2,3.0
OAs2Rb2Tb2,0.0,-0.02763,,2,3.0
O4RhCd,0.0,-0.0155305,,2,3.0
MgPd2Sm3,0.0,-0.0345939,,2,3.0
PBa2Pt,0.0,-0.0409183,,2,3.0
As2Tl2Pb,0.0,-0.0521244,,2,3.0
F6PdBa2,1.7175,-0.0180066999999999,,2,3.0
O4Cu2Te2LuBi2,0.0,-0.0325356,,2,3.0
CuGa3Nd,0.0,-0.0221790999999999,,2,3.0
LaPt3Au2,0.0,-0.0660719,,2,3.0
BeSiZr,0.0,-0.0158074,,2,3.0
O2Cl2CuEu2,0.0,-0.0239256999999999,,2,3.0
TiZr5,0.0,-0.0282143,,2,3.0
B2C2Y,0.0,-0.0131409,,2,3.0
Cl3Pr2,0.2931,-0.0242225,,2,3.0
HBr2La2,0.0,-0.0271692,,2,3.0
AlCo2Ce2,0.0,-0.0265607,,2,3.0
AlBrNd,0.0,-0.0248453,,2,3.0
P2S6Pd,0.6097,-0.0126219,,2,3.0
SeTe3W2,0.4429,-0.0453275999999999,,2,3.0
Co2Sm2Tl,0.0,-0.0394424,,2,3.0
LiRh2In2,0.0,-0.0277236,,2,3.0
Te2Sm6Pt,0.0,-0.0467472,,2,3.0
Li2PrTl,0.0,-0.0305317,,2,3.0
Sc2Ag2Cd,0.0,-0.0246487,,2,3.0
TbErIr2,0.0,-0.0608399,,2,3.0
Ga3Pd2Tm,0.0,-0.0285471,,2,3.0
Mn2CuPt,0.0,-0.0309813,,2,3.0
NZrMo,0.0,-0.0262684,,2,3.0
B2TiTa2,0.0,-0.0334945,,2,3.0
SiLa2Os,0.0,-0.0425651,,2,3.0
PKCs2,0.2449,-0.023899,,2,3.0
AlW,0.0,-0.0388585,,2,3.0
In2HgPb,0.0,-0.0526376,,2,3.0
CaFeGe2,0.0,-0.0168188999999999,,2,3.0
Cr3Tc,0.0,-0.0226361,,2,3.0
OMnAsSm,0.0,-0.0242899,,2,3.0
Li5Pt,0.0,-0.0140351,,2,3.0
ZnSrTe2,1.2343,-0.0286297,,2,3.0
H4Cs2Au,0.0,-0.0228945,,2,3.0
Ni2PbTh2,0.0,-0.0605249999999999,,2,3.0
GaGePm2,0.0,-0.0315055,,2,3.0
Ni2CuAu,0.0,-0.0291305,,2,3.0
Sb2Ho6Os,0.0,-0.0496837,,2,3.0
NiTe2Tl,0.0,-0.0409602,,2,3.0
CoSe2Lu6,0.0,-0.0440748,,2,3.0
Al3CaNi2,0.0,-0.011462,,2,3.0
Na4S4Cr,0.5186,-0.0092950999999999,,2,3.0
HO2Co,0.6359,-0.0096721,,2,3.0
F4CsBi,4.959,-0.0243745,,2,3.0
Zr5In3,0.0,-0.0320604,,2,3.0
InISm,0.0,-0.0392568,,2,3.0
Li5O10Fe3Sb2,0.0,-0.0118856,,2,3.0
Si3Zn6Pr2,0.0,-0.0184233,,2,3.0
NCaIr,0.0,-0.0307523,,2,3.0
NiBr6Cs2,0.1302,-0.0242849,,2,3.0
Al2OsTh,0.0,-0.0464401999999999,,2,3.0
Mg2CaIn,0.0,-0.0135311,,2,3.0
H6Ce2Os,0.0,-0.020696,,2,3.0
Ga2Au2Tl,0.0,-0.0488376,,2,3.0
H6CoY2,0.0,-0.0109715,,2,3.0
CaTcTeI2,0.0,-0.0312204,,2,3.0
CuAsSe2,0.3978,-0.0190188,,2,3.0
Ca4Sr5,0.0,-0.0166533,,2,3.0
Al3Tm4,0.0,-0.0332561,,2,3.0
Al2SrPt,0.0,-0.0279863,,2,3.0
Li2Ge2Ba,0.0,-0.0169641,,2,3.0
In2PmEu,0.0,-0.0417303,,2,3.0
BaTi7O14,0.0,-3.480667132196969,mp-757266,2,3.0
CoY2In8,0.0,-0.031319,,2,3.0
S2EuTl,0.0,-0.0376605,,2,3.0
MnTm6Tl2,0.0,-0.0529533,,2,3.0
AlCdNd,0.0,-0.0277170999999999,,2,3.0
Ca2Ga3Pd,0.0,-0.0175694,,2,3.0
SSr,2.2787,-0.0183992,,2,3.0
TiCuGaPd,0.0,-0.0206233,,2,3.0
Al6GeW,0.0,-0.0170222,,2,3.0
I3Tm,2.8383,-0.0420125,,2,3.0
Y2RhTe,0.0,-0.0328415,,2,3.0
CZr3Cd,0.0,-0.0270832,,2,3.0
Re2IrPt,0.0,-0.0710946,,2,3.0
NFBa6Pb2,0.0,-0.0414376,,2,3.0
CuTcLu2,0.0,-0.0404936,,2,3.0
Al2Ge2Cs,0.0,-0.0184585,,2,3.0
SPu2,0.0,-0.0776902,,2,3.0
LiLaPb,0.0,-0.0412105,,2,3.0
Li5O2CuSe,2.0218,-0.0081792,,2,3.0
Si4Pr3Os4,0.0,-0.0422834,,2,3.0
CuTcHo2,0.0,-0.0372254,,2,3.0
Rh2La2Tl,0.0,-0.0459844,,2,3.0
F4Rh,0.0,-0.0111863,,2,3.0
BeCr3,0.0,-0.01489,,2,3.0
O6MgRuLa2,0.0,-0.0192635,,2,3.0
Ti2Zr,0.0,-0.0208796,,2,3.0
CoZrPt2,0.0,-0.0480142,,2,3.0
H4CoSm,0.0,-0.0131187,,2,3.0
Ca2Rh2Sn,0.0,-0.0252642,,2,3.0
LiO8FeLa4,0.0,-0.0205748,,2,3.0
MnSe3SnDy,0.0,-0.0281085999999999,,2,3.0
AsSbNd2,0.0,-0.0375991,,2,3.0
ScNi3Ga2,0.0,-0.016464,,2,3.0
Se2Ce,0.633,-0.0300243,,2,3.0
F8Na2CeSm,0.0,-0.014369,,2,3.0
Mg2Dy,0.0,-0.0193204999999999,,2,3.0
Be4ReOs,0.0,-0.027103,,2,3.0
N3TcU,0.0,-0.0341542,,2,3.0
S8V4Ge,0.0,-0.0137609999999999,,2,3.0
Ni2BrHo2,0.0,-0.030834,,2,3.0
Fe3Ta5,0.0,-0.0484505,,2,3.0
Se2TcTl,0.0,-0.0372456,,2,3.0
YTbPb2,0.0,-0.0572231,,2,3.0
NdPt2,0.0,-0.0625651,,2,3.0
Ga2Zr2Hg,0.0,-0.0330443,,2,3.0
CdHgPb2,0.0,-0.0624986,,2,3.0
O4AlSrPr,3.1821,-0.017503,,2,3.0
O5Sb2,0.5963,-0.0164956,,2,3.0
P4Cu2Zn2Sr3,0.0,-0.0159473,,2,3.0
O6SAs2,4.3319,-0.0110699,,2,3.0
PCl6Cs3,2.9102,-0.0186921,,2,3.0
Cl3KCa,5.2659,-0.0108825,,2,3.0
PdAuAc2,0.0,-0.0715678,,2,3.0
PCu5Sn,0.0,-0.0174807,,2,3.0
CdReIr2,0.0,-0.0610489,,2,3.0
YTmIr2,0.0,-0.0565111,,2,3.0
NiAsDy,0.0,-0.029198,,2,3.0
O4TbPu,0.11,-0.0337915,,2,3.0
Ca2InTl,0.0,-0.0318953,,2,3.0
OF3Co2,0.0,-0.010477,,2,3.0
CTi3Sn,0.0,-0.0195519,,2,3.0
AsSr3,0.0,-0.0224711,,2,3.0
CaNiZn2,0.0,-0.0135033999999999,,2,3.0
Mg2Au,0.0,-0.0270508,,2,3.0
BeAu5,0.0,-0.0584844999999999,,2,3.0
In3Sn2Dy3Ir,0.0,-0.0437177999999999,,2,3.0
F4ScZn,3.0433,-0.0103249,,2,3.0
C2TiCr,0.0,-0.0141111,,2,3.0
C2FeTb,0.0,-0.0215514,,2,3.0
TeBa2Ir,0.0,-0.0475434,,2,3.0
H3BeK,2.5559,-0.0047913,,2,3.0
FeBr4Rb2,0.0504,-0.0210133,,2,3.0
Rb3Au7,0.0,-0.0550045,,2,3.0
CCr2Ge2Lu2,0.0,-0.0285629,,2,3.0
Si3Zn6Nd2,0.0,-0.0184716999999999,,2,3.0
LiO7As2Y,3.5837,-0.0125429,,2,3.0
Si3NdOs,0.0,-0.0297707,,2,3.0
Al3GeEu2,0.0,-0.0254562,,2,3.0
Si4Zn4Ho3,0.0,-0.0224813,,2,3.0
ZnPm2Os,0.0,-0.0436082,,2,3.0
As2Mo,0.0,-0.0253759,,2,3.0
TiSbGd,0.0,-0.0381628,,2,3.0
Sc2ZnPd2,0.0,-0.0223518,,2,3.0
SeBr3Tl,0.0,-0.0304948,,2,3.0
ScZr2Rh,0.0,-0.0278638,,2,3.0
Si2Nd3,0.0,-0.030832,,2,3.0
CaCd2Gd,0.0,-0.0327445,,2,3.0
ClCuDy,0.0,-0.0249076999999999,,2,3.0
CaCu2Rh3,0.0,-0.023694,,2,3.0
F7Mn2Rb3,1.4079,-0.0132646,,2,3.0
YHgPb2,0.0,-0.0623679,,2,3.0
F6RbCs2U,0.0,-0.0252656,,2,3.0
MgZrIn2,0.0,-0.026025,,2,3.0
H3FeNb,0.0,-0.0124099,,2,3.0
H2Zr2Cd,0.0,-0.0201841,,2,3.0
GeCeDy,0.0,-0.0378432,,2,3.0
O2CsNd,2.8545,-0.0262612999999999,,2,3.0
S8FeNb4,0.0,-0.0186187,,2,3.0