formula,bg,formation_energy,mp-id,fidelity,bg_category
P2Pd2Dy,0.0,-0.0278374999999999,,2,3.0
O6Ca2NbGd,2.6369,-0.0181277,,2,3.0
Sc3Ir2Au,0.0,-0.0435317999999999,,2,3.0
SbTeCe,0.0,-0.0409416,,2,3.0
MgCo2Ta2,0.0,-0.034605,,2,3.0
Ca3Mn2Cu2Sb4,0.0,-0.0229008,,2,3.0
Li2SiEu,0.0,-0.0174662,,2,3.0
ScMn2U,0.0,-0.0386017,,2,3.0
FeCoDy,0.0,-0.0277587,,2,3.0
Al8Rh,0.0,-0.0109045,,2,3.0
Si2Sc2Hf,0.0,-0.0229418,,2,3.0
O3Rb2Hf,3.5884,-0.0232257999999999,,2,3.0
CrZn2U,0.0,-0.037194,,2,3.0
Zn2Pd3Pr,0.0,-0.0288366,,2,3.0
Cl2La2Pb,0.3352,-0.0374668,,2,3.0
In3Sb,0.0,-0.0342796,,2,3.0
B2Zr2Tc,0.0,-0.0230573,,2,3.0
H2OFAg2I,0.8567,-0.0174553,,2,3.0
In2SbLa,0.0,-0.0374506999999999,,2,3.0
RuPr3,0.0,-0.0413812,,2,3.0
BePFe2,0.0,-0.0131252,,2,3.0
S2IBi,0.5761,-0.0337428,,2,3.0
ZnSmPt2,0.0,-0.0506024,,2,3.0
SnHf2Ir2,0.0,-0.0616439,,2,3.0
Li2F8CaNd,0.0,-0.0106818,,2,3.0
P2Se6SnTl2,0.4399,-0.0295478,,2,3.0
CrPd5,0.0,-0.0305134,,2,3.0
Al5S8Cu,1.4714,-0.0105371,,2,3.0
SiMn5,0.0,-0.0170796,,2,3.0
RhNd6Bi2,0.0,-0.0509933,,2,3.0
H5CdCs3,2.3358,-0.0181729,,2,3.0
Fe3Ge2Er,0.0,-0.0241705,,2,3.0
Si2TiNb2,0.0,-0.0212485,,2,3.0
Al2GaNb,0.0,-0.0167364999999999,,2,3.0
MgHo,0.0,-0.0270476999999999,,2,3.0
Ga2Hf2Au,0.0,-0.0461007,,2,3.0
AsBr2Tb2,0.0,-0.032418,,2,3.0
Ni2GeTm,0.0,-0.0265124,,2,3.0
PZrRh5,0.0,-0.0307987,,2,3.0
Al3GeTm2,0.0,-0.0249033,,2,3.0
CuZnBa,0.0,-0.022843,,2,3.0
Al3Co2La,0.0,-0.0172015999999999,,2,3.0
YOs,0.0,-0.0502364,,2,3.0
Li2SePb,0.0,-0.0258885,,2,3.0
GeBrI,2.0281,-0.0255018999999999,,2,3.0
N12P6ClZn3,0.0,-0.0107483,,2,3.0
Zn2GaSm,0.0,-0.0224277,,2,3.0
AlGeAc2,0.0,-0.052319,,2,3.0
Si2ZnGd,0.0,-0.0234492,,2,3.0
C4RuLa3,0.0,-0.0258916,,2,3.0
H2RbCs,2.3249,-0.016585,,2,3.0
La2IrHg,0.0,-0.0571811,,2,3.0
CoZnSb,0.0,-0.0227083,,2,3.0
Cr2Ni,0.0,-0.017542,,2,3.0
Zr6Te2Au,0.0,-0.0371593,,2,3.0
C4CoPr3,0.0,-0.0237091,,2,3.0
MnCo3Dy2,0.0,-0.027716,,2,3.0
SiRh2Ba,0.0,-0.0299349,,2,3.0
FeSbHf,0.0,-0.0398138,,2,3.0
Ca2CuAu2,0.0,-0.035267,,2,3.0
Mg2Cd2Ba,0.0,-0.0223616,,2,3.0
La20S29O,1.881199999999999,-2.548416513949999,mp-1224734,2,3.0
O7Ti2Tm2,3.8184,-0.0199730999999999,,2,3.0
B2Fe2Hf,0.0,-0.0233649999999999,,2,3.0
H2La3Pb,0.0,-0.0359911,,2,3.0
AlAg2Ba,0.0,-0.0278085,,2,3.0
O6Ca2NiOs,0.0,-0.0165406,,2,3.0
O8Si3K2Zn,3.9392,-0.0105543999999999,,2,3.0
Sc3Zn2Pd,0.0,-0.0177508,,2,3.0
O2Na3Au,1.3446,-0.0169471,,2,3.0
Rh3Th,0.0,-0.0500542,,2,3.0
GeMoDy,0.0,-0.0344936999999999,,2,3.0
Ca3Sn5Pt,0.0,-0.0316725,,2,3.0
LiSe6Zr3,0.0,-0.0230245,,2,3.0
CCl2Pr2,0.4608,-0.0241063,,2,3.0
O12Mg3Si4K,0.955,-0.0098094,,2,3.0
AgAu4Hg,0.0,-0.0626687,,2,3.0
B6Ru2Ce,0.0,-0.018158,,2,3.0
O6NaMo2,0.0,-0.0145038,,2,3.0
GaPd2Er,0.0,-0.0340419,,2,3.0
MnFeHf2,0.0,-0.0406801,,2,3.0
O4TbEr,1.35,-0.0234484,,2,3.0
InPtAu2,0.0,-0.060677,,2,3.0
Li4P2Ce,0.0,-0.0116222999999999,,2,3.0
Se8Mo6Pr,0.0,-0.0283584,,2,3.0
Li2RhBi,0.0,-0.0297271,,2,3.0
RhPt2Pa,0.0,-0.0695545,,2,3.0
TiMn2Ga,0.0,-0.0176242,,2,3.0
Si2NiSm,0.0,-0.0210397,,2,3.0
NaS2Ga,2.6061,-0.0110574,,2,3.0
BaTlPb4,0.0,-0.0695011,,2,3.0
NMgY3,0.0,-0.0204139,,2,3.0
TiCd,0.0,-0.0233223999999999,,2,3.0
AuBi2Np,0.0,-0.0833336,,2,3.0
N2DyHo,0.0,-0.0308692,,2,3.0
CuRbTe,0.4589,-0.0250686,,2,3.0
OPZnLu,0.8337,-0.0234587,,2,3.0
H2O3PSK,4.6314,-0.0084078,,2,3.0
Al4Eu,0.0,-0.0172497,,2,3.0
Li5SBi,0.2102,-0.015215,,2,3.0
Al2PrIr3,0.0,-0.0463934,,2,3.0
B2O6ScY,4.5594,-0.0127931,,2,3.0
O5Se2Eu2Hf2,0.0,-0.0307337,,2,3.0
Mg2NdAu,0.0,-0.0313523,,2,3.0
Pm3Ho,0.0,-0.0452212,,2,3.0
Be2TaPt2,0.0,-0.0439086,,2,3.0
Y2SbPt,0.0,-0.0421174,,2,3.0
FeCoSb,0.0,-0.0243072,,2,3.0
Rh2Sb,0.0,-0.0353392,,2,3.0
MgCo4Ru,0.0,-0.0181002,,2,3.0
Co4YZr,0.0,-0.0214378,,2,3.0
Ga3Sr2Ir2,0.0,-0.0343375,,2,3.0
Be2Co2Nb,0.0,-0.0154099,,2,3.0
Cu4TbTl,0.0,-0.0302073,,2,3.0
LiPdTl2,0.0,-0.0452346999999999,,2,3.0
Al2PdHf,0.0,-0.02852,,2,3.0
H8O14MgP2V2,0.7942,-0.0084736,,2,3.0
O12Si4CuHo2,0.9467,-0.0150989,,2,3.0
Zn2AgGd,0.0,-0.0296337,,2,3.0
LiMg2,0.0,-0.0041697,,2,3.0
AlMnHo,0.0,-0.0253767,,2,3.0
InSn,0.0,-0.0345184,,2,3.0
BGa2PrIr2,0.0,-0.0383042,,2,3.0
GaPdHo,0.0,-0.0337242,,2,3.0
P2Mn2Er,0.0,-0.0225159999999999,,2,3.0
AlCo2Lu2,0.0,-0.0310106,,2,3.0
Cl6NiRb2,0.5157,-0.0130877,,2,3.0
H6KNiRb2,0.0,-0.0088851,,2,3.0
O2YSm,0.0,-0.0243047,,2,3.0
CaY2Tl2,0.0,-0.0425824,,2,3.0
O2ZnAsBr,2.7226,-0.0143036,,2,3.0
Al3Ag,0.0,-0.013702,,2,3.0
B4O12Al3Sm,5.3645,-0.0117349999999999,,2,3.0
ZnY2In2,0.0,-0.027733,,2,3.0
PFePu,0.0,-0.0468603,,2,3.0
Ga4Ge2La3,0.0,-0.0265804,,2,3.0
SiCuU,0.0,-0.0431614,,2,3.0
CaSn5Ir,0.0,-0.0375025,,2,3.0
CuOsIr2,0.0,-0.0572788,,2,3.0
BaBi2,0.0,-0.0662864,,2,3.0
PRbSr,1.0606,-0.0186631,,2,3.0
MgLa2Hg,0.0,-0.0402629,,2,3.0
O8MnFe4Zn,0.0,-0.01263,,2,3.0
ZrRh2Tl,0.0,-0.0432655,,2,3.0
CuZn2Ta,0.0,-0.0272923,,2,3.0
Be2Ti2Ir,0.0,-0.0230449,,2,3.0
NZn2Br,1.6039,-0.014406,,2,3.0
Sr3Tl2,0.0,-0.0427994,,2,3.0
O5V3,0.0,-0.0131321999999999,,2,3.0
Y8Tl,0.0,-0.0328667,,2,3.0
RuPt3,0.0,-0.0613711,,2,3.0
LiO4MnSb,0.0,-0.0136794,,2,3.0
GaGeTe,0.2571,-0.0244715,,2,3.0
CuY3Rh2,0.0,-0.0284568,,2,3.0
In2EuTm,0.0,-0.0436454,,2,3.0
AlGa5Eu,0.0,-0.0207037,,2,3.0
H2AlCeIr,0.0,-0.0268316,,2,3.0
ZnRhSb,0.0,-0.0285817,,2,3.0
Si2FeDy2,0.0,-0.0273803,,2,3.0
Li2PPt,0.0,-0.022206,,2,3.0
Cr4Se8AgCd,0.0,-0.0219055,,2,3.0
I4Er,0.0,-0.0405574999999999,,2,3.0
LiO4Ti2,0.0,-0.0115922,,2,3.0
CoIn5Np,0.0,-0.0415856,,2,3.0
C4CuLu3,0.0,-0.0280666,,2,3.0
Ga2Ge2Ba3,0.0,-0.0277058,,2,3.0
LiZnRhTl,0.0,-0.0307425,,2,3.0
AgIn2Ba,0.0,-0.0348632,,2,3.0
SiHfIr2,0.0,-0.0548104,,2,3.0
Al4RhLa,0.0,-0.0187755,,2,3.0
FeRuIr,0.0,-0.041405,,2,3.0
Ca3PdIn3Sn2,0.0,-0.0266646,,2,3.0
LiLaPt2,0.0,-0.0474763999999999,,2,3.0
PdDyHg,0.0,-0.0504142,,2,3.0
H2NaRb,3.1796,-0.0081856,,2,3.0
Al2PdNd,0.0,-0.0238353,,2,3.0
N3TcTb,0.0,-0.0226787,,2,3.0
F6ScPu,0.0,-0.0220747,,2,3.0
Ge4Zr3Pd4,0.0,-0.0281316,,2,3.0
CaIn4Pt,0.0,-0.0361728,,2,3.0
S3Rb3In,2.3455,-0.0190252,,2,3.0
F3CuCs,0.0122,-0.0150507,,2,3.0
AlPm2Tl,0.0,-0.0424919999999999,,2,3.0
H6K2Rh,0.0,-0.0080324,,2,3.0
Li3Sb2Np,0.0,-0.0319059,,2,3.0
CuRhSm2,0.0,-0.035045,,2,3.0
Se2Rb3Au,1.9841,-0.029709,,2,3.0
Pd2HgBi,0.0,-0.0531871,,2,3.0
O4CoPr,0.0,-0.0162351,,2,3.0
Co4CdTb,0.0,-0.0244315,,2,3.0
FBrRb2,4.0916,-0.0184279,,2,3.0
FeSm2Os2,0.0,-0.0503949,,2,3.0
Cl12InSbCs4,0.9976,-0.0192638,,2,3.0
Cu2In3,0.0,-0.0260642,,2,3.0
Co3GeY2,0.0,-0.0213954999999999,,2,3.0
ZnBaAu2,0.0,-0.0485184,,2,3.0
Zn3Rh2Nd,0.0,-0.0258574,,2,3.0
ScErTl2,0.0,-0.0527952999999999,,2,3.0
P2S6Rh,0.0,-0.0127758,,2,3.0
N2NiNp2,0.0,-0.0505474,,2,3.0
Fe3Rh5,0.0,-0.0280191,,2,3.0
Co2Ho4Tl5,0.0,-0.0542081,,2,3.0
O9Na2Ca3Ta2,3.6701,-0.0171298,,2,3.0
AsCs2Au,0.7321,-0.0418915999999999,,2,3.0
Al2Sm2Tl,0.0,-0.035844,,2,3.0
NiRh2Ba,0.0,-0.0308919,,2,3.0
Zn2AgEu,0.0,-0.0283008999999999,,2,3.0
MgSe4Tb2,1.6191,-0.0273693,,2,3.0
S8Ti5,0.0,-0.0136672999999999,,2,3.0
S3AgSbHg,0.7886,-0.0277899,,2,3.0
Li6CuSe4,0.0,-0.0110775,,2,3.0
Br3PdTl,0.0,-0.0332789,,2,3.0
Fe2Gd,0.0,-0.0317272,,2,3.0
LiCaPb2,0.0,-0.0414632999999999,,2,3.0
O6Cr2Th,0.0,-0.0216971,,2,3.0
Cu2As2Cs,0.0,-0.0219699,,2,3.0
P2Ru2Er,0.0,-0.0292943999999999,,2,3.0
Ba2Pt2Pb,0.0,-0.0598581999999999,,2,3.0
MnGe3Ce,0.0,-0.0244879,,2,3.0
LiO4TiNd,2.3498,-0.0157374,,2,3.0
Co2ZrLu,0.0,-0.0305371999999999,,2,3.0
Al2CoLu6,0.0,-0.0407883,,2,3.0
Al3Si2MnTb3,0.0,-0.0231067,,2,3.0
RuRh3,0.0,-0.0340193,,2,3.0
BeFe2Y,0.0,-0.0171377999999999,,2,3.0
B6Fe2Sm,0.0,-0.0143895,,2,3.0
Ge3Gd,0.0,-0.0294356,,2,3.0
F6Rb2Ag,0.3003,-0.0124365,,2,3.0
B3TiMn,0.0,-0.012187,,2,3.0
BeTi2Co,0.0,-0.0136858,,2,3.0
O6MnZnTb2,1.5629,-0.0192029,,2,3.0
ZnGe2Y3In3,0.0,-0.0268188,,2,3.0
AlNi2,0.0,-0.0139237,,2,3.0
Mg2ScCd,0.0,-0.013874,,2,3.0
LiZn4Au,0.0,-0.0212198,,2,3.0
ClScSe,1.2036,-0.0162141,,2,3.0
O2Zr3,0.0,-0.0232293999999999,,2,3.0
GaGePt5,0.0,-0.0556575,,2,3.0
O6NbBa2Os,0.0,-0.0246598,,2,3.0
Ni3Nd2,0.0,-0.0274413,,2,3.0
Al3Si2Er2,0.0,-0.0211283,,2,3.0
BO3Bi,2.9969,-0.0228656,,2,3.0
GeLaAu2,0.0,-0.0509761,,2,3.0
Al8Fe4Er,0.0,-0.0146887,,2,3.0
O2CoAg,0.2191,-0.0163905999999999,,2,3.0
LiAl2In,0.0,-0.0129121,,2,3.0
O2Sn,0.8742,-0.0179393999999999,,2,3.0
Ag2Au2Tl,0.0,-0.0546745,,2,3.0
H8Mg2MnY,0.8827,-0.0074226,,2,3.0
Cu2YEr,0.0,-0.0274609,,2,3.0
Rb2CdTe4Pb,0.0,-0.0377531,,2,3.0
Sc2YHg,0.0,-0.0314959,,2,3.0
ZnSe4Y2,0.0916,-0.0230885,,2,3.0
Mg2Si2Ru,0.0,-0.0133479,,2,3.0
Na3VSe4,1.5466,-0.0148057,,2,3.0
Rh2InPa2,0.0,-0.0608275999999999,,2,3.0
N2MnHf,0.0,-0.0262265,,2,3.0
O6Ba2SmAu,1.7463,-0.0253311,,2,3.0
Mn2NiPt,0.0,-0.0313136,,2,3.0
GeLa2Au,0.0,-0.04451,,2,3.0
LiY2Ir,0.0,-0.0329794,,2,3.0
NSc3Sb,0.0,-0.0191098,,2,3.0
Na3SnCs,0.0,-0.0174316999999999,,2,3.0
FeGa3Sr,0.0,-0.018245,,2,3.0
CoIr4,0.0,-0.060357,,2,3.0
Al3Si2Zr3Pd,0.0,-0.0194925,,2,3.0
O6CuBa2Tb,0.0,-0.0201202,,2,3.0
S2CaGd,0.0,-0.0242265,,2,3.0
H2Ca2Ge,0.0,-0.0096648,,2,3.0
FeNi2Mo,0.0,-0.0213843,,2,3.0
O7CaGe2Y,0.0,-0.0133002,,2,3.0
Al4FeLa,0.0,-0.0157939,,2,3.0
Zn3Sb2,0.0,-0.0229675,,2,3.0
Cl6K2NiAg,0.0,-0.0125429999999999,,2,3.0
B2Fe3Dy,0.0,-0.0198137,,2,3.0
F4FeRb,0.0945,-0.0115824,,2,3.0
HLiBr2,4.6141,-0.0121167,,2,3.0
Ni4Os,0.0,-0.0272264,,2,3.0
GaPrIr,0.0,-0.0444867,,2,3.0
GeYAu,0.0,-0.0397858,,2,3.0
Fe2TbPu,0.0,-0.0483298,,2,3.0
Si3FeSm,0.0,-0.0189625,,2,3.0
RhGd2Pt,0.0,-0.0564438,,2,3.0
O3SiPb,3.114,-0.0232426999999999,,2,3.0
Ni2GaNp2,0.0,-0.0525997,,2,3.0
Te2Dy6Au,0.0,-0.0487378,,2,3.0
Cd3Er,0.0,-0.0357227,,2,3.0
SrBaPb4,0.1967,-0.061414,,2,3.0
SrLa2Pt,0.0,-0.0453557,,2,3.0
AlSiTa,0.0,-0.0284362999999999,,2,3.0
SI2Ce2,0.0,-0.0362105,,2,3.0
PCaCo,0.0,-0.0132365,,2,3.0
CdLuPt,0.0,-0.053048,,2,3.0
NiAgBa2,0.0,-0.031658,,2,3.0
Br3InLa3,0.0,-0.0331203,,2,3.0
F8Na2BaPr,0.0,-0.0133377,,2,3.0
FeRbTe3Hf,0.0,-0.0362998,,2,3.0
SiRuNd,0.0,-0.0303342,,2,3.0
Cu2CdGd,0.0,-0.0300722,,2,3.0
N2GdDy,0.0,-0.0331912,,2,3.0
S3CuSnHo,1.1452,-0.0226631,,2,3.0
TiHf5,0.0,-0.0548856,,2,3.0
Li2NaAu,0.0,-0.0199338,,2,3.0
Cl2InCs,2.4951,-0.0231681,,2,3.0
H6MgBa2,2.6627,-0.0122009,,2,3.0
ZnCd2Pt2,0.0,-0.0433973,,2,3.0
HMo3Pt,0.0,-0.0358006,,2,3.0
SiBaOs,0.0,-0.0408937,,2,3.0
MnSnSb,0.0,-0.0304955,,2,3.0
Dy12Ge5S28,0.9731,-1.776804680999998,mp-1226206,2,3.0
LiF6K2Ir,2.1637,-0.0136601,,2,3.0
Ca3ZnSr,0.0,-0.0130036,,2,3.0
Ni3Pt4,0.0,-0.0471571,,2,3.0
P2NdOs2,0.0,-0.0424585,,2,3.0
LiN3Fe2Sr2,0.0,-0.0145367999999999,,2,3.0
CaGa2Pd3,0.0,-0.0242819,,2,3.0
MnCu4Tm,0.0,-0.0220698,,2,3.0
SiFeLa2,0.0,-0.0288858,,2,3.0
Fe4SmEr,0.0,-0.0278911,,2,3.0
O5Cu2BaEr,0.0,-0.0189574,,2,3.0
LiBe2Pd,0.0,-0.0113644,,2,3.0
Be4CrIr,0.0,-0.0183688,,2,3.0
LiCrAs2,0.0,-0.0156084,,2,3.0
Cl3GeSr3,0.0,-0.0175929,,2,3.0
ZnSr2Ir,0.0,-0.0326242,,2,3.0
O7NaP2Sm,5.2076,-0.0131768,,2,3.0
CaSe3ErAu,0.9875,-0.03314,,2,3.0
Li5O4FV,0.2435,-0.0077379,,2,3.0
O8Mn3Sn,0.2855,-0.0136978,,2,3.0
CoSr2Te,0.0,-0.0253349,,2,3.0
N3Dy4,0.0,-0.0329524,,2,3.0
Rh3Sn2Pr,0.0,-0.0367627,,2,3.0
CaSe2Te,0.0,-0.0228436999999999,,2,3.0
HBe2B5O13Sr3,3.7272,-0.0110622,,2,3.0
Mn2AsRu,0.0,-0.023118,,2,3.0
Al3Pr2,0.0,-0.0224146,,2,3.0
K2Ba,0.0,-0.0186708,,2,3.0
ScHg4,0.0,-0.057575,,2,3.0
RhAgCd2,0.0,-0.0316187,,2,3.0
Al2SGe,1.0718,-0.0115517,,2,3.0
Ag2InPu,0.0,-0.0514694999999999,,2,3.0
Mg2SrBi2,0.4788,-0.038534,,2,3.0
LiBeCu2,0.0,-0.0093958,,2,3.0
AlSi2Ho2,0.0,-0.0259047,,2,3.0
RhWIr,0.0,-0.0584357,,2,3.0
AlCu2Lu,0.0,-0.0238587,,2,3.0
BS3Tb,2.1778,-0.0180386,,2,3.0
LiP4Fe6,0.0,-0.0142694,,2,3.0
F2Au,0.2841,-0.0262887999999999,,2,3.0
CoNi2Th,0.0,-0.0366077,,2,3.0
CRu3Tb,0.0,-0.032512,,2,3.0
AlTiAu,0.0,-0.0317183,,2,3.0
PdTe2Lu6,0.0,-0.0496631,,2,3.0
Ca2GeTl,0.0,-0.0282499,,2,3.0
HAlGeGd,0.0,-0.0227529,,2,3.0
ZnAg2La3,0.0,-0.0345988,,2,3.0
LiPtAu2,0.0,-0.0531201,,2,3.0
I6Cs2Os,0.0,-0.0416002,,2,3.0
GeBaAu3,0.0,-0.0538816,,2,3.0
Li3O6Mn2Co,0.0,-0.0102955,,2,3.0
VTe2,0.0,-0.0310193,,2,3.0
S4Cr2Ag,0.0,-0.0160092,,2,3.0
NCo3Sn,0.0,-0.0193079,,2,3.0
MgAl4Ce,0.0,-0.0136344999999999,,2,3.0
S2Rb3Pd,0.0,-0.0199729,,2,3.0
CuSrTe3Dy,0.4229,-0.0341576,,2,3.0
Ag3Au2,0.0,-0.0465649,,2,3.0
Si4Rh4Hf3,0.0,-0.0341029,,2,3.0
BeMnTc,0.0,-0.0193919,,2,3.0
Mg2AgAu2,0.0,-0.0364688,,2,3.0
Na2S3Dy,0.0,-0.0157531,,2,3.0
O2F2NaI,4.1439,-0.0115975,,2,3.0
SrCsBi,0.8327,-0.0470262,,2,3.0
Ru2RhDy3,0.0,-0.0417734,,2,3.0
Li2Ge2Sr,0.0,-0.0135226,,2,3.0
YZr2Tc,0.0,-0.0312463,,2,3.0
F6NaK2Fe,0.0,-0.0088087,,2,3.0
SeIn2Hg,0.0,-0.0390361,,2,3.0
Ti2Ge2Os,0.0,-0.0290313,,2,3.0
K2InPt,0.0,-0.0303674,,2,3.0
LiO2Tm,4.4446,-0.0199584,,2,3.0
Cd2HoIr,0.0,-0.0456958,,2,3.0
Al3Ir2Th2,0.0,-0.0519976,,2,3.0
Rh2PrTb,0.0,-0.0401942,,2,3.0
BCo3Er,0.0,-0.0221970999999999,,2,3.0
CO3FLa,4.4408,-0.0155244,,2,3.0
Ho3Ir2Hg,0.0,-0.0605123,,2,3.0
C4MgY3,0.0,-0.0164552,,2,3.0
Ga3Pd2Tb,0.0,-0.0277279,,2,3.0
Li7O6Os,0.5029,-0.0108857,,2,3.0
PBa,0.4953,-0.0261397,,2,3.0
S4Cd5Te,0.4488,-0.0234665,,2,3.0
O8S2KRb,0.0,-0.0097585,,2,3.0
O9Nb7Ba,0.0,-0.0216918,,2,3.0
Cd2BaPb2,0.0,-0.0508650999999999,,2,3.0
Al3Si2Ca3Ir,0.0,-0.0165569,,2,3.0
ZnRhTb,0.0,-0.0321606,,2,3.0
Al3Si2PdTm3,0.0,-0.0266084,,2,3.0
HHfIr3,0.0,-0.056594,,2,3.0
RhSb2Tb,0.0,-0.0396466,,2,3.0
KRhSb2,0.0,-0.0296477,,2,3.0
O8KTiMo2,0.0,-0.0144325,,2,3.0
CoRhIr,0.0,-0.040682,,2,3.0
Pd2Ag2La,0.0,-0.0347602,,2,3.0
H2MgPt,0.0,-0.0209216,,2,3.0
PNbMo,0.0,-0.0268459,,2,3.0
H8Mg2CoY,0.0,-0.0072363,,2,3.0
TaOs,0.0,-0.0696325,,2,3.0
Ge2Zr2Os,0.0,-0.0351051,,2,3.0
LiRh2Sb2La,0.0,-0.0321992,,2,3.0
Cu4YIn,0.0,-0.0206641,,2,3.0
B2N3Cu2Nd3,0.0,-0.021481,,2,3.0
LiNi4,0.0,-0.0133744,,2,3.0
F6KI,3.9078,-0.0102831,,2,3.0
MnGe2In3Tb3,0.0,-0.0336239,,2,3.0
SiI2Th2,0.0,-0.0561256,,2,3.0
Zn2As2Eu,0.0,-0.0249777,,2,3.0
Ni3Rh2Pr,0.0,-0.0268014,,2,3.0
FeCoAs4,0.0,-0.0196552,,2,3.0
NaSr2Tl,0.0,-0.0306185,,2,3.0
B4VHo,0.0,-0.0168192,,2,3.0
F7Na3Lu,0.0,-0.0115894999999999,,2,3.0
Cu2As2CsSm,0.0,-0.0262685,,2,3.0
Li2O7LaTa2,0.0,-0.0217605,,2,3.0
MgIn2Pb,0.0,-0.0369296,,2,3.0
CoZrSb,1.0684,-0.0292427,,2,3.0
Cd3Au2,0.0,-0.0461685,,2,3.0
As2SrLa2,0.0,-0.0310898,,2,3.0
Cd2SmEu,0.0,-0.0401519,,2,3.0
CoTc3,0.0,-0.0305535,,2,3.0
LiO2V,0.0,-0.0106237,,2,3.0
SiS4CoCu2,0.0,-0.0125715,,2,3.0
Sb2PrAu,0.0,-0.0475725,,2,3.0
AlGeMo,0.0,-0.0208895,,2,3.0
Ge2RhU,0.0,-0.0442582,,2,3.0
H8CrCo2Ce,0.0272,-0.0105162,,2,3.0
F3KCd,3.1911,-0.0125083,,2,3.0
AsHg2Tl2,0.0,-0.0601721,,2,3.0
F4SrSn,2.9198,-0.0152571,,2,3.0
SrPd6Sb4,0.0,-0.0340705,,2,3.0
H2NbTa,0.0,-0.0268796,,2,3.0
Mg2AlSc,0.0,-0.008179,,2,3.0
CaSe3DyAu,0.9799,-0.0327292,,2,3.0
Co2BrSr2,0.0,-0.0203104,,2,3.0
ZnPt3,0.0,-0.0563918,,2,3.0
C2Np,0.0,-0.042184,,2,3.0
Co3Ni2Er,0.0,-0.0226122,,2,3.0
SiTiW,0.0,-0.032464,,2,3.0
B6Ir2Np,0.0,-0.0329204,,2,3.0
BeCoTc,0.0,-0.0191369,,2,3.0
CaRhTl2,0.0,-0.047407,,2,3.0
Ge3NbNd,0.0,-0.0274167,,2,3.0
Sc2NiRh,0.0,-0.0204368,,2,3.0
Tb3Dy,0.0,-0.0470036,,2,3.0
Ga2InBi,0.0,-0.035979,,2,3.0
BaPtHg,0.0,-0.0600157,,2,3.0
O5Ba2Tm2,1.9496,-0.0271733,,2,3.0
NdGdIr2,0.0,-0.0618786,,2,3.0
CCa2Ge2Ir2,0.0,-0.0306429,,2,3.0
S3KMnDy,0.1118,-0.0189943999999999,,2,3.0
CoEr2,0.0,-0.0395547,,2,3.0
Co2Sm4Pb5,0.0,-0.0542064,,2,3.0
Si4Ca3Cu4,0.0,-0.0121516,,2,3.0
S2TiV,0.0,-0.0144997,,2,3.0
CaZn4Rh,0.0,-0.016585,,2,3.0
F6RuSm,0.0,-0.0155746,,2,3.0
AgIn2Au,0.0,-0.0419587,,2,3.0
Ge2W,0.0,-0.0358894,,2,3.0
Nb3Tc,0.0,-0.033832,,2,3.0
Li2In3,0.0,-0.0212483,,2,3.0
NTiI,0.1187,-0.0220119,,2,3.0
F6Tl2Pu,0.581,-0.0334959,,2,3.0
F6ZnSm,0.0,-0.0128853,,2,3.0
BeFe2Os,0.0,-0.0281589,,2,3.0
Li2Sb2Ba,0.0,-0.0246476,,2,3.0
Pt2AuTl4,0.0,-0.0713482999999999,,2,3.0
O4AgI,0.0,-0.0156661999999999,,2,3.0
SeLa2Pb,0.0,-0.0471018,,2,3.0
Li2CuZn,0.0,-0.0085272,,2,3.0
O4NbHo,3.3914,-0.0212397,,2,3.0
Sc3CuPd2,0.0,-0.0213691999999999,,2,3.0
ZnTa5,0.0,-0.0577178,,2,3.0
K2MnGeSe4,0.8149,-0.0177824,,2,3.0
ZnRu2Er3,0.0,-0.0395794,,2,3.0
Al2PmEr,0.0,-0.0278563,,2,3.0
PPdPt2,0.0,-0.0462618,,2,3.0
SZrI,0.0,-0.0271768,,2,3.0
Li2ScGe,0.0,-0.010001,,2,3.0
C2O6FBaSm,4.1785,-0.0159068,,2,3.0
Cd2AuTl,0.0,-0.0506542,,2,3.0
Cd5La3,0.0,-0.0355401,,2,3.0
H3TiCo,0.0,-0.0090572,,2,3.0
H5CO4PFe,0.0232,-0.0079116999999999,,2,3.0
CuLu2,0.0,-0.0421695,,2,3.0
NiGaLu2,0.0,-0.0363656999999999,,2,3.0
Li4O8Mn3Fe,0.0,-0.0103934,,2,3.0
LiMoIr2,0.0,-0.0451806,,2,3.0
Se2NbTl,0.0,-0.0372010999999999,,2,3.0
Li2S2Ni,0.0672,-0.0090654,,2,3.0
AlRu2Ce,0.0,-0.0310142999999999,,2,3.0
O6FeRh3,0.0,-0.016739,,2,3.0
LiO4FeCo,0.0,-0.0106992999999999,,2,3.0
BNiW,0.0,-0.0314288,,2,3.0
Sr17(Ta5S21)2,1.7384000000000002,-1.8549436802656991,mp-532315,2,3.0
Li2S2Ba,1.7531,-0.0145495,,2,3.0
LiSr2Au,0.0,-0.0295429,,2,3.0
H2OCl2Ba,5.157,-0.0133945,,2,3.0
MnGa2Nb2,0.0,-0.0238077,,2,3.0
HLiO5PSb,2.4072,-0.0113076,,2,3.0
Ni4ZnY,0.0,-0.0180269,,2,3.0
Ga6RhLu,0.0,-0.02388,,2,3.0
Be4NiPt,0.0,-0.0178501,,2,3.0
MgSc3Pt2,0.0,-0.0323791,,2,3.0
LiCa2Tl,0.0,-0.0239451,,2,3.0
Al3Cu2Sr,0.0,-0.0130306,,2,3.0
LiMgPdSb,0.0,-0.0200196,,2,3.0
BNRuPr,0.0,-0.0247617,,2,3.0
H2Ga2U,0.0,-0.0287222,,2,3.0
ZnGe2In3Ho3,0.0,-0.0338122,,2,3.0
SrIn5Au2,0.0,-0.0413959,,2,3.0
P2K2Se6Sn,0.51,-0.0182378,,2,3.0
SbTbPt,0.3544,-0.0528786,,2,3.0
DyTmHg2,0.0,-0.0596955,,2,3.0
NiZn2La,0.0,-0.0220039,,2,3.0
O6CrSr2Os,0.2571,-0.0196569,,2,3.0
Pd3Th,0.0,-0.0495067,,2,3.0
FTeNd,0.2186,-0.0309604,,2,3.0
Ga5ZrRh,0.0,-0.0215029,,2,3.0
SrAu2Hg2,0.0,-0.0598387,,2,3.0
S2InPr,0.7016,-0.0255225,,2,3.0
Al2RuTm,0.0,-0.0262378,,2,3.0
Li2F8SrHo,0.0,-0.0122104999999999,,2,3.0
F8Y2Ba,7.2103,-0.0156314,,2,3.0
GeLuHf,0.0,-0.0464042,,2,3.0
CdEr2Pt2,0.0,-0.0555326,,2,3.0
SrRh6Sb4,0.0,-0.0346328,,2,3.0
OScI,1.8654,-0.0218415,,2,3.0
Cl6CoRb2,0.0,-0.0131956,,2,3.0
CaGa6Pt,0.0,-0.0228145999999999,,2,3.0
ZnZr3Ru2,0.0,-0.0298612,,2,3.0
MgZnHg2,0.0,-0.0388103,,2,3.0
NMn4,0.0,-0.0167317,,2,3.0
S3MnNbCs,0.0,-0.0209166,,2,3.0
ZnSn,0.0,-0.0246357,,2,3.0
CrMnIr,0.0,-0.036107,,2,3.0
Ga2SmAu,0.0,-0.0374121,,2,3.0
RuRePt,0.0,-0.0588115,,2,3.0
LiSc2Pt2,0.0,-0.0353965,,2,3.0
O3CaCuSr,0.0,-0.0133315,,2,3.0
KSr3Pd,0.0,-0.0218604999999999,,2,3.0
N3Na5Cu3,0.0,-0.0086697,,2,3.0
Ni2In3Er3,0.0,-0.0360234,,2,3.0
CaIn2Ho,0.0,-0.0319517,,2,3.0
CMgCo3,0.0,-0.0133419,,2,3.0
SrCdLa2,0.0,-0.034894,,2,3.0
Y3In5Ir,0.0,-0.0364875,,2,3.0
Zr2MoPd,0.0,-0.0326884,,2,3.0
C3Y2Mo2,0.0,-0.0226814,,2,3.0
Fe3CuEr2,0.0,-0.0284556,,2,3.0
Si2Ga3Sm2,0.0,-0.0231442,,2,3.0
ZnCsHg3,0.0,-0.0513705,,2,3.0
Ga2CdTh2,0.0,-0.0515023,,2,3.0
HTiMn2Ge,0.0,-0.0154210999999999,,2,3.0
ScAg2Pt,0.0,-0.0374161,,2,3.0
AlPd7,0.0,-0.0299930999999999,,2,3.0
Si2HfPt,0.0,-0.0390678,,2,3.0
FeITh,0.0,-0.0508646,,2,3.0
AsIHg2,0.0,-0.0484273,,2,3.0
AlVTc,0.0,-0.0206284999999999,,2,3.0
YAu4,0.0,-0.0616079999999999,,2,3.0
Al2RuPt,0.0,-0.0313282,,2,3.0
Al2RuOs,0.0,-0.0312906,,2,3.0
Ru2AgHf3,0.0,-0.048798,,2,3.0
Al3Br8,0.0,-0.0173192,,2,3.0
Li2Ni,0.0,-0.0069198,,2,3.0
Mg2Ni2Sr,0.0,-0.0129591999999999,,2,3.0
LiSnBa,0.0,-0.0265159999999999,,2,3.0
CoTa2Re,0.0,-0.0557709,,2,3.0
Mg2Ag3,0.0,-0.0210286,,2,3.0
SiCaSr,0.3279,-0.0144968,,2,3.0
InDyHg2,0.0,-0.0548549,,2,3.0
O7Ge2SrU,0.0,-0.0214082,,2,3.0
Si5Co3Y2,0.0,-0.0165038,,2,3.0
In2NdTb,0.0,-0.0399174,,2,3.0
ZnGePt,0.0,-0.0347742999999999,,2,3.0
PFeNi5,0.0,-0.0159224,,2,3.0
GaRu2Sn,0.0,-0.0306555,,2,3.0
F6InCs2Bi,1.8161,-0.0233635,,2,3.0
MnTa,0.0,-0.0427277,,2,3.0
Zn2Pd2Sn,0.0,-0.0260606,,2,3.0
Al3Fe2Th3,0.0,-0.0436873999999999,,2,3.0
CuTb4Pt3,0.0,-0.0528253,,2,3.0
Al4Ag,0.0,-0.0125058,,2,3.0
Al4Si6Pr3,0.0,-0.0174745,,2,3.0
B2O6CaCe,1.8394,-0.0138013999999999,,2,3.0
Na2Hg2Pb,0.0,-0.0443908,,2,3.0
Al2TiGe,0.0,-0.0130655,,2,3.0
BrY2Pt,0.0,-0.0378385,,2,3.0
AlPdHf,0.0,-0.0352678,,2,3.0
YLa2Pb2,0.0,-0.0539628999999999,,2,3.0
Zr3Sn2,0.0,-0.0334246,,2,3.0
Ru2GdEr,0.0,-0.0450756999999999,,2,3.0
S2Au,0.0,-0.0294623,,2,3.0
CrCuRh2,0.0,-0.0253661,,2,3.0
AsEr2,0.0,-0.0413266,,2,3.0
Ti3Zn2Ru,0.0,-0.018816,,2,3.0
F6CuHg,0.0,-0.0144330999999999,,2,3.0
H4FeY,0.0,-0.0104715,,2,3.0
Zn2LuPt,0.0,-0.0389958,,2,3.0
Mg2GaPb,0.0,-0.0256551,,2,3.0
LiO4F2Mn3,0.0,-0.0112845,,2,3.0
NaCu2As2Er,0.0,-0.0216315999999999,,2,3.0
F5CaCu,0.0,-0.0088028,,2,3.0
O4GaSb,0.7862,-0.0148724,,2,3.0
C2FeTm,0.0,-0.0228525999999999,,2,3.0
Ni2Sb2Pu,0.0,-0.0437008999999999,,2,3.0
Ga2Pd2Dy,0.0,-0.0300911,,2,3.0
H8CrZn2Sr,0.0,-0.0080354,,2,3.0
Al5Sr,0.0,-0.0102972,,2,3.0
NaSb2Pb2,0.0,-0.0462106,,2,3.0
GaCdPr2,0.0,-0.0338701999999999,,2,3.0
P3Ca,0.0,-0.0109376,,2,3.0
O6FeCuSr2Pb2,0.0,-0.0240823,,2,3.0
ClSe4Mo,1.2129,-0.0210152,,2,3.0
CrGeZr,0.0,-0.0233441,,2,3.0
MgK2BaBi2,0.0976,-0.0370747,,2,3.0
InTmHg2,0.0,-0.0558214,,2,3.0
Ti2MnPt,0.0,-0.0308806,,2,3.0
CoNi2Te2,0.0,-0.0248959,,2,3.0
CSm2,0.0,-0.0332792,,2,3.0
GeAuAc2,0.0,-0.0681012,,2,3.0