formula,bg,formation_energy,mp-id,fidelity,bg_category
FeSe4Rb3,0.0,-0.0209183999999999,,2,3.0
Si2SnTb2,0.0,-0.0305853,,2,3.0
O2ClCaBi,3.5298,-0.0238635,,2,3.0
AlFe2Lu,0.0,-0.0251441,,2,3.0
TePr,0.0,-0.0418847,,2,3.0
F7Sc2Rb,5.7847,-0.0114227,,2,3.0
PTiNi,0.0,-0.0153335,,2,3.0
Cl6SnCs2,2.586,-0.0194103,,2,3.0
O6MnCoPr2,0.0,-0.0187877,,2,3.0
HKSe,2.5907,-0.0114352,,2,3.0
H4NCl3Sn,1.5919,-0.0099887,,2,3.0
AsSrPb2,0.0,-0.049066,,2,3.0
Li3S8Cr4,0.0,-0.0117127,,2,3.0
KSrIn4,0.0,-0.0277308,,2,3.0
SnCeTm,0.0,-0.0447059,,2,3.0
O2AgBa,0.0,-0.0224598,,2,3.0
BK3As2,1.3714,-0.0126016999999999,,2,3.0
O6ScRuBa2,0.0,-0.0193192999999999,,2,3.0
Si2ReTh,0.0,-0.0473299,,2,3.0
NaP2Pt2Np,0.0,-0.0462068,,2,3.0
Cl4Ho,2.891,-0.0181712,,2,3.0
F3NiCs,0.6904,-0.0155313,,2,3.0
Na4HgBi2,0.0269,-0.034945,,2,3.0
O4TeCeBi2,0.0,-0.0348793,,2,3.0
ScGa2Ru2,0.0,-0.0238105,,2,3.0
O6ClRbSb4,2.7829,-0.0193758,,2,3.0
Cr3Mn5,0.0,-0.0182882,,2,3.0
Al3Sr2Au,0.0,-0.0233324,,2,3.0
O6ZnBa2Os,0.0,-0.0222742,,2,3.0
As2Ag3Cs3,1.3689,-0.0314288,,2,3.0
Se2AgDy,0.9312,-0.0311982,,2,3.0
PdTe2Cs2,1.0089,-0.0375399,,2,3.0
O3MnBa,0.1412,-0.0179616,,2,3.0
Mg2Cu3Ge,0.0,-0.0126943,,2,3.0
B6Er,0.0,-0.013976,,2,3.0
Ge2Er2Hg,0.0,-0.0421769,,2,3.0
AlCl3Sm3,0.0,-0.0251885,,2,3.0
Al7CuLa2,0.0,-0.0160418999999999,,2,3.0
Cu2As2Pr,0.0,-0.0235182,,2,3.0
Ni5Hf3,0.0,-0.0340804,,2,3.0
Al2ZnW,0.0,-0.0248333,,2,3.0
Li4Sb2Ba,0.4415,-0.0185145,,2,3.0
InLa2Hg2,0.0,-0.0518786,,2,3.0
MgGeAu,0.0,-0.0316216,,2,3.0
P2VSe6Ag,0.0,-0.0193684,,2,3.0
H6Na3Mn,0.0,-0.0053732,,2,3.0
BeNi2Pt,0.0,-0.0270779999999999,,2,3.0
ScSbTh,0.0,-0.0498778,,2,3.0
Ni3Ge2Nd,0.0,-0.0222841999999999,,2,3.0
ClInBa2,0.0,-0.031409,,2,3.0
KSe3ZrPd,0.0,-0.0232266,,2,3.0
Al2CuDy,0.0,-0.0201458,,2,3.0
O8NaS2Fe,0.639,-0.009364,,2,3.0
TiMn2W,0.0,-0.0308289,,2,3.0
Li2ZnHg2,0.0,-0.0312030999999999,,2,3.0
BeTi2Mn,0.0,-0.0139107,,2,3.0
H3NbRh,0.0,-0.0156434,,2,3.0
AlSb3Th2,0.0,-0.0525536,,2,3.0
As2Pt,0.314,-0.0375622,,2,3.0
NaKCd2,0.0,-0.0183333,,2,3.0
O9Ba3Tm4,3.2898,-0.0274419,,2,3.0
P2CdEr2,0.0,-0.031379,,2,3.0
H4K2Ni,1.3343,-0.0069328,,2,3.0
F6KRe,0.0,-0.0150615,,2,3.0
Ca2Cd2Pb,0.0,-0.0316195,,2,3.0
SiRhEu,0.0,-0.0334492,,2,3.0
Cu4Ag,0.0,-0.0183464999999999,,2,3.0
Sc3Fe,0.0,-0.0152195,,2,3.0
LiZr,0.0,-0.0164406,,2,3.0
Pr2Hg,0.0,-0.0520568,,2,3.0
NaTe2Er,1.016,-0.033718,,2,3.0
Al5Cu2Hf,0.0,-0.0168395,,2,3.0
ZnMoIr2,0.0,-0.0480043999999999,,2,3.0
F6NaCs2Lu,7.1381,-0.0192537,,2,3.0
O4CeHf,1.8329,-0.0257966,,2,3.0
Ge2Rh3Ce,0.0,-0.0316081,,2,3.0
NO2TiLa,0.707,-0.019174,,2,3.0
O5TiBa3,2.6094,-0.0215776,,2,3.0
S2AgNp,0.0,-0.0402526,,2,3.0
GaHg2Pb2,0.0,-0.0607288,,2,3.0
FeHf2,0.0,-0.0479691,,2,3.0
MgAgLa2,0.0,-0.0308282,,2,3.0
Al3MnGe2U3,0.0,-0.043537,,2,3.0
Sc3Cu4Sn2,0.0,-0.0199273999999999,,2,3.0
ScPt2Pb,0.0,-0.0584849,,2,3.0
Cl6CuRb2Bi,0.9247,-0.0197117,,2,3.0
Pd3Cd2Eu,0.0,-0.0360004,,2,3.0
TiZrSn,0.0,-0.0281369,,2,3.0
O4ClMoHo,2.5669,-0.0194187,,2,3.0
Mg3Hg5,0.0,-0.0446916999999999,,2,3.0
O2NaHo,4.1524,-0.0195311,,2,3.0
GeDy2Ir3,0.0,-0.0556918999999999,,2,3.0
AlDyOs,0.0,-0.0430884,,2,3.0
PTl,0.0,-0.0413088,,2,3.0
CuPm2Ir,0.0,-0.0441349,,2,3.0
AlZnZr,0.0,-0.0178553,,2,3.0
As2In2La,0.0,-0.0307869,,2,3.0
LiSi2Sc,0.0,-0.0095783,,2,3.0
KBr3Pb,2.6838,-0.0298646999999999,,2,3.0
SI2La2,0.0,-0.0358268,,2,3.0
H3NaCaPd,0.3836,-0.0099398,,2,3.0
O7Na2Te2,0.8458,-0.0129047,,2,3.0
LiCa2Pt2,0.0,-0.0332467,,2,3.0
Si3P4,0.1535,-0.0103615,,2,3.0
MgCu2Pm,0.0,-0.020037,,2,3.0
CITb,0.0,-0.0321903999999999,,2,3.0
Sn4Ba3Au4,0.0,-0.0497441,,2,3.0
O4RbRu,0.0,-0.0146502,,2,3.0
AlTeI,2.3583,-0.0278539,,2,3.0
O7Nb2Hg2,1.729,-0.0241482999999999,,2,3.0
Co2Y4Tl5,0.0,-0.0465427,,2,3.0
LiCl6ScTl2,3.7218,-0.0227414,,2,3.0
GeSr2Rh3,0.0,-0.0280528,,2,3.0
B4Rh2DyIr2,0.0,-0.0325722,,2,3.0
LiEuHg2,0.0,-0.0486441,,2,3.0
Cl12SbCs4Tl,0.8527,-0.0213105,,2,3.0
Se2InTb,0.4447,-0.0315082,,2,3.0
Al2Au3,0.0,-0.0451174,,2,3.0
Cu2Zn3Ho,0.0,-0.0203518,,2,3.0
NaCoSn4,0.0,-0.0275191,,2,3.0
F6CaAg,0.2912,-0.0098947,,2,3.0
Ga2Dy3Pt4,0.0,-0.0520142,,2,3.0
H2NaCa2,0.0,-0.0064378,,2,3.0
Co2Ge2Er,0.0,-0.0252378,,2,3.0
SrCdPb,0.0,-0.0434721,,2,3.0
Mg5Pd,0.0,-0.0098853,,2,3.0
S3FeRbNb,0.0,-0.0179054,,2,3.0
ZnPd2Ce2,0.0,-0.0343077,,2,3.0
Cd3La,0.0,-0.0339765999999999,,2,3.0
P2NiW,0.0,-0.0271199,,2,3.0
CuIDy,0.0,-0.0341058,,2,3.0
Ni4ZrAu,0.0,-0.0278911,,2,3.0
Al3Si2CuPr3,0.0,-0.0215382,,2,3.0
ZnSm2Pb,0.0,-0.0451051,,2,3.0
O4Mg3Fe,0.0,-0.0098218,,2,3.0
Al8Ni,0.0,-0.008796,,2,3.0
CSi2Fe2Zr2,0.0,-0.0189423999999999,,2,3.0
Sr2SbAu,0.5392,-0.0388007,,2,3.0
O3CaRu,0.0,-0.0146672,,2,3.0
N2Ga3Tb7,0.0,-0.0338982,,2,3.0
N3RuNd,0.0,-0.0218113999999999,,2,3.0
MgAl2Cu,0.0,-0.009164,,2,3.0
LiBaHg,0.0,-0.0371589,,2,3.0
LiBePd2,0.0,-0.0186894,,2,3.0
CrSe2Pd2,0.0,-0.0250693,,2,3.0
InHg2Tl2,0.0,-0.0628164,,2,3.0
GaLa2Tl,0.0,-0.044359,,2,3.0
SiGaPt2,0.0,-0.0424755,,2,3.0
GeI2Lu2,0.0165,-0.0419033,,2,3.0
NPCr3,0.0,-0.0154631,,2,3.0
Zr3Sn,0.0,-0.0324391,,2,3.0
H2O5CoSe,0.0768,-0.0093688,,2,3.0
Cl2SeAg2Hg,1.2395,-0.0282539,,2,3.0
Al5CrTm,0.0,-0.0158521,,2,3.0
K2MnSe2,0.777,-0.0162866,,2,3.0
CCo3Ga,0.0,-0.0156395,,2,3.0
OZnSbCe,0.0,-0.0272144,,2,3.0
AlHfPt,0.0,-0.0481683,,2,3.0
Ga3Ho3Pt2,0.0,-0.0431162,,2,3.0
B6Mn2Tm,0.0,-0.0153707,,2,3.0
Sc2RhPb,0.0,-0.0353268,,2,3.0
Li2O3Ni,0.9304,-0.0083526,,2,3.0
O6VMoBa2,0.0,-0.0196504,,2,3.0
C2O6NaNd,4.6686,-0.0128476,,2,3.0
CO2Tl,2.5278,-0.0248516,,2,3.0
As2PdCs2,0.7198,-0.030404,,2,3.0
Mn3GeZr2,0.0,-0.0229786,,2,3.0
O2ClCuEu2,0.1644,-0.0261922,,2,3.0
P3Mn4As,0.0,-0.0161291,,2,3.0
RhLuPb,0.0,-0.0557615,,2,3.0
Al3FeGe2La3,0.0,-0.0238249,,2,3.0
O4CaPa,0.0,-0.025677,,2,3.0
Na2S3Hf,1.9835,-0.0183593,,2,3.0
Al3Pd2Pt,0.0,-0.0275822,,2,3.0
Si2Ni2Gd,0.0,-0.0230696,,2,3.0
Cu3Pd2Lu,0.0,-0.0282282,,2,3.0
S4CaSnAu2,1.0323,-0.0285417,,2,3.0
H2NiHf2,0.0,-0.0301816,,2,3.0
SiCa,0.0,-0.0104059,,2,3.0
H8Mg2CoBa,0.0,-0.0082798,,2,3.0
O2Ca2CuI2,0.0,-0.0191246,,2,3.0
Al4Sn2La3,0.0,-0.0263993,,2,3.0
NiTb2,0.0,-0.036892,,2,3.0
SiPd2Th,0.0,-0.0437931,,2,3.0
NaPCl6Cs2,2.5669,-0.0153553,,2,3.0
Li2CuRu,0.0,-0.0136694,,2,3.0
InErPt,0.0,-0.0525172999999999,,2,3.0
PdHf2Pt,0.0,-0.058036,,2,3.0
BeZnRh2,0.0,-0.0219033,,2,3.0
RePa,0.0,-0.085429,,2,3.0
S2ZrIn,0.0,-0.0221182,,2,3.0
CoBi2Th,0.0,-0.0679646,,2,3.0
B2Mg2CoIr5,0.0,-0.0402649,,2,3.0
VWRe,0.0,-0.0530388,,2,3.0
O6Sr2In2Ba,0.9305,-0.0195276,,2,3.0
S4FeCs3,0.0,-0.0221344,,2,3.0
TiAsRh2,0.0,-0.0267098,,2,3.0
B3FeHf,0.0,-0.0212815,,2,3.0
CaAg7,0.0,-0.0286842,,2,3.0
MgSn,0.0,-0.0206006,,2,3.0
Si2NiGa3Tm3,0.0,-0.0274918,,2,3.0
Rh2LaCe,0.0,-0.0395909,,2,3.0
O7CaGa2Sb2,3.0612,-0.0153542,,2,3.0
NInPr3,0.0,-0.0355638,,2,3.0
PS3Rb,1.6158,-0.0128288,,2,3.0
POsPa,0.0,-0.0615453,,2,3.0
OBr2Pd2,0.1435,-0.0225691999999999,,2,3.0
F4Cs2Er,0.0,-0.0233542,,2,3.0
MgNi4Y,0.0,-0.0166342,,2,3.0
OAsRhLa,0.0,-0.0280532,,2,3.0
Ba2LaIr,0.0,-0.0486644,,2,3.0
Mg2In2Tl,0.0,-0.0298882,,2,3.0
N3Sr3Ta,0.97,-0.0241298,,2,3.0
F8CaHo2,7.136,-0.0167039,,2,3.0
Sc6MnPb2,0.0,-0.0287805,,2,3.0
Ti3CuPd2,0.0,-0.0218807,,2,3.0
Li2AuPb2,0.0,-0.0455488,,2,3.0
Sn2Tb,0.0,-0.0402202,,2,3.0
Li4MgCa,0.0,-0.0040589,,2,3.0
Al3Os2Ir,0.0,-0.0405266,,2,3.0
O6YMoBa2,0.0,-0.0209907,,2,3.0
MgBa,0.0,-0.0223121,,2,3.0
SCl7Ta3,0.8639,-0.0255088,,2,3.0
ScNi2Ga3,0.0,-0.0165239,,2,3.0
O2FI,2.7819,-0.0139046,,2,3.0
C2O6Na2Co,0.0,-0.0091822,,2,3.0
CaZnAu,0.0,-0.0315395,,2,3.0
SrSb2Pt2,0.0,-0.0483804,,2,3.0
MgGa2Pd,0.0,-0.0181623,,2,3.0
Pd2PtTl,0.0,-0.0521108,,2,3.0
OGaY3,0.0,-0.0227874,,2,3.0
Cu2LaIr3,0.0,-0.0482207999999999,,2,3.0
Cl6Rb3Bi,3.9216,-0.0205394,,2,3.0
Si2YAu2,0.0,-0.0379535,,2,3.0
ScCo8,0.0,-0.0169601,,2,3.0
S2TeEr2,1.5641,-0.0335180999999999,,2,3.0
AgSnDy2,0.0,-0.0413087,,2,3.0
Ge2CsPt2,0.0,-0.0438476,,2,3.0
HFePd,0.0,-0.0181604,,2,3.0
F6InSm,5.9515,-0.0158548,,2,3.0
BMn4Ho,0.0,-0.0218709,,2,3.0
Li5In4,0.0,-0.0165802,,2,3.0
AlSc2Ga2,0.0,-0.0144733999999999,,2,3.0
Rh2Sb2Tb,0.0,-0.0386257999999999,,2,3.0
MnCuSe3In,0.0,-0.0216285999999999,,2,3.0
Al5Ag7,0.0,-0.0216223,,2,3.0
LiS2K,0.0,-0.0084891,,2,3.0
Ni2SrSn,0.0,-0.0229753,,2,3.0
OClAgPb,0.4754,-0.0311183,,2,3.0
AlGaNd2,0.0,-0.0283181,,2,3.0
TcSnLa3,0.0,-0.0404487,,2,3.0
O7Ba3Pu2,0.0,-0.0349731,,2,3.0
Zn2ZrHo,0.0,-0.0270050999999999,,2,3.0
S3KAgTm,0.0,-0.0213948,,2,3.0
YLa2Pb,0.0,-0.0479262,,2,3.0
Na2AsRh2,0.0,-0.0195888,,2,3.0
GePm2Au,0.0,-0.0449369,,2,3.0
O6SrSb2,2.904,-0.0169888,,2,3.0
SiCa2Pt,0.0,-0.025776,,2,3.0
O3NaKZr,3.721,-0.0130627,,2,3.0
Mg2CuSe,0.0,-0.0118661999999999,,2,3.0
S2Rb2Rh,0.0,-0.0198448,,2,3.0
Li2CdPt,0.0,-0.026874,,2,3.0
NaZnSn,0.0,-0.0180812,,2,3.0
LiF6CoCu,0.0,-0.0085275,,2,3.0
NdIr2Np,0.0,-0.07376,,2,3.0
ScRh,0.0,-0.0251725,,2,3.0
Se8Mo6Tb,0.0,-0.0285624,,2,3.0
O3KZr,0.0,-0.0142285,,2,3.0
Ge2PmGd,0.0,-0.0359494,,2,3.0
KGa2Pt2,0.0,-0.0368579,,2,3.0
Al3Ca2Ge2,0.0,-0.0118775999999999,,2,3.0
DyTl3,0.0,-0.066553,,2,3.0
Si2Fe2Tb,0.0,-0.0211917,,2,3.0
O7Sn2Gd2,2.3015,-0.0237621,,2,3.0
OZnBiNp,0.0,-0.0524513,,2,3.0
ZnSnPm2,0.0,-0.0349598999999999,,2,3.0
Pd3Sn2Pt3,0.0,-0.0480178,,2,3.0
B2O6Cs2Hf,3.9341,-0.0201751,,2,3.0
ZnGe2Sm2,0.0,-0.0288964,,2,3.0
ZrPd2Cd,0.0,-0.0323283,,2,3.0
LiSe2Nd,1.1271,-0.0234164,,2,3.0
Pd8Nd,0.0,-0.0343211,,2,3.0
Pd2SnPm,0.0,-0.0372445999999999,,2,3.0
MgZrTc4,0.0,-0.0295219,,2,3.0
CaBi2,0.0,-0.0562036999999999,,2,3.0
B2Ru3Ho,0.0,-0.0286077,,2,3.0
ErAuBi2,0.0,-0.0697066,,2,3.0
CuInEu,0.0,-0.0344024,,2,3.0
MgSiRh2,0.0,-0.0215235999999999,,2,3.0
Si2Ga3Tb3Ir,0.0,-0.0320352,,2,3.0
YIn2Tb,0.0,-0.0359975,,2,3.0
SiBr2Sm2,0.0,-0.0291026,,2,3.0
Cl3InPb,2.6274,-0.0276756999999999,,2,3.0
ErBi2,0.0,-0.0696976,,2,3.0
B2O6K2Lu,0.0,-0.0140172,,2,3.0
OCuTeTb,1.3361,-0.0283782,,2,3.0
BPd6,0.0,-0.0293777,,2,3.0
O6ScBa2Sm,0.0,-0.0204668,,2,3.0
CrCo3Zr2,0.0,-0.0221171,,2,3.0
NaRb3Au,0.0,-0.0272549999999999,,2,3.0
Si2PrAu2,0.0,-0.0411104,,2,3.0
PbBi,0.0,-0.0771233,,2,3.0
PScFe,0.0,-0.0152727,,2,3.0
Al2Si2Sr3,0.0,-0.0150822,,2,3.0
Sc6ZnTl2,0.0,-0.0274699999999999,,2,3.0
C3Mo2Dy2,0.0,-0.0283754,,2,3.0
O6Cl2V2MnCs2,0.6655,-0.0164018,,2,3.0
Sc2RuLa,0.0,-0.0270002999999999,,2,3.0
F7K3Nd,0.0,-0.0116256,,2,3.0
P2Ir2Th,0.0,-0.0529385,,2,3.0
S2ScIn,0.3092,-0.0181954,,2,3.0
Cu3Tm2,0.0,-0.0301664,,2,3.0
KRb2Cs,0.0,-0.0219059,,2,3.0
Ti2MnGa,0.0,-0.01709,,2,3.0
Fe2As2Tb,0.0,-0.0252941,,2,3.0
MgSiPu,0.0,-0.0418664,,2,3.0
BF5Ag,0.0,-0.0103241999999999,,2,3.0
S2KCuCd,1.9859,-0.0154668,,2,3.0
Si2AgNp,0.0,-0.039596,,2,3.0
PPrPu,0.0,-0.0555536,,2,3.0
Co2BrHo2,0.0,-0.0311268,,2,3.0
Se5Cs2,0.8259,-0.0258785999999999,,2,3.0
Cl3RbIn,1.564,-0.0172014999999999,,2,3.0
MgCaSb2,0.0,-0.0229893,,2,3.0
Rb2CdBaBi2,0.0,-0.0453994,,2,3.0
MgK2Se3,0.0302,-0.0147946,,2,3.0
As2SrZr,0.0,-0.0246530999999999,,2,3.0
Nd3Pb2,0.0,-0.0572296,,2,3.0
NiRh2Os,0.0,-0.038851,,2,3.0
Cu4ZnY,0.0,-0.0172842,,2,3.0
Sc3Cu2Os,0.0,-0.0246284999999999,,2,3.0
GaSr2Au2,0.0,-0.0406406,,2,3.0
PdSn2Tm,0.0,-0.0398217,,2,3.0
Si2FeTh,0.0,-0.0341162,,2,3.0
InHgTl,0.0,-0.0579598999999999,,2,3.0
Al2YIr3,0.0,-0.0438437,,2,3.0
BrTeTl2,0.0,-0.0508345,,2,3.0
Li2InTl,0.0,-0.0279791,,2,3.0
CPRu2Sm,0.0,-0.0276751,,2,3.0
YAg,0.0,-0.0300258,,2,3.0
K2Hg2Pb,0.0,-0.0460353,,2,3.0
F6AsCs2Tl,2.341,-0.0213744,,2,3.0
O8K3Sc,0.0,-0.0088524,,2,3.0
Mg2PCu,0.0,-0.0093043999999999,,2,3.0
F6ZnPr,0.0,-0.0127238,,2,3.0
CoIn2Tb6,0.0,-0.0408513,,2,3.0
AsZr2Te,0.0,-0.0307619,,2,3.0
Cd3Ce,0.0,-0.0342571999999999,,2,3.0
CoTc2W,0.0,-0.0391834,,2,3.0
H5IrPu2,0.0,-0.0388392,,2,3.0
MgErPt4,0.0,-0.0570752,,2,3.0
H6AlK2Rb,2.6148,-0.0068559,,2,3.0
P2Sc2Ni,0.0,-0.0145044,,2,3.0
Al5Fe2Hf4,0.0,-0.0299516999999999,,2,3.0
O4As2Eu,0.0,-0.0187974999999999,,2,3.0
CeHg,0.0,-0.0568271999999999,,2,3.0
Be2ZrHf,0.0,-0.0256271,,2,3.0
O5K5Bi,0.9465,-0.0151185,,2,3.0
Ca5La,0.0,-0.0151944,,2,3.0
C4CuTm3,0.0,-0.0267265,,2,3.0
Li2AlCa,0.0,-0.0056653,,2,3.0
Ga3Ge2Tb3Au,0.0,-0.0337699,,2,3.0
FCa2Sr,0.0,-0.0127693999999999,,2,3.0
MgAlTm,0.0,-0.0218205,,2,3.0
Al6Ge2Rh,0.0,-0.0134886,,2,3.0
Ga3Pd2Dy3,0.0,-0.033091,,2,3.0
O4KRu,0.0,-0.0125886,,2,3.0
Y2Rh2Hf,0.0,-0.0379751,,2,3.0
Co6As4Eu,0.0,-0.022003,,2,3.0
SDy,0.0,-0.0309478,,2,3.0
CuZrHf,0.0,-0.0363688999999999,,2,3.0
Lu3Ir2Tl3,0.0,-0.0663269,,2,3.0
O4Na5In,1.7915,-0.0095032,,2,3.0
SiScPd2,0.0,-0.0234768,,2,3.0
NaBr6Rb2Np,0.0048,-0.0286478,,2,3.0
BO5CuBaLa,0.0,-0.0179061999999999,,2,3.0
O6ZnBi2,0.0,-0.023932,,2,3.0
O6CdBa2Ce,0.0,-0.0215934999999999,,2,3.0
AsTeLa,0.1033,-0.0349699,,2,3.0
ScCd2Tb,0.0,-0.0308817999999999,,2,3.0
S2RbHg,0.0,-0.0275189,,2,3.0
PSTi,0.0,-0.0131925,,2,3.0
O4Cs3Re,1.8011,-0.0279559,,2,3.0
Ti5Pu,0.0,-0.0316488,,2,3.0
Ni2La,0.0,-0.0254228,,2,3.0
AlCo2Th2,0.0,-0.0471349999999999,,2,3.0
LiNa2Sr,0.0,-0.0081766,,2,3.0
O8Cr2Sr3,0.0,-0.0145537,,2,3.0
N2KTc,0.0,-0.0158261,,2,3.0
AgSb2Ba,0.0,-0.036936,,2,3.0
BrCs,4.4134,-0.0306218,,2,3.0
Ga2Y2Hg,0.0,-0.0320576,,2,3.0
AsPd5Dy,0.0,-0.033925,,2,3.0
Y2AgPb,0.0,-0.0413325,,2,3.0
Cu2Zr2Pt,0.0,-0.0329957,,2,3.0
ScZr8,0.0,-0.0288100999999999,,2,3.0
HoPtPb,0.0,-0.0660568,,2,3.0
MnGa3Ge2Th3,0.0,-0.0442349,,2,3.0
O4Cu2As2Se2Sm,0.0,-0.0178174,,2,3.0
In2Er,0.0,-0.0395859999999999,,2,3.0
Ga3Pr2Ir,0.0,-0.0352627,,2,3.0
PdTlTh,0.0,-0.0676654999999999,,2,3.0
MgAu2Tl,0.0,-0.054276,,2,3.0
ZnLaHg,0.0,-0.0421781,,2,3.0
O2FKTe,2.7458,-0.014036,,2,3.0
F5MgCs2,0.0,-0.0151343,,2,3.0
H8Mg2CaRu,2.2096,-0.0073292999999999,,2,3.0
LiSc2Ni2,0.0,-0.0129687999999999,,2,3.0
CuErBi2,0.0,-0.0560921,,2,3.0
Cu2GaSr,0.0,-0.0175728,,2,3.0
O2CuGa,0.9399,-0.012496,,2,3.0
Sc13Os3Br16,0.0,-1.604301991874999,mp-1200815,2,3.0
Ga7Ag2Dy3,0.0,-0.0272433,,2,3.0
Al11SiZr4,0.0,-0.0141225,,2,3.0
Ti2ZnSn,0.0,-0.0207580999999999,,2,3.0
Na2ZnCd2,0.0,-0.0165779,,2,3.0
CCdLu2,0.0,-0.0382633999999999,,2,3.0
GaRuHf,0.0,-0.0386717,,2,3.0
GeLu2Ir2,0.0,-0.0555123999999999,,2,3.0
H3BO3,6.1655,-0.0068369,,2,3.0
LiSi4Rh,0.0,-0.0130388999999999,,2,3.0
Mg2SnPb,0.0,-0.0305421,,2,3.0
P2La6Pt,0.0,-0.0398847,,2,3.0
MnGe2Hf6,0.0,-0.0485251,,2,3.0
BeSc2Cd,0.0,-0.0160429,,2,3.0
NInDy2,0.0,-0.0358208,,2,3.0
LiHoTl2,0.0,-0.0495007,,2,3.0
LiRhCdPb,0.0,-0.0358500999999999,,2,3.0
CoGe3Gd,0.0,-0.0272315,,2,3.0
LiAsTl2,0.0,-0.0420762,,2,3.0
KSe2Np,0.0,-0.0401699,,2,3.0
Fe2As2Pr,0.0,-0.0245971,,2,3.0
O4NdNp,0.0,-0.0326973,,2,3.0
Sc2MnRu,0.0,-0.0208252999999999,,2,3.0
LiS2Pr,1.5315,-0.0182589,,2,3.0
CN2O2Sm2,3.8034,-0.0209422,,2,3.0
OSnCe3,0.0,-0.0367564,,2,3.0
Al2LuOs,0.0,-0.0363195,,2,3.0
LiRhLu2,0.0,-0.0373755,,2,3.0
BNi3La,0.0,-0.0202589,,2,3.0
Mn2WIr,0.0,-0.0446134,,2,3.0
OK2As2Nd2,0.0,-0.0231121,,2,3.0
AgTe3BaTm,0.5467,-0.0404482,,2,3.0
SrI4Sm,0.0,-0.0371735,,2,3.0
SCr2MnSe3,0.0,-0.0187367,,2,3.0
Rh6Sb4Er,0.0,-0.0372098,,2,3.0
NiAsRb,0.0,-0.0194224,,2,3.0
PrTmTl2,0.0,-0.0605001,,2,3.0
F6GaIn,4.4404,-0.0116199999999999,,2,3.0
N2YLa,0.1607,-0.0241443,,2,3.0
GaTm6Bi2,0.0,-0.0544316,,2,3.0
P2KCu2Sr,0.0,-0.0142896,,2,3.0
Be2As2Pb,0.0,-0.0250045,,2,3.0
SrBa2Hg2,0.0,-0.0480805,,2,3.0
Nb3Rh2In3,0.0,-0.0336794999999999,,2,3.0
Fe5Pu,0.0,-0.0333998,,2,3.0
RhSn5Pr3,0.0,-0.0389242,,2,3.0
Al3Pd2Ho,0.0,-0.0239394,,2,3.0
Se3Cs3Bi,1.4294,-0.0370654,,2,3.0
F6SeSn4,2.0483,-0.018719,,2,3.0
In5EuIr,0.0,-0.0421382,,2,3.0
CSi2Ho2Re2,0.0,-0.0392859,,2,3.0
Rh2Sb2Ce,0.0,-0.0382343,,2,3.0
Al2SrIr,0.0,-0.0280055,,2,3.0
SnHfPt,0.0,-0.0571766,,2,3.0
Si2Sc2Zr,0.0,-0.0165774,,2,3.0
TiZnRu2,0.0,-0.0252022,,2,3.0
O2MnPd,0.0,-0.0173586,,2,3.0
PCoTm,0.0,-0.0276004,,2,3.0
Cr2Fe,0.0,-0.0182174,,2,3.0
N2Re,0.0,-0.0297789,,2,3.0
Cd3BaPt,0.0,-0.0406397,,2,3.0
O6YBi3,1.9732,-0.0318646999999999,,2,3.0
PdLu2Pb,0.0,-0.0555782,,2,3.0
AsAgPb2,0.0,-0.0507096999999999,,2,3.0
Ru2CeEr,0.0,-0.0415959,,2,3.0
AlGe2Tm2,0.0,-0.0306970999999999,,2,3.0
SbI2Pu2,0.0,-0.0669727,,2,3.0
CaNi2Y,0.0,-0.0177078,,2,3.0
Ge2PdIn3Th3,0.0,-0.0515831999999999,,2,3.0
NbRu2Tb,0.0,-0.0377489,,2,3.0
HCaNiGe,0.0,-0.0126805,,2,3.0
YCePb,0.0,-0.0500705,,2,3.0
Li2Si2SrRh2,0.0,-0.0169896,,2,3.0
Be2F5Rb,7.3036,-0.0092258999999999,,2,3.0
Mg2ScTb,0.0,-0.0177961,,2,3.0
Mn2PtAu,0.0,-0.0445781,,2,3.0
MgTiCo4,0.0,-0.0151697,,2,3.0
VI2,0.8051,-0.031121,,2,3.0
Zr2TaHg,0.0,-0.0491894,,2,3.0
NaNi2As2,0.0,-0.0157881,,2,3.0
I3Ac,2.7359,-0.0519187,,2,3.0
S4PdAg,0.0,-0.017223,,2,3.0
HBrLa,0.0,-0.0234477,,2,3.0
Sr3RhBa,0.0,-0.0282196,,2,3.0
S2CsAu3,1.6747,-0.0446774,,2,3.0
Cu2HgTh2,0.0,-0.058325,,2,3.0
K2I6Pu,0.0021,-0.0397575,,2,3.0
Ca3CoGe2In3,0.0,-0.0209476,,2,3.0
CoCdTh,0.0,-0.0479341999999999,,2,3.0
InDy2Tl,0.0,-0.0509054,,2,3.0
O4CaTl2,0.0737,-0.0270747,,2,3.0
TaIr2,0.0,-0.0703948,,2,3.0
Si2CaMn2,0.0,-0.0137302999999999,,2,3.0
Ti2Hf,0.0,-0.0315852,,2,3.0
Pr8C8Cl5,0.0,-1.100837276111111,mp-1196511,2,3.0
F6MnGe,1.8198,-0.0100409,,2,3.0
Al3Si2Y2,0.0,-0.0147187,,2,3.0
Al3Si2RhHo3,0.0,-0.0258312999999999,,2,3.0
IrBi2Th6,0.0,-0.0899063,,2,3.0
N2Ga3Dy7,0.0,-0.034518,,2,3.0
TiMnIr2,0.0,-0.0450167,,2,3.0
Ca2YHg2,0.0,-0.0372738,,2,3.0
Ge2Pt,0.0,-0.0365790999999999,,2,3.0
O2MnZn2As2Sr2,0.0,-0.0174106,,2,3.0
Pd2Sn3Er3,0.0,-0.0414844999999999,,2,3.0
ZnSm2Au,0.0,-0.0436006,,2,3.0
SnTeTb,0.0,-0.0410428,,2,3.0
Ca2GaGe2,0.0,-0.0153297,,2,3.0
OAsCdGd,0.7599,-0.0307808,,2,3.0
AlSrBa2,0.0,-0.0273194,,2,3.0
TmPt7,0.0,-0.0684458999999999,,2,3.0
OInEu3,0.0,-0.041679,,2,3.0
F6AsTl,4.369,-0.0164652,,2,3.0
Al2PrAu,0.0,-0.0328175,,2,3.0
SiZrPd,0.0,-0.0255899,,2,3.0
Si2Y2Ir,0.0,-0.0304173,,2,3.0
ScIn2Hg,0.0,-0.0377177,,2,3.0
ZnOs,0.0,-0.0426514,,2,3.0
GaAs2Tl,0.0283,-0.032409,,2,3.0
NiCdPb,0.0,-0.0407023,,2,3.0
SiGdTa,0.0,-0.0457603,,2,3.0
LiCl3Gd,0.0139,-0.0190345,,2,3.0
YPdSn2,0.0,-0.0338918,,2,3.0
S2GaAg,0.9637,-0.0173362,,2,3.0
SrSn2Pt3,0.0,-0.0514732,,2,3.0
Al3CuSn2Gd3,0.0,-0.0324652,,2,3.0
Zn2RuSm,0.0,-0.0268981,,2,3.0
N2Ca2Cr,0.0,-0.012199,,2,3.0
Ca2YCd,0.0,-0.0195937,,2,3.0
FSeEr,0.791,-0.0277624,,2,3.0
Tm3Re,0.0,-0.0567521,,2,3.0
SrPd3In2,0.0,-0.0319121,,2,3.0
O3Bi2,2.2907,-0.0362858,,2,3.0
ZnNd2Au2,0.0,-0.0486164,,2,3.0
TaPtAu,0.0,-0.0691986,,2,3.0
O6Ba2TbAu,1.7062,-0.0256026,,2,3.0
Al3Ru2Au,0.0,-0.0278701,,2,3.0
NCa2Br,2.2801,-0.0136518,,2,3.0
O6TiSr2Hf,2.6719,-0.0196413,,2,3.0
Ga2La2Pb,0.0,-0.0396956,,2,3.0
LiCoI2,0.0,-0.0236896999999999,,2,3.0
P2Rh2Er,0.0,-0.0289607,,2,3.0
H3RhPb,0.0,-0.0239079,,2,3.0
NaCl2I,1.3022,-0.0153069,,2,3.0
AlFe2Zn,0.0,-0.0145838,,2,3.0
O6Ca2AsLu,3.5617,-0.0161422,,2,3.0
H5RuTb2,0.0,-0.0188127999999999,,2,3.0
CoIn3Hg,0.0,-0.0371154,,2,3.0
H4CrFe3,0.0,-0.0107472,,2,3.0
Pd2Tb3Hg,0.0,-0.0465372,,2,3.0
Sc2TcW,0.0,-0.0334171,,2,3.0
B6CrMn2,0.0,-0.0113694,,2,3.0
Er3Pt2Au,0.0,-0.0614559,,2,3.0
Sb2Pt3,0.0,-0.0574367999999999,,2,3.0
ScAuHg2,0.0,-0.0554,,2,3.0
SiNi2Pr2,0.0,-0.0263334,,2,3.0
B2O6K2Y,0.0,-0.0114883,,2,3.0
HSc3Ga,0.0,-0.0129749,,2,3.0
Ga2Cd2Tl,0.0,-0.0330909,,2,3.0
NiAs2Th6,0.0,-0.0708982,,2,3.0
F6Rb2InCs,5.2829,-0.0162861,,2,3.0
O4CaSm2,3.7818,-0.0211584,,2,3.0
Zr2Mo,0.0,-0.0320849,,2,3.0
Se3Tl4,0.0,-0.050192,,2,3.0
MnCo4In,0.0,-0.0201344,,2,3.0
Mg2Sb2Ce,0.0,-0.0264932,,2,3.0
CaIn2Tb,0.0,-0.0314089,,2,3.0
H2NiY2,0.0,-0.0163366,,2,3.0
CuTeCs,0.6957,-0.0307968,,2,3.0
P4Cr3Ni,0.0,-0.0146717999999999,,2,3.0
Co2GeZr,0.0,-0.0214955,,2,3.0
Zr2RuPd,0.0,-0.0329543,,2,3.0
NaCl3Cu,0.0,-0.0097589,,2,3.0
MnCo5,0.0,-0.0174624,,2,3.0
B2SmIr3,0.0,-0.0462329,,2,3.0
CrGa5Lu,0.0,-0.0225926,,2,3.0
SiGaPd5,0.0,-0.0277958,,2,3.0
MgCd2,0.0,-0.0220563,,2,3.0
O3ErAu,0.9939,-0.0297958,,2,3.0
MgHg2Pu,0.0,-0.0630527,,2,3.0
TiGeTe4,0.0349,-0.0310784,,2,3.0
KAgTe3Tb,0.0,-0.0340443,,2,3.0
Cd2BaTl,0.0,-0.043516,,2,3.0
Ga2YPm,0.0,-0.0268135,,2,3.0
CuTm6Tl2,0.0,-0.0526602,,2,3.0
HAlSc3,0.0,-0.0111735,,2,3.0
CoTe2,0.0,-0.0308261,,2,3.0
MgScGa2,0.0,-0.0134558,,2,3.0
BePt8,0.0,-0.0630416,,2,3.0
Co2Ga3Tb3,0.0,-0.0285004999999999,,2,3.0
Cu4CdHg,0.0,-0.0264996,,2,3.0
O6Ca2LaTa,3.7892,-0.0200050999999999,,2,3.0
LiF6K2Ti,0.0,-0.0089492,,2,3.0
Li3O8Mn3Te,0.0,-0.0118337,,2,3.0
Al3CuGe2Ce3,0.0,-0.0239753,,2,3.0
C2Pu,0.0,-0.0432958,,2,3.0
O2LuAu,2.3874,-0.036791,,2,3.0
KNi2As2,0.0,-0.0166859,,2,3.0
CCa2Os,0.0,-0.0252867,,2,3.0
FeGe2Zr2,0.0,-0.0242654,,2,3.0
O6MnTeBa2,0.0,-0.01953,,2,3.0
C2VTa,0.0,-0.0265877,,2,3.0
O3TbLu,4.7302,-0.0280891,,2,3.0
Zr2MoPt,0.0,-0.0423428,,2,3.0
SSe2Gd,0.0,-0.0285739,,2,3.0
TcIn4,0.0,-0.0338005,,2,3.0
Si3CaPt,0.0,-0.022729,,2,3.0
CuBr6Rb2Sb,0.2709,-0.0221685,,2,3.0
Mg2SBr2,3.895,-0.0133607999999999,,2,3.0
Al3Ge2Sm3Au,0.0,-0.0301688,,2,3.0
NiRu2Ir,0.0,-0.0391756,,2,3.0
Ru2TlTh2,0.0,-0.0672686,,2,3.0
LiP2YPt2,0.0,-0.0330626,,2,3.0
ClBr2Tl,1.6944,-0.0303321,,2,3.0
Ni2GaTh,0.0,-0.0367152,,2,3.0