formula,bg,formation_energy,mp-id,fidelity,bg_category
Mn2Cu3Pu,0.0,-0.0320694,,2,3.0
MgCo4Zn,0.0,-0.0145442,,2,3.0
GeSr2Hg,0.0,-0.0336155,,2,3.0
H6CNInI3,0.0,-0.0156907,,2,3.0
GaInBa2,0.0,-0.0326234,,2,3.0
AlFe2,0.0,-0.0149789,,2,3.0
H6C2N4O4PRb,5.2838,-0.0084581,,2,3.0
Co2AsHf,0.0,-0.0298812,,2,3.0
As2AgLu,0.0,-0.0325527,,2,3.0
O5S2Zr2Pu2,0.0,-0.0332117,,2,3.0
CN2Ca2I2,3.7376,-0.0187016999999999,,2,3.0
HoBi2,0.0,-0.0692762,,2,3.0
Ge3RuTm,0.0,-0.0293452,,2,3.0
Al4RuEr,0.0,-0.0200143,,2,3.0
Cu5Sb,0.0,-0.0188069999999999,,2,3.0
LiGa4Hf,0.0,-0.0220791,,2,3.0
NaP2Cu2Y,0.0,-0.0147202,,2,3.0
AsCdPt5,0.0,-0.0576783,,2,3.0
Cu2Zn2Sb4Ba3,0.0,-0.0302273,,2,3.0
Li2GeAu2,0.0,-0.0328847,,2,3.0
K2Br6InSb,0.0,-0.0215204999999999,,2,3.0
CGe2Mo2Tb2,0.0,-0.030861,,2,3.0
ScCd3,0.0,-0.026664,,2,3.0
O8S2RbAg,0.66,-0.0115069,,2,3.0
F12CaCr2,0.0,-0.0086393,,2,3.0
Ru4Ta,0.0,-0.0412847,,2,3.0
F6InIr,1.2579,-0.0177091,,2,3.0
N2PrPa,0.0,-0.0421227999999999,,2,3.0
TiCuGaPt,0.0,-0.0301717,,2,3.0
O5S2Sc2Pu2,0.0,-0.0301593,,2,3.0
LiAl4Gd,0.0,-0.0156859,,2,3.0
Ga2Pd2Er,0.0,-0.0305865,,2,3.0
O7Si2Mn2,0.3249,-0.0116992,,2,3.0
Si3Ca2Au,0.0,-0.02047,,2,3.0
Al5FeEr,0.0,-0.0156923,,2,3.0
NaAlZn2,0.0,-0.0096922,,2,3.0
AlFePr,0.0,-0.0232667,,2,3.0
MgZnPb2,0.0,-0.0425233,,2,3.0
O7Ge2NdEu,0.0,-0.0188588999999999,,2,3.0
LiMgSnAu,0.0,-0.0286612,,2,3.0
F6KCs2Ir,2.2568,-0.0201329,,2,3.0
NiGaDy,0.0,-0.027472,,2,3.0
Li4O12Mn2TeW,0.8344,-0.0134266,,2,3.0
O7Si2CaHo,0.0,-0.0142752,,2,3.0
AsInLa,0.0,-0.0333566,,2,3.0
Cu2As2Rb,0.0,-0.0185454,,2,3.0
PrOs2U,0.0,-0.0728622,,2,3.0
AlTiRuPt,0.0,-0.0332815,,2,3.0
Al3CoGe2Hf3,0.0,-0.0302537999999999,,2,3.0
Mg2CoGe,0.0,-0.0117586,,2,3.0
ZnGa2Ir,0.0,-0.0296995,,2,3.0
F5NiPdCs,0.2471,-0.0152499,,2,3.0
Al2AgTm,0.0,-0.0251468,,2,3.0
AuPb4,0.0,-0.0745183,,2,3.0
Al5GdOs,0.0,-0.0247316,,2,3.0
SnAu2U,0.0,-0.0696939,,2,3.0
S2Cu3Au,0.2029,-0.0224965,,2,3.0
Ge2YAg,0.0,-0.0248386,,2,3.0
Rh2InLa2,0.0,-0.038237,,2,3.0
LiAlHg2,0.0,-0.0368772999999999,,2,3.0
Tb6WBi2,0.0,-0.0568034,,2,3.0
Al2FePr6,0.0,-0.0326986,,2,3.0
AlTiRhPd,0.0,-0.0235702,,2,3.0
ZnNd3,0.0,-0.0362237,,2,3.0
Li3Sr,0.0,-0.0073452,,2,3.0
Ag3Ba,0.0,-0.0336102,,2,3.0
Si2ZnSm2,0.0,-0.0251541,,2,3.0
Al4LaIr,0.0,-0.0250229,,2,3.0
H6Ca2Pt,0.0,-0.012787,,2,3.0
Na12B26O45,4.5813000000000015,-2.743544192950421,mp-1180710,2,3.0
Si2YPt2,0.0,-0.0389686999999999,,2,3.0
Al2CdDy3,0.0,-0.0319719,,2,3.0
AlGeTm,0.0,-0.0269153,,2,3.0
Sc2Ge2Ba,0.0,-0.0219483,,2,3.0
ZnPtAu2,0.0,-0.0557616,,2,3.0
Pd2SnLa2,0.0,-0.0385453,,2,3.0
Li2O3Se,4.13,-0.0090059,,2,3.0
Li5Au,0.0,-0.0138507,,2,3.0
F7RbPr2,6.2528,-0.0172426,,2,3.0
Ni3Ga2Lu,0.0,-0.023356,,2,3.0
S3Nb2,0.0,-0.0202135999999999,,2,3.0
S3Cs2Hf,1.8483,-0.029618,,2,3.0
MnNi2Zn,0.0,-0.0163578,,2,3.0
AlRu2Tb2,0.0,-0.0347725999999999,,2,3.0
CoZnLa,0.0,-0.0247156999999999,,2,3.0
As2LaAu,0.0,-0.0391419,,2,3.0
Zn2Er3Hg,0.0,-0.0415619,,2,3.0
N2MgTi,0.2447,-0.0114879,,2,3.0
Li2InPm,0.0,-0.0209485,,2,3.0
Si3RuNd,0.0,-0.0224195,,2,3.0
Al3ZnY3Sn2,0.0,-0.0219776,,2,3.0
MgTcIr2,0.0,-0.0459418999999999,,2,3.0
NaCd3,0.0,-0.0239571,,2,3.0
Mg2SrPr,0.0,-0.0189337,,2,3.0
H2O7P2Cs2,5.314,-0.0135044,,2,3.0
SbAu2Tl2,0.0,-0.0640451,,2,3.0
Mn2SbTe,0.0,-0.028082,,2,3.0
BeCrMn,0.0,-0.0137409,,2,3.0
SrSnTb,0.0,-0.0356276,,2,3.0
MgTm5,0.0,-0.0440139,,2,3.0
RhEr6Tl2,0.0,-0.0539529,,2,3.0
Li7Ca6,0.0,-0.0057404,,2,3.0
Ti6MnTl2,0.0,-0.0289221,,2,3.0
Fe2CuGe,0.0,-0.0177062999999999,,2,3.0
O6CaSr2Mo,2.3038,-0.0155812,,2,3.0
RhTa2Os,0.0,-0.060152,,2,3.0
BGa2BaOs2,0.0,-0.0375782,,2,3.0
H4O10P2Ni2Sr,1.1768,-0.0099843,,2,3.0
Al4CuTb,0.0,-0.0159329,,2,3.0
Sm3Pb,0.0,-0.0527571,,2,3.0
Al3CuLu2,0.0,-0.0253619,,2,3.0
Co2ITb2,0.0,-0.0335413,,2,3.0
H6CO6Cs2,4.4027,-0.0110101,,2,3.0
BAl2Co2Pr,0.0,-0.0172844,,2,3.0
H3RhTb,0.0,-0.0189001,,2,3.0
SiAgDy,0.0,-0.0303611,,2,3.0
B4C3Ni4Y3,0.0,-0.0154773,,2,3.0
Ga2RhHf2,0.0,-0.0391486,,2,3.0
AlCoNiZr,0.0,-0.018631,,2,3.0
LiPd2Tl2,0.0,-0.0427826,,2,3.0
Si4Ti3Ni4,0.0,-0.0147091,,2,3.0
Pd2SnHf,0.0,-0.041777,,2,3.0
P2CuTm,0.0,-0.0229131999999999,,2,3.0
Mg2Au3,0.0,-0.0441088,,2,3.0
Zn2SnTh2,0.0,-0.0514069999999999,,2,3.0
Zn2Zr3,0.0,-0.0240667,,2,3.0
Al2Au2Bi,0.0,-0.046854,,2,3.0
Ag2Se,0.0,-0.133338010520832,mp-2047939,2,3.0
Mg2EuTm,0.0,-0.0288918,,2,3.0
NO3Na,2.9884,-0.0074386999999999,,2,3.0
O3GaRb3,2.5439,-0.0156252999999999,,2,3.0
Se2Pt3Bi2,0.0,-0.0586009,,2,3.0
Br6Rb2SbAu,0.0,-0.0274831,,2,3.0
Cl2Br2Ag,0.0,-0.0174121,,2,3.0
Al2PrAu2,0.0,-0.0404613,,2,3.0
Al3Mn2Fe3,0.0,-0.0144771,,2,3.0
CaCd2Nd,0.0,-0.0289905,,2,3.0
PtHgTl2,0.0,-0.0707856,,2,3.0
FSeLu,1.6658,-0.0294106,,2,3.0
O7FNb3,0.7749,-0.0160367,,2,3.0
Pd2Cd2La,0.0,-0.0345185,,2,3.0
B2SrIr3,0.0,-0.0423489,,2,3.0
Li2O4CrNi,0.0,-0.0100935,,2,3.0
N2Ni2Ba,0.0,-0.0184176,,2,3.0
Al5YAu2,0.0,-0.026302,,2,3.0
ZnTcHf2,0.0,-0.0439209,,2,3.0
Te2Pr6Au,0.0,-0.0457965,,2,3.0
MnFePu2,0.0,-0.0640130999999999,,2,3.0
Ni3Pm,0.0,-0.023273,,2,3.0
Sb2BaPt,0.0,-0.04704,,2,3.0
RuLa6Pb2,0.0,-0.050042,,2,3.0
BAl2CaFe2,0.0,-0.0117311999999999,,2,3.0
AlSc2Ir,0.0,-0.02771,,2,3.0
ScAu4,0.0,-0.0588514,,2,3.0
SBrSb,1.5746,-0.0225611,,2,3.0
GaPd5Te,0.0,-0.0315103,,2,3.0
O2NaGa,2.8779,-0.010308,,2,3.0
O12NaKTi4Bi2,2.3467,-0.0180422,,2,3.0
N2OTi2,0.3537,-0.0134752,,2,3.0
Cu2GaDy,0.0,-0.0240856999999999,,2,3.0
CoBr6AgCs2,0.0,-0.0251863,,2,3.0
MgGa3Y,0.0,-0.0168865,,2,3.0
Gd2NiB10,0.0,-0.5282950358974341,mp-1212642,2,3.0
H6Ti2Mn,0.0,-0.0082216,,2,3.0
Ni2Te3Tl,0.0,-0.0363251,,2,3.0
Zn6Ge3Tm2,0.0,-0.0224037,,2,3.0
BeZr2,0.0,-0.0219968,,2,3.0
H2GeNb2,0.0,-0.0187216999999999,,2,3.0
Se4AgInSn,0.4721,-0.0262716,,2,3.0
O6RuInBa2,0.3048,-0.0206639,,2,3.0
ScNi8,0.0,-0.0160844,,2,3.0
Sr4Hg3,0.0,-0.0424525,,2,3.0
Si3Ni2Hf,0.0,-0.0215186999999999,,2,3.0
NNaZn,0.0,-0.0091130999999999,,2,3.0
O6Cl2Sr,5.2104,-0.0092905,,2,3.0
Zn2LaAu,0.0,-0.035484,,2,3.0
Co4NiHo,0.0,-0.0225197,,2,3.0
PdDy2Tl,0.0,-0.0508925,,2,3.0
K2Sb2Au,0.0,-0.0325244,,2,3.0
Se5Pb2Bi2,0.2374,-0.0458865,,2,3.0
MgAl3Ge2Ho3,0.0,-0.0242783,,2,3.0
YNdTl2,0.0,-0.0546385999999999,,2,3.0
MgInPt,0.0,-0.0369437,,2,3.0
Pr3Nd,0.0,-0.0433806999999999,,2,3.0
AlZn2,0.0,-0.0115907,,2,3.0
O4Mg3Co,0.0,-0.0096710999999999,,2,3.0
B2Rh3Er,0.0,-0.0285953,,2,3.0
Li2CuGe,0.0,-0.0101228,,2,3.0
CoHf2Os,0.0,-0.0543619,,2,3.0
LiSiZn2,0.0,-0.0099008,,2,3.0
ScZn2Zr2,0.0,-0.0207973,,2,3.0
H6Ti2Ru,0.0,-0.0099876,,2,3.0
BeSe2Hg,0.9858,-0.028709,,2,3.0
O3AgNd,0.0,-0.0205823,,2,3.0
S3SbNd4,0.0,-0.0320422,,2,3.0
Co2NiTa,0.0,-0.0295367,,2,3.0
FBrSr,5.017,-0.018435,,2,3.0
TiCo2Hf,0.0,-0.0287833,,2,3.0
SbSmEr,0.0,-0.0449162,,2,3.0
Ga3LuIr2,0.0,-0.0418425,,2,3.0
SiMn3Hf2,0.0,-0.0321469,,2,3.0
H4AlRb,4.6504,-0.0073334,,2,3.0
PFeCs,0.0,-0.0224862,,2,3.0
Al5CoU,0.0,-0.0230307,,2,3.0
NOLa6Pb2,0.0,-0.04401,,2,3.0
PCoBa,0.0,-0.0231116,,2,3.0
O6Ti2MnZn,0.9274,-0.0128704,,2,3.0
MgCdDy,0.0,-0.028075,,2,3.0
NaPdI4,0.0,-0.0311717,,2,3.0
CaSrAg,0.0,-0.0213016,,2,3.0
OTi3Hf,0.0,-0.0245614,,2,3.0
F6CdEr,0.0,-0.0156765,,2,3.0
BeSiHo,0.0,-0.0218126,,2,3.0
Pd5InBi,0.0,-0.0397824,,2,3.0
RuIr2,0.0,-0.0590698999999999,,2,3.0
ScPt7,0.0,-0.0637508,,2,3.0
BeCr2Fe,0.0,-0.0147726,,2,3.0
W2Ir,0.0,-0.0703022,,2,3.0
Cu4PdGd,0.0,-0.0257307999999999,,2,3.0
H6K2Os,0.0,-0.0121543,,2,3.0
Al2CaSc,0.0,-0.0101766,,2,3.0
P2KCu4,0.0,-0.0130978,,2,3.0
Al3Ca2Pt,0.0,-0.0196006,,2,3.0
CaGaBr,0.0,-0.0165241,,2,3.0
CSi2Fe2Tb2,0.0,-0.0234915999999999,,2,3.0
Br6Rb2Tb,0.0,-0.0245063999999999,,2,3.0
AsPdNd,0.0,-0.0335225,,2,3.0
NFBa2,0.9045,-0.0248946,,2,3.0
F4KI,2.8629,-0.0118954,,2,3.0
Pd4SmHg,0.0,-0.0412984,,2,3.0
Cl6Rb2W,0.0,-0.0192174,,2,3.0
SiFe2Co,0.0,-0.0163031,,2,3.0
ZnInLu,0.0,-0.0345812,,2,3.0
MgNi4Dy,0.0,-0.0199771,,2,3.0
OZr3Hg,0.0,-0.0345844,,2,3.0
Si2RhIn3Sm3,0.0,-0.0326957,,2,3.0
SiMoHf,0.0,-0.0365683,,2,3.0
Al6SrPd,0.0,-0.0131626,,2,3.0
NFPa,0.0627,-0.0402594,,2,3.0
O4RbRh,0.241,-0.0140004,,2,3.0
AlCuHo,0.0,-0.0245109999999999,,2,3.0
O3SiCo,0.0,-0.0114562,,2,3.0
PSb4Te7,0.0,-0.0350105,,2,3.0
YRhIn5,0.0,-0.0331941,,2,3.0
B4EuTa,0.0,-0.0253548,,2,3.0
ZnZr2Cd,0.0,-0.0265777,,2,3.0
Al7Ni2Ce3,0.0,-0.0189236,,2,3.0
Ti2As2Ba,0.0,-0.0234165,,2,3.0
CrTe2Tl,0.0,-0.0417376999999999,,2,3.0
Ni2SnPr,0.0,-0.0283882,,2,3.0
Si2CoHf2,0.0,-0.0333532999999999,,2,3.0
MgCd8,0.0,-0.0276157,,2,3.0
N3AlCu3,0.0,-0.0116729,,2,3.0
CuGa5Sm,0.0,-0.0205810999999999,,2,3.0
O6TiCrLa2,0.0,-0.0192089,,2,3.0
GaAsPd5,0.0,-0.0291687,,2,3.0
Cl5W,0.0,-0.0191735,,2,3.0
TbBi3,0.0,-0.0710127,,2,3.0
HCl2Tb,4.1463,-0.0185375,,2,3.0
Li7O5FMn,1.4585,-0.0071954,,2,3.0
Na2AgPb2,0.0,-0.038417,,2,3.0
LiB3N6Sr4,2.021,-0.0134314999999999,,2,3.0
TiCuSe3Rb,0.0,-0.0197956,,2,3.0
InSn2La2,0.0,-0.0391161,,2,3.0
Li3Au2,0.0,-0.0296902,,2,3.0
Al3Si2Sc3Rh,0.0,-0.0142496,,2,3.0
Si4VNb,0.0,-0.0155602,,2,3.0
SNp2,0.0,-0.0756748,,2,3.0
LiB20Mg9,0.0,-0.0066955999999999,,2,3.0
F6RuCs2Tl,0.0,-0.0227536999999999,,2,3.0
O6FeSm2W,0.0,-0.0240789,,2,3.0
ScCe3,0.0,-0.036924,,2,3.0
CoMo2,0.0,-0.028918,,2,3.0
LiMnZnGe,0.0,-0.0135655,,2,3.0
Pd2HfPt,0.0,-0.0506567999999999,,2,3.0
O2RbBi,1.9498,-0.0293124,,2,3.0
Li3O6TiCo2,0.0,-0.0100644,,2,3.0
Co2GaTb2,0.0,-0.0292494,,2,3.0
O4ClMoTb,2.6028,-0.0191006,,2,3.0
GeRuEu,0.0,-0.0365307,,2,3.0
Rh2Pb3Th3,0.0,-0.0735481,,2,3.0
Ni2SnTa,0.0,-0.0339405,,2,3.0
CN2FLa,2.5931,-0.0169831,,2,3.0
AlEr2Os2,0.0,-0.0510256,,2,3.0
O6Ca2YSb,3.9255,-0.0151253,,2,3.0
O8S2InCs,3.8544,-0.0135102,,2,3.0
ScSrTl,0.0682,-0.0367659,,2,3.0
S8V7,0.0,-0.0143293999999999,,2,3.0
Al3Sc3Sn2Os,0.0,-0.0240139,,2,3.0
Al2RhEr,0.0,-0.0258769999999999,,2,3.0
Sr2Sb2Hg,0.1217,-0.0383676,,2,3.0
CoHf6Tl2,0.0,-0.0599718,,2,3.0
O6Ba2HoW,0.0,-0.0266274,,2,3.0
CTi3Ga,0.0,-0.0156264,,2,3.0
Ge3RhSm,0.0,-0.0279066,,2,3.0
O2SK5Cu,1.2204,-0.0100066,,2,3.0
Be4MnOs,0.0,-0.0183726,,2,3.0
H2SeHf,0.3531,-0.0232661,,2,3.0
SiFeW,0.0217,-0.0328569,,2,3.0
As4Se3,0.0,-0.0202093,,2,3.0
Co3GeDy2,0.0,-0.0280789,,2,3.0
Y5Tl,0.0,-0.0354535,,2,3.0
BInHf3,0.0,-0.0462049999999999,,2,3.0
Sr2BaAu,0.0,-0.0387897,,2,3.0
OTb3Au,0.0,-0.0449024,,2,3.0
CrFe2Ge,0.0,-0.0185787,,2,3.0
H6InCs2Tl,0.0,-0.0202807,,2,3.0
H6RhBa2,0.0,-0.0154899,,2,3.0
MgSe4Rb2Sn,1.8836,-0.0214699,,2,3.0
LiMgZnIn,0.0,-0.0138062,,2,3.0
O3TiEu,0.0,-0.0211492,,2,3.0
Mg2Ga2Y,0.0,-0.0145715,,2,3.0
GaSm2Os2,0.0,-0.0502366,,2,3.0
Al3YPt,0.0,-0.0252746,,2,3.0
Al3Cu2Pu,0.0,-0.0275526,,2,3.0
PdSb2Th,0.0,-0.0516706,,2,3.0
Mn2TaOs,0.0,-0.0440367,,2,3.0
ScGaPt,0.0,-0.0348852,,2,3.0
O6Rb5W,0.0,-0.0193748,,2,3.0
CaGa2Eu,0.0,-0.0245304,,2,3.0
GaEu2Au,0.0,-0.0489311999999999,,2,3.0
Al3Sn2Hf3Os,0.0,-0.0399269,,2,3.0
O7Si2CaTb,0.0,-0.01406,,2,3.0
Mn2As,0.0,-0.0192238,,2,3.0
Cu2Rh3Gd,0.0,-0.0320687,,2,3.0
CeAuBi,0.0,-0.0649126,,2,3.0
MgCaZn2,0.0,-0.0106487,,2,3.0
Co2Hf2Tl,0.0,-0.0467154,,2,3.0
KSbHg,0.0,-0.0384128,,2,3.0
O5ZnSn2,0.8994,-0.0162352999999999,,2,3.0
O6Ba2LuIr,0.0,-0.0269704,,2,3.0
MnInAu2,0.0,-0.0478361,,2,3.0
H2Sc2Y,0.0,-0.0130375,,2,3.0
AlTi2Co2,0.0,-0.0153039,,2,3.0
IU,0.0,-0.0706909,,2,3.0
OFPu,0.0,-0.0433928,,2,3.0
Lu3Pb,0.0,-0.0608145,,2,3.0
Pd4ErHg,0.0,-0.0422559,,2,3.0
GeTeDy,0.0,-0.0356864,,2,3.0
AlLa2Ir2,0.0,-0.0482070999999999,,2,3.0
Zn2La,0.0,-0.0238276,,2,3.0
O4CeBi,0.0,-0.026938,,2,3.0
H4CaCr,0.0,-0.0073579,,2,3.0
BCCuTm,0.0,-0.0216203,,2,3.0
Cu2As2CsTm,0.0,-0.0274807,,2,3.0
B2Fe7Th3,0.0,-0.0358821,,2,3.0
OAlBr,4.004,-0.0135055,,2,3.0
SiAgPm2,0.0,-0.0328112,,2,3.0
Cu3CePt2,0.0,-0.0389942,,2,3.0
O7Sc2Sr3,0.0,-0.0146258,,2,3.0
F5K2Sb,4.6556,-0.0117321,,2,3.0
Ti2RhAu,0.0,-0.0344511,,2,3.0
SiAgPt5,0.0,-0.0563892,,2,3.0
ClBrSn,2.3117,-0.0220195,,2,3.0
CuTa2,0.0,-0.0494284,,2,3.0
Si3Sc2Ag,0.0,-0.0154697999999999,,2,3.0
MnGa5Ce,0.0,-0.0210862,,2,3.0
P2Cd2Pu,0.0,-0.0387466999999999,,2,3.0
F6CoNi,0.0,-0.0088851,,2,3.0
C2O6K2Eu,0.0773,-0.0137649,,2,3.0
KSb4,0.0,-0.0316113,,2,3.0
ZnTc2Cd,0.0,-0.0284863,,2,3.0
Na2P2Cs,0.0,-0.0138446,,2,3.0
NaAgHg2,0.0,-0.0431475,,2,3.0
Cu4GaEr,0.0,-0.0215841,,2,3.0
HRh3W,0.0,-0.0349673,,2,3.0
NaNi2Sb2Tm,0.0,-0.0277282,,2,3.0
Ni2GaEu2,0.0,-0.0315807,,2,3.0
S2RbNb,0.8548,-0.0195746,,2,3.0
N2NbNd,0.0,-0.0251657,,2,3.0
Cd2NdPt,0.0,-0.0444185,,2,3.0
RhAg2Cd,0.0,-0.0317183,,2,3.0
Ti3NiSe6,0.0,-0.0195678,,2,3.0
Be2Si2Nd,0.0,-0.0148273,,2,3.0
Br6InSnCs2,0.0,-0.0274689,,2,3.0
LiRu2W,0.0,-0.0355576,,2,3.0
TcRhIr,0.0,-0.0468274,,2,3.0
NiRh2Tm3,0.0,-0.0407627,,2,3.0
LiS2Gd,1.3402,-0.0221574,,2,3.0
Ni2GeTb,0.0,-0.0252023,,2,3.0
S4SrPb3,0.7577,-0.0370442,,2,3.0
PdPt3,0.0,-0.0608458,,2,3.0
HFCa,4.5343,-0.0079676,,2,3.0
CuRuTb2,0.0,-0.0362751,,2,3.0
Se3SbPb4,0.0,-0.0504566,,2,3.0
SiRu3Ce2,0.0,-0.0345932,,2,3.0
KCu2YSb2,0.0,-0.0241689,,2,3.0
SeIAu,0.7628,-0.0420965,,2,3.0
Ni3Tm,0.0,-0.0254194999999999,,2,3.0
CaZn2Cd,0.0,-0.0170212,,2,3.0
HSPu,0.0,-0.0422482,,2,3.0
Rh5Pb,0.0,-0.0406757,,2,3.0
Rh2HgBi2,0.0,-0.0586089,,2,3.0
CaInPt,0.0,-0.0387402,,2,3.0
Ni3Os,0.0,-0.0299837,,2,3.0
LiO4PV,0.44,-0.01044,,2,3.0
H2Cu2Ir,0.0,-0.0215655,,2,3.0
SrHf2Ir2,0.0,-0.0588904,,2,3.0
Ga2RhCe,0.0,-0.028596,,2,3.0
Y6Sb2Re,0.0,-0.0354089999999999,,2,3.0
YZrCd2,0.0,-0.0301167,,2,3.0
Pr6ReBi2,0.0,-0.0547237,,2,3.0
FeHo2Ir2,0.0,-0.052521,,2,3.0
CaGe3Au,0.0,-0.0276629,,2,3.0
CoAsHo2,0.0,-0.0346567,,2,3.0
B4Ca2Ru5,0.0,-0.0206452,,2,3.0
ClAgLa2,0.0,-0.0324395,,2,3.0
Dy3Os2Au,0.0,-0.0599694999999999,,2,3.0
SbLa2Hg,0.0,-0.0489026,,2,3.0
CO2BrPb,2.542,-0.0247414,,2,3.0
Ga3Rh2Er,0.0,-0.0286477,,2,3.0
As2SbAu,0.0,-0.0367749,,2,3.0
O3AsAg,0.2626,-0.0150439,,2,3.0
Mo2RePt,0.0,-0.0529605,,2,3.0
SmTmHg2,0.0,-0.0588436,,2,3.0
SiSeTa,0.0,-0.032777,,2,3.0
Cu2Ta,0.0,-0.032322,,2,3.0
Sb2Pr6Os,0.0,-0.0458222,,2,3.0
S3RbAgEr,0.0,-0.0232169,,2,3.0
NiSe4Nb2,0.0,-0.024,,2,3.0
LiP2Ni2Ce,0.0,-0.0176785,,2,3.0
ITm,0.0,-0.0452027,,2,3.0
SrI4Tb,0.0,-0.0375251,,2,3.0
Mg4Ag3,0.0,-0.0164771,,2,3.0
O6NiPdSm2,0.0,-0.0198852,,2,3.0
F6InBa,0.0,-0.0145968,,2,3.0
RhBa2Pt,0.0,-0.0462842,,2,3.0
BCo4Tm,0.0,-0.0216682,,2,3.0
AlZnU,0.0,-0.041677,,2,3.0
Si3Mn5,0.0,-0.0156026,,2,3.0
V3Au,0.0,-0.0306316,,2,3.0
F6GeCs2,6.269,-0.0158257999999999,,2,3.0
MgSr5,0.0,-0.0193984,,2,3.0
ScNiCu,0.0,-0.0155103,,2,3.0
Si2TbRe,0.0,-0.0350478,,2,3.0
LiO2F2Nb,3.1937,-0.0121237999999999,,2,3.0
Li2O3Te,3.33,-0.0119252,,2,3.0
VBr2,0.8788,-0.0200566,,2,3.0
RbAuHg3,0.0,-0.0591161,,2,3.0
Sr4Au,0.0,-0.032014,,2,3.0
O4Na3Bi,1.0533,-0.0159926,,2,3.0
Cd3LaAu2,0.0,-0.0459869,,2,3.0
NiGe2In3Dy3,0.0,-0.0338036,,2,3.0
C3AlNb4,0.0,-0.0218804,,2,3.0
CaSc3Fe,0.0,-0.0140419,,2,3.0
Ga3Ru2Tm2,0.0,-0.0324458,,2,3.0
Zn4Ge4Dy3,0.0,-0.025498,,2,3.0
Ca2RhLa,0.0,-0.0244346,,2,3.0
Al3Pu4,0.0,-0.0662276,,2,3.0
Fe2Ge2Dy,0.0,-0.0248848,,2,3.0
Al9CsIr2,0.0,-0.0213519,,2,3.0
Cl6K2Co,0.0,-0.0104191,,2,3.0
CCoHo,0.0,-0.0258227,,2,3.0
MgInHg,0.0,-0.0357884,,2,3.0
ZnYRh2,0.0,-0.02789,,2,3.0
CuZnTb,0.0,-0.0255399,,2,3.0
MgCu4Sn,0.0,-0.017097,,2,3.0
Li2SiSr,0.0,-0.0096072,,2,3.0
Mg2BaIr2,0.0,-0.0386473,,2,3.0
Co4Sn2Dy3,0.0,-0.0318852,,2,3.0
Mg4Al2La3,0.0,-0.0184922,,2,3.0
SrSn3,0.0,-0.0329488,,2,3.0
ScIn5Pt,0.0,-0.0363791,,2,3.0
AsI2La2,0.0,-0.0377301,,2,3.0
AsNdLu,0.0,-0.040761,,2,3.0
GaPbAc2,0.0,-0.0688643,,2,3.0
CoNi5As,0.0,-0.0169647,,2,3.0
H2Sc2Ga,0.0,-0.0111148,,2,3.0
NaPt2Ac,0.0,-0.059523,,2,3.0
H3O10S2KCu2,0.373,-0.008682,,2,3.0
Ni2Sn4Au,0.0,-0.0352423,,2,3.0
CaSe3AgCs,0.0,-0.0241963,,2,3.0
Sb5Sm3Hf,0.0,-0.0434783,,2,3.0
Li2O8V3Nb,0.0,-0.0126301,,2,3.0
BeFe,0.0,-0.0114458,,2,3.0
H8Mg2CrNp,0.0,-0.0137678,,2,3.0
TaPt4,0.0,-0.0700845,,2,3.0
SeTl3,0.0,-0.0595227,,2,3.0
Ti2Zn2Hf,0.0,-0.0245046,,2,3.0
CuGa5Hf,0.0,-0.0230437,,2,3.0
AgDyHg2,0.0,-0.0543303999999999,,2,3.0
MgCe2,0.0,-0.0313241,,2,3.0
NaFe4As4Ba,0.0,-0.0200496,,2,3.0
Fe2InHf,0.0,-0.0332382,,2,3.0
HSiMn3,0.0,-0.0140257,,2,3.0
H2Sr2Sn,0.0,-0.0181377,,2,3.0
CaBr2Hg,3.1931,-0.030822,,2,3.0
LiSc2Ga,0.0,-0.0121861,,2,3.0
N3CoLu,0.0091,-0.020745,,2,3.0
TiCoSe4,0.0,-0.0196506,,2,3.0
Ca3Cu4Ga2,0.0,-0.0139548,,2,3.0
KCu2Sb2Ho,0.0,-0.0276704,,2,3.0
AlGa4Nd,0.0,-0.0198186,,2,3.0
GeYZr,0.0,-0.0266771999999999,,2,3.0
LiLuAu2,0.0,-0.0499148,,2,3.0
PTi2As,0.0,-0.0168687,,2,3.0
Na3Tl,0.0,-0.0214021,,2,3.0
CdAu2Th2,0.0,-0.0728537,,2,3.0
KAs2Y2,0.0,-0.0218824,,2,3.0
Al2ScRu2,0.0,-0.0206136,,2,3.0
LaLuTl2,0.0,-0.0613256,,2,3.0
GeIGd,0.0,-0.0392817,,2,3.0
ScHfOs2,0.0,-0.0559212,,2,3.0
Li4O8MnNi3,0.0,-0.0097358,,2,3.0
Y6RhPb2,0.0,-0.0398588999999999,,2,3.0
SiPCu5,0.0,-0.0138245,,2,3.0
Ni2ZnTb,0.0,-0.0235439,,2,3.0
Se3ZrPtTl,0.0,-0.0398068,,2,3.0
GaSr2Pt2,0.0,-0.0412734,,2,3.0
AlScNi4,0.0,-0.0149685,,2,3.0
BrI2,1.0084,-0.0310153,,2,3.0
AlSc7,0.0,-0.0134678,,2,3.0
ScNiIn2,0.0,-0.0247726,,2,3.0
BeMn2Y,0.0,-0.0172458,,2,3.0
PAuTl2,0.0,-0.0561388,,2,3.0
SiEuHg,0.0,-0.0444677,,2,3.0
In2PmHo,0.0,-0.0405636,,2,3.0
AlGa2Tb6,0.0,-0.0360618,,2,3.0
NBrCe2,0.0,-0.0310549,,2,3.0
Si2FeZr2,0.0,-0.0207296,,2,3.0
C2FeTh,0.0,-0.0337693,,2,3.0
TiCuTe3Tl,0.0,-0.0363853,,2,3.0
ScPdPt2,0.0,-0.0479569,,2,3.0
O3ZnSe,3.4659,-0.0116387,,2,3.0
GeYPt2,0.0,-0.0480553,,2,3.0
Si2HoOs,0.0,-0.036012,,2,3.0
Rh2CdDy2,0.0,-0.0395212,,2,3.0
K2BrAu,2.7305,-0.0274546,,2,3.0
CuSb2Pa,0.0,-0.0476888,,2,3.0
B5Dy2Re3,0.0,-0.0350638,,2,3.0
P2CuEu,0.0,-0.023153,,2,3.0
RuRh2Hf3,0.0,-0.0493635,,2,3.0
LiAu3,0.0,-0.0528859,,2,3.0
O4Mn3Ni,0.0,-0.0136326,,2,3.0
RhTm3,0.0,-0.0479406,,2,3.0
CrMoW,0.0,-0.0409245,,2,3.0
RhTe3BaSm,0.0,-0.0395412,,2,3.0
AsAgBa,0.0,-0.0312671,,2,3.0
TiVMn2As4,0.0,-0.0195009,,2,3.0
Pd5CdSb,0.0,-0.0334842999999999,,2,3.0
Ag2CdDy,0.0,-0.0355496,,2,3.0
Li4O8TiNi3,0.0,-0.009795,,2,3.0
ZnTbPt,0.0,-0.0446285,,2,3.0
Mg3Al3Ge2Pd,0.0,-0.0125537,,2,3.0
N2MnZn,0.3423,-0.012949,,2,3.0
MgAlSr2,0.0,-0.0144,,2,3.0
N6Mn2Y3,0.0,-0.0172579,,2,3.0
Ag2DyTm,0.0,-0.0409848,,2,3.0
O6ZnHfBi2,2.9938,-0.029065,,2,3.0
H2O2ClLu,4.6518,-0.0160921999999999,,2,3.0
H4Cr3Ni,0.0,-0.0106198,,2,3.0
BeSiDy,0.0,-0.0214164999999999,,2,3.0
C2O6TmHg,0.0,-0.0196244,,2,3.0
SiY2Ag,0.0,-0.0248953,,2,3.0
C4MgNd3,0.0,-0.0222108,,2,3.0
CoGe3U,0.0,-0.0358036,,2,3.0
Li2Ir,0.0,-0.0255945,,2,3.0
KPd4Tl6,0.0,-0.0523203999999999,,2,3.0
As2PdDy2,0.0,-0.0352,,2,3.0
Al2Y2Au,0.0,-0.0288340999999999,,2,3.0
LiAs2Ru2Sm,0.0,-0.0269447,,2,3.0
Si2LaIr,0.0,-0.0346225999999999,,2,3.0
Zn3Ho2,0.0,-0.0280864,,2,3.0
Al3Co2Pt,0.0,-0.0221674,,2,3.0
MgAl2Sm2,0.0,-0.0221575,,2,3.0
Al3Si2Tm3Pt,0.0,-0.0308889,,2,3.0
Sc8Cd,0.0,-0.0160686,,2,3.0
CdCeTl,0.0,-0.0494963,,2,3.0
BSe3Sn,0.5132,-0.0209429,,2,3.0
Ge2Te5Bi2,0.1466,-0.0424839,,2,3.0
O8As2SrHf,3.6337,-0.0170027,,2,3.0
ONaK,2.3254,-0.0075407,,2,3.0
Li2Mg2Ge2Pr,0.0,-0.0142478999999999,,2,3.0
NaS3TiRh,0.0,-0.0149136,,2,3.0
FK3Pd,0.6711,-0.0133815,,2,3.0
NiRh2Au,0.0,-0.0381313999999999,,2,3.0
TbHoIr2,0.0,-0.0604824,,2,3.0
O3Na2Th,2.9414,-0.0233475,,2,3.0
Li3ScAs2,0.0,-0.0113206,,2,3.0
PdPr2Pt,0.0,-0.0484097999999999,,2,3.0
TiCu5,0.0,-0.0153772,,2,3.0
S2SnBa,1.6384,-0.0251236,,2,3.0
OCuSeEr,1.2259,-0.0251534,,2,3.0
Si3HoIr,0.0,-0.0308800999999999,,2,3.0
PRuTa,0.0,-0.0380883,,2,3.0
Pr2Pt2Hg,0.0,-0.0601509,,2,3.0
ZnAs2Ba,0.0,-0.0241368,,2,3.0
CrPd5Sb,0.0,-0.0316763,,2,3.0
O4Cu2Cd,0.3079,-0.0131404,,2,3.0
Cu4SnHo,0.0,-0.0245250999999999,,2,3.0
Co4Ge4Tb3,0.0,-0.026584,,2,3.0
Ni5Eu,0.0,-0.0225455,,2,3.0
MnNi2Ho2,0.0,-0.0301275,,2,3.0
Sn4Ir,0.0,-0.0431267,,2,3.0
Sc5Mn,0.0,-0.0149098,,2,3.0
H12O6F6SiCo,0.0,-0.0065335,,2,3.0
MgSmPt2,0.0,-0.0485805999999999,,2,3.0
Al4Sr3Sn2,0.0,-0.0192374,,2,3.0
LiZnPdIn,0.0,-0.021009,,2,3.0
O4ClSb2Sm,0.6105,-0.0211384,,2,3.0
ZnRuTm2,0.0,-0.0385251999999999,,2,3.0
F4ClK,3.5195,-0.0064987,,2,3.0
Cr3Nb2Ir,0.0,-0.0323446,,2,3.0
O4Rb2Sr,1.315,-0.0141388,,2,3.0
O6AsBa2Tb,3.4378,-0.0211886,,2,3.0
K3As2Au3,0.7651,-0.0347282,,2,3.0
Zn2AgLu,0.0,-0.0287374,,2,3.0
O3K2Np,0.0,-0.0261903,,2,3.0
Si3Sm2Pt,0.0,-0.0326453,,2,3.0
Li2O3KFe,0.1708,-0.0089555,,2,3.0
Ga3SrRh2,0.0,-0.0238085,,2,3.0
FeCo8,0.0,-0.0174029,,2,3.0
Te3BaSmPt,0.0,-0.0456868,,2,3.0
BeBCr,0.0,-0.010406,,2,3.0
H3CuEr,0.0,-0.0156945,,2,3.0
LiY,0.0,-0.0150569,,2,3.0
DyIr2,0.0,-0.0643383999999999,,2,3.0
MgGaHg2,0.0,-0.0394720999999999,,2,3.0
Fe2InHo,0.0,-0.0299299,,2,3.0
RhSnSb,0.0,-0.0360491,,2,3.0
PSTa,0.0,-0.0297206,,2,3.0
BRu6Pa2,0.0,-0.0467834,,2,3.0
C5Ta6,0.0,-0.0415397,,2,3.0
Ga5SmAu,0.0,-0.0283453,,2,3.0
AlSmHg,0.0,-0.0406942,,2,3.0
CaCo6As4,0.0,-0.0179957,,2,3.0
Cu2Zn2Y,0.0,-0.0173354,,2,3.0
Be2PdIr,0.0,-0.0288878999999999,,2,3.0
Al3Cu3Zr,0.0,-0.01462,,2,3.0
YIn2Eu,0.0,-0.0377033,,2,3.0
H2Ta2Re,0.0,-0.0424878,,2,3.0
ClBrAu,0.0,-0.0323468,,2,3.0
O2Ce,1.9715,-0.0227851,,2,3.0
K2TeHg,1.7693,-0.0314217,,2,3.0