formula,bg,formation_energy,mp-id,fidelity,bg_category
N2NbCe,0.0,-0.0255292999999999,,2,3.0
BrLa2Pb,0.0,-0.0466437,,2,3.0
ScFe2Ga,0.0,-0.0170451,,2,3.0
S2InHo,0.9544,-0.0269809,,2,3.0
BNRuNd,0.0,-0.0248564,,2,3.0
Cu2SnHo,0.0,-0.0293116,,2,3.0
Al3Nb2Pd,0.0,-0.0210863,,2,3.0
P2Hf,0.0,-0.0288116,,2,3.0
NFe3Zn,0.0,-0.0155620999999999,,2,3.0
AlMnOs,0.0,-0.0329476,,2,3.0
MgMnCu4,0.0,-0.0141358,,2,3.0
N6Mn2La3,0.0,-0.0213499,,2,3.0
Si2NiZn2,0.0,-0.0127514,,2,3.0
Zr4Ru2In5,0.0,-0.033183,,2,3.0
O6MgSrTeBa,2.2108,-0.0166834999999999,,2,3.0
Li4O12NbTe3,0.0,-0.0131877,,2,3.0
F6InLa,6.0951,-0.0157029999999999,,2,3.0
LiAl2Zn2,0.0,-0.0090268,,2,3.0
BCCoHf,0.0,-0.0250127,,2,3.0
CPRu2Tb,0.0,-0.028155,,2,3.0
Co3Dy2,0.0,-0.0296644,,2,3.0
MnRh5,0.0,-0.03136,,2,3.0
NaBr6Rb2Er,4.0789,-0.0232679,,2,3.0
PCl2Se2,1.3517,-0.0136758,,2,3.0
Li2Te2La,0.0,-0.0257572,,2,3.0
OBrPu,0.0,-0.0477782,,2,3.0
InHoHg2,0.0,-0.0551390999999999,,2,3.0
HNa3S,3.228,-0.0059622,,2,3.0
TiPd2Au,0.0,-0.0382239999999999,,2,3.0
F6FePb,0.0,-0.0166597,,2,3.0
Sc2Ni2Sn,0.0,-0.0200078,,2,3.0
MnNiGa,0.0,-0.0173444,,2,3.0
O4S2Cu2Sb2Er,0.0,-0.0196893,,2,3.0
CuMoPt2,0.0,-0.0479744,,2,3.0
RbCs2Hg,0.0,-0.0411556,,2,3.0
Mg3Gd,0.0,-0.0185075,,2,3.0
Al4FeDy,0.0,-0.0165907,,2,3.0
F8Mg2Ba,1.0412,-0.0102146,,2,3.0
FeGe2Tb,0.0,-0.0263162999999999,,2,3.0
YRuSn2,0.0,-0.0342496,,2,3.0
RhNd3,0.0,-0.0415856,,2,3.0
Al2NiGd,0.0,-0.0232838,,2,3.0
S2NiPd2,0.0,-0.020471,,2,3.0
FeAs2Dy6,0.0,-0.0390278,,2,3.0
TiNi5,0.0,-0.0164247,,2,3.0
I2Eu2Bi,0.0,-0.0532518,,2,3.0
B2Rh2Ce,0.0,-0.0261467999999999,,2,3.0
ScCuAg2,0.0,-0.023215,,2,3.0
B6Ir2U,0.0,-0.0325384,,2,3.0
MnGe2In3Nd3,0.0,-0.0326083,,2,3.0
MgGdPt2,0.0,-0.0521236,,2,3.0
ZnSrPb,0.0,-0.0377655999999999,,2,3.0
Cd7In,0.0,-0.0307495,,2,3.0
Br2SbHo2,0.0,-0.0364143,,2,3.0
CoSn2Nd,0.0,-0.0336369,,2,3.0
Na2S,2.4228,-0.0072826,,2,3.0
TiSn3Nd,0.0,-0.0340447,,2,3.0
NiPdCd2,0.0,-0.0275668,,2,3.0
Fe3GeEr2,0.0,-0.0293313999999999,,2,3.0
F6KMn,0.0,-0.0083921,,2,3.0
SrYHg2,0.0,-0.0473175,,2,3.0
Ni4GaPu,0.0,-0.0320327,,2,3.0
Si2PrPt,0.0,-0.0345512,,2,3.0
F6NbSn,0.0,-0.0139774999999999,,2,3.0
O6Si2CaZn,4.0926,-0.0109465,,2,3.0
LiScCd2,0.0,-0.0197058,,2,3.0
O2YTb,0.0,-0.0249679,,2,3.0
CaCd3Au2,0.0,-0.0403115999999999,,2,3.0
CdPt2Ac,0.0,-0.0660178999999999,,2,3.0
Si4Pt2Au,0.0,-0.036141,,2,3.0
CHf,0.0,-0.0374514,,2,3.0
O2NaCr,1.1304,-0.0111498,,2,3.0
Zn2Nd2Hg,0.0,-0.0369214,,2,3.0
Co2Ga,0.0,-0.0170875,,2,3.0
O3NaTiRb,3.5226,-0.0126233,,2,3.0
LiNZn,0.6899,-0.0088,,2,3.0
LiO6La2Ir,0.0,-0.0223219,,2,3.0
F6K3Zn,0.0,-0.0085416,,2,3.0
Al2CoDy6,0.0,-0.0357168,,2,3.0
NiZn2Ir,0.0,-0.0288055999999999,,2,3.0
RhDyBi,0.0,-0.0542989,,2,3.0
In2SmEu,0.0,-0.0418388,,2,3.0
N2MgU,0.0,-0.0329659,,2,3.0
H2RhPd,0.0,-0.0183614,,2,3.0
O4PHo,6.0367,-0.0174275,,2,3.0
Ga2Pd3La,0.0,-0.0298996999999999,,2,3.0
Mg3YAu2,0.0,-0.0308643,,2,3.0
P2Se6AgEr,1.4352,-0.02294,,2,3.0
Al3Si2RuSm3,0.0,-0.0242656,,2,3.0
RuInU,0.0,-0.0573922,,2,3.0
CSiSm3,0.0,-0.0311039,,2,3.0
GaSr2Tl,0.0,-0.0338233,,2,3.0
Al3CoLa2,0.0,-0.0215352,,2,3.0
LiF2Au,0.8868,-0.0216106,,2,3.0
Ge2Rh2Dy,0.0,-0.0317419,,2,3.0
Cd2InBi2,0.0,-0.0501821,,2,3.0
F6K2Tb,0.0,-0.012695,,2,3.0
Cl6K2EuAu,0.0,-0.0204234,,2,3.0
As2Nd,0.0,-0.0291226999999999,,2,3.0
NaCu2Sb2Gd,0.0,-0.0285624,,2,3.0
Si2ScRh3,0.0,-0.023637,,2,3.0
CoTc2Re,0.0,-0.0395567,,2,3.0
Al3CoSn2Ce3,0.0,-0.0278893999999999,,2,3.0
Cl6KCs2Gd,3.3667,-0.0214433,,2,3.0
O6YBa2Pt,0.0,-0.0239901,,2,3.0
O4MoHg,2.0506,-0.0228773,,2,3.0
GeCeNd,0.0,-0.0364418,,2,3.0
LiCoSn4,0.0,-0.0273054,,2,3.0
Sn6TbIr4,0.0,-0.0501739999999999,,2,3.0
O6FeSrBa2,0.0,-0.0180212,,2,3.0
Li3O3F5V3,0.0,-0.0097171,,2,3.0
MgZrSn,0.0,-0.0242832,,2,3.0
V2RuOs,0.0,-0.0358256999999999,,2,3.0
NiNd6Bi2,0.0,-0.048894,,2,3.0
Cu3Er2,0.0,-0.0295623,,2,3.0
KAs2Sn2,0.0,-0.0244262,,2,3.0
Co2TbTm,0.0,-0.033515,,2,3.0
SiCaI,0.0,-0.0197885,,2,3.0
SiPd2Hf,0.0,-0.0354583999999999,,2,3.0
RuPd2Ho3,0.0,-0.0421005,,2,3.0
O3ClSbTe,3.1645,-0.0180507,,2,3.0
Li2O8Cr3Co,0.0,-0.0112882,,2,3.0
RuSb,0.0,-0.036234,,2,3.0
Ca2AsAu,0.2507,-0.02829,,2,3.0
ScCdTl2,0.0,-0.0475869,,2,3.0
Zr5Ta,0.0,-0.0365616,,2,3.0
H4O10Ca2ZnAs2,3.4375,-0.0097127,,2,3.0
H2Ga2Np,0.0,-0.0294004,,2,3.0
S3GeU4,0.0,-0.0586637,,2,3.0
GeDyHf,0.0,-0.0438941,,2,3.0
Pd2Au3Th,0.0,-0.0620615,,2,3.0
Al2Ge2Sr3,0.0,-0.0177823,,2,3.0
O4SrNd2,3.5825,-0.0226284,,2,3.0
F6MgNp,0.0,-0.0203876999999999,,2,3.0
H2KCs,2.7141,-0.0134712999999999,,2,3.0
BCd2Pt6,0.0,-0.0547493,,2,3.0
La3Pr,0.0,-0.0431479,,2,3.0
O10P3Pb2,0.0,-0.0183984,,2,3.0
O3Pt,0.0,-0.0224193,,2,3.0
O4S2Cu2As2Tm,0.0,-0.0166366,,2,3.0
LiF4Rh,0.6664,-0.0106477,,2,3.0
K2As2SrCd,0.2922,-0.0190633,,2,3.0
Al3Si2Pr3Pt,0.0,-0.0279283,,2,3.0
Se2I2Tb,1.2398,-0.0332181,,2,3.0
LaAu4,0.0,-0.0646594,,2,3.0
CoSeI,0.2159,-0.0249333999999999,,2,3.0
Si2TlTh2,0.0,-0.0573006999999999,,2,3.0
AlRbTe2,1.7265,-0.0266555999999999,,2,3.0
Al3GeTb2,0.0,-0.0232403,,2,3.0
CoNi2Zr3,0.0,-0.0240011,,2,3.0
GeAs2Se6Tl2,0.1675,-0.029758,,2,3.0
Al2Ca2Br,0.0,-0.0116922,,2,3.0
Zn2InHo2,0.0,-0.0322145999999999,,2,3.0
GaYRu,0.0,-0.0269387,,2,3.0
HClSm,0.0,-0.0202232,,2,3.0
SiRuU,0.0,-0.0500134,,2,3.0
B2N3Ni2Er3,0.0,-0.0240669,,2,3.0
Al4CaPd,0.0,-0.0128185,,2,3.0
O8As3Rb,2.4865,-0.0123447,,2,3.0
LiCdTl,0.0,-0.0352351,,2,3.0
O5Ti2Se2Pu2,0.0,-0.0321657999999999,,2,3.0
InPt5Bi,0.0,-0.0663557,,2,3.0
MgCuAs2,0.0,-0.0153599,,2,3.0
SrAgBa3,0.0,-0.0345337,,2,3.0
CoRu2Sm2,0.0,-0.0354033999999999,,2,3.0
Mg2CdAu2,0.0,-0.0363408,,2,3.0
LiCo2As2Ho,0.0,-0.0217515,,2,3.0
GeCeTh,0.0,-0.0537578,,2,3.0
MnSe2I,0.0,-0.0242121,,2,3.0
Ge2As2Eu,0.0,-0.0269119,,2,3.0
Se4BrBi3,0.9007,-0.0423104,,2,3.0
LiCl6Cs2Ce,0.0,-0.0193784,,2,3.0
H2GeY2,0.0,-0.0171771,,2,3.0
Ru2Ho3Pt,0.0,-0.0486537,,2,3.0
Al7Pr3Au2,0.0,-0.0275943,,2,3.0
YSb,0.0,-0.0338492,,2,3.0
In2HoAu,0.0,-0.0468996,,2,3.0
Er6IrBi2,0.0,-0.0597144,,2,3.0
AlIn2Hf6,0.0,-0.0502538,,2,3.0
CuPd2Pt,0.0,-0.0377159,,2,3.0
Li2P2Ca,0.0,-0.0079842,,2,3.0
RhSb2Eu,0.0,-0.0413175,,2,3.0
CrIn2Hf6,0.0,-0.0513776,,2,3.0
Si2Co2Sm,0.0,-0.0205564,,2,3.0
SeIn2Sb,0.0,-0.0313145,,2,3.0
BO3F2GaBa,5.1782,-0.0141729,,2,3.0
Al5Mn2Lu,0.0,-0.0167549,,2,3.0
BSc3Tl,0.0,-0.0250106,,2,3.0
O4ZrTa,0.0,-0.0235608,,2,3.0
TiTc2Sb,0.0,-0.0313111,,2,3.0
O6MnSr2Eu,0.0,-0.0180086,,2,3.0
NiMoIr,0.0,-0.0409468,,2,3.0
Si3RuTb,0.0,-0.0230414,,2,3.0
Al2Pd3Ba,0.0,-0.0264364,,2,3.0
F6DyTl,4.1399,-0.0207409,,2,3.0
S4Co3Rb2,0.6967,-0.0154755,,2,3.0
FCl2Mo,0.0,-0.0147487,,2,3.0
CW2,0.0,-0.049739,,2,3.0
Y2In3Sn3,0.0,-0.0334814,,2,3.0
PRu2Ac,0.0,-0.0430818,,2,3.0
NAlEu3,0.0,-0.0362419999999999,,2,3.0
Ni2CuGe,0.0,-0.0168578,,2,3.0
Al4RhU,0.0,-0.02853,,2,3.0
Mg2BaHg2,0.0,-0.0377054,,2,3.0
SiNbHf,0.0,-0.035963,,2,3.0
Mg2S8Cr3Fe,0.0,-0.0125814,,2,3.0
O4CrAg,0.0,-0.0136957,,2,3.0
SiKAg3,0.0,-0.0224406,,2,3.0
HCa3Hg,0.0,-0.0205458,,2,3.0
Te2Lu6Ir,0.0,-0.0540148,,2,3.0
AsSbLa2,0.0,-0.0375013,,2,3.0
O6Na2Si2Zn,3.9262,-0.0097723999999999,,2,3.0
MgCa2Cd,0.0,-0.0139295,,2,3.0
CoDy6Pb2,0.0,-0.0510662,,2,3.0
NiSn6Dy2,0.0,-0.0368840999999999,,2,3.0
Co3Ga2Ho,0.0,-0.0225982,,2,3.0
CaLuPb2,0.0,-0.0547234,,2,3.0
TiFe4In,0.0,-0.0204629,,2,3.0
H3BrBa2,1.8544,-0.0192773,,2,3.0
O6Eu2TmTa,0.0,-0.0297868999999999,,2,3.0
BeVRu2,0.0,-0.0233797,,2,3.0
Al2PrSm,0.0,-0.0261974,,2,3.0
O4K3Ni,0.0,-0.0094776,,2,3.0
CaGe2Rh3,0.0,-0.025704,,2,3.0
MgZr2Tc,0.0,-0.025611,,2,3.0
O3MnAc,0.0,-0.0285595,,2,3.0
ZnIn5Eu,0.0,-0.0337154999999999,,2,3.0
Ni8Nb,0.0,-0.0181328,,2,3.0
Al5La,0.0,-0.0139181,,2,3.0
SiAsPt5,0.0,-0.0548335999999999,,2,3.0
O6CrBa2Hf,0.0,-0.0228984,,2,3.0
F8Sr2Sn,4.2271,-0.0133561,,2,3.0
O7RbSrTa2,0.0,-0.0228306,,2,3.0
B2N3Fe2Dy3,0.0,-0.0235775,,2,3.0
F6K2In,0.0,-0.0104212,,2,3.0
OClAc,4.1754,-0.0383994,,2,3.0
O3KU,0.2111,-0.0292306,,2,3.0
Li3Al,0.0,-0.0038461,,2,3.0
Ti2GaTc,0.0,-0.021454,,2,3.0
BFe4Y,0.0,-0.0181846,,2,3.0
Tm3Ir2Tl3,0.0,-0.06501,,2,3.0
CoSbLa3,0.0,-0.0373513,,2,3.0
H8Mg2EuPt,0.0,-0.0137596,,2,3.0
O2NaNb,1.4135,-0.01486,,2,3.0
Rh7Ho,0.0,-0.0359844,,2,3.0
Ni2Se3Sn,0.0,-0.0217212,,2,3.0
NaCl6Rb2Er,5.0292,-0.0167381999999999,,2,3.0
CoZr4,0.0,-0.0281189999999999,,2,3.0
YPdPt2,0.0,-0.0513097,,2,3.0
InSb2Au,0.0,-0.044385,,2,3.0
Br2TeSm2,0.0,-0.0347192,,2,3.0
Al2NiRu,0.0,-0.0174933,,2,3.0
AlY6Bi2,0.0,-0.0375227999999999,,2,3.0
NiReIr2,0.0,-0.0575237,,2,3.0
FeHf2Re,0.0,-0.0540173,,2,3.0
BrLa2Pb2,0.0,-0.0525997,,2,3.0
LiAs2Rh2Eu,0.0,-0.0283121,,2,3.0
Ge2YTa2,0.0,-0.0404534999999999,,2,3.0
OCuTeDy,1.3356,-0.0286367,,2,3.0
TcIr3,0.0,-0.0622955,,2,3.0
CoDy6Tl2,0.0,-0.0502042,,2,3.0
Ga3Pd2Dy,0.0,-0.0278951,,2,3.0
Cu2Se3,0.0,-0.0181342,,2,3.0
Li3O5F3Mn3,0.1713,-0.0099024,,2,3.0
CSi3Y5,0.0,-0.0206507,,2,3.0
Al2MnRh,0.0,-0.0177012,,2,3.0
CuAs2Cs5,0.7895,-0.0309829,,2,3.0
MnLaPt2,0.0,-0.051491,,2,3.0
SiNi3Dy2,0.0,-0.0263465999999999,,2,3.0
Cl6Rb3Dy,5.1939,-0.0181472,,2,3.0
Al2IPr2,0.0,-0.0286359999999999,,2,3.0
Ga5OsPa,0.0,-0.0365966,,2,3.0
Ti2CoCu,0.0,-0.0164282,,2,3.0
Ni2ZrIn,0.0,-0.0245626,,2,3.0
P2S8Pd3,1.4906,-0.0154948,,2,3.0
Ge6Ir4Th,0.0218,-0.045563,,2,3.0
PS3Er4,0.0,-0.0322329,,2,3.0
K2CuBr6,0.0,-0.0174278,,2,3.0
O3MnZr,1.2489,-0.0165494999999999,,2,3.0
Be4SiRu,0.0,-0.0107984,,2,3.0
Al3Si2Zr3,0.0,-0.0175936999999999,,2,3.0
TiHg,0.0,-0.0423382999999999,,2,3.0
H2O5MnSe,0.5545,-0.0096835,,2,3.0
O8CoRbMo2,0.9025,-0.0151654,,2,3.0
Eu,0.0,-0.0537121,,2,3.0
NiSe4Pd2,0.0,-0.0234306,,2,3.0
MnAu4,0.0,-0.0592588,,2,3.0
Te2AuPb,0.0,-0.054985,,2,3.0
F6Cs3Ho,6.1961,-0.0218996999999999,,2,3.0
GeAgPu,0.0,-0.0536791,,2,3.0
Li2AgBa,0.0,-0.0190784999999999,,2,3.0
SiCu2Tb2,0.0,-0.0272512,,2,3.0
AsTePr,0.0983,-0.0349572,,2,3.0
PNiSe,0.0,-0.0158609,,2,3.0
H6Na3Fe,0.0,-0.0053295,,2,3.0
RuTaIr2,0.0,-0.0615882,,2,3.0
MnW8,0.0,-0.0639142,,2,3.0
Ag2NdTl,0.0,-0.0449775,,2,3.0
NaGa3,0.0,-0.013424,,2,3.0
S4TiMo2,0.0,-0.0187582,,2,3.0
GeRu3Tb2,0.0,-0.0367348,,2,3.0
In5CeAu,0.0,-0.0405120999999999,,2,3.0
CdSb2Pb,0.0,-0.0451631,,2,3.0
RhSn2Tb,0.0,-0.0389102,,2,3.0
Y4Sb3,0.0,-0.0330083,,2,3.0
Ge3AgTb2,0.0,-0.031014,,2,3.0
Be3Mn,0.0,-0.0080271,,2,3.0
HRh2,0.0,-0.0235774,,2,3.0
CoTm3,0.0,-0.0433243,,2,3.0
GaBrLu,0.0,-0.0316676,,2,3.0
Ga2Ag2Ce,0.0,-0.0283802999999999,,2,3.0
MgLa2Os,0.0,-0.0408982,,2,3.0
SiPrIr,0.0,-0.042576,,2,3.0
Ni4Ir3,0.0,-0.0396413,,2,3.0
ZnY2Hg,0.0,-0.034967,,2,3.0
F7Na3Rh,0.0,-0.008863,,2,3.0
Dy3Pt2Hg,0.0,-0.0598506,,2,3.0
ClBa2Pt,0.0,-0.0408789,,2,3.0
MgDy3,0.0,-0.0371159,,2,3.0
Pd7Np,0.0,-0.042288,,2,3.0
In5BaPt2,0.0,-0.0440302,,2,3.0
ICs2Au,2.8685,-0.0464393,,2,3.0
FeZr5,0.0,-0.0286033,,2,3.0
LiGa4Sr,0.0,-0.0154706,,2,3.0
Al5FeTh,0.0,-0.0220947999999999,,2,3.0
SrCd2Sb2,0.0,-0.0321145,,2,3.0
O3Y2,4.1185,-0.0188144999999999,,2,3.0
O6Ca2FeSb,0.0841,-0.0135771,,2,3.0
Co4ZnY,0.0,-0.018493,,2,3.0
SiAs2Rb2,0.9806,-0.0189293,,2,3.0
Li2GeSe4Sn,1.3163,-0.0182571,,2,3.0
Zr5Tm,0.0,-0.0342113999999999,,2,3.0
CaYCd,0.0,-0.0229026,,2,3.0
ScGaPt2,0.0,-0.0439508999999999,,2,3.0
Al3MnHo2,0.0,-0.0237921,,2,3.0
O4MnTm,0.2237,-0.0185672,,2,3.0
ZrI,0.0,-0.0343833,,2,3.0
Co4GaGe3,0.0,-0.0180274,,2,3.0
O6Eu2HoTa,0.0,-0.0294753,,2,3.0
Te2Er3,0.0,-0.0461086999999999,,2,3.0
ScNi,0.0,-0.0157321,,2,3.0
FeIGd,0.0,-0.038585,,2,3.0
O6AlBa2Ho,0.0,-0.0202584,,2,3.0
TbTl3,0.0,-0.0663143,,2,3.0
F7KCe2,0.0,-0.01619,,2,3.0
Pr3Tb,0.0,-0.0441535,,2,3.0
CdSn3,0.0,-0.0343589,,2,3.0
LiLaPt4,0.0,-0.0553978,,2,3.0
K2As2Bi,0.0,-0.0275269,,2,3.0
H3EuPt,0.0,-0.0274826,,2,3.0
Ge2Ag2Pr,0.0,-0.0293678,,2,3.0
MgAl2Lu2,0.0,-0.0265551999999999,,2,3.0
Li4KCa,0.0,-0.0045105,,2,3.0
CSi2Mn2Pr2,0.0,-0.0224257,,2,3.0
Na2Rb2Hg,0.0,-0.0236704,,2,3.0
YZr2Cd,0.0,-0.0300222,,2,3.0
Li4As2Sr,0.8135,-0.0112859,,2,3.0
NiZr2Au,0.0,-0.0373039,,2,3.0
Rh3Hf2,0.0,-0.046261,,2,3.0
F8Na2SrBa,0.0,-0.0111483,,2,3.0
BeN2Sn,1.2519,-0.0151443999999999,,2,3.0
H3DyPt,0.0,-0.0263928,,2,3.0
Al4ZrTa2,0.0,-0.0282419,,2,3.0
Pt3Pb2,0.0,-0.0725036999999999,,2,3.0
LiO8Fe4Zn,0.0186,-0.0115149,,2,3.0
LiFeRh2,0.0,-0.022244,,2,3.0
PZr2Sb,0.0,-0.0285216,,2,3.0
Co4Ge6Ce,0.0,-0.021108,,2,3.0
Ga5SmIr,0.0,-0.0288547,,2,3.0
Zn3SrAu2,0.0,-0.0340334,,2,3.0
Ga3Ge2RhPa3,0.0,-0.0471384,,2,3.0
AlNiCu,0.0,-0.0134747,,2,3.0
Li4O10V3Cr2,0.0,-0.0109447,,2,3.0
P4CaPd2,0.0,-0.0173201,,2,3.0
HSc3Tl,0.0,-0.024175,,2,3.0
AlP2S7Rb,2.5275,-0.0113828,,2,3.0
O12MgSi4Cu2,0.9312,-0.0102771,,2,3.0
FeIHo,0.0,-0.035316,,2,3.0
Ca3Pd,0.0,-0.0158981,,2,3.0
O4NaCu3,0.0,-0.0102436,,2,3.0
Mg3Al3Si2Cu,0.0,-0.0083127,,2,3.0
Ag2Sm2Tl,0.0,-0.0452028,,2,3.0
Zn2SrAu2,0.0,-0.0381621,,2,3.0
B2CeIr3,0.0,-0.0462541999999999,,2,3.0
B6Mn2Pr,0.0,-0.0143666,,2,3.0
NiZr2Sb2,0.0,-0.0311237,,2,3.0
GaIr8,0.0,-0.0650096,,2,3.0
P2Zn3,0.2358,-0.012496,,2,3.0
Mn2Hf,0.0,-0.0332818,,2,3.0
LiP2Cu2Ba,0.0,-0.0161835,,2,3.0
N2SmDy,0.0,-0.0295848,,2,3.0
PdIn2Gd,0.0,-0.0403382999999999,,2,3.0
AlDyPt2,0.0,-0.0504012,,2,3.0
Ru2ILa2,0.0,-0.039252,,2,3.0
F2NaAg,1.3266,-0.0126738,,2,3.0
Al5EuIr2,0.0,-0.0301988999999999,,2,3.0
CdPr3,0.0,-0.0402716,,2,3.0
LiP2Pt2Pu,0.0,-0.0464852,,2,3.0
CaSbAu,0.0,-0.0396972,,2,3.0
NAlLa3,0.0,-0.0301701,,2,3.0
CoY6Tl2,0.0,-0.0369232,,2,3.0
Ni5Ir4,0.0,-0.0405385,,2,3.0
O4Cu2Se2TbBi2,0.0,-0.0286755,,2,3.0
Cl3GeHo3,0.0,-0.0288488,,2,3.0
F6ZnPu,0.4475,-0.0212791999999999,,2,3.0
O7P2CuCd,0.0,-0.0119884,,2,3.0
O3K2Ti,3.4202,-0.0112328,,2,3.0
H5Sc2,0.0,-0.007107,,2,3.0
F6Rb3Zr,0.0,-0.0146618,,2,3.0
NiLaTl,0.0,-0.0442875,,2,3.0
Ag7In,0.0,-0.0316415,,2,3.0
BrTe2Pt,0.0,-0.0415493,,2,3.0
P2NdPt2,0.0,-0.042094,,2,3.0
RuEr2Ir,0.0,-0.0525019,,2,3.0
NTb3Pb,0.0,-0.0462521,,2,3.0
SbPrTb,0.0,-0.0434075,,2,3.0
ZnGaAu2,0.0,-0.042189,,2,3.0
P2CrY,0.0,-0.0179059,,2,3.0
Si2LaIr2,0.0,-0.0422508,,2,3.0
N2Cr,0.7207,-0.0127482,,2,3.0
IrPtAc2,0.0,-0.08143,,2,3.0
Ga5RuU,0.0,-0.0317912,,2,3.0
B6Ni2Er,0.0,-0.0145613,,2,3.0
AlAgLu,0.0,-0.0319832,,2,3.0
O7K2PrTa2,0.0,-0.022686,,2,3.0
NbTc2Ta,0.0,-0.0429696,,2,3.0
BrRuHo,0.0,-0.0355404,,2,3.0
S4VCu3,1.0463,-0.0134,,2,3.0
O6K2Fe2Te,0.0,-0.0130887,,2,3.0
NaCl6Rb2Dy,5.0051,-0.0164784,,2,3.0
NOIn2Dy6,0.0,-0.0383402,,2,3.0
O4Sb2ILu,0.8629,-0.0260212,,2,3.0
MgBr4Cs2,3.7798,-0.0245212,,2,3.0
RbSrI3,3.483,-0.032385,,2,3.0
Al2HoIr,0.0,-0.0349229,,2,3.0
BeCo2Ta,0.0,-0.026666,,2,3.0
SCuAg,0.1398,-0.0188836,,2,3.0
Ti2CuGa,0.0284,-0.016272,,2,3.0
Si4Mn3,0.0,-0.0139036,,2,3.0
S8Mo6Bi,0.0,-0.0250086,,2,3.0
Sr2Au,0.0,-0.0386044,,2,3.0
O6CaSnTm2,3.8272,-0.0218022,,2,3.0
O6NaEr2W,0.0785,-0.0241515,,2,3.0
CSc4Br5,0.0,-0.0180057,,2,3.0
ScMo4,0.0,-0.0307104999999999,,2,3.0
PIHg2,0.4321,-0.0459713,,2,3.0
MgSrTl,0.0,-0.0336888,,2,3.0
NaAuBi2,0.0,-0.0578375,,2,3.0
O4CaSrPb,1.5091,-0.0212326,,2,3.0
HSeGd,0.3463,-0.029033,,2,3.0
V5Se4,0.0,-0.0193395,,2,3.0
FeCo2Lu3,0.0,-0.0366167,,2,3.0
O6YTeBa2,0.0,-0.020838,,2,3.0
PCuDy,0.0,-0.025577,,2,3.0
O2YTl,1.5058,-0.0307659999999999,,2,3.0
AlTiOs2,0.0,-0.0426919,,2,3.0
Zn2RhIn,0.0,-0.0238175999999999,,2,3.0
Al8Zn,0.0,-0.0083909,,2,3.0
H4RhPr,0.0,-0.0157496,,2,3.0
HO6Mn3,0.0,-0.0115086999999999,,2,3.0
Ga2RbPb2,0.0,-0.0411579,,2,3.0
MnPt2Th,0.0,-0.0647729,,2,3.0
CuZr2Tl,0.0,-0.0374226999999999,,2,3.0
TiFeGaRh,0.0,-0.0217848,,2,3.0
F6Rb3Y,6.1894,-0.0146532,,2,3.0
AlTmPt,0.0,-0.044695,,2,3.0
Fe4RePt,0.0,-0.0356398,,2,3.0
LiO6Ca2Re,1.9949,-0.0155183,,2,3.0
Li8Al3,0.0,-0.0039516,,2,3.0
GeRhTe,0.1612,-0.0305366,,2,3.0
MnGeY,0.0,-0.0224120999999999,,2,3.0
Cl3InNd3,0.0,-0.0285127,,2,3.0
B5Fe3Tb2,0.0,-0.0189188,,2,3.0
Si2CoPa6,0.0,-0.0708949,,2,3.0
OAsRuLu,0.0,-0.0312423,,2,3.0
Mg4Ca2Zn,0.0,-0.0076006,,2,3.0
Si2SmAu2,0.0,-0.0413063999999999,,2,3.0
NZnHo3,0.0,-0.0349089999999999,,2,3.0
Mg2AsAu,0.0,-0.0254361,,2,3.0
Te2CsHf,0.0,-0.0446828,,2,3.0
Cl6RbCs2Pr,4.8918,-0.0211043,,2,3.0
Sc3FeLa,0.0,-0.0207739,,2,3.0
GeSe2TePb2,0.4772,-0.0417054,,2,3.0
F6ScIn,5.9264,-0.0120512,,2,3.0
ZrPtPb,0.8482,-0.0599123,,2,3.0
AlZr2Ir,0.0,-0.0358575,,2,3.0
H4O6Ag2Te,0.6379,-0.0124872,,2,3.0
NiSnTe,0.0,-0.0300006,,2,3.0
CGe2Ru2Dy2,0.0,-0.0312935,,2,3.0
Mg2Sr,0.0,-0.0108564,,2,3.0
Mg2CaRh,0.0,-0.013792,,2,3.0
Mg2ErAu,0.0,-0.0330344,,2,3.0
F6Cs2Nd,0.0,-0.0188411,,2,3.0
Sr2Hg3,0.0,-0.0504207,,2,3.0
CuDy2Pt,0.0,-0.046198,,2,3.0
BFeNi,0.0,-0.0141754,,2,3.0
O7CuNb2ILa,0.0,-0.0195841,,2,3.0
Ga2Ag2Ho,0.0,-0.0292515,,2,3.0
NFTh,2.243,-0.0393519,,2,3.0
S3K2Tb,0.0,-0.0169838,,2,3.0
Cu2Ga2Hf,0.0,-0.0254563999999999,,2,3.0
Ba2PtTl,0.0,-0.0560525,,2,3.0
F6RbRuCs2,0.0,-0.0178253,,2,3.0
Fe2Nd,0.0,-0.0264908,,2,3.0
Ag2InLa,0.0,-0.0352219,,2,3.0
Cl6RbCs2Nd,4.9091,-0.0211376,,2,3.0
Ta3Au,0.0,-0.0673897,,2,3.0
AsCd8,0.0,-0.0292134,,2,3.0
Y2InLa,0.0,-0.0333836,,2,3.0
RhTa2Re,0.0,-0.0599538,,2,3.0
NiZnY2,0.0,-0.0217647,,2,3.0
LiMg2Zn,0.0,-0.0066348,,2,3.0
Li3OF7Co3,0.0882,-0.0088381,,2,3.0
O6NaHf2Bi,3.2022,-0.0274319999999999,,2,3.0
H3LaAu,0.0,-0.0250860999999999,,2,3.0
NaK3,0.0,-0.0072874,,2,3.0
ZnBa3,0.0,-0.0331344,,2,3.0
O4NdHo,2.1806,-0.0226612,,2,3.0
NaBr3Pu,0.0,-0.0360308,,2,3.0
PtU,0.0,-0.087669,,2,3.0
O6PdPt3,0.0,-0.0286641,,2,3.0
OGaBr4Nb,0.7978,-0.0202618,,2,3.0
TiSb5Pr3,0.0,-0.0379422,,2,3.0
ScCuZn,0.0,-0.0147219,,2,3.0
OFS4La2Bi2,0.0,-0.0311601,,2,3.0
Cl6K2Sn,2.3345,-0.0127754999999999,,2,3.0
Zn2DyEr,0.0,-0.0317178,,2,3.0
Al2TaIr,0.0,-0.0390763,,2,3.0
SiCeAu2,0.0,-0.0489493,,2,3.0
CaAu2Th,0.0,-0.0618371,,2,3.0
O3CrGa,1.1836,-0.0129488,,2,3.0
Ca2MnIr2,0.0,-0.0364846,,2,3.0
LiP2CeAu2,0.0,-0.0352093,,2,3.0
Sc3MnNi2,0.0,-0.0159035,,2,3.0
CaZnBi2,0.0,-0.0455024,,2,3.0
O5Mn2BaTb,0.0,-0.019934,,2,3.0
C4FeLu3,0.0,-0.0284752,,2,3.0
PdInPm2,0.0,-0.0392056,,2,3.0
H6Eu2Os,0.0622,-0.0228936,,2,3.0
Be2Pd2Au,0.0,-0.0291935,,2,3.0
NSbLa3,0.0,-0.0363975,,2,3.0
SiMn2Y,0.0,-0.018991,,2,3.0
CoSn2La,0.0,-0.0335418,,2,3.0
K2GaPt2,0.0,-0.0350379,,2,3.0
O2CsTl,0.7358,-0.0317136,,2,3.0
LiLu2Au,0.0,-0.0461739,,2,3.0
LiGa2Sn2,0.0,-0.0214202,,2,3.0
Te2Ho6Os,0.0,-0.0497438999999999,,2,3.0
H2CTm2,0.0,-0.0248496,,2,3.0
BPd4Pr,0.0,-0.030997,,2,3.0
F6SrGd,0.0,-0.0162684999999999,,2,3.0
Li2P2S6Ni,0.4941,-0.0097936999999999,,2,3.0
ScGa2La,0.0,-0.0231234,,2,3.0
AlYSn,0.0,-0.0244403,,2,3.0
Co3Nb,0.0,-0.0212415,,2,3.0
O6Sr2ZrRu,0.0,-0.0175914,,2,3.0
O8K2V2RbHo,3.333,-0.0150627,,2,3.0
In3Sn2,0.0,-0.0342689,,2,3.0
Na2Pt,0.0,-0.0264458,,2,3.0
Cl3GaSm3,0.0,-0.026552,,2,3.0
Sb2Cs4Hg,0.8149,-0.0425713,,2,3.0
KPt4Tl,0.0,-0.0604319,,2,3.0
AlAgEr2,0.0,-0.0353335,,2,3.0
PCrFe,0.0,-0.0161558999999999,,2,3.0
RuIn5Eu,0.0,-0.0368410999999999,,2,3.0
Al3Ce2Pt,0.0,-0.0313451,,2,3.0
ZnZrPt2,0.0,-0.0471945,,2,3.0
NO3Na3Mo,3.5899,-0.011174,,2,3.0
Ca4Pt,0.0,-0.0222509,,2,3.0
Si2OsNp,0.0,-0.0500201,,2,3.0
NiGe3Pr,0.0,-0.0240301,,2,3.0
SiZnIr,0.0,-0.032064,,2,3.0
CrGa5Ce,0.0,-0.0210508999999999,,2,3.0
KSn4,0.0,-0.030547,,2,3.0
AlCo2Dy2,0.0,-0.02791,,2,3.0
S8CoCu2Sn3,0.0,-0.0170357999999999,,2,3.0
KErF4,6.6748,-4.031674046300925,mp-1201270,2,3.0
OAsPrIr,0.0,-0.0372275,,2,3.0
AlCo2Ho2,0.0,-0.0284069,,2,3.0
InTm2Pb,0.0,-0.0537409,,2,3.0
Mg2ScGd,0.0,-0.0208007,,2,3.0
In2LuIr,0.0,-0.0489724999999999,,2,3.0
GaBr3Cs,0.0,-0.0237491999999999,,2,3.0
Ca2GeIr2,0.0,-0.0369149999999999,,2,3.0
Rb2PdSb,0.0,-0.0283,,2,3.0
Li2RbAu2,0.0,-0.0332227,,2,3.0
NaZn,0.0,-0.0088312,,2,3.0
CoRu,0.0,-0.0258799,,2,3.0
H8Mg2CrLu,0.0,-0.0095767,,2,3.0
H8N2O,4.4355,-0.0053092,,2,3.0
Cl6AsRb2,0.0,-0.0135553,,2,3.0
CBrLu,0.0,-0.0295175,,2,3.0
Er3Pt4,0.0,-0.0631364,,2,3.0
O6ZrBa2Tl,0.0,-0.0244683,,2,3.0
Ni2InPm,0.0,-0.0277842,,2,3.0
GeRuTb,0.0,-0.0343829,,2,3.0
S2ZnCsAu,1.78,-0.0288827,,2,3.0
Cu3Pt2Np,0.0,-0.0490696,,2,3.0
PGaPt5,0.0,-0.0544556,,2,3.0
Ga2Tb3Pt4,0.0,-0.0516622,,2,3.0
Sb2Os,0.3732,-0.0489055,,2,3.0
Co2TlTh2,0.0,-0.0599935,,2,3.0
NY2Tl,0.0,-0.0355737,,2,3.0
RhTm,0.0,-0.0439121,,2,3.0
NSc2Zn,0.0,-0.0141031,,2,3.0
BeRh2In2,0.0,-0.0281734,,2,3.0
CMgHf3,0.0,-0.0409659,,2,3.0
FeW2Pt,0.0,-0.0569786,,2,3.0
Al8ScLa3,0.0,-0.0176267999999999,,2,3.0
O11Cd2Bi6,0.9155,-0.0326596,,2,3.0
LiCl3Cs2,5.1981,-0.0191265,,2,3.0
B2N3Ni2Pr3,0.0,-0.0216784,,2,3.0
HBeN,3.2174,-0.0066243,,2,3.0
Sc4Y5,0.0,-0.0217,,2,3.0
Si3SrPd,0.0,-0.0175704,,2,3.0
F6CdOs,0.0,-0.0173835,,2,3.0
GeYAu2,0.0,-0.0471728,,2,3.0
Ge3BaIr,0.0,-0.0342017,,2,3.0
O9AlBi3,0.2763,-0.0241513,,2,3.0
O8P2LaPu,0.0637,-0.0217704,,2,3.0
GaY2Ir2,0.0,-0.0439093,,2,3.0
Na2CsBa,0.0,-0.0213682,,2,3.0
Cd2SbPb2,0.0,-0.0498287,,2,3.0
N2OSi2,4.9317,-0.0108458,,2,3.0
MgGeEu2,0.0,-0.0332574,,2,3.0
RuInLa,0.0,-0.0375014,,2,3.0
P2YCd2,0.0,-0.0224766,,2,3.0
As2AuHg,0.0,-0.0444783,,2,3.0
NaSr2Sn,0.0,-0.0216261,,2,3.0
BRh3Lu,0.0,-0.0337617,,2,3.0
CaNi6Sb4,0.0,-0.0235141,,2,3.0
P4Pd2Eu,0.0,-0.0236794,,2,3.0