formula,bg,formation_energy,mp-id,fidelity,bg_category
Al8Cr5,0.0,-0.0119568,,2,3.0
NiRbSb,0.0,-0.0249678,,2,3.0
Cd2ErAu,0.0,-0.0456738,,2,3.0
CoInEr,0.0,-0.0340069,,2,3.0
F2KI,1.568,-0.0149938,,2,3.0
ZnTc,0.0,-0.0243577,,2,3.0
Li2SnHg2,0.0,-0.0356933,,2,3.0
S3ZnRbIn,1.6813,-0.0170904999999999,,2,3.0
CdSb2Tl2,0.0,-0.0499026,,2,3.0
RbCs2Au2,0.0,-0.0472239,,2,3.0
SrYLa2,0.0,-0.033989,,2,3.0
O5S2Zr2Eu2,0.0,-0.0230141,,2,3.0
LiSiFe2,0.0,-0.0123371,,2,3.0
PRu2Cd2,0.0,-0.028362,,2,3.0
NiSn2Ba,0.0,-0.0324105,,2,3.0
ScCuIn,0.0,-0.0214324,,2,3.0
RuIn3Sn2Sm3,0.0,-0.038503,,2,3.0
OBr2Ru,0.0,-0.0206497,,2,3.0
F2In2Hg,0.0,-0.0298229,,2,3.0
RhSmPt2,0.0,-0.0555067,,2,3.0
Ca2CdLa,0.0,-0.0234055,,2,3.0
CPRu2Dy,0.0,-0.0283612,,2,3.0
CuRh2Ho3,0.0,-0.0390803,,2,3.0
AlZnAu2,0.0,-0.0403392,,2,3.0
ErAu,0.0,-0.0609082,,2,3.0
O3FeLa,0.0,-0.0187148,,2,3.0
SiTeTa,0.0,-0.0382956999999999,,2,3.0
MnZr6Sb2,0.0,-0.0313414,,2,3.0
Al5Ni2Y,0.0,-0.0130239,,2,3.0
Fe2Tc,0.0,-0.0237673999999999,,2,3.0
Zn2As2La,0.0,-0.0228594,,2,3.0
O6NiLa2Pt,0.3265,-0.0234471999999999,,2,3.0
Co4NdTb,0.0,-0.0266244,,2,3.0
SrBa3,0.0,-0.0352248,,2,3.0
Ge3LaHf,0.0,-0.0333819999999999,,2,3.0
LiZrTl2,0.0,-0.0447335,,2,3.0
O4Ba2Ce,2.4604,-0.0244624,,2,3.0
O6CoAs2,0.1446,-0.0118979,,2,3.0
Ga2BrBi2,0.0,-0.041987,,2,3.0
Ni2Er3Au,0.0,-0.0427521,,2,3.0
Ge4Tb3Ir4,0.0,-0.0465446,,2,3.0
IrPt7,0.0,-0.0702247,,2,3.0
HNi,0.0,-0.009822,,2,3.0
Ca2RhIr2,0.0,-0.0395726999999999,,2,3.0
Rh2WAu,0.0,-0.0517175,,2,3.0
O6CaInTe,0.0,-0.0147714,,2,3.0
Si2NiTa2,0.0,-0.0344953,,2,3.0
Ca2RhHg,0.0,-0.0308309,,2,3.0
O14Dy2Bi7,0.0,-0.0335120999999999,,2,3.0
Be2Ta3,0.0,-0.0418446,,2,3.0
O4NiSr2,0.0,-0.0144894999999999,,2,3.0
H2GaNb2,0.0,-0.0181466,,2,3.0
RhRe2Pt,0.0,-0.0617113,,2,3.0
CdCs2Hg,0.0,-0.0436497,,2,3.0
P4Mo5,0.0,-0.024535,,2,3.0
MnAsPt5,0.0,-0.0561409,,2,3.0
LiO2In,1.921,-0.0139911999999999,,2,3.0
Co2Ho,0.0,-0.0280182,,2,3.0
MgP2,1.2297,-0.0090621,,2,3.0
Li2Ga2Ag,0.0,-0.0140089,,2,3.0
ZnGaSr,0.0,-0.01782,,2,3.0
In3Sn2Lu3Pt,0.0,-0.0460732,,2,3.0
Y2ZrIn,0.0,-0.0302091,,2,3.0
Mn4TcRu,0.0,-0.0237550999999999,,2,3.0
Na2S2Pt,1.0726,-0.0206144,,2,3.0
LiO4VCu,0.1132,-0.0106357,,2,3.0
HSZr,0.0,-0.0157542,,2,3.0
O6Ca2TiSb,0.0,-0.0137755,,2,3.0
HO3SeRb,4.1662,-0.0118179,,2,3.0
S3CaCuSr,0.0,-0.014277,,2,3.0
Li2NiCd,0.0,-0.0129122,,2,3.0
C4FeDy3,0.0,-0.0255195,,2,3.0
Sc2CoGa8,0.0,-0.016578,,2,3.0
S6CoTa2,0.0,-0.0240072,,2,3.0
CaSe3AgHo,1.2203,-0.0266548,,2,3.0
Li2O8V3Cu,0.0,-0.0110385,,2,3.0
CuBrBa2,0.0,-0.0293107,,2,3.0
B2Cr2Mn,0.0,-0.014421,,2,3.0
S2RbHo,2.1253,-0.0243707999999999,,2,3.0
CCe2Pb,0.0,-0.0441727,,2,3.0
Br2SbNd2,0.0,-0.0343765,,2,3.0
Co2InLa2,0.0,-0.0310786,,2,3.0
SeSb2Pb,0.046,-0.0427922,,2,3.0
RuPd2Nd3,0.0,-0.0391612,,2,3.0
O2BrCdSb,2.0312,-0.0211973,,2,3.0
LiSi2Os2,0.0,-0.0335849,,2,3.0
PdOsTh2,0.0,-0.0745814,,2,3.0
AsZrPt5,0.0,-0.0582402999999999,,2,3.0
AlNi2Pr,0.0,-0.0213843999999999,,2,3.0
I2PbPu2,0.0,-0.0743499,,2,3.0
NaK2SbI6,1.8477,-0.0288426,,2,3.0
Cu4GaLu,0.0,-0.0224272999999999,,2,3.0
LiGa4Pr,0.0,-0.0191236,,2,3.0
NAlTa3,0.0,-0.0439979,,2,3.0
NCa2CoCd,0.0,-0.0157702,,2,3.0
Li3As2Sr,0.0,-0.0125251,,2,3.0
Li2O3Os,0.0969,-0.0175281999999999,,2,3.0
Cu2Zr3Cd,0.0,-0.0256309,,2,3.0
Al2PdAu,0.0,-0.0301341,,2,3.0
BY3Tl,0.0,-0.0330878999999999,,2,3.0
CSNd2,0.0,-0.0280103,,2,3.0
H6AlNd,1.925,-0.0093949,,2,3.0
NiErHg,0.0,-0.0453858,,2,3.0
CGaTm2,0.0,-0.0330303,,2,3.0
MnIn5Tb,0.0,-0.0334781,,2,3.0
ScIr7,0.0,-0.0644018,,2,3.0
SiFeCo2,0.0,-0.0161515,,2,3.0
Ti2Ge2Rh,0.0,-0.0216036,,2,3.0
Ca7Sr,0.0,-0.0112268,,2,3.0
N2CaIn2,0.4691,-0.0194767,,2,3.0
HoTl2Th,0.0,-0.0727202,,2,3.0
LiO6MoDy2,0.0,-0.0200266,,2,3.0
CaCd2Th,0.0,-0.041834,,2,3.0
Na2SiS4Fe,0.0,-0.0103842,,2,3.0
B2Pd7Pr3,0.0,-0.0318914,,2,3.0
GeTe4Lu,0.0,-0.0377925,,2,3.0
AlHoPt2,0.0,-0.0507115,,2,3.0
O4K3Ru,0.4091,-0.012038,,2,3.0
F6CdBa2,3.9357,-0.0179938,,2,3.0
Fe4InTa,0.0,-0.0287914999999999,,2,3.0
Al4NiU,0.0,-0.0254154,,2,3.0
Ga2Nd3,0.0,-0.0332661999999999,,2,3.0
N2CrZn,0.0,-0.0130926,,2,3.0
Al3Si2PdEr3,0.0,-0.0261136,,2,3.0
MnSe4Ta,0.0,-0.0282230999999999,,2,3.0
F5Cr,0.3335,-0.0082926,,2,3.0
As2SnBa2,0.0,-0.0319903,,2,3.0
Co2Y2Sn,0.0,-0.0256805999999999,,2,3.0
F6K2Pt,2.4813,-0.0143534,,2,3.0
CaLa2Hg2,0.0,-0.0470615999999999,,2,3.0
MgRh2Ta,0.0,-0.0354711,,2,3.0
O6AlBa2Pu,0.0,-0.0265444,,2,3.0
BaPt2,0.0,-0.0608654999999999,,2,3.0
AgLu2Pb,0.0,-0.0549161,,2,3.0
AlEr,0.0,-0.02949,,2,3.0
S3NiBaHf,0.0,-0.0262223,,2,3.0
NiGeBa,0.0,-0.0254385,,2,3.0
O2F2Co,0.0848,-0.0085295,,2,3.0
Tc2SbU,0.0,-0.0527556,,2,3.0
PCoLu,0.0,-0.0287666,,2,3.0
O4MgIn2,1.368,-0.0159279,,2,3.0
HTi3Ga,0.0,-0.0140650999999999,,2,3.0
FSeGd,0.6188,-0.0305653,,2,3.0
O4NbTa,0.0,-0.0235096,,2,3.0
S2Pd3,0.0,-0.0237872999999999,,2,3.0
Ge2Pd2Pa,0.0,-0.0413236,,2,3.0
Fe2CoY,0.0,-0.0203657,,2,3.0
Te2Au,0.0,-0.0480538,,2,3.0
LiCaSn2,0.0,-0.0214576,,2,3.0
POsU,0.0,-0.0625379,,2,3.0
AgSbU,0.0,-0.0574192,,2,3.0
AlErHg2,0.0,-0.0490593,,2,3.0
HCs3Pb,0.0,-0.0386784,,2,3.0
CdEr2Os,0.0,-0.0511539,,2,3.0
AlCl4Cs,5.2556,-0.0149062,,2,3.0
O6PdCdPr2,1.629,-0.0210027,,2,3.0
RhSnTh,0.0,-0.0562096,,2,3.0
Al2GaZr,0.0,-0.0161827,,2,3.0
AlSr2Ag,0.0,-0.0210779,,2,3.0
Be2Hf2Os,0.0,-0.0416363,,2,3.0
N2VSr,0.1281,-0.0158881,,2,3.0
RuRhW2,0.0,-0.0520683999999999,,2,3.0
Sc3CoLa,0.0,-0.0207238,,2,3.0
Na2RbCd,0.0,-0.014872,,2,3.0
O4MnSm,0.3625,-0.0172925,,2,3.0
S4SrPr2,1.9393,-0.0234584,,2,3.0
O2Cs2,1.7052,-0.0231986,,2,3.0
B2N3Sc3Ni2,0.0,-0.0132295,,2,3.0
SiSc2Cu,0.0,-0.0140244,,2,3.0
BPd3Eu,0.0,-0.0324285,,2,3.0
Li2SrPb,0.0,-0.0262542,,2,3.0
Dy3Tm,0.0,-0.0487832999999999,,2,3.0
Y2InIr2,0.0,-0.0471946,,2,3.0
CdTbPt,0.0,-0.0501753,,2,3.0
CCdHf2,0.0,-0.0421037,,2,3.0
B4TbTa,0.0,-0.0245181,,2,3.0
F7NaTm2,7.0508,-0.0173973,,2,3.0
AlTe2Au,0.5806,-0.0382123,,2,3.0
Al3FeZr3Sn2,0.0,-0.023322,,2,3.0
Pd4Ba3Pb4,0.0,-0.0508338,,2,3.0
Zn3PrAu2,0.0,-0.0376295,,2,3.0
H2Mg2Ge,0.0,-0.0073574,,2,3.0
Sc2Zn2Ga,0.0,-0.0148838,,2,3.0
HTm,0.0,-0.0282141,,2,3.0
SINd,2.6398,-0.0319966,,2,3.0
B2N3Fe2Ce3,0.0,-0.022469,,2,3.0
Zr2Sb2Bi,0.0,-0.0434521999999999,,2,3.0
Se2IPt,0.0,-0.0370002,,2,3.0
CrCo2Os,0.0,-0.0311268,,2,3.0
GaRu2W,0.0,-0.0390907,,2,3.0
ZnGd2Au,0.0,-0.0507379,,2,3.0
NaSn2Bi2,0.0,-0.0467303,,2,3.0
LiP2Co2Nd,0.0,-0.0177669999999999,,2,3.0
Si3Fe2Er3,0.0,-0.0277899,,2,3.0
Rb2Cd2Tl,0.0,-0.0349711,,2,3.0
TcOsPt2,0.0,-0.0619337,,2,3.0
AlCaAg4,0.0,-0.0239461,,2,3.0
MnCoNiGa,0.0,-0.0174705,,2,3.0
RhIn5Pr3,0.0,-0.0374883,,2,3.0
MgMn2Zr3,0.0,-0.0223186,,2,3.0
N2UNp,0.0,-0.0584684,,2,3.0
KGa9Ir2,0.0,-0.0252049,,2,3.0
Ni2Ru3Th,0.0,-0.0389645,,2,3.0
NaCu2As2Pr,0.0,-0.0204652,,2,3.0
Se2SnTl,0.0,-0.0374752,,2,3.0
Rb2Sb2Tl,0.0,-0.0380135,,2,3.0
Li2Mg3Si2,0.0134,-0.0059034,,2,3.0
KTe3Pt2,0.4277,-0.0441462,,2,3.0
Pm2MgS4,1.2669,-2.128847990178571,mp-1232275,2,3.0
BGa2Ru2Ce,0.0,-0.0264019,,2,3.0
Cl6K2CuBi,0.9285,-0.0171859,,2,3.0
NTi3Hg,0.0,-0.0261787,,2,3.0
ZnSnBi2,0.0,-0.0515876,,2,3.0
Si3CoLa,0.0,-0.0187222,,2,3.0
Ag8Au,0.0,-0.0355941,,2,3.0
ScGe3La,0.0,-0.0237065,,2,3.0
H3O10Cu2Se2Rb,0.2872,-0.0101194,,2,3.0
S2KAgCd,1.9828,-0.0186564,,2,3.0
Al2Rh3Nd,0.0,-0.0277994,,2,3.0
P2YRu2,0.0,-0.0248109,,2,3.0
Na4As2Ba,0.5487,-0.0145399999999999,,2,3.0
Ni2CuPt,0.0,-0.0295356,,2,3.0
BaPb5,0.0,-0.0700409999999999,,2,3.0
CrSn4Pt2,0.0,-0.0436334,,2,3.0
AgCd2Pt,0.0,-0.0408329,,2,3.0
ClMn2Pr2,0.0,-0.0268784,,2,3.0
SiNi2Er,0.0,-0.0239239,,2,3.0
O4Ca3Zn,2.9592,-0.0111758,,2,3.0
GaTaOs2,0.0,-0.0571296,,2,3.0
AlMnZr2,0.0,-0.0221632,,2,3.0
MgAlGd2,0.0,-0.0328604,,2,3.0
Ru2WPt,0.0,-0.052615,,2,3.0
Li5As3,0.0,-0.0096312,,2,3.0
AlFeHfPt,0.0,-0.0406163,,2,3.0
PGdIr,0.0,-0.0480706,,2,3.0
KCdTl4,0.0,-0.054683,,2,3.0
Ge2RhNd3Tl3,0.0,-0.0473091,,2,3.0
FeSm6Tl2,0.0,-0.0479489,,2,3.0
F8ScCu2,0.0,-0.0091492,,2,3.0
LiNi2As2Er,0.0,-0.0217753,,2,3.0
Ta4W5,0.0,-0.0683919,,2,3.0
N2Lu3,0.0,-0.0386409999999999,,2,3.0
Al3Si2NiHf3,0.0,-0.0281659,,2,3.0
O6Ti2Hf,2.7207,-0.0181108,,2,3.0
MgTaOs2,0.0,-0.0541672999999999,,2,3.0
KNiCd3,0.0,-0.0231694,,2,3.0
MgPd2Pr2,0.0,-0.0322055,,2,3.0
Rh2SbEr,0.0,-0.0396243,,2,3.0
SiCr3Fe3As2,0.0,-0.0180326,,2,3.0
Li3O8Si2Mn2,0.0,-0.0100782,,2,3.0
RhPd2Th,0.0,-0.0497336,,2,3.0
Sc2InTl,0.0,-0.0340867,,2,3.0
Se4CdLa2,1.0779,-0.0298901,,2,3.0
LiZrPt2,0.0,-0.0444538,,2,3.0
Cl6Cs2Ir,0.0,-0.0230224,,2,3.0
NaKTe,1.9922,-0.0177637,,2,3.0
Sn2DyTl,0.0,-0.0484309999999999,,2,3.0
Cu4CdSm,0.0,-0.0228536,,2,3.0
CoIn2Er,0.0,-0.0339078,,2,3.0
Al2FeNp,0.0,-0.0353173,,2,3.0
ONi,0.0,-0.0124221,,2,3.0
Ga2RuNd6,0.0,-0.0369749,,2,3.0
LiO4PCu,0.4788,-0.0096236,,2,3.0
GeSe3Th4,0.0,-0.0593010999999999,,2,3.0
CeHoAu2,0.0,-0.0588836,,2,3.0
NTb2,0.0,-0.0354994,,2,3.0
Co2In3Nd3,0.0,-0.0335591,,2,3.0
MnAs2Y6,0.0,-0.0258382,,2,3.0
Sb8Te3,0.0,-0.037299,,2,3.0
CuGaI4,1.6154,-0.0301417,,2,3.0
Sn2Lu,0.0,-0.0429639999999999,,2,3.0
CAsNd3,0.0,-0.0329744,,2,3.0
ZrCd2Hf,0.0,-0.0386405,,2,3.0
H6CrSr2,0.0,-0.009807,,2,3.0
KCrSe2,0.8197,-0.0178705,,2,3.0
P2Fe2Pu,0.0,-0.0339908,,2,3.0
B7MnTb3,0.0,-0.0197807999999999,,2,3.0
Li4SrIn,0.0,-0.0110752,,2,3.0
MgCeAu2,0.0,-0.0478142,,2,3.0
SCrPd5,0.0,-0.0276234,,2,3.0
Sc6As2Os,0.0,-0.0228699,,2,3.0
SiBrDy,0.0,-0.0270574,,2,3.0
F8NaCaYCd,5.1494,-0.0120059,,2,3.0
SiGaSe3,0.7758,-0.0177897999999999,,2,3.0
CuZn2Sr,0.0,-0.0163682,,2,3.0
NFPr2,0.0,-0.0270748,,2,3.0
O3BaEr,0.0,-0.0247521,,2,3.0
SiHo2Pt2,0.0,-0.0510324,,2,3.0
CrHo6Bi2,0.0,-0.0526262,,2,3.0
Sr5Ir,0.0,-0.0304436,,2,3.0
Al3CoGe2Nd3,0.0,-0.0239826,,2,3.0
F4NaBa,0.0,-0.0125496,,2,3.0
MgSc2Sn2,0.0,-0.0216536,,2,3.0
CNd2,0.0,-0.0326087,,2,3.0
Ni2CuLa,0.0,-0.0229065,,2,3.0
Mg3Bi2,0.0,-0.0346623,,2,3.0
Al3CoSn2Gd3,0.0,-0.0327117,,2,3.0
S2Ti,0.0,-0.0132188,,2,3.0
Na3Cl2Br,4.1565,-0.0099518,,2,3.0
FSnI,1.9248,-0.0267625999999999,,2,3.0
Br2SrHg,3.2336,-0.0340185,,2,3.0
MgAlSn4,0.0,-0.0259955,,2,3.0
MnCo2,0.0,-0.0177573,,2,3.0
S2RbEu,0.0,-0.0251845,,2,3.0
FeISm,0.0,-0.0337805,,2,3.0
Li2NiPb,0.0,-0.0244354,,2,3.0
O6Sn2Ba3,0.0,-0.0230335,,2,3.0
P2CuCe,0.0,-0.0210992999999999,,2,3.0
P12Co4Pr,0.0,-0.0144989,,2,3.0
Mg5K2Sn3,0.0,-0.0152048,,2,3.0
CuPd3,0.0,-0.0284426,,2,3.0
Al2Cu2Y,0.0,-0.015276,,2,3.0
NaGa4La,0.0,-0.0193149,,2,3.0
CaCo2Te2,0.0,-0.0241009999999999,,2,3.0
FeOs3,0.0,-0.0583392,,2,3.0
AsSbHg2,0.0,-0.0484063,,2,3.0
H2CCe2,0.0,-0.0216951,,2,3.0
NaGa2Ir2,0.0,-0.0362254,,2,3.0
SiCa2Ga,0.0,-0.0119919,,2,3.0
Al5SnTb5,0.0,-0.0285684,,2,3.0
ZnDy2Tl,0.0,-0.0458507,,2,3.0
O3LuBi,3.0954,-0.0330902,,2,3.0
Si2Cu4Ho3,0.0,-0.025823,,2,3.0
SSm,0.0,-0.0293152,,2,3.0
CrBr4Cs2,0.0,-0.0261568,,2,3.0
GaGeAc2,0.0,-0.0546428999999999,,2,3.0
GaRh2Np,0.0,-0.0481113,,2,3.0
ZrHf2,0.0,-0.0519713,,2,3.0
Zn2Cd3,0.0,-0.0235545,,2,3.0
Ga3Rh2Lu2,0.0,-0.0334256999999999,,2,3.0
Ge4Pd3La2Ir,0.0,-0.0341867999999999,,2,3.0
Si2Ca2Pd,0.0,-0.0150709,,2,3.0
Pd3Pu,0.0,-0.0525783,,2,3.0
MgY3Os2,0.0,-0.0389718,,2,3.0
F6KCs2Ba,0.0,-0.017314,,2,3.0
OCl2K4,0.9984,-0.0096586,,2,3.0
CO7Na2AsBi,3.4757,-0.0150317,,2,3.0
O5Se2Nb2Pr2,0.0,-0.0230469,,2,3.0
B2N3Co2Lu3,0.0,-0.0257931,,2,3.0
LiSrPb2,0.0,-0.0446183,,2,3.0
Sn2La3,0.0,-0.0410796,,2,3.0
SSe2Th,0.0,-0.0378639999999999,,2,3.0
B2Mn2Y,0.0,-0.0162386,,2,3.0
CaAu4Tl,0.0,-0.0602133,,2,3.0
Ru2Er,0.0,-0.0404036,,2,3.0
AlTi2Zr,0.0,-0.0178651,,2,3.0
SrCdPt4,0.0,-0.0562389,,2,3.0
O2CuNd,2.3299,-0.0202855999999999,,2,3.0
LuTaOs2,0.0,-0.0669847,,2,3.0
HPd3Pt,0.0,-0.0344067,,2,3.0
CuZnIr2,0.0,-0.0427894,,2,3.0
LiZn3,0.0,-0.0109325,,2,3.0
Cu2Pr3Tl3,0.0,-0.0475591999999999,,2,3.0
SrAg4Sb2,0.0,-0.0321041,,2,3.0
H2CO3ClCa,3.4951,-0.0084673,,2,3.0
As2Cd2Hg,0.0,-0.0338937,,2,3.0
Al3Sc3Au2,0.0,-0.0263122,,2,3.0
Na2NiAs,0.0,-0.0115218,,2,3.0
AgSbEu,0.0,-0.0415892,,2,3.0
ClCuBr,0.0,-0.0146835,,2,3.0
O6CrSr2W,0.0,-0.0198341,,2,3.0
KCs3,0.0,-0.0304384,,2,3.0
CSSc2,0.0,-0.0135875,,2,3.0
H5RhPr2,0.0,-0.0178038999999999,,2,3.0
OPdDy3,0.0,-0.0381779,,2,3.0
Sc2RuPt,0.0,-0.0345317,,2,3.0
O7NaMnAs2,0.0,-0.0113422,,2,3.0
Al3Ti3Fe2,0.0,-0.0137986,,2,3.0
Ga3RbTc,0.0,-0.0211825,,2,3.0
O6SrBa2Pt,0.0,-0.0230118,,2,3.0
Ni6As4Er,0.0,-0.0212659999999999,,2,3.0
Se2Zr6Pt,0.0,-0.0337177,,2,3.0
LiSiAg,0.0,-0.0146752,,2,3.0
P2Ni2La,0.0,-0.0203064999999999,,2,3.0
Si2CuTa,0.0,-0.0257937,,2,3.0
CoGe2Nd,0.0,-0.0254664,,2,3.0
S2CuEr,1.2054,-0.0227688,,2,3.0
CSbTb3,0.0,-0.0382883,,2,3.0
ClGeCe,0.0,-0.0253381,,2,3.0
AgDyTl2,0.0,-0.056212,,2,3.0
B2Rh3Sm,0.0,-0.0275757,,2,3.0
Mg11Ti25O60,0.0,-3.423100213107639,mp-757825,2,3.0
ScNi4Au,0.0,-0.0250905999999999,,2,3.0
S10Mo4Ta,0.0,-0.0211322,,2,3.0
CSi2Mn2Er2,0.0,-0.0245844,,2,3.0
NaPBr6Cs2,2.0644,-0.0219691,,2,3.0
NaCd2Bi2,0.0,-0.0445803,,2,3.0
As2PdPr2,0.0,-0.0334448,,2,3.0
HCo3Ta,0.0,-0.0245009,,2,3.0
AgAu2Ac,0.0,-0.0656996,,2,3.0
SnNd2Pt2,0.0,-0.0539202,,2,3.0
CdSn2Dy2,0.0,-0.0402449999999999,,2,3.0
ZrCdPb2,0.0,-0.0532918999999999,,2,3.0
S3MnNiCs,0.0,-0.0177297,,2,3.0
OClDy,4.3414,-0.024104,,2,3.0
Be2ZnNb2,0.0,-0.0178649,,2,3.0
InBaPt4,0.0,-0.0595045,,2,3.0
AlSnTe,0.0,-0.0272066,,2,3.0
GaGe2La2,0.0,-0.0289632,,2,3.0
BSc2Pd6,0.0,-0.026706,,2,3.0
Al2Sc3Ru,0.0,-0.0161224999999999,,2,3.0
FK3Bi,0.0,-0.0228037,,2,3.0
Ti3Ir,0.0,-0.030526,,2,3.0
Ge2PdIn3Ho3,0.0,-0.0361263999999999,,2,3.0
ScPdCd2,0.0,-0.0274796,,2,3.0
Al2CdHo3,0.0,-0.0325664,,2,3.0
K3CsAu,0.0,-0.0265228,,2,3.0
Li4O8Mn3Sn,0.0,-0.0114745,,2,3.0
YTl,0.0,-0.0507485,,2,3.0
FeRuEr,0.0,-0.034773,,2,3.0
BGa2Ru2Er,0.0,-0.0273645,,2,3.0
LiO5Si2Cu,2.1231,-0.010076,,2,3.0
Fe2InDy,0.0,-0.029629,,2,3.0
K2Br,0.0,-0.0132789,,2,3.0
CuBi2Np,0.0,-0.0697215,,2,3.0
MnCuI4,0.0,-0.0304718,,2,3.0
H2GaHg2,0.0,-0.0318289,,2,3.0
CdEuTl2,0.0,-0.0575696999999999,,2,3.0
KNi4Sb2,0.0,-0.0213135,,2,3.0
Ni2Ga5Dy,0.0,-0.0207791,,2,3.0
LiScTe2,0.3116,-0.0241072999999999,,2,3.0
ErAu2Hg,0.0,-0.0649342999999999,,2,3.0
Si3Tm2Pt,0.0,-0.0350642,,2,3.0
PdIn2La,0.0,-0.0364583,,2,3.0
Si2Pr,0.0,-0.0217227,,2,3.0
CaGa2Sm,0.0,-0.0222689999999999,,2,3.0
F4SeCe2,0.0,-0.0214152,,2,3.0
N5Nb4,0.0,-0.0209923,,2,3.0
Al2Ge2In,0.0,-0.0173412,,2,3.0
AlMnW,0.0,-0.0320515,,2,3.0
ScCuZr,0.0,-0.0201829,,2,3.0
Li6P4W,0.6754,-0.012061,,2,3.0
Cu2SrCd,0.0,-0.0208836,,2,3.0
Y2ZrHg,0.0,-0.0389421999999999,,2,3.0
O7ScGe2Nd,3.8423,-0.015469,,2,3.0
Zn3GdAu2,0.0,-0.0401897,,2,3.0
Al5CrRh,0.0,-0.0135083,,2,3.0
Ge2Rh3Th,0.0,-0.0401398,,2,3.0
Cr2NbW,0.0,-0.0348806,,2,3.0
Ga2NdSm,0.0,-0.0308369,,2,3.0
K5In,0.0,-0.0125068,,2,3.0
Sn2DyIr,0.0,-0.0484207,,2,3.0
Mg2P2Sm,0.0,-0.0161231,,2,3.0
NaS4Ni4,0.0,-0.0124177,,2,3.0
Se2Pt,0.0,-0.0372621,,2,3.0
YPdSb2,0.0,-0.0346843,,2,3.0
Li2O7Ta2Pu,0.0,-0.0271449,,2,3.0
SnSm2Tl,0.0,-0.0499383,,2,3.0
F7Na3Sr,0.0,-0.0080422,,2,3.0
As2Zr2Hf,0.0,-0.0339776,,2,3.0
Sn2PrIr2,0.0,-0.0521537,,2,3.0
CoGa2Lu,0.0,-0.0269001,,2,3.0
ZnSrSn,0.0,-0.0245237,,2,3.0
B2NbRh,0.0,-0.0210022,,2,3.0
AlSc2Pt,0.0,-0.0276033,,2,3.0
ONa3Ag,0.2888,-0.0107916,,2,3.0
OClNd,4.4991,-0.0226590999999999,,2,3.0
ZnHo2Ir2,0.0,-0.0517137,,2,3.0
Cu2YLa2,0.0,-0.0290219,,2,3.0
Ag2LaNd,0.0,-0.0376667,,2,3.0
Na2Hg2Tl,0.0,-0.0436323999999999,,2,3.0
CN2BrEr,2.6995,-0.0208983999999999,,2,3.0
ZnSbCs,0.4506,-0.0299879,,2,3.0
KTl4Pb,0.0,-0.0623122,,2,3.0
B2N3Cu2Dy3,0.0,-0.0229107,,2,3.0
MgSiPd2,0.0,-0.020899,,2,3.0
H3KSr,2.4915,-0.0086009,,2,3.0
GeSrIr,0.0,-0.0382112,,2,3.0
SbI2Tm2,0.0,-0.0441771,,2,3.0
Co4CuCe,0.0,-0.021504,,2,3.0
P2CaZr,0.0,-0.0167372,,2,3.0
Rh4BaLa,0.0,-0.0367066999999999,,2,3.0
Li7Ge2,0.0,-0.0064364999999999,,2,3.0
Co2Ni3Tb,0.0,-0.0218758,,2,3.0
N2Y2Pd,0.0,-0.0230323999999999,,2,3.0
CoSe3CsPr,0.0,-0.0278421999999999,,2,3.0
Ag4Pt5,0.0,-0.0529049,,2,3.0
O4SeEu,0.0,-0.0182092,,2,3.0
NaTe2Np,0.0,-0.0472143,,2,3.0
I4Hf,2.0177,-0.0428649,,2,3.0
Pd8Pb,0.0,-0.0376633,,2,3.0
Li2Na2Hg,0.0,-0.0164350999999999,,2,3.0
Sn2La2Hg,0.0,-0.0460232999999999,,2,3.0
F3V,0.0,-0.0102529,,2,3.0
Mg2Ga2Lu,0.0,-0.0199644,,2,3.0
F7Na3Al,1.0653,-0.0071166,,2,3.0
Rh2Er3Hg,0.0,-0.0487372,,2,3.0
TmHg2Pb,0.0,-0.0662955,,2,3.0
P2Cu4Eu,0.0,-0.0198186999999999,,2,3.0
BeF6RbEr,7.5621,-0.0146089,,2,3.0
SiMoTh,0.0,-0.047289,,2,3.0
ScGe3Th,0.0,-0.0341714,,2,3.0
Pd3SnLa2,0.0,-0.0375953,,2,3.0
SiNi2Ac,0.0,-0.0338091,,2,3.0
BC2Dy2,0.0,-0.0252339,,2,3.0
O2Hf,4.3366,-0.0288922,,2,3.0
In2LaLu,0.0,-0.0419009,,2,3.0
SiTm2Ir3,0.0,-0.055688,,2,3.0
GaBaPt,0.0,-0.043011,,2,3.0
Pd2Te3Hf,0.0,-0.0406359,,2,3.0
ZnSn2Pa6,0.0,-0.0759157,,2,3.0
H4BeNF3,7.0625,-0.0060367,,2,3.0
Pd2PmPb,0.0,-0.047051,,2,3.0
LiGa2Os,0.0,-0.0270192,,2,3.0
CdLu,0.0,-0.0432926,,2,3.0
CdDyBi2,0.0,-0.0592250999999999,,2,3.0
Sb2Te3,0.1404,-0.0373566,,2,3.0
InSnIr2,0.0,-0.0529757,,2,3.0
HI2Dy,2.719,-0.032482,,2,3.0
Si2Y3PdIn3,0.0,-0.0270387,,2,3.0
Cu4Ge2Pa3,0.0,-0.0444307,,2,3.0
F6TmU,0.0,-0.0260094,,2,3.0
MgSc2In,0.0,-0.0171051,,2,3.0
CSi2Dy2Re2,0.0,-0.0389452,,2,3.0
Si2Lu3,0.0,-0.0379351,,2,3.0
SCu3I,0.6569,-0.0185258,,2,3.0
Mn2Ta,0.0,-0.034533,,2,3.0
AlSm2Pt2,0.0,-0.0487214,,2,3.0
Na2P2Pt,0.0,-0.0205805,,2,3.0
Mg2Zn2Ga,0.0,-0.0108393,,2,3.0
CdSnTh,0.0,-0.0544426,,2,3.0
AlCaCd,0.0,-0.0163098,,2,3.0
NiPd2Th2,0.0,-0.0553832,,2,3.0
Cu5Hf3,0.0,-0.0331756,,2,3.0
Be2Zr2Pt,0.0,-0.0288005,,2,3.0
GaBaPt2,0.0,-0.0499321,,2,3.0
Ga3Er2Os,0.0,-0.0376726,,2,3.0
Se3Er,0.2836,-0.0288831,,2,3.0
Ag2HoTl,0.0,-0.0462958,,2,3.0
Li6S5AsI,1.1821,-0.0103291,,2,3.0
SeRu,0.0,-0.0277198,,2,3.0
Si2FeRu,0.0,-0.0188206,,2,3.0
HI2Pr2,0.0,0.0,,2,3.0
Cl4FeRb2,0.0,-0.0147563,,2,3.0
HClLu,0.0,-0.0238216,,2,3.0
C2O6Na2Mn,1.8037,-0.0092896,,2,3.0
Cu2LaAu,0.0,-0.0361098,,2,3.0
O5ClAsRbNb,3.0626,-0.0146216,,2,3.0
RhSn5Nd,0.0,-0.0371279,,2,3.0
GeHf2Ir3,0.0,-0.0605491,,2,3.0
Ag4InPb,0.0,-0.0390353,,2,3.0
Ni2Gd,0.0,-0.0307496,,2,3.0
Rh2CdPb2,0.0,-0.0499188,,2,3.0
AlErPt,0.0,-0.0441903,,2,3.0
FSe2SrBi,0.7207,-0.0307932,,2,3.0
Al5Ca5Pb,0.0,-0.0152273,,2,3.0
ScZrPd2,0.0,-0.0284604,,2,3.0
S3InBi,1.3586,-0.0286627,,2,3.0
Fe4ZrPt,0.0,-0.0292628,,2,3.0
Co4Tb,0.0,-0.0232278,,2,3.0
NiSbHf2,0.0,-0.0452751,,2,3.0
Ho3Ir,0.0,-0.0552579,,2,3.0
Sb3Er5,0.0,-0.0464049,,2,3.0
Si3AgPr2,0.0,-0.0253868,,2,3.0
BeN3AlSi,4.8021,-0.0098307,,2,3.0
O5PdBaHo2,2.1038,-0.0253907,,2,3.0
H6MnLa2,0.0,-0.0144947,,2,3.0
AuBiNp,0.0,-0.0849718,,2,3.0
GeRhHf,0.0,-0.0395206,,2,3.0
PrAuBi,0.0,-0.064568,,2,3.0
Ca2PdSn2,0.0,-0.0255216,,2,3.0
Mg2PrOs,0.0,-0.0313972,,2,3.0
TiMn2Ge,0.0,-0.0183292,,2,3.0
Zn3Pd2Pu,0.0,-0.0364164,,2,3.0
Be2AsTe,0.0,-0.01669,,2,3.0
H2Rh2Pt,0.0,-0.0288441,,2,3.0
NiSb2U,0.0,-0.0488119999999999,,2,3.0
RbICs3,0.0,-0.0348355,,2,3.0
MgAsRh,0.0,-0.0203459,,2,3.0
O3PdCsHo,0.6964,-0.0252617,,2,3.0
O6FeBa2Pr,0.3349,-0.0204495,,2,3.0
ONa2Sc2As2,0.0,-0.0136148,,2,3.0
RuTa2Pt,0.0,-0.0601546,,2,3.0
S5SnDy2,0.1965,-0.0240682,,2,3.0
AlAgPr,0.0,-0.0279388,,2,3.0
Al4Nb2Sm,0.0,-0.0206961,,2,3.0
O8LuW2Tl,4.3166,-0.02892,,2,3.0
S2KPr,2.1002,-0.0198495,,2,3.0
Zr2RuAu,0.0,-0.0420676,,2,3.0
GeRu2Np,0.0,-0.0491374,,2,3.0
Ti2Co2Hf,0.0,-0.0260712,,2,3.0
CrAs2Y,0.0,-0.0226859,,2,3.0
NK2Ni,0.0,-0.0106212,,2,3.0
ReH3O5,3.9726,-1.662856899027779,mp-2766424,2,3.0
HSnTa3,0.0,-0.0479126,,2,3.0
O6CoCuSr2,0.0,-0.0132083999999999,,2,3.0
LuAu7,0.0,-0.0677638,,2,3.0
Mg2S8TiIn3,0.0,-0.0156258999999999,,2,3.0
TiGeEu,0.0,-0.0302444999999999,,2,3.0
LiF4Cd,0.3649,-0.009986,,2,3.0
SnPt3Pu2,0.0,-0.0784864,,2,3.0
LiNd2Au,0.0,-0.0401619999999999,,2,3.0
Sr2Rh2Hg,0.0,-0.0364531,,2,3.0
SiSc2Ru3,0.0,-0.0245151,,2,3.0
O4BrSb2Pr,0.389,-0.0223233,,2,3.0
In2PtTh,0.0,-0.0590037999999999,,2,3.0
Ti6GaSb2,0.0,-0.0213294999999999,,2,3.0
NiZn2Nd,0.0,-0.0221118999999999,,2,3.0
Rb2YI6,0.0,-0.033549,,2,3.0
PrAu3,0.0,-0.0634998,,2,3.0
Se3Tm4Pb,0.0,-0.0445206999999999,,2,3.0
Mg2Ru2Sb,0.0,-0.0235928,,2,3.0
CrMn2Ga,0.0,-0.0179435,,2,3.0
Ti2MnCo,0.0,-0.0172990999999999,,2,3.0
NZrI,1.1514,-0.0272147,,2,3.0
N2NbLu,0.0,-0.0284386,,2,3.0
Al6Ge2Re,0.0,-0.0174054,,2,3.0
SCuSe,0.0,-0.0150861,,2,3.0
InErPt4,0.0,-0.0616595999999999,,2,3.0
Al5Ag2Eu,0.0,-0.0196939,,2,3.0
YZrOs4,0.0,-0.0581048,,2,3.0
H3RhHo,0.0,-0.0193546,,2,3.0
CuPr2Au,0.0,-0.0433656,,2,3.0
Sb2Te4Pb,0.0676,-0.0429306,,2,3.0
CSi2Ni2Er2,0.0,-0.0239866,,2,3.0
Ca2Zn2Pb,0.0,-0.0248344,,2,3.0
MoTc2Rh,0.0,-0.0347586,,2,3.0
O6NiBa2La,0.0,-0.019991,,2,3.0
YSbAu2,0.0,-0.0516552999999999,,2,3.0
F6PCu,0.6542,-0.0081165,,2,3.0
O6SiCoPr2,0.0,-0.0181294,,2,3.0
NiCu2Rh,0.0,-0.020044,,2,3.0
F8Na2SrHf,6.3829,-0.0138642,,2,3.0
CdTlAc2,0.0,-0.0714097,,2,3.0
CuSe4Au,0.0,-0.0275657,,2,3.0
NInSm2,0.0,-0.0340613,,2,3.0
Sr2SnHg2,0.0,-0.0439996,,2,3.0
Co2Ge2Th,0.0,-0.0343021,,2,3.0
Zn2GdTb,0.0,-0.0335515,,2,3.0
Sc4Mo3,0.0,-0.0230047,,2,3.0
AlYIr,0.0,-0.036709,,2,3.0