formula,bg,formation_energy,mp-id,fidelity,bg_category
Se3AgTa,0.0,-0.0321796,,2,3.0
N3PCr,0.0,-0.0117859,,2,3.0
Na2BrI,3.6512,-0.0176508,,2,3.0
H2Hf2Pt,0.0,-0.0412986,,2,3.0
B2U,0.0,-0.0399983,,2,3.0
O4CoSrY,0.0,-0.0159924,,2,3.0
ZnGeNp,0.0,-0.0466047,,2,3.0
Co2Zr2La,0.0,-0.0279296,,2,3.0
O6Fe2BaLa,0.0,-0.0181125,,2,3.0
C2InTm3,0.0,-0.0353495,,2,3.0
Fe4CePr,0.0,-0.0266238,,2,3.0
O6FeMoBa2,0.0,-0.0195149,,2,3.0
Li2AsRh2,0.0,-0.0190262,,2,3.0
GaCsHg3,0.0,-0.0519373,,2,3.0
K2As,0.0,-0.012754,,2,3.0
AlCrRuRh,0.0,-0.0243844,,2,3.0
Ga3Ge2In3Pt,0.0,-0.0287307999999999,,2,3.0
Mg2CuAu,0.0,-0.0240553999999999,,2,3.0
CrCoIr2,0.0,-0.0446291,,2,3.0
RuRh2Er3,0.0,-0.0431454,,2,3.0
Ni2Ga2Tm,0.0,-0.0240083,,2,3.0
Mg2HoLu,0.0,-0.0286199,,2,3.0
Cl6K2RbTb,4.4606,-0.0154495,,2,3.0
VHf6Bi2,0.0,-0.0613514,,2,3.0
AsI2Ho2,0.0,-0.0399221,,2,3.0
O6PdBa2Ta,0.0,-0.0241456,,2,3.0
MgHgTl2,0.0,-0.0545613999999999,,2,3.0
FeNiCu,0.0,-0.0165436,,2,3.0
ZrIrAu,0.0,-0.0577397,,2,3.0
InTbHg,0.0,-0.0500548,,2,3.0
PCl2Ce2,0.0,-0.0251589999999999,,2,3.0
LiCdPt4,0.0,-0.0526578,,2,3.0
Ho2Os,0.0,-0.0570464,,2,3.0
HSm,0.0,-0.0244968,,2,3.0
Ru2SnU2,0.0,-0.062774,,2,3.0
O6FeCoY2,0.1317,-0.0155538,,2,3.0
F8CaPu2,0.0,-0.0272854999999999,,2,3.0
As2Ru2Nd,0.0,-0.031604,,2,3.0
C3Cr2Sm2,0.0,-0.0225935,,2,3.0
Mo5Ta,0.0,-0.0402644,,2,3.0
NCs2Ir,0.0,-0.0390927,,2,3.0
Er2Pt2Hg,0.0,-0.0630825,,2,3.0
LiOF3V,0.0,-0.0091503,,2,3.0
AsPdEu,0.0,-0.0366996,,2,3.0
Na2KAs2,0.0,-0.0118933,,2,3.0
Ti2TcRe,0.0,-0.0350983999999999,,2,3.0
In2Dy,0.0,-0.0387622,,2,3.0
Fe4RhRe,0.0,-0.0295107,,2,3.0
K3Hg,0.0,-0.023406,,2,3.0
Ga2Br8Pd,1.4851,-0.0208324,,2,3.0
Ga3BaRe,0.0,-0.0323825,,2,3.0
ScCuAs2,0.0,-0.0182553,,2,3.0
N2LuPu,0.0,-0.0476911,,2,3.0
Si2MnNp,0.0,-0.0365051,,2,3.0
HgTl2,0.0,-0.0709659,,2,3.0
O4PGa,4.585,-0.0109563,,2,3.0
Al3Rh2Tm,0.0,-0.0247921,,2,3.0
Cu2ZnLu2,0.0,-0.0312994,,2,3.0
CSi2NdW2,0.0,-0.0358599,,2,3.0
Rh2CePt,0.0,-0.046414,,2,3.0
O2BrSbPb,1.7148,-0.0302857999999999,,2,3.0
Cl3Pr,4.3075,-0.0194235,,2,3.0
Li2F8Fe3,0.0,-0.0092693999999999,,2,3.0
YRhPt2,0.0,-0.0514554,,2,3.0
I3Ba3Bi,0.5893,-0.0456074,,2,3.0
AlGe2In3Pu3,0.0,-0.0531227,,2,3.0
TiFe2Ge,0.0765,-0.0183226,,2,3.0
Sr2Hg2Bi,0.0,-0.0526081999999999,,2,3.0
ClLu,0.0,-0.0332917,,2,3.0
O8MnCd6,0.0123,-0.0181093,,2,3.0
Ga2Y2Zr,0.0,-0.0243962,,2,3.0
COAlCe,0.0,-0.0188151,,2,3.0
Co2GaNd2,0.0,-0.027853,,2,3.0
NaMnCuSe2,0.3067,-0.0163968,,2,3.0
Rh2Te2I,0.0,-0.036162,,2,3.0
F2CaBa,0.0,-0.0171348999999999,,2,3.0
CrGa2,0.0,-0.0171441,,2,3.0
Al2Ge2Ba,0.0,-0.0190779999999999,,2,3.0
Si5Sm2Pt3,0.0,-0.0361009,,2,3.0
CAlTb3,0.0,-0.0320742,,2,3.0
H6CoRb2Cs,1.8249,-0.0120016999999999,,2,3.0
O7Al3SrY,4.2016,-0.0132367,,2,3.0
SnNdAu,0.1645,-0.0506507999999999,,2,3.0
O8Na3TiFe3,0.0,-0.0109103,,2,3.0
Cl6CrAgCs2,0.7903,-0.0189947,,2,3.0
NaK3Rb,0.0,-0.0098999,,2,3.0
MnCu4Cd,0.0,-0.0182947,,2,3.0
NIPa,0.0,-0.0501708,,2,3.0
BeWPt2,0.0,-0.0542082,,2,3.0
ZnAgIn2,0.0,-0.0278682,,2,3.0
Ni2CuPr2,0.0,-0.0270878,,2,3.0
PZrIr,0.0,-0.0387008,,2,3.0
Al3Ti,0.0,-0.0102332999999999,,2,3.0
Dy3Os2Hg,0.0,-0.0596917,,2,3.0
S4GeBi2,0.5744,-0.0309279,,2,3.0
H4Li3Rh,0.4266,-0.0073413,,2,3.0
Co2Zn3Nd,0.0,-0.0199028999999999,,2,3.0
Cr3As,0.0,-0.0189346,,2,3.0
Pd2SbCe,0.0,-0.0376972,,2,3.0
O2HoAu,2.5817,-0.0351381,,2,3.0
Ru2CeTm,0.0,-0.0419864999999999,,2,3.0
OSFe2,0.0,-0.0136163,,2,3.0
Al3Ge2PdDy3,0.0,-0.0273178,,2,3.0
NiPtPa,0.0,-0.0627250999999999,,2,3.0
Pd2Dy3Pt,0.0,-0.0476612,,2,3.0
BaLaAu2,0.0,-0.0561824,,2,3.0
AlPt2Au,0.0,-0.0549811,,2,3.0
CaBr4,1.8501,-0.0188197,,2,3.0
O5PW,0.0,-0.0181482,,2,3.0
AgInPm2,0.0,-0.0386791,,2,3.0
F6NaRb2Dy,6.5772,-0.0150192,,2,3.0
GePd2Ac,0.0,-0.0446557,,2,3.0
O2Gd,0.0,-0.0266785,,2,3.0
SeBiTh,0.0,-0.0660325,,2,3.0
Li3Y,0.0,-0.0086486,,2,3.0
N6Ti2Nd3,0.0,-0.0215057,,2,3.0
Al8Pt,0.0,-0.0149774,,2,3.0
O4SiMn2,0.7488,-0.0126744,,2,3.0
O6Ba2HoHf,0.0,-0.0261761,,2,3.0
CaCo3Ge2,0.0,-0.0168753,,2,3.0
AsSrPd,0.0,-0.0261712999999999,,2,3.0
Cl3Re,0.9901,-0.0244996,,2,3.0
BCo4Y,0.0,-0.0176377,,2,3.0
O6Sr2MoLa,0.0,-0.0189607,,2,3.0
NCuLa2,0.0,-0.0284992,,2,3.0
NiPrPb,0.0,-0.0456037,,2,3.0
Li5O3FNi,0.89,-0.0070926999999999,,2,3.0
Ge2Nb2La,0.0,-0.0302122999999999,,2,3.0
In2TmIr,0.0,-0.0481078,,2,3.0
ZnGa2Lu,0.0,-0.0258964,,2,3.0
MgLa2Tl,0.0,-0.0412988,,2,3.0
Mn2FeRu,0.0,-0.0224215,,2,3.0
Cu2ILa2,0.0,-0.031364,,2,3.0
SiSrIr,0.0,-0.0353032,,2,3.0
CoRu2Nd2,0.0,-0.0350032,,2,3.0
RhTe2Er6,0.0,-0.0465054,,2,3.0
GeRuLu,0.0,-0.0373094,,2,3.0
MgFe2Lu3,0.0,-0.0345412,,2,3.0
PBrPu2,0.0,-0.0634868,,2,3.0
O4HoHf,0.0,-0.0261948,,2,3.0
CSbHo2,0.0,-0.0371317,,2,3.0
O6MgTi3,0.0408,-0.0121893,,2,3.0
KPd4Sb2,0.0,-0.0310387,,2,3.0
SeI2Ho2,0.0,-0.0399269,,2,3.0
Zn2Y2Tl,0.0,-0.0315528,,2,3.0
B12Np,0.0,-0.0153178,,2,3.0
Be2Cu2Zn,0.0,-0.0106606,,2,3.0
Fe2NiMo,0.0,-0.0217458,,2,3.0
CSnTb2,0.0,-0.0355105999999999,,2,3.0
CMn3Mo,0.0,-0.0198615,,2,3.0
BGa2SrIr2,0.0,-0.0347046,,2,3.0
H2AlZr2,0.0,-0.015714,,2,3.0
Se3SnSm4,0.0,-0.0360232,,2,3.0
S3KNi4,0.0,-0.0132647999999999,,2,3.0
O2FPbBi,2.0147,-0.035588,,2,3.0
ZnSe2RbAg,1.4681,-0.0219579,,2,3.0
FeGe2Nb2,0.0,-0.0248362,,2,3.0
Be2AlRu2,0.0,-0.0179377,,2,3.0
BeSnCe,0.0,-0.0287488999999999,,2,3.0
Al3Hf2Ir,0.0,-0.0374455999999999,,2,3.0
H2PdHf2,0.0,-0.0336025,,2,3.0
AgSnTe2,0.0,-0.0355256,,2,3.0
BGa2Ru2Sm,0.0,-0.0264155,,2,3.0
F4K2Mn,1.1922,-0.0099719,,2,3.0
ScLa3,0.0,-0.0358551,,2,3.0
HoBi3,0.0,-0.0715111,,2,3.0
Cu2SrBi2,0.0,-0.0422984,,2,3.0
Zn2InDy,0.0,-0.0274698,,2,3.0
Ge2SrAc,0.0,-0.0382689,,2,3.0
CdAuPb2,0.0,-0.0628423,,2,3.0
Al2Br8Ru,1.2711,-0.0196607,,2,3.0
Mn5Ga3,0.0,-0.0177737,,2,3.0
N2CePa,0.0,-0.0424617999999999,,2,3.0
O2F2KBr,4.1137,-0.0090548,,2,3.0
LiCl6Rb2Sb,2.8591,-0.0145703,,2,3.0
Be2CuPt,0.0,-0.0241710999999999,,2,3.0
Li2O5Zr2,3.8504,-0.0139924,,2,3.0
O3ZnGe,2.339,-0.0119934,,2,3.0
CaCd4Ba,0.0,-0.0288263,,2,3.0
MgZn4,0.0,-0.0118362,,2,3.0
CrW2Re,0.0,-0.0572211,,2,3.0
Cu3Ir2,0.0,-0.0374969,,2,3.0
ZrTl,0.0,-0.0517946,,2,3.0
PrAuPb,0.0,-0.0637336,,2,3.0
KPtTl,0.0,-0.0505422,,2,3.0
Mo2Te6W,0.8274,-0.0405129,,2,3.0
ScMnGa5,0.0,-0.016749,,2,3.0
Ca2CuRh,0.0,-0.0173701,,2,3.0
F6SiSe2Hg3,2.7228,-0.0249399,,2,3.0
NaRhSn2,0.0,-0.0278673,,2,3.0
KNiSe2,0.0,-0.0168256,,2,3.0
Ce4Sm,0.0,-0.0444726,,2,3.0
ScCo2Ga,0.0,-0.0166908,,2,3.0
MnTa4,0.0,-0.0569751,,2,3.0
Si2Fe2Hf,0.0,-0.0243185,,2,3.0
Al2ClSm2,0.0,-0.0234377,,2,3.0
ZnBaPt,0.0,-0.04184,,2,3.0
LiTe2La,0.9025,-0.0315258,,2,3.0
NiIn3Sn2Nd3,0.0,-0.0361387,,2,3.0
NAlTi3,0.0,-0.0141198,,2,3.0
SiMnTh,0.0,-0.0419046999999999,,2,3.0
PCu2Pm,0.0,-0.0216701,,2,3.0
RhTe2Lu6,0.0,-0.0498183,,2,3.0
O8NaS2V,0.0,-0.0095313999999999,,2,3.0
RhSm2Ir,0.0,-0.0492784,,2,3.0
NiBi2Pa,0.0,-0.0684685999999999,,2,3.0
Se3AgBaSm,1.1144,-0.0310264,,2,3.0
SeBrNb,0.0,-0.0252228,,2,3.0
Li2O7Ti2U,0.0,-0.0183745,,2,3.0
H2MnZr2,0.0,-0.0177016999999999,,2,3.0
O6CdBa2Np,0.9481,-0.0282297,,2,3.0
H8MnFe2La,0.0,-0.0105947,,2,3.0
SnBa2Ir2,0.0,-0.0518862,,2,3.0
LiZnGePd,0.0,-0.0174217,,2,3.0
Si2Ca3Ga3Au,0.0,-0.0191761,,2,3.0
O6ScBa2Bi,1.7392,-0.0235505999999999,,2,3.0
PClSm2,0.0,-0.0286248,,2,3.0
VTe4I,0.2874,-0.0340984,,2,3.0
Co2ZrSn,0.0,-0.0257569,,2,3.0
H2K2Pt,1.1222,-0.0191477,,2,3.0
CdPrPt4,0.0,-0.0600027,,2,3.0
B4Ho2Ir5,0.0,-0.0448172,,2,3.0
S2MnPb,0.0,-0.028983,,2,3.0
S3CuTaTl,0.0,-0.0312013,,2,3.0
Co2PbPu2,0.0,-0.0660477,,2,3.0
LiCuAg,0.0,-0.0163512,,2,3.0
CCr2Ge2Y2,0.0,-0.0207099,,2,3.0
ZnRhNd2,0.0,-0.0341704,,2,3.0
CoCuHo2,0.0,-0.0328622,,2,3.0
N3CoEr,0.1021,-0.0197406,,2,3.0
ZnSrBa2,0.0,-0.0288232,,2,3.0
NaZnAs,0.4298,-0.0131367999999999,,2,3.0
O6CoSr2Bi,0.0,-0.019692,,2,3.0
Ti6ZnSb2,0.0,-0.0209062,,2,3.0
CSi2Fe2Ho2,0.0,-0.0241442,,2,3.0
N3SmRe,0.0,-0.0294381999999999,,2,3.0
Mg2S8Mn3Lu,0.0,-0.0154138,,2,3.0
O2F2RbI,4.472,-0.0143622,,2,3.0
LiSnEr,0.0,-0.0302586,,2,3.0
O3SiCd,2.6256,-0.0141644,,2,3.0
Ge2AgIn3Er3,0.0,-0.036229,,2,3.0
CrTc5,0.0,-0.0321738,,2,3.0
MnAsZr,0.0,-0.0239869999999999,,2,3.0
Cr4WRe,0.0,-0.0356505,,2,3.0
OP2Ba4,0.5704,-0.0280638,,2,3.0
Y4Zr,0.0,-0.0282939,,2,3.0
Mg4La,0.0,-0.0126674,,2,3.0
Lu2Au2Pb,0.0,-0.0659409,,2,3.0
Cl6CoRbCs2,1.0276,-0.017842,,2,3.0
LiF6Ru,1.0049,-0.0095766,,2,3.0
Ge2In3Pr3Ir,0.0,-0.0385412,,2,3.0
PHo2Bi,0.0,-0.0480671,,2,3.0
NaHg,0.0,-0.0365298,,2,3.0
S4Zn3Hg,1.2559,-0.0191277,,2,3.0
CaBa7,0.0,-0.0357682,,2,3.0
AgTl5,0.0,-0.0654495,,2,3.0
BC2Pr2,0.0,-0.023261,,2,3.0
Cu4As2Sr,0.0,-0.0180421,,2,3.0
Li2O4MnGe,1.1599,-0.0105072,,2,3.0
Li2GeSr,0.0,-0.0119902,,2,3.0
Hg2TlBi,0.0,-0.0717877,,2,3.0
B4ScHo,0.0,-0.0162523,,2,3.0
N2MoEr,0.0,-0.0271344,,2,3.0
RuHf2Ir,0.0,-0.0588356,,2,3.0
Li3O8TiMn3,0.1325,-0.0109307,,2,3.0
LiRhTl2,0.0,-0.0453596999999999,,2,3.0
H6K2FeRb,0.0,-0.0077988,,2,3.0
PS4Cs3,2.6161,-0.0214239,,2,3.0
P2Rh2La,0.0,-0.0275429,,2,3.0
RhTmPb,0.0,-0.0546059,,2,3.0
Al3Si2Fe3,0.0,-0.0125021,,2,3.0
O2Na2RbAg,1.7581,-0.0132949,,2,3.0
O6Sr2RhHo,0.0,-0.0190479,,2,3.0
BeHf2,0.0,-0.0432989,,2,3.0
Li2ZnBi,0.0,-0.0245412,,2,3.0
Al3DyAu2,0.0,-0.0356978,,2,3.0
NaBr6Cs2Tl,0.88,-0.0282915,,2,3.0
BAs2Rb3,1.3899,-0.0188021,,2,3.0
CdInAc2,0.0,-0.0616717,,2,3.0
H2PbTh3,0.0,-0.0620726999999999,,2,3.0
Si3YIr,0.0,-0.0266811,,2,3.0
MgIn2Ho,0.0,-0.0306014,,2,3.0
SmTmAu2,0.0,-0.0597185,,2,3.0
B36CSi9Tm2,1.0741,-0.0100595,,2,3.0
RbSb2Ba2,0.0,-0.0357805,,2,3.0
H4O2F5AlZn,5.0153,-0.0072764,,2,3.0
Ru2LaPm,0.0,-0.0393143,,2,3.0
MgCaY,0.0,-0.0141678999999999,,2,3.0
RuRh2W,0.0,-0.0432139,,2,3.0
Mg4Ir,0.0,-0.0184814,,2,3.0
SbBaPu,0.0,-0.0629943,,2,3.0
Li4As4Sm3,0.0,-0.0214979,,2,3.0
H2Ni2Cd,0.0,-0.013938,,2,3.0
LiRu2Re,0.0,-0.035864,,2,3.0
Ge2PrPu,0.0,-0.0483425,,2,3.0
FCl2Cs,2.5306,-0.0158156,,2,3.0
CrIrPt2,0.0,-0.0578185,,2,3.0
O2CoBrSb,0.0,-0.0183511999999999,,2,3.0
O4PrPb,0.0,-0.0258497,,2,3.0
CuSrSb2,0.0,-0.0285641999999999,,2,3.0
Co2PdDy3,0.0,-0.0356058,,2,3.0
AgInNd2,0.0,-0.0384672,,2,3.0
GeYRh,0.0,-0.0280044,,2,3.0
LiCe2Os,0.0,-0.0409574,,2,3.0
Rh2LaTl,0.0,-0.0462339,,2,3.0
Y2BaIr2,0.0,-0.0481465,,2,3.0
Zn2YPd2,0.0,-0.0247632,,2,3.0
F6NaFe,1.4641,-0.0077050999999999,,2,3.0
CoNiInHf,0.0,-0.0328064,,2,3.0
Cl4Cs2Pu,0.0,-0.0331015,,2,3.0
NiCu3Se4Hg,0.0,-0.0234726,,2,3.0
CuBr6AgCs2,0.0,-0.0249541,,2,3.0
MgRh2Tb2,0.0,-0.0340501,,2,3.0
LiInAu,0.0,-0.0355336,,2,3.0
Mg2Ga2Tm,0.0,-0.0192933,,2,3.0
ClLa2Pt,0.0,-0.0427952999999999,,2,3.0
Zn2TcRu,0.0,-0.0243258,,2,3.0
KRhIn3,0.0,-0.0287784,,2,3.0
CaYOs4,0.0,-0.0543459,,2,3.0
B2Mo2Tc,0.0,-0.0242955,,2,3.0
S3PdBaPr,0.0,-0.0258814999999999,,2,3.0
CoSn5Ce,0.0,-0.0347482,,2,3.0
HZr3Sb,0.0,-0.0271335,,2,3.0
CSiYRe2,0.0,-0.0385644,,2,3.0
AlErAu2,0.0,-0.0501201,,2,3.0
NiCuIr2,0.0,-0.0433635,,2,3.0
YCdIr,0.0,-0.0437678,,2,3.0
O5CuSe2,0.0,-0.0116464999999999,,2,3.0
Zr2Rh3Pd3,0.0,-0.0334267,,2,3.0
P2GaHf6,0.0,-0.0467385,,2,3.0
Hf(TlS)4,1.4675,-1.017656272370373,mp-1198074,2,3.0
NaCu2As2Ho,0.0,-0.0214106999999999,,2,3.0
C4MgEr3,0.0,-0.0249097,,2,3.0
NaRhBa3,0.0,-0.0314673,,2,3.0
S2ClAu,0.0,-0.0242022,,2,3.0
S6Cl2Ag,0.0,-0.0117744,,2,3.0
GeAgLa,0.0,-0.0319354,,2,3.0
Al2YPr,0.0,-0.0220687,,2,3.0
NaGa4Pu,0.0,-0.0301869,,2,3.0
Co2PdTm3,0.0,-0.0376984,,2,3.0
CoSePd5,0.0,-0.0288734,,2,3.0
F6ZnCe,2.2245,-0.0132718,,2,3.0
LiBr6Rb2Tl,0.5649,-0.0246265,,2,3.0
B2CHo,0.0,-0.0191296,,2,3.0
Si2CaZn2,0.0,-0.0116496999999999,,2,3.0
SCuCs,1.4548,-0.0217748,,2,3.0
Si2Pd2Th,0.0,-0.0372708,,2,3.0
Al5Pd2Er,0.0,-0.0201134,,2,3.0
Li7N2I,1.7875,-0.0078776,,2,3.0
ZnSr3,0.0,-0.0201868,,2,3.0
F4Ru,0.0,-0.0116429,,2,3.0
CoWOs2,0.0,-0.0576415999999999,,2,3.0
O8RbLuW2,4.5116,-0.0248175,,2,3.0
HCsTl,0.0,-0.0380937,,2,3.0
Y2Ru2Pb,0.0,-0.0407066,,2,3.0
O7Dy2Bi2,0.0,-0.0291328,,2,3.0
CrGa2Ir,0.0,-0.0309716,,2,3.0
F6Cs2La,0.0,-0.0187081,,2,3.0
Ni2ZnTa2,0.0,-0.0359964,,2,3.0
Ru2SbLu,0.0,-0.0412145,,2,3.0
Sn6PrAu4,0.0,-0.0490279,,2,3.0
NiY2Os,0.0,-0.0362749,,2,3.0
FeIn5Sm,0.0,-0.0330779,,2,3.0
Cl2KRb,4.987,-0.0134218,,2,3.0
F3KPd,0.0,-0.0123599,,2,3.0
CoZn2Tb,0.0,-0.0229479,,2,3.0
SCoSb,0.0,-0.021768,,2,3.0
P2Mn2Pa,0.0,-0.032256,,2,3.0
Co3Ge2Sm,0.0,-0.0228718,,2,3.0
Al3Fe2Tm,0.0,-0.0188981,,2,3.0
MgSe2Y,0.0,-0.0198716,,2,3.0
As2PdTh,0.0,-0.0432815999999999,,2,3.0
AlSe4AgSn,0.9657,-0.0227442,,2,3.0
LiLaAu,0.0,-0.0389235,,2,3.0
Al4ScZr,0.0,-0.0132002,,2,3.0
O6MoNd2,3.5949,-0.0208034,,2,3.0
PTiMn,0.0,-0.0160278,,2,3.0
Na3Hg,0.0,-0.0203986,,2,3.0
ClIPb,2.6908,-0.0410754,,2,3.0
K3Rh4Sn4,0.0,-0.0279944,,2,3.0
S2KZnAg,1.7023,-0.0153375,,2,3.0
Al3RhEr3Pb2,0.0,-0.0407565,,2,3.0
Si3ScNi2,0.0,-0.0134672,,2,3.0
Al6Ni2Y3,0.0,-0.0153313,,2,3.0
AlAg4,0.0,-0.0267191,,2,3.0
NaIn2Hg,0.0,-0.0348682,,2,3.0
B2NdIr2,0.0,-0.041011,,2,3.0
CdCe2,0.0,-0.0399807,,2,3.0
LiNaClBr,4.8722,-0.0103611,,2,3.0
CHgU2,0.0,-0.0712688,,2,3.0
B2O6Ca3,4.9593,-0.0105611,,2,3.0
SeZrI,0.0,-0.0304813,,2,3.0
Ga2TmPt3,0.0,-0.0501881,,2,3.0
Ga2Pd4Tm3,0.0,-0.0364249,,2,3.0
Fe4ZnTh,0.0,-0.0302997,,2,3.0
H3N2Na3,0.349,-0.0055285,,2,3.0
AlTiSb,0.0,-0.0207259,,2,3.0
Al4ScCr2,0.0,-0.0119947,,2,3.0
Ga2AgSm,0.0,-0.0277053,,2,3.0
V2CoSe4,0.0,-0.0195831,,2,3.0
Li3O8Ti4,0.0,-0.01102,,2,3.0
RbBa2Tl2,0.0,-0.0492849,,2,3.0
MnNi2Nd2,0.0,-0.0278185,,2,3.0
Si2GaDy2,0.0,-0.0271187,,2,3.0
AlSc2Fe2,0.0,-0.0147055,,2,3.0
LiSm2Pt,0.0,-0.0410897999999999,,2,3.0
SiAsPd5,0.0,-0.0282247999999999,,2,3.0
BSc2Ni6,0.0,-0.0152847,,2,3.0
F6FeLu,0.0,-0.0151777,,2,3.0
Pd5Bi,0.0,-0.0405659,,2,3.0
HRu3Hf,0.0,-0.0343994,,2,3.0
SrInTe2,0.0,-0.0335923999999999,,2,3.0
FeSe2Er6,0.0,-0.0407859,,2,3.0
PNi5Tl,0.0,-0.0235009,,2,3.0
O2Rb3Pt,0.0,-0.025224,,2,3.0
As2YRu2,0.0,-0.0284457999999999,,2,3.0
RhIn5Th,0.0,-0.0428329,,2,3.0
CuTe2Au,0.0,-0.0397941999999999,,2,3.0
Al3FeY,0.0,-0.014276,,2,3.0
CuPdLa2,0.0,-0.0340296999999999,,2,3.0
SBrTl,1.1651,-0.0341198,,2,3.0
O5Rb4Sb2,3.0216,-0.0187866,,2,3.0
Br2Tb2Bi,0.0,-0.04369,,2,3.0
AlOs2Pu2,0.0,-0.0744823,,2,3.0
Si2Ga3Er3Os,0.0,-0.0331732,,2,3.0
InCe2Tl,0.0,-0.0491808,,2,3.0
SClTb,2.6625,-0.023894,,2,3.0
FeZr6Te2,0.0,-0.0313281,,2,3.0
Al4HoTa2,0.0,-0.0308496999999999,,2,3.0
Al3CrNd2,0.0,-0.0219074,,2,3.0
H2Ho3,0.0,-0.0312299,,2,3.0
H3NaPdBa,1.4331,-0.0149895,,2,3.0
AlMn4Mo,0.0,-0.0193746,,2,3.0
KAu2Bi2,0.0,-0.0610408,,2,3.0
ZrRh8,0.0,-0.0337122,,2,3.0
BeCoY2,0.0,-0.0194118,,2,3.0
HO4SCs,5.7366,-0.012571,,2,3.0
Li4O8CoNi3,0.0,-0.0095181,,2,3.0
O7Na2EuTa2,0.0,-0.0228275,,2,3.0
ZnGa2Zr6,0.0,-0.0260058,,2,3.0
AgHoTl2,0.0,-0.0565,,2,3.0
Y7Zr,0.0,-0.0280878,,2,3.0
PCl6KCs2,2.9382,-0.0157847,,2,3.0
O2Nd,0.0,-0.0215669,,2,3.0
MgInBa2,0.0,-0.029674,,2,3.0
Ga5OsNp,0.0,-0.03748,,2,3.0
Ga6AgSm,0.0,-0.0220671,,2,3.0
RuHfPt2,0.0,-0.0604786,,2,3.0
Co3Hf2,0.0,-0.0356963,,2,3.0
Pm3Dy,0.0,-0.0449254,,2,3.0
SiCuAu2,0.0,-0.0408834999999999,,2,3.0
Al3CoSn2Th3,0.0,-0.0449597,,2,3.0
SrCdAu4,0.0,-0.0553988,,2,3.0
AgSnPm2,0.0,-0.0394374,,2,3.0
ZnSeSr2,0.0,-0.0206172,,2,3.0
Zn2RuTh,0.0,-0.0398619,,2,3.0
Sc4In5Ir2,0.0,-0.0340178,,2,3.0
Ni,0.0,-0.0161731,,2,3.0
Sr2CdBi2,0.0866,-0.0472514,,2,3.0
P3Co5La,0.0,-0.0185914,,2,3.0
CuGeHf,0.0,-0.0329032,,2,3.0
NiY2Tl,0.0,-0.0365415,,2,3.0
O7NaP2Np,0.1031,-0.0185978,,2,3.0
SiRh2In,0.0,-0.0284467,,2,3.0
ZnSe2Zr6,0.0,-0.0271874,,2,3.0
BFe6U2,0.0,-0.0359619,,2,3.0
NiCuHo2,0.0,-0.0327084,,2,3.0
O2RbEu,0.0,-0.0241761,,2,3.0
AlNi2Hf2,0.0,-0.0337328,,2,3.0
Sc6CrTl2,0.0,-0.0278308,,2,3.0
Ga5RhPr,0.0,-0.0233435,,2,3.0
BAl2Ru2Pr,0.0,-0.0234081,,2,3.0
HoHg2Tl,0.0,-0.0647788999999999,,2,3.0
SiW,0.0,-0.040059,,2,3.0
O4BrTl,2.4399,-0.0195027,,2,3.0
H2Li3O10P2VMn,0.0,-0.0093103,,2,3.0
LiNi2Ga2,0.0,-0.0139104,,2,3.0
NaBa2Tl,0.0,-0.0392329,,2,3.0
S3CrZnRb,0.5627,-0.0147213999999999,,2,3.0
Al3Sc3Pd2,0.0,-0.0172034999999999,,2,3.0
Ga2Ag2Sn,0.0,-0.0261445,,2,3.0
O7NaP2Y,5.3843,-0.01171,,2,3.0
TiSnIr2,0.0,-0.0492306,,2,3.0
BrTeSm,0.3836,-0.035453,,2,3.0
Co3Zn2Nd,0.0,-0.0205593,,2,3.0
BaPtPb,0.0,-0.062646,,2,3.0
Ni3Se4Rh,0.0,-0.0206025,,2,3.0
LiCrSn4,0.0,-0.0274707,,2,3.0
InNdBi,0.0,-0.0525510999999999,,2,3.0
Ni3Cu2Tb,0.0,-0.0212181,,2,3.0
CuRhTm2,0.0,-0.038884,,2,3.0
FeTh3,0.0,-0.0764588,,2,3.0
O4Sr2Ce,2.2493,-0.0196671,,2,3.0
Mg4RbBi3,0.3961,-0.0349366,,2,3.0
ZnGeTe4Tl2,0.0,-0.0410537,,2,3.0
LiS2KCo,0.0,-0.010527,,2,3.0
OCu2Hg,0.5882,-0.0265424,,2,3.0
N2MgSi,4.0471,-0.0098131,,2,3.0
Fe3CoTm2,0.0,-0.0293579,,2,3.0
AsRbRu,0.0,-0.0257278,,2,3.0
Al3SrIr2,0.0,-0.0322128,,2,3.0
Sn3Dy3Pt2,0.0,-0.0500708,,2,3.0
O4CuTm2,0.0,-0.0235828999999999,,2,3.0
P2VMn,0.0,-0.0148303,,2,3.0
In2GdPt,0.0,-0.0498447,,2,3.0
CCaCo,0.0,-0.0124037,,2,3.0
AlZrRuRh,0.0,-0.0278367,,2,3.0
CaZrIr2,0.0,-0.046446,,2,3.0
Au2PbPu,0.0,-0.081326,,2,3.0
MnFe2Pu2,0.0,-0.0549247999999999,,2,3.0
Sn2Dy6Ir,0.0,-0.0485079,,2,3.0
PtAu7,0.0,-0.0692691,,2,3.0
S4FeCu2Sn,0.0,-0.0158072,,2,3.0
SePd2Cs,0.0,-0.0313844999999999,,2,3.0
O4MgPr2,2.4506,-0.0200574,,2,3.0
MgGeSm,0.0,-0.0235167,,2,3.0
Nb2Te6Pt,0.0,-0.0404465,,2,3.0
MgCe5,0.0,-0.0378513,,2,3.0
Zn2CeAc,0.0,-0.0407323999999999,,2,3.0
FeCo2In,0.0,-0.0215449,,2,3.0
N2VEu,0.0,-0.0237639,,2,3.0
Al15YEr4,0.0,-0.0177249,,2,3.0
KPtTl3,0.0,-0.0592152,,2,3.0
H2Ti2Mn,0.0,-0.0118583,,2,3.0
SnSm2Ir2,0.0,-0.0543536,,2,3.0
O6Sr2RhTm,0.0,-0.0193661,,2,3.0
ScCd7,0.0,-0.0284899999999999,,2,3.0
Ca2Zn3,0.0,-0.0123041,,2,3.0
PdPr6Bi2,0.0,-0.0507025999999999,,2,3.0
IBi,0.5813,-0.0578683,,2,3.0
Y2Pd3Sn,0.0,-0.0325532,,2,3.0
Al2Rh2Nd,0.0,-0.0263961,,2,3.0
In3Ir,0.0,-0.0430679999999999,,2,3.0
B4Mn3Mo3,0.0,-0.0193865,,2,3.0
LiO6FeLa2,0.5342,-0.0172506999999999,,2,3.0
F6SrAu,0.0473,-0.016311,,2,3.0
Co8Ta,0.0,-0.0227393,,2,3.0
TeTbBi,0.0,-0.0553127,,2,3.0
Al5Ni2Sm,0.0,-0.0151024,,2,3.0
CaRhBi,0.0,-0.0413566999999999,,2,3.0
ZnTm2Ir,0.0,-0.0479116,,2,3.0
Sn3Lu,0.0,-0.0411946,,2,3.0
Al2TmPt,0.0,-0.0355963,,2,3.0
TmLuHg2,0.0,-0.061576,,2,3.0
NiGaLu,0.0,-0.0300258,,2,3.0
Ni2InTe2,0.0,-0.0281714,,2,3.0
Co2RhCe2,0.0,-0.0318776,,2,3.0
RuNd2,0.0,-0.0409277,,2,3.0
Li2Sn2BaPt2,0.0,-0.03739,,2,3.0
Ca5Sr3,0.0,-0.0143734999999999,,2,3.0
F6NaK2Zn,0.0,-0.0081654,,2,3.0
O7NaP2Nd,5.1259,-0.01308,,2,3.0
V2Co9W,0.0,-0.0216716,,2,3.0
AlMn2Ni,0.0,-0.0155667,,2,3.0
Sc2Ge2Os,0.0,-0.0285257,,2,3.0
Si2SrRu,0.0,-0.0198909,,2,3.0
Pd2In3Th,0.0,-0.0441757,,2,3.0
NaMgCl6K2,0.0,-0.0091821,,2,3.0
ZnPdTb,0.0,-0.0318444,,2,3.0
MgNd,0.0,-0.0244027,,2,3.0
Ni2Sb2Nd,0.0,-0.0308,,2,3.0
Pd2In3Pr,0.0,-0.0355004,,2,3.0
NaHg2Bi,0.0,-0.0549916,,2,3.0
SSeCd2,0.7177,-0.0233622,,2,3.0
Cl6VRb2,0.0,-0.0136387,,2,3.0
CaLa2Pt2,0.0,-0.0483759999999999,,2,3.0
Ga5PrIr2,0.0,-0.0340901,,2,3.0
Ge2In3Ba3Au,0.0,-0.0368194,,2,3.0
AlZn5,0.0,-0.0125376999999999,,2,3.0
Si2Br,0.8948,-0.0134734,,2,3.0
LiY8,0.0,-0.0248974,,2,3.0
Ga2Rh2Pd,0.0,-0.027145,,2,3.0
MnRu2Hf,0.0,-0.0382436,,2,3.0
Ge2Nb2Mo,0.0,-0.0282502,,2,3.0
Au4Hg3,0.0,-0.0686205,,2,3.0
O4MnSr,0.0,-0.0131151,,2,3.0
MgPrTl,0.0,-0.0408064,,2,3.0
N2NdU,0.0,-0.0429293,,2,3.0
C2O6CdBa,3.4351,-0.0146926,,2,3.0
P4CaRh6,0.0,-0.0240107,,2,3.0
Si2Pd2Hf,0.0,-0.0303932,,2,3.0
Mg2Ir,0.0,-0.0274627,,2,3.0
Zr3Ir5,0.0,-0.056908,,2,3.0
CrFe2Zn,0.0,-0.0169833,,2,3.0
F7KIn2,3.8145,-0.0127919,,2,3.0
Be2NiPd,0.0,-0.0150183,,2,3.0
I6Cs2La,0.0,-0.0391248,,2,3.0
O8Mo2Ce,2.0997,-0.0174374,,2,3.0
NiCuLu2,0.0,-0.0359562,,2,3.0
PKCu2Se4,0.5022,-0.0165842,,2,3.0
Al7Cu2Y3,0.0,-0.0145758,,2,3.0
NGaSm3,0.0,-0.0328256,,2,3.0
Be2ZrTc,0.0,-0.0189072,,2,3.0
GaPdSm2,0.0,-0.03524,,2,3.0
O4BrDyBi2,1.1668,-0.0332436999999999,,2,3.0
Mg5Sm,0.0,-0.0115952,,2,3.0
Zr2Ag3,0.0,-0.0311681,,2,3.0
DyPt3,0.0,-0.0657389,,2,3.0
Cl6InSbCs2,0.2587,-0.0208927,,2,3.0
Si3TiPu,0.0,-0.0316651,,2,3.0
Na3S4Ta,3.2332,-0.0159709,,2,3.0
CuRu2Lu3,0.0,-0.0423943,,2,3.0
MgScLa2,0.0,-0.0263699,,2,3.0
S2CoSb,0.0,-0.0188384,,2,3.0
O8S2RbCs,0.0,-0.0122379999999999,,2,3.0
O6PdCdLa2,1.6003,-0.0210306,,2,3.0
Ge3SrOs,0.0,-0.0306761,,2,3.0
O8S2VCs,0.0,-0.0123866,,2,3.0
O6RuBa2Lu,0.0,-0.0234745999999999,,2,3.0
NF6KRb2,3.0607,-0.0097252,,2,3.0
Pt2Tl,0.0,-0.0709394999999999,,2,3.0
B2Fe2Gd,0.0,-0.0223257,,2,3.0
Li7O8Cr2,0.0,-0.0082777999999999,,2,3.0
TbErTl2,0.0,-0.0609778,,2,3.0
N2CsRe,0.0,-0.0321913,,2,3.0
ScSrAu2,0.0,-0.0446489,,2,3.0
H2O8MgSe2,3.4142,-0.0090014,,2,3.0
SScGe,0.0,-0.0156521,,2,3.0
CuZr2Sb3,0.0,-0.0319194999999999,,2,3.0
Rh2Te2Hg,0.0,-0.0423348999999999,,2,3.0
P3BrCd2,1.1005,-0.018966,,2,3.0
GaSb2Pr6,0.0,-0.0397496,,2,3.0
C2TaU,0.0,-0.0480266,,2,3.0
AsCsTb,0.0,-0.0357904,,2,3.0
ZnYHg,0.0,-0.0371343,,2,3.0
Fe4MoRe,0.0,-0.0296676,,2,3.0
KCu2Sb2Er,0.0,-0.0278901,,2,3.0
H3FeCo,0.0,-0.0089938,,2,3.0
Mg5Zr4,0.0,-0.0163986,,2,3.0
Al3Nd2Re,0.0,-0.0306771,,2,3.0
MnGe3Nd,0.0,-0.0243227,,2,3.0
Li2F5Cs3,5.998,-0.0165138999999999,,2,3.0