formula,bg,formation_energy,mp-id,fidelity,bg_category
NaCaSb,1.1377,-0.0179194999999999,,2,3.0
O4MnBa2,0.0,-0.020143,,2,3.0
LiFePt2,0.0,-0.0408075,,2,3.0
Cu2ZnHf,0.0,-0.0269,,2,3.0
B4Fe5Hf2,0.0,-0.0227478,,2,3.0
GeBr2Zr2,0.0,-0.0250926,,2,3.0
CaSn2Ac,0.0,-0.0436811,,2,3.0
S4CaEr2,1.1377,-0.0236434,,2,3.0
KBr2,1.9833,-0.0169889,,2,3.0
O4Na5Cr,0.0,-0.0080789,,2,3.0
NiSnPu,0.0,-0.0542787999999999,,2,3.0
MnRu2W,0.0,-0.0396075,,2,3.0
PdI4Cs2,1.003,-0.0375697,,2,3.0
KCdTe3Ho,1.3148,-0.0344167,,2,3.0
SePb,0.153,-0.0484981,,2,3.0
AlScY,0.0,-0.0168904,,2,3.0
AlPd2Ba,0.0,-0.0290146,,2,3.0
BO3Gd,3.0408,-0.0202727,,2,3.0
OClMn,0.0,-0.0125925,,2,3.0
B2Mn2Nb,0.0,-0.0174035,,2,3.0
CZnLu2,0.0,-0.033955,,2,3.0
CInNd3,0.0,-0.035321,,2,3.0
Sc2Sb2Hf,0.0,-0.0338797,,2,3.0
SnTe2Cs,0.0,-0.0376103,,2,3.0
Cu4LaHg,0.0,-0.0288788,,2,3.0
BCr,0.0,-0.0134238999999999,,2,3.0
N2SePa2,0.0,-0.0495153,,2,3.0
CdHf3Os2,0.0,-0.0609814999999999,,2,3.0
CuCdTh,0.0,-0.0473817,,2,3.0
Pd2TeLa2,0.0,-0.0389705,,2,3.0
O4TiV,0.0,-0.012695,,2,3.0
Al6PdTb,0.0,-0.016263,,2,3.0
BPd3Bi,0.0,-0.0370296,,2,3.0
O7NaP2Dy,5.3442,-0.0135153,,2,3.0
CoSn2Pr,0.0,-0.0336154,,2,3.0
Ni2Pa,0.0,-0.0443072,,2,3.0
FeCo2Tm2,0.0,-0.0314547,,2,3.0
CoSn3Er,0.0,-0.0353933,,2,3.0
Rb2RhI6,0.0,-0.0336817,,2,3.0
ZnRh2Tm3,0.0,-0.0403224,,2,3.0
F6ScSr,0.0,-0.0107012,,2,3.0
Ti6Te2Os,0.0,-0.0274713,,2,3.0
ZnAu5,0.0,-0.0599889,,2,3.0
O6MoLa2,3.6055,-0.0207452,,2,3.0
Al5HfIr,0.0,-0.0253055999999999,,2,3.0
Si4La3Ir4,0.0,-0.0423044999999999,,2,3.0
CoGa2Zr6,0.0,-0.0264696,,2,3.0
AsTcSb2,0.0,-0.0323704999999999,,2,3.0
PMn5,0.0,-0.0172115,,2,3.0
TiCu2Au,0.0,-0.029172,,2,3.0
CuCd2Sm,0.0,-0.0304516999999999,,2,3.0
OSnPu3,0.0,-0.0755335,,2,3.0
F8SrNp2,0.0,-0.0278479,,2,3.0
P4Rh6Ho,0.0,-0.0276536,,2,3.0
F6K3As,4.2402,-0.009242,,2,3.0
SMnPd5,0.0,-0.0277781,,2,3.0
Co2SnPa,0.0,-0.0427161,,2,3.0
Rh2In3Nd3,0.0,-0.0380451,,2,3.0
Mg2CoNd,0.0,-0.0177517999999999,,2,3.0
B2N3Co2U3,0.0,-0.0397137,,2,3.0
SmEr3,0.0,-0.048857,,2,3.0
O4CeLu,0.2893,-0.0242435,,2,3.0
RhPdDy2,0.0,-0.0415267,,2,3.0
BrInBa2,0.0,-0.0341505,,2,3.0
Ag4HgPb,0.0,-0.0447882,,2,3.0
Ni2Rh3Np,0.0,-0.0401753,,2,3.0
Ho2Au,0.0,-0.0566027,,2,3.0
FeCuBr4,0.079,-0.0191069,,2,3.0
Al5Mn2Pu,0.0,-0.0234362,,2,3.0
NiGe2Pa,0.0,-0.0390395,,2,3.0
YCeTl2,0.0,-0.0548144,,2,3.0
OFTi,0.0,-0.0119534,,2,3.0
NaGa3Os,0.0,-0.0252949,,2,3.0
Ta2Pt2Au,0.0,-0.069093,,2,3.0
RuLu2Au,0.0,-0.0545262,,2,3.0
O3Cs2Ho,0.0,-0.0260734,,2,3.0
PdIn6La,0.0,-0.0349731,,2,3.0
Te4Pt3,0.0,-0.0518911,,2,3.0
Al3Si2Ho3Ir,0.0,-0.0300134,,2,3.0
RbCd2Pb2,0.0,-0.0468404,,2,3.0
BrInHg,0.0,-0.0407436,,2,3.0
FeTb6Tl2,0.0,-0.0495209,,2,3.0
O6YSbEu2,0.1651,-0.0238374999999999,,2,3.0
RuTa2,0.0,-0.0563429,,2,3.0
FeCu,0.0,-0.0166273,,2,3.0
Li2AgTl,0.0,-0.0273974,,2,3.0
Al3RhHo2,0.0,-0.0266598,,2,3.0
AsTePt,0.0,-0.0430245999999999,,2,3.0
Y3RuPt2,0.0,-0.0442323,,2,3.0
SiCoTc2,0.0,-0.0246311,,2,3.0
Ge2OsTh,0.0,-0.0520801,,2,3.0
LiZn2Rh,0.0,-0.0162363,,2,3.0
H6AlRb2Tl,0.3994,-0.0144174,,2,3.0
Tb8Se15,0.251599999999999,-1.964843762832879,mp-1217676,2,3.0
C4MgTb3,0.0,-0.0235216,,2,3.0
Sc2AgOs,0.0,-0.0334972,,2,3.0
Fe3Ni2Ce,0.0,-0.0219914999999999,,2,3.0
OFPm,5.4205,-0.0220246999999999,,2,3.0
SiScIr,0.0,-0.0330913,,2,3.0
CaYPt4,0.0,-0.0542507,,2,3.0
H8CrCd2Ce,0.0,-0.0127029,,2,3.0
MgTmPb,0.0,-0.0447183,,2,3.0
AlGe2La2,0.0,-0.0272113,,2,3.0
Ga6LaOs,0.0,-0.0270734,,2,3.0
MgRuTm,0.0,-0.030856,,2,3.0
Li2F6Eu,0.0,-0.011864,,2,3.0
Ca2Ni2Sn,0.0,-0.0179077,,2,3.0
S2KTb,2.1216,-0.0207416,,2,3.0
Ni2Se4Pd,0.0,-0.0210861,,2,3.0
Ga2Rh2Dy,0.0,-0.0305198,,2,3.0
YAgBi2,0.0,-0.0546197,,2,3.0
ScCu4Pb,0.0,-0.0252577,,2,3.0
Al3Cu2Pr,0.0,-0.0166826,,2,3.0
CSm3Tl,0.0,-0.0436911,,2,3.0
NiAsLu2,0.0,-0.0377489,,2,3.0
Sr3Ir,0.0,-0.0346785,,2,3.0
CaPd2Gd,0.0,-0.0342898,,2,3.0
B2CCo2Pu,0.0,-0.028507,,2,3.0
SSe2Cs2,0.0,-0.0258222,,2,3.0
As2Ru2Cs,0.0,-0.0300886,,2,3.0
Al6NiU,0.0,-0.0209704,,2,3.0
S4Cu4Hf,1.5518,-0.0186846,,2,3.0
GaTbPt,0.0,-0.0457551,,2,3.0
Na2GeBa,0.0,-0.0170244,,2,3.0
Cu2Zn2Au,0.0,-0.0253843999999999,,2,3.0
CuSnLa,0.0,-0.0321119,,2,3.0
Te3BaTbAu,0.4154,-0.0459302,,2,3.0
Be2AsI,1.6196,-0.0166592,,2,3.0
Li8O4F2Co,0.3623,-0.0066932,,2,3.0
B2N3Rh2Dy3,0.0,-0.0268378,,2,3.0
Mn2Er2Tl,0.0,-0.042001,,2,3.0
BaTl4Pb,0.0,-0.0676668,,2,3.0
Rh2CeAu,0.0,-0.0458894,,2,3.0
MnYIn5,0.0,-0.0307828,,2,3.0
SiZnSm,0.0,-0.0233743,,2,3.0
SnTe2Ta,0.0,-0.0444137,,2,3.0
Rh2InTm2,0.0,-0.0418541,,2,3.0
SrCdAu,0.0,-0.0413537,,2,3.0
InHoPt4,0.0,-0.0614394,,2,3.0
SrI3Cs,3.6706,-0.0358626,,2,3.0
ScTe2Au,0.1012,-0.0403511,,2,3.0
Ge3DyIr,0.0,-0.0359403,,2,3.0
LiBO4V,0.0,-0.0099879,,2,3.0
Be2NiCu,0.0,-0.0103988999999999,,2,3.0
LiSn4Au,0.0,-0.0359843,,2,3.0
SrInHg2,0.0,-0.0485072,,2,3.0
SK,1.4043,-0.0100833,,2,3.0
InAu3,0.0,-0.0603615,,2,3.0
S4TiCu2Rb2,1.5976,-0.0152727,,2,3.0
Al3FeGe2Nb3,0.0,-0.0202704999999999,,2,3.0
AsSePb2,0.0,-0.0481683,,2,3.0
NCaCu,0.4223,-0.012061,,2,3.0
Br2Hg3,0.964,-0.0489401999999999,,2,3.0
O2NaTb,3.9843,-0.0189266,,2,3.0
S4Cu2ZnGe,0.4341,-0.0132229,,2,3.0
O6VSr2Mo,0.0,-0.0162818,,2,3.0
NOKGe,2.8889,-0.0119094,,2,3.0
HN,4.1755,-0.006439,,2,3.0
CuAs2Tm,0.0,-0.0277513,,2,3.0
B6Co2Tb,0.0,-0.0144719,,2,3.0
Cu2PdAg,0.0,-0.0236609,,2,3.0
Mg4Sb3Cs,0.8692,-0.0217460999999999,,2,3.0
AlMo2Ta,0.0,-0.0362245,,2,3.0
MnRh2Hf,0.0,-0.0380539,,2,3.0
O8P2BaHo,0.0,-0.0162325,,2,3.0
CoOs3,0.0,-0.0581148,,2,3.0
SiRuLa,0.0,-0.0301905,,2,3.0
Li2GeAu,0.0,-0.0238817999999999,,2,3.0
AgPt2,0.0,-0.0572521,,2,3.0
Sc3Zr2,0.0,-0.0207625,,2,3.0
SiCuSm,0.0,-0.0239045999999999,,2,3.0
O4SrRh,0.0,-0.0148545,,2,3.0
AlGeEu,0.0,-0.0274444,,2,3.0
NbSbLu,0.0,-0.0426052,,2,3.0
PSc2Cd,0.0,-0.0182516,,2,3.0
Se3Dy,0.0,-0.0283403999999999,,2,3.0
P2In2Ba,0.0656,-0.0261144,,2,3.0
ScSbEr,0.0,-0.0348323,,2,3.0
CdCs2Au2,0.0,-0.0491504,,2,3.0
Co8Cu,0.0,-0.0170142,,2,3.0
Al2CuTm,0.0,-0.0211592,,2,3.0
MnSe2Au,0.0,-0.0322563,,2,3.0
SbTl,0.0,-0.0547772999999999,,2,3.0
Cd5Ba,0.0,-0.0322265,,2,3.0
SiCe2Ir3,0.0,-0.0531539,,2,3.0
CN2Mg,3.6941,-0.0092005,,2,3.0
NaCa2CoLa,0.0,-0.0166965,,2,3.0
LiPd2Tl,0.0,-0.0354805,,2,3.0
AlSc2Pt2,0.0,-0.0367096,,2,3.0
Cl2SnDy2,0.0,-0.0311537,,2,3.0
S3CuBaNd,0.97,-0.0231198,,2,3.0
LiEr2Au,0.0,-0.0436451,,2,3.0
LiPMn,0.0,-0.0110439,,2,3.0
B4TmHf,0.0,-0.0249315,,2,3.0
SbAu4,0.0,-0.0627071,,2,3.0
F6KRb3,0.0,-0.0114576,,2,3.0
Cl6SrSnCs2,3.416,-0.0201984,,2,3.0
HoIr2Pu,0.0,-0.0759556999999999,,2,3.0
Pd2InPr2,0.0,-0.0380118999999999,,2,3.0
CuSnAc2,0.0,-0.0584065999999999,,2,3.0
PdBiPa,0.0,-0.0707286,,2,3.0
OFe,0.0,-0.0134471,,2,3.0
GeAgLa2,0.0,-0.0347636,,2,3.0
LiBr4Rh,0.7296,-0.0199048,,2,3.0
P2KAg2,0.0,-0.0185752,,2,3.0
N3Ca3Cr,0.0,-0.011885,,2,3.0
SiCoIr2,0.0,-0.0427299,,2,3.0
Mn2Ir3Pu,0.0,-0.0603635999999999,,2,3.0
Ge2InPr2,0.0,-0.032485,,2,3.0
CFe2Sn2Tb2,0.0,-0.0306325,,2,3.0
BrSr2Hg,0.0,-0.0342381999999999,,2,3.0
MgNi4Pa,0.0,-0.028591,,2,3.0
F6ScSm,6.8358,-0.0142186,,2,3.0
C5Ti8,0.0,-0.0145469,,2,3.0
O6Sr2RhLa,0.0,-0.0182973,,2,3.0
Mg2Sn2Tl,0.0,-0.030923,,2,3.0
H4SmPt,0.0,-0.0219838999999999,,2,3.0
RuCeOs,0.0,-0.0507466,,2,3.0
Si2Mn3Th,0.0,-0.0289775,,2,3.0
Sc2RhIr,0.0,-0.0345619999999999,,2,3.0
S3ZrBa,0.3681,-0.0219082,,2,3.0
LiP2Rh2Np,0.0,-0.0338115,,2,3.0
SiCr3,0.0,-0.0166083,,2,3.0
OCaSc2Hg,0.0,-0.0241323,,2,3.0
Ge2PtPa,0.0,-0.0526801,,2,3.0
CSiRu2Pr,0.0,-0.0272487,,2,3.0
Si2PdU,0.0,-0.0394688,,2,3.0
MnSn2Th6,0.0,-0.0742413,,2,3.0
O6CoBa2Bi,0.0,-0.0230926,,2,3.0
K3Tl,0.0,-0.0244000999999999,,2,3.0
K2Au2Pb,0.0,-0.0464660999999999,,2,3.0
Cd2Sn2Pb,0.0,-0.0415742,,2,3.0
Al2Ni2Au,0.0,-0.0239735,,2,3.0
BeCu2Sr,0.0,-0.0143265999999999,,2,3.0
FSrSbTe2,0.3581,-0.0291801,,2,3.0
Br6AgCs2Au,0.0,-0.0302927,,2,3.0
AlPdTe2,0.0,-0.0292546999999999,,2,3.0
FeSb2Th2,0.0,-0.0575423,,2,3.0
F12MnSb2,1.4491,-0.0115122,,2,3.0
SCrSb,0.5671,-0.0222451,,2,3.0
S3CuSrIn,0.5832,-0.0177467,,2,3.0
H6FeSr2,1.0288,-0.0098886,,2,3.0
K2BrI,3.634,-0.0199453,,2,3.0
FeAsZr,0.0,-0.0238093,,2,3.0
P4Co2Eu,0.0,-0.019257,,2,3.0
Fe3Dy2,0.0,-0.0299640999999999,,2,3.0
O4ZnW,2.806,-0.0201037999999999,,2,3.0
AsRhEr,0.0,-0.0360496,,2,3.0
CeHg2Tl,0.0,-0.0637492,,2,3.0
Se3Tl2,0.5956,-0.0412248999999999,,2,3.0
Al3Sc2Ru,0.0,-0.0151507,,2,3.0
S2CuNb,0.0,-0.0177577,,2,3.0
Se2YIn,0.4797,-0.0268118,,2,3.0
HoTl,0.0,-0.0611971,,2,3.0
BrAgTe,0.2009,-0.0295816,,2,3.0
Y2OsTl,0.0,-0.0504745,,2,3.0
Si3NiPr3,0.0,-0.0259127,,2,3.0
KTi2As2,0.0,-0.0169341,,2,3.0
O2AgNd,2.7423,-0.0242076,,2,3.0
O4Ni2Zn,0.0,-0.0114632,,2,3.0
Al3Ge2Pr3Re,0.0,-0.0297944999999999,,2,3.0
SiCo2W,0.0,-0.0288126,,2,3.0
MgSrPb2,0.0,-0.045166,,2,3.0
MoTaPt2,0.0,-0.0611125,,2,3.0
Ni2TcRe,0.0,-0.0346529,,2,3.0
S4K3Rh,0.5302,-0.0130121,,2,3.0
P2Cu2RbSr,0.0,-0.0163362,,2,3.0
CrMnSe3Tl,0.0,-0.0288822,,2,3.0
Ba3Hg2Bi4,0.0,-0.064001,,2,3.0
O4Ca2Ti,1.8432,-0.0119669,,2,3.0
SiIr2Pa,0.0,-0.0639401,,2,3.0
P4Co6Tm,0.0,-0.0186402,,2,3.0
Se2BrCdBi,1.2572,-0.0342969,,2,3.0
PdInPa,0.0,-0.0557311,,2,3.0
Al3CuGe2Gd3,0.0,-0.0288108,,2,3.0
LiMg2Zr,0.0,-0.0107622999999999,,2,3.0
Ca2YTl,0.0,-0.0301966,,2,3.0
Se3InEr4,0.0,-0.0384529,,2,3.0
CuZnPr,0.0,-0.0243026,,2,3.0
Li3Sb2Gd,0.0,-0.0242931999999999,,2,3.0
Se3SbTb4,0.0,-0.0373489,,2,3.0
Al2FeZr6,0.0,-0.0244939,,2,3.0
TiNi2Zr2,0.0,-0.0223021,,2,3.0
CSi2Cr2Lu2,0.0,-0.0259794,,2,3.0
FeSn2Ta6,0.0,-0.0543958,,2,3.0
NaS3MnTa,0.0,-0.0207616,,2,3.0
MgAl3Hf2,0.0,-0.0258957,,2,3.0
Se3BaPrPt,0.0,-0.0371847,,2,3.0
Ag8Sb,0.0,-0.0319998,,2,3.0
MgCo2Ho2,0.0,-0.0276235,,2,3.0
O4Na3Ta,3.4764,-0.0154366,,2,3.0
KCaZnSe3,0.0,-0.0165425,,2,3.0
P2Co2Y,0.0,-0.0176927999999999,,2,3.0
MnIrPt2,0.0,-0.0578881,,2,3.0
O12Si4Ca2CoNi,0.0,-0.011203,,2,3.0
HO5PTi,2.4788,-0.0101742,,2,3.0
PMoHf,0.0,-0.0370135,,2,3.0
CuY2Ru,0.0,-0.0268219,,2,3.0
RhLa6Pb2,0.0,-0.0500191,,2,3.0
P2Ni2Th,0.0,-0.030801,,2,3.0
Sb2Er6Pt,0.0,-0.0505953,,2,3.0
ZnNbIr,0.0,-0.0397778,,2,3.0
MgCuZn2,0.0,-0.0119255,,2,3.0
Li4O12VCrTe2,0.0,-0.0116568,,2,3.0
LiNiBa3,0.0,-0.0273542,,2,3.0
PRbPd2,0.0,-0.0245437,,2,3.0
CCa2Ir,0.0,-0.0254665,,2,3.0
Si2Ni2Ba,0.0,-0.0189466,,2,3.0
Rb7Th6F32,0.9456,-3.996548054277777,mp-1179390,2,3.0
OYLa3,0.0,-0.0339367,,2,3.0
O7Si2YNb,0.0,-0.0143949,,2,3.0
SiAs2,0.0838,-0.0168019,,2,3.0
N6Cr2Nd3,0.0,-0.0215318,,2,3.0
O2PdAg2,0.0,-0.0219264,,2,3.0
HBr2Dy2,0.0,-0.028985,,2,3.0
S8ZnNb6,0.0,-0.02037,,2,3.0
O5MgFe2,0.0,-0.01082,,2,3.0
AlRu2Ho2,0.0,-0.0357006999999999,,2,3.0
Be4MgCr,0.0,-0.0068378,,2,3.0
O2Rb3Ag,1.5225,-0.018709,,2,3.0
BaPt2Pb2,0.0,-0.0669437,,2,3.0
RhCe2,0.0,-0.0414695,,2,3.0
NaRbI2,3.1941,-0.0260704,,2,3.0
Ge3CeAu,0.0,-0.0347049,,2,3.0
ScCuSe3Sr,0.5602,-0.0203129999999999,,2,3.0
Li95Mn16O64,0.0,-2.04597348419179,mp-1185524,2,3.0
HIEr,0.0,-0.0312688,,2,3.0
NEu,0.0,-0.0325367,,2,3.0
Ru2SnNd2,0.0,-0.0390259,,2,3.0
Si2Sr,0.0,-0.0144883,,2,3.0
NaAsEu,0.0473,-0.0270199,,2,3.0
Be4ZnIr,0.0,-0.0174679,,2,3.0
SAsZr,0.0,-0.0215794,,2,3.0
LiNi2Sb2Tb,0.0,-0.0266919,,2,3.0
OZnSbTm,0.0818,-0.0290523,,2,3.0
O2CuBr2Eu2,0.0,-0.0270351,,2,3.0
RhIn2Ho,0.0,-0.0381135,,2,3.0
ScGaIr2,0.0,-0.0441257,,2,3.0
NaHgBi,0.0,-0.05059,,2,3.0
Se2BrTc,0.0,-0.0240534,,2,3.0
Al3Ge2Hf3Pt,0.0,-0.0362879999999999,,2,3.0
O8As2SbCs,2.423,-0.0153005,,2,3.0
Fe2CuPt,0.0,-0.0306771,,2,3.0
MgSc2Ru2,0.0,-0.02102,,2,3.0
SiZr2Rh,0.0,-0.0272289,,2,3.0
Cu2ZnTm,0.0,-0.0242262,,2,3.0
SiCo2Dy2,0.0,-0.0284807999999999,,2,3.0
HRh3Tl,0.0,-0.0353635999999999,,2,3.0
TiGeHf,0.0,-0.0333493,,2,3.0
PdIn3Ba,0.0,-0.0351042,,2,3.0
N2TbPu,0.0,-0.0454519,,2,3.0
O6CaAsBa2,0.0,-0.0171298,,2,3.0
LiO4CuSb,0.4591,-0.0129228,,2,3.0
AlP2KSe7,1.325,-0.0166658,,2,3.0
Cd2In2Cs,0.0,-0.0332003,,2,3.0
MgSc3Ir2,0.0,-0.0325349999999999,,2,3.0
Ca2Sr,0.0,-0.0138518,,2,3.0
Ti2FeRh,0.0,-0.0216273,,2,3.0
NiSbEu,0.0,-0.0364473,,2,3.0
MoRu7,0.0,-0.0347423,,2,3.0
Ti6NiPb2,0.0,-0.0295852,,2,3.0
KSrBa,0.0,-0.0233144,,2,3.0
FeTc7,0.0,-0.0328614,,2,3.0
O6AgBa2Nd,0.6876,-0.0212824,,2,3.0
HO3I,2.8476,-0.0122796,,2,3.0
TiGa2Mo2,0.0,-0.0240153,,2,3.0
Ti2Ga4Tm,0.0,-0.0219629,,2,3.0
AgSnU,0.0,-0.0569005999999999,,2,3.0
Sc2TePb,0.0,-0.0363476,,2,3.0
Ca2CuAu,0.0,-0.0265020999999999,,2,3.0
Ti2Rh3,0.0,-0.0274958,,2,3.0
Be2Co,0.0,-0.008962,,2,3.0
H4LiO10P2Mn2,0.0,-0.0091495999999999,,2,3.0
Cu2SrRh,0.0,-0.0217579,,2,3.0
NCo3Pd,0.0,-0.0188245,,2,3.0
Ga2YIr2,0.0,-0.0414421,,2,3.0
H3FeU,0.0,-0.0264891,,2,3.0
PY2Bi,0.0,-0.0375681,,2,3.0
AsGd,0.0,-0.0411449,,2,3.0
NaSe2Eu,0.0,-0.0261442,,2,3.0
Ti2TcPt,0.0,-0.0352706999999999,,2,3.0
Si2Nb2Pd,0.0,-0.0244852,,2,3.0
PAsCd,0.4737,-0.0204519,,2,3.0
ScAuPb2,0.0,-0.0591884,,2,3.0
Si3Zn6Sm2,0.0,-0.0186210999999999,,2,3.0
O6V2Mn,0.0046,-0.0125569,,2,3.0
SmBiPu,0.0,-0.0782732,,2,3.0
FeGa3Ge2Dy3,0.0,-0.0283322,,2,3.0
F6NaCuCs2,0.9193,-0.0141871,,2,3.0
Na2Te3Hf,0.8347,-0.0314902,,2,3.0
NaS2Eu,0.0,-0.0210246,,2,3.0
LiZn2Y2,0.0,-0.0173159999999999,,2,3.0
SiCdSm,0.0,-0.0288159999999999,,2,3.0
O2BrHg,0.0,-0.025038,,2,3.0
N2Pr7Pb3,0.0,-0.0467907,,2,3.0
ZnGeBa,0.0,-0.0246008,,2,3.0
AlZn2Gd,0.0,-0.0237983,,2,3.0
MgPt2Th2,0.0,-0.0686315,,2,3.0
SbTl2Pb,0.0,-0.0644338999999999,,2,3.0
YTaIr2,0.0,-0.0599786,,2,3.0
PNdAu,0.0,-0.042232,,2,3.0
Ba3Tl,0.0,-0.0480644,,2,3.0
Si2GdIr2,0.0,-0.0454069,,2,3.0
AsZrPd5,0.0,-0.0314069,,2,3.0
CoBrTe2,0.0,-0.0279978,,2,3.0
CuGe2In3Pr3,0.0,-0.0321969,,2,3.0
Li4O8Ti3Nb,0.0,-0.0114853,,2,3.0
Al3SiU2,0.0,-0.0402063,,2,3.0
H8MnZn2Sr,0.0,-0.0080737,,2,3.0
S4K2Co3,0.6037,-0.0127157,,2,3.0
ClBrSr,4.6491,-0.0191185,,2,3.0
Li2O8VCr3,0.0,-0.0116084,,2,3.0
NiCu2Se4Sn,0.0,-0.0206084,,2,3.0
CuSbNd,0.0,-0.0328679,,2,3.0
Pd2SnAc,0.0,-0.0488644,,2,3.0
B12Hf,0.0,-0.0119045,,2,3.0
LiF6CrIn2,1.5309,-0.0134407,,2,3.0
OBrPm,4.3027,-0.0264312,,2,3.0
HLi3Ag,0.0,-0.0086275,,2,3.0
LiF6Rh,0.0,-0.0091354,,2,3.0
SiNbTm,0.0,-0.0323314,,2,3.0
CeBiTh,0.0,-0.0735609,,2,3.0
B2Mo2Rh,0.0,-0.0241051,,2,3.0
ScY2Ag,0.0,-0.0254879,,2,3.0
LiNaHg2,0.0,-0.0360848999999999,,2,3.0
H6LiO6Al2Cl,5.2882,-0.0071913,,2,3.0
Be2CrTc2,0.0,-0.0197056,,2,3.0
Si2In3Tm3Ir,0.0,-0.039257,,2,3.0
GeSr3I2,0.0,-0.0278312,,2,3.0
O6TiTeLa,0.0,-0.0174447,,2,3.0
Ga5PdEu,0.0,-0.0245442999999999,,2,3.0
ZnYI,0.0,-0.0270247999999999,,2,3.0
LiMgCuIn,0.0,-0.014282,,2,3.0
O4NbNd,3.3981,-0.0202761,,2,3.0
H4NiRb,0.0175,-0.0086099,,2,3.0
Sr2RhAu,0.0,-0.0373671,,2,3.0
Nb3In,0.0,-0.0332963,,2,3.0
SiS4Cu2Zn,1.3778,-0.0122131,,2,3.0
Zn2Nb3Cd,0.0,-0.0262343,,2,3.0
SrAg2Sb2,0.0,-0.0324154,,2,3.0
LaPt4Tl,0.0,-0.066893,,2,3.0
LiRh2Ta,0.0,-0.0347852,,2,3.0
ZnHgTh,0.0,-0.0595283,,2,3.0
H10B2N2Ca,3.5141,-0.0056799999999999,,2,3.0
SnPtNp,0.0,-0.0715273,,2,3.0
NaMgP2Cu2,0.0,-0.0104913,,2,3.0
Al2Pd2Tb,0.0,-0.0265692999999999,,2,3.0
O8Mn3Cd2,0.6299,-0.0146486,,2,3.0
O6NiZnEr2,1.2792,-0.0193624,,2,3.0
HTeHo,1.4308,-0.031155,,2,3.0
NaGa4Np,0.0,-0.0295269,,2,3.0
LiO4SK,5.4413,-0.0086047,,2,3.0
F3RbCd,3.0255,-0.0149983,,2,3.0
GeNbRh,0.0,-0.0293360999999999,,2,3.0
Al2Zr6Ru,0.0,-0.0264752,,2,3.0
Ag4InSb,0.0,-0.0326039,,2,3.0
Li2O8Ni3W,0.0,-0.0140778999999999,,2,3.0
BO3Al,5.7396,-0.0097839,,2,3.0
NiSr2Au,0.0,-0.0329052,,2,3.0
SSe2Tb,0.0,-0.025594,,2,3.0
NaCu4As2,0.0,-0.015257,,2,3.0
Si2Ru3Tb,0.0,-0.0292849,,2,3.0
Cl2BrZr,0.0,-0.0182705,,2,3.0
MgCa2Pd2,0.0,-0.0186939,,2,3.0
Al3CuHo2,0.0,-0.0232520999999999,,2,3.0
NiTb2Pt2,0.0,-0.0511246,,2,3.0
K3Cd,0.0,-0.0138277,,2,3.0
ZnSe4Nb2,0.0,-0.0236855,,2,3.0
CaSe4SnAu2,0.8888,-0.0337006,,2,3.0
Li2O6FeTe,0.0,-0.0113189,,2,3.0
F6MgK3,0.1157,-0.008003,,2,3.0
LiTe2Cs,0.0,-0.0296131,,2,3.0
P2Ti2Mo,0.0,-0.0185534,,2,3.0
Li2InBi,0.1501,-0.0296008,,2,3.0
Ga3Ru2Lu2,0.0,-0.0334507,,2,3.0
ClCuSe2,0.653,-0.0161668,,2,3.0
LiO6Y2W,0.0,-0.01953,,2,3.0
Al4RuHo,0.0,-0.0197935,,2,3.0
FRb3Bi,0.0,-0.0302158,,2,3.0
Li4Ir3,0.0,-0.0320690999999999,,2,3.0
NiZrBi,0.0,-0.0422502,,2,3.0
O4LaPu,0.1892,-0.0331348,,2,3.0
Li5Pb3,0.0,-0.0302784,,2,3.0
Li6O6Te,3.4027,-0.0087744,,2,3.0
Li2NdPb,0.0,-0.0315297,,2,3.0
N3MgRe,1.1003,-0.0210858,,2,3.0
SrY5,0.0,-0.0268165,,2,3.0
O3KAs,3.0686,-0.0110916,,2,3.0
O3RbRhSm,0.0,-0.0217909,,2,3.0
CSc3Pb,0.0,-0.0265889999999999,,2,3.0
Be4MnPt,0.0,-0.0182387,,2,3.0
C4Sr3Ru,0.0,-0.0178305,,2,3.0
CdIn2Hg,0.0,-0.0412897,,2,3.0
ClTeLa2,0.0,-0.0345818,,2,3.0
Zn2YEr,0.0,-0.0267469,,2,3.0
ZnNb2In,0.0,-0.0284348,,2,3.0
K12In2Se9,1.5563,-1.2474233211490031,mp-570411,2,3.0
Al4CuZr2,0.0,-0.0158976,,2,3.0
Br2SnLu2,0.0,-0.0384652,,2,3.0
YRhSb2,0.0,-0.0349285,,2,3.0
CaSrAgTe3,0.0,-0.03035,,2,3.0
H6NiNd2,0.1074,-0.014315,,2,3.0
PdHfPt2,0.0,-0.0601161,,2,3.0
CuSe2Er6,0.0,-0.0405047,,2,3.0
AlSr2Cd,0.0,-0.0209272,,2,3.0
Sr2Sn3,0.0,-0.0311089,,2,3.0
Fe4ZnEr,0.0,-0.0227558,,2,3.0
Ce2Hf,0.0,-0.0505196,,2,3.0
Ni2ILa2,0.0,-0.031835,,2,3.0
FeAsMo,0.0,-0.0244973,,2,3.0
O4CeDy,0.0,-0.022939,,2,3.0
BCCoLu,0.0,-0.0230565,,2,3.0
H2CNd2,0.0,-0.0213275,,2,3.0
B2Co3Pr,0.0,-0.0186238,,2,3.0
Au2Pb2Bi,0.0,-0.0737206,,2,3.0
Mg3Al3Ge2Pt,0.0,-0.0168441,,2,3.0
RhICe,0.0,-0.0394572,,2,3.0
MgZn2Ho3,0.0,-0.0301399,,2,3.0
GeErTa,0.0,-0.0460065,,2,3.0
OAsPdLa,0.0,-0.0276962,,2,3.0
N2DyPu,0.0,-0.0457301,,2,3.0
NiSe,0.0,-0.0184344,,2,3.0
ZrAg2Cd,0.0,-0.0310974,,2,3.0
Be2F5Tl,4.6527,-0.0154248999999999,,2,3.0
CuSe3SnSm,0.912,-0.0269834,,2,3.0
Si2PbTh2,0.0,-0.0580071999999999,,2,3.0
LiMgSnIr,0.0,-0.0291701,,2,3.0
Mg3SrPd,0.0,-0.0143575,,2,3.0
Rh2TbEr,0.0,-0.0421765,,2,3.0
Si3TiEu,0.0,-0.0204643,,2,3.0
Ca2CoSe,0.0,-0.0149529,,2,3.0
LiIn4Eu,0.0,-0.0320817,,2,3.0
CuSe3BaTb,0.7808,-0.0287367,,2,3.0
OFCr,0.7476,-0.012168,,2,3.0
CaSnTl2,0.0,-0.0478658,,2,3.0
RhBa2Tl,0.0,-0.046633,,2,3.0
LiSe2Hf,0.0,-0.0277253,,2,3.0
Be5Lu,0.0,-0.0130014,,2,3.0
Ga3Tm2Os,0.0,-0.0381706,,2,3.0
Si7Co2Dy3,0.0,-0.0213123,,2,3.0
LiTi2Pt2,0.0,-0.0359097,,2,3.0
Cl2KAg,1.929,-0.0152585,,2,3.0
Ag2LaPr,0.0,-0.0375963,,2,3.0
FeGe2In3La3,0.0,-0.0323636,,2,3.0
O6TiZrBa2,2.2819,-0.0198239,,2,3.0
Sc3In3Au2,0.0,-0.035978,,2,3.0
SrTe2Eu,0.0,-0.0395134,,2,3.0
CoTe2Hf6,0.0,-0.0524817,,2,3.0
PAsTm2,0.0,-0.0352341,,2,3.0
SiRe,0.0,-0.0408451,,2,3.0
SnLa2Hg,0.0,-0.048374,,2,3.0
TiGeNd,0.0,-0.026959,,2,3.0
MoTc8,0.0,-0.0349621,,2,3.0
KMo3Te3,0.0,-0.0326529,,2,3.0
MgZnIr,0.0,-0.0302406,,2,3.0
AlPCs,0.0,-0.0191031,,2,3.0
O8V2Rb3Lu,3.3223,-0.0172928,,2,3.0
CoIn2Pa6,0.0,-0.0758052,,2,3.0
YLuTl2,0.0,-0.0574958,,2,3.0
Mg2CaZr,0.0,-0.0125201,,2,3.0
Rh2Cd3La,0.0,-0.0340007,,2,3.0
CSi2Sr2Re2,0.0,-0.0312856,,2,3.0
Zn2Pd3Pu,0.0,-0.0396621,,2,3.0
Al3Ge2Ho3Re,0.0,-0.0317734,,2,3.0
Al2Pd3Tm,0.0,-0.0286026,,2,3.0
Ge2Nb2Ta,0.0,-0.0347002,,2,3.0
O7Ge2Pr2,3.8639,-0.0180427,,2,3.0
FeSnHf,0.0,-0.0390916,,2,3.0
S2NbTl,0.0,-0.0321708,,2,3.0
LiO2Rh,1.3603,-0.0136502999999999,,2,3.0
Mg2CaTl,0.0,-0.0232789,,2,3.0
PPdCs2,0.0,-0.0301433,,2,3.0
Cu3ZnSe4,0.0,-0.0176296999999999,,2,3.0
Mg3La5,0.0,-0.0288515,,2,3.0
NFY6In2,0.0,-0.0259274,,2,3.0
RhTmAu2,0.0,-0.0568579,,2,3.0
Li4O8Mn3Nb,0.0,-0.0114718,,2,3.0
S4TeTm,0.0,-0.0220562,,2,3.0
GeInBa,0.0,-0.0312546,,2,3.0
TiNi3Te4,0.0,-0.0270213,,2,3.0
Si3NbU,0.0,-0.0336007,,2,3.0
SrPdPb3,0.0,-0.0569729999999999,,2,3.0
Na2Sn2La,0.0,-0.0251476,,2,3.0
Mg3Zn3Y2,0.0,-0.0142268,,2,3.0
Ga4Cs,0.0,-0.0207154999999999,,2,3.0
H2CO6PMn,1.2776,-0.0093104,,2,3.0
S3BaU,0.0,-0.0362239,,2,3.0
SiSbPt5,0.0,-0.0573522,,2,3.0
F2BrCs,3.052,-0.0179637,,2,3.0
O4Ca3Mn,0.9774,-0.0119178999999999,,2,3.0
O8Se2RbAg,0.8788,-0.0126416,,2,3.0
Ni2BrDy2,0.0,-0.0303633,,2,3.0
AgLu2Hg,0.0,-0.0531192,,2,3.0
NaCs2Au2,0.0,-0.043925,,2,3.0
Si2Pd2Gd,0.0,-0.0298585,,2,3.0
Cl2SbGd2,0.0,-0.0359596,,2,3.0
HNb2,0.0,-0.0234237,,2,3.0
ScCoBr,0.0,-0.0179704,,2,3.0
NaPmPt2,0.0,-0.0479266999999999,,2,3.0
Mg3Hg4,0.0,-0.0413331,,2,3.0
O6TiMnBi2,0.8075,-0.0248673,,2,3.0
P2Tc2Cs,0.0,-0.0262223,,2,3.0
NaSnPt,0.0,-0.0373667,,2,3.0
TiSe4Ta,0.0,-0.028187,,2,3.0
CCo3Y,0.0,-0.0179665,,2,3.0
YRh4Ag,0.0,-0.0327219,,2,3.0
P2CuZr6,0.0,-0.0252798,,2,3.0
NOTb6Pb2,0.0,-0.0461589,,2,3.0
Co3Ga2Eu,0.0,-0.0232718,,2,3.0
H22Mg4Ca4Fe3,1.2063,-0.006234,,2,3.0
O3SBa,4.3037,-0.0159985,,2,3.0
O6P2Cr,0.4311,-0.0108287,,2,3.0
MgSrAg4,0.0,-0.0256504,,2,3.0
TeHoPb,0.0,-0.0549714,,2,3.0
SiY2Os3,0.0,-0.047407,,2,3.0
Ni2ZnEr,0.0,-0.0244477,,2,3.0
H2Mg2Bi,0.0,-0.0192898,,2,3.0
H2InLa2,0.0,-0.0260484,,2,3.0
KTe2Ir,0.8143,-0.0391559,,2,3.0
S3SbLa4,0.0,-0.0319304,,2,3.0
S2CoTe,0.0,-0.0187541,,2,3.0
BCo3Sn,0.0,-0.0190259,,2,3.0
S6Ti3Cu,0.0,-0.0134461999999999,,2,3.0
In2SmDy,0.0,-0.0403841,,2,3.0
O5Br2In2Ba3,1.4888,-0.0236536,,2,3.0
Mo3W,0.0,-0.0435921,,2,3.0
LiK2Br6Ho,4.0093,-0.0204187,,2,3.0
YRh2Hf2,0.0,-0.0449859,,2,3.0
O6ErBi3,1.9853,-0.0341286,,2,3.0
Mg5Cd3,0.0,-0.0146536,,2,3.0
ScY2Zr,0.0,-0.0250843,,2,3.0