formula,bg,formation_energy,mp-id,fidelity,bg_category
Mg2CaLa2,0.0,-0.0211809,,2,3.0
O6CoRhBa2,0.0,-0.0186251,,2,3.0
O4Na2Pd3,0.3898,-0.0156658,,2,3.0
Mg5Ag4,0.0,-0.0168627,,2,3.0
MgGaSm,0.0,-0.0224912,,2,3.0
Ag2SnPb2,0.0,-0.0499099999999999,,2,3.0
O6TeBa2Dy,0.0,-0.0228326999999999,,2,3.0
Co4ZnTh,0.0,-0.0297741,,2,3.0
Ta8Ir,0.0,-0.0673271,,2,3.0
FeRu5,0.0,-0.0319863,,2,3.0
Al8Fe4Ce,0.0,-0.0142114999999999,,2,3.0
ZrRuTa2,0.0,-0.0500105,,2,3.0
YTa2Ir2,0.0,-0.0614981999999999,,2,3.0
H6AlRb3,2.6986,-0.0093669,,2,3.0
Li2O4CuZr,0.0,-0.0118201,,2,3.0
H2FeRh2,0.0,-0.0186219,,2,3.0
NSiTi3,0.0,-0.0147753,,2,3.0
F6MgV,0.0,-0.0087902,,2,3.0
LiNi2YSb2,0.0,-0.0235522,,2,3.0
Br2TePt,0.3344,-0.0370133999999999,,2,3.0
Ir3U,0.0,-0.0798712,,2,3.0
BeFe2,0.0,-0.0136363,,2,3.0
Te3Dy,0.0,-0.0409087,,2,3.0
TbTl,0.0,-0.0601135999999999,,2,3.0
NSr3Ag,0.0,-0.0219668999999999,,2,3.0
RuTe2Th6,0.0,-0.0767493,,2,3.0
Zn2HoEr,0.0,-0.03202,,2,3.0
SI,0.9132,-0.0231018,,2,3.0
NiNbSn,0.0,-0.0286529999999999,,2,3.0
PrAu4Hg,0.0,-0.0652225,,2,3.0
GeTe,0.412,-0.0282152,,2,3.0
GePr2Ir2,0.0,-0.0504987,,2,3.0
KPtHg3,0.0,-0.0569412,,2,3.0
SnTb2Hg,0.0,-0.0501139,,2,3.0
RhBaTl3,0.0,-0.0583551,,2,3.0
ZnY2Rh,0.0,-0.0264621999999999,,2,3.0
NNi3Pd,0.0,-0.0181368,,2,3.0
CuBr6Cs2Tl,0.0,-0.0291326,,2,3.0
TbTl2Th,0.0,-0.0721783999999999,,2,3.0
Al11Re4,0.0,-0.0250506,,2,3.0
H3PdBa,0.0,-0.0170761,,2,3.0
F3Ga,4.9947,-0.0095418,,2,3.0
MnGa5Y,0.0,-0.0187165,,2,3.0
F6InTl3,2.5476,-0.029323,,2,3.0
MgAlEu2,0.0,-0.0301759999999999,,2,3.0
PCoY2,0.0,-0.0217786,,2,3.0
BCCuTb,0.0,-0.0203029,,2,3.0
CoSe3RbHf,0.0,-0.0280074,,2,3.0
B6Re2Pa,0.0,-0.0322299,,2,3.0
FCs3Tl,0.0,-0.039007,,2,3.0
Sn3NdPt,0.0,-0.0450557,,2,3.0
Ga2IBa2,0.0,-0.0307337,,2,3.0
HOCs,3.8957,-0.0172468,,2,3.0
AsSr2,0.0,-0.0225929,,2,3.0
NClPr2,0.0,-0.0277587,,2,3.0
Li2Cu3,0.0,-0.0100786,,2,3.0
F6Na3Tl,3.6226,-0.0131544,,2,3.0
CuBr6Rb2In,0.0,-0.0218916,,2,3.0
ScCuSb2,0.0,-0.0265055,,2,3.0
CsPtTl2,0.0,-0.0634063,,2,3.0
O5Zr2Te2Nd2,0.6354,-0.0262064999999999,,2,3.0
H12O9MgTe,4.1953,-0.0073292,,2,3.0
MnBrHf,0.0,-0.0342139,,2,3.0
N6Sm3Ta2,0.0,-0.0309074999999999,,2,3.0
Ag3Sb4F24,0.012499999999999,-2.392955916774192,mp-1195261,2,3.0
Al3ZnTa2,0.0,-0.0286085,,2,3.0
Te2Lu3,0.0,-0.0490476,,2,3.0
ZnNd2Pt2,0.0,-0.0493355,,2,3.0
Ge2Sr,0.0,-0.0207035,,2,3.0
Br3Hf2,0.0,-0.0378451999999999,,2,3.0
O8S2GaCs,4.6184,-0.0121354,,2,3.0
O6GePr2Pt,2.2686,-0.0238354,,2,3.0
SiRh2Ce,0.0,-0.0316358,,2,3.0
Li2NiRu,0.0,-0.0139017,,2,3.0
F7KTi2,0.0,-0.0100143,,2,3.0
ScYLa,0.0,-0.0283205,,2,3.0
Cu2PdSn,0.0,-0.0249102,,2,3.0
O8P2MnBa,1.1607,-0.0133788,,2,3.0
OTm3Ir,0.0,-0.0484425999999999,,2,3.0
O4CoSe,0.0309,-0.0112955,,2,3.0
H2NiRh2,0.0,-0.0180888,,2,3.0
Cl4NiCu,0.0177,-0.0112023,,2,3.0
CoGa5Lu,0.0,-0.0225468,,2,3.0
CuSrSn,0.0,-0.0249311,,2,3.0
Rh2Ce,0.0,-0.0381402,,2,3.0
Zr2Pd2Bi,0.0,-0.0417605999999999,,2,3.0
H6KMnRb2,0.0,-0.0091130999999999,,2,3.0
BaIrPb2,0.0,-0.0659268,,2,3.0
TiNi2Ir,0.0,-0.0305147,,2,3.0
Cl6K2AgTl,0.0,-0.0181180999999999,,2,3.0
AlTa2W,0.0,-0.0527862999999999,,2,3.0
Li3O8Co4W,0.0,-0.0138922,,2,3.0
YHoHg2,0.0,-0.0540318,,2,3.0
NiPd2Sn4,0.0,-0.0325265,,2,3.0
S3AgCsTb,0.0,-0.0254783,,2,3.0
CoGePt,0.0,-0.0357357,,2,3.0
Sc2AuTl,0.0,-0.0432727,,2,3.0
S4Dy2Pb,2.023,-0.0317474,,2,3.0
Ga2Pd3Eu,0.0,-0.0316319,,2,3.0
Co4CdCe,0.0,-0.0239997,,2,3.0
P2TmOs2,0.0,-0.0441433,,2,3.0
AlP2Ga,1.4666,-0.0118299,,2,3.0
CSiTbOs2,0.0,-0.0427305,,2,3.0
S2ZnBa,0.0,-0.0196522,,2,3.0
Si3BaAu,0.0,-0.0281671,,2,3.0
CoAs2Y6,0.0,-0.0257079999999999,,2,3.0
GaRh2Tb2,0.0,-0.036485,,2,3.0
CuBa2Au,0.0,-0.0413035,,2,3.0
S2SbTl,0.8719,-0.0325603,,2,3.0
O4MnRb3,1.1401,-0.0150478,,2,3.0
PIrNp,0.0,-0.063516,,2,3.0
CaBa2,0.0,-0.0295506,,2,3.0
NiCd2Pt,0.0,-0.0369394,,2,3.0
V6GeOs,0.0,-0.0249128,,2,3.0
LiCl6GaTl2,2.6521,-0.0224616,,2,3.0
Pm3Tl,0.0,-0.0514465,,2,3.0
H8FeCo2La,0.0,-0.0104303,,2,3.0
O4FNaSFe,0.0,-0.0094933,,2,3.0
Cl3KCd,1.7259,-0.0141467,,2,3.0
S7Er5,0.0,-0.0289319,,2,3.0
F6NaMo,0.0,-0.0102715,,2,3.0
Ga5PdTm,0.0,-0.0243362,,2,3.0
S8V4Ga,0.0,-0.0136066,,2,3.0
P2KRh2,0.0,-0.0201956999999999,,2,3.0
Cl6K3Tb,5.3949,-0.0143107,,2,3.0
S2NiCu,0.0,-0.0129889,,2,3.0
SiVTa,0.0,-0.0319375,,2,3.0
ClBrAg,0.0,-0.0199003,,2,3.0
F6InDy,5.8927,-0.016307,,2,3.0
FeZr2Pt,0.0,-0.0381529,,2,3.0
MnRu2Er3,0.0,-0.0402616,,2,3.0
Fe2SnPa2,0.0,-0.054569,,2,3.0
CuSe3HoTl,0.0,-0.0338223,,2,3.0
GePtNp,0.0,-0.066003,,2,3.0
AlSb3Ta2,0.0,-0.0422338,,2,3.0
SiCu2Au,0.0,-0.0274242,,2,3.0
Na3KAg,0.0,-0.010422,,2,3.0
Be3Pt,0.0,-0.021494,,2,3.0
ZnTm2Pb,0.0,-0.048712,,2,3.0
In6LaCe,0.0,-0.0365568,,2,3.0
Cl4Sn,3.3319,-0.0145513999999999,,2,3.0
H8MgTi3,0.0,-0.0071892,,2,3.0
Si2Ni3Dy,0.0,-0.0201465,,2,3.0
Cl3MnRb,0.8657,-0.0144509,,2,3.0
NaTi3Se6,0.0,-0.0185536,,2,3.0
Li5N3Zn3,0.0,-0.0076327999999999,,2,3.0
CaHg2Ac,0.0,-0.0598538,,2,3.0
LiP2Ni2Nd,0.0,-0.0175140999999999,,2,3.0
CrRbI3,0.0,-0.0308515,,2,3.0
Ca2SnTl,0.0,-0.0325661,,2,3.0
LiSc2Ni,0.0,-0.0119677,,2,3.0
GaCdTm2,0.0,-0.0381376,,2,3.0
NiY3Pd2,0.0,-0.0283195,,2,3.0
Rb3Sb2Au3,1.0289,-0.0436024,,2,3.0
Ag2InTm2,0.0,-0.0404307,,2,3.0
Zn2Tm4Tl5,0.0,-0.0545949,,2,3.0
O2ClAsHg,1.8062,-0.022632,,2,3.0
AsRbIn,0.0,-0.0251605999999999,,2,3.0
Fe2InPr,0.0,-0.0284466,,2,3.0
S3SnPb2,0.1971,-0.036548,,2,3.0
S3NiSrPr,0.0,-0.0202434,,2,3.0
GeSeU,0.0,-0.0482807,,2,3.0
Ga2Se4Sr,1.7104,-0.020506,,2,3.0
F6PdHo,0.2137,-0.0157197,,2,3.0
CoGaSr,0.0,-0.0188236,,2,3.0
CaSrAg4,0.0,-0.0264668,,2,3.0
Rh2CdHo2,0.0,-0.0400097,,2,3.0
Cl3CuSn,1.8636,-0.0157918,,2,3.0
CrNiRh,0.0,-0.022816,,2,3.0
SiRe3,0.0,-0.0559543,,2,3.0
AlVMn2,0.0,-0.0158773,,2,3.0
Al2Ga2Nd,0.0,-0.0188859,,2,3.0
Ge2PdIn3Nd3,0.0,-0.0343761,,2,3.0
Mg3Sc4,0.0,-0.01032,,2,3.0
HLi3O8P2V,1.4441,-0.0089944,,2,3.0
C4ZnTm3,0.0,-0.0265389,,2,3.0
Sc2OsPt,0.0,-0.0437286,,2,3.0
Si2RhHf2,0.0,-0.0368524999999999,,2,3.0
MgInBa,0.0,-0.0263933,,2,3.0
LiAlBr6Cs2,2.4168,-0.0219052,,2,3.0
F6Cs2Er,0.0,-0.0195595,,2,3.0
LiHgTl,0.0,-0.0478896,,2,3.0
CuCdIn,0.0,-0.0263198,,2,3.0
B4Ni5Tb2,0.0,-0.0191031,,2,3.0
AsY2Bi,0.0,-0.0399861,,2,3.0
O2MgBr,0.0,-0.0105924,,2,3.0
As2Hg,0.0,-0.0361601,,2,3.0
Cl6CuRb2Lu,2.4379,-0.017994,,2,3.0
O6MgMnEr2,1.5669,-0.0193823,,2,3.0
H8Mg2MnEr,0.9449,-0.0092772,,2,3.0
Ti2CrMn,0.0,-0.01732,,2,3.0
S3K2Nb,0.0,-0.0144309,,2,3.0
O6TiFeNb,0.358,-0.0142483,,2,3.0
S3In2,0.9651,-0.0198229,,2,3.0
Cu2Ga3Gd,0.0,-0.023503,,2,3.0
Cl6K2GaAg,0.6674,-0.0126957,,2,3.0
F8GdDy2,0.0,-0.0207632,,2,3.0
MgLa2Tl2,0.0,-0.0477518,,2,3.0
CoNiHo2,0.0,-0.0331856,,2,3.0
Ni2Rh3Nd,0.0,-0.0299099,,2,3.0
Ge2Dy3,0.0,-0.0371581,,2,3.0
S4SnSb2,0.2596,-0.0215216999999999,,2,3.0
Ni3Ru,0.0,-0.0207101,,2,3.0
F6Na2Dy,0.0,-0.0118475,,2,3.0
Ru2TbHf,0.0,-0.0454236,,2,3.0
ScSn2Ir,0.0,-0.039926,,2,3.0
CaGa3Ag,0.0,-0.0184349,,2,3.0
OAgTeEr,1.1745,-0.0333238,,2,3.0
CuGa3Ge2Pr3,0.0,-0.0265276999999999,,2,3.0
Ni2Zn3U,0.0,-0.0295072,,2,3.0
AlSnEr,0.0,-0.0318785,,2,3.0
O5F3Fe4,0.0,-0.0113686,,2,3.0
MgCu2Nd,0.0,-0.0199514,,2,3.0
ScZrHg2,0.0,-0.0458076,,2,3.0
BNGdOs,0.0,-0.0378973,,2,3.0
SiNbRh2,0.0,-0.0284229999999999,,2,3.0
BrBa2Tl,0.0,-0.043914,,2,3.0
H3PdTh,0.0,-0.0283608,,2,3.0
GaCe,0.0,-0.0309880999999999,,2,3.0
Ga2Ru3Tb,0.0,-0.0310365,,2,3.0
Mg4CuZn2,0.0,-0.0089644999999999,,2,3.0
Cl6K2AgLa,3.1121,-0.0158826,,2,3.0
TiSe3RbAg,0.1874,-0.0224477,,2,3.0
BPrIr4,0.0,-0.0564082,,2,3.0
CuITh,0.0,-0.0499891,,2,3.0
KCdSb,0.0313,-0.0258179,,2,3.0
NiRe2Os,0.0,-0.0576315,,2,3.0
C4N4K2Ni,2.9542,-0.0102387,,2,3.0
Al2Ca,0.0,-0.0087217,,2,3.0
GaPt2,0.0,-0.0528014999999999,,2,3.0
CoGaTh,0.0,-0.0436866,,2,3.0
OBrAgPb,0.3041,-0.0339179,,2,3.0
Co4MoPt,0.0,-0.0290412,,2,3.0
Rb4CdBi2,0.3437,-0.0390812,,2,3.0
AlNi2Lu2,0.0,-0.0308089,,2,3.0
In2Sb2Ba,0.0535,-0.0367513,,2,3.0
F6AgTb,0.4198,-0.0150917999999999,,2,3.0
O4CaY2,4.1631,-0.0165772,,2,3.0
KSe6Zr3,0.0,-0.0236142,,2,3.0
LiTe2Ir,0.3248,-0.0375159,,2,3.0
Ru2ErPu,0.0,-0.0578219,,2,3.0
ZnNb2,0.0,-0.0266861,,2,3.0
As2AgEr,0.0,-0.0313484,,2,3.0
SrPd3Tl2,0.0,-0.0446764999999999,,2,3.0
Na11(Ru4O9)4,0.0,-1.532173132780514,mp-1223388,2,3.0
Li2Si2Zn2Ba,0.0,-0.0133177,,2,3.0
Pd2Cd2Au,0.0,-0.039396,,2,3.0
Be2N2Zn,3.2809,-0.0089201,,2,3.0
SiSLu,0.0,-0.0263765,,2,3.0
NaBr6Cs2Pu,0.0,-0.0324931,,2,3.0
OScCuSe,1.2854,-0.0159507999999999,,2,3.0
O4TbTa,3.9565,-0.0266029,,2,3.0
PCeIr,0.0,-0.0433715,,2,3.0
Li3P2Nd,0.0753,-0.0130524,,2,3.0
LiCl6Cs2Tm,5.1166,-0.0201646,,2,3.0
Ca2AgTl,0.0,-0.0312351,,2,3.0
SiCo3Sm2,0.0,-0.025367,,2,3.0
Li5Hg3,0.0,-0.0274462,,2,3.0
MgCu4Gd,0.0,-0.0209948,,2,3.0
SiP2Cs2,1.216,-0.0218933,,2,3.0
MgCd2Ir,0.0,-0.0343725,,2,3.0
Si3TiHo,0.0,-0.019593,,2,3.0
O5CuBaNdBi,0.0,-0.0252407,,2,3.0
GeSmIr,0.0,-0.0459289,,2,3.0
SiBr2Dy2,0.0,-0.0304209,,2,3.0
OK3Cd,0.0,-0.0129515999999999,,2,3.0
MgAl2Er2,0.0,-0.0245799,,2,3.0
Pd2Er2Pb,0.0,-0.0493792,,2,3.0
Al3NiOs2,0.0,-0.0312169,,2,3.0
CaNiY2,0.0,-0.0205253,,2,3.0
MgGa3Ge2Y3,0.0,-0.0201971,,2,3.0
ZrRh2Sm,0.0,-0.036466,,2,3.0
AlInTm,0.0,-0.0314749,,2,3.0
SrBaHg2,0.0,-0.0502207999999999,,2,3.0
PSrAu2,0.0,-0.0435764,,2,3.0
Ca2Rh2Sn3,0.0,-0.0285201,,2,3.0
O3CoTl,0.0,-0.0226922,,2,3.0
Eu2Hg,0.0,-0.0590317,,2,3.0
Al2Cu2Ho,0.0,-0.0194706,,2,3.0
O5ZnBi2,0.0,-0.0261995,,2,3.0
Al3RhSn2Ce3,0.0,-0.0299093,,2,3.0
Fe2CoSn,0.0,-0.0223455,,2,3.0
H8FeNi2Y,0.0,-0.0090022,,2,3.0
LiP2YPd2,0.0,-0.0204887,,2,3.0
YLuIr2,0.0,-0.0574167,,2,3.0
SiMo2Tc,0.0,-0.0289883999999999,,2,3.0
Be2ScOs2,0.0,-0.0337924,,2,3.0
O5Ti2Sr2,0.0,-0.0151529,,2,3.0
PdTe3BaTb,0.0,-0.0398549,,2,3.0
CaZrPt2,0.0,-0.046368,,2,3.0
Al5RuSm,0.0,-0.0174335999999999,,2,3.0
O8Cl2Ba,5.6219,-0.0103565,,2,3.0
O6MgSr2Pa,0.0,-0.021793,,2,3.0
Li3OF5V,0.8579,-0.0079241,,2,3.0
Zr5Rh3,0.0,-0.0324835,,2,3.0
P2Cu2Lu,0.0,-0.0221002,,2,3.0
LiCu2Zr,0.0,-0.0159476,,2,3.0
ClInLa,0.1424,-0.0297052,,2,3.0
SiZrPt2,0.0,-0.0465552,,2,3.0
ZnGaCe2,0.0,-0.0301103,,2,3.0
PBrCd2,0.9606,-0.0231094,,2,3.0
NEr2Tl,0.0,-0.0468249,,2,3.0
S2LaAu,2.1261,-0.0344016,,2,3.0
Li4Cu5,0.0,-0.009504,,2,3.0
LiO2La2,0.0,-0.0226947,,2,3.0
O4SeCd,1.7458,-0.0135673999999999,,2,3.0
CoY2Pd,0.0,-0.0269952,,2,3.0
AgIn2Er,0.0,-0.0375329,,2,3.0
H4NiRb2,1.2364,-0.0104614999999999,,2,3.0
Li3P2Er,0.1414,-0.0141816999999999,,2,3.0
Rh2CdNd2,0.0,-0.0377266,,2,3.0
O4CaTb2,4.0453,-0.021936,,2,3.0
CRh3Pr,0.0,-0.0313593,,2,3.0
B2O6CaNb,0.0,-0.0123150999999999,,2,3.0
LiSr3Pd,0.0,-0.0206697,,2,3.0
OKIn,0.4029,-0.0172417,,2,3.0
FCl,1.8969,-0.0061004,,2,3.0
Be5Ni,0.0,-0.0065972999999999,,2,3.0
Be2NbTa2,0.0,-0.0351308,,2,3.0
S8Mo3W,0.9741,-0.0218597,,2,3.0
NaS2Au,0.151,-0.0237824999999999,,2,3.0
O2Zn3Sb2Ba2,0.0,-0.0242363,,2,3.0
NiTc2,0.0,-0.0288008999999999,,2,3.0
Cu2Ir,0.0,-0.0337935,,2,3.0
GeTe3La4,0.0,-0.0395178999999999,,2,3.0
GePt3,0.0,-0.0577367,,2,3.0
Na2Ag2Pb,0.0,-0.0294375,,2,3.0
B2ErOs,0.0,-0.0349593,,2,3.0
ZnCd2Nd,0.0,-0.0298683,,2,3.0
NiCuSb,0.0,-0.0229991999999999,,2,3.0
CoLa4,0.0,-0.0379322,,2,3.0
O4Ca3Hg,1.2631,-0.0177556,,2,3.0
Tb6ReBi2,0.0,-0.0570788,,2,3.0
Si6Co4Er,0.0,-0.0168285,,2,3.0
SiCl3Sm3,0.0,-0.0256485999999999,,2,3.0
AlClTe,2.864,-0.0186973,,2,3.0
Se2RhTl,0.0,-0.0370519,,2,3.0
Li3O8F3P2Mn2,0.0,-0.0094904,,2,3.0
Co2YTa2,0.0,-0.0392524,,2,3.0
NaEuHg2,0.0,-0.0490752,,2,3.0
YAg2Ba,0.0,-0.0328245,,2,3.0
NSr3Cd,0.0,-0.0218390999999999,,2,3.0
Ga3SrRh,0.0,-0.0216552,,2,3.0
B6Cr2Tb,0.0,-0.0148280999999999,,2,3.0
Ga3Au5,0.0,-0.0494074,,2,3.0
Al3RhSn2Sm3,0.0,-0.0299958,,2,3.0
Sc2InIr2,0.0,-0.041728,,2,3.0
FSeCs3,2.0271,-0.0292785,,2,3.0
Zn4ZrMo,0.0,-0.020203,,2,3.0
MnZr5,0.0,-0.0286085,,2,3.0
SiS3In,1.2497,-0.0151442,,2,3.0
LiCaAg,0.0,-0.0146715,,2,3.0
ORhSbSm,0.0,-0.0324326999999999,,2,3.0
Al3Si2Sm3Au,0.0,-0.0280938,,2,3.0
Al3Ca2Ir2,0.0,-0.0272426999999999,,2,3.0
NaSnLa,0.0,-0.0283480999999999,,2,3.0
RhSnLa,0.0,-0.0385948,,2,3.0
Al3Ge2Nd3Re,0.0,-0.0299049,,2,3.0
B2Co5Ta3,0.0,-0.0304166,,2,3.0
InTe2Er,0.0,-0.0405679,,2,3.0
N2Rh,0.0,-0.0173732,,2,3.0
Sb2BaPb2,0.1378,-0.0536578,,2,3.0
Be12Ta,0.0,-0.0092596,,2,3.0
H10N4O8S2Cr,1.1923,-0.0073127,,2,3.0
O3K2Sr2,1.8815,-0.0135407,,2,3.0
B4Mg2Ru5,0.0,-0.0198648999999999,,2,3.0
AlScPt2,0.0,-0.0420158,,2,3.0
CuCdHo,0.0,-0.031896,,2,3.0
ScGa4Hf2,0.0,-0.0298287,,2,3.0
AgLu2Au,0.0,-0.0535968,,2,3.0
Al4CrTh,0.0,-0.0245132,,2,3.0
SiBr2Zr2,0.0,-0.0232713,,2,3.0
KCs3Hg,0.0,-0.038086,,2,3.0
MnCo3Zr2,0.0,-0.0221702,,2,3.0
Li8O6Ir,0.0,-0.010349,,2,3.0
HBrPr,0.0,-0.0234774,,2,3.0
C4RhEr3,0.0,-0.0286511999999999,,2,3.0
O6TeTbTl,1.9169,-0.0233324,,2,3.0
Ga7Ag2Tb3,0.0,-0.026995,,2,3.0
Zn3Zr2,0.0,-0.0207329,,2,3.0
F6FeDy,0.0,-0.0141927,,2,3.0
C6Na,0.0,-0.0092414,,2,3.0
PdPm2Pt,0.0,-0.0488232,,2,3.0
CaIn4Ir,0.0,-0.0361812,,2,3.0
Al2Pd2Tm,0.0,-0.0275666,,2,3.0
Y2AuPb,0.0,-0.0510722,,2,3.0
O4BrBi2Pu,0.0,-0.0407635,,2,3.0
Zr5Sm,0.0,-0.0329232,,2,3.0
S2KTm,2.174,-0.0220106,,2,3.0
ScGaRh2,0.0,-0.0256134999999999,,2,3.0
CuYSn,0.0,-0.0270717,,2,3.0
TiNiGe2,0.0,-0.0181079,,2,3.0
H3TiOs,0.0,-0.0199031,,2,3.0
Al5ErAu2,0.0,-0.029085,,2,3.0
NiAs2Tb,0.0,-0.0268045,,2,3.0
LiP2Au,0.125,-0.023526,,2,3.0
GaPd2Ho,0.0,-0.0336988,,2,3.0
MoRh2Ir,0.0,-0.043642,,2,3.0
MnNiCu2,0.0,-0.0163563,,2,3.0
Ga3In2,0.0,-0.0230539,,2,3.0
Fe6Ge3Ho2,0.0,-0.0243316,,2,3.0
ZnGa2Tm,0.0,-0.0250438,,2,3.0
Ca3AsBr3,1.4966,-0.0173538,,2,3.0
C2CoCe,0.0,-0.0208057,,2,3.0
Zr2Tm,0.0,-0.0377145999999999,,2,3.0
S6InSb2Cs2,0.0,-0.0226418,,2,3.0
LiCu2Sb2Ho,0.0,-0.026635,,2,3.0
Al5YPt,0.0,-0.0202876,,2,3.0
Se2YTl,0.9247,-0.0366653,,2,3.0
K3Pt4Pb4,0.0,-0.0556893,,2,3.0
S3GaSn,0.0,-0.0167401,,2,3.0
CaRuSn2,0.0,-0.0295479,,2,3.0
H6Mg2Ni,0.0,-0.005338,,2,3.0
PBr2Hg2,0.9995,-0.0374608,,2,3.0
MgCaCu4,0.0,-0.0127269,,2,3.0
LiO6V3,0.0,-0.0118453,,2,3.0
CSi2Mo2La,0.0,-0.0243187999999999,,2,3.0
O6RuBa3,0.0,-0.021272,,2,3.0
YTe,0.0,-0.0340412,,2,3.0
O4Sb2IPr,0.5763,-0.0244034,,2,3.0
O6Sr2EuBi,0.0,-0.0237965,,2,3.0
NaMgGa4,0.0,-0.0126209,,2,3.0
CaNdAu2,0.0,-0.0488944,,2,3.0
Cl2Ce2Bi,0.0,-0.0384765,,2,3.0
Zn2YEu,0.0,-0.0274844,,2,3.0
Al2Hf2Pt,0.0,-0.0430841,,2,3.0
Y2Hg2Tl,0.0,-0.0535046,,2,3.0
Cl4CuRb2,0.0,-0.0142253,,2,3.0
GaLaPt,0.0,-0.0444506,,2,3.0
Co2GaDy2,0.0,-0.0296829,,2,3.0
Li2PNi,0.0,-0.0084745,,2,3.0
Si2NiNb,0.0,-0.0179135,,2,3.0
Rh7Pa,0.0,-0.0424378,,2,3.0
CaCuSe3Rb,0.4634,-0.018771,,2,3.0
Al3RhIn2Dy3,0.0,-0.0304647,,2,3.0
Sc5Re,0.0,-0.0237719,,2,3.0
CuGa6Ce,0.0,-0.020143,,2,3.0
NO3AlSm2,1.1306,-0.0209371,,2,3.0
MnGeSe4Rb2,0.8478,-0.0208785999999999,,2,3.0
S2CoPd2,0.0,-0.0207043,,2,3.0
Ga6YAg,0.0,-0.0199549999999999,,2,3.0
Ga3Ir2Th,0.0,-0.0485949,,2,3.0
O7Cs2BaTa2,1.9901,-0.0272484,,2,3.0
SiSbHf,0.0,-0.0371589,,2,3.0
Be2SiRe,0.0,-0.0227011,,2,3.0
YSn2,0.0,-0.0339323,,2,3.0
P2CsPt2,0.0,-0.0404898,,2,3.0
S6Cl2Cd,1.5181,-0.0119207,,2,3.0
SrPb2Bi2,0.0,-0.0666085999999999,,2,3.0
P3Cd3Pr,0.3393,-0.0242699,,2,3.0
ZnAs4Pr2,0.0,-0.0268565,,2,3.0
ZnGa2Dy,0.0,-0.024062,,2,3.0
Ru2GdDy,0.0,-0.0444027,,2,3.0
N3PZr,0.5666,-0.0148416,,2,3.0
O2K2RhCs,0.9121,-0.0178680999999999,,2,3.0
LiSr2In,0.0,-0.0204155,,2,3.0
Si4Ni4Hf3,0.0,-0.02741,,2,3.0
NaSr2Ag,0.0,-0.0200906,,2,3.0
TiTe,0.0,-0.0273688,,2,3.0
Be4CoCu,0.0,-0.0084814,,2,3.0
Si2HoRe4,0.0,-0.0509525,,2,3.0
Na2S4ZnGe,2.4337,-0.0109024999999999,,2,3.0
LiGeTb,0.0,-0.0235125,,2,3.0
InHg3,0.0,-0.0594622,,2,3.0
ScZnCd,0.0,-0.0197989,,2,3.0
S2KHo,2.1494,-0.0213001,,2,3.0
LiPr2Au,0.0,-0.0400166,,2,3.0
N2MnCs,0.0,-0.0190848,,2,3.0
YCd2Hg,0.0,-0.0396467,,2,3.0
O13Sb6,1.8292,-0.0174291,,2,3.0
B2O6PrPb,0.0,-0.0196319,,2,3.0
AsLuPt,0.0,-0.0499506,,2,3.0
HoErPb2,0.0,-0.0633512,,2,3.0
MgCu2Lu,0.0,-0.0229567,,2,3.0
Ni5Sr,0.0,-0.0171636999999999,,2,3.0
Li2Pd2Ba,0.0,-0.0224116,,2,3.0
O4S2Cu2Sb2Pr,0.0,-0.0189571,,2,3.0
CBrU,0.0,-0.0450664,,2,3.0
CBr5Lu4,0.0,-0.034428,,2,3.0
B5Ba2Os3,0.0,-0.0334446,,2,3.0
FeTc5,0.0,-0.0321575,,2,3.0
AgTb2,0.0,-0.0419058,,2,3.0
Al2ReAu,0.0,-0.0393644,,2,3.0
Cl6KRb2In,3.682,-0.0149467,,2,3.0
YIn8,0.0,-0.0328951,,2,3.0
NKPt,0.0,-0.0294987,,2,3.0
GaPr2Os2,0.0,-0.0496942,,2,3.0
Zr5Pt,0.0,-0.0376892,,2,3.0
B2N4OBa4,2.8201,-0.0211753,,2,3.0
Ga3Pd2Er3,0.0,-0.0340593,,2,3.0
Ag2BaTl,0.0,-0.0438988,,2,3.0
HoIr2,0.0,-0.0647509,,2,3.0
TcAgLa2,0.0,-0.0382419,,2,3.0
CaSe2Ba,1.6371,-0.0245956,,2,3.0
Li2SbAu2,0.0,-0.0366069,,2,3.0
BI3,2.4945,-0.0294557,,2,3.0
HMgPt3,0.0,-0.0442513,,2,3.0
MgFe4Tm,0.0,-0.0215593,,2,3.0
NiGa5Ho,0.0,-0.0215215,,2,3.0
BeP2Ta,0.0,-0.0234009999999999,,2,3.0
CuSbEu,0.0,-0.036176,,2,3.0
NiSb2Dy2,0.0,-0.0382725,,2,3.0
Cl6Cs2Pt,1.9208,-0.022982,,2,3.0
BeO2Pt,0.0,-0.0232098,,2,3.0
Pd2In3Sm3,0.0,-0.0382132,,2,3.0
CaGePd,0.0,-0.0213926,,2,3.0
Ga3Rh2Dy2,0.0,-0.0312465,,2,3.0
Cu2Sn2U,0.0,-0.0411504,,2,3.0
O4BaTm2,2.77,-0.0276464,,2,3.0
SeTe,0.3529,-0.0286682999999999,,2,3.0
W5Pt4,0.0,-0.0700898,,2,3.0
C3Mo2Er2,0.0,-0.0291002,,2,3.0
Co3Ta4,0.0,-0.0455707,,2,3.0
O6NbICs,0.0,-0.017651,,2,3.0
LiGaIn2,0.0,-0.0214732999999999,,2,3.0
C3Al2Ti5,0.0,-0.0134308,,2,3.0
CaRhIn,0.0,-0.0262024,,2,3.0
Li8Tl,0.0,-0.0103147,,2,3.0
F5AsPb,4.0401,-0.018503,,2,3.0
Sn3Bi,0.0,-0.0463716,,2,3.0
Tc2SnTa,0.0,-0.043439,,2,3.0
NiZr2Tc,0.0,-0.0286446,,2,3.0
K2ZnAu,0.0,-0.0250767,,2,3.0
As4Ru6Tb,0.0,-0.0311644,,2,3.0
O4Na3Co2,0.0,-0.0095068,,2,3.0
BNaPd3,0.0,-0.0223683,,2,3.0
Ca3SrIr,0.0,-0.0246984,,2,3.0
PCr,0.0,-0.0149238,,2,3.0
TeI2Lu2,0.0,-0.0455029,,2,3.0
ZrSnOs,0.0,-0.0466986,,2,3.0
Mg2CaEu,0.0,-0.0183956,,2,3.0
Li4O12FeTe2Bi,0.0211,-0.0142889,,2,3.0
Ni4InHo,0.0,-0.0249029999999999,,2,3.0
H6O6MgSi,5.5838,-0.0069822,,2,3.0
SrHoHg2,0.0,-0.0525331,,2,3.0
MnGa2Ho,0.0,-0.0255946,,2,3.0
Al5ScMn,0.0,-0.0105341,,2,3.0
O3BaIr,0.0,-0.0276608,,2,3.0
RhIn5Ce,0.0,-0.0355789,,2,3.0
MgCa2Ni2,0.0,-0.0114472,,2,3.0
GaSb3Ce2,0.0,-0.0369668,,2,3.0
CO3Ba,4.3314,-0.0161118,,2,3.0
Li2O2F2V,0.0,-0.0088653,,2,3.0
CuIn3Nd2,0.0,-0.034347,,2,3.0
Li3I5Cs2,3.8168,-0.0281386,,2,3.0
B4TaNp,0.0,-0.0343099,,2,3.0
F4MnPb,1.5187,-0.0206836,,2,3.0
GaISm,0.0,-0.0337223,,2,3.0
O6CuSr2Rh,0.0,-0.0148442,,2,3.0
LaSmAu2,0.0,-0.0574692999999999,,2,3.0
Cl3SnCs,2.4622,-0.0210996,,2,3.0
Si2Mn3Ce,0.0,-0.0203903,,2,3.0
F6TiRb2Cs,0.0,-0.0148192,,2,3.0
S4V5,0.0,-0.0150225,,2,3.0
Li3SrBi2,0.0,-0.0317744,,2,3.0
CN2BrHo,2.7589,-0.0206359999999999,,2,3.0
NOAl2Pr6,0.0,-0.0302589,,2,3.0
S3CaMnRb,0.0,-0.014446,,2,3.0
B6Cr2Tm,0.0,-0.0153934,,2,3.0
FBrPb,2.5277,-0.0346613,,2,3.0
LiO4AlV,0.0,-0.010321,,2,3.0
Al3Si2Lu2,0.0,-0.022526,,2,3.0
Mg2ScLu,0.0,-0.0199142,,2,3.0
SiCrCo2,0.0,-0.0161477,,2,3.0
F5YPb,3.8927,-0.0207818,,2,3.0
CdInSn2,0.0,-0.0337885,,2,3.0
Cu2YLu,0.0,-0.0287259999999999,,2,3.0
Cd2PrSm,0.0,-0.0375705999999999,,2,3.0
B4O7Sr,7.1663,-0.0108366,,2,3.0
O4MoEu,0.0117,-0.0216919,,2,3.0
LiRh2La,0.0,-0.0286917,,2,3.0
RuRh2Sm3,0.0,-0.0399255,,2,3.0
YPt3,0.0,-0.0607134,,2,3.0
LiO4SiTi,0.0,-0.0105528999999999,,2,3.0
O6CrFeBi2,0.0,-0.0247188,,2,3.0
O7PVMn2,0.4887,-0.0122762,,2,3.0
CoIn3Sn2Pr3,0.0,-0.0361113,,2,3.0
BPt2,0.0,-0.0496011,,2,3.0
Pd2EuBi,0.0,-0.050067,,2,3.0
ScMnPt2,0.0,-0.0443967,,2,3.0
AsSbTm2,0.0,-0.0416625,,2,3.0
Pd3Cs2,0.0,-0.034744,,2,3.0
C3Sc2Mo2,0.0,-0.0188621,,2,3.0
O6MnSr2Sb,0.0,-0.0162612,,2,3.0
P2ScZr,0.0,-0.01804,,2,3.0
SrCd2In,0.0,-0.0294503999999999,,2,3.0
Mg2Y,0.0,-0.0127105999999999,,2,3.0
GeBr2Er2,0.0,-0.0333194999999999,,2,3.0
O4Na4Ge,2.8882,-0.0086425,,2,3.0
HRuRh3,0.0,-0.0277993,,2,3.0
N2PrEu,0.0,-0.0301788,,2,3.0
AlCuTb2,0.0,-0.0294573,,2,3.0
C4LaGd,0.0,-0.0239619,,2,3.0
O2KEu,0.0,-0.0211228,,2,3.0
Ru2CdTb3,0.0,-0.0405315,,2,3.0
OAsYRu,0.0,-0.0243872,,2,3.0
Cu2PmTl,0.0,-0.0368996,,2,3.0
Rh2Sn3Lu3,0.0,-0.0435917,,2,3.0
In5Pt2Th,0.0,-0.0509858,,2,3.0
Cl2GeLa2,0.298,-0.0261692,,2,3.0
Ag2CdI4,1.6489,-0.0347025,,2,3.0
CoSnTb,0.0,-0.0338479999999999,,2,3.0
Li2N2Rh,0.0,-0.0117746,,2,3.0
LiPSe4Cd,1.7215,-0.0182212,,2,3.0
YBaPb2,0.0,-0.0554888,,2,3.0
CdTm3Pt2,0.0,-0.0555479,,2,3.0
O4S2Cu2LuBi2,0.0,-0.0275964,,2,3.0
O6GaRuBa2,0.064,-0.0189869999999999,,2,3.0
H2Pd2In,0.0,-0.0213689,,2,3.0
Pd2SnHo,0.0,-0.0385694,,2,3.0
CdPtPa,0.0,-0.0674147,,2,3.0
ZrRuSn,0.0,-0.0344808,,2,3.0
N4Mg4V,0.0,-0.009313,,2,3.0
O6CrSnSb,0.3569,-0.0162780999999999,,2,3.0
Ga6DyAu,0.0,-0.0272693,,2,3.0
Mg6YLa,0.0,-0.0127171,,2,3.0
Ba(VN2)2,1.5623999999999991,-1.113593344880951,mp-1029918,2,3.0
PTeNd,0.0019,-0.0316851,,2,3.0
N3RuBa,0.0,-0.0207818,,2,3.0
Nb6RhPd,0.0,-0.033441,,2,3.0
O6Ba2TaU,0.0,-0.0318084,,2,3.0
SiMnCo2,0.0,-0.0162945,,2,3.0
CoGa5Er,0.0,-0.0218464999999999,,2,3.0
Ba4Pt,0.0,-0.0460311,,2,3.0
Fe2CoGa,0.0,-0.0176481,,2,3.0
Mg2CaY,0.0,-0.0119621,,2,3.0
F3MnTl,0.8394,-0.0227537999999999,,2,3.0
Al2Sc6Rh,0.0,-0.0154532,,2,3.0