formula,bg,formation_energy,mp-id,fidelity,bg_category
MgIn5Ir,0.0,-0.0348481,,2,3.0
PrPb,0.0,-0.0604022,,2,3.0
SiPd3Np2,0.0,-0.0540626,,2,3.0
MgAg2Pt,0.0,-0.0348517999999999,,2,3.0
BrTcLa2,0.0,-0.0359472,,2,3.0
Mg6RuTe2,0.0,-0.0158491,,2,3.0
MgZn2Ga2,0.0,-0.0130371,,2,3.0
C3Zr2W2,0.0,-0.0335492,,2,3.0
Ni2As2Tl,0.0,-0.0291747,,2,3.0
SiTe4HgTl2,0.2352,-0.046688,,2,3.0
LiS2Eu,0.0,-0.0205444,,2,3.0
InLaPt4,0.0,-0.0604707,,2,3.0
BNNiLa,0.0,-0.020082,,2,3.0
NiGa3Sn2Nd3,0.0,-0.0304636,,2,3.0
O9CoNb2Ba3,0.0,-0.0200885999999999,,2,3.0
Rh2Ho3Hg,0.0,-0.0480371,,2,3.0
CoNiCu2,0.0,-0.015912,,2,3.0
LiCu2Sb2Tb,0.0,-0.0262861,,2,3.0
SiCa2Cu2,0.0,-0.0122715,,2,3.0
Rh3La2,0.0,-0.0382316,,2,3.0
Fe2Ni4Tb3,0.0,-0.0271078,,2,3.0
GaSePd5,0.0,-0.0289939,,2,3.0
P2Rh2Cs,0.0,-0.0261083,,2,3.0
ZnSbU,0.0,-0.051479,,2,3.0
Cd8La,0.0,-0.0319854,,2,3.0
Al2TiZn,0.0,-0.0117051,,2,3.0
SiCdSb2,0.2083,-0.0286768,,2,3.0
Si2Zr2Tc,0.0,-0.0241832999999999,,2,3.0
SeInI,1.0067,-0.0306374,,2,3.0
AsCsHg,0.0432,-0.042537,,2,3.0
Ca2ZnAg,0.0,-0.0163676,,2,3.0
Al4FeTb,0.0,-0.0164203,,2,3.0
FeI4,0.0,-0.0330028999999999,,2,3.0
PSe3Pb4,0.0,-0.0470505,,2,3.0
Rb2Tl2Bi,0.0,-0.0531926,,2,3.0
C2Er3Pb,0.0,-0.0417218,,2,3.0
N2LaPu,0.0,-0.0443413,,2,3.0
ClCs2Hg2,0.0,-0.0450005,,2,3.0
NiGe3La,0.0,-0.0240176,,2,3.0
CoMoHf2,0.0,-0.0445999,,2,3.0
Li2Sb2Th,0.4709,-0.0358354,,2,3.0
Ni3Ir5,0.0,-0.0504242,,2,3.0
Ag2InTh2,0.0,-0.0578128,,2,3.0
KCdAu,0.0,-0.0362686,,2,3.0
Ca2FeRh2,0.0,-0.021335,,2,3.0
LiCu4Rh,0.0,-0.0161253999999999,,2,3.0
Cl6K2GaIn,1.2069,-0.0129246999999999,,2,3.0
Ga6PdHo,0.0,-0.0229695,,2,3.0
NaK2Cd,0.0,-0.012808,,2,3.0
SiNdIr,0.0,-0.0426717,,2,3.0
O12Sb5La,3.1777,-0.0187763,,2,3.0
Mg2InBi2,0.0,-0.0402104,,2,3.0
PdSnHf,0.4099,-0.0446704999999999,,2,3.0
N2SrPu,0.0,-0.0389065,,2,3.0
Fe3Ga2Th,0.0,-0.0307289,,2,3.0
ClBrCd2,0.3572,-0.0228048,,2,3.0
CoYSb,0.0,-0.0281537,,2,3.0
MgCu4Au,0.0,-0.0226619999999999,,2,3.0
NiGa2Dy6,0.0,-0.0376989,,2,3.0
Ni2InDy,0.0,-0.0288834,,2,3.0
AlZnTm,0.0,-0.0248671,,2,3.0
Ti2Rh2Sn,0.0,-0.0278911,,2,3.0
Zn2InHf2,0.0,-0.0374769,,2,3.0
K2Se2Pd,0.762,-0.0189696,,2,3.0
O3K2Ho,0.0,-0.0163564,,2,3.0
TiNi2Ge,0.0,-0.0174274,,2,3.0
KSb2Pt,0.0,-0.0388745,,2,3.0
Mn2Se4Pd,0.0,-0.0219858,,2,3.0
O7Ge2SrDy,0.2333,-0.0162518,,2,3.0
LiI4Au,0.565,-0.0369093,,2,3.0
Ca2Ga2Ba,0.0,-0.0186341,,2,3.0
InU2,0.0,-0.0800342,,2,3.0
GdTmPt2,0.0,-0.0641332,,2,3.0
NMgNi3,0.0,-0.0127739,,2,3.0
Cl2Cs,2.4937,-0.0194181,,2,3.0
LiNa2Hg2,0.0,-0.0297142,,2,3.0
InTa3,0.0,-0.0582762999999999,,2,3.0
F6BaRe,1.5834,-0.0194691,,2,3.0
CrNiPd2,0.0,-0.025108,,2,3.0
MnNi2Te3,0.0,-0.0273612,,2,3.0
O4Rh2Cd,0.7991,-0.0186606,,2,3.0
O4IDyBi2,1.384,-0.0353194,,2,3.0
Zr6AuPb2,0.0,-0.0454986999999999,,2,3.0
Si2MnDy2,0.0,-0.0274947,,2,3.0
CdLa4,0.0,-0.0407181,,2,3.0
LiAs2Rh2Th,0.0,-0.0353599,,2,3.0
Fe2TmPu,0.0,-0.0496071,,2,3.0
Si3Ca2Pd,0.0,-0.0143927,,2,3.0
B2N3Ni2Np3,0.0,-0.0404234999999999,,2,3.0
Si3RuPr,0.0,-0.0223605,,2,3.0
Al7Fe5Dy,0.0,-0.015267,,2,3.0
O8V3Cu,0.0,-0.0120039999999999,,2,3.0
H3NaRh,0.0,-0.0100182,,2,3.0
B14NaAl,1.5323,-0.0074388,,2,3.0
S4Ti2Mn,0.0,-0.0141356,,2,3.0
F4Pd,0.7611,-0.0107181999999999,,2,3.0
H5CNO2,4.8476,-0.0061919,,2,3.0
O6Ca2NiRu,0.0,-0.0128229,,2,3.0
SmBi3,0.0,-0.0705029,,2,3.0
Sc3NiIr2,0.0,-0.0345273,,2,3.0
Ni4CdU,0.0,-0.0332127,,2,3.0
Sn2LaPr,0.0,-0.0403838,,2,3.0
O2ClSnBi,0.9982,-0.0282398,,2,3.0
ClLa2Ir,0.0,-0.0428895,,2,3.0
AlZn2Rh,0.0,-0.0177311,,2,3.0
Rh2SmPt3,0.0,-0.0544123,,2,3.0
Li2InPr,0.0,-0.0207901999999999,,2,3.0
Zn2Ag2Cd,0.0,-0.0240063,,2,3.0
Pd2NdTl,0.0,-0.0460747,,2,3.0
O6ScSr2Bi,2.1009,-0.0201054,,2,3.0
NaSrBi,0.24,-0.0358452,,2,3.0
N2Sr,0.0,-0.0142691,,2,3.0
H2AgBa2,0.0,-0.0238936,,2,3.0
InBa2La,0.0,-0.0391662,,2,3.0
Se3Rb3Bi,2.2143,-0.0296879,,2,3.0
O4ScCu2Se2Bi2,0.0,-0.0256491,,2,3.0
PdSnNd,0.0,-0.0384563,,2,3.0
SPtPb,0.0,-0.0523112,,2,3.0
Sn4Bi3,0.0,-0.0541414,,2,3.0
TiCo2Sn,0.0,-0.0220615999999999,,2,3.0
F4KRh,0.8404,-0.0116359,,2,3.0
AgBaPb3,0.0,-0.0600786,,2,3.0
MgPt2Pu,0.0,-0.0645833,,2,3.0
O3MnRh,0.0,-0.0156612,,2,3.0
F4CrRb2,0.0,-0.0134398,,2,3.0
Li2Sr2Cd,0.0,-0.0160599999999999,,2,3.0
Al5ScMn2,0.0,-0.0116441,,2,3.0
SiGd2Ir3,0.0,-0.0578594999999999,,2,3.0
AlCa2Sn2,0.0,-0.0202916,,2,3.0
BeTaIr2,0.0,-0.0540644,,2,3.0
F6RuPt,0.0818,-0.0172888,,2,3.0
BCo2Ga2Pr,0.0,-0.0201424999999999,,2,3.0
Co3GeSm2,0.0,-0.0268493,,2,3.0
HSeDy,1.32,-0.0254066,,2,3.0
Si3RhHo,0.0,-0.0233842,,2,3.0
F4ZnY,3.3885,-0.0127658,,2,3.0
Al10Fe2Pr,0.0,-0.0124108999999999,,2,3.0
SnPt3,0.0,-0.0619512,,2,3.0
NiGeTe,0.0,-0.0243714,,2,3.0
H8C4N6S4Cd,3.2095,-0.0085597,,2,3.0
MgNiAs,0.0,-0.0143045,,2,3.0
Ga2Rh2Er,0.0,-0.0310156,,2,3.0
Al4NiNd,0.0,-0.0157314,,2,3.0
Mn2CoNi,0.0,-0.0178331,,2,3.0
NaZn2In2,0.0,-0.0196611,,2,3.0
As2In2Cs,0.0,-0.0293105,,2,3.0
KSn2Sb2,0.0,-0.0311491,,2,3.0
Cl3FeRb,0.0,-0.0140902999999999,,2,3.0
Cl2Ca2Te,2.3977,-0.016789,,2,3.0
O2KEr,4.0011,-0.0208791,,2,3.0
O3RbU,0.2255,-0.0316911,,2,3.0
Mg2As2Tm,0.0,-0.0213548,,2,3.0
YRu,0.0,-0.0317105,,2,3.0
C2O6MgRb2,4.1396,-0.0115028,,2,3.0
CrNi2Os,0.0,-0.0306261,,2,3.0
Zn3Ag,0.0,-0.01801,,2,3.0
H6AlInCs2,0.3022,-0.0139092,,2,3.0
Zn3Ru2Th,0.0,-0.0346054,,2,3.0
Li8O6Nb,0.0,-0.0081645,,2,3.0
H6K2Fe,0.0,-0.0062680999999999,,2,3.0
Al5Mn2Tm,0.0,-0.0163189,,2,3.0
K2RbSb2,0.0,-0.0228119,,2,3.0
O6MnNiSr2,0.0,-0.0138728,,2,3.0
LiCl6Rb2Ho,5.0457,-0.0164217,,2,3.0
CoTcPt2,0.0,-0.0483682,,2,3.0
O2MgK2,2.7034,-0.0087418999999999,,2,3.0
RhGdTl5,0.0,-0.0651252,,2,3.0
ILa,0.0,-0.0411088,,2,3.0
Zn3Ga2Eu,0.0,-0.0214662,,2,3.0
Si2Pt2Pa,0.0,-0.0529641999999999,,2,3.0
CMg2Ge2Th2,0.0,-0.0361133,,2,3.0
F6Rb2RhCs,2.0798,-0.0159515,,2,3.0
AlSm2Tl,0.0,-0.0427134,,2,3.0
Ga2SrAc,0.0,-0.0368258999999999,,2,3.0
O4Ba2Hf,3.3588,-0.0272502999999999,,2,3.0
O8P2CsDy,0.0,-0.0155405,,2,3.0
BNRhCe,0.0,-0.0250646,,2,3.0
Mn2DyPu,0.0,-0.0486632,,2,3.0
Cu2SrCd2,0.0,-0.0228281,,2,3.0
O6FKTe3,3.041,-0.0160826,,2,3.0
AlW5,0.0,-0.0593404,,2,3.0
F6CsTa,6.3981,-0.0191273,,2,3.0
O2F2CuEu2,0.0,-0.0232448,,2,3.0
N2TiNb,0.0,-0.0184249,,2,3.0
As2BaHg2,0.0,-0.0437768,,2,3.0
LiNi2As2Tb,0.0,-0.0211914,,2,3.0
O2CaCu,0.0,-0.0113505,,2,3.0
OSc2As2Ba,0.0,-0.0211863999999999,,2,3.0
SiEr2Pt2,0.0,-0.0515829,,2,3.0
H5Pr2Os,0.0,-0.0225237,,2,3.0
Os2Pt,0.0,-0.0712450999999999,,2,3.0
As3Mo2,0.0,-0.0263684,,2,3.0
RuIn3Tm2,0.0,-0.0402479,,2,3.0
MgInPr2,0.0,-0.0316799,,2,3.0
PRuNd,0.0,-0.0306833,,2,3.0
Al9RbIr2,0.0,-0.0199465,,2,3.0
H3ScTc,0.0,-0.0122981999999999,,2,3.0
BaEuTl2,0.0,-0.0600587,,2,3.0
P2Se6AgBi,1.1422,-0.0253217,,2,3.0
RhSb2Ho,0.0,-0.0401805,,2,3.0
S4Ba2Ta,0.0,-0.0281597,,2,3.0
NaP2Cu2,0.0,-0.0114336,,2,3.0
AgTe2Tb,0.7928,-0.0391582,,2,3.0
Mg2As3Br,1.388,-0.0156796,,2,3.0
CaNiSn,0.0,-0.0211013,,2,3.0
Rh2Cd2In,0.0,-0.032587,,2,3.0
NaPb,0.0,-0.0402726,,2,3.0
BNIrTh,0.0,-0.0472388,,2,3.0
Al3CoRu2,0.0,-0.0191472,,2,3.0
Te2Er,0.0,-0.0428261,,2,3.0
Si4Ca3Rh4,0.0,-0.0195432,,2,3.0
K2Br6Ir,0.0,-0.0237591,,2,3.0
NiSePd5,0.0,-0.0286663999999999,,2,3.0
Er2Pt2Tl,0.0,-0.0638854,,2,3.0
Li5O8Fe4,0.0,-0.0097032,,2,3.0
Y2Ir2Hg,0.0,-0.054057,,2,3.0
PK2Ag,1.1403,-0.0150537,,2,3.0
SiRh2U,0.0,-0.0459481,,2,3.0
MnFeZr2,0.0,-0.0245512,,2,3.0
O6NaK3Se2,4.1162,-0.0105376,,2,3.0
S3AgBaDy,1.4383,-0.0264621,,2,3.0
Br6Rb2AgCe,0.1295,-0.0251064,,2,3.0
O10NaV2Bi3,2.4863,-0.0230082,,2,3.0
Tm2Pb,0.0,-0.0603958999999999,,2,3.0
AlCdDy2,0.0,-0.0338517999999999,,2,3.0
Ag3La2,0.0,-0.0363452,,2,3.0
H2Sn2Ba,0.0,-0.023982,,2,3.0
ScAgLa,0.0,-0.0297471999999999,,2,3.0
Cu3Ga2Tb,0.0,-0.0212381,,2,3.0
O4NaNiAs,0.8851,-0.0109481,,2,3.0
Ga4Sr3Pt4,0.0,-0.0385322,,2,3.0
Rb2Th7Se15,1.344299999999999,-1.99923215000651,mp-1201494,2,3.0
AlZn2Os,0.0,-0.0269366999999999,,2,3.0
Rh2DyHf,0.0,-0.0454518,,2,3.0
GdBi2,0.0,-0.0726006,,2,3.0
O3FeBrBa2,0.0,-0.0217564,,2,3.0
ZrGdBi,0.0,-0.0566956,,2,3.0
F4NaNp,0.0,-0.0243111999999999,,2,3.0
Mg2CaBa2,0.0,-0.0197249,,2,3.0
O8AlP2Ga,4.9498,-0.0105226,,2,3.0
B2ZnTc2,0.0,-0.0200059,,2,3.0
Te2Ho6Pt,0.0,-0.0497609,,2,3.0
AlCaTeI2,0.0,-0.0262321999999999,,2,3.0
KAsBa3,0.0,-0.0299848,,2,3.0
GaPd2Er2,0.0,-0.0375069,,2,3.0
KAs2Mo2,0.0,-0.0240566,,2,3.0
InI3Cs,0.0,-0.0372920999999999,,2,3.0
RbBaBi,0.4032,-0.0470212,,2,3.0
MgZnLa,0.0,-0.0208602,,2,3.0
Li3TbBi2,0.0,-0.0359175,,2,3.0
N2ClRb2,0.0,-0.0145527,,2,3.0
O6MgBa2Pa,0.0,-0.0252958,,2,3.0
H3RuIn,0.0,-0.0157035999999999,,2,3.0
MgPd2Pr3,0.0,-0.033972,,2,3.0
InBaAu,0.0,-0.0481409999999999,,2,3.0
AlZn2Ag,0.0,-0.0165683,,2,3.0
KZn2Sb2,0.0,-0.0222465,,2,3.0
PdBi2Th,0.0,-0.0721129,,2,3.0
Li4Sb4Tb3,0.0,-0.0280713,,2,3.0
Ni2InAu,0.0,-0.0337879,,2,3.0
Cl6K2CuEr,2.4517,-0.0149716,,2,3.0
SiNbSm,0.0,-0.0298341,,2,3.0
Rh3Sn2Pu,0.0,-0.047566,,2,3.0
O5Se2Y2Zr2,1.4402,-0.0204298,,2,3.0
CSi2Dy2Ir2,0.0,-0.0392043,,2,3.0
O7K2Ta2Np,0.0,-0.0277935,,2,3.0
MgP2Fe2,0.0,-0.0129335,,2,3.0
Al3Si2CoU3,0.0,-0.0414297,,2,3.0
Mn3Fe5,0.0,-0.0181764,,2,3.0
OCa3Ge,0.0398,-0.0125788,,2,3.0
Te2NdTl,0.2434,-0.0487911,,2,3.0
S3MnRbSr,0.0,-0.016536,,2,3.0
F6Rb3Au,0.6473,-0.0174557,,2,3.0
Ni3Pu2,0.0,-0.0537351,,2,3.0
CuGe6Tb2,0.0,-0.0252961,,2,3.0
Cu2SrAg,0.0,-0.0210799999999999,,2,3.0
HCdHf3,0.0,-0.0445901,,2,3.0
SnEu2,0.0,-0.0483838,,2,3.0
LiAsRu,0.0,-0.0197566,,2,3.0
Co3Pr2,0.0,-0.0276891,,2,3.0
O3HoAu,0.9883,-0.0295184,,2,3.0
Si2CrNi,0.0,-0.013958,,2,3.0
O4PCr,0.6197,-0.0114848,,2,3.0
Mn6FeAs4,0.0,-0.0192203,,2,3.0
OZnSm3,0.0,-0.0320234,,2,3.0
FeY2Os,0.0,-0.0365506,,2,3.0
S2KAg3,1.4937,-0.0207516999999999,,2,3.0
B2CaIr3,0.0,-0.0403384,,2,3.0
Al3Sc3NiSn2,0.0,-0.017773,,2,3.0
Ge2Hf,0.0,-0.0341391,,2,3.0
CrTb6Bi2,0.0,-0.0511525,,2,3.0
F8Na2SrPr,0.0,-0.0119435,,2,3.0
O3ZnPb,0.0004,-0.022751,,2,3.0
ZnSb4Sm2,0.0,-0.0367187,,2,3.0
O6GeTe2,3.6177,-0.0158864,,2,3.0
MgKSb,1.3043,-0.0175316,,2,3.0
Cl6GaRb3,3.5731,-0.0144269,,2,3.0
La3Ho,0.0,-0.0445549,,2,3.0
N2Ir,0.0,-0.0297012,,2,3.0
Co4ZnSn6,0.0,-0.0270212,,2,3.0
Si5Co3Tb2,0.0,-0.02028,,2,3.0
MgErAu2,0.0,-0.0493922,,2,3.0
AlSbAu5,0.0,-0.0559724999999999,,2,3.0
CuZnSe2,0.0,-0.0176417,,2,3.0
Al2Ta,0.0,-0.0276533,,2,3.0
O7P2Ca2,5.5707,-0.0106679,,2,3.0
Ge2SmIr3,0.0,-0.0501069,,2,3.0
Li2F3Ag,2.061,-0.0102433,,2,3.0
TcPr3,0.0,-0.0411789,,2,3.0
Ge2PmLu,0.0,-0.0350501,,2,3.0
S4Sc2Zn,0.3759,-0.0133313,,2,3.0
Fe2GaTm2,0.0,-0.0314946,,2,3.0
Ga2Cd2Tm,0.0,-0.0294403,,2,3.0
SiNi2Ho2,0.0,-0.0287754,,2,3.0
Cl3ICs,0.5571,-0.0206206,,2,3.0
SmEuBi,0.0,-0.0596967,,2,3.0
InTeAu,0.0,-0.0468388,,2,3.0
PrPb2Ac,0.0,-0.0720719,,2,3.0
O2STm2,2.9578,-0.0287491,,2,3.0
In2PrPt,0.0,-0.0460022,,2,3.0
Al2P2Cs,0.0,-0.0153857,,2,3.0
CSc2Mn2Sn2,0.0,-0.0214136999999999,,2,3.0
Al5Co2Hf,0.0,-0.0175259,,2,3.0
O8S2KRu,0.0,-0.0109445999999999,,2,3.0
O8KCr2Fe,0.0,-0.0113091,,2,3.0
Al2CrZn,0.0,-0.0119892,,2,3.0
S6AsAg6Sb,0.6485,-0.0218278,,2,3.0
O4SEu,0.7054,-0.0171361999999999,,2,3.0
TiAsIr,0.8889,-0.0368524,,2,3.0
MgRuIn,0.0,-0.0245101,,2,3.0
O2NiEr,0.0,-0.0222296,,2,3.0
N3CaCo,0.0,-0.0113753,,2,3.0
SiEu2,0.0,-0.0396132,,2,3.0
TbTmTl2,0.0,-0.0613412999999999,,2,3.0
Cu2SnEr2,0.0,-0.0339636,,2,3.0
B2AlRu2,0.0,-0.0189311,,2,3.0
O6Ba2IrPt,0.0,-0.0274442999999999,,2,3.0
C2NiSr,0.0,-0.0148202,,2,3.0
F6CrSn2,0.6197,-0.0148077,,2,3.0
F6SiTl2,4.7622,-0.0223429,,2,3.0
Al2SmPt3,0.0,-0.0464539,,2,3.0
Al5CaNi2,0.0,-0.0106387,,2,3.0
CuCdHg2,0.0,-0.0454232,,2,3.0
SrTe3TbAu,0.4571,-0.0429955,,2,3.0
Li2Se3Te,0.2523,-0.0177791,,2,3.0
FeTb2,0.0,-0.0371216,,2,3.0
Ag5Tm,0.0,-0.0349275999999999,,2,3.0
O5Se2Zr2Tm2,1.3095,-0.0247493,,2,3.0
F6Rb3Ce,0.1717,-0.0162408,,2,3.0
O5S2Ti2Eu2,0.0,-0.0201367,,2,3.0
H3NaCd,0.472,-0.009012,,2,3.0
SiCa2Ni2,0.0,-0.0127566,,2,3.0
O4ClSb2Nd,0.571,-0.0209966,,2,3.0
F6NdHg,0.0,-0.0192063,,2,3.0
S4Rb3Ta,2.5464,-0.0223427,,2,3.0
Si3FeCe,0.0,-0.0190985,,2,3.0
LaPmIr2,0.0,-0.0580129,,2,3.0
O4AlTe,0.0,-0.0135862999999999,,2,3.0
NiHgTh,0.0,-0.0604926,,2,3.0
CoGe2La,0.0,-0.0253532,,2,3.0
CMo2Sn2Tb2,0.0,-0.035494,,2,3.0
O3RhHo,0.8514,-0.0228001,,2,3.0
O6K2Mn2Te,0.1085,-0.0133702,,2,3.0
LiTi11O20,0.0,-3.3719351871875,mp-772108,2,3.0
Cd2NdSm,0.0,-0.0376387,,2,3.0
H2Ac,0.0,-0.0331421,,2,3.0
SeBrNd,2.1567,-0.0298219999999999,,2,3.0
O4K3Ti,0.0,-0.0103577999999999,,2,3.0
C2MnPu,0.0,-0.0371689,,2,3.0
NaCuSe3Nb,0.0,-0.0195844999999999,,2,3.0
MgGaTb2,0.0,-0.0290926,,2,3.0
Be2MgZr2,0.0,-0.0150876999999999,,2,3.0
ScYCd4,0.0,-0.0276243,,2,3.0
MnGePd2,0.0,-0.026291,,2,3.0
Sr2In2I,0.0,-0.030587,,2,3.0
As2HoAu,0.0,-0.0404645,,2,3.0
Ca2As2Sn,0.0,-0.0199881999999999,,2,3.0
LiBeP,1.0576,-0.0063898,,2,3.0
Sc2NiIr,0.0,-0.0298651,,2,3.0
OCuEr3,0.0,-0.0359269,,2,3.0
PCoTm2,0.0,-0.0337167,,2,3.0
Ge2PrAu2,0.0,-0.0447274999999999,,2,3.0
H3O2Rb,4.4226,-0.0085659,,2,3.0
MgCeOs,0.0,-0.040653,,2,3.0
CoGeTe,0.0,-0.0246567,,2,3.0
Cu3Hf,0.0,-0.0272439,,2,3.0
Sc3Ga3Ge2Pt,0.0,-0.0231393999999999,,2,3.0
B5Dy2Os3,0.0,-0.0354005,,2,3.0
OFZr,0.0,-0.0169257999999999,,2,3.0
O2NiRb3,0.0,-0.0162702,,2,3.0
Ca2Ni2Ga3,0.0,-0.0149197,,2,3.0
Br4RbAu,1.4481,-0.0288018,,2,3.0
Co2SbPm,0.0,-0.0292163,,2,3.0
CoIn2Pr6,0.0,-0.0385168,,2,3.0
S4K3Bi,1.073,-0.0186409,,2,3.0
OAs2Sr4,1.082,-0.0212048,,2,3.0
Si2ScRe4,0.0,-0.045908,,2,3.0
NGaGeSr2,0.0,-0.018651,,2,3.0
O4WTl2,3.0504,-0.0358869,,2,3.0
H16LiB4MgRb,6.1619,-0.0052781,,2,3.0
C2O6MgCa,5.0121,-0.0095701,,2,3.0
OCl4KNb,2.4235,-0.0132975,,2,3.0
LiErPb2,0.0,-0.0515469999999999,,2,3.0
Al3Te4,0.0,-0.0249781,,2,3.0
ScZr2Tl,0.0,-0.037272,,2,3.0
F8SrTm2,7.22,-0.0184389,,2,3.0
F6K2AgAu,0.0,-0.0157039,,2,3.0
FePd7,0.0,-0.0310387,,2,3.0
Al4NiHf,0.0,-0.0187826,,2,3.0
Mg2Ag2La,0.0,-0.0234763,,2,3.0
CCo2Ge2Tm2,0.0,-0.0272951,,2,3.0
O8P2SrTh,5.018,-0.0189666,,2,3.0
AgLaAu2,0.0,-0.0539329,,2,3.0
Cd7Pb,0.0,-0.0360329,,2,3.0
Ge2RhSm,0.0,-0.0300057,,2,3.0
NaP2Pd2U,0.0,-0.0330161999999999,,2,3.0
O5AlBa2Nd,3.7558,-0.0212193,,2,3.0
O8Ca2Fe3,0.0,-0.0116349,,2,3.0
Cl6K2Th,4.6461,-0.0201207,,2,3.0
MgCl4K2,4.8532,-0.0098069,,2,3.0
SiS4K2Cd,2.9749,-0.0130887,,2,3.0
Ir3Pa,0.0,-0.0791621,,2,3.0
Al2ScPd,0.0,-0.0165458,,2,3.0
AlZn2Tm,0.0,-0.0220745,,2,3.0
LiCu2Te2,0.0,-0.0217543,,2,3.0
AlNiSb,0.0,-0.0208055999999999,,2,3.0
NCr3Co,0.0,-0.0164532999999999,,2,3.0
ScIn5,0.0,-0.0303802,,2,3.0
S3Rb2Rh,0.0,-0.0182089,,2,3.0
Mg2SiFe3,0.0,-0.0125372,,2,3.0
As2Sb3,0.0,-0.0303735,,2,3.0
S3NiDyPb,0.0,-0.0292719,,2,3.0
PmDyHg2,0.0,-0.0577212999999999,,2,3.0
F6BrRb,3.9718,-0.0092592,,2,3.0
S3Rb2Tm,0.0,-0.0219549,,2,3.0
GeYSn,0.0,-0.028337,,2,3.0
Cd7Au,0.0,-0.0352919,,2,3.0
O6CrBa2Ta,0.8139,-0.0232679,,2,3.0
Mg3Ga3Ge2Ir,0.0,-0.0196105,,2,3.0
AsBr2Gd2,0.0,-0.0371918,,2,3.0
AgTh2,0.0,-0.0743931,,2,3.0
AlPd2Tb2,0.0,-0.0343351,,2,3.0
EuAu4,0.0,-0.0666328,,2,3.0
Br3RbAu,0.2555,-0.0306,,2,3.0
CrAsPd,0.0,-0.0242287999999999,,2,3.0
FeGe2In3Sm3,0.0,-0.0327904,,2,3.0
Mg2Zn2Ag,0.0,-0.0137879,,2,3.0
Tc5Pt4,0.0,-0.05095,,2,3.0
Cl2AsGd2,0.0,-0.0328001999999999,,2,3.0
F8CaNp2,0.0,-0.0266716,,2,3.0
Li3O8Ni4Sn,0.0,-0.0115086999999999,,2,3.0
BeCoPt2,0.0,-0.0410875,,2,3.0
ZnCdTh,0.0,-0.0468873,,2,3.0
SiTiMo,0.0,-0.0209529,,2,3.0
NMn3In,0.0,-0.0197348,,2,3.0
Fe4ZrNb,0.0,-0.0228609,,2,3.0
HILu,0.0,-0.0328828,,2,3.0
RuPd2Sm3,0.0,-0.0396693,,2,3.0
GdHoBi,0.0,-0.0628499,,2,3.0
CuSe8Nb4,0.0,-0.024564,,2,3.0
LiO2Pd,0.1022,-0.0131097,,2,3.0
Be2P2In,0.0,-0.0127377,,2,3.0
H6MnZr2,0.0,-0.0115453,,2,3.0
Tm2Hg,0.0,-0.0577207,,2,3.0
MgTcGd2,0.0,-0.0393647,,2,3.0
ScPb2,0.0,-0.0556614,,2,3.0
MgZn2Rh,0.0,-0.0168830999999999,,2,3.0
GaBrY,0.0,-0.0226427,,2,3.0
B2Ni2Lu,0.0,-0.0210962,,2,3.0
LiRuTm2,0.0,-0.0356257,,2,3.0
As2Hf,0.0,-0.0351858,,2,3.0
PmTb3,0.0,-0.0460518,,2,3.0
Li4O12FeNbW2,0.6088,-0.0160884,,2,3.0
H6FeTb2,0.0,-0.0152891,,2,3.0
LiONa,3.0528,-0.0059146,,2,3.0
VMoW,0.0,-0.0408191,,2,3.0
Br3Os,0.0,-0.0326295,,2,3.0
Si3AgBa2,0.0,-0.0238863,,2,3.0
Co3Ga,0.0,-0.0171692,,2,3.0
O12Al6SSr4,3.1983,-0.0128424,,2,3.0
CoY,0.0,-0.0227313,,2,3.0
In2CsTl2,0.0,-0.0500329,,2,3.0
Ca3Ga3Ge2Au,0.0,-0.0212852,,2,3.0
LiCl6VRb2,0.0,-0.0128597,,2,3.0
Mn4TaOs,0.0,-0.0353181,,2,3.0
NGaHf3,0.0,-0.0438928,,2,3.0
AlSc2Ge2,0.0,-0.0156269,,2,3.0
CdTm2Os,0.0,-0.0519164,,2,3.0
PdTh,0.0,-0.0651498,,2,3.0
O4SnBi,0.0,-0.0245294,,2,3.0
Cl8Fe2Au,0.3217,-0.0161356,,2,3.0
FeOs,0.0,-0.0448151,,2,3.0
Se4Nb3,0.0,-0.0266329,,2,3.0
NaGaGe,0.0,-0.0134007,,2,3.0
TiGeRu,0.0,-0.0240803,,2,3.0
KTe2Pu,0.0,-0.0493438,,2,3.0
Li4AlLa,0.0,-0.0101393,,2,3.0
AlInAc2,0.0,-0.0559086,,2,3.0
O6Ba2LaHf,0.0,-0.0254805,,2,3.0
Al5HoAu,0.0,-0.0228769999999999,,2,3.0
B2Pd7Ba3,0.0,-0.0307771,,2,3.0
PYRu,0.0,-0.0255563,,2,3.0
Li2O7Zr2La,0.0,-0.0158704,,2,3.0
LiSiPd,0.0,-0.0156413,,2,3.0
Ca2Ge2Pt,0.0,-0.0264148999999999,,2,3.0
O3BrRb,3.6742,-0.0125118,,2,3.0
O6TiBa2Os,0.0,-0.0230897,,2,3.0
Rb3CdCs,0.0,-0.0260677,,2,3.0
Al3PdIn2Ho3,0.0,-0.0307273,,2,3.0
Al3TmAu2,0.0,-0.0363325,,2,3.0
Ni2ZnEr3,0.0,-0.0332699,,2,3.0
S4CrU,0.0,-0.0279137,,2,3.0
Y2Cd2Tl,0.0,-0.0381966,,2,3.0
O2MgAu,0.0,-0.0232,,2,3.0
Ga3Ge2RuSm3,0.0,-0.0291863,,2,3.0
Li5S4Sb,1.4409,-0.0099525,,2,3.0
Ni3Se2In2,0.0,-0.0225261,,2,3.0
O5Nb2,2.4572,-0.016648,,2,3.0
CoRh2,0.0,-0.0282495,,2,3.0
P2Rh2Ba,0.0,-0.0266605,,2,3.0
N2MgPa,0.0,-0.0321686,,2,3.0
SbPtBi,0.0,-0.062476,,2,3.0
TiSeBr,0.0,-0.0198208,,2,3.0
VCr2Re,0.0,-0.0315806,,2,3.0
O4AsBi,2.8257,-0.0219835,,2,3.0
Fe3NiSb8,0.0,-0.0307622,,2,3.0
AgLaTl,0.0,-0.0494345,,2,3.0
Al2Ti2Pt,0.0,-0.0243204,,2,3.0
Mg2CsHg2,0.0,-0.0370558,,2,3.0
F6Cs2Dy,0.0,-0.019323,,2,3.0
FeRu2Dy2,0.0,-0.0369909,,2,3.0
V2MnSe4,0.0,-0.0198853,,2,3.0
AgPrBi2,0.0,-0.0585781,,2,3.0
LiAs2Pd2Pu,0.0,-0.037161,,2,3.0
ZnIn3Ba,0.0,-0.0311244,,2,3.0
Zr2Er,0.0,-0.0372066999999999,,2,3.0
AlCu2Nd2,0.0,-0.0254057,,2,3.0
Li5F6Cu,1.5685,-0.0067744,,2,3.0
FeGaZrRh,0.0,-0.0253608,,2,3.0
SBrNd,2.4739,-0.0265107,,2,3.0
Ga2DyOs,0.0,-0.0386559,,2,3.0
F6CoCs3,1.25,-0.0179448,,2,3.0
TiGe2Pm,0.0,-0.0252226,,2,3.0
RhEu2Au,0.0,-0.0532256,,2,3.0
TiMnRu2,0.0,-0.0265728,,2,3.0
Cs2Hg2Pb,0.0,-0.057802,,2,3.0
Co2Hf2Ir,0.0,-0.0467257,,2,3.0
AlRu2Lu,0.0,-0.0338173,,2,3.0
Ce2Au,0.0,-0.0532514,,2,3.0
LiPd2Er,0.0,-0.030333,,2,3.0
AlScIn2,0.0,-0.0225871,,2,3.0
Li4O5Ta,0.0,-0.0131185,,2,3.0
NOIn2Nd6,0.0,-0.0357375,,2,3.0
K2Pt3Tl,0.0,-0.0501852,,2,3.0
Sc2YRh,0.0,-0.0230838,,2,3.0
La3Er,0.0,-0.0448933,,2,3.0
MnIrPu2,0.0,-0.0775945,,2,3.0
RbTe2Nd,1.1144,-0.0363053,,2,3.0
C2VEr,0.0,-0.0225603,,2,3.0
Si2CoDy2,0.0,-0.0273303,,2,3.0
Rh2Tm2Tl,0.0,-0.0495272999999999,,2,3.0
LiSr2Hg,0.0,-0.029167,,2,3.0
LiPd2Th,0.0,-0.0415552,,2,3.0
Na2S2Au,0.0,-0.0201443,,2,3.0
S3Cs2Dy,0.0,-0.0269901,,2,3.0
CuLa2Pt2,0.0,-0.0493757,,2,3.0
AuTl4,0.0,-0.0717289,,2,3.0
P2GeBa,0.3957,-0.0205222,,2,3.0
Rh2LuTl,0.0,-0.0494887,,2,3.0
LiAlTm2,0.0,-0.0286595,,2,3.0
O6CdBa2Au,0.0,-0.02311,,2,3.0
Ga2Ag2Ba,0.0,-0.0273075,,2,3.0
MgCdLa,0.0,-0.0265493999999999,,2,3.0
Ni2Nd4Tl5,0.0,-0.0521214,,2,3.0
CuSb2Hg,0.0,-0.0393994,,2,3.0
BFe2Pd6,0.0,-0.0268945,,2,3.0
Fe2Ho2Tl,0.0,-0.0414403999999999,,2,3.0
MgAgTm,0.0,-0.0297278,,2,3.0
FeTcPu2,0.0,-0.0681345,,2,3.0
Ga(SiNi3)2,0.0,-0.468926548055557,mp-1225418,2,3.0
Ga3Sn2Sm3Ir,0.0,-0.0369838,,2,3.0
N2TmHf,0.0,-0.0353838,,2,3.0
SiGd,0.0,-0.0352227,,2,3.0
Al2Cu2Sr,0.0,-0.0139163,,2,3.0
Se2AgCs,0.0,-0.0279597,,2,3.0
NaZnBa3,0.0,-0.0272804,,2,3.0
SiCrMn,0.0,-0.0158005,,2,3.0
Hg2Tl,0.0,-0.0695854,,2,3.0
Li2F5Au,2.1661,-0.0135819,,2,3.0
Si3NiHo2,0.0,-0.0249016,,2,3.0
InTe2Pm,0.0,-0.0389613,,2,3.0
Tm5Lu,0.0,-0.0524168,,2,3.0
H3LiBe,4.576,-0.0037183,,2,3.0
MgK2Pb,0.0,-0.0246129,,2,3.0
Al3CrSn2Lu3,0.0,-0.0315888,,2,3.0
CSY2,0.0,-0.0203729,,2,3.0
SrSb2La2,0.0,-0.0377439,,2,3.0
Li2Cl3K,5.254,-0.0082398,,2,3.0
F7CsBi2,4.5987,-0.0244873,,2,3.0
TiSbTh,0.0,-0.0503406,,2,3.0
CuHoTl,0.0,-0.0459048,,2,3.0
FeTa2Os,0.0,-0.0561649,,2,3.0
H2Mn2Ir,0.0,-0.0230758,,2,3.0
B2CTm,0.0,-0.0198596,,2,3.0
SrIn2Sm,0.0,-0.0339378,,2,3.0
Ge2Tm6Ir,0.0,-0.0475,,2,3.0
LiK2Br6Pu,0.0,-0.0262971,,2,3.0
O9Ca3Tl4,0.5797,-0.0250939,,2,3.0
C3Tm2,0.0,-0.0271922,,2,3.0
Rb3Cs,0.0,-0.0250082999999999,,2,3.0
TcSn3I,0.0993,-0.0360147,,2,3.0
O6EuTa2,0.0,-0.0281392,,2,3.0
B2N3Y3Os2,0.0,-0.0283053,,2,3.0
NiAs2Nb6,0.0,-0.0287975,,2,3.0
CuAgPt,0.0,-0.038966,,2,3.0
Cu2Zr2Au,0.0,-0.0326367,,2,3.0
Al2CeAu2,0.0,-0.0406493,,2,3.0
Sb2Sm6Pt,0.0,-0.0466522999999999,,2,3.0
S3KMnAg,0.0,-0.0152264,,2,3.0
RhCdLa,0.0,-0.0364257,,2,3.0
LiCoZnSn,0.0,-0.017386,,2,3.0
O8As2CsCe,0.0,-0.016285,,2,3.0
SiCdPm2,0.0,-0.032552,,2,3.0
N2TiZn,2.3229,-0.0130993,,2,3.0
O6TiFeY2,0.5094,-0.0159185,,2,3.0
CaNiSb,0.0,-0.0217489999999999,,2,3.0
KSe2Y,1.7776,-0.0211182,,2,3.0
Cl6CuRb2La,2.3479,-0.0167703999999999,,2,3.0