formula,bg,formation_energy,mp-id,fidelity,bg_category
CuGa2Pd,0.0,-0.0204431,,2,3.0
Al3Si2Sc3Fe,0.0,-0.0122428,,2,3.0
N2ZrPu,0.0,-0.0415033,,2,3.0
MgPd7,0.0,-0.029579,,2,3.0
NiAu7,0.0,-0.0624666,,2,3.0
P2S7Cr,0.0,-0.0110619,,2,3.0
NiAsMo,0.0,-0.0239910999999999,,2,3.0
PNbRh,0.0,-0.0267315,,2,3.0
Si2CuTh,0.0,-0.0333315,,2,3.0
O12KI4Au,2.1911,-0.0171454999999999,,2,3.0
Pd2In3Pr3,0.0,-0.0377553,,2,3.0
CrPd2Au,0.0,-0.038508,,2,3.0
N3RuGd,0.0,-0.0248557999999999,,2,3.0
Al2KSb2,0.0,-0.0199117,,2,3.0
Ti2NbIn,0.0,-0.0248662999999999,,2,3.0
O6CdBa2Ta,0.0,-0.0239765,,2,3.0
AlNiY,0.0,-0.0179058,,2,3.0
Al2As4Sr3,1.0671,-0.0192422,,2,3.0
NaS4TiV,0.0,-0.0122659,,2,3.0
GeCsAu3,0.0,-0.0531013,,2,3.0
O2FBr,2.5504,-0.0090241,,2,3.0
NiGa5Tm,0.0,-0.0219215,,2,3.0
S3CrGe,0.3761,-0.0139593,,2,3.0
Al2Pd3Er,0.0,-0.0283602,,2,3.0
Na2AgSb,0.5511,-0.0196824,,2,3.0
Ni6As4Y,0.0,-0.0192246999999999,,2,3.0
S2SrAg2,0.7283,-0.021882,,2,3.0
Ge3Y,0.0,-0.0217813,,2,3.0
InCeAu2,0.0,-0.0548406,,2,3.0
O6ZnBa2U,1.7665,-0.0263679,,2,3.0
NSnDy3,0.0,-0.0389414,,2,3.0
K2Br6InHg,0.0,-0.0246413,,2,3.0
Se3Dy2,0.9686,-0.0332757999999999,,2,3.0
Li2Mg2NdPb2,0.0,-0.0304926999999999,,2,3.0
AlNi2Th,0.0,-0.0346013,,2,3.0
H2Zn2Ru,0.0,-0.0136959,,2,3.0
B2Fe3Th,0.0,-0.0277527,,2,3.0
RhLa2,0.0,-0.0406375,,2,3.0
HgTl7,0.0,-0.0718079,,2,3.0
NaMgS2Rb,2.4148,-0.0112173999999999,,2,3.0
FCuSeEu,0.0,-0.0252753,,2,3.0
Mg2Hg3,0.0,-0.0431343999999999,,2,3.0
HAlNb3,0.0,-0.0223795,,2,3.0
Al2SrRh3,0.0,-0.0240593,,2,3.0
O4SCr,0.0,-0.0105472,,2,3.0
NaNdTl2,0.0,-0.0485822,,2,3.0
ScRhPb,0.0,-0.0420023,,2,3.0
Be2SnHf2,0.0,-0.0343329999999999,,2,3.0
Mn2Ga5Ho,0.0,-0.0213327,,2,3.0
AlPFe2,0.0,-0.0139285,,2,3.0
KAsIn,0.0,-0.021024,,2,3.0
GaSe2Y,0.0769,-0.0224675,,2,3.0
CAsPr3,0.0,-0.0327855,,2,3.0
N2MgCr,0.0,-0.0113864999999999,,2,3.0
AlPdHo,0.0,-0.0308635,,2,3.0
NaAg2Hg2,0.0,-0.0407451999999999,,2,3.0
LiSeY2,0.0,-0.0204771,,2,3.0
O8P3K,5.1726,-0.0097708999999999,,2,3.0
H8B2Ca,4.7934,-0.0051597,,2,3.0
GdIr2,0.0,-0.0679054,,2,3.0
S2KRh,0.9675,-0.0162918,,2,3.0
Ga3Ge2PdEr3,0.0,-0.0309841,,2,3.0
O6ZnBa2Bi,0.0,-0.0226873,,2,3.0
Sc2AgPb,0.0,-0.0343996,,2,3.0
NCa3Pd,0.0,-0.014988,,2,3.0
CaSbPu,0.0,-0.0530698,,2,3.0
Na2InPt2,0.0,-0.0368091,,2,3.0
CuTe3BaTm,0.3319,-0.0377401,,2,3.0
Ga2Ag2Sm,0.0,-0.0284012999999999,,2,3.0
Al5RuTb,0.0,-0.0177796,,2,3.0
BAl2Fe2Ce,0.0,-0.0176597,,2,3.0
TiAsPd5,0.0,-0.029192,,2,3.0
Ni2RbSb2,0.0,-0.0258156,,2,3.0
Rh2CdW,0.0,-0.042122,,2,3.0
KSb2Tl,0.0,-0.0390086,,2,3.0
H4PdDy,0.0,-0.0162441,,2,3.0
AlZr2Ir2,0.0,-0.0433849,,2,3.0
Pd2PrIr3,0.0,-0.0541403,,2,3.0
Al3Y,0.0,-0.0132386,,2,3.0
Ge2NbHf2,0.0,-0.0401032,,2,3.0
Al2AgPt2,0.0,-0.038426,,2,3.0
O4VIn,3.0954,-0.0148961,,2,3.0
Ag2Nd,0.0,-0.0357569,,2,3.0
S4Rb3Nb,2.2184,-0.0181202,,2,3.0
O6Ca2RuCd,0.0,-0.0141644,,2,3.0
ZrErOs2,0.0,-0.0567484,,2,3.0
SrI4Dy,0.0,-0.0376851,,2,3.0
C2O6K2Fe,0.107,-0.0101239,,2,3.0
Si3Tb2,0.0,-0.0253441,,2,3.0
FeSe2Pd2,0.0,-0.0249982,,2,3.0
Sc3CuAu2,0.0,-0.0335348,,2,3.0
GeBr2Tm2,0.0,-0.0339037,,2,3.0
TiRu2Hf,0.0,-0.0380104,,2,3.0
AlVFe2,0.0,-0.0158118,,2,3.0
BGa2Ru2La,0.0,-0.0262028,,2,3.0
S3Nb,0.0,-0.0163371,,2,3.0
OF5Sn2,1.777,-0.0143523,,2,3.0
SSePt,0.0,-0.033759,,2,3.0
AlCu2Th2,0.0,-0.0462681,,2,3.0
Ga3PdSn2Lu3,0.0,-0.0362377,,2,3.0
N2TaU,0.0,-0.0484259,,2,3.0
H2Tc2Os,0.0,-0.0296723999999999,,2,3.0
Ag2SnPm,0.0,-0.0360964,,2,3.0
C2O6CdNd,0.0,-0.0150246999999999,,2,3.0
CdPb,0.0,-0.0530383,,2,3.0
KHgBi,0.0,-0.0520975,,2,3.0
MgIn2Ir,0.0,-0.0360503,,2,3.0
F6AgCs2Tl,0.4039,-0.0223079,,2,3.0
GaNdIr,0.0,-0.0446064,,2,3.0
NSnSm3,0.0,-0.0368728,,2,3.0
O5PMo,0.6029,-0.0132002,,2,3.0
Pu2IO10,0.054699999999999,-1.9634944432692292,mp-1205014,2,3.0
N6OP4,4.3739,-0.0101967999999999,,2,3.0
Ni2ZrSb,0.0,-0.0257185999999999,,2,3.0
Zn2Ir,0.0,-0.0329844,,2,3.0
ZnBa2Tl,0.0,-0.0416323,,2,3.0
Co2Ga5Ba,0.0,-0.0198045,,2,3.0
NaZn2Sn2,0.0,-0.0207325,,2,3.0
ScAgTl,0.0,-0.0396225,,2,3.0
CTi3Cd,0.0,-0.0182746,,2,3.0
Cl6CaInCs2,0.0,-0.0186686,,2,3.0
GeRuBa,0.0,-0.031672,,2,3.0
Li2O4W,3.6486,-0.0165898,,2,3.0
CdHg2Pb,0.0,-0.0606064,,2,3.0
O8Rb3Er,0.0,-0.0149601,,2,3.0
Sr2Pt2Tl,0.0,-0.052319,,2,3.0
H2In2Ba,0.0,-0.0231185,,2,3.0
Be13Er,0.0,-0.0078136,,2,3.0
O4SrAu2,1.5696,-0.0278061,,2,3.0
LiCu4Sr,0.0,-0.0142469,,2,3.0
Co4Sn4Tb3,0.0,-0.0324514,,2,3.0
F6Tl2Th,4.4341,-0.0322673,,2,3.0
Si3PdNd,0.0,-0.0219857,,2,3.0
SiMnY2,0.0,-0.0215309999999999,,2,3.0
As3Se2,0.0,-0.0201601,,2,3.0
Ru3Ta,0.0,-0.0429854,,2,3.0
Li2Mg2Sr,0.0,-0.0073868,,2,3.0
AlYRu,0.0,-0.0241604999999999,,2,3.0
O4VHo,2.8844,-0.018556,,2,3.0
NaCrCu2Sb2,0.0,-0.0214228999999999,,2,3.0
MgS4TiIn,0.0,-0.0145181,,2,3.0
S2RbAgCd,1.7334,-0.0211523,,2,3.0
Be2TiHf,0.0,-0.0219683,,2,3.0
Be2As2Tm,0.0,-0.0208457,,2,3.0
Cu2As2CsCe,0.0,-0.0262522,,2,3.0
Mg3Cd2,0.0,-0.0152886,,2,3.0
Si2Pd2Pb,0.0,-0.0325924,,2,3.0
B2Pr3Pt7,0.0,-0.0540555,,2,3.0
Rh2Tm2Hg,0.0,-0.0487394,,2,3.0
CoTm,0.0,-0.0348367999999999,,2,3.0
Be4ScCo,0.8512,-0.0084304,,2,3.0
Li2MgLa2,0.0,-0.0191644,,2,3.0
CCoTm,0.0,-0.0267943,,2,3.0
Pd2SmHg,0.0,-0.0452396,,2,3.0
MgSn2Tl2,0.0,-0.0442329999999999,,2,3.0
RhTeCe,0.0,-0.039713,,2,3.0
O6TeBa2Nd,0.0,-0.0223276,,2,3.0
InHf2Hg,0.0,-0.0569707999999999,,2,3.0
O6ZnEu2Au,0.0,-0.0246146,,2,3.0
Li2Sn2Tl,0.0,-0.0300395,,2,3.0
SnErAu,0.0374,-0.0529209,,2,3.0
Sc6CoPb2,0.0,-0.0287197,,2,3.0
FeSn3Ba,0.0,-0.0333624,,2,3.0
O6MgZrPr2,4.0647,-0.0195426,,2,3.0
Li4F7Cu,0.8319,-0.0067606,,2,3.0
F6NaCaLa,6.8799,-0.0127348,,2,3.0
O6Sr2SbLu,3.7319,-0.0204712999999999,,2,3.0
RhNd2,0.0,-0.0408548,,2,3.0
InLu2Pb,0.0,-0.0554529,,2,3.0
Co4CdSn6,0.0,-0.0285891,,2,3.0
O2Y2Tl,0.0,-0.0308477999999999,,2,3.0
O6MoBa2Pu,0.0,-0.0290119,,2,3.0
Cl4CaPb,3.6897,-0.0214776,,2,3.0
Si2Rh3,0.0,-0.0252246,,2,3.0
Al2Rh2Eu,0.0,-0.0283077,,2,3.0
SbSm2,0.0,-0.042983,,2,3.0
GaTm2Ir,0.0,-0.0486864,,2,3.0
O5S2Ti2La2,0.8135,-0.0185319,,2,3.0
O6Ca2CoIr,0.0,-0.0164767,,2,3.0
CuRhTa,0.0,-0.0388859,,2,3.0
RhCd,0.0,-0.0321728,,2,3.0
HNbTa,0.0,-0.0345669,,2,3.0
Ru2WOs,0.0,-0.0528287,,2,3.0
O7Sr3Ir2,0.0,-0.0230353999999999,,2,3.0
Sc3In3Pt2,0.0,-0.0364523999999999,,2,3.0
Li2FeRh,0.0,-0.0142561,,2,3.0
ZnEuPb,0.0,-0.0482124,,2,3.0
Co3Ni2Tb,0.0,-0.0219892,,2,3.0
Li5NI2,2.3202,-0.0127726,,2,3.0
FClSr,5.7279,-0.0148141,,2,3.0
Mg2ScRh,0.0,-0.0150221,,2,3.0
PSnBa,0.0,-0.0294376,,2,3.0
H2PLa2,0.0,-0.0217591,,2,3.0
CoRe2Os,0.0,-0.0578456,,2,3.0
Zr6Te2Ir,0.0,-0.03748,,2,3.0
KHgPb,0.0,-0.0510807,,2,3.0
Y2TeI2,0.0,-0.0347233,,2,3.0
CaPb,0.0,-0.0434625,,2,3.0
O3PrBi,3.0603,-0.0304701,,2,3.0
Rh7Ta,0.0,-0.0381706999999999,,2,3.0
Ge2Ag2Eu,0.0,-0.0313472,,2,3.0
CaZrHg2,0.0,-0.0446649999999999,,2,3.0
O3ScTl,1.1344,-0.023296,,2,3.0
LiYIr4,0.0,-0.0530326999999999,,2,3.0
LaIrPb,0.0,-0.0640684,,2,3.0
Fe4SmDy,0.0,-0.0274471,,2,3.0
LiZnRbTe2,1.552,-0.0231917,,2,3.0
ScFeI,0.0,-0.0236327,,2,3.0
CuGe3Ba,0.0,-0.0227851,,2,3.0
NiEr3Ir2,0.0,-0.0524514,,2,3.0
Zn2RuTm3,0.0,-0.0367564,,2,3.0
CoSb2Pa,0.0,-0.0483354,,2,3.0
B2CFe2Y,0.0,-0.0152503,,2,3.0
FeEr2Ir2,0.0,-0.053081,,2,3.0
PdPb4,0.0,-0.0673168,,2,3.0
CoPd2Te2,0.0,-0.0317667,,2,3.0
Zn2SrNd,0.0,-0.0234895,,2,3.0
Si3Ni2La,0.0,-0.0182041,,2,3.0
O6ScPdBa2,0.0,-0.0187678,,2,3.0
Er2HgTl,0.0,-0.0609042,,2,3.0
LiNi2Re,0.0,-0.0264488999999999,,2,3.0
CoGa6Lu,0.0,-0.0216814,,2,3.0
Y2SbTe,0.0,-0.0339803,,2,3.0
B2CSrPt2,0.0,-0.0318899,,2,3.0
Cu2Tb2Pb,0.0,-0.0404471,,2,3.0
Ge2Rh2Lu,0.0,-0.0331961999999999,,2,3.0
Li2BeSi,0.3467,-0.0049661,,2,3.0
Al3Si2CuTm3,0.0,-0.0244624999999999,,2,3.0
CSiRu2Ce,0.0,-0.0275103,,2,3.0
Li5O5Ti,0.0,-0.0077145,,2,3.0
PKBa2,0.0,-0.0251822,,2,3.0
Rh2Er2Hg,0.0,-0.0481326,,2,3.0
HInPt3,0.0,-0.0497139,,2,3.0
TbTmIr2,0.0,-0.0612287,,2,3.0
AsPt5Pb,0.0,-0.0639743,,2,3.0
OMgAsLa,1.2209,-0.0208848,,2,3.0
Zn2Zr2In,0.0,-0.0248281,,2,3.0
ZnTaIr,0.0,-0.0509337,,2,3.0
Li2LaPt,0.0,-0.0301605,,2,3.0
RuPa2,0.0,-0.0783829,,2,3.0
Fe4SnTa,0.0,-0.0292165,,2,3.0
GeGd2Pt3,0.0,-0.0590718,,2,3.0
F6MnNb,0.0,-0.0120783,,2,3.0
Cl6K3Mo,1.3134,-0.012501,,2,3.0
CrFeRu2,0.0,-0.0263681,,2,3.0
Sb2Gd,0.0,-0.0451498,,2,3.0
Ga6AgEr,0.0,-0.0227155,,2,3.0
B2O6Mn3,0.722,-0.0120358,,2,3.0
NaGa2Pt,0.0,-0.0273548,,2,3.0
SrInAu,0.0,-0.0424386,,2,3.0
Fe4ZrAu,0.0,-0.0289595,,2,3.0
Se3Lu2,0.9939,-0.0362578,,2,3.0
H4Rh3Tm,0.0,-0.0212369,,2,3.0
Zr4Au,0.0,-0.0386853,,2,3.0
Al2TcPt,0.0,-0.0312053,,2,3.0
TiMo,0.0,-0.0254842,,2,3.0
Al2TbIr,0.0,-0.0343527,,2,3.0
Li6Se2Sb,0.0,-0.0112777,,2,3.0
O4NbTm,3.3851,-0.0217299,,2,3.0
SrBaTl4,0.0,-0.0589673,,2,3.0
Cu2Pd3Ba,0.0,-0.0284046999999999,,2,3.0
Ru2ReIr,0.0,-0.0531482,,2,3.0
LiCa,0.0,-0.0060254,,2,3.0
Cd3BaIr,0.0,-0.0406061,,2,3.0
H2Sr2I,0.0,-0.0185205,,2,3.0
F6RbCs2Ce,0.0767,-0.0196564,,2,3.0
Ag4SbTl,0.0,-0.039085,,2,3.0
Zn2PrDy,0.0,-0.0299118,,2,3.0
PdAg,0.0,-0.0321392999999999,,2,3.0
ZrRu2Ta,0.0,-0.0423225,,2,3.0
BNCaRh,0.0,-0.016093,,2,3.0
BNCuGd,0.0,-0.0236627,,2,3.0
Mg2LaCe,0.0,-0.0244263,,2,3.0
O4V2Co,0.0,-0.013302,,2,3.0
O4PSb,3.8929,-0.0141586,,2,3.0
Cu2As4Sr3Cd2,0.1314,-0.0225243,,2,3.0
O6CdBa2U,1.8558,-0.0279934,,2,3.0
B2EuIr2,0.0,-0.0429577,,2,3.0
MnNi4Ho,0.0,-0.0223985,,2,3.0
O4SeRb2,3.6976,-0.0139032,,2,3.0
Cr2Hf,0.0,-0.0332224999999999,,2,3.0
B6Mn2Sr,0.0,-0.0118975,,2,3.0
Ti2CrRh,0.0,-0.0215914,,2,3.0
AlCuY,0.0,-0.0174672,,2,3.0
BCDyIr,0.0,-0.0347289,,2,3.0
NbRu2Pt,0.0,-0.0437281,,2,3.0
LiO4K2V,3.9665,-0.0101528,,2,3.0
ZnHo6Pb2,0.0,-0.051499,,2,3.0
RuInLa3,0.0,-0.0400422999999999,,2,3.0
NiRbI3,0.0,-0.0300982999999999,,2,3.0
CaGa5Pd,0.0,-0.0181973,,2,3.0
N2Ba3,0.0,-0.0279471,,2,3.0
PdInPu,0.0,-0.0589409,,2,3.0
FeNiZn,0.0,-0.0160535,,2,3.0
Ga3HoPt2,0.0,-0.0406548,,2,3.0
LiCu4Pt,0.0,-0.0223469,,2,3.0
MgGa3Ce,0.0,-0.0202408,,2,3.0
Ni3Cu2Sr,0.0,-0.0168689,,2,3.0
Cd2NdIr,0.0,-0.0443312,,2,3.0
Sb2Dy6W,0.0,-0.0484137,,2,3.0
Al12Mo,0.0,-0.0099613,,2,3.0
TiHf2Os,0.0,-0.0537776,,2,3.0
Sc2NiZn,0.0,-0.0150473999999999,,2,3.0
SiFe2Hf,0.2784,-0.0277322999999999,,2,3.0
H4PtU,0.0,-0.0314042999999999,,2,3.0
Ca2InTe2,0.0,-0.026586,,2,3.0
N2CeHf,0.0,-0.033371,,2,3.0
MgK4As2,0.4151,-0.0117631,,2,3.0
Ni3Zn2Ge,0.0,-0.0159667,,2,3.0
CaCu2Zn3,0.0,-0.0136908999999999,,2,3.0
SBr2La2,0.0,-0.0291772,,2,3.0
B2N3Co2Sm3,0.0,-0.0223101,,2,3.0
Ga2La3,0.0,-0.0329813,,2,3.0
OCuSeBi,0.3236,-0.0306355,,2,3.0
Li3O6Ti2V,0.0,-0.0106096,,2,3.0
F4AgCs,1.7266,-0.0157721,,2,3.0
MgSe2RbAu,1.9642,-0.0281093,,2,3.0
Fe5Ta,0.0,-0.0262696,,2,3.0
Ga2HoOs,0.0,-0.0389585,,2,3.0
HHf3Bi,0.0,-0.0542211,,2,3.0
MgSnLa2,0.0,-0.032307,,2,3.0
RbCs3,0.0,-0.0335438,,2,3.0
O4STe,2.911,-0.0130937,,2,3.0
Zn2TaIr,0.0,-0.0415803,,2,3.0
ReIrPt2,0.0,-0.0708028999999999,,2,3.0
NaCl2Sr2,0.0,-0.0145098,,2,3.0
Ga6PrPt,0.0,-0.0271188,,2,3.0
P2Cr2Tb,0.0,-0.0217577,,2,3.0
Zr3Tc,0.0,-0.0320518,,2,3.0
Na3CsTl,0.0,-0.0246578,,2,3.0
MnY6Pb2,0.0,-0.0379468,,2,3.0
Cl6Rb2RuAg,0.0,-0.0168323,,2,3.0
O8Mo2InTl,3.8615,-0.0207169,,2,3.0
Na2RbIn2,0.0,-0.0193083,,2,3.0
O4Cl2Ca3Cu2,0.0,-0.0113247,,2,3.0
CuGa3Ge2Nd3,0.0,-0.0266298999999999,,2,3.0
O4NiSe,0.1713,-0.0111485,,2,3.0
Li2F8CaZr,6.3138,-0.0099357,,2,3.0
HCl2Ag,2.4385,-0.0131776,,2,3.0
AgSbCs2,1.116,-0.0365379999999999,,2,3.0
O2MnSe2Ce2,0.0,-0.0254472,,2,3.0
HNbRu3,0.0,-0.0283812,,2,3.0
H6Ca2Ni,0.0,-0.0067583,,2,3.0
Ga2PdCe,0.0,-0.0283227,,2,3.0
YPt8,0.0,-0.0659265,,2,3.0
AlCr2Os,0.0,-0.0293622,,2,3.0
AlBaAu3,0.0,-0.0516651,,2,3.0
MgAlAu,0.0,-0.0279939999999999,,2,3.0
Al4Ta,0.0,-0.0196904,,2,3.0
Ru5Ta4,0.0,-0.0492468999999999,,2,3.0
LiS4Ti2,0.0,-0.012005,,2,3.0
LiAlPt2,0.0,-0.0387825,,2,3.0
TiSrSn3,0.0,-0.0297140999999999,,2,3.0
Cl6K3Tl,2.5084,-0.0160808,,2,3.0
LiRh2,0.0,-0.0234718,,2,3.0
OSc2As2Rb2,0.0,-0.0183243,,2,3.0
OF11Co6,0.0,-0.0103566,,2,3.0
CaRhTe2,0.0,-0.0303977,,2,3.0
Co2GaTm,0.0,-0.0260826,,2,3.0
Co5Tc,0.0,-0.020178,,2,3.0
LiF4Ni,0.2951,-0.00786,,2,3.0
F6Rb3Bi,4.8876,-0.0189412,,2,3.0
Si2PdPa,0.0,-0.0387464999999999,,2,3.0
Cl4K2Zn,3.319,-0.0106516,,2,3.0
HCaPd2,0.0,-0.0202374,,2,3.0
CrCu4Se4,0.0,-0.0179954,,2,3.0
Ge2Au2Pb,0.0,-0.0504593,,2,3.0
H2Li2Pt,0.0,-0.0169654999999999,,2,3.0
PmTm3,0.0,-0.0498604,,2,3.0
Li2Ca2Zn,0.0,-0.0075616,,2,3.0
MoCdPt2,0.0,-0.0518239,,2,3.0
P3U,0.0,-0.0342016,,2,3.0
Co2Er2Hg,0.0,-0.0409792,,2,3.0
Li2CoSn2,0.0,-0.0189864,,2,3.0
S4Ba2U,0.0,-0.0335627,,2,3.0
F6NaK2Sb,3.9365,-0.0106477,,2,3.0
CoNi2Lu2,0.0,-0.0324939,,2,3.0
Li2GaPd,0.0,-0.0140761,,2,3.0
F6CdEu,0.0,-0.0158104999999999,,2,3.0
Te3Tm2,0.2546,-0.0445855999999999,,2,3.0
O6MnCdNd2,1.8424,-0.020101,,2,3.0
La2Pt2Au,0.0,-0.0603716,,2,3.0
CaNi2Ge,0.0,-0.0157649,,2,3.0
B2CTb,0.0,-0.0185474,,2,3.0
NiZnNd2,0.0,-0.0294785,,2,3.0
Li3O8CoCu4,0.0,-0.0097318,,2,3.0
MgNi4In,0.0,-0.0173055999999999,,2,3.0
H3ErPt,0.0,-0.0268975,,2,3.0
ZrSnAu2,0.0,-0.051758,,2,3.0
SiY2Ir2,0.0,-0.0427262,,2,3.0
O6FeBa2Th,0.0,-0.0259265,,2,3.0
NRhHo3,0.0,-0.0392051,,2,3.0
N2TmU,0.0,-0.0451462999999999,,2,3.0
OCuCs,1.0629,-0.0208355,,2,3.0
BeCo2W,0.0,-0.0272395,,2,3.0
CoLa6Bi2,0.0,-0.0486744,,2,3.0
H6FeCs2Tl,0.0,-0.0187023,,2,3.0
N2BiU2,0.0,-0.0620068,,2,3.0
PrTmBi,0.0,-0.0586639,,2,3.0
N4Mg4Zr,1.3057,-0.0109077,,2,3.0
Ru2In3Sm3,0.0,-0.0383202,,2,3.0
PdTm2Au,0.0,-0.0524778,,2,3.0
Cu2Y3In3,0.0,-0.0273033,,2,3.0
Li2O2FCu,0.0911,-0.0079298,,2,3.0
CoNi3,0.0,-0.0164548,,2,3.0
S6CrZr3,0.0,-0.0184536,,2,3.0
O6TeHo2,2.7053,-0.0219426,,2,3.0
RhTaOs2,0.0,-0.0613791,,2,3.0
AgPt5,0.0,-0.0636854,,2,3.0
Mg2S8Cr3In,0.3829,-0.0137431,,2,3.0
O4VTm,2.8722,-0.0190416999999999,,2,3.0
Li3N4NbBa2,2.395,-0.0166186,,2,3.0
O2AgBi,1.3849,-0.0313321,,2,3.0
S4SnHgTl2,0.6944,-0.0362713,,2,3.0
Cl2TiSe2,0.6679,-0.0156377,,2,3.0
Ga3Ge2Tm3Au,0.0,-0.0354269,,2,3.0
Zn2TbPt,0.0,-0.0368471,,2,3.0
CaHf2Pt2,0.0,-0.0561980999999999,,2,3.0
Si5Co3Tm2,0.0,-0.0212909,,2,3.0
Ga5DyOs,0.0,-0.0292806,,2,3.0
Al2MnDy,0.0,-0.0208609,,2,3.0
S4CaPr2,1.8348,-0.021638,,2,3.0
Cl3GaCe3,0.0,-0.0264998,,2,3.0
Zn3PdBa,0.0,-0.0229385,,2,3.0
ZnZrRu2,0.0,-0.0288321,,2,3.0
NaCu2As2Th,0.0,-0.0291704,,2,3.0
LiO2Mo,0.0,-0.0144324,,2,3.0
Al5Mn2Th,0.0,-0.0216861,,2,3.0
ClFeY,0.0,-0.0191644,,2,3.0
Cu4AgTm,0.0,-0.0242687,,2,3.0
Se8Ir3,0.0,-0.0343428,,2,3.0
P2ScCu4,0.0,-0.0141777,,2,3.0
Ti6PdTe2,0.0,-0.0231302,,2,3.0
MnGa2Ho6,0.0,-0.038634,,2,3.0
Al5NdOs,0.0,-0.0225474,,2,3.0
F6NdIr,1.9861,-0.0198146999999999,,2,3.0
Y2SnHg2,0.0,-0.0463115,,2,3.0
O2CuBa,0.0,-0.0185798,,2,3.0
BeGeSr2Te,0.0,-0.0217633,,2,3.0
LiO2F6Mn3,0.4628,-0.0102364,,2,3.0
Li2O5SiFe,0.0,-0.0093886,,2,3.0
CaAg2Gd,0.0,-0.032043,,2,3.0
K3NbTe4,0.8914,-0.0267819,,2,3.0
Ge2NdPt,0.0,-0.0390627,,2,3.0
Al3Si2PdPu3,0.0,-0.0455927,,2,3.0
CaCoIn5,0.0,-0.0279205,,2,3.0
CSi2Mn2Ho2,0.0,-0.0241923,,2,3.0
Ni2Ga5Tm,0.0,-0.0212572,,2,3.0
YSbTb,0.0,-0.038212,,2,3.0
ScCo2Zr2,0.0,-0.0222159,,2,3.0
H2Pd2Hg,0.0,-0.0282153,,2,3.0
Ni5Ga2Te4,0.0,-0.024131,,2,3.0
PNiNb4,0.0,-0.0270036,,2,3.0
Li2O8Ti3Fe,0.0,-0.0114615,,2,3.0
O6FePdBa2,0.0,-0.0186142,,2,3.0
ScRu2Ce,0.0,-0.0326336,,2,3.0
GaIn2Pt2,0.0,-0.0452664,,2,3.0
Cu4SrSb2,0.0,-0.0228038,,2,3.0
N2TiPr,0.0,-0.0211528,,2,3.0
Cl3K2BrPd,1.3621,-0.0147565,,2,3.0
Ni2Se2Hg,0.0,-0.0282783,,2,3.0
GeI4,1.1381,-0.0334214,,2,3.0
MgRe,0.0,-0.0380141,,2,3.0
CaTbHg2,0.0,-0.0489261,,2,3.0
Na2ClI,4.0174,-0.014946,,2,3.0
HDy,0.0,-0.026195,,2,3.0
H4NSe4WPt,0.0,-0.0224397,,2,3.0
O6PdSm2Pt,0.8843,-0.0251646,,2,3.0
AlCu2Tm,0.0,-0.0229719,,2,3.0
Al2Si2Ca,0.0,-0.0093698999999999,,2,3.0
CuEr3Pt2,0.0,-0.0522088,,2,3.0
O7Ba3Er2,0.0,-0.0249151,,2,3.0
ClNiLu,0.0,-0.0278729,,2,3.0
O4VTa,0.0,-0.0210838,,2,3.0
LiCa2Zn2,0.0,-0.0099528,,2,3.0
RbSb2Bi2,0.0,-0.0506678,,2,3.0
Ge2SrCd2,0.0,-0.0246241,,2,3.0
YTaIr,0.0,-0.0559251999999999,,2,3.0
Ni4Ga4Er3,0.0,-0.0261816,,2,3.0
N4SiZn2Ge,2.6784,-0.0123156,,2,3.0
NaGa4Ce,0.0,-0.0194917,,2,3.0
RhAg2Ho,0.0,-0.0368355999999999,,2,3.0
F6K3Sr,0.0,-0.009729,,2,3.0
CCaBr,2.6099,-0.0142478,,2,3.0
CrPt5,0.0,-0.0618395,,2,3.0
Be2MnNi,0.0,-0.0111905,,2,3.0
KIn2Hg2,0.0,-0.0425195,,2,3.0
N2SmGd,0.0,-0.0322403,,2,3.0
Cu2GeTb,0.0,-0.0245711,,2,3.0
ZrSnNd,0.0,-0.0374294,,2,3.0
Mn2CoMo,0.0,-0.0222654,,2,3.0
CaPt5,0.0,-0.0607158,,2,3.0
O3NaCoRb,0.0757,-0.0116262,,2,3.0
O6MgMnTm2,1.5541,-0.0196876,,2,3.0
In3Hf2,0.0,-0.0453001,,2,3.0
Fe2GaHo,0.0,-0.0257566999999999,,2,3.0
N2ZnW,0.2811,-0.0258003,,2,3.0
SiClI,1.8853,-0.0185353,,2,3.0
NaRhTl,0.0,-0.0367973,,2,3.0
Ge3ErIr,0.0,-0.0364081,,2,3.0
Mn6As4Er,0.0,-0.0224218,,2,3.0
Li2In2Tl,0.0,-0.0290095,,2,3.0
BNCuTb,0.0,-0.0207251,,2,3.0
CGe2Tb2Os2,0.0,-0.041504,,2,3.0
Al3NiGe2Lu3,0.0,-0.0278773,,2,3.0
AuTl5,0.0,-0.071821,,2,3.0
Ca2InPb2,0.0,-0.0414299,,2,3.0
KCaAs2,0.0,-0.0154355,,2,3.0
H4Rb2Sr,2.8366,-0.0114650999999999,,2,3.0
GeSm2,0.0,-0.0366786,,2,3.0
SrInTl,0.0,-0.0431941,,2,3.0
S2K2Cu,0.0,-0.0111205,,2,3.0
TeHg2Pb,0.0,-0.0624532999999999,,2,3.0
Li5P6Cu4,0.0,-0.0095143,,2,3.0
LaAu2Pb,0.0,-0.0650902,,2,3.0
CaY2Ir2,0.0,-0.042234,,2,3.0
CdPt2Th,0.0,-0.0676581999999999,,2,3.0
SbI2Tb2,0.0,-0.0422424,,2,3.0
Ce3Os2Au,0.0,-0.0581545,,2,3.0
Al11Ti5,0.0,-0.0107695,,2,3.0
PCoSr,0.0,-0.0173767999999999,,2,3.0
Na8Mg,0.0,-0.004256,,2,3.0
Li2O8V3Sb,0.0,-0.0126019,,2,3.0
CINd,0.0,-0.0311315,,2,3.0
AlNiTa2,0.0,-0.0395943,,2,3.0
CFe2Ge2Nd2,0.0,-0.0250858,,2,3.0
OClNp,0.0,-0.0429309,,2,3.0
O3GeHg,0.0678,-0.0223316,,2,3.0
LiNi2Ru,0.0,-0.0173445,,2,3.0
Cr3Rh5,0.0,-0.0282207,,2,3.0
F6PK,7.2171,-0.0079589999999999,,2,3.0
Te2AuHg,0.0,-0.0530849,,2,3.0
O6Mn2Zr,0.1025,-0.0142263,,2,3.0
Se2Mo,0.8874,-0.0257116,,2,3.0
SiRu3,0.0,-0.0289285,,2,3.0
Li2SrRh,0.0,-0.0153165,,2,3.0
TcIr7,0.0,-0.066684,,2,3.0
MgLuHg2,0.0,-0.0497808,,2,3.0
O8Se2Cs3,0.0,-0.0169585,,2,3.0
CuIn2Tm,0.0,-0.0338665,,2,3.0
AsBr2Eu2,0.0,-0.0351199,,2,3.0
CScNi3,0.0,-0.0148164,,2,3.0
Li5O8Mn2Ni,0.2024,-0.0092873,,2,3.0
TiZnAu,0.0,-0.0333858999999999,,2,3.0
Sc6RuBi2,0.0,-0.0314573,,2,3.0
Ni2Ga5Nd,0.0,-0.0202934,,2,3.0
InAuPu,0.0,-0.0712518,,2,3.0
MgSb2Ba2,0.6,-0.032769,,2,3.0
Cl3Sn,1.0684,-0.0158823,,2,3.0
NRuTa3,0.0,-0.0494813,,2,3.0
HoPb2,0.0,-0.0673862,,2,3.0
Rh2SnPa2,0.0,-0.0614112999999999,,2,3.0
Pt4AuU,0.0,-0.0761664,,2,3.0
Si4P4Mn,0.0,-0.0113487,,2,3.0
CBr2Hf2,0.0,-0.0362040999999999,,2,3.0
PdTbTl,0.0,-0.0514133,,2,3.0
PNiTm2,0.0,-0.0336155,,2,3.0
BCuPt,0.0,-0.0310703999999999,,2,3.0
YZrIr,0.0,-0.0440649,,2,3.0
Cd5Au3,0.0,-0.0451272,,2,3.0
NaSe6Zr3,0.0,-0.0231967,,2,3.0
O4NbSm,3.391,-0.0204426,,2,3.0
CoGd2,0.0,-0.0450627,,2,3.0
NTi3Pb,0.0,-0.0276356,,2,3.0
GeBr4Eu,0.0351,-0.0264703,,2,3.0
FeInTh,0.0,-0.0493207,,2,3.0
GaTbAu2,0.0,-0.0512237,,2,3.0
Al3Si2ZnLu3,0.0,-0.0253649,,2,3.0
H4Si,4.7615,-0.0047556,,2,3.0
MgCu4Sm,0.0,-0.0186122,,2,3.0
GaPd2Ba,0.0,-0.0310826,,2,3.0
Mg2BaAc,0.0,-0.0350187,,2,3.0
LiCa2Sr,0.0,-0.0109879,,2,3.0
Ga2Br8Au,0.2646,-0.0240634,,2,3.0
B2V3,0.0,-0.0142379999999999,,2,3.0
N2TiLu,0.0,-0.0245194,,2,3.0
BrCdLa2,0.0,-0.0349569,,2,3.0
Ga3Dy2,0.0,-0.029645,,2,3.0
O5Ti2Se2Eu2,0.0,-0.021977,,2,3.0
NaIn2Pm,0.0,-0.0291937,,2,3.0
RhTe2Ho6,0.0,-0.0456077,,2,3.0
Li2NaCd,0.0,-0.0099978,,2,3.0
Al6Mn6Tm,0.0,-0.0162276999999999,,2,3.0
LiTcNd2,0.0,-0.0310868,,2,3.0
O8NaNdW2,3.8965,-0.0224557,,2,3.0
Ag3Au5,0.0,-0.0550639,,2,3.0
NFSn2Nd6,0.0,-0.0359050999999999,,2,3.0
MnHo6Pb2,0.0,-0.0519825,,2,3.0
Li2IHg2,0.0,-0.0360291,,2,3.0
MgPb8,0.0,-0.0679222,,2,3.0
SiZnSb2,0.5038,-0.0244797,,2,3.0
O2InPb,0.0,-0.0317556,,2,3.0
Rh2CdBa2,0.0,-0.0356547,,2,3.0
B2MnIr2,0.0,-0.0354864,,2,3.0
InTb,0.0,-0.0407012,,2,3.0
Al3FeGe2Ce3,0.0,-0.0242895,,2,3.0
Si3Ni2Zr,0.0,-0.0162565,,2,3.0
B4AlTa,0.0,-0.0177118,,2,3.0
GaRuTb,0.0,-0.0333157,,2,3.0
NCrNb,0.0,-0.0210752999999999,,2,3.0
O2Y2Hg,0.0,-0.0300947,,2,3.0
Sb3Tm5,0.0,-0.047312,,2,3.0
Ti2Pd2Bi,0.0,-0.0356603,,2,3.0
Sn2Ho2Tl,0.0,-0.0490052,,2,3.0
Ga2InBi2,0.0,-0.0445111,,2,3.0
O6CuRh3,0.0,-0.0162712,,2,3.0
NGeTm3,0.0,-0.0380072,,2,3.0
Co2CuPr2,0.0,-0.0272188,,2,3.0
TiCuGaIr,0.0,-0.0303075,,2,3.0
Te2Er7Ir2,0.0,-0.0528053,,2,3.0
PKIr,0.0,-0.0305724,,2,3.0
MnIn2Th6,0.0,-0.0735494999999999,,2,3.0
C4CoLu3,0.0,-0.0283986,,2,3.0
N3Zr2Ag,1.6116,-0.0214529,,2,3.0
Sc2YTl2,0.0,-0.0406826999999999,,2,3.0
Ni2SrIr,0.0,-0.03163,,2,3.0
C2TiGd,0.0,-0.0243079,,2,3.0
Si2PdLa,0.0,-0.0249162,,2,3.0
O4Ba2Au,0.0,-0.0265858,,2,3.0
Al3Ni2Au,0.0,-0.0214568,,2,3.0
CuY5,0.0,-0.0257839999999999,,2,3.0
Ag2Sn2Nd,0.0,-0.0360718,,2,3.0
CoGeNb,1.0735,-0.0237475999999999,,2,3.0
NiSrTe3Er,0.0,-0.0346355,,2,3.0
ScFe2Ta,0.0,-0.0294227,,2,3.0
ZnAsY2,0.0,-0.0233464,,2,3.0
Na2CaSr,0.0,-0.0100324,,2,3.0
H3KCd,0.0,-0.0099223,,2,3.0
Sb2Ho6W,0.0,-0.0492138,,2,3.0
B2N3Co2Nd3,0.0,-0.0219764,,2,3.0
Al5GeBa5,0.0,-0.0235767,,2,3.0
MgSi2Co,0.0,-0.0108353,,2,3.0