formula,bg,formation_energy,mp-id,fidelity,bg_category
O3NaRbZr,3.7577,-0.0151333,,2,3.0
BeAlNb,0.0952,-0.0154667,,2,3.0
C2CoTb,0.0,-0.021434,,2,3.0
SrBi3,0.0,-0.064989,,2,3.0
MnGeSm,0.0,-0.0278853,,2,3.0
Na2P2Np,0.0,-0.0277518,,2,3.0
B2TaPt,0.0,-0.0384649,,2,3.0
Pd2CdSn,0.0,-0.0333978,,2,3.0
AlGaZr,0.0,-0.0188153,,2,3.0
MgTiCu4,0.0,-0.0137528,,2,3.0
MgRh2Pu,0.0,-0.0461178999999999,,2,3.0
AlZn7,0.0,-0.0127703,,2,3.0
GeRhPu,0.0,-0.0548772,,2,3.0
B2CLu,0.0,-0.0207452,,2,3.0
LiSe2Bi,0.6655,-0.0310045,,2,3.0
H8CoZn2Ba,0.0,-0.0094254,,2,3.0
ClFeHo,0.0,-0.0261961,,2,3.0
Sm3Tb,0.0,-0.0450001,,2,3.0
Al2Ho3Hg,0.0,-0.0389376,,2,3.0
BNLaOs,0.0,-0.0339513,,2,3.0
Al2S4Ba,3.7782,-0.0150764,,2,3.0
LiF6CaCo,1.2586,-0.0087332,,2,3.0
Ga2Mo2Hf,0.0,-0.0333589,,2,3.0
Ge2Ir2Np,0.0,-0.0579157999999999,,2,3.0
Be2MgSb2,0.0,-0.0176263,,2,3.0
AgLu,0.0,-0.0437665999999999,,2,3.0
Ni2Ga3Tb,0.0,-0.0220047999999999,,2,3.0
F6Rb2SbTl,3.6272,-0.019759,,2,3.0
H5Sr2Ru,0.0,-0.0126682,,2,3.0
SiClGd,0.0,-0.0270529,,2,3.0
OKBr4Ta,2.0892,-0.024402,,2,3.0
NiRu2Ho2,0.0,-0.0371603,,2,3.0
O12Na3Ti2Nb2Dy,2.6018,-0.0146614,,2,3.0
AlZrRh2,0.0,-0.0276512,,2,3.0
Cu5Cd4,0.0,-0.0218748,,2,3.0
HMgZr3,0.0,-0.0202787,,2,3.0
F6ZnIn,0.0,-0.0107183,,2,3.0
Si2Sc2Cd,0.0,-0.016439,,2,3.0
AlRh2Dy,0.0,-0.0318291,,2,3.0
ZnEr6Bi2,0.0,-0.0530491,,2,3.0
Li2AgLa,0.0,-0.0199186,,2,3.0
LiRhAc2,0.0,-0.054576,,2,3.0
SeEr2,0.0,-0.0414553999999999,,2,3.0
F5Rb2Pt,0.0,-0.0184109,,2,3.0
H5RuBa2,0.0,-0.0169399,,2,3.0
Al3Si2FeGd3,0.0,-0.0270218999999999,,2,3.0
Li2O6Cr2Co,0.0,-0.0109334,,2,3.0
B2N3Rh2Th3,0.0,-0.0411424,,2,3.0
HScZr3,0.0,-0.0220885,,2,3.0
Zr6PdSb2,0.0,-0.033108,,2,3.0
ScTiAs,0.0,-0.0178996999999999,,2,3.0
Cu2As2Sr,0.0,-0.0192183,,2,3.0
Al8Cu4Nd,0.0,-0.0131899,,2,3.0
S8Mo6In,0.0,-0.0220352,,2,3.0
O6Ca2SbNp,0.0,-0.0227534,,2,3.0
Ca5Y,0.0,-0.0126395999999999,,2,3.0
S3Mo2,0.0,-0.0204943,,2,3.0
OAsLaPt,0.0,-0.0370405,,2,3.0
Al3Ge2Lu2,0.0,-0.0251273,,2,3.0
Co5Np,0.0,-0.0321273,,2,3.0
Ni5AsZr,0.0,-0.0191689,,2,3.0
Al3ZnGe2Ho3,0.0,-0.0253412,,2,3.0
CuAs2Pu,0.0,-0.041998,,2,3.0
FSTm,1.0883,-0.0249665,,2,3.0
CSiMn2Tm,0.0,-0.0222931,,2,3.0
AlNd2Au2,0.0,-0.0475711,,2,3.0
CoRu2W,0.0,-0.0391203,,2,3.0
PCs3,0.0,-0.0312272,,2,3.0
P2CrCuSe6,0.3682,-0.0178225,,2,3.0
NFLa6Tl2,0.0,-0.0428896999999999,,2,3.0
Li2Si3Pr2,0.0,-0.0179996,,2,3.0
Si3NbPu,0.0,-0.0350237,,2,3.0
FSeAgBa,1.2353,-0.0258489,,2,3.0
Al2W,0.0,-0.0285196,,2,3.0
Al3Sc3CuSn2,0.0,-0.0175772,,2,3.0
HOIEu,0.6358,-0.0269553,,2,3.0
Mg3Th,0.0,-0.0276221,,2,3.0
SK2Hg,1.9833,-0.024501,,2,3.0
NaP2Cu2Gd,0.0,-0.0198403999999999,,2,3.0
P2KCo2,0.0,-0.0133192,,2,3.0
PmAu2Bi,0.0,-0.0659503,,2,3.0
CrFeAs2,0.0,-0.0195049,,2,3.0
O2NiAg2,0.0,-0.0189324,,2,3.0
Li2SiDy,0.0,-0.0160339,,2,3.0
Li2Mg2Ge2Y,0.0,-0.0120202,,2,3.0
CdNdHg2,0.0,-0.0531375,,2,3.0
C2O6CdEr,0.0,-0.0157615,,2,3.0
Al2FePt,0.0,-0.0268673,,2,3.0
Br4PdI2Cs2,0.3361,-0.029937,,2,3.0
MgSc2Pb,0.0,-0.0277515,,2,3.0
Cl2ScY,0.0,-0.016166,,2,3.0
H2NiSnLa,0.0,-0.0210932,,2,3.0
AlTc5,0.0,-0.0306918,,2,3.0
SrRhLa3,0.0,-0.037389,,2,3.0
Rb2Sb2Bi,0.0,-0.0392811,,2,3.0
F3CsTl,2.1786,-0.0265316,,2,3.0
OAs2Rb2Ho2,0.0,-0.0282844,,2,3.0
Mg2EuPt3,0.0,-0.0466498,,2,3.0
N6O12CoRb2Pb,0.1676,-0.0127878,,2,3.0
Pd3Sb2,0.0,-0.0350424,,2,3.0
Li8Ba,0.0,-0.006452,,2,3.0
CoIn4Ho,0.0,-0.0335338,,2,3.0
MgSrCd,0.0,-0.0195248999999999,,2,3.0
SiMn3Pa2,0.0,-0.0444041,,2,3.0
SrCd2Ac,0.0,-0.0438095,,2,3.0
AlGeRu2,0.0,-0.024751,,2,3.0
Al2CeEr,0.0,-0.0279617,,2,3.0
O4NdBi2,0.0,-0.0341197,,2,3.0
Cl2NbI2,0.8355,-0.0254865,,2,3.0
Cd2HoEr,0.0,-0.0404682,,2,3.0
IEr,0.0,-0.0444729,,2,3.0
Al3FeGe2Dy3,0.0,-0.0254827,,2,3.0
OAsNdIr,0.0,-0.0373098,,2,3.0
NiRh2Sb,0.0,-0.0305131,,2,3.0
AuPbAc2,0.0,-0.0822995,,2,3.0
O4Cu2Se2SmBi2,0.0,-0.0284437,,2,3.0
Li3O8Cr4,0.0,-0.0111510999999999,,2,3.0
S4Cr4FeCuSe4,0.0,-0.0169282,,2,3.0
C2O4Mg,3.4542,-0.0089528,,2,3.0
TiNi2Pt,0.0,-0.0303774,,2,3.0
Al3PdLu2,0.0,-0.0285573,,2,3.0
BNi3In,0.0,-0.0180386999999999,,2,3.0
Sc3CuOs2,0.0,-0.0341289,,2,3.0
Ge2Pd2Nd,0.0,-0.0304134,,2,3.0
ScPdBi,0.2015,-0.0428698,,2,3.0
AsSe2Zr2,0.0,-0.025758,,2,3.0
MgSc2Ir2,0.0,-0.0360583,,2,3.0
Gd2IrPt,0.0,-0.0657737,,2,3.0
CdSb2,0.0,-0.0349915,,2,3.0
Si2PdIn3Sm3,0.0,-0.0325593999999999,,2,3.0
ScPd2Hg,0.0,-0.0377023,,2,3.0
Mn4Zn5,0.0,-0.0156914,,2,3.0
FNa2I,3.095,-0.0142387,,2,3.0
CoAsPu,0.0,-0.0497153,,2,3.0
F4NaPd,0.0249,-0.0105145999999999,,2,3.0
Rh3SmPt2,0.0,-0.0482779,,2,3.0
Li2ZnGe3,0.0,-0.0128164,,2,3.0
F11NaVZr2,0.8744,-0.0118325,,2,3.0
Al7Ni2Y3,0.0,-0.0148155,,2,3.0
O7Rb2Nb2Nd,0.0,-0.0190412,,2,3.0
LiNi2As2Ho,0.0,-0.021555,,2,3.0
Si2FeZr,0.0,-0.01782,,2,3.0
LiAlZn2,0.0,-0.0094741,,2,3.0
Au3Hg5,0.0,-0.0684549,,2,3.0
NiGa3Sn2Pr3,0.0,-0.030366,,2,3.0
F6AgTa,3.2272,-0.0177323,,2,3.0
O6Ba2DyEr,0.0,-0.0244739,,2,3.0
Li2O8Mn3Co,0.0,-0.0111988,,2,3.0
O3Na4Fe,0.481,-0.0082186,,2,3.0
GaSe2In,0.0,-0.0230399999999999,,2,3.0
In4BaPt,0.0,-0.0411597999999999,,2,3.0
CdI2Hg,1.9112,-0.0433783,,2,3.0
GeYIr,0.0,-0.0404793,,2,3.0
LiMn2Ge2,0.0,-0.0156478,,2,3.0
H2RhAg,0.0,-0.0179112,,2,3.0
ErPb2Ac,0.0,-0.0737019,,2,3.0
SnPmAu2,0.0,-0.0553621,,2,3.0
BRhTa,0.0,-0.0365756999999999,,2,3.0
AlS7As2Rb,1.5835,-0.0129497,,2,3.0
F6KRb2Np,0.0,-0.0209262,,2,3.0
MgAl2Se4,2.6221,-0.0155419,,2,3.0
Ba2PtAu,0.0,-0.055473,,2,3.0
Al3CrGe2Pa3,0.0,-0.0424048,,2,3.0
F6NiPt,0.8085,-0.0152691,,2,3.0
O6FeBa2Dy,0.2457,-0.0210039,,2,3.0
O7K2CeTa2,0.0,-0.0227943,,2,3.0
AuTlTh,0.0,-0.079829,,2,3.0
GaIn2Pb,0.0,-0.0395906,,2,3.0
Al3Fe2Pt,0.0,-0.0222624999999999,,2,3.0
GaPm2Ir,0.0,-0.0445501,,2,3.0
Ga4Nb2Nd,0.0,-0.0255981999999999,,2,3.0
SiCaMn,0.0,-0.0130719999999999,,2,3.0
Li2O8F2P2VMn,0.0,-0.0100535,,2,3.0
Al3RuSn2Ho3,0.0,-0.0315403,,2,3.0
Sc2MnNi2,0.0,-0.0162715,,2,3.0
H2SnTh3,0.0,-0.0554778,,2,3.0
MnSb2Th6,0.0,-0.0746758,,2,3.0
Al4CaAu,0.0,-0.0188194,,2,3.0
O2CuGd,2.1264,-0.0241171,,2,3.0
KNi2As2Ho,0.0,-0.0224119999999999,,2,3.0
Al4CuDy,0.0,-0.0161002,,2,3.0
HI2Er,2.7277,-0.0330871,,2,3.0
Li5O4Mn,0.8127,-0.0075856,,2,3.0
CrNb2Re,0.0,-0.0391306,,2,3.0
NiPt2Th,0.0,-0.0639985,,2,3.0
Mg2RhAg,0.0,-0.019222,,2,3.0
SBr6Pb4,2.0859,-0.0398989,,2,3.0
Li2SnGd,0.0,-0.0253426,,2,3.0
ZnSr5Cd4,0.0,-0.025013,,2,3.0
Al5Co2La,0.0,-0.0150689,,2,3.0
MgTi2Co2,0.0,-0.0145348,,2,3.0
H6O7SCr,1.1175,-0.0075032,,2,3.0
Ti2Ga4U,0.0,-0.0290415999999999,,2,3.0
Al3Er4,0.0,-0.0324082999999999,,2,3.0
AlGd2Os2,0.0,-0.0542681,,2,3.0
As2RhDy,0.0,-0.0315601,,2,3.0
Se2Sb,0.5013,-0.0259964,,2,3.0
BeAu,0.0,-0.0370975,,2,3.0
CrLu6Bi2,0.0,-0.0568275,,2,3.0
MgIr2Pu2,0.0,-0.0738931,,2,3.0
ErRe2,0.0,-0.0645491,,2,3.0
CuSn2Cs,0.0,-0.0314119,,2,3.0
Al9KRu2,0.0,-0.0126921,,2,3.0
F3Pd,0.0,-0.0122883,,2,3.0
O8CuDyW2,1.1676,-0.0234318,,2,3.0
Pd4NdHg,0.0,-0.041154,,2,3.0
CoAs2Cs4,0.0,-0.030185,,2,3.0
MgPd2La2,0.0,-0.0321503,,2,3.0
O6InBa2Au,0.0001,-0.0236541,,2,3.0
BN3Zr4,0.0,-0.0214597,,2,3.0
B4O11Sc2Sr2,4.4889,-0.0122216,,2,3.0
Al2In3Hf3,0.0,-0.0382276,,2,3.0
NiBiTh,0.0,-0.0640987,,2,3.0
PCuZr2,0.0,-0.0227218,,2,3.0
AlGa3Ge2Er3,0.0,-0.027963,,2,3.0
CaNiCu,0.0,-0.0138038,,2,3.0
Al4LaTa2,0.0,-0.0299356,,2,3.0
Ba6Sn7S20,1.3643,-1.347526221060605,mp-1204773,2,3.0
Cr3Fe4,0.0,-0.0181705,,2,3.0
P2S7GaRb,2.011,-0.0120141,,2,3.0
NaPK2,0.4255,-0.0082178,,2,3.0
F6MnDy,0.0,-0.0144593,,2,3.0
MgRuTm2,0.0,-0.0361805,,2,3.0
B4CoLu,0.0,-0.0177290999999999,,2,3.0
O3CoZr,0.0,-0.0159481,,2,3.0
F6SCd4,0.8169,-0.0159539,,2,3.0
PdHf6Pb2,0.0,-0.0625913,,2,3.0
Cu4Te3Tl,0.0,-0.0307041,,2,3.0
H6AlCs2Tl,0.858,-0.0178477,,2,3.0
MnPd3,0.0,-0.0295662999999999,,2,3.0
F6CaAu,0.0,-0.0146807,,2,3.0
O3ZnBi,0.712,-0.0233096,,2,3.0
Si2ScFe3,0.0,-0.0152993,,2,3.0
SiNiPu,0.0,-0.0458378,,2,3.0
N2CeHo,0.0,-0.0298984,,2,3.0
Pd8Ta,0.0,-0.0368652,,2,3.0
Zn2In2Sb,0.0,-0.0260874,,2,3.0
Cu4HoPb,0.0,-0.0310838,,2,3.0
Pd2Nd2Hg,0.0,-0.0450449,,2,3.0
SiNbTe,0.0,-0.0272981,,2,3.0
Sn2BiPu,0.0,-0.0652555,,2,3.0
NbHf5,0.0,-0.0576741,,2,3.0
Si3CoEu,0.0,-0.0207171,,2,3.0
InAu2Pb2,0.0,-0.0647122,,2,3.0
Cr4RuRh,0.0,-0.0237071,,2,3.0
O2F2Mg,1.337,-0.0070975,,2,3.0
Cl6PdCs2Hg,0.8969,-0.0237803,,2,3.0
In3Sn2Tm3Pt,0.0,-0.0449463,,2,3.0
HBrSm,0.0,-0.023859,,2,3.0
H2SbI,0.0,-0.0202623,,2,3.0
LiZrTe2,0.0,-0.0279435,,2,3.0
MgCu2Cd2,0.0,-0.0192657,,2,3.0
Mg3Au2Pu,0.0,-0.0442954999999999,,2,3.0
AlNi2Dy,0.0,-0.0225987,,2,3.0
Sc2Cu2Y,0.0,-0.0175332,,2,3.0
Si4Lu3Ir4,0.0,-0.0457524,,2,3.0
SrTlPb2,0.0,-0.0620021,,2,3.0
KTe2Tl2,0.0,-0.046003,,2,3.0
OTm3Tl,0.0,-0.0483717,,2,3.0
LiMgPd,0.0,-0.0139182,,2,3.0
SiPd2Nd,0.0,-0.0307783,,2,3.0
Al3Mn2Pa3,0.0,-0.0451321,,2,3.0
H6GaRbCs2,1.6906,-0.0135508,,2,3.0
LiAl2Ni2,0.0,-0.0106225,,2,3.0
LiP2Co2Y,0.0,-0.0151797,,2,3.0
Si2Ru3Sm,0.0,-0.0288906,,2,3.0
Se4Ag2SbBi,0.0,-0.0325405999999999,,2,3.0
Cd8Hg,0.0,-0.0345912,,2,3.0
S5Zn2Tl2,0.0,-0.024815,,2,3.0
Al2Pr2Hg,0.0,-0.0345947,,2,3.0
Li2MgAg2,0.0,-0.0146605,,2,3.0
F6RbCs2Pu,0.0,-0.0259644,,2,3.0
SiSbTe,0.0,-0.0276402,,2,3.0
Al5CuTb,0.0,-0.0147041,,2,3.0
N3RuPu,0.0,-0.0349292999999999,,2,3.0
O6Eu2DyTa,0.0,-0.0293433,,2,3.0
H6LiMgAl,3.2013,-0.0042486,,2,3.0
O6Sr2InPt,0.0,-0.0204757,,2,3.0
AlCu5,0.0,-0.0141357,,2,3.0
LaLuPb2,0.0,-0.0631515,,2,3.0
S4CdLa2,1.7374,-0.0240845999999999,,2,3.0
Ca2Pt2Tl,0.0,-0.047334,,2,3.0
NSbBa3,0.5776,-0.034027,,2,3.0
OTeEu,0.0,-0.0345704,,2,3.0
Si2Rh3Ce,0.0,-0.0287604,,2,3.0
ErIr3,0.0,-0.0666351999999999,,2,3.0
N3Al2Ga,3.2808,-0.0112917,,2,3.0
In2LaPt,0.0,-0.0459645999999999,,2,3.0
AlIr7,0.0,-0.0634719,,2,3.0
Cu5In,0.0,-0.0181998999999999,,2,3.0
NbPt8,0.0,-0.0664732,,2,3.0
CuTc5,0.0,-0.0316997,,2,3.0
CaBr8Ba3,3.9495,-0.0260398999999999,,2,3.0
Cr2Ru,0.0,-0.0238352,,2,3.0
InHo2Pt2,0.0,-0.0556462999999999,,2,3.0
CdSnTe4Tl2,0.0502,-0.0453089999999999,,2,3.0
PdSb2Ce,0.0,-0.0388649,,2,3.0
ZnPdEr,0.0,-0.0330604,,2,3.0
Cu2As2Tl,0.0,-0.0285753999999999,,2,3.0
LiBIr,0.0,-0.0275723999999999,,2,3.0
Al3Ge,0.0,-0.0105106,,2,3.0
OS2Er2,2.4808,-0.0281845,,2,3.0
H6CoLa2,0.0,-0.0143661999999999,,2,3.0
CoNiRe2,0.0,-0.0439123,,2,3.0
KPd5,0.0,-0.0286475,,2,3.0
HBr2Lu,3.6247,-0.0260689,,2,3.0
Al9Fe2Pr,0.0,-0.0127538,,2,3.0
ZrRh2Tb,0.0,-0.0371456,,2,3.0
SeSnEr,0.0,-0.036745,,2,3.0
Cu2Zn3Dy,0.0,-0.0201549,,2,3.0
PdInSn,0.0,-0.0344649,,2,3.0
H6CrPr2,0.0,-0.0144987,,2,3.0
GaRhTa,0.0,-0.0395255,,2,3.0
CO3FKBa,3.8687,-0.0139693,,2,3.0
Al6NiCe,0.0,-0.0138432,,2,3.0
Ag2Cd3Ce,0.0,-0.033301,,2,3.0
InErHg2,0.0,-0.0554627,,2,3.0
O3YLu,3.3529,-0.0243035,,2,3.0
Sc3Fe2Ag,0.0,-0.0185067999999999,,2,3.0
ClZn2As,1.1775,-0.0143427,,2,3.0
ZnSeBr,1.4133,-0.0183874999999999,,2,3.0
MnRhCd2,0.0,-0.0284104,,2,3.0
Cl3KEu,0.4294,-0.0195738999999999,,2,3.0
O12Na3Ti2Nb2Tb,2.5816,-0.0146086,,2,3.0
GeAsZr,0.0,-0.0241475,,2,3.0
Zn3Ag2Th,0.0,-0.0334082,,2,3.0
MgZnTc2,0.0,-0.0222592,,2,3.0
Sr2AgTl,0.0,-0.0374987,,2,3.0
CaAsSb2,0.0,-0.0266208,,2,3.0
S2TlU,0.0,-0.0498068,,2,3.0
P2CuSn,0.0,-0.0179867999999999,,2,3.0
ClBrLa,0.0,-0.0256867,,2,3.0
PClZn2,1.8169,-0.011961,,2,3.0
Cl6ZnAgCs2,0.0,-0.018263,,2,3.0
Li2CuSb,0.4515,-0.0147718,,2,3.0
Mn2BrDy2,0.0,-0.0309477,,2,3.0
PTa2,0.0,-0.0485315999999999,,2,3.0
O8V2SrBa2,3.6715,-0.0174503999999999,,2,3.0
O6NiTeBa2,0.0,-0.0191146,,2,3.0
NiSeBr,0.0,-0.0189615,,2,3.0
O4CeTm,0.2158,-0.0236523,,2,3.0
O6AlRbI,0.0,-0.0127409,,2,3.0
ZnAs4La2,0.0,-0.0268439,,2,3.0
LiN2Mo,0.0,-0.014605,,2,3.0
MgZr2Au,0.0,-0.0343133,,2,3.0
Ni2Ga5Eu,0.0,-0.0215043,,2,3.0
O5Rb5Bi,0.917,-0.0206878,,2,3.0
NiIr5,0.0,-0.0618663,,2,3.0
O2ClCaSb,3.2446,-0.0157353,,2,3.0
NaP2Cu2Sm,0.0,-0.0174654,,2,3.0
Ca2Ga3Ir,0.0,-0.0239838,,2,3.0
Cu2As2CsEr,0.0,-0.0272377,,2,3.0
BHoPt2,0.0,-0.0504009,,2,3.0
Si2OsTh,0.0,-0.0477351,,2,3.0
O6YBa2Ir,0.0,-0.0241749,,2,3.0
N2MgGe,2.7572,-0.0114141,,2,3.0
MgAl2Te4,2.0421,-0.0248596,,2,3.0
Si2Mn3Nd,0.0,-0.0202176,,2,3.0
CAlPr3,0.0,-0.0298006,,2,3.0
LiNa2Au2,0.0,-0.0302237,,2,3.0
O4NiRb3,0.0,-0.0140949,,2,3.0
LiF6Pd,0.0,-0.0087413,,2,3.0
Co2Zn3Ho,0.0,-0.0208509999999999,,2,3.0
S3AsHo4,0.0,-0.0327354,,2,3.0
CPNb2,0.0,-0.0224851,,2,3.0
Al2BaHg2,0.0,-0.0387751999999999,,2,3.0
Al3Ge2Zr3Pd,0.0,-0.02149,,2,3.0
Be2NbRu2,0.0,-0.0227577,,2,3.0
LaLuHg2,0.0,-0.0593604,,2,3.0
Na2SiS4Pb,2.402,-0.0175757,,2,3.0
Sn2CeTm,0.0,-0.042741,,2,3.0
Mg2ZnIr,0.0,-0.0240464,,2,3.0
Se2IAu,0.0,-0.0365493999999999,,2,3.0
ClSe2,0.1818,-0.0161345,,2,3.0
Al2GaY2,0.0,-0.0180587,,2,3.0
NaSiP,0.0078,-0.0085915,,2,3.0
SnDyAu2,0.0,-0.0563459999999999,,2,3.0
YZrMo4,0.0,-0.0330091,,2,3.0
Sr3Au2,0.0,-0.041759,,2,3.0
NiCuSn,0.0,-0.0224627,,2,3.0
NiPr2Ir,0.0,-0.0440229,,2,3.0
Al3PdPu2,0.0,-0.0464991,,2,3.0
F6MgKRb2,0.0,-0.0104723,,2,3.0
Dy3Ir2Pb3,0.0,-0.0648632,,2,3.0
MgGa2Sr2,0.0,-0.0167672,,2,3.0
Cl6PdCs2,1.4115,-0.018756,,2,3.0
Al6LuPt,0.0,-0.0220824999999999,,2,3.0
B2N3Mn2Ho3,0.0,-0.0239508,,2,3.0
Na2PdSb2,0.0,-0.0236368,,2,3.0
CrTe2Hf6,0.0,-0.0524543,,2,3.0
CuZnNd,0.0,-0.0244103,,2,3.0
B6MgCr2,0.0,-0.0098737,,2,3.0
ZnCd3,0.0,-0.0261379,,2,3.0
Ca2Pd2Ba,0.0,-0.0254241999999999,,2,3.0
Ni5Np,0.0,-0.0313229,,2,3.0
Li3O10Ti2Cu3,0.0,-0.0100872,,2,3.0
RhBa3Bi,0.0,-0.0467618,,2,3.0
RuRe2Pt,0.0,-0.061978,,2,3.0
F5Rb2In,4.8295,-0.0144254,,2,3.0
F2RbI,1.9544,-0.0181022999999999,,2,3.0
OClCu2,0.0,-0.0117238,,2,3.0
F6Rb2Ho,0.0,-0.0156807999999999,,2,3.0
O6CaSr2Pt,0.0,-0.0183266999999999,,2,3.0
OCl2Pd2,0.7366,-0.0181342,,2,3.0
CaCuHg2,0.0,-0.0406721,,2,3.0
CoRuTa2,0.0,-0.0465487,,2,3.0
Ta2Re,0.0,-0.0685153,,2,3.0
CaAg4Hg,0.0,-0.0340914,,2,3.0
LiAl2Ir,0.0,-0.0231521,,2,3.0
GdPt2Au,0.0,-0.0680154,,2,3.0
Si2RhIn3Ce3,0.0,-0.032625,,2,3.0
AgSnHo2,0.0,-0.0418944,,2,3.0
CaZnBa2,0.0,-0.0256624,,2,3.0
O6AgIBa2,0.0,-0.0201285,,2,3.0
STe2Pr,0.0,-0.0332513,,2,3.0
Li3CaAs2,0.0,-0.0104198,,2,3.0
HNb,0.0,-0.018574,,2,3.0
Mg4Tl5,0.0,-0.042433,,2,3.0
Fe2Ge2Sm,0.0,-0.0242048,,2,3.0
O12Al2S3,6.2497,-0.0091379,,2,3.0
Ag2Au3,0.0,-0.054115,,2,3.0
Pd5TlBi,0.0,-0.0451953,,2,3.0
Zr2HgBi2,0.0,-0.0577214,,2,3.0
O3K2Te,3.4724,-0.0137606,,2,3.0
O2CuTm,2.6078,-0.0225535,,2,3.0
H10C3NI,4.6256,-0.0076355,,2,3.0
O6Sr2CdPu,0.0,-0.0248293999999999,,2,3.0
Zn4RuLa,0.0,-0.0222103999999999,,2,3.0
PBr2La2,0.0,-0.0291555,,2,3.0
Br4InCs2,0.0,-0.0282104,,2,3.0
O8S2RbIr,1.6437,-0.0149095,,2,3.0
Si2Fe2Lu,0.0,-0.0229154,,2,3.0
BNCoY,0.0,-0.0166748,,2,3.0
Ni2La3,0.0,-0.0324733,,2,3.0
Mg2S8Cr3Co,0.268,-0.0125502,,2,3.0
LiNi2Se2,0.0,-0.0154793,,2,3.0
Ga2PrIr3,0.0,-0.0489835,,2,3.0
Ni4GaU,0.0,-0.0309944,,2,3.0
Li2F3K,6.9521,-0.0070145,,2,3.0
SiGaNd,0.0,-0.0240902,,2,3.0
GeCeHo,0.0,-0.0382358,,2,3.0
S3Ta,0.0,-0.0247028,,2,3.0
Li3As2La,0.4667,-0.0162551999999999,,2,3.0
RhPdEu2,0.0,-0.0439735,,2,3.0
AsITb2,0.0,-0.038966,,2,3.0
O7P2KPu,0.0563,-0.0193148,,2,3.0
F6CuSm,0.856,-0.0130729,,2,3.0
P2MnNb,0.0,-0.0188444,,2,3.0
B4Sm2Ir5,0.0,-0.0439764,,2,3.0
InSn2Sm,0.0,-0.0379516,,2,3.0
N2TiBa,0.4666,-0.0200539,,2,3.0
CMgZr3,0.0,-0.0218396,,2,3.0
SrCd3,0.0,-0.0287073,,2,3.0
NaBaHg2,0.0,-0.0455173,,2,3.0
O3Cu2Zn,0.0,-0.0113854,,2,3.0
CaCd2In2,0.0,-0.0277841,,2,3.0
N2CeU,0.0,-0.0431893,,2,3.0
FePbPa,0.0,-0.0646800999999999,,2,3.0
SmHo3,0.0,-0.0478397999999999,,2,3.0
Ga2Ge2Sr3,0.0,-0.0203381,,2,3.0
Ni2ZnTb3,0.0,-0.031417,,2,3.0
FNa2Cl,4.6207,-0.0073512,,2,3.0
LiS2Ta,0.7108,-0.0234622,,2,3.0
ZnSe3DyTl,1.8382,-0.0335752,,2,3.0
NaSmHg2,0.0,-0.0467839,,2,3.0
NTaW,0.0,-0.0493152,,2,3.0
MgPCa3,0.0,-0.0094369,,2,3.0
Al4K,0.0,-0.0078365999999999,,2,3.0
H2MnNi,0.0,-0.0104324999999999,,2,3.0
NaSiAu,0.0,-0.0281768,,2,3.0
NbTc2Sn,0.0,-0.0350294,,2,3.0
CaGa2,0.0,-0.0147158,,2,3.0
In2Eu,0.0,-0.0408076,,2,3.0
H2CaBa2,0.0,-0.0194457,,2,3.0
C2Tb,0.0,-0.0226374,,2,3.0
Ru2AgSm3,0.0,-0.0394141,,2,3.0
LiTb2Au,0.0,-0.041822,,2,3.0
H8CaMnZn2,0.0,-0.0070061,,2,3.0
GeSe4AgIn,0.7592,-0.0238494,,2,3.0
Mg2Al3S8Cr,1.3235,-0.0105566999999999,,2,3.0
O6GeICs,2.6194,-0.0157244,,2,3.0
MgP2Cu2,0.0,-0.0114857,,2,3.0
Mg2S8Sc3Mn,0.0,-0.0123661,,2,3.0
O4CrTh,0.1498,-0.0263394,,2,3.0
RuReIr2,0.0,-0.0621751,,2,3.0
GaPtPa,0.0,-0.0630611,,2,3.0
LiAl2Co,0.0,-0.0091751,,2,3.0
GeTbPt2,0.0,-0.0527631999999999,,2,3.0
Li3O8P2Mn,0.0,-0.0093673,,2,3.0
Mg3Cu2Zn,0.0,-0.0099324999999999,,2,3.0
PNi3,0.0,-0.0151531,,2,3.0
MgCoSn2,0.0,-0.0235797999999999,,2,3.0
ITbPt,0.7781,-0.052617,,2,3.0
KTl2Ac,0.0,-0.0612464,,2,3.0
Ga2Hf6Pt,0.0,-0.0538356,,2,3.0
Zn2PrPt3,0.0,-0.0477654,,2,3.0
Li2Sn2La,0.0,-0.0246144,,2,3.0
F7Na3Ni,0.6154,-0.0072824,,2,3.0
Cd2In2Tl,0.0,-0.0399379,,2,3.0
In2La2Pb,0.0,-0.0464366,,2,3.0
O4CoSr,0.0,-0.0121998,,2,3.0
NaCuSe3Lu,0.0,-0.0237397,,2,3.0
CGeTb3,0.0,-0.0345346,,2,3.0
O2AgTm,2.3995,-0.0264939,,2,3.0
MnNi2Cu,0.0,-0.0166417999999999,,2,3.0
CaSn2Pt,0.0,-0.0387589,,2,3.0
Zn3Rh,0.0,-0.0189507,,2,3.0
PrHg2Ac,0.0,-0.0681828,,2,3.0
CdNd3Ir2,0.0,-0.0511971,,2,3.0
SeZr2,0.0,-0.0281442,,2,3.0
MgSc3Cu2,0.0,-0.0132649,,2,3.0
O4CrCd,2.0816,-0.014013,,2,3.0
S3AsLa4,0.0,-0.0299631,,2,3.0
AlAuU,0.0,-0.0605594,,2,3.0
Al3AgSn2Er3,0.0,-0.0314237,,2,3.0
O2Na2CsAu,1.9114,-0.0225316,,2,3.0
MgZn7,0.0,-0.0124383,,2,3.0
SnGdHg2,0.0,-0.0581659999999999,,2,3.0
BePCd2,0.0,-0.0189196999999999,,2,3.0
O4F2TiNbTl,2.7463,-0.0198532,,2,3.0
Nd3Ac,0.0,-0.0552849999999999,,2,3.0
ITb,0.0,-0.0427337,,2,3.0
Ni3Zn2Lu,0.0,-0.0221988999999999,,2,3.0
BC3Lu3,0.0,-0.0297706,,2,3.0
SiBrPu,0.0,-0.0473716,,2,3.0
SiYRh2,0.0,-0.0273875,,2,3.0
In2Sb2Bi,0.0,-0.0438727,,2,3.0
O2Cl2CdPb2,2.3057,-0.0313445,,2,3.0
HoTlPb2,0.0,-0.0685817,,2,3.0
Si2TbIr,0.0,-0.0355315,,2,3.0
CaI6Eu2,0.7771,-0.0392313,,2,3.0
Be4ZrOs,0.2715,-0.0204973,,2,3.0
Dy2Au,0.0,-0.0557962,,2,3.0
ScNi2Cu3,0.0,-0.0155815,,2,3.0
S2Co3Ga2,0.0,-0.0151235,,2,3.0
Co2MoRh,0.0,-0.0258041,,2,3.0
Pd2GdTm,0.0,-0.0449831999999999,,2,3.0
LiAgIn,0.0,-0.0226418,,2,3.0
O3AlLu,6.0073,-0.0201063,,2,3.0
ZnGaCe,0.0,-0.0253456,,2,3.0
InPrHg2,0.0,-0.0538133,,2,3.0
LiSi2Pd2,0.0,-0.0181617,,2,3.0
O7K4V2,3.4256,-0.0110913,,2,3.0
MgCoSm,0.0,-0.0222034999999999,,2,3.0
CaScCo4,0.0,-0.0155234,,2,3.0
Si2CuPa,0.0,-0.0340863999999999,,2,3.0
O8P2MnRb,0.0,-0.0113443,,2,3.0
YHo,0.0,-0.0384059999999999,,2,3.0
Co4Ge4La3,0.0,-0.0255669,,2,3.0
B2Ir2Hg,0.0,-0.0451815,,2,3.0
KCdTe3Tm,1.3276,-0.0348744,,2,3.0
Ca5Ba3,0.0,-0.020819,,2,3.0
LiO3U,0.2154,-0.0280352,,2,3.0
AlFe2Th,0.0,-0.035213,,2,3.0
Cl6AgCs2Sm,3.6025,-0.0220102,,2,3.0
ZnSnSb2,0.0,-0.0310421,,2,3.0
Li2As,0.0,-0.0090473,,2,3.0
N3MoDy,0.6248,-0.0232463,,2,3.0
SrIr,0.0,-0.0470959,,2,3.0
H4NNiSe4W,0.0,-0.017561,,2,3.0
Ta4W3,0.0,-0.0679961,,2,3.0
RbRu2Sb2,0.0,-0.0332026,,2,3.0
CuY2Sb,0.0,-0.0278096,,2,3.0
F6K2Sn,5.251,-0.0111027,,2,3.0
Se3Cs2Au2,1.2533,-0.039975,,2,3.0
CaY2Sb2,0.0,-0.0290279999999999,,2,3.0
Cl6SeCs2,2.6023,-0.0172757,,2,3.0
SrAuTl,0.0,-0.0553055999999999,,2,3.0
Ni2SnNd2,0.0,-0.0316438999999999,,2,3.0
NaCdSn2,0.0,-0.0266681,,2,3.0
O4Ba2Er,0.0,-0.0250279,,2,3.0
CrMn3Te4,0.0,-0.0281955,,2,3.0
F6K2Rh,0.0,-0.0103876,,2,3.0
Ca2CdSn,0.0,-0.0220483,,2,3.0
F6KRb2Lu,6.3988,-0.0162211,,2,3.0
SiPt3,0.0,-0.0557111,,2,3.0
Al2RuCe6,0.0,-0.035539,,2,3.0
Al2Sc6Ni,0.0,-0.0133664,,2,3.0
LiO6Si2Bi,3.279,-0.0162892,,2,3.0
BN2Na2Rb,2.0328,-0.0098801,,2,3.0
O4PdLa2,0.0,-0.0234377999999999,,2,3.0
F3AsBrCs,3.997,-0.0168583,,2,3.0
S3AgBaTm,1.4464,-0.0271224999999999,,2,3.0
RhIn6Bi2,0.0,-0.0435484,,2,3.0
COPr,2.8088,-0.021949,,2,3.0
LiPd2Gd,0.0,-0.0323228999999999,,2,3.0
CuGe3Pu,0.0,-0.0366758,,2,3.0
Se2Pb,0.0,-0.0389871,,2,3.0
HoHg2Th,0.0,-0.0707821,,2,3.0
CdInPb,0.0,-0.0464582,,2,3.0
SiRh3U2,0.0,-0.0537964,,2,3.0
In5SmIr,0.0,-0.040863,,2,3.0
GeIr3U2,0.0,-0.0739017999999999,,2,3.0
Cr5NiAs3,0.0,-0.0190142,,2,3.0
Ni2ZnDy,0.0,-0.0238061,,2,3.0
H6K3Fe,0.0,-0.0065837,,2,3.0
P2KCu2Nd,0.0,-0.0180064,,2,3.0
Ge2Ce,0.0,-0.0281894,,2,3.0
Rh2Pr3Tl3,0.0,-0.0524545,,2,3.0
F6RbZrCs2,0.0,-0.0180488,,2,3.0
B2O6Rb2Ce,1.3698,-0.0153836999999999,,2,3.0
N3FeBa3,0.0,-0.0242612,,2,3.0
Mg7In,0.0,-0.008581,,2,3.0
SrBaIr4,0.0,-0.0578744,,2,3.0
AgSnHo,0.0,-0.03945,,2,3.0
CrCoPt2,0.0,-0.0443458,,2,3.0
ScCoNi4,0.0,-0.0162956,,2,3.0
S2RbAu,1.1262,-0.0280269,,2,3.0
Y6SnSb2,0.0,-0.0316991,,2,3.0
SiPd3Sm2,0.0,-0.0337695,,2,3.0
Li2O2FMn,0.1615,-0.009045,,2,3.0
OSeCd2,0.0342,-0.0226685,,2,3.0
BeNSc3,0.0,-0.0121696,,2,3.0
S4GeCdCs2,2.4735,-0.0214245,,2,3.0
Li2GeBi,0.0,-0.0259043999999999,,2,3.0
LiBSi2,1.032,-0.0076192,,2,3.0
PMnPu,0.0,-0.0469845,,2,3.0
GaSn2Tl,0.0,-0.039904,,2,3.0
O8MnCo4,0.0,-0.0120177,,2,3.0
SiHo,0.0,-0.0303633,,2,3.0
O6FeRuBa2,0.0,-0.0191137,,2,3.0
P2CoW,0.0,-0.0274073,,2,3.0
O6Ca2MnW,0.5356,-0.0172284,,2,3.0
As2Hf6Re,0.0,-0.0548141,,2,3.0
InHg4Pb,0.0,-0.063526,,2,3.0
NCaY2Tl,0.0,-0.030558,,2,3.0
Zn5Au4,0.0,-0.0384476,,2,3.0