formula,bg,formation_energy,mp-id,fidelity,bg_category
ScRuTa2,0.0,-0.0458786,,2,3.0
O6Sr2NbLu,2.8884,-0.0204038,,2,3.0
CSc2Tl,0.0,-0.0283982999999999,,2,3.0
O4S2Cu2Sb2Ho,0.0,-0.0195604,,2,3.0
Mg4KSb3,0.6424,-0.0180194,,2,3.0
SeI2Nd2,0.0,-0.0379007,,2,3.0
O5MgSiV,0.0,-0.0108245,,2,3.0
CoInTb,0.0,-0.0328093999999999,,2,3.0
TiGaPdIr,0.0,-0.0348565,,2,3.0
Ga2In2Ba,0.0,-0.0282804,,2,3.0
P2Cu2CsHf,0.0,-0.0258996,,2,3.0
SrIn4Ba,0.0,-0.0331052,,2,3.0
RhInSm,0.0,-0.0380471999999999,,2,3.0
Zn2RuLu3,0.0,-0.038542,,2,3.0
SbLaHo,0.0,-0.0439952,,2,3.0
TiSe3Pd2,0.0,-0.0242996,,2,3.0
P2KBa,0.0,-0.0179342,,2,3.0
YRh2Sn,0.0,-0.0336773,,2,3.0
H3KAg,0.0,-0.0100344,,2,3.0
CuRuGd2,0.0,-0.0421907,,2,3.0
Rh2La3Hg,0.0,-0.0448897,,2,3.0
CMn2In,0.0,-0.0201323,,2,3.0
Mn3Ni2Dy,0.0,-0.0228070999999999,,2,3.0
As2PdNd2,0.0,-0.0335529,,2,3.0
Mg6Sn3Th2,0.0,-0.0301952,,2,3.0
Al5CuZr,0.0,-0.0124102999999999,,2,3.0
Pd3Sb8Au,0.0,-0.0391527,,2,3.0
AlFeCoHf,0.0,-0.0269827,,2,3.0
Co8In,0.0,-0.0189793999999999,,2,3.0
LiCu2As2Dy,0.0,-0.0209512,,2,3.0
MgDyAu2,0.0,-0.0487438,,2,3.0
Ni2Zn2Ga,0.0,-0.0153789,,2,3.0
Sr3Pt,0.0,-0.0348521,,2,3.0
LaIr2,0.0,-0.062614,,2,3.0
Al3Si2MnPr3,0.0,-0.0218822,,2,3.0
Cu2Sn2Ho,0.0,-0.0306405,,2,3.0
FeSb2Ho6,0.0,-0.0435452999999999,,2,3.0
MgHo3Ir2,0.0,-0.0497975,,2,3.0
B15Na,0.0295,-0.0073263999999999,,2,3.0
SnLa2Ir2,0.0,-0.0536416,,2,3.0
CuYPt,0.0,-0.0386438,,2,3.0
CrCoGaRu,0.0,-0.0219367,,2,3.0
Tb2Pt2Hg,0.0,-0.0616228,,2,3.0
LiRh2Cd,0.0,-0.0252116,,2,3.0
CrMoRe,0.0,-0.0414346,,2,3.0
Ni2ZrCd,0.0,-0.023646,,2,3.0
O8Cu2Ba2HgTl2,0.0,-0.0260874,,2,3.0
CuInNd2,0.0,-0.0342892999999999,,2,3.0
AlEuIr,0.0,-0.0449444,,2,3.0
ScGe3Nd,0.0,-0.0237219,,2,3.0
AlScZn2,0.0,-0.0126449,,2,3.0
NiYBi2,0.0,-0.0508175,,2,3.0
LiSBi,0.134,-0.0309605,,2,3.0
Ga5ErPt,0.0,-0.0295662999999999,,2,3.0
Ga5AuTh,0.0,-0.0356537,,2,3.0
CuZnTh2,0.0,-0.0552075,,2,3.0
Tc2RuRe,0.0,-0.0439839,,2,3.0
MgGeEr,0.0,-0.0254109,,2,3.0
PCu3,0.0,-0.0140334,,2,3.0
LiO4TiLa,2.3162,-0.0156928,,2,3.0
NFCa6Pb2,0.0968,-0.0236553,,2,3.0
MnNi2Rh,0.0,-0.0213205,,2,3.0
LiRhPr2,0.0,-0.0310853,,2,3.0
RhSbPu,0.0,-0.0609609,,2,3.0
CdTm3Ir2,0.0,-0.0556135,,2,3.0
ClCoLa2,0.0,-0.0288567,,2,3.0
C8Ce3Nd,0.0,-0.02176,,2,3.0
Pu2B6Os,0.0,-0.384158419722216,mp-1205010,2,3.0
O4Na2CoGe,0.2877,-0.0104728999999999,,2,3.0
NiPu,0.0,-0.0630846,,2,3.0
BaIr,0.0,-0.0556601,,2,3.0
NiTa2Ir,0.0,-0.0556008,,2,3.0
O8MgMn4,0.0,-0.0120574,,2,3.0
AlPd5I2,0.0,-0.0310874999999999,,2,3.0
GeSe,0.0,-0.0198079,,2,3.0
B2MgCo2,0.0,-0.0111367999999999,,2,3.0
Mn2Zr2In,0.0,-0.0264596,,2,3.0
Li2GeTm,0.0,-0.0193922,,2,3.0
Na4SrSb2,0.6755,-0.0169043,,2,3.0
Cu5Ta,0.0,-0.0237046,,2,3.0
C4Y3Ru,0.0,-0.0202494,,2,3.0
S4NbHf,0.0,-0.0237666,,2,3.0
CaCu2Au3,0.0,-0.0416617,,2,3.0
Si4RhPt2,0.0,-0.031261,,2,3.0
Ge2DyIr,0.0,-0.0401464,,2,3.0
AlScCd,0.0,-0.0178824,,2,3.0
FeGeHo,0.0,-0.0292438,,2,3.0
ZrTe,0.0,-0.0349754,,2,3.0
Al5TiCr2,0.0,-0.0117178,,2,3.0
Li2O8CoNi3,0.0,-0.0101015,,2,3.0
Si3Ni2Er,0.0,-0.0195158,,2,3.0
NaSiPd,0.0,-0.0160781999999999,,2,3.0
CoSbDy,0.0,-0.0347834,,2,3.0
NiZrIr2,0.0,-0.0480133,,2,3.0
K2CaBr4,3.9481,-0.0169151,,2,3.0
SiNi2Ce2,0.0,-0.0268525999999999,,2,3.0
S4KGeTb,2.2822,-0.0175328,,2,3.0
Cu2As2Y,0.0,-0.0204278,,2,3.0
Al2RhTh,0.0,-0.0371665,,2,3.0
ZnTe2Dy6,0.0,-0.0423649,,2,3.0
P2Sr2Cd,0.9213,-0.020217,,2,3.0
Sr2SnAu,0.0,-0.0381701,,2,3.0
RuCdLa3,0.0,-0.0392227,,2,3.0
AgSn2La2,0.0,-0.0385981,,2,3.0
AgPr2Os,0.0,-0.0476298999999999,,2,3.0
Si2Zr6Pt,0.0,-0.0312928,,2,3.0
Al4Ca3Sn2,0.0,-0.0150765,,2,3.0
Be2NaP2,0.0,-0.0071433999999999,,2,3.0
SiNiNd,0.0,-0.0240128999999999,,2,3.0
CuTcIr2,0.0,-0.0482297,,2,3.0
Si2NbTa2,0.0,-0.037819,,2,3.0
AlP2Zr6,0.0,-0.0245025,,2,3.0
O2K2CoRb,0.6362,-0.0124215,,2,3.0
B2O4FBi,4.2741,-0.0175752,,2,3.0
GaGdHg2,0.0,-0.0532739,,2,3.0
MgSc2Tl2,0.0,-0.0360576,,2,3.0
MgScHg,0.0,-0.0296834,,2,3.0
MnPtAu,0.0,-0.0530154,,2,3.0
NiGeCe,0.1058,-0.0273791,,2,3.0
F6CuU,0.4146,-0.0205214999999999,,2,3.0
MoHf2Pt,0.0,-0.0584222999999999,,2,3.0
O2MgHg,1.8493,-0.023086,,2,3.0
KCd2Cs2,0.0,-0.0289756,,2,3.0
MgAg2Pr,0.0,-0.0280817,,2,3.0
BeCo2Y,0.0,-0.0168912,,2,3.0
Al2NiEr,0.0,-0.0212199,,2,3.0
Cd5Gd,0.0,-0.0353408999999999,,2,3.0
MgGaBa2,0.0,-0.0252845,,2,3.0
LiCl6Rb2Lu,5.2369,-0.0170615,,2,3.0
H2Mo2W,0.0,-0.0291242,,2,3.0
FeCuPt,0.0,-0.0347844,,2,3.0
Al3Ge2PdSm3,0.0,-0.0261733,,2,3.0
LiGeAu2,0.0,-0.0403056,,2,3.0
O3SrPa,0.0,-0.031548,,2,3.0
GdPtPb,0.0,-0.0692639999999999,,2,3.0
InPrIr,0.0,-0.0500396,,2,3.0
Si2Fe3Ce,0.0,-0.0202229,,2,3.0
O2MnAsBr,1.7819,-0.0154594,,2,3.0
F6NaK2Sn,0.0,-0.0105303,,2,3.0
LuAu2,0.0,-0.0656571,,2,3.0
HNPu2,0.0,-0.0588596999999999,,2,3.0
F6GdDy,4.6506,-0.0202287,,2,3.0
CeAu2Tl,0.0,-0.0644546,,2,3.0
As4Th3,0.1454,-0.0540525,,2,3.0
AlHfOs2,0.0,-0.0542734999999999,,2,3.0
N2Zn3,0.0,-0.0118385,,2,3.0
CoCuSb2,0.0,-0.0268068,,2,3.0
ClZnLa2,0.0,-0.028033,,2,3.0
H4MnEr,0.0382,-0.0142347,,2,3.0
SiMnTa,0.0,-0.0322461,,2,3.0
B6O15Lu4,5.1327,-0.0175356,,2,3.0
S2KSe,0.0,-0.012156,,2,3.0
F6CaCr,0.0,-0.0094411,,2,3.0
NiOs2Pu2,0.0,-0.0759467,,2,3.0
B2ErIr3,0.0,-0.0472459,,2,3.0
O8P2ScCs,0.0,-0.0127186,,2,3.0
Ag2SmTb,0.0,-0.0388434999999999,,2,3.0
Mg2GePd,0.0,-0.0159972,,2,3.0
F6GeAu,0.5534,-0.0155821,,2,3.0
LiNiGaPt,0.0,-0.0268091,,2,3.0
O4Cl2Cu3Ba2,0.0,-0.0167988,,2,3.0
Mg2CeDy,0.0,-0.0255886,,2,3.0
Al2Co4Pr3,0.0,-0.0240096,,2,3.0
O7Si2NbEu,0.0497,-0.0166756999999999,,2,3.0
CCl2Tb2,0.7009,-0.0256456,,2,3.0
Pd2CdPb,0.0,-0.0432087,,2,3.0
CuSrAg,0.0,-0.0230919,,2,3.0
Ga5HfOs,0.0,-0.0312603,,2,3.0
H2Pd2Tl,0.0,-0.0290121,,2,3.0
KSe4Ag2Sb,0.0,-0.0239926,,2,3.0
O6CaAsSr2,0.0,-0.0136794,,2,3.0
O8YCs3,0.0,-0.0173606,,2,3.0
KSeI3,0.0,-0.0283149,,2,3.0
O4AsEr,3.7082,-0.0185533,,2,3.0
H2Rb2Pd,1.0546,-0.0165337999999999,,2,3.0
CoCdPt2,0.0,-0.0472685,,2,3.0
S6Ti3Pd,0.0,-0.0152106999999999,,2,3.0
Rh2GdTm,0.0,-0.0454979,,2,3.0
S3PdHfTl,0.0,-0.0338136,,2,3.0
TmAu2Hg,0.0,-0.0653035,,2,3.0
Li3Bi2Np,0.0,-0.0455887,,2,3.0
SrEu3,0.0,-0.0457849,,2,3.0
Ag5In4,0.0,-0.0322367,,2,3.0
O6Ge2Bi,0.0,-0.0185318,,2,3.0
S3CuTbPb,1.4783,-0.0290139999999999,,2,3.0
Te2BaLa,0.0,-0.0411349,,2,3.0
Ga4DyAu,0.0,-0.0309005,,2,3.0
AlSc2Os2,0.0,-0.0365838,,2,3.0
O4NdTm,2.2348,-0.0231693,,2,3.0
S3CuErPb,1.4493,-0.0296129,,2,3.0
O4ScPa,2.6717,-0.0270295999999999,,2,3.0
Al2YLa,0.0,-0.0220296,,2,3.0
Mg2AlGa2,0.0,-0.0102096,,2,3.0
Mg2As4Ba3,0.0,-0.0243972,,2,3.0
F6MnRb,0.0,-0.0100035,,2,3.0
O3FeBa,0.0,-0.0174666,,2,3.0
GeNd2Pt3,0.0,-0.0539771,,2,3.0
CaCuGa2,0.0,-0.0148551,,2,3.0
BrPdNd,0.7377,-0.033338,,2,3.0
B4Fe5Sm2,0.0,-0.019344,,2,3.0
Li3S8V4,0.0,-0.0114543,,2,3.0
HRh3Ir,0.0,-0.0350934,,2,3.0
NiGaNd,0.0,-0.0259656,,2,3.0
O4Na5Au,1.8038,-0.0127974,,2,3.0
N2ZrHf,0.0,-0.0299681,,2,3.0
CuSbTe,0.0,-0.0298861,,2,3.0
ZnRbAu2,0.0,-0.0434301,,2,3.0
NGaGd3,0.0,-0.0414367999999999,,2,3.0
CO5Sb2,2.1548,-0.0158005999999999,,2,3.0
Cl6KCs2Np,0.0989,-0.0260016,,2,3.0
SiTaIr,0.7484,-0.0501657,,2,3.0
FeCo2Sm2,0.0,-0.0283296,,2,3.0
S7Sc5,0.0,-0.0136999999999999,,2,3.0
MgAg2Ba,0.0,-0.0270986,,2,3.0
CaNi,0.0,-0.0130459,,2,3.0
F3NaHg,1.4667,-0.0186345,,2,3.0
AlCoDy,0.0,-0.0246945,,2,3.0
SiAgNd2,0.0,-0.0325906,,2,3.0
Cl4CoRb2,0.0,-0.0145499,,2,3.0
PSLa,0.0,-0.0228228,,2,3.0
KNiSe3Ta,0.0,-0.0260767999999999,,2,3.0
MnRh2Pa2,0.0,-0.0576758,,2,3.0
Al3MnGe2Y3,0.0,-0.0188779,,2,3.0
S3SbBi,0.9982,-0.0292133,,2,3.0
AlOsTh,0.0,-0.0591586,,2,3.0
Li2O4VCo,0.0,-0.0102112,,2,3.0
F6MnPa,0.6189,-0.0209258999999999,,2,3.0
Al2TiNi,0.0,-0.0125223,,2,3.0
Al2DyIr,0.0,-0.0346186,,2,3.0
Ag2PrEu,0.0,-0.0402431,,2,3.0
AlMoOs,0.0,-0.0385856,,2,3.0
Na2AsCs,0.1436,-0.0170851,,2,3.0
Al8Mn5,0.0,-0.0120314,,2,3.0
H11Ce4,0.0,-0.0150305,,2,3.0
Li2F6Sn,5.1435,-0.0097944,,2,3.0
I3Ir,1.0911,-0.0455001,,2,3.0
O4Cu2As2Te2Tm,0.0,-0.0215841999999999,,2,3.0
Sc2Cu2Tl,0.0,-0.0266438,,2,3.0
PFeTa4,0.0,-0.0495291,,2,3.0
Ru2LuTa,0.0,-0.0485438,,2,3.0
BPrPt2,0.0,-0.0488675,,2,3.0
O6YInTe,2.6888,-0.0172535999999999,,2,3.0
Be2Mo2Os,0.0,-0.0302709,,2,3.0
AgCd2Er,0.0,-0.0359356999999999,,2,3.0
Al3Ca2Pt2,0.0,-0.0272200999999999,,2,3.0
Si2Ni3Zr,0.0,-0.0172812,,2,3.0
S5CoBaPr2,0.0,-0.0232678,,2,3.0
F6NaMgCs2,0.0,-0.0135053999999999,,2,3.0
Cl8Sr2Ba,1.7317,-0.0156342,,2,3.0
B2O6ErPb,0.0,-0.0204091,,2,3.0
Ga3Dy2Re,0.0,-0.0365456,,2,3.0
CaNdHg2,0.0,-0.0481499,,2,3.0
NiGa5Lu,0.0,-0.0224120999999999,,2,3.0
S2GaRb,3.0072,-0.0152591,,2,3.0
NiSn2Tb6,0.0,-0.0414884,,2,3.0
F6CuRe,0.0,-0.0154377,,2,3.0
CuTe2Ba,0.0,-0.0332515,,2,3.0
F6CsHg,0.0,-0.0172294,,2,3.0
FeGe2Lu,0.0,-0.0283844,,2,3.0
Zr8Cd,0.0,-0.0306854,,2,3.0
Cu2AgBa,0.0,-0.0253633999999999,,2,3.0
CaHoTl2,0.0,-0.0514084999999999,,2,3.0
As12NdOs4,0.0,-0.0341823,,2,3.0
MoRh2Os,0.0,-0.0437381,,2,3.0
N2PdEr2,0.0,-0.0320801999999999,,2,3.0
BTb3Tl,0.0,-0.044363,,2,3.0
Ge2CeIr3,0.0,-0.0501079,,2,3.0
LiPd2Bi2,0.0,-0.0453299,,2,3.0
Mg3Al3Si2Au,0.0,-0.0144863,,2,3.0
TiCo2Te3,0.0,-0.0274369,,2,3.0
TiSnTe,0.0,-0.0301831,,2,3.0
MnSb2Tb,0.0,-0.0356133,,2,3.0
LaBi2,0.0,-0.0675941,,2,3.0
NaNb6Te8,0.0,-0.0339433,,2,3.0
O4CaMn3,0.0,-0.0133951,,2,3.0
Cu2CdPt,0.0,-0.0329173,,2,3.0
BeCs4Bi2,0.6792,-0.0450351,,2,3.0
FeRu2Tb2,0.0,-0.0365574,,2,3.0
Al5Pd2Pr,0.0,-0.0192893,,2,3.0
C2CaCo,0.0,-0.0118745999999999,,2,3.0
O6TeBa2Pr,0.0,-0.0222817,,2,3.0
H2SnLa2,0.0,-0.0266615,,2,3.0
Li2ZnLa,0.0,-0.015446,,2,3.0
Ag2CdLa,0.0,-0.0343645,,2,3.0
MnCu2Ga,0.0,-0.0164653999999999,,2,3.0
LiBa2Pt,0.0,-0.0383973,,2,3.0
Ge3SmHf,0.0,-0.033538,,2,3.0
CdTb,0.0,-0.0390167,,2,3.0
MgCu4Tm,0.0,-0.0198978,,2,3.0
S4TiCu4,1.4154,-0.0135231,,2,3.0
Cl3GeRb,3.5593,-0.014185,,2,3.0
O2SCuRb5,0.9116,-0.0168377,,2,3.0
C2Al2Ti3Nb,0.0,-0.0153543,,2,3.0
MgEr2,0.0,-0.0352740999999999,,2,3.0
HPd2Cs,0.7919,-0.0268809,,2,3.0
F4NaRu,0.0,-0.0110908,,2,3.0
C3N6Ce2,0.0,-0.0167979999999999,,2,3.0
GaPdTm,0.0,-0.034676,,2,3.0
HFe3Cu,0.0,-0.0146104,,2,3.0
CuLaPt2,0.0,-0.0505201,,2,3.0
GdTbAu2,0.0,-0.0620033,,2,3.0
Br2SnHg,1.9123,-0.0362102999999999,,2,3.0
CCo2Ge2Lu2,0.0,-0.0282837999999999,,2,3.0
CSi2CaW2,0.0,-0.0300556,,2,3.0
Li2AlCe,0.0,-0.0143704,,2,3.0
BSnHo3,0.0,-0.0386255999999999,,2,3.0
Be2CoPd,0.0,-0.0151873,,2,3.0
B2N3Fe2Np3,0.0,-0.0407655,,2,3.0
CaGe4LaIr4,0.0,-0.0422272,,2,3.0
Mg6CdIn,0.0,-0.0118389,,2,3.0
CaSr2I6,3.4602,-0.0323187,,2,3.0
Ru2PdEr3,0.0,-0.0429892,,2,3.0
B2O6YBa,0.0,-0.0149363,,2,3.0
O6Ca2ScSb,3.7783,-0.0138041,,2,3.0
LiClHg2,0.3652,-0.0375850999999999,,2,3.0
O2Na2Cu,0.0,-0.0084848,,2,3.0
Mg2Sb2Ho,0.0,-0.0273089,,2,3.0
MgZnRh,0.0,-0.0179164,,2,3.0
Ga2PdLa,0.0,-0.0279986999999999,,2,3.0
Cl6K3La,5.0909,-0.0139669,,2,3.0
RuNd2Au,0.0,-0.0483386,,2,3.0
Ag7Cs3,0.0,-0.0332556,,2,3.0
HCl2Sc2,0.0,-0.0111571999999999,,2,3.0
MnGe3Pu,0.0,-0.037323,,2,3.0
HCN2Na,4.1005,-0.0076387,,2,3.0
ClY2Ir,0.0,-0.0351085,,2,3.0
Ti2FeRe,0.0,-0.0307362,,2,3.0
Mg2AgLa,0.0,-0.0213381,,2,3.0
AsRhGd,0.0,-0.0387928,,2,3.0
C4MnU3,0.0,-0.0461172,,2,3.0
MgRh2Ba,0.0,-0.0282962,,2,3.0
Br6AgSbCs2,0.7149,-0.027295,,2,3.0
CoGa2Dy,0.0,-0.0250006999999999,,2,3.0
Ru2PrNp,0.0,-0.055045,,2,3.0
NaSr2Hg2,0.0,-0.0375606,,2,3.0
O8P2TiNd,0.2486,-0.0138988,,2,3.0
CuAg3Dy2,0.0,-0.0344543,,2,3.0
NMg2AlHg,0.0,-0.0195702,,2,3.0
Ti2Mn,0.0,-0.0169338,,2,3.0
Li3FSe,3.9364,-0.0082099,,2,3.0
BrPrPt,1.0346,-0.0459437,,2,3.0
CaGe2Ru2,0.0,-0.0241233,,2,3.0
O2Cu2ZnSe2Sr2,0.7203,-0.0172614,,2,3.0
Ti2Ga4Ta,0.0,-0.0238334,,2,3.0
GaRhU,0.0,-0.0517039,,2,3.0
Co2BrPr2,0.0,-0.0288141999999999,,2,3.0
O3PCs,5.3081,-0.015893,,2,3.0
CoHo6Tl2,0.0,-0.0510027,,2,3.0
Zr2AgTa,0.0,-0.0398522,,2,3.0
Si2FeTa2,0.0,-0.0347498999999999,,2,3.0
MgZrIr4,0.0,-0.0540146,,2,3.0
AlSiY2,0.0,-0.0191053,,2,3.0
S2AsRb,1.8101,-0.0157976,,2,3.0
BeZr2Tc,0.0,-0.0254967,,2,3.0
CaZnSb2,0.0,-0.0249826,,2,3.0
Al3Sn2Gd3Ir,0.0,-0.0389268,,2,3.0
Sb3Te,0.0,-0.0372567,,2,3.0
CMgEr2,0.0,-0.0292606,,2,3.0
H2CTa2,0.0,-0.0303719,,2,3.0
RhPdNd2,0.0,-0.0392165,,2,3.0
O3NaFe,0.0986,-0.0097406,,2,3.0
K2Br6InTl,1.3989,-0.0251813,,2,3.0
K2GaAu2,0.0,-0.0345592,,2,3.0
Ni2InPr2,0.0,-0.0309362,,2,3.0
In4LaIr,0.0,-0.0418392,,2,3.0
SeY2Tl,0.0,-0.0383357999999999,,2,3.0
Fe3Cu,0.0,-0.0173807,,2,3.0
ZnGa2Rh,0.0,-0.0204062,,2,3.0
SiBrLa2,0.0,-0.0302168999999999,,2,3.0
MgGeIn,0.0,-0.0192132,,2,3.0
SeTa,0.0,-0.0439321,,2,3.0
Zn2PmEr,0.0,-0.0307361,,2,3.0
Co2Ga2Th,0.0,-0.0329965,,2,3.0
Ni2SnHf,0.0,-0.0332791,,2,3.0
Ru2CdCe2,0.0,-0.0381382,,2,3.0
CaCdLa2,0.0,-0.031761,,2,3.0
InHf3,0.0,-0.0555897999999999,,2,3.0
N2TePa2,0.0,-0.0527222,,2,3.0
Te3Bi2,0.1985,-0.0539498,,2,3.0
Zn2CdPt2,0.0,-0.0400519,,2,3.0
K2AgSb2,0.0,-0.0248619,,2,3.0
AsNdTm,0.0,-0.0395957,,2,3.0
O2FeCs,0.0,-0.0187938,,2,3.0
NiPt2Pb4,0.0,-0.0657945,,2,3.0
O6Nb2Tm,0.0,-0.0203183,,2,3.0
MgCu2Zn,0.0,-0.0123477,,2,3.0
O4Ba2Th,2.8979,-0.0318713,,2,3.0
H8Mg2CrSr,0.0,-0.0068547,,2,3.0
Tb5Pu,0.0,-0.0571924,,2,3.0
RhI3,0.8821,-0.0363256999999999,,2,3.0
PCoCe,0.0,-0.0251432,,2,3.0
GePd2Th,0.0,-0.0460275,,2,3.0
S6GeAs2Rb2,0.8764,-0.0150685,,2,3.0
RhSn2Nd,0.0,-0.0381400999999999,,2,3.0
H6K2Pd,3.1911,-0.0081126,,2,3.0
Ni2Cu2La,0.0,-0.0212938,,2,3.0
AgTe3CsTb,0.0,-0.0389819,,2,3.0
MgGaNd2,0.0,-0.0275028,,2,3.0
Cs4HgBi2,0.4556,-0.0543025,,2,3.0
Cl6Te4Hf,1.1126,-0.0246587,,2,3.0
PrAuTl,0.0,-0.0624046,,2,3.0
OCl4NbIn,0.985,-0.0164917,,2,3.0
H8C2NS4GeBi,2.0979,-0.0116591,,2,3.0
Si3CoPr,0.0,-0.0187414,,2,3.0
Si2FeY2,0.0,-0.0194135,,2,3.0
Ge2PmPu,0.0,-0.048469,,2,3.0
LiO6Si2Cu3,1.7728,-0.0107611,,2,3.0
Cu2Sn2Sm,0.0,-0.0298121,,2,3.0
Mg2Ga3Pt,0.0,-0.0221026,,2,3.0
SiZrRe,0.0,-0.0381182,,2,3.0
LiNdAu2,0.0,-0.0468884,,2,3.0
Li3O10Cr5,0.0,-0.011364,,2,3.0
Mg2YPd2,0.0,-0.0213966999999999,,2,3.0
Cl6KGaCs2,3.416,-0.0166817,,2,3.0
Cd2In2La,0.0,-0.0346227,,2,3.0
B4TiZr,0.0,-0.0138109,,2,3.0
Se2ILa2,0.0,-0.034629,,2,3.0
Co6As4Tb,0.0,-0.0214523,,2,3.0
ClTeHo,0.3573,-0.0333034,,2,3.0
Rh2CdPr,0.0,-0.0357533,,2,3.0
CHf3Au,0.0,-0.0542043,,2,3.0
Fe2NiPt,0.0,-0.0309986,,2,3.0
NMn2Zn,0.0,-0.0151905,,2,3.0
CClCe,0.0,-0.0222635,,2,3.0
H8CrCo2Eu,0.0,-0.0112763,,2,3.0
BO10P2Co2Bi,0.2573,-0.0147335,,2,3.0
MnY2Ir2,0.0,-0.0441323,,2,3.0
Al3Ge2PdTh3,0.0,-0.0431257,,2,3.0
MnTe2Er6,0.0,-0.0445445,,2,3.0
Lu3Os,0.0,-0.0599176,,2,3.0
RhIn5Nd,0.0,-0.0354647,,2,3.0
AsTlPb2,0.0,-0.060993,,2,3.0
NSnCe3,0.0,-0.0368799,,2,3.0
PdPt2Np,0.0,-0.0705426,,2,3.0
Zn2Cd,0.0,-0.0191005,,2,3.0
Mg2Al3Fe,0.0,-0.0086834,,2,3.0
Cu2Ga3Nd,0.0,-0.0210078,,2,3.0
CaAuHg2,0.0,-0.0543614,,2,3.0
FeRhInHf,0.0,-0.0374727,,2,3.0
NaCl6K2Pr,4.6702,-0.0134627,,2,3.0
SiAuPa,0.0,-0.0601692,,2,3.0
NaBr6Rb2In,1.8793,-0.0211024,,2,3.0
Si2Pd2La,0.0,-0.0267393,,2,3.0
CoRh2W,0.0,-0.0388048,,2,3.0
In2TbTm,0.0,-0.0419416,,2,3.0
Co4MoW,0.0,-0.0288241,,2,3.0
Co2Tm3Pb3,0.0,-0.0524962,,2,3.0
MnCo2Ho2,0.0,-0.0303213,,2,3.0
RhIn5Dy,0.0,-0.0360293,,2,3.0
O9CuSr3Nb2,0.355,-0.016427,,2,3.0
TiBr4Cs2,0.0,-0.0259106,,2,3.0
Sc3RuIr2,0.0,-0.0376983,,2,3.0
Mg2Ga2Sn,0.0,-0.0158337,,2,3.0
C3Mo2Nd2,0.0,-0.0270233,,2,3.0
TbBi,0.0,-0.0636911,,2,3.0
Ge2Y3Sn3Os,0.0,-0.034137,,2,3.0
Cl6Ag3Er,2.7464,-0.0205517,,2,3.0
Rh2CdTh2,0.0,-0.0587875999999999,,2,3.0
H4O2Br2Cd,3.0189,-0.0116285,,2,3.0
CO7NaSCo,0.0,-0.0092433,,2,3.0
MgHf2Ir2,0.0,-0.0554284,,2,3.0
Al3Si2FeNd3,0.0,-0.021915,,2,3.0
P2S6SnTl2,0.5171,-0.0239552,,2,3.0
LiNi2,0.0,-0.01157,,2,3.0
AlRu2Pu,0.0,-0.0473141,,2,3.0
Rb2CdSn,0.1558,-0.0272358,,2,3.0
O6MgS2Fe2Sr4,0.0,-0.0148472,,2,3.0
Te2TaHg,0.0,-0.0525148,,2,3.0
Al3Ge2Pr2,0.0,-0.0217290999999999,,2,3.0
NiRuW2,0.0,-0.0475868,,2,3.0
TiIn,0.0,-0.0250057,,2,3.0
Al3MnSn2Pu3,0.0,-0.0494833,,2,3.0
MgCo2Tb3,0.0,-0.0301708,,2,3.0
B2O6GeBa,4.2467,-0.0136675,,2,3.0
S2InI,0.0,-0.0227058,,2,3.0
PdAgEr2,0.0,-0.0419044,,2,3.0
CoPt2,0.0,-0.0527317,,2,3.0
AgPb,0.0,-0.0534891,,2,3.0
SiGePd2Ce,0.0,-0.0287651,,2,3.0
NInHo2,0.0,-0.0364293,,2,3.0
SiGaNp,0.0,-0.0444575,,2,3.0
Be4Ru3,0.0,-0.0177098,,2,3.0
MgAsPt5,0.0,-0.0543301,,2,3.0
Ag2Tb2Hg,0.0,-0.0452947,,2,3.0
ZrHfHg2,0.0,-0.0576654,,2,3.0
Ga2SnBi,0.0,-0.0367370999999999,,2,3.0
O8KMo2Eu,0.0,-0.017541,,2,3.0
TeHg8,0.0,-0.0646621,,2,3.0
CCdTb2,0.0,-0.0338698,,2,3.0
Br6Rb2InAu,0.0,-0.0271978,,2,3.0
Al3CuSn2Ho3,0.0,-0.0292178,,2,3.0
TcSm3,0.0,-0.0420923999999999,,2,3.0
CuSe3SnTl,0.0,-0.0309069,,2,3.0
Y2RuPd,0.0,-0.0315321,,2,3.0
BeScOs,0.0,-0.0305786,,2,3.0
N2CdPa,0.0,-0.0380955,,2,3.0
K2I6Pt,0.1255,-0.0349819,,2,3.0
NaS2Gd,1.814,-0.0226372,,2,3.0
OP2Ti2Ba,0.0,-0.0182395,,2,3.0
DyAu2Pb,0.0,-0.0661827,,2,3.0
CBr2Ho2,0.7143,-0.0308979,,2,3.0
CoTb2,0.0,-0.0370138,,2,3.0
AlSi2Hf2,0.0,-0.0312653,,2,3.0
LiAl2Ag,0.0,-0.0125005,,2,3.0
AlSmOs,0.0,-0.0418757,,2,3.0
O8CePr3,0.0,-0.0217423,,2,3.0
Ca3CuGa3Ge2,0.0,-0.0151461,,2,3.0
O6Ca2EuBi,0.0,-0.0212668,,2,3.0
ScRhAu2,0.0,-0.047401,,2,3.0
BaLaTl2,0.0,-0.0574639,,2,3.0
NiGeHf,0.0,-0.0334797,,2,3.0
NdPt4Hg,0.0,-0.0662803,,2,3.0
PdIn3Sn2Sm3,0.0,-0.0383680999999999,,2,3.0
NaTe2Tm,1.0346,-0.0340814,,2,3.0
Fe2As2Er,0.0,-0.0259898,,2,3.0
LiCaTl2,0.0,-0.0396554,,2,3.0
Co2Nb2Rh,0.0,-0.0271151,,2,3.0
O8S2CrCs,1.2569,-0.0123851999999999,,2,3.0
MnCo3Tb2,0.0,-0.0273708,,2,3.0
O6CdPr2Pt,1.8337,-0.024779,,2,3.0
MgAlLa2,0.0,-0.0250081,,2,3.0
B3Mg4Ir2,0.0,-0.0209412,,2,3.0
Co2NbTe3,0.0,-0.03019,,2,3.0
LiY2Ag2,0.0,-0.024448,,2,3.0
HAlCa3,0.0,-0.0082859,,2,3.0
Cd2TbTh,0.0,-0.0511048,,2,3.0
O6ZrSbBa2,0.0,-0.0212768,,2,3.0
TiAgPt2,0.0,-0.0476773,,2,3.0
O4PTl,0.8728,-0.0197213,,2,3.0
TbBiPu,0.0,-0.0790165999999999,,2,3.0
CaCu3Zn2,0.0,-0.0139299,,2,3.0
CaInHg2,0.0,-0.0453337999999999,,2,3.0
Si2SrLa,0.0,-0.0219648,,2,3.0
N2Cs2Au,0.0,-0.0329724999999999,,2,3.0
Be12Nb,0.0,-0.0067055,,2,3.0
S2RbTe2,0.0,-0.0232091,,2,3.0
H2LiBa2,0.0,-0.0180279,,2,3.0
Cl2Pu,0.0,-0.0438043,,2,3.0
LiCdAuTl,0.0,-0.0438579,,2,3.0
N3SrMo,0.6458,-0.0177809,,2,3.0
H5AlBa2,0.0,-0.0134469999999999,,2,3.0
ZnPd2Ba2,0.0,-0.0321395,,2,3.0
SITh,0.0,-0.0490876,,2,3.0
CCa2Ge2Os2,0.0,-0.0306917,,2,3.0
K3Rh4Pb4,0.0,-0.0423114,,2,3.0
SiFeRu2,0.0,-0.0249751,,2,3.0
RhLa2Tl,0.0,-0.04877,,2,3.0
Co2Ga5Np,0.0,-0.0281306,,2,3.0
Rh2HoEr,0.0,-0.0427762,,2,3.0
Ni2CuTc,0.0,-0.0206252,,2,3.0
O4DyTh,0.0,-0.0316717,,2,3.0
Li6O7Si2,4.8455,-0.007841,,2,3.0
Al2MnGa,0.0,-0.012771,,2,3.0
Li3O6Ti2Nb,0.0,-0.0118327,,2,3.0
PMoRu,0.0,-0.0272453,,2,3.0
Na2ZnSe4Sn,1.3231,-0.01813,,2,3.0
Mg7Sc6,0.0,-0.0092299,,2,3.0
ScY2Cd,0.0,-0.0253054,,2,3.0
Y2Os,0.0,-0.0428725,,2,3.0
LiF3Sr,7.2042,-0.0108017,,2,3.0
LiAgHg2,0.0,-0.0427526,,2,3.0
O8CuTmW2,1.141,-0.0237799,,2,3.0
Se4Mo3,0.0,-0.0269689,,2,3.0
GeHfPt2,0.0,-0.0565632,,2,3.0
O5AlCa2Ti,0.0,-0.0115329,,2,3.0
RhCdSm,0.0,-0.0368716,,2,3.0
F6RbI,3.9992,-0.0118455,,2,3.0
Mg2Ca2Ba,0.0,-0.0137761,,2,3.0
O6Sr2NbPu,0.0,-0.0256095,,2,3.0
C2HfTa,0.0,-0.0382396,,2,3.0
Ti2Co,0.0,-0.0167426,,2,3.0
Ca2Se2In,0.0,-0.0200208,,2,3.0
GeAgEr,0.0,-0.0343269,,2,3.0
Ru7W,0.0,-0.0391035,,2,3.0
H3ClSr2,1.7504,-0.011692,,2,3.0
N3ZnSm,0.0,-0.0177154,,2,3.0
F6RbNb,5.1632,-0.0126167,,2,3.0
B2MgIr3,0.0,-0.0393366,,2,3.0
AgHgTh2,0.0,-0.0729833,,2,3.0
Na2CoAs2,0.0,-0.0135465,,2,3.0
Mg2STe,2.3827,-0.0154957999999999,,2,3.0
ScGa2Pt2,0.0,-0.0384758,,2,3.0
MnSe2Pd2,0.0,-0.0251039,,2,3.0
ScZnRu2,0.0,-0.0246316,,2,3.0
GaSe,0.9926,-0.0188459,,2,3.0
Ga3CdPr,0.0,-0.0250733,,2,3.0
RbPt4Tl6,0.0,-0.0670006,,2,3.0
Ni5AsCd,0.0,-0.0188123,,2,3.0
B4Co5Tb2,0.0,-0.0195516,,2,3.0
CuBrTe2,0.5515,-0.0275071,,2,3.0
Cl2SePu2,0.0,-0.0528629,,2,3.0
Be2Si2Dy,0.0,-0.0156595,,2,3.0
Fe4RhPt,0.0,-0.0295537,,2,3.0
ZnAsY,0.0,-0.0213813,,2,3.0
FCuTeBa,0.8261,-0.02595,,2,3.0
O4Ca2Sn,2.8318,-0.0141735,,2,3.0
Fe2Ge2Tm,0.0,-0.0256855,,2,3.0
Tb3Ir2Au,0.0,-0.0596182,,2,3.0
Mg4YCe,0.0,-0.0154504,,2,3.0
Ag2InCe,0.0,-0.0354976,,2,3.0
KCdHg,0.0,-0.0358406,,2,3.0
LiTi3Se6,0.0,-0.0183909999999999,,2,3.0
F8EuEr2,0.924,-0.0209566,,2,3.0
H4KCr,0.0,-0.0068697,,2,3.0
Co2Ga3,0.0,-0.016926,,2,3.0
GeRuAc2,0.0,-0.0589106,,2,3.0
InCeHg,0.0,-0.0492419999999999,,2,3.0
P4Fe7,0.0,-0.0156677,,2,3.0
Sc6MnSb2,0.0,-0.0204178,,2,3.0
V3Mo,0.0,-0.0219147,,2,3.0
PdInCe,0.0,-0.0377249,,2,3.0
NaScCu2Bi2,0.0,-0.0346939,,2,3.0
B4Dy2Ir5,0.0,-0.044601,,2,3.0
RuTbPb,0.0,-0.0528449,,2,3.0
O4MgVCr,0.0,-0.0121452,,2,3.0
C5Ni2Tm4,0.0,-0.0268973,,2,3.0
B4ScNb,0.0,-0.0137786,,2,3.0
O6NiBa2Pa,0.0,-0.0261662,,2,3.0
CEr2Tl,0.0,-0.0463476,,2,3.0
H6MnNd2,0.0,-0.0145915,,2,3.0
Li2AlSm,0.0,-0.0144451,,2,3.0
CuPd2Te2,0.0,-0.031309,,2,3.0
Li2PdSb2,0.0,-0.0229376,,2,3.0
N2MgMn,0.0,-0.0114038,,2,3.0
CO7NaCoAs,0.0,-0.0100494,,2,3.0
NiAgTe,0.0,-0.028304,,2,3.0
NPdTb3,0.0,-0.0376096,,2,3.0
Zn8Au,0.0,-0.0197423,,2,3.0
LiSc2Hg,0.0,-0.025153,,2,3.0
PRh2La,0.0,-0.0313185,,2,3.0