formula,bg,formation_energy,mp-id,fidelity,bg_category
Mg3CaCu,0.0,-0.0080005,,2,3.0
MnAgTe2,0.0,-0.0313422,,2,3.0
Si2CaZn,0.0,-0.01109,,2,3.0
Cu2Sn2Np,0.0,-0.0418509,,2,3.0
BNFeCe,0.0,-0.0209118,,2,3.0
LiCu2In,0.0,-0.0166786,,2,3.0
NGaHo3,0.0,-0.0356735,,2,3.0
CuRhPu2,0.0,-0.0672716,,2,3.0
OCl4CsTa,3.0029,-0.022405,,2,3.0
ZnGe2Sr,0.0,-0.0189569,,2,3.0
SeBr2Ce2,0.0,-0.0315513,,2,3.0
O8P2BaTl,0.0,-0.0174089999999999,,2,3.0
Be2TiNb2,0.0,-0.0182915,,2,3.0
Zr2ReTl,0.0,-0.0515587,,2,3.0
NiRh2Tm2,0.0,-0.0382695999999999,,2,3.0
PBr2Th2,0.0,-0.0499014,,2,3.0
Na2GaPb2,0.0,-0.0354465,,2,3.0
Cu2ZnTm2,0.0,-0.0298839,,2,3.0
Pr9Ga5Se21,0.7210000000000001,-1.644789706294633,mp-1220191,2,3.0
Al2Zn2Sn,0.0,-0.0155859,,2,3.0
Al3Ho2Os,0.0,-0.0328756,,2,3.0
TmIr,0.0,-0.0625901,,2,3.0
MgCu4Tb,0.0,-0.0190298,,2,3.0
Co4TaOs,0.0,-0.0346823,,2,3.0
AlTcTm2,0.0,-0.0369029,,2,3.0
Zn2CdBa,0.0,-0.0244796,,2,3.0
NNb2Pt,0.0,-0.0374022,,2,3.0
ZnGeIr2,0.0,-0.043901,,2,3.0
Be13Lu,0.0,-0.0081637,,2,3.0
Zn5Ir,0.0,-0.0232677,,2,3.0
Pd2CdHo2,0.0,-0.0396817,,2,3.0
HFeNi3,0.0,-0.0141006999999999,,2,3.0
H3PdNd,0.0,-0.0179387,,2,3.0
NiGa2Tb6,0.0,-0.0370031,,2,3.0
MgAl3Ba,0.0,-0.0137681,,2,3.0
F6KFeRb2,0.0,-0.0116768,,2,3.0
NaRh2Cd2,0.0,-0.0265364,,2,3.0
B2CCo2U,0.0,-0.0274603,,2,3.0
Se8YMo6,0.0,-0.0273079,,2,3.0
O9In2Ba3W,2.4363,-0.0233059,,2,3.0
AlIEr,0.0,-0.0325286,,2,3.0
LiSc2Re,0.0,-0.0255759,,2,3.0
Te2CsNd,1.1483,-0.0405788999999999,,2,3.0
Si2InEr2,0.0,-0.0315107,,2,3.0
O4FPW,0.0,-0.0177095,,2,3.0
NaSiCu,0.0,-0.0097837999999999,,2,3.0
Ca3Ba,0.0,-0.0171017,,2,3.0
ZnZrTe2,0.0,-0.0303626,,2,3.0
AlZnHo2,0.0,-0.0302273,,2,3.0
Te5Ho2,0.0,-0.041713,,2,3.0
Si2Fe2Eu,0.0,-0.0223762,,2,3.0
Sn2CeIr2,0.0,-0.0523706,,2,3.0
In2TmTh,0.0,-0.0540234999999999,,2,3.0
AlTiFeIr,0.1881,-0.0292394,,2,3.0
MgSi2Dy,0.0,-0.0186763,,2,3.0
Ag2TbHg,0.0,-0.0447302,,2,3.0
MnRh2Pb,0.0,-0.0406834,,2,3.0
O3SbHg,0.8548,-0.0259824,,2,3.0
Al2CrPa,0.0,-0.0335817,,2,3.0
O7Mn2Sr2La,0.0,-0.0169492,,2,3.0
Ta5W4,0.0,-0.068025,,2,3.0
O6TeW,1.8329,-0.0196076,,2,3.0
Mg2CuGe2,0.0,-0.0127749,,2,3.0
AlNi2Au,0.0,-0.0277123,,2,3.0
O6AlSr2Pd,0.0,-0.0145306999999999,,2,3.0
SrSb2Ir2,0.0,-0.0484309999999999,,2,3.0
F6NaK2Cu,0.882,-0.0083172,,2,3.0
CuRu2La,0.0,-0.0320924,,2,3.0
B2O6TiBa,2.4699,-0.0138482,,2,3.0
Al4Sn2Pr3,0.0,-0.0264534999999999,,2,3.0
MgGe2Ir,0.0,-0.0290545,,2,3.0
O8Rb3Eu,0.0796,-0.0150937,,2,3.0
RuTe2Ho6,0.0,-0.0456330999999999,,2,3.0
Dy3Ir2Pt,0.0,-0.0604397999999999,,2,3.0
Cu2ZnEu2,0.0,-0.0304719,,2,3.0
RhSmTl5,0.0,-0.0631144,,2,3.0
O3SiRu,0.0,-0.0140008,,2,3.0
Si2CrW,0.0,-0.0272369999999999,,2,3.0
NaP2Pd2,0.0,-0.0186874,,2,3.0
PPd5,0.0,-0.0293887,,2,3.0
Zn2BaBi2,0.0,-0.0451579,,2,3.0
O7Zn2Nb2,2.7193,-0.014716,,2,3.0
CuZnPd2,0.0,-0.0239747999999999,,2,3.0
CoSnTh,0.0,-0.0501623,,2,3.0
TmBi2,0.0,-0.0701648,,2,3.0
InLuPt,0.0,-0.0541743,,2,3.0
F6RhPa,0.2646,-0.0223295999999999,,2,3.0
Ga2Pu,0.0,-0.0478849,,2,3.0
Cl11Sb,1.8183,-0.0107353,,2,3.0
Co5Mo,0.0,-0.0200401999999999,,2,3.0
GaSr2Rh2,0.0,-0.0262537999999999,,2,3.0
NiCuPd2,0.0,-0.0242572,,2,3.0
B2FeMo2,0.0,-0.0209813,,2,3.0
F6RuCs3,0.0,-0.0194969,,2,3.0
YCdPt4,0.0,-0.0574515,,2,3.0
GaTa3,0.0,-0.0541781999999999,,2,3.0
H4FeHo,0.0,-0.013984,,2,3.0
N3MnSm,0.0,-0.0188669,,2,3.0
As2Pb2Pu,0.0,-0.0607493,,2,3.0
HTi2Br2,0.0,-0.0157374,,2,3.0
NaZn2Au2,0.0,-0.0342631,,2,3.0
CuGaNb,0.0,-0.0218249,,2,3.0
Zn2LaPt3,0.0,-0.0477597,,2,3.0
CuIn5Pu,0.0,-0.0418729,,2,3.0
Al4PrDy,0.0,-0.0208815,,2,3.0
LiCl6K2Er,5.0286,-0.0140374,,2,3.0
Be2NaSb2,0.0,-0.0175561,,2,3.0
Se3Pd2Cs,0.7692,-0.0279981,,2,3.0
O6MgVLa2,0.0,-0.0179964,,2,3.0
Si2FeOs,0.0,-0.0279396999999999,,2,3.0
MnPdAu2,0.0,-0.0477811,,2,3.0
NiGa2Pr,0.0,-0.0237682,,2,3.0
CaCu3,0.0,-0.0139049,,2,3.0
O6CuSr2Te,0.2428,-0.0154985,,2,3.0
O6Sr3Pt,0.0,-0.0194576,,2,3.0
BPt6Pb2,0.0,-0.0645642,,2,3.0
Br2Y2Bi,0.0,-0.0361593,,2,3.0
CaAgAu2,0.0,-0.0453963999999999,,2,3.0
S4K2Ru3,0.1907,-0.0183979,,2,3.0
LiSnBa2,0.0,-0.0298091,,2,3.0
PdHo3Ir2,0.0,-0.0547089,,2,3.0
K2Rb2Cs,0.0,-0.0191354,,2,3.0
F8Y2Sn,3.8845,-0.0147269,,2,3.0
Ni2TcIr,0.0,-0.0347259,,2,3.0
B4VDy,0.0,-0.0166082,,2,3.0
AlNbAu,0.0,-0.0371828,,2,3.0
BCoMo,0.0,-0.0202409,,2,3.0
Pd2DyBi,0.0,-0.0487788,,2,3.0
Ga5GeBa5,0.0,-0.0276613,,2,3.0
InLu2Tl,0.0,-0.0545891,,2,3.0
GeRh2Ho,0.0,-0.0348304,,2,3.0
Ga2YAc,0.0,-0.0383145,,2,3.0
F6CrLa,2.0824,-0.0140639,,2,3.0
LiO8La4Au,1.7413,-0.0240346,,2,3.0
Si2IrNp,0.0,-0.0501212,,2,3.0
Mg2ZnAu,0.0,-0.0236489,,2,3.0
S2Rb3Au,2.261,-0.0262327,,2,3.0
CaPd2Bi2,0.0,-0.0470521,,2,3.0
La3Gd,0.0,-0.0470058,,2,3.0
Li2Sn2Pb,0.0,-0.0307478,,2,3.0
S4Mn2Zn,0.0,-0.0134791,,2,3.0
PdSn2Nd,0.0,-0.0378651,,2,3.0
CaGaI,0.0,-0.0220422,,2,3.0
VOs,0.0,-0.0451026999999999,,2,3.0
F5AlCa,7.2588,-0.0090011,,2,3.0
F6KSbCs2,4.067,-0.0170016999999999,,2,3.0
O6S2CaMn2Sr4,0.0,-0.0154093,,2,3.0
O6TiCdBa2,0.0,-0.0187085,,2,3.0
CuLa5,0.0,-0.0384881,,2,3.0
CoNiSe2Tl,0.0,-0.0294333,,2,3.0
FeGeTc2,0.0,-0.0270135,,2,3.0
C2IDy2,0.0,-0.031292,,2,3.0
B2N3Cu2Tm3,0.0,-0.0241703,,2,3.0
Sc3Rh2Au,0.0,-0.0310147,,2,3.0
AlGaPr2,0.0,-0.0281749,,2,3.0
S2TlPu,0.0,-0.0516595,,2,3.0
Ca2YIn2,0.0,-0.0232491999999999,,2,3.0
Sb2PrIr,0.0,-0.0480304,,2,3.0
AgPbBi2,0.0,-0.0659281,,2,3.0
CaSbGd,0.0,-0.0362165,,2,3.0
LiO6SrTeBa,0.0,-0.0160591,,2,3.0
Ca2GeRh3,0.0,-0.0240212,,2,3.0
Al3ZnSn2Tm3,0.0,-0.0299079,,2,3.0
Mg3TbAu2,0.0,-0.0339928,,2,3.0
Co4CdPu,0.0,-0.0348849,,2,3.0
BeSiMn2,0.0,-0.0131364,,2,3.0
Mg2S8Mn3Ga,0.0,-0.0122464999999999,,2,3.0
Na2CuAs,0.576,-0.0113972999999999,,2,3.0
CClTh,0.0,-0.0393466,,2,3.0
CrCo2W,0.0,-0.0305109,,2,3.0
CoY2Tc,0.0,-0.0270936,,2,3.0
Al3RhIn2Ce3,0.0,-0.0292344,,2,3.0
LiBe2Rh,0.0,-0.011679,,2,3.0
Al3GeLa2,0.0,-0.0220763,,2,3.0
PdCdTb,0.0,-0.0374349,,2,3.0
CuAs2Nd,0.0,-0.0257389,,2,3.0
Ca21(Zn2As9)2,0.9742,-1.079816617906977,mp-1194550,2,3.0
B5Mn3Dy2,0.0,-0.0191927,,2,3.0
CrGe3Y,0.0,-0.0211572,,2,3.0
Ta2Os3,0.0,-0.0699912,,2,3.0
FeCoGaHf,0.0,-0.0290268,,2,3.0
I2Au,0.0,-0.0475585,,2,3.0
CoIn5Tm,0.0,-0.0339947,,2,3.0
S4Ca2Sn,0.6774,-0.0149462,,2,3.0
LiZn8,0.0,-0.0123377,,2,3.0
Zn2RuAu,0.0,-0.0328611999999999,,2,3.0
NiZrCd,0.0,-0.0261852,,2,3.0
Sc2Ni,0.0,-0.0152355,,2,3.0
O6Sr3W,2.9255,-0.0203431,,2,3.0
Li2AgSn2,0.0,-0.021972,,2,3.0
Er,0.0,-0.0503406999999999,,2,3.0
MgTb2Os,0.0,-0.0428227,,2,3.0
AlRbBi,0.0,-0.0358774,,2,3.0
SSe2Pr,0.0,-0.0247446,,2,3.0
Ca2MnNi2,0.0,-0.0141072,,2,3.0
NCaSe2Ta,0.0,-0.0261495,,2,3.0
ORbAg,1.4645,-0.0203303,,2,3.0
Se3RbAgDy,0.0,-0.027957,,2,3.0
H8RuCd2Eu,0.0,-0.0149666,,2,3.0
MnRh2Ta,0.0,-0.0387212,,2,3.0
B12Nb8Hf,0.0,-0.0206651999999999,,2,3.0
P3Cu4Cs,0.0,-0.0164146,,2,3.0
AlCaAu2,0.0,-0.0398067,,2,3.0
SrSnPr,0.0,-0.0345156,,2,3.0
InPt5,0.0,-0.0642962,,2,3.0
Li2N2Mn,0.2438,-0.0090501,,2,3.0
LiNa2P2,0.0,-0.0068009,,2,3.0
Al2RhLu,0.0,-0.0271334,,2,3.0
Ag4Lu,0.0,-0.0364137,,2,3.0
H4LiFe,0.0,-0.0058188,,2,3.0
CoGa6Ho,0.0,-0.0209332,,2,3.0
O6MgTiTm2,3.2444,-0.0198631999999999,,2,3.0
S3CuZrBa,0.0,-0.02069,,2,3.0
Li2Au2Tl,0.0,-0.0435539,,2,3.0
Al2FeCe,0.0,-0.0200288,,2,3.0
Ga2HoEr,0.0,-0.0336759,,2,3.0
Dy2Pt2Pb,0.0,-0.0635895,,2,3.0
CrTc8,0.0,-0.0331101,,2,3.0
LiCu2As2U,0.0,-0.0298971,,2,3.0
Co2ZrEr,0.0,-0.0292297,,2,3.0
OFSb,2.8283,-0.0175322,,2,3.0
CdSmPt4,0.0,-0.0602109,,2,3.0
Al4CuPr,0.0,-0.0153546999999999,,2,3.0
SiRh2Tm2,0.0,-0.037355,,2,3.0
RbTl4,0.0,-0.0621762,,2,3.0
Zr7Tl,0.0,-0.0359489999999999,,2,3.0
CdBa2Pt2,0.0,-0.050699,,2,3.0
Sc3Zn5,0.0,-0.0141712,,2,3.0
Si2In3Tb3Pt,0.0,-0.0375454,,2,3.0
MnAu7,0.0,-0.0629166,,2,3.0
Ga3RhSn2Er3,0.0,-0.0347783,,2,3.0
AlNi2Lu,0.0,-0.0244897,,2,3.0
Si2Ba,0.6575,-0.020227,,2,3.0
FeSe4Rh2,0.0,-0.0240932999999999,,2,3.0
FeSb2Pa,0.0,-0.0484617,,2,3.0
CaGaIr,0.0,-0.0330949,,2,3.0
CoAsLu2,0.0,-0.0378493,,2,3.0
Mg3S6In2,1.271,-0.0138278,,2,3.0
NiZn2Cd,0.0,-0.0184558,,2,3.0
KGe2As2,0.0,-0.0175843,,2,3.0
F6NaVRb2,0.0,-0.0116035,,2,3.0
CN2FTm,2.7373,-0.0186944,,2,3.0
SeHg2,0.0,-0.0521937,,2,3.0
Si2GaY2,0.0,-0.0191681,,2,3.0
BaTl3,0.0,-0.0645877,,2,3.0
CoGaPm2,0.0,-0.0307823999999999,,2,3.0
Sc2SeBr2,0.0,-0.0192707,,2,3.0
P2AgGd,0.0,-0.0285112,,2,3.0
F6FeCs3,0.0,-0.0180081,,2,3.0
ZrInTe2,0.0,-0.0352455,,2,3.0
RhPd2Te2,0.0,-0.0352231999999999,,2,3.0
Cd3Au2Pu,0.0,-0.0567888999999999,,2,3.0
O2AsIBa,2.6663,-0.0236782,,2,3.0
Ag2DyLu,0.0,-0.0418643,,2,3.0
FeTa2,0.0,-0.0505197,,2,3.0
Mg2LuPt,0.0,-0.0347417999999999,,2,3.0
SnHg2Bi,0.0,-0.0626016,,2,3.0
MgMnNi4,0.0,-0.0148721999999999,,2,3.0
Na3CsAu,0.0,-0.0240611,,2,3.0
NTi2Cd,0.0,-0.0190483,,2,3.0
H2Mg,3.4692,-0.004238,,2,3.0
Ga2Nb2Mo,0.0,-0.0271482,,2,3.0
Ag2ErPb,0.0,-0.0474782,,2,3.0
LiO2Cs,2.4888,-0.0145015,,2,3.0
CrPt4,0.0,-0.0600633,,2,3.0
ZrAg2Pb,0.0,-0.042421,,2,3.0
MgAlEr,0.0,-0.0213340999999999,,2,3.0
NiSe2Pd2,0.0,-0.0246579,,2,3.0
CSi2SrW2,0.0,-0.0321293,,2,3.0
O8NaCr3,0.293,-0.011181,,2,3.0
KCd2Pb2,0.0,-0.0443586,,2,3.0
H2NiSr2,0.0,-0.0138255,,2,3.0
SnEu2Tl,0.0,-0.0546022,,2,3.0
O5Ti2Se2Ce2,0.0,-0.0205374,,2,3.0
O2AlAg,1.522,-0.0151174,,2,3.0
Mg3Ca2,0.0,-0.0068761,,2,3.0
Mg3Al3NiGe2,0.0,-0.0105925,,2,3.0
ONaBa2,0.0,-0.0237698,,2,3.0
SiS3Pd,1.1895,-0.0149686,,2,3.0
LiMgS2Rb,3.1419,-0.0110459999999999,,2,3.0
Se3Pa,0.0,-0.0412158,,2,3.0
PNi3Zn2,0.0,-0.0146365,,2,3.0
S4CoRu,0.0,-0.0156658,,2,3.0
PmHg5,0.0,-0.0644804,,2,3.0
B7Ho3W,0.0,-0.0250816,,2,3.0
K2ZnSrBi2,0.0,-0.035503,,2,3.0
Ga5Pt2Th,0.0,-0.040498,,2,3.0
Al3Si2Tb2,0.0,-0.020117,,2,3.0
B4Fe5Tb2,0.0,-0.0198132,,2,3.0
FTl,2.7804,-0.0397582999999999,,2,3.0
KSb2Pb,0.0,-0.0398593,,2,3.0
Se8Mo6Sm,0.0,-0.0284215,,2,3.0
Al2NiSr,0.0,-0.0139418,,2,3.0
LiTe2U,0.0,-0.0459086,,2,3.0
Fe2ILu2,0.0,-0.0372098,,2,3.0
Ho6IrBi2,0.0,-0.0588121,,2,3.0
Li3O6MnCo2,0.0,-0.0100854999999999,,2,3.0
CdPrHg,0.0,-0.0479039,,2,3.0
Nd3IrO7,0.0,-3.002844181136364,mp-1198129,2,3.0
S4GeCs2Hg,1.9134,-0.0260303,,2,3.0
Mg2Si2Y,0.0,-0.0119598,,2,3.0
Ca6RhPb2,0.0,-0.0275949999999999,,2,3.0
Ag2SmLu,0.0,-0.0409988,,2,3.0
SmLuPb2,0.0,-0.0634439,,2,3.0
AlCa2Pt2,0.0,-0.0346977,,2,3.0
PdLa6Bi2,0.0,-0.050609,,2,3.0
GeMoTb,0.0,-0.0341347,,2,3.0
P2CoPa,0.0,-0.0353828,,2,3.0
AlAu2Th,0.0,-0.0613887,,2,3.0
LiCu2Pd,0.0,-0.0165368,,2,3.0
GaBrTm,0.0,-0.0305406,,2,3.0
NiRh2Dy3,0.0,-0.038649,,2,3.0
Mg4SiGe,0.0,-0.0084182,,2,3.0
Li4O12VCrW2,0.2967,-0.0153848,,2,3.0
O7RbPrTa2,2.0749,-0.0250515,,2,3.0
GaSnTe,0.0,-0.0300033,,2,3.0
H3CI,3.445,-0.0115458,,2,3.0
B7MoHo3,0.0,-0.0219284,,2,3.0
Si2NiGa3Tb3,0.0,-0.0257991999999999,,2,3.0
Na2PdSn2,0.0,-0.0229545,,2,3.0
MgZn2Se2,0.0,-0.0146831999999999,,2,3.0
S2Pd,0.4328,-0.0176869,,2,3.0
AlCoNiZn,0.0,-0.014102,,2,3.0
CuYIn2,0.0,-0.0279344,,2,3.0
GaY2In,0.0,-0.02702,,2,3.0
MnBi2Th6,0.0,-0.0837223999999999,,2,3.0
S8Ta3W,0.0,-0.0299144,,2,3.0
ScNi2,0.0,-0.0160713,,2,3.0
FeGaIr,0.0,-0.0355323,,2,3.0
TePt8,0.0,-0.0664733,,2,3.0
LiTeAu,0.0,-0.0368087,,2,3.0
Y4Tl,0.0,-0.0369364,,2,3.0
LiNiInPt,0.0,-0.0309124,,2,3.0
O4FSK3,5.4778,-0.0093125,,2,3.0
AlNi2Sr,0.0,-0.0159512,,2,3.0
P2Mn2Tm,0.0,-0.0228127999999999,,2,3.0
AlPm2Au,0.0,-0.0418394,,2,3.0
CuTeTl,0.0,-0.0417484,,2,3.0
Al4Ca3Ge2,0.0,-0.0113692,,2,3.0
O6AlBa2Er,0.0,-0.0204064,,2,3.0
BeCoRu2,0.0,-0.022909,,2,3.0
Sb3Ce,0.0,-0.0396787,,2,3.0
Ga2InAu,0.0,-0.0339234,,2,3.0
BGa2TmOs2,0.0,-0.0398111,,2,3.0
CBrDy2,0.0,-0.0324357,,2,3.0
Au3Hg,0.0,-0.0688554,,2,3.0
Be2As2Tl,0.0,-0.0243853,,2,3.0
Gd2Ni7,0.0,-0.369856725555555,mp-669713,2,3.0
PZrTe,0.0311,-0.0271357999999999,,2,3.0
O7NaAs2Pr,3.5565,-0.0140498,,2,3.0
BeSiSc,0.0,-0.0101786,,2,3.0
C2IEr2,0.0,-0.0322898,,2,3.0
PSPr,0.0,-0.0228134,,2,3.0
RhW2Os,0.0,-0.0613395999999999,,2,3.0
NiRh2Pr3,0.0,-0.0361187,,2,3.0
Be2Sc2In,0.0,-0.0144169,,2,3.0
O4FPTi,2.6114,-0.0108147,,2,3.0
NaCuGa2,0.0,-0.0131924,,2,3.0
O4ZrSn,3.232,-0.017993,,2,3.0
TeLu,0.0,-0.0475432,,2,3.0
H2CHf2,0.0,-0.0293651,,2,3.0
Cu4LaPt,0.0,-0.0293419,,2,3.0
Te2Hf6Os,0.0,-0.0585947,,2,3.0
GeSrRh2,0.0,-0.0278265,,2,3.0
LiI3Dy,0.0,-0.0333522,,2,3.0
AsNbPd,0.0,-0.0292586,,2,3.0
KZnSe3Er,2.0049,-0.0236449,,2,3.0
AgAu4Pb,0.0,-0.0639356,,2,3.0
AlW2,0.0,-0.049114,,2,3.0
NOGa2Sm6,0.0,-0.0327969,,2,3.0
Sn2Er6Pt,0.0,-0.0501627,,2,3.0
O8Cr4CoZn,0.0263,-0.0133091,,2,3.0
Na2KBa,0.0,-0.0140322,,2,3.0
CuCdSm,0.0,-0.030361,,2,3.0
SrPdIn,0.0,-0.0302145,,2,3.0
H2TcHf2,0.0,-0.0340638,,2,3.0
C2Br5Nd4,0.0,-0.0280967,,2,3.0
CuGa2Pu,0.0,-0.0396978,,2,3.0
LiMnAu2,0.0,-0.0402949,,2,3.0
O6TbBi2,0.0,-0.0284119,,2,3.0
Si2Ni2Th,0.0,-0.0305219999999999,,2,3.0
O6Rh3Hg,0.0,-0.0214956,,2,3.0
P2KCu2Th,0.0,-0.0266837,,2,3.0
Rh2TmPt,0.0,-0.0482777,,2,3.0
Al2FeTm,0.0,-0.0217554,,2,3.0
NaPS3,1.9446,-0.0094014,,2,3.0
AgBaPt4,0.0,-0.059007,,2,3.0
P2ZrW,0.0,-0.0311568,,2,3.0
Li2AgTe,0.0,-0.0189003,,2,3.0
CaAg,0.0,-0.0208638,,2,3.0
PdInEu,0.0,-0.0406229,,2,3.0
O3KTiRb,3.502,-0.0132874,,2,3.0
Tc5Os,0.0,-0.0412504,,2,3.0
O6Sr2ZrNb,0.0,-0.0178433,,2,3.0
H8FeCo2Sm,0.0,-0.0105177,,2,3.0
CaCu2Sr2,0.0,-0.0169441,,2,3.0
AsBaPt2,0.0,-0.0509805,,2,3.0
MnSeBr,0.0,-0.0201329999999999,,2,3.0
B2O6SiNi,1.376,-0.0102829,,2,3.0
F6MnTm,0.0,-0.0149682999999999,,2,3.0
HO2Mn,0.0,-0.0102963,,2,3.0
Zn2CdAu2,0.0,-0.0393941,,2,3.0
AsI2Er2,0.0,-0.0404454,,2,3.0
F6CrGe,0.0,-0.0099355,,2,3.0
RhBa,0.0,-0.0368649,,2,3.0
O3NaZrCs,3.9249,-0.0179762999999999,,2,3.0
CuNb2Pd,0.0,-0.0286903,,2,3.0
Fe3Se8,0.0,-0.0197849,,2,3.0
O5CuBaLaBi,0.0,-0.025204,,2,3.0
Ru2GdHo,0.0,-0.0447196,,2,3.0
NiIn5Pr,0.0,-0.0327523,,2,3.0
ZnSrSn2,0.0,-0.0273935,,2,3.0
F6Rb2Er,0.0,-0.0158326,,2,3.0
Ru2CdSm3,0.0,-0.0392634,,2,3.0
S3CaCuTm,1.1905,-0.0194699999999999,,2,3.0
Ni3Ba,0.0,-0.02196,,2,3.0
S2Ag2Cs,0.0,-0.0243859,,2,3.0
Mg2GaAg,0.0,-0.0146369,,2,3.0
Li2CuIr,0.0,-0.0229366999999999,,2,3.0
CuAs2Rb5,0.479,-0.0203009,,2,3.0
O8KGdW2,3.9856,-0.0239988,,2,3.0
Cd8Pb,0.0,-0.0354147,,2,3.0
Li2B2O6Mn,1.7717,-0.0092314,,2,3.0
Ag8In,0.0,-0.031604,,2,3.0
OTi3Ta,0.0,-0.0253489,,2,3.0
CoBrY,0.0,-0.0226083,,2,3.0
AlSnPa,0.0,-0.0478221,,2,3.0
O5Ba2Gd2,1.6331,-0.0285301,,2,3.0
Mg3CaAg2,0.0,-0.0147927,,2,3.0
O6MgNiDy2,1.4721,-0.0182947,,2,3.0
MgTiAu2,0.0,-0.0405062,,2,3.0
Sc3Pd2Os,0.0,-0.0309348,,2,3.0
ScYBi,0.0,-0.0409782,,2,3.0
Zn2LaDy,0.0,-0.0298529,,2,3.0
FeNi5Sb,0.0,-0.0195391,,2,3.0
Ge2RuIn3Tm3,0.0,-0.0372092,,2,3.0
CuSn5Pu,0.0,-0.0435879,,2,3.0
NEr,0.0,-0.031914,,2,3.0
BSi2Hf6,0.0,-0.0454427,,2,3.0
Pd2AuNp,0.0,-0.0606729,,2,3.0
GePd2Ba,0.0,-0.0317922,,2,3.0
Mg2PFe3,0.0,-0.0126584,,2,3.0
O7P2Eu2,0.2064,-0.0185608,,2,3.0
Se2Br6Pd,1.2744,-0.021305,,2,3.0
Cu2ZnIr,0.0,-0.0288437,,2,3.0
HLiSr2Cd,0.0,-0.0165067,,2,3.0
CuYSb,0.0,-0.0275847,,2,3.0
Ga2Nb2Pt,0.0,-0.0343766999999999,,2,3.0
NaSSb,0.0037,-0.0177265,,2,3.0
F6MgLu,0.0,-0.0136610999999999,,2,3.0
Y2RhIn,0.0,-0.0314408,,2,3.0
KSr2Tl,0.0,-0.0316046,,2,3.0
RhTb2Ir,0.0,-0.0505863,,2,3.0
AlRhLa,0.0,-0.0291465999999999,,2,3.0
SiFe3Tm2,0.0,-0.0283674,,2,3.0
CuCdEr,0.0,-0.0323471,,2,3.0
F6PdTb,0.2228,-0.0154303,,2,3.0
BeSc5,0.0,-0.0125595,,2,3.0
Ni2RuPr3,0.0,-0.0330212999999999,,2,3.0
CaNiSn3,0.0,-0.0271644,,2,3.0
SScAs,0.0,-0.0162153,,2,3.0
CuZnAs2Lu,0.0,-0.0255982999999999,,2,3.0
CaNi2Sn,0.0,-0.0198316,,2,3.0
Sc3Ir2Hg,0.0,-0.043243,,2,3.0
F8Na2BaDy,0.0,-0.0137399,,2,3.0
SiLuAu,0.0,-0.0458117,,2,3.0
GeSe7Sb4,0.2904,-0.0259545999999999,,2,3.0
ZnRh2Pb,0.0,-0.0393426,,2,3.0
Ni2BrTb2,0.0,-0.029953,,2,3.0
Li3O8Mn4Sb,0.0,-0.0123904,,2,3.0
Rb3Hg,0.0,-0.0326434,,2,3.0
Ni2RhTe4,0.0,-0.0310691999999999,,2,3.0
TcRe5,0.0,-0.0650953,,2,3.0
LiO6Ba2Os,0.0,-0.0212671,,2,3.0
PFeRb,0.0,-0.0168,,2,3.0
NAgLa2,0.0,-0.0326458,,2,3.0
H3CuHo,0.0,-0.0154262,,2,3.0
Ca3Ga3Sn2Au,0.0,-0.0249837999999999,,2,3.0
KTe2Au,0.6159,-0.0386447,,2,3.0
PCuSe3Cs,0.9098,-0.0211664,,2,3.0
CaLaTl,0.0012,-0.0423112,,2,3.0
O2SiTc,0.0,-0.0155888,,2,3.0
LiO8CuLa4,0.7548,-0.0202226,,2,3.0
O6CuBa2Pb,0.0,-0.0223785,,2,3.0
Mg2KBi2,0.0,-0.0354786,,2,3.0
PFeNb,0.0,-0.0213689,,2,3.0
MgGe2Os,0.0,-0.028984,,2,3.0
Cu3Te2Cs,1.0431,-0.0266105,,2,3.0
RbInTe2,1.0536,-0.0329733,,2,3.0
ZnPdHo2,0.0,-0.0367884,,2,3.0
O5MgTi2,2.7255,-0.0117846,,2,3.0
Fe5Nb,0.0,-0.0206729999999999,,2,3.0
Ge2Sr2Tl,0.0,-0.0315553,,2,3.0
O6MgGeY2,4.8999,-0.014842,,2,3.0
MnRhAu2,0.0,-0.047896,,2,3.0
Al4Si2Lu3,0.0,-0.0246621,,2,3.0
GaPd2Ce,0.0,-0.0324489,,2,3.0
C3S6TiTa6,0.0,-0.0325173,,2,3.0
O7Ge2SrTb,0.2392,-0.0161521,,2,3.0
B4Co2Re5,0.0,-0.0383464,,2,3.0
Al3Nd2,0.0,-0.0225187,,2,3.0
Al2CrPt,0.0,-0.0268638,,2,3.0
ZrSnPt,1.0102,-0.0469177,,2,3.0
Ge4AgPt2,0.0,-0.0357735,,2,3.0
BNi6Tm2,0.0,-0.0236057,,2,3.0
CaScCu4,0.0,-0.0142502999999999,,2,3.0
Sn2Ba,0.0,-0.0378161,,2,3.0
H6LiO6Al2Br,4.8286,-0.007882,,2,3.0
O3SnHf,2.2484,-0.026203,,2,3.0
AlErPt2,0.0,-0.051042,,2,3.0
B2TmOs3,0.0,-0.047483,,2,3.0
PRbCs2,0.0407,-0.0269739,,2,3.0
CrNi2Pd,0.0,-0.0209139,,2,3.0
Rh2InSm2,0.0,-0.0388091,,2,3.0
Se8Mo6Pb,0.0,-0.0302631,,2,3.0
Te2PrTl,0.2682,-0.0487308,,2,3.0
Al3Ge2Sm3Os,0.0,-0.0304531,,2,3.0
GaNbPd,0.0,-0.0279131,,2,3.0
CoNi2Tm3,0.0,-0.0346008,,2,3.0
GeTeIr,0.6158,-0.0429147,,2,3.0
CdAu2Pb,0.0,-0.0612629,,2,3.0
CuGaPt2,0.0,-0.0435103,,2,3.0
Cd2PtTh,0.0,-0.0574212,,2,3.0
PS4K2Au,1.2082,-0.0177569,,2,3.0
Sc3Co2Zn,0.0,-0.0155531,,2,3.0
SiMnRe,0.0,-0.0333817999999999,,2,3.0
NaAlAu,0.0,-0.0275966,,2,3.0
ZnTbTl,0.0,-0.0446906,,2,3.0
Be2Au,0.0,-0.0262564,,2,3.0
NiZn2Pd,0.0,-0.0193399,,2,3.0
FeGaRuIr,0.0,-0.0354808999999999,,2,3.0
Al4ScIr,0.0,-0.0201319,,2,3.0
F6CaSb,0.0,-0.0114673,,2,3.0
K2CdTe4,0.4939,-0.0286486,,2,3.0
OClSr,3.3318,-0.0145382999999999,,2,3.0
Na2RbBa,0.0,-0.0171168,,2,3.0
GaHg2Pb,0.0,-0.0569717,,2,3.0
Rb2Au,0.0,-0.0371368,,2,3.0
SiYOs,0.0,-0.0373716999999999,,2,3.0
Na2CaAu2,0.0,-0.0318173,,2,3.0
Ca2Pd2Tl,0.0,-0.0321573,,2,3.0
CoGa5Sm,0.0,-0.0209912999999999,,2,3.0
Cl4Pd,0.7085,-0.0133468,,2,3.0
Ga3Ru2Pt,0.0,-0.0319337,,2,3.0
CdPr2Ir2,0.0,-0.0525447,,2,3.0
Br8In2Au,0.2024,-0.027141,,2,3.0
B2TiMo,0.0,-0.0172815,,2,3.0
FeRh2Pr2,0.0,-0.0350146999999999,,2,3.0
TlBi3,0.0,-0.0768893,,2,3.0
NiZrIn2,0.0,-0.0287627,,2,3.0
O2MnPt,0.0,-0.0266609,,2,3.0
CuTe3TaTl,0.0,-0.0445242999999999,,2,3.0
Br6PtTl2,0.8807,-0.0375073,,2,3.0
Se2Au,0.0,-0.0365013,,2,3.0
Na2SiSe4Sn,1.5032,-0.0176497,,2,3.0
SrLa2Au2,0.0,-0.050177,,2,3.0
F4Ir,0.0,-0.0185377,,2,3.0
Mg2Tm,0.0,-0.0206444,,2,3.0
N2NdEr,0.0,-0.0299554,,2,3.0
CdBaLa,0.0,-0.03789,,2,3.0
Li2NiGe,0.0,-0.0103899,,2,3.0
CdHf2Au2,0.0,-0.0594063,,2,3.0
O6ClAs4Rb,3.3178,-0.0136996,,2,3.0
O4CsRe,4.1857,-0.0242711,,2,3.0
O8AgHoW2,1.9302,-0.0248513,,2,3.0
NaCu2TmBi2,0.0,-0.0409868,,2,3.0
CBrPr,0.0,-0.0255093999999999,,2,3.0
O4NbU,0.0,-0.0298739,,2,3.0
ScGaRh,0.0,-0.0224447,,2,3.0
PdCeHg,0.0,-0.0492216,,2,3.0
ZnOsTh,0.0,-0.0607862999999999,,2,3.0
RuSb2Tb,0.0,-0.0397736999999999,,2,3.0
Al2ZnSm2,0.0,-0.0239904,,2,3.0
As2RbIn2,0.0,-0.0259587,,2,3.0
B6Fe2Eu,0.0,-0.0153514,,2,3.0
MnAuPu2,0.0,-0.0770869,,2,3.0
NDy2Tl,0.0,-0.0455183,,2,3.0
F3MgCs,6.8734,-0.0141105,,2,3.0
LiNiZnGa,0.0,-0.012478,,2,3.0
SiMnSr,0.0,-0.0172382,,2,3.0
SiCl3Nd3,0.0,-0.0252959,,2,3.0
Mg7Sb,0.0,-0.009095,,2,3.0
Al2Co2Ho,0.0,-0.0201997,,2,3.0
LiHgPb2,0.0,-0.0557331,,2,3.0
MnZn4Se5,0.6465,-0.0180879,,2,3.0
B2O6Sr3,4.5467,-0.0139519,,2,3.0
CuSe3SrPr,0.889,-0.0252378,,2,3.0
HLiO4Te,1.6066,-0.0110289,,2,3.0
Sc2Sb,0.0,-0.0227656,,2,3.0
Ca3Nd,0.0,-0.0180309,,2,3.0
OCa4As2,1.1079,-0.0140953,,2,3.0
Ge2Y3AgIn3,0.0,-0.0288065999999999,,2,3.0
LiCu2Ir,0.0,-0.0260906999999999,,2,3.0
AlSiGd,0.0,-0.0261511,,2,3.0
B2CPrIr2,0.0,-0.0357417,,2,3.0
SiCl3Y3,0.0,-0.018535,,2,3.0
As2Pd2Er,0.0,-0.0321231,,2,3.0
O3NaFe2,0.0,-0.011492,,2,3.0
B2O7CaFe2,0.7113,-0.0110349,,2,3.0
O6NiRhEr2,0.1681,-0.0213066,,2,3.0
As2Zr3,0.0,-0.0276728999999999,,2,3.0
GaY2Pt,0.0,-0.0366205,,2,3.0
HTi3Ag,0.0,-0.0167424,,2,3.0
Ga2Ge2Ba,0.0,-0.0224656,,2,3.0
NiCdLu,0.0,-0.0343656,,2,3.0
Si7Co2Th3,0.0,-0.0332927,,2,3.0
O6K5W,0.0,-0.0142705,,2,3.0
MnGeCe,0.0,-0.0278937,,2,3.0
SAsU,0.0,-0.0455762,,2,3.0
BeScPt,0.0,-0.0306179,,2,3.0
N3TbW,1.0615,-0.0300599,,2,3.0
LuPt7,0.0,-0.0689043999999999,,2,3.0
Si5Nd4,0.0,-0.0256391999999999,,2,3.0
AsI2,1.0045,-0.0313476,,2,3.0
In3Ir2Th3,0.0,-0.0670569,,2,3.0
Ni2SnDy,0.0,-0.0295712,,2,3.0
O12AlTe3Cs2,0.0,-0.0165581,,2,3.0
AgSnDy,0.0,-0.0390654,,2,3.0
S4Rb2Rh3,0.0,-0.0209493,,2,3.0
S6Ta2Au,0.0,-0.0296953,,2,3.0
Cl6KRhCs2,1.6799,-0.0182647,,2,3.0
F8Na2CaSm,0.0,-0.0110159,,2,3.0
BeCrFe,0.0,-0.0135984,,2,3.0
LiRh5,0.0,-0.0285827,,2,3.0
B2Fe3Pa,0.0,-0.0284785,,2,3.0
AlSi2U2,0.0,-0.0471104,,2,3.0
Si2Rh2Ho,0.0,-0.028557,,2,3.0
Zn2GaEr2,0.0,-0.0293142,,2,3.0
H2Nb3Sn,0.0,-0.0239961,,2,3.0
S2HfTl,0.0,-0.0398763,,2,3.0
Co3Ir,0.0,-0.0307443999999999,,2,3.0