formula,bg,formation_energy,mp-id,fidelity,bg_category
H6Ni5La,0.0,-0.0122964,,2,3.0
Si3Ni2U,0.0,-0.0280978,,2,3.0
O4Cu2As2Se2Pr,0.0,-0.0176946,,2,3.0
ZnTlAc2,0.0,-0.0671234,,2,3.0
RhIn5Tm,0.0,-0.0365739,,2,3.0
NaNi4Sb2,0.0,-0.0206919,,2,3.0
P2Ru2Cs,0.0,-0.0263756,,2,3.0
CoPd3,0.0,-0.0289125,,2,3.0
B2O6SmPb,0.0,-0.0197718,,2,3.0
CaZnGa2,0.0,-0.0144072,,2,3.0
MnAg2I4,1.2336,-0.0330257999999999,,2,3.0
ZnAu8,0.0,-0.0630429,,2,3.0
Be2ScRu,0.0,-0.0148515,,2,3.0
CoGa2La,0.0,-0.0237724,,2,3.0
Al9KPd2,0.0,-0.0123581,,2,3.0
Zn3TmAu2,0.0,-0.0390353,,2,3.0
V2Co9Mo,0.0,-0.0187548,,2,3.0
LiMnZnGa,0.0,-0.0129369,,2,3.0
Ti3Br7Te,0.4359,-0.0214483,,2,3.0
SSeTa4,0.0,-0.0498819999999999,,2,3.0
Y2SnI2,0.0,-0.034292,,2,3.0
La2Tl2Pb,0.0,-0.0619884,,2,3.0
Te3BaDyAu,0.4211,-0.0460942,,2,3.0
CoSn2Lu,0.0,-0.036507,,2,3.0
NOGe2Sr6,0.0,-0.0198567,,2,3.0
N2Sn3Ho7,0.0,-0.040247,,2,3.0
F3Sb,4.3521,-0.0143767999999999,,2,3.0
Rh2Dy2Tl,0.0,-0.0478904,,2,3.0
RuIn2,0.0,-0.0339909,,2,3.0
Mg6Ge3La2,0.0,-0.0162296,,2,3.0
N3Ge2Rb,1.425,-0.0146561,,2,3.0
AlPr,0.0,-0.0259731,,2,3.0
CoBrNd,0.0,-0.0277961,,2,3.0
RhSn5Er,0.0,-0.038007,,2,3.0
LiTe2,0.4866,-0.0261513,,2,3.0
BCaPd3,0.0,-0.0236987,,2,3.0
Li2Sb2Cs,0.0,-0.0239307,,2,3.0
PRhEr,0.0,-0.0329011,,2,3.0
O8RbRu4,0.0,-0.0174046,,2,3.0
SbTe3Pr4,0.0,-0.0418519,,2,3.0
Al5FeCe,0.0,-0.0148103,,2,3.0
Sc3RhOs2,0.0,-0.0374341,,2,3.0
Cu2BiAc,0.0,-0.050091,,2,3.0
NaPEu,0.043,-0.0237161,,2,3.0
MgAl2Sc,0.0,-0.0090272,,2,3.0
Al3Ga2RhHo3,0.0,-0.0271971999999999,,2,3.0
MgZn2Pd2,0.0,-0.0200137999999999,,2,3.0
Ni2As2Er,0.0,-0.0254677,,2,3.0
Cl6CuRb2Mo,0.6836,-0.0153786,,2,3.0
NiGa2Ho,0.0,-0.0252129,,2,3.0
CaPdTl,0.0,-0.0389103,,2,3.0
O7Cu2Ba2NdTl,0.0,-0.0227248,,2,3.0
As2Ce6Ir,0.0,-0.0429951,,2,3.0
H2Cr,0.0,-0.0084011,,2,3.0
ScCo2Ge,0.0,-0.0174494,,2,3.0
LiP2Pd2Ba,0.0,-0.0222401,,2,3.0
SeSr2I2,2.7939,-0.0296614,,2,3.0
PmSmIr2,0.0,-0.0584221,,2,3.0
ClSr2Tl,0.0,-0.0325188,,2,3.0
PTc,0.0,-0.0233468,,2,3.0
Co2CdTh2,0.0,-0.05152,,2,3.0
ZnCdTb,0.0,-0.0306771999999999,,2,3.0
I2Th,0.0,-0.0575515,,2,3.0
O6Ca2NdTa,3.4376,-0.020034,,2,3.0
Cl6ScCs2,0.0,-0.0173277,,2,3.0
Se2AgIn,0.0595,-0.0266954,,2,3.0
MnSe4Pd3,0.0,-0.0248656,,2,3.0
Mn2ILa2,0.0,-0.0322755,,2,3.0
F2CdHg,0.0,-0.0280737,,2,3.0
B2O6ClBa2Ho,4.109,-0.0188979,,2,3.0
LiAl4Tm,0.0,-0.0145089,,2,3.0
ScMo4Ta,0.0,-0.0367453,,2,3.0
Rh2TbBi,0.0,-0.0487871999999999,,2,3.0
O4CuSr2Hg,0.0,-0.0209567,,2,3.0
RbPdCd3,0.0,-0.0291518,,2,3.0
ClITl2,1.4037,-0.048182,,2,3.0
Cu2InPr2,0.0,-0.0304874,,2,3.0
K2Pt3,0.0,-0.045699,,2,3.0
GaCdTb2,0.0,-0.0356162,,2,3.0
Ni2Ga2Ba,0.0,-0.021276,,2,3.0
Cu2Ir3,0.0,-0.0486736,,2,3.0
O8AlCuSrNd3,0.1529,-0.0192668,,2,3.0
Cu2Ag,0.0,-0.0205148,,2,3.0
SiHgAc2,0.0,-0.0652775,,2,3.0
HLiTe,1.8622,-0.0148339,,2,3.0
AlHoAu,0.0,-0.0430269,,2,3.0
YLuPb2,0.0,-0.0592834999999999,,2,3.0
BTa2Os6,0.0,-0.0638583,,2,3.0
Zn5Ag3,0.0,-0.0202135,,2,3.0
MnTc8,0.0,-0.0331283,,2,3.0
Zn2Ga2Pu,0.0,-0.0341707,,2,3.0
OLa3Hg,0.0,-0.0423125,,2,3.0
TiFeGa5,0.0,-0.0168618,,2,3.0
CuTaIr2,0.0,-0.0565390999999999,,2,3.0
Ce2Tl,0.0,-0.0541511,,2,3.0
LiGa2In,0.0,-0.017215,,2,3.0
O2F2ClK,3.6988,-0.0071325,,2,3.0
SZn2Te,1.4507,-0.0191515,,2,3.0
O4K3Mn,1.2663,-0.0104147,,2,3.0
Co3Nb2Os,0.0,-0.0317939,,2,3.0
Ge2YRu,0.0,-0.0259778,,2,3.0
S3NiRb2,0.0468,-0.0152109,,2,3.0
O3Cu2Cd,0.0,-0.0141093,,2,3.0
TiFe,0.0,-0.0174551,,2,3.0
Co2Zn,0.0,-0.0160304,,2,3.0
O6TiZnBa2,0.0,-0.0170988,,2,3.0
AgSbNp,0.0,-0.0585679999999999,,2,3.0
BIr6Th2,0.0,-0.0703239,,2,3.0
PZnHo,0.0,-0.0252135,,2,3.0
S3NiTmPb,0.0,-0.0299476,,2,3.0
O6AlBa2Lu,0.0,-0.0209375,,2,3.0
Co2ZnSm2,0.0,-0.027541,,2,3.0
CuY,0.0,-0.021843,,2,3.0
GePdSm,0.0,-0.0331444,,2,3.0
S3KMnTb,0.1172,-0.0188207,,2,3.0
F7Na3Os,0.0087,-0.0123372,,2,3.0
B2Mn2Hf,0.0,-0.0234201,,2,3.0
As2AuPb2,0.0,-0.052236,,2,3.0
RuHo2,0.0,-0.0447457,,2,3.0
CoILu,0.0,-0.0372666,,2,3.0
GaRuPr,0.0,-0.031977,,2,3.0
CdSb2Cs2Ba,0.3644,-0.0373837,,2,3.0
SiBa,0.0,-0.025244,,2,3.0
F4K2Cr,0.0,-0.0098964999999999,,2,3.0
SbTbHo,0.0,-0.0451944,,2,3.0
RhOsIr,0.0,-0.0589291,,2,3.0
CSi3Tb5,0.0,-0.0311024999999999,,2,3.0
AlGe5Hf3,0.0,-0.0329011,,2,3.0
BrCd2Cs2,0.0,-0.0319595,,2,3.0
AlAg2Ho,0.0,-0.0302725,,2,3.0
Ga2Ag3Ba,0.0,-0.0279403,,2,3.0
F6NaRb2Hg,0.0,-0.0157927,,2,3.0
Sc6CoGa2,0.0,-0.0154674,,2,3.0
Si2RhCe,0.0,-0.0255917999999999,,2,3.0
Ni4CdPa,0.0,-0.0327567999999999,,2,3.0
SrAu4,0.0,-0.0603244,,2,3.0
As2Se6SnTl2,0.4637,-0.0313492,,2,3.0
Al3PtNp2,0.0,-0.0517256,,2,3.0
Si3CuTb2,0.0,-0.0239116,,2,3.0
O5Ti2Se2Tb2,0.0228,-0.0209983,,2,3.0
H2O5MnAs,0.5863,-0.0100001,,2,3.0
Ga5RuNp,0.0,-0.0322454999999999,,2,3.0
Fe2YTa2,0.0,-0.039468,,2,3.0
GaAgHo,0.0,-0.0328335,,2,3.0
Al4PrAu,0.0,-0.0245337999999999,,2,3.0
Cu2CdIn,0.0,-0.0235214,,2,3.0
P2ZnAgSm,0.1084,-0.0227974,,2,3.0
CCo2Ge2Nd2,0.0,-0.0248876,,2,3.0
CBr5Sm4,0.0,-0.0301603,,2,3.0
ClBr2Rb3,4.3468,-0.0201976,,2,3.0
Si2Ca2Ag,0.0,-0.0145133,,2,3.0
BaTl2Bi2,0.0,-0.0687287,,2,3.0
Al3GePr2,0.0,-0.0221501,,2,3.0
Zn2SrPm,0.0,-0.0235859,,2,3.0
ScNi4Pb,0.0,-0.0260259,,2,3.0
Li2Pd2Hg,0.0,-0.0280507999999999,,2,3.0
Zn3La2,0.0,-0.0257146,,2,3.0
CaSe2Ag,0.0,-0.0213796,,2,3.0
Fe2(Se2O5)3,0.709399999999999,-1.314964074307065,mp-555589,2,3.0
Si3RuHo,0.0,-0.0234681,,2,3.0
Ru2PbTh2,0.0,-0.0680151,,2,3.0
Si2CuAu,0.0,-0.0261362999999999,,2,3.0
CuPtAc2,0.0,-0.0672295,,2,3.0
SiNi2Sr,0.0,-0.0166613,,2,3.0
Ge3CeIr,0.0,-0.035393,,2,3.0
S2AgAu,0.0,-0.03007,,2,3.0
AsBr6Cs3,2.9013,-0.0264103,,2,3.0
P2S6SbTl,1.6987,-0.0191886,,2,3.0
Al3Sc2,0.0,-0.0107951,,2,3.0
Li8N2Te,2.3782,-0.0075045,,2,3.0
AlRh2Pa2,0.0,-0.0556747999999999,,2,3.0
CoOs2U2,0.0,-0.0736653,,2,3.0
Cl10Sr4Ba,5.0832,-0.0166762,,2,3.0
N2FePr2,0.0,-0.0259055,,2,3.0
OCa3Pb,0.0,-0.0239909,,2,3.0
BO3NaCd,2.2611,-0.0121386,,2,3.0
GaLaPt2,0.0,-0.0511096999999999,,2,3.0
N3MnEu,0.0,-0.0206463,,2,3.0
ZnSnPa,0.0,-0.0498109,,2,3.0
CuSe3BaSm,0.7802,-0.0283509,,2,3.0
SeBr7Ta3,0.7148,-0.0333277,,2,3.0
ScGa2,0.0,-0.0163275,,2,3.0
SiMoOs,0.0,-0.0392652,,2,3.0
Co2CeLu,0.0,-0.0338244,,2,3.0
ONa2As2Zr2,0.0,-0.0180724,,2,3.0
AgTb2Ir,0.0,-0.0497221,,2,3.0
CdAu4Tl,0.0,-0.0632688,,2,3.0
FeZnPa,0.0,-0.0438126,,2,3.0
CaY2La2,0.0,-0.0302338999999999,,2,3.0
Mg2GeRu2,0.0,-0.0200709,,2,3.0
SiHoOs,0.0,-0.0444433,,2,3.0
C2Ca2I,0.0,-0.0159147,,2,3.0
CoIn4Tm,0.0,-0.0339848,,2,3.0
MnSb2Ho6,0.0,-0.0435998,,2,3.0
CdInNp,0.0,-0.0568078,,2,3.0
SnLu,0.0,-0.0463482,,2,3.0
Al3Sn2Tm3Re,0.0,-0.0363383,,2,3.0
ClK2Ag,1.054,-0.0149789,,2,3.0
AlGaDy,0.0,-0.02462,,2,3.0
TiGeCe,0.0,-0.0272246999999999,,2,3.0
NHf2Tl,0.0,-0.0528138,,2,3.0
Mg2Si2Fe,0.0,-0.0097604,,2,3.0
ClTb,0.0,-0.0290393,,2,3.0
K3Se4Ta,1.9344,-0.0227635,,2,3.0
NAlNb3,0.0,-0.0240080999999999,,2,3.0
Mg2Sb2Pr,0.0,-0.0262867,,2,3.0
ClAgTe2,0.0,-0.0287104,,2,3.0
O7Si2CaNd,0.0,-0.0137268,,2,3.0
CuSe3RbIn,0.0,-0.022243,,2,3.0
Sb2I9Cs3,1.5202,-0.0380187,,2,3.0
Mg8CaCu4,0.0,-0.0085896,,2,3.0
Li4O8V3,0.0,-0.0099528,,2,3.0
Li2NiSn2,0.0,-0.0189429,,2,3.0
CoZn2Dy,0.0,-0.0232136,,2,3.0
Ag3AsF12,0.099399999999999,-1.8012610570312502,mp-1229185,2,3.0
H8Mg2FeEr,0.0,-0.0092071,,2,3.0
In4BaTl,0.0,-0.0411698999999999,,2,3.0
Li2BNi2,0.0,-0.009124,,2,3.0
O7Sr2Sb2,1.4966,-0.0171282,,2,3.0
Cl4Rb2Au,0.0,-0.02178,,2,3.0
Ni2Ga3Nd,0.0,-0.0214544999999999,,2,3.0
Si2AgGd,0.0,-0.0280191,,2,3.0
GeSrHg,0.0,-0.037162,,2,3.0
AlCo8Zr3,0.0,-0.0201331999999999,,2,3.0
O7Cr2Ho2,0.1954,-0.0191921,,2,3.0
LiF4Ca,0.6943,-0.0074211,,2,3.0
In2EuEr,0.0,-0.0432796,,2,3.0
As4Rh6La,0.0,-0.030518,,2,3.0
SiCu2Te3,0.1662,-0.0254343,,2,3.0
Al6PdLa,0.0,-0.0158871,,2,3.0
Na2AlCd,0.0,-0.0116525,,2,3.0
Ca2CdBi2,0.0,-0.0421257,,2,3.0
Ca2Ga3Ir2,0.0,-0.0308119,,2,3.0
O6Sr2InSb,1.8482,-0.0176722,,2,3.0
ZnSm,0.0,-0.0293684,,2,3.0
O4K2Np,0.1991,-0.0239113,,2,3.0
ZnGa2Sn,0.0,-0.0203534,,2,3.0
S4SnBi2,0.4646,-0.0333877999999999,,2,3.0
Ru2Dy2Tl,0.0,-0.0479127,,2,3.0
GeEu2,0.0,-0.0427438999999999,,2,3.0
ZrRu2Lu,0.0,-0.0396790999999999,,2,3.0
BCYIr,0.0,-0.0297545,,2,3.0
Na2KAu2,0.0,-0.0313895,,2,3.0
O6Mg2FeW,0.0,-0.01591,,2,3.0
Rh2LaHg,0.0,-0.0452022,,2,3.0
Ge2PdEu,0.0,-0.0319386,,2,3.0
NCo4,0.0,-0.0156226,,2,3.0
Al3Co14Pr2,0.0,-0.0185985,,2,3.0
Ni2PdHf,0.0,-0.0325595,,2,3.0
BFe2Ga2Sm,0.0,-0.0205531,,2,3.0
AlSiZr2,0.0,-0.0205642,,2,3.0
B6Mn5,0.0,-0.0128618,,2,3.0
Zr2Ir2Au,0.0,-0.0554395,,2,3.0
CaI4Eu,0.6195,-0.0368218,,2,3.0
ZnAsPt5,0.0,-0.0553373,,2,3.0
Mg2AlIn,0.0,-0.0128498,,2,3.0
F3Ag2,0.0,-0.0158272,,2,3.0
BN3Ba3,0.3211,-0.0229879,,2,3.0
Ba2Fe2O5,0.0,-2.299320453968254,mp-1196071,2,3.0
Ag2HoTm,0.0,-0.0412869,,2,3.0
Al7Cu2Tb3,0.0,-0.0192928,,2,3.0
C4N4K2Pd,3.8116,-0.0117334,,2,3.0
N3LaW,0.9527,-0.0293474,,2,3.0
F6SrRu,0.0,-0.0126029,,2,3.0
O6MgPdEu2,0.0,-0.0205612999999999,,2,3.0
RuTm6Tl2,0.0,-0.0549786,,2,3.0
Zr2RePt,0.0,-0.0514987,,2,3.0
SiCa2Cu3,0.0,-0.0127105999999999,,2,3.0
Li4Sb4Th3,0.0,-0.041273,,2,3.0
Cl8Rb2PdHg2,1.7052,-0.0222711,,2,3.0
Cu4Ga2Tm3,0.0,-0.0281241,,2,3.0
LiAlZn4,0.0,-0.0108194,,2,3.0
ScCoPt2,0.0,-0.0439249,,2,3.0
Ge2Ho2Hg,0.0,-0.0416501,,2,3.0
GaSn3Ba4,0.0,-0.0360106,,2,3.0
O6MnTa2,0.8275,-0.0238446,,2,3.0
Pd2In3Tb3,0.0,-0.0391047999999999,,2,3.0
F6KRb2Er,6.3566,-0.0156922,,2,3.0
N2NiTc,0.0,-0.0174766,,2,3.0
CN2Cl2Ba2,3.9185,-0.0194549999999999,,2,3.0
B2Ru3Hf,0.0,-0.0308515,,2,3.0
Al2Pd3Sm,0.0,-0.0273973,,2,3.0
N2OCeTa,0.0,-0.0293168,,2,3.0
HBr2Tm,3.6022,-0.0252205,,2,3.0
B6Pr,0.0,-0.0131164,,2,3.0
Li5O8V2Cr2,0.0,-0.0102138,,2,3.0
Al3CoSn2Dy3,0.0,-0.0290887,,2,3.0
S4CaAs2,1.0729,-0.0133972,,2,3.0
KSn6Pt4,0.0,-0.0463564,,2,3.0
O8Ti3Ge,2.3395,-0.0126662,,2,3.0
InTbPb2,0.0,-0.0583416,,2,3.0
Be4NiRh,0.0,-0.011701,,2,3.0
O6PdBa2La,0.0,-0.021575,,2,3.0
LiMnNiGa,0.0,-0.0136694,,2,3.0
CdPt2Hg,0.0,-0.0598864,,2,3.0
GaSb2Tl,0.0,-0.0408443,,2,3.0
H8Mg2BaIr,0.0,-0.0128336,,2,3.0
LiCdAu,0.0,-0.0344357,,2,3.0
Cl2Cd,3.5327,-0.0167142,,2,3.0
Al4MnBa,0.0,-0.0150543,,2,3.0
NFeCo3,0.0,-0.0159,,2,3.0
Al3Ni2Pd,0.0,-0.0155741,,2,3.0
SiSe3In,0.7934,-0.0212902,,2,3.0
Mg2CeEr,0.0,-0.0262197999999999,,2,3.0
Si4Pd4LaCe,0.0,-0.0268571999999999,,2,3.0
CuRbIn2,0.0,-0.0257745999999999,,2,3.0
Ge2PdSn3Tb3,0.0,-0.0361939,,2,3.0
LiSe2Tb,1.2848,-0.0242313,,2,3.0
Y5Os,0.0,-0.0353135,,2,3.0
O7P2Ge,4.1589,-0.0105884,,2,3.0
O4PrNp,0.0,-0.0326317,,2,3.0
ZnSnTb,0.0,-0.0327094999999999,,2,3.0
GeZrRu,0.0,-0.0291302,,2,3.0
CF3Cl,6.7333,-0.0071947,,2,3.0
ZnPdAu2,0.0,-0.0464838,,2,3.0
NInTm3,0.0,-0.0408684999999999,,2,3.0
Cu4Ge2Hf3,0.0,-0.0323992,,2,3.0
CrMo2W,0.0,-0.0394143,,2,3.0
CoCuBr4,0.0,-0.0188137,,2,3.0
LiRh7,0.0,-0.0299172,,2,3.0
SiCl2Pa2,0.0,-0.0461619,,2,3.0
Mg2CaCu4,0.0,-0.0115789,,2,3.0
Pd2Tm3Pt,0.0,-0.0497425,,2,3.0
MnY6Sb2,0.0,-0.0295549,,2,3.0
BeFe2Cu,0.0,-0.0140114,,2,3.0
TiNiZn2,0.0,-0.0150871999999999,,2,3.0
B2ScMo2,0.0,-0.0202036,,2,3.0
Pd2SmPu,0.0,-0.0555195,,2,3.0
BMg2Ir2,0.0,-0.0324442,,2,3.0
GeAsW,0.0,-0.0363283,,2,3.0
HRb3Te,2.6702,-0.0213988,,2,3.0
HCe,0.0,-0.0243655,,2,3.0
Nd2Bi,0.0,-0.0560622,,2,3.0
Ca3Co4Ga2,0.0,-0.0146841,,2,3.0
Mg3Au2,0.0,-0.0313634999999999,,2,3.0
HZrIr3,0.0,-0.0501538,,2,3.0
O6MgBa2Os,0.0,-0.0217459999999999,,2,3.0
IPb2Bi2,0.0,-0.069218,,2,3.0
LiF6Cs2Bi,4.7545,-0.0205622,,2,3.0
Li5O8Mn4,0.0,-0.0100199,,2,3.0
B2N3Pd2Tb3,0.0,-0.0262197999999999,,2,3.0
C2Cl5Ca4,0.0,-0.0108393,,2,3.0
B2HoOs2,0.0,-0.042071,,2,3.0
Zr2CdAu2,0.0,-0.0467097,,2,3.0
GaPr2,0.0,-0.0348027999999999,,2,3.0
B4HfTa,0.0,-0.0273595,,2,3.0
Ni2Ga2Nd,0.0,-0.0223434,,2,3.0
H4KIn,3.8869,-0.0093638,,2,3.0
CaNiAs,0.0,-0.0162144,,2,3.0
Co4Ga2Tm3,0.0,-0.0289521,,2,3.0
F6ErPb,0.0,-0.0215478,,2,3.0
Pd2SnTm,0.0,-0.0392816,,2,3.0
Li2SrPb2,0.0,-0.0362746,,2,3.0
KPd2Pb2,0.0,-0.045293,,2,3.0
KRbHg2,0.0,-0.0416072,,2,3.0
Mg4Si4Pr3,0.0,-0.0177488999999999,,2,3.0
O5Sb4I2,1.6673,-0.024199,,2,3.0
SnCeHg2,0.0,-0.0546776,,2,3.0
F2AgCs,2.9704,-0.0209613,,2,3.0
AlCaLa2,0.0,-0.0260612,,2,3.0
GePd2Pr2,0.0,-0.0351696,,2,3.0
Al3Si2CoGd3,0.0,-0.0269973,,2,3.0
N2Zn,0.0,-0.0104214,,2,3.0
Al3Ti2Zn,0.0,-0.0118692,,2,3.0
O5S2Ti2Gd2,0.5572,-0.0213451999999999,,2,3.0
Al9Ca3Ba2,0.0,-0.0130037,,2,3.0
Sb2Tb6Os,0.0,-0.048186,,2,3.0
N2SrBa2,0.0,-0.0245659999999999,,2,3.0
CSi2Cr2Pr,0.0,-0.0188244,,2,3.0
InPmAu2,0.0,-0.0547676999999999,,2,3.0
C2O4Sn,2.3295,-0.0127948,,2,3.0
SiRh2Tb2,0.0,-0.0352727,,2,3.0
Cl2SeDy2,0.0,-0.0284226,,2,3.0
Si4Mo3Tb2,0.0,-0.0271234,,2,3.0
Na6NiSn2,0.0,-0.0126831,,2,3.0
Cu2GeTh,0.0,-0.0367590999999999,,2,3.0
O8KTbW2,4.4881,-0.0230291,,2,3.0
LiCu,0.0,-0.0088188,,2,3.0
NO3Al3,4.1501,-0.010157,,2,3.0
SmHg3,0.0,-0.0627641,,2,3.0
Li6N4Mo,2.7589,-0.0087512,,2,3.0
Fe4YPr,0.0,-0.0238639,,2,3.0
BNbRu3,0.0,-0.0293259,,2,3.0
TiNi6Ga,0.0,-0.0165689,,2,3.0
BNRuTb,0.0,-0.0257332,,2,3.0
MgAlSn2,0.0,-0.0211067,,2,3.0
Cu5GeIn,0.0,-0.0182947,,2,3.0
O4TiPr,0.0608,-0.0172022,,2,3.0
SrPt4Tl,0.0,-0.0631997,,2,3.0
NCdLa3,0.0,-0.0347025,,2,3.0
S2RbCe,0.0,-0.0232076,,2,3.0
KMnSe3Pr,0.2314,-0.023319,,2,3.0
Fe4ZnTb,0.0,-0.0221237,,2,3.0
NiAgTe4,0.0,-0.0328703,,2,3.0
Cl3Nb,0.1104,-0.0156606,,2,3.0
O8P2BaNd,0.0,-0.0157618,,2,3.0
TbDyHg2,0.0,-0.0584283,,2,3.0
Cu2Se2Ba,0.1636,-0.0229805,,2,3.0
CSc2Co2Ge2,0.0,-0.0165080999999999,,2,3.0
H16B4NaY,5.395,-0.0056702,,2,3.0
Na2S4FeSn,0.0,-0.0134726,,2,3.0
N2TaPa,0.0,-0.0476121,,2,3.0
Li2F8ZrHo,0.7768,-0.0131706,,2,3.0
CaNiIn,0.0,-0.0201231,,2,3.0
F6Rb2Os,0.0,-0.0173734,,2,3.0
BCNd2,0.0,-0.0265746,,2,3.0
H2Ti2Cu,0.0,-0.0111974,,2,3.0
Ni2Y2Zr,0.0,-0.0240476999999999,,2,3.0
NSrIr,0.0,-0.0349339,,2,3.0
OAsAuU,0.0,-0.0512031,,2,3.0
S8Fe3,0.0,-0.0123449,,2,3.0
SrIn5Pt,0.0,-0.0375585,,2,3.0
Al2Ag3Tm,0.0,-0.0272007,,2,3.0
PCrNi5,0.0,-0.0159113,,2,3.0
Ru2RhHo3,0.0,-0.0424099999999999,,2,3.0
LiO4Nb2,0.0,-0.0158613,,2,3.0
Cl6Cs3Dy,4.8108,-0.0232628,,2,3.0
SiCaRu,0.0,-0.0188941,,2,3.0
B4Sr2Pt5,0.0,-0.0393412,,2,3.0
RuRhNd2,0.0,-0.0393614,,2,3.0
P4Cr,0.0,-0.0123179,,2,3.0
F7K3Y,0.0,-0.0102402,,2,3.0
Al8Cu4Sm,0.0,-0.0132594999999999,,2,3.0
Al6Mn6Er,0.0,-0.0162242,,2,3.0
LiY2Os,0.0,-0.0327864,,2,3.0
Rh2CdTm3,0.0,-0.0431283,,2,3.0
Cu2GaHf,0.0,-0.0277406,,2,3.0
Ga2SrIr,0.0,-0.0321975,,2,3.0
N2FeNi,0.0,-0.013167,,2,3.0
O4S2Cu2Sb2Tb,0.0,-0.0193445,,2,3.0
Sc2FeZr,0.0,-0.0193571,,2,3.0
Be4MgCo,0.0,-0.0066704,,2,3.0
As2BaPt,0.0,-0.0385367,,2,3.0
PTiIr,0.0,-0.0336826999999999,,2,3.0
MgGa2Tm,0.0,-0.0228397,,2,3.0
F6SnPu,0.419,-0.0239258,,2,3.0
RhIr4,0.0,-0.0636522,,2,3.0
CaAg4Cd,0.0,-0.0277944,,2,3.0
Ni2ZnLa,0.0,-0.0226141,,2,3.0
MgS4K2Sn,2.4526,-0.0132177,,2,3.0
RbSb2Pb2,0.0,-0.0495486999999999,,2,3.0
CrSb,0.0,-0.027942,,2,3.0
Cu3Zr,0.0,-0.0192457,,2,3.0
Cl6RhAgCs2,0.4754,-0.0202429999999999,,2,3.0
O4SbSm,2.1695,-0.0203351,,2,3.0
Sc5Sb,0.0,-0.0184098,,2,3.0
O8Ti3Zn2,2.2523,-0.0123788,,2,3.0
AlCl6InCs2,2.6677,-0.0182618,,2,3.0
BCrMo,0.0,-0.0206079,,2,3.0
Ga2ZrOs,0.0,-0.0343321,,2,3.0
LiBeB,0.0,-0.0048693,,2,3.0
I3Gd,1.3273,-0.0437214999999999,,2,3.0
Ga3LaIr2,0.0,-0.0398628,,2,3.0
Ga7Ag2Lu3,0.0,-0.0290608,,2,3.0
Si3Ba2Au,0.0,-0.0303693,,2,3.0
Sc2RuOs,0.0,-0.0343451,,2,3.0
O3Cl,1.4557,-0.0065217,,2,3.0
F6MnPt,0.5162,-0.0157747,,2,3.0
ZnGeIr,0.0,-0.0348621,,2,3.0
ZnNd2Os,0.0,-0.0433591,,2,3.0
ScPb7,0.0,-0.0681768,,2,3.0
CuSe3TbPb,1.1224,-0.0341017999999999,,2,3.0
SiPt3U2,0.0,-0.0720186999999999,,2,3.0
NTb3Tl,0.0,-0.0455594,,2,3.0
MnNiZr,0.0,-0.0219479,,2,3.0
TiNi3Se4,0.0,-0.018653,,2,3.0
Cu2GeCdTe4,0.0,-0.0288008999999999,,2,3.0
MnCuZn2,0.0,-0.0152743,,2,3.0
ScGe2La2,0.0,-0.0285939,,2,3.0
Cs3AuHg,0.0,-0.0503287,,2,3.0
Al3Au5,0.0,-0.0466024,,2,3.0
MgP2Ge,1.2801,-0.0115982,,2,3.0
Al2FeAu,0.0,-0.02617,,2,3.0
KBr4Au,1.4006,-0.0267104,,2,3.0
Be2STe,2.0485,-0.0146693,,2,3.0
SbAuHg,0.0,-0.0582054,,2,3.0
O8Mo2CsNd,4.0707,-0.0193459,,2,3.0
PKOs,0.0,-0.0306258,,2,3.0
Al4RuCe,0.0,-0.0190405,,2,3.0
AlCo2Gd2,0.0,-0.0322401,,2,3.0
TiRb2I6,0.6526,-0.0320668,,2,3.0
CrSe4U,0.0,-0.0346558,,2,3.0
O4MoNd,0.0,-0.0201139,,2,3.0
Co2Sn7Er3,0.0,-0.0368275999999999,,2,3.0
Al4CoNp,0.0,-0.0261186,,2,3.0
S2KNp,0.0,-0.0351248,,2,3.0
CGaLu2,0.0,-0.0348192,,2,3.0
ScPd3,0.0,-0.0290394,,2,3.0
S6CoNb2,0.0,-0.0165546,,2,3.0
LiAg2Cd2,0.0,-0.0252785,,2,3.0
F6KRb2Rh,1.9942,-0.0130966,,2,3.0
ZnRh2Gd,0.0,-0.0355637,,2,3.0
SiErPt,0.0,-0.044922,,2,3.0
BrTeAu,1.0087,-0.0422571999999999,,2,3.0
FeY6Tl2,0.0,-0.0369652,,2,3.0
Al2GaAg2,0.0,-0.0188907,,2,3.0
LiSiTm,0.0,-0.0220335,,2,3.0
P2ScY,0.0,-0.0174693,,2,3.0
As2Ru2Eu,0.0,-0.0335713999999999,,2,3.0
Ni4MoOs,0.0,-0.0285627,,2,3.0
Mg2AlGa,0.0,-0.0085551999999999,,2,3.0
Al2FeDy6,0.0,-0.0357462999999999,,2,3.0
H2O7CaTa2,2.0841,-0.0187170999999999,,2,3.0
SiS6As2Tl2,1.4311,-0.0233737,,2,3.0
Al3Si2NiDy3,0.0,-0.0233127,,2,3.0
SiEr2Ir2,0.0,-0.0517546,,2,3.0
P2Ag3Cs3,1.4572,-0.028947,,2,3.0
S2TlBi,0.1431,-0.0429456,,2,3.0
Ni2Y3Tl3,0.0,-0.0421004,,2,3.0
MgCuEr,0.0,-0.0237554,,2,3.0
BMn,0.0,-0.0134147,,2,3.0
Fe2RhCe2,0.0,-0.0320878,,2,3.0
TcSb2Tl,0.0,-0.0454598,,2,3.0
CLu3Pb,0.0,-0.051143,,2,3.0
HfAu,0.0,-0.0666297,,2,3.0
CoCu3Se4,0.0,-0.0180655,,2,3.0
O8CsErW2,4.524,-0.0258205,,2,3.0
F5MgAg,0.0124,-0.0098696,,2,3.0
Ni2Se2Tl,0.0,-0.0292183,,2,3.0
H3NaBaAu,0.0,-0.0209287999999999,,2,3.0
ClMnEr,0.0,-0.0267106,,2,3.0
AsAg4,0.0,-0.029059,,2,3.0
Y3In3Pt2,0.0,-0.0416025,,2,3.0
CaPrPb,0.0,-0.0435731,,2,3.0
LiF6K2Ni,0.0,-0.0083587,,2,3.0
Ag2Pt,0.0,-0.0443181,,2,3.0
F6RbYCs2,6.4087,-0.0180928,,2,3.0
F6ScMn,0.0752,-0.0102028,,2,3.0
LiOF3Fe2,0.0,-0.0101335,,2,3.0
V2CrOs,0.0,-0.0317545,,2,3.0
Si4ScHf3,0.0,-0.0310995,,2,3.0
Al3Cs2,0.0,-0.0197865,,2,3.0
CaSnSb,0.0,-0.0282238,,2,3.0
BNNiTm,0.0,-0.022491,,2,3.0
SeI2Pr2,0.0,-0.0378078,,2,3.0
B2Ti2Ir,0.0,-0.0246731,,2,3.0
Se3YCdCs,2.0744,-0.0276305,,2,3.0
O7S2Rb2,5.2887,-0.0113795,,2,3.0
Zn6Ge3Tb2,0.0,-0.0215349,,2,3.0
Mg2S8Cr3Ga,0.245,-0.0125289,,2,3.0
AgCe,0.0,-0.0381023,,2,3.0
CSi2CeW2,0.0,-0.0360606999999999,,2,3.0
S3ZrRhTl,0.0,-0.0286451,,2,3.0
O8Rb3Gd,0.0,-0.0156098,,2,3.0
O3Tm2,4.1369,-0.0284599,,2,3.0
Zn3YAg2,0.0,-0.0221704,,2,3.0
F6KNi,0.0,-0.0075567,,2,3.0
S8Cu2CdSn3,0.3435,-0.01799,,2,3.0
CaRhBa3,0.0,-0.0324986,,2,3.0
B2Tm,0.0,-0.0229662,,2,3.0
O6ZnSr2Ta,0.0,-0.0189222,,2,3.0
OInPu3,0.0,-0.0748715,,2,3.0
O6NaSi2Ti,0.1394,-0.0107389,,2,3.0
Li3PrBi2,0.0,-0.0353924,,2,3.0
Zn2NbRh,0.0,-0.023821,,2,3.0
CSi2Mo2Th,0.0,-0.0331214,,2,3.0
Au4Np,0.0,-0.0769504,,2,3.0
S3KTiCo,0.0,-0.0130106,,2,3.0
Zn2InTm2,0.0,-0.0333440999999999,,2,3.0
Mg2TcRe,0.0,-0.0290545,,2,3.0
In2BaTl,0.0,-0.0451275,,2,3.0
MgIn2Dy2,0.0,-0.0339939999999999,,2,3.0
As3Ag2,0.0818,-0.0246017,,2,3.0
H6MnU2,0.0,-0.0274699999999999,,2,3.0
MgCd3,0.0,-0.0241472,,2,3.0
Rh2Te,0.0,-0.035196,,2,3.0
OFe2Se2Sr,0.0,-0.0188202,,2,3.0
GaPr2Au,0.0,-0.0438019,,2,3.0
H8Mn2FeCe,0.0,-0.0108109,,2,3.0
HNaPd,0.0,-0.0137168,,2,3.0
O8NaTi3Fe,0.2854,-0.0121211,,2,3.0
ZnN6,3.3933,0.366068383928571,mp-2204873,2,3.0
F2BrLa,3.736,-0.0210762,,2,3.0
In2SmTb,0.0,-0.040132,,2,3.0
BeSnEr,0.0,-0.030705,,2,3.0
ScYW4,0.0,-0.053359,,2,3.0
Al5HoPt2,0.0,-0.0295677,,2,3.0
CSbSm3,0.0,-0.0368539,,2,3.0
CuSe2,0.0,-0.0185624,,2,3.0
PK2Pt,0.0,-0.0249668,,2,3.0
Zn2CdAc,0.0,-0.0372291,,2,3.0
C2CaNi,0.0,-0.0117384,,2,3.0
Cu2InTb,0.0,-0.0280229,,2,3.0
Se6SnSb2Tl2,0.0,-0.0344593,,2,3.0
Al3Lu2Ir2,0.0,-0.0405382,,2,3.0
Si2ScIr2,0.0,-0.0364292,,2,3.0
Na2KTl2,0.0,-0.0324528,,2,3.0
CoSb2Dy6,0.0,-0.0426854999999999,,2,3.0
B2Sr3Rh7,0.0,-0.0269612,,2,3.0
B2O6Rb2Er,0.0,-0.0157793,,2,3.0
Ga3SmPt2,0.0,-0.0399122,,2,3.0
SiPm2Pt,0.0,-0.0428969,,2,3.0
ScNiHg,0.0,-0.0333122,,2,3.0
Na2KRb,0.0,-0.0093417999999999,,2,3.0
Cu2Ga2Nd,0.0,-0.0218339,,2,3.0
BNiMo,0.0,-0.0198854,,2,3.0
Be2P2U,0.0,-0.0271072999999999,,2,3.0
HClK2,3.7984,-0.00817,,2,3.0
F4CaCo,0.9777,-0.0100395,,2,3.0
Rh2PdHf,0.0,-0.0415858,,2,3.0
LiZn2Ag2,0.0,-0.0185238,,2,3.0
B2CRu2Th,0.0,-0.0321786,,2,3.0
As2Th,0.0,-0.04656,,2,3.0
LiAgLa2,0.0,-0.030106,,2,3.0
RhLu,0.0,-0.045731,,2,3.0
CSZr2,0.0,-0.0218246,,2,3.0
Cu4InSm,0.03,-0.0233941,,2,3.0
S2FeZr6,0.0,-0.0254137999999999,,2,3.0
Ti2Ga3,0.0,-0.0167843,,2,3.0
Al3Rh2Pr,0.0,-0.0233264,,2,3.0
CaGa2Rh3,0.0,-0.0246596,,2,3.0
N4Mn3,0.0,-0.0134805,,2,3.0
H5CN2InI3,0.0,-0.016149,,2,3.0
Zn2GaPr2,0.0,-0.0264726,,2,3.0
Cu3Zn2Sr,0.0,-0.0159684,,2,3.0
NbMoW2,0.0,-0.0518873,,2,3.0
H6KGeCs2,0.0,-0.0124556,,2,3.0
AgSb2Tl2,0.0,-0.0500721,,2,3.0
NiGaEr,0.0,-0.0283418,,2,3.0
AlLaAu2,0.0,-0.0482625999999999,,2,3.0
NiTb2Ir2,0.0,-0.0512001,,2,3.0
In2Nd,0.0,-0.0374406,,2,3.0
SrYRh4,0.0,-0.0314189,,2,3.0
B2Mo3,0.0,-0.0242618,,2,3.0
Be2PdPt,0.0,-0.028763,,2,3.0
SiClCe,0.0,-0.0223367,,2,3.0
Mg6CaHf,0.0,-0.0126812,,2,3.0
BeCr2Os,0.0,-0.028374,,2,3.0
CuNdHg2,0.0,-0.0491967,,2,3.0