formula,bg,formation_energy,mp-id,fidelity,bg_category
O7CoCu2Ba2Pr,0.0,-0.0185514,,2,3.0
O4Cu2Se2InBi2,0.0,-0.0269207,,2,3.0
AlSb2La6,0.0,-0.0386351999999999,,2,3.0
OGaDy3,0.0,-0.0347665,,2,3.0
AlZr3,0.0,-0.0252681,,2,3.0
O3FCuZr,0.6319,-0.013771,,2,3.0
Li2F8CaTb,0.0,-0.0109743999999999,,2,3.0
K5Sr,0.0,-0.0105951,,2,3.0
O2K2Cd,1.2943,-0.0131883,,2,3.0
Li2CuRh,0.0,-0.013574,,2,3.0
Rh2Ho3Au,0.0,-0.04833,,2,3.0
LiP2Ir2Th,0.0,-0.0445324,,2,3.0
Al5Cr3,0.0,-0.0119295,,2,3.0
Zn2Ge,0.0,-0.015307,,2,3.0
H3BOF4,7.8627,-0.0063472999999999,,2,3.0
F6RuCe,0.1033,-0.0155585,,2,3.0
Mg2Co3As,0.0,-0.0138745,,2,3.0
PKRb2,0.0717,-0.0153565,,2,3.0
SiAs2Ba,0.3598,-0.0232246999999999,,2,3.0
BaPtHg3,0.0,-0.06333,,2,3.0
O2K2Cu,0.0,-0.0100472,,2,3.0
MnGa5Th,0.0,-0.0283708999999999,,2,3.0
MnW3,0.0,-0.0567753,,2,3.0
Ti2MoIn,0.0,-0.0253377,,2,3.0
LiMg2Pb,0.0,-0.0222752,,2,3.0
Ti2AsTe2,0.0,-0.0262057,,2,3.0
TiRh2Te3,0.0,-0.0331132,,2,3.0
LiS2Cr,0.3942,-0.0113557,,2,3.0
O6CoCdLa2,0.0,-0.0196319,,2,3.0
GaI3Sm3,0.0,-0.0382222,,2,3.0
Al3CuGe2Lu3,0.0,-0.0276705,,2,3.0
Fe2GaCe,0.0,-0.0245596,,2,3.0
C2AlHf3,0.0,-0.0368839,,2,3.0
Co2Ge4Au,0.0,-0.0258622,,2,3.0
CaSmTl2,0.0,-0.0503113,,2,3.0
O6RuBa2Np,0.0445,-0.0285536,,2,3.0
Al9Rh3Sm2,0.0,-0.0195264,,2,3.0
Li2PdSb,0.0,-0.0194376,,2,3.0
Ru2CdDy3,0.0,-0.0410793,,2,3.0
Rh6Sb4Sm,0.0,-0.0366984,,2,3.0
ZnTb2Tl,0.0,-0.0453379,,2,3.0
S2Fe,0.9066,-0.0130523,,2,3.0
Al2GaLu,0.0,-0.0221805,,2,3.0
Si2RhTh,0.0,-0.0384537,,2,3.0
OPdEr3,0.0,-0.039736,,2,3.0
Ti6AuBi2,0.0,-0.0361561,,2,3.0
Ga3Ge2Tb3Pt,0.0,-0.0340373,,2,3.0
CoHgTh,0.0,-0.0605959,,2,3.0
O4Cu2Se2ZrSb2,0.0,-0.0196881,,2,3.0
NZrHf3,0.0,-0.046415,,2,3.0
Al4Ti2Lu,0.0,-0.017363,,2,3.0
Rh4HgPu,0.0,-0.0524018,,2,3.0
AgInEr,0.0,-0.038887,,2,3.0
GeYCe,0.0,-0.0312302,,2,3.0
O2KAs,3.6722,-0.0119385999999999,,2,3.0
ZnSe3TmTl,1.8955,-0.0342414,,2,3.0
Mg4Si3Ba,0.0,-0.0114982,,2,3.0
MnBr3Cs,0.7381,-0.0244489,,2,3.0
BCo6Th2,0.0,-0.0337829,,2,3.0
Sn2PrIr,0.0,-0.0473364,,2,3.0
SeTe2Er,0.0,-0.0373927,,2,3.0
F6NaRb2Sb,4.0741,-0.0131593,,2,3.0
CoHf3Os2,0.0,-0.0589506,,2,3.0
Rh5Dy,0.0,-0.0364511,,2,3.0
F6KCs2Pu,0.0,-0.0247563999999999,,2,3.0
O4F2TiBi2,1.3802,-0.0250342,,2,3.0
Mo4Re,0.0,-0.0421241,,2,3.0
In2Sb3,0.0,-0.0357325999999999,,2,3.0
Be2RhTa2,0.0,-0.0355801,,2,3.0
GePdEr,0.0,-0.0351803,,2,3.0
Zn2RuDy,0.0,-0.027764,,2,3.0
O10K2Ti3La2,2.0044,-0.0158881999999999,,2,3.0
B2Rh3Pr,0.0,-0.0273384999999999,,2,3.0
MgEr2Os2,0.0,-0.050222,,2,3.0
LiAlCl6Rb2,4.0533,-0.011959,,2,3.0
O6MgMoSm2,0.0,-0.019703,,2,3.0
LiCl6YCs2,4.8516,-0.0177752,,2,3.0
Al2TbTm,0.0,-0.0289374,,2,3.0
KPd2Hg2,0.0,-0.0422397,,2,3.0
CoPd,0.0,-0.0249874,,2,3.0
Li2Ba2Hg,0.0,-0.0306515999999999,,2,3.0
CdBaTl,0.0,-0.0479322,,2,3.0
Al4Nb2Ho,0.0,-0.0213581,,2,3.0
GeBrPu,0.0,-0.0503644,,2,3.0
Li2ZnSn2,0.0,-0.0183839,,2,3.0
MgBa2Hg2,0.0,-0.0445621,,2,3.0
CoTaIr,0.0,-0.0521622,,2,3.0
O4BrSb2La,0.3873,-0.0223201,,2,3.0
F6TiCd,4.5168,-0.0116041,,2,3.0
GaAgTb2,0.0,-0.035843,,2,3.0
BRh6Hf2,0.0,-0.0382456,,2,3.0
NaSrPb,0.0,-0.0346000999999999,,2,3.0
Al2Ca3Sn2,0.0,-0.017167,,2,3.0
V3As,0.0,-0.0187024,,2,3.0
Ca2Cu2Sr,0.0,-0.0144269,,2,3.0
Ca2Au2Hg,0.0,-0.0460124,,2,3.0
SSb2Te2,0.1615,-0.0318758,,2,3.0
Mg2ErIr,0.0,-0.0334630999999999,,2,3.0
Al2CrRe,0.0,-0.0265611,,2,3.0
ORbIn,0.6002,-0.0213546,,2,3.0
OCl2Sr2,3.4996,-0.0162124999999999,,2,3.0
CdInGd,0.0,-0.0414167,,2,3.0
K2GeBr6,0.4337,-0.0181014,,2,3.0
Ni2Rh3Ce,0.0,-0.0301016,,2,3.0
Co3Cu2Dy,0.0,-0.0218189,,2,3.0
Co2NdIr3,0.0,-0.0489053,,2,3.0
H2Zr2Pt,0.0,-0.0285473,,2,3.0
O10Ti3Ba4,2.1411,-0.0191346999999999,,2,3.0
Ge3OsPu,0.0,-0.0480936999999999,,2,3.0
H6B6Tl,4.3241,-0.0108393999999999,,2,3.0
CS2Nb2,0.0,-0.0200578,,2,3.0
NO4Ti3,0.0,-0.0132465,,2,3.0
O7Gd2Pb2,1.0417,-0.0305141,,2,3.0
Na2As2Au,0.0,-0.0240538,,2,3.0
AlCl6K2Ag,2.0593,-0.012041,,2,3.0
MgOsIr2,0.0,-0.054972,,2,3.0
S2Ti6Co,0.0,-0.0156184999999999,,2,3.0
InHgTl2,0.0,-0.0615516,,2,3.0
O6Sr2ZrW,0.0,-0.0212644,,2,3.0
FeGa2Y,0.0,-0.0201588,,2,3.0
Al4Mn2Tm,0.0,-0.0173854,,2,3.0
Rb2SnHg,0.1707,-0.0367431,,2,3.0
HSe2Ag2,0.0,-0.0212062999999999,,2,3.0
Fe2GaTh2,0.0,-0.0490322,,2,3.0
CoSn2Ta6,0.0,-0.0543392,,2,3.0
BNLuIr,0.0,-0.0371472,,2,3.0
Sn2PmTh,0.0,-0.0535754,,2,3.0
CoMoPt2,0.0,-0.0484318,,2,3.0
O6Fe2Te,0.0,-0.0137025,,2,3.0
S8Nb6Pb,0.0,-0.0245737,,2,3.0
TaW5,0.0,-0.0692425,,2,3.0
LaBi3,0.0,-0.0703312,,2,3.0
CoAs2Sm,0.0,-0.0264403,,2,3.0
ScCoIn2,0.0,-0.0248314,,2,3.0
Li2GaCd,0.0,-0.0132575,,2,3.0
H5PdCs3,1.8559,-0.01851,,2,3.0
Si2Ga3Sm3Pt,0.0,-0.0311574999999999,,2,3.0
Co2Er,0.0,-0.0285188,,2,3.0
N6Zr2La3,0.0,-0.0240021999999999,,2,3.0
LiO3FS,5.9312,-0.0076990999999999,,2,3.0
Cs2Tl2Pb,0.0,-0.0593914,,2,3.0
Te2U,0.0,-0.0598508,,2,3.0
H4PtTh,0.0481,-0.0305112999999999,,2,3.0
AlRuNd,0.0,-0.0292895,,2,3.0
BeSiRu,0.0912,-0.0170882,,2,3.0
Rb2In2Au,0.0,-0.0356886,,2,3.0
Br6Rb2Th,3.9629,-0.0301970999999999,,2,3.0
CuRu2Tm3,0.0,-0.0405876,,2,3.0
CoNbSn,1.0079,-0.0291469,,2,3.0
K2Br6Sb,0.0,-0.0201209,,2,3.0
F7Ni2Rb3,0.3053,-0.0126229999999999,,2,3.0
In2Lu,0.0,-0.0412043,,2,3.0
Li2F8CaEr,0.0,-0.0112836,,2,3.0
AlAg2Th,0.0,-0.0417755,,2,3.0
Li4KBa,0.0,-0.009504,,2,3.0
Co2Ga3La,0.0,-0.0215845,,2,3.0
Li2Ca2Hg,0.0,-0.01869,,2,3.0
O5TiFe2,0.0,-0.0126631,,2,3.0
Si4Mn4YLa3,0.0,-0.0231073999999999,,2,3.0
NInLu3,0.0,-0.0429763,,2,3.0
NdHg2Pb,0.0,-0.0644000999999999,,2,3.0
Ca2ZnTl,0.0,-0.026774,,2,3.0
NaErAu2,0.0,-0.0489773,,2,3.0
NiPrPb2,0.0,-0.0532045,,2,3.0
S3CuInHf,0.4375,-0.0244113,,2,3.0
H3FZn,3.8275,-0.0061375,,2,3.0
F6CoBa2,0.0,-0.0165121,,2,3.0
PNiLa2,0.0,-0.0291372,,2,3.0
Mg2CoDy,0.0,-0.0187765999999999,,2,3.0
PCdBa,0.4046,-0.0276238,,2,3.0
C2Cl5La4,0.0,-0.0230701,,2,3.0
Si2Pd2Ce,0.0,-0.0269907,,2,3.0
Ru2AgHo3,0.0,-0.0418541,,2,3.0
Mg2CoEr,0.0,-0.0194539,,2,3.0
BeAgAu,0.0,-0.0351036,,2,3.0
O2FeTl,0.0,-0.0269488999999999,,2,3.0
Si2Fe3Sr,0.0,-0.0164817,,2,3.0
SiAgTm,0.0,-0.0316986999999999,,2,3.0
Cu2InSm,0.0,-0.0274308,,2,3.0
Al5CeAu2,0.0,-0.0283806,,2,3.0
FeZr6Tl2,0.0,-0.0387897,,2,3.0
MnSe4Zr,0.0,-0.0225784999999999,,2,3.0
N2TiCr,0.0,-0.0147061,,2,3.0
AlTiIr2,0.0,-0.0427264,,2,3.0
MnIn5La,0.0,-0.0329975,,2,3.0
PdEr6Bi2,0.0,-0.0553563,,2,3.0
LiS2Cs,0.0,-0.0158419,,2,3.0
SrIn2Ba,0.0,-0.0327163,,2,3.0
O4ZnRh2,0.8738,-0.0163461,,2,3.0
Rh2InPt,0.0,-0.0430443,,2,3.0
GaTaPt,0.0,-0.0516791,,2,3.0
CdTb2Pb,0.0,-0.0504811,,2,3.0
Mg2AgTh,0.0,-0.0344226,,2,3.0
ZnGa6Th,0.0,-0.0262086,,2,3.0
Co2TcRe,0.0,-0.0351548999999999,,2,3.0
Mg3Tb,0.0,-0.0155012,,2,3.0
Zn2BaHg2,0.0,-0.0409576,,2,3.0
O6Sr2TeBa,3.0711,-0.0183423,,2,3.0
NF6S2As,2.4655,-0.0084778,,2,3.0
Se2InPr,0.2529,-0.0306462,,2,3.0
AgCdTb,0.0,-0.0365762,,2,3.0
NiSe2Cs,0.0,-0.024211,,2,3.0
Li4O8Ni3Sn,0.0,-0.0107161,,2,3.0
P2KOs2,0.0,-0.035004,,2,3.0
Se2InNd,0.2426,-0.0307148,,2,3.0
HoTmBi,0.0,-0.0604462,,2,3.0
CoEr6Pb2,0.0,-0.0527667,,2,3.0
Mn2As2La,0.0,-0.0248494,,2,3.0
SCl2Tb2,0.0,-0.026106,,2,3.0
Cs5(SO4)4,0.0,-1.9938242973310352,mp-1196118,2,3.0
GaRh2Er2,0.0,-0.037963,,2,3.0
ZnPd2Pu2,0.0,-0.0600824,,2,3.0
Si2Co2Ru,0.0,-0.0182615,,2,3.0
Si2Rh2Np,0.0,-0.0396746,,2,3.0
CuSe4InSn,0.2781,-0.0239670999999999,,2,3.0
AlZnTh2,0.0,-0.0534131,,2,3.0
Zn2Ag2Sn,0.0,-0.0250343,,2,3.0
FeZr6Sn2,0.0,-0.0308993,,2,3.0
O2PrAu,2.3826,-0.0335534,,2,3.0
TiPdSb,0.0,-0.0293246,,2,3.0
NaSe2Y,1.7084,-0.0200260999999999,,2,3.0
Br6YCs2Au,1.6373,-0.030567,,2,3.0
CSi2Sc2Os2,0.0,-0.0296336,,2,3.0
Y2AgCd,0.0,-0.0298246,,2,3.0
Rh3Pd,0.0,-0.0334422,,2,3.0
KRb2Bi,0.0,-0.0325276,,2,3.0
ZnPbPu,0.0,-0.066506,,2,3.0
O8Ga4Ge,2.2583,-0.0123355999999999,,2,3.0
O4ILuBi2,1.496,-0.0362723,,2,3.0
NiZnHf,0.0,-0.0312786,,2,3.0
TeBiNp,0.0,-0.0745979,,2,3.0
GaPdTm2,0.0,-0.0390458,,2,3.0
S2Cu3Cs,1.4596,-0.0177195,,2,3.0
La4Hg,0.0,-0.0483665999999999,,2,3.0
O4VSn,0.0,-0.0152474,,2,3.0
Mg2SrTl2,0.0,-0.0358098,,2,3.0
AlCoRhHf,0.0,-0.0313165,,2,3.0
LiHf2Re,0.0,-0.0499916,,2,3.0
AlHoPt,0.0,-0.0437294,,2,3.0
Sc6FeGe2,0.0,-0.0162602,,2,3.0
Ti2Co2Zr,0.0,-0.0197034,,2,3.0
As4Ru6Dy,0.0,-0.031257,,2,3.0
LiMgRhTl,0.0,-0.0287408,,2,3.0
Ge2Pd2Ba,0.0,-0.0294293,,2,3.0
O2MnAsI,1.5458,-0.0187522,,2,3.0
LiO8NiW2,0.0,-0.0193223999999999,,2,3.0
Be4ScRh,0.7926,-0.0115062,,2,3.0
SnI4Ba,2.123,-0.0382377,,2,3.0
ZnGaHf,0.0,-0.031333,,2,3.0
Si3NbNp,0.0,-0.0342644,,2,3.0
O4Mg3Zn,3.2821,-0.0093073999999999,,2,3.0
Rh2Sn2Hg,0.0,-0.0417742999999999,,2,3.0
Pd2CdLu3,0.0,-0.0445208,,2,3.0
Al2Sc3Ni4,0.0,-0.0142762,,2,3.0
O5Cu2BaSm,0.0,-0.0182729,,2,3.0
SrHg2Pb,0.0,-0.0591164,,2,3.0
Mg2Co,0.0,-0.0090265,,2,3.0
CGe2Ru2Tb2,0.0,-0.0310020999999999,,2,3.0
ScCu4In,0.0,-0.0183934,,2,3.0
Ag2DyEr,0.0,-0.0406096,,2,3.0
AlGe2Th2,0.0,-0.0482118,,2,3.0
O8TiAs2Cs,0.0,-0.0138191,,2,3.0
Si4PdPt2,0.0,-0.031052,,2,3.0
ScCoTe,0.9233,-0.0237427,,2,3.0
F6NbPb,0.0,-0.0190446999999999,,2,3.0
ScGaTe2,0.0,-0.027118,,2,3.0
GeTbAu,0.0,-0.0460659,,2,3.0
CSi2Mn2Th2,0.0,-0.0374792,,2,3.0
Hf6ReBi2,0.0,-0.0674075,,2,3.0
PCu4,0.0,-0.0142165,,2,3.0
AlPd2Sm,0.0,-0.0304599,,2,3.0
Br2Sn,2.0643,-0.0256945,,2,3.0
C3Nb4,0.0,-0.0237769,,2,3.0
Si3YOs,0.0,-0.0266112,,2,3.0
LiRhCdTl,0.0,-0.0349602,,2,3.0
Rh7In,0.0,-0.0337998,,2,3.0
AlCo2Y2,0.0,-0.0199149,,2,3.0
SiBrGd,0.0,-0.0307148,,2,3.0
LiN2Cr,0.0,-0.0105167,,2,3.0
NaCaAu2,0.0,-0.0387531,,2,3.0
Cl4MnBr2Cs2,0.8759,-0.0199165,,2,3.0
S4CrMn,0.0,-0.0133312,,2,3.0
ZnAg2Sm,0.0,-0.0304209,,2,3.0
PCoLa2,0.0,-0.029242,,2,3.0
BNFeTh,0.0,-0.0336784,,2,3.0
HLiSe,2.4506,-0.0093748,,2,3.0
Mo3Hf,0.0,-0.0419195,,2,3.0
BY3Sn,0.0,-0.0259834,,2,3.0
LiCa2Y,0.0,-0.012302,,2,3.0
SiFeTa,0.0,-0.0320897,,2,3.0
NiZr2Re,0.0,-0.0375921,,2,3.0
Zn2RuLa3,0.0,-0.0321568,,2,3.0
Ga2RhHf6,0.0,-0.0497067,,2,3.0
Ge2Tb2Pb,0.0,-0.0422726,,2,3.0
CuInEr2,0.0,-0.0377346,,2,3.0
H6LiK2Fe,0.0,-0.0059898,,2,3.0
O4MnNp,0.0,-0.0277356,,2,3.0
PdSb2Tm,0.0,-0.0406084,,2,3.0
LiO8P2Mn,0.0,-0.0097951999999999,,2,3.0
CrFeOs2,0.0,-0.0449478,,2,3.0
Al3Si2NiZr3,0.0,-0.0176066,,2,3.0
O7Al3CaNd,4.2132,-0.0134739,,2,3.0
PCa2Cd,0.0,-0.0158560999999999,,2,3.0
LiAu2Bi2,0.0,-0.0597599,,2,3.0
MnCo4Ho,0.0,-0.0229139,,2,3.0
TbDyBi,0.0,-0.0584117,,2,3.0
LiMgHg,0.0,-0.0255738999999999,,2,3.0
F6ZnCs2,0.3454,-0.0144733999999999,,2,3.0
MgScY2,0.0,-0.0187517,,2,3.0
NOSn2Pr6,0.0,-0.0360998,,2,3.0
Fe4ZnTm,0.0,-0.0230121,,2,3.0
O6ZnTeBa2,0.6752,-0.0189229,,2,3.0
Se2In3,0.0,-0.0284774,,2,3.0
GeRhBa,0.0,-0.0315985,,2,3.0
O7CuBrNb2Sm,0.0,-0.018248,,2,3.0
CrRu,0.0,-0.0265244,,2,3.0
BeAlY,0.0,-0.0136388,,2,3.0
BeAsCs,1.4474,-0.0213343,,2,3.0
O8Zr3Ce,2.0785,-0.0192748999999999,,2,3.0
PGa2As,0.9649,-0.0162448,,2,3.0
ZnIn2Pb,0.0,-0.0389056,,2,3.0
Se2TeAu,0.0,-0.036645,,2,3.0
Li6PS5Cl,2.0938,-0.0074573,,2,3.0
HLiO3Nd2,1.7642,-0.01875,,2,3.0
ScNi2Ge2,0.0,-0.0176339,,2,3.0
BeKAs,1.5482,-0.0114931,,2,3.0
LiO2Eu,0.0,-0.0197027,,2,3.0
AlAg2Pm,0.0,-0.0289834,,2,3.0
Ru2Tb3Tl3,0.0,-0.0537268,,2,3.0
InLu2Ir2,0.0,-0.058234,,2,3.0
Na3Sn2,0.0,-0.0171252,,2,3.0
GaRuSm,0.0,-0.0324191,,2,3.0
HGaPt3,0.0,-0.046279,,2,3.0
S3KCaCu,0.8509,-0.0115271,,2,3.0
BrBa2Pt,0.0,-0.0436417,,2,3.0
O5Cs2Bi2,0.0,-0.030491,,2,3.0
O6Ca2ScMo,0.0,-0.0136709,,2,3.0
K2Sb3,0.0,-0.0260803,,2,3.0
ZnNd2Ir2,0.0,-0.0493616,,2,3.0
NaI2Tl,3.0129,-0.0384335,,2,3.0
Ni2Rh3Eu,0.0,-0.0314192,,2,3.0
O5K2Ti2,3.2284,-0.0117936999999999,,2,3.0
OF5ZrCs2Tl,4.0319,-0.0233771999999999,,2,3.0
Rh6LaBi4,0.0,-0.0511839,,2,3.0
CaI4Pr,0.0,-0.0348831,,2,3.0
NaSe2In,1.0049,-0.020382,,2,3.0
Ir5Ac,0.0,-0.0745982999999999,,2,3.0
Zn2RuSm3,0.0,-0.032903,,2,3.0
SrAs2F12,3.6245,-2.551660304833331,mp-1208728,2,3.0
Hf2Pb,0.0,-0.0672292,,2,3.0
NTb,0.0,-0.0299805,,2,3.0
NaRuLa3,0.0,-0.0338252999999999,,2,3.0
MnRh2U,0.0,-0.0477886,,2,3.0
Ba2PtHg,0.0,-0.0550891,,2,3.0
In2LaTl,0.0,-0.0461037,,2,3.0
RuSb2,0.0277,-0.0367722,,2,3.0
Zn2SnSb2,0.0,-0.0274288,,2,3.0
OClFe,0.0,-0.0120589,,2,3.0
H6RuLa2,0.0,-0.0163621,,2,3.0
ZrLuOs2,0.0,-0.0580713999999999,,2,3.0
Zn2Sr2Tl,0.0,-0.0291719,,2,3.0
O8MgSi2Ca2Ba,4.7355,-0.0128204999999999,,2,3.0
ZnEr2Au,0.0,-0.0466346,,2,3.0
PKHo,0.0,-0.0234083,,2,3.0
Te2Tm3,0.0,-0.0469842,,2,3.0
S3AsLu4,0.0,-0.0358237,,2,3.0
Si4NbMo,0.0,-0.0184656999999999,,2,3.0
Ga4TbPt,0.0,-0.0311733,,2,3.0
LiTiBr6Rb2,0.0,-0.0193429,,2,3.0
Al3Y2Re,0.0,-0.0255237,,2,3.0
ZnZrAg2,0.0,-0.0268625,,2,3.0
Nb2ReOs,0.0,-0.0526214999999999,,2,3.0
B2MnW2,0.0,-0.0349099,,2,3.0
Ga2RhPa6,0.0,-0.0741452,,2,3.0
O12Mo2Tb5,0.0,-0.0232817,,2,3.0
SiHfW,0.0,-0.0480728,,2,3.0
O8As2BaEr,0.0,-0.0172064,,2,3.0
MgPd2Er2,0.0,-0.0351277,,2,3.0
PZrPu,0.0,-0.0512664,,2,3.0
Cl4CoSr,0.6005,-0.0137631,,2,3.0
LiCu2Rh,0.0,-0.0167314,,2,3.0
ZnAs2Sr,0.0,-0.0198184,,2,3.0
LiO4RuRh,0.0,-0.0150425,,2,3.0
F5SnTm,2.8029,-0.0184556,,2,3.0
H2TcSnW,0.0,-0.0294845,,2,3.0
Ge2CsTl2,0.0,-0.044201,,2,3.0
Si2Fe2La,0.0,-0.0203680999999999,,2,3.0
Si2MnLu,0.0,-0.0239863,,2,3.0
HO2Tb,3.9218,-0.018561,,2,3.0
ZnSbTl,0.0,-0.0410797,,2,3.0
Y2Ru2Cd,0.0,-0.0315162,,2,3.0
PdErHg2,0.0,-0.055465,,2,3.0
Sn2Ho3,0.0,-0.0445131999999999,,2,3.0
O8YCsW2,4.4995,-0.023943,,2,3.0
Pd2Sn2Dy,0.0,-0.0377845999999999,,2,3.0
As2RuLu6,0.0,-0.0461287,,2,3.0
O2SeLa2,2.3478,-0.0271798,,2,3.0
HO2Sm,3.8184,-0.0179201,,2,3.0
Ru2Lu3Au,0.0,-0.0516537,,2,3.0
LiO4Mn2,0.0,-0.0113719,,2,3.0
AlCo4Ce,0.0,-0.0204273,,2,3.0
HRb2I,3.3931,-0.0213139,,2,3.0
S3KMnNb,0.0,-0.0159993,,2,3.0
ScGeZr,0.0,-0.0220928,,2,3.0
Zn4Sm,0.0,-0.0201081,,2,3.0
OGe,0.9254,-0.0138215,,2,3.0
Li2F6Th,6.9333,-0.0173398,,2,3.0
LiTiNi2As2,0.0,-0.0158414,,2,3.0
HI2U,0.0,-0.0457575999999999,,2,3.0
Cu2Te2Bi,0.0,-0.0367162,,2,3.0
PdSbLa,0.0,-0.0390016,,2,3.0
O6MgTiNd2,3.2225,-0.0181017,,2,3.0
PdEr3Pt2,0.0,-0.0553663,,2,3.0
N2GeEu,0.2262,-0.0235635,,2,3.0
O3Cs2Pb2,1.6151,-0.0364657,,2,3.0
InHo2Au2,0.0,-0.0549847,,2,3.0
C2DyW,0.0,-0.0347622,,2,3.0
Sc2Ga2La,0.0,-0.0214429,,2,3.0
PPd5Ho,0.0,-0.0327403,,2,3.0
HCl2Cs,5.3635,-0.0156734,,2,3.0
Ni2ZnDy2,0.0,-0.0287981,,2,3.0
FeMo2W,0.0,-0.0393214,,2,3.0
Se3BaHf,0.0451,-0.0343016,,2,3.0
SRhSb,0.9163,-0.0275741,,2,3.0
Mg2CsPb2,0.0,-0.0401417,,2,3.0
Y2Rh2Cd,0.0,-0.0315369999999999,,2,3.0
MoTc,0.0,-0.03493,,2,3.0
N2TiTm,0.0,-0.0235949,,2,3.0
O9CoBa3Ta2,0.0,-0.0246949,,2,3.0
FePd2Hg,0.0,-0.0381353,,2,3.0
TbPb2,0.0,-0.0666871,,2,3.0
BPd3Au,0.0,-0.0351454999999999,,2,3.0
Co2As2Ho,0.0,-0.0255328,,2,3.0
Li2GeCd,0.0,-0.0139082,,2,3.0
Al6FeGa2,0.0,-0.0109359,,2,3.0
Rh2SnPr2,0.0,-0.0388801,,2,3.0
Cl2SeSm2,0.0,-0.0271463,,2,3.0
Si2Ni2Zr,0.0,-0.01749,,2,3.0
CuYLa2,0.0,-0.0323975,,2,3.0
BFe2Rh6,0.0,-0.0275936,,2,3.0
Al2CoSm,0.0,-0.0197912,,2,3.0
Zn2RhEr,0.0,-0.0284169,,2,3.0
H4SrCd,1.175,-0.0113394,,2,3.0
S3ScFeCs,0.0,-0.0180414,,2,3.0
YRhTl,0.0,-0.0453528,,2,3.0
Au2PbTh2,0.0,-0.081958,,2,3.0
Al4Nb2Lu,0.0,-0.0222525,,2,3.0
O6NiRuLa2,0.0,-0.0200278999999999,,2,3.0
Ga2RhSm6,0.0,-0.0375281,,2,3.0
Co2As2Zr,0.0,-0.0217389,,2,3.0
NaSb2Pt2,0.0,-0.0442677,,2,3.0
GaPdCe,0.0,-0.0320992,,2,3.0
GeRh2Tb,0.0,-0.0342571,,2,3.0
Cd2InPb,0.0,-0.0424364,,2,3.0
Be5Cu3,0.0,-0.0085833,,2,3.0
Ga3RhSn2Dy3,0.0,-0.0339446999999999,,2,3.0
PmPt3,0.0,-0.0645700999999999,,2,3.0
NCa3Zn,0.0,-0.0109642,,2,3.0
Sn2CePr,0.0,-0.0406884,,2,3.0
OAs2Rb2Zr2,0.0,-0.0227938,,2,3.0
MgHo5,0.0,-0.0416454999999999,,2,3.0
Fe2Cu2As4Sr3,0.0,-0.0201704,,2,3.0
OsTh3,0.0,-0.0902109,,2,3.0
PZr2Tl,0.0,-0.0369707,,2,3.0
H5Li4Rh,0.0,-0.006477,,2,3.0
MgSe3LuTl,1.8577,-0.033563,,2,3.0
Sc2CoGa3,0.0,-0.0164333999999999,,2,3.0
BGdPt3,0.0,-0.0561483,,2,3.0
AlGeTh,0.0,-0.0414951,,2,3.0
CoGa4Tm,0.0,-0.0229333,,2,3.0
Pd2AgPb4,0.0,-0.0572685999999999,,2,3.0
GaCdEu,0.0,-0.033981,,2,3.0
RhSn2Dy6,0.0,-0.0443003,,2,3.0
SiIGd,0.0,-0.0362473,,2,3.0
MgAl3,0.0,-0.0070389,,2,3.0
RhLa2Au,0.0,-0.0482324,,2,3.0
Br2TeNd2,0.0,-0.0344161,,2,3.0
Al2Ni4Zr3,0.0,-0.0197409,,2,3.0
BPdTa,0.0,-0.0362404999999999,,2,3.0
MgAgLu,0.0,-0.0308901,,2,3.0
Ge3PrPt,0.0,-0.0349984,,2,3.0
MgRh2Hg,0.0,-0.0353545,,2,3.0
LiP2Co2Dy,0.0,-0.0184928,,2,3.0
Ni4CuIn,0.0,-0.0187924,,2,3.0
BeMgRe2,0.0,-0.0378896,,2,3.0
Ga3Rb2,0.0534,-0.0183183,,2,3.0
CAlY3,0.0,-0.0208145,,2,3.0
Al3Y2Ru,0.0,-0.0196637,,2,3.0
O6FeSr2Ho,0.1391,-0.0176957999999999,,2,3.0
AlCu2Er2,0.0,-0.028196,,2,3.0
O6Ca2SbLu,3.8089,-0.0179237,,2,3.0
FeLu,0.0,-0.036705,,2,3.0
SiRu2Ir,0.0,-0.0380249,,2,3.0
Fe2Br8Rh,0.002,-0.0210987,,2,3.0
Zn4Ge4Tm3,0.0,-0.0265431,,2,3.0
KIn2Sn2,0.0,-0.0296266,,2,3.0
KSe3AgHf,0.4997,-0.0283047,,2,3.0
NiMo2Tc,0.0,-0.0302164,,2,3.0
CuEu2Pt,0.0,-0.0487929,,2,3.0
KNi4As3,0.0,-0.0170826,,2,3.0
Si2Ga3Er3Pt,0.0,-0.0331541,,2,3.0
As2Se6SnPb2,0.0433,-0.0319566,,2,3.0
F5MgMo,0.8423,-0.0112214,,2,3.0
Li2As2Ru,0.0,-0.0165179,,2,3.0
O4Na2Fe,0.427,-0.0088599,,2,3.0
OSAgHo,1.0905,-0.0262377,,2,3.0
Al4Ti2Er,0.0,-0.0166576999999999,,2,3.0
Ga5Rh2Ce,0.0,-0.0249355,,2,3.0
ScTeI,0.4604,-0.0307659,,2,3.0
P3Sn,0.0,-0.0167601,,2,3.0
Ni2CuTm,0.0,-0.0251146,,2,3.0
Ge3Ba2Pt,0.0,-0.0352438999999999,,2,3.0
AlP,1.4497,-0.0098187999999999,,2,3.0
Si2TiTa2,0.0,-0.0345105,,2,3.0
Al2SiAg7,0.0,-0.0245148,,2,3.0
Al2Zn2Ba,0.0,-0.0166985999999999,,2,3.0
Ru2SnDy,0.0,-0.0387447,,2,3.0
Be2Ti2Co,0.0,-0.0118082999999999,,2,3.0
Sc2YRu2,0.0,-0.0256560999999999,,2,3.0
LiO3K2Fe,0.0606,-0.0097082,,2,3.0
Si3FePr,0.0,-0.0187924,,2,3.0
CoAsCe,0.0,-0.0282407,,2,3.0
F6ZnSn,3.6599,-0.0114045,,2,3.0
Ge2AgPu,0.0,-0.0450391,,2,3.0
Ni2GaSr2,0.0,-0.0188708,,2,3.0
Be4AlRu,0.0,-0.0104622,,2,3.0
S4Ti2Cu,0.0,-0.0135851,,2,3.0
RhBa4,0.0,-0.0384399999999999,,2,3.0
YCdHg2,0.0,-0.049182,,2,3.0
O2FKSe,3.1698,-0.0105593,,2,3.0
SeBrIr,0.7045,-0.0372082,,2,3.0
MgAl7,0.0,-0.0073969,,2,3.0
B2CCa,0.0,-0.0090078,,2,3.0
Mg2PrEu,0.0,-0.026832,,2,3.0
LiO4TiNi,0.0,-0.0108488,,2,3.0
BrLu,0.0,-0.0387155,,2,3.0
B6Ru2Sm,0.0,-0.0180989,,2,3.0
Ca2LaIr,0.0,-0.0338,,2,3.0
AgSmHg,0.0,-0.0484813,,2,3.0
N2TmPu,0.0,-0.0467924,,2,3.0
H3HfRe,0.022,-0.0291492,,2,3.0
AsAgCd,0.0,-0.0273331,,2,3.0
Si2Mn3Tm,0.0,-0.0216504,,2,3.0
Pd2OsU,0.0,-0.0605593,,2,3.0
SBrPd,0.0,-0.0209759999999999,,2,3.0
O4S2Cu2NdBi2,0.0,-0.0264624,,2,3.0
Co2Ga5Pu,0.0,-0.028534,,2,3.0
Ga2ErOs,0.0,-0.0393001999999999,,2,3.0
SiCu2Zr,0.0,-0.0182598,,2,3.0
H4NS4AgW,1.5027,-0.0152223,,2,3.0
LiO2Mn,0.0,-0.0105248,,2,3.0
O3FeBrSr2,0.0,-0.0169061,,2,3.0
OSr2I2,3.1625,-0.0272119,,2,3.0
CoGe2Ho,0.0,-0.0267794,,2,3.0
PMnSe3,0.0,-0.0182633,,2,3.0
LiIr,0.0,-0.0370741,,2,3.0
O6Na3Mg2As,3.0618,-0.0088766,,2,3.0
Al2CuLu,0.0,-0.0220325,,2,3.0
RhDy,0.0,-0.0417834,,2,3.0
SiCuPu,0.0,-0.0452745,,2,3.0
CrFeNi2,0.0,-0.0172438,,2,3.0
CHf2Hg,0.0,-0.0516492999999999,,2,3.0
LiAs2ErPt2,0.0,-0.0399758,,2,3.0
K3Cu3Sb2,1.1416,-0.018399,,2,3.0
Ag2Sb2Tl,0.0,-0.0418862,,2,3.0
BCCoNp,0.0,-0.0356162,,2,3.0
B2N3Co2Er3,0.0,-0.0242469,,2,3.0
O8CoMo2Tl,1.2225,-0.0192541,,2,3.0
Al3Nd2Ir2,0.0,-0.0370516,,2,3.0
LiF4Pa,0.0,-0.0227793,,2,3.0
Ca2PdAg,0.0,-0.0213755999999999,,2,3.0
NaTiSe2,0.0,-0.0164441,,2,3.0
LiCoZn2,0.0,-0.0117509,,2,3.0
Ge2SrRh2,0.0,-0.0265213,,2,3.0
Se3SbLa,0.821,-0.0293624,,2,3.0
BO3Dy,5.0946,-0.0181614,,2,3.0
BeSiRu2,0.0,-0.0216784,,2,3.0
O12Al4LaPr3,4.0403,-0.0175839,,2,3.0
O3TcTl,0.0,-0.0264833,,2,3.0
FeTc2,0.0,-0.0293496,,2,3.0
BeOSc3,0.0,-0.0119876,,2,3.0
H2Ca3,0.0,-0.0074982,,2,3.0
HTh,0.0,-0.0499969,,2,3.0
SeLa,0.0,-0.0338066,,2,3.0
CaCuAu,0.0,-0.0319069,,2,3.0
SMn,0.0,-0.0150151,,2,3.0
O6K2TeHf,2.429,-0.0177194,,2,3.0
P12NdOs4,0.0,-0.0275078,,2,3.0
N2K2Pa,0.0,-0.0280151,,2,3.0
TiFe2Ta,0.0,-0.0299795,,2,3.0
O4CaCu2Se2Sb2,0.0,-0.0176265,,2,3.0
CrNiIr,0.0,-0.0353825,,2,3.0
FYTe,0.7238,-0.0256549,,2,3.0
B2RuTb,0.0,-0.02477,,2,3.0
Sc2ZrAu,0.0,-0.0326004,,2,3.0
CoBrHf,0.0,-0.0339039,,2,3.0
Cd3La5,0.0,-0.0386107,,2,3.0
CuCdPt,0.0,-0.0387879,,2,3.0
AlTa,0.0,-0.0374444,,2,3.0
Si2Co2Nd,0.0,-0.0203472,,2,3.0
O8P2TiPr,0.2345,-0.0138751,,2,3.0
MnZn2Th,0.0,-0.035526,,2,3.0
Cu2InPm,0.0,-0.0272976999999999,,2,3.0
Sn2GdBi,0.0,-0.0527016,,2,3.0
AlCu3Se4Tl2,0.0,-0.0282376,,2,3.0
AlGaInSb3,0.1929,-0.028375,,2,3.0
Ga2NbTa2,0.0,-0.0401826,,2,3.0
Fe4YDy,0.0,-0.024706,,2,3.0
CaAgSb,0.0186,-0.0268732,,2,3.0
O6CrRbI,0.0,-0.0138968,,2,3.0
LiNi2Sb2Pu,0.0,-0.0369706,,2,3.0
O5S2Ti2Sm2,0.6798,-0.018768,,2,3.0
LiP2Co2Pu,0.0,-0.0286652,,2,3.0
SnTe3Sm4,0.0,-0.0421159,,2,3.0
PdSnLu,0.0,-0.0423663,,2,3.0
Ca6Sb2Pt,0.0,-0.0234307,,2,3.0
CGe2Mo2Ho2,0.0,-0.0314947,,2,3.0
Mg6Ge3Ba2,0.0,-0.0154777,,2,3.0
CuU,0.0,-0.0592374,,2,3.0
Sc2CoAs2,0.0,-0.018326,,2,3.0
Si2Rh2Pd,0.0,-0.0248959,,2,3.0
AlS3Ga,2.5221,-0.0116023,,2,3.0
C3N6K5,0.0,-0.0096115,,2,3.0
Al5Ni2Nb,0.0,-0.0136402,,2,3.0
Te5Ho,0.0,-0.0397943,,2,3.0
O5Cu2BaLa,0.0,-0.0181124,,2,3.0
Ru2Nd3Hg,0.0,-0.045124,,2,3.0
Br2Tc,0.4213,-0.0250769,,2,3.0