formula,bg,formation_energy,mp-id,fidelity,bg_category
CaNi2La2,0.0,-0.0257998,,2,3.0
MgAl,0.0,-0.0063467,,2,3.0
H2LiOBr,4.4881,-0.0083477,,2,3.0
As3Ir,0.1341,-0.0334748999999999,,2,3.0
Mg2ZnIr2,0.0,-0.0335351,,2,3.0
Al2Zn2Ce,0.0,-0.0178776,,2,3.0
Ca2Sn,0.0,-0.0191332,,2,3.0
HK2I,3.6958,-0.0151162,,2,3.0
PSe3RbAg,0.7616,-0.021016,,2,3.0
F6NaAu,2.2466,-0.0134185,,2,3.0
Si3Ni2,0.0,-0.0128863,,2,3.0
NOIn2Tb6,0.0,-0.0377165,,2,3.0
O6Ca2FeIr,0.0,-0.0166239,,2,3.0
O2SLu2,2.9726,-0.0301589,,2,3.0
B6Ni2Np,0.0,-0.0207271,,2,3.0
ZnDy3Os2,0.0,-0.0504819,,2,3.0
LiInNd2,0.0,-0.0311049,,2,3.0
MgCdIn2,0.0,-0.0256162,,2,3.0
Zr4Cd5,0.0,-0.0306970999999999,,2,3.0
In2AcPu,0.0,-0.0670349,,2,3.0
CuHo2Au,0.0,-0.0463058,,2,3.0
Li2YTl,0.0,-0.0266543999999999,,2,3.0
NGeLa3,0.0,-0.0325899,,2,3.0
FRbI2,0.7318,-0.0258321,,2,3.0
Si3ScTh,0.0,-0.0286325,,2,3.0
Sc3Co2Pd,0.0,-0.0189537,,2,3.0
Al3Sn2Nd3Au,0.0,-0.0335513,,2,3.0
Al4V2Hf,0.0,-0.0187414999999999,,2,3.0
KIn4,0.0,-0.0286323,,2,3.0
FeCo4Rh,0.0,-0.0201819,,2,3.0
ScMnIr2,0.0,-0.044521,,2,3.0
Ge3YIr,0.0,-0.0319783,,2,3.0
SnNd2Hg,0.0,-0.0485706,,2,3.0
NPrIr,0.0,-0.0422002,,2,3.0
Li5O3F2Fe,0.6642,-0.0073957,,2,3.0
OCaMnSe,0.3479,-0.0156419,,2,3.0
Cu2CdEr2,0.0,-0.0326798,,2,3.0
B2O6K2Sm,0.0,-0.0129497,,2,3.0
Zn2InPu,0.0,-0.0426957,,2,3.0
S2RhTl,0.0,-0.0318675,,2,3.0
NSnHo2,0.0,-0.0371514,,2,3.0
Rh2Gd2Pb,0.0,-0.0529617999999999,,2,3.0
CoCuPm2,0.0,-0.0302196,,2,3.0
BeAsTe2,0.0,-0.0247328,,2,3.0
F6KCrIn2,1.5048,-0.014013,,2,3.0
CaCoGe2,0.0,-0.0167418,,2,3.0
Al3Si2AuTh3,0.0,-0.0450347,,2,3.0
AlSb3Np2,0.0,-0.0556209,,2,3.0
Li4O6CuSb,0.4318,-0.0100601,,2,3.0
CsAu4Tl6,0.0,-0.0682083,,2,3.0
ZnHf3Au2,0.0,-0.0571415999999999,,2,3.0
LiF6AlCs2,7.1713,-0.0141289,,2,3.0
HBr2Er2,0.0,-0.0299889,,2,3.0
RuHf2Re,0.0,-0.0585304,,2,3.0
GeSe8Nb4,0.0,-0.0248480999999999,,2,3.0
HSe2In,0.579,-0.0196358,,2,3.0
HRh3Bi,0.0,-0.0367138,,2,3.0
F9MgK3Cu2,0.0,-0.0088883,,2,3.0
Be5Rh,0.0,-0.0097216,,2,3.0
O4NaCaV,3.6986,-0.0108192,,2,3.0
RuIrAc2,0.0,-0.0718881,,2,3.0
F6MgTb,0.0,-0.0125351,,2,3.0
Ga2Rh2Th,0.0,-0.0401308,,2,3.0
Cu7As,0.0,-0.0157962,,2,3.0
Ti2GaMo,0.0,-0.0212640999999999,,2,3.0
CoCuTm2,0.0,-0.0343213999999999,,2,3.0
ScZr2Au,0.0,-0.0366685,,2,3.0
Ge3LaPt,0.0,-0.0350341,,2,3.0
SeSnTb,0.0,-0.0356102,,2,3.0
B4O9GeCs2,4.2826,-0.0137459,,2,3.0
MgCu2Ag,0.0,-0.0167294,,2,3.0
Al2Co4La3,0.0,-0.02393,,2,3.0
O7V2Sr3,0.0,-0.0151694999999999,,2,3.0
NiRhHo2,0.0,-0.0377078,,2,3.0
F6InNd,5.9873,-0.0157291,,2,3.0
MgS4MnIn,0.0,-0.0146130999999999,,2,3.0
Cu3Rh2Th,0.0,-0.0352417,,2,3.0
Ba5Au,0.0,-0.0447526,,2,3.0
Al2Ge4Pr3,0.0,-0.0253462,,2,3.0
CuSe3LuTl,0.0,-0.0348706,,2,3.0
CoRh2Pt,0.0,-0.0388504999999999,,2,3.0
LiGd2Os,0.0,-0.048194,,2,3.0
AsSeSm2,0.0,-0.034231,,2,3.0
NiRu3,0.0,-0.0300673999999999,,2,3.0
LiMg2Au,0.0,-0.0210198,,2,3.0
As4Nb5Pd4,0.0,-0.0296419,,2,3.0
H6GeCs2Tl,0.0,-0.0187944,,2,3.0
CuAs3Hf2,0.0,-0.0342207999999999,,2,3.0
CGeTa2,0.0,-0.0410783,,2,3.0
Li2SrPd2,0.0,-0.0189698999999999,,2,3.0
O4Na2S,5.1063,-0.0081862,,2,3.0
CSbHf2,0.0,-0.0440006,,2,3.0
Sc2YAu,0.0,-0.031954,,2,3.0
MgTiCo2,0.0,-0.0140676,,2,3.0
NiAgCd2,0.0,-0.0270684,,2,3.0
NSnTb3,0.0,-0.038314,,2,3.0
Nb3Ir,0.0,-0.0431758,,2,3.0
CInHf2,0.0,-0.0430196,,2,3.0
MgPd2Ce2,0.0,-0.0325538,,2,3.0
H12B12BrRb3,4.8164,-0.0081272,,2,3.0
Al3Ge2Tb3Au,0.0,-0.0309552,,2,3.0
MgRu2Tb3,0.0,-0.0362002,,2,3.0
In2LaTm,0.0,-0.0410413,,2,3.0
SiRh2Dy2,0.0,-0.0357025,,2,3.0
Ge2Sn2Ba,0.0,-0.0302176,,2,3.0
AgPtAu,0.0,-0.0569303,,2,3.0
LiCo2As2Eu,0.0,-0.0224752,,2,3.0
H2ZnTa2,0.0,-0.030771,,2,3.0
Be2N2Sr,1.9173,-0.0111808999999999,,2,3.0
MgSn2Er2,0.0,-0.0361854999999999,,2,3.0
SiRh3Dy2,0.0,-0.0355925999999999,,2,3.0
AlFe2Dy2,0.0,-0.0280637,,2,3.0
N6Cr2Tm3,0.0,-0.0238777,,2,3.0
O2MgBrSb,2.7999,-0.0166631,,2,3.0
O6PdBa2Er,0.0,-0.0224014999999999,,2,3.0
AlCrZn2,0.0,-0.0134034,,2,3.0
MgSnNd2,0.0,-0.0325216,,2,3.0
ZnTa8,0.0,-0.0606802,,2,3.0
Ca2SePd,0.0945,-0.0192091,,2,3.0
O6MoBa2Tm,0.0,-0.0234319,,2,3.0
LiKBa2,0.0,-0.0224027,,2,3.0
O4Na4Mn,0.1159,-0.0084875,,2,3.0
Ce2TlPb,0.0,-0.0598327,,2,3.0
Y3Ir,0.0,-0.0392613,,2,3.0
O4MoDy,0.0,-0.0208778,,2,3.0
C2Y,0.0,-0.0163662,,2,3.0
O5Fe2Cs6,0.4719,-0.0240589,,2,3.0
CuRu2Ho2,0.0,-0.0369373999999999,,2,3.0
CaRhLa2,0.0,-0.0328665,,2,3.0
Y2Au2Tl,0.0,-0.0542599999999999,,2,3.0
PSSm,0.0,-0.023202,,2,3.0
CoNiDy2,0.0,-0.0325596,,2,3.0
O6Si2CoZn,0.0,-0.0111926,,2,3.0
MgZrAu2,0.0,-0.0443264,,2,3.0
Si2CoHo2,0.0,-0.0278188,,2,3.0
NCa2Tl,0.0,-0.0260853,,2,3.0
AlGd2Pt2,0.0,-0.0544433,,2,3.0
CaCu2Tm,0.0,-0.0231117,,2,3.0
ScI3,1.9392,-0.0324791,,2,3.0
Co2Sn3La3,0.0,-0.0345348,,2,3.0
S8V4Zn,0.0,-0.0132807999999999,,2,3.0
NiAsNd,0.0,-0.0277786,,2,3.0
O2CsPu,0.0,-0.0424927,,2,3.0
YTl2Ac,0.0,-0.0663071,,2,3.0
OAg3,0.0,-0.0252093,,2,3.0
FeAs2Nb6,0.0,-0.0289968,,2,3.0
O12NaSb3Ba4,1.7051,-0.0198059,,2,3.0
O6Ca2CuRu,0.0,-0.0125972,,2,3.0
GaBrTh,0.0,-0.0450726,,2,3.0
CCoEr,0.0,-0.0262862,,2,3.0
MgScTe2,0.0,-0.0244482,,2,3.0
Li2ZrAu2,0.0,-0.0353606,,2,3.0
PDyIr,0.0,-0.044465,,2,3.0
O6NaSbW,2.742,-0.0184661,,2,3.0
SbHoEr,0.0,-0.0463702,,2,3.0
Al4Ge2Er3,0.0,-0.0250687,,2,3.0
SrAgSn3,0.0,-0.0326544,,2,3.0
YHoBi,0.0,-0.0525338,,2,3.0
CaSrBa,0.0,-0.0237935,,2,3.0
Zr3Rh2In3,0.0,-0.0332328,,2,3.0
S2MnCuRb,0.1799,-0.0157186,,2,3.0
P2Cr2U,0.0,-0.0327574,,2,3.0
Ti3Mn2Ga3,0.0,-0.0170385999999999,,2,3.0
O3ICs,2.6962,-0.0197279,,2,3.0
Ge2Sn3La3Ir,0.0,-0.0392997,,2,3.0
Mg2Sn2Cs,0.0,-0.0241662999999999,,2,3.0
NaCu2Sb2Sm,0.0,-0.0261982,,2,3.0
O4SmTh,0.0,-0.0310824,,2,3.0
CuZnLa,0.0,-0.0242556,,2,3.0
BeP2Ga,0.0,-0.0106036,,2,3.0
O7RbLaTa2,2.2128,-0.0250702,,2,3.0
Al2Sn2Ba3,0.0,-0.03003,,2,3.0
S4As2Ba,1.7008,-0.0177374,,2,3.0
CCo3Sm,0.0,-0.0211973999999999,,2,3.0
AlCa2Ga,0.0,-0.0111769,,2,3.0
Li2SiSm,0.0,-0.015195,,2,3.0
S2Se2Mo3Te2,0.0,-0.0270937,,2,3.0
NaNi2As2Ho,0.0,-0.0217137,,2,3.0
H2CoHf2,0.0,-0.0303568,,2,3.0
Se4Cd2Sn,0.6362,-0.0258389999999999,,2,3.0
Zn2Dy,0.0,-0.025428,,2,3.0
Be2NiZr,0.0,-0.0142513,,2,3.0
Zn2GaNd2,0.0,-0.0265842999999999,,2,3.0
N2TiEu,0.0,-0.0237434,,2,3.0
SrLa3Ir,0.0,-0.0449429,,2,3.0
Li4O5KCr,0.1661,-0.0082241,,2,3.0
BAl2NdOs2,0.0,-0.035707,,2,3.0
Si2CuEr,0.0,-0.0219786,,2,3.0
CoGa4Dy,0.0,-0.02228,,2,3.0
Al5RhTa,0.0,-0.0203873,,2,3.0
SiI2Sm2,0.0,-0.0357457,,2,3.0
KTe2Sm,1.0709,-0.0334129,,2,3.0
Y3Pd5,0.0,-0.0318044,,2,3.0
NiRhPt,0.0,-0.0401136,,2,3.0
CoILa,0.0,-0.0331336999999999,,2,3.0
Te2Sm,0.0,-0.0410195,,2,3.0
CuZn2Mo,0.0,-0.0192874,,2,3.0
CoSe2Br,0.0,-0.0194766,,2,3.0
O4NbBi,2.3537,-0.0249098,,2,3.0
TiCo2Hf2,0.0,-0.0354018,,2,3.0
N3CrSm,0.1892,-0.0190842,,2,3.0
GeLuAu,0.0,-0.0488793,,2,3.0
Si2InIr2,0.0,-0.0397009,,2,3.0
CuGa6Ba,0.0,-0.0194667,,2,3.0
Si2CuGa3Ho3,0.0,-0.0263698,,2,3.0
CrRh3,0.0,-0.0301262,,2,3.0
As2Sn2Pu,0.0,-0.0447575,,2,3.0
Be2Pd2Ag,0.0,-0.0215885,,2,3.0
Zr2CdTa,0.0,-0.0396525999999999,,2,3.0
Cl2SeNd2,0.0,-0.0268263,,2,3.0
AgTeAu,0.0,-0.0459783,,2,3.0
NiYSn2,0.0,-0.0295667,,2,3.0
Al3RhTb3Pb2,0.0,-0.0395803999999999,,2,3.0
COAlSm,0.4039,-0.018866,,2,3.0
F6RhBa,0.0,-0.0145169999999999,,2,3.0
Al3Si2CrSm3,0.0,-0.0222993999999999,,2,3.0
In6BaPt,0.0,-0.0392864999999999,,2,3.0
AlScGe,0.0,-0.0143391,,2,3.0
F6MgK2Cu,0.0,-0.0087464,,2,3.0
H8Mg2CrCe,0.0034,-0.0087116,,2,3.0
LaNdBi,0.0,-0.0559336,,2,3.0
LiCAl,0.8424,-0.0069885,,2,3.0
CrMn4Tc,0.0,-0.0209683,,2,3.0
H2Sc2In,0.0,-0.0144944,,2,3.0
Nb2InIr2,0.0,-0.0488874,,2,3.0
Li2In2Pt,0.0,-0.0288954999999999,,2,3.0
Cl6K3Mn,0.4166,-0.0109528,,2,3.0
GeNbSb,0.0,-0.0302283,,2,3.0
Al2Zn2Sr,0.0,-0.0133109,,2,3.0
CdInSm2,0.0,-0.0387311,,2,3.0
LiCrRh2,0.0,-0.0223099,,2,3.0
Al3ScCu2,0.0,-0.0117340999999999,,2,3.0
O7K2SrTa2,2.0242,-0.0209683,,2,3.0
Al3Y3Sn2Ir,0.0,-0.0286737,,2,3.0
Al2Se4Eu,0.6057,-0.0227433,,2,3.0
YPt2Tl,0.0,-0.0610179,,2,3.0
Na2InTl2,0.0,-0.0374508,,2,3.0
Sc2ZnAs,0.0,-0.0164578999999999,,2,3.0
F6NaK2Cr,2.1487,-0.0092142,,2,3.0
Ti2SnIr2,0.0,-0.0428925,,2,3.0
B4O12Sc3Ce,0.0105,-0.0128991,,2,3.0
AlSe4Ag2In,0.448,-0.0236091,,2,3.0
BTi3Sn,0.0,-0.0188395,,2,3.0
ScYTe2,0.0,-0.0304841,,2,3.0
Zn2Zr2Ag,0.0,-0.0242521,,2,3.0
AsRhTm,0.0,-0.0365461,,2,3.0
N2Eu,0.0,-0.024902,,2,3.0
S8Ti3NiCu2,0.0,-0.0133755,,2,3.0
AgPm2Pb,0.0,-0.0493774,,2,3.0
MnY2Ru2,0.0,-0.0290923,,2,3.0
NO4Ho,2.7789,-0.0156907999999999,,2,3.0
Ti2TcRu,0.0,-0.0262563,,2,3.0
O3Rb3Sb,2.2629,-0.0184996,,2,3.0
Li2Mg2Ge2La,0.0,-0.0142338,,2,3.0
Rh2Ba2Hg,0.0,-0.043258,,2,3.0
Ge2PdIn3Tm3,0.0,-0.0370429,,2,3.0
AlGe2Pu2,0.0,-0.0535526,,2,3.0
F8Sr2Ba,0.4983,-0.013566,,2,3.0
F6Mg,2.1052,-0.0052104,,2,3.0
O8As2CsPu,0.0,-0.0217285,,2,3.0
F6EuHo,0.0,-0.0194589,,2,3.0
NMn2Pd,0.0,-0.020072,,2,3.0
MgSnHg2,0.0,-0.0443224,,2,3.0
O4TmPu,0.0615,-0.0346629,,2,3.0
LiF6K2As,4.5361,-0.0087489,,2,3.0
F6TmIr,2.0711,-0.0209149,,2,3.0
NaCaAg2,0.0,-0.0192897,,2,3.0
AlNi2La,0.0,-0.0213487,,2,3.0
PSeU,0.0,-0.045595,,2,3.0
F4InPb,2.612,-0.0229312,,2,3.0
Ti2TcRh,0.0,-0.0261085,,2,3.0
F6NaTiRb2,0.0,-0.0115845,,2,3.0
CdEr3Os2,0.0,-0.0546528,,2,3.0
LiTmPb2,0.0,-0.05191,,2,3.0
Cr2Ge2Ce,0.0,-0.0242204,,2,3.0
KNiIn3,0.0,-0.0250758,,2,3.0
YSn2Eu,0.0,-0.0390944,,2,3.0
LiAs2Rh2Tb,0.0,-0.0272113,,2,3.0
MgPdPt2,0.0,-0.0451549,,2,3.0
AlCaGe,0.0,-0.0126803,,2,3.0
K3RbCd,0.0,-0.0152068,,2,3.0
Zn3NdPt2,0.0,-0.0382396,,2,3.0
Li2Ca2Ag,0.0,-0.0111638,,2,3.0
Cu2InSm2,0.0,-0.0309775999999999,,2,3.0
CaYCd4,0.0,-0.0269197999999999,,2,3.0
Na2S3Ti,0.9834,-0.0103766,,2,3.0
Ga2RuDy,0.0,-0.0295108,,2,3.0
AsRuPu,0.0,-0.0555765,,2,3.0
K2Br6HgBi,0.0,-0.0290577,,2,3.0
MgPrPt,0.0,-0.0405653,,2,3.0
Zn3Ru2Er,0.0,-0.0270147,,2,3.0
PFeIr,0.0,-0.0336296,,2,3.0
ZnSm2Pt2,0.0,-0.0496584,,2,3.0
CaNiGa5,0.0,-0.0157602,,2,3.0
Cr4NiOs,0.0,-0.0268401999999999,,2,3.0
MnCo2La2,0.0,-0.0277748999999999,,2,3.0
ScRu2Tm,0.0,-0.0345193,,2,3.0
LiNiPb,0.0,-0.0315857,,2,3.0
NaMgSr2,0.0,-0.0134270999999999,,2,3.0
TiPdIn,0.0,-0.0279320999999999,,2,3.0
Ge2HgTh2,0.0,-0.0602404,,2,3.0
N2Ca2Zn,0.6623,-0.011172,,2,3.0
NaLa2Hg2,0.0,-0.0458853,,2,3.0
In5AuTh,0.0,-0.0477535,,2,3.0
MgLaHg2,0.0,-0.0467734999999999,,2,3.0
TcAgTm2,0.0,-0.0427674,,2,3.0
O2Na2Mn,0.0,-0.0094448,,2,3.0
CuBr6Cs2Pr,2.2067,-0.0267952,,2,3.0
O6Sr2HfTa,0.0,-0.0244923,,2,3.0
Sb2EuAu,0.0,-0.0500386,,2,3.0
F6K3Ir,2.3166,-0.0141894,,2,3.0
PdCdPr,0.0,-0.0362466,,2,3.0
ScSe3,0.0,-0.0197488,,2,3.0
BV,0.0,-0.0133542,,2,3.0
OTm3Pt,0.0,-0.0483916,,2,3.0
Ce2HgTl,0.0,-0.0578488,,2,3.0
Li2Mg2Ge2Sr,0.0,-0.0112135,,2,3.0
Rb2AgHg2,0.0,-0.0419836,,2,3.0
LaSmHg2,0.0,-0.0566578,,2,3.0
NaAl4,0.0,-0.0070258,,2,3.0
NNa2Ir,0.0,-0.0223613,,2,3.0
KCdIn,0.0,-0.024253,,2,3.0
RhTlTh,0.0,-0.0680247,,2,3.0
N5Al3Sr3,2.2021,-0.0137482,,2,3.0
Si2Zr2Rh,0.0,-0.0241478,,2,3.0
CuSe2Pr,0.5193,-0.0260208,,2,3.0
Cd2DyAu,0.0,-0.0450476,,2,3.0
Co3Ni2Ho,0.0,-0.0223794,,2,3.0
Mg2Zn2Se,0.0,-0.0117242,,2,3.0
AlLaTl,0.0,-0.0415938999999999,,2,3.0
Li2O7Cr2,2.3008,-0.0097457999999999,,2,3.0
CuSe3BaDy,0.782,-0.0289070999999999,,2,3.0
LiCuSn,0.0,-0.0180758,,2,3.0
Fe4TaPt,0.0,-0.0351451,,2,3.0
Mg2ZnLa,0.0,-0.0168887,,2,3.0
AgHg2Tl,0.0,-0.0599611,,2,3.0
LiMgSe2Cs,2.7191,-0.0185708,,2,3.0
Fe2Rh3Ba,0.0,-0.0296021,,2,3.0
Al5EuIr,0.0,-0.0239886,,2,3.0
GaPr,0.0,-0.0305338,,2,3.0
KAgTe3Ta,0.0,-0.0367946,,2,3.0
S3KCdSm,2.4237,-0.0202891,,2,3.0
NbSnSb,0.0,-0.0356806,,2,3.0
RhHf2,0.0,-0.0537847,,2,3.0
Al6YPr,0.0,-0.0151697,,2,3.0
Br2Cd,2.798,-0.0240895,,2,3.0
CaCePb2,0.0,-0.0521096999999999,,2,3.0
PZnPd5,0.0,-0.0273408,,2,3.0
CdLuHg,0.0,-0.0518429,,2,3.0
O6Ti2Pr,0.0,-0.0156868,,2,3.0
Sc2YCd2,0.0,-0.0237196,,2,3.0
FeNi3Se4,0.0,-0.018674,,2,3.0
NFeGeBa2,0.0,-0.025638,,2,3.0
CePt2Hg,0.0,-0.0640254,,2,3.0
SKCs,2.4821,-0.0198484,,2,3.0
OZnAsTm,1.0812,-0.0249738,,2,3.0
Ta5W3,0.0,-0.0678211,,2,3.0
RuHo2Pt,0.0,-0.0517385999999999,,2,3.0
F6CeTl,0.0,-0.0203003,,2,3.0
KAs2Sr,0.0,-0.018571,,2,3.0
LiAs2CeAu2,0.0,-0.0384596,,2,3.0
PdBaPb,0.0,-0.0500879,,2,3.0
LiGeAg,0.0,-0.0177952,,2,3.0
PtAuPu2,0.0,-0.0903418,,2,3.0
O4K2Cr,2.9554,-0.0107499,,2,3.0
B4TiLu,0.0,-0.0177327,,2,3.0
N3MoEu,0.0,-0.0240784,,2,3.0
Ga2LuPt2,0.0,-0.0467822,,2,3.0
O2Ho2Bi,0.0,-0.0407806,,2,3.0
Al3Si2Tb3Re,0.0,-0.0289433,,2,3.0
O2FRbBi,0.0,-0.0246917,,2,3.0
LiBr6SnCs2,0.0,-0.0245133,,2,3.0
CoZnY2,0.0,-0.0219656,,2,3.0
H4ScRu3,0.0,-0.0168197,,2,3.0
Rh7Te,0.0,-0.0342524,,2,3.0
PSrSn,0.0,-0.023718,,2,3.0
AlTb2Ir2,0.0,-0.0498126,,2,3.0
Be2SiCo,0.0,-0.0092845,,2,3.0
K2ScBr6Ag,2.7105,-0.0195026,,2,3.0
S3KAgDy,0.0,-0.0207205,,2,3.0
LiAl4Y,0.0,-0.0105405,,2,3.0
Al7Au,0.0,-0.0155837,,2,3.0
BrSr2Cd,0.0,-0.024612,,2,3.0
MnTc2,0.0,-0.0294667999999999,,2,3.0
Ru2CdHf3,0.0,-0.0486451,,2,3.0
Al4Si2Tm3,0.0,-0.0235153,,2,3.0
OPCdCe,0.0,-0.0247769,,2,3.0
Pr2Pt2Pb,0.0,-0.0617121,,2,3.0
Na2In2Tl,0.0,-0.029638,,2,3.0
O4Cu2As2YTe2,0.0,-0.0194036,,2,3.0
Ga2Cd2Er,0.0,-0.0291623,,2,3.0
CaAsPr,0.0,-0.0254406,,2,3.0
MgGa2Tm2,0.0,-0.0288785999999999,,2,3.0
In5IrPu,0.0,-0.0500339,,2,3.0
FeBr4Cs2,0.1312,-0.0259233,,2,3.0
F6NaK2Tm,6.4391,-0.0129557,,2,3.0
AsI,0.8053,-0.0285442,,2,3.0
H3HfIr,0.0,-0.0293133,,2,3.0
RhPdTa2,0.0,-0.0503652,,2,3.0
B4ScTi,0.0,-0.0109835,,2,3.0
Al3NiY3Sn2,0.0,-0.0223768,,2,3.0
Li2Mg2Ge2Pu,0.0,-0.0235600999999999,,2,3.0
CrGa3Ge2La3,0.0,-0.0267951,,2,3.0
H12O6F6SiCr,0.7154,-0.0066439,,2,3.0
HFeGeEr,0.0,-0.0232473,,2,3.0
LiPd2Lu,0.0,-0.0316256,,2,3.0
Sc2AsSb,0.0,-0.0227612999999999,,2,3.0
Ni2SnDy2,0.0,-0.0334290999999999,,2,3.0
Mn3Ge2Er,0.0,-0.0243256,,2,3.0
Be2Nb2Ir,0.0,-0.0297632,,2,3.0
Tc3Ta5,0.0,-0.0552044,,2,3.0
F6RhLu,1.7615,-0.0168678999999999,,2,3.0
O2CsEu,0.0,-0.0283956,,2,3.0
ScMnCu4,0.0,-0.0157948,,2,3.0
Li3OF7Ni3,0.7831,-0.0086722999999999,,2,3.0
CaFeLa3,0.0,-0.0312935,,2,3.0
Ca2Ge2Rh,0.0,-0.018973,,2,3.0
Al2Tb,0.0,-0.0213101,,2,3.0
Ga2CdPr2,0.0,-0.0305813999999999,,2,3.0
GaRu2Ac,0.0,-0.0444351,,2,3.0
O4TiNp,0.0,-0.0280517,,2,3.0
Se3Th2,0.0,-0.0521466,,2,3.0
CdEr2Au2,0.0,-0.0548504999999999,,2,3.0
N6Ca5Mn2,0.0,-0.0117627,,2,3.0
HF2Rb,6.8244,-0.0101929999999999,,2,3.0
CuHo,0.0,-0.0324208,,2,3.0
OClTm,4.4905,-0.0254897,,2,3.0
BY2Pd6,0.0,-0.0297667,,2,3.0
Li3ErBi2,0.0,-0.0364844999999999,,2,3.0
Se3BaNdPt,0.0,-0.0372312999999999,,2,3.0
C2FeDy,0.0,-0.0218202,,2,3.0
MgIr4Pu,0.0,-0.0670508,,2,3.0
MnCo2Er2,0.0,-0.0308822,,2,3.0
MnSmPt2,0.0,-0.0518121,,2,3.0
OY3,0.0,-0.0239719,,2,3.0
P2Ca,0.0,-0.0109779,,2,3.0
CuNd2Os,0.0,-0.0437081,,2,3.0
Cl3Gd,2.2834,-0.0231765,,2,3.0
SiCo3Tb2,0.0,-0.0262355,,2,3.0
Al5Ni2Gd,0.0,-0.0168761,,2,3.0
Sm2HgTl,0.0,-0.0580035,,2,3.0
O2MgClSb,3.247,-0.0144967,,2,3.0
H3TiIr,0.0,-0.0198936,,2,3.0
AlGaY,0.0,-0.0179958,,2,3.0
SBa,1.9619,-0.0269587,,2,3.0
CuHoHg,0.0,-0.0445847,,2,3.0
Ti2RhW,0.0,-0.0343641,,2,3.0
Si2LuOs2,0.0,-0.0446144,,2,3.0
Ni2Rh3La,0.0,-0.029838,,2,3.0
ZnTm3Os2,0.0,-0.0525893999999999,,2,3.0
AgGd2Hg,0.0,-0.0547635,,2,3.0
Sr2YAu2,0.0,-0.0429155,,2,3.0
NiIn3Ba,0.0,-0.0315519,,2,3.0
Al5Fe2Pr,0.0,-0.0151276,,2,3.0
ZnSb2Eu,0.0,-0.0360736,,2,3.0
Sn2CsTl2,0.0,-0.0510479,,2,3.0
Fe2CuZn,0.0,-0.0162518,,2,3.0
Mg4As3Cs,1.1524,-0.0155718,,2,3.0
GaPt2Th2,0.0,-0.0709449,,2,3.0
RuWPt,0.0,-0.0583904,,2,3.0
Mg2GePd3,0.0,-0.0219317,,2,3.0
SNi3,0.0,-0.0146563,,2,3.0
O4SbDy,2.1567,-0.0209363999999999,,2,3.0
AlPr2Au2,0.0,-0.0474545,,2,3.0
N6Mn2Pr3,0.0,-0.0213555,,2,3.0
CuInGd,0.0,-0.0362121,,2,3.0
HSiCaGa,0.0391,-0.0103003,,2,3.0
MgCo2Tb2,0.0,-0.0267036,,2,3.0
AlPtTh,0.0,-0.0592295,,2,3.0
FeTc2Re,0.0,-0.0397815,,2,3.0
SiAu2Th,0.0,-0.0617442,,2,3.0
Cl6K2AgNd,3.1536,-0.0159048,,2,3.0
Ni4CdTm,0.0,-0.0248535,,2,3.0
BGa2LaRe2,0.0,-0.038026,,2,3.0
AlSc6Bi2,0.0,-0.0283412,,2,3.0
FeNi4Tm,0.0,-0.0227022,,2,3.0
F4ZnEr,3.3308,-0.0165138,,2,3.0
O3F3NaK2Mo,2.5224,-0.0110912,,2,3.0
Co2As2Gd,0.0,-0.0274938,,2,3.0
Co2NiHf,0.0,-0.0286500999999999,,2,3.0
O8Cr4CuCd,0.0,-0.0141898,,2,3.0
SbDyTh,0.0,-0.0610454,,2,3.0
CoTcTa2,0.0,-0.0467682,,2,3.0
BNCePt,0.0,-0.0342051,,2,3.0
F6NiRh,0.0,-0.0108259,,2,3.0
LiY2Sb,0.0,-0.0245107,,2,3.0
O6Na3Cd2Sb,1.4867,-0.0140113,,2,3.0
Rh7Lu,0.0,-0.0368302,,2,3.0
H8CrMn2Eu,0.0,-0.0115036,,2,3.0
CuTe2Th6,0.0,-0.0744065,,2,3.0
O4Sb2ISm,0.6477,-0.024594,,2,3.0
LiS2Pu,0.0,-0.0345597,,2,3.0
Sc2Co3Re,0.0,-0.0255211,,2,3.0
In2LaPb,0.0,-0.0470219,,2,3.0
MnTe2Th6,0.0,-0.0747235,,2,3.0
GeRhNd,0.0,-0.0331531,,2,3.0
Y3In3Au2,0.0,-0.0411685,,2,3.0
AlFe3Tb2,0.0,-0.0260799,,2,3.0
GaAgSm2,0.0,-0.0346550999999999,,2,3.0
MgPTc,0.0,-0.0173359999999999,,2,3.0
TmIrBi,0.0,-0.0679897,,2,3.0
NO3Ag,1.5107,-0.01215,,2,3.0
Sn3Hg,0.0,-0.0437766,,2,3.0
F6Cs2Pt,2.581,-0.0209258999999999,,2,3.0
BeRh2Pt,0.0,-0.0359283,,2,3.0
Dy2HgPb,0.0,-0.0605501,,2,3.0
In2SbTl,0.0,-0.044057,,2,3.0
Al2Lu,0.0,-0.024127,,2,3.0
MgAl2Au,0.0,-0.0229943999999999,,2,3.0
CuHo2Os,0.0,-0.0466706,,2,3.0
CCl5Sm4,0.0,-0.0247116,,2,3.0
Al3Si2CuHo3,0.0,-0.0235193,,2,3.0
Cl3Tb,3.5548,-0.0201999,,2,3.0
ZrTe4,0.0,-0.0365636,,2,3.0
Te2BaPb,1.5597,-0.0486104,,2,3.0
O6MnSr2Mo,0.0,-0.0161964,,2,3.0
Rh2In3Pr3,0.0,-0.0379254,,2,3.0
CaIn2Eu,0.0,-0.0331579,,2,3.0
LuIr7,0.0,-0.0694888,,2,3.0
Si6Ca2Sr,0.0,-0.0116773,,2,3.0
Si2FeGa3Tb3,0.0,-0.025893,,2,3.0
Se3CsSmHg,1.3162,-0.0365313,,2,3.0
Se6MoW2,1.0395,-0.0333298,,2,3.0
Li5O5Hf,0.0,-0.0120444,,2,3.0
ZnCdIn2,0.0,-0.0275949,,2,3.0
LiC6N6FeCs2,0.0,-0.0134859,,2,3.0
H2F4Ca,7.6936,-0.0071475,,2,3.0
Cu3Se4Bi,0.0,-0.0257471999999999,,2,3.0
FeGa8Er2,0.0,-0.0231785,,2,3.0
Pd2Tm3Au,0.0,-0.0494356,,2,3.0
KTcSb2,0.0,-0.0296765,,2,3.0
N3CrBa,0.0,-0.0179624,,2,3.0
LiPtTl,0.0,-0.0486995999999999,,2,3.0
MnFeTc2,0.0,-0.0264255,,2,3.0
Li2O,4.8672,-0.0056929999999999,,2,3.0
BeSe2Ag,0.0,-0.0193424,,2,3.0
LiS2Rb,0.0,-0.0115824999999999,,2,3.0
CeEr3,0.0,-0.0488463,,2,3.0
Cu4Ge2Dy3,0.0,-0.0274944,,2,3.0
AlSrTl2,0.0,-0.0440058,,2,3.0
Ca2Ni2Tl,0.0,-0.0250395,,2,3.0
P3Zn3Sm,0.0,-0.0172943,,2,3.0
Co2GaLa2,0.0,-0.0276139,,2,3.0
K2As2Pb,0.0,-0.0269712,,2,3.0
GaNbRu,0.0,-0.0285855,,2,3.0
KGa2Pd,0.0,-0.0188648999999999,,2,3.0
O2CuDy,2.6278,-0.0214793,,2,3.0
P2Ni2Tm,0.0,-0.0220631,,2,3.0
O7In2Sb2Ba,2.7955,-0.0204523,,2,3.0
Cu4GaIn,0.0,-0.0184146,,2,3.0
O6NaTb2W,0.0241,-0.0234212,,2,3.0
TmPt2Pu,0.0,-0.0765831,,2,3.0
Al3Lu,0.0,-0.0200758,,2,3.0
Si2In3Dy3Pt,0.0,-0.0378814,,2,3.0
Cl4FeZn,0.0,-0.0117138,,2,3.0
GaGeRu2,0.0,-0.0266112,,2,3.0
CaCuY,0.0,-0.0176688,,2,3.0
AgInSm,0.0,-0.0369444,,2,3.0
Fe3Ge,0.0,-0.0185338,,2,3.0
F6NaCr,0.0,-0.0080348,,2,3.0
ScCo4Ni,0.0,-0.0166955999999999,,2,3.0
Na2Au2Hg,0.0,-0.0433359,,2,3.0
Se4BaAu2Pb,0.0,-0.0424366,,2,3.0
Ni2SnLa2,0.0,-0.0314567,,2,3.0
NaTi3O6,0.0,-3.243977648637931,mp-1221025,2,3.0
ScCd2,0.0,-0.0253655,,2,3.0
GaHgPu2,0.0,-0.0763002,,2,3.0
ScIrBi,0.0,-0.0554238,,2,3.0
LiF6Rb2Sn,0.0,-0.0128734,,2,3.0
AgI,1.3895,-0.0342899,,2,3.0
F5Zr,0.4804,-0.0112479,,2,3.0
Al2Cu4Sm3,0.0,-0.0236825,,2,3.0
Ti2Ga2Tc,0.0,-0.0205366,,2,3.0
Pd2InDy2,0.0,-0.0398894,,2,3.0
NaPSe2,0.9451,-0.014232,,2,3.0
Al3RuBa,0.0,-0.0200213999999999,,2,3.0
C2FePu,0.0,-0.0370715,,2,3.0
O8V2Sr3,3.6184,-0.0148084,,2,3.0
BaPtBi,0.0,-0.0636767,,2,3.0
MgSr2Ag2,0.0,-0.0227198999999999,,2,3.0
BPd6Lu2,0.0,-0.0359354999999999,,2,3.0
O8S2KCs,0.0,-0.0112066,,2,3.0
CdSbAu2,0.0,-0.0516455,,2,3.0
AlSc2Tl,0.0,-0.0276194,,2,3.0
OZnSbEu,0.0,-0.0292493,,2,3.0
OCa6Sn2,0.1476,-0.0163193,,2,3.0
MgCo4Th,0.0,-0.0283823,,2,3.0
Al3Fe2Y,0.0,-0.0149158,,2,3.0
N2CaNb,0.0,-0.0166678,,2,3.0
H6MnY2,0.0,-0.0111385,,2,3.0
LiAgAu2,0.0,-0.0433926,,2,3.0
O6Ca2MoIn,0.0,-0.0150198,,2,3.0
S4NiHf2,0.0,-0.027121,,2,3.0
Ta5Re3,0.0,-0.0687076,,2,3.0
LiS2KMn,0.2831,-0.0110289,,2,3.0
Co2Eu,0.0,-0.0293049,,2,3.0
Na2ZnAg2,0.0,-0.0169034,,2,3.0
Na2ZrTe3,0.5998,-0.0262125,,2,3.0
Ge3Sm,0.0,-0.0259317,,2,3.0
B2N3Rh2La3,0.0,-0.0253344,,2,3.0
RhTmTl,0.0,-0.0533305,,2,3.0
F6Na2Ho,0.0,-0.0119839,,2,3.0
Cu2SnTh,0.0,-0.0409876999999999,,2,3.0
K2Br6Th,3.9276,-0.0273811,,2,3.0
Li3O8VCr4,0.0,-0.0116347,,2,3.0
Cr5Mo,0.0,-0.0210727,,2,3.0
Al3Ge2La3Ir,0.0,-0.0300005,,2,3.0
MgZn2Dy2,0.0,-0.0258735,,2,3.0
SiFeTb,0.0,-0.0255294,,2,3.0
Mg3Ac,0.0,-0.0264101,,2,3.0
H6RbRhCs2,2.7098,-0.0154948,,2,3.0
N2SmNp,0.0,-0.0439285,,2,3.0
SrSnI4,2.1387,-0.0353447,,2,3.0
Li3SeAg,0.1964,-0.0123255999999999,,2,3.0
Sr3Ac,0.0,-0.0392289,,2,3.0
GaIr2Pa2,0.0,-0.0725103,,2,3.0
MgLa4,0.0,-0.0355154,,2,3.0
Br6RhAgCs2,0.1054,-0.0268635,,2,3.0
Al3Ir2Au,0.0,-0.0400512,,2,3.0
O4PrLu,2.3944,-0.0237132,,2,3.0
LiNiSe2,0.0,-0.0153649,,2,3.0
Sc3CoY,0.0,-0.0176331,,2,3.0
NaCa3Pt,0.0,-0.0212235,,2,3.0
F6Rb3Tl,3.7818,-0.0181525999999999,,2,3.0
Ca3Tl2,0.0,-0.0352346999999999,,2,3.0
H2Sr2In,0.0,-0.0175316,,2,3.0
Pd2AgGd,0.0,-0.039514,,2,3.0
S3Au2,0.1902,-0.0334473,,2,3.0
Rh2NdTm,0.0,-0.0416154,,2,3.0