formula,bg,formation_energy,mp-id,fidelity,bg_category
LiP2ScPt2,0.0,-0.0306845,,2,3.0
Si2KZn2,0.0,-0.0110756,,2,3.0
Ag4Sm,0.0,-0.0341937,,2,3.0
LiDy2Os,0.0,-0.0428125,,2,3.0
O7K2SrNb2,1.3442,-0.0151989,,2,3.0
S2Cr2MnSe2,0.0166,-0.0173965,,2,3.0
TiSbLu,0.0,-0.0369534,,2,3.0
Ac,0.0,-0.0904577,,2,3.0
BaHg5,0.0,-0.0638029,,2,3.0
F5ZnAg,0.0267,-0.0105999,,2,3.0
Si2PdIn3Nd3,0.0,-0.0322691,,2,3.0
O6MgMoPb2,1.7081,-0.0248188,,2,3.0
B4VCr,0.0,-0.0115073,,2,3.0
H3NaNi,0.0,-0.0063802,,2,3.0
OSCuGd,1.3652,-0.0246519,,2,3.0
TiFeTe2,0.0,-0.0276484,,2,3.0
Li4O2F6Mn3,1.1372,-0.0092142,,2,3.0
O2La2Au,0.0,-0.0364223,,2,3.0
Cl2ScBr,2.2667,-0.014523,,2,3.0
MgAsY2,0.0,-0.0210075,,2,3.0
AgSb2Tl,0.0,-0.0444407,,2,3.0
Ge3Ac,0.0,-0.0374126,,2,3.0
Mg2PrDy,0.0,-0.0253691,,2,3.0
Ga4Ge2Sr3,0.0,-0.0194164,,2,3.0
F6NaHf,0.0,-0.0141275999999999,,2,3.0
F6NaRb2Ru,0.0,-0.0127805,,2,3.0
Ga2CeTb,0.0,-0.0316259,,2,3.0
AlNiEu,0.0,-0.0262188,,2,3.0
S4Ag2InEu,0.0,-0.0244071,,2,3.0
Al3Zr5,0.0,-0.0225118,,2,3.0
Sc2Sn,0.0,-0.0221269999999999,,2,3.0
ZrRh2,0.0,-0.0335763,,2,3.0
NaCd2Tl2,0.0,-0.0419736,,2,3.0
ZnSr2In,0.0,-0.0232547,,2,3.0
Al3RhLa2,0.0,-0.024597,,2,3.0
H3NiTh,0.0,-0.0249623,,2,3.0
AsCd3,0.0,-0.0278519,,2,3.0
P2Cu4Sr,0.0,-0.0152882,,2,3.0
K2CuBr6Bi,0.6037,-0.0238028,,2,3.0
RuPdLu2,0.0,-0.0454639,,2,3.0
ClK3,0.0,-0.0092753,,2,3.0
Si3Y4Zr,0.0,-0.0222839,,2,3.0
Ag3Hg,0.0,-0.0405521,,2,3.0
O10F2NaMg2Si4K,5.257,-0.0096969,,2,3.0
Si3Ti2Zr3,0.0,-0.0201563,,2,3.0
LiO6Si2V,0.0,-0.0106067,,2,3.0
PdIrAc2,0.0,-0.0719044,,2,3.0
S2RhCs,0.9324,-0.0235746,,2,3.0
Rh2Lu3Pb3,0.0,-0.0583958,,2,3.0
Al9SrRh2,0.0,-0.0139396,,2,3.0
Sn3Dy3Ir2,0.0,-0.050051,,2,3.0
S8NiAg2Sn3,0.0,-0.0192443,,2,3.0
Ga3Pt2,0.0,-0.0385917,,2,3.0
Sb3Pb5,0.0,-0.061265,,2,3.0
O8MgFe4Cu,0.0,-0.0118798,,2,3.0
RhSb2La,0.0,-0.0388141,,2,3.0
Mg3Sr2In5,0.0,-0.0230914,,2,3.0
Li2P2S6Fe,0.5992,-0.0099284,,2,3.0
Y2SnAu,0.0,-0.0411151,,2,3.0
O6ZnZrBi2,2.9975,-0.0258322,,2,3.0
AsAg2Pt,0.0,-0.038326,,2,3.0
F6GaNp,0.0228,-0.0211941,,2,3.0
KInBa2,0.0,-0.0304986,,2,3.0
Al3ZnSn2Er3,0.0,-0.0294261,,2,3.0
HGaBaPb,0.0,-0.0343624,,2,3.0
AgSmBi2,0.0,-0.0588135,,2,3.0
ZnAgBa,0.0,-0.0283958,,2,3.0
AsIBa2,1.0493,-0.0356702,,2,3.0
Si3CuPu,0.0,-0.0312757,,2,3.0
LiNiSb,0.0,-0.0190137,,2,3.0
FeGeY,0.0,-0.0221921,,2,3.0
CoNb2Re,0.0,-0.0388964,,2,3.0
Cl3GaRb,1.3468,-0.0137234,,2,3.0
CSrI,2.5782,-0.0240107,,2,3.0
SnTa,0.0,-0.0511875,,2,3.0
Al2Ni2Lu,0.0,-0.0212843,,2,3.0
Y2Tc,0.0,-0.0302965,,2,3.0
Sr(AlS2)2,3.6396,-1.752220800714285,mp-14424,2,3.0
ClSeRh,1.163,-0.0213336,,2,3.0
Zn2PdIr,0.0,-0.033087,,2,3.0
ZnRh2Nd,0.0,-0.0317092999999999,,2,3.0
N5NaTa3,0.0,-0.0289651,,2,3.0
GeInTh,0.0,-0.0499928,,2,3.0
Li2SbHg,0.0,-0.0280383999999999,,2,3.0
LiPr2Pt,0.0,-0.0404392,,2,3.0
Ni4ZnTm,0.0,-0.0220713,,2,3.0
Rh2CdDy,0.0,-0.0370738,,2,3.0
Zr3Tl5,0.0,-0.0568579,,2,3.0
O4RhBa2,0.0,-0.0218342999999999,,2,3.0
H6FeHo2,0.0,-0.0157836,,2,3.0
Cl2SnSm2,0.0,-0.0298756999999999,,2,3.0
FeMoW2,0.0,-0.0480185,,2,3.0
PrGdBi,0.0,-0.0610885,,2,3.0
In5CePt,0.0,-0.0408255,,2,3.0
FeY2Ir2,0.0,-0.0440292,,2,3.0
F5NiRb2,0.0,-0.0119719,,2,3.0
NiBrTe2,0.0,-0.02785,,2,3.0
F6NaCs2Nd,6.8267,-0.0179609999999999,,2,3.0
SiSc2Co3,0.0,-0.0155852,,2,3.0
PdTe2Ta,0.0,-0.043849,,2,3.0
In2La2Hg,0.0,-0.0448383,,2,3.0
Li2YIn2,0.0,-0.0203208,,2,3.0
GaSe8Ta4,0.0,-0.0349003,,2,3.0
OFGe2Br,1.6862,-0.014662,,2,3.0
N2Ca2Pt,0.0,-0.0225019999999999,,2,3.0
CuGe2In3Er3,0.0,-0.0344654,,2,3.0
B2O12Ti3Ba3,2.1927,-0.0160345,,2,3.0
SiSrAg,0.0,-0.0215752,,2,3.0
N2LaSm,0.0165,-0.0281944,,2,3.0
SrPt2Pb2,0.0,-0.0634592,,2,3.0
LiNRu,0.0,-0.0158489,,2,3.0
Ni3Ge2Dy,0.0,-0.0230245,,2,3.0
C2O6CrRb2,0.0,-0.0124438999999999,,2,3.0
TiHo6Bi2,0.0,-0.0523171,,2,3.0
NiIn2Dy,0.0,-0.0332241,,2,3.0
N3ICs2,4.1027,-0.0240979,,2,3.0
Si6Sr,0.0,-0.0118214,,2,3.0
O4K3Ta,4.015,-0.0169884999999999,,2,3.0
Ga5NdAu,0.0,-0.0282185,,2,3.0
MnGeHf,0.0,-0.0340238999999999,,2,3.0
RbSr3Au,0.0,-0.0317184,,2,3.0
Al9Fe2Sr,0.0,-0.0109846,,2,3.0
Cd2HoLu,0.0,-0.0417126,,2,3.0
Li2F8BaSm,0.0,-0.0132197999999999,,2,3.0
Mo6Ta,0.0,-0.039497,,2,3.0
O7Al4Sr,3.7944,-0.0114404,,2,3.0
LiF4Ir,0.8887,-0.0166244,,2,3.0
AlHfOsIr,0.3204,-0.0544281,,2,3.0
Ni3As8Zr4,0.0,-0.0230585,,2,3.0
Nd12Si5Se28,0.9246,-1.691515921013888,mp-1220668,2,3.0
MgIr2Th2,0.0,-0.0686995,,2,3.0
LiCaCd4,0.0,-0.0225702,,2,3.0
NaCu2As2Sm,0.0,-0.0206628,,2,3.0
CBiNp2,0.0,-0.075426,,2,3.0
AgSb2Pu,0.0,-0.0543410999999999,,2,3.0
Se2RuNd6,0.0,-0.0383091,,2,3.0
S3AgSbPb,0.0,-0.029155,,2,3.0
Zr2RuTl,0.0,-0.0425931,,2,3.0
GeAs2Te4,0.1101,-0.0297885,,2,3.0
CaGaPt,0.0,-0.0331475,,2,3.0
Be2FeOs,0.0,-0.0248157,,2,3.0
CaNi2Tl,0.0,-0.0287954,,2,3.0
NOGe2Ba6,0.0,-0.0300562,,2,3.0
LiTcHf2,0.0,-0.0409856,,2,3.0
Si2CoGd,0.0,-0.0247525,,2,3.0
Be2SiNi,0.0,-0.0089718,,2,3.0
AlPd2Pu,0.0,-0.0464191999999999,,2,3.0
LiNaClI,4.1923,-0.0144587,,2,3.0
PCuPu,0.0,-0.0458613,,2,3.0
Sc3Cu2Rh,0.0,-0.0184308,,2,3.0
P2K3Au3,0.9808,-0.0322805,,2,3.0
B2O6SrNb,0.0,-0.0135825999999999,,2,3.0
H2SiFe2,0.0,-0.0106485,,2,3.0
CO7NaPPr,0.087,-0.0124902,,2,3.0
F7KSb2,4.366,-0.013334,,2,3.0
CsPtTl3,0.0,-0.0652281,,2,3.0
ScTcW,0.0,-0.0398082,,2,3.0
YRh2Hg,0.0,-0.0414872,,2,3.0
MnZnTc,0.0,-0.0222508,,2,3.0
I2Ho2Pb,0.0,-0.0506332,,2,3.0
BCaPt4,0.0,-0.0504052,,2,3.0
B2O6K2Hf,3.9593,-0.0148767999999999,,2,3.0
Ni2CuZr,0.0,-0.0198857,,2,3.0
B6Tm,0.0,-0.01417,,2,3.0
Sc2Zr3,0.0,-0.0240454,,2,3.0
RuU2,0.0,-0.0807671,,2,3.0
O5S2Ti2U2,0.0,-0.0290783999999999,,2,3.0
LiTl2Bi2,0.0,-0.0609264999999999,,2,3.0
Al3Pd2Pu,0.0,-0.0338353,,2,3.0
AsZrPd,0.0,-0.028936,,2,3.0
P2Cu2RbEu,0.0,-0.0216177,,2,3.0
O2Ag2Pb,1.0831,-0.0307943,,2,3.0
Ga6AgU,0.0,-0.0291445,,2,3.0
KIn2Bi2,0.0,-0.046692,,2,3.0
In3Au4,0.0,-0.0540099,,2,3.0
CoSm6Pb2,0.0,-0.0488156,,2,3.0
AgSbTe2,0.0,-0.035863,,2,3.0
S2RbAu3,1.3485,-0.0417912999999999,,2,3.0
H6NiEu2,0.0,-0.0165809,,2,3.0
SnHgPb2,0.0,-0.0638371,,2,3.0
AlBrLa2,0.0,-0.0292983,,2,3.0
ClRuHo,0.0,-0.0318783,,2,3.0
KMnSe2,0.0,-0.0177108999999999,,2,3.0
H4Ti2Fe,0.0,-0.0095076,,2,3.0
B6Cr2Pu,0.0,-0.0217907,,2,3.0
Be2SrPt2,0.0,-0.0350993,,2,3.0
Co3Rh2,0.0,-0.0238551,,2,3.0
ClIn3Pt,0.0058,-0.0364204,,2,3.0
ZnTa2W,0.0,-0.0541534,,2,3.0
Co4YPr,0.0,-0.0233891,,2,3.0
LiYPb2,0.0,-0.0460249,,2,3.0
NiCe2Pt,0.0,-0.0446398,,2,3.0
Li2P2Pt,0.0,-0.0199839,,2,3.0
CSiMn2Ho,0.0,-0.0217161,,2,3.0
MgLaTl2,0.0,-0.048715,,2,3.0
ClZrTl2,0.0,-0.0465075,,2,3.0
Ga2RbIn2,0.0,-0.0242077999999999,,2,3.0
SiMoTa,0.0,-0.0375974,,2,3.0
F6YRu,0.0,-0.0135417,,2,3.0
P2FeTh2,0.0,-0.0473011,,2,3.0
Cl3CuTl,0.0,-0.0231234,,2,3.0
Fe2Rh3,0.0,-0.0275906,,2,3.0
NTiZnHf2,0.0,-0.0337678,,2,3.0
Na3Cl6Er,5.4153,-0.0133125,,2,3.0
Ag5Pt4,0.0,-0.0486195,,2,3.0
MgCo2Sm3,0.0,-0.0289432,,2,3.0
GaSnAc2,0.0,-0.0589065,,2,3.0
AsTbOs,0.0,-0.0470678,,2,3.0
Zn2RuNp,0.0,-0.0422795,,2,3.0
H8FeZn2Pu,0.0,-0.0152982999999999,,2,3.0
B4CrLu,0.2196,-0.017993,,2,3.0
ScGeTa,0.0,-0.0339742,,2,3.0
Ag3Th,0.0,-0.0475336,,2,3.0
LaAu5,0.0,-0.0654191,,2,3.0
MgZrCd2,0.0,-0.0243494,,2,3.0
Mg2Sb2Eu,0.0,-0.0284476,,2,3.0
Ge2IrPa,0.0,-0.0529101,,2,3.0
Li2GeHg,0.0,-0.023392,,2,3.0
Al2ZnPt,0.0,-0.0255122999999999,,2,3.0
S4TiCuSn,0.0,-0.0159406,,2,3.0
LiCu2Sb,0.0,-0.0176747,,2,3.0
GaAs2In,0.0125,-0.0228685,,2,3.0
Fe3Co2,0.0,-0.017921,,2,3.0
MnSe2Ag,0.0,-0.0229651999999999,,2,3.0
Li2SiS4Ge,2.0807,-0.0099833,,2,3.0
Si2BaOs,0.0,-0.0333144,,2,3.0
CuAsSe,0.0,-0.0186482,,2,3.0
N2EuHf,0.0,-0.0355154,,2,3.0
Li2F8ZrNd,0.7963,-0.0126845,,2,3.0
Fe4ZrIn,0.0,-0.0229197999999999,,2,3.0
MgS2Ca,2.5538,-0.0105025999999999,,2,3.0
NaS3CoTa,0.0,-0.0204725,,2,3.0
K2InHg2,0.0,-0.0375268999999999,,2,3.0
O4Cs4Ir,0.1949,-0.0288188999999999,,2,3.0
F4K2Ni,0.2812,-0.0094527,,2,3.0
NaGa4U,0.0,-0.0289566,,2,3.0
H3IrPu,0.0,-0.0386653999999999,,2,3.0
BSmPt2,0.0,-0.0492124,,2,3.0
NOSb,0.0,-0.0181856,,2,3.0
LiAs2Pt2U,0.0,-0.0485123,,2,3.0
Si3Pt2,0.0,-0.0347578,,2,3.0
Al3Ti4,0.0,-0.0128563,,2,3.0
La2Pt2Pb,0.0,-0.0617102999999999,,2,3.0
Li2P2Pb,0.0,-0.0206494,,2,3.0
F6Te,4.5072,-0.0104466,,2,3.0
NbPd8,0.0,-0.0331129,,2,3.0
C3Y2,0.0,-0.0175921,,2,3.0
Ag3Pt2,0.0,-0.0469416,,2,3.0
Si2CaFe3,0.0,-0.0144063,,2,3.0
Pd4InNd,0.0,-0.0353779,,2,3.0
LiNd2Tl,0.0,-0.0408363,,2,3.0
Sm2IrPt,0.0,-0.0585989,,2,3.0
O4Na2SiEu,0.0474,-0.0147782,,2,3.0
F6Tl2Pa,0.0,-0.0325366,,2,3.0
Si2Cu4Lu3,0.0,-0.0279694,,2,3.0
Fe2NiTa,0.0,-0.0298773,,2,3.0
Al3Si2Sr3Pt,0.0,-0.0206096,,2,3.0
F6LuTl,4.0487,-0.0217208,,2,3.0
SnPb3,0.0,-0.0657364,,2,3.0
O4Sb2ITm,0.8289,-0.0255801,,2,3.0
BaLa2Hg,0.0,-0.0487885,,2,3.0
O6CrMoBa2,0.0,-0.0197177,,2,3.0
Al3Sn2OsPu3,0.0,-0.055525,,2,3.0
Li5O10V3Cr2,0.0,-0.0106529,,2,3.0
CAlTa2,0.0,-0.0382922,,2,3.0
ZnGe2Ho2,0.0,-0.0307205,,2,3.0
As2Y2Tl,0.0,-0.0347756,,2,3.0
Sc5Hg,0.0,-0.023413,,2,3.0
Zr2LaPt2,0.0,-0.0501142,,2,3.0
Rh3Sn2Tb,0.0,-0.0372918999999999,,2,3.0
Al9Fe2Lu,0.0,-0.013698,,2,3.0
LiInPb2,0.0,-0.0470015,,2,3.0
O6Ca2ZnRu,0.0,-0.0125693,,2,3.0
MgCu2Sr2,0.0,-0.0160324999999999,,2,3.0
Si2CuGa3Er3,0.0,-0.0268176,,2,3.0
O4S2Cu2TbBi2,0.0,-0.0267955,,2,3.0
Si2Mn2Dy,0.0,-0.0215772,,2,3.0
H2B5O10ClCaSr,5.3774,-0.0099324999999999,,2,3.0
MgZn2As2,0.0195,-0.0148565,,2,3.0
NaPd2Sb2,0.0,-0.0293322,,2,3.0
ScZnPd,0.0,-0.0209883999999999,,2,3.0
Pd6Sb4Nd,0.0,-0.0360414,,2,3.0
Sb7Se8F35,1.903,-2.262925375575,mp-28684,2,3.0
CuTcPt2,0.0,-0.047913,,2,3.0
C2O6Rb2Sr,4.1029,-0.0131903,,2,3.0
Sn2CeDy,0.0,-0.0417655,,2,3.0
NiPt2,0.0,-0.0523654999999999,,2,3.0
TeI7Ta3,0.4634,-0.0453609,,2,3.0
CaScLa2,0.0,-0.0274489,,2,3.0
RhIn2Pr,0.0,-0.0366989,,2,3.0
ScIn7,0.0,-0.0311225999999999,,2,3.0
OFCe,0.0,-0.0221499,,2,3.0
F6RbW,0.0,-0.0167776,,2,3.0
Co2TaIr,0.0,-0.0434404,,2,3.0
ZrInBi,0.0,-0.0478753,,2,3.0
O2V,0.0,-0.0126201,,2,3.0
OClCe,0.0,-0.0228989,,2,3.0
MnSe3RbAg,0.0,-0.0224847,,2,3.0
LiI3Ce,0.0,-0.0327404,,2,3.0
Cu2InLu,0.0,-0.0301704,,2,3.0
B2N3Co2Pa3,0.0,-0.0388249,,2,3.0
Ag4Hg,0.0,-0.0387141,,2,3.0
NiSr2Rh2,0.0,-0.0258456,,2,3.0
B6Fe2Lu,0.0,-0.0156242,,2,3.0
SCs2Hg,1.7147,-0.0392214,,2,3.0
PdDyPt2,0.0,-0.0563361999999999,,2,3.0
ScRh2Er,0.0,-0.0341348,,2,3.0
RhSbNd,0.0,-0.0393451,,2,3.0
PPdLu,0.0,-0.0342038999999999,,2,3.0
Ca4GeSe3,0.0,-0.016391,,2,3.0
Co3Ni2Dy,0.0,-0.0221719,,2,3.0
MgCeIr,0.0,-0.0409316,,2,3.0
RhEr2,0.0,-0.0456428,,2,3.0
AlHf2,0.0,-0.0446532,,2,3.0
Al3MnSn2Tb3,0.0,-0.0288065999999999,,2,3.0
GePd3Eu2,0.0,-0.0382989,,2,3.0
AlMn2Zr,0.0,-0.0190379,,2,3.0
ZnRu2Ho3,0.0,-0.0388737,,2,3.0
CaZnGe3,0.0,-0.0163480999999999,,2,3.0
K6CdTe4,1.6335,-0.0219708,,2,3.0
Ca2Pb,0.0,-0.0324442999999999,,2,3.0
O6Ba2TlBi,0.0,-0.0285054,,2,3.0
Al2SnLu,0.0,-0.0270408,,2,3.0
GaY2Au,0.0,-0.036217,,2,3.0
ScCd2Pt,0.0,-0.0369839,,2,3.0
K2Se2Rh,0.0,-0.0190251,,2,3.0
Ge2RuEr6,0.0,-0.0423304,,2,3.0
HLi3Pt,0.0,-0.0166042,,2,3.0
NiRbTe3Ta,0.0,-0.0364327,,2,3.0
ClGaEu,0.0,-0.0275707,,2,3.0
HNb3Au,0.0,-0.0346283,,2,3.0
Cu4InHg,0.0,-0.0269821,,2,3.0
O7Fe2As2Sr,0.5918,-0.0136937,,2,3.0
O7NaLaTa2,2.2291,-0.0235415,,2,3.0
O8P2KTi,0.0,-0.0104669,,2,3.0
CrGeSe3,0.4573,-0.020127,,2,3.0
NaAl2Pt2,0.0,-0.0330915,,2,3.0
S2Ti6Cu,0.0,-0.0153056,,2,3.0
LiY2Pb,0.0,-0.0339692999999999,,2,3.0
Mg3CuBa,0.0,-0.0139826,,2,3.0
ClAsSm2,0.0,-0.0309579,,2,3.0
Cu3LaPt2,0.0,-0.0387783,,2,3.0
O5S2Mn2Cu2Sr3,0.0,-0.0152789,,2,3.0
CdIn8,0.0,-0.0329857999999999,,2,3.0
AlSnTm,0.0,-0.0323576,,2,3.0
S6SnSb2Cs2,1.2763,-0.0229,,2,3.0
P2BaOs2,0.0,-0.0415790999999999,,2,3.0
H4O2FeI2,0.0,-0.0138247,,2,3.0
CoAs2Ta6,0.0,-0.0511141,,2,3.0
Sc3Co2In3,0.0,-0.0225854,,2,3.0
MgErPb,0.0,-0.0442393,,2,3.0
Si2Ga3RhDy3,0.0,-0.0282321,,2,3.0
SiCuAu,0.0,-0.0315302,,2,3.0
Ni3Ga2Eu,0.0,-0.0229659,,2,3.0
O6ZnRhBa2,0.0,-0.0182651,,2,3.0
CoSbTm,0.0,-0.0361436,,2,3.0
MgPt3,0.0,-0.0545822,,2,3.0
MnPd5,0.0,-0.0306198,,2,3.0
Be5Ho,0.0,-0.0119144,,2,3.0
Na2As2Rb,0.0,-0.0143729999999999,,2,3.0
MgBa2Pb,0.0,-0.0404544,,2,3.0
HSr3Ba,0.0,-0.022033,,2,3.0
PSCl,2.493,-0.009737,,2,3.0
Ca3Cd2Sb4,0.0,-0.0272712,,2,3.0
O4AlRh,0.0,-0.0129194,,2,3.0
O2F2CuSr2,0.0,-0.0142242,,2,3.0
H4CN2S,4.2323,-0.0067342,,2,3.0
Pd3Tm,0.0,-0.0385242,,2,3.0
Zn2Ga2Nd,0.0,-0.0212378,,2,3.0
LiAl2Tc,0.0,-0.0136090999999999,,2,3.0
B2AlMo2,0.0,-0.0189599,,2,3.0
O6AlBa2Eu,0.0,-0.0204986999999999,,2,3.0
SnTb3,0.0,-0.0445507,,2,3.0
BRu2Sn2Nd,0.0,-0.0325632999999999,,2,3.0
Li2F4Ag,0.3418,-0.0095081,,2,3.0
K6ZnSn2,0.0025,-0.0152276,,2,3.0
O6SbRe2,0.0,-0.0256244,,2,3.0
NiBa2,0.0,-0.0316238,,2,3.0
MoRu2,0.0,-0.0348387999999999,,2,3.0
Si3RhSm,0.0,-0.0225170999999999,,2,3.0
B2Tb3Pt7,0.0,-0.0549855999999999,,2,3.0
Li3P,0.6537,-0.0051886,,2,3.0
Fe3Pa,0.0,-0.0384595,,2,3.0
B2Mg2MnIr5,0.0,-0.0404642,,2,3.0
I6Cs2Sm,0.0,-0.0392423,,2,3.0
F6NaK2Ho,6.3827,-0.01264,,2,3.0
Ge3AgHo2,0.0,-0.0317125,,2,3.0
O4Ba2Tm,0.0,-0.0252628999999999,,2,3.0
O4Cu2Ge,0.0,-0.0118339999999999,,2,3.0
Rh5W,0.0,-0.0399427,,2,3.0
F8SrDy2,7.1524,-0.0176697,,2,3.0
NiIDy,0.0,-0.0345163,,2,3.0
Pt5Hg,0.0,-0.0697672,,2,3.0
CrTa2Re,0.0,-0.0559896,,2,3.0
Zr6Sn2Au,0.0,-0.0367438,,2,3.0
YLaTl,0.0,-0.0481423,,2,3.0
F2Y2Au,0.0,-0.0291981,,2,3.0
O7Ti8Bi,0.0,-0.018113,,2,3.0
RbAg2Sn2,0.0,-0.0311562,,2,3.0
C4Ca3Ru,0.0,-0.0131729,,2,3.0
ZnZr2Hg,0.0,-0.0361142,,2,3.0
H6O7P2Ca,6.3549,-0.0077021,,2,3.0
O8Sc3Te,0.2341,-0.0135882,,2,3.0
AsSeRu,0.6987,-0.0255263,,2,3.0
CGeZr2,0.0,-0.0235626,,2,3.0
SiCo2Sm2,0.0,-0.0270391,,2,3.0
LiO7P2Bi,4.0897,-0.0154796,,2,3.0
Zn3Rh2Sm,0.0,-0.0260119,,2,3.0
LiAlCdAu,0.0,-0.0278982999999999,,2,3.0
Zr6Sb2Os,0.0,-0.037425,,2,3.0
CdInTl2,0.0,-0.0520816,,2,3.0
Ni2MoAu,0.0,-0.0340492,,2,3.0
Ti2Ni2Rh,0.0,-0.0201963,,2,3.0
AlAc,0.0,-0.0493380999999999,,2,3.0
CaGa6Ir,0.0,-0.0228473,,2,3.0
Rh2Sb2Dy,0.0,-0.0388153,,2,3.0
BeOsIr2,0.0,-0.0549636,,2,3.0
CuRu2Hf3,0.0,-0.0461722,,2,3.0
O2K2Pt,1.6356,-0.0211081,,2,3.0
VMo2,0.0,-0.0292246,,2,3.0
Ni4CdNd,0.0,-0.0233655,,2,3.0
S3CuSrTb,1.1155,-0.0207766,,2,3.0
Zn3ZrAu2,0.0,-0.0353492,,2,3.0
Si3NiNd,0.0,-0.0186294,,2,3.0
LiO12NaTi4La2,1.7242,-0.0149161,,2,3.0
Co3GePa2,0.0,-0.0454674,,2,3.0
O6TiBa2Tb,0.0,-0.0211426,,2,3.0
RhOs5,0.0,-0.0655171,,2,3.0
AlCu4Tm,0.0,-0.0204241,,2,3.0
H2O6SCd2,2.7073,-0.011859,,2,3.0
F6KZr,0.0,-0.0106603,,2,3.0
Ni2RhIr,0.0,-0.0343067,,2,3.0
F7CsGd2,4.4805,-0.022069,,2,3.0
CAlNb2,0.0,-0.02157,,2,3.0
O6Sr2PdLu,0.0,-0.0194681,,2,3.0
H2Na2Te,0.59,-0.0110063,,2,3.0
O6MnZn2W,0.5536,-0.0171795,,2,3.0
TiGeIr2,0.0,-0.0451159,,2,3.0
MgCa2Sn2,0.0,-0.0198281999999999,,2,3.0
BCNiNd,0.0,-0.0197806,,2,3.0
RhSnBi,0.0,-0.0496426,,2,3.0
Co2Ga9Cs,0.0,-0.0185056,,2,3.0
O8P2GeBa,4.4242,-0.0133754,,2,3.0
TiMnCo2,0.0,-0.0176629,,2,3.0
BFe2Ga2Tm,0.0,-0.0217882,,2,3.0
NiGeU,0.0,-0.0465793,,2,3.0
Li2SrPt2,0.0,-0.034159,,2,3.0
LiSb2Pb,0.0,-0.038299,,2,3.0
YPt5,0.0,-0.0639232,,2,3.0
PdSb2Gd,0.0,-0.042392,,2,3.0
MgS2I,0.0,-0.015825,,2,3.0
AlKBr6Cs2,3.2701,-0.022556,,2,3.0
H6Cs2Pt,3.6917,-0.0190184,,2,3.0
O6NdEu2Ta,0.0016,-0.0288249,,2,3.0
ZnGeTm,0.0,-0.0288281,,2,3.0
CuSnPu,0.0,-0.053877,,2,3.0
Si2Sc2Pd,0.0,-0.0172423,,2,3.0
O5SiTiAg2,1.2651,-0.0154588,,2,3.0
MnCo2Ni,0.0,-0.0172872,,2,3.0
Na2Zn2Hg,0.0,-0.0207974,,2,3.0
O6K2TeEr,0.0,-0.0162765,,2,3.0
NaBr6Rb2Tb,4.0649,-0.0229095,,2,3.0
AlIr4,0.0,-0.058836,,2,3.0
MnNbIr2,0.0,-0.0490135,,2,3.0
B6Cr2Ce,0.0,-0.014615,,2,3.0
Ni3YPd2,0.0,-0.0240624,,2,3.0
Al3FeDy2,0.0,-0.0232905,,2,3.0
LiF6Rb2Tl,3.5459,-0.0163771999999999,,2,3.0
NILa2,0.0,-0.0345345,,2,3.0
ZnGa2Pr,0.0,-0.0229543,,2,3.0
In5TbIr,0.0,-0.0411704,,2,3.0
BeZr3,0.0,-0.0241108,,2,3.0
H4RhTb,0.0,-0.0163218,,2,3.0
Ti2ZnPd2,0.0,-0.0227324,,2,3.0
Ge2RuIn3Pr3,0.0,-0.0344048,,2,3.0
ZnTb2Au,0.0,-0.0448083,,2,3.0
CuSb2Cs5,0.9244,-0.0352868,,2,3.0
CuAs2Hg,0.0,-0.0308468,,2,3.0
CoSn2Hf6,0.0,-0.0520985,,2,3.0
K2AuPb,0.0,-0.0407238,,2,3.0
HScI2,1.9187,-0.0238522,,2,3.0
Be4SiOs,0.0,-0.0169478,,2,3.0
O3CrSr,0.0,-0.0145948,,2,3.0
Ti2Se6Pd,0.0,-0.0214183999999999,,2,3.0
GeI2Hf2,0.0,-0.0443437,,2,3.0
Sc2ZnSb,0.0,-0.0205202,,2,3.0
H2Ca2Sn,0.0,-0.0131354,,2,3.0
Li7N4V,2.281,-0.0069008,,2,3.0
CSi2Co2Th2,0.0,-0.0371979,,2,3.0
Rh2PrEu,0.0,-0.0416595,,2,3.0
Li3NdBi2,0.0,-0.0354294,,2,3.0
P3Rh,0.0,-0.016929,,2,3.0
KSeAg,0.0626,-0.020725,,2,3.0
CSbEr3,0.0,-0.0404555,,2,3.0
OInSm3,0.0,-0.0362129,,2,3.0
Cl6K3Ce,0.0,-0.0140493,,2,3.0
CoAgPt2,0.0,-0.0473564,,2,3.0
NiGe2Dy,0.0,-0.026333,,2,3.0
Se2SrHg,1.5356,-0.0338446,,2,3.0
CuTmHg2,0.0,-0.0511662,,2,3.0
N3WTh,0.0,-0.0399384999999999,,2,3.0
ZnGaLa,0.0,-0.0249737,,2,3.0
SiMn3Ga2Lu3,0.0,-0.0298096999999999,,2,3.0
B36CSi9Dy2,1.0451,-0.0098964999999999,,2,3.0
ZnSnEu,0.0,-0.0350117,,2,3.0
W3Os,0.0,-0.0702074999999999,,2,3.0
Be4MoRu,0.0,-0.0148985,,2,3.0
FIPu,0.0,-0.0521875,,2,3.0
O5CaTi2,2.9445,-0.0124954,,2,3.0
MgSc2Pd,0.0,-0.0170459,,2,3.0
LiS2Sb,0.2595,-0.0154625,,2,3.0
O6Ca2MnOs,0.0,-0.0169818,,2,3.0
Ni2Zn3Eu,0.0,-0.0213934,,2,3.0
SeIPt,0.0,-0.0426655,,2,3.0
GaRh2Cd,0.0,-0.0289723,,2,3.0
O5TiDy2,3.1347,-0.0215141999999999,,2,3.0
NCl2Ho2,0.0,-0.026881,,2,3.0
MgAgPr,0.0,-0.0268874,,2,3.0
Be3Mo,0.0,-0.0122206,,2,3.0
Se8Nb6Bi,0.0,-0.0300033,,2,3.0
Y3Ru2Tl3,0.0,-0.0466456,,2,3.0
AsZrRh,0.0,-0.0294533999999999,,2,3.0
SiRuTm,0.0,-0.0331691,,2,3.0
H2PdAg,0.0,-0.0177307,,2,3.0
As2BaIr2,0.0,-0.0452074,,2,3.0
MnNiPd2,0.0,-0.0253398,,2,3.0
BRu3Dy,0.0,-0.032298,,2,3.0
Mg5In4,0.0,-0.0177290999999999,,2,3.0
ClSe2Tl2,0.0,-0.0390837999999999,,2,3.0
CaGe2Ag,0.0,-0.0202005,,2,3.0
GeRhTm,0.0,-0.0359733,,2,3.0
Mg4P3Rb,1.2799,-0.009759,,2,3.0
O9KNb3Ba2,0.0,-0.0191231,,2,3.0
NiWPt2,0.0,-0.0568506,,2,3.0
Ni2Tb3Tl3,0.0,-0.0491707,,2,3.0
Mg2SrPm,0.0,-0.0190773,,2,3.0
H4RhBa,0.0,-0.0150364,,2,3.0
CuZnTm2,0.0,-0.0334796,,2,3.0
Ni2ZnEr2,0.0,-0.0298479,,2,3.0
F6K2U,0.0554,-0.0192503999999999,,2,3.0
ZnAu2Pb,0.0,-0.0570229,,2,3.0
Si2CoLa,0.0,-0.0208104,,2,3.0
ScRb2Te3,0.0,-0.0291389,,2,3.0
Ni3HoPt2,0.0,-0.0402541,,2,3.0
NaCd2In,0.0,-0.0247201999999999,,2,3.0
In2DyPu,0.0,-0.0564262,,2,3.0
Zn2TbAc,0.0,-0.0413583,,2,3.0
Si4ScHf5,0.0,-0.0375377,,2,3.0
CoPm2Pt,0.0,-0.0445479,,2,3.0
ScGaAg,0.0,-0.0211993,,2,3.0
Co2MoRe,0.0,-0.0350587,,2,3.0
Ru3Pr2,0.0,-0.0383876,,2,3.0
F6GaEu,0.0,-0.0146290999999999,,2,3.0
La6CuSb15,0.0,-0.856199762727272,mp-1223212,2,3.0
NiTc2W,0.0,-0.039018,,2,3.0
CuSe2Ag,0.0,-0.0217918,,2,3.0
Co5Pd,0.0,-0.0198092,,2,3.0
O7CoCu2Ba2Sm,0.0,-0.0186626,,2,3.0
Li2O3Lu,0.0,-0.0157084,,2,3.0
B2CYRh2,0.0,-0.0207838999999999,,2,3.0
CCa2ZnRu,0.0,-0.0156287,,2,3.0
HNiRh3,0.0,-0.0241307,,2,3.0
NaSi2Pd2,0.0,-0.0184889,,2,3.0
ZnInPa2,0.0,-0.0615270999999999,,2,3.0
B12Sc,0.0,-0.0082147,,2,3.0
K3Br6Mo,1.2549,-0.0190556,,2,3.0
SrIn2Ho,0.0,-0.0350334,,2,3.0
Cu4YIr,0.0,-0.0268616,,2,3.0
PMnPd5,0.0,-0.0280755,,2,3.0
O7K2SrU2,0.2933,-0.0272194,,2,3.0
Cu2Se4SnBa,0.4663,-0.0240872,,2,3.0
LiSnLa,0.0,-0.0279116,,2,3.0
Al3ZnGd2,0.0,-0.0262413999999999,,2,3.0
BeAl7,0.0,-0.0072567,,2,3.0
O4PrU,0.0,-0.0322628,,2,3.0
B4Ni5Y2,0.0,-0.0156704,,2,3.0
C2TiNb,0.0,-0.0180982999999999,,2,3.0
AlPt,0.0,-0.0402592,,2,3.0
Mg2S8Mn3Y,0.0,-0.013445,,2,3.0
AlAu3,0.0,-0.0541454,,2,3.0
O4Se3Tb4,1.1383,-0.0278773,,2,3.0
Be2Sc,0.0,-0.0077279,,2,3.0
P2Cu2Pa,0.0,-0.0308226,,2,3.0
Zn2TbAu,0.0,-0.0364125999999999,,2,3.0
H6NO5PCo,0.0108,-0.0076555,,2,3.0
Y2InIr,0.0,-0.0409024,,2,3.0
KCu3Se2,0.0,-0.0161719,,2,3.0
Ag7Pt3,0.0,-0.0429835,,2,3.0
FeGa2Dy,0.0,-0.0251322,,2,3.0
PdTe2,0.0,-0.0361563,,2,3.0
Mg2YSm,0.0,-0.0206728999999999,,2,3.0
Si2Rh2Tm,0.0,-0.0291179999999999,,2,3.0
B4Ba2Pt5,0.0,-0.0424188,,2,3.0
Se2RhCdCs,0.0,-0.029226,,2,3.0
AlRh2,0.0,-0.0259123,,2,3.0
Li5O10Ni3Sb2,0.0,-0.0115829,,2,3.0
Al2FeSm6,0.0,-0.0334707,,2,3.0
CoPt,0.0,-0.043925,,2,3.0
Li3O8VFe3,0.0,-0.010612,,2,3.0
N3WNp,0.0,-0.0416771,,2,3.0
BrInNd,0.0,-0.0334272,,2,3.0
N2Na2Ta,0.0,-0.0195302,,2,3.0
Li5O10Ti2Mn3,0.0,-0.0106073,,2,3.0
Ga5DyAu,0.0,-0.0288154,,2,3.0
YAuHg,0.0,-0.0559335,,2,3.0
Al2LaAu3,0.0,-0.0451902,,2,3.0
PdSmPb,0.0,-0.0518858,,2,3.0
NSBa6Pb2,0.0,-0.0417738999999999,,2,3.0
H3ZrRh,0.0,-0.015509,,2,3.0
RuLa3Hg,0.0,-0.0469678,,2,3.0
SiBrSr,0.0,-0.0185182,,2,3.0
Co2Hf4Tl5,0.0,-0.0589566,,2,3.0
HMn3Ge,0.0,-0.0157391,,2,3.0
BrPt,0.6791,-0.0451,,2,3.0
SiGaGd,0.0,-0.028938,,2,3.0
Li2PRb,0.8615,-0.0096241,,2,3.0
GaNd2Au2,0.0,-0.0492749,,2,3.0
O11ClNb2Pb2Bi3,0.9796,-0.0296617,,2,3.0
H12N5OCl3Os,2.2669,-0.0091828,,2,3.0
Sc3Ni4Ga2,0.0,-0.0161835,,2,3.0
Cl6Rb2Ba,2.7223,-0.0162199,,2,3.0
Ca3Rh4In4,0.0,-0.0275975,,2,3.0
LiCl,5.7373,-2.021952504583333,mp-1185319,2,3.0
N2Eu2Pt,0.0,-0.0403016999999999,,2,3.0
Se3SnPr4,0.0,-0.0354968,,2,3.0
LiScSe2,0.9271,-0.0160011,,2,3.0
BeSc2Ag,0.0,-0.0162539,,2,3.0
NZr3Pd,0.0,-0.0280564,,2,3.0
MgCa2Sr,0.0,-0.0116615,,2,3.0