formula,bg,formation_energy,mp-id,fidelity,bg_category
O6CoRhLa2,0.176,-0.0200183,,2,3.0
Na3Cl6Ti,0.0,-0.0095845,,2,3.0
F6CrSr,0.0,-0.0110458,,2,3.0
InHfIr,0.0,-0.0564684,,2,3.0
SnI2La2,0.1241,-0.0405098,,2,3.0
AsBr2La2,0.0,-0.0310765,,2,3.0
Zn4CdAu,0.0,-0.0256506,,2,3.0
H6Sr2Os,2.3078,-0.0159397,,2,3.0
ScGeTb,0.0,-0.0274942,,2,3.0
MgPPd,0.0,-0.0167247,,2,3.0
MgS8Mn4,0.0,-0.0128382,,2,3.0
CdSn,0.0,-0.0329951,,2,3.0
Se2BrIr,0.0698,-0.0329613999999999,,2,3.0
SGeGd,0.0,-0.030642,,2,3.0
H3SiRb,2.0211,-0.0084143,,2,3.0
SiNi2Nd,0.0,-0.0221420999999999,,2,3.0
LiNi2SrSb2,0.0,-0.0225267,,2,3.0
CrFePt2,0.0,-0.0446069,,2,3.0
Al3RuIn2Ho3,0.0,-0.0308516,,2,3.0
CuRhTe3Cs,0.0,-0.0336636,,2,3.0
Cu4AgNd,0.0,-0.0228196,,2,3.0
MgK2Se4Sn,1.8769,-0.0183675,,2,3.0
NiY2Pt,0.0,-0.0364889,,2,3.0
O6SiTeBa,3.2792,-0.0160996,,2,3.0
SnBaHg,0.0,-0.0486117,,2,3.0
Li2HgBi2,0.0,-0.0462722,,2,3.0
NaScNi2Sb2,0.0,-0.0214862,,2,3.0
Cd2GdLu,0.0,-0.0421811999999999,,2,3.0
CuGaIn,0.0,-0.0215925,,2,3.0
ZnPd2Nd3,0.0,-0.0356389,,2,3.0
B2O6Rb2Pu,0.0,-0.0211901,,2,3.0
Cu2BaBi2,0.0,-0.0457981,,2,3.0
InTeHg2,0.0,-0.0518646,,2,3.0
FK3Tl,0.0,-0.0213538,,2,3.0
RbPdBa3,0.0,-0.0346467,,2,3.0
SrPd2Sb2,0.0,-0.0333448,,2,3.0
P4Ca3Co2Cu2,0.0,-0.0131523,,2,3.0
B2CrMo2,0.0,-0.0210383,,2,3.0
CaNi2Rh3,0.0,-0.0240195,,2,3.0
GaInAc2,0.0,-0.0581965999999999,,2,3.0
ZnRh2Dy2,0.0,-0.0362343,,2,3.0
P2S6TlBi,1.6498,-0.0233435,,2,3.0
Ca4Cd3Au,0.0,-0.0254409,,2,3.0
AsTe3Cs3,0.7328,-0.0359202999999999,,2,3.0
Al3Si2ZnTm3,0.0,-0.0242147,,2,3.0
Ca2MnSb2,0.0,-0.023318,,2,3.0
NaIn3Ir,0.0,-0.0353126,,2,3.0
SnAu3,0.0,-0.0608528,,2,3.0
ScZnIn,0.0,-0.0209189,,2,3.0
Ag2Pa,0.0,-0.0539914,,2,3.0
AsNb2,0.0,-0.0294047,,2,3.0
CaCo3Ga2,0.0,-0.0159117,,2,3.0
Br6Cs2Lu,0.0,-0.0293035,,2,3.0
NRePt,0.0,-0.050246,,2,3.0
Si3Sc3Ni,0.0,-0.0135962,,2,3.0
Sb2Dy6Os,0.0,-0.0488831,,2,3.0
Co8Re,0.0,-0.0231232,,2,3.0
CdTe3CsEr,1.3701,-0.0395887,,2,3.0
CaSr3Rh,0.0,-0.0221773,,2,3.0
Se2BrAu,0.0,-0.0323455999999999,,2,3.0
Sc2Ni2Pb,0.0,-0.0278911,,2,3.0
PCuTb,0.0,-0.0252393,,2,3.0
Li2O6Si2Ni,0.0,-0.0095575,,2,3.0
O6Mn2SrNd,0.0,-0.0168622,,2,3.0
SiBa2Au,0.0,-0.0401948,,2,3.0
Al3Sc3Ge2Ir,0.0,-0.0204757,,2,3.0
Sr2Pd,0.0,-0.0262006,,2,3.0
CGe2Mo2Nd2,0.0,-0.0299118,,2,3.0
Li2P2Pa,0.0,-0.0260196,,2,3.0
InErPb2,0.0,-0.059176,,2,3.0
F6CuNd,0.8502,-0.0129526,,2,3.0
SmTl,0.0,-0.0589883,,2,3.0
Co4Ga2Ho3,0.0,-0.0279893,,2,3.0
AlZn2Ho2,0.0,-0.0269997,,2,3.0
H4RhNd,0.0,-0.0157971,,2,3.0
O8Co5Ru,0.0,-0.0135694,,2,3.0
AsRh2,0.0,-0.0298699,,2,3.0
AsI3Eu3,0.0,-0.0432423,,2,3.0
Li2Si3La2,0.0,-0.0179595,,2,3.0
SeTeCe2,0.0,-0.0383066,,2,3.0
N3FeSr3,0.0,-0.0169636,,2,3.0
CuGa3Ge2Er3,0.0,-0.0288918,,2,3.0
CoNi3Gd2,0.0,-0.0307761,,2,3.0
Si2ErRe4,0.0,-0.0511412,,2,3.0
O5S2Er2Hf2,2.4912,-0.0285512,,2,3.0
H2MgY2,0.0,-0.0140577,,2,3.0
P3RbCd4,0.3507,-0.0219353,,2,3.0
F6SnPb,3.9227,-0.0191513,,2,3.0
Cu2Sr2Pb,0.0,-0.0304599,,2,3.0
MgCu2Sr,0.0,-0.0145098,,2,3.0
Li6PS5Br,2.0938,-0.008329,,2,3.0
O6Ba2EuTa,0.0,-0.0268852,,2,3.0
Al9ZrTb2,0.0,-0.0166283,,2,3.0
Cd2AuHg,0.0,-0.0496449,,2,3.0
Li3OF3Cu,0.0,-0.007407,,2,3.0
Mg3Au5,0.0,-0.0457018,,2,3.0
F6S2GeCd3,2.2243,-0.0144634,,2,3.0
OBrRb2Ag,0.806,-0.0209612,,2,3.0
LiGd2Ir,0.0,-0.0483532,,2,3.0
CN2O2Ho2,3.9053,-0.0223309,,2,3.0
Al4CuTh,0.0,-0.0240383999999999,,2,3.0
O8P2RhBa,0.0,-0.0143338,,2,3.0
NiTcIr2,0.0,-0.0485176,,2,3.0
CoGa3Ge2Ho3,0.0,-0.0287098,,2,3.0
LiCd2La,0.0,-0.0269648,,2,3.0
GaCdPb2,0.0,-0.0494322,,2,3.0
AlFe2W,0.0,-0.0286064,,2,3.0
K2Br6PdAg,0.0,-0.020757,,2,3.0
SSeSn,0.7727,-0.0222361,,2,3.0
Cl3BrRb,2.3752,-0.0137622,,2,3.0
O6ZnPdPr2,1.5395,-0.0194318,,2,3.0
As2Ru2Tm,0.0,-0.0331886999999999,,2,3.0
Co2Ge2Pu,0.0,-0.0368814,,2,3.0
ScGa2Hf2,0.0,-0.0349874,,2,3.0
RhPbBi,0.0,-0.062783,,2,3.0
AsBr6Rb2Tl,0.6937,-0.0262231,,2,3.0
MgP2Ca2,1.2941,-0.0102428,,2,3.0
O6FeGaBi2,0.4799,-0.0243924999999999,,2,3.0
Al2PdPt,0.0,-0.0307601,,2,3.0
ScMoTc2,0.0,-0.0300324,,2,3.0
Ni2GaTh2,0.0,-0.0486597999999999,,2,3.0
Al5RuCe,0.0,-0.0174155,,2,3.0
Li2MgIr,0.0,-0.020445,,2,3.0
BeFeRe,0.0,-0.0312826,,2,3.0
N2FeRu,0.0,-0.0178828,,2,3.0
GeCdPr,0.0,-0.0315752,,2,3.0
LiPd2Nd,0.0,-0.0284703,,2,3.0
NGaTb2,0.0,-0.0309386,,2,3.0
Sn6BaIr4,0.0,-0.0494654,,2,3.0
Cu4TmPb,0.0,-0.0315612,,2,3.0
Ca3Sb4Hg2,0.0,-0.035634,,2,3.0
O6YBa2Hf,0.0,-0.024052,,2,3.0
F6AsCs,5.3229,-0.0124873,,2,3.0
O3Rb2La,0.0,-0.0193784,,2,3.0
Zn2ZrHf,0.0,-0.0304241,,2,3.0
K2CdPt,0.0,-0.0295018999999999,,2,3.0
P2S7CrCs,0.9115,-0.0138997,,2,3.0
LiMg2Pb2,0.0,-0.0329979,,2,3.0
CrSe3Ba,0.0,-0.0249253,,2,3.0
OSeAgTb,1.003,-0.0282744,,2,3.0
Si3TmOs,0.0,-0.0313575,,2,3.0
Cu2In3Er3,0.0,-0.0357085,,2,3.0
F6NaFeIn2,0.0,-0.0132192,,2,3.0
NaHoPb2,0.0,-0.0516291,,2,3.0
H8BeO8S,5.6919,-0.0064997,,2,3.0
MgRh2Pm,0.0,-0.0297855,,2,3.0
Zn3Pd2Pr,0.0,-0.0255608,,2,3.0
CaBa2Hg,0.0,-0.0395778,,2,3.0
AlRe3,0.0,-0.0554003999999999,,2,3.0
Na2SiZnSe4,2.1157,-0.0149574,,2,3.0
Al5MnTb,0.0,-0.0151822,,2,3.0
CaRhSn,0.0,-0.0272,,2,3.0
Si2Y2Bi,0.0,-0.0315154,,2,3.0
LiF6Cs2Pr,7.1609,-0.0177363,,2,3.0
O6KInI,0.0,-0.0138053,,2,3.0
P2Y2Tl,0.0,-0.0308871,,2,3.0
HLa3Bi,0.0,-0.0429207,,2,3.0
Sb2Au,0.0,-0.0480696,,2,3.0
Sr2Pd2Ag,0.0,-0.0287673,,2,3.0
NaNi3Te2,0.0,-0.0215194,,2,3.0
Ni2Y2Pt,0.0,-0.032369,,2,3.0
Zn2Pt3Th,0.0,-0.0564712,,2,3.0
O6SbTeCs,0.8515,-0.0181707,,2,3.0
Zn3Pd2Nd,0.0,-0.0256127,,2,3.0
BY3Pb,0.0,-0.0339612,,2,3.0
H9C3SiCl,5.6767,-0.006029,,2,3.0
F6RbCs2Pt,0.698,-0.0211576,,2,3.0
GaDy3,0.0,-0.0402458,,2,3.0
O6Sr2RuRh,0.0,-0.0170707999999999,,2,3.0
Br4PtTl2,0.8138,-0.0424642,,2,3.0
F6SrPa,0.6362,-0.0218952,,2,3.0
Be4AlFe,0.0,-0.0074123999999999,,2,3.0
NaPt2Bi2,0.0,-0.060548,,2,3.0
GeCe2Os3,0.0,-0.0543654,,2,3.0
Y2PdPt2,0.0,-0.0469988,,2,3.0
LiSiRu2,0.0,-0.0209078,,2,3.0
O6CoCuLa2,0.0,-0.0181102,,2,3.0
ZrRu2,0.0,-0.0338832,,2,3.0
CoGa2Zr,0.0,-0.0207555,,2,3.0
Rh2TaAu,0.0,-0.0513002,,2,3.0
Fe3Ho2Pt,0.0,-0.0375774,,2,3.0
SrAg2In,0.0,-0.0299113,,2,3.0
Al4Cu,0.0,-0.0092904,,2,3.0
Ni4CdPu,0.0,-0.0342806,,2,3.0
Pd2Hg,0.0,-0.0447357,,2,3.0
O4V2Fe,0.0,-0.0134796,,2,3.0
Rh5La,0.0,-0.0356683999999999,,2,3.0
Li3O6Co2Ni,0.0,-0.0097396,,2,3.0
BeAlCu2,0.0,-0.0109024,,2,3.0
Sr2CdSn,0.0,-0.0283404999999999,,2,3.0
ScCdLa2,0.0,-0.0329003,,2,3.0
AlPdTb,0.0,-0.030104,,2,3.0
Cl6K2Ir,0.0,-0.0164098,,2,3.0
RhPd2Ce,0.0,-0.0367606,,2,3.0
TiCo4Zn,0.0,-0.0165823,,2,3.0
AsCd7,0.0,-0.0290764999999999,,2,3.0
NiSe6Br2,0.4557,-0.0196549,,2,3.0
ZnAc,0.0,-0.052289,,2,3.0
Mg2Zn2In,0.0,-0.0142204999999999,,2,3.0
P2ScSe6Ag,1.3525,-0.019301,,2,3.0
RuDy6Pb2,0.0,-0.0531589,,2,3.0
Si2RbPt3,0.0,-0.0425729,,2,3.0
Cd2Sb2Gd,0.0,-0.0392456,,2,3.0
K2Br6AgBi,1.1438,-0.0254481,,2,3.0
OAs2Cs2Hf2,0.0,-0.0367694,,2,3.0
Cr2RhIr,0.0,-0.0356471,,2,3.0
LiGe6Pr2,0.0,-0.0230873999999999,,2,3.0
Ga2RuTm,0.0,-0.0305276,,2,3.0
LiSe2Sn,1.3551,-0.0203724,,2,3.0
C5Al3Zr3,0.0,-0.0157687,,2,3.0
ZnSrIn,0.0,-0.0235391,,2,3.0
MgSc2Cu,0.0,-0.0122818,,2,3.0
CaPd2Tb,0.0,-0.0313271,,2,3.0
BRh2Cd2,0.0,-0.02739,,2,3.0
Cs7Cd3Br13,2.8156,-1.756576808155922,mp-667295,2,3.0
ZnSe3RbNd,1.8409,-0.0245923,,2,3.0
ZnGeU,0.0,-0.0454555,,2,3.0
O8V2SmBi,2.8023,-0.0199973,,2,3.0
Al2MnSe4,1.2107,-0.0173,,2,3.0
Li3O8F2P2Fe2,0.0,-0.0094887999999999,,2,3.0
MgRh4Sm,0.0,-0.0313182,,2,3.0
Cu4TaAu,0.1863,-0.032797,,2,3.0
F3RbSr,5.7391,-0.014295,,2,3.0
Mn2InTh,0.0,-0.0416351,,2,3.0
S3SeRu2,0.3161,-0.0203915,,2,3.0
FeYSb2,0.0,-0.0306208,,2,3.0
F6NaOs,1.2313,-0.0143748,,2,3.0
CdPr2Tl,0.0,-0.0478925,,2,3.0
BrIn2Hg,0.0,-0.0388851,,2,3.0
CeBi3,0.0,-0.0705746,,2,3.0
O8Mo2CsIr,1.6264,-0.0209253,,2,3.0
AlFePa,0.0,-0.0422368,,2,3.0
ScLu5,0.0,-0.0484861999999999,,2,3.0
NaI4Au,0.5972,-0.0372452,,2,3.0
AsTb,0.0,-0.0351883,,2,3.0
Ca3ZnGa3Ge2,0.0,-0.0149557,,2,3.0
Br6Cs2Ta,0.0,-0.0302533,,2,3.0
Ni4As3Rb,0.0,-0.01863,,2,3.0
Li4O12CrSbW2,0.2973,-0.0161997,,2,3.0
FeZr2Re,0.0,-0.0378964,,2,3.0
Si2Ca2Hg,0.0,-0.0219209,,2,3.0
Fe4MoTa,0.0,-0.0289794,,2,3.0
Se2Pa,0.0,-0.0479666,,2,3.0
LiPt2Hg,0.0,-0.0530808,,2,3.0
ClFe2Sm2,0.0,-0.0273477,,2,3.0
TeLa2,0.0,-0.0422474,,2,3.0
Ni2ZnTe3,0.0,-0.0264808,,2,3.0
Al4YIr,0.0,-0.0224755,,2,3.0
ZrTl3,0.0,-0.0619943,,2,3.0
Li3O8Mn3Fe,0.0,-0.0107722,,2,3.0
Re2OsIr,0.0,-0.0715424,,2,3.0
O2ClFeSb,0.0,-0.0164027,,2,3.0
Ga2PmTh,0.0,-0.0436531,,2,3.0
N2FeZn,0.0,-0.0125407,,2,3.0
H2F8Na2Cr,0.0825,-0.0073059,,2,3.0
GaPd2Gd,0.0,-0.0360845,,2,3.0
LiMgAs,1.2494,-0.0100436,,2,3.0
Ga2Cd2Gd,0.0,-0.0309088,,2,3.0
SiSrPt2,0.0,-0.0441771,,2,3.0
NdIr2U,0.0,-0.0730152999999999,,2,3.0
O4CeGd,0.0,-0.0247063,,2,3.0
NAlPr3,0.0,-0.0302575,,2,3.0
Na2PtTl2,0.0,-0.0448244,,2,3.0
S3Mn2Ba,0.0,-0.0186668999999999,,2,3.0
Cu2Ga3Er,0.0,-0.0220832,,2,3.0
Sc2GaPd2,0.0,-0.0230168,,2,3.0
F3CrTl,0.0,-0.0226413,,2,3.0
Cu2PbAc,0.0,-0.0493742999999999,,2,3.0
CoBr4Rb2,0.0,-0.0207053,,2,3.0
NaCdIn2,0.0,-0.0254421999999999,,2,3.0
NiSr2Ag,0.0,-0.0230986,,2,3.0
AuPbPu,0.0,-0.0852656,,2,3.0
Mg2CuZn2,0.0,-0.0105954999999999,,2,3.0
Cl6ScAgCs2,3.1661,-0.0189427,,2,3.0
AsBr2Pr2,0.0,-0.0310777,,2,3.0
NaZnGe,0.0,-0.0123882,,2,3.0
Sc2Co2Ni,0.0,-0.0160901,,2,3.0
AlZr6In2,0.0,-0.0290498,,2,3.0
N2NiPu2,0.0,-0.0519616,,2,3.0
O4SeAg,0.0621,-0.01322,,2,3.0
GeCeAu,0.0,-0.0452564,,2,3.0
Fe4CuTa,0.0,-0.0257085,,2,3.0
Zn3Ru2Dy,0.0,-0.0265816,,2,3.0
SiBaAu2,0.0,-0.047644,,2,3.0
LiS2Mn,0.0,-0.0110545,,2,3.0
O6Sr2ErBi,2.1743,-0.0237282,,2,3.0
SbTe7La4,0.0,-0.0407395,,2,3.0
Cu4ZnLu,0.0,-0.0218977,,2,3.0
ClNiTm,0.0,-0.0267095999999999,,2,3.0
S4MoTa,0.0,-0.0243533,,2,3.0
HSc2Br2,0.0,-0.0154769,,2,3.0
BeCu2Pt,0.0,-0.0266226,,2,3.0
SiCoBa,0.0,-0.0226649999999999,,2,3.0
MgZn2Ce3,0.0,-0.0277325,,2,3.0
LiF5V,0.0028,-0.0084626,,2,3.0
Mg2GeAu,0.0,-0.0249829,,2,3.0
H2LiAg2,0.0,-0.0143863,,2,3.0
Nb3In3Ir2,0.0,-0.0430698999999999,,2,3.0
KNiSe3Nb,0.0,-0.0205471,,2,3.0
Ag2LaTb,0.0,-0.0384741,,2,3.0
LiSi2Ho2,0.0,-0.0247392,,2,3.0
TmLu3,0.0,-0.0544664,,2,3.0
Ni2ZnCe2,0.0,-0.0273304,,2,3.0
Ni3In,0.0,-0.0204951,,2,3.0
GeHfAu,0.0,-0.0508872,,2,3.0
F4KPd,0.0,-0.0112357,,2,3.0
CrGaIr2,0.0,-0.0447169,,2,3.0
Cu3Pt,0.0,-0.0291111,,2,3.0
O6K2CoSe2,0.136,-0.0115407,,2,3.0
Cl3Mo,0.3007,-0.0157262,,2,3.0
Si7Ca3Ni2,0.0,-0.0113191,,2,3.0
NaBaBi,0.3106,-0.0416488,,2,3.0
YAu4Hg,0.0,-0.0626167,,2,3.0
MgSi2Ir2,0.0,-0.0342,,2,3.0
Al3Ta2,0.0,-0.0314968,,2,3.0
NaCl6CoRb2,0.7183,-0.0127268,,2,3.0
KPt4Pb,0.0,-0.0610488,,2,3.0
SiSrBa,0.0747,-0.0243158999999999,,2,3.0
Al3Mn2Au,0.0,-0.0218645,,2,3.0
O4LaU,0.0,-0.0322719999999999,,2,3.0
O6Ca2SbLa,3.4941,-0.0165871,,2,3.0
Pt,0.0,-0.0701928,,2,3.0
CrMn4Mo,0.0,-0.0209008,,2,3.0
Al2S5Zn2,3.0043,-0.0111966,,2,3.0
Al9BaPt2,0.0,-0.0214349,,2,3.0
ZnGa3Nd,0.0,-0.0218037,,2,3.0
OPCdNp,0.0,-0.039903,,2,3.0
Eu2HgBi,0.0,-0.0643914,,2,3.0
Li5P,0.0,-0.0041393,,2,3.0
NiZn2Ho,0.0,-0.0235159,,2,3.0
Li2O8Ni3Sb,0.1883,-0.0116087,,2,3.0
Au2HgBi2,0.0,-0.0726371,,2,3.0
CuEu2Au,0.0,-0.0484528,,2,3.0
CaSn2Ce,0.0,-0.0321886,,2,3.0
Se3CsHfAu,0.4368,-0.0394872999999999,,2,3.0
F4CuRb,1.4461,-0.01045,,2,3.0
BSc2Ir6,0.0,-0.0522855,,2,3.0
CoBr3,0.6805,-0.0194212,,2,3.0
Mg2CdLa2,0.0,-0.0255124,,2,3.0
NiSe2Cs2,0.5835,-0.0273171,,2,3.0
O3ClTiDy,3.195,-0.0184848,,2,3.0
Mo2Tc,0.0,-0.0349096,,2,3.0
Ag2Cd2La,0.0,-0.0336195,,2,3.0
NdAuHg,0.0,-0.0611526,,2,3.0
F4KDy,7.0078,-0.0156564,,2,3.0
OAsRuCe,0.0,-0.0285368,,2,3.0
SrBaEu2,0.0,-0.0422309,,2,3.0
CCo2Ge2Er2,0.0,-0.026872,,2,3.0
O6MnRePb2,0.0,-0.029328,,2,3.0
Co4CuTa,0.0,-0.0251500999999999,,2,3.0
AlZr2Au2,0.0,-0.0422884,,2,3.0
Si3TbPt,0.0,-0.0302792,,2,3.0
RePt3,0.0,-0.0705673,,2,3.0
NaCuBa3,0.0,-0.0275819,,2,3.0
Se2RuPr6,0.0,-0.0381308,,2,3.0
BCuRh,0.0,-0.0190672,,2,3.0
Zn2BaAc,0.0,-0.0394667999999999,,2,3.0
NAgEr2,0.0,-0.0364698,,2,3.0
LiP2Co2Lu,0.0,-0.0197341,,2,3.0
NiCuBa2,0.0,-0.0275223,,2,3.0
InTe5Pb4,0.0,-0.0526272,,2,3.0
Ca2NiTe,0.0,-0.0188884,,2,3.0
Ga3Ta2Pt,0.0,-0.0425652,,2,3.0
NiIn2Lu,0.0,-0.0350767,,2,3.0
Ga5RhLa,0.0,-0.0233004,,2,3.0
OZnSbNp,0.0,-0.0422376,,2,3.0
CoAs2Tb6,0.0,-0.0383018,,2,3.0
F6MgCoRb,0.4287,-0.0101066,,2,3.0
S3TiSr,0.0,-0.0152258999999999,,2,3.0
Ag2Eu,0.0,-0.0391254,,2,3.0
Os2Tl3Th3,0.0,-0.0813610999999999,,2,3.0
SiScCu,0.0,-0.0138553,,2,3.0
S2Rh3Pb2,0.0,-0.0392997999999999,,2,3.0
CaCoLa2,0.0,-0.028267,,2,3.0
MgZr2Os,0.0,-0.0348722,,2,3.0
BHoIr4,0.0,-0.0573818,,2,3.0
Y3PdIr2,0.0,-0.0440803,,2,3.0
LiSb2CePt2,0.0,-0.0446704999999999,,2,3.0
PdLa,0.0,-0.0388508,,2,3.0
Ga2Ag2Cd,0.0,-0.0251071,,2,3.0
Ga3AsTe3,0.0,-0.026178,,2,3.0
Cl3Ca3Sb,1.6466,-0.0149486,,2,3.0
CoNi2Ga,0.0,-0.0166911,,2,3.0
CoNiAs2,0.0,-0.0187443999999999,,2,3.0
AgTe2Gd,0.5451,-0.0421525,,2,3.0
MnNp,0.0,-0.0626711,,2,3.0
InHg4,0.0,-0.061195,,2,3.0
S4Co2Cu,0.0,-0.0131591,,2,3.0
TeAu2,0.0,-0.0586154999999999,,2,3.0
H2Pr3,0.0,-0.0277558,,2,3.0
Pd4LaHg,0.0,-0.0410947,,2,3.0
Si2Sm2Pb,0.0,-0.037627,,2,3.0
O8GaRbMo2,4.0685,-0.0152304,,2,3.0
Ca2SrIn,0.0,-0.019049,,2,3.0
Se2InNp,0.0,-0.0458945999999999,,2,3.0
Br3RbSr,3.9941,-0.0224327,,2,3.0
S5MnCd4,0.1306,-0.0196301999999999,,2,3.0
Li4AlSr,0.0,-0.0066325,,2,3.0
ZnYIn2,0.0,-0.0275277999999999,,2,3.0
O6TiCrBa2,0.0,-0.0180821,,2,3.0
NiZn7,0.0,-0.0139006,,2,3.0
B2ScCo2,0.0,-0.0133201,,2,3.0
C3Cr2Tb2,0.0,-0.0233165,,2,3.0
Mg4RbSb3,0.7586,-0.0195884,,2,3.0
AlNiZrRu,0.0,-0.023086,,2,3.0
BeGa2Rh2,0.0,-0.0215318,,2,3.0
Cl3ScCs,0.0,-0.0174269999999999,,2,3.0
NaSr3Hg,0.0,-0.0280827,,2,3.0
B6Fe12Nd,0.0,-0.0163332,,2,3.0
Pd2InEr,0.0,-0.0382256,,2,3.0
Na3KCd,0.0,-0.0102712,,2,3.0
MgCoGe,0.0,-0.0140571,,2,3.0
FeRe3,0.0,-0.0578014,,2,3.0
Ag2NdGd,0.0,-0.0415818,,2,3.0
Al5SrAu2,0.0,-0.0255782999999999,,2,3.0
Zn2Ag2Ba,0.0,-0.026035,,2,3.0
Li3Pb,0.0,-0.0211875,,2,3.0
Te2PtTh6,0.0,-0.0808200999999999,,2,3.0
Cu4ZnCd,0.0,-0.0174204,,2,3.0
MgAsPb,0.0,-0.0338169,,2,3.0
F7K3La,0.0182,-0.0116014,,2,3.0
Al3Ge2Hf3Re,0.0,-0.0361735,,2,3.0
LiRbTe,2.2939,-0.0213332,,2,3.0
Zn2TbTm,0.0,-0.0318294,,2,3.0
MnTa2,0.0,-0.0506496,,2,3.0
B2N3Cr2Ce3,0.0,-0.0224625,,2,3.0
CCr2Ge2Ho2,0.0,-0.0267467,,2,3.0
Se2AgCe,0.0,-0.0303719,,2,3.0
GdHg2,0.0,-0.0656302,,2,3.0
Mg4KSr,0.0,-0.0083699,,2,3.0
B2Mn2Ir,0.0,-0.0250048,,2,3.0
O2TeNd2,1.57,-0.0305629,,2,3.0
In2CsBi2,0.0,-0.0526615,,2,3.0
Be2ZnRh,0.0,-0.014487,,2,3.0
Al7Cu2Th3,0.0,-0.0314857,,2,3.0
Ni2In5Hf4,0.0,-0.0413143,,2,3.0
Si2ScCe2,0.0,-0.0253288,,2,3.0
C2Zr3,0.0,-0.0233033,,2,3.0
Fe4ZnDy,0.0,-0.0223089,,2,3.0
Mg2P2Pr,0.0,-0.0159126,,2,3.0
Al3RuSn2Er3,0.0,-0.0319879,,2,3.0
Ca2CsBi2,0.0,-0.0436255,,2,3.0
Ga3RhTb2,0.0,-0.0302466,,2,3.0
BCNiTb,0.0,-0.0207101,,2,3.0
Si2Co2Pa,0.0,-0.0315022,,2,3.0
O3K2Cd2,0.627,-0.0150244,,2,3.0
LiCl6Rb2Tl,1.6271,-0.0180245999999999,,2,3.0
AlLa,0.0,-0.0258693999999999,,2,3.0
CScTi2In,0.0,-0.0186455,,2,3.0
Al2CdGd2,0.0,-0.0331228,,2,3.0
MoW4,0.0,-0.0627305,,2,3.0
F6BaTb,0.0,-0.0171264,,2,3.0
F3KAg,0.0,-0.0120638,,2,3.0
Sc6PdPb2,0.0,-0.0305930999999999,,2,3.0
Tb2Pt2Tl,0.0,-0.0624324,,2,3.0
FRb2Au,2.7114,-0.0300575,,2,3.0
Ca2Rh2Pb,0.0,-0.0331077,,2,3.0
CCo2Sn2Pr2,0.0,-0.0295104,,2,3.0
MgCu2Er2,0.0,-0.0275111,,2,3.0
FeSn2Tb6,0.0,-0.0416186,,2,3.0
O6Zr2Mo,0.0,-0.0179613,,2,3.0
Si2Sc2Ni,0.0,-0.0138301,,2,3.0
ZnSn2Ho,0.0,-0.0340897999999999,,2,3.0
Cl2Sc,0.0,-0.0122028,,2,3.0
GaI3La3,0.0,-0.037793,,2,3.0
Co10YLa,0.0,-0.0203347,,2,3.0
Be2TiPd,0.0,-0.0148318,,2,3.0
In2SnHg2,0.0,-0.0477044,,2,3.0
Cl6CuPdCs2,0.0,-0.0184492,,2,3.0
MgRh2Hf2,0.0,-0.0403849,,2,3.0
CuAs2Cs2,0.0,-0.0266459,,2,3.0
Cl7Ca2Rb3,4.8999,-0.0138865999999999,,2,3.0
BPd6Sm2,0.0,-0.0334076,,2,3.0
PSe4RbAg2,0.2943,-0.0222228,,2,3.0
AlRhEr,0.0,-0.0317184,,2,3.0
Zr2RhOs,0.0,-0.0425848,,2,3.0
O6MgGePr2,4.624,-0.0179041,,2,3.0
LiSr3Ir,0.0,-0.0281822,,2,3.0
NiPt2Au,0.0,-0.0565376,,2,3.0
Ga2PrHo,0.0,-0.0318899,,2,3.0
Cu2GeSe3,0.0,-0.0185503,,2,3.0
KSe2Ag2,0.0,-0.0227488,,2,3.0
NaK2Br6Tm,3.9137,-0.0208854,,2,3.0
Al3Sn2Gd3Os,0.0,-0.0388675,,2,3.0
Y2AgSn2,0.0,-0.03247,,2,3.0
B6Co2La,0.0,-0.0140085,,2,3.0
BrZr,0.0,-0.0262071,,2,3.0
CuAs2Tl,0.0,-0.0319581,,2,3.0
O2Y2Cd,0.0,-0.0224132,,2,3.0
LiAg2Pt,0.0,-0.0340469,,2,3.0
LiAs2Pd2Sm,0.0,-0.0264711,,2,3.0
Al2SrIn2,0.0,-0.021231,,2,3.0
O4GdDy,0.0,-0.024885,,2,3.0
CaCuSn,0.0,-0.0207335,,2,3.0
O6Cu3YBa2,0.0,-0.0179584,,2,3.0
Sc6MnGa2,0.0,-0.0154792,,2,3.0
Si2AgEu,0.0,-0.0266918,,2,3.0
Ni4YAg,0.0,-0.0209035,,2,3.0
Si2Ag2Pu,0.0,-0.0386965,,2,3.0
FeHo6Bi2,0.0,-0.0526201,,2,3.0
Te2Tm6Au,0.0,-0.0513994,,2,3.0
F3ICsBi,3.4503,-0.0294655,,2,3.0
Li3O6MnNi2,0.0,-0.0098299,,2,3.0
BeTiPd2,0.0,-0.0220814999999999,,2,3.0
FeGe2Th,0.0,-0.0385349,,2,3.0
Al2LaIr3,0.0,-0.0463712,,2,3.0
Mg2Ga2Hg,0.0,-0.0222801,,2,3.0
FeCuHf2,0.0,-0.0399093,,2,3.0
Al4SrAu,0.0,-0.0208807,,2,3.0
Mg3Ag2,0.0,-0.0157303,,2,3.0
BTbIr2,0.0,-0.0498801,,2,3.0
SiK2Zn,0.3481,-0.0101289999999999,,2,3.0
MnGa3Ge2Y3,0.0,-0.0217399,,2,3.0
Li2NaAg2,0.0,-0.0144535,,2,3.0
SiSe3Er4,0.0,-0.0356733,,2,3.0
Ga4LuPt,0.0,-0.0325472,,2,3.0
Si2RuGd,0.0,-0.0292872,,2,3.0
O9Ba3Dy4,3.2258,-0.0263541,,2,3.0
Li2Mg2Ge2Th,0.0,-0.0216707,,2,3.0
CaBi3,0.0,-0.0617626,,2,3.0
Nb6OsAu,0.0,-0.0427776,,2,3.0
H2IBa,2.6958,-0.0218111,,2,3.0
Ga3Np,0.0,-0.0392245,,2,3.0
Mg2As2Tb,0.0,-0.0203935999999999,,2,3.0
SiTiRh,0.0,-0.0210271,,2,3.0
TiAsTa,0.0,-0.0349987,,2,3.0
Ge2Sr3In3Au,0.0,-0.0311497,,2,3.0
GaEr2Os2,0.0,-0.0527252999999999,,2,3.0
Al3Si2RhLa3,0.0,-0.0237204,,2,3.0
Ta2Ir2Au,0.0,-0.0694495,,2,3.0
ZnHo2Au2,0.0,-0.0508469,,2,3.0
Li4O2F6Co3,0.0,-0.0086796,,2,3.0
Ag2EuPb,0.0,-0.0483626999999999,,2,3.0
ZrRuIr2,0.0,-0.0526212,,2,3.0
O4LaNd,0.0,-0.0215295,,2,3.0
O7Co2As2,0.0,-0.0120577,,2,3.0
Fe2NbSn,0.0,-0.0263176,,2,3.0
F6ZnAu,0.0,-0.0145153,,2,3.0
Ge2Ag2Gd,0.0,-0.0323721,,2,3.0
LiMgGaPt,0.0,-0.0243171,,2,3.0
NiSr2Te,0.0,-0.0251664,,2,3.0
CrIr2,0.0,-0.0538752,,2,3.0
NaS8Nb6,0.0,-0.019914,,2,3.0
H6CrCs3,1.6653,-0.0155626,,2,3.0
Al2ScTc2,0.0,-0.0204663,,2,3.0
Tb3Hg,0.0,-0.0524202999999999,,2,3.0
Cl6KRb2Sb,3.2949,-0.0151553,,2,3.0
O2MnIBi,0.6906,-0.0304963,,2,3.0
Hf2Tl,0.0,-0.0659886,,2,3.0
O3GeBa,3.2682,-0.0178695,,2,3.0
Cs5Bi4,0.0,-0.0563955,,2,3.0
YCd2Pb,0.0,-0.0415786999999999,,2,3.0
H3LiMg,3.8633,-0.0038938,,2,3.0
OTi,0.0,-0.0139463,,2,3.0
Sc2Ge2Ta,0.0,-0.0273103,,2,3.0
ScCo4Cd,0.0,-0.0190847,,2,3.0
O5Ba2Er2,2.0094,-0.0268155,,2,3.0
GaSe2Au,0.0899,-0.0317564,,2,3.0
B2CNdIr2,0.0,-0.0357984,,2,3.0
SSnU,0.0,-0.0505,,2,3.0
S3Sn2Tl2,0.3677,-0.0354802,,2,3.0
HBeV,0.0,-0.00869,,2,3.0
SrCd2Ba2,0.0,-0.0327202,,2,3.0
O4SiZn2,2.8237,-0.01111,,2,3.0
AlPd5Sb,0.0,-0.0304744,,2,3.0
MgAu7,0.0,-0.0613502,,2,3.0
SiAgLu,0.0,-0.0328523,,2,3.0
K2Hg7,0.0,-0.0551522,,2,3.0
BrBa3,0.0,-0.0354095,,2,3.0
O6Sr2BiTh,0.0,-0.0283568,,2,3.0
O4Sb2IDy,0.7356,-0.0250534,,2,3.0
CaNdBi,0.0,-0.0447326,,2,3.0
NiAs2Tm6,0.0,-0.0416242999999999,,2,3.0
Cu3As,0.0,-0.0164409999999999,,2,3.0
CsAuTl,0.0,-0.0600360999999999,,2,3.0
SiBa2Pb,0.0,-0.0417958,,2,3.0
Ag2Sn,0.0,-0.0327786,,2,3.0
KZn2Au,0.0,-0.0264431,,2,3.0
O3FeEu,0.0,-0.0205173999999999,,2,3.0
ZnHo2Pt2,0.0,-0.0516385,,2,3.0
S3Cr2SeCd,0.1803,-0.017592,,2,3.0
LiAsPb,0.0,-0.0331019,,2,3.0
H4NAgTe4W,0.3912,-0.0249338,,2,3.0
NGaTb3,0.0,-0.0343019,,2,3.0
Mg4Cu2Zn,0.0,-0.0092095,,2,3.0
PRbPd,0.0,-0.0217755,,2,3.0
DyLuBi,0.0,-0.0612186,,2,3.0
F6AlPa,0.0,-0.0196866999999999,,2,3.0
CdNdPt4,0.0,-0.0600577,,2,3.0
O6MgCrTb2,0.0,-0.0186576,,2,3.0
O6TiSbLa,2.8599,-0.0177205,,2,3.0
O9KSr2Bi3,0.0,-0.024605,,2,3.0
CrBr6Cs2,0.0,-0.0247826,,2,3.0
Se3AgCsDy,0.0,-0.0308162,,2,3.0
H2V,0.0,-0.0083713,,2,3.0
Se3InSm4,0.0,-0.0356272,,2,3.0
B2O6NbCs,3.0887,-0.0149976,,2,3.0
AsPdCs2,0.0,-0.0326115,,2,3.0
CoYIn5,0.0,-0.0306107,,2,3.0
Zn3SrIr2,0.0,-0.0344474,,2,3.0
H2Sc2Ir,0.0,-0.0222381,,2,3.0
NaS3CuZr,0.4767,-0.0145658,,2,3.0
LiMnPt2,0.0,-0.0410001,,2,3.0
H8C3NAlCl2,5.3292,-0.0065933,,2,3.0
O7Ge2Lu2,3.9901,-0.0203838,,2,3.0
CaYPb2,0.0,-0.0479888,,2,3.0
HOSrI,3.8134,-0.0191902,,2,3.0
LiSiGd2,0.0,-0.0328817999999999,,2,3.0
KSn2Hg2,0.0,-0.0435045,,2,3.0
Ge2RhTb,0.0,-0.03059,,2,3.0
LiF6Rb2Y,7.108,-0.0128708,,2,3.0
Ge3ZrLa,0.0,-0.0270359,,2,3.0
Zn2InAc,0.0,-0.0380416,,2,3.0
SrTe3SmPt,0.0,-0.0427648999999999,,2,3.0
S4NiCu4,0.0,-0.0130943,,2,3.0
P2Cu2Ce,0.1849,-0.0199823999999999,,2,3.0
Ga2Y2Cd,0.0,-0.0244708,,2,3.0
SV,0.0,-0.0145689,,2,3.0
Li2AlRh,0.0,-0.0121354,,2,3.0
Co4ZrAu,0.0,-0.0283931,,2,3.0
Al2CuZr,0.0,-0.0159027999999999,,2,3.0
GeSrRu,0.0,-0.0259663,,2,3.0
Sr2LaHg,0.0,-0.0392857,,2,3.0
RbPdTl3,0.0,-0.0542321,,2,3.0
S3MnZrSn,0.0,-0.0199826,,2,3.0
F6YAg,0.4573,-0.0127444,,2,3.0
O6Ba2HoTm,0.0,-0.0247682,,2,3.0
B2Ir3U,0.0,-0.0558245,,2,3.0
MgY2Ir2,0.0,-0.0414959,,2,3.0
Mg3Ni2,0.0,-0.0095266,,2,3.0
Sn2Tb6Ir,0.0,-0.047811,,2,3.0