formula,bg,formation_energy,mp-id,fidelity,bg_category
MgAl4Sc5,0.0,-0.0111060999999999,,2,3.0
P2KNi2Pr,0.0,-0.0182662,,2,3.0
NiSn2Tb,0.0,-0.03428,,2,3.0
RhCdTb,0.0,-0.0376884,,2,3.0
BeMnCo2,0.0,-0.0144599,,2,3.0
O5MnCoBaNd,0.0,-0.0191637999999999,,2,3.0
ScTh5,0.0,-0.0822766,,2,3.0
F6Rb2Rh,0.0,-0.0131516,,2,3.0
MnRu2Ho2,0.0,-0.0375861,,2,3.0
PrPmIr2,0.0,-0.0580463,,2,3.0
Si4Dy3Au4,0.0,-0.0427135,,2,3.0
CaAg2Sn2,0.0,-0.0291745,,2,3.0
C2O6NaPr,4.6774,-0.0128202,,2,3.0
O3F2Al2K2,4.0611,-0.0095752,,2,3.0
Ni4HoTl,0.0,-0.0312733,,2,3.0
Ni2As2Dy,0.0,-0.0249843,,2,3.0
S4GeAg2Ba,0.5769,-0.020882,,2,3.0
Be2ClPt,0.0,-0.0224052,,2,3.0
MgZnBa2,0.0,-0.0245109,,2,3.0
ClGaSr,0.0,-0.0171282,,2,3.0
NaSi2P2,0.0,-0.0092743,,2,3.0
Ce7C3I10,0.0,-1.287155253499999,mp-568922,2,3.0
CrAu3,0.0,-0.056612,,2,3.0
ClNiTe,0.0,-0.0209867,,2,3.0
Mg12Pr,0.0,-0.0079733,,2,3.0
AlSe2Te,0.0,-0.0218044,,2,3.0
P2Cl2Cd3,1.3447,-0.0188834,,2,3.0
AlTi2Re,0.0,-0.0282676,,2,3.0
AlPdLu,0.0,-0.0329806,,2,3.0
Mg2ZnAg,0.0,-0.0139206,,2,3.0
S3SnNd4,0.0,-0.0318074,,2,3.0
O6NbBa2Hf,0.0,-0.024544,,2,3.0
TiCoNi2,0.0,-0.0167960999999999,,2,3.0
Ru2Sm2Tl,0.0,-0.0465435,,2,3.0
FeGeTb,0.0,-0.0284966,,2,3.0
CeTbTl2,0.0,-0.0594515,,2,3.0
P3Ru,0.9925,-0.0171166,,2,3.0
N2Na2Hf,0.0,-0.0188682,,2,3.0
CNMn6Zn2,0.0,-0.0158171,,2,3.0
Sb2SmIr2,0.0,-0.0529595,,2,3.0
F7Ca2Er,6.6889,-0.0136634,,2,3.0
O3RbZr,0.0,-0.0166710999999999,,2,3.0
O6Nb2Th,0.0307,-0.0252484,,2,3.0
MgSr2Hg2,0.0,-0.0377132,,2,3.0
KSe2Pa,0.0,-0.0384474999999999,,2,3.0
Cu3La,0.0,-0.0223413,,2,3.0
Al3ZnHf2,0.0,-0.0275072,,2,3.0
Zn4YRu,0.0,-0.0198213,,2,3.0
O3KOs,0.0,-0.021114,,2,3.0
PTi2,0.0,-0.0153177,,2,3.0
CdSmIr,0.0,-0.0492852,,2,3.0
F3CoRb,0.0,-0.0122815999999999,,2,3.0
PSeOs,0.6171,-0.0345105999999999,,2,3.0
OFe2Br2,0.0,-0.0171190999999999,,2,3.0
Si2GaTm2,0.0,-0.0287066,,2,3.0
AlTcTa,0.0,-0.0369103,,2,3.0
C5Ni3Tm4,0.0,-0.0259534999999999,,2,3.0
LiCa2Hg,0.0,-0.022885,,2,3.0
F6NaCs2Er,7.0923,-0.0187273,,2,3.0
K2CdInTe4,0.0,-0.0293714,,2,3.0
Li2SnHo,0.0,-0.0228501,,2,3.0
AlCoNi2,0.0,-0.0147572,,2,3.0
P2CaIr2,0.4889,-0.0355654,,2,3.0
TiTa2Os,0.0,-0.0556343,,2,3.0
As2ZrHf2,0.0,-0.0402774,,2,3.0
Cl3AsEu3,0.0,-0.0315109,,2,3.0
CoGa4Er,0.0,-0.0226922,,2,3.0
SiGeNd,0.0,-0.0248668,,2,3.0
O4SnTh,2.747,-0.0290195,,2,3.0
SSeHg2,0.0183,-0.0416739,,2,3.0
NaAlSi,0.0,-0.0074551,,2,3.0
O4NaTiNd,2.49,-0.0159201,,2,3.0
CLa3Pb,0.0,-0.0436577,,2,3.0
CoTa2Os,0.0,-0.0558697,,2,3.0
Te4TaTl3,1.2716,-0.0543751,,2,3.0
Li2O7Ti2Th,2.1891,-0.0179635,,2,3.0
OTiZr3,0.0,-0.0240507999999999,,2,3.0
P3Zn2Br,1.5296,-0.0133706,,2,3.0
CCl2Y2,0.832,-0.0181323,,2,3.0
O6Ba2TbPt,0.0,-0.0258712,,2,3.0
O7Al2Sb2Ba,3.2802,-0.0169899999999999,,2,3.0
S2CuAg,0.0,-0.0165307,,2,3.0
Ga2SnPb2,0.0,-0.0439211,,2,3.0
O8P2TiRb,0.0,-0.0115041,,2,3.0
DyIr3,0.0,-0.0659935,,2,3.0
Al3Ge2Lu3W,0.0,-0.0335523,,2,3.0
O4CoCs3,0.3266,-0.0208005,,2,3.0
GaTm,0.0,-0.0348116,,2,3.0
As2CdPb,0.0,-0.0366627999999999,,2,3.0
NiCdAu2,0.0,-0.0462884999999999,,2,3.0
LiPdNd2,0.0,-0.0309544,,2,3.0
CO7SMn,0.7259,-0.0096710999999999,,2,3.0
Pd2CdHg2,0.0,-0.0466468,,2,3.0
Si2LuPt2,0.0,-0.0443302,,2,3.0
Co2Ce2Tl,0.0,-0.0394268,,2,3.0
YErTl2,0.0,-0.0562767,,2,3.0
Si2Co2Tc,0.0,-0.0183511999999999,,2,3.0
OZr3,0.0,-0.0261182,,2,3.0
Sc2CuGa3,0.0,-0.0161133,,2,3.0
Ca3NiGa3Ge2,0.0,-0.0152745,,2,3.0
Ca2CdHg,0.0,-0.030062,,2,3.0
Se2Nd,0.0,-0.0297697,,2,3.0
AlCu2Eu,0.0,-0.0232757,,2,3.0
C3Hf2W2,0.0,-0.0426822,,2,3.0
GaRuNd,0.0,-0.0320824,,2,3.0
BNCaFe,0.0,-0.0119408,,2,3.0
Be4FeRu,0.0,-0.0120952,,2,3.0
Mg2As2Gd,0.0,-0.0228014,,2,3.0
F3Br,2.0006,-0.0084268,,2,3.0
HNi3Tl,0.0,-0.0247491,,2,3.0
LaDy,0.0,-0.0453962999999999,,2,3.0
Mn4RhW,0.0,-0.0293667,,2,3.0
Cl4MnAg2,1.5556,-0.0170596,,2,3.0
K2SrBa,0.0,-0.0195668,,2,3.0
O4CrHo,0.0,-0.0182773,,2,3.0
Cl6KCs2Nd,5.0316,-0.0199203,,2,3.0
Si2EuIr2,0.0,-0.044268,,2,3.0
Sr2Sn2Tl,0.0,-0.0383357999999999,,2,3.0
Ni2ZnNd,0.0,-0.0227169999999999,,2,3.0
CrMn2I6,0.0,-0.0312867,,2,3.0
BCFePa,0.0,-0.034304,,2,3.0
O2Br2W,0.7663,-0.0256781,,2,3.0
AsY2Te,0.0,-0.0299822,,2,3.0
NBrY2,0.0,-0.0227603,,2,3.0
BNi3,0.0,-0.014146,,2,3.0
NEu3Tl,0.0,-0.0493662,,2,3.0
MgZnTe2,1.7624,-0.0239726,,2,3.0
SrHgPb2,0.0,-0.0609687,,2,3.0
S2KSn,1.693,-0.0167199,,2,3.0
Al5CoLu,0.0,-0.0163724999999999,,2,3.0
O10Ba,0.2681,-0.0096714,,2,3.0
Ni3Se4Nb,0.0,-0.0206973,,2,3.0
Ga3Zr2Ir,0.0,-0.0310721999999999,,2,3.0
PdInLa,0.0,-0.0373367999999999,,2,3.0
Cu4HoHg,0.0,-0.029951,,2,3.0
NiAs2Y,0.0,-0.0220868,,2,3.0
Mg2PtPb,0.0,-0.0395677,,2,3.0
NF2,1.6374,-0.0055257,,2,3.0
FeCuZn,0.0,-0.0156298,,2,3.0
MgZn2La2,0.0,-0.0239315,,2,3.0
Si3Sc3V2,0.0,-0.0141582,,2,3.0
Al2SiCo2,0.0,-0.0125297,,2,3.0
PCa2Ni,0.0,-0.0122148,,2,3.0
SiCoHo,0.0,-0.0261620999999999,,2,3.0
Zn2Au2Bi,0.0,-0.0489326,,2,3.0
MgScZn,0.0,-0.0112071,,2,3.0
Ga6NdIr,0.0,-0.0271866999999999,,2,3.0
ZnRhEr2,0.0,-0.0377386,,2,3.0
CoNi2Re,0.0,-0.0300903,,2,3.0
AgBaLa2,0.0,-0.0393656,,2,3.0
SnTeLa,0.0,-0.0399647999999999,,2,3.0
S2RbZr,0.0,-0.0193805,,2,3.0
Y3In3Sn2Ir,0.0,-0.0370974,,2,3.0
H10O5Na2S,3.6248,-0.0057672999999999,,2,3.0
V2MnFe,0.0,-0.0180428,,2,3.0
F6K3Pd,0.5678,-0.0103361,,2,3.0
LaSmPb2,0.0,-0.060547,,2,3.0
LuAuPb,0.0,-0.0676605,,2,3.0
O8P2InBa,0.0,-0.0144224,,2,3.0
PdGdBi2,0.0,-0.0628635,,2,3.0
CdTh,0.0,-0.0632839,,2,3.0
SrBa2Bi2,0.0148,-0.052654,,2,3.0
MgPr2Au2,0.0,-0.0468857,,2,3.0
CN2Cl2Sr2,4.2551,-0.0145393,,2,3.0
GaEr2Pt,0.0,-0.047883,,2,3.0
H4MnCe,0.0,-0.0131944,,2,3.0
AgBa2Bi,0.0412,-0.0479889,,2,3.0
Ru3Ce2,0.0,-0.0390743,,2,3.0
Zn2YIn2,0.0,-0.0247526,,2,3.0
Pd3Hg,0.0,-0.0417613,,2,3.0
MnFe4Zr,0.0,-0.020411,,2,3.0
Te6ErU,0.0,-0.0479017,,2,3.0
O4NaMoCs,4.2871,-0.0167399,,2,3.0
O6AsBa2Sm,3.5023,-0.0209177,,2,3.0
SrCdBi2,0.0,-0.053002,,2,3.0
KAs2Rb2,0.0,-0.0184563999999999,,2,3.0
CuGeZrSb,0.0,-0.0260373,,2,3.0
BaHg2Pb,0.0,-0.0634657,,2,3.0
Na2SiS4Zn,3.1738,-0.0099177,,2,3.0
PCa2Tl,0.0,-0.0263454,,2,3.0
P2Zn2Y,0.0,-0.0158998,,2,3.0
LiAs2Ag,0.0,-0.0187156,,2,3.0
Mn2Sb,0.0,-0.0247983,,2,3.0
RuHf6Bi2,0.0,-0.0634708,,2,3.0
Co2As2Nd,0.0,-0.024482,,2,3.0
As7Re3,0.0,-0.0355703,,2,3.0
Ge2LaAc,0.0,-0.0436132,,2,3.0
O5CaV2,0.1635,-0.0123983,,2,3.0
Ge2LuPt2,0.0,-0.0477787,,2,3.0
F8Sc2Ba,5.5487,-0.0129658,,2,3.0
CdBaBi2,0.0,-0.0573819,,2,3.0
PNb2,0.0,-0.0263888,,2,3.0
BeO4S,7.001,-0.0085618999999999,,2,3.0
LiAsIn2,0.1039,-0.0226369,,2,3.0
Mg2Cu2Sr3Sb4,0.1614,-0.0240914,,2,3.0
O2PrNd,0.0,-0.0278271,,2,3.0
AlYLa,0.0,-0.0264774999999999,,2,3.0
Si3ScCu2,0.0,-0.0128155,,2,3.0
H2K2Pd,0.8434,-0.0115954,,2,3.0
KCrCuTe3,0.0,-0.0261909,,2,3.0
CoZr2Re,0.0,-0.0378416,,2,3.0
AlP2Rb3,0.5594,-0.0157063,,2,3.0
Li2CdTl2,0.0,-0.0361975,,2,3.0
P4Ca2Ru,0.0749,-0.0146146,,2,3.0
HTa,0.0,-0.0351248,,2,3.0
Sb2Er,0.0,-0.0423814,,2,3.0
H2Ca2Cd,0.0,-0.0118509,,2,3.0
AlTaAu2,0.0,-0.0535244,,2,3.0
Li5O4Pd,0.0,-0.0086136,,2,3.0
MnPt7,0.0,-0.06398,,2,3.0
PdCdSb,0.0,-0.0338901,,2,3.0
H3Nd,0.0756,-0.0141548,,2,3.0
MgRhEr,0.0,-0.0304861,,2,3.0
Ge2Y2Hg,0.0,-0.0332417,,2,3.0
Ga2Rh3Tm,0.0,-0.0318049,,2,3.0
O6MnBa2W,0.0795,-0.0232107,,2,3.0
Zr3Ru2Ag,0.0,-0.032728,,2,3.0
AlBr3Dy3,0.0,-0.0312069,,2,3.0
ZnMoIr,0.0,-0.040045,,2,3.0
Br3SnGd3,0.0,-0.0400287,,2,3.0
SbAu2Np,0.0,-0.070793,,2,3.0
MgCaSr2,0.0,-0.0148110999999999,,2,3.0
Ag8Pb,0.0,-0.0362494,,2,3.0
GePdPr,0.0,-0.0327567,,2,3.0
Li2O6FeW,0.0,-0.0150297,,2,3.0
Al2FeNi,0.0,-0.0130587,,2,3.0
ZnPr2Pb,0.0,-0.0445606,,2,3.0
MgHg2Bi,0.0,-0.0550263,,2,3.0
CHo2Hg,0.0,-0.0446043,,2,3.0
Na2SrHg2,0.0,-0.0338103,,2,3.0
Be5Mg,0.0,-0.0043911,,2,3.0
InSbLa2,0.0,-0.0401729,,2,3.0
CuCd2Tl,0.0,-0.0369952,,2,3.0
F4ClBrCs2Os,0.0,-0.0230234,,2,3.0
Cl3GaGd3,0.0,-0.0326034999999999,,2,3.0
CN2IPr,1.9711,-0.0227882,,2,3.0
ScW,0.0,-0.0418546,,2,3.0
HSePa,0.0,-0.0420255999999999,,2,3.0
B2CPd2Eu,0.0,-0.0245615,,2,3.0
SiFeCe,0.0,-0.0247576,,2,3.0
Ni6GaTa,0.0,-0.0228389,,2,3.0
LiScCu2As2,0.0,-0.0152688,,2,3.0
F6NiCs3,0.1287,-0.0177297,,2,3.0
O7Y2Ce2,1.9457,-0.0208777,,2,3.0
LiCu5,0.0,-0.0130732,,2,3.0
BeMgCu2,0.0,-0.0100726999999999,,2,3.0
ScRh2Hg,0.0,-0.0380565,,2,3.0
Mg2Nd,0.0,-0.0179609999999999,,2,3.0
Rh2Gd,0.0,-0.0428886,,2,3.0
Al3RhPr2,0.0,-0.0246622999999999,,2,3.0
Cl6K2Hf,3.9427,-0.0163052,,2,3.0
Ta4Pt,0.0,-0.0676633,,2,3.0
Co2Te3,0.0,-0.0293499,,2,3.0
O6SrI2,3.2118,-0.015978,,2,3.0
Br6Sr2Ba,4.4218,-0.0246614,,2,3.0
Se3SrNb,0.0,-0.0243057,,2,3.0
AlNi4Nd,0.0,-0.0197586,,2,3.0
Ti2NiSe6,0.0,-0.0195545,,2,3.0
O6ZnSr2Sb,0.0,-0.0154484999999999,,2,3.0
O7Nd2Th2,2.6689,-0.0332064,,2,3.0
SIDy,2.4652,-0.0334005,,2,3.0
NiSrIn3,0.0,-0.0281089,,2,3.0
LiOs,0.0,-0.0371579,,2,3.0
ScInAu2,0.0,-0.0472695,,2,3.0
As2Ho6Os,0.0,-0.0459895,,2,3.0
O8AlSe2Cs,3.2556,-0.0128361999999999,,2,3.0
O6Sr2LuAu,1.8449,-0.0230436,,2,3.0
F6SmDy,7.1929,-0.0184647,,2,3.0
Li4O8FeY3,0.0,-0.0128522999999999,,2,3.0
CuPd2La2,0.0,-0.0340086,,2,3.0
Al3Si2Ce3Os,0.0,-0.0283215,,2,3.0
KLa2Ir,0.0,-0.0419489,,2,3.0
GaPd2Ac,0.0,-0.0439839,,2,3.0
Al6CaPt,0.0,-0.0163812999999999,,2,3.0
MoTc2Ir,0.0,-0.0442035,,2,3.0
AlSi3W2,0.0,-0.0297763999999999,,2,3.0
Br2Y2Pb,0.0,-0.035587,,2,3.0
ClCdI,1.9426,-0.0259457999999999,,2,3.0
AgLaTl2,0.0,-0.0551747,,2,3.0
FeY2,0.0,-0.0245051999999999,,2,3.0
H4Cr3Rh,0.0,-0.0128473,,2,3.0
O6ZrBa2Ce,2.3355,-0.0226771,,2,3.0
Y2RhPd,0.0,-0.0315335,,2,3.0
LiOF5V2,0.5176,-0.0099474,,2,3.0
Mn2InNp,0.0,-0.0441445,,2,3.0
O8Cu3Ba2Pr,0.0,-0.0174269,,2,3.0
HGaGeCe,0.0,-0.0213701,,2,3.0
TcTa2W,0.0,-0.0598352,,2,3.0
K3Br6Er,4.5143,-0.0212151,,2,3.0
Ge3Zr,0.0,-0.022417,,2,3.0
Cl6AsI5,0.3166,-0.0212429999999999,,2,3.0
ScZn2Ag,0.0,-0.0184828,,2,3.0
Ni2Ge2Nd,0.0,-0.0235979999999999,,2,3.0
Li2SnPb2,0.0,-0.0386954,,2,3.0
Te2CsU,0.0,-0.0548742,,2,3.0
BeZr2Sb,0.0,-0.0263072,,2,3.0
F3KMn,1.2034,-0.0104235,,2,3.0
HBrLu,0.0,-0.0274299,,2,3.0
PMn2,0.0,-0.0162702,,2,3.0
Cl2GeSr3,0.0,-0.0186339,,2,3.0
K2RbTl2,0.0,-0.0365155,,2,3.0
N3Rb,4.2425,-0.0123611,,2,3.0
Co2GaY2,0.0,-0.0216875,,2,3.0
B4MnEr,0.0,-0.0171215,,2,3.0
RhCdIn2,0.0,-0.0329871,,2,3.0
SnSb2Te4,0.055,-0.0371943,,2,3.0
S3CuSrNd,1.0792,-0.0202177,,2,3.0
FeZnIr,0.0,-0.0344135,,2,3.0
F6CrNd,2.0127,-0.0140883,,2,3.0
O6ICsIr,0.0,-0.0211710999999999,,2,3.0
PSMn,0.0266,-0.0132961,,2,3.0
F6MgBi,0.0,-0.0157386,,2,3.0
Cd2ErPt,0.0,-0.0460979,,2,3.0
Zn2SrRh3,0.0,-0.0254815,,2,3.0
AsSrSb,0.0,-0.0274143,,2,3.0
AlAg6,0.0,-0.0280458,,2,3.0
Al5Sr5Sn,0.0,-0.0173125,,2,3.0
CdCs2Pt,0.0,-0.0441666,,2,3.0
LiMg5,0.0,-0.0045766999999999,,2,3.0
TeCsHg,0.427,-0.0485093,,2,3.0
Li3O8Mn4Sn,0.0,-0.0123893,,2,3.0
Al4TbTa2,0.0,-0.0305311,,2,3.0
NHf3Ir,0.0,-0.0550889,,2,3.0
LiCuZn4,0.0,-0.0120343999999999,,2,3.0
GaLuAu,0.0,-0.0479748,,2,3.0
MnGa5Tm,0.0,-0.0221324,,2,3.0
PrTb3,0.0,-0.0458815,,2,3.0
O8Cl2RbCs,5.6612,-0.0111373,,2,3.0
MgP4Rh6,0.0,-0.0234797,,2,3.0
MgSe3RbSm,2.2153,-0.0235043,,2,3.0
SiTiTe,0.0,-0.0217127,,2,3.0
O4Cu2Te2TmBi2,0.0,-0.0322185,,2,3.0
Si2Ni3Tb,0.0,-0.0199700999999999,,2,3.0
CaZrSb2,0.0,-0.0296091,,2,3.0
SiReOs2,0.0,-0.05644,,2,3.0
Si2FeU,0.0,-0.0357098,,2,3.0
Al2Y2I,0.0,-0.0223287,,2,3.0
O6TiCdPr2,2.7969,-0.0201539,,2,3.0
MgAlS4Ti,0.0,-0.011061,,2,3.0
YAgPb,0.0,-0.0456245,,2,3.0
ZnGaEu,0.0,-0.0283388,,2,3.0
KCaSe3Cd,0.0,-0.0193064,,2,3.0
KAu4Pb6,0.0,-0.0673988,,2,3.0
SiCo2Ga,0.0,-0.015571,,2,3.0
NiZnRh2,0.0,-0.024489,,2,3.0
F6CoRb2Cs,1.2268,-0.0145084,,2,3.0
F2ClK,3.1429,-0.0076247,,2,3.0
O3AlBi,2.8856,-0.023234,,2,3.0
H2Li2O5S,5.8486,-0.0070552,,2,3.0
ScPb4,0.0,-0.0637149,,2,3.0
LaPt5,0.0,-0.0665463,,2,3.0
Be2PAg,0.0,-0.0126361,,2,3.0
ScCuSrTe3,0.1021,-0.0284769,,2,3.0
GeSe4Sr2,1.6449,-0.0220365,,2,3.0
NaS2In,1.7894,-0.0152683,,2,3.0
O3NaKCo,0.1078,-0.0095816,,2,3.0
B6Mn2Ce,0.0,-0.0145855,,2,3.0
O2K2I4Os,1.2539,-0.0284918,,2,3.0
Ni2SnGd,0.0,-0.0321608,,2,3.0
O7Rb2Nb2Sm,0.0,-0.0190962,,2,3.0
Al3Si2AgEr3,0.0,-0.0257254,,2,3.0
MgZn2Eu,0.0,-0.0216938,,2,3.0
Mg2NiSr,0.0,-0.0121865,,2,3.0
CO7Na2AsSb,3.3711,-0.0116058,,2,3.0
N2SrPa,0.0,-0.0366464,,2,3.0
ZnRh2Er,0.0,-0.0336452,,2,3.0
Hf2Au3,0.0,-0.0672749,,2,3.0
Li3O8MgNi3,0.0,-0.0090622,,2,3.0
O4CuSrLa,0.0,-0.0175898,,2,3.0
Al2I8Au,0.0,-0.034921,,2,3.0
Zr2InHg,0.0,-0.0411669,,2,3.0
BePLa,0.0,-0.0203704,,2,3.0
Y2Te3,0.3021,-0.0350986,,2,3.0
ClAg2,0.6569,-0.023858,,2,3.0
In4TbIr,0.0,-0.0423961,,2,3.0
MnGa2Er6,0.0,-0.0395366,,2,3.0
ZnRb2BaBi2,0.0,-0.0425139,,2,3.0
SnGdAu,0.0842,-0.0556746,,2,3.0
Mg4Sc5,0.0,-0.0101328999999999,,2,3.0
Cl6ScCuCs2,1.8703,-0.0172709,,2,3.0
Cu4SnDy,0.0,-0.0243321,,2,3.0
Cu2Au,0.0,-0.033248,,2,3.0
Ti6ZnBi2,0.0,-0.0298839,,2,3.0
Pm3Gd,0.0,-0.0476729,,2,3.0
AlCe3,0.0,-0.0355641,,2,3.0
LiMn2As2,0.0,-0.0162724,,2,3.0
NOSn2Ba6,0.0,-0.0335744,,2,3.0
SiCu2Te4Ba,0.0225,-0.0291126,,2,3.0
H6Sc2Ni,0.0417,-0.0077385,,2,3.0
H2TcTa2,0.0,-0.0352832,,2,3.0
Mo2RhIr,0.0,-0.0439723,,2,3.0
O7P2Mn2,1.6585,-0.0116008999999999,,2,3.0
NiGa3Ge2Y3,0.0,-0.0215928,,2,3.0
LaSmTl2,0.0,-0.0586777,,2,3.0
GaBr3Sm3,0.0,-0.0312051,,2,3.0
NdBiPu,0.0,-0.0779991,,2,3.0
S3CuPrPb,1.2956,-0.0284072,,2,3.0
Pd5TePb,0.0,-0.0398391,,2,3.0
Al2HoLu,0.0,-0.0303661,,2,3.0
Se2SrPb,0.7446,-0.0360128,,2,3.0
B6Co2Pr5,0.0,-0.0231629,,2,3.0
Ge2RuBa,0.0,-0.0286149,,2,3.0
Cu2GePm,0.0,-0.0236666,,2,3.0
O6TaRe,0.582,-0.0240134,,2,3.0
Si3CuHo,0.0,-0.0192846,,2,3.0
In4TbPt,0.0,-0.0423673,,2,3.0
Br2I2Hf,0.9283,-0.0361846,,2,3.0
NaBrRb3,0.0,-0.017901,,2,3.0
Cu2HgTh,0.0,-0.0487605999999999,,2,3.0
NaCuI2,1.7254,-0.0239246,,2,3.0
Al4CuU,0.0,-0.0250958,,2,3.0
O6TeBa2Er,0.0,-0.0231086,,2,3.0
CO3Eu,0.4393,-0.0188384,,2,3.0
Y2Rh,0.0,-0.0305370999999999,,2,3.0
GaHgPb2,0.0,-0.0588977999999999,,2,3.0
AlKSn,0.0,-0.0175616,,2,3.0
CoLu6Tl2,0.0,-0.0552490999999999,,2,3.0
ScAsPt5,0.0,-0.055943,,2,3.0
TcU,0.0,-0.0691365,,2,3.0
Sb2Hf6Ir,0.0,-0.058674,,2,3.0
Li5Ag4,0.0,-0.0154094,,2,3.0
Mg2Ca,0.0,-0.006669,,2,3.0
B3CrNb,0.0,-0.0153537999999999,,2,3.0
SiRuTh,0.0,-0.0477777,,2,3.0
CuSnSm,0.0,-0.0325801,,2,3.0
GaNbRh2,0.0,-0.029965,,2,3.0
Ca5Zn,0.0,-0.0103893,,2,3.0
LiNi4Cd,0.0,-0.0162353999999999,,2,3.0
Br4RbAg,0.824,-0.0224386,,2,3.0
Pt2Pa,0.0,-0.0810094,,2,3.0
GeBr3Sr3,0.0,-0.0222954,,2,3.0
MoRh2W,0.0,-0.043224,,2,3.0
AsSbCe2,0.0,-0.0379395,,2,3.0
Si2RhIn3Pr3,0.0,-0.0322992,,2,3.0
O6SiTeEu,0.0,-0.0176676,,2,3.0
Li2CaCd,0.0,-0.0114115,,2,3.0
CoZn2La,0.0,-0.0220359,,2,3.0
Ni2GePd,0.0,-0.0213097,,2,3.0
Sc3Pd2In3,0.0,-0.0268824,,2,3.0
RuIn5Tm,0.0,-0.0365793,,2,3.0
O5Se2Pr2Hf2,1.8388,-0.0291048,,2,3.0
BeVCo2,0.0,-0.0144277,,2,3.0
LiZn2Pm,0.0,-0.0186624,,2,3.0
BO3Cr,1.2941,-0.0115253,,2,3.0
Ni2AuPb4,0.0,-0.0577496,,2,3.0
O7Mg2As2,3.1732,-0.0105940999999999,,2,3.0
Ni2SeTe,0.0,-0.0225833,,2,3.0
FeCuSb2,0.0,-0.0268882,,2,3.0
NiTm3Ir2,0.0,-0.0532292,,2,3.0
Nb2MoRe,0.0,-0.0433374,,2,3.0
Pd2PmTl,0.0,-0.0461368999999999,,2,3.0
FeGa3Ge2Tm3,0.0,-0.0296744,,2,3.0
Li4AlCa,0.0,-0.0045479,,2,3.0
MgCa2Cd2,0.0,-0.0173544,,2,3.0
Al6CaCu,0.0,-0.0091443,,2,3.0
PmDyPb2,0.0,-0.0615326,,2,3.0
ScRh2Tl,0.0,-0.0391901,,2,3.0
GaRu2Lu2,0.0,-0.0399923,,2,3.0
Se2Rb2Ir,0.0,-0.0313336,,2,3.0
Co2NiHo2,0.0,-0.0299571,,2,3.0
Al2IHo2,0.0,-0.0307104999999999,,2,3.0
Sc2GeIr3,0.0,-0.044497,,2,3.0
O6Ba2OsPu,0.0,-0.0323992,,2,3.0
S2KLa,2.5322,-0.019868,,2,3.0
OFBrSn2,1.3684,-0.0216708,,2,3.0
BeHf,0.0,-0.0336086,,2,3.0
FeIr2U,0.0,-0.0664611,,2,3.0
Br2Zr,0.6305,-0.0246522,,2,3.0
Al3EuPt2,0.0,-0.0373077,,2,3.0
Si2Zr2W,0.0,-0.0309666,,2,3.0
AlTiOsIr,0.0593,-0.0428279,,2,3.0
H12Ba3Ir2,2.9678,-0.0184574999999999,,2,3.0
CuPdCd2,0.0,-0.0273767,,2,3.0
CuTe2Pb,0.0,-0.0414712,,2,3.0
Si2CuHf,0.0,-0.0249441,,2,3.0
CuSe2Rb3,1.732,-0.0206217,,2,3.0
F6CrPb,0.0,-0.0170721,,2,3.0
Be2Ru,0.0,-0.014951,,2,3.0
LiBO3Sr,4.4693,-0.011352,,2,3.0
Sn3Tm3Ir2,0.0,-0.0515817,,2,3.0
KTe2La,1.5142,-0.0331753,,2,3.0
Si2Ag2Pr,0.0,-0.0256918,,2,3.0
ZnYLa2,0.0,-0.0320849,,2,3.0
Al2EuPt2,0.0,-0.0431806,,2,3.0
Al3Sc2Fe,0.0,-0.0121256,,2,3.0
Al3Fe2Dy,0.0,-0.0182256,,2,3.0
Mo2Pt,0.0,-0.0468666,,2,3.0
Cl6Rb2InBi,0.6901,-0.0215686,,2,3.0
C2O6HgPu,0.0,-0.0253156,,2,3.0
Zn3In4,0.0,-0.0247714,,2,3.0
LiTm2Ir,0.0,-0.0450721,,2,3.0
RuCdLa2,0.0,-0.0381706999999999,,2,3.0
CuSr3Ba,0.0,-0.0243082,,2,3.0
SnPt5,0.0,-0.0646439,,2,3.0
Cd4Hg5,0.0,-0.0513553,,2,3.0
N3O4Ti2La3,0.8958,-0.0206596,,2,3.0
OAsRhLu,0.0,-0.0310613,,2,3.0
F6NaSrCs2,0.0,-0.0152571,,2,3.0
O3Cu2,0.0,-0.0104149,,2,3.0
AuPb5,0.0,-0.0746875,,2,3.0
S2SbCs,1.7276,-0.0244103,,2,3.0
Sm7Al7Co6,0.0,-0.412553282749999,mp-1209190,2,3.0
Al7Sm3Au2,0.0,-0.0278829,,2,3.0
NaSiPm2,0.0,-0.0257532,,2,3.0
Li2O2Cu,0.0,-0.0080905,,2,3.0
In2DyIr,0.0,-0.0471105999999999,,2,3.0
Cl7SeHf3,0.0,-0.0257535,,2,3.0
Zr5Cd,0.0,-0.0307104999999999,,2,3.0
CZr3Tl,0.0,-0.0355026,,2,3.0
Fe3Br8,0.0,-0.0196845,,2,3.0
Mg2SrIr2,0.0,-0.0352368,,2,3.0
O6MnBa2Pr,0.0,-0.0205542,,2,3.0
ScTl2,0.0,-0.0532742,,2,3.0
GaHoIr,0.0,-0.0465416,,2,3.0
Mg3Ba4,0.0,-0.0247306999999999,,2,3.0
B6Os2Th,0.0,-0.031969,,2,3.0
H6CuBa2,0.0,-0.013169,,2,3.0
FeGa2Y6,0.0,-0.0245237,,2,3.0
SmErTl2,0.0,-0.0604142,,2,3.0
Li2Ge2Ir,0.0,-0.0231781,,2,3.0
SiFe3Er2,0.0,-0.0278526999999999,,2,3.0
Pd2EuTl,0.0,-0.0484701,,2,3.0
O6CuBa2Ho,0.0,-0.0203578,,2,3.0
Al4RhEu,0.0,-0.0204726,,2,3.0
B2N3Rh2Tb3,0.0,-0.0265182,,2,3.0
GePd2Cd,0.0,-0.0292317,,2,3.0
Ru2TaPt,0.0,-0.0521781,,2,3.0
LiCa2Te,0.0,-0.0155643,,2,3.0
B2Ni7Sr3,0.0,-0.0163966,,2,3.0
BNNiY,0.0,-0.0164539,,2,3.0
CuSe8Nd5,0.8504,-0.0299815,,2,3.0
P2Cu2Pr,0.0,-0.0196702,,2,3.0
S3MnRbSm,0.189,-0.0205041,,2,3.0
SrPtBi,0.0,-0.0579501,,2,3.0
Zr4Ag5,0.0,-0.0310955,,2,3.0
CuGaZr,0.0,-0.0213298,,2,3.0
F6Cs2Th,6.4204,-0.025227,,2,3.0
Cl6Cs2W,0.0,-0.0230492,,2,3.0
TiSe4Nb,0.0,-0.0226256,,2,3.0
RuIn2Pr,0.0,-0.0366585,,2,3.0
SiMnRh2,0.0,-0.0247990999999999,,2,3.0
NaCl6Rb2Sb,2.995,-0.0147484,,2,3.0
ZrRh2Sn,0.0,-0.0344173,,2,3.0
N2ZnPr2,0.0,-0.0248875,,2,3.0
Al2FeTh6,0.0,-0.0678315999999999,,2,3.0
O7La2Pr2,0.5978,-0.0228765,,2,3.0
O6Si2CuBa,0.464,-0.0139299,,2,3.0
MgPdHo,0.0,-0.0297002,,2,3.0
F6ZnDy,0.0,-0.0133302,,2,3.0
BO7Na2PBi,0.0731,-0.0144219,,2,3.0
Ga5RhTa,0.0,-0.0263159,,2,3.0
MnPt5Bi,0.0,-0.0643214,,2,3.0
Sc2TaRe,0.0,-0.0416999,,2,3.0
BeOs,0.0,-0.0384153,,2,3.0
N2PrTb,0.0,-0.0288967,,2,3.0
Ti3Ga,0.0,-0.0164817,,2,3.0
KAsRu,0.0,-0.021606,,2,3.0
Al2AgAu2,0.0,-0.0374193,,2,3.0
FeCu3Te4Tl2,0.0,-0.0358931,,2,3.0
MoPt3,0.0,-0.0617010999999999,,2,3.0
TiGeTc2,0.0,-0.0267854,,2,3.0
Cu2GeSe4,0.0,-0.0187244999999999,,2,3.0
Ag2SmDy,0.0,-0.0391054,,2,3.0
S2CuCdCs,2.0385,-0.0213894,,2,3.0
H3CN2OCs,4.4866,-0.0111257,,2,3.0
TeI2Nd2,0.0,-0.0411082,,2,3.0
Li2O15Si6V,0.2781,-0.0101862,,2,3.0
Se2RbAu3,1.0428,-0.0452443,,2,3.0
PFe,0.0,-0.0147823,,2,3.0
BFe4Nd,0.0,-0.020714,,2,3.0
GaTlPb2,0.0,-0.0599373999999999,,2,3.0
Fe3Ni2Er,0.0,-0.0230353999999999,,2,3.0
CFe2Ge2Sm2,0.0,-0.0253603,,2,3.0
Na2GeSe4Pb,1.2987,-0.0237234,,2,3.0
O4VTl3,2.2876,-0.0341014,,2,3.0
KAs2Sb2,0.0,-0.0248089,,2,3.0
Al4RuLa,0.0,-0.0188183,,2,3.0
Ga3Ge2Y3Ag,0.0,-0.0231764,,2,3.0
O6YBi2,0.0,-0.0263242,,2,3.0
F6Au,0.0,-0.0136847999999999,,2,3.0
H8Mg2CaCr,0.0,-0.0057691999999999,,2,3.0
PCaTi,0.0,-0.0130166,,2,3.0
ZnCd8,0.0,-0.0284843,,2,3.0
O4ClGdBi2,0.7139,-0.0331834,,2,3.0
PAs,0.0,-0.0152298,,2,3.0
OF2Pb2,2.7866,-0.0348423,,2,3.0
Ti3Pd,0.0,-0.0206421,,2,3.0
S3SeMoW,0.906,-0.0264051,,2,3.0
Rh2TePb,0.0,-0.0453134,,2,3.0
Si2Co3Er,0.0,-0.0210482,,2,3.0
Pt4HgPu,0.0,-0.0770709,,2,3.0
Li2F5Sb,5.0644,-0.0102163,,2,3.0
P2Cu2YCs,0.0,-0.0203033,,2,3.0
AgSn2Er,0.0,-0.0388339,,2,3.0
Ru2HoEr,0.0,-0.0427325,,2,3.0
GaBrDy,0.0,-0.0292465,,2,3.0
B2O6HoPb,0.0,-0.0202666,,2,3.0
F7Ca2Gd,4.1004,-0.0144749,,2,3.0
SiSe4Ba2,2.1548,-0.025861,,2,3.0
RbAg2Sb,0.4161,-0.0303331,,2,3.0
SbBaPt2,0.0,-0.0551112,,2,3.0
Ca2Se2Cd,0.0,-0.0194378999999999,,2,3.0
Li4Nd3Bi4,0.0,-0.0421385,,2,3.0
Cu8Se,0.0,-0.0156836,,2,3.0
H4CaCs2,2.7767,-0.0146061,,2,3.0
S4SrSb2,1.0437,-0.0201515,,2,3.0
F4PdHg,0.0,-0.0205959,,2,3.0
Ni2SbTb,0.0,-0.0297282,,2,3.0
CuSrTe3Sm,0.4187,-0.0336167,,2,3.0
H4RhEr,0.0,-0.0169023,,2,3.0
Pd2In7Pr3,0.0,-0.0364481,,2,3.0
BGa2Rh2Pr,0.0,-0.0259175,,2,3.0
BrAg2I,1.0331,-0.030022,,2,3.0
MnAs2Er6,0.0,-0.0408071,,2,3.0
AsAg3,0.0,-0.0284982,,2,3.0
ScGa4Ir,0.0,-0.0257473,,2,3.0
Li3O12VTe4,1.7903,-0.0140308,,2,3.0
KCa2Ba,0.0,-0.0167027,,2,3.0
BeReIr2,0.0,-0.054943,,2,3.0
TcHf2Ir,0.0,-0.0589292,,2,3.0
Sc2Ge2Pt,0.0,-0.0284806,,2,3.0
Si2DyAu2,0.0,-0.0419169,,2,3.0
C4N4S4ZnCd,3.5217,-0.011411,,2,3.0
Fe2Rh3Pr,0.0,-0.0305212,,2,3.0
Ta3Ir,0.0,-0.0683377,,2,3.0
AsIn,0.0,-0.0270929,,2,3.0
MgSn2Th2,0.0,-0.0542183,,2,3.0
CBrLa2,0.0,-0.0300317,,2,3.0
Si2ScHf2,0.0,-0.0326645,,2,3.0
Co4ZrSn6,0.0,-0.0287235,,2,3.0