formula,bg,formation_energy,mp-id,fidelity,bg_category
Ge2Pd3Tm,0.0,-0.0321879,,2,3.0
In3Tb3Au2,0.0,-0.0482236,,2,3.0
GaRh2Pr2,0.0,-0.0349587,,2,3.0
Mg2InPt2,0.0,-0.0375241,,2,3.0
Mg2SnHg,0.0,-0.0287456,,2,3.0
ZrTeI,0.0,-0.0358693999999999,,2,3.0
CaGa,0.0,-0.0135306,,2,3.0
LiTl2Ac,0.0,-0.0598687,,2,3.0
CoGeLa,0.0,-0.0271273,,2,3.0
Li3O4Hf,0.0,-0.0144249,,2,3.0
MnZr3,0.0,-0.0276039,,2,3.0
H3ZnTa,0.0,-0.0180271,,2,3.0
PdLuHg,0.0,-0.0529147,,2,3.0
P2Co2Eu,0.0,-0.0226998,,2,3.0
O8MgAlSrLa3,2.716,-0.0188135,,2,3.0
O6MnYBa2,0.0,-0.0191286,,2,3.0
LiP2Os2,0.0,-0.0338563,,2,3.0
Ru2NdNp,0.0,-0.0552948,,2,3.0
FeSbPt5,0.0,-0.0584009,,2,3.0
O4VEu,0.0,-0.0189372,,2,3.0
LiCl6K2Dy,4.9904,-0.013777,,2,3.0
Si4Er3Ir4,0.0,-0.0444058,,2,3.0
Ru2PdLa3,0.0,-0.0389946,,2,3.0
ScZr4,0.0,-0.027352,,2,3.0
O4MnFeGa,0.0,-0.0129809,,2,3.0
Pd2Te3Pb,0.0,-0.0425739,,2,3.0
B5Ru3Tb2,0.0,-0.0241111,,2,3.0
SiSc4Se3,0.0,-0.0174894999999999,,2,3.0
CoY2Sb,0.0,-0.0281993,,2,3.0
Li2CaSn,0.0,-0.0131441,,2,3.0
Sc6As2Ir,0.0,-0.0229083,,2,3.0
SI2Tb2,0.0,-0.0371187,,2,3.0
MgSiS4Tl2,0.7266,-0.0256641,,2,3.0
O4BrCeBi2,0.0,-0.0327736,,2,3.0
OPZnU,0.0,-0.034914,,2,3.0
Cl2Se2Tb,1.1253,-0.022238,,2,3.0
CCo2Y2In2,0.0,-0.0242148,,2,3.0
Co4Sn4Pr3,0.0,-0.0315354,,2,3.0
SiNiTa2,0.0,-0.040325,,2,3.0
CGe2Ru2Lu2,0.0,-0.0334031,,2,3.0
Co2SnTb,0.0,-0.0296221999999999,,2,3.0
As2YPd2,0.0,-0.0276841,,2,3.0
Y3Os,0.0,-0.0391051,,2,3.0
Al2CuPd,0.0,-0.0165672,,2,3.0
ZrRh2Hg,0.0,-0.0422235,,2,3.0
Ge2Cd2Eu,0.0,-0.0309149999999999,,2,3.0
Al3Sc3CrGe2,0.0,-0.0142601999999999,,2,3.0
NSTb6Pb2,0.0,-0.0462295,,2,3.0
GaNd2Hg,0.0,-0.0435779,,2,3.0
O8CaV2Zr,2.4558,-0.0135198,,2,3.0
Li2Zn2Sn2Ba,0.0,-0.0209033,,2,3.0
O4HoPu,0.0936,-0.0341743,,2,3.0
ZrTc2U,0.0,-0.0512353,,2,3.0
SiTbOs,0.0,-0.0436655,,2,3.0
Tc4Rh5,0.0,-0.0344419,,2,3.0
NaAs2Pd2,0.0,-0.0225374,,2,3.0
Al3FeGe2Lu3,0.0,-0.0279983,,2,3.0
Ti2Pd2Au,0.0,-0.0339397,,2,3.0
As2ZrPd,0.0,-0.0268006,,2,3.0
Al2Sr3In2,0.0,-0.0217141,,2,3.0
S8NiCu2Sn3,0.0,-0.0169799,,2,3.0
Nd2Ir2Hg,0.0,-0.0602357,,2,3.0
P2NiNp,0.0,-0.0366238,,2,3.0
NbAu2,0.0,-0.0574323,,2,3.0
Ti6InSb2,0.0,-0.023048,,2,3.0
F4CaAu,0.2482,-0.0180689999999999,,2,3.0
SiTiNi2,0.0,-0.0153447999999999,,2,3.0
Sc3Fe2Cd,0.0,-0.0183633,,2,3.0
AlNb4,0.0,-0.0281861999999999,,2,3.0
AsZrTm,0.0,-0.0353023,,2,3.0
AlCo3Er2,0.0,-0.0270131,,2,3.0
AlNi2Ta,0.0,-0.0272216,,2,3.0
Se2Pr,0.0,-0.0296941999999999,,2,3.0
CuIn2Au,0.0,-0.0379003,,2,3.0
Si2Sc2Ge,0.0,-0.0141127,,2,3.0
N6Cr2Np3,0.0,-0.0385692,,2,3.0
SbHgTl,0.0,-0.0592884,,2,3.0
FeGa3Ge2Y3,0.0,-0.0216914,,2,3.0
Al4Sn2Sm3,0.0,-0.0268281,,2,3.0
GaCdIn2,0.0,-0.028244,,2,3.0
Ge3PrRe,0.0,-0.0347524,,2,3.0
Ga5TbIr,0.0,-0.0291879,,2,3.0
C2O6MgCs2,4.0034,-0.0145658,,2,3.0
LiAlLa,0.0,-0.0179665,,2,3.0
Co2Te3Ta,0.0,-0.0357226,,2,3.0
P2Fe2Rb,0.0,-0.016,,2,3.0
O7Ba3Th2,2.9373,-0.0329152,,2,3.0
NLa3Bi,0.0,-0.0446043999999999,,2,3.0
CrBr3Rb,0.0,-0.0208664,,2,3.0
N2PdCe2,0.0,-0.0295301,,2,3.0
CaPd2Tl,0.0,-0.0374585999999999,,2,3.0
ZnTe2Th6,0.0,-0.0742102,,2,3.0
O6ZnLa2Hf,3.9942,-0.0233471,,2,3.0
B6Fe2Pu,0.0,-0.0216281,,2,3.0
Ge3SrAu,0.0,-0.0302717999999999,,2,3.0
H6NaK2Cr,2.0236,-0.0063413,,2,3.0
RhAgGd2,0.0,-0.046238,,2,3.0
Se2RhCsHg,0.0,-0.0366803,,2,3.0
F8CaTm2,7.1866,-0.0172473,,2,3.0
B6Mn2La,0.0,-0.0143445,,2,3.0
PAsIn2,0.1051,-0.0246419,,2,3.0
FeCoIr2,0.0,-0.0444902,,2,3.0
CrIr7,0.0,-0.0646915999999999,,2,3.0
O7P4S,3.8707,-0.0096583,,2,3.0
NaAg2In,0.0,-0.0251576999999999,,2,3.0
PRhBa2,0.0,-0.0316111,,2,3.0
Si4Rh4Tb3,0.0,-0.0298354,,2,3.0
Ga3CePt2,0.0,-0.0399048,,2,3.0
Fe4CdTa,0.0,-0.0282175,,2,3.0
PIrPa,0.0,-0.0616501999999999,,2,3.0
ScSrSb,0.0,-0.0255008,,2,3.0
Be2As2Ce,0.0,-0.0194153,,2,3.0
SeSbAu2,0.0,-0.0490101,,2,3.0
H8N4KY,2.8191,-0.0078651,,2,3.0
F2SeBa2,2.7514,-0.0246065,,2,3.0
SrSb2Hg2,0.0,-0.0470717,,2,3.0
O4TiZn2,1.3954,-0.0120352999999999,,2,3.0
FeCoAs,0.0,-0.018748,,2,3.0
ZrMo,0.0,-0.0328307,,2,3.0
ScZr2Sn2,0.0,-0.030137,,2,3.0
Se3SrTmAu,1.0266,-0.0355522,,2,3.0
Ag2TbPb,0.0,-0.0466223,,2,3.0
Ba2Pt3,0.0,-0.0588284,,2,3.0
Ag2SmGd,0.0,-0.0407608,,2,3.0
O6NiZnHo2,1.2749,-0.0190904,,2,3.0
NCoZr3,0.0,-0.0247377,,2,3.0
MgCo2Dy3,0.0,-0.0307076999999999,,2,3.0
PCl3Pr3,0.0,-0.0254492,,2,3.0
Pr6PtBi2,0.0,-0.0549884,,2,3.0
Ga2Ge2Tb,0.0,-0.0239307,,2,3.0
CdHf2,0.0,-0.0520288,,2,3.0
Li2PmPb,0.0,-0.0316192999999999,,2,3.0
N4GaIn3,0.0851,-0.0193945,,2,3.0
B2N3Fe2Th3,0.0,-0.0377958,,2,3.0
H3DyOs,0.0,-0.0265169,,2,3.0
CaPtHg2,0.0,-0.0546535,,2,3.0
CCr2Ga,0.0,-0.0159325,,2,3.0
BePCu,0.0,-0.0100508,,2,3.0
F4GePb,3.4906,-0.0204399,,2,3.0
ScPb8,0.0,-0.0690169,,2,3.0
Li2GaPd2,0.0,-0.0178642,,2,3.0
ScAgAu,0.0,-0.0389947,,2,3.0
BEr3Tl,0.0,-0.0465456,,2,3.0
LaTa2Os2,0.0,-0.0644377,,2,3.0
Rh3Pt5,0.0,-0.0565494,,2,3.0
Al9Tb2Hf,0.0,-0.0192589,,2,3.0
PrLu3,0.0,-0.0523256999999999,,2,3.0
KScCuSe3,0.0,-0.0175993,,2,3.0
MgSiGa,0.0,-0.0104229,,2,3.0
Br5Pr2,0.0,-0.0283389,,2,3.0
Ni2RhLa,0.0,-0.0276832999999999,,2,3.0
CN2Br2Sr2,4.0112,-0.0176433,,2,3.0
O4SmPa,3.4092,-0.0321703,,2,3.0
Sc3Ag,0.0,-0.0186793,,2,3.0
CInTm2,0.0,-0.03736,,2,3.0
AlRuGd,0.0,-0.0343862,,2,3.0
Al9Pd3Ho2,0.0,-0.0198073,,2,3.0
F6KRb2Pr,6.1527,-0.0148852,,2,3.0
C3Er2,0.0,-0.026591,,2,3.0
Sb12NdOs4,0.0,-0.0460431,,2,3.0
Ca3Co4Ga4,0.0,-0.0151731,,2,3.0
ClNiEr,0.0,-0.0262114,,2,3.0
ZnHo2Pt,0.0,-0.0464085,,2,3.0
PScCr,0.0,-0.0153605,,2,3.0
RbSr3Pd,0.0,-0.0243113,,2,3.0
Ag2SmTm,0.0,-0.0401203999999999,,2,3.0
MnGa2Tb,0.0,-0.0250388,,2,3.0
O6InBa2Hf,0.0,-0.0240991,,2,3.0
Al6NbTa,0.0,-0.0186881,,2,3.0
Ca5(IO6)2,2.5412999999999992,-2.35833214131579,mp-1196062,2,3.0
Be2ZnAs2,0.0,-0.0125996,,2,3.0
MgK2Br6,0.0,-0.0167105,,2,3.0
Ga2Cd2La,0.0,-0.0279061,,2,3.0
Ga2Ge2Gd,0.0,-0.0263301,,2,3.0
Sc2FeHg,0.0,-0.0290617,,2,3.0
YCe3,0.0,-0.0402709,,2,3.0
Zn6Ge3Er2,0.0,-0.022147,,2,3.0
O8Cs3La,0.0,-0.0186008,,2,3.0
AlAg2Lu,0.0,-0.0318587,,2,3.0
Li4As2Th,0.0,-0.0216729,,2,3.0
H6BeN2F2,6.0842,-0.0058742,,2,3.0
Co2GaPr,0.0,-0.02377,,2,3.0
AlCoTm,0.0,-0.0260543,,2,3.0
Mn4RuW,0.0,-0.0295432,,2,3.0
Mg2InAu2,0.0,-0.0369382,,2,3.0
Mo4W5,0.0,-0.0542239999999999,,2,3.0
MgY2Hg,0.0,-0.0326654,,2,3.0
O10Sr,0.3844,-0.0080772,,2,3.0
RuSnHo,0.0,-0.0405705,,2,3.0
LiO4VMn,0.4021,-0.0114837,,2,3.0
F6HoHg,0.0,-0.0199365,,2,3.0
ScZr2Ag,0.0,-0.0268588,,2,3.0
LiK2SbI6,1.6558,-0.0286511,,2,3.0
Al2BaAu2,0.0,-0.0395113,,2,3.0
ZnRhTm,0.0,-0.0338904,,2,3.0
H4PdTm,0.0,-0.0168848999999999,,2,3.0
ZnPbAc2,0.0,-0.0680626,,2,3.0
Sc2Ga2Hg,0.0,-0.0265242,,2,3.0
CuTe3BaDy,0.3279,-0.0370874999999999,,2,3.0
CuI3,0.0,-0.0313922,,2,3.0
NiAu5,0.0,-0.0602710999999999,,2,3.0
Sc3Pd2Hg,0.0,-0.0302952,,2,3.0
Ge2Sr3In3Ir,0.0,-0.0312582,,2,3.0
Ce3Ir2Hg,0.0,-0.0580031,,2,3.0
LiCo2As2Sm,0.0,-0.0210034,,2,3.0
Pd5Ho,0.0,-0.0361228,,2,3.0
MgPSr3,0.0,-0.016977,,2,3.0
B3VNi,0.0,-0.0117571999999999,,2,3.0
GeZrTh,0.0,-0.0492198,,2,3.0
Al4La,0.0,-0.0152096,,2,3.0
As2RuTh,0.0,-0.0437209,,2,3.0
O5Na5Nb,3.0088,-0.0098374,,2,3.0
MgCa2Zn,0.0,-0.0095988,,2,3.0
C4RuDy3,0.0,-0.0277307,,2,3.0
O6Nb2La,0.0,-0.0193525999999999,,2,3.0
HCrPd3,0.0,-0.0241996,,2,3.0
B2CAl2Pa,0.0,-0.0236036,,2,3.0
SeBrEr,2.1456,-0.0320511,,2,3.0
Mg2PCo3,0.0,-0.0123445,,2,3.0
Au3U,0.0,-0.077983,,2,3.0
F6NaCs2Sm,6.9314,-0.0180735,,2,3.0
O6As4ICs,2.4013,-0.0174633,,2,3.0
O3MnSn,0.0,-0.0164437999999999,,2,3.0
ScZn2Hf,0.0,-0.0263213,,2,3.0
NFCa6In2,0.0,-0.0149743999999999,,2,3.0
Al3Ca3CuGe2,0.0,-0.0122543,,2,3.0
MgYHg,0.0,-0.0343322999999999,,2,3.0
As2SbPb,0.0,-0.0383175,,2,3.0
MnTe2Au,0.0,-0.0406569,,2,3.0
N2CrMn,0.0,-0.0144081,,2,3.0
NiGa2Er,0.0,-0.0255548,,2,3.0
Pd2Sb2Ce,0.0,-0.037822,,2,3.0
Si2Tc2La,0.0,-0.0272619,,2,3.0
AlSiIr,0.0,-0.0304026999999999,,2,3.0
NiHf2Os,0.0,-0.0540352,,2,3.0
OSbLa3,0.0,-0.0363063,,2,3.0
Ag3Cd4,0.0,-0.0308515,,2,3.0
B2EuOs2,0.0,-0.0427914999999999,,2,3.0
Sc3Cu2Ir,0.0,-0.0246949,,2,3.0
F3AgTl,0.0,-0.024414,,2,3.0
MnTe2Hg,0.0,-0.0405303,,2,3.0
GeNbOs,0.0,-0.04167,,2,3.0
AlCuBa,0.0,-0.0210476,,2,3.0
MnTe3Hg2,0.0,-0.0446883,,2,3.0
SiFeEu,0.0,-0.027631,,2,3.0
MgRuTb2,0.0,-0.0335777,,2,3.0
NiPtAu2,0.0,-0.0561773,,2,3.0
TlTh,0.0,-0.0843777999999999,,2,3.0
Li2F8CaIn,0.0,-0.0092872,,2,3.0
HLi3Al,0.0,-0.0037971,,2,3.0
SiSeLa2,0.0,-0.0305999,,2,3.0
S2MoIn,0.0,-0.0224908,,2,3.0
Mn2Co,0.0,-0.0179846,,2,3.0
Be2Ta,0.0,-0.0252838999999999,,2,3.0
Sn2CeTh,0.0,-0.0537148,,2,3.0
MgZnSn,0.0,-0.0183162999999999,,2,3.0
MnCo2In,0.0,-0.0215658,,2,3.0
KMnSe3Dy,0.1378,-0.0240693,,2,3.0
KZn4Sb3,0.0,-0.0219392,,2,3.0
Zr2Pd,0.0,-0.0319434,,2,3.0
ScAsSe,0.0,-0.0195569,,2,3.0
Sc2RuCd,0.0,-0.0240581,,2,3.0
Al3AgSn2Tm3,0.0,-0.0319065,,2,3.0
O4Cu2Se2DyBi2,0.0,-0.0287737,,2,3.0
BeBaAu3,0.0,-0.0508533,,2,3.0
Al3SiFe2,0.0,-0.011927,,2,3.0
OPdTm3,0.0,-0.0406465,,2,3.0
Sn2La2Pb,0.0,-0.0476205,,2,3.0
O4Mg2V,0.0,-0.0103169,,2,3.0
BeMgSi,0.0,-0.0064459,,2,3.0
ClGaTb,0.0,-0.0252538,,2,3.0
Si4Ce3Os4,0.0,-0.0426575,,2,3.0
PZnSr2,0.0,-0.0178694,,2,3.0
PmBi3,0.0,-0.070411,,2,3.0
S2Se2Mo3,0.0,-0.0240843,,2,3.0
Se3RbAgHo,0.0,-0.0281543,,2,3.0
Al2Ga2Sm,0.0,-0.0190370999999999,,2,3.0
NiGa5Eu,0.0,-0.022101,,2,3.0
ScRuIn,0.128,-0.0280256,,2,3.0
LiMgInPt,0.0,-0.0285235,,2,3.0
H2Nb2Ru,0.0,-0.0218676,,2,3.0
Al2CoTb6,0.0,-0.035018,,2,3.0
BaTlPb2,0.0,-0.0663383999999999,,2,3.0
Co5Hf,0.0,-0.0250035999999999,,2,3.0
SbTe,0.0828,-0.0373357,,2,3.0
MnBrSm,0.0,-0.0282989,,2,3.0
CrNiRbTe3,0.0,-0.0283909,,2,3.0
O6GeSrTe,3.1428,-0.0148695,,2,3.0
B3O9Na3La2,3.8542,-0.0133304,,2,3.0
N2OErTa,1.0484,-0.0305218999999999,,2,3.0
Al5Cu2Tb,0.0,-0.014903,,2,3.0
BPd6Tl2,0.0,-0.0390619,,2,3.0
RuSb2Nd6,0.0,-0.0419101,,2,3.0
H2CaPd,0.0,-0.0129585,,2,3.0
AlSn4,0.0,-0.0301275,,2,3.0
LiCl6ScRb2,3.7621,-0.0128899,,2,3.0
Cd2In2Sn,0.0,-0.0325899,,2,3.0
O6ZrBa2Ir,0.0,-0.0245561,,2,3.0
Se3AgCsTm,0.0,-0.0314828,,2,3.0
YCdAu2,0.0,-0.0499788,,2,3.0
H2MnNb2,0.0,-0.0184454,,2,3.0
Pt5Pu,0.0,-0.0772599,,2,3.0
Ni3Zn2Th,0.0,-0.0289104,,2,3.0
CPa,0.0,-0.0553190999999999,,2,3.0
CdInBi,0.0,-0.0473855,,2,3.0
SrTl4,0.0,-0.0626248,,2,3.0
ZnTcRe,0.0,-0.039904,,2,3.0
MgCo4Sm,0.0,-0.0197977999999999,,2,3.0
Na2CaBa2,0.0,-0.0193946,,2,3.0
O2NaTm,4.1999,-0.0202947,,2,3.0
Mn2NbPt,0.0,-0.0355275,,2,3.0
Si2BaOs2,0.0,-0.0411806,,2,3.0
BAl2SmRe2,0.0,-0.0353761,,2,3.0
Si2CaPt3,0.0,-0.041067,,2,3.0
AgTm2Pb,0.0,-0.0531984,,2,3.0
KCu2Sb2U,0.0,-0.0364276,,2,3.0
RbTe2Th,0.0,-0.0490461,,2,3.0
Ag4HgTl,0.0,-0.0442148,,2,3.0
Ni4Re5,0.0,-0.04667,,2,3.0
Mn2Fe3Zn,0.0,-0.0173592,,2,3.0
O8GaRbW2,4.5751,-0.0210855,,2,3.0
Co2In3Er3,0.0,-0.0360723,,2,3.0
O6CoZnLa2,0.0,-0.0180733,,2,3.0
CoCu2Zr,0.0,-0.0197111,,2,3.0
CuSbTe2,0.0,-0.031743,,2,3.0
RbPt2Pb2,0.0,-0.0627752,,2,3.0
CdCeAu,0.0,-0.0487618,,2,3.0
ScHgPb2,0.0,-0.0587701,,2,3.0
S3GeEr4,0.0,-0.0331321,,2,3.0
PCdCs,0.3488,-0.0266455,,2,3.0
H4O2MgBr2,4.4269,-0.0091117,,2,3.0
CoGa2Tb6,0.0,-0.0370608999999999,,2,3.0
HNEu,0.0,-0.0230064,,2,3.0
NaSe2Tm,1.7398,-0.0259764,,2,3.0
Cl2CdHg,1.2448,-0.0295382,,2,3.0
N3CoSr3,0.0,-0.0166916,,2,3.0
SrInPt2,0.0,-0.0497989,,2,3.0
Li2AlCd,0.0,-0.0110092,,2,3.0
Ga3RuSn2Tb3,0.0,-0.0336309,,2,3.0
YSn,0.0,-0.0327866,,2,3.0
SClCu2,0.0,-0.0124046,,2,3.0
O6Sr2SbEu,0.0,-0.0199933,,2,3.0
CaSrPd2,0.0,-0.0249656999999999,,2,3.0
NiRhBa2,0.0,-0.0323431,,2,3.0
NaZn2Ga2,0.0,-0.0128995999999999,,2,3.0
Ba11(Bi3O10)3,0.0,-2.2631415642,mp-1228932,2,3.0
RbInSn,0.0,-0.0303277,,2,3.0
Ce2Pb,0.0,-0.0555446999999999,,2,3.0
AlKAg2,0.0,-0.0197336,,2,3.0
AgSnEr,0.0,-0.0398867,,2,3.0
PdHgTl2,0.0,-0.0614196,,2,3.0
H6Ba2Ir,0.0,-0.0196719,,2,3.0
Ti3Rh2In3,0.0,-0.0275809,,2,3.0
F4KNd,7.0478,-0.0149436,,2,3.0
Ti3Co2Ga3,0.0,-0.0169924,,2,3.0
Zn2EuIr,0.0,-0.0383832999999999,,2,3.0
YCdIr4,0.0,-0.0575786,,2,3.0
AgInEu,0.0,-0.0399129,,2,3.0
Fe3Lu2Ir,0.0,-0.0398326,,2,3.0
C2Na2Pd,0.7735,-0.0123101,,2,3.0
CuGa3Dy,0.0,-0.0229744,,2,3.0
O6Ca2FeNi,0.0,-0.0112227,,2,3.0
Si3P2Ni,0.0,-0.0114148999999999,,2,3.0
CNNbHf,0.0,-0.0300032,,2,3.0
NiGePt,0.0,-0.0355719,,2,3.0
Ru2InPr2,0.0,-0.0382946,,2,3.0
Al3FeSn2Nd3,0.0,-0.0276788,,2,3.0
Mn2Ga5Er,0.0,-0.0215017,,2,3.0
Br3Pt,0.0,-0.0323831,,2,3.0
NTa3Au,0.0,-0.0562741,,2,3.0
ZnTc2In,0.0,-0.0292182,,2,3.0
CoPdSm2,0.0,-0.0351839,,2,3.0
Al4NdOs,0.0,-0.0250154,,2,3.0
F6HoPb,0.0,-0.0213714,,2,3.0
SeSbEr,0.0,-0.0373116,,2,3.0
K2As5Ba,0.0,-0.020291,,2,3.0
O2BrBaBi,3.0435,-0.0320356,,2,3.0
Fe4WRe,0.0,-0.0354742,,2,3.0
Al3RhSn2Lu3,0.0,-0.0336031,,2,3.0
Tl3Ac,0.0,-0.0773282,,2,3.0
LiNiSn,0.0,-0.0184815,,2,3.0
SiZnTb,0.0,-0.0241339,,2,3.0
Ca2AsI,1.3479,-0.0206401,,2,3.0
O2SnIBi,1.0093,-0.0337733,,2,3.0
YIn2Ir,0.0,-0.0421485,,2,3.0
Zn3Ir2Th,0.0,-0.046953,,2,3.0
GdTmIr2,0.0,-0.064161,,2,3.0
Ge3PdBa2,0.0,-0.028912,,2,3.0
H2Cd2Au,0.0,-0.0273566,,2,3.0
ScGa2Au,0.0,-0.0297726,,2,3.0
In2NdTm,0.0,-0.0411524,,2,3.0
PdPtAu2,0.0,-0.0602963,,2,3.0
TcW,0.0,-0.0523528,,2,3.0
Se2Br2Lu,1.2515,-0.0282558,,2,3.0
CaPtTl,0.0,-0.051514,,2,3.0
CuCd2Th,0.0,-0.0431375,,2,3.0
Rb2AuHg,0.0,-0.0450085,,2,3.0
Na2KSn2,0.0,-0.0179228,,2,3.0
NAsEu3,0.0,-0.0392817,,2,3.0
Cd2PbBi,0.0,-0.0536561,,2,3.0
K9Ta10O30,0.0,-3.051104414869047,mp-36002,2,3.0
KMnTe2,0.0,-0.0260393,,2,3.0
H6Na3Al,2.8061,-0.0043855,,2,3.0
O8P2BaPr,0.0,-0.0157342,,2,3.0
CoCeBi2,0.0,-0.0551995,,2,3.0
SnPt2Th,0.0,-0.0691513,,2,3.0
Ta,0.0,-0.0665827,,2,3.0
Cu2ErLu,0.0,-0.0343754,,2,3.0
Al3Ge2Tm2,0.0,-0.0241522,,2,3.0
MgCdPb,0.0,-0.0371199,,2,3.0
Si2Te,0.0,-0.0190671,,2,3.0
Co2ZnZr,0.0,-0.0199174,,2,3.0
LiMg2Al,0.0,-0.0050888999999999,,2,3.0
UP3O11,0.0494,-2.715741733761904,mp-1209045,2,3.0
Cu2Pr2Pb,0.0,-0.0390266,,2,3.0
AlPd2La2,0.0,-0.0327965,,2,3.0
Li4O8MnY3,0.51,-0.0129821,,2,3.0
F6CrHg,0.0,-0.0157082,,2,3.0
Ti3In3Ir2,0.0,-0.0369889999999999,,2,3.0
Rh2PdEr,0.0,-0.0383507,,2,3.0
Ga2Pa,0.0,-0.0444041,,2,3.0
CoCePb,0.0,-0.0462767,,2,3.0
GeTmPt,0.0,-0.0484162,,2,3.0
Sr2In3,0.0,-0.0295118,,2,3.0
O6Sb2Pb,1.9852,-0.0223803,,2,3.0
NSnTm3,0.0,-0.0413703999999999,,2,3.0
La6OsBi2,0.0,-0.0548374,,2,3.0
NOLa6Tl2,0.0,-0.0432453,,2,3.0
LiSrAu2,0.0,-0.0415636,,2,3.0
N2MnNi,0.0,-0.0134128,,2,3.0
Sn3Tb3Pt2,0.0,-0.0496788,,2,3.0
AlCu4Ho,0.0,-0.0199361,,2,3.0
NiZrIn5,0.0,-0.0307689,,2,3.0
SCl2Er2,0.0,-0.0274922,,2,3.0
AlTm2Os2,0.0,-0.0516367,,2,3.0
O7NaAs2Gd,3.3632,-0.0154748,,2,3.0
Ti2Ga2Ru,0.0,-0.0205288,,2,3.0
CaMnCuSe3,0.0,-0.0182696,,2,3.0
Rb2CdSb2Ba,0.1719,-0.0316968,,2,3.0
Ru3Pt,0.0,-0.0436666,,2,3.0
Si2Tm3,0.0,-0.0358395,,2,3.0
Lu2AuHg,0.0,-0.0629158,,2,3.0
Ca2CuIr,0.0,-0.0266908,,2,3.0
Be4Cu3,0.0,-0.0091209,,2,3.0
OAsRhTh,0.0,-0.0412113,,2,3.0
B2CHoIr2,0.0,-0.0366963,,2,3.0
Pd2AuPb,0.0,-0.0527875,,2,3.0
Be17Nb2,0.0,-0.0075673,,2,3.0
B2O6Ca2Zn,3.9995,-0.0105177999999999,,2,3.0
Li2ZnBr4,3.1786,-0.0150884,,2,3.0
ZnInU,0.0,-0.0500719,,2,3.0
FeZr4,0.0,-0.0282103,,2,3.0
OZnTb3,0.0,-0.0334552,,2,3.0
BeMg2Ir2,0.0,-0.0317998,,2,3.0
CSiNb2,0.0,-0.0221348,,2,3.0
MnCoRu2,0.0,-0.0261613,,2,3.0
Li3O6Ti2Co,0.0,-0.010445,,2,3.0
Cu2Dy3Pb3,0.0,-0.0506343,,2,3.0
CdSnLu,0.0,-0.0410141,,2,3.0
Al3Lu3OsPb2,0.0,-0.0465411,,2,3.0
NOSm6Tl2,0.0,-0.0440555,,2,3.0
C2Ho,0.0,-0.0233876999999999,,2,3.0
O6Nb4Ba,0.0,-0.021619,,2,3.0
B2N3Mn2Tm3,0.0,-0.0248502,,2,3.0
AsZrIr,0.4814,-0.0418226,,2,3.0
KZnSe3In,0.9698,-0.0201479,,2,3.0
Cu4InNp,0.0,-0.0334425,,2,3.0
GeSnGd,0.0,-0.0385982,,2,3.0
O6TiZrPb2,2.3137,-0.0261705,,2,3.0
NaMgAs,0.9911,-0.0105467999999999,,2,3.0
MgBaPb,0.0,-0.04079,,2,3.0
Al2Ag3La,0.0,-0.0258756,,2,3.0
Ho3Er,0.0,-0.0493211999999999,,2,3.0
B2CrHf2,0.0,-0.0323299,,2,3.0
LiGeSe2,1.3792,-0.0160878,,2,3.0
H3LiO7As2,3.4158,-0.0088183,,2,3.0
H4BaAu,0.0,-0.0207639,,2,3.0
In2NdPm,0.0,-0.0392437,,2,3.0
Al3Si2RhTh3,0.0,-0.0412494,,2,3.0
S2IrHg,0.0,-0.0398822,,2,3.0
Ga6Np,0.0,-0.0293424,,2,3.0
AlCu2Pa2,0.0,-0.0475935,,2,3.0
Be2Ti2Sn,0.0,-0.0156268,,2,3.0
SClCe,0.0,-0.0231339,,2,3.0
Al2Ni3Pu,0.0,-0.0293982,,2,3.0
Al5SmAu2,0.0,-0.0283805,,2,3.0
MnGa2Pd,0.0,-0.0213476,,2,3.0
MgAl2Zr,0.0,-0.0131815,,2,3.0
GaIn2Tl2,0.0,-0.0454699,,2,3.0
ZrMoTa2,0.0,-0.0497205,,2,3.0
Al3Ru2Ir,0.0,-0.0283513,,2,3.0
S3ClAgBi2,0.5919,-0.0326015999999999,,2,3.0
Cu4SmHg,0.0,-0.0291548,,2,3.0
B12CeTh,0.0,-0.0169388,,2,3.0
CISm,0.0,-0.0314217,,2,3.0
Al2PmTh,0.0,-0.0390908,,2,3.0
AlAu5,0.0,-0.0591396,,2,3.0
Rh5U,0.0,-0.0458305,,2,3.0
Li2NaCa,0.0,-0.0045781,,2,3.0
Co2YTb,0.0,-0.0274648,,2,3.0
LiSc7,0.0,-0.0126,,2,3.0
C2MoHo,0.0,-0.0263732,,2,3.0
TiGePd2,0.0,-0.0258274,,2,3.0
B3Ti2,0.0,-0.0118911,,2,3.0
N2PCu,1.7795,-0.0113824,,2,3.0
B4O12Sc3Tb,4.2263,-0.0130195,,2,3.0
S4SrAg2Tl,0.0,-0.025182,,2,3.0
O6Si2Mo,0.0,-0.0128451,,2,3.0
NiGe3Th,0.0,-0.0344791,,2,3.0
S2Ni3Pb2,0.0,-0.0316697,,2,3.0
Sc2GaAg,0.0,-0.0196107,,2,3.0
CaCd2Au,0.0,-0.0355045,,2,3.0
H6NO4As,4.2631,-0.007202,,2,3.0
O3F9Cr4,0.1095,-0.0104561,,2,3.0
CuInNd,0.0,-0.0312174,,2,3.0
S2CsCe,0.0,-0.0274679,,2,3.0
CaAs2Ir2,0.0,-0.0391865,,2,3.0
O3CuIn,0.0,-0.014609,,2,3.0
LiO6Ho2W,0.0175,-0.0237641,,2,3.0
As4Rh6Pr,0.0,-0.0305265999999999,,2,3.0
O12K2TiTe3,1.6573,-0.01388,,2,3.0
K5Au,0.0,-0.0185885,,2,3.0
Ga2Y6Rh,0.0,-0.0265356,,2,3.0
O5NaKPrTa,3.4326,-0.0200396,,2,3.0
Ti2Ag,0.0,-0.0212159,,2,3.0
Fe6As4Ho,0.0,-0.0220028,,2,3.0
F6Rb2La,0.0,-0.0150170999999999,,2,3.0
O4PLu,6.0934,-0.0185066999999999,,2,3.0
ZnZr3Au2,0.0,-0.0412335,,2,3.0
ZnInPt2,0.0,-0.0473428,,2,3.0
CoGe2Sr,0.0,-0.01985,,2,3.0
Rh2In4Au,0.0,-0.0389042,,2,3.0
O6Ba2HoEr,0.0,-0.024605,,2,3.0
Cl2AsPu2,0.0,-0.0527426,,2,3.0
BRh6Ce2,0.0,-0.0340786,,2,3.0
Pd2Ho3Pt,0.0,-0.0482801,,2,3.0
InI,0.8583,-0.0355081,,2,3.0
F6PbU,0.0,-0.0281997,,2,3.0
Na2SnHg2,0.0,-0.0363922999999999,,2,3.0
Br4SrPb,3.0032,-0.0309442999999999,,2,3.0
O6KBrPt,1.0287,-0.0154778,,2,3.0
P2K2Ir,0.0,-0.0222715,,2,3.0
Ca2Ga2Ag,0.0,-0.017091,,2,3.0
Zr4Tl,0.0,-0.0391766999999999,,2,3.0
Si2CdNd2,0.0,-0.0282181,,2,3.0
Si2Co3Ce,0.0,-0.0199741,,2,3.0
S2AsMo2,0.0,-0.0224744,,2,3.0
C2Rb2Pt,1.2112,-0.0265362,,2,3.0
Ge2Sr3In3Pt,0.0,-0.0313037,,2,3.0
Ru2HoU,0.0,-0.0559715,,2,3.0
B2CCu2Nd,0.0,-0.0167994,,2,3.0
LaPt2Hg,0.0,-0.0637385,,2,3.0
GeYPd2,0.0,-0.0291226,,2,3.0
V2RuIr,0.0,-0.0357798999999999,,2,3.0
TiRh2Cd,0.0,-0.0291242,,2,3.0
O3NdHo,3.3073,-0.0259937,,2,3.0
CdTm2Pt2,0.0,-0.0561372,,2,3.0
ScBr4Cs2,0.0,-0.0258248,,2,3.0
RuPt5,0.0,-0.0642667,,2,3.0
PCs2Pt,0.0,-0.0396288,,2,3.0
Mg2YAg,0.0,-0.017591,,2,3.0
Ca5Ru,0.0,-0.0137398,,2,3.0
SiMn3Ga2Tm3,0.0,-0.0286311,,2,3.0
SiYPd,0.0,-0.0246338,,2,3.0
H2Al2Pu,0.0,-0.0267014,,2,3.0
CuGe2Ce,0.0,-0.0251226,,2,3.0
Al3GeDy2,0.0,-0.0235806,,2,3.0
SeBr2Ag2Hg,1.1145,-0.0319817,,2,3.0
NiCu2Ge,0.0,-0.016514,,2,3.0
NiPd2Lu3,0.0,-0.0421742,,2,3.0
Zn2LaHg2,0.0,-0.0417336,,2,3.0
InAu2Pa,0.0,-0.0683402999999999,,2,3.0
O6ScMnSr2,0.0,-0.014388,,2,3.0
Mg4Cd5,0.0,-0.0192138,,2,3.0
Mg5Y4,0.0,-0.0152014,,2,3.0
Fe4As12Nd,0.0,-0.0214665,,2,3.0
Li2O2,2.0833,-0.0058909,,2,3.0
SbLaTb,0.0,-0.0433429,,2,3.0
Rh2CdLu,0.0,-0.0390411,,2,3.0
CNU2,0.0,-0.0572665999999999,,2,3.0
O6Sr2PdPa,0.0,-0.0241535,,2,3.0
H2Be,4.723,-0.0038628,,2,3.0
S2TbTl,1.3427,-0.0362723999999999,,2,3.0
MnNiZn2,0.0,-0.0156116,,2,3.0
RhPb2Th6,0.0,-0.0850124,,2,3.0
O4SK2,5.4406,-0.0094424,,2,3.0
CaGa3Pd,0.0,-0.0189559,,2,3.0
N2CuBa2,0.0,-0.0230334,,2,3.0
SrIn2Pt3,0.0,-0.0506873999999999,,2,3.0
B2FeTa,0.0,-0.0254544,,2,3.0
HO5PCo,0.0,-0.0094278,,2,3.0
C2O6K2Ni,0.3593,-0.0099203,,2,3.0
ScPt5,0.0,-0.0616528,,2,3.0
Zn2In2Nd,0.0,-0.0279698,,2,3.0
Al2Sm3Hg,0.0,-0.0366566,,2,3.0
Be2Ti2Rh,0.0,-0.015423,,2,3.0
Ru4Rh,0.0,-0.0345249,,2,3.0
Ga3Hf,0.0,-0.0283931,,2,3.0
Br6Cs2Os,0.0,-0.030421,,2,3.0
Ru2TmLu,0.0,-0.0447752,,2,3.0
B2SmIr2,0.0,-0.0411927,,2,3.0
O2Ge,1.5636,-0.0123209,,2,3.0
LiCaCu4,0.0,-0.0122542,,2,3.0
F6TbHg,0.0,-0.0196458,,2,3.0
CaSrSb,0.0,-0.0239451,,2,3.0
CdTm2,0.0,-0.0450028,,2,3.0
S3AsPr4,0.0,-0.0299554,,2,3.0
F6MgHg,0.5545,-0.0137250999999999,,2,3.0
CrGa5Y,0.0,-0.0186884,,2,3.0
Mg2GeSe4,1.9976,-0.0165441,,2,3.0
SiFeSm,0.0,-0.0247184999999999,,2,3.0
Al6GdEr,0.0,-0.0199019,,2,3.0
Sc6CoAs2,0.0,-0.016676,,2,3.0
O5Ba2Dy2,2.117,-0.0262003,,2,3.0
BPd6Ho2,0.0,-0.0344941,,2,3.0
Si2Fe2Pa,0.0,-0.0317366,,2,3.0
Ga2YPt3,0.0,-0.0462505999999999,,2,3.0
Cu2As2Gd,0.0,-0.0265816,,2,3.0
PCl2Tb2,0.0,-0.0261571,,2,3.0
O12ZrCs2W3,2.8516,-0.0242726,,2,3.0
ScAgSn,0.0,-0.0277507,,2,3.0
S2KHf,0.0,-0.0242263,,2,3.0
AlFeCu2,0.0,-0.0142575,,2,3.0
BO8NaS2,6.1663,-0.0085845,,2,3.0
CuNb2Sb3,0.0,-0.032444,,2,3.0
Ti6RuSn2,0.0,-0.0229585,,2,3.0
MgCaCu,0.0,-0.0100838,,2,3.0
Si2Zr2Pt,0.0,-0.031485,,2,3.0
La3IrTl,0.0,-0.0552853,,2,3.0
SrAgBi,0.0007,-0.0447851,,2,3.0
GeLa3,0.0,-0.0375333,,2,3.0
OSe2Sb2,0.6101,-0.0247865,,2,3.0
Cu2As2Dy,0.0,-0.0244022,,2,3.0