formula,bg,formation_energy,mp-id,fidelity,bg_category
N2ErTa,0.0,-0.0354911,,2,3.0
FeAs2Zr,0.0,-0.0229680999999999,,2,3.0
Ni2ZnZr3,0.0,-0.0233445,,2,3.0
B3N6NaSr4,1.9181,-0.0135383999999999,,2,3.0
O4MoLa,0.0388,-0.0200591,,2,3.0
YCd2,0.0,-0.0300194,,2,3.0
S3CaAgEr,1.596,-0.0217874,,2,3.0
BFe4Ho,0.0,-0.0217249,,2,3.0
Pd2CdBa,0.0,-0.0344232,,2,3.0
LiCl2Br,1.4406,-0.0104624,,2,3.0
PCuRb2,1.0484,-0.0171475,,2,3.0
Zn2CeEr,0.0,-0.0308039999999999,,2,3.0
Al8NiZr2,0.0,-0.0132,,2,3.0
AlBaAu,0.0,-0.0395963,,2,3.0
PdSmHg,0.0,-0.04929,,2,3.0
SiGeAc2,0.0,-0.0529524,,2,3.0
HIBa,2.4276,-0.0279635,,2,3.0
Ge2La2Pb,0.0,-0.0409278,,2,3.0
NaInSn,0.0,-0.0248054,,2,3.0
B4Ru5Er2,0.0,-0.0282521999999999,,2,3.0
SiI2Er2,0.0,-0.0380516999999999,,2,3.0
Al3Ca2Rh,0.0,-0.013355,,2,3.0
O2MnZn2As2Ba2,0.0,-0.0212089,,2,3.0
Ti2CrGe2,0.0,-0.0182529,,2,3.0
LuAu5,0.0,-0.0673964,,2,3.0
O4CuSb,0.0,-0.0140046,,2,3.0
Sc2CdAu,0.0,-0.0327731,,2,3.0
ZnAg5,0.0,-0.0283985,,2,3.0
MgGa5,0.0,-0.0144573,,2,3.0
B2O6CoPb,0.0,-0.0164073,,2,3.0
Cu3Sb,0.0,-0.0206341,,2,3.0
SiMoEr,0.0,-0.0323162,,2,3.0
CuZrCd2,0.0,-0.0267979,,2,3.0
Li3O6Ni2Sn,0.0,-0.0111507,,2,3.0
H12Cl2Ca7,3.6255,-0.0069277,,2,3.0
P2CuZnSm,0.0,-0.0196595,,2,3.0
CaAg2Lu,0.0,-0.032249,,2,3.0
Ga3Pd2Th,0.0,-0.0358875,,2,3.0
GeRuCd,0.0,-0.0282786,,2,3.0
Li2N2Zr,1.7068,-0.0121710999999999,,2,3.0
O2CaBrSb,2.9461,-0.0179183999999999,,2,3.0
F6AgCs2Au,0.0,-0.0216565,,2,3.0
As2RhNp2,0.0,-0.0581430999999999,,2,3.0
Cu4HoAu,0.0,-0.0302287,,2,3.0
KAsTl2,0.0,-0.0435399,,2,3.0
AgAuPb2,0.0,-0.0630263,,2,3.0
MgPmAu2,0.0,-0.0477422,,2,3.0
Mg2SeOs,0.0,-0.0256069,,2,3.0
MgHfTl,0.0,-0.0467575,,2,3.0
Ge2PdIn3Sm3,0.0,-0.0346584999999999,,2,3.0
NiGa5Pr,0.0,-0.0206726,,2,3.0
Si2Co2Zr,0.0,-0.0178475,,2,3.0
DyBiPu,0.0,-0.0793491,,2,3.0
Y2InHg2,0.0,-0.0457974,,2,3.0
O7Cr3YBa2,0.0,-0.0185743,,2,3.0
O6K2YTe,0.0,-0.014019,,2,3.0
GaRh2Sm2,0.0,-0.0354921,,2,3.0
B2Ru2Ce,0.0,-0.0264205,,2,3.0
Si2ScNi,0.0,-0.01339,,2,3.0
SiRh2Np,0.0,-0.0467526,,2,3.0
AlNiNd,0.0,-0.0230539999999999,,2,3.0
Li2SrSn2,0.0,-0.0203113,,2,3.0
Ga3Rh2U,0.0,-0.0371942,,2,3.0
O6ScBa2Dy,0.0,-0.0208690999999999,,2,3.0
AlCuEr2,0.0,-0.031276,,2,3.0
ZnRhPa,0.0,-0.0495896,,2,3.0
Te2SmAu,0.1343,-0.0480308,,2,3.0
NaNi2As2Y,0.0,-0.0182043,,2,3.0
Ag5Pb,0.0,-0.0387006,,2,3.0
NaGe2Au,0.0,-0.0281412,,2,3.0
Rh7Ir,0.0,-0.0384474999999999,,2,3.0
ZnInHg2,0.0,-0.0457529,,2,3.0
ScNdBi,0.0,-0.0462498,,2,3.0
Ca2SnIr2,0.0,-0.0402029,,2,3.0
Cu3Ga2La,0.0,-0.0205857999999999,,2,3.0
LiN3Ge2,2.9336,-0.011867,,2,3.0
SiErAu,0.0,-0.0441641,,2,3.0
F6VZn,0.0,-0.0093592,,2,3.0
O6ScFeSr2,0.0,-0.0142557,,2,3.0
O6Ni2Rb2Te,0.9712,-0.0149642,,2,3.0
Zn8Pt,0.0,-0.0199758999999999,,2,3.0
Li2ScPb,0.0,-0.0241091,,2,3.0
Se8La5Tl,1.1239,-0.0341442,,2,3.0
Co2LuTl,0.0,-0.0407781,,2,3.0
F7K3Eu,0.0,-0.0123949,,2,3.0
O2Br2CdSn2,1.7947,-0.0230855,,2,3.0
CuZr2Tc,0.0,-0.0282985,,2,3.0
SiS4MnCu2,0.4176,-0.0128653,,2,3.0
ZnTm2Pt2,0.0,-0.0527988,,2,3.0
O4NbTh,0.0,-0.0290041,,2,3.0
H2Ti2Sn,0.0,-0.0154667,,2,3.0
F6PSnI2Cs,0.7922,-0.0184632,,2,3.0
B2Co2Ba,0.0,-0.0180004,,2,3.0
H8Mg2FeSr,1.5152,-0.0069703,,2,3.0
GaGePd5,0.0,-0.0289941,,2,3.0
As4SrRu6,0.0,-0.02879,,2,3.0
K2CuI4,0.0,-0.0264751,,2,3.0
TcRe,0.0,-0.0530907,,2,3.0
Cl3K,2.522,-0.0091299,,2,3.0
RhPb,0.0,-0.0548696,,2,3.0
O6NiGeNd2,0.8118,-0.0187301,,2,3.0
Al4Mn3,0.0,-0.0124704999999999,,2,3.0
O6Sr2SbPr,3.7121,-0.0190925,,2,3.0
KHg2Bi,0.0,-0.0560758,,2,3.0
O7Rb2LaTa2,0.0,-0.0247578,,2,3.0
SiPd2Nd2,0.0,-0.0334388999999999,,2,3.0
KTe2Pa,0.0,-0.0465888,,2,3.0
SiScTi,0.0,-0.0141426,,2,3.0
Ga2Te4Ba,0.2368,-0.0324541,,2,3.0
STa2,0.0,-0.0482207999999999,,2,3.0
C6N6FeCdCs2,4.2807,-0.0152332,,2,3.0
Li2KSb2,0.0,-0.0180574,,2,3.0
Cu3Ga2Dy,0.0,-0.0214101,,2,3.0
O6Sr2MoEu,0.0,-0.0198676,,2,3.0
N3CaMo,0.9502,-0.0152594999999999,,2,3.0
OZnAsSr,0.0,-0.0171404,,2,3.0
F4CuSr,0.9315,-0.0116359,,2,3.0
Sn2NdTl,0.0,-0.0474677,,2,3.0
AsYPd5,0.0,-0.031055,,2,3.0
Na2I2Hg,3.4281,-0.0310085,,2,3.0
CSiDyRe2,0.0,-0.042537,,2,3.0
N3TmW,1.0442,-0.0311065,,2,3.0
CoRu2Ho2,0.0,-0.0373352,,2,3.0
LuHg2Tl,0.0,-0.0662946,,2,3.0
O7Fe2SrSb2,0.6551,-0.0165278999999999,,2,3.0
Cu4InAu,0.0,-0.0272484,,2,3.0
CI5Th4,0.0,-0.0586421,,2,3.0
AlNi5Sb,0.0,-0.0182898999999999,,2,3.0
Al3Sc3FeSn2,0.0,-0.0178923,,2,3.0
Al3RhIn2Er3,0.0,-0.0313115,,2,3.0
LiFeNiZn,0.0,-0.0126456,,2,3.0
CrSe3Cs2,0.0,-0.026781,,2,3.0
SeLa2Pt,0.0,-0.0459005,,2,3.0
B3O6Ce,0.0,-0.013396,,2,3.0
SCoBr,0.4485,-0.015958,,2,3.0
B4Rh5Lu2,0.0,-0.0289528,,2,3.0
O2SPu2,0.0,-0.0512052,,2,3.0
MnGa2Dy,0.0,-0.0252975,,2,3.0
TeTm2,0.0,-0.0477768,,2,3.0
NaCa3Ir,0.0,-0.0211011999999999,,2,3.0
MnI3,0.0,-0.0326392999999999,,2,3.0
O13Nb3Sb3,2.5863,-0.0175133,,2,3.0
In2Lu3,0.0,-0.047025,,2,3.0
AlCl6K2Tl,3.4922,-0.016199,,2,3.0
H2Ti2Rh,0.0,-0.0152178,,2,3.0
Co2ZnEr2,0.0,-0.0300339,,2,3.0
F3CoAg,0.0,-0.0136229,,2,3.0
LiSrI3,3.2009,-0.0285586,,2,3.0
InSbTl2,0.0,-0.0538254,,2,3.0
Li3O8Fe2Cu2,0.0,-0.0097268,,2,3.0
BrTe2,0.0,-0.0314085,,2,3.0
CaNiSn2,0.0,-0.0249228999999999,,2,3.0
Si2Ir3,0.0,-0.0474269,,2,3.0
ScCrRu2,0.0,-0.0258672,,2,3.0
AlCaBa2,0.0,-0.0241573,,2,3.0
S3AsCe4,0.0,-0.0304796,,2,3.0
LiO6Y2Mo,0.0,-0.0160348,,2,3.0
S3K2Rh,0.0,-0.0140751,,2,3.0
MgTm2Pt2,0.0,-0.0510962,,2,3.0
AlZr2Au,0.0,-0.0352209,,2,3.0
ScCuPt,0.0,-0.0340606,,2,3.0
Mn2RuOs,0.0,-0.0360233,,2,3.0
CNOTl,2.2984,-0.0250028,,2,3.0
Co2CuIr,0.0,-0.0301431,,2,3.0
ClRuDy,0.0,-0.0314856,,2,3.0
O6ZnPr2Au,0.0,-0.0228426,,2,3.0
OKTl,1.1129,-0.0300778,,2,3.0
ZnSbHf2,0.0,-0.0444641,,2,3.0
Ga2YRu2,0.0,-0.0265241,,2,3.0
NFAl2Ca6,0.0,-0.009654,,2,3.0
SCl2Ce2,0.0,-0.0251909,,2,3.0
LiCo2Ge,0.0,-0.0141841,,2,3.0
AlFe2Ce,0.0,-0.0223364,,2,3.0
AgHfPt2,0.0,-0.0595068,,2,3.0
BO3NaBa,3.7031,-0.0143969,,2,3.0
K2ScSe3,0.0,-0.0166972,,2,3.0
AlNiCu2,0.0,-0.0139268999999999,,2,3.0
Eu2TlPb,0.0,-0.0645826,,2,3.0
NiZr2Os,0.0,-0.0379354,,2,3.0
Ti3Ni4Ga2,0.0,-0.0167123,,2,3.0
NiGeTm,0.0,-0.0298709,,2,3.0
Al3Cr4,0.0,-0.0140539,,2,3.0
Y3In2,0.0,-0.0306634,,2,3.0
H6Ca2Rh,0.0,-0.0088639,,2,3.0
O6Mg3Te,3.0651,-0.0113274,,2,3.0
FeRu2Rh,0.0,-0.0303307,,2,3.0
Ti2GaNb,0.0,-0.0207342,,2,3.0
Li2O5VGe,0.2799,-0.0103775999999999,,2,3.0
O3TeHg2,1.6312,-0.032706,,2,3.0
AsInPt5,0.0,-0.0581998,,2,3.0
GaSe4In2Tl,0.0534,-0.0300245,,2,3.0
Ga2Cd2Ce,0.0,-0.0281018,,2,3.0
As2PdCe,0.0,-0.0304632,,2,3.0
LiS4Ta2,0.0,-0.0261665,,2,3.0
Sb2NdIr,0.0,-0.0480953,,2,3.0
Pd8Er,0.0,-0.0351681,,2,3.0
P2Se6SnCs2,0.0,-0.0236208,,2,3.0
Al4Ni2Cu,0.0,-0.011718,,2,3.0
CoMo2Pt,0.0,-0.0394822,,2,3.0
Al2Ni4Dy3,0.0,-0.0254508,,2,3.0
CuTe2Tl,0.0,-0.0406436,,2,3.0
Li2O8CuW2,0.2842,-0.0182096,,2,3.0
MgPdIn,0.0,-0.0242773,,2,3.0
MgPb3,0.0,-0.0581349,,2,3.0
SiNi5,0.0,-0.0154313,,2,3.0
CaZnSn,0.0,-0.0203038,,2,3.0
Mg2PmHo,0.0,-0.0258229,,2,3.0
LiFeSnIr,0.0,-0.0322388,,2,3.0
CaIn2Te4,0.5775,-0.0329065,,2,3.0
As2Te5Pb2,0.0,-0.042126,,2,3.0
F6CaPb,3.7293,-0.016119,,2,3.0
TeSm,0.0,-0.0423644,,2,3.0
CAlLu3,0.0,-0.0373468999999999,,2,3.0
PdSnSm,0.0,-0.0387561,,2,3.0
B2Al2Fe,0.0,-0.0098882,,2,3.0
O3AsTl,2.2818,-0.0235017,,2,3.0
Al2CuSm,0.0,-0.0192829,,2,3.0
K2SnI6,0.0,-0.0312044,,2,3.0
Al5PtNp,0.0,-0.0313627,,2,3.0
Sc3Ge2In3Ir,0.0,-0.0287179,,2,3.0
Li4As4Nd3,0.0,-0.0212687999999999,,2,3.0
O4Ba2Ho,0.0,-0.0248151,,2,3.0
SiNi6Ge,0.0,-0.0161433,,2,3.0
SeILa,2.4671,-0.0353181,,2,3.0
AlRh8,0.0,-0.0310926,,2,3.0
NaTmPb,0.0,-0.0443354,,2,3.0
ONaCs,1.8541,-0.0173282999999999,,2,3.0
YPdHg2,0.0,-0.0498836999999999,,2,3.0
Al2RhHo,0.0,-0.0255339999999999,,2,3.0
LiOF2Fe,0.0,-0.0090127,,2,3.0
Cl3GaEr3,0.0,-0.0289775,,2,3.0
BLaPt2,0.0,-0.0488199,,2,3.0
AlZnPd2,0.0,-0.0225149,,2,3.0
Zn5Ga3,0.0,-0.0145028,,2,3.0
Zn2Pd3Er,0.0,-0.0299548,,2,3.0
Sm2Au2Pb,0.0,-0.0615981,,2,3.0
SiS3Tm4,0.0,-0.0326881,,2,3.0
NdIrBi2,0.0,-0.0684639,,2,3.0
Be13Sc,0.0,-0.0052133,,2,3.0
BPt,0.0,-0.0391255999999999,,2,3.0
LiO2KMn,0.1381,-0.0101258,,2,3.0
Si2NiIr,0.0,-0.0273877999999999,,2,3.0
Sc3Nd,0.0,-0.0215197,,2,3.0
GaGd2Hg,0.0,-0.0511844,,2,3.0
Zn2CdDy3,0.0,-0.0338945,,2,3.0
Ca6RuSn2,0.0,-0.0186624,,2,3.0
LiBr2Tl,3.009,-0.0296812,,2,3.0
AsIPr2,0.0,-0.0373712,,2,3.0
CoBiTh,0.605,-0.0644035999999999,,2,3.0
BCPtPa,0.0,-0.0475562,,2,3.0
K2As3,0.3131,-0.015964,,2,3.0
N2CeSm,0.0,-0.0286568,,2,3.0
O7Rb2Zr2Ba,0.0,-0.0182411,,2,3.0
O6NiRuPr2,0.0,-0.0200023,,2,3.0
SiCaAu,0.0,-0.0304393,,2,3.0
PCoDy,0.0,-0.0262419,,2,3.0
AlMnRhIr,0.0,-0.0336522999999999,,2,3.0
F6CdLu,0.0,-0.0163161,,2,3.0
Co2Tb3Pb3,0.0,-0.0506348,,2,3.0
B2MgCo3,0.0,-0.0121795,,2,3.0
NaSe2Ce,0.0,-0.0241217,,2,3.0
CNNbTa,0.0,-0.0306065,,2,3.0
O7Eu2Bi2,0.0,-0.0298011,,2,3.0
Cu3Ac,0.0,-0.0340887,,2,3.0
IrPt,0.0,-0.0706146,,2,3.0
LiO4TiRh,0.9105,-0.0133183,,2,3.0
CuRb5Sb2,0.687,-0.0245928,,2,3.0
Al3PtU2,0.0,-0.0506498,,2,3.0
Sc3MnAg2,0.0,-0.0208384,,2,3.0
ScSe2Ag,0.3774,-0.0226754,,2,3.0
O6CdEu2W,0.395,-0.0269533,,2,3.0
SNbI,0.0,-0.0274363,,2,3.0
GaI,0.9632,-0.0267728,,2,3.0
F6MnSm,0.0,-0.0139779999999999,,2,3.0
Al3Si2MnPu3,0.0,-0.0438623,,2,3.0
CY3Sn,0.0,-0.0267036,,2,3.0
O6MgSnGd2,3.3057,-0.0225626,,2,3.0
HAlTi3,0.0,-0.0122626,,2,3.0
B4TiNb,0.0,-0.0140671,,2,3.0
H5CNO2Cl2Co,0.0,-0.0077005999999999,,2,3.0
CN2INd,1.9103,-0.0228323,,2,3.0
N3Zn3Sb,1.356,-0.0150813,,2,3.0
B2Mg2AlIr5,0.0,-0.0395675,,2,3.0
Ti6Sb2Pt,0.0,-0.0274542,,2,3.0
Al3Cu2Y,0.0,-0.0141087,,2,3.0
C3Ho2,0.0,-0.0260444999999999,,2,3.0
PNbOs,0.0,-0.0391781,,2,3.0
MgYCd,0.0,-0.0214768,,2,3.0
Sc2MoTc,0.0,-0.0247409,,2,3.0
LiInI2,2.0569,-0.0281372,,2,3.0
SiS3Pr4,0.0,-0.0284861,,2,3.0
Al2RhEu,0.0,-0.0265392,,2,3.0
Ge2YRh2,0.0,-0.0277753,,2,3.0
GaSb2Ho6,0.0,-0.0435029,,2,3.0
LiSc2Zn,0.0,-0.0112614,,2,3.0
Ge2CdSm2,0.0,-0.0323278,,2,3.0
NiAu2,0.0,-0.0514406,,2,3.0
B4Zr2Ir5,0.0,-0.0413392,,2,3.0
O4CaSr3,3.1908,-0.0157006,,2,3.0
Zn2Lu2Tl,0.0,-0.0424642,,2,3.0
SrRh2In,0.0,-0.0311844,,2,3.0
MgSnGd2,0.0,-0.0401019,,2,3.0
MgSi2Nd2,0.0,-0.023153,,2,3.0
GaSeAgTe,0.2426,-0.0266286999999999,,2,3.0
Rh2EuTm,0.0,-0.0439628,,2,3.0
F6SbI2,0.6157,-0.016483,,2,3.0
Rh2Nd2Pb,0.0,-0.0468753,,2,3.0
CaSr7,0.0,-0.0206881999999999,,2,3.0
NaBr6Cs2Ce,0.0,-0.0261282,,2,3.0
N4Mg4Mn,0.0,-0.0092023,,2,3.0
ORb2Pd,0.0,-0.0207918,,2,3.0
HKI,4.3629,-0.0172577,,2,3.0
P2Pd2Er,0.0,-0.0283265,,2,3.0
InTmIr2,0.0,-0.0575246,,2,3.0
Br2Ho,0.0,-0.0311291,,2,3.0
LiP2TbAu2,0.0,-0.0355935,,2,3.0
Si2MnNi,0.0,-0.0141058,,2,3.0
F7KHo2,6.5555,-0.0172532,,2,3.0
S4Ba2Ce,1.1033,-0.025365,,2,3.0
SrY2Ag,0.0,-0.0274417,,2,3.0
Ru2La2Hg,0.0,-0.0450476,,2,3.0
Pd2ErHg,0.0,-0.0467782,,2,3.0
Ga3Cd,0.0,-0.0197327,,2,3.0
ScNi2Au,0.0,-0.0294952,,2,3.0
F8Na2BaLa,0.0,-0.0133418,,2,3.0
KSe3CdDy,1.898,-0.0259755,,2,3.0
O2BrI2,0.0,-0.0208996,,2,3.0
O6CoRuBa2,0.0,-0.0188634,,2,3.0
SnAuNp,0.0,-0.0709877999999999,,2,3.0
Ru2HfTa,0.0,-0.0503864,,2,3.0
Ga3HoIr2,0.0,-0.0408061,,2,3.0
Rh6Sb4Th,0.0,-0.041334,,2,3.0
HO4NaSe,3.5303,-0.0086911,,2,3.0
Cl6K2NiCu,0.0,-0.0109547,,2,3.0
B2MoTa,0.0,-0.0297408,,2,3.0
Mg2S8CrDy3,0.8135,-0.0196582,,2,3.0
Fe3GePa2,0.0,-0.0456349999999999,,2,3.0
Ga2Pt,0.0,-0.0350248,,2,3.0
NSn,0.0,-0.022443,,2,3.0
Li2SnIr,0.0,-0.0284402,,2,3.0
O4Te3Tb4,0.5386,-0.0322958,,2,3.0
Cl3ZnTl,3.8426,-0.023177,,2,3.0
RuLa2,0.0,-0.0406616,,2,3.0
AlBrLa,0.0,-0.0247578,,2,3.0
MnGa6Tb2,0.0,-0.0239787999999999,,2,3.0
Fe2Ho2Pb,0.0,-0.0421989,,2,3.0
HO2Au,0.8194,-0.0217778,,2,3.0
P3NiGe2,0.0,-0.0144321,,2,3.0
Al5EuPt2,0.0,-0.0301431,,2,3.0
GaDyPt,0.0,-0.0461086999999999,,2,3.0
Ti2TcAu,0.0,-0.0346386,,2,3.0
AlZn2Pu,0.0,-0.0363483999999999,,2,3.0
ScPtHg,0.0,-0.0518153,,2,3.0
NiCuI4,0.0,-0.0298032,,2,3.0
HCu,0.6413,-0.0092087,,2,3.0
O4YPu,0.1144,-0.0306517,,2,3.0
NaPt2Hg2,0.0,-0.0563426,,2,3.0
Cd2BaAu2,0.0,-0.048358,,2,3.0
CaIn5Au,0.0,-0.0354664,,2,3.0
LiPTh,0.0,-0.0372193,,2,3.0
RuRhPm2,0.0,-0.0396332999999999,,2,3.0
Se2InDy,0.4734,-0.0317639,,2,3.0
MgCu2Dy,0.0,-0.0210547,,2,3.0
Zn2Pd2Ba,0.0,-0.0269307,,2,3.0
Ca2Pd2Ag,0.0,-0.0238846,,2,3.0
NiIn2Tm,0.0,-0.0342166,,2,3.0
N2FeLa2,0.0,-0.0258468,,2,3.0
MoTaRe2,0.0,-0.0611487,,2,3.0
LiNi2Ge,0.0,-0.0138419,,2,3.0
MgSc2Co,0.0,-0.0129658999999999,,2,3.0
ReIr5,0.0,-0.0712247,,2,3.0
Ga2RhDy,0.0,-0.029476,,2,3.0
NaRb2Hg2,0.0,-0.0366552,,2,3.0
N3TcPu,0.0,-0.035092,,2,3.0
TbErBi,0.0,-0.0592222,,2,3.0
CaBaLa2,0.0,-0.0337851,,2,3.0
H4SrCs2,2.5885,-0.0163771,,2,3.0
NbHf6Bi2,0.0,-0.0630404,,2,3.0
LiSe8Mo6,0.0,-0.0254624,,2,3.0
Sc3CoRu2,0.0,-0.0221397,,2,3.0
LuBi,0.0,-0.0678082,,2,3.0
Nb2Rh2Au,0.0,-0.0409807,,2,3.0
Li2PdPb,0.0,-0.0288478,,2,3.0
Al8W3,0.0,-0.0248311,,2,3.0
HTeCe,0.0,-0.0296741999999999,,2,3.0
AlHgAc2,0.0,-0.0646362,,2,3.0
YPdCd,0.0,-0.0311503,,2,3.0
SiNi2Tm,0.0,-0.0243048,,2,3.0
N2Si3Ca7,0.0,-0.0104052,,2,3.0
O2K2Br4Ru,1.3331,-0.0169104,,2,3.0
C4MnLu3,0.0,-0.0285606,,2,3.0
SrPd2Bi2,0.0,-0.0496593,,2,3.0
Cl6KAsCs2,3.3987,-0.0168762,,2,3.0
NSiLa3,0.0,-0.0306739,,2,3.0
Li2O4SiCo,0.5868,-0.0095131,,2,3.0
Si2Ga3PtU3,0.0,-0.0502736,,2,3.0
Zr2OsPb,0.0,-0.0527475,,2,3.0
HLiCa2Cd,0.0,-0.0114913,,2,3.0
N2Sn3Sm7,0.0,-0.0375484,,2,3.0
KPdI3,0.0,-0.0310143999999999,,2,3.0
Co2IHo2,0.0,-0.0344315,,2,3.0
SiMnPr,0.0,-0.024429,,2,3.0
N2TiEr,0.0,-0.023192,,2,3.0
Be3Au5,0.0,-0.0450556,,2,3.0
MgRu2Ce2,0.0,-0.0330649,,2,3.0
Sc2FeTl,0.0,-0.03001,,2,3.0
Pd3Ba,0.0,-0.0349442,,2,3.0
Ni2CdHo3,0.0,-0.0353806,,2,3.0
MgErHg,0.0,-0.0417694,,2,3.0
F6Rb2YAg,2.6424,-0.0153324999999999,,2,3.0
F3Tl,1.2527,-0.0226246,,2,3.0
ClRb2Au,3.2768,-0.0308832,,2,3.0
BrTeHo,1.1117,-0.0369867,,2,3.0
RuNd3Pt2,0.0,-0.051888,,2,3.0
K2CdTe4Pb,0.0,-0.0346422,,2,3.0
Li2CuIn,0.0,-0.0136202,,2,3.0
Rh6BaBi4,0.0,-0.0507824,,2,3.0
CoIr3,0.0,-0.0576697,,2,3.0
NiGa2Zr2,0.0,-0.0227109,,2,3.0
H4Mg2Ni,1.5032,-0.0060228,,2,3.0
O3Cs2Pb,1.5111,-0.0296725,,2,3.0
CuAsPb,0.0,-0.0370428,,2,3.0
CoSe3CsDy,0.0,-0.0286042,,2,3.0
Pd7In3,0.0,-0.0334625,,2,3.0
CZr3Ag,0.0,-0.0271559,,2,3.0
CaCoSn3,0.0,-0.0272314,,2,3.0
O6InBa2Bi,0.0,-0.0249034,,2,3.0
O8AlMo2Tl,3.98,-0.0189088,,2,3.0
Cd2Sn2Hg,0.0,-0.0400565,,2,3.0
O8P2RbBi,1.0428,-0.0161282,,2,3.0
MgSe2Hg,0.7155,-0.0291281,,2,3.0
Li2Ge2Cd2Nd,0.0,-0.0215092,,2,3.0
CrTe2Tm6,0.0,-0.0454814999999999,,2,3.0
Zn2PdPt,0.0,-0.0330924,,2,3.0
SiRh3,0.0,-0.02841,,2,3.0
Ge2Zr2Rh,0.0,-0.0276565,,2,3.0
O7ScGe2Ho,4.0281,-0.0160008,,2,3.0
F6KTiRb2,0.0,-0.0119949,,2,3.0
Mg7Ca3Zn2,0.0,-0.0077065,,2,3.0
YIn2Pt,0.0,-0.042164,,2,3.0
O4CuW,0.0,-0.0200683,,2,3.0
CCr2Ge2Sm2,0.0,-0.0253881,,2,3.0
As2Sr2Bi,0.0,-0.033608,,2,3.0
NY2In,0.0,-0.0258695,,2,3.0
Fe2Br8Pt,0.4664,-0.0243341,,2,3.0
BeN2Ge,3.5127,-0.0112957,,2,3.0
Al2HoEr,0.0,-0.029126,,2,3.0
F4CoSr,0.9646,-0.0121273,,2,3.0
Ni2Zr2Pd,0.0,-0.0259334,,2,3.0
SrPd2In5,0.0,-0.0323858,,2,3.0
BNTbIr,0.0,-0.0350095,,2,3.0
ClNdPt,1.0339,-0.0423671999999999,,2,3.0
BRh3Nd,0.0,-0.0312507,,2,3.0
Ag3Cs2Tl,0.0,-0.0403904,,2,3.0
Co6As4Dy,0.0,-0.0215488,,2,3.0
Ni4Pt7,0.0,-0.0506708,,2,3.0
KTiBr3,0.0,-0.0180545,,2,3.0
H2MgZr2,0.0,-0.0149736,,2,3.0
S4CaTb2,1.97,-0.022596,,2,3.0
VSb2,0.0,-0.0307532,,2,3.0
Al2Sc2Zn,0.0,-0.0119513,,2,3.0
Al7Nd3Au2,0.0,-0.0276654,,2,3.0
B2N3Ir2Th3,0.0,-0.0486278,,2,3.0
NEr3Au,0.0,-0.0471913,,2,3.0
Li2F8CaMo,1.0437,-0.0096614,,2,3.0
S4Cu4Zr,1.6345,-0.0151281,,2,3.0
PdTe2Nd6,0.0,-0.0418917,,2,3.0
MgSbPt,0.0,-0.0383967,,2,3.0
O4NiLa2,0.0,-0.0211853,,2,3.0
NOGe2Nd6,0.0,-0.0327806,,2,3.0
S6Ti3Os,0.0,-0.0190492999999999,,2,3.0
F6GaRb2Cs,5.6005,-0.0146085,,2,3.0
LiP2Ru2Nd,0.0,-0.0237106,,2,3.0
BeYAu3,0.0,-0.0487128999999999,,2,3.0
S2SbAu,0.7041,-0.0315528,,2,3.0
P4Co2Ba,0.0,-0.0171748,,2,3.0
MnFe4Ir,0.0,-0.0270973,,2,3.0
Si2ScOs2,0.0,-0.0363144,,2,3.0
ZnZr2In,0.0,-0.0274653999999999,,2,3.0
Mg2NiPb,0.0,-0.0256209,,2,3.0
AsSbLu2,0.0,-0.0433791,,2,3.0
PPtNp,0.0,-0.0632961,,2,3.0
F6KCuRb2,1.0179,-0.0111874,,2,3.0
CuGe2As3,0.0,-0.0190393,,2,3.0
Al2Gd2Hg,0.0,-0.0407712999999999,,2,3.0
Al2FeZn,0.0,-0.0120162,,2,3.0
DyAuPb,0.0,-0.0652083,,2,3.0
YAg2Au,0.0,-0.0404439,,2,3.0
O6Sb2Pr,0.0,-0.0193,,2,3.0
Cl3CrRb,0.0,-0.0143537,,2,3.0
LiBe2Pt,0.0,-0.0210267,,2,3.0
Li8Al,0.0,-0.0030179,,2,3.0
MgSc2Se,0.0,-0.0142173,,2,3.0
HYPt3,0.0,-0.0491731,,2,3.0
CoPdPt2,0.0,-0.0477333,,2,3.0
AlCo2Hf2,0.0,-0.0340138,,2,3.0
PrSm3,0.0,-0.044151,,2,3.0
KLaTl2,0.0,-0.049443,,2,3.0
Te4Ho5,0.0,-0.0449021,,2,3.0
Ca3ZnSe4,1.9914,-0.0169678,,2,3.0
O2ZnCs,0.0,-0.0171579,,2,3.0
Zn2SrTb,0.0,-0.0242561,,2,3.0
F5Cr2,0.1833,-0.0107232,,2,3.0
Cl6MnRb2Au,0.0,-0.0191361,,2,3.0
CoInCe,0.0,-0.0321729,,2,3.0
Li2MgPb2,0.0,-0.0325644,,2,3.0
B4Nd2Os5,0.0,-0.0437001,,2,3.0
CrTaW,0.0,-0.0515912,,2,3.0
CClTm2,0.0,-0.0317594,,2,3.0
AlAu2Ac,0.0,-0.0600899,,2,3.0
Tb2Ir,0.0,-0.05577,,2,3.0
FIn,0.5762,-0.0202444,,2,3.0
O3PdTm,0.0,-0.0229102999999999,,2,3.0
Si6Sc5Y5,0.0,-0.0176978,,2,3.0
MgNdTl,0.0,-0.0408922,,2,3.0
LiO7P2In,4.2061,-0.0115176999999999,,2,3.0
Ni2Sn2Pr,0.0,-0.0300832,,2,3.0
Na5Hg,0.0,-0.014983,,2,3.0
AgTm,0.0,-0.0420057,,2,3.0
OSAgEu,0.0,-0.0269495,,2,3.0
PCe2,0.0,-0.034233,,2,3.0
F6ScCs2Tl,4.9606,-0.0216451,,2,3.0
Al6NiEu,0.0,-0.0149498,,2,3.0
AgEr2Au,0.0,-0.0510759,,2,3.0
PEuAu,0.0,-0.0455298,,2,3.0
Al3Si2CoTm3,0.0,-0.0247544,,2,3.0
PrAuHg2,0.0,-0.0628136,,2,3.0
Cu4GdTl,0.0,-0.0321742,,2,3.0
CSi2Mo2Tb,0.0,-0.024894,,2,3.0
Ge2RuIn3Lu3,0.0,-0.0383504999999999,,2,3.0
Ca2AgPt2,0.0,-0.0389722999999999,,2,3.0
S4MnHg3,0.0,-0.0330366,,2,3.0
F6EuTa,0.0,-0.0211154,,2,3.0
Se2SrAg2,0.4135,-0.0260166,,2,3.0
Li5Hg4,0.0,-0.0320091,,2,3.0
Ni4CdEr,0.0,-0.0246001,,2,3.0
MnZr2,0.0,-0.0265766999999999,,2,3.0
O8MgSr2RuLa2,0.0,-0.0186531,,2,3.0
CaTe2,0.0,-0.0292299,,2,3.0
SiP2Zr,0.0,-0.0162068,,2,3.0
O2NaAu,1.1484,-0.0224090999999999,,2,3.0
B4DyHf,0.0,-0.0241876,,2,3.0
MnSr2Rh2,0.0,-0.0263993,,2,3.0
CePrAu2,0.0,-0.0574125,,2,3.0
SPd5Hg,0.0,-0.0347436999999999,,2,3.0
TiSn2,0.0,-0.0295304,,2,3.0
Te3Lu4Bi,0.0,-0.0525824,,2,3.0
Pd2Sn2Pu,0.0,-0.0499246,,2,3.0
SrLa5,0.0,-0.0395497,,2,3.0
MnGe2In3Er3,0.0,-0.0347714,,2,3.0
NAlHf2,0.0,-0.036801,,2,3.0
BO3NaSr,3.8068,-0.0115573,,2,3.0
MgCdIn,0.0,-0.0230222,,2,3.0
NZnZr3,0.0,-0.0240395,,2,3.0
O8MnMo2Tl,0.0,-0.0194657,,2,3.0
CNNb2,0.0,-0.0222149,,2,3.0
As2RhPu2,0.0,-0.0596337,,2,3.0
F6TiSr,4.2671,-0.0112978,,2,3.0
CsPt2Tl2,0.0,-0.0647981,,2,3.0
O8P2CoBa,0.0,-0.0130065,,2,3.0
Ta5Re,0.0,-0.0675407,,2,3.0
AlSc2Ag,0.0,-0.0173077,,2,3.0
LiGaGd2,0.0,-0.0344342,,2,3.0
YLaAu,0.0,-0.0474126,,2,3.0
PCl3Nd3,0.0,-0.0255558,,2,3.0
Al5ScOs,0.0,-0.0183767,,2,3.0
LiAlSr2,0.0,-0.0137514,,2,3.0
PSc2In,0.0,-0.0191279,,2,3.0
Si2Mn2Ce,0.0,-0.02086,,2,3.0
LiTi2Pd2,0.0,-0.0204742,,2,3.0
NiZn2Ta,0.0,-0.0275771,,2,3.0
MgGa3Er,0.0,-0.0213282,,2,3.0
LiAl4Eu,0.0,-0.0147698999999999,,2,3.0
Ag2Sn2Tb,0.0,-0.0366019,,2,3.0
CaGeCe,0.0,-0.0250246,,2,3.0
FeNi4,0.0,-0.0166511999999999,,2,3.0
BGdIr3,0.0,-0.0565519,,2,3.0
KCrBr6Rb2,1.4234,-0.0200914,,2,3.0
LiRhBi2,0.0,-0.0485553,,2,3.0
AlAg5,0.0,-0.0274987,,2,3.0
OTi3Zn,0.0,-0.0149002,,2,3.0
ZnRhGd2,0.0,-0.0418081,,2,3.0
MnPd2Hg,0.0,-0.0383615,,2,3.0
O6Cl2Cu3Se2,0.0,-0.011513,,2,3.0
OGaSm3,0.0,-0.0327303,,2,3.0
NiAsPr,0.0,-0.0276776,,2,3.0
S3RbZrAg,0.6941,-0.0199896,,2,3.0
YTb3,0.0,-0.0420052999999999,,2,3.0
CaAu2Bi,0.0,-0.0572187,,2,3.0
VTa2Os,0.0,-0.0560627,,2,3.0
Cl6InCs3,3.922,-0.0213287,,2,3.0
MgRh2Os,0.0,-0.0362914,,2,3.0
H3YAu,0.0,-0.0220156,,2,3.0
H6MnDy2,0.0,-0.0155599,,2,3.0
Rh5Hf,0.0,-0.0391221,,2,3.0
B6O15Al4,5.8742,-0.0096902,,2,3.0
S2AgTa,0.0,-0.0301465,,2,3.0
NaK2Br6Bi,3.03,-0.0229874,,2,3.0
Se2AuTl2,0.0,-0.051054,,2,3.0
OHf2,0.0,-0.0457337,,2,3.0
GePt2Pa2,0.0,-0.0727325,,2,3.0
CoTaOs2,0.0,-0.0570765,,2,3.0
O6ClKAs4,3.3197,-0.0126567,,2,3.0
MnCoInPt,0.0,-0.0352484,,2,3.0
Se7Er5,0.0,-0.0347467,,2,3.0
Zn4RbBi3,0.0,-0.0388644999999999,,2,3.0
CaSrBa2,0.0,-0.0277384,,2,3.0
Si2Fe3Co3,0.0,-0.0162467,,2,3.0
SmAu2Bi,0.0,-0.0660541,,2,3.0
CoGe3Er,0.0,-0.0255262,,2,3.0
B2Ti2Cr,0.0,-0.0137452,,2,3.0
Cd2InCe,0.0,-0.0350169,,2,3.0
RhTe2I,0.0,-0.0365437,,2,3.0
K7(FeS2)5,0.0,-1.04154601503409,mp-1204678,2,3.0
Ag2InDy2,0.0,-0.0388216,,2,3.0
Si2Ag2Nd,0.0,-0.0257419,,2,3.0
Ge3ZrPr,0.0,-0.0270113999999999,,2,3.0
LiF6Fe,1.3508,-0.0074896,,2,3.0
H6Nd2Os,0.0,-0.0205307,,2,3.0
SrCd2Nd,0.0,-0.0320711999999999,,2,3.0
Al5NiTh,0.0,-0.0219305,,2,3.0
TbHgPb2,0.0,-0.0670488,,2,3.0
Fe2CdDy2,0.0,-0.0325424,,2,3.0
PCoTa2,0.0,-0.0408667999999999,,2,3.0
TiBr2I2,0.124,-0.0266402,,2,3.0
NiGeEu,0.0,-0.0302619,,2,3.0
SeBr2Ba2,3.0497,-0.0299455,,2,3.0
P2Tc2La,0.0,-0.0275256,,2,3.0
N2ZrLa,0.0,-0.0249066,,2,3.0
O2Th,4.4528,-0.0403021999999999,,2,3.0
PTe2Ta2,0.0,-0.0441077999999999,,2,3.0
H4Li4Al,0.0,-0.0036366,,2,3.0
AsTe3La4,0.0,-0.0398232,,2,3.0
PSr2Hg,0.0,-0.0317208,,2,3.0