formula,bg,formation_energy,mp-id,fidelity,bg_category
ClBrHg,2.149,-0.0324134,,2,3.0
Pd2Cd2Tl,0.0,-0.0400154,,2,3.0
Mg2ZrIn,0.0,-0.0188018,,2,3.0
MgZnAu2,0.0,-0.0397201,,2,3.0
S8Fe2CuRh3,0.14,-0.0169,,2,3.0
Ga2Ag2Dy,0.0,-0.0290255,,2,3.0
F6KRb2Pd,0.6986,-0.0128307,,2,3.0
N2ClBrSr4,1.7855,-0.0184781,,2,3.0
O7Tb2Bi2,0.0,-0.0289483,,2,3.0
O7Ge2Ho2,3.9648,-0.0191912999999999,,2,3.0
O3ScPu,0.0,-0.0320186,,2,3.0
MgTi2Pt2,0.0,-0.0364622999999999,,2,3.0
Co3Ge2La,0.0,-0.0226411,,2,3.0
ClSePt2,0.0,-0.0424744,,2,3.0
NCo3Rh,0.0,-0.0189296,,2,3.0
Sb2Nd6Os,0.0,-0.046009,,2,3.0
NiIrAc2,0.0,-0.0674039999999999,,2,3.0
CrY6Te2,0.0,-0.0295407,,2,3.0
CoTaPt2,0.0,-0.0567563,,2,3.0
N6Ca,3.3851,-0.0095727,,2,3.0
H12O6F6NiSn2,1.6355,-0.008457,,2,3.0
Mg2AgEr,0.0,-0.0231742,,2,3.0
FeCoZr2,0.0,-0.0244993,,2,3.0
Li4O8Ni3Cu,0.0,-0.0092341,,2,3.0
SiFeNp,0.0,-0.0452518,,2,3.0
Nb2MoW,0.0,-0.0427817,,2,3.0
Ca2InLa,0.0,-0.0242872999999999,,2,3.0
F4Bi,0.8645,-0.0204759,,2,3.0
RbIn2Sn2,0.0,-0.0321207,,2,3.0
Si3SmIr,0.0,-0.0300152999999999,,2,3.0
Ag2NdSm,0.0,-0.03802,,2,3.0
RuPt2,0.0,-0.0584157,,2,3.0
CSnDy2,0.0,-0.0360541,,2,3.0
Al3CoY3Sn2,0.0,-0.0224545,,2,3.0
MgYAu,0.0,-0.0349298,,2,3.0
InSb,0.0,-0.0354821,,2,3.0
H4ClAs,4.2364,-0.0071141,,2,3.0
GaDy2Au,0.0,-0.0461486,,2,3.0
Cd4BaPb,0.0,-0.0396975,,2,3.0
O8RbMo2Tm,4.0429,-0.0186579,,2,3.0
O3P2,3.4211,-0.0095643,,2,3.0
Cl3U,0.0355,-0.033724,,2,3.0
O4Cu2As2Te2Tb,0.0,-0.0211161,,2,3.0
Al9Ni2Rb,0.0,-0.0105568,,2,3.0
CaAs2Ru2,0.0,-0.0247212,,2,3.0
O6ZnSr2Pd,0.0,-0.014522,,2,3.0
NaSe2Pa,0.0,-0.0373579,,2,3.0
Ni3Pd2Nd,0.0,-0.0266411,,2,3.0
ONd4Bi2,0.0,-0.0497327,,2,3.0
Ru2NdGd,0.0,-0.0431902,,2,3.0
PSe3Pr4,0.0,-0.0325278,,2,3.0
RbRh2Te2,0.0,-0.0331248,,2,3.0
AlNi2Er,0.0,-0.0232534,,2,3.0
AlCa2Au,0.0,-0.0246952,,2,3.0
Te3TaPt2,0.0,-0.0535636,,2,3.0
N2Sr3,0.2176,-0.0177516,,2,3.0
F3NaCd,3.3832,-0.0116385,,2,3.0
Y6InSb2,0.0,-0.0313329,,2,3.0
Si2AgTm,0.0,-0.0262259,,2,3.0
Ni2Zr2In,0.0,-0.0260287,,2,3.0
CdLa2Tl2,0.0,-0.0528208,,2,3.0
Ni2Se3Tl,0.0,-0.0278689,,2,3.0
ClRb2Cd2,0.0,-0.0229036,,2,3.0
YHg2Tl,0.0,-0.0595542,,2,3.0
K2Sn2Pt,0.0,-0.032124,,2,3.0
Cu2ZrRh,0.0,-0.0241955999999999,,2,3.0
F6CrEr,2.0288,-0.0149951,,2,3.0
Ni3Se2Pb2,0.0,-0.0345382,,2,3.0
Li3Sb2Ba,0.0,-0.0209842,,2,3.0
B6Fe2Ho,0.0,-0.0149238,,2,3.0
KZn2Au2,0.0,-0.0350482,,2,3.0
NSeSr6Sn2,0.0,-0.0244806999999999,,2,3.0
H3Li4O3Br,4.5449,-0.0069685,,2,3.0
H2O2Cd,1.5715,-0.0111057,,2,3.0
CoI5Pr4,0.0,-0.0385956,,2,3.0
Se3AgCsTb,0.0,-0.0306448,,2,3.0
Fe5Zn4,0.0,-0.0161139,,2,3.0
ScZnIn2,0.0,-0.0240535,,2,3.0
Zn3Pt5,0.0,-0.0494249,,2,3.0
Si2Sc2W,0.0,-0.024218,,2,3.0
PdSbHf,0.0,-0.0449101,,2,3.0
CuZr2Au,0.0,-0.0368903,,2,3.0
O4NbPr,3.8685,-0.0202166,,2,3.0
CaPd2Bi,0.0,-0.039073,,2,3.0
Li5In3,0.0,-0.0142994,,2,3.0
NiINd,0.0,-0.0330802,,2,3.0
HB,0.3471,-0.0054739,,2,3.0
CPbPu3,0.0,-0.0832224999999999,,2,3.0
MgPm2,0.0,-0.0310612,,2,3.0
Rb2InAu3,0.0,-0.0475087,,2,3.0
OCdSbCe,0.0,-0.0314103,,2,3.0
Ni2PdTa2,0.0,-0.0399615,,2,3.0
Ca2ZnPt,0.0,-0.0265229999999999,,2,3.0
ScYIr2,0.0,-0.0471205,,2,3.0
CuLuPt2,0.0,-0.053795,,2,3.0
Se3Nb,0.0,-0.0240506999999999,,2,3.0
Cu2Y2Cd,0.0,-0.0236848,,2,3.0
LiF6Rb2Sb,4.1124,-0.0129994,,2,3.0
B2Dy,0.0,-0.0215253,,2,3.0
V6GaGe,0.0,-0.0178763,,2,3.0
YCd2Sm,0.0,-0.0337403,,2,3.0
CaTl2Ac,0.0,-0.0618299,,2,3.0
Si2Co2Mo,0.0,-0.0182704,,2,3.0
F7CsTm2,6.7479,-0.0208277,,2,3.0
O8ZnRe2,3.9628,-0.0203284,,2,3.0
Ni2Zn2Sr,0.0,-0.0164577999999999,,2,3.0
O3FeSr,0.0,-0.0141325,,2,3.0
HBe2P,2.1196,-0.0058899,,2,3.0
F6MnIn2,1.0557,-0.0143675,,2,3.0
B2Fe,0.0,-0.0111712,,2,3.0
Cu4YCd,0.0,-0.0201183,,2,3.0
In3Sn2Lu3Os,0.0,-0.0460876999999999,,2,3.0
RuSbU,0.0,-0.0588218999999999,,2,3.0
AlPdHo2,0.0,-0.0352692,,2,3.0
Ge2RhTm,0.0,-0.0318057,,2,3.0
CoGa3Ge2Zr3,0.0,-0.0224801,,2,3.0
NaSi2Th2,0.0,-0.0436428,,2,3.0
LiSiLa,0.0,-0.0191032,,2,3.0
ZnZr2Tl,0.0,-0.0371074,,2,3.0
F4MnCs2,1.809,-0.0183928,,2,3.0
Pt2Tl3Th3,0.0,-0.0814519,,2,3.0
Si2Ho,0.0,-0.0235091,,2,3.0
H2RbAg,2.4031,-0.01488,,2,3.0
LiSiCe,0.0,-0.0194661,,2,3.0
SiRh2Ho2,0.0,-0.0361936,,2,3.0
Mg2ZrIr,0.0,-0.0284768,,2,3.0
NiMo2Ru,0.0,-0.0302008,,2,3.0
AlFeZn2,0.0,-0.0133885,,2,3.0
Mn6As4Ho,0.0,-0.022299,,2,3.0
ZrCdIn2,0.0,-0.0323223,,2,3.0
GeRh2U,0.0,-0.0481079,,2,3.0
H2O2Zn,2.9731,-0.0078526,,2,3.0
Li2N2Pu,0.0,-0.0276676,,2,3.0
O6MgMoTm2,0.0,-0.0212099,,2,3.0
RuRh2Ho3,0.0,-0.0424294999999999,,2,3.0
FNa3Au,0.0,-0.018362,,2,3.0
Cu5Ge2,0.0,-0.0162831,,2,3.0
LiAlZnGa,0.0,-0.0101608,,2,3.0
PPd5Er,0.0,-0.032945,,2,3.0
CoNiGa2,0.0,-0.0168584,,2,3.0
AsHg2,0.0,-0.0521212999999999,,2,3.0
AlSr2Au,0.0,-0.0309698,,2,3.0
MnWRe2,0.0,-0.0576475,,2,3.0
O8ZnSr3RuLa,0.4635,-0.0174634,,2,3.0
F6SrTa,0.0,-0.0172693,,2,3.0
BMn4Er,0.0,-0.0221016,,2,3.0
O12NaSi4Fe2,0.0,-0.0106705,,2,3.0
H2O5SCo,0.1177,-0.008568,,2,3.0
RuHf6Tl2,0.0,-0.0619797,,2,3.0
K3Ag3Sb2,1.0759,-0.0246084,,2,3.0
OPr3Pb,0.0,-0.0439906999999999,,2,3.0
PrPmPb2,0.0,-0.0604686,,2,3.0
Al5FeTb,0.0,-0.015176,,2,3.0
ScPrTl2,0.0,-0.0510718999999999,,2,3.0
MgS4TiDy,0.0,-0.0171512999999999,,2,3.0
S4Ag2BaPb,0.0,-0.0277978999999999,,2,3.0
P2Cu2RbTh,0.0,-0.0287323,,2,3.0
F6AlRb2Ag,3.0478,-0.0132121999999999,,2,3.0
Ru2DyTh,0.0,-0.053824,,2,3.0
PRhTa,0.0,-0.0377541,,2,3.0
H4PdPr,0.0,-0.0155387,,2,3.0
Ge4Rh4Tb3,0.0,-0.033031,,2,3.0
O4SCs,0.0627,-0.0136737,,2,3.0
F6KCaRb2,0.0,-0.010955,,2,3.0
O8AlS2Rb,5.7596,-0.0102954,,2,3.0
PTm,0.0,-0.0329155999999999,,2,3.0
Mg2PdNd,0.0,-0.0221783,,2,3.0
Al3CoGe2Ho3,0.0,-0.025867,,2,3.0
ScCu2Pd,0.0,-0.0197427,,2,3.0
MgPrTl2,0.0,-0.0486884,,2,3.0
SSePb2,0.1498,-0.0458798,,2,3.0
LiZnAs,0.6029,-0.0125815,,2,3.0
H3KPd,0.0,-0.0105353,,2,3.0
NTi3Mn,0.0,-0.0160124,,2,3.0
Ti3Se6Rh,0.0,-0.0213567,,2,3.0
SiMn2Mo,0.0,-0.0206531999999999,,2,3.0
ScCu4Ag,0.0,-0.0179685999999999,,2,3.0
Ca2CdI2,0.0,-0.0254011,,2,3.0
O4ZrSm,0.9119,-0.0200980999999999,,2,3.0
CGe2Mo2U,0.0,-0.0370495,,2,3.0
CePt8,0.0,-0.0677587,,2,3.0
O4YPr,2.4042,-0.01908,,2,3.0
O6AlCuSr2,0.0,-0.0126691,,2,3.0
SiZrAu,0.0,-0.0374629,,2,3.0
ZnAg2La,0.0,-0.0300964999999999,,2,3.0
S4YSm3,0.0,-0.0272386,,2,3.0
Sn2NdPb,0.0,-0.0482843,,2,3.0
Mg2P4Cu2Sr3,0.2562,-0.0145372,,2,3.0
ZnInAc2,0.0,-0.0573833,,2,3.0
HoPt2Pb,0.0,-0.0671759,,2,3.0
O6CaSr2Ta,0.0,-0.0188595,,2,3.0
FeSe2Br6,0.7366,-0.0196522,,2,3.0
S3CuZrPb,0.0,-0.0260628,,2,3.0
Be4FeCo,0.0,-0.0090574,,2,3.0
Mg2LaAc,0.0,-0.0359914,,2,3.0
Co3Ge2Sr,0.0,-0.019028,,2,3.0
ScBr3,2.9563,-0.0200658999999999,,2,3.0
LiP2Rh2Pr,0.0,-0.0234879,,2,3.0
O3ZnEr,0.0,-0.0186374,,2,3.0
O8Fe2Sr3Nd,0.0,-0.016736,,2,3.0
O6RuSnBa2,0.0,-0.020883,,2,3.0
Be4MnZn,0.0,-0.008349,,2,3.0
ScZrAg2,0.0,-0.027102,,2,3.0
Y3Rh2Pb3,0.0,-0.0481168,,2,3.0
In3BaPt,0.0,-0.0426702,,2,3.0
H3CsBa,1.8241,-0.0179291,,2,3.0
Li3DyBi2,0.0,-0.0360805,,2,3.0
CGe2La2Ir2,0.0,-0.0403836,,2,3.0
RhCdNd,0.0,-0.0365653,,2,3.0
CrMo5,0.0,-0.0320857,,2,3.0
SiAsNb,0.0,-0.0217334,,2,3.0
Al4DyAu,0.0,-0.0252546999999999,,2,3.0
H12O6MgZn2Br6,3.6311,-0.0095757,,2,3.0
PrIrBi2,0.0,-0.0683970999999999,,2,3.0
Ca6RhTe2,0.0,-0.0193342,,2,3.0
As3Ce,0.0,-0.0270355,,2,3.0
RhSb2Dy,0.0,-0.0398941,,2,3.0
GeNb3Mo3Sn,0.0,-0.0326257,,2,3.0
As2RbPd2,0.0,-0.0259343,,2,3.0
Ca2MnRh2,0.0,-0.021494,,2,3.0
Ga2Nb2La,0.0,-0.0288453,,2,3.0
AlCuGa2,0.0,-0.0139708,,2,3.0
Li2NiBi,0.0,-0.025202,,2,3.0
FeDy2Ir2,0.0,-0.0520234,,2,3.0
InPt2Pa,0.0,-0.0692837999999999,,2,3.0
B6Cr9Fe,0.0,-0.0146334999999999,,2,3.0
Si2Tm2Pt,0.0,-0.0399461,,2,3.0
YAg2Er,0.0,-0.035636,,2,3.0
ScGePt2,0.0,-0.0446088,,2,3.0
O8RbMo2Gd,3.9048,-0.0191806,,2,3.0
Co3NiSb12,0.0,-0.0323609,,2,3.0
In2SnTm,0.0,-0.0390892,,2,3.0
Si3Zn6Ce2,0.0,-0.0186051,,2,3.0
S3ZrPdTl,0.0,-0.028507,,2,3.0
Zr2CdPt2,0.0,-0.0475311999999999,,2,3.0
ScBr6AgCs2,2.7656,-0.0255006999999999,,2,3.0
O6ICsAu,0.0968,-0.0206573,,2,3.0
LiSc2Cu,0.0,-0.0115975,,2,3.0
Sc3Zn2Hg,0.0,-0.0235295,,2,3.0
AgSnPu2,0.0,-0.0719494,,2,3.0
Cu2RhPt,0.0,-0.0336712,,2,3.0
Cu3Zn,0.0,-0.0148502,,2,3.0
F6Rb2CsTh,0.0,-0.022941,,2,3.0
PCaPd,0.0,-0.0187490999999999,,2,3.0
PSY,0.0,-0.0176862,,2,3.0
As2Sr2Sn,0.0,-0.02507,,2,3.0
LiS2CsHg,1.2838,-0.0265489,,2,3.0
OBrDy,4.3194,-0.0277367,,2,3.0
ZnPtPa,0.0,-0.0619814999999999,,2,3.0
OAlNd3,0.0,-0.0304015999999999,,2,3.0
Ge2PdTm6,0.0,-0.0431225,,2,3.0
Ru2Sm3Hg,0.0,-0.0456395,,2,3.0
Li4Y3Sb4,0.0,-0.0229394,,2,3.0
Al3Ru2Ag,0.0,-0.021429,,2,3.0
Zr4In3,0.0,-0.0322614,,2,3.0
Rh4CdLa,0.0,-0.0351436,,2,3.0
P4Fe2Cu2Zr3,0.0,-0.0191,,2,3.0
SiSr2Ir2,0.0,-0.0400131,,2,3.0
AlYZr2,0.0,-0.0244263,,2,3.0
BNFeLu,0.0,-0.0237816,,2,3.0
MgSn2Ho,0.0,-0.0319141,,2,3.0
In2PrNd,0.0,-0.039077,,2,3.0
CO7NaPHf,4.9441,-0.0144539,,2,3.0
O8P2BaEu,0.0,-0.0164377,,2,3.0
Si3TiDy,0.0,-0.0193677999999999,,2,3.0
InHo2,0.0,-0.0442713,,2,3.0
YInPb2,0.0,-0.0536306,,2,3.0
KBa3,0.0,-0.031696,,2,3.0
RbCdCs3,0.0,-0.0328885,,2,3.0
Al3Pr,0.0,-0.0171122,,2,3.0
HFe3Ga,0.0,-0.0149976,,2,3.0
SiBaAu3,0.0,-0.0520987,,2,3.0
Pd2Cd3Th,0.0,-0.0425602,,2,3.0
Cd7Hg,0.0,-0.0351175,,2,3.0
CaSnLu,0.0,-0.0342446,,2,3.0
Mg2PmGd,0.0,-0.0282964,,2,3.0
NCdTb3,0.0,-0.0369371999999999,,2,3.0
ScCo2Sn,0.0,-0.0215725,,2,3.0
FKCs2,0.0,-0.0232407,,2,3.0
FeReIr2,0.0,-0.0580855,,2,3.0
Li4O5Te,2.8792,-0.0097359,,2,3.0
InBa2Au2,0.0,-0.0509386,,2,3.0
H2Ca2Pb,0.0,-0.0211226999999999,,2,3.0
C2Sc4Br5,0.0,-0.0172623,,2,3.0
AgAu2Pb2,0.0,-0.0642475,,2,3.0
H3CuLa,0.0,-0.0142251,,2,3.0
CaZn3Ga2,0.0,-0.0140875,,2,3.0
HLiO5SCu,0.5497,-0.0084061,,2,3.0
BN2Dy,2.6925,-0.02013,,2,3.0
Ga2RhTm6,0.0,-0.0425469,,2,3.0
Pr3Ga5O12,2.9055,-2.884866288125001,mp-1210032,2,3.0
ITl,1.736,-0.0552111999999999,,2,3.0
Ti3Cu2,0.0,-0.0157927,,2,3.0
CaNi6As4,0.0,-0.0175038,,2,3.0
Zr2AgAu,0.0,-0.0409437,,2,3.0
NOIn2Th6,0.0,-0.0667934999999999,,2,3.0
Al3FeNd2,0.0,-0.0218141,,2,3.0
Al2RhTh6,0.0,-0.0697942,,2,3.0
H3TmIr,0.0,-0.0274253,,2,3.0
O2K3Co,0.6124,-0.0103582,,2,3.0
Fe2InNd,0.0,-0.0285271,,2,3.0
AlZrRuOs,0.0,-0.0370208,,2,3.0
MgGa5Ru,0.0,-0.0176039,,2,3.0
FeCo2Pt,0.0,-0.0309118,,2,3.0
HAlSiPa,0.0,-0.0304795,,2,3.0
Li8O4F2Mn,0.8453,-0.0068647,,2,3.0
Mg2Al3Os,0.0,-0.0178269,,2,3.0
Be2P2Sr,0.5895,-0.0111945,,2,3.0
Li2ScGa2,0.0,-0.01073,,2,3.0
H2Zr2In,0.0,-0.0208867,,2,3.0
C5Co3Nd4,0.0,-0.0232736,,2,3.0
P2Ti6Cu,0.0,-0.0154739,,2,3.0
Au3Tl4,0.0,-0.0710011,,2,3.0
Ga2Rh3Sm,0.0,-0.0306179,,2,3.0
S2AgCdCs,1.931,-0.024605,,2,3.0
ScSe2Y,0.0,-0.0224285,,2,3.0
O6CoPdNd2,0.0,-0.0198359,,2,3.0
Ga2RuTb6,0.0,-0.0391516,,2,3.0
O4Ba2Pu,0.0,-0.0336443,,2,3.0
Ru2TmTh,0.0,-0.0548914,,2,3.0
FAg2I,0.3609,-0.0263714,,2,3.0
ScCo4Ru,0.0,-0.0198353,,2,3.0
Ge2PdIn3Lu3,0.0,-0.0381741,,2,3.0
ScTiZn2,0.0,-0.0146670999999999,,2,3.0
MgHf3Re2,0.0,-0.0561973,,2,3.0
Se2InGd,0.0,-0.0344895,,2,3.0
RuSnDy,0.0,-0.0401711,,2,3.0
KSeIn,1.2932,-0.0214361,,2,3.0
Si2AgBa,0.0,-0.0230096999999999,,2,3.0
CaSe3AgLu,0.0,-0.0276841,,2,3.0
B2MgNi3,0.0,-0.0117297999999999,,2,3.0
F8K2BaTh,6.8653,-0.0189284,,2,3.0
Pd2Sn2Cs,0.0,-0.0354233,,2,3.0
K6Ag7,0.0,-0.0206717,,2,3.0
Li3As2Ba,0.0,-0.015381,,2,3.0
O4ClAg,2.474,-0.0107683,,2,3.0
Ge2Pd3Ho,0.0,-0.031724,,2,3.0
Sc3Cd5,0.0,-0.0246916,,2,3.0
RhPdTe,0.0,-0.0349759,,2,3.0
CuAsEu,0.0,-0.0306321,,2,3.0
Na2PtBi,0.0,-0.0396561999999999,,2,3.0
Cu4CdLu,0.0,-0.0247207,,2,3.0
H8Mg2CoLa,0.0,-0.0085622,,2,3.0
Ca2NiPd2,0.0,-0.0207306999999999,,2,3.0
Li2Mg2CaPb2,0.0,-0.0256217,,2,3.0
Sc2CoNi,0.0,-0.0159511,,2,3.0
PPb,0.0,-0.0429789,,2,3.0
H6FeRb2,0.0,-0.0090165,,2,3.0
GeTe2Pb,0.0852,-0.0424814,,2,3.0
SiRu3Pu2,0.0,-0.0561781,,2,3.0
Tb4Bi3,0.0,-0.0612751999999999,,2,3.0
AgInPb2,0.0,-0.0540168,,2,3.0
AgCdTe2,0.0,-0.0342421,,2,3.0
Zn4ZrTc,0.0,-0.0203279,,2,3.0
Si2CoLu,0.0,-0.0238969,,2,3.0
Ti2In2Bi,0.0,-0.0356109,,2,3.0
Li2Ag2In,0.0,-0.0203869,,2,3.0
In4Ba3Au4,0.0,-0.0487552,,2,3.0
C4RuTb3,0.0,-0.0273155,,2,3.0
B2Th,0.0,-0.0373791999999999,,2,3.0
CaTe3ErAu,0.4222,-0.041389,,2,3.0
TiMn2Hf,0.0,-0.0290095,,2,3.0
H4NS4NiW,0.0,-0.0138886,,2,3.0
BrSb2,0.0,-0.0315042,,2,3.0
Li2Ge3Sm2,0.0,-0.0223247,,2,3.0
Ga5RuSm,0.0,-0.0235704999999999,,2,3.0
Nb3Au,0.0,-0.0423694,,2,3.0
ZrTe2Hg,0.0,-0.0440218,,2,3.0
H2O2Ca,4.1752,-0.0078358,,2,3.0
N2TiHo,0.0,-0.0228220999999999,,2,3.0
DyHoPb2,0.0,-0.0627357,,2,3.0
ZnHg2Ac,0.0,-0.0604771,,2,3.0
LiCl3K2,5.102,-0.0092736,,2,3.0
CdEr2Pb,0.0,-0.0522174,,2,3.0
Li5O8MnCo2,0.0,-0.0091667,,2,3.0
Ca2CdTe2,0.1239,-0.0260075,,2,3.0
NiWRe2,0.0,-0.0570186,,2,3.0
Cu2Sr2Cd,0.0,-0.0212058,,2,3.0
MgMn2Zr2,0.0,-0.0206803,,2,3.0
Ga6PdDy,0.0,-0.0228338,,2,3.0
Al5TmAu,0.0,-0.0232737,,2,3.0
AlSc8,0.0,-0.0135703,,2,3.0
MgInCe,0.0,-0.0280689,,2,3.0
NiBi2Th6,0.0,-0.0835985,,2,3.0
Al4AgInTe8,0.4631,-0.0285641,,2,3.0
Fe4MoPt,0.0,-0.0297025,,2,3.0
Al5SrCd2,0.0,-0.0153309,,2,3.0
CuAu2,0.0,-0.0512424,,2,3.0
O6Se2Rb3Cs,4.2918,-0.0163937,,2,3.0
Al2PdTh,0.0,-0.0368094,,2,3.0
HCl2Sc,3.0172,-0.0101994,,2,3.0
CuIn3Ho2,0.0,-0.0361057,,2,3.0
GeSrPr,0.0,-0.0288016,,2,3.0
Tl3Th,0.0,-0.0784958,,2,3.0
ZnSr2Rh,0.0,-0.0233595,,2,3.0
Be2MoW,0.0,-0.0285264,,2,3.0
Pr3Er,0.0,-0.0450674,,2,3.0
OMgSc3,0.0,-0.0121196,,2,3.0
Li5N3Fe3,0.0,-0.0088979,,2,3.0
NiRh2Pu,0.0,-0.0486365,,2,3.0
PNd2Bi,0.0,-0.0453924,,2,3.0
N3MnNd,0.0,-0.0186778,,2,3.0
CoPm2Au,0.0,-0.0441076,,2,3.0
Si2Ir2Pa,0.0,-0.0534288,,2,3.0
OILa,3.2162,-0.0317656,,2,3.0
O6Ba2EuW,0.0,-0.0269619,,2,3.0
OPdNd3,0.0,-0.0355143,,2,3.0
PdIn8Sm2,0.0,-0.0358933,,2,3.0
Al2ZnTm,0.0,-0.020612,,2,3.0
H2PdAu2,0.0,-0.0355741,,2,3.0
Al7Pr3Pt2,0.0,-0.0279132,,2,3.0
Ta2Ir3,0.0,-0.0699508,,2,3.0
Ti2Rh2Cd,0.0,-0.0266904,,2,3.0
BrSrBa2,0.0,-0.0310954,,2,3.0
Zr8Au,0.0,-0.0350944,,2,3.0
H5Ca2Cu,0.5366,-0.0069017,,2,3.0
F3MgRb,7.1284,-0.0107823,,2,3.0
Li2GeGd,0.0,-0.0211803,,2,3.0
Co2Se2Cs,0.0,-0.0229986,,2,3.0
Zn2Er2Hg,0.0,-0.0396636999999999,,2,3.0
O9Ni2Sr2Pr2Tl,0.0,-0.0206754,,2,3.0
Li2CaTl,0.0,-0.022077,,2,3.0
GaCdTb,0.0,-0.0318142,,2,3.0
LaPt2Au3,0.0,-0.0658299,,2,3.0
PCoTa4,0.0,-0.0494668,,2,3.0
O5Se2Gd2Hf2,1.0576,-0.0318883,,2,3.0
Mg3Dy,0.0,-0.0157493,,2,3.0
B2CSmPt2,0.0,-0.0357579,,2,3.0
GeI2Ho2,0.0,-0.0394249999999999,,2,3.0
Ge2RhHo,0.0,-0.0311416,,2,3.0
O2La,0.0,-0.0214363,,2,3.0
Li2Mg2Sn2Nd,0.0,-0.0191092,,2,3.0
CrRh2In,0.0,-0.0301566,,2,3.0
Co2CuNd2,0.0,-0.0273654,,2,3.0
SiHoPt,0.0,-0.0444624,,2,3.0
In2Tm3,0.0,-0.0449438,,2,3.0
NaCl6Cs2Nd,4.9386,-0.0195063,,2,3.0
S3MnSmTl,0.0,-0.0287610999999999,,2,3.0
O3AlEu,0.0,-0.0192816,,2,3.0
AlFeOs2,0.0,-0.0427436,,2,3.0
S6SnCs2Bi2,0.9779,-0.0303968999999999,,2,3.0
H3ClEu2,0.0,-0.022146,,2,3.0
Ti5Se4,0.0,-0.0189841,,2,3.0
DyPt2Au,0.0,-0.0653819,,2,3.0
OSc3Sn,0.0,-0.0186146999999999,,2,3.0
Ag2TlTh,0.0,-0.0578486,,2,3.0
H2O6P2Nb,0.0,-0.0109132,,2,3.0
MgEu3,0.0,-0.0415674,,2,3.0
TiCuSn2,0.0,-0.0259339,,2,3.0
LiF6CrRb2,2.0506,-0.0115187,,2,3.0
AlIr2Th2,0.0,-0.0694021,,2,3.0
Zn2Sn2Hg,0.0,-0.0332272,,2,3.0
O8P3Rb,5.139,-0.0108072999999999,,2,3.0
HILa,0.0,-0.0289683,,2,3.0
BMo,0.0,-0.0216398,,2,3.0
MgIn2Tl,0.0,-0.0360821,,2,3.0
As2CePb2,0.0,-0.0478501,,2,3.0
CuZrI,0.0,-0.0280959,,2,3.0
Al2RhTb6,0.0,-0.0370674,,2,3.0
O10Ti3CoLa2,0.0,-0.0166078,,2,3.0
O2SDy2,2.8837,-0.0270882,,2,3.0
Al2Re,0.0,-0.0292149,,2,3.0
F3NaNi,1.0475,-0.0087813,,2,3.0
Li2CO7SCo,0.1752,-0.0088712,,2,3.0
HSiFeNp,0.0,-0.034788,,2,3.0
CSnTh2,0.0,-0.0599199,,2,3.0
Y2IrPb,0.0,-0.0515168,,2,3.0
OClGa,2.7706,-0.0118809,,2,3.0
FePd5Te,0.0,-0.0315837,,2,3.0
Te2TlPa,0.0,-0.0622084,,2,3.0
In2CeTh,0.0,-0.0521736,,2,3.0
F7Rb3Np,0.2592,-0.0210133,,2,3.0
Ga2HfIr,0.0,-0.0424023,,2,3.0
SrPtHg,0.0,-0.0543074999999999,,2,3.0
AsSr2Cd,0.0,-0.0246412,,2,3.0
GeAu2,0.0,-0.0524797,,2,3.0
CaPdCd2,0.0,-0.0263673,,2,3.0
Al3Sc3Ge2Au,0.0,-0.0200716,,2,3.0
Eu4Au2O9,0.0,-2.308757797166669,mp-21787,2,3.0
NaCu2Sr2,0.0,-0.0158241,,2,3.0
O4S2Cu2Sb2La,0.0,-0.0189532,,2,3.0
ZnInTm2,0.0,-0.038144,,2,3.0
H2Zr2Rh,0.0,-0.0211411,,2,3.0
H6NaK2Co,1.2416,-0.0062137,,2,3.0
CaPd4Hg,0.0,-0.0352988,,2,3.0
YIn4Ir,0.0,-0.0392138,,2,3.0
O8P2CsTa,3.4468,-0.0173051,,2,3.0
H4O4P2Ba,4.9553,-0.0106704,,2,3.0
Zr2SnAu,0.0,-0.04228,,2,3.0
YAu5,0.0,-0.0628269,,2,3.0
Ga2LaIr,0.0,-0.0375808,,2,3.0
H6CNI,4.2092,-0.008882,,2,3.0
BCScCo,0.0,-0.0127631,,2,3.0
RuDy6Bi2,0.0,-0.0538441,,2,3.0
OF5KZrTl2,2.9841,-0.0236152,,2,3.0
PdSn4Au2,0.0,-0.0452057,,2,3.0
Zn3Ag2Pr,0.0,-0.024745,,2,3.0
ScAsTb,0.0,-0.0281782,,2,3.0
FeBrTb,0.0,-0.0290796,,2,3.0
Ge3Cd6La2,0.0,-0.0300686,,2,3.0
Rh3SnSm2,0.0,-0.0385501,,2,3.0
B2Al,0.0,-0.0076041999999999,,2,3.0
S3CuYBa,1.0003,-0.0205432999999999,,2,3.0
O6CrZn2W,0.0,-0.0172057,,2,3.0
O7La2Sm2,0.6661,-0.0231427,,2,3.0
K3RbTl,0.0,-0.0236375,,2,3.0
SiRu2In,0.0,-0.0286332999999999,,2,3.0
ScMnSe3Tl,0.0,-0.0287331,,2,3.0
Be4MgAu,0.0,-0.0155111,,2,3.0
TiGeOs2,0.0,-0.0452676,,2,3.0
Al2YAu,0.0,-0.0290215999999999,,2,3.0
Al2Ge4Y3,0.0,-0.0201506,,2,3.0
SbTeGd,0.0,-0.0456443,,2,3.0
O2RbPr,3.3049,-0.0219331,,2,3.0
Al3CoIn2Ho3,0.0,-0.0288124,,2,3.0
HoPt7,0.0,-0.0680655,,2,3.0
B2O7In2Eu,0.0,-0.0172145,,2,3.0
O6Ba2HfNp,0.0,-0.0320698,,2,3.0
SiCd2Pt3,0.0,-0.0474653,,2,3.0
N3O6CaCs,2.5718,-0.0113534,,2,3.0
SbNd,0.0,-0.0417463,,2,3.0
AlGeNd,0.0,-0.0242381999999999,,2,3.0
SiDyPt,0.0,-0.0440539,,2,3.0
Sc2CdAu2,0.0,-0.0403452,,2,3.0
ScBiTh,0.0,-0.0634364,,2,3.0
B2Sn5Ir6,0.0,-0.0480784999999999,,2,3.0
O7Cu2Ba2LaHg,0.0,-0.0222506999999999,,2,3.0
OCdSbSm,0.5199,-0.0313903,,2,3.0
ScPd2In,0.0,-0.0291965,,2,3.0
LiGePr2,0.0,-0.0274869999999999,,2,3.0
Zn2AgPr,0.0,-0.0257757,,2,3.0
Li3As2Tb,0.0,-0.0168277,,2,3.0
PCuPt,0.0,-0.0321577,,2,3.0
Al3GeSm2,0.0,-0.0224666,,2,3.0
GeRhCe,0.0,-0.0334536999999999,,2,3.0
As2SrRh2,0.0,-0.0269774999999999,,2,3.0
Sb2Tl2Bi,0.0,-0.0594747,,2,3.0
H4CsTl,2.8277,-0.0206338,,2,3.0
B3O6Gd,3.1159,-0.0148247999999999,,2,3.0
GaRh2Tm,0.0,-0.0349232,,2,3.0
CSc2I,0.0,-0.0196777,,2,3.0
ScHoIr2,0.0,-0.0524615,,2,3.0
Zn2LaTb,0.0,-0.0295951,,2,3.0
FeGe2,0.0,-0.0187776,,2,3.0
ZrTcW,0.0,-0.0453329,,2,3.0
Zr4Rh2In5,0.0,-0.0331134,,2,3.0
Si3NiPr2,0.0,-0.022986,,2,3.0
Co4NbIn,0.0,-0.0225912,,2,3.0
Al3Ge2Lu3Au,0.0,-0.0337762,,2,3.0
CrNb,0.0,-0.0256953,,2,3.0
O6CrBa2Np,0.0,-0.0272333999999999,,2,3.0
LiCl6Cs2Pr,4.7015,-0.0192856,,2,3.0
YSbLa,0.0,-0.0370187,,2,3.0
Cu2ZnGa,0.0,-0.0151574,,2,3.0
Li4O2F2Mn,1.487,-0.0076733,,2,3.0
N2MnRb,0.0,-0.0148318,,2,3.0
NiBi2,0.0,-0.0577813,,2,3.0
Zn2Ge2La,0.0,-0.0222008,,2,3.0
KScSe3Ag,0.0,-0.0202151,,2,3.0
LiBO3V,0.025,-0.0100738,,2,3.0
FeGePd,0.0,-0.0236158,,2,3.0
Mn2CuPd3In2,0.0,-0.0275719,,2,3.0
O3CaHf,4.01,-0.0218909999999999,,2,3.0
H6LiNa2Ga,0.5369,-0.00496,,2,3.0
Ca6NiBi2,0.0,-0.0262139,,2,3.0
Sc6RhSb2,0.0,-0.0223578,,2,3.0
SbPr,0.0,-0.0416239,,2,3.0
LiAg2Hg,0.0,-0.0335114,,2,3.0
Sn2Tb6Pt,0.0,-0.0477703,,2,3.0
SiVRh,0.0,-0.0211927999999999,,2,3.0
NaCl6K2Ti,0.0,-0.0104839,,2,3.0
Li2SiHg,0.0,-0.0210187999999999,,2,3.0
O3NiHo,0.0,-0.0193469,,2,3.0
Ge4Dy3Au4,0.0,-0.0459645,,2,3.0
H12Ca4Rh3,0.0,-0.0102339,,2,3.0
PRbRh,0.0,-0.0223594,,2,3.0
MgYTl2,0.0,-0.0448389,,2,3.0
MgFe2Tm2,0.0,-0.0289976999999999,,2,3.0
NaCoTe2,0.0,-0.024462,,2,3.0
Ag8Pt,0.0,-0.0356854999999999,,2,3.0
GaRh2Ba,0.0,-0.0313604,,2,3.0
TiGa5Rh,0.0,-0.0193043,,2,3.0
F6PtHg,1.7438,-0.021449,,2,3.0
As2EuPt2,0.0,-0.0478701,,2,3.0
SmLuTl2,0.0,-0.0616335,,2,3.0
Cl4CoBr2Cs2,0.0,-0.0194773,,2,3.0
S3KAs,0.8865,-0.0120355,,2,3.0
Cu8As,0.0,-0.0157473,,2,3.0
CdTlPu,0.0,-0.0709707,,2,3.0
Sr2Tl2Pb,0.0,-0.0535492,,2,3.0
InAu2Bi2,0.0,-0.0657393,,2,3.0
O4CuY2,0.0,-0.0166972999999999,,2,3.0
Nb2Au,0.0,-0.0453637,,2,3.0
Co3Er2,0.0,-0.0307203,,2,3.0
P2YTl,0.0,-0.030924,,2,3.0
Cu2CdSm2,0.0,-0.0302378999999999,,2,3.0
SbLa2Pb,0.0,-0.050898,,2,3.0
Sb2Lu6Os,0.0,-0.0539301,,2,3.0
AgCdSm2,0.0,-0.038036,,2,3.0
InTbAu2,0.0,-0.055479,,2,3.0
AgPtPb2,0.0,-0.0632813,,2,3.0
MgErTl2,0.0,-0.0503601,,2,3.0
GeIr,0.0,-0.0455073999999999,,2,3.0
O4YTa,3.9648,-0.0234623999999999,,2,3.0
Ru3Ir5,0.0,-0.0575523,,2,3.0
RuInTm,0.0,-0.0404957,,2,3.0
LiMgCl6K2,0.0,-0.0090202,,2,3.0
Al3Cu2U,0.0,-0.026358,,2,3.0
HS2Co,0.4211,-0.0103543,,2,3.0
CSiHo3,0.0,-0.0339702,,2,3.0
TiNi2In,0.0,-0.0208171,,2,3.0
S8Cr3Mn2Ga,0.0,-0.0142968,,2,3.0
AsTlPb,0.0,-0.0561328,,2,3.0
KScTe3Au,0.0,-0.0348553,,2,3.0
S8Mo6Tl,0.0,-0.0246288,,2,3.0
Ca2ZnSb2,0.0578,-0.0223446,,2,3.0
NiCuTa,0.0,-0.0327678,,2,3.0
BCaCo4,0.0,-0.0144087,,2,3.0
CsPtHg3,0.0,-0.062885,,2,3.0
Sc2GePd2,0.0,-0.023608,,2,3.0
Ga4PdLu,0.0,-0.0261933,,2,3.0
SCl2Cr2,0.0,-0.0135970999999999,,2,3.0
Br5Sb,1.6648,-0.0227776,,2,3.0
MgAsAu,0.0,-0.032004,,2,3.0
NO5CaBi,2.3273,-0.0173734,,2,3.0
LiIn2Ho,0.0,-0.0300577,,2,3.0
AgLa2Bi,0.0,-0.0496875,,2,3.0
Na5PCl2Se4,1.6202,-0.0118779,,2,3.0
SbBi3,0.0,-0.0682411,,2,3.0
F6AlNiRb,1.1002,-0.0105213,,2,3.0