formula,bg,formation_energy,mp-id,fidelity,bg_category
LiGaAg2,0.0,-0.0205904999999999,,2,3.0
Hf3Pt,0.0,-0.0652719,,2,3.0
BeCuPd2,0.0,-0.0216726,,2,3.0
ScCoY2,0.0,-0.0218889,,2,3.0
O10Ca2CsTa3,2.1053,-0.0230808,,2,3.0
Co2PdEr3,0.0,-0.0369329,,2,3.0
SrRh4La,0.0,-0.0339452,,2,3.0
O8P2RbSb,3.1728,-0.0129421,,2,3.0
CoZrBi,1.0003,-0.042694,,2,3.0
H10O8S,5.7361,-0.0061079,,2,3.0
AlS4SrAg2,0.0,-0.0174783,,2,3.0
Li3P2La,0.5361,-0.0129933,,2,3.0
Ca2Se2Au,0.0,-0.0270995999999999,,2,3.0
Al8Ag,0.0,-0.0103817,,2,3.0
AlZr2Bi3,0.0,-0.051192,,2,3.0
Cl8SrNd2,3.903,-0.0183359999999999,,2,3.0
SnPt2Pa2,0.0,-0.0761321,,2,3.0
Zn2Pr,0.0,-0.0238933,,2,3.0
Al3CoGe2Lu3,0.0,-0.0279759999999999,,2,3.0
AsPrNd,0.0,-0.0367546,,2,3.0
O6Nb2Sn,1.5522,-0.0179661,,2,3.0
NFe,0.0,-0.0138545,,2,3.0
NiInLu,0.0,-0.0355471,,2,3.0
LiZnPb,0.0,-0.0307757,,2,3.0
O6AlSbBa2,1.3854,-0.0188438,,2,3.0
Ga2SrAg3,0.0,-0.0251046,,2,3.0
TeLa2Pt2,0.0,-0.0541833,,2,3.0
TiCo4Ge6,0.0,-0.0183817999999999,,2,3.0
RuDy6Tl2,0.0,-0.0522717,,2,3.0
LiS2Rh,0.7943,-0.014837,,2,3.0
PmPb2Th,0.0,-0.073415,,2,3.0
O4MnSr3,0.9371,-0.0163805,,2,3.0
NaK3Au,0.0,-0.0198134,,2,3.0
HCo3Ga,0.0,-0.0143682999999999,,2,3.0
CoSn2Ho6,0.0,-0.0430409,,2,3.0
N2LaHo,0.0822,-0.0294228,,2,3.0
Li4YHg,0.0,-0.0177859,,2,3.0
K2ZnGeTe4,0.2032,-0.0254507,,2,3.0
O6Ca2SmW,0.0,-0.0200884,,2,3.0
Co4Ge4Nd3,0.0,-0.0256874,,2,3.0
LiS2Lu,1.875,-0.0213558999999999,,2,3.0
SbSmHo,0.0,-0.0444722,,2,3.0
AsRbAu2,0.3464,-0.0452577,,2,3.0
ClSeBi,1.2677,-0.0361813,,2,3.0
In2LuPt,0.0,-0.0489594999999999,,2,3.0
Cl4NiTl2,0.4712,-0.0284746,,2,3.0
MgYPd,0.0,-0.0226659,,2,3.0
Ti3Ru2Hg,0.0,-0.0316144,,2,3.0
Cl2AsSm2,0.0,-0.0271252,,2,3.0
Mg2YHg,0.0,-0.0269131,,2,3.0
ClCoTe,0.3864,-0.02132,,2,3.0
O5PCo2,0.0,-0.0113058,,2,3.0
Al3PdOs2,0.0,-0.0340965,,2,3.0
RbPb2Bi2,0.0,-0.0660886,,2,3.0
F6BaEr,0.0,-0.0174884999999999,,2,3.0
B2CNp,0.0,-0.0332089,,2,3.0
PdDy3Ir2,0.0,-0.0540778,,2,3.0
ClBrAu2,0.0582,-0.0416203,,2,3.0
LiP2NdPt2,0.0,-0.0356772,,2,3.0
Ge2Y3RuSn3,0.0,-0.0300904,,2,3.0
CoGe2In3Lu3,0.0,-0.036325,,2,3.0
F2La2Bi,0.0,-0.0372052,,2,3.0
Mg2PdHo,0.0,-0.0235317,,2,3.0
H4Ti2Ir,0.0,-0.0172374,,2,3.0
ZnAs2Pb,0.0,-0.0324977,,2,3.0
NiGa2U,0.0,-0.0383117,,2,3.0
O6InTeTm,2.5447,-0.0199167,,2,3.0
Cu4Hf,0.0,-0.0248221,,2,3.0
H3CuTm,0.0,-0.0159897,,2,3.0
Sn2PrPm,0.0,-0.0405694999999999,,2,3.0
O2SSb2,0.1315,-0.0202311,,2,3.0
O8NaYPd6,0.0,-0.0187279,,2,3.0
Li3HoBi2,0.0,-0.0362694,,2,3.0
GeCdCs2,0.1031,-0.0314832,,2,3.0
O6TiPdBa2,0.5535,-0.0190281,,2,3.0
Pr6IrBi2,0.0,-0.0549962,,2,3.0
ZnSb2Eu2,0.0,-0.0399107,,2,3.0
Si2AgEr,0.0,-0.0258721999999999,,2,3.0
Co2Sn7Ho3,0.0,-0.0365127,,2,3.0
AlY2Tc2,0.0,-0.0269478,,2,3.0
SiSc2Ni,0.0,-0.0143679,,2,3.0
SnNdPt2,0.0,-0.0560364999999999,,2,3.0
As2Pd2Pu,0.0,-0.0438168,,2,3.0
NiSe2Nd6,0.0,-0.0362079,,2,3.0
ScPt3,0.0,-0.0574026,,2,3.0
S3MnNbTl,0.0,-0.0263489,,2,3.0
O6TeBa2Tb,0.0,-0.0227185,,2,3.0
PTiPa,0.0,-0.0429569,,2,3.0
SBrAgHg,1.193,-0.0324712,,2,3.0
NiBrTm,0.0,-0.0303564,,2,3.0
Ni3Dy4Bi8,0.0,-0.0584294,,2,3.0
Co2ReIr,0.0,-0.0442156,,2,3.0
SrPd2Ag3,0.0,-0.0306557,,2,3.0
Ti3Ge,0.0,-0.0172498,,2,3.0
Mg2RhSm,0.0,-0.0225887,,2,3.0
CaAg2Tl,0.0,-0.0364114,,2,3.0
N2MnFe,0.0,-0.0140409,,2,3.0
SAsNd,0.096,-0.0262607,,2,3.0
LiF6Na2Ga,5.9008,-0.007796,,2,3.0
Ga5HoOs,0.0,-0.0294476,,2,3.0
CaZnY2,0.0,-0.0198792,,2,3.0
Si3AgBa,0.0,-0.020367,,2,3.0
Mg3Ca4,0.0,-0.0076883,,2,3.0
BrSr2Au,0.0,-0.0346547,,2,3.0
LiTbTl2,0.0,-0.0489576,,2,3.0
Pd2NdPb2,0.0,-0.0526993,,2,3.0
Si4Co4Tb3,0.0,-0.0233546,,2,3.0
SNiBi,0.0,-0.0350328,,2,3.0
Li4O8CrFe3,0.0,-0.0103139,,2,3.0
Mn2SnTh2,0.0,-0.0530212,,2,3.0
Ti3Cu5,0.0,-0.0156619,,2,3.0
KScBr6Cs2,3.2742,-0.0234996,,2,3.0
BePCo2,0.0,-0.0127724,,2,3.0
Sc6IrPb2,0.0,-0.0349675,,2,3.0
CrSe6Nb3,0.0,-0.0246952,,2,3.0
Cl6K2Cu,0.0,-0.0100089,,2,3.0
HI2Ce,0.0,-0.0316823,,2,3.0
O4SeBi2Np,0.0,-0.0404734,,2,3.0
Si2SrPd,0.0,-0.0194233,,2,3.0
KAs2La2,0.0,-0.0280271,,2,3.0
Si3TiTb,0.0,-0.0191733,,2,3.0
O2Pb,0.0942,-0.0302776999999999,,2,3.0
Al2YTm,0.0,-0.0242178,,2,3.0
Rh2OsAu,0.0,-0.0520915,,2,3.0
LiI2Pb,0.0,-0.0384789,,2,3.0
Cd4Tl,0.0,-0.0387333,,2,3.0
Ca2CdIn,0.0,-0.0213249,,2,3.0
VGeZr,0.0,-0.0232003,,2,3.0
Se2CdHg,0.0003,-0.0351282,,2,3.0
Tc2HoPa,0.0,-0.0549034,,2,3.0
F6NiLa,0.2382,-0.0132524999999999,,2,3.0
Ge2Pd3,0.0,-0.0278243,,2,3.0
CdSnNd2,0.0,-0.0390167,,2,3.0
AlCo2Dy,0.0,-0.0228506,,2,3.0
MnCoAs,0.0,-0.0189268,,2,3.0
Al3MnLa,0.0,-0.0172948,,2,3.0
Cr2CoTe4,0.0,-0.0293841,,2,3.0
MnZn4Zr,0.0,-0.0174139,,2,3.0
Ti2NbPb,0.0,-0.0354156,,2,3.0
O6RhBa2Gd,0.0,-0.0234376,,2,3.0
P2Fe2Sm,0.0,-0.0212409,,2,3.0
O2NiAg,0.0,-0.0158882999999999,,2,3.0
Ag2Au2Bi,0.0,-0.0559157,,2,3.0
Si2CePt2,0.0,-0.0422805,,2,3.0
Ru3Pd3Ta2,0.0,-0.0423423999999999,,2,3.0
H3O10NaNi2Mo2,0.4994,-0.0116988,,2,3.0
GaTmPt,0.0,-0.0474701,,2,3.0
Fe2ZrHf,0.0,-0.0326257999999999,,2,3.0
O8S2KFe,0.9926,-0.0097245,,2,3.0
GeSe4BaAu2,0.1329,-0.0354345,,2,3.0
SiZr2Ir3,0.0,-0.0485867,,2,3.0
OSCuTm,1.4463,-0.0229990999999999,,2,3.0
S8CuZr4,0.0,-0.0181864,,2,3.0
In3BaIr,0.0,-0.0426019,,2,3.0
Al4Ti2Y,0.0,-0.0134576,,2,3.0
ZrRhAu2,0.0,-0.0514291,,2,3.0
N2Ga3Lu7,0.0,-0.0389699,,2,3.0
ClY2Tc,0.0,-0.0255562,,2,3.0
O4SiCr2,0.2211,-0.0125978,,2,3.0
Pd2In3Sm,0.0,-0.0356535,,2,3.0
LuHg2Pb,0.0,-0.0671363,,2,3.0
LiBOs,0.0,-0.0274135,,2,3.0
Se2GdTl,0.3227,-0.044343,,2,3.0
ZnAgTh,0.0,-0.0471443999999999,,2,3.0
Zn2TmPt,0.0,-0.0381218,,2,3.0
Co2NiZn,0.0,-0.0161012,,2,3.0
FeZrRh2,0.0,-0.0297124,,2,3.0
Ti2Cu2Zn,0.0,-0.0153512,,2,3.0
CaRu2Sn2,0.0,-0.0304691,,2,3.0
OClIn,2.4912,-0.017438,,2,3.0
InHg2,0.0,-0.0565496,,2,3.0
CuSe2Nd,0.4887,-0.0260932,,2,3.0
Ge2In3Er3Os,0.0,-0.0407823,,2,3.0
GeSe3Au,0.0,-0.0298418999999999,,2,3.0
F4Pb,1.9595,-0.0198665,,2,3.0
Ni3Ge2Sr,0.0,-0.0185838,,2,3.0
Si2ScNi2,0.0,-0.0141565999999999,,2,3.0
P2Fe2Pa,0.0,-0.0321734999999999,,2,3.0
Cu3Ag,0.0,-0.0191558,,2,3.0
Fe4YCe,0.0,-0.0241393,,2,3.0
SeIn2Au,0.0,-0.0393819,,2,3.0
SnTe2Bi,0.0,-0.0473308,,2,3.0
O6GeRbI,2.6437,-0.0138278,,2,3.0
PCoLu2,0.0,-0.0354844,,2,3.0
Co4SnSb12,0.0,-0.0325671,,2,3.0
KAgI3,0.0,-0.0306746,,2,3.0
O6RhBa2Np,0.0,-0.0284362,,2,3.0
ZnHf2Ir,0.0,-0.0531709999999999,,2,3.0
Pd2SnTh2,0.0,-0.0595804,,2,3.0
B2CErIr2,0.0,-0.0369137,,2,3.0
Cu3Sr,0.0,-0.0170427,,2,3.0
ScBr3Rb,0.0,-0.0205062999999999,,2,3.0
Ag2InBa,0.0,-0.0342304,,2,3.0
ZnAg2Ac,0.0,-0.0417721999999999,,2,3.0
O2SeGd2,1.3244,-0.033347,,2,3.0
Se3Pd2Sn,0.0,-0.0273115,,2,3.0
OIGd,2.2674,-0.0368343,,2,3.0
AlLu3,0.0,-0.0436755,,2,3.0
Si5Co3Dy2,0.0,-0.020491,,2,3.0
Al3RhIn2Lu3,0.0,-0.0329621,,2,3.0
OCl10K4Re2,0.0,-0.0169011,,2,3.0
AsBr3Hg3,0.2377,-0.0407708,,2,3.0
O6AlSr2Zr,0.0,-0.0152894,,2,3.0
O2F2Pu,0.0,-0.0288633999999999,,2,3.0
CaZn2Th,0.0,-0.0333546,,2,3.0
Al5ErAu,0.0,-0.0230666,,2,3.0
As2Y6Ir,0.0,-0.0319372,,2,3.0
In2LaEr,0.0,-0.0406769,,2,3.0
Mg2InPt,0.0,-0.0290969,,2,3.0
CoGe,0.0,-0.0183686,,2,3.0
F8Na2CaEu,0.0,-0.0116323,,2,3.0
Ge2In3Sm3Pt,0.0,-0.0388772,,2,3.0
AgCdPb2,0.0,-0.0533102,,2,3.0
O8RbMo2Hf,0.0,-0.0194473999999999,,2,3.0
Ge2IrNp,0.0,-0.0545456999999999,,2,3.0
VCo2Ge,0.0,-0.0181141,,2,3.0
Rb2In3,0.0711,-0.028616,,2,3.0
O9Nb5Ba2,0.0,-0.0215263999999999,,2,3.0
GaCs2Au,0.0,-0.0405246,,2,3.0
F4RhTl,0.7172,-0.0219194999999999,,2,3.0
Co3Zn2Pr,0.0,-0.020497,,2,3.0
LiCu2As2Ba,0.0,-0.0194334,,2,3.0
FeNi2Nd,0.0,-0.0237312,,2,3.0
LiC2O6Co,0.1615,-0.0092096,,2,3.0
CuSe3HfTl,0.3895,-0.0360153,,2,3.0
H12O6F6CdSn2,4.133,-0.0089784,,2,3.0
BeF3Rb,6.7542,-0.0104812,,2,3.0
O6SnSbBa2,0.0,-0.0212522,,2,3.0
F6PTl,5.9873,-0.0156355,,2,3.0
Al7CeAu3,0.0,-0.0285543,,2,3.0
H4TiV,0.0,-0.00828,,2,3.0
O3CoBa,0.0,-0.0171887,,2,3.0
CuTb2Pt,0.0,-0.0456687999999999,,2,3.0
WOsIr2,0.0,-0.0712307,,2,3.0
B2N3Er3Ir2,0.0,-0.0350771,,2,3.0
Cu2Ge2Pr,0.0,-0.0230146,,2,3.0
AsEuAu,0.0,-0.0487958,,2,3.0
TiSe4Hf,0.0,-0.0278442,,2,3.0
RhSnHo,0.0,-0.0405891,,2,3.0
F3NaV,0.0,-0.0093719,,2,3.0
Al3NiSn2Ho3,0.0,-0.0293992,,2,3.0
KCa2Cd,0.0,-0.0146626999999999,,2,3.0
F6AlZn,0.0,-0.0080702999999999,,2,3.0
Al4PrGd,0.0,-0.0227264,,2,3.0
PdNd2Ir,0.0,-0.0485779,,2,3.0
SiTiTb,0.0,-0.0249568,,2,3.0
LiCoDy2,0.0,-0.0288695,,2,3.0
CaY2Au2,0.0,-0.0416662,,2,3.0
Al2CrCo,0.0,-0.0132249999999999,,2,3.0
H4NO4Re,4.0853,-0.0130458,,2,3.0
NaP2ScNi2,0.0,-0.0127535,,2,3.0
Ga7AgBa2,0.0,-0.0229569,,2,3.0
Ta2PtAu,0.0,-0.0686077,,2,3.0
Fe3Hf2Pt,0.0,-0.0421969,,2,3.0
CaI4Nd,0.0,-0.0349179,,2,3.0
Si2Co3Ho,0.0,-0.0207948999999999,,2,3.0
VGeRu2,0.0,-0.0270512,,2,3.0
O6FeNiBa2,0.0,-0.0170522,,2,3.0
CSi2Fe2Er2,0.0,-0.024536,,2,3.0
LiCl6K2Nd,4.7721,-0.0133248999999999,,2,3.0
CSi2Ca2Ir2,0.0,-0.0281034,,2,3.0
B3C2Ca2,0.0,-0.009166,,2,3.0
Fe2Ni2Pd,0.0,-0.0203689999999999,,2,3.0
CaBr6SnCs2,2.9991,-0.0255275,,2,3.0
CrAsTc2,0.0,-0.0273624,,2,3.0
F6K2AsTl,2.4344,-0.0153772,,2,3.0
O5S2K2,3.3056,-0.0092217,,2,3.0
CuZnIr,0.0,-0.0333219,,2,3.0
YPd2Tl,0.0,-0.0421724,,2,3.0
TiTc2Ta,0.0,-0.038819,,2,3.0
Rh2SnDy2,0.0,-0.040786,,2,3.0
CSrRh3,0.0,-0.0268266,,2,3.0
H4MgRh3,0.0,-0.0152223,,2,3.0
Br6AgInCs2,0.0001,-0.0270189,,2,3.0
Co2SnLa2,0.0,-0.0316656,,2,3.0
Zn2In,0.0,-0.0200248999999999,,2,3.0
S4Cu3Nb,1.6334,-0.015329,,2,3.0
Si6Ti2Cr,0.0,-0.0126895,,2,3.0
RuIn3Dy2,0.0,-0.0389316,,2,3.0
BAl2SrRu2,0.0,-0.0197267,,2,3.0
BaAuPb3,0.0,-0.0677374999999999,,2,3.0
Li2O8V3W,0.0,-0.0150695999999999,,2,3.0
AsAgBa2,0.1219,-0.0334715,,2,3.0
CuIr2,0.0,-0.0524091999999999,,2,3.0
Hf2ReAu,0.0,-0.0669665,,2,3.0
AlAg2Hg,0.0,-0.0346794,,2,3.0
Al2FeHf,0.0,-0.0244469,,2,3.0
HCaPd3,0.0,-0.0228415,,2,3.0
F6CaSc,0.0,-0.0091338,,2,3.0
Pd2ErBi,0.0,-0.0494136,,2,3.0
Zn2Sn2Eu,0.0,-0.0309218,,2,3.0
O6FNaSrNb2,1.8111,-0.0151379,,2,3.0
Li2F8CaTm,0.0,-0.0114171999999999,,2,3.0
B2LaIr3,0.0,-0.0459746,,2,3.0
VAs2,0.0,-0.0197495,,2,3.0
ScY2Ir2,0.0,-0.0433439,,2,3.0
ZnInDy2,0.0,-0.0361406,,2,3.0
SPd5Tl,0.0,-0.0353599,,2,3.0
CGe2Ru2Er2,0.0,-0.032008,,2,3.0
OF5RbNbCs2,0.9399,-0.0183388,,2,3.0
O6MgRhEu2,0.0,-0.0207954,,2,3.0
Sc4SnTe3,0.0,-0.0266993,,2,3.0
MgRu2La2,0.0,-0.0323868,,2,3.0
Ag2BaLa,0.0,-0.0365728,,2,3.0
LiF3Mn,1.5666,-0.009203,,2,3.0
O6TiBa2Dy,0.0,-0.02126,,2,3.0
Ga3PdLu2,0.0,-0.0328688,,2,3.0
O4ISmBi2,1.3037,-0.0348743,,2,3.0
Li3O6Cr2Mn,0.0079,-0.0107093,,2,3.0
NaCuGe,0.0,-0.0129087,,2,3.0
Ti2Zn2Au,0.0,-0.0260125,,2,3.0
ZnTmTl,0.0,-0.0463221,,2,3.0
O4FPMn,0.3181,-0.0105002,,2,3.0
Rh2DyPu,0.0,-0.0569514,,2,3.0
ZnPt2Hg,0.0,-0.0557902,,2,3.0
BCNiNp,0.0,-0.0348871,,2,3.0
Ni2RuEr3,0.0,-0.0368757,,2,3.0
O4MoPb,2.5777,-0.0245475,,2,3.0
Ge2Zr2Ru,0.0,-0.0277668,,2,3.0
Al3Pm,0.0,-0.0172855999999999,,2,3.0
Si2LuPt,0.0,-0.0374519,,2,3.0
SiAgEr,0.0,-0.0312068,,2,3.0
MgCd2Th,0.0,-0.0406074,,2,3.0
In4Bi,0.0,-0.0423173,,2,3.0
SiAgPr2,0.0,-0.0324498,,2,3.0
BCr2,0.0,-0.0150961,,2,3.0
Pd2Sb2Tl,0.0,-0.0427603,,2,3.0
ScIn4,0.0,-0.029771,,2,3.0
Np2Se3,0.0,-1.45855285665625,mp-684922,2,3.0
Mg2S8V3Mn,0.0,-0.012502,,2,3.0
H5Lu2Os,0.0,-0.0255519,,2,3.0
PKPb,0.5611,-0.0318642,,2,3.0
S5V3,0.0,-0.0136319,,2,3.0
B6Ni2Pu,0.0,-0.0211052,,2,3.0
Si2CuGa3Lu3,0.0,-0.0284603,,2,3.0
B2Rh3Ho,0.0,-0.0283678999999999,,2,3.0
TcTeBa3,0.0,-0.0383957,,2,3.0
Cu2Zn2Cd,0.0,-0.0175786,,2,3.0
PCa2Rh,0.0,-0.0167998,,2,3.0
CoIn4Lu,0.0,-0.0345681,,2,3.0
O6Rb2TeHf,2.1091,-0.0201032,,2,3.0
Cl6Rb2Pd,1.2121,-0.0149322999999999,,2,3.0
InHo3,0.0,-0.0454641999999999,,2,3.0
Sc2CuIr,0.0,-0.0295466,,2,3.0
Fe2Ni4Er3,0.0,-0.0283393,,2,3.0
N3GaBa3,0.3181,-0.0239331,,2,3.0
CuI2Au,0.2343,-0.0394443,,2,3.0
CuCdPr,0.0,-0.0299607,,2,3.0
Sc2Ga2Pd,0.0,-0.0196519,,2,3.0
Ga4Pt2Au,0.0,-0.039884,,2,3.0
F6CaRu,0.0,-0.0109777,,2,3.0
CSTm2,0.0,-0.0323888,,2,3.0
ScYMo4,0.0,-0.030203,,2,3.0
SiMoTb,0.0,-0.0310701,,2,3.0
SRbCs,1.9994,-0.0238968,,2,3.0
CoBrDy,0.0,-0.0292413999999999,,2,3.0
SiV3,0.0,-0.0160991,,2,3.0
Pd3Er,0.0,-0.0381423,,2,3.0
O6MgMnNd2,1.6547,-0.0180006999999999,,2,3.0
LiZnGa4,0.0,-0.0136528,,2,3.0
PRbBa,1.0958,-0.024402,,2,3.0
CaNi2Ir3,0.0,-0.0428049,,2,3.0
PNiPa,0.0,-0.043174,,2,3.0
O3SeEu,0.0,-0.0205213,,2,3.0
Si2NiEu,0.0,-0.0231468999999999,,2,3.0
Na2S4CuSn,0.0,-0.0130143,,2,3.0
O4TiSr2,1.9469,-0.0155763,,2,3.0
F6ScHg,0.0,-0.0155252999999999,,2,3.0
NiMo2,0.0,-0.0285701,,2,3.0
Co2CdTb3,0.0,-0.0344994,,2,3.0
NSPr6Pb2,0.0,-0.0441397,,2,3.0
Li2CaBa,0.0,-0.0134755,,2,3.0
AlLa5,0.0,-0.0373444,,2,3.0
Li2CaHg,0.0,-0.0210178,,2,3.0
CaGa2Lu,0.0,-0.0249635,,2,3.0
CSi2Fe2Dy2,0.0,-0.0237961,,2,3.0
Ga2TbAu,0.0,-0.0379887999999999,,2,3.0
Co2Pd,0.0,-0.0224057,,2,3.0
AlPt2Th2,0.0,-0.0692298,,2,3.0
MgGe2Sm2,0.0,-0.0272648,,2,3.0
F6NiCe,0.6039,-0.0135378,,2,3.0
Pt7Bi,0.0,-0.0711423,,2,3.0
SiCo3Ta2,0.0,-0.0329234999999999,,2,3.0
CaCu,0.0,-0.0125706,,2,3.0
O6NaCoI,0.0,-0.0115512,,2,3.0
BeAs2Pb,0.0,-0.0302216999999999,,2,3.0
Si2MnU,0.0,-0.0357409,,2,3.0
TiGaAu,0.0,-0.0344565,,2,3.0
GaHg2Tl,0.0,-0.0561334,,2,3.0
S4YTe,0.0,-0.0180629,,2,3.0
Se4Rh2Pd,0.0,-0.026231,,2,3.0
Sn4Os,0.0,-0.0429946,,2,3.0
F6AsRb2Cs,3.6173,-0.0146249,,2,3.0
Sn7Tb3,0.0,-0.0397917,,2,3.0
AsAgCs2,0.9384,-0.032262,,2,3.0
Ga2RhIn,0.0,-0.0253927,,2,3.0
N2MnBa,0.0,-0.019929,,2,3.0
Tc2SnU,0.0,-0.0524159,,2,3.0
Al7Ag2Ho3,0.0,-0.0225012,,2,3.0
BrInPr,0.0,-0.0333592999999999,,2,3.0
Co2Tm4Tl5,0.0,-0.0552355,,2,3.0
CuTe2Tb,0.0,-0.0350914,,2,3.0
S2Mo3Te4,0.0,-0.0307517,,2,3.0
MgCdGd2,0.0,-0.0385127,,2,3.0
ZrIr7,0.0,-0.0664642999999999,,2,3.0
Al2Ta3,0.0,-0.0432692,,2,3.0
F5Na2Sb,4.45,-0.0105840999999999,,2,3.0
HCaSr3,0.0,-0.0161021,,2,3.0
B2Ru3Tb,0.0,-0.0282244,,2,3.0
Zn2Sm2Hg,0.0,-0.0372783999999999,,2,3.0
H2CLu2,0.0,-0.0262755,,2,3.0
LiInAc2,0.0,-0.0545018,,2,3.0
Ca2PbBi,0.0,-0.0441709,,2,3.0
Be4FeZn,0.0,-0.008263,,2,3.0
Nd13(B2O13)2,0.0,-3.58974048870155,mp-1203797,2,3.0
PrIr2Pu,0.0,-0.0744561,,2,3.0
CGe2Ru2Tm2,0.0,-0.0324255,,2,3.0
B2GeTa5,0.0,-0.0464773,,2,3.0
Ga3RhSn2Tm3,0.0,-0.0352646999999999,,2,3.0
F6CuCs2,0.0,-0.0146334,,2,3.0
Li2InBa,0.0,-0.0197409,,2,3.0
RhPd3,0.0,-0.0329601,,2,3.0
OZnSbGd,0.1141,-0.03075,,2,3.0
B2Fe2Nd,0.0,-0.0192695,,2,3.0
O4ScSrSm,3.7205,-0.0186794,,2,3.0
Tb3Pb2,0.0,-0.0590754999999999,,2,3.0
O8S2VTl,0.0,-0.0150025,,2,3.0
AlMn2Os,0.0,-0.0293832999999999,,2,3.0
GeSr2Pt3,0.0,-0.0466445999999999,,2,3.0
Sc3Rh2Tl3,0.0,-0.0415728999999999,,2,3.0
OsIrPt,0.0,-0.0710263,,2,3.0
Li2GeLu,0.0,-0.0202618,,2,3.0
GaSb3Pu2,0.0,-0.058359,,2,3.0
Fe2IPr2,0.0,-0.0323618,,2,3.0
MgYLa,0.0,-0.0253767,,2,3.0
GeLa,0.0,-0.0320277,,2,3.0
CuEr2Au,0.0,-0.0469965,,2,3.0
O6MgCoY2,0.0,-0.0144489,,2,3.0
Zn2PtAu,0.0,-0.0420295,,2,3.0
Mg2PI,0.8235,-0.0151335999999999,,2,3.0
F6RhAg,0.0,-0.0123301,,2,3.0
O2InTl,0.6933,-0.0308535,,2,3.0
Ni4YRh,0.0,-0.0212968,,2,3.0
Cu2YHo,0.0,-0.0271161,,2,3.0
Zn3Ag2Ho,0.0,-0.025664,,2,3.0
InEr2Hg,0.0,-0.0511953,,2,3.0
Mg2S8Ti3Ga,0.0,-0.0122075,,2,3.0
O6NaTi2As,2.2787,-0.011988,,2,3.0
B2N3Fe2U3,0.0,-0.0398389,,2,3.0
Al6PrAu,0.0,-0.0203361,,2,3.0
S8AgNd5,1.4181,-0.0254155,,2,3.0
Ga2PdCd,0.0,-0.0242894,,2,3.0
O3KPd,0.0,-0.0127532999999999,,2,3.0
Ti2PdPt2,0.0,-0.0420203,,2,3.0
Si2Ru3Ho,0.0,-0.0296528,,2,3.0
Fe2CoTb,0.0,-0.0250865,,2,3.0
Co2In3Ho2,0.0,-0.0335322,,2,3.0
NaAg2Bi,0.0,-0.0364728,,2,3.0
F4KAs,4.4151,-0.0096279,,2,3.0
Ga3Hf2Ir,0.0,-0.0416275,,2,3.0
B6Co2Sm,0.0,-0.0141925,,2,3.0
NaAgTl,0.0,-0.0360718,,2,3.0
NOSn2Tm6,0.0,-0.0412515,,2,3.0
GeAsSr,0.0,-0.0212248,,2,3.0
MgCo2Nd2,0.0,-0.0253276,,2,3.0
MnZn2U,0.0,-0.0372845,,2,3.0
N2SNp2,0.0,-0.0499153,,2,3.0
TbOs2U,0.0,-0.073753,,2,3.0
Cl2AsY2,0.0,-0.020499,,2,3.0
MnNi5,0.0,-0.0166902,,2,3.0
Al2SmTm,0.0,-0.0283433999999999,,2,3.0
CrFeAs,0.0,-0.0191096,,2,3.0
P2CoPr6,0.0,-0.0337659,,2,3.0
P2S6Ge,0.9043,-0.011104,,2,3.0
Be2TiMo2,0.0,-0.0191106,,2,3.0
Co2In3Ce3,0.0,-0.033849,,2,3.0
SrYAg,0.0,-0.0273344999999999,,2,3.0
NOPr6Pb2,0.0,-0.0440546,,2,3.0
N3PrIr,0.0,-0.0289369,,2,3.0
F6Ga2Np,0.0,-0.0206299,,2,3.0
LiO7ScAs2,3.597,-0.0112804,,2,3.0
OIBi,1.5325,-0.0414125,,2,3.0
GaRbTe2,0.7045,-0.0286737,,2,3.0
C2ErW,0.0,-0.03543,,2,3.0
O3PdBa2,0.0,-0.0239458,,2,3.0
Sn2BaHg2,0.0,-0.0500531,,2,3.0
GeSePt,0.6069,-0.0371266,,2,3.0
Ga5NdPt2,0.0,-0.0340228,,2,3.0
GaSr2Pd2,0.0,-0.0260352,,2,3.0
Ni2Tm2Pb,0.0,-0.0429741,,2,3.0
Y2Rh2Hg,0.0,-0.0390912,,2,3.0
AsPdGd,0.0,-0.0385328,,2,3.0
LiSc2Tl,0.0,-0.0261408,,2,3.0
Ni5GeSn,0.0,-0.0195779,,2,3.0
Li2Cl4Zn,4.1963,-0.0088785,,2,3.0
Li5N3Ir3,0.0,-0.0232895,,2,3.0
FeTm2Os2,0.0,-0.0534974,,2,3.0
TcIr,0.0,-0.0534692,,2,3.0
BRuPt,0.0,-0.037694,,2,3.0
O4K3Os,0.0,-0.016702,,2,3.0
Mg2AsI,0.4724,-0.0175372,,2,3.0
CuTaAu2,0.0,-0.0551594,,2,3.0
H12O14CoBr2,0.0,-0.0070019999999999,,2,3.0
RhAu2Np,0.0,-0.069879,,2,3.0
O6ZnWPb2,2.6193,-0.0289081,,2,3.0
NFIn2Dy6,0.0,-0.0378992,,2,3.0
Sc2Ni2In,0.0,-0.0194377,,2,3.0
ZnCd2Er,0.0,-0.0315152,,2,3.0
Ni2As2Pa,0.0,-0.0351065,,2,3.0
CSc2Bi,0.0,-0.0300589,,2,3.0
CITh,0.0,-0.0484953,,2,3.0
As2Ba2Pb,0.0,-0.0400011,,2,3.0
In2Au2Hg,0.0,-0.0547592,,2,3.0
NiSbPt5,0.0,-0.0579853,,2,3.0
MnFe2Y2,0.0,-0.0219235,,2,3.0
ScCuGa5,0.0,-0.0162425,,2,3.0
HO4SiRbBa,3.9715,-0.0148920999999999,,2,3.0
O8P2SrDy,0.0,-0.0146636,,2,3.0
Al9Co2La,0.0,-0.0127384,,2,3.0
S3KCr2,0.0,-0.013221,,2,3.0
RuIr,0.0,-0.0530372,,2,3.0
TiCu4Zn,0.0,-0.0151491,,2,3.0
MgVRu2,0.0,-0.0233236,,2,3.0
Rh2InTl,0.0,-0.0434677,,2,3.0
O8As2BaPu,0.1509,-0.0222083,,2,3.0
SnAuHg,0.0,-0.0578202,,2,3.0
ZrCd2Tl,0.0,-0.0411717,,2,3.0
Ga2Cd2In,0.0,-0.0252771,,2,3.0
C4N4S4ZnHg,2.6113,-0.014022,,2,3.0
MgCd2Bi,0.0,-0.0360996,,2,3.0
In2SmTh,0.0,-0.0522047999999999,,2,3.0
Y2PdPt,0.0,-0.0408952999999999,,2,3.0
P2Mn4Sr,0.0,-0.0172264,,2,3.0
GeNd2Hg,0.0,-0.044306,,2,3.0
SmTmBi,0.0,-0.0590107,,2,3.0
Ga2Rh3Ba,0.0,-0.0295812,,2,3.0
Sc2ZrTc,0.0,-0.0237711,,2,3.0
S3CuTmTl,0.0,-0.029184,,2,3.0
NCl2Pr2,0.0,-0.0244636999999999,,2,3.0
H6LiO7Mn,1.9001,-0.0069266,,2,3.0
AlSnAc2,0.0,-0.0566019,,2,3.0
V6CoIr,0.0,-0.0245909,,2,3.0
CaSnLa,0.0,-0.03026,,2,3.0
OTiBr4Pb,1.5097,-0.0266315,,2,3.0
O8KFeMo2,0.0,-0.0141905,,2,3.0
CoBr2,0.0,-0.0193061,,2,3.0
As4Rh6Er,0.0,-0.0311729,,2,3.0
Zn3Pt2U,0.0,-0.0478836999999999,,2,3.0
Ca2Cd2Ba,0.0,-0.0242246,,2,3.0
Ga5RhNp,0.0,-0.0322024,,2,3.0
O6TiICs,1.8345,-0.0158927,,2,3.0
Fe4RbSb2,0.0,-0.0241212,,2,3.0
Mg5Pb3,0.0,-0.0316961,,2,3.0
Ge3PdHo,0.0,-0.0284577,,2,3.0
Ca2Zn2Ga,0.0,-0.0129559,,2,3.0
I6Cs2HgTl,0.0,-0.0445439,,2,3.0
Cu2PdTh,0.0,-0.0401712,,2,3.0
SiNiEu,0.0,-0.0271354,,2,3.0
ZnZr2Sb,0.0,-0.0287011,,2,3.0
Cl3Pu,0.0,-0.0354972,,2,3.0
B2C2La,0.0,-0.0161754,,2,3.0
Cr3Re4,0.0,-0.0484884,,2,3.0
FeEr2Os2,0.0,-0.0528866,,2,3.0
O7Ge2SrY,0.2461,-0.0144446,,2,3.0
O6SbEu2Dy,0.1148,-0.0258311,,2,3.0
Cl6NiSe2,1.0506,-0.0120228,,2,3.0
ZrCeBi,0.0,-0.0518727,,2,3.0
P2Fe2Zr,0.0,-0.0184354,,2,3.0
Ga2YNd,0.0,-0.0267038,,2,3.0
H6Dy2Os,0.0,-0.0214558,,2,3.0
S3NiErPb,0.0,-0.0296985,,2,3.0
CuHf6Bi2,0.0,-0.0611803999999999,,2,3.0
H6Ho2Re,0.0,-0.0216606999999999,,2,3.0
F4KCe,0.0,-0.0150574,,2,3.0
MgCl2I,0.0,-0.0158557,,2,3.0
CaIn6Pt,0.0,-0.0354476,,2,3.0
K2CuBr6Y,2.2451,-0.0192709,,2,3.0
Mo2OsIr,0.0,-0.0533634,,2,3.0
Mg2DyAu,0.0,-0.0324039,,2,3.0
AlGa2Pa6,0.0,-0.0710552,,2,3.0
OSCdBa,1.8292,-0.0232988,,2,3.0
Sr2Sn2Bi,0.0,-0.0397015,,2,3.0
ZnTm3Ir2,0.0,-0.0528016,,2,3.0
Li2Mg3,0.0,-0.0039711,,2,3.0
Rh2ReAu,0.0,-0.0520317,,2,3.0
F3GaRb,4.744,-0.0122586999999999,,2,3.0
P2Mn2Np,0.0,-0.0334492,,2,3.0
Ti2CuRu,0.0,-0.0210046,,2,3.0
MgCu8,0.0,-0.0140821,,2,3.0
Br5Nb2,0.0,-0.0242659,,2,3.0
ScZn4Zr,0.0,-0.0169016,,2,3.0
Al2S8Ti2CrCu,0.0,-0.0125423,,2,3.0
Cu2GeSe4Cd,0.0185,-0.0204046,,2,3.0
BFe2Ga2Dy,0.0,-0.0211237999999999,,2,3.0
InBaHg,0.0,-0.0476696,,2,3.0
ZnRhPr,0.0,-0.0308812,,2,3.0
Zn2RuDy3,0.0,-0.0346808,,2,3.0
RuTe2Hf6,0.0,-0.0544807,,2,3.0
Pd2InSm,0.0,-0.0367202,,2,3.0
CNi3,0.0,-0.0145528,,2,3.0
CuSm2Pt,0.0,-0.0444361,,2,3.0
H3O8F2P2KCu2,0.368,-0.0089115,,2,3.0
Ni6SnSb,0.0,-0.0213718,,2,3.0
MgCa2Hg,0.0,-0.0235324999999999,,2,3.0
SbPtU,0.0,-0.0708775,,2,3.0
Li3O8Co4Ni,0.0,-0.0105561,,2,3.0
CO3Na2,3.9593,-0.0080919,,2,3.0
InNdPt,0.0,-0.0502145,,2,3.0
Na2PdTl,0.0,-0.0285699,,2,3.0
Al2CaAc,0.0,-0.0291168,,2,3.0
CaSe2In,0.0,-0.0221593,,2,3.0
Pd3Nd,0.0,-0.0363015,,2,3.0
NNb3Ir,0.0,-0.0367531,,2,3.0
H8Mn3Sr,0.0,-0.0089413,,2,3.0
Ga2Ir2Th,0.0,-0.0550522,,2,3.0
P4Cu2Zn2Dy3,0.0,-0.0229862,,2,3.0
SSbSm,0.0,-0.0320873,,2,3.0
ZnPtAu,0.0,-0.0512674,,2,3.0
N2Ho2Pt,0.0,-0.0390677,,2,3.0
OSc3Pd,0.0,-0.0180863,,2,3.0
OZrHf3,0.0,-0.0461468,,2,3.0
AlTa3,0.0,-0.0520471,,2,3.0
Ag5Nd,0.0,-0.0335995,,2,3.0
MoRuTa2,0.0,-0.0511716,,2,3.0
O6NbEu2Hf,0.0,-0.027309,,2,3.0
SiTb2Ir3,0.0,-0.053928,,2,3.0
NaS3ZrPd,0.0,-0.0173612,,2,3.0
B2CRh2Pr,0.0,-0.0233292,,2,3.0
HLi3S,4.1952,-0.0050938999999999,,2,3.0