formula,bg,formation_energy,mp-id,fidelity,bg_category
Al2FeNd,0.0,-0.0196034,,2,3.0
CNSK,4.0686,-0.0098473,,2,3.0
Cl3GaPr3,0.0,-0.0261009,,2,3.0
SbSm,0.0,-0.0421537,,2,3.0
PSc2Sb,0.0,-0.0203675,,2,3.0
AlScCu,0.0,-0.0129135,,2,3.0
SiCdTe4Cs2,1.1097,-0.0338457999999999,,2,3.0
H2AlMo2,0.0,-0.0169344999999999,,2,3.0
Al5Ag5Eu2,0.0,-0.0256207,,2,3.0
S8Pt3,0.0,-0.0263897,,2,3.0
H6Na3Ir,3.164,-0.0109328,,2,3.0
Pd2Cd,0.0,-0.0323353,,2,3.0
Ru2AgEr3,0.0,-0.0425583,,2,3.0
H4N2Sr,2.2498,-0.008478,,2,3.0
As2SrRh,0.0,-0.0250481,,2,3.0
Al6Fe6Ho,0.0,-0.0161496,,2,3.0
Ni2Ga5Sr,0.0,-0.0175443,,2,3.0
BMgIr3,0.0,-0.0454668,,2,3.0
CrNiRu,0.0,-0.0230133,,2,3.0
NaGaBa2,0.0,-0.0250537999999999,,2,3.0
O6CuSr2Pa,0.0,-0.0224771,,2,3.0
O6CuBa2Nd,0.0,-0.0197422,,2,3.0
SiPt4,0.0,-0.0585407,,2,3.0
N2Ti3,0.0,-0.0149834999999999,,2,3.0
BeMg2Pt2,0.0,-0.0317821,,2,3.0
LuIrPt2,0.0,-0.0677444,,2,3.0
CaAg2Pb,0.0,-0.0373423,,2,3.0
CoAsNp,0.0,-0.0484714,,2,3.0
Sc3Ga2,0.0,-0.0157081,,2,3.0
Al3CrSn2Tm3,0.0,-0.0304504,,2,3.0
F3CuTl,0.0,-0.0214958,,2,3.0
F2SbLa2,0.0,-0.0290137,,2,3.0
FClPb,3.349,-0.0309936,,2,3.0
Ni2Y2Ir,0.0,-0.0323501,,2,3.0
NiGe2Sn3Tm3,0.0,-0.0358978999999999,,2,3.0
AlTiRuIr,0.0881,-0.0336621,,2,3.0
MgNdTl2,0.0,-0.0487488,,2,3.0
F2Sr2Pb,0.0,-0.0282683,,2,3.0
H2O13Ti6,2.9244,-0.0117267,,2,3.0
ZnBaHg,0.0,-0.0408718999999999,,2,3.0
Zr2Rh2Pb,0.0,-0.0417265999999999,,2,3.0
O7Na2CeTa2,0.0,-0.0220535,,2,3.0
Zn3Ag2Tm,0.0,-0.0261244,,2,3.0
CPDy3,0.0,-0.0336884999999999,,2,3.0
TiCo2Se3,0.0,-0.01909,,2,3.0
NaCa2Cd,0.0,-0.0136582,,2,3.0
P2CoTh2,0.0,-0.0472703,,2,3.0
Pd2Te3,0.0,-0.0358498,,2,3.0
NNa2Pt,0.0,-0.0222467,,2,3.0
BeNbRh2,0.0,-0.026805,,2,3.0
Se8Mo6Cd,0.0,-0.0272275999999999,,2,3.0
CoBrTb,0.0,-0.0288896,,2,3.0
Zn4As3Cs,0.0,-0.0194107,,2,3.0
MnCoZn2,0.0,-0.0158316,,2,3.0
CaGeAu,0.0,-0.0335296999999999,,2,3.0
O4PPb,0.0,-0.0203623,,2,3.0
Co4Ga4Nd3,0.0,-0.024546,,2,3.0
BaErPb,0.0,-0.055813,,2,3.0
O6CoRhNd2,0.2795,-0.020073,,2,3.0
Cl6Rb2YAg,3.5337,-0.0169025,,2,3.0
GaCd2Hg,0.0,-0.036226,,2,3.0
BeCa2Te,0.0,-0.0156527999999999,,2,3.0
Li2ScSn2,0.0,-0.0186223999999999,,2,3.0
GaBr3,3.1434,-0.0195341999999999,,2,3.0
MgAlCd2,0.0,-0.0183999,,2,3.0
Cd3Eu,0.0,-0.0365516,,2,3.0
S8NbW3,0.0,-0.0274958,,2,3.0
P2NiZr2,0.0,-0.0210864,,2,3.0
TcAu,0.0,-0.0520799,,2,3.0
Mg3Pd2Tb,0.0,-0.0218121,,2,3.0
NaLa3Os,0.0,-0.0412126,,2,3.0
AsCd,0.1405,-0.0254258999999999,,2,3.0
CuRh2Pt,0.0,-0.0383029,,2,3.0
AlZnAg,0.0,-0.0176040999999999,,2,3.0
Pd2Tm2Pb,0.0,-0.0499755,,2,3.0
Sc2GaOs,0.0,-0.0298537,,2,3.0
AsAu2Ac,0.0,-0.0628932,,2,3.0
C4RhTb3,0.0,-0.027225,,2,3.0
Ni2CuY,0.0,-0.0191100999999999,,2,3.0
Al5GdAu,0.0,-0.02427,,2,3.0
Cl2Y2Sb,0.0,-0.023631,,2,3.0
Co2AsU,0.0,-0.0398409,,2,3.0
F5MgMn,0.1157,-0.0090523,,2,3.0
LiF6Nb,5.1606,-0.0102933,,2,3.0
Si4MoRe,0.0,-0.0246714,,2,3.0
AlNiHfIr,0.0,-0.0404012,,2,3.0
N3NbHo,0.0,-0.0231891,,2,3.0
Sc2ZnIn,0.0,-0.0193882,,2,3.0
CuAsCs2,0.8684,-0.0281527,,2,3.0
Li3O4Cu2,0.0,-0.0084168,,2,3.0
Cd2SmEr,0.0,-0.0393243999999999,,2,3.0
P2Cu2La,0.0,-0.0196788,,2,3.0
Sb3Ho5,0.0,-0.0455802,,2,3.0
Ni3Gd2,0.0,-0.0335702,,2,3.0
Ge4Sr3Pd4,0.0,-0.0257044,,2,3.0
BNCoEr,0.0,-0.0223272,,2,3.0
Be3Os,0.0,-0.0216382,,2,3.0
OGeCe3,0.0,-0.0333032,,2,3.0
RbCd3Ir,0.0,-0.0366518,,2,3.0
Li2NiAu,0.0,-0.0228211,,2,3.0
Ti2Co2Ag,0.0,-0.0197936,,2,3.0
Si4Rh4Sm3,0.0,-0.0291851999999999,,2,3.0
LiP2CePt2,0.0,-0.035832,,2,3.0
CdAu2Np,0.0,-0.0690697,,2,3.0
MnFe4Ru,0.0,-0.0209107999999999,,2,3.0
CoNiTh,0.0,-0.0432748,,2,3.0
S3RbRhHf,0.0,-0.0256435,,2,3.0
O6MgWPb2,2.467,-0.0283896,,2,3.0
Rh4InDy,0.0,-0.0365735,,2,3.0
NaCeHg2,0.0,-0.0467481,,2,3.0
H6CrBa2,0.0,-0.0136219,,2,3.0
ZnCdLa2,0.0,-0.0329416,,2,3.0
CaCu2Zn2,0.0,-0.0135789,,2,3.0
PdIn3La2,0.0,-0.0372492,,2,3.0
MgGeCs2,0.1386,-0.025042,,2,3.0
Zr6PdSn2,0.0,-0.0326747,,2,3.0
Ga2Zr2Ir,0.0,-0.0339373,,2,3.0
Pd2In3Dy3,0.0,-0.0394966,,2,3.0
N2YEu,0.0,-0.0265422,,2,3.0
SiPd,0.0,-0.021971,,2,3.0
Co2Dy2Tl,0.0,-0.0408322,,2,3.0
Co3Ni2,0.0,-0.0168271,,2,3.0
P2ScCu2Cs,0.0,-0.0179617,,2,3.0
ZnGaAsSe,0.7388,-0.0181008,,2,3.0
C2CrNd,0.0,-0.0207212999999999,,2,3.0
Pm2IrPt,0.0,-0.0583377,,2,3.0
Co2Dy2Hg,0.0,-0.039938,,2,3.0
MgOs2Th2,0.0,-0.0683773999999999,,2,3.0
O2FeSr,0.0,-0.0154328,,2,3.0
FeNb2,0.0,-0.0280882,,2,3.0
NSr2Sn,0.0,-0.0231554,,2,3.0
MgInTm,0.0,-0.0305515,,2,3.0
Ni4ZrPt,0.0,-0.0281236,,2,3.0
BaTi10O20,0.0,-3.47725806139785,mp-766314,2,3.0
MgFeGe2,0.0,-0.015327,,2,3.0
LiPbAc2,0.0,-0.0651979,,2,3.0
B4Co11Dy3,0.0,-0.020504,,2,3.0
NiTaOs,0.0,-0.0519681,,2,3.0
PNiLu,0.0,-0.0286137,,2,3.0
S2AsHf2,0.0,-0.0343930999999999,,2,3.0
Pd5InTe,0.0,-0.0339588,,2,3.0
AlPd3,0.0,-0.0271866,,2,3.0
Al3RhDy3Pb2,0.0,-0.0399212,,2,3.0
F6KRuTl2,0.0,-0.0229914,,2,3.0
O3NaKCr,0.7299,-0.0104356,,2,3.0
CoNb2,0.0,-0.0279629,,2,3.0
AlNdPt,0.0,-0.0417922,,2,3.0
Al3GaEr2,0.0,-0.0239689,,2,3.0
Al3CuGe2Np3,0.0,-0.0442623,,2,3.0
Al3Rh2Sm,0.0,-0.0235437,,2,3.0
C2GaNb3,0.0,-0.0232204,,2,3.0
ZrTe5,0.0776,-0.0367157,,2,3.0
AlCu2Ho,0.0,-0.0222471999999999,,2,3.0
Si2CoTb,0.0,-0.0217832,,2,3.0
O4CaIn2,2.0632,-0.0166989,,2,3.0
N3SmOs,0.0,-0.029296,,2,3.0
O7Si2TiTb,0.1827,-0.0147927,,2,3.0
RhLu3,0.0,-0.0506016,,2,3.0
O8NaPd6Tb,0.0,-0.0199084,,2,3.0
Ga2Ce,0.0,-0.0264714,,2,3.0
ClGaLa,0.0,-0.0241534,,2,3.0
MgFePt2,0.0,-0.0415715,,2,3.0
Cl6K2AgEu,0.0,-0.0167807,,2,3.0
P2Ru3,0.0,-0.0256037,,2,3.0
TeDy,0.0,-0.0439266,,2,3.0
Si2YLa,0.0,-0.023547,,2,3.0
MnRh2Pm,0.0,-0.0330288,,2,3.0
Al8Ca3,0.0,-0.0085182,,2,3.0
BePMn,0.2926,-0.0114829,,2,3.0
SrAgIn2,0.0,-0.0305602,,2,3.0
CuGa5Pu,0.0,-0.0298265999999999,,2,3.0
H3O3Ho,3.7073,-0.0132807,,2,3.0
C2BrEr2,0.0,-0.0289995,,2,3.0
S6Zn4In,0.0,-0.0139219,,2,3.0
Al2PdTb,0.0,-0.024669,,2,3.0
O6Ba2SmW,0.0,-0.0261017,,2,3.0
GeI2Ba3,0.0,-0.0365279,,2,3.0
Cd2SmIr,0.0,-0.0445543,,2,3.0
Ga2Ge2Pr,0.0,-0.0232897,,2,3.0
P2ZrRu2,0.0,-0.0251861,,2,3.0
B2RuHo,0.0,-0.0253671,,2,3.0
CI2Hf2,0.0,-0.0426705,,2,3.0
H2CaAu2,0.0,-0.0313595,,2,3.0
Cl6KCs2Tm,5.1673,-0.0207780999999999,,2,3.0
LiTe2Ho,0.7001,-0.0328909,,2,3.0
Rh3NdPt2,0.0,-0.0481309,,2,3.0
N3CaTc,0.4248,-0.0150922,,2,3.0
Te8Os3,0.0,-0.0467683,,2,3.0
PdIn5Dy,0.0,-0.0358572,,2,3.0
Rh2InLu2,0.0,-0.0432681,,2,3.0
SnIrAc2,0.0,-0.0724793,,2,3.0
H3CeAu,0.0,-0.0252999,,2,3.0
Te2IPt,0.0,-0.0457701,,2,3.0
Al5Mn2Sm,0.0,-0.0153668,,2,3.0
LiF4La,7.047,-0.013939,,2,3.0
Mg5In,0.0,-0.0098008,,2,3.0
Ni2Ga3Dy,0.0,-0.0221761,,2,3.0
Ni2GaPm,0.0,-0.0237145,,2,3.0
CuRhPt,0.0,-0.039739,,2,3.0
B4Mn2Ta,0.0,-0.0196127,,2,3.0
CTi2In,0.0,-0.0196786,,2,3.0
YHoPb2,0.0,-0.0577807,,2,3.0
Ni2Cu3,0.0,-0.0155476,,2,3.0
Zn2Rh3Nd,0.0,-0.0292211,,2,3.0
O4Sb2ITb,0.714,-0.0249172,,2,3.0
P2ScLa2,0.0,-0.0256149,,2,3.0
Cs3Nb2Se11,0.8620999999999991,-1.101204967952922,mp-1197158,2,3.0
Si3Sc5,0.0,-0.0134631,,2,3.0
BO3Ce,0.0,-0.0174196,,2,3.0
HZr3In,0.0,-0.0262462,,2,3.0
H4Ti2Co,0.0,-0.0094083,,2,3.0
SrSb2Tl,0.0,-0.0428056,,2,3.0
F6AlPd,0.5085,-0.0102966999999999,,2,3.0
MgCa2Ag3,0.0,-0.020027,,2,3.0
BO3Tm,5.2537,-0.019014,,2,3.0
Fe5Gd,0.0,-0.0248982,,2,3.0
H6FeHf2,0.0,-0.0185272,,2,3.0
B3N6Ca5,0.0,-0.0103392,,2,3.0
S4Cl2AsAg5,0.824,-0.0195742,,2,3.0
Li3GaBa,0.0,-0.0127532,,2,3.0
AlGaSe3,1.7677,-0.0176615,,2,3.0
ScTaPt2,0.0,-0.0563785,,2,3.0
CoTm2,0.0,-0.0405636,,2,3.0
CSiSmOs2,0.0,-0.0422538,,2,3.0
ZnSb2Dy,0.0,-0.0344956,,2,3.0
Al12Tc,0.0,-0.0100456,,2,3.0
B6Ru2La,0.0,-0.0179517999999999,,2,3.0
YAu2Tl,0.0,-0.0603359,,2,3.0
B2CIr2Th,0.0,-0.0446026,,2,3.0
Na2P2Ag,0.0,-0.0124519,,2,3.0
Ga6SrPd,0.0,-0.019659,,2,3.0
SiCuLu,0.0,-0.0275556,,2,3.0
Ag2Cd,0.0,-0.0311031,,2,3.0
Li2AlIr,0.0,-0.0214829,,2,3.0
O2Br2Ba3,2.2279,-0.026904,,2,3.0
BeCr2Mn,0.0,-0.0150053,,2,3.0
CoZr6Tl2,0.0,-0.0387446,,2,3.0
F6LaEr,7.2351,-0.0186424,,2,3.0
Si2Co3Zr,0.0,-0.0177458,,2,3.0
P2KCr2,0.0,-0.0135787999999999,,2,3.0
CrTeIr,0.0,-0.0425665,,2,3.0
S3Ta2,0.0,-0.0334925,,2,3.0
O4AsTa,3.3717,-0.0208878999999999,,2,3.0
Ni2Zn2Y,0.0,-0.0178181,,2,3.0
Mg2Cu2Ga,0.0,-0.011587,,2,3.0
ScIn5Au,0.0,-0.0360563999999999,,2,3.0
O6ZnSr2Rh,0.0,-0.0148427,,2,3.0
Cu2SbAc,0.0,-0.0399384999999999,,2,3.0
H4CuNd,0.0,-0.0125017,,2,3.0
CaNi2Pt3,0.0,-0.0426451,,2,3.0
ClTe4Ta,0.21,-0.0376576999999999,,2,3.0
MnZnIr2,0.0,-0.0438611,,2,3.0
TcRh7,0.0,-0.0339562,,2,3.0
HZnTeCs,1.6743,-0.0236097,,2,3.0
O4TmU,0.0,-0.0337849,,2,3.0
LiO3Co2,0.0,-0.0107901,,2,3.0
O5SV,0.4085,-0.0103149,,2,3.0
CuRu2Ce2,0.0,-0.0351503,,2,3.0
ZrTe2,0.0,-0.0360145,,2,3.0
FeAsHf2,0.0,-0.0415501,,2,3.0
O3CuBi,0.0,-0.0233103,,2,3.0
AgAuPb,0.0,-0.0587678,,2,3.0
S6Mn3Pd,0.0,-0.0152783,,2,3.0
Ga2SrIn2,0.0,-0.0247587,,2,3.0
GdHg2Ac,0.0,-0.0720194,,2,3.0
Al3Ca2Au,0.0,-0.0192467,,2,3.0
Al3ZnEu2,0.0,-0.0244087999999999,,2,3.0
BeFeRu,0.0,-0.0191692,,2,3.0
PRbAg2Te4,0.0113,-0.0305860999999999,,2,3.0
HF2PS,4.2035,-0.0075418,,2,3.0
P2Cu2CsHo,0.0,-0.0238146,,2,3.0
LiP2SrPt2,0.0,-0.0319847,,2,3.0
O6Br2Pb,3.4277,-0.0171216,,2,3.0
SBrAg2,0.0,-0.0230556,,2,3.0
ScAg2In,0.0,-0.0279545,,2,3.0
N3Zn2Nb,1.7775,-0.0152384,,2,3.0
Na3Zn,0.0,-0.0064646,,2,3.0
N2Na2Np,0.0,-0.0275183,,2,3.0
Ca2Ni2In,0.0,-0.0173072,,2,3.0
Al6PrPt,0.0,-0.0206989,,2,3.0
PbBi2,0.0,-0.0775493,,2,3.0
O6Ba2PtPb,0.0,-0.0279638,,2,3.0
NbMo2Ta,0.0,-0.0425344,,2,3.0
NIPr2,0.0,-0.0345663,,2,3.0
Ag4Tl,0.0,-0.0394872,,2,3.0
Mg2AlS8Ti3,0.0,-0.0116961999999999,,2,3.0
Ga2CdIn2,0.0,-0.0258889,,2,3.0
N2NiCe2,0.0,-0.0261658,,2,3.0
AlMnIrPt,0.0,-0.0427593,,2,3.0
Ru2DyTa,0.0,-0.0464793,,2,3.0
SeI2La2,0.0,-0.0378265,,2,3.0
SiP2Se6,0.9873,-0.0170038,,2,3.0
O4ScEr,2.4182,-0.0180307,,2,3.0
Ni4PrTl,0.0,-0.0302125,,2,3.0
Mo2WRe,0.0,-0.0526526,,2,3.0
ZnReIr2,0.0,-0.0569795,,2,3.0
N6Mn2Dy3,0.0,-0.0226912999999999,,2,3.0
In5TbPt,0.0,-0.0411136,,2,3.0
ScSe2Rb,1.2617,-0.02061,,2,3.0
LiRhPm2,0.0,-0.0314869,,2,3.0
P3Pu,0.0,-0.0358309,,2,3.0
GeRhSm,0.0,-0.0334571,,2,3.0
B3Si,1.3222,-0.0081383,,2,3.0
H3NaZn,0.0,-0.0056952999999999,,2,3.0
PRuPa,0.0,-0.0493184,,2,3.0
Si2Ru2Ho,0.0,-0.0287276,,2,3.0
Cd3Sb,0.0,-0.0320394,,2,3.0
B3FeTa,0.0,-0.0219124,,2,3.0
HBr2Ho2,0.0,-0.0294554,,2,3.0
CaPd4Cd,0.0,-0.0290431,,2,3.0
MnSrTe2,0.0366,-0.029916,,2,3.0
Ga3Ta2Ir,0.0,-0.0426705,,2,3.0
GaTe2Bi,0.0,-0.0424989,,2,3.0
Al2CdTm3,0.0,-0.0339799,,2,3.0
Er3Ir2Pt,0.0,-0.0617858,,2,3.0
LiFeZnRh,0.0,-0.0171983,,2,3.0
OGeEu3,0.0,-0.0389116,,2,3.0
SiP2Ni,0.0,-0.0120124,,2,3.0
AlNiLu,0.0,-0.0270585,,2,3.0
O6GdBi2,0.0,-0.0297184,,2,3.0
CoBrTm,0.0,-0.0305983,,2,3.0
SiSr2Os,0.0,-0.0318739,,2,3.0
O4TeBi,2.2935,-0.0246447,,2,3.0
SeTe2Bi2,0.0071,-0.0505828,,2,3.0
CaMnIn5,0.0,-0.0281188,,2,3.0
P4Ni,0.0,-0.0117649,,2,3.0
Sr2CdSb2,0.5664,-0.0308521,,2,3.0
PtHg3,0.0,-0.068669,,2,3.0
Ti4Mn2Sn5,0.0,-0.0256922,,2,3.0
Ru3Sm2,0.0,-0.0389435,,2,3.0
O6K2TeU,1.0485,-0.0217831,,2,3.0
CaI4Pb,2.6382,-0.0399406,,2,3.0
PmSmPb2,0.0,-0.060734,,2,3.0
MgSc2Zn,0.0,-0.0119578,,2,3.0
CGe2Ru2Nd2,0.0,-0.0300765,,2,3.0
CrGe3Pr,0.0,-0.0242912,,2,3.0
HAlSrSn,0.655,-0.0178849,,2,3.0
CuSeAg,0.0197,-0.0223003,,2,3.0
PFeNp,0.0,-0.0456520999999999,,2,3.0
NaPCa,1.8307,-0.0090612,,2,3.0
PCuTa4,0.0,-0.0490086,,2,3.0
H6O8P2K2Co,0.2287,-0.0082303,,2,3.0
HS2Mn,0.0,-0.0107142,,2,3.0
SrPd2La2,0.0,-0.0354534,,2,3.0
B4Y2Ir5,0.0,-0.0409861,,2,3.0
O4Na3P,3.9651,-0.0083947,,2,3.0
Li4As4La3,0.0,-0.0211892,,2,3.0
Cd2CeTb,0.0,-0.0383468999999999,,2,3.0
Cs4Ta2S11,1.747999999999999,-1.276541384752197,mp-14578,2,3.0
ClAs,0.7628,-0.0145364,,2,3.0
Cu2SnHo2,0.0,-0.0334187,,2,3.0
CSiTm3,0.0,-0.0357408,,2,3.0
FeNiSe2,0.0,-0.0188646999999999,,2,3.0
LuPb2Ac,0.0,-0.0749008999999999,,2,3.0
BeZrIr2,0.0,-0.0451396,,2,3.0
HRu2,0.0,-0.02427,,2,3.0
PTiDy,0.0,-0.0258878,,2,3.0
As2Y6Rh,0.0,-0.0277524,,2,3.0
B4Tm2Ir5,0.0,-0.0453296,,2,3.0
Si3Ni2Th,0.0,-0.0270743,,2,3.0
RhWOs2,0.0,-0.0619033,,2,3.0
P3Co4Rb,0.0,-0.0156156,,2,3.0
As2RbSn2,0.0,-0.0268926,,2,3.0
MgEr2Ir2,0.0,-0.0505362,,2,3.0
Li2SnLa,0.0,-0.021503,,2,3.0
LiSc2Hg2,0.0,-0.0339752,,2,3.0
H4DyPt,0.0,-0.0225115,,2,3.0
Al4TbIr,0.0,-0.0256191,,2,3.0
O7CaGa2As2,3.8127,-0.0125191,,2,3.0
AlAsMo,0.0,-0.0213327,,2,3.0
F2SrBa,0.0,-0.0202743,,2,3.0
LiGe3Sr2,0.0,-0.017986,,2,3.0
Co4ZrNb,0.0,-0.022255,,2,3.0
Al3CrSn2Tb3,0.0,-0.0288042,,2,3.0
K2RhBi2,0.0,-0.0418167,,2,3.0
Rb2InBi2,0.0,-0.0467324,,2,3.0
BCaPt3,0.0,-0.0464158,,2,3.0
Mg2S8TiDy3,0.0,-0.019582,,2,3.0
CrNi2Se3,0.0,-0.0189237,,2,3.0
Ni2Nb2Ru,0.0,-0.026913,,2,3.0
BO3NaFe,0.0,-0.0101028,,2,3.0
NiLu3Os2,0.0,-0.0548297,,2,3.0
S5SnLa2,0.0,-0.0230339,,2,3.0
H3CuRh,0.0,-0.0117643,,2,3.0
KGa4La,0.0,-0.019933,,2,3.0
MgZnGe,0.0,-0.0126721,,2,3.0
HSiY,0.0,-0.0145509,,2,3.0
SAs,1.2575,-0.0150723,,2,3.0
Fe2CeIr3,0.0,-0.0495026,,2,3.0
Fe2Ho3,0.0,-0.0365717,,2,3.0
H3ScFe,0.0,-0.0089882,,2,3.0
As2SrTl2,0.0,-0.0419046999999999,,2,3.0
O4CoSrGd,0.0,-0.0203689,,2,3.0
Mg3La4,0.0,-0.0268127,,2,3.0
KTiSe3Pd,0.0,-0.0205813,,2,3.0
AuBi,0.0,-0.0739153,,2,3.0
In3Pb,0.0,-0.0439223,,2,3.0
FeMoPt2,0.0,-0.0487794,,2,3.0
BFe2Ga2Ce,0.0,-0.0205302,,2,3.0
BeMoRu2,0.0,-0.027489,,2,3.0
AgNd2,0.0,-0.0397446,,2,3.0
ZnRu2Nd3,0.0,-0.0359028,,2,3.0
P2KCu2Hf,0.0,-0.0210173,,2,3.0
GaCdPa,0.0,-0.0488858,,2,3.0
Li2SrTe2,1.5893,-0.0216779,,2,3.0
ScAsNd,0.0,-0.0271362,,2,3.0
Co3RuTh2,0.0,-0.0464957,,2,3.0
Al2CrGa,0.0,-0.0127285,,2,3.0
CdInEr2,0.0,-0.0416466,,2,3.0
C4Ca3Ni,0.0,-0.0108752,,2,3.0
Cu4CdEr,0.0,-0.0238814,,2,3.0
Al3Au4,0.0,-0.0433888,,2,3.0
FeAsPd5,0.0,-0.0292383999999999,,2,3.0
NaCd2Ac,0.0,-0.0391299,,2,3.0
Mn2LaPt3,0.0,-0.049351,,2,3.0
O6NaSe2Cs3,3.9588,-0.0178702,,2,3.0
Al4PdTb,0.0,-0.0191401,,2,3.0
FeNi2Er2,0.0,-0.0305936999999999,,2,3.0
CrFeTe4,0.0,-0.0311133,,2,3.0
TcPt7,0.0,-0.0657891999999999,,2,3.0
Se2Tm6Os,0.0,-0.0479251999999999,,2,3.0
O6TiSr2Lu,0.0,-0.0186088999999999,,2,3.0
ORb3Hg,0.0,-0.0280117,,2,3.0
LiO6Ni3,0.0077,-0.010105,,2,3.0
SiNi2Ce,0.0,-0.0223491,,2,3.0
MnSb2La,0.0,-0.0348175,,2,3.0
MoRh2Pt,0.0,-0.0434204,,2,3.0
Tm6PtPb2,0.0,-0.059974,,2,3.0
Al3NiGe2Dy3,0.0,-0.0253765,,2,3.0
Y2Pt2Hg,0.0,-0.0540668,,2,3.0
SiBrSm,0.0,-0.0259907,,2,3.0
Cl6K3Ho,5.3907,-0.0145359,,2,3.0
F5Na2Ag,1.0092,-0.0092111,,2,3.0
Cu3Pd2Nd,0.0,-0.0262409,,2,3.0
Li2O4TiFe,0.0,-0.0104373,,2,3.0
Si2FePr2,0.0,-0.025439,,2,3.0
NO3AlNd2,0.9993,-0.0206502,,2,3.0
B4Sr2Ir5,0.0,-0.0397475,,2,3.0
H6MnSm2,0.0,-0.0147967,,2,3.0
B2VRu,0.0,-0.0173198,,2,3.0
Ca3Ge2In3Ir,0.0,-0.0271127,,2,3.0
MgTmHg2,0.0,-0.0489213,,2,3.0
Al5KSr5,0.0,-0.0145241,,2,3.0
AlBr3,3.7362,-0.0177342,,2,3.0
Co2Zr2Hf,0.0,-0.0319072,,2,3.0
O6Cl2Ba,5.2587,-0.0112144999999999,,2,3.0
Ga3RhSn2La3,0.0,-0.0323773,,2,3.0
Te2CsPt,0.0,-0.0463333,,2,3.0
Na2SiS4Co,0.2525,-0.0102718,,2,3.0
H2Al2Sr,0.0,-0.0093096,,2,3.0
H4O10MgK2Cr2,2.7638,-0.0089783,,2,3.0
Co2Ga3Y,0.0,-0.0190466,,2,3.0
OCdLaBi,0.3971,-0.0414155,,2,3.0
MgMnNi2,0.0,-0.014153,,2,3.0
SeBrHf,0.0,-0.0354677,,2,3.0
MgBaAu2,0.0,-0.0465349,,2,3.0
AlSnCe,0.0,-0.0299569,,2,3.0
P2Rb4Cd,0.6751,-0.0195996999999999,,2,3.0
F6RhPt,0.0,-0.0171365,,2,3.0
B3VFe,0.0,-0.0121728,,2,3.0
AgEuTl2,0.0,-0.0577255,,2,3.0
Al2FeU,0.0,-0.0345037,,2,3.0
O6CoPdLa2,0.0,-0.0197913,,2,3.0
MgScRu,0.0,-0.0183786,,2,3.0
BSc3Bi,0.0,-0.026401,,2,3.0
Mg2As2Pr,0.0,-0.0197632,,2,3.0
NaS3CoZr,0.0,-0.0148529,,2,3.0
CuLaAu2,0.0,-0.0498614,,2,3.0
MgKTl2,0.0,-0.0397109,,2,3.0
ZnY2Pd,0.0,-0.0262178,,2,3.0
Si2Mn3Pa,0.0,-0.0295558,,2,3.0
Mn4As3Cs,0.0,-0.0218439,,2,3.0
F8BaLa2,6.7957,-0.0183615,,2,3.0
Ca3Ni2Cu2As4,0.0,-0.0164646,,2,3.0
LiSbLa2,0.0,-0.0321875,,2,3.0
MgCdEr2,0.0,-0.0342593,,2,3.0
PdLuHg2,0.0,-0.0566835,,2,3.0
Al3ZnGe2Pa3,0.0,-0.0418155,,2,3.0
Si2TbPt,0.0,-0.035391,,2,3.0
CoIr8,0.0,-0.0650815,,2,3.0
Li7Ir,0.0,-0.0109918999999999,,2,3.0
RhHf6Bi2,0.0,-0.0634295,,2,3.0
LiPm2Tl,0.0,-0.0410394,,2,3.0
CuInTm2,0.0,-0.0384821,,2,3.0
HOIPb,2.7838,-0.0315258,,2,3.0
N2KMo,0.0,-0.0160021,,2,3.0
HMn2,0.0,-0.0132769999999999,,2,3.0
CaNiTe,0.0,-0.0219078,,2,3.0
Al2Pd4Tb3,0.0,-0.0328626999999999,,2,3.0
Li3As2Pu,0.0,-0.0270993,,2,3.0
Al5CaPd2,0.0,-0.0149824,,2,3.0
ZnGa3Gd,0.0,-0.0247741,,2,3.0
AuTl7,0.0,-0.0718927,,2,3.0
Al2Ga3,0.0,-0.0128630999999999,,2,3.0
ScCo4Au,0.0,-0.0256405,,2,3.0
F6CaCu,0.0,-0.0080884,,2,3.0
TiGeNb,0.0,-0.0234121999999999,,2,3.0
NaPBa,0.757,-0.0189909,,2,3.0
Al2CoPr,0.0,-0.0194693,,2,3.0
EuTl2,0.0,-0.0666387,,2,3.0
Sc3FeY,0.0,-0.0176876,,2,3.0
MgSiNd,0.0,-0.0200854,,2,3.0
O8KAs2Sb,2.3848,-0.0128214,,2,3.0
Se2SrSn,0.9495,-0.0258803,,2,3.0
Cu2YSb2Cs,0.0,-0.0290752,,2,3.0
Li2Zn2Ge2Eu,0.0,-0.0180853,,2,3.0
Si2CoGa3Ho3,0.0,-0.0266337,,2,3.0
F6AsAu,0.0,-0.0154816,,2,3.0
Li3O8Mn4Co,0.0,-0.0112526,,2,3.0
O4Cu2As2Te2Ho,0.0,-0.021321,,2,3.0
CoZn2Ho,0.0,-0.0235178,,2,3.0
PdAgEu2,0.0,-0.0433893,,2,3.0
MgNi4Ho,0.0,-0.0201855,,2,3.0
NaHg2Th,0.0,-0.0594501,,2,3.0
HBr2Sm,3.5511,-0.0234255999999999,,2,3.0
Zn2OsTh,0.0,-0.0489804,,2,3.0
CoIn5Ho,0.0,-0.0336087,,2,3.0
B4MoRu2,0.0,-0.0194887,,2,3.0
F6ZnTm,0.0,-0.0138627,,2,3.0
NiIPu,0.0,-0.0547526,,2,3.0
PrHo3,0.0,-0.0475524,,2,3.0
CuEr6Pb2,0.0,-0.0525314,,2,3.0
H2Ni2Hg,0.0,-0.0214121,,2,3.0
Al4CaZr,0.0,-0.0122578,,2,3.0
NiCd,0.0,-0.0231819,,2,3.0
Rb2Hg2Pb,0.0,-0.0509784,,2,3.0
CaTiSn3,0.0,-0.0271183,,2,3.0
Co2In3Tb2,0.0,-0.0328906,,2,3.0
Ti4Mn2In5,0.0,-0.0245612999999999,,2,3.0
Rh2Pb3,0.0,-0.0590157,,2,3.0
NbOs3,0.0,-0.0622986,,2,3.0
O4LaGd,2.1143,-0.0241771,,2,3.0
Ni3Pd2La,0.0,-0.0265669,,2,3.0
KAsCd,0.1938,-0.0201702,,2,3.0
H8CoZn2Eu,0.0,-0.0106339,,2,3.0
O5PVSn,0.0,-0.0141664999999999,,2,3.0
O2Sc2Sn,0.0,-0.0180798,,2,3.0
LiO4Mn3Rb,0.0092,-0.0132872,,2,3.0
B4NbEr,0.0,-0.0196597,,2,3.0
AlCdTm,0.0,-0.0304369,,2,3.0
Li2Mg2In2Ba,0.0,-0.0176298,,2,3.0
SeSnTh,0.0,-0.0519597,,2,3.0
Rh6Sb4Ba,0.0,-0.0361455,,2,3.0
Ga3Y3PdSn2,0.0,-0.0271666,,2,3.0
Li2BO3K,4.2124,-0.0079667,,2,3.0
NiSe2Zr6,0.0,-0.0275417999999999,,2,3.0
CoITh,0.0185,-0.0506779,,2,3.0
CrFeTc,0.0,-0.0238214,,2,3.0
Cu3Pd2Gd,0.0,-0.0287728,,2,3.0
MgS4CrDy,0.4887,-0.0173282999999999,,2,3.0
PdSb2Np,0.0,-0.0538974,,2,3.0
O6MgRhNd2,0.0,-0.0191193,,2,3.0
MnZnZr2,0.0,-0.0235417999999999,,2,3.0
AlGePr,0.0,-0.0241578,,2,3.0
HTi2Pd,0.0,-0.0175841999999999,,2,3.0
Ga3SrOs,0.0,-0.0290673,,2,3.0
ScRu2Np,0.0,-0.0480105999999999,,2,3.0
Li2NaAs2,0.0,-0.0104098,,2,3.0
LiP2S7Cr,0.8897,-0.0105536,,2,3.0
LiO5V2,0.0,-0.0111071,,2,3.0
SrSb2Au2,0.0,-0.0477145999999999,,2,3.0
Al5Zn,0.0,-0.0087094,,2,3.0
Li4O10SiGe3,3.8404,-0.0099476999999999,,2,3.0
C6Eu,0.0,-0.0164291,,2,3.0
Ni2RuNd3,0.0,-0.0332015,,2,3.0
Ru2Ce3Hg,0.0,-0.0456205,,2,3.0
NiAsPt5,0.0,-0.0555369999999999,,2,3.0
SeBrSb,1.1866,-0.0260294999999999,,2,3.0
Ag2Sn2Ba,0.0,-0.035279,,2,3.0
TiCrAs,0.0,-0.0188722999999999,,2,3.0
Y2PtHg,0.0,-0.0495822,,2,3.0
F6Na3Rh,1.9893,-0.0092179,,2,3.0
BNTbOs,0.0,-0.0349468999999999,,2,3.0
CaCu4Ga,0.0,-0.0146267,,2,3.0
BaLaPt2,0.0,-0.0568434,,2,3.0
SiBa2Ir,0.0,-0.0405882,,2,3.0
Li4AlBa,0.0,-0.0094948999999999,,2,3.0
Ni2Sr,0.0,-0.0181316999999999,,2,3.0
N2ZrHo,0.0,-0.026628,,2,3.0
N5Al3Ba3,1.7014,-0.0182961,,2,3.0
HBr2Pa,0.0,-0.0366144,,2,3.0
Ti2Ir2Au,0.0,-0.0495231,,2,3.0
GaSnPt,0.0,-0.0414382,,2,3.0
Ga3Pd2Nd,0.0,-0.0272045,,2,3.0
Ga2Sn2Ba,0.0,-0.0292466,,2,3.0
Mg4P3K,1.1892,-0.0081927,,2,3.0
Al4MnPu,0.0,-0.026849,,2,3.0
Zn2SrEu,0.0,-0.0259892,,2,3.0
O2Sc3,0.0,-0.0135359,,2,3.0
O6MgLa2Pt,2.2504,-0.0226841,,2,3.0
K3Se3Sb,1.7423,-0.0185443,,2,3.0
F6KMoTl2,0.2803,-0.023286,,2,3.0
Cl3RbPu,0.0,-0.0328638,,2,3.0
NiGeNd,0.0,-0.0270736,,2,3.0
Al5ErIr,0.0,-0.0236162,,2,3.0
NiCuBa,0.0,-0.0234893,,2,3.0
Al5CoTa,0.0,-0.0178237999999999,,2,3.0
HCaZnSb,0.9968,-0.0165809,,2,3.0
B2Fe7Er3,0.0,-0.0246497,,2,3.0
SrIn4Ir,0.0,-0.0382971999999999,,2,3.0
S2CdAu2,1.1152,-0.0378785,,2,3.0
S4CdSm2,1.7582,-0.0243660999999999,,2,3.0
NbTe5,0.0,-0.0368046999999999,,2,3.0
O3Mn2Ni,0.0,-0.0135127,,2,3.0
ZnSeBr2Ag2,0.9873,-0.0230223,,2,3.0
Li2As2Bi,0.0,-0.0250763,,2,3.0
Y2Pd3,0.0,-0.0317528,,2,3.0
NRuHf3,0.0,-0.047604,,2,3.0
Ti3Se6Pd,0.0,-0.0212511,,2,3.0
H4NdPt,0.0,-0.0218499,,2,3.0
ScYRh4,0.0,-0.0303435,,2,3.0
CdHoAu2,0.0,-0.0552534,,2,3.0
Mn4Os,0.0,-0.0288481999999999,,2,3.0
Sb2CsTl2,0.0,-0.0516760999999999,,2,3.0
MnBi2Np,0.0,-0.0705246,,2,3.0
ZrPdSb,0.0,-0.0344402,,2,3.0
Cu2YSn,0.0,-0.0240378,,2,3.0
O4InPr,2.4816,-0.019051,,2,3.0
F6K3Ca,0.2661,-0.0085387,,2,3.0
Li2O8Cr3Ni,0.0,-0.0111656999999999,,2,3.0
NiZn2Er,0.0,-0.023857,,2,3.0
Ga3Ge2RhLa3,0.0,-0.0286799,,2,3.0
P2Sc6Ir,0.0,-0.0207614,,2,3.0
CaHg2Pb,0.0,-0.0558997,,2,3.0
Si8CaLa3,0.0,-0.018858,,2,3.0
AsTeDy,0.2056,-0.0363746999999999,,2,3.0
O7CrGe2Eu,0.0,-0.0162429999999999,,2,3.0
As2AgPr,0.0,-0.0296556,,2,3.0
Al3Si2NiGd3,0.0,-0.0269217,,2,3.0
NaZn2Ag2,0.0,-0.0188443,,2,3.0
BrSr3,0.0,-0.0223988,,2,3.0