formula,bg,formation_energy,mp-id,fidelity,bg_category
GePr2Hg,0.0,-0.0441724999999999,,2,3.0
Se3SrHoAu,1.0203,-0.0350927,,2,3.0
YRu2Ce,0.0,-0.0359139,,2,3.0
Cd4InHg,0.0,-0.0371099,,2,3.0
CuAs2Ho2,0.0,-0.0319919,,2,3.0
Ir3Pt,0.0,-0.0708255,,2,3.0
KSb2Hg2,0.0,-0.0440568999999999,,2,3.0
LiSr,0.0,-0.0123263,,2,3.0
F6RhSb,1.1687,-0.0135345999999999,,2,3.0
SeBrLa,2.2742,-0.0297848,,2,3.0
O7Si2TiNd,0.2155,-0.0144646,,2,3.0
SnLa3,0.0,-0.0418763999999999,,2,3.0
SrPd2Pb,0.0,-0.0414777,,2,3.0
RuLa2Pt,0.0,-0.0485593999999999,,2,3.0
AlGeZr,0.0,-0.0197686,,2,3.0
Li2OF4V,0.3723,-0.008398,,2,3.0
P2Cu4Np,0.0,-0.0271972999999999,,2,3.0
I3Sm2,0.2343,-0.0410591,,2,3.0
ZnIr5,0.0,-0.0615367,,2,3.0
Ga2Pd2Ag,0.0,-0.0263715,,2,3.0
LiNiLa2,0.0,-0.0262925,,2,3.0
O3MnHf,1.3712,-0.0229592,,2,3.0
ClCu2Se,0.0,-0.014923,,2,3.0
SrCd2Sm,0.0,-0.032271,,2,3.0
B2Ni7Th3,0.0,-0.0350510999999999,,2,3.0
OAsCdNd,1.0053,-0.0270236,,2,3.0
Sr2YAg,0.0,-0.0260461,,2,3.0
Te2PtHg,0.0,-0.0535683999999999,,2,3.0
SiRu3Eu2,0.0,-0.037264,,2,3.0
ZnTbAu2,0.0,-0.0504373,,2,3.0
P2AgPt,0.0,-0.0307451,,2,3.0
ZrNbTc,0.0,-0.033286,,2,3.0
Ti3Cr2Zn,0.0,-0.0165,,2,3.0
Co2ZnEu2,0.0,-0.0310141,,2,3.0
F7Na3Ho,0.1109,-0.0110184999999999,,2,3.0
O8Cr3Cu,0.0,-0.0118671,,2,3.0
ZrRu2Tm,0.0,-0.0387586,,2,3.0
Ga2PdHf2,0.0,-0.0388996,,2,3.0
HGeRh3,0.0,-0.025043,,2,3.0
Si3MnLa,0.0,-0.0186914,,2,3.0
CaRh2La2,0.0,-0.0333108,,2,3.0
SiNi2Pa2,0.0,-0.0488257,,2,3.0
Ga2Pd3Tm,0.0,-0.0312811999999999,,2,3.0
NiSn3Er,0.0,-0.0353014,,2,3.0
LiO12VTe2W,1.3803,-0.0157138,,2,3.0
Ni4CdCe,0.0,-0.0235844999999999,,2,3.0
B2O6SiFe,0.0,-0.010442,,2,3.0
Al2FeTa,0.0,-0.0253631,,2,3.0
O2NiRb2,0.811,-0.0153498,,2,3.0
Cu2Y2Tl,0.0,-0.0321483,,2,3.0
PYAg,0.0,-0.0240654,,2,3.0
N5Nb3,0.6386,-0.0191754999999999,,2,3.0
Sc3Pt2,0.0,-0.037931,,2,3.0
Si3YRh,0.0,-0.0191838,,2,3.0
SNiI,0.0,-0.0210848,,2,3.0
Li2RhAu,0.0,-0.0272886,,2,3.0
OGeSr3,0.0,-0.0199884,,2,3.0
Fe4InTm,0.0,-0.0263733,,2,3.0
Be2TiCo,0.0,-0.0107239,,2,3.0
Cl2GeTh2,0.0,-0.0469108,,2,3.0
Sc2GaIn,0.0,-0.0201496,,2,3.0
PdBa2Pt,0.0,-0.0461389,,2,3.0
Ga3PdSn2Tm3,0.0,-0.0350991,,2,3.0
H3BrPu2,0.0,-0.0422258,,2,3.0
H4NSe4WAu,0.9759,-0.0223472,,2,3.0
ZnY2Ir2,0.0,-0.0432248,,2,3.0
F8CaCu2,1.1341,-0.0084619,,2,3.0
LiCuSb,0.0,-0.0186489,,2,3.0
S3GeIn,1.1233,-0.0167786,,2,3.0
Y2AgSn,0.0,-0.0313821,,2,3.0
H8B2NaRb,5.8461,-0.00605,,2,3.0
H6Y2Os,0.0,-0.0170399,,2,3.0
P2FeSe7Cs,0.0,-0.0201532,,2,3.0
Rb2Te3,0.5799,-0.031494,,2,3.0
Sc3Cu2In3,0.0,-0.0221577,,2,3.0
NaTiCu2Sb2,0.0,-0.0211959,,2,3.0
MgRh5,0.0,-0.0291202,,2,3.0
KCuSr3,0.0,-0.0180329,,2,3.0
LiSr2Ag2,0.0,-0.0221817,,2,3.0
LiCo2Sb2Nd,0.0,-0.0263219,,2,3.0
O7As2Hg2,0.1388,-0.0209651,,2,3.0
CoTa2,0.0,-0.0503544,,2,3.0
CdSm2Pb,0.0,-0.0493645,,2,3.0
ScSnTe,0.0,-0.0299846,,2,3.0
O6Ba2LuRe,0.0,-0.0272345,,2,3.0
H8Fe3La,0.0,-0.0105827,,2,3.0
RuITb,0.0,-0.0403397,,2,3.0
LiF6Cs2Nd,7.2354,-0.0177774,,2,3.0
ScCuPt2,0.0,-0.0434861,,2,3.0
NiLa5,0.0,-0.0386703,,2,3.0
CPNd3,0.0,-0.0310117,,2,3.0
SbPmAu2,0.0,-0.0556732,,2,3.0
Se2Pd3Tl2,0.0,-0.0408234,,2,3.0
Li2SrHg2,0.0,-0.0331898,,2,3.0
CoIPu,0.0,-0.0550441999999999,,2,3.0
CuEr2Pt2,0.0,-0.0524406,,2,3.0
BrTePt2,0.0,-0.0495942,,2,3.0
Li2PtPb2,0.0,-0.0457928,,2,3.0
AlTc2,0.0,-0.0264814,,2,3.0
AsSeTm,0.0,-0.0322744,,2,3.0
SePdBi,0.0,-0.0441931999999999,,2,3.0
O4ZrEu2,0.0,-0.0266534,,2,3.0
AsAgPt2,0.0,-0.0480621,,2,3.0
LiO4FSNi,0.9431,-0.0090289,,2,3.0
SiCdLa2,0.0,-0.0321867,,2,3.0
Sc4Ru2Tl5,0.0,-0.0447894,,2,3.0
Al3Hf2,0.0,-0.0301643,,2,3.0
O6MoCdTe,3.0409,-0.0172018,,2,3.0
Pd2CdNd,0.0,-0.0355921,,2,3.0
CuAgPr2,0.0,-0.0335248,,2,3.0
FCaAgTe,1.3363,-0.0224875,,2,3.0
O7Cr2Gd2,0.0,-0.0208829,,2,3.0
ScYZr2,0.0,-0.0258342999999999,,2,3.0
O6NiPdLu2,0.6535,-0.0220635,,2,3.0
TiMnOs2,0.0,-0.0450586,,2,3.0
I2Sm2Pb,0.0,-0.048906,,2,3.0
Al2MnTm6,0.0,-0.0384652,,2,3.0
Y4Tl5,0.0,-0.0529975,,2,3.0
Al5Tc,0.0,-0.0126527999999999,,2,3.0
Mg2FeRu,0.0,-0.0157074,,2,3.0
Cl4Br2RhCs2,0.0,-0.0213597999999999,,2,3.0
LiTcDy2,0.0,-0.0333267,,2,3.0
ScLaPb2,0.0,-0.0529159,,2,3.0
Al2Sc2Cu,0.0,-0.0122453,,2,3.0
CaPd2Pm,0.0,-0.0305994,,2,3.0
NaInTl2,0.0,-0.0457145999999999,,2,3.0
Ga2NdPm,0.0,-0.0307229,,2,3.0
Na2KCd,0.0,-0.011811,,2,3.0
RhCeTl5,0.0,-0.0631321,,2,3.0
CSc2Pb,0.0,-0.0293564,,2,3.0
H8FeZn2Th,0.0,-0.0141559,,2,3.0
CuGeU,0.0,-0.0460743999999999,,2,3.0
BrSr2In2,0.0,-0.0272159,,2,3.0
F6SmPa,0.0,-0.0244419,,2,3.0
AsTe3Pr4,0.0,-0.0397934,,2,3.0
NiSr2Pt2,0.0,-0.0409405,,2,3.0
F6EuAu,0.0,-0.0203171,,2,3.0
CClSm2,0.0,-0.028016,,2,3.0
KHg2Bi2,0.0,-0.0605681,,2,3.0
LiTe2Np,0.0,-0.0467203999999999,,2,3.0
Rb2SrSb2Hg,0.0233,-0.0350684,,2,3.0
ZnAgAu,0.0,-0.0381561,,2,3.0
NaSi2Au2,0.0,-0.0327753999999999,,2,3.0
PFeZr,0.0,-0.020772,,2,3.0
OTi3In,0.0,-0.0188399,,2,3.0
P2NiEr2,0.0,-0.0290304,,2,3.0
O6VCsW,1.7798,-0.0204519,,2,3.0
MnNiZn,0.0,-0.0162526,,2,3.0
LiAs2ErIr2,0.0,-0.0400377,,2,3.0
H8Mg2CrHo,0.0,-0.0090666,,2,3.0
Na3Ag,0.0,-0.0109762,,2,3.0
O6KIBa2,2.9862,-0.0181018,,2,3.0
Cr2Te3,0.0,-0.03018,,2,3.0
In3La3Pt2,0.0,-0.0472528999999999,,2,3.0
MgSb2Pb,0.0321,-0.0388992,,2,3.0
H7O3Br,4.0192,-0.0066056,,2,3.0
CuLu2Os,0.0,-0.0499467,,2,3.0
Ti3Hg,0.0,-0.0293382,,2,3.0
RuSn2Th6,0.0,-0.0762753,,2,3.0
FeTa,0.0,-0.0425090999999999,,2,3.0
Li2Cu3Ga,0.0,-0.0113225,,2,3.0
P2Pd2U,0.0,-0.0385687,,2,3.0
MgIn3Ba,0.0,-0.0294536,,2,3.0
Na2K2Cs,0.0,-0.0124985,,2,3.0
As2RuNp,0.0,-0.0459861,,2,3.0
Si2AgTh,0.0,-0.0372590999999999,,2,3.0
OZnTm3,0.0,-0.0365297,,2,3.0
B6Mn2Fe,0.0,-0.0112745,,2,3.0
Si4Sc3Rh4,0.0,-0.0209453,,2,3.0
C6N6MnFeCs2,0.0,-0.0145326,,2,3.0
O4BrSb2Tm,0.5768,-0.0235125,,2,3.0
MnZn2Er3,0.0,-0.0330423,,2,3.0
SCo,0.0,-0.0138147,,2,3.0
ClBa2Bi,0.5948,-0.0431027,,2,3.0
LiBaPt,0.0,-0.0379807,,2,3.0
BCo3In,0.0,-0.018503,,2,3.0
H2O5PKNi,0.9629,-0.0091893,,2,3.0
Na2Ge2Pt,0.0,-0.0238222999999999,,2,3.0
PTiMo,0.0,-0.0214222,,2,3.0
Li2AlZn,0.0,-0.0067615,,2,3.0
GaOs2U2,0.0,-0.0737232999999999,,2,3.0
BNCoTb,0.0,-0.0213806,,2,3.0
CuZnTh,0.0,-0.0418087,,2,3.0
InHoAu,0.0,-0.0514157,,2,3.0
As2RhU2,0.0,-0.0568447,,2,3.0
LiO3F5Ni5,0.1163,-0.0104392999999999,,2,3.0
Sr3Ag,0.0,-0.0246765,,2,3.0
NNiHf3,0.0,-0.0438314,,2,3.0
KCaPb4,0.0,-0.0538678,,2,3.0
TcRuRh2,0.0,-0.0343844,,2,3.0
Al3Ge2IrPu3,0.0,-0.0520011,,2,3.0
LiBa2Au2,0.0,-0.0446505,,2,3.0
O14Nd2Bi7,0.0,-0.0331271,,2,3.0
H3MgK,2.3714,-0.0051040999999999,,2,3.0
Y2Rh2Pb,0.0,-0.0406525,,2,3.0
B3N6NaBa4,1.986,-0.0183642,,2,3.0
F6NbAu,1.5241,-0.0178175,,2,3.0
Ba2In2S5,1.867899999999999,-1.582398072175922,mp-22841,2,3.0
Cu4ErPb,0.0,-0.0313113,,2,3.0
F6CaIr,0.0,-0.0153232,,2,3.0
O6Ba2TaNp,0.0,-0.0321501,,2,3.0
F8Na2CaTh,6.9397,-0.0157352,,2,3.0
O4NbCe,0.0,-0.0203888,,2,3.0
CTi2Cd,0.0,-0.0187802,,2,3.0
Al8Cr4La,0.0,-0.0139615,,2,3.0
CGe2Mo2Dy2,0.0,-0.031156,,2,3.0
LiLa2Tl,0.0,-0.0406124999999999,,2,3.0
MgCd2Er,0.0,-0.0294408,,2,3.0
LiBrSb2,0.8411,-0.024832,,2,3.0
ScRu2Hf,0.0,-0.0375049,,2,3.0
CaSe2Hg,1.326,-0.0306517,,2,3.0
CSi2Cr2Er,0.0,-0.0200341,,2,3.0
PdTmPt2,0.0,-0.0574004,,2,3.0
ZnLaTl2,0.0,-0.0506845,,2,3.0
Si3FeY,0.0,-0.0157355,,2,3.0
O6Pd3Cd,0.0,-0.0174196,,2,3.0
Zn2PrAc,0.0,-0.0405148,,2,3.0
LiLa2Tl2,0.0,-0.0471882999999999,,2,3.0
CuY2Cd,0.0,-0.0256693,,2,3.0
Cl6CuRb2Er,2.5102,-0.0174925,,2,3.0
BCCuTh,0.0,-0.0325163,,2,3.0
Al3PdBa,0.0,-0.0196416,,2,3.0
MoRuPt2,0.0,-0.0527653,,2,3.0
NaP2Mn2,0.0,-0.0128791,,2,3.0
Tm2Os,0.0,-0.0589907,,2,3.0
TcIrPu2,0.0,-0.0816538999999999,,2,3.0
InGd3,0.0,-0.0528757,,2,3.0
PtAu5,0.0,-0.0692852,,2,3.0
KNiSn2,0.0,-0.0242977999999999,,2,3.0
Co2Y2Hg,0.0,-0.0319541,,2,3.0
Ni8Cd,0.0,-0.0176524,,2,3.0
Ni2Ge2Hf,0.0,-0.0272006,,2,3.0
O3FeRb3,0.2818,-0.0157363,,2,3.0
ZrCd2Pb,0.0,-0.0420226,,2,3.0
Co2Ga3Dy3,0.0,-0.0288935,,2,3.0
Al2BrLa2,0.0,-0.0252519,,2,3.0
Si4Zn4Sm3,0.0,-0.0212939,,2,3.0
NiHf,0.0,-0.0399983999999999,,2,3.0
Zn3Rh2Pr,0.0,-0.0258049999999999,,2,3.0
AlSiNi2,0.0,-0.0131842,,2,3.0
F3KZn,3.6314,-0.0092664,,2,3.0
Dy3Pb2,0.0,-0.0596791,,2,3.0
Cl6Rb2AgPr,3.2736,-0.0184044999999999,,2,3.0
MgPmPt2,0.0,-0.0483884,,2,3.0
MgScRh4,0.0,-0.0262988,,2,3.0
LiO6Cr2Co,0.0,-0.0113659,,2,3.0
KCs2Bi,0.04,-0.0410838,,2,3.0
Be4NbMo,0.0,-0.0145044,,2,3.0
N3CoY,0.1595,-0.0152396999999999,,2,3.0
GaRh2Nd2,0.0,-0.0350955,,2,3.0
B2O6InBa,0.0,-0.0149194999999999,,2,3.0
O6Sr3Nb,0.0,-0.0165914,,2,3.0
LiSrSn,0.0,-0.0207939,,2,3.0
Si2PdPr,0.0,-0.0249491,,2,3.0
Si2CuNb,0.0,-0.0175397,,2,3.0
Li8K,0.0,-0.0029706999999999,,2,3.0
O5Cu2BaHo,0.0,-0.0188036,,2,3.0
MgZnLu,0.0,-0.0249227,,2,3.0
MgCuTb,0.0,-0.0225546,,2,3.0
HLiO3PTl,4.0048,-0.017157,,2,3.0
Li2Ga2Cd,0.0,-0.0138266,,2,3.0
Mg2GaRh,0.0,-0.0155953999999999,,2,3.0
Al5Pd2Ho,0.0,-0.0199525,,2,3.0
CaZnGa3,0.0,-0.0149059,,2,3.0
Cl3KTl,0.6773,-0.0222627,,2,3.0
Cl3MnTl,0.6503,-0.024301,,2,3.0
NaGaTl2,0.0,-0.0413744999999999,,2,3.0
AlP2Sb,0.0,-0.0165503,,2,3.0
Al2CoTb,0.0,-0.0204043,,2,3.0
O3Na2Pd,1.0543,-0.0112836999999999,,2,3.0
O6CaRhBa2,0.0,-0.0182658,,2,3.0
O12Mg3Si4,0.0156,-0.0096274,,2,3.0
CCaRh3,0.0,-0.0244993,,2,3.0
Be3Cu4,0.0,-0.0106691,,2,3.0
GaInHg2,0.0,-0.0464392,,2,3.0
MgAlNd,0.0,-0.0191176,,2,3.0
CoRu2Ho3,0.0,-0.0393949,,2,3.0
NiNb6Sn2,0.0,-0.0320422,,2,3.0
C2Tm3Pb,0.0,-0.0424852,,2,3.0
O2SrAg,0.0,-0.0182205,,2,3.0
H2NiMo,0.0,-0.0143794,,2,3.0
F6CeLu,0.0,-0.0193875,,2,3.0
F6NaMnTl2,0.0,-0.0213445,,2,3.0
Co2SnTm,0.0,-0.0309015,,2,3.0
NaCl6Cs2Ce,0.0,-0.0195666,,2,3.0
FeSe2Tm6,0.0,-0.0417763,,2,3.0
F6MnTl,0.0,-0.0162914,,2,3.0
Mg2Rh2In,0.0,-0.0226864,,2,3.0
Al3FeSn2Dy3,0.0,-0.0291115,,2,3.0
Al3Si2PdEu3,0.0,-0.0269879,,2,3.0
Cl6Te4Ta,0.0,-0.024791,,2,3.0
SiCl6Rb2,3.1126,-0.0127455,,2,3.0
N2NbHf,0.0,-0.0301259,,2,3.0
Ca2AuBi,0.1399,-0.0427197,,2,3.0
Al2MnTa6,0.0,-0.048276,,2,3.0
B2O6ScEu,0.0,-0.0151385,,2,3.0
N2CeTm,0.0,-0.0306399,,2,3.0
GaHo2Pt,0.0,-0.0471893,,2,3.0
Ga2RbHg2,0.0,-0.0380951999999999,,2,3.0
B2Ru2Gd,0.0,-0.0292549,,2,3.0
CuRuNd2,0.0,-0.0345071999999999,,2,3.0
Zn3Pr2,0.0,-0.0257885,,2,3.0
AsZrPr,0.0,-0.032493,,2,3.0
Ga2Rh3Nd,0.0,-0.0304786,,2,3.0
Si2CuNp,0.0,-0.0357177999999999,,2,3.0
Br2Tb2Pb,0.0,-0.0431096999999999,,2,3.0
LiBeAs,0.9276,-0.0095472,,2,3.0
RhSb2,0.0434,-0.0366581,,2,3.0
CuTc2,0.0,-0.0283789,,2,3.0
Sc2CuAs2,0.0,-0.0179542,,2,3.0
GeYAg,0.0,-0.0268671,,2,3.0
V3Rh5,0.0,-0.0281037,,2,3.0
AlSiAc2,0.0,-0.0499157,,2,3.0
O4CeHo,0.0,-0.0231216,,2,3.0
BeSiTb,0.0,-0.0210716,,2,3.0
H3O2Cs,4.4921,-0.0114117,,2,3.0
Al2GaHf,0.0,-0.0240932999999999,,2,3.0
MgKHg2,0.0,-0.0377054,,2,3.0
H4Rh3Er,0.0,-0.0210396,,2,3.0
NaBa3Pt,0.0,-0.0390789,,2,3.0
AgInEu2,0.0,-0.0434598,,2,3.0
O6Sr2RhPr,0.0,-0.0182981,,2,3.0
Mg4In3,0.0,-0.0172601,,2,3.0
Si3Zn6U2,0.0,-0.0289674,,2,3.0
S3MnCs2,0.1421,-0.0216274,,2,3.0
Rh2Sm2Pb,0.0,-0.0472517,,2,3.0
CuBa2Hg,0.0,-0.0408976,,2,3.0
TiVAs,0.0,-0.0187868,,2,3.0
Al2YHg2,0.0,-0.0364465,,2,3.0
Ca2Pb3,0.0,-0.0499282,,2,3.0
Mg2CaTh,0.0,-0.0287902,,2,3.0
Zr5Nd,0.0,-0.0327548999999999,,2,3.0
MgZn2Ho2,0.0,-0.0263543999999999,,2,3.0
AlS4ClBi2,1.7953,-0.0271351,,2,3.0
H4Zr2Pd,0.0,-0.0159436999999999,,2,3.0
O4ErTa,3.9655,-0.0272162,,2,3.0
Dy3Hg2,0.0,-0.0565445,,2,3.0
S3Cu2Hf,0.4904,-0.0213198,,2,3.0
LiP2Cu2Pr,0.0,-0.0170298,,2,3.0
CdSm3,0.0,-0.0411157,,2,3.0
Ga2RuCe,0.0,-0.0287259,,2,3.0
PCaGe,0.0,-0.0138181,,2,3.0
GeBr2Pu2,0.0,-0.0565138,,2,3.0
CoGaEr,0.0,-0.0284739,,2,3.0
CoBr4Tl2,0.0,-0.0349239,,2,3.0
PSc,0.0,-0.0139919,,2,3.0
SnOs2Th2,0.0,-0.0746875,,2,3.0
CHo2Bi,0.0,-0.0473915,,2,3.0
NiCuTm,0.0,-0.0280484,,2,3.0
Co2NiCu,0.0,-0.0164404,,2,3.0
P4Th3,0.1027,-0.0485598999999999,,2,3.0
Fe3Dy,0.0,-0.0255131,,2,3.0
Li4O8CrMn3,0.0,-0.0105876,,2,3.0
O6AsSr2Nd,3.3906,-0.0173442,,2,3.0
F4MgK2,6.5721,-0.0084827,,2,3.0
AsI2Pr2,0.0,-0.037737,,2,3.0
CN2FCe,0.0,-0.0171587,,2,3.0
SnSm2Pt3,0.0,-0.0570508,,2,3.0
GeAu5,0.0,-0.0607592,,2,3.0
S3Se3Bi4,0.9851,-0.0406271,,2,3.0
AsRhPr,0.0,-0.0336751999999999,,2,3.0
P2HoOs2,0.0,-0.0435778,,2,3.0
AlBrTb,0.0,-0.0258307,,2,3.0
ZnInLa2,0.0,-0.0337899,,2,3.0
Si2Rh3La,0.0,-0.0285542,,2,3.0
SiVZr,0.0,-0.0201903,,2,3.0
PrPtBi,0.0,-0.0652596,,2,3.0
CaNiTe2,0.0,-0.0258567,,2,3.0
GePd3U2,0.0,-0.0544234,,2,3.0
Pd2W,0.0,-0.0451332,,2,3.0
Ga2AgCs,0.0,-0.0255726,,2,3.0
AlMn2Mo,0.0,-0.0200166,,2,3.0
Mg8CaZn4,0.0,-0.0081161,,2,3.0
HCo3Rh,0.0,-0.0177251,,2,3.0
Si2Y2In3,0.0,-0.0256359,,2,3.0
O4AgRe,1.8356,-0.0225576,,2,3.0
Br3TeCs,1.3938,-0.0276679,,2,3.0
SAs3In4,0.0,-0.0257526,,2,3.0
Ca2Rh2Pb3,0.0,-0.0453709,,2,3.0
F6LuHg,0.0,-0.020751,,2,3.0
GaPrPt2,0.0,-0.0511195,,2,3.0
CeTl,0.0,-0.0588986,,2,3.0
Lu3Pt2Tl3,0.0,-0.0663581999999999,,2,3.0
O4InBa2,0.0,-0.0218827,,2,3.0
SrAgTe3Dy,0.6141,-0.0368624,,2,3.0
NOEr6Pb2,0.0,-0.0482823,,2,3.0
GaSnLa,0.0122,-0.0326045,,2,3.0
MnOsIr2,0.0,-0.0582795,,2,3.0
FeIEr,0.0,-0.0357663,,2,3.0
Fe2Co2Y,0.0,-0.0198128999999999,,2,3.0
Pd2Dy3Tl3,0.0,-0.0539968999999999,,2,3.0
K2Ag2Au,0.0,-0.0298067,,2,3.0
Li4O12MnSb2W,0.9715,-0.0143634,,2,3.0
Ir7Pa,0.0,-0.0750115,,2,3.0
O5Se2Zr2Pr2,1.5672,-0.0232448,,2,3.0
ClTcSn3,0.5024,-0.0304805,,2,3.0
F6Na2Er,0.0,-0.0121380999999999,,2,3.0
Sc2GaPt,0.0,-0.0298645999999999,,2,3.0
F6MgBa,0.8621,-0.0111167,,2,3.0
Se4Ag2SnHg,0.0275,-0.031126,,2,3.0
Zr6SnSb2,0.0,-0.033414,,2,3.0
SeBr2Y2,0.0,-0.0248842999999999,,2,3.0
NaSr3Pd,0.0,-0.021079,,2,3.0
RbRh2Bi2,0.0,-0.0493786,,2,3.0
FK3Se,2.289,-0.0116534999999999,,2,3.0
F4IrTl,1.0599,-0.0278986,,2,3.0
NaS6Zr3,0.0,-0.0171576999999999,,2,3.0
MoTcSb,0.0,-0.035749,,2,3.0
H4O10P2Ca2Mn,2.2898,-0.0094356,,2,3.0
Si3Mn2Cu,0.0,-0.013864,,2,3.0
NaBa2Pb2,0.0,-0.0475923,,2,3.0
BRu6U2,0.0,-0.0474825,,2,3.0
CAl2As,0.0,-0.0115124999999999,,2,3.0
YDyBi,0.0,-0.0521462,,2,3.0
Ge2Ba2Pb,0.0,-0.0391901,,2,3.0
Si2CoNd5,0.0,-0.0322918,,2,3.0
FeRh2Ir,0.0,-0.0393412,,2,3.0
MgSn2Pu,0.0,-0.0468685,,2,3.0
AlLuHg2,0.0,-0.0502804,,2,3.0
CdHoPt2,0.0,-0.0558965,,2,3.0
O11FMg3AlSi3K,0.5156,-0.0096739,,2,3.0
LiHfHg2,0.0,-0.0506497,,2,3.0
TiVRu2,0.0,-0.0264076,,2,3.0
O8As2Ag3,0.0,-0.0148655,,2,3.0
GaPdPa,0.0,-0.0502132999999999,,2,3.0
TiGe3Th,0.0,-0.0345183,,2,3.0
RuTe2Nd6,0.0,-0.0420242,,2,3.0
AgCe2Tl,0.0,-0.0484898999999999,,2,3.0
O6ZrBa2Pr,0.0,-0.0222382,,2,3.0
C2CrPr,0.0,-0.0206360999999999,,2,3.0
FeTa2Pt,0.0,-0.0557582,,2,3.0
Ni4SnTb,0.0,-0.0249134,,2,3.0
OPCdTh,0.8923,-0.0377025,,2,3.0
AsHo2Bi,0.0,-0.0504787,,2,3.0
CuGeHo,0.0,-0.0285387,,2,3.0
FeZrTa,0.0,-0.0385349,,2,3.0
H4PdLa,0.0,-0.0155334,,2,3.0
O6AgBa2Lu,0.414,-0.0225701,,2,3.0
Al2CuHf6,0.0,-0.0454471,,2,3.0
CdIn2Ir2,0.0,-0.0479659,,2,3.0
SiAu3,0.0,-0.0543757999999999,,2,3.0
Cd2Pt2Hg,0.0,-0.0540953999999999,,2,3.0
H5Nd2Os,0.0,-0.0225985,,2,3.0
H4O7Na2Te2,3.5867,-0.0106773,,2,3.0
InI2,0.0,-0.0360471999999999,,2,3.0
Ru2PdHo3,0.0,-0.0422775,,2,3.0
Fe5Ho,0.0,-0.0232712,,2,3.0
Cd3Hg5,0.0,-0.0539848,,2,3.0
OTi3Pt,0.0,-0.026626,,2,3.0
AgCd2Ce,0.0,-0.0343573,,2,3.0
RhWPt2,0.0,-0.0612635999999999,,2,3.0
BPt6U2,0.0,-0.0712407999999999,,2,3.0
NaSn2Ir2,0.0,-0.0438237,,2,3.0
LiCdPb,0.0,-0.0364027,,2,3.0
BYIr3,0.0,-0.0504424,,2,3.0
HoAu4,0.0,-0.0658443,,2,3.0
Na3KHg,0.0,-0.0179548,,2,3.0
SiZrIr,0.0,-0.0385527,,2,3.0
BN3Mg3,1.2927,-0.0082634,,2,3.0
PCuTa2,0.0,-0.0401976999999999,,2,3.0
F6MnMo,0.0,-0.0119858,,2,3.0
Al3Ho4,0.0,-0.0316371,,2,3.0
ClSr2Au,0.0292,-0.0318928,,2,3.0
K2CuTe2,0.0,-0.021987,,2,3.0
Ni2SbHf2,0.0,-0.0396133,,2,3.0
Cu2Ga3Pr,0.0,-0.0209625,,2,3.0
Li2RbSb,0.8026,-0.016331,,2,3.0
AlBr3Ce3,0.0,-0.0298114999999999,,2,3.0
NiSb2Pr2,0.0,-0.0365285,,2,3.0
CaTcLa2,0.0,-0.0326702,,2,3.0
Li2OF3Mn,0.9669,-0.0084982,,2,3.0
Mg2SeTe,2.246,-0.0180258,,2,3.0
LiGaRh2,0.0,-0.0221418,,2,3.0
Li3O6V2Fe,0.0,-0.0104429,,2,3.0
MgPbPu,0.0,-0.063756,,2,3.0
OF5Cs2Ta,4.9761,-0.0217118,,2,3.0
Al4Nb2Hf,0.0,-0.0232441,,2,3.0
Al2Y2Ag,0.0,-0.0209864,,2,3.0
CaHgPb2,0.0,-0.0577755,,2,3.0
PMnTa,0.0,-0.0324908,,2,3.0
LiO6NbW,2.3755,-0.0183400999999999,,2,3.0
HK2Br,3.7044,-0.0109334,,2,3.0
CoMoIr2,0.0,-0.0488571,,2,3.0
RhPdPm2,0.0,-0.0394638,,2,3.0
MgSc3Cd2,0.0,-0.0183912,,2,3.0
Se4Ag2SnEu,0.0,-0.0297996,,2,3.0
Ga3Rh2Er2,0.0,-0.031987,,2,3.0
BNi6Y2,0.0,-0.0181697,,2,3.0
CrSm6Bi2,0.0,-0.0496229,,2,3.0
O3NiNd,0.0,-0.0182353,,2,3.0
MgS7Ho4,0.8275,-0.0245833,,2,3.0
LiMgZn,0.0,-0.0071172,,2,3.0
SiNiRu,0.0,-0.0208381,,2,3.0
MnCo2Te3,0.0,-0.0276091,,2,3.0
H6Ba2Pt,1.5016,-0.0195594,,2,3.0
Ti6PtPb2,0.0,-0.0357636,,2,3.0
O2ZnBr2Pb2,2.1922,-0.0321385,,2,3.0
YRh2Ta,0.0,-0.0411983,,2,3.0
KNiHg3,0.0,-0.0459819,,2,3.0
Si2Ru3Pr,0.0,-0.0286776,,2,3.0
Zn2Rh3Ba,0.0,-0.0282942,,2,3.0
CaCdPb,0.0,-0.0392158,,2,3.0
ClZnBr,3.2918,-0.0146999,,2,3.0
Si4Tb3Au4,0.0,-0.0424435,,2,3.0
H3SrTc,0.0,-0.0138616,,2,3.0
Pd2Sm3Hg,0.0,-0.0453222999999999,,2,3.0
OClV,0.0,-0.0127337,,2,3.0
ZnIHf,0.0732,-0.0381610999999999,,2,3.0
O6AlSr2Ta,3.5832,-0.0190097999999999,,2,3.0
GaRh2Pr,0.0,-0.0325539,,2,3.0
TiMnTe4,0.0,-0.0310871,,2,3.0
H3SiI,3.6179,-0.0115266999999999,,2,3.0
Ge2Y2Pt,0.0,-0.0339549,,2,3.0
CoSbPu,0.0,-0.0552024,,2,3.0
MgGeSe4Rb2,1.9229,-0.0193389,,2,3.0
FeNi2Tb,0.0,-0.0245862,,2,3.0
P5Np,0.0,-0.026779,,2,3.0
Sc3Ga3Ir2,0.0,-0.0301023999999999,,2,3.0
AlSiLu,0.0,-0.0249824,,2,3.0
CrFe2Rh,0.0,-0.0222205,,2,3.0
LiF4Ho,7.9227,-0.0149613,,2,3.0
B2O3,6.3229,-0.0092935999999999,,2,3.0
Rh2InPu,0.0,-0.0531627,,2,3.0
O8Mo2RhCs,1.6884,-0.017881,,2,3.0
O7Gd2Hf2,3.4733,-0.0297785,,2,3.0
Cu2Sb2Eu,0.0,-0.0322150999999999,,2,3.0
KCuI3,0.0,-0.0273823,,2,3.0
Al5TmPt2,0.0,-0.0299102,,2,3.0
BRu6Th2,0.0,-0.0456955,,2,3.0
F3KIn,2.6037,-0.0131403,,2,3.0
Ti2CoGe2,0.0,-0.0181202,,2,3.0
Ni3Zn2,0.0,-0.0151752,,2,3.0
O2CdSn2I2,1.5433,-0.0278392,,2,3.0
NaS2Nb,0.6211,-0.0155377,,2,3.0
Zn8Ta,0.0,-0.0193807,,2,3.0
Sr3Rh2Tl3,0.0,-0.0443014,,2,3.0
FBrSn,2.6542,-0.0211897,,2,3.0
LiCa2Pd,0.0,-0.0139949999999999,,2,3.0
Zn2LaEu,0.0,-0.0313002,,2,3.0
CaCu2Cd2,0.0,-0.0203006999999999,,2,3.0
Fe4CuZr,0.0,-0.0197728,,2,3.0
O3ScLu,3.1331,-0.021567,,2,3.0
CdSmPt,0.0,-0.0493753,,2,3.0
Ti2SrIr2,0.0,-0.0401304,,2,3.0
Ag2HgAc,0.0,-0.0555938999999999,,2,3.0
Co2Ge2Lu,0.0,-0.0262154,,2,3.0
PSZr,0.0,-0.0183693999999999,,2,3.0
LiHoPt2,0.0,-0.0489927,,2,3.0
PdSnEr,0.0,-0.0407209999999999,,2,3.0
F10Al2Ca,0.5932,-0.0078598,,2,3.0
MnMoW2,0.0,-0.0480809,,2,3.0
Na2ZnPt2,0.0,-0.032824,,2,3.0
CoRuHo2,0.0,-0.0378827,,2,3.0
Al3BaIr,0.0,-0.0273801999999999,,2,3.0
Ga3Rh2Sm,0.0,-0.0276667,,2,3.0
Al3YPd,0.0,-0.0175838,,2,3.0
Ca3Ag,0.0,-0.0152515,,2,3.0
O8KV2FeAg2,0.0,-0.0142968,,2,3.0
CuEr2Hg,0.0,-0.0465062,,2,3.0
F6NaK2Np,0.0,-0.0180292,,2,3.0
S2Te3,0.0,-0.0260868,,2,3.0
Ca3Pd2In3,0.0,-0.0250012,,2,3.0
Si2DyAu,0.0,-0.034919,,2,3.0
Pd2BiTh,0.0,-0.060692,,2,3.0
Y2Pt2Bi,0.0,-0.0562022,,2,3.0
NiAs2Pr,0.0,-0.0259439,,2,3.0
CNSTl,1.6263,-0.0253356,,2,3.0
Ti3Hf,0.0,-0.027666,,2,3.0
BMn2Ga2Lu,0.0,-0.0224954999999999,,2,3.0
GeCdAu,0.0,-0.0396926,,2,3.0
NbRh2Au,0.0,-0.0428724,,2,3.0
LiFeSe2Cs,0.0,-0.0207416,,2,3.0
O3CoCd,0.0,-0.0144546,,2,3.0
AsTe3Ho4,0.0,-0.0424406,,2,3.0
SbLaSm,0.0,-0.0425598,,2,3.0
O8P2CsHo,0.0,-0.0156462,,2,3.0
MgPd2Hg,0.0,-0.0352,,2,3.0
Zr6RuPb2,0.0,-0.0416312,,2,3.0
BCNiY,0.0,-0.0160057,,2,3.0
ORhTm3,0.0,-0.0408872,,2,3.0
O7CaGe2Tm,0.0,-0.015491,,2,3.0
Cl8Y2Ba,3.8465,-0.0170731,,2,3.0
MnNi4Zr,0.0,-0.0193993,,2,3.0
O8Mo2GdTl,3.5763,-0.0232861,,2,3.0
Zn3Pd2In,0.0,-0.0235902999999999,,2,3.0
HNb3In,0.0,-0.0274432,,2,3.0
SnNd3,0.0,-0.0421978,,2,3.0
O8P2TiSr,2.578,-0.0120791,,2,3.0
B2Ir3Pa,0.0,-0.0553602,,2,3.0
Si2Tm2Ir,0.0,-0.0400378,,2,3.0
SbAu2Th,0.0,-0.0685659,,2,3.0
H6PdCs2,3.2345,-0.0146545,,2,3.0
OYCdSb,0.3579,-0.0272435,,2,3.0
LiAs2PrPt2,0.0,-0.0388455999999999,,2,3.0
Cl2AsLa2,0.0,-0.026689,,2,3.0
ZnPd2Tb,0.0,-0.0322521,,2,3.0
AlIr2Pa2,0.0,-0.0708226,,2,3.0
ClCoTh,0.0,-0.0414956999999999,,2,3.0
CrZn8,0.0,-0.0140688999999999,,2,3.0
N2Dy2Pt,0.0,-0.0385646,,2,3.0
LiBr6Rb2Er,4.177,-0.0230807,,2,3.0
S4GeSrAu2,0.6168,-0.0280722999999999,,2,3.0
O6CaBa2Ta,0.0,-0.0223218,,2,3.0
NiGe2Tb,0.0,-0.0260871999999999,,2,3.0
BNRhEu,0.0,-0.0271626,,2,3.0
Cu2AsPd2,0.0,-0.0234151999999999,,2,3.0
CuBa3,0.0,-0.0333969,,2,3.0
Li2NaIn2,0.0,-0.0154548,,2,3.0
O6MnRhBa2,0.0,-0.0189957,,2,3.0
Zn2GeRh2,0.0,-0.0231541,,2,3.0
LiF6TiSr,0.0,-0.0105616,,2,3.0
Sc4GeSe3,0.0,-0.0186619999999999,,2,3.0
Hf6IrBi2,0.0,-0.0676404,,2,3.0
MnGeIr2,0.0,-0.0452807,,2,3.0
PZnCs,0.7719,-0.0210852,,2,3.0
O6Ca2CrOs,0.1021,-0.0171241,,2,3.0
O6FeAsSr2,0.2955,-0.0143543,,2,3.0
CCo2Sn2Dy2,0.0,-0.0307601,,2,3.0
Rh3Lu,0.0,-0.0398518,,2,3.0
Li2Ni2Ge2Sr,0.0,-0.0143264999999999,,2,3.0
Cd2Pt3,0.0,-0.05446,,2,3.0
CoIr2U,0.0,-0.0662787,,2,3.0
O6Se2RbCs3,4.182,-0.0192841999999999,,2,3.0
LiY2Pt,0.0,-0.0328905,,2,3.0
Pd5Eu,0.0,-0.0366060999999999,,2,3.0