formula,bg,formation_energy,mp-id,fidelity,bg_category
C2FeGd,0.0,-0.024486,,2,3.0
PdCdIn,0.0,-0.0325437,,2,3.0
PtHg2,0.0,-0.0688889999999999,,2,3.0
Zn4Ba,0.0,-0.0189184,,2,3.0
Se2ZrCd,0.0,-0.0263153,,2,3.0
Ag5Pt,0.0,-0.0378382,,2,3.0
O7MgTe2Ba,2.0309,-0.0167663,,2,3.0
Na3S2Ag,2.1887,-0.0115329,,2,3.0
BGa2BaIr2,0.0,-0.0375122,,2,3.0
AlCuZr,0.0,-0.0183825,,2,3.0
O7Cs2CeTa2,0.0,-0.0276614,,2,3.0
F6GdEr,4.6507,-0.0205637,,2,3.0
B6Y2Ru,0.0,-0.0157641,,2,3.0
B2N3La3Ir2,0.0,-0.0327971,,2,3.0
H6Li3Ir,2.7404,-0.0104585,,2,3.0
GaI3,2.0817,-0.0321163999999999,,2,3.0
GaRh2In2,0.0,-0.030626,,2,3.0
S4Pr3,0.0,-0.0263808,,2,3.0
PMnCo,0.0,-0.0160364,,2,3.0
BSrRu2In2,0.0,-0.0280275,,2,3.0
Al2Pd2Sm,0.0,-0.0261192999999999,,2,3.0
Al5MnLu,0.0,-0.0163938,,2,3.0
Mn2NbTa,0.0,-0.0342709,,2,3.0
AlPCa2,0.0,-0.0101283,,2,3.0
O7Si2CaY,0.0,-0.0123537,,2,3.0
CuGe6Y2,0.0,-0.0210947,,2,3.0
OBr4NbPb,0.0,-0.028864,,2,3.0
Rh2CeLu,0.0,-0.0427369,,2,3.0
H2AlRb,1.0376,-0.009109,,2,3.0
O6RhInBa2,0.0,-0.0203741,,2,3.0
Ga3Sn2Er3Pt,0.0,-0.0388498,,2,3.0
GaGeNb6,0.0,-0.0295878,,2,3.0
BCo6Nb2,0.0,-0.0198207,,2,3.0
F6CdBi,0.0,-0.0183898,,2,3.0
Sc4Ni2Ga5,0.0,-0.0161902,,2,3.0
FeSn2Sm6,0.0,-0.0400586,,2,3.0
LiSrBi,0.5005,-0.0353306,,2,3.0
Y2TcCd,0.0,-0.0305281,,2,3.0
O6Y2Te,2.7071,-0.0172441999999999,,2,3.0
B2CRh2Pu,0.0,-0.0342576,,2,3.0
BF4I2CsPb,2.3436,-0.0254758,,2,3.0
MgCuSe3Pb,0.0,-0.0266345,,2,3.0
Si2Ti2Ta,0.0,-0.0244877,,2,3.0
CaCuSe3Tm,0.9509,-0.0244944,,2,3.0
F5NaBi,0.0,-0.0165904999999999,,2,3.0
F6BaOs,0.0,-0.019296,,2,3.0
O6SbEu2Tm,0.0668,-0.0262851,,2,3.0
CaIn3Pt,0.0,-0.036617,,2,3.0
BPt3Bi,0.0,-0.0595142,,2,3.0
LiO7MnAs2,0.0,-0.0111984999999999,,2,3.0
Be2NiY,0.0,-0.0134937,,2,3.0
Ge2RbIn2,0.0,-0.025256,,2,3.0
RhTbBi2,0.0,-0.0600584,,2,3.0
SiCr2Fe,0.0,-0.0164345,,2,3.0
HSc3Y,0.0,-0.0149059,,2,3.0
CaHgTl2,0.0,-0.0560043999999999,,2,3.0
AsHg,0.0,-0.0441533999999999,,2,3.0
CSi2Mo2Dy2,0.0,-0.0285621,,2,3.0
Ga2CdPt2,0.0,-0.0412821,,2,3.0
Co6As4Lu,0.0,-0.0222019,,2,3.0
NTm2Tl,0.0,-0.0475856,,2,3.0
Zn3Er2,0.0,-0.0286283,,2,3.0
S4TiCrAg,0.0,-0.0159474,,2,3.0
In3BaAu,0.0,-0.0424133,,2,3.0
MnTe4Ta,0.0,-0.0392789,,2,3.0
Sc2Ga2Hf,0.0,-0.0252902999999999,,2,3.0
N2PdSm2,0.0,-0.0295289,,2,3.0
O3PdSm,0.0,-0.0213408,,2,3.0
Pd2CeBi,0.0,-0.0479035,,2,3.0
FeRe8,0.0,-0.0651284,,2,3.0
Zn2In2La,0.0,-0.0279244999999999,,2,3.0
Cu2SnAu2,0.0,-0.0409345,,2,3.0
NiSn2Tm6,0.0,-0.0448746,,2,3.0
P2CuMo,0.0,-0.0180258,,2,3.0
LiOsAc2,0.0,-0.0638033,,2,3.0
Ca2LaPt,0.0,-0.0338401,,2,3.0
O3CuSb,0.0,-0.0153591,,2,3.0
AgTe2Dy,0.7842,-0.0394095,,2,3.0
LiS2Sm,1.5783,-0.0185834,,2,3.0
Rh2NdBi2,0.0,-0.0541938999999999,,2,3.0
AlNiPr,0.0,-0.0229463,,2,3.0
Li2Pb3,0.0,-0.0466345,,2,3.0
H2NK,2.1782,-0.0065763,,2,3.0
SrErHg2,0.0,-0.0528631,,2,3.0
Zn2TbPt3,0.0,-0.0483042999999999,,2,3.0
NiSn2Nd,0.0,-0.0334879,,2,3.0
MgCl6K2Ag,0.0,-0.0116837,,2,3.0
H4O5NaSeCs,4.325,-0.0102502,,2,3.0
Ga2Zr2Cd,0.0,-0.0255081,,2,3.0
Pd4Sn6Sm,0.0,-0.0360283999999999,,2,3.0
SrSn2Sb2,0.0,-0.0341666,,2,3.0
Li2SeIr,0.0,-0.0244215,,2,3.0
NiMo2Rh,0.0,-0.0300086,,2,3.0
O6NbBa2Ho,2.9928,-0.0232156,,2,3.0
Ni2TcRu,0.0,-0.0255267,,2,3.0
NaKBrI,3.7265,-0.0188426,,2,3.0
NiZr2Tl,0.0,-0.0377473,,2,3.0
NiMoRh2,0.0,-0.0298141,,2,3.0
P2Mn2Y,0.0,-0.0180332,,2,3.0
F6GaGd,4.5883,-0.0155546,,2,3.0
Pd3Ho2,0.0,-0.0402132,,2,3.0
KRhSn2,0.0,-0.0288428,,2,3.0
Cl3CdTl,1.7757,-0.0265157,,2,3.0
AlPd5,0.0,-0.0290840999999999,,2,3.0
S4TeTh,0.9085,-0.0295873,,2,3.0
Ga2LaEr,0.0,-0.0321761,,2,3.0
Br3InTl,1.2313,-0.0336825,,2,3.0
CClNd2,0.0,-0.0275465,,2,3.0
F4AsRb,4.5064,-0.0117016,,2,3.0
Pd2Sn2Lu,0.0,-0.039342,,2,3.0
CTi,0.0,-0.0140158,,2,3.0
C8K,0.0,-0.0099514,,2,3.0
P2CaSn2,0.0,-0.0210117,,2,3.0
Ge2DyIr2,0.0,-0.0465776,,2,3.0
HNi2Cd,0.0,-0.0165033999999999,,2,3.0
SnTePu,0.0,-0.0616781,,2,3.0
OMg,4.5887,-0.0086166,,2,3.0
AlNi2Cu2,0.0,-0.0143688,,2,3.0
Al3Sn2Lu3Pt,0.0,-0.0377008999999999,,2,3.0
Ge2RhSn3Er3,0.0,-0.0374759,,2,3.0
Na2CaSr2,0.0,-0.0124695,,2,3.0
Te2Er7Pt2,0.0,-0.0527587,,2,3.0
O6Ba2CeBi,0.0,-0.0265943,,2,3.0
H16Mg6V,0.0,-0.0046282,,2,3.0
FeZn2Os,0.0,-0.0291652,,2,3.0
LiTeLa2,0.0,-0.0322838,,2,3.0
Mn2ZnPu,0.0,-0.0400313999999999,,2,3.0
CoBrLa2,0.0,-0.0316039,,2,3.0
O2LaAu,2.4803,-0.0335995,,2,3.0
O8P2SrIn,0.0,-0.0129807,,2,3.0
FeGa3Ge2La3,0.0,-0.0266971999999999,,2,3.0
PSNb,0.0,-0.0186238,,2,3.0
DyHg2Ac,0.0,-0.0692688,,2,3.0
Si2NiTb,0.0,-0.0216247,,2,3.0
MgSi6Ni6,0.0,-0.0129053,,2,3.0
O5Rb2Zr2,3.8065,-0.0179066,,2,3.0
CoNi2Ho3,0.0,-0.0331363,,2,3.0
ZnSmTl,0.0,-0.0439446999999999,,2,3.0
SSnNd,0.0,-0.0312447,,2,3.0
Al4Si2Sm3,0.0,-0.0210699,,2,3.0
Zr5Rh,0.0,-0.0315065,,2,3.0
Br3RbPb,1.7638,-0.0323078,,2,3.0
F6MoTl2,0.0,-0.0246492,,2,3.0
S4Ga2Hg,1.6231,-0.0205356999999999,,2,3.0
Na2InPt,0.0,-0.0283356,,2,3.0
Sc3Rh2Ir,0.0,-0.0314248,,2,3.0
AlScIn,0.0,-0.0188974,,2,3.0
Co4InHf,0.0,-0.0277008,,2,3.0
Si2PdHf2,0.0,-0.0365242999999999,,2,3.0
PCa2Au,0.0,-0.0258131999999999,,2,3.0
Co4Sm,0.0,-0.0227257,,2,3.0
SiS3Th4,0.0,-0.0544534,,2,3.0
Zn4CdEu,0.0,-0.0232128,,2,3.0
B2Tc2Rh,0.0,-0.0240388,,2,3.0
O12Cs2HfW3,2.6446,-0.0260517,,2,3.0
H2Y3,0.0,-0.018571,,2,3.0
ZnGeTb,0.0,-0.0272042,,2,3.0
RuAgEr2,0.0,-0.0422054,,2,3.0
Be2AlNb2,0.0,-0.0168174,,2,3.0
CrFe4Pt,0.0,-0.0270193,,2,3.0
Na2Cl8Mn3,1.6348,-0.0114929,,2,3.0
NaRhIn3,0.0,-0.0278924999999999,,2,3.0
GePrAu2,0.0,-0.0510025,,2,3.0
ZrHf,0.0,-0.046676,,2,3.0
PSe3Tl3,0.1851,-0.0414207,,2,3.0
SePt,0.0,-0.0455248,,2,3.0
Ca2Ba,0.0,-0.0195889,,2,3.0
GaPrAu,0.0,-0.0439335999999999,,2,3.0
Ag2Nd2Hg,0.0,-0.0440112999999999,,2,3.0
Zn2As2In,0.0,-0.020272,,2,3.0
AsTeNd,0.1142,-0.0350392,,2,3.0
YAgSn,0.0,-0.0324553,,2,3.0
As2PdHo,0.0,-0.0315078,,2,3.0
Al3Ho,0.0,-0.0185092,,2,3.0
CaSbCs,1.7326,-0.0291829,,2,3.0
S6Ti3V,0.0,-0.0138551,,2,3.0
H4LiO5SeRb,4.5168,-0.0087225,,2,3.0
Rh2AgSn4,0.0,-0.034959,,2,3.0
CaCuGa,0.0,-0.0141354,,2,3.0
Al5ZrOs,0.0,-0.0207449,,2,3.0
H2Zr2Tc,0.0,-0.0212521,,2,3.0
FeNiTe4,0.0,-0.0306982,,2,3.0
CoNiTe4,0.0,-0.0306481,,2,3.0
Fe2SnTm,0.0,-0.0313279,,2,3.0
LiNi2As2Y,0.0,-0.01805,,2,3.0
NiSe2Ba,0.0,-0.0252192,,2,3.0
NiDyPt2,0.0,-0.0520138,,2,3.0
LiBO4Ge,4.6532,-0.009965,,2,3.0
AsTc2Sb,0.0,-0.031904,,2,3.0
F8Cu2In,0.0,-0.0103461,,2,3.0
Ca2NiZn,0.0,-0.0124481,,2,3.0
GaPd2Dy2,0.0,-0.0364741,,2,3.0
Nd2Au2Pb,0.0,-0.0612453,,2,3.0
CaBa3,0.0,-0.0320605,,2,3.0
Ni2Pr3Tl3,0.0,-0.0478301999999999,,2,3.0
NiTb2Os,0.0,-0.0457489,,2,3.0
F7Zn2Rb3,4.0222,-0.0122876999999999,,2,3.0
Ni3Te4,0.0,-0.0284477,,2,3.0
B2AlSc2Ir5,0.0,-0.0417792,,2,3.0
SrSnTl2,0.0,-0.0510876,,2,3.0
GePd2Dy2,0.0,-0.0370486,,2,3.0
B2Mn2Sm,0.0,-0.0195589,,2,3.0
Rh2CdHo3,0.0,-0.0416613,,2,3.0
N2Ce2Pt,0.0,-0.0371224,,2,3.0
ScLuHg2,0.0,-0.0521559,,2,3.0
O6Sr2SbCe,0.0,-0.0192081,,2,3.0
Al9Cr2La,0.0,-0.0126067,,2,3.0
Li4O12FeNbTe2,0.4527,-0.0123886,,2,3.0
I3CsEu,0.7369,-0.0420896,,2,3.0
Co4TaAu,0.0,-0.0342059,,2,3.0
Co2CdDy2,0.0,-0.0322999999999999,,2,3.0
S4FeCu5,0.0,-0.0135199,,2,3.0
Mg2S8TiCr3,0.0,-0.0126516,,2,3.0
Se6Zr2Pd,0.0,-0.0248646,,2,3.0
ScNiGe,0.0,-0.0173539999999999,,2,3.0
Co4Ga2Zr3,0.0,-0.0219052,,2,3.0
CSc3Sn,0.0,-0.0186509,,2,3.0
TiZrAu,0.0,-0.0391218,,2,3.0
LiSiCu2,0.0,-0.0109324,,2,3.0
TiGeRu2,0.0,-0.0270475,,2,3.0
CuIn2,0.0,-0.0273770999999999,,2,3.0
SbTe2Pb,0.0,-0.0470411,,2,3.0
NiAg2Pt,0.0,-0.0372354,,2,3.0
LiOF3Co2,0.0,-0.0097797,,2,3.0
Be4FeRh,0.0,-0.011983,,2,3.0
Ga3Rh2Tb3,0.0,-0.0329367,,2,3.0
Ca2Pd3Pb,0.0,-0.0329429,,2,3.0
Li2SmTl,0.0,-0.0307991,,2,3.0
CuEuPb,0.0,-0.048642,,2,3.0
ScNiGa,0.0,-0.0163225,,2,3.0
Li2F8CaPb,3.0008,-0.0128321,,2,3.0
PCa3Br3,1.5013,-0.015951,,2,3.0
In2DyTm,0.0,-0.0421948999999999,,2,3.0
F6VTl2,0.0,-0.022959,,2,3.0
C2Pa,0.0,-0.0402074,,2,3.0
Fe2Lu2Pb,0.0,-0.0447565,,2,3.0
CaRhHg2,0.0,-0.045343,,2,3.0
Cd2InEu,0.0,-0.0373524,,2,3.0
ScAs2Ag,0.0,-0.0221953,,2,3.0
F6EuHg,0.0,-0.0202246,,2,3.0
N2MgNb,0.0,-0.015371,,2,3.0
O2AsBrSr,3.0009,-0.0169593,,2,3.0
CaAu,0.0,-0.0403919,,2,3.0
B2Mn,0.0,-0.0113804,,2,3.0
TmPt2,0.0,-0.0653862,,2,3.0
Fe2As2Eu,0.0,-0.0266004,,2,3.0
RuInTh,0.0,-0.0552098,,2,3.0
H4V2Hf,0.0,-0.0162882,,2,3.0
O3Dy2,3.9337,-0.026778,,2,3.0
O2Cl4Rb2Ru,1.3389,-0.0147887,,2,3.0
O3SiTc,0.0,-0.0142169,,2,3.0
O6MgBa2U,2.1387,-0.0258165,,2,3.0
ClMnLu,0.0,-0.0283876,,2,3.0
Ga2Zr2Ta,0.0,-0.0326903999999999,,2,3.0
Li2BO4Co,0.0132,-0.008869,,2,3.0
CCr3As,0.0,-0.0171778,,2,3.0
Ag3Tm,0.0,-0.0367157,,2,3.0
Ge4Rh4Ho3,0.0,-0.0336273,,2,3.0
Cd2Sb2Eu,0.0,-0.0383803,,2,3.0
MgP4Fe6,0.0,-0.0145237,,2,3.0
ScNi3Zn2,0.0,-0.0152856,,2,3.0
HO3SRb,4.7481,-0.010314,,2,3.0
Na2CdAu2,0.0,-0.0357831,,2,3.0
CdBa2Hg2,0.0,-0.0496709,,2,3.0
Sc2SeI2,0.0,-0.0259025,,2,3.0
NaCl6CdCs2,0.0,-0.017449,,2,3.0
O7P2CuZn,0.2061,-0.0105107,,2,3.0
MgIn4La,0.0,-0.0305323,,2,3.0
InIrTh,0.0,-0.0677014,,2,3.0
O3F3Rb3Mo,3.9878,-0.0152830999999999,,2,3.0
CrZr6Pb2,0.0,-0.0396043,,2,3.0
Ni2CeTl,0.0,-0.0376206,,2,3.0
RuBi2Pu,0.0,-0.0756188,,2,3.0
Li2F8ScSr,0.0,-0.0092334,,2,3.0
AlGa2Zr2,0.0,-0.0210488,,2,3.0
MgGaLa,0.0,-0.0220363,,2,3.0
AlScZr2,0.0,-0.0211003,,2,3.0
Co2Sn3Er3,0.0,-0.0371745,,2,3.0
Al3Lu2,0.0,-0.0272181999999999,,2,3.0
H3BNF4,7.9649,-0.0064595,,2,3.0
Ge2ErRe4,0.0,-0.0535957,,2,3.0
N3PNb,0.0,-0.0150199,,2,3.0
Al3Cu2Ba,0.0,-0.0158896,,2,3.0
LiRhNd2,0.0,-0.0312488,,2,3.0
SrSn2Bi2,0.0,-0.0506002,,2,3.0
OFEu,0.0,-0.0246531999999999,,2,3.0
Al2NiNb6,0.0,-0.0258113,,2,3.0
CuInHg,0.0,-0.0388669,,2,3.0
S4Ru3Cs2,0.2076,-0.0249621,,2,3.0
Al5PdCe,0.0,-0.0171529999999999,,2,3.0
Ru2Nd3Au,0.0,-0.0453946,,2,3.0
P2Ni2Zn,0.0,-0.0136540999999999,,2,3.0
ScZn2Os,0.0,-0.028654,,2,3.0
O3Na2Ni,0.6472,-0.0086544,,2,3.0
Rh2SnAc,0.0,-0.0492246,,2,3.0
GaPd2Eu,0.0,-0.034684,,2,3.0
MgAgIn,0.0,-0.0234071,,2,3.0
CoIn3Tl,0.0,-0.0379057,,2,3.0
O7Tc2,2.8288,-0.0140772,,2,3.0
LiP2Ni2U,0.0,-0.0272424,,2,3.0
B2Ru2Dy,0.0,-0.027088,,2,3.0
HScPb,0.0,-0.0317654,,2,3.0
Mg2NiZn,0.0,-0.0100794,,2,3.0
F7Na3Y,0.1216,-0.0090939,,2,3.0
B3MoHo,0.0,-0.0218958,,2,3.0
O6ZnSr2Os,0.0,-0.0188496999999999,,2,3.0
Co2Ge7Dy3,0.0,-0.0266202,,2,3.0
KBr3Tl,0.883,-0.0289705,,2,3.0
ScTc2In,0.0,-0.0296938,,2,3.0
O4AsGd,3.2543,-0.0198865,,2,3.0
Ti3Fe4Ge4,0.0,-0.0183202,,2,3.0
Sc3Ge2RuIn3,0.0,-0.0245939,,2,3.0
LiY2Te2,0.0,-0.0276566,,2,3.0
SiCo2Mo,0.0,-0.0201179999999999,,2,3.0
Pd2CdTm3,0.0,-0.0427466,,2,3.0
Co2TbPu,0.0,-0.0478648,,2,3.0
Ga6HoIr,0.0,-0.0277814,,2,3.0
CSi2Co2Pr2,0.0,-0.0221757,,2,3.0
ClSbTe2,0.0,-0.0301972,,2,3.0
Fe4ZrSn,0.0,-0.0233688,,2,3.0
LiP2HoPt2,0.0,-0.0365629,,2,3.0
O3Rb2Pr,0.0,-0.0193558,,2,3.0
CaSbPb2,0.0,-0.0500619999999999,,2,3.0
F9Ba3Pr,5.936,-0.0190615999999999,,2,3.0
GeInPt2,0.0,-0.0488563,,2,3.0
SnPrAu,0.1748,-0.0505486,,2,3.0
SbPt5Tl,0.0,-0.0659516,,2,3.0
Ge2Ru2Ba,0.0,-0.0300641,,2,3.0
H6NiBa2,0.0,-0.0133956,,2,3.0
CaSnHg2,0.0,-0.0459423,,2,3.0
O3FFeSr2,0.0,-0.0149827,,2,3.0
O6YEu2Ta,0.0,-0.0273522,,2,3.0
AlZrRu,0.0,-0.0251899,,2,3.0
Te3Ba,0.718,-0.0388256,,2,3.0
LiMgY,0.0,-0.0117093,,2,3.0
MgPdIn2,0.0,-0.026587,,2,3.0
Na3CsHg,0.0,-0.0238473,,2,3.0
CuBr2Ag,0.3271,-0.0216784,,2,3.0
As2BrAg,0.058,-0.0229051,,2,3.0
Cl6Cs2Tb,0.0,-0.0209949,,2,3.0
SiHoTa,0.0,-0.0424898,,2,3.0
ZnAg2Pr3,0.0,-0.0346987,,2,3.0
S2RbSb,1.5732,-0.020134,,2,3.0
Cl5Zn,0.0,-0.0093529,,2,3.0
SeInLa2,0.0,-0.0362772,,2,3.0
LiCl6Rb2Zr,0.0,-0.0143161,,2,3.0
MgAg2,0.0,-0.0227552,,2,3.0
RhTb2,0.0,-0.0432009,,2,3.0
Se6Br2Ag,0.0,-0.0212828,,2,3.0
OMnAsPr,0.0,-0.0239743,,2,3.0
C3N3Al7,0.0,-0.0094433,,2,3.0
Ag5Hg4,0.0,-0.0476747,,2,3.0
SiPd2,0.0,-0.0259478,,2,3.0
NPm,0.0,-0.0283656,,2,3.0
OCuSeSb,0.0,-0.0202865,,2,3.0
P2Rh2Tm,0.0,-0.0292142,,2,3.0
Mg2CeAc,0.0,-0.0362303,,2,3.0
AlCo2Ga,0.0,-0.0151097,,2,3.0
Ga2Zr2Pd,0.0,-0.0262096,,2,3.0
Ca2ScAg2,0.0,-0.0194858,,2,3.0
AlCl3Gd3,0.0,-0.0312354,,2,3.0
CSi2Nd2W2,0.0,-0.0371697,,2,3.0
Rb2CsAu7,0.0,-0.0567124,,2,3.0
PAsLa2,0.0,-0.0309869999999999,,2,3.0
LiPBa2,0.0,-0.0237235,,2,3.0
O6Rh2Te,0.0,-0.0168276,,2,3.0
Ru2CdHo3,0.0,-0.0417035,,2,3.0
SiPd5Pb,0.0,-0.0361762999999999,,2,3.0
Ga2TbPt,0.0,-0.0385215999999999,,2,3.0
FeZn2Mo,0.0,-0.0198779,,2,3.0
RhDyAu2,0.0,-0.0558035,,2,3.0
C2Al2TiCr3,0.0,-0.0136978,,2,3.0
N3ReTh,0.0,-0.0398301,,2,3.0
F6Cs2Ho,0.0,-0.0194557,,2,3.0
Ga8Mo3,0.0,-0.0215873,,2,3.0
PNiHf,0.0,-0.030906,,2,3.0
NO5LaPb,2.1374,-0.0215651,,2,3.0
Li2Pd2La,0.0,-0.0232899,,2,3.0
NdIrTl,0.0,-0.0629041,,2,3.0
SiGa2Te,0.7485,-0.0201288,,2,3.0
Li4Pt,0.0,-0.0163743,,2,3.0
SnIr2Th,0.0,-0.0692232,,2,3.0
B3TiCo,0.0,-0.0118751999999999,,2,3.0
NiIr4,0.0,-0.0601228,,2,3.0
O4Na2W,4.9416,-0.0170288,,2,3.0
Tm3Os2Pt,0.0,-0.0623605,,2,3.0
Br8Sr3Ba,4.1228,-0.0242142,,2,3.0
GdHf5,0.0,-0.061948,,2,3.0
LiAs2SrPd2,0.0,-0.0226555,,2,3.0
O6RhBa2Pu,0.0,-0.02864,,2,3.0
SiNi2Ba,0.0,-0.020911,,2,3.0
LiCu2Sb2Tm,0.0,-0.027084,,2,3.0
Zn3Au4,0.0,-0.045514,,2,3.0
LuAu4,0.0,-0.067129,,2,3.0
P2Co3,0.0,-0.0149482,,2,3.0
ZnYCd,0.0,-0.0244169,,2,3.0
PIr2Ac,0.0,-0.0614672,,2,3.0
O2F4Rb2Mo,3.4601,-0.0141988,,2,3.0
Na2Ag2Hg,0.0,-0.0279303999999999,,2,3.0
O6FeRuPr2,0.0,-0.0201963,,2,3.0
Si2ErIr3,0.0,-0.0483534,,2,3.0
N2GdTb,0.0,-0.0329099,,2,3.0
Ti6MnSb2,0.0,-0.0213995999999999,,2,3.0
CSi2Fe2Tm2,0.0,-0.0249651,,2,3.0
F6AuPb,0.0,-0.0222931,,2,3.0
Si2Ga3Tm3Pt,0.0,-0.0336465,,2,3.0
YBi2,0.0,-0.0623005,,2,3.0
La4Os,0.0,-0.0489401999999999,,2,3.0
CaAgBa,0.0,-0.0270384,,2,3.0
K2CdAu,0.0,-0.029343,,2,3.0
F6AlCsTl2,4.4969,-0.0240615,,2,3.0
PCuPb,0.0,-0.0337865,,2,3.0
ZnRhDy2,0.0,-0.0364288,,2,3.0
Tl2(SeO4)3,1.4303,-1.086845915658701,mp-1208398,2,3.0
LiPTb,0.0,-0.0209693,,2,3.0
CaNi2Cu3,0.0,-0.0146813,,2,3.0
SiTc2W,0.0,-0.0378187,,2,3.0
Ru2Dy3Pt,0.0,-0.0480195999999999,,2,3.0
Ho2PbS4,2.1222,-1.9115662044642832,mp-1224555,2,3.0
P2Ni4Rb,0.0,-0.0155874,,2,3.0
Ag4Sn,0.0,-0.0322468999999999,,2,3.0
Rh3Ta4,0.0,-0.0529624999999999,,2,3.0
LiPt2,0.0,-0.0481141999999999,,2,3.0
Si2CeOs2,0.0,-0.0424706,,2,3.0
S2Ga2Te,2.0091,-0.0184767,,2,3.0
Al2Ni2Tb,0.0,-0.0195689,,2,3.0
Al3Ge2Dy3Os,0.0,-0.0316125,,2,3.0
Te2La6Os,0.0,-0.0458656,,2,3.0
I,0.9254,-0.0367404999999999,,2,3.0
Co3GeLu2,0.0,-0.0306848999999999,,2,3.0
C2O6KHo,4.214,-0.0138339999999999,,2,3.0
NaAgTe2,0.0438,-0.0279096,,2,3.0
ZnTe2Hg,0.1484,-0.0393675,,2,3.0
O6MgNiEu2,0.0,-0.0190399,,2,3.0
SmLu3,0.0,-0.0526118,,2,3.0
ScTiRu2,0.0,-0.0257608,,2,3.0
TcHf2Au,0.0,-0.0579977,,2,3.0
BeCuRh2,0.0,-0.0220701,,2,3.0
H3La,0.0,-0.0140571,,2,3.0
O6CaSnGd2,3.4361,-0.0230826999999999,,2,3.0
K3CrBr6,1.5296,-0.0175999,,2,3.0
Al3NiDy,0.0,-0.0181002,,2,3.0
CuHo6Tl2,0.0,-0.0507674,,2,3.0
Br4Pa,0.0,-0.0370242999999999,,2,3.0
YTaOs2,0.0,-0.0599859,,2,3.0
Zn2PdHf2,0.0,-0.0374657,,2,3.0
Cu2ErTm,0.0,-0.0334866,,2,3.0
FeRu2Sb,0.0,-0.0313752,,2,3.0
Si2CsPt2,0.0,-0.0402492,,2,3.0
Y2TlPb,0.0,-0.0516929999999999,,2,3.0
F6Rb3Gd,4.5663,-0.0176828,,2,3.0
NTi3In,0.0,-0.0191958,,2,3.0
BCNiHo,0.0,-0.0213001,,2,3.0
O4CuBa2Hg,0.0,-0.0252231999999999,,2,3.0
F6ZrIn,0.0,-0.0138944,,2,3.0
Al4HoAu,0.0,-0.0254447,,2,3.0
Be2Co2Ga,0.0,-0.0121674,,2,3.0
H8CaCrZn2,0.0,-0.006969,,2,3.0
CrSe2Tl,0.0,-0.0334437,,2,3.0
HLi2ZrSn,0.0,-0.0154405,,2,3.0
GaLaOs,0.0,-0.0442325,,2,3.0
BeWIr,0.0,-0.0487928,,2,3.0
S2NiRb2,0.5943,-0.0163736,,2,3.0
TmPb,0.0,-0.0644575,,2,3.0
Ga2CdSm2,0.0,-0.0310585,,2,3.0
Si2SrPt,0.0,-0.0290233999999999,,2,3.0
MgTmAu,0.0,-0.0428963,,2,3.0
Pd2Sn,0.0,-0.0343204,,2,3.0
Zr2CdSn,0.0,-0.0323764,,2,3.0
O4AsPb,0.0,-0.0213363,,2,3.0
Cd2SmDy,0.0,-0.0386897,,2,3.0
Cd3CsIr,0.0,-0.0400547,,2,3.0
F6NaSnTl2,0.0292,-0.0228799999999999,,2,3.0
Ni3YRh2,0.0,-0.0242925,,2,3.0
FeSr2Te,0.0,-0.0254392,,2,3.0
Cl6NiRb2Au,0.0,-0.0187391,,2,3.0
SbTeCe2,0.0,-0.0422852,,2,3.0
Y2RuPb,0.0,-0.0421899,,2,3.0
O8As3Cs,2.4586,-0.0138138,,2,3.0
CoCuRh,0.0,-0.0220267,,2,3.0
PZr2Hg,0.0,-0.0359545999999999,,2,3.0
Pd2GdAu3,0.0,-0.0558879,,2,3.0
Cr4Ni5,0.0,-0.0170504,,2,3.0
B2Ru3U,0.0,-0.0376165,,2,3.0
SiPd2Cd,0.0,-0.0270491,,2,3.0
Sr5Au,0.0,-0.0303803,,2,3.0
PBrNd2,0.0,-0.0309627,,2,3.0
AlCoZnHf,0.0,-0.025709,,2,3.0
Li3TiBi2,0.0,-0.0304473,,2,3.0
Cl3RbAu,0.5362,-0.0239201,,2,3.0
O2Zr,3.5802,-0.0181789999999999,,2,3.0
ClTeNd,0.2181,-0.0316776,,2,3.0
Cl6YAu3,2.1922,-0.0294285,,2,3.0
GaPtPu,0.0,-0.0662791,,2,3.0
LiCa2Cu,0.0,-0.0092408,,2,3.0
LiO6CaTePr,3.6119,-0.0155596,,2,3.0
H6RuGd2,0.0,-0.019826,,2,3.0
KGeBr3,2.6542,-0.018279,,2,3.0
O6MgPdNd2,1.912,-0.0189416,,2,3.0
ScTiPd2,0.0,-0.0246927999999999,,2,3.0
PTc3,0.0,-0.0291782,,2,3.0
LiP2Cu2Er,0.0,-0.0182007,,2,3.0
P2Zn,0.6781,-0.0117472999999999,,2,3.0
Y2RuAg,0.0,-0.0309458,,2,3.0
GaZrPt,0.0,-0.0403117,,2,3.0
F6MnSr,2.1436,-0.0110372,,2,3.0
Ca3Ag5,0.0,-0.0234272999999999,,2,3.0
Cu2TeI,0.0,-0.0261507,,2,3.0
CuCd2Tb,0.0,-0.0310233,,2,3.0
ZnIr2Pu2,0.0,-0.0756163,,2,3.0
BeSiAs2,0.8927,-0.01398,,2,3.0
GeRh3Dy2,0.0,-0.0370458,,2,3.0
O10Na3Co5,0.0,-0.0105369,,2,3.0
GdIrBi,0.0,-0.0702288,,2,3.0
KScCu2As2,0.0,-0.0162645,,2,3.0
OAsCdHo,0.7563,-0.0283693,,2,3.0
O2CdCs2,1.6931,-0.0249022,,2,3.0
GaTb3,0.0,-0.0394679,,2,3.0
PAsRh4,0.0,-0.0283508,,2,3.0
C2O6Na2Cr,0.0,-0.0094489,,2,3.0
Mg2Ca3Cu2,0.0,-0.0099621,,2,3.0
ZnAgTm2,0.0,-0.037558,,2,3.0
Be4ScFe,0.0,-0.0084736999999999,,2,3.0
CoZr2Ir,0.0,-0.0382278999999999,,2,3.0
S8Ti4Ni,0.0,-0.0134833,,2,3.0
Zn2GePt,0.0,-0.0294361,,2,3.0
Al3Sn2Tb3Ir,0.0,-0.0349645,,2,3.0
OIEr,3.3174,-0.0341032,,2,3.0
LiZn2Ce,0.0,-0.0187114,,2,3.0
CaCuLaIr,0.0,-0.0352648999999999,,2,3.0
SnEr2Pt2,0.0,-0.0567391,,2,3.0
RhIn3Sn2Lu3,0.0,-0.0420022,,2,3.0
TbPt,0.0,-0.0599624,,2,3.0
O6CuSnBa2,0.0,-0.0186358,,2,3.0
KIn2Tl,0.0,-0.0370121,,2,3.0
Y2InAu,0.0,-0.0404452,,2,3.0
GeTbTa,0.0,-0.0448099,,2,3.0
CGe2Mo2Tm2,0.0,-0.0322977,,2,3.0
Sr2Pd3Pb,0.0,-0.037085,,2,3.0
Sc2YIr2,0.0,-0.040658,,2,3.0
AlNi2Cu3,0.0,-0.0145162,,2,3.0
TeErBi,0.0,-0.0564257,,2,3.0
Si2CuGa3Dy3,0.0,-0.0259735,,2,3.0
PNiHf2,0.0,-0.0390347999999999,,2,3.0
CaZnCd,0.0,-0.018215,,2,3.0
GaRh2Cd2,0.0,-0.0293357,,2,3.0
Sc4Rh,0.0,-0.0185994999999999,,2,3.0
Na2CsTl2,0.0,-0.0383179,,2,3.0
AlSr2Pt,0.0,-0.0313489,,2,3.0
K2Se3Th,1.7472,-0.0305348,,2,3.0
Al6Si4Tb2Au,0.0,-0.0196483,,2,3.0
BrTe2Au,0.0,-0.0410537,,2,3.0
NMgCa3,0.0,-0.0091563,,2,3.0
Sn3Pu,0.0,-0.0546484999999999,,2,3.0
BRhPt,0.0,-0.0375171,,2,3.0
O8P2SbCs,3.1739,-0.0143726,,2,3.0
BRu6Hf2,0.0,-0.0384411,,2,3.0
F6CrNb,0.0,-0.0120634,,2,3.0
CaAgCd4,0.0,-0.0272557,,2,3.0
F8ClSb,3.2332,-0.0090342,,2,3.0
GaEu,0.0,-0.0355533,,2,3.0
Al7Ag2Tm3,0.0,-0.0231916,,2,3.0
Be2VRe2,0.0,-0.0340837,,2,3.0
ZnTaAu,0.0,-0.049926,,2,3.0
RhLaAu2,0.0,-0.0544618,,2,3.0
GeTm2Ir3,0.0,-0.0570711,,2,3.0
O4Pd3Cd,0.0,-0.0199895,,2,3.0
BrRuTb,0.0,-0.034805,,2,3.0
CrTc2Sb,0.0,-0.0314925,,2,3.0
LiO8Ti3V,0.0,-0.012036,,2,3.0
H8SrCd2Os,2.4595,-0.0154457,,2,3.0
NaAlGe,0.0,-0.0105843,,2,3.0
GeRu2Tb2,0.0,-0.0371012,,2,3.0
O4BrSb2Tb,0.5043,-0.0228454,,2,3.0
Mg2Ga2Tl,0.0,-0.0230863,,2,3.0
AlP2K3,0.9169,-0.0095543,,2,3.0
Si2Zr2Ta,0.0,-0.0304487999999999,,2,3.0
HLiO3Pr2,1.7556,-0.018649,,2,3.0
YInTl,0.0,-0.0450196,,2,3.0
LiBr3Sn,2.6313,-0.0204577,,2,3.0
MnIr2,0.0,-0.0537461,,2,3.0
O6TiCrPr2,0.0,-0.0191781,,2,3.0
SBrTb,2.6516,-0.0275302,,2,3.0
S3Ag2Pb,0.0539,-0.0280026,,2,3.0
MgZn2Rh2,0.0,-0.0202992,,2,3.0
CuSe2Pu,0.0,-0.0422859,,2,3.0
Si4Pd4Dy3,0.0,-0.0296142,,2,3.0
CrSeTe,0.0,-0.0257757,,2,3.0
Zn2In5Tm4,0.0,-0.0369868,,2,3.0
P4V,0.0,-0.0122081999999999,,2,3.0
Mg2PdHg,0.0,-0.0282767,,2,3.0
SeAg5,0.0,-0.0294849,,2,3.0
O5Te2Pr2Hf2,1.1501,-0.0320094,,2,3.0
Li4CaPb,0.0,-0.0161091,,2,3.0
ScZnAg,0.0,-0.0200515,,2,3.0
H5N2Cs,2.4623,-0.0096041,,2,3.0
O2ClMnBi,1.0597,-0.0249645,,2,3.0
LiPt2Au,0.0,-0.0533806999999999,,2,3.0
CoTl2Th6,0.0,-0.0821457,,2,3.0
Al3Ni2Ba,0.0,-0.0163808,,2,3.0
B2N4Ca3,1.2615,-0.0103104999999999,,2,3.0
Mg2TcRu,0.0,-0.0200123,,2,3.0
Se2CsSm,1.6959,-0.0325834,,2,3.0
As4Pd5Pb,0.0,-0.0323879,,2,3.0
NSiZr3,0.0,-0.0235972,,2,3.0
B4O12Al3Y,5.4028,-0.0109155,,2,3.0
PPrPt,0.0,-0.0428541,,2,3.0
CNb2Sb,0.0,-0.0288281,,2,3.0
LiCdTl2,0.0,-0.0444964,,2,3.0
MgY2Os2,0.0,-0.0411813,,2,3.0
AgSnEr2,0.0,-0.0425594,,2,3.0
S4Zn2Sn,1.5863,-0.0151725,,2,3.0
CuRuLa2,0.0,-0.0342866,,2,3.0
CoSnPu,0.0,-0.0545687,,2,3.0
AgSn4,0.0,-0.0348832,,2,3.0
AsSmTb,0.0,-0.0381969,,2,3.0
Cu2GaY,0.0,-0.0191063,,2,3.0
H8Mg2CrEu,0.0,-0.0094593,,2,3.0
LiAlZnIr,0.0,-0.0243563,,2,3.0
Mg4KAs3,0.9616,-0.0118494,,2,3.0
TaOs3,0.0,-0.0707506,,2,3.0
ZnPdTh,0.0,-0.0480963,,2,3.0
OBrNd,4.2153,-0.0262711,,2,3.0
Cu2Sm2Pb,0.0,-0.0395047,,2,3.0
Mg2GeAg,0.0,-0.0152746999999999,,2,3.0
SiNd2Ir2,0.0,-0.0488669,,2,3.0
S6K2As2Sn,1.2128,-0.0144116,,2,3.0
HCl,5.8831,-0.0062454,,2,3.0
KCu2Br3,1.4947,-0.0170152,,2,3.0
S3Tl2,0.0,-0.0347564,,2,3.0