formula,bg,formation_energy,mp-id,fidelity,bg_category
BCo3Ce,0.0,-0.0209498,,2,3.0
O6MnSbBa2,0.0,-0.0196513,,2,3.0
NiGe3Tb,0.0,-0.0247123,,2,3.0
Li3Ca4,0.0,-0.0065052,,2,3.0
NaAlCl6Cs2,4.1076,-0.0155993,,2,3.0
Cu2As3,0.0,-0.0181151,,2,3.0
Li3BO7SiV,0.0,-0.009203,,2,3.0
O3MnSm,0.0,-0.0193125,,2,3.0
BC2Pa2,0.0,-0.0458426,,2,3.0
NaP2Ni2Ce,0.0,-0.0178307,,2,3.0
H4O2Cl2Co,0.1114,-0.0075975,,2,3.0
As2YAu,0.0,-0.0351948999999999,,2,3.0
Sn2Pr,0.0,-0.0391216999999999,,2,3.0
BNi2,0.0,-0.0135550999999999,,2,3.0
CaRh4Tl,0.0,-0.0363267,,2,3.0
ZnRh2Pm,0.0,-0.0318118,,2,3.0
H6RhPu2,0.0,-0.0307936,,2,3.0
O6MgTePb2,2.3959,-0.0247196,,2,3.0
C2GeHf3,0.0,-0.0388687,,2,3.0
N3RhSm,0.0,-0.0218543,,2,3.0
CaRhBi2,0.0,-0.0506867,,2,3.0
NiInHo,0.0,-0.0334301,,2,3.0
PdSn2Dy,0.0,-0.0388474999999999,,2,3.0
SeAuPb2,0.0,-0.0604902,,2,3.0
Pd8Cd,0.0,-0.0326394,,2,3.0
FeY6Sb2,0.0,-0.0294752,,2,3.0
F6MgCu,0.0,-0.0073247999999999,,2,3.0
ScFe4Y,0.0,-0.0191726999999999,,2,3.0
CrGa3Ge2Y3,0.0,-0.0217417,,2,3.0
HO4SeRb,3.7454,-0.0110993999999999,,2,3.0
B2EuPt2,0.0,-0.0425133,,2,3.0
LiRhGd2,0.0,-0.0388942,,2,3.0
Nd5Ti5O17,0.0,-3.705216757469136,mp-1210776,2,3.0
GeRh2Ta,0.0,-0.0389223,,2,3.0
O6TiBa2Nd,0.0,-0.0207269,,2,3.0
AlCuZn2,0.0,-0.0126016999999999,,2,3.0
Li3O6TiCr2,0.0,-0.0107379,,2,3.0
MgAlSc,0.0,-0.0092494,,2,3.0
Cu3Ba2,0.0,-0.0248348,,2,3.0
Mg2GaAg2,0.0,-0.0179562,,2,3.0
O5MgPMn,0.6836,-0.010681,,2,3.0
MgS4CrMn,0.0,-0.0125997,,2,3.0
F6SiSr,7.435,-0.0104382,,2,3.0
MnGe3Th,0.0,-0.0347496,,2,3.0
O5Ti2Se2Gd2,0.0052,-0.0231458,,2,3.0
LiMgSiCu,0.0,-0.008334,,2,3.0
O5S2Hf2Np2,0.0,-0.0384312,,2,3.0
AlMnNiRh,0.0,-0.0197812,,2,3.0
ClCuPr,0.0,-0.0234114,,2,3.0
S3Cs2Np,0.0,-0.0367228,,2,3.0
Si4Cu4Tb3,0.0,-0.0226019,,2,3.0
RhTbBi,0.0,-0.0539493999999999,,2,3.0
O7Rb2Nb2Eu,0.0,-0.0198615,,2,3.0
O4Y2Hg,1.2956,-0.0240494,,2,3.0
AlSr2Rh2,0.0,-0.024567,,2,3.0
NdAu2Pb,0.0,-0.065163,,2,3.0
CN2ClSm,3.3126,-0.0176184,,2,3.0
CaBr4Ba,4.4463,-0.0235172,,2,3.0
Al4PdLu,0.0,-0.0205277,,2,3.0
HLu,0.0,-0.0299625,,2,3.0
RuSn2Sm6,0.0,-0.0420605,,2,3.0
Al3CoGe2Pr3,0.0,-0.0238686,,2,3.0
F6TmTl,4.084,-0.0212752,,2,3.0
B2CRh2Tm,0.0,-0.0247482,,2,3.0
H8N4Cl2Zn,4.3044,-0.0067301999999999,,2,3.0
Al5Ca5Sn,0.0,-0.0115926,,2,3.0
Li2S3Te,0.5535,-0.012619,,2,3.0
O6RhBa2Sm,0.0,-0.0220037999999999,,2,3.0
Li5PCl2Se4,1.4962,-0.0111491,,2,3.0
ZnSb2Er6,0.0,-0.0439801,,2,3.0
Zn2Er2Pb,0.0,-0.0412336,,2,3.0
N3ErW,1.05,-0.0307992999999999,,2,3.0
Si2Pt2Pu,0.0,-0.0550622,,2,3.0
HLiCuY2,0.0,-0.0156155,,2,3.0
Na2ZnGa,0.0,-0.0096067,,2,3.0
Al3Sn2Ho3Pt,0.0,-0.0356214,,2,3.0
O6Na2ZrTe,2.761,-0.0136486,,2,3.0
O6Sr2YSb,3.9337,-0.0176743,,2,3.0
Mg2AgDy,0.0,-0.0225487,,2,3.0
SiGeNb6,0.0,-0.0288502,,2,3.0
Na2GeAg,0.0,-0.0147698999999999,,2,3.0
N3MoGd,0.6674,-0.0253842,,2,3.0
PdIn6Bi2,0.0,-0.0434418,,2,3.0
Al4MnSr,0.0,-0.0121943,,2,3.0
Ru2DyHo,0.0,-0.0420575,,2,3.0
CaCo4Sn6,0.0,-0.0269037,,2,3.0
AlCuTm,0.0,-0.0254713,,2,3.0
TiZrMo4,0.0,-0.0311191,,2,3.0
O6VSr2Ta,0.0,-0.0198038,,2,3.0
Si2PtNp,0.0,-0.0499579999999999,,2,3.0
SnCePt,0.0,-0.0513907,,2,3.0
KCrNiTe3,0.0,-0.0263216,,2,3.0
Si3RhTh2,0.0,-0.0435585999999999,,2,3.0
O6PdBa2Nd,0.0,-0.0216128,,2,3.0
CCo2Ge2La2,0.0,-0.0247419,,2,3.0
SMoBi2,0.0,-0.0506926,,2,3.0
O4Cu2Se2ZrBi2,0.3449,-0.0271892,,2,3.0
Pd5Sm,0.0,-0.0352906,,2,3.0
FeGa5Dy,0.0,-0.0215216,,2,3.0
Al3Si2MnCe3,0.0,-0.0222290999999999,,2,3.0
MgCdCe,0.0,-0.0268842,,2,3.0
ZnAg2Ba2,0.0,-0.0312073,,2,3.0
Cl6RbW,0.0,-0.0185777,,2,3.0
O6MoBa2Hf,0.0,-0.0245173,,2,3.0
Ga3SrPd2,0.0,-0.0235328,,2,3.0
SbTbEr,0.0,-0.0456286,,2,3.0
O4CaSn2,1.3143,-0.0172429999999999,,2,3.0
CoGa3Sm2,0.0,-0.0264649,,2,3.0
Ga3Cs,0.0591,-0.0219412999999999,,2,3.0
ClY2Ru,0.0,-0.02575,,2,3.0
MgCoGe2,0.0,-0.0153224,,2,3.0
ZnAgTm,0.0,-0.0326278,,2,3.0
TiVMn2,0.0,-0.017821,,2,3.0
NOSn2Ho6,0.0,-0.039558,,2,3.0
AlPdSm,0.0,-0.0292912,,2,3.0
F6RhPu,0.0,-0.0233622,,2,3.0
SrRh2Cd2,0.0,-0.0303389999999999,,2,3.0
RhAgHo2,0.0,-0.0414734,,2,3.0
Cu4Cd3,0.0,-0.0216682,,2,3.0
ZnHo,0.0,-0.0316784,,2,3.0
Co4WPt,0.0,-0.0348155,,2,3.0
Ge2EuAu2,0.0,-0.046683,,2,3.0
MgTiRh2,0.0,-0.0230587,,2,3.0
Co2InPu2,0.0,-0.0575769999999999,,2,3.0
La5Pb,0.0,-0.0488718999999999,,2,3.0
Al7Tm3Au2,0.0,-0.0296869,,2,3.0
MnGe3La,0.0,-0.0242413,,2,3.0
OPr3Tl,0.0,-0.043271,,2,3.0
Si3ErOs,0.0,-0.0310715,,2,3.0
CoBrTh,0.0496,-0.0451535,,2,3.0
LuTl2,0.0,-0.0670092,,2,3.0
LiTcHo2,0.0,-0.0339393,,2,3.0
HOClCd,2.4231,-0.0132563,,2,3.0
O6Ca2TbTa,3.6322,-0.0204377,,2,3.0
GaRhPa,0.0,-0.0507842,,2,3.0
OCsBa2,0.0,-0.0321133,,2,3.0
Fe3CoEr2,0.0,-0.0288443,,2,3.0
O6MgSi2Ni,1.369,-0.0105774,,2,3.0
SnIrTh,0.0,-0.0686632,,2,3.0
O3SiNi,0.0899,-0.0111319,,2,3.0
NaCu2ErBi2,0.0,-0.0407434,,2,3.0
Mg2ScPm,0.0,-0.0171167,,2,3.0
NClZn2,2.0119,-0.0116707,,2,3.0
O4CdTe,0.0,-0.0165359,,2,3.0
SSeNb,0.0,-0.0219609,,2,3.0
NNaGe,1.6882,-0.0111013,,2,3.0
Ga2Hf2Ta,0.0,-0.0454072,,2,3.0
AlTiNiPd,0.0,-0.0189377999999999,,2,3.0
F7KTm2,6.6191,-0.017862,,2,3.0
GeHo2Ir2,0.0,-0.0529423,,2,3.0
Se3NbPd2,0.0,-0.0270517,,2,3.0
BMn4Tm,0.0,-0.0223547,,2,3.0
CaInAu,0.0,-0.0382618,,2,3.0
F4NaPr,7.2269,-0.0142156,,2,3.0
O9Na4Si3Sr,4.1854,-0.0101190999999999,,2,3.0
Ga2InLa2,0.0,-0.0312013,,2,3.0
YAg2Pb,0.0,-0.0419046,,2,3.0
Al2Si2Np,0.0,-0.0285296,,2,3.0
BO3NaMg,3.6789,-0.0085402,,2,3.0
SiZnSr2,0.0,-0.0173755,,2,3.0
Li2ErTl,0.0,-0.0322269,,2,3.0
Mn3Ni2Ru,0.0,-0.0206152,,2,3.0
BeSc2Rh,0.0,-0.0172458,,2,3.0
CeLuAu2,0.0,-0.0604962,,2,3.0
AlCrOs,0.0,-0.0330307,,2,3.0
AlSe2Cs,2.7714,-0.0228039999999999,,2,3.0
ZnRu2Sm3,0.0,-0.0364232,,2,3.0
Si2Y3RhIn3,0.0,-0.0271826,,2,3.0
NNiZr3,0.0,-0.0246137,,2,3.0
OZnAsSm,0.9233,-0.0231043999999999,,2,3.0
NaYAu2,0.0,-0.0433709,,2,3.0
ZrRh5,0.0,-0.0337474,,2,3.0
Al5Pd,0.0,-0.0123134,,2,3.0
P2FePa,0.0,-0.0355386,,2,3.0
Be2P2Cs,0.0,-0.0138764,,2,3.0
AgHf2Pt2,0.0,-0.0604229,,2,3.0
B6Cr2Sr,0.0,-0.011908,,2,3.0
S3SbDy4,0.0,-0.0340686,,2,3.0
As,0.0,-0.0201905,,2,3.0
FClCs,3.2158,-0.0183985999999999,,2,3.0
O4LaTa,3.87,-0.0259588,,2,3.0
Ni5Y,0.0,-0.0184326,,2,3.0
O6Sr2HoTa,3.8256,-0.0232302,,2,3.0
CaCoSn2,0.0,-0.0250443999999999,,2,3.0
Cl6K2Ge,1.8258,-0.0108027,,2,3.0
Ni2SbTa,0.0,-0.0342740999999999,,2,3.0
Al3Si2Zr3Ru,0.0,-0.0197085,,2,3.0
S3KFeTa,0.0,-0.0213784,,2,3.0
NBr2La2,0.0,-0.0287831,,2,3.0
TcSb2,0.0,-0.0365631,,2,3.0
Si2Sc3Ga3Pd,0.0,-0.0168552,,2,3.0
Ca2PdIr2,0.0,-0.0394486,,2,3.0
OTi6,0.0,-0.0155199999999999,,2,3.0
Li3O4Fe,0.0,-0.0081437,,2,3.0
O4AsAu,1.8887,-0.0198712,,2,3.0
CoLu,0.0,-0.0366322,,2,3.0
Y2LaAu,0.0,-0.0425253,,2,3.0
Ga2Hf6Os,0.0,-0.0538693,,2,3.0
Al5RhPr,0.0,-0.0172093,,2,3.0
SiOs,0.0,-0.0414099,,2,3.0
SiNi3Gd2,0.0,-0.0298785,,2,3.0
H6Mg2Re,0.0,-0.0114724,,2,3.0
MgZr2Sb2,0.0,-0.0287634,,2,3.0
Br3Pm,3.2586,-0.0276895999999999,,2,3.0
NiZn8,0.0,-0.0138553,,2,3.0
RbIn2Pt,0.0,-0.0398638,,2,3.0
H3O3Sc,5.0132,-0.0082654999999999,,2,3.0
CoBrY2,0.0,-0.0238660999999999,,2,3.0
BaHg4Pb,0.0,-0.0649830999999999,,2,3.0
Al3Sc3Ge2Os,0.0,-0.0204141,,2,3.0
Si3Sm,0.0,-0.0189271999999999,,2,3.0
Fe4TaAu,0.0,-0.0347977,,2,3.0
CClEr2,0.0,-0.0310156,,2,3.0
Ga2Hg2Tl,0.0,-0.0481882,,2,3.0
GaGeRb,0.0,-0.0189081,,2,3.0
H8Mg2BaOs,2.4238,-0.0129373,,2,3.0
LaTmHg2,0.0,-0.0584902999999999,,2,3.0
H6Cs2Ir,0.0,-0.0188089,,2,3.0
Pd2SbSm,0.0,-0.0377248,,2,3.0
Cl4SrCs2,4.8742,-0.0209814,,2,3.0
O6CoNb2,0.0,-0.0158376,,2,3.0
BNCaRu,0.0,-0.0161277,,2,3.0
Ga5TbAu,0.0,-0.028672,,2,3.0
MgCo2Y2,0.0,-0.0191402,,2,3.0
Ga2LaEu,0.0,-0.032954,,2,3.0
CuRhEr2,0.0,-0.0381186,,2,3.0
CaAs2Tc2,0.0,-0.0245889,,2,3.0
Si2Hf3,0.0,-0.0424064,,2,3.0
AgI2,0.0,-0.0350552,,2,3.0
NZr3Rh,0.0,-0.0283015,,2,3.0
H6SiKCs2,0.0,-0.0116244,,2,3.0
In3Pt2Th3,0.0,-0.0669608999999999,,2,3.0
CPTi3,0.0,-0.0148598999999999,,2,3.0
O4SAg,0.0,-0.0120787999999999,,2,3.0
In4Pt2Au,0.0,-0.0495197999999999,,2,3.0
Zn2SnHf2,0.0,-0.0379963,,2,3.0
PTi2Bi,0.0,-0.0311108,,2,3.0
C4FeEr2,0.0,-0.0231148999999999,,2,3.0
Cu2SnTe4Hg,0.0,-0.0355821,,2,3.0
Be2N2Nd,0.0,-0.015408,,2,3.0
S2SmTm,0.0,-0.0311153,,2,3.0
LiN3Hf2,0.5056,-0.0276648,,2,3.0
AlRuHfIr,0.0189,-0.0452879,,2,3.0
O6Ba2HfPu,0.2829,-0.0323373,,2,3.0
Co6NiAs4,0.0,-0.0183497,,2,3.0
CO2ClSn,2.0714,-0.0144603,,2,3.0
Cl6Rb2Au,0.0,-0.0187873,,2,3.0
BNMnNp,0.0,-0.0361773,,2,3.0
CaDyTl2,0.0,-0.0511193,,2,3.0
Li4ScTl,0.0,-0.016151,,2,3.0
PPt5Tl,0.0,-0.0622076,,2,3.0
LiF6Mn2,0.2573,-0.0095444,,2,3.0
Cl6RbYCs2,4.9915,-0.0196022,,2,3.0
K5CuAs2,0.6984,-0.0125911,,2,3.0
O3AlGd,3.1504,-0.0206549,,2,3.0
Li3Sb2La,0.1236,-0.0217596,,2,3.0
MgGaRh2,0.0,-0.0229849,,2,3.0
TiGe3Tb,0.0,-0.0246834999999999,,2,3.0
LiF4Ti,0.3242,-0.008864,,2,3.0
O7RbNdTa2,2.0393,-0.0250717999999999,,2,3.0
RbPdTe3Hf,0.0,-0.0388957,,2,3.0
H3LiO6Se2,4.6728,-0.0086007999999999,,2,3.0
GaCdHg2,0.0,-0.0456941,,2,3.0
MgZrRh2,0.0,-0.0267475,,2,3.0
PNiBa2,0.0,-0.0270377,,2,3.0
CZnTh2,0.0,-0.0540311,,2,3.0
O2AgPb,0.0582,-0.0305651,,2,3.0
Zn2InIr,0.0,-0.0330301,,2,3.0
CrNiSb2,0.0,-0.0274486,,2,3.0
O6CaLa2Hf,4.4569,-0.0233,,2,3.0
C2O6KTm,4.2635,-0.0141262,,2,3.0
Sc3AgIr2,0.0,-0.0370246,,2,3.0
O4Cu2As2Te2Er,0.0,-0.0214448,,2,3.0
CuSe4Pt,0.0,-0.0278553,,2,3.0
Ga2Pd3Ce,0.0,-0.0300692999999999,,2,3.0
ZrRuRh2,0.0,-0.0338446,,2,3.0
Ga2Ge2La,0.0,-0.0232815,,2,3.0
Ti3Ga4,0.0,-0.0167282,,2,3.0
O4S2Cu2CeBi2,0.1075,-0.0266129,,2,3.0
FeSe10Nb2Ta,0.0,-0.0257879,,2,3.0
GaLaIr,0.0,-0.0444447,,2,3.0
CRe2,0.0,-0.0507837,,2,3.0
Ca3Ru4Sn4,0.0,-0.0287597,,2,3.0
FeCu2Zn,0.0,-0.0155226,,2,3.0
S6Nb2Rh,0.0,-0.0184300999999999,,2,3.0
BeZnAu2,0.0,-0.0392595,,2,3.0
NiZnTm,0.0,-0.0276848,,2,3.0
PScNd,0.0,-0.0238982999999999,,2,3.0
KGe2Cd2,0.0,-0.0216131,,2,3.0
SiPt3Np2,0.0,-0.0731194,,2,3.0
Ti2LaPt2,0.0,-0.0442387999999999,,2,3.0
MgYRh,0.0,-0.022969,,2,3.0
ZrCd7,0.0,-0.0305036999999999,,2,3.0
CTi2Sb,0.0,-0.0206276,,2,3.0
O2NaRu,0.0,-0.0142032,,2,3.0
KNi2As2U,0.0,-0.0312961,,2,3.0
MnCo4Hf,0.0,-0.0253112,,2,3.0
H8FeCd2Sm,0.0,-0.0126927,,2,3.0
Al2OsAu,0.0,-0.0397949,,2,3.0
AlClDy,0.0,-0.0224799,,2,3.0
O3K2Ge2,1.5263,-0.0121034,,2,3.0
BeGeGd,0.0,-0.028125,,2,3.0
GaIn2Ir2,0.0,-0.0454232,,2,3.0
O6Ti2MnNi,0.022,-0.0130808,,2,3.0
AsPd5Nd,0.0,-0.0332221,,2,3.0
SeBr2Th2,0.0,-0.0516977,,2,3.0
AlAu2Pu2,0.0,-0.073612,,2,3.0
Ag2Ho2Pb,0.0,-0.0477668,,2,3.0
LiO7As2Ho,3.5392,-0.014458,,2,3.0
FSHo,1.0502,-0.0240301,,2,3.0
H2Pd2Cd,0.0,-0.020776,,2,3.0
AlGePu,0.0,-0.0459068,,2,3.0
Rh3Np,0.0,-0.0524512,,2,3.0
Mg5Hg4,0.0,-0.0333119999999999,,2,3.0
NiAs2Er,0.0,-0.0276767,,2,3.0
O4MnCu2Se2Bi2,0.0,-0.0255071,,2,3.0
AlScFe,0.0566,-0.0136416,,2,3.0
NiGa2Ta6,0.0,-0.0500752,,2,3.0
ONa4Cl2,2.0695,-0.0073117,,2,3.0
H4Li4Os,0.3745,-0.0109564,,2,3.0
Ru2ThPu,0.0,-0.0692106,,2,3.0
BAlMo,0.0,-0.0171595,,2,3.0
Sc2Ru2La,0.0,-0.0286551,,2,3.0
Co4Ni,0.0,-0.0170572,,2,3.0
H4O6Cl2Zn,2.6437,-0.0068594,,2,3.0
Pd2SnTh,0.0,-0.0502077,,2,3.0
O6MgSi2Sn,3.1272,-0.0124753,,2,3.0
Li2O3Mn2,0.0,-0.0104668,,2,3.0
F6ZnPa,0.6304,-0.0201728999999999,,2,3.0
BCo2Zn2,0.0,-0.0138413,,2,3.0
GeI2Tb2,0.0,-0.038557,,2,3.0
NiCd2Er,0.0,-0.0321765,,2,3.0
O6Mn2FeTa,0.0,-0.0180489,,2,3.0
HPd3Hg,0.0,-0.0341655,,2,3.0
F6KMnRb2,0.6289,-0.0119284,,2,3.0
MnGa5Pr,0.0,-0.0208922,,2,3.0
PmErTl2,0.0,-0.0603057,,2,3.0
GePd3Pu2,0.0,-0.0567802,,2,3.0
Ni5In3,0.0,-0.0226345999999999,,2,3.0
CrSe2Cs,0.8289,-0.0251740999999999,,2,3.0
Ti3Co5,0.0,-0.0171503,,2,3.0
O6ScBa2Tm,0.0,-0.0213177999999999,,2,3.0
Co2ErHf,0.0,-0.0372493,,2,3.0
H4CoDy,0.0,-0.0136724999999999,,2,3.0
F6PdPa,0.6454,-0.0222749,,2,3.0
FeZn2Ir,0.0,-0.0292413999999999,,2,3.0
MgCl6Se4,1.6977,-0.012791,,2,3.0
STl,0.207,-0.0412491,,2,3.0
Ni2RuHf3,0.0,-0.0431426,,2,3.0
PSnPt5,0.0,-0.057146,,2,3.0
As2RhTm,0.0,-0.0325393,,2,3.0
F6KScCs2,7.0003,-0.0155014,,2,3.0
LaAu2Pu,0.0,-0.0734887999999999,,2,3.0
YSn6Pr,0.0,-0.0363569,,2,3.0
Co2CdPa2,0.0,-0.0530437,,2,3.0
O2F2Ba,1.6913,-0.0141509,,2,3.0
ZrRh2Ho,0.0,-0.037755,,2,3.0
SiGeSe3,0.0,-0.018161,,2,3.0
H8Mg2CrPu,0.0,-0.0140596,,2,3.0
P2S6Pt,1.1124,-0.0168468,,2,3.0
As2RbTl2,0.0,-0.0413862,,2,3.0
MnTaIr2,0.0,-0.0574675,,2,3.0
PdPm2Pb,0.0,-0.0498997,,2,3.0
Al3U2,0.0,-0.04614,,2,3.0
MgKSe3Tb,2.2416,-0.0218053,,2,3.0
C3Pr2W2,0.0,-0.0368128999999999,,2,3.0
GaY2Rh,0.0,-0.027259,,2,3.0
B3Pa,0.0,-0.0306198,,2,3.0
NaCuTe2,0.0,-0.0238467,,2,3.0
Al5ScPd2,0.0,-0.015532,,2,3.0
AsZrMo,0.0,-0.0294232,,2,3.0
Si2Zn2Sr,0.0,-0.0141952,,2,3.0
N2KRe,0.0,-0.0247504999999999,,2,3.0
CI5Lu4,0.0,-0.0426558,,2,3.0
NiAsHo2,0.0,-0.0345625,,2,3.0
Fe2GeHf,0.0472,-0.0298686,,2,3.0
Al7Ag2U3,0.0,-0.0357327999999999,,2,3.0
ScGeAu2,0.0,-0.0436222,,2,3.0
Zr2PdAu,0.0,-0.041503,,2,3.0
KSe3ZrAg,0.3869,-0.0230149,,2,3.0
O3K2Sn,2.1948,-0.0136428,,2,3.0
NaNi2YSb2,0.0,-0.0237106999999999,,2,3.0
AlSiHf2,0.0,-0.0364022,,2,3.0
SiNi4Ce,0.0,-0.0204449,,2,3.0
NiNdPb2,0.0,-0.0532524999999999,,2,3.0
AlBr6InCs2,1.7229,-0.0248044,,2,3.0
P2NiTm,0.0,-0.0232439,,2,3.0
Al3Ir2Th,0.0,-0.0445277,,2,3.0
Se4Te2W3,0.7796,-0.0407629,,2,3.0
ScPb3,0.0,-0.0606233999999999,,2,3.0
O4SmEu,0.0,-0.0231952,,2,3.0
Ge3LaIr,0.0,-0.0351727,,2,3.0
P2Ni2Rb,0.0,-0.0153567,,2,3.0
Tc2Ir,0.0,-0.0473562,,2,3.0
CaGePt,0.0,-0.0340809,,2,3.0
PBr2Lu2,0.0,-0.0338957,,2,3.0
Ge2TbPt3,0.0,-0.050147,,2,3.0
Cl2BrLa,3.3529,-0.0220798,,2,3.0
Ga4Nb2La,0.0,-0.025494,,2,3.0
KCuSe3Sm,0.0,-0.0226879,,2,3.0
Se2AgEu,0.0,-0.0324484,,2,3.0
EuHg5,0.0,-0.0661089,,2,3.0
Se2Mo2Sb,0.0,-0.0298114,,2,3.0
ZnIrPt2,0.0,-0.0565234,,2,3.0
OZrTe,0.5002,-0.0270793,,2,3.0
NiYSn3,0.0,-0.0308755,,2,3.0
O4Al2Mn,1.6186,-0.0113806,,2,3.0
CdSn2Tl,0.0,-0.0435358999999999,,2,3.0
O6MnCdSm2,1.812,-0.0202836,,2,3.0
Zn2DyIr,0.0,-0.0370947,,2,3.0
CuBr4Rb,0.5363,-0.0197788,,2,3.0
Co2PrPu,0.0,-0.0469609999999999,,2,3.0
GaGeEr,0.0,-0.0292545,,2,3.0
Cl6Rb2Lu,0.0,-0.0181227,,2,3.0
Ru2HfPt,0.0,-0.0513023,,2,3.0
Ti6CoBi2,0.0,-0.0303343999999999,,2,3.0
F3Fe,0.0823,-0.0096969999999999,,2,3.0
CaYRh4,0.0,-0.0294383,,2,3.0
O7Si2TiLa,0.2494,-0.0144345,,2,3.0
RuTe2,0.322,-0.036884,,2,3.0
FeZr6In2,0.0,-0.0301839,,2,3.0
MnPrPt2,0.0,-0.0515056999999999,,2,3.0
O4ClSb2Eu,0.0,-0.0220631999999999,,2,3.0
O6MgCrDy2,0.0,-0.0188643,,2,3.0
GeCe2Ir3,0.0,-0.0545630999999999,,2,3.0
CrW5,0.0,-0.0610947,,2,3.0
Si2Fe3Lu,0.0,-0.0221484,,2,3.0
Sc2CuAs,0.0,-0.0168305,,2,3.0
KPdHg3,0.0,-0.0494114,,2,3.0
P2Co2Rb,0.0,-0.0157882,,2,3.0
Cs2HgBi2,0.0,-0.0605208,,2,3.0
O6Ca2TbW,0.0,-0.0203701,,2,3.0
F6Tl2Pb,2.1768,-0.0288466,,2,3.0
LiAs2LaAu2,0.0,-0.0383064,,2,3.0
Sn2Th3,0.0,-0.0724889,,2,3.0
Mn2Nb4In5,0.0,-0.0306036,,2,3.0
ZnAgLu,0.0,-0.0337775,,2,3.0
C3N6Ti2,0.0,-0.0112762,,2,3.0
SrDyHg2,0.0,-0.0522432,,2,3.0
Fe5Np,0.0,-0.0327644999999999,,2,3.0
GaPmIr2,0.0,-0.0512087,,2,3.0
RhTbTl2,0.0,-0.0567537,,2,3.0
MoWPt2,0.0,-0.0616265,,2,3.0
GeTe3Pr4,0.0,-0.0395197999999999,,2,3.0
Si2Ho2Pt,0.0,-0.0388045,,2,3.0
CaNi2Zr,0.0,-0.0184515,,2,3.0
Ni3Pt2,0.0,-0.0379083,,2,3.0
LiCdHg2,0.0,-0.0425492,,2,3.0
PdPtPu2,0.0,-0.0812321,,2,3.0
Si2FeHo,0.0,-0.0224482,,2,3.0
O8P2CrSr,0.0,-0.0119654,,2,3.0
Al2Pt3Pu,0.0,-0.0570919,,2,3.0
O6ZnRhLa2,0.0,-0.0196224999999999,,2,3.0
Li2Se2Ba,1.4992,-0.018643,,2,3.0
Ca2SnIr3,0.0,-0.0453123999999999,,2,3.0
F6InEu,0.0,-0.0166923,,2,3.0
CN2Sr,3.5934,-0.0137392,,2,3.0
Si3NiU,0.0,-0.0302995,,2,3.0
Mg3Pd2La,0.0,-0.0212308999999999,,2,3.0
YRhIn2,0.0,-0.0328598,,2,3.0
PdIn2Tm,0.0,-0.0385889,,2,3.0
RhHo6Bi2,0.0,-0.0546071,,2,3.0
H2Ga2Zr,0.0,-0.0143623999999999,,2,3.0
HCs3Hg,0.0,-0.0371852,,2,3.0
NiDy,0.0,-0.0324445,,2,3.0
Li2N6Ca3,0.0,-0.0087303,,2,3.0
In2SbBa,0.0,-0.0364733,,2,3.0
MoTcHf2,0.0,-0.0490878,,2,3.0
CO4Al4,3.7707,-0.0098877,,2,3.0
ZnDy2Au2,0.0,-0.0503635,,2,3.0
LiAl2Ta,0.0,-0.0213159999999999,,2,3.0
Se4MoTe2W2,0.6517,-0.03698,,2,3.0
C4NiDy3,0.0,-0.0253351,,2,3.0
Li2CuLa,0.0,-0.0157665,,2,3.0
O6MnSr2Pd,0.0301,-0.0154308,,2,3.0
H3LiFe,0.0,-0.0063631,,2,3.0
Ni2Er3Pt,0.0,-0.0430517,,2,3.0
Si3FeNp,0.0,-0.0312254,,2,3.0
BeCr2Ru,0.0,-0.0191122,,2,3.0
H3KRh,0.0,-0.0107876999999999,,2,3.0
ScNi4,0.0,-0.0159774,,2,3.0
Sn7Ho3,0.0,-0.0404234999999999,,2,3.0
Si6TiCr2,0.0,-0.0128753,,2,3.0
AlIrPa,0.0,-0.0605456999999999,,2,3.0
F2Sr2Tl,0.0,-0.0274731,,2,3.0
CaIn2Pr,0.0,-0.030573,,2,3.0
FSeY,2.3587,-0.0203356,,2,3.0
Zn2Au2Pb,0.0,-0.048409,,2,3.0
O7NaAs2Lu,3.479,-0.0152346,,2,3.0
H2Zr2Au,0.0,-0.0281575,,2,3.0
ZnGe2Ir,0.0,-0.0309695,,2,3.0
C4Sc3Zn,0.0,-0.0125111,,2,3.0
NiSb2Cs2,0.4354,-0.0336866,,2,3.0
O6MgSr2Os,0.0,-0.0183284999999999,,2,3.0
H8Al2Ca,2.5882,-0.0050365,,2,3.0
P2Cu2CsLa,0.0,-0.0228191999999999,,2,3.0
LiCu2YSb2,0.0,-0.0231416,,2,3.0
S3CuAsHg,0.8727,-0.0222425,,2,3.0
AsPr2Bi,0.0,-0.0476998999999999,,2,3.0
AsSmIr,0.0,-0.0464041,,2,3.0
In2PmEr,0.0,-0.0408969999999999,,2,3.0
H6FeRbCs2,0.0,-0.0136977,,2,3.0
AuPb,0.0,-0.0725601,,2,3.0
Si2Os2U,0.0,-0.0540026,,2,3.0
LiY2Au2,0.0,-0.0402038,,2,3.0
Se2Ag2Hg,0.0909,-0.0343489,,2,3.0
CoNd2,0.0,-0.0347881,,2,3.0
ZnZr2Pt,0.0,-0.0371087,,2,3.0
Al2ScMo,0.0,-0.0164973,,2,3.0
F4NaCr,0.8148,-0.0092317,,2,3.0
MgTe4Cs2Pb,0.2473,-0.0389814,,2,3.0
C4CoEr3,0.0,-0.0264577,,2,3.0
NdPt2Au3,0.0,-0.0658478,,2,3.0
Ge2PdNp,0.0,-0.0448206,,2,3.0
LiN3,3.7152,-0.0077594,,2,3.0
Ho2HgTl,0.0,-0.0602376,,2,3.0
Se3Pt2Tl,0.0,-0.0460232,,2,3.0
FeSb2Pr6,0.0,-0.0397311,,2,3.0
O11Zr6,0.3339,-0.0184768,,2,3.0
YSnTm,0.0,-0.0391756,,2,3.0
Pd5Lu3,0.0,-0.0422171,,2,3.0
Ru2InU,0.0,-0.0518575,,2,3.0
MnHf2Ir,0.0,-0.0545046,,2,3.0
Sb2CsHg2,0.0,-0.04996,,2,3.0
V2Ga4Zr,0.0,-0.0192454,,2,3.0
Cl6FeCs2Au,0.0,-0.0224239,,2,3.0
HLi2In,0.0,-0.0107331,,2,3.0
Ga2RbTl2,0.0,-0.0397593,,2,3.0
Be4AlTc,0.0,-0.0103116,,2,3.0
Li2O7BaTa2,2.1282,-0.0214258,,2,3.0
KPdTl3,0.0,-0.0517504,,2,3.0
NaCu2As2Eu,0.0,-0.022087,,2,3.0
Li2BO7SiSb,2.8309,-0.0108917,,2,3.0
O2KSc,3.7033,-0.0118188999999999,,2,3.0
Ru2Tm2Tl,0.0,-0.0495506999999999,,2,3.0
Li2Cu2Sr,0.0,-0.0114879,,2,3.0
Ga2YDy,0.0,-0.0277716,,2,3.0
S2CuLa,1.4786,-0.0209439999999999,,2,3.0
Sn2BaPt2,0.0,-0.0512585,,2,3.0
SSeAgIn,0.0806,-0.0241066,,2,3.0
F6NaCs2Np,0.4108,-0.0239945,,2,3.0
O7Ca2Cr2,0.1706,-0.0116505,,2,3.0
SnPb,0.0,-0.055727,,2,3.0
CuRuAc2,0.0,-0.0577869,,2,3.0
CrSn2Hf6,0.0,-0.0520781,,2,3.0
AsISm2,0.0,-0.0378783,,2,3.0
CsAu,0.7552,-0.0539201,,2,3.0
SiMn3,0.0,-0.0165679,,2,3.0
K2Ge2Pt,0.0,-0.0253678,,2,3.0
RhDy3,0.0,-0.0448688999999999,,2,3.0
Al5Pd2La,0.0,-0.0192803,,2,3.0
SiHo2Os3,0.0,-0.0544957,,2,3.0
O7P2CoBa,0.3542,-0.0136054,,2,3.0
O3KHf,0.0,-0.0206971,,2,3.0
Ti2Ga4La,0.0,-0.0206558999999999,,2,3.0
LiZnSe2Rb,1.8657,-0.0165861,,2,3.0
P2NiLa2,0.0,-0.0260802,,2,3.0
FeHf6Bi2,0.0,-0.0615032,,2,3.0
B7Mg,1.4415,-0.0072965,,2,3.0
Rh2SnPu,0.0,-0.0537911,,2,3.0
LiMgRuSn,0.0,-0.0198504,,2,3.0
ClK2Au,2.5756,-0.0246959,,2,3.0
Si2Ti2Tc,0.0,-0.0182216999999999,,2,3.0
S2Cl6Pd,1.6055,-0.0114433,,2,3.0
GaCd2Ir,0.0,-0.0373156,,2,3.0
Si2Y2Tc,0.0,-0.0228552,,2,3.0
O6Ba2CeOs,0.0,-0.0259959,,2,3.0
Si4Zn4Tb3,0.0,-0.0219007,,2,3.0
MgAs2Ba2,0.778,-0.0260804,,2,3.0
ZnGeSm,0.0,-0.0264617,,2,3.0
Ge2InDy2,0.0,-0.0342344999999999,,2,3.0
InPrPt2,0.0,-0.0553052,,2,3.0
Cl3ScRb,0.0,-0.0139641,,2,3.0
AlSrHg2,0.0,-0.0420921,,2,3.0
Al2Ag3Tb,0.0,-0.0263915,,2,3.0
KCuHg3,0.0,-0.0457527,,2,3.0
Ca2Zn2Ge,0.0,-0.0135056999999999,,2,3.0
MgInDy,0.0,-0.0292438,,2,3.0
SiAgTh,0.0,-0.0462082,,2,3.0
Ca2AgPb,0.0,-0.0322162999999999,,2,3.0
Sr2CdLa,0.0,-0.0296885,,2,3.0
S4Sm3Dy,0.0,-0.029718,,2,3.0
Li3ZnBa,0.0,-0.0120458,,2,3.0
Tm2IrAu,0.0,-0.0620852,,2,3.0
S3NiSrNd,0.0,-0.0202979999999999,,2,3.0
MoTc2Ta,0.0,-0.0431562,,2,3.0
F6PdPb2,1.2443,-0.0249245,,2,3.0
CrMn8,0.0,-0.0180343,,2,3.0
K2Br6AgIn,0.0001,-0.0210196,,2,3.0
CSiHoOs2,0.0,-0.0431704,,2,3.0
SbAu7,0.0,-0.0650995,,2,3.0
SePu,0.0,-0.0665106,,2,3.0
RbPb4,0.0,-0.0650041,,2,3.0
PScTi,0.0,-0.0147545,,2,3.0
Co(W3Cl7)2,0.3896,-0.8293063841666841,mp-1203320,2,3.0
O6Sr2ZrSb,0.0,-0.0178331,,2,3.0
NaPb2Ac,0.0,-0.0620982,,2,3.0
Al3CuGe2Y3,0.0,-0.0185501,,2,3.0
CaCu4In,0.0,-0.0174952,,2,3.0
O4Cr2Ni,0.0,-0.0133082999999999,,2,3.0
Zn2Ga5Sr,0.0,-0.0166331999999999,,2,3.0
H5CuBa2,0.131,-0.0143724,,2,3.0
GaIPu,0.0,-0.0549912,,2,3.0
GaIEr,0.0,-0.0356002,,2,3.0
InBi3,0.0,-0.0672295,,2,3.0
Mg2ScPd,0.0,-0.0147946,,2,3.0
CaSn5Pt,0.0,-0.0374114999999999,,2,3.0
O6Ba2IrPa,1.4936,-0.0315862,,2,3.0
NaTe2Bi,1.0326,-0.0398776,,2,3.0
Ni2Zr2Pt,0.0,-0.0336073999999999,,2,3.0
AlCoTb,0.0,-0.0243327,,2,3.0
Zr2Cd3,0.0,-0.0305786,,2,3.0
O6MnBa2Bi,0.0,-0.0235453,,2,3.0
NaBaPb2,0.0,-0.0493162,,2,3.0
Ni4CdEu,0.0,-0.0249135999999999,,2,3.0
NbMo,0.0,-0.0341252,,2,3.0
Ni2Te3Tm,0.0,-0.0332751,,2,3.0
F6MgRb3,0.0,-0.0116865,,2,3.0
Al2CaSn2,0.0,-0.0196676,,2,3.0
LiZn2Ge2,0.0,-0.0136248,,2,3.0
TiRu2Ho,0.0,-0.0342721999999999,,2,3.0