formula,bg,formation_energy,mp-id,fidelity,bg_category
NaNiBr4,0.1466,-0.0171918,,2,3.0
Mg2CdIn,0.0,-0.0186082,,2,3.0
Sc2ZnOs,0.0,-0.029068,,2,3.0
Mn2GaSm,0.0,-0.02471,,2,3.0
NCa3Ge,0.0,-0.0123194999999999,,2,3.0
F6RbCs2Er,6.3545,-0.0203459,,2,3.0
Ga2CsTl2,0.0,-0.0431456999999999,,2,3.0
NiGe2Hf6,0.0,-0.0483977,,2,3.0
Se3SrAgPr,1.2011,-0.027912,,2,3.0
CSiY3,0.0,-0.0213094,,2,3.0
Al2Sc6Co,0.0,-0.013429,,2,3.0
BS2Cu,1.6235,-0.0109286,,2,3.0
MgHfIr2,0.0,-0.0535074,,2,3.0
Sc2ZnAu,0.0,-0.0285972,,2,3.0
O8V3YBa2,0.0,-0.0179013999999999,,2,3.0
O7NaAs2Ho,3.5185,-0.0146338,,2,3.0
Si2Nb2W,0.0,-0.0316668,,2,3.0
Sm6IrBi2,0.0,-0.0557624,,2,3.0
FeOs2,0.0,-0.0538187,,2,3.0
RbAu5,0.0,-0.0613333999999999,,2,3.0
Al6SrAu,0.0,-0.0176573,,2,3.0
Zn4CdIn,0.0,-0.0195425,,2,3.0
HLi3Tl,0.0,-0.0169268999999999,,2,3.0
S2Se4Mo3,0.6953,-0.0234547999999999,,2,3.0
CoGaPu,0.0,-0.0480645,,2,3.0
CaSr2Cd,0.0,-0.0213595,,2,3.0
CBr2Er2,0.7397,-0.0314505,,2,3.0
OSr3In,0.0,-0.022759,,2,3.0
SiRhSm,0.0,-0.0304954,,2,3.0
Ag2Sb2Cs,0.0,-0.035217,,2,3.0
Ca2ZnGa,0.0,-0.0126896,,2,3.0
SnI4,0.7261,-0.0368733,,2,3.0
Rh2InSm,0.0,-0.0370775,,2,3.0
LiAs2Ru2La,0.0,-0.0267321999999999,,2,3.0
Ca2ScAu2,0.0,-0.0351954,,2,3.0
N2TmLu,0.0188,-0.0336167,,2,3.0
H2O5NiSe,0.9893,-0.0092788,,2,3.0
NiIr2U2,0.0,-0.0735413,,2,3.0
Sn2SmIr2,0.0,-0.0523512,,2,3.0
MgGd2Tl,0.0,-0.049109,,2,3.0
Cu2BaAu3,0.0,-0.0466354,,2,3.0
CuTa,0.0,-0.0408419999999999,,2,3.0
AlZr2Sb3,0.0,-0.030789,,2,3.0
GeLu,0.0,-0.0381107,,2,3.0
Ti2YPt2,0.0,-0.0412128,,2,3.0
KTe2Au3,0.5278,-0.0487915,,2,3.0
S2TeI,0.0,-0.0231125,,2,3.0
Te2CsTm,1.155,-0.0425542999999999,,2,3.0
PSc2Zn,0.0,-0.0140711999999999,,2,3.0
Ga4BaIr,0.0,-0.0298878,,2,3.0
C4Ho3Ir,0.0,-0.032802,,2,3.0
Rh3LaPb2,0.0,-0.0496976,,2,3.0
ScYHg2,0.0,-0.0453222,,2,3.0
ScYSb,0.0,-0.0274055,,2,3.0
Ti2Hg,0.0,-0.0335767,,2,3.0
MnCu5,0.0,-0.0157538,,2,3.0
MgSr2Bi2,0.4698,-0.0422033,,2,3.0
AlMnRuPd,0.0,-0.0241023,,2,3.0
PSPt,0.0,-0.0306247,,2,3.0
CdEuPb,0.0,-0.0539272,,2,3.0
PRuPr,0.0,-0.0305825999999999,,2,3.0
Ge2PmEr,0.0,-0.0338221,,2,3.0
Mg2CaNi,0.0,-0.0090802,,2,3.0
O6RuRhBa2,0.0,-0.020447,,2,3.0
GeNbRh2,0.0,-0.0305685,,2,3.0
Al5Sr5Pb,0.0,-0.0209483,,2,3.0
LiSbPt,0.0,-0.0373885999999999,,2,3.0
Al2Sc2Y,0.0,-0.0147143999999999,,2,3.0
Li3O6CoNi2,0.0,-0.0095640999999999,,2,3.0
RuInHo,0.0,-0.0395316,,2,3.0
TiPdPt2,0.0,-0.0482169,,2,3.0
RuPr6Bi2,0.0,-0.0508239,,2,3.0
NiPtAc2,0.0,-0.0674385999999999,,2,3.0
O8P2YPu,0.0694,-0.0204987999999999,,2,3.0
Co2Se4Pd,0.0,-0.0214094,,2,3.0
Cd4BaTl,0.0,-0.0391306,,2,3.0
BrTeTm,1.0883,-0.0379144,,2,3.0
Fe3Er2Pt,0.0,-0.0380481,,2,3.0
Ge2RuSn3Dy3,0.0,-0.0367105999999999,,2,3.0
GaPd2Sm2,0.0,-0.0350861,,2,3.0
LiCaCu2Sb2,0.0,-0.0200293,,2,3.0
Br6Rb2Zr,2.6161,-0.0228092,,2,3.0
N2ZrU,0.0,-0.0398607999999999,,2,3.0
O3GeAg,0.0,-0.0148511,,2,3.0
CoRh2Sb,0.0,-0.0307909,,2,3.0
Si2BaIr2,0.0,-0.0413117999999999,,2,3.0
Si4Mn4LaCe,0.0,-0.0206982,,2,3.0
Al7Nd3Pt2,0.0,-0.0279906,,2,3.0
LiF6Rb2Nd,6.7435,-0.014356,,2,3.0
SrPtTl2,0.0,-0.0598621,,2,3.0
In2TmAc,0.0,-0.0527897,,2,3.0
Co2Zr,0.0,-0.0220036999999999,,2,3.0
In7Sb,0.0,-0.0337927,,2,3.0
O6InBa2Re,0.0,-0.0244185,,2,3.0
Ni7Cu,0.0,-0.0160201,,2,3.0
Be2LaAu2,0.0,-0.0387164,,2,3.0
PY2Te,0.0,-0.0276024,,2,3.0
NPdDy3,0.0,-0.0382556,,2,3.0
Ni2Nd2Hg,0.0,-0.037969,,2,3.0
SiErHf,0.0,-0.0416454,,2,3.0
InSm3,0.0,-0.0420767,,2,3.0
CoSe3ZrCs,0.0,-0.0255722,,2,3.0
LiBr6MoCs2,1.1818,-0.0244274999999999,,2,3.0
Na7Pb2,0.0,-0.0203521,,2,3.0
O6FeGeLa2,0.3052,-0.0188371,,2,3.0
N2Sc2Ni,0.0,-0.0142879,,2,3.0
O5Na6Pb,1.1855,-0.0124449,,2,3.0
S8Mo6Cd,0.0,-0.0218609,,2,3.0
O4Na2Np,0.0568,-0.0226324,,2,3.0
P2FeW,0.0,-0.0275115,,2,3.0
CdSn2Ho2,0.0,-0.040701,,2,3.0
Al2Pr3Pt4,0.0,-0.0486437,,2,3.0
OBrCe,0.0,-0.0265382,,2,3.0
Cl6NiCuCs2,0.0,-0.0168714,,2,3.0
Ga5PrIr,0.0,-0.0286736,,2,3.0
Li3Cl4Cs,5.3852,-0.0116694,,2,3.0
RuInSm,0.0,-0.0379765,,2,3.0
NOY6In2,0.0,-0.0263829,,2,3.0
O7CuBrNb2Eu,0.0,-0.0188725,,2,3.0
PCaSn,0.0,-0.0194944999999999,,2,3.0
Mg2YCe,0.0,-0.0206211,,2,3.0
Pd3Tb,0.0,-0.037207,,2,3.0
NdGdBi,0.0,-0.0611625,,2,3.0
Nb2PtAu,0.0,-0.0518985,,2,3.0
Ca3La,0.0,-0.0179907,,2,3.0
SiFe2Os,0.0,-0.0298336,,2,3.0
ZnEr2Hg,0.0,-0.0461634999999999,,2,3.0
CrGeTa,0.0,-0.0349759,,2,3.0
CNi3Zn,0.0,-0.0144446,,2,3.0
Ti3Nb3Sn2,0.0,-0.0277447,,2,3.0
SiAs2Cs2,1.0365,-0.0257839999999999,,2,3.0
BCo,0.0,-0.0126725,,2,3.0
Mg5Ga,0.0,-0.0069295,,2,3.0
FeGe2In3Lu3,0.0,-0.0363437,,2,3.0
TcPt8,0.0,-0.0663449,,2,3.0
CdDy3Au2,0.0,-0.0529056,,2,3.0
Co6As4Np,0.0,-0.0267653,,2,3.0
Cu3Pd2Tb,0.0,-0.0267972,,2,3.0
LiB2O6Bi,1.5352,-0.0152500999999999,,2,3.0
Be2MnRu2,0.0,-0.0197871999999999,,2,3.0
SiBr2La2,0.1771,-0.0286363,,2,3.0
Li2GeTh,0.0,-0.0302913,,2,3.0
P2Cu4Ba,0.0,-0.0177191,,2,3.0
O8Mg2Mn3,0.6914,-0.0112655,,2,3.0
BePSc,0.0,-0.0107207,,2,3.0
CoAsHf,1.2921,-0.0342753,,2,3.0
F7Zn2Cs3,4.1377,-0.0165208,,2,3.0
O4Eu2Hf,0.0389,-0.031292,,2,3.0
ScIn2Pm,0.0,-0.0318414,,2,3.0
TcTaW2,0.0,-0.0604581,,2,3.0
Fe2GeRu,0.0,-0.0227638,,2,3.0
PmPt2Bi,0.0,-0.0664685999999999,,2,3.0
NaKCdTe2,0.8942,-0.0243733,,2,3.0
Pd2In2Pb,0.0,-0.0419429,,2,3.0
PdIn3Pr2,0.0,-0.0372867,,2,3.0
CBrEr,0.0,-0.0278735,,2,3.0
BrCd,1.2319,-0.0256225,,2,3.0
Si2TcRe,0.0,-0.0319428,,2,3.0
O3K2Dy,0.0,-0.0161445,,2,3.0
Li2Cl3Rb,5.2013,-0.0103138,,2,3.0
Ge2DyOs,0.0,-0.0400533,,2,3.0
F6TiAu,0.2101,-0.0158317,,2,3.0
CoGe2Sn3Tb3,0.0,-0.0343478,,2,3.0
LiO4Ti3,0.0,-0.0121702999999999,,2,3.0
CuInLa2,0.0,-0.0340996,,2,3.0
O4Pd2La,0.0,-0.0209096,,2,3.0
Zn3Ru2Sm,0.0,-0.0259943999999999,,2,3.0
Al5CaCu2,0.0,-0.010205,,2,3.0
O4NiSrNd,0.0,-0.0179795,,2,3.0
AlHo2Tl,0.0,-0.0449504,,2,3.0
TeHf,0.0,-0.0506764,,2,3.0
CdHg4,0.0,-0.0605733,,2,3.0
S2CrTl,0.0,-0.0283635,,2,3.0
LiNi2Sb2Nd,0.0,-0.0261811,,2,3.0
Al3CoZr2,0.0,-0.0175649,,2,3.0
BMnFe,0.0,-0.0148999,,2,3.0
F8Na2CaHo,0.0,-0.0114162999999999,,2,3.0
Ca3PdSn5,0.0,-0.0274821,,2,3.0
OZn,0.6813,-0.0114886,,2,3.0
Ca3In3Pt2,0.0,-0.0344926,,2,3.0
Sc2GaRu,0.0,-0.0206276,,2,3.0
Al4RuU,0.0,-0.0286143999999999,,2,3.0
P2Ru2U,0.0,-0.0395234999999999,,2,3.0
H3MgIr,0.0,-0.0176029,,2,3.0
N2ErTm,0.0,-0.03231,,2,3.0
H2Ti2Pd,0.0,-0.0148984,,2,3.0
Co2SnCe2,0.0,-0.0322753999999999,,2,3.0
S3FeCs2,0.1005,-0.0213755,,2,3.0
Si2RuU,0.0,-0.0400508,,2,3.0
S6FeNb2,0.0,-0.0166761,,2,3.0
O4NbDy,3.394,-0.0210351,,2,3.0
S3KScCu,0.0,-0.0125042,,2,3.0
Cl6K3Gd,3.1369,-0.015496,,2,3.0
MgZn4Pt,0.0,-0.0219484,,2,3.0
O6CoNiNd2,0.0,-0.0183710999999999,,2,3.0
CaGa2Te4,0.0,-0.0280494999999999,,2,3.0
Li3As2Y,0.0342,-0.0136958,,2,3.0
F6MgTh,7.2162,-0.0193218,,2,3.0
Sc3Ta,0.0,-0.0271769,,2,3.0
FeCu3Se4,0.0,-0.0182809,,2,3.0
KHg5,0.0,-0.0584072,,2,3.0
CaCd2Ac,0.0,-0.0406858,,2,3.0
Au2BiAc,0.0,-0.0776249,,2,3.0
SiISm,0.0,-0.0315257,,2,3.0
Li2MgIn,0.0,-0.0111065,,2,3.0
RuInSn,0.0,-0.0348382,,2,3.0
LiCu2Sr2,0.0,-0.0154747,,2,3.0
LiP2Ni2Nb,0.0,-0.0155062,,2,3.0
O4BrSb2Nd,0.4085,-0.022378,,2,3.0
Sr2PdCd,0.0,-0.027344,,2,3.0
C2CrLu,0.0,-0.0238352,,2,3.0
O6NaSm2W,0.0,-0.0229326,,2,3.0
CuCe2Os2,0.0,-0.049855,,2,3.0
S3NbRhTl,0.0,-0.0287349,,2,3.0
PS3Tl3,0.4624,-0.0370031,,2,3.0
Al3Si2Y3Os,0.0,-0.0228946,,2,3.0
Cu2PdPt,0.0,-0.0334635999999999,,2,3.0
CSi2EuW2,0.0,-0.037469,,2,3.0
Ga2Ge2Ho,0.0,-0.0243532,,2,3.0
Ti2Zn2Hg,0.0,-0.0256405,,2,3.0
Zn3SrRu,0.0,-0.0196796,,2,3.0
ScRh5,0.0,-0.0309417,,2,3.0
Sc6CrSb2,0.0,-0.0203764,,2,3.0
Cd2TbTm,0.0,-0.0402828,,2,3.0
O6CuBa2Tm,0.0,-0.0206585,,2,3.0
Ge4PdPt2,0.0,-0.0361251999999999,,2,3.0
GaPdTa,0.0,-0.0389752,,2,3.0
Li2InEr,0.0,-0.0224817,,2,3.0
SClZr,0.0,-0.0180116,,2,3.0
ZrPd2Te3,0.0,-0.0353603,,2,3.0
Rh2Pr2Hg,0.0,-0.0451799,,2,3.0
PbTh,0.0,-0.0862954,,2,3.0
Zn2SrPt2,0.0,-0.0386477,,2,3.0
Ga5SrAu2,0.0,-0.0307618,,2,3.0
ClTe2Pt,0.0,-0.0387526999999999,,2,3.0
LiNi2Mo,0.0,-0.0173354,,2,3.0
B2O6SrTb,0.0,-0.0150944,,2,3.0
S3Rh2Sn,0.0,-0.0225719,,2,3.0
Li2SnPb,0.0,-0.0295036999999999,,2,3.0
B2N3Mn2Th3,0.0,-0.0378665,,2,3.0
Nb3Bi,0.0,-0.044586,,2,3.0
Si2MnEr,0.0,-0.0228392,,2,3.0
PrSm,0.0,-0.0438517,,2,3.0
ScZrCd2,0.0,-0.0267299,,2,3.0
ZnSr2Pd2,0.0,-0.0253543,,2,3.0
AsRb3Te3,0.5063,-0.0285643,,2,3.0
B2N3Zn2Tb3,0.0,-0.022205,,2,3.0
O6InBa2Ta,4.2496,-0.0245851,,2,3.0
CdHg8,0.0,-0.0639229,,2,3.0
NaAg2Bi2,0.0,-0.044875,,2,3.0
RhHg4,0.0,-0.0613468,,2,3.0
Cl3Sb,3.2045,-0.0162098,,2,3.0
Cl6CuCs2Sm,2.3793,-0.0203459,,2,3.0
As3Pb4,0.0,-0.0519844,,2,3.0
O6CaEu2Ta,0.0,-0.0253904,,2,3.0
C2AlV3,0.0,-0.0139972999999999,,2,3.0
CuAg,0.0,-0.0232017,,2,3.0
CuSnDy,0.0,-0.0337064,,2,3.0
SCu2I2Hg,0.4888,-0.0304677,,2,3.0
YSb2La,0.0,-0.0377239,,2,3.0
Ni2Cd2Hg,0.0,-0.03217,,2,3.0
CdSnTb2,0.0,-0.0405617,,2,3.0
SeBr2Tb2,0.0,-0.0324269,,2,3.0
AlGd2Au,0.0,-0.0492466,,2,3.0
H8C2NBr3Hg,2.5705,-0.0126319999999999,,2,3.0
SrIn5,0.0,-0.0317486,,2,3.0
N3IBa,2.7787,-0.0215846,,2,3.0
KCd4Bi3,0.0,-0.0458596999999999,,2,3.0
PU2,0.0,-0.072925,,2,3.0
Li5S4Cr,0.9508,-0.0082322,,2,3.0
MgPdCe,0.0,-0.0280667,,2,3.0
MnCuPt2,0.0,-0.0440222,,2,3.0
O2FRb2,0.0,-0.0131282999999999,,2,3.0
Ga4YZr2,0.0,-0.0227634,,2,3.0
ScAs2Hf2,0.0,-0.0370024,,2,3.0
N3PdGd,0.0,-0.0244068,,2,3.0
F8PrDy2,0.0,-0.019367,,2,3.0
Li2O8P2W,0.2146,-0.0134922,,2,3.0
Ag8Cd,0.0,-0.0312811,,2,3.0
Se2CdTl,0.0,-0.0361715,,2,3.0
Rb3Cd,0.0,-0.0230957,,2,3.0
O6TiZnY2,3.3459,-0.0155441,,2,3.0
GeAs3,0.0,-0.0198839,,2,3.0
Li4CaAg,0.0,-0.0084533,,2,3.0
O6Ca2MoCd,2.0789,-0.0146776,,2,3.0
Zn2GeSe4,1.4051,-0.0186267,,2,3.0
SrCd2Dy,0.0,-0.0330788,,2,3.0
O6ZrBa2Ho,0.0,-0.0229372,,2,3.0
TiMn2Ga5,0.0,-0.0171748,,2,3.0
LiF6Ga3,3.6685,-0.0096245,,2,3.0
DyIrTl,0.0,-0.0643454,,2,3.0
Ni2As2Ba,0.0,-0.0231741,,2,3.0
F6RhDy,1.8088,-0.0159016,,2,3.0
Pd2Hf2Pb,0.0,-0.0539549999999999,,2,3.0
In2LaNd,0.0,-0.039032,,2,3.0
H6CrGd2,0.0,-0.0179655999999999,,2,3.0
FeSe2Hf6,0.0,-0.0488665999999999,,2,3.0
H2Ca2As,0.0,-0.0101353,,2,3.0
Nb2TaW,0.0,-0.0506409,,2,3.0
NaS2Np,0.0,-0.0340551,,2,3.0
Na2Cl8Ti3,0.3954,-0.0110242,,2,3.0
Sc4Tl5,0.0,-0.0467965,,2,3.0
Li3Ni2,0.0,-0.0078478,,2,3.0
Mn2GaTm,0.0,-0.026563,,2,3.0
Hg3Th,0.0,-0.0754538,,2,3.0
O6ZnRuLa2,0.0,-0.0198019,,2,3.0
Al3Ti2Ni,0.0,-0.0124687,,2,3.0
ClFe2Pr2,0.0,-0.0268607,,2,3.0
Fe4ZnMo,0.0,-0.0200588,,2,3.0
Sc2Zn2Pb,0.0,-0.0267514,,2,3.0
Ni2Ga5Hf,0.0,-0.0225328,,2,3.0
AsPd5Tb,0.0,-0.0337646,,2,3.0
MgIr4Pa,0.0,-0.0655318,,2,3.0
O3Rb3Y,2.1107,-0.0176524,,2,3.0
O4NaV2,0.0117,-0.0116775,,2,3.0
CaFe2Ni3,0.0,-0.0158385,,2,3.0
AlPtAc2,0.0,-0.0653306,,2,3.0
BeS2K2,2.9181,-0.0092414,,2,3.0
Be2MgRh2,0.0,-0.0169983,,2,3.0
SiBrLa,0.0,-0.0256394,,2,3.0
Al2CuI8,0.0672,-0.0300353,,2,3.0
AsRhCs,0.0,-0.0312487,,2,3.0
FeBrPr,0.0,-0.027864,,2,3.0
GeTmTa,0.0,-0.0464742999999999,,2,3.0
Al5CoNd,0.0,-0.0146509,,2,3.0
InLa3Os,0.0,-0.0472953,,2,3.0
GeTe3Nd4,0.0,-0.0396366,,2,3.0
O6ClAs4Cs,3.291,-0.0151301,,2,3.0
YSn3,0.0,-0.0344322,,2,3.0
S2Ni2Rb,0.0,-0.0151568,,2,3.0
BSnTb3,0.0,-0.0372627,,2,3.0
Y4InBa,0.0,-0.0304749,,2,3.0
MnSe3ZrSn,0.0,-0.0250552,,2,3.0
FeMoTc,0.0,-0.0293392,,2,3.0
GeCdPu2,0.0,-0.0674491,,2,3.0
PmLuPb2,0.0,-0.0633711,,2,3.0
Si2CaRe4,0.0,-0.0451471,,2,3.0
Li6O5FFe,0.845,-0.0072186,,2,3.0
B3O6Sb,3.8986,-0.0120075,,2,3.0
OsPt4,0.0,-0.0704624,,2,3.0
Sc2AgIn,0.0,-0.0238148,,2,3.0
H6O6Na2Sn,3.6297,-0.0082203,,2,3.0
F4CsAu,2.3604,-0.022116,,2,3.0
PCaNi,0.0,-0.013076,,2,3.0
B2MoW2,0.0,-0.0380808,,2,3.0
O8S2K2Pb,4.5246,-0.0143461,,2,3.0
Ge2CsPt,0.0,-0.0370287999999999,,2,3.0
CMgNd2,0.0,-0.0256918,,2,3.0
F6ClCs,3.403,-0.0096121,,2,3.0
Ge3RuTh,0.0,-0.038257,,2,3.0
Al4NiDy,0.0,-0.0164409999999999,,2,3.0
LaPt2Hg2,0.0,-0.0646325,,2,3.0
Mn2ZrU,0.0,-0.0426266,,2,3.0
B2LuOs3,0.0,-0.0480661,,2,3.0
S4NbTe,0.0,-0.0186115,,2,3.0
Li5O6Cu3,0.0,-0.0082822,,2,3.0
NRb2Ir,0.0,-0.0305633,,2,3.0
LiN2P,3.6323,-0.008903,,2,3.0
SiTiIr2,0.0,-0.0430355,,2,3.0
ZnY2Au2,0.0,-0.0424048,,2,3.0
MgSnPt,0.0,-0.0378791999999999,,2,3.0
O2Cl2NiSr2,0.0,-0.0150998,,2,3.0
NaCd2Pb,0.0,-0.0352708,,2,3.0
SeBrY,2.1783,-0.0246131,,2,3.0
Zr2Ho,0.0,-0.0367423,,2,3.0
S8Cr4CoNi,0.0,-0.0140556,,2,3.0
Li2NiTl,0.0,-0.0234698,,2,3.0
Ni2NbRh,0.0,-0.025163,,2,3.0
Be2GeRu2,0.0626,-0.0198466,,2,3.0
Ge2PrIr3,0.0,-0.049921,,2,3.0
LiIn2Ba,0.0,-0.0276881,,2,3.0
C6N6FeNiCs2,1.6817,-0.0143729999999999,,2,3.0
As2SbBa2,0.0,-0.0322972,,2,3.0
N3O6CsEu,0.4228,-0.0153542,,2,3.0
Be4SiRh,0.0,-0.0106077999999999,,2,3.0
Li6OF6Co,0.0,-0.0070587,,2,3.0
CCl5Dy4,0.0,-0.0260484,,2,3.0
PrIrBi,0.0,-0.0650784,,2,3.0
Li5OF5Ni,0.0,-0.0071395,,2,3.0
O5S2Ti2Ho2,0.5398,-0.0196025999999999,,2,3.0
Al3Rh2Nd,0.0,-0.0233826,,2,3.0
ORhSbPr,0.0,-0.0321357,,2,3.0
InTm2Tl,0.0,-0.0528737,,2,3.0
GdBi,0.0,-0.0696663999999999,,2,3.0
Cu2Sn2Eu,0.0,-0.0316093,,2,3.0
F4CaGe,3.7988,-0.0102192,,2,3.0
Mg2CoLa,0.0,-0.0175911,,2,3.0
Al8(Pb3O7)3,2.8336,-2.521137595328947,mp-13875,2,3.0
SnSb2Hg,0.0,-0.044649,,2,3.0
Zn2GaNd,0.0,-0.0222209,,2,3.0
NiTb6Pb2,0.0,-0.0503147,,2,3.0
AlZnPa,0.0,-0.040468,,2,3.0
PdPtAc2,0.0,-0.0719505,,2,3.0
Pd3Tm2,0.0,-0.0413851,,2,3.0
CuRu2Pr3,0.0,-0.0359494,,2,3.0
Cu3YAu2,0.0,-0.0357533,,2,3.0
Cl3AsSr3,1.4804,-0.0181302,,2,3.0
Na2SrCd2,0.0,-0.0184893,,2,3.0
Br4Cs2Sm,0.0,-0.030154,,2,3.0
F4AlRb,7.0838,-0.0107312,,2,3.0
S8FeCu3,0.0,-0.0119867,,2,3.0
Cl2AsRh,1.4179,-0.018237,,2,3.0
N3NiPr,0.0,-0.018063,,2,3.0
Ti6Se2Pd,0.0,-0.0195178,,2,3.0
MgSeHg,0.964,-0.0318161999999999,,2,3.0
O6Ga2Ba3,0.8427,-0.0196615,,2,3.0
PrTmPb,0.0,-0.0576029,,2,3.0
PrTb2,0.0,-0.0456001,,2,3.0
BNNdOs,0.0,-0.0340728999999999,,2,3.0
PYIr,0.0,-0.0378439,,2,3.0
Mg3Ag5,0.0,-0.0216679,,2,3.0
As2Rh2Pr,0.0,-0.0313476,,2,3.0
Ru2PmSm,0.0,-0.0397324,,2,3.0
Si2Mn2Th,0.0,-0.030957,,2,3.0
F8SrHo2,7.1769,-0.0178944,,2,3.0
O5PClKMo,0.4022,-0.0125664,,2,3.0
LiInTe2,1.4539,-0.0282703999999999,,2,3.0
CuRh2Dy3,0.0,-0.0384539,,2,3.0
Al3CuGe2Hf3,0.0,-0.0299504,,2,3.0
ZnTbHg,0.0,-0.0433755,,2,3.0
Cu2PmPb,0.0,-0.0377899,,2,3.0
ScCo2Ga3,0.0,-0.0167188,,2,3.0
B2O6Hg3,2.557,-0.0247188,,2,3.0
LiTiPd2,0.0,-0.0215783999999999,,2,3.0
NaBr6Rb2Pr,4.0023,-0.0225512,,2,3.0
N3LaOs,0.0,-0.0290525,,2,3.0
Al2Y3,0.0,-0.0201984,,2,3.0
PNiNb,0.0,-0.0207771,,2,3.0
ONd3Pb,0.0,-0.0441552999999999,,2,3.0
NiPm2Au,0.0,-0.0439226,,2,3.0
F3SrTl,4.2956,-0.0242012,,2,3.0
PdTbHg2,0.0,-0.0545978,,2,3.0
Eu3TaO7,0.0,-3.311953702939395,mp-1213095,2,3.0
ZrRh2In,0.0,-0.0337832999999999,,2,3.0
FeCuRh2,0.0,-0.0253293,,2,3.0
Zn5Tm,0.0,-0.020248,,2,3.0
O6NaSe2Tl3,3.0555,-0.0259875,,2,3.0
YPd3,0.0,-0.0324525,,2,3.0
Al3Si2PdSm3,0.0,-0.0240996999999999,,2,3.0
SiCaCo2,0.0,-0.013875,,2,3.0
Li2GaLa,0.0,-0.0163679999999999,,2,3.0
ZnSnLa,0.0,-0.0316146,,2,3.0
O6AlSr2Pu,0.0,-0.0231243,,2,3.0
CuSbU,0.0,-0.0520598,,2,3.0
Ru2SbEr,0.0,-0.0399095999999999,,2,3.0
GeTe4Bi2,0.3935,-0.0465903,,2,3.0
LiO2Bi,2.0051,-0.0248644,,2,3.0
SbNdAu2,0.0,-0.0555699,,2,3.0
KAuPb2,0.0,-0.0576102,,2,3.0
ZrRu2Pt,0.0,-0.043251,,2,3.0
Si2Os2Pa,0.0,-0.0534482,,2,3.0
LiP2Fe2La,0.0,-0.0178306,,2,3.0
O4Cs3Au,0.0,-0.026924,,2,3.0
Cl3GeSm3,0.0,-0.0269837,,2,3.0
S3CaAgHo,1.5752,-0.0215656,,2,3.0
F6CoTl,0.6888,-0.0158755,,2,3.0
O6MgFeSm2,0.0,-0.0179446,,2,3.0
B2CTbPt2,0.0,-0.0361345999999999,,2,3.0
Ca2RbPb2,0.0,-0.0388443,,2,3.0
N3RePu,0.0,-0.0423732,,2,3.0
SbHoTh,0.0,-0.0614964,,2,3.0
F6NaRb2Nb,0.0,-0.0129807,,2,3.0
O6Y2Mo,3.5744,-0.0173954,,2,3.0
Si2YPd,0.0,-0.02107,,2,3.0
Al2ScTa,0.0,-0.0244349,,2,3.0
RbPd2Pb2,0.0,-0.0478552999999999,,2,3.0
HRh3Sn,0.0,-0.0284198,,2,3.0
C4LaTb,0.0,-0.0220126,,2,3.0
ZnNbPd,0.0,-0.0268179,,2,3.0
Mg5Pt,0.0,-0.0162531,,2,3.0
BeZrRh2,0.0,-0.0264925,,2,3.0
O6FeSr2Dy,0.1507,-0.0175609,,2,3.0
S2Co3Sn2,0.0,-0.0207168,,2,3.0
S2AgIn,0.2727,-0.0215238,,2,3.0
Br2Nd2Pb,0.0,-0.0419152,,2,3.0
PYRh,0.0,-0.0254321,,2,3.0
CYRu3,0.0,-0.0287242,,2,3.0
H10O8AlCa2I,4.3153,-0.0084765999999999,,2,3.0
F6KCs2Nd,6.4307,-0.0183681,,2,3.0
MnPrPt4,0.0,-0.0579665,,2,3.0
GePdNp,0.0,-0.053381,,2,3.0
HTaOs3,0.0,-0.0572275,,2,3.0
B2Ni7Pr3,0.0,-0.0218733,,2,3.0
HoErBi,0.0,-0.059959,,2,3.0
Cd3Au2Th,0.0,-0.0546413,,2,3.0
COCe,0.0,-0.0223542999999999,,2,3.0
Mn2NiCe2,0.0,-0.0284116,,2,3.0
Na2SnPb,0.0,-0.0302531,,2,3.0
ClSe2La2,0.0,-0.0292065,,2,3.0
Co2Sm2Pb,0.0,-0.0401993,,2,3.0
CTeEr2,0.0,-0.0380439,,2,3.0
H8Fe3Pr,0.0,-0.010572,,2,3.0
Rh2BaIr,0.0,-0.0446577,,2,3.0
CdBaPb4,0.0,-0.0624295,,2,3.0
AsTe3,0.0,-0.0329236,,2,3.0
F6K2Nb,0.0,-0.0110382,,2,3.0
Co4ZrOs,0.0,-0.0287407,,2,3.0
InLu,0.0,-0.0449142,,2,3.0
O7K2TbTa2,0.0,-0.0229279,,2,3.0
O8P2K3Ca,0.2405,-0.0101235,,2,3.0
Ni3Se4Rb2,0.3863,-0.0196664,,2,3.0
Li2PdIn2,0.0,-0.0213028,,2,3.0
S3Pt2,0.0,-0.0342887,,2,3.0
O2AsAg,2.2781,-0.016899,,2,3.0
Na2K2Hg,0.0,-0.018725,,2,3.0
Na5Pt,0.0,-0.0152394,,2,3.0
P12Co4Nd,0.0,-0.0145163,,2,3.0
Li3O8Cr3Fe,0.0,-0.0109856,,2,3.0
O3CuHo,0.0,-0.0188348,,2,3.0
HSrInSn,0.3859,-0.0242419,,2,3.0
TiCo2Ga,0.0,-0.0172918,,2,3.0
ZnISm,0.0,-0.0325371999999999,,2,3.0
ScY2Ag2,0.0,-0.0268133,,2,3.0
SiIr3,0.0,-0.0562821,,2,3.0
C4RhLa3,0.0,-0.025843,,2,3.0
AlRhPr,0.0,-0.0292032999999999,,2,3.0
Ni3Zn2Eu,0.0,-0.0218017,,2,3.0
Cl3RbPb,3.1394,-0.0257251,,2,3.0
SSbPt,0.0,-0.0395126,,2,3.0
HAlSrPb,0.4287,-0.0278136,,2,3.0
Ti3Tc,0.0,-0.0210806,,2,3.0
TePb,0.636,-0.0568990999999999,,2,3.0
H2CuRh2,0.0,-0.017879,,2,3.0
Pd5Ta,0.0,-0.038821,,2,3.0
H5K3Pt,2.9153,-0.0129599,,2,3.0
P2S7VCs,0.0,-0.0138314,,2,3.0
O2SbDy2,0.0,-0.0320585,,2,3.0
Li4Mg5,0.0,-0.0038594,,2,3.0
O4TiMo,0.0,-0.0152538,,2,3.0
O8TiNi4Ge,0.3483,-0.0125786,,2,3.0
Re3Ir,0.0,-0.0713104,,2,3.0
Ni4Sb2Cs,0.0,-0.0255135,,2,3.0
Li4OF4Mn,1.2549,-0.0076405,,2,3.0
AsPd,0.0,-0.0268559,,2,3.0
AlPd2Er2,0.0,-0.0357950999999999,,2,3.0
ScY2Pb2,0.0,-0.045049,,2,3.0
AlNiZr,0.0,-0.0189434,,2,3.0
H10O16CuAs4,0.7086,-0.0085547,,2,3.0
O6ClKSb4,2.7387,-0.0183246,,2,3.0
KTiSe2,0.0,-0.0175035999999999,,2,3.0
H2Y3Pb,0.0,-0.0283929,,2,3.0
Al4PrOs,0.0,-0.0249664,,2,3.0
IPtTl3,0.0,-0.0652244,,2,3.0
Li2Tl2Pb,0.0,-0.0452734,,2,3.0
Cu2Y2Pb,0.0,-0.0329063999999999,,2,3.0
Zn2Pd3Tb,0.0,-0.0293815999999999,,2,3.0
Ag2InTm,0.0,-0.037394,,2,3.0
FeSb2Sm6,0.0,-0.040498,,2,3.0
Sb2EuPt,0.0,-0.0504219,,2,3.0
O2Se,3.4435,-0.0116051,,2,3.0
SeCd2Te,0.5092,-0.0301279,,2,3.0
NaDyAu2,0.0,-0.0483442,,2,3.0
CRh3Lu,0.0,-0.0339851,,2,3.0
O4ZnPt,0.0,-0.0188409,,2,3.0
F6PaU,0.0,-0.0314648,,2,3.0
O8As2BaTm,0.0,-0.0173395,,2,3.0
P2Cu4Er,0.0,-0.0193927,,2,3.0
Al2VNi9,0.0,-0.0153015,,2,3.0
Cd2InPb2,0.0,-0.0490672,,2,3.0
Cl3Nd2,0.3205,-0.0243251,,2,3.0
PZrPd5,0.0,-0.0300416999999999,,2,3.0
P4CaCo6,0.0,-0.0146977,,2,3.0
LiPb8,0.0,-0.0676924999999999,,2,3.0
MnSn,0.0,-0.0272177,,2,3.0
SnSbEu,0.0,-0.0429671,,2,3.0
Br2Ag2Hg,0.2046,-0.0341659,,2,3.0
PrHo,0.0,-0.0461128,,2,3.0
Lu2Au2Tl,0.0,-0.065216,,2,3.0
NaSmPb2,0.0,-0.0505442,,2,3.0
CSiNb3,0.0,-0.024545,,2,3.0
O10CePr4,0.0,-0.0216863,,2,3.0
Cu2Ir3Th,0.0,-0.0570575,,2,3.0
O6RhBa2Tb,0.0,-0.0222838,,2,3.0
Li3O8CrCo3,0.0,-0.0104056,,2,3.0
WIr,0.0,-0.0707584,,2,3.0
Ga3ErIr2,0.0,-0.0410266,,2,3.0
BeRu2Re,0.0,-0.0365104,,2,3.0
SAsY,0.0015,-0.021027,,2,3.0
Li4O5Np,0.5455,-0.0173964,,2,3.0
Cr2MnFe,0.0,-0.0183171,,2,3.0
BrRhNd,0.0,-0.0336574,,2,3.0
SiZr2Pt,0.0,-0.0365281,,2,3.0
AlSnGd,0.0,-0.0347086,,2,3.0
ZrPmPb2,0.0,-0.0570474,,2,3.0
O6MgSnTm2,3.7716,-0.0212653,,2,3.0
Al5CuHf,0.0,-0.0169247,,2,3.0
O6Sr2NbTb,3.1359,-0.0195152,,2,3.0
AlSi2Pu,0.0,-0.0346725,,2,3.0
ScRh2Sn,0.0,-0.0303981,,2,3.0
LaHo3,0.0,-0.0474905,,2,3.0
O6Ti2Er,0.0,-0.0165168,,2,3.0
NaYPb,0.0,-0.0365562,,2,3.0
N2HoTa,0.0,-0.0351294,,2,3.0
Ru2RhTa,0.0,-0.042879,,2,3.0
S4Ti2Pt,0.0,-0.0212872,,2,3.0
H6CrNd2,0.0,-0.0145715,,2,3.0
Na3As2Sr,0.0,-0.0132116,,2,3.0
NaAs6Sn6Ba2,0.0,-0.0284864999999999,,2,3.0
O6Sr2HoHf,0.0,-0.0227186999999999,,2,3.0
SiCo3Dy2,0.0,-0.0266063,,2,3.0
Li4As2Ho,0.0,-0.0150463,,2,3.0
CdInLa2,0.0,-0.038072,,2,3.0
CMn3Sn,0.0,-0.020265,,2,3.0
CSi2Co2Y2,0.0,-0.0178881,,2,3.0
S4SrEr2,2.0533,-0.0253779,,2,3.0
NbSn2,0.0,-0.0351123,,2,3.0
SiRh2Pr2,0.0,-0.0337528,,2,3.0
CrSe4Rh3,0.0,-0.0253498,,2,3.0
MnOs2Ir,0.0,-0.0583918,,2,3.0
FeGeTa4,0.0,-0.0508227,,2,3.0
Tc2IrPt,0.0,-0.0531588,,2,3.0
NSbPu3,0.0,-0.0760454,,2,3.0
InBaPb,0.0,-0.0502344,,2,3.0
Co2ZnW,0.0,-0.0293351,,2,3.0
Si3CaCo,0.0,-0.011811,,2,3.0
Mn3Ni4Sb,0.0,-0.0198852,,2,3.0
O6Ca2CrTa,0.8565,-0.0173355,,2,3.0
Zr3Sn3Ir2,0.0,-0.0435275,,2,3.0
SiRhIr,0.0,-0.0390004,,2,3.0
AsAg2Ac,0.0,-0.0436019999999999,,2,3.0
Co2Ga3Er,0.0,-0.0227756,,2,3.0
HFe3Tc,0.0,-0.0182868,,2,3.0
CaCdBa2,0.0,-0.0299731,,2,3.0
MgSePd5,0.0,-0.0274449,,2,3.0
KMnSe3Nb,0.0,-0.0210408,,2,3.0
Mn3Sb2,0.0,-0.0259416,,2,3.0
B2O6K2Er,0.0,-0.0135416,,2,3.0
CoZnIr2,0.0,-0.0433271999999999,,2,3.0
P3Zn2I,1.3308,-0.0161241,,2,3.0
N4Mg3Al2,2.7676,-0.0087026,,2,3.0