formula,bg,formation_energy,mp-id,fidelity,bg_category
C4Ba3Ir,0.0,-0.0289436,,2,3.0
H6Li3Al,3.3972,-0.0039197,,2,3.0
C3N2Al6,0.0,-0.0093309,,2,3.0
AgCdNd2,0.0,-0.0375908,,2,3.0
HFe3Sn,0.0,-0.0187047999999999,,2,3.0
ZnTb2Os2,0.0,-0.0505656,,2,3.0
O6NaTi2Ce,0.0,-0.0151196,,2,3.0
O4Mg3Cu,0.0,-0.0093079,,2,3.0
B4CrHo,0.1925,-0.0169049,,2,3.0
Te2DyAu,0.1313,-0.0488517,,2,3.0
FeLa,0.0,-0.0304755,,2,3.0
PCaSr2,0.0,-0.0168281,,2,3.0
Ag3Pb,0.0,-0.0423961,,2,3.0
F6GaPr,6.6398,-0.0136302,,2,3.0
O7SiP2,5.9983,-0.0100124999999999,,2,3.0
BeNi2Ir,0.0,-0.0272148,,2,3.0
Co2NiY3,0.0,-0.0226316999999999,,2,3.0
P5Tb,0.0,-0.0170891,,2,3.0
F6PrEr,7.1518,-0.0186275,,2,3.0
O8KMo2Rh,1.6536,-0.0154078,,2,3.0
ZnTb,0.0,-0.0305504,,2,3.0
KSe6Th2,0.0,-0.0372552,,2,3.0
B4Ca2Ir5,0.0,-0.0375238,,2,3.0
O3V2,0.0,-0.0133163,,2,3.0
MgSrBa,0.0,-0.0222948,,2,3.0
O8Ti3Cu,0.0,-0.0119337,,2,3.0
BeCaCu2,0.0,-0.0112204,,2,3.0
B2Fe2Ni,0.0,-0.0137373,,2,3.0
NaAl2Au,0.0,-0.0226942999999999,,2,3.0
F3BrRbSb,3.6522,-0.0169848,,2,3.0
H5K3Zn,3.5262,-0.0065214,,2,3.0
Ni2Ga5Er,0.0,-0.0210796,,2,3.0
NAgTh2,0.0,-0.0589521999999999,,2,3.0
F6CoRb3,1.2623,-0.0128255,,2,3.0
Li2O4AlV,0.0,-0.0096417,,2,3.0
P4Rh6Er,0.0,-0.0277765,,2,3.0
As2AgLa,0.0,-0.0296469,,2,3.0
MgCu2Te3,0.0,-0.0248042,,2,3.0
GeAu2Th,0.0,-0.0640553,,2,3.0
Li2PBa,0.0,-0.0144233,,2,3.0
RbTe2Pr,1.1317,-0.0362466,,2,3.0
Co3NiSe4Tl2,0.0,-0.0295167,,2,3.0
Fe3NiAs8,0.0,-0.019608,,2,3.0
Sb2GdIr,0.0,-0.0518488,,2,3.0
LiP2Ni2Np,0.0,-0.0278174,,2,3.0
Si2YRh,0.0,-0.0214561999999999,,2,3.0
C4MnSm3,0.0,-0.0242274,,2,3.0
SbTa4,0.0,-0.060768,,2,3.0
V3Sn,0.0,-0.0222354,,2,3.0
H2ZnLa2,0.0,-0.0218971,,2,3.0
Be2MoRe,0.0,-0.0289331,,2,3.0
Cl6CuCs2Tb,2.5615,-0.0205843,,2,3.0
Mg2Al2Zn,0.0,-0.0077784,,2,3.0
O5S2Hf2U2,0.0,-0.0377243,,2,3.0
Cu2GaEu,0.0,-0.0254362,,2,3.0
Ga2SnHg2,0.0,-0.0408162,,2,3.0
Ag2SnTe4Ba,0.0,-0.0364795,,2,3.0
Ga3Ge2RhTb3,0.0,-0.0299624,,2,3.0
AlZn2Tc,0.0,-0.0177359,,2,3.0
TcPt,0.0,-0.0528531,,2,3.0
AlBa,0.0,-0.0238811,,2,3.0
Li2O3Pa,0.0,-0.0233369,,2,3.0
H5CoBa2,0.156,-0.0147030999999999,,2,3.0
ZrRuInIr,0.0,-0.043203,,2,3.0
P4Ni2Sr,0.0,-0.0144552,,2,3.0
ScCd2Sm,0.0,-0.0302915,,2,3.0
ScZn2Ho,0.0,-0.0230086,,2,3.0
KTe3TbHg,0.765,-0.0402554,,2,3.0
Ga3CdBa,0.0,-0.0242627999999999,,2,3.0
MgAs4Rh6,0.0,-0.0268748,,2,3.0
FeBrHf,0.0,-0.0341336,,2,3.0
RhTe2Hf6,0.0,-0.0544316,,2,3.0
HF2Ag,1.3986,-0.0118173,,2,3.0
Al3CuGe2Eu3,0.0,-0.0269599,,2,3.0
SiSe7Bi4,0.2359,-0.0389647,,2,3.0
O4Mg2Ti,2.6427,-0.0104329,,2,3.0
HCl2Tb2,0.0,-0.024221,,2,3.0
Rh2Sn2Au,0.0,-0.0420185,,2,3.0
ScSrCd2,0.0,-0.024719,,2,3.0
LiO2Rb,2.628,-0.0102051,,2,3.0
CoCu2Se2,0.0,-0.0176426,,2,3.0
N3OsTh,0.0,-0.0397891,,2,3.0
O2SCuCs5,0.8891,-0.0263141,,2,3.0
PdITb,0.4361,-0.0399215,,2,3.0
CdPt4,0.0,-0.0623417,,2,3.0
BC2Y2,0.0,-0.0172633,,2,3.0
CrCo2Zn,0.0,-0.0165666,,2,3.0
NCo3,0.0,-0.0151455,,2,3.0
CaCdSn,0.0,-0.0259640999999999,,2,3.0
Co2Nb2Ru,0.0,-0.0271891,,2,3.0
AlMnRuPt,0.0,-0.0336292,,2,3.0
Al4BaLa,0.0,-0.0192838,,2,3.0
Mn6Te5O16,0.8991999999999991,-1.792328400589612,mp-1211172,2,3.0
Ge2RhIn3Dy3,0.0,-0.0358886,,2,3.0
CrNi2Te3,0.0,-0.0273423,,2,3.0
Al2Ag3Er,0.0,-0.0269619,,2,3.0
Li2AlSb,0.0,-0.0127424,,2,3.0
SrSmTl2,0.0,-0.0534209,,2,3.0
Al2Zn3Ba,0.0,-0.0161121,,2,3.0
PS5TiTl,0.8483,-0.0192024,,2,3.0
PdCdBi,0.0,-0.0475465,,2,3.0
Mg6CoTe2,0.0,-0.0138069,,2,3.0
NbRh2,0.0,-0.0339752,,2,3.0
Pd2InAc,0.0,-0.0479957,,2,3.0
Rh3SnU2,0.0,-0.057794,,2,3.0
RhHo3,0.0,-0.0457785999999999,,2,3.0
Mg2PdPr,0.0,-0.0221101,,2,3.0
NiGa6Ba,0.0,-0.0196477,,2,3.0
TcIr5,0.0,-0.0652398,,2,3.0
TeBi,0.0474,-0.0580537,,2,3.0
Ru2GdLu,0.0,-0.0463677,,2,3.0
Ga3Dy2Os,0.0,-0.0368157,,2,3.0
As2W,0.0,-0.0366817,,2,3.0
MgSiZn,0.0,-0.0095485,,2,3.0
Zr2BaBi2,0.0,-0.0521972,,2,3.0
SeSbDy,0.0,-0.0365127,,2,3.0
BeAl2Fe,0.0,-0.0096804,,2,3.0
Ge2Sr2Sn,0.0,-0.0243362,,2,3.0
FeGe3Y,0.0,-0.021125,,2,3.0
Be3Zr,0.0,-0.0111221999999999,,2,3.0
PdBi2U,0.0,-0.0734664999999999,,2,3.0
Si2AgSm,0.0,-0.0244851,,2,3.0
Cl2TeEu2,0.2467,-0.0343859,,2,3.0
Ca2SrPd2,0.0,-0.0220003,,2,3.0
RbZrAgTe3,0.0272,-0.0333361,,2,3.0
NaAgIn2,0.0,-0.0257868,,2,3.0
H8N2O4S,5.3341,-0.0063183999999999,,2,3.0
AlGeSm,0.0,-0.0244999,,2,3.0
F6MnRu,0.0,-0.0115683,,2,3.0
Sc2RuTl,0.0,-0.0345675,,2,3.0
Be2MgPd2,0.0,-0.0165004999999999,,2,3.0
PTe3Tb4,0.0,-0.0401751999999999,,2,3.0
RbTe2Hf,0.0,-0.0404146,,2,3.0
RhLu2Au,0.0,-0.0545024,,2,3.0
Co2Br8Ir,0.0,-0.0241491,,2,3.0
Sc2NiIn,0.0,-0.0200792,,2,3.0
FeRe2,0.0,-0.0533853,,2,3.0
Na2SrSb2,0.0,-0.021684,,2,3.0
Ni2SrLa,0.0,-0.0245344,,2,3.0
LuAu,0.0,-0.06342,,2,3.0
OAgTeHo,1.2189,-0.0329886,,2,3.0
Ag5Te,0.0,-0.0323389,,2,3.0
O4CoSr2,0.0,-0.0147148,,2,3.0
TeAuPb2,0.0,-0.0646619,,2,3.0
Cl2AsPa2,0.0,-0.0483916,,2,3.0
Si4Co4Pr3,0.0,-0.0222777,,2,3.0
Li2O2Bi,0.0,-0.0206989,,2,3.0
NiSe2Te,0.0,-0.0235474,,2,3.0
Si3NbLa,0.0,-0.0219064,,2,3.0
YSn2Ac,0.0,-0.0482272,,2,3.0
Sn2Tm2Pb,0.0,-0.0508099,,2,3.0
Be2Si2Np,0.0,-0.0272196,,2,3.0
Al6Ag5,0.0,-0.0185550999999999,,2,3.0
Al2AgTb,0.0,-0.0238957,,2,3.0
LiBr4Ag,0.395,-0.0192621,,2,3.0
Ga2CeSm,0.0,-0.0310368,,2,3.0
LiO4FeSb,0.1169,-0.0134338,,2,3.0
SnErTa,0.0,-0.0513994,,2,3.0
Te3Tb,0.0,-0.0406693,,2,3.0
S3NiCs2,0.0,-0.0209179,,2,3.0
Ga2Pd2Th,0.0,-0.0396742,,2,3.0
Pr3Ir,0.0,-0.0507599,,2,3.0
ScPd2Au,0.0,-0.0380285999999999,,2,3.0
SrCeBi,0.0,-0.0492678,,2,3.0
F5Cl,3.3628,-0.0048676,,2,3.0
NiSb2Tb6,0.0,-0.0419316,,2,3.0
OPCdLa,1.2872,-0.0245381,,2,3.0
OSeNp,0.0,-0.0466184,,2,3.0
S2GeTa,0.0,-0.0269817,,2,3.0
Zn2MoIr,0.0,-0.0334526,,2,3.0
BaTl2,0.0,-0.0619836,,2,3.0
Ca2Ag2In,0.0,-0.023496,,2,3.0
TiAsSe,0.0,-0.0197376,,2,3.0
FeTm2,0.0,-0.0405096,,2,3.0
CMn2Sn2Tb2,0.0,-0.0307532,,2,3.0
Br3Ho,4.0383,-0.0289074,,2,3.0
N2MoCs,0.0,-0.0234312,,2,3.0
Cl6Cs3Pr,4.7279,-0.022783,,2,3.0
RbBa3Ir,0.0,-0.0421402,,2,3.0
F4K2Ag,0.6193,-0.0111579,,2,3.0
O7Na2NdTa2,0.0,-0.021963,,2,3.0
LiSi2Fe2,0.0,-0.0119915,,2,3.0
MnFeCoNi,0.0,-0.0177081,,2,3.0
Ga2CeDy,0.0,-0.0318852,,2,3.0
Ga2ZrRh,0.0,-0.025157,,2,3.0
Al2MnHo6,0.0,-0.0365593,,2,3.0
CrSb3Er,0.0,-0.0365917,,2,3.0
LiO3FSe,3.5437,-0.0088182,,2,3.0
Al2GaSr2,0.0,-0.0155372,,2,3.0
SiTe3Ho4,0.0,-0.0410062,,2,3.0
V2Ga4Tm,0.0,-0.0222631,,2,3.0
AlAu4,0.0,-0.0571407,,2,3.0
Ni2Ta2Ir,0.0,-0.0478278,,2,3.0
CoSb4Nd2,0.0,-0.0369928,,2,3.0
RuSb2Ho,0.0,-0.0403123,,2,3.0
LiGa2Ir,0.0,-0.0271553,,2,3.0
Sc2CuPd,0.0,-0.0197962,,2,3.0
Cr5Re4,0.0,-0.0417831,,2,3.0
La6MnSb15,0.0,-0.8696052292946721,mp-2212268,2,3.0
Li2CuSe2,0.0,-0.0128280999999999,,2,3.0
Si2SnNd2,0.0,-0.0293352,,2,3.0
SmAu3,0.0,-0.0638168,,2,3.0
MgPd2Sm,0.0,-0.0295615999999999,,2,3.0
Si4Co4Ho3,0.0,-0.0239715,,2,3.0
H4Mn3Rh,0.0,-0.0128042,,2,3.0
NaBr6Cs2Tm,4.3965,-0.0268939999999999,,2,3.0
H4NiHo,0.0,-0.0137025,,2,3.0
NaCl5K4,4.9941,-0.00988,,2,3.0
Ga2PdU,0.0,-0.0426296,,2,3.0
Al3Sc4,0.0,-0.0117902,,2,3.0
Al3Pt2U,0.0,-0.0454204999999999,,2,3.0
AlNi2In,0.0,-0.0187794999999999,,2,3.0
PSbEu3,0.0,-0.0427661,,2,3.0
O6CoNiLu2,0.0,-0.0207876,,2,3.0
Sc2As2Hf,0.0,-0.027441,,2,3.0
O2TbAu,2.6319,-0.0345473,,2,3.0
GeYHf,0.0,-0.0372785999999999,,2,3.0
Ni4CdLa,0.0,-0.023247,,2,3.0
H2CuY2,0.0,-0.0161345,,2,3.0
N2RbNb,1.8418,-0.0190417999999999,,2,3.0
Sc6Sn2Pt,0.0,-0.0260928,,2,3.0
SiS4Cu2Sr,1.3172,-0.0136656,,2,3.0
NaRbPdTl2,0.0,-0.0406852,,2,3.0
F6AgCs,1.5238,-0.0127762,,2,3.0
TiSb5Sm3,0.0,-0.0382822,,2,3.0
Ca6RhSb2,0.0,-0.0192195,,2,3.0
Ge2TbIr,0.0,-0.0399031,,2,3.0
KNi2As2Dy,0.0,-0.0222139999999999,,2,3.0
SGa,1.7138,-0.0137184,,2,3.0
Nd10S14O,1.8023,-2.4672929015999983,mp-560608,2,3.0
SiPd3Tb2,0.0,-0.0345878,,2,3.0
BeTe,1.8278,-0.0212462,,2,3.0
NaPdCdIn,0.0,-0.0254861,,2,3.0
Cu4Sb2Ba,0.0,-0.0252716999999999,,2,3.0
Ti2Ni2Pd,0.0,-0.019994,,2,3.0
Zr3Cd4,0.0,-0.0307115,,2,3.0
CuGeNp,0.0,-0.0472545,,2,3.0
SiCl2Tb2,0.0,-0.0256318,,2,3.0
GaSrCd,0.0,-0.0235168,,2,3.0
S3Ag3Sb,0.3627,-0.0230565,,2,3.0
Sn3Pm,0.0,-0.0384776,,2,3.0
Zn2Pa,0.0,-0.042308,,2,3.0
F6KAsRb2,4.5077,-0.0117661,,2,3.0
Ga3Rh2Tb2,0.0,-0.0309427,,2,3.0
Al6SmPt,0.0,-0.0208165,,2,3.0
Li3MgSb2,0.0,-0.0149677,,2,3.0
ZnHoPt,0.0,-0.0453937,,2,3.0
SiFe8,0.0,-0.0170699,,2,3.0
O5CoBaEr2,0.0,-0.0240683,,2,3.0
NaNi2Sb2Ho,0.0,-0.0272444999999999,,2,3.0
H6CrLa2,0.0,-0.01447,,2,3.0
RhHgTl2,0.0,-0.0616166,,2,3.0
LiO6MoTb2,0.0,-0.0198157999999999,,2,3.0
Co3Rh,0.0,-0.0214173,,2,3.0
Ni2CuCd,0.0,-0.0193644,,2,3.0
Fe2Co3Ce,0.0,-0.0221911,,2,3.0
LiEu2Tl,0.0,-0.045878,,2,3.0
LiBe2Os2,0.0,-0.0311629,,2,3.0
O8CrW2Tl,1.3055,-0.0254768,,2,3.0
SrTbHg2,0.0,-0.0519924,,2,3.0
SbCePt,0.0,-0.0519787,,2,3.0
CuSnPm2,0.0,-0.0352631999999999,,2,3.0
F6KMnCs2,0.4969,-0.0153694,,2,3.0
Ge2InEr2,0.0,-0.0352209,,2,3.0
H6LiNa2Cr,1.8079,-0.005325,,2,3.0
Cl7Sc3Te,2.0827,-0.0145245,,2,3.0
FeGeTa,0.0,-0.0348271,,2,3.0
Si3NiGd,0.0,-0.0216778,,2,3.0
CSi2Ni2Ce2,0.0,-0.0222436,,2,3.0
H4Ti2Pt,0.0,-0.0170759,,2,3.0
Ta3Os5,0.0,-0.0702185999999999,,2,3.0
Al5PrPt2,0.0,-0.0289,,2,3.0
Al5Mn2Nd,0.0,-0.0152353,,2,3.0
KSb2Ba2,0.0,-0.0333076,,2,3.0
CuEr2Os,0.0,-0.0473757999999999,,2,3.0
Cu4As,0.0,-0.016173,,2,3.0
OSAgDy,1.1034,-0.0259402,,2,3.0
Zn2Tm,0.0,-0.0267739,,2,3.0
O6Ca2TiMn,0.9598,-0.0121828,,2,3.0
GeInPt5,0.0,-0.0580848999999999,,2,3.0
AlRe,0.0,-0.0398262,,2,3.0
SiCr2Mn,0.0,-0.0165356999999999,,2,3.0
V2Ga4Er,0.0,-0.0220502,,2,3.0
Te2Ho6Re,0.0,-0.0495469999999999,,2,3.0
P2AuTl,0.0,-0.0406646,,2,3.0
Pd2Sn2Sm,0.0,-0.0371849,,2,3.0
GeBrNd,0.0,-0.0287516,,2,3.0
BNa3S3,2.4636,-0.0081247,,2,3.0
Sc5Mo,0.0,-0.0175362,,2,3.0
B4Pr2Ir5,0.0,-0.0437363,,2,3.0
CaBa2Pt,0.0,-0.0402651,,2,3.0
AlRu2,0.0,-0.0262810999999999,,2,3.0
Cl3GaDy3,0.0,-0.0279244999999999,,2,3.0
Li2Cd2Pb,0.0,-0.028494,,2,3.0
Dy3Ir2Hg,0.0,-0.0598883999999999,,2,3.0
Ge3NdIr,0.0,-0.0351971,,2,3.0
In2Pb2Bi,0.0,-0.0592598,,2,3.0
OSc3,0.0,-0.0138334,,2,3.0
Ni2Ho3Au,0.0,-0.0420549,,2,3.0
Ge2Y3In3Au,0.0,-0.0331028,,2,3.0
Cu2InTm,0.0,-0.0292975,,2,3.0
F6Rb2Nb,0.0,-0.013804,,2,3.0
N2NdLu,0.0,-0.0312356,,2,3.0
BeZrHg,0.0,-0.0347087,,2,3.0
LiP2Cu2Ho,0.0,-0.0179801,,2,3.0
Ni2Nb2Sn,0.0,-0.0271158,,2,3.0
MnGa6Pr,0.0,-0.0203827,,2,3.0
GaBa,0.0,-0.0283667,,2,3.0
Ti2ReAu,0.0,-0.0436091,,2,3.0
GeCdBa,0.0,-0.0302442,,2,3.0
MnRhPt2,0.0,-0.0486267,,2,3.0
F4Ti,4.2493,-0.0095602,,2,3.0
Se3CsPt2,1.0417,-0.0405364,,2,3.0
SiGaPt5,0.0,-0.0545275,,2,3.0
Li2O7Nb2Ce,0.0,-0.0161177999999999,,2,3.0
Al2FeLa6,0.0,-0.0325915,,2,3.0
MgPt4,0.0,-0.0575913,,2,3.0
Ga2DyLu,0.0,-0.0346161,,2,3.0
Sc2Ge2Pd,0.0,-0.0208648,,2,3.0
CuGa3Y3Sn2,0.0,-0.0250803,,2,3.0
NiRh2Lu3,0.0,-0.0425730999999999,,2,3.0
Al3RhSn2Pr3,0.0,-0.0295829999999999,,2,3.0
Ca2CoNi2,0.0,-0.0138493,,2,3.0
Ga3Ge2RuNd3,0.0,-0.0288722,,2,3.0
Li2SrBi2,0.0,-0.0375163,,2,3.0
H2O3PSeRb,3.7847,-0.0112086,,2,3.0
O6V2Ni,0.5061,-0.0120408,,2,3.0
B2FeCo,0.0,-0.0128582,,2,3.0
BeSe,2.4593,-0.0131589,,2,3.0
BSrIr4,0.0,-0.0526582,,2,3.0
NaPdCd2,0.0,-0.0246942,,2,3.0
Ti2Bi,0.0,-0.0371025,,2,3.0
ZrRhIn5,0.0,-0.0334392,,2,3.0
Al3FeSn2Pu3,0.0,-0.0494345,,2,3.0
Ge2InTm2,0.0,-0.0357982,,2,3.0
LaPt4Au,0.0,-0.0663231,,2,3.0
RbPtPb2,0.0,-0.0609784,,2,3.0
Al4Gd,0.0,-0.018224,,2,3.0
Ga6RbAg4,0.0,-0.0222301,,2,3.0
Ge2Dy,0.0,-0.029329,,2,3.0
LiRhCdSn,0.0,-0.0260563,,2,3.0
O8CuSmW2,1.22,-0.0231376999999999,,2,3.0
H2O,5.5804,-0.0054281,,2,3.0
LiCl4Ir,1.3453,-0.0186265,,2,3.0
Zn2GaTb2,0.0,-0.0278935999999999,,2,3.0
LiTiHg2,0.0,-0.0389633,,2,3.0
H12O6F6SiNi,1.8896,-0.0065333,,2,3.0
Zn2GaDy2,0.0,-0.0283081,,2,3.0
PdHfAu,0.0,-0.0558083,,2,3.0
PRbPb,0.56,-0.0359813,,2,3.0
S2CoRb2,0.0,-0.0164998,,2,3.0
AlBr6RbCs2,3.3709,-0.0237834,,2,3.0
Fe4CdHo,0.0,-0.0253321,,2,3.0
O4NbOs,0.0,-0.0235328,,2,3.0
AlSr2Ba,0.0,-0.0230044,,2,3.0
SiZrLu,0.0,-0.0326834,,2,3.0
MoTcW2,0.0,-0.0523297,,2,3.0
Se2RbU,0.0,-0.0424234,,2,3.0
Si4Ca3Sr,0.0,-0.0119573,,2,3.0
SrRhIn3,0.0,-0.0317337,,2,3.0
YNbOs2,0.0,-0.0514382,,2,3.0
CaZnIn,0.0,-0.0193566,,2,3.0
Si2PdTb,0.0,-0.025785,,2,3.0
LiCoTb2,0.0,-0.0283372,,2,3.0
NaIn2Eu,0.0,-0.0315775,,2,3.0
O6NiBa2Er,0.0,-0.0208006,,2,3.0
Li2AsRh,0.0,-0.0153042,,2,3.0
O5Se2Zr2Nd2,1.5283,-0.0232966,,2,3.0
NaGeAs,0.2645,-0.0148327,,2,3.0
Al4Sn2Tm3,0.0,-0.0292128,,2,3.0
ZrPt3,0.0,-0.0615015,,2,3.0
LiSbIr,0.0,-0.0374335,,2,3.0
Mo4W,0.0,-0.0418495,,2,3.0
HRh,0.0,-0.0185579,,2,3.0
LiAl2Sc,0.0,-0.0083401999999999,,2,3.0
Si3PrIr,0.0,-0.0297904,,2,3.0
Br3RuPr3,0.0,-0.0333122,,2,3.0
H5Ca2Ru,0.0,-0.0095313999999999,,2,3.0
Li2O2Cr,0.0,-0.0091701,,2,3.0
P2Pu,0.0,-0.0442956,,2,3.0
MoOs5,0.0,-0.0657579,,2,3.0
H6MnPu2,0.0,-0.0291009,,2,3.0
H5O10S2KZn,5.0581,-0.0078555,,2,3.0
Zr5Os3,0.0,-0.0466035,,2,3.0
Li8N2Se,1.9288,-0.0059945,,2,3.0
S2Th,0.7399,-0.0406042,,2,3.0
AgCdSb,0.0,-0.0330136,,2,3.0
NaPdSn2,0.0,-0.0276624,,2,3.0
Pd5PbBi,0.0,-0.045679,,2,3.0
Li2NaGe2,0.0,-0.0096669,,2,3.0
AlGaTb,0.0,-0.02428,,2,3.0
CaEuPt2,0.0,-0.0519298,,2,3.0
Sc3La,0.0,-0.0213919,,2,3.0
F6LaPa,0.0,-0.0242969,,2,3.0
RuITm,0.0,-0.0420142,,2,3.0
PdCs2,0.8128,-0.0360895,,2,3.0
Se3SbTm4,0.0,-0.0397727,,2,3.0
CoSn5La,0.0,-0.0345664,,2,3.0
CuZnLu2,0.0,-0.0352505,,2,3.0
Ni2In3Nd,0.0,-0.0296647999999999,,2,3.0
C2O6CoSr,0.0,-0.0115913,,2,3.0
B2N3Tm3Ir2,0.0,-0.0355291,,2,3.0
SiCl3Eu3,0.0,-0.0296893999999999,,2,3.0
Sc6Te2Os,0.0,-0.0265568,,2,3.0
Cl3ZnIn,3.0591,-0.015284,,2,3.0
MnPdSb,0.0,-0.0297819,,2,3.0
Zn4Pr,0.0,-0.0198855,,2,3.0
CoHo2Ir2,0.0,-0.052334,,2,3.0
Pd2Cd3Pr,0.0,-0.0338755,,2,3.0
N3NdPt,1.1186,-0.0289021,,2,3.0
NbRu2In,0.0,-0.0344087,,2,3.0
O6ZrEu2Tb,0.0,-0.0257679,,2,3.0
N2BaPa,0.0,-0.0409177,,2,3.0
Mg2Cd2Sn,0.0,-0.0214334,,2,3.0
O6FeSr2Os,0.2482,-0.019409,,2,3.0
Ti3Rh2Sn3,0.0,-0.0285308,,2,3.0
Li2HgTl,0.0,-0.0367112,,2,3.0
KBr2I,1.8161,-0.0219898,,2,3.0
As2Er6Re,0.0,-0.0467143999999999,,2,3.0
KTiI3,0.0,-0.027995,,2,3.0
Ti2Ge2W,0.0,-0.0285385999999999,,2,3.0
NCl2Ce2,0.0,-0.0249228,,2,3.0
OTi3Ag,0.0,-0.0183345,,2,3.0
LiPb3,0.0,-0.057615,,2,3.0
F5TiZn,0.0124,-0.0098199,,2,3.0
LiRuDy2,0.0,-0.0335533,,2,3.0
N2O5Y6,0.0,-0.0197237,,2,3.0
Si3Zn5Sr2,0.0,-0.0145568,,2,3.0
Zn2GaLu,0.0,-0.0251146,,2,3.0
Be4AlIr,1.0878,-0.0167383999999999,,2,3.0
O6PdBa2Lu,0.0,-0.0229263,,2,3.0
O6MgPdTm2,1.9368,-0.0206207,,2,3.0
ZnGa3Ge2Y3,0.0,-0.0212002,,2,3.0
CuHo3Os2,0.0,-0.0513433,,2,3.0
Ni2Rh3Ho,0.0,-0.0308148,,2,3.0
Si2Nb2Ru,0.0,-0.0248812,,2,3.0
SbHg2Pb,0.0,-0.0622826999999999,,2,3.0
SbCeSm,0.0,-0.0430483,,2,3.0
N2SmEr,0.0,-0.0302572,,2,3.0
H4CaIr,0.0,-0.0163068,,2,3.0
LiO4CrFe,0.0,-0.0112094,,2,3.0
MgCoPt2,0.0,-0.0412229999999999,,2,3.0
SKAu,1.9219,-0.0299424,,2,3.0
BCCoEr,0.0,-0.0217731,,2,3.0
FeGa2Pd,0.0,-0.0211805999999999,,2,3.0
Fe8Ir,0.0,-0.0238726999999999,,2,3.0
NiAsY,0.0,-0.0225801,,2,3.0
B2GeRu2,0.0,-0.0210416,,2,3.0
SiBrPr,0.0,-0.0256341,,2,3.0
OAgTeDy,1.2587,-0.0326931,,2,3.0
HIDy,0.0,-0.0304463,,2,3.0
Al2SrHg2,0.0,-0.0353288,,2,3.0
Ga3Ge2Sm3Ir,0.0,-0.0333207,,2,3.0
AlAgCd2,0.0,-0.0249847,,2,3.0
Tm3Pb2,0.0,-0.0620401,,2,3.0
FeSe10Nb3,0.0,-0.0234059,,2,3.0
Y3La,0.0,-0.0316319,,2,3.0
Al2Se2Te,2.3856,-0.0194198999999999,,2,3.0
O8Ca2Pt3,0.9287,-0.0231141,,2,3.0
MnIn5Er,0.0,-0.0339611,,2,3.0
NY2I2,0.0,-0.0292639,,2,3.0
FeGe2Sm,0.0,-0.0257506,,2,3.0
GeTlPu2,0.0,-0.0779169,,2,3.0
PdSbGd,0.2807,-0.0441638,,2,3.0
NiAsPd,0.0,-0.0234114,,2,3.0
Cu2InTe3,0.0,-0.0294699,,2,3.0
CI2Tb2,0.2168,-0.0365213,,2,3.0
Co4InLu,0.0,-0.0264697,,2,3.0
InPmPt2,0.0,-0.0554434,,2,3.0
Ti2Ga2Y,0.0,-0.0190853,,2,3.0
S4SbCs3,2.2107,-0.0246809,,2,3.0
S3KZnTm,2.5295,-0.0188182,,2,3.0
AlZnAg2,0.0,-0.0210864,,2,3.0
NiAsNb,0.0,-0.0237793,,2,3.0
FeCo4Tm,0.0,-0.0232804,,2,3.0
Ga3SrCd,0.0,-0.0208053999999999,,2,3.0
CdBa2Hg,0.0,-0.0449411,,2,3.0
MgSiCo,0.0,-0.011103,,2,3.0
Si4VMo,0.0,-0.0158429,,2,3.0
RbTe,0.8476,-0.0299773,,2,3.0
O2F2NaBr,3.8666,-0.0083436,,2,3.0
AlZrPd2,0.0,-0.0269375,,2,3.0
AlCaY,0.0,-0.0152734,,2,3.0
La3Lu,0.0,-0.0461452,,2,3.0
Cu2SrSn,0.0,-0.0224543,,2,3.0
Zn7Tc,0.0,-0.0162633,,2,3.0
C2I5Sm4,0.0,-0.0358929,,2,3.0
LiN2AlCa,2.7139,-0.0089448,,2,3.0
MgSSc3,0.0,-0.0122531999999999,,2,3.0
Al3NiGe2Np3,0.0,-0.0444597,,2,3.0
PI2Dy2,0.0,-0.0375669,,2,3.0
Cu2Tm2Pb,0.0,-0.0424726,,2,3.0
RuBiTh,0.0,-0.0702829,,2,3.0
Ge2TbTh,0.0,-0.0459706,,2,3.0
CuY2In,0.0,-0.0265271,,2,3.0
Ga2Cd2Pb,0.0,-0.0337612,,2,3.0
SrLa3,0.0,-0.0378241,,2,3.0
B4Fe,0.0,-0.0097129,,2,3.0
K2BaTl,0.0,-0.0323373,,2,3.0
AgSm2Pt,0.0,-0.048459,,2,3.0
Be2AlTc2,0.0,-0.0178462,,2,3.0
Co3Ir5,0.0,-0.0508616,,2,3.0
InTh3,0.0,-0.0805019999999999,,2,3.0
Li2S4InPb,0.0,-0.019928,,2,3.0
Ti6CoIn2,0.0,-0.0202568,,2,3.0
ZnHf6Pb2,0.0,-0.060344,,2,3.0
CdHg2Pb2,0.0,-0.0635563,,2,3.0
NaPdPb,0.0,-0.0379001999999999,,2,3.0
O2GdAu,2.2945,-0.0374668,,2,3.0
O6TiFeBaLa,0.0,-0.0184028,,2,3.0
O4VCr,0.3322,-0.0126959,,2,3.0
Ag2Cd3Th,0.0,-0.041782,,2,3.0
O5SiCd3,0.9689,-0.0165895,,2,3.0
MgCo2Zr2,0.0,-0.020383,,2,3.0
Te2DyTl,0.2406,-0.0497999,,2,3.0
CaRhBa2,0.0,-0.0307843,,2,3.0
Zn2SnNd2,0.0,-0.030626,,2,3.0
Ni3Ac,0.0,-0.0349489,,2,3.0
B3Ni4,0.0,-0.0127086,,2,3.0
CdBa2Au2,0.0,-0.050284,,2,3.0
Co3Dy,0.0,-0.0250289,,2,3.0
NiAs2Rb2,0.1383,-0.0201113,,2,3.0
MgSe3HoTl,1.8258,-0.0325216,,2,3.0
PCrTa,0.0,-0.0325062,,2,3.0
TiSe2Pb,0.0,-0.0339391,,2,3.0
Si2CuY,0.0,-0.0163956,,2,3.0
LiZnBi,0.0,-0.031791,,2,3.0
F4NaRh,0.8626,-0.0109073,,2,3.0
ZnYCd2,0.0,-0.0259475,,2,3.0
PSbHo2,0.0,-0.0378622,,2,3.0
Sc2TcRh,0.0,-0.0249448,,2,3.0
ClMnHf,0.0,-0.030572,,2,3.0
Al8CaSr3,0.0,-0.0118182,,2,3.0
B2N3Ni2Th3,0.0,-0.0375105,,2,3.0
VMn2Ga,0.0,-0.0179455,,2,3.0
Pd2TbHg,0.0,-0.0458583,,2,3.0
Be2PAu,0.0,-0.022333,,2,3.0
GeSmTa,0.0,-0.0440148,,2,3.0
Se2NbIn,0.0,-0.0274124,,2,3.0
Fe2SbAc,0.0,-0.0411604,,2,3.0
O4ICeBi2,0.0,-0.0348461,,2,3.0
OF3Sb,2.824,-0.0128566,,2,3.0
Cl4Tm,2.8667,-0.0187027,,2,3.0
Ga2IrTh,0.0,-0.050768,,2,3.0
PdSn2Ce,0.0,-0.038023,,2,3.0
InPr3,0.0,-0.0412345,,2,3.0
LiCuBa2,0.0,-0.0241117,,2,3.0
EuAu,0.0,-0.0624211999999999,,2,3.0
CSc3,0.0,-0.0135599,,2,3.0
Zr2Sn2Hf,0.0,-0.0397492,,2,3.0
Ga2NdEu,0.0,-0.0330606,,2,3.0
Sc3FePt2,0.0,-0.0345489,,2,3.0
O4HfBi,0.0,-0.0299794,,2,3.0
Na2MnSe4Sn,0.253,-0.018768,,2,3.0
CSi2Mn2Tm2,0.0,-0.0250135,,2,3.0
F6K2Dy,0.0,-0.0128115,,2,3.0
O5Cu2BaPr,0.0,-0.0181104999999999,,2,3.0
CN2O2Lu2,3.9709,-0.0241923,,2,3.0
F6CaPt,2.5497,-0.0151708,,2,3.0
O7Al2As2Eu,0.2942,-0.0152947,,2,3.0
ONd,0.0,-0.0279045999999999,,2,3.0
B4MnMo3,0.0,-0.0195396,,2,3.0
B4Co11Pr3,0.0,-0.019623,,2,3.0
O11V4Ag2,0.4828,-0.0139575,,2,3.0
SbHoIr,0.0,-0.0535352,,2,3.0
TiCuZr,0.0,-0.020784,,2,3.0
Al3Si2MnSm3,0.0,-0.0223085999999999,,2,3.0
GaTa,0.0,-0.0417371,,2,3.0
CuAgLa2,0.0,-0.0334231,,2,3.0
MgAlPr,0.0,-0.0190277999999999,,2,3.0
Al9Pd2Ba,0.0,-0.0150419,,2,3.0
HLiMg2Au,0.0,-0.0175006999999999,,2,3.0
Sm3Ir2Hg,0.0,-0.0580771999999999,,2,3.0
Cd2DyPt,0.0,-0.0454693,,2,3.0
Si2CrHf2,0.0,-0.0333924,,2,3.0
MnAs2Pa,0.0,-0.0402409,,2,3.0
SiEuOs,0.0,-0.0457669,,2,3.0
Mg2As2In,0.0,-0.0171545,,2,3.0
H6Pr2Re,0.0,-0.0203795,,2,3.0
Co2Nd2Hg,0.0,-0.0381467,,2,3.0
Al3Sn2Tm3Os,0.0,-0.036581,,2,3.0
BFe2Ga2Tb,0.0,-0.0209517,,2,3.0
ZnAuPa,0.0,-0.0611814,,2,3.0
N4Sc3Y,0.0,-0.0155765,,2,3.0
Li2O8V2MnBa,1.1613,-0.0132422,,2,3.0
S2TeBi2,1.0539,-0.0429144,,2,3.0
Al9Fe2Sm,0.0,-0.0128239,,2,3.0
Rh2PrPt3,0.0,-0.0542278999999999,,2,3.0
Al3Si2Th2,0.0,-0.0340082,,2,3.0
OFeAsLa,0.0,-0.0238311,,2,3.0
CO7NaSiSb,3.0362,-0.0115189,,2,3.0
F4NaEr,6.9235,-0.0154214,,2,3.0
Na2PRh2,0.0,-0.0177544,,2,3.0
NiGa2Th,0.0,-0.0367868,,2,3.0
Se4Zr3,0.0,-0.026076,,2,3.0
LiSb3,0.0,-0.0287071,,2,3.0
SiICe,0.0,-0.0315234,,2,3.0
BCNiLa,0.0,-0.0196002,,2,3.0
O6PdBa2Th,1.8144,-0.0271993,,2,3.0
CoRuIr2,0.0,-0.0485937,,2,3.0
O8KInW2,4.5291,-0.0214291,,2,3.0
O6NaTi2Ho,2.4286,-0.0156078,,2,3.0
Al2YIn,0.0,-0.0196279,,2,3.0
Sn2PmPu,0.0,-0.0569787,,2,3.0
SnRePa,0.0,-0.0690464,,2,3.0
CuGaDy2,0.0,-0.0322664,,2,3.0
ClSeAg2,0.0,-0.0229605,,2,3.0
Mg2Au2Bi,0.0,-0.0458899,,2,3.0
ZnHo2Ir,0.0,-0.0464504,,2,3.0
FeTcPt2,0.0,-0.048712,,2,3.0
AlGa5Er,0.0,-0.0202573,,2,3.0
O10V2NiTe2,0.516,-0.0143465,,2,3.0
La3Pb2,0.0,-0.0569934,,2,3.0
AgCd2Tb,0.0,-0.0350686,,2,3.0
ScIn2Ho,0.0,-0.0330805,,2,3.0
Mg2Si2K,0.0,-0.0077471,,2,3.0
Sc3Ga3Ge2Ru,0.0,-0.0191117,,2,3.0
NY3Pt,0.0,-0.0339991,,2,3.0
O6SnSb2,1.1034,-0.0178775,,2,3.0
O4VRh,0.234,-0.0145735,,2,3.0
N2HoHf,0.0,-0.03463,,2,3.0
Sb12PrOs4,0.0,-0.046036,,2,3.0
RuSnTm,0.0,-0.0415197999999999,,2,3.0
NiIr,0.0,-0.0436837999999999,,2,3.0
RbPd2Hg2,0.0,-0.0447056,,2,3.0
RhIn3Sn2Er3,0.0,-0.040393,,2,3.0
SAu2,1.9055,-0.0494375,,2,3.0
Na2S3Sc,0.0,-0.0100982,,2,3.0
H6Tb2Re,0.0,-0.0211689,,2,3.0
S2Cl6Pt,1.8217,-0.0155917,,2,3.0
O4S2Cu2As2Y,0.0,-0.0144499,,2,3.0
H11Li2B11,3.759,-0.0054455,,2,3.0
MgScIn,0.0,-0.0179665,,2,3.0