formula,bg,formation_energy,mp-id,fidelity,bg_category
Se5In2Bi2,0.0,-0.036417,,2,3.0
Co2NiPt,0.0,-0.0303688,,2,3.0
Mo3Sn,0.0,-0.0350989,,2,3.0
GaU2,0.0,-0.0745579,,2,3.0
O7Se2Rb2,3.1089,-0.0126237,,2,3.0
BeAlRh2,0.0,-0.0209938,,2,3.0
F6ScLa,6.941,-0.014063,,2,3.0
Y2La,0.0,-0.0328995,,2,3.0
ZnPdLu,0.0,-0.034719,,2,3.0
Nd3Lu,0.0,-0.0465118,,2,3.0
FeGa2La6,0.0,-0.0346164,,2,3.0
S4CrTl3,0.0,-0.0347617,,2,3.0
MgS4TiY,0.0,-0.0143183,,2,3.0
Ni2PrBi2,0.0,-0.0469551999999999,,2,3.0
ScMnRh2,0.0,-0.0258865,,2,3.0
NiY2Ru3,0.0,-0.0298039999999999,,2,3.0
As2Eu,0.0,-0.0322857,,2,3.0
MgCd2Eu,0.0,-0.0302283,,2,3.0
CdHf2Ir2,0.0,-0.0604568999999999,,2,3.0
Cu2Y2In,0.0,-0.0243996,,2,3.0
Al11Ce3,0.0,-0.0160136,,2,3.0
F6KCs2Eu,0.0,-0.0191606,,2,3.0
Mg2Pd3Ba,0.0,-0.0252669999999999,,2,3.0
B2CaRh2,0.0,-0.0191459,,2,3.0
N2CuPr2,0.0,-0.0252571,,2,3.0
P2Ni2U,0.0,-0.0320422999999999,,2,3.0
H6Nd2Re,0.0,-0.0204461,,2,3.0
AlBa2Pb,0.0,-0.0411843,,2,3.0
CdSmAu,0.0,-0.0488463,,2,3.0
O2MnCd,0.0,-0.0168463999999999,,2,3.0
BeTiCu2,0.0,-0.012882,,2,3.0
InTb3,0.0,-0.0438048,,2,3.0
Ga5Ba5Tl,0.0,-0.0324946,,2,3.0
O4In2Hg,0.1719,-0.0241937999999999,,2,3.0
Al4Si4Pr3,0.0,-0.018789,,2,3.0
N2CrHf,0.0,-0.0263715,,2,3.0
CePb3,0.0,-0.0684983,,2,3.0
CoGaZrRu,0.0,-0.0253453,,2,3.0
Cd2CeSm,0.0,-0.0377725999999999,,2,3.0
OAsCdPu,0.0,-0.043198,,2,3.0
Fe2YIn,0.0,-0.0246507,,2,3.0
S2YCs,2.0561,-0.0233733,,2,3.0
Zr6Te2Os,0.0,-0.0374234,,2,3.0
V2TcRu,0.0,-0.0266609,,2,3.0
O5AlCa2Co,0.0,-0.0111432,,2,3.0
LiAu,0.0,-0.0364052,,2,3.0
Be4ZnPt,0.0,-0.0173918,,2,3.0
O2TmTl,1.349,-0.0368131,,2,3.0
O2Rb2I4Os,1.2556,-0.0312727,,2,3.0
Mg2S4Ge,2.8574,-0.0107435,,2,3.0
CuGa2,0.0,-0.0161058,,2,3.0
Li2O4NiZr,0.0,-0.0121231,,2,3.0
Li4P2Pu,0.0,-0.0208015,,2,3.0
SiPr2Ir2,0.0,-0.0487245,,2,3.0
ZnGaPu2,0.0,-0.0626172,,2,3.0
ScMoTc,0.0,-0.0282841,,2,3.0
O3Na2Ce,2.3526,-0.0146602,,2,3.0
CuRhBa2,0.0,-0.0321992,,2,3.0
BY3In,0.0,-0.0252984,,2,3.0
FeCu2Pt,0.0,-0.0298632,,2,3.0
MnY6Tl2,0.0,-0.0370241,,2,3.0
SnAu2,0.0,-0.0581697,,2,3.0
S2CuBr2Ba2,0.0,-0.0235889,,2,3.0
NFeZr3,0.0,-0.0248032,,2,3.0
ZnAgLa,0.0,-0.0297213,,2,3.0
Al3Si2Sc3Pd,0.0,-0.0140723,,2,3.0
BrPdTe,0.177,-0.0302469,,2,3.0
Al3Hf2Os,0.0,-0.0374055,,2,3.0
B4MoTh,0.0,-0.0273238999999999,,2,3.0
Ti2NbAu,0.0,-0.0339842,,2,3.0
AuPb7,0.0,-0.0749021999999999,,2,3.0
O6CoCu3,0.0,-0.0107553,,2,3.0
FeNbSn,0.0,-0.0292069,,2,3.0
CoRbZrTe3,0.0,-0.0309063,,2,3.0
GaBi2Th6,0.0,-0.0836128999999999,,2,3.0
LiY2Cd,0.0,-0.0223563,,2,3.0
H2Rh2Os,0.0,-0.0291659,,2,3.0
MgSi2La2,0.0,-0.0229521,,2,3.0
Al2SrCd2,0.0,-0.0200097,,2,3.0
Li3O6Al2V,0.0,-0.0093078,,2,3.0
SrRh3Tl2,0.0,-0.0448709,,2,3.0
Ga5PdTh,0.0,-0.0305897,,2,3.0
CuIn3Ba,0.0,-0.0313932,,2,3.0
FeY6Te2,0.0,-0.0295316,,2,3.0
O8K3Eu,0.0469,-0.0120001999999999,,2,3.0
Cu2Hf,0.0,-0.0312159,,2,3.0
Ge2RhIn3Tm3,0.0,-0.0371972999999999,,2,3.0
CoZr2Sb,0.0,-0.029582,,2,3.0
Tb3Re,0.0,-0.0528778,,2,3.0
O4S2Cu2SmBi2,0.0,-0.0265614,,2,3.0
P4YRh6,0.0,-0.0257335,,2,3.0
ZnLa3Au2,0.0,-0.0476557,,2,3.0
RuNp,0.0,-0.0709704,,2,3.0
N2ErPu,0.0,-0.0464022999999999,,2,3.0
F6ZnBa,0.0,-0.0117197,,2,3.0
NTi2Tl,0.0,-0.0295589,,2,3.0
H3NiTm,0.0,-0.0162625,,2,3.0
As3Pm,0.0,-0.0267357,,2,3.0
SnPt2Pb,0.0,-0.0634787,,2,3.0
NiSe3TaTl,0.0,-0.0364568,,2,3.0
Cu2Br3Rb,1.6903,-0.0191082999999999,,2,3.0
Ni2Sb2Pr,0.0,-0.0307563,,2,3.0
VCo3Zr2,0.0,-0.022068,,2,3.0
F4ClRb,3.5997,-0.0085726999999999,,2,3.0
B2O6SiEu,0.6938,-0.0144831,,2,3.0
Ga2BaHg2,0.0,-0.0421995,,2,3.0
ZnGa5Lu,0.0,-0.02179,,2,3.0
Cu3Pd2La,0.0,-0.0261679,,2,3.0
O8CuTbW2,1.1756,-0.0233429,,2,3.0
F6NaCuRb2,0.892,-0.0107973,,2,3.0
CoNiTc,0.0,-0.02274,,2,3.0
O9Ni2Sr2Nd2Tl,0.0,-0.0207197,,2,3.0
C2O6CaHg,2.0762,-0.0152596,,2,3.0
ZnPbPu2,0.0,-0.0773855,,2,3.0
CaSbPr,0.0,-0.0310271,,2,3.0
LiSb2Pb2,0.0,-0.0457574,,2,3.0
HNa2Cl,4.3294,-0.0060466,,2,3.0
ClKCu2Br2,1.7678,-0.0151744,,2,3.0
TmAuPb,0.0,-0.0665203,,2,3.0
In3Au2Th3,0.0,-0.0663892,,2,3.0
Al4CuSm,0.0,-0.0155526,,2,3.0
Al3CuPr2,0.0,-0.0213025,,2,3.0
SbI2La2,0.0,-0.0409697,,2,3.0
O2CoSr,0.0,-0.0150800999999999,,2,3.0
MgHoHg2,0.0,-0.048223,,2,3.0
Li2CsBi,0.3891,-0.0308419,,2,3.0
O7Na2Ti3,3.0807,-0.0113657,,2,3.0
HV3Sn,0.0,-0.0185997,,2,3.0
MgS2ClSb,1.9337,-0.0149875,,2,3.0
Al3GeHo2,0.0,-0.0239722,,2,3.0
N3RuTb,0.0,-0.0224981,,2,3.0
NaK2Rb,0.0,-0.0103803,,2,3.0
Al3LaIr2,0.0,-0.0356871999999999,,2,3.0
B2O6ScSn,0.0,-0.0128398,,2,3.0
Si3CuCe2,0.0,-0.023038,,2,3.0
C4RuSm3,0.0,-0.0263844,,2,3.0
Co2Ga3Sr3,0.0,-0.0190317,,2,3.0
B2O6CaTi,3.1012,-0.0108627,,2,3.0
Ag2Cd3Nd,0.0,-0.0331941,,2,3.0
S3CuInBa,0.4362,-0.020647,,2,3.0
Sc6CoSe2,0.0,-0.0167060999999999,,2,3.0
O5BaLa2Pt,2.2803,-0.0281759,,2,3.0
O6Na2TeLu,0.0,-0.015904,,2,3.0
Fe2Mo,0.0,-0.0236586,,2,3.0
Al3Ge2RuPu3,0.0,-0.0478517,,2,3.0
ZrCdPt,0.0,-0.0446139999999999,,2,3.0
Co4WRe,0.0,-0.0348364,,2,3.0
O2HoPt,0.0,-0.0351946,,2,3.0
CoMo2Rh,0.0,-0.0302118,,2,3.0
O6CaSnTb2,3.8143,-0.0207457,,2,3.0
S3MnAgCs,0.0,-0.0201500999999999,,2,3.0
Li2Ge2Hg,0.0,-0.0224107999999999,,2,3.0
AsNdDy,0.0,-0.0382638,,2,3.0
O4SiCo2,0.0,-0.0118452,,2,3.0
H8Mg2EuOs,0.0,-0.0140938,,2,3.0
RhSn3Pr,0.0,-0.0376589,,2,3.0
KFe2Te2,0.0,-0.0242147,,2,3.0
InTmPt2,0.0,-0.0575349999999999,,2,3.0
SiSEr,0.0,-0.0247285,,2,3.0
O5FCsTa4,0.0,-0.0332704,,2,3.0
Zr3Rh2Pb3,0.0,-0.0489362,,2,3.0
PdAuPb4,0.0,-0.0676345,,2,3.0
Se3Y,0.0,-0.0233759,,2,3.0
RhTeEr,0.0315,-0.0417528,,2,3.0
Al9Co2Cs,0.0,-0.0121176999999999,,2,3.0
FeGeCe,0.0,-0.027729,,2,3.0
O3Cs3Dy,2.2269,-0.0278408,,2,3.0
H3BeCs,2.786,-0.0106909,,2,3.0
CaIn2Tm,0.0,-0.0326465,,2,3.0
CoGa3Ge2Tb3,0.0,-0.0279651,,2,3.0
SSc2,0.0,-0.0140529,,2,3.0
MgHgTh,0.0,-0.0567721,,2,3.0
KI3,0.8698,-0.0304552,,2,3.0
CClEr,0.0,-0.0242445,,2,3.0
O6Al2CeNd,0.0,-0.01772,,2,3.0
ZnRbSb,0.494,-0.0242948,,2,3.0
NOGa2Pr6,0.0,-0.0320487,,2,3.0
LaAu4Tl,0.0,-0.0658826,,2,3.0
Mg2AgPt,0.0,-0.0285517,,2,3.0
N2O5K4,0.0,-0.008583,,2,3.0
CCa2Ge2Ru2,0.0,-0.0202001,,2,3.0
NTi2Pd,0.0,-0.0198503,,2,3.0
AlRu2Tm2,0.0,-0.0368682,,2,3.0
Al3Ho2Re,0.0,-0.0325767999999999,,2,3.0
Ge2Y3RhIn3,0.0,-0.0292674,,2,3.0
C3S6V2Nb6,0.0,-0.0198796,,2,3.0
CdTe2CsAu,1.6324,-0.0430736,,2,3.0
Mg2Zn3Ge,0.0,-0.0117144,,2,3.0
Ge2Ru2Gd,0.0,-0.0340893,,2,3.0
Co2TmTl,0.0,-0.0399063,,2,3.0
MnNi2Ta,0.0,-0.0295683,,2,3.0
AgErBi2,0.0,-0.0601672,,2,3.0
Fe2SnU2,0.0,-0.0558278,,2,3.0
Al3Dy2Ir,0.0,-0.0325419,,2,3.0
Cu2ZnNd,0.0,-0.0221408,,2,3.0
LiO2MgK,3.5147,-0.0077956,,2,3.0
CuBr6Rb2Bi,0.6048,-0.0263317,,2,3.0
Ge2Rh3Nd,0.0,-0.0314799,,2,3.0
Al2ScPt2,0.0,-0.0352882,,2,3.0
F6RbIr,0.0,-0.0161915,,2,3.0
Ge2AgLa2,0.0,-0.0319047,,2,3.0
FeGa2Hf2,0.0,-0.0356831,,2,3.0
F8Tb2Pb,4.9637,-0.0218501,,2,3.0
LaHf2Ir2,0.0,-0.0631893999999999,,2,3.0
O6CoBa2Tm,0.0,-0.0211384,,2,3.0
NiLu,0.0,-0.0363034,,2,3.0
SGaGe,0.0508,-0.0154564,,2,3.0
Li3O11FV4,1.9347,-0.0103516999999999,,2,3.0
BCo6Ta2,0.0,-0.027336,,2,3.0
CaCuTe3Dy,0.3844,-0.0319838999999999,,2,3.0
Ga3Rh2Hf3,0.0,-0.0388677,,2,3.0
AlRh2In,0.0,-0.0279581,,2,3.0
Si4Mo3Ho2,0.0,-0.0276404,,2,3.0
O6Ca2TmTa,3.9682,-0.0209966,,2,3.0
Si2Sc2Hg,0.0,-0.0239848,,2,3.0
GaAs2Y6,0.0,-0.0257696,,2,3.0
SrTe2Ba,1.4146,-0.0360546,,2,3.0
Sc2AgAu2,0.0,-0.0404594999999999,,2,3.0
Na3RbAg,0.0,-0.0128999,,2,3.0
Se6Nb2Rh,0.0,-0.0252365,,2,3.0
O6CoSr2Mo,0.0,-0.0159213,,2,3.0
Ag3Cs3Bi2,1.0758,-0.0459064,,2,3.0
AgHgPb2,0.0,-0.0627084,,2,3.0
CuBr6Cs2Nd,2.2437,-0.0268234,,2,3.0
H3LiZn,0.0531,-0.0053547,,2,3.0
Se4BaLa2,1.644,-0.0317466,,2,3.0
Mn2HoU,0.0,-0.0472263,,2,3.0
B2CSmIr2,0.0,-0.0359529,,2,3.0
Li2SnBi2,0.0,-0.0398474999999999,,2,3.0
CuAg3,0.0,-0.0272586,,2,3.0
Cl8Co2Pd,0.0,-0.0125815,,2,3.0
Ge2In3Pr3Au,0.0,-0.0382843999999999,,2,3.0
Sc2Cu2Hf,0.0,-0.0244838,,2,3.0
LiZnRhSn,0.0,-0.0218842,,2,3.0
RhSb2Pr,0.0,-0.0388260999999999,,2,3.0
NV,0.0,-0.0147669999999999,,2,3.0
O5Cu2BaEu,0.0,-0.0191082,,2,3.0
Be3Os4,0.0,-0.0432015,,2,3.0
BMnMo,0.0,-0.0206268,,2,3.0
CeTmAu2,0.0,-0.0595995,,2,3.0
Li2O4FePd,0.0,-0.0116037,,2,3.0
CuPdGd2,0.0,-0.0419138,,2,3.0
Ga2PrIr2,0.0,-0.0445089,,2,3.0
InBi2,0.0,-0.06344,,2,3.0
CuTb2Ir,0.0,-0.0456569999999999,,2,3.0
HfTaOs2,0.0,-0.0688653,,2,3.0
Cr2Fe2Y,0.0,-0.0200158,,2,3.0
Cl3Cu2Cs,1.9592,-0.0164475,,2,3.0
NaPd2,0.0,-0.0234406,,2,3.0
Fe2SnHf,0.0,-0.0339142999999999,,2,3.0
F6TiRb3,0.0,-0.0132093,,2,3.0
F4NiCs2,0.274,-0.0178278,,2,3.0
Co2ZnIn2,0.0,-0.0228396,,2,3.0
AgTe2,0.0,-0.0353082,,2,3.0
K2Pd2Pb,0.0,-0.0317407,,2,3.0
P2S6AgBi,1.0676,-0.0191633,,2,3.0
ZnLa4,0.0,-0.0372587,,2,3.0
Te2Dy3,0.0,-0.0446192,,2,3.0
AlGeSr,0.0,-0.0169003,,2,3.0
HCrRh3,0.0,-0.0247787,,2,3.0
B2Sc3Mn7,0.0,-0.0157459,,2,3.0
YLa2Hg,0.0,-0.0459105,,2,3.0
Ti3Ru2Pt,0.0,-0.0322513,,2,3.0
AlRuTm,0.0,-0.0322125,,2,3.0
Na2AsPt,0.0,-0.0252948,,2,3.0
InTmAu2,0.0,-0.0567393,,2,3.0
CSiRu2Ho,0.0,-0.0284542,,2,3.0
PYZr,0.0,-0.0241634999999999,,2,3.0
FeGe3U,0.0,-0.0358975,,2,3.0
RbSn2Sb2,0.0,-0.0336248,,2,3.0
O5SiPb3,1.8964,-0.0315615999999999,,2,3.0
OPZnDy,1.1281,-0.0215724,,2,3.0
Fe4NiMo,0.0,-0.0204894,,2,3.0
O4BrYSb2,0.527,-0.0204942,,2,3.0
Te2PtTl2,0.0,-0.0582582,,2,3.0
Se2Zr6Ir,0.0,-0.033786,,2,3.0
CoSe2Pr6,0.0,-0.0360861,,2,3.0
Pd3Tb2,0.0,-0.0392815,,2,3.0
Li5Ba,0.0,-0.008577,,2,3.0
NAlMn3,0.0,-0.0147587,,2,3.0
Cd2Sb2La,0.0,-0.0362475,,2,3.0
Sc2Cu2Zr,0.0,-0.0181092,,2,3.0
HSiCo3,0.0,-0.0132614,,2,3.0
CuZrAu,0.0,-0.0388659,,2,3.0
MnLu,0.0,-0.0366764,,2,3.0
FeSe2RbAu,0.0,-0.0303115999999999,,2,3.0
In5CeIr2,0.0,-0.0446145,,2,3.0
ScCo2Ge2,0.0,-0.017945,,2,3.0
Y3Pd2Hg,0.0,-0.0371128,,2,3.0
Al2Sc2Hg,0.0,-0.0229755,,2,3.0
RhPrTl,0.0,-0.0504594,,2,3.0
RhTmPt2,0.0,-0.0575679,,2,3.0
Ge2InSm2,0.0,-0.0329316,,2,3.0
Fe3Ga2Ce,0.0,-0.0221894999999999,,2,3.0
ZrTaIr2,0.0,-0.060771,,2,3.0
LiCu4Zn,0.0,-0.012809,,2,3.0
ZnLa2Pt2,0.0,-0.0491319999999999,,2,3.0
O6Ca2SbDy,3.8362,-0.0171154,,2,3.0
Se2U,0.0,-0.0490022,,2,3.0
Cd2SnBa2,0.0,-0.0356719999999999,,2,3.0
Si2Fe2Er,0.0,-0.0219197,,2,3.0
Si2Pr2Tl,0.0,-0.0364596,,2,3.0
RbHg2Pb2,0.0,-0.0619257,,2,3.0
CSr,0.0,-0.0162511,,2,3.0
ScZnGa5,0.0,-0.0159033,,2,3.0
ZnPd4Pr,0.0,-0.0319356,,2,3.0
Tm2IrPt,0.0,-0.062539,,2,3.0
CSi2Mn2U2,0.0,-0.0393122,,2,3.0
SiRb2Sb2,0.5547,-0.0255547,,2,3.0
AlGdPt2,0.0,-0.0530724999999999,,2,3.0
BRhW,0.0,-0.0372292,,2,3.0
K2TiTe3,0.3665,-0.0250918,,2,3.0
GaTe2Cs,0.842,-0.0329500999999999,,2,3.0
CuYAg,0.0,-0.0250772,,2,3.0
PLu,0.0,-0.0346494,,2,3.0
Ru2ErTm,0.0,-0.0434784999999999,,2,3.0
Li2Mg2CaGe2,0.0,-0.0093981999999999,,2,3.0
AlI6Cs2Tl,1.4112,-0.0386997,,2,3.0
HPd2AgHg,0.0,-0.033845,,2,3.0
RbPdTe3Ta,0.0,-0.0392858,,2,3.0
AsCd2I,0.5962,-0.0297673,,2,3.0
AlZn2Ce,0.0,-0.0201973999999999,,2,3.0
Ga2YRh3,0.0,-0.0278536,,2,3.0
Al3RhHf2,0.0,-0.0311634,,2,3.0
Co5Lu,0.0,-0.0237485999999999,,2,3.0
Cd2InHg,0.0,-0.0405778,,2,3.0
F6MgSi,7.6651,-0.0080789,,2,3.0
Sc2CoPd,0.0,-0.0203187,,2,3.0
MgCu2Hg,0.0,-0.0259463,,2,3.0
O3SeRb2,4.2576,-0.0149987,,2,3.0
Si3Ni2Nd,0.0,-0.0183253,,2,3.0
Y8Zr,0.0,-0.0280734999999999,,2,3.0
CoGa3Ge2Sm3,0.0,-0.0271673,,2,3.0
AlAg2La,0.0,-0.0287572,,2,3.0
Al2PrHo,0.0,-0.027331,,2,3.0
Pd7Bi,0.0,-0.0386179,,2,3.0
Al9KRh2,0.0,-0.0126827,,2,3.0
S2RbCdAu,1.8832,-0.0287506999999999,,2,3.0
GaAgCd2,0.0,-0.027031,,2,3.0
C3Ta4,0.0,-0.0429448,,2,3.0
CoGa3Ge2Er3,0.0,-0.0291592,,2,3.0
Ag2CePb,0.0,-0.0460548,,2,3.0
Te2WTh6,0.0,-0.0803813,,2,3.0
Ti2SCl12,1.9423,-1.584066879611111,mp-649080,2,3.0
Al2CuHf,0.0,-0.0237529,,2,3.0
Li3LaBi2,0.065,-0.0353954,,2,3.0
Pd2Sn2Ho,0.0,-0.0380037,,2,3.0
Si2Rh3Pa,0.0,-0.0377452,,2,3.0
Sc2YAg2,0.0,-0.024053,,2,3.0
YPt2Pu,0.0,-0.0705556,,2,3.0
RbHg2,0.0,-0.0527035,,2,3.0
LiAg2Pb,0.0,-0.0353555,,2,3.0
BAl2Fe2Pr,0.0,-0.0174506,,2,3.0
ScSmAu2,0.0,-0.0502457,,2,3.0
Li2MgCa,0.0,-0.0048673,,2,3.0
H3O10NaCu2,0.0,-0.0071128,,2,3.0
AlPu,0.0,-0.0590456,,2,3.0
CuZn2La,0.0,-0.0216377,,2,3.0
ScYHg,0.0,-0.0373406,,2,3.0
O8K3Tb,0.0,-0.0115484,,2,3.0
MnSb,0.0,-0.0280197,,2,3.0
PSe3Cs3,1.8467,-0.0273314,,2,3.0
O2NiCu,0.0,-0.011975,,2,3.0
NiInLa2,0.0,-0.0343614,,2,3.0
Si3CuLa2,0.0,-0.0227046999999999,,2,3.0
S2AgPu,0.0,-0.0412468,,2,3.0
B6Co2Pa,0.0,-0.0203386999999999,,2,3.0
CdSnPa,0.0,-0.0553705,,2,3.0
OCdSbTb,0.4124,-0.0319616,,2,3.0
TcTa8,0.0,-0.0632177,,2,3.0
NaP2Cu2Ba,0.0,-0.0163947,,2,3.0
CI2Tm2,0.2571,-0.0385677,,2,3.0
MnZn3Se4,1.0794,-0.0181112,,2,3.0
GeBr2Gd2,0.0,-0.0366835,,2,3.0
ZnRu2Th2,0.0,-0.0554742,,2,3.0
O7Ge2YEu,0.0,-0.0174777999999999,,2,3.0
AgInDy,0.0,-0.0380525,,2,3.0
H2Co2Ta,0.0,-0.0215911,,2,3.0
Al2In3Dy3,0.0,-0.0328617,,2,3.0
BeTiIr2,0.0,-0.0416892,,2,3.0
Li2ScAu,0.0,-0.0225579999999999,,2,3.0
MgLuHg,0.0,-0.0434125,,2,3.0
O5VMnBi,0.6879,-0.0202635,,2,3.0
CoSrTe,0.0,-0.0261468999999999,,2,3.0
Al5Pd2Hf,0.0,-0.0216173,,2,3.0
CuSnLu,0.0,-0.036191,,2,3.0
Sc2ZnLa,0.0,-0.0214567,,2,3.0
Ga2Hf,0.0,-0.0323382999999999,,2,3.0
La4P9Rh8,0.0,-1.103189690323132,mp-1200868,2,3.0
S3KCuEr,0.0,-0.0185808,,2,3.0
Rh2SbPt,0.0,-0.0440351,,2,3.0
Al3NiGe2Nb3,0.0,-0.0201716,,2,3.0
RbAu4Pb6,0.0,-0.0685261,,2,3.0
Mg2Pd2Ba,0.0,-0.0236276,,2,3.0
Cl2Br2Nb,0.9528,-0.0188062,,2,3.0
TiGeRh,0.0,-0.0238764,,2,3.0
O4RuPt,0.0,-0.0226045,,2,3.0
LiCdInAu,0.0,-0.0342498,,2,3.0
GeSePr,0.0,-0.0288274,,2,3.0
Er3Pt2Hg,0.0,-0.0611588,,2,3.0
CdIr2Th2,0.0,-0.0737582,,2,3.0
H2Mg2Sb,0.0,-0.0110688,,2,3.0
Mn9(PbO5)4,0.0,-1.8135062057993732,mp-1199449,2,3.0
KCdBi,0.0055,-0.0395349999999999,,2,3.0
K2CdBa,0.0,-0.0217527,,2,3.0
Cl4MnCu2,0.8165,-0.0124354999999999,,2,3.0
K2Se3Ta,0.0,-0.0250276,,2,3.0
OTiBr,0.0,-0.0162276,,2,3.0
Rh3Te4,0.0,-0.0362564,,2,3.0
AuTl3,0.0,-0.0715796,,2,3.0
MgRu2Pu,0.0,-0.0463508,,2,3.0
MgGe2Rh,0.0,-0.0196522,,2,3.0
LiPd2Cd2,0.0,-0.0261026,,2,3.0
CN2ClEr,3.3594,-0.0187747,,2,3.0
Zn2SrAu3,0.0,-0.0433565,,2,3.0
MgSr2Ag,0.0,-0.0203996,,2,3.0
Li2Cd2Bi,0.0,-0.0290642999999999,,2,3.0
Sm3Tl,0.0,-0.0517844,,2,3.0
Mn6As4Tb,0.0,-0.0220943,,2,3.0
LiO7P2Ni,0.0,-0.0097127999999999,,2,3.0
Al3Tb2Os,0.0,-0.0321157,,2,3.0
Al9Sr5,0.0,-0.0132199,,2,3.0
SnGd2Hg,0.0,-0.056134,,2,3.0
MnRh4,0.0,-0.0308644,,2,3.0
C4Er3Os,0.0,-0.0333305,,2,3.0
HCa3Sn,0.0,-0.014206,,2,3.0
CGaSm3,0.0,-0.0323746,,2,3.0
Ru2InNd2,0.0,-0.038421,,2,3.0
ZnAs2Pu,0.0,-0.0415329,,2,3.0
RuCePt2,0.0,-0.0556971,,2,3.0
H6NiSr2,0.0,-0.0095696,,2,3.0
Zn2Cd2La,0.0,-0.0265007,,2,3.0
Mg2Si2Pd,0.0,-0.0129634,,2,3.0
Fe2In3Lu3,0.0,-0.0380835,,2,3.0
MgErPt,0.0,-0.0430204999999999,,2,3.0
PdIn4Ho,0.0,-0.0363939999999999,,2,3.0
BeSiNi,0.0,-0.0105177999999999,,2,3.0
InNd3,0.0,-0.0414331,,2,3.0
Sc2Tc,0.0,-0.0214257,,2,3.0
Ag2I4Hg,1.0887,-0.0399432,,2,3.0
ScGeOs,0.0,-0.0358641,,2,3.0
CSc2NbHg,0.0,-0.0285541,,2,3.0
Be5Co4,0.0,-0.0102919999999999,,2,3.0
LiHf2Pt2,0.0,-0.0546691,,2,3.0
NTcTe2Ba,0.0,-0.0321453,,2,3.0
Ti2As2Ta,0.0,-0.028569,,2,3.0
Be2As2Sm,0.0,-0.0194141,,2,3.0
As4Rh6Cd,0.0,-0.0290862,,2,3.0
Ga2I8Pt,1.6626,-0.0364587,,2,3.0
Ru2OsIr,0.0,-0.0531328,,2,3.0
CoDyPb,0.0,-0.0472551,,2,3.0
LiPNi2,0.0,-0.0117562,,2,3.0
CuITb,0.0,-0.033765,,2,3.0
O6Ca2SbBi,2.5619,-0.0194488,,2,3.0
O4CrMn2,0.0,-0.0136995,,2,3.0
SiIHo,0.0,-0.0329688,,2,3.0
Ga2Ge2Pu,0.0,-0.0363607,,2,3.0
SrSbPb2,0.0,-0.0532657,,2,3.0
O7Si2CaTh,4.6886,-0.018821,,2,3.0
BaPmPb2,0.0,-0.0594107,,2,3.0
B4Sm,0.0,-0.0154892,,2,3.0
Mg3Al3Si2Pt,0.0,-0.0147716,,2,3.0
Al2Sr3In3,0.0,-0.0232057,,2,3.0
O2F6Au,0.2591,-0.0121324,,2,3.0
Sc2Cu2In,0.0,-0.0189398,,2,3.0
Rh4NdHg,0.0,-0.0414675,,2,3.0
SAs3Zr2,0.0,-0.0230636,,2,3.0
BO3Mn,0.0,-0.0112615,,2,3.0
F4NiRb2,0.3513,-0.0129747,,2,3.0
Sc3Co2Ag,0.0,-0.0184842,,2,3.0
CZr2Te2,0.0,-0.0300752,,2,3.0
LiCaPt,0.0,-0.0281005,,2,3.0
B3MnCo,0.0,-0.0118983,,2,3.0
Ni2CuLu2,0.0,-0.032148,,2,3.0
ScY2Hg,0.0,-0.0349138,,2,3.0
Co2Nd3Tl3,0.0,-0.0480551,,2,3.0
MgYAu2,0.0,-0.0437687,,2,3.0
AlY6Sb2,0.0,-0.0284573,,2,3.0
CdCe3Os2,0.0,-0.0515425,,2,3.0
Cl3SeRb,1.7645,-0.0140123,,2,3.0
Li2Mg2ScSn2,0.0,-0.0148173,,2,3.0
AgSnAu2,0.0,-0.0514335999999999,,2,3.0
GeZrGd,0.0,-0.0369525,,2,3.0
PbU2,0.0,-0.0941834999999999,,2,3.0
Zr4Re3,0.0,-0.048368,,2,3.0
TcRe4,0.0,-0.0638474,,2,3.0
SiScRh2,0.0,-0.0240617,,2,3.0
Li2F8MgCa,0.6612,-0.0069136,,2,3.0
TbAu2Bi,0.0,-0.066605,,2,3.0
BeMnIr2,0.0,-0.0418035,,2,3.0
Sn4Au,0.0,-0.0425877,,2,3.0
Si2Rh2Gd,0.0,-0.0304850999999999,,2,3.0
Li2SnSm,0.0,-0.0217862,,2,3.0
ZnGaPt2,0.0,-0.0431875,,2,3.0
MgAlAg,0.0,-0.0148993,,2,3.0
As2Ru2Pu,0.0,-0.0445964,,2,3.0
Co3RuHo2,0.0,-0.0309439,,2,3.0
AlK2Ag3,0.0,-0.0197577,,2,3.0
CaYCd2,0.0,-0.0250719,,2,3.0
Mn2Ni3As,0.0,-0.0179334,,2,3.0
NiTmPt,0.0,-0.0469991,,2,3.0
SbI2Np2,0.0,-0.0652988,,2,3.0
NaAlAg2,0.0,-0.0187147,,2,3.0
ScNiIr2,0.0,-0.0437841999999999,,2,3.0
O4MnIn2,0.0,-0.0175538999999999,,2,3.0
CO3Hg,0.8905,-0.0203719,,2,3.0
InErIr,0.0,-0.0524827,,2,3.0
SbPtPa,0.0,-0.069915,,2,3.0
PrPtTl,0.0,-0.0629089999999999,,2,3.0
Mg2InDy2,0.0,-0.0280314,,2,3.0
Sc3Ni2Cd,0.0,-0.0180646,,2,3.0
OS2CeBi,0.0,-0.0315824,,2,3.0
F6CrTl3,1.5284,-0.0280485,,2,3.0
Li2P2Co,0.0,-0.0092435,,2,3.0
Mg2Sb2Np,0.0,-0.0385606,,2,3.0
Ti2CrNi,0.0,-0.0168746,,2,3.0
RuLu2Os,0.0,-0.0548453999999999,,2,3.0
OCa3Ag,0.0,-0.014712,,2,3.0
P2K,1.3538,-0.0101607,,2,3.0
F6NiHg,1.1288,-0.0148309999999999,,2,3.0
LiSe2RbHg,0.6488,-0.0272899,,2,3.0
Si2Re,0.0,-0.0306333,,2,3.0
O2CsSm,2.8241,-0.0265239,,2,3.0
FeICe,0.0,-0.0336929,,2,3.0
PS3K,1.4976,-0.0103255,,2,3.0
NiRuRh2,0.0,-0.0295932,,2,3.0
GeEu2Pt3,0.0,-0.0572528999999999,,2,3.0
AlGaSm,0.0,-0.0235111,,2,3.0
TiNiCuIn,0.0,-0.0204945999999999,,2,3.0
I9Cs3Bi2,2.0006,-0.0439639999999999,,2,3.0
O8Mn3Co,0.0,-0.0119376999999999,,2,3.0
Br2Ce,0.0,-0.0297294,,2,3.0
Sb2Cs2Tl,0.0,-0.0448405,,2,3.0
Zr2SbPt2,0.0,-0.0489295,,2,3.0
AsHo2,0.0,-0.0404356,,2,3.0
AlFe2Tm,0.0,-0.0242633,,2,3.0
Cu4PrHg,0.0,-0.0289231,,2,3.0
B6Ce,0.0,-0.0132958,,2,3.0
STi,0.0,-0.0144685,,2,3.0
MgCu2Ga,0.0,-0.0131206999999999,,2,3.0
Li2Ge2Pd,0.0,-0.0156434,,2,3.0
AlNi2Pd,0.0,-0.0187364,,2,3.0
Ga3Sn2Er3Os,0.0,-0.0388864,,2,3.0
ScSrIr4,0.0,-0.0540599,,2,3.0
MgSe4Nd2,1.4009,-0.0265012,,2,3.0
LiMgGeAu,0.0,-0.024422,,2,3.0
Cl6PdCs2Au,0.0,-0.0237725,,2,3.0
CaAg4,0.0,-0.0271864,,2,3.0
O8GaSe2Cs,2.8246,-0.0132676,,2,3.0
PTlPb2,0.0,-0.0584972,,2,3.0
KIn2Sb2,0.0,-0.0301982,,2,3.0
CaZn,0.0,-0.0118821,,2,3.0
TbPtBi,0.0,-0.0664614,,2,3.0
O10Nb3CsBa2,1.3207,-0.0203553,,2,3.0
K2Se3Hf,1.4942,-0.024791,,2,3.0
O6Ca2ScPt,0.0,-0.0165536999999999,,2,3.0
O6NaSi2Fe,0.8219,-0.0105777,,2,3.0
HSnBaTl,0.1356,-0.038285,,2,3.0
La2Au2Hg,0.0,-0.0595136,,2,3.0
RuLu6Pb2,0.0,-0.0582008,,2,3.0
Li2Ge3Nd2,0.0,-0.022088,,2,3.0
Al3Ge2Nd2,0.0,-0.0218169,,2,3.0
Te2Hf,0.0,-0.0465748,,2,3.0
Ni2ZnNd2,0.0,-0.0269775999999999,,2,3.0
SiFeTm,0.0,-0.0272471,,2,3.0
Rh2HfAu,0.0,-0.0506918,,2,3.0
TcTaIr2,0.0,-0.0616035,,2,3.0
Ni4NdTl,0.0,-0.0302815,,2,3.0
LiNiTm2,0.0,-0.0307493,,2,3.0
Te2La6Ir,0.0,-0.0459411,,2,3.0
OSeAgPr,1.0961,-0.0273735,,2,3.0
CuPdLu2,0.0,-0.0403834999999999,,2,3.0
Ni2Ga3Pu,0.0,-0.0322847999999999,,2,3.0
Al3Ca3Ge2Rh,0.0,-0.0144892,,2,3.0
C3SiNb4,0.0,-0.0221175,,2,3.0
C5Ni3Tb4,0.0,-0.0242398,,2,3.0
NiGe2Nb,0.0,-0.0223021999999999,,2,3.0
NCe,0.0,-0.028652,,2,3.0
Cd2Sb2Ba,0.0,-0.0356057,,2,3.0
Ga2Pt2Au,0.0,-0.0489816,,2,3.0
Mo2WPt,0.0,-0.0525295,,2,3.0
As2RbPb2,0.0,-0.0427798999999999,,2,3.0
CdAu2Tl2,0.0,-0.0627243,,2,3.0
Ti2Ge2Mo,0.0,-0.0216711999999999,,2,3.0
F6TiGd,0.0,-0.0158535,,2,3.0
OF3P,5.8365,-0.0080574999999999,,2,3.0
B6Ti5,0.0,-0.0122842,,2,3.0
Mn2GeRh,0.0,-0.0227514,,2,3.0
O3K2Fe,0.2858,-0.0105977,,2,3.0
N2CuNd2,0.0,-0.0254093,,2,3.0
H4CuPr,0.0,-0.0124599,,2,3.0
Al2Ni2Se5,0.0,-0.0170521,,2,3.0
F6SiSe2Cd3,2.1303,-0.0157365,,2,3.0
Al3CoSn2Pr3,0.0,-0.0275472,,2,3.0
GaBrI,1.8928,-0.0247913,,2,3.0
O3Na2Gd,0.0,-0.0165845,,2,3.0
SrRh2Pb,0.0,-0.0416854,,2,3.0
Ga3RuCs,0.0,-0.0246376,,2,3.0
Al2Pd2Er,0.0,-0.0272734,,2,3.0
Cl4FeBr2Cs2,0.0,-0.0196486,,2,3.0
CRu3La,0.0,-0.0315722,,2,3.0
CaBaTl2,0.0,-0.0491061,,2,3.0
Cu2CdSm,0.0,-0.0265608,,2,3.0
S4CdEr2,0.9738,-0.0261425,,2,3.0
La2PtPb,0.0,-0.0591089,,2,3.0
YTl4,0.0,-0.0636586,,2,3.0
Rh2SmDy,0.0,-0.0408483,,2,3.0
O4SeLaBi2,0.0,-0.0324174,,2,3.0
F6TiSn,2.4519,-0.0122180999999999,,2,3.0
Li2TiAs2,0.0,-0.0130343,,2,3.0
CoSe3NbCs,0.0,-0.0255926,,2,3.0
CaZnPb,0.0,-0.0335531,,2,3.0
KCuRhTe3,0.0,-0.0287331,,2,3.0
Rh3Re,0.0,-0.043204,,2,3.0
Li2P2Hf,0.0,-0.0186862,,2,3.0
LiSi2Sr,0.0,-0.0114761,,2,3.0
Se4SrAg2Sn,0.0,-0.0259154,,2,3.0
BeAsHg2,0.0,-0.040216,,2,3.0
Li3O6VCr2,0.0497,-0.0107668,,2,3.0
PCl3Gd3,0.0,-0.0319867,,2,3.0
Si2Zn2Ce,0.0,-0.0187191,,2,3.0
AlRh2Th2,0.0,-0.054365,,2,3.0
AsSe2Cs,1.4925,-0.0252502,,2,3.0
Ca5Rh,0.0,-0.0138167,,2,3.0
Rh2ReHg,0.0,-0.0517453,,2,3.0
Cu2ZnPd,0.0,-0.0194395,,2,3.0
Ni2PdDy3,0.0,-0.0353429,,2,3.0