formula,bg,formation_energy,mp-id,fidelity,bg_category
SiZrW,0.0,-0.0374537,,2,3.0
Be2CoZr,0.0,-0.0144044,,2,3.0
ZnSrCd2,0.0,-0.0244795,,2,3.0
Si2Sc3Ga3Ru,0.0,-0.0170518,,2,3.0
Li2OTi2Sb2,0.0,-0.0180461,,2,3.0
BNPdPu,0.0,-0.0407316,,2,3.0
Ga2LaAc,0.0,-0.0421439,,2,3.0
LuAu3,0.0,-0.0665817,,2,3.0
GeRhU,0.0,-0.0526875,,2,3.0
SeSnGd,0.0,-0.0396064999999999,,2,3.0
ZnTa,0.0,-0.040106,,2,3.0
Li2NaSb2,0.0,-0.0171721,,2,3.0
LiRuSb,0.0,-0.0252411,,2,3.0
NiCd5,0.0,-0.0279834999999999,,2,3.0
C2Ho3Tl,0.0,-0.0403936,,2,3.0
CdInTl,0.0,-0.0453166,,2,3.0
Rb2IAu,2.8203,-0.0378385,,2,3.0
CaI2,3.4498,-0.0294932,,2,3.0
LiN2CaGa,2.3187,-0.0102786,,2,3.0
Mg3Co,0.0,-0.0079082,,2,3.0
F6Ga2Zr,2.2066,-0.0123072,,2,3.0
Al3Pr2Os,0.0,-0.0308599,,2,3.0
O8As2EuHf,0.0,-0.019585,,2,3.0
Si2Os2Np,0.0,-0.0545603,,2,3.0
O2GaAg,0.6954,-0.0164544,,2,3.0
F3KAsBr,3.8825,-0.0119237,,2,3.0
F6TiTb,0.0,-0.0144075,,2,3.0
MgS4Y2,1.6899,-0.0163602999999999,,2,3.0
Si4Ni4Nb3,0.0,-0.019218,,2,3.0
NiCuY,0.0,-0.0200549,,2,3.0
Cl8SrDy2,3.9783,-0.0190513,,2,3.0
O7BaBi4,2.5488,-0.0344594,,2,3.0
AlAg7,0.0,-0.0284614,,2,3.0
ZnPdTb2,0.0,-0.0356439999999999,,2,3.0
H3HoAu,0.0,-0.0262184,,2,3.0
AsZrTe,0.0,-0.0303663999999999,,2,3.0
O2RhBa,0.0,-0.023331,,2,3.0
O2Ca,2.9173,-0.0095732,,2,3.0
SrPd3Sn2,0.0,-0.0327533,,2,3.0
Ga3Rh2Ce,0.0,-0.0276481999999999,,2,3.0
AlSn3Ba,0.0,-0.0313815,,2,3.0
GeSeTh,0.0,-0.0464,,2,3.0
Y6RuSb2,0.0,-0.0314819,,2,3.0
AlZr2Rh,0.0,-0.0264177,,2,3.0
Ga3Ge2PdLu3,0.0,-0.0326207,,2,3.0
Fe4Zn3,0.0,-0.0161316,,2,3.0
NiGa6Pu,0.0,-0.0283747,,2,3.0
SiCu2Pr,0.0,-0.0213622,,2,3.0
LiMgAlCu,0.0,-0.0078124,,2,3.0
Cl3AgCs,0.0,-0.0198937,,2,3.0
SiMnPa,0.0,-0.0431583,,2,3.0
C4RuNd3,0.0,-0.0260321,,2,3.0
Nd6PtBi2,0.0,-0.0551636,,2,3.0
O3MnAg,0.0,-0.0149631,,2,3.0
RhIn5U,0.0,-0.0436713,,2,3.0
RuSb2Hf6,0.0,-0.0545014,,2,3.0
P2Rh2Pu,0.0,-0.0405957,,2,3.0
CuZnAg2,0.0,-0.0228586,,2,3.0
Cl6Cs2Sm,0.0,-0.0207259999999999,,2,3.0
MnF3,0.0,-2.84332078299569,mp-2034494,2,3.0
AlOsPu,0.0,-0.0635626,,2,3.0
CoZr2Ag,0.0,-0.0277094999999999,,2,3.0
RuPrBi2,0.0,-0.0593215999999999,,2,3.0
H2RuHf2,0.0,-0.0341314,,2,3.0
Y3Rh,0.0,-0.0298388999999999,,2,3.0
As2AgPt,0.0,-0.035615,,2,3.0
ErHgPb2,0.0,-0.067886,,2,3.0
B4ScTm,0.0,-0.0167668,,2,3.0
GeSnPt5,0.0,-0.0584102,,2,3.0
BLuIr3,0.0,-0.0560086999999999,,2,3.0
LiO7As2La,3.5383,-0.0139043,,2,3.0
Mg2TbTm,0.0,-0.0272018999999999,,2,3.0
C2Ca,1.7158,-0.0100679,,2,3.0
KInAu,0.0,-0.0372911,,2,3.0
BNa2Pd2,0.0,-0.0165123,,2,3.0
SrCd2Ba,0.0,-0.0310476999999999,,2,3.0
Si4Sc3Cu4,0.0,-0.0136445,,2,3.0
ZrPd2Pb,0.0,-0.0435803,,2,3.0
Rh3Au,0.0,-0.0425356999999999,,2,3.0
CdTlTh2,0.0,-0.0737408,,2,3.0
FAg,0.0,-0.0185269,,2,3.0
SiILa,0.0,-0.0311705,,2,3.0
MgZnNd,0.0,-0.0210221,,2,3.0
CuZr2La,0.0,-0.0299645,,2,3.0
SbPt2Pb,0.0,-0.0636341,,2,3.0
P2Mn,0.0,-0.0134839,,2,3.0
NiRuPm2,0.0,-0.0349906,,2,3.0
MgZrPd2,0.0,-0.0260975,,2,3.0
OK2As2Zr2,0.0,-0.0192776,,2,3.0
Ag4Pu,0.0,-0.0469197,,2,3.0
Al2FeDy,0.0,-0.0207286,,2,3.0
N3BaOs,0.0,-0.0281388999999999,,2,3.0
Y2SbTl,0.0,-0.0422033,,2,3.0
SnLuAu,0.0,-0.0545616,,2,3.0
CuIn2Lu,0.0,-0.0347178,,2,3.0
AlS2Bi,0.0,-0.0272461,,2,3.0
F6NaRb2Sn,0.0,-0.0130372,,2,3.0
Sc4Se3Sb,0.0,-0.0208706,,2,3.0
Ag2CdCe,0.0,-0.034619,,2,3.0
CoY2Rh,0.0,-0.0272567,,2,3.0
Be2Ta2Pt,0.0,-0.0430482,,2,3.0
O8KErW2,4.4997,-0.0233450999999999,,2,3.0
H4CoCs,0.007,-0.0115763999999999,,2,3.0
PdIn2Sm,0.0,-0.0367835,,2,3.0
PTiRu,0.0,-0.0215508999999999,,2,3.0
Tm2Au2Tl,0.0,-0.0638215,,2,3.0
ZnSnPt,0.0,-0.0404222,,2,3.0
Li4N6Si2Sr3,2.0501,-0.0112524,,2,3.0
VSe4In3,1.0808,-0.0252193,,2,3.0
Si2Sc3,0.0,-0.0133056,,2,3.0
RhTe2Pt2,0.0,-0.0500406,,2,3.0
CoTcHf2,0.0,-0.0449864,,2,3.0
Pd2CdCe2,0.0,-0.0376728999999999,,2,3.0
B6Mn2Th,0.0,-0.0202467,,2,3.0
S2CoNiAs2,0.0,-0.01596,,2,3.0
PTi2Sb,0.0,-0.0209267,,2,3.0
H4NNiSe4Mo,0.0,-0.0144096,,2,3.0
BeSiLa2,0.0,-0.0255636,,2,3.0
Li4O8Co3Te,0.0,-0.0108887,,2,3.0
SeTeW,0.7251,-0.0425863,,2,3.0
LiP2Rh2,0.0,-0.0189773,,2,3.0
CeAu,0.0,-0.0577496999999999,,2,3.0
AlInEr2,0.0,-0.0359316,,2,3.0
Li3F8Fe,0.6659,-0.0069499,,2,3.0
H4Cr3Fe,0.0,-0.0108645999999999,,2,3.0
Li2CaPd2,0.0,-0.0164455999999999,,2,3.0
AlPd2Ce,0.0,-0.0303934,,2,3.0
GeAuNp,0.0,-0.0653301,,2,3.0
Fe2MoPt,0.0,-0.0355,,2,3.0
O3CaAs,2.7048,-0.0119131,,2,3.0
ZnSeAgBa2,0.0,-0.0292655,,2,3.0
SbCeHo,0.0,-0.0445088,,2,3.0
CaGa6Rh,0.0,-0.0181986999999999,,2,3.0
Ti2FeIr,0.0,-0.0311470999999999,,2,3.0
Ge2SrLa2,0.0,-0.0300596,,2,3.0
O6SbBa2Lu,3.4893,-0.0239124,,2,3.0
PdHo2Os,0.0,-0.0513706,,2,3.0
Na3RbPb,0.0,-0.0219978,,2,3.0
O4ITl,1.4887,-0.0227311,,2,3.0
SiTm2Ir2,0.0,-0.0523624,,2,3.0
Ni2YSb,0.0,-0.0250113,,2,3.0
LiPd2Pr,0.0,-0.0283754,,2,3.0
N2Ca7In3,0.0,-0.0163377,,2,3.0
Li2OF5Cr,0.9385,-0.0079454,,2,3.0
Cl4K2Br2Au,0.0,-0.0184783,,2,3.0
Pd2SnPr,0.0,-0.0370888,,2,3.0
CuGaTb2,0.0,-0.031737,,2,3.0
TiFeTe3,0.0,-0.0296273,,2,3.0
AgCdLa,0.0,-0.0353733,,2,3.0
CuGe2Sm,0.0,-0.0251179,,2,3.0
Si2Ti3Cu4,0.0,-0.0147918,,2,3.0
AlRhHf,0.0,-0.0357365,,2,3.0
O9Fe2Sr3Te,0.0,-0.015353,,2,3.0
Cl6Rb2PdAg,0.0,-0.0166278,,2,3.0
N3SiP,4.1923,-0.0105621,,2,3.0
O12NaMgSi4CaCr,1.8304,-0.0106328,,2,3.0
Ni3Tc,0.0,-0.0208469,,2,3.0
CGeCe3,0.0,-0.0330551,,2,3.0
F6MnHf,2.687,-0.0163798,,2,3.0
ZrPd2Sb,0.0,-0.0341804,,2,3.0
Co2PtU,0.0,-0.0523407,,2,3.0
O2ClSrSb,3.0989,-0.0182911,,2,3.0
N6V2La3,0.0,-0.0215834,,2,3.0
Al3GeEr2,0.0,-0.024416,,2,3.0
Si2SrAg2,0.0,-0.0213124,,2,3.0
O8Cl2Ni,1.2112,-0.0076449,,2,3.0
AsAgPb,0.0,-0.0423641,,2,3.0
RhPrHg2,0.0,-0.0539069,,2,3.0
RhIHo,0.0,-0.0409923,,2,3.0
CuAs2Gd,0.0,-0.0295045,,2,3.0
F6FePb2,0.0,-0.0235987,,2,3.0
P3IHg2,0.9057,-0.034109,,2,3.0
Si2Cu2Ba,0.0,-0.0182566999999999,,2,3.0
ClBrZr2,0.0,-0.0235015,,2,3.0
MnGa2Au,0.0,-0.0302558,,2,3.0
PNiZr,0.0,-0.0203543999999999,,2,3.0
TiNb2Re,0.0,-0.0385747,,2,3.0
Se4SrSnAu2,0.4902,-0.0353325,,2,3.0
Rh2PrIr3,0.0,-0.0544257,,2,3.0
CuSeBr,0.0,-0.0184737,,2,3.0
ClGePr,0.0,-0.0250016,,2,3.0
F5CaV,0.0,-0.0100551999999999,,2,3.0
Ga5NdOs,0.0,-0.0286666,,2,3.0
Na3Cl6Sc,4.111,-0.0096359,,2,3.0
LiY2In2,0.0,-0.0254972,,2,3.0
Pr2Os,0.0,-0.0529926,,2,3.0
ZrPdPb,0.3845,-0.0471684,,2,3.0
Si2Rh3Lu,0.0,-0.0305752,,2,3.0
H3NiTa,0.0,-0.0187222,,2,3.0
O3MnZn,1.0831,-0.0120442,,2,3.0
GaILu,0.0,-0.0372041,,2,3.0
Si3NiNd2,0.0,-0.0230877,,2,3.0
Si2ScLa2,0.0,-0.0248307,,2,3.0
Mn2Ga3Pr,0.0,-0.0219989999999999,,2,3.0
Be4CoNi,0.0,-0.0087429,,2,3.0
GaOsPa,0.0,-0.0632117,,2,3.0
F4NaSb,4.3837,-0.0118802,,2,3.0
P2PdTh2,0.0,-0.0505419,,2,3.0
H4GaCs,4.2484,-0.0115959,,2,3.0
O6InBa2Ir,0.0,-0.0241286,,2,3.0
Se2Tm6Ir,0.0,-0.0479722,,2,3.0
S4Sm3Tm,0.0,-0.0302025,,2,3.0
FeGa3Ge2Pr3,0.0,-0.0267637,,2,3.0
CO3FRb3,3.6668,-0.0139496,,2,3.0
Pd5SnI2,0.0,-0.0344707,,2,3.0
Al3RhEr2,0.0,-0.027117,,2,3.0
LiZr2Ru,0.0,-0.0250193,,2,3.0
P2CuAu,0.0,-0.0263456,,2,3.0
SrAgCd,0.0,-0.0283797,,2,3.0
NiCuLa2,0.0,-0.0296315999999999,,2,3.0
As2AgNp,0.0,-0.0450379,,2,3.0
KGa2Pt,0.0,-0.0283748,,2,3.0
LiS4ZnAs,1.8403,-0.0112895,,2,3.0
O6Sr2SmIr,0.0,-0.022257,,2,3.0
Cl6K2AsAu,0.0,-0.016543,,2,3.0
CBr5Tm4,0.0,-0.03306,,2,3.0
Li2P2Cu,0.0,-0.0086583,,2,3.0
ZnHo6Tl2,0.0,-0.0505915,,2,3.0
Ge3YOs,0.0,-0.031931,,2,3.0
O6TiYBa2,0.0,-0.0192676,,2,3.0
F6NiGd,0.0,-0.0150516,,2,3.0
Zn2CdLu3,0.0,-0.0376796999999999,,2,3.0
ClK2,0.0,-0.0096031,,2,3.0
Br3RbEu,0.4221,-0.0286544,,2,3.0
BC2Gd2,0.0,-0.0295423,,2,3.0
S3CaAgTm,1.6099,-0.0220327,,2,3.0
FeGa3Sn2Tm3,0.0,-0.0332965999999999,,2,3.0
SiCl3Gd3,0.0,-0.0317258,,2,3.0
AlNiCuZr,0.0,-0.018031,,2,3.0
CaSnPt2,0.0,-0.0473378,,2,3.0
LiCuIn2Te4,0.6342,-0.0296601,,2,3.0
CoGd,0.0,-0.0381238,,2,3.0
ReOsIr2,0.0,-0.0714704,,2,3.0
Te3Er2,0.2464,-0.0440042,,2,3.0
Ta6Bi2O19,0.013199999999999,-2.927841561629629,mp-1208390,2,3.0
LiAl2Re,0.0,-0.0224732,,2,3.0
Pd3SnPr2,0.0,-0.0376383,,2,3.0
O3AsAu,0.0026,-0.0224463,,2,3.0
Fe3Nb,0.0,-0.0219035,,2,3.0
F6CrFe,0.0001,-0.0100424,,2,3.0
Al5Pd2Dy,0.0,-0.0198104,,2,3.0
Pd3Dy,0.0,-0.0374806,,2,3.0
Sc2Zr,0.0,-0.0197263,,2,3.0
Tb3Au2Hg,0.0,-0.0587568,,2,3.0
Na2S4ZnPb,1.1395,-0.0178279,,2,3.0
HLiPt,0.0,-0.0258172999999999,,2,3.0
BrAgLa2,0.0,-0.0351646,,2,3.0
Zr3In3Ir2,0.0,-0.0426132,,2,3.0
NaSrHg2,0.0,-0.0412006,,2,3.0
Ca2Ga2Cd,0.0,-0.0169383,,2,3.0
Al3CrGe2Sm3,0.0,-0.0243779,,2,3.0
Al3Rh7,0.0,-0.0266716,,2,3.0
O4V2Zn,0.0,-0.0128795,,2,3.0
CaBrSr2,0.0,-0.0192421,,2,3.0
Na2MgSb2,0.0,-0.0179897,,2,3.0
Co2Sb2Ce,0.0,-0.0312423,,2,3.0
NaNiIn2,0.0,-0.0219182999999999,,2,3.0
Ta3Ir5,0.0,-0.0701396,,2,3.0
InAu2Th2,0.0,-0.0735261,,2,3.0
Mg2RuPu,0.0,-0.0387436,,2,3.0
P2CuZnEr,0.0,-0.0208369,,2,3.0
NaAgBa2,0.0,-0.0287162,,2,3.0
C2O6Na2Fe,0.037,-0.0093237,,2,3.0
CuAsY2,0.0,-0.0237161,,2,3.0
Te3Nd,0.0,-0.0399562,,2,3.0
Ni2Ta2Pt,0.0,-0.0476453,,2,3.0
AlCu4Dy,0.0,-0.0197283,,2,3.0
RhCd8,0.0,-0.0308132,,2,3.0
AlMnRuHf,0.0,-0.0315027,,2,3.0
OTeCe,0.0,-0.0319728,,2,3.0
ClCuTe2,0.4348,-0.024735,,2,3.0
P3Cr4Cs,0.0,-0.0181899,,2,3.0
CaAg2Er,0.0,-0.0310082,,2,3.0
HPd3In,0.0,-0.0274889,,2,3.0
Be2NiRu,0.0,-0.0153847,,2,3.0
KZnAu,0.0,-0.0306287999999999,,2,3.0
MnSe2PdCs,0.0,-0.0266704,,2,3.0
O6SrBa2Os,0.0,-0.0234575,,2,3.0
O2NaClCuBa,0.0,-0.0150517,,2,3.0
Ni2GeNd2,0.0,-0.0282989999999999,,2,3.0
AsZr2Te2,0.0,-0.0323248,,2,3.0
CsHgBi,0.0,-0.0619545,,2,3.0
Al8Cr,0.0,-0.0089992,,2,3.0
Fe5Tc,0.0,-0.0206864,,2,3.0
SrRhIn2,0.0,-0.0313078,,2,3.0
NiSb2Cs5,0.0,-0.0353102,,2,3.0
BDyPt2,0.0,-0.0500973,,2,3.0
O7P2Cu2,0.0,-0.0105042,,2,3.0
Cu2CdTh,0.0,-0.0393536,,2,3.0
AlNiRhHf,0.0,-0.0310095,,2,3.0
Ga2ErAu,0.0,-0.0388639,,2,3.0
Al3RuHo2,0.0,-0.0267134,,2,3.0
TiCu2Hf,0.0,-0.0274417,,2,3.0
ScNi2Ir,0.0,-0.029942,,2,3.0
K3Rb,0.0,-0.0114294,,2,3.0
AsSe4Cs3,1.4426,-0.0276954999999999,,2,3.0
O3ScTi,0.0,-0.0132625,,2,3.0
S2YSm,0.0,-0.0251648,,2,3.0
Al3Si2PdNd3,0.0,-0.023774,,2,3.0
F6K2PdTl,0.0,-0.016451,,2,3.0
NiYPb,0.0,-0.0405053,,2,3.0
SrLaPt4,0.0,-0.0588252,,2,3.0
OKBr4Nb,1.6755,-0.0195465,,2,3.0
CaPd2Sb2,0.0,-0.0307481,,2,3.0
NaZnBa2,0.0,-0.0242228,,2,3.0
RhHoPt2,0.0,-0.0568117999999999,,2,3.0
VCrPt2,0.0,-0.0447828,,2,3.0
H3ScIr,0.0,-0.0198385,,2,3.0
Pr3Hg2,0.0,-0.0538202,,2,3.0
H6CrTm2,0.3822,-0.0164692,,2,3.0
AlCu2Ta,0.0,-0.0263656,,2,3.0
GeInAu2,0.0,-0.0478877,,2,3.0
Be3Nb,0.0,-0.0117881,,2,3.0
S2NiZr6,0.0,-0.0252898,,2,3.0
N2PdLa2,0.0,-0.0289238,,2,3.0
LiScPt2,0.0,-0.0404108,,2,3.0
Ti3Ga3Pt2,0.0,-0.0305146,,2,3.0
Cu2GeTm,0.0,-0.0258526,,2,3.0
Al4ScRu,0.0,-0.0139472,,2,3.0
YCd2La,0.0,-0.0334007999999999,,2,3.0
P2TiCu2,0.0,-0.0140267999999999,,2,3.0
SiAgHo,0.0,-0.0307583,,2,3.0
CaCoGa2,0.0,-0.0152792,,2,3.0
Al2CoTa6,0.0,-0.0482087999999999,,2,3.0
LiF6Cr,0.0,-0.007829,,2,3.0
Ga6PdNd,0.0,-0.0223805,,2,3.0
AlZn2La2,0.0,-0.0245978,,2,3.0
O2Na,0.0,-0.0063939,,2,3.0
HSiNi3,0.0,-0.0127189,,2,3.0
Ni2GaU,0.0,-0.0382434,,2,3.0
ZrSn2Pm,0.0,-0.0372094,,2,3.0
Ni4Ge2Y3,0.0,-0.0213174,,2,3.0
Si2NdIr3,0.0,-0.0472579,,2,3.0
KTiSe3Rh,0.0,-0.0207412999999999,,2,3.0
H3NiPu,0.0,-0.0275503,,2,3.0
OMgZr3,0.0,-0.0218038999999999,,2,3.0
MgAlPt2,0.0,-0.0394695,,2,3.0
Pd2Cd2In,0.0,-0.0323237,,2,3.0
Ge3LuOs,0.0,-0.0373026,,2,3.0
B2O6CaSn,3.918,-0.0124202,,2,3.0
Li5Cu3,0.0,-0.0071361,,2,3.0
CaRh2Tm,0.0,-0.032987,,2,3.0
Pd2Np,0.0,-0.0577287,,2,3.0
S4CrGa2,0.0,-0.0135781,,2,3.0
ScZn2Rh,0.0,-0.0194184,,2,3.0
LiMgGaRu,0.0,-0.0149419,,2,3.0
Pt2AuPb4,0.0,-0.0734359,,2,3.0
Zr3Ag2,0.0,-0.0310399,,2,3.0
CoAsPd,0.0,-0.0237709,,2,3.0
Sc3FeAg2,0.0,-0.0208497999999999,,2,3.0
BNPdCe,0.0,-0.0246706,,2,3.0
BNFeTm,0.0,-0.022888,,2,3.0
BeCu4,0.0,-0.0130774,,2,3.0
SeSbLa,0.0,-0.0352,,2,3.0
H4MnRu3,0.0,-0.0170406,,2,3.0
F6AlPu,0.0195,-0.0210992,,2,3.0
H2Co,0.0,-0.0079014,,2,3.0
Gd2IrAu,0.0,-0.0653692,,2,3.0
CdTm2Tl,0.0,-0.0520755,,2,3.0
O10P2Bi3,0.0,-0.0230023,,2,3.0
F6AuHg,0.0,-0.0209513,,2,3.0
Si2Rh3Nd,0.0,-0.0286722,,2,3.0
Al3Si2RuNp3,0.0,-0.0445718,,2,3.0
SrHf2Pt2,0.0,-0.0586886,,2,3.0
Al5RhEr,0.0,-0.0182586,,2,3.0
BPd2Sm,0.0,-0.0301301,,2,3.0
Ge2Hf2Re,0.0,-0.0475552,,2,3.0
OSCuDy,1.5491,-0.0219769,,2,3.0
S4GeAg2Er,0.0,-0.0221501,,2,3.0
LiO4SiNi,0.0,-0.0098704999999999,,2,3.0
YInIr,0.0,-0.0449774,,2,3.0
CoGa5Nb,0.0,-0.0191411,,2,3.0
SnBaHg2,0.0,-0.0534735,,2,3.0
P2Cu2RbGd,0.0,-0.0225871,,2,3.0
O6MnPdNd2,0.0,-0.020162,,2,3.0
S2ScTl,0.7546,-0.0280289,,2,3.0
Li4O8V3Mn,0.0,-0.010549,,2,3.0
Ni2InPa,0.0,-0.0416439,,2,3.0
Cu2YRh3,0.0,-0.0269377999999999,,2,3.0
Cl6AgCs2Er,3.5805,-0.0226137,,2,3.0
SiFe2Ta,0.0,-0.0285823,,2,3.0
ZnGeRu2,0.0,-0.0257383,,2,3.0
Na2SiS4Cd,2.6702,-0.011983,,2,3.0
MgYPt,0.0,-0.0355129,,2,3.0
Y6Sb2Pt,0.0,-0.0356453,,2,3.0
HONa3,2.4424,-0.0052942,,2,3.0
Cl3RbCd,1.7061,-0.0166734,,2,3.0
Ga4Nb2Er,0.0,-0.0265823,,2,3.0
O4NiGa2,0.4502,-0.0124327,,2,3.0
As2Cd2Ba,0.2165,-0.0288901,,2,3.0
O5CuBa2Tl,0.0,-0.0236597,,2,3.0
RuRh8,0.0,-0.0338908,,2,3.0
Ge2Ho2Pb,0.0,-0.0431231,,2,3.0
Si4Zn4Er3,0.0,-0.0228347,,2,3.0
Si2PdTh,0.0,-0.0380422,,2,3.0
SrMoTe2,0.0,-0.0334984,,2,3.0
O2Y2Bi,0.0,-0.0323194,,2,3.0
Pd3Ta,0.0,-0.0417276,,2,3.0
SbI2Dy2,0.0,-0.0426346,,2,3.0
H5RhNd2,0.0,-0.0178733,,2,3.0
NO3Ga3,1.8708,-0.0126121,,2,3.0
CrEr6Bi2,0.0,-0.0535215,,2,3.0
Ca2Ge2Bi,0.0,-0.0278511,,2,3.0
MnFe4Os,0.0,-0.0270788,,2,3.0
P2KCa,0.0,-0.0105107,,2,3.0
GeAuPa,0.0,-0.0630646,,2,3.0
Cl3Sm,4.2035,-0.0196602,,2,3.0
As3Rb2,0.3128,-0.0209323,,2,3.0
Sc2Fe,0.0,-0.0156234,,2,3.0
GeHf2,0.0,-0.0488665999999999,,2,3.0
C2RhLa,0.0,-0.0247169,,2,3.0
CuNdBi2,0.0,-0.054545,,2,3.0
Sc3Y2,0.0,-0.0195841,,2,3.0
O6NiZnEu2,0.0,-0.0195991,,2,3.0
GeZr2Rh2,0.0,-0.0305676,,2,3.0
Rh2Lu,0.0,-0.0418408,,2,3.0
Al2MnTm,0.0,-0.0218716,,2,3.0
AsBr2Np2,0.0,-0.0554772,,2,3.0
H2Mn2Ta,0.0,-0.0221126,,2,3.0
NiMoRu,0.0,-0.0285731,,2,3.0
LiO4CoAs,0.0,-0.0108609,,2,3.0
TiCo2Ge,0.0,-0.0180207,,2,3.0
H4AlK,4.5029,-0.0052599,,2,3.0
Ni3As8Hf4,0.0,-0.0314589,,2,3.0
Se2AgBa,0.0,-0.0289276,,2,3.0
Al3Rb,0.0,-0.0109908,,2,3.0
NiAu3,0.0,-0.0558684,,2,3.0
Si2SrRh2,0.0,-0.0229826,,2,3.0
O8S2KIn,3.8158,-0.0110406999999999,,2,3.0
Ga6AuNp,0.0,-0.0344369999999999,,2,3.0
CuGa3Hf2,0.0,-0.0321327,,2,3.0
B2CoTa2,0.0,-0.0337217,,2,3.0
Ge2RuSn3Ho3,0.0,-0.0370939,,2,3.0
Ga2BrSr2,0.0,-0.0204579999999999,,2,3.0
Co4ZrSn,0.0,-0.0227916999999999,,2,3.0
GeRuNp,0.0,-0.0539409,,2,3.0
Sc2Zn2Sn,0.0,-0.0188473,,2,3.0
In3Ho3Pt2,0.0,-0.0495171,,2,3.0
F12CaAu2,1.5666,-0.0143013999999999,,2,3.0
As2RbTc2,0.0,-0.0265991,,2,3.0
Rh2Cd3Nd,0.0,-0.0340444,,2,3.0
Rh2PrBi2,0.0,-0.0541612,,2,3.0
CuRu2Tb2,0.0,-0.0360135,,2,3.0
KTe,0.6052,-0.0237669,,2,3.0
Ca2NiAs2,0.0,-0.0161011,,2,3.0
As2Rb4Hg,0.5888,-0.0279057,,2,3.0
CdSbPb2,0.0,-0.0547384,,2,3.0
AgPmAu2,0.0,-0.0541219999999999,,2,3.0
Si2ScPt2,0.0,-0.036095,,2,3.0
K5Sb4,0.0,-0.0217109999999999,,2,3.0
GaHfPt,0.0,-0.0509204999999999,,2,3.0
H2Sc3Sn,0.0,-0.0149515999999999,,2,3.0
Te2TlPb,0.0,-0.0559104,,2,3.0
RbSnBi,0.1357,-0.0454042,,2,3.0
Ca2ZnSb,0.0,-0.0182571,,2,3.0
SiAuTh,0.0,-0.0592866,,2,3.0
CoNiY,0.0,-0.02068,,2,3.0
Al2TiPt,0.0,-0.0264005,,2,3.0
Sc4AsTe3,0.0,-0.0248979,,2,3.0
H8N2F6Sn,5.2458,-0.0075567,,2,3.0
C2ClCa2,0.0,-0.0104054,,2,3.0
Li3Ba,0.0,-0.0116447,,2,3.0
N4Mg4Sn,0.6649,-0.0110245999999999,,2,3.0
Se3Nd4Bi,0.0,-0.0409322,,2,3.0
O8Mo2LaTl,3.8219,-0.0219946,,2,3.0
Al3Cu2Tb,0.0,-0.017251,,2,3.0
Cu2GeZr,0.0,-0.0205023,,2,3.0
Se2CsIr,1.0059,-0.0379659,,2,3.0
SiCl2Tm2,0.0,-0.0276254999999999,,2,3.0
Al3Si2RuGd3,0.0,-0.029039,,2,3.0
Mn2SmIr3,0.0,-0.0497289,,2,3.0
B5Sr2Os3,0.0,-0.0301044,,2,3.0
MgPd5Te,0.0,-0.0299598,,2,3.0
ZnGaNd,0.0,-0.0251355,,2,3.0
CeSm3,0.0,-0.0444099,,2,3.0
KBaTl4,0.0,-0.0565343,,2,3.0
SiVHf,0.0,-0.0308037,,2,3.0
CN2Zn,3.477,-0.0107002,,2,3.0
SCu2Se,0.0,-0.0152347,,2,3.0
Mg2CaZn,0.0,-0.0084467999999999,,2,3.0
H4EuIr,0.0,-0.0236468,,2,3.0
Ag5Hg,0.0,-0.0374786,,2,3.0
BeTaOs2,0.0,-0.0540947,,2,3.0
MgCu4Zn2,0.0,-0.0133210999999999,,2,3.0
S3Rb2Hf,1.787,-0.0238919,,2,3.0
Li2O7Ti2Nd,0.0,-0.0133362,,2,3.0
O4SHg,1.445,-0.0182943,,2,3.0
MgHoTl,0.0,-0.0426391,,2,3.0
SbBaHg,0.0,-0.0491336,,2,3.0
BCNiEr,0.0,-0.021652,,2,3.0
Zn2ZrTh,0.0,-0.0385994,,2,3.0
Ni2InNd,0.0,-0.0277661,,2,3.0
Sc2Au2Pb,0.0,-0.0494002,,2,3.0
Co3Zn2Sm,0.0,-0.0207286,,2,3.0
CaZnSr2,0.0,-0.0170378,,2,3.0
O6SbCsW,2.7355,-0.0223109,,2,3.0
SiS6As2Cs2,1.6828,-0.0174465,,2,3.0
KRu2Sb2,0.0,-0.0307295,,2,3.0
Li4P2Pr,0.0,-0.0114854,,2,3.0
As2Pd2Tb,0.0,-0.0314586,,2,3.0
NiAs2Hf2,0.0,-0.0373393,,2,3.0
Mg2Pb3,0.0,-0.0475969,,2,3.0
ZnGeRh2,0.0,-0.0255829,,2,3.0
Co3Ta,0.0,-0.0297139999999999,,2,3.0
Rh3Sb,0.0,-0.0349258999999999,,2,3.0
LiCd2Ba,0.0,-0.0260239,,2,3.0
O6Sr2NbTa,0.0,-0.0212333,,2,3.0
F4CaPd,1.0038,-0.0122190999999999,,2,3.0
F6Na2Cr,0.0,-0.0082353,,2,3.0
AlInGd2,0.0,-0.0401484,,2,3.0
Mo3InTe3,0.0,-0.0359258,,2,3.0
Si2CoGa3Y3,0.0,-0.0195908,,2,3.0
H6Pr2W,0.0,-0.0201378999999999,,2,3.0
LiCaGa4,0.0,-0.0133732,,2,3.0
C2AlNb3,0.0,-0.0217850999999999,,2,3.0
F6CrCe,0.0,-0.014185,,2,3.0
S8AgSm5,1.4358,-0.0257175,,2,3.0
SrAgHg,0.0,-0.0410851,,2,3.0
LiAlTe2,2.2271,-0.0219606,,2,3.0
AlCd2Th,0.0,-0.0413326,,2,3.0
Cr3GeHf2,0.0,-0.0335576,,2,3.0
C2O6MgSr,4.8858,-0.0108297,,2,3.0
Al2AuTh,0.0,-0.0458028,,2,3.0
Cl2SbPr2,0.0,-0.0298797999999999,,2,3.0
ZnBa2Au2,0.0,-0.0468638,,2,3.0
AsSb2Au,0.0,-0.0410381,,2,3.0
Ni2Rh3Tm,0.0,-0.031279,,2,3.0
AlSiCe,0.0,-0.0214151,,2,3.0
Ga2Er2Hg,0.0,-0.0410018,,2,3.0
O4CoAs,0.0,-0.0117834,,2,3.0
Sn2PmTb,0.0,-0.0414007999999999,,2,3.0
Li2O6Al2Mn,1.6438,-0.0096146999999999,,2,3.0
SiMnOs2,0.0,-0.0434559,,2,3.0
CuLa,0.0,-0.0293575,,2,3.0
ZnRhHo2,0.0,-0.0370442,,2,3.0
As2Y6Pt,0.0,-0.0319177,,2,3.0
MgRuLa,0.0,-0.0278572,,2,3.0
Tc5Rh4,0.0,-0.0345729,,2,3.0
InLa2Pt2,0.0,-0.0532314999999999,,2,3.0
Si2ILa2,0.0,-0.0296286999999999,,2,3.0
BAl2Fe2Y,0.0,-0.014934,,2,3.0
Se3SrAgSm,1.2112,-0.0280978,,2,3.0
ZnGe2Nd2,0.0,-0.0285318,,2,3.0
H4MnY,0.0,-0.0105077,,2,3.0
K2As2Se6Sn,0.8048,-0.020036,,2,3.0
LiP2Ir2Np,0.0,-0.046123,,2,3.0
F6SmGd,4.6489,-0.0197734,,2,3.0
Rh2Nd3Pb3,0.0,-0.0539701,,2,3.0
O4MoHf,0.6622,-0.0232673999999999,,2,3.0
Ca2Rh2In,0.0,-0.0246505,,2,3.0
LiMgPtTl,0.0,-0.0380462,,2,3.0
LiS2Bi,1.2897,-0.0258264,,2,3.0
AgInPt2,0.0,-0.051609,,2,3.0
SbTl5,0.0,-0.0665171,,2,3.0
MgZn4Lu,0.0,-0.0193694,,2,3.0
MgCs2BaBi2,0.2423,-0.0468805,,2,3.0
Se3Tb4Pb,0.0,-0.0420876,,2,3.0
Al3Ga2Ce,0.0,-0.017077,,2,3.0
Ga2Ge2Th,0.0,-0.0336685,,2,3.0
Al3Si2MnPa3,0.0,-0.0404292,,2,3.0
AlReTh,0.0,-0.0585107,,2,3.0
Te2TlNp,0.0,-0.0639313,,2,3.0
PMnNi,0.0,-0.0155985,,2,3.0
Cu3Ta4,0.0,-0.0445499,,2,3.0
Ti2Se3,0.0,-0.0197619,,2,3.0
CaGeSe4Au2,0.5898,-0.0315853,,2,3.0
As2Ba3,0.144,-0.0330279,,2,3.0
CoBr2Te,0.0,-0.0236111,,2,3.0
KAg2Tl2,0.0,-0.0431681,,2,3.0
Si2Co2Pu,0.0,-0.033413,,2,3.0
H4O6PCa,0.0456,-0.0077716,,2,3.0
AsTc3,0.0,-0.0314251,,2,3.0
O4MgCr2,0.7142,-0.0122733,,2,3.0
MgSmTl,0.0,-0.0411708,,2,3.0
S3CrCuBa,0.2793,-0.0183125,,2,3.0
Al5Co2Ce,0.0,-0.0152311999999999,,2,3.0
CoRu2Lu3,0.0,-0.0426897,,2,3.0
Ge2RhCe,0.0,-0.030058,,2,3.0
NaV2Se4,0.0,-0.0179706,,2,3.0
OFGd,3.4507,-0.0269435,,2,3.0
B2CY,0.0,-0.0138344,,2,3.0
Ca2Ni2Zn,0.0,-0.0132574,,2,3.0
Pd4Sn6Ba,0.0,-0.0355855,,2,3.0
ZrRh2Ta,0.0,-0.0419181999999999,,2,3.0
Cu2InPa,0.0,-0.0409480999999999,,2,3.0
Ga2Se4Ag,0.0,-0.021045,,2,3.0
NaAs2Sn2,0.0,-0.0235589,,2,3.0
O6CaBa2Pt,0.0,-0.0218377,,2,3.0
Rb3Pd3Bi2,0.0,-0.03996,,2,3.0
MgPd4Eu,0.0,-0.0322275,,2,3.0
NdIr3,0.0,-0.064863,,2,3.0
Ga5EuPt2,0.0,-0.0352581,,2,3.0
N2MoEu,0.0,-0.0276311999999999,,2,3.0
S2K2Co,0.0,-0.0115707,,2,3.0
K2Se4SnHg,1.4846,-0.025953,,2,3.0
ZnAs2Ba2,0.5328,-0.027682,,2,3.0
RuIrPu2,0.0,-0.0817167,,2,3.0
PmIr5,0.0,-0.0669169,,2,3.0
Mg2Co2Ge,0.0,-0.0128208,,2,3.0
RhCdPb2,0.0,-0.0539618,,2,3.0
N3CoEu,0.0,-0.0202044,,2,3.0
Sn2Hf6Ir,0.0,-0.0582662,,2,3.0
PdTeBi,0.0,-0.0498935,,2,3.0
PCoMo,0.0,-0.0214026,,2,3.0
Al3YRh,0.0,-0.0178484,,2,3.0
Cl3KSc,0.0,-0.0114408999999999,,2,3.0
ZnRu5,0.0,-0.0312257,,2,3.0
F6SrPt,2.3951,-0.0167926,,2,3.0
Al5Mn2Nb,0.0,-0.014008,,2,3.0
SrTl2Bi2,0.0,-0.0651748,,2,3.0
GeSe2,1.3174,-0.0200324,,2,3.0
SnTlAc2,0.0,-0.0729418,,2,3.0
MgCs4Bi2,0.3206,-0.0452021,,2,3.0
PCoCu,0.0,-0.0145576,,2,3.0
CaSn6Ir4,0.0,-0.0468014999999999,,2,3.0
O6Sr2DyPt,0.0,-0.0224954999999999,,2,3.0
PdSn2,0.0,-0.0352359999999999,,2,3.0
Al2CeDy,0.0,-0.0273245,,2,3.0
CrZn2Ru,0.0,-0.0200827999999999,,2,3.0
CuZnRu2,0.0,-0.0245837,,2,3.0
CaHgBi2,0.0,-0.0591989999999999,,2,3.0
BrInLa,0.0535,-0.0333802,,2,3.0
N2Sc7Tl3,0.0,-0.0290784999999999,,2,3.0
Mg2CaEr,0.0,-0.0175165,,2,3.0
AlGeLa2,0.0,-0.028999,,2,3.0
O6FeBa2Pt,0.0,-0.0224181,,2,3.0
CaPdHg,0.0,-0.0375628,,2,3.0
Ca2ZnRh,0.0,-0.0170872,,2,3.0
O2K5CuSe,1.1305,-0.0111907999999999,,2,3.0
H2CO5AlK,5.3091,-0.0084404,,2,3.0
Al2Ge2Sr,0.0,-0.0156467,,2,3.0