formula,bg,formation_energy,mp-id,fidelity,bg_category
Ba3Sb2S7,1.902199999999999,-1.516091671041666,mp-1195624,2,3.0
Zn2In2Pb,0.0,-0.0337699,,2,3.0
O3SbBi,1.857,-0.0280776,,2,3.0
HScPd2Pt,0.0,-0.0314677,,2,3.0
Co2NiU,0.0,-0.0386587,,2,3.0
Zn2InNd,0.0,-0.0264651,,2,3.0
Cl6Rb3Gd,3.4138,-0.0191695,,2,3.0
CoMo2Ru,0.0,-0.0303596,,2,3.0
Li3BS3,2.9214,-0.0074011,,2,3.0
InSbPt5,0.0,-0.0606303,,2,3.0
K2Br6Pb,0.0,-0.0243667,,2,3.0
OF5NaZrCs2,4.9246,-0.0167994,,2,3.0
MnCu2Sn,0.0,-0.0212021,,2,3.0
P2AgTh,0.0,-0.0378468999999999,,2,3.0
PRhHf,0.0,-0.0369566999999999,,2,3.0
CFe3,0.0,-0.01604,,2,3.0
SiCuTa,0.0,-0.0309958,,2,3.0
MgGa2Ac,0.0,-0.0324464,,2,3.0
CoBrTe,0.2573,-0.0249842,,2,3.0
LiN3Fe2Ba2,0.0,-0.0187695,,2,3.0
HCaGaGe,0.3553,-0.0126384,,2,3.0
AsPb,0.0,-0.0479072,,2,3.0
O4Cu2As2Se2Nd,0.0,-0.0177271,,2,3.0
Ga3Sr2Pt,0.0,-0.0280325999999999,,2,3.0
Li2MnBr4,1.4949,-0.01591,,2,3.0
AgSb2Tm,0.0,-0.0400427999999999,,2,3.0
Ge2SnHo2,0.0,-0.035185,,2,3.0
CInDy2,0.0,-0.0352802,,2,3.0
TmHg3,0.0,-0.0645257,,2,3.0
O6FeBa2Bi,0.0,-0.0233741,,2,3.0
Al2Sb2Ba,0.0,-0.0264279,,2,3.0
F7RbLa2,6.1861,-0.0172487999999999,,2,3.0
B2Ni2Eu,0.0,-0.0205089,,2,3.0
I2Nd2Bi,0.0,-0.0492071,,2,3.0
Co3Mo,0.0,-0.0215669,,2,3.0
KCaAu4,0.0,-0.0496457,,2,3.0
Al3SiPu2,0.0,-0.0425254,,2,3.0
H4TbPt,0.0,-0.0223486,,2,3.0
Sr2InTl2,0.0,-0.045015,,2,3.0
ZnSb2Sm,0.0,-0.0337279,,2,3.0
Cl4NiBr2Rb2,0.4265,-0.0155345999999999,,2,3.0
Co3Er,0.0,-0.0257014,,2,3.0
H4BNO4FAs,4.5106,-0.0080172,,2,3.0
Li2Ag2Ba,0.0,-0.0215698,,2,3.0
F7RbU2,0.0,-0.0286495,,2,3.0
BaSmPb,0.0,-0.0539172999999999,,2,3.0
Pr,0.0,-0.0433259,,2,3.0
PCl3Ca3,1.6554,-0.0113034,,2,3.0
CuGe2Pa,0.0,-0.0385555,,2,3.0
S4CrRb3,0.0,-0.0159939,,2,3.0
Sc2NiAg,0.0,-0.0193969999999999,,2,3.0
B2CLuIr2,0.0,-0.0377149,,2,3.0
O8MgCsW2,0.0,-0.0215641,,2,3.0
Li5TiAs3,0.5683,-0.0106652,,2,3.0
KRb3Hg,0.0,-0.0278389,,2,3.0
AlSiTb,0.0,-0.0221723,,2,3.0
YTe2Ba,0.0,-0.0371848,,2,3.0
In3Te4,0.0,-0.0358897,,2,3.0
F6Rb2IrTl,1.9578,-0.0228078,,2,3.0
MgKSe2Ag,1.799,-0.0180139,,2,3.0
Ga6EuAu,0.0,-0.028084,,2,3.0
C2FeY,0.0,-0.0168387999999999,,2,3.0
Mn4ZnW,0.0,-0.0259334,,2,3.0
InSmPb2,0.0,-0.0578158999999999,,2,3.0
P2Rb3Pt3,0.0,-0.0372897,,2,3.0
NdIr2,0.0,-0.0627802,,2,3.0
F6CuHf,0.0,-0.0155206,,2,3.0
ScTe2,0.0,-0.0306543,,2,3.0
K2NbI6,0.0,-0.0309875,,2,3.0
SrPdBi2,0.0,-0.0536993999999999,,2,3.0
Se4RhPd2,0.0,-0.026021,,2,3.0
Na2S4GePb,2.2907,-0.0185561,,2,3.0
MnZn2Pd,0.0,-0.0199263,,2,3.0
Ag5Sn,0.0,-0.0321056,,2,3.0
Ca3Ga3Ge2Rh,0.0,-0.0173312999999999,,2,3.0
Cu6Sb2Ba,0.0,-0.0230154999999999,,2,3.0
AlSbPt5,0.0,-0.0571991,,2,3.0
Al3Ca3CuSn2,0.0,-0.0159384999999999,,2,3.0
F3KGe,3.3204,-0.0101754,,2,3.0
O4TiCr,0.0,-0.0126194,,2,3.0
NNa2Cu,0.0,-0.0082483,,2,3.0
O6MgRuPr2,0.0,-0.0192376,,2,3.0
Ca2ScY,0.0,-0.0152465,,2,3.0
AsRhTa,0.0,-0.0407323,,2,3.0
Co4Ge6Sr,0.0,-0.0189929,,2,3.0
InDy2Pb,0.0,-0.0517775,,2,3.0
CCr2,0.0,-0.0156986,,2,3.0
PtAuTl2,0.0,-0.0710145,,2,3.0
AgBa5,0.0,-0.0382456,,2,3.0
Sn2SmPb,0.0,-0.0484752,,2,3.0
ScPt8,0.0,-0.0645036,,2,3.0
Y5Ru,0.0,-0.0291616,,2,3.0
Cr2Ga4Hf,0.0,-0.0237821,,2,3.0
B2N3Ru2Er3,0.0,-0.0276878999999999,,2,3.0
ZnGa2Sm,0.0,-0.0232409,,2,3.0
Mg4TlPb,0.0,-0.027999,,2,3.0
SbGdHo,0.0,-0.0492586999999999,,2,3.0
Zn4TcTa,0.0873,-0.0261215,,2,3.0
Ca2Ag2Pb,0.0,-0.0320113,,2,3.0
F5ScSn,3.0205,-0.0130028,,2,3.0
O3KPa,3.1716,-0.0287136,,2,3.0
Li3YSb2,0.0,-0.0191596,,2,3.0
HO8Se2Cs3,3.8455,-0.0161903,,2,3.0
MgPd2La3,0.0,-0.0338894,,2,3.0
Ni4DyHg,0.0,-0.0304364,,2,3.0
C2Sc3Pb,0.0,-0.0237561,,2,3.0
MgCd2Ba2,0.0,-0.029207,,2,3.0