formula,bg,formation_energy,mp-id,fidelity,bg_category
O7Ti2Eu2,0.0,-0.0198321,,2,3.0
BCo4Er,0.0,-0.0214135,,2,3.0
PrTmPb2,0.0,-0.0623195,,2,3.0
Ga2PdCs,0.0,-0.0262095,,2,3.0
ScRh2Ta,0.0,-0.0378639,,2,3.0
Fe2Ni4Tm3,0.0,-0.0288456,,2,3.0
Be4MoTa,0.0,-0.0201033,,2,3.0
BrHg3,0.0,-0.0561637,,2,3.0
Al3Si2Tm3Re,0.0,-0.0306485999999999,,2,3.0
Li2N2Ce,1.23,-0.0147535,,2,3.0
RhLaPt2,0.0,-0.0551516,,2,3.0
CuPd2Pr3,0.0,-0.0356912,,2,3.0
Sr2LaTl,0.0,-0.0402852,,2,3.0
SSe2La,0.0,-0.0247596,,2,3.0
Li4CaSr,0.0,-0.0069277,,2,3.0
Li2NaPb2,0.0,-0.0324565,,2,3.0
LiCu2As2Tb,0.0,-0.0207853,,2,3.0
CaPd2In2,0.0,-0.0290255,,2,3.0
O6ScSr2Ta,3.3944,-0.0197807999999999,,2,3.0
CoSn3Ce,0.0,-0.0343203,,2,3.0
Na3SI,2.4615,-0.0130728,,2,3.0
CrHf2Ir,0.0,-0.0543688,,2,3.0
SiBr3Nd3,0.0,-0.0299464,,2,3.0
Ga3Pd2Ba,0.0,-0.0263955,,2,3.0
Sc3Rh2Cd,0.0,-0.0243602,,2,3.0
Ge2NdPu,0.0,-0.0484249999999999,,2,3.0
NaMgSe2Rb,1.8773,-0.0153416,,2,3.0
Sc3FeCo2,0.0,-0.0160985,,2,3.0
N3CrSr3,0.0,-0.0171913,,2,3.0
B2N3Cu2Sm3,0.0,-0.0218053,,2,3.0
Cu2Tm,0.0,-0.0277387,,2,3.0
H2SrBa2,0.0,-0.0219826,,2,3.0
ZnPdSb,0.0,-0.0282617,,2,3.0
CrFeRu,0.0,-0.0236165,,2,3.0
PrAu5,0.0,-0.0654269,,2,3.0
Zn4ZrRe,0.0,-0.0262513,,2,3.0
Li4Cu,0.0,-0.0049286,,2,3.0
NiTcPt2,0.0,-0.0481063,,2,3.0
Al3Si2CrEr3,0.0,-0.0242832,,2,3.0
F7As2Rb,4.7644,-0.0109742,,2,3.0
B4RuDy,0.0,-0.0194363,,2,3.0
O4ScBrBi2,1.3897,-0.0289424,,2,3.0
O4YZr,0.8253,-0.0173753,,2,3.0
O3Te,1.3191,-0.014936,,2,3.0
Cs9Fe2Se7,0.512999999999999,-1.103992413655712,mp-1201016,2,3.0
O4CuDy2,0.0,-0.0224008,,2,3.0
HZr3Pb,0.0,-0.0346982,,2,3.0
S8Mo6Sn,0.0,-0.0221835999999999,,2,3.0
Ni2Sn2La,0.0,-0.0300675,,2,3.0
S2BrHgBi,0.7493,-0.0374134,,2,3.0
BeScGe,0.0,-0.013222,,2,3.0
Al2Cd2Eu,0.0,-0.0255336,,2,3.0
Al3Si2Ho3Pt,0.0,-0.0299406,,2,3.0
O7Zr2Dy2,4.3053,-0.0219841,,2,3.0
Ag2Tb2Tl,0.0,-0.0461291999999999,,2,3.0
K2BaHg2,0.0,-0.0388213,,2,3.0
N2Ho7Pb3,0.0,-0.0501745,,2,3.0
ZnPd2Pr,0.0,-0.0313617,,2,3.0
Mg3SrAg2,0.0,-0.0169074,,2,3.0
Sc3Mo4,0.0,-0.0260248,,2,3.0
BTaPt,0.0,-0.0488605,,2,3.0
Na3KGe,0.0,-0.0080243,,2,3.0
Ti2Ni3,0.0,-0.0165759,,2,3.0
AlNi2Nb2,0.0,-0.0216068,,2,3.0
Tm3Ir2Hg,0.0,-0.0619836,,2,3.0
B2O6CrGe,0.6839,-0.0111952,,2,3.0
Al2EuPt3,0.0,-0.0479282,,2,3.0
Cd2In,0.0,-0.0313592,,2,3.0
SiCl2Ca3,0.0,-0.0106952,,2,3.0
CaPtPb2,0.0,-0.0584827,,2,3.0
NaCu3Te2,0.102,-0.0209919,,2,3.0
B2N4U3,0.0,-0.041478,,2,3.0
SeYSn,0.0,-0.0293333,,2,3.0
Ga2TcHf2,0.0,-0.039243,,2,3.0
Mg6BaLa,0.0,-0.0140767,,2,3.0
GaSnBa,0.0,-0.0312145,,2,3.0
Si2Sc3NiGa3,0.0,-0.0149528,,2,3.0
Li2Sr2Pb,0.0,-0.0253478,,2,3.0
CuY6Tl2,0.0,-0.036711,,2,3.0
BeNi2Ru,0.0,-0.0180381,,2,3.0
Tc3Ir,0.0,-0.044311,,2,3.0
LiZn2,0.0,-0.0100311,,2,3.0
NaTbTl2,0.0,-0.049338,,2,3.0
CaCd4La,0.0,-0.0294863,,2,3.0
ZnAg2Lu3,0.0,-0.0408078999999999,,2,3.0
Na2KAg2,0.0,-0.0158613,,2,3.0
AsBaAu,0.0,-0.0440854,,2,3.0
CdPb2Pu,0.0,-0.0729659,,2,3.0
MgSb,0.0,-0.0213802999999999,,2,3.0
PAs2,0.4978,-0.0168652,,2,3.0
F6NbCd,0.0,-0.0133774,,2,3.0
Zn2PbTh2,0.0,-0.0592996,,2,3.0
CSi2Cr2Tm2,0.0,-0.0249747,,2,3.0
Na2Zn2In,0.0,-0.0138134,,2,3.0
Al6YPd,0.0,-0.0139037,,2,3.0
CN2BrNd,3.2427,-0.0196017,,2,3.0
F2Cr,0.5856,-0.0111989,,2,3.0
Ni3Se4Ta,0.0,-0.0248718,,2,3.0
Cu2PmTm,0.0,-0.0318190999999999,,2,3.0
TcRh4,0.0,-0.0340948,,2,3.0
InHg2Pu,0.0,-0.0700805,,2,3.0
MgRu2Ta,0.0,-0.0357635,,2,3.0
Mg2Cd2La,0.0,-0.0231171,,2,3.0
NaSbCs2,0.5536,-0.0297716999999999,,2,3.0
CuIn5La,0.0,-0.0325211,,2,3.0
Be2TcW,0.0,-0.0285956,,2,3.0
SiRuTb,0.0,-0.0314419,,2,3.0
OK2As2Tb2,0.0,-0.0241036,,2,3.0
Si2In3Sm3Pt,0.0,-0.0367819999999999,,2,3.0
S2RbRu,0.0,-0.0194350999999999,,2,3.0
RhCeBi,0.1153,-0.0532198,,2,3.0
BGa2Ru2Np,0.0,-0.0364947,,2,3.0
O7Si2NbLa,0.0,-0.0157526,,2,3.0
Ru2CdNp,0.0,-0.0517371,,2,3.0
RuPdNd2,0.0,-0.0391862,,2,3.0
FeAs2Th6,0.0,-0.0710322,,2,3.0
AsBr2Au,1.0158,-0.0323403,,2,3.0
K2BaHg,0.0,-0.0313434,,2,3.0
Ca2Hg,0.0,-0.029729,,2,3.0
AlSrCd2,0.0,-0.02303,,2,3.0
YAg2Ho,0.0,-0.0352954999999999,,2,3.0
F8Sc2Sr,5.5927,-0.0114038,,2,3.0
BaTlPb,0.0,-0.063187,,2,3.0
O6TiCrTa,0.3839,-0.0183957,,2,3.0
S3ScRbAg,0.0,-0.0171208999999999,,2,3.0
CuSe8Sm5,0.8791,-0.0302716,,2,3.0
Mg2Rh2La,0.0,-0.024727,,2,3.0
Si4Ho3Pt4,0.0,-0.0438223,,2,3.0
Ag2In7Pr3,0.0,-0.036016,,2,3.0
As3Pb5,0.0,-0.0548353,,2,3.0
SPb,0.1546,-0.0432706999999999,,2,3.0
SiS4Zn2,2.9356,-0.0116519,,2,3.0
SSnPr,0.0,-0.0311646,,2,3.0
SeRhLa,0.0,-0.0337539,,2,3.0
H5Sr2Ir,0.6155,-0.0173336,,2,3.0
Fe2CoW,0.0,-0.0306421,,2,3.0
Al7Y3Ag2,0.0,-0.017245,,2,3.0
As2Cd2Er,0.0,-0.0308344999999999,,2,3.0
Sn2Hf6Pt,0.0,-0.0581925,,2,3.0
Al2ZnDy,0.0,-0.0196201,,2,3.0
Ni2RuDy3,0.0,-0.0355418,,2,3.0
CSi2Lu2Os2,0.0,-0.0414377,,2,3.0
Al2ScAg,0.0,-0.0157209,,2,3.0
P2HgTl,0.0,-0.0402874,,2,3.0
Ni2Zr2Sb,0.0,-0.0268618999999999,,2,3.0
Ni5Zn4Ge,0.0,-0.0156044,,2,3.0
Sc3Co,0.0,-0.0151964,,2,3.0
NaCd2Pt2,0.0,-0.04146,,2,3.0
Ni2Te2Cs,0.0,-0.029369,,2,3.0
NiCuDy2,0.0,-0.0320905,,2,3.0
Li2PCa,0.0,-0.0070242,,2,3.0
S4SnTePb4,0.119,-0.0419536,,2,3.0
Al3Os2Au,0.0,-0.0400264,,2,3.0
H8Fe3Tb,0.0,-0.0108471,,2,3.0
MgCaSr,0.0,-0.0123331999999999,,2,3.0
P2S7RbSn,0.0,-0.0137056,,2,3.0
Cd2EuTb,0.0,-0.0407185,,2,3.0
Na2ZnSb2,0.0,-0.0195767,,2,3.0
MgGePm2,0.0,-0.0284169,,2,3.0
Al5PdDy,0.0,-0.0176454999999999,,2,3.0
Pt4HgTh,0.0,-0.0750648999999999,,2,3.0
B2MnMo2,0.0,-0.0210795,,2,3.0
Ni4YIn,0.0,-0.0213532,,2,3.0
SiInIr2,0.0,-0.0468466,,2,3.0
CsTi8O16,0.0,-3.4063096354528732,mp-867522,2,3.0
O6Ga2Te,0.9819,-0.0135979,,2,3.0
PdCdPt2,0.0,-0.051119,,2,3.0
Ca2Pd2Sb,0.0,-0.0252428,,2,3.0
Ni2InBa,0.0,-0.0264788,,2,3.0
O5TiHo2,3.0151,-0.0218414,,2,3.0
F6Rb2RuAg,0.0,-0.0150856,,2,3.0
ZrRh2Ir,0.0,-0.0431644,,2,3.0
Nb2Pt,0.0,-0.046076,,2,3.0
ZnYPt,0.0,-0.0383366,,2,3.0
MoTa2Os,0.0,-0.060481,,2,3.0
TiZnPd,0.0,-0.0213114999999999,,2,3.0
CTePr2,0.0,-0.0343766999999999,,2,3.0
Mg2SrPd,0.0,-0.0167703,,2,3.0
LiLa,0.0,-0.0227047999999999,,2,3.0
Co2HgTh2,0.0,-0.0591398,,2,3.0
Cr4ZrNb,0.0,-0.0229019,,2,3.0
Mn2RuRh,0.0,-0.0266322,,2,3.0
Al2Pr2Tl,0.0,-0.0353809,,2,3.0
Ge2Pd2Er,0.0,-0.0316825,,2,3.0
Li2MgI4,3.3377,-0.0236316,,2,3.0
PNi2Pd,0.0,-0.0193648999999999,,2,3.0
PdTb2,0.0,-0.0428266,,2,3.0
Cd2SmTm,0.0,-0.0396959,,2,3.0
Li2SnCe,0.0,-0.021754,,2,3.0
O8Fe4CuZn,0.0,-0.0122485,,2,3.0
CaGeI,0.0,-0.0229213999999999,,2,3.0
FeTl2Th6,0.0,-0.082188,,2,3.0
F6SrRe,1.6569,-0.0172525,,2,3.0
CoGa,0.0,-0.01702,,2,3.0
N4Ca3Fe2,0.0,-0.0120868,,2,3.0
Si2FeNd2,0.0,-0.0255649,,2,3.0
MgLa7,0.0,-0.0383709,,2,3.0
Na2AlAu2,0.0,-0.0313261,,2,3.0
Si4CuPt2,0.0,-0.0283895,,2,3.0
Zn2HoTm,0.0,-0.0323952,,2,3.0
NaRhTl2,0.0,-0.0457394,,2,3.0
Mg2BiAc,0.0,-0.0448999999999999,,2,3.0
Mo5Rh3,0.0,-0.0345101,,2,3.0
LiBe5,0.0,-0.0039804,,2,3.0
Cu4Se3Tl,0.0,-0.0243712,,2,3.0
LiMg4Si2,0.0,-0.006144,,2,3.0
LiPdCdIn,0.0,-0.0252375,,2,3.0
B2Al2Cr3,0.0,-0.0126288,,2,3.0
Mg2Cd2Tl,0.0,-0.0286932,,2,3.0
F3Ti,0.0,-0.0102226,,2,3.0
Ni2CdEr2,0.0,-0.0331647,,2,3.0
O2AlAu,0.7237,-0.0244625999999999,,2,3.0
H2MoHf2,0.0,-0.0337709,,2,3.0
F6KRb2La,6.0493,-0.014897,,2,3.0
CuSe3YSn,0.9006,-0.0242351,,2,3.0
As2ReTh6,0.0,-0.0769465,,2,3.0
OF5ZrInCs2,3.1927,-0.0194482,,2,3.0
O6MgSm2Ir,0.0,-0.0229813,,2,3.0
CaCo4Ge6,0.0,-0.0179,,2,3.0
ZrHg2,0.0,-0.0559131,,2,3.0
B2O6SrU,0.0,-0.0208386,,2,3.0
SiTmIr,0.0,-0.0455713,,2,3.0
ScYOs,0.0,-0.0384088,,2,3.0
HoPb3,0.0,-0.0694655999999999,,2,3.0
SbHg2Tl,0.0,-0.0614637,,2,3.0
Ga2CsPt,0.0,-0.0357089,,2,3.0
Cu5Th,0.0,-0.0287822,,2,3.0
H4ErPt,0.0,-0.0229152,,2,3.0
Al3Fe2Er,0.0,-0.0186508,,2,3.0
MnAsCs,0.0,-0.0258194,,2,3.0
Ga4SrIr,0.0,-0.0270404,,2,3.0
Li2O8Cr3Sb,0.0,-0.0128169,,2,3.0
O4S2Cu2Bi2Np,0.0,-0.0321945,,2,3.0
Cd3CsPt,0.0,-0.0401486,,2,3.0
Ni2Zn3La,0.0,-0.0196986,,2,3.0
La5Pt,0.0,-0.0480471,,2,3.0
CoRhDy2,0.0,-0.0372633,,2,3.0
Ru2CdDy2,0.0,-0.0395059,,2,3.0
AlCaZn,0.0,-0.0106601,,2,3.0
P2Cu4U,0.0,-0.0267238,,2,3.0
PNiPt2,0.0,-0.042031,,2,3.0
Fe2ZnPa,0.0,-0.0374266,,2,3.0
LiBr6Cs2Bi,2.8553,-0.0288106,,2,3.0
AlZnTh,0.0,-0.0394418,,2,3.0
ZrPd8,0.0,-0.0330023,,2,3.0
PCl2Zn2,2.1834,-0.0114849999999999,,2,3.0
SiSe3Pd,0.9511,-0.0210659999999999,,2,3.0
CSiNdOs2,0.0,-0.0420565,,2,3.0
H4LiO5SeCs,4.4882,-0.0101550999999999,,2,3.0
Cu5Pm,0.0,-0.0201874,,2,3.0
AuBi2U,0.0,-0.0824653,,2,3.0
P2Y2Cd,0.0,-0.0225945,,2,3.0
SnIrPa,0.0,-0.0696536,,2,3.0
O4ZrNd,0.0,-0.019833,,2,3.0
Te3Cs2Hf,0.7625,-0.0428356,,2,3.0
Br3Er,4.0946,-0.0292423,,2,3.0
Cu2SeTe,0.0,-0.0220292,,2,3.0
Al2Tm3Hg,0.0,-0.0403508,,2,3.0
MnCoPt2,0.0,-0.0444354,,2,3.0
Be2SiTc2,0.0,-0.0183096999999999,,2,3.0
S8KMo6,0.0,-0.0204947,,2,3.0
MgZnSr2,0.0,-0.0158861,,2,3.0
Cu3Se2,0.0,-0.0173101,,2,3.0
O5S2Zr2Ho2,1.9992,-0.0224354,,2,3.0
MnNi2Pd,0.0,-0.0211284999999999,,2,3.0
Ru2Ir,0.0,-0.0469951,,2,3.0
S8Ti3MnCu2,0.0,-0.0136172,,2,3.0
Y2CdHg,0.0,-0.0392044,,2,3.0
BrTeDy,1.1327,-0.0365987,,2,3.0
ZnAs2Sn,0.0,-0.0226579,,2,3.0
O4Se3Dy4,1.1022,-0.0282589,,2,3.0
PCdTl,0.1196,-0.0377377,,2,3.0
Se3Au,0.0,-0.0323125,,2,3.0
ZnBa2Pt,0.0,-0.0412958,,2,3.0
H5BNCl,5.4987,-0.0057743,,2,3.0
AlRh2Er2,0.0,-0.036289,,2,3.0
CaHg2Pu,0.0,-0.0643229,,2,3.0
Ga2Cd2Eu,0.0,-0.0298981,,2,3.0
AgIn2Ho,0.0,-0.0372100999999999,,2,3.0
RuTb2,0.0,-0.0432038999999999,,2,3.0
Sc2Ag2La,0.0,-0.0270376,,2,3.0
FeRbZrTe3,0.0,-0.0310309,,2,3.0
Nb2Rh2Hg,0.0,-0.0407125,,2,3.0
N2ZrNd,0.0,-0.0250626,,2,3.0
NiSe2Ag,0.0,-0.0221240999999999,,2,3.0
S4Cu2ZnPb,0.0,-0.0202039,,2,3.0
Fe3Tb2,0.0,-0.0295343,,2,3.0
LiSe2Pd,0.0,-0.0194724,,2,3.0
CdSnLa,0.0,-0.0371795,,2,3.0
Cu3Y2,0.0,-0.0205364,,2,3.0
CGe2Mo2Sm2,0.0,-0.0301818999999999,,2,3.0
N3TiNd,0.0,-0.0188339,,2,3.0
H2BO7NaSi2,4.3093,-0.0086702999999999,,2,3.0
S4Ag2InBa,0.0,-0.0226601,,2,3.0
NiCuLu,0.0,-0.0292398,,2,3.0
NaCdBa2,0.0,-0.0285962,,2,3.0
ClYLa3,0.0,-0.0336755,,2,3.0
N2Sn3Ba7,0.0,-0.0342764,,2,3.0
AlNi2Zr,0.0,-0.0183672,,2,3.0
LiSr2Te,0.0,-0.0219335999999999,,2,3.0
O6Sr2InOs,0.2274,-0.0208716,,2,3.0
In8Pb,0.0,-0.0380301,,2,3.0
NFZr,2.1104,-0.0173632999999999,,2,3.0
Cl6CuRb2,0.0,-0.0127841,,2,3.0
Ca4Ir,0.0,-0.0221674,,2,3.0
N2Br2Pb,2.4652,-0.0270688,,2,3.0
NiGaPu,0.0,-0.0478064,,2,3.0
Sc5Hg3,0.0,-0.034959,,2,3.0
Al3Si2RhPu3,0.0,-0.0457519,,2,3.0
Si3CaRu,0.0,-0.0153968,,2,3.0
Cd3Pr,0.0,-0.0340245,,2,3.0
GeZr2Ir2,0.0,-0.0455475,,2,3.0
PdHoPt2,0.0,-0.0566551,,2,3.0
O5Al2Ca2,3.5927,-0.0106819,,2,3.0
Al2Cl8Cu,0.5975,-0.0100001999999999,,2,3.0
Al4CaRu,0.0,-0.0130984,,2,3.0
ClCu2Te,0.0,-0.0191823,,2,3.0
MgCd2Ho,0.0,-0.0291108,,2,3.0
MnSe4Tl3,0.0,-0.0398569,,2,3.0
Br3Tb,3.8453,-0.0283553,,2,3.0
O6TiNiBa2,0.0828,-0.0174102,,2,3.0
RhPdLa2,0.0,-0.0389769,,2,3.0
Rh7Pb,0.0,-0.0389384,,2,3.0
H6Er2Os,0.0,-0.0220107,,2,3.0
AlScGa5,0.0,-0.0150585,,2,3.0
Sn3Ce3Ir2,0.0,-0.048805,,2,3.0
Ni4MoRe,0.0,-0.0284421,,2,3.0
Na2Ge2Au,0.0,-0.0234744,,2,3.0
Pd2CdDy,0.0,-0.0367223,,2,3.0
AlZrRu2,0.0,-0.0278587,,2,3.0
Se4Ag2CdSn,0.0,-0.0264792999999999,,2,3.0
BO2Na,4.1335,-0.0084913,,2,3.0
Ge2CsAu2,0.0,-0.0431043,,2,3.0
LaTmTl2,0.0,-0.0604679,,2,3.0
Li3O8CrCu4,0.0,-0.0099642,,2,3.0
NMnCo3,0.0,-0.0160903,,2,3.0
CaSn2Au,0.0,-0.0382345,,2,3.0
B4Mn5Er2,0.0,-0.0206048,,2,3.0
Ti3Te,0.0,-0.0217358,,2,3.0
H6Sc2Re,0.0,-0.0139121,,2,3.0
NaGe2Au2,0.0,-0.0364038,,2,3.0
Al2ZnY,0.0,-0.0146476,,2,3.0
ONa2As2Hf2,0.0,-0.0271422,,2,3.0
Y2LaTl2,0.0,-0.0492569999999999,,2,3.0
Si2CaRu2,0.0,-0.0206672,,2,3.0
NiGa5Nd,0.0,-0.0207235,,2,3.0
Cu2Sn2Ba,0.0,-0.0287556,,2,3.0
MgAlSr,0.0,-0.0118202,,2,3.0
F6K2Y,0.0,-0.0105954,,2,3.0
CaInTe2,0.0,-0.0304217,,2,3.0
GeDyPt,0.0,-0.0470653,,2,3.0
SeSb,0.0,-0.0288553,,2,3.0
Al10Ru2Ce,0.0,-0.0153418,,2,3.0
O10Ti3Ag2La2,1.5418,-0.0182002,,2,3.0
Al3Sn2Ce3Au,0.0,-0.0337586,,2,3.0
Nb2Cd,0.0,-0.032199,,2,3.0
P2Ge,0.0,-0.0131905,,2,3.0
Ge2Ru3Dy,0.0,-0.0322638,,2,3.0
Ni3Tm2,0.0,-0.0309401,,2,3.0
Fe6As4Er,0.0,-0.0221263,,2,3.0
Al2ZnTc,0.0,-0.016446,,2,3.0
N2NdSm,0.0,-0.0283585,,2,3.0
FeSbIr,0.0,-0.0424087999999999,,2,3.0
S2SrHg,2.07,-0.0286955999999999,,2,3.0
SePbTh,0.0,-0.0651358,,2,3.0
KBaPt4,0.0,-0.0553864,,2,3.0
InTmAu,0.0,-0.0524196,,2,3.0
HO4PPb,3.4593,-0.0182986,,2,3.0
Al4NdIr,0.0,-0.0250923,,2,3.0
O2Y2Pb,0.0,-0.0316534,,2,3.0
Co3GeEr2,0.0,-0.0289695999999999,,2,3.0
Mg2RhTb,0.0,-0.0231806,,2,3.0
ClSe,1.8478,-0.0142552,,2,3.0
LiTaAu2,0.0,-0.0522307,,2,3.0
Li2O6TiCo2,1.0642,-0.0106266,,2,3.0
Mn2TcIr,0.0,-0.0360841,,2,3.0
N2Ca7Tl3,0.0,-0.0260935,,2,3.0
Ge3HfTh,0.0,-0.0437966,,2,3.0
Al4Nb2La,0.0,-0.0204532999999999,,2,3.0
CuErPb,0.0,-0.0477079,,2,3.0
Co2In3Pr3,0.0,-0.0334502,,2,3.0
NClTb,1.1813,-0.0232613999999999,,2,3.0
CuGa5Th,0.0,-0.0278736,,2,3.0
NiAs2Gd,0.0,-0.0297853,,2,3.0
Al2Zr6Pt,0.0,-0.0305744,,2,3.0
ScY2Sn2,0.0,-0.029186,,2,3.0
CoNiZr2,0.0,-0.0241202,,2,3.0
MgZn2Ru,0.0,-0.0168653,,2,3.0
SnTaIr,0.9429,-0.0585831999999999,,2,3.0
ZnSm3Pt2,0.0,-0.0488832,,2,3.0
H8O14P2V2Co,0.4738,-0.0087754999999999,,2,3.0
Mg2Ga2Ba,0.0,-0.0168207999999999,,2,3.0
CAlHf2,0.0,-0.0365637,,2,3.0
Sr2AgAu2,0.0,-0.043566,,2,3.0
H4CoEr,0.0,-0.0140899,,2,3.0
CuTaPt,0.0,-0.0511616,,2,3.0
CaNi2Cu,0.0,-0.014368,,2,3.0
F4AgCs2,0.0302,-0.0195996,,2,3.0
B3O10Ca4Gd,3.6207,-0.0133569,,2,3.0
Fe4CoZr,0.0,-0.0201485,,2,3.0
PI2Pu2,0.0,-0.0618513,,2,3.0
F7Ca2Y,6.7472,-0.0114219,,2,3.0
As3Tc2,0.0,-0.0264899,,2,3.0
O4Na2FeNi,0.0,-0.0099999,,2,3.0
O6As2Sr,3.4622,-0.0130681,,2,3.0
Zn3Ag2,0.0,-0.0206741,,2,3.0
NiAsTa,0.0,-0.0347803,,2,3.0
BAl2TbOs2,0.0,-0.0362302,,2,3.0
Te3Np,0.0,-0.0551583,,2,3.0
OSm3Tl,0.0,-0.0439715,,2,3.0
In2Th,0.0,-0.0546409,,2,3.0
Sc2Ge2Hf,0.0,-0.0266332,,2,3.0
O7NaNb2La,1.4144,-0.0172574,,2,3.0
Li2RhHg,0.0,-0.0269686999999999,,2,3.0
CoZr2Tl,0.0,-0.0380146,,2,3.0
LiC2O4Ag,2.5122,-0.0111229,,2,3.0
NTc3Pt,0.0,-0.0370538,,2,3.0
Ti6MnGa2,0.0,-0.0166908,,2,3.0
Al4Ge4Th3,0.0,-0.0363341,,2,3.0
Si2Fe3Sm,0.0,-0.0203519,,2,3.0
Ru2LuHf,0.0,-0.0477351,,2,3.0
SnPr2,0.0,-0.0415677999999999,,2,3.0
CaSe3RbAu,0.0,-0.0276986,,2,3.0
Al7Cu2Np3,0.0,-0.0339051,,2,3.0
Se2Br6Rh,0.0,-0.0213866,,2,3.0
Sr3Pd2In3,0.0,-0.0296558,,2,3.0
O7KLaTa2,2.2029,-0.0239378,,2,3.0
PPdPa,0.0,-0.0485844999999999,,2,3.0
O6CoZnPr2,0.0,-0.0180577,,2,3.0
NiSn3Nd,0.0,-0.0340863,,2,3.0
H12N4F4Si,5.11,-0.0060409,,2,3.0
H2LiNO3,2.7266,-0.0063501,,2,3.0
CdLuPt2,0.0,-0.0575576999999999,,2,3.0
ZnAgPm2,0.0,-0.0335664,,2,3.0
AlClTh,0.0,-0.0383875,,2,3.0
F6SmPu,0.0,-0.0258563,,2,3.0
Zr2MoOs,0.0,-0.0423949,,2,3.0
Y,0.0,-0.0278428,,2,3.0
Ce3Pb,0.0,-0.0528166,,2,3.0
Tm2Bi,0.0,-0.0613569,,2,3.0
Al3Ti2Pt,0.0,-0.0217655,,2,3.0
Sr2SnBi2,0.0,-0.0482248,,2,3.0
CoAs2Pr,0.0,-0.0261471,,2,3.0
Sr3In3Pt2,0.0,-0.0391407,,2,3.0
BeAl2Mn,0.0,-0.0097515,,2,3.0
Ge3Nd2Pt,0.0,-0.0368135,,2,3.0
CaCdBa,0.0,-0.0268156,,2,3.0
Al2NiIr,0.0,-0.026674,,2,3.0
CdSnCs2,0.2047,-0.0357928,,2,3.0
O5F2Ba3Tl2,0.0,-0.0273896,,2,3.0
Ga3LaPt,0.0,-0.03336,,2,3.0
Na3Ge4Pd4,0.0,-0.0205003,,2,3.0
SrPb,0.0,-0.0498024,,2,3.0
CoGeMo,0.0,-0.0238752,,2,3.0
F6DyLu,7.2748,-0.0199071,,2,3.0
O6CrBa2W,0.0,-0.0232185,,2,3.0
CO3F2MnBa,2.0139,-0.0143636,,2,3.0
BRh3In,0.0,-0.0288647,,2,3.0
Li2SiOs,0.0,-0.0219089,,2,3.0
O6EuBi2,0.0,-0.0290134,,2,3.0
Al3Ge2Pr3Au,0.0,-0.0297561,,2,3.0
Zr2TcAu,0.0,-0.042073,,2,3.0
P2Ag2Ba,0.0,-0.0251018,,2,3.0
Al2Cl8Au,0.3991,-0.0147845999999999,,2,3.0
O6SbBa2Eu,0.0,-0.0234475,,2,3.0
FeNi4Pa,0.0,-0.0306627,,2,3.0
Al3Ni2Th,0.0,-0.025927,,2,3.0
CIGd,0.0,-0.0361588,,2,3.0
LiNiGd2,0.0,-0.0340959999999999,,2,3.0
O7Ni2As2,0.3227,-0.0118946,,2,3.0
GaSb3U2,0.0,-0.0559778,,2,3.0
H3GdIr,0.0,-0.0287551,,2,3.0
CSc3Te,0.0,-0.0187444999999999,,2,3.0
CdHf3Re2,0.0,-0.0605176,,2,3.0
Si2YTc,0.0,-0.0213767999999999,,2,3.0
Cu2ZrHf2,0.0,-0.0374072,,2,3.0
PrNdHg2,0.0,-0.0564898999999999,,2,3.0
KSe2Zr,0.0,-0.0213304,,2,3.0
O6MnBa2Dy,0.0,-0.021123,,2,3.0
SiDyTa,0.0,-0.0420889,,2,3.0
NaS2MnCs,0.8874,-0.0171383,,2,3.0
Cl2Nd2Bi,0.0,-0.0381122,,2,3.0
O4BrInSb2,0.7422,-0.0204447,,2,3.0
NiGa3Sn2Ho3,0.0,-0.0322558,,2,3.0
CaGa5Rh,0.0,-0.0184087,,2,3.0
Li2I3Cs,4.0183,-0.0269272,,2,3.0
NiCu2Pr,0.0,-0.022623,,2,3.0
CuZnBa2,0.0,-0.0270259,,2,3.0
Al9Tb2Ir3,0.0,-0.0279185,,2,3.0
S2BaEu,0.0,-0.0304257,,2,3.0
ScRh2Tb,0.0,-0.0331618,,2,3.0
B2RuEr,0.0,-0.0257224,,2,3.0
Li2MgTl2,0.0,-0.0311612,,2,3.0
O3Nd2,3.8239,-0.0248504,,2,3.0
O4CuRu,0.0,-0.0132443,,2,3.0
Co7Ir,0.0,-0.0240199,,2,3.0
C2CrCe,0.0,-0.0209478,,2,3.0
Pd4BaHg,0.0,-0.0401462999999999,,2,3.0
Ni2CeIr3,0.0,-0.0489123999999999,,2,3.0
O6ScSr2Hf,0.0,-0.0192705,,2,3.0
ZrSn2Hf2,0.0,-0.0460338,,2,3.0
Sc3Rh2Os,0.0,-0.0313276,,2,3.0
CuRh2Tm,0.0,-0.0342086,,2,3.0
PdPt2Pb4,0.0,-0.0682703,,2,3.0
NaMnSe2Cs,0.8346,-0.02127,,2,3.0
Li3B2O6Mn,1.153,-0.0089199999999999,,2,3.0
O6NiNbBa2,0.0,-0.0191765,,2,3.0
N2PU2,0.0,-0.0486216,,2,3.0
NaPFe,0.0,-0.0113483,,2,3.0
In6PtBi2,0.0,-0.0476399,,2,3.0
GaGeSr,0.0,-0.019828,,2,3.0
GeCe2Au,0.0,-0.0451162,,2,3.0
Li3O8Cr3Mn,0.072,-0.0111518,,2,3.0
Sb2Er6W,0.0,-0.0501207,,2,3.0
In5Ba5Tl,0.0,-0.0402936,,2,3.0
KGeSb,0.2906,-0.0218643,,2,3.0
S7Pr5,0.0,-0.0260118,,2,3.0
B2Mn2Tm,0.0,-0.0210723,,2,3.0
CaZn3,0.0,-0.0128299,,2,3.0
MgTiIr2,0.0176,-0.0417948,,2,3.0
TiFe2Ni,0.0,-0.0173386,,2,3.0
N6V2Nd3,0.0,-0.0216819,,2,3.0
RhLaHg,0.0,-0.0490641,,2,3.0
PCaLa2,0.0,-0.0273921,,2,3.0
FeLa2Ir2,0.0,-0.0499756,,2,3.0
Be2Pd2In,0.0,-0.0220292,,2,3.0
AsTe,0.0,-0.0286953,,2,3.0
KGaTe2,0.5382,-0.0255682,,2,3.0
PRb2Au,0.7816,-0.0308617999999999,,2,3.0
SiY2Rh3,0.0,-0.0289131,,2,3.0
MnHf2Re,0.0,-0.0540115,,2,3.0
AlGa2,0.0,-0.0134291,,2,3.0
PZn2Ac,0.0,-0.0325463,,2,3.0
ScPdCd,0.0,-0.0265432,,2,3.0
BeCu,0.0,-0.0099984,,2,3.0
TiSnBi,0.0,-0.0437446,,2,3.0
Si2Cu4Y3,0.0,-0.0187733,,2,3.0
Ni2ZnHo3,0.0,-0.0325736,,2,3.0
Li2CaGe2Cd2,0.0,-0.0165942,,2,3.0
HNSc2,0.0,-0.0116017,,2,3.0
Zn3SrIr,0.0,-0.0272014,,2,3.0
LiScPt,0.0,-0.0298281,,2,3.0
Ge2Sn2Ba3,0.0,-0.0333001,,2,3.0
Ni5Sb,0.0,-0.0197167,,2,3.0
Mo2Ta,0.0,-0.0456354,,2,3.0
Li3O4Nb,0.9754,-0.0106667,,2,3.0
ErLuBi,0.0,-0.0620321,,2,3.0
CaRh2Cd2,0.0,-0.0278555999999999,,2,3.0
Al6NbMo,0.0,-0.0147072,,2,3.0
GePdPt2,0.0,-0.04845,,2,3.0
Li2InHg,0.0,-0.027041,,2,3.0
B4Tb2Os5,0.0,-0.0443241999999999,,2,3.0
Li4O8Cr3Fe,0.0,-0.0106584,,2,3.0
PKSe3Ag,0.7188,-0.0189354,,2,3.0
Ga3U,0.0,-0.038308,,2,3.0
K3Br2,0.0,-0.0143051999999999,,2,3.0
SeNd,0.0,-0.0338877,,2,3.0
MgTcHf2,0.0,-0.0415569,,2,3.0
C2Sc3,0.0,-0.0131678,,2,3.0
Zr(TeCl)6,1.013199999999999,-1.077863917692307,mp-31304,2,3.0
Co2InHf2,0.0,-0.0390118999999999,,2,3.0
TiNi2Hf,0.0,-0.0281672,,2,3.0
Ge2PdIn3Er3,0.0,-0.0365623999999999,,2,3.0
AsNbRu,0.2639,-0.0300308,,2,3.0
BeTi2Zn,0.0,-0.0126591,,2,3.0
Fe2IHo2,0.0,-0.0346802,,2,3.0
F3CsHg,0.5009,-0.0254282,,2,3.0
Ni2Cu3Lu,0.0,-0.0224915999999999,,2,3.0
LaPb8,0.0,-0.0723165,,2,3.0
Pt7Pb,0.0,-0.0708443999999999,,2,3.0
S2Se2TaTl3,1.7121,-0.0435904,,2,3.0
OZnLaBi,0.0,-0.037186,,2,3.0
Ge2AgHo,0.0,-0.0300791,,2,3.0
C2O6CaNi,1.3617,-0.0103042999999999,,2,3.0
Ru5Ir,0.0,-0.0409241,,2,3.0
O4SmBi,0.6014,-0.0267572,,2,3.0
P2Pt3,0.0,-0.0467782,,2,3.0
LiP2Ni2Ba,0.0,-0.0166185,,2,3.0
ClAgBa2,0.0,-0.0307387,,2,3.0
OSm3Pb,0.0,-0.044668,,2,3.0
Cl6KZrCs2,0.0,-0.0183842,,2,3.0
RuPt4,0.0,-0.0631089,,2,3.0
ScOs,0.0,-0.0435233,,2,3.0
NaSRb,2.3543,-0.0127998,,2,3.0
S3CrAs,0.0,-0.0139566999999999,,2,3.0
Mg2Si2Pt,0.0,-0.0206311,,2,3.0
Zn2MoAg,0.0,-0.0232831,,2,3.0
O6GaSr2Zr,0.0,-0.0157955,,2,3.0
N2DyLu,0.0,-0.0325278,,2,3.0
Rh2NdPu,0.0,-0.0558563,,2,3.0
InSbPt,0.0,-0.0474672,,2,3.0
Fe2InSm,0.0,-0.0287644,,2,3.0
B4FeTm,0.0,-0.0172826,,2,3.0
NiIn2Au,0.0,-0.0381711,,2,3.0
SiRu3Tm2,0.0,-0.037036,,2,3.0
TeIPt,0.0,-0.0484494,,2,3.0
Pd2LaEu,0.0,-0.0413715,,2,3.0
O6Eu2DyHf,0.0,-0.0291207,,2,3.0
GaSmIr,0.0,-0.0449424,,2,3.0
Al8Mo3,0.0,-0.0155318,,2,3.0
Fe4YSm,0.0,-0.0240976,,2,3.0
B6Ru2Nd,0.0,-0.0179932,,2,3.0
Br3U,0.0,-0.0417612,,2,3.0
RhCdSn2,0.0,-0.0342653,,2,3.0
LiNi2As2Nd,0.0,-0.02066,,2,3.0
NaCuSe3Sm,0.0,-0.0219241999999999,,2,3.0
BFe4Pr,0.0,-0.0206417,,2,3.0
Be2O3Na2,4.3018,-0.0074712,,2,3.0
RhTmBi2,0.0,-0.0612792,,2,3.0
H3MnRh,0.0,-0.0126468,,2,3.0
Ti2Zn2Sn,0.0,-0.0193102,,2,3.0
SnPrAu2,0.0,-0.0552421,,2,3.0
Mn3Sn4,0.0,-0.0283212,,2,3.0
LiCd2Ce,0.0,-0.0271923,,2,3.0
SiKIn,0.1328,-0.017321,,2,3.0
Si2Ho2Ir,0.0,-0.0388889,,2,3.0
MgAg4Pb,0.0,-0.0343783999999999,,2,3.0
ScMoRu2,0.0,-0.0299894,,2,3.0
BeBr2Au,0.0,-0.0284208,,2,3.0
Mg2TlTh2,0.0,-0.0548588,,2,3.0
AsIrNp,0.0,-0.0666143,,2,3.0
Al5Co2Lu,0.0,-0.0165244,,2,3.0
O5CoCuYBa,0.0,-0.0168438,,2,3.0
BCFeDy,0.0,-0.0212974,,2,3.0
MnTe2Hf6,0.0,-0.0525106,,2,3.0
MnIr,0.0,-0.0451719,,2,3.0
Ni3Cu2Pu,0.0,-0.0314906,,2,3.0
Ca2RuLa,0.0,-0.0243411,,2,3.0
Mo2Ta5,0.0,-0.0576308,,2,3.0
Cl6Cs3Ce,0.0,-0.0228782,,2,3.0
MgPbTh,0.0,-0.0592727,,2,3.0