formula,bg,formation_energy,mp-id,fidelity,bg_category
RbCdSb,0.0835,-0.0299542,,2,3.0
TcCe,0.0,-0.039767,,2,3.0
O10Ti2RbNbLa2,1.6336,-0.0179722,,2,3.0
LiAl2Au,0.0,-0.0223264,,2,3.0
SbAu5,0.0,-0.0637926,,2,3.0
ScBr4Rb2,0.0,-0.0208935,,2,3.0
F6YCd,0.0,-0.0128602,,2,3.0
F7K3Tm,0.471,-0.0124751999999999,,2,3.0
CaSe3TbAu,0.9743,-0.0325625,,2,3.0
S3KCuZr,0.5281,-0.0153339,,2,3.0
OInHo3,0.0,-0.0389349,,2,3.0
P2ScNi2,0.0,-0.0144814,,2,3.0
LiPdSn2,0.0,-0.0270996999999999,,2,3.0
LiRu2Sn2,0.0,-0.0288906,,2,3.0
Li2F8SrNb,0.9894,-0.0108056,,2,3.0
RhTbAu2,0.0,-0.0555262,,2,3.0
O5Se2Zr2Ce2,0.0,-0.0234139,,2,3.0
GeSmPt,0.0,-0.0459035999999999,,2,3.0
CGe2W2Th2,0.0,-0.0546119,,2,3.0
CdBa2Bi2,0.0052,-0.0542154,,2,3.0
CoGaNb,0.0,-0.0225718,,2,3.0
CrGe3La,0.0,-0.0242987,,2,3.0
Al5Mn2Ho,0.0,-0.0159634,,2,3.0
Cl4Ni,0.3103,-0.0100650999999999,,2,3.0
OAsRuNp,0.0,-0.0435989,,2,3.0
ZnPt,0.0,-0.0424778,,2,3.0
Al3FeGe2Er3,0.0,-0.0263375,,2,3.0
Pd5Bi3,0.0,-0.0501261,,2,3.0
O4GeTb,0.0,-0.0175914,,2,3.0
S2Cu2ZnSe2Sn,0.0224,-0.0178715,,2,3.0
MnAs2Lu6,0.0,-0.0441377,,2,3.0
LiS2ZnCs,2.618,-0.0159153,,2,3.0
CuTm2Ir,0.0,-0.0483012,,2,3.0
Zn3Pd2Er,0.0,-0.0267499,,2,3.0
NiZn2,0.0,-0.0145805,,2,3.0
ScMn2Ga4,0.0,-0.0170424,,2,3.0
HCaBr2Rb,2.9322,-0.0161693,,2,3.0
Li2Ag2Bi,0.0,-0.0294297,,2,3.0
F2Zn,3.3542,-0.0093645,,2,3.0
AlPmAu2,0.0,-0.0483593,,2,3.0
Ta2WRe,0.0,-0.0688323,,2,3.0
NCa3Cu,0.0,-0.0111808999999999,,2,3.0
O6RuBa2Er,0.0,-0.0229484,,2,3.0
La2AuPb,0.0,-0.0586881,,2,3.0
O7Sr3Ru2,0.0,-0.017261,,2,3.0
LiI3Pb,1.1217,-0.0382487,,2,3.0
Si2NiBa,0.0,-0.0194179999999999,,2,3.0
SiS,0.7339,-0.0103056,,2,3.0
SCrAs,0.0,-0.0164691,,2,3.0
Li2GaNd,0.0,-0.0164922,,2,3.0
RbAgHg3,0.0,-0.0514529,,2,3.0
B6Mn2Pa,0.0,-0.0206969,,2,3.0
CuSb2,0.0,-0.0298568,,2,3.0
MgSeAg2,0.0,-0.0223199,,2,3.0
F6CuCs3,0.9027,-0.0175229,,2,3.0
AsSeNd,0.0,-0.0295953,,2,3.0
Si2CrNb2,0.0,-0.0214746,,2,3.0
CdSm2Ir2,0.0,-0.0530758999999999,,2,3.0
MgZr5,0.0,-0.0263782,,2,3.0
ZrCdAu2,0.0,-0.0504883999999999,,2,3.0
Sr2Pd3In,0.0,-0.0300679,,2,3.0
CuHo2Pt2,0.0,-0.0518855,,2,3.0
TbHf5,0.0,-0.0599666,,2,3.0
OPCdHo,0.6212,-0.0259264,,2,3.0
N3Ba3Os,0.0,-0.0318551,,2,3.0
Li3O8Mn3Co,0.0,-0.0107058999999999,,2,3.0
Cu2HoTm,0.0,-0.0331402,,2,3.0
GeSe4Hf,0.461,-0.0278535,,2,3.0
Zn2Ba,0.0,-0.0224006,,2,3.0
TiFeGaRu,0.0,-0.0218468,,2,3.0
LaIrTl,0.0,-0.0627865,,2,3.0
Si2Cu4Dy3,0.0,-0.0254129,,2,3.0
CoGaNbRu,0.0,-0.02583,,2,3.0
Mg2ZrSb,0.0,-0.0198142,,2,3.0
Na3NdBi2,0.2431,-0.0361627,,2,3.0
Ge2Re,0.0,-0.036436,,2,3.0
ScGaRu2,0.0,-0.025547,,2,3.0
Dy2Au5F21,1.5532,-2.231789578511904,mp-1213210,2,3.0
MgRuPr,0.0,-0.0278896,,2,3.0
O6FeRuLa2,0.0,-0.020218,,2,3.0
SbAu5Pb,0.0,-0.0654893,,2,3.0
AlMn2Pa2,0.0,-0.0488606,,2,3.0
OSeNd,0.2385,-0.0260664,,2,3.0
Al3Cu2Ru,0.0,-0.0153262,,2,3.0
Fe5Pa,0.0,-0.031715,,2,3.0
Si2CaRe,0.0,-0.0255949,,2,3.0
OCe3Tl,0.0,-0.0439004,,2,3.0
LiCdTe2Cs,1.5348,-0.0300406,,2,3.0
O6Si2FeZn,0.1259,-0.0112934,,2,3.0
N2ScCe,0.0,-0.0212197,,2,3.0
CoZn2Th,0.0,-0.0352744,,2,3.0
SiIr,0.0,-0.0413343,,2,3.0
I2Pu,0.0,-0.0621751,,2,3.0
RhBiPu,0.0,-0.0744891999999999,,2,3.0
Cl3Ga,4.09,-0.0112689,,2,3.0
F5FeRb2,0.8104,-0.0124957,,2,3.0
Cl3Sc2,0.6371,-0.0124406,,2,3.0
Na2KHg2,0.0,-0.030884,,2,3.0
Si2GaPr2,0.0,-0.0252665,,2,3.0
FeRh2Pt,0.0,-0.0392379,,2,3.0
ZnAgSm2,0.0,-0.0338027,,2,3.0
InNdPt4,0.0,-0.0605319,,2,3.0
I2Tb2Pb,0.0,-0.0497806,,2,3.0
Pd2Hf2Hg,0.0,-0.0524568,,2,3.0
InPt2Th,0.0,-0.0685324,,2,3.0
LiBr,4.8106,-0.0126343999999999,,2,3.0
Na2TiSe3,0.6003,-0.0154271,,2,3.0
Zn2InSm,0.0,-0.0266691,,2,3.0
MgAl3Ge2Er3,0.0,-0.0247171999999999,,2,3.0
YRu2Gd,0.0,-0.0393841,,2,3.0
OFLa,4.273,-0.0218111,,2,3.0
MnGe,0.0,-0.0189297,,2,3.0
ClTeGd,0.2044,-0.0366165,,2,3.0
Mn5Co3,0.0,-0.0178526,,2,3.0
CrI2,0.0,-0.0311345,,2,3.0
S6Cd3In2,0.2472,-0.020286,,2,3.0
O4AsIn,1.441,-0.0146488,,2,3.0
Rh2CdPt,0.0,-0.0421246999999999,,2,3.0
B2SmOs3,0.0,-0.0461974,,2,3.0
B2CNi2Sr,0.0,-0.0135329,,2,3.0
ZnYRh,0.0,-0.025841,,2,3.0
AlFe2Au,0.0,-0.0286289,,2,3.0
Li3O10V3Cr2,0.0,-0.0112832,,2,3.0
B5Ru3Ho2,0.0,-0.0245528,,2,3.0
CaAg2Cd,0.0,-0.0259498999999999,,2,3.0
Mg3BaAu,0.0,-0.025161,,2,3.0
Cl6Rb3Th,0.0804,-0.0227258,,2,3.0
PrBiTh,0.0,-0.0733391,,2,3.0
O2BrSnSb,1.1107,-0.0222185,,2,3.0
Cl3CaGa,3.4364,-0.0118406,,2,3.0
Ho3Tm,0.0,-0.0496946,,2,3.0
C4CoHo3,0.0,-0.0259301,,2,3.0
CdTh2,0.0,-0.0741274,,2,3.0
ScHf,0.0,-0.0384219,,2,3.0
AlGePd5,0.0,-0.0279003,,2,3.0
O4UPu,0.0,-0.0431929999999999,,2,3.0
CaSr2Au,0.0,-0.0313149,,2,3.0
AlHf6Pb2,0.0,-0.0597382,,2,3.0
NdOs2,0.0,-0.0626379,,2,3.0
In2HgBi2,0.0,-0.0583453,,2,3.0
AsPd6,0.0,-0.0312406,,2,3.0
NZr3Pt,0.0,-0.0357872,,2,3.0
IrNp2,0.0,-0.0952017,,2,3.0
O4EuPa,0.0,-0.0334017,,2,3.0
AlZnIr2,0.0,-0.0416131999999999,,2,3.0
AlAgNd2,0.0,-0.0318932,,2,3.0
O2MgClAs,3.6084,-0.0109788,,2,3.0
CuGa5Ho,0.0,-0.0212322,,2,3.0
H2KSr2,0.0,-0.0122935,,2,3.0
HCZr2,0.0,-0.0195626,,2,3.0
O6NbBa2Er,2.9778,-0.0233629,,2,3.0
Li3O8Cr5,0.0,-0.0116151,,2,3.0
BNNdIr,0.0,-0.0341546,,2,3.0
LiCuLa2,0.0,-0.0260065,,2,3.0
HAlSiSm,0.0,-0.0168986,,2,3.0
AlHfOs,0.0,-0.0481666,,2,3.0
O6MgRhEr2,0.0,-0.0205014,,2,3.0
CBr5Nd4,0.0,-0.0298147,,2,3.0
B12Pr,0.0,-0.0104271,,2,3.0
K2Se3Nb,0.0,-0.0195118,,2,3.0
Cs2Pt3,0.0,-0.0573952,,2,3.0
N2MgFe,0.0,-0.0108018,,2,3.0
O4CuBi,0.0626,-0.0203951,,2,3.0
AlAg2I4,0.0,-0.0312581,,2,3.0
Si3LuOs,0.0,-0.0320287,,2,3.0
ZnTb2Pt,0.0,-0.0452547,,2,3.0
Si4Mn4Hf3,0.0,-0.0280424,,2,3.0
NiSn2Er6,0.0,-0.0438808999999999,,2,3.0
Mn2GeSe4,0.0,-0.0200539,,2,3.0
Ge2RuLa6,0.0,-0.037442,,2,3.0
AlNi4Ce,0.0,-0.0200017,,2,3.0
SSbI,1.5062,-0.0281727999999999,,2,3.0
VNi3,0.0,-0.0167395,,2,3.0
RbTl3,0.0,-0.059622,,2,3.0
Al2Tb3Pb3,0.0,-0.0484808,,2,3.0
O6RuPdBa2,0.0,-0.020209,,2,3.0
Ga4SmIr,0.0,-0.0308458,,2,3.0
I6Cs2Pt,0.3509,-0.0416315,,2,3.0
PdLu,0.0,-0.0451421,,2,3.0
F6RbPdCs2,0.5115,-0.0174901,,2,3.0
CrFe,0.0,-0.018225,,2,3.0
MgSiLa,0.0,-0.0199283,,2,3.0
LiAlGe,0.0,-0.0100802999999999,,2,3.0
Cl6Rb2AgPt,0.0,-0.0203286,,2,3.0
WIr5,0.0,-0.0710372,,2,3.0
P3Zn4Rb,0.111,-0.0136148,,2,3.0
Cl4CoCu,0.0,-0.0114659999999999,,2,3.0
Al2Ag3,0.0,-0.0220182,,2,3.0
Ni2ZnRu,0.0,-0.0201846,,2,3.0
LiHfIr2,0.0,-0.0526458999999999,,2,3.0
Ge2Pd2Th,0.0,-0.0408288999999999,,2,3.0
Al3Ge2RuLa3,0.0,-0.0258426,,2,3.0
Co3RuPr2,0.0,-0.0287692,,2,3.0
PdBiTh,0.0,-0.0698867,,2,3.0
O7Si2Cr2,0.9682,-0.0118734,,2,3.0
YCdTl,0.0,-0.0440731,,2,3.0
Li2YHg,0.0,-0.0255608,,2,3.0
NiHfIr2,0.0,-0.0560895,,2,3.0
GaTbIr,0.0,-0.0457734,,2,3.0
LiO7P2As,4.2355,-0.0100531,,2,3.0
Cl3KMn,0.9127,-0.011946,,2,3.0
Al4Nb2Er,0.0,-0.0215497,,2,3.0
Co2GaTh2,0.0,-0.0488870999999999,,2,3.0
Co7Tc6,0.0,-0.0254175,,2,3.0
NaMgHg2,0.0,-0.0367008999999999,,2,3.0
Zn2Ge2Eu,0.0,-0.0242315,,2,3.0
MgPdTm,0.0,-0.0306561,,2,3.0
Al2RhEr6,0.0,-0.0394818,,2,3.0
F4CoCs2,0.0,-0.0179,,2,3.0
InDyAu,0.0,-0.0510886,,2,3.0
SeIDy,2.0423,-0.0367383,,2,3.0
BMn4Dy,0.0,-0.021665,,2,3.0
GeTmAu2,0.0,-0.0531216999999999,,2,3.0
RuTa2W,0.0,-0.0597817,,2,3.0
Co3Ge2Eu,0.0,-0.024232,,2,3.0
CuZn2Pt,0.0,-0.0285163,,2,3.0
LiO6Ba2W,0.0,-0.0214468999999999,,2,3.0
NiSe3BaHo,0.0,-0.0291681,,2,3.0
Ge2Y2Pb,0.0,-0.0347289,,2,3.0
Ti2AsI2,0.0,-0.0260116,,2,3.0
YSb2,0.0,-0.0349511,,2,3.0
Al3Ti2Ru,0.0,-0.0156016,,2,3.0
Ag2PmTl,0.0,-0.0450806,,2,3.0
MgAgAu,0.0,-0.0355854,,2,3.0
Rh2TmTl,0.0,-0.0485914,,2,3.0
S3CrCsSm,0.0,-0.0232411,,2,3.0
Ag2CdTm2,0.0,-0.0397325,,2,3.0
O2NaPr,3.2159,-0.0178748,,2,3.0
H2LiCa2,0.0,-0.0060872,,2,3.0
Al5NdPt,0.0,-0.0225156,,2,3.0
Si3Mn4Co4Ge,0.0,-0.0164356,,2,3.0
MgP2K4,0.5585,-0.0089004,,2,3.0
ZnAgPt2,0.0,-0.0465995,,2,3.0
TmIrPb,0.0,-0.0669628,,2,3.0
Ga6ErIr,0.0,-0.0279368,,2,3.0
ScI4Cs2,0.0,-0.0353057,,2,3.0
Al3Hf,0.0,-0.0218814999999999,,2,3.0
FeInLa3,0.0,-0.0364037,,2,3.0
LiCuI4,0.0,-0.0278365,,2,3.0
GaEr2Ir,0.0,-0.0479230999999999,,2,3.0
O8AgBaW2,0.0,-0.0238229,,2,3.0
N3K5Pt3,0.0,-0.0258506,,2,3.0
TiNbTc2,0.0,-0.0303614,,2,3.0
P2Ba3,0.1495,-0.0290320999999999,,2,3.0
Al2RhPd,0.0,-0.0216317,,2,3.0
Sr5Mg,0.0,0.029785862500001,mp-1094372,2,3.0
CdBa2,0.0,-0.0367899,,2,3.0
AlSe2Sn,0.0,-0.0215503,,2,3.0
LiSr2Pd2,0.0,-0.0229697,,2,3.0
Ti2NbTl,0.0,-0.0344825999999999,,2,3.0
FeGeNp,0.0,-0.0481418,,2,3.0
LiPrPb,0.0,-0.0412572,,2,3.0
LiBNi3,0.0,-0.0117735,,2,3.0
Al2Pd3Gd,0.0,-0.0297654,,2,3.0
O4S2Cu2YBi2,0.0,-0.0250851,,2,3.0
GaPdDy,0.0,-0.0333226,,2,3.0
CSc2Cd,0.0,-0.0177805,,2,3.0
Ti2Co3Sn2,0.0,-0.0226668999999999,,2,3.0
Li2PdBi,0.0,-0.0296237,,2,3.0
O4NbBa,0.622,-0.0189149999999999,,2,3.0
NaCuSe,0.0261,-0.0138682,,2,3.0
H4O2NaCl,5.1359,-0.0060968,,2,3.0
Hf3Pt5,0.0,-0.0686664,,2,3.0
AlTb2Tl,0.0,-0.0438572,,2,3.0
GeSnTb,0.0,-0.0346271,,2,3.0
Ni3Zr2,0.0,-0.022434,,2,3.0
LiB2Tc2,0.0,-0.017878,,2,3.0
Al5MnY,0.0,-0.012474,,2,3.0
LiAs2Rh2Tm,0.0,-0.0280252,,2,3.0
F6Rb3Sb,4.3329,-0.0148156,,2,3.0
FeZr,0.0,-0.0245664,,2,3.0
SeSnDy,0.0,-0.0359366,,2,3.0
Al3Si2IrNp3,0.0,-0.0487064,,2,3.0
O4CaTm2,4.0775,-0.0235069,,2,3.0
F6AlRh,1.764,-0.01063,,2,3.0
Ge2Pd3Nd,0.0,-0.0308428,,2,3.0
NDy3Hg,0.0,-0.0452787999999999,,2,3.0
MnAsTc2,0.0,-0.0274360999999999,,2,3.0
NY3Rh,0.0,-0.0264685,,2,3.0
F6MnSn2,2.1572,-0.0148014,,2,3.0
LiCl6K2La,4.7713,-0.0133019,,2,3.0
FCs3Au,0.0,-0.0384972,,2,3.0
O6FePdPr2,0.0,-0.0199184,,2,3.0
GeHgPu,0.0,-0.0659357,,2,3.0
O6FeSr2PbBi,0.0,-0.0250621,,2,3.0
PNi3Cd2,0.0,-0.0201492,,2,3.0
CrAu7,0.0,-0.0628673,,2,3.0
NdLuBi,0.0,-0.0598992,,2,3.0
H4RhTm,0.0,-0.0171447,,2,3.0
O4AlV2,0.0,-0.0125382,,2,3.0
NDy2Pb,0.0,-0.0464789,,2,3.0
GeSrNd,0.0,-0.0288897,,2,3.0
O7Cu3Ba2La,0.0,-0.0182991999999999,,2,3.0
NS,0.0,-0.0093039,,2,3.0
Li2NCu,0.2349,-0.0076776,,2,3.0
AlSe3Cs2,0.0,-0.0251385,,2,3.0
OAs2Rb2Y2,0.0,-0.0222612999999999,,2,3.0
SrSn4,0.0,-0.0335336,,2,3.0
SiOs3Pa2,0.0,-0.0714265999999999,,2,3.0
In7SmPt2,0.0,-0.0423915999999999,,2,3.0
O6PdBa2Hf,1.149,-0.0238591,,2,3.0
CrMnFe2,0.0,-0.0182659999999999,,2,3.0
Co2Y2Cd,0.0,-0.0243143,,2,3.0
Se2Te,0.1035,-0.0258302,,2,3.0
LiSe2Rb,0.0,-0.0168735,,2,3.0
AlBa2Au,0.0,-0.0395264,,2,3.0
Si2CeNd,0.0,-0.0277707,,2,3.0
CoRuTb2,0.0,-0.0367040999999999,,2,3.0
Se2Ru,0.1523,-0.0255059,,2,3.0
GaPm2Au,0.0,-0.0441769,,2,3.0
Li6S2Bi,0.0,-0.0135856,,2,3.0
LiN2Mn,0.0,-0.0102948,,2,3.0
SCl2Nd2,0.0,-0.0248687,,2,3.0
Rh2Tb2Pb,0.0,-0.0482162,,2,3.0
Ni2SnAu,0.0,-0.0344005999999999,,2,3.0
Al3Ho2Au,0.0,-0.0324922,,2,3.0
CoZr6Pb2,0.0,-0.039612,,2,3.0
H8N2F6Ti,4.8113,-0.0066789,,2,3.0
LiKSe,2.587,-0.0116629,,2,3.0
BCo3Lu,0.0,-0.0232404,,2,3.0
SrCdBa,0.0,-0.0310289,,2,3.0
AlFe,0.0,-0.0132601,,2,3.0
FeCuPd2,0.0,-0.0249037,,2,3.0
RhITl3,0.0,-0.0578322,,2,3.0
Li2O2Pd,1.2139,-0.0115498999999999,,2,3.0
ScSn2La2,0.0,-0.0352986999999999,,2,3.0
Al4Nb2Eu,0.0,-0.0219065,,2,3.0
O7Cr2Y2,0.2275,-0.0153432999999999,,2,3.0
ZnAs2Ce,0.0,-0.025411,,2,3.0
CuRhLa2,0.0,-0.0343205,,2,3.0
LiRhEr2,0.0,-0.0348271999999999,,2,3.0
Ti6FeSe2,0.0,-0.0178284999999999,,2,3.0
FePt5Bi,0.0,-0.0641497999999999,,2,3.0
ZnIr,0.0,-0.0425336,,2,3.0
N2TiDy,0.0,-0.022491,,2,3.0
SiGd2Pt3,0.0,-0.0576252,,2,3.0
MgZn2Tb2,0.0,-0.0254549,,2,3.0
CSi2Fe2La2,0.0,-0.0223334,,2,3.0
SiNi2La2,0.0,-0.0262567999999999,,2,3.0
O2Na2FeRb,0.0,-0.0112467,,2,3.0
AlSeY2,0.0,-0.0220579,,2,3.0
Cd2HgBi,0.0,-0.0518239999999999,,2,3.0
Al3Ge2Pr3Ir,0.0,-0.0300807,,2,3.0
NaGa2Hg2,0.0,-0.0347605,,2,3.0
As2PdTm2,0.0,-0.0367684,,2,3.0
YZrIr4,0.0,-0.0580724,,2,3.0
LiNiRh2,0.0,-0.0215933,,2,3.0
Li2Si3Ce2,0.0,-0.0182841999999999,,2,3.0
NPdEr3,0.0,-0.0398294,,2,3.0
S6K2As2Pb,0.3605,-0.0179301,,2,3.0
S3SbTb4,0.0,-0.0335713,,2,3.0
O3SCs2,4.3122,-0.0192314,,2,3.0
Al5Ti2Nb,0.0,-0.0134242,,2,3.0
AlCo2Zr,0.0,-0.0188225,,2,3.0
CaZnPb2,0.0,-0.0439918,,2,3.0
Li2AlTl,0.0,-0.0214772,,2,3.0
NbSnLu,0.0,-0.0419923,,2,3.0
CoTe2Hf,0.0,-0.0391906,,2,3.0
Al3Sn2Dy3Os,0.0,-0.0352457,,2,3.0
Si7Co2Pr3,0.0,-0.020105,,2,3.0
NiAs2U,0.0,-0.0405807,,2,3.0
NaP2Ni2Tm,0.0,-0.0190587,,2,3.0
O6Sr2NdBi,1.8862,-0.0229669,,2,3.0
Ni2Te2Ba,0.0,-0.0299608,,2,3.0
Li5Mg,0.0,-0.0028449,,2,3.0
SeBr2Nd2,0.0,-0.0312302,,2,3.0
Ca2ZnIr,0.0,-0.0264072999999999,,2,3.0
RhCdTl2,0.0,-0.0522144,,2,3.0
NCa4In2,0.0,-0.0171993,,2,3.0
Si2Ti2Y,0.0,-0.0167086,,2,3.0
Ge2Pr3,0.0,-0.0344317,,2,3.0
Li2O8Ti3Mn,0.7062,-0.0115810999999999,,2,3.0
O3FScBa2,3.5226,-0.0200368,,2,3.0
AlFeHo,0.0,-0.0251985999999999,,2,3.0
CSi2Cr2La2,0.0,-0.0222759,,2,3.0
Si3TiNp,0.0,-0.0309162,,2,3.0
Te3Ta,0.0,-0.0447992,,2,3.0
C2SiTi3,0.0,-0.013964,,2,3.0
Zn3AsI3,1.4182,-0.0248858,,2,3.0
CaPb2,0.0,-0.0542662,,2,3.0
O4MgTi2,0.0,-0.0119593,,2,3.0
Cu2CdDy2,0.0,-0.0316484,,2,3.0
RbPdPb2,0.0,-0.0516041,,2,3.0
NInCe,0.0,-0.0301590999999999,,2,3.0
AlZnLu2,0.0,-0.0333977,,2,3.0
Co2In9Cs,0.0,-0.0311649999999999,,2,3.0
F6RbRh,0.0,-0.0114842,,2,3.0
O2SBr2,2.4511,-0.0128512,,2,3.0
Li5O8V4,0.0,-0.010154,,2,3.0
SiI2Ho2,0.0,-0.0375229,,2,3.0
EuP5O14,0.0,-2.695248182160714,mp-566534,2,3.0
O7Fe4BaEr,0.0,-0.0180409,,2,3.0
ClTeSm,0.2354,-0.0319172,,2,3.0
F6SiSn,4.7909,-0.0113011,,2,3.0
Mg3Cu2,0.0,-0.0091326,,2,3.0
Al2LuPt,0.0,-0.0364731,,2,3.0
ZnPd2Th,0.0,-0.044512,,2,3.0
F6K3Tb,6.362,-0.0128180999999999,,2,3.0
NaBr6Cs2Er,4.3574,-0.0267453,,2,3.0
RhOs2,0.0,-0.0591552999999999,,2,3.0
NaCu2Sb2Ba,0.0,-0.0252489999999999,,2,3.0
CoBrEr,0.0,-0.0300986,,2,3.0
F6AlGd,4.6234,-0.0149971999999999,,2,3.0
NOSi2Ca6,0.0,-0.010558,,2,3.0
Si3NiPu,0.0,-0.0317293,,2,3.0
KPtPb,0.0,-0.0517513999999999,,2,3.0
H4PdHo,0.0,-0.016433,,2,3.0
Fe2SrTe4,0.0,-0.0301319,,2,3.0
Al4RhTb,0.0,-0.0193803,,2,3.0
Te5Lu,0.0,-0.0408254,,2,3.0
Sc6GaSb2,0.0,-0.0203404999999999,,2,3.0
CInTb2,0.0,-0.0347382,,2,3.0
BPd2,0.0,-0.0246555,,2,3.0
RhLu2Pt,0.0,-0.0550073,,2,3.0
Li2SrAu2,0.0,-0.0337989,,2,3.0
S3CuRbSn,0.0,-0.0174491,,2,3.0
O4ZrBi,0.0,-0.0246301,,2,3.0
CuGa2Er,0.0,-0.0251627,,2,3.0
P2Co2Nd,0.0,-0.0207848,,2,3.0
GeZrTb,0.0,-0.0329415,,2,3.0
Rh2Tb3Tl3,0.0,-0.0538011,,2,3.0
CaGa2Pd,0.0,-0.0195347,,2,3.0
Al2RbSb2,0.0,-0.0224208,,2,3.0
CSc3In,0.0,-0.0180744,,2,3.0
SiCo2Y,0.0,-0.0186584,,2,3.0
MgSi2Tc2,0.0,-0.0194542,,2,3.0
Cl3Zr,0.0,-0.0156236,,2,3.0
LiCaSr2,0.0,-0.0141376,,2,3.0
CsW3Cl7,2.9160999999999992,-1.363157451332288,mp-1213572,2,3.0
ZnZrI,0.0,-0.0276645,,2,3.0
H3O3Ga,4.1347,-0.0079232,,2,3.0
O6TiTa2,0.0,-0.0237301,,2,3.0
NNi4,0.0,-0.0147021,,2,3.0
SiHfTa,0.0,-0.0470868,,2,3.0
Li2F8ScBa,0.0,-0.0106319999999999,,2,3.0
AlFe3Zr2,0.0,-0.0209493,,2,3.0
CaCuZn2,0.0,-0.013235,,2,3.0
Pm3Er,0.0,-0.0455608999999999,,2,3.0
FeCo3,0.0,-0.0176222,,2,3.0
O3ZnSn,1.2004,-0.015323,,2,3.0
I8BaNd2,2.0533,-0.0398342,,2,3.0
SiNbDy,0.0,-0.0309833,,2,3.0
H2AlSc2,0.0,-0.0092729,,2,3.0
CaCd4In,0.0,-0.0276167,,2,3.0
O6CaGeSe,2.7555,-0.0113324,,2,3.0
Sc2TcRu,0.0,-0.02499,,2,3.0
Ge3NbSm,0.0,-0.0275608,,2,3.0
MgSc2Zr,0.0,-0.0160784,,2,3.0
I6Ba2Eu,0.2309,-0.0411473,,2,3.0
Ca21(Zn2Sb9)2,0.6327,-1.008986715232552,mp-1194667,2,3.0
Al3Si2Sc3Pt,0.0,-0.0183533,,2,3.0
AlFe4Ta,0.0,-0.0247069,,2,3.0
GaCdCe2,0.0,-0.0343136,,2,3.0
LiSr2In2,0.0,-0.0231366,,2,3.0
FeGe3Nd,0.0,-0.0243053,,2,3.0
InBi,0.0,-0.0560339,,2,3.0
Ga2Rh3Ho,0.0,-0.0313473,,2,3.0
GaGdPt,0.0,-0.049644,,2,3.0
NCo2Se,0.0,-0.0159575,,2,3.0
LiGeIn,0.0,-0.018579,,2,3.0
Rh2Ho2Tl,0.0,-0.0483755,,2,3.0
ZnTe2Nd6,0.0,-0.0396124,,2,3.0
O2TeU2,0.0,-0.0536223,,2,3.0
SnEr,0.0,-0.0439294,,2,3.0
Se2SnHg,0.0389,-0.0362571,,2,3.0
MnCo3Se4,0.0,-0.0190201999999999,,2,3.0
C2O6FeSr,0.0377,-0.0115886,,2,3.0
CoRe5,0.0,-0.0621008,,2,3.0
Cu5Au,0.0,-0.0242321,,2,3.0
Cu2DyEr,0.0,-0.0324538,,2,3.0
F6PdAu,0.0,-0.0166076,,2,3.0
CaZnTl,0.0,-0.0322984999999999,,2,3.0
Sc3RuOs2,0.0,-0.0374027,,2,3.0
B2FeHf2,0.0,-0.0323601,,2,3.0
Se2Zr6Ru,0.0,-0.0296176,,2,3.0
I8Cs2Hg3,1.5997,-0.0449024,,2,3.0
Li2AgHg,0.0,-0.0264143,,2,3.0
Zn2YLu,0.0,-0.028001,,2,3.0
ClBrBa,4.9514,-0.0249669,,2,3.0
AsCe,0.0,-0.0339552,,2,3.0
B2CPd2Ce,0.0,-0.0230911,,2,3.0
O8CaAs2Ce,1.3714,-0.014388,,2,3.0
O8KAs3,2.4777,-0.0113032,,2,3.0
B2O6AlGa,4.9396,-0.0103171,,2,3.0
Ni5Zr,0.0,-0.0189189,,2,3.0
BO3Sm,4.4212,-0.017445,,2,3.0
As2PdHo6,0.0,-0.041686,,2,3.0
O6KIPb,1.5656,-0.0184217,,2,3.0
Si2PdLu2,0.0,-0.033676,,2,3.0
LiO6Na2Ni3,0.0,-0.0095906,,2,3.0
SbCsPb,0.0,-0.0507077,,2,3.0
Ge3SrAg,0.0,-0.0225203,,2,3.0
O4VSm,2.9151,-0.0177737,,2,3.0
NaNiBa3,0.0,-0.0277604,,2,3.0
Mn2Se2Rb,0.0,-0.0201252,,2,3.0
MgInNd2,0.0,-0.0318106,,2,3.0
NiIn5Ho,0.0,-0.0335219999999999,,2,3.0
Sb2LaPt2,0.0,-0.052686,,2,3.0
CaCuSe3Sr,0.0,-0.019391,,2,3.0
SrPdSn3,0.0,-0.0331991,,2,3.0
Se3InBi,0.6277,-0.0348881,,2,3.0
PCa2Ru,0.0,-0.0167774,,2,3.0
O7SrNb2Cs,0.0,-0.0181176,,2,3.0
Cl6AgCs2Dy,3.6085,-0.0223563,,2,3.0
Eu2AuPb,0.0,-0.0639132,,2,3.0
SeBrU,0.0,-0.0488623,,2,3.0
CrMnRh2,0.0,-0.0264427,,2,3.0
O3TeIBi,2.309,-0.0295415999999999,,2,3.0
NiBrGd,0.0,-0.0326278999999999,,2,3.0
Si2Fe3Ho,0.0,-0.0211193,,2,3.0
Cl3SnLa3,0.0,-0.0288334,,2,3.0
RbSn4,0.0,-0.0330504,,2,3.0
RhHoBi2,0.0,-0.060593,,2,3.0
LiSe2Mo,0.7804,-0.020218,,2,3.0
O6ScAgBa2,0.2936,-0.0184014,,2,3.0
OBr2,1.073,-0.0148715,,2,3.0
Al2Ge2Sm,0.0,-0.0201179999999999,,2,3.0
Al3Pd2Np,0.0,-0.0331955,,2,3.0
FeSe2Ru,0.0,-0.0234738,,2,3.0
F8Dy2Ho,0.0,-0.0199002,,2,3.0
OF5NaK2Zr,5.0101,-0.0108841,,2,3.0
Li2PtPb,0.0,-0.0382563999999999,,2,3.0
H3IEu2,0.0,-0.0267158,,2,3.0
NaCa2Pd2,0.0,-0.0183291,,2,3.0
YIn2Au2,0.0,-0.047262,,2,3.0
NaAlSe2,2.5054,-0.0142365,,2,3.0
FeCo2Ni,0.0,-0.0173045,,2,3.0
CuLu,0.0,-0.0356467,,2,3.0
MgNiIn2,0.0,-0.0221667999999999,,2,3.0
Ga3Ge2RuTh3,0.0,-0.0462078,,2,3.0
AlInPr,0.0,-0.0287249,,2,3.0
Mg3Ba5,0.0,-0.0265711,,2,3.0
Ga2RuEr6,0.0,-0.0415653999999999,,2,3.0
Sb4Cs5,0.0,-0.038111,,2,3.0
NGaNd3,0.0,-0.0322175,,2,3.0
Si6ScCo4,0.0,-0.013537,,2,3.0
CCr2Ge2Nd2,0.0,-0.0250989,,2,3.0
Sb2TmAu,0.0,-0.0495436,,2,3.0
O8S2KGa,4.6346,-0.0096736,,2,3.0
O6MnBa2Os,0.0,-0.0229127,,2,3.0
N2Se3Y4,1.2561,-0.0232603,,2,3.0
Si2Ir3Pu,0.0,-0.0580501,,2,3.0
Cl4AgIr,0.8731,-0.02296,,2,3.0
NbRuSb,0.3061,-0.0356777,,2,3.0
Si2MnHo,0.0,-0.0224346,,2,3.0
O4VLu,2.86,-0.0196224999999999,,2,3.0
Cu5Zn4,0.0,-0.0145232,,2,3.0
Ca2CdPb2,0.0,-0.0408156999999999,,2,3.0
O2NaCe,0.0,-0.0181986,,2,3.0
S6Rb2SnSb2,1.1564,-0.0197781,,2,3.0
Mg2ZnRu,0.0,-0.0147111,,2,3.0
O4BrSb2Er,0.5581,-0.0233155,,2,3.0
Li3O8Cr2Co2,0.0,-0.010628,,2,3.0
O6MgSr2U,2.2242,-0.0223356,,2,3.0
MgRh2Er2,0.0,-0.0355274,,2,3.0
CuPd2Au,0.0,-0.0375418999999999,,2,3.0
S3KCuNd,0.0,-0.0174072,,2,3.0
FeZrIr2,0.0,-0.0484131,,2,3.0
S3KMnEr,0.1005,-0.0194189,,2,3.0
LiO2FeRb,0.3751,-0.0123377,,2,3.0
Al2RhTa,0.0,-0.029772,,2,3.0
BAl2Mn2Gd,0.0,-0.0201319,,2,3.0
FeIn5Er,0.0,-0.0338713,,2,3.0
Ni2Nd,0.0,-0.0256029,,2,3.0
Sc2YPt,0.0,-0.0324323,,2,3.0
PTeHo,0.026,-0.033433,,2,3.0
CrGe3Th,0.0,-0.0347032,,2,3.0
O2KLa,3.7484,-0.0188883,,2,3.0
CsTlPb,0.0,-0.0622794,,2,3.0
CuGa2In,0.0,-0.0203006,,2,3.0
AlTiCuIr,0.0,-0.0283722,,2,3.0
EuHg2Bi,0.0,-0.0676817,,2,3.0
PdLaAu,0.0,-0.0492674,,2,3.0
Ni2PdTm3,0.0,-0.0374295,,2,3.0
H8N2Cl6Pd,1.2323,-0.008115,,2,3.0
AlGaPd2,0.0,-0.0232013,,2,3.0
Na2Sn2Cs,0.0,-0.0238296,,2,3.0
P2Co2Nb,0.0,-0.018398,,2,3.0
La2Tl,0.0,-0.0533646,,2,3.0
HCo3Sn,0.0,-0.0180766999999999,,2,3.0
CuTb3,0.0,-0.0389839,,2,3.0
ZnSm2Pt,0.0,-0.0440191,,2,3.0
SiFePu,0.0,-0.0463014,,2,3.0
O6CoSr2Pa,1.2947,-0.0229145,,2,3.0
MgCaSb,0.0,-0.0180909,,2,3.0
B4Ni2Mo,0.0,-0.0141292,,2,3.0
AsHoPt,0.0,-0.0478864,,2,3.0
LiCO7SBi,3.7349,-0.014688,,2,3.0
BaPt2Hg2,0.0,-0.0637664,,2,3.0
HAsPt2,0.0,-0.0411493,,2,3.0
As2PrIr2,0.0,-0.0461214,,2,3.0
CdTb2Ir2,0.0,-0.0539468,,2,3.0
As2Pd2Eu,0.0,-0.0328254,,2,3.0
CMn2Ge,0.0,-0.0166038,,2,3.0
MnCuSrTe3,0.0,-0.0287084,,2,3.0
B2O6NiPb,0.3,-0.0162828,,2,3.0
Cr2Ga4Ho,0.0,-0.0219143,,2,3.0
O8Mn4Cu,0.0,-0.0124111999999999,,2,3.0
NaCl6K2Np,0.0607,-0.0195613,,2,3.0
In2ErAu,0.0,-0.047223,,2,3.0
Fe5Zn3,0.0,-0.0164521,,2,3.0
In3Sn2Nd3Ir,0.0,-0.0423563,,2,3.0
Ca2Sb,0.0,-0.0198294,,2,3.0
As2PdNp,0.0,-0.045561,,2,3.0
Si2YIr,0.0,-0.0308191999999999,,2,3.0
Zn2RuEr3,0.0,-0.035994,,2,3.0
LiSc2Cu2,0.0,-0.0124424,,2,3.0
GeSe3In4,0.0,-0.0269485,,2,3.0
Mg4Ru,0.0,-0.010978,,2,3.0
Sb2Tl,0.0,-0.048896,,2,3.0
Ti2GaRe,0.0,-0.0304369,,2,3.0
Be5Sc,0.0,-0.0061928,,2,3.0
KCu2As2Nd,0.0,-0.0212260999999999,,2,3.0
Cr2RuIr,0.0,-0.0357535,,2,3.0
AsI2Tm2,0.0,-0.0410225,,2,3.0
ZnRh2Ce2,0.0,-0.0347896,,2,3.0
P2MnLu6,0.0,-0.0419778,,2,3.0
MnCo2Th2,0.0,-0.0491013,,2,3.0
Tm3Hg2,0.0,-0.058966,,2,3.0
SeTeLa2,0.0,-0.0378689,,2,3.0
S2KTa,0.7949,-0.0248214,,2,3.0
S2TiHg,0.0,-0.026928,,2,3.0
Ni6As2Ba,0.0,-0.0199867,,2,3.0
F6CdIn,0.0,-0.0127426,,2,3.0
AlTiZn,0.0,-0.0128335,,2,3.0
As2La,0.033,-0.0290382,,2,3.0
CuAgAu2,0.0,-0.0463124,,2,3.0
AlTiCuRu,0.0,-0.0190788,,2,3.0
O6AlNbBa2,2.8367,-0.0189022,,2,3.0