formula,bg,formation_energy,mp-id,fidelity,bg_category
H3PtTl,0.0,-0.0304715999999999,,2,3.0
Zn3Tb2,0.0,-0.0271914,,2,3.0
FeCo3Nb2,0.0,-0.0227664,,2,3.0
NiAu,0.0,-0.0425962,,2,3.0
CaSnNd,0.0,-0.0303938999999999,,2,3.0
ScPdSb,0.2892,-0.0293104,,2,3.0
BNSmOs,0.0,-0.0343286,,2,3.0
CoIn5Pu,0.0,-0.0421582,,2,3.0
LiO12NbTe2W,1.9615,-0.0167302,,2,3.0
CrGa5Zr,0.0,-0.0190533,,2,3.0
AlCu2Pu,0.0,-0.037076,,2,3.0
Sc3Rh2Pt,0.0,-0.0313321,,2,3.0
S2ErTl,1.3373,-0.0371693,,2,3.0
NBr4Re,0.2509,-0.026536,,2,3.0
SiLuAu2,0.0,-0.0517303,,2,3.0
Li4O12SbTe3,0.0,-0.0131888,,2,3.0
B2Co2Nd,0.0,-0.0190784,,2,3.0
MgEr3Os2,0.0,-0.0503230999999999,,2,3.0
F3NiAg,0.5591,-0.0134506,,2,3.0
MgRh2Cd,0.0,-0.0260246,,2,3.0
S2BrIr,0.6192,-0.027789,,2,3.0
CaIrBi2,0.0,-0.0598586,,2,3.0
Al4SrBa,0.0,-0.0156903,,2,3.0
Ga3Er2Ir2,0.0,-0.0426603,,2,3.0
ZnY5,0.0,-0.0255737999999999,,2,3.0
Al4FeZr,0.0,-0.0136821,,2,3.0
Li3O6Fe2,0.0521,-0.0091472,,2,3.0
PCa3Sr,0.0,-0.0128601,,2,3.0
MgLuTl2,0.0,-0.0515712,,2,3.0
Cd2Cs,0.0,-0.0329249,,2,3.0
O6CoNiEr2,0.0,-0.0197765,,2,3.0
Al5GaSr5,0.0,-0.0154197,,2,3.0
Te2Ho3,0.0,-0.0453159,,2,3.0
Cr2Ta,0.0,-0.0345317,,2,3.0
In3Pr3Ir2,0.0,-0.0472161,,2,3.0
OCl4TaTl,2.0416,-0.0270097999999999,,2,3.0
YSmAu2,0.0,-0.0537268,,2,3.0
Ru2CeU,0.0,-0.0546486,,2,3.0
Al6Re,0.0,-0.0170484,,2,3.0
OS2As2,0.8489,-0.0136544,,2,3.0
CFe2Sn2Ho2,0.0,-0.0312576,,2,3.0
DyAu2Hg,0.0,-0.0643028,,2,3.0
C4FeTb3,0.0,-0.0251386,,2,3.0
Mg2GeRu,0.0,-0.0163031,,2,3.0
Na3CsPb,0.0,-0.0254447,,2,3.0
FeHfPt2,0.0,-0.0562844,,2,3.0
ZnSr2Rh2,0.0,-0.0255058,,2,3.0
LiHgTl2,0.0,-0.0539961,,2,3.0
H8N2Cl6Pt,1.5716,-0.0103461,,2,3.0
NiCd2Tb,0.0,-0.0312931,,2,3.0
RhTb6Tl2,0.0,-0.0515515,,2,3.0
GeHoPt2,0.0,-0.0533369,,2,3.0
Ni2GaEr2,0.0,-0.0305387999999999,,2,3.0
Sc3MnGa3Ge2,0.0,-0.0171321,,2,3.0
Al5Pd2Tb,0.0,-0.0196881,,2,3.0
MnRh2Th,0.0,-0.0461849,,2,3.0
H5RuEr2,0.0,-0.0197082,,2,3.0
CLu2Bi,0.0,-0.0505959999999999,,2,3.0
Ga4Ge2Tb3,0.0,-0.0277871999999999,,2,3.0
F3ClAsRb,4.3165,-0.0121578,,2,3.0
LiSiY2,0.0,-0.0174343,,2,3.0
O4K3Pt,0.1315,-0.0162846,,2,3.0
SiGa5Ba5,0.0,-0.0267865,,2,3.0
Si3TiGd,0.0,-0.0215752,,2,3.0
F6RuPr,0.0,-0.0154098,,2,3.0
Cu3Rh2Pr,0.0,-0.0263292,,2,3.0
O8Cr3FeZn2,0.0,-0.0128838,,2,3.0
Li2CuSr,0.0,-0.0105458,,2,3.0
Si2Ru2In,0.0,-0.0250546,,2,3.0
Cd2InCe2,0.0,-0.0370384,,2,3.0
CoGeTa,1.2197,-0.0348789,,2,3.0
KCu2As2La,0.0,-0.0211627,,2,3.0
Li2O4CrCu,0.0,-0.0098025,,2,3.0
Co8Rh,0.0,-0.0191184,,2,3.0
LiSr3Au,0.0,-0.0280442,,2,3.0
S6Ti3Co,0.0,-0.0136769,,2,3.0
O3RhLa,0.6672,-0.0215576,,2,3.0
AsYMo,0.0,-0.0283269,,2,3.0
AlRhEu,0.0,-0.0324724,,2,3.0
KSr3Ag,0.0,-0.0213919999999999,,2,3.0
CdHgPb,0.0,-0.0580762,,2,3.0
AsHfIr,0.0,-0.0524491999999999,,2,3.0
Ge2Pd3Cs,0.0,-0.0294883999999999,,2,3.0
Al6LaIr,0.0,-0.0207418,,2,3.0
FeTe2Tm6,0.0,-0.0454708,,2,3.0
PAu,0.0,-0.0399508,,2,3.0
Al6Fe6Er,0.0,-0.0162568,,2,3.0
NiGa2Hf6,0.0,-0.0476548,,2,3.0
TiGeEr,0.0,-0.0292693,,2,3.0
Li2Ca2Sr,0.0,-0.0092594,,2,3.0
O4Na5La,1.8945,-0.0108217,,2,3.0
F6NaK2Bi,4.76,-0.014783,,2,3.0
H6Ba2Au,0.0,-0.0191052,,2,3.0
Hf3Os2Au,0.0,-0.0676368,,2,3.0
O7ClCuLaTa2,0.0,-0.0230206,,2,3.0
H3SrPt,1.3035,-0.021257,,2,3.0
Zn2BaIr,0.0,-0.0347477,,2,3.0
Al5ErPt,0.0,-0.0235009,,2,3.0
MgMnGe,0.0,-0.0144177,,2,3.0
O6Ca3Te,3.4604,-0.0130037,,2,3.0
Ga6LaIr,0.0,-0.0271697999999999,,2,3.0
Al3Fe,0.0,-0.0106097999999999,,2,3.0
RhAgAc2,0.0,-0.0619495,,2,3.0
LiMgRhSb,0.0,-0.0202614,,2,3.0
NaGaSe2,1.7336,-0.0161494,,2,3.0
C2BrTm2,0.0,-0.0295842999999999,,2,3.0
HGaGeSr,0.3725,-0.0158498,,2,3.0
OBrLa,3.5975,-0.0262412,,2,3.0
Rh2CdSb,0.0,-0.0340563999999999,,2,3.0
NbRu8,0.0,-0.0345897,,2,3.0
Al2ScPt,0.0,-0.0261853,,2,3.0
SrAu,0.0,-0.0466604,,2,3.0
GeSrCe,0.0,-0.0291877,,2,3.0
CuGa3Tm2,0.0,-0.028686,,2,3.0
CaGa2La,0.0,-0.0219508,,2,3.0
INdOs,0.0,-0.0516632,,2,3.0
AlTb6Bi2,0.0,-0.0500745,,2,3.0
Ag2Ho,0.0,-0.0376146,,2,3.0
FeSb2Tm,0.0,-0.0365676,,2,3.0
Sb3Au5,0.0,-0.0571703,,2,3.0
InNd2Pt2,0.0,-0.0533796,,2,3.0
O4FeSb,0.0,-0.0149208999999999,,2,3.0
NbRh2Ir,0.0,-0.0435767,,2,3.0
Se4SnBaAu2,0.3962,-0.0375531999999999,,2,3.0
SbU2,0.0,-0.081575,,2,3.0
Al5GdPt2,0.0,-0.0307996,,2,3.0
InHf2Au2,0.0,-0.0600398,,2,3.0
NiCuZn,0.0,-0.0150577,,2,3.0
Cl6GaRb2Tl,2.1925,-0.019382,,2,3.0
RuSmPb,0.0,-0.0521128,,2,3.0
NInNd2,0.0,-0.0335786999999999,,2,3.0
Be2AlTa,0.0,-0.020936,,2,3.0
SrBa3Au,0.0,-0.0423946,,2,3.0
ScLaIr4,0.0,-0.0577734,,2,3.0
O6Ca2FeZn,0.0,-0.0109083,,2,3.0
PSbTl,0.0,-0.0398822,,2,3.0
RhAu7,0.0,-0.0646637,,2,3.0
F7KLa2,6.0967,-0.0159856,,2,3.0
In7Tl,0.0,-0.0381866,,2,3.0
Al2ScRh2,0.0,-0.020537,,2,3.0
ScIn2Ce,0.0,-0.0319256,,2,3.0
OMn2Te,0.0,-0.0208842999999999,,2,3.0
Ga2Ho2Hg,0.0,-0.0404671999999999,,2,3.0
Al3Mn2Th3,0.0,-0.0436747,,2,3.0
O3AsLa,2.6041,-0.0191027,,2,3.0
HAlGePr,0.0,-0.0189642,,2,3.0
N3SrRu,0.0,-0.0173523,,2,3.0
Y2ZrRh,0.0,-0.0305122,,2,3.0
CaInI3,2.5914,-0.031887,,2,3.0
CrMoTa,0.0,-0.0400065,,2,3.0
Co4In6Dy,0.0,-0.0289292,,2,3.0
BCo2Ce,0.0,-0.0218953,,2,3.0
O8KSe2In,2.6588,-0.012197,,2,3.0
Ca5As3,0.0,-0.0148647,,2,3.0
P2SrBa,0.0,-0.0217432,,2,3.0
CrCu3Te4,0.0,-0.0267671,,2,3.0
Cl6K2Pu,0.1927,-0.0213965,,2,3.0
PZr6Pt2,0.0,-0.0382194,,2,3.0
RuHo,0.0,-0.0423746,,2,3.0
Cu4TbPb,0.0,-0.0307068,,2,3.0
TeIIr,0.4416,-0.0485867,,2,3.0
CoAsSb,0.0,-0.0251089,,2,3.0
O3GaLu,2.6348,-0.0211436999999999,,2,3.0
Zr3Ir2Hg,0.0,-0.0511887,,2,3.0
KGe2Pd2,0.0,-0.022861,,2,3.0
H2SnEr3,0.0,-0.0329721,,2,3.0
Rh5Pt3,0.0,-0.0474617,,2,3.0
NaBr6Rb2Ce,0.0,-0.0226446,,2,3.0
Cl4Y,2.8412,-0.0139366,,2,3.0
CaAu4,0.0,-0.0577937,,2,3.0
FePd,0.0,-0.0256454,,2,3.0
RhSm3,0.0,-0.042277,,2,3.0
SiCu2Ho2,0.0,-0.0281613,,2,3.0
H6MnTb2,0.0,-0.0153280999999999,,2,3.0
AgAu2Hg,0.0,-0.0594655,,2,3.0
SnTePt,0.0,-0.048422,,2,3.0
LiCl4Rb3,4.8344,-0.0141503,,2,3.0
CSi2Co2Nd2,0.0,-0.0222767,,2,3.0
RuPtPu2,0.0,-0.0815918,,2,3.0
Al3FeLa,0.0,-0.0173015,,2,3.0
Cl6RbCs2Ce,0.0,-0.0211983,,2,3.0
La10Se14O,1.523499999999999,-2.4387671424125,mp-558535,2,3.0
Fe2Te,0.0,-0.0245025,,2,3.0
Li6O6KIr,0.0,-0.0111504999999999,,2,3.0
SiMnIr,0.0,-0.033765,,2,3.0
Al4Ge2W3,0.0,-0.031011,,2,3.0
O2CuHo,2.6231,-0.0217969,,2,3.0
F6K2W,0.0,-0.0147351,,2,3.0
AlCu2Hf,0.0,-0.0256433,,2,3.0
MnGa3Tb2,0.0,-0.0274481,,2,3.0
O8KCaMo2,0.0,-0.0136965,,2,3.0
Ge2LuIr2,0.0,-0.0480272999999999,,2,3.0
Mg2PPt3,0.0,-0.0393363,,2,3.0
SeTePt,0.0,-0.0429909,,2,3.0
NaCu2Sb2Nd,0.0,-0.026059,,2,3.0
TcCdLu2,0.0,-0.044299,,2,3.0
LiP2NdAu2,0.0,-0.0350843,,2,3.0
SiCuPr,0.0,-0.0234926,,2,3.0
NaTe2Tl,0.0,-0.0382334,,2,3.0
SrY8,0.0,-0.0270993,,2,3.0
Ru2ErU,0.0,-0.0563071,,2,3.0
SiSe4Ag2Ba,0.2433,-0.0249641,,2,3.0
Li4O8TiV3,0.0,-0.0106264,,2,3.0
ScZrAu2,0.0,-0.0467087999999999,,2,3.0
Li2F8BaHf,6.9875,-0.0150417,,2,3.0
LiCo4Ta,0.0,-0.0230056,,2,3.0
RhGd2Ir,0.0,-0.0564707999999999,,2,3.0
Br6SnTl2,0.8357,-0.0338488,,2,3.0
Cu2Ga5Th,0.0,-0.026327,,2,3.0
BO4Zn2,0.0,-0.0102395,,2,3.0
CaAg2Ho,0.0,-0.0306729,,2,3.0
As2YSb,0.0,-0.0271895999999999,,2,3.0
H2Sr2Te,1.5798,-0.018913,,2,3.0
MgCdLu2,0.0,-0.0367437,,2,3.0
O4SNi,0.5148,-0.0100015,,2,3.0
O2BrLa2,0.0,-0.026806,,2,3.0
Mg3Zn2,0.0,-0.0084903,,2,3.0
ZnAs2,0.224,-0.0181652,,2,3.0
ZnGa3Tm,0.0,-0.0233137,,2,3.0
O3ZrBa,3.1093,-0.0214044,,2,3.0
O8KMo2Pr,4.0708,-0.0168371,,2,3.0
Li2Cd2In,0.0,-0.0200339,,2,3.0
Si3CuEr,0.0,-0.0195455,,2,3.0
Au4Pb,0.0,-0.0704841,,2,3.0
Cu3SbTe4,0.0,-0.0290446,,2,3.0
NiEr2Pt,0.0,-0.0477487,,2,3.0
SrIn2Bi2,0.0,-0.0495392,,2,3.0
NiSn2Ho,0.0,-0.0347887,,2,3.0
B6Hf5,0.0,-0.0333833,,2,3.0
O12Al6Sr4Te,2.7402,-0.0140244,,2,3.0
Na2TlBi,0.0605,-0.0401964,,2,3.0
AlEr6Bi2,0.0,-0.0524147,,2,3.0
MgFe2Pa,0.0,-0.0351404,,2,3.0
AlCuLu2,0.0,-0.0337414,,2,3.0
Ti3Mn2Fe,0.0,-0.0174241999999999,,2,3.0
S8Nb6Cd,0.0,-0.0215413,,2,3.0
Cl2SeEu2,0.136,-0.0311285,,2,3.0
O8P2CaHf,4.3366,-0.0150301,,2,3.0
AlVNi2,0.0,-0.0148635,,2,3.0
O3K2Co,0.2323,-0.0100891,,2,3.0
Co2Dy4Pb5,0.0,-0.0553956,,2,3.0
CCo2Y2Pb2,0.0,-0.0363063999999999,,2,3.0
Al3Dy,0.0,-0.0182195,,2,3.0
Ir7Pt,0.0,-0.0709240999999999,,2,3.0
HAlCaGe,0.3201,-0.0105196,,2,3.0
O3AlK3,3.0521,-0.009553,,2,3.0
AsBiTh2,0.0,-0.0736901,,2,3.0
Co4Ge6Zr,0.0,-0.0197854999999999,,2,3.0
N3Mg3Cr,0.0,-0.0095812,,2,3.0
PNi5In,0.0,-0.0181047,,2,3.0
NFPu,0.0,-0.043309,,2,3.0
In3Sn,0.0,-0.0339194,,2,3.0
Al3Si2ReTh3,0.0,-0.0452249,,2,3.0
Br2SnCe2,0.0,-0.0341898,,2,3.0
GeZrTe,0.0,-0.0298796,,2,3.0
Al4Zr2Er,0.0,-0.0208335,,2,3.0
Cd2Ba3,0.0,-0.0361741,,2,3.0
SbICe2,0.0,-0.0418233,,2,3.0
CoGa8Ho2,0.0,-0.0229102999999999,,2,3.0
Na2S4CoSn,0.287,-0.0133525,,2,3.0
O6Pd3Hg,0.0,-0.0209723,,2,3.0
Li2Ge2Y,0.0,-0.0147976,,2,3.0
O8Ni4Sr,0.0,-0.0119821,,2,3.0
C2SiZr3,0.0,-0.0212986,,2,3.0
Si2DyRe4,0.0,-0.0507854,,2,3.0
F6SrW,0.0,-0.0172359,,2,3.0
H2Sc2Pd,0.0,-0.0144742999999999,,2,3.0
NiSb2La6,0.0,-0.0395313,,2,3.0
B2O6TiRb2,1.8555,-0.0126834,,2,3.0
Si2Ru2U,0.0,-0.0393165,,2,3.0
MnSe2Pb,0.0535,-0.0342519,,2,3.0
MgS4VCr,0.0,-0.0126275,,2,3.0
O8Mo2CsHo,4.0603,-0.0198432999999999,,2,3.0
Ga4SrBa,0.0,-0.0217805,,2,3.0
NaCa2Tl2,0.0,-0.0341094999999999,,2,3.0
SCl2U2,0.0,-0.047879,,2,3.0
CPr2,0.0,-0.0323921,,2,3.0
Na2PdPb2,0.0,-0.0387963,,2,3.0
Al4Si2Ho3,0.0,-0.0225836,,2,3.0
AlSnHo,0.0,-0.0314435,,2,3.0
ScGeGd,0.0,-0.0315376,,2,3.0
Dy3Au2Pb3,0.0,-0.0644448,,2,3.0
CaPd2Tl2,0.0,-0.0443507,,2,3.0
O2ClCdSb,2.4693,-0.0190039,,2,3.0
SePdPb,0.0,-0.0432677,,2,3.0
NiZr6Sn2,0.0,-0.0307776,,2,3.0
Al2S2Te,2.5537,-0.0154112,,2,3.0
RhCdBa2,0.0,-0.0360647,,2,3.0
PdSbEr,0.2176,-0.0414112,,2,3.0
LiP2CaCu2,0.0,-0.0112567,,2,3.0
Ga5PtNp,0.0,-0.0374281999999999,,2,3.0
Cu3Rh2Tm,0.0,-0.02782,,2,3.0
B5Ca2Re3,0.0,-0.0272737,,2,3.0
H6CoPu2,0.0,-0.0290203,,2,3.0
LiSCs,2.4865,-0.0179875,,2,3.0
C2ScCr,0.0,-0.0136,,2,3.0
RuSb2Pr,0.0,-0.0389398,,2,3.0
LiRh2Sb2Pr,0.0,-0.0322055999999999,,2,3.0
O4NdW,0.0,-0.0258988,,2,3.0
CoGe2Tb6,0.0,-0.0378249,,2,3.0
Cl4Se,3.006,-0.0107876,,2,3.0
Ge2Rh2Tb,0.0,-0.0315423,,2,3.0
CuRu2Er3,0.0,-0.0398156,,2,3.0
Sc2YIr,0.0,-0.0325076,,2,3.0
Si3PdTh,0.0,-0.0323930999999999,,2,3.0
CePt2Au3,0.0,-0.066092,,2,3.0
MnAsNp,0.0,-0.0488858999999999,,2,3.0
GaTb2Os2,0.0,-0.0512401,,2,3.0
SmEuHg2,0.0,-0.059317,,2,3.0
CuSe3BaPr,0.7926,-0.0281532,,2,3.0
Cl2TeCe2,0.0,-0.0303707,,2,3.0
CuRbCd3,0.0,-0.0254084,,2,3.0
AgSbBa2,0.2038,-0.0377172,,2,3.0
CuAgF3,0.2559,-1.564538303999999,mp-2763763,2,3.0
Be2FeTc2,0.0,-0.0196874,,2,3.0
BTmIr2,0.0,-0.0511776,,2,3.0
LuAuTl,0.0,-0.0663364,,2,3.0
SSe2Bi2,0.0965,-0.0417143,,2,3.0
S4Ni3Rb2,0.7193,-0.0151559,,2,3.0
Cl2Se4Ag5Sb,0.2625,-0.0244607999999999,,2,3.0
Tc2SnPa,0.0,-0.0516395,,2,3.0
B2N3Mn2Tb3,0.0,-0.0232308,,2,3.0
F6K2GaAg,1.9928,-0.0111685999999999,,2,3.0
PTiRh,0.0,-0.021346,,2,3.0
Zn2CdNd3,0.0,-0.0317545,,2,3.0
Mg2CeBi2,0.0,-0.0428294,,2,3.0
S2Cu3Rb,1.3183,-0.014859,,2,3.0
SiCaBr,0.0,-0.0143087,,2,3.0
MgGaBi,0.0,-0.0333296,,2,3.0
F6GeCe,0.8293,-0.0137548999999999,,2,3.0
AlPdPm2,0.0,-0.0326636,,2,3.0
SiMn2Rh,0.0,-0.0206932,,2,3.0
O2GdTl,1.2647,-0.0383788,,2,3.0
Zn3Os,0.0,-0.0280701,,2,3.0
Si2Sb2Er5,0.0,-0.0394406,,2,3.0
AgBaPb,0.0,-0.0494449,,2,3.0
SnPr2Pt2,0.0,-0.0537906,,2,3.0
MgZn2Ce,0.0,-0.0194572,,2,3.0
Cl6RbCs2Pu,0.0,-0.027566,,2,3.0
Mg2S8CrY3,0.8382,-0.0154101,,2,3.0
Na5Tl2,0.0,-0.0238557,,2,3.0
Mg5Th,0.0,-0.0200863,,2,3.0
H3MnTa,0.0,-0.0191015,,2,3.0
TcSb,0.0,-0.0360965,,2,3.0
B4ScLu,0.0,-0.0173826,,2,3.0
Mg2Zr,0.0,-0.0135521999999999,,2,3.0
Te2CsAu3,1.5739,-0.0537726,,2,3.0
TiRbTe3Au,0.0,-0.0370369,,2,3.0
MgZr2La,0.0,-0.0273323,,2,3.0
SiTcRe2,0.0,-0.047024,,2,3.0
Li2CdIn,0.0,-0.0175432,,2,3.0
ZrPdIn,0.0,-0.0330178,,2,3.0
Al3Ge2PtNp3,0.0,-0.0506575,,2,3.0
H5AlCa,3.0255,-0.005325,,2,3.0
BeFe2Zn,0.0,-0.013663,,2,3.0
LiAl2Ir2,0.0,-0.0328953,,2,3.0
ScCd2Au,0.0,-0.0365816999999999,,2,3.0
AlS2In,0.0,-0.0160039,,2,3.0
H8Mn2FeSr,0.0,-0.0090187,,2,3.0
H6RuPr2,0.0,-0.0163866,,2,3.0
F6NaScCs2,6.9979,-0.0150813,,2,3.0
Li3GeSe,0.0,-0.0096385,,2,3.0
InGd2Hg,0.0,-0.0554352,,2,3.0
Cd2InTl2,0.0,-0.0477029,,2,3.0
AlFe4Tb,0.0,-0.0212575,,2,3.0
Cl6Cs2HgBi,0.0,-0.0284093,,2,3.0
Mg5Ag,0.0,-0.0094742,,2,3.0
NaCl6K2Y,4.8192,-0.0119662,,2,3.0
O2YAu,2.6131,-0.0298553,,2,3.0
Ag2Hg2Pb,0.0,-0.054888,,2,3.0
Br3RbIn,1.0118,-0.0238059,,2,3.0
Pd2Sb2Cs,0.0,-0.0361694,,2,3.0
CoNd6Tl2,0.0,-0.0473543,,2,3.0
MgS2AsBr,1.5068,-0.0136739,,2,3.0
LiAsBa,0.7505,-0.0218327,,2,3.0
PCaSr2Ba,0.0,-0.0213471,,2,3.0
KCd2Au2,0.0,-0.0418228999999999,,2,3.0
AlZr2Hg,0.0,-0.0347793,,2,3.0
As2PdCe2,0.0,-0.0338478,,2,3.0
ClRhTl3,0.0,-0.0522206,,2,3.0
LaPb5,0.0,-0.0706653,,2,3.0
CoInTh,0.0,-0.0492130999999999,,2,3.0
CdIn5,0.0,-0.0328232,,2,3.0
NiBaPb3,0.0,-0.0570186,,2,3.0
NCa2Au,0.0,-0.0254189,,2,3.0
SiCoNb,0.0,-0.0208351,,2,3.0
S3SrSmAu,1.45,-0.029239,,2,3.0
TiRu2Tm,0.0,-0.0350448,,2,3.0
Zn3Ir,0.0,-0.0281643,,2,3.0
BCFeTb,0.0,-0.021017,,2,3.0
B2O6CaSc,0.0,-0.0105644,,2,3.0
ZnSnTh,0.0,-0.0489765999999999,,2,3.0
Zn2As2Cs,0.0,-0.021447,,2,3.0
KCdTe3Tb,1.297,-0.0340602999999999,,2,3.0
Na3Br6Tb,4.4593,-0.0194892,,2,3.0
Na2RbCd2,0.0,-0.0180387999999999,,2,3.0
HCl2La,4.1731,-0.0176978,,2,3.0
MgCa2Sc,0.0,-0.0095763999999999,,2,3.0
AsGd2,0.0,-0.0469968999999999,,2,3.0
MgCu2Y,0.0,-0.0160434,,2,3.0
Zr3Rh5,0.0,-0.0335421,,2,3.0
BeNbRh,0.0,-0.0242859,,2,3.0
PRbPt,0.0,-0.0342823,,2,3.0
H4KFe,0.0,-0.0067501,,2,3.0
Sc2Cd,0.0,-0.0199507,,2,3.0
Ga4TmHf2,0.0,-0.03523,,2,3.0
NiSn4Au2,0.0,-0.0427434,,2,3.0
O6CoGeTb2,0.3059,-0.0194512,,2,3.0
B2BaIr2,0.0,-0.0399186,,2,3.0
Mg2ZnTl,0.0,-0.0240641,,2,3.0
Sc7Zr,0.0,-0.0162159,,2,3.0
Er6OsBi2,0.0,-0.0596653,,2,3.0
BrSb2Tl2,0.0,-0.0480211,,2,3.0
Ge2SrIr2,0.0,-0.0413188,,2,3.0
SbPrHo,0.0,-0.0441202,,2,3.0
Ti2Pd2Cd,0.0,-0.0261239,,2,3.0
LiP2Fe2Th,0.0,-0.0265952,,2,3.0
O6Co2Ni,0.0,-0.0108297,,2,3.0
Zn2AsPm,0.0,-0.0233449,,2,3.0
KInTl4,0.0,-0.0552128,,2,3.0
BeAsSr,0.0,-0.016354,,2,3.0
H6O7Na3V,3.9637,-0.0072454,,2,3.0
Pd2CdBa2,0.0,-0.0355375999999999,,2,3.0
KAsPd,0.0,-0.0209389,,2,3.0
Cd2SnLa2,0.0,-0.0371948,,2,3.0
Li2Mg2Ga2Ba,0.0,-0.0126864,,2,3.0
Cl2MnHg,0.4218,-0.026267,,2,3.0
O6Ca2EuW,0.0,-0.0209543,,2,3.0
Al4Ge2Pr3,0.0,-0.0227507,,2,3.0
CoZr2In,0.0,-0.0283859,,2,3.0
F6AlGa,6.1191,-0.0089818,,2,3.0
ZnPr2Pt2,0.0,-0.0492002,,2,3.0
Sc3Ge2,0.0,-0.0170201,,2,3.0
Zn2Sb2Hg,0.0,-0.0338502,,2,3.0
CaRh4Ba,0.0,-0.0309305,,2,3.0
TiTcTa2,0.0,-0.0463091,,2,3.0
O6MgPr2Hf,4.0278,-0.0227876,,2,3.0
TiI3Cs,0.0,-0.0340018,,2,3.0
Ga8Ba3,0.0,-0.0231925999999999,,2,3.0
Li3O8CrNi3,0.0,-0.0100344,,2,3.0
KTlPb,0.0,-0.0524487,,2,3.0
SPdSb,0.0,-0.0270157,,2,3.0
Ge2Dy2Tl,0.0,-0.0419577,,2,3.0
LiCu2As2Lu,0.0,-0.0221632,,2,3.0
ScGe,0.0,-0.0175693,,2,3.0
F6RhTl,0.4412,-0.0177003,,2,3.0
S4MnCs3,0.6925,-0.0223692999999999,,2,3.0
In2TeI2,0.0,-0.0358837,,2,3.0
MgAl3Eu,0.0,-0.016648,,2,3.0
Pd2Te3Cs,0.3168,-0.036524,,2,3.0
Bi5(PO5)3,3.155899999999999,-2.252476989192547,mp-1228070,2,3.0
ClBrHf,0.6793,-0.0315071,,2,3.0
ScZn4Cd,0.0,-0.0166522,,2,3.0
Co2Zr3Cd,0.0,-0.0264723,,2,3.0
P4Ni2Ce,0.0,-0.0176663,,2,3.0
MnRh7,0.0,-0.0319688,,2,3.0
ScZn2Lu,0.0,-0.0246104999999999,,2,3.0
LiCu4Zr,0.0,-0.0158001,,2,3.0
CMn3Zn,0.0,-0.0158305,,2,3.0
Br6ZrCs2,2.703,-0.0266602999999999,,2,3.0
YZrPb2,0.0,-0.0530292,,2,3.0
N2Ce3,0.0,-0.0317673,,2,3.0
ScTiIr2,0.0,-0.0441939,,2,3.0
Al2SnTm,0.0,-0.0261805,,2,3.0
SiFeNd,0.0,-0.0244037,,2,3.0
S2MnCd,0.4081,-0.0179102,,2,3.0
Mn2BrTm2,0.0,-0.0325673,,2,3.0
SSeW,0.9715,-0.0338012,,2,3.0
Ge2Pr2Tl,0.0,-0.0402372,,2,3.0
Se2Ag3Cs,1.7626,-0.0291931,,2,3.0
OPb,1.1985,-0.0421528,,2,3.0
Cl6AgCs2Pr,3.5491,-0.0218827,,2,3.0
YCd4,0.0,-0.0301403,,2,3.0
Al3FeSn2Pa3,0.0,-0.0459922,,2,3.0
Ag2Hf,0.0,-0.0418313,,2,3.0
CdSnLa2,0.0,-0.0388121,,2,3.0
LiP2ScCo2,0.0,-0.0128596,,2,3.0
Zr2MoIr,0.0,-0.0425018,,2,3.0
Si2Ga3PdSm3,0.0,-0.0269241,,2,3.0
O6PdBa2Pb,0.0,-0.02419,,2,3.0
N4Si3,4.1746,-0.0109402,,2,3.0
CAsEr3,0.0,-0.0371803999999999,,2,3.0
SiCoTh,0.0,-0.0417243,,2,3.0
NOF,3.0577,-0.0067488,,2,3.0
ZnInPb2,0.0,-0.0495016,,2,3.0
BrY3,0.0,-0.0263901,,2,3.0
LiSnAu,0.0,-0.0363458,,2,3.0
NiCeBi,0.0,-0.0471378,,2,3.0
O9Ca4Tl3,0.0,-0.0214212999999999,,2,3.0
NiAsRu,0.0,-0.0239776999999999,,2,3.0
PdBiNp,0.0,-0.0729253,,2,3.0
NaCu2Ge2,0.0,-0.0146419999999999,,2,3.0
NiITb,0.0,-0.0341695,,2,3.0
Zn3Ag4,0.0,-0.0237292,,2,3.0
BeCSc2Zn,0.0,-0.0117191,,2,3.0
Pd5TeTl,0.0,-0.0393755,,2,3.0
Ni5Ir3,0.0,-0.0367297,,2,3.0
SiCl2Y2,0.0,-0.0181139,,2,3.0
SiTc2Ta,0.0,-0.0372496,,2,3.0
ZnRu2U,0.0,-0.0469219,,2,3.0
MnNi7,0.0,-0.0165469,,2,3.0
Al3FeGe2Nd3,0.0,-0.0240075,,2,3.0
Mg2YGd,0.0,-0.0242565,,2,3.0
SiS2Y3,0.0,-0.0206804999999999,,2,3.0
Sc2AsHg,0.0,-0.0301988999999999,,2,3.0
FeHf,0.0,-0.040704,,2,3.0
SiScZn,0.0,-0.0131816,,2,3.0
H16Cl2O15,5.105399999999999,-1.031765067537878,mp-1197694,2,3.0
C2PdCs2,1.7001,-0.0257716,,2,3.0
ZrPd2Lu,0.0,-0.0387553,,2,3.0
BeSiY2,0.0,-0.0180521999999999,,2,3.0
O6AlSr2Hf,0.0,-0.0185337,,2,3.0
H2O4PK,5.673,-0.0083222,,2,3.0
H4O5FPCa,5.351,-0.0077986,,2,3.0
PCuEu,0.0,-0.0274226,,2,3.0
O4S2Cu2As2Dy,0.0,-0.0162585,,2,3.0
C2N2S2Eu,0.6095,-0.0164948,,2,3.0
HScRh3,0.0,-0.0244246,,2,3.0
NiGa6Np,0.0,-0.0278736,,2,3.0
Ga2Ba3,0.0,-0.0305708,,2,3.0
Sc6RhPb2,0.0,-0.0307434,,2,3.0
LiCl4Pt,0.0388,-0.0184085,,2,3.0
S2KBa,0.0,-0.0182768,,2,3.0
O5NaKNbSm,3.4639,-0.0163496999999999,,2,3.0
P3Np,0.0,-0.0348969,,2,3.0
Y3Tl,0.0,-0.0393289,,2,3.0
B2N4Dy3,0.0,-0.0234009999999999,,2,3.0
MnCu4Tb,0.0,-0.0211938,,2,3.0
O10S2KCu2,0.0646,-0.0092432,,2,3.0
S2Ag2Ba,0.7973,-0.0253067999999999,,2,3.0
SiFe2Ge,0.0,-0.0164765,,2,3.0
YZr2,0.0,-0.0296708,,2,3.0
Si3PdTm,0.0,-0.0235948,,2,3.0
MgGeBa,0.0,-0.0217919,,2,3.0
Co2Hf2Pt,0.0,-0.0466871,,2,3.0
Ni4Cu,0.0,-0.0159424,,2,3.0
HKPd2,0.1037,-0.0195624,,2,3.0
Fe4TcRh,0.0,-0.0235126999999999,,2,3.0
LiPm2Pb,0.0,-0.0420125,,2,3.0
MgCuBi,0.0,-0.03312,,2,3.0
LiZnAg2,0.0,-0.0198298999999999,,2,3.0
Al3PdGd2,0.0,-0.0296954,,2,3.0
B2Mo2W,0.0,-0.0311884,,2,3.0
MgAgBi,0.0,-0.0385144,,2,3.0
CdBa,0.0,-0.0353592,,2,3.0
MgCaIn3,0.0,-0.0233578,,2,3.0
Ru2InPu,0.0,-0.0534209999999999,,2,3.0
AlYRh,0.0,-0.0241876,,2,3.0
BO3Tb,5.0342,-0.0179418,,2,3.0
Mn2ZrNb,0.0,-0.0251681999999999,,2,3.0
B2Co2Sr,0.0,-0.0146299,,2,3.0
CoGa8Lu2,0.0,-0.0240461,,2,3.0
Ga2Ir2Hg,0.0,-0.0488672,,2,3.0
LiBS3Ba,1.9821,-0.0145306999999999,,2,3.0
TiRu2Lu,0.0,-0.0359752999999999,,2,3.0
Be2RhIr,0.0,-0.0291458,,2,3.0
CdHoTl,0.0,-0.0510409999999999,,2,3.0
NSnEu3,0.0,-0.0422603,,2,3.0
Ca2Rh,0.0,-0.0180706,,2,3.0
SiNi2Er2,0.0,-0.0293222,,2,3.0
Mg2Al2Ba,0.0,-0.0131522,,2,3.0
B6Ru2Np,0.0,-0.0249193,,2,3.0
HCoSe2,0.0,-0.0153963,,2,3.0
Si2Ir3Th,0.0,-0.0559473,,2,3.0
O7Ge2Tm2,3.972,-0.0197345,,2,3.0
Li6S2Sb,0.0,-0.0090219,,2,3.0
Rh6PrBi4,0.0,-0.0511809,,2,3.0
Co2InDy2,0.0,-0.0330733,,2,3.0
AlRb2Au3,0.0,-0.0431925,,2,3.0
BNi3Cd,0.0,-0.0173582,,2,3.0
Cl6Se4Th,1.51,-0.02153,,2,3.0
O6Sr2PrBi,2.1359,-0.0229007,,2,3.0
Ga2BrLa2,0.0,-0.028882,,2,3.0
Al3Si2MnNp3,0.0,-0.0426254,,2,3.0
Na2KSb2,0.0,-0.0186818999999999,,2,3.0
RuDyPb,0.0,-0.0532535,,2,3.0
CuPm2Pb,0.0,-0.0451961,,2,3.0
O4NiRh2,0.0,-0.0164792,,2,3.0
Cl3Pt,0.1587,-0.0239919,,2,3.0
AgBa2Au2,0.0,-0.0504057,,2,3.0
BO3KSr,3.5135,-0.0121385,,2,3.0
Pd2CeTl,0.0,-0.0462428,,2,3.0
O5Cu2BaTh,0.0,-0.0242045,,2,3.0
LaPtAu,0.0,-0.0618746,,2,3.0
Ag2Dy2Pb,0.0,-0.0472944,,2,3.0
SiCu2Se3,0.2995,-0.0170954,,2,3.0
FBr,1.0566,-0.0120176,,2,3.0
Al2Pa,0.0,-0.0386581,,2,3.0
CCdDy2,0.0,-0.0344081,,2,3.0
Pr2AuPb,0.0,-0.0587515,,2,3.0
ClY,0.0,-0.0196451999999999,,2,3.0
Li2F3Rb,7.1921,-0.0090608,,2,3.0
SPd5In,0.0,-0.0299511,,2,3.0
SrPd2Au3,0.0,-0.0497976,,2,3.0
Ti2GaSb3,0.0,-0.027132,,2,3.0
Li2AlNi,0.0,-0.0074097,,2,3.0
Co3Ge,0.0,-0.0178376,,2,3.0
O2F2Zn,1.1607,-0.0080428,,2,3.0
SnIr3Np2,0.0,-0.0774887,,2,3.0
AlTm6Bi2,0.0,-0.053391,,2,3.0
AsRh2La,0.0,-0.0336155,,2,3.0
C2NiHo,0.0,-0.0217687999999999,,2,3.0
SbTeNd,0.0,-0.0406741,,2,3.0
Cl4Ir,0.0,-0.0210909,,2,3.0
Ni2CuHf2,0.0,-0.0350150999999999,,2,3.0
Al3MnHf2,0.0,-0.0282794,,2,3.0
MnCo3Er2,0.0,-0.0286117,,2,3.0
TeAuHg2,0.0,-0.0607147,,2,3.0
Br2Er2Pb,0.0,-0.0444837,,2,3.0
LiZn4Y,0.0,-0.0143862,,2,3.0
FeCoI4,0.0,-0.030623,,2,3.0
NiAs2La2,0.0,-0.0299392,,2,3.0
LiNi2As2Sr,0.0,-0.0169737,,2,3.0
O3K2Mn2,0.0331,-0.0120034,,2,3.0
Sc3Zn2Ir,0.0,-0.024225,,2,3.0
NiGe2Sn3Ho3,0.0,-0.0349841,,2,3.0
Sc2CoIr,0.0,-0.0300834,,2,3.0
Si2Ni3Ba,0.0,-0.0185065999999999,,2,3.0
Ga3Ge2Y3Re,0.0,-0.0275408,,2,3.0
S4KGeNd,2.222,-0.0170958,,2,3.0
O3Rb2Nd,0.0,-0.0194206,,2,3.0
Rh4CdTb,0.0,-0.0358446,,2,3.0
In3IrTl,0.0,-0.0488655,,2,3.0
FeIn5Lu,0.0,-0.0345499,,2,3.0
C4MgDy3,0.0,-0.023926,,2,3.0
ZnDy3Au2,0.0,-0.0500874,,2,3.0
Tc2WIr,0.0,-0.0529107,,2,3.0
CuIn5Er,0.0,-0.0334802,,2,3.0