formula,bg,formation_energy,mp-id,fidelity,bg_category
BaAu2Pb,0.0,-0.0640027,,2,3.0
Pd4PrHg,0.0,-0.0411053,,2,3.0
O3SrHf,4.1812,-0.0244372,,2,3.0
Co5U,0.0,-0.0316122,,2,3.0
ZnAs4Rh6,0.0,-0.0275281,,2,3.0
Cl3CsPr,0.0,-0.0232486,,2,3.0
Co3La2Os,0.0,-0.0349122,,2,3.0
S4CoCu2Ge,0.0,-0.0135845,,2,3.0
Sb2CsPt2,0.0,-0.0511618,,2,3.0
Ge2Nb,0.0,-0.0241702,,2,3.0
HOClIn,1.1383,-0.013948,,2,3.0
ZnPt5,0.0,-0.0610009,,2,3.0
H3NiNp,0.0,-0.0268255,,2,3.0
ClBa2Pb,0.0,-0.0421838,,2,3.0
Al3Si2Zr3Ir,0.0,-0.0238383,,2,3.0
Br6Rb2AuTl,0.0,-0.0309901,,2,3.0
GeTmIr,0.0,-0.0484731,,2,3.0
S2RbTh,0.0,-0.0358205,,2,3.0
Na2Se4CdSn,1.2827,-0.0202191,,2,3.0
RbSb2Pt2,0.0,-0.0477258,,2,3.0
O8P3Cs,5.1312,-0.0122301,,2,3.0
LiP2Cu2Np,0.0,-0.0272856,,2,3.0
Zr3Pd2Tl3,0.0,-0.0472886999999999,,2,3.0
GaAg3,0.0,-0.0276032,,2,3.0
RuEr2Au,0.0,-0.0519645,,2,3.0
SbCe2Au3,0.0,-0.0565833,,2,3.0
NaKRb2,0.0,-0.0134772,,2,3.0
NTiCr,0.0,-0.0158404,,2,3.0
SeRuSb,0.0,-0.0310651,,2,3.0
Al3Co2Sr,0.0,-0.0137003,,2,3.0
Au2Tl2Bi,0.0,-0.0722961,,2,3.0
H2CHo2,0.0,-0.023679,,2,3.0
HI2Sm,2.7222,-0.0316943,,2,3.0
CCo3Tb,0.0,-0.0217592,,2,3.0
NFSn2Pr6,0.0,-0.0357402999999999,,2,3.0
Co2Cu3Pu,0.0,-0.0316199,,2,3.0
Rh2PdEr3,0.0,-0.0429480999999999,,2,3.0
BS4SbBa,2.2373,-0.0186015,,2,3.0
LiOCs,2.2773,-0.0170255,,2,3.0
O8Ti3Se,2.4567,-0.0124379,,2,3.0
Li2CsBi2,0.0,-0.0403734,,2,3.0
Ca3Ga2Sn2,0.0,-0.0197402,,2,3.0
Sn2BaPt3,0.0,-0.054307,,2,3.0
CuGeSr,0.0,-0.0193222999999999,,2,3.0
NiHoBi2,0.0,-0.0560607,,2,3.0
Cu4TaPt,0.0,-0.0331423,,2,3.0
B6Co12Pr,0.0,-0.0158104999999999,,2,3.0
LiMgGaPd,0.0,-0.0147687,,2,3.0
ClSeHf,0.0,-0.0318371999999999,,2,3.0
O8Mn2Sr3Nd,0.0,-0.0170189,,2,3.0
TiRbPdTe3,0.0,-0.0310437,,2,3.0
MgCuY,0.0,-0.0162769,,2,3.0
S3CrCs2,0.0154,-0.0216784,,2,3.0
B2O6ZrPb,3.9039,-0.018591,,2,3.0
As2Hf6Os,0.0,-0.0550043999999999,,2,3.0
N6Ti2La3,0.0,-0.0214163,,2,3.0
RhTeDy,0.2484,-0.0409054,,2,3.0
NiPd2Pb4,0.0,-0.0550701,,2,3.0
RhTeGd,0.3381,-0.0445001,,2,3.0
Ti2MnZn,0.0,-0.0162311,,2,3.0
Mg2KAs2,0.0,-0.0123847,,2,3.0
B2Nd3Pt7,0.0,-0.0541412,,2,3.0
Sc2CdRe,0.0,-0.0327924999999999,,2,3.0
Al3Si2ZnTb3,0.0,-0.0225407,,2,3.0
SbPrTm,0.0,-0.0450651,,2,3.0
O6RhBa2Ce,0.0,-0.0221786,,2,3.0
H4O6FNaMgS,5.235,-0.0071195,,2,3.0
Ga3Pd7,0.0,-0.0284327,,2,3.0
ScCu4Tl,0.0,-0.0247671,,2,3.0
Al3Sn2Ce3Ir,0.0,-0.0340903,,2,3.0
N3Mg2Cr,0.0,-0.0102879,,2,3.0
Be2SeAu,0.0,-0.0247919,,2,3.0
Fe2Ga3Tb3,0.0,-0.028614,,2,3.0
MnU,0.0,-0.0610908,,2,3.0
MnZr2Ru,0.0,-0.0290481,,2,3.0
Si2CuSr,0.0,-0.0147379,,2,3.0
AlCo2,0.0,-0.0145078999999999,,2,3.0
O4Ca3Eu,0.0,-0.016604,,2,3.0
La2IrTl,0.0,-0.0581547,,2,3.0
Mg2CuSe2,0.0,-0.0138202999999999,,2,3.0
Mg2HgBi2,0.0,-0.0471377,,2,3.0
LiMgEu2,0.0,-0.0286956999999999,,2,3.0
Li6P2Pt,0.0,-0.0124434,,2,3.0
Si2Ga3RhHo3,0.0,-0.0286327,,2,3.0
YSnAu2,0.0,-0.0513867,,2,3.0
CTe2Ta2,0.0,-0.0440208,,2,3.0
SnBaAu,0.0,-0.0490604,,2,3.0
S4CrCuHf,0.0026,-0.0204158,,2,3.0
O4BaLa2,3.4899,-0.0249683999999999,,2,3.0
TeI2Er2,0.0,-0.0436064,,2,3.0
P4Cu2Zn2La3,0.0,-0.0217479,,2,3.0
Al3NiLu,0.0,-0.0195858,,2,3.0
CaBaPt4,0.0,-0.055893,,2,3.0
Pd2NdAu3,0.0,-0.0534066,,2,3.0
Al7NdAu3,0.0,-0.0284922,,2,3.0
CdIn2Te4,0.7744,-0.0355795999999999,,2,3.0
TcRuIr2,0.0,-0.0531902,,2,3.0
Be2ZnZr2,0.0,-0.0170146,,2,3.0
NaCl6ScRb2,3.9459,-0.0130727,,2,3.0
NI2Er2,0.0,-0.0382239,,2,3.0
O6NaFeI,0.0,-0.0117714,,2,3.0
Ni2Nb2Au,0.0,-0.0337941999999999,,2,3.0
Pd2CdTh2,0.0,-0.0583113,,2,3.0
ZrW2,0.0,-0.0568511,,2,3.0
Ti2CuPt,0.0,-0.029998,,2,3.0
Al2ScGe2,0.0,-0.0139471,,2,3.0
O4PKAg2,0.7205,-0.014958,,2,3.0
Mg2SmAu,0.0,-0.031569,,2,3.0
LiPdBi2,0.0,-0.0483678,,2,3.0
BeCu2Y,0.0,-0.0158825,,2,3.0
Al2YRh,0.0,-0.0202561,,2,3.0
MgFe6As4,0.0,-0.0178094,,2,3.0
B4Fe5Zr2,0.0,-0.0169372,,2,3.0
BFe2Ga2Pu,0.0,-0.0312673,,2,3.0
Se4SnHgTl2,0.3472,-0.0415057,,2,3.0
F2Mn2Se,0.0,-0.0146693,,2,3.0
Cu2GeBa,0.0,-0.0225616999999999,,2,3.0
AlRuSm,0.0,-0.0296143,,2,3.0
CN2Br2Ba2,3.7471,-0.0225747,,2,3.0
ClCuTm,0.0,-0.0262394,,2,3.0
BeCo2Ga,0.0,-0.0140796,,2,3.0
Ga4Ge2Pr3,0.0,-0.0266374999999999,,2,3.0
HoBi,0.0,-0.0647527,,2,3.0
AlNiHf,0.0,-0.0295879,,2,3.0
N6V2Ho3,0.0,-0.0232318,,2,3.0
Mg3PdBa,0.0,-0.0178292,,2,3.0
Co4Ge6La,0.0,-0.0209763,,2,3.0
Mg2HoAc,0.0,-0.0373943,,2,3.0
NaS3CuNb,0.0,-0.0145467,,2,3.0
AlP3Ca2Pt7,0.0,-0.0433419,,2,3.0
Co6Ga6Dy,0.0,-0.0194926999999999,,2,3.0
MgCu4Dy,0.0,-0.0192093,,2,3.0
HCrRu3,0.0,-0.0251871,,2,3.0
Fe2ZnRe,0.0,-0.030106,,2,3.0
LiCaAg4,0.0,-0.0231289,,2,3.0
F8YDy2,0.0,-0.0179787,,2,3.0
AlSn2La2,0.0,-0.0338806,,2,3.0
PSeNb,0.0,-0.021979,,2,3.0
In5Pb,0.0,-0.0403877,,2,3.0
Zn4Ga4Sr3,0.0,-0.0173096,,2,3.0
Ni4ZrHg,0.0,-0.0275908,,2,3.0
O3KTiCs,3.6745,-0.0161083,,2,3.0
LiNaBi2,0.0,-0.041288,,2,3.0
LaCeHg2,0.0,-0.0566042,,2,3.0
Cl2Sm,0.0843,-0.022407,,2,3.0
Sc2Ga3Pd,0.0,-0.0191808,,2,3.0
BNdIr4,0.0,-0.0564652999999999,,2,3.0
NaI3Ba,3.2693,-0.0324572,,2,3.0
H3PdEr,0.0,-0.0193115999999999,,2,3.0
Zn5Os,0.0,-0.0231854,,2,3.0
YRu2Er,0.0,-0.0373895,,2,3.0
Os5Ir3,0.0,-0.0715282,,2,3.0
Al2Y2Tl,0.0,-0.0292349,,2,3.0
NaPmHg2,0.0,-0.046679,,2,3.0
AlCrRuIr,0.0,-0.0337729,,2,3.0
MgZn2Au2,0.0,-0.0344879,,2,3.0
GeBr3Tl,1.5798,-0.0306695999999999,,2,3.0
ZnAg2Tb,0.0,-0.0310047,,2,3.0
Mg7Tl,0.0,-0.0134388,,2,3.0
Mg4Sr3,0.0,-0.0123949,,2,3.0
Li2SrCd,0.0,-0.0145641,,2,3.0
AsCeEr,0.0,-0.0394634,,2,3.0
TiMnCo4,0.0,-0.0174872,,2,3.0
Cl8NiGa2,0.6631,-0.0113024,,2,3.0
AlAgCd,0.0,-0.0231903,,2,3.0
ClRhSm,0.0,-0.030278,,2,3.0
F6NdDy,7.1428,-0.0183369,,2,3.0
NiGe3Dy,0.0,-0.0249104,,2,3.0
Co2ZnTa,0.0,-0.0288838,,2,3.0
O2Cl4K2Ir,0.0,-0.0158825,,2,3.0
O4SrNp,0.0,-0.0288305,,2,3.0
Al4LaEu,0.0,-0.0217909,,2,3.0
GaPdLu2,0.0,-0.0408175999999999,,2,3.0
LiNSr,0.2494,-0.0119613,,2,3.0
Se2ZrIn,0.0,-0.0271328,,2,3.0
NiIn2Pr,0.0,-0.0320908,,2,3.0
Na2KPb,0.0,-0.023353,,2,3.0
Fe4TcRu,0.0,-0.0236233,,2,3.0
CrZnPt2,0.0,-0.0436354,,2,3.0
Sc7Ag,0.0,-0.0163403999999999,,2,3.0
Co5Dy,0.0,-0.0224575999999999,,2,3.0
OIU,0.0,-0.0508598,,2,3.0
O7Nb2CsLa,1.4182,-0.0203536,,2,3.0
MgLa2Pb,0.0,-0.0422869,,2,3.0
AuHg3,0.0,-0.0683571,,2,3.0
B4FeY,0.0,-0.013238,,2,3.0
O7RbGdTa2,1.7472,-0.026406,,2,3.0
Mg3Zr5,0.0,-0.0209898,,2,3.0
HTeNd,1.5063,-0.0294452,,2,3.0
Li8O5FFe,0.6266,-0.0069092,,2,3.0
VCrNb,0.0,-0.0230851,,2,3.0
O6AgBa2Ho,0.5732,-0.0219082,,2,3.0
PCl2Zr2,0.0,-0.0192969,,2,3.0
F5Cs2Tl,3.2084,-0.0231835,,2,3.0
Li3As2Gd,0.0,-0.018818,,2,3.0
Zn3PrIr2,0.0,-0.0381132,,2,3.0
Mg2AlPr,0.0,-0.0154848,,2,3.0
Cl6Ag3Tm,2.7276,-0.0207022,,2,3.0
F6Rb3Tm,6.1827,-0.0170778,,2,3.0
SiLa2Ir3,0.0,-0.0525241,,2,3.0
LiLaTl,0.0,-0.0397596,,2,3.0
Al2Zn,0.0,-0.0096705,,2,3.0
HInTb3,0.0,-0.0359016,,2,3.0
O3CuBa,0.0383,-0.0162211999999999,,2,3.0
NiPd2Cd,0.0,-0.0282103,,2,3.0
BO3Ba,0.3814,-0.0156696,,2,3.0
MgSnAc2,0.0,-0.0558751,,2,3.0
O3MnSr,0.0,-0.0145114,,2,3.0
In7TmPt2,0.0,-0.0431017,,2,3.0
FeTe2Ho6,0.0,-0.0436082,,2,3.0
F3GeIn,2.786,-0.0145931,,2,3.0
P2Rb2Pt,0.5784,-0.0271458,,2,3.0
SnEu2Pb,0.0,-0.0555013,,2,3.0
CoPt4,0.0,-0.0596884,,2,3.0
O2ClCuSr2,2.3891,-0.0157397,,2,3.0
Co4Sn6Nd,0.0,-0.0300082,,2,3.0
N2Th,0.0479,-0.0394100999999999,,2,3.0
K2Se3Zr,1.2658,-0.0194848,,2,3.0
LiCdAu2,0.0,-0.0432421999999999,,2,3.0
PVCr,0.0,-0.0161289,,2,3.0
GaLu2Pt,0.0,-0.0504219999999999,,2,3.0
Br2SnSm2,0.0,-0.0342703,,2,3.0
CrAs2Pu,0.0,-0.0427028,,2,3.0
ScTe2Tl,0.0,-0.0412788,,2,3.0
FeSeSb,0.5615,-0.025351,,2,3.0
DyPt4Hg,0.0,-0.0669766,,2,3.0
TiNi2Ga,0.0,-0.0167758,,2,3.0
Li2Pd,0.0,-0.0129112,,2,3.0
Rh2InHg,0.0,-0.0424495,,2,3.0
P2NiCe,0.0,-0.0214436,,2,3.0
F12P4Pt,5.0623,-0.0115143,,2,3.0
O12TeLu6,2.8634,-0.0269129,,2,3.0
Na2GaPd2,0.0,-0.0184588,,2,3.0
Ag4LaPb,0.0,-0.0409838,,2,3.0
Sn3LaHf,0.0,-0.0433328,,2,3.0
O5Zr2Ba2,0.0,-0.0223217,,2,3.0
Ge2Mo,0.0,-0.0245488,,2,3.0
O5Se2Tm2Hf2,1.8299,-0.0306251,,2,3.0
SbLu2,0.0,-0.0501075999999999,,2,3.0
Al2ScZn2,0.0,-0.0117284,,2,3.0
KSb2Ir2,0.0,-0.0453815,,2,3.0
Y3Pd2Tl3,0.0,-0.0465422999999999,,2,3.0
O6TiFeSr2,0.0,-0.01449,,2,3.0
NaZnSe2Cs,1.4478,-0.0202138,,2,3.0
AsRh7,0.0,-0.0321872,,2,3.0
Pd2Te2Dy7,0.0,-0.0440902,,2,3.0
TcInSb2,0.0,-0.0356928,,2,3.0
CdHo3Os2,0.0,-0.0539474,,2,3.0
Co2MoOs,0.0,-0.0352327,,2,3.0
Ge2Rh2Sm,0.0,-0.0310893,,2,3.0
GeAgEu2,0.0,-0.039977,,2,3.0
PdIn3Sn2Ho3,0.0,-0.0398127,,2,3.0
LiSe3Mo3,0.0,-0.0245587,,2,3.0
RuTa2Au,0.0,-0.0595893,,2,3.0
LiP2Co2Pa,0.0,-0.0270239,,2,3.0
Ge2RhSn3Sm3,0.0,-0.0355837,,2,3.0
TiCoGe,0.0,-0.018109,,2,3.0
Sc3Te,0.0,-0.0205569,,2,3.0
ScCoCu2,0.0,-0.0155727,,2,3.0
B2CPu,0.0,-0.0340798,,2,3.0
Ti2Cd,0.0,-0.0209393,,2,3.0
SnCe2,0.0,-0.0423131,,2,3.0
H6FeZr2,0.0,-0.0115116,,2,3.0
Ti3Re,0.0,-0.0300827,,2,3.0
Al6Si2Mn,0.0,-0.0094451999999999,,2,3.0
Dy6AuBi2,0.0,-0.0577498,,2,3.0
O2K2CuRb,1.4014,-0.0120289,,2,3.0
HTeTb,1.431,-0.0304470999999999,,2,3.0
Sc2Zn6Ge3,0.0,-0.0154884,,2,3.0
LiCdIHg2,0.0,-0.0414104999999999,,2,3.0
HSeCs3,1.9595,-0.0281989,,2,3.0
Si2Tc2Th,0.0,-0.0378724,,2,3.0
O5PNb,3.1221,-0.0133201999999999,,2,3.0
Co2LaU,0.0,-0.0453788,,2,3.0
S4CdHg,0.2655,-0.0228373999999999,,2,3.0
Co3Tb2,0.0,-0.0292293,,2,3.0
TeBaPt,0.0,-0.0502989999999999,,2,3.0
LiInTm,0.0,-0.0296359,,2,3.0
CeOs2,0.0,-0.0630877,,2,3.0
AlNi4Ho,0.0,-0.0207971,,2,3.0
Ni2GaNd2,0.0,-0.02768,,2,3.0
CaBaPb2,0.0,-0.0509463,,2,3.0
AlGd2,0.0,-0.0420187,,2,3.0
Mg2RuTl,0.0,-0.0293281,,2,3.0
KAg2In,0.0,-0.0261665999999999,,2,3.0
F8Na2CeNd,0.0,-0.0142869,,2,3.0
YPd2,0.0,-0.0320054,,2,3.0
TiFe2,0.0,-0.0176936,,2,3.0
MgAlCu2,0.0,-0.0110373,,2,3.0
Ga8Sr3,0.0,-0.0185134,,2,3.0
N2ZnZr,2.0716,-0.0168441,,2,3.0
Cr4Fe,0.0,-0.0182298,,2,3.0
CuGe2Th,0.0,-0.037878,,2,3.0
Li2Na2Ba,0.0,-0.0104954,,2,3.0
MgDy5,0.0,-0.0406546999999999,,2,3.0
TiPdSn,0.5009,-0.0289806999999999,,2,3.0
Sc3Ni,0.0,-0.0149928,,2,3.0
LiMg2In,0.0,-0.0116721,,2,3.0
H4MgTi,0.0,-0.0061559,,2,3.0
LiFeGaIr,0.0,-0.0274906,,2,3.0
PSe3Hg,0.9599,-0.0279157,,2,3.0
Al12Mn,0.0,-0.0086545,,2,3.0
NiCu4Se4,0.0,-0.0176255999999999,,2,3.0
Sc5Zr3,0.0,-0.0203568,,2,3.0
O8K2ScV2Rb,3.0676,-0.0125603,,2,3.0
S3KTbHg,1.7656,-0.0267944,,2,3.0
O6PdBa2U,0.4925,-0.0280353,,2,3.0
LiO8CuRu2Rh2,0.0,-0.0157554,,2,3.0
MgS4Nb2,0.0,-0.0169663,,2,3.0
F6TiHg3,0.0,-0.026367,,2,3.0
Li6O6U,2.239,-0.0145384,,2,3.0
B3C2Ho2,0.0,-0.0206929,,2,3.0
GeTm2Pt3,0.0,-0.0568481,,2,3.0
Cu4GaDy,0.0,-0.0211471,,2,3.0
Li2CuBa,0.0,-0.0148429,,2,3.0
HYTe,1.3952,-0.0241563,,2,3.0
O6TiSr2Dy,0.0,-0.0177985,,2,3.0
LiMnGaRh,0.0,-0.0182526,,2,3.0
CuEu,0.0,-0.0345885,,2,3.0
Ga2SnPb,0.0,-0.0358987,,2,3.0
Be2GaOs2,0.0,-0.0340563,,2,3.0
LiCu4Hg,0.0,-0.0219305999999999,,2,3.0
Si4ZnOs,0.0,-0.0210519,,2,3.0
K2BrSb2,0.0,-0.0230538,,2,3.0
Sn2Tb3,0.0,-0.0432043,,2,3.0
O12Mg2SrTe2Ba3,2.0929,-0.0175396,,2,3.0
Li2O5TiCo2,0.0,-0.0107905,,2,3.0
AgSn4Ir2,0.0,-0.0455338,,2,3.0
Si2Ru2Nd,0.0,-0.0276221,,2,3.0
BO5Bi2,0.0,-0.0259757,,2,3.0
B2V2Cr,0.0,-0.0143847,,2,3.0
HMgAgPt2,0.0,-0.0364023,,2,3.0
Al3Si2RuLa3,0.0,-0.0237395,,2,3.0
Al2PdBa,0.0,-0.0226432,,2,3.0
S4CrCu3,0.0,-0.013318,,2,3.0
O8P2CsNp,0.0,-0.0206232,,2,3.0
LiZn4Sr,0.0,-0.0133271,,2,3.0
B2Fe3U,0.0,-0.0290792,,2,3.0
Fe2NiZn,0.0,-0.0165921,,2,3.0
VTa2Re,0.0,-0.0557697,,2,3.0
CBr5Y4,0.0,-0.0235245,,2,3.0
O3NaMn2,0.0,-0.0119152,,2,3.0
MnNi2Tm2,0.0,-0.0312999,,2,3.0
Ni5Zn4,0.0,-0.0151239,,2,3.0
FeDy2Os2,0.0,-0.051833,,2,3.0
Se8Mo6Tm,0.0,-0.0288813,,2,3.0
P2Cu2Nd,0.0,-0.0197362,,2,3.0
NiTeBi,0.0,-0.0441333,,2,3.0
CeTmPb,0.0,-0.0580192,,2,3.0
Co2Zn3Th,0.0,-0.0286407999999999,,2,3.0
Sb2Dy6Ir,0.0,-0.0489398,,2,3.0
F6InEr,5.8444,-0.0166406999999999,,2,3.0
FeRh2Ta,0.0,-0.0385615,,2,3.0
O8KPrW2,4.4744,-0.0226956,,2,3.0
CoAs2Hf6,0.0,-0.0489116,,2,3.0
S3AsAuHg,0.8692,-0.0311712,,2,3.0
S2CsAuHg,1.5273,-0.0395086,,2,3.0
Be2O8P2Ba,5.1315,-0.0121315,,2,3.0
MgKTe3Tm,1.5216,-0.0307961,,2,3.0
SiPm,0.0,-0.0274815,,2,3.0
CuRbTe3Ta,0.0,-0.0361779999999999,,2,3.0
LiHf2Ir,0.0,-0.0503828,,2,3.0
Al5Cu2Ho,0.0,-0.0151685,,2,3.0
SnEuPt,0.0,-0.0542355,,2,3.0
SiLu2Pt2,0.0,-0.0536001,,2,3.0
F6NaTiTl2,0.0,-0.0214173,,2,3.0
Ni2SeSb,0.0,-0.0226391999999999,,2,3.0
Mn2U,0.0,-0.0466621,,2,3.0
Al2PrPt,0.0,-0.0334002,,2,3.0
SbNdEr,0.0,-0.0445688,,2,3.0
H6FeNd2,0.0,-0.0145632,,2,3.0
O6CoWPb2,0.0,-0.0291669,,2,3.0
Ho3Hg,0.0,-0.0540902,,2,3.0
AsHf2Pt,0.0,-0.0551165,,2,3.0
InBaIr,0.0,-0.0484244,,2,3.0
BaPt3,0.0,-0.063251,,2,3.0
PCuHf4,0.0,-0.0466368999999999,,2,3.0
RhIr5,0.0,-0.0648923999999999,,2,3.0
CuRh2Os,0.0,-0.0386274999999999,,2,3.0
O6Mg2AgW,0.0,-0.0169541,,2,3.0
O4Ca2Pb,1.5395,-0.0194846,,2,3.0
Cl6K2RbMo,1.337,-0.0137126,,2,3.0
O4Rb2W,4.5572,-0.0217767,,2,3.0
NiSr2Ir2,0.0,-0.0409025,,2,3.0
MgCo4Nd,0.0,-0.0196054999999999,,2,3.0
CSi2Cr2U2,0.0,-0.0392546,,2,3.0
PdCdTh,0.0,-0.0536802,,2,3.0
F6MnZn,1.9193,-0.0092418999999999,,2,3.0
NaP2Ni2Np,0.0,-0.0279769,,2,3.0
Ho2Pt3,0.0,-0.063079,,2,3.0
YRh3Sn2,0.0,-0.0341596,,2,3.0
GeTc2Ta,0.0,-0.0393721,,2,3.0
OSZnSr,2.5215,-0.0149499,,2,3.0
Ga2Sb2Cs,0.0,-0.0293395,,2,3.0
TmPt4Hg,0.0,-0.0676269,,2,3.0
FeGeLu,0.0,-0.031439,,2,3.0
Zn2YPb,0.0,-0.0330424,,2,3.0
Ga2Se4Eu,0.0,-0.0249328,,2,3.0
SiCaPt,0.0,-0.0311015,,2,3.0
Al9Ni2Sr,0.0,-0.0107789,,2,3.0
AsSb,0.0,-0.0287183999999999,,2,3.0
O6TiNiTb2,0.944,-0.0195406,,2,3.0
Zr5Hg,0.0,-0.0370874,,2,3.0
ScSe2La,0.0,-0.0263411,,2,3.0
C2RuGd,0.0,-0.028701,,2,3.0
SrY2Cd,0.0,-0.0272461,,2,3.0
ZnSm2Os2,0.0,-0.0495643,,2,3.0
Rb2CdPb,0.1322,-0.0372115,,2,3.0
O8P2RbTa,3.4118,-0.01587,,2,3.0
Cu4CdSn,0.0,-0.0211683999999999,,2,3.0
Mg2Sn2Eu,0.0,-0.0275993,,2,3.0
AlCrGe,0.0,-0.0151969,,2,3.0
Zn2RuPr,0.0,-0.0265778999999999,,2,3.0
GaRu2Hf,0.0,-0.0378813,,2,3.0
CoSe2Cs,0.0118,-0.0244401,,2,3.0
NaIn2Au2,0.0,-0.0421976,,2,3.0
N3WPu,0.0,-0.0423968,,2,3.0
As4Rb2Cd3Sn,0.0,-0.025318,,2,3.0
Hg3Pb,0.0,-0.0700346,,2,3.0
S3CoRb2,0.0,-0.015428,,2,3.0
Be5Tm,0.0,-0.0124049,,2,3.0
ScTe3,0.0,-0.0322929,,2,3.0
C4Tb3Os,0.0,-0.0319083,,2,3.0
Co4HgPu,0.0,-0.0411532,,2,3.0
F6CaGe,6.3488,-0.0094608,,2,3.0
ZnZrRh,0.0,-0.0267341,,2,3.0
S2Os,0.0,-0.0308494,,2,3.0
O5S2Ti2Lu2,0.4389,-0.0207382999999999,,2,3.0
LiAg,0.0,-0.0170774,,2,3.0
FeSe2Hg,0.0,-0.031775,,2,3.0
Si2ZnEr2,0.0,-0.0275505999999999,,2,3.0
Ge3As4,0.0,-0.0197124999999999,,2,3.0
Sc6Sb2W,0.0,-0.0260614999999999,,2,3.0
GaTc2Pa,0.0,-0.0468132999999999,,2,3.0
GeRbAu2,0.0,-0.0448377,,2,3.0
O6CaTi2Pb,1.9094,-0.0184389,,2,3.0
S3TiCuCs,0.107,-0.0176032,,2,3.0
Rh2Cd2Hg,0.0,-0.0393673,,2,3.0
LiGe2Er2,0.0,-0.0290218,,2,3.0
SiCoPu,0.0,-0.0461251,,2,3.0
AsRuLu,0.0,-0.0378237,,2,3.0
H16Li3O12V,4.028,-0.0062712,,2,3.0
Se2Br6Ru,0.7262,-0.0215195,,2,3.0
O6Sr2LaPt,0.0,-0.0218916,,2,3.0
Ge2Zr2Ir,0.0,-0.0351141,,2,3.0
MgBr3Tl,2.8547,-0.0284607999999999,,2,3.0
AlGa3Sr2,0.0,-0.0174094,,2,3.0
NaCuSe3Dy,0.0,-0.0224913,,2,3.0
AsBrHg2,0.0,-0.0441589,,2,3.0
F6EuDy,0.0,-0.0193016,,2,3.0
SiGd2Os3,0.0,-0.0576477,,2,3.0
B2N3Fe2Tm3,0.0,-0.0248569,,2,3.0
H2Sr2Pd,0.0,-0.0174069,,2,3.0
CO3Cd,2.7634,-0.013339,,2,3.0
O6TiBa2Tm,0.0,-0.0217044999999999,,2,3.0
Tm6OsBi2,0.0,-0.0606595999999999,,2,3.0
C2ClSr2,0.0,-0.0154484999999999,,2,3.0
OK2As2Er2,0.0,-0.0251567,,2,3.0
Cl6NiCs2Au,0.0,-0.0221889,,2,3.0
NSi3Ta5,0.0,-0.0420493,,2,3.0
Cu2Ga5Pr,0.0,-0.0198307,,2,3.0
F6CrTl,0.4274,-0.0164823,,2,3.0
H9C2O10KNi,1.635,-0.0073054,,2,3.0
Li6F8Mn,0.0,-0.0069474,,2,3.0
N2HoTh,0.0,-0.0427091,,2,3.0
P2S7KGa,1.991,-0.0108733,,2,3.0
AlPPt5,0.0,-0.053447,,2,3.0
SiP2Rb2,1.145,-0.0150479,,2,3.0
HLiO3Ce2,0.0,-0.0189662,,2,3.0
Se4Nb5,0.0,-0.0280807,,2,3.0
H2Zr3Sn,0.0,-0.0230416,,2,3.0
NaS3MnCu,0.0,-0.0118978,,2,3.0
TiZrSb,0.0,-0.0287299,,2,3.0
As2Rb2Bi,0.0,-0.0324577,,2,3.0
AgPt2Pb4,0.0,-0.0679837,,2,3.0
LiTiTe2,0.0,-0.024139,,2,3.0
O12Al3Sr3LaTa,0.0,-0.017036,,2,3.0
KTiCu2As2,0.0,-0.0163439,,2,3.0
F6ScLu,6.8491,-0.0156574,,2,3.0
Y2Pt,0.0,-0.0431167,,2,3.0
MgGeAu2,0.0,-0.0409828,,2,3.0
RbIn2Hg2,0.0,-0.0449932,,2,3.0
FeLa3Pb,0.0,-0.045064,,2,3.0
As3Pb,0.0,-0.0340266,,2,3.0
FeSnTh,0.0,-0.0502856999999999,,2,3.0
CAsZr3,0.0,-0.0255699,,2,3.0
Cu4CdEu,0.0,-0.0242764,,2,3.0
PSe4Ag3,0.3366,-0.0232334,,2,3.0
Ga3Dy,0.0,-0.0248434999999999,,2,3.0
SeDyBi,0.0,-0.0501419,,2,3.0
ZnAsZr2,0.0,-0.0246572,,2,3.0
Li3S4Nb,2.7391,-0.0111206,,2,3.0
Si2Ga3Nd2,0.0,-0.0228845999999999,,2,3.0
CeTa7O19,0.076899999999999,-3.409393056530863,mp-1213884,2,3.0
H2Sr2Au,0.0,-0.0248279,,2,3.0
H3OBr,4.4772,-0.0080137,,2,3.0
Ni2ZrIr,0.0,-0.0341477,,2,3.0
B2O6MgMn2,1.5632,-0.0109808,,2,3.0
Rh2Ho3Pb3,0.0,-0.0560292,,2,3.0
CuSe3,0.0,-0.0188235,,2,3.0
CePm3,0.0,-0.0440629,,2,3.0
CuRhCd,0.0,-0.0264411999999999,,2,3.0
Ge2RhSn3Ho3,0.0,-0.0370414,,2,3.0
CSnDy3,0.0,-0.0386265,,2,3.0
Te2Nd6Au,0.0,-0.0459664,,2,3.0
O4Pd2Pb,0.0,-0.0245514,,2,3.0
HSn2Ba,0.0,-0.0291219,,2,3.0
O4CoSrLa,0.0,-0.0181826,,2,3.0
O4ClCaBi2,0.0,-0.026571,,2,3.0
PSr2Au,0.5375,-0.0321030999999999,,2,3.0
In2ILa2,0.0,-0.0388793999999999,,2,3.0
P2CuTh2,0.0,-0.0467897,,2,3.0
Cu2As2Pa,0.0,-0.0345625,,2,3.0
AgBaPb2,0.0,-0.0560542999999999,,2,3.0
MgCo2Ce2,0.0,-0.0257414999999999,,2,3.0
Si2Ni3Th,0.0,-0.0281312999999999,,2,3.0
AlCo2Re,0.0,-0.0285797,,2,3.0
Ca2Cu2Cd,0.0,-0.0162475999999999,,2,3.0
GaEr2Au2,0.0,-0.0520481,,2,3.0
LiP2,0.7872,-0.0081353,,2,3.0
Cl4NiI2Cs2,0.5932,-0.0231833,,2,3.0
Zn2PdEu,0.0,-0.0289147,,2,3.0
Zn2BaAu,0.0,-0.0344245,,2,3.0
Rh2Tb2Tl,0.0,-0.0474667,,2,3.0
NaBr2Au,2.7592,-0.0289354,,2,3.0
Rh2IrPt,0.0,-0.0522675,,2,3.0
OFLu,4.9628,-0.0260108,,2,3.0
ZrRe2,0.0,-0.058077,,2,3.0
F8Na2CaBa,0.0,-0.0100992,,2,3.0
Al5CoTb,0.0,-0.0151522,,2,3.0
FeRh2W,0.0,-0.0390578,,2,3.0
Al3Ho2Ir,0.0,-0.0329469,,2,3.0
AsRhTh,0.0,-0.0512506,,2,3.0
BTa2,0.0,-0.0474007,,2,3.0
LiMg2Ag,0.0,-0.0111977,,2,3.0
Si2Co3Gd,0.0,-0.0223754,,2,3.0
SCl2La2,0.0,-0.0247867,,2,3.0
OAgTeEu,0.0,-0.0338095,,2,3.0
CoSb2Pr6,0.0,-0.0396676,,2,3.0
CoTcIr2,0.0,-0.0487686,,2,3.0
InSn2Tl,0.0,-0.0442845,,2,3.0
Fe2ZnZr2,0.0,-0.0223671,,2,3.0
Ca2Pd2La,0.0,-0.0262358,,2,3.0
SSb,0.0,-0.0235872,,2,3.0
B6Co2Er,0.0,-0.0148743,,2,3.0
SbEuPt,0.0,-0.054866,,2,3.0
N2SmEu,0.0,-0.0305723,,2,3.0
CN2BrPu,0.0,-0.0324896,,2,3.0
H8FeCo2Ce,0.0,-0.0105372,,2,3.0
ZnRe,0.0,-0.0423112,,2,3.0
F6Rb2RuTl,0.0,-0.0192887,,2,3.0
CuLu2Pt2,0.0,-0.0544717,,2,3.0
Zr2TaRe,0.0,-0.0499639,,2,3.0
LiCaZn4,0.0,-0.011297,,2,3.0
Br6Rb2Lu,0.0,-0.0254595,,2,3.0
AgGd2,0.0,-0.0499015,,2,3.0
B2Co2Er,0.0,-0.0205218,,2,3.0
Ti3Au5,0.0,-0.0498442,,2,3.0
Li2F6Ce,2.8511,-0.0114454,,2,3.0
CoTe2Ta,0.4752,-0.0399918,,2,3.0
LiCdSn,0.0,-0.0231906,,2,3.0
Al2CoHf,0.0,-0.0244134,,2,3.0
TiSnTe2,0.0,-0.0320382,,2,3.0
GaTb2,0.0,-0.0371211,,2,3.0
SiCrPt,0.0,-0.0335475,,2,3.0
N2HfPu,0.0,-0.0495033999999999,,2,3.0
NiCu2Ba,0.0,-0.0215149,,2,3.0
Ti6NiSe2,0.0,-0.0176914,,2,3.0
BF4Cl2CsPb,3.3834,-0.0193203,,2,3.0
B2Ti2Ni,0.0,-0.0133987999999999,,2,3.0
KTe3ErAu,0.0,-0.040941,,2,3.0
MgFe2Dy2,0.0,-0.0273583,,2,3.0
Al2NiTm6,0.0,-0.0383733999999999,,2,3.0
CoGe2Hf2,0.0,-0.036861,,2,3.0
FeNi2W,0.0,-0.0300129,,2,3.0
Ge2Sr3,0.0,-0.021541,,2,3.0
Be2MnPt,0.0,-0.0250481,,2,3.0
BeO4SiCa,4.3328,-0.0101561,,2,3.0
O6MgSr2Pt,0.0,-0.017864,,2,3.0
LiP2Cu2Zr,0.0,-0.014764,,2,3.0
AlCo4Tb,0.0,-0.0208501,,2,3.0
Cu2Ge2Np,0.0,-0.0353035,,2,3.0
O8CuSr3RuNd,0.0,-0.0174629,,2,3.0
ZnNd3Au2,0.0,-0.0478902,,2,3.0
MnSe4Rb3,0.6163,-0.0210855,,2,3.0
F6GeHg,2.6329,-0.0157121,,2,3.0
H6Zn2Os,1.7728,-0.0132494999999999,,2,3.0
O3Ca2Pd,0.0863,-0.0141639,,2,3.0
ScZn4La,0.0,-0.0189389,,2,3.0
Ga5Pt2Np,0.0,-0.0416606,,2,3.0
K2RbCs2,0.0,-0.0225458,,2,3.0
Li3O4Zr,0.0,-0.0103751,,2,3.0
Na8In3,0.0,-0.0123089999999999,,2,3.0
Cu2Te4W,0.5319,-0.0356179,,2,3.0
CuHfAu2,0.0,-0.0545376,,2,3.0
P2NiSe6,0.0518,-0.017629,,2,3.0
NSCa6In2,0.0,-0.0153741,,2,3.0
BeMgIr,0.0,-0.0274207,,2,3.0
Co4ZrIn,0.0,-0.0223679,,2,3.0
O5Ti2Te2Np2,0.0,-0.0344377,,2,3.0
PdLu2,0.0,-0.0486240999999999,,2,3.0
SrHg5,0.0,-0.0608975999999999,,2,3.0
O6CoNiTb2,0.0,-0.0190449,,2,3.0
Sc8Hg,0.0,-0.0203115,,2,3.0
Al3ZnGe2Zr3,0.0,-0.0191546999999999,,2,3.0
SbAuNp,0.0,-0.0713848,,2,3.0
NFPCl,5.156,-0.0091142,,2,3.0
S4CoZr2,0.0,-0.0182129,,2,3.0
O4NaPd3,0.0,-0.0168784999999999,,2,3.0
NiDy3Pt2,0.0,-0.0510737,,2,3.0
Te3Lu2,0.2773,-0.045952,,2,3.0
TiAsTe,0.0,-0.0252522,,2,3.0
CoZnTc,0.0,-0.0219098,,2,3.0
C4Sr3Ir,0.0,-0.0225081,,2,3.0
CrSb3Dy,0.0,-0.0361105,,2,3.0
GeAg2Te4Ba,0.0138,-0.0343527,,2,3.0
Rh5Os,0.0,-0.0400842999999999,,2,3.0
S4Zr3,0.0,-0.0204513,,2,3.0
P2Cu2RbPu,0.0,-0.0308834,,2,3.0
MgCuPb,0.0,-0.0321216,,2,3.0
P4SrRh6,0.0,-0.025096,,2,3.0
Co4Ga4Tm3,0.0,-0.0268135,,2,3.0
Bi4Au2O9,0.7795000000000001,-1.303107969833335,mp-559422,2,3.0
F6FeCd,0.0,-0.0109277,,2,3.0
F6AlCuRb2,1.1491,-0.0115422999999999,,2,3.0
MnRuHf2,0.0,-0.0451704,,2,3.0
Al4Co4Pr3,0.0,-0.0212432,,2,3.0