formula,bg,formation_energy,mp-id,fidelity,bg_category
Si3Dy2Pt,0.0,-0.0337492,,2,3.0
O6MnBa2La,0.0,-0.0205619,,2,3.0
AlZnAu,0.0,-0.0306129999999999,,2,3.0
MgPd2Tl,0.0,-0.0361766,,2,3.0
FeRu2W,0.0,-0.0393432,,2,3.0
MgRbI3,2.8323,-0.0285324,,2,3.0
O6NbBa2Gd,2.4813,-0.024122,,2,3.0
Zn2Pd3Th,0.0,-0.0375124,,2,3.0
O6CoNiSm2,0.0,-0.0185588,,2,3.0
Ni2SnAc,0.0,-0.0401315999999999,,2,3.0
CuSr2Pd,0.0,-0.0233865,,2,3.0
ZnHfAu2,0.0,-0.0542054,,2,3.0
FeGe2Nd6,0.0,-0.0357277,,2,3.0
W2RePt,0.0,-0.0703082,,2,3.0
CdTmIr4,0.0,-0.0615803,,2,3.0
Zn2ZrRh,0.0,-0.0234749,,2,3.0
Ge2Sr2Bi,0.0,-0.0329213999999999,,2,3.0
BeSnDy,0.0,-0.0298896,,2,3.0
ScZr7,0.0,-0.0285806,,2,3.0
MgCo4Nb,0.0,-0.0178417999999999,,2,3.0
O8S2RbIn,4.0284,-0.0121061,,2,3.0
Na2Sr2Ba,0.0,-0.0184217,,2,3.0
Zn2Y3Hg,0.0,-0.0303511,,2,3.0
BSeSr3,0.0,-0.0191903,,2,3.0
AlAg,0.0,-0.0196574,,2,3.0
Zr6CdBi2,0.0,-0.0416473,,2,3.0
CaMnSn2,0.0,-0.0253669,,2,3.0
Al3CoPr2,0.0,-0.0215977,,2,3.0
Si2MnFeLa,0.0,-0.0204997,,2,3.0
In5BaAu2,0.0,-0.0435887,,2,3.0
PCrHf,0.0,-0.0314543,,2,3.0
H6MnHo2,0.0,-0.0158262,,2,3.0
O6WIr,0.0,-0.0235979999999999,,2,3.0
Al4RhBa,0.0,-0.0180057,,2,3.0
AlAg2Ac,0.0,-0.0405899,,2,3.0
Sc2AuPb,0.0,-0.0441552,,2,3.0
F12AgSb2,0.5252,-0.0120378,,2,3.0
Ru2Tm3Ir,0.0,-0.0501269,,2,3.0
Cl6Br5Sb,1.3212,-0.0155638,,2,3.0
Ga4ErPt,0.0,-0.0317453,,2,3.0
O4PrBi,0.6833,-0.0265267,,2,3.0
Al5Ni2Ta,0.0,-0.0177473,,2,3.0
O2CuRh,0.6584,-0.0162146,,2,3.0
Si7Co2Zr3,0.0,-0.0170127,,2,3.0
F3MnCs,1.6973,-0.0163038,,2,3.0
CoNi2Hf3,0.0,-0.0400726999999999,,2,3.0
RbZrPdTe3,0.0,-0.0336249,,2,3.0
H8Mg2CaNi,0.0,-0.0055660999999999,,2,3.0
PrTl,0.0,-0.0584502,,2,3.0
NTi2Ga,0.0,-0.0157761,,2,3.0
O2PdLa2,0.49,-0.0290046,,2,3.0
BZn2Rh6,0.0,-0.0265927,,2,3.0
Li2MgP2Cd,1.3259,-0.0108806999999999,,2,3.0
NGaCe,0.0,-0.0244657,,2,3.0
Al3Ge2Th,0.0,-0.0265171,,2,3.0
Ge2RhSn3Pr3,0.0,-0.0352183,,2,3.0
V2Se2Rb,0.0,-0.0200768,,2,3.0
F6CrGa,1.6251,-0.0099604999999999,,2,3.0
B2Al2Fe3,0.0,-0.0124779,,2,3.0
NiLu6Pb2,0.0,-0.0560261,,2,3.0
B2N3Ru2Th3,0.0,-0.0412023,,2,3.0
RuPdTm2,0.0,-0.0436539,,2,3.0
Si2AgNd,0.0,-0.0242839,,2,3.0
O6FeCuLa2,0.0,-0.0182811999999999,,2,3.0
O6MgMn3,0.0,-0.0119744,,2,3.0
CAlCr2,0.0,-0.0138584,,2,3.0
InBa2Au,0.0,-0.0460507,,2,3.0
FeTcLa2,0.0,-0.0347352,,2,3.0
P4Os,1.2562,-0.0231757,,2,3.0
Pd2Dy3Hg,0.0,-0.0470703,,2,3.0
GeLuPt,0.0,-0.0495765,,2,3.0
O6TiSr2Ta,0.0,-0.0197964,,2,3.0
AlCuPt,0.0,-0.0318025,,2,3.0
C2CrLa,0.0,-0.0206081,,2,3.0
Zn2Pt2Au,0.0,-0.0477236,,2,3.0
O6As4BrCs,2.9352,-0.0160646999999999,,2,3.0
PdTmPb,0.0,-0.0543177,,2,3.0
MgFe4Mo,0.0,-0.0186332,,2,3.0
CaScAg2,0.0,-0.0219531,,2,3.0
SiSrPd,0.0,-0.0225231,,2,3.0
AlNiPt,0.0,-0.0321261,,2,3.0
RhSbHf2,0.0,-0.04987,,2,3.0
ScZnLa2,0.0,-0.028668,,2,3.0
N2Dy7Tl3,0.0,-0.0485587,,2,3.0
PdHoTl,0.0,-0.0521475,,2,3.0
Si3P2Rh,0.5569,-0.0145239,,2,3.0
Al8Cu,0.0,-0.0086119,,2,3.0
LiFe4Ta,0.0,-0.0235226,,2,3.0
Co3Zn5,0.0,-0.014962,,2,3.0
CaPrHg2,0.0,-0.0480853,,2,3.0
Cl6KMnRb2,0.2143,-0.0134395,,2,3.0
CoZr6Sb2,0.0,-0.031296,,2,3.0
Mg2CuSr,0.0,-0.0119773,,2,3.0
Si3CeAu,0.0,-0.0292449,,2,3.0
BGa2Ru2Tb,0.0,-0.0267912,,2,3.0
FRb,5.5978,-0.0149812,,2,3.0
Li2SiRh,0.0,-0.0127291,,2,3.0
Co2GaCe,0.0,-0.0241848,,2,3.0
CMgY2Hg,0.0,-0.0282725,,2,3.0
HPd2Bi,0.0,-0.0370319999999999,,2,3.0
KAs2Pd4,0.0,-0.0261444,,2,3.0
P3NiMo2,0.0,-0.0200649,,2,3.0
GaAsBa,0.0,-0.0262342,,2,3.0
BGa2Rh2Nd,0.0,-0.0259662,,2,3.0
Al4YCe,0.0,-0.0177375,,2,3.0
BCo4Pa,0.0,-0.029628,,2,3.0
O8Rb3Nb,2.6287,-0.0136066,,2,3.0
Ni2InTb,0.0,-0.0286189,,2,3.0
KSe2La,2.1635,-0.0249761999999999,,2,3.0
O6AsSr2Gd,3.4731,-0.0189097,,2,3.0
CrGa2Ta6,0.0,-0.0501895,,2,3.0
F8Na2ZrEu,0.0465,-0.0137736,,2,3.0
SiScNi2,0.0,-0.0149338,,2,3.0
Se2Lu6Os,0.0,-0.0502588,,2,3.0
BeS2Zn,2.9726,-0.0103628,,2,3.0
Be4RhTa,0.0,-0.0200173,,2,3.0
CrFe4Ru,0.0,-0.0208593,,2,3.0
Ti2YRh2,0.0,-0.0263085,,2,3.0
Cl6Cs2Pa,0.3966,-0.0270325999999999,,2,3.0
BGaMo,0.0,-0.0198646,,2,3.0
Ag4Te,0.0,-0.0325128,,2,3.0
Cu4LaAu,0.0,-0.0291378,,2,3.0
Sn2SmAc,0.0,-0.0524003,,2,3.0
SrInBa2,0.0,-0.0339771,,2,3.0
O8SnTh3,2.7426,-0.0346388,,2,3.0
SiPd8,0.0,-0.0304604,,2,3.0
CuGaAu2,0.0,-0.0425913,,2,3.0
Al5Co2Nd,0.0,-0.0151151,,2,3.0
Na2Pd2Sn,0.0,-0.0222948,,2,3.0
Rh3Pd2Pr,0.0,-0.0354480999999999,,2,3.0
Al3ZnSn2Ho3,0.0,-0.0289882,,2,3.0
NiTeI2,0.0,-0.0318588,,2,3.0
Cu2Zn2As4La3,0.0,-0.0252387,,2,3.0
ZnInNd2,0.0,-0.0340206,,2,3.0
AlK3Br6,3.6029,-0.0165881,,2,3.0
AsSbAu,0.0,-0.0422723999999999,,2,3.0
Zn2In5Hf4,0.0,-0.0406982,,2,3.0
Li2MgBi,0.0,-0.0224593999999999,,2,3.0
O4NaSK,5.1496,-0.008804,,2,3.0
GaZrIr2,0.0,-0.0482144,,2,3.0
O5Na5Sb,1.7922,-0.009845,,2,3.0
Zn2YAu2,0.0,-0.0393566,,2,3.0
RuSm3,0.0,-0.0423134,,2,3.0
O2Cl4Cs2Re,0.1918,-0.0228457,,2,3.0
S7Ba3Ta2,0.0,-0.0283675,,2,3.0
MgSiS4Cu2,1.6781,-0.0113238,,2,3.0
F7Mn2Rb,0.0,-0.0110471,,2,3.0
LiO7As2Pr,3.4647,-0.0138963,,2,3.0
Cl2Ce,0.0,-0.0224242,,2,3.0
Rh2In2Ba,0.0,-0.03523,,2,3.0
PCl6RbCs2,2.9111,-0.0170075,,2,3.0
H5Sr2Rh,0.567,-0.0126311,,2,3.0
B4Lu,0.0,-0.0176329,,2,3.0
CaY2In2,0.0,-0.0269874,,2,3.0
SeTe2Sm,0.0,-0.0360418,,2,3.0
O12Al6SCd4,2.7777,-0.0135625,,2,3.0
O2AlRb,3.9285,-0.0130677,,2,3.0
H4CdCs2,1.6495,-0.0172885999999999,,2,3.0
CuRh2Pu,0.0,-0.0484763,,2,3.0
Ni2ReAu,0.0,-0.0431016,,2,3.0
GeY2Pd2,0.0,-0.0290793,,2,3.0
Rh3Pt2Pu,0.0,-0.0589673999999999,,2,3.0
CoSe3YCs,0.0,-0.0253006,,2,3.0
Ti2Ga2Au,0.0,-0.0273653,,2,3.0
SiRh,0.0,-0.0228111,,2,3.0
Al3Er2Ir,0.0,-0.0334044,,2,3.0
BeGeU,0.0,-0.0423934,,2,3.0
NiCuCd2,0.0,-0.0229635,,2,3.0
F6MnCo,0.1691,-0.0096143,,2,3.0
TcW8,0.0,-0.0658254,,2,3.0
KAu2Tl,0.0,-0.0550166,,2,3.0
ZnTm3Pt2,0.0,-0.0527428,,2,3.0
CoSr6Te2,0.0,-0.0256296,,2,3.0
Ca2LaAu2,0.0,-0.0409803,,2,3.0
SiMn8,0.0,-0.0173371,,2,3.0
Mg2GaPd,0.0,-0.015364,,2,3.0
Ga2Cd2Sn,0.0,-0.0257428,,2,3.0
NCr3Ir,0.0,-0.0274392,,2,3.0
LiGeAu,0.0,-0.0307061,,2,3.0
Ga2YMo2,0.0,-0.0264795,,2,3.0
Mg2RbCd2,0.0,-0.0183424,,2,3.0
KRb2Hg,0.0,-0.0295407,,2,3.0
PdAg2Cd,0.0,-0.031601,,2,3.0
LiF6CaV,0.0,-0.0091911,,2,3.0
KNi2Sb2,0.0,-0.0233312,,2,3.0
LiMoI6Cs2,0.9504,-0.0343957,,2,3.0
P12PrOs4,0.0,-0.0274943,,2,3.0
ZrSnSm,0.0,-0.0377220999999999,,2,3.0
CuDy2Au,0.0,-0.0456938,,2,3.0
Si3PdGd,0.0,-0.0249933,,2,3.0
PBrBa2,1.0768,-0.0290206,,2,3.0
NiLuPb,0.0,-0.0496507999999999,,2,3.0
LiO2Dy,4.6553,-0.018881,,2,3.0
SiCuY2,0.0,-0.0208453,,2,3.0
Ag3Pu,0.0,-0.0508230999999999,,2,3.0
CuTcPu2,0.0,-0.0673272,,2,3.0
Se4Nd3,0.0,-0.0322457,,2,3.0
O8Cs3Pr,0.0,-0.0185877,,2,3.0
LiPd2Hg2,0.0,-0.0411031,,2,3.0
InLaPt2,0.0,-0.0552729,,2,3.0
O3CrPb,0.0,-0.0243728,,2,3.0
LiO10Sr2Nb3,1.7149,-0.0159792,,2,3.0
Ag3Ac,0.0,-0.0463549999999999,,2,3.0
H2RbPd2,0.0,-0.0188297999999999,,2,3.0
ZnInSm2,0.0,-0.0344601,,2,3.0
F8SrEu2,0.0,-0.0182693,,2,3.0
GaAu2Th,0.0,-0.0633897,,2,3.0
SbHoHf,0.0,-0.0504178,,2,3.0
SbSmTh,0.0,-0.060062,,2,3.0
N2SeZr2,0.2936,-0.0219268,,2,3.0
AlBr3Sm3,0.0,-0.0298586,,2,3.0
O7Ge2La2,3.9187,-0.0180566,,2,3.0
Sr3PdCs,0.0,-0.0277346,,2,3.0
Co5Ru,0.0,-0.0200766,,2,3.0
CoSm,0.0,-0.0308779,,2,3.0
CSc3Ge,0.0,-0.0152123,,2,3.0
LiP2Pd2Tm,0.0,-0.0244518,,2,3.0
AgHf,0.0,-0.0471608,,2,3.0
Ni4RhPt,0.0,-0.0280601999999999,,2,3.0
S2MnBa,0.0,-0.0209853,,2,3.0
AlGaEr,0.0,-0.0254506,,2,3.0
MgGa3,0.0,-0.0136114,,2,3.0
S2CsIr,1.1323,-0.0328277,,2,3.0
SiZnRh2,0.0,-0.0235427,,2,3.0
ScZn3Pd2,0.0,-0.0206747,,2,3.0
SbTb2,0.0,-0.044485,,2,3.0
OF2RbPb,0.0,-0.0240166,,2,3.0
Al2Te4Hg,1.1013,-0.0336639,,2,3.0
FeLu6Pb2,0.0,-0.0561578,,2,3.0
H8Mg2CrTb,0.0,-0.0088892,,2,3.0
Al2YRh2,0.0,-0.0232927,,2,3.0
SnPt2U,0.0,-0.0704597,,2,3.0
LiCaSb2,0.0,-0.0223324,,2,3.0
LiCaBr6Rb2,0.0,-0.0187493,,2,3.0
H2Zr,0.0,-0.0131875,,2,3.0
N2Ca2Mo,0.0,-0.0154248999999999,,2,3.0
Ni4Ga,0.0,-0.0163933,,2,3.0
Zr2RuTa,0.0,-0.0410081,,2,3.0
AlMoTa2,0.0,-0.0441453,,2,3.0
Mn2CdPt2,0.0,-0.0420414,,2,3.0
S4Cu2SnTl2,0.0,-0.0280869,,2,3.0
GaSnEu2,0.0,-0.0405427,,2,3.0
KAgTe3Ho,0.0,-0.0344078,,2,3.0
MgCaHg2,0.0,-0.0383162,,2,3.0
Ni2GaSr,0.0,-0.0181159,,2,3.0
NiTbHg,0.0,-0.0441831,,2,3.0
Si2Ga3RhNd3,0.0,-0.0267514,,2,3.0
Br4Pt,0.8111,-0.0298978,,2,3.0
Mg2RuIn,0.0,-0.0197159,,2,3.0
BrSr2Pt,0.0,-0.0349631,,2,3.0
Be2Pt,0.0,-0.0271419,,2,3.0
Si2IrTh,0.0,-0.0478349,,2,3.0
AgIn,0.0,-0.0323594,,2,3.0
O2F2BrCs,4.1771,-0.0139548,,2,3.0
Na2CaSn2,0.0,-0.0183389999999999,,2,3.0
Ge2In3Tm3Pt,0.0,-0.0412651,,2,3.0
AgCd3Cs,0.0,-0.0320675,,2,3.0
Co2Ce2Pb,0.0,-0.0401732,,2,3.0
SiScTa,0.0,-0.030914,,2,3.0
F6CoCs,0.0,-0.0115687999999999,,2,3.0
Si2Cu4Tm3,0.0,-0.0267889,,2,3.0
SiClNd,0.0,-0.0220561,,2,3.0
CoNi2Dy2,0.0,-0.0293370999999999,,2,3.0
Pd2Ho2Pb,0.0,-0.0488359,,2,3.0
Mg4CaZn2,0.0,-0.0082086,,2,3.0
Co3U2,0.0,-0.0518229,,2,3.0
O2SNp2,0.0,-0.0497357,,2,3.0
NiGe3Ce,0.0,-0.0242368,,2,3.0
Al2SiCu8,0.0,-0.0135219,,2,3.0
Ru2CeSm,0.0,-0.0399655,,2,3.0
Sr3Pd,0.0,-0.0252778,,2,3.0
O6CaSnLa2,4.0451,-0.0200248999999999,,2,3.0
SAsOs,1.2106,-0.0343484,,2,3.0
Al2RuHo,0.0,-0.0255198,,2,3.0
Tb5Au2Bi,0.0,-0.0572344,,2,3.0
Fe5Pm,0.0,-0.0223714,,2,3.0
PdDy2Pt,0.0,-0.0509191,,2,3.0
CoIn2Nd,0.0,-0.0322171,,2,3.0
AsBr3Eu3,0.0,-0.0361968,,2,3.0
SnErPt,0.0,-0.053447,,2,3.0
Ge3Ba2,0.0,-0.0277836,,2,3.0
B2RuTa2,0.0,-0.0372571,,2,3.0
FeLa6Tl2,0.0,-0.0470871,,2,3.0
ZnZr3Pd2,0.0,-0.0290905,,2,3.0
Ge2SrIr3,0.0,-0.0462481,,2,3.0
CoZr2Mo,0.0,-0.0285529,,2,3.0
B4NiDy,0.0,-0.0162574,,2,3.0
PdSb2Er,0.0,-0.0402519,,2,3.0
Mg2CuZn3,0.0,-0.0112067,,2,3.0
Ba2Au,0.0,-0.0500493,,2,3.0
Na2PPd2,0.0,-0.0173021,,2,3.0
LiAlGa2,0.0,-0.0108768999999999,,2,3.0
GaRh2Ac,0.0,-0.0443547,,2,3.0
Li2O4F4V3,0.0,-0.0102758,,2,3.0
OSc2Zr,0.0,-0.0178962,,2,3.0
S8VGaMo3,0.1669,-0.0175086,,2,3.0
BAl2Mn2Ho,0.0,-0.0185284,,2,3.0
NaGeAu,0.0,-0.0312654,,2,3.0
Sm2Pt2Tl,0.0,-0.0614709,,2,3.0
Ti6Sb2Au,0.0,-0.0271902,,2,3.0
CdSn2Th2,0.0,-0.0592419,,2,3.0
Co7Zn,0.0,-0.0167779999999999,,2,3.0
LiMgAl2,0.0,-0.0057798,,2,3.0
LiO4RbW,4.2099,-0.01916,,2,3.0
SGeY,0.0,-0.0203966,,2,3.0
O7Al2CaSb2,3.1671,-0.0144662,,2,3.0
H2MnPd,0.0,-0.0146264,,2,3.0
Y2PdTl,0.0,-0.0409688999999999,,2,3.0
B4ScTa,0.0,-0.0193443,,2,3.0
OLa3Bi,0.0,-0.0445042,,2,3.0
O5MnCoYBa,0.0,-0.0174651,,2,3.0
ErPt2Au,0.0,-0.0660589999999999,,2,3.0
Zn2Sm3Hg,0.0,-0.0385782999999999,,2,3.0
F6In2Dy,0.0,-0.0181315999999999,,2,3.0
Li2AsPt,0.0,-0.0245782999999999,,2,3.0
RuSb2U,0.0,-0.0535062,,2,3.0
Li3SiBa,0.0,-0.0115115,,2,3.0
O8NiLa4,0.6213,-0.0214562999999999,,2,3.0
O2BrSrSb,2.8883,-0.0204806999999999,,2,3.0
SnPm2Au,0.0,-0.0491466,,2,3.0
PTeSm,0.0205,-0.031965,,2,3.0
PRbPt2,0.0,-0.0434036,,2,3.0
Zn2NbIr,0.0,-0.0332391,,2,3.0
ZnY2Ru,0.0,-0.0264857,,2,3.0
F6InPr,6.0042,-0.0156852,,2,3.0
NMn3Cu,0.0,-0.0161391,,2,3.0
Li3O4F3Ni4,0.0,-0.0097074,,2,3.0
Zn2In2Sn,0.0,-0.025806,,2,3.0
OF5NbCs2,4.2234,-0.0178677,,2,3.0
GeSnTe3,0.0,-0.0334467,,2,3.0
H7K3Cu2,0.0,-0.006699,,2,3.0
H4Ti2Zr,0.0795,-0.0114934999999999,,2,3.0
CuTbHg,0.0,-0.0438404,,2,3.0
H6N2MgCl2,4.7471,-0.0064063,,2,3.0
AlCuPm2,0.0,-0.0279623,,2,3.0
Ag2Pr2Tl,0.0,-0.0447477,,2,3.0
Ni3Cu2Pr,0.0,-0.0205887999999999,,2,3.0
O7Na2Nb2Eu,0.0,-0.0170667,,2,3.0
O3VBi,0.0,-0.0248314,,2,3.0
H5Rb3Pt,2.4308,-0.0170782999999999,,2,3.0
Si2Ti2Pt,0.0,-0.0254617,,2,3.0
RhIn5Eu,0.0,-0.0368496,,2,3.0
Si7Rh2Pr3,0.0,-0.0230371999999999,,2,3.0
Au4Tl,0.0,-0.0697841,,2,3.0
GaCdTl2,0.0,-0.0477085,,2,3.0
Ga4Nb2Tb,0.0,-0.0260766999999999,,2,3.0
Zn2In2Pr,0.0,-0.0279316,,2,3.0
AlCd2Dy,0.0,-0.0294681,,2,3.0
FeBiPa,0.2161,-0.0655476,,2,3.0
CoSe2Sm6,0.0,-0.0368364,,2,3.0
TeHg,0.0,-0.0528757,,2,3.0
CaZn2Sr2,0.0,-0.0164244,,2,3.0
LiS8Cr4In,0.0,-0.0143282,,2,3.0
CdInTe2,0.0,-0.0349122,,2,3.0
RuIn3Lu2,0.0,-0.0413918,,2,3.0
Fe3Pt5,0.0,-0.0510621,,2,3.0
Si3GdPt,0.0,-0.0326556,,2,3.0
Ta3Re,0.0,-0.0680289999999999,,2,3.0
Sr2BaHg2,0.0,-0.0446111,,2,3.0
CuGa3Y2,0.0,-0.0207191,,2,3.0
O2Co,0.0,-0.0111297,,2,3.0
Se4CdSnCs2,1.6551,-0.0287448,,2,3.0
As2OsPa,0.0,-0.0536583,,2,3.0
BFe4Zr,0.0,-0.0186858,,2,3.0
Cd2TbLu,0.0,-0.0411562,,2,3.0
GdAu2Pb,0.0,-0.0689077,,2,3.0
LiCdPtTl,0.0,-0.0442095,,2,3.0
Ga2As2Ba,0.0,-0.0232017999999999,,2,3.0
FeNi5,0.0,-0.0166077,,2,3.0
Si2Au2Pu,0.0,-0.0540919,,2,3.0
Li6S4Mn,1.6305,-0.0079075,,2,3.0
N3CrTb,0.1525,-0.0195708,,2,3.0
B2Rh2Pa,0.0,-0.0369743,,2,3.0
LiSe2Tl,0.8401,-0.0294239,,2,3.0
CaSbIr,0.0,-0.0401572,,2,3.0
NiZn5,0.0,-0.0140644,,2,3.0
PSr2Rh,0.0,-0.0230353999999999,,2,3.0
S2CdTl,0.0,-0.0308851,,2,3.0
O6Ba2SmOs,0.0,-0.0259613,,2,3.0
Cu2ZrHg,0.0,-0.0325177,,2,3.0
Mg2Ga2Bi,0.0,-0.0243299999999999,,2,3.0
PBr3Sr3,1.3603,-0.0214101,,2,3.0
H6Sc2Mn,0.0,-0.0080802999999999,,2,3.0
O6FeNiPr2,0.0,-0.0184832,,2,3.0
NPr2,0.0,-0.0329959,,2,3.0
MnRhTe,0.0,-0.0303259,,2,3.0
S2IHg,0.0,-0.0308704,,2,3.0
PdHo3Os2,0.0,-0.0545005999999999,,2,3.0
P3Fe4Cs,0.0,-0.0179879,,2,3.0
LiTe2Nd,0.5212,-0.0315716,,2,3.0
CoSrSn2,0.0,-0.0281918,,2,3.0
F6NaCs2Bi,4.9503,-0.0207472,,2,3.0
MnZnCdTe3,0.2677,-0.0294955,,2,3.0
SrYAg2,0.0,-0.0285054,,2,3.0
Ni2CuTb,0.0,-0.0238002,,2,3.0
Co2Ga3Pa3,0.0,-0.0482192,,2,3.0
ClInHg2,0.0,-0.0448162,,2,3.0
PS4Cl2Cu5,1.2453,-0.0121067,,2,3.0
Al2MnY,0.0,-0.0158936,,2,3.0
AlFeW,0.0,-0.0319409,,2,3.0
CuEu2Ir,0.0,-0.0486891,,2,3.0
Sb2PtNp,0.0,-0.0632431,,2,3.0
Si2TiCu,0.0,-0.0132576,,2,3.0
Al5ScFe,0.0,-0.0105458,,2,3.0
CaCo2Sb2,0.0,-0.0240732,,2,3.0
H4ZnBa,2.3666,-0.0115582,,2,3.0
Si3Co2Zr3,0.0,-0.0204466999999999,,2,3.0
Ge2Sn3Dy3Os,0.0,-0.0407595,,2,3.0
Ti3Cu,0.0,-0.0159276,,2,3.0
SrSn2Pm,0.0,-0.0352025999999999,,2,3.0
PrEuAu2,0.0,-0.0597992,,2,3.0
O8Mo2LuTl,3.7694,-0.0230618,,2,3.0
Se3Nb2,0.0,-0.0262237,,2,3.0
CaScZn4,0.0,-0.0133402,,2,3.0
Ca2AgAu2,0.0,-0.0385636,,2,3.0
Ga4PdTb,0.0,-0.0248188,,2,3.0
La6IrBi2,0.0,-0.0549132,,2,3.0
NHo3Pt,0.0,-0.0467224,,2,3.0
In6IrBi2,0.0,-0.0476602,,2,3.0
GaEuHg2,0.0,-0.0520392,,2,3.0
O6Sr2PdPu,0.0,-0.0249514999999999,,2,3.0
Al5Hg,0.0,-0.0177481,,2,3.0
Mg3Ga3Ge2Pd,0.0,-0.015335,,2,3.0
Al6ScFe6,0.0,-0.0134896999999999,,2,3.0
LuIrBi,0.0,-0.0691597,,2,3.0
In5OsPu,0.0,-0.0499419,,2,3.0
O4SmDy,1.9431,-0.0225999,,2,3.0
Al4Ge2Gd3,0.0,-0.0279141,,2,3.0
B2N4Pu3,0.0,-0.0436828,,2,3.0
CaRhTl5,0.0,-0.0580904999999999,,2,3.0
C5Al3Hf3,0.0,-0.024507,,2,3.0
Al3Ca2Os,0.0,-0.0195043,,2,3.0
O7Cu2Sr2YTl,0.0,-0.0189485,,2,3.0
Br6Rb2Pb,0.0348,-0.0271731,,2,3.0
Li2Ge2Cd2La,0.0,-0.0214618,,2,3.0
GaRu2Tm2,0.0,-0.0385682,,2,3.0
P2NiHf,0.0,-0.0258295,,2,3.0
Sn2Hf,0.0,-0.0451337,,2,3.0
BCPtTh,0.0,-0.0466605,,2,3.0
Ca2Pd2Bi,0.0,-0.0334455,,2,3.0
HVCo3,0.0,-0.0146041,,2,3.0
AlRu2Ce2,0.0,-0.0338735,,2,3.0
CuAs2Er,0.0,-0.0273901,,2,3.0
Br8BaNd2,3.0456,-0.0278457,,2,3.0
GaPdLu,0.0,-0.035843,,2,3.0
CuSb2Tm6,0.0,-0.045141,,2,3.0
Br3SbBa3,0.7551,-0.0326071,,2,3.0
AlCuEr,0.0,-0.0249692,,2,3.0
ZnRe3,0.0,-0.0566345,,2,3.0
Si4Ni2Pt,0.0,-0.0209041,,2,3.0
H3IrU,0.0,-0.037238,,2,3.0
Ni2ZnCd2,0.0,-0.0213277,,2,3.0
O2ITa,0.6705,-0.0312215,,2,3.0
ZnGaAc2,0.0,-0.0531117,,2,3.0
Al3FePr2,0.0,-0.0217094,,2,3.0
O4Ba2Pt,0.0,-0.0269046999999999,,2,3.0
MgCa2Pb2,0.0,-0.0357718,,2,3.0
PLaAu,0.0,-0.0421225,,2,3.0
B2C6Ca,0.7102,-0.00967,,2,3.0
Na2LaPb2,0.0,-0.0410998999999999,,2,3.0
TiMo2Re,0.0,-0.0394853,,2,3.0
RhWIr2,0.0,-0.0617273,,2,3.0
Cl4Br2PdCs2,0.5361,-0.0211908,,2,3.0
AsY2Mo,0.0,-0.0281563,,2,3.0
Ni2Ge2Zr,0.0,-0.0209087999999999,,2,3.0
Al7Cu2Zr3,0.0,-0.0152318,,2,3.0
La2Ir2Hg,0.0,-0.0599667,,2,3.0
GaCdHo,0.0,-0.0325414,,2,3.0
F8Dy2Pb,5.6967,-0.0220471,,2,3.0
HTa2,0.0,-0.0457068,,2,3.0
BNRhLa,0.0,-0.0247152,,2,3.0
YPtAu2,0.0,-0.0599826,,2,3.0
I3Ce3Bi,0.0,-0.0471732,,2,3.0
Li3O8Fe3Ni,0.0,-0.0102666,,2,3.0
SiGeCe,0.0,-0.0251418,,2,3.0
Mn2AsPm,0.0,-0.0255478,,2,3.0
Pd2In3Tm3,0.0,-0.0410157,,2,3.0
ZnRuAc2,0.0,-0.057446,,2,3.0
Ag2HoHg,0.0,-0.0452828,,2,3.0
BeFeRh2,0.0,-0.0230304,,2,3.0
O6Ba,0.0,-0.0117963,,2,3.0
Ga2CdIr2,0.0,-0.0413786,,2,3.0
O3U,1.6789,-0.0337768,,2,3.0
Al3CrTb2,0.0,-0.0230164,,2,3.0
RuSbTb,0.0,-0.0404681,,2,3.0
F4AlCs,7.1901,-0.0135754,,2,3.0
HClPr,0.0,-0.0198336,,2,3.0
NiPdLa2,0.0,-0.0342813,,2,3.0
H4CrRu3,0.0,-0.0170739,,2,3.0
RhSmPb2,0.0,-0.0580249,,2,3.0
O6CoPr2Os,0.0,-0.0236819,,2,3.0
ScZn2Au,0.0,-0.0282194,,2,3.0
Fe2RhIr,0.0,-0.0355098,,2,3.0
Te2Ho6Ir,0.0,-0.0498004,,2,3.0
CoSn3Sm,0.0,-0.0342767,,2,3.0
Na3DyBi2,0.0,-0.0367984,,2,3.0
Si4CuHf2,0.0,-0.0263040999999999,,2,3.0
Cl2SeSr2,3.4194,-0.0186609,,2,3.0
ZnPd3,0.0,-0.0282872999999999,,2,3.0
K2AsPb,0.0,-0.0285874,,2,3.0
NClBa6Tl2,0.0,-0.040765,,2,3.0
SiOsPu,0.0,-0.0643302,,2,3.0
MgNiPb,0.0,-0.0324417,,2,3.0
CuPtPu2,0.0,-0.0766011,,2,3.0
FSe2SbEu,0.0,-0.0287757,,2,3.0
Lu3Ir,0.0,-0.0600476,,2,3.0
LiBO3Bi,1.1619,-0.019804,,2,3.0
SeRh2Pb,0.0,-0.041084,,2,3.0
La2Os,0.0,-0.0529716,,2,3.0
SiRhPd2,0.0,-0.0278794,,2,3.0
Fe4InHf,0.0,-0.0282433,,2,3.0
Cu2Se3Sn,0.0,-0.0213796999999999,,2,3.0
As2In2Nd,0.0,-0.0308444,,2,3.0
ScMnZn4,0.0,-0.0147257,,2,3.0
Mg3Al3Sn2Pt,0.0,-0.0205115,,2,3.0
Co2Pa,0.0,-0.0448459,,2,3.0
S2K2Cs,0.0,-0.0157842,,2,3.0
H8Mg2MnBa,0.0,-0.0083598,,2,3.0
Ga3TcTl,0.0,-0.0312619,,2,3.0
TiSe4Nb2,0.0,-0.0243047,,2,3.0
In3Tl5,0.0,-0.0576897,,2,3.0
Se2InLu,0.5083,-0.0336218,,2,3.0
AlCa2Zn2,0.0,-0.0110569,,2,3.0
C5Ca4Ru3,0.0,-0.0161727999999999,,2,3.0
SiS4Cu2,0.0,-0.0116869,,2,3.0
Si2FeEr,0.0,-0.0227823,,2,3.0
Sr2Ir,0.0,-0.0387364,,2,3.0
CePr3,0.0,-0.043562,,2,3.0
H2O5SZn,4.5716,-0.0082783,,2,3.0
O6Sr2DyBi,2.197,-0.0234521,,2,3.0
Be2RbSb2,0.0,-0.0209452,,2,3.0
BRu2In2Nd,0.0,-0.0316735,,2,3.0
S4Ti2Pd,0.0,-0.0160424,,2,3.0
Cu5Sm,0.0,-0.0202688,,2,3.0
Te3Ac2,1.9574,-0.0602568,,2,3.0
MgSiCa,0.0,-0.0086991,,2,3.0
PZr2,0.0,-0.0251021999999999,,2,3.0
KGa2Ag,0.0,-0.0182033999999999,,2,3.0
MnHfPt2,0.0,-0.0564321,,2,3.0
K2RhSb2,0.0,-0.0254386,,2,3.0
P2SrRh2,0.0,-0.0231156,,2,3.0
LaEuHg2,0.0,-0.0590167,,2,3.0
Cu3Er,0.0,-0.0241947,,2,3.0
Al2In3Lu3,0.0,-0.0356483,,2,3.0
Li2O4TiCo,0.0,-0.0102966,,2,3.0
Si2Ga3Y2,0.0,-0.0184128,,2,3.0
O6RuBa2Ho,0.0,-0.0228025,,2,3.0
Ni3Se2Tl2,0.0,-0.0335257,,2,3.0
FeGeMo,0.0,-0.0242203,,2,3.0
Mg4ScSr,0.0,-0.0094132,,2,3.0
NaCd2Hg2,0.0,-0.040424,,2,3.0
O2TeDy2,1.0536,-0.0323248,,2,3.0
Ca3Zn,0.0,-0.0107616999999999,,2,3.0
S4TiCu3,0.0,-0.0132452,,2,3.0
Mn2PrPu,0.0,-0.0474711,,2,3.0
BeGeRu2,0.0,-0.0236463,,2,3.0
CoNiIr2,0.0,-0.0439141,,2,3.0
O8P2BaDy,0.0,-0.0161315,,2,3.0
Se2RbTl,0.5408,-0.0340407999999999,,2,3.0
AsLa2Tl,0.0,-0.0458192,,2,3.0
ZrTmPb,0.0,-0.0533755999999999,,2,3.0
TiNi4In,0.0,-0.0193079,,2,3.0
S2SeRb,0.0,-0.0152698,,2,3.0
AlCa2La,0.0,-0.0176799,,2,3.0
F6MgSn,5.1349,-0.0108408999999999,,2,3.0
TiRb2Te3,0.1587,-0.0292387,,2,3.0
P2Pd2Tb,0.0,-0.0276422999999999,,2,3.0
K4Te8O23,1.2989,-1.629714921780952,mp-1212432,2,3.0
PS4Ag2Cs,1.1638,-0.0192376,,2,3.0
O4PdLu2,0.591,-0.0271072999999999,,2,3.0
Al3RhSn2Pu3,0.0,-0.0513761,,2,3.0
O5S2Ti2Pu2,0.0,-0.0303659,,2,3.0
MgGa2Tc2,0.0,-0.0217555,,2,3.0
Ca5Zn3,0.0,-0.0112045999999999,,2,3.0
SbTa5,0.0,-0.0617672,,2,3.0
P2Se6Rb2Sn,0.3827,-0.020501,,2,3.0
Ca2Te2Re,0.0,-0.0332777,,2,3.0
AlSi2Lu2,0.0,-0.0284163,,2,3.0
N2RbTc,0.0,-0.018943,,2,3.0
CuInTm,0.0,-0.0339966,,2,3.0
GaGd,0.0,-0.0382847,,2,3.0
O6Ti2La,0.1637,-0.0157267,,2,3.0
PrPtHg,0.0,-0.0615335,,2,3.0
HFe2,0.0,-0.0130189,,2,3.0
S3CaCuTb,1.1287,-0.01862,,2,3.0
Mg2Br2Sb,0.0,-0.0182866,,2,3.0
PSeAg,0.0,-0.0206738,,2,3.0
Li2KSb,0.9153,-0.0132337,,2,3.0
AsPdCs,0.0,-0.0307739,,2,3.0
Al3Ge2La3Os,0.0,-0.0299412999999999,,2,3.0
O8K3Se2,0.0,-0.0100550999999999,,2,3.0
GeNbHf,0.0,-0.0389864,,2,3.0
In5Tm4Pt2,0.0,-0.047699,,2,3.0
CFe2Ge2Pr2,0.0,-0.0249901,,2,3.0
SrTe2Au2,0.0,-0.0478399,,2,3.0
As2Pu,0.0,-0.0508046999999999,,2,3.0
Na2RbBi2,0.0,-0.0376202,,2,3.0
Ru2Tm3Pt,0.0,-0.0501439,,2,3.0
H16LiB4MnRb,1.7126,-0.005799,,2,3.0
Ge2Ag2Ba,0.0,-0.0284728,,2,3.0
GaY2Pd2,0.0,-0.0285074,,2,3.0
LiNi4Y,0.0,-0.016124,,2,3.0
SiCo3Y2,0.0,-0.0199062,,2,3.0
O8AlSi3Rb,4.8005,-0.0114097,,2,3.0
Co2Mo,0.0,-0.0230368,,2,3.0
LiAs2Pd2Tb,0.0,-0.026843,,2,3.0
Co2In4Tm3,0.0,-0.0364081,,2,3.0
Na2CsHg2,0.0,-0.0367252999999999,,2,3.0
Co2Tm,0.0,-0.0290091,,2,3.0
BHf3Tl,0.0,-0.0539095,,2,3.0
BrSm,0.0,-0.0333547,,2,3.0
SnHg2Pb,0.0,-0.0618913,,2,3.0
Ga3ErPt2,0.0,-0.0408734,,2,3.0
O3F3MoCs3,4.0135,-0.0204113,,2,3.0
AgDy2Ir,0.0,-0.0502651,,2,3.0
MgKI3,2.6998,-0.0260015,,2,3.0
H8Mg2RuPr,0.0,-0.0100932,,2,3.0
ZnAgLa2,0.0,-0.0331124,,2,3.0
MgInSn,0.0,-0.0248371,,2,3.0
BLa2Pt6,0.0,-0.0581515,,2,3.0
Fe2U,0.0,-0.0464660999999999,,2,3.0
O4ZnCd3,0.0,-0.0174583,,2,3.0
FeCo2Sn,0.0,-0.0222413,,2,3.0
O2NaCu3,0.9216,-0.0111568,,2,3.0
CoGeTh,0.0,-0.0447221,,2,3.0
Ga4TbAu,0.0,-0.0307385,,2,3.0
Al9Fe2Y,0.0,-0.0114215,,2,3.0
NaAg2In2,0.0,-0.0268254,,2,3.0
F6SnNp,0.0,-0.0236335,,2,3.0
PdCd2Dy,0.0,-0.0359660999999999,,2,3.0
H2CU2,0.0,-0.0448612,,2,3.0