formula,bg,formation_energy,mp-id,fidelity,bg_category
GeLuOs,0.0,-0.04952,,2,3.0
HAgCs3,0.0,-0.029677,,2,3.0
SiTe7Bi4,0.3537,-0.04883,,2,3.0
Sc2TiGe2,0.0,-0.0173327,,2,3.0
BeMn2Ru,0.0,-0.0190635,,2,3.0
SiClY,0.0,-0.0167775,,2,3.0
F6CaHg,0.5274,-0.0144602,,2,3.0
HSbBa,0.3492,-0.0274851,,2,3.0
AlSiNp,0.0,-0.0417714,,2,3.0
Co3Nb2Ir,0.0,-0.0317475,,2,3.0
LiO2Ta,1.9043,-0.022931,,2,3.0
CuCd2,0.0,-0.0253125,,2,3.0
O7Si2Ga2,3.6616,-0.0112969,,2,3.0
KAg2Te2,0.0,-0.0295672999999999,,2,3.0
Zn2GaPu,0.0,-0.0384951,,2,3.0
H2AlTa2,0.0,-0.0296814,,2,3.0
CoPdEr2,0.0,-0.038306,,2,3.0
HLiO7P2V,1.1288,-0.0096274999999999,,2,3.0
Zn3YPt2,0.0,-0.0356525,,2,3.0
S3Cu2Tm,0.0,-0.0195464,,2,3.0
PdDyBi2,0.0,-0.060116,,2,3.0
Si2NiLa,0.0,-0.0206676,,2,3.0
Cd2InLa,0.0,-0.0347404,,2,3.0
Mg7Zr,0.0,-0.0081473,,2,3.0
BGa2Ru2Eu,0.0,-0.0278571,,2,3.0
ScIn2Ir,0.0,-0.0386415,,2,3.0
Na2PtPb2,0.0,-0.0463081,,2,3.0
Ru2Pr3Hg,0.0,-0.044945,,2,3.0
O7FMn5,0.0,-0.0127796,,2,3.0
AlZrPd,0.0,-0.0246565,,2,3.0
Al3Ce2Re,0.0,-0.0310115,,2,3.0
CoRuPm2,0.0,-0.0351662,,2,3.0
O6ZrICs,2.0275,-0.0176266,,2,3.0
OSeAgDy,0.9845,-0.0285324,,2,3.0
B2N3Co2Np3,0.0,-0.0406118,,2,3.0
Na4S4Zr,2.9712,-0.0109979999999999,,2,3.0
Cu6SrSb4,0.0,-0.0239851999999999,,2,3.0
CaYHg,0.0,-0.035701,,2,3.0
AuBi2Th,0.0,-0.0810909,,2,3.0
InTmHg,0.0,-0.0516458,,2,3.0
ZnGa3Ge2Tm3,0.0,-0.0291434,,2,3.0
BCCuLu,0.0,-0.0225077999999999,,2,3.0
SnTm2Pt2,0.0,-0.0573418,,2,3.0
Rh2TaIr,0.0,-0.0520434,,2,3.0
Si2In3Tb2,0.0,-0.031029,,2,3.0
O8ScRbMo2,3.6788,-0.0154802999999999,,2,3.0
BeCu4Tb,0.0,-0.0188586,,2,3.0
O6NaW2,0.0,-0.0223765,,2,3.0
MgCo2Lu3,0.0,-0.0345574,,2,3.0
NiGa2Dy,0.0,-0.02491,,2,3.0
PCeTh,0.0,-0.0512989,,2,3.0
Co8Mo,0.0,-0.0191075,,2,3.0
Cu2PbPu2,0.0,-0.065215,,2,3.0
H4InCs,3.4327,-0.0143061,,2,3.0
Sn2TlPu,0.0,-0.0636866,,2,3.0
Co2SnNd2,0.0,-0.0318747,,2,3.0
C4MgTm3,0.0,-0.0254806,,2,3.0
Zn2TlBi2,0.0,-0.0512301,,2,3.0
MgS4Tl2,0.6792,-0.0274225,,2,3.0
Mg4Y,0.0,-0.0095738,,2,3.0
N2TiMn,0.0,-0.014425,,2,3.0
Y3Pt2,0.0,-0.0460542,,2,3.0
Al3AgSn2Lu3,0.0,-0.0330433,,2,3.0
OSrCdTe,1.1483,-0.0256993,,2,3.0
F6NaRb2Nd,6.3119,-0.0145113,,2,3.0
HZnNb3,0.0,-0.0234032,,2,3.0
Pd3Tl,0.0,-0.0428755,,2,3.0
Br6CdCs2,0.0,-0.025915,,2,3.0
ZnSe2CsAu,1.6485,-0.0329934999999999,,2,3.0
CdSnEr,0.0,-0.0394368,,2,3.0
Mg2S8Cr3Mn,0.0,-0.012699,,2,3.0
NiTe2Pa6,0.0,-0.0767446,,2,3.0
PClPu2,0.0,-0.060773,,2,3.0
Li2Pd2Tl,0.0,-0.0288806,,2,3.0
CaZn2Y,0.0,-0.0165145,,2,3.0
VCrFe2,0.0,-0.0180589,,2,3.0
Cu2SeI,0.0,-0.0219394999999999,,2,3.0
ClBrPr,0.0,-0.0255988,,2,3.0
AlCl6K2In,2.5192,-0.0122568,,2,3.0
H3Eu,0.0,-0.0163876999999999,,2,3.0
CN2ClHo,3.3394,-0.018509,,2,3.0
Sn2PmDy,0.0,-0.0416507999999999,,2,3.0
CuGe3La,0.0,-0.0236528999999999,,2,3.0
SiRhGd,0.0,-0.035265,,2,3.0
O3K2Er,0.0,-0.0165947,,2,3.0
O6ScBa2Ir,0.0,-0.0228156,,2,3.0
F4AlK,7.0888,-0.0086578,,2,3.0
Zn2Hf3Hg,0.0,-0.0474259,,2,3.0
Ni2Y3Au,0.0,-0.031449,,2,3.0
Mg5Y,0.0,-0.0088399,,2,3.0
Mo3N2Cl11,0.1158,-1.18107800078125,mp-680300,2,3.0
ScIr2,0.0,-0.053136,,2,3.0
Ta2WAu,0.0,-0.0681222,,2,3.0
Ba2LaAu,0.0,-0.0482768,,2,3.0
OSeYAg,1.0434,-0.0235522999999999,,2,3.0
LiMnCoSn,0.0,-0.0186555,,2,3.0
Rh2SnEr,0.0,-0.0393641999999999,,2,3.0
Ga2Ru3Nd,0.0,-0.0305056,,2,3.0
NiZrPd2,0.0,-0.0287834,,2,3.0
NaI3Pr,0.0,-0.0329421,,2,3.0
H2SbBa2,0.0,-0.0254173,,2,3.0
CoGa5Y,0.0,-0.0186345999999999,,2,3.0
RhTa5,0.0,-0.0613781,,2,3.0
PNi5Ga,0.0,-0.0158124,,2,3.0
C3Zr2Mo2,0.0,-0.0236662,,2,3.0
S2SePa,0.0,-0.0359166,,2,3.0
Al3Si2IrTh3,0.0,-0.0454236,,2,3.0
Al3RhSn2Ho3,0.0,-0.0315182,,2,3.0
Mn2NiGa,0.0,-0.0176534,,2,3.0
SiClNp,0.0,-0.0424042,,2,3.0
O3TiBa,2.2426,-0.0182458,,2,3.0
C2FeCe,0.0171,-0.0209643,,2,3.0
Si2NiHf,0.0,-0.0253878,,2,3.0
O7NaAs2Dy,3.5266,-0.0145188,,2,3.0
Y5Lu,0.0,-0.03242,,2,3.0
LiNiPt2,0.0,-0.0401648,,2,3.0
SrIrTl2,0.0,-0.0597606,,2,3.0
AuNp2,0.0,-0.0944257,,2,3.0
As2AuU,0.0,-0.0536837,,2,3.0
MgSrPd2,0.0,-0.0238398,,2,3.0
O6Si2CaV,0.4652,-0.0114921,,2,3.0
Si2GaTb2,0.0,-0.0266965,,2,3.0
N2InTb,1.4986,-0.0256094,,2,3.0
AlPSc2,0.0,-0.0126138,,2,3.0
CN2O2Dy2,3.8892,-0.0219765,,2,3.0
CoSn3Dy,0.0,-0.0349189,,2,3.0
GaAgDy2,0.0,-0.0363671999999999,,2,3.0
CuBrEr,0.0,-0.02941,,2,3.0
KTl2Pb2,0.0,-0.0610559,,2,3.0
YSb2La2,0.0,-0.0388807,,2,3.0
O2NaPb,0.0,-0.0243802999999999,,2,3.0
ZrCdAu,0.0,-0.0439508,,2,3.0
O6ClSb3Te,2.6112,-0.0189385,,2,3.0
Au3Tl,0.0,-0.0699009999999999,,2,3.0
Tl4Pb,0.0,-0.0730397,,2,3.0
O7Ba3Lu2,0.0,-0.0258057,,2,3.0
Ga5IrTh,0.0,-0.03615,,2,3.0
SrCd2Sn2,0.0,-0.0314076,,2,3.0
Pt3Np,0.0,-0.079937,,2,3.0
H16C4N8S4Cl2Ni,0.583,-0.0072216,,2,3.0
O6TiZnSm2,3.2129,-0.0188188,,2,3.0
SiSmIr,0.0,-0.0429719,,2,3.0
ZnPb5,0.0,-0.0652944,,2,3.0
Si3PdLa,0.0,-0.0219475,,2,3.0
F6Rb3Ho,6.168,-0.0167685,,2,3.0
Si2ZnSm,0.0,-0.0199197,,2,3.0
Cl2FeBr,0.0,-0.0142198,,2,3.0
HPRb,1.8012,-0.0119304,,2,3.0
LiGe2Sr2,0.0,-0.0175182,,2,3.0
ZrIn4,0.0,-0.0329936,,2,3.0
Se2TaHg,0.0,-0.0443162,,2,3.0
C2O6MnBa,1.6243,-0.013639,,2,3.0
Sn4Ba3Ir4,0.0,-0.0502527,,2,3.0
N2Ga3Er7,0.0,-0.0360305,,2,3.0
LiF2K,6.4232,-0.0074492,,2,3.0
O4MgMn2,0.0816,-0.0119078,,2,3.0
Li2AlLa,0.0,-0.0141163,,2,3.0
Al4YRh,0.0,-0.0162336,,2,3.0
ScFeNi4,0.0,-0.0164556,,2,3.0
FeAs2Pu,0.0,-0.0426321,,2,3.0
O6Ba2GdHf,0.0,-0.0270966,,2,3.0
MgGeCe,0.0,-0.0234558,,2,3.0
Ca2SrRh2,0.0,-0.0220788,,2,3.0
Ga2In2Tl,0.0,-0.0343115,,2,3.0
In6DyIr4,0.0,-0.0487374999999999,,2,3.0
As2Zr,0.0,-0.0246579,,2,3.0
LiMgCoGa,0.0,-0.0103739,,2,3.0
ZnPrPt4,0.0,-0.0571153,,2,3.0
Al6PdHo,0.0,-0.0165198,,2,3.0
O6TeBa2Tm,0.0,-0.0232704,,2,3.0
YPd,0.0,-0.03133,,2,3.0
AlRh2Ho2,0.0,-0.0357319,,2,3.0
Cl6Rb2AuTl,0.0,-0.0243113,,2,3.0
O6CrBa2Bi,0.0,-0.0235476,,2,3.0
Fe2NiPa,0.0,-0.0380179,,2,3.0
Zr5Hg3,0.0,-0.0450246,,2,3.0
F6RbNbCs2,0.0,-0.0180274,,2,3.0
AlGe2Ce,0.0,-0.0231536,,2,3.0
SrPt2,0.0,-0.0552098,,2,3.0
S3TiCuTl,0.1802,-0.0230433,,2,3.0
I4Cs2Au,0.0,-0.0426711,,2,3.0
GePd2Ba2,0.0,-0.0333915,,2,3.0
PSbTl2,0.0,-0.0479937,,2,3.0
AsBr6Rb2Au,0.0,-0.0257295,,2,3.0
Au4U,0.0,-0.076257,,2,3.0
NaBr6InCs2,1.8674,-0.0245756,,2,3.0
YIn2Au,0.0,-0.0416657999999999,,2,3.0
NbRu2Sn,0.0,-0.0349915,,2,3.0
LiScCu4,0.0,-0.0131189,,2,3.0
ZrNbTe4,0.0,-0.0361332,,2,3.0
Li2N2Ti,0.829,-0.0091386,,2,3.0
Si2CrRe,0.0,-0.0276758,,2,3.0
O4NiCd3,0.0,-0.0177079,,2,3.0
CCdTm2,0.0,-0.0364799,,2,3.0
NaSe2RbHg,0.27,-0.027579,,2,3.0
Si3CrPu,0.0,-0.0320479,,2,3.0
B6Fe2Gd,0.0,-0.0159879,,2,3.0
Al5TiPt,0.0,-0.0185116,,2,3.0
H8FeNi2Sr,0.0,-0.0084756,,2,3.0
BO7Na2SBi,3.0779,-0.0141922,,2,3.0
S4Se2W3,1.1635,-0.0326884999999999,,2,3.0
K2AsRb,0.6997,-0.0148038,,2,3.0
Co4CdSm,0.0,-0.0239875,,2,3.0
AlNi2Eu2,0.0,-0.0298129,,2,3.0
Al3Si2CuNp3,0.0,-0.0422321,,2,3.0
SRbAu,1.8294,-0.0340845,,2,3.0
CaNiSe,0.0,-0.0163572999999999,,2,3.0
InTe3Ir2,0.0,-0.0481579,,2,3.0
ZrTc2,0.0,-0.0339907,,2,3.0
O2KPu,0.0,-0.0352102,,2,3.0
SeIn,0.4076,-0.0273409,,2,3.0
O3TiFe,0.0,-0.0131265,,2,3.0
Pd2LaTl,0.0,-0.0459729,,2,3.0
SiSc2Br2,0.0,-0.0168764,,2,3.0
Al3ZnGe2La3,0.0,-0.023358,,2,3.0
O3BaPb,0.2442,-0.0286507,,2,3.0
Al3FeGe2U3,0.0,-0.0435141,,2,3.0
Sc2MoAg,0.0,-0.0237304,,2,3.0
Mg3Ce,0.0,-0.0149087,,2,3.0
CaCu6As4,0.0,-0.0166907,,2,3.0
LuPt2Au,0.0,-0.0673517,,2,3.0
CuSe2In,0.0,-0.0226776,,2,3.0
CoIn6Pb2,0.0,-0.0409037,,2,3.0
ClEr,0.0,-0.0308118,,2,3.0
Na2Rb2Cs,0.0,-0.017498,,2,3.0
S3SrAgNd,1.5343,-0.0228408,,2,3.0
LiS4Cr2,0.0,-0.0119486,,2,3.0
Li2O3Tm,0.0,-0.0150922,,2,3.0
O7La2Np2,0.0,-0.0347368,,2,3.0
SnPu3,0.0,-0.0915656,,2,3.0
LiP2ScCu2,0.0,-0.0121125,,2,3.0
NClEr,1.3704,-0.0244928999999999,,2,3.0
S4Cu2GeHg,0.0209,-0.0198647,,2,3.0
CCdCe2,0.0,-0.032629,,2,3.0
GdAu3,0.0,-0.0673155,,2,3.0
AlAs2Rb4,0.0,-0.0191258,,2,3.0
Ca2SeTe,1.344,-0.0212007,,2,3.0
GaHoPt,0.0,-0.0465133,,2,3.0
Cu2ZnTb2,0.0,-0.0278201,,2,3.0
Sc3CoGa3Ge2,0.0,-0.0171011999999999,,2,3.0
PGaSe4,1.4445,-0.0181408,,2,3.0
V2Ga4Lu,0.0,-0.0227609,,2,3.0
SnDy2Au2,0.0,-0.0550345,,2,3.0
ScCrRh2,0.0,-0.0257028,,2,3.0
Si2CdLa,0.0,-0.0238703,,2,3.0
Fe2Ge2Pr,0.0,-0.0239339,,2,3.0
GdTl,0.0,-0.0661378,,2,3.0
KSrTl2,0.0,-0.0441923,,2,3.0
NiGeEr,0.0,-0.0293706,,2,3.0
Si2DyRe,0.0,-0.0353029,,2,3.0
Cl4K2PdI2,0.3397,-0.0183634999999999,,2,3.0
O3CaGe,3.886,-0.0119419,,2,3.0
Sc6NiPb2,0.0,-0.0286515,,2,3.0
AlAu,0.0,-0.0390683999999999,,2,3.0
Ni2RhBa,0.0,-0.0264621999999999,,2,3.0
Ni2In5Tb4,0.0,-0.0356946,,2,3.0
Cr4RuPt,0.0,-0.0298487,,2,3.0
Al2Ag2In,0.0,-0.0223094,,2,3.0
CdTb2Ir,0.0,-0.049444,,2,3.0
LiNaTl2,0.0,-0.0380524,,2,3.0
Mg2SrIn,0.0,-0.0166407999999999,,2,3.0
S3MnSrCs,0.0,-0.0194028999999999,,2,3.0
B2O6CdSn,2.8124,-0.0140238999999999,,2,3.0
Ni2ZnNb,0.0,-0.0199733,,2,3.0
O8P2KSb,3.1699,-0.0119002999999999,,2,3.0
S2TiAu,0.0,-0.0271573999999999,,2,3.0
RuSb2Sm,0.0,-0.0392132,,2,3.0
PCl2Ti2,0.0,-0.0132050999999999,,2,3.0
Mg8Pb,0.0,-0.0129018,,2,3.0
ScIn2Tm,0.0,-0.0337783,,2,3.0
S3ZrCs2,1.6482,-0.0242930999999999,,2,3.0
CuIn2Dy,0.0,-0.0328881,,2,3.0
O4Ti3,0.0,-0.0134596,,2,3.0
AlCu2GaSe4,0.5146,-0.0174704,,2,3.0
NaInI2,2.4539,-0.0285647,,2,3.0
O6KBrSb4,2.6809,-0.0192656,,2,3.0
F8Cu2Ba,0.5964,-0.0112112,,2,3.0
P3Sm2Pt4,0.0,-0.0458074,,2,3.0
CdPm2Pb,0.0,-0.0491521,,2,3.0
In3Bi,0.0,-0.044605,,2,3.0
LiSmAu2,0.0,-0.0471257999999999,,2,3.0
Be2CoRu,0.0,-0.0154887999999999,,2,3.0
ScSnTm,0.0,-0.0346922,,2,3.0
CaZnAs,0.3598,-0.0153117,,2,3.0
Cl6GeRb2,1.9554,-0.0135907,,2,3.0
AlAgGd,0.0,-0.0331027,,2,3.0
Te2GdTl,0.0,-0.0525427,,2,3.0
Si8CaSr3,0.0,-0.0134242,,2,3.0
CAlNd3,0.0,-0.0299979,,2,3.0
Y2InTe,0.0,-0.0326217,,2,3.0
FeTc4,0.0,-0.0315845,,2,3.0
Si2ErAu,0.0,-0.0355253,,2,3.0
O12NaTi6,0.0,-0.0123807,,2,3.0
NdBi,0.0,-0.0622061,,2,3.0
O3FMn2,0.0,-0.012064,,2,3.0
B3Nb2,0.0,-0.018466,,2,3.0
Si3NiSr2,0.0,-0.0156506,,2,3.0
Be2CaPt2,0.0,-0.0326505,,2,3.0
Ag2TbTl,0.0,-0.0457547,,2,3.0
Se3SrNdAu,0.9919,-0.0342216,,2,3.0
AlY3,0.0,-0.023049,,2,3.0
Li2O4MnSn,0.0,-0.012476,,2,3.0
NdHoBi,0.0,-0.0578213999999999,,2,3.0
NiInTh,0.0,-0.0490013,,2,3.0
Li5N3Rh3,0.0,-0.0131882,,2,3.0
O2NiZn,0.247,-0.0119294,,2,3.0
C4VHfTa2,0.0,-0.032381,,2,3.0
LiAs2Rh2Dy,0.0,-0.0273767,,2,3.0
N2CrNd,0.0,-0.0212771,,2,3.0
LuHg,0.0,-0.0624467,,2,3.0
Ga6BaAu,0.0,-0.0263054,,2,3.0
AlBa2Pt2,0.0,-0.0463421,,2,3.0
Pd2InPm,0.0,-0.0365629,,2,3.0
Se3Sm,0.0,-0.0275276,,2,3.0
SiYIr,0.0,-0.0375367,,2,3.0
Mg2SiCu3,0.0,-0.0112132,,2,3.0
Al2TlTh2,0.0,-0.0562734,,2,3.0
Sc3PdIr2,0.0,-0.0374613,,2,3.0
SiZnNb4,0.0,-0.0263462,,2,3.0
HNi3Pt,0.0,-0.0244921,,2,3.0
HClSc,0.0,-0.0100913,,2,3.0
F6CuHo,0.8649,-0.0136724,,2,3.0
B2O6SnCe,0.6603,-0.015868,,2,3.0
H3ScRh,0.0,-0.012341,,2,3.0
Ge2In3Nd3Ir,0.0,-0.0386373,,2,3.0
BeNi2Cu,0.0,-0.0132220999999999,,2,3.0
GaAuAc2,0.0,-0.0673471,,2,3.0
Co2YLa,0.0,-0.0263652,,2,3.0
O6CaTiCe2,0.0,-0.0187209,,2,3.0
GeSr2,0.2931,-0.0218077,,2,3.0
O6MgNd2Pt,2.3376,-0.0227223,,2,3.0
Na2PdSn,0.0,-0.01957,,2,3.0
Se2RhLa6,0.0,-0.0380511,,2,3.0
Si2PdIn3Lu3,0.0,-0.0360995,,2,3.0
LiCu2Sb2Ba,0.0,-0.0250438,,2,3.0
SRhSn,0.0,-0.026912,,2,3.0
AlLa2,0.0,-0.0316262,,2,3.0
B2Mn3Th,0.0,-0.027972,,2,3.0
NaP5,1.1796,-0.0096054,,2,3.0
Se4CdPb3,0.3146,-0.0428247,,2,3.0
AlTiRhPt,0.0,-0.0330754,,2,3.0
CeHoBi,0.0,-0.0581032,,2,3.0
Cl3La,4.0316,-0.0194762,,2,3.0
Ti2Ga4Er,0.0,-0.0217528,,2,3.0
Zn2SrRh2,0.0,-0.0237231,,2,3.0
Si7Rh2Th3,0.0,-0.0362306,,2,3.0
PRuTb,0.0,-0.0318349,,2,3.0
O4SePrBi2,0.0,-0.0324201,,2,3.0
AlBr6Rb3,3.3479,-0.0203013,,2,3.0
LiF6CoCs2,0.9683,-0.0143762,,2,3.0
N2ZrTm,0.0,-0.0273813,,2,3.0
Ge3SrRh,0.0,-0.023348,,2,3.0
AgCePb,0.0,-0.0511285,,2,3.0
S4NiGa2,0.0,-0.0131931999999999,,2,3.0
F5K2Co,0.0,-0.0091348,,2,3.0
AlGa2Rh,0.0,-0.0191468,,2,3.0
HPTa2,0.0,-0.0372874,,2,3.0
BeAg5,0.0,-0.026832,,2,3.0
H6K2Ir,0.0,-0.0122661,,2,3.0
O7Ge2ZrBa,3.702,-0.0164344,,2,3.0
O8P2ZrBa,4.3781,-0.0148768999999999,,2,3.0
H3OsNp,0.0,-0.0379118,,2,3.0
H4BCl2KZn,5.0247,-0.0073082,,2,3.0
SiKAg2,0.0,-0.0201864,,2,3.0
Al3MnY,0.0,-0.0143033999999999,,2,3.0
AgCd2Tl,0.0,-0.0411052,,2,3.0
Zn2RhTb,0.0,-0.0275147,,2,3.0
F6FeRb2Tl,0.0,-0.01781,,2,3.0
Cu4Ga2Sm3,0.0,-0.0256299,,2,3.0
SiOsNp,0.0,-0.0632913,,2,3.0
ScGaRu,0.0,-0.0224755,,2,3.0
AlCl6Rb2Ag,2.0559,-0.0145583,,2,3.0
InPrPt4,0.0,-0.0604768,,2,3.0
F6NaAlIn2,3.2082,-0.0128267,,2,3.0
S4NiSnCs2,0.0,-0.0215969,,2,3.0
GeSnPt2,0.0,-0.0494497,,2,3.0
MnRh8,0.0,-0.0321623,,2,3.0
F6FeSn,0.0,-0.0118829,,2,3.0
GeTe3Tb4,0.0,-0.0411253,,2,3.0
Mg2CuY,0.0,-0.0134281,,2,3.0
ScLaBi,0.0,-0.0461227,,2,3.0
NiGe2Sn3Dy3,0.0,-0.0346015,,2,3.0
Tl4Bi,0.0,-0.073581,,2,3.0
Co2ZnSm3,0.0,-0.0304391,,2,3.0
LiBr6Cs2Tl,0.5687,-0.028095,,2,3.0
MgS8Ni4,0.0,-0.0117758,,2,3.0
Al5DyAu2,0.0,-0.0287786,,2,3.0
S3TiNiPb,0.0,-0.023721,,2,3.0
MoTe8W3,0.7382,-0.0452459,,2,3.0
LiGa4Nd,0.0,-0.019169,,2,3.0
ZnPd2Nd,0.0,-0.0314345,,2,3.0
AsDy2Bi,0.0,-0.0498966,,2,3.0
Al2MnFe,0.0,-0.0133756,,2,3.0
Al2FePu,0.0,-0.0362098999999999,,2,3.0
B4Ca2Ni5,0.0,-0.0121663999999999,,2,3.0
AlSi2Lu,0.0,-0.0211628,,2,3.0
KBaAu2,0.0,-0.0472130999999999,,2,3.0
AsBaTl2,0.0,-0.0517209999999999,,2,3.0
NiZnGe,0.0,-0.0164532999999999,,2,3.0
NaPmTl2,0.0,-0.0486778,,2,3.0
K2PdI6,0.0,-0.0307776999999999,,2,3.0
Ca6Ga2Rh,0.0,-0.0142002,,2,3.0
Ni5La,0.0,-0.0209057,,2,3.0
LiCa11Sb9,0.725699999999999,-1.087613138373014,mp-1211639,2,3.0
LiPtPb4,0.0,-0.0628537,,2,3.0
Pr3Lu,0.0,-0.0463046,,2,3.0
Sc2As2Zr,0.0,-0.0211053,,2,3.0
O6Ba2TbIr,0.0,-0.0260547,,2,3.0
N6O12K3Co,2.6167,-0.0086858,,2,3.0
SiRu3Tb2,0.0,-0.0352792,,2,3.0
CrTe4I,0.2685,-0.0340826,,2,3.0
Cl2SeGd2,0.0,-0.0328208,,2,3.0
SbI3,1.9998,-0.0371809,,2,3.0
AuTlPb2,0.0,-0.073291,,2,3.0
Cl6Cs3Tb,4.8053,-0.0231565,,2,3.0
BeMn3,0.0,-0.0149075,,2,3.0
SrAgPt4,0.0,-0.056292,,2,3.0
Mn2As5Pr4,0.0,-0.0295359,,2,3.0
LiK2ScBr6,2.9328,-0.0168858,,2,3.0
KAuHg2,0.0,-0.0537370999999999,,2,3.0
SrCd5,0.0,-0.0293288,,2,3.0
OCa3In,0.0,-0.0153037,,2,3.0
HNaCl2,5.4676,-0.0071585,,2,3.0
S2InCs,2.4443,-0.0237037,,2,3.0
LaHoAu2,0.0,-0.0586156,,2,3.0
AlZn2Dy2,0.0,-0.0265213,,2,3.0
F6ZnLa,0.0,-0.0127327999999999,,2,3.0
NaSe2Zr,0.0,-0.0202826999999999,,2,3.0
TiSnIr,0.0,-0.0417829,,2,3.0
Sc6RhBi2,0.0,-0.0314136,,2,3.0
H4Cs2Ir,0.1304,-0.0230971,,2,3.0
HNi2,0.0,-0.011892,,2,3.0
CuSe3ErPb,1.0411,-0.0346906,,2,3.0
CaCd2La2,0.0,-0.0316651,,2,3.0
SeTe2Pr,0.0,-0.03581,,2,3.0
MgLaPt4,0.0,-0.0558553,,2,3.0
Li6B4O10Cu,0.8696,-0.0081323,,2,3.0
VBr6Cs2,0.0,-0.0247622,,2,3.0
KCuBr2,1.1188,-0.0166828,,2,3.0
LiAsLa,0.0,-0.0231037,,2,3.0
Pd2SnU,0.0,-0.0516107,,2,3.0
OBr4TaPb,0.0,-0.0336486,,2,3.0
Na2Ag2Ba,0.0,-0.0222754,,2,3.0
Al2CrIr,0.0,-0.0270894,,2,3.0
Al2Au2Th,0.0,-0.0509076,,2,3.0
O9Ce3Dy2,2.0246,-0.0241417,,2,3.0
PS,1.7266,-0.010166,,2,3.0
F6RhCsTl2,1.4547,-0.0257803,,2,3.0
F6S2Zn3Sn,3.0427,-0.0117072,,2,3.0
O6Sr2PdHo,0.0,-0.018778,,2,3.0
Ni2Ga5Ba,0.0,-0.0196802999999999,,2,3.0
Mg3Co2Tb4,0.0,-0.0264137999999999,,2,3.0
Al4CaRh,0.0,-0.0130992,,2,3.0
TiRh4,0.0,-0.0307215999999999,,2,3.0
O6NaSi2Cr,1.6069,-0.0108359,,2,3.0
H3O3Tb,3.6968,-0.0129575,,2,3.0
AlSc2Ga3,0.0,-0.0148183,,2,3.0
Tc3Rh,0.0,-0.0348621,,2,3.0
LiSe6Th3,0.0,-0.0427460999999999,,2,3.0
B2C2Tm,0.0,-0.0179247,,2,3.0
TiMnGe,0.0,-0.0183422,,2,3.0
AlCuHf,0.0,-0.0290208,,2,3.0
Ca2CdAu,0.0,-0.0304105,,2,3.0
Ti2Ga2Mo,0.0,-0.0203848999999999,,2,3.0
ClGeI,2.4008,-0.0217774999999999,,2,3.0
Fe2As2U,0.0,-0.0362595999999999,,2,3.0
ZnPd2Hf,0.0,-0.0361845,,2,3.0
Ga3Rh2Np,0.0,-0.0377052,,2,3.0
Se3Pr4Bi,0.0,-0.0408153999999999,,2,3.0
Co4CuZr,0.0,-0.0192907,,2,3.0
ZrTaOs2,0.0,-0.060789,,2,3.0
Li2F8CaY,0.0,-0.0094037,,2,3.0
SiPd2Tm,0.0,-0.0329266999999999,,2,3.0
AgEuHg2,0.0,-0.0557635999999999,,2,3.0
Er3Os2Au,0.0,-0.0613064,,2,3.0
P2Ir,0.7352,-0.0314926,,2,3.0
YRh2In,0.0,-0.0330231,,2,3.0
PS3Hg,1.6054,-0.0217451,,2,3.0
Al3Sc3RhPb2,0.0,-0.0286757999999999,,2,3.0
TiRhIn5,0.0,-0.0312117,,2,3.0
SrPt2Au3,0.0,-0.0621807999999999,,2,3.0
S2Ag3Cs,1.9181,-0.0257213,,2,3.0
Be2AgAu,0.0,-0.0274745,,2,3.0
EuPb3,0.0,-0.0707946,,2,3.0
CBr2Gd2,0.262,-0.0347102,,2,3.0
SiNi2U,0.0,-0.0368,,2,3.0
Te2IrTh6,0.0,-0.0808938,,2,3.0
H6O6NaKTe,4.0413,-0.0085072,,2,3.0
Li3S3Bi,2.3829,-0.0174323,,2,3.0
LiP2Rh2Tb,0.0,-0.0240657,,2,3.0
MoW2Re,0.0,-0.0613593,,2,3.0
Be2Nb2Ta,0.0,-0.0284709,,2,3.0
P2Ni2RbHo,0.0,-0.0213103,,2,3.0
Na3CuTe2,1.8502,-0.0178193,,2,3.0
Ga5HfIr,0.0,-0.0312932,,2,3.0
CaNiZn,0.0,-0.0132944999999999,,2,3.0
ZrAgHg,0.0,-0.04363,,2,3.0
C2O10NaCuBa4,1.1077,-0.0167487,,2,3.0
FeNbRu2,0.0,-0.0304686999999999,,2,3.0
O6CoSr2Te,0.0,-0.0158057,,2,3.0
O6FeBa2Os,0.0284,-0.0228109,,2,3.0
ScSe3Cs2,0.0,-0.0265708,,2,3.0
Li3O8TiFe3,0.0,-0.0105062,,2,3.0
ORbCs,1.5038,-0.0226675,,2,3.0
Pd2La3Tl3,0.0,-0.0522533,,2,3.0
ClHg5,0.0,-0.0583003,,2,3.0
Cl7SeNb3,0.7263,-0.0173834,,2,3.0
Mg2Al3Au,0.0,-0.0174421,,2,3.0
Se2TlPb,0.0,-0.0474759,,2,3.0
Fe2Sm2Tl,0.0,-0.0395551,,2,3.0
BeY2Pt,0.0,-0.0333894999999999,,2,3.0
LiGeSbTe3,0.6714,-0.0287289999999999,,2,3.0
YSbEr,0.0,-0.0393845,,2,3.0
ZnAsTl2,0.0,-0.0446246,,2,3.0
GaBrHo,0.0,-0.0296279,,2,3.0
GaCe2Au,0.0,-0.0442764999999999,,2,3.0
TiNi2Ru,0.0,-0.0212079999999999,,2,3.0
Mg7Y,0.0,-0.0078266,,2,3.0
Zr3Ag4,0.0,-0.0312254,,2,3.0
LiAl2Ru,0.0,-0.0137828,,2,3.0
Li2O2Zn,1.4575,-0.0079443,,2,3.0
Cl2Pd,1.2405,-0.0168403,,2,3.0
SiPd2Tm2,0.0,-0.0368566,,2,3.0
TiAsMo,0.0,-0.0243973,,2,3.0
O4ClMoTm,2.5242,-0.0198291,,2,3.0
Rh2PrPb,0.0,-0.0471165,,2,3.0
O8GaW2Tl,4.484,-0.0251866,,2,3.0
LiCuTe,1.0591,-0.0187882,,2,3.0
ScNiZn2,0.0,-0.0148094,,2,3.0
F6K2Tc,1.6044,-0.0109212,,2,3.0
Pd2PtPb4,0.0,-0.0629147999999999,,2,3.0
Co2TbDy,0.0,-0.0324752,,2,3.0
C2O4Cd,3.1946,-0.0120662,,2,3.0
Ge2RuRhLa,0.0,-0.0309364,,2,3.0
N3NaSi2,4.2287,-0.0099516,,2,3.0
P12Ru4Tb,0.0,-0.0190048,,2,3.0
AlIn3Ba2,0.0,-0.0317133,,2,3.0
SeAgSb2,0.0,-0.0315062,,2,3.0
F6Tl2Np,0.0,-0.0332313,,2,3.0
AlTi2Ga2,0.0,-0.0149826,,2,3.0
O3CoHo,0.2597,-0.0197411,,2,3.0
AgCs2Hg,0.0,-0.0438553,,2,3.0
CuRuTm2,0.0,-0.0389162,,2,3.0
Pr2Ir2Tl,0.0,-0.0608851,,2,3.0
Rb3NbTe4,1.044,-0.0314439,,2,3.0
ZrErIr2,0.0,-0.056838,,2,3.0
H6CoEr2,0.0,-0.0159478,,2,3.0
BNPdTb,0.0,-0.0252938,,2,3.0
NaCl6Cs2Ta,0.0,-0.0212368,,2,3.0
ZnGd2Pt,0.0,-0.0511664,,2,3.0
O7RbEuTa2,0.0,-0.0258171,,2,3.0
MoTa4,0.0,-0.0603431,,2,3.0
PLaIr,0.0,-0.0429158,,2,3.0
CuSeHg2,0.0,-0.0429189,,2,3.0
O6AlSr2Rh,0.0,-0.0148074,,2,3.0
BNbAu,0.0,-0.0370837999999999,,2,3.0
Sr4Cd3,0.0,-0.0260207,,2,3.0
Cu4Ge2Lu3,0.0,-0.0300362,,2,3.0
N3NiLa,0.0,-0.0180678,,2,3.0
CrGeNb,0.0,-0.0238858999999999,,2,3.0
CdLa2Ir2,0.0,-0.0524782,,2,3.0
O4Os,3.2445,-0.0202718,,2,3.0
Al3CaPd2,0.0,-0.0172508,,2,3.0
CuYBi2,0.0,-0.0505399,,2,3.0
As2RhCe2,0.0,-0.034023,,2,3.0
O2ZnCs2,2.0469,-0.0217296,,2,3.0
TcRuRh,0.0,-0.0345746,,2,3.0
Al2ZrAu2,0.0,-0.0376788,,2,3.0
CoIPr,0.0,-0.033208,,2,3.0
PdCdHo,0.0,-0.0381816,,2,3.0
MgTePt5,0.0,-0.0566757,,2,3.0
SnNd2Au2,0.0,-0.0533095,,2,3.0
In2PrAc,0.0,-0.05074,,2,3.0
CuEr6Tl2,0.0,-0.0516683,,2,3.0
S3Te3Bi4,0.3095,-0.0457273,,2,3.0
Al5ErOs,0.0,-0.0235406,,2,3.0
H6SiRb2Tl,0.0,-0.0145584,,2,3.0
Mg2EuBi2,0.0,-0.044795,,2,3.0
SnTe3Tm4,0.0,-0.0456095,,2,3.0
KBa2Au,0.0,-0.0396096,,2,3.0
Rh2TbTl,0.0,-0.0472631,,2,3.0
Mg2Cl7K3,4.6694,-0.0097178,,2,3.0
Al2CuZr8,0.0,-0.0252991999999999,,2,3.0
MgYIr4,0.0,-0.0535568,,2,3.0
Mg2RhTm,0.0,-0.0244542,,2,3.0
ScCd2Pb,0.0,-0.0380522,,2,3.0
NaCrBr6Cs2,1.1096,-0.0231271999999999,,2,3.0
Ge2CeIr2,0.0,-0.0459539,,2,3.0
CrGe3Er,0.0,-0.0256134999999999,,2,3.0
H2O3PSRb,4.5812,-0.0099595,,2,3.0
MgNiZn,0.0,-0.0117396,,2,3.0
Br2SbSm2,0.0,-0.0346932,,2,3.0
O8KMo2Ce,0.0,-0.0169293,,2,3.0
Zn2La2Pb,0.0,-0.0383697,,2,3.0
CSi2Mo2Sm,0.0,-0.0245195,,2,3.0
Be2Nb3,0.0,-0.0217626,,2,3.0
GeIrTh,0.0,-0.0630787,,2,3.0
Si2Mn3Fe3,0.0,-0.0164343,,2,3.0
Ga3Rh2La,0.0,-0.0274226999999999,,2,3.0
Li2ScZr,0.0,-0.0123333,,2,3.0
Tc2SnW,0.0,-0.0439084999999999,,2,3.0
GeHgPu2,0.0,-0.0770059,,2,3.0
Al4Co4Sm3,0.0,-0.0215926,,2,3.0
CO2Rb,2.8429,-0.0124986,,2,3.0
Ni2GeSr2,0.0,-0.0194700999999999,,2,3.0
CSi2Mo2Gd,0.0,-0.0268887,,2,3.0
Li2Br3Cs,4.3167,-0.0186329,,2,3.0
N4Ca4Ti,1.5471,-0.0115829,,2,3.0
O7V2Zn2,1.9127,-0.0118187,,2,3.0
CeHg2,0.0,-0.0608783,,2,3.0
Li2EuPb,0.0,-0.0341019999999999,,2,3.0
Cu2Lu2Pb,0.0,-0.0438666,,2,3.0
Mg2Sn2Pb,0.0,-0.0315305,,2,3.0
Mn5Ni,0.0,-0.0180703,,2,3.0
Sc2Ge2Au,0.0,-0.0280427,,2,3.0
Li3S3V,0.0,-0.0089931,,2,3.0
Li2Mg2LaPb2,0.0,-0.0304538,,2,3.0
S2Ni,0.0,-0.012187,,2,3.0
SCl2Tm2,0.0,-0.0280721,,2,3.0
BNi2Er,0.0,-0.0230952,,2,3.0
CaRh2La,0.0,-0.0306371,,2,3.0
KCaSr2,0.0,-0.0155658,,2,3.0
CGe2Rh2Nd2,0.0,-0.0298336,,2,3.0
O3F2Nb2,0.1406,-0.0159551,,2,3.0
Na3Mn4Te6,0.0,-0.0244928,,2,3.0
K3As2Pt3,0.0,-0.035085,,2,3.0
LiO4PGe,3.0003,-0.0101371,,2,3.0
LiRh2Sb2Nd,0.0,-0.0322462,,2,3.0