formula,bg,formation_energy,mp-id,fidelity,bg_category
SnOsTh,0.0,-0.0684742,,2,3.0
B2O6PbTh,4.113,-0.0251714,,2,3.0
CuCe2Ir2,0.0,-0.050038,,2,3.0
F8Na2SrEr,0.0,-0.0125706,,2,3.0
Al3Si2Hf2,0.0,-0.0244834,,2,3.0
MgGaIn,0.0,-0.0183308,,2,3.0
Mn4MoRu,0.0,-0.0237396,,2,3.0
KNiBa3,0.0,-0.0285301,,2,3.0
LiGaIr,0.0,-0.0303671,,2,3.0
F6CaNi,1.4689,-0.008545,,2,3.0
B5Sr2Ru3,0.0,-0.0190211,,2,3.0
Cd5Pb3,0.0,-0.0473528,,2,3.0
OFSr,2.848,-0.0138289,,2,3.0
B2Co2Gd,0.0,-0.0221434,,2,3.0
As4Rb5,0.0,-0.0210279,,2,3.0
Co2NdNp,0.0,-0.0462676999999999,,2,3.0
F2ZnY2,0.0,-0.0177479,,2,3.0
B7FeY3,0.0,-0.0146015,,2,3.0
AsRhNp,0.0,-0.0542581,,2,3.0
RhSn5La3,0.0,-0.0388982,,2,3.0
Sc2Ni3Ge,0.0,-0.0167167,,2,3.0
PPdLa,0.0,-0.0302114,,2,3.0
HO5PNb,0.0,-0.0120413,,2,3.0
Na2Cd2Pb,0.0,-0.0291355,,2,3.0
CrSb2,0.0,-0.0309869999999999,,2,3.0
Co8Ga4Tb,0.0,-0.0194581,,2,3.0
Br2Zr2Pb,0.0,-0.0361715,,2,3.0
Si3CoDy,0.0,-0.0196593,,2,3.0
Li6O4FMn,0.5099,-0.0072897,,2,3.0
NaCl6VRb2,0.0,-0.0130333,,2,3.0
B2TiMo2,0.0,-0.0207872999999999,,2,3.0
F6BaNp,0.0,-0.0248109,,2,3.0
Ge2AgIn3Lu3,0.0,-0.0378308,,2,3.0
MgCa2Sb2,0.1984,-0.0207295,,2,3.0
KBr3,1.4347,-0.01765,,2,3.0
NiSeSn,0.0,-0.0243847,,2,3.0
GeRh2,0.0,-0.0293531,,2,3.0
O6MnTePb2,0.0,-0.0258196,,2,3.0
F6RhCe,0.0,-0.0154275,,2,3.0
F8BaU2,0.0,-0.028802,,2,3.0
Si3Fe2Tb3,0.0,-0.026401,,2,3.0
Al5RhNp,0.0,-0.0260962,,2,3.0
Li2F8YZr,0.8013,-0.0114077,,2,3.0
ZnSbEu,0.0,-0.0355206,,2,3.0
TcRuCe2,0.0,-0.039883,,2,3.0
NaY2Te2,0.0,-0.0279841,,2,3.0
ScLuBi,0.0,-0.0500086999999999,,2,3.0
Zn3SrAg2,0.0,-0.0211502,,2,3.0
O6CaSb2,2.8146,-0.0155772999999999,,2,3.0
Mo3Ru,0.0,-0.0348339,,2,3.0
F6AlKRb2,6.6404,-0.0112944999999999,,2,3.0
CSbTh3,0.0,-0.0675761,,2,3.0
O4NaFe2,0.0,-0.0110184,,2,3.0
LiSbAu,0.0,-0.0369118,,2,3.0
CePt4Hg,0.0,-0.0664476,,2,3.0
Li5PS,1.3941,-0.0056227,,2,3.0
Zr2AuPb,0.0,-0.0521123,,2,3.0
CaCo2Ge2,0.0,-0.0169408,,2,3.0
MgRbBi,0.3458,-0.0353025,,2,3.0
B4C,1.4505,-0.0080375999999999,,2,3.0
Cl6RbCs2Bi,3.9262,-0.0240308999999999,,2,3.0
B3C2Nb4,0.0,-0.0201132999999999,,2,3.0
LiZnBa2,0.0,-0.0238163,,2,3.0
O3NbAg,1.6882,-0.0185955,,2,3.0
FeCoTc2,0.0,-0.0262355,,2,3.0
O8S2RbSn,0.1573,-0.0121264,,2,3.0
MgSnPr,0.0,-0.0287853,,2,3.0
YLaIr2,0.0,-0.0540833,,2,3.0
Ge2PdNd,0.0,-0.0295448,,2,3.0
MnCuTe3Tl,0.0,-0.0365645,,2,3.0
Mg2Si2Ce,0.0,-0.0153514,,2,3.0
CO7Na2PBi,3.6654,-0.0145791,,2,3.0
O6Ca2FeOs,0.2055,-0.0168747,,2,3.0
Co2Sn3Tb3,0.0,-0.0358466999999999,,2,3.0
ZnSbPt,0.0,-0.0408796,,2,3.0
KSe2Nb,0.7294,-0.0215356,,2,3.0
O4SbTm,2.1238,-0.0216359,,2,3.0
O4Te3Dy4,0.4807,-0.0326693,,2,3.0
Si3PdLu,0.0,-0.0242720999999999,,2,3.0
RhCdHo,0.0,-0.0384388,,2,3.0
CoInDy,0.0,-0.0331578,,2,3.0
N3MoTm,0.5835,-0.0240783,,2,3.0
BeSbAu2,0.0,-0.0451295,,2,3.0
Al4PdHo,0.0,-0.0195006,,2,3.0
LiAs2YRh2,0.0,-0.0240687999999999,,2,3.0
Li3Ir,0.0,-0.0197718,,2,3.0
Li2Ni2Ge2Ba,0.0,-0.0167626,,2,3.0
GaRuDy2,0.0,-0.0372501,,2,3.0
NW2,0.0,-0.0497403,,2,3.0
B2O6SiCa,5.8152,-0.0101284,,2,3.0
Li2Ni2La,0.0,-0.0161176,,2,3.0
Al3IrU2,0.0,-0.050713,,2,3.0
KCdBa2,0.0,-0.029656,,2,3.0
LiKPb2,0.0,-0.0409263,,2,3.0
NLa2Pb,0.0,-0.0439548,,2,3.0
Mn4TaIr,0.0,-0.0352689,,2,3.0
KCu2Sb2Lu,0.0,-0.0287031,,2,3.0
NiY2Ag,0.0,-0.0261944,,2,3.0
Cl3Cs,2.5075,-0.0166026999999999,,2,3.0
Al3Ge2AuNp3,0.0,-0.0503663,,2,3.0
ClNiTh,0.0,-0.0412239,,2,3.0
Nd2Pt2Hg,0.0,-0.0602775,,2,3.0
FePt8,0.0,-0.0645766,,2,3.0
Si3NiBa2,0.0,-0.0213694,,2,3.0
Co2Sm4Tl5,0.0,-0.0525471999999999,,2,3.0
NOF2K,3.3346,-0.0076012,,2,3.0
NTiZr3,0.0,-0.0242862,,2,3.0
LiCaBi,0.4158,-0.0310845999999999,,2,3.0
Sn2Ho6Pt,0.0,-0.0492596,,2,3.0
B2C2Np,0.0,-0.0285384999999999,,2,3.0
SiRb2CdTe4,1.0717,-0.029565,,2,3.0
BrHg,1.6486,-0.0442486,,2,3.0
CdIn2Ho2,0.0,-0.039548,,2,3.0
OFGa,2.4119,-0.0110184,,2,3.0
NaS2Tl,1.1171,-0.0246023,,2,3.0
F6AlBa,0.0,-0.0118891,,2,3.0
Ho4RuBr5,0.2507,-1.671786816874997,mp-1200540,2,3.0
HOK,3.8692,-0.0074603,,2,3.0
Cl3KFe,0.0,-0.011581,,2,3.0
SiY2Ir,0.0,-0.035198,,2,3.0
B2W2Os,0.0,-0.0453965,,2,3.0
SmAu5,0.0,-0.0656059,,2,3.0
ZnRh2Pu2,0.0,-0.0605979,,2,3.0
B12Er,0.0,-0.011033,,2,3.0
PdIn3I,0.0,-0.0343442,,2,3.0
BeSiNb,0.0,-0.0162578,,2,3.0
Sr3Ba4,0.0,-0.0321319,,2,3.0
Al10Ru2Sm,0.0,-0.0153421,,2,3.0
HHf2,0.0,-0.0431396,,2,3.0
F6K2Pu,0.0681,-0.0198998999999999,,2,3.0
P2YZr,0.0,-0.0215165,,2,3.0
NY3In,0.0,-0.026478,,2,3.0
O7Rb2SrNb2,1.3601,-0.0172467,,2,3.0
Br3CdTl,0.7531,-0.0331116,,2,3.0
H6CrEr2,0.288,-0.0161351,,2,3.0
Al2ZnPd,0.0,-0.0159848,,2,3.0
N6Nb2Dy3,0.0,-0.0255847,,2,3.0
LiMnPdSn,0.0,-0.022919,,2,3.0
F6TiIn2,2.4058,-0.0143552,,2,3.0
BGe2Rh6,0.0,-0.0279289,,2,3.0
O4NiIr,0.0,-0.0197030999999999,,2,3.0
Al3Nb,0.0,-0.0144955,,2,3.0
In2Te4Hg,0.4651,-0.0408838,,2,3.0
BrTeLu,1.0789,-0.0390562,,2,3.0
NFCa6Tl2,0.0,-0.0227945,,2,3.0
LiCd2Hg2,0.0,-0.0400325,,2,3.0
AgEu2Pt,0.0,-0.052942,,2,3.0
InEr2Tl,0.0,-0.0521456999999999,,2,3.0
F6CeTl2,1.8592,-0.0264035,,2,3.0
CoNi2Nd,0.0,-0.0234996,,2,3.0
Cl6Rb2CsTm,4.4846,-0.0201812,,2,3.0
Na2AsTl,0.2613,-0.0255834,,2,3.0
GaPt2Ac,0.0,-0.062939,,2,3.0
CuSb2Ho,0.0,-0.0353385,,2,3.0
O6MgGeHo2,4.7625,-0.0190695,,2,3.0
Ga3Rb,0.2406,-0.0176792,,2,3.0
VFeSe10Nb2,0.0,-0.0222534,,2,3.0
Al4CoGd,0.0,-0.0183758,,2,3.0
ScZrHg,0.0,-0.0380801999999999,,2,3.0
Si2TcLa,0.0,-0.0251385,,2,3.0
MnPd2Pb,0.0,-0.0402295,,2,3.0
N2YNd,0.0,-0.024318,,2,3.0
B5Pr2Re3,0.0,-0.0341487,,2,3.0
Li2AlGa2,0.0,-0.0092395,,2,3.0
Ni5Ce,0.0,-0.0212114,,2,3.0
MgAgIn2,0.0,-0.0258674,,2,3.0
O2Cl4Cs2Pa,0.251,-0.0267502,,2,3.0
SiCa2,0.1438,-0.0102889,,2,3.0
Fe4As12La,0.0,-0.0214656999999999,,2,3.0
LaPmTl2,0.0,-0.0585715,,2,3.0
As3In4Te,0.0,-0.0291429,,2,3.0
CuY3Ir2,0.0,-0.0409247,,2,3.0
ScFe2Ga2,0.0,-0.0170135,,2,3.0
ZrIn2Tl,0.0,-0.0427021999999999,,2,3.0
Rh2Te2Pt,0.0,-0.0427986999999999,,2,3.0
Ba(TaN2)2,2.658,-1.280363978880952,mp-1029616,2,3.0
P2Co2Dy,0.0,-0.0216795,,2,3.0
PS3Cd,1.7895,-0.0144675,,2,3.0
O6Sr2PdNp,0.4962,-0.0247746,,2,3.0
Li6O6Fe,0.0,-0.0071698,,2,3.0
Ni2WRe,0.0,-0.043293,,2,3.0
F6MnCs3,0.0,-0.0182301,,2,3.0
H3NbRu,0.0,-0.0157791,,2,3.0
Pd4Sn6Tb,0.0,-0.036226,,2,3.0
CoNiCu,0.0,-0.016149,,2,3.0
Cl6Rb3La,5.0926,-0.0176983,,2,3.0
PFePa,0.0,-0.0436296,,2,3.0
NiCu2Ag,0.0,-0.0193601999999999,,2,3.0
Pd2InCe,0.0,-0.036651,,2,3.0
BGa2YOs2,0.0,-0.0358652,,2,3.0
CdIn,0.0,-0.0318525,,2,3.0
Sb2Hf6W,0.0,-0.0581415,,2,3.0
SrCeAu2,0.0,-0.0521089,,2,3.0
Co2As2Y,0.0,-0.0213289,,2,3.0
GeBr3Ce3,0.0,-0.0316471,,2,3.0
H2SnBi2,0.0,-0.0398375,,2,3.0
ZnIn2Te4,0.8466,-0.0331599,,2,3.0
CaZn2Ba,0.0,-0.0192858,,2,3.0
Ga3Ge2Pr3Ir,0.0,-0.0328958,,2,3.0
Mg3Ga2,0.0,-0.0096893,,2,3.0
H6Ti2Cr,0.0,-0.0082212,,2,3.0
Cl2Tc,0.4774,-0.0177307,,2,3.0
Cu2GeSe4Ba,0.063,-0.0219325,,2,3.0
SiPdGd,0.0,-0.0348078999999999,,2,3.0
NdHoTl2,0.0,-0.0598753,,2,3.0
Al2ZnEr2,0.0,-0.026334,,2,3.0
YBiPu,0.0,-0.0727428,,2,3.0
LiMgAlRh,0.0,-0.012871,,2,3.0
KInPb4,0.0,-0.0575547,,2,3.0
MnCoY,0.0,-0.0212198,,2,3.0
GePd2Tb2,0.0,-0.0366256,,2,3.0
CaNi2In5,0.0,-0.0263792,,2,3.0
GeSbHf,0.0,-0.0402001,,2,3.0
AlV2,0.0,-0.0144585,,2,3.0
MgAlLa,0.0,-0.0189599,,2,3.0
N2Zr7In3,0.0,-0.0287277999999999,,2,3.0
F6K2RbLu,5.7361,-0.0148668,,2,3.0
B2O5MgSr,4.7621,-0.0111287,,2,3.0
ClCoPu,0.0,-0.0458708,,2,3.0
NaBr6Rb2Bi,3.0253,-0.0255216999999999,,2,3.0
Zr2TcPb,0.0,-0.0434480999999999,,2,3.0
B2CoNb,0.0,-0.0168928,,2,3.0
Cl3Cu,0.3412,-0.0102081999999999,,2,3.0
MgK2Br4,3.6889,-0.0160168,,2,3.0
PdIn4Lu,0.0,-0.0373979,,2,3.0
O7CoCu2Ba2Er,0.0,-0.0191377,,2,3.0
MgCa2Ga2,0.0,-0.0117932,,2,3.0
Y2Hg,0.0,-0.0419239,,2,3.0
Mo6PbBr14,2.2309,-1.092181490476191,mp-649327,2,3.0
Ga6SrAu,0.0,-0.0241351,,2,3.0
YSn2Pt,0.0,-0.043364,,2,3.0
KSe2Rh2,0.0,-0.0237596999999999,,2,3.0
Ga2SmAc,0.0,-0.042455,,2,3.0
Pd,0.0,-0.0327747,,2,3.0
SiPdEr,0.0,-0.032117,,2,3.0
Ge2In3Tb3Pt,0.0,-0.0396303,,2,3.0
GeBr2,2.0767,-0.0198745,,2,3.0
F6Na2Pb,1.8143,-0.0141559,,2,3.0
H6Cd2Ir,0.0,-0.0168573,,2,3.0
B4CHo2,0.0,-0.0203622,,2,3.0
Be4Os3,0.0,-0.0335548,,2,3.0
LiF4Mg,0.0,-0.0064002999999999,,2,3.0
FeBrGd,0.0,-0.0330882999999999,,2,3.0
Al5CePt2,0.0,-0.029036,,2,3.0
FeAsU,0.0,-0.0477401,,2,3.0
FSe2SbBa,0.3179,-0.0259134,,2,3.0
CaAsRb,1.3654,-0.0178578,,2,3.0
K2GaBi2,0.0,-0.0383198,,2,3.0
H6C2N4O4PK,5.2204,-0.0077664,,2,3.0
Mo5Pt4,0.0,-0.0508532,,2,3.0
GeAgHo,0.0,-0.033845,,2,3.0
CoZn4Se5,0.0,-0.017849,,2,3.0
BaHg2Tl2,0.0,-0.064526,,2,3.0
O2BrY,1.4158,-0.0173181,,2,3.0
H3NiPr,0.0,-0.0144835,,2,3.0
CClNp,0.0,-0.0424341,,2,3.0
Mg2Ca3Cu,0.0,-0.0090337,,2,3.0
ZnY6Sb2,0.0,-0.0290807,,2,3.0
Li3Te4Ta,1.7077,-0.0285614,,2,3.0
Al5ZrRh,0.0,-0.0154685,,2,3.0
Li2S4VFe,0.0,-0.0108946,,2,3.0
Cu2ZrIn,0.0,-0.023939,,2,3.0
ScNi4Y,0.0,-0.0182658999999999,,2,3.0
Rh2ISm2,0.0,-0.0396261,,2,3.0
Mg2YAg2,0.0,-0.020399,,2,3.0
Al3BaIr2,0.0,-0.0350563,,2,3.0
S2BrRh,0.3661,-0.0185264999999999,,2,3.0
RhSm2Pt,0.0,-0.0492793,,2,3.0
BeRh2Ir,0.0,-0.0360993,,2,3.0
NbAu8,0.0,-0.0651645,,2,3.0
BeFeNi,0.0,-0.0131579,,2,3.0
NaCa2Sn,0.0,-0.0153151,,2,3.0
N3RhDy,0.0,-0.0225517,,2,3.0
O6MnZnSm2,1.6667,-0.0187236,,2,3.0
CuZnHo2,0.0,-0.0320376,,2,3.0
AlSiCo2,0.0,-0.0136990999999999,,2,3.0
F3KCa,6.6037,-0.0093896999999999,,2,3.0
Te3La,0.0,-0.0399309999999999,,2,3.0
ScCu4,0.0,-0.015199,,2,3.0
F6FeGa,1.4272,-0.0096302,,2,3.0
Cl4Ti,2.3627,-0.0113104,,2,3.0
MgDy3Au2,0.0,-0.0485516,,2,3.0
H2CrTa2,0.0,-0.031833,,2,3.0
O5Se2Nd2Hf2,1.8642,-0.0291592,,2,3.0
BeGaAs2,0.0,-0.0154475,,2,3.0
MnTe2Pt,0.0,-0.041216,,2,3.0
F6Rb3Tb,6.1394,-0.0165284,,2,3.0
ScErBi,0.0,-0.0483983,,2,3.0
AlZr2Tl,0.0,-0.035755,,2,3.0
Ge2PdSn3Nd3,0.0,-0.0351873,,2,3.0
AlSiSm,0.0,-0.0214433,,2,3.0
Li3Ge2Ag3,0.0,-0.0176155,,2,3.0
CuTe3BaTb,0.327,-0.0369206,,2,3.0
Co,0.0,-0.0173043,,2,3.0
MgIn3,0.0,-0.0263547,,2,3.0
ZnGaPd2,0.0,-0.0244386,,2,3.0
InTe2Pu,0.0,-0.0551049,,2,3.0
ScSn6Ir4,0.0,-0.0471542,,2,3.0
F6Rb2PdHg,0.0,-0.0184247,,2,3.0
Cu2SrIn2,0.0,-0.0241526,,2,3.0
Al3Ge2Tm3Au,0.0,-0.0326275,,2,3.0
B2Co3Er,0.0,-0.0199897,,2,3.0
CSiFe2Y,0.0,-0.0173136,,2,3.0
LiGaNd2,0.0,-0.0268206,,2,3.0
GdPS4,1.4795,-1.210425760912699,mp-1196177,2,3.0
LiBaHg2,0.0,-0.0451267,,2,3.0
Al2As2Ba,0.0,-0.0198261,,2,3.0
H5Ca2Rh,0.7077,-0.0094898,,2,3.0
Ga3GePt8,0.0,-0.0529848,,2,3.0
O8P2ScSr,0.0,-0.0118437,,2,3.0
Li4O5Se,2.6187,-0.0078552,,2,3.0
HAlSiSr,0.4467,-0.0113864999999999,,2,3.0
NSnLu3,0.0,-0.0434648,,2,3.0
Al3NiSn2Er3,0.0,-0.0298435,,2,3.0
Na6MgCl8,5.1607,-0.0083237,,2,3.0
Si2Mn2U,0.0,-0.0323623,,2,3.0
O8RbMo2In,4.1651,-0.0166123,,2,3.0
P4Ti,0.0,-0.0119891,,2,3.0
MgPd5Sb,0.0,-0.0299807,,2,3.0
H2Ti2Ag,0.0,-0.0143513,,2,3.0
ZnGa5Tb,0.0,-0.0205958,,2,3.0
SSbSm2,0.0,-0.0356473999999999,,2,3.0
P2Mn2Nd,0.0,-0.0211251,,2,3.0
Ga2SmPt2,0.0,-0.0446644,,2,3.0
Sr2Ga2S5,2.4036,-1.653663327222221,mp-14680,2,3.0
La2HgBi2,0.0,-0.0631926,,2,3.0
CoGa2Br8,0.0682,-0.0194798,,2,3.0
LiS6Cr3,0.0,-0.012525,,2,3.0
CuY2Hg,0.0,-0.0352834999999999,,2,3.0
O3FInBa2,2.1567,-0.022011,,2,3.0
Cl6CuCs2,0.0,-0.0165909,,2,3.0
Mg6SiGe2,0.0872,-0.0089428,,2,3.0
F6S2Hg3Pb,2.4485,-0.0280207,,2,3.0
Cu2Ge2Dy,0.0,-0.0238691,,2,3.0
GeRh2Ba,0.0,-0.0320953999999999,,2,3.0
B2YOs2,0.0,-0.0378573,,2,3.0
N4ZnNb2,0.0,-0.0174446,,2,3.0
F6CoAu,0.3113,-0.0150423,,2,3.0
F4AlTl,4.3813,-0.0189283,,2,3.0
Ga3Pt7,0.0,-0.054534,,2,3.0
O2YEr,0.0,-0.0258971,,2,3.0
Al5PtPu,0.0,-0.0319208,,2,3.0
YZrIn2,0.0,-0.0318626,,2,3.0
LiZn2Ba,0.0,-0.0174557,,2,3.0
CaZn3Ag2,0.0,-0.0190767,,2,3.0
Ta4Ir,0.0,-0.0678678,,2,3.0
Se2CdBa,1.0949,-0.029021,,2,3.0
Co3Cu2Tm,0.0,-0.0225014,,2,3.0
In5TmPt,0.0,-0.0417931999999999,,2,3.0
KLaPt4,0.0,-0.0562329,,2,3.0
O4NbEr,3.3905,-0.0214704,,2,3.0
O5K2Fe2Rb4,0.5093,-0.0143007,,2,3.0
O6PdLa2Pt,0.6239,-0.0249127,,2,3.0
CaGeCd,0.0,-0.0202877,,2,3.0
Si2CoTb2,0.0,-0.0269034,,2,3.0
LiLa3,0.0,-0.032884,,2,3.0
NaPt5,0.0,-0.0593704,,2,3.0
H6Sr2Re,0.0,-0.0156107,,2,3.0
O9SrTa2Bi2,2.1219,-0.0288415,,2,3.0
Ga2TmAu,0.0,-0.0392274,,2,3.0
N2CsW,0.0,-0.032113,,2,3.0
NW,0.0,-0.0399029,,2,3.0
Pd2HoAu3,0.0,-0.0542327,,2,3.0
O4SiAg4,0.6892,-0.018941,,2,3.0
AlP2S7Cs,2.5582,-0.012951,,2,3.0
Al7Ca6,0.0,-0.0088265999999999,,2,3.0
Ca2SrHg,0.0,-0.0278138,,2,3.0
NGaNd,0.0,-0.0241558999999999,,2,3.0
Al2FeTb,0.0,-0.0204608999999999,,2,3.0
Tc2RhIr,0.0,-0.0440584,,2,3.0
MnTh3,0.0,-0.0764173,,2,3.0
Sc3Ru2Ag,0.0,-0.0245899,,2,3.0
F6CuGaRb2,0.1876,-0.012015,,2,3.0
PZrPt5,0.0,-0.0569091,,2,3.0
Ru2TmNp,0.0,-0.0573752,,2,3.0
SeSnLa,0.0,-0.0345628,,2,3.0
NiHf3Os2,0.0,-0.0587327999999999,,2,3.0
Na4P2Sr,0.8193,-0.0091941,,2,3.0
Na3RbHg,0.0,-0.020436,,2,3.0
P2Rh2Np,0.0,-0.039872,,2,3.0
O5Co2YBa,0.0,-0.0171389999999999,,2,3.0
KAs2Tl2,0.0,-0.0388872,,2,3.0
Zn2YLa,0.0,-0.0248988,,2,3.0
Fe3CoDy2,0.0,-0.0279538,,2,3.0
AlGe3Sr,0.0,-0.0177663,,2,3.0
F6Re,0.0,-0.0152859,,2,3.0
Al3Ag4,0.0,-0.0213481999999999,,2,3.0
BF4RbI2Pb,2.3476,-0.0235487,,2,3.0
O6ZnAs2,2.1111,-0.0115592,,2,3.0
Ga3BaIr2,0.0,-0.0391265,,2,3.0
TiAsHo,0.0,-0.0294378,,2,3.0
S8Cr4CoCu,0.0,-0.0140053,,2,3.0
F6MoPd,0.0,-0.0132651,,2,3.0
SrTeIr,0.0,-0.0443297,,2,3.0
BeS2Cd,2.4546,-0.014474,,2,3.0
Cl6Rb2Ir,0.0,-0.0191967,,2,3.0
Zn2SbI,1.0901,-0.0254607,,2,3.0
MgMnZn4,0.0,-0.0130582999999999,,2,3.0
Li2ZnPb2,0.0,-0.0342798,,2,3.0
RuSb2Pu,0.0,-0.0552498,,2,3.0
F6CrPd,0.0,-0.0112856,,2,3.0
Se3Rb2Ta,0.0,-0.0291761,,2,3.0
Li6NI3,2.467,-0.0143835,,2,3.0
H2Cr2Tc,0.0,-0.0156267,,2,3.0
MgHoHg,0.0,-0.0413241,,2,3.0
K3Ge4Rh4,0.0,-0.0219204,,2,3.0
AlMnDy,0.0,-0.0249753,,2,3.0
MgCuNd,0.0,-0.0214655,,2,3.0
Co6As4Ho,0.0,-0.0216245,,2,3.0
InTbPt2,0.0,-0.0562489,,2,3.0
AlSiPt2,0.0,-0.040509,,2,3.0
H3CaCo,0.0,-0.0079384,,2,3.0
N2SCe2,0.8643,-0.0254723,,2,3.0
AlGa3Ge2Tb3,0.0,-0.0268008,,2,3.0
S3CuZrIn,0.1501,-0.019109,,2,3.0
SiCrAs,0.0,-0.0163668,,2,3.0
BCCuPa,0.0,-0.0335108,,2,3.0
S4Ag2SnEu,0.0,-0.0246477,,2,3.0
CoAgTb2,0.0,-0.0357721,,2,3.0
SbHg5,0.0,-0.062983,,2,3.0
YLa2Ir2,0.0,-0.0520066,,2,3.0
CaPd2Ba2,0.0,-0.0313496,,2,3.0
MgTi2Rh2,0.0,-0.021649,,2,3.0
LiInPr2,0.0,-0.0309763,,2,3.0
Zn2YAu,0.0,-0.0317085,,2,3.0
Cu2InBa,0.0,-0.0260325,,2,3.0
Si4Ca3Fe4,0.0,-0.0131785,,2,3.0
Sc6AuBi2,0.0,-0.0353444999999999,,2,3.0
Ag6Pt5,0.0,-0.0490191,,2,3.0
Pd5Th3,0.0,-0.0572299999999999,,2,3.0
NCr3Re,0.0,-0.0272711,,2,3.0
Se2AgNp,0.0,-0.0453228,,2,3.0
LiCuCdIn,0.0,-0.0205341,,2,3.0
Ti2RhPd,0.0,-0.0253552,,2,3.0
F6ZrIn2,1.7196,-0.0161787,,2,3.0
Si3Dy5,0.0,-0.0343552,,2,3.0
AlFe4Lu,0.0,-0.0227652,,2,3.0
Rh2La2Pb,0.0,-0.0467396,,2,3.0
Ni2CuPu2,0.0,-0.053501,,2,3.0
Se6RbTh2,0.0,-0.038638,,2,3.0
Be4AlAg,0.0,-0.0094358,,2,3.0
CSiFe2Er,0.0,-0.0218237999999999,,2,3.0
CdPbPu,0.0,-0.0721521,,2,3.0
K4Cd3,0.0,-0.0177657999999999,,2,3.0
OClPu,0.0,-0.0441460999999999,,2,3.0
Al3Ge2PtPu3,0.0,-0.051935,,2,3.0
PSeRu,0.347,-0.0222974,,2,3.0
HPd2In,0.0,-0.0259289999999999,,2,3.0
MgCdNd2,0.0,-0.0309091999999999,,2,3.0
ScErPb2,0.0,-0.0546161,,2,3.0
PFe2Pm,0.0,-0.0231194,,2,3.0
NiOs2Ir,0.0,-0.0576733,,2,3.0
NPCa3,0.6938,-0.0109459,,2,3.0
PNi2Pm,0.0,-0.0224545,,2,3.0
As2BaAu,0.0,-0.0380758,,2,3.0
GeSe3Pd,0.7013,-0.0227653999999999,,2,3.0
Cu4SnPu,0.0,-0.0344585,,2,3.0
O8K2V2RbNd,3.3512,-0.0146226,,2,3.0
S3Dy2,0.5229,-0.0272406,,2,3.0
AlCo8,0.0,-0.0163316,,2,3.0
Ag5Eu,0.0,-0.0352612999999999,,2,3.0
Ga2Pd3Pr,0.0,-0.0299145,,2,3.0
Cu2CdI4,1.2632,-0.030013,,2,3.0
CoGa4Sr,0.0,-0.0178836,,2,3.0
Ga3YPd2,0.0,-0.0245927,,2,3.0
Zr6NbBi2,0.0,-0.0419043,,2,3.0
FSrAgTe,1.3264,-0.02572,,2,3.0
S2CrAg,0.3,-0.0180353,,2,3.0
Al5SnPr5,0.0,-0.0270351,,2,3.0
KDy2F7,6.878299999999999,-4.229469215625,mp-2209593,2,3.0
NbTe3Pt2,0.0,-0.0480459,,2,3.0
Ni5Pt2,0.0,-0.0317101,,2,3.0
SeAuTl,0.0,-0.0541711999999999,,2,3.0
O6MnPr2Pt,0.8051,-0.0238662,,2,3.0
Si2CrGd,0.0,-0.024766,,2,3.0
Li4AlY,0.0,-0.0075698,,2,3.0
Ga2Ir,0.0,-0.0350914,,2,3.0
Fe2HoPu,0.0,-0.048893,,2,3.0
O2BrPb2,0.0,-0.0377075,,2,3.0
SSe2In2,1.355,-0.0238957,,2,3.0
CuSb2Nd6,0.0,-0.0396594,,2,3.0
NCl2Sc2,0.0,-0.0129806,,2,3.0
F8Ba3,0.6301,-0.0166528999999999,,2,3.0
Na2Cd2Tl,0.0,-0.0284103,,2,3.0
LiK3,0.0,-0.0067636,,2,3.0
H2NaBa2,0.0,-0.0184164,,2,3.0
ZnYLa,0.0,-0.0284163999999999,,2,3.0
O4PTi,0.0,-0.0113425,,2,3.0
KRb2Sb,0.2467,-0.0222490999999999,,2,3.0
VFe2Se4,0.0,-0.0195924,,2,3.0
GaCdTm,0.0,-0.0334679,,2,3.0
MgNd2Pb2,0.0,-0.0494664,,2,3.0
LiO3AlFe,0.3452,-0.0102180999999999,,2,3.0
PSr3,0.0,-0.0200237,,2,3.0
CaAs2Pd,0.0,-0.0215346,,2,3.0
Co4Ga4Er3,0.0,-0.0264118,,2,3.0
CSi2YMo2,0.0,-0.0217485,,2,3.0
CuGe2Pr,0.0,-0.0248619,,2,3.0
Pr3Pt,0.0,-0.0507431,,2,3.0
N2Sr2Ru,0.0,-0.0202292,,2,3.0
CuZn2Se4In,0.2581,-0.0201271,,2,3.0
LiMnSn4,0.0,-0.0274696,,2,3.0
F7Ca2Eu,0.0,-0.0137635,,2,3.0
Li2Sr2Ba,0.0,-0.0177579,,2,3.0
Cl6Cs2TlBi,1.7262,-0.0289888,,2,3.0
Co3Pd,0.0,-0.0211567,,2,3.0
InCe3,0.0,-0.0420940999999999,,2,3.0
PCe2Bi,0.0,-0.0457372,,2,3.0
MgRhSm,0.0,-0.0284552,,2,3.0
H2O4Te,1.8421,-0.0108787,,2,3.0
N2CoNd2,0.0,-0.0258289,,2,3.0
B2O6ZrCs2,3.4937,-0.0172464,,2,3.0
MnZnSe2,0.1699,-0.0188301,,2,3.0
Ir2PbTh2,0.0,-0.0828735999999999,,2,3.0
Zn6Ge3Pr2,0.0,-0.0209519,,2,3.0
Sb2Tb6Pt,0.0,-0.048209,,2,3.0
O3NaTi,0.0,-0.0102312,,2,3.0
GaTm2,0.0,-0.0405084999999999,,2,3.0
Rh2La3Pb3,0.0,-0.0538316999999999,,2,3.0
V6CoRh,0.0,-0.0198022,,2,3.0
FeNi2Ge,0.0,-0.0175693,,2,3.0
C2TiW,0.0,-0.0269032,,2,3.0
AlTe2,0.1558,-0.0277219,,2,3.0
Si2Cu2Pu,0.0,-0.0324378,,2,3.0
NiDyPt,0.0,-0.0456101,,2,3.0
CdIn3Ir,0.0,-0.0404514,,2,3.0
Ga3SrAu,0.0,-0.0287625,,2,3.0
S3KAgTb,0.0,-0.0205469,,2,3.0
Ga5PdHo,0.0,-0.0239398,,2,3.0
GaAg,0.0,-0.0238518,,2,3.0
Co3Tb2Os,0.0,-0.0363483999999999,,2,3.0
Si2Hf2Au,0.0,-0.0436023,,2,3.0
S4Pd2SnBa,0.626,-0.0233172,,2,3.0
O2CdTl,0.0,-0.0296518,,2,3.0
MgPd2Ho,0.0,-0.0307604,,2,3.0
NiBrDy,0.0,-0.0290081999999999,,2,3.0
S2RbTl,0.9206,-0.0288047,,2,3.0
P4Fe2Cu2Pr3,0.0,-0.0226077,,2,3.0
O2CuSr2I2,0.0,-0.0227485,,2,3.0
Zn2EuHo,0.0,-0.0327553,,2,3.0
GaAgTb,0.0,-0.0320949,,2,3.0
S3TiRbAg,0.3677,-0.0173302,,2,3.0
NCl2Tm2,0.0,-0.0280361,,2,3.0
O2SY2,2.8941,-0.0191198,,2,3.0
O6Sr2SbDy,3.8582,-0.0196656,,2,3.0
CILu2,0.0,-0.0402373,,2,3.0
EuPt,0.0,-0.0630450999999999,,2,3.0
CuGeRh2,0.0,-0.0258855,,2,3.0
ZnGd2Tl,0.0,-0.0513502999999999,,2,3.0
GeLa2Pt3,0.0,-0.0538163,,2,3.0
Cl3KAu,0.6178,-0.0214128,,2,3.0
YPr2,0.0,-0.0381338,,2,3.0
CaCoGe3,0.0,-0.0172637,,2,3.0
LiCu4Au,0.0,-0.022167,,2,3.0
YInEu,0.0,-0.0388243999999999,,2,3.0
GaAu2Ac,0.0,-0.0621124999999999,,2,3.0
Li4O12CrSbTe2,0.0823,-0.0124993999999999,,2,3.0
S2TiPb,0.0,-0.0289228999999999,,2,3.0
MgZrTl,0.0,-0.0362655,,2,3.0
CoTm2Au,0.0,-0.0482196,,2,3.0
Pb2Pu,0.0,-0.0871106,,2,3.0
MnPd7,0.0,-0.0311895999999999,,2,3.0
FK2Rb,0.0,-0.0115888,,2,3.0
LiAg4Sb,0.0,-0.0275865,,2,3.0
H12C2N6F6Ti,2.5186,-0.0069402,,2,3.0
Mg2AuHg,0.0,-0.0373789,,2,3.0
AgIn2Tb,0.0,-0.0366812,,2,3.0
Pd2Gd,0.0,-0.0422717,,2,3.0
BO4V,2.9104,-0.0108146,,2,3.0
O4ClSb2Ho,0.7028,-0.0217636,,2,3.0
O6ScBa2Hf,0.0,-0.0227237,,2,3.0
SiPCuHf,0.0,-0.0252575,,2,3.0
CuSm2Au,0.0,-0.0439812,,2,3.0
O9P3KNi,1.4625,-0.0103173,,2,3.0
Se4Sn2Hg,0.0,-0.0316698,,2,3.0
Al2CaIr,0.0,-0.0249087,,2,3.0
NiSb2Hf6,0.0,-0.052416,,2,3.0
Al6Si2Co,0.0,-0.0094475,,2,3.0
As2Te3,0.1909,-0.0304248,,2,3.0
MgSe3RbNd,2.1861,-0.0233575,,2,3.0
ZnPm,0.0,-0.0291372,,2,3.0
Zr3Mo4,0.0,-0.0331237,,2,3.0
CsHg2Bi2,0.0,-0.0665255999999999,,2,3.0
PdTe3CsHf,0.0,-0.0417541,,2,3.0
FeAs2Hf6,0.0,-0.0489401,,2,3.0
Ti2VMn3,0.0,-0.0175897,,2,3.0
AgAuTl2,0.0,-0.0612811,,2,3.0
Y2AgOs,0.0,-0.0401082,,2,3.0
Ge2NdAu,0.0,-0.0384874,,2,3.0
CuSe3DyPb,1.0969,-0.0342723,,2,3.0
Li3O4Bi,1.5294,-0.0154586,,2,3.0
SbPb4,0.0,-0.0680158,,2,3.0
Sc3Fe4Ge2,0.0,-0.0174478,,2,3.0
H8MnCd2Nd,0.598,-0.0126835,,2,3.0
BCo3Zr,0.0,-0.0183089,,2,3.0
NaSi2Pt,0.0,-0.0240839,,2,3.0
Zn2EuPt,0.0,-0.0384365,,2,3.0
Ga2Sr3Pt4,0.0,-0.0432355,,2,3.0
Al2SrSn2,0.0,-0.0222294,,2,3.0
PSFe,0.6345,-0.0132429,,2,3.0
B2Ti2Fe,0.0,-0.0137882,,2,3.0
BNi3Lu,0.0,-0.0227133,,2,3.0
COAl2,0.6023,-0.0094144,,2,3.0
O8Mo2Th,3.9029,-0.022237,,2,3.0
Si2CoSr,0.0,-0.0153193,,2,3.0
AlCu4Pr,0.0,-0.0189024,,2,3.0
F4CoTl2,0.0,-0.0271215,,2,3.0
Y6RuPb2,0.0,-0.0398875,,2,3.0
ScZn2Au2,0.0,-0.0365276,,2,3.0
KBr6MoCs2,1.2915,-0.0250699,,2,3.0
Ni2CuSr,0.0,-0.0174869,,2,3.0
O6AlYBa2,0.0,-0.0181331,,2,3.0
LiMgRu2,0.0,-0.0192603,,2,3.0
InHg2Pb,0.0,-0.0613598,,2,3.0
H8CaMn2Fe,0.0,-0.00794,,2,3.0
CuZr2Os,0.0,-0.0376066,,2,3.0
Pd2CdSm3,0.0,-0.0389421999999999,,2,3.0
Mn3Ho2Os,0.0,-0.0377614999999999,,2,3.0
Na2Sn2Au,0.0,-0.0302803,,2,3.0
PCoDy2,0.0,-0.0316638,,2,3.0
Zn2YBa,0.0,-0.0239003,,2,3.0
BO6Na3Mn2,1.1398,-0.0099653,,2,3.0
F2CsTl,3.1635,-0.0315208,,2,3.0
CuGeAsU,0.0,-0.0397739,,2,3.0
O6NiSnPr2,0.6285,-0.0202748,,2,3.0
Co3Ge2Y,0.0,-0.0201103999999999,,2,3.0