formula,bg,formation_energy,mp-id,fidelity,bg_category
Si2ScCo2,0.0,-0.0145292999999999,,2,3.0
HfIr,0.0,-0.0680858,,2,3.0
Sc2YPb,0.0,-0.0334565,,2,3.0
Mg2LaIr,0.0,-0.0316216,,2,3.0
AlFe4Hf,0.0,-0.0241091,,2,3.0
LiO4Sc3,0.0,-0.0119642,,2,3.0
RhCd2Sm,0.0,-0.035293,,2,3.0
ZnGe3La,0.0,-0.02321,,2,3.0
O5PClRbMo,0.414,-0.013951,,2,3.0
K5Ba,0.0,-0.0134715,,2,3.0
Rb3Pt4Pb4,0.0,-0.0590128,,2,3.0
Si2SrRh3,0.0,-0.0249255,,2,3.0
FSrI,4.3129,-0.0239337,,2,3.0
Pd3Bi,0.0,-0.0444312,,2,3.0
GaMoOs,0.0,-0.0411959,,2,3.0
Pd2Cd3La,0.0,-0.0338631,,2,3.0
Be2FeOs2,0.0,-0.0343412,,2,3.0
Ga2PmTb,0.0,-0.0315268,,2,3.0
F6NiTl3,0.0,-0.0274055,,2,3.0
NiCu2Te3,0.0,-0.0264592999999999,,2,3.0
Cl6K2CuTm,2.4637,-0.0151237,,2,3.0
Cu2CdTh3,0.0,-0.058136,,2,3.0
ScAg2Gd,0.0,-0.0342385,,2,3.0
S6MnTa2,0.0,-0.024232,,2,3.0
NaBr,4.0692,-0.0136027,,2,3.0
Se2RbAg,0.7291,-0.0236477,,2,3.0
O6ScSr2Rh,0.0,-0.0156151,,2,3.0
Na2AlS4Sn,0.0,-0.0123384,,2,3.0
O4EuBi2,0.0,-0.0353983,,2,3.0
H2CoZr2,0.0,-0.0175529,,2,3.0
HSrPd2,0.0,-0.0233882,,2,3.0
Y2Sb,0.0,-0.0319071,,2,3.0
F5AlGe,3.7345,-0.0093455,,2,3.0
Ga3RhHo2,0.0,-0.0309966,,2,3.0
CrIn5La,0.0,-0.0329857999999999,,2,3.0
P2Rh2Hf,0.0,-0.0312624,,2,3.0
Cl6K2PdAu,0.0,-0.0178037999999999,,2,3.0
Ge2HoPu,0.0,-0.0498082,,2,3.0
SePr,0.0,-0.0337680999999999,,2,3.0
PPr2Bi,0.0,-0.0452563,,2,3.0
NCa2Cu,0.0012,-0.0115259,,2,3.0
ScSrRh2,0.0,-0.0266159,,2,3.0
NiSn2Tm,0.0,-0.0354736,,2,3.0
NiHo2Pt,0.0,-0.0470456999999999,,2,3.0
MgRu2Tm2,0.0,-0.036057,,2,3.0
O4PdSb,0.0,-0.0168896,,2,3.0
Sc6Sb2Au,0.0,-0.0262901,,2,3.0
B6Rh2Pa,0.0,-0.0239402,,2,3.0
CaInTl2,0.0,-0.0472614,,2,3.0
Cl4K2Cd,3.2391,-0.0130614,,2,3.0
ZrTe2Cs,0.0,-0.0368225,,2,3.0
NMo3Ir,0.0,-0.0372367,,2,3.0
KFe4As4Ba,0.0,-0.020501,,2,3.0
CoDy2,0.0,-0.0378179,,2,3.0
C2O6MgBa,4.0123,-0.0125519999999999,,2,3.0
F6Cs3Ce,0.0,-0.0213257,,2,3.0
Al5Co2Sm,0.0,-0.0152173999999999,,2,3.0
S4GaAgCd2,1.0308,-0.0190593,,2,3.0
CaBa2Au2,0.0,-0.0461556,,2,3.0
Sc6RuPb2,0.0,-0.0307965,,2,3.0
SiSr2Tl,0.0,-0.0322357,,2,3.0
SrIn2Ac,0.0,-0.0454653,,2,3.0
Li2ZnBa,0.0,-0.0145404,,2,3.0
O6Nb2Hg,1.9993,-0.0212826,,2,3.0
PZrRh,0.0,-0.0263804,,2,3.0
Mg2AlPd2,0.0,-0.0173739999999999,,2,3.0
O6CoYBa2,0.0,-0.0187084,,2,3.0
AlRuLa2,0.0,-0.0326188,,2,3.0
Ni2GaLa,0.0,-0.0234912,,2,3.0
H3CuSr,0.9532,-0.0099902,,2,3.0
P4Ca3Ni2Zn2,0.0,-0.0127044,,2,3.0
Ag2Au2Pb,0.0,-0.0553791,,2,3.0
O6Sr2ZrDy,0.0,-0.0193485,,2,3.0
Zn2Ho2Tl,0.0,-0.0399563,,2,3.0
ZnDy2Hg,0.0,-0.0448823,,2,3.0
Ti2Co2Pt,0.0,-0.0279076999999999,,2,3.0
ClCoIn3,0.0,-0.0253626,,2,3.0
OFP,3.9081,-0.0087447,,2,3.0
H4CaNi,0.0,-0.0070419,,2,3.0
LiGa2Ag2,0.0,-0.0196793,,2,3.0
Mg3CoGa3Ge2,0.0,-0.0134525,,2,3.0
ZnTb3Au2,0.0,-0.049558,,2,3.0
FeBrEr,0.0,-0.0302835,,2,3.0
LiKHg,0.0,-0.0265375,,2,3.0
Ag2La2Pb,0.0,-0.0454652,,2,3.0
SnTa2Au,0.0,-0.0596765,,2,3.0
CuHf,0.0,-0.0391173,,2,3.0
IPt2Bi2,0.0,-0.0670933,,2,3.0
Er2Pt,0.0,-0.0581749,,2,3.0
CaAu4Pb,0.0,-0.060798,,2,3.0
LiTbAu2,0.0,-0.0477345,,2,3.0
AlSi2Y2,0.0,-0.0174726,,2,3.0
MgAsPb2,0.0,-0.0443102,,2,3.0
SrRu4Sb12,0.0,-0.036201,,2,3.0
F4KY,7.0894,-0.0123422,,2,3.0
Ga3Pd2Pr,0.0,-0.0271563,,2,3.0
Zn2YRu,0.0,-0.0227735,,2,3.0
LiBPd3,0.0,-0.0220582,,2,3.0
As2AgSm,0.0,-0.0299279,,2,3.0
LiSc2Au2,0.0,-0.0346985,,2,3.0
Rh2CdBi,0.0,-0.0441454,,2,3.0
Ge2Pd2La,0.0,-0.0303493,,2,3.0
NaP2Ni2Ho,0.0,-0.0185831,,2,3.0
CaGa2Ag,0.0,-0.0188886,,2,3.0
C6YLa2,0.0,-0.0197181,,2,3.0
Be13La,0.0,-0.0072501,,2,3.0
AlNdOs,0.0,-0.0415271,,2,3.0
LiMg,0.0,-0.0037399,,2,3.0
MgCdPb2,0.0,-0.0467937,,2,3.0
AlMnCu2,0.0,-0.0144396,,2,3.0
ScZn4Pt,0.0,-0.0235732,,2,3.0
O6Ba2LuPt,0.0,-0.0267839,,2,3.0
F5AlCu,0.0,-0.0087384,,2,3.0
Pd3Cd2La,0.0,-0.0342738,,2,3.0
LiP2Pd2Dy,0.0,-0.0237976,,2,3.0
S2HgTl,0.0,-0.0400732,,2,3.0
Al9Co3Nd2,0.0,-0.0154318,,2,3.0
Si4P4Re,0.0,-0.0171889,,2,3.0
Sc4Zn2In5,0.0,-0.023311,,2,3.0
ZnHf2,0.0,-0.0465068,,2,3.0
AlSe2,0.7607,-0.01669,,2,3.0
CaSrTl2,0.0,-0.0447958,,2,3.0
NbRu2Lu,0.0,-0.0400994,,2,3.0
Li2F8BaDy,0.0,-0.0135123999999999,,2,3.0
NaZrTe2,0.0,-0.0283899,,2,3.0
Rh2CdAu,0.0,-0.0418044,,2,3.0
STa6,0.0,-0.0587184,,2,3.0
FeAsTa4,0.0,-0.0510252,,2,3.0
HAsRb,1.3864,-0.0151541,,2,3.0
K2Se2Pt,0.8538,-0.0264799,,2,3.0
MgSc2Mn,0.0,-0.0129715,,2,3.0
H12O6CaBr2,4.1569,-0.0073179,,2,3.0
Rh2CePu,0.0,-0.0560298,,2,3.0
Fe3Rh2,0.0,-0.0244979,,2,3.0
GeITb,0.0,-0.0352847,,2,3.0
SeBrPt2,0.0,-0.0452806,,2,3.0
CaGa2Ru,0.0,-0.0197491,,2,3.0
BaPt4Pb,0.0,-0.0664887,,2,3.0
BO3NaNi,0.5013,-0.0097776,,2,3.0
YNbRu2,0.0,-0.0330197999999999,,2,3.0
MgLaTl,0.0,-0.0407504,,2,3.0
LiMg2Si,0.0,-0.0056677,,2,3.0
Cr3Ir,0.0,-0.0317034999999999,,2,3.0
Sc3Ni4Ge2,0.0,-0.0168627,,2,3.0
CaSn3Au,0.0,-0.0377322,,2,3.0
S4Co3Cs2,0.7418,-0.0192864,,2,3.0
AlBrHo,0.0,-0.0265344,,2,3.0
H2LiO3P,6.9013,-0.0073006,,2,3.0
LiPd2Bi,0.0,-0.0370572,,2,3.0
MnRu2Pr2,0.0,-0.0351068,,2,3.0
Mg3SrPd2,0.0,-0.0176918,,2,3.0
Co3Ir2,0.0,-0.0387657999999999,,2,3.0
B2N3Ru2Sm3,0.0,-0.0258245,,2,3.0
C2Sr2I,0.0,-0.0209803,,2,3.0
BeO4Co2,0.7428,-0.0110596,,2,3.0
Ni4SrLa,0.0,-0.0217652,,2,3.0
Ga3Ge2Sr3Au,0.0,-0.0253949,,2,3.0
NaGeRh,0.0,-0.0195109,,2,3.0
NaCu4Te4,0.0,-0.0239919,,2,3.0
TiHfBi,0.0,-0.0526610999999999,,2,3.0
Ga3Ge2Er3Pt,0.0,-0.0352204,,2,3.0
Se2Te4W3,0.6704,-0.0444093999999999,,2,3.0
LiRh2Tl2,0.0,-0.042952,,2,3.0
Cr4Mo5,0.0,-0.0274441,,2,3.0
Al2PmDy,0.0,-0.0272245,,2,3.0
NiSeBi,0.0,-0.0384843,,2,3.0
H8C3N2O,4.6259,-0.0062689,,2,3.0
B2Fe3Sm,0.0,-0.0191707,,2,3.0
Sb2TeI,0.0631,-0.0372415,,2,3.0
LiO2KNi,0.0,-0.0092987,,2,3.0
SiNi2Nd2,0.0,-0.0264681,,2,3.0
Li2O8Fe3Sn,0.0,-0.0121156,,2,3.0
ZnHfPt2,0.0,-0.0552179,,2,3.0
Li3O5Co2,0.0,-0.0091263,,2,3.0
SiBrU,0.0,-0.0449242,,2,3.0
Ni3Zn2Ba,0.0,-0.0192550999999999,,2,3.0
TcHf2Re,0.0,-0.0583893,,2,3.0
C3Y2W2,0.0,-0.0325857,,2,3.0
Al6NiTb,0.0,-0.0140958,,2,3.0
Pd2TmBi,0.0,-0.0497834,,2,3.0
Mg5Al,0.0,-0.0054297,,2,3.0
Mg2TbEr,0.0,-0.0268337,,2,3.0
CaCuBi,0.0,-0.035043,,2,3.0
AlRuTb,0.0,-0.0304663,,2,3.0
Be4ZrIr,0.0,-0.0204105999999999,,2,3.0
LiP2ZrPd2,0.0,-0.0208503,,2,3.0
LiGa2Ac,0.0,-0.0317864,,2,3.0
Tm2Pt,0.0,-0.0591841,,2,3.0
In5OsNp,0.0,-0.0493731,,2,3.0
CaAg2In,0.0,-0.0267821,,2,3.0
LiBr6Cs2Dy,4.0929,-0.026296,,2,3.0
MgGeRh2,0.0,-0.0236198,,2,3.0
Si8Sc3Hf,0.0,-0.0159629,,2,3.0
H4NCl4Tl,2.2931,-0.0134405,,2,3.0
Al3Si2Nd3Ir,0.0,-0.0281032,,2,3.0
ScAgAu2,0.0,-0.0466541,,2,3.0
As2Au2Pb,0.0,-0.0509628,,2,3.0
SiSr3I2,0.0,-0.0262363,,2,3.0
LiZn2Sr2,0.0,-0.0149409,,2,3.0
Mg2ScCu,0.0,-0.0100057,,2,3.0
Al2CoGd,0.0,-0.0233997,,2,3.0
Pd3Te2,0.0,-0.0350363,,2,3.0
Br6InSbCs2,0.0,-0.0275436,,2,3.0
PrNdPb2,0.0,-0.0603727,,2,3.0
OSFeBa,0.0,-0.0201986,,2,3.0
Si2Ga3Th2,0.0,-0.0377223,,2,3.0
AlAsSr,0.0,-0.0176324,,2,3.0
ReIrPt,0.0,-0.0709808,,2,3.0
ZnNd2Au,0.0,-0.043134,,2,3.0
F6Na2Pd,1.9119,-0.0091363,,2,3.0
Cu2Se4SnHg,0.0,-0.0271277,,2,3.0
SSbPu,0.0,-0.0534355,,2,3.0
F7CsNd2,6.4821,-0.019049,,2,3.0
Zn2CeOs,0.0,-0.0361882,,2,3.0
NSr2Ir,0.0,-0.0318403,,2,3.0
NAlZr3,0.0,-0.0229386,,2,3.0
NaBrCs3,0.0,-0.0281871,,2,3.0
Li3O8Si2Fe2,0.0,-0.0099435,,2,3.0
GaHgAc2,0.0,-0.0669426,,2,3.0
ScZr5,0.0,-0.0279606,,2,3.0
O6ZnSr2W,2.9988,-0.0191961,,2,3.0
N12K2Cd,2.8962,-0.0104916,,2,3.0
Ni2SnPu,0.0,-0.0446552,,2,3.0
In5LuIr,0.0,-0.0423244,,2,3.0
Li4N6MgSi2Ca2,3.2272,-0.0084891,,2,3.0
O3SrTa,0.0,-0.0246151,,2,3.0
AsZr2Rh,0.0,-0.0299342,,2,3.0
Al5Ni2Tb,0.0,-0.0153786,,2,3.0
La3Eu,0.0,-0.0456945,,2,3.0
Be2Ti2Tl,0.0,-0.022801,,2,3.0
TiPd5Sb,0.0,-0.0315972,,2,3.0
O6InTeDy,2.6282,-0.0194577999999999,,2,3.0
LiBr6Cs2Tm,4.2134,-0.0266964,,2,3.0
F6CuSb,0.0,-0.0113148,,2,3.0
INdAu,0.0,-0.0510593,,2,3.0
ZrSb5Nd3,0.0,-0.0397092,,2,3.0
F6RbZr,0.0,-0.0121687999999999,,2,3.0
O8CaAgW2,0.0,-0.021349,,2,3.0
PZnTb,0.0,-0.0244465,,2,3.0
CdIn2,0.0,-0.0323584,,2,3.0
WIr4,0.0,-0.0710357,,2,3.0
CoRu2Tm3,0.0,-0.0408789,,2,3.0
Al2FePd,0.0,-0.0173241,,2,3.0
Pd2SbHo5,0.0,-0.0443425999999999,,2,3.0
FeBrY,0.0,-0.0228015,,2,3.0
GeAgNd2,0.0,-0.034988,,2,3.0
LiAs2Rh2Lu,0.0,-0.0285883,,2,3.0
TmLuBi,0.0,-0.0625106,,2,3.0
Cl6K2Ca,2.6607,-0.0100737,,2,3.0
O6FeAs2,0.0,-0.012006,,2,3.0
H2Co2Ir,0.0,-0.0223874,,2,3.0
Er2Os,0.0,-0.0579753,,2,3.0
Cd4La,0.0,-0.0332924,,2,3.0
Cu4InLu,0.0,-0.0252663,,2,3.0
S4NiZr2,0.0,-0.0181335,,2,3.0
F6AgCs2Ir,1.1861,-0.0220402,,2,3.0
Li2CdBa,0.0,-0.0188791,,2,3.0
Co2In3Tm2,0.0,-0.0343451,,2,3.0
CuZnAg,0.0,-0.0200253,,2,3.0
Al10LuOs2,0.0,-0.0218145,,2,3.0
ZnSrSb2,0.0,-0.0282046,,2,3.0
Hf,0.0,-0.0626726,,2,3.0
Ti3Ni2Ru,0.0,-0.0197631,,2,3.0
AlGaLa2,0.0,-0.0280831,,2,3.0
CaRh2Pb,0.0,-0.0385910999999999,,2,3.0
Zr6RhSb2,0.0,-0.0332705,,2,3.0
Mg5Tl4,0.0,-0.0350008,,2,3.0
Al2CaPt,0.0,-0.0248881,,2,3.0
AsU2,0.0,-0.0761637999999999,,2,3.0
Se2I2Dy,1.2247,-0.0334152,,2,3.0
Cu2ZnEr2,0.0,-0.0292803,,2,3.0
CN2IHo,1.6316,-0.0238343,,2,3.0
Zn2Pt3Pu,0.0,-0.0585734,,2,3.0
O3Na2Nb,0.6606,-0.0123577,,2,3.0
Br6Rb2In,0.0,-0.0225303,,2,3.0
H2O10P2VFe,0.0012,-0.0098912999999999,,2,3.0
HCo4,0.0,-0.0144744,,2,3.0
F6Cs3Lu,6.2767,-0.022571,,2,3.0
OZnSbLu,0.0,-0.0299132,,2,3.0
Al7Dy3Au2,0.0,-0.0287052,,2,3.0
CaAg5,0.0,-0.0279115,,2,3.0
O4ClPrBi2,1.1026,-0.0312235,,2,3.0
Cl3Sr3Bi,1.4803,-0.0262422,,2,3.0
NiRuLa2,0.0,-0.0345537,,2,3.0
MgSn2Os,0.0,-0.0372370999999999,,2,3.0
N3NbDy,0.0,-0.0229484,,2,3.0
O4BrYBi2,1.1668,-0.0307571,,2,3.0
C2O6Rb2Eu,0.3039,-0.0160114,,2,3.0
S4Cu2HgPb,0.0,-0.0268475,,2,3.0
Al2HoAu,0.0,-0.0342875999999999,,2,3.0
CrAs4,0.0,-0.0198559,,2,3.0
Al2TmOs,0.0,-0.0354381,,2,3.0
Ni2InHf2,0.0,-0.0387624,,2,3.0
Pd2PbAc,0.0,-0.0586516,,2,3.0
NaGe2Ag,0.0,-0.0185043,,2,3.0
CdCeBi2,0.0,-0.0585274,,2,3.0
B6Ba,0.1045,-0.012501,,2,3.0
Pd2SnNp,0.0,-0.0523832,,2,3.0
Y6Te2W,0.0,-0.0351775999999999,,2,3.0
H16Mg7Nb,0.0,-0.0053497,,2,3.0
NaMgCu2Sb2,0.0,-0.0193024999999999,,2,3.0
Co6As4Y,0.0,-0.0197352999999999,,2,3.0
LiSnTb2,0.0,-0.0334341,,2,3.0
ZnEu2Hg,0.0,-0.0477722,,2,3.0
O6CuPt3,0.0,-0.0270165,,2,3.0
Co2As2Cs,0.0,-0.0229479,,2,3.0
Sc2Ge2Re,0.0,-0.0282649,,2,3.0
Sc2Ru,0.0,-0.0216781,,2,3.0
F5CaFe,0.7658,-0.0097324,,2,3.0
CrGeIr2,0.0,-0.0452888,,2,3.0
Si3Pd2W,0.0,-0.0279892,,2,3.0
AsSrSn,0.0,-0.0269826,,2,3.0
TeLaPb,0.0,-0.0532455,,2,3.0
OMn2Ba2Bi2,0.0,-0.0410719,,2,3.0
O8Rb3La,0.0,-0.0143169,,2,3.0
O6TiCrBaLa,0.3539,-0.0187408,,2,3.0
Mg2AlS8Mn3,0.0,-0.0118377,,2,3.0
PZrMo,0.0,-0.0263942,,2,3.0
Cr2RhPt,0.0,-0.0354575,,2,3.0
BeLaPt2,0.0,-0.0480399,,2,3.0
F8SrLu2,7.262,-0.0190792,,2,3.0
O4HoNp,0.0,-0.033689,,2,3.0
Al9KNi2,0.0,-0.0095408,,2,3.0
BeGePu,0.0,-0.0447669,,2,3.0
F3GeTl,3.0501,-0.0224849999999999,,2,3.0
Al3Ge2Tb3Os,0.0,-0.0312617,,2,3.0
O5CrBa3,0.1623,-0.0214813,,2,3.0
F6Cs2HgBi,0.0,-0.0266529,,2,3.0
CoIn2Lu,0.0,-0.0351381,,2,3.0
TiGaPd,0.0,-0.0224559,,2,3.0
O8P2BaTa,0.0,-0.017563,,2,3.0
NSr3Au,0.0,-0.0297599,,2,3.0
GeTe3Sm4,0.0,-0.0400328999999999,,2,3.0
KMnSe3Er,0.1235,-0.0244876,,2,3.0
Ga2PrAc,0.0,-0.0421736999999999,,2,3.0
Ga3Ru2Pd,0.0,-0.0257008,,2,3.0
AlRuLa,0.0,-0.0291252,,2,3.0
GeRu3Er2,0.0,-0.0379713,,2,3.0
S3PdCsHf,0.0,-0.0283442,,2,3.0
NaCd2Hg,0.0,-0.0334321,,2,3.0
Cu2Ga3Y,0.0,-0.0183718,,2,3.0
Pt2Hg,0.0,-0.0694106,,2,3.0
ZnRu2La,0.0,-0.031776,,2,3.0
NaI,3.5893,-0.0218995,,2,3.0
H2O12Mg3Si3KGa,4.0822,-0.0095609,,2,3.0
Mg2Ga2Pb,0.0,-0.0237929999999999,,2,3.0
CdLaHg2,0.0,-0.0530516999999999,,2,3.0
Sc2Co2Tl,0.0,-0.0274157,,2,3.0
Ni2GaZr2,0.0,-0.0226573999999999,,2,3.0
AgLa2Ir,0.0,-0.0477907999999999,,2,3.0
HoHg,0.0,-0.0592834,,2,3.0
CoSb2Eu,0.0,-0.0369254,,2,3.0
ClSeTl2,0.0,-0.0438089,,2,3.0
CdGd2Hg,0.0,-0.0545878999999999,,2,3.0
KTe3HfAu,0.0,-0.0428322,,2,3.0
CsCeF5,2.2534,-3.82972951762931,mp-1202824,2,3.0
CN2ClCe,0.0,-0.0176029,,2,3.0
CoBrIn3,0.0,-0.0275711,,2,3.0
GaPr2Au2,0.0,-0.0491539,,2,3.0
Al3ZnGe2Hf3,0.0,-0.029667,,2,3.0
Li2SiTb,0.0,-0.0157764,,2,3.0
ZnHg2Pu,0.0,-0.0649865,,2,3.0
Sc2CoAg,0.0,-0.019666,,2,3.0
Li16N8OTa2,3.3642,-0.0104229,,2,3.0
Ni2Ga3Er,0.0,-0.0225948999999999,,2,3.0
Li4OF7Mn2,0.0056,-0.0083848,,2,3.0
Ru2SnEr,0.0,-0.039428,,2,3.0
O4SbAu,0.7835,-0.0227518,,2,3.0
MgGe2Th2,0.0,-0.0476173,,2,3.0
Li2GePt,0.0,-0.0242918999999999,,2,3.0
H8Mg2FeEu,0.0,-0.0095762,,2,3.0
O6InTaPb2,2.6188,-0.0308606,,2,3.0
Co2As2Lu,0.0,-0.026754,,2,3.0
NaZn2RbPt,0.0,-0.0246922,,2,3.0
LiP2Co2Hf,0.0,-0.020862,,2,3.0
Co2Tm3Hg,0.0,-0.0434767999999999,,2,3.0
MgPb4,0.0,-0.0616415,,2,3.0
Al2In9Cs,0.0,-0.0294788,,2,3.0
F6CsOs,1.2303,-0.0186519,,2,3.0
Rh8Er,0.0,-0.0358009,,2,3.0
P2LaPt2,0.0,-0.0420523,,2,3.0
MgCaPd4,0.0,-0.0248809,,2,3.0
Pd2InPa,0.0,-0.0502014,,2,3.0
FeNi2,0.0,-0.0169463,,2,3.0
NaCu2Sb2Lu,0.0,-0.027963,,2,3.0
SiCo2Ge,0.0,-0.0162317,,2,3.0
O6MgTiEr2,3.2489,-0.0195524999999999,,2,3.0
S4Fe2Ba,0.0,-0.0172546,,2,3.0
Co2RuIr,0.0,-0.0350317,,2,3.0
Si2Rh2Pa,0.0,-0.0384844,,2,3.0
Li2CaGa,0.0,-0.0079227999999999,,2,3.0
Y5Pt,0.0,-0.0353823999999999,,2,3.0
SiCo4,0.0,-0.015972,,2,3.0
CuTe2Ho6,0.0,-0.0433281,,2,3.0
Li2O7P2Sn,2.0194,-0.0110140999999999,,2,3.0
S4CrI,0.0,-0.0158724,,2,3.0
F8Na2CaLa,0.0,-0.0109039,,2,3.0
Te3Ir2Pb,0.0,-0.0552175,,2,3.0
FeGa3Sn2Er3,0.0,-0.0328088,,2,3.0
OZnAsNp,0.0,-0.03814,,2,3.0
O3MgCo,0.0,-0.0100871,,2,3.0
MnAsRh,0.0,-0.0246998,,2,3.0
Li2O8Mn3Te,0.0,-0.0123725,,2,3.0
SbAuPb,0.0,-0.0608721,,2,3.0
Mg2YIr,0.0,-0.0278356,,2,3.0
O7CaGe2Dy,0.0,-0.0151042,,2,3.0
CGeGd3,0.0,-0.0416708,,2,3.0
RhIn2Nd,0.0,-0.0367699,,2,3.0
BeAu2Hg,0.0,-0.052825,,2,3.0
N2K2Pu,0.0,-0.0296716,,2,3.0
NaBa3Ir,0.0,-0.0389247999999999,,2,3.0
ZnGaHo,0.0,-0.0269547999999999,,2,3.0
NiZnDy,0.0,-0.0263114,,2,3.0
F6FeCo,0.0,-0.0093280999999999,,2,3.0
Zn3Pm,0.0,-0.0215018999999999,,2,3.0
B2CRh2Np,0.0,-0.0336382,,2,3.0
Nb2Ag,0.0,-0.0324697,,2,3.0
H2SeSr2,2.1153,-0.0155931,,2,3.0
Si2KGa2,0.0,-0.0122419,,2,3.0
SbAu2Ac,0.0,-0.0673195,,2,3.0
B3Mn2,0.0,-0.0121929999999999,,2,3.0
NiRh5,0.0,-0.0308105,,2,3.0
O4YPa,2.9958,-0.0294425,,2,3.0
N3K5Pd3,0.0,-0.0153905999999999,,2,3.0
GaAu2Pu,0.0,-0.0665496,,2,3.0
PCl3Cd3,1.9025,-0.0188091,,2,3.0
MnRe3,0.0,-0.0578053,,2,3.0
KCu2Sb2Sm,0.0,-0.0269328,,2,3.0
MgZn2Tc,0.0,-0.0168214,,2,3.0
CdOs2Th2,0.0,-0.0734224,,2,3.0
H2GaRu2,0.0,-0.0185968,,2,3.0
Al3Sc3ZnGe2,0.0,-0.0137095,,2,3.0
Pm2PtPb,0.0,-0.0593984,,2,3.0
Ni2Tm3Hg,0.0,-0.0432115999999999,,2,3.0
Sc3Co2Au,0.0,-0.0250138,,2,3.0
P4Rh6Dy,0.0,-0.0275444,,2,3.0
F6Rb2SnTl,0.0,-0.0195548,,2,3.0
Ag2AuPb,0.0,-0.0518859,,2,3.0
VIr,0.0,-0.0450251,,2,3.0
O3CoLu,0.3718,-0.0210565,,2,3.0
NaTeCs,2.029,-0.0276122,,2,3.0
Si3CoHf,0.0,-0.022555,,2,3.0
RbBa2,0.0,-0.0331993,,2,3.0
KSrHg2,0.0,-0.0421850999999999,,2,3.0
S4KCu4,0.0,-0.0124324,,2,3.0
Al6Si2Ni,0.0,-0.0093310999999999,,2,3.0
CaCd2Eu,0.0,-0.0314751,,2,3.0
MnPtPu2,0.0,-0.077418,,2,3.0
AlAgPr2,0.0,-0.0317511,,2,3.0
O3BaTh,3.6034,-0.0344419,,2,3.0
PCoSm,0.0,-0.0250826,,2,3.0
Cu4Ge2Sm3,0.0,-0.0263161,,2,3.0
KTlBi,0.0,-0.0534262,,2,3.0
Ni3Th2,0.0,-0.0484359,,2,3.0
Li2P,0.0,-0.0056893,,2,3.0
H8FeZn2Nd,0.0,-0.0098812999999999,,2,3.0
Si2ZrRe4,0.0,-0.0482882,,2,3.0
O4CuBa2,0.0,-0.0189569,,2,3.0
Al6Si2Ir,0.0,-0.0156197,,2,3.0
ReIr4,0.0,-0.0712188,,2,3.0
In2Br3,2.0644,-1.068962764541666,mp-685014,2,3.0
CaSnPt,0.0,-0.0396778,,2,3.0
SiLaHg,0.0,-0.0411214,,2,3.0
Al3DyPt2,0.0,-0.036456,,2,3.0
Mg2CuPr,0.0,-0.0173226,,2,3.0
CBr5Pr4,0.0,-0.0297044,,2,3.0
Sb5Hg,0.0,-0.0423868,,2,3.0
H3CaRh,0.0,-0.0114244,,2,3.0
BNRuTh,0.0,-0.03796,,2,3.0
Ni2GeHo2,0.0,-0.0305838,,2,3.0
NaCu2SrSb2,0.0,-0.022399,,2,3.0
Ag2CsBi2,0.0,-0.0516885,,2,3.0
Mo2LaOs2,0.0,-0.0514836,,2,3.0
Ru2CeHo,0.0,-0.0412369,,2,3.0
KCu3Te2,0.1541,-0.0217315,,2,3.0
Al3NiTb,0.0,-0.0178946,,2,3.0
NHf3Au,0.0,-0.0545382,,2,3.0
O6Na2ScTe,0.0,-0.0117424,,2,3.0
SiPdCe,0.0,-0.0300452,,2,3.0
O12NaSi4CaScZn,4.558,-0.0108619,,2,3.0
O6SrTePb,1.7748,-0.0208143,,2,3.0
TiSb,0.0,-0.0271982,,2,3.0
GePdGd,0.0,-0.0378762,,2,3.0
AsNbTe,0.0,-0.030671,,2,3.0
Hg2TlPu,0.0,-0.0797277,,2,3.0
RhLa,0.0,-0.0392947,,2,3.0
Sn2Sb2U,0.0,-0.0499537,,2,3.0
CN2Sr2I2,3.811,-0.0223399,,2,3.0
Al2ScNb2,0.0,-0.019489,,2,3.0
F6GeTh,4.685,-0.0203553,,2,3.0
BeMgTe2,2.0028,-0.0216359,,2,3.0
Se4Cs3Ta,2.2014,-0.0338486,,2,3.0
ScNbOs2,0.0,-0.0483815,,2,3.0
O2BrSbBa,2.7344,-0.023922,,2,3.0
BrY2Ru,0.0,-0.0284386,,2,3.0
S3Sc4Ge,0.0,-0.0149563,,2,3.0
CaSe2Sr,1.9235,-0.0203234,,2,3.0
TiOs,0.0,-0.0448816,,2,3.0
I3La,1.7672,-0.0400217,,2,3.0
Zn2LaEr,0.0,-0.0304871,,2,3.0
NaSe2Sm,1.6418,-0.0241386,,2,3.0
Ti3Mn2Ni,0.0,-0.0171786,,2,3.0
BCo2Ga2La,0.0,-0.0200973,,2,3.0
N3ClBa,4.0264,-0.0161355,,2,3.0
O3GaTl,0.2343,-0.022843,,2,3.0
NaPd2Cd,0.0,-0.0252943,,2,3.0
FeCoGaZr,0.0,-0.0209765,,2,3.0
S3ScCuBa,0.7015,-0.0181732,,2,3.0
Li5O4Cu,0.9593,-0.0069314,,2,3.0
CuTmBi2,0.0,-0.0564432,,2,3.0
AsTe2,0.0,-0.03151,,2,3.0
Ag2InGd,0.0,-0.039109,,2,3.0
SiPd2U,0.0,-0.0452145,,2,3.0
Sr6IrBi2,0.0,-0.040816,,2,3.0
SiZr2,0.0,-0.0246180999999999,,2,3.0
AlNdHg,0.0,-0.0403968,,2,3.0
BCuSe2,1.3453,-0.0158756,,2,3.0
LiSnHo,0.0,-0.0298175,,2,3.0
SiRu2Lu,0.0,-0.0344934,,2,3.0
Be2AlTi2,0.0,-0.0100010999999999,,2,3.0
Li4P4Dy3,0.0,-0.0188691,,2,3.0
CoZn7,0.0,-0.013971,,2,3.0
O4MgTe,1.4906,-0.0128179,,2,3.0
B2ScNi3,0.0,-0.013483,,2,3.0
Li3O3Bi,2.6968,-0.0166082,,2,3.0
Ag2SnEu,0.0,-0.0384590999999999,,2,3.0
O4Na2SiSr,3.8367,-0.0108965,,2,3.0
Li2RhPb,0.0,-0.0289625999999999,,2,3.0
O6Sr2ZrEr,0.0,-0.0196237,,2,3.0
F6KNiCs2,0.187,-0.0148308,,2,3.0
H4FeU,0.0,-0.0226729,,2,3.0
LiPY2,0.0,-0.0179814,,2,3.0
CdTbPb,0.0,-0.051524,,2,3.0
MgCl3Tl,4.08,-0.0219542,,2,3.0
O6K2TeLa,0.0,-0.0154957,,2,3.0
Mg7Ag,0.0,-0.0082975,,2,3.0
CsReS2,1.2522,-1.045500260122126,mp-1199798,2,3.0
ScCd,0.0,-0.0227574,,2,3.0
TbIrPb,0.0,-0.0652784999999999,,2,3.0
Ge2LaOs2,0.0,-0.0455616,,2,3.0
H2Zr2Ag,0.0,-0.0203212,,2,3.0
AlRh2Lu2,0.0,-0.0383258,,2,3.0
Ni3Ge2Gd,0.0,-0.0248342,,2,3.0
CuGa6Sm,0.0,-0.0201141,,2,3.0
TiNiSe3Rb,0.0,-0.0199299,,2,3.0
BCo2,0.0,-0.0142048,,2,3.0
Se2RbRh,0.6934,-0.024502,,2,3.0
O8CsSmW2,4.4954,-0.0252901,,2,3.0
RhTeNp,0.0,-0.0597852,,2,3.0
O7Ge2SrZr,3.8834,-0.0149201,,2,3.0
PCrIr,0.0,-0.0337217,,2,3.0
CaCu2Y2,0.0,-0.0193035,,2,3.0
H3CuZr,0.0,-0.0116264,,2,3.0
HLiO10P3MnCs,1.5851,-0.0114534,,2,3.0
S4Mn3Rb2,0.0,-0.015998,,2,3.0
Be2TiRh,0.0,-0.0152158,,2,3.0
Ge2RbAu,0.0,-0.0322864999999999,,2,3.0
ONa2P2Ti2,0.0,-0.0110639,,2,3.0
O2PrSm,0.0,-0.028087,,2,3.0
O7Mn2As2,0.0,-0.0126178,,2,3.0
Tb9Ga5S21,1.554699999999999,-1.8169288585803471,mp-1217757,2,3.0
Fe3Ni2Y,0.0,-0.0192686,,2,3.0
Si4Zn4Lu3,0.0,-0.024142,,2,3.0
AgGd,0.0,-0.045375,,2,3.0
LiP2Co2Tm,0.0,-0.01916,,2,3.0
Li4SrAg,0.0,-0.0105351,,2,3.0
EuTmPb,0.0,-0.0610747,,2,3.0
O4VNb,0.0,-0.0152617999999999,,2,3.0
Al3Sn2Er3Re,0.0,-0.035848,,2,3.0
LiO8,0.0,-0.0060062,,2,3.0
Mg2Sc,0.0,-0.0081001999999999,,2,3.0
NiSeSb,0.0,-0.0248158,,2,3.0
MnNbRh2,0.0,-0.0302548,,2,3.0
NaAu3,0.0,-0.0531809,,2,3.0
NaAu2Pb,0.0,-0.0548258,,2,3.0
SSeEu2,0.0,-0.0366055,,2,3.0
Al5YPt2,0.0,-0.0269497,,2,3.0
OF2V,0.2325,-0.0106412,,2,3.0
NiBr3,0.0,-0.0190585,,2,3.0
Ga3Bi,0.0,-0.031706,,2,3.0
Al2ZnTm2,0.0,-0.0269224,,2,3.0
SiRh2,0.0,-0.0266751,,2,3.0
Be7Ag6,0.0,-0.0167982,,2,3.0
N2YCe,0.0,-0.0246072,,2,3.0
O4ZrEu,0.0,-0.0212706,,2,3.0
CdHg7,0.0,-0.0633967,,2,3.0
CuZnAs2Dy,0.0,-0.0241306,,2,3.0
Ni2TeBi,0.0,-0.0371431,,2,3.0
SrIn2Pm,0.0,-0.0338317,,2,3.0
CoGeZr4,0.0,-0.0270093,,2,3.0
RuPd2Hf3,0.0,-0.0488455999999999,,2,3.0
K2PtTl,0.0,-0.0399871,,2,3.0
NaCePb2,0.0,-0.0505651,,2,3.0
BSc3Pb,0.0,-0.0258671,,2,3.0
HoPtHg2,0.0,-0.0645674,,2,3.0
O6Rb2TeTm,0.0,-0.0188605,,2,3.0
B2Ni3Y,0.0,-0.0156964,,2,3.0
CaAg4In,0.0,-0.028314,,2,3.0
Mg2Ge2Os,0.0,-0.0242019,,2,3.0
O4CdIn2,0.9495,-0.0190989,,2,3.0
CdErHg2,0.0,-0.0547613,,2,3.0
H3Pd4,0.0,-0.0202808999999999,,2,3.0
KSe2AuHg,1.0606,-0.0377433,,2,3.0
CSbLa3,0.0,-0.0360052,,2,3.0
Na3PSe4,0.9658,-0.0138135999999999,,2,3.0
SnLuTa,0.0,-0.0530447,,2,3.0
PZn2Tb,0.0,-0.0216218,,2,3.0
In2PrLu,0.0,-0.0419403,,2,3.0
LiPd2Sb2La,0.0,-0.0319099,,2,3.0
O8K2V2RbLa,3.4499,-0.0145992,,2,3.0
MgTm6Bi2,0.0,-0.0529366,,2,3.0
ScNiY2,0.0,-0.0217073,,2,3.0
Ni4RhW,0.0,-0.0280761,,2,3.0
F6AgSm,0.4203,-0.01478,,2,3.0
O4K2CaPr,0.0,-0.0142577,,2,3.0
O3KIr,0.0,-0.0208157,,2,3.0
O9Zr4Sm,0.0,-0.0195984,,2,3.0
O7Rb2SrZr2,0.0,-0.0168032,,2,3.0
LiP2Ni2Tb,0.0,-0.0180656,,2,3.0
Rh3Ta,0.0,-0.0426496,,2,3.0
NaCu2Sb2La,0.0,-0.0260058,,2,3.0
SAgSb,0.0342,-0.0261861,,2,3.0
O3GaBi,1.857,-0.024324,,2,3.0
MnAsRu2,0.0,-0.0273618999999999,,2,3.0
O4Al2Cd,2.7397,-0.0128437,,2,3.0
Se2CsDy,1.6957,-0.0334041,,2,3.0
CaSm3,0.0,-0.0356437999999999,,2,3.0
O2KAu,1.0992,-0.0234595999999999,,2,3.0
F6ScTi,0.0,-0.0102922,,2,3.0
InIHo,0.0,-0.0406565,,2,3.0
O6Ba2GdBi,1.664,-0.0279591,,2,3.0
GaRb2I6Hg,0.0,-0.0354714,,2,3.0
C4Sc3Co,0.0,-0.0130721,,2,3.0