formula,bg,formation_energy,mp-id,fidelity,bg_category
H4O2CrBr2,0.4976,-0.0103482,,2,3.0
CaCo2Ga2,0.0,-0.0156103,,2,3.0
S8CoMo2Re2,0.0,-0.0242718,,2,3.0
O7Zr2La2,4.1131,-0.0210793,,2,3.0
F2Ge,3.9101,-0.0108229,,2,3.0
Sc2AgCd,0.0,-0.0229607,,2,3.0
NaP2Cu2Lu,0.0,-0.0192761,,2,3.0
LiCaIn2,0.0,-0.0202001999999999,,2,3.0
Al3Ni2Tm,0.0,-0.0185918,,2,3.0
ClCuEr,0.0,-0.0257468,,2,3.0
Cd2SbAu2,0.0,-0.0474141,,2,3.0
K2Br6HgTl,0.0,-0.0284389,,2,3.0
CaCeTl2,0.0,-0.050301,,2,3.0
OF5TiCs2Tl,3.2091,-0.0218146,,2,3.0
PS3AgHg,1.1054,-0.0233039,,2,3.0
PSc3Tl,0.0,-0.0259863,,2,3.0
SiSmAu,0.0,-0.0422265999999999,,2,3.0
FeZn4,0.0,-0.0144219,,2,3.0
Li5SAs,1.191,-0.0070267,,2,3.0
Te3Ho2,0.2414,-0.0434778,,2,3.0
Ge2Rh3Tm,0.0,-0.032809,,2,3.0
Ga6PdU,0.0,-0.0295578,,2,3.0
CaAu2Pb,0.0,-0.0565539,,2,3.0
Si2ScRu2,0.0,-0.0216811,,2,3.0
O6AlBa2Os,0.0,-0.0221066,,2,3.0
Al4PdLa,0.0,-0.0185283,,2,3.0
Rh2Te3Pb,0.0,-0.0429232,,2,3.0
Co3Zr2Os,0.0,-0.0311828,,2,3.0
RuRhIr,0.0,-0.0466073,,2,3.0
AgI2Au,0.3233,-0.0435355,,2,3.0
ZnCd2La,0.0,-0.0297604,,2,3.0
CSiCo2Pr2,0.0,-0.0239686,,2,3.0
Co2PdTa2,0.0,-0.0403512,,2,3.0
LiPdIn4,0.0,-0.0284637999999999,,2,3.0
B2Lu,0.0,-0.0241820999999999,,2,3.0
SePdI,0.0,-0.0301585,,2,3.0
O3ScAg,0.36,-0.0147948,,2,3.0
SiY2Ru3,0.0,-0.0289621,,2,3.0
MgKAu2,0.0,-0.0384259,,2,3.0
InHf,0.0,-0.0483192,,2,3.0
Er3Ir2Hg,0.0,-0.0612151,,2,3.0
O4BrY3,4.2844,-0.0196667,,2,3.0
AlZr8,0.0,-0.0282374,,2,3.0
O6ScEu2W,0.0,-0.0259516,,2,3.0
B14AlHo,0.0,-0.0102423,,2,3.0
MgPd2Tb2,0.0,-0.0336676,,2,3.0
SnI2Pr2,0.0,-0.040519,,2,3.0
CaTmPb2,0.0,-0.0538711,,2,3.0
AsAu5,0.0,-0.0609076,,2,3.0
CrTe2,0.0,-0.0313423,,2,3.0
Cu2Zn3Gd,0.0,-0.0219613,,2,3.0
ZnAgTb,0.0,-0.0309435,,2,3.0
GaSrIn,0.0,-0.0245466,,2,3.0
LiBO3K2,3.8091,-0.0087152,,2,3.0
P2Fe2La,0.0,-0.0209691,,2,3.0
Hg2Th3,0.0,-0.0850602999999999,,2,3.0
CrTa3,0.0,-0.0545224,,2,3.0
SiCl3Ce3,0.0,-0.0256427,,2,3.0
O8Rb3Zr,0.0,-0.0134571,,2,3.0
Co3Tm2Os,0.0,-0.0381438,,2,3.0
KAuTl2,0.0,-0.0558121,,2,3.0
KAg2Tl,0.0,-0.0358586,,2,3.0
LiAs2CeIr2,0.0,-0.0391128,,2,3.0
Te3Ho4Bi,0.0,-0.049559,,2,3.0
DyTl2Ac,0.0,-0.0712513,,2,3.0
BRh3Tm,0.0,-0.033048,,2,3.0
CoGa6Eu,0.0,-0.0215338,,2,3.0
Al2NiCu,0.0,-0.0122876,,2,3.0
ClNiTe2,0.0,-0.0250625,,2,3.0
O5Se2Zr2La2,1.6288,-0.0232594,,2,3.0
O15Si6K2Ti,3.4372,-0.0107716,,2,3.0
Ni2Y2Cd,0.0,-0.0241366,,2,3.0
CuTaIr,0.0,-0.0513973999999999,,2,3.0
Li2NiCu,0.0,-0.0090304,,2,3.0
Ru2SbHf,0.0,-0.0429416,,2,3.0
TcRhIr2,0.0,-0.0529352,,2,3.0
NaCl6Cs2Pr,4.9146,-0.0194739,,2,3.0
TiZrW4,0.0,-0.0543181,,2,3.0
Ti6CuBi2,0.0,-0.0300502,,2,3.0
B2O6MnBa,1.5997,-0.0136707,,2,3.0
Al4Mn2Lu,0.0,-0.0178856,,2,3.0
ClAsBr2,2.2147,-0.0172586,,2,3.0
CoPtPa,0.0,-0.0629359,,2,3.0
F2PCl,4.7998,-0.0082064,,2,3.0
Tc2InW,0.0,-0.043256,,2,3.0
H2O3Cd2,0.6253,-0.0134894,,2,3.0
CaSb2Hg2,0.0,-0.044467,,2,3.0
HFK2,3.35,-0.0074021,,2,3.0
RuLa3Bi,0.0,-0.0492417,,2,3.0
S8KNb6,0.0,-0.0202363999999999,,2,3.0
FeNd2Os2,0.0,-0.0499917999999999,,2,3.0
Be2Si2Pu,0.0,-0.0279958999999999,,2,3.0
MgZr3,0.0,-0.0242513,,2,3.0
Al2IrPt,0.0,-0.0403862,,2,3.0
As12CeOs4,0.0,-0.0342646999999999,,2,3.0
NiY2Sb2,0.0,-0.0303384,,2,3.0
Ca3Zn4Ge4,0.0,-0.0149878,,2,3.0
Li4F8V,0.0,-0.0073413,,2,3.0
SrCd2Pb,0.0,-0.0400443,,2,3.0
MgP2La2,0.0,-0.0237161,,2,3.0
Ni2TaIr,0.0,-0.0430137,,2,3.0
O9Mg7Cu2,0.0,-0.009199,,2,3.0
CTi2Zn,0.0,-0.0145332,,2,3.0
H2Ni2Ir,0.0,-0.022,,2,3.0
FeNiTa2,0.0,-0.0420113,,2,3.0
Ti2TcPd,0.0,-0.0256238999999999,,2,3.0
Li2CuGa,0.0,-0.0093843,,2,3.0
Al3Si2CuLu3,0.0,-0.0256195,,2,3.0
Al4Si2Mo3,0.0,-0.0176418,,2,3.0
PFePt,0.0,-0.033234,,2,3.0
U2Fe3Si,0.0,-0.370698244999998,mp-1216783,2,3.0
PClPb2,0.0,-0.0429373999999999,,2,3.0
B4TmIr4,0.0,-0.0412481,,2,3.0
GeSnAu2,0.0,-0.0484042,,2,3.0
TiMn2,0.0,-0.0177464,,2,3.0
O6MgTb2Ir,0.0,-0.0234524,,2,3.0
B2RuLu,0.0,-0.0270064,,2,3.0
Mn2CoRu,0.0,-0.0223069999999999,,2,3.0
Ga3PdTm2,0.0,-0.0317108,,2,3.0
N2ZrPr,0.0,-0.0249519,,2,3.0
K2CdTe2,1.8459,-0.025306,,2,3.0
NCr3Tc,0.0,-0.0200628,,2,3.0
Si3Tc4,0.0,-0.0247513,,2,3.0
CoNi2Pr,0.0,-0.0234192,,2,3.0
GeRb2CdTe4,0.5211,-0.0306835,,2,3.0
Cl5Ag,0.0,-0.0119712,,2,3.0
Mg3Al3Si2Pd,0.0,-0.0104826,,2,3.0
As2IrPa,0.0,-0.0535965,,2,3.0
Na2Ga2Cd,0.0,-0.0143982,,2,3.0
Rh5Sm,0.0,-0.0358829,,2,3.0
Cl6YInCs2,3.0517,-0.0206009999999999,,2,3.0
O3ZrEu,0.1842,-0.0241925,,2,3.0
MgK2SrBi2,0.119,-0.0341828999999999,,2,3.0
Sr2SnIr2,0.0,-0.0451392,,2,3.0
ScCoGa2,0.0,-0.0166279,,2,3.0
C2O6FeBa,0.0525,-0.0133391,,2,3.0
TiNb2W,0.0,-0.0379963,,2,3.0
ZnPb3,0.0,-0.0600842,,2,3.0
O3RhTm,0.9454,-0.0233957,,2,3.0
CoPt8,0.0,-0.0643874,,2,3.0
Li2Zn2SrSn2,0.0,-0.0184224,,2,3.0
Al2CaCu3,0.0,-0.012129,,2,3.0
Al5PdTh,0.0,-0.0244185,,2,3.0
Ca3Br3Sb,1.481,-0.0196733,,2,3.0
Rb2BaHg2,0.0,-0.0437609,,2,3.0
RuPd2In3,0.0,-0.0337565,,2,3.0
CaGa2Au3,0.0,-0.0421683,,2,3.0
AlIn5Eu,0.0,-0.0328811,,2,3.0
Ni4Pt,0.0,-0.0270666,,2,3.0
SYSn,0.0,-0.0259602,,2,3.0
NiPd2Te2,0.0,-0.0316039,,2,3.0
NSc3Pb,0.0,-0.026829,,2,3.0
MgGa2Ce,0.0,-0.0210283,,2,3.0
LiAs2DyPt2,0.0,-0.0395662,,2,3.0
Cu2Sr3Cd2Sb4,0.0846,-0.0286024,,2,3.0
Al6ErPt,0.0,-0.021491,,2,3.0
Be2Rh2Ir,0.0,-0.0299768,,2,3.0
Be2Fe2Ru,0.0,-0.016088,,2,3.0
O3KBi,1.3009,-0.0223108,,2,3.0
Ru2SmDy,0.0,-0.0408016,,2,3.0
CaNb2Ir2,0.0,-0.0442744,,2,3.0
OCa4Bi2,0.7128,-0.0305129,,2,3.0
LiPNd,0.0,-0.0199384,,2,3.0
Ga4LuTa2,0.0,-0.036744,,2,3.0
CrGe2In3Pr3,0.0,-0.0325235,,2,3.0
Ga6AgHo,0.0,-0.0225619,,2,3.0
In3Ce3Os2,0.0,-0.0475786,,2,3.0
Sc6Sb2Os,0.0,-0.0265229,,2,3.0
Al3Si2CrTb3,0.0,-0.023093,,2,3.0
F6Cs3Dy,5.7567,-0.0217421,,2,3.0
O3VHg,1.9461,-0.0227397999999999,,2,3.0
RuPdAc2,0.0,-0.0624777,,2,3.0
CuInBa2,0.0,-0.0321042,,2,3.0
Zn3NdIr2,0.0,-0.0381691999999999,,2,3.0
Li2SnI,0.0,-0.0197354,,2,3.0
O4BaHg,0.1536,-0.0231132,,2,3.0
ZrCd2In,0.0,-0.0315487,,2,3.0
Cl6RbInCs2,3.7597,-0.0196469999999999,,2,3.0
KTe3HoHg,0.7616,-0.0406109,,2,3.0
TeHg2Tl,0.0,-0.06153,,2,3.0
CuZnDy2,0.0,-0.0314295,,2,3.0
LiTe2Ta,0.5893,-0.0364356,,2,3.0
Ru2RhRe,0.0,-0.0437316,,2,3.0
K2MnGeTe4,0.1175,-0.0260833,,2,3.0
LiSi2Ba,0.0,-0.0158791,,2,3.0
Mn2NdPt3,0.0,-0.0494019,,2,3.0
Zr6FeI14,1.0127,-1.183110583809524,mp-1207511,2,3.0
CdEu2Tl,0.0,-0.0530679,,2,3.0
RhCdEr,0.0,-0.0388921,,2,3.0
MgS2Zn,2.6798,-0.0107178,,2,3.0
S3NiNbIn,0.0,-0.0193431999999999,,2,3.0
LiZnAg,0.0,-0.0159328,,2,3.0
H2SiMn2,0.0,-0.0108005,,2,3.0
Cu2InIr,0.0,-0.0337340999999999,,2,3.0
F4V,0.2438,-0.0093434,,2,3.0
AgCdNd,0.0,-0.0355176,,2,3.0
S6Ge3Bi2,0.0,-0.024913,,2,3.0
K3BrI2,3.7766,-0.0213994,,2,3.0
F6CrTh,0.6255,-0.0205644,,2,3.0
Se2Nb3,0.0,-0.0285833,,2,3.0
Na3S4Bi,0.6268,-0.0169568,,2,3.0
Ge2Ru2Eu,0.0,-0.0329697,,2,3.0
Ga4ErTa2,0.0,-0.0360454999999999,,2,3.0
GeTc2W,0.0,-0.0398868999999999,,2,3.0
SiPdLa,0.0,-0.0296528,,2,3.0
O4Cu2Sb2Te2Sm,0.0,-0.0240542,,2,3.0
Rb2PtBi,0.0,-0.0479172,,2,3.0
AlCu3Se4,0.0,-0.0170722,,2,3.0
Co2Sn3Th3,0.0,-0.0542062,,2,3.0
H2Rh2Hg,0.0,-0.0284925,,2,3.0
Ge2AgLa,0.0,-0.0287952,,2,3.0
ClCoSe,0.5029,-0.0157372,,2,3.0
CuSb2Pr6,0.0,-0.0394863,,2,3.0
Ge2SrIr,0.0,-0.0335634,,2,3.0
Li2MgAl,0.0,-0.0044912,,2,3.0
Li2BO4Fe,0.9315,-0.0091369,,2,3.0
Sn2Lu6Ir,0.0,-0.0535544,,2,3.0
Rh2PrHo,0.0,-0.0407767,,2,3.0
NMn3Zn,0.0,-0.015884,,2,3.0
P2MnRu2,0.0,-0.0223725,,2,3.0
B2CGd,0.0,-0.0214678,,2,3.0
LaAuTl2,0.0,-0.0647821,,2,3.0
Pd2Sn2Tb,0.0,-0.0375958,,2,3.0
Cl2Cu,0.0411,-0.0110619999999999,,2,3.0
Fe2RuW,0.0,-0.0350583999999999,,2,3.0
KSr3Rh,0.0,-0.0219137999999999,,2,3.0
La2IrPt,0.0,-0.0579805,,2,3.0
NiTmPt2,0.0,-0.0531004,,2,3.0
AlCe2Au2,0.0,-0.0478119,,2,3.0
O4NbBa2,0.0,-0.0225302,,2,3.0
P4Mn2Ba,0.0,-0.0173979,,2,3.0
S2K2Ni,0.5818,-0.0114471,,2,3.0
Li2Sn2Au,0.0,-0.029722,,2,3.0
SbTePt2,0.0,-0.054168,,2,3.0
K2NiTe2,0.3059,-0.0222317,,2,3.0
CuZr3Pd2,0.0,-0.029313,,2,3.0
LiP2PrIr2,0.0,-0.0357834,,2,3.0
CuZnY2,0.0,-0.0214712,,2,3.0
F3PdCs,0.0,-0.0182875,,2,3.0
BeScPt2,0.0,-0.0408982,,2,3.0
GePt5,0.0,-0.0618081,,2,3.0
Ga3Sm2Ir,0.0,-0.0356876,,2,3.0
H4NBr,4.3396,-0.0076753,,2,3.0
Ge2GdAu2,0.0,-0.0476719,,2,3.0
SiNdAu,0.0,-0.041936,,2,3.0
Sn4Ir2Au,0.0,-0.0510002,,2,3.0
F5AlMn,2.3503,-0.0096603,,2,3.0
KGa3Ru,0.0,-0.0188264,,2,3.0
O6CrBrRb,2.7026,-0.0117894,,2,3.0
ZnRu2Np,0.0,-0.0476232,,2,3.0
VRu2Sn,0.0,-0.0310429,,2,3.0
Al2ScAu,0.0,-0.0255706,,2,3.0
O6SbBa2Ho,3.6817,-0.0232432,,2,3.0
MnRuRh2,0.0,-0.0303042,,2,3.0
Rb2Au3Tl,0.0,-0.0539438999999999,,2,3.0
S3ZnRbSm,2.3937,-0.0196432,,2,3.0
F6ScGa,6.5525,-0.0099867,,2,3.0
As2Ru2Th,0.0,-0.0420531,,2,3.0
Cu2Ga2Ba,0.0,-0.0208108,,2,3.0
N2ScPa,0.0,-0.035003,,2,3.0
BeZr,0.0,-0.0176484999999999,,2,3.0
HSiGaPu,0.0,-0.0352146,,2,3.0
ZnTb2Os,0.0,-0.0451243,,2,3.0
Cu3Se2Rb,0.0056,-0.0182358,,2,3.0
SmBr2,0.0,-2.021075798333333,mp-1208711,2,3.0
Ge2BaPt3,0.0,-0.0487945,,2,3.0
H12Fe5La,0.0,-0.0097863,,2,3.0
Rh2SmPu,0.0,-0.0560759,,2,3.0
ZrRh2Gd,0.0,-0.0400690999999999,,2,3.0
Co2ZnSm,0.0,-0.0232093999999999,,2,3.0
Dy2PtAu,0.0,-0.059992,,2,3.0
MgY3Rh2,0.0,-0.0267023,,2,3.0
AsPd5Pb,0.0,-0.0375036,,2,3.0
Si4Pd4Sm3,0.0,-0.0287051,,2,3.0
N3SrW,1.0487,-0.024784,,2,3.0
O7CaScGe2,0.0,-0.0120335,,2,3.0
O6TiNbEu2,0.0,-0.0226029,,2,3.0
ZnYAg4,0.0,-0.02794,,2,3.0
Al3CrGe2Y3,0.0,-0.0188682,,2,3.0
MnGa2Lu,0.0,-0.0271643,,2,3.0
Zn2As3I,1.017,-0.0209775,,2,3.0
NiAg2I4,0.0,-0.0324138999999999,,2,3.0
K2Ga2Au,0.0,-0.0239024,,2,3.0
NTm2Pb,0.0,-0.0485253,,2,3.0
Te2AuNp,0.0,-0.0629974,,2,3.0
Ga2LuIr,0.0,-0.0406974,,2,3.0
CaIn2La2,0.0,-0.0331089,,2,3.0
NaSn2Ir,0.0,-0.0371247,,2,3.0
CoRe2Ir,0.0,-0.0578042,,2,3.0
O3BaOs,0.0,-0.0278914,,2,3.0
YIn2,0.0,-0.0321494,,2,3.0
O4Cu2Se2Sb2Dy,0.0,-0.0213218999999999,,2,3.0
AlNp,0.0,-0.0574071,,2,3.0
NiRu2Hf3,0.0,-0.0464105,,2,3.0
KAgTe3Hf,0.0505,-0.0365332,,2,3.0
CuSr5,0.0,-0.0210569,,2,3.0
Na2S2Ag,0.0,-0.0125196,,2,3.0
Li2SiY,0.0,-0.011077,,2,3.0
HOCdI,0.2725,-0.0200974,,2,3.0
CV2Se2,0.0,-0.0177535999999999,,2,3.0
Li4SrTl,0.0,-0.0175696,,2,3.0
ZnINd,0.0,-0.0322586999999999,,2,3.0
LiO4V2,0.0,-0.0115258,,2,3.0
GeRuSm,0.0,-0.0335876,,2,3.0
Fe4ZnHo,0.0,-0.0225195,,2,3.0
CaYTl,0.0,-0.0371863,,2,3.0
O8Co4Te,0.0,-0.0131905,,2,3.0
LiCaI3,3.0556,-0.0259966,,2,3.0
S3Cr2Rb,0.0,-0.0153072,,2,3.0
Pd3Pb4,0.0,-0.0575602,,2,3.0
NBrNp,0.0,-0.0466580999999999,,2,3.0
Al3Tc4,0.0,-0.0238576,,2,3.0
CCr2Ge,0.0,-0.0165431999999999,,2,3.0
KTeTl2,0.0,-0.0480555,,2,3.0
O8Ba6Hf,2.4343,-0.026288,,2,3.0
Ag4LaHg,0.0,-0.0397291,,2,3.0
ZnCeAu2,0.0,-0.0498001999999999,,2,3.0
P2Rh2Eu,0.0,-0.0294857,,2,3.0
F7NaHo2,7.0129,-0.0168015,,2,3.0
Sc3Ga3Ge2Ir,0.0,-0.0232361,,2,3.0
NFHf,2.4735,-0.0279962,,2,3.0
MgNd2Os2,0.0,-0.0473414,,2,3.0
CoZr6In2,0.0,-0.0301392999999999,,2,3.0
Cl6K2AgPt,0.0,-0.0178103,,2,3.0
NiInPt2,0.0,-0.0478375,,2,3.0
Ga5RhGd,0.0,-0.0255591,,2,3.0
Pt2AuTl,0.0,-0.0704393,,2,3.0
NiGa3Ge2Er3,0.0,-0.0290722,,2,3.0
TiBaPb3,0.0,-0.0570365,,2,3.0
CaBr3Cs,4.3958,-0.0233752,,2,3.0
Zn2SrPt,0.0,-0.0305416,,2,3.0
Al4FeSm,0.0,-0.0160316,,2,3.0
O4ClFeW,0.4515,-0.0190925,,2,3.0
BCo2Ga2Sr,0.0,-0.016469,,2,3.0
PNbTa,0.0,-0.0374271,,2,3.0
BaHg2,0.0,-0.0592746,,2,3.0
As2Au2Tl,0.0,-0.0501785,,2,3.0
O9Al2P2Cs2,4.9601,-0.0140535,,2,3.0
NaPd2In,0.0,-0.0261732,,2,3.0
CdErTl,0.0,-0.0514733999999999,,2,3.0
SiFe2Tc,0.0,-0.0206209999999999,,2,3.0
GaAgPu,0.0,-0.0527751,,2,3.0
B6Co2Pr,0.0,-0.0140223999999999,,2,3.0
O6Sr2LuBi,2.0375,-0.024259,,2,3.0
AsPtU,0.0,-0.0653302,,2,3.0
C2CrTm,0.0,-0.0229344,,2,3.0
Li2OF3V,0.0667,-0.0085854,,2,3.0
Cu2Ga2Zr,0.0,-0.0191795,,2,3.0
Sc3Ga3Pd2,0.0,-0.0205062,,2,3.0
TiTcW,0.0,-0.0407028,,2,3.0
Li2NaSn2,0.0,-0.0164876,,2,3.0
O4AsPt,0.0,-0.0200748,,2,3.0
C4FeSm3,0.0,-0.0242318,,2,3.0
SiMn2Tc,0.0,-0.0208626,,2,3.0
Zr3Ta4,0.0,-0.0511266,,2,3.0
H8FeNi2Ho,0.0,-0.0107532,,2,3.0
Li3O8V2Cr2,0.0,-0.0111117,,2,3.0
S3CuLuPb,1.3839,-0.0304398,,2,3.0
Al9Rh2,0.0,-0.0130833999999999,,2,3.0
CuLaTl,0.0,-0.0439587,,2,3.0
MnBr6AgCs2,0.0,-0.0255253,,2,3.0
NiSnPr,0.0,-0.0324627,,2,3.0
Ge4Nd3Ir4,0.0,-0.0456679,,2,3.0
Ge2RuIn3Tb3,0.0,-0.0355561999999999,,2,3.0
Co4Ga4Dy3,0.0,-0.025723,,2,3.0
Te2ILa2,0.0,-0.041226,,2,3.0
GeRh2La,0.0,-0.0332935,,2,3.0
Cu2PdAu,0.0,-0.0332262,,2,3.0
BNSrIr,0.0,-0.0284491,,2,3.0
Al3RhHo3Pb2,0.0,-0.0403128,,2,3.0
AlSi2Rh2,0.0,-0.0198937,,2,3.0
MnNiTe4,0.0,-0.0308652,,2,3.0
SmTl2Th,0.0,-0.0716141,,2,3.0
AlMnCe,0.0,-0.0238315,,2,3.0
Al6NiPr,0.0,-0.0137047,,2,3.0
O6MgCa2Os,0.0,-0.0157781,,2,3.0
Si2Ga3Sm3Ir,0.0,-0.031226,,2,3.0
CaScPb,0.0,-0.0338512,,2,3.0
Sc2GaRh2,0.0,-0.0234942,,2,3.0
PdCd2,0.0,-0.031522,,2,3.0
OCo,0.0,-0.0127569,,2,3.0
Sc8Zn,0.0,-0.0141373,,2,3.0
F8SrEr2,7.1938,-0.0181483,,2,3.0
H3ZrPd,0.0,-0.0152479,,2,3.0
MgHoTl2,0.0,-0.0500341,,2,3.0
Sn2Tm3,0.0,-0.0461849,,2,3.0
SeCd,0.4831,-0.0259505,,2,3.0
O6AlSr2W,0.0,-0.0189297,,2,3.0
Al3Ge2RhNd3,0.0,-0.0260151,,2,3.0
O6KSe2Tl3,3.2168,-0.026341,,2,3.0
Li2O2Co,0.0,-0.0084858,,2,3.0
YAg2Eu,0.0,-0.0363804999999999,,2,3.0
Zn2CdSm,0.0,-0.0258545,,2,3.0
Ni2ZnTa,0.0,-0.028372,,2,3.0
H8Mg2NiEu,0.0,-0.0092648,,2,3.0
CrSe4Rb3,0.0,-0.021109,,2,3.0
Li2F8BaTm,0.0,-0.0138617,,2,3.0
O5SiBi2,2.6216,-0.0266901,,2,3.0
CaSr2Tl2,0.0,-0.0403093,,2,3.0
S2IrPb,0.0,-0.0419473,,2,3.0
ScCdTl,0.0,-0.0392912,,2,3.0
FeTe2Tb6,0.0,-0.0421291,,2,3.0
SiMn7,0.0,-0.0173848,,2,3.0
O6MnPt3,0.0,-0.027614,,2,3.0
Cl2Cu2BrCs,1.6734,-0.0182992999999999,,2,3.0
LiSiMnIr,0.0,-0.0261103,,2,3.0
P2KCu2Dy,0.0,-0.0187320999999999,,2,3.0
PSc2As,0.0,-0.0163695,,2,3.0
NiDy2Ir2,0.0,-0.0516357,,2,3.0
Ni2Tm3Pt,0.0,-0.0438191,,2,3.0
CaScPb2,0.0,-0.04449,,2,3.0
SrPd,0.0,-0.0281611,,2,3.0
MgGePu,0.0,-0.0449595,,2,3.0
MgLu3Os2,0.0,-0.0528919,,2,3.0
Cs2PtPb,0.0,-0.0556021,,2,3.0
GaCdBi,0.0,-0.0416169,,2,3.0
Li2Hg2Pb,0.0,-0.0437277,,2,3.0
N12Mg4P6S,4.8273,-0.0099607,,2,3.0
Al2PrDy,0.0,-0.0270357,,2,3.0
PPd5In,0.0,-0.0302627,,2,3.0
P4Co6Y,0.0,-0.0164406,,2,3.0
CuZn2GaSe4,0.5586,-0.0180132,,2,3.0
CoAsTe,0.3039,-0.0251556,,2,3.0
CuGaNd,0.0,-0.0255855,,2,3.0
Ru2Sb2Ce,0.0,-0.0382951,,2,3.0
Rh2PdLa2,0.0,-0.0380431,,2,3.0
Na2PbBi,0.0,-0.0410067,,2,3.0
PCoTb,0.0,-0.0258899,,2,3.0
Zr4Mo3,0.0,-0.0325584,,2,3.0
F8CaEu2,0.0,-0.0170848,,2,3.0
K2GaAu,0.0,-0.0257853,,2,3.0
SiRh3Nd2,0.0,-0.0340399,,2,3.0
O6TePrPb,0.0,-0.0232952,,2,3.0
ZnIn2Tm6,0.0,-0.043831,,2,3.0
Ti3MnOs2,0.0,-0.0357346,,2,3.0
O6AlInBa2,0.0,-0.0181579,,2,3.0
Te2AuU,0.0,-0.0620944,,2,3.0
LiAg8,0.0,-0.0282023,,2,3.0
KGa2Bi2,0.0,-0.0398138,,2,3.0
B2O7CaGa2,3.8694,-0.0109443,,2,3.0
NaBr6Rb2Eu,0.0,-0.0234305,,2,3.0
NaP2Pd2Tb,0.0,-0.0238383,,2,3.0
Ga4TmIr,0.0,-0.0320325,,2,3.0
LiNi2Pt,0.0,-0.0264666,,2,3.0
Cu2GaLu,0.0,-0.0259972999999999,,2,3.0
OCa3Hg,0.0,-0.0222825,,2,3.0
CrRbAgTe3,0.0,-0.0309322,,2,3.0
B2Ru2Eu,0.0,-0.0280748,,2,3.0
Al3CrHo2,0.0,-0.0237655999999999,,2,3.0
Mn3Ho,0.0,-0.026015,,2,3.0
PtPbAc2,0.0,-0.0826084,,2,3.0
C3Er2W2,0.0,-0.0390394,,2,3.0
As2Pb3,0.0,-0.0535845,,2,3.0
BeSiPr,0.0,-0.0198622,,2,3.0
Sc3FeNi2,0.0,-0.0158856,,2,3.0
GaPdGd,0.0,-0.0368772,,2,3.0
Co2RuW,0.0,-0.0346798,,2,3.0
O8KGaTe2,1.7504,-0.0136919,,2,3.0
O8NaMo2Nd,3.3663,-0.016586,,2,3.0
Ag5In3,0.0,-0.0321124999999999,,2,3.0
In2LaDy,0.0,-0.0400559,,2,3.0
ZnBrLa2,0.0,-0.0307502999999999,,2,3.0
MgGaSb,0.0,-0.0196512,,2,3.0
Mg2S5In2,1.0433,-0.0149125,,2,3.0
Ti3Ni5,0.0,-0.0165612999999999,,2,3.0
HMgBa3,0.0,-0.025558,,2,3.0
Ga3Ge2Dy3Au,0.0,-0.034109,,2,3.0
NaTe2Ta,0.4507,-0.0368753999999999,,2,3.0
PBaIr,0.0,-0.0413817999999999,,2,3.0
LiPCo2,0.0,-0.0122359,,2,3.0
Al3Ru2Pt,0.0,-0.0282406,,2,3.0
NaRuSb,0.0,-0.0257579,,2,3.0
As2Ag2Ba,0.0,-0.0290873,,2,3.0
Se2RbLa,2.1584,-0.0280651,,2,3.0
O6YBa2Bi,2.0954,-0.024918,,2,3.0
O3K2Pt,0.8568,-0.0187582,,2,3.0
H6CNF,6.1591,-0.0054868,,2,3.0
Al2TcPd,0.0,-0.0216503,,2,3.0
O4GeNp,0.0,-0.0277429999999999,,2,3.0
Pd3Nd2,0.0,-0.0379272,,2,3.0
LiScAg,0.0,-0.0161832,,2,3.0
CuI6Cs2Au,0.6333,-0.0388397,,2,3.0
O7Ge2EuHf,0.0,-0.0206803999999999,,2,3.0
AgSb2Cs2,0.0,-0.0366760999999999,,2,3.0
LiO2Ag,0.695,-0.0124761,,2,3.0
O6NiSr2U,0.6543,-0.0231186,,2,3.0
ZnSnPr2,0.0,-0.0346225,,2,3.0
KSn2Au2,0.0,-0.0440285,,2,3.0
SiFeNb,0.0,-0.0209549999999999,,2,3.0
F6SnBa,4.9177,-0.0153474,,2,3.0
OFMg,3.9061,-0.0077180999999999,,2,3.0
S4SmDy2,0.0,-0.0277743,,2,3.0
RhPtPb2,0.0,-0.063932,,2,3.0
As2BrPb2,0.0,-0.0424996999999999,,2,3.0
Be2VRu2,0.0,-0.0196556,,2,3.0
LiN2Fe,0.0,-0.0099729,,2,3.0
Ge2SrPt,0.0,-0.0335506999999999,,2,3.0
CrGa3Ge2Dy3,0.0,-0.028377,,2,3.0
Ag2PbAc,0.0,-0.0575821,,2,3.0
Na2P2Co,0.0,-0.0097346,,2,3.0
Ge3Th,0.0,-0.0387331999999999,,2,3.0
BrTeTb,1.1528,-0.0362625,,2,3.0
CdHg,0.0,-0.0493004,,2,3.0
ReIr7,0.0,-0.0711644,,2,3.0
O6MnBa2Hf,1.3045,-0.0228782,,2,3.0
SiK2Sb2,0.5326,-0.0205839999999999,,2,3.0
Ga3Ge2IrTh3,0.0,-0.0502884,,2,3.0
Al3CuEr2,0.0,-0.0237069,,2,3.0
CuGaSr,0.0,-0.0182605,,2,3.0
GeZrHf,0.0,-0.0382578,,2,3.0
InDy2,0.0,-0.0434023,,2,3.0
O4VAg3,0.8404,-0.0183247,,2,3.0
Rh3Pu,0.0,-0.0531134,,2,3.0
S2As,1.2335,-0.0132604,,2,3.0
P2CuPa,0.0,-0.034671,,2,3.0
Li2O4NiCu,0.0,-0.0090826,,2,3.0
KRb2Bi2,0.0,-0.0417554,,2,3.0
SiTbIr,0.0,-0.0438157,,2,3.0
MgCuY4,0.0,-0.0219644,,2,3.0
FeGa2Br8,0.6593,-0.0195107,,2,3.0
H3MgNi,0.0,-0.006499,,2,3.0
O4MoCe,0.2162,-0.0201784,,2,3.0
ZnLaBi2,0.0,-0.0540293,,2,3.0
NiZnLu,0.0,-0.0288673,,2,3.0
CoZn2Tc,0.0,-0.0198245,,2,3.0
S2Rb2Pt,1.1684,-0.0272914,,2,3.0
Te4Nd3,0.0,-0.041548,,2,3.0
BNi3Tm,0.0,-0.0219903,,2,3.0
RuPb2Th6,0.0,-0.0850633,,2,3.0
Ni2TbIr3,0.0,-0.0492432,,2,3.0
Al2CaZn,0.0,-0.0099534,,2,3.0
O7K2LaTa2,0.0,-0.0227108,,2,3.0
B2O6K2Ti,1.8593,-0.0104651,,2,3.0
S6Br2Ag,0.0,-0.0142561,,2,3.0
K2FeBr6,0.0,-0.0179425,,2,3.0
ZnGePd2,0.0,-0.0249964,,2,3.0
Cu2Ga2Y,0.0,-0.0187324,,2,3.0
ZrPrBi,0.0,-0.0515768,,2,3.0
F8Na2SrLa,0.0,-0.0119458,,2,3.0
Al2In3Th3,0.0,-0.0508059,,2,3.0
LiF6V,3.0434,-0.008112,,2,3.0
PtPb4,0.0,-0.0748151,,2,3.0
CCo2Ge2Dy2,0.0,-0.0261449999999999,,2,3.0
NdIr3Pt2,0.0,-0.0667895999999999,,2,3.0
B4Co5Np2,0.0,-0.0301926,,2,3.0
Ni2GaIn,0.0,-0.0207948,,2,3.0
ErHfIr2,0.0,-0.0648610999999999,,2,3.0
Co2AsTe,0.0,-0.0230855999999999,,2,3.0
Au2HgTh2,0.0,-0.0804133,,2,3.0
Mo3Te4,0.0,-0.0364969,,2,3.0
Al3MnGe2Np3,0.0,-0.0446610999999999,,2,3.0
Sc3Ni2Au,0.0,-0.0247293,,2,3.0
ZnGa6Pr,0.0,-0.0197205,,2,3.0
RhSnPu,0.0,-0.0603974,,2,3.0
AgHoTl,0.0,-0.0513029999999999,,2,3.0
ZrSn2,0.0,-0.03467,,2,3.0
ClPdNd,0.8283,-0.0296717,,2,3.0
BeGeLa,0.0,-0.0228804,,2,3.0
Zn2SmLu,0.0,-0.0321081,,2,3.0
Te2Tm6Re,0.0,-0.0514383,,2,3.0
Co4YHo,0.0,-0.0244844,,2,3.0
FeSe4In2,0.0,-0.0241397,,2,3.0
F8Cu2Er,0.0,-0.0125313,,2,3.0
F4MgBa,6.93,-0.0137419,,2,3.0
Se3CsTa,0.0,-0.0340321,,2,3.0
GeInTb,0.0,-0.0337147,,2,3.0
TePb8,0.0,-0.0714812,,2,3.0
SrRhHg2,0.0,-0.048497,,2,3.0
S4Ni3Cs2,0.8424,-0.0189686,,2,3.0
SiNi2Zn,0.0,-0.0143919,,2,3.0
Se2NbHg,0.0,-0.0359808,,2,3.0
Li3Sb2Tm,0.0,-0.0231024999999999,,2,3.0
SrPdIn5,0.0,-0.0321516,,2,3.0
LiP2K,0.0372,-0.0084074,,2,3.0
O3GaEr,2.6022,-0.0200996999999999,,2,3.0
AlGa5Tb,0.0,-0.0197597999999999,,2,3.0
F4MnCs,2.4789,-0.0145849,,2,3.0
Sr2I6Ba,3.7439,-0.0357156,,2,3.0
H3RuCe,0.0,-0.0184459,,2,3.0
Co2ZnEr3,0.0,-0.0335284,,2,3.0
LiCoGaIr,0.0,-0.0272036,,2,3.0
ZnRh2Au,0.0,-0.0376724,,2,3.0
S6Br2Cd,1.5652,-0.0143902,,2,3.0
F7Na3Eu,0.0,-0.0112211999999999,,2,3.0
CaFe6As4,0.0,-0.0183482999999999,,2,3.0
Sb2HgTl,0.0,-0.0537213,,2,3.0
Be3O4Ca,3.8182,-0.0089558,,2,3.0
KCu2As2Dy,0.0,-0.0219289999999999,,2,3.0
O4InW,0.0,-0.0233013,,2,3.0
Al2PrPt2,0.0,-0.0412036999999999,,2,3.0
SbTaOs,0.5094,-0.0590035,,2,3.0
H3FeLu,0.0,-0.0172441999999999,,2,3.0
Co2WPt,0.0,-0.0437406,,2,3.0
Te4TmU,0.0,-0.0516644999999999,,2,3.0
Te3Cs2Ho,0.0,-0.040706,,2,3.0
NiSe4Rh2,0.0,-0.0238371,,2,3.0
LiSiPr,0.0,-0.0191616,,2,3.0
H2RhCd,0.0,-0.0178344,,2,3.0
O4SeTmBi2,0.0,-0.0335964,,2,3.0
C2O6CaMn,2.0418,-0.0105007,,2,3.0
Al9RbRh2,0.0,-0.0137033,,2,3.0
KGaSe2,1.9215,-0.0172755,,2,3.0
Rh2Ba3Tl3,0.0,-0.0507258,,2,3.0
Ni7Au,0.0,-0.0227405,,2,3.0
In3Ce3Pt2,0.0,-0.0477145,,2,3.0
Al3Si2Tb3Ir,0.0,-0.0292562,,2,3.0
Al4LaLu,0.0,-0.022052,,2,3.0
NiRuHf2,0.0,-0.0447409,,2,3.0
NaCd2Au,0.0,-0.0338193,,2,3.0
O7Rb2Nb2La,0.0,-0.0190517,,2,3.0
N3PCd2,0.8299,-0.0167881,,2,3.0
O3SrPb,0.8883,-0.0252346,,2,3.0
CuSnU,0.0,-0.0515365,,2,3.0
CuSrIn6,0.0,-0.0299873,,2,3.0
O7CaGe2Tb,0.0,-0.0150049,,2,3.0
Ca2PtAu,0.0,-0.0406852,,2,3.0
Br4Cs2Dy,0.0,-0.030608,,2,3.0
LiB6Si,1.6132,-0.0073646,,2,3.0
MgSi4Ru,0.0,-0.0135374,,2,3.0
AlKBa2,0.0,-0.0238412,,2,3.0
SiPNiZr,0.0,-0.0177246,,2,3.0
CrZnRu2,0.0,-0.0254239,,2,3.0
CaI3Cs,3.575,-0.0333035,,2,3.0
F6MnSn,0.8749,-0.0121574,,2,3.0
CoGa2Er6,0.0,-0.0394741,,2,3.0
F6AlKIn2,3.4042,-0.0132467,,2,3.0
LiBaTl,0.0,-0.0384720999999999,,2,3.0
F6CrRb3,2.2247,-0.0132961,,2,3.0