formula,bg,formation_energy,mp-id,fidelity,bg_category
CaCuSr,0.0,-0.0156952,,3,3.0
BeSnTm,0.0,-0.031183,,3,3.0
AgDy2Pt,0.0,-0.0502234,,3,3.0
Si2CaOs,0.0,-0.0259664,,3,3.0
SnPr2Au,0.0,-0.048799,,3,3.0
YRhLa2,0.0,-0.0374005,,3,3.0
Li2NiAs,0.0,-0.0108193,,3,3.0
BSc3Bi,0.0,-0.026401,,3,3.0
ZnGaLu,0.0,-0.029042,,3,3.0
AgPt2Pb4,0.0,-0.0679837,,3,3.0
O2CoCd,0.0,-0.0161541,,3,3.0
As2In2Cs,0.0,-0.0293105,,3,3.0
Sc3Sn,0.0,-0.0201765,,3,3.0
O6Ba2CeTa,0.0089,-0.0261134,,3,3.0
Si2FeCoNd,0.0,-0.0204390999999999,,3,3.0
C2NiSr,0.1183,-0.0148202,,3,3.0
P2S6SnCs2,0.5995,-0.018039,,3,3.0
RuAgDy2,0.0,-0.040887,,3,3.0
BGa2Rh2Eu,0.0,-0.0276007,,3,3.0
Li2B2O6Ti,3.3739,-0.0093484,,3,3.0
S3SrNp,0.0,-0.0332379,,3,3.0
O3S,6.0144,-0.0083028999999999,,3,3.0
Br2SnCe2,0.0,-0.0341898,,3,3.0
O11As6Ba2,3.1212,-0.0159543,,3,3.0
O3MoBa,0.0,-0.0212027,,3,3.0
S2KNi2,0.0,-0.0126669,,3,3.0
HRb,3.2344,-0.0123562999999999,,3,3.0
Mg2Si2Zn,0.0,-0.0087162,,3,3.0
Li4O8Fe3Cu,0.0519,-0.0098175,,3,3.0
LaPmPb2,0.0,-0.0604407,,3,3.0
WIr5,0.0,-0.0710372,,3,3.0
BeNi2Tc,0.0,-0.0181951999999999,,3,3.0
Sc3FeCu2,0.0,-0.0154436,,3,3.0
O6RhBa2Pb,0.0,-0.0243887,,3,3.0
Ti6CuTe2,0.0,-0.0210866,,3,3.0
Pd2CdBi,0.0,-0.043893,,3,3.0
Li2P2Pb,0.0,-0.0206494,,3,3.0
Zr3In3Pt2,0.0,-0.0424734,,3,3.0
Y2Pd2La,0.0,-0.0336131,,3,3.0
LiCl2,2.473,-0.0073649,,3,3.0
Li2O4MgZr,3.7247,-0.0111613,,3,3.0
NiSe3BaPr,0.0,-0.0282162,,3,3.0
In2PmDy,0.0,-0.0402757,,3,3.0
PRhCe,0.0065,-0.0309611,,3,3.0
F6MnEu,0.0,-0.0149582,,3,3.0
Cl3KCu,0.0,-0.0107704,,3,3.0
CaI2,3.9996,-0.0294932,,3,3.0
P2Ge2Sr,0.0,-0.0166941,,3,3.0
Si4Ca3Ir4,0.0,-0.0331293999999999,,3,3.0
ScY2La,0.0,-0.0281878,,3,3.0
TiRhIn5,0.0,-0.0312117,,3,3.0
O3GeAg,0.0,-0.0148511,,3,3.0
TiGePu,0.0,-0.0487622,,3,3.0
Al2SrSb2,0.1425,-0.0229663,,3,3.0
LiO2La,4.2638,-0.0175797,,3,3.0
Tb6AuPb2,0.0,-0.0563472,,3,3.0
O5Ni2YBa,0.0,-0.0168991,,3,3.0
Al3Fe4,0.0,-0.0139466,,3,3.0
FeMoTe2,0.0251,-0.0319757,,3,3.0
NiLa2,0.0,-0.0343246,,3,3.0
Be2RuOs,0.0,-0.0291621,,3,3.0
Ge2Zr2Pd,0.0,-0.0273757,,3,3.0
Si2RhHf,0.0,-0.029953,,3,3.0
NiPb2,0.0,-0.0558391,,3,3.0
AsPb8,0.0,-0.0695192,,3,3.0
Cl6CuRb2Rh,0.6732,-0.0151624,,3,3.0
Li3O4Hf,0.0,-0.0144249,,3,3.0
LiSrHg,0.0,-0.031436,,3,3.0
CO3FRbSr,4.7082,-0.0133703,,3,3.0
F6MnTa,0.8947,-0.0162953,,3,3.0
O6K2TiTe,1.832,-0.0128449,,3,3.0
K2CrSe3,0.0672,-0.0169312,,3,3.0
Zn5Au4,0.0,-0.0384476,,3,3.0
Cu2ZnLu,0.0,-0.0250827,,3,3.0
Ga2La,0.0,-0.026114,,3,3.0
FeTe2La6,0.0,-0.0397323,,3,3.0
ClSrI,4.2059,-0.0246671,,3,3.0
TePu,0.0,-0.0746359,,3,3.0
CRu3Sm,0.0,-0.0319631,,3,3.0
Fe2NiGa,0.0,-0.0174222,,3,3.0
Al3RhIn2Nd3,0.0,-0.0290122,,3,3.0
Sr2PtHg,0.0,-0.0465225,,3,3.0
O4CaBi2,1.9592,-0.0291351,,3,3.0
Cr5Re,0.0,-0.0271896999999999,,3,3.0
O2Na2KRh,0.8529,-0.0116106,,3,3.0
Li2As2Ce,0.8426,-0.0190423,,3,3.0
O3PK,5.097,-0.0099144,,3,3.0
FeGaLa,0.0,-0.026185,,3,3.0
Sc5Ni,0.0,-0.014701,,3,3.0
ScCoSn2,0.0,-0.0261972,,3,3.0
Rb2Te2I,0.0,-0.0316373,,3,3.0
AlS2I,0.0,-0.0165665,,3,3.0
Sc2ZnPt2,0.0,-0.0377059,,3,3.0
BAl2SrRu2,0.0,-0.0197267,,3,3.0
S2RbHf,0.0,-0.0272888,,3,3.0
AlMn2Np,0.0,-0.0379204999999999,,3,3.0
F3Pr,8.2069,-0.0178844999999999,,3,3.0
Si3Er2Pt,0.0,-0.0345787,,3,3.0
In3Au2,0.0,-0.0480262,,3,3.0
Mg3Tl2,0.0,-0.0320224,,3,3.0
Sc2CoGa8,0.0,-0.016578,,3,3.0
YHoPb2,0.0,-0.0577807,,3,3.0
HRb3Bi,0.0,-0.0291516,,3,3.0
S3SeBa,1.4383,-0.0186793,,3,3.0
O8S2Th,5.6453,-0.0173461,,3,3.0
HO2Gd,4.0644,-0.0214701,,3,3.0
Rh2Ta,0.0,-0.0453756,,3,3.0
LiS2Er,2.246,-0.0201024,,3,3.0
Cl12Rb4SbTl,1.0873,-0.0174739,,3,3.0
SiPdPa,0.0,-0.0481633,,3,3.0
O6Na2ScTe,0.0,-0.0117424,,3,3.0
O2Cl2ZnPb2,2.8295,-0.0289926,,3,3.0
H2O2Fe,1.9992,-0.0085781,,3,3.0
In5Pb,0.0,-0.0403877,,3,3.0
Br6InCs2Pb,0.0,-0.0314990999999999,,3,3.0
Ti2RhOs,0.0,-0.0353115,,3,3.0
CaRh2Er,0.0,-0.0326019,,3,3.0
ZnRhCd2,0.0,-0.0271778,,3,3.0
P2Ni2Tb,0.0,-0.0210609,,3,3.0
Al3Ir2Th,0.0,-0.0445277,,3,3.0
F4NaGd,5.9356,-0.0167401,,3,3.0
KSe6Th2,0.0,-0.0372552,,3,3.0
MgCoGe,0.0,-0.0140571,,3,3.0
C4Cr4U,0.0,-0.0242942,,3,3.0
ZnPdDy,0.0,-0.0321980999999999,,3,3.0
FeZnI4,0.6538,-0.0302022,,3,3.0
ZnAu2Th3,0.0,-0.0737747,,3,3.0
BrBa2Bi,0.8069,-0.0458806999999999,,3,3.0
RhCdPr,0.0,-0.0364628,,3,3.0
AgIn2Tl,0.0,-0.0425729,,3,3.0
I6Cs2Sm,0.0,-0.0392423,,3,3.0
AlSiZr2,0.0,-0.0205642,,3,3.0
Al5EuAu2,0.0,-0.0295176,,3,3.0
Br2Sr2Te,3.2303,-0.0263139,,3,3.0
Cr2Nb,0.0,-0.0233002,,3,3.0
LiS2Y,2.2598,-0.0144992,,3,3.0
BSc2Ni6,0.0,-0.0152847,,3,3.0
MoPd,0.0,-0.0338327,,3,3.0
Cl6W,1.9288,-0.0177091,,3,3.0
BrTePt2,0.0,-0.0495942,,3,3.0
S4K2MnSn,0.9913,-0.0147542,,3,3.0
CuZr6Sb2,0.0,-0.0310344,,3,3.0
Li2SmPb,0.0,-0.0317189,,3,3.0
AlZrRh2,0.0,-0.0276512,,3,3.0
Li2RhAu,0.0,-0.0272886,,3,3.0
RhPd2Dy,0.0,-0.0375397,,3,3.0
Al3Si2Ce3Os,0.0,-0.0283215,,3,3.0
Mg5Ag3,0.0,-0.0150911,,3,3.0
CuGa3Y3Sn2,0.0,-0.0250803,,3,3.0
CaGe2Pt2,0.0,-0.0386141,,3,3.0
NaRb2Cs,0.0,-0.0208514,,3,3.0
Zn2Sb2La,0.0,-0.0294802,,3,3.0
LiSnTm,0.0,-0.0307444999999999,,3,3.0
Mg4Sr,0.0,-0.008427,,3,3.0
BaLaIr4,0.0,-0.0616044,,3,3.0
FeReIr2,0.0,-0.0580855,,3,3.0
SiAgLu,0.0,-0.0328523,,3,3.0
Ni2ZnEr3,0.0,-0.0332699,,3,3.0
Al3ZnGe2Zr3,0.0,-0.0191546999999999,,3,3.0
NaP2Pd2Np,0.0,-0.0335933,,3,3.0
Si2La2Hg,0.0,-0.0355732,,3,3.0
O6HgBi2,0.0,-0.0297793999999999,,3,3.0
NMg3Cd,0.0,-0.0113911999999999,,3,3.0
Sc2SrPt2,0.0,-0.039417,,3,3.0
CoCuPr2,0.0,-0.0298271,,3,3.0
CoHf2Os,0.0,-0.0543619,,3,3.0
Li4F7Mn,0.0,-0.0073744,,3,3.0
Mn2Tc,0.0,-0.0238479,,3,3.0
Si4Zn4Pr3,0.0,-0.0209919,,3,3.0
Ge2Y3Sn3Os,0.0,-0.034137,,3,3.0
CaCd2Ho,0.0,-0.0303058,,3,3.0
MgSe3RbSm,2.7038,-0.0235043,,3,3.0
CoNiAs2,0.0,-0.0187443999999999,,3,3.0
CrMn2Ru,0.0,-0.0227014,,3,3.0
Ag7Pt3,0.0,-0.0429835,,3,3.0
CuIn2Lu,0.0,-0.0347178,,3,3.0
Cl3RbSn,3.1034,-0.0176458,,3,3.0
BSn2Pt6,0.0,-0.0559054,,3,3.0
AgSbU,0.0,-0.0574192,,3,3.0
O4Sb2IDy,1.1075,-0.0250534,,3,3.0
O2Zn3As2Sr2,0.915,-0.0167853,,3,3.0
Cu2Ag,0.0,-0.0205148,,3,3.0
P4Co6Tm,0.0,-0.0186402,,3,3.0
Ag4InBa,0.0,-0.033228,,3,3.0
CdSbPb,0.0,-0.0477856,,3,3.0
NiZrIn5,0.0,-0.0307689,,3,3.0
CoSrSn2,0.0,-0.0281918,,3,3.0
ZnCe3,0.0,-0.0368849,,3,3.0
F7NaHo2,7.6881,-0.0168015,,3,3.0
Al3Si2CoTm3,0.0,-0.0247544,,3,3.0
S8Cr4CoNi,0.0,-0.0140556,,3,3.0
TiGeSb,0.0,-0.0246079,,3,3.0
Sc2GaRh,0.0,-0.0205538,,3,3.0
ScCeOs2,0.0,-0.0509928,,3,3.0
SrIn2Dy,0.0,-0.0347443,,3,3.0
LiS2Rh,1.2496,-0.014837,,3,3.0
Al2PrOs,0.0,-0.0332245,,3,3.0
H4CaFe,1.3453,-0.0073491999999999,,3,3.0
Ca2CdAu2,0.0,-0.0384376,,3,3.0
Ni6Sb4Nd,0.0,-0.0266409999999999,,3,3.0
Ni2CuTb,0.0,-0.0238002,,3,3.0
F6NiCd,2.3104,-0.0104603,,3,3.0
LiBePt,0.0,-0.0264379,,3,3.0
Ti6Te2Pt,0.0,-0.0274541,,3,3.0
ZnTeCs,1.2798,-0.0302645,,3,3.0
Al2FePu,0.0,-0.0362098999999999,,3,3.0
ScHoPb2,0.0,-0.0542895,,3,3.0
GeSnEr,0.0,-0.03578,,3,3.0
PCl3Gd3,0.0,-0.0319867,,3,3.0
I3Ce,0.257,-0.0402361,,3,3.0
NaBrCs3,0.0,-0.0281871,,3,3.0
KAsTe2,0.9822,-0.0262146,,3,3.0
Cl6GaSnCs2,0.0,-0.0190896,,3,3.0
Pd2IrU,0.0,-0.0605382,,3,3.0
BrHo,0.0,-0.0355819,,3,3.0
F7TiRb3,4.4917,-0.0126442999999999,,3,3.0
CuNbTe2,0.0,-0.0310845999999999,,3,3.0
Ge3Nd,0.0,-0.0257114,,3,3.0
As2RbPd4,0.0,-0.0279088,,3,3.0
TiNiGaIr,0.0,-0.0306633,,3,3.0
LiRh2Gd,0.0,-0.0326546999999999,,3,3.0
NaGeAu,0.0,-0.0312654,,3,3.0
Ti2MnNi,0.0,-0.0169966,,3,3.0
CaZn3,0.0,-0.0128299,,3,3.0
CCo3Ho,0.0,-0.0222531,,3,3.0
B6Co2Y,0.0,-0.0123719,,3,3.0
Cl2BrRb,2.9325,-0.015173,,3,3.0
BGa2Ru2Nd,0.0,-0.0262713,,3,3.0
Al3Dy2Ir2,0.0,-0.0383461,,3,3.0
Ti2As4W3,0.0,-0.0361596,,3,3.0
NSCa6In2,0.0,-0.0153741,,3,3.0
O7Cl2Sm2Ta2,3.6411,-0.0249251,,3,3.0
N5P3,4.0366,-0.0102543,,3,3.0
CuGeHf,0.0,-0.0329032,,3,3.0
O4SrPt3,0.0,-0.0334483999999999,,3,3.0
NSbPr3,0.0,-0.0363994,,3,3.0
Rb2BaHgBi2,0.0,-0.0516672,,3,3.0
Al2RbBi2,0.0,-0.038819,,3,3.0
Al3CuGe2Sr3,0.0,-0.0163298,,3,3.0
SiCoMo,0.0,-0.0210128999999999,,3,3.0
GePd2Gd,0.0,-0.0367877,,3,3.0
Pd2Te2Bi,0.0,-0.0440833999999999,,3,3.0
ZnAuPu,0.0,-0.0646574999999999,,3,3.0
ZrHoBi,0.0,-0.0534056,,3,3.0
C4LaPr,0.0,-0.0214105,,3,3.0
GaTm2Hg,0.0,-0.047714,,3,3.0
H4MgEu,0.0,-0.0125642,,3,3.0
O7Cu2Ba2LaHg,0.0,-0.0222506999999999,,3,3.0
Ti2MoPt,0.0,-0.0351214,,3,3.0
I3Pu,0.0,-0.0561071999999999,,3,3.0
I6Cs2Pa,0.0,-0.0453324,,3,3.0
S4MoTa,0.0,-0.0243533,,3,3.0
Co2Ge3Mo,0.0,-0.0212212,,3,3.0
RuPtAc2,0.0,-0.0719889,,3,3.0
Li4O8Cr3Fe,1.1251,-0.0106584,,3,3.0
CSiFe2Gd,0.0,-0.0234375,,3,3.0
GeSb7Hf4,0.0,-0.0446706,,3,3.0
O3CoBa,0.0,-0.0171887,,3,3.0
Ti3Cu4Ge2,0.0,-0.01678,,3,3.0
Zn2Rh3Pr,0.0,-0.0291777,,3,3.0
Al2Zn,0.0,-0.0096705,,3,3.0
CePt4Hg,0.0,-0.0664476,,3,3.0
Fe4NbIn,0.0,-0.0232336,,3,3.0
BrHg2Tl,0.0,-0.0574204,,3,3.0
C3S6V2Nb6,0.0,-0.0198796,,3,3.0
C2CoU,0.0,-0.0353027999999999,,3,3.0
Cr4TaOs,0.0,-0.0353433,,3,3.0
O2BrCdBi,2.943,-0.0293508,,3,3.0
SeSr2Pd,0.6867,-0.0255584999999999,,3,3.0
O5Zr2Te2Nd2,1.0411,-0.0262064999999999,,3,3.0
Al2PdOs,0.0,-0.0308694999999999,,3,3.0
F6NiRu,0.0,-0.0110802,,3,3.0
CaIn2Nd,0.0,-0.0306366,,3,3.0
O7SrCs2U2,1.0995,-0.0321317,,3,3.0
Li3O14AlAs2Mo2,3.2997,-0.0117695,,3,3.0
F6IrPt,0.5509,-0.0216517,,3,3.0
GaRu2Pu2,0.0,-0.0614214,,3,3.0
Nb5Sb4,0.0,-0.0353545,,3,3.0
KTe3DyHg,0.9347,-0.0404201,,3,3.0
AlGe2Sm2,0.0,-0.0277687,,3,3.0
MgCl3In,3.8494,-0.01405,,3,3.0
Li2Cd2Bi,0.0,-0.0290642999999999,,3,3.0
I3CsAu,0.4922,-0.0442513,,3,3.0
Al2ZnGd2,0.0,-0.0297591,,3,3.0
AlCl3Pr3,0.0,-0.0247442,,3,3.0
LiO6Ba2W,0.0,-0.0214468999999999,,3,3.0
HMoRu3,0.0,-0.0285671,,3,3.0
O6YBa2Gd,0.0,-0.0232837,,3,3.0
Li3O8P2W,1.5641,-0.0128366,,3,3.0
Cl3CrIn,0.0,-0.0163043,,3,3.0
BCo2Ga2Nd,0.0,-0.0201995,,3,3.0
ScSnTe,0.0,-0.0299846,,3,3.0
NaTiNiSe3,0.0,-0.0171162999999999,,3,3.0
ScGa5Os,0.0,-0.0244471,,3,3.0
CrMn2Se3,0.0,-0.0199844,,3,3.0
Li2O5SiFe,0.0,-0.0093886,,3,3.0
Mg4YLa,0.0,-0.0152743,,3,3.0
Pt4AuU,0.0,-0.0761664,,3,3.0
Se2RbPb2,0.0,-0.0431433,,3,3.0
ZnRh2Cd,0.0,-0.0280979,,3,3.0
CuSb2Pb2,0.0,-0.0481522,,3,3.0
CCr3As,0.0,-0.0171778,,3,3.0
O6Na3AsCd2,1.7724,-0.0124907,,3,3.0
Sr6RhSb2,0.0,-0.0275669,,3,3.0
SiI2Tb2,0.0296,-0.0366521,,3,3.0
BRu2Sn2Ba,0.0,-0.0317944,,3,3.0
Be2SiMn,0.0,-0.0095436,,3,3.0
La2Ir2Pb,0.0,-0.0615391,,3,3.0
Be4TaIr,0.0,-0.026327,,3,3.0
RhAu2Np,0.0,-0.069879,,3,3.0
O9TiCr2BaLa2,1.0305,-0.0189351,,3,3.0
O3VEu,0.0,-0.0210397,,3,3.0
P4Ca3Ni2Zn2,0.0,-0.0127044,,3,3.0
SeSbTh,0.0,-0.0524293,,3,3.0
Al2Sm3Hg,0.0,-0.0366566,,3,3.0
CaSc2Y,0.0,-0.0163815,,3,3.0
MnGaPt2,0.0,-0.0445418,,3,3.0
Se3Cs2Dy,0.0,-0.0321845,,3,3.0
H8Mn2CoBa,0.0,-0.0102700999999999,,3,3.0
LiAu2Pb2,0.0,-0.0586651,,3,3.0
S2GaNb,0.0,-0.0180345,,3,3.0
NaCl6SbCs2,3.3558,-0.0182221,,3,3.0
CdEuTl2,0.0,-0.0575696999999999,,3,3.0
Cl3ZnCs,5.0226,-0.0167503,,3,3.0
Al3Ge2AgTm3,0.0,-0.0282676,,3,3.0
Mg3Rh2Ba,0.0,-0.0206596,,3,3.0
S3KAgPr,0.0,-0.019948,,3,3.0
ScCo4Ru,0.0,-0.0198353,,3,3.0
NaPdBi2,0.0,-0.0487494,,3,3.0
C3Nd2,0.0,-0.0237852,,3,3.0
AlSnTe,0.0372,-0.0272066,,3,3.0
SnOsTh,0.0,-0.0684742,,3,3.0
K2Te3,0.8078,-0.0265192,,3,3.0
Mg2AlAu,0.0,-0.0222849,,3,3.0
AsSmPt,0.0,-0.0464168,,3,3.0
Ni5In,0.0,-0.0190185,,3,3.0
MgSb2Eu,0.0,-0.0340738,,3,3.0
KCs3Hg,0.0,-0.038086,,3,3.0
Ag7Cs3,0.0,-0.0332556,,3,3.0
Ag4Au3,0.0,-0.0475993,,3,3.0
Li2Si,0.0,-0.0051462,,3,3.0
MnNb2W,0.0,-0.0385655,,3,3.0
MoHf2Pt,0.0,-0.0584222999999999,,3,3.0
Cl4K2Sr,5.6865,-0.0124935,,3,3.0
CMn2Ge2Nd2,0.0,-0.0251719,,3,3.0
K3AsSe3,1.7439,-0.0160806,,3,3.0
Al7Ni2Er3,0.0,-0.0204182999999999,,3,3.0
Nd2Pt3,0.0,-0.0608084,,3,3.0
Ni3Y,0.0,-0.0193857,,3,3.0
Re,0.0,-0.0710976,,3,3.0
OIPa,0.0,-0.0498100999999999,,3,3.0
Mg2Ga2Ce,0.0,-0.0179015999999999,,3,3.0
O7ScGe2La,4.5189,-0.0154427,,3,3.0
SiRhTm,0.0,-0.033069,,3,3.0
Se3Np,0.0,-0.0426043,,3,3.0
Li2O8Cr3Sn,0.0,-0.0126952,,3,3.0
SiTiCo,0.0,-0.015227,,3,3.0
Fe2As2Rb,0.0,-0.0197548,,3,3.0
F5Rb2PdCs,2.9329,-0.0168970999999999,,3,3.0
Cd2In2La,0.0,-0.0346227,,3,3.0
Li2S2Ni,0.6681,-0.0090654,,3,3.0
S2K2Au,0.0,-0.0218957,,3,3.0
AlRhNd,0.0,-0.0293202,,3,3.0
MgCo4Hf,0.0,-0.0229986,,3,3.0
RhLuPb,0.0,-0.0557615,,3,3.0
HI2Ho2,0.0,-0.0360329,,3,3.0
Ca2ZnIr,0.0,-0.0264072999999999,,3,3.0
H8CaMnZn2,0.0,-0.0070061,,3,3.0
LiAuTl,0.0,-0.0483301,,3,3.0
Ti2Zn2Hf,0.0,-0.0245046,,3,3.0
AsTc3,0.0,-0.0314251,,3,3.0
P4Pd7Er3,0.0,-0.0312244,,3,3.0
CaHoAu2,0.0,-0.0502588,,3,3.0
TeTmBi,0.0,-0.0568951,,3,3.0
Al3Sc3Sn2Au,0.0,-0.0236925999999999,,3,3.0
CuU,0.0,-0.0592374,,3,3.0
KAs2Mo2,0.0,-0.0240566,,3,3.0
ZnGa2Pr,0.0,-0.0229543,,3,3.0
SiRu3Nd2,0.0,-0.0340724,,3,3.0
O3NaKRh,0.2027,-0.0121325,,3,3.0
Al2MnRh,0.0,-0.0177012,,3,3.0
SClAs,1.6685,-0.0130189,,3,3.0
MnCo4In,0.0,-0.0201344,,3,3.0
Cl6CrCuRb2,0.6288,-0.0139011999999999,,3,3.0
Na2RbCs,0.0,-0.0167098,,3,3.0
CaIn,0.0,-0.0221441,,3,3.0
Al3NiY2,0.0,-0.0164257999999999,,3,3.0
HoTlPb2,0.0,-0.0685817,,3,3.0
GeErAu,0.0,-0.0472434,,3,3.0
Pd2LaIr3,0.0,-0.0541351999999999,,3,3.0
AlRh,0.0,-0.022087,,3,3.0
ZnY2La,0.0,-0.0282844,,3,3.0
O8As2NbBa,0.0,-0.0156413,,3,3.0
H4KCr,0.0,-0.0068697,,3,3.0
MgCu2Pt,0.0,-0.0268399,,3,3.0
Br2Y,0.1264,-0.0241525,,3,3.0
Na2KAs2,0.0,-0.0118933,,3,3.0
AgBa3,0.0,-0.0376223,,3,3.0
CoNiTh,0.0,-0.0432748,,3,3.0
Fe2RhW,0.0,-0.0348776,,3,3.0
AsZrTm,0.0,-0.0353023,,3,3.0
ZnYSn,0.0,-0.026423,,3,3.0
Si2ScRu,0.0,-0.0180379,,3,3.0
NiMoRu,0.0,-0.0285731,,3,3.0
SnLu2Hg,0.0,-0.0543063,,3,3.0
Se2Sb,0.7875,-0.0259964,,3,3.0
LiPd2Ba2,0.0,-0.0297838,,3,3.0
BCYRh,0.0,-0.0204512,,3,3.0
Cu2Se2Pb,0.0676,-0.0294776,,3,3.0
Ti2TcRh,0.0,-0.0261085,,3,3.0
Cu4As,0.0,-0.016173,,3,3.0
CaGe6Ir4,0.0,-0.0377325,,3,3.0
Cd4La,0.0,-0.0332924,,3,3.0
MgMoPt2,0.0,-0.0457326,,3,3.0
BeFeRu,0.0,-0.0191692,,3,3.0
S4Rb2Ru3,0.5097,-0.0211569,,3,3.0
CaSrTe2,1.9121,-0.0284979,,3,3.0
B6Co12La,0.0,-0.0158024,,3,3.0
Li2Ga2In,0.0,-0.0144231,,3,3.0
P2ScRu2,0.0,-0.022003,,3,3.0
Cu2Se4CdPb,0.0,-0.0274451,,3,3.0
Dy3Au2Pb3,0.0,-0.0644448,,3,3.0
ClY2Ir,0.0,-0.0351085,,3,3.0
MoRu2Re,0.0,-0.0438847,,3,3.0
Sb3Dy4,0.0,-0.0443552,,3,3.0
Cl3CsAu,0.6514,-0.0273872,,3,3.0
OFTi,0.0,-0.0119534,,3,3.0
ZnLaPb,0.0,-0.0448048,,3,3.0
Zn2YBa,0.0,-0.0239003,,3,3.0
O6Sr2LaPt,0.0,-0.0218916,,3,3.0
B4O12Sc3La,4.553,-0.0127469,,3,3.0
MnPb2Th6,0.0,-0.0830314,,3,3.0
Zr2CdPt2,0.0,-0.0475311999999999,,3,3.0
O6Na2Zn2Te,2.447,-0.0116111,,3,3.0
Mg2InTh2,0.0,-0.0471208,,3,3.0
Ni3NdAu2,0.0,-0.038787,,3,3.0
RhCd2Sn,0.0,-0.0328831,,3,3.0
FeGeLu,0.0,-0.031439,,3,3.0
LiMgRbTe2,2.861,-0.021702,,3,3.0
LiO5Na3W,3.8888,-0.0138058,,3,3.0
SnAu4,0.0,-0.0625034,,3,3.0
Li2Sn2Pt,0.0,-0.0300279,,3,3.0
ZrPdSb2,0.0,-0.0351251,,3,3.0
In2Nd3,0.0,-0.0400480999999999,,3,3.0
S3NiTbPb,0.0,-0.0290972,,3,3.0
BeB2Fe2,0.0,-0.0114705,,3,3.0
O6ZnPt3,0.3961,-0.0270323999999999,,3,3.0
Li3O6Ti2Nb,0.0,-0.0118327,,3,3.0
Si4Rh4Er3,0.0,-0.0308101,,3,3.0
RbTe4Pr,0.3702,-0.0366146,,3,3.0
P2Mn2Sr,0.0,-0.0167875,,3,3.0
AlCuTb,0.0,-0.0237507,,3,3.0
O6CoNiNd2,0.0,-0.0183710999999999,,3,3.0
ScPdPb,0.0,-0.0417179,,3,3.0
Li2O7Si2W,0.2905,-0.0140122,,3,3.0
InTlPb,0.0,-0.0604732,,3,3.0
TiGePt,1.1412,-0.0362671,,3,3.0
Mg2Al5Hf,0.0,-0.0140882,,3,3.0
F4RbPt,0.4307,-0.0194011,,3,3.0
CaNiBi,0.0,-0.0353195,,3,3.0
Se4BaPr2,1.9073,-0.0316949,,3,3.0
Y2Pd3Sn,0.0,-0.0325532,,3,3.0
CaRhSn,0.0,-0.0272,,3,3.0
RhITm,0.0,-0.0419262,,3,3.0
Ge3YPt,0.0,-0.0318676,,3,3.0
KSbPt2,0.0,-0.0468924,,3,3.0
InBa2Pt2,0.0,-0.0514144999999999,,3,3.0
Na2Ag2Sn,0.0,-0.0214821,,3,3.0
PdTm3Ir2,0.0,-0.0561954,,3,3.0
Rb2Cd2Tl,0.0,-0.0349711,,3,3.0
Al4CuLu,0.0,-0.0173189999999999,,3,3.0
Br2SbNd2,0.0,-0.0343765,,3,3.0
H6Sc2Co,0.0,-0.0079052,,3,3.0
K2Ag2Tl,0.0,-0.0303307,,3,3.0
Al2Cr3Mn,0.0,-0.0150479,,3,3.0
B2Ru3Dy,0.0,-0.0284035,,3,3.0
AsRhEr,0.0,-0.0360496,,3,3.0
Cd2GdTm,0.0,-0.0432729,,3,3.0
C2O6BaHg,2.4066,-0.0182032,,3,3.0
S4In2Hg,0.0,-0.0253461,,3,3.0
AsAuPb2,0.0,-0.060257,,3,3.0
Rb2ZrTe3,0.7767,-0.0318107,,3,3.0
AlZn2Y2,0.0,-0.0185749999999999,,3,3.0
CaNi2Ac,0.0,-0.0331259,,3,3.0
ZnZrCd,0.0,-0.0251657,,3,3.0
Gd2Au,0.0,-0.0629763,,3,3.0
P4Rh6Pu,0.0,-0.0330349,,3,3.0
SrRh3Tl2,0.0,-0.0448709,,3,3.0
Ge2Y2Au,0.0,-0.0335763,,3,3.0
ClSb2,0.5385,-0.0278216,,3,3.0
O2Sm2Bi,0.0,-0.0388816,,3,3.0
Li5O8VCr3,0.0,-0.010226,,3,3.0
ZrTbIr2,0.0,-0.0558507,,3,3.0
Rh2CdHf,0.0,-0.040929,,3,3.0
Ga2Se3,1.5468,-0.0192288,,3,3.0
O6AlTiPr2,0.3743,-0.0183113,,3,3.0
NiGaU,0.0,-0.0455771,,3,3.0
AlSb2Tb6,0.0,-0.0410058,,3,3.0
Cl6Cs2SmAu,2.4624,-0.0256186,,3,3.0
MnTa2W,0.0,-0.0554261,,3,3.0
ZnCdPt,0.0,-0.0384521,,3,3.0
TiRh4,0.0,-0.0307215999999999,,3,3.0
O5Te2La2Hf2,1.4489,-0.0320154,,3,3.0
ClCoY2,0.0,-0.0211262,,3,3.0
O6NiPdPr2,0.4607,-0.0196431,,3,3.0
MgAl2Mo,0.0,-0.0140312,,3,3.0
OSZn2,1.6879,-0.0119376999999999,,3,3.0
MgSbAu5,0.0,-0.0556896,,3,3.0
PS3Nd4,0.0,-0.0289029,,3,3.0
CGe2Er2W2,0.0,-0.0417278,,3,3.0
PmLu3,0.0,-0.0524956,,3,3.0
Li4O5U,2.4502,-0.0171638,,3,3.0
AlMnOsIr,0.0,-0.0429260999999999,,3,3.0
SiNiPu,0.0,-0.0458378,,3,3.0
LiNaBi2,0.0,-0.041288,,3,3.0
H2PdPt,0.0,-0.027476,,3,3.0
Mg2SrPm,0.0,-0.0190773,,3,3.0
NaIn2Sn2,0.0,-0.0286719,,3,3.0
LiF2Sn,0.0,-0.0136765,,3,3.0
ZrRhSn,0.0,-0.0343776,,3,3.0
O7Ga2Ge2,3.1161,-0.0122435,,3,3.0
F6ScEr,7.6208,-0.015007,,3,3.0
Al2CaIr,0.0,-0.0249087,,3,3.0
H4MnPr,1.097,-0.0130234,,3,3.0
O2FeAu,0.0,-0.0259109,,3,3.0
HAlBaPb,0.557,-0.0321974,,3,3.0
NaPtTl,0.0,-0.0491826999999999,,3,3.0
C2ScFe,0.0,-0.0134197,,3,3.0
Pd3Th,0.0,-0.0495067,,3,3.0
Al3Si2Fe3,0.0,-0.0125021,,3,3.0
CCa2Co2Ge2,0.0,-0.0150023999999999,,3,3.0
Sc2SnI2,0.0,-0.0286311,,3,3.0
NiPdPu2,0.0,-0.0672399,,3,3.0
AsTe3Er4,0.0,-0.0430855,,3,3.0
NiZrPb,0.5025,-0.041487,,3,3.0
TiAsTe,0.0,-0.0252522,,3,3.0
GaMoOs,0.0,-0.0411959,,3,3.0
GeSrCe,0.0,-0.0291877,,3,3.0
B2N4Sr3,2.3695,-0.014529,,3,3.0
AlSmPt,0.0,-0.0421347,,3,3.0
CN2O2Nd2,4.0704,-0.0206511999999999,,3,3.0
S2TeBi2,1.1498,-0.0429144,,3,3.0
YPt2Hg,0.0,-0.0599502,,3,3.0
YIn2Pt,0.0,-0.042164,,3,3.0
LiAl2Y2,0.0,-0.0150254,,3,3.0
Sc6PtPb2,0.0,-0.0349039,,3,3.0
MgAlIn2,0.0,-0.0198800999999999,,3,3.0
TmIr7,0.0,-0.0690143,,3,3.0
Na2CdTl2,0.0,-0.0368281,,3,3.0
H3RhLa,0.0,-0.0181073,,3,3.0
LiCuRh,0.0,-0.0171515,,3,3.0
ZnHo2,0.0,-0.0374689,,3,3.0
Ca2GeRh3,0.0,-0.0240212,,3,3.0
Mn4MoIr,0.0,-0.0298680999999999,,3,3.0
Fe2NiGe,0.0,-0.0181245,,3,3.0
NaGeSn2,0.0,-0.0238125,,3,3.0
Al3CuY,0.0,-0.0137619,,3,3.0
NFe3Pt,0.0,-0.0270956,,3,3.0
Zn3Ag2Nd,0.0,-0.0247896,,3,3.0
PCl2Cd2,2.3956,-0.0182337999999999,,3,3.0
LiCRh3,0.0,-0.0228186,,3,3.0
MgPdPt2,0.0,-0.0451549,,3,3.0
CuSb2U,0.0,-0.0484604,,3,3.0
PIn2Pt3,0.0,-0.0485661,,3,3.0
KAu2Hg2,0.0,-0.0567913,,3,3.0
CaRh2Dy,0.0,-0.0319358,,3,3.0
Cu2InHo,0.0,-0.0285862,,3,3.0
S4NbTl3,2.504,-0.0368185,,3,3.0
Si3CuEr,0.0,-0.0195455,,3,3.0
TcAgGd2,0.0,-0.0460628,,3,3.0
InHo2Hg,0.0,-0.0505269,,3,3.0
LiBr6Rb2Mo,2.0844,-0.0209701,,3,3.0
CuZr3,0.0,-0.0269228,,3,3.0
Al4CoPr,0.0,-0.0157921,,3,3.0
Mg2GaRh2,0.0,-0.0194642,,3,3.0
Ca3Ga3Sn2Pt,0.0,-0.0251793,,3,3.0
O3AgEu,0.0,-0.0223286,,3,3.0
Li4OF7Mn2,0.1625,-0.0083848,,3,3.0
KTe2Np,0.0,-0.0483255,,3,3.0
Co2Ce,0.0,-0.0264475,,3,3.0
ClAsSe,1.3802,-0.0164944,,3,3.0
H2PdAu2,0.0,-0.0355741,,3,3.0
BNb2,0.0,-0.0250250999999999,,3,3.0
LiNiSnIr,0.0,-0.031653,,3,3.0
SbTeIr,0.6821,-0.0490698,,3,3.0
MgS3Cs2,0.0,-0.0193884,,3,3.0
S3AsCs,1.4441,-0.0179914999999999,,3,3.0
FeSe2Cs,0.0,-0.0248562,,3,3.0
K2PtBi2,0.0,-0.0492202,,3,3.0
CoRe2,0.0,-0.0531202,,3,3.0
K2SbAu,1.1667,-0.0314030999999999,,3,3.0
Ga3Ru2La2,0.0,-0.0298898,,3,3.0
NaKBrI,4.511,-0.0188426,,3,3.0
CuRhTa,0.0,-0.0388859,,3,3.0
BAl2LaOs2,0.0,-0.0356353,,3,3.0
SiTe3Tb4,0.0,-0.0399428,,3,3.0
AsSe3Ag3,0.6588,-0.0250348,,3,3.0
ZrAu3,0.0,-0.0601599,,3,3.0
N2PrPu,0.0,-0.0444093999999999,,3,3.0
MgLu3Pt2,0.0,-0.052976,,3,3.0
Al3NiSn2Gd3,0.0,-0.0326413999999999,,3,3.0
F6Rb2RuTl,0.0,-0.0192887,,3,3.0
Rh2SbLa2,0.0,-0.0391462999999999,,3,3.0
KSe3CdEr,2.4929,-0.0263896,,3,3.0
Au3Pu,0.0,-0.079712,,3,3.0
PAg8,0.0,-0.0289408,,3,3.0
KCu2As2Er,0.0,-0.0223451,,3,3.0
GeAgTh,0.0,-0.049299,,3,3.0
PZnY2,0.0,-0.0209239,,3,3.0
ZrTaW4,0.0,-0.0627182,,3,3.0
CSi2Y2Mo2,0.0,-0.0228825,,3,3.0
GaAgEr,0.0,-0.0332806,,3,3.0
Si2Fe2Ce,0.0,-0.0207083,,3,3.0
Rb2AgAu,0.0,-0.0356227,,3,3.0
LiI3Pr,0.0,-0.0325374,,3,3.0
Li2Ge2Pd,0.0,-0.0156434,,3,3.0
Cu3Rh2Dy,0.0,-0.0271367,,3,3.0
Ti2Pd2Pb,0.0,-0.0351423,,3,3.0
CuNdTl,0.0,-0.0440910999999999,,3,3.0
Tb2Os,0.0,-0.0555032,,3,3.0
PdTm2Au,0.0,-0.0524778,,3,3.0
F6CrIn3,1.9026,-0.0162247999999999,,3,3.0
As4SrPd6,0.0,-0.0278531,,3,3.0
Y2AuHg,0.0,-0.0491927999999999,,3,3.0
SiPdTh,0.0,-0.0471928,,3,3.0
FeNiSe4,0.0,-0.0194128,,3,3.0
AlGa2Lu,0.0,-0.0244238,,3,3.0
Ga2Ag2La,0.0,-0.0281801,,3,3.0
O6InTaPb2,3.0042,-0.0308606,,3,3.0
BrIn2Ba2,0.0,-0.0342313,,3,3.0
B2CYRh2,0.0,-0.0207838999999999,,3,3.0
Te2DyEr,0.0,-0.0445073999999999,,3,3.0