formula,bg,formation_energy,mp-id,fidelity,bg_category
O3FV2,0.0,-0.0123481,,3,3.0
Si2Ga3Ho3Pt,0.0,-0.0327045,,3,3.0
Tb3Dy,0.0,-0.0470036,,3,3.0
MnGa3Tm2,0.0,-0.0291295,,3,3.0
MgCu2Ir,0.0,-0.02677,,3,3.0
CY2Sn2Os2,0.0,-0.0406879,,3,3.0
KCd4,0.0,-0.0260417999999999,,3,3.0
LiYPb,0.0,-0.0361068,,3,3.0
ZnPd2Tm3,0.0,-0.0399472,,3,3.0
Cl6KNiCs2,0.0,-0.016443,,3,3.0
Al2CoHo6,0.0,-0.0365199,,3,3.0
CaNi3Ge2,0.0,-0.0165664,,3,3.0
CuRh2,0.0,-0.0275304,,3,3.0
Mo2RuOs,0.0,-0.0440609,,3,3.0
La2Tl3Pb3,0.0,-0.0669022,,3,3.0
CSY2,0.2145,-0.0203729,,3,3.0
N2La3,0.0,-0.0308703,,3,3.0
Pm3Pb,0.0,-0.0524264999999999,,3,3.0
AlY2Tc2,0.0,-0.0269478,,3,3.0
Mg2As2Sr,1.6993,-0.0156334999999999,,3,3.0
Be2Ti2Cd,0.0,-0.0143781,,3,3.0
O4UNp,0.0,-0.0426461,,3,3.0
PCoDy,0.0,-0.0262419,,3,3.0
H4O10P2Ni2Sr,3.0514,-0.0099843,,3,3.0
Li4O8CrY3,3.2136,-0.0130643,,3,3.0
S2MnBa,0.0,-0.0209853,,3,3.0
B2CaOs2,0.0,-0.0339775,,3,3.0
Mg2CsBi2,0.0,-0.0413963,,3,3.0
SeDyBi,0.04,-0.0501419,,3,3.0
O4SiCoCs2,1.9286,-0.0181812,,3,3.0
LiGe,0.0,-0.0110394,,3,3.0
CoMoOs2,0.0,-0.0489164,,3,3.0
Al2SnAu2,0.0,-0.0383185,,3,3.0
Si2Ho3,0.0,-0.0341349,,3,3.0
CuPdLa,0.0,-0.0309173,,3,3.0
Al9Ca3Ba2,0.0,-0.0130037,,3,3.0
RuRh2,0.0,-0.0341172,,3,3.0
NiLu2Os,0.0,-0.0502419999999999,,3,3.0
CoSr2Rh2,0.0,-0.0260635,,3,3.0
La2Pb,0.0,-0.0547349,,3,3.0
SrIn2Hg,0.0,-0.0397306,,3,3.0
Li2O4S,6.7774,-0.0077478,,3,3.0
Cu4CdHg,0.0,-0.0264996,,3,3.0
O3VPb,0.2563,-0.0244847,,3,3.0
Ni3Ga2Ba,0.0,-0.0204061,,3,3.0
Ge2In3Ba3Au,0.0,-0.0368194,,3,3.0
Sb2BaPt2,0.0,-0.051845,,3,3.0
Al3CoIn2Ho3,0.0,-0.0288124,,3,3.0
AlZn2Ho2,0.0,-0.0269997,,3,3.0
AsRb2Pd,0.0,-0.0240698,,3,3.0
B2Ru3La,0.0,-0.0275396,,3,3.0
Al3Si2Sc3Fe,0.0,-0.0122428,,3,3.0
RuOs3,0.0,-0.0626319,,3,3.0
MgInPr2,0.0,-0.0316799,,3,3.0
Ga2ZrPd,0.0,-0.0248354,,3,3.0
C2CrHo,0.0,-0.0221893,,3,3.0
CrI3Cs,0.0,-0.0343175,,3,3.0
Be2Fe2Ru,0.0,-0.016088,,3,3.0
FeGa2La6,0.0,-0.0346164,,3,3.0
H3IEu2,0.0852,-0.0267158,,3,3.0
MgSi2Y2,0.0,-0.0169226,,3,3.0
AlNi5Sb,0.0,-0.0182898999999999,,3,3.0
O6NiSnPr2,2.2888,-0.0202748,,3,3.0
H4Rh3Ho,0.0,-0.0208567999999999,,3,3.0
Ga2Cd2Tm,0.0,-0.0294403,,3,3.0
Er2AuTl,0.0,-0.0613454,,3,3.0
HMnSe2,0.0,-0.0158484999999999,,3,3.0
S2IrTl,0.0,-0.0410385,,3,3.0
CCo2Sn2La2,0.0,-0.0294746,,3,3.0
K2GeAs2Se6,0.6662,-0.0184375,,3,3.0
O4Na3Co2,0.0033,-0.0095068,,3,3.0
Li4Sb2Pr,0.0,-0.0190074,,3,3.0
Al2Ni4Nd3,0.0,-0.0239491,,3,3.0
O4GeTm,0.0,-0.0184712,,3,3.0
S2RhTl,0.0635,-0.0318675,,3,3.0
RuTe2Hf6,0.0,-0.0544807,,3,3.0
NaAuTl,0.0,-0.0489039,,3,3.0
Pd2Lu2Hg,0.0,-0.0498282,,3,3.0
NiSr2Rh2,0.0,-0.0258456,,3,3.0
Mn2ThPu,0.0,-0.0606807,,3,3.0
Al3Lu2,0.0,-0.0272181999999999,,3,3.0
CaRh4In,0.0,-0.0299824,,3,3.0
P10Cu2Cd3,1.1899,-0.0152187,,3,3.0
SiNi5As,0.0,-0.0162436,,3,3.0
O6Sr2RuPr,0.765,-0.0185656,,3,3.0
Li4O6CrMn,0.3994,-0.0092906,,3,3.0
BNaRh3,0.0,-0.0227055,,3,3.0
Rh2Lu3Hg,0.0,-0.0512974,,3,3.0
CuGaBr4,1.8307,-0.0189298,,3,3.0
AgHg3,0.0,-0.0589105,,3,3.0
Co2SnTh2,0.0,-0.0528421,,3,3.0
RuI6Cs2,0.0,-0.037572,,3,3.0
O3CaIr,0.0,-0.0217048,,3,3.0
CSi2Co2Th2,0.0,-0.0371979,,3,3.0
Co3Pr2,0.0,-0.0276891,,3,3.0
FeGaPt2,0.0,-0.0442492,,3,3.0
O3SiHg,1.5724,-0.0209459,,3,3.0
Si2In3Er3Ir,0.0,-0.038772,,3,3.0
BCNd2,0.0,-0.0265746,,3,3.0
Al4NdPt,0.0,-0.0250299,,3,3.0
ZnGe2Pr2,0.0,-0.0284105999999999,,3,3.0
Li2Na2Ba,0.0,-0.0104954,,3,3.0
Pd2SnTh,0.0,-0.0502077,,3,3.0
Al3Cu2Nd,0.0,-0.0167305999999999,,3,3.0
SnNdAu2,0.0,-0.055312,,3,3.0
LiSbLa2,0.0,-0.0321875,,3,3.0
Mn2ISm2,0.0,-0.0328549,,3,3.0
NBrHo2,0.0,-0.033329,,3,3.0
O4ScCu2Se2Bi2,0.0,-0.0256491,,3,3.0
YIn2La,0.0,-0.0351169,,3,3.0
F6SmEr,7.8006,-0.0188001,,3,3.0
Zr2Pd3,0.0,-0.0327719,,3,3.0
Be2Os,0.0,-0.0272164,,3,3.0
Co4Pt,0.0,-0.0279396,,3,3.0
BeZrHg,0.0,-0.0347087,,3,3.0
S2ScGa,0.3061,-0.0138455,,3,3.0
Ba2PtAu,0.0,-0.055473,,3,3.0
BCZnTh,0.0,-0.0321034,,3,3.0
LiAlZn4,0.0,-0.0108194,,3,3.0
Ho3Au2Tl3,0.0,-0.0635418,,3,3.0
B4Fe3,0.0,-0.0122393,,3,3.0
ClBrRb2,5.3542,-0.0192574,,3,3.0
BCCoTh,0.0,-0.0331423,,3,3.0
O4Cl2Fe2Sr3,0.0,-0.0154585,,3,3.0
N2SPa2,0.0,-0.047531,,3,3.0
FSDy,1.5511,-0.0236412,,3,3.0
ClIn2I,0.8294,-0.0284441,,3,3.0
ZnIn2Hf6,0.0,-0.0508715,,3,3.0
MgBa5,0.0,-0.0337825,,3,3.0
Li2CaSn,0.0,-0.0131441,,3,3.0
OBr4NbCs,2.1239,-0.0237745,,3,3.0
As2RbRu2,0.0,-0.0266661,,3,3.0
ZnIn2Te4,1.1918,-0.0331599,,3,3.0
SrSbCe,0.0,-0.0356275,,3,3.0
H6N2F3Ga,5.9619,-0.0067997,,3,3.0
Rh2CdAu,0.0,-0.0418044,,3,3.0
ZnRh2Tm,0.0,-0.0340373999999999,,3,3.0
Hf2Au3,0.0,-0.0672749,,3,3.0
AlAgDy,0.0,-0.0294693,,3,3.0
Cl3RbHg,0.0,-0.023824,,3,3.0
PdGdPt2,0.0,-0.0589752999999999,,3,3.0
Cu2ZnPa,0.0,-0.0358531,,3,3.0
CoAgHo2,0.0,-0.0369184,,3,3.0
O9MgBa3Ta2,3.7453,-0.0241392,,3,3.0
Lu2Pt,0.0,-0.0615531,,3,3.0
LiO2Dy,5.2407,-0.018881,,3,3.0
H6Dy2Re,0.0,-0.0213976,,3,3.0
VNi8,0.0,-0.0164133,,3,3.0
N2SmTa,0.0,-0.0338506,,3,3.0
PS3Lu4,0.0,-0.0346706,,3,3.0
Mg2Ga2Pb,0.0,-0.0237929999999999,,3,3.0
Al3Si2Lu3Os,0.0,-0.0320649999999999,,3,3.0
Pd2CdDy,0.0,-0.0367223,,3,3.0
CNSClCa,4.0655,-0.010485,,3,3.0
Co2Ge2Ho,0.0,-0.0249716,,3,3.0
H3TmOs,0.0,-0.0273382,,3,3.0
HSi3Y5,0.0,-0.0199982,,3,3.0
P4Cu2Zn2Sr3,0.0992,-0.0159473,,3,3.0
Si2Cu2Pr,0.0,-0.0193686,,3,3.0
CrNi2Pt,0.0,-0.0304852,,3,3.0
Cu2Zn3Gd,0.0,-0.0219613,,3,3.0
O4CeGd,0.0,-0.0247063,,3,3.0
KTbBi,0.0,-0.0451385,,3,3.0
Na2KHg,0.0,-0.0213627,,3,3.0
CN2BrHo,3.2248,-0.0206359999999999,,3,3.0
KMn4As2,0.0,-0.0177866,,3,3.0
H3LiMn,0.0,-0.0063958,,3,3.0
CdInPr,0.0,-0.0363158,,3,3.0
NO3AlPr2,1.382,-0.0205439,,3,3.0
ClCs2Hg2,0.0,-0.0450005,,3,3.0
NaCl6K2Y,5.6072,-0.0119662,,3,3.0
OsPt3,0.0,-0.0705545,,3,3.0
MnTc8,0.0,-0.0331283,,3,3.0
KAs2Pb2,0.0,-0.0403086,,3,3.0
OF3Mn2,0.0,-0.0115587,,3,3.0
O4GeU,0.3219,-0.0271966,,3,3.0
Co2InHo2,0.0,-0.0335596,,3,3.0
Zn2Sr2Cd,0.0,-0.0206397,,3,3.0
Ca2BrIn,0.0,-0.0191423999999999,,3,3.0
ZnRu2Tb2,0.0,-0.0357645,,3,3.0
Zn2Zr2Hf,0.0,-0.0304408,,3,3.0
Li3P2Hf,0.0,-0.0159922,,3,3.0
Si2NiTc,0.0,-0.0182996,,3,3.0
Co2Ga2Ho,0.0,-0.0236193,,3,3.0
Si2Br,1.2738,-0.0134734,,3,3.0
CSiTmOs2,0.0,-0.0437277,,3,3.0
Ru2Tm2Tl,0.0,-0.0495506999999999,,3,3.0
N2BrCs2,0.0,-0.0236298,,3,3.0
CuBiPu,0.0,-0.0680173,,3,3.0
S3CaNiTb,0.0,-0.0187108,,3,3.0
Li2F8YBa,0.0,-0.0118527,,3,3.0
Cl6Rb3Y,5.8626,-0.0161665,,3,3.0
Y2LaHg,0.0,-0.0421019,,3,3.0
H2Ti2W,0.0,-0.0220034,,3,3.0
LiCd2Hg,0.0,-0.0330719,,3,3.0
PCs3,0.1864,-0.0312272,,3,3.0
Rh4CdPr,0.0,-0.0351883,,3,3.0
N2TmTa,0.0,-0.0358869,,3,3.0
Ga2Hf2Ta,0.0,-0.0454072,,3,3.0
S2Sn2SbI3,0.8296,-0.0301537,,3,3.0
MgIr4Np,0.0,-0.066492,,3,3.0
RbTe2Au,1.0309,-0.0417607,,3,3.0
ScV2Ga4,0.0,-0.0169002,,3,3.0
SbSmDy,0.0,-0.044082,,3,3.0
CuPr2Pt,0.0,-0.0437952,,3,3.0
Fe2As2La,0.0,-0.0245808,,3,3.0
O6NaDy2W,0.6564,-0.0236321,,3,3.0
O9RbW3,0.0,-0.0242963,,3,3.0
O8V2Ba3,4.1479,-0.0187889,,3,3.0
AlMn2Th,0.0,-0.0352111,,3,3.0
CaCuHg2,0.0,-0.0406721,,3,3.0
Sc3ZnIr2,0.0,-0.0340911,,3,3.0
Li3BaTl,0.0,-0.0240499,,3,3.0
Sr3Cd,0.0,-0.0245132,,3,3.0
Li2C2Ni,0.0,-0.0082285,,3,3.0
CdInHg2,0.0,-0.0500419,,3,3.0
AlCuHfAu,0.0,-0.0392656,,3,3.0
NaP2YPd2,0.0,-0.0206984999999999,,3,3.0
GePrAu2,0.0,-0.0510025,,3,3.0
ZnAs2Cs4,1.0572,-0.0298648,,3,3.0
Mg2FeRu,0.0,-0.0157074,,3,3.0
Ge2Dy2Hg,0.0,-0.0411856,,3,3.0
O2SSm2,3.2849,-0.0256655,,3,3.0
F3NiRb,2.3339,-0.0121290999999999,,3,3.0
Ru2Lu3Au,0.0,-0.0516537,,3,3.0
Sc3Co4Ge4,0.0,-0.017672,,3,3.0
O6K2InTe,0.0,-0.0139402,,3,3.0
F6Pt,0.0247,-0.0142127,,3,3.0
Mg2CeDy,0.0,-0.0255886,,3,3.0
Cl4Pb,2.107,-0.0221786,,3,3.0
PdSbPr,0.4051,-0.0390210999999999,,3,3.0
Al3Sc2Rh,0.0,-0.0151132,,3,3.0
B2CCu2Nd,0.0,-0.0167994,,3,3.0
Be5Ir,0.0,-0.015999,,3,3.0
MgCu4Sm,0.0,-0.0186122,,3,3.0
Se2YSm,0.0,-0.0301188,,3,3.0
Ca3Sr5,0.0,-0.0175276,,3,3.0
P2NiNd2,0.0,-0.0262551,,3,3.0
Na7Mg,0.0,-0.0042583,,3,3.0
Li2PtPb2,0.0,-0.0457928,,3,3.0
Zn2Gd,0.0,-0.0290565,,3,3.0
O4K2Pd3,0.5206,-0.0165389,,3,3.0
Ge2InPr2,0.0,-0.032485,,3,3.0
RhTeLa2,0.0,-0.0405802,,3,3.0
MgLuAu,0.0,-0.0440625,,3,3.0
F6Rb2Tb,0.0,-0.0154319,,3,3.0
LiSiCa,0.0,-0.007697,,3,3.0
LiGeAu2,0.0,-0.0403056,,3,3.0
BeAg2Au,0.0,-0.0341742,,3,3.0
B3C2Ho2,0.0,-0.0206929,,3,3.0
F6Na2Sm,0.0,-0.0114527999999999,,3,3.0
PSrSn,0.0,-0.023718,,3,3.0
HClTb,0.0,-0.0210005999999999,,3,3.0
H6KGeCs2,0.0,-0.0124556,,3,3.0
CGe2Ru2Tm2,0.0,-0.0324255,,3,3.0
H24LiMg10Al,4.1273,-0.0042273,,3,3.0
Na2Cl3Cs,5.3961,-0.0137609999999999,,3,3.0
Ge2Zr,0.0,-0.0236337,,3,3.0
Sr2CdPt2,0.0,-0.0439293,,3,3.0
O6Sr2BiTh,0.0,-0.0283568,,3,3.0
H10N3O2PS,4.4728,-0.0062920999999999,,3,3.0
Be2NaAs2,0.0,-0.0110042,,3,3.0
O4AlAs,1.9273,-0.0110138,,3,3.0
B2ScMo2,0.0,-0.0202036,,3,3.0
F4GaRb,6.4199,-0.0114846,,3,3.0
AlSrTl2,0.0,-0.0440058,,3,3.0
FeHo2,0.0,-0.0386585,,3,3.0
GeSrLa,0.0,-0.0287657999999999,,3,3.0
S4Cr2Mn,0.0,-0.0140593,,3,3.0
GeBr2Nd2,0.1308,-0.0306689,,3,3.0
S3MnAgCs,0.0,-0.0201500999999999,,3,3.0
N3TbW,1.3629,-0.0300599,,3,3.0
O6NiSr2Ta,0.0,-0.0192479,,3,3.0
H4CuLa,0.0,-0.0124711,,3,3.0
AsHg,0.0,-0.0441533999999999,,3,3.0
Ni8Pt,0.0,-0.0222192,,3,3.0
ZnSbTl,0.015,-0.0410797,,3,3.0
RhSn3Nd,0.0,-0.0376993,,3,3.0
O4InSb,1.1601,-0.0176023,,3,3.0
SiZnLa2,0.0,-0.0279776999999999,,3,3.0
Mg2LaHg2,0.0,-0.0384607999999999,,3,3.0
ZrRu2Dy,0.0,-0.0376696,,3,3.0
MnSe3TbTl,0.7646,-0.0342477,,3,3.0
Sn2CeTl,0.0,-0.0476571,,3,3.0
Ru2CdLa3,0.0,-0.0384827,,3,3.0
O8MnAs2Ba,1.5668,-0.0142926,,3,3.0
Al3CuSn2Tm3,0.0,-0.0301439999999999,,3,3.0
Be12Cr,0.0,-0.0055021,,3,3.0
NaRhSb,0.0,-0.0256071,,3,3.0
KCaAs2,0.0,-0.0154355,,3,3.0
Al5GdAu2,0.0,-0.0301538,,3,3.0
CGe2Ru2Sm2,0.0,-0.0303358,,3,3.0
O8AlKMo2,4.3609,-0.0137696,,3,3.0
ZnGa3Pr,0.0,-0.0217602,,3,3.0
ZnEuPb,0.0,-0.0482124,,3,3.0
CGe2Os2Th2,0.0,-0.0554379,,3,3.0
O4CaMn,0.0,-0.0110066,,3,3.0
CaZn2Au2,0.0,-0.0356318,,3,3.0
ZnLa2Au2,0.0,-0.0484485,,3,3.0
Ge2SnLa2,0.0,-0.0329582,,3,3.0
Se4CdSn2,0.6036,-0.0264085,,3,3.0
Cl6PdCs2Hg,1.0953,-0.0237803,,3,3.0
O5Fe2BaEu,0.0,-0.0201954999999999,,3,3.0
NiTm2Ir,0.0,-0.0485921,,3,3.0
ZnGaPu,0.0,-0.0468732,,3,3.0
MnAu2Pb,0.0,-0.0583224,,3,3.0
Ni2Er3Tl3,0.0,-0.0505163,,3,3.0
RhHoBi,0.0,-0.0546988,,3,3.0
Co2NiPt,0.0,-0.0303688,,3,3.0
C2GeTa3,0.0,-0.0403374,,3,3.0
GeRhSm,0.0,-0.0334571,,3,3.0
YSmPb2,0.0,-0.0566743,,3,3.0
Si2PdTm,0.0,-0.0270018,,3,3.0
AlCu2Hf2,0.0,-0.0330569,,3,3.0
MgS2Cd,2.7117,-0.0148644,,3,3.0
Ga2InIr,0.0,-0.0346694,,3,3.0
Al3Y4,0.0,-0.0195532,,3,3.0
Zn2HoAc,0.0,-0.0419076,,3,3.0
KAu3,0.0,-0.0542389,,3,3.0
Mg3Si2Ga3Pt,0.0,-0.0175067,,3,3.0
Ca2PdAu2,0.0,-0.0388806,,3,3.0
RuSn2Er6,0.0,-0.0460362,,3,3.0
O3CaPd,1.2121,-0.0139683,,3,3.0
CPDy3,0.0,-0.0336884999999999,,3,3.0
Dy2TlPb,0.0,-0.0614908,,3,3.0
OClCu2,0.0,-0.0117238,,3,3.0
Co4Ge6Tb,0.0,-0.0213291,,3,3.0
EuPtBi,0.0,-0.068397,,3,3.0
Mg3LaPt2,0.0,-0.0339422,,3,3.0
N2Ca2W,0.0,-0.0223491,,3,3.0
LiCaTl2,0.0,-0.0396554,,3,3.0
RhPd2Ce,0.0,-0.0367606,,3,3.0
Cu2Ga,0.0,-0.0156676,,3,3.0
Co2Sn3Tm3,0.0,-0.037725,,3,3.0
F7Rb3Pr,0.0,-0.0149544999999999,,3,3.0
F6CdEu,0.0492,-0.0158104999999999,,3,3.0
RhPm2Au,0.0,-0.0486083,,3,3.0
ScAs2Zr,0.0,-0.0227288,,3,3.0
SrLaTl2,0.0,-0.0531592,,3,3.0
O6TiSr2Lu,0.0,-0.0186088999999999,,3,3.0
CoGa3Er2,0.0,-0.0284455999999999,,3,3.0
LiTe2Pr,0.8892,-0.0315075,,3,3.0
N2Zr3,0.0,-0.0237602,,3,3.0
Sc6Ga2Ru,0.0,-0.0175269,,3,3.0
Ru2CdPa,0.0,-0.0502615,,3,3.0
O4PrW,0.0,-0.0258385,,3,3.0
GaRh2Ba2,0.0,-0.0330209,,3,3.0
FeGeDy,0.0,-0.0288468,,3,3.0
NiSb2Er,0.0,-0.0359758,,3,3.0
H3CaPt,1.3372,-0.018725,,3,3.0
Cl4K2Br2Ir,0.0,-0.0188555,,3,3.0
SiTi2,0.0,-0.0147196,,3,3.0
N4Na5Os,0.0,-0.0131615,,3,3.0
SmPt5,0.0,-0.0667031,,3,3.0
NiInTh,0.0,-0.0490013,,3,3.0
MnNi2Te3,0.0,-0.0273612,,3,3.0
P2NiTb2,0.0,-0.027593,,3,3.0
Ca2Ni2I,0.0,-0.0183322,,3,3.0
GaBrY,0.0,-0.0226427,,3,3.0
YTl2,0.0,-0.057989,,3,3.0
ScAsPt,0.0,-0.0362329999999999,,3,3.0
NaK3Rb,0.0,-0.0098999,,3,3.0
Al3Y3PdSn2,0.0,-0.024329,,3,3.0
NaGaTe2,1.8327,-0.0244145,,3,3.0
LiAlTe2,2.6267,-0.0219606,,3,3.0
Al9Pd3Ho2,0.0,-0.0198073,,3,3.0
NiCuSb,0.0,-0.0229991999999999,,3,3.0
MgNi4Cu,0.0,-0.0141474,,3,3.0
CSiHoRe2,0.0,-0.0427706999999999,,3,3.0
InLaIr,0.0,-0.0500092,,3,3.0
MgCaPt,0.0,-0.0292635,,3,3.0
ScNi4Au,0.0,-0.0250905999999999,,3,3.0
Sn5CeIr,0.0,-0.0425534,,3,3.0
MnRh2Nd2,0.0,-0.0352812,,3,3.0
O2NiBa,0.7699,-0.0190252,,3,3.0
NO2SrTa,1.349,-0.0247879,,3,3.0
BPt,0.0,-0.0391255999999999,,3,3.0
CaLa2Au,0.0,-0.0417391,,3,3.0
MgRhHo,0.0,-0.0300171999999999,,3,3.0
Co2Ho4Pb5,0.0,-0.0558269,,3,3.0
NiGeNb,0.0,-0.0233398,,3,3.0
NiSn2Pr,0.0,-0.0335238,,3,3.0
Mg6BaLa,0.0,-0.0140767,,3,3.0
SCrPd5,0.0,-0.0276234,,3,3.0
Li3As2Pu,0.0,-0.0270993,,3,3.0
Al2CeIr,0.0,-0.033712,,3,3.0
Cl6ZnTe4,1.6274,-0.0197045,,3,3.0
B2O6BaPr,0.0,-0.0164025,,3,3.0
Be2Ge2Eu,0.0,-0.0205026,,3,3.0
Cl4Ti,2.6562,-0.0113104,,3,3.0
GeAgLu,0.0,-0.035961,,3,3.0
P2K5Cu,1.4673,-0.0100897,,3,3.0
Zr2Cd2In,0.0,-0.0313961,,3,3.0
F4NaSc,7.1734,-0.0092194,,3,3.0
F6NaRuTl2,0.0,-0.0226133,,3,3.0
GaIr8,0.0,-0.0650096,,3,3.0
ScAg2In,0.0,-0.0279545,,3,3.0
Cl3FeTl,0.0,-0.0238795,,3,3.0
OZr3Pt,0.0,-0.0354989,,3,3.0
CuAs2Tb2,0.0,-0.0311233,,3,3.0
Y3Ir2Hg,0.0,-0.0499067999999999,,3,3.0
Si3AgHo2,0.0,-0.0272027,,3,3.0
Y3La2,0.0,-0.0339234,,3,3.0
Y2Pt2Au,0.0,-0.0543322,,3,3.0
RhLaPb,0.0,-0.0517141999999999,,3,3.0
TiPd2Cd,0.0,-0.0285317,,3,3.0
F3Br,2.452,-0.0084268,,3,3.0
LiTcSm2,0.0,-0.0315676,,3,3.0
ZnSbAu5,0.0,-0.0567134,,3,3.0
Sc3Ru2Ir,0.0,-0.0314372,,3,3.0
Ti6SnBi2,0.0,-0.032383,,3,3.0
Cd2SmIr,0.0,-0.0445543,,3,3.0
Y2ZrIn,0.0,-0.0302091,,3,3.0
Pd4CsTl6,0.0,-0.0549720999999999,,3,3.0
LiTm2Os,0.0,-0.0448907,,3,3.0
LiTl3,0.0,-0.0549836,,3,3.0
Li4O7Si2Fe,1.124,-0.009069,,3,3.0
SiY2Te,0.0,-0.0269912,,3,3.0
K2RbAu2,0.0,-0.035474,,3,3.0
NaAlSr2,0.0,-0.0141763999999999,,3,3.0
AsZrNb,0.0,-0.0290006999999999,,3,3.0
Se2In,0.5251,-0.0249551,,3,3.0
Si2Mn2Zr,0.0,-0.0181705,,3,3.0
O4Cu2Se2SrSb2,0.0,-0.0187257,,3,3.0
LiInPt2,0.0,-0.0447401,,3,3.0
LiSiSe2,1.915,-0.0138237,,3,3.0
Cu3Zn2Sr,0.0,-0.0159684,,3,3.0
AgInI6Cs2,0.0,-0.0370412,,3,3.0
F4CuSr,2.6539,-0.0116359,,3,3.0
O2NaTa,1.7507,-0.0232335,,3,3.0
Sm3Er,0.0,-0.0459027,,3,3.0
S3CaAgPr,1.8006,-0.0206151,,3,3.0
Si2CeIr,0.0,-0.0349728,,3,3.0
CoSe3CsPr,0.0,-0.0278421999999999,,3,3.0
Li6N4Mo,3.084,-0.0087512,,3,3.0
ZnPd2Cd2,0.0,-0.0283313,,3,3.0
Li2CuBa2,0.0,-0.0197351999999999,,3,3.0
GaAuPu,0.0,-0.0657049,,3,3.0
NFCe2,0.0,-0.0277199999999999,,3,3.0
O6Sb4ICs,2.7432,-0.0231693,,3,3.0
AsIrTh,0.0,-0.0636176,,3,3.0
Co5Ni5Ho2,0.0,-0.0222837,,3,3.0
Sb2Lu6Au,0.0,-0.0536438,,3,3.0
Rh3Sb,0.0,-0.0349258999999999,,3,3.0
SiMnCu2Se4,0.6858,-0.0178677,,3,3.0
Br4SrSn,2.693,-0.0241926999999999,,3,3.0
PSnBa,0.0,-0.0294376,,3,3.0
YZrRe4,0.0,-0.0575032,,3,3.0
F5SbCs2,5.292,-0.0191134,,3,3.0
BPd2Pr,0.0,-0.029795,,3,3.0
Mg2SiOs2,0.0,-0.0329675,,3,3.0
SiNi2Ce,0.0,-0.0223491,,3,3.0
Ni2NbIn,0.0,-0.0249054,,3,3.0
Be2Mn2Os,0.0,-0.0236679999999999,,3,3.0
MgBaPb,0.0,-0.04079,,3,3.0
TiGa4Nb2,0.0,-0.0215074,,3,3.0
LiCrRu2,0.0,-0.0225736,,3,3.0
Ni8Nb,0.0,-0.0181328,,3,3.0
N2ZrLu,0.0,-0.0282869,,3,3.0
Be2Rh2Pd,0.0,-0.0223357,,3,3.0
O8KGaW2,5.0359,-0.0200486,,3,3.0
O4Cs2Pu,0.0,-0.0325603,,3,3.0
Si3CuHo,0.0,-0.0192846,,3,3.0
Mg3NdAu2,0.0,-0.0334938999999999,,3,3.0
CHo3Pb,0.0,-0.0473074,,3,3.0
LiO12V4Cu,1.0204,-0.0112372,,3,3.0
Li3GaBa,0.0,-0.0127532,,3,3.0
N2EuTa,0.0,-0.0360678,,3,3.0
Li2SrTl2,0.0,-0.03476,,3,3.0
LiCdSb,0.2155,-0.0237491,,3,3.0
N2MnSr2,0.0,-0.017045,,3,3.0
FeCoZn2,0.0,-0.0156493,,3,3.0
Al3Si2MnGd3,0.0,-0.0270681,,3,3.0
Nb3Sb,0.0,-0.0345482,,3,3.0
Li2ClI,5.1134,-0.014031,,3,3.0
O2Cl4K2Ru,1.7555,-0.0120145,,3,3.0
TiNb,0.0,-0.0245438,,3,3.0
Li5O8V2Cr2,0.0,-0.0102138,,3,3.0
Rh4Sb,0.0,-0.0346374,,3,3.0
H8Mg2SrRe,0.0,-0.0112372,,3,3.0
Se6Zr2Pd,0.0,-0.0248646,,3,3.0
Cu3Ga2Nd,0.0,-0.0206869,,3,3.0
AgCdAu4,0.0,-0.0564704,,3,3.0
Si2FeOs,0.0,-0.0279396999999999,,3,3.0
Pd2In7Pr3,0.0,-0.0364481,,3,3.0
Cu2Pr3Tl3,0.0,-0.0475591999999999,,3,3.0
Ru2SnLa2,0.0,-0.0387853,,3,3.0
Se6Nb2Rh,0.0,-0.0252365,,3,3.0
OGaHf3,0.0,-0.0435208,,3,3.0
Ru2CeSm,0.0,-0.0399655,,3,3.0
Si2Nd2Pb,0.0,-0.0372931,,3,3.0
FeSe2Zr6,0.0,-0.0276609,,3,3.0
SiDyPt,0.0,-0.0440539,,3,3.0
O5CuBaTbBi,0.0,-0.0256306,,3,3.0
O2CsPb,0.0,-0.0326984,,3,3.0
O5AlCa2V,0.226,-0.0115837,,3,3.0
N2PaU,0.0,-0.0569189,,3,3.0
ClY,0.0,-0.0196451999999999,,3,3.0
O6YBa2Ta,3.9053,-0.0245605,,3,3.0
Zn3Ga3Nb,0.0,-0.017755,,3,3.0
AlAs2Rb4,0.0,-0.0191258,,3,3.0
O7Na2PrTa2,0.0,-0.0219453,,3,3.0
AlErOs,0.0,-0.0439702,,3,3.0
Ti2Ge2Re,0.0,-0.0288626,,3,3.0
SnSm2Hg,0.0,-0.0489859,,3,3.0
Al3Si2Ce3Pt,0.0,-0.0282928,,3,3.0
FeTm3,0.0,-0.0433709,,3,3.0
SiSe3Tm4,0.0,-0.0363971,,3,3.0
NPr3Bi,0.0,-0.0446060999999999,,3,3.0
YIn2,0.0,-0.0321494,,3,3.0
FeLa6Tl2,0.0,-0.0470871,,3,3.0
BAl2Co2Y,0.0,-0.0147675,,3,3.0
NaS3TiRh,0.0,-0.0149136,,3,3.0
S2TiAg,0.0,-0.0176934,,3,3.0
F6NdGd,6.4268,-0.0196457,,3,3.0
AgCdTh,0.0,-0.0527524,,3,3.0
CuZn2GaTe4,0.9703,-0.0263288,,3,3.0
B2O6CaTb,0.0,-0.0138386999999999,,3,3.0
F6ScTb,7.6196,-0.0145365,,3,3.0
Zn2Nd2Tl,0.0,-0.0378012,,3,3.0
NiSnTe,0.0,-0.0300006,,3,3.0
Sc3Rh2Tl3,0.0,-0.0415728999999999,,3,3.0
NaLuAu2,0.0,-0.0502190999999999,,3,3.0
MnFe2Dy2,0.0,-0.0299371,,3,3.0
LiAsAg2,0.0,-0.0215366,,3,3.0
BNCoZr,0.0,-0.0173049,,3,3.0
F6KCu,0.7888,-0.0071658,,3,3.0
LiF4Sm,8.6593,-0.0141647,,3,3.0
K6Hg7,0.0,-0.0407818,,3,3.0
CN2Mn,0.7392,-0.0120758,,3,3.0
Rh4CeHg,0.0,-0.0416907,,3,3.0
Ni4CuNd,0.0,-0.020805,,3,3.0
V2Ga4Er,0.0,-0.0220502,,3,3.0
SrCd4Ba,0.0,-0.0309307,,3,3.0
CoRhRe2,0.0,-0.0483648,,3,3.0
C4Dy3Ir,0.0,-0.0323301,,3,3.0
MoTa2Ir,0.0,-0.0603022,,3,3.0
N4Ca3,0.0,-0.0101275999999999,,3,3.0
ZnNd3,0.0,-0.0362237,,3,3.0
RhEr,0.0,-0.0431325999999999,,3,3.0
ScYCd2,0.0,-0.0261907,,3,3.0
PCoNb4,0.0,-0.0271466,,3,3.0
HCuPd3,0.0,-0.0234692,,3,3.0
O6FeBa2W,0.0,-0.0230523999999999,,3,3.0
Al5Rh3,0.0,-0.0184789,,3,3.0
Li2GaHg,0.0,-0.0227868,,3,3.0
Br6Rb2Au,0.0,-0.0262325,,3,3.0
Li3B2O6Sc,5.337,-0.0089719999999999,,3,3.0
MgOsIr2,0.0,-0.054972,,3,3.0
MoInHf2,0.0,-0.0486028,,3,3.0
O4Cu2As2Se2Dy,0.0,-0.0181371,,3,3.0
P2S7ScTl,2.1925,-0.0166833999999999,,3,3.0
Li2O4TiMn,0.0,-0.0105938,,3,3.0
FeCoGaHf,0.0,-0.0290268,,3,3.0
S4CaGeAu2,1.123,-0.0264469,,3,3.0
H6Na3Fe,0.0,-0.0053295,,3,3.0
YLa2Hg,0.0,-0.0459105,,3,3.0
Rh3In2Ba,0.0,-0.0349953999999999,,3,3.0
FeNi2Ta,0.0,-0.0294939,,3,3.0
AgI6Cs2Pr,2.9959,-0.0384518,,3,3.0
Si7Co2Ho3,0.0,-0.0216106,,3,3.0
B6Mn2Tm,0.0,-0.0153707,,3,3.0
LiY,0.0,-0.0150569,,3,3.0
FeZnPd2,0.0,-0.0246679,,3,3.0
ZnRh2Pr2,0.0,-0.0342687,,3,3.0
LiTe2Dy,1.0284,-0.0325987,,3,3.0
InBa2Pb,0.0,-0.0477799,,3,3.0
LiCa2Ga2,0.0,-0.0112433999999999,,3,3.0
Al3RuSn2Dy3,0.0,-0.0311448,,3,3.0
HAlGePu,0.0,-0.0354437,,3,3.0
CuCdPr,0.0,-0.0299607,,3,3.0
O6K2Rh2Te,1.5429,-0.0157156,,3,3.0
Si2Ga3Ho2,0.0,-0.0244339,,3,3.0
MgY2Au,0.0,-0.0330919999999999,,3,3.0
H12O9SNi,3.7962,-0.0064883,,3,3.0
Co2Ta,0.0,-0.0338186,,3,3.0
Cu2CdTh,0.0,-0.0393536,,3,3.0
Mg2Ca3Ni2As4,0.0,-0.0147382,,3,3.0
O7Rb2NdTa2,0.0,-0.0247491,,3,3.0
Si2Ta3,0.0,-0.0444842,,3,3.0
Si3Nd2,0.0,-0.0240822,,3,3.0
MnAs2Zr6,0.0,-0.0277015,,3,3.0
Ca2CuPd2,0.0,-0.0206175,,3,3.0
Ti6Ga2Ru,0.0,-0.0186403,,3,3.0
LiMgS2Rb,3.9569,-0.0110459999999999,,3,3.0
Mg2ScPr,0.0,-0.0169536,,3,3.0
SiCuZr,0.0,-0.0193619999999999,,3,3.0
AlZnHo2,0.0,-0.0302273,,3,3.0
O6MnSr2Zr,2.1057,-0.0162645,,3,3.0
KCu2As2Sm,0.0,-0.0213746,,3,3.0
PCu2Pd2,0.0,-0.0215689999999999,,3,3.0
P2ZrLa,0.0,-0.0252823,,3,3.0
Se3Rb2Zr,1.5439,-0.0236362,,3,3.0
Si3RhLu,0.0,-0.0245966,,3,3.0
C4Sr3Ir,0.0,-0.0225081,,3,3.0
Se4SrSnAu2,0.687,-0.0353325,,3,3.0
Al3CuGe2Nd3,0.0,-0.0237389,,3,3.0
Ga2GeSe6Ba,2.0592,-0.0221163999999999,,3,3.0
C3Ca2,1.3279,-0.0100297,,3,3.0
Os3Pt,0.0,-0.0713935,,3,3.0
Cl6NiRb2Au,0.0533,-0.0187391,,3,3.0
CuGd2Au,0.0,-0.0510756,,3,3.0
MgTmIr,0.0,-0.0434954,,3,3.0
AlCoNd,0.0,-0.0231771,,3,3.0
Rh2HfPt,0.0,-0.051162,,3,3.0
Cu5Zr,0.0,-0.0179453,,3,3.0
SiCe,0.0,-0.027947,,3,3.0
B2ZnRh2,0.0,-0.0195755,,3,3.0
ZrPt7,0.0,-0.0657788999999999,,3,3.0
LiGeSr,0.0,-0.0150192,,3,3.0
CCl2Hf2,0.0,-0.0319054,,3,3.0
B2O6Rb2U,0.0,-0.0206321,,3,3.0
NaZn2In2,0.0,-0.0196611,,3,3.0
Ru2InCe2,0.0,-0.0389334,,3,3.0
LiP2Ru2Er,0.0,-0.0248378,,3,3.0
MnPd2Au,0.0,-0.0387291,,3,3.0
AsTeTh,0.0,-0.0523560999999999,,3,3.0
B4Lu2Os5,0.0,-0.0458802,,3,3.0
Ga2Pt2Th,0.0,-0.0549198,,3,3.0
O6Ag5Pb2,0.0,-0.0271275,,3,3.0
C5Dy4,0.0,-0.0273081999999999,,3,3.0
Cu4CdTh,0.0,-0.0313513,,3,3.0
CaCd4Pb,0.0,-0.034706,,3,3.0
AlCrCoRu,0.0,-0.0199956999999999,,3,3.0
CeIrPt,0.0,-0.0629941,,3,3.0
NaCuIn2,0.0,-0.0217038,,3,3.0
SRuSb,0.0,-0.0276269,,3,3.0
Co7Cu,0.0,-0.0169666999999999,,3,3.0
H6K3Co,2.9211,-0.0066212,,3,3.0
HNb2,0.0,-0.0234237,,3,3.0