formula,bg,formation_energy,mp-id,fidelity,bg_category
Y2CdTl2,0.0,-0.0466955,,3,3.0
AlSiTa4,0.0,-0.0476934,,3,3.0
Li2P2Pa,0.0,-0.0260196,,3,3.0
CoCu7,0.0,-0.0154151,,3,3.0
RuSbPa,0.3252,-0.0579087999999999,,3,3.0
As3Ce,0.0,-0.0270355,,3,3.0
NCa2Tl,0.0,-0.0260853,,3,3.0
Li3O8Co3Ni,0.9908,-0.010064,,3,3.0
NSnSm2,0.0,-0.0347586,,3,3.0
CsAuPb2,0.0,-0.064965,,3,3.0
ZnInLu,0.0,-0.0345812,,3,3.0
InHg7,0.0,-0.0637957,,3,3.0
Ag2PrHg,0.0,-0.0438569,,3,3.0
F5MgAg,0.2566,-0.0098696,,3,3.0
MgYCd2,0.0,-0.0238563,,3,3.0
PCu2Sn,0.0,-0.0191558,,3,3.0
Na2Ge2Ag,0.0,-0.0156853,,3,3.0
Al3NdIr2,0.0,-0.0358,,3,3.0
Be13Dy,0.0,-0.0076372,,3,3.0
NOLa6Tl2,0.0,-0.0432453,,3,3.0
MgScRh4,0.0,-0.0262988,,3,3.0
O4S2Cu2DyBi2,0.0,-0.0268943,,3,3.0
Cu2Y2In,0.0,-0.0243996,,3,3.0
Sn,0.0,-0.0359209,,3,3.0
CZr2Hg,0.0,-0.0356749,,3,3.0
F6ZnRh,0.3508,-0.0105531,,3,3.0
H17N5SiS3,4.0059,-0.0060044,,3,3.0
AsPd2Ac,0.0,-0.0449499,,3,3.0
Ti3SeI7,0.7715,-0.0304994,,3,3.0
CSi2Y2Ru2,0.0,-0.0230843,,3,3.0
Sc3In,0.0,-0.0194302999999999,,3,3.0
ScZr2Ir,0.0,-0.0373066,,3,3.0
O4MoLu,0.0,-0.0221619999999999,,3,3.0
NiIDy,0.0,-0.0345163,,3,3.0
Se2ZrSn,0.0,-0.0276872,,3,3.0
CuGa6Y,0.0,-0.0180052,,3,3.0
Se6Ta2Pt,0.0,-0.0367162999999999,,3,3.0
S4Ti2Y,0.0,-0.0158623,,3,3.0
CdTl4,0.0,-0.0639245,,3,3.0
CaAu2Hg2,0.0,-0.0573247,,3,3.0
Al2Cu3Zr3,0.0,-0.0194998,,3,3.0
AlTlAc2,0.0,-0.0656393,,3,3.0
Cl6K2Pu,0.0064,-0.0213965,,3,3.0
MgSm,0.0,-0.0248169,,3,3.0
N3Y4,0.0,-0.0215671999999999,,3,3.0
CaRh3Sn2,0.0,-0.0310451,,3,3.0
H16O10Sr,4.2046,-0.0063152999999999,,3,3.0
YAuHg,0.0,-0.0559335,,3,3.0
Y2SbTl,0.0,-0.0422033,,3,3.0
Fe2Nb4In5,0.0,-0.0305584,,3,3.0
Li2F8ZrEr,1.3373,-0.0132868,,3,3.0
PdPrBi2,0.0,-0.0590792,,3,3.0
O3NaW,0.0,-0.0207502,,3,3.0
Na2AgCd,0.0,-0.0175373,,3,3.0
OGaEr3,0.0,-0.0362879999999999,,3,3.0
S8Mo3W,1.1268,-0.0218597,,3,3.0
S4CdSm2,2.304,-0.0243660999999999,,3,3.0
O4RhTa,1.6057,-0.0230728,,3,3.0
Te3Sm2,0.6924,-0.0416943,,3,3.0
CrNb2Ru,0.0,-0.0300695,,3,3.0
BeCl5,0.0,-0.0079635,,3,3.0
H4CN3Rb,4.5875,-0.0084517,,3,3.0
OCa2I2,4.0166,-0.0221157,,3,3.0
CSi2Cr2Y,0.0,-0.0162986,,3,3.0
LiC6N6Cs2Ir,5.8864,-0.0169152999999999,,3,3.0
CdEu2Hg,0.0,-0.052054,,3,3.0
YAgI6Cs2,3.1113,-0.0369021,,3,3.0
Ge2YPu,0.0,-0.0445302,,3,3.0
Al2CoPa6,0.0,-0.0702175,,3,3.0
VRu3,0.0,-0.0306351,,3,3.0
O6CuBa2Pb,0.0,-0.0223785,,3,3.0
BO3MgK,4.8515,-0.0091906,,3,3.0
SeBr2In2,0.0,-0.0257849,,3,3.0
Ni3Mo4,0.0,-0.0268235,,3,3.0
AlNi3,0.0,-0.0145568,,3,3.0
Ag3Pt7,0.0,-0.0584861,,3,3.0
NaBr6Rb2Sb,2.7288,-0.0213544,,3,3.0
N2OZnBa3,0.548,-0.0236172,,3,3.0
GaAuTh,0.0,-0.0613451,,3,3.0
Si2P3Cu,0.0,-0.0113356,,3,3.0
In2TbLu,0.0,-0.0428007,,3,3.0
H6Cd2Ir,0.0,-0.0168573,,3,3.0
Y2AgLa,0.0,-0.0327006,,3,3.0
O4Na2CoGe,1.2097,-0.0104728999999999,,3,3.0
Ni4GaHo,0.0,-0.0220905,,3,3.0
CoGe3Tm,0.0,-0.0258148,,3,3.0
CuAs2Ba,0.0,-0.0244957,,3,3.0
Si2Cu2Ho,0.0,-0.0205101,,3,3.0
Ag2SbTe4Bi,0.0,-0.0410097,,3,3.0
As2CdCe6,0.0,-0.0382624,,3,3.0
Te3Bi4,0.0381,-0.0609864,,3,3.0
ScY2Sb2,0.0,-0.0299269,,3,3.0
Ni2Sb2Cs,0.0,-0.0292495,,3,3.0
Ni2CuDy2,0.0,-0.0290529,,3,3.0
H2Hf2Hg,0.0,-0.0404801,,3,3.0
Na2S3U,0.0,-0.0250218,,3,3.0
ScMn4Tc,0.0,-0.0203385,,3,3.0
Ag8Cd,0.0,-0.0312811,,3,3.0
Co2CuIr,0.0,-0.0301431,,3,3.0
CrIr3,0.0,-0.0582919,,3,3.0
In2Pb2Bi,0.0,-0.0592598,,3,3.0
O6Ca2YNb,3.5903,-0.0150964,,3,3.0
AgSb2,0.0,-0.0352059,,3,3.0
LiCoI2,0.0,-0.0236896999999999,,3,3.0
Sr2BaAu,0.0,-0.0387897,,3,3.0
S3K2Co,0.0,-0.0112892,,3,3.0
OTi3Zn,0.0,-0.0149002,,3,3.0
BrTe5,0.0,-0.0342922,,3,3.0
SiTiCuAs,0.0,-0.0158693,,3,3.0
CdBaPb2,0.0,-0.0558209999999999,,3,3.0
PCeTh,0.0,-0.0512989,,3,3.0
MnCo2Zr,0.0,-0.0212369,,3,3.0
CuCd2Ba,0.0,-0.0291183,,3,3.0
B5Ru3Sm2,0.0,-0.0236393999999999,,3,3.0
Ca3MnGa3Ge2,0.0,-0.0154667,,3,3.0
O5CuBa2Tl,0.0,-0.0236597,,3,3.0
EuIn,0.0,-0.602082327499999,mp-1524257,3,3.0
AlSn4,0.0,-0.0301275,,3,3.0
Y3Pd2In3,0.0,-0.0320414,,3,3.0
ZnGePt,0.0,-0.0347742999999999,,3,3.0
Ni2SrIr3,0.0,-0.0448536,,3,3.0
F6NaCrIn2,2.8479,-0.0136262,,3,3.0
N2Dy7Tl3,0.0,-0.0485587,,3,3.0
CsPt,0.0,-0.0541392,,3,3.0
CuAs2Rb4,0.0,-0.0201783,,3,3.0
B2N3Pd2Ce3,0.0,-0.0254647,,3,3.0
Si2MnHf6,0.0,-0.0464849,,3,3.0
SiVTa,0.0,-0.0319375,,3,3.0
Zn3Pa,0.0,-0.0350375999999999,,3,3.0
LiZn4Cd,0.0,-0.0146287,,3,3.0
O2TeLa2,2.4809,-0.0305028,,3,3.0
Al2ZnY2,0.0,-0.0174132,,3,3.0
Al3Si2CrCe3,0.0,-0.0222474,,3,3.0
Al6HoPt,0.0,-0.0213329,,3,3.0
PdErTl,0.0,-0.0525925,,3,3.0
Si4Ca3Zn4,0.0,-0.0116067,,3,3.0
Li2F8TiSr,4.1334,-0.0095038,,3,3.0
K6ZnSn2,0.1018,-0.0152276,,3,3.0
LiMgLa,0.0,-0.0168735,,3,3.0
O6Ba2PrOs,0.5854,-0.0257875,,3,3.0
LiPdTl2,0.0,-0.0452346999999999,,3,3.0
ZnSnLu,0.0,-0.0354648,,3,3.0
N3K,4.5896,-0.009269,,3,3.0
Al4CaRu,0.0,-0.0130984,,3,3.0
ClCo2Pr2,0.0,-0.0266175999999999,,3,3.0
TeHo2,0.0,-0.0459182,,3,3.0
Ti6As2Rh,0.0,-0.0197433,,3,3.0
Rh2Sb2Cs,0.0,-0.036583,,3,3.0
Al3CuCe,0.0,-0.0170891,,3,3.0
S5Zn2In2,0.4302,-0.0164957,,3,3.0
RhIn5Ce,0.0,-0.0355789,,3,3.0
S3KCuHo,0.0,-0.018353,,3,3.0
B2Co13Nd3,0.0,-0.0206601,,3,3.0
H3HoOs,0.0,-0.0267611,,3,3.0
GaTmIr,0.0,-0.0475073,,3,3.0
P2ScNi2,0.0,-0.0144814,,3,3.0
SrPd3Sn2,0.0,-0.0327533,,3,3.0
PTe3La4,0.0,-0.0385816,,3,3.0
Cd2BaAu2,0.0,-0.048358,,3,3.0
O4BrYSb2,0.9364,-0.0204942,,3,3.0
O4PbNp,0.0,-0.0368905,,3,3.0
Fe2GaPu,0.0,-0.0407385,,3,3.0
NiAs2Lu2,0.0,-0.0347607,,3,3.0
Br4Zr,3.1831,-0.0232527,,3,3.0
CdIn2Ba,0.0,-0.0346131,,3,3.0
In3Tl5,0.0,-0.0576897,,3,3.0
O6MgY2Pd,2.5241,-0.0158141,,3,3.0
N2Zr2Te,0.0,-0.025109,,3,3.0
LiMnCoSn,0.0,-0.0186555,,3,3.0
AlRhEr,0.0,-0.0317184,,3,3.0
MgNiCu3Se4,0.0,-0.0166767,,3,3.0
AlIn2Hf6,0.0,-0.0502538,,3,3.0
MgPd2Pm,0.0,-0.0293969,,3,3.0
Ni2Ga5Pr,0.0,-0.020264,,3,3.0
OClEu,0.0,-0.0253869,,3,3.0
ScIn4,0.0,-0.029771,,3,3.0
BAl2Fe2Ho,0.0,-0.0184461,,3,3.0
CSiMn2Tm,0.0,-0.0222931,,3,3.0
O4IPrBi2,1.5567,-0.0346965,,3,3.0
Cl2ScSe2,1.0107,-0.0155573,,3,3.0
MgS2SbI,1.6203,-0.0204551,,3,3.0
MnCoSb,0.0,-0.0244947,,3,3.0
O3F2Nb2,0.4715,-0.0159551,,3,3.0
Ni2SeSb,0.0,-0.0226391999999999,,3,3.0
Zn2Cd,0.0,-0.0191005,,3,3.0
Ag3Cd5,0.0,-0.0308084,,3,3.0
O4SrMo,4.1306,-0.0164685,,3,3.0
SiCePt2,0.0,-0.0499375,,3,3.0
Cl4NiTl2,1.047,-0.0284746,,3,3.0
Dy2Pt3,0.0,-0.0625931,,3,3.0
LiAs2,0.0,-0.0145652,,3,3.0
Zn2Dy3Hg,0.0,-0.0402797,,3,3.0
Al2Si2U,0.0,-0.0278624,,3,3.0
F4CaSn,3.7692,-0.0131428,,3,3.0
Pd,0.0,-0.0327747,,3,3.0
As2SrNb2,0.0,-0.0266138,,3,3.0
Ni2Ir,0.0,-0.0344639,,3,3.0
H4Mn3Fe,0.0,-0.0108115,,3,3.0
GaGe2Ho2,0.0,-0.0312919,,3,3.0
Al2CoCe,0.0,-0.0198302,,3,3.0
MgScSe3Tl,1.8188,-0.0266419,,3,3.0
HCr3Os,0.0,-0.0259947,,3,3.0
Ag2GdPb,0.0,-0.0496049,,3,3.0
O7Ca2Nb2,4.3335,-0.0148154,,3,3.0
F4CuRb,2.0948,-0.01045,,3,3.0
B2MgIr3,0.0,-0.0393366,,3,3.0
Mg2RhTl,0.0,-0.0294056,,3,3.0
Ge2YTc2,0.0,-0.0277291,,3,3.0
Br3RbHg,0.0,-0.0304848,,3,3.0
KCrBr3,0.0,-0.0183749,,3,3.0
KSb2Pb2,0.0,-0.0470393,,3,3.0
LiNi2Y2,0.0,-0.0183706,,3,3.0
Ti2Ta,0.0,-0.0327967,,3,3.0
OK2As2Dy2,0.0,-0.0244101,,3,3.0
PSeLu,0.2268,-0.0301172,,3,3.0
AlCaCu2,0.0,-0.0122738999999999,,3,3.0
Al4MnTh,0.0,-0.0245564,,3,3.0
LiF6MnTl2,0.0,-0.0211622,,3,3.0
HNiRu2Ta,0.0,-0.0314542,,3,3.0
NCa3Hg,0.0,-0.0221341,,3,3.0
RbCd4Bi3,0.0,-0.0474242,,3,3.0
OZnAsEr,1.4789,-0.0245972,,3,3.0
LiK2Br6In,2.1783,-0.0183861,,3,3.0
Cl4Ag2Hg,1.4635,-0.0237892,,3,3.0
MgFe2,0.0,-0.0136213,,3,3.0
S2CuNb,0.1274,-0.0177577,,3,3.0
ZnRh2Os,0.0,-0.0383998,,3,3.0
MgTi2Se4,0.0,-0.0180947999999999,,3,3.0
Ni2Tb3Hg,0.0,-0.0406061,,3,3.0
Zn3Au2Np,0.0,-0.0478387,,3,3.0
CrAs4,0.0,-0.0198559,,3,3.0
NiIn2La,0.0,-0.0320444,,3,3.0
CoRu2Sm2,0.0,-0.0354033999999999,,3,3.0
H9Tb4,0.0,-0.0175421,,3,3.0
F6CuSr,0.0,-0.0097355,,3,3.0
Cu4DyHg,0.0,-0.0297474,,3,3.0
In2TbIr,0.0,-0.046854,,3,3.0
Sc2Ga4Y,0.0,-0.0180989,,3,3.0
Fe3Sb,0.0,-0.0229136,,3,3.0
NaPd2Tl2,0.0,-0.0430773999999999,,3,3.0
GePd3Gd2,0.0,-0.0400358,,3,3.0
Si3CoDy,0.0,-0.0196593,,3,3.0
O8P2BaTl,0.0,-0.0174089999999999,,3,3.0
O6CoCuSr2,0.0,-0.0132083999999999,,3,3.0
MgBaBi2,0.0,-0.0511337,,3,3.0
B2N3Sm3Ir2,0.0,-0.0332426,,3,3.0
PSrAu2,0.0,-0.0435764,,3,3.0
H2MoRu,0.0,-0.018989,,3,3.0
MgGeSb2,0.5059,-0.0247286,,3,3.0
Li3Mg,0.0,-0.003065,,3,3.0
B2Co3Np,0.0,-0.0291772,,3,3.0
KHgPb,0.0,-0.0510807,,3,3.0
Cu2CdLa2,0.0,-0.0297017999999999,,3,3.0
HO4Na2P,5.4571,-0.0081134,,3,3.0
O6Rb2TeTm,0.0,-0.0188605,,3,3.0
NCs2Pt,0.0,-0.0390129,,3,3.0
NiSnPr,0.0,-0.0324627,,3,3.0
GaPt,0.0,-0.0440306,,3,3.0
MgBr2,5.3058,-0.0162981,,3,3.0
CePt2Au3,0.0,-0.066092,,3,3.0
MnZn2Rh,0.0,-0.020215,,3,3.0
MgAlPr,0.0,-0.0190277999999999,,3,3.0
CaNi2Ge2,0.0,-0.0166352,,3,3.0
KMnI3,0.3999,-0.0283999,,3,3.0
Cl6ScCuCs2,2.0192,-0.0172709,,3,3.0
CaGa3Pt2,0.0,-0.0340129,,3,3.0
CTePr2,0.0,-0.0343766999999999,,3,3.0
Rh2PrEu,0.0,-0.0416595,,3,3.0
Br6RhCs2,0.0,-0.0262787,,3,3.0
O3FCuZr,0.9864,-0.013771,,3,3.0
I2Ce2Pb,0.0,-0.0488168,,3,3.0
SBrEr,3.1809,-0.0287205,,3,3.0
Li2GeSm,0.0,-0.0175674,,3,3.0
CaScSn,0.0,-0.0205912,,3,3.0
CaHg2Tl2,0.0,-0.0583867,,3,3.0
Al5CeIr2,0.0,-0.0291179999999999,,3,3.0
CI2Ce2,0.0,-0.0354955,,3,3.0
Al5Rh2Nd,0.0,-0.0196421,,3,3.0
Al2NiEu,0.0,-0.0218774,,3,3.0
LaPtPb,0.0,-0.0641222,,3,3.0
AlTc2,0.0,-0.0264814,,3,3.0
ZrInPt,0.0,-0.0457925,,3,3.0
Cl8SrTb2,4.4462,-0.0188732,,3,3.0
LiGaTc,0.0,-0.0181856,,3,3.0
VCuRbTe3,0.0,-0.0280992,,3,3.0
KBr2Cs,4.9965,-0.0231764,,3,3.0
GaBr3Ho3,0.0,-0.0330482999999999,,3,3.0
SiS3K,2.6162,-0.0104212,,3,3.0
SeCeBi,0.0,-0.0491559,,3,3.0
P4Ni,0.0,-0.0117649,,3,3.0
ClNiTe2,0.0,-0.0250625,,3,3.0
Al3Si2CoZr3,0.0,-0.0176897,,3,3.0
KZrSb2,0.0,-0.0289845,,3,3.0
Fe4CoTa,0.0,-0.0260864,,3,3.0
AlTiRuRh,0.2042,-0.0242683,,3,3.0
H4Cs2Pt,3.5156,-0.023318,,3,3.0
N2CeHo,0.0,-0.0298984,,3,3.0
Sc2GaRh2,0.0,-0.0234942,,3,3.0
Zn2SmPt,0.0,-0.0362464,,3,3.0
B2YIr2,0.0,-0.0378919,,3,3.0
O8P2BaLu,0.0,-0.0167762999999999,,3,3.0
Ti3Ta,0.0,-0.0285857999999999,,3,3.0
ScCu2Ga3,0.0,-0.0159853,,3,3.0
LiTl5,0.0,-0.0607777,,3,3.0
Al3MnGe2Sm3,0.0,-0.0243833,,3,3.0
LiP2Fe2Y,0.0,-0.0153306,,3,3.0
H4VTa,0.0,-0.016485,,3,3.0
Ag2HoTl,0.0,-0.0462958,,3,3.0
Cl6CuRb2Mo,1.5108,-0.0153786,,3,3.0
PPd5Ho,0.0,-0.0327403,,3,3.0
Cl6AsCs2Hg,0.0,-0.0224957,,3,3.0
S3CaNiTm,0.0,-0.0195625,,3,3.0
TlPu,0.0,-0.0910999,,3,3.0
O4AsHf,4.2392,-0.0205076,,3,3.0
Rh5Nd,0.0,-0.0357318,,3,3.0
RhSbTh,1.0316,-0.0568519,,3,3.0
Li2ZrAu2,0.0,-0.0353606,,3,3.0
MgRh2Pt,0.0,-0.0361131,,3,3.0
RuTe2,0.4736,-0.036884,,3,3.0
Se2RbAu,1.2363,-0.0332564,,3,3.0
CuZr2Rh,0.0,-0.0281911,,3,3.0
NiSb4Dy2,0.0,-0.0380738,,3,3.0
MgSb2Lu6,0.0,-0.0461841,,3,3.0
Sc3Tc,0.0,-0.0195853,,3,3.0
OFIn,2.0148,-0.0166159,,3,3.0
Al5FeY,0.0,-0.0124725,,3,3.0
H4NSe4WPt,0.0,-0.0224397,,3,3.0
O3La2,4.2462,-0.0247287,,3,3.0
Co2Sb2Pr,0.0,-0.0309812,,3,3.0
F5Rb2Pt,0.0,-0.0184109,,3,3.0
P2La,0.0,-0.0224398,,3,3.0
F4Cs2Tm,0.0,-0.023588,,3,3.0
AgTm2Au,0.0,-0.0518305,,3,3.0
YAg2Ba,0.0,-0.0328245,,3,3.0
MgMn6As4,0.0,-0.0181687,,3,3.0
Ru2SnHo2,0.0,-0.0412972,,3,3.0
BeTiIr2,0.1925,-0.0416892,,3,3.0
SmTl2Th,0.0,-0.0716141,,3,3.0
Cl6KTiCs2,0.0,-0.0168897,,3,3.0
Li2O3Te,3.7372,-0.0119252,,3,3.0
NiNd,0.0,-0.030181,,3,3.0
CoNi3Se4,0.0,-0.0185271,,3,3.0
NHf3Tl,0.0,-0.0548578,,3,3.0
CdNd3,0.0,-0.040469,,3,3.0
O8CoMo2Cs,2.1281,-0.0165976,,3,3.0
SeLaBi,0.0338,-0.0488778999999999,,3,3.0
Si6Ni3Au,0.0,-0.0181371,,3,3.0
AlRuGd,0.0,-0.0343862,,3,3.0
Zn2Pt2Au,0.0,-0.0477236,,3,3.0
Zn2GaSm,0.0,-0.0224277,,3,3.0
LiTb2Au,0.0,-0.041822,,3,3.0
Br3RbAg,0.0,-0.0231003,,3,3.0
ErHf5,0.0,-0.0605893999999999,,3,3.0
NaTe2Tb,1.3514,-0.0328484,,3,3.0
MnZn2Os,0.0,-0.0292792,,3,3.0
LiNi2Sb2Tm,0.0,-0.0275074,,3,3.0
LiO4PCu,1.7632,-0.0096236,,3,3.0
FePr6Tl2,0.0,-0.0472094,,3,3.0
Cu2Ba2Tl,0.0,-0.0365341999999999,,3,3.0
BCaPt2,0.0,-0.0403081,,3,3.0
Al2SrPd,0.0,-0.018363,,3,3.0
Lu6PtBi2,0.0,-0.0629825,,3,3.0
GePd2Eu,0.0,-0.0353649,,3,3.0
C6Y2La,0.0,-0.0180383,,3,3.0
NiRh2Tm2,0.0,-0.0382695999999999,,3,3.0
CaCu2As2,0.0,-0.0166701,,3,3.0
CuIn2Dy,0.0,-0.0328881,,3,3.0
Al3Ge2RuPr3,0.0,-0.0259182,,3,3.0
KAsRh,0.0,-0.0214202,,3,3.0
F4NaCr,2.4027,-0.0092317,,3,3.0
MgTc2In,0.0,-0.0271589,,3,3.0
O3TePb,2.4236,-0.0275049999999999,,3,3.0
LiP2ScCu2,0.0,-0.0121125,,3,3.0
GeHf2,0.0,-0.0488665999999999,,3,3.0
F7Ca2Pr,7.4664,-0.0129571,,3,3.0
Y2SnPt3,0.0,-0.0515698,,3,3.0
ZrOs2,0.0,-0.0586347,,3,3.0
BeCl2Se,0.0,-0.0106816,,3,3.0
Al2Ca,0.0,-0.0087217,,3,3.0
Br4Rb2PdI2,0.5455,-0.0260906999999999,,3,3.0
CCa2Ru,0.0,-0.0160614,,3,3.0
RuTaOs2,0.0,-0.0615028,,3,3.0
AgNd2Hg,0.0,-0.0471824,,3,3.0
AsTb,0.0,-0.0351883,,3,3.0
Cu2CdIn,0.0,-0.0235214,,3,3.0
F6CoTh,2.0119,-0.0202567,,3,3.0
P2Pb,0.0,-0.0321712,,3,3.0
C2O6Na2Cd,3.6953,-0.0104718,,3,3.0
B3CoW3,0.0,-0.0358907,,3,3.0
S4Co3Cs2,1.5109,-0.0192864,,3,3.0
AsCd8,0.0,-0.0292134,,3,3.0
AlTiNiPd,0.0,-0.0189377999999999,,3,3.0
S2Ni2Rb,0.0,-0.0151568,,3,3.0
B2ScNi3,0.0,-0.013483,,3,3.0
In7Sb,0.0,-0.0337927,,3,3.0
Al2CrMn,0.0,-0.0134072,,3,3.0
Be7Mn,0.0,-0.0061155,,3,3.0
SiCuLa,0.0,-0.0234319,,3,3.0
GaPd2Nd,0.0,-0.0322793,,3,3.0
Mg2Si2Ru,0.0,-0.0133479,,3,3.0
B2O6SiCa,6.6677,-0.0101284,,3,3.0
LiGe2Lu2,0.0,-0.0309924,,3,3.0
O7PdSm4,1.0152,-0.0244182999999999,,3,3.0
LiCd3,0.0,-0.0236265,,3,3.0
Zn2NdEr,0.0,-0.0306241999999999,,3,3.0
N3TcHo,0.0,-0.0231369,,3,3.0
O6AlBa2Ho,0.0,-0.0202584,,3,3.0
LiCl4Pd,0.5797,-0.012204,,3,3.0
H2SiLa2,0.0,-0.0213293,,3,3.0
P2Cr2U,0.0,-0.0327574,,3,3.0
MgTbPt4,0.0,-0.0564863,,3,3.0
Se2Br,0.8233,-0.0199303999999999,,3,3.0
AgTe3PbBi,0.0,-0.0497511999999999,,3,3.0
Si3GaLa4,0.0,-0.0281267,,3,3.0
P2ScY2,0.0,-0.0195718,,3,3.0
TiVTc2,0.0,-0.0264618,,3,3.0
CrFeIr,0.0,-0.0360009,,3,3.0
F6ScCd,0.0,-0.0110655,,3,3.0
SiNi5Sb,0.0,-0.0185816,,3,3.0
Li2O7MgTa2,3.3686,-0.0183706,,3,3.0
HAlSnPu,0.0,-0.0394971999999999,,3,3.0
Sr2CdSb2,0.8575,-0.0308521,,3,3.0
YZrBi,0.0,-0.0464125,,3,3.0
MnCu4Cd,0.0,-0.0182947,,3,3.0
Mg3PBr3,2.4911,-0.0132134,,3,3.0
Ga3Rh2Sm,0.0,-0.0276667,,3,3.0
Al4YEr,0.0,-0.0187520999999999,,3,3.0
Cd4Pb,0.0,-0.039424,,3,3.0
B2O12K3Ta3,3.147,-0.0185758,,3,3.0
HSc3Hf,0.0,-0.0218679,,3,3.0
O6ScEu2W,0.0,-0.0259516,,3,3.0
O4Na2Pd3,0.7156,-0.0156658,,3,3.0
Be2MoW2,0.0,-0.0367341,,3,3.0
SiTiSm,0.0,-0.0241479,,3,3.0
GaPd2In,0.0,-0.0294077,,3,3.0
SnIrNp,0.0,-0.0716098,,3,3.0
H8O12NiRe2,2.2755,-0.0126645,,3,3.0
Cu3Pd2Np,0.0,-0.0364042,,3,3.0
Si2Zr3,0.0,-0.0233361,,3,3.0
Al2SrPd2,0.0,-0.0215442,,3,3.0
B4Ta3,0.0,-0.0335432,,3,3.0
SrSb2Ba2,0.0,-0.0362346,,3,3.0
Zr2TcAg,0.0,-0.0322958,,3,3.0
Al2Se4Ag,0.0,-0.0188304,,3,3.0
Nb2CdIr2,0.0,-0.0482567,,3,3.0
Cl6ZnRb2Ag,0.0,-0.0148221,,3,3.0
F6HgNp,1.0873,-0.0273713,,3,3.0
Li11P5Ti,0.7379,-0.00637,,3,3.0
CaAg2Ce,0.0,-0.0294629,,3,3.0
ZnZr3Ag2,0.0,-0.0281947,,3,3.0
C3SiNb4,0.0,-0.0221175,,3,3.0
Li2Rh,0.0,-0.0130414,,3,3.0
F8Sm2Eu,1.0926,-0.0198296,,3,3.0
NaZnTe2Cs,1.5336,-0.0268727,,3,3.0
AsTc8,0.0,-0.0334095,,3,3.0
SiNb2Ru3,0.0,-0.0305219999999999,,3,3.0
RhPt2Pb4,0.0,-0.0683488,,3,3.0
SnErIr,0.0,-0.0534619,,3,3.0
F6PInI2Cs,0.0,-0.0182662,,3,3.0
Al3Si2NiZr3,0.0,-0.0176066,,3,3.0
CuZrPd2,0.0,-0.0285242,,3,3.0
LiCaIn4,0.0,-0.0247125,,3,3.0
LiSn3,0.0,-0.0276543,,3,3.0
Cl2TePt,1.1939,-0.0314327,,3,3.0
Si2Rh2Ce,0.0,-0.0275969,,3,3.0
S4Tb2Pb,2.3823,-0.0314643,,3,3.0
Be2Ga2Y,0.0,-0.0143016,,3,3.0
La2Pt2Tl,0.0,-0.0609673,,3,3.0
As2SnCs2,1.309,-0.0309224,,3,3.0
BFe2Ga2Dy,0.0,-0.0211237999999999,,3,3.0
Br3Bi,2.9364,-0.0349369,,3,3.0
AgTlPb2,0.0,-0.0637763,,3,3.0
Al2Se4Eu,0.9801,-0.0227433,,3,3.0
O6MnRbI,1.6251,-0.0138743,,3,3.0
Cl6K2Tc,1.7579,-0.0126334,,3,3.0
Li2IrPb,0.0,-0.0381587,,3,3.0
Co2WIr,0.0,-0.0439581999999999,,3,3.0
Ca2AgHg,0.0,-0.0302285,,3,3.0
Al7Ag5,0.0,-0.0176645,,3,3.0
Al2YPd2,0.0,-0.0228124,,3,3.0
Si2CuNb2,0.0,-0.0208061,,3,3.0
ZnBaLa,0.0,-0.0322041,,3,3.0
S2CaAg2,1.3094,-0.0193384,,3,3.0
C2O6RbSm,4.7959,-0.0145986,,3,3.0
ZnSn2Tm6,0.0,-0.0445468,,3,3.0
SbTeAu2,0.0,-0.0533566999999999,,3,3.0
S2CuHg,0.0,-0.0258273,,3,3.0
LiO8Ti3V,0.5545,-0.012036,,3,3.0
MgPd4Nd,0.0,-0.0306777,,3,3.0
ZrTe4Hf,0.0,-0.0412955,,3,3.0
O6MoInBa2,0.0,-0.0209995,,3,3.0
Cr4FeCuSe8,0.0,-0.019829,,3,3.0
Al4Ag,0.0,-0.0125058,,3,3.0
Al3Si2CoSm3,0.0,-0.0222244,,3,3.0
Co2Ge2Eu,0.0,-0.0257758,,3,3.0
CsAuHg2,0.0,-0.0610503,,3,3.0
CoZn4,0.0,-0.0143027,,3,3.0
Li4KCa,0.0,-0.0045105,,3,3.0
F6NaMo,0.0,-0.0102715,,3,3.0
H12B12K3Br,5.5337,-0.0067846,,3,3.0
OBa3Bi,0.0,-0.0423108,,3,3.0
Ge3IrPu,0.0,-0.0481640999999999,,3,3.0
Fe4ZnTm,0.0,-0.0230121,,3,3.0
Sr2Pd3In,0.0,-0.0300679,,3,3.0
F6NaCaCs2,0.0,-0.0140436,,3,3.0
OCuSePr,2.0095,-0.0233308999999999,,3,3.0
Pd2CdTm3,0.0,-0.0427466,,3,3.0
PCrSe3,0.3695,-0.0182114,,3,3.0
CaBaBi,0.0,-0.0435341999999999,,3,3.0
O6V2Cu,0.9357,-0.0118712,,3,3.0
Mg2YDy,0.0,-0.0214934,,3,3.0
H5Sr2Rh,0.748,-0.0126311,,3,3.0
GaIn2Ir,0.4681,-0.0388498,,3,3.0
Rb2ITl2,0.0,-0.0452859,,3,3.0
MnCuI4,0.0,-0.0304718,,3,3.0
RuInEr,0.0,-0.0399917,,3,3.0
NaS2Pa,0.0,-0.0323378999999999,,3,3.0
Ni4YAu,0.0,-0.0273278,,3,3.0
AlGe2Ho2,0.0,-0.0295803,,3,3.0
S2ZrPb,0.0,-0.0327374,,3,3.0
O6NaTi2As,2.5983,-0.011988,,3,3.0
PdCdTb,0.0,-0.0374349,,3,3.0
ScZn2Ga,0.0,-0.0148262,,3,3.0
Ga2CeSm,0.0,-0.0310368,,3,3.0
Co3Ge2Sm,0.0,-0.0228718,,3,3.0
CuGeTb,0.0,-0.0277936,,3,3.0
Ba2Bi,0.0,-0.0534414,,3,3.0
Zn2CdNd,0.0,-0.0256348,,3,3.0
Rh2PbNp,0.0,-0.0626662,,3,3.0
LaAu2Pb,0.0,-0.0650902,,3,3.0
F6KCrRb2,3.8645,-0.0120851,,3,3.0
Mg3Dy,0.0,-0.0157493,,3,3.0
BCdHf3,0.0,-0.0454694,,3,3.0
YTe2Tl,0.6374,-0.0448541,,3,3.0
CaIn2,0.0,-0.026097,,3,3.0
Si2RhIn3Lu3,0.0,-0.0362603,,3,3.0
O6RbSnI,2.8462,-0.0156814,,3,3.0
O2FTeCs,3.1255,-0.0199516,,3,3.0
BeRuIr2,0.0,-0.0457344,,3,3.0
F7K3Th,6.7937,-0.0168749,,3,3.0
O6Sr2RhTm,0.0,-0.0193661,,3,3.0
Al2Ga2Rb,0.0,-0.013855,,3,3.0
Fe2Tm2Tl,0.0,-0.0426,,3,3.0
Hf3Os2Au,0.0,-0.0676368,,3,3.0
Sc2Ni2Sn,0.0,-0.0200078,,3,3.0
F6NaK2Mn,0.0,-0.009025,,3,3.0
Li2O8MgTi3,2.8066,-0.0107664,,3,3.0
O3CuLa,0.0,-0.0177003,,3,3.0
Rh2SbAc,0.0,-0.0496539,,3,3.0
Mn2ZnZr3,0.0,-0.0238646,,3,3.0
Al3Si2Ce3Au,0.0,-0.0280202999999999,,3,3.0
Pd5Nd,0.0,-0.0351431,,3,3.0
HOClPb,3.1947,-0.0245721,,3,3.0
Ga5SmPt,0.0,-0.0287362,,3,3.0
B4MoRu2,0.0,-0.0194887,,3,3.0
InIr2Th2,0.0,-0.0744407,,3,3.0
PdAg2Cd,0.0,-0.031601,,3,3.0
Sc3Pb5,0.0,-0.0530918,,3,3.0
ScBr3,3.4222,-0.0200658999999999,,3,3.0
F4SrPd,1.8511,-0.0143373,,3,3.0
C3N6Ti2,0.0,-0.0112762,,3,3.0
O4TiNp,1.0597,-0.0280517,,3,3.0
ZnBrDy,0.0,-0.0280792,,3,3.0
SiRhEr,0.0,-0.0325625,,3,3.0
Li6Ag7,0.0,-0.0181180999999999,,3,3.0
Si2CuNp,0.0,-0.0357177999999999,,3,3.0
CFe2Ge2Ho2,0.0,-0.0266915,,3,3.0
C2NiY,0.0,-0.0164866,,3,3.0
N2Ca2Ru,0.0,-0.0152893,,3,3.0
SiBr2Ba3,0.0,-0.0293812,,3,3.0
Li2ZnCd,0.0,-0.012456,,3,3.0
C2NiLa,0.0,-0.0201962,,3,3.0
Al2ScCu2,0.0,-0.012449,,3,3.0
GaGeHo,0.0,-0.0288283999999999,,3,3.0
Rh2TaIr,0.0,-0.0520434,,3,3.0
Rb2I2Hg,3.6674,-0.0378853,,3,3.0
O6AsSr2Y,4.3833,-0.0158815,,3,3.0
Mg2SbAc,0.0,-0.0347798,,3,3.0
Pd2TmPu,0.0,-0.0574233,,3,3.0
Fe3Ni2Tm,0.0,-0.0232886,,3,3.0
Zn2Rh2In,0.0,-0.025896,,3,3.0
SiP2,0.0,-0.0104171,,3,3.0
Ga5RhTh,0.0,-0.0308148,,3,3.0
CRh3Tl,0.0,-0.0366762,,3,3.0
STh,0.0,-0.0546891,,3,3.0
RhIr2Np,0.0,-0.071119,,3,3.0
Mg5Gd,0.0,-0.0139668,,3,3.0
Cu3SbTe4,0.0,-0.0290446,,3,3.0
C2ClLa2,0.0,-0.0240039,,3,3.0
N2Zr7Tl3,0.0,-0.0383683,,3,3.0
PI2Lu2,0.0,-0.0405034,,3,3.0
Si2Ga3PdDy3,0.0,-0.0280683,,3,3.0
Li2Si3La2,0.0,-0.0179595,,3,3.0
TiTaW2,0.0,-0.0555115,,3,3.0
Al3Ge2RhLu3,0.0,-0.0300016,,3,3.0
F6GaNp,0.0108,-0.0211941,,3,3.0
SeBr2Pt,0.6075,-0.0325795,,3,3.0
C4FeTb3,0.0,-0.0251386,,3,3.0
O2SmTl,2.0397,-0.0348071,,3,3.0
MgTiPt2,0.0,-0.041402,,3,3.0
Rh4SnTm,0.0,-0.0376454,,3,3.0
CSTb2,0.0599,-0.0297693,,3,3.0
GeSeEr,0.0,-0.0311533,,3,3.0
PScEr,0.0,-0.0261291,,3,3.0
AlSb2Ba6,0.0,-0.036191,,3,3.0
PCl3Cd3,2.381,-0.0188091,,3,3.0
NiTm2Ir2,0.0,-0.0533041,,3,3.0
LiY2Sn2,0.0,-0.0267288,,3,3.0
Si2In3Nd3Ir,0.0,-0.0365331,,3,3.0
Al3Y3RuSn2,0.0,-0.0245132,,3,3.0
Al2NiTh,0.0,-0.0324769,,3,3.0
O9As5Cs3,3.4289,-0.0174738,,3,3.0
PNiTc,0.0,-0.0210234999999999,,3,3.0
P2Cu4Er,0.0,-0.0193927,,3,3.0
NaPt2,0.0,-0.0486782,,3,3.0
MnRhSn,0.0,-0.0297504,,3,3.0
B2N3Mn2Er3,0.0,-0.0243798,,3,3.0
MgPmHg2,0.0,-0.0469909,,3,3.0
ZrNb2Hf,0.0,-0.0398314,,3,3.0
RhSn5Ba,0.0,-0.0365135,,3,3.0
ZnZr7,0.0,-0.0285839,,3,3.0
Cu2Y2Pb,0.0,-0.0329063999999999,,3,3.0
S6Ta2Ir,0.0,-0.0299831,,3,3.0
SiSLu,0.0,-0.0263765,,3,3.0
O8Cs3Sm,0.0,-0.0187101,,3,3.0
O6NiICs,1.8846,-0.0151493,,3,3.0
Zr2ReTl,0.0,-0.0515587,,3,3.0
SiMoRh2,0.0,-0.0286846,,3,3.0
Dy3Pt2Hg,0.0,-0.0598506,,3,3.0
CGeSm3,0.0,-0.0330074,,3,3.0
F7Al2Cs,7.7203,-0.0114768,,3,3.0
KSbEu,0.1803,-0.0339221,,3,3.0
Zn2Ga2La,0.0,-0.0212018,,3,3.0
P3Au,0.0,-0.0251358,,3,3.0
Be2TcW2,0.0,-0.0367973,,3,3.0