formula,bg,formation_energy,mp-id,fidelity,bg_category
F6NaInCs2,6.3922,-0.0164046999999999,,3,3.0
H3NiPr,0.0,-0.0144835,,3,3.0
S4VMo2,0.0,-0.0188608,,3,3.0
BRh3Hf,0.0,-0.0351468,,3,3.0
Si2CaZn,0.0,-0.01109,,3,3.0
O2CaEu,0.0,-0.0220657,,3,3.0
O4TbBi,0.8904,-0.0271758,,3,3.0
H2Zr2In,0.0,-0.0208867,,3,3.0
OInCs,1.3023,-0.0270433,,3,3.0
Se7Er5,0.0,-0.0347467,,3,3.0
NiDy3Pt2,0.0,-0.0510737,,3,3.0
MgAsPb2,0.0,-0.0443102,,3,3.0
Li2InBi,0.1668,-0.0296008,,3,3.0
LiCoRh2,0.0,-0.0219169,,3,3.0
Mg3Ir,0.0,-0.0219265,,3,3.0
SiTmIr,0.0,-0.0455713,,3,3.0
In2TlPb,0.0,-0.0536865,,3,3.0
KCu4Se4,0.0,-0.0169822,,3,3.0
Mg2CaAs2,1.5975,-0.0130851,,3,3.0
Sc3Mn,0.0,-0.0153358,,3,3.0
Ni2Hf2Pt,0.0,-0.0464319,,3,3.0
Ni4Mo,0.0,-0.0199422,,3,3.0
K2As2BaHg,0.0523,-0.0281748,,3,3.0
Fe4ZrSn,0.0,-0.0233688,,3,3.0
Sn2TmAu2,0.0,-0.0530055,,3,3.0
Al3Si2IrU3,0.0,-0.0476052,,3,3.0
NaPd2Ag2,0.0,-0.0265385,,3,3.0
LiCuBi,0.0,-0.0322673,,3,3.0
PdIn5Sm,0.0,-0.0354095,,3,3.0
AlCoPdHf,0.0,-0.0309076,,3,3.0
CGeTa3,0.0,-0.0463188999999999,,3,3.0
B2TiCo2,0.0,-0.0136762999999999,,3,3.0
S2BrHgBi,0.9203,-0.0374134,,3,3.0
F6KCs2Ho,7.4829,-0.0189896999999999,,3,3.0
CuSe2Tl,0.0,-0.0321778,,3,3.0
Al2CaY2,0.0,-0.0164952,,3,3.0
B4NbEu,0.0,-0.0198113,,3,3.0
Al2NiAu,0.0,-0.0258201,,3,3.0
Be4Os3,0.0,-0.0335548,,3,3.0
O5Sc2Se2Np2,0.3346,-0.031474,,3,3.0
Sc3Nb,0.0,-0.0188493,,3,3.0
Si2FeGd,0.0,-0.0247552999999999,,3,3.0
Cl3Hg,0.0,-0.0233114,,3,3.0
ScSnTa,0.0,-0.0393678,,3,3.0
Co4ZrSn,0.0,-0.0227916999999999,,3,3.0
O6Ca2InTa,4.2471,-0.0185988,,3,3.0
SiEr2,0.0,-0.03748,,3,3.0
K2As2SnTe6,0.101,-0.0291265,,3,3.0
BeSr2Ir,0.0,-0.0303539,,3,3.0
SbDyPt,0.1942,-0.05323,,3,3.0
O5Co2YBa,0.0,-0.0171389999999999,,3,3.0
K2CuSe2,0.0,-0.0152754,,3,3.0
CaRh2,0.0,-0.0262011,,3,3.0
N2TiPu,0.0,-0.0377068999999999,,3,3.0
CdLu2,0.0,-0.0472792999999999,,3,3.0
H3AlRu,0.0,-0.0108381,,3,3.0
Ga3SnBa,0.0,-0.0253771,,3,3.0
NaPS4Cd,3.3322,-0.0126411,,3,3.0
H3Ti3Au,0.0,-0.0188179,,3,3.0
O10F2NaMg2Si4K,5.9811,-0.0096969,,3,3.0
CaNiGa2,0.0,-0.0152018,,3,3.0
Tm6PtPb2,0.0,-0.059974,,3,3.0
O6NbBa2W,0.0,-0.0246904,,3,3.0
HoPb2Ac,0.0,-0.0734322999999999,,3,3.0
MgSb2Ba,0.0,-0.0306015,,3,3.0
Al2ScIr,0.0,-0.0262314,,3,3.0
CuYHg,0.0,-0.0375639,,3,3.0
Cu3Rh2Pr,0.0,-0.0263292,,3,3.0
YCd2Tm,0.0,-0.0355872,,3,3.0
Ti6CoTe2,0.0,-0.0213734,,3,3.0
O6Ca2NbTb,3.5449,-0.0169701999999999,,3,3.0
H4N2F2Si,6.2708,-0.0069065,,3,3.0
O12NiTe4,0.271,-0.0150779,,3,3.0
CoZn2Pd,0.0,-0.0195208,,3,3.0
Fe4SnLu,0.0,-0.0274165,,3,3.0
AlZnNd2,0.0,-0.0274745,,3,3.0
O3VHg,2.2758,-0.0227397999999999,,3,3.0
K2CuBr6In,0.0,-0.0193684,,3,3.0
O6TiBa2Bi,0.0,-0.0237036,,3,3.0
NbRh7,0.0,-0.0339405,,3,3.0
NdTbTl2,0.0,-0.0593374,,3,3.0
MgCuZn,0.0,-0.0114964,,3,3.0
H4SrRh,0.0,-0.0122126,,3,3.0
OF5NaK2Mn,2.1592,-0.0091349,,3,3.0
N2PdEu2,0.0,-0.0326998,,3,3.0
Ca3Ba,0.0,-0.0171017,,3,3.0
Br6PdCs2,0.8449,-0.0261653,,3,3.0
AlSiPu2,0.0,-0.0596527,,3,3.0
CSi2Pr2Ir2,0.0,-0.0378692,,3,3.0
TiGe2Pm,0.0,-0.0252226,,3,3.0
FeGaIr2,0.0,-0.0445375,,3,3.0
YPd2Sb,0.0,-0.0336095,,3,3.0
NCo2Se,0.0,-0.0159575,,3,3.0
O8Mo2CsTm,4.457,-0.0200943,,3,3.0
Sc2NiTl,0.0,-0.0297499,,3,3.0
Li2CaZn2,0.0,-0.0084725,,3,3.0
YPd2Pb,0.0,-0.0430808,,3,3.0
MgZn2Hf,0.0,-0.0238887,,3,3.0
BAl2Mn2Ho,0.0,-0.0185284,,3,3.0
Cl6Ca2Sr,6.1849,-0.012616,,3,3.0
LiK2Br6Pu,0.0,-0.0262971,,3,3.0
BeSiNd,0.0,-0.0199677,,3,3.0
CaSn3Au,0.0,-0.0377322,,3,3.0
Si4Sm3Ir4,0.0,-0.0427753,,3,3.0
BC2Sm2,0.0,-0.0238014,,3,3.0
BaPtTl2,0.0,-0.0641699,,3,3.0
YCd2Dy,0.0,-0.0345825,,3,3.0
Si3Zn6Ce2,0.0,-0.0186051,,3,3.0
TcRu2Ir,0.0,-0.0441353,,3,3.0
ZnRh2Tl,0.0,-0.0384773,,3,3.0
CuSbTh,0.0858,-0.0501263,,3,3.0
FeSe2Br6,1.1755,-0.0196522,,3,3.0
YLaPt2,0.0,-0.0542471,,3,3.0
Ag3Pu,0.0,-0.0508230999999999,,3,3.0
Pd2Cd2Pb,0.0,-0.0406995,,3,3.0
AgSb2Pu,0.0,-0.0543410999999999,,3,3.0
LaAuTl2,0.0,-0.0647821,,3,3.0
Sn2NdTl,0.0,-0.0474677,,3,3.0
Cu2DyEr,0.0,-0.0324538,,3,3.0
In5HoPt,0.0,-0.0414106,,3,3.0
Rb2PdTe2,0.7012,-0.0306834,,3,3.0
Lu2AuHg,0.0,-0.0629158,,3,3.0
GaCsHg3,0.0,-0.0519373,,3,3.0
Ni2Zn3U,0.0,-0.0295072,,3,3.0
Y2SbPt,0.0,-0.0421174,,3,3.0
TaAu8,0.0,-0.0688622,,3,3.0
Al2CuBa,0.0,-0.0178786999999999,,3,3.0
SiSnAc2,0.0,-0.0572163,,3,3.0
Al3Ho2Ir,0.0,-0.0329469,,3,3.0
LiSnI2,0.0,-0.0283895,,3,3.0
H5CoEu2,0.1102,-0.0182828,,3,3.0
PdPm2Tl,0.0,-0.0489367999999999,,3,3.0
NiAs2Y,0.0,-0.0220868,,3,3.0
CoGa2Th,0.0,-0.0369443,,3,3.0
Bi3U,0.0,-0.0846192,,3,3.0
CoNd2,0.0,-0.0347881,,3,3.0
PSTm,0.0896,-0.0256343999999999,,3,3.0
OLa3Pb,0.0,-0.0439515,,3,3.0
B4Rh2DyIr2,0.0,-0.0325722,,3,3.0
GaCd3,0.0,-0.026826,,3,3.0
Ni2Zn2As4Sr3,0.0,-0.0196036999999999,,3,3.0
RuSn2Dy6,0.0,-0.0443287,,3,3.0
NaS3CoZr,0.0,-0.0148529,,3,3.0
C2Hf3Tl,0.0,-0.0476476,,3,3.0
NiY2Rh,0.0,-0.0270935,,3,3.0
Ga2Br8Au,0.7346,-0.0240634,,3,3.0
F5As,5.4411,-0.0084169,,3,3.0
B2CaFe2,0.0,-0.0123832,,3,3.0
KBa2,0.0,-0.0290681,,3,3.0
SiSc2Ni,0.0,-0.0143679,,3,3.0
Mg3LaAu2,0.0,-0.0334413,,3,3.0
Al2CrGa,0.0,-0.0127285,,3,3.0
N4Ca4Zr,1.6336,-0.0131869,,3,3.0
O6Ba2DyTm,0.0,-0.0246368,,3,3.0
LiC2N3,5.0196,-0.0085471,,3,3.0
Te2CsTm,1.5235,-0.0425542999999999,,3,3.0
Al4PrOs,0.0,-0.0249664,,3,3.0
ClAu2Tl2,0.0,-0.0585964,,3,3.0
Ni2TaIr,0.0,-0.0430137,,3,3.0
Si2Zn2Eu,0.0,-0.0205364,,3,3.0
O6MgPr2Au,0.9144,-0.0222849,,3,3.0
HI2Tb,3.2061,-0.032238,,3,3.0
Ca2AgTl,0.0,-0.0312351,,3,3.0
SiPrHg,0.0,-0.0411516,,3,3.0
CaHgTl2,0.0,-0.0560043999999999,,3,3.0
Zn2Tm3Hg,0.0,-0.0423104,,3,3.0
NiGe2Sn3Tb3,0.0,-0.0342704,,3,3.0
AlMo2Re,0.0,-0.0373726,,3,3.0
Ca2SeIr,0.0,-0.0284927,,3,3.0
N3PZn2,3.0826,-0.0114714,,3,3.0
RhWIr,0.0,-0.0584357,,3,3.0
P4Ni2Sr,0.0,-0.0144552,,3,3.0
Li3OF5V,1.7704,-0.0079241,,3,3.0
AlClNd,0.0,-0.0211725,,3,3.0
P2NiPr,0.0,-0.0210898,,3,3.0
NaKTe2Hg,0.1601,-0.0318121,,3,3.0
LiScIn4,0.0,-0.0254063,,3,3.0
Mg2BaIr,0.0,-0.0304905,,3,3.0
Cl5K,2.9257,-0.0087599,,3,3.0
Ca3Ge2In3Ir,0.0,-0.0271127,,3,3.0
Cu2SrCd,0.0,-0.0208836,,3,3.0
LiO5SiV,2.2811,-0.0103198,,3,3.0
F7KLu2,7.1636,-0.0184548,,3,3.0
YSnTm,0.0,-0.0391756,,3,3.0
O3SrTa,0.0,-0.0246151,,3,3.0
OSnLa3,0.0,-0.0359957,,3,3.0
Li3Ga,0.0,-0.0060978,,3,3.0
N4Pu3,0.0,-0.0537102999999999,,3,3.0
HBr2U,0.0,-0.0374729,,3,3.0
FeSn4La2,0.0,-0.0360583,,3,3.0
NAlNb3,0.0,-0.0240080999999999,,3,3.0
CaYPd2,0.0,-0.0266088999999999,,3,3.0
F4CrRb,2.3432,-0.0120313,,3,3.0
CSi2Sr2Ru2,0.0,-0.0211581,,3,3.0
Cl4FeCo,0.7018,-0.012161,,3,3.0
Nd3Ir2Tl3,0.0,-0.0618408,,3,3.0
NaS4Cr2,0.0,-0.0122902,,3,3.0
Te3Ac,0.0,-0.0515114999999999,,3,3.0
NiSn6Dy2,0.0,-0.0368840999999999,,3,3.0
Mg2Al3S8Cr,2.2125,-0.0105566999999999,,3,3.0
AlCu2,0.0,-0.0130148,,3,3.0
Al4CrPu,0.0,-0.0267679,,3,3.0
Ca2Pd2Sb,0.0,-0.0252428,,3,3.0
F6NaMoTl2,1.5973,-0.0229150999999999,,3,3.0
KMnSe3Tb,0.8958,-0.0238987,,3,3.0
Cu5Mo,0.0,-0.0183892999999999,,3,3.0
CCl2Dy2,1.0771,-0.0260781,,3,3.0
CuAs,0.0,-0.0176805999999999,,3,3.0
BSc2Pd6,0.0,-0.026706,,3,3.0
Co2As2Th,0.0,-0.0349746,,3,3.0
ScGa4Hf2,0.0,-0.0298287,,3,3.0
O2RbRh,1.8447,-0.017991,,3,3.0
CuSn2Ba,0.0,-0.0320909,,3,3.0
N3RhCe,0.0,-0.0219341,,3,3.0
Cu5Ag4,0.0,-0.0222759,,3,3.0
CaRh2Ta,0.0,-0.0365219,,3,3.0
MnIr2Ac,0.0,-0.0632271,,3,3.0
GaDy2Pt2,0.0,-0.0517916999999999,,3,3.0
Al2MnOs,0.0,-0.0269912,,3,3.0
F2Ca2Se,3.2445,-0.0126662,,3,3.0
Al2Cl8Mn,3.3809,-0.0105314,,3,3.0
Si2PrPt,0.0,-0.0345512,,3,3.0
Si4Tm3Au4,0.0,-0.0437708,,3,3.0
CNb,0.0,-0.0221171,,3,3.0
Sc6CoTl2,0.0,-0.0278793,,3,3.0
F6GaRbTl2,5.0483,-0.0227841999999999,,3,3.0
Co2Zr3Cd,0.0,-0.0264723,,3,3.0
ZnTePt5,0.0,-0.0576952,,3,3.0
Rh8Au,0.0,-0.0376356,,3,3.0
BO4CaY,4.8974,-0.0134051,,3,3.0
BCuSe2,1.6883,-0.0158756,,3,3.0
LiSnTb,0.0,-0.0290915,,3,3.0
LiAs2LaPt2,0.0,-0.0388443,,3,3.0
GeI4,1.4206,-0.0334214,,3,3.0
Cl4Th,4.4212,-0.0279476,,3,3.0
NaSbAu2,0.0,-0.0451958,,3,3.0
Al3FeSn2La3,0.0,-0.0275061,,3,3.0
PrSmPb2,0.0,-0.0605524,,3,3.0
GaY2Rh,0.0,-0.027259,,3,3.0
Si7Ni3La3,0.0,-0.0198527999999999,,3,3.0
Si2Ti2Fe,0.0,-0.0147295,,3,3.0
FeSb3,0.0,-0.0324749,,3,3.0
CGe2Tb2W2,0.0,-0.0407137,,3,3.0
O9Nb5Ba2,0.0,-0.0215263999999999,,3,3.0
CoGa3Sn2Er3,0.0,-0.0327798,,3,3.0
Cu4GaLa,0.1673,-0.0202598999999999,,3,3.0
LiZr2Ru,0.0,-0.0250193,,3,3.0
Mn2Se3Cs,0.0,-0.0234079,,3,3.0
CoTc2,0.0,-0.0290906999999999,,3,3.0
LiErPb,0.0,-0.0435336,,3,3.0
PSr2Ag,0.6679,-0.0223442,,3,3.0
LiSeAu,1.8171,-0.0312893,,3,3.0
F6Rb2SnTl,0.0,-0.0195548,,3,3.0
Al3Ge2Lu3Ir,0.0,-0.0341867,,3,3.0
CaCu2Pt3,0.0,-0.0423647,,3,3.0
Si2DyAu2,0.0,-0.0419169,,3,3.0
F6PdHf,2.1622,-0.0176004,,3,3.0
Cu4SrIn,0.0,-0.0194803,,3,3.0
B3O6Pr,6.2616,-0.0133012,,3,3.0
NaSe2Lu,2.2508,-0.0268401,,3,3.0
H4Pd3Lu,0.0,-0.0212803,,3,3.0
Al3Ru2Pd,0.0,-0.0219337,,3,3.0
Si3Tb5,0.0,-0.0336978,,3,3.0
P2Cu2RbLu,0.0,-0.0220221,,3,3.0
ScMn2Ga5,0.0,-0.0169962,,3,3.0
CuCe2Ir2,0.0,-0.050038,,3,3.0
F6Rb2AgAu,0.0,-0.0182197,,3,3.0
O4GaTa,3.9756,-0.0206268,,3,3.0
O6ZrBa2Hf,3.865,-0.024638,,3,3.0
AlMn2Pa2,0.0,-0.0488606,,3,3.0
Si2YTc2,0.0,-0.0242605,,3,3.0
F6SrW,0.6862,-0.0172359,,3,3.0
H8Mg2BaIr,0.0,-0.0128336,,3,3.0
Al3Sn2Ce3Ir,0.0,-0.0340903,,3,3.0
DyAuBi2,0.0,-0.0691079,,3,3.0
SmOs,0.0,-0.0583924,,3,3.0
BeAs2Sn,0.8396,-0.0203875,,3,3.0
Si2CdHo2,0.0,-0.0303983,,3,3.0
AsBaTl2,0.0,-0.0517209999999999,,3,3.0
H12O6AlCl3,5.8889,-0.0063045,,3,3.0
CuSn2Tm6,0.0,-0.0447035,,3,3.0
S3Ni2Sn,0.0,-0.0165971,,3,3.0
AlScNi4,0.0,-0.0149685,,3,3.0
CaAg2Ba,0.0,-0.0282598999999999,,3,3.0
LiYCd2,0.0,-0.0231622999999999,,3,3.0
GePt2Th2,0.0,-0.0714735,,3,3.0
Cu2CdBa2,0.0,-0.0280299,,3,3.0
Al3Si2ZnHo3,0.0,-0.0232792,,3,3.0
Ca2PtTl,0.0,-0.0412656,,3,3.0
MgRe,0.0,-0.0380141,,3,3.0
Be2MgRh2,0.0,-0.0169983,,3,3.0
Sc2AsTl,0.0,-0.0312179,,3,3.0
Te2Er7Ir2,0.0,-0.0528053,,3,3.0
S3Sc4As,0.0,-0.0152235999999999,,3,3.0
Li2AlTl,0.0,-0.0214772,,3,3.0
P2Cd,1.681,-0.0172484,,3,3.0
O6CaLa2Bi,0.0,-0.0239395,,3,3.0
Zr2ReHg,0.0,-0.0505899,,3,3.0
LiCl6Cs2Tl,1.97,-0.0214806,,3,3.0
O4TbW,0.0,-0.0264818,,3,3.0
O4Ca3Sr,3.8273,-0.0126623,,3,3.0
Cl6Cs2Lu,0.0,-0.0219591,,3,3.0
RhBa2Pt,0.0,-0.0462842,,3,3.0
O12Ho5Re2,0.0599,-0.0275041,,3,3.0
K2RbHg,0.0,-0.0264454,,3,3.0
Si2Eu,0.0,-0.0250891,,3,3.0
Al4Sr,0.0,-0.0109109,,3,3.0
NBrLa2,0.0,-0.0304394,,3,3.0
SeBr7Hf3,0.4486,-0.0327082,,3,3.0
O4ClCu3BrBa2,0.0,-0.0177875,,3,3.0
Zn3SmAu2,0.0,-0.0378239,,3,3.0
SiFe3Tm2,0.0,-0.0283674,,3,3.0
AgPt2,0.0,-0.0572521,,3,3.0
FeGeTb,0.0,-0.0284966,,3,3.0
Mg2Y2In,0.0,-0.020094,,3,3.0
Ga4LuTa2,0.0,-0.036744,,3,3.0
O6NaSi2Mn,1.0707,-0.0107036,,3,3.0
CdSm2Tl,0.0,-0.0484483,,3,3.0
Cu2GeSe3,0.0,-0.0185503,,3,3.0
PRuU,0.0,-0.0502849999999999,,3,3.0
Mn7Fe,0.0,-0.0181286999999999,,3,3.0
Ca2SrLa,0.0,-0.0210967,,3,3.0
Cu2Eu,0.0,-0.0281508,,3,3.0
RuInTb,0.0,-0.0387789,,3,3.0
C2O6Na2Mn,0.0,-0.0092896,,3,3.0
MgGeIr2,0.0,-0.0419957,,3,3.0
Rh2WAu,0.0,-0.0517175,,3,3.0
O3ClInBa2,2.6194,-0.0224131,,3,3.0
OS2CeBi,0.0,-0.0315824,,3,3.0
O8CsLaW2,5.1071,-0.0251827,,3,3.0
PCa2Pt,0.0,-0.0261151,,3,3.0
KCu2Sb2,0.0,-0.0228797,,3,3.0
O4Ti2Mn,0.0,-0.0135941,,3,3.0
Ni2SrSb,0.0,-0.0234013,,3,3.0
LiPt4Pb,0.0,-0.0601616,,3,3.0
C3Sm2,0.0,-0.0241667,,3,3.0
MgErTl,0.0,-0.0430768,,3,3.0
Fe2SnTh,0.0,-0.0422933999999999,,3,3.0
SiCuAu5,0.0,-0.0530743999999999,,3,3.0
CaScAs,0.0,-0.0157851,,3,3.0
O6Ca2FePt,0.0,-0.0164924,,3,3.0
Ca2ZnSb2,0.2303,-0.0223446,,3,3.0
CaY2Ag,0.0,-0.0243164,,3,3.0
Ge2SrLa2,0.0,-0.0300596,,3,3.0
Li2GeEu,0.0,-0.0198506,,3,3.0
H2ZnTc2,0.0,-0.0179911,,3,3.0
F6ZnTb,0.0,-0.0131958,,3,3.0
Rh8W,0.0,-0.0379156,,3,3.0
GeIr,0.0,-0.0455073999999999,,3,3.0
Fe3Lu2Ir,0.0,-0.0398326,,3,3.0
LiRhHg2,0.0,-0.0433331,,3,3.0
CuZr2La,0.0,-0.0299645,,3,3.0
Si2LaIr2,0.0,-0.0422508,,3,3.0
V2Ru,0.0,-0.0236865,,3,3.0
F6EuEr,0.0,-0.0196364,,3,3.0
LiO4Mg3,0.0,-0.0078354,,3,3.0
Ca5Ga5Pb,0.0,-0.0193008,,3,3.0
PdHf6Bi2,0.0,-0.0632471,,3,3.0
NaCd2Sb2,0.0,-0.0280843,,3,3.0
SCl2Ag2Cd,1.4599,-0.0203719,,3,3.0
KNi2As2La,0.0,-0.0214225,,3,3.0
ZnSb2La,0.0,-0.0335146,,3,3.0
CoSe6Br2,0.5186,-0.0197882,,3,3.0
O6Tb2W,2.5202,-0.025535,,3,3.0
F6Cs2Tb,0.0,-0.0192085,,3,3.0
GaRu2,0.0,-0.0288274,,3,3.0
ClCa2Sb,0.5503,-0.017771,,3,3.0
AlTaOs,0.0,-0.0492827,,3,3.0
TiMnAs,0.0,-0.0190036,,3,3.0
Zn2Ga5La,0.0,-0.0192824999999999,,3,3.0
F6ScBa,0.0,-0.0129412,,3,3.0
O4CaAsAg,1.6601,-0.0141426,,3,3.0
N3MoNp,0.0,-0.0347322,,3,3.0
Ge2In3La3Au,0.0,-0.0382447999999999,,3,3.0
SrIn3Hg,0.0,-0.0385881,,3,3.0
Se3Pr2,0.8838,-0.031488,,3,3.0
Li6O5FFe,1.1786,-0.0072186,,3,3.0
MnGa3Ge2Y3,0.0,-0.0217399,,3,3.0
GaTl3,0.0,-0.0582284,,3,3.0
Cl6KCs2Nd,5.6996,-0.0199203,,3,3.0
AlGeRb,0.0,-0.0160781999999999,,3,3.0
B2YRu3,0.0,-0.0250782,,3,3.0
O4SRb2,6.0026,-0.0129771,,3,3.0
GaTcHf,0.0,-0.0385881,,3,3.0
BPdTa,0.0,-0.0362404999999999,,3,3.0
Na2PIr2,0.0,-0.032546,,3,3.0
Ge2SmPt3,0.0,-0.0497718,,3,3.0
Si2Cu2U,0.0,-0.0310253,,3,3.0
CGe2Ru2Nd2,0.0,-0.0300765,,3,3.0
MgPd2Ce2,0.0,-0.0325538,,3,3.0
BeSiMo2,0.0,-0.0212959,,3,3.0
Al5Pd2Gd,0.0,-0.0211863999999999,,3,3.0
Co2Nb2Au,0.0,-0.0341412,,3,3.0
ZnZr2Hg,0.0,-0.0361142,,3,3.0
LiRh2Sb2Th,0.0,-0.040889,,3,3.0
S4CrBr,0.0,-0.0130266,,3,3.0
Ga5NdOs,0.0,-0.0286666,,3,3.0
H2Sc2Pt,0.0,-0.022161,,3,3.0
SiRh3Lu2,0.0,-0.0381668,,3,3.0
CAlLu3,0.0,-0.0373468999999999,,3,3.0
CrRu3,0.0,-0.0306923,,3,3.0
Si2ScRe4,0.0,-0.045908,,3,3.0
CaCuSe3Sm,1.1727,-0.0232712,,3,3.0
Cu2Sr2Sn,0.0,-0.0225170999999999,,3,3.0
GePd2U2,0.0,-0.0587131,,3,3.0
P3KCd4,0.2107,-0.0204167,,3,3.0
O7Cr2Tb2,1.2245,-0.0187609,,3,3.0
LiScSe2,1.38,-0.0160011,,3,3.0
F6Rb2Os,0.0,-0.0173734,,3,3.0
Al4CaSm,0.0,-0.0146163,,3,3.0
ScNi2Au,0.0,-0.0294952,,3,3.0
CuRu2Ta,0.0,-0.0380433,,3,3.0
CuGeAsZr,0.0,-0.0219734,,3,3.0
C3NAl5,1.8136,-0.0092127,,3,3.0
CoZr2Pd,0.0,-0.0283594,,3,3.0
Sc2CdSn2,0.0,-0.0266737,,3,3.0
I3Ho,3.1863,-0.0413177,,3,3.0
AlScZr,0.0,-0.0178787999999999,,3,3.0
BCCuNp,0.0,-0.0349644,,3,3.0
LiF4Nd,8.5809,-0.013999,,3,3.0
AlLu,0.0,-0.0319671,,3,3.0
I6Cs2Hf,2.3968,-0.0412332,,3,3.0
Cu2As2Hf,0.0,-0.0271556,,3,3.0
Mn2RuOs,0.0,-0.0360233,,3,3.0
Li2O8Fe3Sb,1.1997,-0.0122241,,3,3.0
Tm6IrPb2,0.0,-0.0600379,,3,3.0
BCo2Ga2Sr,0.0,-0.016469,,3,3.0
O6Sr2InIr,0.0,-0.0206639,,3,3.0
SBrNp,0.0,-0.0467162999999999,,3,3.0
O2Cl4Cs2Pa,0.5556,-0.0267502,,3,3.0
Li2PdIn,0.0,-0.0182877,,3,3.0
Pd2In2Tl,0.0,-0.0412634,,3,3.0
F6SiCu,0.0,-0.0085115,,3,3.0
PCl2Eu2,0.0,-0.0287952,,3,3.0
P2Cu2Th,0.0588,-0.0302349,,3,3.0
Co3Nb,0.0,-0.0212415,,3,3.0
LiO6MoPr2,0.0,-0.019084,,3,3.0
Li3N6O12Co,2.8788,-0.0078221,,3,3.0
LiNaBrI,4.9712,-0.0172205,,3,3.0
Al2Au2Pb,0.0,-0.0463279,,3,3.0
SbCs2Pt,0.0,-0.0462744,,3,3.0
CuInLa2,0.0,-0.0340996,,3,3.0
H6K2InTl,0.0,-0.0143331,,3,3.0
N3SmPt,1.359,-0.0290871,,3,3.0
PGdPt,0.0,-0.0479951,,3,3.0
Sc6RhSn2,0.0,-0.0219313,,3,3.0
K2Pt3Tl,0.0,-0.0501852,,3,3.0
Li5Ca3,0.0,-0.0050713999999999,,3,3.0
Ga2ISm2,0.0,-0.0326548,,3,3.0
H3ErOs,0.0,-0.0270361,,3,3.0
O7AgLaTa2,1.4845,-0.0257059,,3,3.0
Sc2La3,0.0,-0.0314759,,3,3.0
Y2Os,0.0,-0.0428725,,3,3.0
Be2P2Cs,0.0,-0.0138764,,3,3.0
CGeDy3,0.0,-0.035175,,3,3.0
HLi2F,5.655,-0.0047031999999999,,3,3.0
O8Ti3Zn2,2.6271,-0.0123788,,3,3.0
ScCo8,0.0,-0.0169601,,3,3.0
Ga4Nb2Ho,0.0,-0.0263920999999999,,3,3.0
O4SeAg2,0.5399,-0.0159388,,3,3.0
Li2AsAu2,0.0,-0.0330998,,3,3.0
Al2EuIr2,0.0,-0.0432372,,3,3.0
Ag4HgTl,0.0,-0.0442148,,3,3.0
Rh2Pt,0.0,-0.0459452,,3,3.0
BNNiY,0.0,-0.0164539,,3,3.0
Si2NiY,0.0,-0.0169058999999999,,3,3.0
MoOs3,0.0,-0.0626804,,3,3.0
LiEu2Tl,0.0,-0.045878,,3,3.0
PNiSe3,0.3135,-0.0176022,,3,3.0
Br3SbPu3,0.0,-0.0618198,,3,3.0
AsRuPd,0.0,-0.0295292999999999,,3,3.0
KSe3CdPr,2.3346,-0.0252433,,3,3.0
AlMoTc2,0.0,-0.0285551,,3,3.0
YAg,0.0,-0.0300258,,3,3.0
Zn3Br3Sb,0.8313,-0.0200431999999999,,3,3.0
Mg2MnGa3,0.0,-0.0131458999999999,,3,3.0
MgPCa3,0.0,-0.0094369,,3,3.0
NbOs2Pt,0.0,-0.0621691999999999,,3,3.0
H4TiV,0.0,-0.00828,,3,3.0
Ti3Os2Au,0.0,-0.0442646,,3,3.0
B2CCu2Tb,0.0,-0.0173851,,3,3.0
HZr3Hg,0.0,-0.0331556,,3,3.0
Mg2CoSn,0.0,-0.0158793,,3,3.0
TcIr3,0.0,-0.0622955,,3,3.0
S2InHo,1.2812,-0.0269809,,3,3.0
CuGa3,0.0,-0.0160127999999999,,3,3.0
LiBa5,0.0,-0.0333282,,3,3.0
RuPdLa2,0.0,-0.0389281,,3,3.0
Fe4NiZr,0.0,-0.019984,,3,3.0
H4Na4PdPt,0.0,-0.0137232,,3,3.0
GaCdEr2,0.0,-0.0373982,,3,3.0
AlWOs,0.0,-0.0500940999999999,,3,3.0
Ni3Zn2Tb,0.0,-0.0207714,,3,3.0
Al2CaTc,0.0,-0.0153733,,3,3.0
As2YAg,0.0,-0.0257693,,3,3.0
I2Tm2Bi,0.0,-0.0523005,,3,3.0
Li2O8NiW2,2.1962,-0.0183877,,3,3.0
F5SbPb,4.9076,-0.021082,,3,3.0
O6CoSm2Pt,1.0935,-0.0237589,,3,3.0
La3Ce,0.0,-0.0433956999999999,,3,3.0
PCuPu,0.0,-0.0458613,,3,3.0
NO5LaPb,2.3348,-0.0215651,,3,3.0
S3KScNi,0.0,-0.0127177,,3,3.0
Mg2BaAc,0.0,-0.0350187,,3,3.0
Ca2HgBi2,0.0,-0.0496389,,3,3.0
S2AsCs,1.6579,-0.0201071,,3,3.0
Cu4Th,0.0,-0.0314173,,3,3.0
CdNdPb,0.0,-0.0504833,,3,3.0
H8N3K,2.9521,-0.0057153,,3,3.0
NaZnSr2,0.0,-0.0155785,,3,3.0
HSiHf2,0.0,-0.0354527,,3,3.0
Sc7Sb,0.0,-0.0173243,,3,3.0
Sc2Ru,0.0,-0.0216781,,3,3.0
Al9SiMn3,0.0,-0.0106096,,3,3.0
Li3Ir2,0.0,-0.0301263,,3,3.0
Co2Pr4Tl5,0.0,-0.0521158,,3,3.0
NaSn2Sb2,0.0,-0.0302681,,3,3.0
B2TiW,0.0,-0.0259259999999999,,3,3.0
Al2PmTh,0.0,-0.0390908,,3,3.0
MgPPd5,0.0,-0.026241,,3,3.0
N2ScTi,0.0,-0.0143049,,3,3.0
O3ClTiSm,3.641,-0.017899,,3,3.0
OHf3,0.0,-0.0500467999999999,,3,3.0
OBr4CsTa,2.5342,-0.0286245,,3,3.0
HLiO5AlP,6.627,-0.0087416,,3,3.0
Li4OF4Ni,0.1951,-0.0073429,,3,3.0
CaNi4Pb,0.0,-0.0250647,,3,3.0
MgCa2Ni2,0.0,-0.0114472,,3,3.0
KAg2Sb,0.0,-0.0272837,,3,3.0
Fe5La,0.0,-0.0221783,,3,3.0
B2O6CdPb,1.6246,-0.01772,,3,3.0
Ga3Er2,0.0,-0.0306545999999999,,3,3.0
Ga3Ge2RhPr3,0.0,-0.0287457,,3,3.0
P2NiSe6,0.2222,-0.017629,,3,3.0
AsCsPb,0.5801,-0.0450171,,3,3.0
P2Co2Y,0.0,-0.0176927999999999,,3,3.0
YTbPb2,0.0,-0.0572231,,3,3.0
Ti2CrNi,0.0,-0.0168746,,3,3.0
Ti3Pd,0.0,-0.0206421,,3,3.0
LiF3Ag,0.865,-0.0108581,,3,3.0
Sn2Sm,0.0,-0.0394796,,3,3.0
NaAlCa2,0.0,-0.0079097,,3,3.0
AsTlPb2,0.0,-0.060993,,3,3.0
KBr3Pr,0.0,-0.0238855,,3,3.0
Mg4In3,0.0,-0.0172601,,3,3.0
BYPt2,0.0,-0.0451268,,3,3.0
MnOs2U,0.0,-0.0665280999999999,,3,3.0
MgKIn2,0.0,-0.020215,,3,3.0
ZnIn2Pr,0.0,-0.0313748,,3,3.0
CdPr3,0.0,-0.0402716,,3,3.0
LiGa3,0.0,-0.0130707,,3,3.0
P4Ca3Cu2Zn2,0.1996,-0.0125336,,3,3.0
Al3FeSm2,0.0,-0.0221227,,3,3.0
Li3O6Mg2As,4.3341,-0.0085754,,3,3.0
O6SI2,2.1471,-0.0141652,,3,3.0
Sc2CoTl,0.0,-0.02997,,3,3.0
H3CuHf,0.0,-0.0179317,,3,3.0
Na2GeBa,0.0,-0.0170244,,3,3.0
TbPtBi,0.0,-0.0664614,,3,3.0
NO3Al3,4.9317,-0.010157,,3,3.0
LiNiPt2,0.0,-0.0401648,,3,3.0
Al3Tb,0.0,-0.0179664,,3,3.0
Cl6BrICs2,1.0067,-0.0189338,,3,3.0
Pt3Pa,0.0,-0.0786608999999999,,3,3.0
Li2SiS4Ge,2.4039,-0.0099833,,3,3.0
Al6NiPr,0.0,-0.0137047,,3,3.0
Ni2Ho3Pb3,0.0,-0.051389,,3,3.0
PNiSr,0.0,-0.0172024,,3,3.0
CaGa5Ir,0.0,-0.0237383,,3,3.0
MgZnAg,0.0,-0.0167896,,3,3.0
O6CoI2,1.4408,-0.0148229,,3,3.0
O2Rb2,2.2783,-0.01465,,3,3.0
C5Ti4W,0.0,-0.0191793,,3,3.0
CaRh2Ce,0.0,-0.0310244,,3,3.0
Al2Cu2Tm,0.0,-0.0200269,,3,3.0
Cl2AsLa2,0.0,-0.026689,,3,3.0
Mg2CoSm,0.0,-0.0179729,,3,3.0
Ti2Co2Pd,0.0,-0.0202485,,3,3.0
CuPd2Dy2,0.0,-0.0360423,,3,3.0
Zn2MoRu,0.0,-0.0242283,,3,3.0
MgSc2Sb2,0.0,-0.0223377,,3,3.0
GeAgPr2,0.0,-0.0348468,,3,3.0
Ru2TbPu,0.0,-0.0568484,,3,3.0
LiSrCd2,0.0,-0.0216993,,3,3.0
InLaAu2,0.0,-0.0545637,,3,3.0
HLiO10P3V,0.9439,-0.0096272,,3,3.0
S4Cu3Ta,2.0861,-0.0195335999999999,,3,3.0
SeI3Cs,0.0,-0.034314,,3,3.0
SbCeIr,0.0237,-0.0519885,,3,3.0
RhBaHg3,0.0,-0.0559521,,3,3.0
MgGe2Sm2,0.0,-0.0272648,,3,3.0
Li3Zn2,0.0,-0.0069256,,3,3.0
S3TiPdTl,0.0,-0.0258988,,3,3.0
SiGd2Os3,0.0,-0.0576477,,3,3.0
O7Ni2As2,1.7694,-0.0118946,,3,3.0
TiTm6Bi2,0.0,-0.0542027,,3,3.0
F4KIn,5.0948,-0.0121391,,3,3.0
LiTe2U,0.0,-0.0459086,,3,3.0
ZnAsAu5,0.0,-0.0542331999999999,,3,3.0
NClSc2,0.0,-0.0133001,,3,3.0
Zr2MoOs,0.0,-0.0423949,,3,3.0
Al8Cu4Pr,0.0,-0.0131645,,3,3.0
B3Mn2,0.0,-0.0121929999999999,,3,3.0
CaAs2Hg2,0.0,-0.0377100999999999,,3,3.0
Na2GaAu,0.0,-0.0237674999999999,,3,3.0
Zn3Th,0.0,-0.0344292999999999,,3,3.0
Pd2AgTl,0.0,-0.042472,,3,3.0
CSi2Cr2Y2,0.0,-0.0181088999999999,,3,3.0
O9Mn2Ba3Ir,0.0741,-0.0211737,,3,3.0
O12Si4CaMn2,0.9298,-0.0113228,,3,3.0
O6Ba2HoRe,0.0,-0.0265595,,3,3.0
HBrRb2,3.9252,-0.0171214,,3,3.0
Se2InEr,0.8565,-0.032392,,3,3.0
CrInTe2,0.0,-0.0319173,,3,3.0
Y3Ru2Pt,0.0,-0.0379986999999999,,3,3.0
N6Ce3Ta2,0.0,-0.0309318,,3,3.0
Si4CuHf2,0.0,-0.0263040999999999,,3,3.0
O4SnTh,3.4309,-0.0290195,,3,3.0
O8P2W,2.4701,-0.01504,,3,3.0
LiScAg2,0.0,-0.0200689,,3,3.0
Mg2NdEr,0.0,-0.0260588,,3,3.0
ClCuAs2,0.3288,-0.0161055999999999,,3,3.0
Co3Sn4,0.0,-0.0278596,,3,3.0
B2Mn2Y,0.0,-0.0162386,,3,3.0
Al2IrAu,0.0,-0.0397597,,3,3.0
GaNd2Pt2,0.0,-0.0500019,,3,3.0
O6FeTaPb2,0.0,-0.0292439,,3,3.0
Al6Fe6Pr,0.0,-0.0156467,,3,3.0
Ru2Pr4Tl5,0.0,-0.0553583,,3,3.0