formula,bg,formation_energy,mp-id,fidelity,bg_category
KCdSb,0.1422,-0.0258179,,3,3.0
O5Se2La2Ta2,0.0,-0.0292067,,3,3.0
MoRhRe2,0.0,-0.0527725,,3,3.0
CMgTm2,0.0,-0.0300192,,3,3.0
Li2GaPb,0.0,-0.0245635,,3,3.0
PTiRh5,0.0,-0.0286514,,3,3.0
Al3Si2RuNd3,0.0,-0.0239351999999999,,3,3.0
AlSnCe,0.0,-0.0299569,,3,3.0
PS4Ag2Cs,1.6686,-0.0192376,,3,3.0
HSeNp,0.0,-0.0443207,,3,3.0
As2Rh2Ba,0.0,-0.030463,,3,3.0
Sc3CoGa3Ge2,0.0,-0.0171011999999999,,3,3.0
CZr,0.0,-0.0213916,,3,3.0
Te2CsAu3,1.8661,-0.0537726,,3,3.0
Ge2Y2Pd,0.0,-0.0263395,,3,3.0
Ni3Tb2,0.0,-0.0288415,,3,3.0
S2K3Pd,0.0,-0.0137894,,3,3.0
CCr2Rh2,0.0,-0.0229849,,3,3.0
Al5Ir2Pu,0.0,-0.0371124,,3,3.0
Ru2TbLu,0.0,-0.043427,,3,3.0
CoPdHf2,0.0,-0.0443966,,3,3.0
H6K2Os,0.0,-0.0121543,,3,3.0
OAsCdNp,0.0,-0.0422515,,3,3.0
O4PFe,2.1124,-0.0110598,,3,3.0
ONa2Sb2Hf2,0.0,-0.0318553,,3,3.0
MoHf2Ir,0.0,-0.0586026,,3,3.0
Al3Pd2Ce,0.0,-0.0231559,,3,3.0
MnNi2U,0.0,-0.038639,,3,3.0
N3NiPr,0.0,-0.018063,,3,3.0
PdTb2Os,0.0,-0.0501858,,3,3.0
ZrPrBi,0.0,-0.0515768,,3,3.0
GaIPr,0.0,-0.0333698,,3,3.0
SrNdAu2,0.0,-0.0519629,,3,3.0
K2CaBr4,4.6533,-0.0169151,,3,3.0
ScTeI,0.7926,-0.0307659,,3,3.0
CePt8,0.0,-0.0677587,,3,3.0
Ge2Tm,0.0,-0.0306572,,3,3.0
CaBaHg2,0.0,-0.0470272,,3,3.0
FAg2,0.0,-0.0228995,,3,3.0
S3Ta,0.0,-0.0247028,,3,3.0
LiNi2Sn,0.0,-0.0178961,,3,3.0
Li3Al,0.0,-0.0038461,,3,3.0
AlSi3V12,0.0,-0.0158755,,3,3.0
Si2IrPu,0.0,-0.0510109,,3,3.0
MgZn2Rh2,0.0,-0.0202992,,3,3.0
Pd4SmHg,0.0,-0.0412984,,3,3.0
CrFe2Ir,0.0,-0.0316717,,3,3.0
Al4Sn2Lu3,0.0,-0.0303464,,3,3.0
Se2NbBi,0.0,-0.0385316,,3,3.0
Ca2GaIr2,0.0,-0.0362752,,3,3.0
BrSr2Pb,0.0,-0.0362377,,3,3.0
O6MgSi2Ni,3.3925,-0.0105774,,3,3.0
ZnAgCe,0.0,-0.0301154,,3,3.0
O8TiNi4Ge,1.9478,-0.0125786,,3,3.0
K2CsHg2,0.0,-0.0383801,,3,3.0
ZnZr3Rh2,0.0,-0.0295778,,3,3.0
AgTe2,0.0,-0.0353082,,3,3.0
H2CuPt,0.0,-0.0229972,,3,3.0
Y6WBi2,0.0,-0.0442194999999999,,3,3.0
RuRh2Er3,0.0,-0.0431454,,3,3.0
O4PrGd,0.0,-0.0240572,,3,3.0
O4SrBa3,2.3928,-0.0234788,,3,3.0
LiPd2Bi2,0.0,-0.0453299,,3,3.0
SSnU,0.0,-0.0505,,3,3.0
LiLu2Pt,0.0,-0.0467285,,3,3.0
TiZnRh2,0.0,-0.0251652999999999,,3,3.0
As2Se4Pb,0.3687,-0.0282712,,3,3.0
Br4Ta,1.2634,-0.029835,,3,3.0
Mn2ZnHf3,0.0,-0.0399314,,3,3.0
CuGe2Th,0.0,-0.037878,,3,3.0
CoCd2La,0.0,-0.0304554,,3,3.0
Te4Dy5,0.0,-0.0442635,,3,3.0
Mg2CaGd,0.0,-0.0196489,,3,3.0
RhNd3,0.0,-0.0415856,,3,3.0
Pd2BaPb2,0.0,-0.0519342,,3,3.0
H6MnY2,0.0,-0.0111385,,3,3.0
Co2Ta2Pt,0.0,-0.0480113,,3,3.0
LiAlZnPd,0.0,-0.01474,,3,3.0
NaFe4As4Ba,0.0,-0.0200496,,3,3.0
Ga3PrPt2,0.0,-0.0397128,,3,3.0
Co2Ga3,0.0,-0.016926,,3,3.0
F6AlIn,6.128,-0.0110578,,3,3.0
Pd2SnEr,0.0,-0.0389089,,3,3.0
Al3Nd2,0.0,-0.0225187,,3,3.0
AgSmTl2,0.0,-0.0554099999999999,,3,3.0
Cu2SbTe,0.0,-0.0262266,,3,3.0
Rh2Sn3Sm3,0.0,-0.0394614,,3,3.0
MgGaBa,0.0,-0.0205987,,3,3.0
Sn2Te4Ba,0.0,-0.0378219,,3,3.0
Ag2Ho2Tl,0.0,-0.047015,,3,3.0
Al4CaAu,0.0,-0.0188194,,3,3.0
CTm2Bi,0.0,-0.0488329,,3,3.0
F6NaP,8.2876,-0.0073781,,3,3.0
F6GaDy,7.4562,-0.0142464,,3,3.0
CaGaAg,0.0,-0.0196007,,3,3.0
O3NiNd,0.0,-0.0182353,,3,3.0
H2O,5.8873,-0.0054281,,3,3.0
Si3ScCo,0.0,-0.0128975,,3,3.0
Li15O12Cr2,0.0486,-0.0071655,,3,3.0
H3ClPu2,0.0,-0.0403886,,3,3.0
LiO4RbMo,5.0404,-0.0141745,,3,3.0
LiO4FSNi,2.9493,-0.0090289,,3,3.0
Se3Pt2Hg,0.0,-0.045237,,3,3.0
F6K2Sr,1.9238,-0.0093557,,3,3.0
LaTmHg2,0.0,-0.0584902999999999,,3,3.0
BaLuPb,0.0,-0.0574399,,3,3.0
Cl6Cs2W,0.0,-0.0230492,,3,3.0
Ni2As2Ce,0.0,-0.0243193,,3,3.0
Cl3V,0.0,-0.0118485,,3,3.0
Al2Ag,0.0,-0.0157283,,3,3.0
CaAsPr,0.0,-0.0254406,,3,3.0
Si4Co2Pt,0.0,-0.0211731,,3,3.0
S3KMnNi,0.0,-0.0128184,,3,3.0
S4Ag2SnTm,0.0,-0.0244891,,3,3.0
KSn2Te2,0.0,-0.0313433,,3,3.0
LiCl6TiCs2,0.0,-0.0162603,,3,3.0
Li2Ga2Sn,0.0,-0.0149223999999999,,3,3.0
Al2NiZr,0.0,-0.0163088,,3,3.0
Al7Hf,0.0,-0.0147697,,3,3.0
Ru2NdPa,0.0,-0.0537681,,3,3.0
ZrIn2Hg,0.0,-0.0417376,,3,3.0
P2Ni2Rb,0.0,-0.0153567,,3,3.0
Si2PbTh2,0.0,-0.0580071999999999,,3,3.0
FNa3Au,0.0,-0.018362,,3,3.0
SiGeNb6,0.0,-0.0288502,,3,3.0
LiScBr6Cs2,3.444,-0.0228704,,3,3.0
MgCeAu2,0.0,-0.0478142,,3,3.0
O3MnY,0.0,-0.0160064,,3,3.0
Li3FSe,4.8045,-0.0082099,,3,3.0
SnTeNp,0.0,-0.0603698,,3,3.0
F3BrSbCs,4.24,-0.0198429,,3,3.0
CSi2Ru2Th2,0.0,-0.0423915999999999,,3,3.0
K2PdSb,0.0,-0.0221094,,3,3.0
Sc3Pt2,0.0,-0.037931,,3,3.0
F6VRbCs2,0.0,-0.0166529999999999,,3,3.0
Cl2InCs,2.7832,-0.0231681,,3,3.0
CoSe3CsDy,0.0,-0.0286042,,3,3.0
P2KCaCu2,0.0,-0.0122154,,3,3.0
CrGa2Nb6,0.0,-0.0279548,,3,3.0
NaCdAu2,0.0,-0.0435313,,3,3.0
O2NaCe,0.1049,-0.0181986,,3,3.0
CaAsNd,0.0,-0.0255156,,3,3.0
Ge2Sr3PdIn3,0.0,-0.0270885,,3,3.0
SiCuHf,0.0,-0.0299343,,3,3.0
TcW8,0.0,-0.0658254,,3,3.0
O8AgHoW2,2.1812,-0.0248513,,3,3.0
SrPd3Cd2,0.0,-0.0307713,,3,3.0
NiZr3Os2,0.0,-0.0426208,,3,3.0
CuBrSr2,0.0,-0.0206438,,3,3.0
Cu5Ir,0.0,-0.0244557,,3,3.0
O6PdLa2Pt,1.1621,-0.0249127,,3,3.0
KCaCd4,0.0,-0.023484,,3,3.0
AlTaIr,0.0,-0.0492550999999999,,3,3.0
OClAc,4.734,-0.0383994,,3,3.0
Al3In2Ho3Au,0.0,-0.034737,,3,3.0
Li6S4Cu,0.0,-0.0074016,,3,3.0
Ni2Sn2Pr,0.0,-0.0300832,,3,3.0
CSi2Mo2Sm,0.0,-0.0245195,,3,3.0
B2O6CrSn,0.4493,-0.012896,,3,3.0
H2Ca2Pb,0.0,-0.0211226999999999,,3,3.0
Li5N3Co3,0.0,-0.0086074,,3,3.0
Cu3Sn,0.0,-0.0203493,,3,3.0
PdIn2Pt,0.0,-0.0429368,,3,3.0
LiMgRh2,0.0,-0.0190326,,3,3.0
AsAgBa,0.1218,-0.0312671,,3,3.0
CrNi4,0.0,-0.0165653,,3,3.0
AlPt2Pu,0.0,-0.0655295,,3,3.0
O5Na6Pb,1.624,-0.0124449,,3,3.0
SPu,0.0,-0.0614041,,3,3.0
Li2ScHg,0.0,-0.0221434,,3,3.0
Ag3Sm,0.0,-0.0348531,,3,3.0
Ga3Gd,0.0,-0.0275125999999999,,3,3.0
NaK3Br,0.0,-0.0104372,,3,3.0
CGe2Ru2Pr2,0.0,-0.0299888,,3,3.0
CSi2Ca2Fe2,0.0,-0.0125845,,3,3.0
Sm3Ir,0.0,-0.0516852,,3,3.0
H6CrTb2,0.2878,-0.0153259,,3,3.0
B2O6Hg3,2.8737,-0.0247188,,3,3.0
MgRh4Dy,0.0,-0.0319192,,3,3.0
In2Sn2Ba,0.0,-0.0360539,,3,3.0
LiSc7,0.0,-0.0126,,3,3.0
Cd2ErPt,0.0,-0.0460979,,3,3.0
AlPFe,0.0,-0.0124628,,3,3.0
MgAgIn,0.0,-0.0234071,,3,3.0
NCl3Tm2,2.3991,-0.0252283,,3,3.0
AlVRu2,0.0,-0.0245679,,3,3.0
F6MnPt,0.9043,-0.0157747,,3,3.0
I2Sm2Pb,0.0059,-0.048906,,3,3.0
BNCoEr,0.0,-0.0223272,,3,3.0
Ni2SrIn5,0.0,-0.0280088,,3,3.0
Ni2Cu2As4Sr3,0.0,-0.0198829,,3,3.0
O6MgSb2,1.8034,-0.0149452,,3,3.0
Mg2ZnPd2,0.0,-0.0184137999999999,,3,3.0
MnNiGa,0.0,-0.0173444,,3,3.0
AgLaAu2,0.0,-0.0539329,,3,3.0
Zr4Re3,0.0,-0.048368,,3,3.0
KInSn,0.0,-0.02623,,3,3.0
Ni2GaSe3,0.0,-0.0184777,,3,3.0
O4K2Mo,4.7636,-0.0132202,,3,3.0
OFS4La2Bi2,0.0,-0.0311601,,3,3.0
PLa2Bi,0.0,-0.0452176,,3,3.0
O4TiCs3,0.0,-0.0214149,,3,3.0
In5GdIr,0.0,-0.0428796,,3,3.0
Na3LuBi2,0.0,-0.0380002,,3,3.0
Na6NiSn2,0.0,-0.0126831,,3,3.0
SiNi2Th,0.0,-0.035238,,3,3.0
O6Ba2GdW,0.0,-0.0275406,,3,3.0
N2YNp,0.0,-0.0398698,,3,3.0
FeHf,0.0,-0.040704,,3,3.0
AlPd2Pm,0.0,-0.0303162999999999,,3,3.0
Al4SrIr,0.0,-0.0214067,,3,3.0
Si2EuPt2,0.0,-0.0439934,,3,3.0
AsCdPb,0.0,-0.042091,,3,3.0
SeRb2I6,0.7781,-0.0320649,,3,3.0
HSbLa3,0.0,-0.0347129,,3,3.0
Si2Sc3Cu4,0.0,-0.0142903,,3,3.0
LiMgGaAu,0.0,-0.0238582,,3,3.0
Mg2S8Sc3Ti,0.0031,-0.0123348,,3,3.0
Si2Ru3Pr,0.0,-0.0286776,,3,3.0
Ge2PrPt,0.0,-0.0390058999999999,,3,3.0
SiCo3Ho2,0.0,-0.0270279,,3,3.0
PRbIr,0.0,-0.0346988,,3,3.0
SiGaNd,0.0,-0.0240902,,3,3.0
Li3O8Cr3Fe,0.0,-0.0109856,,3,3.0
Cl6CuInCs2,0.0003,-0.0187519,,3,3.0
Mn5Rh3,0.0,-0.0245898,,3,3.0
B2N3Mn2Th3,0.0,-0.0378665,,3,3.0
PCeLu,0.0,-0.0378808,,3,3.0
Li2F6Ge,6.9255,-0.0079154,,3,3.0
KNi2As2Tm,0.0,-0.0228792,,3,3.0
Ga2YAu,0.0,-0.0332777999999999,,3,3.0
Ga2YAu2,0.0,-0.0405927,,3,3.0
Sc2MnGe2,0.0,-0.0177634,,3,3.0
CsPb3,0.0,-0.0665205,,3,3.0
FeRuPu2,0.0,-0.0681981,,3,3.0
Fe4TcRu,0.0,-0.0236233,,3,3.0
In3Hf3Ir2,0.0,-0.0545561,,3,3.0
F6Rb2AgPr,2.8043,-0.0167669,,3,3.0
HfAu2,0.0,-0.0677586,,3,3.0
S4Cu6Pb,0.0,-0.0188578,,3,3.0
Mg2CaAg,0.0,-0.0130258,,3,3.0
Ge3Sm,0.0,-0.0259317,,3,3.0
Li2AlSn,0.0,-0.0123452,,3,3.0
As2GdAu,0.0,-0.0429152,,3,3.0
O5K3I,1.8413,-0.0115965,,3,3.0
O2IHgBi,1.7817,-0.0398821,,3,3.0
NiInTe2,0.0,-0.0312137,,3,3.0
LiCl4Ir,1.9197,-0.0186265,,3,3.0
O2NaCr,2.416,-0.0111498,,3,3.0
Co2Sn2Nd,0.0,-0.0302742,,3,3.0
CaNi4Sr,0.0,-0.0161037999999999,,3,3.0
AlPt2Th,0.0,-0.0623925,,3,3.0
O3GeEu,0.0,-0.0207229,,3,3.0
Al2Zn2Er,0.0,-0.0190423,,3,3.0
PdCePb,0.0,-0.0518359,,3,3.0
LiSnHo,0.0,-0.0298175,,3,3.0
RhAg2Lu,0.0,-0.0384706,,3,3.0
Si2Ru2Tm,0.0,-0.0292899,,3,3.0
MgPRu,0.0,-0.0174356,,3,3.0
CdLaAu2,0.0,-0.053768,,3,3.0
LiMn2Ge2,0.0,-0.0156478,,3,3.0
BNPdGd,0.0,-0.0282483,,3,3.0
ZrNbTe4,0.0,-0.0361332,,3,3.0
KCd2Hg,0.0,-0.0344455,,3,3.0
RuIn2,0.0,-0.0339909,,3,3.0
Al3NiY3Sn2,0.0,-0.0223768,,3,3.0
Li2Zn2Ge2Sr,0.0,-0.0135755,,3,3.0
Li2Si2La,0.0,-0.0141056,,3,3.0
SrSn6Au,0.0,-0.0385434,,3,3.0
Cu5Sb,0.0,-0.0188069999999999,,3,3.0
H5Sr2Ir,0.7702,-0.0173336,,3,3.0
Gd2IrPt,0.0,-0.0657737,,3,3.0
Mg2LaLu,0.0,-0.0271777,,3,3.0
ScZr2Sn2,0.0,-0.030137,,3,3.0
In7Ir5,0.0,-0.049253,,3,3.0
Co2ZnRu,0.0,-0.0205964,,3,3.0
KAu4Hg,0.0,-0.0590848,,3,3.0
Cl3CaRb,5.9483,-0.0133703,,3,3.0
Ag2Sn2Ba,0.0,-0.035279,,3,3.0
GeSe4Sr2,2.005,-0.0220365,,3,3.0
RhTbTl2,0.0,-0.0567537,,3,3.0
ScCu2Pd,0.0,-0.0197427,,3,3.0
SiNi3Zr2,0.0,-0.0206428,,3,3.0
As2Pd2Tb,0.0,-0.0314586,,3,3.0
Be2MnRu2,0.0,-0.0197871999999999,,3,3.0
Ca2NiAs2,0.0,-0.0161011,,3,3.0
NCo3Ga,0.0,-0.0156049,,3,3.0
O8Mn2Sr3Pr,0.0,-0.0169975,,3,3.0
GeAgLa,0.0,-0.0319354,,3,3.0
CSi2Dy2Ir2,0.0,-0.0392043,,3,3.0
AlTi2Mn,0.1018,-0.0149265,,3,3.0
H3ScCu,0.0,-0.0084086,,3,3.0
O7CoCu2Ba2Pr,0.0,-0.0185514,,3,3.0
Sc5Ir,0.0,-0.0241575,,3,3.0
CdSnCe2,0.0,-0.0393472999999999,,3,3.0
O2Cs2Pt,1.3889,-0.0327576,,3,3.0
CCl2U2,0.0,-0.047545,,3,3.0
Se3HfTl2,0.5854,-0.045578,,3,3.0
LiCuTe,1.4105,-0.0187882,,3,3.0
MnNb2Re,0.0,-0.0391395,,3,3.0
ZnTaIr2,0.0,-0.0562564,,3,3.0
Ga5GeBa5,0.0,-0.0276613,,3,3.0
Ga5CeIr,0.0,-0.0288710999999999,,3,3.0
Ga2Pd4Ho3,0.0,-0.0354711,,3,3.0
NaTlPb,0.0,-0.0509912,,3,3.0
Rh4Os5,0.0,-0.0548811,,3,3.0
Ti6NiSn2,0.0,-0.0208572,,3,3.0
HLiO4S,6.7907,-0.0074822,,3,3.0
Si2ScCo3,0.0,-0.0149868,,3,3.0
AlGeTe3,1.1935,-0.0279822,,3,3.0
Si3ZnSr2,0.0,-0.0151598,,3,3.0
LaHg2Th,0.0,-0.0693147,,3,3.0
CSi2Cr2Np2,0.0,-0.0401577,,3,3.0
S3Pt2,0.0,-0.0342887,,3,3.0
GeHfPt2,0.0,-0.0565632,,3,3.0
Ni4CuCd,0.0,-0.0182296,,3,3.0
B4Tm2Ir5,0.0,-0.0453296,,3,3.0
Si3CaOs,0.0,-0.0227412,,3,3.0
Rh3Np,0.0,-0.0524512,,3,3.0
Ge2AgTb,0.0,-0.0295619,,3,3.0
Na2ZnSn2,0.0,-0.018978,,3,3.0
RhDy,0.0,-0.0417834,,3,3.0
ScCu4Pb,0.0,-0.0252577,,3,3.0
O2K2RbRh,1.3929,-0.0150126,,3,3.0
Al2CaAu3,0.0,-0.0395326,,3,3.0
GeRh2Er,0.0,-0.0351756,,3,3.0
O3Pr2,4.2443,-0.0246978,,3,3.0
Cu2GaZr2,0.0,-0.0220371,,3,3.0
CdBaTl2,0.0,-0.054076,,3,3.0
O8KMo2Sm,3.6342,-0.0169969,,3,3.0
Hg3Tl,0.0,-0.0692436,,3,3.0
GeRh2U,0.0,-0.0481079,,3,3.0
CGe2Dy2Re2,0.0,-0.0414643,,3,3.0
Na2Cd2Cs,0.0,-0.0214491,,3,3.0
GaPdDy,0.0,-0.0333226,,3,3.0
Ga2InHf2,0.0,-0.0387186,,3,3.0
Sr2Rh2In,0.0,-0.029594,,3,3.0
LiTaAu2,0.0,-0.0522307,,3,3.0
S3SbBa,0.0,-0.0221536,,3,3.0
MgZn2Ga2,0.0,-0.0130371,,3,3.0
Co3Ge2Ce,0.0,-0.0228237999999999,,3,3.0
LiZn2Ir,0.0,-0.0255185,,3,3.0
PRhPa,0.0,-0.049186,,3,3.0
BaAu2Hg,0.0,-0.0621264,,3,3.0
Al3Si2CrGd3,0.0,-0.0270547,,3,3.0
Al5CrEr,0.0,-0.0156424,,3,3.0
O8RbMo2Nd,4.4813,-0.0179084,,3,3.0
Na3Tl,0.0,-0.0214021,,3,3.0
O6SrBi2,1.5526,-0.0254665,,3,3.0
Co2CuHo3,0.0,-0.0330613,,3,3.0
CuTaIr2,0.0,-0.0565390999999999,,3,3.0
H5NO,5.3368,-0.0053476,,3,3.0
O4Al2Ni,1.2623,-0.0108102,,3,3.0
SiMo,0.0,-0.0228162,,3,3.0
H8FeZn2Pr,0.0,-0.0098614,,3,3.0
CaY2Ru,0.0,-0.0253113999999999,,3,3.0
PdTe2Cs2,1.2731,-0.0375399,,3,3.0
LiO2Zn,0.0,-0.0085714,,3,3.0
H2Tb,0.0,-0.0186793,,3,3.0
H6NiY2,0.1181,-0.0108235,,3,3.0
IrTh,0.0,-0.0846658,,3,3.0
N2ODyTa,1.3539,-0.0300123999999999,,3,3.0
SnNd3,0.0,-0.0421978,,3,3.0
Si2ZnY2,0.0,-0.0185749,,3,3.0
Li2O8P2Mo,0.6057,-0.0108722,,3,3.0
Si3TiTb,0.0,-0.0191733,,3,3.0
NaIn2Au,0.0,-0.0354624,,3,3.0
LiPd2Gd,0.0,-0.0323228999999999,,3,3.0
LiAlCa,0.0,-0.0066983,,3,3.0
KTe3HoHg,0.9303,-0.0406109,,3,3.0
BeK4Sb2,1.474,-0.0164676,,3,3.0
In5PrIr,0.0,-0.0407135,,3,3.0
B6Ni2U,0.0,-0.0203851,,3,3.0
B6Ni2Gd,0.0,-0.0154834,,3,3.0
Ge2Cd2Eu,0.0,-0.0309149999999999,,3,3.0
CuCd2Pt,0.0,-0.0367432,,3,3.0
F6CoU,0.1142,-0.0208578,,3,3.0
Zr4Cd,0.0,-0.0307142,,3,3.0
Ni5Pt6,0.0,-0.0457624,,3,3.0
Ti2Ni2Hf,0.0,-0.0257549,,3,3.0
Cu2SrIn,0.0,-0.0217419,,3,3.0
NSc3Rh,0.0,-0.018449,,3,3.0
Al3Si2Y3Ru,0.0,-0.0187987,,3,3.0
Y2RuPt,0.0,-0.0411375,,3,3.0
Se3Sn,0.0,-0.0241646,,3,3.0
NOIn2Th6,0.0,-0.0667934999999999,,3,3.0
CrNi2Re,0.0,-0.0304439,,3,3.0
Al4CoGe2Gd2,0.0,-0.0233423,,3,3.0
Zr2NbOs,0.0,-0.0418602,,3,3.0
Si2SmRe4,0.0,-0.0503242,,3,3.0
CaRh2Sb,0.0,-0.0292234,,3,3.0
LiCdPb2,0.0,-0.0462572,,3,3.0
AlSbTa,0.0,-0.0373458,,3,3.0
SiICe,0.0,-0.0315234,,3,3.0
Cu4InLu,0.0,-0.0252663,,3,3.0
SiRhPd2,0.0,-0.0278794,,3,3.0
As4Ru6Tb,0.0,-0.0311644,,3,3.0
NbSb,0.0,-0.0355051,,3,3.0
BeYIr,0.0,-0.0352494,,3,3.0
Co2Y3,0.0,-0.0236182,,3,3.0
Nb2Ru2Sn,0.0,-0.0345801,,3,3.0
HNCa,1.9422,-0.0084179999999999,,3,3.0
CrCuSe3Tl,0.0,-0.0282254,,3,3.0
Cu4Dy,0.0,-0.0218578,,3,3.0
Al3CuBa,0.0,-0.0158321,,3,3.0
P2ScY,0.0,-0.0174693,,3,3.0
Si2ZrRu2,0.0,-0.024973,,3,3.0
CuGe2Dy,0.0,-0.0258972,,3,3.0
OCuTm3,0.0,-0.0368343,,3,3.0
ZnPt2Pu2,0.0,-0.0754555,,3,3.0
LiO4Cu2,0.0,-0.009162,,3,3.0
O6KIPb,1.938,-0.0184217,,3,3.0
ZnAu2Pa,0.0,-0.0632938,,3,3.0
BrRhPr,0.0,-0.0335647,,3,3.0
C6YLa2,0.0,-0.0197181,,3,3.0
Ni4Ga4Tm3,0.0,-0.0265789,,3,3.0
H2MgNi,0.0,-0.0072317,,3,3.0
MgGa3Ge2Y3,0.0,-0.0201971,,3,3.0
B2V2Cr,0.0,-0.0143847,,3,3.0
B2RhTa,0.0,-0.0293545,,3,3.0
RbCsHg2,0.0,-0.0489712,,3,3.0
LiCl6K2In,3.5909,-0.0118329,,3,3.0
F6Na2Pa,0.0005,-0.0179326,,3,3.0
ZnCdNd,0.0,-0.0296069999999999,,3,3.0
S6As2Rb2Pb,0.346,-0.0201962,,3,3.0
Cl6KNbCs2,0.0,-0.0184105,,3,3.0
MgInPm2,0.0,-0.0320141,,3,3.0
Al3Si2CdTb3,0.0,-0.0243454,,3,3.0
SbTe3Lu4,0.0,-0.0474983999999999,,3,3.0
Be5Ru,0.0,-0.0097007,,3,3.0
H4Ti2Ir,0.0,-0.0172374,,3,3.0
NaCaBa2,0.0,-0.0231755999999999,,3,3.0
MgGeDy,0.0,-0.0246169,,3,3.0
NiDy2Ir2,0.0,-0.0516357,,3,3.0
KCuIn2,0.0,-0.0226926,,3,3.0
H4NCl,5.8773,-0.0058428,,3,3.0
VCoSb,0.0,-0.0242377,,3,3.0
Li2CsBi2,0.0,-0.0403734,,3,3.0
ZrMo2,0.0,-0.0336387,,3,3.0
O4Na2W,5.581,-0.0170288,,3,3.0
PdSnHo,0.0,-0.0402746,,3,3.0
NZrI,1.6172,-0.0272147,,3,3.0
Rb3Bi2,0.0,-0.0442793,,3,3.0
P3AsMo2,0.0,-0.0206595,,3,3.0
CrGa5Pr,0.0,-0.0208649999999999,,3,3.0
Ni2RuLa,0.0,-0.0277512,,3,3.0
MgGa2Lu2,0.0,-0.0302677,,3,3.0
BCo6Zr2,0.0,-0.0194666,,3,3.0
Al7Ni2Lu3,0.0,-0.0216509,,3,3.0
Mg2GeSe4,2.3422,-0.0165441,,3,3.0
Ni2Zn3In,0.0,-0.0178197,,3,3.0
Al2YAu2,0.0,-0.0373526,,3,3.0
CuGa2Pu,0.0,-0.0396978,,3,3.0
CSnDy3,0.0,-0.0386265,,3,3.0
CaCu4Au,0.0,-0.0235006,,3,3.0
GeSrSm,0.0,-0.0292039,,3,3.0
Be3As2,0.0,-0.0106812,,3,3.0
O6Ba2OsPu,0.0,-0.0323992,,3,3.0
Al3Si2RhTh3,0.0,-0.0412494,,3,3.0
InI2,0.0,-0.0360471999999999,,3,3.0
LaNdHg2,0.0,-0.0564461,,3,3.0
Al3ReTh2,0.0,-0.0481237,,3,3.0
Be2NbW2,0.0,-0.0363759,,3,3.0
AgTe3BaHo,0.8468,-0.0399922,,3,3.0
CaAuBi,0.0,-0.0533823999999999,,3,3.0
ZnPdLa,0.0,-0.0305507,,3,3.0
YNbRu2,0.0,-0.0330197999999999,,3,3.0
B2Ca3Pt7,0.0,-0.0456015,,3,3.0
Rb2Ag3In,0.0,-0.028238,,3,3.0
B4O9SiCs2,5.2764,-0.0134172999999999,,3,3.0
Ba2Bi3,0.0,-0.0638344,,3,3.0
H6NO5PMn,2.655,-0.0078586,,3,3.0
As2Rh2Gd,0.0,-0.0343788,,3,3.0
CoTe2Tb6,0.0,-0.0420786,,3,3.0
B2Fe2Co,0.0,-0.0139633,,3,3.0
Al3Si2CuHo3,0.0,-0.0235193,,3,3.0
SSbPr,0.0,-0.0317602,,3,3.0
O4Cu2As2Te2Tm,0.0,-0.0215841999999999,,3,3.0
O6ClKAs4,3.8923,-0.0126567,,3,3.0
NZr3Hf,0.0,-0.0336261,,3,3.0
LiP2Rh2Er,0.0,-0.0246468,,3,3.0
GaGeTh,0.0,-0.0443943,,3,3.0
H5CuEu2,0.0,-0.0179188,,3,3.0
In4Bi,0.0,-0.0423173,,3,3.0
Rh2Dy,0.0,-0.0392988,,3,3.0
Sn3La2Pb3,0.0,-0.0532765,,3,3.0
AsRbCs2,0.2336,-0.0295304,,3,3.0
TiRbAgTe3,0.0,-0.0307369999999999,,3,3.0
BNNiSr,0.0,-0.0146522,,3,3.0
BeCo,0.0,-0.0111058,,3,3.0
GeRhGd,0.0,-0.0381764,,3,3.0
Sc2CoZr,0.0,-0.0192821,,3,3.0
Ge6Ir4Th,0.0335,-0.045563,,3,3.0
Br3SnSm3,0.0,-0.0339617999999999,,3,3.0
Al5Ca5Sn,0.0,-0.0115926,,3,3.0
Zn2HfPt2,0.0,-0.0468388,,3,3.0
NaK3,0.0,-0.0072874,,3,3.0
FeAsTe,0.214,-0.0252943,,3,3.0
SiSeU,0.0,-0.04516,,3,3.0
S8Os3,0.0,-0.0269272999999999,,3,3.0
P2La6Pt,0.0,-0.0398847,,3,3.0
N2La2Pt,0.0055,-0.0364973,,3,3.0
O6TiNiLa2,2.2215,-0.0188418,,3,3.0
Ga3Ge2Pr3Pt,0.0,-0.0328402,,3,3.0
F6RuLa,0.7955,-0.0154298,,3,3.0
HRb3Cd,0.0,-0.0192729,,3,3.0
O3NaNi2,0.0,-0.0106153999999999,,3,3.0
Sc2Sn,0.0,-0.0221269999999999,,3,3.0
LiZn2Pd,0.0,-0.0160219,,3,3.0
CoGaZrRu,0.0,-0.0253453,,3,3.0
OSCuTm,1.9328,-0.0229990999999999,,3,3.0
LiBa3Pt,0.0,-0.0386669,,3,3.0
Mg3Ga3Ge2Pd,0.0,-0.015335,,3,3.0
FeGaSm,0.0,-0.0266342,,3,3.0
BrSrTe2,0.0,-0.030371,,3,3.0
N2ZnBa2,0.5982,-0.0228323,,3,3.0
MnGeTe4Cs2,0.4843,-0.0334666,,3,3.0
NiRh2Tb3,0.0,-0.0380968,,3,3.0
TiGeRh,0.0,-0.0238764,,3,3.0
Co2Se4Rh,0.0,-0.0215915,,3,3.0
Ag4Sm,0.0,-0.0341937,,3,3.0
Al3La2Os,0.0,-0.0307963999999999,,3,3.0
NaTbTl2,0.0,-0.049338,,3,3.0
CrFe3Er2,0.0,-0.0289134,,3,3.0
Cl4SnEu,0.3115,-0.0220204,,3,3.0
BSc3Pb,0.0,-0.0258671,,3,3.0
PdSn2Pu,0.0,-0.0540123,,3,3.0
C2Zr3,0.0,-0.0233033,,3,3.0
RbTe3Au,0.3367,-0.0408265,,3,3.0
Be2SnHf2,0.0,-0.0343329999999999,,3,3.0
PCoW,0.0,-0.0327902,,3,3.0
Li2PAg,0.6783,-0.0121286,,3,3.0
SnDy2Au2,0.0,-0.0550345,,3,3.0
O3AlTm,6.7092,-0.0193951999999999,,3,3.0
H6RhPu2,0.0,-0.0307936,,3,3.0
O6TiBa2Hf,2.7811,-0.0230526,,3,3.0
Ga4ZrHf2,0.0,-0.0321972,,3,3.0
O6Si2Sb,0.0,-0.0128642,,3,3.0
MgAl3Co2,0.0,-0.0108488,,3,3.0
AlSrIr,0.0,-0.0343886,,3,3.0
Al2CdEr2,0.0,-0.0297846,,3,3.0
Ni2ZrCd,0.0,-0.023646,,3,3.0
Si2Ag2Ce,0.0,-0.0258966,,3,3.0
AlZrIr2,0.0,-0.0463082,,3,3.0
Li4O12ZrNbTe2,0.0,-0.0133026999999999,,3,3.0
Cu2Se4Rh,0.0,-0.0209405,,3,3.0
Si2KZn2,0.0,-0.0110756,,3,3.0
S4K2SnHg,2.0162,-0.0207465,,3,3.0
Si2HoPt2,0.0,-0.0431647999999999,,3,3.0
MnGeAg2Te4,0.0,-0.0313113999999999,,3,3.0
Sc2Te3,0.0076,-0.0293973,,3,3.0
CoGa2Pd,0.0,-0.0210523,,3,3.0
Cr4ReOs,0.0,-0.0360823,,3,3.0
Se2I2Er,1.3627,-0.0339029,,3,3.0
NTm,0.3918,-0.0327066,,3,3.0
Si2ScPt,0.0,-0.0271138,,3,3.0
TiGeAu,0.0,-0.0352568,,3,3.0
Ag3In2Eu,0.0,-0.0359976,,3,3.0
Ga2Rh2Pr,0.0,-0.0296284,,3,3.0
SiNi3Nb2,0.0,-0.0213193,,3,3.0
RbAg2In2,0.0,-0.0301199,,3,3.0
SiDyPt2,0.0,-0.0509029,,3,3.0
H3C3O6La,4.6526,-0.0108994,,3,3.0
As2AuTh,0.0,-0.0522,,3,3.0
Al3Ge2IrU3,0.0,-0.0496258,,3,3.0
Al3Si2PdLa3,0.0,-0.0235733,,3,3.0
H3BeK,3.1749,-0.0047913,,3,3.0
Ru2PbTh2,0.0,-0.0680151,,3,3.0
O6ScBa2Gd,0.0,-0.0219346999999999,,3,3.0
O9MgSr3Ta2,3.7558,-0.0207081,,3,3.0
Al3RhDy2,0.0,-0.0262552,,3,3.0
Cl4Y,3.2679,-0.0139366,,3,3.0
Cu2RuHf3,0.0,-0.0426251,,3,3.0
S4CoGa2,1.2616,-0.0133479,,3,3.0
As2Pd2Gd,0.0,-0.0338341,,3,3.0
MgSc,0.0,-0.0096615,,3,3.0
Cl2Sc2Se,0.0,-0.0148858999999999,,3,3.0
SiFe3Hf2,0.0,-0.0321841,,3,3.0
WIr4,0.0,-0.0710357,,3,3.0
H2Fe2Ge,0.0,-0.0123068,,3,3.0
F6PCu,0.9772,-0.0081165,,3,3.0
SiTbOs,0.0,-0.0436655,,3,3.0
O6MnSr2Re,0.0,-0.0196054,,3,3.0
InAu2Ac,0.0,-0.0663501,,3,3.0
In2Sn2Tl,0.0,-0.042155,,3,3.0
LiK2Ag3,0.0,-0.0188409,,3,3.0
Ti2LaPt2,0.0,-0.0442387999999999,,3,3.0
AgCdIn,0.0,-0.0317217,,3,3.0
CuSnPt2,0.0,-0.0482173,,3,3.0
ZnSrI,0.0,-0.0251718,,3,3.0
InNd2Pb,0.0,-0.0497467,,3,3.0
P2Ir2Tl,0.0,-0.047476,,3,3.0
PBr2Tb2,0.0,-0.0305375,,3,3.0
O2SeDy2,2.4483,-0.0290699,,3,3.0
NiZn2Tb,0.0,-0.022951,,3,3.0
O3SePd,1.3974,-0.0150462,,3,3.0
Y2AgPt2,0.0,-0.0466374,,3,3.0
CoNiW,0.0,-0.0343039,,3,3.0
TiMnRu2,0.0,-0.0265728,,3,3.0
SSe2U,0.0,-0.0392899,,3,3.0
Y2Rh3Sn,0.0,-0.0330542999999999,,3,3.0
Cl3CrTl,0.0,-0.0242081,,3,3.0
ZnBaPt2,0.0,-0.0490827999999999,,3,3.0
O6KTeBaBi,1.7753,-0.0219093,,3,3.0
AlSc2Os2,0.0,-0.0365838,,3,3.0
TmIr3,0.0,-0.067008,,3,3.0
SiAg2Gd,0.0,-0.0332294,,3,3.0
LiB3,0.0221,-0.0064527,,3,3.0
O2Zr3,0.0,-0.0232293999999999,,3,3.0
Cl6KRb2Tb,5.5079,-0.0167754,,3,3.0
Al3RuPu2,0.0,-0.0467305,,3,3.0
InIr2Ac,0.0,-0.0669188999999999,,3,3.0
Cl7Sc3Se,3.0545,-0.0130587,,3,3.0
AlGaInSb3,0.3315,-0.028375,,3,3.0
Si2Sc2Ir,0.0,-0.0250443,,3,3.0
CrTcRh2,0.0,-0.0304073999999999,,3,3.0
B4Ca2Pt5,0.0,-0.0370401999999999,,3,3.0
Cl8Y2Ba,4.3914,-0.0170731,,3,3.0
GaLu,0.0,-0.0365510999999999,,3,3.0
In4NdIr,0.0,-0.0419115,,3,3.0
MnRuIr2,0.0,-0.0490942999999999,,3,3.0
SePd5Cd,0.0,-0.0309408,,3,3.0
AsSe3Er4,0.0,-0.0371017,,3,3.0
GeZr2Pt2,0.0,-0.0453423,,3,3.0
RhPm2Ir,0.0,-0.0490069999999999,,3,3.0
S3CuSbPb,0.8137,-0.0265601,,3,3.0
O2K2Rh,0.0,-0.0137574,,3,3.0
O6Si2CaV,1.3239,-0.0114921,,3,3.0
SiYAg,0.0,-0.0237386,,3,3.0
Sc3Pb,0.0,-0.0300737999999999,,3,3.0
LaPt3Au2,0.0,-0.0660719,,3,3.0
LiPPr,0.0,-0.0198512,,3,3.0
O7Rb2Nb2Ba,1.8173,-0.0186728,,3,3.0
AuHg2,0.0,-0.0684753999999999,,3,3.0
Zn4Pr,0.0,-0.0198855,,3,3.0