formula,bg,formation_energy,mp-id,fidelity,bg_category
Mg2HoIr,0.0,-0.0331214,,3,3.0
Al3CoPr2,0.0,-0.0215977,,3,3.0
Rh2SnTb,0.0,-0.0384062,,3,3.0
NaCr2As2,0.0,-0.016479,,3,3.0
PBa2Pt,0.0,-0.0409183,,3,3.0
Ga4DyPt,0.0,-0.0313382,,3,3.0
MgBrI,3.9207,-0.0217780999999999,,3,3.0
HYTe2,0.4407,-0.0273927,,3,3.0
Co4Pr,0.0,-0.0224452,,3,3.0
LiNiEr2,0.0,-0.0299930999999999,,3,3.0
NiSn2Ho,0.0,-0.0347887,,3,3.0
CdPt2Th,0.0,-0.0676581999999999,,3,3.0
O7CaRbTa2,0.0,-0.0216575,,3,3.0
O4Cu2Se2DyBi2,0.0,-0.0287737,,3,3.0
NiSrSn,0.0,-0.0252377,,3,3.0
Ga5SrAg2,0.0,-0.0210833,,3,3.0
Si3NiSm,0.0,-0.0188258,,3,3.0
PdPtAu,0.0,-0.0573737,,3,3.0
Ru3Dy2,0.0,-0.0403524,,3,3.0
Al2RhTh6,0.0,-0.0697942,,3,3.0
KCd2Hg2,0.0,-0.0413093999999999,,3,3.0
Se2CsLa,2.5669,-0.032332,,3,3.0
V2MoRe,0.0,-0.0356067,,3,3.0
Na2PtBi,0.0,-0.0396561999999999,,3,3.0
Se2RbLa,2.6069,-0.0280651,,3,3.0
Sm3Os,0.0,-0.0515415,,3,3.0
SiY2In,0.0,-0.0255177,,3,3.0
CaPd2Tl2,0.0,-0.0443507,,3,3.0
Cl2AsIr,2.2716,-0.0274087,,3,3.0
V3Re,0.0,-0.0312441,,3,3.0
S3Ag2Pb,0.0579,-0.0280026,,3,3.0
LiTe2Ho,1.0463,-0.0328909,,3,3.0
GaAs3In2,0.0428,-0.0242616,,3,3.0
Li4Pt3,0.0,-0.0320515,,3,3.0
AsRuTh,0.0,-0.0512573999999999,,3,3.0
S8Pt3,0.0,-0.0263897,,3,3.0
SeY2Pb,0.0,-0.0393402,,3,3.0
C4NiHo3,0.0,-0.0258025,,3,3.0
Mg2Ca3Bi4,0.0,-0.0399259,,3,3.0
H4NiY,0.0,-0.0101946,,3,3.0
AlNi2Tb,0.0,-0.0223301,,3,3.0
PNiTm,0.0,-0.0274529999999999,,3,3.0
In2CeTh,0.0,-0.0521736,,3,3.0
Ga3Pm,0.0,-0.0239369,,3,3.0
Ni2InDy,0.0,-0.0288834,,3,3.0
O2Y2Bi,0.0,-0.0323194,,3,3.0
NFeGeSr2,0.0,-0.0188082,,3,3.0
B3MoHo,0.0,-0.0218958,,3,3.0
Si2W4Pu,0.0,-0.0584615,,3,3.0
SrPdBi,0.0,-0.0454014,,3,3.0
Ge2Ru2Eu,0.0,-0.0329697,,3,3.0
H2O7SrTa2,2.6187,-0.0197916,,3,3.0
As2Ru2Cs,0.0,-0.0300886,,3,3.0
Sb2OsTh6,0.0,-0.0808185,,3,3.0
Ga2Ru2Nd,0.0,-0.0296382,,3,3.0
RuIGd,0.0,-0.0443045,,3,3.0
Fe2TmPu,0.0,-0.0496071,,3,3.0
Al2P2Pb,0.0,-0.022402,,3,3.0
SrMoTe3,0.0,-0.0341299,,3,3.0
Al4MnBa,0.0,-0.0150543,,3,3.0
Cr3W,0.0,-0.0312474999999999,,3,3.0
O8K3Ti,0.0,-0.0090838,,3,3.0
Cu2YZr,0.0,-0.022459,,3,3.0
InSbIr,0.0,-0.0475581,,3,3.0
LiP2Rh2Sm,0.0,-0.0236834,,3,3.0
CCo2In2Sm2,0.0,-0.0289366,,3,3.0
CuRuHf2,0.0,-0.0443583,,3,3.0
CaSrCd4,0.0,-0.0259843,,3,3.0
AlCa2Ga,0.0,-0.0111769,,3,3.0
O3CoRb,0.0,-0.0124548,,3,3.0
Ge2RhPr,0.0,-0.0297985,,3,3.0
AlY2Ir2,0.0,-0.0422632,,3,3.0
NiYPb,0.0,-0.0405053,,3,3.0
NBr2Ho2,0.0,-0.0311919,,3,3.0
PSeZr,0.0,-0.0216728,,3,3.0
NiGePt2,0.0,-0.0442622,,3,3.0
Mg4RbBi3,0.4673,-0.0349366,,3,3.0
H4O4P2Ba,5.5598,-0.0106704,,3,3.0
S4AgCd2In,0.5212,-0.0211289,,3,3.0
NaCl2Ag,3.6265,-0.0140938,,3,3.0
SnAuTh,0.0,-0.0677657,,3,3.0
H2Te,0.0,-0.0146654,,3,3.0
MgNi2Sr2,0.0,-0.0163567,,3,3.0
MnNi4Lu,0.0,-0.0234921,,3,3.0
Al3Si2Pr3Os,0.0,-0.0279143,,3,3.0
S2CuRh,1.0594,-0.0175168,,3,3.0
BRu3Er,0.0,-0.0328353,,3,3.0
BaAuBi2,0.0,-0.0671222,,3,3.0
NaAu2Pb2,0.0,-0.0590182,,3,3.0
Ge3SrOs,0.0,-0.0306761,,3,3.0
F8I2Pb5,3.2568,-0.0340747,,3,3.0
GeAgTm,0.0,-0.0348151,,3,3.0
Sb3Au5,0.0,-0.0571703,,3,3.0
C4O12MgCd3,3.6541,-0.0122536,,3,3.0
CdLa2Hg,0.0,-0.0467648,,3,3.0
H2RhTa2,0.0,-0.0351056,,3,3.0
S8Mo6Sm,0.0,-0.0230819,,3,3.0
S2Cu3Cs,1.6617,-0.0177195,,3,3.0
AgEr2Pb,0.0,-0.0524699,,3,3.0
Li2FeRh,0.0,-0.0142561,,3,3.0
CSi2Mn2U2,0.0,-0.0393122,,3,3.0
BeP2Sn,1.0789,-0.015536,,3,3.0
In4BaTl,0.0,-0.0411698999999999,,3,3.0
I3Pr3Os,0.1805,-0.04571,,3,3.0
CMn2Sn2Tb2,0.0,-0.0307532,,3,3.0
LiBr6YCs2,4.555,-0.0243153,,3,3.0
LiSc2Ag,0.0,-0.0157065,,3,3.0
Ru2CeTb,0.0,-0.0406398,,3,3.0
P2Sc6Zn,0.0,-0.0141115999999999,,3,3.0
Li2F8ScSr,0.0,-0.0092334,,3,3.0
LiSc2Pt2,0.0,-0.0353965,,3,3.0
InWIr2,0.0,-0.0615615,,3,3.0
Sc4Se3Sb,0.0,-0.0208706,,3,3.0
SrSbIr,0.0,-0.0442874,,3,3.0
NbInIr,0.0,-0.0462657999999999,,3,3.0
Na5Ga2,0.0,-0.0077068,,3,3.0
Rb2I6Hf,2.3299,-0.0373712,,3,3.0
ScTl5,0.0,-0.0627545,,3,3.0
SnTb2Au2,0.0,-0.0546176,,3,3.0
LiRbI2,4.4478,-0.025651,,3,3.0
PZnSe3,1.7229,-0.0171811,,3,3.0
H2O4Se,4.0211,-0.008176,,3,3.0
O2ClBrLa2,4.4333,-0.0244256999999999,,3,3.0
Ni4HgPu,0.0,-0.0405522,,3,3.0
Al2Si3Fe3,0.4369,-0.0128902,,3,3.0
As2Hf,0.0,-0.0351858,,3,3.0
SrAg2La,0.0,-0.0323320999999999,,3,3.0
ScZn5,0.0,-0.0139376,,3,3.0
BrSr2In2,0.0,-0.0272159,,3,3.0
H3BO3,6.6844,-0.0068369,,3,3.0
Na6MgCl8,6.0498,-0.0083237,,3,3.0
PCrTa,0.0,-0.0325062,,3,3.0
Se2RhTm6,0.0,-0.0437809,,3,3.0
Cl6CuCs2Sm,2.6037,-0.0203459,,3,3.0
N4O9Si6Ba3,5.0335,-0.015021,,3,3.0
B2Fe2Sm,0.0,-0.0194691,,3,3.0
BaPb3,0.0,-0.0672457,,3,3.0
S2KEr,2.621,-0.0216376,,3,3.0
NiIn3I,0.0,-0.0308715,,3,3.0
Rh2Tm2Tl,0.0,-0.0495272999999999,,3,3.0
NdDyAu2,0.0,-0.0584559,,3,3.0
B12Eu,0.0,-0.0111857,,3,3.0
NiAuAc2,0.0,-0.0670433,,3,3.0
O6MnBa2Lu,0.0,-0.0219247,,3,3.0
LaTmPb2,0.0,-0.0622983,,3,3.0
H2MoTa2,0.0,-0.0351507,,3,3.0
Cl4FeBr2Cs2,0.0,-0.0196486,,3,3.0
S3Ni2Cs,0.0,-0.0171115999999999,,3,3.0
BAl2TbOs2,0.0,-0.0362302,,3,3.0
PZrIr5,0.0,-0.0573671,,3,3.0
Al4Nb2Eu,0.0,-0.0219065,,3,3.0
Li2RuSn,0.0,-0.0191307,,3,3.0
LiP2Pd2,0.0,-0.0183358,,3,3.0
B4O7Cu,1.8019,-0.0096875,,3,3.0
C4MnTm2,0.0,-0.0235747,,3,3.0
Ca2RhLa,0.0,-0.0244346,,3,3.0
B12LaEu,0.0,-0.0138794,,3,3.0
ClNiGd,0.0,-0.028972,,3,3.0
Ni2ZnPa,0.0,-0.0366879,,3,3.0
MgSrSb2,0.0,-0.026226,,3,3.0
Mn2NiSe4,0.0,-0.019619,,3,3.0
Tm2AuPb,0.0,-0.062949,,3,3.0
O6Ca2FeIr,0.0,-0.0166239,,3,3.0
Co2Zr,0.0,-0.0220036999999999,,3,3.0
SiTeHf,0.0,-0.0373534,,3,3.0
O4VSn,0.5553,-0.0152474,,3,3.0
NIn,0.0263,-0.0214009,,3,3.0
S3MnDyTl,0.6402,-0.0293301,,3,3.0
LiCl2Au,2.9929,-0.0229867999999999,,3,3.0
BeTa2,0.0,-0.0459707,,3,3.0
Co2Y3Au,0.0,-0.0317083,,3,3.0
Li7O6Sb,4.3192,-0.0085748,,3,3.0
C3Al3Tm,0.2405,-0.015534,,3,3.0
BAl2CaFe2,0.0,-0.0117311999999999,,3,3.0
GaYPd,0.0,-0.0266961,,3,3.0
SeRbHg2,1.3872,-0.0448608,,3,3.0
Ni2Se3Sn,0.0,-0.0217212,,3,3.0
Ti6AuBi2,0.0,-0.0361561,,3,3.0
ScI2,0.0,-0.0304488999999999,,3,3.0
CuTb2Hg,0.0,-0.0446897999999999,,3,3.0
PdIn3Sn2Nd3,0.0,-0.0380964,,3,3.0
TbHgPb,0.0,-0.0641423,,3,3.0
F6K2TiRb,0.8711,-0.010723,,3,3.0
AgNdTl,0.0,-0.0495364,,3,3.0
ZnTm3Pt2,0.0,-0.0527428,,3,3.0
GaRuLu,0.0,-0.0361788,,3,3.0
AgHoTl2,0.0,-0.0565,,3,3.0
Si2NiSm,0.0,-0.0210397,,3,3.0
Si4Dy3Pt4,0.0,-0.0435008,,3,3.0
MgK2Tl,0.0,-0.0236007,,3,3.0
Co8Ga4Tb,0.0,-0.0194581,,3,3.0
MoW3,0.0,-0.0609934,,3,3.0
Li4Sr3,0.0,-0.0108892,,3,3.0
CSi2Cr2Ho,0.0,-0.0198129999999999,,3,3.0
O8Cr3Au,0.7423,-0.0162174,,3,3.0
O6Ba2CeBi,0.0,-0.0265943,,3,3.0
CYRu3,0.0,-0.0287242,,3,3.0
CoDyPb,0.0,-0.0472551,,3,3.0
H9O5ClSr,5.5236,-0.007163,,3,3.0
Al4CrTh,0.0,-0.0245132,,3,3.0
PMnPd5,0.0,-0.0280755,,3,3.0
Al3Si2CoU3,0.0,-0.0414297,,3,3.0
Zr3Ir4,0.0,-0.0547357999999999,,3,3.0
FSCuBa,1.803,-0.019197,,3,3.0
O2NaAu,1.7448,-0.0224090999999999,,3,3.0
MgIr2Th2,0.0,-0.0686995,,3,3.0
GeTe7Bi4,0.3903,-0.049656,,3,3.0
KSe2Ir,1.3802,-0.0306568,,3,3.0
PRbEu,0.0744,-0.0291429,,3,3.0
F6AgHf,0.6997,-0.0173489,,3,3.0
CaCuSe3Pr,1.1268,-0.0230717,,3,3.0
ZrPd5Sb,0.0,-0.0338092,,3,3.0
O6ZnZrLa2,4.3718,-0.0201031,,3,3.0
F6RhCs2,0.49,-0.0169576,,3,3.0
MgCu2Se2,0.9424,-0.0156767,,3,3.0
PTeNd,0.0219,-0.0316851,,3,3.0
Cl6KCoRb2,2.2613,-0.0131515,,3,3.0
C2O6K2Eu,0.2207,-0.0137649,,3,3.0
Si3Ca2Pd,0.0,-0.0143927,,3,3.0
Zn2YPb,0.0,-0.0330424,,3,3.0
OPbPu3,0.0,-0.0834457,,3,3.0
B2CRh2Tm,0.0,-0.0247482,,3,3.0
P2Cu4Rb,0.0,-0.0148538,,3,3.0
Se4AgPt,0.0,-0.0305171,,3,3.0
GeZrNd,0.0,-0.0318623,,3,3.0
Be2W2Re,0.0,-0.0440322999999999,,3,3.0
Ni2In5Pr,0.0,-0.0306579,,3,3.0
O7Si2V2,0.4932,-0.0117759,,3,3.0
Mg2Al2In,0.0,-0.0117193,,3,3.0
Si4RbPt4,0.0,-0.0387719,,3,3.0
MgZnY2,0.0,-0.0187903,,3,3.0
O6MgAs2,3.6029,-0.0109856,,3,3.0
Si2HoPt,0.0,-0.0359241,,3,3.0
Fe3Au2,0.0,-0.0385893,,3,3.0
F6TiPb,4.0314,-0.0172846,,3,3.0
Ag8Au,0.0,-0.0355941,,3,3.0
Br4RbPd,0.0,-0.0227387,,3,3.0
Cl6GaRbCs2,4.1805,-0.0179058,,3,3.0
S6Zr3Rh,0.0,-0.0199133,,3,3.0
Si2BaAu2,0.0,-0.0401383,,3,3.0
KZnSb,0.705,-0.0201714,,3,3.0
NiRhHf2,0.0,-0.0445242,,3,3.0
Se2BaTl,0.0,-0.0392418,,3,3.0
CaCd2Eu,0.0,-0.0314751,,3,3.0
Rh2HgTh,0.0,-0.0585095,,3,3.0
O6Ca2SbTb,4.4937,-0.0170003,,3,3.0
SmDyIr2,0.0,-0.059491,,3,3.0
H6LiNa2Co,2.7976,-0.0052435,,3,3.0
CrAsRh5,0.0,-0.0299201,,3,3.0
B2CRh2Lu,0.0,-0.0253118,,3,3.0
O4K2CaPr,0.0,-0.0142577,,3,3.0
CdSnDy2,0.0,-0.0410651999999999,,3,3.0
H3CaIr,0.0,-0.0187887999999999,,3,3.0
Sn2NdPt,0.0,-0.0473483,,3,3.0
AlBr3Dy3,0.0,-0.0312069,,3,3.0
Cl8CaBa3,5.3342,-0.0187757,,3,3.0
O4CrMn,0.0,-0.0122981,,3,3.0
Be2Rh2Ir,0.0,-0.0299768,,3,3.0
Ni2Te3Ho,0.0,-0.032814,,3,3.0
B6Mn2Pr,0.0,-0.0143666,,3,3.0
Ge3PdLa,0.0,-0.0274294,,3,3.0
KTe6Hf3,0.0,-0.0428873,,3,3.0
Tc5Rh,0.0,-0.0349429999999999,,3,3.0
O2MnAg,0.1158,-0.0169926,,3,3.0
ErPt2Pu,0.0,-0.0762033,,3,3.0
PdCdEr,0.0,-0.0386329,,3,3.0
CaLaAu,0.0,-0.0413119999999999,,3,3.0
Zr2AgAu2,0.0,-0.0468130999999999,,3,3.0
As2Se6SnPb2,0.2698,-0.0319566,,3,3.0
RuTaPt2,0.0,-0.0611622,,3,3.0
O4HoPa,2.9596,-0.0329659,,3,3.0
SnPt2Ac,0.0,-0.0677297999999999,,3,3.0
GeCsAu3,0.0,-0.0531013,,3,3.0
Al3Ca2Rh,0.0,-0.013355,,3,3.0
Sr2SnPt2,0.0,-0.0451895,,3,3.0
Li2S,3.8687,-0.0063194,,3,3.0
Al3Co2Tm,0.0,-0.0187357,,3,3.0
H3PdSm,0.0,-0.0181253,,3,3.0
Al2Zr2Hg,0.0,-0.0295029,,3,3.0
B12Dy,0.0,-0.0108351,,3,3.0
CoY3Pb,0.0,-0.0357552,,3,3.0
Si2DyPt,0.0,-0.0356381999999999,,3,3.0
CaSn5,0.0,-0.0317411,,3,3.0
NiRhIn2,0.0,-0.0294115,,3,3.0
MgSc2Os,0.0,-0.026782,,3,3.0
MgHgTh,0.0,-0.0567721,,3,3.0
NiSe3ZrTl,0.0,-0.0308388,,3,3.0
CoNi2Ge,0.0,-0.0173369999999999,,3,3.0
MgYZr,0.0,-0.0211573,,3,3.0
MgGeTm,0.0,-0.0259334,,3,3.0
NiCdIn3,0.0,-0.0293485,,3,3.0
Zr2Pd2Cd,0.0,-0.0321654,,3,3.0
MgSrSn3,0.0,-0.0273819,,3,3.0
Pd5InSb,0.0,-0.034015,,3,3.0
Al2SrCd2,0.0,-0.0200097,,3,3.0
KTe2Eu,0.0,-0.0354972,,3,3.0
CSbTm3,0.0,-0.0413512,,3,3.0
O6FeAsSr2,1.1806,-0.0143543,,3,3.0
AgSm2Pt,0.0,-0.048459,,3,3.0
Li4Sb4Ho3,0.0,-0.0286495,,3,3.0
CuPd2Er,0.0,-0.0335301,,3,3.0
AlPd,0.0,-0.0213402,,3,3.0
ZnPd5,0.0,-0.0298004,,3,3.0
CRh3Cd,0.0,-0.0284253,,3,3.0
ScCu2As2,0.0,-0.0176167,,3,3.0
MgGa2Cd,0.0,-0.0170167,,3,3.0
KFe2Se2,0.0,-0.0173152,,3,3.0
Mn2Ga5La,0.0,-0.0205871,,3,3.0
O5S2Zr2Ce2,0.0,-0.0216002,,3,3.0
MnYI,0.0,-0.0282997,,3,3.0
CaSe4In2,1.9707,-0.0234023,,3,3.0
O4Na3Nb,4.4184,-0.0111443,,3,3.0
O2KBa,0.7584,-0.0169282,,3,3.0
SiPt4,0.0,-0.0585407,,3,3.0
Mn3Os5,0.0,-0.0518682,,3,3.0
O4SmHo,2.3742,-0.0228155,,3,3.0
Rh2CeHo,0.0,-0.0411032,,3,3.0
NTa,0.0,-0.0392523,,3,3.0
GaRhHo2,0.0,-0.037843,,3,3.0
Nd2TlPb,0.0,-0.0594767999999999,,3,3.0
Fe5Ta3,0.0,-0.036406,,3,3.0
MnSnTe4Cs2,0.7559,-0.035619,,3,3.0
Si2Fe3Er,0.0,-0.0213018,,3,3.0
Ge3ZrLa,0.0,-0.0270359,,3,3.0
Al6Mn6Tm,0.0,-0.0162276999999999,,3,3.0
Cl2AsNp2,0.0,-0.0511016,,3,3.0
O3TiPr,0.0,-0.0190536,,3,3.0
F6MgNi,2.3054,-0.0077859999999999,,3,3.0
NSc3Hg,0.0,-0.0253994,,3,3.0
O4AlSb,2.0396,-0.0139919,,3,3.0
B2DyIr3,0.0,-0.0468192,,3,3.0
O4Mg3Ni,2.7818,-0.009597,,3,3.0
ScGa2La,0.0,-0.0231234,,3,3.0
LiBr2In,1.6627,-0.0198157,,3,3.0
Mg2SrPb2,0.0,-0.0372601,,3,3.0
CoNiGaHf,0.0,-0.0287169,,3,3.0
CaIn3,0.0,-0.0278774,,3,3.0
B4CoTm,0.0,-0.0171324,,3,3.0
NaCu2As2Pu,0.0,-0.0313333,,3,3.0
CuSe2Nb,0.0,-0.0227753,,3,3.0
MnNi4In,0.0,-0.0195401999999999,,3,3.0
F5K2Mn,0.4458,-0.0095545,,3,3.0
F6NaCs2Ba,0.0,-0.0169278,,3,3.0
Cu2Zn2Ga,0.0,-0.0148041,,3,3.0
OTi2Sb2Ba,0.0,-0.0268965,,3,3.0
O2F4Co3,0.0,-0.0105477,,3,3.0
F7KGd2,6.3153,-0.0190847,,3,3.0
O2Y2Tl,0.0,-0.0308477999999999,,3,3.0
SeAg2Te,0.0,-0.03005,,3,3.0
O7Cu2Ba2NdTl,0.0,-0.0227248,,3,3.0
Zr5La,0.0,-0.0326701,,3,3.0
ClBrPt,1.2194,-0.0328397999999999,,3,3.0
RbTe2Pu,0.0,-0.0524356999999999,,3,3.0
BeK4As2,1.3245,-0.0116874,,3,3.0
Ca3I3Bi,1.4481,-0.0325998,,3,3.0
H3PdTb,0.0,-0.0185999,,3,3.0
O6NbBa2Dy,3.5084,-0.0230838,,3,3.0
Ga2Hg2Tl,0.0,-0.0481882,,3,3.0
B2O6ScHo,5.1764,-0.0149033,,3,3.0
ClNiPr,0.1872,-0.0238076,,3,3.0
Si3AgNd2,0.0,-0.0254739,,3,3.0
S3AgBaPr,1.8411,-0.0257147,,3,3.0
NiGaDy,0.0,-0.027472,,3,3.0
AgIn2Dy,0.0,-0.0369264,,3,3.0
BNRhSm,0.0,-0.0250647,,3,3.0
N2YLu,0.4788,-0.0275505,,3,3.0
H5Eu2Pt,0.0,-0.0249822,,3,3.0
AlDyPt2,0.0,-0.0504012,,3,3.0
O6Ca2PrTa,3.8856,-0.0199863,,3,3.0
S3RbHf,0.0,-0.0238649999999999,,3,3.0
PTiPd,0.0,-0.0207321,,3,3.0
Co2SnTb2,0.0,-0.0332276,,3,3.0
RhOsPt,0.0,-0.0586039,,3,3.0
C2K2Pd,1.4848,-0.0139926,,3,3.0
Si4Ni2Ag,0.0,-0.0150713,,3,3.0
NaAsRh,0.0,-0.0200229,,3,3.0
Be4FeOs,0.0,-0.0182544,,3,3.0
AlCuY,0.0,-0.0174672,,3,3.0
K2I2Hg,3.531,-0.032904,,3,3.0
MgErTl2,0.0,-0.0503601,,3,3.0
Sn2Tm6Pt,0.0,-0.051156,,3,3.0
CaGa2Ir2,0.0,-0.0376178999999999,,3,3.0
Sn4Au,0.0,-0.0425877,,3,3.0
O8Rb3Nb,3.146,-0.0136066,,3,3.0
Ag2PbAc,0.0,-0.0575821,,3,3.0
F6AgCs2Au,0.0,-0.0216565,,3,3.0
I6Cs2Ho,0.0,-0.0397428,,3,3.0
SK2Br6,1.3867,-0.0167385,,3,3.0
SnHg3,0.0,-0.0599587,,3,3.0
AlHg3,0.0,-0.0530223,,3,3.0
H10B2OCa,6.2954,-0.0052072,,3,3.0
GeSr2Pd2,0.0,-0.0265958,,3,3.0
KIn2Au,0.0,-0.0364504,,3,3.0
LiInLa,0.0,-0.0267622,,3,3.0
S3NiTmPb,0.0,-0.0299476,,3,3.0
H8CoZn2Sm,0.0,-0.0098225,,3,3.0
S2KCu3,1.3068,-0.0127827,,3,3.0
PdTeTl,0.0,-0.0477227,,3,3.0
O4Cu2Se2Sb2Pr,0.0,-0.0208398,,3,3.0
NaMgCuSe3,0.543,-0.014907,,3,3.0
Mg2CuTh,0.0,-0.0303436999999999,,3,3.0
Mg3Hg2,0.0,-0.0306153,,3,3.0
ScCu2Hg,0.0,-0.028467,,3,3.0
CSc3Bi,0.0,-0.0270454,,3,3.0
Al2CuLu,0.0,-0.0220325,,3,3.0
H4O14P4KFe,1.4837,-0.0090719999999999,,3,3.0
NiCd2Ba,0.0,-0.0293014,,3,3.0
CuIr5,0.0,-0.0616799,,3,3.0
H3OI,4.4765,-0.011334,,3,3.0
Pd3Dy,0.0,-0.0374806,,3,3.0
LiO7P2Sn,0.0226,-0.0115502,,3,3.0
RhBaLa2,0.0,-0.0403386,,3,3.0
O11V2Nb2Ba,2.5174,-0.015892,,3,3.0
O5CrBa3,1.1926,-0.0214813,,3,3.0
AlNi2Th,0.0,-0.0346013,,3,3.0
NaCoLa3,0.0,-0.0301142,,3,3.0
Co2SbTe,0.0,-0.0273104,,3,3.0
F8NaCu2Eu,0.2538,-0.0124233,,3,3.0
Al4Co4Pr3,0.0,-0.0212432,,3,3.0
P2MnFe,0.0,-0.0148481,,3,3.0
HScPb,0.0,-0.0317654,,3,3.0
CNNbTa,0.0,-0.0306065,,3,3.0
Sb2Tm6Os,0.0,-0.0515875,,3,3.0
Co2NiHf,0.0,-0.0286500999999999,,3,3.0
ClCaI,4.6067,-0.0203297,,3,3.0
ScZnIn2,0.0,-0.0240535,,3,3.0
CuPd2In,0.0,-0.0289484,,3,3.0
Be2ZnRu2,0.0,-0.018809,,3,3.0
LiP2DyPt2,0.0,-0.0363693999999999,,3,3.0
GaNbAu,0.0,-0.0398798,,3,3.0
LiCl3Pu,0.0,-0.0290966,,3,3.0
ZnZr2Rh2,0.0,-0.0292905,,3,3.0
Ba2AuPb,0.0,-0.0567843,,3,3.0
HNDy2,0.0,-0.0282633,,3,3.0
GaPdGd,0.0,-0.0368772,,3,3.0
ClICs,2.5375,-0.0289844,,3,3.0
Cd5Tl3,0.0,-0.0460579,,3,3.0
Si4Pd4Ho3,0.0,-0.0299344,,3,3.0
MnBrI,1.8351,-0.0258057,,3,3.0
Zn2InEr,0.0,-0.0281148999999999,,3,3.0
F6LaGd,6.3653,-0.0196171,,3,3.0
SiYPt2,0.0,-0.0459249,,3,3.0
Al2MnW,0.0,-0.0260463999999999,,3,3.0
CSSm2,0.0541,-0.0285167,,3,3.0
Ca3Sb4Hg2,0.0,-0.035634,,3,3.0
OTi3Rh,0.0,-0.019189,,3,3.0
GeRh3Cd2,0.0,-0.0304557,,3,3.0
Zn2RhLa,0.0,-0.0265396,,3,3.0
Ca2ZnLa,0.0,-0.0191392,,3,3.0
Li2AsCs,1.2451,-0.0163822,,3,3.0
Cu2GaSm,0.0,-0.0232154,,3,3.0
GePd2Pu,0.0,-0.0492083,,3,3.0
SiNi6Ga,0.0,-0.0158051,,3,3.0
Li2P2Ca,0.0439,-0.0079842,,3,3.0
Rh2PdLa2,0.0,-0.0380431,,3,3.0
F6AlK2,0.0,-0.0081234,,3,3.0
Li6O4Fe,0.8601,-0.0071103,,3,3.0
CCoHo,0.0,-0.0258227,,3,3.0
Ga2LaAu,0.0,-0.0370755,,3,3.0
LiCl6K2Ce,0.0,-0.0133837,,3,3.0
NMn3Ga,0.0,-0.0165417,,3,3.0
O6SbBa2Gd,4.3247,-0.0241541,,3,3.0
B2N4Sm3,0.0,-0.0222032,,3,3.0
GdTl2,0.0,-0.0682526,,3,3.0
Mn2GaGe,0.0,-0.018114,,3,3.0
N6Cr2U3,0.0,-0.0377852,,3,3.0
SiScRh,0.0,-0.0205768,,3,3.0
N3CrZr2,0.0,-0.0194308,,3,3.0
F6AlNd,8.073,-0.0131105,,3,3.0
Al4CrTb,0.0,-0.0163549,,3,3.0
S6Ti3Ag,0.0,-0.0150395,,3,3.0
Al3Si2OsU3,0.0,-0.0475859999999999,,3,3.0
Cl6BrSbCs2,0.4877,-0.0193274,,3,3.0
Li2Zn2Ba,0.0,-0.0143714999999999,,3,3.0
O7La2Sm2,1.008,-0.0231427,,3,3.0
AlZnAc2,0.0,-0.0508051,,3,3.0
OSc3Hg,0.0,-0.0251711,,3,3.0
Cl3MnTl,1.8863,-0.024301,,3,3.0
Si2CuTa,0.0,-0.0257937,,3,3.0
F6ZnGd,0.0,-0.0146599,,3,3.0
B2Mn3Ce,0.0,-0.0194206,,3,3.0
RuAgPm2,0.0,-0.0388447,,3,3.0
AlSrPd2,0.0,-0.0247427,,3,3.0
CuCdHg2,0.0,-0.0454232,,3,3.0
AlTb2,0.0,-0.0340691,,3,3.0
RhNdBi,0.0,-0.0528611,,3,3.0
K2InTl,0.0,-0.0308121,,3,3.0
Al2YSm,0.0,-0.0223707,,3,3.0
Na2PdPb2,0.0,-0.0387963,,3,3.0
F8Y2In,0.0,-0.0144625,,3,3.0
Ho3Pb2,0.0,-0.0603756,,3,3.0
ScNi4Cd,0.0,-0.0185811,,3,3.0
Ni4Au3,0.0,-0.0387993,,3,3.0
Ag2Bi,0.0,-0.046996,,3,3.0
Li17O6Cl5,2.8232,-0.0061576,,3,3.0
O4NaPFe,0.9589,-0.0104573,,3,3.0
NO3Ag,1.8322,-0.01215,,3,3.0
Mg2As2Tb,0.0,-0.0203935999999999,,3,3.0
CaZn2Ce,0.0,-0.0205879,,3,3.0
Co2Ge,0.0,-0.0179625,,3,3.0
Ca3Ge2PdTl3,0.0,-0.03577,,3,3.0
NdTbBi,0.0,-0.0570982,,3,3.0
F2Cl2K2Cu,1.808,-0.0099222,,3,3.0
RbAg2Cd2,0.0,-0.0288516,,3,3.0
H2FeCo,0.0,-0.0104852,,3,3.0
NiAc,0.0,-0.0533841,,3,3.0
KSr3Rh,0.0,-0.0219137999999999,,3,3.0
Cl6Rb2SbHg,0.0,-0.0207737,,3,3.0
Pd5Hf3,0.0,-0.0448683,,3,3.0
PtBi2,0.0,-0.0761215,,3,3.0
SGeIr,1.0286,-0.0338396,,3,3.0
LiAs2Ru2Ho,0.0,-0.0276844,,3,3.0
Zn2SmLu,0.0,-0.0321081,,3,3.0
TiRu2Ho,0.0,-0.0342721999999999,,3,3.0
F2Ag,0.0734,-0.0140685,,3,3.0
H4O3Sr,5.0696,-0.0085002999999999,,3,3.0
B2Co2Pa,0.0,-0.0302148,,3,3.0
MgPt2Au,0.0,-0.0542268,,3,3.0
BeCdAu2,0.0,-0.0435466,,3,3.0
KRh2Bi2,0.0,-0.0468975,,3,3.0
Cu2ZnGeTe4,0.0,-0.0266911,,3,3.0
P4Mo5,0.0,-0.024535,,3,3.0
TiCo2Pt,0.0,-0.0307719999999999,,3,3.0
Sc3NiGa3Sn2,0.0,-0.0206106,,3,3.0
Ga3Rh2,0.0,-0.0239173,,3,3.0
B4Ho2Ir5,0.0,-0.0448172,,3,3.0
SiDy2Pt2,0.0,-0.0505441,,3,3.0
Si4Pd4Lu3,0.0,-0.031633,,3,3.0
GePd5,0.0,-0.0307911,,3,3.0
CuSb2Th,0.0,-0.0470132,,3,3.0
GaLaHg2,0.0,-0.0494673,,3,3.0
IrPt3,0.0,-0.0703466,,3,3.0
OMnSeBa,1.4169,-0.0230953,,3,3.0
DyHg2Tl,0.0,-0.0644983,,3,3.0
SnAuPb,0.0,-0.0602414,,3,3.0
Dy3Os2Hg,0.0,-0.0596917,,3,3.0
Si3NiPr3,0.0,-0.0259127,,3,3.0
S3AsLu4,0.0,-0.0358237,,3,3.0
Si2Ir,0.0,-0.031004,,3,3.0
O3Cs3Dy,2.5906,-0.0278408,,3,3.0
O2KPr,4.0408,-0.0188723999999999,,3,3.0
P2S6ScAg,2.1216,-0.0132044,,3,3.0
H3CoDy,0.0,-0.0156075,,3,3.0
B4Mg,0.4749,-0.0071204,,3,3.0
C3Lu2W2,0.0,-0.0404981,,3,3.0
Cu2InHf,0.0,-0.0318553,,3,3.0
O6NaKW2,0.0,-0.0211862999999999,,3,3.0
Cr4RePt,0.0,-0.0358988,,3,3.0
S2FeSe8Nb3,0.0,-0.0219665,,3,3.0
TeTb,0.0,-0.0434564,,3,3.0
CrAgPt2,0.0,-0.0477989,,3,3.0
Te3Au2Tl,0.0,-0.0539074,,3,3.0
O6MgSc2Pd,2.3433,-0.0130003,,3,3.0
SnHf3,0.0,-0.0563037,,3,3.0
NiRuHo2,0.0,-0.0377314999999999,,3,3.0
Be2AgHf2,0.0,-0.0332706,,3,3.0
ZrIn5,0.0,-0.0330472,,3,3.0
SrTe3SmPt,0.0,-0.0427648999999999,,3,3.0
O6Sr2RuCd,0.0,-0.016702,,3,3.0
CaZnHg2,0.0,-0.0402456,,3,3.0
NaCuI4,0.0,-0.0281639,,3,3.0
FSeNp,0.0,-0.0458535,,3,3.0
LiBaIr2,0.0,-0.0463562999999999,,3,3.0
F3KFe,0.2871,-0.0100518,,3,3.0
FeY6Bi2,0.0,-0.0385571,,3,3.0
Nb2WOs,0.0,-0.0522013,,3,3.0
Cr3Rh5,0.0,-0.0282207,,3,3.0
CeTmIr2,0.0,-0.0605401999999999,,3,3.0
LiAg2Ba2,0.0,-0.0290508999999999,,3,3.0
NaAs2Rh2,0.0,-0.0230984,,3,3.0
FeGe2Er,0.0,-0.0271794,,3,3.0
ZnZrPd2,0.0,-0.0281738,,3,3.0
LiO6SrTeBa,0.0,-0.0160591,,3,3.0
RuTa2Re,0.0,-0.0602545,,3,3.0
Mg2KGa2,0.0,-0.0102828,,3,3.0
Rb3Hg,0.0,-0.0326434,,3,3.0
Br4RhAg,0.5304,-0.0242793,,3,3.0
YIn2La2,0.0,-0.0367554,,3,3.0
Ge2NdIr2,0.0,-0.0457561,,3,3.0
CePt3,0.0,-0.0648122,,3,3.0
SiZr2Rh,0.0,-0.0272289,,3,3.0
FAgCs3,0.0,-0.0307472,,3,3.0
O2Nd,0.0,-0.0215669,,3,3.0
LiKCoSe2,0.1175,-0.0146028,,3,3.0
ZnMo2Ir,0.0,-0.0387558,,3,3.0
Ge3PdCe,0.0,-0.0276096,,3,3.0
O7Cs2NdTa2,0.0,-0.0275703,,3,3.0
Al3RhSn2La3,0.0,-0.0295076,,3,3.0
F6K2CuAu,0.0,-0.0142303999999999,,3,3.0
OSCuGd,1.9745,-0.0246519,,3,3.0
O3SbTl,2.7674,-0.0270446,,3,3.0
NaS2Cu3,0.0,-0.0119604,,3,3.0
NAlSc3,0.0,-0.0131563,,3,3.0
Tc2HfTa,0.0,-0.050461,,3,3.0
Mg3Zr,0.0,-0.0113882,,3,3.0
Si2ScMn2,0.0,-0.0148264,,3,3.0
As2PdLa2,0.0,-0.0334343999999999,,3,3.0
N2Lu3,0.0,-0.0386409999999999,,3,3.0
Si2SrAg,0.0,-0.0187514,,3,3.0
AlTi2Tc,0.0,-0.0192628,,3,3.0
Cr2RhIr,0.0,-0.0356471,,3,3.0
Ni2Nb3,0.0,-0.026417,,3,3.0
K3Rh4Sn4,0.0,-0.0279944,,3,3.0
H6Ti2Ru,0.0,-0.0099876,,3,3.0
F6NiTl3,0.0,-0.0274055,,3,3.0
Mg3Ca3Cu,0.0,-0.0084708,,3,3.0
NiRhPm2,0.0,-0.0350043,,3,3.0
MgRu2Ho3,0.0,-0.0373711,,3,3.0
Cu3Rh2Er,0.0,-0.0275686,,3,3.0
ZrPd2Pb,0.0,-0.0435803,,3,3.0
H3PdEu,0.0,-0.0199633,,3,3.0
H2MnRh,0.0,-0.014962,,3,3.0
V3Ru,0.0,-0.0222063999999999,,3,3.0
RbCd2Pb2,0.0,-0.0468404,,3,3.0
O4ClCs,6.4058,-0.0125698,,3,3.0
Se2AgSb,0.0079,-0.0273641,,3,3.0
GaYCd,0.0,-0.0255397999999999,,3,3.0
H8Mg2NiNd,0.0,-0.0084125,,3,3.0
Li3O8Fe2Cu2,0.1164,-0.0097268,,3,3.0
ClSe4W,1.5123,-0.0267269,,3,3.0
B6Ni2Er,0.0,-0.0145613,,3,3.0
AlCoRh2,0.0,-0.0237824999999999,,3,3.0
MnAs2Ta6,0.0,-0.0512072,,3,3.0
OClTm,4.9999,-0.0254897,,3,3.0
LiO8P2Fe2,0.0,-0.0105863,,3,3.0
O4FNaAlAs,4.3292,-0.0100337999999999,,3,3.0
CGeTm3,0.0,-0.0376383,,3,3.0
Mn4RuRe,0.0,-0.0297774,,3,3.0
Li2Zn2Ge2Ba,0.0,-0.0160363,,3,3.0
TiCrMn,0.0,-0.0177147,,3,3.0
Cd4BaLa,0.0,-0.034404,,3,3.0
GaCd2Hg,0.0,-0.036226,,3,3.0
CaTe2Ba,1.6712,-0.0328209999999999,,3,3.0