formula,bg,formation_energy,mp-id,fidelity,bg_category
F6Rb2Ce,2.6829,-0.0155156,,3,3.0
Al3Ge2RuTb3,0.0,-0.0271617,,3,3.0
NiAgTe4,0.0,-0.0328703,,3,3.0
Al5Cr,0.0,-0.0096283,,3,3.0
OF5GaCs2Hf,3.9087,-0.020964,,3,3.0
PZr2Rh,0.0,-0.0275848,,3,3.0
NaGe2Pd3,0.0,-0.0240355999999999,,3,3.0
NaSr3Ag,0.0,-0.0205817,,3,3.0
Zn3Gd2,0.0,-0.0320099,,3,3.0
Li2GePr,0.0,-0.0172815,,3,3.0
MnCePt2,0.0,-0.0518148,,3,3.0
S2CuAsPt,0.0,-0.0254843,,3,3.0
K5Zn,0.0,-0.0090995,,3,3.0
Al2GdIr,0.0,-0.0373316,,3,3.0
Cr3ZnRe2,0.0,-0.035144,,3,3.0
Ti2Ga4Nd,0.0,-0.0207592,,3,3.0
SbI3,2.1645,-0.0371809,,3,3.0
O2BrPbBi,2.1079,-0.0384618,,3,3.0
BS3Tl,1.8487,-0.0221864999999999,,3,3.0
SnDyPt,0.0,-0.0525987,,3,3.0
CaPdIn3,0.0,-0.0290459,,3,3.0
FeNiMo2,0.0,-0.0258654,,3,3.0
MgAl2Ir,0.0,-0.0236348999999999,,3,3.0
Te2Sm6Pt,0.0,-0.0467472,,3,3.0
N2Mn2Fe,0.0,-0.0150394,,3,3.0
Al4ScCr2,0.0,-0.0119947,,3,3.0
BeSiDy,0.0,-0.0214164999999999,,3,3.0
Be13Sc,0.0,-0.0052133,,3,3.0
CuSr2Ag,0.0,-0.0229555,,3,3.0
LuPtBi,0.0,-0.0692872,,3,3.0
ZrHg5,0.0,-0.061975,,3,3.0
O10NaCu2Se2,0.0463,-0.0098449,,3,3.0
Fe3Re,0.0,-0.0313972,,3,3.0
Al3Tb2Pt,0.0,-0.0320994,,3,3.0
GeSeU,0.0,-0.0482807,,3,3.0
O5CoBaDy2,0.0,-0.0234778,,3,3.0
K2Br4Pd,1.5514,-0.0194850999999999,,3,3.0
SiTm2Os3,0.0,-0.0554782999999999,,3,3.0
SCl7Rb2,0.0,-0.0116008,,3,3.0
KRbAu2,0.3887,-0.0422235,,3,3.0
AlGeAc2,0.0,-0.052319,,3,3.0
CrSe2Sb,0.0,-0.0244794,,3,3.0
KAg2,0.0,-0.0236815,,3,3.0
FeSb2Dy,0.0,-0.03559,,3,3.0
S2CuTb,1.4187,-0.0218656,,3,3.0
Al3Cu2Lu,0.0,-0.0186289,,3,3.0
BNFeLu,0.0,-0.0237816,,3,3.0
NiRhCd2,0.0,-0.0276933,,3,3.0
Sb2BaTl2,0.0,-0.0522344999999999,,3,3.0
AgCs2Au,0.5076,-0.0442034,,3,3.0
Tm2Pt2Hg,0.0,-0.0636849,,3,3.0
PSBr,2.439,-0.0134068,,3,3.0
CaRh2Tl,0.0,-0.0376271,,3,3.0
Cu2PdTm,0.0,-0.0292246,,3,3.0
SiGaTb,0.0,-0.0250926,,3,3.0
O8K2V2RbLa,3.8646,-0.0145992,,3,3.0
S3Nd2,0.9746,-0.0255865,,3,3.0
Li2O5PFe,1.2453,-0.0094675,,3,3.0
MnPt2Au,0.0,-0.0574307,,3,3.0
NTa3Pt,0.0,-0.0567113999999999,,3,3.0
SiSe4Ag2Ba,0.6739,-0.0249641,,3,3.0
RhPrAu2,0.0,-0.0544869,,3,3.0
RuSbLa2,0.0,-0.0403158,,3,3.0
Si2Ca3Ga3Au,0.0,-0.0191761,,3,3.0
AlZrOs2,0.0,-0.0461899999999999,,3,3.0
Li4O6Cu3,0.0,-0.0085022,,3,3.0
OSCuTb,2.0766,-0.0217147,,3,3.0
NSc3Tl,0.0,-0.0261822,,3,3.0
Al2Co2Er,0.0,-0.0204735,,3,3.0
KSb2Pb,0.0,-0.0398593,,3,3.0
InBi,0.0,-0.0560339,,3,3.0
GeSmAu,0.0,-0.0452935,,3,3.0
Sc3Ge2,0.0,-0.0170201,,3,3.0
F3CsAu,0.8313,-0.0253846,,3,3.0
O3CoBi,0.8673,-0.0241417,,3,3.0
NKCa2,0.0,-0.0098342,,3,3.0
NAgLa2,0.0,-0.0326458,,3,3.0
F6TiNd,0.0,-0.0139657,,3,3.0
Mo4Tc3,0.0,-0.0349015,,3,3.0
B6Mn2Np,0.0,-0.0213813,,3,3.0
PCrIr5,0.0,-0.0552188,,3,3.0
Cd2SbAc,0.0,-0.0475636,,3,3.0
O7Zr2Tb2,4.7464,-0.0217874,,3,3.0
Sn2LaSm,0.0,-0.0406482,,3,3.0
MgIn2Te4,1.4754,-0.0320779,,3,3.0
InSm2Hg,0.0,-0.0482777999999999,,3,3.0
O2Br4RuCs2,1.6353,-0.0235126999999999,,3,3.0
O6MgTi2Zn,3.5977,-0.0117462,,3,3.0
SCu2I2Hg,0.7279,-0.0304677,,3,3.0
OSCe,0.2161,-0.0230986,,3,3.0
Si3FePa,0.0,-0.0300243,,3,3.0
Al3RhTh2,0.0,-0.0421466,,3,3.0
HCaPd2,0.0,-0.0202374,,3,3.0
ZrTcW,0.0,-0.0453329,,3,3.0
AlCr4Re,0.0,-0.0254603,,3,3.0
Si2ScY,0.0,-0.0163781,,3,3.0
Zn2YLa,0.0,-0.0248988,,3,3.0
Na2CuBi,0.532,-0.0257775,,3,3.0
Cl6Se4Zr,1.2645,-0.0154745,,3,3.0
HPSr,0.9673,-0.0129268,,3,3.0
TcTm3,0.0,-0.0477473,,3,3.0
S8V4Ni,0.0,-0.013499,,3,3.0
LiZn2Nd,0.0,-0.0185566,,3,3.0
BO3F2AlBa,7.1427,-0.0135198,,3,3.0
NbMoRe2,0.0,-0.0526912999999999,,3,3.0
Al3Sn2Gd3Os,0.0,-0.0388675,,3,3.0
N3Al2In,2.7421,-0.0139351,,3,3.0
O8KScMo2,4.0999,-0.0144413,,3,3.0
Al3Si2NiPr3,0.0,-0.0217026,,3,3.0
LiPd2Tb,0.0,-0.0293835,,3,3.0
CoGa2Pr6,0.0,-0.0347079,,3,3.0
Rb2In2Au,0.0,-0.0356886,,3,3.0
F8Cu2Sm,0.0,-0.0119784,,3,3.0
GaHfAu,0.8637,-0.0501698,,3,3.0
Al3ZnGe2Pa3,0.0,-0.0418155,,3,3.0
Ba4Pt,0.0,-0.0460311,,3,3.0
Al2ZnLu,0.0,-0.0214729,,3,3.0
CuAs2Bi2,0.0,-0.0424723,,3,3.0
H6LiNa2Mn,0.0,-0.005241,,3,3.0
BeCrFe,0.0,-0.0135984,,3,3.0
Al5MnEr,0.0,-0.0156898,,3,3.0
FeW2Pt,0.0,-0.0569786,,3,3.0
CuZnLa2,0.0,-0.0289869,,3,3.0
MgNi2Cd,0.0,-0.016975,,3,3.0
Ga3Ru2Pd,0.0,-0.0257008,,3,3.0
Al2CaPm,0.0,-0.0175642,,3,3.0
Mg5Tl3,0.0,-0.0303866,,3,3.0
Mg2AlGa,0.0,-0.0085551999999999,,3,3.0
CuSe4Nb2,0.0,-0.0238856,,3,3.0
MnZnZr2,0.0,-0.0235417999999999,,3,3.0
BeFe,0.0,-0.0114458,,3,3.0
Si2Pd2U,0.0,-0.0383866,,3,3.0
O6Cl2Cu3Se2,0.9651,-0.011513,,3,3.0
BeMn5,0.0,-0.0158999,,3,3.0
Cu2ZnHo2,0.0,-0.0287305,,3,3.0
RhSbTe,0.2716,-0.0367022,,3,3.0
MgRuIn,0.0,-0.0245101,,3,3.0
Ga2Y6Ru,0.0,-0.026549,,3,3.0
As3SeIn4,0.0,-0.0270564,,3,3.0
S4K2MnIn,1.1267,-0.0144702,,3,3.0
CaBaAu2,0.0,-0.0477613,,3,3.0
As2Rh2Cs,0.0,-0.0299334,,3,3.0
SiZrMo,0.0,-0.0259469999999999,,3,3.0
LiCaPb2,0.0,-0.0414632999999999,,3,3.0
Ge2PrPt2,0.0,-0.0455187,,3,3.0
Zn2PtTh,0.0,-0.0490713999999999,,3,3.0
F6TiCd,4.9831,-0.0116041,,3,3.0
CoRuDy2,0.0,-0.0372549,,3,3.0
O3PrPt,0.0,-0.0285545,,3,3.0
Sc2Co3Rh,0.0,-0.0194027,,3,3.0
NiTm2Pt,0.0,-0.0485174,,3,3.0
HZrIr3,0.0,-0.0501538,,3,3.0
CuY,0.0,-0.021843,,3,3.0
NaMgSr2,0.0,-0.0134270999999999,,3,3.0
BNNiNp,0.0,-0.0357371,,3,3.0
Si2ScOs2,0.0,-0.0363144,,3,3.0
NiDyBi2,0.0,-0.0557777,,3,3.0
NaCu2HoBi2,0.0,-0.0405226,,3,3.0
CuBr4I2Cs2,0.456,-0.0279058999999999,,3,3.0
MgScIr4,0.0,-0.0512491,,3,3.0
O6CrBa2Lu,0.0,-0.0220202,,3,3.0
MgFeLa3,0.0,-0.0304432,,3,3.0
Ni2Zr2Tl,0.0,-0.0336999,,3,3.0
O10La3Re2,0.2653,-0.0250822,,3,3.0
ZrTe2,0.0,-0.0360145,,3,3.0
Mg2PdHg,0.0,-0.0282767,,3,3.0
SiSm2Pt3,0.0,-0.0528523,,3,3.0
SrAgAu2,0.0,-0.048585,,3,3.0
Ge2AgIn3Tm3,0.0,-0.0367062,,3,3.0
S4Rb3Nb,2.5921,-0.0181202,,3,3.0
Br2SbPr2,0.0,-0.0342834999999999,,3,3.0
KCu2Sb2Tm,0.0,-0.0281325,,3,3.0
In2CeEr,0.0,-0.0409758,,3,3.0
InTe2La,0.2351,-0.0389897,,3,3.0
CuSe8In5,0.4276,-0.0250603,,3,3.0
InSmHg,0.0,-0.0493199,,3,3.0
K2ZnSe2,2.7875,-0.0152646,,3,3.0
MnFeAs,0.0,-0.0192091,,3,3.0
GeSe4Ag2Ho,0.0,-0.0271097,,3,3.0
Li2O7SrNb2,2.135,-0.0142417,,3,3.0
Si2Rh2Sm,0.0,-0.0276358,,3,3.0
LiAlAu,0.0,-0.0270445,,3,3.0
BO5PSr,6.1166,-0.0118706,,3,3.0
O11Na2Si4Cu2,1.8233,-0.0101763,,3,3.0
Ni3Zn,0.0,-0.0156088,,3,3.0
F4CuTl2,0.0,-0.0267164,,3,3.0
H5PdBa2,0.0,-0.0166713,,3,3.0
Ge2TmOs,0.0,-0.0410120999999999,,3,3.0
Ge2RuIn3Er3,0.0,-0.0367237999999999,,3,3.0
AgSb2La,0.0,-0.0380833,,3,3.0
BNRhBa,0.0,-0.0232948999999999,,3,3.0
ZnPd7,0.0,-0.0305427,,3,3.0
AlPt2Pa,0.0,-0.0631801,,3,3.0
KAsSn,0.6785,-0.0219386,,3,3.0
Si2CoHo2,0.0,-0.0278188,,3,3.0
TiCu2Ga,0.0,-0.0160119,,3,3.0
O8F2P2VCr,0.0037,-0.0106547999999999,,3,3.0
LiCu2As2Ce,0.0,-0.0203964999999999,,3,3.0
Si2Fe2Y,0.0,-0.0174253,,3,3.0
O2Na3Ag,1.5143,-0.0105972,,3,3.0
NFeTa3,0.0,-0.0460424,,3,3.0
B2O6BaEr,0.0,-0.0171946,,3,3.0
CrSe4Ta,0.0,-0.0283403999999999,,3,3.0
N2HoU,0.0,-0.0444044,,3,3.0
Se4Tb3,0.0,-0.0335078,,3,3.0
SnAu2Ac,0.0,-0.0669504,,3,3.0
CuLuPb,0.0,-0.0493392,,3,3.0
Al3Dy2Au,0.0,-0.0320962,,3,3.0
GeBrCe,0.0,-0.0290071,,3,3.0
O9ScTi2Ba2Bi,2.4948,-0.0203515,,3,3.0
NiPd2Lu3,0.0,-0.0421742,,3,3.0
Cu2As2RbDy,0.0,-0.0239819,,3,3.0
Ca3Ga7Ag2,0.0,-0.0176044,,3,3.0
SrAuHg2,0.0,-0.0575498,,3,3.0
CuGaLa2,0.0,-0.0298295,,3,3.0
Si2Ir3Th,0.0,-0.0559473,,3,3.0
PdSn4Ir2,0.0,-0.0458557,,3,3.0
O8P2CuCd2,1.9746,-0.0132583,,3,3.0
Li2Mg2BaTl2,0.0,-0.0288078,,3,3.0
H8MnCd2Nd,0.9546,-0.0126835,,3,3.0
Cl2Eu,1.0975,-0.0258637,,3,3.0
MgInBa,0.0,-0.0263933,,3,3.0
SCs2Hg,2.0459,-0.0392214,,3,3.0
Ni3Rh2Tm,0.0,-0.0283088,,3,3.0
Al3Sc3CuGe2,0.0,-0.0139663,,3,3.0
NiSb2Dy6,0.0,-0.042621,,3,3.0
LiVRh2,0.0,-0.0223855,,3,3.0
PTi2I2,0.0,-0.0241983,,3,3.0
Ga6RhPr,0.0,-0.0225142999999999,,3,3.0
Na2TiTe3,0.3341,-0.0235992,,3,3.0
H3O3La,4.338,-0.0124213,,3,3.0
Be2Re,0.0,-0.0270161,,3,3.0
Al4Tc,0.0,-0.0136438,,3,3.0
Al10Fe2Y,0.0,-0.0112364,,3,3.0
S3CuSnDy,1.4102,-0.0224639,,3,3.0
FeGe2Y,0.0,-0.0215979,,3,3.0
N4Hf3,1.2038,-0.0340888,,3,3.0
Sc3PdIr2,0.0,-0.0374613,,3,3.0
O6MgCrTm2,0.3637,-0.0196831,,3,3.0
CuGa2Rb,0.0,-0.0172939,,3,3.0
Zn2In2Gd,0.0,-0.0309236,,3,3.0
In3Lu3Pt2,0.0,-0.0519072,,3,3.0
OSCoBa,0.1256,-0.0199254,,3,3.0
Al3Si2MnSm3,0.0,-0.0223085999999999,,3,3.0
Au4HgPu,0.0,-0.0760367,,3,3.0
PdIn5Th,0.0,-0.0426669,,3,3.0
Ag2InLu,0.0,-0.0382535,,3,3.0
O5S2Ti2Y2,1.0066,-0.0157701,,3,3.0
HLi3Ag,0.0,-0.0086275,,3,3.0
YPdIn,0.0,-0.0323033,,3,3.0
LiSc2Pd,0.0,-0.0164284,,3,3.0
K2Se3Ta,0.0,-0.0250276,,3,3.0
S4Ti3V,0.0,-0.0144307999999999,,3,3.0
AgAu2Hg,0.0,-0.0594655,,3,3.0
O6Si2Cr,0.0432,-0.0110938,,3,3.0
Pd3Te2,0.0,-0.0350363,,3,3.0
B2Co2La,0.0,-0.0189633,,3,3.0
PdIn2Ir,0.0,-0.0429416,,3,3.0
DyPb3,0.0,-0.0691912,,3,3.0
MnCoTe,0.0,-0.0245203999999999,,3,3.0
H8Mg2CrDy,0.0,-0.0089714,,3,3.0
Si2Zr6Ru,0.0,-0.0271792,,3,3.0
MgAlIr2,0.0,-0.0396321,,3,3.0
CoGa3Sm2,0.0,-0.0264649,,3,3.0
S3ScAgCs,0.0,-0.0199767,,3,3.0
Sc3Ga2Rh4,0.0,-0.0243784999999999,,3,3.0
Co2Ga3Sr,0.0,-0.0179930999999999,,3,3.0
P12Ru4Ce,0.0003,-0.0189194,,3,3.0
Li2SbBa,0.0,-0.0211097,,3,3.0
OGeCe3,0.0,-0.0333032,,3,3.0
KCuBr2,1.5893,-0.0166828,,3,3.0
Hf3Ir2Hg,0.0,-0.0671811,,3,3.0
AlNb4,0.0,-0.0281861999999999,,3,3.0
N2ZnGe,2.2049,-0.0131259999999999,,3,3.0
K2I6Pu,0.0,-0.0397575,,3,3.0
SiLu2Ir3,0.0,-0.0568761999999999,,3,3.0
Al3CoGe2Pa3,0.0,-0.0423642,,3,3.0
O7P2CaCo,1.9212,-0.0108635,,3,3.0
MgZr3Ru2,0.0,-0.0282731,,3,3.0
Pd2Te,0.0,-0.0346536,,3,3.0
CaIn2Au,0.0,-0.0370996,,3,3.0
CrAsTe,0.8703,-0.0256602,,3,3.0
B2N3Pd2La3,0.0,-0.0250346,,3,3.0
BeFeRe,0.0,-0.0312826,,3,3.0
Li3P2Ce,0.0,-0.0131758,,3,3.0
SeBi,0.0,-0.0495886,,3,3.0
ScZrIr4,0.0,-0.0558056,,3,3.0
OIU,0.0,-0.0508598,,3,3.0
Zr5Sn,0.0,-0.0317835,,3,3.0
Cu2RuHo3,0.0,-0.0357767,,3,3.0
MgCuSm,0.0,-0.0217655,,3,3.0
Si5Lu2Ir3,0.0,-0.0384677999999999,,3,3.0
CrGe3Tm,0.0,-0.0258961,,3,3.0
PdPm,0.0,-0.0392412,,3,3.0
ClAs2Ag,0.6203,-0.020154,,3,3.0
Li2SiGd,0.0,-0.0188081,,3,3.0
H2O7P2Ca,6.4037,-0.0091278,,3,3.0
Al3Pr2Ir2,0.0,-0.0369558,,3,3.0
Li2O10V5,0.0,-0.011618,,3,3.0
S3CuNbTl,0.0,-0.0256511,,3,3.0
ZrRh2Pt,0.0,-0.043106,,3,3.0
Zr2Pt2Tl,0.0,-0.0558559,,3,3.0
O6TiZrBa2,2.7339,-0.0198239,,3,3.0
Si2KAg2,0.0,-0.0181216,,3,3.0
NGeHf3,0.0,-0.044527,,3,3.0
O8Rb3Tb,0.0,-0.0146442999999999,,3,3.0
Zr6OsBi2,0.0,-0.046424,,3,3.0
MnY,0.0,-0.0229627,,3,3.0
LiO4VNb,0.0,-0.0136918,,3,3.0
AgAu2Pb2,0.0,-0.0642475,,3,3.0
ZnHo2Os,0.0,-0.0462909,,3,3.0
ClSe2CdBi,1.4879,-0.0320718,,3,3.0
Na2TlBi,0.1291,-0.0401964,,3,3.0
B2CPd2Eu,0.0,-0.0245615,,3,3.0
MnGa3Ge2Lu3,0.0,-0.0308465,,3,3.0
F6ScIr,2.5567,-0.0161241999999999,,3,3.0
O6Ta2Hg,2.5378,-0.0289337,,3,3.0
CoIn4La,0.0,-0.0326529,,3,3.0
Fe2GaTh,0.0,-0.0374192,,3,3.0
Al4ErPt,0.0,-0.0261331,,3,3.0
PSrPb,0.0,-0.036965,,3,3.0
Br6Rb2Ho,0.0,-0.0247549,,3,3.0
Be2C,1.5048,-0.0065815,,3,3.0
Os5Ir,0.0,-0.0717606,,3,3.0
Li2NaIn2,0.0,-0.0154548,,3,3.0
MnRhPd2,0.0,-0.029681,,3,3.0
Y6RuBi2,0.0,-0.0405645,,3,3.0
Mg2CaSb2,1.0362,-0.0196183,,3,3.0
Mg2EuAc,0.0,-0.0386115,,3,3.0
AsSn,0.0,-0.028066,,3,3.0
RhCsTl3,0.0,-0.0578706,,3,3.0
RbTe2Pa,0.0,-0.0496767,,3,3.0
MgCu2Y2,0.0,-0.0185076,,3,3.0
InSbPb2,0.0,-0.0554854,,3,3.0
NiBr4,0.0298,-0.019006,,3,3.0
Al3Ge2ReTh3,0.0,-0.0472961,,3,3.0
Mg2Ga2Sn,0.0,-0.0158337,,3,3.0
Sc6RhTl2,0.0,-0.0298999,,3,3.0
O6TiCoPr2,0.0,-0.0188577,,3,3.0
Ni4CdTb,0.0,-0.0239775999999999,,3,3.0
O5S2Gd2Hf2,2.466,-0.0300766999999999,,3,3.0
AsTeHo,0.3228,-0.0367554,,3,3.0
SiRhCe,0.0,-0.030413,,3,3.0
S3NiRbTa,0.0,-0.0231517,,3,3.0
Ru5Pt4,0.0,-0.0505957,,3,3.0
Cl6FeRb3,0.0,-0.0144179999999999,,3,3.0
Ga2TbOs,0.0,-0.0383915,,3,3.0
LiPZnSe4,2.0085,-0.0158298,,3,3.0
PNi5Pb,0.0,-0.0239929999999999,,3,3.0
Rh2LaPr,0.0,-0.0391741,,3,3.0
P3Zn3Sm,0.1966,-0.0172943,,3,3.0
Pr,0.0,-0.0433259,,3,3.0
SbCe2Au3,0.0,-0.0565833,,3,3.0
Ga2Ho,0.0,-0.0279921,,3,3.0
LiSe2Lu,1.9661,-0.0263623,,3,3.0
ZrRu2Hf,0.0,-0.0416405,,3,3.0
BaAuPb2,0.0,-0.0656873999999999,,3,3.0
Cl6Rb2Ru,0.0,-0.0152205999999999,,3,3.0
Ca3Pd2Tl3,0.0,-0.0395446,,3,3.0
GaAg2Ac,0.0,-0.042716,,3,3.0
NInDy2,0.0,-0.0358208,,3,3.0
Cl4K2Pt,2.2341,-0.0184791,,3,3.0
CuNb2Pd,0.0,-0.0286903,,3,3.0
PCrNi,0.0,-0.0156022,,3,3.0
C4NiBa3,0.0,-0.0219995,,3,3.0
RhIr8,0.0,-0.0669617,,3,3.0
SeGd,0.0,-0.0413782,,3,3.0
Be2Pd2Cd,0.0,-0.0214423,,3,3.0
ZnDy3Au2,0.0,-0.0500874,,3,3.0
ZnRh2Lu,0.0,-0.034951,,3,3.0
Cd2InLa2,0.0,-0.0365806,,3,3.0
Al5Cu2Lu,0.0,-0.0159307,,3,3.0
GaPd2Pu,0.0,-0.0484731,,3,3.0
CNd2,0.0,-0.0326087,,3,3.0
NiSn5Ce,0.0,-0.0346314,,3,3.0
MoHf2Au,0.0,-0.0577802,,3,3.0
O8P2BaNd,0.0,-0.0157618,,3,3.0
LiCaZn2,0.0,-0.0100217,,3,3.0
Si3Mn2Cu,0.0,-0.013864,,3,3.0
MgZn4,0.0,-0.0118362,,3,3.0
CIEr,0.0,-0.0333624999999999,,3,3.0
InTl2,0.0,-0.0593346,,3,3.0
Cu2GdTl,0.0,-0.0405641,,3,3.0
CuGaIn,0.0,-0.0215925,,3,3.0
Tb2Pt,0.0,-0.0557291,,3,3.0
Ga3Pd2Pr,0.0,-0.0271563,,3,3.0
Pd2SnAu,0.0,-0.0430013,,3,3.0
Si2Fe3Ho,0.0,-0.0211193,,3,3.0
O4AgIr,0.0,-0.0217068,,3,3.0
ScCd2,0.0,-0.0253655,,3,3.0
Ni4TmTl,0.0,-0.0317573,,3,3.0
SSbTb,0.0,-0.0327984999999999,,3,3.0
Y3Ru2Cd,0.0,-0.0310679,,3,3.0
Fe2Zn3,0.0,-0.0153324999999999,,3,3.0
Ru2AgPr3,0.0,-0.0387198,,3,3.0
Cr4Mn5,0.0,-0.0182285,,3,3.0
Zr2CdSn,0.0,-0.0323764,,3,3.0
TiNbMo2,0.0,-0.0298143999999999,,3,3.0
MgAgLa2,0.0,-0.0308282,,3,3.0
Mg2ZnTb,0.0,-0.0177846,,3,3.0
Zn2Sr3Cd,0.0,-0.0209768,,3,3.0
H6CoSm2,0.0,-0.0146491,,3,3.0
CoRu,0.0,-0.0258799,,3,3.0
CrCo3Zr2,0.0,-0.0221171,,3,3.0
KAgTe3Er,0.0,-0.0346284,,3,3.0
HCa3Sn,0.0,-0.014206,,3,3.0
Ge2Y2Hg,0.0,-0.0332417,,3,3.0
Ti2ZnPt2,0.0,-0.0380982,,3,3.0
Mg3Cu2Zn,0.0,-0.0099324999999999,,3,3.0
Ca2SrI6,4.1046,-0.0308991,,3,3.0
O4S2TiCu2Bi2,0.6912,-0.023815,,3,3.0
Al2NiTm,0.0,-0.0215956,,3,3.0
CSiRu2Pr,0.0,-0.0272487,,3,3.0
YAg4Tl,0.0549,-0.03782,,3,3.0
O7TiI2,2.3371,-0.0145202,,3,3.0
LiNi2Mo,0.0,-0.0173354,,3,3.0
Mg2Tl3,0.0,-0.0454720999999999,,3,3.0
F6MnMo,0.0,-0.0119858,,3,3.0
O4SeHg2,1.6554,-0.0264922,,3,3.0
BTmIr2,0.0,-0.0511776,,3,3.0
AlTiFeIr,0.7885,-0.0292394,,3,3.0
ScCoAs,0.0,-0.0181949,,3,3.0
CaAgPb2,0.0,-0.0484786,,3,3.0
Cl2SePr2,0.0,-0.0267292999999999,,3,3.0
AsCePr,0.0,-0.0371523,,3,3.0
Te2Tb6Pt,0.0,-0.0482863,,3,3.0
TiTc2Re,0.0,-0.039687,,3,3.0
PdCdBa,0.0,-0.0347881,,3,3.0
O2F2ClK,4.1058,-0.0071325,,3,3.0
OSr3Ag,0.0,-0.0221433,,3,3.0
SePtPb,0.0,-0.0557988,,3,3.0
TbPtPb,0.0,-0.0653059,,3,3.0
LiO4CrNb,0.0,-0.0137668,,3,3.0
PCl2Rh,2.3097,-0.0159468,,3,3.0
H2CdPt2,0.0,-0.0355811,,3,3.0
PVRu,0.0,-0.02166,,3,3.0
Ni2Rh3Tm,0.0,-0.031279,,3,3.0
Ga2DyIr2,0.0,-0.0454063,,3,3.0
AsSe2Zr2,0.0,-0.025758,,3,3.0
P2NiRb4,0.7309,-0.0174956,,3,3.0
Ti2MoHg,0.0,-0.033949,,3,3.0
O6Si2CaCu,0.8032,-0.0109162,,3,3.0
CaPmPt2,0.0,-0.0496862,,3,3.0
Co3Mo,0.0,-0.0215669,,3,3.0
Mg2LuAc,0.0,-0.0389602,,3,3.0
ZrCe,0.0,-0.0375116999999999,,3,3.0
NiZrCd,0.0,-0.0261852,,3,3.0
LiAg,0.0,-0.0170774,,3,3.0
Mo2Ta3,0.0,-0.054057,,3,3.0
CrFeTe4,0.0,-0.0311133,,3,3.0
N2Ni,0.0,-0.011434,,3,3.0
H3W,0.0,-0.0197749999999999,,3,3.0
B2Mg2MnIr5,0.0,-0.0404642,,3,3.0
Zn2Rh3Nd,0.0,-0.0292211,,3,3.0
Cl6KAsCs2,3.7199,-0.0168762,,3,3.0
Rb3CsAu,0.0,-0.0339665,,3,3.0
GaPu,0.0,-0.0633184,,3,3.0
O6FeGeY2,0.8347,-0.0157903,,3,3.0
O6Ba3W,3.0056,-0.0254254,,3,3.0
Mo3Ta5,0.0,-0.0548472,,3,3.0
CSi2Fe2Tm2,0.0,-0.0249651,,3,3.0
H2NaAg,2.3146,-0.0107143,,3,3.0
InNd2,0.0,-0.0406865,,3,3.0
TmIrBi,0.0,-0.0679897,,3,3.0
S2MnSn,0.0,-0.0189618,,3,3.0
Ni2CuTb2,0.0,-0.0286194,,3,3.0
KSe6Zr3,0.0,-0.0236142,,3,3.0
In3Sn2Dy3Ir,0.0,-0.0437177999999999,,3,3.0
Rb2CdBi2,0.0,-0.0461338,,3,3.0
Se3InSm4,0.0,-0.0356272,,3,3.0
O4MnNd,1.1536,-0.0171317,,3,3.0
Zn2PrEu,0.0,-0.0313423,,3,3.0
Ga2RuPd,0.0,-0.025518,,3,3.0
SNiSb,0.0,-0.0213625,,3,3.0
C10YLa4,0.0,-0.0203753,,3,3.0
O6Na2Si2Ba,4.8606,-0.0124528,,3,3.0
MgSrLa,0.0,-0.0234464,,3,3.0
MnCu2SnTe4,0.0,-0.0294309,,3,3.0
MgEr2Au2,0.0,-0.049783,,3,3.0
F6PdAg,0.6708,-0.0120536,,3,3.0
O6NiPdTm2,1.0633,-0.0213589,,3,3.0
LiGa2Y,0.0,-0.0162653,,3,3.0
H7LiMg2Os,3.7352,-0.0102932,,3,3.0
Cl2La2Bi,0.0,-0.038066,,3,3.0
LiMgSb,1.4501,-0.0154985,,3,3.0
O6AlRbI,0.0,-0.0127409,,3,3.0
O4MgAlFe,1.9544,-0.0106403,,3,3.0
CCo2La2Pb2,0.0,-0.0407417,,3,3.0
MgCuLa2,0.0,-0.0267297,,3,3.0
CaInSb,0.0,-0.0273764,,3,3.0
Al3LaIr2,0.0,-0.0356871999999999,,3,3.0
Nd2HgTl,0.0,-0.0575801,,3,3.0
InPt3,0.0,-0.0613873,,3,3.0
Si2Co3Hf,0.0,-0.0230446999999999,,3,3.0
ZnPdTb2,0.0,-0.0356439999999999,,3,3.0
ZnEr2Ir2,0.0,-0.0522722,,3,3.0
AlNiZnHf,0.0,-0.0255275,,3,3.0
Co3GePa2,0.0,-0.0454674,,3,3.0
GeCsBi,0.1909,-0.0453669,,3,3.0
LiSi2Tm2,0.0,-0.0258685,,3,3.0
CaZrTl2,0.0,-0.0466455,,3,3.0
O9Ba3Er4,3.7969,-0.0270395,,3,3.0
Sn2EuEr,0.0,-0.0446696,,3,3.0
Mn3Te8,0.0,-0.0322995,,3,3.0
PRhTm,0.0,-0.0334042,,3,3.0
Tb2AuHg,0.0,-0.0585942,,3,3.0
Sb2CsBi2,0.0,-0.0540895,,3,3.0
AlSiSc,0.0,-0.011272,,3,3.0
O8U3,0.016,-0.0361079999999999,,3,3.0
Al2TiPt,0.0,-0.0264005,,3,3.0
Ru2Ho,0.0,-0.0399341999999999,,3,3.0
Cl6Cs2HgTl,0.0,-0.0277825999999999,,3,3.0
O8P2KHf,0.0,-0.0145135,,3,3.0
Fe2Tm3,0.0,-0.0383074,,3,3.0
F7Na3Tb,0.139,-0.0108051,,3,3.0
P2Cu2Er,0.0,-0.0211159,,3,3.0
Al4PdLu,0.0,-0.0205277,,3,3.0
Co2ZnEu2,0.0,-0.0310141,,3,3.0
TcRh5,0.0,-0.0340608,,3,3.0
Al3Si2NiTh3,0.0,-0.0391528,,3,3.0
O2Pr,0.0,-0.0214609999999999,,3,3.0
Na2GaAg2,0.0,-0.0175197,,3,3.0
FGeBr,3.3728,-0.0152985,,3,3.0
LiYPd2,0.0,-0.0246616999999999,,3,3.0
GeSn2Te3,0.1152,-0.0339213,,3,3.0
NaP2Ni2,0.0,-0.0120246,,3,3.0
GaIrNp,0.0,-0.0652193,,3,3.0
Mn2CoPt,0.0,-0.0315757,,3,3.0
Ni2Ga2Er,0.0,-0.0237123,,3,3.0
GaY2Ru,0.0,-0.0272718999999999,,3,3.0
CoZn2Tb,0.0,-0.0229479,,3,3.0
O6MgNb2,4.114,-0.0148677,,3,3.0
CuSrSn2,0.0,-0.0278249,,3,3.0
GeBr2,2.4375,-0.0198745,,3,3.0
ZnTcGd2,0.0,-0.0416517,,3,3.0
Li2AsHg,0.0,-0.0237795,,3,3.0
AlSr2Cd,0.0,-0.0209272,,3,3.0
CPRu2Er,0.0,-0.0288646,,3,3.0
B6Cr2Zr,0.0,-0.0129792,,3,3.0
Co2SnHf,0.0,-0.0337492,,3,3.0
RuSn4Pt2,0.0,-0.0459203,,3,3.0
BeAl2Tc,0.0,-0.0141659,,3,3.0
H3OBr,5.0617,-0.0080137,,3,3.0
Se3AgBa2,0.0,-0.029917,,3,3.0
Ce3Pb,0.0,-0.0528166,,3,3.0
H16Mg7V,0.0,-0.0046742,,3,3.0
Sc2FeTa,0.0,-0.0282977,,3,3.0
CoDy6Bi2,0.0,-0.0517593,,3,3.0
Ge4Rh4Dy3,0.0,-0.0333081999999999,,3,3.0
HZnHf3,0.0,-0.0412463,,3,3.0
O8Mo2NdTl,4.1355,-0.0220142999999999,,3,3.0
H5ZnCs3,2.9098,-0.0163495,,3,3.0
NiIr5,0.0,-0.0618663,,3,3.0
Ge2RbIr2,0.0,-0.040582,,3,3.0
Cu2Ge2Ho,0.0,-0.0240956,,3,3.0
K2SnI6,0.0595,-0.0312044,,3,3.0
V2Se2Rb,0.0,-0.0200768,,3,3.0
Br6Cs2Tm,0.0,-0.0289199,,3,3.0
TlBi3,0.0,-0.0768893,,3,3.0
O4BrSb2Dy,0.9366,-0.0229827,,3,3.0
Al5Pd2Dy,0.0,-0.0198104,,3,3.0
Nb2Te3,0.0,-0.0360754999999999,,3,3.0
K2CdPt2,0.0,-0.0376493,,3,3.0
CdInCe,0.0,-0.0365535,,3,3.0
CoNiAs,0.0,-0.0180558,,3,3.0
Ag2CdGd,0.0,-0.0382625,,3,3.0
B2Ir2Pt,0.0,-0.0456727,,3,3.0
YPd2La,0.0,-0.0349964,,3,3.0
Ni5Ga3,0.0,-0.0165964,,3,3.0
Li2O8TiV3,0.0,-0.0115577,,3,3.0
Li3Br5Rb2,5.1422,-0.0164011999999999,,3,3.0
Si3NiGd,0.0,-0.0216778,,3,3.0
Sr2RhTe,0.0,-0.0297203,,3,3.0
BePFe2,0.0,-0.0131252,,3,3.0
H4PtU,0.0,-0.0314042999999999,,3,3.0
Al8CaMn4,0.0,-0.0114754,,3,3.0
B2LuOs3,0.0,-0.0480661,,3,3.0
GeRh3Gd2,0.0,-0.0406324,,3,3.0
Cu3SrPt2,0.0,-0.035093,,3,3.0
Sc2CoAg,0.0,-0.019666,,3,3.0
SAsPr,0.1529,-0.0261665999999999,,3,3.0
NaCu3Te2,0.4188,-0.0209919,,3,3.0
O6ZnHoBi2,0.0,-0.0274797,,3,3.0
Cl6K2ScRb,4.6701,-0.0121541,,3,3.0
BTi3Sn,0.0,-0.0188395,,3,3.0
LiP2CeAu2,0.0,-0.0352093,,3,3.0
F6AlGa,7.1421,-0.0089818,,3,3.0
CuPd3,0.0,-0.0284426,,3,3.0
H2SiCo2,0.0,-0.0103976,,3,3.0
LiO7As2Nb,3.1203,-0.0127693999999999,,3,3.0
Li4O8P2Co,1.9022,-0.0088963,,3,3.0
YTa2Ir2,0.0,-0.0614981999999999,,3,3.0
O3SePt,1.5994,-0.0224312,,3,3.0
Ru2CdTa,0.0,-0.0418949,,3,3.0
Li2Se2Ir,0.0,-0.0237415999999999,,3,3.0
K3RbHg,0.0,-0.0228874,,3,3.0
Se4ZrHf,0.4924,-0.0304496,,3,3.0
CdAuU,0.0,-0.067839,,3,3.0
CuSb2Hf6,0.0,-0.0522117,,3,3.0
CaAu2Ac,0.0,-0.0605881,,3,3.0
Ni2Te3Pb,0.0,-0.0368753,,3,3.0
Zr2RuAg,0.0,-0.0322975,,3,3.0
MgRh2Sm,0.0,-0.0299408,,3,3.0
Ga3Ge2RuLa3,0.0,-0.0287042,,3,3.0
H3ScOs,1.2057,-0.0197853999999999,,3,3.0
Ga2SrTe4,0.3434,-0.0299451,,3,3.0
Ge2YRh2,0.0,-0.0277753,,3,3.0
Pm3Hg,0.0,-0.0503494,,3,3.0
Ge2PrOs2,0.0,-0.045578,,3,3.0
Si2CoPa,0.0,-0.0349118,,3,3.0
F2RbI,2.355,-0.0181022999999999,,3,3.0
LiOsAc2,0.0,-0.0638033,,3,3.0
O4Cu2Sb2Te2Tm,0.0,-0.0247702,,3,3.0
FSHo,1.5616,-0.0240301,,3,3.0
CaNiSe3Er,0.0,-0.0243247,,3,3.0
SbTb2,0.0,-0.044485,,3,3.0
O4SeCd,2.2935,-0.0135673999999999,,3,3.0
HSiRuCe,0.0,-0.0240355999999999,,3,3.0
LiN2As,3.7768,-0.0105686,,3,3.0
F8InHo2,0.0,-0.0183058,,3,3.0
CY4I5,0.0,-0.0317754,,3,3.0
KSn4,0.0,-0.030547,,3,3.0
NNa2Ir,0.0,-0.0223613,,3,3.0
K2Au2Pb,0.0,-0.0464660999999999,,3,3.0
ScRh2Tl,0.0,-0.0391901,,3,3.0
MgCo4Sm,0.0,-0.0197977999999999,,3,3.0
Al5Ca5Tl,0.0,-0.0148605,,3,3.0
Te2Hf6Re,0.0,-0.0584061,,3,3.0
CRu3Dy,0.0,-0.0327403,,3,3.0