formula,bg,formation_energy,mp-id,fidelity,bg_category
Al3Sc2Ni,0.0,-0.0119332,,3,3.0
BrSb2Au,0.0,-0.0410457,,3,3.0
Pd2Ho2Hg,0.0,-0.0472742,,3,3.0
MgCu2Lu,0.0,-0.0229567,,3,3.0
HSeLa,2.5067,-0.0239548,,3,3.0
Ga2Ru4Dy3,0.0,-0.0355305,,3,3.0
LiF2K,7.162,-0.0074492,,3,3.0
Ge2Zr2Rh,0.0,-0.0276565,,3,3.0
Al3Si2ZnTh3,0.0,-0.0387285,,3,3.0
ZnDy6Tl2,0.0,-0.0498005,,3,3.0
Cu2Ga5Th,0.0,-0.026327,,3,3.0
Li2S4CdSn,2.4327,-0.014684,,3,3.0
SiCaHg,0.0,-0.0297646,,3,3.0
H3LiSr,2.3816,-0.0076214,,3,3.0
Ru2InDy2,0.0,-0.0402237,,3,3.0
Pd2SnCe,0.0,-0.0373412,,3,3.0
CBr2Gd2,0.4016,-0.0347102,,3,3.0
Mg2SrAc,0.0,-0.0307343,,3,3.0
Mg2Cu2As4Sr3,0.586,-0.0180753,,3,3.0
Ti2VMn3,0.0,-0.0175897,,3,3.0
Ca2GePt3,0.0,-0.0425931,,3,3.0
LiCl6Cs2Sm,5.4099,-0.0194117,,3,3.0
GeRuTb,0.0,-0.0343829,,3,3.0
VCoNb,0.0,-0.0227454,,3,3.0
Cu2InPr2,0.0,-0.0304874,,3,3.0
Li2F8ScTh,0.3128,-0.0156845,,3,3.0
OINd,4.0577,-0.031805,,3,3.0
AsPdBa,0.0,-0.0318953,,3,3.0
Sc2Zr3,0.0,-0.0240454,,3,3.0
Li2O6CrW,0.0,-0.0153039,,3,3.0
InSbTl2,0.0,-0.0538254,,3,3.0
Se8La5Tl,1.5313,-0.0341442,,3,3.0
Na2GePd2,0.0,-0.0189876,,3,3.0
Be12Nb,0.0,-0.0067055,,3,3.0
Ge2Sr3Sn2,0.0,-0.0258633,,3,3.0
O6Sr2RuRh,0.2481,-0.0170707999999999,,3,3.0
TiGe2Nb2,0.0,-0.0247576,,3,3.0
Zr2TaRe,0.0,-0.0499639,,3,3.0
P2CuEu,0.0,-0.023153,,3,3.0
BRh6Pr2,0.0,-0.0335927,,3,3.0
PdSn2Pr,0.0,-0.0378209,,3,3.0
B2O6DyPb,0.1624,-0.0201401,,3,3.0
Cu2Ga3Lu,0.0,-0.0228798999999999,,3,3.0
LiO2CoCs,0.032,-0.0154009,,3,3.0
Li5O10Fe2Ir2,0.0,-0.0149003,,3,3.0
BrTeDy,1.4808,-0.0365987,,3,3.0
O4AlTi2,0.0,-0.012301,,3,3.0
CaSrRh,0.0,-0.0221302,,3,3.0
SiPd2Pu,0.0,-0.0469780999999999,,3,3.0
Rh2EuTm,0.0,-0.0439628,,3,3.0
KAs2Pd2,0.0,-0.0234453999999999,,3,3.0
Al3Ce2Pt,0.0,-0.0313451,,3,3.0
SiI2Ho2,0.041,-0.0375229,,3,3.0
BeScRh2,0.0,-0.0224146,,3,3.0
Ni2GaNp2,0.0,-0.0525997,,3,3.0
Se2Mo2Te4W,0.7887,-0.0368422,,3,3.0
Li2CuAu,0.0,-0.0226729,,3,3.0
O7As2Cd2,2.1555,-0.0145633999999999,,3,3.0
CrCoNi,0.0,-0.0171634,,3,3.0
SiPm2Tl,0.0,-0.0430469999999999,,3,3.0
Br3Tb,4.3499,-0.0283553,,3,3.0
Al3NiGe2Nb3,0.0,-0.0201716,,3,3.0
O5Cu2BaTb,0.0,-0.0185547,,3,3.0
MgIr3,0.0,-0.0549076,,3,3.0
Al3NiGe2Tm3,0.0,-0.0267194,,3,3.0
TeLa7,0.0,-0.0427173,,3,3.0
AlSrAg,0.0,-0.0207818,,3,3.0
FeGa3Ge2Zr3,0.0,-0.022533,,3,3.0
O6TbBi2,0.0,-0.0284119,,3,3.0
SbLuTh,0.0,-0.0635349,,3,3.0
LiP2YAu2,0.0,-0.03245,,3,3.0
TeBaPt,0.0,-0.0502989999999999,,3,3.0
H3RhTb,0.0,-0.0189001,,3,3.0
SiCo2Ac,0.0,-0.0340531,,3,3.0
NFeRb,0.0,-0.0160653,,3,3.0
MgTl2Th,0.0,-0.0615833999999999,,3,3.0
RbIn2Tl2,0.0,-0.0466137,,3,3.0
Sr2PtTl,0.0,-0.0474794,,3,3.0
AlNi6Pd,0.0,-0.0173901,,3,3.0
FeAsHf2,0.0,-0.0415501,,3,3.0
Ga6PtU,0.0,-0.0343175,,3,3.0
CSSc2,0.0,-0.0135875,,3,3.0
H3NiSr,0.0,-0.0102135,,3,3.0
Si2Tb2Pb,0.0,-0.0385224,,3,3.0
F4NiBa,2.6295,-0.0148696,,3,3.0
LiSiEr,0.0,-0.0215406,,3,3.0
CuSrHg,0.0,-0.03557,,3,3.0
AsBr2Pt,0.0,-0.032729,,3,3.0
PS5TiTl,1.089,-0.0192024,,3,3.0
ClSbTe2,0.1617,-0.0301972,,3,3.0
In3BaIr,0.0,-0.0426019,,3,3.0
Ge2RhEr,0.0,-0.031449,,3,3.0
RuPdHf2,0.0,-0.0490185,,3,3.0
PdCdSb,0.0,-0.0338901,,3,3.0
NFSi2Ca6,0.3373,-0.0103039,,3,3.0
ZnGeAc2,0.0,-0.053847,,3,3.0
BCFeZr,0.0,-0.0172002,,3,3.0
Ca3ZnSe4,2.4552,-0.0169678,,3,3.0
Sb2Nd6Pt,0.0,-0.0460705,,3,3.0
CuEu2Ir,0.0,-0.0486891,,3,3.0
Cu4SnLu,0.0,-0.0255952,,3,3.0
MgInCe,0.0,-0.0280689,,3,3.0
La3Ir2,0.0,-0.0550866,,3,3.0
LiP2Ni2Th,0.0,-0.0262253,,3,3.0
Pt7Bi,0.0,-0.0711423,,3,3.0
MgZn2Pu,0.0,-0.0355384,,3,3.0
OZnSbHo,0.2757,-0.0283438,,3,3.0
CaNi4Sb2,0.0,-0.0216276,,3,3.0
Zr2BaBi2,0.0,-0.0521972,,3,3.0
S4K3Bi,1.2959,-0.0186409,,3,3.0
H2Zr2Rh,0.0,-0.0211411,,3,3.0
CSi2Cr2La,0.0,-0.0187878,,3,3.0
VSe3Rb2,0.8777,-0.021064,,3,3.0
S3KMnEr,0.8976,-0.0194189,,3,3.0
O6CrFeBi2,0.6436,-0.0247188,,3,3.0
H12O9MgTe,4.5721,-0.0073292,,3,3.0
Si2Ta2Os,0.0,-0.045535,,3,3.0
KSb2Tl,0.0,-0.0390086,,3,3.0
Mg2Pd2Pb,0.0,-0.0307856,,3,3.0
F6CaPt,3.3237,-0.0151708,,3,3.0
OI2Re,0.0,-0.038193,,3,3.0
BePIn,0.0,-0.0161079,,3,3.0
BaPtPb2,0.0,-0.0660029,,3,3.0
Se3Rh2Tl,0.0,-0.0337421,,3,3.0
SiY2Pt2,0.0,-0.0425781,,3,3.0
ScNi2Te3,0.0,-0.026979,,3,3.0
F4NaBa,0.0,-0.0125496,,3,3.0
Mg2PrDy,0.0,-0.0253691,,3,3.0
Ga2RuTh6,0.0,-0.0718598999999999,,3,3.0
O6MgTa2,3.2898,-0.0226066,,3,3.0
FeAsZr,0.0,-0.0238093,,3,3.0
VZrW,0.0,-0.0393965,,3,3.0
O6CaRuBa2,0.0,-0.0185333,,3,3.0
NSiY3,0.0,-0.0217133,,3,3.0
H8Mg3Ba,3.0589,-0.007147,,3,3.0
Na2Pd,0.0,-0.01383,,3,3.0
SiEu,0.0,-0.0324878,,3,3.0
LiO7As2Ce,0.0022,-0.0139953,,3,3.0
NAlTh3,0.0,-0.061659,,3,3.0
Si2NdPt,0.0,-0.0346215,,3,3.0
CGe2Ho2Os2,0.0,-0.0421292,,3,3.0
Ge2Pr2Pb,0.0,-0.0409688,,3,3.0
N3CoBa3,0.0,-0.0239747999999999,,3,3.0
Cu2CdPr3,0.0,-0.0320228,,3,3.0
P4VMn3,0.0,-0.0148809,,3,3.0
Si2Pr2Tl,0.0,-0.0364596,,3,3.0
Al3Ge2Ho2,0.0,-0.0233601999999999,,3,3.0
Li4InBa,0.0,-0.0139365,,3,3.0
Co6As4Sr,0.0,-0.0190643,,3,3.0
LiGeTb,0.0,-0.0235125,,3,3.0
Ca3Hg2,0.0,-0.033692,,3,3.0
PtHg2,0.0,-0.0688889999999999,,3,3.0
Mg2RbSb2,0.0,-0.0215477,,3,3.0
CPTa3,0.0,-0.0447316,,3,3.0
Ga2CdPt,0.0,-0.0337788,,3,3.0
N2MnZn,0.743,-0.012949,,3,3.0
Li8O6Zr,5.5751,-0.0082373,,3,3.0
Li2GeSe4Pb,1.8031,-0.0232986,,3,3.0
Mg2NiBa,0.0,-0.0164644,,3,3.0
Sc2CdRe,0.0,-0.0327924999999999,,3,3.0
CaAu4Hg,0.0,-0.0595522,,3,3.0
Ga,0.0,-0.016357,,3,3.0
Al3Si2NiNd3,0.0,-0.0218187,,3,3.0
Ru5Ta,0.0,-0.0402340999999999,,3,3.0
Pd2Sn2Pu,0.0,-0.0499246,,3,3.0
BNi2La,0.0,-0.0210882,,3,3.0
SiSPu,0.0,-0.0442035,,3,3.0
Be2Nb2Mo,0.0,-0.0221675,,3,3.0
Sb2LaTl,0.0,-0.0481305,,3,3.0
Li2GaSn,0.0,-0.0146016,,3,3.0
Ag5Pt6,0.0,-0.0525101,,3,3.0
Ca2SnAu2,0.0,-0.0396141999999999,,3,3.0
InAu8,0.0,-0.0652429,,3,3.0
Li2Mg2SrPb2,0.0,-0.0274496,,3,3.0
CrNbPt2,0.0,-0.0486358,,3,3.0
Al3Ag,0.0,-0.013702,,3,3.0
Zr2Pt3,0.0,-0.0556536,,3,3.0
AsSe4RbAg2,0.2636,-0.0233919,,3,3.0
CSi2SrMo2,0.0,-0.0206319,,3,3.0
GaIHo,0.0,-0.0351673,,3,3.0
SCu3I,1.0136,-0.0185258,,3,3.0
F6RbHf,0.0,-0.0162494,,3,3.0
VCr2W,0.0,-0.0310717,,3,3.0
PS4Cl2Ag5,1.8935,-0.0188356,,3,3.0
BO3FZnBa,4.1639,-0.0146153999999999,,3,3.0
Ti6CuSe2,0.0,-0.0174849,,3,3.0
SbHfTh,0.0,-0.0659044,,3,3.0
Cu2SrIr,0.0,-0.0310729,,3,3.0
SiPu,0.0,-0.0602804,,3,3.0
FeBrTm,0.0,-0.0307823,,3,3.0
Ga3Pd2Ba,0.0,-0.0263955,,3,3.0
ScZn2Pb,0.0,-0.0295771,,3,3.0
O6Mg2K3Sb,3.8189,-0.01129,,3,3.0
CPTa2,0.0,-0.0391674999999999,,3,3.0
Zr2Te,0.0,-0.0335167,,3,3.0
O6CrSbEu2,0.0,-0.0225977,,3,3.0
N2UPu,0.0,-0.0593142,,3,3.0
O6FeBa2Pr,0.8046,-0.0204495,,3,3.0
F5SnTb,3.0173,-0.0176747,,3,3.0
O8CoMo2Tl,2.481,-0.0192541,,3,3.0
Br6Cs2Pb,0.3824,-0.0310249999999999,,3,3.0
NaSe8Nb6,0.0,-0.0252206,,3,3.0
Co4Ge6Ce,0.0,-0.021108,,3,3.0
As2OsTh6,0.0,-0.0771408,,3,3.0
Ti2RuRh,0.0,-0.026043,,3,3.0
Ni4RhW,0.0,-0.0280761,,3,3.0
Si2Ba,0.9208,-0.020227,,3,3.0
AlPr2Ir2,0.0,-0.0482581,,3,3.0
Ni2La2Hg,0.0,-0.03778,,3,3.0
Ni5ZnSb,0.0,-0.0188769,,3,3.0
RuSnHo,0.0,-0.0405705,,3,3.0
S2KLu,2.669,-0.0228786,,3,3.0
Na3Ga,0.0,-0.0072222,,3,3.0
NaCa3Rh,0.0,-0.0136298999999999,,3,3.0
O7Ge2Tm2,4.5908,-0.0197345,,3,3.0
Ni2Nb2Cd,0.0,-0.0259061999999999,,3,3.0
CaInTl,0.0,-0.038932,,3,3.0
C3Mo2Pa2,0.0,-0.0431146,,3,3.0
O4TiHo,0.0,-0.0181901,,3,3.0
CaI4Sm,0.0,-0.0350421,,3,3.0
FeYSb2,0.0,-0.0306208,,3,3.0
P2CuTb,0.0,-0.0216606999999999,,3,3.0
Mg2SrIr2,0.0,-0.0352368,,3,3.0
H6CrCe2,0.0,-0.0147105,,3,3.0
ScMnNi3Zr,0.0,-0.0191006999999999,,3,3.0
HLiC3Ca2,1.5432,-0.008281,,3,3.0
Si2Cu3Sr,0.0,-0.0148991,,3,3.0
BY2Pt6,0.0,-0.0549172999999999,,3,3.0
Sc2OsHg,0.0,-0.0428249,,3,3.0
Sn4Ba,0.0,-0.0370067,,3,3.0
S8CoMo2Re2,0.7491,-0.0242718,,3,3.0
Na5Pt,0.0,-0.0152394,,3,3.0
NaBr6Cs2Pr,4.6478,-0.026035,,3,3.0
SrRh5,0.0,-0.0318946,,3,3.0
N2Zn2Eu,0.0,-0.0203393,,3,3.0
In2PrLu,0.0,-0.0419403,,3,3.0
LiF6Na2Ru,0.0,-0.0091796,,3,3.0
C4CeNd,0.0,-0.0216794,,3,3.0
CaHg7,0.0,-0.0610606,,3,3.0
Al3Si2FeDy3,0.0,-0.0234077,,3,3.0
Cl4CuTl2,0.8598,-0.0283128,,3,3.0
ONa3Hg,0.0,-0.0182566999999999,,3,3.0
N2DyTm,0.3273,-0.0316229,,3,3.0
Ge3PdPu,0.0,-0.040417,,3,3.0
Si3Fe5,0.0,-0.0154641999999999,,3,3.0
GaSm2Au2,0.0,-0.0496427,,3,3.0
Fe2Ni2Ga,0.0,-0.017188,,3,3.0
GeAs2Ba,0.1702,-0.0254251,,3,3.0
ScPdIn5,0.0,-0.0309911,,3,3.0
B2CEr,0.0,-0.0194781,,3,3.0
NiGa3Ge2Y3,0.0,-0.0215928,,3,3.0
SiPrAu2,0.0,-0.048698,,3,3.0
GeRh2In,0.0,-0.0305322,,3,3.0
MgPd2Tm2,0.0,-0.0357312,,3,3.0
AlGaAc2,0.0,-0.0516241,,3,3.0
KZn2Pb2,0.0,-0.0375088,,3,3.0
Sc6ZnSb2,0.0,-0.0199262,,3,3.0
S3Hf2,0.0,-0.032574,,3,3.0
OZnSbGd,0.2955,-0.03075,,3,3.0
Ni3Pa,0.0,-0.0374095,,3,3.0
FeSbPa,0.3888,-0.0520635,,3,3.0
O6Zr2Th,4.9708,-0.0254766,,3,3.0
C2BrTm2,0.0,-0.0295842999999999,,3,3.0
YAgTl,0.0,-0.0443091,,3,3.0
Y6InSb2,0.0,-0.0313329,,3,3.0
H7MgNi4Nd,0.0,-0.0108382,,3,3.0
F3ClSn2,3.236,-0.0170645,,3,3.0
ZnLuAu2,0.0,-0.0525807,,3,3.0
Al2Sc2La,0.0,-0.0177556,,3,3.0
F2SeBa2,3.17,-0.0246065,,3,3.0
B3CrMn,0.0,-0.0122338,,3,3.0
Ge2Pt,0.0,-0.0365790999999999,,3,3.0
Zn3Au,0.0,-0.0276237,,3,3.0
SIPt,0.0,-0.0391319,,3,3.0
O7Nb2CsEu,0.0,-0.0210962,,3,3.0
SiZnPd2,0.0,-0.0228322,,3,3.0
MgGa2Nd2,0.0,-0.0255607,,3,3.0
Te6TmU,0.0,-0.0480769999999999,,3,3.0
Mg7Hg,0.0,-0.0129601,,3,3.0
Al3MnGe2Zr3,0.0,-0.0197317,,3,3.0
HO3Sb,1.8886,-0.0131484,,3,3.0
CY2Sb,0.0,-0.0265615,,3,3.0
Hf3Os2Hg,0.0,-0.0673179,,3,3.0
PCeTb,0.0,-0.0350769,,3,3.0
AlNi4La,0.0,-0.0197159,,3,3.0
Ga4PdEr,0.0,-0.0253911,,3,3.0
F6NaAlTl2,4.9462,-0.0207306999999999,,3,3.0
ZrPdBi2,0.0,-0.0555141,,3,3.0
SbTbDy,0.0,-0.044825,,3,3.0
Ni2LuPt,0.0,-0.0402157,,3,3.0
ZnSe3TmTl,2.2857,-0.0342414,,3,3.0
CaSrAu,0.0,-0.0343608,,3,3.0
Ca2Rh3,0.0,-0.0245248,,3,3.0
O2MnRb3,0.6798,-0.0167647,,3,3.0
B2Mn7Ho3,0.0,-0.0244298,,3,3.0
Al3Si2Tm3Au,0.0,-0.0305804,,3,3.0
O6SrMo2Ba,0.0,-0.0194836,,3,3.0
NaIn2Ba2,0.0,-0.0303821,,3,3.0
Cu3AsTe4,0.0,-0.0268963,,3,3.0
SiCoHf,0.0,-0.0307982,,3,3.0
DyPt5,0.0,-0.0672281,,3,3.0
As2RuNp,0.0,-0.0459861,,3,3.0
NiZnBa2,0.0,-0.0272286,,3,3.0
CoSe2Ag,0.0916,-0.0224622999999999,,3,3.0
Mg2Sb2Ho,0.0,-0.0273089,,3,3.0
CaGaCd,0.0,-0.01932,,3,3.0
Cd2Pt,0.0,-0.0440363,,3,3.0
NiRb2Sb2,0.2325,-0.0268279,,3,3.0
Al8V5,0.0,-0.0117784,,3,3.0
O8As2CsPu,0.0,-0.0217285,,3,3.0
ZnI2,2.844,-0.0296055,,3,3.0
F4KTb,7.6832,-0.0154862,,3,3.0
ZnSe2Rb2,2.6607,-0.0202189,,3,3.0
ScNi5As,0.0,-0.0168374,,3,3.0
AlGdPt2,0.0,-0.0530724999999999,,3,3.0
H6CrHf2,0.0,-0.0185885,,3,3.0
AlTe,1.1449,-0.0229225999999999,,3,3.0
ClSm,0.0,-0.027892,,3,3.0
GaTb3,0.0,-0.0394679,,3,3.0
H3LiBa,2.7771,-0.0110782,,3,3.0
CuGePt2,0.0,-0.0439787,,3,3.0
OCa4Sb2,1.1847,-0.0188445,,3,3.0
ScInHg,0.1913,-0.0391751999999999,,3,3.0
OCdSbCe,0.1131,-0.0314103,,3,3.0
MgHo2,0.0,-0.0343763,,3,3.0
Ag4LaHg,0.0,-0.0397291,,3,3.0
Ga6TmAu,0.0,-0.0277275,,3,3.0
F6K3Cd,0.0,-0.0101401,,3,3.0
KSn3,0.0,-0.0291847,,3,3.0
Rh2Sn3Lu3,0.0,-0.0435917,,3,3.0
Sn2Au2Tl,0.0,-0.0565651999999999,,3,3.0
CaGePt,0.0,-0.0340809,,3,3.0
LiSiNi,0.0,-0.009952,,3,3.0
O8Mo2LaTl,4.2135,-0.0219946,,3,3.0
CaSbAu,0.0,-0.0396972,,3,3.0
Al4Ge2Sr3,0.0,-0.0154894,,3,3.0
BCScCu,0.0,-0.0122011,,3,3.0
Si2Sb2Dy5,0.0,-0.0380434,,3,3.0
Li3Al4,0.0,-0.0055241,,3,3.0
Sr2YAu2,0.0,-0.0429155,,3,3.0
HPm,0.0,-0.0242069,,3,3.0
NaCu2As2Dy,0.0,-0.0212158,,3,3.0
NaNi2Sb2Th,0.0,-0.0350535,,3,3.0
O4PLa,5.946,-0.0164036,,3,3.0
P2Pd2Tb,0.0,-0.0276422999999999,,3,3.0
In2PrAu,0.0,-0.0455553999999999,,3,3.0
GaPdPu,0.0,-0.0535968,,3,3.0
Si6Co4Er,0.0,-0.0168285,,3,3.0
B2Co3Nd,0.0,-0.0187047999999999,,3,3.0
O6NiCuLa2,0.0,-0.0179485,,3,3.0
HScSe2,1.3765,-0.0156197,,3,3.0
FeNb,0.0,-0.0256491,,3,3.0
Cl3Ba,0.0,-0.0179209,,3,3.0
Na2RbCd2,0.0,-0.0180387999999999,,3,3.0
PBrEu2,0.0,-0.0360621,,3,3.0
B2Fe2Er,0.0,-0.0207058,,3,3.0
CaPd4Cd,0.0,-0.0290431,,3,3.0
H12B3Al,6.4473,-0.0045822,,3,3.0
ZnRbAu2,0.0,-0.0434301,,3,3.0
KSe3AgDy,0.0,-0.0258846,,3,3.0
GaPd2Tb2,0.0,-0.036051,,3,3.0
CCa2Ge2Os2,0.0,-0.0306917,,3,3.0
Si2FeEu,0.0,-0.0234071,,3,3.0
RhTe2Hf6,0.0,-0.0544316,,3,3.0
Al2RhHf,0.0,-0.0288729,,3,3.0
N2OHf2,2.3403,-0.0324995,,3,3.0
MnFe4Ta,0.0,-0.0263731,,3,3.0
Al2Ni3Cu,0.0,-0.0136965,,3,3.0
Ca2MnIr2,0.0,-0.0364846,,3,3.0
Co2Ga3Hf,0.0,-0.024718,,3,3.0
Sn2Sb2Eu,0.0,-0.0403678,,3,3.0
Ca2Ni2La,0.0,-0.0190214,,3,3.0
Zn2InBi2,0.0,-0.0433945,,3,3.0
Cl6ScSe4,0.0,-0.0138388,,3,3.0
OsTh3,0.0,-0.0902109,,3,3.0
O6Ba2IrU,1.2662,-0.0318643,,3,3.0
BRh6Ce2,0.0,-0.0340786,,3,3.0
F6NaPdTl2,0.0,-0.0222553,,3,3.0
NaCl6NiCs2,0.0,-0.0160063,,3,3.0
HO5F2NaAlPCa,6.2494,-0.0091224,,3,3.0
B2O7CaFe2,1.7503,-0.0110349,,3,3.0
BRu3Tm,0.0,-0.0331445999999999,,3,3.0
Se3Ta,0.0,-0.0323584,,3,3.0
Zn2YLa2,0.0,-0.0284564,,3,3.0
S4TiCoCu,0.0,-0.0133394,,3,3.0
HPCs,2.2329,-0.0176533,,3,3.0
VCrCo,0.0,-0.0176907,,3,3.0
SiS4CrCu2,0.0587,-0.0127812,,3,3.0
Ca2ZnSn,0.0,-0.0177509,,3,3.0
CoGeNp,0.0,-0.0479698,,3,3.0
AlMnRuHf,0.0,-0.0315027,,3,3.0
P2S6VAg,0.1378,-0.0132468,,3,3.0
B3O6La,5.8073,-0.0133049999999999,,3,3.0
PSc2Br,0.0,-0.0160702,,3,3.0
O6Sr2EuIr,0.0,-0.0230234,,3,3.0
RbTe,1.1919,-0.0299773,,3,3.0
CoSe4Nb2,0.0,-0.0241482999999999,,3,3.0
KSe2Zr,0.0,-0.0213304,,3,3.0
S7GeSb4,0.5016,-0.0198294,,3,3.0
O6Si2CaMn,2.616,-0.0115146,,3,3.0
H6CrPr2,0.0,-0.0144987,,3,3.0
C2INd2,0.0,-0.0296157,,3,3.0
Ga2SrHg2,0.0,-0.0387008,,3,3.0
LiClHg2,0.7758,-0.0375850999999999,,3,3.0
KGe2Cd2,0.0,-0.0216131,,3,3.0
GaPd2Dy,0.0,-0.0333949,,3,3.0
F6CrPu,0.0,-0.0220855,,3,3.0
MgLa4,0.0,-0.0355154,,3,3.0
SnBaPt2,0.0,-0.0547628,,3,3.0
HLi3Sb,0.0,-0.0100550999999999,,3,3.0
CrSe4Tl3,0.0,-0.0399144,,3,3.0
F6PrGd,6.4188,-0.0196007999999999,,3,3.0
Rb2CdTe4Pb,0.1642,-0.0377531,,3,3.0
MgLa7,0.0,-0.0383709,,3,3.0
LiCu4Zr,0.0,-0.0158001,,3,3.0
CdPrBi2,0.0,-0.0582487,,3,3.0
Li2O4AlV,0.0,-0.0096417,,3,3.0
Se6RbTh2,0.0,-0.038638,,3,3.0
MgKTe3Er,1.9049,-0.0305547,,3,3.0
Na2Si2Cu,0.0,-0.0086925,,3,3.0
CIHo2,0.0,-0.0370915,,3,3.0
Br6AgCs2Ir,0.7164,-0.0304972,,3,3.0
MgSi2Er,0.0,-0.0192744,,3,3.0
AgIn,0.0,-0.0323594,,3,3.0
Al3Fe,0.0,-0.0106097999999999,,3,3.0
LiAs2Au,0.0,-0.0282398,,3,3.0
Se8Nb6Sn,0.0,-0.0271896999999999,,3,3.0
CuGa6U,0.0,-0.0272031,,3,3.0
Zn2Y3Ru,0.0,-0.0247033999999999,,3,3.0
AgLu,0.0,-0.0437665999999999,,3,3.0
Ca2CdSb2,0.3155,-0.0257364,,3,3.0
PLa2Tl,0.0,-0.043396,,3,3.0
O6Ca2SbHo,4.5107,-0.0172460999999999,,3,3.0
O3SiTc,0.8119,-0.0142169,,3,3.0
K2ZnSe4Sn,2.0872,-0.0192571,,3,3.0
In2Pr,0.0,-0.0373646,,3,3.0
Sb2LaIr2,0.0,-0.0527856,,3,3.0
OSNp,0.0,-0.0432513999999999,,3,3.0
C2Ho3Tl,0.0,-0.0403936,,3,3.0
F6KSrCs2,0.0,-0.0156462,,3,3.0
Sb3Pb5,0.0,-0.061265,,3,3.0
F8BaNd2,7.6963,-0.0184278,,3,3.0
F6InPt,1.1793,-0.0175351,,3,3.0
LiP2Cu2La,0.0,-0.0170206,,3,3.0
K2CdTl,0.0,-0.0300136,,3,3.0
Si2Ru2Sn,0.0,-0.0255244,,3,3.0
LiNa2As2,0.0,-0.0107508999999999,,3,3.0
In2PrIr,0.0,-0.0459754,,3,3.0
O3MnIn,0.0,-0.0160462,,3,3.0
GaRh8,0.0,-0.0319296,,3,3.0
HTc3W,0.0,-0.0355842,,3,3.0
F8ClSb,3.8778,-0.0090342,,3,3.0
Si2RhIn3Er3,0.0,-0.0346351,,3,3.0
Cl3VTl,0.3886,-0.0241529999999999,,3,3.0
Pd2EuTl,0.0,-0.0484701,,3,3.0
Li2CaCu2,0.0,-0.0089916,,3,3.0
O2BrNb,1.8774,-0.0184712,,3,3.0
Zn2GaBa,0.0,-0.0210291999999999,,3,3.0
MgZnPd,0.0,-0.0176118,,3,3.0
Ru2HoLu,0.0,-0.0440275,,3,3.0
N2STi2,0.0,-0.0136667,,3,3.0
O6FeBa2Sm,0.7374,-0.0206169,,3,3.0
Si2CaBa,0.0,-0.0177767,,3,3.0
PCl6KCs2,3.2587,-0.0157847,,3,3.0
Br2TeLa2,0.0,-0.0343694,,3,3.0
HSnLa3,0.0,-0.0343484,,3,3.0
SrPdCd2,0.0,-0.0295057,,3,3.0
ZnRh2Gd,0.0,-0.0355637,,3,3.0
Zr2Pt2Hg,0.0,-0.0550512,,3,3.0
MgGa2Y2,0.0,-0.0193395,,3,3.0
NiGaPa,0.0,-0.0445864,,3,3.0
Sb3Pu,0.0,-0.0556946,,3,3.0
Cu3Cd4,0.0,-0.0238420999999999,,3,3.0
CrCoNi2,0.0,-0.0169587,,3,3.0
O4Rh2Cd,1.4763,-0.0186606,,3,3.0
Mg4Ca2Zn,0.0,-0.0076006,,3,3.0
KNiTl3,0.0,-0.0483492,,3,3.0
LiInLu,0.0,-0.0307894,,3,3.0
Al2SrRh3,0.0,-0.0240593,,3,3.0
Si2Ga3Lu3Os,0.0,-0.034834,,3,3.0
OSb2Ba4,0.842,-0.0358087999999999,,3,3.0
O2K2CsPt,0.344,-0.0239927999999999,,3,3.0
S4CoCu3,0.0,-0.0129197,,3,3.0
Ru2InNp,0.0,-0.0525462,,3,3.0
PRhLa2,0.0,-0.0337923,,3,3.0
O6Sr2PtPu,0.0,-0.0286527,,3,3.0
Li4P4La3,0.0,-0.0176354,,3,3.0
Rh5Np,0.0,-0.0461973,,3,3.0
Si2Fe2Lu,0.0,-0.0229154,,3,3.0
PdSn5Gd,0.0,-0.0390696,,3,3.0
LiSr,0.0,-0.0123263,,3,3.0
F6CdU,0.0,-0.0225232,,3,3.0
O5CuSe2,1.0057,-0.0116464999999999,,3,3.0
O5Ge2Cd,2.2754,-0.014151,,3,3.0
Al5Ti4Co2,0.0,-0.0129253,,3,3.0
Mn2NiPt,0.0,-0.0313136,,3,3.0
ZnTcTb2,0.0,-0.035722,,3,3.0
O2NiRb5Te,0.0,-0.0200027,,3,3.0
NiBa2Au,0.0,-0.0414437,,3,3.0
Se3Y4Pb,0.0,-0.0326663,,3,3.0
Li2SnIr,0.0,-0.0284402,,3,3.0
NiGaHo,0.0,-0.0278808,,3,3.0
NMn3Cu,0.0,-0.0161391,,3,3.0
Rh7Ta,0.0,-0.0381706999999999,,3,3.0
Ca2FePt2,0.0,-0.0363924,,3,3.0
ZnMoHf2,0.0,-0.0436411,,3,3.0
SiNiZr2,0.0,-0.0226361,,3,3.0
Li3O8MgNi4,0.0,-0.0096709,,3,3.0
BTi2Rh6,0.0,-0.0276869,,3,3.0
AgBa2Au,0.0,-0.0454789,,3,3.0
NInEu3,0.0,-0.0415602,,3,3.0
Ag5Pt4,0.0,-0.0486195,,3,3.0
LiMgPdSb,0.0,-0.0200196,,3,3.0
H2Pt2Au,0.0,-0.0431456,,3,3.0
Al2Sc3Ni4,0.0,-0.0142762,,3,3.0
TiFeRuIr,0.0,-0.0356533999999999,,3,3.0
MnRh2Pt,0.0,-0.0393952,,3,3.0
P2Rb2SrCd,1.0005,-0.0198196,,3,3.0
BCRuNp,0.0,-0.0399557,,3,3.0
Li2GaRh,0.0,-0.0142735,,3,3.0
ScCu3,0.0,-0.0151855,,3,3.0
NiHoHg,0.0,-0.0449328,,3,3.0
Ge2InLu2,0.0,-0.037158,,3,3.0
BaErPb,0.0,-0.055813,,3,3.0
NiGe2,0.0,-0.0183425,,3,3.0
Li2O6NbTe,0.0,-0.0132813,,3,3.0
SiSc2Co,0.0,-0.0144742,,3,3.0
TiFeNiGa,0.0,-0.0171699,,3,3.0
Fe2Co2Y,0.0,-0.0198128999999999,,3,3.0
GeTc2Ta,0.0,-0.0393721,,3,3.0
Na2RbHg2,0.0,-0.0333590999999999,,3,3.0
ZrTe3Cs,0.0,-0.0369457,,3,3.0
N2S3Sc4,1.6035,-0.0137633,,3,3.0
Be2VW2,0.0,-0.0333091,,3,3.0
PrAu2Tl,0.0,-0.0641958,,3,3.0
Fe2CdCe2,0.0,-0.0311539,,3,3.0
B2C2Sr,0.5419,-0.0118565,,3,3.0
CaAs2Pt2,0.0,-0.0389812999999999,,3,3.0
Ga3Rh2Ho2,0.0,-0.0315943,,3,3.0
PCrIr,0.0,-0.0337217,,3,3.0
AlGeW,0.0,-0.0322464,,3,3.0
InTb2,0.0,-0.0427912,,3,3.0
GaRh2Ce2,0.0,-0.0354827999999999,,3,3.0
H8FeZn2Dy,0.0,-0.010208,,3,3.0
Se3Bi4,0.0,-0.0537246,,3,3.0
As2Hf6Re,0.0,-0.0548141,,3,3.0
F3CuCs,1.0707,-0.0150507,,3,3.0
Ni2Lu2Tl,0.0,-0.043645,,3,3.0
Si7Pd2Pr3,0.0,-0.022774,,3,3.0
Ti2Co3Ru,0.0,-0.0200639,,3,3.0
ClHg3,0.0,-0.0533562,,3,3.0
Si2Zr2Tc,0.0,-0.0241832999999999,,3,3.0
MgTmHg2,0.0,-0.0489213,,3,3.0
PdAgHf4,0.0,-0.0528208,,3,3.0
Mg2CrSb,0.0,-0.0165411,,3,3.0
TiFeTe,1.2854,-0.0243397,,3,3.0
O7KLaTa2,2.6739,-0.0239378,,3,3.0
B2W,0.0,-0.0285031,,3,3.0
H2Sc2Pd,0.0,-0.0144742999999999,,3,3.0
Ru2DyHf,0.0,-0.0457162,,3,3.0
CoY2Ir2,0.0,-0.0438405,,3,3.0
SiZrSm,0.0,-0.0290354,,3,3.0
O3SrU,0.0,-0.0321008,,3,3.0
O6ScBa2Au,1.8546,-0.022334,,3,3.0
ZnTl2Th6,0.0,-0.0816566,,3,3.0
ScY2In2,0.0,-0.0279303999999999,,3,3.0
CuBrSm,0.0,-0.0274588,,3,3.0
O2FCu2,0.0,-0.0101225,,3,3.0
Sn2CePu,0.0,-0.0571457,,3,3.0
Ti2RhPt,0.0,-0.0349600999999999,,3,3.0
NiY2Pd,0.0,-0.0268261,,3,3.0
BeWIr2,0.0,-0.0546694,,3,3.0
Ni2Sb,0.0,-0.0233361,,3,3.0
O3RbRhSm,0.0,-0.0217909,,3,3.0
ZnSr2Sb,0.0,-0.0245675,,3,3.0
O6K2Cd2Te,2.176,-0.0153207,,3,3.0
S8Cr5Rb,0.8649,-0.0147631,,3,3.0
H6Eu2Re,0.0,-0.0226573999999999,,3,3.0
FeIrPu2,0.0,-0.0774544,,3,3.0
SiSr2Pt,0.0,-0.0320171,,3,3.0
CaScCo4,0.0,-0.0155234,,3,3.0
OF5NaCs2Hf,5.7404,-0.0200181,,3,3.0
ScIr5,0.0,-0.0621071,,3,3.0
Fe3NiDy2,0.0,-0.0278338999999999,,3,3.0
NaCs2Au,0.0,-0.0374337999999999,,3,3.0
BNdIr3,0.0,-0.0534325,,3,3.0
NaSnBi,0.0,-0.0397755,,3,3.0
CuGaSm,0.0,-0.0258998,,3,3.0
B4WTh,0.0,-0.03307,,3,3.0
HOClCo,0.0,-0.0096166,,3,3.0
P2Cu2RbTb,0.0,-0.0206079,,3,3.0
Er3Os2Au,0.0,-0.0613064,,3,3.0
B2O6F3Sm3,6.2943,-0.0176837,,3,3.0
SnSm3,0.0,-0.0428336,,3,3.0
Cl6Cs3Sm,5.5117,-0.0229124,,3,3.0
MgPd2Nd3,0.0,-0.0341242,,3,3.0
As2YPd2,0.0,-0.0276841,,3,3.0
C2AlV3,0.0,-0.0139972999999999,,3,3.0
N2CaNb,0.0,-0.0166678,,3,3.0
MoRh,0.0,-0.0345314,,3,3.0
AsBrPb2,0.0,-0.0482017,,3,3.0
CdSnHg2,0.0,-0.0505986,,3,3.0
Si2RuNd,0.0,-0.0255101,,3,3.0
AlRhLu,0.0,-0.0333736,,3,3.0
BFe2Ga2Sm,0.0,-0.0205531,,3,3.0
O3Y2,4.7088,-0.0188144999999999,,3,3.0
SnEr3,0.0,-0.0472095,,3,3.0
F6KBr,4.1686,-0.0076976,,3,3.0
CaSbHg2,0.0,-0.0463001,,3,3.0
Al3Pd2Lu,0.0,-0.024974,,3,3.0
SPd,0.2089,-0.0216699,,3,3.0
MgSnIr2,0.0,-0.0461512,,3,3.0
Ge4Pt,0.0,-0.0294694,,3,3.0
Br4AuTl2,0.0,-0.0422447,,3,3.0
O3NaCu2,0.0,-0.0098824,,3,3.0
Si2Mn2YLa,0.0,-0.0218565,,3,3.0
K3Br6Tl,1.8586,-0.0226992,,3,3.0
Ni2GaNb,0.0,-0.0208893,,3,3.0
Si2Rh2Eu,0.0,-0.0293508,,3,3.0
Sc2FeLa,0.0,-0.0224275,,3,3.0
Co2AsHf,0.0,-0.0298812,,3,3.0
F3CdIn,2.8661,-0.0170297,,3,3.0
Zn2Pd3Ho,0.0,-0.0297379,,3,3.0
Mg2TeI2,2.1174,-0.0251946,,3,3.0
O3PdEr,0.4335,-0.0225968,,3,3.0
S4CoNi2,0.0,-0.0131271,,3,3.0
CSiTmRe2,0.0,-0.0433251,,3,3.0
Mg2S8TiMn3,0.0,-0.0125002999999999,,3,3.0
ZnIr2Th2,0.0,-0.0704095,,3,3.0
N6V2Pr3,0.0,-0.0215825,,3,3.0
Al4RhTb,0.0,-0.0193803,,3,3.0
SbSmPu,0.0,-0.0646925,,3,3.0