formula,bg,formation_energy,mp-id,fidelity,bg_category
Fe2PdI8,0.7679,-0.0332332,,3,3.0
GeAs2Se6Cs2,0.7408,-0.0238211,,3,3.0
Al5RuEr,0.0,-0.0182897,,3,3.0
C2O6CaRb2,5.1685,-0.0120588,,3,3.0
B2Ti2Os,0.0,-0.0247506999999999,,3,3.0
TiNi,0.0,-0.0165636,,3,3.0
HNNd2,0.0,-0.0260444,,3,3.0
LiOSr3,0.0,-0.0161868,,3,3.0
Co4InCe,0.0,-0.0245511,,3,3.0
SiRuLa,0.0,-0.0301905,,3,3.0
Ag2In7Ba3,0.0,-0.0350452,,3,3.0
Se2MoTe2W,0.6864,-0.0369112,,3,3.0
H5FeEu2,0.0,-0.0183469,,3,3.0
PEuIr,0.0,-0.0461503999999999,,3,3.0
GaOs2Pu2,0.0,-0.0761459,,3,3.0
B2O12K3Nb3,2.6972,-0.0133747,,3,3.0
NiGe2Nb,0.0,-0.0223021999999999,,3,3.0
CeSmBi,0.0,-0.0566584,,3,3.0
Co3GeDy2,0.0,-0.0280789,,3,3.0
Sn2SmLu,0.0,-0.0435966,,3,3.0
SiNi,0.0,-0.0136044,,3,3.0
O4VY,3.2931,-0.0150374999999999,,3,3.0
B3CoNb,0.0,-0.0150686999999999,,3,3.0
Mg5Ru,0.0,-0.0099864,,3,3.0
AlTbHg2,0.0,-0.0481841,,3,3.0
MgS7Er4,1.2311,-0.0250305,,3,3.0
GeSe4Cs2Hg,1.7898,-0.0311975,,3,3.0
BRh6Dy2,0.0,-0.0348008,,3,3.0
Cu2ZnEr,0.0,-0.0238522,,3,3.0
N2CeDy,0.0,-0.0295835,,3,3.0
O7K2PrTa2,0.0,-0.022686,,3,3.0
CuSbI6Cs2,0.0172,-0.0356905,,3,3.0
F4Pt,1.8503,-0.018253,,3,3.0
Co3Cu2Dy,0.0,-0.0218189,,3,3.0
P2Zr6Ir,0.0,-0.0317126,,3,3.0
Rh2SbTe,0.0,-0.0360122,,3,3.0
MnCo3Se4,0.0,-0.0190201999999999,,3,3.0
CoY3La,0.0,-0.0288087,,3,3.0
NaBr2In,2.9647,-0.0202102,,3,3.0
CaGdAu2,0.0,-0.052672,,3,3.0
FeGe3Tb,0.0,-0.0249037,,3,3.0
Rb3CdCs,0.0,-0.0260677,,3,3.0
DyPt3,0.0,-0.0657389,,3,3.0
Sc2Ni2Cd,0.0,-0.0187227,,3,3.0
HGaSrSn,0.5823,-0.0200473,,3,3.0
Ga5PdDy,0.0,-0.0237726,,3,3.0
B2Ru2Pr,0.0,-0.0261515999999999,,3,3.0
AlNb,0.0,-0.0208037999999999,,3,3.0
LiCaPd2,0.0,-0.0198855,,3,3.0
Co2Nb2Ir,0.0,-0.034656,,3,3.0
Al2MnCu,0.0,-0.0126366999999999,,3,3.0
CrMn2I6,0.0,-0.0312867,,3,3.0
Zn5Ru,0.0,-0.0171469,,3,3.0
ZnGa2Dy2,0.0,-0.0289976,,3,3.0
CuSrSn,0.0,-0.0249311,,3,3.0
Sb2PtTh,0.0,-0.0610024,,3,3.0
SnRePa,0.0,-0.0690464,,3,3.0
F6GeHf,5.2168,-0.0160915,,3,3.0
CaAgTe3Nd,0.7984,-0.0340141,,3,3.0
I2Tm,0.0,-0.0430503,,3,3.0
O6Mn3Te,0.0,-0.0146766,,3,3.0
Rh2CdTh,0.0,-0.0490961,,3,3.0
O7Cu2Sr2PrTl,0.0,-0.0200814,,3,3.0
ZrCd2Pb,0.0,-0.0420226,,3,3.0
MgRuPr,0.0,-0.0278896,,3,3.0
ZnGaAc2,0.0,-0.0531117,,3,3.0
NiSb2Hg,0.0,-0.0398136,,3,3.0
N2LaTm,0.447,-0.0301586,,3,3.0
Na2P2Rh,0.0,-0.0132894,,3,3.0
MgEu,0.0,-0.0294057,,3,3.0
YLaPb,0.0,-0.0496171,,3,3.0
NU,0.0,-0.0576881,,3,3.0
Ti4Ni2Ga3,0.0,-0.0166807,,3,3.0
Ga2Rh3Ho,0.0,-0.0313473,,3,3.0
ZrPd2Sb,0.0,-0.0341804,,3,3.0
RbCdCs3,0.0,-0.0328885,,3,3.0
BPd6Tb2,0.0,-0.0339753,,3,3.0
F6InTl3,2.8742,-0.029323,,3,3.0
AlSnEu,0.0,-0.03297,,3,3.0
B2Pd5,0.0,-0.0258399,,3,3.0
SiAgPr2,0.0,-0.0324498,,3,3.0
SiSe3Sn,0.0,-0.0216231,,3,3.0
Si4Sc3Ir4,0.0,-0.0345085,,3,3.0
O7P2Sc,0.1038,-0.0105052,,3,3.0
EuHgTl2,0.0,-0.0669926,,3,3.0
O4ClSb2Sm,1.0253,-0.0211384,,3,3.0
GaY2In,0.0,-0.02702,,3,3.0
FeAgI6Cs2,0.0,-0.0353741,,3,3.0
F6Cs2Sm,0.0,-0.0189442999999999,,3,3.0
CaCuIn6,0.0,-0.0283392,,3,3.0
Mo4Ta,0.0,-0.0413425,,3,3.0
O5Mn2BaTb,0.0,-0.019934,,3,3.0
Mn2CuSb3,0.0,-0.027234,,3,3.0
PdTlPb,0.0,-0.0604651,,3,3.0
Ti2ZnMo,0.0,-0.0203547,,3,3.0
S2CuLa,1.7585,-0.0209439999999999,,3,3.0
In5ErPt,0.0,-0.0415923,,3,3.0
H6Ho2Os,0.0,-0.0217155999999999,,3,3.0
As2AgEr,0.0,-0.0313484,,3,3.0
H10N4O8S2Cd,5.0238,-0.0077559,,3,3.0
Ca2SnTl,0.0,-0.0325661,,3,3.0
LiLuPb,0.0,-0.0451592,,3,3.0
Rh2Er3Tl3,0.0,-0.0551522,,3,3.0
CoGe2In3Tb3,0.0,-0.0335407999999999,,3,3.0
LiMgAlCu,0.0,-0.0078124,,3,3.0
MnNi2Ac,0.0,-0.0355107,,3,3.0
AlZn2Pt,0.0,-0.0269163,,3,3.0
B2O6SnBa,4.4234,-0.0153747,,3,3.0
LiCuZn2,0.0,-0.0113613,,3,3.0
MgTb,0.0,-0.0259517999999999,,3,3.0
OTi3,0.0,-0.0151115,,3,3.0
N5Na3Si3,3.3515,-0.009106,,3,3.0
AlGa3Ge2Er3,0.0,-0.027963,,3,3.0
CaAg2Tb,0.0,-0.0301212,,3,3.0
Si2SrRe4,0.0,-0.0469143,,3,3.0
OAsRhNd,0.0,-0.0280964,,3,3.0
Se3Pt2Pb,0.0,-0.046527,,3,3.0
Se2YAg,1.3099,-0.0262442,,3,3.0
Si2PdHo2,0.0,-0.0311427,,3,3.0
InTm2Au,0.0,-0.0523688999999999,,3,3.0
Ti3Ga3Ru2,0.0,-0.0214372,,3,3.0
O4MgU,2.0014,-0.0254607,,3,3.0
CuGa3Er2,0.0,-0.0281935,,3,3.0
GeCe,0.0,-0.032493,,3,3.0
F5Br,3.5276,-0.0071585,,3,3.0
Te2GdAu,0.1204,-0.0515857,,3,3.0
AuTlBi2,0.0,-0.074681,,3,3.0
O7Al2As2Cs2,3.9555,-0.0158196,,3,3.0
LiAg2Bi,0.0,-0.0360573,,3,3.0
Co2Pr2Hg,0.0,-0.0380159,,3,3.0
S2FeRb2,0.961,-0.0168697,,3,3.0
CN2O2Y2,4.3091,-0.0162838,,3,3.0
ScGa2Os,0.0,-0.0302621,,3,3.0
Ga2TbPt2,0.0,-0.0451176,,3,3.0
F4KEr,7.6336,-0.0160777,,3,3.0
AlBr6Rb2Tl,3.0889,-0.0252656,,3,3.0
PBr2Ce2,0.0,-0.0295373,,3,3.0
InU2,0.0,-0.0800342,,3,3.0
Cl4KAg,1.3667,-0.0129156999999999,,3,3.0
H4Rh3Lu,0.0,-0.0216933,,3,3.0
Li4P4Nd3,0.0,-0.0177267,,3,3.0
PSbTm2,0.0,-0.0392625,,3,3.0
O2RbPr,3.7619,-0.0219331,,3,3.0
Cd4Hg,0.0,-0.0379489,,3,3.0
ONa2,2.4176,-0.0062616,,3,3.0
HBr2Y,4.1007,-0.0192755,,3,3.0
Cl2ZrI2,1.4421,-0.0254648,,3,3.0
H2Ni2Ga,0.0,-0.0112222,,3,3.0
SrPd2Ba2,0.0,-0.0338611,,3,3.0
TlTh,0.0,-0.0843777999999999,,3,3.0
Sr2Ag2Tl,0.0,-0.0362738,,3,3.0
LiCeHg2,0.0,-0.046353,,3,3.0
S3Co2,0.0277,-0.013224,,3,3.0
BeF6RbHo,8.3648,-0.0144553999999999,,3,3.0
P8CrW3,0.0,-0.0262404,,3,3.0
SrCeTl2,0.0,-0.053409,,3,3.0
NaSnEu2,0.0,-0.0373463,,3,3.0
S8Ti4Ni,0.0,-0.0134833,,3,3.0
O5CaV2,0.8716,-0.0123983,,3,3.0
ZnOs2Np2,0.0,-0.074195,,3,3.0
S3ZnInCs,2.2327,-0.0199504,,3,3.0
Co2Dy3Tl3,0.0,-0.0496323,,3,3.0
P2NiHo,0.0,-0.0225421,,3,3.0
Li11TiSb5,0.2038,-0.0140653,,3,3.0
Si2Fe2Pr,0.0,-0.0204155,,3,3.0
CuGa3Y,0.0,-0.0190069,,3,3.0
B2Ir2Au,0.0,-0.04543,,3,3.0
RuTb,0.0,-0.0411789,,3,3.0
MgKPb2,0.0,-0.0415123,,3,3.0
GaRbI2,2.3095,-0.0284444,,3,3.0
SeTa2,0.0,-0.0515521,,3,3.0
GeTeEr,0.0,-0.0365133999999999,,3,3.0
NiCd4,0.0,-0.0275705999999999,,3,3.0
Mn4Co,0.0,-0.0178122,,3,3.0
TeI6Tl2,1.6144,-0.0450959,,3,3.0
FeHf6Tl2,0.0,-0.0600205,,3,3.0
Cu2SnTm2,0.0,-0.0345621999999999,,3,3.0
O6MnNiSm2,1.4011,-0.0189651,,3,3.0
BeFeCo,0.0,-0.0133477,,3,3.0
AsTa,0.0179,-0.0439579,,3,3.0
CN2K2,3.836,-0.0096847999999999,,3,3.0
ONa2Mn2As2,0.0,-0.0140099,,3,3.0
Cd2SnSm2,0.0,-0.0376822999999999,,3,3.0
CoRhIr2,0.0,-0.0483468,,3,3.0
NaPI6Cs2,1.7364,-0.0320126,,3,3.0
I3Sm,3.0928,-0.0402157,,3,3.0
GaYRu,0.0,-0.0269387,,3,3.0
AlLu2Ir2,0.0,-0.0533468999999999,,3,3.0
Br4Rb2Au,0.0,-0.0281202,,3,3.0
RhPbBi,0.0,-0.062783,,3,3.0
F6NaK2Bi,5.2641,-0.014783,,3,3.0
Te4Ho5,0.0,-0.0449021,,3,3.0
Ga3Rh2Nd2,0.0,-0.0299714,,3,3.0
Cd2HoIr,0.0,-0.0456958,,3,3.0
CdBaPb4,0.0,-0.0624295,,3,3.0
Sb2Tb6Os,0.0,-0.048186,,3,3.0
Ga4Sr3Pt4,0.0,-0.0385322,,3,3.0
MnRh2Au,0.0,-0.0389742999999999,,3,3.0
Al3NiGe2Gd3,0.0,-0.0289994,,3,3.0
In2SnPb,0.0,-0.0445219,,3,3.0
F6MnOs,0.0,-0.0160844999999999,,3,3.0
O7V2Ho2,0.4154,-0.019313,,3,3.0
CaSn,0.0,-0.0235256,,3,3.0
ScCu2Tl,0.0,-0.0294464,,3,3.0
Ge3NdHf,0.0,-0.0333981,,3,3.0
C5Ti4Cr,0.0,-0.0140390999999999,,3,3.0
PBr6Cs2,0.0,-0.0235978999999999,,3,3.0
Ni4TaIr,0.0,-0.0340517,,3,3.0
Zn3Ce,0.0,-0.0216172,,3,3.0
H3NBrAg,2.8328,-0.0121598,,3,3.0
GaGeTe,0.4619,-0.0244715,,3,3.0
GaPd8,0.0,-0.0311705,,3,3.0
BMoW,0.0,-0.0376054,,3,3.0
Be5Zr,0.0,-0.0089818,,3,3.0
P2Ca2Zn,1.2739,-0.0118489,,3,3.0
AlMnGe,0.7827,-0.0152422,,3,3.0
GaRuEr2,0.0,-0.0385658,,3,3.0
SiNiRh,0.0,-0.0207247999999999,,3,3.0
Li7O4F2Mn,2.1351,-0.0071283,,3,3.0
LiSc5,0.0,-0.0121624,,3,3.0
MgTlTh,0.0,-0.0580225999999999,,3,3.0
LiOF5V2,0.7879,-0.0099474,,3,3.0
SrAg5,0.0,-0.0300403,,3,3.0
NiAs2Pu,0.0,-0.0422922,,3,3.0
La2Hg2Tl,0.0,-0.0596283,,3,3.0
Bi2Pa,0.0,-0.0857373999999999,,3,3.0
Mo2TcW,0.0,-0.0436261,,3,3.0
P2RbIr2,0.0,-0.037485,,3,3.0
K2Tl2Pb,0.0,-0.0476272,,3,3.0
Al2FeSm,0.0,-0.0198432999999999,,3,3.0
GaLuIr,0.0,-0.0486871,,3,3.0
F2K,1.9489,-0.0070895,,3,3.0
CaTe,1.835,-0.0252911,,3,3.0
O7MgP2Cr,2.3028,-0.010554,,3,3.0
O8ZrMo2,3.6,-0.0162114,,3,3.0
TmAu2Hg,0.0,-0.0653035,,3,3.0
Rh2Dy2Tl,0.0,-0.0478904,,3,3.0
AlRh2Th2,0.0,-0.054365,,3,3.0
PmAu2Pb,0.0,-0.065265,,3,3.0
ScGa5Ru,0.0,-0.0192256,,3,3.0
BeP2Cs4,1.4689,-0.0256946,,3,3.0
Al3ReU2,0.0,-0.0503846,,3,3.0
H2Dy,0.0,-0.0190275,,3,3.0
ClScSe,1.6077,-0.0162141,,3,3.0
CuTb2Au,0.0,-0.0451598,,3,3.0
TeI2Sm2,0.0,-0.0414087,,3,3.0
Zn2AuU,0.0,-0.0500121,,3,3.0
H6CrY2,0.4853,-0.0111424,,3,3.0
C2Cl5Sr4,0.0,-0.015479,,3,3.0
CaNiGe3,0.0,-0.017125,,3,3.0
Al2Zr2Rh,0.0,-0.022853,,3,3.0
CSi2W2Pu,0.0,-0.0467657,,3,3.0
SAgTl,0.6218,-0.0380267,,3,3.0
LiZnAu2,0.0,-0.0390458,,3,3.0
CuSnSb2,0.0,-0.0313428,,3,3.0
GdTbAu2,0.0,-0.0620033,,3,3.0
OTi3Pd,0.0,-0.0188911,,3,3.0
Zn2Ge2Eu,0.0,-0.0242315,,3,3.0
Cu4Ge2Zr3,0.0,-0.0218123,,3,3.0
CoAs2Sm,0.0,-0.0264403,,3,3.0
Mg2RuSm,0.0,-0.0225149,,3,3.0
PTi2As,0.0,-0.0168687,,3,3.0
O2NiRb2,1.818,-0.0153498,,3,3.0
ScCd3,0.0,-0.026664,,3,3.0
Ru2SmLu,0.0,-0.0427627,,3,3.0
O4NiW,1.4165,-0.020456,,3,3.0
CaPd2Pt3,0.0,-0.0482092,,3,3.0
Mg2GaHg,0.0,-0.023885,,3,3.0
RhCdNd,0.0,-0.0365653,,3,3.0
SRbPd2,0.0,-0.0245625,,3,3.0
H2AgLa2,0.0,-0.0254418,,3,3.0
F6KBi,3.2457,-0.0157343,,3,3.0
Fe2Ni,0.0,-0.017539,,3,3.0
B4Fe5Tb2,0.0,-0.0198132,,3,3.0
Li4O12SbTe3,0.0,-0.0131888,,3,3.0
PMnPu,0.0,-0.0469845,,3,3.0
In7LuPt2,0.0,-0.0434397,,3,3.0
Pd5SbPb,0.0,-0.039908,,3,3.0
B2O6GeCd,4.1067,-0.0123212,,3,3.0
MgTbHg2,0.0,-0.0476761,,3,3.0
Pd2In3Ba,0.0,-0.0348290999999999,,3,3.0
O9MoBa3Lu2,2.1275,-0.0246275,,3,3.0
O4Cu2Se2InBi2,0.0,-0.0269207,,3,3.0
Li2P2Ti,0.0,-0.0092015999999999,,3,3.0
NiSrIn5,0.0,-0.0296321,,3,3.0
MgSi2Pd,0.0,-0.0147939,,3,3.0
Mn2Zn,0.0,-0.0167723,,3,3.0
ScRu2Tb,0.0,-0.0331661,,3,3.0
KAgI3,0.0,-0.0306746,,3,3.0
CTeEr2,0.0,-0.0380439,,3,3.0
Be3Nb,0.0,-0.0117881,,3,3.0
CuGa3Eu,0.0,-0.0240852,,3,3.0
MnTe2Ho6,0.0,-0.0436490999999999,,3,3.0
OFPa,0.0,-0.0397519,,3,3.0
O2K2NiRb,1.1469,-0.0121839,,3,3.0
Al3Si2La,0.0,-0.0146508,,3,3.0
KCdPt4,0.0,-0.05348,,3,3.0
FeI3Tl,0.0,-0.0403569,,3,3.0
AlNd,0.0,-0.0261106,,3,3.0
LiKHg2,0.0,-0.0371096999999999,,3,3.0
AlSrSn3,0.0,-0.0278421999999999,,3,3.0
LiScCu4,0.0,-0.0131189,,3,3.0
Mg2Er,0.0,-0.0201544,,3,3.0
O4Cu2Se2SmBi2,0.0,-0.0284437,,3,3.0
LaIr2U,0.0,-0.0729238,,3,3.0
ZrLuOs2,0.0,-0.0580713999999999,,3,3.0
F7KEr2,7.2476,-0.0175374,,3,3.0
NiGaCe,0.0,-0.0262491999999999,,3,3.0
Ge2EuPt2,0.0,-0.0474052,,3,3.0
O3BaHf,4.0705,-0.0278706999999999,,3,3.0
TmPbTh,0.0,-0.075016,,3,3.0
Al2NiTm6,0.0,-0.0383733999999999,,3,3.0
MnCoTc2,0.0,-0.0263836,,3,3.0
N2SU2,0.0,-0.0486863,,3,3.0
B2Co3Ta,0.0,-0.0225705,,3,3.0
Zn4TcTa,0.1061,-0.0261215,,3,3.0
AlZr2Sb3,0.0,-0.030789,,3,3.0
PdPrPb,0.0,-0.0515054,,3,3.0
LiO4ClFeMo,0.0317,-0.0129794,,3,3.0
O6SnBa2Ir,0.0,-0.0243789,,3,3.0
GaHg2Ac,0.0,-0.0612643,,3,3.0
Al2Pd4Nd3,0.0,-0.0317488,,3,3.0
S2AgAu,0.0,-0.03007,,3,3.0
Cu2SnHf2,0.0,-0.0386952,,3,3.0
Ca6PdSb2,0.0,-0.0191608,,3,3.0
OSeSrCd,1.9133,-0.0215946,,3,3.0
Zn4RhLa,0.6337,-0.0222347,,3,3.0
Fe4TaIr,0.0,-0.0352361999999999,,3,3.0
CaZn4Sr,0.0,-0.0145775,,3,3.0
O4AlCaGd,3.6801,-0.0179534999999999,,3,3.0
OK2As2Er2,0.0691,-0.0251567,,3,3.0
B2Rh7Ho3,0.0,-0.0340287,,3,3.0
Cu2GaTh,0.0,-0.0360144,,3,3.0
LiI6Cs2Bi,2.1916,-0.0388297,,3,3.0
Be2GaPd2,0.0,-0.0186590999999999,,3,3.0
AlCo2Pm,0.0,-0.0217922,,3,3.0
Cl6GaRb2Ag,1.2363,-0.0152144999999999,,3,3.0
Li2CaAu,0.0,-0.0214271,,3,3.0
Ni2Ge2Eu,0.0,-0.0254748,,3,3.0
Co2InPa2,0.0,-0.0537604,,3,3.0
NaIn2Tl2,0.0,-0.04319,,3,3.0
Ca2Ni3,0.0,-0.0136926,,3,3.0
AlSiLa2,0.0,-0.0266459,,3,3.0
H4NO4Tc,3.7737,-0.0093971,,3,3.0
InTa3,0.0,-0.0582762999999999,,3,3.0
B4Mn5Y2,0.0,-0.0164984,,3,3.0
S3ScNiBa,0.0,-0.0182626,,3,3.0
Al3MnGe2Nd3,0.0,-0.0240743,,3,3.0
ZnY2Tl,0.0,-0.0359391,,3,3.0
LiK2Hg,0.0,-0.0219592999999999,,3,3.0
STa6,0.0,-0.0587184,,3,3.0
Ag3Sn4,0.0,-0.033875,,3,3.0
ScLaIr4,0.0,-0.0577734,,3,3.0
Co4Sn6Ce,0.0,-0.0300863,,3,3.0
Ga2Ag2Ba,0.0,-0.0273075,,3,3.0
O2K3Au,2.3636,-0.0189675,,3,3.0
B2O5NaBi,4.4155,-0.0164076999999999,,3,3.0
Al2CoRh,0.0,-0.0176238999999999,,3,3.0
O4CrSr2,0.0,-0.0154053,,3,3.0
BeSiPt,0.0,-0.0288705,,3,3.0
B2O8AlFePb2,1.5115,-0.0194935,,3,3.0
O4CuTc,1.5228,-0.0138086,,3,3.0
O2Cl4Cs2Re,0.9878,-0.0228457,,3,3.0
CN2ClEr,3.81,-0.0187747,,3,3.0
HLiNi,0.0,-0.0075148,,3,3.0
AlSnTh,0.0,-0.0469495,,3,3.0
H3SiK,2.373,-0.0059298,,3,3.0
Zn2SrEu,0.0,-0.0259892,,3,3.0
F6SrPa,1.5637,-0.0218952,,3,3.0
ZrCdHf2,0.0,-0.0467192,,3,3.0
B2CRh2Eu,0.0,-0.0249202,,3,3.0
Cl4K2Br2Au,0.0,-0.0184783,,3,3.0
O4ClSb2Gd,1.0685,-0.0229178,,3,3.0
Al5Mn2Y,0.0,-0.0133115,,3,3.0
KPb2,0.0,-0.0536146,,3,3.0
NLu2,0.0,-0.0413492,,3,3.0
CaHg,0.0,-0.0396421,,3,3.0
Fe2PrNp,0.0,-0.0465749,,3,3.0
MgCo4Ta,0.0,-0.0234313,,3,3.0
Co4ZrRu,0.0,-0.0226002,,3,3.0
O6Ca2ErIr,0.0,-0.0202988,,3,3.0
Ga6RuTh,0.0,-0.0290285,,3,3.0
Al3Si2RuPu3,0.0,-0.0457937999999999,,3,3.0
Ni2TmPt,0.0,-0.0392935,,3,3.0
LiCoZnGa,0.0,-0.0125665999999999,,3,3.0
Na2BaBi2,0.0,-0.0416469999999999,,3,3.0
Mg2KBi2,0.0,-0.0354786,,3,3.0
AsZr2Sb,0.0,-0.0308045,,3,3.0
MgTcLa2,0.0,-0.0315394,,3,3.0
CrFe2Rh,0.0,-0.0222205,,3,3.0
HTiMn2Ge,0.0,-0.0154210999999999,,3,3.0
Ru2LuTa,0.0,-0.0485438,,3,3.0
S2Ir,0.0,-0.0305762,,3,3.0
O2BrLa2,0.2132,-0.026806,,3,3.0
PdHf2,0.0,-0.0532770999999999,,3,3.0
SiScCr,0.0,-0.0147136,,3,3.0
Si2FeTh,0.0,-0.0341162,,3,3.0
HRu3Hf,0.0,-0.0343994,,3,3.0
N3BaOs,0.0,-0.0281388999999999,,3,3.0
H8Mn2FeTb,0.0,-0.0110032,,3,3.0
Zn2SbAc,0.0,-0.0391147,,3,3.0
InPt2Ac,0.0,-0.0670888999999999,,3,3.0
F12Pb3Bi2,4.8531,-0.0275172,,3,3.0
YCdHg,0.0,-0.0427817,,3,3.0
KCu2ZrSb2,0.0,-0.0244867,,3,3.0
N3Sr3Ru,0.0,-0.0192395,,3,3.0
Pd2DyPt3,0.0,-0.0546986,,3,3.0
RbSn2Pt,0.0,-0.0412004,,3,3.0
LiO2Tl,0.8291,-0.0230247999999999,,3,3.0
Sc2MnMo,0.0,-0.0203437,,3,3.0
CuSn2Sm,0.0,-0.0333235,,3,3.0
NiZnRh2,0.0,-0.024489,,3,3.0
NaBr2Au,3.2349,-0.0289354,,3,3.0
Sc3Ag2Cd,0.0,-0.0230305,,3,3.0
Sc2Re,0.0,-0.0333445,,3,3.0
Li2Sn2Pb,0.0,-0.0307478,,3,3.0
Ni2GaU2,0.0,-0.0513431,,3,3.0
RbTl2Bi,0.0,-0.0612505,,3,3.0
Se8Mo6Ce,0.0,-0.0284332,,3,3.0
Ti2Rh2Sn,0.0,-0.0278911,,3,3.0
Sn4Te5Pb,0.0574,-0.0408084,,3,3.0
PdErBi,0.0,-0.0550012,,3,3.0
Fe2Er2Pb,0.0,-0.0427472,,3,3.0
MgPd2Hf2,0.0,-0.0398436999999999,,3,3.0
SiCuPu,0.0,-0.0452745,,3,3.0
LiIHg2,1.0369,-0.0443277,,3,3.0
H4ScNi,0.0,-0.0078259,,3,3.0
PdHoBi2,0.0,-0.0603985,,3,3.0
FeBrEr,0.0,-0.0302835,,3,3.0
ScNi2In,0.0,-0.0204679,,3,3.0
ZnSnTe4Tl2,0.273,-0.0431854999999999,,3,3.0
C2Cr2Mn,0.0,-0.0150844,,3,3.0
Ag5In4,0.0,-0.0322367,,3,3.0
Mg2Ag2Cd,0.0,-0.020812,,3,3.0
CSePr2,0.0,-0.0303552999999999,,3,3.0
H7Ti4,0.0,-0.008562,,3,3.0
Cl6Ag3Nd,3.4479,-0.0198687,,3,3.0
B2O5Fe2,0.0,-0.011075,,3,3.0
C3Mo2Tb2,0.0,-0.028062,,3,3.0
Ga5AuU,0.0,-0.0365711,,3,3.0
Pd2InTh,0.0,-0.0495311,,3,3.0
Ho3Hg2,0.0,-0.0572607,,3,3.0
MoPd5,0.0,-0.033185,,3,3.0
LiAlSr2,0.0,-0.0137514,,3,3.0
CuTm3Os2,0.0,-0.0528249,,3,3.0
GaPd2Ho,0.0,-0.0336988,,3,3.0
Ni2NbAu,0.0,-0.033829,,3,3.0
FeGa2Th,0.0,-0.0370422,,3,3.0
BeCu4Tm,0.0,-0.019753,,3,3.0
AlMn2Pu,0.0,-0.038768,,3,3.0
AlZn2Dy2,0.0,-0.0265213,,3,3.0
CrSb2Er6,0.0,-0.0444554,,3,3.0
SbI6Cs2,0.0,-0.0379651,,3,3.0
O3CuSb,0.0,-0.0153591,,3,3.0
CuZnSe2Cs,2.2233,-0.0221506,,3,3.0
LaPb2Ac,0.0,-0.0720551,,3,3.0
Al2OsPt,0.0,-0.0404357,,3,3.0
O6RuBa2Ce,0.0,-0.0223568,,3,3.0
FeGe2Tm,0.0,-0.0275389,,3,3.0
AgTeI,0.405,-0.0352224,,3,3.0
SbI2Ce2,0.0,-0.0413282,,3,3.0
H3O3ClCu2,0.4878,-0.0084176,,3,3.0
O4AsBi,3.2332,-0.0219835,,3,3.0
Si2SmPt,0.0,-0.0348336,,3,3.0
BSc2Pt6,0.0,-0.0518727,,3,3.0
GeSe3In,0.9949,-0.023001,,3,3.0
OBr4InTa,1.0016,-0.0276202,,3,3.0
FeSb2Ho6,0.0,-0.0435452999999999,,3,3.0
HSiGaPu,0.0,-0.0352146,,3,3.0
AlY6Bi2,0.0,-0.0375227999999999,,3,3.0
LiClSb2,1.0501,-0.0220954,,3,3.0
Sc2PdSn,0.0,-0.0251326,,3,3.0
SiFe2Hf,0.9289,-0.0277322999999999,,3,3.0
K3Au4Pb4,0.0,-0.0552688,,3,3.0
NiGa2Er,0.0,-0.0255548,,3,3.0
B2Gd,0.0,-0.0250695,,3,3.0
ScZn2Ru,0.0,-0.0194966,,3,3.0
Ga3Ge2RuTh3,0.0,-0.0462078,,3,3.0
P2Zr,0.0,-0.0182495,,3,3.0
CoLu2Pt,0.0,-0.0505381,,3,3.0
K2CoSe3,0.0,-0.0164538,,3,3.0
Al4PdTm,0.0,-0.0199604,,3,3.0
AlSiFe,0.0,-0.0122899999999999,,3,3.0
Ge2YRu2,0.0,-0.0279363,,3,3.0
F4Te,4.0865,-0.0124496,,3,3.0
CSeSr2Ir,0.0,-0.0300051,,3,3.0
P2Rb2Pt,0.7048,-0.0271458,,3,3.0
Mn2BaPt3,0.0,-0.0485563,,3,3.0
Li2Zn2Cd,0.0,-0.012624,,3,3.0
AlW2,0.0,-0.049114,,3,3.0
F6CuY,2.1437,-0.0110355,,3,3.0
S4NiCu2Sn,0.0,-0.0154972999999999,,3,3.0
BeSnCe,0.0,-0.0287488999999999,,3,3.0
CuRhIr,0.0,-0.0399838,,3,3.0
Si2Fe3Sr,0.0,-0.0164817,,3,3.0
PdInAc2,0.0,-0.0623671,,3,3.0
CaIn2Eu,0.0,-0.0331579,,3,3.0
Se4Ta,0.0,-0.0299034,,3,3.0
Ge2TbPt,0.0,-0.039783,,3,3.0
CrSb2Th6,0.0,-0.0746410999999999,,3,3.0
ScGeEu,0.0,-0.0297084,,3,3.0
KFe4As3,0.0,-0.0178389999999999,,3,3.0
O6Ca2NbTm,3.5895,-0.0175306,,3,3.0
Be2MoTa2,0.0,-0.0355782,,3,3.0
Sc3Ga3Ge2Pd,0.0,-0.018899,,3,3.0
CuGd2Pt,0.0,-0.0515266,,3,3.0
Li2SnAu,0.0,-0.028121,,3,3.0
MgSmPt4,0.0,-0.0560912,,3,3.0
Ni2Se3Tl,0.0,-0.0278689,,3,3.0
Al5Pd2Tm,0.0,-0.0202922,,3,3.0
K2RbAg2,0.0,-0.0199494,,3,3.0
LiNi4Ta,0.0,-0.0224485,,3,3.0
O5Cl2Ba3Pb2,0.0,-0.0285572,,3,3.0
Mn2NiCe2,0.0,-0.0284116,,3,3.0
PdPtBi2,0.0,-0.0653267,,3,3.0
CI2Gd2,0.0,-0.0412661,,3,3.0
MgPd2Dy2,0.0,-0.0340916,,3,3.0
KSrSb2,0.0,-0.027013,,3,3.0
AlCa2Ru2,0.0,-0.0195855,,3,3.0
LiSiDy,0.0,-0.0206948,,3,3.0
Al4Nb2Tb,0.0,-0.0210399,,3,3.0
HAlSiTh,0.0,-0.0296981,,3,3.0
FeGe2Er6,0.0,-0.0403061,,3,3.0
VPt3,0.0,-0.0575981999999999,,3,3.0
SeBrNb,0.0,-0.0252228,,3,3.0
CSi2Mo2Dy2,0.0,-0.0285621,,3,3.0
Te2Ho6Ir,0.0,-0.0498004,,3,3.0
Zn2AgTb,0.0,-0.0266462,,3,3.0
InAu2Pa,0.0,-0.0683402999999999,,3,3.0
Li4Ca3Bi4,0.0,-0.0328412,,3,3.0
F6In2Th,2.4785,-0.0235477999999999,,3,3.0
AlK2Ag3,0.0,-0.0197577,,3,3.0
Sn2PmLu,0.0,-0.0434875,,3,3.0
B2O6AlIn,4.747,-0.0119925,,3,3.0
MgSnCs2,0.4209,-0.0293554,,3,3.0
Al9KRu2,0.0,-0.0126921,,3,3.0
MgZn4Dy,0.0,-0.018114,,3,3.0
Ni2Rh3La,0.0,-0.029838,,3,3.0
ScZn2Rh,0.0,-0.0194184,,3,3.0
LiCuCdTl,0.0,-0.0301691,,3,3.0
F6AgBa,0.4777,-0.0137241999999999,,3,3.0
RhInPt2,0.0,-0.0522339,,3,3.0
AsSb2Te,0.0,-0.0329613,,3,3.0
NPEu3,0.0,-0.0372513,,3,3.0
H2LiY2,0.0,-0.0134460999999999,,3,3.0
K2CuBr6Sb,0.411,-0.0196415,,3,3.0
OCuSeSb,0.3042,-0.0202865,,3,3.0
MgNi2Er3,0.0,-0.0317312,,3,3.0
Si2GeSn,0.7586,-0.0186356,,3,3.0
Li4O8Ti3Mn,0.0,-0.0105426,,3,3.0
O4K3Mn,2.1813,-0.0104147,,3,3.0
Te7PbBi4,0.3823,-0.0544397999999999,,3,3.0
YNdTl2,0.0,-0.0546385999999999,,3,3.0
BrTe,0.8796,-0.0286023,,3,3.0
TcRuOs2,0.0,-0.0535002,,3,3.0
RhLaPt,0.0,-0.0500227,,3,3.0
S4Cu2Rb2Sn,1.2368,-0.0170379,,3,3.0
GaEuAu2,0.0,-0.0528018,,3,3.0
Mn2IDy2,0.0,-0.0342288,,3,3.0
NaCuGa2,0.0,-0.0131924,,3,3.0
Co2NdU,0.0,-0.0455063,,3,3.0
O6NiSrBaW,2.5799,-0.0211210999999999,,3,3.0
Ca2Zn2Sn,0.0,-0.0169419,,3,3.0
NaCuSr3,0.0,-0.0172439,,3,3.0
F6ErPa,0.0,-0.0252282,,3,3.0
AlMo2Ru,0.0,-0.02846,,3,3.0
HO5PV,0.4607,-0.0100836,,3,3.0
Co2MoPt,0.0,-0.0350412,,3,3.0
Cd3Pt2,0.0,-0.04663,,3,3.0
NTi3Ni,0.0,-0.0158134,,3,3.0
ClCd2Sb,0.4253,-0.0269442999999999,,3,3.0
Al5Ni2Sr,0.0,-0.0122112,,3,3.0
Al3Er,0.0,-0.0188461,,3,3.0
CoGa4Dy,0.0,-0.02228,,3,3.0
F6KZn,0.1894,-0.0069884,,3,3.0
Rh2Ce2Hg,0.0,-0.045683,,3,3.0
GeI2Er2,0.1729,-0.0399525,,3,3.0
F6Rb3Bi,5.2989,-0.0189412,,3,3.0
MnNiTe2,0.0,-0.0275399,,3,3.0
Si7Co2Tm3,0.0,-0.0223143999999999,,3,3.0
AgNd2Tl,0.0,-0.0482026,,3,3.0
Rh5Ir4,0.0,-0.0503886,,3,3.0
Ni7Sb,0.0,-0.0188066,,3,3.0
NiRh2Te4,0.0,-0.033664,,3,3.0
BPd6Nd2,0.0,-0.0331713,,3,3.0
F3FeRb,0.6514,-0.0125374,,3,3.0
Li5Cl8Cr,3.1227,-0.0086062,,3,3.0
O6ScNiBa2,0.0,-0.0171584,,3,3.0
Ga5RhHf,0.0,-0.025994,,3,3.0
O8CaTi4,0.0,-0.0127329,,3,3.0
Mg3Sn,0.0,-0.0128813,,3,3.0
O6ZnBa2Np,2.0677,-0.0266034,,3,3.0
AsPtTl2,0.0,-0.0589971,,3,3.0
Al9Fe2Y,0.0,-0.0114215,,3,3.0
Mg2CdLa,0.0,-0.0211669,,3,3.0
YPd4,0.0,-0.0324563,,3,3.0
K2Ga2Au,0.0,-0.0239024,,3,3.0
HO8S2K3,6.3343,-0.0089018,,3,3.0
CuPt2Au,0.0,-0.0562569999999999,,3,3.0
Ca3In3Au2,0.0,-0.034186,,3,3.0
Se2SrTe,0.0,-0.026042,,3,3.0
Li4Sb2Eu,0.0,-0.0205071,,3,3.0
NiY2Pt2,0.0,-0.0435662999999999,,3,3.0
RuSnEr,0.0,-0.041023,,3,3.0
S3TiNiPb,0.0,-0.023721,,3,3.0
GaOsPa,0.0,-0.0632117,,3,3.0
ScRuIn,0.362,-0.0280256,,3,3.0
CuLu,0.0,-0.0356467,,3,3.0
GaY2,0.0,-0.02453,,3,3.0
Sc6RuSb2,0.0,-0.0223975,,3,3.0
C4MgPr3,0.0,-0.0220807,,3,3.0
LiO4S,0.0,-0.0076761999999999,,3,3.0
H3BeRb,3.2997,-0.0072692,,3,3.0
Ge2RuHo,0.0,-0.0312169,,3,3.0
Rh2HgAc,0.0,-0.056873,,3,3.0
OFBa,3.3543,-0.0194886,,3,3.0
EuPt4Hg,0.0,-0.0677923,,3,3.0
O16MgAl10,5.3717,-0.0100696,,3,3.0
Zn3Hg,0.0,-0.0271153,,3,3.0
CaGa2Ir3,0.0,-0.043184,,3,3.0
Ge2Sm3,0.0,-0.0351367,,3,3.0
NaCl3Pb,3.9565,-0.0223259,,3,3.0
N3HfW,0.0,-0.0331012,,3,3.0
N2SmTh,0.0,-0.0414998,,3,3.0
F5PbBi,4.4115,-0.0269809,,3,3.0
ErIr7,0.0,-0.0688101,,3,3.0
Ge2RhU,0.0,-0.0442582,,3,3.0
KHgTl,0.0,-0.049877,,3,3.0
CoZnCe,0.0,-0.0252939,,3,3.0
NiGa5Zr,0.0,-0.018853,,3,3.0
HMgPd3,0.0,-0.0218233,,3,3.0