formula,bg,formation_energy,mp-id,fidelity,bg_category
AgLuPb,0.0,-0.0546539,,3,3.0
Li2PbAc,0.0,-0.0432081,,3,3.0
LiB2Tc2,0.0,-0.017878,,3,3.0
Zn2LaEu,0.0,-0.0313002,,3,3.0
F6MnBa2,2.6548,-0.0168639,,3,3.0
PCs2Au,0.8427,-0.039405,,3,3.0
RuTl2Th6,0.0,-0.0841984,,3,3.0
Cu4PdEr,0.0,-0.0243871,,3,3.0
LiS2KMn,1.1488,-0.0110289,,3,3.0
H4O10MgK2Cr2,3.0442,-0.0089783,,3,3.0
CeAu2Th,0.0,-0.0704369,,3,3.0
Sb2SmAu,0.0,-0.0478197,,3,3.0
Ho2Pt3,0.0,-0.063079,,3,3.0
PSbHg2,0.0,-0.0458815,,3,3.0
Si2LuOs,0.0,-0.0375425,,3,3.0
Al4CePt,0.0,-0.0251662,,3,3.0
K3CrSe4,0.0,-0.0164636,,3,3.0
Te2BaLa,0.0,-0.0411349,,3,3.0
O6MgSrLaTa,3.9567,-0.0207935,,3,3.0
Be4MnMo,0.0,-0.0120062,,3,3.0
LiSbTe2,0.0,-0.0290132,,3,3.0
Mn4ZrW,0.0,-0.0289082,,3,3.0
ZnHf,0.0,-0.038369,,3,3.0
SiZr2Ir3,0.0,-0.0485867,,3,3.0
InHo3,0.0,-0.0454641999999999,,3,3.0
Zr6Te2Os,0.0,-0.0374234,,3,3.0
Al5RhPr,0.0,-0.0172093,,3,3.0
MgSi2Sm2,0.0,-0.0235163,,3,3.0
BePt,0.0,-0.0382165999999999,,3,3.0
Ge2RhIn3Ho3,0.0,-0.0362757,,3,3.0
O6GaRhBa2,0.0,-0.0187057,,3,3.0
O6MnBa2Ho,0.0,-0.0212533,,3,3.0
Li2ScAg,0.0,-0.012697,,3,3.0
MnBr4Cs2,2.0493,-0.0262329,,3,3.0
Al5Cu2Gd,0.0,-0.0164055,,3,3.0
AlFe2Zn,0.0,-0.0145838,,3,3.0
Al2Ni,0.0,-0.0111291,,3,3.0
CrCo2Ge,0.0,-0.0182296,,3,3.0
Zn2Pd3Pr,0.0,-0.0288366,,3,3.0
GeRh2La,0.0,-0.0332935,,3,3.0
AlGaHo2,0.0,-0.0310429999999999,,3,3.0
F6K3Nb,0.787,-0.0109032,,3,3.0
Al2SiZr,0.0,-0.0145274,,3,3.0
SeRbI3,1.181,-0.0308489,,3,3.0
Hg2Th,0.0,-0.0778336,,3,3.0
LiS2CoCs,0.3159,-0.0164448,,3,3.0
CoRhIr,0.0,-0.040682,,3,3.0
O4AgTe,0.231,-0.016255,,3,3.0
ScZrTc,0.0,-0.0269582,,3,3.0
Al3Pd2Er3,0.0,-0.0307319,,3,3.0
KCaBa2,0.0,-0.0241936,,3,3.0
OFEr,5.4643,-0.0242977,,3,3.0
Ni2SbTe2,0.0,-0.0291132999999999,,3,3.0
Na3P,0.9614,-0.006214,,3,3.0
AlTiCrIr,0.0,-0.0291646999999999,,3,3.0
CuTe2Nd,0.1053,-0.0343309,,3,3.0
Si2GaLa,0.0,-0.0203472,,3,3.0
Cd2SnDy2,0.0,-0.0389768,,3,3.0
NAlHf2,0.0,-0.036801,,3,3.0
B4Ni5Nd2,0.0,-0.0184757,,3,3.0
LiKZnTe2,1.9512,-0.0206917,,3,3.0
GaSrRh,0.0,-0.0247753,,3,3.0
ZnRh5,0.0,-0.0304856,,3,3.0
CdEuHg2,0.0,-0.0556154,,3,3.0
Cl4CoNi,0.7142,-0.0117461,,3,3.0
Li2AsAg,0.0024,-0.0145995,,3,3.0
NaGaBi2,0.0,-0.0445525,,3,3.0
O3FKSe,3.7857,-0.0098439999999999,,3,3.0
Tb2Au2Tl,0.0,-0.0617944,,3,3.0
Mo2Lu,0.0,-0.0416808,,3,3.0
TiCo6As4,0.0,-0.0185355,,3,3.0
Zn3Ru2Nd,0.0,-0.0258298,,3,3.0
AuPbAc2,0.0,-0.0822995,,3,3.0
Ge4Rh4Er3,0.0,-0.0339881,,3,3.0
ScCo4In6,0.0,-0.0258351,,3,3.0
Zn2NdIr,0.0,-0.0359868999999999,,3,3.0
CoIn,0.0,-0.0253146,,3,3.0
O6Zn2Rb2Te,2.5851,-0.0145551999999999,,3,3.0
Ni4YPr,0.0,-0.0229701,,3,3.0
NiSbTb,0.4876,-0.0344089,,3,3.0
O3AlTb,6.2377,-0.0183386,,3,3.0
LiCoSb,0.0,-0.0192359,,3,3.0
Ni3Se2Sn2,0.0,-0.0231644,,3,3.0
Cl6Rb3Er,5.3672,-0.0183540999999999,,3,3.0
Mg5Dy,0.0,-0.0121418999999999,,3,3.0
LiO6CaTeLa,4.2683,-0.0154947,,3,3.0
NOGa2Pr6,0.0,-0.0320487,,3,3.0
Al9CaIr2,0.0,-0.0190855,,3,3.0
DyHg2Pb,0.0,-0.0653401,,3,3.0
GaRu2Pa,0.0,-0.046933,,3,3.0
N6Dy3Ta2,0.0,-0.0318158,,3,3.0
GeYRu,0.0,-0.0281189999999999,,3,3.0
FeCo2La2,0.0,-0.0277211999999999,,3,3.0
Ag2LaGd,0.0,-0.0414502,,3,3.0
SbTe7La4,0.0,-0.0407395,,3,3.0
N2TeCe2,0.4918,-0.0307261,,3,3.0
Pd6SnTe2,0.0,-0.0345671,,3,3.0
ZrSb2Ba,0.0,-0.0370879,,3,3.0
LiBeNi2,0.0,-0.0099781,,3,3.0
ScTl7,0.0,-0.0651445,,3,3.0
SRhI,0.9006,-0.027131,,3,3.0
K2FeI6,0.0,-0.0290982999999999,,3,3.0
O2CoAsBr,0.0489,-0.0147845999999999,,3,3.0
BCo4Tm,0.0,-0.0216682,,3,3.0
WOs5,0.0,-0.0715524,,3,3.0
Zn5Ba,0.0,-0.0181258,,3,3.0
NaCl6Rb2Mo,2.2504,-0.0146197,,3,3.0
LiFeZn2,0.0,-0.0119878,,3,3.0
Ce3Hg,0.0,-0.0506942,,3,3.0
NiAsHf,0.0,-0.0338868,,3,3.0
O9CaBa3Ir2,0.0,-0.0239548,,3,3.0
AsTePt,0.0,-0.0430245999999999,,3,3.0
Al7Cu5Y,0.0,-0.0125996,,3,3.0
NiCuLu2,0.0,-0.0359562,,3,3.0
HLi3Cu,0.0,-0.0052506,,3,3.0
H8Co2NiEu,0.0,-0.0111191,,3,3.0
Al5ZrRu,0.0,-0.0155099,,3,3.0
NOSc6In2,0.0,-0.0182714,,3,3.0
PNiRb,0.0,-0.0162369999999999,,3,3.0
S4CaPr2,2.3085,-0.021638,,3,3.0
Ag2SnPb,0.0,-0.0434428,,3,3.0
O4SeYBi2,0.0,-0.0305818,,3,3.0
Sn4PtAu2,0.0,-0.0505805999999999,,3,3.0
Ni4ZnTm,0.0,-0.0220713,,3,3.0
Co2Sm3Tl3,0.0,-0.0483827,,3,3.0
ScRbSb,0.0,-0.0247589,,3,3.0
GaPdEu,0.0,-0.035061,,3,3.0
Al7ErAu3,0.0,-0.0290943,,3,3.0
RuRh3,0.0,-0.0340193,,3,3.0
AlZn2Pd,0.0,-0.0173615999999999,,3,3.0
P2PdNp,0.0,-0.0407154,,3,3.0
NiSrPb3,0.0,-0.0534991,,3,3.0
O6MnZrBa2,2.0477,-0.0196581,,3,3.0
YSbPr,0.0,-0.0370657,,3,3.0
B2N3Co2Hf3,0.0,-0.0277822,,3,3.0
Ge2HoIr3,0.0,-0.0508256999999999,,3,3.0
S2KTm,2.6393,-0.0220106,,3,3.0
Be4ZrTc,0.0,-0.0142175,,3,3.0
NiWIr,0.0,-0.0525522,,3,3.0
NCuBa,0.0,-0.0217143,,3,3.0
B4ScHf,0.0,-0.0187716,,3,3.0
Al7Ni2Nd3,0.0,-0.018713,,3,3.0
NaAs2Pd2U,0.0,-0.0361809,,3,3.0
H3HfRe,0.321,-0.0291492,,3,3.0
ZnInNp,0.0,-0.0512214,,3,3.0
Fe2BrLa2,0.0,-0.0289952,,3,3.0
RbSn2Te2,0.0,-0.0338440999999999,,3,3.0
Li5O10Co3Sb2,0.5675,-0.0117344,,3,3.0
Be2SbTe,0.0,-0.020821,,3,3.0
FeGe3Pu,0.0,-0.0373174,,3,3.0
BaLaAu,0.0,-0.0512252999999999,,3,3.0
Sc2GaOs,0.0,-0.0298537,,3,3.0
SnTa2Au,0.0,-0.0596765,,3,3.0
SiCl3Ho3,0.0,-0.0275239,,3,3.0
Al3NiCu,0.0,-0.0113405,,3,3.0
O6Ti2Dy,0.0,-0.0162276,,3,3.0
O2KY,4.5308,-0.0152268,,3,3.0
O3AsAu,0.0,-0.0224463,,3,3.0
CaPd2Sn,0.0,-0.0285531,,3,3.0
P2S7VCs,0.7764,-0.0138314,,3,3.0
Be2CrNb2,0.0,-0.0187435,,3,3.0
CoGa2Rh,0.0,-0.0214028,,3,3.0
KCuBr3,0.0,-0.0173655,,3,3.0
CaPdIn2,0.0,-0.0280282,,3,3.0
Mg3CaZn,0.0,-0.0077085999999999,,3,3.0
TiLuTl2,0.0,-0.0542927,,3,3.0
NZnLu3,0.0,-0.0387697999999999,,3,3.0
SiPdHf,0.0,-0.036166,,3,3.0
MgDy2Pt2,0.0,-0.0494434,,3,3.0
KPdTe2,0.0,-0.0295461,,3,3.0
NaCdSn,0.0,-0.0237674999999999,,3,3.0
O3SCs,6.0382,-0.0150969,,3,3.0
DyAu4,0.0,-0.0655985,,3,3.0
CaGe2Ag2,0.0,-0.0224735,,3,3.0
NaNiSe2,0.0,-0.0157934,,3,3.0
LiO10Ca2Ta3,2.5562,-0.0208435999999999,,3,3.0
Na2Cd2Sn,0.0,-0.0211666,,3,3.0
Al5Cu3,0.0,-0.0106798999999999,,3,3.0
PIHg2,0.6408,-0.0459713,,3,3.0
SiCa2Pt2,0.0,-0.0351255,,3,3.0
C3Mo2Pr2,0.0,-0.0269133,,3,3.0
HCO2K,4.6668,-0.0082561,,3,3.0
RhHo6Pb2,0.0,-0.0539247,,3,3.0
O7Si2Tl2,1.4737,-0.0209097,,3,3.0
Si4As4Ru,1.5626,-0.0175326,,3,3.0
Mn2MoPt,0.0,-0.0358804999999999,,3,3.0
Hf3Os2Pt,0.0,-0.0679651,,3,3.0
LiAs2HoIr2,0.0,-0.0398207999999999,,3,3.0
Sn2NdHg,0.0,-0.0464481,,3,3.0
COAlY,0.8544,-0.0148621999999999,,3,3.0
MnAg2Au,0.0,-0.0377233,,3,3.0
O7CaRb2Ta2,2.4653,-0.0219237,,3,3.0
MnSm2Os2,0.0,-0.0503457999999999,,3,3.0
LiGa4Dy,0.0,-0.0198543,,3,3.0
RhWIr2,0.0,-0.0617273,,3,3.0
O3K2Tb,0.0,-0.0159589,,3,3.0
GeSeTm,0.0,-0.03164,,3,3.0
AlTm3,0.0,-0.0410452,,3,3.0
Ni2Cu3,0.0,-0.0155476,,3,3.0
O4CrLa,0.1198,-0.0172932999999999,,3,3.0
NClNp,0.0,-0.0430131999999999,,3,3.0
Si2Dy2Tl,0.0,-0.0382186,,3,3.0
Ga3Sr2Rh2,0.0,-0.0237157,,3,3.0
CdTh2,0.0,-0.0741274,,3,3.0
Ru2ErHf,0.0,-0.0464133,,3,3.0
Ni2As2Tl,0.0,-0.0291747,,3,3.0
Ge2PdIn3Er3,0.0,-0.0365623999999999,,3,3.0
P2KRu2,0.0,-0.0204758,,3,3.0
PdSn4Au2,0.0,-0.0452057,,3,3.0
ScHo5,0.0,-0.0431813999999999,,3,3.0
NiCePt2,0.0,-0.0510854,,3,3.0
V2Ta,0.0,-0.0339499,,3,3.0
Al4Si2Pu3,0.0,-0.0426207,,3,3.0
CuHoBi2,0.0,-0.055775,,3,3.0
H5RuHo2,0.0,-0.0193705999999999,,3,3.0
CaGaPd,0.0,-0.0204197,,3,3.0
MgIr4Th,0.0,-0.0649052,,3,3.0
Si2SnPr2,0.0,-0.0292257,,3,3.0
CCl2Th2,0.0,-0.04511,,3,3.0
HInPt2,0.0,-0.0445131999999999,,3,3.0
MgSbIr,0.0,-0.0383266,,3,3.0
BNNiTm,0.0,-0.022491,,3,3.0
CuGaY,0.0,-0.0204342,,3,3.0
RhTm,0.0,-0.0439121,,3,3.0
AgBaBi2,0.0,-0.0575028,,3,3.0
AsZrNd,0.0,-0.0325861999999999,,3,3.0
BrSr2Tl,0.0,-0.0352537999999999,,3,3.0
K2AgPb,0.0,-0.0310902,,3,3.0
ScRh5,0.0,-0.0309417,,3,3.0
GaZrRuIr,0.0306,-0.0391058,,3,3.0
Fe2Y2I,0.0,-0.0262174,,3,3.0
RhLa2Tl,0.0,-0.04877,,3,3.0
Ni4HfHg,0.0,-0.0329041,,3,3.0
Fe5Ni4,0.0,-0.0173271,,3,3.0
FeNb2Re,0.0,-0.0390671999999999,,3,3.0
F4NaSm,8.1219,-0.0144354999999999,,3,3.0
FeGa2Hf2,0.0,-0.0356831,,3,3.0
Li4O12MnSb2W,1.7934,-0.0143634,,3,3.0
MgSi2Nd2,0.0,-0.023153,,3,3.0
Li2S4SnPb,2.4657,-0.0202648,,3,3.0
Fe2LuU,0.0,-0.0488947,,3,3.0
Be2PdIr,0.0,-0.0288878999999999,,3,3.0
Si2LuPt2,0.0,-0.0443302,,3,3.0
Ga2NdEu,0.0,-0.0330606,,3,3.0
RhHg2,0.0,-0.0567179,,3,3.0
Mg2PdAu,0.0,-0.0287472,,3,3.0
TiIn2,0.0,-0.0277900999999999,,3,3.0
Se3Nd4Bi,0.0,-0.0409322,,3,3.0
Li7MnAs4,0.0,-0.0103086,,3,3.0
N6Mn2Th3,0.0,-0.0359925,,3,3.0
NiGe2Nb2,0.0,-0.0246565,,3,3.0
Al3CuGe2Tb3,0.0,-0.024841,,3,3.0
Al5NiLu,0.0,-0.0162416,,3,3.0
GaDyAu2,0.0,-0.0514849999999999,,3,3.0
OFHo,5.6048,-0.0238331,,3,3.0
Al7PrAu3,0.0,-0.0284636999999999,,3,3.0
Se2SrHg,1.9414,-0.0338446,,3,3.0
O6NiBa2Dy,0.0,-0.0205279999999999,,3,3.0
BaLaPb2,0.0,-0.0593422,,3,3.0
LiTlAc2,0.0,-0.0642386,,3,3.0
O4Cs3Au,0.0,-0.026924,,3,3.0
Li2PBa,0.0,-0.0144233,,3,3.0
BPd4La,0.0,-0.0309895,,3,3.0
H3ZrRu,0.0,-0.0156637,,3,3.0
O6HoBi2,0.0,-0.028665,,3,3.0
Te2Nd6Re,0.0,-0.0459138,,3,3.0
Al2ZrAg,0.0,-0.0198221,,3,3.0
Li7O5FV,0.8916,-0.007253,,3,3.0
Li6O5FV,3.0096,-0.0075914,,3,3.0
ClK2Br,5.2098,-0.0130854,,3,3.0
O4ClK,6.3427,-0.0076278,,3,3.0
InLuIr2,0.0,-0.0584448,,3,3.0
SnPt2Th2,0.0,-0.0749235999999999,,3,3.0
Fe4ZnZr,0.0,-0.0195767,,3,3.0
H6Mg2Ni,0.0,-0.005338,,3,3.0
Ga3SmAu2,0.0,-0.03922,,3,3.0
AlCrRe2,0.0,-0.0423089,,3,3.0
MgGePd2,0.0,-0.0230855999999999,,3,3.0
SY,0.0,-0.0210098999999999,,3,3.0
SiMo2Tc,0.0,-0.0289883999999999,,3,3.0
CuSb2Gd,0.0,-0.0378149999999999,,3,3.0
CuTe3BaDy,0.6104,-0.0370874999999999,,3,3.0
Al4Y3Sn2,0.0,-0.0212844,,3,3.0
Ca3Fe2Ni4,0.0,-0.0144836,,3,3.0
Ti2Ga4Y,0.0,-0.0185539999999999,,3,3.0
Mg2S8CrIn3,1.7333,-0.0157298,,3,3.0
S6FeTa2,0.0,-0.0241296,,3,3.0
Rh3SnCe2,0.0,-0.0385536999999999,,3,3.0
NaSe6Mo6In,0.0028,-0.0268319,,3,3.0
SiPrOs,0.0,-0.0424454,,3,3.0
AgSbLa,0.0,-0.0381017,,3,3.0
F6NaK2Ho,7.2186,-0.01264,,3,3.0
Ga5NdAu,0.0,-0.0282185,,3,3.0
Se2RhPd2,0.0,-0.0282104,,3,3.0
O5CuBaPrBi,0.0,-0.0251985999999999,,3,3.0
H14C4N8F6SiS2,3.5813,-0.0070048,,3,3.0
Na3S4Bi,0.8541,-0.0169568,,3,3.0
NdPt2Pb,0.0,-0.0657776,,3,3.0
Cu2In2La,0.0,-0.028454,,3,3.0
BAl2NdOs2,0.0,-0.035707,,3,3.0
Au5Np,0.0,-0.0756429,,3,3.0
FeGa2U,0.0,-0.0387669,,3,3.0
SiPtNp,0.0,-0.0630103,,3,3.0
O4SiZn2,3.3592,-0.01111,,3,3.0
Cu3Cd5,0.0,-0.0246499,,3,3.0
Li2P2S6Fe,1.4147,-0.0099284,,3,3.0
RbTeI3,0.0,-0.0343365,,3,3.0
Cu4SmTl,0.3241,-0.0297955,,3,3.0
OAsRhDy,0.0,-0.0291886,,3,3.0
B2MoTa2,0.0,-0.0372931,,3,3.0
Ru4Sb12Ba,0.0,-0.0372381,,3,3.0
CuInU,0.0,-0.0506039,,3,3.0
InTm2Os,0.0,-0.052693,,3,3.0
Se3SbNd4,0.0,-0.0358523,,3,3.0
OZrHf3,0.0,-0.0461468,,3,3.0
Se3Dy,0.0,-0.0283403999999999,,3,3.0
CaBaPb,0.3104,-0.0424613999999999,,3,3.0
Ti2Au3,0.0,-0.0485285,,3,3.0
LiP2Cu2,0.0,-0.0110868,,3,3.0
NdPmIr2,0.0,-0.0581485,,3,3.0
Mg3RuEr2,0.0,-0.0253677,,3,3.0
F3MnTl,1.5584,-0.0227537999999999,,3,3.0
O3Cs3Ho,2.6332,-0.0280231,,3,3.0
Te2Er3,0.0,-0.0461086999999999,,3,3.0
LiHgBi2,0.0,-0.0570504,,3,3.0
CoSe2Pr6,0.0,-0.0360861,,3,3.0
Co2GaSm2,0.0,-0.0282461,,3,3.0
LiPCd,1.1235,-0.0149489,,3,3.0
Mg2AlSb,0.0,-0.0138137,,3,3.0
Al4BaOs,0.0,-0.0241343,,3,3.0
As2PdDy2,0.0,-0.0352,,3,3.0
LiO8MnSrLa3,2.3967,-0.0191039,,3,3.0
RuHo6Pb2,0.0,-0.0539575,,3,3.0
Ni3Ce,0.0,-0.0235173999999999,,3,3.0
SiTbIr,0.0,-0.0438157,,3,3.0
Si2Ru2La,0.0,-0.0275235,,3,3.0
Al2U,0.0,-0.0398292,,3,3.0
Cl2SeTh2,0.0,-0.0473008,,3,3.0
H5Mg2Co,0.4134,-0.005888,,3,3.0
BYPt4,0.0,-0.0535925,,3,3.0
Ca2CuAu2,0.0,-0.035267,,3,3.0
Be2TiCo,0.0,-0.0107239,,3,3.0
Cl6Te4Hf,1.1866,-0.0246587,,3,3.0
Ga2SnBi2,0.0,-0.0449791,,3,3.0
O4ThNp,1.2782,-0.0417429,,3,3.0
LiAuHg,0.0,-0.0469616,,3,3.0
ClMnLa,0.0,-0.0241524,,3,3.0
GaSr2Cd,0.0,-0.0232287,,3,3.0
SrCd2Nd,0.0,-0.0320711999999999,,3,3.0
K2CuSb2,0.0,-0.0215946,,3,3.0
F6SnCs3,0.1958,-0.0197633,,3,3.0
NiNdHg2,0.0,-0.0494492,,3,3.0
Mg3SrRh2,0.0,-0.0178391,,3,3.0
K2RbBi,0.5727,-0.0294344,,3,3.0
Sc3Ni4In2,0.0,-0.0198159,,3,3.0
S8Cr3NbAg2,0.034,-0.0171672,,3,3.0
HZnRh,0.0,-0.0170961,,3,3.0
Al4Ni3Pt,0.0,-0.0195827999999999,,3,3.0
MgAl2Tm2,0.0,-0.0251689,,3,3.0
ZnEu2Pt,0.0,-0.0484538999999999,,3,3.0
Ho3Lu,0.0,-0.0505744,,3,3.0
O6Ba2DyOs,0.5583,-0.0263563,,3,3.0
H2AlCo2,0.0,-0.0099891,,3,3.0
ScSrRh4,0.0,-0.0290805,,3,3.0
Li2Ge2SrRh2,0.0,-0.0195707,,3,3.0
H2AlFe2,0.0,-0.0102499,,3,3.0
MnY6Sn2,0.0,-0.0291092,,3,3.0
CrFeIr2,0.0,-0.0450149,,3,3.0
Li2SiBa,0.0,-0.0138988,,3,3.0
AgCe2Pb,0.0,-0.0494881999999999,,3,3.0
CrGe3Sm,0.0,-0.0245054,,3,3.0
CuInPr,0.0,-0.0311191,,3,3.0
NaCl6InCs2,3.7642,-0.018,,3,3.0
H2O5PKMn,2.8377,-0.0095483,,3,3.0
O4SPd,1.6446,-0.0123739,,3,3.0
AlRb2I6,0.0,-0.0309441,,3,3.0
AsPdDy,0.1001,-0.0349059,,3,3.0
FeNi4Tb,0.0,-0.0218659,,3,3.0
Hf2Pt2Au,0.0,-0.0681048,,3,3.0
AlPrHg2,0.0,-0.0473279,,3,3.0
RbSr3Au,0.0,-0.0317184,,3,3.0
NaK2RbAu,0.0,-0.0222942,,3,3.0
F6S2InHg3,0.0,-0.02465,,3,3.0
Pd2Ho3Pt,0.0,-0.0482801,,3,3.0
NdSmHg2,0.0,-0.0567732,,3,3.0
Ti6MnSe2,0.0,-0.0178158,,3,3.0
CO7Na2SiBi,0.0,-0.0144448,,3,3.0
BCU,0.0,-0.0407424,,3,3.0
B2Mo2Ru,0.0,-0.0241814999999999,,3,3.0
KFeSe3Nd,0.0,-0.0231212,,3,3.0
NCr3Co,0.0,-0.0164532999999999,,3,3.0
F6AgPt,0.0773,-0.0167662,,3,3.0
CaZn2Ge2,0.0,-0.0153503,,3,3.0
TiSnSb,0.0,-0.0300918999999999,,3,3.0
SiSe4SrAu2,0.71,-0.0321501,,3,3.0
Pd3Pb4,0.0,-0.0575602,,3,3.0
H8FeCd2La,0.0,-0.0126242,,3,3.0
Ge2EuAu2,0.0,-0.046683,,3,3.0
P3BrHg2,1.2766,-0.0313422,,3,3.0
O6CoGaLa2,1.9873,-0.0185594,,3,3.0
Ni3Cu2Pr,0.0,-0.0205887999999999,,3,3.0
H4LiO5SeRb,4.9033,-0.0087225,,3,3.0
F6AlLa,7.7216,-0.013083,,3,3.0
Mg2ZnHg,0.0,-0.0231553,,3,3.0
O6RhBa2Np,0.0,-0.0284362,,3,3.0
S6Nb2Rh,0.0,-0.0184300999999999,,3,3.0
NaCu2Bi2Th,0.0,-0.048302,,3,3.0
Rh5Pa,0.0,-0.0453052,,3,3.0
MgAlS4Cr,2.1007,-0.0112962,,3,3.0
OSc2As2Ba,0.0,-0.0211863999999999,,3,3.0
FeSe4SnCs2,0.6349,-0.0270965,,3,3.0
AlCoRhHf,0.0,-0.0313165,,3,3.0
O8V2PbTh,2.4788,-0.024179,,3,3.0
Ge2Pt2Pu,0.0,-0.0584514,,3,3.0
Te2Pr,0.0,-0.0407130999999999,,3,3.0
LiZnSe2Rb,2.4597,-0.0165861,,3,3.0
Ti6FeTl2,0.0,-0.0289129,,3,3.0
H2Li2OF5V,1.201,-0.0073901,,3,3.0
B4TiLu,0.0,-0.0177327,,3,3.0
S3KZrPd,0.0,-0.0181294,,3,3.0
O6ScSr2Pt,0.0,-0.0191883,,3,3.0
B2N3Fe2Tb3,0.0,-0.0232417,,3,3.0
F6KRb2Mo,2.5177,-0.013454,,3,3.0
B2CdIr2,0.0,-0.0377768,,3,3.0
BNNiZr,0.0,-0.017085,,3,3.0
Al5RuHf,0.0,-0.0200105,,3,3.0
O2K2CoRb,1.4614,-0.0124215,,3,3.0
LiF6GaTl2,4.7557,-0.0210081,,3,3.0
Na2S4SnHg,1.9538,-0.0196295,,3,3.0
GdDyBi,0.0,-0.0624715,,3,3.0
BCPtU,0.0,-0.0482517,,3,3.0
MnCoAs,0.0,-0.0189268,,3,3.0
Sc2GeRu3,0.0,-0.0259325,,3,3.0
F6RuTb,0.7399,-0.0158881,,3,3.0
F6TmU,0.3995,-0.0260094,,3,3.0
Fe2YTa2,0.0,-0.039468,,3,3.0
Li2RbAu2,0.0,-0.0332227,,3,3.0
O4MgVCr,0.0,-0.0121452,,3,3.0
InPtPb,0.0,-0.0601766,,3,3.0
H4O2NiBr2,2.0023,-0.0099834,,3,3.0
F6Cs2Gd,0.0079,-0.0204599,,3,3.0
O3Rb3Y,2.4577,-0.0176524,,3,3.0
O6MoRe,0.0,-0.0197331,,3,3.0
Zn2GaPu,0.0,-0.0384951,,3,3.0
H6CrSm2,0.0303,-0.0147848,,3,3.0
Te2CsAu,1.077,-0.0460544,,3,3.0
Cl3CsLa,0.0,-0.0232367,,3,3.0
BrIn,1.0651,-0.0271149999999999,,3,3.0
ZnInLa2,0.0,-0.0337899,,3,3.0
Tb3Hg,0.0,-0.0524202999999999,,3,3.0
YPd7,0.0,-0.0326175,,3,3.0
ZnHo6Pb2,0.0,-0.051499,,3,3.0
NFe3Zn,0.0,-0.0155620999999999,,3,3.0
CdSn2Lu2,0.0,-0.0431412,,3,3.0
Er2OsAu,0.0,-0.0611581,,3,3.0
Mg2CaEu,0.0,-0.0183956,,3,3.0
Mg2Cd2Bi,0.0,-0.0299391,,3,3.0
B3MnNb,0.0,-0.0153758,,3,3.0
LiInTl2,0.0,-0.0452502,,3,3.0
B2Mg2AsIr5,0.0,-0.0405923,,3,3.0
Zn2Ga5Hf,0.0,-0.021602,,3,3.0
Ga2AsBi,0.0,-0.0329913,,3,3.0
SBrAg3,0.5781,-0.024839,,3,3.0
CSi2Co2Nd2,0.0,-0.0222767,,3,3.0
HCs2Au,1.8741,-0.0373474,,3,3.0
CoGa4Ba,0.0,-0.0207347,,3,3.0
Al4V2Zr,0.0,-0.0142264,,3,3.0
Be2Ru,0.0,-0.014951,,3,3.0
MgSc2Ir,0.0,-0.026823,,3,3.0
F6Cs2Ho,0.0,-0.0194557,,3,3.0
F6CuRe,0.0,-0.0154377,,3,3.0
Li2Ag2In,0.0,-0.0203869,,3,3.0
InPmAu2,0.0,-0.0547676999999999,,3,3.0
TaRe,0.0,-0.0693906,,3,3.0
GaPu2,0.0,-0.0788937,,3,3.0
Si4Ca3Cu4,0.0,-0.0121516,,3,3.0
Sm3Au2Tl3,0.0,-0.0618502,,3,3.0
MnSb2Er6,0.0,-0.0444972,,3,3.0
MgIr2U,0.0,-0.0631694,,3,3.0
Sb2AuPu,0.0,-0.0638624,,3,3.0
Al7Cr,0.0,-0.0092066,,3,3.0
In2TeHg,0.0,-0.0432198,,3,3.0
F6K3Ni,1.0454,-0.0089026,,3,3.0
O4SrRh,0.0,-0.0148545,,3,3.0
CrOs,0.0,-0.0450575,,3,3.0
CSi2SmW2,0.0,-0.0360047,,3,3.0
Li2NaAs,2.6894,-0.0079835,,3,3.0
Ga3Ge2PdLa3,0.0,-0.0285508999999999,,3,3.0
BeAlAu2,0.0,-0.0380391,,3,3.0
SbErHf,0.0,-0.0508583,,3,3.0
LiBr6Cs2La,4.7208,-0.0258588999999999,,3,3.0
ZnSrIr2,0.0,-0.0448493,,3,3.0
Al8Mn4La,0.0,-0.0141061,,3,3.0
Ti3Pt,0.0,-0.0304083,,3,3.0
Co4Ge6Pr,0.0,-0.0209916,,3,3.0
Al5SmAu2,0.0,-0.0283805,,3,3.0
CdHf3Re2,0.0,-0.0605176,,3,3.0
LiSn2Ir2,0.0,-0.0435525,,3,3.0
H3MnNp,0.0,-0.0272325,,3,3.0
HO8Se2Rb3,4.25,-0.0125206,,3,3.0
CNd2Hg,0.0,-0.0417254,,3,3.0
Mg2CoDy,0.0,-0.0187765999999999,,3,3.0
F6PdLu,0.0,-0.0165188,,3,3.0
ZrPd4,0.0,-0.0330105,,3,3.0
Sc3Pd2Tl3,0.0,-0.0413382,,3,3.0
OCaBr,1.4599,-0.0138825,,3,3.0
Zn2SrHg2,0.0,-0.0374968,,3,3.0
KCaPb4,0.0,-0.0538678,,3,3.0
Al3Si2RhGd3,0.0,-0.029026,,3,3.0
F6ZrPa,0.0,-0.0223913,,3,3.0
LiFeSb,0.0,-0.019521,,3,3.0
O8V3Zn2,0.1062,-0.0122273,,3,3.0
NaCs3,0.0,-0.0293997,,3,3.0
Ga2SrBa,0.0,-0.0239856,,3,3.0
Zr5Nb,0.0,-0.0310018,,3,3.0
Al3Si2RuHo3,0.0,-0.0258418999999999,,3,3.0
LiAl2Os,0.0,-0.0229803999999999,,3,3.0
Zn2SrAu2,0.0,-0.0381621,,3,3.0
Al2YCd,0.0,-0.0188401999999999,,3,3.0
O4Cu2Se2PrBi2,0.0,-0.0283085,,3,3.0
Ni2Se2Hg,0.0,-0.0282783,,3,3.0
H8Mg2MnHo,1.3082,-0.0091683,,3,3.0
Rh2TbHo,0.0,-0.0418211,,3,3.0
Al5ZrIr,0.0,-0.0208091,,3,3.0
O6ScNiSr2,0.0,-0.0137904,,3,3.0
RuIn5Eu,0.0,-0.0368410999999999,,3,3.0
O6CuBa2Eu,0.0,-0.0206165,,3,3.0
AlAsTe,0.636,-0.0220821,,3,3.0
B2O6GeZr,3.5778,-0.0127771,,3,3.0
HRu3W,0.0,-0.0356131,,3,3.0
Te2Ho6Pt,0.0,-0.0497609,,3,3.0
Co2Ga3Pa3,0.0,-0.0482192,,3,3.0
Cr2Ge2Lu,0.0,-0.0264061,,3,3.0
P2S6Zr,1.9841,-0.0129447,,3,3.0
B2FeMo2,0.0,-0.0209813,,3,3.0
Pd2CdAu,0.0,-0.0416105,,3,3.0
LiAl2Mn,0.0,-0.0093356,,3,3.0
NiIr2Pt,0.0,-0.0571659999999999,,3,3.0
LiCaSr2,0.0,-0.0141376,,3,3.0
LiGa4Pt,0.0,-0.0234722,,3,3.0
N3MnPr,0.0,-0.018666,,3,3.0
AuBi,0.0,-0.0739153,,3,3.0
Zn2RhIn,0.0,-0.0238175999999999,,3,3.0
O6CaSnTm2,4.4493,-0.0218022,,3,3.0
Ti2Ga4U,0.0,-0.0290415999999999,,3,3.0
Zn2Rh3La,0.0,-0.0291753,,3,3.0
CaGa2Cd2,0.0,-0.0210291,,3,3.0
LiMgSn2,0.0,-0.0200657999999999,,3,3.0
Sc3Rh2In3,0.0,-0.027116,,3,3.0
Ni2GaAu,0.0,-0.0296039,,3,3.0
Ga2In2Tl,0.0,-0.0343115,,3,3.0
Zn2GaCe,0.0,-0.0224022,,3,3.0
Sn3Pm,0.0,-0.0384776,,3,3.0
F8BaCe2,0.6613,-0.0185329,,3,3.0
Sc3Zn2Ru,0.0,-0.0180197,,3,3.0
NaAsI6Cs2,1.92,-0.0330952,,3,3.0
KBr2,2.3016,-0.0169889,,3,3.0
Sn2Lu3,0.0,-0.0482496,,3,3.0
Mg2S8V3Cr,0.275,-0.0125611,,3,3.0
GePd2Tm,0.0,-0.0351169,,3,3.0
OFCe,0.3391,-0.0221499,,3,3.0
TiCoGaRu,0.0,-0.0217844,,3,3.0
Al2RhEu,0.0,-0.0265392,,3,3.0
O4Cu2Se2Sb2Sm,0.0,-0.0209827,,3,3.0
Se3SrAgPr,1.5825,-0.027912,,3,3.0
Mo2Rh,0.0,-0.0345685,,3,3.0
Te6CsTh2,0.0,-0.0515665,,3,3.0
OTeNp,0.0,-0.0520893,,3,3.0
S3Cu4Pb,0.0633,-0.0208913,,3,3.0
Na3Cl6Hf,0.4799,-0.0142175,,3,3.0
F6DyLu,7.8818,-0.0199071,,3,3.0
F6MgMo,0.4944,-0.010694,,3,3.0
O4CrTm,0.0,-0.018765,,3,3.0
N2Sn3Sm7,0.0,-0.0375484,,3,3.0
MgS4Ti2,0.0,-0.0123703,,3,3.0
Sc2Pt3,0.0,-0.0490964,,3,3.0
Se4Ag2BaPb,0.0,-0.0330014,,3,3.0
V3Ga,0.0,-0.0174587,,3,3.0
CoGa2Pa,0.0,-0.0377962,,3,3.0
Co2Zn3Tb,0.0,-0.0204727,,3,3.0
P4FeCo6,0.0,-0.0153021999999999,,3,3.0
Ru2InPa,0.0,-0.0510576,,3,3.0
Fe2Se4Rh,0.0,-0.0217459,,3,3.0
F8Na2BaTh,7.4291,-0.0181893,,3,3.0
H2BO5FMg3,4.7254,-0.0079432,,3,3.0
Si3LaPt,0.0,-0.0296266,,3,3.0
PCeDy,0.0,-0.0354165,,3,3.0
AlRh2Ce,0.0,-0.0309036,,3,3.0
MgCaAg,0.0,-0.0156748,,3,3.0
BS2Cu,1.9544,-0.0109286,,3,3.0
KAu2Bi2,0.0,-0.0610408,,3,3.0
P2GeHg,0.2245,-0.0270034,,3,3.0
Ag2CdPr,0.0,-0.0344078,,3,3.0
MgZnPd2,0.0,-0.0217003999999999,,3,3.0
Ti6RhSb2,0.0,-0.0233022999999999,,3,3.0
B4Mn2Ir5,0.0,-0.0386772,,3,3.0
MgRh4Th,0.0,-0.0399483,,3,3.0
Ge3U,0.0,-0.040466,,3,3.0
LiPbTh,0.0,-0.0584858,,3,3.0
NiCuNd,0.0,-0.025132,,3,3.0
SiYRh,0.0,-0.0250460999999999,,3,3.0
AlGdIr,0.0,-0.0469114999999999,,3,3.0
CaMnGe2,0.0,-0.0169596,,3,3.0
Mg2Sn2Pr,0.0,-0.0255338999999999,,3,3.0
Ga2Hf2Ir,0.0,-0.0466481,,3,3.0
O4S2Cu2Sb2Th,0.7724,-0.023877,,3,3.0
Li4CaAs2,1.3472,-0.0094748,,3,3.0
TiRu2Lu,0.0,-0.0359752999999999,,3,3.0
Mg2InHg,0.0,-0.0281365,,3,3.0
YRu2Ta,0.0,-0.0415383,,3,3.0
CoSe3RbTm,0.0,-0.0264095,,3,3.0
Mo2Pt,0.0,-0.0468666,,3,3.0
InSn2Ba2,0.0,-0.0374891,,3,3.0
Cu2GePm,0.0,-0.0236666,,3,3.0
ScNi8,0.0,-0.0160844,,3,3.0
NiRu3Ce2,0.0,-0.0353002,,3,3.0
F4K2Pd,2.5351,-0.0114437999999999,,3,3.0
F8Na2BaDy,0.0,-0.0137399,,3,3.0
BNCoNp,0.0,-0.035978,,3,3.0
RbTe2Bi,1.2011,-0.0440883,,3,3.0
N2MnNb,0.0,-0.0181937,,3,3.0
SeYSb,0.0,-0.0299079,,3,3.0
LiO4Pt3,0.0,-0.0306836,,3,3.0
Zr2AuPb,0.0,-0.0521123,,3,3.0