formula,bg,formation_energy,mp-id,fidelity,bg_category
O6ZnEu2W,0.3854,-0.0254198,,3,3.0
AsCs3,1.1513,-0.0337642,,3,3.0
Zn2Ga2Sr,0.0,-0.0168467,,3,3.0
Zn2RuDy3,0.0,-0.0346808,,3,3.0
SeYBi,0.054,-0.0435443,,3,3.0
H4Cr3Co,0.0,-0.010739,,3,3.0
NiRePt2,0.0,-0.0570533,,3,3.0
TiZnIn,0.0,-0.02118,,3,3.0
RhSn5Pr3,0.0,-0.0389242,,3,3.0
P2S7KV,0.6933,-0.0111191,,3,3.0
Bi3Pa,0.0,-0.0839116999999999,,3,3.0
AsRhPd,0.0,-0.0294772,,3,3.0
AlLaPt,0.0,-0.0416201,,3,3.0
SnHg,0.0,-0.0519149,,3,3.0
MoTaRe2,0.0,-0.0611487,,3,3.0
Cl6K3Bi,4.3599,-0.0167859,,3,3.0
MgS4Tm2,2.2981,-0.0231904,,3,3.0
H2O2Co,0.1413,-0.0083368,,3,3.0
P2KCu2Ba,0.0,-0.0170949,,3,3.0
SeSnTb,0.0,-0.0356102,,3,3.0
ScSnAu,0.351,-0.0408109,,3,3.0
NiGa5Gd,0.0,-0.0228996,,3,3.0
Fe2GaHo,0.0,-0.0257566999999999,,3,3.0
YLa2Hg2,0.0,-0.0506664,,3,3.0
GePdTa,0.0,-0.0399319,,3,3.0
C4N4K2Ni,3.1862,-0.0102387,,3,3.0
AlCoTa,0.0,-0.030896,,3,3.0
Zn2Y,0.0,-0.0188168,,3,3.0
AlRh2Gd2,0.0,-0.0395357,,3,3.0
LiCu2As2Sm,0.0,-0.020411,,3,3.0
GdAu,0.0,-0.0650138,,3,3.0
Mg2MnTc,0.0,-0.0157485999999999,,3,3.0
NaAsTe2,0.8794,-0.0251354,,3,3.0
LiBO3Mn,2.4838,-0.0101928,,3,3.0
LiI3Dy,0.0,-0.0333522,,3,3.0
AsSe2Hf2,0.0,-0.0384315,,3,3.0
SiCr2Tc,0.0,-0.0207428999999999,,3,3.0
Se2OsTh6,0.0,-0.0771741,,3,3.0
Co2Zn3Tm,0.0,-0.0213282999999999,,3,3.0
Cl4Rb2Cd,3.8684,-0.0166443,,3,3.0
Zr2LaPt2,0.0,-0.0501142,,3,3.0
Ga3Ge2Y3Pt,0.0,-0.0277471,,3,3.0
SiNbEr,0.0,-0.0318356,,3,3.0
Mn4ZrMo,0.0,-0.0231096,,3,3.0
YTmPb2,0.0,-0.0584707999999999,,3,3.0
NiRhTa2,0.0,-0.0461617,,3,3.0
Ca2CoGa3,0.0,-0.014691,,3,3.0
Sc2MnCu,0.0,-0.0156349,,3,3.0
Si4Ho3Os4,0.0,-0.0438647,,3,3.0
S2CdBa,2.0901,-0.0238679999999999,,3,3.0
Sc3Rh2Hg,0.0,-0.0307221,,3,3.0
Ge2RuTb6,0.0,-0.0399091,,3,3.0
InPrHg,0.0,-0.0490315999999999,,3,3.0
Au3Hg,0.0,-0.0688554,,3,3.0
SiCu2Sr2,0.0,-0.017204,,3,3.0
Ru3W2,0.0,-0.0487397,,3,3.0
MgCa5Zn,0.0,-0.0095722,,3,3.0
Al7Er3Au2,0.0,-0.0293246,,3,3.0
H4LiO5SRb,5.3615,-0.0079868,,3,3.0
O4TiGe,2.8204,-0.0125142,,3,3.0
La3IrPb,0.0,-0.0560841,,3,3.0
O2Na2KPd,0.1274,-0.0114387,,3,3.0
Li6Cl8Fe,0.0,-0.0082211,,3,3.0
NiPb2Th6,0.0,-0.0829116999999999,,3,3.0
Zn2CdPt2,0.0,-0.0400519,,3,3.0
NiY3Rh2,0.0,-0.0286389999999999,,3,3.0
GeBaPt2,0.0,-0.0505964,,3,3.0
AlMnGd,0.0,-0.0285265,,3,3.0
H2Sc3Sn,0.0,-0.0149515999999999,,3,3.0
Ti2NiIr,0.0,-0.0306193999999999,,3,3.0
In2CeDy,0.0,-0.0403505,,3,3.0
Na4P2Sr,1.3891,-0.0091941,,3,3.0
Si3Ti2Zr3,0.0,-0.0201563,,3,3.0
Sm3Pb,0.0,-0.0527571,,3,3.0
B4VY,0.0,-0.0132781,,3,3.0
MgGd2Tl,0.0,-0.049109,,3,3.0
O2CuTeCs5,1.008,-0.0294124,,3,3.0
O8GdW2Tl,4.629,-0.0291423,,3,3.0
MgI2,4.1637,-0.027306,,3,3.0
C4FeTm3,0.0,-0.0271176999999999,,3,3.0
SePd5Pb,0.0,-0.037326,,3,3.0
PAsEr2,0.0,-0.0344927,,3,3.0
F8Na2SrZr,6.978,-0.0112124,,3,3.0
NiSb2Cs5,0.0,-0.0353102,,3,3.0
MgS4TiV,0.0,-0.0124471,,3,3.0
GeSb2Au,0.0,-0.0407222,,3,3.0
HF2Tl,4.0242,-0.0224613,,3,3.0
F3KEu,0.0,-0.0179642,,3,3.0
SiSc2Rh,0.0,-0.0189892,,3,3.0
Zn2SrHg,0.0,-0.0296983,,3,3.0
Ga2RbCd2,0.0,-0.0229437,,3,3.0
Al3MnTb2,0.0,-0.0230451,,3,3.0
O3FeBrBa2,0.0,-0.0217564,,3,3.0
FSPu,0.0,-0.0437317,,3,3.0
ClInLa2,0.0,-0.0330875,,3,3.0
F8SrTb2,7.8234,-0.0174749,,3,3.0
PdAu,0.0,-0.0510638,,3,3.0
NiSb2Th,0.0,-0.0473778999999999,,3,3.0
P2CuRb5,1.1963,-0.017791,,3,3.0
N3ClCa,4.4305,-0.0100441,,3,3.0
ScCu2Ru,0.0,-0.0200844999999999,,3,3.0
TiCuGaPd,0.0,-0.0206233,,3,3.0
O12Ti5Nb,0.0,-0.0136462,,3,3.0
Li3O4F4V2,0.0,-0.0090884,,3,3.0
SrRuSn3,0.0,-0.0333886,,3,3.0
Se2AgPb,0.0,-0.0370899,,3,3.0
Mg2Ga3Ir,0.0,-0.022182,,3,3.0
ONaBa2,0.0,-0.0237698,,3,3.0
F6PK,8.2022,-0.0079589999999999,,3,3.0
O5Nb2Cs2,0.7135,-0.0215988,,3,3.0
SeY3,0.0,-0.0268574,,3,3.0
ScCd2Tl,0.0,-0.0370542,,3,3.0
OZnAsU,0.0,-0.0372771,,3,3.0
NiMo2Rh,0.0,-0.0300086,,3,3.0
B2Ni7In3,0.0,-0.0191521,,3,3.0
O2NaMgRb,2.8918,-0.0103613,,3,3.0
SbTe2Cs,0.8233,-0.0379594,,3,3.0
LiP2Pd2Hf,0.0,-0.0260951,,3,3.0
Ni2RuTm3,0.0,-0.0376465,,3,3.0
MgCu2Sn2,0.0,-0.0214864,,3,3.0
NiOs2U2,0.0,-0.0735724,,3,3.0
O6ZrBa2Dy,0.0,-0.0228049,,3,3.0
S3GeIn,1.5281,-0.0167786,,3,3.0
Zn2PmTb,0.0,-0.0298376,,3,3.0
SiTm2Ir3,0.0,-0.055688,,3,3.0
F6KCs2Lu,7.5718,-0.0196656,,3,3.0
H2O3PSK,5.2569,-0.0084078,,3,3.0
Al3Zn,0.0,-0.0091971,,3,3.0
As2Ru2La,0.0,-0.0315452,,3,3.0
Sr4Ba,0.0,-0.025717,,3,3.0
LiO2Cl2Fe2,0.0,-0.0110799,,3,3.0
Cl2Pd,1.4998,-0.0168403,,3,3.0
CuRh2Pu,0.0,-0.0484763,,3,3.0
V2MoRu,0.0,-0.0265321,,3,3.0
H4ZnSr,1.6448,-0.0086087,,3,3.0
N2GdPa,0.0,-0.0460157,,3,3.0
K2FeBr4,0.9832,-0.0174499,,3,3.0
O3K2Ge,3.6234,-0.0109936,,3,3.0
Ti4Se10Hf,0.0,-0.0231084,,3,3.0
O6RhBa2Ho,0.0,-0.022529,,3,3.0
Ca2SnHg,0.0,-0.0316265,,3,3.0
Li5O8Mn3,0.0,-0.0095805,,3,3.0
F8CaIn2,4.852,-0.0126006,,3,3.0
FeBr3Rb,0.5533,-0.020649,,3,3.0
Pd7Bi,0.0,-0.0386179,,3,3.0
Br6SnTl2,1.2468,-0.0338488,,3,3.0
Zn4SrBa,0.0,-0.0194464,,3,3.0
KPd3Sn2,0.0,-0.0302405,,3,3.0
ScMn2Pu,0.0,-0.0402916,,3,3.0
SiTm2Ir2,0.0,-0.0523624,,3,3.0
Ge3PdDy,0.0,-0.0282331,,3,3.0
PdITl3,0.0,-0.0576775,,3,3.0
Si2RhLa,0.0,-0.0252536999999999,,3,3.0
AlLaIr,0.0,-0.0416434,,3,3.0
Li4O12CrSbW2,1.0123,-0.0161997,,3,3.0
SnLa2Tl,0.0,-0.0493477,,3,3.0
ZnGeSm,0.0,-0.0264617,,3,3.0
Br2SnTb2,0.0,-0.0351516,,3,3.0
AlSr2In3,0.0,-0.0259417,,3,3.0
C4Al4Th,0.133,-0.0189064,,3,3.0
NiCuSb2,0.0,-0.0266469999999999,,3,3.0
S8ZnNb6,0.0,-0.02037,,3,3.0
InTe4HgTl2,0.0,-0.049614,,3,3.0
SiSnAu5,0.0,-0.0559989,,3,3.0
MgAg2Hg,0.0,-0.0341329,,3,3.0
TiCo2Ta,0.0,-0.0296336,,3,3.0
ZnAs2AgLa,0.5032,-0.0264515,,3,3.0
Cr4WOs,0.0,-0.0357904,,3,3.0
Se2RbCe,0.5617,-0.0283176999999999,,3,3.0
PLa2,0.0,-0.03331,,3,3.0
Co4W,0.0,-0.027643,,3,3.0
Co2Y3Sn3,0.0,-0.0287649,,3,3.0
CrSe3Cs2,0.0,-0.026781,,3,3.0
NaAlSn2,0.0,-0.0209921,,3,3.0
N2OZr2,2.1673,-0.0196392,,3,3.0
Li2O12Cr3Co3,0.0,-0.0111774,,3,3.0
Al6EuAu,0.0,-0.0216239999999999,,3,3.0
P2CuSm,0.0,-0.0210795,,3,3.0
Na2S3Pa,0.0,-0.0244826,,3,3.0
MgYSn2,0.0,-0.0266627,,3,3.0
Cu2HoTm,0.0,-0.0331402,,3,3.0
AlSiTc,0.7975,-0.0183207,,3,3.0
FAgTeBa,2.0213,-0.0300543,,3,3.0
FeZr2Pt,0.0,-0.0381529,,3,3.0
K2Cd,0.0,-0.0157102,,3,3.0
Te2Dy6Pt,0.0,-0.0489715,,3,3.0
O8S2RbAu,1.9076,-0.0146664,,3,3.0
O8STi3,2.5453,-0.0116685,,3,3.0
H8Ge,6.383,-0.0051215,,3,3.0
SIDy,2.9059,-0.0334005,,3,3.0
Si3Ce,0.0,-0.0190032,,3,3.0
I3Ba,0.0,-0.0388667,,3,3.0
CaSrCd,0.0,-0.0210725,,3,3.0
O4ScTa,4.5749,-0.021097,,3,3.0
AlSmPt2,0.0,-0.0494965,,3,3.0
Si3CuDy,0.0,-0.0190542,,3,3.0
TbTmIr2,0.0,-0.0612287,,3,3.0
Ga2SrIr3,0.0,-0.0452762,,3,3.0
NiRuNd2,0.0,-0.0347321,,3,3.0
Al6NbTa,0.0,-0.0186881,,3,3.0
Al4FeGd,0.0,-0.0184173,,3,3.0
N2ZnZr,2.4899,-0.0168441,,3,3.0
F6LaPu,0.0,-0.0257012,,3,3.0
Al9CaMn2,0.0,-0.0098747,,3,3.0
SbTmLu,0.0,-0.048909,,3,3.0
ZnBa2Pt2,0.0,-0.0473393,,3,3.0
Se2ZrHg,0.017,-0.0358616999999999,,3,3.0
Zn5Sm,0.0,-0.0190535,,3,3.0
FK2Rb,0.0,-0.0115888,,3,3.0
Ni6Sb,0.0,-0.019156,,3,3.0
Ni3Rh2La,0.0,-0.0267887,,3,3.0
Ga2CdPu,0.0,-0.0434166999999999,,3,3.0
Na3DyBi2,0.0361,-0.0367984,,3,3.0
Si2ScRu2,0.0,-0.0216811,,3,3.0
Si2FeSm2,0.0,-0.0259932,,3,3.0
FeDy,0.0,-0.0328693,,3,3.0
SeAuPb2,0.0,-0.0604902,,3,3.0
N2NbLa,0.0,-0.0250328,,3,3.0
Al2MnZn,0.0,-0.0121019,,3,3.0
O6NiSr2Er,0.0,-0.0173824,,3,3.0
MgAl5Pt,0.0,-0.0167274,,3,3.0
Sc3Hg,0.0,-0.0281232,,3,3.0
ScZnIn,0.0,-0.0209189,,3,3.0
O2SBr2,2.89,-0.0128512,,3,3.0
La2HgBi2,0.0,-0.0631926,,3,3.0
P2Fe2La,0.0,-0.0209691,,3,3.0
B2MgRh3,0.0,-0.0207634,,3,3.0
NSiPr3,0.0,-0.0307164,,3,3.0
NaInBa2,0.0,-0.0294649999999999,,3,3.0
Li2BO4Fe,1.9594,-0.0091369,,3,3.0
GeAsRb,0.3847,-0.0203516,,3,3.0
Li3O6VMn2,0.198,-0.0105489,,3,3.0
Mg2PPb,0.0,-0.0244035,,3,3.0
Ti3Hg,0.0,-0.0293382,,3,3.0
PSc2Pb,0.0,-0.029815,,3,3.0
Zn3Sb2,0.0,-0.0229675,,3,3.0
CaNiLa2,0.0,-0.0281061,,3,3.0
BPt6Th2,0.0,-0.0699671,,3,3.0
SSbHo,0.0,-0.0334936999999999,,3,3.0
Si2Hf,0.0,-0.0280971,,3,3.0
LiRh2Sm,0.0,-0.0290565,,3,3.0
S4Mn2Ni,0.0,-0.0136504,,3,3.0
O6NiRuPr2,0.1196,-0.0200023,,3,3.0
O4SeLuBi2,0.0,-0.0340373999999999,,3,3.0
H4YGd,0.0,-0.0175225,,3,3.0
Pd2In2La,0.0,-0.0358132,,3,3.0
Al3Ge2Sm3Re,0.0,-0.0302236,,3,3.0
CoGa4Sm,0.0,-0.0217307999999999,,3,3.0
GeLa2Ir2,0.0,-0.0504615,,3,3.0
O8P2SrNb,0.5194,-0.0133062,,3,3.0
BO4V,3.2315,-0.0108146,,3,3.0
GeHf2Ir3,0.0,-0.0605491,,3,3.0
Cu2Sr2Cd,0.0,-0.0212058,,3,3.0
Al3FeSn2Th3,0.0,-0.0450129,,3,3.0
Co2Ho,0.0,-0.0280182,,3,3.0
YSnTe,0.0,-0.0347624,,3,3.0
TiNiRbTe3,0.0,-0.0282057,,3,3.0
Si3NiTh,0.0,-0.0290503,,3,3.0
Si3NiLa3,0.0,-0.0258317,,3,3.0
Al7Ni2Pr3,0.0,-0.0186359,,3,3.0
Cu2Dy2Tl,0.0,-0.0401024,,3,3.0
Te2Ho3,0.0,-0.0453159,,3,3.0
Li2O8Ti2MnNi,0.799,-0.0112418999999999,,3,3.0
K2As2Pb,0.0,-0.0269712,,3,3.0
Li2Cu3,0.0,-0.0100786,,3,3.0
O9MnNb2Ba3,0.7162,-0.0202774,,3,3.0
MgCo2Ho2,0.0,-0.0276235,,3,3.0
AlPd2Nd,0.0,-0.0302186999999999,,3,3.0
MgCo2Ce2,0.0,-0.0257414999999999,,3,3.0
SiSrIr,0.0,-0.0353032,,3,3.0
MgZn2Tb,0.0,-0.02011,,3,3.0
AlCoY,0.0,-0.0180341999999999,,3,3.0
Ca5Cd,0.0,-0.0132421,,3,3.0
PKCa2,0.0,-0.0102227,,3,3.0
KAsTl2,0.0,-0.0435399,,3,3.0
NiCu2Dy,0.0,-0.0238040999999999,,3,3.0
NOF2K,3.7568,-0.0076012,,3,3.0
CdI6Tl4,2.1832,-0.0497704999999999,,3,3.0
H8Mn3Pr,0.0,-0.0107257999999999,,3,3.0
Co4ZnTm,0.0,-0.0225461,,3,3.0
AlCo2Gd,0.0,-0.0255201,,3,3.0
YRuPb,0.0,-0.0465516,,3,3.0
S4MnNi3,0.0,-0.0137036,,3,3.0
Ga2HoAc,0.0,-0.0435708,,3,3.0
F6NaCs2Bi,5.4519,-0.0207472,,3,3.0
PRbRu,0.0,-0.0226248,,3,3.0
F6Cs2Lu,0.0,-0.0201456,,3,3.0
CMn2Sn2Ho2,0.0,-0.0313854,,3,3.0
O6ScNbPb2,3.1109,-0.0260361,,3,3.0
O4MnPt,0.0,-0.0202848,,3,3.0
F6PdHg,2.1497,-0.0167348,,3,3.0
Sc3NiCu2,0.0,-0.0152876,,3,3.0
SbPrPt,0.2278,-0.0516202,,3,3.0
O3NiEu,0.0,-0.0198682,,3,3.0
Ag5Sb3,0.0,-0.0334629,,3,3.0
AlSi2Er2,0.0,-0.0264428,,3,3.0
PdIn5Ba,0.0,-0.0345762,,3,3.0
AlCr2Mn,0.0,-0.0159574,,3,3.0
PZrPu,0.0,-0.0512664,,3,3.0
Al3NiEr2,0.0,-0.0239314,,3,3.0
PRbBa3,0.0,-0.0304447,,3,3.0
As2Sr2Sb,0.0,-0.0253414,,3,3.0
Sc2SrPd2,0.0,-0.0239873,,3,3.0
Te8Au3,0.0,-0.0459954,,3,3.0
H3KAg,0.0,-0.0100344,,3,3.0
Al5LuAu,0.0,-0.0237632,,3,3.0
Li2As2U,0.0,-0.0304807,,3,3.0
Be2AlRh2,0.0,-0.0177039,,3,3.0
KSe6Mo6In,0.0056,-0.0271746,,3,3.0
PFeNp,0.0,-0.0456520999999999,,3,3.0
Cl4MnBr2Cs2,1.0515,-0.0199165,,3,3.0
Sn2LaAc,0.0,-0.052136,,3,3.0
TeGd,0.0,-0.0495616,,3,3.0
AsCdCs,0.3993,-0.0299815,,3,3.0
Br2Ag2Hg,0.7155,-0.0341659,,3,3.0
CuAs2Er,0.0,-0.0273901,,3,3.0
Li3O10Ti2V3,0.004,-0.0113289,,3,3.0
Ni4InCe,0.0,-0.0241075,,3,3.0
SrCd2La2,0.0,-0.0341492999999999,,3,3.0
ZnAgTb2,0.0,-0.034994,,3,3.0
SNi2Te,0.0,-0.020056,,3,3.0
Na2KRb2,0.0,-0.0115942,,3,3.0
LiCaSn2,0.0,-0.0214576,,3,3.0
AsEu2Au,0.0,-0.0503507,,3,3.0
AlCaFe2,0.0,-0.0134816,,3,3.0
Ag4SbTl,0.0,-0.039085,,3,3.0
Cl6K3Pr,5.8934,-0.0139508,,3,3.0
Ni2Pr2Pb,0.0,-0.0394444,,3,3.0
P2CuPr,0.0,-0.0207627,,3,3.0
GaBa,0.0,-0.0283667,,3,3.0
N2Lu7Tl3,0.0,-0.0529775,,3,3.0
CuSr2,0.0,-0.0198832,,3,3.0
Mn2Ge2Sm,0.0,-0.0244604,,3,3.0
Rh2Te2Cs,0.0,-0.0365539,,3,3.0
In5NdOs,0.0,-0.0406638,,3,3.0
PdEuBi2,0.0,-0.0615683,,3,3.0
PrAuTl,0.0,-0.0624046,,3,3.0
S3VBa,0.0,-0.0187757,,3,3.0
Na2KCd,0.0,-0.011811,,3,3.0
O6Ba2NdTm,0.0,-0.0241283,,3,3.0
Ni4Ge2Hf3,0.0,-0.0329886,,3,3.0
Al7Sm3Au2,0.0,-0.0278829,,3,3.0
AlCuEu,0.0,-0.0258667,,3,3.0
Na2AlGa2,0.0,-0.0098158,,3,3.0
N2YPa,0.0,-0.0383579999999999,,3,3.0
Pd2HoAu3,0.0,-0.0542327,,3,3.0
Si3Tc4,0.0,-0.0247513,,3,3.0
PCa3Sr,0.0,-0.0128601,,3,3.0
Te2Pt2Bi,0.0,-0.0590777,,3,3.0
RhPr2,0.0,-0.0406462999999999,,3,3.0
H6RuEr2,0.0,-0.0179346999999999,,3,3.0
LiF3Fe,0.8983,-0.0088524,,3,3.0
CaNiSr3,0.0,-0.0184823,,3,3.0
Si3Tm2Au,0.0,-0.034643,,3,3.0
PPdCe,0.0,-0.0305764,,3,3.0
B2Ru3Nd,0.0,-0.027629,,3,3.0
Sn2ErAu2,0.0,-0.0527105999999999,,3,3.0
SrSmTl,0.0,-0.0468769,,3,3.0
CdSm2,0.0,-0.0400717,,3,3.0
TeI2Th2,0.0,-0.0615453,,3,3.0
B2O6ZrPb,4.4365,-0.018591,,3,3.0
CoDy6Pb2,0.0,-0.0510662,,3,3.0
NZnEr3,0.0,-0.0357361,,3,3.0
SnSm2Au,0.0,-0.0493692,,3,3.0
Ga2RuEr,0.0,-0.0301539,,3,3.0
O7P2Ca2,6.1986,-0.0106679,,3,3.0
SiNi2Zn,0.0,-0.0143919,,3,3.0
LiCu2Ba2,0.0,-0.0223252,,3,3.0
Nb2Sn,0.0,-0.0342967999999999,,3,3.0
CaZnPd,0.0,-0.0193214,,3,3.0
AlLuIr,0.0,-0.0459123,,3,3.0
Ag5Tl,0.0,-0.0381325999999999,,3,3.0
O2F2NaCr,0.2236,-0.0094223,,3,3.0
H5RuPr2,0.0,-0.0179217,,3,3.0
Al2MnDy,0.0,-0.0208609,,3,3.0
FAsCdBa,1.2132,-0.0254508,,3,3.0
CrGa3Tm2,0.0,-0.029112,,3,3.0
AlRh2Hg,0.0,-0.0364658999999999,,3,3.0
Cu3Ga2Pu,0.0,-0.0314949,,3,3.0
In2GdHo,0.0,-0.0442344999999999,,3,3.0
S8V4Ge,0.0,-0.0137609999999999,,3,3.0
Li3K2Br5,5.2342,-0.0139126999999999,,3,3.0
O6MoTb2,3.8964,-0.0215827,,3,3.0
NKCo,0.0,-0.0116899,,3,3.0
LiF6Mn2,0.2917,-0.0095444,,3,3.0
Sb2BaHg2,0.0,-0.0505881,,3,3.0
Al2FeLa6,0.0,-0.0325915,,3,3.0
SiZrOs,0.0,-0.0384915,,3,3.0
CaZn3Ag2,0.0,-0.0190767,,3,3.0
Cu2GaTb,0.0,-0.0238185,,3,3.0
Si2RuTb,0.0,-0.0263067999999999,,3,3.0
Zn3CePt2,0.0,-0.0383558,,3,3.0
Zr2RuCd,0.0,-0.0321138,,3,3.0
Pd5InSn,0.0,-0.0337678,,3,3.0
CrCo2Tb2,0.0,-0.0292761,,3,3.0
NaRh2Pb2,0.0,-0.0447592,,3,3.0
H8Fe3Pr,0.0,-0.010572,,3,3.0
In2La2Hg,0.0,-0.0448383,,3,3.0
WRe8,0.0,-0.0708715,,3,3.0
LiBr6Rb2Bi,3.1093,-0.0253360999999999,,3,3.0
CaGe2Cd2,0.0,-0.0220310999999999,,3,3.0
NiBrPr,0.0,-0.0274612,,3,3.0
NMnCo3,0.0,-0.0160903,,3,3.0
F6K2La,0.0,-0.0122735,,3,3.0
Te6DyU,0.0,-0.0476049999999999,,3,3.0
Ni3Ru,0.0,-0.0207101,,3,3.0
Cu4Ge2Tb3,0.0,-0.0271386,,3,3.0
Cu4ZnPa,0.0,-0.0290024,,3,3.0
Be13Ho,0.0,-0.0077179,,3,3.0
Si2GaTc2,0.0,-0.0216213,,3,3.0
Zn2InLu2,0.0,-0.0347374,,3,3.0
ZnSr,0.0,-0.0181454,,3,3.0
SiNbTc2,0.0,-0.0288117,,3,3.0
SiPd2Ce,0.0,-0.0309093,,3,3.0
N3RuGd,0.0,-0.0248557999999999,,3,3.0
SiCuEu,0.0,-0.0267467,,3,3.0
Al3CrGe2U3,0.0,-0.0434772999999999,,3,3.0
Ga2NdIr,0.0,-0.0376929,,3,3.0
S3NbAg,0.0,-0.0194146,,3,3.0
CaSnSb,0.0,-0.0282238,,3,3.0
Sc6ZnTl2,0.0,-0.0274699999999999,,3,3.0
In3Dy3Ir2,0.0,-0.049015,,3,3.0
Br5Pr2,0.2219,-0.0283389,,3,3.0
NiMoPt2,0.0,-0.0481707,,3,3.0
NFCa6In2,0.0,-0.0149743999999999,,3,3.0
Se3NbBa,0.0,-0.0280371,,3,3.0
B2AgPt2,0.0,-0.0375243,,3,3.0
PRbSn,1.0515,-0.0227434,,3,3.0
O8P2CaPu,0.0209,-0.0188192999999999,,3,3.0
Cd5Th,0.0,-0.0414226,,3,3.0
LiP2Rh2Gd,0.0,-0.0260507,,3,3.0
FeGe2Y3In3,0.0,-0.0272649,,3,3.0
FeRuTa2,0.0,-0.0468552,,3,3.0
Li2TePb,0.0,-0.0300515,,3,3.0
GaAs3Hf2,0.0,-0.034493,,3,3.0
SrAu4Tl,0.0,-0.0623297,,3,3.0
Ni2Pt3Th,0.0,-0.0572585,,3,3.0
MnFeEr,0.0,-0.0288769,,3,3.0
SRhBi,0.5811,-0.0411398,,3,3.0
SiCa2Pd2,0.0,-0.0198195,,3,3.0
K2ZrTe3,1.0531,-0.0276563,,3,3.0
CuGaI4,1.8567,-0.0301417,,3,3.0
CoSe2Br6,0.6032,-0.019586,,3,3.0
CO7NaAsSn,2.6597,-0.0119327,,3,3.0
LiRhBa2,0.0,-0.0289753,,3,3.0
Zr2InPt,0.0,-0.0420463,,3,3.0
O6RuBa2Dy,0.7313,-0.0226721,,3,3.0
Mg2PdBa,0.0,-0.0210517,,3,3.0
O4SEu,1.0272,-0.0171361999999999,,3,3.0
F6TiIn,0.0,-0.0119043,,3,3.0
LiZnRhSn,0.0,-0.0218842,,3,3.0
NAlZr3,0.0,-0.0229386,,3,3.0
In3Te,0.0,-0.0344671999999999,,3,3.0
Te4ErU,0.0,-0.0514266,,3,3.0
SiPd2Nd,0.0,-0.0307783,,3,3.0
FBr2Rb,1.9652,-0.0172394999999999,,3,3.0
CaY2Bi2,0.0,-0.0453719,,3,3.0
CoZrRh2,0.0,-0.0294334999999999,,3,3.0
NiAsSb,0.0,-0.0247985,,3,3.0
Mg2Cd3,0.0,-0.0203183,,3,3.0
Co4ZrHo,0.0,-0.0250102,,3,3.0
C2O6CdPr,0.0,-0.01499,,3,3.0
BAl2CaOs2,0.0,-0.0299001,,3,3.0
S8Mo6Ce,0.0,-0.0230977999999999,,3,3.0
PCuEu,0.0,-0.0274226,,3,3.0
Al2NiPr,0.0,-0.0193919,,3,3.0
NiZr6Bi2,0.0,-0.0402111,,3,3.0
CaSrIn,0.0,-0.0222291999999999,,3,3.0
Al10Cu2La,0.0,-0.0118629,,3,3.0
Cu2Sr3Cd2Sb4,0.2356,-0.0286024,,3,3.0
P2Co2Pu,0.0,-0.0337644999999999,,3,3.0
O6RhPdPr2,0.0,-0.0212798,,3,3.0
F2CsTl,3.5039,-0.0315208,,3,3.0
Fe6Ge3Tb2,0.0,-0.0239216,,3,3.0
Br3RbTl,0.9339,-0.0314744,,3,3.0
BNb2Ru6,0.0,-0.0317411,,3,3.0
O8Mn2Sr3Dy,0.0,-0.0173133,,3,3.0
O6AlCa2Ti,0.0,-0.0112189,,3,3.0
Li2SnLa,0.0,-0.021503,,3,3.0
FeGe2Lu6,0.0,-0.0436316,,3,3.0
Li3O6Rh2Bi,1.2708,-0.0172841,,3,3.0
Na7Pb2,0.0,-0.0203521,,3,3.0
H2Sc2Cd,0.0,-0.0138259,,3,3.0
LiCePb2,0.0,-0.0501505,,3,3.0
In6IrBi2,0.0,-0.0476602,,3,3.0
CaLaPt,0.0,-0.0419615999999999,,3,3.0
TiGa5Ir,0.0,-0.0245997,,3,3.0
In2TbEr,0.0,-0.0415771999999999,,3,3.0
O6Ca3Nb,0.0,-0.0128573,,3,3.0
F6Na3Sn,0.0,-0.0096563999999999,,3,3.0
H2Zr2Tc,0.0,-0.0212521,,3,3.0
O5S2Tb2Hf2,2.919,-0.0279218,,3,3.0
NGaBa,0.0,-0.0223396,,3,3.0
SeZr2Te,0.0,-0.0308353,,3,3.0
NaRbCs3,0.0,-0.0276007999999999,,3,3.0
In5SnBa5,0.0,-0.0370377,,3,3.0
Li2O8Fe3Nb,0.7845,-0.0121578,,3,3.0
AlRb2Au3,0.0,-0.0431925,,3,3.0
NiTaPt,0.0,-0.0516302,,3,3.0
MoRu2W,0.0,-0.0434854,,3,3.0
SnTmAu,0.2836,-0.0534107,,3,3.0
Si2ScCu,0.0,-0.0128455,,3,3.0
CoLa2Au,0.0,-0.0435925,,3,3.0
Se2Br6Pd,1.5588,-0.021305,,3,3.0
SnEr2Ir2,0.0,-0.0567586999999999,,3,3.0
Sc3Zn2Hg,0.0,-0.0235295,,3,3.0
FeGa2Y6,0.0,-0.0245237,,3,3.0
GaGePt6,0.0,-0.0574707999999999,,3,3.0
HSc3Cd,0.0,-0.0156615,,3,3.0
GaZr2Ir2,0.0,-0.0450028,,3,3.0
MgAg2Pb,0.0,-0.035938,,3,3.0
Li4P4Sc3,0.0,-0.0096317,,3,3.0
AlLuPt,0.0,-0.0458753,,3,3.0
SiSe4BaAu2,0.719,-0.0343691,,3,3.0
Zn2NdPt,0.0,-0.036012,,3,3.0
Ga2Pd,0.0,-0.0222998,,3,3.0
Al4RuTh,0.0,-0.0275864,,3,3.0
NZr2Pb,0.0,-0.0377817,,3,3.0
NY3Tl,0.0,-0.0342597,,3,3.0
Zn2YCd,0.0,-0.0217054,,3,3.0
Zn2Sb2Pb,0.0,-0.035455,,3,3.0
BZr3Tl,0.0,-0.0348367,,3,3.0
NRhPr,0.0,-0.0297962,,3,3.0
F7NaNd2,7.2094,-0.0156501,,3,3.0
Ga2Rh2Ho,0.0,-0.0307521999999999,,3,3.0
H2Zr2Sn,0.0,-0.0214252,,3,3.0
Br6AgInCs2,0.4811,-0.0270189,,3,3.0
Mg8Y,0.0,-0.0075437,,3,3.0
Li,0.0,-0.0023897,,3,3.0
Co2La3Tl3,0.0,-0.0479506,,3,3.0
InI2Tm2,0.0,-0.0430937,,3,3.0
GaCdTb,0.0,-0.0318142,,3,3.0
B2CRu2Ce,0.0,-0.0236099,,3,3.0
F6CoEr,2.8663,-0.0143871,,3,3.0
OsIr4,0.0,-0.0712459999999999,,3,3.0
RuLa3Bi,0.0,-0.0492417,,3,3.0
B6Fe2Dy,0.0,-0.0147891999999999,,3,3.0
S8V5,0.0,-0.0137501999999999,,3,3.0
CdIrTh,0.0,-0.0665022,,3,3.0
Ni2ZnMo,0.0,-0.0202982,,3,3.0
FeGe2Nb2,0.0,-0.0248362,,3,3.0
MgNi2Tm3,0.0,-0.0324899,,3,3.0
B6Co12Tb,0.0,-0.0160003,,3,3.0
B2FeW2,0.0,-0.0348126,,3,3.0
Ca2Ge3Pt,0.0,-0.025309,,3,3.0
Sc2Ge2Ag,0.0,-0.020326,,3,3.0
Nb2RhPd,0.0,-0.0336031,,3,3.0
H8N2F6Si,7.7173,-0.006268,,3,3.0
O2KNb,1.3955,-0.0157583,,3,3.0
Cr4TcIr,0.0,-0.0300462,,3,3.0
HCl2Pa,0.0,-0.0311273,,3,3.0
O4PSm,6.4618,-0.0166268,,3,3.0
CuGa3Ge2Sm3,0.0,-0.0269329,,3,3.0
BePCo2,0.0,-0.0127724,,3,3.0
LaTl4,0.0,-0.0668096,,3,3.0
AlTcRu,0.0,-0.026388,,3,3.0
O6TiFeBa2,0.0,-0.017783,,3,3.0
CTeU2,0.0,-0.0637682,,3,3.0
O3Cs2Er,0.0,-0.0263128,,3,3.0
Li2ScIn2,0.0,-0.0175507,,3,3.0
Al3Si2ZnLu3,0.0,-0.0253649,,3,3.0
H3O6P2Cs,6.4132,-0.010725,,3,3.0
Cd2Er,0.0,-0.0374486,,3,3.0
Mn2CuPdSb2,0.0,-0.0269061,,3,3.0
Li3As2Pr,0.3077,-0.0162584,,3,3.0
H3C2O5Na,3.6486,-0.0072835999999999,,3,3.0
O4Cu2As2Te2Dy,0.0,-0.0212113,,3,3.0
MnRu2Tm3,0.0,-0.0410344,,3,3.0
ZnITm,0.0,-0.0349324,,3,3.0
H8N4AlRb,3.9451,-0.0072582,,3,3.0
Rh2Er3Pb3,0.0,-0.0565352,,3,3.0
NiCu4Pu,0.0,-0.0310598,,3,3.0
TcHf,0.0,-0.0494442,,3,3.0
MgFe2Lu3,0.0,-0.0345412,,3,3.0
BeNbRh,0.0,-0.0242859,,3,3.0
TiCo2Ni,0.0,-0.0169987,,3,3.0
ScI6Cs2,0.0,-0.0358239999999999,,3,3.0
H4FeY,0.0,-0.0104715,,3,3.0
CFe2Ge2Zr2,0.0,-0.0214105,,3,3.0
CaCuIn2,0.0,-0.0233331,,3,3.0
Ga2Rh2Dy,0.0,-0.0305198,,3,3.0
Al2Cu3Sr,0.0,-0.0141485,,3,3.0
PNdPu,0.0,-0.05565,,3,3.0
K2CdPt,0.0,-0.0295018999999999,,3,3.0
F8CaY2,7.8798,-0.0128577999999999,,3,3.0
RuRh2Re,0.0,-0.0434683,,3,3.0
Be3LaPt,0.0,-0.0259031999999999,,3,3.0
O4ErBi,0.8319,-0.0277922,,3,3.0
Cl6ZrTe4,0.6197,-0.0217552999999999,,3,3.0
Se6Ta2Ir,0.0,-0.0367222,,3,3.0
O6MnSr2Sb,0.0,-0.0162612,,3,3.0
Al2LuAu2,0.0,-0.0427411,,3,3.0
Li2Cd2Hg,0.0,-0.0269914,,3,3.0
Ni2Ga5Ho,0.0,-0.0209194,,3,3.0
C7Sc5Re2,0.0,-0.02087,,3,3.0
CuErPb,0.0,-0.0477079,,3,3.0
Mg3Au2Hg,0.0,-0.0375291,,3,3.0
GaI6Cs2Hg,0.0,-0.0389483,,3,3.0
TeLa2,0.0,-0.0422474,,3,3.0
O4NdGd,0.0,-0.0241123,,3,3.0
AlSb2Th6,0.0,-0.0735402,,3,3.0
MnSe2In,0.0,-0.0235948,,3,3.0
Te9Bi8,0.0775,-0.0568465,,3,3.0
PdTe2Ho6,0.0,-0.0454626,,3,3.0
Na2Ag2In,0.0,-0.0209561999999999,,3,3.0
NaCdInPt,0.0,-0.034936,,3,3.0
Ni4Tc5,0.0,-0.0266687,,3,3.0
ZnSbLa,0.0,-0.0321759,,3,3.0
YPdHg2,0.0,-0.0498836999999999,,3,3.0
BeAlNi,0.0,-0.0099077,,3,3.0
VFe4,0.0,-0.017868,,3,3.0
AlEu2Au2,0.0,-0.0515491999999999,,3,3.0
P2CuSe6Bi,0.7892,-0.0236737,,3,3.0
OZnGdBi,0.0,-0.0409701,,3,3.0
ZrNbTc,0.0,-0.033286,,3,3.0
TeTbBi,0.0,-0.0553127,,3,3.0
NiHo3,0.0,-0.0410249,,3,3.0
BSm2Pt6,0.0,-0.0585339,,3,3.0
Na2Ag2La,0.0,-0.0229557,,3,3.0
Mn4ZrTa,0.0,-0.0285296999999999,,3,3.0
Hg4Tl3,0.0,-0.0699004,,3,3.0
MgNdIr,0.0,-0.0406159,,3,3.0
CGaLa3,0.0,-0.0314985,,3,3.0
Rh2Er2Hg,0.0,-0.0481326,,3,3.0
Li2SiSr,0.0,-0.0096072,,3,3.0
B4LuOs,0.0,-0.0268360999999999,,3,3.0
CGe2Mo2Pu,0.0,-0.0382295,,3,3.0
O7Si2CaMn,1.9321,-0.0111569,,3,3.0
SbTe2Au,0.0,-0.0453506,,3,3.0
AlRuCe,0.0,-0.0297016999999999,,3,3.0