formula,bg,formation_energy,mp-id,fidelity,bg_category
OF5NaRb2Hf,5.4824,-0.0166054,,3,3.0
RuPm,0.0,-0.0395933,,3,3.0
Al4RuPu,0.0,-0.0297866,,3,3.0
Ga2SnBi,0.0,-0.0367370999999999,,3,3.0
H2O5MgSe,4.0928,-0.0084605999999999,,3,3.0
H2Li2Ag,0.0,-0.0086958,,3,3.0
Mn4TcRe,0.0,-0.0298736,,3,3.0
P2Cu2RbHo,0.0,-0.0209784,,3,3.0
AlCrRuIr,0.0,-0.0337729,,3,3.0
SeBrPd,0.0,-0.0245084,,3,3.0
Ni3GeTm2,0.0,-0.0291938,,3,3.0
DyHg2,0.0,-0.0619718,,3,3.0
Al5PtPu,0.0,-0.0319208,,3,3.0
MgCaPt2,0.0,-0.039695,,3,3.0
TiRbTe3Au,0.0,-0.0370369,,3,3.0
Rh2SnCe2,0.0,-0.0394104,,3,3.0
Ge4Ru4Dy3,0.0,-0.0333185,,3,3.0
MgSc2Fe,0.0,-0.0130117,,3,3.0
CrRu2Rh,0.0,-0.030474,,3,3.0
Pd2Pb,0.0,-0.0473159,,3,3.0
CuSe2Rb2,0.0,-0.0202171,,3,3.0
GaY2Hg,0.0,-0.0357843,,3,3.0
Ti2ZnSn,0.0,-0.0207580999999999,,3,3.0
KGaBr6Cs2,2.6422,-0.0232443,,3,3.0
HAlMn3,0.0,-0.013455,,3,3.0
LiSbI6Cs2,1.8404,-0.0346644,,3,3.0
Si3MnCe,0.0,-0.0190304,,3,3.0
SiNi2Y,0.0,-0.0182894,,3,3.0
NLa3Tl,0.0,-0.0432642,,3,3.0
Co2SbPm,0.0,-0.0292163,,3,3.0
Y2Ru2In,0.0,-0.0322437,,3,3.0
F6NbSn,0.0,-0.0139774999999999,,3,3.0
P2NiZr,0.0,-0.0179299,,3,3.0
NiZn2,0.0,-0.0145805,,3,3.0
Ca2Pd2Bi,0.0,-0.0334455,,3,3.0
Sn2CeTb,0.0,-0.0415165,,3,3.0
KSnI3,0.7849,-0.0317847,,3,3.0
Li4As4Ho3,0.0,-0.0226981999999999,,3,3.0
O2CoBrSb,0.4598,-0.0183511999999999,,3,3.0
Ho2Au2Hg,0.0,-0.0618617,,3,3.0
O4TmTh,0.8077,-0.0324041,,3,3.0
F5MgCu,0.7689,-0.0079225,,3,3.0
F2Pb,4.677,-0.0300512,,3,3.0
CSi2Co2Sm2,0.0,-0.0225638,,3,3.0
GaCe,0.0,-0.0309880999999999,,3,3.0
OPr3Tl,0.0,-0.043271,,3,3.0
NFe3Sn,0.0,-0.0198903,,3,3.0
GeTb2Ir3,0.0,-0.0553315,,3,3.0
TiIn3,0.0,-0.0291864999999999,,3,3.0
K2CuAs,1.3674,-0.0134458,,3,3.0
ScCu2Y2,0.0,-0.0202636,,3,3.0
CuSb,0.0,-0.0262398,,3,3.0
CuYZr2,0.0,-0.0261917,,3,3.0
P2Rh2Tl,0.0,-0.0326773,,3,3.0
Co2La3,0.0,-0.0326507999999999,,3,3.0
B2CNi2Er,0.0,-0.0185264999999999,,3,3.0
GeSePu,0.0,-0.0506169,,3,3.0
Si3Sc2Pt,0.0,-0.0224162,,3,3.0
Si2YRu3,0.0,-0.02615,,3,3.0
PS3Tl,1.8467,-0.0227347,,3,3.0
KInPt,0.0,-0.0377323,,3,3.0
H6Cs2Pt,4.1224,-0.0190184,,3,3.0
AlEr2Os2,0.0,-0.0510256,,3,3.0
B6Fe2Th,0.0,-0.0201072,,3,3.0
Pt4U,0.0,-0.0773806,,3,3.0
Cr2AsSb,0.0,-0.0237825999999999,,3,3.0
TiNi2Se3,0.0,-0.0188137,,3,3.0
BePTa2,0.0,-0.0376156999999999,,3,3.0
Be17Ta2,0.0,-0.0110591,,3,3.0
Si2CdSm2,0.0,-0.0285806,,3,3.0
HK3Bi,0.0,-0.021737,,3,3.0
LiZn2,0.0,-0.0100311,,3,3.0
Si2Os,0.0,-0.0310898,,3,3.0
GaSnAu,0.0,-0.0405809,,3,3.0
CaCuZn,0.0,-0.0130038,,3,3.0
Fe4ZnW,0.0,-0.0258313999999999,,3,3.0
Zn2PdHf,0.0,-0.0310671,,3,3.0
O6Ba3Ta,0.0,-0.0251382,,3,3.0
AlFeZr,0.0,-0.0191941,,3,3.0
Os3Ir5,0.0,-0.0713598999999999,,3,3.0
Si2NiRu,0.0,-0.0183383,,3,3.0
Cl2Cu2ICs,2.5549,-0.0211372,,3,3.0
TeI2Pr2,0.0,-0.0410225,,3,3.0
Al2Zr2Cd,0.0,-0.0218771,,3,3.0
Li2O2FRh,2.2852,-0.0111281,,3,3.0
NiZrIn,0.0,-0.0272821,,3,3.0
H8Mg2MnTh,0.0,-0.0129899,,3,3.0
ZrPdIn5,0.0,-0.0332508,,3,3.0
O6YBa2Ir,0.0,-0.0241749,,3,3.0
FeBr4Tl2,0.7916,-0.035136,,3,3.0
S8Mo6Pb,0.0,-0.0248751,,3,3.0
Br3Lu,4.6891,-0.0304769,,3,3.0
In2LaTb,0.0,-0.0398040999999999,,3,3.0
Na2Si2Pt,0.0,-0.0201677,,3,3.0
F4NaLa,7.7028,-0.0141823,,3,3.0
Sb2OsNp,0.0,-0.0634215,,3,3.0
S4GaSe4Mo4,0.0,-0.0219176,,3,3.0
SiNb,0.0,-0.02213,,3,3.0
NdAu4,0.0,-0.0647035,,3,3.0
Fe4ZnDy,0.0,-0.0223089,,3,3.0
CClDy,0.0,-0.0233972,,3,3.0
H8Mg2CoTb,0.0,-0.0088075,,3,3.0
Li3CO7SiCo,2.4448,-0.0089373,,3,3.0
SeBr2Er2,0.0,-0.0337906,,3,3.0
O2SeEr2,2.385,-0.0301083,,3,3.0
O5CuSr2Pb,0.0,-0.0204084,,3,3.0
GeY2Rh3,0.0,-0.0303729,,3,3.0
Cl4Nd,3.148,-0.0171086999999999,,3,3.0
NiSb2Pr,0.0,-0.0343077,,3,3.0
S3MoTeW,0.0,-0.0290806,,3,3.0
Zn3Ru2Tb,0.0,-0.0264038,,3,3.0
Sr2TlPb,0.0,-0.0488711,,3,3.0
Li2GaTl,0.0,-0.0236694,,3,3.0
O12SrBa3Lu2Bi2,2.1872,-0.0268311,,3,3.0
VCo3Zr2,0.0,-0.022068,,3,3.0
FSeY,2.8304,-0.0203356,,3,3.0
ScNiZr2,0.0,-0.0231598,,3,3.0
PrPb2,0.0,-0.06563,,3,3.0
O3CoRb2,0.5712,-0.014349,,3,3.0
Zn2SmHo,0.0,-0.0305157,,3,3.0
Rh2InPr,0.0,-0.0367003,,3,3.0
MgY2Hg2,0.0,-0.0400819,,3,3.0
LiMoRh2,0.0,-0.0264009,,3,3.0
LiO7ScAs2,4.2255,-0.0112804,,3,3.0
CsTl4,0.0,-0.0656054,,3,3.0
AgEr2Ir,0.0,-0.0515847,,3,3.0
Ti2ZnW,0.0,-0.0289747,,3,3.0
F6CoTl,1.8396,-0.0158755,,3,3.0
CuLa2Au,0.0,-0.0432697,,3,3.0
B4Y2Ru5,0.0,-0.0241685,,3,3.0
Cd3In,0.0,-0.0311221,,3,3.0
Se3Rb3Bi,2.3892,-0.0296879,,3,3.0
Hf2Pt3,0.0,-0.0685038,,3,3.0
S3Pa,0.0,-0.033357,,3,3.0
O4FeRu,0.0,-0.0143171,,3,3.0
Li3O8Cu4Sn,0.0,-0.0109611999999999,,3,3.0
Al2Ge2Tm,0.0,-0.0215299,,3,3.0
NiY2Ru3,0.0,-0.0298039999999999,,3,3.0
Zn2LaNd,0.0,-0.0287981,,3,3.0
OKBr4Nb,2.018,-0.0195465,,3,3.0
NiTaIr,0.0,-0.0517827,,3,3.0
PdTe2Tl2,0.0,-0.0507385,,3,3.0
O5S2Ti2Pu2,0.0,-0.0303659,,3,3.0
O8P2Rb3Dy,5.5096,-0.0157524,,3,3.0
BrRuSm,0.0,-0.0340307,,3,3.0
Fe2GaTa,0.5009,-0.0300928,,3,3.0
O7NaP2Y,5.988,-0.01171,,3,3.0
Co2Er4Tl5,0.0,-0.0546978,,3,3.0
C2ClSr2,0.0,-0.0154484999999999,,3,3.0
NaS2Sm,2.5592,-0.0190685,,3,3.0
F6NaFeIn2,0.0,-0.0132192,,3,3.0
Ni2Se3In,0.0,-0.0213644,,3,3.0
Rh2CdSm2,0.0,-0.0381139999999999,,3,3.0
Ni2Te3Tl,0.0,-0.0363251,,3,3.0
TiMnCo2,0.0,-0.0176629,,3,3.0
RhTa2Au,0.0,-0.0594095,,3,3.0
O6MgI2,3.5999,-0.0139105,,3,3.0
LiOFFe,0.0,-0.0096432,,3,3.0
Al2RbSb2,0.0,-0.0224208,,3,3.0
Ge2Hf2Pt,0.0,-0.0475852,,3,3.0
Si3P2Ir,0.7587,-0.0207708,,3,3.0
Cl6K2CuSb,0.8053,-0.0130245999999999,,3,3.0
AsCd2I,0.9783,-0.0297673,,3,3.0
NCaSn,0.0,-0.0189164,,3,3.0
O2MnZn2As2Sr2,0.0,-0.0174106,,3,3.0
AlCdEr2,0.0,-0.0351181,,3,3.0
CaTe3Cs2,0.0,-0.0340184,,3,3.0
S2IBi,0.7736,-0.0337428,,3,3.0
C4N4K2Pd,4.1858,-0.0117334,,3,3.0
Cl3Pr,4.8783,-0.0194235,,3,3.0
FeRh2Sn,0.0,-0.0307296,,3,3.0
AsPdEr,0.0,-0.0357355,,3,3.0
Al2HgTh2,0.0,-0.0554806,,3,3.0
NaK3Cs,0.0,-0.0133327,,3,3.0
Ni2SrLa,0.0,-0.0245344,,3,3.0
PSc2As,0.0,-0.0163695,,3,3.0
MnRu2Nd2,0.0,-0.0352493,,3,3.0
Se2TeAu,0.0,-0.036645,,3,3.0
Co2WRe,0.0,-0.0437512,,3,3.0
Be2ZnHf2,0.0,-0.0297873,,3,3.0
CoNiIr,0.0,-0.0348088,,3,3.0
Ga4NdIr,0.0,-0.030705,,3,3.0
ORbIn,0.9692,-0.0213546,,3,3.0
Na4P2Ca,1.4647,-0.0073674,,3,3.0
Zn2InTh,0.0,-0.039343,,3,3.0
Zn3HfPt2,0.0,-0.0412986999999999,,3,3.0
H8Mn2FeCe,0.0,-0.0108109,,3,3.0
LiGeAg,0.0,-0.0177952,,3,3.0
Si2CaAg2,0.0,-0.018783,,3,3.0
C2Tb,0.0,-0.0226374,,3,3.0
PrHoHg2,0.0,-0.0578316,,3,3.0
GaPdHf,0.0,-0.0380938,,3,3.0
KCd4Hg,0.0,-0.0330708,,3,3.0
O6Ge2Bi,0.0,-0.0185318,,3,3.0
B6Fe5,0.0,-0.0125458,,3,3.0
Ni2Sn2Ba,0.0,-0.0291633,,3,3.0
NaPS4Hg,2.6198,-0.0178586999999999,,3,3.0
Ge2RhIn3Tm3,0.0,-0.0371972999999999,,3,3.0
TiMo2Re,0.0,-0.0394853,,3,3.0
AgCdDy2,0.0,-0.0397361,,3,3.0
GeDyTa,0.0,-0.0451573,,3,3.0
MgRh4,0.0,-0.0282103,,3,3.0
NaSi2As2,0.0,-0.0130735,,3,3.0
H8Mn2FeSm,0.0,-0.0108258,,3,3.0
AsRuTe,1.0869,-0.0312754,,3,3.0
AsSbGd2,0.0,-0.0451443999999999,,3,3.0
Ru2Ta,0.0,-0.0456531,,3,3.0
HNa3S,3.9813,-0.0059622,,3,3.0
MnHf2Re,0.0,-0.0540115,,3,3.0
Mg3Pd2Nd,0.0,-0.0213027,,3,3.0
PRhTb,0.0,-0.0317127,,3,3.0
CaI4Tb,0.0,-0.0353962,,3,3.0
LiPtPb,0.0,-0.0499137,,3,3.0
SiSe3Pd,1.3017,-0.0210659999999999,,3,3.0
NiAs2Zr6,0.0,-0.0275817,,3,3.0
SnPr3,0.0,-0.0420062,,3,3.0
F6Na2Nb,0.7915,-0.010066,,3,3.0
AgTlTh,0.1175,-0.0667480999999999,,3,3.0
PmGdPb2,0.0,-0.0643232,,3,3.0
CuPrPb,0.0,-0.0453873,,3,3.0
O4EuHg3,0.0,-0.0364334,,3,3.0
Si2PdNp,0.0,-0.0403527,,3,3.0
Ca3Br,0.0,-0.0128795,,3,3.0
Sc2Zr,0.0,-0.0197263,,3,3.0
Li2Sn2La,0.0,-0.0246144,,3,3.0
P5Er,0.2751,-0.0176693,,3,3.0
Al7Cu2Sr3,0.0,-0.0129263,,3,3.0
Mg6Ge3Pr2,0.0,-0.0162255,,3,3.0
Li5O3F2Mn,1.6448,-0.0075467,,3,3.0
Br6Cs2AuBi,0.1763,-0.0351193,,3,3.0
VGaTc2,0.0,-0.026338,,3,3.0
LiCuGd2,0.0,-0.0338179,,3,3.0
PZnHf2,0.0,-0.0381569999999999,,3,3.0
RhTeBi,0.2204,-0.0503132,,3,3.0
CaNb2Te2,0.0,-0.0306354,,3,3.0
NaAs2Pd2Th,0.0,-0.0352629,,3,3.0
Y2Rh2La,0.0,-0.0339919,,3,3.0
O6FeSr2Ta,0.0,-0.0195333,,3,3.0
RhSn2Tm6,0.0,-0.0469976,,3,3.0
F8CaEu2,0.6105,-0.0170848,,3,3.0
NZnY3,0.0,-0.0222405,,3,3.0
LiBr6Cs2Sm,4.5148,-0.0259607,,3,3.0
AgAuHg,0.0,-0.0562074,,3,3.0
Zn2PdPt,0.0,-0.0330924,,3,3.0
Cl6K3Ce,0.0,-0.0140493,,3,3.0
LiNi2As2Sr,0.0,-0.0169737,,3,3.0
Be3Fe,0.0,-0.0080363,,3,3.0
O5Fe2TeBa3,0.0,-0.0224765,,3,3.0
MnTaPt2,0.0,-0.0571363,,3,3.0
F3KCu,0.0,-0.0091714,,3,3.0
Ag2Ba2Pb,0.0,-0.0439228,,3,3.0
ZnSr2Cd,0.0,-0.0224141,,3,3.0
O8KGaTe2,2.307,-0.0136919,,3,3.0
S3CuNdTl,0.0,-0.0277619,,3,3.0
LiMgSnPt,0.0,-0.029189,,3,3.0
Cl3Lu2,0.9715,-0.0289267,,3,3.0
AsBr6Rb2Ag,0.9005,-0.0220596999999999,,3,3.0
Na2Hg,0.0,-0.0257769,,3,3.0
RuSb2Ho6,0.0,-0.0455651,,3,3.0
O5S2Ti2Lu2,0.7833,-0.0207382999999999,,3,3.0
K2AuBi2,0.0,-0.0489630999999999,,3,3.0
F6DyEr,7.8587,-0.0192556,,3,3.0
ZnHoHg,0.0,-0.0441186,,3,3.0
Si2CuIn3Er3,0.0,-0.0323801,,3,3.0
O7Si2TiY,1.0011,-0.0130831,,3,3.0
S4CrZrAg,0.3464,-0.0181623,,3,3.0
ZnSr4,0.0,-0.0205857,,3,3.0
Be5Ag,0.0,-0.0088708,,3,3.0
NiSnAu,0.0,-0.0405168,,3,3.0
C2MnHo,0.0,-0.022253,,3,3.0
SrHg4Tl,0.0,-0.0615099,,3,3.0
RhTeI,0.3515,-0.0363438,,3,3.0
Sr2AgBa,0.0,-0.0289917,,3,3.0
P2CoW,0.0,-0.0274073,,3,3.0
SRb6,0.0,-0.0196148999999999,,3,3.0
CoY6Tl2,0.0,-0.0369232,,3,3.0
GaPd2Er2,0.0,-0.0375069,,3,3.0
NaYSn,0.0,-0.0232636,,3,3.0
Ga3Pd2Lu3,0.0,-0.0359434,,3,3.0
H4LaPt,0.0,-0.0218058,,3,3.0
Sc3Ga3Ir2,0.0,-0.0301023999999999,,3,3.0
Sc2Ga2Zr,0.0,-0.0189435,,3,3.0
Zn3Ir,0.0,-0.0281643,,3,3.0
CY2,0.0,-0.0223567,,3,3.0
B4VTa,0.0,-0.0196616,,3,3.0
LiYI3,0.0,-0.0293928,,3,3.0
TiCu,0.0,-0.015785,,3,3.0
F3KV,1.5639,-0.0103664,,3,3.0
MgFeSb,0.0,-0.0200914999999999,,3,3.0
Si2SrAu,0.0,-0.0284276,,3,3.0
AlNbPt,0.0,-0.0379444,,3,3.0
Mg3Ag5,0.0,-0.0216679,,3,3.0
Mg2HoTm,0.0,-0.0277498,,3,3.0
AlNbRh,0.0,-0.0256549,,3,3.0
NNaSn,1.4563,-0.0166360999999999,,3,3.0
Li3O4Cu4,0.0,-0.0096066,,3,3.0
Cu2SbPm,0.0,-0.0283031,,3,3.0
Co2Zr2Au,0.0,-0.0334514,,3,3.0
N3OsTh,0.0,-0.0397891,,3,3.0
ScTe,0.0,-0.0270135,,3,3.0
MgPr2,0.0,-0.0306213,,3,3.0
CICe2,0.0,-0.0347318,,3,3.0
HAlSiBa,0.8861,-0.0157028,,3,3.0
BNCoSm,0.0,-0.0207206,,3,3.0
Mg2CuPr,0.0,-0.0173226,,3,3.0
As3BrCd2,1.1653,-0.0238231,,3,3.0
O12Al6Sr4Te,3.1935,-0.0140244,,3,3.0
OAlTi3,0.0,-0.0138005,,3,3.0
SiI2Sm2,0.0275,-0.0357457,,3,3.0
Co4MoTc,0.0,-0.0231033,,3,3.0
ZnPd2Nd3,0.0,-0.0356389,,3,3.0
MgGa2Ag,0.0,-0.0172742,,3,3.0
CoBr3Rb,0.4347,-0.0204261,,3,3.0
Cl8Ga2Au,0.9786,-0.0160104,,3,3.0
ScTiCo2,0.0,-0.0166203,,3,3.0
LiAl2W,0.0,-0.021968,,3,3.0
KCdBa2,0.0,-0.029656,,3,3.0
GaY6Sb2,0.0,-0.0294941,,3,3.0
MgSi2Ni3,0.0,-0.0127555,,3,3.0
H2Sr2Cd,0.0,-0.0168752,,3,3.0
LaAu4Tl,0.0,-0.0658826,,3,3.0
SiGeAu2,0.0,-0.0418697,,3,3.0
Si3FeU,0.0,-0.0305992,,3,3.0
Mn2DyIr3,0.0,-0.0502798999999999,,3,3.0
ZnDy2Os,0.0,-0.0456689999999999,,3,3.0
S3TiMnRb,0.0,-0.0153949,,3,3.0
Al2Sc2Hg,0.0,-0.0229755,,3,3.0
MgTe2La,0.0,-0.031951,,3,3.0
B2CSc,0.0,-0.0104649,,3,3.0
S6Se2MoW3,0.8173,-0.0292647,,3,3.0
O4SiCd2,2.0581,-0.0157428,,3,3.0
Fe2GeNb,0.0,-0.0222749,,3,3.0
PdInLu,0.0,-0.0413964,,3,3.0
SiNi4Y,0.0,-0.0177065,,3,3.0
Na2Sn2Cs,0.0,-0.0238296,,3,3.0
As2RhNd2,0.0,-0.033646,,3,3.0
Mg2Al5U,0.0,-0.0190169,,3,3.0
Nb2RuAu,0.0,-0.0428517,,3,3.0
Cl6K2AsAg,1.3534,-0.0129024999999999,,3,3.0
F6SiRb2,8.1953,-0.0114405,,3,3.0
NBr2Th2,0.0,-0.0496401,,3,3.0
C4Al3Zr2,0.0,-0.014509,,3,3.0
CSc2Pb,0.0,-0.0293564,,3,3.0
LiAl2Cd,0.0,-0.01217,,3,3.0
Ti2SbTe2,0.0,-0.0293596,,3,3.0
BeSiBa2,0.0,-0.023549,,3,3.0
O4YSb2I,1.1107,-0.0225654,,3,3.0
Co3Cu,0.0,-0.0167015,,3,3.0
O2Sc2Sb,0.0,-0.0184592,,3,3.0
Nb5Te4,0.0,-0.0354001,,3,3.0
Ni2RbSb2,0.0,-0.0258156,,3,3.0
LiY2Hg,0.0,-0.0319881,,3,3.0
AsNdSm,0.0,-0.0371516,,3,3.0
CaCo2Ga2,0.0,-0.0156103,,3,3.0
ScHfHg2,0.0,-0.0536885,,3,3.0
ScPb4,0.0,-0.0637149,,3,3.0
Ge2SmPt2,0.0,-0.0457232,,3,3.0
O4CoRh,0.0,-0.0137619,,3,3.0
S2InTa,0.0,-0.0306999,,3,3.0
Si2Tb2Tl,0.0,-0.0378168,,3,3.0
CV2Ge,0.0,-0.0165867,,3,3.0
F6CoRbTl2,2.8153,-0.0226519,,3,3.0
CuGaDy2,0.0,-0.0322664,,3,3.0
O4Sr2Ta,0.0,-0.0224915999999999,,3,3.0
RuIn5Er,0.0,-0.0363779,,3,3.0
HLi3As,0.0,-0.0066913,,3,3.0
As2IBi2,0.0,-0.0468168999999999,,3,3.0
NOGe2Sr6,0.0,-0.0198567,,3,3.0
NiIn2Au,0.0,-0.0381711,,3,3.0
OCuSeDy,1.785,-0.0245137,,3,3.0
C4La3Ir,0.0,-0.0305354,,3,3.0
Zr2CdBi2,0.0,-0.0500979,,3,3.0
Cu2ZrLa,0.0,-0.0261946,,3,3.0
Sn4Os,0.0,-0.0429946,,3,3.0
Si4P4Pd,0.0,-0.012941,,3,3.0
Se3Er2,1.4038,-0.0342845,,3,3.0
PdTe2Lu6,0.0,-0.0496631,,3,3.0
Ge3SrHf,0.0,-0.0289543999999999,,3,3.0
PZr2Au,0.0,-0.0363427999999999,,3,3.0
F7Mg2K3,7.5747,-0.0084213,,3,3.0
TiGe3Sm,0.0,-0.0242628999999999,,3,3.0
F4MgRb2,7.2626,-0.0119996,,3,3.0
MgCd2Au2,0.0,-0.0411753,,3,3.0
Si2Mn3Pa,0.0,-0.0295558,,3,3.0
Mg2CoPr,0.0,-0.017682,,3,3.0
InSn2Hg,0.0,-0.0432714,,3,3.0
CuAs2Sb,0.0,-0.0231517,,3,3.0
CrSe4Rb3,0.0,-0.021109,,3,3.0
Al4RhNp,0.0,-0.0290936999999999,,3,3.0
O6V2NiCu3,0.0,-0.0128012,,3,3.0
Ag2InTm2,0.0,-0.0404307,,3,3.0
F6NaTiCs2,0.0,-0.0149902,,3,3.0
Mo2Re,0.0,-0.0469439,,3,3.0
Ti3Cd,0.0,-0.019686,,3,3.0
Li3O8Cu4Sb,0.0,-0.0110514,,3,3.0
O6MgSi2Cu,1.0068,-0.0103304,,3,3.0
Al2TbHo,0.0,-0.0282314,,3,3.0
N2O,6.6135,-0.0081651,,3,3.0
BrSnI,2.5434,-0.0312972,,3,3.0
F6HoPa,0.0,-0.0250475,,3,3.0
ScRhIn2,0.0,-0.0293525,,3,3.0
AlSiS3,2.7673,-0.010244,,3,3.0
FKI,1.4363,-0.0180759,,3,3.0
RuRh2Ir,0.0,-0.0433933,,3,3.0
GeTeSm,0.0,-0.0345884,,3,3.0
CoGe2Pu,0.0,-0.0416969,,3,3.0
AlMn2Co,0.0,-0.0158461,,3,3.0
Cd2SmEr,0.0,-0.0393243999999999,,3,3.0
F6CaGd,0.0,-0.0146938,,3,3.0
LiP2Os2,0.0,-0.0338563,,3,3.0
BFe,0.0,-0.0131027,,3,3.0
F6CaRu,0.0,-0.0109777,,3,3.0
O6AgBa2Ho,0.9197,-0.0219082,,3,3.0
N2NiCe2,0.0,-0.0261658,,3,3.0
Fe3Re4,0.0,-0.0482019,,3,3.0
CaAgTe3Ho,0.8586,-0.0348695,,3,3.0
H8N2F6NaV,0.0,-0.0066327999999999,,3,3.0
O6CuICs,0.3259,-0.0147949999999999,,3,3.0
S4CrNi3,0.0,-0.0137591,,3,3.0
Mg4ScLa,0.0,-0.012942,,3,3.0
Rb2Ag2Cs,0.0,-0.028305,,3,3.0
NOSbTh2,0.6684,-0.0513097,,3,3.0
NiZr2Pt,0.0,-0.0378956,,3,3.0
GaCe3,0.0,-0.0378354,,3,3.0
AlCoHfIr,0.0,-0.0407316,,3,3.0
BeGeHf,0.0,-0.0292889,,3,3.0
AgSnAc2,0.0,-0.0626011,,3,3.0
Cl3Nd2,0.5967,-0.0243251,,3,3.0
Br6Rb2Tb,0.0,-0.0245063999999999,,3,3.0
AlCu4Ho,0.0,-0.0199361,,3,3.0
O4SrNb,0.965,-0.0160824,,3,3.0
Fe2ZnHf3,0.0,-0.0399281,,3,3.0
F8InPr2,0.0,-0.0172357,,3,3.0
ZnTbIr,0.0,-0.0445959,,3,3.0
RhSn5Eu,0.0,-0.0385855,,3,3.0
NClNb,0.0,-0.0180219,,3,3.0
Co2GaGe,0.0,-0.017637,,3,3.0
Si2Ti2Mn,0.0,-0.0147806,,3,3.0
YAu4Hg,0.0,-0.0626167,,3,3.0
CdAuTl,0.0,-0.0574262,,3,3.0
Se3Ag,0.0,-0.022857,,3,3.0
S4Sc2Cd,1.2869,-0.0157191,,3,3.0
NNi3Cd,0.0,-0.0177344,,3,3.0
Ag5Ho,0.0,-0.0344673,,3,3.0
CPHo3,0.0,-0.0344198999999999,,3,3.0
O2F2Mn,1.1383,-0.009226,,3,3.0
AsBrLa2,0.0,-0.0331915,,3,3.0
ScCdPb2,0.0,-0.0493423,,3,3.0
NiY2Tl,0.0,-0.0365415,,3,3.0
F6GeTe2Hg3,2.4788,-0.0282406,,3,3.0
O6PdCdSm2,2.1954,-0.0212466,,3,3.0
Al2RhEr,0.0,-0.0258769999999999,,3,3.0
Ti2RhRe,0.0,-0.0350595,,3,3.0
SePrBi,0.0,-0.0488228,,3,3.0
Ni2Y3Au,0.0,-0.031449,,3,3.0
Cl6KCs2Gd,4.7006,-0.0214433,,3,3.0
Te3Ta,0.0,-0.0447992,,3,3.0
LiP2CaPd2,0.0,-0.0172926,,3,3.0
LiTmAu2,0.0,-0.0490292,,3,3.0
Ge6HoIr4,0.0,-0.0413372,,3,3.0
CoGe2Pa,0.0,-0.0392779,,3,3.0
NaS2Ni2,0.0,-0.0118074999999999,,3,3.0
Na3Sb2Gd,0.1382,-0.0249859,,3,3.0
Zn2TmPt3,0.0,-0.0491085,,3,3.0
Si3PdPu,0.0,-0.0350317,,3,3.0
P2Ca2Sr,0.0276,-0.0135318,,3,3.0
Ga2SrAc,0.0,-0.0368258999999999,,3,3.0
ZrTe,0.0,-0.0349754,,3,3.0
Cu2Se2Tl,0.0,-0.0288566,,3,3.0
Ni4RuW,0.0,-0.0282024,,3,3.0
Fe2ErU,0.0,-0.0476439,,3,3.0
Br6Rb2Th,4.5441,-0.0301970999999999,,3,3.0
Si2Fe3Pa,0.0,-0.0293781,,3,3.0
CdTm2,0.0,-0.0450028,,3,3.0
As2Nd,0.0856,-0.0291226999999999,,3,3.0
FeGe3Ce,0.0,-0.0245062,,3,3.0
TiCr2Re,0.0,-0.0311972999999999,,3,3.0
Ni2In3Tb3,0.0,-0.0346649,,3,3.0
O5S2La2Hf2,2.6668,-0.0273075,,3,3.0
Mg2Rh,0.0,-0.0150867,,3,3.0
O3NiBi,0.0,-0.0238315,,3,3.0
S3CuInHf,0.6584,-0.0244113,,3,3.0
CdTe,1.0297,-0.034321,,3,3.0
Sc6Se2Rh,0.0,-0.018721,,3,3.0
Co2RhPt,0.0,-0.0347398,,3,3.0
AlSiCu5,0.0,-0.013481,,3,3.0
Al6PdTh,0.0,-0.0223902,,3,3.0
PY2Cd,0.0,-0.0251769999999999,,3,3.0
SnCe,0.0,-0.0409755,,3,3.0
BBr3,4.1005,-0.0169915,,3,3.0
Te2Ho6Re,0.0,-0.0495469999999999,,3,3.0
Al5FeCe,0.0,-0.0148103,,3,3.0
Li5Cl2AsSe4,1.169,-0.0119283,,3,3.0
In4Ba3Pt4,0.0,-0.0492005,,3,3.0
RhSnPr,0.0,-0.0386257999999999,,3,3.0
SmHf5,0.0,-0.0595432,,3,3.0
BCNiLa,0.0,-0.0196002,,3,3.0
Pd3SnEu2,0.0,-0.0410948,,3,3.0
Al4CoTb,0.0,-0.0163829,,3,3.0
Si2Sc2Ga3,0.0,-0.0144433,,3,3.0
SiNiCu2,0.0,-0.0143499,,3,3.0
OInHo3,0.0,-0.0389349,,3,3.0
Al3TbPt2,0.0,-0.0362857,,3,3.0
N2Mg2Zr,0.0,-0.0130778,,3,3.0
Sc5Fe,0.0,-0.0148819,,3,3.0
MgSb2Tl2,0.0,-0.0449047,,3,3.0
Al2CrBr8,1.4426,-0.0183936,,3,3.0
B2O6AlTl,2.8115,-0.0156009,,3,3.0
K2Br6AgSb,0.9303,-0.0212862,,3,3.0
LiAu2Bi2,0.0,-0.0597599,,3,3.0
S3K2Nb,0.0,-0.0144309,,3,3.0
S2RhHg,0.0,-0.0306453,,3,3.0
Zn4Ge4Nd3,0.0,-0.0244217,,3,3.0
Zn3Tb,0.0,-0.022264,,3,3.0
LiO12Nb4La,1.7704,-0.0168965,,3,3.0
CuZr6Bi2,0.0,-0.0400323,,3,3.0
H8N2O2Cl2Pt,2.9156,-0.0103475,,3,3.0
RhAgDy2,0.0,-0.0408576,,3,3.0
ScLa2Pb2,0.0,-0.0511902,,3,3.0
LiKAg4,0.0,-0.0226999999999999,,3,3.0
MgTbTl2,0.0,-0.0495001,,3,3.0
P3CuSn2,0.0116,-0.0197625,,3,3.0
MgCa2Sc,0.0,-0.0095763999999999,,3,3.0
ZnRhTa,0.0,-0.0383937,,3,3.0
CaNi2In5,0.0,-0.0263792,,3,3.0
BCCoY,0.0,-0.0161189,,3,3.0
OCl3Nb,2.7794,-0.0144208,,3,3.0
K2MnGeSe4,1.4482,-0.0177824,,3,3.0
LiB2O6Co2,0.0,-0.0100593,,3,3.0
SrPtTl4,0.0,-0.0640101,,3,3.0
BaEu3,0.0,-0.0500952,,3,3.0
LiAs2Pd2Gd,0.0,-0.0288321,,3,3.0
Ca2Cu,0.0,-0.0115463,,3,3.0
Se3Cs2Au2,1.553,-0.039975,,3,3.0
ZnRu3,0.0,-0.029515,,3,3.0
Sc3NiAu2,0.0,-0.0337398,,3,3.0
AlW2Re,0.0,-0.0547041,,3,3.0
P2ScLa,0.0,-0.0212033999999999,,3,3.0
Ga6HoIr,0.0,-0.0277814,,3,3.0
Ni3Ga2Er,0.0,-0.0225272,,3,3.0
NiZn2Ho,0.0,-0.0235159,,3,3.0
GaNdPt,0.0,-0.0446162,,3,3.0
B2Fe7Y3,0.0,-0.0189637,,3,3.0
Si7Co2Y3,0.0,-0.0163291,,3,3.0
Al2S5Zn2,3.7046,-0.0111966,,3,3.0
ZnSm2Ir2,0.0,-0.049771,,3,3.0
BO3Pb,0.0,-0.0221287999999999,,3,3.0
CoRh7,0.0,-0.0316938,,3,3.0
Se2W,1.1843,-0.0371433,,3,3.0
Ru2Sm4Tl5,0.0,-0.0557862,,3,3.0
Zr2Pd2Au,0.0,-0.0400026999999999,,3,3.0
O6ScSr2Mo,0.0,-0.0162106999999999,,3,3.0
H6Zn2Ru,2.2955,-0.0091309,,3,3.0
CTi2Zn,0.0,-0.0145332,,3,3.0
OAsRhLa,0.0,-0.0280532,,3,3.0
LiZn4Pt,0.0,-0.0214667999999999,,3,3.0
CrMn2Pd,0.0,-0.0223322,,3,3.0
CN3Zr4,0.0,-0.0218582,,3,3.0
Ag2PrPb,0.0,-0.0458095,,3,3.0
NaCuGe,0.0,-0.0129087,,3,3.0
Ge3PtTh,0.0,-0.0453581,,3,3.0
Cu2In,0.0,-0.0212758,,3,3.0
KLa2Ir,0.0,-0.0419489,,3,3.0
CdSnIr,0.0,-0.0459296,,3,3.0
Ni2SbTa,0.0,-0.0342740999999999,,3,3.0
Al3PdSn2Ho3,0.0,-0.0313457,,3,3.0
BDy2Pt6,0.0,-0.0593641,,3,3.0
AlSiNb6,0.0,-0.0273659999999999,,3,3.0
H2Al2Sr,0.0,-0.0093096,,3,3.0
AlCaSr2,0.0,-0.0155453,,3,3.0
S3AsY4,0.0,-0.0222244,,3,3.0
LiGeIn,0.0,-0.018579,,3,3.0
ZnNbRu2,0.0,-0.0293983,,3,3.0
NiSr3,0.0,-0.0206716,,3,3.0
Li2HoTl,0.0,-0.0318976,,3,3.0
Rh4InDy,0.0,-0.0365735,,3,3.0
Ge3La,0.0,-0.0256254,,3,3.0
Co3Re,0.0,-0.0305953,,3,3.0
O3K2Pt,1.381,-0.0187582,,3,3.0
MgZr3Os2,0.0,-0.0406106,,3,3.0
Rh3Ir,0.0,-0.0431298,,3,3.0
TiAs2Zr6,0.0,-0.0273623,,3,3.0
FeRh2Os,0.0,-0.039428,,3,3.0
Li5Mg,0.0,-0.0028449,,3,3.0
Cu2InAu,0.0,-0.0333069,,3,3.0
KAg2In2,0.0,-0.027657,,3,3.0
Cr2Ga4Lu,0.0,-0.0228235,,3,3.0
AsSr2Ba,0.0,-0.0267979,,3,3.0
NiZr3,0.0,-0.0273322,,3,3.0
F5FeRb2,1.9386,-0.0124957,,3,3.0
O6Eu2HfTa,0.0,-0.0307231,,3,3.0
PYRu,0.0,-0.0255563,,3,3.0
Co3Nb2Ir,0.0,-0.0317475,,3,3.0
Si4Zn4Sm3,0.0,-0.0212939,,3,3.0
Si2Co3Ho,0.0,-0.0207948999999999,,3,3.0
ZnSrLa2,0.0,-0.030625,,3,3.0
BMn4Sm,0.0,-0.0210676999999999,,3,3.0
O3CuIn,0.0,-0.014609,,3,3.0
CdPt3,0.0,-0.0604482,,3,3.0
MnCo2W,0.0,-0.0305856,,3,3.0
Ni7Zn,0.0,-0.0158847,,3,3.0
SbPb2,0.0,-0.0629012,,3,3.0
MnHfPt2,0.0,-0.0564321,,3,3.0
KPtTl2,0.0,-0.0560615999999999,,3,3.0
O4Na2Np,1.0321,-0.0226324,,3,3.0
F2Cl2Zn,1.9061,-0.0085632,,3,3.0
KTe2Ir,1.1107,-0.0391559,,3,3.0
Zn2Sr,0.0,-0.0167221,,3,3.0
Si2Cu2Eu,0.0,-0.0213029,,3,3.0
Si4Ca3Fe4,0.0,-0.0131785,,3,3.0
CuDy6Bi2,0.0,-0.0515408,,3,3.0
ZnZr2Ir2,0.0,-0.0443394,,3,3.0
NiBaIr2,0.0,-0.0496993,,3,3.0
Er2Ir,0.0,-0.0582242,,3,3.0
O4CaCoNd,0.8561,-0.0164364,,3,3.0
Al5RhNd,0.0,-0.0172626,,3,3.0
Na2RbAg2,0.0,-0.0183426,,3,3.0
Sn5BaIr,0.0,-0.0417836,,3,3.0
Si4As4Os,1.5794,-0.0216108,,3,3.0
Cl6KScRb2,4.6159,-0.0134782,,3,3.0
AgCdEr2,0.0,-0.0410147,,3,3.0
S2Zn,1.3832,-0.0113039,,3,3.0
PdDy6Bi2,0.0,-0.0536696,,3,3.0
TiSe3,0.0,-0.0199826,,3,3.0
AlBr3Sm3,0.0,-0.0298586,,3,3.0
Sn2Eu,0.0,-0.0424388,,3,3.0
OP2Zr6,0.0,-0.024913,,3,3.0
Mg3Co2Sm4,0.0,-0.0253548,,3,3.0
RbSr3Hg,0.0,-0.0313782,,3,3.0
Cu3Rh5,0.0,-0.0267006,,3,3.0
CuSrSb,0.0,-0.0256994,,3,3.0
ZnAg2Er,0.0,-0.0319015,,3,3.0
NiRuTa2,0.0,-0.0463257,,3,3.0
H8N2F6Sn,6.1052,-0.0075567,,3,3.0
CaLa2Ir2,0.0,-0.0482702,,3,3.0