formula,bg,formation_energy,mp-id,fidelity,bg_category
O6FeBa2Re,0.0,-0.0229318,,3,3.0
Li6O4Co,1.761,-0.0070229,,3,3.0
Zr2Os,0.0,-0.044948,,3,3.0
O6SrBa2W,3.4365,-0.0238033,,3,3.0
F4PRb,4.8607,-0.0101788,,3,3.0
Ru2SnLu,0.0,-0.0407336,,3,3.0
Ge2La2Tl,0.0,-0.0401907,,3,3.0
MnPd2Sb,0.0,-0.0307904,,3,3.0
InSm2Pt2,0.0,-0.0537609,,3,3.0
CO7NaPV,0.5099,-0.0099939,,3,3.0
Zn2PrNd,0.0,-0.0288508,,3,3.0
TiGeTh,0.0,-0.0443042,,3,3.0
O6TiBa2Pt,1.3777,-0.0228284999999999,,3,3.0
Ag2TlTh,0.0,-0.0578486,,3,3.0
Rh2Hf2Pb,0.0,-0.0545029,,3,3.0
SiIr3,0.0,-0.0562821,,3,3.0
Co7Mo6,0.0,-0.0253112,,3,3.0
F6RbPd,0.0,-0.0110845,,3,3.0
ClGaNd,0.0,-0.0242451,,3,3.0
Al5Cu2La,0.0,-0.0144903999999999,,3,3.0
H8Zn2RuEu,0.0,-0.0121656,,3,3.0
O6MgNiHo2,1.9638,-0.0185344,,3,3.0
CoGa8Y2,0.0,-0.0190669,,3,3.0
Cl3RbGd,0.0,-0.0228245,,3,3.0
O6Cr2Cd,0.152,-0.0134334,,3,3.0
SnHoPt2,0.0,-0.0574765999999999,,3,3.0
Cu7In,0.0,-0.0174185,,3,3.0
SCd5Te4,0.6095,-0.031582,,3,3.0
Ga5Rh2Pu,0.0,-0.0329146,,3,3.0
SnTe2Ta,0.0,-0.0444137,,3,3.0
SiRhTa,0.0,-0.0376923,,3,3.0
F2Tl,1.66,-0.0283872,,3,3.0
F2Cl2Pb,0.8767,-0.0209735,,3,3.0
Be2Nb2Os,0.0,-0.0298075,,3,3.0
PtTlPb,0.0,-0.0729321,,3,3.0
BS3Tb,2.5722,-0.0180386,,3,3.0
Cu2GeBa,0.0,-0.0225616999999999,,3,3.0
Ti2Ga2Zr,0.0,-0.0196201,,3,3.0
AlFe4Mo,0.0,-0.0192563,,3,3.0
RbSn2Pt2,0.0,-0.0470431,,3,3.0
CrAsRu,0.0,-0.0248072,,3,3.0
LiAlSn,0.2045,-0.0155861,,3,3.0
O4NbGd,3.7471,-0.0227989,,3,3.0
CGe2Er2Os2,0.0,-0.0425076,,3,3.0
S2SmTm,0.0,-0.0311153,,3,3.0
O4SHg,1.8205,-0.0182943,,3,3.0
Ru2Sb2Ba,0.0,-0.0372766999999999,,3,3.0
AgSnPa,0.0,-0.0557434999999999,,3,3.0
TiAsPd,0.0,-0.0238301,,3,3.0
O2SeU2,0.0,-0.0503361,,3,3.0
Sn2Er6Ir,0.0,-0.0502149,,3,3.0
DyAc3,0.0,-0.0797592999999999,,3,3.0
B2CoHf,0.0,-0.0244057,,3,3.0
AgBa,0.0,-0.0357356,,3,3.0
Ga2Ag2Bi,0.0,-0.0346896,,3,3.0
K2RbAu3,0.0,-0.0411367,,3,3.0
ZnRh2W,0.0,-0.0380343,,3,3.0
GaDyAu,0.0,-0.0454821,,3,3.0
MgPrIr,0.0,-0.0405026,,3,3.0
Pd3Te4,0.0,-0.0357416,,3,3.0
CO7PKHf,5.4877,-0.0148811999999999,,3,3.0
MgTcRh2,0.0,-0.0272099,,3,3.0
MnFe2Tb2,0.0,-0.0295009,,3,3.0
MgAg7,0.0,-0.028132,,3,3.0
Li2O3KFe,1.1378,-0.0089555,,3,3.0
Al5Os2Th,0.0,-0.0353727,,3,3.0
Al5GaSr5,0.0,-0.0154197,,3,3.0
B4V3Re,0.0,-0.0199122999999999,,3,3.0
CMn2Cd,0.0,-0.0193718,,3,3.0
Si3Zn6U2,0.0,-0.0289674,,3,3.0
RuIn5La,0.0,-0.0354039,,3,3.0
Ca6IrBi2,0.0,-0.0324696,,3,3.0
SrCd2Au,0.0,-0.0386532,,3,3.0
Mg2CdAu2,0.0,-0.0363408,,3,3.0
N2NdGd,0.0,-0.0319505,,3,3.0
Al2MnRu,0.0,-0.0178359,,3,3.0
SrTl2Ac,0.0,-0.0649723,,3,3.0
CuGaTm2,0.0,-0.0343131,,3,3.0
Li2O6Co3,0.0,-0.0102315,,3,3.0
Se7SnBi4,0.3428,-0.0412286,,3,3.0
Ca2BrBi,0.7812,-0.0307169,,3,3.0
CaAgTl2,0.0,-0.046735,,3,3.0
LiMg2Ni,0.0,-0.0072358,,3,3.0
O2AgNd,3.1349,-0.0242076,,3,3.0
Zn5Nd,0.0,-0.0189098,,3,3.0
Li2F6Mo,0.4464,-0.0096555,,3,3.0
SrRhIn5,0.0,-0.0322952,,3,3.0
OK2As2La2,0.0,-0.0230105,,3,3.0
BeTcIr,0.0,-0.0373012999999999,,3,3.0
Cd5Pt3,0.0,-0.0456045999999999,,3,3.0
BeSiOs,0.6192,-0.0293554,,3,3.0
Sc6FeSn2,0.0,-0.0199393,,3,3.0
Si3Sr2Ag,0.0,-0.0181706,,3,3.0
Ca2SbTl,0.0,-0.033018,,3,3.0
CuOsIr2,0.0,-0.0572788,,3,3.0
KAs2Ru2,0.0,-0.0241850999999999,,3,3.0
Cl2KI,2.4459,-0.0164152999999999,,3,3.0
Co4NiTa,0.0,-0.0253396,,3,3.0
B2TbOs2,0.0,-0.0416263,,3,3.0
Fe2BrTb2,0.0,-0.0304891,,3,3.0
HCr3Pt,0.0,-0.0258623,,3,3.0
As2SbAu,0.0,-0.0367749,,3,3.0
Rh3SmPt2,0.0,-0.0482779,,3,3.0
GeAsZr,0.0,-0.0241475,,3,3.0
Mn2INd2,0.0,-0.0324793,,3,3.0
Li2O7Si2Fe2,1.8486,-0.0103529,,3,3.0
Li2PrPb,0.0,-0.0314754,,3,3.0
Tm2Au2Tl,0.0,-0.0638215,,3,3.0
SiCaPd2,0.0,-0.0221892,,3,3.0
MnCuTe3Ba,0.0,-0.0316238,,3,3.0
O8Mo2PrTl,4.1375,-0.0219837999999999,,3,3.0
O3GaTb,3.168,-0.0193295,,3,3.0
LiBr6Rb2Dy,4.634,-0.0228268999999999,,3,3.0
H6AlK3,3.6921,-0.0056584,,3,3.0
Na2As2Th,1.5744,-0.0299023,,3,3.0
Mg2ScSb2,0.0,-0.020268,,3,3.0
F5SnEr,3.0774,-0.0182216999999999,,3,3.0
ScCd2Sm,0.0,-0.0302915,,3,3.0
ORbZrI2,0.0,-0.0279872,,3,3.0
MoIr4,0.0,-0.064083,,3,3.0
O3In2,1.6718,-0.0188745,,3,3.0
Cu4GdTl,0.0,-0.0321742,,3,3.0
Al3Sn2Er3Au,0.0,-0.0357798,,3,3.0
AlFe2Gd2,0.0,-0.0324386999999999,,3,3.0
Ca2AgHg2,0.0,-0.0379027,,3,3.0
SiPr2Ir2,0.0,-0.0487245,,3,3.0
Li4OF7V2,0.6966,-0.0084301999999999,,3,3.0
LiAu7,0.0,-0.061005,,3,3.0
F6Na2Th,7.5445,-0.0177274,,3,3.0
Zn2SmAc,0.0,-0.0407888,,3,3.0
C2Rb2Pd,1.7585,-0.0189329,,3,3.0
HZr3Sb,0.0,-0.0271335,,3,3.0
CaAgAu4,0.0,-0.0534338,,3,3.0
B4Co5Er2,0.0,-0.0202326,,3,3.0
AlCo,0.0,-0.0131696,,3,3.0
MoIn4,0.0,-0.0337352,,3,3.0
RbIn2Au,0.0,-0.0395228,,3,3.0
Si2NiHf,0.0,-0.0253878,,3,3.0
MgGe2Pr2,0.0,-0.0267957,,3,3.0
Al3Ru2Ag,0.0,-0.021429,,3,3.0
Zn2InCe,0.0,-0.0266629,,3,3.0
NiSb2Tl,0.0,-0.0408691,,3,3.0
MgCdPt2,0.0,-0.0446343,,3,3.0
TiFeGaPt,0.0,-0.0309224,,3,3.0
AsRh2,0.0,-0.0298699,,3,3.0
Cl8Ag,0.0,-0.0104311,,3,3.0
CuYSb2,0.0,-0.0300931,,3,3.0
Fe2Ge2Lu,0.0,-0.0263712,,3,3.0
Ga3Rh2Th,0.0,-0.0362274,,3,3.0
N3MoBa,0.6735,-0.0211625,,3,3.0
Pd2Sn2Th,0.0,-0.0474075,,3,3.0
AlAsSr,0.0,-0.0176324,,3,3.0
Ca2Zn2La,0.0,-0.0181173,,3,3.0
SiGeNb,0.0,-0.0211778,,3,3.0
Li2Cu3Ga,0.0,-0.0113225,,3,3.0
H6NaK2Cr,3.2788,-0.0063413,,3,3.0
In2Pt2Au,0.0,-0.0556655999999999,,3,3.0
NaScBr6Rb2,3.5898,-0.0195985,,3,3.0
Ni2RuHf3,0.0,-0.0431426,,3,3.0
Sc3AgPt2,0.0,-0.0368674,,3,3.0
Al2Ti6Rh,0.0,-0.0165766,,3,3.0
C5Co3La4,0.0,-0.0231058,,3,3.0
MgTb3Os2,0.0,-0.0484442,,3,3.0
Si2Ti2Ta,0.0,-0.0244877,,3,3.0
Si6Co4Y,0.0,-0.0147795,,3,3.0
Ni4SrLa,0.0,-0.0217652,,3,3.0
LiO8Si3Bi,3.3733,-0.014913,,3,3.0
PSb4Te7,0.0,-0.0350105,,3,3.0
Fe4TcRh,0.0,-0.0235126999999999,,3,3.0
CaGe3Ta,0.0,-0.0270881,,3,3.0
F6MgNp,2.0629,-0.0203876999999999,,3,3.0
SeBrAu,1.4016,-0.0364485,,3,3.0
PBr2Ir,1.9685,-0.0306494,,3,3.0
Al3Y2Au,0.0,-0.0254556,,3,3.0
ZnRhHf,0.0,-0.0373896,,3,3.0
CrAu8,0.0,-0.0635858,,3,3.0
K2FeBr6,0.0,-0.0179425,,3,3.0
V5Se4,0.0,-0.0193395,,3,3.0
PdCe2Au,0.0,-0.0484597,,3,3.0
F6CaRb3,0.7458,-0.0122531,,3,3.0
PdLu2Au,0.0,-0.0542556,,3,3.0
Ni2Er3Hg,0.0,-0.0424514,,3,3.0
O8DyW2Tl,4.7406,-0.0282638,,3,3.0
Ru2SnSm2,0.0,-0.0394116,,3,3.0
As2Sn2Eu,0.0,-0.0337691,,3,3.0
CoCuLa2,0.0,-0.0297162,,3,3.0
NaAg2Sn2,0.0,-0.0277991,,3,3.0
LaHgTl2,0.0,-0.0644899,,3,3.0
LiF2Tl,4.0151,-0.0228609,,3,3.0
Al2Zn2Ba,0.0,-0.0166985999999999,,3,3.0
O7SrCs2Np2,0.0,-0.0324788,,3,3.0
ZrSbEr,0.0,-0.0402915,,3,3.0
AlCuZrIr,0.0,-0.032004,,3,3.0
Al3Zr2Pt,0.0,-0.0267886,,3,3.0
ZrRh2Tm,0.0,-0.0385109,,3,3.0
Sn2LuTl,0.0,-0.0502143,,3,3.0
Co4ZrIr,0.0,-0.028771,,3,3.0
AlCu2Zn,0.0,-0.0131517,,3,3.0
F6Na2Lu,0.0,-0.012704,,3,3.0
MgK2Pb,0.0,-0.0246129,,3,3.0
S3KMnSm,0.9383,-0.0184252,,3,3.0
Na2KSb,1.403,-0.0140324,,3,3.0
Ga4SrPd,0.0,-0.0206034,,3,3.0
FCl2Rb,2.8536,-0.0115299,,3,3.0
Al4RhLa,0.0,-0.0187755,,3,3.0
PdSnLu,0.0,-0.0423663,,3,3.0
Mg3Sr2In5,0.0,-0.0230914,,3,3.0
PmDyPb2,0.0,-0.0615326,,3,3.0
Fe4GaZr,0.0,-0.0201304,,3,3.0
Cu4AgHo,0.0,-0.0237874,,3,3.0
SbHgTl2,0.0,-0.062536,,3,3.0
SiHfTa,0.0,-0.0470868,,3,3.0
AlFe2Os,0.0,-0.0292228,,3,3.0
S2RbTe2,0.0,-0.0232091,,3,3.0
K2Br6HgBi,0.0,-0.0290577,,3,3.0
F7CsTl2,2.5261,-0.022889,,3,3.0
NaP2Cu2Ba,0.0,-0.0163947,,3,3.0
PSZnGa,2.2476,-0.0131559,,3,3.0
SGaGe,0.39,-0.0154564,,3,3.0
Cu2As2RbTh,0.0,-0.0319411,,3,3.0
Mg2ScLu,0.0,-0.0199142,,3,3.0
ZnRhTm,0.0,-0.0338904,,3,3.0
F6CrNi,0.0,-0.0095354,,3,3.0
Ga3Sr3Ir2,0.0,-0.0327528,,3,3.0
SiBr2Sr3,0.1334,-0.0207081,,3,3.0
Na3Rh4Sn4,0.0,-0.0269247,,3,3.0
Se3SrAgSm,1.6089,-0.0280978,,3,3.0
N2Nd7Tl3,0.0,-0.0459952,,3,3.0
BGd3Pb,0.0,-0.0523769,,3,3.0
H2O6P2Ti,3.4445,-0.0095799,,3,3.0
NiCdSb2,0.0,-0.0303517,,3,3.0
FeZrTa2,0.0,-0.0455007,,3,3.0
Cd2TmIr,0.0,-0.0464022999999999,,3,3.0
Al2CaPd3,0.0,-0.0215629,,3,3.0
C2InEr3,0.0,-0.0345881,,3,3.0
Rh2PrTm,0.0,-0.0415085,,3,3.0
GeBa2,0.0192,-0.0332898,,3,3.0
AlSrI,0.0,-0.0232745,,3,3.0
Zn2ZrTb,0.0,-0.0264306,,3,3.0
Se2IIr,0.0696,-0.0372193,,3,3.0
NiBrLu,0.0,-0.0315195,,3,3.0
ZnRb2Sb2Ba,0.0,-0.0288292,,3,3.0
NiPm2Pt,0.0,-0.044355,,3,3.0
O3ScRb2,0.0,-0.0146130999999999,,3,3.0
LiCu4,0.0,-0.0126525,,3,3.0
H2O2PRb,5.6438,-0.0099013,,3,3.0
RuTb2Ir,0.0,-0.050574,,3,3.0
K2As2SrCd,0.6634,-0.0190633,,3,3.0
SrRh2Cd2,0.0,-0.0303389999999999,,3,3.0
SiScAu,0.0,-0.0320772,,3,3.0
Al2FeDy,0.0,-0.0207286,,3,3.0
LiIn2Au2,0.0,-0.0418476,,3,3.0
Mg2AgIr,0.0,-0.0284712999999999,,3,3.0
InIr2Th,0.0,-0.0685149,,3,3.0
As3Sb,0.0,-0.0243664,,3,3.0
HPd3Bi,0.0,-0.0362079,,3,3.0
NaMgI3,3.6112,-0.025092,,3,3.0
NONa,3.6817,-0.0074193,,3,3.0
AlSc,0.0,-0.0114606999999999,,3,3.0
AlBaAu,0.0,-0.0395963,,3,3.0
O6CaSr2Ta,0.0,-0.0188595,,3,3.0
O7Fe4BaTm,0.0,-0.0181653,,3,3.0
Li2O8Si3Mn,1.8919,-0.0100533,,3,3.0
Sn2LuIr,0.0,-0.0502507,,3,3.0
Y6RuSb2,0.0,-0.0314819,,3,3.0
Rh2InSm,0.0,-0.0370775,,3,3.0
Al9KPd2,0.0,-0.0123581,,3,3.0
CuBaPt2,0.0,-0.0493601,,3,3.0
B12Pr,0.0,-0.0104271,,3,3.0
HNi3Sb,0.0,-0.0179317,,3,3.0
Al3Ni2Pd,0.0,-0.0155741,,3,3.0
BrYTe,1.498,-0.0300033,,3,3.0
ScY2Cd,0.0,-0.0253054,,3,3.0
Sc3Ru2Pt,0.0,-0.031417,,3,3.0
MgP2,1.5872,-0.0090621,,3,3.0
O6F2NaP2K3,5.2941,-0.009389,,3,3.0
OF3Fe2,0.0,-0.0110276,,3,3.0
KHg4Pb,0.0,-0.0595908999999999,,3,3.0
ScY2Hg,0.0,-0.0349138,,3,3.0
Cl6CuCs2Tm,2.9697,-0.021095,,3,3.0
KAs2Rh2,0.0,-0.0240174999999999,,3,3.0
C2O6ZnEu,0.2813,-0.0144363,,3,3.0
PdSn2Nd,0.0,-0.0378651,,3,3.0
Fe4ZrRu,0.0,-0.0231342,,3,3.0
F6DyIr,2.8039,-0.0203818,,3,3.0
H6Cs2Ir,0.0,-0.0188089,,3,3.0
SiS4MnCu2,0.9996,-0.0128653,,3,3.0
CoTmPb,0.0,-0.0485979,,3,3.0
SrCd2Pt2,0.0,-0.0453673,,3,3.0
Y2RhTl,0.0,-0.0412426,,3,3.0
AlSiK,0.0,-0.0088374,,3,3.0
HKBr2,5.2031,-0.0137448,,3,3.0
Ag2InTh2,0.0,-0.0578128,,3,3.0
S3K2Sn,1.3433,-0.0146267,,3,3.0
O6Ba2BiNp,0.0,-0.0328324,,3,3.0
Si2Ga3RuEr3,0.0,-0.0290992,,3,3.0
CoAsTm2,0.0,-0.0360893,,3,3.0
NiSe3InHf,0.0,-0.0295639,,3,3.0
As2RhNd,0.0,-0.03053,,3,3.0
NaK2Hg2,0.0,-0.0316083,,3,3.0
Mg2AlZn2,0.0,-0.0090432,,3,3.0
O4SK2,6.1888,-0.0094424,,3,3.0
RuRe2Os,0.0,-0.0623355,,3,3.0
AsIn2,0.0,-0.0290858,,3,3.0
Li2As2Pd,0.0,-0.0162323999999999,,3,3.0
BCo4Pr,0.0,-0.0200975,,3,3.0
Be2AlMn2,0.0,-0.0107812,,3,3.0
Al2ZnPt,0.0,-0.0255122999999999,,3,3.0
Sc4AsTe3,0.0,-0.0248979,,3,3.0
YRh2Sn,0.0,-0.0336773,,3,3.0
AsPd5Lu,0.0,-0.0350476,,3,3.0
CoIn4Tm,0.0,-0.0339848,,3,3.0
Si4CuHf4,0.0,-0.0347603,,3,3.0
SiCoNi,0.0,-0.0148453,,3,3.0
Li2Al2Ba,0.0,-0.0120533,,3,3.0
O5Fe2BaNd,0.0,-0.0192216999999999,,3,3.0
ScZn2Ba,0.0,-0.0204605,,3,3.0
SrCdPb,0.0,-0.0434721,,3,3.0
Cu2ZnTh,0.0,-0.0351644999999999,,3,3.0
GaPd3,0.0,-0.029155,,3,3.0
KRbHg2,0.0,-0.0416072,,3,3.0
Ru2In3Ho3,0.0,-0.0400815,,3,3.0
BeFeCu2,0.0,-0.0132988999999999,,3,3.0
Li3O6TiFe2,0.0,-0.0103576,,3,3.0
Ti2Ni2Hg,0.0,-0.0269152,,3,3.0
O3Na2Pu,0.0,-0.0253283999999999,,3,3.0
Co2Ge2Er,0.0,-0.0252378,,3,3.0
B2Al2Mn3,0.0,-0.0126091,,3,3.0
Li3F6Cu,2.0232,-0.006945,,3,3.0
O3Sr2Pd,0.7473,-0.0183229,,3,3.0
ScCu4Te4,0.0,-0.0252606,,3,3.0
LiBO2,8.0686,-0.0081797,,3,3.0
ScZn2Pt2,0.0,-0.0372081,,3,3.0
Cl6MoCs2,0.0,-0.0192641,,3,3.0
Br6W,0.897,-0.0270901,,3,3.0
NRbSr2,0.0,-0.0190828,,3,3.0
Ga2Pd3Lu,0.0,-0.0318455,,3,3.0
SrAgLa,0.0,-0.0324007,,3,3.0
CoBr6Cs2,0.0,-0.0243902,,3,3.0
Br8BaSm2,3.5208,-0.0279774,,3,3.0
CSi2Ca2Ir2,0.0,-0.0281034,,3,3.0
NiSb4Ho2,0.0,-0.0383988,,3,3.0
HBr2Rb,5.1445,-0.0168555,,3,3.0
AlNi2Y2,0.0,-0.0197351,,3,3.0
SrSnSb,0.0,-0.0324652,,3,3.0
P2Rh2Np,0.0,-0.039872,,3,3.0
F6AlK2Rb,6.9333,-0.0099752,,3,3.0
In5OsNp,0.0,-0.0493731,,3,3.0
H6RuCd2,3.1605,-0.0129341,,3,3.0
F6DyPu,0.0,-0.0263114,,3,3.0
MgSi2Sc2,0.0,-0.0113931,,3,3.0
PAsTb2,0.0,-0.0327033,,3,3.0
LiO4Fe3,0.0,-0.0118559,,3,3.0
Li2InAu,0.0,-0.0274381,,3,3.0
Zn3EuAu2,0.0,-0.0393011,,3,3.0
S3CrZnRb,1.1989,-0.0147213999999999,,3,3.0
LiZn2Hf,0.0,-0.0232109,,3,3.0
SRbAg,2.4043,-0.0213705,,3,3.0
P3La5,0.0,-0.0320776,,3,3.0
Mg4La,0.0,-0.0126674,,3,3.0
Na2CsBa,0.0,-0.0213682,,3,3.0
Ti2RhPd,0.0,-0.0253552,,3,3.0
InPmPt2,0.0,-0.0554434,,3,3.0
H4O5FPCa,5.9758,-0.0077986,,3,3.0
CrMn4Re,0.0,-0.0270002,,3,3.0
BeCa2Rh,0.0,-0.0147767,,3,3.0
O8Fe3YBa2,0.0,-0.0175280999999999,,3,3.0
Al3Si2Ca3Ir,0.0,-0.0165569,,3,3.0
MgSi3Co,0.0,-0.0106367999999999,,3,3.0
BeVFe2,0.0,-0.0147152,,3,3.0
RhSb2Ba,0.0,-0.0378410999999999,,3,3.0
H3ScRh,0.0,-0.012341,,3,3.0
Mg2Au2Hg,0.0,-0.0438609,,3,3.0
Si2Ca2Hg,0.0,-0.0219209,,3,3.0
LiCu4Sr,0.0,-0.0142469,,3,3.0
BNi2Ga2Tb,0.0,-0.0204234,,3,3.0
Al3Si2NiNb3,0.0,-0.018241,,3,3.0
YLaPb2,0.0,-0.0563966,,3,3.0
In2Nd,0.0,-0.0374406,,3,3.0
AlFe2Tm,0.0,-0.0242633,,3,3.0
O2Cl4Rb2Re,0.9557,-0.0190121,,3,3.0
H2Sc2Au,0.0,-0.021816,,3,3.0
AlTiNi6,0.0,-0.0155953999999999,,3,3.0
Mg2CdPt,0.0,-0.0282673,,3,3.0
Li3OF4Mn,1.2338,-0.0079468,,3,3.0
Na2AgBa2,0.0,-0.0238045,,3,3.0
Be4CrMn,0.0,-0.0092613,,3,3.0
MgCu4Ag,0.0,-0.0162659,,3,3.0
O5F8Sb6,3.861,-0.0168375,,3,3.0
B3MoEr,0.0,-0.0221790999999999,,3,3.0
Cd2BiAc,0.0,-0.0577796999999999,,3,3.0
RuRhTb2,0.0,-0.0412215,,3,3.0
N2Ga3Dy7,0.0,-0.034518,,3,3.0
O6Sr2SmIr,0.0,-0.022257,,3,3.0
CaAg2Pr,0.0,-0.0292701,,3,3.0
Ru2AgEr3,0.0,-0.0425583,,3,3.0
MgZn2Hg,0.0,-0.0251456,,3,3.0
H6N2O2P,5.3923,-0.006573,,3,3.0
Zr5Pu,0.0,-0.0438499,,3,3.0
P2KRh2,0.0,-0.0201956999999999,,3,3.0
AlPu,0.0,-0.0590456,,3,3.0
Fe4MoTa,0.0,-0.0289794,,3,3.0
NiSe3NbTl,0.0,-0.0309277,,3,3.0
AlCdTb2,0.0,-0.0333357,,3,3.0
CGe2Y2W2,0.0,-0.035327,,3,3.0
O3BaLa,0.0,-0.023152,,3,3.0
InCeIr,0.0,-0.050503,,3,3.0
CoIPu,0.0,-0.0550441999999999,,3,3.0
Ni2Y2Pt,0.0,-0.032369,,3,3.0
F8Cu2Sr,1.3852,-0.009631,,3,3.0
F6K3Bi,5.0272,-0.0151402,,3,3.0
CuGaY2,0.0,-0.0223176,,3,3.0
Sr6PtBi2,0.0,-0.0408841,,3,3.0
CSi2Ca2Re2,0.0,-0.0277881,,3,3.0
Zr2InTa,0.0,-0.0405418,,3,3.0
Si4Mn3FeLa2,0.0,-0.0205096,,3,3.0
Al2SrTe4,1.6421,-0.0276128,,3,3.0
Co2GaDy2,0.0,-0.0296829,,3,3.0
Mn2CeIr3,0.0,-0.0497442,,3,3.0
O8AlSe2Cs,3.819,-0.0128361999999999,,3,3.0
O8ScAs2Ba,0.0,-0.0141672999999999,,3,3.0
O4VCrCu2,0.4275,-0.0132522,,3,3.0
ClKICs,4.7621,-0.0245862,,3,3.0
CClTh,0.0,-0.0393466,,3,3.0
ScBr4Cs2,0.0,-0.0258248,,3,3.0
Ag8Hg,0.0,-0.0354480999999999,,3,3.0
O3Ca2Pt,0.8125,-0.0203481999999999,,3,3.0
Zr2Re,0.0,-0.0444325,,3,3.0
B2O6MnSr,2.5577,-0.011973,,3,3.0
Be2PCl,2.6836,-0.0074357,,3,3.0
CaTcTe2,0.0,-0.0302359,,3,3.0
Sr2Pb3,0.0,-0.0550437,,3,3.0
O4Cu2Pr,0.0,-0.0159702,,3,3.0
C2GeZr3,0.0,-0.022868,,3,3.0
RhCd2Ba,0.0,-0.0338544,,3,3.0
O6Eu2HoTa,0.1289,-0.0294753,,3,3.0
Li4O4Fe,1.283,-0.0077656999999999,,3,3.0
InTe,0.512,-0.0356991,,3,3.0
SrRhSb2,0.0,-0.0334733,,3,3.0
H4O2Cl2Cu,1.5933,-0.007314,,3,3.0
SiFeRh2,0.0,-0.0245612,,3,3.0
CaGa4Pd,0.0,-0.0185296,,3,3.0
H4CN3Cs,4.7821,-0.0103579,,3,3.0
MgAlPr2,0.0,-0.0251155,,3,3.0
B4O7Ca,7.1278,-0.0097576,,3,3.0
Cd4Tl3,0.0,-0.0483378999999999,,3,3.0
N2MgZr,0.9763,-0.0152201,,3,3.0
Ta8Ir,0.0,-0.0673271,,3,3.0
Pd2LuPb,0.0,-0.049934,,3,3.0
AlSiNb4,0.0,-0.0254575,,3,3.0
CdNd2Au2,0.0,-0.0520937,,3,3.0
O7Ge2Tl2,0.8463,-0.0218735,,3,3.0
Si2MnLa,0.0,-0.0210039,,3,3.0
P2KCu2Lu,0.0,-0.0199746,,3,3.0
Se3SrAgTm,1.6554,-0.0292942,,3,3.0
Si4Ca3Pd4,0.0,-0.019034,,3,3.0
K2CrI6,0.0,-0.0293116,,3,3.0
K2I6Ir,0.0,-0.0349665,,3,3.0
Br6Cs2U,0.895,-0.0346344,,3,3.0
MgTi3Mn2,0.0,-0.0151033,,3,3.0
SI2Pr2,0.0,-0.0358138999999999,,3,3.0
N2LaTh,0.0,-0.0411078,,3,3.0
CaSr2Ag,0.0,-0.0215304,,3,3.0
BErPt4,0.0,-0.0573133,,3,3.0
SmOs2U,0.0,-0.0731621,,3,3.0
Cu2ZnAu2,0.0,-0.0364885,,3,3.0
BNCoCe,0.0,-0.0207451,,3,3.0
Se2Br6Rh,0.0,-0.0213866,,3,3.0
S8Nb6Cd,0.0,-0.0215413,,3,3.0
Sc6PdPb2,0.0,-0.0305930999999999,,3,3.0
I3Nd,2.071,-0.0400167,,3,3.0
O2FBr,2.8494,-0.0090241,,3,3.0
H2O12Mg3Si3KGa,4.7625,-0.0095609,,3,3.0
Cl3CuTl,0.0,-0.0231234,,3,3.0
CuTe2Ho6,0.0,-0.0433281,,3,3.0
Al2HfAu,0.0,-0.0374671,,3,3.0
Rb3CsTl,0.0,-0.0344938,,3,3.0
InEr2Tl,0.0,-0.0521456999999999,,3,3.0
NiGe3Ce,0.0,-0.0242368,,3,3.0
HNBa,1.5682,-0.0181613,,3,3.0
K2ZnSrBi2,0.0027,-0.035503,,3,3.0
Tc8Re,0.0,-0.0390084,,3,3.0
Ti3NiOs2,0.0,-0.0354069999999999,,3,3.0
Li2Cu2Sr,0.0,-0.0114879,,3,3.0
AgCd,0.0,-0.0309539,,3,3.0
CaMnAs2,0.0,-0.0178338,,3,3.0
H6W,0.0,-0.012669,,3,3.0
DyAu2Bi,0.0,-0.0668519,,3,3.0
AgSb2Th,0.0,-0.0510614,,3,3.0
AsRbI3,0.0,-0.0309093,,3,3.0
TiCu2Au,0.0,-0.029172,,3,3.0
AlGe2Ce2,0.0,-0.0277088,,3,3.0
Si3CePt,0.0,-0.0298637,,3,3.0
ErHg,0.0,-0.0599587,,3,3.0
KZnAg,0.0,-0.0176644,,3,3.0
Pd2LuBi,0.0,-0.0506515,,3,3.0
Ag8Pb,0.0,-0.0362494,,3,3.0
BeCo2Hf,0.0,-0.0257023,,3,3.0
ZnPt2Au,0.0,-0.0560396,,3,3.0
H2Al3Ni3Zr3,0.0,-0.0162309,,3,3.0
P2Ru2Ho,0.0,-0.029027,,3,3.0
GeAu2,0.0,-0.0524797,,3,3.0
Be2Ni2Hf,0.0,-0.0211891,,3,3.0
Al2Ga2Np,0.0,-0.0311299,,3,3.0
MgAlEu,0.0,-0.0223459,,3,3.0
F8Sc2Eu,0.1295,-0.0142144,,3,3.0
AsPt3,0.0,-0.0578148,,3,3.0
Ni2As2Ho,0.0,-0.0252107,,3,3.0
Al3RuTb2,0.0,-0.025955,,3,3.0
Cl6MnAgCs2,0.0,-0.0189256,,3,3.0
Lu2IrAu,0.0,-0.0638727,,3,3.0
O6Ca2AgSb,0.9505,-0.0145111,,3,3.0
TeTl5,0.0,-0.0665508,,3,3.0
IrAuPu2,0.0,-0.0904627,,3,3.0
Li2Mg2Ge2Nd,0.0,-0.0142819,,3,3.0
NdAu2Bi,0.0,-0.065852,,3,3.0
TmPt7,0.0,-0.0684458999999999,,3,3.0
ScCuSrTe3,0.3739,-0.0284769,,3,3.0
Ga5SmAu,0.0,-0.0283453,,3,3.0
CN2FDy,3.1951,-0.0178787999999999,,3,3.0
CoIn2Th,0.0,-0.0452293999999999,,3,3.0
Ge2Ir3Pu,0.0,-0.0607536,,3,3.0
SSePd,0.035,-0.0211522,,3,3.0
RhAgAc2,0.0,-0.0619495,,3,3.0
Mg2SbHg,0.0,-0.0291156,,3,3.0
KCd4Ba,0.0,-0.0284772,,3,3.0
O6KZnI,0.4416,-0.0113964,,3,3.0
CdLuPt2,0.0,-0.0575576999999999,,3,3.0
AgInAu2,0.0,-0.050923,,3,3.0
Ga3Ge2Sm3Os,0.0,-0.0332623,,3,3.0
Si2NiDy,0.0,-0.0218794,,3,3.0
S2CaEu,0.0,-0.0230637,,3,3.0
LiZnSn4,0.0,-0.0265889999999999,,3,3.0
B2CaPt3,0.0,-0.0398815,,3,3.0
Li8Au,0.0,-0.0100266,,3,3.0
Li2Mg2Ge2Pr,0.0,-0.0142478999999999,,3,3.0
KScIn2,0.0,-0.0226779,,3,3.0
CFe2Ge2Nd2,0.0,-0.0250858,,3,3.0
PSe3Lu4,0.0,-0.0383402,,3,3.0
ZnPdAg2,0.0,-0.0274518,,3,3.0
InSnAu,0.0,-0.0463988,,3,3.0
HSCs,3.7145,-0.0178822,,3,3.0
F7K3Ce,3.2999,-0.0120574999999999,,3,3.0
FeSn2Nd6,0.0,-0.0394778,,3,3.0
MgAlGd2,0.0,-0.0328604,,3,3.0
AlCu2Pr,0.0,-0.0207483,,3,3.0
Ho3Tm,0.0,-0.0496946,,3,3.0
F4NaIr,1.7859,-0.0168892,,3,3.0
Ni2Zn3Eu,0.0,-0.0213934,,3,3.0
SiFeNi,0.0,-0.0151706,,3,3.0
PBaIr,0.0,-0.0413817999999999,,3,3.0
MgEuTl,0.0,-0.0441143,,3,3.0
C8CeNd3,0.0,-0.0216038,,3,3.0
HFK2,3.7178,-0.0074021,,3,3.0
MgSc6Sb2,0.0,-0.0188065,,3,3.0
Cr2FeRe,0.0,-0.0314945,,3,3.0
Zn3Y7,0.0,-0.0237170999999999,,3,3.0
Ni2Zr2Ag,0.0,-0.0254418,,3,3.0
O10Ti3Sr4,2.2137,-0.015162,,3,3.0
Na2Zn2Sn,0.0,-0.0143614,,3,3.0
O10Ti3CuLa2,0.559,-0.0164271,,3,3.0
Ru2ReIr,0.0,-0.0531482,,3,3.0
LiCu,0.0,-0.0088188,,3,3.0
As2PdPa,0.0,-0.0440992,,3,3.0
NGeLa3,0.0,-0.0325899,,3,3.0
Ag3SbPb2,0.0,-0.0470855,,3,3.0
PTiNi,0.0,-0.0153335,,3,3.0
Ni2InAu2,0.0,-0.0408115,,3,3.0
Ru2Sb2Cs,0.0,-0.0366306999999999,,3,3.0
Si2CaNi3,0.0,-0.0136464,,3,3.0
Sc5Co,0.0,-0.0148093,,3,3.0
YRhSb,0.0,-0.0341571,,3,3.0
Al2TiGe,0.0,-0.0130655,,3,3.0
TiInTe2,0.0,-0.0314667999999999,,3,3.0
AlSb3U2,0.0,-0.0545227,,3,3.0
Cl6Cs2TbAu,2.4816,-0.0258587999999999,,3,3.0
Be3Co,0.0,-0.0078593,,3,3.0
Li3P2Zr,0.0,-0.0107313,,3,3.0
Li2O7Ti2Tb,0.0,-0.013588,,3,3.0
Zr4Cd3,0.0,-0.0307332999999999,,3,3.0
O6K2TeTh,3.6978,-0.021116,,3,3.0
MgRb2Te4Pb,0.3871,-0.0346968,,3,3.0
YCdAu,0.0,-0.043349,,3,3.0
TiNiGa5,0.0,-0.0166704,,3,3.0
CuSe2Pd2,0.0,-0.0243673,,3,3.0
MnRe3,0.0,-0.0578053,,3,3.0
P2InAu,0.0,-0.0310323999999999,,3,3.0
NiSb2Lu,0.0,-0.037176,,3,3.0
Cr4ReIr,0.0,-0.0360518,,3,3.0
HSHo,1.9925,-0.022457,,3,3.0
Mg5Zr4,0.0,-0.0163986,,3,3.0
SiNd2Pt3,0.0,-0.052509,,3,3.0
CaBa2Bi2,0.0,-0.0500904999999999,,3,3.0
O6RhBa2Pa,2.4113,-0.0279453,,3,3.0
LiBO3Sb,1.0086,-0.0129625,,3,3.0
ClKCu2Br2,2.1782,-0.0151744,,3,3.0
F6NdIr,2.7384,-0.0198146999999999,,3,3.0
YZrHg2,0.0,-0.0492353,,3,3.0
K2CuI4,0.0,-0.0264751,,3,3.0
ScGe6Ir4,0.0,-0.0381324,,3,3.0
Al5FeZr,0.0,-0.0129257,,3,3.0
B5Ca2Ru3,0.0,-0.01656,,3,3.0
PCa5,0.0,-0.0101819,,3,3.0
Al3CuPd2,0.0,-0.0181388,,3,3.0
FeNi,0.0,-0.0173082,,3,3.0
O2CoRb3,1.2684,-0.0165095,,3,3.0
IPtTl3,0.0,-0.0652244,,3,3.0
AlCd2Tb,0.0,-0.029221,,3,3.0
OSAgHo,1.5738,-0.0262377,,3,3.0
CSi2Er2Re2,0.0,-0.0396702,,3,3.0
Ca3Ru,0.0,-0.0158534,,3,3.0
BrSb2Pb2,0.0,-0.0493259,,3,3.0
Li3Cd,0.0,-0.0096229,,3,3.0
Cl2Sc2As,0.0,-0.0148777,,3,3.0
S2ClCdBi,2.0672,-0.0279329,,3,3.0
Li7O6Zr,0.0,-0.0083364999999999,,3,3.0
AlSBr,4.3068,-0.0135252,,3,3.0
CN2Gd,0.0,-0.0226221,,3,3.0
Ni2ZnNd,0.0,-0.0227169999999999,,3,3.0
Rh2PmHg,0.0,-0.0453738,,3,3.0
ZnDy2Au,0.0,-0.0453388,,3,3.0
Be2CoRu2,0.0,-0.0194197999999999,,3,3.0
GaPd2Pr,0.0,-0.0321976999999999,,3,3.0
PSbHf2,0.0,-0.0443036,,3,3.0
Al2Si2La,0.0,-0.016175,,3,3.0
CuGaPu,0.0,-0.0474177,,3,3.0
SiZnPt,0.0,-0.0318105,,3,3.0
GeInAu5,0.0,-0.0569599,,3,3.0
H4O9Si2Ni3,2.5086,-0.0095360999999999,,3,3.0
P4Co7,0.0,-0.0151809999999999,,3,3.0
HHf,0.0,-0.0335048,,3,3.0