formula,bg,formation_energy,mp-id,fidelity,bg_category
BAl2Ru2Tb,0.0,-0.0239897,,3,3.0
Dy3Lu,0.0,-0.0496797,,3,3.0
O8P2BaHo,0.0,-0.0162325,,3,3.0
F2SeSr2,3.5906,-0.0177471999999999,,3,3.0
H4O5Ni3,2.0533,-0.0089564,,3,3.0
AsAg7,0.0,-0.029915,,3,3.0
H6CN2O2,5.4427,-0.0063498,,3,3.0
Cu4YIr,0.0,-0.0268616,,3,3.0
Zn3Pu,0.0,-0.0376685,,3,3.0
SiPd2Ho,0.0,-0.0322087,,3,3.0
ZnRh2Er,0.0,-0.0336452,,3,3.0
RuSbTb,0.0,-0.0404681,,3,3.0
InPr2Ir2,0.0,-0.0532194999999999,,3,3.0
Al3Si2Ca3Au,0.0,-0.0163629,,3,3.0
OGeEu3,0.0,-0.0389116,,3,3.0
C3N3S3KHg,2.2728,-0.0148884,,3,3.0
BeSiLa,0.0,-0.0197744,,3,3.0
LiScTl2,0.0,-0.0407830999999999,,3,3.0
B2Nb2Ir,0.0,-0.0311793,,3,3.0
MgRh2Er,0.0,-0.0315803,,3,3.0
Ga2RbAu2,0.0,-0.0386907,,3,3.0
F6Rb2Au,1.1163,-0.0166941,,3,3.0
ClFeBr,1.7061,-0.0157166,,3,3.0
TiCo2Ga,0.0,-0.0172918,,3,3.0
CoGeNd,0.0,-0.0272817,,3,3.0
SiPt2U,0.0,-0.0642798,,3,3.0
PS3Sc4,0.0,-0.0140665999999999,,3,3.0
MnDy2Ir2,0.0,-0.0521245,,3,3.0
Na2CdBi,0.0,-0.0295975999999999,,3,3.0
LiO4ScV,0.0,-0.0114197,,3,3.0
O3MnBa,1.2173,-0.0179616,,3,3.0
H3RbCd,0.0,-0.0123890999999999,,3,3.0
Al2SrAu3,0.0,-0.0416507,,3,3.0
KAg2Ba2,0.0,-0.0301906,,3,3.0
P4Cu2Zn2Nd3,0.0,-0.0218575,,3,3.0
B4Sc3,0.0,-0.0110496999999999,,3,3.0
O6Ba2NdAu,2.3544,-0.0252141,,3,3.0
O4PKAg2,1.1842,-0.014958,,3,3.0
MgZn2Y3,0.0,-0.0195997999999999,,3,3.0
NiRhOs2,0.0,-0.0483258,,3,3.0
CaSe3RbAu,0.0,-0.0276986,,3,3.0
LaPrAu2,0.0,-0.0571698,,3,3.0
F10CaTi2,4.7394,-0.0096169,,3,3.0
Mn6As4Tm,0.0,-0.0225561,,3,3.0
H2Ag2Pt,0.0,-0.0278986,,3,3.0
Zn3Au2,0.0,-0.0360435999999999,,3,3.0
AlMo2Ta,0.0,-0.0362245,,3,3.0
ZnGaSr,0.0,-0.01782,,3,3.0
Zn3Ru2Dy,0.0,-0.0265816,,3,3.0
CaHg8,0.0,-0.0618830999999999,,3,3.0
HF2Cs,7.3127,-0.0144634,,3,3.0
KCd2IrPb,0.0,-0.0433429,,3,3.0
Sr3Hg,0.0,-0.0341115,,3,3.0
N6Tb3Ta2,0.0,-0.0315395,,3,3.0
Al5CoTm,0.0,-0.0158775,,3,3.0
LiGaTe2,1.983,-0.0239867,,3,3.0
NaRhTl3,0.0,-0.051055,,3,3.0
YLaTl2,0.0,-0.0545555999999999,,3,3.0
LiPd3,0.0,-0.0254584,,3,3.0
KSe2Nb2,0.0,-0.0238659,,3,3.0
RhIn5Lu,0.0,-0.03705,,3,3.0
Al6DyPt,0.0,-0.0211947,,3,3.0
SbAuTl,0.0,-0.0596676,,3,3.0
Si2ScMn3,0.0,-0.0153585999999999,,3,3.0
BRh2Tb,0.0,-0.0312532,,3,3.0
F4RbSr,0.0,-0.0125076,,3,3.0
CaAs4Pd6,0.0,-0.0267192,,3,3.0
CuBaAu,0.0,-0.0418121999999999,,3,3.0
TiGePd2,0.0,-0.0258274,,3,3.0
PdCdSm,0.0,-0.0366460999999999,,3,3.0
Cl3GeHo3,0.0,-0.0288488,,3,3.0
O4BaAu2,2.005,-0.0302304,,3,3.0
O7TiGe2Eu,0.1341,-0.0162894,,3,3.0
P3Zn3Er,0.3805,-0.0181323,,3,3.0
BePRe,0.0,-0.0290669,,3,3.0
B2NiW2,0.0,-0.0344858,,3,3.0
S3ScCuTl,0.0,-0.0228576,,3,3.0
O8P2CaU,0.7483,-0.0183266,,3,3.0
Ru2Os,0.0,-0.0471899,,3,3.0
MgSe4Pm2,1.9416,-0.0266149,,3,3.0
P2ScMn2,0.0,-0.0152466,,3,3.0
AlCu4Eu,0.0,-0.0205298,,3,3.0
BPd4Pr,0.0,-0.030997,,3,3.0
O6Na3Cd2Ir,0.0,-0.0165343,,3,3.0
Li2MgAu2,0.0,-0.0301863,,3,3.0
SiTc,0.0,-0.023085,,3,3.0
S4Zn3Hg,1.7014,-0.0191277,,3,3.0
BeNi2Cu,0.0,-0.0132220999999999,,3,3.0
GaPd2Ho2,0.0,-0.0369589,,3,3.0
Ru5Rh,0.0,-0.0346514,,3,3.0
BeNSc3,0.0,-0.0121696,,3,3.0
Si4Fe4Zr3,0.0,-0.0192553,,3,3.0
Pd2InTm2,0.0,-0.0415185,,3,3.0
H6N2Cl2Cu,1.1357,-0.0069765,,3,3.0
F6ScAgCs2,4.1057,-0.0174167,,3,3.0
O8P2TiLa,0.9424,-0.0138865999999999,,3,3.0
Li4Hg,0.0,-0.0158646,,3,3.0
Si2TbAu2,0.0,-0.0417256,,3,3.0
O7SrCs2Ta2,2.454,-0.0258328,,3,3.0
PdAgHg2,0.0,-0.0501534,,3,3.0
Li4OF8Fe3,0.1259,-0.0087055,,3,3.0
TiGaTc,0.1679,-0.0231165999999999,,3,3.0
O3Re,0.0,-0.0240746,,3,3.0
MnCoPt2,0.0,-0.0444354,,3,3.0
GeILa,0.0,-0.0342501,,3,3.0
Li2O8F2P2VMn,0.0039,-0.0100535,,3,3.0
Pd2Tb2Hg,0.0,-0.0463699999999999,,3,3.0
In2PmGd,0.0,-0.043009,,3,3.0
N6NaCl6Hf6,0.0,-0.0275322,,3,3.0
CoGe2Y,0.0,-0.0215277,,3,3.0
SeBr2Ce2,0.0,-0.0315513,,3,3.0
Ag4Th,0.0,-0.0443218,,3,3.0
B2CrFe3,0.0,-0.014828,,3,3.0
Ti4Fe2In5,0.0,-0.0245654,,3,3.0
CaZrSb,0.0,-0.0266825,,3,3.0
Si2RhPt,0.0,-0.0317875,,3,3.0
InGdPt2,0.0,-0.0591231999999999,,3,3.0
CSi2Mn2Sm2,0.0,-0.0228205,,3,3.0
Li2O2Ni,2.7792,-0.0084233,,3,3.0
CoRe,0.0,-0.0441618,,3,3.0
Cl6Rb3Ho,5.8609,-0.0182675,,3,3.0
MnRuHf2,0.0,-0.0451704,,3,3.0
Ge2OsTh,0.0,-0.0520801,,3,3.0
GaGeSn2,0.0,-0.0267233,,3,3.0
Li2ScPt,0.0,-0.0230064,,3,3.0
MgTe2Pt,0.0,-0.0380771,,3,3.0
LiPd2Pb2,0.0,-0.0441837999999999,,3,3.0
RuIn2Hf6,0.0,-0.0534026,,3,3.0
F6KRb2Ho,7.0627,-0.015547,,3,3.0
O4Na5Au,2.384,-0.0127974,,3,3.0
Al2FeTm6,0.0,-0.0384624,,3,3.0
Sr3BaPt,0.0,-0.035789,,3,3.0
CaAg2Eu,0.0,-0.0318303,,3,3.0
Si2Pd2La,0.0,-0.0267393,,3,3.0
PdSbLu,0.3354,-0.0430568,,3,3.0
Li2N2Pa,0.0,-0.0257553,,3,3.0
Li2PmPb,0.0,-0.0316192999999999,,3,3.0
Ti4Pd,0.0,-0.0196329999999999,,3,3.0
Co6As4Er,0.0,-0.0217825,,3,3.0
O8Se2RbPb,0.1465,-0.0165355999999999,,3,3.0
CrGa3Ge2Pr3,0.0,-0.0268534,,3,3.0
Li2CuSb,0.4501,-0.0147718,,3,3.0
N2PK,4.3568,-0.0101273,,3,3.0
Si2Ca2Ag,0.0,-0.0145133,,3,3.0
Fe2RhRe,0.0,-0.0353353,,3,3.0
N6Mn2Nd3,0.0,-0.0214567,,3,3.0
O7Na2Te2,1.3279,-0.0129047,,3,3.0
Al6BaAu,0.0,-0.019815,,3,3.0
N2TeTh2,1.9366,-0.0515695,,3,3.0
LiF4Sr,0.0,-0.0095116,,3,3.0
BRh3Th,0.0,-0.0418699,,3,3.0
FSCu2,0.0,-0.011559,,3,3.0
LiEr2Ir,0.0,-0.0443074,,3,3.0
KMn4As3,0.0,-0.0181529,,3,3.0
PAs3Mo2,0.0,-0.0238021,,3,3.0
Li5In3,0.0,-0.0142994,,3,3.0
Sc3Ga4Ge2,0.0,-0.0168510999999999,,3,3.0
CaNi2Tl,0.0,-0.0287954,,3,3.0
Si3Ca2Rh,0.0,-0.014503,,3,3.0
Be2TiNb2,0.0,-0.0182915,,3,3.0
KCoBr3,0.3148,-0.0179019,,3,3.0
Ag2SnTh2,0.0,-0.0583782,,3,3.0
MgEr2Ir2,0.0,-0.0505362,,3,3.0
LiO6W2,0.0,-0.0221762,,3,3.0
C2O6SmHg,0.0,-0.0188317,,3,3.0
F3CaTl,4.9126,-0.0217348,,3,3.0
O6ScSbPb2,3.3724,-0.0260732,,3,3.0
NiY3Ir2,0.0,-0.0410989,,3,3.0
Rh2CdLu,0.0,-0.0390411,,3,3.0
Ga2AgIr2,0.0,-0.0415225,,3,3.0
Al2OsIr,0.0,-0.0405949,,3,3.0
PI2La2,0.0,-0.035799,,3,3.0
CSi2Cr2Ce,0.0,-0.019067,,3,3.0
FeGeHf,0.0,-0.033877,,3,3.0
F7Na3Fe,1.029,-0.0076486,,3,3.0
MnFeTc,0.0,-0.0238322,,3,3.0
SmBi,0.0,-0.0626021,,3,3.0
NiGaEu,0.0,-0.0291606,,3,3.0
NiLa2Ir,0.0,-0.0439682,,3,3.0
F6CoZn,0.836,-0.0086033,,3,3.0
HFeRh3,0.0,-0.0247017,,3,3.0
Ga3NdPt,0.0,-0.0334382,,3,3.0
Ge3Lu,0.0,-0.0286022,,3,3.0
FK3Pd,0.9916,-0.0133815,,3,3.0
PRbBa,1.6033,-0.024402,,3,3.0
Ga3Ge2RhTm3,0.0,-0.031646,,3,3.0
CO3FCsEu,0.2027,-0.0202265,,3,3.0
In4Hg,0.0,-0.0402824,,3,3.0
Be2Hf2Pt,0.0,-0.0416073,,3,3.0
Ti3Mn2Ni,0.0,-0.0171786,,3,3.0
Na3KCd,0.0,-0.0102712,,3,3.0
Co3GeEr2,0.0,-0.0289695999999999,,3,3.0
AlCo2Tm,0.0,-0.0238827,,3,3.0
NOHo6Pb2,0.0,-0.0474799,,3,3.0
F6PrPu,0.0,-0.0256841,,3,3.0
O4ZrGd,0.0,-0.0223758,,3,3.0
O4ScV,2.9868,-0.0126061,,3,3.0
N3SmRe,0.0,-0.0294381999999999,,3,3.0
HS2Sc,1.6618,-0.0105884999999999,,3,3.0
O6MoBa2Dy,0.0,-0.0229838999999999,,3,3.0
NiGe3Y,0.0,-0.0209357,,3,3.0
ZnAg2Th,0.0,-0.0431166,,3,3.0
LiNiCu2,0.0,-0.0122436,,3,3.0
Cl3CoTl,0.3631,-0.0237088,,3,3.0
Zr6CdTe2,0.0,-0.0326344,,3,3.0
AgSn2Ho,0.0,-0.0385097,,3,3.0
SrCd2Tb,0.0,-0.0328273,,3,3.0
Li3O8Mn3Co,0.0,-0.0107058999999999,,3,3.0
NiYIn5,0.0,-0.0305248999999999,,3,3.0
NClEr,1.8365,-0.0244928999999999,,3,3.0
Ta2PtAu,0.0,-0.0686077,,3,3.0
MgY2Cd2,0.0,-0.0246875,,3,3.0
LiF6CoRb2,2.7158,-0.0110294,,3,3.0
O3KW,0.0,-0.0216226,,3,3.0
KSe2Tl2,0.0,-0.039209,,3,3.0
O4Ca3Mn,1.9585,-0.0119178999999999,,3,3.0
ZrRh2Pd,0.0,-0.0335343,,3,3.0
CBr2Lu2,1.1819,-0.03347,,3,3.0
O6NaSi2Ti,0.2414,-0.0107389,,3,3.0
LiCa2Ir,0.0,-0.0234734,,3,3.0
NaCu2Sb2Ce,0.0,-0.0261835999999999,,3,3.0
As2RuTh6,0.0,-0.0730367,,3,3.0
Cu2Er2Tl,0.0,-0.0411252,,3,3.0
Li2O8Ti3V,0.0,-0.0116028,,3,3.0
NiSe3SrHo,0.0,-0.0262612,,3,3.0
PNiPd,0.0,-0.0202592,,3,3.0
CoI6Cs2,0.0,-0.0356088,,3,3.0
MgEr2Tl,0.0,-0.0448284,,3,3.0
NaGa2Hg2,0.0,-0.0347605,,3,3.0
ScYIr2,0.0,-0.0471205,,3,3.0
ZnOs2Th2,0.0,-0.0702031,,3,3.0
ZnGa5Y,0.0,-0.0178935,,3,3.0
N3MoPr,1.2067,-0.0222687,,3,3.0
Cl6Br2SbI3,1.2181,-0.0199362,,3,3.0
BPd6Ce2,0.0,-0.0333061,,3,3.0
Fe2NiPt,0.0,-0.0309986,,3,3.0
ZnLa2Pt2,0.0,-0.0491319999999999,,3,3.0
LiCd2Au2,0.0,-0.0406377,,3,3.0
MgS8V4,0.0,-0.0127835999999999,,3,3.0
Ge3NbLa,0.0,-0.0273996,,3,3.0
LiAg4Pb,0.0,-0.0339581,,3,3.0
Mg2CaBa,0.0,-0.0148464,,3,3.0
PdLaBi2,0.0,-0.0590723,,3,3.0
O8AlKTe2,2.473,-0.0132594,,3,3.0
NY2In,0.0,-0.0258695,,3,3.0
C2Ca4I5,0.0,-0.0232857,,3,3.0
KGe2Ba2,0.0,-0.0255215,,3,3.0
F6KCs2Ba,0.0,-0.017314,,3,3.0
CLa3Tl,0.0,-0.0428262,,3,3.0
Ni2ZrRu,0.0,-0.0248082,,3,3.0
As2AuTl,0.0,-0.0455932,,3,3.0
CdLa,0.0,-0.0371935,,3,3.0
Li2O4SiNi,1.7792,-0.0093545,,3,3.0
ErPt4Hg,0.0,-0.0673864,,3,3.0
Sr2Rh,0.0,-0.026284,,3,3.0
N3V4,0.0,-0.0151265,,3,3.0
Mg2YNd,0.0,-0.0204669,,3,3.0
TiBi2,0.0,-0.0579156,,3,3.0
MgGeRu2,0.0,-0.0236786,,3,3.0
Al3RhTm2,0.0,-0.0276177,,3,3.0
Zn2CePm,0.0,-0.0291906,,3,3.0
LiF3Pb,4.3453,-0.0204599,,3,3.0
F6InCs2Pb,0.0,-0.0231556,,3,3.0
CuY3Ir2,0.0,-0.0409247,,3,3.0
LiF6AlRb2,8.6018,-0.0107082,,3,3.0
HO2Er,4.6085,-0.0194987,,3,3.0
HBeN,3.9346,-0.0066243,,3,3.0
S2InHf,0.0,-0.0300925,,3,3.0
Er3Tm,0.0,-0.0507119,,3,3.0
BeHf2Re,0.0,-0.0505163,,3,3.0
N2Lu2Pt,0.0,-0.0416922,,3,3.0
Br2Pu,0.0,-0.0510913,,3,3.0
LiBaAu2,0.0,-0.0458595,,3,3.0
SiFeGd,0.0,-0.0295075,,3,3.0
TiDy6Bi2,0.0,-0.0515263,,3,3.0
CrSb,0.0,-0.027942,,3,3.0
Br2ZrI2,1.0891,-0.0298339,,3,3.0
O4SiMn2,1.5681,-0.0126744,,3,3.0
SCs,2.0128,-0.0248377,,3,3.0
O7Cr2Y2,1.2181,-0.0153432999999999,,3,3.0
NiInSn,0.0,-0.0286876,,3,3.0
MnTeBa,0.0,-0.0323726,,3,3.0
H8Co3Ba,0.0,-0.0100516,,3,3.0
LiSSb,0.3709,-0.0172343,,3,3.0
SiMnTa,0.0,-0.0322461,,3,3.0
SrRh2Sn,0.0,-0.0319262,,3,3.0
BeO4P,0.0,-0.008875,,3,3.0
Cl6SbCs2Au,0.2856,-0.0242901999999999,,3,3.0
MgSc3Ag2,0.0,-0.018657,,3,3.0
NaGePd,0.0,-0.0191497,,3,3.0
Cl6KRb2Gd,4.7137,-0.0179568,,3,3.0
ScCu2Ge,0.0,-0.0164304999999999,,3,3.0
Cu3Au,0.0,-0.0287633,,3,3.0
C2FeGd,0.0,-0.024486,,3,3.0
B4CrY,0.2927,-0.0133621,,3,3.0
K2Ba,0.0,-0.0186708,,3,3.0
Ca3NiSr,0.0,-0.0135027,,3,3.0
PrSmTl2,0.0,-0.0587161,,3,3.0
Li2Ga2Cd,0.0,-0.0138266,,3,3.0
AsTm2,0.0,-0.042307,,3,3.0
Co2In3Sm2,0.0,-0.0322075,,3,3.0
CoGe3Dy,0.0,-0.0250331,,3,3.0
BGa2Ru2Ce,0.0,-0.0264019,,3,3.0
Ge2PdDy,0.0,-0.0305139,,3,3.0
H6SiKCs2,0.0,-0.0116244,,3,3.0
H3SrRh,0.0,-0.0138995,,3,3.0
Ge2RuEr6,0.0,-0.0423304,,3,3.0
AlS4ClBi2,2.0827,-0.0271351,,3,3.0
LiO2MgRb,4.094,-0.010249,,3,3.0
Ti3Pd2Sn3,0.0,-0.0281969,,3,3.0
Se4Rh2Pt,0.0,-0.0315174,,3,3.0
MgPd2La3,0.0,-0.0338894,,3,3.0
MgCuEr,0.0,-0.0237554,,3,3.0
CoCuTm2,0.0,-0.0343213999999999,,3,3.0
Ga2ZrRh,0.0,-0.025157,,3,3.0
RuAgPr2,0.0,-0.0384324,,3,3.0
O4GaSb,1.3992,-0.0148724,,3,3.0
NPSr3,0.7235,-0.0182758,,3,3.0
KSnAu,0.0,-0.0382452,,3,3.0
Mg2Si2La,0.0,-0.0151309,,3,3.0
O8AlRbMo2,4.3664,-0.0148066999999999,,3,3.0
CuEr6Pb2,0.0,-0.0525314,,3,3.0
S3AsTh4,0.0,-0.0558797,,3,3.0
Zr2Ir2Pb,0.0,-0.0566813,,3,3.0
O7Na2Si3,5.5833,-0.0096082,,3,3.0
BSrPt2,0.0,-0.04335,,3,3.0
CoSr2Ir2,0.0,-0.0411076,,3,3.0
CSi2Rh2Pr2,0.0,-0.0271523,,3,3.0
CCa2Fe2Ge2,0.0,-0.0151841,,3,3.0
KAs2Pt2,0.0,-0.0384604,,3,3.0
Al2NiZr8,0.0,-0.0254232,,3,3.0
Rb2InAu3,0.0,-0.0475087,,3,3.0
H3MnNi,0.0,-0.0090022,,3,3.0
SbLu,0.0,-0.0474008,,3,3.0
O2YDy,0.0,-0.0252384999999999,,3,3.0
F6GeBa,6.775,-0.0132666,,3,3.0
N2Nd3,0.0,-0.0311827,,3,3.0
MgS3KY,3.2609,-0.0136017,,3,3.0
Si3Tb2Au,0.0,-0.0330163999999999,,3,3.0
AlClGd,0.0,-0.0261493,,3,3.0
AlZr2Rh2,0.0,-0.028315,,3,3.0
LiGa2Pm,0.0,-0.0202892,,3,3.0
SBr2Ce2,0.0,-0.0295743,,3,3.0
OsIr,0.0,-0.0714843999999999,,3,3.0
YRhAg2,0.0,-0.0315280999999999,,3,3.0
LiCu2Sb2Ho,0.0,-0.026635,,3,3.0
AlZnCe,0.0,-0.022312,,3,3.0
Sc3Ga3Pt2,0.0,-0.0300776,,3,3.0
HCe,0.0,-0.0243655,,3,3.0
MnGa2Dy6,0.0,-0.0378393999999999,,3,3.0
Y2ZrOs,0.0,-0.0398342999999999,,3,3.0
SiTe4Ba2,1.286,-0.0352078,,3,3.0
Pd2SnSm2,0.0,-0.0390743,,3,3.0
F6K2RbRu,0.0,-0.0118253,,3,3.0
B2VRu,0.0,-0.0173198,,3,3.0
Zr6OsPb2,0.0,-0.0457571,,3,3.0
PmTmPb2,0.0,-0.062515,,3,3.0
Cu4As2Rb,0.0,-0.0176391999999999,,3,3.0
As2Np,0.0,-0.0496104,,3,3.0
LiK2Br6Lu,4.8117,-0.0210501,,3,3.0
FeLa2,0.0,-0.0345969,,3,3.0
NiCu2Ho,0.0,-0.0241084,,3,3.0
BeCoTc,0.0,-0.0191369,,3,3.0
LiCo2As2Tb,0.0,-0.0213883,,3,3.0
F6GeCs2,7.1344,-0.0158257999999999,,3,3.0
CaGe2Rh2,0.0,-0.0240209,,3,3.0
S2SnHf,0.0,-0.030652,,3,3.0
O2ClCuSr2,2.9129,-0.0157397,,3,3.0
NiGd,0.0,-0.0378374,,3,3.0
O4TcAu,1.0813,-0.0225657,,3,3.0
Cl6MnCs2Au,0.587,-0.0226156,,3,3.0
N2OSrRe,0.0,-0.0247854,,3,3.0
AgPb4,0.0,-0.0668294,,3,3.0
B7MnEr3,0.0,-0.0208317,,3,3.0
C4ZrNb3,0.0,-0.0219513,,3,3.0
KPd4Tl6,0.0,-0.0523203999999999,,3,3.0
KSe2Sm,2.1925,-0.0252379,,3,3.0
Sn6PrAu4,0.0,-0.0490279,,3,3.0
SeBrAg2,0.0,-0.0257331,,3,3.0
SiRbTe3,1.2209,-0.0289878,,3,3.0
Si3Co2Lu3,0.0,-0.0295899999999999,,3,3.0
Cu2As2RbSm,0.0,-0.0234279,,3,3.0
O7Ba3Ce2,2.7666,-0.0242661,,3,3.0
AlPmAu2,0.0,-0.0483593,,3,3.0
MgRh2Sm3,0.0,-0.0349050999999999,,3,3.0
H6CNI,4.7659,-0.008882,,3,3.0
N3CaCo,0.0,-0.0113753,,3,3.0
YAg2Gd,0.0,-0.037696,,3,3.0
LiAl4Pt,0.0,-0.0178506,,3,3.0
Ni2SbTb,0.0,-0.0297282,,3,3.0
ScCoZr2,0.0,-0.0234059,,3,3.0
Te2Ba3,0.0,-0.0401574,,3,3.0
AsAgTe2,0.0,-0.0315278,,3,3.0
F6AlK2Cs,6.89,-0.011703,,3,3.0
Li16N8OTa2,3.9366,-0.0104229,,3,3.0
FeY2Ir2,0.0,-0.0440292,,3,3.0
GeDyAu,0.0,-0.0464068,,3,3.0
H7N2F,5.2662,-0.0053457,,3,3.0
Pd2Lu3Pt,0.0,-0.0515305,,3,3.0
MgHoPt4,0.0,-0.0568534999999999,,3,3.0
Se8Mo6La,0.0,-0.0283763,,3,3.0
Li3O8MgNi3,0.0,-0.0090622,,3,3.0
Al3Ge2Hf2,0.0,-0.0270607,,3,3.0
Ge2Hf2W,0.0,-0.0472331,,3,3.0
BO3Eu,0.0,-0.0188939999999999,,3,3.0
O3FeNd,0.0,-0.0187520999999999,,3,3.0
AlSm6Bi2,0.0,-0.0485694999999999,,3,3.0
PCaAu2,0.0,-0.0403609999999999,,3,3.0
NaAlSe2,3.2329,-0.0142365,,3,3.0
Be3Co5,0.0,-0.0126175,,3,3.0
SiMn2,0.0,-0.0159078,,3,3.0
Co2Dy2Tl,0.0,-0.0408322,,3,3.0
NiZnSr2,0.0,-0.0187257,,3,3.0
ScFe4Ga,0.0,-0.0173385,,3,3.0
O8P2RbSb,3.7237,-0.0129421,,3,3.0
CSc3Tl,0.0,-0.0258687,,3,3.0
Zn2TbAc,0.0,-0.0413583,,3,3.0
SiCl2Ir,0.0,-0.0247501,,3,3.0
Si2Rh3Dy,0.0,-0.0293471,,3,3.0
Si2Nb2Rh,0.0,-0.0247867,,3,3.0
RhAuAc2,0.0,-0.0717259,,3,3.0
MgGeCs2,0.4618,-0.025042,,3,3.0
Al3Ge2Nd3Au,0.0,-0.0298609,,3,3.0
Pd2NdTl,0.0,-0.0460747,,3,3.0
O7Ge2In2,2.5954,-0.0153084,,3,3.0
ORb3Au,1.1465,-0.0283358999999999,,3,3.0
LiCl2Tl,3.7839,-0.0241907,,3,3.0
CuYTe2,0.1702,-0.0303893999999999,,3,3.0
Si2Ga3Lu2,0.0,-0.0262029,,3,3.0
Li3Sb2Th,0.0,-0.0303487,,3,3.0
P2Sc6Cu,0.0,-0.0142873,,3,3.0
Ca2CdBi,0.0,-0.0327232,,3,3.0
LiMgSnIr,0.0,-0.0291701,,3,3.0
O6FeCu3,0.0,-0.0109454999999999,,3,3.0
O6Ca2MnOs,0.0,-0.0169818,,3,3.0
CaScCu4,0.0,-0.0142502999999999,,3,3.0
O6Na3Fe2Sb,0.0,-0.0119621,,3,3.0
S3Rb2Nb,1.1975,-0.0186244,,3,3.0
S4Cu3Nb,1.8261,-0.015329,,3,3.0
CrZnRh2,0.0,-0.0252206,,3,3.0
Al15Ho4Hf,0.0,-0.0191829,,3,3.0
MgGaAc2,0.0,-0.0508512,,3,3.0
O5AlCa2Ni,0.0,-0.0109976,,3,3.0
Cl6ScCuRb2,2.0205,-0.0138303,,3,3.0
ZrSbTe,0.0,-0.0359031,,3,3.0
HAlNi3,0.0,-0.0123921,,3,3.0
H12O6F6SiCr,1.1571,-0.0066439,,3,3.0
Al3Y2Ir2,0.0,-0.032654,,3,3.0
Zn5Np,0.0,-0.0290816,,3,3.0
F6AlIn2,0.0,-0.0135331,,3,3.0
Zn2CdTb3,0.0,-0.0333723999999999,,3,3.0
PtPa,0.0,-0.0859235999999999,,3,3.0
NaCl6Cs2Lu,5.9686,-0.0207089999999999,,3,3.0
CuSbEu,0.0,-0.036176,,3,3.0
W,0.0,-0.0696878,,3,3.0
AlScPt,0.0,-0.0321361,,3,3.0
F6TiHg,3.7739,-0.0159548,,3,3.0
MgCl4Cs2,5.7575,-0.0182839999999999,,3,3.0
SAsCe,0.0,-0.0265486,,3,3.0
NMn3Ni,0.0,-0.0160134,,3,3.0
Mg4Cu3,0.0,-0.0094335,,3,3.0
F6RuSm,0.7396,-0.0155746,,3,3.0
LiMnTe2,0.0,-0.0244906,,3,3.0
Mg2Ca3Cu2As4,0.4929,-0.0146218,,3,3.0
F6CuTh,2.4238,-0.0198914,,3,3.0
Zn8Au,0.0,-0.0197423,,3,3.0
PCaCe,0.0,-0.0226079,,3,3.0
B6Cr2La,0.0,-0.0143663,,3,3.0
InAuPb,0.0,-0.0596086,,3,3.0
Ti6As2Pt,0.0,-0.0238909,,3,3.0
F6GaLa,7.489,-0.0136473,,3,3.0
O4Ba2Er,0.0,-0.0250279,,3,3.0
OK2As2Zr2,0.0,-0.0192776,,3,3.0
Li3Sb,0.8241,-0.0117913,,3,3.0
S2ZnBr6,1.8355,-0.0168423,,3,3.0
Al4FeDy,0.0,-0.0165907,,3,3.0
S3TiNiSn,0.0,-0.0170016999999999,,3,3.0
Si3YPd,0.0,-0.0188404,,3,3.0
F6ZnGa,0.0,-0.0086395999999999,,3,3.0
Sr3In3Pt2,0.0,-0.0391407,,3,3.0
Ga6AuU,0.0,-0.0339903,,3,3.0
Tm2Ir,0.0,-0.0592348,,3,3.0
NiCu2Sn,0.0,-0.0206097,,3,3.0
ZnTe2Tb6,0.0,-0.0416865,,3,3.0
In2Tb3,0.0,-0.0419354,,3,3.0
TiFe2Ge,0.6465,-0.0183226,,3,3.0
Mn2TaPt,0.0,-0.0438386,,3,3.0
MgMnSe2,1.1192,-0.0170087,,3,3.0
FeIn2Er6,0.0,-0.0432669,,3,3.0
Zn2Lu2Tl,0.0,-0.0424642,,3,3.0
YTaIr2,0.0,-0.0599786,,3,3.0
Ga5CeOs,0.0,-0.0288081,,3,3.0
F6NiTh,3.6646,-0.0201575999999999,,3,3.0
AgPr2Pb,0.0,-0.0490426,,3,3.0
CaNb2Ir2,0.0,-0.0442744,,3,3.0
O4ScCu2Se2Sb2,0.0,-0.0182176,,3,3.0
Cu2As,0.0,-0.016877,,3,3.0
N2PrHf,0.0,-0.0329565,,3,3.0
Ga3Pd2Dy,0.0,-0.0278951,,3,3.0
Ga2RbSn2,0.0,-0.0252582999999999,,3,3.0
CaCeHg2,0.0,-0.0482796999999999,,3,3.0
CoGa3Ge2Dy3,0.0,-0.028312,,3,3.0
Rb3Sb2Pt3,0.0,-0.043817,,3,3.0
Rh2In2Hg,0.0,-0.0407733,,3,3.0
Mn2Cu2Sr3Sb4,0.0,-0.0263857,,3,3.0
CdLa2,0.0,-0.0391933,,3,3.0
Rh2DyIr3,0.0,-0.0551819,,3,3.0
Ni2Ho3Hg,0.0,-0.0417575,,3,3.0
NaP2Cu2Tb,0.0,-0.0178616999999999,,3,3.0
OF5TiRbCs2,4.3497,-0.0168822,,3,3.0
CuYIn5,0.0,-0.0303021999999999,,3,3.0
PdSbCs2,0.0,-0.0367502,,3,3.0
CuAgI2,1.4296,-0.0301786,,3,3.0
O4ScAs,4.2644,-0.0123773,,3,3.0
AsRb2Cs,1.293,-0.0252412999999999,,3,3.0
O2AsCs,3.0454,-0.0192113,,3,3.0
H3Li4N3Mg,3.38,-0.0054849,,3,3.0
S2K2Ir,0.0,-0.0222991999999999,,3,3.0
Ni2DyPb,0.0,-0.0394020999999999,,3,3.0
S4GeCdCs2,2.9578,-0.0214245,,3,3.0
O6MgMnTb2,2.6913,-0.0186624,,3,3.0
Se4Zr3,0.0,-0.026076,,3,3.0
Al2SrSn2,0.0,-0.0222294,,3,3.0
Co6As4Eu,0.0,-0.022003,,3,3.0
Mg2NiIn,0.0,-0.0150953,,3,3.0
SbCeTb,0.0,-0.0437935999999999,,3,3.0
C2TiTa,0.0,-0.0265370999999999,,3,3.0
O7K2Se2,3.5364,-0.0103703,,3,3.0
Li3O10Mn3Fe2,0.0,-0.0109065999999999,,3,3.0
CaCd2,0.0,-0.0239168999999999,,3,3.0
CdBaPt,0.0,-0.0474184,,3,3.0
MgP2Rh2,0.0,-0.0194389,,3,3.0
SiCu2Lu,0.0,-0.0244425,,3,3.0
Rh2AuPu,0.0,-0.0620445,,3,3.0
F3Pb,2.1572,-0.0237503,,3,3.0
TiFeNi2,0.0,-0.0169883999999999,,3,3.0
Al3SrIr2,0.0,-0.0322128,,3,3.0
H4Mn3Rh,0.0,-0.0128042,,3,3.0
LiScGa4,0.0,-0.0142108,,3,3.0
Al2Rh3Pr,0.0,-0.0277506,,3,3.0
NiRuLu2,0.0,-0.0410315,,3,3.0
O6ZnBa2Pu,0.0,-0.0267459,,3,3.0
ScHoHg2,0.0,-0.0505711,,3,3.0
CeHg2Ac,0.0,-0.0684097,,3,3.0
Al3Ge2RuHo3,0.0,-0.027914,,3,3.0
AlCoZnPt,0.0,-0.0278923999999999,,3,3.0
SiPd2Lu,0.0,-0.0337795,,3,3.0
AsZrIr,0.3716,-0.0418226,,3,3.0
Al3Sc3NiGe2,0.0,-0.0141778999999999,,3,3.0
LiBaBi,0.2045,-0.0411024,,3,3.0
F6PdPb,1.941,-0.0180935999999999,,3,3.0
Li5Pb3,0.0,-0.0302784,,3,3.0
Y3Tl5,0.0,-0.0561568,,3,3.0
MnNiSe2,0.0,-0.0190765,,3,3.0
CuSm2Pt,0.0,-0.0444361,,3,3.0
BZr2Ru6,0.0,-0.0313001,,3,3.0
O5FeCuBaLu,0.0,-0.020137,,3,3.0
GeSe4Ag2Ba,0.1541,-0.0260158999999999,,3,3.0
Mg2Ni2Cu,0.0,-0.0115954,,3,3.0
LiInBa,0.0,-0.0254353,,3,3.0
F6CuCs3,2.0669,-0.0175229,,3,3.0
Cl2AsZr2,0.0,-0.0210469,,3,3.0
OCuTb3,0.0,-0.033741,,3,3.0
CSi2Sc2Ru2,0.0,-0.0191025999999999,,3,3.0
OF5Na2Nb,4.6241,-0.0102983,,3,3.0
O8As2BaPr,0.0,-0.0166089,,3,3.0
Pd6Sb4La,0.0,-0.036021,,3,3.0
Ge2Y3PdIn3,0.0,-0.0291278,,3,3.0
O4MoHg,2.3329,-0.0228773,,3,3.0
CeDyPb2,0.0,-0.061643,,3,3.0
I3U,0.0,-0.054291,,3,3.0
LiAlGe,0.1884,-0.0100802999999999,,3,3.0
O3TbHo,5.0937,-0.0267256999999999,,3,3.0
Zr6RhSn2,0.0,-0.0328389,,3,3.0
LiO7Nb2Pr,1.736,-0.0170769,,3,3.0
Co2As2Gd,0.0,-0.0274938,,3,3.0
B2CuTa,0.0,-0.0245723999999999,,3,3.0
O6ZnPdPr2,2.0466,-0.0194318,,3,3.0
N2CuEu2,0.0,-0.0291575,,3,3.0
AlCuRh2,0.0,-0.023262,,3,3.0
AlCo4Pr,0.0,-0.0201522,,3,3.0
CoZr2Cd,0.0,-0.0275066,,3,3.0
AlMoIr2,0.0,-0.0470123,,3,3.0
Cu2Se2Ba,0.4551,-0.0229805,,3,3.0
O9K2BaBi3,0.0,-0.0246271,,3,3.0
Mg2Ga3Pd,0.0,-0.0157581,,3,3.0
Li2Br3Rb,4.9926,-0.0157689,,3,3.0
KBr,5.077,-0.0158425,,3,3.0
Al2Zn4Sm3,0.0,-0.0229584,,3,3.0
LiZn5,0.0,-0.0118027,,3,3.0
Te2Os,0.6727,-0.0490069,,3,3.0
Cl6Rb2AgNd,3.9945,-0.018438,,3,3.0
CFe3Lu,0.0,-0.0239278,,3,3.0
NaSiPm2,0.0,-0.0257532,,3,3.0
Be2ZrRh2,0.0,-0.0221325,,3,3.0
LiO8,0.0,-0.0060062,,3,3.0
H2Sc2Os,0.0,-0.0220853,,3,3.0
O4Cd2Sn,0.9773,-0.0188874999999999,,3,3.0
ScAu3,0.0,-0.0562261,,3,3.0
F7RbPu2,0.0,-0.0301102,,3,3.0
Al3Y3Sn2Os,0.0,-0.0286107,,3,3.0
O5Ti2Y2Te2,0.0,-0.0204937,,3,3.0
Sn2Pb2Bi,0.0,-0.0602674,,3,3.0
Ag2LaTb,0.0,-0.0384741,,3,3.0
Ba4Au3,0.0,-0.0529378999999999,,3,3.0
PTm2Bi,0.0,-0.0494617,,3,3.0
CoSn3Tb,0.0,-0.0347283,,3,3.0
CdPrHg2,0.0,-0.0530731,,3,3.0
O3Na3PS,4.604,-0.008526,,3,3.0
SAsTb,0.0484,-0.0273112,,3,3.0
Cu4GaPu,0.0,-0.0312185,,3,3.0
YLa2Ir2,0.0,-0.0520066,,3,3.0
Si7Fe2Dy3,0.0,-0.0213676,,3,3.0
MgSn2Er,0.0,-0.0322403,,3,3.0
Cr2TcRe,0.0,-0.0357449,,3,3.0
SAsHo,0.0229,-0.0280345,,3,3.0
SClGa,3.6306,-0.0123098,,3,3.0
BrAuHg3,0.0,-0.0587447,,3,3.0
BMoRh,0.0,-0.0257119,,3,3.0
ZnAgSm,0.0,-0.0301647,,3,3.0
Al2ZnEu2,0.0,-0.0275824,,3,3.0
Li2F3Ag,2.5229,-0.0102433,,3,3.0
CaPb2Bi2,0.0,-0.0640305,,3,3.0
Ni2Ta3,0.0,-0.046574,,3,3.0
O6Ca2GdHf,0.0,-0.0211074,,3,3.0