formula,bg,formation_energy,mp-id,fidelity,bg_category
NiLaCePt,0.0,-0.0443017,,3,3.0
O8TbW2Tl,4.7351,-0.028172,,3,3.0
MgScAg2,0.0,-0.0208294,,3,3.0
O3EuIr,0.0,-0.0306574999999999,,3,3.0
O6Sb2Gd,0.0,-0.0210123,,3,3.0
PdTb6Pb2,0.0,-0.0522772,,3,3.0
P2Ru2Hf,0.0,-0.0314865,,3,3.0
H4NiRb2,1.4483,-0.0104614999999999,,3,3.0
O3TbBi,3.3682,-0.0312801,,3,3.0
CeIr2,0.0,-0.0631666999999999,,3,3.0
GeNbHf,0.0,-0.0389864,,3,3.0
O6CoNiTm2,0.0832,-0.0200854,,3,3.0
Be2V,0.0,-0.0089463,,3,3.0
Be4CrTa,0.0,-0.0172879,,3,3.0
KCdPt,0.0,-0.0365039,,3,3.0
S3ScCuRb,0.0,-0.01457,,3,3.0
CuRhTm2,0.0,-0.038884,,3,3.0
B6Pt2Pa,0.0,-0.0319492,,3,3.0
H4Cr3Ni,0.0,-0.0106198,,3,3.0
Li5In,0.0,-0.0077732,,3,3.0
PdNdTl2,0.0,-0.055812,,3,3.0
RhLaTl5,0.0,-0.0629813,,3,3.0
O4ClDyBi2,1.6558,-0.0318625,,3,3.0
O4TmPu,0.9503,-0.0346629,,3,3.0
As2Ru2Ce,0.0,-0.0317809,,3,3.0
In4Te3Bi,0.0,-0.0407161,,3,3.0
CSc3Ga,0.0,-0.0146112,,3,3.0
Al2TcAu,0.0,-0.0305307,,3,3.0
GeRh2Pr,0.0,-0.0333131,,3,3.0
YTe2Hg,0.3678,-0.0436411,,3,3.0
CaTbAu2,0.0,-0.0497021,,3,3.0
O6PdBa2Ir,0.0,-0.0237377,,3,3.0
H2Pd2Cs,0.0,-0.0222573,,3,3.0
O9Ni2Sr2Sm2Tl,0.0,-0.0208399,,3,3.0
OsU2,0.0,-0.0930523,,3,3.0
F6FeCs2Tl,0.0,-0.0212597,,3,3.0
PZr6Te2,0.0,-0.030744,,3,3.0
O2ClAsPb,2.3105,-0.0245434,,3,3.0
Sb2LuAu,0.0,-0.0503761,,3,3.0
SrRhCd,0.0,-0.0291276,,3,3.0
CuHo6Bi2,0.0,-0.0523277,,3,3.0
Na3Mg,0.0,-0.0043301,,3,3.0
C5Al3Hf3,0.0,-0.024507,,3,3.0
B4MoRh2,0.0,-0.0192685,,3,3.0
H3FeCe,0.0,-0.0149595,,3,3.0
S2NiBr,0.0,-0.0139209,,3,3.0
O2FAg,0.0,-0.0123042999999999,,3,3.0
AlZr2Au,0.0,-0.0352209,,3,3.0
Pd2PrHg,0.0,-0.0449016999999999,,3,3.0
Si2PdIn3Tm3,0.0,-0.0349645,,3,3.0
SiZn2Pt,0.0,-0.0272325,,3,3.0
NaCl6CrCs2,2.7679,-0.0165809,,3,3.0
GeSb4Te7,0.0857,-0.0358333,,3,3.0
Rh2Nd2Pb,0.0,-0.0468753,,3,3.0
Mg2Sn2Hg,0.0,-0.0300614999999999,,3,3.0
GaRh2Np2,0.0,-0.0598506,,3,3.0
GaY2Au2,0.0,-0.043064,,3,3.0
Y2Ru2La,0.0,-0.0339632,,3,3.0
K2CsPtTl,0.0,-0.0395217,,3,3.0
Be2InHf2,0.0,-0.0337892,,3,3.0
YRe2,0.0,-0.0569629,,3,3.0
LiO2Co,2.4476,-0.009918,,3,3.0
AlScCo2,0.0,-0.014632,,3,3.0
O8K3Pr,0.0,-0.011207,,3,3.0
Zn2NdAc,0.0,-0.0405786999999999,,3,3.0
O2Na2AgCs,2.2717,-0.0161295,,3,3.0
O3AlV,0.0,-0.011771,,3,3.0
KInTl4,0.0,-0.0552128,,3,3.0
Pd2InDy2,0.0,-0.0398894,,3,3.0
YInHg,0.0,-0.0438621,,3,3.0
SrRhIn,0.0,-0.0303098999999999,,3,3.0
ScOs2,0.0,-0.0531317,,3,3.0
AgSbPu,0.0,-0.0598735,,3,3.0
Fe5Ni,0.0,-0.0178789,,3,3.0
O5PNb,3.5555,-0.0133201999999999,,3,3.0
Si2FeLa,0.0,-0.0208993,,3,3.0
Mg2BiAc,0.0,-0.0448999999999999,,3,3.0
Ga2LaCe,0.0,-0.0306835,,3,3.0
Li3P2Np,0.0,-0.0232247999999999,,3,3.0
HMn2,0.0,-0.0132769999999999,,3,3.0
TiTe3,0.0,-0.0324848,,3,3.0
P4Ca3Mn2Cu2,0.0,-0.0133977,,3,3.0
AlNi4Nd,0.0,-0.0197586,,3,3.0
Cs2Pt3,0.0,-0.0573952,,3,3.0
LiSiAu2,0.0,-0.0380301,,3,3.0
Y3Au2Tl3,0.0,-0.0556582,,3,3.0
NiSbHo,0.4475,-0.0351613,,3,3.0
Ge2HoIr2,0.0,-0.0468066,,3,3.0
H12C4PFeBr4,1.7962,-0.0089581,,3,3.0
N7Si4SrY,3.4129,-0.0134649,,3,3.0
In2SmEu,0.0,-0.0418388,,3,3.0
P2SrRh2,0.0,-0.0231156,,3,3.0
F6CaTi,5.2485,-0.0096995,,3,3.0
Mn2GaCe,0.0,-0.0246297,,3,3.0
Cr4NiOs,0.0,-0.0268401999999999,,3,3.0
ONi,0.6364,-0.0124221,,3,3.0
AlOsTh,0.0,-0.0591586,,3,3.0
Ru2GdHf,0.0,-0.0483406,,3,3.0
MgCuCd2,0.0,-0.0203001,,3,3.0
NaAsCs2,0.7411,-0.0254405,,3,3.0
SeRbPdTeCs,1.0336,-0.0307063,,3,3.0
Ni3ErPt2,0.0,-0.0404821,,3,3.0
LiNi4Y,0.0,-0.016124,,3,3.0
NiHf3Os2,0.0,-0.0587327999999999,,3,3.0
GePt2Tl,0.0,-0.0583746999999999,,3,3.0
Y2TePt,0.0,-0.0422734,,3,3.0
As2Cd2Er,0.0,-0.0308344999999999,,3,3.0
O3NaAs,3.7366,-0.0102718,,3,3.0
CdHoAu,0.0,-0.0503591,,3,3.0
NiGa5Lu3,0.0,-0.0300973,,3,3.0
LiIn2Dy,0.0,-0.0297647,,3,3.0
OFAc,4.8414,-0.0375121,,3,3.0
BGa2Ru2Eu,0.0,-0.0278571,,3,3.0
CMgMn3,0.0,-0.0140494,,3,3.0
H6O6Na2Sn,4.2151,-0.0082203,,3,3.0
ClHg2Tl,0.0,-0.0546390999999999,,3,3.0
O7Si2CaTh,5.2373,-0.018821,,3,3.0
MgSn2Pb2,0.0,-0.0456258,,3,3.0
GaILa,0.0,-0.0333486,,3,3.0
AsSeBr,1.2492,-0.0202102,,3,3.0
H3MnNb,0.0,-0.0124456,,3,3.0
Cl6K2AgBi,1.9556,-0.018814,,3,3.0
Fe3CuEr2,0.0,-0.0284556,,3,3.0
Zn2Ho,0.0,-0.0258267999999999,,3,3.0
LiPd2Sb2Er,0.0,-0.0330218,,3,3.0
GePd2Tm2,0.0,-0.0386833,,3,3.0
MnSbNp,0.0,-0.0539399999999999,,3,3.0
ClCu2Te,0.0,-0.0191823,,3,3.0
Sc2NiZn,0.0,-0.0150473999999999,,3,3.0
F8CaGd2,6.2823,-0.0183849,,3,3.0
Sc2GeBr2,0.0,-0.0187708,,3,3.0
Si2MnHf2,0.0,-0.0334538,,3,3.0
P2CaZn2,1.0839,-0.0123006,,3,3.0
CaNi2Ga5,0.0,-0.015953,,3,3.0
O2PtPb,0.0292,-0.0404868,,3,3.0
Ba2HgPb,0.0,-0.0565578999999999,,3,3.0
PTeDy,0.0053,-0.0330482999999999,,3,3.0
Sr2InTl,0.0,-0.0381762999999999,,3,3.0
P2NiY,0.0,-0.0172703,,3,3.0
NiZr2Tc,0.0,-0.0286446,,3,3.0
CuTb6Pb2,0.0,-0.0501429,,3,3.0
Si3SrIr,0.0,-0.0253536,,3,3.0
B2Co7Ho3,0.0,-0.0238646,,3,3.0
Al5EuPt2,0.0,-0.0301431,,3,3.0
LiAlZnRh,0.0,-0.0150139,,3,3.0
F8Na2YCe,0.7274,-0.0130017,,3,3.0
ZnGaSb2,0.0,-0.0261297,,3,3.0
NSr2,0.0,-0.0186478,,3,3.0
Al3Rh2Lu,0.0,-0.0253709,,3,3.0
H4O5NaSCs,4.7441,-0.0095138999999999,,3,3.0
CCo2Ge2Th2,0.0,-0.0397798,,3,3.0
Y6Sb2Os,0.0,-0.0355971,,3,3.0
Si4P4Fe,1.3483,-0.0113736,,3,3.0
Li2CoSn2,0.0,-0.0189864,,3,3.0
O6ZnPdLa2,1.977,-0.0194529999999999,,3,3.0
O2YSm,0.0,-0.0243047,,3,3.0
P3Mn4Cs,0.0,-0.0183317,,3,3.0
BaTl4,0.0,-0.0661343,,3,3.0
Pd2AgHg,0.0,-0.0414279,,3,3.0
MoPd7,0.0,-0.0330231,,3,3.0
CuAg8,0.0,-0.0295271,,3,3.0
CNb2In,0.0,-0.0279051,,3,3.0
Ti6MnAs2,0.0,-0.0178521,,3,3.0
LiAs2SmAu2,0.0,-0.0384607,,3,3.0
S3GeAu2,0.9751,-0.0312515,,3,3.0
SiCo2Ni,0.0,-0.0154724,,3,3.0
PS2Ti2,0.0,-0.0136944,,3,3.0
Cd4InHg,0.0,-0.0371099,,3,3.0
O6RbTa2,0.0,-0.0239334,,3,3.0
Cl6Cs2Tm,0.0,-0.0215689999999999,,3,3.0
Al2Lu3,0.0,-0.0366456,,3,3.0
RhSb2Dy,0.0,-0.0398941,,3,3.0
CoAs2Lu,0.0,-0.02911,,3,3.0
TiNiGe2,0.0,-0.0181079,,3,3.0
Al4Nb2Nd,0.0,-0.0205555999999999,,3,3.0
OCr,0.0,-0.0142274,,3,3.0
Pm2OsAu,0.0,-0.0577616,,3,3.0
Mg2PdLu,0.0,-0.025112,,3,3.0
Ca2Ag,0.0,-0.0171688,,3,3.0
SiMoLu,0.0,-0.034012,,3,3.0
Al4FeTm,0.0,-0.0172521,,3,3.0
SBr6Pb4,2.4664,-0.0398989,,3,3.0
Na2GaPb2,0.0,-0.0354465,,3,3.0
Rh2PrTh,0.0,-0.052552,,3,3.0
Dy2Pt,0.0,-0.0564403,,3,3.0
Rh4InLa,0.0,-0.0357008,,3,3.0
SrPb5,0.0,-0.0671398,,3,3.0
F2Y2Ru,0.0,-0.0220254,,3,3.0
CaPd2La,0.0,-0.030366,,3,3.0
Al8W3,0.0,-0.0248311,,3,3.0
NiAsSe,0.0,-0.0191404,,3,3.0
Al2ZnHf,0.0,-0.023353,,3,3.0
SmAu2Hg,0.0,-0.0634603,,3,3.0
ScMn4Mo,0.0,-0.0203609,,3,3.0
SiFeCo2,0.0,-0.0161515,,3,3.0
ZnBa2Au,0.0,-0.0409763999999999,,3,3.0
KIn2Sn2,0.0,-0.0296266,,3,3.0
CuCd2Pt2,0.0,-0.0435208,,3,3.0
Ag2InPr,0.0,-0.0352768,,3,3.0
Ag2Sn2Gd,0.0,-0.0390148,,3,3.0
Co4InTm,0.0,-0.0258689,,3,3.0
Al8SiEuAu4,0.0,-0.0294601,,3,3.0
I4EuPb,0.7734,-0.0472734999999999,,3,3.0
S4MnRb2Sn,0.8007,-0.0178541999999999,,3,3.0
Mg2Si2Fe,0.0,-0.0097604,,3,3.0
Si2InIr2,0.0,-0.0397009,,3,3.0
ZnAg2La3,0.0,-0.0345988,,3,3.0
O6CoBa2Bi,0.0,-0.0230926,,3,3.0
LiBr6Rb2Er,4.6997,-0.0230807,,3,3.0
NaGeAg,0.0,-0.0183633,,3,3.0
LiMgCuSn,0.0,-0.014913,,3,3.0
Sb12LaOs4,0.0,-0.046057,,3,3.0
SiRh3Er2,0.0,-0.0364705,,3,3.0
F6IrTl2,0.4338,-0.0281589,,3,3.0
Na2CdAu2,0.0,-0.0357831,,3,3.0
HPd3Ag,0.0,-0.0267114,,3,3.0
AlSe4Ag2In,0.8975,-0.0236091,,3,3.0
LiBePt2,0.0,-0.0376335,,3,3.0
TiNiGaRu,0.0,-0.0214777,,3,3.0
Mg2Cu3Zn,0.0,-0.0117372999999999,,3,3.0
AlS7CoY3,0.0,-0.0164982,,3,3.0
MgDy2Tl,0.0,-0.0435809,,3,3.0
Na2TeHg,1.1994,-0.0292284,,3,3.0
Al8Si,0.0,-0.0079356,,3,3.0
Ga5PdU,0.0,-0.0315132,,3,3.0
HClHf,0.0,-0.0257647,,3,3.0
Al4Cr2Zr,0.0,-0.0143541,,3,3.0
B4Ni5Dy2,0.0,-0.0192959,,3,3.0
Si3CuHf4,0.0,-0.0376897999999999,,3,3.0
AsBr3Cs,0.0,-0.0242564,,3,3.0
Si3TiTh,0.0,-0.0290375,,3,3.0
ErBiTh,0.0,-0.0755317,,3,3.0
Ni2TbHo,0.0,-0.032426,,3,3.0
BPd6In2,0.0,-0.0306234,,3,3.0
Zr6PdPb2,0.0,-0.0414232,,3,3.0
CuGe2As3,0.0,-0.0190393,,3,3.0
CaGePd,0.0,-0.0213926,,3,3.0
Zn3Ag2Ce,0.0,-0.0248794,,3,3.0
HBe2P,2.5526,-0.0058899,,3,3.0
Mg2Al3Os,0.0,-0.0178269,,3,3.0
AlFeGe,0.0,-0.015156,,3,3.0
RbIn6Au4,0.0,-0.0455965,,3,3.0
NdAu,0.0,-0.0574346,,3,3.0
GeRhTe3,0.0,-0.0332288,,3,3.0
Ca3Sn4Ir4,0.0,-0.0421537,,3,3.0
O8Ti3Se,2.7995,-0.0124379,,3,3.0
CePtBi2,0.0,-0.0686779,,3,3.0
SeSb2,0.0,-0.0316462,,3,3.0
ZnTm3,0.0,-0.0424229,,3,3.0
P2Ni2Lu,0.0,-0.0227472,,3,3.0
FeCo4Er,0.0,-0.0230191,,3,3.0
MgSiCu2Se4,1.2228,-0.0163215,,3,3.0
Co2SrSb2,0.0,-0.0266351,,3,3.0
ZnZr2Ta,0.0,-0.0354883999999999,,3,3.0
LiF4Ir,1.637,-0.0166244,,3,3.0
B2NiTa,0.0,-0.0250413,,3,3.0
Br6Rb2Ru,0.0,-0.0225589,,3,3.0
SnTe2,0.0,-0.0368813,,3,3.0
OSc4Bi2,0.0,-0.0328286999999999,,3,3.0
CuDyPt2,0.0,-0.0517961,,3,3.0
Li4O10SiV2Ge,1.2648,-0.0100875,,3,3.0
Mg2PBr,1.5423,-0.0110047999999999,,3,3.0
Al2Ni4Tm3,0.0,-0.0268247,,3,3.0
Si2RuCe,0.0,-0.0257205,,3,3.0
Mg2LaPb2,0.0,-0.0414623,,3,3.0
LiO2KCo,0.2263,-0.0095766,,3,3.0
Cu2Zn2Sr3Bi4,0.0,-0.0403829,,3,3.0
ScBi,0.0,-0.0472,,3,3.0
Li2KTe2,0.0,-0.0185182,,3,3.0
CaAgSn,0.0,-0.0262557,,3,3.0
C2MnLu,0.0,-0.023822,,3,3.0
Li2AlAc,0.0,-0.0258753,,3,3.0
Ni2Rh3Ho,0.0,-0.0308148,,3,3.0
Ni5Zr3,0.0,-0.0220061,,3,3.0
Ni2Zn3Tm,0.0,-0.0212116,,3,3.0
Rh2CdPr3,0.0,-0.0385807,,3,3.0
MgSi2Pt2,0.0,-0.0339138,,3,3.0
Li5S4Sb,1.7038,-0.0099525,,3,3.0
O2ClSbBa,3.3026,-0.0217335,,3,3.0
Fe2ZnPu,0.0,-0.0398424,,3,3.0
Al2Br8Ru,1.9718,-0.0196607,,3,3.0
H3SmPt,0.0,-0.025712,,3,3.0
O4AsOs,0.0,-0.0205311,,3,3.0
Ga2Dy2Hg,0.0,-0.0399948,,3,3.0
Zr4Rh2In5,0.0,-0.0331134,,3,3.0
O8As2BaTm,0.0,-0.0173395,,3,3.0
ZnPdTb,0.0,-0.0318444,,3,3.0
Li3O8V4,0.0,-0.0110205,,3,3.0
Mg2CaTl,0.0,-0.0232789,,3,3.0
Pd3Sn,0.0,-0.0340315999999999,,3,3.0
AlReTh,0.0,-0.0585107,,3,3.0
AlNiTa,0.0,-0.0306274,,3,3.0
Li2As2Th,1.3183,-0.0293359999999999,,3,3.0
B2N3Co2Tm3,0.0,-0.0247154999999999,,3,3.0
CrIr,0.0,-0.0450546999999999,,3,3.0
NdSmBi,0.0,-0.0563226999999999,,3,3.0
AlICe,0.0,-0.030638,,3,3.0
O7Na2GdTa2,0.0,-0.0231931,,3,3.0
S3ScCuCs,0.0,-0.0174246,,3,3.0
Al2TiRu,0.6326,-0.017268,,3,3.0
N3Na5Ni3,0.0,-0.0090791,,3,3.0
Li2O7FCo4,0.131,-0.0103153,,3,3.0
Mn2Ga5Y,0.0,-0.0186871,,3,3.0
Al3DyPt2,0.0,-0.036456,,3,3.0
CaCoSn2,0.0,-0.0250443999999999,,3,3.0
Sr2Pd3,0.0,-0.0292415,,3,3.0
Li3O8P2Mo,2.0557,-0.0104831,,3,3.0
OFAl,5.8298,-0.0093584,,3,3.0
B2N3Ce3Os2,0.0,-0.0332,,3,3.0
Si2Sc3Ga3Pd,0.0,-0.0168552,,3,3.0
H2Lu3,0.0,-0.0350471,,3,3.0
MgHo2Pt2,0.0,-0.0499346,,3,3.0
OP2Sr4,1.5086,-0.0183523999999999,,3,3.0
V3Tc,0.0,-0.0222008,,3,3.0
H2Cr2Ga,0.0,-0.0119313,,3,3.0
RuTmPb,0.0,-0.0546014,,3,3.0
AsBr6Rb2,0.0,-0.0209284,,3,3.0
Cl2Sm,0.4153,-0.022407,,3,3.0
Zn2SrPt2,0.0,-0.0386477,,3,3.0
MgCd2Er,0.0,-0.0294408,,3,3.0
RhCdTh,0.0,-0.0540285,,3,3.0
CuInLu,0.0,-0.0350781,,3,3.0
Li3SrSb2,0.0,-0.0180999,,3,3.0
RuSn2Nd6,0.0,-0.0414677,,3,3.0
O4NaSiV,0.8755,-0.0107699,,3,3.0
CdInAc2,0.0,-0.0616717,,3,3.0
Te3Tm4Bi,0.0,-0.0509082,,3,3.0
O4VSrPr,0.0,-0.0186324,,3,3.0
Rh2Dy3Tl3,0.0,-0.0541933,,3,3.0
MgRh2Ho2,0.0,-0.0349725,,3,3.0
S2KNi,0.0,-0.0116515,,3,3.0
Sc2Hg3,0.0,-0.0470784999999999,,3,3.0
MnCoY,0.0,-0.0212198,,3,3.0
O6TiSr2Os,0.0,-0.0196915,,3,3.0
O4CuNb,0.0,-0.0140137,,3,3.0
Ga3Ru2Pr,0.0,-0.0274937,,3,3.0
Ca2NiIr2,0.0,-0.0360121,,3,3.0
MnRh3,0.0,-0.0301291,,3,3.0
Pd3Sb2,0.0,-0.0350424,,3,3.0
O6MnCdSm2,2.8798,-0.0202836,,3,3.0
Cl2AsPt,0.0,-0.0271703,,3,3.0
Ni2PdHf,0.0,-0.0325595,,3,3.0
OF3Br,3.6738,-0.0079257,,3,3.0
InTmIr2,0.0,-0.0575246,,3,3.0
Mg2HgPb,0.0,-0.0387368,,3,3.0
Se2Tm,0.0102,-0.0323578,,3,3.0
Li5O3FFe,0.2874,-0.0072942,,3,3.0
Si2Ga3Er3Os,0.0,-0.0331732,,3,3.0
Ga2NdIr2,0.0,-0.0445686,,3,3.0
CoNi2Se2,0.0,-0.0180971,,3,3.0
Si2ScHf,0.0,-0.0250528,,3,3.0
Ni4MoRe,0.0,-0.0284421,,3,3.0
AgInDy,0.0,-0.0380525,,3,3.0
CrRh2Os,0.0,-0.0395416,,3,3.0
CClLu2,0.0,-0.0335035,,3,3.0
H5O10S2KFe,1.2467,-0.0080731,,3,3.0
MgZnGa2,0.0,-0.0129147,,3,3.0
Fe2Sn5Hf4,0.0,-0.0426858,,3,3.0
Rh2SmDy,0.0,-0.0408483,,3,3.0
Al7Cu2Tm3,0.0,-0.0205335,,3,3.0
Pd2InTb2,0.0,-0.0394681,,3,3.0
Al5NiEr,0.0,-0.0155378,,3,3.0
MgGa3Sm,0.0,-0.0202333,,3,3.0
BrAg,1.1782,-0.0257923,,3,3.0
S3CeTh2,0.0,-0.0462358,,3,3.0
N2Y2Pd,0.0,-0.0230323999999999,,3,3.0
Si6Os4Th,0.2853,-0.0408694,,3,3.0
Ga2PdCs,0.0,-0.0262095,,3,3.0
F3CoAg,0.7997,-0.0136229,,3,3.0
P2YLa,0.0,-0.024752,,3,3.0
Al3CoSn2Hf3,0.0,-0.0338063,,3,3.0
CeGd3,0.0,-0.055094,,3,3.0
ClU,0.0,-0.0570246,,3,3.0
FeY2,0.0,-0.0245051999999999,,3,3.0
H5O10S2KMn,3.6839,-0.0081615,,3,3.0
FeNi4Y,0.0,-0.018713,,3,3.0
O4NaI,2.3049,-0.0117121,,3,3.0
ClCoLa,0.0,-0.0239795,,3,3.0
LiZr2Au,0.0,-0.0336249,,3,3.0
H2O5Si2,6.1882,-0.0088089,,3,3.0
CuZnY,0.0,-0.0192557,,3,3.0
AlSi2Eu2,0.0,-0.0275237,,3,3.0
Li2MgRh,0.0,-0.0111545,,3,3.0
Hg2TlBi,0.0,-0.0717877,,3,3.0
SrY3Ru,0.0,-0.0283626,,3,3.0
Al3Ge2Sm3Pt,0.0,-0.0304464,,3,3.0
KCu2As2Tb,0.0,-0.0217593999999999,,3,3.0
LiCdTe2Cs,1.9653,-0.0300406,,3,3.0
P3La,0.0,-0.0193952999999999,,3,3.0
Co2Y2Sn,0.0,-0.0256805999999999,,3,3.0
Ge4Dy3Au4,0.0,-0.0459645,,3,3.0
RuLa3Pt2,0.0,-0.051648,,3,3.0
SiRh2Tm,0.0,-0.0334232999999999,,3,3.0
AlSc2Pt2,0.0,-0.0367096,,3,3.0
O3Na4Ba,2.0042,-0.0109847,,3,3.0
AlCu3Se4Tl2,0.0,-0.0282376,,3,3.0
OAgTeU,0.0,-0.0459692,,3,3.0
O6NaTb2W,0.6181,-0.0234212,,3,3.0
O4F2TiNbTl,3.0995,-0.0198532,,3,3.0
F6AgPb,0.7643,-0.0177146,,3,3.0
BNCuSm,0.0,-0.0200844,,3,3.0
GeRb2Te4Hg,0.5336,-0.0353143,,3,3.0
MnTc2W,0.0,-0.0396773,,3,3.0
O3NaFe2,0.0,-0.011492,,3,3.0
Co2ZnTh2,0.0,-0.0481771,,3,3.0
H6RuCe2,0.0,-0.0166004,,3,3.0
Co4TaOs,0.0,-0.0346823,,3,3.0
O7Rb2SrZr2,0.0,-0.0168032,,3,3.0
Ti2Cu2Hg,0.0,-0.0262804,,3,3.0
H2Sc2Ga,0.0,-0.0111148,,3,3.0
Be4TaRe,0.0,-0.026316,,3,3.0
Sc2AsBr2,0.0,-0.0192577,,3,3.0
Mo2RhPt,0.0,-0.0437836,,3,3.0
Se2Tl3,0.0,-0.0517254,,3,3.0
NaTe2Gd,1.0481,-0.0358425,,3,3.0
Cl6Rb3Tl,3.0039,-0.0198312,,3,3.0
GeGdAu,0.0,-0.0500242999999999,,3,3.0
Cl6KRb2Dy,5.5201,-0.0168821,,3,3.0
CdAc,0.0,-0.0608198999999999,,3,3.0
O5AlCa2Co,0.0,-0.0111432,,3,3.0
B2SmIr3,0.0,-0.0462329,,3,3.0
SCr2Se3Hg,0.0166,-0.0257287,,3,3.0
Al2ErPt3,0.0,-0.0474077,,3,3.0
LiS2Zr,0.0,-0.0148528,,3,3.0
Cu2Zn2As4Ba3,0.0,-0.0241329,,3,3.0
CoGe3Sm,0.0,-0.0244016,,3,3.0
Ge2Rh3Lu,0.0,-0.0333713,,3,3.0
Al2SiFe3,0.0,-0.0137011,,3,3.0
F6NaFeRb2,0.0,-0.0112857,,3,3.0
PtAuPb2,0.0,-0.0728225,,3,3.0
SiLa2Os,0.0,-0.0425651,,3,3.0
CIHo,0.0,-0.0329196999999999,,3,3.0
BeNiRh2,0.0,-0.0223432,,3,3.0
Al3Th2,0.0,-0.0433731999999999,,3,3.0
HgPb8,0.0,-0.0749281,,3,3.0
LiPb,0.0,-0.0394799,,3,3.0
O3CuCsSm,0.0,-0.0215634,,3,3.0
Be5Rh,0.0,-0.0097216,,3,3.0
S3KNi4,0.0,-0.0132647999999999,,3,3.0
PCuGd,0.0,-0.0292217,,3,3.0
CeIrPt2,0.0,-0.0648676,,3,3.0
KCu3Se2,0.3175,-0.0161719,,3,3.0
Zn3Rh2Lu,0.0,-0.027834,,3,3.0
CrY6Te2,0.0,-0.0295407,,3,3.0
ZnZr2Ag,0.0,-0.0267642999999999,,3,3.0
NiRu2Nd2,0.0,-0.0348433,,3,3.0
PRb3,0.2077,-0.0184232,,3,3.0
InTe4NdTl2,0.7573,-0.0470241,,3,3.0
Be5Rh3,0.0,-0.0161465,,3,3.0
Se4BrBi3,1.0693,-0.0423104,,3,3.0
Li2NaP,1.9849,-0.0055019,,3,3.0
SiFe2Nb,0.0,-0.0201604999999999,,3,3.0
CuAs3Hf2,0.0,-0.0342207999999999,,3,3.0
CuSe3DyPb,1.3017,-0.0342723,,3,3.0
CaGe2Ac,0.0,-0.0351525,,3,3.0
MgAlCu,0.0,-0.0095559999999999,,3,3.0
LiAgSn,0.0,-0.0234666,,3,3.0
CaAs2Rh4,0.0,-0.0270948999999999,,3,3.0
S6GeAs2Rb2,1.1314,-0.0150685,,3,3.0
PRuIr,0.0,-0.039207,,3,3.0
ClCaBr,5.5641,-0.0148075,,3,3.0
MgGa2In,0.0,-0.0177476999999999,,3,3.0
Zn2CdSm,0.0,-0.0258545,,3,3.0
SiNi2Zr,0.0,-0.0190645999999999,,3,3.0
CuGa2Nd,0.0,-0.0234373,,3,3.0
O4Ca3Eu,0.0,-0.016604,,3,3.0
H2SnSm3,0.0,-0.0300215,,3,3.0
O4Mn2Dy,0.0,-0.0183432,,3,3.0
O6MgZnLa2,0.0,-0.0168941,,3,3.0
GeY2Pt2,0.0,-0.0443591,,3,3.0
ZnGeGd2,0.0,-0.0381218,,3,3.0
Ga5RhSm,0.0,-0.0235274,,3,3.0
Mn2GaLu,0.0,-0.0274317,,3,3.0
OAlBa3,0.0,-0.0276849999999999,,3,3.0
MgNi2Zn2,0.0,-0.0130674,,3,3.0
NaTe2Tm,1.4089,-0.0340814,,3,3.0
Nb2Ir2Au,0.0,-0.0560173,,3,3.0
O8V3Cr,0.0,-0.0126398,,3,3.0
LiP2Cu2Th,0.0,-0.0257011,,3,3.0
BNCuLa,0.0,-0.0196752,,3,3.0
Ge2In3La3Ir,0.0,-0.0384908,,3,3.0
Ru2HfTa,0.0,-0.0503864,,3,3.0
CSi2Er2W2,0.0,-0.039165,,3,3.0
NdAu2Pb,0.0,-0.065163,,3,3.0
Mn2GaPu,0.0,-0.040875,,3,3.0
Mg3Al9Si5Fe,0.0,-0.0085893999999999,,3,3.0
Al5NdPt,0.0,-0.0225156,,3,3.0
NiZnSb,0.0,-0.0225811,,3,3.0
ScZn2Ir,0.0,-0.0287452,,3,3.0
FePdSb6,0.1692,-0.0345045,,3,3.0
MgPPt2,0.0,-0.0396997,,3,3.0
Zn2GaLu,0.0,-0.0251146,,3,3.0
RhErPb,0.0,-0.0541131,,3,3.0
NaS2Sc,2.0203,-0.0114403,,3,3.0
O6NiBa2Tm,0.0,-0.0209604,,3,3.0
Ag2Sn2Sm,0.0,-0.0362035,,3,3.0
O3NaKNi,0.4618,-0.0092394,,3,3.0
CaCuSe3Ba,0.0,-0.0222956,,3,3.0
CaNi2Ge,0.0,-0.0157649,,3,3.0
SCr2Se3Cd,0.7566,-0.0204803,,3,3.0
CoSm6Pb2,0.0,-0.0488156,,3,3.0
S3KCuNb,0.0,-0.0153039,,3,3.0
BeSnPr,0.0,-0.0284521,,3,3.0
BeAsTa2,0.0,-0.0397572,,3,3.0
Si2CaMn,0.0,-0.0124045,,3,3.0
NiGe3Dy,0.0,-0.0249104,,3,3.0
S4As2Eu,0.0,-0.0197048999999999,,3,3.0
Al4Si2Sm3,0.0,-0.0210699,,3,3.0
AlAsPd5,0.0,-0.0280739,,3,3.0
SBrIn,2.7284,-0.0216206,,3,3.0
ZnTc3,0.0,-0.0296746,,3,3.0
AlPd2Sm,0.0,-0.0304599,,3,3.0
B2Zr2Tc,0.0,-0.0230573,,3,3.0
Ni2Cu3Y,0.0,-0.0178942,,3,3.0
Er2HgTl,0.0,-0.0609042,,3,3.0
BK2I2,0.0,-0.0195394,,3,3.0
F4AsRb,4.9884,-0.0117016,,3,3.0
Pd6PbBi,0.0,-0.0441007,,3,3.0
AgInSm,0.0,-0.0369444,,3,3.0
Zn3Nd2,0.0,-0.0258994,,3,3.0
TiNiPb,0.4488,-0.0363853,,3,3.0
As2RhHo,0.0,-0.0318494,,3,3.0
Ag4LaTl,0.1461,-0.0404101,,3,3.0
Pd2SnBi,0.0,-0.0453256,,3,3.0
B2O6SrHf,5.81,-0.0169634,,3,3.0
K2ScBr6Ag,3.1349,-0.0195026,,3,3.0
F4Cr,0.729,-0.0091627,,3,3.0
S3NbBa,0.0,-0.0219392,,3,3.0
Rh2In3Ho3,0.0,-0.0401542,,3,3.0
CoNi2Rh,0.0,-0.0208697,,3,3.0
CaCuSr3,0.0,-0.0183126,,3,3.0
O6CoCuNd2,0.579,-0.0181645,,3,3.0
N3PCd2,1.1095,-0.0167881,,3,3.0
OZnAsNd,1.057,-0.0228719,,3,3.0
O6FeSbBa2,1.265,-0.0195277,,3,3.0
Mg2Cu2Ba,0.0,-0.0160159,,3,3.0
CuSr3Ba,0.0,-0.0243082,,3,3.0
Al5Co2,0.0,-0.0109348,,3,3.0
Ca4Cd3Au,0.0,-0.0254409,,3,3.0
BC3Lu3,0.0,-0.0297706,,3,3.0
AsPdU,0.0,-0.0527291,,3,3.0
Ga3RhIn2Ho3,0.0,-0.0337063,,3,3.0
CuHf3,0.0,-0.050878,,3,3.0
C2MnLa,0.0,-0.0207033999999999,,3,3.0
MnRhHf2,0.0,-0.0450114999999999,,3,3.0
S2Rh,0.0,-0.0182096,,3,3.0
Br4Ce,0.6871,-0.0261835999999999,,3,3.0
OAlTm3,0.0,-0.0353967,,3,3.0
SiSe4Ba2,2.6602,-0.025861,,3,3.0
CuInSm2,0.0,-0.0347417999999999,,3,3.0
Ga2RhDy6,0.0,-0.0398348,,3,3.0
Al3CuGe2U3,0.0,-0.0431432,,3,3.0
SbGdAu2,0.0,-0.0593249,,3,3.0
LiMgCu,0.0,-0.0075691,,3,3.0
LiGa4Ba,0.0,-0.0183544,,3,3.0
BrICs2,4.9444,-0.0347918,,3,3.0
AlPtTh,0.0,-0.0592295,,3,3.0
MgAs2Ba2,1.1383,-0.0260804,,3,3.0
O5Se2Pr2Pu2,0.0,-0.0372627,,3,3.0
O4SrCs2,1.191,-0.0190178,,3,3.0
F6Rb2Sn,6.2349,-0.0138714999999999,,3,3.0
Cu2Se3,0.0,-0.0181342,,3,3.0
O6TiCrLa2,0.0,-0.0192089,,3,3.0
K2ZnTe2,2.2742,-0.021921,,3,3.0
N3EuW,0.0,-0.0311193,,3,3.0
CoGe2Sn3Dy3,0.0,-0.0346794,,3,3.0
RuTaAu2,0.0,-0.0601029,,3,3.0
Ga5SrRu2,0.0,-0.0221015,,3,3.0
CrIn5La,0.0,-0.0329857999999999,,3,3.0
LiO5TiV,1.9211,-0.0111138,,3,3.0
ZnTcLu2,0.0,-0.0401249,,3,3.0
H8Mg2FeBa,2.092,-0.0084059,,3,3.0
H6Ca2Pd,0.0,-0.0085544,,3,3.0
CaZn2La2,0.0,-0.024828,,3,3.0
Ni2Er3Pt,0.0,-0.0430517,,3,3.0
SBrAg2,0.0,-0.0230556,,3,3.0
TiFe4Sn,0.0,-0.0209142,,3,3.0
KZn2Ag2,0.0,-0.0195821,,3,3.0
As2BrBa2,0.0,-0.0292174,,3,3.0
LiAs2PrPt2,0.0,-0.0388455999999999,,3,3.0
Al3Ge2Nd3Re,0.0,-0.0299049,,3,3.0
Si2Ga3Dy3Au,0.0,-0.0320311999999999,,3,3.0
O2ClFeSb,0.0,-0.0164027,,3,3.0
O8ZrCe3,2.2674,-0.0215876,,3,3.0
BeCa2Ru,0.0,-0.0146906,,3,3.0
MgRhDy,0.0,-0.0296216,,3,3.0
O3DyBi,3.3748,-0.0315029,,3,3.0
YCePb2,0.0,-0.0566698,,3,3.0
LiCuY2,0.0,-0.018423,,3,3.0
Li2InPm,0.0,-0.0209485,,3,3.0
Al3Co2La,0.0,-0.0172015999999999,,3,3.0
ScYIn,0.0,-0.0255653,,3,3.0
Si2ScTb,0.0,-0.0210885,,3,3.0
Ni2Te2Cs,0.0,-0.029369,,3,3.0
H2MnNi,0.0,-0.0104324999999999,,3,3.0
Al4PrTa2,0.0,-0.0299906,,3,3.0
S3NiBaNd,0.0,-0.0231947,,3,3.0
PCeIr,0.0,-0.0433715,,3,3.0
Se2BrTe,0.0,-0.0242937,,3,3.0
O8TiZn4Zr,2.1506,-0.0131327,,3,3.0
Co2Se2Hg,0.0,-0.0286905,,3,3.0
O9BaTa2Bi2,2.5001,-0.0300401,,3,3.0
LiO4ClFeW,0.4246,-0.0173728,,3,3.0
Sc6RhSb2,0.0,-0.0223578,,3,3.0
Y3In3Pt2,0.0,-0.0416025,,3,3.0
TeI7Ta3,0.6652,-0.0453609,,3,3.0
NdErPb2,0.0,-0.062035,,3,3.0
O6Sr3Bi,0.0,-0.0204016,,3,3.0
MnCo2Sm2,0.0,-0.0283808,,3,3.0
Zn2InSb2,0.0,-0.0270002999999999,,3,3.0
CuRbTe3Ta,0.0,-0.0361779999999999,,3,3.0
B2CPd2Np,0.0,-0.0331428999999999,,3,3.0
Li3O8VCr4,0.0,-0.0116347,,3,3.0
NiAsEu,0.0,-0.0309517999999999,,3,3.0
HF13Sb2,1.4784,-0.0096028,,3,3.0
B12Hf,0.0,-0.0119045,,3,3.0
H2AlY2,0.0,-0.0147527,,3,3.0
CaZrIr2,0.0,-0.046446,,3,3.0
Rh2Cd2Pb,0.0,-0.040902,,3,3.0
Li17P6Ag3,0.0,-0.0081646,,3,3.0
NClSm2,0.0,-0.0283583,,3,3.0
Ge2In3Nd3Os,0.0,-0.0385608,,3,3.0
BrCd2Cs2,0.0,-0.0319595,,3,3.0
ScZrSb2,0.0,-0.0307074,,3,3.0
TeCs,1.333,-0.0385662,,3,3.0
CoGe3Tb,0.0,-0.024834,,3,3.0
BeCu2Cd,0.0,-0.0163383,,3,3.0
MnBi2Th6,0.0,-0.0837223999999999,,3,3.0