formula,bg,formation_energy,mp-id,fidelity,bg_category
Br2La2Bi,0.0,-0.0424508,,3,3.0
O6FePt3,0.0,-0.0274528,,3,3.0
S4MnZr,0.1646,-0.0157908,,3,3.0
MnNp,0.0,-0.0626711,,3,3.0
O5S2Zr2Pr2,2.748,-0.0214309,,3,3.0
SClLu,3.2387,-0.0267465,,3,3.0
Cl4K2Cu,0.8826,-0.0106621,,3,3.0
OSc3Nb,0.0,-0.0176205,,3,3.0
GeRhPd,0.0,-0.0290347,,3,3.0
S2ScNi,0.0,-0.013822,,3,3.0
Li5P6Cu4,0.0,-0.0095143,,3,3.0
SiClPu,0.0,-0.0437206,,3,3.0
CuInTe2,0.2483,-0.0310623,,3,3.0
Al2CaNi2,0.0,-0.0119686,,3,3.0
Y3Tl,0.0,-0.0393289,,3,3.0
Be2NaP2,0.0,-0.0071433999999999,,3,3.0
CuRbTe2,0.5025,-0.0281212,,3,3.0
F6Na2Ce,2.7587,-0.0118094,,3,3.0
Sc6CdSb2,0.0,-0.0217594999999999,,3,3.0
F6SrGd,0.0,-0.0162684999999999,,3,3.0
ZnAg3,0.0,-0.0269164,,3,3.0
S4CdHg,0.4203,-0.0228373999999999,,3,3.0
ScFeIn5,0.0,-0.0286656,,3,3.0
CaI8Ba3,4.1245,-0.0370861,,3,3.0
NaRhTl2,0.0,-0.0457394,,3,3.0
H2O7CoSeMo,1.083,-0.0116393,,3,3.0
Co3Th2,0.0,-0.048814,,3,3.0
LiAs2Ru2Sm,0.0,-0.0269447,,3,3.0
LiF4Ag2,0.0,-0.0130503,,3,3.0
O3NaRbHf,4.2977,-0.0205165,,3,3.0
Zn3YPt2,0.0,-0.0356525,,3,3.0
Pt2PbAc,0.0,-0.077322,,3,3.0
Ga2SrAg2,0.0,-0.02391,,3,3.0
F6RbZrCs2,0.0,-0.0180488,,3,3.0
Al6NdPt,0.0,-0.0207251,,3,3.0
Ni2SbNp,0.0,-0.0441729,,3,3.0
B4ErTa,0.0,-0.0252085,,3,3.0
MgSc2Rh,0.0,-0.0173514,,3,3.0
CdBaHg,0.0,-0.046569,,3,3.0
H2Sr2Pb,0.0,-0.0261358,,3,3.0
BrRhHo,0.0,-0.0354412999999999,,3,3.0
Ti6NiPb2,0.0,-0.0295852,,3,3.0
TiGa3,0.0,-0.0167297,,3,3.0
LaPrTl2,0.0,-0.0584127,,3,3.0
P2Ag2Pt,0.0,-0.0309558,,3,3.0
O10K2Ti3La2,2.4143,-0.0158881999999999,,3,3.0
CuGa3Ge2Pr3,0.0,-0.0265276999999999,,3,3.0
LiP2Cu2U,0.0,-0.026742,,3,3.0
SnTe3Ho4,0.0,-0.044252,,3,3.0
Ni3YAu2,0.0,-0.0361888,,3,3.0
LiZrPb,0.0,-0.0367398,,3,3.0
Br2ICs,2.4177,-0.0294068,,3,3.0
GaSn3Ba4,0.0,-0.0360106,,3,3.0
Si2Sc2Ag,0.0,-0.0166497,,3,3.0
SNi4,0.0,-0.0149529,,3,3.0
Al7Nd3Pt2,0.0,-0.0279906,,3,3.0
CaCo3Ge2,0.0,-0.0168753,,3,3.0
Na2KGe2,0.0,-0.0110695,,3,3.0
Ca3SrAu,0.0,-0.0245261,,3,3.0
NaMnNiSe3,0.0,-0.0171796,,3,3.0
MnGeRb2Te4,0.4957,-0.0291891,,3,3.0
P4Fe3Ni,0.0,-0.014519,,3,3.0
GaTbIr,0.0,-0.0457734,,3,3.0
F6KNb,5.7746,-0.0110551,,3,3.0
DyEr,0.0,-0.049063,,3,3.0
NiZr6Pb2,0.0,-0.0395277,,3,3.0
TiIr7,0.0,-0.0646598,,3,3.0
CuLu2,0.0,-0.0421695,,3,3.0
Zn4Dy,0.0,-0.0207546,,3,3.0
CScBr,0.0,-0.0157377,,3,3.0
MnAs2Pa,0.0,-0.0402409,,3,3.0
Mg5Ag,0.0,-0.0094742,,3,3.0
BNTbOs,0.0,-0.0349468999999999,,3,3.0
Al5RhSm,0.0,-0.017405,,3,3.0
O2GaRb,3.7314,-0.0143953,,3,3.0
O2Na2Cu,0.9759,-0.0084848,,3,3.0
Mg2CeEr,0.0,-0.0262197999999999,,3,3.0
LiCo2Ge,0.0,-0.0141841,,3,3.0
Al9Rh3Tb2,0.0,-0.0198682,,3,3.0
MnNiSe4,0.0,-0.0195882,,3,3.0
NaNiSr3,0.0,-0.0174185,,3,3.0
O6ZnRuPr2,0.4742,-0.019776,,3,3.0
MgGa2Ho,0.0,-0.0221388,,3,3.0
H2Rh2Re,0.0,-0.0291348,,3,3.0
Si2FeTb,0.0,-0.0218937,,3,3.0
AlRu2Pa,0.0,-0.0448705,,3,3.0
Mg2Zn2Se,0.0,-0.0117242,,3,3.0
Be2AlNb2,0.0,-0.0168174,,3,3.0
RhSn4,0.0,-0.0357144,,3,3.0
F3AgCd,1.3102,-0.0163082999999999,,3,3.0
O5SiCrZn,0.092,-0.0114612999999999,,3,3.0
MgRu2Sb,0.0,-0.0282641,,3,3.0
K7Au4,0.0,-0.0307322999999999,,3,3.0
Ni4CdEu,0.0,-0.0249135999999999,,3,3.0
S4CrTl3,0.0,-0.0347617,,3,3.0
KBa2Tl,0.0,-0.0402721,,3,3.0
Sr2CsBi2,0.0,-0.0486738,,3,3.0
O5S2Zr2Lu2,2.4447,-0.0235488,,3,3.0
GaRh2Tm,0.0,-0.0349232,,3,3.0
F6KRhCs2,2.9471,-0.0165437,,3,3.0
Be4WRe,0.0,-0.0267629,,3,3.0
CuSnNd,0.0,-0.0322777,,3,3.0
BEr2Pt6,0.0,-0.0599559,,3,3.0
NaPd2,0.0,-0.0234406,,3,3.0
Cu2As2Zr,0.0,-0.0208573,,3,3.0
FeSe2Th6,0.0,-0.0710804,,3,3.0
SiAsTa,0.0,-0.0327675,,3,3.0
ScRh,0.0,-0.0251725,,3,3.0
Al7Sc3Cu2,0.0,-0.0110932,,3,3.0
NiGe3Ce2,0.0,-0.0278069,,3,3.0
NdHg,0.0,-0.0565587,,3,3.0
Co3Sm2,0.0,-0.0282275,,3,3.0
BO5PBa,6.2255,-0.0140176,,3,3.0
LiFe4Ta,0.0,-0.0235226,,3,3.0
Co2Ge2Hf,0.0,-0.0275012,,3,3.0
O5AlBa2Nd,4.3956,-0.0212193,,3,3.0
MgGeEr,0.0,-0.0254109,,3,3.0
MgZn2Cd,0.0,-0.0156661,,3,3.0
O3ScTm,3.6635,-0.0208579,,3,3.0
ONa3Au,1.3277,-0.0185727,,3,3.0
Be3Ru2,0.0,-0.016936,,3,3.0
CaGe2Os2,0.0,-0.0386662,,3,3.0
FYTe,1.0911,-0.0256549,,3,3.0
H2O12AlSi3KCo3,1.0302,-0.0104271,,3,3.0
CaCu4Cd,0.0,-0.0169502999999999,,3,3.0
Si3YRh,0.0,-0.0191838,,3,3.0
Li2O,5.7048,-0.0056929999999999,,3,3.0
MgCu2Pr2,0.0,-0.0246123,,3,3.0
C4MgLa3,0.0,-0.021995,,3,3.0
H6O6Na2Pt,3.1341,-0.010331,,3,3.0
YLuTl2,0.0,-0.0574958,,3,3.0
Mg2PrPt,0.0,-0.0317062,,3,3.0
ClTeTb,0.6716,-0.032614,,3,3.0
O6Ba2SmTa,4.042,-0.0261527,,3,3.0
SiRuDy,0.0,-0.0317924,,3,3.0
Ag2Te2Eu,0.1322,-0.0389652,,3,3.0
Ti6MnGa2,0.0,-0.0166908,,3,3.0
ZnTa8,0.0,-0.0606802,,3,3.0
Br4Np,0.0,-0.038258,,3,3.0
CaRhCd,0.0,-0.025037,,3,3.0
Cl2Se2Dy,1.3337,-0.0224393999999999,,3,3.0
NiDy2,0.0,-0.0375981,,3,3.0
CaRh2Sn,0.0,-0.0288547,,3,3.0
ScSmPb2,0.0,-0.0532007,,3,3.0
BSnLu3,0.0,-0.0424705,,3,3.0
NaAlPt,0.0,-0.0281701,,3,3.0
O5S2La2Ce2,1.3431,-0.0238763,,3,3.0
AlNbIr2,0.0,-0.0466605,,3,3.0
Se2Pr6Os,0.0,-0.0422175999999999,,3,3.0
Pd2Er5Bi,0.0,-0.0502956,,3,3.0
B13NiEr4,0.0,-0.0180224,,3,3.0
Al3Si2PdSm3,0.0,-0.0240996999999999,,3,3.0
CaCoGa,0.0,-0.0146670999999999,,3,3.0
Si2MnTh,0.0,-0.0341022,,3,3.0
HSeNd,2.0651,-0.024024,,3,3.0
MgCuBa2,0.0,-0.024773,,3,3.0
AlAsPb,0.0,-0.0346506,,3,3.0
Pd2In3Dy3,0.0,-0.0394966,,3,3.0
MnIrPu2,0.0,-0.0775945,,3,3.0
Rb3NbTe4,1.3243,-0.0314439,,3,3.0
AlTiReIr,0.0,-0.0423384,,3,3.0
CaY2Tl,0.0,-0.0347481,,3,3.0
NaTe2Lu,1.4493,-0.0349356,,3,3.0
Rh2BaBi2,0.0,-0.0533686,,3,3.0
P3NiGe2,0.0,-0.0144321,,3,3.0
Si2SrLa,0.0,-0.0219648,,3,3.0
Zn2SrRh3,0.0,-0.0254815,,3,3.0
MgAg2Hf,0.0,-0.0327233,,3,3.0
Be2NiRu2,0.0,-0.0192256,,3,3.0
Ni2IPr2,0.0,-0.0318803,,3,3.0
HBrHo,0.0,-0.0253573,,3,3.0
Al2Tm3,0.0,-0.034544,,3,3.0
CCo2Ge2Lu2,0.0,-0.0282837999999999,,3,3.0
MnCu2Rh,0.0,-0.0208321,,3,3.0
MgGe2Dy2,0.0,-0.0285982999999999,,3,3.0
Al2S4Sr,4.2948,-0.012587,,3,3.0
ClTeBi,1.4196,-0.0418262,,3,3.0
O4Rb3Rh,0.0473,-0.0163362,,3,3.0
FeTa5,0.0,-0.0585293,,3,3.0
OF2Ti2Sr2Bi2,0.0,-0.0297667,,3,3.0
TiFeRuRh,0.0,-0.0262527,,3,3.0
Cl4K2Mn,1.9123,-0.0114851,,3,3.0
PdInPm2,0.0,-0.0392056,,3,3.0
Ti2FeRu,0.0,-0.0218844999999999,,3,3.0
AlSc2Ru2,0.0,-0.0218183,,3,3.0
AlTi,0.0,-0.0123257,,3,3.0
Mg3Tl4,0.0,-0.0435146999999999,,3,3.0
ZnYLa2,0.0,-0.0320849,,3,3.0
Cu4Ga2Sm3,0.0,-0.0256299,,3,3.0
CScCo3,0.0,-0.0154033,,3,3.0
C2Th,0.0,-0.0390072,,3,3.0
Rh5Lu,0.0,-0.0377895,,3,3.0
NdLuTl2,0.0,-0.0614221999999999,,3,3.0
SAsBr,1.5681,-0.0167205,,3,3.0
ScGaPt,0.0,-0.0348852,,3,3.0
B2CCo2Er,0.0,-0.01876,,3,3.0
MgS4Co2,1.3352,-0.0119693,,3,3.0
Al4CuZr2,0.0,-0.0158976,,3,3.0
GaRh2Hf,0.0,-0.0376875,,3,3.0
Pd2Ba2Tl,0.0,-0.043982,,3,3.0
CaScPd2,0.0,-0.023154,,3,3.0
ZnAg2Au,0.0,-0.036459,,3,3.0
Zr3Tc,0.0,-0.0320518,,3,3.0
LiScAs2Pt2,0.0,-0.0338717,,3,3.0
SrSb2Tl,0.0,-0.0428056,,3,3.0
O2NiHg,0.0,-0.0250006999999999,,3,3.0
Na2BaPb,0.0,-0.0313765,,3,3.0
Ga3Ru2Lu2,0.0,-0.0334507,,3,3.0
ZnNdPt4,0.0,-0.0571709,,3,3.0
Al2Zn4Dy3,0.0,-0.0240838,,3,3.0
Sc2Ge2Ru,0.0,-0.0211917,,3,3.0
H6Sc2Os,0.0,-0.0139603,,3,3.0
O3MgMn,2.3702,-0.0109331999999999,,3,3.0
MgSrPt,0.0,-0.03338,,3,3.0
BCSeSr2,0.0,-0.0170425,,3,3.0
Si3PdTb,0.0,-0.0226123,,3,3.0
SrPdSb,0.0,-0.0317985,,3,3.0
LiO4Cr2,0.0,-0.011503,,3,3.0
O7NaP2Bi,4.1772,-0.0156085999999999,,3,3.0
TiBi,0.0,-0.0475226,,3,3.0
BaAuTl2,0.0,-0.0638854,,3,3.0
Mg2As2Dy,0.0,-0.0205879,,3,3.0
HO5PTe,1.972,-0.0118589,,3,3.0
AgInCe2,0.0,-0.0387941999999999,,3,3.0
Rh4Ba3Tl4,0.0,-0.0497477999999999,,3,3.0
Pd2EuBi,0.0,-0.050067,,3,3.0
BeNi2La,0.0,-0.0202924,,3,3.0
AsBr3La3,0.0,-0.0315057,,3,3.0
GaLu2Pt,0.0,-0.0504219999999999,,3,3.0
Ge2LaIr3,0.0,-0.0499149,,3,3.0
Ag2SbAu,0.0,-0.0422777,,3,3.0
Al5MnCo,0.0,-0.0109582,,3,3.0
CoZnZr,0.0,-0.0208042,,3,3.0
SiCaBa,0.3015,-0.0202268,,3,3.0
RuTb2Au,0.0,-0.0500959,,3,3.0
LiScTe2,0.6484,-0.0241072999999999,,3,3.0
RuInLa,0.0,-0.0375014,,3,3.0
NaCl6Rb2Sb,3.3648,-0.0147484,,3,3.0
Ca2SnPt2,0.0,-0.0402280999999999,,3,3.0
Ni4ZrRu,0.0,-0.0219667999999999,,3,3.0
NaTiCu3Se4,1.5791,-0.0169973,,3,3.0
CaSn2Au2,0.0,-0.0445579,,3,3.0
As2Rh2Nd,0.0,-0.0313983,,3,3.0
CoY6Sn2,0.0,-0.0289607,,3,3.0
SiBr2Nd3,0.0,-0.0311901,,3,3.0
LiZrIr2,0.0,-0.0445506,,3,3.0
Ta4Au,0.0,-0.0671833,,3,3.0
N2PrHo,0.089,-0.029485,,3,3.0
Al2Si2Tb,0.0,-0.0168591,,3,3.0
F4ZnEr,3.7289,-0.0165138,,3,3.0
H6LiO7Br,3.5874,-0.0065482,,3,3.0
RhHoAu2,0.0,-0.0561186,,3,3.0
RbPb3,0.0,-0.0622338,,3,3.0
C2I5Sm4,0.0,-0.0358929,,3,3.0
BeFe2La,0.0,-0.0208482999999999,,3,3.0
CaRh2Tb,0.0,-0.0316606,,3,3.0
TiCoPt2,0.0,-0.0443137,,3,3.0
Mn4FeW,0.0,-0.0266739,,3,3.0
Rh2InAu,0.0,-0.042683,,3,3.0
Pd2InSm,0.0,-0.0367202,,3,3.0
CdTb2Ir,0.0,-0.049444,,3,3.0
P2Cu2RbSm,0.0,-0.0202122,,3,3.0
ZnHo3Ir2,0.0,-0.0513239,,3,3.0
PMnU,0.0,-0.0446649,,3,3.0
PHf,0.0,-0.0379279,,3,3.0
Mg7Cu,0.0,-0.0061895,,3,3.0
B2Al2Fe3,0.0,-0.0124779,,3,3.0
O4PGd,5.0492,-0.018979,,3,3.0
Cl5Y,2.6301,-0.0128998,,3,3.0
Cl6RhTl2,0.0,-0.0260387999999999,,3,3.0
MgSm5,0.0,-0.0378787,,3,3.0
PdTmTl,0.0,-0.0530832,,3,3.0
CuBrLa,0.0,-0.0270415,,3,3.0
CrMn5,0.0,-0.0182209,,3,3.0
Ti2MnCu,0.0,-0.0165912,,3,3.0
Li2MgLa,0.0,-0.0132194,,3,3.0
Sc6NiSe2,0.0,-0.0166323,,3,3.0
RbHg2Pb2,0.0,-0.0619257,,3,3.0
Al2SmPt3,0.0,-0.0464539,,3,3.0
GeI6Cs2,0.0,-0.0358745,,3,3.0
Al3Hf2,0.0,-0.0301643,,3,3.0
GaRhHo,0.0,-0.0340523,,3,3.0
GeYRh,0.0,-0.0280044,,3,3.0
O6Sr2PdPa,0.0,-0.0241535,,3,3.0
SiKSe3,1.7946,-0.0165314,,3,3.0
MnIHf,0.0,-0.0396976999999999,,3,3.0
C2SnEr3,0.0,-0.0350683,,3,3.0
Ga5TbOs,0.0,-0.0291354,,3,3.0
BCCuTm,0.0,-0.0216203,,3,3.0
Ca2YAg2,0.0,-0.0222613999999999,,3,3.0
Sr5Cd3,0.0,-0.0255443,,3,3.0
ScPd2,0.0,-0.0274472999999999,,3,3.0
SiSbTe,0.0,-0.0276402,,3,3.0
Cr2FeOs,0.0,-0.0316093,,3,3.0
H4SrIr,0.0,-0.0184095,,3,3.0
O3MnBi,0.0,-0.0247592,,3,3.0
O2ScRb,3.8518,-0.0148287,,3,3.0
Mg3La5,0.0,-0.0288515,,3,3.0
Al2S4Mn,2.4142,-0.0115727,,3,3.0
Ge2GdIr3,0.0,-0.0524649,,3,3.0
BeFeRh2,0.0,-0.0230304,,3,3.0
H2Ti2Cr,0.0,-0.0117481,,3,3.0
TiRh2Te3,0.0,-0.0331132,,3,3.0
Al3Si2Ho2,0.0,-0.0207474,,3,3.0
TcSb2Tl,0.0,-0.0454598,,3,3.0
P12PrOs4,0.0,-0.0274943,,3,3.0
Ni4GaGe3,0.0,-0.017627,,3,3.0
NiAsTa,0.0,-0.0347803,,3,3.0
B2ZnTc2,0.0,-0.0200059,,3,3.0
RuIn2Sm,0.0,-0.0369504,,3,3.0
RhIn3Hg,0.0,-0.0406602,,3,3.0
CoSn5Ce,0.0,-0.0347482,,3,3.0
S2IHg,0.0,-0.0308704,,3,3.0
Cd2NdSm,0.0,-0.0376387,,3,3.0
NaHgPb2,0.0,-0.0561019,,3,3.0
ZnCeAu2,0.0,-0.0498001999999999,,3,3.0
BeF6KY,8.3787,-0.0107262,,3,3.0
NaMgHg2,0.0,-0.0367008999999999,,3,3.0
AlCaSn2,0.0,-0.0226007,,3,3.0
Al4RhEu,0.0,-0.0204726,,3,3.0
Al13Os4,0.0,-0.0233972,,3,3.0
F6CdHg,0.6649,-0.0163898,,3,3.0
Te2CsTh,0.0,-0.0533217,,3,3.0
Ga5EuIr,0.0,-0.0300855,,3,3.0
H7NF4,8.0303,-0.0052851,,3,3.0
LiGa4Np,0.0,-0.0293384,,3,3.0
Al5Ni2Ho,0.0,-0.0156447,,3,3.0
K2ZnBaBi2,0.0,-0.0383949,,3,3.0
O8Mo2GdTl,4.0546,-0.0232861,,3,3.0
S4K2CrSn,0.0333,-0.0146542,,3,3.0
Cr2CoNi,0.0,-0.0174492,,3,3.0
CoNbRh2,0.0,-0.0298687,,3,3.0
MgGaHo2,0.0,-0.0301958,,3,3.0
O6PdCdBa2,0.0,-0.0195493999999999,,3,3.0
Li8O6Co,1.0971,-0.0068103,,3,3.0
F6Rb3U,0.0,-0.0217915,,3,3.0
Al6NiSm,0.0,-0.0138301,,3,3.0
Ge3GdPt,0.0,-0.0379918,,3,3.0
Cl6TiRbCs2,0.0,-0.0181101,,3,3.0
F6Na2Dy,0.0,-0.0118475,,3,3.0
CZr2In,0.0,-0.0270586,,3,3.0
ZnCs2Pb,0.6702,-0.0414875,,3,3.0
AgTe3BaTm,0.8516,-0.0404482,,3,3.0
RuCePt2,0.0,-0.0556971,,3,3.0
LiF6RhCs2,2.6342,-0.0159059,,3,3.0
Al4PdCe,0.0,-0.0187469,,3,3.0
LiSbPt2,0.0,-0.0455989999999999,,3,3.0
NSnSm3,0.0,-0.0368728,,3,3.0
MnSb2Pr,0.0,-0.0348221,,3,3.0
Ga2CdTl2,0.0,-0.0414519999999999,,3,3.0
O6CoSr2Mo,0.0,-0.0159213,,3,3.0
F6MnPu,0.4564,-0.0220444999999999,,3,3.0
O6V3Ni,0.0,-0.0129979,,3,3.0
B6Cr2Y,0.0,-0.0127256,,3,3.0
NaGaAg2,0.0,-0.0208383,,3,3.0
Fe2SbHf,0.0,-0.0342374,,3,3.0
C2O6CdBa,4.0955,-0.0146926,,3,3.0
FeMo2,0.0,-0.0291094,,3,3.0
KNiSe3Nb,0.0,-0.0205471,,3,3.0
B2YRu2,0.0,-0.0231124,,3,3.0
Mn5Os3,0.0,-0.0384462,,3,3.0
Si2PdU,0.0,-0.0394688,,3,3.0
Rh2CdLu2,0.0,-0.0425819,,3,3.0
C4RuTb3,0.0,-0.0273155,,3,3.0
C2Sc4Br5,0.0,-0.0172623,,3,3.0
F6AlCr,3.519,-0.0093989,,3,3.0
Tm2HgPb,0.0,-0.0625188,,3,3.0
H2Cr2Tc,0.0,-0.0156267,,3,3.0
CuSbU,0.0,-0.0520598,,3,3.0
CoY2Ru3,0.0,-0.0299159,,3,3.0
NMn3,0.0,-0.0162427999999999,,3,3.0
MgCo2Er2,0.0,-0.028179,,3,3.0
Ga3Dy2Ir,0.0,-0.0368447,,3,3.0
Li2ZnIn,0.0,-0.0132926,,3,3.0
CSbTh3,0.0,-0.0675761,,3,3.0
ZnZr2Pt,0.0,-0.0371087,,3,3.0
Co2Sm2Pb,0.0,-0.0401993,,3,3.0
RhSn5Tb,0.0,-0.0375312,,3,3.0
AgLu2Au,0.0,-0.0535968,,3,3.0
ScNi2Zr2,0.0,-0.0219968,,3,3.0
MgGa2Rh2,0.0,-0.0217394,,3,3.0
TbIr3,0.0,-0.0657294,,3,3.0
LiK2Br6Nd,4.4904,-0.0198659999999999,,3,3.0
CaCdPb,0.0,-0.0392158,,3,3.0
ZnY2Sb,0.0,-0.0274713,,3,3.0
Si2LuRe4,0.0,-0.0518361,,3,3.0
Fe4As12Nd,0.0,-0.0214665,,3,3.0
H2O2Ba,4.8448,-0.0136961999999999,,3,3.0
SiPdEu,0.0,-0.0329203,,3,3.0
Li5Ag4,0.0,-0.0154094,,3,3.0
NiSb2Tm,0.0,-0.0363331999999999,,3,3.0
O4VSb,0.0,-0.0153568,,3,3.0
MnFe4Rh,0.0,-0.0208433999999999,,3,3.0
CuLaPb,0.0,-0.0453393,,3,3.0
Cu4SbAu,0.0,-0.0278084,,3,3.0
B6Ir2Pa,0.0,-0.0322123,,3,3.0
B2RhTa2,0.0,-0.0370476,,3,3.0
Sc3Pt2Hg,0.0,-0.0430873,,3,3.0
BY3Pb,0.0,-0.0339612,,3,3.0
CaZn3Pt2,0.0,-0.0324944,,3,3.0
InPr2Hg,0.0,-0.0477152,,3,3.0
NaSe2Ac,2.165,-0.0355444,,3,3.0
Ge2Rh2Pr,0.0,-0.030856,,3,3.0
GaDyPt,0.0,-0.0461086999999999,,3,3.0
Li2BaTl2,0.0,-0.0381725,,3,3.0
Ca3Hg5,0.0,-0.046811,,3,3.0
SeBrLu,2.5855,-0.0336938,,3,3.0
SiRhPd,0.0,-0.0262519999999999,,3,3.0
Fe2LaPt3,0.0,-0.0490694999999999,,3,3.0
AuBi2,0.0,-0.0755121,,3,3.0
SiRh2Lu,0.0,-0.0343276,,3,3.0
F6InHo,6.6842,-0.0164636999999999,,3,3.0
Co3Br8,0.0,-0.0192964,,3,3.0
PdLa2Au2,0.0,-0.0523782,,3,3.0
SiTaIr,0.9837,-0.0501657,,3,3.0
ZrPdTl,0.0,-0.0457841,,3,3.0
P2Ni2Ta,0.0,-0.0245816,,3,3.0
CuAsHf2,0.0,-0.0409026,,3,3.0
O4Cu2Sb2Te2Lu,0.0,-0.0250905999999999,,3,3.0
Li2F8SrSm,0.0,-0.011813,,3,3.0
S3TlPbBi,0.1207,-0.0430141,,3,3.0
NaS2Tm,2.6363,-0.0209462,,3,3.0
O6ZnRuBa2,0.0,-0.0185334,,3,3.0
Al6PdEu,0.0,-0.0171365,,3,3.0
CaBr4Rb2,4.775,-0.0205073,,3,3.0
Ni2TlTh2,0.0,-0.0597635,,3,3.0
Si2NiIn3Dy3,0.0,-0.0317162,,3,3.0
NiSbLu,0.3627,-0.0372758,,3,3.0
SeLa,0.0,-0.0338066,,3,3.0
Tb2IrPt,0.0,-0.0598777,,3,3.0
Rh4LaTl,0.0,-0.0420927,,3,3.0
O6AsBa2Ho,3.909,-0.0214281,,3,3.0
Li3B2O6Cr,2.9924,-0.0089962,,3,3.0
CaCuTe3Tb,0.6182,-0.0318168,,3,3.0
Al3Si2La3Pt,0.0,-0.0278421999999999,,3,3.0
S2Ag2Tl,0.0,-0.0309477,,3,3.0
MgCd2Sm,0.0,-0.0280021999999999,,3,3.0
LiRh2Ba,0.0,-0.0275386,,3,3.0
Be13Nd,0.0,-0.0073113,,3,3.0
Al2FeHo6,0.0,-0.0365504,,3,3.0
Ni5Zr,0.0,-0.0189189,,3,3.0
Ti3Cu2,0.0,-0.0157927,,3,3.0
Sc2Co2Sn,0.0,-0.02025,,3,3.0
KIn2Pt,0.0,-0.0367912,,3,3.0
O6Ba2DyPt,0.0,-0.0259853,,3,3.0
AlSc2Ni2,0.0,-0.0143658,,3,3.0
Al2Pd2Nd,0.0,-0.0259434,,3,3.0
Cu2ZnEu2,0.0,-0.0304719,,3,3.0
Rh2CeHg,0.0,-0.0456009999999999,,3,3.0
Se3Pr4Bi,0.0,-0.0408153999999999,,3,3.0
Zn3Ag2Tm,0.0,-0.0261244,,3,3.0
GaPtNp,0.0,-0.0651215,,3,3.0
Si2TbRe,0.0,-0.0350478,,3,3.0
Ga4Zr2Ho,0.0,-0.0257598,,3,3.0
Al3Ce2Re,0.0,-0.0310115,,3,3.0
Cu4Se4Zr,1.5972,-0.0196442,,3,3.0
ZnSnNp,0.0,-0.0520492,,3,3.0
LiLuPb2,0.0,-0.0527648,,3,3.0
Al4CuTh,0.0,-0.0240383999999999,,3,3.0
Sn3La,0.0,-0.0383437,,3,3.0
InIr,0.0,-0.0523116,,3,3.0
Li2NaSb,1.1675,-0.0122031,,3,3.0
Li4P4Y3,0.0,-0.0134535,,3,3.0
ZnMo,0.0,-0.0241733,,3,3.0
F6SbCs2Tl,3.9981,-0.0231902,,3,3.0
Fe2RuW,0.0,-0.0350583999999999,,3,3.0
Al4YNb2,0.0,-0.0183535,,3,3.0
MgAg2Au,0.0,-0.0345389,,3,3.0
Ge4Rh4Tm3,0.0,-0.0343860999999999,,3,3.0
MgAlSm,0.0,-0.0194039,,3,3.0
SiAsHf,0.0,-0.0316771,,3,3.0
VNi6Ga,0.0,-0.0166407999999999,,3,3.0
Cl4InCs2,0.0,-0.0218872,,3,3.0
ZnRuPa,0.0,-0.0497296,,3,3.0
O2Br2CdSn2,2.207,-0.0230855,,3,3.0
Li2N2Hf,2.2539,-0.0186139,,3,3.0
PrPb2Pu,0.0,-0.0766410999999999,,3,3.0
LiGe2Rh,0.0,-0.0190385,,3,3.0
Si2Rh2Nd,0.0,-0.0274417,,3,3.0
O4Cu2As2Te2Nd,0.0,-0.0208083,,3,3.0
InPbBi2,0.0,-0.0664631,,3,3.0
CaSn2Ir,0.0,-0.0388292,,3,3.0
CdTm3Ir2,0.0,-0.0556135,,3,3.0
CuSb2Pb,0.0,-0.0413017,,3,3.0
Si3RuNp,0.0,-0.0347034,,3,3.0
Li2O2Cu,0.9387,-0.0080905,,3,3.0
BNPtPa,0.0,-0.0477757,,3,3.0
HOK,4.5302,-0.0074603,,3,3.0
PCoHf,0.0,-0.0312369999999999,,3,3.0
B2Fe7Ce3,0.0,-0.023082,,3,3.0
Ge3LuOs,0.0,-0.0373026,,3,3.0
CoTm6Bi2,0.0,-0.0544432,,3,3.0
Ge2YPd2,0.0,-0.0272405,,3,3.0
MgCoGe2,0.0,-0.0153224,,3,3.0
Li5PSe4Br2,2.074,-0.0129525,,3,3.0
O6CrSr2Zr,0.0,-0.0162668,,3,3.0
O6CdIr3,0.0,-0.0289658,,3,3.0
O7Al2BaBi2,3.6221,-0.0236866999999999,,3,3.0
Li3O6MnCo2,0.2411,-0.0100854999999999,,3,3.0
RbErBi,0.0,-0.0504181,,3,3.0
Ga2RuDy6,0.0,-0.0398508,,3,3.0
CGe2La2Ir2,0.0,-0.0403836,,3,3.0
Li3S2Au,2.1913,-0.0171172,,3,3.0
SrCd2Pb,0.0,-0.0400443,,3,3.0
Co4As3Cs,0.0,-0.0211652,,3,3.0
O7Mg2As2,3.8228,-0.0105940999999999,,3,3.0
Li2NCu,0.4284,-0.0076776,,3,3.0
DyIrTl,0.0,-0.0643454,,3,3.0
FeCuZr2,0.0,-0.0238674,,3,3.0
Ni2BrTb2,0.0,-0.029953,,3,3.0
H4O9Al2Si2,5.7326,-0.0086562,,3,3.0
OBrCs3,2.1075,-0.0293349,,3,3.0
GeTe3Dy4,0.0,-0.0416169999999999,,3,3.0
Se2TaHg,0.0,-0.0443162,,3,3.0
KGe2Au2,0.0,-0.037232,,3,3.0
MgK2BaBi2,0.2549,-0.0370747,,3,3.0
In6Ba5,0.0,-0.0367414,,3,3.0
Pd2HgTl,0.0,-0.0516422,,3,3.0
AlTi2W,0.0,-0.0276753,,3,3.0
Si3Co2Ho3,0.0,-0.0271698999999999,,3,3.0
HO8P2K3Ca,5.7696,-0.0098495,,3,3.0
Ni4LuAu,0.0,-0.0319628,,3,3.0
F6Mo,4.6307,-0.0105508,,3,3.0
CoIr4,0.0,-0.060357,,3,3.0
Be2ZnRu,0.0,-0.0146179,,3,3.0
Zn5Tc,0.0,-0.0171328,,3,3.0
CoRu5,0.0,-0.0318168,,3,3.0
AgNdTl2,0.0,-0.0552072,,3,3.0
C2NiTm,0.0,-0.022489,,3,3.0
SiMnSr,0.0,-0.0172382,,3,3.0
Cs2Tl2Pb,0.0,-0.0593914,,3,3.0
H2Ca3,0.0,-0.0074982,,3,3.0
H4NSe4MoAu,0.772,-0.0192029,,3,3.0
Ga5RhDy,0.0,-0.0240092,,3,3.0
O3CoEr,1.4788,-0.0200243,,3,3.0
ScZrMo4,0.0,-0.0308335,,3,3.0
BeCo8,0.0,-0.0158778,,3,3.0
H2O4Te,2.3693,-0.0108787,,3,3.0
Sb2LaAu,0.0,-0.0475820999999999,,3,3.0
BeLaIr,0.0,-0.0402153,,3,3.0
OSSrCd,2.394,-0.019033,,3,3.0
Si6Mn6La2Nd,0.0,-0.0205838,,3,3.0
Ga6PtTh,0.0,-0.0336267,,3,3.0
AlSiCr,0.0,-0.0122818,,3,3.0
O6Ba2PrW,0.0,-0.0259277,,3,3.0
CO7NaCoAs,0.8764,-0.0100494,,3,3.0
Al3Si2Hf2,0.0,-0.0244834,,3,3.0
O6CaTiBa2,0.0,-0.0170379,,3,3.0
O3ScCo,2.1076,-0.0126763999999999,,3,3.0
Cu3In2,0.0,-0.0224546999999999,,3,3.0
S2CdCs2,2.9403,-0.0262371,,3,3.0
F6KAu,2.7584,-0.0139977,,3,3.0
Y2Rh3,0.0,-0.0322111,,3,3.0
Fe2SnTb,0.0,-0.0300657,,3,3.0
SiGdAu,0.0,-0.0469528,,3,3.0
Ti2YIn4,0.0,-0.0280615,,3,3.0
GeHoPt,0.0,-0.0474667999999999,,3,3.0
O4AsTl,0.901,-0.0206634,,3,3.0
Li2Cu2La,0.0,-0.0157524,,3,3.0
Pd2In2Hg,0.0,-0.0404936,,3,3.0
K2TlPb,0.0,-0.0414540999999999,,3,3.0
RbTe2Nd,1.5095,-0.0363053,,3,3.0
H3MnIr,0.0,-0.0201205,,3,3.0
Al2FeRh,0.0,-0.0176908,,3,3.0
PrPtTl,0.0,-0.0629089999999999,,3,3.0
HCaLa3,0.0,-0.0286275,,3,3.0
ScPd2Sn,0.0,-0.0298531,,3,3.0
H8N2Cl6Pd,1.515,-0.008115,,3,3.0
LiGeI3,1.4664,-0.0270007,,3,3.0
Cu4ZrIr,0.0,-0.0274289,,3,3.0
O8KMo2Er,4.4459,-0.017485,,3,3.0
HLiO3Ce2,0.0,-0.0189662,,3,3.0
Sc6Te2Re,0.0,-0.0263704,,3,3.0
B4Fe5Pr2,0.0,-0.0190439,,3,3.0
Ta2Au,0.0,-0.0676124999999999,,3,3.0
B4Pr2Os5,0.0,-0.0436334,,3,3.0
Br6Rb2AgSb,0.9479,-0.0238184,,3,3.0
S2RhAu,1.1062,-0.031066,,3,3.0
LiAlLa,0.0,-0.0179665,,3,3.0
Al3Dy4,0.0,-0.0309576,,3,3.0
NaAlTe2,2.7125,-0.0223934,,3,3.0
B2CPd2Sm,0.0,-0.0230984,,3,3.0
LiBr6Cs2Gd,3.4842,-0.027384,,3,3.0
Al3FeHf2,0.0,-0.0282467,,3,3.0
SiPd3Np2,0.0,-0.0540626,,3,3.0
LiO3AlNi,1.7026,-0.0098392,,3,3.0
Cl6CrCs2Au,0.8188,-0.0226138,,3,3.0
F5AlV,2.3539,-0.0095912,,3,3.0
P4Co2Ba,0.0,-0.0171748,,3,3.0
DyAu2,0.0,-0.0631044,,3,3.0
Li6N4Fe,0.4299,-0.0068956,,3,3.0
O6EuTa2,0.0,-0.0281392,,3,3.0
F6FeLa,1.8584,-0.0136104,,3,3.0
MnSb2Th6,0.0,-0.0746758,,3,3.0
ScYIn2,0.0,-0.0278433999999999,,3,3.0
PdAuPb2,0.0,-0.0634052,,3,3.0
CuTeTl,0.0,-0.0417484,,3,3.0
MgYAg4,0.0,-0.0266309,,3,3.0
O5MnCoYBa,0.0,-0.0174651,,3,3.0
As2PdHf,0.0,-0.0346598,,3,3.0
Be13Sr,0.0,-0.005678,,3,3.0
Sc3Sn3Ir2,0.0,-0.0374768,,3,3.0
Mg4Ag3,0.0,-0.0164771,,3,3.0
Al3Ca2,0.0,-0.0087777999999999,,3,3.0
O10S2KCu2,0.0831,-0.0092432,,3,3.0
Si3RuTh,0.0,-0.0328926,,3,3.0
CoRhPm2,0.0,-0.0351809,,3,3.0
O8P2GeSr,5.0226,-0.0119291,,3,3.0
SiTe3Cs,1.3008,-0.0324303,,3,3.0
ZnEr3Os2,0.0,-0.0518178,,3,3.0
Sb2Er6Au,0.0,-0.0503605,,3,3.0
P2Sc6Ru,0.0,-0.0165984,,3,3.0
CuY2Tl,0.0,-0.036262,,3,3.0
MgRu2Sm2,0.0,-0.0329799999999999,,3,3.0
PBr3Ba3,1.0505,-0.028809,,3,3.0
BeSiEu,0.0,-0.0231161,,3,3.0
Al4YCe,0.0,-0.0177375,,3,3.0
SiCaGa,0.0,-0.012504,,3,3.0
ZnAgTm2,0.0,-0.037558,,3,3.0
LiNi2As2Eu,0.0,-0.0222586,,3,3.0
NaGa4Pr,0.0,-0.0193372999999999,,3,3.0
GeCdPt,0.0,-0.0403076999999999,,3,3.0
Co3Tm2,0.0,-0.0313325,,3,3.0
C2ScTi,0.0,-0.0133301,,3,3.0
GeNb6Sn,0.0,-0.0320221,,3,3.0
AlOsPa,0.0,-0.0604172,,3,3.0
O6RhCdBa2,0.3075,-0.0198889,,3,3.0
F6KRhTl2,2.5282,-0.0229261,,3,3.0
Cl2NiSe,0.8841,-0.0135004,,3,3.0