formula,bg,formation_energy,mp-id,fidelity,bg_category
H6CoTb2,0.0,-0.015164,,3,3.0
AlPdHfIr,0.0,-0.0446542,,3,3.0
Ni2BaIr3,0.0,-0.0475736,,3,3.0
TaIrPt2,0.0,-0.0702244,,3,3.0
Mn2Co4GaGe,0.0,-0.0179965,,3,3.0
NAgTm2,0.0,-0.0372334,,3,3.0
SrSb2Pb,0.0,-0.0436259,,3,3.0
H4O2Cl2Sr,5.9174,-0.0088165999999999,,3,3.0
Ti2Ga4Zr,0.0,-0.0189455,,3,3.0
S4ZrTe,1.2162,-0.0186039,,3,3.0
CrTe2Th6,0.0,-0.0746721,,3,3.0
ScNd3,0.0,-0.0362058,,3,3.0
HPt2Tl,0.0576,-0.0539522,,3,3.0
CuGe3Dy,0.0,-0.0245071,,3,3.0
ClSr2Rh,0.0,-0.0226790999999999,,3,3.0
MgGaAu,0.0,-0.0307544,,3,3.0
O7NaAs2Nb,2.808,-0.0129091,,3,3.0
Mg2ZnTl,0.0,-0.0240641,,3,3.0
O4Sr2Ir,0.0,-0.0222572,,3,3.0
Si2SrPt2,0.0,-0.0376168,,3,3.0
Be7Cr6,0.0,-0.0109430999999999,,3,3.0
O6NiCuSm2,0.0,-0.0181803,,3,3.0
NaHg2Pb2,0.0,-0.0585313,,3,3.0
MgRh2,0.0,-0.0244796,,3,3.0
B2Ir3Pb,0.0,-0.0507207999999999,,3,3.0
H2Sm3,0.0,-0.0284607,,3,3.0
MgNd2Tl,0.0,-0.0415182,,3,3.0
CaScZn4,0.0,-0.0133402,,3,3.0
SiZn7,0.0,-0.0129492,,3,3.0
CoHo6Pb2,0.0,-0.0518628,,3,3.0
CoTm2,0.0,-0.0405636,,3,3.0
Ge4Pd3La2Ir,0.0,-0.0341867999999999,,3,3.0
B2O6K2Pu,0.0,-0.0189493,,3,3.0
Zn4CdIn,0.0,-0.0195425,,3,3.0
S2KBa,0.0,-0.0182768,,3,3.0
B2SmOs3,0.0,-0.0461974,,3,3.0
Sc2TcLa,0.0,-0.0267899999999999,,3,3.0
ScCu2Y,0.0,-0.0184383,,3,3.0
LiCuCd2,0.0,-0.0197617,,3,3.0
MnFeGaIr,0.0,-0.0312868,,3,3.0
NaSrBi,0.5301,-0.0358452,,3,3.0
SiY2Pt,0.0,-0.0351783,,3,3.0
ZnGaTb2,0.0,-0.0314097,,3,3.0
CdTbBi2,0.0,-0.0589888,,3,3.0
SiCu2Pa,0.0,-0.0352141,,3,3.0
LiF6CoCs2,2.6039,-0.0143762,,3,3.0
ZnPdHo2,0.0,-0.0367884,,3,3.0
PYTl2,0.0,-0.0463641,,3,3.0
GaRhAc2,0.0,-0.058268,,3,3.0
Na2KSr,0.0,-0.0096895,,3,3.0
Zn4Ba,0.0,-0.0189184,,3,3.0
MgSn2Os,0.0,-0.0372370999999999,,3,3.0
ONd4Bi2,0.0,-0.0497327,,3,3.0
ScPr3,0.0,-0.0360148999999999,,3,3.0
CI2Hf2,0.0,-0.0426705,,3,3.0
LiCaBr6Rb2,0.0,-0.0187493,,3,3.0
MgCd2Tb,0.0,-0.0285683,,3,3.0
Al5RuSm,0.0,-0.0174335999999999,,3,3.0
ZrTaOs,0.0,-0.0568230999999999,,3,3.0
NaPt5,0.0,-0.0593704,,3,3.0
Se8Mo6Sn,0.0,-0.0275709,,3,3.0
GeBr2Y2,0.1623,-0.024396,,3,3.0
Sb2ITl2,0.0,-0.0513812,,3,3.0
PdTb2Au,0.0,-0.0498758,,3,3.0
MgCo4Ce,0.0,-0.0198268999999999,,3,3.0
CNZrHf,0.0,-0.0297535,,3,3.0
Rh2Sn2La,0.0,-0.0373504999999999,,3,3.0
GeZrTm,0.0,-0.0346314,,3,3.0
P3Sc5,0.0,-0.0141088,,3,3.0
InPtU,0.0,-0.0695250999999999,,3,3.0
Al2YRu,0.0,-0.0202377,,3,3.0
S3K2Tb,0.0,-0.0169838,,3,3.0
Al3Si2Ho3Ir,0.0,-0.0300134,,3,3.0
P2NdIr2,0.0,-0.0423041,,3,3.0
O2SEr2,3.4106,-0.0281324,,3,3.0
AlTa2Au,0.0,-0.0529046,,3,3.0
GeBr2Zr2,0.0,-0.0250926,,3,3.0
Mn2Ge2Ba,0.0,-0.0232436,,3,3.0
AlZrPd,0.0,-0.0246565,,3,3.0
NaCaSn2,0.0,-0.0218581,,3,3.0
KBr3Eu,0.8724,-0.026135,,3,3.0
Si2CoPr,0.0,-0.0208599,,3,3.0
MnAg2I4,2.0586,-0.0330257999999999,,3,3.0
GaTe2Pu,0.0,-0.0507704,,3,3.0
Ga2Hf6Os,0.0,-0.0538693,,3,3.0
LiP2Rh2Nd,0.0,-0.0235366,,3,3.0
SiRu3Eu2,0.0,-0.037264,,3,3.0
Ge4Ir2Au,0.0,-0.0413767,,3,3.0
FeSn2Sm6,0.0,-0.0400586,,3,3.0
Mg2GeRu,0.0,-0.0163031,,3,3.0
Sc2ZrAu2,0.0,-0.0403316,,3,3.0
SAsPt,0.0,-0.033834,,3,3.0
OZnSmBi,0.2068,-0.037426,,3,3.0
In3Au5,0.0,-0.055851,,3,3.0
H3O3Tm,4.3975,-0.0136964,,3,3.0
Al3Si2Lu2,0.0,-0.022526,,3,3.0
AsTl2,0.0,-0.0549263,,3,3.0
Ni2Cu3Sr,0.0,-0.0166999,,3,3.0
H8Mg2MnPr,0.9562,-0.008715,,3,3.0
Ni2Nd3Tl3,0.0,-0.0479425,,3,3.0
H7N2O5PV,1.9756,-0.0077538,,3,3.0
LiSc2Fe,0.0,-0.0122924,,3,3.0
Rh2IrAu,0.0,-0.0519096,,3,3.0
NI2Dy2,0.0,-0.0372157,,3,3.0
AsPt2Tl,0.0,-0.0583421,,3,3.0
AlNbTc2,0.0,-0.028202,,3,3.0
H4YPt,0.0,-0.019208,,3,3.0
GeOs3U2,0.0,-0.0738656,,3,3.0
CrNi4Zr,0.0,-0.0193078,,3,3.0
AlBr6Rb3,4.0832,-0.0203013,,3,3.0
Mo2Sb3,0.0,-0.0363123999999999,,3,3.0
Ni2PdTb3,0.0,-0.0347994,,3,3.0
CuRuAc2,0.0,-0.0577869,,3,3.0
F4NaAs,5.5885,-0.0088633,,3,3.0
Ga3PdSn2Tb3,0.0,-0.0334516,,3,3.0
LiP2NdPt2,0.0,-0.0356772,,3,3.0
PdHoPt2,0.0,-0.0566551,,3,3.0
Li3Au5,0.0,-0.0445485,,3,3.0
NaGa,0.0,-0.0103913,,3,3.0
MgAsY2,0.0,-0.0210075,,3,3.0
CuGaPr,0.0,-0.0254807999999999,,3,3.0
N3O6CdTl,2.3817,-0.0157526,,3,3.0
O6K2TeHf,2.9771,-0.0177194,,3,3.0
AlSi2Th2,0.0,-0.0445146,,3,3.0
PNiTb2,0.0,-0.0310404,,3,3.0
F6K2Sm,0.0,-0.012424,,3,3.0
SiMnTe4Tl2,0.4081,-0.0405645,,3,3.0
ZnInPr,0.0,-0.0306644,,3,3.0
Mg2CoZn,0.0,-0.0101536,,3,3.0
Zn2Lu,0.0,-0.0279373,,3,3.0
O9Ca4Tl3,0.0,-0.0214212999999999,,3,3.0
Ni2Zn2Ga,0.0,-0.0153789,,3,3.0
ZnGaEu,0.0,-0.0283388,,3,3.0
Pd8La,0.0,-0.0342672,,3,3.0
B2Ce3Pt7,0.0,-0.0543469,,3,3.0
SiFeHo,0.0,-0.0262885,,3,3.0
O6CoBa2Ho,0.0,-0.0208337,,3,3.0
Y5Ce,0.0,-0.03057,,3,3.0
Se2RbTl,0.773,-0.0340407999999999,,3,3.0
SiAs3Hf2,0.0,-0.0334288,,3,3.0
SmTbAu2,0.0,-0.0584364,,3,3.0
Li2MgAl,0.0,-0.0044912,,3,3.0
O5Na5Bi,1.3452,-0.0133674,,3,3.0
LiFeInIr,0.0,-0.0315282,,3,3.0
H2BeSr2,0.0,-0.0111753,,3,3.0
TiSe4Pd3,0.0,-0.0249035,,3,3.0
MgBa2Au2,0.0,-0.0451673,,3,3.0
Mg2P2Gd,0.0,-0.0189615,,3,3.0
GeRhPr,0.0,-0.0330493,,3,3.0
N2GdDy,0.0,-0.0331912,,3,3.0
Ni4NbCd,0.0,-0.0214897,,3,3.0
B4O7Ni,2.1166,-0.0098499,,3,3.0
Li2O2FRu,0.0,-0.0112822999999999,,3,3.0
Ni4ZrAg,0.0,-0.0214632,,3,3.0
Ag2InTb2,0.0,-0.0384078,,3,3.0
ZnGaHf,0.0,-0.031333,,3,3.0
CuInPm2,0.0,-0.0345067,,3,3.0
RhGdTl5,0.0,-0.0651252,,3,3.0
CoTa2Re,0.0,-0.0557709,,3,3.0
Sc2YTc,0.0,-0.0229702,,3,3.0
CrSeSb,0.8351,-0.025661,,3,3.0
Rh5Pt,0.0,-0.0398552,,3,3.0
Si2ZnTh,0.0,-0.0327027,,3,3.0
O2CsSm,3.3562,-0.0265239,,3,3.0
NFIn2Sm6,0.0,-0.0358973999999999,,3,3.0
SiZrGd,0.0,-0.0338257,,3,3.0
B16Co5,0.0,-0.0099116999999999,,3,3.0
Li2O7Nb2Eu,0.0,-0.0168573,,3,3.0
O10Ti3ZnLa2,2.494,-0.0164364,,3,3.0
Al2CoPu,0.0,-0.0360239,,3,3.0
MgAl2Nd2,0.0,-0.0218160999999999,,3,3.0
Cd3Nd,0.0,-0.0340885,,3,3.0
Si6Sc4Ir7,0.0,-0.0373608,,3,3.0
AlTiIr,0.0,-0.0327014,,3,3.0
S4Ba2Ce,1.3492,-0.025365,,3,3.0
F6CrZr,1.0508,-0.0122675,,3,3.0
NEuIr,0.0,-0.0454964,,3,3.0
B2Co2Ba,0.0,-0.0180004,,3,3.0
MgCaGa,0.0,-0.0107208,,3,3.0
Rh2SmIr3,0.0,-0.0546291999999999,,3,3.0
O6Ba2TmTa,3.9,-0.0269939,,3,3.0
CaPmHg2,0.0,-0.0482506,,3,3.0
GaCdBi,0.0,-0.0416169,,3,3.0
NSbEu3,0.0,-0.0427354,,3,3.0
OF5MnCs2Tl,1.9575,-0.0215989,,3,3.0
Li2O4MnNi,0.0,-0.0100546,,3,3.0
TmOs2,0.0,-0.0656611,,3,3.0
TeAuHg2,0.0,-0.0607147,,3,3.0
Li2Cu3Ge,0.0,-0.011784,,3,3.0
I3AuTl,0.0,-0.0506146,,3,3.0
CSi2Ru2Sm2,0.0,-0.0277836,,3,3.0
O6KIAu,0.6003,-0.0173813999999999,,3,3.0
H4EuIr,0.0,-0.0236468,,3,3.0
PTe3Tm4,0.0,-0.0425948,,3,3.0
GeHfOs,0.0,-0.0519478,,3,3.0
H8N2F6NaAl,7.5468,-0.0062494,,3,3.0
BeNiPt2,0.0,-0.040798,,3,3.0
NaK2Br6Mo,2.152,-0.0186366,,3,3.0
BePtAu2,0.0,-0.053581,,3,3.0
H3CN4ONa,4.9665,-0.0072153,,3,3.0
Pr3Pt,0.0,-0.0507431,,3,3.0
MgRu2Ce3,0.0,-0.0349328,,3,3.0
Li2N2Eu,0.0,-0.0160273,,3,3.0
Y3Cd2,0.0,-0.0292314,,3,3.0
MgSSc3,0.0,-0.0122531999999999,,3,3.0
ScSrBi,0.0,-0.0391214,,3,3.0
Br2AgCs,2.3665,-0.028236,,3,3.0
O4STl,2.4911,-0.0191729,,3,3.0
ZnLu2Pt,0.0,-0.0496445,,3,3.0
OZrI2Cs,0.0,-0.031402,,3,3.0
SbNdDy,0.0,-0.0438251,,3,3.0
MoRh4,0.0,-0.0341365,,3,3.0
Co2Ho2Tl,0.0,-0.0413167,,3,3.0
As2IPt2,0.0,-0.0437806,,3,3.0
HY2I2,0.0,-0.0276429,,3,3.0
Li2O15Si6Fe,1.691,-0.010042,,3,3.0
P12Fe4Th,0.867,-0.0178843,,3,3.0
SrAg4Pb,0.1673,-0.0374997,,3,3.0
ZnTm2Ir,0.0,-0.0479116,,3,3.0
SiCo2Mo,0.0,-0.0201179999999999,,3,3.0
O6AsBa2Lu,3.5635,-0.0220885,,3,3.0
FCl2Tb,5.4093,-0.0197336,,3,3.0
Sc4Rh2Tl5,0.0,-0.0447857,,3,3.0
GeAgEu,0.0,-0.0352284,,3,3.0
Cu2SnLa,0.0,-0.0277868,,3,3.0
Mg2KPb2,0.0,-0.0342767,,3,3.0
Cu3NbTe4,0.9832,-0.0287846,,3,3.0
N2Ba3,0.0,-0.0279471,,3,3.0
Li3O6Fe2Bi,0.1683,-0.0148378,,3,3.0
ZnRhEr2,0.0,-0.0377386,,3,3.0
Li3O3F5V3,0.0,-0.0097171,,3,3.0
AsAgBa2,0.4076,-0.0334715,,3,3.0
Ca2BaTl,0.0,-0.0331315,,3,3.0
Na2KAu,0.0,-0.0216521,,3,3.0
Cd2AuHg,0.0,-0.0496449,,3,3.0
YRhHg2,0.0,-0.0500278,,3,3.0
CaPd2Pb,0.0,-0.0383557,,3,3.0
LiSCs,2.9098,-0.0179875,,3,3.0
Al3RhCe2,0.0,-0.0251091,,3,3.0
O4Cu2As2Te2Ho,0.0,-0.021321,,3,3.0
Ga2Ge2Tm,0.0,-0.0248976,,3,3.0
TbIr,0.0,-0.0598832,,3,3.0
NCo3Ag,0.0,-0.0184243999999999,,3,3.0
CdInGd,0.0,-0.0414167,,3,3.0
Sc2Pd2Hg,0.0,-0.033304,,3,3.0
MnZn5,0.0,-0.0144006,,3,3.0
Al2GeTe,1.2627,-0.0181969,,3,3.0
CoYLa,0.0,-0.029368,,3,3.0
B2O6ZrSn,3.764,-0.0145348,,3,3.0
Se3Mo3Cs,0.0,-0.0297936,,3,3.0
SiRh2Pa,0.0,-0.0452623,,3,3.0
P2Mn,0.0,-0.0134839,,3,3.0
Ni3Ga2Nd,0.0,-0.0213536,,3,3.0
AgAc,0.0,-0.0612135,,3,3.0
ScCuAu,0.0,-0.0335732,,3,3.0
F2Ge,4.4144,-0.0108229,,3,3.0
Al3Si2ZnCe3,0.0,-0.0216925,,3,3.0
ScPb8,0.0,-0.0690169,,3,3.0
MgFe2Dy2,0.0,-0.0273583,,3,3.0
SiCrSe3,1.3817,-0.0184136,,3,3.0
C3Cr2Ho2,0.0,-0.0239814,,3,3.0
H2TiNi2,0.0,-0.0113298,,3,3.0
CoRuHo2,0.0,-0.0378827,,3,3.0
CoW2Os,0.0,-0.0570359,,3,3.0
O4LuTa,4.4282,-0.0280603,,3,3.0
Ag3La4,0.0,-0.0382423,,3,3.0
SiCl2Nd2,0.0048,-0.0243729,,3,3.0
AlGaSe3,2.1915,-0.0176615,,3,3.0
LiO3K2Fe,1.0197,-0.0097082,,3,3.0
CdBa3,0.0,-0.0374583999999999,,3,3.0
Ni3Pd2Nd,0.0,-0.0266411,,3,3.0
OF5KNbCs2,1.6543,-0.0171243,,3,3.0
NaAu,0.0,-0.0371079999999999,,3,3.0
NiZn2Pt,0.0,-0.0288044,,3,3.0
KCu3Te2,0.3604,-0.0217315,,3,3.0
BeCr2Mn,0.0,-0.0150053,,3,3.0
CuY6Te2,0.0,-0.0292707,,3,3.0
OAlSm3,0.0,-0.0309437,,3,3.0
VSe3Cs,0.0,-0.0240971,,3,3.0
Sn4Sb3,0.0,-0.0364793999999999,,3,3.0
Nb2PtAu,0.0,-0.0518985,,3,3.0
Cl3CdIn,2.5444,-0.0186124,,3,3.0
Cu2Y2Ag,0.0,-0.0237976,,3,3.0
TiTcHf2,0.0,-0.044377,,3,3.0
Rb2I6Ho,0.0,-0.0358806999999999,,3,3.0
Fe2Ga5Hf,0.0,-0.0227799,,3,3.0
Zn2Pd3Tb,0.0,-0.0293815999999999,,3,3.0
KGa4La,0.0,-0.019933,,3,3.0
LiSiEu,0.0,-0.0223759,,3,3.0
KRb2Sb2,0.0,-0.025287,,3,3.0
AsBrHg2,0.0,-0.0441589,,3,3.0
Zn2LaAu2,0.0,-0.0423592999999999,,3,3.0
MnZn2Ag,0.0,-0.0192544,,3,3.0
O10Sr2CsTa3,2.3904,-0.0247006,,3,3.0
Na2CaSr,0.0,-0.0100324,,3,3.0
LiCuZn,0.0,-0.0105122,,3,3.0
EuErHg2,0.0,-0.0607614,,3,3.0
MgSc2Se,0.0,-0.0142173,,3,3.0
LiBO4Ge,5.3484,-0.009965,,3,3.0
RhSnTh,0.0,-0.0562096,,3,3.0
O8GaSe2Cs,3.3561,-0.0132676,,3,3.0
O2RbLu,4.4086,-0.0252141,,3,3.0
Cd2Sm,0.0,-0.0355223999999999,,3,3.0
S3CaNiEr,0.0,-0.0193133,,3,3.0
Nd2AuTl,0.0,-0.0579275999999999,,3,3.0
Br2Eu,1.4515,-0.0330865999999999,,3,3.0
H4MnRu3,0.0,-0.0170406,,3,3.0
KAsRb2,0.299,-0.0179069,,3,3.0
CuInHf,0.0,-0.0373397,,3,3.0
AlFeRhHf,0.44,-0.0314303,,3,3.0
Ni5AsSn,0.0,-0.019765,,3,3.0
Ni2SnBa,0.0,-0.0272495,,3,3.0
P2KAu,0.4946,-0.0250005999999999,,3,3.0
ScSnIr,0.0,-0.0413667999999999,,3,3.0
Na2InAu,0.0,-0.0280867,,3,3.0
P3Ir,0.4545,-0.0263527,,3,3.0
GaCdTb2,0.0,-0.0356162,,3,3.0
MgAgHo,0.0,-0.0287843,,3,3.0
H3GdIr,0.0,-0.0287551,,3,3.0
F6CrTm,3.6922,-0.0151971,,3,3.0
Al2HoOs,0.0,-0.0347188,,3,3.0
Ca2CuPd,0.0,-0.0171948,,3,3.0
Ru2SnNp,0.0,-0.053229,,3,3.0
Cu3Se4Hf,0.0,-0.0241727,,3,3.0
MgKI3,3.2763,-0.0260015,,3,3.0
Cl6InCs3,4.6342,-0.0213287,,3,3.0
O6CaSnHo2,4.4458,-0.0212086,,3,3.0
CuGa3Dy2,0.0,-0.0273479999999999,,3,3.0
CoRh2Pt,0.0,-0.0388504999999999,,3,3.0
PMn3,0.0,-0.0166768,,3,3.0
Cl3GeY3,0.0,-0.0198598,,3,3.0
GeZrPr,0.0,-0.0317679,,3,3.0
H2Mg2Sb,0.0,-0.0110688,,3,3.0
LiInIr,0.0,-0.0359534,,3,3.0
Pr6OsBi2,0.0,-0.0549209,,3,3.0
H3OCl,6.0722,-0.0058276,,3,3.0
KTe2Au3,0.729,-0.0487915,,3,3.0
O3RhTl,0.0,-0.0258075,,3,3.0
TiSbTe,0.0,-0.0307459,,3,3.0
Li3As2Ce,0.0,-0.0164307,,3,3.0
O6TiSr2W,0.0,-0.019791,,3,3.0
Li4F8V,0.8852,-0.0073413,,3,3.0
Cu2InSm,0.0,-0.0274308,,3,3.0
CoAsHo2,0.0,-0.0346567,,3,3.0
Be5Ho,0.0,-0.0119144,,3,3.0
O2PdBa,1.1277,-0.0230002,,3,3.0
AlSmAu2,0.0,-0.0486054,,3,3.0
O2Rb3Pt,0.2718,-0.025224,,3,3.0
K2Se2Cd,2.2983,-0.0186004,,3,3.0
Co3Zn2La,0.0,-0.0204498,,3,3.0
Li8S6Bi,0.0,-0.0115492,,3,3.0
SeIBi,1.429,-0.0455043,,3,3.0
NaS2Gd,2.1806,-0.0226372,,3,3.0
TiBr4Cs2,0.0,-0.0259106,,3,3.0
H6Ni5La,0.0,-0.0122964,,3,3.0
NTi3Rh,0.0,-0.0195012,,3,3.0
SnHg2Pb,0.0,-0.0618913,,3,3.0
Mg2P2Np,0.0,-0.0281744999999999,,3,3.0
TbLu,0.0,-0.0510406,,3,3.0
CCl5Th4,0.0,-0.0449557,,3,3.0
RhEr2,0.0,-0.0456428,,3,3.0
LiNa2Au3,0.0,-0.0369117,,3,3.0
O6AlBa2Er,0.0,-0.0204064,,3,3.0
NCl2Tb2,0.0,-0.0259694,,3,3.0
BeAu2,0.0,-0.0478113,,3,3.0
H4ZnNd,0.0,-0.0121396,,3,3.0
Si2Pd2Np,0.0,-0.0390328,,3,3.0
MgGaTm,0.0,-0.024921,,3,3.0
Ni2RuPt,0.0,-0.0343269999999999,,3,3.0
P4Mn,0.752,-0.0123777,,3,3.0
Cu4Zr,0.0,-0.018418,,3,3.0
SnEu2,0.0,-0.0483838,,3,3.0
B6Dy,0.0,-0.0136514,,3,3.0
Ca3NiGe2In3,0.0,-0.0209467999999999,,3,3.0
Mg2CaTl2,0.0,-0.0332228,,3,3.0
ZnAgGd2,0.0,-0.0409679,,3,3.0
MnNbIr2,0.0,-0.0490135,,3,3.0
HgTl7,0.0,-0.0718079,,3,3.0
N2LaTa,0.0,-0.0334486,,3,3.0
Al2Ge2Eu,0.0,-0.0219562,,3,3.0
CaI4Ce,0.0,-0.0350952,,3,3.0
NZr,0.0,-0.0219796,,3,3.0
Si4Mn4Hf3,0.0,-0.0280424,,3,3.0
MgSi2Pr,0.0,-0.0176437,,3,3.0
RbCs2Bi,0.1299,-0.0441696,,3,3.0
CuAg2,0.0,-0.0259001,,3,3.0
NaClRb3,0.0,-0.0157025,,3,3.0
O3Sr2Pt,0.8627,-0.0245243,,3,3.0
SrAgTl2,0.0,-0.0499342,,3,3.0
H6VBa2,1.3283,-0.0136108,,3,3.0
LiCo4Zr,0.0,-0.0171512999999999,,3,3.0
S4ZrTa,0.0,-0.0240281,,3,3.0
F6RhBa,0.0,-0.0145169999999999,,3,3.0
O8Mg2Sn3,2.949,-0.0149824,,3,3.0
Y3Cd5,0.0,-0.0298674,,3,3.0
Al4ScRh,0.0,-0.0138973,,3,3.0
CoPd5Te,0.0,-0.0313878,,3,3.0
BRu3Dy,0.0,-0.032298,,3,3.0
Mg2MoTc,0.0,-0.0199442999999999,,3,3.0
GeRh2Lu,0.0,-0.0364658,,3,3.0
As2AgLu,0.0,-0.0325527,,3,3.0
RbIn2Sn2,0.0,-0.0321207,,3,3.0
Ti2Ni2Zn,0.0,-0.0160249999999999,,3,3.0
CoNi2Ce,0.0,-0.0237059,,3,3.0
O8S2RbPb,0.3111,-0.0154072999999999,,3,3.0
O5Cu2BaLa,0.0,-0.0181124,,3,3.0
FeMoTc,0.0,-0.0293392,,3,3.0
Sc3Mo4,0.0,-0.0260248,,3,3.0
Rb2CdAu,0.0,-0.0353947,,3,3.0
MgAsIr,0.0,-0.0326430999999999,,3,3.0
PGeRb,0.9245,-0.017057,,3,3.0
Cl6CuRb2Eu,0.0,-0.0177231,,3,3.0
Co2GaPr,0.0,-0.02377,,3,3.0
Cl2Ag2TeHg,1.1962,-0.0311025999999999,,3,3.0
Al2ITb2,0.0,-0.0298758,,3,3.0
MnCo4Tb,0.0,-0.0225082,,3,3.0
NiZr2Au,0.0,-0.0373039,,3,3.0
Cu4InTm,0.0,-0.024678,,3,3.0
CdEr3Pt2,0.0,-0.0547869,,3,3.0
O8KAs2Nb,2.5293,-0.0128392,,3,3.0
NaNi2As2Lu,0.0,-0.0227565,,3,3.0
CCo3In,0.0,-0.0189554,,3,3.0
O2KPt,0.0,-0.0238268999999999,,3,3.0
AsPd5Sm,0.0,-0.0333849,,3,3.0
H10O8AlCa2Br,4.9372,-0.0077178,,3,3.0
Dy3Os,0.0,-0.0541639,,3,3.0
MgFe4Y,0.0,-0.0175206,,3,3.0
CaGa2La,0.0,-0.0219508,,3,3.0
CoTe2Nd6,0.0,-0.0399632999999999,,3,3.0
B2O6ScEu,0.0,-0.0151385,,3,3.0
F4MnSr,3.3339,-0.0126285,,3,3.0
O6CuSr2Te,1.0047,-0.0154985,,3,3.0
Sc3CrGa3Ge2,0.0,-0.0171237999999999,,3,3.0
Al2CuNd,0.0,-0.0190602,,3,3.0
SnLuTa,0.0,-0.0530447,,3,3.0
AlAu8,0.0,-0.0624722999999999,,3,3.0
Co2As2Np,0.0,-0.0368321,,3,3.0
H3OsU,0.0,-0.0373011,,3,3.0
MgS2KAg,2.8367,-0.0139201,,3,3.0
O8As2Sr3,4.6903,-0.0146072,,3,3.0
Al3Lu2Ir,0.0,-0.0350808,,3,3.0
Co2Ga2Sm,0.0,-0.0226952999999999,,3,3.0
LiYRh2Sb2,0.0,-0.0295993,,3,3.0
NaCl6Cs2Hf,0.0,-0.0211036,,3,3.0
CrAsSe3,0.2299,-0.0200878,,3,3.0
O6Ca2SbNd,4.4154,-0.016607,,3,3.0
Au8U,0.0,-0.0730207,,3,3.0
OCa3Sn,0.0153,-0.0160166,,3,3.0
Ag2In,0.0,-0.0320653999999999,,3,3.0
AuPb2,0.0,-0.0736501,,3,3.0
MgPd2In,0.0,-0.0266837,,3,3.0
CoSb2Tm,0.0,-0.0365125,,3,3.0
GaAu2Pb2,0.0,-0.0612687,,3,3.0
MnCo4Pr,0.0,-0.0217715,,3,3.0
CoHf2Bi,0.0,-0.0555867,,3,3.0
ZnTbTl,0.0,-0.0446906,,3,3.0
MgAu5,0.0,-0.0587909999999999,,3,3.0
Sc2MoRe,0.0,-0.033731,,3,3.0
NY3Pb,0.0,-0.0349356,,3,3.0
CuYI6Cs2,2.2867,-0.0352145,,3,3.0
MgPm2,0.0,-0.0310612,,3,3.0
MgSePd5,0.0,-0.0274449,,3,3.0
H2BeTi2,0.0,-0.0089844,,3,3.0
O8Mn5,0.0,-0.0129959,,3,3.0
H4SrRu,1.2543,-0.0122978,,3,3.0
FeNbSn,0.0,-0.0292069,,3,3.0
HO2Ga,4.0598,-0.0097645,,3,3.0
BAl2Ir6,0.0,-0.0504635,,3,3.0
F6FePb2,0.8366,-0.0235987,,3,3.0
CoGa,0.0,-0.01702,,3,3.0
Li5SAs,1.6633,-0.0070267,,3,3.0
Ca2ZnPb,0.0,-0.0277408,,3,3.0
ClGaHo,0.0,-0.0259655,,3,3.0
Li2EuTl,0.0,-0.0330367,,3,3.0
O2AgBa,0.0,-0.0224598,,3,3.0
CoGeZr4,0.0,-0.0270093,,3,3.0
Ni4RbBi2,0.0,-0.0346763,,3,3.0
BNRuGd,0.0,-0.0286814,,3,3.0
Ti2FeCu,0.0,-0.0165646999999999,,3,3.0
HOBrHg,0.6515,-0.0249175,,3,3.0
TeHg2,0.1454,-0.0579007999999999,,3,3.0
CaIn5,0.0,-0.0296932,,3,3.0
LiN2Fe,0.0,-0.0099729,,3,3.0
Fe4MoW,0.0,-0.0293928,,3,3.0
Zr3Pt2Tl3,0.0,-0.0568482,,3,3.0
CuIn3,0.0,-0.0287783,,3,3.0
CoIr5,0.0,-0.0621159,,3,3.0
Al5PdEr,0.0,-0.0179545999999999,,3,3.0
CaI4Dy,0.0,-0.0355567,,3,3.0
O7Zr2Cs2Ba,0.0,-0.0210826,,3,3.0
P4Cu2Zn2Dy3,0.0,-0.0229862,,3,3.0
Ni2As2Np,0.0,-0.0363951,,3,3.0
RbTe2Sm,1.5024,-0.0365073999999999,,3,3.0
RhPrTl2,0.0,-0.0559137,,3,3.0
FeAsZr2,0.0,-0.0256192999999999,,3,3.0
ZnRhLa,0.0,-0.0308402999999999,,3,3.0
O6FeCuBa2,0.0,-0.0168345999999999,,3,3.0
TbLuHg2,0.0,-0.060307,,3,3.0
O6AlCoPr2,2.3289,-0.0180384,,3,3.0
H8MnFe2Ba,0.0,-0.0102738999999999,,3,3.0
Ni4Ga2Tb3,0.0,-0.0270186,,3,3.0
SrHf2Pt2,0.0,-0.0586886,,3,3.0
Si3Zn6Tm2,0.0,-0.0198952,,3,3.0
CuCd2La,0.0,-0.0300208,,3,3.0
IrPt4,0.0,-0.0702938,,3,3.0
NiHo,0.0,-0.0330608,,3,3.0
H12O6F6SiZn,5.5005,-0.0064463,,3,3.0
S2TiSb,0.0,-0.0191531,,3,3.0
HNa2I,4.5698,-0.0129345,,3,3.0
HNEu2,0.0,-0.0309826,,3,3.0
PNb2,0.0,-0.0263888,,3,3.0
Ga5SrPd2,0.0,-0.0217988,,3,3.0
F5K2Ga,6.53,-0.0093129,,3,3.0
Al2Zn4Nd3,0.0,-0.0226701,,3,3.0
Y3Ag,0.0,-0.0288888,,3,3.0
FeSbU,0.0,-0.0530677,,3,3.0
SiBaAu2,0.0,-0.047644,,3,3.0
FeRb2SnTe4,0.5558,-0.0311573,,3,3.0
Ca3Ga3Ge2Au,0.0,-0.0212852,,3,3.0
PSc2Ni,0.0,-0.0148744999999999,,3,3.0
CTi3Zn,0.0,-0.0149204,,3,3.0
Si2Ni3Er,0.0,-0.0205832,,3,3.0
MnBrZr,0.0,-0.0236213,,3,3.0
PAu2Ac,0.0,-0.0604616,,3,3.0
CuSb2Sm6,0.0,-0.0402297,,3,3.0
CaNiSe3Tm,0.0,-0.0245704,,3,3.0
Sc6RhPb2,0.0,-0.0307434,,3,3.0
Sc2CoCd,0.0,-0.0194771,,3,3.0
HoTl2Ac,0.0,-0.0715395,,3,3.0
Ge2RhPa,0.0,-0.0435719,,3,3.0
Rh7In3,0.0,-0.0338331,,3,3.0
TiAsPd5,0.0,-0.029192,,3,3.0
B2Zr2Os,0.0,-0.03048,,3,3.0
SbCe2,0.0,-0.0429643,,3,3.0
Al3RhLa2,0.0,-0.024597,,3,3.0
Co2GaLa,0.0,-0.0237871,,3,3.0
Er3Ir2Pt,0.0,-0.0617858,,3,3.0
F6CoPa,0.0,-0.0205146,,3,3.0
FeCo2Nd2,0.0,-0.0279298,,3,3.0
Li2GeRh,0.0,-0.014997,,3,3.0
Zn2AsY,0.0,-0.0193770999999999,,3,3.0
HFeCo,0.0,-0.0129401,,3,3.0
LiCu2As2Tm,0.0,-0.0216001,,3,3.0
GeRh2Tb,0.0,-0.0342571,,3,3.0
Sb2Ho6Pt,0.0,-0.049694,,3,3.0
CoGa3La2,0.0,-0.0259732999999999,,3,3.0
P12Co4Pr,0.0,-0.0144989,,3,3.0
CGe2Rh2Sm2,0.0,-0.0300886,,3,3.0
Rh2SnSm,0.0,-0.0377546,,3,3.0
Si2Ba3,0.0,-0.0280793,,3,3.0
Sc3Fe2Cd,0.0,-0.0183633,,3,3.0
O4Co3,1.3331,-0.0124736,,3,3.0
O4AsPb,0.0,-0.0213363,,3,3.0
SPd5Tl,0.0,-0.0353599,,3,3.0
S3NiSrPr,0.0,-0.0202434,,3,3.0
Pd5Ac,0.0,-0.0430063,,3,3.0
Cu2Nb,0.0,-0.0212031,,3,3.0
SrRhSb,0.0,-0.0319725,,3,3.0
O4ClSb2Ce,0.0,-0.0211007,,3,3.0
BPd4Ce,0.0,-0.0311671,,3,3.0
CoAs2Dy6,0.0,-0.0389978,,3,3.0
F6CuRb2In,0.0,-0.0136491,,3,3.0
SiS4Zn2,3.5583,-0.0116519,,3,3.0
Ge2HoPt,0.0,-0.0403054,,3,3.0
O6AlBa2Eu,0.0,-0.0204986999999999,,3,3.0
N2PRb,3.9178,-0.0131583,,3,3.0
MgK2Ge,0.1679,-0.0103124,,3,3.0
CuGa5Dy,0.0,-0.0210641,,3,3.0
SbTeTb,0.0,-0.0416423,,3,3.0
CuYCd,0.0,-0.0248766999999999,,3,3.0
O8Ti2CoLa2,0.9308,-0.017446,,3,3.0
Mn2GaEr,0.0,-0.0261932,,3,3.0
Si2ZnZr2,0.0,-0.0197231,,3,3.0
Al3RhIn2Tb3,0.0,-0.030118,,3,3.0
AlCuY2,0.0,-0.0199978,,3,3.0
BC2U2,0.0,-0.047212,,3,3.0
Al9Ni2Sr,0.0,-0.0107789,,3,3.0
O5FNb4Cs,0.0,-0.0210729,,3,3.0
AlMn2Nb,0.0,-0.0196648,,3,3.0
Mg2Cu2La,0.0,-0.016879,,3,3.0
MnPt,0.0,-0.0450336,,3,3.0
Al10Fe2Er,0.0,-0.0129599,,3,3.0
Ga4Sr3Pd4,0.0,-0.0247174,,3,3.0
Ge3PdTb,0.0,-0.0280394,,3,3.0
NFe6Ge2,0.0,-0.0174264,,3,3.0
O3TcEu,0.0,-0.0238261,,3,3.0
MgCuPb,0.0,-0.0321216,,3,3.0
LiIn2Tm,0.0,-0.0307564,,3,3.0
Mg6Ge3Ba2,0.0,-0.0154777,,3,3.0
O3FSeLu,3.9944,-0.018918,,3,3.0
O4TaPb,0.0,-0.0300437,,3,3.0
Mn4ZrTc,0.0,-0.0231104,,3,3.0
Si2Co2Ce,0.0,-0.0205337999999999,,3,3.0
LiKNiSe2,0.0,-0.0143198,,3,3.0
Mg2NdPt,0.0,-0.0317779,,3,3.0
Rh3Pd2Pr,0.0,-0.0354480999999999,,3,3.0
Cr2NiOs,0.0,-0.0311988,,3,3.0
SiFeTa4,0.0,-0.0493682,,3,3.0
CuSr2Au,0.0,-0.0327453999999999,,3,3.0
AlGdAu2,0.0,-0.0521651,,3,3.0
O7Ge2Sm2,4.5139,-0.0182983,,3,3.0
SCu2Te,0.0,-0.0194752,,3,3.0
OSe2Sb2,0.8376,-0.0247865,,3,3.0
Y2TlPb,0.0,-0.0516929999999999,,3,3.0
OFNp,0.0,-0.0421186,,3,3.0
OZnLaBi,0.0,-0.037186,,3,3.0
Li2SiRh,0.0,-0.0127291,,3,3.0
Ge2PdHo,0.0,-0.0307973,,3,3.0
CdInHg,0.0,-0.0440133,,3,3.0
PV,0.0035,-0.0148195,,3,3.0
InOs2Th2,0.0,-0.0741135,,3,3.0
H3RuTm,0.0,-0.0199924,,3,3.0
Al2BaAu3,0.0,-0.0445119,,3,3.0
SbAu2Pb,0.0,-0.0629474,,3,3.0
LiP2Rh2Lu,0.0,-0.0254554,,3,3.0
Rh2HoBi,0.0,-0.0493648999999999,,3,3.0
HMnNi,0.0,-0.0127825,,3,3.0
Be5Au,0.0,-0.0153846,,3,3.0
CoGa6Th,0.0,-0.0268083,,3,3.0
Ni2SnLu2,0.0,-0.0364827,,3,3.0
MnBr4Rb2,1.8833,-0.0213083999999999,,3,3.0
C2AlTi3,0.0,-0.0135426,,3,3.0
MnFe2Y2,0.0,-0.0219235,,3,3.0
O3ScFeAsBa2,0.0,-0.0212439,,3,3.0
RbInI2,2.7232,-0.0329091,,3,3.0
BePNi,0.0,-0.0106509,,3,3.0
F6K3Dy,7.0299,-0.0129306,,3,3.0
NiMo2Os,0.0,-0.0394766,,3,3.0
NaAl4,0.0,-0.0070258,,3,3.0
Li2Ag,0.0,-0.0122280999999999,,3,3.0
Li2As2Lu,0.0,-0.0210802,,3,3.0
Mg3CuBa,0.0,-0.0139826,,3,3.0
AlLa2Pt,0.0,-0.0419452,,3,3.0
Si4Ca3Ru4,0.0,-0.0196507,,3,3.0