formula,bg,formation_energy,mp-id,fidelity,bg_category
O3CuEu,0.0,-0.0193794,,3,3.0
BTmPt4,0.0,-0.0575544999999999,,3,3.0
MnTe2La6,0.0,-0.0397734999999999,,3,3.0
YCd2La,0.0,-0.0334007999999999,,3,3.0
MgCa2Sn2,0.0,-0.0198281999999999,,3,3.0
Sc2CuSb,0.0,-0.0208868,,3,3.0
CPr2,0.0,-0.0323921,,3,3.0
Sb2BaPb2,0.0923,-0.0536578,,3,3.0
Rb5Bi4,0.0,-0.0468709,,3,3.0
Li3As,1.0661,-0.0076399,,3,3.0
RhHf2,0.0,-0.0537847,,3,3.0
H3CoGd,0.0,-0.0177516,,3,3.0
N3BrRb2,4.4788,-0.0155915999999999,,3,3.0
NaCu2,0.0,-0.0114171,,3,3.0
CdInPb2,0.0,-0.0537886,,3,3.0
GaBa2,0.0,-0.0321139,,3,3.0
O6Ca2AsBi,3.5116,-0.0178201,,3,3.0
Cl2GeBa3,0.0,-0.0273069,,3,3.0
P2Ti,0.0,-0.0131438,,3,3.0
H6Zn2Os,2.3405,-0.0132494999999999,,3,3.0
KBr3Sr,4.5446,-0.0199147,,3,3.0
BMgPd3,0.0,-0.0226479,,3,3.0
AlZn2Os,0.0,-0.0269366999999999,,3,3.0
AsBr6Rb2Cs,3.2225,-0.0229191,,3,3.0
ZnPd2Pu2,0.0,-0.0600824,,3,3.0
Li2Cd2Sn2Ba,0.0,-0.0257642999999999,,3,3.0
CoNi2Sr,0.0,-0.0179914999999999,,3,3.0
Si2CeIr2,0.0,-0.0425739,,3,3.0
NaNi2As2Pr,0.0,-0.0207406,,3,3.0
NGaLa3,0.0,-0.0319695,,3,3.0
RuNd3,0.0,-0.0416044,,3,3.0
Si2Zn2Ba,0.0,-0.0176171,,3,3.0
OGe,1.2469,-0.0138215,,3,3.0
CaGa2Pd,0.0,-0.0195347,,3,3.0
AlOs2Th2,0.0,-0.0692093,,3,3.0
Cl6CaAg3,0.0,-0.0162772,,3,3.0
Sc3FeNi2,0.0,-0.0158856,,3,3.0
O7P2Eu2,0.3772,-0.0185608,,3,3.0
Na2Cd2Hg,0.0,-0.027618,,3,3.0
Pd2LuTh,0.0,-0.0550352,,3,3.0
Ca2CuLa,0.0,-0.0194414,,3,3.0
Co2SnPa2,0.0,-0.0543564999999999,,3,3.0
PRe3,0.0,-0.0560329,,3,3.0
As2SrTc2,0.0,-0.0271181,,3,3.0
O6CaSr2Rh,0.0,-0.014754,,3,3.0
Mg2ZrCd,0.0,-0.0178862999999999,,3,3.0
Fe4Ga4Nd3,0.0,-0.0247746,,3,3.0
MgAg2Th2,0.0,-0.051976,,3,3.0
SiKAu,0.0,-0.0294121,,3,3.0
NiPd2Te2,0.0,-0.0316039,,3,3.0
AgTb2Tl,0.0,-0.0498042,,3,3.0
Al4DyTa2,0.0,-0.0306797,,3,3.0
O6MoTl2,0.4959,-0.0253845,,3,3.0
CoSe2Tl,0.0,-0.0327649,,3,3.0
OBrCe,0.1272,-0.0265382,,3,3.0
O6ScBa2Bi,2.1298,-0.0235505999999999,,3,3.0
VHf6Bi2,0.0,-0.0613514,,3,3.0
FCl2Cs,3.0125,-0.0158156,,3,3.0
BSmIr4,0.0,-0.0566229,,3,3.0
O6Sr2MoTm,0.0,-0.0199478,,3,3.0
SiScPt2,0.0,-0.0425096,,3,3.0
Li2YSn2,0.0,-0.0214848,,3,3.0
MnCo2Ta,0.0,-0.0302109,,3,3.0
AgSbPb2,0.0,-0.0549314,,3,3.0
Li2O5TiGe,4.0362,-0.0104301,,3,3.0
ScZrRu2,0.0,-0.0294372,,3,3.0
LiO8P2Sb,2.5808,-0.0113201,,3,3.0
H22Mg4Ca4Fe3,2.2037,-0.006234,,3,3.0
O6FeTeLa,0.0,-0.0171663,,3,3.0
GaAsSr,0.0,-0.0205179,,3,3.0
MgK2SnTe4,1.1266,-0.0266668999999999,,3,3.0
Te3Bi2,0.1838,-0.0539498,,3,3.0
Li2Si2CaCd2,0.0,-0.0138690999999999,,3,3.0
ZnPt2Np2,0.0,-0.0739715,,3,3.0
Mg6Si3La2,0.0,-0.0136563,,3,3.0
OFeBr4Ta,0.0242,-0.0252515,,3,3.0
Se2Pb,0.0,-0.0389871,,3,3.0
Li3P2Th,0.0,-0.0216701,,3,3.0
ScTlPb2,0.0,-0.0597843,,3,3.0
O7Ba3U2,0.0,-0.0339136,,3,3.0
YRhI,0.0,-0.0339763,,3,3.0
As2Ru2Tm,0.0,-0.0331886999999999,,3,3.0
Nd2Tm,0.0,-0.0462993,,3,3.0
MgSiLa2,0.0,-0.0256907,,3,3.0
Co3Tc,0.0,-0.0216266,,3,3.0
TiRb2I6,0.9376,-0.0320668,,3,3.0
HCO2Rb,4.7224,-0.0107304999999999,,3,3.0
O6GeTe2,4.0807,-0.0158864,,3,3.0
CuGaNb,0.0,-0.0218249,,3,3.0
F8Na2CaSr,0.0,-0.008716,,3,3.0
OAsNdOs,0.0,-0.0373423,,3,3.0
ZrInAu,0.7348,-0.0452025,,3,3.0
NiCuZn,0.0,-0.0150577,,3,3.0
S6ZnZr2,0.0,-0.0159629,,3,3.0
AgTe,0.0,-0.0343506,,3,3.0
O8Cr2Sr3,0.0,-0.0145537,,3,3.0
H8Mg2MnCe,0.4402,-0.0088095999999999,,3,3.0
MgTb5,0.0,-0.0397941999999999,,3,3.0
Al3Si2CrHo3,0.0,-0.0238352,,3,3.0
Al3Ge2Pr,0.0,-0.017799,,3,3.0
O4CuEr2,0.0,-0.0231587,,3,3.0
CdSbAu5,0.0,-0.0591425,,3,3.0
Cu2I3Cs,2.3686,-0.0304089,,3,3.0
MgCu2Zn,0.0,-0.0123477,,3,3.0
Al4RhEr,0.0,-0.0199628,,3,3.0
Br2SnPr2,0.0,-0.0338508,,3,3.0
RbRu2Sb2,0.0,-0.0332026,,3,3.0
FeGa2Dy,0.0,-0.0251322,,3,3.0
Si3ScTh,0.0,-0.0286325,,3,3.0
O3NiLa,0.0,-0.0181793,,3,3.0
Sn2CeNd,0.0,-0.040754,,3,3.0
F4CdBa,4.4747,-0.0172416,,3,3.0
K2Te4HgPb,0.0,-0.039275,,3,3.0
CaCu2Cd2,0.0,-0.0203006999999999,,3,3.0
N3CoHo,0.4313,-0.0194668,,3,3.0
MgSi2Ce2,0.0,-0.0234352,,3,3.0
GeIEu,0.0,-0.0376506,,3,3.0
O8P2SrY,0.0,-0.0130102,,3,3.0
SrAg3In2,0.0,-0.0307703,,3,3.0
GeZrTa,0.0,-0.0395362999999999,,3,3.0
AgCd2Ba,0.0,-0.0332531,,3,3.0
Li2ZnPd,0.0,-0.0131188,,3,3.0
GePrIr,0.0,-0.0454861,,3,3.0
Ti2ZnRh,0.0,-0.0203655,,3,3.0
MnSe2Pb,0.5098,-0.0342519,,3,3.0
Si2Sc2Co,0.0,-0.0139828,,3,3.0
Ti3Os,0.0,-0.0304798,,3,3.0
H4MgCs2,3.557,-0.013819,,3,3.0
Ti6As2Ru,0.0,-0.0197898,,3,3.0
Co2Ga2Sr,0.0,-0.0180829,,3,3.0
H16Li3B3N2,6.6082,-0.0046458,,3,3.0
BCRuCe,0.0,-0.0246755,,3,3.0
LiSnHf,0.0,-0.034042,,3,3.0
CFe2Ge2Tb2,0.0,-0.0260504,,3,3.0
ZnAg2I4,2.433,-0.0322815,,3,3.0
MgCdDy,0.0,-0.028075,,3,3.0
F2Ca2Tl,0.0,-0.0224318,,3,3.0
Mg5Zr,0.0,-0.0092453,,3,3.0
NaCl6Rb2Pb,0.0,-0.0185633,,3,3.0
P8Ca5,1.3583,-0.0111671999999999,,3,3.0
MgTe5Hg4,0.0,-0.0467138,,3,3.0
CMgCe2,0.0,-0.026196,,3,3.0
Li4Sb4Nd3,0.0,-0.0272699,,3,3.0
NaPd2Sn2,0.0,-0.0287279,,3,3.0
AlNi2Eu2,0.0,-0.0298129,,3,3.0
NiZn,0.0,-0.0150735,,3,3.0
KAg3,0.0,-0.0255508,,3,3.0
BRh2Sm,0.0,-0.0306269,,3,3.0
P2SnBa,0.9894,-0.0246894,,3,3.0
LiSe2Zr,0.0,-0.0198515,,3,3.0
H3O10S2Cu2Rb,1.5289,-0.0093607,,3,3.0
Be2RbSb2,0.0,-0.0209452,,3,3.0
CdInGd2,0.0,-0.0458921,,3,3.0
Zn2ZrEr,0.0,-0.027351,,3,3.0
O8P2BaHf,5.5215,-0.0175692,,3,3.0
Se3SbDy4,0.0,-0.0378406,,3,3.0
CoPdDy2,0.0,-0.0369810999999999,,3,3.0
OCl4CsTa,3.4069,-0.022405,,3,3.0
SiCa2Ni2,0.0,-0.0127566,,3,3.0
Te4BaTl2,0.0,-0.0482453999999999,,3,3.0
Zn2YPt2,0.0,-0.0400159999999999,,3,3.0
O6MgTiPr2,3.6741,-0.0180392,,3,3.0
H3O3Sm,4.349,-0.0126103,,3,3.0
O3ZrBa,3.709,-0.0214044,,3,3.0
ZnTe4Tl2,0.113,-0.044082,,3,3.0
Rh2Sb2Dy,0.0,-0.0388153,,3,3.0
AsPmPt2,0.0,-0.0521039,,3,3.0
NaS2Ce,0.2545,-0.0190340999999999,,3,3.0
Al2Ge2Sr,0.0,-0.0156467,,3,3.0
TiZn2Rh,0.0,-0.0197684999999999,,3,3.0
S4Rb2Pd3,1.4283,-0.0206815999999999,,3,3.0
P2Co2Tb,0.0,-0.0214699,,3,3.0
Al3Sm2Ir2,0.0,-0.0373315,,3,3.0
MnRu2Ho2,0.0,-0.0375861,,3,3.0
O5Ti2Te2Pr2,0.0,-0.0232372,,3,3.0
LiO6Nd2Ir,0.0,-0.0223692,,3,3.0
B2O7Bi2,0.8618,-0.0212107,,3,3.0
YNbOs2,0.0,-0.0514382,,3,3.0
NiGa6Np,0.0,-0.0278736,,3,3.0
H6MnPu2,0.0,-0.0291009,,3,3.0
PNiNd,0.0,-0.0246382,,3,3.0
S3Rb2Tm,0.0,-0.0219549,,3,3.0
GaZrPd,0.0,-0.0274954,,3,3.0
F6AgCs2Ir,2.0287,-0.0220402,,3,3.0
Li7O6Ru,1.1858,-0.0082592999999999,,3,3.0
LiCaGe,0.0,-0.0109158,,3,3.0
RuIn2Pr,0.0,-0.0366585,,3,3.0
CuTe2La,0.581,-0.0342821,,3,3.0
OAsCdPu,0.0,-0.043198,,3,3.0
B2ScCo3,0.0,-0.013994,,3,3.0
AlZrHg,0.0,-0.0360169,,3,3.0
PZnCs,1.2049,-0.0210852,,3,3.0
O8Mo2CsLu,4.4531,-0.0203937,,3,3.0
KTiSe3Pd,0.0,-0.0205813,,3,3.0
Rh3NdPt2,0.0,-0.0481309,,3,3.0
Li3O12VNb4,0.0,-0.0142365,,3,3.0
Ca2Cu2Ga3,0.0,-0.0145224,,3,3.0
YInTl,0.0,-0.0450196,,3,3.0
HoPt2,0.0,-0.0644385,,3,3.0
MgCa2Zn3,0.0,-0.0110634,,3,3.0
CuTcHo2,0.0,-0.0372254,,3,3.0
PS4KCu2,1.4601,-0.0115257,,3,3.0
O6GaBa2Bi,0.0,-0.0232323999999999,,3,3.0
NTi3Ga,0.0,-0.0159541,,3,3.0
LiF6CoCd,2.7758,-0.0104376,,3,3.0
O6Ni2Rb2Te,1.8967,-0.0149642,,3,3.0
Li8Ag,0.0,-0.0056801,,3,3.0
GePd2La,0.0,-0.0328507,,3,3.0
Ga3SmPt2,0.0,-0.0399122,,3,3.0
KAgBa2,0.0,-0.0298040999999999,,3,3.0
AgTmBi2,0.0,-0.0605174,,3,3.0
O6CoWPb2,0.0,-0.0291669,,3,3.0
Ga2Nd3,0.0,-0.0332661999999999,,3,3.0
NaIn2Pb2,0.0,-0.044631,,3,3.0
Al2Pd2Ba,0.0,-0.0248951,,3,3.0
CdTbTl,0.0,-0.0503318,,3,3.0
ClMn2La2,0.0,-0.0267942,,3,3.0
F6DyHg,0.0,-0.0197806,,3,3.0
Ni2Zn2As4Ba3,0.0,-0.0242496,,3,3.0
NClHf,2.5703,-0.0287786,,3,3.0
Tc2RuRh,0.0,-0.0348418,,3,3.0
NiGd2Os,0.0,-0.0516543,,3,3.0
ScMnSb2,0.0,-0.0273089,,3,3.0
Ca2Zn2Pb,0.0,-0.0248344,,3,3.0
YZr3,0.0,-0.0299134,,3,3.0
Cl4Ba,2.9218,-0.0159583999999999,,3,3.0
Te3Tb,0.0,-0.0406693,,3,3.0
H4N2Ca,3.1743,-0.0067113,,3,3.0
MgK2Br6,0.0,-0.0167105,,3,3.0
Li3O7F5V4,0.0,-0.0100858,,3,3.0
CNZr2,0.0,-0.0217406,,3,3.0
H2O5PKNi,2.815,-0.0091893,,3,3.0
ClAs,1.1057,-0.0145364,,3,3.0
Br6Cs2Er,0.0,-0.0287532,,3,3.0
NiRhEr2,0.0,-0.0384134999999999,,3,3.0
CrNi2Te3,0.0,-0.0273423,,3,3.0
F12P4Pt,5.448,-0.0115143,,3,3.0
MgYPt2,0.0,-0.0444887999999999,,3,3.0
S3MnRbSm,0.9764,-0.0205041,,3,3.0
AlCuNd,0.0,-0.0226176999999999,,3,3.0
Sc2Tl,0.0,-0.0341044,,3,3.0
CrGe3Sr,0.0,-0.0199332999999999,,3,3.0
CoLa6Pb2,0.0,-0.0479501,,3,3.0
CuSeTeI,1.1123,-0.0274579,,3,3.0
MnIDy,0.0,-0.0349315,,3,3.0
Li5Sb,0.0,-0.0086367999999999,,3,3.0
F6CoDy,2.8712,-0.0140561,,3,3.0
PCrNb,0.0,-0.0214322,,3,3.0
Se3AgCsHo,0.0,-0.0310134,,3,3.0
MgAsPd,0.0,-0.0199615,,3,3.0
C3Cr2Dy2,0.0,-0.023627,,3,3.0
Ge2TmPt2,0.0,-0.0471064999999999,,3,3.0
Na2As2Pb,0.0,-0.025255,,3,3.0
CoSe,0.0,-0.0188781,,3,3.0
Ta2IrAu,0.0,-0.0688347,,3,3.0
N2FeLa2,0.0,-0.0258468,,3,3.0
O4ClYSb2,1.1316,-0.0191173,,3,3.0
Sc2PdAu,0.0,-0.0336370999999999,,3,3.0
RhSmTl,0.0,-0.0508616999999999,,3,3.0
CuGa6La,0.0,-0.0200171,,3,3.0
CaTe3NdAu,0.6612,-0.0403211999999999,,3,3.0
BAl2HoOs2,0.0,-0.0365875,,3,3.0
AsY2In,0.0,-0.0284299,,3,3.0
Na3Ge4Rh4,0.0,-0.0209374,,3,3.0
BrAu2Tl2,0.0,-0.0608158,,3,3.0
Ti6GaBi2,0.0,-0.0303105,,3,3.0
Li2In2Ba,0.0,-0.0226474,,3,3.0
S4Ti3Se2,0.0,-0.0154695,,3,3.0
SiZrPt2,0.0,-0.0465552,,3,3.0
Li4SrSb2,0.9893,-0.0160416,,3,3.0
O3NaOs,0.0,-0.0202812,,3,3.0
AlCrGe,0.0,-0.0151969,,3,3.0
C4RuTm3,0.0,-0.0293195,,3,3.0
Si2ErOs2,0.0,-0.0436332,,3,3.0
O6KIPt,2.4184,-0.0177886999999999,,3,3.0
HoTl3,0.0,-0.0668306,,3,3.0
ZnSbAu2,0.0,-0.0473744,,3,3.0
BSiCeIr3,0.0,-0.0467445,,3,3.0
Cl6CuCs2Tb,2.7637,-0.0205843,,3,3.0
CSc2Ga,0.0,-0.0143521,,3,3.0
BeYRh,0.0,-0.0227106,,3,3.0
Cl2Te2Hg3,1.9382,-0.0425981999999999,,3,3.0
Mg2Al2Zn,0.0,-0.0077784,,3,3.0
O8KErW2,4.9704,-0.0233450999999999,,3,3.0
Rb3Pd3Sb2,0.0,-0.0297518999999999,,3,3.0
O7K2CaNb2,1.7972,-0.0141042,,3,3.0
Ge2Nd2Hg,0.0,-0.0395246,,3,3.0
Zn2Pt3Th,0.0,-0.0564712,,3,3.0
Mg3Pm,0.0,-0.0148484,,3,3.0
Co2Pb3Th3,0.0,-0.068986,,3,3.0
P2Ni2Y,0.0,-0.0172805,,3,3.0
O4ClSb2Nd,0.9678,-0.0209966,,3,3.0
In3Tm3Pt2,0.0,-0.0505892,,3,3.0
CdTe2Hg,0.0002,-0.0435942,,3,3.0
RhInDy,0.0,-0.039192,,3,3.0
Rh3Sn2Nd,0.0,-0.0368014999999999,,3,3.0
Cu2Sn2Eu,0.0,-0.0316093,,3,3.0
ZnPdLa2,0.0,-0.0337002,,3,3.0
MgSr2Sn2,0.0,-0.0248717,,3,3.0
Na2SbAu,0.3941,-0.0292699,,3,3.0
AsZrPt5,0.0,-0.0582402999999999,,3,3.0
O6MnSrRuLa,0.0,-0.0181473,,3,3.0
F3SbICs,3.6616,-0.0226322,,3,3.0
Mg3Sr2,0.0,-0.0119201,,3,3.0
FK2Au,2.9227,-0.0238737,,3,3.0
FeSe2Tl,0.0,-0.0328474,,3,3.0
NFe8,0.0,-0.017258,,3,3.0
P2DyPt8,0.0,-0.0580180999999999,,3,3.0
AlGa2Dy,0.0,-0.0225941,,3,3.0
RbTl4,0.0,-0.0621762,,3,3.0
SbAu5,0.0,-0.0637926,,3,3.0
O3LaPt,1.4016,-0.0286444,,3,3.0
Al3Ge2Tm3Re,0.0,-0.0327201,,3,3.0
Li5PS4Cl2,3.0529,-0.007789,,3,3.0
Al5LaIr2,0.0,-0.0289677,,3,3.0
PdLu2Tl,0.0,-0.0546822999999999,,3,3.0
N3MnBa,0.0,-0.0178072,,3,3.0
Mg2Cd2Tl,0.0,-0.0286932,,3,3.0
O8P2PrPu,0.3361,-0.0217644,,3,3.0
O4SrLu2,3.8156,-0.0263062,,3,3.0
Mg2Ga2In,0.0,-0.0153358,,3,3.0
In3Tb3Au2,0.0,-0.0482236,,3,3.0
S2CuGa,1.2606,-0.0133771,,3,3.0
GeRh3Ho2,0.0,-0.0374551,,3,3.0
BGa2NdIr2,0.0,-0.0383507,,3,3.0
Cl4CoRb2,0.0,-0.0145499,,3,3.0
BCo2Ga2Dy,0.0,-0.0209272,,3,3.0
N2Sr7Sn3,0.0,-0.0243233,,3,3.0
Ti2WIr,0.0,-0.043869,,3,3.0
MgGaRh2,0.0,-0.0229849,,3,3.0
ZnTmTl,0.0,-0.0463221,,3,3.0
KGe2Pt2,0.0,-0.0379305,,3,3.0
Li2Mg2Ge2Th,0.0,-0.0216707,,3,3.0
Si2Tb3,0.0,-0.0327921,,3,3.0
Cu4EuTl,0.0,-0.0312286,,3,3.0
S4KGeTb,2.6817,-0.0175328,,3,3.0
ScPt5,0.0,-0.0616528,,3,3.0
PtTh2,0.0,-0.0882477,,3,3.0
H2Ba3Pb,0.0185,-0.0342021,,3,3.0
Co4InSn6,0.0,-0.0288395,,3,3.0
O4MgIn2,1.9178,-0.0159279,,3,3.0
CSbLu2,0.0,-0.0403517,,3,3.0
Ga6RbPt4,0.0,-0.0369279999999999,,3,3.0
Ni8Ta,0.0,-0.0219001,,3,3.0
YTc2,0.0,-0.032858,,3,3.0
AlP2Zr6,0.0,-0.0245025,,3,3.0
O6NdEu2Ta,0.1452,-0.0288249,,3,3.0
OITb,3.8969,-0.0329088,,3,3.0
HMo3Pt,0.0,-0.0358006,,3,3.0
OAlI,2.268,-0.0190122,,3,3.0
In6BaAu,0.0,-0.0390673,,3,3.0
N3FeBa3,0.0,-0.0242612,,3,3.0
KCd2Tl2,0.0,-0.0428821,,3,3.0
Ga3SrRe,0.0,-0.0288718,,3,3.0
Y2Pd2Pb,0.0,-0.0403894999999999,,3,3.0
Ga3Tm2Ir2,0.0,-0.0430912,,3,3.0
RhCd3Ba,0.0,-0.0332055,,3,3.0
GaLu2Ir2,0.0,-0.054981,,3,3.0
RuTb3Pt2,0.0,-0.0536799,,3,3.0
B2O6CaTh,5.5732,-0.0190595,,3,3.0
AlRh2Ir,0.0,-0.0371862,,3,3.0
LiMgAl4,0.0,-0.0064071,,3,3.0
Si3Y2Pd,0.0,-0.0207399,,3,3.0
SiP2Zr,0.0,-0.0162068,,3,3.0
H6Na3Rh,3.5319,-0.0071238,,3,3.0
HLi3Au,0.0,-0.0164382,,3,3.0
B2CNi2Tb,0.0,-0.0179156,,3,3.0
Al5CaPt,0.0,-0.0175415999999999,,3,3.0
Se3Ta2,0.0,-0.0394662,,3,3.0
Sn2BiPu,0.0,-0.0652555,,3,3.0
Cu2Se2Rb,0.0,-0.0188785,,3,3.0
BZr2Rh6,0.0,-0.0311036,,3,3.0
ScBr,0.0,-0.0181408,,3,3.0
O6Cu3Ba2Nd,0.0,-0.0192319,,3,3.0
O2ZnRb2,2.5672,-0.0149222,,3,3.0
Br3CsPb,2.2354,-0.035806,,3,3.0
Al2S4Cr,0.0,-0.011461,,3,3.0
Ga3Ge2Tb3Pt,0.0,-0.0340373,,3,3.0
LiMgZn,0.0,-0.0071172,,3,3.0
Mg2GePd,0.0,-0.0159972,,3,3.0
Ga3Sr2Ir,0.0,-0.0280643,,3,3.0
HLiO5PV,0.781,-0.0095114,,3,3.0
MnSe3InTm,0.1626,-0.028501,,3,3.0
Pd4CdEu,0.0,-0.0364101,,3,3.0
O6CrSbTe,0.7143,-0.0160608,,3,3.0
LiSi2La2,0.0,-0.0223529,,3,3.0
RhAg2Gd,0.0,-0.0392256,,3,3.0
SrYTl2,0.0,-0.0492803,,3,3.0
O6Ni3Te,0.739,-0.0135868,,3,3.0
K5CuSb2,1.3066,-0.0168666,,3,3.0
As2Au2Pb,0.0,-0.0509628,,3,3.0
OsIrPt,0.0,-0.0710263,,3,3.0
Pd2InLu,0.0,-0.0394978,,3,3.0
Sn2Ba2Bi,0.0,-0.0466395,,3,3.0
H2Sc3,0.0,-0.0103836,,3,3.0
AlZn2Zr2,0.0,-0.019697,,3,3.0
O6Ca2YBi,2.6154,-0.0189252,,3,3.0
NiSbDy,0.4664,-0.0347599,,3,3.0
NiGeAc2,0.0,-0.054383,,3,3.0
S3K2Sc,0.0,-0.0115355,,3,3.0
NRhTm3,0.0,-0.0409656,,3,3.0
B2YRh2,0.0,-0.0228701,,3,3.0
LiCo2Sn2,0.0,-0.0217245,,3,3.0
O8KCr2Fe,0.6466,-0.0113091,,3,3.0
Rh2SbTe2,0.0,-0.0363714999999999,,3,3.0
BN2K2Rb,1.9218,-0.0111385,,3,3.0
Al3Fe2Pd,0.0,-0.0159467,,3,3.0
MgS4Rb2Sn,2.9685,-0.0163121,,3,3.0
InPr3,0.0,-0.0412345,,3,3.0
SeEr,0.0,-0.0370861,,3,3.0
NiCdSb,0.0,-0.0281051,,3,3.0
NaSbAu,0.0,-0.0372378,,3,3.0
B2O6CdEu2,0.0,-0.0199543,,3,3.0
Li2Sb2Ba,0.0293,-0.0246476,,3,3.0
MgGeNb,0.0,-0.0194279,,3,3.0
YAg4,0.0,-0.0309027999999999,,3,3.0
AlCoEr,0.0,-0.0255727,,3,3.0
Pd2SnDy2,0.0,-0.040455,,3,3.0
C2HoW,0.0,-0.0350773999999999,,3,3.0
H3O3Ce,0.0036,-0.0125508,,3,3.0
Fe3Ga,0.0,-0.017887,,3,3.0
P4Ni2Ce,0.0,-0.0176663,,3,3.0
Ru2In3Hf3,0.0,-0.0452436,,3,3.0
CdCs2Au,0.0,-0.0439378,,3,3.0
Mg6In3La2,0.0,-0.0199865,,3,3.0
KNi4Sb2,0.0,-0.0213135,,3,3.0
Ni2CdIn,0.0,-0.0240257,,3,3.0
H2V2Os,0.0,-0.0230521,,3,3.0
KPtTl3,0.0,-0.0592152,,3,3.0
KGa9Ir2,0.0,-0.0252049,,3,3.0
LiAs2Pd2Dy,0.0,-0.0270085,,3,3.0
MgHf2,0.0,-0.0434354,,3,3.0
Ni2GaSr,0.0,-0.0181159,,3,3.0
H3CuRh,0.0,-0.0117643,,3,3.0
Ge2Sr3In2,0.0,-0.0251628,,3,3.0
F8K2CaNp,1.9274,-0.0171317,,3,3.0
BNRhNd,0.0,-0.0248209,,3,3.0
O4SnSb,0.0,-0.0178586999999999,,3,3.0
MgKCd2,0.0,-0.0186123,,3,3.0
Br2SbCe2,0.0,-0.0346932,,3,3.0
Al2FeNi,0.0,-0.0130587,,3,3.0
N2OLaTa,1.1455,-0.0291086,,3,3.0
AsRhTm,0.0,-0.0365461,,3,3.0
AlS3Ga,3.0021,-0.0116023,,3,3.0
RhAu5,0.0,-0.0631716,,3,3.0
Li2F6Sc,0.0,-0.0076521,,3,3.0
BeB2O5Ca,6.4637,-0.0096563,,3,3.0
Cd2Bi,0.0,-0.0463975,,3,3.0
CuZrRh,0.0,-0.0271346,,3,3.0
GaZr2Tc,0.0,-0.0287178,,3,3.0
Ca2Pt,0.0,-0.0307354,,3,3.0
Dy6WBi2,0.0,-0.0574972,,3,3.0
AlTiCoRu,0.2238,-0.0198185,,3,3.0
H6InCs3,2.5328,-0.0169145,,3,3.0
CrFeRh,0.0,-0.0234633,,3,3.0
MgP4Rh6,0.0,-0.0234797,,3,3.0
Si3Pu,0.0,-0.0352049,,3,3.0
ScRuCd2,0.0,-0.0277429999999999,,3,3.0
FeCo4Tm,0.0,-0.0232804,,3,3.0
AlDy,0.0,-0.0282231999999999,,3,3.0
Cu2CdEr3,0.0,-0.0356662,,3,3.0
Si2Y3RhIn3,0.0,-0.0271826,,3,3.0
CO3Zn,4.32,-0.0100300999999999,,3,3.0
INdAu,0.0,-0.0510593,,3,3.0
O9Ca3Tl4,0.8067,-0.0250939,,3,3.0
FeBrDy,0.0,-0.0294294,,3,3.0
Ni2YPt3,0.0,-0.0458444999999999,,3,3.0
Li2Ir,0.0,-0.0255945,,3,3.0
Si2FeZr6,0.0,-0.0252069,,3,3.0
TiFe2Ga,0.0,-0.0174701,,3,3.0
NaCl6K2U,0.9314,-0.0192254,,3,3.0
ScRh2Tb,0.0,-0.0331618,,3,3.0
BN,4.7536,-0.0098157,,3,3.0
O8CsHoW2,4.9912,-0.025702,,3,3.0
O4Cu2Te2ErBi2,0.0,-0.0320781,,3,3.0
CdSmTl,0.0,-0.0495983,,3,3.0
ScIn2Lu,0.0,-0.034639,,3,3.0
Ni3TbAu2,0.0,-0.0393335999999999,,3,3.0
CoTcHf2,0.0,-0.0449864,,3,3.0
Rh7Re,0.0,-0.0384612,,3,3.0
SiS3In,1.7167,-0.0151442,,3,3.0
S3Au2Tl,0.0,-0.0400079,,3,3.0
GePr2Ir2,0.0,-0.0504987,,3,3.0
SiLa2Pt,0.0,-0.0426875,,3,3.0
CuGa2,0.0,-0.0161058,,3,3.0
O6NiRuLa2,0.0818,-0.0200278999999999,,3,3.0
P2CsOs2,0.0,-0.0409114,,3,3.0
LiAlCu4,0.0,-0.0119499,,3,3.0
Al2Ge2Pu,0.0,-0.0329998,,3,3.0
CZr2Te,0.0,-0.0282147,,3,3.0
ZnAg2Pm,0.0,-0.0302688,,3,3.0
Li3O3FV,1.2082,-0.008519,,3,3.0
LiMgInPt,0.0,-0.0285235,,3,3.0
Be13Ca,0.0,-0.0048222,,3,3.0
F4MgPb,4.5248,-0.0188741999999999,,3,3.0
Ga2Se4Pb,2.1047,-0.0275945,,3,3.0
MnTe2Th6,0.0,-0.0747235,,3,3.0
Al3CoGe2Ce3,0.0,-0.0242398,,3,3.0
MgCoTb,0.0,-0.0230123,,3,3.0
SiTbAu,0.0,-0.0429891,,3,3.0
H8FeCo2La,0.0,-0.0104303,,3,3.0
Cl4FeRb2,0.0,-0.0147563,,3,3.0
BeCa2Te2,0.0,-0.0203019,,3,3.0
NGaTb2,0.0,-0.0309386,,3,3.0
LiP2Pd2Nd,0.0,-0.0231056,,3,3.0
Mg3Cu2Zn7,0.0,-0.011843,,3,3.0
ZrSnSm,0.0,-0.0377220999999999,,3,3.0
GeCdSb2,0.0976,-0.0309893,,3,3.0
LiNaIn2,0.0,-0.0185698,,3,3.0
Cl2Hg,3.0647,-0.028685,,3,3.0
O3ClAg,2.9392,-0.0116633,,3,3.0
MnSe4Hf2,0.0,-0.0332432,,3,3.0
Fe2SnTh2,0.0,-0.0530123,,3,3.0
Al7La6,0.0,-0.024484,,3,3.0
S8V6Tl,0.0,-0.0180206,,3,3.0
C8N8Rb2BaPt2,1.5872,-0.0182185999999999,,3,3.0
O6Sr2RhNd,0.0,-0.0183556,,3,3.0
Lu3Ac,0.0,-0.064037,,3,3.0
Na2InPt,0.0,-0.0283356,,3,3.0
ScNi2Zn,0.0,-0.0154419,,3,3.0
Ga3Ge2Ho3Pt,0.0,-0.0347747,,3,3.0
SiEuPt2,0.0,-0.05206,,3,3.0
N2Co,0.0,-0.0117326999999999,,3,3.0
B2Co2Ta,0.0,-0.0237011,,3,3.0
Sn2CePr,0.0,-0.0406884,,3,3.0
SbLa2,0.0,-0.0421738,,3,3.0
B2SiNb5,0.0,-0.0244916,,3,3.0
O7As2Sr2,3.9541,-0.013926,,3,3.0
Al3Si2Er3Re,0.0,-0.0301513,,3,3.0
ZnAgHf,0.0,-0.0359591,,3,3.0
O5CuSr2Tl,0.0,-0.0199543,,3,3.0
Mg2P2Pu,0.0,-0.0290054,,3,3.0
ClSc2,0.0,-0.0131667,,3,3.0
Pm,0.0,-0.0439856,,3,3.0
FeCoGaRu,0.0,-0.0219054,,3,3.0
ZnSrTl,0.0,-0.0364992,,3,3.0
PdLa6Bi2,0.0,-0.050609,,3,3.0
Si2Ga3RhTb3,0.0,-0.0278823,,3,3.0
LiF4Pr,8.5241,-0.0139396,,3,3.0
PCoEr,0.0,-0.027101,,3,3.0
O7AlGe2Eu,0.1151,-0.0154411,,3,3.0
As2PdU2,0.0,-0.0565797,,3,3.0
LiLa2Hg2,0.0,-0.0455459999999999,,3,3.0
AgInLa,0.0,-0.0365135,,3,3.0
HSSc,1.1803,-0.0106766,,3,3.0
O4YPu,0.9454,-0.0306517,,3,3.0
LaAuPb2,0.0,-0.0665645,,3,3.0
Si2Ga3Sm2,0.0,-0.0231442,,3,3.0
SbU,0.0,-0.0705113999999999,,3,3.0
AgIn2Te4,0.0,-0.0355313,,3,3.0
InPtAu2,0.0,-0.060677,,3,3.0
FeCoGaNb,0.0,-0.0214723,,3,3.0
Rh3Ta,0.0,-0.0426496,,3,3.0
LiZr2Ag,0.0,-0.0238285,,3,3.0
Mn4TaIr,0.0,-0.0352689,,3,3.0
PSn,0.0,-0.0231173,,3,3.0
SiCuLa2,0.0,-0.0283585,,3,3.0
Al6PdSm,0.0,-0.0160032999999999,,3,3.0
CdHo2Hg,0.0,-0.0497036999999999,,3,3.0
Si2MnGa3Lu3,0.0,-0.0287856999999999,,3,3.0
AlNi4Ho,0.0,-0.0207971,,3,3.0
As2RhBa,0.0,-0.0293493,,3,3.0
ScYIr4,0.0,-0.0553686,,3,3.0
Sb2IrNp,0.0,-0.0633789999999999,,3,3.0
Pd2PrBi,0.0,-0.0476129,,3,3.0
O4NdBi,1.0119,-0.0265878,,3,3.0
CePb3,0.0,-0.0684983,,3,3.0
C2MnU,0.0,-0.0354842999999999,,3,3.0
Li2InAc,0.0,-0.0325066,,3,3.0
GePd2Sm,0.0,-0.0332229,,3,3.0
NiSeSb,0.0,-0.0248158,,3,3.0
Ni2Y2Bi,0.0,-0.0338896999999999,,3,3.0
Li8Hg,0.0,-0.0098719,,3,3.0
MgBaIr,0.0,-0.0387486,,3,3.0
O6AlSr2Zr,0.0,-0.0152894,,3,3.0
Al8Mn4Sm,0.0,-0.0142297999999999,,3,3.0
I4Pr,0.0,-0.0392091,,3,3.0
F6TiPu,0.0,-0.0219659,,3,3.0
MgTm5,0.0,-0.0440139,,3,3.0
RhSnSm,0.0,-0.0390403,,3,3.0
CrSe6Hf3,0.0,-0.0339665,,3,3.0
LiTe6Th3,0.0,-0.0525368,,3,3.0
Si4Tb3Pt4,0.0,-0.0432205,,3,3.0
N8Si6Ba,3.7268,-0.0129626,,3,3.0
O8CrNiSr2Pr2,0.0141,-0.0183237,,3,3.0
Si2CePt,0.0,-0.0348335,,3,3.0
AsRhCd2,0.0,-0.0288939,,3,3.0
ILaTl,0.4345,-0.0518845999999999,,3,3.0
N2CrCs,0.0,-0.0193351,,3,3.0
Mg6Zn7,0.0,-0.0097386,,3,3.0
LiGaAg,0.0,-0.0169455,,3,3.0
Cl3AsGd3,0.0,-0.0333271999999999,,3,3.0
N2YZr,0.0,-0.0213153,,3,3.0
P2Fe2Lu,0.0,-0.0234493,,3,3.0
S3CuSnHf,0.0,-0.0247148,,3,3.0
PCoTb,0.0,-0.0258899,,3,3.0
AlCoNiHf,0.0,-0.0266648,,3,3.0
BeNi2Ru,0.0,-0.0180381,,3,3.0
AlMnNi3La,0.0,-0.0200501,,3,3.0
F4AlCs,8.0199,-0.0135754,,3,3.0
AlIrNp,0.0,-0.0625285,,3,3.0
Zn2In5Tm4,0.0,-0.0369868,,3,3.0
LiO8Y3W,3.3838,-0.0190284,,3,3.0
AgPr,0.0,-0.0376602,,3,3.0
Fe3Y2,0.0,-0.0219626,,3,3.0
RhHf6Tl2,0.0,-0.0619228999999999,,3,3.0
SiNiTa2,0.0,-0.040325,,3,3.0
BaPt2Bi2,0.0,-0.0681272,,3,3.0
CMn3Au,0.0,-0.027117,,3,3.0
ZnInSb,0.0,-0.0280235,,3,3.0
AlNi2Dy,0.0,-0.0225987,,3,3.0
Al3CrGe2Zr3,0.0,-0.0196695,,3,3.0
LiB6Si,1.9089,-0.0073646,,3,3.0
NBr2Gd2,0.0,-0.0350375,,3,3.0
B2CCo2Gd,0.0,-0.0201077,,3,3.0
AsPdLu,0.0,-0.0373292,,3,3.0
O6ZrBa2La,0.0,-0.0222466,,3,3.0
Rh2ISm2,0.0,-0.0396261,,3,3.0
NCoHf3,0.0,-0.0439733,,3,3.0
CTc2,0.0,-0.0267073,,3,3.0
AlFeTaIr,0.0,-0.0416597,,3,3.0
NNd2Pb,0.0,-0.0442268,,3,3.0
Si2Sr2In,0.0,-0.0199926,,3,3.0
Ag2Au2Bi,0.0,-0.0559157,,3,3.0
O2CsEu,0.0,-0.0283956,,3,3.0
Ga2YDy,0.0,-0.0277716,,3,3.0
YZr2Cd,0.0,-0.0300222,,3,3.0
F6Mn,0.0,-0.0073401,,3,3.0
S4TiMn,0.0,-0.0132346,,3,3.0