formula,bg,formation_energy,mp-id,fidelity,bg_category
AgHo,0.0,-0.0405715,,3,3.0
LiB2Ru2,0.0,-0.0177643,,3,3.0
O4PV,0.6314,-0.0114086999999999,,3,3.0
NaSmPb2,0.0,-0.0505442,,3,3.0
CuY2Cd,0.0,-0.0256693,,3,3.0
F6NiPt,2.139,-0.0152691,,3,3.0
O3FeRb2,0.9049,-0.0146971,,3,3.0
MgTm2,0.0,-0.0362625,,3,3.0
YIn4La,0.0,-0.0346539,,3,3.0
OF5K2Cr,1.6043,-0.0093091,,3,3.0
BCe2Ir6,0.0,-0.0588667,,3,3.0
P12Fe4Pr,0.0,-0.0147388,,3,3.0
C2O6Mn,2.1198,-0.0099758,,3,3.0
Ho3Pb,0.0,-0.056107,,3,3.0
Zr2TcRh,0.0,-0.0333579,,3,3.0
MoTaIr2,0.0,-0.061509,,3,3.0
Cl6CoTl2,0.0,-0.0241743,,3,3.0
CaCd2Au,0.0,-0.0355045,,3,3.0
Er2IrPt,0.0,-0.061766,,3,3.0
FeGe3Tm,0.0,-0.0258607,,3,3.0
Fe2In5Hf4,0.0,-0.0415668,,3,3.0
MgRu2Sn2,0.0,-0.0294487999999999,,3,3.0
Se2BrIr,0.3996,-0.0329613999999999,,3,3.0
Co2In3Ho3,0.0,-0.0356039,,3,3.0
KYTl2,0.0,-0.045619,,3,3.0
Co3Dy2,0.0,-0.0296644,,3,3.0
N2Mn2Co,0.0,-0.0149381,,3,3.0
H6O5NaBr,2.5416,-0.0067559,,3,3.0
ScVRu2,0.0,-0.0259159,,3,3.0
Al7Ni2Ce3,0.0,-0.0189236,,3,3.0
PYPd,0.0,-0.0250938,,3,3.0
Zn2HoPt,0.0,-0.0374095999999999,,3,3.0
CuRh2Sn,0.0,-0.0299953,,3,3.0
KTe2Pu,0.0,-0.0493438,,3,3.0
GePrPt,0.0,-0.0454612,,3,3.0
O8As2SbCs,2.8501,-0.0153005,,3,3.0
WPt2Hg,0.0,-0.0697409,,3,3.0
Ge2Rh3Dy,0.0,-0.0321614,,3,3.0
Li3O14P4VMn,1.0627,-0.0100129,,3,3.0
O6ZnSr2Np,2.1971,-0.0231240999999999,,3,3.0
BeRu2,0.0,-0.0249408,,3,3.0
Zr3In3Au2,0.0,-0.0419272,,3,3.0
NbRh2Pt,0.0,-0.0433953,,3,3.0
LiMgS2Cs,3.7795,-0.0144836,,3,3.0
CuAs2Dy2,0.0,-0.0315268,,3,3.0
LiF4U,1.2448,-0.0234897,,3,3.0
K2RbBi2,0.0,-0.039275,,3,3.0
BCPdPa,0.0,-0.0380171,,3,3.0
TiTc2Sb,0.0,-0.0313111,,3,3.0
AlP2S7Rb,2.9572,-0.0113828,,3,3.0
O3NiSn,0.8436,-0.0157456,,3,3.0
B2O6ScY,5.1981,-0.0127931,,3,3.0
Ca2SbAu2,0.0,-0.0399012,,3,3.0
MgS3ScRb,2.5069,-0.0133026,,3,3.0
CuLaBi2,0.0,-0.0544981,,3,3.0
TiGaRuPt,0.0,-0.0351599,,3,3.0
TiGa2Au,0.0,-0.0298992,,3,3.0
PrIrTl,0.0,-0.0628007,,3,3.0
InAuPu,0.0,-0.0712518,,3,3.0
ClKCs3,0.0,-0.0267938,,3,3.0
NGaDy3,0.0,-0.0349414,,3,3.0
PSe2Zr2,0.0,-0.0239121,,3,3.0
B2Rh2In,0.0,-0.0234647,,3,3.0
SiSmRe,0.0,-0.0423196999999999,,3,3.0
Co2Sn3La3,0.0,-0.0345348,,3,3.0
Cu2PdTh,0.0,-0.0401712,,3,3.0
O3Mn2Ni,0.0,-0.0135127,,3,3.0
S4SrNd2,2.4193,-0.0235285,,3,3.0
Cd2SmTb,0.0,-0.0384318,,3,3.0
O6MgCuLa2,0.0,-0.0170352,,3,3.0
AlRu5,0.0,-0.0304884999999999,,3,3.0
AlSeY2,0.0,-0.0220579,,3,3.0
Cd5In3,0.0,-0.031471,,3,3.0
O7S2Rb2,5.958,-0.0113795,,3,3.0
ScRh6Sb4,0.0,-0.0338751,,3,3.0
TcRu5,0.0,-0.0349021,,3,3.0
O2KCs,2.5794,-0.0158172,,3,3.0
FClTl2,3.1643,-0.0403682999999999,,3,3.0
Al2Ga2Nd,0.0,-0.0188859,,3,3.0
B6Mn2Zr,0.0,-0.0129489,,3,3.0
K5CuBi2,0.5923,-0.027122,,3,3.0
Rh2CdTm3,0.0,-0.0431283,,3,3.0
H4K2Zn,4.6576,-0.0066146,,3,3.0
C4FePr3,0.0,-0.0237614,,3,3.0
Pd2Ce2Hg,0.0,-0.0452814,,3,3.0
TiCoGaPd,0.0,-0.0212532,,3,3.0
LiRh2Sb2Eu,0.0,-0.0338836999999999,,3,3.0
AsPd3Ba,0.0,-0.0321869,,3,3.0
ZnGe2Y2,0.0,-0.0222939,,3,3.0
Cu3As2Cs3,1.4642,-0.0252668,,3,3.0
ZnY2In,0.0,-0.0262305,,3,3.0
B2CPd2La,0.0,-0.0228915,,3,3.0
Na2Ga2Ag,0.0,-0.0145768,,3,3.0
ZnGa2Pt,0.0,-0.029593,,3,3.0
GeBa2Hg,0.0,-0.0422105,,3,3.0
KSnPt2,0.0,-0.0465413,,3,3.0
C2NbDy,0.0,-0.0257208,,3,3.0
C4CuTm3,0.0,-0.0267265,,3,3.0
O4ThPa,0.0,-0.0406877,,3,3.0
SrAg2Eu,0.0,-0.0349546,,3,3.0
NiY6Tl2,0.0,-0.0368691,,3,3.0
AgPt4,0.0,-0.0624013,,3,3.0
Br6YCs2,0.0,-0.0262686,,3,3.0
PCaRb,2.1748,-0.0145432,,3,3.0
O3AgGd,0.0,-0.0235934,,3,3.0
Y3RuIn3Sn2,0.0,-0.0329683,,3,3.0
I3Tm,3.2672,-0.0420125,,3,3.0
Zn2BaHg2,0.0,-0.0409576,,3,3.0
O7Na2Ta2Pu,0.0,-0.0273499,,3,3.0
Mg3Al3Si2Co,0.0,-0.0085568,,3,3.0
Mg6RuTe2,0.0,-0.0158491,,3,3.0
CaSrSn,0.4165,-0.0233799999999999,,3,3.0
TmPt2,0.0,-0.0653862,,3,3.0
P2GeBa,0.6937,-0.0205222,,3,3.0
Al2MnEr,0.0,-0.0215002,,3,3.0
Co2In3Lu3,0.0,-0.0379799,,3,3.0
CaScY2,0.0,-0.0198203,,3,3.0
N3NdOs,0.0,-0.0291033,,3,3.0
NO3Br,2.5206,-0.0095695,,3,3.0
LiP2DyAu2,0.0,-0.0357583,,3,3.0
Co2ZnY2,0.0,-0.0209783,,3,3.0
B5Mn3Dy2,0.0,-0.0191927,,3,3.0
PdCdBa2,0.0,-0.035919,,3,3.0
ClCuNd,0.0,-0.0235042,,3,3.0
Al3MnGe2Lu3,0.0,-0.0280036,,3,3.0
CuCePt4,0.0,-0.0574992999999999,,3,3.0
OSAgGd,1.5213,-0.0286254999999999,,3,3.0
CSi2Tb2Ir2,0.0,-0.0389103,,3,3.0
YCd2Sm,0.0,-0.0337403,,3,3.0
AgIn2Tb,0.0,-0.0366812,,3,3.0
H8FeZn2Er,0.0,-0.0104091,,3,3.0
O2Th,4.9994,-0.0403021999999999,,3,3.0
O3GaY,3.2458,-0.0155765,,3,3.0
Ca2NiCu,0.0,-0.0127791,,3,3.0
CuReIr2,0.0,-0.057239,,3,3.0
KTiSe2,0.0,-0.0175035999999999,,3,3.0
Zn2La2Hg,0.0,-0.0367353,,3,3.0
ScCeAu2,0.0,-0.0501315,,3,3.0
Al2YIr3,0.0,-0.0438437,,3,3.0
NiRhDy2,0.0,-0.0370814,,3,3.0
Mn2CoMo,0.0,-0.0222654,,3,3.0
Al2ZnPt2,0.0,-0.0348318,,3,3.0
CaNi4In,0.0,-0.0181151,,3,3.0
O5Co2BaLa,0.0,-0.0187636,,3,3.0
KGa2Pd,0.0,-0.0188648999999999,,3,3.0
AgCd2In,0.0,-0.0313866,,3,3.0
Si2Tb2Ir,0.0,-0.0379797,,3,3.0
Si3CrTh,0.0,-0.0292984,,3,3.0
N2Er2Pt,0.0,-0.0396339,,3,3.0
LiKIn2,0.0,-0.0196082,,3,3.0
GeCdSm,0.0,-0.0319405,,3,3.0
PRbAu2,0.8649,-0.0428884,,3,3.0
ClCoY,0.0,-0.0189685,,3,3.0
Al2MnPa6,0.0,-0.0703042,,3,3.0
P3MnW2,0.0,-0.0318529,,3,3.0
Zn2Ga2Y,0.0,-0.0180954,,3,3.0
SiV6Ge,0.0,-0.0171991,,3,3.0
LiSnBa,0.0,-0.0265159999999999,,3,3.0
HGaGeEu,0.0,-0.0237238,,3,3.0
CoTa2,0.0,-0.0503544,,3,3.0
InHg,0.0,-0.0507892999999999,,3,3.0
ScGaIr,0.0,-0.0349315,,3,3.0
CrRu2Ir,0.0,-0.039904,,3,3.0
Br3RuPr3,0.1462,-0.0333122,,3,3.0
TcRu3,0.0,-0.0349458,,3,3.0
ZnRuPm2,0.0,-0.0344067,,3,3.0
S2CoAg,0.7694,-0.0174104,,3,3.0
As2Pd2Pb,0.0,-0.0365924,,3,3.0
O3PdTb,0.4667,-0.0218514,,3,3.0
C2BrLa2,0.0,-0.0261952,,3,3.0
Si3Fe2Tm3,0.0,-0.0283592,,3,3.0
O7K2SrZr2,0.0,-0.0147461,,3,3.0
MnFe2Th2,0.0,-0.0491768,,3,3.0
CdInDy,0.0,-0.0377435,,3,3.0
Pd2Hf2Tl,0.0,-0.053259,,3,3.0
Cl6Cs2HgBi,0.0,-0.0284093,,3,3.0
LiF6Rb2Rh,2.7103,-0.0125382999999999,,3,3.0
CoSeI,0.5368,-0.0249333999999999,,3,3.0
Ga3Tb2Ir2,0.0,-0.0416126999999999,,3,3.0
BSmPt4,0.0,-0.056357,,3,3.0
NFeNb,0.0,-0.0209607,,3,3.0
F8BaGd2,6.2289,-0.0211596,,3,3.0
H4AsI,3.9595,-0.0117525999999999,,3,3.0
AlSi2Zr2,0.0,-0.0186136,,3,3.0
NaMgS4As,2.4235,-0.0104959,,3,3.0
AsCd7,0.0,-0.0290764999999999,,3,3.0
LiK2Au3,0.0,-0.0381606,,3,3.0
YRh2La,0.0,-0.0354571,,3,3.0
N2NdTa,0.0,-0.0335726,,3,3.0
ClScMn,0.0,-0.014613,,3,3.0
Ta2Os3,0.0,-0.0699912,,3,3.0
S6KFe4Cs,0.0,-0.0154052,,3,3.0
GaRh2Ba,0.0,-0.0313604,,3,3.0
RhTe,0.0,-0.035938,,3,3.0
Be2Zr2Pt,0.0,-0.0288005,,3,3.0
CdSb2Hf6,0.0,-0.0537601999999999,,3,3.0
LiSe2Pd,0.0,-0.0194724,,3,3.0
Mg2LaAu2,0.0,-0.0391561999999999,,3,3.0
HO5PZn2,3.8572,-0.0099432,,3,3.0
Li2Ge2SrCd2,0.0,-0.0184107,,3,3.0
O3ScCu,0.077,-0.0117809,,3,3.0
LiLa2Ir,0.0,-0.0404188,,3,3.0
Co2Tb3Tl3,0.0,-0.0492492,,3,3.0
MgCuBa,0.0,-0.0199154,,3,3.0
MgCu2Tb,0.0,-0.0207906,,3,3.0
MgRuOs,0.0,-0.0371931999999999,,3,3.0
RhIn2Ba,0.0,-0.0355799,,3,3.0
SiIGd,0.0,-0.0362473,,3,3.0
NbHfBi,0.0,-0.0582719,,3,3.0
O3NaMn2,0.0,-0.0119152,,3,3.0
Co4GaGe3,0.0,-0.0180274,,3,3.0
TiCo4Zr,0.0,-0.019497,,3,3.0
Cr4Ni5,0.0,-0.0170504,,3,3.0
Co2NiGa,0.0,-0.0169318,,3,3.0
B4O12Fe3La,1.4674,-0.0125467,,3,3.0
SiFe2Ru,0.0,-0.0206752,,3,3.0
Al3ZnDy2,0.0,-0.0225748,,3,3.0
O3Na2Sn,3.2635,-0.0124111999999999,,3,3.0
MgSn2Ho,0.0,-0.0319141,,3,3.0
YPdInAu,0.0,-0.0416594,,3,3.0
BrSm,0.0,-0.0333547,,3,3.0
O6ZrBa2W,0.0,-0.0247213999999999,,3,3.0
O6MgCa2Pd,0.0,-0.0114266,,3,3.0
O6NbBa2Np,0.0,-0.0287032999999999,,3,3.0
Si2TmIr3,0.0,-0.0485942,,3,3.0
Li2O8Cr3W,0.0,-0.0152116,,3,3.0
Ga3RuLu2,0.0,-0.0332041,,3,3.0
O8P2InBa,0.0,-0.0144224,,3,3.0
Cd2PtPb,0.0,-0.0518648,,3,3.0
MgS2Zn,3.4056,-0.0107178,,3,3.0
Sn2CeHo,0.0,-0.0420531,,3,3.0
HF2Rb,7.5507,-0.0101929999999999,,3,3.0
MgPdTh,0.0,-0.0451938,,3,3.0
Cu2InLa,0.0,-0.0270708,,3,3.0
ZnZrIr,0.0,-0.0392367,,3,3.0
CoZnSb,0.0,-0.0227083,,3,3.0
LiAlPr2,0.0,-0.0244056,,3,3.0
NbTe2,0.0,-0.0363622,,3,3.0
NiLa2Os,0.0,-0.0437585,,3,3.0
SnTe3Pt2,0.0,-0.048519,,3,3.0
O6Sr2RhCe,0.0,-0.0186793,,3,3.0
Si2AuTh,0.0,-0.0468931,,3,3.0
LiPr2Os,0.0,-0.0403554,,3,3.0
OZr3Ru,0.0,-0.0281189999999999,,3,3.0
SbLaAu4,0.0,-0.0600551,,3,3.0
Zn3RbPt,0.0,-0.0266465,,3,3.0
SiClLa,0.0,-0.0219833,,3,3.0
ScTe2Cs,1.0741,-0.033037,,3,3.0
CoZr6Pb2,0.0,-0.039612,,3,3.0
F6K2AsAg,2.5087,-0.0111911,,3,3.0
Cu4CdNd,0.0,-0.0226839,,3,3.0
YRu2Hf,0.0,-0.0406843999999999,,3,3.0
Mg2ZrTl,0.0,-0.0284883999999999,,3,3.0
O2CuGd,2.7354,-0.0241171,,3,3.0
Fe2As2Pr,0.0,-0.0245971,,3,3.0
LiF4Eu,0.7341,-0.0153095,,3,3.0
LiNi7,0.0,-0.0144542,,3,3.0
Mn5Os,0.0,-0.0273392,,3,3.0
Zn3Rh2Th,0.0,-0.0346015,,3,3.0
BGa2Ru2Lu,0.0,-0.0281651999999999,,3,3.0
Ga5NdPt2,0.0,-0.0340228,,3,3.0
ZnGa6Th,0.0,-0.0262086,,3,3.0
O6TiHfPb2,2.6298,-0.0293921,,3,3.0
H4NCuTe4W,0.5542,-0.0234783,,3,3.0
NF6Pr3,3.9576,-0.0198595,,3,3.0
AsPd3In2,0.0,-0.031379,,3,3.0
Cl2AsEu2,0.0,-0.0307479,,3,3.0
H2Mn2Ga,0.0,-0.0121349,,3,3.0
CdLaHg,0.0,-0.0478507,,3,3.0
LiGe2Hf2,0.0,-0.0337344999999999,,3,3.0
RuHo3,0.0,-0.0458395999999999,,3,3.0
MgHoTl2,0.0,-0.0500341,,3,3.0
Au2HgBi2,0.0,-0.0726371,,3,3.0
MnNiRh2,0.0,-0.0256704,,3,3.0
Cu4GaZr,0.0,-0.0181577,,3,3.0
ONd,0.0,-0.0279045999999999,,3,3.0
AlScCuPt,0.0,-0.0278383,,3,3.0
AgIrAc2,0.0,-0.0713047,,3,3.0
S3NiSrDy,0.0,-0.0210345,,3,3.0
Cu2ZrRh,0.0,-0.0241955999999999,,3,3.0
Ru2WRe,0.0,-0.0525983,,3,3.0
O2PdAu,0.0,-0.028973,,3,3.0
Li2YTl2,0.0,-0.035898,,3,3.0
GeGdAu2,0.0,-0.0548476,,3,3.0
ZnAg2Hf,0.0,-0.0347694,,3,3.0
Al3Sc3Ge2Pd,0.0,-0.0161069,,3,3.0
Li2RhSb,0.0,-0.0195973,,3,3.0
Al3Sr2Ir2,0.0,-0.0307566,,3,3.0
Mg2CdIr,0.0,-0.0282387,,3,3.0
CuZnAs2Tb,0.0,-0.0239292,,3,3.0
Li3Eu,0.0,-0.015139,,3,3.0
PdSmPb,0.0,-0.0518858,,3,3.0
O6Sb2Ba,3.5573,-0.0188918,,3,3.0
B2Ni2Cu,0.0,-0.0126318,,3,3.0
SnErTa,0.0,-0.0513994,,3,3.0
ZrHg,0.0,-0.0498006999999999,,3,3.0
Sn2Hf6Ir,0.0,-0.0582662,,3,3.0
SnSmAu,0.3793,-0.0509538999999999,,3,3.0
LiCuAu2,0.0,-0.03935,,3,3.0
EuErPb2,0.0,-0.0645337,,3,3.0
O6NiBa2Sm,0.0,-0.020142,,3,3.0
Ru2PrPa,0.0,-0.0536954,,3,3.0
AsSe2CdI,1.0502,-0.0258477,,3,3.0
SeI2Ba2,3.0236,-0.0365886,,3,3.0
AsZr2Te2,0.0,-0.0323248,,3,3.0
NaS3ZrRh,0.0,-0.0175309999999999,,3,3.0
Sr2CdBa,0.0,-0.0288303,,3,3.0
YSbEu,0.0,-0.0405451,,3,3.0
CoIn5Th,0.0,-0.0402406,,3,3.0
O4CdW,3.3097,-0.022853,,3,3.0
Sc5Y3,0.0,-0.0192381,,3,3.0
SrTa2Ir2,0.0,-0.0601826,,3,3.0
Be4MnOs,0.0,-0.0183726,,3,3.0
Cl6Cs2Ta,0.0,-0.0229773,,3,3.0
Al4NiHo,0.0,-0.0166360999999999,,3,3.0
MnOs2Ir,0.0,-0.0583918,,3,3.0
F6ScCu,2.0289,-0.0092498,,3,3.0
CaSe3ErAu,1.3604,-0.03314,,3,3.0
GaPd2Ba,0.0,-0.0310826,,3,3.0
H4Ti2Co,0.0,-0.0094083,,3,3.0
MnGa2Y6,0.0,-0.024556,,3,3.0
BrLa2Os,0.0,-0.0453814,,3,3.0
CoInTm,0.0,-0.0345006,,3,3.0
O6Sr2DyAu,2.5176,-0.0222284,,3,3.0
Cu2GeY,0.0,-0.0198578,,3,3.0
Li2Ni2Ge2Pr,0.0,-0.0174232,,3,3.0
FeTb6Pb2,0.0,-0.050445,,3,3.0
NaSi2Pt2,0.0,-0.0336234,,3,3.0
V2RuOs,0.0,-0.0358256999999999,,3,3.0
ScZnRu,0.0,-0.0213235999999999,,3,3.0
RhCdSm,0.0,-0.0368716,,3,3.0
TiGaRuRh,0.0,-0.0261978,,3,3.0
MgScIr,0.0,-0.0308827,,3,3.0
C5Al4Zr2,0.0,-0.0134988,,3,3.0
ClFeLa,0.0,-0.0241747,,3,3.0
Ni8Ir,0.0,-0.0222711,,3,3.0
CGe2Y2Mo2,0.0,-0.0254759,,3,3.0
F6NaInTl2,4.796,-0.0228245,,3,3.0
Zn7Ir,0.0,-0.0208165,,3,3.0
OClPm,5.186,-0.0228149,,3,3.0
ZnOs2U2,0.0,-0.0730678,,3,3.0
LiBNi,0.0,-0.0089857,,3,3.0
Na2As2Ag,0.0,-0.0163989,,3,3.0
AgTe4Au,0.0,-0.0416985,,3,3.0
CaTa2Os2,0.0,-0.0576165,,3,3.0
P2Fe,0.8168,-0.0134804,,3,3.0
AlPd2La,0.0,-0.0300986,,3,3.0
MnBrNd,0.0,-0.0279704,,3,3.0
N3VZn2,1.4368,-0.0126654,,3,3.0
OF5CrRb2,1.6065,-0.0120759,,3,3.0
Cl2Sc,0.0183,-0.0122028,,3,3.0
F6MgRh,0.3237,-0.0099738,,3,3.0
CTb2Bi,0.0,-0.0462475,,3,3.0
B2O6CaIn,0.0,-0.0119632,,3,3.0
TiPd2,0.0,-0.0279015,,3,3.0
F6AlTl,3.8254,-0.0154965,,3,3.0
NiRuPt,0.0,-0.0403697,,3,3.0
CaHf2Pt2,0.0,-0.0561980999999999,,3,3.0
S3CaAgEr,1.9604,-0.0217874,,3,3.0
GaInBa2,0.0,-0.0326234,,3,3.0
SbDyLu,0.0,-0.0475789,,3,3.0
Br3Ac,4.5708,-0.0395393,,3,3.0
PTiHo,0.0,-0.0262924,,3,3.0
O4NaSiCa,0.5333,-0.0096318,,3,3.0
F8Cu2Er,0.0,-0.0125313,,3,3.0
CaScTe2,0.0,-0.0260814999999999,,3,3.0
S2Mo3Te4,0.0,-0.0307517,,3,3.0
O3BaBi,0.0,-0.0292648,,3,3.0
MnBrDy,0.0,-0.0294696999999999,,3,3.0
B2NiRu2,0.0,-0.0203627,,3,3.0
O2CaCd,0.8882,-0.0153859999999999,,3,3.0
Ca2InIr2,0.0,-0.0395706,,3,3.0
NiHg4,0.0,-0.0577713,,3,3.0
ScPdIn,0.0,-0.0276734,,3,3.0
N3RhPr,0.0,-0.0215922,,3,3.0
PCl6RbCs2,3.2367,-0.0170075,,3,3.0
C3W2Pa2,0.0,-0.0530135,,3,3.0
YZr2Os,0.0,-0.0406071999999999,,3,3.0
CaIn5Ir,0.0,-0.0357954999999999,,3,3.0
Li4As2Lu,0.0,-0.0159216,,3,3.0
Se6RhTa2,0.0,-0.0326374,,3,3.0
Li2O8Mn3Cu,0.0,-0.0109212,,3,3.0
PSOs,1.176,-0.0311965,,3,3.0
O6ZnRuLa2,0.4054,-0.0198019,,3,3.0
Si2Au2Pa,0.0,-0.0519906,,3,3.0
S2V,0.0,-0.0132447,,3,3.0
LiBeBO3,6.9019,-0.0082108,,3,3.0
CoTc2Ru,0.0,-0.0305436,,3,3.0
O4MnRh2,1.485,-0.0171474,,3,3.0
Zn5Ga3,0.0,-0.0145028,,3,3.0
Li2ScZn2,0.0,-0.0093853,,3,3.0
AlZrTc2,0.0,-0.0275847,,3,3.0
Al2Ga2Er,0.0,-0.0201278,,3,3.0
O4SbOs,0.0,-0.0234756,,3,3.0
CuGd,0.0,-0.0371796,,3,3.0
NiTb3,0.0,-0.0393342,,3,3.0
CSr,0.0,-0.0162511,,3,3.0
Ag2Eu2Pb,0.0,-0.0496294,,3,3.0
Si2Cu2Sm,0.0,-0.0196144,,3,3.0
Te5Tl,0.0,-0.0431276,,3,3.0
Ca3SrRh,0.0,-0.0172393,,3,3.0
H4O10MgP2Ca2,6.2638,-0.0088625,,3,3.0
Mn2ITm2,0.0,-0.0358471,,3,3.0
CdNdPt,0.0,-0.0490646,,3,3.0
B3CNb3,0.0,-0.019524,,3,3.0
Si2Sc3,0.0,-0.0133056,,3,3.0
Li2PIr2,0.0,-0.032022,,3,3.0
PdPt2U,0.0,-0.0698143,,3,3.0
OCa3Cd,0.0,-0.0145844,,3,3.0
F8Na2ScSr,0.0,-0.0094703,,3,3.0
HCoPd3,0.0,-0.0238461,,3,3.0
F8BaNp2,0.0,-0.0294316,,3,3.0
CuSbPr,0.0,-0.0327888,,3,3.0
LiBe2Pd2,0.0,-0.0159433,,3,3.0
PIBa2,1.4279,-0.0331906,,3,3.0
B6Co2Pu,0.0,-0.0214122,,3,3.0
Si2CoTb,0.0,-0.0217832,,3,3.0
Al6YPt,0.0,-0.0187173,,3,3.0
O4SiHf,5.9587,-0.0197598999999999,,3,3.0
ScSnPt,0.0,-0.0413181,,3,3.0
MnGe2Pr,0.0,-0.0255356,,3,3.0
CaCuI,0.0,-0.0213849,,3,3.0
Mg6Sr2Sn3,0.0,-0.0169342,,3,3.0
Co2Nb4In5,0.0,-0.030411,,3,3.0
BeO4Al2,7.2058,-0.0096852999999999,,3,3.0
O8V2Rb3Ho,3.7343,-0.0168219,,3,3.0
Co2Ge2Pu,0.0,-0.0368814,,3,3.0
Al2RuTb,0.0,-0.0249524,,3,3.0
CaMnSe3Rb,0.0,-0.0195543,,3,3.0
PTmPt,0.0,-0.0456894,,3,3.0
F6Rb3La,6.491,-0.0161253,,3,3.0
Se2CsPr,2.1988,-0.0323052,,3,3.0
NiBrTl3,0.0,-0.0508656,,3,3.0
SnTmIr,0.0,-0.0539602,,3,3.0
KScCuSe3,0.0,-0.0175993,,3,3.0
F6BaAu,0.926,-0.0185156,,3,3.0
AlLaAu,0.0,-0.0409806,,3,3.0
SiScRu,0.0,-0.0206966,,3,3.0
BZr,0.0,-0.0198,,3,3.0
SiFe3Er2,0.0,-0.0278526999999999,,3,3.0
Sr4Rh2Tl5,0.0,-0.0475178,,3,3.0
YTaOs2,0.0,-0.0599859,,3,3.0
O6FeSr2Dy,0.6022,-0.0175609,,3,3.0
Ti2VIr,0.0,-0.0309333,,3,3.0
Ti2Ir2Au,0.0,-0.0495231,,3,3.0
CaY2Os,0.0,-0.0345298,,3,3.0
InSb3,0.0,-0.0362923,,3,3.0
Ag3Sb2Cs3,1.4668,-0.0356702999999999,,3,3.0
Al6Ag5,0.0,-0.0185550999999999,,3,3.0
NiIr8,0.0,-0.0649695,,3,3.0
S3KMnTb,0.9042,-0.0188207,,3,3.0
B4Co5Tm2,0.0,-0.0205105,,3,3.0
HCNO,5.0689,-0.0079681,,3,3.0
PCoSr,0.0,-0.0173767999999999,,3,3.0
Mg2LaPt,0.0,-0.0316756,,3,3.0
H4Cr3Fe,0.0,-0.0108645999999999,,3,3.0
Pd2Nd,0.0,-0.0372052,,3,3.0
LiO8YMo3,1.5828,-0.0167439,,3,3.0
Al6Ge2Pd,0.0,-0.0132704,,3,3.0
Mg2NiZn,0.0,-0.0100794,,3,3.0
O3RhDy,1.6071,-0.0225502,,3,3.0
NiSn2Th6,0.0,-0.0741294,,3,3.0
S3Cr2Ba,0.0,-0.0187191,,3,3.0
ScRbTe3Au,0.0,-0.0369279,,3,3.0
Ni4InLu,0.0,-0.025985,,3,3.0
O3LaBi,3.3971,-0.0304906,,3,3.0
Ca3Pt,0.0,-0.0254298,,3,3.0
ZrPd2Hf2,0.0,-0.0449294,,3,3.0
Cl4Co,0.0,-0.0103593,,3,3.0
Mg2YLa,0.0,-0.0203491,,3,3.0
Er3Hg,0.0,-0.0551049999999999,,3,3.0
B2N3Co2Zr3,0.0,-0.0182333,,3,3.0
Te2LuAu,0.1976,-0.0506847,,3,3.0
Li2NiPt,0.0,-0.0231891,,3,3.0
H2O5NiSe,2.4912,-0.0092788,,3,3.0
S3SrZr,1.5215,-0.0184444,,3,3.0
GaRbBi,0.0,-0.0388799,,3,3.0
SrIn3Ir2,0.0,-0.0444774,,3,3.0
ZnSr2In,0.0,-0.0232547,,3,3.0
NbMo,0.0,-0.0341252,,3,3.0
F6Rb2Rh,0.4111,-0.0131516,,3,3.0
Rh4DyHg,0.0,-0.0422253,,3,3.0
TiCrTc2,0.0,-0.0264612,,3,3.0
C2ITh2,0.0,-0.0503556,,3,3.0
Se8AgNd5,1.6454,-0.0311922,,3,3.0
O6SbBa2U,1.3628,-0.0285412,,3,3.0
O7ScGe2Tm,4.7042,-0.01627,,3,3.0
Li2O8Fe3Sn,0.0,-0.0121156,,3,3.0
BeAs2Cs4,1.2853,-0.0285271,,3,3.0
CaSn2Pt2,0.0,-0.0452485,,3,3.0
AlZn2Sm,0.0,-0.020252,,3,3.0
LaHg7,0.0,-0.0652348,,3,3.0
OCl2Mo,0.0,-0.0156377,,3,3.0
CuPd2La3,0.0,-0.0356048,,3,3.0
Cr3Nb2Os,0.0,-0.0323506,,3,3.0
TiNiZn,0.0,-0.0156183,,3,3.0
GeRh2Hf,0.0,-0.0382884,,3,3.0
RbAg2Ba2,0.0,-0.0326373,,3,3.0
Ga2Lu2Hg,0.0,-0.0429699,,3,3.0
CaNi2Sn2,0.0,-0.023188,,3,3.0
S2RbZr,0.0,-0.0193805,,3,3.0
LaHoTl2,0.0,-0.0597749,,3,3.0
N3BrSr,4.1987,-0.0148125,,3,3.0
NiRu2Dy3,0.0,-0.0386696,,3,3.0
MgCoSn2,0.0,-0.0235797999999999,,3,3.0
Ga3Ge2La3Ir,0.0,-0.0328313,,3,3.0
Li2CaLa,0.0,-0.0143282,,3,3.0
Ru2Ce3Au,0.0,-0.0458778,,3,3.0
SrIn2Lu,0.0,-0.0365847,,3,3.0
H3PtU,0.0,-0.0370843,,3,3.0
Zn2InPa2,0.0,-0.0519768,,3,3.0
Co2La3Pb3,0.0,-0.0493631999999999,,3,3.0
Si5Tb2Ir3,0.0,-0.0367971,,3,3.0
Cd2DyTh,0.0,-0.0513613,,3,3.0
MgCo2Nb,0.0,-0.0182454,,3,3.0
RuEr2,0.0,-0.0456745,,3,3.0
AlCu2Pa2,0.0,-0.0475935,,3,3.0
As2Se6SnTl2,0.7859,-0.0313492,,3,3.0
Li2BaHg,0.0,-0.0284956,,3,3.0
MgMnZn4,0.0,-0.0130582999999999,,3,3.0
LiGa2Y2,0.0,-0.0187267,,3,3.0
Li2F8CaY,0.0,-0.0094037,,3,3.0
AgSb3,0.0,-0.0357162,,3,3.0
LiNi2Sb2Hf,0.0,-0.029137,,3,3.0
Al3Si2Tm3Os,0.0,-0.0308954,,3,3.0
Mg2As2Nd,0.0,-0.0198081999999999,,3,3.0
BeRuRh2,0.0,-0.0270261,,3,3.0
N2NiDy2,0.0,-0.0276014,,3,3.0
IrNp2,0.0,-0.0952017,,3,3.0
Ni2As4Ba,0.0,-0.0223492,,3,3.0
AlScHg,0.0,-0.0306312,,3,3.0
N2Ga3Nd7,0.0,-0.0319153,,3,3.0
SiZrPd,0.0,-0.0255899,,3,3.0
GaSb2Tm6,0.0,-0.0453695,,3,3.0
O8NaS2V,0.5522,-0.0095313999999999,,3,3.0
CaPd2Ag3,0.0,-0.0285313,,3,3.0
BeY2Pt,0.0,-0.0333894999999999,,3,3.0
NiGe3Tm,0.0,-0.0256845,,3,3.0
F4PdPb,1.522,-0.0223686,,3,3.0
ZrCdTl2,0.0,-0.0515662999999999,,3,3.0
Al2Y2Tl,0.0,-0.0292349,,3,3.0
OTi2Zr,0.0,-0.0188158,,3,3.0
B2CrHf2,0.0,-0.0323299,,3,3.0
CrMn,0.0,-0.0182896,,3,3.0
SePdI,0.0,-0.0301585,,3,3.0
ZnTbHg,0.0,-0.0433755,,3,3.0
Be2AlFe,0.0,-0.0088512,,3,3.0
Al3ZnGe2Eu3,0.0,-0.0267717,,3,3.0
Li2Sn2Au,0.0,-0.029722,,3,3.0
Mg2ScPm,0.0,-0.0171167,,3,3.0
RbSbCs2,0.4259,-0.0338833,,3,3.0
YSbDy,0.0,-0.0385506,,3,3.0
ScRh2Er,0.0,-0.0341348,,3,3.0
O3CaFe,0.0,-0.0115996,,3,3.0
FeSb2Nd6,0.0,-0.0399126,,3,3.0
Al4HoAu,0.0,-0.0254447,,3,3.0
Be2AsBr,2.5059,-0.0125051,,3,3.0
In5BaPt2,0.0,-0.0440302,,3,3.0
AlK2Se3,0.0,-0.0152703,,3,3.0
Si2Pd2Ce,0.0,-0.0269907,,3,3.0
AsSrPb2,0.0,-0.049066,,3,3.0
NBr2Hf2,0.0,-0.0361993,,3,3.0
N2KMo,0.0,-0.0160021,,3,3.0
Ni2InLa2,0.0,-0.0308641,,3,3.0
AlSe,1.7068,-0.0147391,,3,3.0
RhIr2Pt,0.0,-0.0615491,,3,3.0
I4BaEu,1.016,-0.0418688,,3,3.0
Ga2PdCd,0.0,-0.0242894,,3,3.0
FeI4Au2,0.0411,-0.0433825,,3,3.0
Sn2Ho6Ir,0.0,-0.0493081999999999,,3,3.0
Li2AlZn2,0.0,-0.0080465,,3,3.0
CaCdSn,0.0,-0.0259640999999999,,3,3.0
O4AlNi2,0.0,-0.0112658,,3,3.0
Mg2Sn2Pb,0.0,-0.0315305,,3,3.0
O3YCs2,0.0,-0.0225265999999999,,3,3.0
CuIn5La,0.0,-0.0325211,,3,3.0
Cu2Zr,0.0,-0.0205707999999999,,3,3.0
Li2SiRu,0.0,-0.0127516,,3,3.0
GaZrRh,0.0,-0.027926,,3,3.0
Ga2RbTl2,0.0,-0.0397593,,3,3.0
F6K3V,0.0,-0.0094659999999999,,3,3.0
Si4Y3Os4,0.0,-0.0381299,,3,3.0
Al4CrPr,0.0,-0.0157922,,3,3.0
NiHo2Pt2,0.0,-0.0520462,,3,3.0
H6AlCs2Tl,1.3369,-0.0178477,,3,3.0
PK2Tl,0.188,-0.0251917,,3,3.0
Al2RuIr,0.0,-0.0314899,,3,3.0
Cl4Tl,1.7027,-0.021414,,3,3.0
Co2ZnZr2,0.0,-0.0222257,,3,3.0
S3GaTl,0.8658,-0.0239167,,3,3.0
CaGaAu2,0.0,-0.0418175,,3,3.0
NFCa6Ga2,0.0,-0.011472,,3,3.0
Rh5Os,0.0,-0.0400842999999999,,3,3.0
Rh2PrPb2,0.0,-0.052923,,3,3.0
PCaPd,0.0619,-0.0187490999999999,,3,3.0
MgGaTb2,0.0,-0.0290926,,3,3.0
Ga6DyIr,0.0,-0.0276451,,3,3.0
Ca2Ni2Ga,0.0,-0.013964,,3,3.0
NiBiTh,0.0,-0.0640987,,3,3.0
AlCd2Pr,0.0,-0.0284011,,3,3.0
C2Sc3Pb,0.0,-0.0237561,,3,3.0
SAsLa,0.149,-0.0261822,,3,3.0
PCo5Ge,0.0,-0.0166995,,3,3.0
O4Al2Fe,0.0,-0.0111185,,3,3.0
Ni2In5Dy4,0.0,-0.0360758999999999,,3,3.0
MnPd2In,0.0,-0.0298959,,3,3.0
O4S2Cu2PrBi2,0.0,-0.0264242999999999,,3,3.0
SbHo2,0.0,-0.0459418999999999,,3,3.0
Mg3Al3Ge2Ir,0.0,-0.0168656,,3,3.0
Na2Ge2Pt,0.0,-0.0238222999999999,,3,3.0
Si3FeY,0.0,-0.0157355,,3,3.0
RbTlBi,0.0,-0.0575778,,3,3.0
AlZnHf,0.0,-0.0284251,,3,3.0
O3NaKZr,4.3197,-0.0130627,,3,3.0
CeTbIr2,0.0,-0.05921,,3,3.0
PRhU,0.0,-0.0500829999999999,,3,3.0
O4Cu2Ho,0.0,-0.0168649,,3,3.0
CaPd5,0.0,-0.0293018,,3,3.0
TiSb5Pr3,0.0,-0.0379422,,3,3.0
S2InSb,0.0,-0.0228541999999999,,3,3.0
Be2ScPt2,0.0,-0.0336944999999999,,3,3.0
NSnTb3,0.0,-0.038314,,3,3.0
MgIn3,0.0,-0.0263547,,3,3.0
SiSe4SrAg2,0.437,-0.0227573,,3,3.0
CS2CuNb2,0.0,-0.01924,,3,3.0
SSePrSm,0.0,-0.0314935,,3,3.0
Al2SSe2,3.0129,-0.0140884,,3,3.0
Na2ZnPb,0.0,-0.0246652999999999,,3,3.0
C5Ni2Lu4,0.0,-0.028193,,3,3.0
MgAl3Th,0.0,-0.0250473,,3,3.0
Mg2Ge2Pu,0.0,-0.0318892999999999,,3,3.0
O2CaZn,2.53,-0.0113051,,3,3.0