formula,bg,formation_energy,mp-id,fidelity,bg_category
GaHoAu,0.0,-0.0458788,,3,3.0
Sb2Ir,0.635,-0.0490240999999999,,3,3.0
AsIrU,0.0,-0.0655934,,3,3.0
Li4SrBi2,0.6762,-0.0277149,,3,3.0
SrIn2Ir2,0.0,-0.0466907,,3,3.0
NiOs,0.0,-0.0439398,,3,3.0
GaHg2Pb,0.0,-0.0569717,,3,3.0
Se2SrIn,0.0,-0.0253095,,3,3.0
Al5CoCe,0.0,-0.0147844999999999,,3,3.0
O8P2NbCs,2.9719,-0.0144106,,3,3.0
CaCu2Rh3,0.0,-0.023694,,3,3.0
Ru3Pt5,0.0,-0.0568877999999999,,3,3.0
O6Sr2YSb,4.6749,-0.0176743,,3,3.0
Cl2Pt,1.5273,-0.0291833,,3,3.0
Rh2InHf2,0.0,-0.0461141,,3,3.0
MnGe3Pr,0.0,-0.0242435,,3,3.0
Cu4ZnZr,0.0,-0.0177066,,3,3.0
Na3KTl,0.0,-0.0187331,,3,3.0
Li2O3Pu,0.0,-0.0248982999999999,,3,3.0
F4Cs2Dy,0.0,-0.0229659,,3,3.0
F6CeLu,0.0,-0.0193875,,3,3.0
CEr2Tl,0.0,-0.0463476,,3,3.0
ZnRu2Hf3,0.0,-0.0459285,,3,3.0
O2NaCo,2.1871,-0.0101963,,3,3.0
Si3Zn6Lu2,0.0,-0.0205028,,3,3.0
Al3Si2NiLu3,0.0,-0.0258288,,3,3.0
HTi3Pb,0.0,-0.0258184,,3,3.0
SrCd2In2,0.0,-0.0303851,,3,3.0
O5F8Bi6,3.2491,-0.0298489,,3,3.0
Be2LaAu2,0.0,-0.0387164,,3,3.0
RuDy3,0.0,-0.0449259,,3,3.0
Ag2CdTm2,0.0,-0.0397325,,3,3.0
Ca2ZnHg,0.0,-0.0257593,,3,3.0
Cu2CdTm,0.0,-0.0283988,,3,3.0
NCa6SeSn2,0.0,-0.0170033,,3,3.0
V2Ga4Hf,0.0,-0.0237509,,3,3.0
Ni2Zn3Np,0.0,-0.0300309,,3,3.0
SeSbPb2,0.0,-0.0524617999999999,,3,3.0
BO3NaCo,1.2846,-0.0099157,,3,3.0
Rh2CdSn,0.0,-0.0338041,,3,3.0
Li4P2Pu,0.0,-0.0208015,,3,3.0
As3Pb5,0.0,-0.0548353,,3,3.0
S7Lu5,0.0,-0.0309822999999999,,3,3.0
TlPb2,0.0,-0.0746512,,3,3.0
GeSm2,0.0,-0.0366786,,3,3.0
Cu3EuPt2,0.0,-0.0404059,,3,3.0
HgPbTh2,0.0,-0.0843249,,3,3.0
SIHo,2.8849,-0.0337952,,3,3.0
SiEuPt,0.0,-0.0457154,,3,3.0
MgAlPd2,0.0,-0.0205013,,3,3.0
CBrCe,0.0,-0.0259077,,3,3.0
PdInPa,0.0,-0.0557311,,3,3.0
SiTb2Ir2,0.0,-0.0502732,,3,3.0
LiF6YCs2,8.5862,-0.0162724,,3,3.0
LiMnNiGa,0.0,-0.0136694,,3,3.0
CdCs2Pt,0.0,-0.0441666,,3,3.0
F4KBr,3.6518,-0.0087332,,3,3.0
Co3Pt,0.0,-0.0306659,,3,3.0
Li2Sn,0.0,-0.0139934999999999,,3,3.0
P2Rh2Ba,0.0,-0.0266605,,3,3.0
SiCo2Pa,0.0,-0.0364887,,3,3.0
NbPd5,0.0,-0.033195,,3,3.0
Al3Mn2,0.0,-0.0122871,,3,3.0
Ca2CdIn,0.0,-0.0213249,,3,3.0
CoGa2Tb6,0.0,-0.0370608999999999,,3,3.0
SiTmW,0.0,-0.0443214,,3,3.0
ClCa2Tl,0.0,-0.0261774,,3,3.0
Li9O8Co2,0.0,-0.0073405,,3,3.0
O6Ba2EuPt,0.0,-0.0263366,,3,3.0
BSe3Rb,1.8367,-0.0183514,,3,3.0
Br4PdCs,0.0,-0.0256240999999999,,3,3.0
C2Br5Y4,0.0,-0.0223586,,3,3.0
ScMn4Re,0.0,-0.0263595,,3,3.0
CSi2Ru2Tm2,0.0,-0.0299112,,3,3.0
Na7Sn2,0.0,-0.011444,,3,3.0
Sr3SbI3,1.502,-0.0322847999999999,,3,3.0
Mn4ZrRe,0.0,-0.0291301,,3,3.0
AgPtHg,0.0,-0.0565267,,3,3.0
SiSY,0.0,-0.0172585,,3,3.0
Li3NdBi2,0.0,-0.0354294,,3,3.0
ClK2I,4.9253,-0.0172021,,3,3.0
O6MgPr2W,0.1246,-0.0228771999999999,,3,3.0
MnZr6Bi2,0.0,-0.0403408,,3,3.0
N2CoSr2,0.0,-0.0167653,,3,3.0
SiK2As,0.0,-0.0120197,,3,3.0
OPCdPr,1.5663,-0.0244966,,3,3.0
O3RhGd,1.4394,-0.0246543,,3,3.0
CuGa5Tb,0.0,-0.0209179,,3,3.0
BeSiSb2,0.5342,-0.0221495,,3,3.0
Li2NaAs2,0.0,-0.0104098,,3,3.0
ScY2Pd2,0.0,-0.0279256,,3,3.0
In3Ir2Th3,0.0,-0.0670569,,3,3.0
O3CoGe,1.1274,-0.0125665999999999,,3,3.0
Ti6FeSe2,0.0,-0.0178284999999999,,3,3.0
Al4Nb2Hf,0.0,-0.0232441,,3,3.0
Mg2SrHg2,0.0,-0.0342597,,3,3.0
SnLa3,0.0,-0.0418763999999999,,3,3.0
NaAsIn2,0.0,-0.0230478,,3,3.0
Al9SrRu2,0.0,-0.0139722,,3,3.0
CuCs2Bi,1.1521,-0.042635,,3,3.0
Al6LaNd,0.0,-0.0171188,,3,3.0
PdHo2Tl,0.0,-0.0514951,,3,3.0
C3NSi3Ga,3.0384,-0.011149,,3,3.0
N2TiHo,0.0,-0.0228220999999999,,3,3.0
ZnAg2Ba,0.0,-0.0291677,,3,3.0
Pd2LaEu,0.0,-0.0413715,,3,3.0
O6YSbBa2,4.6071,-0.0211208999999999,,3,3.0
CTeTb2,0.0,-0.0362267,,3,3.0
K2Se4Pd3,1.0194,-0.0225085,,3,3.0
LiO6Si2Ni,1.026,-0.0099721,,3,3.0
O2MgZn,2.2098,-0.0100004,,3,3.0
Se2Zr6Pd,0.0,-0.0294028,,3,3.0
In5NdIr2,0.0,-0.0444874,,3,3.0
H4BNa,6.6837,-0.0046415,,3,3.0
P2CoPr,0.0,-0.0213455,,3,3.0
ZnBrPr,0.0,-0.0266243,,3,3.0
H8N2Br6Re,1.3481,-0.0143019999999999,,3,3.0
O5Br2Sb4,2.5187,-0.0211628,,3,3.0
HHo,0.0,-0.0267927,,3,3.0
S3FeZrTl,0.0,-0.0261136,,3,3.0
Si3La2Au,0.0,-0.0318548,,3,3.0
NaPd2Ac,0.0,-0.040515,,3,3.0
F6ScSm,7.6202,-0.0142186,,3,3.0
MgCu4Tl,0.0,-0.023029,,3,3.0
V2Co9W,0.0,-0.0216716,,3,3.0
Dy2Pt2Pb,0.0,-0.0635895,,3,3.0
Ga6RhBa,0.0,-0.0219443,,3,3.0
BeGeRh2,0.0,-0.0234377,,3,3.0
RuIn3Tb2,0.0,-0.0385938,,3,3.0
F6Rb3Ce,0.9399,-0.0162408,,3,3.0
H8Mg2FeHo,0.0,-0.009101,,3,3.0
H13O9MgP,6.3203,-0.0062282,,3,3.0
Si2AgTb,0.0,-0.0250284,,3,3.0
Y3Ir,0.0,-0.0392613,,3,3.0
Al2Pd2Ho,0.0,-0.0270075,,3,3.0
F7Ca2Tb,7.4688,-0.0133137,,3,3.0
Se4BaAu2Pb,0.0,-0.0424366,,3,3.0
H3ClSr2,2.395,-0.011692,,3,3.0
Mg3Sr,0.0,-0.0093119999999999,,3,3.0
CrPt2,0.0,-0.0533518,,3,3.0
Na3RbTl,0.0,-0.0212274,,3,3.0
LiI2Pb,0.0,-0.0384789,,3,3.0
O7CuBrNb2Pr,0.0,-0.0181693,,3,3.0
O8PVPb3,3.4505,-0.0254928,,3,3.0
KNi2As2Tb,0.0,-0.0220416999999999,,3,3.0
Zn5Ag3,0.0,-0.0202135,,3,3.0
Cr4Ni,0.0,-0.0178893,,3,3.0
O2Na2RbAg,2.1814,-0.0132949,,3,3.0
NiHo2,0.0,-0.0384082,,3,3.0
Al3Fe2Pt,0.0,-0.0222624999999999,,3,3.0
Mg4Cu2Y,0.0,-0.011286,,3,3.0
Be3Ta,0.0,-0.020135,,3,3.0
Si2ClIr,0.0,-0.0252166,,3,3.0
SeBr6Tl2,1.7277,-0.0317961,,3,3.0
Cd3Pt5,0.0,-0.0555453,,3,3.0
BeSe2Hg,1.3073,-0.028709,,3,3.0
O5Mn4Cd,0.0,-0.0152011,,3,3.0
H6Ba2Ir,0.0,-0.0196719,,3,3.0
RuInU,0.0,-0.0573922,,3,3.0
ScCo2Sb,0.0,-0.0220021,,3,3.0
Si2CuGa3Ho3,0.0,-0.0263698,,3,3.0
O4Na2GeEu,0.0,-0.0154460999999999,,3,3.0
Al8In,0.0,-0.0105414999999999,,3,3.0
O6CaTiGd2,3.6069,-0.0215676,,3,3.0
CoSb2Sm,0.0,-0.0347417,,3,3.0
Co2Ge2Th,0.0,-0.0343021,,3,3.0
Al5Cu2Pu,0.0,-0.0226676,,3,3.0
Zn2BaAu,0.0,-0.0344245,,3,3.0
CFe2Ge2Tm2,0.0,-0.0275016,,3,3.0
Cu2PbAc,0.0,-0.0493742999999999,,3,3.0
Cu2ZnBa,0.0,-0.0209926,,3,3.0
BCMnTh,0.0,-0.033332,,3,3.0
Fe2Ge2Tm,0.0,-0.0256855,,3,3.0
Si3RuTb,0.0,-0.0230414,,3,3.0
AsTeNd,0.2505,-0.0350392,,3,3.0
K2GaBi2,0.0,-0.0383198,,3,3.0
Cl2AgTl,2.3951,-0.0307317,,3,3.0
Li3O6CrNi2,0.0,-0.0098758,,3,3.0
Al2CeSm,0.0,-0.026472,,3,3.0
FeGa2Np,0.0,-0.0395674,,3,3.0
B4CHo2,0.0,-0.0203622,,3,3.0
Ti2Zn2Au,0.0,-0.0260125,,3,3.0
LiErTl2,0.0,-0.0498312,,3,3.0
Cr2Ta,0.0,-0.0345317,,3,3.0
LiNa2Ba,0.0,-0.0125137,,3,3.0
Si2HfIr,0.0,-0.0392458,,3,3.0
Y2TcAg,0.0,-0.0307431,,3,3.0
BNYPd,0.0,-0.0205837,,3,3.0
PdSb2Dy6,0.0,-0.0445934,,3,3.0
O6CoBa2Os,0.0,-0.022562,,3,3.0
Mo5W,0.0,-0.0406886,,3,3.0
O6MoBa2Np,0.0,-0.0287104,,3,3.0
LiP2CaPt2,0.0,-0.0298868,,3,3.0
SiScTa,0.0,-0.030914,,3,3.0
Y2Rh2Tl,0.0,-0.0399068,,3,3.0
Mn2AsTe2,0.0,-0.026633,,3,3.0
Al2RhCe,0.0,-0.0243232,,3,3.0
Al2TiOs,0.4867,-0.0265136,,3,3.0
ScGaHg,0.0,-0.0335671,,3,3.0
LiAlGa4,0.0,-0.0127147,,3,3.0
CAl3Hf5,0.0,-0.0390207,,3,3.0
Cu2GaSm2,0.0,-0.0275545,,3,3.0
La2Tl2Pb,0.0,-0.0619884,,3,3.0
GeOs3Th2,0.0,-0.071463,,3,3.0
Zr6Te2Pt,0.0,-0.0374209,,3,3.0
Al3CaPt,0.0,-0.0214559,,3,3.0
Zn3PdBa,0.0,-0.0229385,,3,3.0
OS2Bi2,0.9753,-0.0371405,,3,3.0
LiRuDy2,0.0,-0.0335533,,3,3.0
F6K2ScTl,5.0105,-0.0156481999999999,,3,3.0
AlAg7,0.0,-0.0284614,,3,3.0
Li4CaPb,0.0,-0.0161091,,3,3.0
H6NaAlRb2,2.9767,-0.0077601,,3,3.0
NaIn,0.0,-0.0190819,,3,3.0
Te4Bi3,0.0,-0.0550755,,3,3.0
Zn2Pd2La,0.0,-0.0278188,,3,3.0
PBrY2,0.0,-0.0230248999999999,,3,3.0
H3CoPu,0.0,-0.0277333,,3,3.0
Pd2LaAu3,0.0,-0.053386,,3,3.0
PKCu2,0.7447,-0.0125023,,3,3.0
O6TiFeSr2,0.0,-0.01449,,3,3.0
NRuEr3,0.0,-0.0400634,,3,3.0
S3RbAgEr,0.0,-0.0232169,,3,3.0
FeTa,0.0,-0.0425090999999999,,3,3.0
LiO12VTe2W,1.6487,-0.0157138,,3,3.0
Al4MnTm,0.0,-0.0172534999999999,,3,3.0
Fe2SnHo,0.0,-0.0306216,,3,3.0
Cu2CdNd2,0.0,-0.0299123,,3,3.0
Si3CoNd,0.0,-0.0188077,,3,3.0
NiIn2Tb,0.0,-0.0329685,,3,3.0
O4RhBi,0.0,-0.0237541,,3,3.0
SiTb2Ir3,0.0,-0.053928,,3,3.0
CuI,2.0445,-0.026101,,3,3.0
MnSn4,0.0,-0.0323759999999999,,3,3.0
MgSe2Cs2,2.9733,-0.0256132,,3,3.0
GeSeSn4Te4,0.1396,-0.0333731,,3,3.0
Cu3Er2,0.0,-0.0295623,,3,3.0
GeMo3,0.0,-0.0311356,,3,3.0
Cu2ZnCd,0.0,-0.0185994999999999,,3,3.0
CaY2Hg2,0.0,-0.0409833,,3,3.0
Li2As2In,0.0,-0.0161192,,3,3.0
NaCl6Cs2Ta,0.0,-0.0212368,,3,3.0
AlFePdHf,0.0,-0.0309973,,3,3.0
Hf3Hg,0.0,-0.064258,,3,3.0
Co2RhPu,0.0,-0.0446446,,3,3.0
Al3Ca2Os2,0.0,-0.0269868999999999,,3,3.0
SiRb2Cd,0.3757,-0.0205354,,3,3.0
TcRh,0.0,-0.0346321,,3,3.0
Zn2PrTm,0.0,-0.03092,,3,3.0
K2CdSn,0.1017,-0.021045,,3,3.0
KSe4Ag2Sb,0.115,-0.0239926,,3,3.0
CTi3Cu,0.0,-0.0151252,,3,3.0
Li3S4Sb,2.4701,-0.0113359,,3,3.0
AsPd5Nd,0.0,-0.0332221,,3,3.0
Mg2P2Sr,1.7974,-0.0117409,,3,3.0
Li5Au,0.0,-0.0138507,,3,3.0
AlRhDy,0.0,-0.0308448999999999,,3,3.0
GeRuHf,0.0,-0.0397331999999999,,3,3.0
Ni4YIn,0.0,-0.0213532,,3,3.0
SrBa5,0.0,-0.0366437,,3,3.0
P2ZnRb4,1.1115,-0.0172337999999999,,3,3.0
OBrEu,0.0,-0.0290211,,3,3.0
P2VMn,0.0,-0.0148303,,3,3.0
LiAs2Pb,0.0,-0.0298155,,3,3.0
ScCd2Au,0.0,-0.0365816999999999,,3,3.0
Al2TiMn,0.0,-0.0128904,,3,3.0
AlNi4Dy,0.0,-0.0205919,,3,3.0
TiPd5Sb,0.0,-0.0315972,,3,3.0
Sc6NiSn2,0.0,-0.019846,,3,3.0
NaGaIn2,0.0,-0.021877,,3,3.0
Mg3Au4,0.0,-0.0422429,,3,3.0
O4S2Cu2Sb2Ho,0.0,-0.0195604,,3,3.0
AgSbNp,0.0,-0.0585679999999999,,3,3.0
OCuY3,0.0,-0.0223992,,3,3.0
CaZn4La,0.0,-0.0181482,,3,3.0
CoYIn4,0.0,-0.0300438,,3,3.0
FeZr6Pb2,0.0,-0.0396503999999999,,3,3.0
OPdHo3,0.0,-0.0389091,,3,3.0
AsHfTa,0.0,-0.0506013,,3,3.0
O8Ni2SrSm3,0.0,-0.0198345999999999,,3,3.0
C2NiCe,0.0,-0.0205182,,3,3.0
O5AlCa2Cu,0.0,-0.0107355,,3,3.0
CuGaTh,0.0,-0.0429432,,3,3.0
BPd2Dy,0.0,-0.0310087,,3,3.0
Li3Y,0.0,-0.0086486,,3,3.0
O6TiSr2Dy,0.0,-0.0177985,,3,3.0
Al7Cu2Dy3,0.0,-0.0195465,,3,3.0
CaSr2Tl2,0.0,-0.0403093,,3,3.0
Pd8Pu,0.0,-0.0416442,,3,3.0
Zr2HgBi2,0.0,-0.0577214,,3,3.0
O2F2ICs,4.8681,-0.0172039,,3,3.0
CaZn2,0.0,-0.0125905,,3,3.0
MgLaAu,0.0,-0.0399509,,3,3.0
O6MgCrTb2,0.2591,-0.0186576,,3,3.0
O8Zr3Sn,4.671,-0.0180738999999999,,3,3.0
Ge2Se5Sb2,0.0,-0.0238546,,3,3.0
MgSrSn,0.0,-0.0217029,,3,3.0
HoTmTl2,0.0,-0.0618819,,3,3.0
Te3Au,0.0,-0.0453161,,3,3.0
MgGeNd,0.0,-0.0232296,,3,3.0
Ni2RhTe4,0.0,-0.0310691999999999,,3,3.0
SiNiEr,0.0,-0.0263791,,3,3.0
SrPtPb2,0.0,-0.0616774,,3,3.0
GaSe2Y,0.4523,-0.0224675,,3,3.0
Li4O10SiV3,0.283,-0.010044,,3,3.0
MnCu2Au,0.0,-0.0296892,,3,3.0
C2O4Sn,2.7302,-0.0127948,,3,3.0
ScZnPd2,0.0,-0.0241742,,3,3.0
B2O6ScEr,5.1759,-0.0150444,,3,3.0
SrPdTe3Ho,0.0,-0.0372897,,3,3.0
NaP2Cu2Hf,0.0,-0.0203191,,3,3.0
H2O7CaTa2,2.5632,-0.0187170999999999,,3,3.0
O7CaGe2Nb,0.6881,-0.013663,,3,3.0
GeAu2Ac,0.0,-0.0625834,,3,3.0
RuPt8,0.0,-0.0662203,,3,3.0
Si3Fe5U,0.0,-0.0252302,,3,3.0
ScCd2Hg,0.0,-0.0361352,,3,3.0
AlCa2Pt,0.0,-0.0251066,,3,3.0
Li3Tl2,0.0,-0.0307239,,3,3.0
Al2Si2Dy,0.0,-0.0170583999999999,,3,3.0
F6CuTb,2.1071,-0.0133829999999999,,3,3.0
NSi3Hf5,0.0,-0.0402809,,3,3.0
I2Pr2Bi,0.0,-0.0491184999999999,,3,3.0
MgKCa2,0.0,-0.0081007,,3,3.0
O6Ba2DyW,0.0,-0.0264969,,3,3.0
ClNi2Pr2,0.0,-0.0263542999999999,,3,3.0
CuHo2Pt2,0.0,-0.0518855,,3,3.0
H2Zr2Pt,0.0,-0.0285473,,3,3.0
S4CdDy2,1.4239,-0.0254060999999999,,3,3.0
O6Ca2FeRu,0.0,-0.0131363,,3,3.0
Ho2Os,0.0,-0.0570464,,3,3.0
MgCo2Zn3,0.0,-0.0132982,,3,3.0
Zn2LaHo,0.0,-0.03015,,3,3.0
PrBi,0.0,-0.0620897999999999,,3,3.0
O7Cs2BaU2,1.0732,-0.0335906,,3,3.0
CdLa5,0.0,-0.0411249,,3,3.0
GaLuIr2,0.0,-0.0542922,,3,3.0
B20Na3,0.0,-0.0071151999999999,,3,3.0
Si3CoY,0.0,-0.0156783,,3,3.0
Al7Pr3Au2,0.0,-0.0275943,,3,3.0
O6CrCuTm,0.9426,-0.0156689,,3,3.0
CSbSm3,0.0,-0.0368539,,3,3.0
NbIr2Pt,0.0,-0.0620541,,3,3.0
AsSm,0.0,-0.0340354,,3,3.0
O3F3Cs3W,4.884,-0.0239441,,3,3.0
Cl4PdTl,0.0,-0.0234988,,3,3.0
Sc3CdPt2,0.0,-0.03673,,3,3.0
TiNb2W,0.0,-0.0379963,,3,3.0
N2TbTa,0.0,-0.0345238999999999,,3,3.0
O4VDy,3.2844,-0.0183539,,3,3.0
CuRhAc2,0.0,-0.057837,,3,3.0
Al9BaOs2,0.0,-0.0215424,,3,3.0
H3NaPt,0.0,-0.0173643,,3,3.0
PNbMo,0.0,-0.0268459,,3,3.0
Cu4YPb,0.0,-0.0275558,,3,3.0
Al3Si2Zr3Os,0.0,-0.0237974,,3,3.0
B4ScCr,0.0,-0.0110268,,3,3.0
B4Co5Zr2,0.0,-0.0166614,,3,3.0
Si2GaNd2,0.0,-0.0253894,,3,3.0
PSe3RbAg,1.2044,-0.021016,,3,3.0
MnZnRh,0.0,-0.0223019,,3,3.0
H3KCa,3.7789,-0.0061563,,3,3.0
Al6PdHo,0.0,-0.0165198,,3,3.0
RhICe,0.0,-0.0394572,,3,3.0
ZnBr3Rb,3.5453,-0.0198630999999999,,3,3.0
LiCa2Pt,0.0,-0.0235907,,3,3.0
Cu2As2CsCe,0.0,-0.0262522,,3,3.0
Co2Hf4Pb5,0.0,-0.0605263,,3,3.0
O6K3Se2Rb,4.7857,-0.0118899,,3,3.0
ScZnAg2,0.0,-0.0228744,,3,3.0
Cu4ErAu,0.0,-0.0304592999999999,,3,3.0
NaSn2Ba2,0.0,-0.0316045,,3,3.0
O3NaRbZr,4.3806,-0.0151333,,3,3.0
O2ErPt,0.0,-0.0355646,,3,3.0
F6TiCe,0.0,-0.0140462,,3,3.0
LiS4AsHg,2.1696,-0.0188769999999999,,3,3.0
SiCaAg2Te4,0.0,-0.0293673,,3,3.0
B2HoOs3,0.0,-0.0470031,,3,3.0
H6FePr2,0.0,-0.0144955999999999,,3,3.0
Al2FePa,0.0,-0.0336869999999999,,3,3.0
CuBa2,0.0,-0.0313814,,3,3.0
PdI3Cs,0.0,-0.0369936,,3,3.0
Ni2CdLu2,0.0,-0.0351743,,3,3.0
NaYTe2,1.4334,-0.0281552,,3,3.0
TiSe4Hf,0.0,-0.0278442,,3,3.0
NaCd2Pt,0.0,-0.034129,,3,3.0
ZnIr4,0.0,-0.0596531999999999,,3,3.0
CuCd3Cs,0.0,-0.0288019,,3,3.0
NbRuSb,0.6162,-0.0356777,,3,3.0
S2InGd,0.9177,-0.0293915,,3,3.0
OCl2Os,0.0,-0.0242413,,3,3.0
NaCl6K2Er,5.6322,-0.0142095,,3,3.0
AlCo2Th2,0.0,-0.0471349999999999,,3,3.0
ScCdAu,0.0,-0.0386723,,3,3.0
V2CrRu,0.0,-0.0223974,,3,3.0
Cu,0.0,-0.0151991,,3,3.0
SbHg2Pb2,0.0,-0.0649657,,3,3.0
N2MgTh,1.4713,-0.0312755,,3,3.0
Ga2BrPr2,0.0,-0.0289172,,3,3.0
Al3Si2ZnDy3,0.0,-0.0228844,,3,3.0
O8Mn3Cu,0.0,-0.0115564999999999,,3,3.0
Rh2AuPb4,0.0,-0.0628998,,3,3.0
Be7Mo6,0.0,-0.0186301,,3,3.0
O6Sr2RuPa,0.0,-0.0245181,,3,3.0
LuPt2Au,0.0,-0.0673517,,3,3.0
Cd2PbBi,0.0,-0.0536561,,3,3.0
Br2Sm2Bi,0.0,-0.0428281,,3,3.0
C5Ni3Tm4,0.0,-0.0259534999999999,,3,3.0
O3NaRbNb,1.0933,-0.0150625,,3,3.0
Al3Sc2Cu,0.0,-0.0116804,,3,3.0
AlMnSe3Tl,0.8348,-0.02719,,3,3.0
RbTe2U,0.0,-0.0506029,,3,3.0
NSnPr3,0.0,-0.0361286,,3,3.0
BCRhNd,0.0,-0.0242782,,3,3.0
CsPt4Tl6,0.0,-0.068531,,3,3.0
OZnYSb,0.3218,-0.0230731,,3,3.0
ClBrCs2,5.5,-0.0278448,,3,3.0
FeTh,0.0,-0.056904,,3,3.0
ReIr5,0.0,-0.0712247,,3,3.0
Sc2Ge2Au,0.0,-0.0280427,,3,3.0
Li2LaPt,0.0,-0.0301605,,3,3.0
Li2S4GeCd,2.7996,-0.012581,,3,3.0
Fe3Sm,0.0,-0.0246242,,3,3.0
Li5O8Si2Mn,1.0002,-0.0088145,,3,3.0
AlMn2Hf,0.0,-0.0270814999999999,,3,3.0
O4CaCu2Se2Sb2,0.0,-0.0176265,,3,3.0
MnZnSe2,0.7812,-0.0188301,,3,3.0
Cl6KRb2La,5.3773,-0.0164092,,3,3.0
CoIn5Pr,0.0,-0.0328337999999999,,3,3.0
CaGa3Rh2,0.0,-0.021755,,3,3.0
ZnRe5,0.0,-0.0614333,,3,3.0
LiP2PrPt2,0.0,-0.0356292,,3,3.0
H2Mo2Sb,0.0,-0.0226378,,3,3.0
HO2Au,1.3516,-0.0217778,,3,3.0
AlInEr2,0.0,-0.0359316,,3,3.0
BCo3Dy,0.0,-0.0216492,,3,3.0
Pd3SnNp2,0.0,-0.058253,,3,3.0
PdIn2Lu,0.0,-0.0394436,,3,3.0
TiCuIr2,0.0,-0.0439876,,3,3.0
O4PBa,0.0,-0.0151198999999999,,3,3.0
NaS2V,0.2377,-0.0115365,,3,3.0
LiCl6K2Lu,5.8109,-0.0145417,,3,3.0
H4Mn3Ni,0.0,-0.0106428999999999,,3,3.0
MgLa3,0.0,-0.0336235,,3,3.0
B2O5Na4,4.3851,-0.0080052,,3,3.0
Si2FeDy2,0.0,-0.0273803,,3,3.0
CuYIn,0.0,-0.0260372,,3,3.0
Mg2HgBi2,0.0,-0.0471377,,3,3.0
O3Tb2,4.4718,-0.0263122,,3,3.0
O6Ba2TbTm,0.0,-0.0245214999999999,,3,3.0
RhPr2Pt,0.0,-0.048589,,3,3.0
Al3CrSn2Tm3,0.0,-0.0304504,,3,3.0
Li2Se2Pb,1.1044,-0.0250702,,3,3.0
F6Tl2Th,4.9092,-0.0322673,,3,3.0
Cu2SnHf,0.0,-0.0325173,,3,3.0
ZnRb4Bi2,0.6072,-0.0366554,,3,3.0
NiLuPb,0.0,-0.0496507999999999,,3,3.0
Y2SnAu2,0.0,-0.0470851,,3,3.0
NaBr6Cs2Sm,4.7125,-0.0261547,,3,3.0
Be2Si2Ce,0.0,-0.0150282,,3,3.0
Ga2Dy3,0.0,-0.0358223,,3,3.0
ZnRu2Np,0.0,-0.0476232,,3,3.0
FCs3Pb,0.0,-0.0397391999999999,,3,3.0
LaBi3,0.0,-0.0703312,,3,3.0
HSCe,0.0,-0.0208519,,3,3.0
CrTe2Ho6,0.0,-0.0436038,,3,3.0
Mg2YIn,0.0,-0.0181831,,3,3.0
SrBaPb4,0.1666,-0.061414,,3,3.0
Ga2Pd2Pr,0.0,-0.0292193,,3,3.0
FeGeNb,0.0,-0.0238569,,3,3.0
NaS3TiFe,0.0,-0.0124216999999999,,3,3.0
KAsPt,0.0,-0.0334897,,3,3.0
S4Ba2Ta,0.0,-0.0281597,,3,3.0
MnFe4,0.0,-0.0181206,,3,3.0
CaRhBi2,0.0,-0.0506867,,3,3.0
BeNi2,0.0,-0.0125718,,3,3.0
Mg2Si2Y,0.0,-0.0119598,,3,3.0
CoSn3Ce,0.0,-0.0343203,,3,3.0
Ni4ZnHf,0.0,-0.0238949,,3,3.0
ClSeRh,1.5822,-0.0213336,,3,3.0
H3SiRb,2.3231,-0.0084143,,3,3.0
GeAgPu,0.0,-0.0536791,,3,3.0
Ga3LaIr2,0.0,-0.0398628,,3,3.0
PCoLu2,0.0,-0.0354844,,3,3.0
Al3NiGe2Zr3,0.0,-0.0196156,,3,3.0
YZrTc4,0.0,-0.0334072,,3,3.0
Mg2P2Eu,0.0,-0.0180186,,3,3.0
O4Mn2Fe,0.0047,-0.0132763,,3,3.0
F6NaCaLa,7.8219,-0.0127348,,3,3.0
Ni3GeEu2,0.0,-0.0294936,,3,3.0
B2Rh2Sm,0.0,-0.0261749,,3,3.0
Al4NdAu,0.0,-0.0245798,,3,3.0
GeRhBa,0.0,-0.0315985,,3,3.0
MgGe2Ru,0.0,-0.0198518,,3,3.0
Al2YIn,0.0,-0.0196279,,3,3.0
AgBaAu,0.0,-0.0473134999999999,,3,3.0
CFe3In,0.0,-0.019433,,3,3.0
Zn4Tb,0.0,-0.0205557,,3,3.0
N2SmNp,0.0,-0.0439285,,3,3.0
Al3Cu,0.0,-0.0097684,,3,3.0
NaS3CrCu,0.0,-0.0119648,,3,3.0
MgZn4Rh,0.0,-0.0157739,,3,3.0
Sc2Cr3Os,0.0,-0.026069,,3,3.0
Zn2TcOs,0.0,-0.0335452,,3,3.0
SiPd8,0.0,-0.0304604,,3,3.0
LiSi2Rh,0.0,-0.0145309,,3,3.0
Cl6Ag3Pr,3.4277,-0.0198403999999999,,3,3.0
KSr2Tl2,0.0,-0.0399223,,3,3.0
LiZn4Au,0.0,-0.0212198,,3,3.0
NiGa2Hf,0.0,-0.0285117,,3,3.0
PCrZr,0.0,-0.0208176999999999,,3,3.0
Li4O8Fe3Nb,0.0171,-0.0111949,,3,3.0
Co3Ni2Tb,0.0,-0.0219892,,3,3.0
O6Ba3Pt,0.0,-0.0245951999999999,,3,3.0
ORhSbSm,0.0,-0.0324326999999999,,3,3.0
Si2CuGa3Tm3,0.0,-0.0273083,,3,3.0
YTaIr,0.0,-0.0559251999999999,,3,3.0
Al3Ca3CuGe2,0.0,-0.0122543,,3,3.0
O5S2Ti2Tb2,0.9418,-0.0192006,,3,3.0
HLiSe,3.0045,-0.0093748,,3,3.0
H3BOF4,8.6185,-0.0063472999999999,,3,3.0
BrI3Hg2,1.9188,-0.0446398,,3,3.0
NSiNb3,0.0,-0.0246078,,3,3.0
C2CrPu,0.0,-0.037107,,3,3.0
F7CsDy2,7.3805,-0.0199765,,3,3.0
HBrSr,4.09,-0.0166453,,3,3.0
ZnTa,0.0,-0.040106,,3,3.0
SrTe3Ta,0.0,-0.0406076,,3,3.0
C2MgAl2,2.0876,-0.0083313,,3,3.0
B2CLa,0.0,-0.0175421,,3,3.0
Fe2Ge2Nd,0.0,-0.024016,,3,3.0
CaNb2Rh2,0.0,-0.029076,,3,3.0
Cr5Tc4,0.0,-0.0257382,,3,3.0
BCr2Ni6,0.0,-0.0157927,,3,3.0
BCPdDy,0.0,-0.0251733,,3,3.0
SiCu2Se4Cd,0.704,-0.0193267999999999,,3,3.0
Co2SnTm,0.0,-0.0309015,,3,3.0
NaSe2Nb,0.7406,-0.0205172,,3,3.0
AlFeY,0.0,-0.0181453,,3,3.0
H4NO8S2Fe,1.5255,-0.0081558,,3,3.0
LiK2I6Bi,2.1734,-0.0328136,,3,3.0
PdSn2Dy,0.0,-0.0388474999999999,,3,3.0
F6K2RbIr,2.7128,-0.0153436,,3,3.0
Li2CaHg2,0.0,-0.0306583,,3,3.0
MgFe2Ho2,0.0,-0.0278449999999999,,3,3.0
Al3La2Re,0.0,-0.0304984,,3,3.0
Be2CrTc2,0.0,-0.0197056,,3,3.0
CSi2Cr2Tb2,0.0,-0.0234905,,3,3.0
Pd2LaBi,0.0,-0.0475844,,3,3.0
Ti3Pb,0.0,-0.0311951,,3,3.0
NaCl6Cs2Pu,0.0,-0.0259331,,3,3.0
Ca2RuLa,0.0,-0.0243411,,3,3.0
Na2S4W,1.5387,-0.0175932,,3,3.0
B2Al2Tc,0.0,-0.0133754,,3,3.0
AlNiPt2,0.0,-0.0419097,,3,3.0
OsPt8,0.0,-0.0702836,,3,3.0
MgZr6Bi2,0.0,-0.0387201,,3,3.0
Br3InSm3,0.0,-0.0335600999999999,,3,3.0
LiOs,0.0,-0.0371579,,3,3.0
Zr2PdAu,0.0,-0.041503,,3,3.0
B2Rh2Lu,0.0,-0.0283665,,3,3.0
BeGeU,0.0,-0.0423934,,3,3.0
Al3Si2FeEr3,0.0,-0.0242662,,3,3.0
KAs2Tl,0.0,-0.0305652,,3,3.0
MoRhIr2,0.0,-0.0530214,,3,3.0
AlCo2Ta2,0.0,-0.0353603,,3,3.0
Ag4Er,0.0,-0.0354079,,3,3.0
CaZn2Bi2,0.0,-0.0390941,,3,3.0
Li7O5FFe,1.0718,-0.0070608,,3,3.0
HI2Lu2,0.0,-0.0385105,,3,3.0
O7Y2Bi2,0.1791,-0.0254883,,3,3.0
NaCl6Rb2Dy,5.7876,-0.0164784,,3,3.0
H4ClAs,4.8059,-0.0071141,,3,3.0
YIn2Lu,0.0,-0.038094,,3,3.0
K2GePt2,0.0,-0.0355447,,3,3.0
TcRhPu2,0.0,-0.0722617999999999,,3,3.0
GaSn2Pb2,0.0,-0.0477982,,3,3.0
NAgPr2,0.0,-0.0327217,,3,3.0
LiSiSc,0.0,-0.0094794,,3,3.0
Sn2TmPu,0.0,-0.0588926,,3,3.0
SrIn4Ir,0.0,-0.0382971999999999,,3,3.0
AlCu3,0.0,-0.0136013,,3,3.0
SrInPt,0.0,-0.0428744,,3,3.0
AlCu4Hf,0.0,-0.0221152,,3,3.0
CrRh3,0.0,-0.0301262,,3,3.0
Li6O3F3Mn,2.6468,-0.0072821,,3,3.0
MnSb2Ho6,0.0,-0.0435998,,3,3.0
NiSb2Tm6,0.0,-0.0453056,,3,3.0
Si2Ga3Er2,0.0,-0.0248123,,3,3.0
Au7Bi,0.0,-0.0702222,,3,3.0
NiRuRh,0.0,-0.0281964,,3,3.0
PTmIr,0.0,-0.0457995,,3,3.0
ZnZrRh,0.0,-0.0267341,,3,3.0
ZnInEu2,0.0,-0.0390077,,3,3.0
Si2TbPt,0.0,-0.035391,,3,3.0
C4CuLu3,0.0,-0.0280666,,3,3.0
Al3Tb2Os,0.0,-0.0321157,,3,3.0
KTl3,0.0,-0.056523,,3,3.0
Rb2TeI6,1.6094,-0.0340923,,3,3.0
Co2ZnHo3,0.0,-0.0328329,,3,3.0
Li2CaAu2,0.0,-0.0312743,,3,3.0
PdSmBi,0.326,-0.0530595,,3,3.0
Br4Cs2Nd,0.0,-0.0300376,,3,3.0
SmTb,0.0,-0.0455804,,3,3.0
Be2Tc,0.0,-0.0150292,,3,3.0
ZnCd2Au,0.0,-0.0359906,,3,3.0
Li5O10Mn3Nb2,0.218,-0.0120878,,3,3.0
Li4ZnCd3,0.0,-0.0145827,,3,3.0
C2GaTa3,0.0,-0.0399578,,3,3.0
O4Ba2Gd,0.0,-0.0261539,,3,3.0
P2TiNi,0.0,-0.0141023,,3,3.0
O4Sb2ILa,0.8776,-0.0244019,,3,3.0
NRhLu3,0.0,-0.043114,,3,3.0
AgPr2,0.0,-0.0395628,,3,3.0
Zn2TbDy,0.0,-0.0308123,,3,3.0
NAlGd3,0.0,-0.0396445,,3,3.0
S2Cl8Hg3Bi2,3.2263,-0.030389,,3,3.0
Cu3Zn2Pr,0.0,-0.0195735,,3,3.0
KAsAu2,0.2032,-0.0421218,,3,3.0
MgScIn,0.0,-0.0179665,,3,3.0
GaHg3,0.0,-0.0550912999999999,,3,3.0
ClFe2Dy2,0.0,-0.0287090999999999,,3,3.0
SnI2Tb2,0.0,-0.0418153,,3,3.0
FeDy2Os2,0.0,-0.051833,,3,3.0
OZnTb3,0.0,-0.0334552,,3,3.0
MnZn2Ga,0.0,-0.0155172,,3,3.0
Si2CuPu,0.0,-0.0366373,,3,3.0
LiNi4La,0.0,-0.0185834,,3,3.0
NTb3Tl,0.0,-0.0455594,,3,3.0
Cu2As2Tm,0.0,-0.0251919,,3,3.0
Ni2CdDy2,0.0,-0.032125,,3,3.0