formula,bg,formation_energy,mp-id,fidelity,bg_category
Ge2PtPa,0.0,-0.0526801,,3,3.0
NaZnSe2Rb,1.7557,-0.0167699,,3,3.0
Te2Ta3,0.0,-0.0551023,,3,3.0
RuInTh,0.0,-0.0552098,,3,3.0
Mg3Y5,0.0,-0.0192877,,3,3.0
Si3FeHo,0.0,-0.0199516,,3,3.0
ZnCdTm,0.0,-0.0323557,,3,3.0
In3Tm3Au2,0.0,-0.0501225,,3,3.0
Co3CuZr8,0.0,-0.0262512,,3,3.0
GeEu2Pt3,0.0,-0.0572528999999999,,3,3.0
Mg2In2Sn,0.0,-0.0226002,,3,3.0
C2O6KTm,4.9443,-0.0141262,,3,3.0
AlMnRuOs,0.0,-0.0337367,,3,3.0
MgPdSb,0.0,-0.0257509,,3,3.0
FeCu4Se4,0.0,-0.0179345,,3,3.0
O8Mn3Sn,1.0648,-0.0136978,,3,3.0
ZnYAg4,0.0,-0.02794,,3,3.0
ZnGa3Ge2Tm3,0.0,-0.0291434,,3,3.0
LiCaZn,0.0,-0.0086638,,3,3.0
NBa2Au,0.0,-0.0400591,,3,3.0
NiInTb,0.0,-0.0326794,,3,3.0
GaNbRu2,0.0,-0.0303889,,3,3.0
ClBa2Pt,0.0,-0.0408789,,3,3.0
Sc2TcRu,0.0,-0.02499,,3,3.0
ClFePr,0.0,-0.0242196,,3,3.0
GaSe3Pt2,0.0,-0.0366546,,3,3.0
TiFePd2,0.0,-0.0254337,,3,3.0
YSb2La2,0.0,-0.0388807,,3,3.0
SiGeRh2Ce,0.0,-0.0293311,,3,3.0
Be2SnAu2,0.0,-0.0367667,,3,3.0
Ga3CdEu,0.0,-0.0271118999999999,,3,3.0
HNi3Pb,0.0,-0.0254205,,3,3.0
BePPb,0.0,-0.0302490999999999,,3,3.0
C5Co3Tm4,0.0,-0.0261503,,3,3.0
S3KAgNd,0.0,-0.0199985,,3,3.0
B4RhTm,0.0,-0.0199442999999999,,3,3.0
Co3Hf,0.0,-0.028783,,3,3.0
YI6Cs2Hg,0.0,-0.0405047,,3,3.0
F7SrTa,6.1477,-0.016356,,3,3.0
MoTcRh2,0.0,-0.0346077,,3,3.0
RbTe2Dy,1.4963,-0.0373078,,3,3.0
H4MnTh,0.0,-0.0216975,,3,3.0
NCdTm3,0.0,-0.0400293,,3,3.0
ZnBa2,0.0,-0.0310279,,3,3.0
AlZrIr,0.0,-0.0376839999999999,,3,3.0
NiPrBi,0.493,-0.0467768,,3,3.0
MnNb2Os,0.0,-0.0393082,,3,3.0
Ge2Au2Pu,0.0,-0.0576377,,3,3.0
O6CaSnDy2,4.4435,-0.0209609999999999,,3,3.0
SbI2Dy2,0.0,-0.0426346,,3,3.0
Cl6RbCs2Tb,5.7572,-0.0214778,,3,3.0
NaP2Ni2U,0.0,-0.0274469,,3,3.0
Li2GeAu,0.0,-0.0238817999999999,,3,3.0
LiPdPb2,0.0,-0.0469507,,3,3.0
Er2Hg,0.0,-0.0567296,,3,3.0
ZrHf2Pt2,0.0,-0.060389,,3,3.0
MgTiRh2,0.0,-0.0230587,,3,3.0
O4FPTi,2.9358,-0.0108147,,3,3.0
Cl6TeTl2,2.5237,-0.0264337,,3,3.0
Cl6KRb2Y,5.5305,-0.0148999,,3,3.0
CdEr3Os2,0.0,-0.0546528,,3,3.0
ZnSnAc2,0.0,-0.0581088,,3,3.0
O2K5CuTe,1.496,-0.0130746,,3,3.0
Rh2Sn2Dy,0.0,-0.0381702,,3,3.0
CoRh2Sm2,0.0,-0.0353741,,3,3.0
Si4ZnOs,0.0,-0.0210519,,3,3.0
O7Na2SmTa2,0.0,-0.0220217999999999,,3,3.0
O2AlK,4.7807,-0.0099853,,3,3.0
SrErHg2,0.0,-0.0528631,,3,3.0
Co4InEr,0.0,-0.0256114,,3,3.0
AlFe4Ta,0.0,-0.0247069,,3,3.0
HoTaOs2,0.0,-0.0652381,,3,3.0
SCl6Cs2,2.4569,-0.0159406,,3,3.0
Li2O4CrCo,1.442,-0.0103666,,3,3.0
InSnCs,0.0,-0.0360296,,3,3.0
MgSnNd,0.0,-0.0288706,,3,3.0
NaMo3Te3,0.0,-0.0319759,,3,3.0
Ca2Pd2La,0.0,-0.0262358,,3,3.0
Ga2RhPa,0.0,-0.04223,,3,3.0
GaPr3,0.0,-0.0368794,,3,3.0
Cu2Sb2Tl,0.0,-0.0353669,,3,3.0
OZnAsBa,0.0,-0.0213341999999999,,3,3.0
In5PrPt2,0.0,-0.0444761,,3,3.0
Rb5Sb4,0.0,-0.0285924,,3,3.0
AlZn2Sm2,0.0,-0.0251635999999999,,3,3.0
LiSeTl,0.0,-0.0324085,,3,3.0
O7Re2,2.8751,-0.022163,,3,3.0
Li2CO7SCo,1.8488,-0.0088712,,3,3.0
Si2Sc2Ge,0.0,-0.0141127,,3,3.0
SeBr2Sm2,0.0,-0.0315481,,3,3.0
Ga2Sn2Ba,0.0,-0.0292466,,3,3.0
Fe3Ni2Er,0.0,-0.0230353999999999,,3,3.0
HMgRh3,0.0,-0.0222191,,3,3.0
LiSi4Ru,0.0,-0.0131609,,3,3.0
As2Ru2Pr,0.0,-0.0315499,,3,3.0
PCuTl2,0.0,-0.0426155,,3,3.0
Co5Ac,0.0,-0.0293231,,3,3.0
O4RhCd,0.0,-0.0155305,,3,3.0
CaPdSn3,0.0,-0.0305708,,3,3.0
AlI3Nd3,0.0,-0.0365754,,3,3.0
Sr2Sb2Te,0.0,-0.0324125,,3,3.0
Li2RhSn,0.0,-0.0191795,,3,3.0
O6MgMoPb2,2.0731,-0.0248188,,3,3.0
MgIn4,0.0,-0.0277334999999999,,3,3.0
PYIr,0.0,-0.0378439,,3,3.0
In2TmLu,0.0,-0.0440428,,3,3.0
GdHg5,0.0,-0.066896,,3,3.0
RhSnBa,0.0,-0.0370461,,3,3.0
MgRh2Ir,0.0,-0.0362111,,3,3.0
Al4NiNd,0.0,-0.0157314,,3,3.0
Se2IAu,0.0,-0.0365493999999999,,3,3.0
P2S7FeCs,1.0316,-0.0136984,,3,3.0
F4Cs2Er,0.0,-0.0233542,,3,3.0
TbDyBi,0.0,-0.0584117,,3,3.0
As3Rb2,0.5958,-0.0209323,,3,3.0
Ga3PdLa,0.0,-0.0257971,,3,3.0
Sr2Pd2In,0.0,-0.0294289999999999,,3,3.0
Al2Pd3Er,0.0,-0.0283602,,3,3.0
CuPdTm2,0.0,-0.0386011,,3,3.0
F6KCs2Pt,0.99,-0.0199309,,3,3.0
CAlU2,0.0,-0.056212,,3,3.0
Si2EuIr3,0.0,-0.0487919,,3,3.0
NiMoTc2,0.0,-0.030312,,3,3.0
Mg2IrTh,0.0,-0.0448241999999999,,3,3.0
O6Sr2NbTb,3.6344,-0.0195152,,3,3.0
S3AsRb,1.2594,-0.0145441,,3,3.0
In2Tb,0.0,-0.0384276,,3,3.0
CoGa3Hf2,0.0,-0.0324763999999999,,3,3.0
Al3TmPt2,0.0,-0.0371165,,3,3.0
P4S5,2.5344,-0.0101681,,3,3.0
Ni3Se4Ta,0.0,-0.0248718,,3,3.0
OKAg,1.9393,-0.0162239,,3,3.0
B2PMn5,0.0,-0.0151231,,3,3.0
NiGa2La,0.0,-0.0237117,,3,3.0
As2AuPb2,0.0,-0.052236,,3,3.0
PK2In,0.1964,-0.0154917,,3,3.0
H2PdAg,0.0,-0.0177307,,3,3.0
ClY2Te2,0.0,-0.0293586999999999,,3,3.0
NInTb3,0.0,-0.0377848,,3,3.0
ZnYZr2,0.0,-0.025846,,3,3.0
Ru2NdTh,0.0,-0.0525849,,3,3.0
Al3CuNd2,0.0,-0.0214071,,3,3.0
KAs2Ir2,0.0,-0.0387691,,3,3.0
Cd2HgBi2,0.0,-0.0571272,,3,3.0
Ni2Zn3Lu,0.0,-0.0217927,,3,3.0
Al8Cu4Dy,0.0,-0.0135137,,3,3.0
NiInPr,0.0,-0.0314631,,3,3.0
MgTcHo2,0.0,-0.0345679999999999,,3,3.0
Te2TlU,0.0,-0.0630981,,3,3.0
NiSn2Ho6,0.0,-0.0429769999999999,,3,3.0
Ni2SbU,0.0,-0.0434105,,3,3.0
Fe5Zn4,0.0,-0.0161139,,3,3.0
KAsSe4Ag2,0.2311,-0.0218465999999999,,3,3.0
Mn2Rh3La,0.0,-0.030727,,3,3.0
BeB2O5Na2,5.4162,-0.0084707,,3,3.0
Cu2As2RbLu,0.0,-0.025212,,3,3.0
Zn3Lu,0.0,-0.0243962,,3,3.0
C3Mo2Er2,0.0,-0.0291002,,3,3.0
BGa2PrIr2,0.0,-0.0383042,,3,3.0
N2PdPr2,0.0,-0.0289485999999999,,3,3.0
AlAgEr2,0.0,-0.0353335,,3,3.0
SiIr2Ac,0.0,-0.0614555,,3,3.0
H6CNBr3Pb,2.33,-0.0150679,,3,3.0
Mg2CoGe,0.0,-0.0117586,,3,3.0
CoIn3Sn2Nd3,0.0,-0.0361965,,3,3.0
CoGeNb4,0.0,-0.028446,,3,3.0
SiScZr,0.0,-0.0190119,,3,3.0
F8Na2BaNp,1.9118,-0.0188668,,3,3.0
Al3NiZr,0.0,-0.014674,,3,3.0
Se2SnAu,0.0,-0.0364435,,3,3.0
O6S2CaCr2Sr4,1.5993,-0.0155199,,3,3.0
As2Pd2Er,0.0,-0.0321231,,3,3.0
As2NdAu,0.0,-0.0391676,,3,3.0
S2Mn2Tl,0.0,-0.0260378,,3,3.0
Ni3Zn2Tm,0.0,-0.021619,,3,3.0
Ni4CuTb,0.0,-0.0214035,,3,3.0
NNiTb3,0.0,-0.0340324,,3,3.0
CaAs2Tc2,0.0,-0.0245889,,3,3.0
PHgPb2,0.0,-0.0574839,,3,3.0
TbAu2,0.0,-0.0627477999999999,,3,3.0
CaGa2Er,0.0,-0.0237293999999999,,3,3.0
S5V3,0.0,-0.0136319,,3,3.0
GaRh2Gd,0.0,-0.0364551,,3,3.0
B4V3,0.0,-0.0125983,,3,3.0
YAg4Pb,0.0,-0.038389,,3,3.0
S2MnCu,0.0,-0.0138661,,3,3.0
CoNi2Nd,0.0,-0.0234996,,3,3.0
KInI2,2.6118,-0.0297885,,3,3.0
B2C3Tb2,0.0,-0.0202285,,3,3.0
S2CsNd,2.5202,-0.0272607,,3,3.0
LiAlCl6Tl2,4.6757,-0.021817,,3,3.0
Be2O8P2Ba,5.5404,-0.0121315,,3,3.0
CdSnPa,0.0,-0.0553705,,3,3.0
TiVRe2,0.0,-0.044454,,3,3.0
Al5SrRh2,0.0,-0.0168708,,3,3.0
NiSb2La6,0.0,-0.0395313,,3,3.0
AlTe2Ho6,0.0,-0.0425045,,3,3.0
S3NiCsTa,0.0,-0.025991,,3,3.0
B2N3Ni2La3,0.0,-0.0216298,,3,3.0
O6CaY2Sn,4.6495,-0.0169756,,3,3.0
AgHgPb,0.0,-0.058348,,3,3.0
Cu2As3,0.0016,-0.0181151,,3,3.0
SiCuPm2,0.0,-0.0286926,,3,3.0
O8Cl2Ba,6.5204,-0.0103565,,3,3.0
LiAgCd,0.0,-0.0216028,,3,3.0
VFe2Se4,0.0,-0.0195924,,3,3.0
LiF6Na2Al,8.3371,-0.0073875,,3,3.0
Li2F8CaEr,0.0,-0.0112836,,3,3.0
MgK2InTe4,0.0,-0.0263068999999999,,3,3.0
SGeGd,0.0,-0.030642,,3,3.0
HClDy,0.0,-0.0213423,,3,3.0
Pd7Tl3,0.0,-0.0448545,,3,3.0
PrHgTl,0.0,-0.0618144,,3,3.0
AsRbIn,0.0,-0.0251605999999999,,3,3.0
La2Ir3,0.0,-0.0606950999999999,,3,3.0
Ga2Y2Pd,0.0,-0.0250891,,3,3.0
B2O6PdPb,1.8319,-0.0178022,,3,3.0
B4Mn,0.0,-0.0098901,,3,3.0
Si2CaRh3,0.0,-0.0228578,,3,3.0
Cu2GeZr,0.0,-0.0205023,,3,3.0
CaCuSe3Ho,1.2389,-0.0240267,,3,3.0
AlRb3I6,2.3877,-0.0302274999999999,,3,3.0
CrMo5,0.0,-0.0320857,,3,3.0
Ca3Cd5,0.0,-0.0229532,,3,3.0
TiGa2Nb2,0.0,-0.023492,,3,3.0
NaS4ZnAs,2.3753,-0.0115145,,3,3.0
CrCoSe4,0.0,-0.0197821,,3,3.0
B2O6MgPb,2.3927,-0.0155436999999999,,3,3.0
YBaAu2,0.0,-0.0523797,,3,3.0
YRh2Sn2,0.0,-0.0342182,,3,3.0
Ni2Te2Er7,0.0,-0.0424831,,3,3.0
RhPrPb,0.0,-0.0517365,,3,3.0
NiPd2Au,0.0,-0.0377174,,3,3.0
AgBi2Th,0.0,-0.071499,,3,3.0
Sb3Tb4,0.0,-0.0437862,,3,3.0
KCu2As2Dy,0.0,-0.0219289999999999,,3,3.0
F2Ca2Te,1.9947,-0.015948,,3,3.0
F3Tl,1.8302,-0.0226246,,3,3.0
YSmBi,0.0,-0.0510578,,3,3.0
AsSe2Ag,0.1042,-0.0230352999999999,,3,3.0
NaCa2Sn,0.0,-0.0153151,,3,3.0
LiMgPt2,0.0,-0.037767,,3,3.0
Y2TePt2,0.0,-0.0480390999999999,,3,3.0
NSr3Hg,0.0,-0.0295074,,3,3.0
CBrLa,0.0,-0.0255122,,3,3.0
O2AsBrCd,2.7564,-0.0176957999999999,,3,3.0
CSc2Ge2Os2,0.0,-0.0320851,,3,3.0
CuY6Bi2,0.0,-0.0382906,,3,3.0
Be2GaOs2,0.0,-0.0340563,,3,3.0
YSbCe,0.0,-0.0375183,,3,3.0
MgSc2Tl,0.0,-0.0268250999999999,,3,3.0
Ag7Pb,0.0,-0.0368487999999999,,3,3.0
AlFe5,0.0,-0.016542,,3,3.0
Pt2HgTh2,0.0,-0.0812706,,3,3.0
Al2PdPu,0.0,-0.0401126999999999,,3,3.0
Fe5Y,0.0,-0.0197394,,3,3.0
Rb2CdAuHg,0.0,-0.0420168,,3,3.0
LiFGaSr2,0.0,-0.0147403,,3,3.0
Al2NiLa,0.0,-0.0193388,,3,3.0
H3FeTh,0.0,-0.0252065,,3,3.0
Be2BO3F2K,6.8,-0.00864,,3,3.0
O6MgTiEr2,3.6642,-0.0195524999999999,,3,3.0
C3N6Ga2,2.2418,-0.0108732,,3,3.0
O6Zn3GaIn,1.4356,-0.0133689,,3,3.0
YAuHg2,0.0,-0.0589412,,3,3.0
NaS2K,0.0,-0.0087317,,3,3.0
SiSe7Bi4,0.3492,-0.0389647,,3,3.0
NCa3Cu,0.0,-0.0111808999999999,,3,3.0
Al3Si2RuDy3,0.0,-0.0254374,,3,3.0
Li2PdSn,0.0,-0.0190139,,3,3.0
P2Pa,0.0,-0.041198,,3,3.0
O8GaRbW2,5.0503,-0.0210855,,3,3.0
O4Cu2YSb2Te2,0.0,-0.0225787,,3,3.0
LiHoAu2,0.0,-0.0483059999999999,,3,3.0
NMn3Ru,0.0,-0.0200258,,3,3.0
B4AlCr3,0.0,-0.0120281,,3,3.0
H2Al2Ba,0.0,-0.0128043999999999,,3,3.0
Zn3BaPt,0.0,-0.0306204,,3,3.0
Li4O8Fe3Co,1.2457,-0.0100836,,3,3.0
Al3Si2CoGd3,0.0,-0.0269973,,3,3.0
GaPdNd,0.0,-0.0318575,,3,3.0
LiO4FPCo,1.6195,-0.0096035,,3,3.0
Mg3Tb,0.0,-0.0155012,,3,3.0
Li2O2Mn,0.0,-0.0091211,,3,3.0
Al5CoSm,0.0,-0.0147996,,3,3.0
LuHfIr2,0.0,-0.0661871,,3,3.0
Al3Si2Zr3Au,0.0,-0.0234699999999999,,3,3.0
Al2MnHf,0.0,-0.0245393,,3,3.0
NiEr6Tl2,0.0,-0.0518439,,3,3.0
Co2SnHo2,0.0,-0.0341363,,3,3.0
AlZn2Rh,0.0,-0.0177311,,3,3.0
MgAl,0.0,-0.0063467,,3,3.0
Tb3Os2Au,0.0,-0.0594176,,3,3.0
HBr2Pr,4.2267,-0.0231525,,3,3.0
O4Rb2U,2.2264,-0.0271296,,3,3.0
NiY2Os,0.0,-0.0362749,,3,3.0
O4CaTb2,4.5844,-0.021936,,3,3.0
BTc3,0.0,-0.0284526,,3,3.0
NSc2Sn,0.0,-0.0198677999999999,,3,3.0
Se2RuSm6,0.0,-0.0388898,,3,3.0
Y6Sn2Ir,0.0,-0.0352267999999999,,3,3.0
LiAsPt2,0.0,-0.0413023999999999,,3,3.0
Li3Pb4,0.0,-0.044563,,3,3.0
SrRu2Pa,0.0,-0.0482057,,3,3.0
CuRu2Sm2,0.0,-0.035023,,3,3.0
LiNdPb,0.0,-0.0413425,,3,3.0
Cd3NdAu2,0.0,-0.0460245,,3,3.0
BCNiPr,0.0,-0.019675,,3,3.0
OY3Cd,0.0,-0.0255719999999999,,3,3.0
LiPEu,0.0,-0.0232997,,3,3.0
LiMg2Ru,0.0,-0.0118226999999999,,3,3.0
RhTbBi,0.0,-0.0539493999999999,,3,3.0
GeSe3Rb,1.4959,-0.0207056,,3,3.0
SiRh2Ag,0.0,-0.0277746,,3,3.0
GeRu3Dy2,0.0,-0.0370957,,3,3.0
O7V2Sr3,0.0,-0.0151694999999999,,3,3.0
O8SnHf3,4.3749,-0.0261363999999999,,3,3.0
Zn3PrPt2,0.0,-0.0381858,,3,3.0
O6TiNiBa2,0.3815,-0.0174102,,3,3.0
AlRh2Th,0.0,-0.0438425999999999,,3,3.0
ZnZrAu2,0.0,-0.0462624,,3,3.0
FSrI,4.9613,-0.0239337,,3,3.0
O8MnZnSr2La2,2.3645,-0.0181544999999999,,3,3.0
Li2SnHo,0.0,-0.0228501,,3,3.0
S6Ta2Au,0.0,-0.0296953,,3,3.0
Ni7Ir,0.0,-0.0230374,,3,3.0
F6TmHg,0.0,-0.0203143,,3,3.0
NSnEr2,0.0,-0.0378421,,3,3.0
Cl12FeRb4Sb,0.0,-0.0144764,,3,3.0
O7Na2S2,5.9429,-0.008321,,3,3.0
DyRe2,0.0,-0.0636447,,3,3.0
NdTlPb2,0.0,-0.0673637,,3,3.0
ScCoSn,0.0,-0.0229756,,3,3.0
Zn2In2Eu,0.0,-0.0299211,,3,3.0
BeY2Os,0.0,-0.0332646999999999,,3,3.0
MgZn3Au2,0.0,-0.0309616,,3,3.0
ZnPd2Pr,0.0,-0.0313617,,3,3.0
AlAu2Pu,0.0,-0.0645291,,3,3.0
CoGa4Tb,0.0,-0.0221123,,3,3.0
RhBa2Au,0.0,-0.0459952,,3,3.0
GaTbPt2,0.0,-0.0520852,,3,3.0
Ge2Sn3Tm3Os,0.0,-0.0420575,,3,3.0
OPCdCe,0.0,-0.0247769,,3,3.0
Cl2Sr2Te,3.2044,-0.0219267,,3,3.0
Fe4As2Rb,0.0,-0.0193585,,3,3.0
RhCdBa,0.0,-0.0347909,,3,3.0
FeCo2Zr2,0.0,-0.0230597,,3,3.0
W2IrPt,0.0,-0.0705258,,3,3.0
O5Ca2Ti2Se2,0.5761,-0.0139537999999999,,3,3.0
Co2Ga2Th,0.0,-0.0329965,,3,3.0
O6ScMnBi2,1.5808,-0.0247643,,3,3.0
ZnGaTm2,0.0,-0.0339508,,3,3.0
O6Ca2TaPu,0.0,-0.026508,,3,3.0
SbLu2,0.0,-0.0501075999999999,,3,3.0
Zn2SnNd2,0.0,-0.030626,,3,3.0
SiYOs,0.0,-0.0373716999999999,,3,3.0
SnTePu,0.0,-0.0616781,,3,3.0
SnI3,0.0,-0.0368327,,3,3.0
ScGa2Nb2,0.0,-0.0230887,,3,3.0
LiSiAg2,0.0,-0.0188824,,3,3.0
O3SiMn,2.2198,-0.0120390999999999,,3,3.0
CdHg3,0.0,-0.0587161,,3,3.0
ScFe2Ta,0.0,-0.0294227,,3,3.0
Zn2Ga2Th,0.0,-0.0316004,,3,3.0
N3FeSr3,0.0,-0.0169636,,3,3.0
B2Lu,0.0,-0.0241820999999999,,3,3.0
Cd2BaAu,0.0,-0.0429388999999999,,3,3.0
NaAl2Pt2,0.0,-0.0330915,,3,3.0
In5PtPu,0.0,-0.0499942,,3,3.0
ZnSr2Rh,0.0,-0.0233595,,3,3.0
O7Sc2Ge2,5.0221,-0.0127926,,3,3.0
H2Rh2Bi,0.0,-0.0305373,,3,3.0
Mo3Ru5,0.0,-0.0347886,,3,3.0
Cr3Re4,0.0,-0.0484884,,3,3.0
SiMn2Ir,0.0,-0.0299958,,3,3.0
Ca2Ir2Pb,0.0,-0.0480169,,3,3.0
Al4DyAu,0.0,-0.0252546999999999,,3,3.0
Cu4Zn,0.0,-0.0149153,,3,3.0
O2NaCu,0.9793,-0.0091638999999999,,3,3.0
Na2InAu2,0.0,-0.0364179,,3,3.0
O6NiSr2Hf,1.1581,-0.0188901,,3,3.0
Rh2DyPb,0.0,-0.048401,,3,3.0
Sc2ZnIn,0.0,-0.0193882,,3,3.0
NAlCe3,0.0,-0.0310067999999999,,3,3.0
H6AlLa,3.0238,-0.0093877,,3,3.0
ScIr2,0.0,-0.053136,,3,3.0
LiF6AlPd,2.1709,-0.0100111,,3,3.0
O3FNaS,5.8764,-0.0079803,,3,3.0
Zr2Rh2Bi,0.0,-0.0422778,,3,3.0
CoGa5Hf,0.0,-0.0235008,,3,3.0
O6Mg2CoIr,0.0,-0.0153731,,3,3.0
ZnRh2Pa,0.0,-0.0458461,,3,3.0
Se4Pd3Cs2,1.2947,-0.0291169,,3,3.0
O6MgSnTm2,4.4436,-0.0212653,,3,3.0
RuOs2Ir,0.0,-0.0623689,,3,3.0
Co3Ta2,0.0,-0.0371016,,3,3.0
LiCl6K2Pr,5.3739,-0.0132906,,3,3.0
O6NbEu2Ho,0.3246,-0.0259213999999999,,3,3.0
ClMnBr,2.4481,-0.016623,,3,3.0
CN2I2Ba2,3.8981,-0.0272847,,3,3.0
KCa2Cd,0.0,-0.0146626999999999,,3,3.0
AlY6Sb2,0.0,-0.0284573,,3,3.0
Br6Cs2Ho,0.0,-0.0286024,,3,3.0
Al3FeLu2,0.0,-0.0258161999999999,,3,3.0
CdHg4Tl,0.0,-0.0624729,,3,3.0
Si2Rh3Pr,0.0,-0.0285792,,3,3.0
BNa2Pd2,0.0,-0.0165123,,3,3.0
CuNb2Te4,0.0,-0.0333315,,3,3.0
S4CaLa2,2.4131,-0.0216717,,3,3.0
LiOCu,1.4369,-0.0092652,,3,3.0
PCoSm,0.0,-0.0250826,,3,3.0
S2KHf,0.0,-0.0242263,,3,3.0
LiZn2Zr,0.0,-0.0152894,,3,3.0
S3Te3Bi4,0.3477,-0.0457273,,3,3.0
NClEu2,0.0,-0.0329262,,3,3.0
Al5Sr2Ag5,0.0,-0.020347,,3,3.0
Rh3Pb,0.0,-0.0441839999999999,,3,3.0
S2CuIr,1.3232,-0.0267494,,3,3.0
RhCdSn,0.0,-0.0336315,,3,3.0
Ag2Gd,0.0,-0.0407897,,3,3.0
F6MgK2Cu,0.0,-0.0087464,,3,3.0
ZnCdDy,0.0,-0.0310208,,3,3.0
FeNiI4,0.0,-0.0303471,,3,3.0
B2N3Fe2Y3,0.0,-0.0175998,,3,3.0
CoRh5,0.0,-0.0309999,,3,3.0
MgSc2Cu2,0.0,-0.0130652,,3,3.0
ScPtHg,0.0,-0.0518153,,3,3.0
ZnBi2Pu,0.0,-0.0703086,,3,3.0
H3Pm,0.0,-0.0142208,,3,3.0
S6Co3Rh,0.0,-0.0148641,,3,3.0
S6K2Ge2Pb,2.3761,-0.0179589,,3,3.0
Ga2TmPt2,0.0,-0.0461021,,3,3.0
Ca2SePd,0.3358,-0.0192091,,3,3.0
KCu2As2,0.0,-0.0160732,,3,3.0
Br3Eu,0.0,-0.0297323,,3,3.0
Sc3Pt,0.0,-0.0290644,,3,3.0
F6VRb3,1.1695,-0.0132334,,3,3.0
Si3Ho5,0.0,-0.0351094,,3,3.0
Co2SmIr3,0.0,-0.0490568,,3,3.0
MgSnBi2,0.0644,-0.0495139,,3,3.0
S6AsAg6Sb,0.9369,-0.0218278,,3,3.0
HScTe,0.7454,-0.0193404,,3,3.0
CaLuPb,0.0,-0.0475051,,3,3.0
H8Mn3Ba,0.0,-0.010331,,3,3.0
TiAsPt5,0.0,-0.0560212,,3,3.0
ZrPdPt2,0.0,-0.0520769,,3,3.0
S5CoBaPr2,0.2797,-0.0232678,,3,3.0
Cu4As2Pr,0.0,-0.0211276,,3,3.0
PK,1.4123,-0.0099037,,3,3.0
Hg2PbBi,0.0,-0.0725822,,3,3.0
AgTmTl2,0.0,-0.0571894,,3,3.0
Fe5Nb,0.0,-0.0206729999999999,,3,3.0
Na2S3Sm,0.0,-0.0151745,,3,3.0
Ag2GdTm,0.0,-0.0436828,,3,3.0
ZnCd2Nd,0.0,-0.0298683,,3,3.0
Sc2NiGa,0.0,-0.0158492,,3,3.0
Be2ZnRh2,0.0,-0.0186472,,3,3.0
LiSi2Er2,0.0,-0.0252775,,3,3.0
Ru2AgTm3,0.0,-0.0433278,,3,3.0
Cu2ZrHg,0.0,-0.0325177,,3,3.0
LiZrTe2,0.0,-0.0279435,,3,3.0
PCl2Pu2,0.0,-0.0508425999999999,,3,3.0
GeRh3Nd2,0.0,-0.03552,,3,3.0
Cl2CuSeBi,0.8718,-0.0265293999999999,,3,3.0
CSi2Co2Dy2,0.0,-0.0235762,,3,3.0
NiSnLu,0.0,-0.0365492,,3,3.0
F6NaMgRb2,0.0,-0.0100977999999999,,3,3.0
KPdSb,0.0,-0.026652,,3,3.0
KAsSe3Au,0.6237,-0.0268027,,3,3.0
K2SnBi2,0.0,-0.0422721,,3,3.0
BeSe2Au,0.0,-0.0287505,,3,3.0
NMn2Au,0.0,-0.029147,,3,3.0
Al5Fe2Zr,0.0,-0.0136175999999999,,3,3.0
KBa2Tl2,0.0,-0.0468308,,3,3.0
MoTe2,0.8277,-0.0367327999999999,,3,3.0
NSr3Bi,0.3774,-0.0319602,,3,3.0
Zn2InTm,0.0,-0.0284399,,3,3.0
Na2Sb2Bi,0.0,-0.0325417,,3,3.0
Cl6K2AgSm,3.8847,-0.0160032,,3,3.0
ScLu5,0.0,-0.0484861999999999,,3,3.0
Co8Cu,0.0,-0.0170142,,3,3.0
Al3Tm2,0.0,-0.02583,,3,3.0
Tc2LuPa,0.0,-0.056587,,3,3.0
BO4MgGa,3.9568,-0.0102662999999999,,3,3.0
O2MnZn,0.0877,-0.0128114,,3,3.0
H3NaRhBa,0.0,-0.0150377,,3,3.0
FeZrTe,1.3507,-0.0292596,,3,3.0
CoAs2Cs4,0.0,-0.030185,,3,3.0
FeGaZrRh,0.1899,-0.0253608,,3,3.0
Si4Ag4Sm3,0.0,-0.027695,,3,3.0
LiPt2Tl,0.0,-0.0541514,,3,3.0
F6NiPb,0.5374,-0.0162258999999999,,3,3.0
Al5PdTb,0.0,-0.0174979,,3,3.0
Os5Pt,0.0,-0.0715132,,3,3.0
Mn4TaPt,0.0,-0.0351017999999999,,3,3.0
Cl6Rb3Pr,5.5899,-0.017683,,3,3.0
Co2NiCu,0.0,-0.0164404,,3,3.0
AlAgLu,0.0,-0.0319832,,3,3.0
O6MgSrBaBi,0.0,-0.0203874,,3,3.0
ZnAu2Th2,0.0,-0.0694058,,3,3.0
B2U,0.0,-0.0399983,,3,3.0
CdCePt,0.0,-0.0493114,,3,3.0
F5BaPu,0.0,-0.0278432,,3,3.0
O8CePr3,0.0,-0.0217423,,3,3.0
H4Na4Ir,0.0,-0.0115823,,3,3.0
BaPmPb2,0.0,-0.0594107,,3,3.0
ClNi2La2,0.0,-0.0263035,,3,3.0
CaNiSe3Ho,0.0,-0.0241019,,3,3.0
Li2O8Fe3Cu,0.0,-0.0104751,,3,3.0
NiPd3,0.0,-0.0286054,,3,3.0
CSbHo3,0.0,-0.0396389,,3,3.0
H4YPd,0.0,-0.0129388,,3,3.0
Al4YRu,0.0,-0.0162844,,3,3.0
Fe4PrTb,0.0,-0.0270277999999999,,3,3.0
AlHfPt,0.0,-0.0481683,,3,3.0
O5SiCaSn,4.0598,-0.0135876,,3,3.0
SnDyHg,0.0,-0.0512789,,3,3.0
Cl3AgCs,0.0,-0.0198937,,3,3.0
HSbCs3,0.0,-0.0311574999999999,,3,3.0
O3SeBa,4.3583,-0.01776,,3,3.0
Li2KBa2,0.0,-0.0183737,,3,3.0
C2ClNd2,0.0,-0.0241159,,3,3.0
KSbTl2,0.0,-0.0478145,,3,3.0
O6CdWPb2,2.6408,-0.0304861,,3,3.0
In2HoIr,0.0,-0.0474056,,3,3.0
MgMn4Mo,0.0,-0.018705,,3,3.0
N2NiEu2,0.0,-0.0293938999999999,,3,3.0
Al3Cs2,0.0,-0.0197865,,3,3.0
Se2SrPb,1.0282,-0.0360128,,3,3.0
TmHg2Tl,0.0,-0.065455,,3,3.0
Ge3EuAu,0.0,-0.0365618,,3,3.0
N2MnFe,0.0,-0.0140409,,3,3.0
Be2RuIr,0.0,-0.029178,,3,3.0
Cu4Ag3,0.0,-0.0220393,,3,3.0
AlMnIr2,0.0,-0.0429373,,3,3.0
ScPd5Sb,0.0,-0.0315199,,3,3.0
H3NaAu,1.8464,-0.0169281,,3,3.0
LiNiBa3,0.0,-0.0273542,,3,3.0
S4Sc2Zn,0.8553,-0.0133313,,3,3.0
BCCoNp,0.0,-0.0356162,,3,3.0
In3Sn2Er3Pt,0.0,-0.0444687,,3,3.0
Ga2Gd,0.0,-0.0312568,,3,3.0
In3Sn2Pr3Au,0.0,-0.0420207,,3,3.0
Li2GaAc,0.0,-0.0281167,,3,3.0
Pr2Pt2Hg,0.0,-0.0601509,,3,3.0
LiF6CaV,1.2733,-0.0091911,,3,3.0
CaRuSb2,0.0,-0.0303427,,3,3.0
SrAuBi2,0.0,-0.0626972,,3,3.0
O6Ba2SmW,0.0,-0.0261017,,3,3.0
LiGaPm2,0.0,-0.0270267,,3,3.0
F7Na3Os,0.872,-0.0123372,,3,3.0
Sn3NdPt,0.0,-0.0450557,,3,3.0
Li2F8CaZn,0.4645,-0.0073196,,3,3.0
B2CaRu3,0.0,-0.0218071,,3,3.0
Al3Si2AuPu3,0.0,-0.0495998,,3,3.0
ZnLa2Au,0.0,-0.0429111,,3,3.0
In3Tm3Ir2,0.0,-0.050552,,3,3.0
Cl6IrTl2,0.0,-0.0301563,,3,3.0
F6TiU,0.0,-0.0210453,,3,3.0
NiCu2Te2,0.0,-0.0243005,,3,3.0
LiCu2As2,0.0,-0.014875,,3,3.0
TeIPt,0.0,-0.0484494,,3,3.0
SiMn3Th2,0.0,-0.0430519,,3,3.0
H2RhPt,0.0,-0.0276067,,3,3.0
Ge2Rh3Ba,0.0,-0.0306027,,3,3.0
SrBi2,0.0,-0.060472,,3,3.0
Fe2Gd,0.0,-0.0317272,,3,3.0
Co2Ho3Pb3,0.0,-0.0514523,,3,3.0
CaSbDy,0.0,-0.0323894,,3,3.0
O6SbBa3,0.0,-0.0217018,,3,3.0
VAsHf,0.0,-0.0343356,,3,3.0
Se3Mo3In,0.0,-0.0287923,,3,3.0
Al3Si2MnCe3,0.0,-0.0222290999999999,,3,3.0
Cl6Ag3Dy,3.4195,-0.0202969,,3,3.0
SiTc2Ir,0.0,-0.0382023,,3,3.0
CaZrSb2,0.0,-0.0296091,,3,3.0
PGaSe4,1.8527,-0.0181408,,3,3.0
O3AsTl,2.6789,-0.0235017,,3,3.0
ZnBa5,0.0,-0.0352571999999999,,3,3.0
P2Rb3Pt3,0.0,-0.0372897,,3,3.0
ScSnPt2,0.0,-0.0487321999999999,,3,3.0
F5RbPd2,0.7736,-0.0148404,,3,3.0
MgPdAg2,0.0,-0.025465,,3,3.0
SiMn2Mo,0.0,-0.0206531999999999,,3,3.0
Ag2La2Pb,0.0,-0.0454652,,3,3.0
CuGeZrSb,0.0,-0.0260373,,3,3.0
MnPd2Tl,0.0,-0.0393774999999999,,3,3.0
C2NbU,0.0,-0.0396112,,3,3.0
RhSm6Pb2,0.0,-0.050872,,3,3.0
ScHgPb,0.0,-0.0530968999999999,,3,3.0
O6CaInTe,0.0,-0.0147714,,3,3.0
FeSb2Ho,0.0,-0.0358787,,3,3.0
Co2InHo,0.0,-0.0295475,,3,3.0
Cl3Tb,4.0671,-0.0201999,,3,3.0
O2KBi,1.8332,-0.0262441,,3,3.0
Al4NiSm,0.0,-0.0158838,,3,3.0
In5HoIr,0.0,-0.0414676,,3,3.0
NiSrCd2,0.0,-0.0250177,,3,3.0
NaPAu,0.0,-0.0283823,,3,3.0
Cu2Te3Hf,0.0,-0.0346386,,3,3.0
SiAgGd,0.0,-0.0339449,,3,3.0
PdSnEu,0.0,-0.0415907,,3,3.0
Li2CuAs,0.0,-0.0106142,,3,3.0
CaRuLa2,0.0,-0.0328431,,3,3.0
Co2Zr2Pb,0.0,-0.0346594,,3,3.0
Sc2InPt,0.0,-0.0339917999999999,,3,3.0
Ru2SnEr,0.0,-0.039428,,3,3.0
Na2AuPb,0.0,-0.0387005,,3,3.0
CuINd,0.0,-0.0327098,,3,3.0
Li2BO4Al,5.5666,-0.0084047,,3,3.0
Sc3Zn2Os,0.0,-0.0241684,,3,3.0
CdSm2Pb,0.0,-0.0493645,,3,3.0
Ga5RuNp,0.0,-0.0322454999999999,,3,3.0
I4Sm,0.0,-0.0394176,,3,3.0
Si2Mo,0.0,-0.0187693,,3,3.0
Be7Cu,0.0,-0.005708,,3,3.0
CTi2Te2,0.0,-0.0240734,,3,3.0
AsTe3La4,0.0,-0.0398232,,3,3.0
Mg2ZnY,0.0,-0.0130856999999999,,3,3.0
OSAgLa,1.8273,-0.0248245,,3,3.0
Al6CoPr,0.0,-0.0137685999999999,,3,3.0
ZnGeSm2,0.0,-0.0309607,,3,3.0
Cd3La,0.0,-0.0339765999999999,,3,3.0
RhTmBi,0.0,-0.0556473,,3,3.0
Rh5Pu,0.0,-0.0466703,,3,3.0
Sc2ZrRu,0.0,-0.0239174,,3,3.0
SiPdNd,0.0,-0.0297903,,3,3.0
Al3ZnGe2Hf3,0.0,-0.029667,,3,3.0