formula,bg,formation_energy,mp-id,fidelity,bg_category
ZnInAu,0.0,-0.0389633,,3,3.0
Si3ScCu2,0.0,-0.0128155,,3,3.0
Ge4Ru4Ho3,0.0,-0.0336433,,3,3.0
RuTe2Tm6,0.0,-0.0475224,,3,3.0
O5Fe2Ba2,0.0,-0.0184807,,3,3.0
ScCuGe2,0.0,-0.0174056,,3,3.0
AgPrBi2,0.0,-0.0585781,,3,3.0
S2RbSm,2.6324,-0.0232272,,3,3.0
KCuBa2,0.0,-0.0255929,,3,3.0
Mg2SePb,0.0,-0.0271961,,3,3.0
TiTe2Hg,0.0,-0.0401790999999999,,3,3.0
AlMnFeNi,0.0417,-0.015492,,3,3.0
In4HoIr,0.0,-0.0427052,,3,3.0
LiO6Dy2W,0.5245,-0.0235217,,3,3.0
Rh2PdDy,0.0,-0.0376725,,3,3.0
Rh2InNp,0.0,-0.052272,,3,3.0
CoIrPt,0.0,-0.0528538,,3,3.0
OF5Co3,0.0,-0.0104196,,3,3.0
Sc3Ga3RhSn2,0.0,-0.0226885,,3,3.0
O3GdBi,2.6883,-0.0336028,,3,3.0
CdIn2Bi,0.0,-0.0438741,,3,3.0
NiCdHo,0.0,-0.0322473,,3,3.0
CrGeTc2,0.0,-0.027059,,3,3.0
B5Pr2Os3,0.0,-0.0344771,,3,3.0
MnBr2,2.3702,-0.0202807,,3,3.0
BSe3Tl,1.021,-0.0282922,,3,3.0
Fe2U,0.0,-0.0464660999999999,,3,3.0
SrSn2Pt3,0.0,-0.0514732,,3,3.0
S4BrInBi2,1.6227,-0.0315566,,3,3.0
GeHoHf,0.0,-0.0442935,,3,3.0
MgBr3In,3.005,-0.0206119,,3,3.0
ZnSeBr2Ag2,1.4738,-0.0230223,,3,3.0
SbSmPt,0.2795,-0.0520642,,3,3.0
S3KTiRh,0.0,-0.0156648,,3,3.0
Zn2BaPt2,0.0,-0.0420188,,3,3.0
Ga4LuIr,0.0,-0.0325972,,3,3.0
MgIn2Lu,0.0,-0.0321373,,3,3.0
MgZrPd,0.0,-0.0233841,,3,3.0
HoAu8,0.0,-0.0672595,,3,3.0
Ni2Zr2Sb,0.0,-0.0268618999999999,,3,3.0
B3O6As,5.1014,-0.0102428,,3,3.0
Al2LaPt2,0.0,-0.0411859,,3,3.0
BO3Ba,0.7045,-0.0156696,,3,3.0
Mg2ZnHo,0.0,-0.0183353999999999,,3,3.0
ZnInAc2,0.0,-0.0573833,,3,3.0
Al3CoGe2Th3,0.0,-0.0413153,,3,3.0
Fe2InTb,0.0,-0.0293663999999999,,3,3.0
Te2Pr6Re,0.0,-0.045732,,3,3.0
ScRu2Hf,0.0,-0.0375049,,3,3.0
O6NaScSbLa,4.2926,-0.0164719,,3,3.0
Zn2SrIn5,0.0,-0.027225,,3,3.0
CoY,0.0,-0.0227313,,3,3.0
GeAs2Cd,0.0706,-0.0225929,,3,3.0
Be4ZnAu,0.0,-0.0168953999999999,,3,3.0
KSe2Ag3,1.6545,-0.0242327,,3,3.0
FeRh2W,0.0,-0.0390578,,3,3.0
H2Sr2Pt,0.4557,-0.0249999,,3,3.0
OF5KMnRb2,2.2158,-0.012008,,3,3.0
F6NaRb2Ho,7.4876,-0.01515,,3,3.0
CoBr3Cs,0.5725,-0.0238883,,3,3.0
Co3La2,0.0,-0.0276055999999999,,3,3.0
Fe2Ce2Tl,0.0,-0.0395314,,3,3.0
Sc4Ag,0.0,-0.017758,,3,3.0
O2Mn,0.5416,-0.0123577,,3,3.0
FeTa2,0.0,-0.0505197,,3,3.0
O5Se2Hf2Pu2,0.0,-0.0408892,,3,3.0
ClFeTm,0.0,-0.0271525,,3,3.0
S2InSm,1.0997,-0.0258277,,3,3.0
AlSrBa2,0.0,-0.0273194,,3,3.0
Br3Ba,0.0,-0.0262242,,3,3.0
SeInTl,0.0,-0.0423,,3,3.0
Cu4DyTl,0.0486,-0.0303843,,3,3.0
O2Se,3.8135,-0.0116051,,3,3.0
SiRe2,0.0,-0.0510001,,3,3.0
MgCu2Ag,0.0,-0.0167294,,3,3.0
Cd2LaAu2,0.0,-0.0491464,,3,3.0
Cl6K2MnAu,0.0,-0.0166176,,3,3.0
Si2Pd2Dy,0.0,-0.0276841,,3,3.0
N3ErW,1.3528,-0.0307992999999999,,3,3.0
SiPd3Eu2,0.0,-0.0367783999999999,,3,3.0
Al3Ge2PdNp3,0.0,-0.0463745,,3,3.0
Al3FeSn2Tm3,0.0,-0.0304446,,3,3.0
H8O14P2V2Ni,1.6883,-0.0087504,,3,3.0
PRuDy,0.0,-0.0322034,,3,3.0
O6FeBa2Os,0.6844,-0.0228109,,3,3.0
SAs,1.5867,-0.0150723,,3,3.0
NSbPu3,0.0,-0.0760454,,3,3.0
CdSm2Ir,0.0,-0.048209,,3,3.0
O6TeBa2Dy,0.0,-0.0228326999999999,,3,3.0
Cu3Ga5Nd2,0.0,-0.0220292999999999,,3,3.0
ScHfIr2,0.0,-0.0559594999999999,,3,3.0
AlErHg2,0.0,-0.0490593,,3,3.0
PAs,0.0,-0.0152298,,3,3.0
ClFeBr2,0.3464,-0.0169704,,3,3.0
CaZnAu,0.0,-0.0315395,,3,3.0
C2FeNd,0.0,-0.0206813,,3,3.0
Ga5PtPa,0.0,-0.0365467,,3,3.0
Ni2Tm3Hg,0.0,-0.0432115999999999,,3,3.0
NFBa6Pb2,0.0,-0.0414376,,3,3.0
O4GdDy,0.0,-0.024885,,3,3.0
Mg2AsPb,0.0,-0.0268159,,3,3.0
CePm3,0.0,-0.0440629,,3,3.0
O6Ca2SbLu,4.4775,-0.0179237,,3,3.0
Zn3CsPt,0.0,-0.0300187999999999,,3,3.0
MgRuGd2,0.0,-0.0395164,,3,3.0
SiCl3Nd3,0.0,-0.0252959,,3,3.0
TbPb2Th,0.0,-0.0740942,,3,3.0
AgCd2Dy,0.0,-0.0353185,,3,3.0
AlCuAu,0.0,-0.0311343,,3,3.0
SeRhBa,0.0,-0.0321865,,3,3.0
Sn2Au3,0.0,-0.0559575,,3,3.0
F6FeCs,2.128,-0.0119982,,3,3.0
F6ZrCs3,0.0,-0.0197423,,3,3.0
Ag2Tm2Pb,0.0,-0.0488926,,3,3.0
ZnInIr,0.0,-0.0394804,,3,3.0
O3GaSb,2.6328,-0.0161264,,3,3.0
CSeU2,0.0,-0.059757,,3,3.0
Mg3P2,1.6257,-0.0079164,,3,3.0
Al5ScCu,0.0,-0.0100653,,3,3.0
Sc2Pd2Sn,0.0,-0.026977,,3,3.0
Be2LaIr2,0.0,-0.039576,,3,3.0
Zr2InTl,0.0,-0.0421529999999999,,3,3.0
LiAlIr2,0.0,-0.0387806,,3,3.0
N3PdNd,0.0,-0.0213637,,3,3.0
O7NaAs2Er,4.112,-0.0147631999999999,,3,3.0
Cu4TaIr,0.0,-0.0332576,,3,3.0
O8Co3Te,0.0,-0.0128168,,3,3.0
NO4Ti3,0.0,-0.0132465,,3,3.0
Mg4Pb3,0.0,-0.0354277,,3,3.0
Mo6Te6Ba,0.0,-0.0368629,,3,3.0
Al3YRh,0.0,-0.0178484,,3,3.0
Pd2AuBi,0.0,-0.0534931,,3,3.0
Tc2TaW,0.0,-0.0518791,,3,3.0
N2OGe2,3.1018,-0.013217,,3,3.0
Ni2AgSn4,0.0,-0.0297526,,3,3.0
AlRu2Ce2,0.0,-0.0338735,,3,3.0
SrPd2Bi2,0.0,-0.0496593,,3,3.0
F6Rb2RuAg,0.0,-0.0150856,,3,3.0
BaAu4Tl,0.0,-0.0651553,,3,3.0
Ga2LaPm,0.0,-0.0306006,,3,3.0
Ga2Hf2Os,0.0,-0.046617,,3,3.0
Zn2AgPt,0.0,-0.0324927,,3,3.0
ScRb2I6,0.0,-0.0319682,,3,3.0
Co2SnLa2,0.0,-0.0316656,,3,3.0
Sc2CrMo,0.0,-0.0203246,,3,3.0
In2LaAu,0.0,-0.0453769,,3,3.0
S4Co3,0.0,-0.013393,,3,3.0
NbTa2Ir,0.0,-0.0598685,,3,3.0
MgTi2Pt2,0.0,-0.0364622999999999,,3,3.0
RhDyHg2,0.0,-0.0550007,,3,3.0
F3Al,8.8387,-0.0084318,,3,3.0
SiGd2Pt2,0.0,-0.0548696,,3,3.0
P2CaIr2,0.5632,-0.0355654,,3,3.0
Ti2Ga4Tb,0.0,-0.0212428,,3,3.0
O4BrYBi2,1.5395,-0.0307571,,3,3.0
ZnY2Pd,0.0,-0.0262178,,3,3.0
Ga2SnAu2,0.0,-0.0415315,,3,3.0
NiYBi2,0.0,-0.0508175,,3,3.0
LiBO4V,0.4755,-0.0099879,,3,3.0
Li2F8BaDy,0.0,-0.0135123999999999,,3,3.0
CSi2Co2U2,0.0,-0.0390987,,3,3.0
Ca3Ru4Sn4,0.0,-0.0287597,,3,3.0
MgZrPt2,0.0,-0.0451909,,3,3.0
KNi2As2U,0.0,-0.0312961,,3,3.0
AlCuPdTm,0.0,-0.0275976,,3,3.0
CuGa3Nd2,0.0,-0.0259107999999999,,3,3.0
SiInPt,0.0,-0.0383226,,3,3.0
NaCl6Rb2U,1.1672,-0.0217585,,3,3.0
AlCuDy,0.0,-0.0241051,,3,3.0
Si7Ce2,0.0,-0.0179721,,3,3.0
S4InTa2,0.0,-0.0303351,,3,3.0
Ti2RuOs,0.0,-0.0356209,,3,3.0
Zn3Ho,0.0,-0.0228211,,3,3.0
Zn2Zr3,0.0,-0.0240667,,3,3.0
Al3Ge2OsPa3,0.0,-0.0485288,,3,3.0
CoIn4Er,0.0,-0.0337478,,3,3.0
Na2S4MnSn,1.3045,-0.0136484,,3,3.0
Ca2CdAu,0.0,-0.0304105,,3,3.0
Al4PdNd,0.0,-0.0186145,,3,3.0
PdHo2Os,0.0,-0.0513706,,3,3.0
Li2SiHg,0.0,-0.0210187999999999,,3,3.0
Mg2Si2Cu,0.0,-0.0091562,,3,3.0
Si2SrRe,0.0,-0.0286585,,3,3.0
F6NaCaRb2,0.0,-0.0106003,,3,3.0
InAuHg,0.0,-0.057057,,3,3.0
Ni2Ge4Au,0.0,-0.025651,,3,3.0
O3BrAg,2.5878,-0.0138063,,3,3.0
Ti6Se2Pt,0.0,-0.0238378,,3,3.0
Cu2Sn2Dy,0.0,-0.030419,,3,3.0
LiP2Pd2U,0.0,-0.0328078999999999,,3,3.0
Zr2Ag,0.0,-0.0310523999999999,,3,3.0
ErPt2Au,0.0,-0.0660589999999999,,3,3.0
Al3Er2Re,0.0,-0.0330347,,3,3.0
AsPrSm,0.0,-0.0370679,,3,3.0
S2Ni2Hg,0.0,-0.0241723,,3,3.0
Cu3SrPd2,0.0,-0.0225367,,3,3.0
Ni4SnLu,0.0,-0.0263957,,3,3.0
Ge2InHo2,0.0,-0.0346965,,3,3.0
Zn3Pd2Er,0.0,-0.0267499,,3,3.0
Li2AlSc,0.0,-0.0068501,,3,3.0
RhHo6Tl2,0.0,-0.0530464,,3,3.0
Zn2PdPr,0.0,-0.0264024,,3,3.0
Al5ScMn,0.0,-0.0105341,,3,3.0
O6NaFeI,0.6471,-0.0117714,,3,3.0
MnNiZn2,0.0,-0.0156116,,3,3.0
CoGa3Ge2Nd3,0.0,-0.0268514,,3,3.0
Cd3Au5,0.0,-0.0548212,,3,3.0
Te2Tm6Au,0.0,-0.0513994,,3,3.0
Al2CeOs,0.0,-0.0336144,,3,3.0
CoCeTl,0.0,-0.0450179,,3,3.0
Co2In5Hf4,0.0,-0.0414801,,3,3.0
SiZnTb,0.0,-0.0241339,,3,3.0
Al3PdTh2,0.0,-0.0419459,,3,3.0
ZnTcOs,0.0,-0.0401577,,3,3.0
Ho3Os2Hg,0.0,-0.0603171,,3,3.0
F6GaY,7.5929,-0.0117657,,3,3.0
BO3Ga,4.8884,-0.0108465,,3,3.0
MnSr2Pt2,0.0,-0.0414709999999999,,3,3.0
AlY2Rh2,0.0,-0.0272539,,3,3.0
OTiZr3,0.0,-0.0240507999999999,,3,3.0
Rb2I6Au,0.0,-0.0375229,,3,3.0
LiO6La2Ir,0.0,-0.0223219,,3,3.0
RbRhHg3,0.0,-0.0520411,,3,3.0
Al3Sc3Sn2Re,0.0,-0.0237662,,3,3.0
LiO4VCo,0.3342,-0.0110769,,3,3.0
H4Fe3Co,0.0,-0.0106727,,3,3.0
Cl6Te4Ta,0.0,-0.024791,,3,3.0
F7CsTm2,7.4512,-0.0208277,,3,3.0
Pd2CdHo,0.0,-0.0370319,,3,3.0
Si2NiCuCe,0.0,-0.0198921,,3,3.0
Cu2Se2Hg,0.0,-0.0278144,,3,3.0
O6Ba2LuTa,3.9061,-0.0273608,,3,3.0
Be4FeZr,0.0022,-0.0112623999999999,,3,3.0
Ag2Lu2Pb,0.0,-0.0502793,,3,3.0
N2Mg2Ca,2.713,-0.0086550999999999,,3,3.0
NaSbEu,0.1996,-0.0325564,,3,3.0
Ni4CdLu,0.0,-0.0254462,,3,3.0
S2AgLu,1.6732,-0.0279910999999999,,3,3.0
CoGa5Eu,0.0,-0.0222062999999999,,3,3.0
OF5MnCs2Pb,1.1778,-0.0219894,,3,3.0
CGe2Rh2Pr2,0.0,-0.0297479,,3,3.0
CoGa2Ru,0.0,-0.0214814,,3,3.0
Mg2PPd3,0.0,-0.020469,,3,3.0
H8B2NaK,6.6759,-0.0050198,,3,3.0
S4AgInSn,0.9305,-0.020379,,3,3.0
AgCd2Nd,0.0,-0.0343068,,3,3.0
HLiPd3,0.0,-0.021126,,3,3.0
Be2MnW2,0.0,-0.0333669,,3,3.0
Ni4NdTl,0.0,-0.0302815,,3,3.0
Sn3Ho,0.0,-0.0396795,,3,3.0
O6YMoBa2,0.0,-0.0209907,,3,3.0
B2CCa,0.0,-0.0090078,,3,3.0
Cl6SeRb2,2.703,-0.0134437,,3,3.0
F12NaAl3Cs2,8.0525,-0.0117232,,3,3.0
PdSb2Pa,0.0,-0.0523767,,3,3.0
Ge2Y3In3Pt,0.0,-0.0333455999999999,,3,3.0
B2O6GeEu,0.0047,-0.0150727,,3,3.0
O6SrSn2Ba,1.7522,-0.0195213,,3,3.0
HClZr,0.0,-0.0152543,,3,3.0
B2CY,0.0,-0.0138344,,3,3.0
C3Ti2Mo2,0.0,-0.0194598,,3,3.0
O7P2Mo,0.47,-0.0122187,,3,3.0
Zn4YRu,0.0,-0.0198213,,3,3.0
CoTm6Pb2,0.0,-0.0537601,,3,3.0
B2N3Ni2Zr3,0.0,-0.0180495,,3,3.0
O6KGeI,3.1867,-0.012455,,3,3.0
ZrCd5,0.0,-0.0305752,,3,3.0
Ni2InDy2,0.0,-0.0328562,,3,3.0
Cu2ZnHo,0.0,-0.023553,,3,3.0
GaPd2Sm,0.0,-0.0325191,,3,3.0
F7Na3Rh,0.5407,-0.008863,,3,3.0
Mg2CuAg,0.0,-0.0143221,,3,3.0
OHf2,0.0,-0.0457337,,3,3.0
Al4Zn,0.0,-0.0088986,,3,3.0
PCsEu,0.0338,-0.034859,,3,3.0
H6RbSnCs2,0.0,-0.0153558,,3,3.0
LiHo2Ir,0.0,-0.0436079,,3,3.0
H6RhCe2,0.0,-0.0164585,,3,3.0
SiV3Ta2,0.0,-0.0329434,,3,3.0
LiZn4In,0.0,-0.0150762999999999,,3,3.0
Sc2Cu2Pb,0.0,-0.0273806,,3,3.0
PFe5Ga,0.0,-0.016981,,3,3.0
Ti6NiBi2,0.0,-0.0302413999999999,,3,3.0
OZr3Pd,0.0,-0.0277684999999999,,3,3.0
GaGe2La2,0.0,-0.0289632,,3,3.0
Si3Ti3V2,0.0,-0.0149170999999999,,3,3.0
Ir7Np,0.0,-0.0756853,,3,3.0
N3CoSm,0.5213,-0.0185288,,3,3.0
Tm3Hg2,0.0,-0.058966,,3,3.0
AgCd2,0.0,-0.0307879,,3,3.0
CaMnCuSe3,0.0,-0.0182696,,3,3.0
VFeSe10Nb2,0.0,-0.0222534,,3,3.0
Cu2Ge2La,0.0,-0.0229873,,3,3.0
N2SmTb,0.1898,-0.0293055999999999,,3,3.0
NaSe2CdCs,1.7306,-0.0236473,,3,3.0
KCu2As2Hf,0.0,-0.0241822,,3,3.0
Li2O7SmTa2,0.0,-0.0218167,,3,3.0
CFe2,0.0,-0.0153288,,3,3.0
CoSn3Ba,0.0,-0.0332815,,3,3.0
NiSb2Dy,0.0,-0.0353675,,3,3.0
O4CoLa,0.0,-0.0162153999999999,,3,3.0
LiP2SrIr2,0.0,-0.0321314,,3,3.0
ZnSm2Os2,0.0,-0.0495643,,3,3.0
Se2Br2Tb,1.4908,-0.0265948,,3,3.0
NbTaW2,0.0,-0.0598403,,3,3.0
AsRhNp,0.0,-0.0542581,,3,3.0
AsSeU,0.0,-0.0487335,,3,3.0
F6NbHg3,0.0,-0.0280519,,3,3.0
SiGeCe2,0.0,-0.0302633,,3,3.0
LiCrPt2,0.0,-0.0408971999999999,,3,3.0
PdSn2Au,0.0,-0.0438054,,3,3.0
NiAs2Dy2,0.0,-0.0317926,,3,3.0
CoNi2Re,0.0,-0.0300903,,3,3.0
Ni2GaAc,0.0,-0.0352819999999999,,3,3.0
RePt2,0.0,-0.07066,,3,3.0
CuGeAc2,0.0,-0.0541827,,3,3.0
H8Mg2CrLa,0.0,-0.008635,,3,3.0
Al2LaTm,0.0,-0.0279855,,3,3.0
CdTm2Tl,0.0,-0.0520755,,3,3.0
N4Mo3Ta3,0.0,-0.0349859999999999,,3,3.0
Tm3Tl,0.0,-0.0572745,,3,3.0
F7Ba2Pr,6.4556,-0.0189039,,3,3.0
Al2CuIr,0.0,-0.0262831,,3,3.0
Li2O3S,5.3222,-0.0074944,,3,3.0
BeCu5,0.0,-0.0134522,,3,3.0
CaIn2Er,0.0,-0.0322822,,3,3.0
GaPd2Tm,0.0,-0.0344181999999999,,3,3.0
Ca2InBi2,0.0,-0.0425641999999999,,3,3.0
O2Zr2Tl,0.0,-0.0315615999999999,,3,3.0
Zn2YEr,0.0,-0.0267469,,3,3.0
O3K,1.0507,-0.0074496,,3,3.0
Ti2ReIr,0.0,-0.0445391,,3,3.0
O6SiICs,3.2754,-0.0150648999999999,,3,3.0
Si2LaRe4,0.0,-0.0501071,,3,3.0
ZnPdEu2,0.0,-0.038898,,3,3.0
Ni3Eu2,0.0,-0.0313175,,3,3.0
P2Se6AgEr,1.7626,-0.02294,,3,3.0
Sc8Te,0.0,-0.0169609999999999,,3,3.0
Pb3Th,0.0,-0.0811537,,3,3.0
Si2PdTm2,0.0,-0.032281,,3,3.0
GeZrPd2,0.0,-0.0297002,,3,3.0
TiMo3,0.0,-0.0303198,,3,3.0
NaAsRb2I6,1.9069,-0.0296152,,3,3.0
AlP2KSe7,1.7642,-0.0166658,,3,3.0
BePt3Bi,0.0,-0.0591595,,3,3.0
LiCa2Pd,0.0,-0.0139949999999999,,3,3.0
K2Br6Ru,0.0,-0.0197635,,3,3.0
RbSbTe2,0.8491,-0.0336872,,3,3.0
Cr3Re,0.0,-0.0316590999999999,,3,3.0
HCl2Nd,4.861,-0.0177459999999999,,3,3.0
CSi2Cr2Nd2,0.0,-0.0224705,,3,3.0
SiRhLa2,0.0,-0.0333206,,3,3.0
MgPm3,0.0,-0.0342526,,3,3.0
CoGa5Pa,0.0,-0.0287826,,3,3.0
As2Tm6Re,0.0,-0.0477167,,3,3.0
Li2O7Ti2Pr,0.0,-0.0133129,,3,3.0
CCo2Sn2Dy2,0.0,-0.0307601,,3,3.0
Cl6PdCs2,1.6848,-0.018756,,3,3.0
MnZnAu,0.0,-0.034017,,3,3.0
PDy,0.0,-0.0309037,,3,3.0
F6Tc,0.0,-0.0100754,,3,3.0
Ca2In3Pt,0.0,-0.0323378,,3,3.0
OF3I,3.7036,-0.011988,,3,3.0
ZnIn7,0.0,-0.0307805,,3,3.0
GaY2Cd,0.0,-0.0262064999999999,,3,3.0
Mg2Rh2In,0.0,-0.0226864,,3,3.0
CdLa2Pb,0.0,-0.0487701,,3,3.0
LiF2Ca2,0.0,-0.0081722,,3,3.0
PmPt5,0.0,-0.0666358,,3,3.0
CuSbDy,0.0,-0.0341777999999999,,3,3.0
RbZrTe2,0.0,-0.0325547,,3,3.0
Li2Ga2Hg,0.0,-0.0213948,,3,3.0
GaLa2Hg,0.0,-0.0433499,,3,3.0
ZnNdAu,0.0,-0.0429251,,3,3.0
Zr2TcRu,0.0,-0.0334848,,3,3.0
Ge2AgIn3Er3,0.0,-0.036229,,3,3.0
AlScPd2,0.0,-0.0229506,,3,3.0
B2O6AlGa,5.7317,-0.0103171,,3,3.0
CrHf2Ir,0.0,-0.0543688,,3,3.0
CeBiTh,0.0,-0.0735609,,3,3.0
Sc2ZnGa,0.0,-0.015194,,3,3.0
Se6SnSb2Tl2,0.0,-0.0344593,,3,3.0
InHo,0.0,-0.0417974,,3,3.0
C2N2S2Ba,4.2606,-0.01452,,3,3.0
CoCu5,0.0,-0.0154606,,3,3.0
O4VMn2,0.0,-0.0135335,,3,3.0
PAgEu2,0.0,-0.0380829,,3,3.0
CuSnIr2,0.0,-0.048296,,3,3.0
GaTl2Bi2,0.0,-0.0635491,,3,3.0
O4Cu2Sb2Te2Sm,0.0,-0.0240542,,3,3.0
FHg,1.8682,-0.0371166,,3,3.0
Ge2LuPt2,0.0,-0.0477787,,3,3.0
CdPr,0.0,-0.0372925,,3,3.0
AlTi4Ge7,0.0,-0.0176337,,3,3.0
H6MnSr2,0.0,-0.0098088999999999,,3,3.0
CoSn3Pr,0.0,-0.0341125,,3,3.0
Al8Ag,0.0,-0.0103817,,3,3.0
O6CoNiPr2,0.0,-0.0183040999999999,,3,3.0
Tl5Pb,0.0,-0.0729304,,3,3.0
Rh2InTb2,0.0,-0.0397868,,3,3.0
Mg2YTm,0.0,-0.0224884,,3,3.0
Br2SbTm2,0.0,-0.0375036,,3,3.0
Ag2LuTl,0.0,-0.047841,,3,3.0
Mg2TcRu,0.0,-0.0200123,,3,3.0
K2RbTl2,0.0,-0.0365155,,3,3.0
PdPtAc2,0.0,-0.0719505,,3,3.0
Ni3Cu2Tb,0.0,-0.0212181,,3,3.0
H6Rb3In,2.3434,-0.0117694,,3,3.0
Si3TbIr,0.0,-0.0304575,,3,3.0
Al5CuEr,0.0,-0.0152146,,3,3.0
MnMoIr2,0.0,-0.0492312,,3,3.0
B6Ni2Ce,0.0,-0.0139382,,3,3.0
O6Ba2LuPt,0.0,-0.0267839,,3,3.0
FeY,0.0,-0.022934,,3,3.0
ILa2Pb2,0.0,-0.0559056,,3,3.0
SiAs2Rb2,1.3846,-0.0189293,,3,3.0
Nd2Au2Hg,0.0,-0.0596654,,3,3.0
Cu2SrIr3,0.0,-0.0444815,,3,3.0
MnNi2Pr,0.0,-0.0237495,,3,3.0
NaCdSb,0.1974,-0.0243619,,3,3.0
FeZrTa,0.0,-0.0385349,,3,3.0
LiYTe,0.0,-0.0234767,,3,3.0
NiLaIr,0.0,-0.0440614,,3,3.0
Na2Ba2Hg,0.0,-0.0313588999999999,,3,3.0
LiGa2Rh,0.0,-0.0178463,,3,3.0
Mg3Cu2Tb,0.0,-0.0154475999999999,,3,3.0
Ge2Zr2Os,0.0,-0.0351051,,3,3.0
CAlZr3,0.0,-0.0225791,,3,3.0
ScZr2Pd2,0.0,-0.0289098,,3,3.0
Li2SiCu,0.0,-0.0077839,,3,3.0
OCuSeSr,0.0,-0.0174847,,3,3.0
InI3,1.7249,-0.0364129999999999,,3,3.0
S2MoTe4W2,0.0,-0.03836,,3,3.0
O4EuBi2,0.0,-0.0353983,,3,3.0
SiY2Ir2,0.0,-0.0427262,,3,3.0
H2MgRh2,0.0,-0.0161145,,3,3.0
O7MgS2,6.4339,-0.0086836,,3,3.0
B2Mg2TiIr5,0.0,-0.040385,,3,3.0
FeNi4Zr,0.0,-0.019226,,3,3.0
O4SmTh,0.0,-0.0310824,,3,3.0
AgIn3,0.0,-0.0328255,,3,3.0
Ca2CdPb2,0.0,-0.0408156999999999,,3,3.0
H6SiInCs2,0.0,-0.0140493,,3,3.0
Ge3SmHf,0.0,-0.033538,,3,3.0
CdAu,0.0,-0.0500199,,3,3.0
Ru2La,0.0,-0.0377171,,3,3.0
Zn2EuEr,0.0,-0.0330917,,3,3.0
ZnPd2Dy2,0.0,-0.0358075,,3,3.0
BAl2DyOs2,0.0,-0.0363962,,3,3.0
LiP2Rh2Tb,0.0,-0.0240657,,3,3.0
CrRhIr,0.0,-0.0412483,,3,3.0
O4PCr,2.0206,-0.0114848,,3,3.0
Tm3Hg,0.0,-0.0562215,,3,3.0
RhOsIr2,0.0,-0.0619782,,3,3.0
Cl2RbAg,2.6022,-0.018378,,3,3.0
AlMo5,0.0,-0.0304607,,3,3.0
Cl6Rb3Th,0.6583,-0.0227258,,3,3.0
Mg2SbPb,0.0,-0.0309175,,3,3.0
F7Ca2Ce,0.0,-0.0130306,,3,3.0
ScSbEr,0.0,-0.0348323,,3,3.0
AlPd2Lu,0.0,-0.0332556,,3,3.0
PdLa2Pt2,0.0,-0.0530133,,3,3.0
HF4Na2,2.3169,-0.005861,,3,3.0
PCePt,0.0,-0.0432458,,3,3.0
SiCe2Os3,0.0,-0.0529455,,3,3.0
RuSn3Nd,0.0,-0.0377237999999999,,3,3.0
Na5S5Fe2,0.0,-0.0097875999999999,,3,3.0
Sn3Dy3Pt2,0.0,-0.0500708,,3,3.0
KSbPt,0.0,-0.0391307,,3,3.0
CdTm2Os,0.0,-0.0519164,,3,3.0
SrBaAu2,0.0,-0.0509238,,3,3.0
NiCuTa,0.0,-0.0327678,,3,3.0
Sb2Ba2Bi,0.0,-0.0473206,,3,3.0
CaTmPb2,0.0,-0.0538711,,3,3.0
O6CdBa2Np,2.0762,-0.0282297,,3,3.0
Ni2Sn2Lu,0.0,-0.0323457999999999,,3,3.0
O3RbI,2.6645,-0.0162993,,3,3.0
O4CeTh,2.2431,-0.0315373,,3,3.0
LiTl2Pb,0.0,-0.0558726,,3,3.0
S6Ge3Bi2,0.0,-0.024913,,3,3.0
Si3PtPu,0.0,-0.0427083,,3,3.0
InTeHg2,0.0,-0.0518646,,3,3.0
MgPPd,0.0,-0.0167247,,3,3.0
PZn2Br,2.2627,-0.0147386,,3,3.0
RhEr6Tl2,0.0,-0.0539529,,3,3.0
FeGaRhHf,0.0815,-0.033417,,3,3.0
Lu2IrPt,0.0,-0.0643443,,3,3.0
MgS4Cu2Sn,0.6051,-0.0144234,,3,3.0
TiCuPt2,0.0,-0.0438205,,3,3.0
Ge2Ru2Er,0.0,-0.0323967,,3,3.0
Se2RhLu6,0.0,-0.0461088,,3,3.0
O6Na2TeNp,0.7189,-0.0211186,,3,3.0
Ge3DyOs,0.0,-0.0358945,,3,3.0
S2PtHg,0.7845,-0.0397385,,3,3.0
Ge4As2Te7,0.0873,-0.0290593,,3,3.0
NZnLa3,0.0,-0.0312129,,3,3.0
O2Na5CuTe,1.9394,-0.0107749,,3,3.0
F6NiTm,0.0,-0.0142844,,3,3.0
O5Zr2Cs2,4.6924,-0.0217125,,3,3.0
BNPrIr,0.0,-0.034064,,3,3.0
Y2RhLa,0.0,-0.0336215,,3,3.0
Br4InCs2,0.0,-0.0282104,,3,3.0
P2AgNp,0.0,-0.0401511,,3,3.0
Si2Sc2Pd,0.0,-0.0172423,,3,3.0
F6PdIn,0.7133,-0.0129515999999999,,3,3.0
KMnGa3,0.0,-0.0152705,,3,3.0
Ni2In5Ba,0.0,-0.0301919,,3,3.0
Ga2NdPt,0.0,-0.0376753,,3,3.0
NdAu3,0.0,-0.0635711,,3,3.0
PdIn2La,0.0,-0.0364583,,3,3.0
LiZrPt2,0.0,-0.0444538,,3,3.0
S3ScCs2,0.0,-0.0213916,,3,3.0
Zr5Tl,0.0,-0.0377762,,3,3.0
Mg2CaPd,0.0,-0.0136507,,3,3.0
Li3Te,0.0,-0.0118597,,3,3.0
Zn2TbLu,0.0,-0.0327101,,3,3.0
RhWRe2,0.0,-0.0614718,,3,3.0
ClSeNb,0.0,-0.0214706,,3,3.0
O12MgSi4Ca2Fe,1.079,-0.0108894,,3,3.0
BeSiPt2,0.0,-0.0394613,,3,3.0
HPd2,0.0,-0.0230476999999999,,3,3.0
P2S6Ge,1.1876,-0.011104,,3,3.0
Ni2Zr2Cd,0.0,-0.0253139,,3,3.0
Be4ZrOs,0.2088,-0.0204973,,3,3.0
B2LuIr2,0.0,-0.0433494,,3,3.0
NTi2ZrCd,0.0,-0.0214380999999999,,3,3.0
MnPdPt2,0.0,-0.0484009,,3,3.0
Li2BeAl,0.0,-0.0042474,,3,3.0
Y2InPt2,0.0,-0.0471818,,3,3.0
Co5Nb,0.0,-0.0199246,,3,3.0
Al3Sn2Hf3Os,0.0,-0.0399269,,3,3.0
Sm2Pt2Hg,0.0,-0.0606537,,3,3.0
Sn2EuAc,0.0,-0.0547092,,3,3.0
RhSnAc2,0.0,-0.0631887,,3,3.0
SeBr2Pd,0.7951,-0.0232631,,3,3.0
Al3Sc2Re,0.0,-0.0210143,,3,3.0
O8P2EuTb,0.0705,-0.017381,,3,3.0
O4ClTbBi2,1.6365,-0.0317274,,3,3.0
Cl6AgCs2Lu,4.2622,-0.0231143,,3,3.0
O8HoW2Tl,4.7476,-0.0283691,,3,3.0
Li8La,0.0,-0.0068643,,3,3.0
Li2O7SrTa2,2.5882,-0.0200203999999999,,3,3.0
NaSbIr,0.0,-0.0378793,,3,3.0
O3FeAc,0.0,-0.0281055,,3,3.0
Sc2YRu2,0.0,-0.0256560999999999,,3,3.0
NiAs2Nd2,0.0,-0.0300883,,3,3.0
O7P2V,0.5001,-0.0106749,,3,3.0
O6Ca2GaSb,2.8701,-0.013486,,3,3.0
Sb2IrTh6,0.0,-0.0808583,,3,3.0
ZnLu3Os2,0.0,-0.054394,,3,3.0
Al3Ni2Pr,0.0,-0.0171275,,3,3.0
Cu2Sr,0.0,-0.0175995,,3,3.0
K2ZnBi2,0.0,-0.037747,,3,3.0
MgCdGd2,0.0,-0.0385127,,3,3.0
N3TcEu,0.0,-0.0238848999999999,,3,3.0
H6CrEu2,0.0,-0.0167545,,3,3.0
Li4SiP4,1.0757,-0.0072962,,3,3.0
LiO2Cs,2.9632,-0.0145015,,3,3.0
SeI2Lu2,0.0,-0.0423500999999999,,3,3.0
Cl3Sb,3.6105,-0.0162098,,3,3.0
Li2Zn2Ge2Nd,0.0,-0.0166972999999999,,3,3.0
Cd2Hg2Pb,0.0,-0.0545506,,3,3.0
NaCu3Se2,0.0,-0.0153537999999999,,3,3.0
H3RhEu,0.0,-0.020082,,3,3.0
Y2InPb2,0.0,-0.0487363,,3,3.0
O6MoW,2.0604,-0.019873,,3,3.0
RhDyAu2,0.0,-0.0558035,,3,3.0
ScRhBi,0.0,-0.0430767,,3,3.0
Al2MnTa6,0.0,-0.048276,,3,3.0
AlCu2Zr2,0.0,-0.0202973,,3,3.0
CrGa3Ho2,0.0,-0.0281673,,3,3.0
NaK2AsI6,1.9024,-0.0270829,,3,3.0
SbTe3Tm4,0.0,-0.0458224,,3,3.0
F6TiTl3,0.0,-0.0279386,,3,3.0
Be2Sc2In,0.0,-0.0144169,,3,3.0
ClFeEr,0.0,-0.0266514,,3,3.0
GeLuOs,0.0,-0.04952,,3,3.0
YRh4Cd,0.0,-0.0326982,,3,3.0
CSi2EuW2,0.0,-0.037469,,3,3.0
Se2NbTl,0.0,-0.0372010999999999,,3,3.0
GaHo3,0.0,-0.0411384,,3,3.0
ScGe2Ag,0.0,-0.021338,,3,3.0
Sc3RuCd2,0.0,-0.023619,,3,3.0
Br6Rb2Pu,0.0053,-0.0314966,,3,3.0
Al3Cu2Tb,0.0,-0.017251,,3,3.0
O3K2Ge2,1.8928,-0.0121034,,3,3.0
Mg2KSb2,0.0,-0.019061,,3,3.0
Li3O8CrNi3,0.0,-0.0100344,,3,3.0
NiBr4Tl2,0.7431,-0.034772,,3,3.0
MgZn2Ta,0.0,-0.0247237,,3,3.0
O4CrSr,2.6536,-0.0135097,,3,3.0
Mg2Ga3Os,0.0,-0.022099,,3,3.0
Ge2BaAu,0.0,-0.0373703,,3,3.0
Mg2InTl,0.0,-0.0290685,,3,3.0
RbSr3Ir,0.0,-0.0318105,,3,3.0
Al5Pt,0.0,-0.0187259,,3,3.0
Al3Ge2Hf3Os,0.0,-0.0363608,,3,3.0
Li2Ba,0.0,-0.01477,,3,3.0
F6TiSr,4.7442,-0.0112978,,3,3.0
Si2TiNi,0.0,-0.0136496,,3,3.0
Ag5Sb,0.0,-0.0323259,,3,3.0
MnGa3Eu,0.0,-0.0247039,,3,3.0
H8FeZn2Ho,0.0,-0.0103022,,3,3.0
ZrTa2,0.0,-0.0545884,,3,3.0
F7K3Mn2,2.028,-0.0101607,,3,3.0
LiRuSb,0.0,-0.0252411,,3,3.0
Al9Ru2Ba,0.0,-0.0154262999999999,,3,3.0
NiGd2Au,0.0,-0.051325,,3,3.0
B2Fe3Dy,0.0,-0.0198137,,3,3.0
LiPdAu2,0.0,-0.0437421999999999,,3,3.0
Li2O8TiCr3,0.0,-0.0116321999999999,,3,3.0
Al5Co2Gd,0.0,-0.0169912999999999,,3,3.0
Ga2PrPt2,0.0,-0.0444337999999999,,3,3.0
BeFeNi,0.0,-0.0131579,,3,3.0
Fe2Ni2Pd,0.0,-0.0203689999999999,,3,3.0
P2Mn2Hf,0.0,-0.0248094999999999,,3,3.0
H2CrTa2,0.0,-0.031833,,3,3.0
RbSn2Au2,0.0,-0.0464847,,3,3.0
O4NaMoCs,4.7752,-0.0167399,,3,3.0
N3Rb5Pt3,0.0,-0.0314479,,3,3.0
ZrCd2Hf,0.0,-0.0386405,,3,3.0
S2AgEu,0.0,-0.0273192,,3,3.0
H2Mn2Ta,0.0,-0.0221126,,3,3.0
Li2S4VCr,0.0,-0.0112357,,3,3.0
Sc2Pt2Au,0.0,-0.0488374,,3,3.0
O5CuSr2In,0.0,-0.015834,,3,3.0
RuLu2Au,0.0,-0.0545262,,3,3.0
MnNiHf2,0.0,-0.0402832,,3,3.0
ScRu2Ce,0.0,-0.0326336,,3,3.0
Co2TmPu,0.0,-0.0491399,,3,3.0
ScLa,0.0,-0.028607,,3,3.0