formula,bg,formation_energy,mp-id,fidelity,bg_category
LiY2Tl2,0.0,-0.0410867,,3,3.0
CuSe4Cd2In,0.0143,-0.024285,,3,3.0
Zn3Hf,0.0,-0.0260729,,3,3.0
H6NaFeCs2,0.0,-0.0119949,,3,3.0
Al3CuGe2Th3,0.0,-0.0410275,,3,3.0
Ga2PmTh,0.0,-0.0436531,,3,3.0
Al4CaCo,0.0,-0.0100781,,3,3.0
Si4Sc3Pd4,0.0,-0.0204513999999999,,3,3.0
LiGa2Ag,0.0,-0.0167832,,3,3.0
Li3O6Cr2Ni,0.0,-0.0103603,,3,3.0
SiGdIr,0.0,-0.0477272,,3,3.0
O4PdBa2,0.0,-0.0215251,,3,3.0
PMn2Ac,0.0,-0.0347748,,3,3.0
O8AlSe2Rb,3.781,-0.0114086,,3,3.0
Pd2TmAu,0.0,-0.0476502,,3,3.0
GeDyHf,0.0,-0.0438941,,3,3.0
Mg3Cu2La,0.0,-0.0148848,,3,3.0
Ni2GaTm,0.0,-0.0257568,,3,3.0
SiNi3U2,0.0,-0.0445781,,3,3.0
Ge2DyIr2,0.0,-0.0465776,,3,3.0
Al3Hf2Pt,0.0,-0.0373595,,3,3.0
Al5OsTh,0.0,-0.0299705,,3,3.0
O5Ti2Te2Nd2,0.0,-0.0233017,,3,3.0
Be2MgPt2,0.0,-0.031776,,3,3.0
CuSe3TmPb,1.232,-0.0349358,,3,3.0
TaAu,0.0,-0.0680703,,3,3.0
SeAg5,0.0,-0.0294849,,3,3.0
ScSe2Ba,0.0,-0.0254439999999999,,3,3.0
ClSeAg2,0.0,-0.0229605,,3,3.0
CoSe3RbZr,0.0,-0.022727,,3,3.0
CuY3Rh2,0.0,-0.0284568,,3,3.0
MnMoSb,0.0,-0.0301414,,3,3.0
P2KNi2Y,0.0,-0.0157535,,3,3.0
S4Rb2CdSn,2.6725,-0.0192804,,3,3.0
S3Ag2Te,1.0228,-0.0215432,,3,3.0
Mg2Ga2Eu,0.0,-0.0196879999999999,,3,3.0
Be4CoRu,0.0,-0.0118956,,3,3.0
N2CsW,0.0,-0.032113,,3,3.0
H2Ni2Cu,0.0,-0.0108506,,3,3.0
MnFe4Os,0.0,-0.0270788,,3,3.0
Be2AgAu,0.0,-0.0274745,,3,3.0
CrGa2Hf6,0.0,-0.0477214,,3,3.0
NiI3,0.0,-0.0317169,,3,3.0
CHf3Au,0.0,-0.0542043,,3,3.0
Sc2MnCo2,0.0,-0.0164936,,3,3.0
Pd2Sb2Th,0.0,-0.0479884,,3,3.0
SiCaZn,0.0,-0.0115587,,3,3.0
Dy3Pb,0.0,-0.0552263,,3,3.0
H8FeSrCd2,2.015,-0.0109094,,3,3.0
CrMo2Tc,0.0,-0.0307688,,3,3.0
F8K2BaTh,7.482,-0.0189284,,3,3.0
O6MnFePr2,0.0,-0.0189136,,3,3.0
MnFeOs2,0.0,-0.0448699,,3,3.0
La3Ho,0.0,-0.0445549,,3,3.0
Mn4ZnMo,0.0,-0.0201534,,3,3.0
CeTmPb2,0.0,-0.0625979,,3,3.0
CSi2Co2Ho2,0.0,-0.0239239,,3,3.0
N6Ca3Ta2,0.0,-0.0209968,,3,3.0
Cl6AgCs2Pr,4.1081,-0.0218827,,3,3.0
O2CuBr2Eu2,0.0,-0.0270351,,3,3.0
OSCuBi,0.8487,-0.0280687,,3,3.0
OCuNd3,0.0,-0.0317335,,3,3.0
S2AgBa,0.0,-0.0237403,,3,3.0
NiAs2Hf6,0.0,-0.0488141,,3,3.0
RhPdGd2,0.0,-0.04688,,3,3.0
O6TiYBa2,0.0,-0.0192676,,3,3.0
P2Mn2Ho,0.0,-0.0222457,,3,3.0
AlScCoIr,0.0,-0.0284897,,3,3.0
Rh2CdNd3,0.0,-0.0387496,,3,3.0
Ni2IrAu,0.0,-0.0430885,,3,3.0
BeMnPd2,0.0,-0.0225808,,3,3.0
BNNiEr,0.0,-0.0221041999999999,,3,3.0
LiInNd,0.0,-0.0269172,,3,3.0
InLa2Ir2,0.0,-0.0531561,,3,3.0
Li2SrAu2,0.0,-0.0337989,,3,3.0
Sr2SbAu,0.8216,-0.0388007,,3,3.0
SiTiLu,0.0,-0.0278357999999999,,3,3.0
AlCu4Pu,0.0,-0.0298142,,3,3.0
SiTiAs,0.0,-0.0160657999999999,,3,3.0
SZn,2.7385,-0.012513,,3,3.0
Sc3PdPt2,0.0,-0.0372991,,3,3.0
F6MnHo,0.0,-0.0145837,,3,3.0
MgSm2Os2,0.0,-0.047742,,3,3.0
YZr2Ag,0.0,-0.0302376,,3,3.0
H8Mg2FeY,0.0,-0.007358,,3,3.0
LiAgSb2,0.0,-0.0272485,,3,3.0
Al3Si2Zr3Rh,0.0,-0.0196727999999999,,3,3.0
H2O5CuSe,1.3979,-0.0090126,,3,3.0
Ti3Pd2In3,0.0,-0.0272168,,3,3.0
Sc4In,0.0,-0.0182903,,3,3.0
B2Co2Ce,0.0,-0.0192645,,3,3.0
Zn2CdAc,0.0,-0.0372291,,3,3.0
PK2Pb,0.0,-0.0260634,,3,3.0
SeYI,2.5485,-0.0301386,,3,3.0
Be2ScIr2,0.0,-0.0339347,,3,3.0
Co2Zn3Lu,0.0,-0.0219131,,3,3.0
AlNiTa2,0.0,-0.0395943,,3,3.0
Si3AgBa,0.0,-0.020367,,3,3.0
Sb2Te3,0.0913,-0.0373566,,3,3.0
SiAg8,0.0,-0.0288993,,3,3.0
CSc3Au,0.0,-0.0252562,,3,3.0
H2KAu,0.1138,-0.0213244,,3,3.0
ZnY2Au,0.0,-0.0354041,,3,3.0
CaCd2Au2,0.0,-0.0423459999999999,,3,3.0
HAlCo3,0.0,-0.0127456,,3,3.0
F4Cs2Ce,0.0,-0.0223945,,3,3.0
SrCeBi,0.0,-0.0492678,,3,3.0
BePZr2,0.0,-0.0200618,,3,3.0
ZnRhBa2,0.0,-0.0319346,,3,3.0
C3N6Mn2,0.0,-0.0112286,,3,3.0
Al3CuGe2Np3,0.0,-0.0442623,,3,3.0
HSrI,3.5896,-0.0221443,,3,3.0
Sc3ZnAg2,0.0,-0.0202302,,3,3.0
Hg5Pb4,0.0,-0.0715172,,3,3.0
Al2PrIr,0.0,-0.0334236999999999,,3,3.0
F6CrEr,3.6884,-0.0149951,,3,3.0
Ti2Pd2Bi,0.0,-0.0356603,,3,3.0
GaYAu2,0.0,-0.0465193,,3,3.0
LiFeNiZn,0.0,-0.0126456,,3,3.0
C4FeEr3,0.0,-0.0265328,,3,3.0
LiCaHg,0.0,-0.0272865,,3,3.0
KCd3Pt,0.0,-0.0342566,,3,3.0
Zr3Bi,0.0,-0.0429797,,3,3.0
N2NiNp2,0.0,-0.0505474,,3,3.0
MnSm6Bi2,0.0,-0.0496648,,3,3.0
AsTbOs,0.0,-0.0470678,,3,3.0
CN2O2Ho2,4.2907,-0.0223309,,3,3.0
P4Co4LaPr,0.0,-0.0207088,,3,3.0
Ni3Ga2Eu,0.0,-0.0229659,,3,3.0
Te3Tm2,0.5974,-0.0445855999999999,,3,3.0
KBr3Pb,3.1359,-0.0298646999999999,,3,3.0
Cl2RbAu,4.0462,-0.0276461,,3,3.0
Ti6FeGa2,0.0,-0.0167003999999999,,3,3.0
SnBa2Pt2,0.0,-0.0519663,,3,3.0
IPb2Bi2,0.0,-0.069218,,3,3.0
Li2N2Ti,1.1367,-0.0091386,,3,3.0
HTiBr,0.0,-0.0137827,,3,3.0
HOBrEu,0.6453,-0.0228299,,3,3.0
Al5Ti2Tm,0.0,-0.0157646,,3,3.0
PS4Cs3,3.1655,-0.0214239,,3,3.0
AlZnRe2,0.0,-0.0410516999999999,,3,3.0
KCu2As2Ba,0.0,-0.0203602,,3,3.0
Na3InCs,0.0,-0.0168137,,3,3.0
ScYAu2,0.0,-0.0461873,,3,3.0
SiCu2Ho,0.0,-0.0228406,,3,3.0
ZnSe2Cs2,2.806,-0.0270662999999999,,3,3.0
NaTiI3,0.0,-0.0270966999999999,,3,3.0
HSiNi3,0.0,-0.0127189,,3,3.0
H6Ce2Os,0.0,-0.020696,,3,3.0
B3O6Ce,0.6132,-0.013396,,3,3.0
Al4Ni2Cu,0.0,-0.011718,,3,3.0
RhInLa,0.0,-0.0375904,,3,3.0
BN2K3,1.7596,-0.0090516,,3,3.0
SiI3,3.1802,-0.0304111,,3,3.0
LaAuBi,0.0,-0.0645732,,3,3.0
AlTl2Th6,0.0,-0.0810658,,3,3.0
ClCoSm,0.0,-0.0244412,,3,3.0
BGa2SmOs2,0.0,-0.0386359,,3,3.0
TiZrSb,0.0,-0.0287299,,3,3.0
C3Sc2W2,0.0,-0.0287637,,3,3.0
O8Mn4Cu,0.0,-0.0124111999999999,,3,3.0
AgHg2Th,0.0,-0.0661741,,3,3.0
Al2Ni2Au,0.0,-0.0239735,,3,3.0
O2S3YU2,0.0,-0.0370077,,3,3.0
O3CuSe,0.8448,-0.0116331,,3,3.0
Al3Ge2RuPu3,0.0,-0.0478517,,3,3.0
Rb,0.0,-0.0207393999999999,,3,3.0
B2Ni7Y3,0.0,-0.0181466999999999,,3,3.0
Sc2Rh,0.0,-0.0215605,,3,3.0
C2NiPr,0.0,-0.0202426,,3,3.0
S3ZrRhTl,0.0,-0.0286451,,3,3.0
CSi2La2W2,0.0,-0.0369943,,3,3.0
Al3Si2CrDy3,0.0,-0.0234387,,3,3.0
O8NaPd6Lu,0.0,-0.0204493,,3,3.0
Mg2InBi2,0.0,-0.0402104,,3,3.0
SbNdEu,0.0,-0.0458320999999999,,3,3.0
RhCdAu2,0.0,-0.0507391,,3,3.0
F6NaK2Eu,0.0,-0.0127989,,3,3.0
O2BrI,0.6084,-0.0169682,,3,3.0
BeSc2In,0.0,-0.0168855,,3,3.0
SiBr2Er2,0.0,-0.0314201,,3,3.0
F4ZnSr,4.9883,-0.0116605,,3,3.0
Al3Rh2Sm2,0.0,-0.026608,,3,3.0
NiGe2In3Dy3,0.0,-0.0338036,,3,3.0
S3Co2Cs,0.0,-0.0175315,,3,3.0
LiO4Pd2Bi,0.7096,-0.0225745,,3,3.0
Cl6Rb2AgEu,0.0,-0.0193118,,3,3.0
K2Br6Re,1.3936,-0.0238307,,3,3.0
Rh2SnHf2,0.0,-0.0466668,,3,3.0
Zr2RhHg,0.0,-0.0414203,,3,3.0
CuZn2Pr,0.0,-0.0217235,,3,3.0
Co2RuW,0.0,-0.0346798,,3,3.0
Li2OTi2Sb2,0.0,-0.0180461,,3,3.0
CaNi2Bi2,0.0,-0.040089,,3,3.0
SnTe,0.1234,-0.0367897,,3,3.0
Al5SrAu2,0.0,-0.0255782999999999,,3,3.0
AlScCu,0.0,-0.0129135,,3,3.0
B2RuTb,0.0,-0.02477,,3,3.0
Si2BaIr2,0.0,-0.0413117999999999,,3,3.0
NaNi2Sb2Dy,0.0,-0.0270386,,3,3.0
S2Ni2As,0.0,-0.0147,,3,3.0
Cu4RhAu,0.0,-0.0272339,,3,3.0
Si2RuCeOs,0.0,-0.0351444,,3,3.0
F6LuU,0.4253,-0.0264578,,3,3.0
RhTe2Nd6,0.0,-0.0420151,,3,3.0
Al2Ga2Sm,0.0,-0.0190370999999999,,3,3.0
PdCd2Tm,0.0,-0.0369574,,3,3.0
In2HgTl,0.0,-0.0517862,,3,3.0
TiCo2Ge,0.0,-0.0180207,,3,3.0
SbTbAu,0.0,-0.0520307,,3,3.0
Ti3Ga3Pt2,0.0,-0.0305146,,3,3.0
SeTl5,0.0,-0.0637682,,3,3.0
CrNb2Re,0.0,-0.0391306,,3,3.0
Li4O12TiMnW2,1.8731,-0.0153609,,3,3.0
AsPd5Pb,0.0,-0.0375036,,3,3.0
Al4CrHo,0.0,-0.016712,,3,3.0
Br,1.706,-0.019457,,3,3.0
Sc4SbTe3,0.0,-0.0269196,,3,3.0
Cu2SmIr3,0.0,-0.0484166,,3,3.0
NSiPu3,0.0,-0.0703561,,3,3.0
Cl2SnSm2,0.0,-0.0298756999999999,,3,3.0
B2Ni2Lu,0.0,-0.0210962,,3,3.0
Cl2Se2Zr,1.1437,-0.0188621,,3,3.0
O6FeZn2W,0.0,-0.0170045,,3,3.0
O6Ca2CoPd,0.4781,-0.0125025999999999,,3,3.0
MnZn,0.0,-0.0160402999999999,,3,3.0
Ni5Cu3,0.0,-0.0157382,,3,3.0
P3Ni4Cs,0.0,-0.0172188,,3,3.0
HoTmPb,0.0,-0.0594099,,3,3.0
Pd2InGd,0.0,-0.0402796,,3,3.0
Si4ScHf5,0.0,-0.0375377,,3,3.0
SeSbTb,0.0,-0.0361912,,3,3.0
Al5TmAu,0.0,-0.0232737,,3,3.0
Ca3AgBa,0.0,-0.0201072999999999,,3,3.0
ClSmPt,1.1179,-0.0426542,,3,3.0
O4CeTb,0.6566,-0.0227742,,3,3.0
Al2Si2Nd,0.0,-0.0162441,,3,3.0
ZnTb6Bi2,0.0,-0.0506997,,3,3.0
Cl6Rb2SnTl,0.0,-0.0212219,,3,3.0
NaMn2As2,0.0,-0.0166415,,3,3.0
F6CuBa2,0.0171,-0.0162094999999999,,3,3.0
BCo6Ce2,0.0,-0.0223669,,3,3.0
CoSbTm2,0.0,-0.0401676,,3,3.0
Be2Ni2Ga,0.0,-0.0118778,,3,3.0
Al5CuGd,0.0,-0.016407,,3,3.0
Cu3Zn2Eu,0.0,-0.0212575,,3,3.0
Al4RuLu,0.0,-0.0208292,,3,3.0
Li3O6Ti2Fe,0.0,-0.0105135,,3,3.0
O6Fe2SrBa,0.0,-0.0157967,,3,3.0
MgRhCd,0.0,-0.0234089,,3,3.0
KAgTl2,0.0,-0.0461979,,3,3.0
Li3F7V,0.7927,-0.0075693,,3,3.0
Ge2PdPr3Tl3,0.0,-0.0471308999999999,,3,3.0
NaAsBa,1.1052,-0.0223288,,3,3.0
CdTm2Pt2,0.0,-0.0561372,,3,3.0
F6CeSm,0.0,-0.0179451,,3,3.0
Li2GaSb,0.0006,-0.0150041,,3,3.0
NMn2,0.0,-0.0157501,,3,3.0
SiCoHf4,0.0,-0.046799,,3,3.0
CaSr2Au,0.0,-0.0313149,,3,3.0
KSrIn4,0.0,-0.0277308,,3,3.0
Cl6ScAgCs2,3.5744,-0.0189427,,3,3.0
CInTh2,0.0,-0.0591726,,3,3.0
Ga2Ru4Tb3,0.0,-0.0351771,,3,3.0
O4GeTh,4.5697,-0.0263171,,3,3.0
Si3BaAu,0.0,-0.0281671,,3,3.0
B2C2Tm,0.0,-0.0179247,,3,3.0
Ga2Ru3Sm,0.0,-0.0306538,,3,3.0
CNOK,5.2941,-0.0095772999999999,,3,3.0
LiP2CaRh2,0.0,-0.0177438,,3,3.0
NaGeIr,0.0,-0.0318425,,3,3.0
Al2CaLa2,0.0,-0.0225576,,3,3.0
Al2Ni2Tm,0.0,-0.0205874999999999,,3,3.0
B7Ho3Re,0.0,-0.0252505999999999,,3,3.0
B2C2Gd,0.0,-0.0192881,,3,3.0
Be2Ti2Pd,0.0,-0.0151478,,3,3.0
Rh2LaBi2,0.0,-0.054187,,3,3.0
LiBeF4K,7.6884,-0.0074767,,3,3.0
HZr2NbTl,0.0,-0.0343717,,3,3.0
Ga2Zr2Cd,0.0,-0.0255081,,3,3.0
Sc3Ge2RuIn3,0.0,-0.0245939,,3,3.0
YPtHg,0.0,-0.0564343999999999,,3,3.0
Sb2HoAu,0.0,-0.0488727,,3,3.0
Al10Fe2Th,0.0,-0.0164473999999999,,3,3.0
Ni2Tm4Tl5,0.0,-0.0551409999999999,,3,3.0
Rh2CdPm,0.0,-0.0359984,,3,3.0
Ca2Zn3Ag,0.0,-0.0155515,,3,3.0
P2Mn2Sm,0.0,-0.0213159999999999,,3,3.0
Y2HfPt2,0.0,-0.0529393,,3,3.0
Sc2Cu2Ga,0.0,-0.0155246999999999,,3,3.0
Cd2DyAu,0.0,-0.0450476,,3,3.0
ScAgIn,0.0,-0.0267883,,3,3.0
MnFeGa2,0.0,-0.0173734,,3,3.0
Li2SiCa,0.0,-0.0064836,,3,3.0
O4Cu2Sm,0.0,-0.0161732,,3,3.0
GeBr2Dy2,0.1414,-0.0323228999999999,,3,3.0
Si2CdLa2,0.0,-0.0280191,,3,3.0
Ga2Pd3Sm,0.0,-0.030096,,3,3.0
Al3Ca2Ir2,0.0,-0.0272426999999999,,3,3.0
Co2Ga3Ho,0.0,-0.0225532,,3,3.0
Ni4ZrIr,0.0,-0.0281651,,3,3.0
O2K2Cu,0.9836,-0.0100472,,3,3.0
TbAuBi,0.0,-0.0656527,,3,3.0
As4Cs5,0.0,-0.0305369999999999,,3,3.0
F6CuTm,2.0999,-0.0140489999999999,,3,3.0
LiP2Ni2Sr,0.0,-0.0137916,,3,3.0
SrAu2Tl2,0.0,-0.0615324,,3,3.0
ZrAgHg,0.0,-0.04363,,3,3.0
Rh2InW,0.0,-0.0429288,,3,3.0
AsRhNd,0.0,-0.033769,,3,3.0
CN2Ho,0.0,-0.0202007,,3,3.0
Mg2S8Mn3Dy,0.0,-0.0148612,,3,3.0
MnPd2Hg,0.0,-0.0383615,,3,3.0
H2MgLa2,0.0,-0.0200925,,3,3.0
LiRhPu2,0.0,-0.0640285999999999,,3,3.0
ZrTmPb,0.0,-0.0533755999999999,,3,3.0
GeLa2Pt3,0.0,-0.0538163,,3,3.0
Ge2YTa2,0.0,-0.0404534999999999,,3,3.0
Pd2Cd2Au,0.0,-0.039396,,3,3.0
BSi2Co6,0.0,-0.014849,,3,3.0
RbI3Hg,0.0,-0.0405836,,3,3.0
Sb2Hf6Au,0.0,-0.0583177,,3,3.0
Rh5Ir,0.0,-0.0400024999999999,,3,3.0
AlGa2Y2,0.0,-0.0199652,,3,3.0
O6Sr2SbBa,0.0,-0.0182564,,3,3.0
O6Sr2ZrIr,0.0,-0.0211025,,3,3.0
YSnPt,0.0,-0.0459718999999999,,3,3.0
O7Nb2Eu2,0.0625,-0.0227685,,3,3.0
CuRb2I4,0.0,-0.0300413,,3,3.0
K2CdSb2Ba,0.4191,-0.0275881,,3,3.0
CsBa3Pt,0.0,-0.045689,,3,3.0
AsHo,0.0,-0.0362875,,3,3.0
CoAs2Ho,0.0,-0.027561,,3,3.0
Mg2PtPb,0.0,-0.0395677,,3,3.0
SbNp,0.0,-0.0721199,,3,3.0
Ga3RhEr2,0.0,-0.0314498,,3,3.0
PrTmPb,0.0,-0.0576029,,3,3.0
CaMnGe,0.0,-0.0161371,,3,3.0
LiO7Nb2Ce,0.0,-0.0171815999999999,,3,3.0
F8CaDy2,7.8485,-0.01648,,3,3.0
HO10S2Cu2Ag,0.4561,-0.0102306,,3,3.0
TiAsRh2,0.0,-0.0267098,,3,3.0
Cl6ScCs3,4.6952,-0.0198553,,3,3.0
Te3LuBi,0.9727,-0.0499229,,3,3.0
NiGeNd,0.0,-0.0270736,,3,3.0
Ca6Te2Pt,0.0,-0.0235321,,3,3.0
SrRh2Sn2,0.0,-0.0330366,,3,3.0
Ti3Ru2Ag,0.0,-0.0254137999999999,,3,3.0
Ni2ZnTa,0.0,-0.028372,,3,3.0
LiTiBr6Cs2,0.0,-0.0227986,,3,3.0
LiZn4Ba,0.0,-0.0161229,,3,3.0
CTm2Tl,0.0,-0.0471096,,3,3.0
CdInPr2,0.0,-0.0381664,,3,3.0
Al7Ni2Dy3,0.0,-0.0197871,,3,3.0
Li2BIr2,0.0,-0.0312871,,3,3.0
PdSn2La,0.0,-0.0377683,,3,3.0
AlSi2Ni4,0.0,-0.0137792,,3,3.0
NaCu2As2Hf,0.0,-0.0234667,,3,3.0
SbAu7,0.0,-0.0650995,,3,3.0
SbSmEu,0.0,-0.0460924,,3,3.0
OBrNd,4.8637,-0.0262711,,3,3.0
Cr4TcRu,0.0,-0.0238552,,3,3.0
P2Cu2RbHf,0.0,-0.0230631,,3,3.0
O6FeSr2Bi,0.0,-0.0199180999999999,,3,3.0
F6AlRb2Cs,6.5101,-0.0141865,,3,3.0
NaS3CuNb,0.0,-0.0145467,,3,3.0
Li2MgSr2,0.0,-0.0108241999999999,,3,3.0
Si2YRu2,0.0,-0.0245177,,3,3.0
F6K2W,0.0,-0.0147351,,3,3.0
ClTeIr,1.5832,-0.0391973,,3,3.0
SCl2Tm2,0.0,-0.0280721,,3,3.0
K2CuBr6Au,0.3314,-0.0227248,,3,3.0
MgRh2Nd,0.0,-0.0296551,,3,3.0
Ga3RhSn2Nd3,0.0,-0.0325329,,3,3.0
MgSiEu,0.0,-0.0233717,,3,3.0
MnGaRh2,0.0,-0.0262737,,3,3.0
SiClNd,0.0,-0.0220561,,3,3.0
B5Sr2Ru3,0.0,-0.0190211,,3,3.0
GaIr2Th2,0.0,-0.0710623,,3,3.0
Si4CoNi,0.0,-0.0126758,,3,3.0
AgTm2Tl,0.0,-0.0523292,,3,3.0
N2ZrU,0.0,-0.0398607999999999,,3,3.0
NiSeSn,0.0,-0.0243847,,3,3.0
BIr6Pu2,0.0,-0.0730783,,3,3.0
Sc2Ge2Nb,0.0,-0.0206934,,3,3.0
Zn3Np,0.0,-0.0367929,,3,3.0
Li2F8SrDy,0.0,-0.012108,,3,3.0
RhPd3,0.0,-0.0329601,,3,3.0
O6Ca2FeW,0.7667,-0.0170490999999999,,3,3.0
Al3PdDy2,0.0,-0.0260402,,3,3.0
Li2La,0.0,-0.0158803,,3,3.0
B2Ru3Er,0.0,-0.0288372,,3,3.0
SiMnNd,0.0,-0.0245331,,3,3.0
LiGa2Tc,0.0,-0.0177372,,3,3.0
Zr4Ru,0.0,-0.0318272,,3,3.0
O6TiZnDy2,3.72,-0.0195306999999999,,3,3.0
PrSmBi,0.0,-0.0562353,,3,3.0
B2CeOs3,0.0,-0.0462778,,3,3.0
O6GaSr2Sb,2.1309,-0.0160264,,3,3.0
P2S7KIn,2.3751,-0.012444,,3,3.0
CSi2Os2Th2,0.0,-0.052926,,3,3.0
CaNiY2,0.0,-0.0205253,,3,3.0
H3CuNd,0.0,-0.0143180999999999,,3,3.0
CN2INd,2.3526,-0.0228323,,3,3.0
Ga4Nb2Tm,0.0,-0.0267909,,3,3.0
Co2CdPa2,0.0,-0.0530437,,3,3.0
CoZr2Hg,0.0,-0.0370369,,3,3.0
InSnSb2,0.0,-0.0358919,,3,3.0
Al3CdHf2,0.0,-0.0301919,,3,3.0
CdPrAu,0.0,-0.0484561,,3,3.0
SbCeTh,0.0,-0.0599825,,3,3.0
O6Sr2HfTa,0.0,-0.0244923,,3,3.0
RbHg,0.0,-0.0447025,,3,3.0
Sc2Ni3Ge,0.0,-0.0167167,,3,3.0
O6MgTiLu2,3.7156,-0.0204792,,3,3.0
CSiTbOs2,0.0,-0.0427305,,3,3.0
In2SmTb,0.0,-0.040132,,3,3.0
TiFe2Pt,0.0,-0.0311855,,3,3.0
O8Cr2Mo,0.3051,-0.0129774,,3,3.0
NaP2Pd2Ce,0.0,-0.0234854,,3,3.0
Al8Tb3Dy,0.0,-0.0213952,,3,3.0
MgRhTe,0.0,-0.0260079,,3,3.0
KCaZnSe3,0.0,-0.0165425,,3,3.0
FeRhPt2,0.0,-0.0484080999999999,,3,3.0
SiPdPu2,0.0,-0.0660711,,3,3.0
H6CNCl,5.8165,-0.0057915,,3,3.0
Sc2In3,0.0,-0.0262256,,3,3.0
In3Lu3Ir2,0.0,-0.0518755,,3,3.0
AsSrSn,0.0,-0.0269826,,3,3.0
Cl6KCoCs2,2.2904,-0.0166132999999999,,3,3.0
Pd4InCe,0.0,-0.0354994,,3,3.0
LiMg8Si4,0.0,-0.0064692,,3,3.0
SiCaTe4Au2,0.1355,-0.0388367,,3,3.0
B2O6NaScBa,4.6428,-0.0130620999999999,,3,3.0
ZnRh2Ce,0.0,-0.0321177,,3,3.0
In3IrTl,0.0,-0.0488655,,3,3.0
Co2RhIr,0.0,-0.0348166,,3,3.0
Zn5Pm,0.0,-0.0189803,,3,3.0
C4MgNd3,0.0,-0.0222108,,3,3.0
TiW3,0.0,-0.0563549,,3,3.0
CuZn2Tm2,0.0,-0.0295138,,3,3.0
O10Ca2CsTa3,2.5737,-0.0230808,,3,3.0
SiNiPt,0.0,-0.032851,,3,3.0
MgCu2Rh,0.0,-0.0174993,,3,3.0
LiP2ScPt2,0.0,-0.0306845,,3,3.0
PY2Ir,0.0,-0.0356034999999999,,3,3.0
Si2PdPu,0.0,-0.0412409,,3,3.0
Ti3CdRe2,0.0,-0.0372162,,3,3.0
Si2RhIn3Ce3,0.0,-0.032625,,3,3.0
CuGeHo,0.0,-0.0285387,,3,3.0
HfIr,0.0,-1.061796515000004,mp-1524302,3,3.0
Cl6K3Mn,0.8421,-0.0109528,,3,3.0
FeGaRuIr,0.0,-0.0354808999999999,,3,3.0
HTePr,2.025,-0.0293644999999999,,3,3.0
N2Lu7Pb3,0.0,-0.0538552,,3,3.0
Ga3Ge2Zr3Os,0.0,-0.0285537999999999,,3,3.0
TiSnCe,0.0,-0.0326783,,3,3.0
Li8O6Ce,2.9512,-0.0090948,,3,3.0
Y2IrPb,0.0,-0.0515168,,3,3.0
TlPb3,0.0,-0.0749304,,3,3.0
MnCu4Se4,0.0,-0.0180356999999999,,3,3.0
GaRhPr,0.0,-0.0320159,,3,3.0
KAg,0.0,-0.0198099,,3,3.0
O6ScTaPb2,3.1466,-0.029507,,3,3.0
Rh2WIr,0.0,-0.0523613,,3,3.0
MnZrTe4,0.0,-0.0336104,,3,3.0
O4S2Cu2NdBi2,0.0,-0.0264624,,3,3.0
FeNi2Y2,0.0,-0.0215340999999999,,3,3.0
Ga2InHg2,0.0,-0.0403618,,3,3.0
O4PRbAg2,1.4052,-0.0164995,,3,3.0
SiTa4Pt,0.0,-0.0582903,,3,3.0
KHg2Pb2,0.0,-0.0594267,,3,3.0
MgGaRu,0.0,-0.0190356,,3,3.0
Al3Rh2Tb,0.0,-0.0239457,,3,3.0
SrSn2Pt,0.0,-0.0419528,,3,3.0
O8CuW2Bi,1.1854,-0.0253888,,3,3.0
ZnIn2Lu2,0.0,-0.0386153,,3,3.0
SnEr2Pt2,0.0,-0.0567391,,3,3.0
SrRhTl2,0.0,-0.0505664,,3,3.0
C2GaZr3,0.0,-0.0223579,,3,3.0
LiRh2Er,0.0,-0.0306876,,3,3.0
PSeSm,0.1439,-0.0265720999999999,,3,3.0
BNi2Ga2Eu,0.0,-0.0214684,,3,3.0
CuEuBi,0.0,-0.0497568,,3,3.0
O8Cs3Eu,0.0715,-0.0193753999999999,,3,3.0
Cd2Tb,0.0,-0.0362816,,3,3.0
Cu2LaPt2,0.0,-0.0434539,,3,3.0
LaDy,0.0,-0.0453962999999999,,3,3.0
N6Mn2Er3,0.0,-0.0233941,,3,3.0
GaRhPt2,0.0,-0.0480665,,3,3.0
P2KBa,0.0,-0.0179342,,3,3.0
B6Er2Os,0.0,-0.0249076999999999,,3,3.0
C2RuEu,0.0,-0.0272459,,3,3.0
Ge2Y2Tc,0.0,-0.0265286,,3,3.0
Fe4TcTa,0.0,-0.0290614999999999,,3,3.0
O8KAs2Sb,2.8283,-0.0128214,,3,3.0
MgCuBi,0.0,-0.03312,,3,3.0
Cu2BrI,1.2695,-0.0218332,,3,3.0
ClTePt,0.0,-0.0390675,,3,3.0
B2O6CaEr,0.0,-0.0142165,,3,3.0
PdCdTh,0.0,-0.0536802,,3,3.0
Na2KHg2,0.0,-0.030884,,3,3.0
B2O18Al9Cr,3.7264,-0.0103535,,3,3.0
O2ErTl,1.7044,-0.0364155,,3,3.0
O6SbBa2Sm,4.6243,-0.0227205,,3,3.0
Fe4WRe,0.0,-0.0354742,,3,3.0
AlKAu2,0.0,-0.0391151,,3,3.0
Sc4La5,0.0,-0.0301994,,3,3.0
O6CoNiLa2,0.0,-0.0183142,,3,3.0
CaPd2La2,0.0,-0.0330111,,3,3.0
SiRu2In,0.0,-0.0286332999999999,,3,3.0
LiNiTm2,0.0,-0.0307493,,3,3.0
NaBr6NbCs2,0.0,-0.0245404,,3,3.0
NaRb2Hg,0.0,-0.0285531,,3,3.0
O6MnTePb2,0.0,-0.0258196,,3,3.0
Se4Rb2SnHg,1.8635,-0.029059,,3,3.0
Co2As2Pa,0.0,-0.035615,,3,3.0
O6NiPt3,0.0605,-0.0272123999999999,,3,3.0
Al3Ce2Au,0.0,-0.0309925,,3,3.0
CuBa2Hg,0.0,-0.0408976,,3,3.0
LiIn4Ho,0.0,-0.0312725,,3,3.0
O6P2Cr,1.479,-0.0108287,,3,3.0
O6NbBa2Ho,3.4853,-0.0232156,,3,3.0
N3Mg2Nb,1.552,-0.0130395,,3,3.0
F9Zn2CsBa2,5.6637,-0.0158303,,3,3.0
Sc3RhPt2,0.0,-0.0375027,,3,3.0
NiPd2Lu,0.0,-0.035028,,3,3.0
Li5O3F2Fe,1.7235,-0.0073957,,3,3.0
LiF6K2In,6.3587,-0.0103394,,3,3.0
ZnPt,0.0,-0.0424778,,3,3.0
SiP,1.3747,-0.0103746,,3,3.0
ScCuAs2,0.0,-0.0182553,,3,3.0
Si2ScZr2,0.0,-0.0199869999999999,,3,3.0
B2O6TiSr,3.4143,-0.012127,,3,3.0
Ru2Nd2Tl,0.0,-0.0461781,,3,3.0
AlZr2Tc,0.0,-0.0265471,,3,3.0
SI,1.21,-0.0231018,,3,3.0
AlINd,0.0,-0.030406,,3,3.0
S3RbPt2,1.5895,-0.0325022,,3,3.0
PrNdBi,0.0,-0.0559864,,3,3.0
Si2RuPa,0.0,-0.0393173,,3,3.0
As2Pd2Tl,0.0,-0.0359065,,3,3.0
GeRh3Er2,0.0,-0.0379164,,3,3.0
Co5Dy,0.0,-0.0224575999999999,,3,3.0
LiSc2Y,0.0,-0.0145798,,3,3.0
FeHo6Bi2,0.0,-0.0526201,,3,3.0
CuInEr,0.0,-0.0335023,,3,3.0
MnAsHf,0.0281,-0.0343746,,3,3.0
OZr2Pt,0.0,-0.0362213,,3,3.0
Co2Tb3Au,0.0,-0.0411565,,3,3.0
ScZn4Ag,0.0,-0.0168364,,3,3.0
F6Rb2Nb,0.6955,-0.013804,,3,3.0
Na2CaGe,0.0775,-0.0095639,,3,3.0
Zn2Se5In2,0.1559,-0.0222034999999999,,3,3.0
Cl6NiRb2,0.8115,-0.0130877,,3,3.0
Fe4MoTc,0.0,-0.0236465,,3,3.0
FeGa8Lu2,0.0,-0.0240706999999999,,3,3.0
KGaHg3,0.0,-0.0460021,,3,3.0
CrSn4,0.0,-0.0323712,,3,3.0
Pt2Pb3,0.0,-0.0737679,,3,3.0
Si4PdPt2,0.0,-0.031052,,3,3.0
Si2PdDy2,0.0,-0.0306617,,3,3.0
ZnRh2Sn2,0.0,-0.0309101,,3,3.0
F6NaAlK2,8.0465,-0.0084294,,3,3.0
HI2Pr2,0.0,0.0,,3,3.0
In2IHg2,0.0,-0.0480617,,3,3.0
SrHgPb2,0.0,-0.0609687,,3,3.0
FeSb2Tm6,0.0,-0.0454404,,3,3.0
Na2Hg2Bi,0.0,-0.0449744,,3,3.0
ZnTmAu,0.0,-0.0457204,,3,3.0
Al4NiDy,0.0,-0.0164409999999999,,3,3.0
O7Cu2As2,0.956,-0.01151,,3,3.0
B2Cr3,0.0,-0.0144284,,3,3.0
Sm3Tl,0.0,-0.0517844,,3,3.0
B2NdIr2,0.0,-0.041011,,3,3.0
Al2Cu2Eu,0.0,-0.0202697,,3,3.0
CuTe4Eu2,0.0,-0.0399119999999999,,3,3.0
CuZrInTe3,0.0,-0.0323947,,3,3.0
CoNi2La2,0.0,-0.0273191,,3,3.0
TaOsPt2,0.0,-0.0703107,,3,3.0
Ca3Sn3Ir2,0.0,-0.035481,,3,3.0
Cu2Ge2Pr,0.0,-0.0230146,,3,3.0
O8YCs3,0.0,-0.0173606,,3,3.0
LiSiGd2,0.0,-0.0328817999999999,,3,3.0
MnAs2Np,0.0,-0.0418498,,3,3.0
Ni4CdHo,0.0,-0.0243672,,3,3.0
HLa3Bi,0.0,-0.0429207,,3,3.0
AlMnAu,0.0,-0.0323239,,3,3.0
Ti2PdW,0.0,-0.0339966,,3,3.0
SiZrTm,0.0,-0.0315187,,3,3.0
Ca2Ba,0.0,-0.0195889,,3,3.0
HO2V,0.0,-0.0104213,,3,3.0
SiPrIr,0.0,-0.042576,,3,3.0
AlCrIr2,0.0,-0.0428664,,3,3.0
BeAlRh2,0.0,-0.0209938,,3,3.0
NKSr2,0.0,-0.0159941,,3,3.0
MnCoGa2,0.0,-0.0173038999999999,,3,3.0
Ge2AgIn3Tb3,0.0,-0.0350872,,3,3.0
MnZn2Ru,0.0,-0.0202486999999999,,3,3.0
GaHg,0.0,-0.0421473999999999,,3,3.0
ScTiHg2,0.0,-0.0420624,,3,3.0
LiNaS2Cd,2.2154,-0.0124275,,3,3.0
N2YEu,0.0,-0.0265422,,3,3.0
SrPdIn6,0.0,-0.0323532,,3,3.0
RhIn2Dy,0.0,-0.0378200999999999,,3,3.0
KZn2Ge2,0.0,-0.0147507,,3,3.0
Sc2NiLa,0.0,-0.0221547,,3,3.0
ZnPd2In2,0.0,-0.0295925,,3,3.0
YAg2Eu,0.0,-0.0363804999999999,,3,3.0
SiZnPa,0.0,-0.0412807,,3,3.0
CaSn3Pt,0.0,-0.0381261,,3,3.0
Na4CaAs2,1.0174,-0.0102235,,3,3.0
ZnIn5Ce,0.0,-0.0324188,,3,3.0
Al4RuTb,0.0,-0.0194295,,3,3.0
B14AlTb,0.0,-0.0101029,,3,3.0
N2PrTm,0.075,-0.0302229,,3,3.0
NiOs2Pt,0.0,-0.0574754,,3,3.0
In2ErAu,0.0,-0.047223,,3,3.0
FeHf3,0.0,-0.0516285,,3,3.0
O6Sr3Pt,0.0,-0.0194576,,3,3.0
Ga2RuLa,0.0,-0.0283134,,3,3.0
PIn2Tl,0.0,-0.0374203,,3,3.0
NaCdTl2,0.0,-0.0449499,,3,3.0
Ge2Pr2Tl,0.0,-0.0402372,,3,3.0
CInTm2,0.0,-0.03736,,3,3.0
Ag2SmLu,0.0,-0.0409988,,3,3.0
F6SnCs2Tl,0.0,-0.0230294,,3,3.0
AlInAu,0.0,-0.0372131,,3,3.0