formula,bg,formation_energy,mp-id,fidelity,bg_category
P2SrRh4,0.0,-0.0262468,,3,3.0
Al2CuW,0.0,-0.0252122,,3,3.0
AsSbHf2,0.0,-0.0465518,,3,3.0
Li2GaPm,0.0,-0.0165927,,3,3.0
CGaZr2,0.0,-0.0227996,,3,3.0
GaGeNb6,0.0,-0.0295878,,3,3.0
Sb3Au,0.0,-0.0453219,,3,3.0
RhTl5Pu,0.0,-0.0722775,,3,3.0
O6Ca2MoLa,0.072,-0.0164235,,3,3.0
Se2NdTl,1.2989,-0.04057,,3,3.0
SrI4Ba,3.6281,-0.0366909,,3,3.0
P2Co2Lu,0.0,-0.0231776,,3,3.0
RhSm2,0.0,-0.0414948,,3,3.0
F6AlLu,8.192,-0.0146727,,3,3.0
CuAu3,0.0,-0.0557188,,3,3.0
Se2Re,1.2238,-0.0374872999999999,,3,3.0
O5Na4Np,1.7424,-0.0179223999999999,,3,3.0
GaBrI,2.2666,-0.0247913,,3,3.0
Mg4Ag,0.0,-0.0103705,,3,3.0
MgSc2Y,0.0,-0.0153393,,3,3.0
CoNiLa2,0.0,-0.0300376,,3,3.0
Si2PdEu,0.0,-0.0273812,,3,3.0
Ag6Pt5,0.0,-0.0490191,,3,3.0
Al2Ag3La,0.0,-0.0258756,,3,3.0
CaNi2Sn,0.0,-0.0198316,,3,3.0
H3CeIr,0.0,-0.0258429,,3,3.0
Cu2Cd3Pr,0.0,-0.0276893,,3,3.0
Al3ScCu2,0.0,-0.0117340999999999,,3,3.0
C3S6MnTa6,0.0,-0.0326,,3,3.0
S4AgTa2,0.0,-0.0299266,,3,3.0
O7Sr2Nb2,4.2531,-0.017068,,3,3.0
B6Co12Nd,0.0,-0.0158282,,3,3.0
SiZrDy,0.0,-0.0301707,,3,3.0
H18C2N8O2F6Si,5.5386,-0.0064025,,3,3.0
Si2Lu2Pt,0.0,-0.0413438,,3,3.0
Be2MgSc,0.0,-0.0069302,,3,3.0
BPt3Bi,0.0,-0.0595142,,3,3.0
O8RbEuW2,0.4011,-0.0244471,,3,3.0
YPt4Tl,0.0,-0.0643204,,3,3.0
H6Tb2Os,0.0,-0.0212306,,3,3.0
O5TiBa3,3.0073,-0.0215776,,3,3.0
CaGe2Rh3,0.0,-0.025704,,3,3.0
NiAgBa2,0.0,-0.031658,,3,3.0
F6Rb2Y,0.0,-0.0133313,,3,3.0
LiS6Cr3,0.0,-0.012525,,3,3.0
S2BrCdBi,2.0552,-0.0301466,,3,3.0
B2PAs,1.4326,-0.0116843,,3,3.0
CdHg7,0.0,-0.0633967,,3,3.0
Rh2Cd2Tl,0.0,-0.0402268,,3,3.0
Ga6AuNp,0.0,-0.0344369999999999,,3,3.0
Si4Rh4Tm3,0.0,-0.0312134,,3,3.0
NaCd2Sn2,0.0,-0.0275209,,3,3.0
O8Na3P2In,4.0816,-0.0107470999999999,,3,3.0
AlPPt5,0.0,-0.053447,,3,3.0
MnIr2Np,0.0,-0.0672586,,3,3.0
Ge2RuTm,0.0,-0.0319173,,3,3.0
N2PrSm,0.1087,-0.0282491,,3,3.0
AsEr,0.0,-0.0369533,,3,3.0
HoHf5,0.0,-0.0603558,,3,3.0
O6FeYBa2,0.6559,-0.0190083,,3,3.0
HOClCa,6.1518,-0.0091576,,3,3.0
P4Mn7,0.0,-0.0160282,,3,3.0
NaInBi2,0.0182,-0.0488331,,3,3.0
Ag2Sb2Pb,0.0,-0.0424917999999999,,3,3.0
AlZn2Ag,0.0,-0.0165683,,3,3.0
O4K2U,2.3433,-0.023526,,3,3.0
Be5Tc,0.0,-0.0096587,,3,3.0
SSe2Tm,0.0,-0.0268209,,3,3.0
ClMnEr,0.0,-0.0267106,,3,3.0
AlCa2Zn2,0.0,-0.0110569,,3,3.0
AsHg2Tl2,0.0,-0.0601721,,3,3.0
AgErPb,0.0,-0.0530407,,3,3.0
MgAl3Eu,0.0,-0.016648,,3,3.0
O8KSe2Au,2.0322,-0.0147767,,3,3.0
ZrInPb2,0.0,-0.0539606,,3,3.0
Al2CdTm3,0.0,-0.0339799,,3,3.0
PSrRh,0.0,-0.0233046,,3,3.0
F7Ca2Er,7.4188,-0.0136634,,3,3.0
MoIr,0.0,-0.0533999999999999,,3,3.0
H5PdCs3,2.3334,-0.01851,,3,3.0
HO5PCoZn,1.4625,-0.0102665,,3,3.0
C2O6NaSm,5.3704,-0.0129307,,3,3.0
Ni8W,0.0,-0.0221187,,3,3.0
AsAuPu,0.0,-0.0670507,,3,3.0
Cu3Sb,0.0,-0.0206341,,3,3.0
O8P2Ba3,5.9477,-0.0177413999999999,,3,3.0
Ti2PdPt2,0.0,-0.0420203,,3,3.0
CoGe2In3Lu3,0.0,-0.036325,,3,3.0
O4Rb2Sr,1.6309,-0.0141388,,3,3.0
H4MnRh3,0.0,-0.0168421999999999,,3,3.0
PdInSb,0.0,-0.0348963,,3,3.0
Ni3Se2In2,0.0,-0.0225261,,3,3.0
Ge2In3Pr3Ir,0.0,-0.0385412,,3,3.0
Na2MgS2,3.4289,-0.0079436,,3,3.0
Cl6KGaRb2,4.1106,-0.0132109,,3,3.0
Ni2Y2Sn,0.0,-0.0254455,,3,3.0
K2RbSb2,0.0,-0.0228119,,3,3.0
CO7PKCr,0.371,-0.0103758,,3,3.0
Rh3Pd3Ce2,0.0,-0.0368283,,3,3.0
O6Sr2PdSm,0.0,-0.0182256,,3,3.0
F6IrAu,0.0,-0.021472,,3,3.0
N6Cr2Sr3,0.5243,-0.0153773,,3,3.0
CdSbTl,0.0,-0.0467665,,3,3.0
PCa2Zn,0.0,-0.0116344,,3,3.0
Rh6Sb4Pu,0.0,-0.0424987,,3,3.0
MgDyHg2,0.0,-0.0479301,,3,3.0
Si2Rh3Gd,0.0,-0.0311574999999999,,3,3.0
SiPtPu2,0.0,-0.0755539,,3,3.0
BaPb2,0.0043,-0.064344,,3,3.0
BAlMo,0.0,-0.0171595,,3,3.0
Li2O4CuSn,1.4887,-0.0117924,,3,3.0
SiCl2Dy2,0.0,-0.0260387999999999,,3,3.0
B2CIr2Pu,0.0,-0.0467017,,3,3.0
SiAgTm,0.0,-0.0316986999999999,,3,3.0
O6KTaW,3.5699,-0.0228553999999999,,3,3.0
LiTmPb,0.0,-0.0440181,,3,3.0
SnLaPt,0.0,-0.0510003,,3,3.0
PI3Hg3,0.8806,-0.0466207,,3,3.0
Li9NS3,2.9389,-0.0057838,,3,3.0
O6GaBa2Np,0.0,-0.0268856,,3,3.0
F7Ca2Y,7.4964,-0.0114219,,3,3.0
F6K2RbDy,6.7735,-0.0141545,,3,3.0
SrLaHg,0.0,-0.0449623,,3,3.0
N2TiU,0.0,-0.036127,,3,3.0
FeAu5,0.0,-0.0606395,,3,3.0
S3Pa2,0.0,-0.0471931,,3,3.0
HTa,0.0,-0.0351248,,3,3.0
LiYAg4,0.0,-0.0261536,,3,3.0
O2NaLu,4.9183,-0.0212072,,3,3.0
MgP2K4,0.876,-0.0089004,,3,3.0
LiIn4Pt,0.0,-0.0347788,,3,3.0
O4SmEu,0.0,-0.0231952,,3,3.0
Ho6PtBi2,0.0,-0.0587679,,3,3.0
AlHg5,0.0,-0.0580383,,3,3.0
CuAu2,0.0,-0.0512424,,3,3.0
Ga2SnTl2,0.0,-0.0425544999999999,,3,3.0
AsBr6Rb2Hg,0.0,-0.025688,,3,3.0
GaHo2Pt,0.0,-0.0471893,,3,3.0
Mn2Fe5Ta,0.0,-0.0241372,,3,3.0
O8CoSr4Nb,2.058,-0.0163783999999999,,3,3.0
B2O6InBa,0.0,-0.0149194999999999,,3,3.0
MgSnAc2,0.0,-0.0558751,,3,3.0
Fe2ZnTb2,0.0,-0.0287212999999999,,3,3.0
SiTiHo,0.0,-0.0257126,,3,3.0
RhOsPt2,0.0,-0.0615176,,3,3.0
Li2Mg2CaSn2,0.0,-0.0142224,,3,3.0
Li2Mg2Sn2Ba,0.0,-0.0185296,,3,3.0
CoZnY2,0.0,-0.0219656,,3,3.0
GeLuPt2,0.0,-0.0549377,,3,3.0
AlBaPt,0.0,-0.0401809999999999,,3,3.0
Cu2As2Tb,0.0,-0.0241993,,3,3.0
Fe3Tc5,0.0,-0.0286402,,3,3.0
Pd2Sn2La,0.0,-0.0370045,,3,3.0
NMn3Ge,0.0,-0.0170734,,3,3.0
Si2Pr2Pb,0.0,-0.0371884,,3,3.0
YSbNd,0.0,-0.0371596,,3,3.0
BrInLa,0.1373,-0.0333802,,3,3.0
MnSe2Tm6,0.0,-0.0418227,,3,3.0
SiSmAu,0.0,-0.0422265999999999,,3,3.0
O7PFe3,1.2042,-0.011746,,3,3.0
CuSb2Er,0.0,-0.035658,,3,3.0
KTiAgTe3,0.0,-0.0286635999999999,,3,3.0
Fe3Ho2Pt,0.0,-0.0375774,,3,3.0
N2Eu,0.0,-0.024902,,3,3.0
Ag2SnCe2,0.0,-0.0379322999999999,,3,3.0
MgPd7,0.0,-0.029579,,3,3.0
CuTcPt2,0.0,-0.047913,,3,3.0
Li4BaTl,0.0,-0.0204333999999999,,3,3.0
O5CaGe2,3.3097,-0.0121513,,3,3.0
MgRh4Tm,0.0,-0.0326055,,3,3.0
Se3Sn2Pb,0.2427,-0.0350638999999999,,3,3.0
MnSnIr2,0.0,-0.0494266,,3,3.0
AlNi9La2,0.0,-0.0203063,,3,3.0
O8AlKW2,5.0666,-0.0196301999999999,,3,3.0
O4AlSrNd,3.8289,-0.0175519,,3,3.0
Al5Fe2Ta,0.0,-0.0179876,,3,3.0
LiNi2SrSb2,0.0,-0.0225267,,3,3.0
Li2P2Hf,0.0,-0.0186862,,3,3.0
F6LaCe,0.4539,-0.0180027,,3,3.0
Li2As2Ir,0.0,-0.0238970999999999,,3,3.0
Co3Te8,0.0,-0.0319349,,3,3.0
F6LuIr,2.851,-0.0213603,,3,3.0
Cd5Bi,0.0,-0.0383414,,3,3.0
Zr6AuPb2,0.0,-0.0454986999999999,,3,3.0
Zn4Lu,0.0,-0.0222138,,3,3.0
Al2Pd4Dy3,0.0,-0.0332147999999999,,3,3.0
Cu2Hf2Pb,0.0,-0.046508,,3,3.0
SiRhTh,0.0,-0.0475699,,3,3.0
Li2F6Tm,0.0,-0.0119021,,3,3.0
AlScRuRh,0.0,-0.0236445,,3,3.0
Rh2In3Dy3,0.0,-0.0396998999999999,,3,3.0
Si2Ti2Cu,0.0,-0.0140433,,3,3.0
V3Sb,0.0,-0.0227296,,3,3.0
O4TiBi,0.0,-0.0219784,,3,3.0
SeBiU,0.0,-0.0679389,,3,3.0
O4TiTb,0.0,-0.0178033,,3,3.0
SiMoHf,0.0,-0.0365683,,3,3.0
Te5PbBi3,0.0,-0.0554613,,3,3.0
MgNi2Zn,0.0,-0.0129082,,3,3.0
O8P2CaGd,0.0,-0.0145079999999999,,3,3.0
FeDy6Tl2,0.0,-0.0502172,,3,3.0
ZnCe2Os,0.0,-0.0438558999999999,,3,3.0
LiCuBa2,0.0,-0.0241117,,3,3.0
FeCu2Se4In,0.0,-0.0206613,,3,3.0
K3Sb2Au3,0.9757,-0.0389435,,3,3.0
SeRbAu,2.1046,-0.0375352,,3,3.0
Ge2Ho,0.0,-0.029723,,3,3.0
O6RbPdI,2.1639,-0.0149595,,3,3.0
SBr2La2,0.0,-0.0291772,,3,3.0
LiTiIr2,0.0,-0.0409646,,3,3.0
O4MoEu,0.0099,-0.0216919,,3,3.0
LiO6FSrTa2,3.1087,-0.021256,,3,3.0
Se3InTm4,0.0,-0.0391732,,3,3.0
FeCo3Zr2,0.0,-0.0221478,,3,3.0
CuZnSb,0.0,-0.0220444999999999,,3,3.0
P2Mn2Pa,0.0,-0.032256,,3,3.0
HPCa,0.6679,-0.008688,,3,3.0
CuZnPt2,0.0,-0.0426831,,3,3.0
MgZr4,0.0,-0.0255078,,3,3.0
NiRbI3,0.0,-0.0300982999999999,,3,3.0
Ga5RuEr,0.0,-0.0244101,,3,3.0
NiGa3Sn2Tb3,0.0,-0.0315275,,3,3.0
H2Fe2Zn,0.0,-0.0112769999999999,,3,3.0
Si2AgPu,0.0,-0.0405587,,3,3.0
Se2U,0.0,-0.0490022,,3,3.0
F7K3Tb,0.0,-0.0119509,,3,3.0
F7Rb3Zr,6.6922,-0.0141999,,3,3.0
CGe2Pr2W2,0.0,-0.0396706999999999,,3,3.0
Pd2TmLu,0.0,-0.0442377,,3,3.0
Zn2LaTm,0.0,-0.0308588999999999,,3,3.0
PdIn8Nd2,0.0,-0.0357469,,3,3.0
YRhBi2,0.0,-0.0553419999999999,,3,3.0
H2ZnSr2,0.0,-0.0134009,,3,3.0
ZrInSb2,0.0,-0.0350512,,3,3.0
LiZnGa2,0.0,-0.0123001,,3,3.0
VCoAs,0.0,-0.0187904,,3,3.0
F6NaMgCs2,0.0,-0.0135053999999999,,3,3.0
SiHo,0.0,-0.0303633,,3,3.0
O8Se2Cs3,0.0,-0.0169585,,3,3.0
P4Ti3Fe5,0.0,-0.0158903,,3,3.0
Cu2Tb2Tl,0.0,-0.0396841999999999,,3,3.0
Fe2NdPt3,0.0,-0.0491221,,3,3.0
MgInSn,0.0,-0.0248371,,3,3.0
N3Na5Cu3,0.0,-0.0086697,,3,3.0
Ni2As2Eu,0.0,-0.0260715,,3,3.0
Cu2Zr2Pd,0.0,-0.025311,,3,3.0
Mg2In2Bi,0.0,-0.0311385,,3,3.0
ScAgPt,0.0,-0.0394397,,3,3.0
GaRb2I6Hg,0.0,-0.0354714,,3,3.0
S4NiTe,0.0,-0.015389,,3,3.0
HLi3O8P2Mn,3.5515,-0.0090137,,3,3.0
MgPRb,2.1738,-0.0128093,,3,3.0
CYLa2Hg,0.0,-0.0388967,,3,3.0
MgCa3Zn2,0.0,-0.0103149,,3,3.0
Cr5W,0.0,-0.0268841,,3,3.0
Se3Ce,0.9061,-0.0276114,,3,3.0
KGa2Au2,0.0,-0.0362524,,3,3.0
CoW2,0.0,-0.0521272,,3,3.0
H6CNF,6.6252,-0.0054868,,3,3.0
V6GeOs,0.0,-0.0249128,,3,3.0
S3PdCsHf,0.0,-0.0283442,,3,3.0
Se6PdTa2,0.0,-0.0325542999999999,,3,3.0
BO4P,8.0371,-0.0096693,,3,3.0
CuEu,0.0,-0.0345885,,3,3.0
O4S2Cu2As2Y,0.0,-0.0144499,,3,3.0
N3RhTh,0.0,-0.0322333,,3,3.0
MgRhIn5,0.0,-0.0295783,,3,3.0
Li9Al4,0.0,-0.0041935,,3,3.0
Ga2Pt,0.0,-0.0350248,,3,3.0
Pd2AgCd,0.0,-0.0321107999999999,,3,3.0
Si5Co3Tm2,0.0,-0.0212909,,3,3.0
N2SPu2,0.0,-0.0512375,,3,3.0
Ga3Pd2Nd,0.0,-0.0272045,,3,3.0
LiIn2Gd,0.0,-0.0324846,,3,3.0
ScPdPt2,0.0,-0.0479569,,3,3.0
CaZrHg2,0.0,-0.0446649999999999,,3,3.0
Cl3TiCs,0.0,-0.0175019,,3,3.0
ScCu2La2,0.0,-0.026285,,3,3.0
Pd2CdSm,0.0,-0.0358213999999999,,3,3.0
Cu5Zn3,0.0,-0.0146495999999999,,3,3.0
Ag2CdSm,0.0,-0.0347043999999999,,3,3.0
Al3Sr,0.0,-0.0115763,,3,3.0
PS4Rb3,3.2084,-0.0150149,,3,3.0
EuPtPb3,0.0,-0.0707141,,3,3.0
O5Zr2Ba2,0.0,-0.0223217,,3,3.0
KCuTe2,0.0,-0.0250199,,3,3.0
ZnAu2Tl,0.0,-0.0561165,,3,3.0
Rb2Au,0.0,-0.0371368,,3,3.0
O9MoIn2Ba3,1.9783,-0.0209236,,3,3.0
AlTiSb,0.0,-0.0207259,,3,3.0
S3CuSnPr,1.3545,-0.0216901,,3,3.0
SnI2Ce2,0.0,-0.0408472,,3,3.0
LiPd2Tm,0.0,-0.0307204,,3,3.0
YGdPt2,0.0,-0.0581094999999999,,3,3.0
YInIr,0.0,-0.0449774,,3,3.0
AlRh8,0.0,-0.0310926,,3,3.0
LiCrGa2,0.0,-0.0136382,,3,3.0
CaAs2Tl2,0.0,-0.0394061999999999,,3,3.0
RhIn3Nd3Pb2,0.0,-0.0470302,,3,3.0
Cd2ErTm,0.0,-0.041177,,3,3.0
F6NaRb2Eu,0.0,-0.0153153,,3,3.0
H6MnRbCs2,0.0,-0.0137586,,3,3.0
CO3FSrCs,4.8709,-0.0158001,,3,3.0
Si2ReTh,0.0,-0.0473299,,3,3.0
NiTb2Ir,0.0,-0.0459221999999999,,3,3.0
H6GeCs2Tl,0.0,-0.0187944,,3,3.0
Ga2La2Tl,0.0,-0.0389318,,3,3.0
OCuSeBi,0.598,-0.0306355,,3,3.0
Sr4Rh,0.0,-0.0246615,,3,3.0
CuSb2Np,0.0,-0.0493266,,3,3.0
CoNi2W,0.0,-0.0298205,,3,3.0
Al5Mn2Zr,0.0,-0.0137538,,3,3.0
I3La,2.2031,-0.0400217,,3,3.0
Cd2NdIr,0.0,-0.0443312,,3,3.0
PTlPb2,0.0,-0.0584972,,3,3.0
MgNd,0.0,-0.0244027,,3,3.0
N3BaW,1.0908,-0.0281709999999999,,3,3.0
S3GeNd4,0.0,-0.0298092,,3,3.0
CdPt,0.0,-0.0506618,,3,3.0
Li2Zn2Hg,0.0,-0.0202081,,3,3.0
LiP2Pt2,0.0,-0.0333688,,3,3.0
SiS4K2Zn,3.8757,-0.011011,,3,3.0
O7K2Ti2Sr,0.0,-0.0122022,,3,3.0
Cl4TiCs2,0.0,-0.0196675,,3,3.0
Al5RuGd,0.0,-0.019477,,3,3.0
Mn3Fe3Ge2,0.0,-0.0185281999999999,,3,3.0
Na6Cl8Fe,0.0,-0.0089611999999999,,3,3.0
LiRh2Sb2Nd,0.0,-0.0322462,,3,3.0
Cl6ScTe4,0.1733,-0.0201829,,3,3.0
H3RuTh,0.0,-0.0287361,,3,3.0
NiRh2Tb2,0.0,-0.0361791,,3,3.0
MgIr2Np,0.0,-0.0638841,,3,3.0
LiMgCuGe,0.0,-0.0106724,,3,3.0
CGeCe3,0.0,-0.0330551,,3,3.0
ZnRu2Sb,0.0,-0.0302352,,3,3.0
Al7Rh2Nd3,0.0,-0.0217907,,3,3.0
Cu2GaTh2,0.0,-0.0480277,,3,3.0
ZnRhPt2,0.0,-0.0472728,,3,3.0
NiCuEr2,0.0,-0.0334377,,3,3.0
H9C5N2O8Gd,4.7922,-0.0094169,,3,3.0
Al2MnAu,0.0,-0.0262358,,3,3.0
S2CsAu,1.297,-0.032301,,3,3.0
BGa2PrOs2,0.0,-0.038448,,3,3.0
GaPdPm2,0.0,-0.0349953,,3,3.0
Al4Ge2La3,0.0,-0.0226899,,3,3.0
SHf2,0.0,-0.0461253,,3,3.0
S3KNiZr,0.0,-0.0154484,,3,3.0
Al3Sr2Rh2,0.0,-0.020068,,3,3.0
Ge3RuPu,0.0,-0.0407893,,3,3.0
Al3CuSn2Er3,0.0,-0.0296592,,3,3.0
B2Mn2Fe,0.0,-0.0143431,,3,3.0
KGa4,0.0,-0.0149479,,3,3.0
Pd5Tm,0.0,-0.0366152999999999,,3,3.0
P2RbRe2,0.0,-0.0370343999999999,,3,3.0
TiFeAs,0.0,-0.0188,,3,3.0
NaSiGa,0.0,-0.0102272,,3,3.0
H2AgCs2,0.0,-0.0228712,,3,3.0
TaIr2Pt,0.0,-0.0705061,,3,3.0
O6P4BrRb,3.2945,-0.0116525,,3,3.0
MnPt2U,0.0,-0.0661555,,3,3.0
NINd2,0.0,-0.0347072,,3,3.0
SiBrEr,0.0,-0.0278705,,3,3.0
HClHo,0.0,-0.0217361,,3,3.0
Mg2InSb2,0.0,-0.0237933,,3,3.0
PCoNp,0.0,-0.0454076999999999,,3,3.0
AlNi2Pr,0.0,-0.0213843999999999,,3,3.0
O3K2Rh,0.0,-0.0127962,,3,3.0
B2Cr2Co,0.0,-0.0141664999999999,,3,3.0
Ru2ReOs,0.0,-0.0532472,,3,3.0
HMgIr,0.0,-0.0268777,,3,3.0
HI2Nd2,0.0,-0.0339373,,3,3.0
RuTm2,0.0,-0.0466906,,3,3.0
PS4Cl2Cu5,1.6342,-0.0121067,,3,3.0
LiNi2Zn2,0.0,-0.0125209,,3,3.0
O6NbPdBa2,0.0,-0.0206941,,3,3.0
Al3CoGe2Gd3,0.0,-0.0290741,,3,3.0
Cd4HgTl,0.0,-0.0436336,,3,3.0
BrY3,0.0,-0.0263901,,3,3.0
F6K2Pd,2.7931,-0.0101622,,3,3.0
Si2Mn3La,0.0,-0.0201083,,3,3.0
Be2NiPt2,0.0,-0.0337001,,3,3.0
In2BiNp,0.0,-0.0629622,,3,3.0
O4NaFe2,0.0,-0.0110184,,3,3.0
LiF4Sc,7.0226,-0.0090059,,3,3.0
Ru2Sm3Tl3,0.0,-0.052822,,3,3.0
O4Na3Mo,0.5421,-0.0110464,,3,3.0
Mg3Ga2,0.0,-0.0096893,,3,3.0
H6MnHo2,0.0,-0.0158262,,3,3.0
O4ZrPu,0.0,-0.0311228,,3,3.0
Al3CuGe2Gd3,0.0,-0.0288108,,3,3.0
NiNd6Bi2,0.0,-0.048894,,3,3.0
HBrCe,0.0,-0.0237614,,3,3.0
CoNd6Pb2,0.0,-0.048229,,3,3.0
PSePr,0.1236,-0.0261935,,3,3.0
WOsIr2,0.0,-0.0712307,,3,3.0
LiPd2Hf,0.0,-0.0333335,,3,3.0
SScSe2,0.0,-0.0172277999999999,,3,3.0
Co2TbPu,0.0,-0.0478648,,3,3.0
NaCl6Rb2Sn,0.0,-0.0146220999999999,,3,3.0
GaRh2In2,0.0,-0.030626,,3,3.0
MgNi4Eu,0.0,-0.0207341,,3,3.0
Cl8SrNd2,4.448,-0.0183359999999999,,3,3.0
O4BrSb2Er,0.9852,-0.0233155,,3,3.0
FClGe,3.9215,-0.0116315,,3,3.0
Lu2Pt2Tl,0.0,-0.0658934,,3,3.0
H2Mg2Bi,0.0,-0.0192898,,3,3.0
S3TiRbRh,0.0,-0.0177932,,3,3.0
NaPCa,2.2109,-0.0090612,,3,3.0
BNiRh,0.0,-0.0194051,,3,3.0
Cl6Rb2AgCe,0.9062,-0.0185272,,3,3.0
GaRu2Er2,0.0,-0.0379596,,3,3.0
Ni2Rh3Lu,0.0,-0.0318492,,3,3.0
AlCaCu,0.0,-0.011182,,3,3.0
Na2PPd2,0.0,-0.0173021,,3,3.0
MgTbIr4,0.0,-0.0566978,,3,3.0
Pd2Au2Tl,0.0,-0.0553088,,3,3.0
NaPb2Bi2,0.0,-0.0626582,,3,3.0
Fe2GeNp,0.0,-0.0405681,,3,3.0
Al3Ru2Th,0.0,-0.0321377,,3,3.0
CdLu3Pt2,0.0,-0.0573293,,3,3.0
Ni3Pm,0.0,-0.023273,,3,3.0
SiPr2Ir3,0.0,-0.0525662,,3,3.0
MgLu2Pb,0.0,-0.0481599999999999,,3,3.0
Co4Sn2Tb3,0.0,-0.0315369,,3,3.0
Cl6Rb2Sb,0.0,-0.0155521999999999,,3,3.0
YCd2Au2,0.0,-0.0460384,,3,3.0
NiCu3Te4,0.0,-0.0263985,,3,3.0
O6Sr2SbHo,4.5384,-0.0197967,,3,3.0
H6LiO7Mn,2.1465,-0.0069266,,3,3.0
ClCdI,2.4923,-0.0259457999999999,,3,3.0
LiP2Co2U,0.0,-0.0275088,,3,3.0
MgSr3Pt,0.0,-0.0288373,,3,3.0
F9MgK3Cu2,0.0,-0.0088883,,3,3.0
O6CuPr2Pt,0.7968,-0.023199,,3,3.0
SnCs2Bi2,0.0,-0.0540516999999999,,3,3.0
PS3Pr4,0.0,-0.0287653,,3,3.0
Ti3CoOs2,0.0,-0.0355758,,3,3.0
O4Mg2Pt,1.6613,-0.0170627,,3,3.0
N2Sr2Ru,0.0,-0.0202292,,3,3.0
V3Rh5,0.0,-0.0281037,,3,3.0
Al3CuSn2Sm3,0.0,-0.0277207,,3,3.0
Fe2GeHf,0.6456,-0.0298686,,3,3.0
YTl2Ac,0.0,-0.0663071,,3,3.0
Se2RbAg3,1.8362,-0.0263213,,3,3.0
CdSnPr,0.0,-0.0372167,,3,3.0
F7KSm2,6.9432,-0.0162672,,3,3.0
SnTe3Dy4,0.0,-0.0436856999999999,,3,3.0
O3BaPa,0.0,-0.0349573,,3,3.0
LiGaPb,0.0,-0.0317844,,3,3.0
O6Au3Hg,0.0,-0.0314178,,3,3.0
La2OsHg,0.0,-0.0569388,,3,3.0
NaGeAs,0.6182,-0.0148327,,3,3.0
Mg3Pd2Ho,0.0,-0.0221718,,3,3.0
Li3F8V,2.1097,-0.0073445,,3,3.0
MgGa2Sr2,0.0,-0.0167672,,3,3.0
Ca3BaAu,0.0,-0.0279871,,3,3.0
MnCu4In,0.0,-0.0188295,,3,3.0
PRuPa,0.0,-0.0493184,,3,3.0
CaPb7,0.0,-0.0677212,,3,3.0
GaSe2Ag,0.6741,-0.0224537,,3,3.0
Br6Cs2Pu,0.0046,-0.0353522999999999,,3,3.0
LiO6CrCo2,0.0,-0.0109709,,3,3.0
NaPEu,0.003,-0.0237161,,3,3.0
S4ZnTl2,0.7355,-0.0284535,,3,3.0
Br6YAgCs2,3.9377,-0.0269401,,3,3.0
CuZnSn,0.0,-0.0215718,,3,3.0
SSc3Tl,0.0,-0.0259466,,3,3.0
Y2Ir2Tl,0.0,-0.0548333,,3,3.0
KPd2In2,0.0,-0.0285131,,3,3.0
CdPmAu2,0.0,-0.0539776,,3,3.0
CrMn4Ta,0.0,-0.026337,,3,3.0
PKAg2Te4,0.1176,-0.0290393,,3,3.0
O6MgSi2Ca,5.0965,-0.0103466,,3,3.0
PdEr2Au,0.0,-0.0517173,,3,3.0
Ga3Tb2Ir,0.0,-0.0364937,,3,3.0
O8KGdW2,4.8581,-0.0239988,,3,3.0
P5Th,0.0,-0.0251548,,3,3.0
AlTiNiIr,0.0,-0.0287445,,3,3.0
Al3Sn2Lu3Ir,0.0,-0.0377901,,3,3.0
Cd2BaPt,0.0,-0.0432339,,3,3.0
TiNbRe2,0.0,-0.0483238,,3,3.0
RhCd2Ho,0.0,-0.0364226,,3,3.0
LiNOSi,6.097,-0.0090672999999999,,3,3.0
F6BaHf,7.9812,-0.0195642,,3,3.0
B2Rh3Lu,0.0,-0.0294257,,3,3.0
B2O7CaGaBi,4.0088,-0.0160039,,3,3.0
K2Pt2Tl,0.0,-0.0460187,,3,3.0
NiSr2Au,0.0,-0.0329052,,3,3.0
CuAgPt,0.0,-0.038966,,3,3.0
LiMg2Rh2,0.0,-0.0163098,,3,3.0
Cu2InNd,0.0,-0.0271888,,3,3.0
Rh2InHf,0.0,-0.0418025,,3,3.0
Ca2CdI2,0.0,-0.0254011,,3,3.0
LiO3Cu3,0.0,-0.0104939,,3,3.0
Cd2TbLu,0.0,-0.0411562,,3,3.0
CBr2Tm2,1.1192,-0.0320572,,3,3.0
MgAl2Si2,0.0,-0.0081062,,3,3.0
O2SiS,0.0,-0.0097504,,3,3.0
Pr2Pt,0.0,-0.0532715,,3,3.0
C2FeLu,0.0,-0.023732,,3,3.0
CuTm,0.0,-0.0338671,,3,3.0
Sc3Cu2Os,0.0,-0.0246284999999999,,3,3.0
LiAlPd2,0.0,-0.0198277,,3,3.0
NCl4Re,1.1262,-0.0191773999999999,,3,3.0
CuRh3,0.0,-0.0290973,,3,3.0
Si4Ni4Lu3,0.0,-0.0254584,,3,3.0
PrPtPb2,0.0,-0.0669676999999999,,3,3.0
CoGa8Tm2,0.0,-0.0234206,,3,3.0
SNi2Bi,0.0,-0.0303135,,3,3.0
Zn2BaBi2,0.0,-0.0451579,,3,3.0
Ni3Cu2La,0.0,-0.0205611999999999,,3,3.0
S3Cs2Pa,0.0,-0.0356361,,3,3.0
AlCuPt2,0.0,-0.0416854,,3,3.0
Al5TiFe,0.0,-0.0107546999999999,,3,3.0
Cl6KCs2Tb,5.8287,-0.0202612,,3,3.0
Ni2InTm2,0.0,-0.0344975,,3,3.0
N3TcDy,0.0,-0.0229014999999999,,3,3.0
SrSbTl2,0.0,-0.0515922,,3,3.0
SiHfPt,0.0,-0.0488819999999999,,3,3.0
AlCu4Tb,0.0,-0.0195458,,3,3.0
Ca3SrIr,0.0,-0.0246984,,3,3.0
InAc,0.0,-0.0625081,,3,3.0
H2AlRu2,0.0,-0.0170712,,3,3.0
Ge2YAg,0.0,-0.0248386,,3,3.0
AlFe2Nd,0.0,-0.0221236,,3,3.0
Nb6OsAu,0.0,-0.0427776,,3,3.0
Al9Fe2Nd,0.0,-0.012768,,3,3.0
CHo2Pb,0.0,-0.0466383,,3,3.0
F6Cs2Hf,8.2197,-0.0214152,,3,3.0
Al3CoY2,0.0,-0.0165349,,3,3.0
Cl4NiI2Cs2,0.8886,-0.0231833,,3,3.0
Ga2Pd2Nd,0.0,-0.0292716,,3,3.0
GaTa2,0.0,-0.0501248,,3,3.0
Al2Si2Ba,0.0,-0.0153532,,3,3.0
AgTe2Lu,1.0162,-0.0412438,,3,3.0
CuZn,0.0,-0.0144571,,3,3.0
S3CaAgSm,1.8569,-0.0208127,,3,3.0
B2Sm3Pt7,0.0,-0.0543825,,3,3.0
NTi3Au,0.0,-0.0265659,,3,3.0
OSCl2,3.9631,-0.0085791,,3,3.0
Mg2S5Ga2,1.8221,-0.0112688,,3,3.0
Zn2AgLu,0.0,-0.0287374,,3,3.0
MgSbPt,0.0,-0.0383967,,3,3.0
LaPt3,0.0,-0.064498,,3,3.0
ZnGaAg2,0.0,-0.0231054999999999,,3,3.0
Ga3Tb2Os,0.0,-0.0364644,,3,3.0
LiCuSb,0.0,-0.0186489,,3,3.0
HSc3Ga,0.0,-0.0129749,,3,3.0
SiScRe,0.0,-0.0324774,,3,3.0
NiPdSb,0.0,-0.0290204,,3,3.0
CaSr3Ag,0.0,-0.0216482,,3,3.0
ZnSe4Rb2Sn,2.0878,-0.0223574,,3,3.0
AlMn2Dy,0.0,-0.023318,,3,3.0
CaSe4SnAu2,1.1162,-0.0337006,,3,3.0
NaSr3Ir,0.0,-0.028587,,3,3.0
Cu2Ga3Ba,0.0,-0.0201157,,3,3.0
GeAu,0.0,-0.0441649999999999,,3,3.0
LiMgGeAu,0.0,-0.024422,,3,3.0
Tm6WBi2,0.0,-0.0601937,,3,3.0
CuAs3Zr2,0.0,-0.0236568,,3,3.0
FeCo6As4,0.0,-0.0185303,,3,3.0
CNSTl,2.0093,-0.0253356,,3,3.0
Na2PtBi2,0.0,-0.0474932,,3,3.0
Cl4K2Br2Rh,0.0,-0.0147432,,3,3.0
Mo2TaRe,0.0,-0.0520899,,3,3.0
FeTe2Pr6,0.0,-0.0398352,,3,3.0
Al3Si2RhEr3,0.0,-0.0262862,,3,3.0
As2Ru2Sm,0.0,-0.0317711,,3,3.0
AsHg2Ac,0.0,-0.0622524999999999,,3,3.0
LiRu2Sn2,0.0,-0.0288906,,3,3.0
O8Ni4Sr,0.0,-0.0119821,,3,3.0
C4Sc3Ni,0.0,-0.0129391,,3,3.0
O3CrLa,1.9655,-0.0193148,,3,3.0
B2ScRu3,0.0,-0.0227839,,3,3.0
Se4Pt3,0.0,-0.0419998,,3,3.0
MgBr4,2.513,-0.0174801,,3,3.0
NaP2Co2,0.0,-0.0124386,,3,3.0
Rh2NdDy,0.0,-0.0405698,,3,3.0
SbAu2Hg,0.0,-0.0609701999999999,,3,3.0
B6Tm,0.0,-0.01417,,3,3.0
Mg12Pr,0.0,-0.0079733,,3,3.0
ZnTc2In,0.0,-0.0292182,,3,3.0
KIn3Ir,0.0,-0.0362001,,3,3.0
CuGa3Tm2,0.0,-0.028686,,3,3.0
N3RhSm,0.0,-0.0218543,,3,3.0
CaBa5,0.0,-0.0345491,,3,3.0
MnNiCu2,0.0,-0.0163563,,3,3.0
AlZn2Th,0.0,-0.032976,,3,3.0
F6MnBi,0.0,-0.0172982,,3,3.0
LiSn2Th2,0.0,-0.0537209,,3,3.0
B2CSm,0.0,-0.017906,,3,3.0
LiNi5,0.0,-0.0138396,,3,3.0
H2KSr2,0.0,-0.0122935,,3,3.0
MgGa2Se4,2.4259,-0.0177422,,3,3.0
MgAlY,0.0,-0.0138956,,3,3.0
Si3PdTh,0.0,-0.0323930999999999,,3,3.0
H2CoHf2,0.0,-0.0303568,,3,3.0
Ni2Se4W,0.0,-0.0263645,,3,3.0
H2Zr2Ag,0.0,-0.0203212,,3,3.0
Mn2Rh3Sm,0.0,-0.0309491,,3,3.0
O7Si2TiHo,1.0072,-0.0150052,,3,3.0
AsSb,0.0,-0.0287183999999999,,3,3.0
ZnRu2Ta,0.0,-0.0378688,,3,3.0
O4PPb,0.0,-0.0203623,,3,3.0
CTlTh2,0.0,-0.0689292,,3,3.0
VFeCo4Ga2,0.0,-0.0175179,,3,3.0
InI2Pr2,0.0,-0.0398328,,3,3.0
O6InTeLa,3.4113,-0.0189523,,3,3.0
MnZn8,0.0,-0.0140862,,3,3.0
Mo3Sn,0.0,-0.0350989,,3,3.0
NdPb,0.0,-0.0605212999999999,,3,3.0
O6Na2TePu,0.0,-0.0212803,,3,3.0
ZnSb2Au,0.0,-0.0393641999999999,,3,3.0
NaTi3Te6,0.0,-0.0283663,,3,3.0
HI2Nd,3.2649,-0.0314988,,3,3.0
SiCl6K2,3.4956,-0.0099615,,3,3.0
NiBi2Th,0.0,-0.0677758,,3,3.0
N6Cr2Sm3,0.0,-0.021806,,3,3.0
ZnRh2Tm3,0.0,-0.0403224,,3,3.0
HInTb3,0.0,-0.0359016,,3,3.0
CdSnSm,0.0,-0.037551,,3,3.0
Si2Sc2La,0.0,-0.0190582,,3,3.0
S6MoTa2,0.0,-0.0261419,,3,3.0
LiSr2Tl2,0.0,-0.0387843,,3,3.0
Si2CoGa3Dy3,0.0,-0.0262324,,3,3.0
Si2MnOs,0.0,-0.0279539,,3,3.0
F6W,5.5517,-0.0156698,,3,3.0
NaCl6Cs2Ho,5.7909,-0.0200708,,3,3.0
H2Zr2Mo,0.0,-0.0209808999999999,,3,3.0
K2AgBi2,0.0,-0.0413182,,3,3.0
Fe3Ru,0.0,-0.0223092,,3,3.0