formula,bg,formation_energy,mp-id,fidelity,bg_category
Ga2LaLu,0.0,-0.0334114,,3,3.0
Li2InBi2,0.0,-0.0393535,,3,3.0
Li3O11FV4,2.2079,-0.0103516999999999,,3,3.0
Li3In2,0.0,-0.0152009,,3,3.0
Mn2Pt,0.0,-0.0361823,,3,3.0
RuILa,0.0,-0.0391428,,3,3.0
BrRhLa,0.054,-0.0335698,,3,3.0
CoGe2U,0.0,-0.0399716,,3,3.0
SnEu2Pt3,0.0,-0.0600144,,3,3.0
H4O5NaSeCs,4.6659,-0.0102502,,3,3.0
CaAgBa2,0.0,-0.0301444,,3,3.0
Co2NiPa,0.0,-0.03774,,3,3.0
O6NiSr2Rh,0.0,-0.0150664,,3,3.0
Ga3Pr,0.0,-0.0237735,,3,3.0
ZnPd2Pu,0.0,-0.0476435,,3,3.0
N3RuLa,0.0,-0.0217506999999999,,3,3.0
C2MoW,0.0,-0.031282,,3,3.0
Sc6FeGe2,0.0,-0.0162602,,3,3.0
Al2ErOs,0.0,-0.0350619,,3,3.0
LiSi2Sr,0.0,-0.0114761,,3,3.0
O6FTa2Bi,2.6652,-0.0278749,,3,3.0
B6Mn2Y,0.0,-0.0127041,,3,3.0
O7Ge2SrTb,0.7934,-0.0161521,,3,3.0
F6FeRb2,0.0,-0.0116517,,3,3.0
MgRh2Te,0.0,-0.0278913,,3,3.0
Rb2Te2Pt,1.1992,-0.0381974,,3,3.0
Br2La2Pb,0.2998,-0.0418276,,3,3.0
Co2GePu,0.0,-0.0410306,,3,3.0
O3NaMnCs,1.2414,-0.0151242,,3,3.0
Rh3SnSm2,0.0,-0.0385501,,3,3.0
N3PrOs,0.0,-0.0290365,,3,3.0
Ni2Sn2Dy,0.0,-0.0309131,,3,3.0
CaCu2Y2,0.0,-0.0193035,,3,3.0
NaAs2Ag2,0.0,-0.0216472,,3,3.0
CdPt2Hg,0.0,-0.0598864,,3,3.0
Ge2CdNd2,0.0,-0.0319772,,3,3.0
CuGaTm,0.0,-0.0284076999999999,,3,3.0
KCdPb2,0.0,-0.0477415,,3,3.0
Mg2RuTb,0.0,-0.0231106,,3,3.0
F4MnCs,3.7112,-0.0145849,,3,3.0
Al3Si2CuNd3,0.0,-0.0216498,,3,3.0
Na2ZnHg,0.0,-0.0226083,,3,3.0
AlMnCoNi,0.0,-0.0154753,,3,3.0
Si2Cu2Th,0.0,-0.0298329,,3,3.0
TiRbPdTe3,0.0,-0.0310437,,3,3.0
IrPt8,0.0,-0.0702159,,3,3.0
InBi2,0.0,-0.06344,,3,3.0
Li2P,0.0,-0.0056893,,3,3.0
SiBr3,4.474,-0.0178989,,3,3.0
CdSn2Er2,0.0,-0.0412195,,3,3.0
B4Th,0.0,-0.0257409,,3,3.0
MgSc2Re,0.0,-0.0262878,,3,3.0
O6CaBa2Pt,0.0,-0.0218377,,3,3.0
InDyAu,0.0,-0.0510886,,3,3.0
NBrNd2,0.0,-0.0306195999999999,,3,3.0
LiKCd4,0.0,-0.022175,,3,3.0
ZnSe3ErTl,2.3027,-0.0339953999999999,,3,3.0
Li2CaCd2,0.0,-0.0153192,,3,3.0
Si3NdPt,0.0,-0.0296611,,3,3.0
RbPtTl3,0.0,-0.0616953,,3,3.0
CaSe3NdAu,1.2323,-0.0320478,,3,3.0
Zn2Y2La,0.0,-0.0254485,,3,3.0
MnZr4,0.0,-0.0282256,,3,3.0
CuAs2Sm,0.0,-0.0259543,,3,3.0
Si8Sc3Hf,0.0,-0.0159629,,3,3.0
Ga3RhSn2La3,0.0,-0.0323773,,3,3.0
Mn8Co,0.0,-0.0181127,,3,3.0
AlGa3Ge2Ho3,0.0,-0.0275239,,3,3.0
Mg3Hg5,0.0,-0.0446916999999999,,3,3.0
AlFeNbIr,0.0,-0.0332147,,3,3.0
ScMo3,0.0,-0.0296433,,3,3.0
SrAgHg2,0.0,-0.0479341999999999,,3,3.0
Sb4Hf5,0.0,-0.0518219,,3,3.0
F3KSn,2.9008,-0.0136019,,3,3.0
MoWIr2,0.0,-0.0620827,,3,3.0
MgAl2Sc2,0.0,-0.0101243,,3,3.0
MgRuPm2,0.0,-0.0320936,,3,3.0
CrSe3Sn,0.0,-0.0234446,,3,3.0
Co5Y,0.0,-0.019128,,3,3.0
LaSm3,0.0,-0.044079,,3,3.0
H2C2O5Cs2,3.7774,-0.0136855,,3,3.0
Al2ErPt,0.0,-0.0352221,,3,3.0
K2RhBi2,0.0,-0.0418167,,3,3.0
OGaBr4Nb,1.045,-0.0202618,,3,3.0
O9MnBa3Ta2,0.0,-0.0247588,,3,3.0
MnGa3Ge2Er3,0.0,-0.0292115,,3,3.0
Si2Ga3Ce3Os,0.0,-0.0311344,,3,3.0
NClPa,0.471,-0.0410429999999999,,3,3.0
YEuHg2,0.0,-0.055177,,3,3.0
S8V4Ga,0.0,-0.0136066,,3,3.0
CZr3Pb,0.0,-0.0363285,,3,3.0
SiHoAu2,0.0,-0.0501644999999999,,3,3.0
O8Ca2V2Pb,3.4663,-0.0165581,,3,3.0
O6MgGeHo2,5.5153,-0.0190695,,3,3.0
Ag2SnLa,0.0,-0.0359183,,3,3.0
PdIn3Sn2Tb3,0.0,-0.0391039,,3,3.0
OsIr7,0.0,-0.0711811,,3,3.0
Li4O4Si,5.4786,-0.0075306,,3,3.0
NiY2Ag,0.0,-0.0261944,,3,3.0
ScCo4Hg,0.0,-0.0253508,,3,3.0
SiLa2Ir3,0.0,-0.0525241,,3,3.0
Al2Si2Lu,0.0,-0.018518,,3,3.0
Pd2BaAu3,0.0,-0.0526629999999999,,3,3.0
CoTb3,0.0,-0.0394993,,3,3.0
K2Pb,0.0,-0.0310496,,3,3.0
OCrAsLa,0.0,-0.0240328,,3,3.0
AlS8Mo4,0.0,-0.0182117,,3,3.0
CaSn3Ir,0.0,-0.0381786,,3,3.0
Li5NCl2,2.4844,-0.0059184,,3,3.0
MgInCe2,0.0,-0.0321005,,3,3.0
CoAsNp,0.0,-0.0484714,,3,3.0
O7Nb2CsLa,1.9027,-0.0203536,,3,3.0
V2Co9Mo,0.0,-0.0187548,,3,3.0
Ga6Np,0.0,-0.0293424,,3,3.0
ScInIr,0.0,-0.0403636,,3,3.0
Co2Dy3Hg,0.0,-0.0414091,,3,3.0
Zn2RhNd,0.0,-0.0266822,,3,3.0
F7Na3Sc,0.0127,-0.0078083,,3,3.0
As3In4Te,0.0,-0.0291429,,3,3.0
SeSb5,0.0,-0.0343918,,3,3.0
O4CuNd2,0.0,-0.0210621,,3,3.0
CuSrBi2,0.0,-0.0490837,,3,3.0
Fe2GaCe,0.0,-0.0245596,,3,3.0
Y5Rh,0.0,-0.0291432,,3,3.0
Li2SbPt,0.0,-0.0288791,,3,3.0
BAl2Ru2Lu,0.0,-0.0253759,,3,3.0
Si2Er,0.0,-0.023941,,3,3.0
Al2FeEr6,0.0,-0.0374619,,3,3.0
F3AsBrCs,4.3794,-0.0168583,,3,3.0
Co4Ga4Lu3,0.0,-0.0277567999999999,,3,3.0
NiGeBa,0.0,-0.0254385,,3,3.0
PdHoPb,0.0,-0.0533806,,3,3.0
PPdLa,0.0,-0.0302114,,3,3.0
AgTe2Ir,0.2752,-0.0444238,,3,3.0
PGa2Bi,0.0851,-0.0305858,,3,3.0
SrCdLa2,0.0,-0.034894,,3,3.0
MnAsZr,0.0,-0.0239869999999999,,3,3.0
AsBaPb,0.0,-0.0459401,,3,3.0
O6MnI2,1.2778,-0.0151483,,3,3.0
ClBrSm,0.0,-0.0259462,,3,3.0
C2NiTh,0.0,-0.0333285,,3,3.0
NiRhTb2,0.0,-0.0365323,,3,3.0
Mg2CuLu,0.0,-0.0203086,,3,3.0
Ta2Ir2Au,0.0,-0.0694495,,3,3.0
O4NbIr,1.0621,-0.0233917,,3,3.0
Cl8SrPr2,4.4552,-0.0182944,,3,3.0
LiN2Cr,0.0,-0.0105167,,3,3.0
RbNbPdTe3,0.0,-0.033769,,3,3.0
Si2YRe4,0.0,-0.0479992,,3,3.0
CdSbCs,0.165,-0.0356578,,3,3.0
GdBi3,0.0,-0.0740228,,3,3.0
HTi3Hg,0.0,-0.024304,,3,3.0
CaMnIn5,0.0,-0.0281188,,3,3.0
Zr2AuTl,0.0,-0.051216,,3,3.0
Al2AgAu2,0.0,-0.0374193,,3,3.0
CuPdDy2,0.0,-0.0365312,,3,3.0
O3CuBa,0.3085,-0.0162211999999999,,3,3.0
Al2CrPd,0.0,-0.017294,,3,3.0
Cl3RbSr,5.9773,-0.0159169,,3,3.0
BePK,2.356,-0.0082890999999999,,3,3.0
P2RhTh2,0.0,-0.0507808,,3,3.0
O6Ba2OsPa,0.0,-0.0316009,,3,3.0
Li3O5MnCo,1.2031,-0.0095099,,3,3.0
LiP2Ru2Tm,0.0,-0.0250815,,3,3.0
Mg2Ga2Se5,0.8881,-0.0168902,,3,3.0
Ca2InAu2,0.0,-0.0390712,,3,3.0
CSiRu2Ce,0.0,-0.0275103,,3,3.0
P3Co5La,0.0,-0.0185914,,3,3.0
CSiCe3,0.0,-0.0311469999999999,,3,3.0
PCoRb,0.0,-0.0166005,,3,3.0
B2TiMo,0.0,-0.0172815,,3,3.0
BrAgSb2,0.1274,-0.0314773,,3,3.0
B2N3Cu2Nd3,0.0,-0.021481,,3,3.0
Li2O8Cr3Nb,0.9246,-0.0127771,,3,3.0
F6CrGa2,1.9474,-0.0105504,,3,3.0
IBa2Tl2,0.0,-0.0531267,,3,3.0
GaRuPm2,0.0,-0.0352064,,3,3.0
In2SnEr,0.0,-0.0387358,,3,3.0
CoTe2Au,0.0,-0.0403621,,3,3.0
Li5Al24,0.0,-0.0068482,,3,3.0
O3MgSi,5.3703,-0.0098308,,3,3.0
O4Na5Cr,0.0,-0.0080789,,3,3.0
O2Na2Mn,0.0,-0.0094448,,3,3.0
TbTl2Ac,0.0,-0.0710021,,3,3.0
NiAg2I4,0.0,-0.0324138999999999,,3,3.0
ZnReIr2,0.0,-0.0569795,,3,3.0
CoSb4La2,0.0,-0.0369138,,3,3.0
NbSnTe2,0.0,-0.0361818,,3,3.0
CrAs,0.0,-0.0197125999999999,,3,3.0
IHo,0.0,-0.0438133,,3,3.0
Ga6IrTh,0.0,-0.0336791,,3,3.0
CuCd4,0.0,-0.0272926,,3,3.0
B2GdIr3,0.0,-0.0486156,,3,3.0
LiCo2As2Zr,0.0,-0.0186119999999999,,3,3.0
Ge3YIr,0.0,-0.0319783,,3,3.0
LiSr2Pt2,0.0,-0.0381811,,3,3.0
Ge2DyOs,0.0,-0.0400533,,3,3.0
Li3Pb,0.0,-0.0211875,,3,3.0
F6K2RbLu,6.3781,-0.0148668,,3,3.0
Cu5Ac,0.0,-0.0278407,,3,3.0
Li3F8Cu2,0.0702,-0.0074388,,3,3.0
LiCuIn2,0.0,-0.0212441,,3,3.0
PdBaTl3,0.0,-0.05831,,3,3.0
LiCd4La,0.0,-0.0281521,,3,3.0
ZnSrAg,0.0,-0.0226818999999999,,3,3.0
SrI6Eu2,1.2387,-0.040678,,3,3.0
P2AgPb,0.0,-0.0319279,,3,3.0
CuGe2La,0.0,-0.0248461,,3,3.0
CoCdIn2,0.0,-0.0285067,,3,3.0
InBaPt4,0.0,-0.0595045,,3,3.0
Li2ScCd,0.0,-0.0124894,,3,3.0
Ru2DyPa,0.0,-0.0548507,,3,3.0
O4RhBa2,0.0,-0.0218342999999999,,3,3.0
Nb2Rh2Cd,0.0,-0.0332021,,3,3.0
Mg4Au,0.0,-0.018171,,3,3.0
LiAs2YPt2,0.0,-0.0362614999999999,,3,3.0
C3Al4,1.6738,-0.0089855,,3,3.0
F8Na2BaTb,0.0,-0.0136523,,3,3.0
AsY2Rh,0.0,-0.0286805999999999,,3,3.0
Ga2Ag3La,0.0,-0.0286127,,3,3.0
SnTb2,0.0,-0.0438417,,3,3.0
FeIr5,0.0,-0.062357,,3,3.0
SiCrRu2,0.024,-0.0251328,,3,3.0
PS3Pa4,0.0,-0.0562485,,3,3.0
H4CrCs,0.0,-0.0117778,,3,3.0
OZr3Tl,0.0,-0.0353253,,3,3.0
F6AsRb,5.9839,-0.0103413,,3,3.0
SrIn2Sb2,0.0,-0.0332668,,3,3.0
Mg4Co,0.0,-0.0073894,,3,3.0
Si2Co3Tb,0.0,-0.0204075999999999,,3,3.0
RhPdSb,0.0,-0.0350882,,3,3.0
Rb2Hg2Tl,0.0,-0.0502475999999999,,3,3.0
Pd2AgHf2,0.0,-0.0450285999999999,,3,3.0
KPd2Te3,0.2402,-0.0315784999999999,,3,3.0
Na2GeCd,0.0,-0.0146865,,3,3.0
RhSmPb2,0.0,-0.0580249,,3,3.0
AlRu2Re,0.0,-0.0375555,,3,3.0
F6ScAg,1.1741,-0.0109662,,3,3.0
KCuBa3,0.0,-0.0283763,,3,3.0
O6SnTeBa,3.2939,-0.0186155,,3,3.0
O4Cu2Te2SmBi2,0.0,-0.0315159,,3,3.0
Fe2As2Cs,0.0,-0.0231667999999999,,3,3.0
ScAsTb,0.0,-0.0281782,,3,3.0
Mg2SeHg,0.0,-0.025239,,3,3.0
Mn2NiRh,0.0,-0.0220819,,3,3.0
ScZrTc2,0.0,-0.0290936999999999,,3,3.0
Mg3Sc,0.0,-0.0073306,,3,3.0
H2O6P2U,0.0,-0.017558,,3,3.0
Fe2Ge2Dy,0.0,-0.0248848,,3,3.0
NiGaHf,0.0,-0.0324675,,3,3.0
F6GaAgCs2,3.1904,-0.0170956,,3,3.0
O8ZnSr3RuLa,1.1567,-0.0174634,,3,3.0
Cl4RhCs2,0.0,-0.0216504,,3,3.0
Mg2Al5Tb,0.0,-0.0120977999999999,,3,3.0
P2Fe2Pu,0.0,-0.0339908,,3,3.0
LiO2Tb,5.1762,-0.0185985,,3,3.0
CoInTb,0.0,-0.0328093999999999,,3,3.0
Be2NiCu,0.0,-0.0103988999999999,,3,3.0
NaCd2In2,0.0,-0.0264647,,3,3.0
ZnLa2Os,0.0,-0.0431312,,3,3.0
LiRbTe,2.9175,-0.0213332,,3,3.0
CaScCu2,0.0,-0.0137714,,3,3.0
CaNi4Cu,0.0,-0.0148785,,3,3.0
LiInPr2,0.0,-0.0309763,,3,3.0
LiTaPt2,0.0,-0.0531691,,3,3.0
H6K3Ni,0.0,-0.0063996,,3,3.0
Si4CoNi3,0.0,-0.0137402,,3,3.0
S2Hf,1.2702,-0.0290725,,3,3.0
NRb2Pt,0.0,-0.0304805,,3,3.0
H6AlK2Tl,0.5502,-0.0119203,,3,3.0
TiSrSn3,0.0,-0.0297140999999999,,3,3.0
AlCdDy2,0.0,-0.0338517999999999,,3,3.0
ScZn2Ho,0.0,-0.0230086,,3,3.0
O6As2Pd,1.0773,-0.0133992,,3,3.0
AlInSb2,0.7843,-0.0290961,,3,3.0
Al2PSb,0.0,-0.0159465,,3,3.0
MgAl2Ni,0.0,-0.0095824999999999,,3,3.0
O8P2CaNd,0.0,-0.0132568,,3,3.0
NaGa4,0.0,-0.0141225,,3,3.0
Ca2YPt2,0.0,-0.0385377,,3,3.0
MnAsPt5,0.0,-0.0561409,,3,3.0
CuIn2Au,0.0,-0.0379003,,3,3.0
O3SeRb2,4.6441,-0.0149987,,3,3.0
P2Cu4U,0.0,-0.0267238,,3,3.0
TcTa5,0.0,-0.0615403999999999,,3,3.0
ZrCdPt,0.0,-0.0446139999999999,,3,3.0
Li2O8Ti3Ni,1.2287,-0.0113304,,3,3.0
PS4K3,3.0883,-0.0103822,,3,3.0
Li2OF5Nb,4.4265,-0.0100010999999999,,3,3.0
O6SbBa2Pu,0.0,-0.0290512,,3,3.0
As2U,0.0,-0.0485822999999999,,3,3.0
OPZnSm,1.5331,-0.0207038,,3,3.0
Y2AgSn2,0.0,-0.03247,,3,3.0
SbSmLu,0.0,-0.0465687,,3,3.0
Cu2Zn2La,0.0,-0.0203706,,3,3.0
Cd2Au2Hg,0.0,-0.0536305,,3,3.0
F6RhEu,0.0,-0.0163555,,3,3.0
Al2RuEr,0.0,-0.0258594,,3,3.0
O3Na2Pt,1.9777,-0.0175942,,3,3.0
F6CaPu,0.212,-0.0213919999999999,,3,3.0
Y2CdIn,0.0,-0.0304816,,3,3.0
Si4Mo3Er2,0.0,-0.0279488,,3,3.0
Fe4ZrIn,0.0,-0.0229197999999999,,3,3.0
NaTl2Bi2,0.0,-0.0612807,,3,3.0
Al2RuOs,0.0,-0.0312906,,3,3.0
O6MoDy2,3.8911,-0.0218216,,3,3.0
MgZn2Au2,0.0,-0.0344879,,3,3.0
Ni2CuRe,0.0,-0.0296343999999999,,3,3.0
F6Cu,1.7465,-0.0059251,,3,3.0
Cr2Os,0.0,-0.0362298,,3,3.0
Li4Ba3Bi4,0.0,-0.0410867,,3,3.0
Ge2TbPt3,0.0,-0.050147,,3,3.0
HOClHg,1.1273,-0.0221457,,3,3.0
CoZn5,0.0,-0.0141427999999999,,3,3.0
CoLu2Os,0.0,-0.0503909,,3,3.0
Co2NiGe,0.0,-0.017529,,3,3.0
S3AsHg,1.4276,-0.0234999,,3,3.0
Al2Ga2Y,0.0,-0.0156831999999999,,3,3.0
O6ZnSnPr2,3.5821,-0.0200400999999999,,3,3.0
O6ZnMoLa2,0.0,-0.0200194,,3,3.0
Pt2Tl3Th3,0.0,-0.0814519,,3,3.0
Pd2PrAu3,0.0,-0.0533711,,3,3.0
O2Na2Ba,1.9969,-0.0139224,,3,3.0
F6CdGd,0.0,-0.0166821,,3,3.0
FeAs2Lu6,0.0,-0.0441062999999999,,3,3.0
Li3O12FeSb4,0.0,-0.0141319,,3,3.0
O6Sr2NbTa,0.0,-0.0212333,,3,3.0
Al5PrIr,0.0,-0.0225759,,3,3.0
O8K3Se2,0.0,-0.0100550999999999,,3,3.0
Zn2Ga5Sr,0.0,-0.0166331999999999,,3,3.0
Zn2Ga2Gd,0.0,-0.0242174,,3,3.0
CoAsPa,0.0,-0.0464812999999999,,3,3.0
Ga6LuPt,0.0,-0.0284684999999999,,3,3.0
MgZn4Ir,0.0,-0.0219339,,3,3.0
Cu2Rh3Nd,0.0,-0.0295618,,3,3.0
LiPd2Sb2Dy,0.0,-0.0326171,,3,3.0
Ag7Pt,0.0,-0.0362346999999999,,3,3.0
CrGe3Nd,0.0,-0.0243438,,3,3.0
Ge2PdLu,0.0,-0.0323203,,3,3.0
K5Pb,0.0,-0.019657,,3,3.0
Co2ISm2,0.0,-0.0326004,,3,3.0
B7MnHo3,0.0,-0.0204387,,3,3.0
O6CoSr2Te,1.0007,-0.0158057,,3,3.0
YRh2Hg,0.0,-0.0414872,,3,3.0
AlScPd,0.0,-0.0192702999999999,,3,3.0
Al2FeTh,0.0,-0.0327128,,3,3.0
MgCdIn,0.0,-0.0230222,,3,3.0
CoSe5,0.0,-0.0196998,,3,3.0
O2Er2Bi,0.0,-0.0413309,,3,3.0
MnFe2Sb,0.0,-0.0228708,,3,3.0
Si2SrCd2,0.0,-0.0208602,,3,3.0
CuIn5Th,0.0,-0.0399461,,3,3.0
GeLa,0.0,-0.0320277,,3,3.0
P2MoPd,0.0,-0.0226161,,3,3.0
GeRbI3,0.4842,-0.0308335,,3,3.0
GeI2Gd2,0.0,-0.0433268,,3,3.0
PSDy,0.0676,-0.0243118,,3,3.0
Ge2RbSn2,0.0,-0.0262118,,3,3.0
SePdSn,0.0,-0.0301088999999999,,3,3.0
Al24CrMn,0.0,-0.0086542999999999,,3,3.0
AsSe2Tl,0.2119,-0.033423,,3,3.0
F6NiGe,3.2312,-0.0095356,,3,3.0
AsZrSm,0.0,-0.0328767,,3,3.0
O4FeCs3,0.7247,-0.0211566,,3,3.0
Fe2In5Tb4,0.0,-0.0358579999999999,,3,3.0
Ga3Pt7,0.0,-0.054534,,3,3.0
DyErBi,0.0,-0.0595594,,3,3.0
O6TiCrNb,1.2653,-0.0145458,,3,3.0
FeAs2Pu,0.0,-0.0426321,,3,3.0
N2Na2Np,0.0,-0.0275183,,3,3.0
AlInNd,0.0,-0.028812,,3,3.0
O6K2TeEr,0.0,-0.0162765,,3,3.0
Cl7Sc3Te,2.4501,-0.0145245,,3,3.0
SmTl3,0.0,-0.0657900999999999,,3,3.0
FeGeHo,0.0,-0.0292438,,3,3.0
O8Cs3Dy,0.0,-0.0190198,,3,3.0
MgCu2Zr,0.0,-0.0167708,,3,3.0
Sr2In2I,0.0,-0.030587,,3,3.0
GeSe3Sm4,0.0,-0.033998,,3,3.0
Ca2ScY,0.0,-0.0152465,,3,3.0
O6CoTePb2,0.9654,-0.0255249,,3,3.0
Zn3Ag2Er,0.0,-0.0258827,,3,3.0
MnLu6Bi2,0.0,-0.056877,,3,3.0
Li2BRh2,0.0,-0.0163192,,3,3.0
O6CuZrBa2,0.0,-0.0187215999999999,,3,3.0
FeSe4In2,0.0,-0.0241397,,3,3.0
H4FeU,0.0,-0.0226729,,3,3.0
GeNbPd,0.0,-0.0289351,,3,3.0
Ni2SnCe2,0.0,-0.0319725,,3,3.0
Cu2InTm,0.0,-0.0292975,,3,3.0
B2Rh3Ho,0.0,-0.0283678999999999,,3,3.0
H6FeCs2Tl,0.0,-0.0187023,,3,3.0
F6MgMn,3.4179,-0.0086684,,3,3.0
TiAsTm,0.0,-0.0304145,,3,3.0
ZnRhSm,0.0,-0.0313234,,3,3.0
LiO12InI4,3.466,-0.0150701,,3,3.0
As4Te7Pb,0.3269,-0.0348114,,3,3.0
Si2Ti2Cr,0.0,-0.0147288,,3,3.0
Fe2CuPt,0.0,-0.0306771,,3,3.0
Li2F8BaPr,0.0,-0.0131104,,3,3.0
GaRh2Ho,0.0,-0.0341606,,3,3.0
O6KTi2Bi,2.9237,-0.0182451,,3,3.0
O6MgSnNd2,4.9609,-0.0195669,,3,3.0
Li2F8CaTm,0.0,-0.0114171999999999,,3,3.0
B2N3Rh2Ho3,0.0,-0.0272038,,3,3.0
Zr2PdPt,0.0,-0.0420264,,3,3.0
O6CuZnPr2,0.0,-0.0176155,,3,3.0
Al3Si2CuLa3,0.0,-0.0214536,,3,3.0
InPtTh,0.0,-0.0676356999999999,,3,3.0
Be4CrOs,0.0,-0.0183432,,3,3.0
OCaMnSe,1.2246,-0.0156419,,3,3.0
F6MgPu,0.8176,-0.0207137999999999,,3,3.0
TiCuGa5,0.0,-0.0163575,,3,3.0
CoZn2La,0.0,-0.0220359,,3,3.0
CuGa2In,0.0,-0.0203006,,3,3.0
Zn2Nd2Pb,0.0,-0.0385685,,3,3.0
AsSbBa2,0.0,-0.0352278,,3,3.0
LaSmBi,0.0,-0.0561923999999999,,3,3.0
PFeTa2,0.0,-0.0409738,,3,3.0
Al3Cu2Pu,0.0,-0.0275526,,3,3.0
LiBrSb2,1.0586,-0.024832,,3,3.0
O6MnSr2Dy,0.0,-0.0176747,,3,3.0
Co2Te,0.0,-0.0239091,,3,3.0
Al4TbPt,0.0,-0.0255542,,3,3.0
AgLuHg,0.0,-0.0520657,,3,3.0
SrCd2Ba,0.0,-0.0310476999999999,,3,3.0
Mg2CoGa,0.0,-0.0109765,,3,3.0
PAg2Cs,1.3674,-0.0279713,,3,3.0
Sn2Tb6Pt,0.0,-0.0477703,,3,3.0
ClBi,0.3265,-0.0438487,,3,3.0
AlZnSm,0.0,-0.0224162,,3,3.0
Li2ZnBa2,0.0,-0.0195146,,3,3.0
O8MnMo2Cs,1.0672,-0.0168442,,3,3.0
Cl9As2Cs3,2.6541,-0.0175981,,3,3.0
CuTc,0.0,-0.0250334,,3,3.0
Si2Ca2In3,0.0,-0.0202559,,3,3.0
SnTeLu,0.0,-0.0437747,,3,3.0
S8Co5Ni,0.0,-0.013368,,3,3.0
Mg2S8Cr3Mn,0.0,-0.012699,,3,3.0
MgSiCe,0.0,-0.0203105,,3,3.0
Ge2La2Bi,0.0,-0.0414892,,3,3.0
Sc2OsPt,0.0,-0.0437286,,3,3.0
InSmAu2,0.0,-0.054896,,3,3.0
MgCdSm2,0.0,-0.0313327,,3,3.0
C2MoHo,0.0,-0.0263732,,3,3.0
H2Ga2Eu,0.0,-0.0191686,,3,3.0
SrAg2In2,0.0,-0.0306854,,3,3.0
O7P2KNp,1.1629,-0.0189913,,3,3.0
RbSb2Bi2,0.0,-0.0506678,,3,3.0
MgGeTe4Tl2,0.3886,-0.0401186,,3,3.0
Li2O3Ti,3.4392,-0.0094734,,3,3.0
Pd2Ag2Tl,0.0,-0.0401507,,3,3.0
Be2Si2Sr,0.0,-0.0104122,,3,3.0
O7Sm2Th2,3.0341,-0.0333907,,3,3.0
ZnPd2Sn4,0.0,-0.0321342,,3,3.0
PNiRh,0.0,-0.0208211,,3,3.0
AgSb2Tm,0.0,-0.0400427999999999,,3,3.0
CuEuPb,0.0,-0.048642,,3,3.0
O2K2Pt,2.2681,-0.0211081,,3,3.0
Ni2SnTh2,0.0,-0.0526224,,3,3.0
CPRu2Ho,0.0,-0.0285978,,3,3.0
Mg2SiPd2,0.0,-0.0177195,,3,3.0
Fe2PrU,0.0,-0.0458134,,3,3.0
O6NiCu3,0.0,-0.0106166,,3,3.0
Cl6Rb2Ce,1.905,-0.0171168,,3,3.0
Ni2InBa2,0.0,-0.029019,,3,3.0
OFP,4.3334,-0.0087447,,3,3.0
AsTeI,1.0176,-0.0314976,,3,3.0
CClTb2,0.0,-0.0292158,,3,3.0
PdTm2,0.0,-0.046262,,3,3.0
S3TiCuCs,0.2728,-0.0176032,,3,3.0
O4HoHf,0.0,-0.0261948,,3,3.0
CeHoTl2,0.0,-0.0600549,,3,3.0
F6CuRbCs2,2.1891,-0.0158448,,3,3.0
CaBr3Tl,4.0548,-0.029816,,3,3.0
FeGe2In3Sm3,0.0,-0.0327904,,3,3.0
CaSmPb2,0.0,-0.0521144,,3,3.0
P2Cu2Sm,0.0,-0.0199261,,3,3.0
SiMnOs2,0.0,-0.0434559,,3,3.0
Ca3PdSn5,0.0,-0.0274821,,3,3.0
Ga4Ge2In3,0.0,-0.0225199,,3,3.0
PMn5,0.0,-0.0172115,,3,3.0
NiSe2Au,0.0,-0.031601,,3,3.0
O6MgPr2Os,0.6737,-0.0228594,,3,3.0
KYAu2,0.0,-0.0443762,,3,3.0
TiMnSe4,0.0,-0.0200293,,3,3.0
Al6CeAu,0.0,-0.0204785,,3,3.0
O7AlKAs2,3.7727,-0.0110847,,3,3.0
Ga2Ge2Y,0.0,-0.0201535,,3,3.0
Li2O7NdTa2,0.0,-0.0217564,,3,3.0
N2ZrTm,0.0,-0.0273813,,3,3.0
Ge2SmIr,0.0,-0.0393613,,3,3.0
Zn2PdDy,0.0,-0.0275610999999999,,3,3.0
F6CdEr,0.0,-0.0156765,,3,3.0
AsPrTm,0.0,-0.0395139,,3,3.0
S3SrYAg,2.038,-0.0202395,,3,3.0
Ga2Zr3Pd4,0.0,-0.0291741999999999,,3,3.0
P4Fe6Ni,0.0,-0.0154848,,3,3.0
S4Ga2Sr,3.046,-0.0146807999999999,,3,3.0
Ti3CuPd2,0.0,-0.0218807,,3,3.0
YPdIn2,0.0,-0.0326548,,3,3.0
Zr2Ho,0.0,-0.0367423,,3,3.0
CrTa5,0.0,-0.0585225,,3,3.0
KZn2Ga2,0.0,-0.0136995,,3,3.0
PmPt2Bi,0.0,-0.0664685999999999,,3,3.0
Li5O2CuSe,2.4049,-0.0081792,,3,3.0
AlCl6Cs2Tl,4.2081,-0.0222063999999999,,3,3.0
C2Br5Er4,0.0,-0.0304879,,3,3.0
Al2CePm,0.0,-0.0263538,,3,3.0
GeCd2Ir,0.0,-0.0379713,,3,3.0
SiAsNb,0.0,-0.0217334,,3,3.0
Al3Rh2Nd,0.0,-0.0233826,,3,3.0
O4Cr2Hg,0.6209,-0.0204714,,3,3.0
CuZrCd2,0.0,-0.0267979,,3,3.0
CoAsTh,0.0,-0.0453444,,3,3.0
Li2CaBi2,0.0,-0.0349178,,3,3.0
Sc2RhLa,0.0,-0.0268828999999999,,3,3.0
Zn2Sb2Pr,0.0,-0.0294734,,3,3.0
Ag2InBa,0.0,-0.0342304,,3,3.0
O2BrI2,0.0,-0.0208996,,3,3.0
SiEu2,0.0,-0.0396132,,3,3.0
MgSc5,0.0,-0.0126935,,3,3.0
NiCu7,0.0,-0.0153102,,3,3.0
Mg2ScSr,0.0,-0.0116183,,3,3.0
O6NaTi2Tb,2.7914,-0.0153791,,3,3.0
Ru2TmU,0.0,-0.0566678,,3,3.0
LiS2ZnCs,3.2735,-0.0159153,,3,3.0
Sn3Tb3Pt2,0.0,-0.0496788,,3,3.0
Co3RuEr2,0.0,-0.0314204,,3,3.0
SiMnU,0.0,-0.0442772,,3,3.0
Y3Ag4,0.0,-0.0301783,,3,3.0
Li2ScAg2,0.0,-0.01652,,3,3.0
SPdI2,0.8116,-0.0291292,,3,3.0
O6Ba2PtPu,0.0,-0.0321512,,3,3.0
Rh2DyEr,0.0,-0.0424575,,3,3.0
ScZn4Os,0.0,-0.0236862,,3,3.0
AuU,0.0,-0.0865798,,3,3.0
CITh,0.0,-0.0484953,,3,3.0
Li2O7Ti2Ce,1.2796,-0.0135578,,3,3.0
N2Mg2Co,0.0,-0.009708,,3,3.0
BCuPt2,0.0,-0.0409256,,3,3.0
O2AgPb,0.3484,-0.0305651,,3,3.0
LiPRh,0.0,-0.0163341,,3,3.0
P2Fe2Pr,0.0,-0.0209818,,3,3.0
SnBi3,0.0,-0.0677057,,3,3.0
F6K2Ti,5.3244,-0.0094603,,3,3.0
BN3La3,0.0,-0.0248946,,3,3.0
MnI6Cs2,0.0,-0.0359540999999999,,3,3.0
ClGeI,2.7523,-0.0217774999999999,,3,3.0
SnErHg,0.0,-0.0520785,,3,3.0
BeCrRu2,0.0,-0.0233582,,3,3.0
Ni3W,0.0,-0.0296180999999999,,3,3.0
KRb2Sb,0.5732,-0.0222490999999999,,3,3.0
Cd2PrAu,0.0,-0.0439592,,3,3.0
OClNp,0.0,-0.0429309,,3,3.0
PSe2Hf2,0.0,-0.0366108,,3,3.0
S2Se2Te2W3,0.0366,-0.0385148,,3,3.0
TcRhIr,0.0,-0.0468274,,3,3.0
Cl4FeTl2,0.519,-0.0287703999999999,,3,3.0
BeSiSc2,0.0,-0.0112452,,3,3.0
Mg2PdCd,0.0,-0.0187659,,3,3.0
ZnMo3,0.0,-0.02952,,3,3.0
O6Ba2TbHf,0.0,-0.0259263,,3,3.0
F6YCe,0.0,-0.0159201,,3,3.0
As2TbIr2,0.0,-0.0467620999999999,,3,3.0
AgDyPt2,0.0,-0.0557716,,3,3.0
ClI,1.5999,-0.0225153999999999,,3,3.0
F4Pb,2.4935,-0.0198665,,3,3.0
B2N3Y3Pd2,0.0,-0.0205718,,3,3.0
GaTm2Pt2,0.0,-0.0534314,,3,3.0
O6AlSr2W,0.0,-0.0189297,,3,3.0
Al2RhAu,0.0,-0.0304933,,3,3.0
CrTc2,0.0,-0.0294364999999999,,3,3.0
O6ScBa2U,1.6266,-0.0269716999999999,,3,3.0
NMgSr3,0.0,-0.0165807,,3,3.0
FeSe3RbNd,0.0,-0.0251977,,3,3.0
MgSi2Nd,0.0,-0.0177036,,3,3.0
RhSn5La,0.0,-0.0371253999999999,,3,3.0
Ga6BaAu,0.0,-0.0263054,,3,3.0
NaS3CuSn,0.0,-0.0146171,,3,3.0
Li2F6Th,7.7271,-0.0173398,,3,3.0
H6KRb2Rh,3.5042,-0.0108542,,3,3.0
Al5Sc2Zr,0.0,-0.0127219,,3,3.0
Mg2Sb2Pr,0.0,-0.0262867,,3,3.0
Fe6As4Dy,0.0,-0.0218927,,3,3.0
Rh2LaPb,0.0,-0.0471845,,3,3.0
Ge2Rh2Pu,0.0,-0.0438885,,3,3.0
BeP2K4,1.5808,-0.0088671,,3,3.0
As2ZrLa,0.0,-0.0300435,,3,3.0
O7ScGe2Eu,0.1924,-0.0162092,,3,3.0
S8AgIn5,0.4636,-0.0203198,,3,3.0
Ca2Ir3,0.0,-0.0470524,,3,3.0
Cl6K2Ba,2.8071,-0.0134132,,3,3.0
H4Rh3Tm,0.0,-0.0212369,,3,3.0
MgRu2Pa,0.0,-0.0440481,,3,3.0
Cl3AgSn,3.0775,-0.0190646999999999,,3,3.0
F3GaCd,3.518,-0.0136259,,3,3.0
F4BrRb,3.8201,-0.0106992999999999,,3,3.0
S4SrAg2Tl,0.0,-0.025182,,3,3.0
Sr2InAu,0.0,-0.0374903,,3,3.0
FeZrPt2,0.0,-0.0482415999999999,,3,3.0
AlIn5Ce,0.0,-0.0315819,,3,3.0
Na2RbSb,1.3194,-0.0171014,,3,3.0
PCl2Ir,2.8299,-0.025179,,3,3.0
P2Rh2Ce,0.0,-0.0278201,,3,3.0
Tb2Hg,0.0,-0.054344,,3,3.0
MgTm2Tl,0.0,-0.0455593,,3,3.0
ZrPdIn,0.0,-0.0330178,,3,3.0
H11Ce4,0.0,-0.0150305,,3,3.0
O5Ba2Er2,2.3758,-0.0268155,,3,3.0
MnCoZn,0.0,-0.0162579,,3,3.0
Co2As2Rb,0.0,-0.0195305,,3,3.0
Al5NiSm,0.0,-0.0146732999999999,,3,3.0
CeNdAu2,0.0,-0.0574898,,3,3.0
Al7Au,0.0,-0.0155837,,3,3.0
Cl3InNd3,0.0,-0.0285127,,3,3.0
Mn3Y2,0.0,-0.0220627,,3,3.0
Co2Sn3Dy3,0.0,-0.0362310999999999,,3,3.0
RhSnEr,0.0,-0.041042,,3,3.0
Si2MoRe,0.0,-0.0318702,,3,3.0
CaCuIn,0.0,-0.0197701,,3,3.0
Si6Sr,0.0,-0.0118214,,3,3.0
Zn4ZrTa,0.0,-0.0254589,,3,3.0
Zn4YRh,0.7025,-0.0198396,,3,3.0
B2CRh2Ce,0.0,-0.0235755,,3,3.0
Si3Fe2Lu3,0.0,-0.0296917,,3,3.0
Li3O8V4Mn,0.0,-0.011486,,3,3.0
B2O6K2Dy,0.0,-0.0132941,,3,3.0