formula,bg,formation_energy,mp-id,fidelity,bg_category
MnGeNp,0.0,-0.0483544,,3,3.0
LiGa4Sr,0.0,-0.0154706,,3,3.0
AlHfPt2,0.0,-0.0539712,,3,3.0
O6NiRuBa2,0.0,-0.0187523,,3,3.0
ScGeGd,0.0,-0.0315376,,3,3.0
AsPdEu,0.0,-0.0366996,,3,3.0
Al3NiU2,0.0,-0.041322,,3,3.0
FeGa3Tm2,0.0,-0.0290218,,3,3.0
LiNi2As2Tm,0.0,-0.0220179,,3,3.0
Al11Pr3,0.0,-0.0157806,,3,3.0
Se3NbCs2,0.2853,-0.029398,,3,3.0
Ca6Ga2Ru,0.0,-0.0141328,,3,3.0
CuGa2Pa,0.0,-0.0371191,,3,3.0
MgRuTm,0.0,-0.030856,,3,3.0
O6MnTaPb2,0.8341,-0.0294633,,3,3.0
Fe4Ni3,0.0,-0.0173405999999999,,3,3.0
O6MnSr2Er,0.0,-0.0179634,,3,3.0
S2AsMo2,0.0,-0.0224744,,3,3.0
N2Os,0.0,-0.029875,,3,3.0
MgScY2,0.0,-0.0187517,,3,3.0
ScAgSn,0.0,-0.0277507,,3,3.0
Cl2Y2Sb,0.0,-0.023631,,3,3.0
ClCoTm,0.0,-0.0269613,,3,3.0
LiO5FMn3,0.0,-0.0114532,,3,3.0
CCo3Ce,0.0,-0.0213092,,3,3.0
P2S7KTl,1.1423,-0.0158354,,3,3.0
Li2NiIn2,0.0,-0.0177737,,3,3.0
O8K3Zr,0.0,-0.0103627,,3,3.0
Ti4Cu2In5,0.0,-0.0239986,,3,3.0
Ru2SnTa,0.0,-0.0433915,,3,3.0
O6I2Ba,3.7068,-0.0178981,,3,3.0
NY3In,0.0,-0.026478,,3,3.0
As3Ba,0.0,-0.0257692,,3,3.0
Si2Ca2Ir,0.0,-0.0227849,,3,3.0
GeZr2,0.0,-0.0276603999999999,,3,3.0
Cl6K2AgCe,0.906,-0.0159938,,3,3.0
O4CaCr2,1.3436,-0.012972,,3,3.0
Be2As2Tl,0.0,-0.0243853,,3,3.0
O6Ca2MoTa,0.371,-0.018747,,3,3.0
NaAgSn2,0.0,-0.0270205,,3,3.0
O6AsSr2Tb,4.3532,-0.0177578,,3,3.0
CoIn2Sm6,0.0,-0.0392839,,3,3.0
CNSClPb,3.3511,-0.0228733,,3,3.0
TiCrGe,0.0,-0.0183508,,3,3.0
Ti2SrPt2,0.0,-0.0399331,,3,3.0
SiPd5Pb,0.0,-0.0361762999999999,,3,3.0
N2NbEu,0.0,-0.0274983,,3,3.0
O7Al3CaPr,4.8772,-0.0134479,,3,3.0
MgGaGd2,0.0,-0.0351092,,3,3.0
O9SrBi5,0.0685,-0.0327311,,3,3.0
BeSiPu,0.0,-0.0416956,,3,3.0
SiBrPr,0.0,-0.0256341,,3,3.0
N2SiBa,3.3214,-0.0184196999999999,,3,3.0
Al3Fe2Au,0.0,-0.0218569,,3,3.0
P2HgTl,0.0,-0.0402874,,3,3.0
MnNi2In,0.0,-0.0212352,,3,3.0
CeTbTl2,0.0,-0.0594515,,3,3.0
Ni2ZnRu,0.0,-0.0201846,,3,3.0
SnAu2Bi2,0.0,-0.0661966,,3,3.0
CNi2Ge2La2,0.0,-0.0244558,,3,3.0
Pd4Sn6Sm,0.0,-0.0360283999999999,,3,3.0
SiFe2La,0.0,-0.0226238,,3,3.0
RuRhEr2,0.0,-0.0431388,,3,3.0
RhPb2,0.0,-0.0618438,,3,3.0
Mg2Al3Fe,0.0,-0.0086834,,3,3.0
H6NaK2In,1.7474,-0.0076843,,3,3.0
NiPdTb2,0.0,-0.0362696,,3,3.0
O4Sb2ILu,1.2665,-0.0260212,,3,3.0
Cs2Hg2Pb,0.0,-0.057802,,3,3.0
Ni3Cu2Np,0.0,-0.0308762,,3,3.0
Al2GaTa,0.0,-0.0249599,,3,3.0
As2CdSn,0.0747,-0.0268227,,3,3.0
BeFe2Y,0.0,-0.0171377999999999,,3,3.0
LiZnPt2,0.0,-0.0397226,,3,3.0
Si2Ga3RhEr3,0.0,-0.0290848,,3,3.0
Al8Cu4Sm,0.0,-0.0132594999999999,,3,3.0
Nd2Au2Tl,0.0,-0.0605008,,3,3.0
CuBr6Cs2Tl,0.0,-0.0291326,,3,3.0
TiGaRuIr,0.2284,-0.0355336,,3,3.0
Sn3U,0.0,-0.0528476,,3,3.0
Mg2S8ScMn3,0.0,-0.0124596,,3,3.0
SrYRh2,0.0,-0.0299592,,3,3.0
LiMgCd,0.0,-0.0128569999999999,,3,3.0
Ca3PdBa,0.0,-0.0206055,,3,3.0
Be2TiMo2,0.0,-0.0191106,,3,3.0
AlRuTm,0.0,-0.0322125,,3,3.0
CoSnLa,0.0,-0.0326007,,3,3.0
Ca2Ag2La,0.0,-0.0252978,,3,3.0
Na2S3Sc,0.0,-0.0100982,,3,3.0
O4TmTa,4.4348,-0.0274755,,3,3.0
B7MnDy3,0.0,-0.0200867,,3,3.0
S2SeRb,0.0,-0.0152698,,3,3.0
Ca2Sb,0.0902,-0.0198294,,3,3.0
Ge2Sr2Hg,0.0,-0.0307126,,3,3.0
N2O5Y6,0.0,-0.0197237,,3,3.0
Si2TcOs,0.0,-0.0322542,,3,3.0
Al5Pd2Sm,0.0,-0.0194179999999999,,3,3.0
O13Sb6,2.3639,-0.0174291,,3,3.0
Co4ZnNb,0.0,-0.0193208,,3,3.0
Ga3PdSn2Tm3,0.0,-0.0350991,,3,3.0
CeTl2Th,0.0,-0.0715798,,3,3.0
NbRhSb,0.0,-0.0352314,,3,3.0
F7KAs2,5.4268,-0.0097431,,3,3.0
HO5PTi,2.8299,-0.0101742,,3,3.0
AlLu2Tl,0.0,-0.0480721,,3,3.0
Pd3SnGd2,0.0,-0.0428054,,3,3.0
Al3Tb2Au,0.0,-0.0317518,,3,3.0
FeY2Ru2,0.0,-0.0289875,,3,3.0
NaGe2Ac,0.0,-0.0335163999999999,,3,3.0
Sn2PrPt,0.0,-0.0472988,,3,3.0
KZnSe3Dy,2.4556,-0.0232246999999999,,3,3.0
H3CoZr,0.0,-0.0121259,,3,3.0
O6Sr2PrBi,2.5157,-0.0229007,,3,3.0
O6Ca2MnSb,0.6261,-0.0137279,,3,3.0
CoNiHo2,0.0,-0.0331856,,3,3.0
Mo3Ta,0.0,-0.0429501,,3,3.0
Sn2Dy6Ir,0.0,-0.0485079,,3,3.0
K3As2Ag3,1.2903,-0.0203773,,3,3.0
B2Mg,0.0,-0.0067931,,3,3.0
AlMoOs,0.0,-0.0385856,,3,3.0
S2Ti6Cu,0.0,-0.0153056,,3,3.0
CaPdBi2,0.0,-0.050503,,3,3.0
Ga3Nb2Pt,0.0,-0.0315667,,3,3.0
O8Cs3La,0.0,-0.0186008,,3,3.0
O4ErNp,0.0,-0.0339222,,3,3.0
S4Ca2Sn,1.0195,-0.0149462,,3,3.0
Zr2ReAu,0.0,-0.0510268,,3,3.0
LiCe2Os,0.0,-0.0409574,,3,3.0
C3N6Tm2,2.7585,-0.0182193,,3,3.0
KIn6Au4,0.0,-0.0444812,,3,3.0
N2HoLu,0.3739,-0.0328541,,3,3.0
MgPdSm,0.0,-0.0281548,,3,3.0
MgPd2Pr3,0.0,-0.033972,,3,3.0
HOClSr,5.6419,-0.0123108,,3,3.0
MgSc2Ag,0.0,-0.0164085,,3,3.0
Si3CuCe,0.0,-0.0183359,,3,3.0
Be2AlMn,0.0,-0.0088989,,3,3.0
Hf2Ir,0.0,-0.0664398,,3,3.0
Ti2Co2Sn,0.0,-0.0208689,,3,3.0
HScLa3,0.0,-0.0295517,,3,3.0
Co5Mo,0.0,-0.0200401999999999,,3,3.0
O4Sr2Nb,0.0,-0.0176444,,3,3.0
Cl6SbCs2Tl,1.4921,-0.024824,,3,3.0
Al5Ta,0.0,-0.0176917,,3,3.0
Li4O8Mn3Ni,0.0,-0.0102721,,3,3.0
Se3Y4In,0.0,-0.0273116,,3,3.0
Al2Ni4Ho3,0.0,-0.0258593,,3,3.0
NiTbPb,0.0,-0.04679,,3,3.0
Ga3Ge2PdDy3,0.0,-0.0301453,,3,3.0
Zn3Th2,0.0,-0.0467145,,3,3.0
NaKSe2Cd,1.4034,-0.0176844,,3,3.0
TiGa5Ru,0.0,-0.0193537,,3,3.0
OClCs3,1.2335,-0.0270463,,3,3.0
RhSn5Sm,0.0,-0.0372327,,3,3.0
Fe2Ge2Pu,0.0,-0.0370512999999999,,3,3.0
Li2Cl3K,6.0939,-0.0082398,,3,3.0
LiO6CuNb2,1.0997,-0.0144616,,3,3.0
PI2Nd2,0.0,-0.0359182,,3,3.0
Mn3Au5,0.0,-0.0504429,,3,3.0
Al4SrLa,0.0,-0.0164538,,3,3.0
I4Ta,0.6021,-0.0431164,,3,3.0
Br6Rb2Bi,0.0,-0.0274867,,3,3.0
Mg3Co2Nd4,0.0,-0.0249498,,3,3.0
NiEr3Ir2,0.0,-0.0524514,,3,3.0
CuBaPt,0.0,-0.0421621,,3,3.0
CuZnAg,0.0,-0.0200253,,3,3.0
Ti3Ga2,0.0,-0.0166494,,3,3.0
RhTh,0.0,-0.0658858,,3,3.0
Ca3SrPd,0.0,-0.0171549,,3,3.0
Al2FeTa6,0.0,-0.0482672,,3,3.0
S2Nb,0.0,-0.0185998,,3,3.0
NiZnEr,0.0,-0.0271804,,3,3.0
Si2KPt,0.0,-0.0251056,,3,3.0
Fe3Ir5,0.0,-0.0513519999999999,,3,3.0
RuSn2Tm6,0.0,-0.0470333,,3,3.0
O3SiRh,0.0,-0.0138338,,3,3.0
O4RbRh,0.6685,-0.0140004,,3,3.0
SSeSr2,2.6207,-0.0209507,,3,3.0
N2Na2Pa,0.0,-0.0264363,,3,3.0
O7Ge2Eu2,0.1719,-0.0195989,,3,3.0
CaPd2Ho,0.0,-0.0318962,,3,3.0
GaSe2Au,0.0858,-0.0317564,,3,3.0
ONbI4Tl,0.5879,-0.0379187,,3,3.0
Ga6RhSm,0.0,-0.022628,,3,3.0
O6SmTa2,0.0,-0.0270753,,3,3.0
Li4F10Mn3,2.7674,-0.0087933,,3,3.0
SeBr2Tb2,0.0,-0.0324269,,3,3.0
Al3Si2Dy3Ir,0.0,-0.0296096,,3,3.0
NGaEr,0.0,-0.0265535,,3,3.0
NiSe4In2,0.0,-0.0237701,,3,3.0
NbRuBi,0.7289,-0.0490750999999999,,3,3.0
TcRhPt2,0.0,-0.0524912,,3,3.0
ZrPd2,0.0,-0.0329416,,3,3.0
Se3SrAgTb,1.6255,-0.0284726,,3,3.0
CrFe3Ho2,0.0,-0.0284379,,3,3.0
Mg6Ir7,0.0,-0.04097,,3,3.0
Mg2AlPr,0.0,-0.0154848,,3,3.0
Al3Ge4Tb2,0.0,-0.0219452,,3,3.0
LiScPt,0.0,-0.0298281,,3,3.0
Mg2SiZn,0.0,-0.008451,,3,3.0
MgIn2Dy,0.0,-0.0303003999999999,,3,3.0
P2Cr2Tb,0.0,-0.0217577,,3,3.0
PSmPu,0.0,-0.0559475,,3,3.0
RbCd2Bi2,0.0,-0.0479949999999999,,3,3.0
OF5NaK2Zr,5.6629,-0.0108841,,3,3.0
NSc3Cu,0.0,-0.0144159,,3,3.0
Sb2Cs2Bi,0.0,-0.0461255999999999,,3,3.0
F6HgPa,0.8151,-0.0267198999999999,,3,3.0
Mg3Cu2,0.0,-0.0091326,,3,3.0
CoIn8Ho2,0.0,-0.0351345,,3,3.0
SPrBi,0.0,-0.045405,,3,3.0
Be2CaGe2,0.0,-0.0116268999999999,,3,3.0
Ni2GaEr2,0.0,-0.0305387999999999,,3,3.0
Si3TiNd,0.0,-0.0185728,,3,3.0
Al2Pt,0.0,-0.0297197999999999,,3,3.0
Ga6NdIr,0.0,-0.0271866999999999,,3,3.0
CrPt8,0.0,-0.0646235,,3,3.0
CSi2La2Os2,0.0,-0.0379013,,3,3.0
PBr3Eu3,0.0,-0.0347909,,3,3.0
Al2Si4Ba3,0.0,-0.0197516,,3,3.0
CMgLu2,0.0,-0.0318007,,3,3.0
ZnZr3Ru2,0.0,-0.0298612,,3,3.0
Mg2Ag3,0.0,-0.0210286,,3,3.0
Na5Ge2,0.0,-0.0085379,,3,3.0
H2MgY2,0.0,-0.0140577,,3,3.0
LiMgRhPb,0.0,-0.0296625,,3,3.0
LiP2Fe2Th,0.0,-0.0265952,,3,3.0
InGd2Hg,0.0,-0.0554352,,3,3.0
As2YTc,0.0,-0.0265265999999999,,3,3.0
MgCu2Tb2,0.0,-0.0260577,,3,3.0
ZrCd2Au,0.0,-0.0405323,,3,3.0
Mn2IrPt,0.0,-0.0450591999999999,,3,3.0
Co2CuY3,0.0,-0.0224376999999999,,3,3.0
AgInHg2,0.0,-0.0502161,,3,3.0
ZnAsHf2,0.0,-0.0404586,,3,3.0
ScIr3,0.0,-0.0576142,,3,3.0
N2MnTc,0.0,-0.0181633,,3,3.0
Fe2CdTb2,0.0,-0.0321184999999999,,3,3.0
CrOs3,0.0,-0.0585266,,3,3.0
Se2TlPu,0.0,-0.0567396,,3,3.0
Zn6Sr2Sn3,0.0,-0.0215574,,3,3.0
Ga2ErAc,0.0,-0.0439035,,3,3.0
Si2Mn2Sr,0.0,-0.0161684,,3,3.0
AlFeRu2,0.0,-0.0243619999999999,,3,3.0
Sc3CoLa,0.0,-0.0207238,,3,3.0
AsSeRu,0.8133,-0.0255263,,3,3.0
MgSe2IBi,1.9198,-0.0328803,,3,3.0
NCr3Re,0.0,-0.0272711,,3,3.0
SiCuAu2,0.0,-0.0408834999999999,,3,3.0
Zr2TcAu,0.0,-0.042073,,3,3.0
YIPt,0.8359,-0.0463324,,3,3.0
FeCo2Sm2,0.0,-0.0283296,,3,3.0
O6FePdLa2,0.0,-0.0199455999999999,,3,3.0
Sc2AsPb,0.0,-0.0321535,,3,3.0
Cu4InTb,0.0,-0.0238126,,3,3.0
CaCd2Sn2,0.0,-0.0287699,,3,3.0
O3HoBi,2.9961,-0.0317667,,3,3.0
O4IBi,2.4841,-0.0241469,,3,3.0
O3Na2Bi,0.0,-0.0190643,,3,3.0
PZr,0.0,-0.0220818,,3,3.0
GaSb2Dy6,0.0,-0.0427224,,3,3.0
CoSnTa,1.2161,-0.04024,,3,3.0
MgAl2Er3,0.0,-0.0288936,,3,3.0
Lu3Ir2Hg,0.0,-0.0637812,,3,3.0
O2PtHg,0.0,-0.0381537999999999,,3,3.0
GePd2Lu,0.0,-0.0359946,,3,3.0
Ni3Os,0.0,-0.0299837,,3,3.0
Se3RbZrAu,0.5526,-0.0313477,,3,3.0
Mn2SrPd3,0.0,-0.0267473999999999,,3,3.0
Li2PAu,0.0251,-0.0217891,,3,3.0
H12N6O6Mg,4.9763,-0.006357,,3,3.0
Al11La3,0.0,-0.0157515,,3,3.0
NiSn2Er,0.0,-0.0351145,,3,3.0
SiFeW,0.1643,-0.0328569,,3,3.0
OBrNp,0.0,-0.0465568,,3,3.0
Sc8Tl,0.0,-0.0207815,,3,3.0
N2CoBa2,0.0,-0.0235118,,3,3.0
B4Ca,0.0,-0.0083378999999999,,3,3.0
RuInSn,0.0,-0.0348382,,3,3.0
Ag2NdTl,0.0,-0.0449775,,3,3.0
Ga4ErTa2,0.0,-0.0360454999999999,,3,3.0
O2Sc2Pb,0.0,-0.0260695,,3,3.0
AsRbPt2,0.0,-0.0457157,,3,3.0
Si3Sb3Tb10,0.0,-0.0389463,,3,3.0
Ti2Ni,0.0,-0.0164054,,3,3.0
Ag2SnGd,0.0,-0.0397385,,3,3.0
LiP2Cu2Lu,0.0,-0.0190121,,3,3.0
Cl2GeEr2,0.0,-0.0289376,,3,3.0
Mg2P2Hg,0.0,-0.0202317,,3,3.0
Ru2CdHo2,0.0,-0.0399949,,3,3.0
F6ZnBi,0.0,-0.016337,,3,3.0
PYCe,0.0,-0.028797,,3,3.0
O6RuBa2Ho,0.7238,-0.0228025,,3,3.0
Rh2SnTa,0.0,-0.0429941,,3,3.0
O3PdTe,0.8535,-0.0185958,,3,3.0
SrBa2Au2,0.0,-0.0486746,,3,3.0
GaIrAc2,0.0,-0.0676033,,3,3.0
TiRu2Pt,0.0,-0.0395704,,3,3.0
CoNi2Zr3,0.0,-0.0240011,,3,3.0
CaSrIn4,0.0,-0.0280862,,3,3.0
Li5La,0.0,-0.0091068,,3,3.0
LiCoSe2Rb,0.2806,-0.0170982999999999,,3,3.0
TiMnOs2,0.0,-0.0450586,,3,3.0
ZnY2Zr,0.0,-0.0251324,,3,3.0
HBrLa,0.0,-0.0234477,,3,3.0
B2N3Zn2Sm3,0.0,-0.021451,,3,3.0
Cu2AsPt,0.0,-0.0303050999999999,,3,3.0
SrAg2Tl,0.0,-0.0395748999999999,,3,3.0
AgIn2Tm,0.0,-0.0378899,,3,3.0
OAlCe3,0.0,-0.0308892999999999,,3,3.0
S3TeTl2,1.1914,-0.0353881,,3,3.0
HK3Tl,0.0,-0.0202883,,3,3.0
CdSn3Ba,0.0,-0.0359503,,3,3.0
Li3O8P2Ni,0.0,-0.009006,,3,3.0
S7Sc5,0.0,-0.0136999999999999,,3,3.0
ZrPd2In,0.0,-0.0331873,,3,3.0
BCRhHo,0.0,-0.025731,,3,3.0
NCo3Pd,0.0,-0.0188245,,3,3.0
Al2CoSm,0.0,-0.0197912,,3,3.0
LiCu2SrSb2,0.0,-0.0221596,,3,3.0
NaAl4Gd,0.0,-0.0158932,,3,3.0
SiSe3In,1.2465,-0.0212902,,3,3.0
PPd5U,0.0,-0.0401577,,3,3.0
Au2Tl,0.0,-0.0702149,,3,3.0
Rh2SnLa,0.0,-0.0374151999999999,,3,3.0
Al3Pr2Pt,0.0,-0.030884,,3,3.0
Al3SiU2,0.0,-0.0402063,,3,3.0
LiMg2Cu2,0.0,-0.0086247,,3,3.0
KTe2Pr,1.4942,-0.0331499,,3,3.0
NiSb2Lu6,0.0,-0.0476381,,3,3.0
CdTb2,0.0,-0.0416228,,3,3.0
F6K2Tb,0.0,-0.012695,,3,3.0
AlAg2Pm,0.0,-0.0289834,,3,3.0
CuPd2Th,0.0,-0.0447856,,3,3.0
SeY2Te,0.0,-0.0299928,,3,3.0
C2Zr3Sn,0.0,-0.0256612,,3,3.0
B2Ru3Np,0.0,-0.0380953999999999,,3,3.0
H2Ti2Rh,0.0,-0.0152178,,3,3.0
S2SeSb2,0.4981,-0.0229670999999999,,3,3.0
FeGeW,0.3413,-0.0357343,,3,3.0
O6MnSnLa2,1.6421,-0.0206363,,3,3.0
AlFeGd,0.0,-0.0284482,,3,3.0
Y4Pt,0.0,-0.0369166,,3,3.0
NZr3Ag,0.0,-0.0275004999999999,,3,3.0
CuGaAg2,0.0,-0.0235057,,3,3.0
N3CaMo,1.1461,-0.0152594999999999,,3,3.0
RhErHg,0.0,-0.0514735,,3,3.0
OGeBa3,0.0,-0.0301997,,3,3.0
N6O12K3Co,3.0757,-0.0086858,,3,3.0
Ga2ErLu,0.0,-0.035251,,3,3.0
Na3CsBi,0.0,-0.0260535,,3,3.0
Al3CoZr2,0.0,-0.0175649,,3,3.0
ONaSr2,0.0,-0.0151933,,3,3.0
ZnRu2Pa,0.0,-0.0461223,,3,3.0
LiY3,0.0,-0.0214042999999999,,3,3.0
Hg2Tl2Pb,0.0,-0.0713043,,3,3.0
AlTaAu,0.0,-0.0481832,,3,3.0
Li2MgCa2,0.0,-0.0057991,,3,3.0
NiCu3Nd4,0.0,-0.0297572,,3,3.0
F6NaMnCs2,0.0,-0.0149103,,3,3.0
Ga2AgEr,0.0,-0.0291427,,3,3.0
MgS4CrIn,1.4341,-0.0147303,,3,3.0
Zn2YSm,0.0,-0.0252466,,3,3.0
S4GaBrBi2,1.8033,-0.0293985999999999,,3,3.0
ZnSb2Sm,0.0,-0.0337279,,3,3.0
CTb2Hg,0.0,-0.0434533,,3,3.0
Ga7Ag2Dy3,0.0,-0.0272433,,3,3.0
Se2RbEu,0.0,-0.0303263,,3,3.0
Ge2DyPt3,0.0,-0.0503082,,3,3.0
F6AlSc,7.4875,-0.0094295,,3,3.0
MgScZr2,0.0,-0.0201522,,3,3.0
Si3GeHo4,0.0,-0.0315116,,3,3.0
OSPa,0.0,-0.0413522,,3,3.0
Si3Sr2Ir,0.0,-0.0249066,,3,3.0
O6As4BrCs,3.5523,-0.0160646999999999,,3,3.0
Nd2Ir3,0.0,-0.0608951,,3,3.0
O8Mo2EuTl,0.4227,-0.0226952,,3,3.0
Be2Co2Nb,0.0,-0.0154099,,3,3.0
GaZrTc,0.0,-0.0279648,,3,3.0
ScNiSn2,0.0,-0.0260198,,3,3.0
LiO5PSb,0.0,-0.0121768,,3,3.0
SrPd3Pb2,0.0,-0.0458078,,3,3.0
Cs2Au2Hg,0.0,-0.0567706,,3,3.0
SiNiY,0.0,-0.0188588,,3,3.0
Se4Sm2Pb,2.0091,-0.0366366999999999,,3,3.0
C2IDy2,0.0,-0.031292,,3,3.0
FSeCs3,2.7048,-0.0292785,,3,3.0
H17C6NO2P2,4.9207,-0.0061852999999999,,3,3.0
AlTc,0.0,-0.0219118,,3,3.0
CdNdHg2,0.0,-0.0531375,,3,3.0
CTe2Ta2,0.0,-0.0440208,,3,3.0
S5SnLa2,0.0843,-0.0230339,,3,3.0
TiBr2Hg,0.0,-0.0315975,,3,3.0
SeBr2Ba2,3.5144,-0.0299455,,3,3.0
As2SrPd,0.0,-0.0247682,,3,3.0
Si2Tm,0.0,-0.0244252,,3,3.0
CrSe2Ag,0.7847,-0.0230696,,3,3.0
Fe2YIn,0.0,-0.0246507,,3,3.0
CaCu2La,0.0,-0.0209423,,3,3.0
Ru2GdEr,0.0,-0.0450756999999999,,3,3.0
Sc3ZnGa3Ge2,0.0,-0.0165648,,3,3.0
ZnRh2Sm,0.0,-0.0320035,,3,3.0
NiAsPa,0.0,-0.0461886,,3,3.0
Cu4CdIn,0.0,-0.0207645,,3,3.0
ScNiSn,0.0,-0.0228261,,3,3.0
Rh4CdLa,0.0,-0.0351436,,3,3.0
Ru2Lu3Pt,0.0,-0.0519578,,3,3.0
Mo6Ta,0.0,-0.039497,,3,3.0
NaBaTl2,0.0,-0.0475172,,3,3.0
H8CrZn2Eu,0.0,-0.0106632999999999,,3,3.0
CrZnPt2,0.0,-0.0436354,,3,3.0
Ca2Hg2Bi,0.0,-0.0475135,,3,3.0
F6NaAs,6.0726,-0.0082027,,3,3.0
RuSn2Lu6,0.0,-0.0493785,,3,3.0
H3PdHf,0.0,-0.0215573,,3,3.0
Si4La3Os4,0.0,-0.0422638,,3,3.0
CClCa,3.1727,-0.0106174,,3,3.0
Ru2TmTh,0.0,-0.0548914,,3,3.0
Se3InTb4,0.0,-0.0367319,,3,3.0
O8TiCo3,0.0,-0.011349,,3,3.0
Y2Pd2In,0.0,-0.0319186,,3,3.0
H2Ga2La,0.0,-0.0171186,,3,3.0
As2RhNp2,0.0,-0.0581430999999999,,3,3.0
ScMnI,0.0,-0.0236754,,3,3.0
Hf6AuBi2,0.0,-0.0672811,,3,3.0
MgAs2Pb,0.0699,-0.0305102,,3,3.0
Cd3EuPt2,0.0,-0.0480726,,3,3.0
KCs,0.0,-0.0230578,,3,3.0
CoSrTe3Cs,0.0,-0.0323578,,3,3.0
In2Hg,0.0,-0.0449825,,3,3.0
BGa2Ru2Dy,0.0,-0.0269568,,3,3.0
MgTbTl,0.0,-0.0419195,,3,3.0
CoGeNb,1.341,-0.0237475999999999,,3,3.0
KPdTe,0.0,-0.0268536,,3,3.0
Br4Pt,1.1335,-0.0298978,,3,3.0
F2Zn,4.0803,-0.0093645,,3,3.0
HCl2Gd,3.5266,-0.0215024,,3,3.0
AgCd4,0.0,-0.030606,,3,3.0
PTi,0.0,-0.0144514,,3,3.0
Ni5La,0.0,-0.0209057,,3,3.0
SClNi,0.0,-0.0118304,,3,3.0
Al3Si2Ca3Ni,0.0,-0.0102993,,3,3.0
AlCdCe,0.0,-0.0279264,,3,3.0
Ni2CdHo2,0.0,-0.0326133,,3,3.0
PPdSm,0.0,-0.0306024,,3,3.0
RhLu3,0.0,-0.0506016,,3,3.0
Al3Sn2OsPu3,0.0,-0.055525,,3,3.0
PSSc,0.0,-0.0129255,,3,3.0
AgHfHg2,0.0,-0.0576404,,3,3.0
Ag2SmTh,0.0,-0.0509156,,3,3.0
Cl6CuRb2La,2.6745,-0.0167703999999999,,3,3.0
Al4CoIn,0.0,-0.0138152,,3,3.0
Ni2Cu3Ho,0.0,-0.0214272,,3,3.0
LiMgSnAu,0.0,-0.0286612,,3,3.0
S3NiBa,0.0,-0.0180147,,3,3.0
Ni2TcOs,0.0,-0.0348018,,3,3.0
Zn7Mo,0.0,-0.0161994,,3,3.0
CdTaPt2,0.0,-0.0600002,,3,3.0
Al3In2Lu3Os,0.0,-0.0370493,,3,3.0
Mg3Ho,0.0,-0.0160367,,3,3.0
Li2Mg2Sn2Er,0.0,-0.020013,,3,3.0
SeNd,0.0,-0.0338877,,3,3.0
CaScRu4,0.0,-0.027336,,3,3.0
SbCsBa,1.4334,-0.0390855,,3,3.0
AlCa,0.0,-0.0089573,,3,3.0
S2AgSb,0.4763,-0.0221537,,3,3.0
Al2Nb2Hf,0.0,-0.0292528,,3,3.0
SnDy2Hg,0.0,-0.0506171,,3,3.0
O8S2KAg,1.2749,-0.01047,,3,3.0
Al2BrGd2,0.0,-0.0312992,,3,3.0
Ti3Ag2,0.0,-0.0221795,,3,3.0
Br3Th,0.0,-0.0403063,,3,3.0
H2O7SrI2,3.7526,-0.0133427,,3,3.0
P2Au,0.0,-0.0301019,,3,3.0
Li4N6Ge2Sr3,2.674,-0.0121085,,3,3.0
H2NiSnNd,0.0,-0.0211474,,3,3.0
S4TePu,0.0,-0.0316373,,3,3.0
Co2Ni3Nd,0.0,-0.0211945,,3,3.0
GeDyOs,0.0,-0.0469183,,3,3.0
ZrTe5,0.0467,-0.0367157,,3,3.0
H8Mg2MnLa,1.23,-0.0087242,,3,3.0
HCl2Ag,3.0658,-0.0131776,,3,3.0
N2Ce3,0.0,-0.0317673,,3,3.0
Al3S6Rh,1.4556,-0.0124997,,3,3.0
CaZnHg,0.0,-0.0309728999999999,,3,3.0
Ru2GdTh,0.0,-0.056481,,3,3.0
CSiFe2U,0.0,-0.0321871,,3,3.0
Cl6K3Ho,6.0784,-0.0145359,,3,3.0
O6CoPdPr2,0.0,-0.0197717,,3,3.0
SiMo3,0.0,-0.0289818,,3,3.0
SiTe3Tm4,0.0,-0.0423712,,3,3.0
Fe2Se3Ta,0.0,-0.0277051,,3,3.0
F6RbPu,0.0074,-0.0222287,,3,3.0
ScAg2Sm,0.0,-0.0306747,,3,3.0
Na2SiSe4Hg,1.9514,-0.0216343,,3,3.0
H3NdIr,0.0,-0.0257,,3,3.0
MgGd2Os,0.0,-0.0487459,,3,3.0
CaAg2Tl,0.0,-0.0364114,,3,3.0
NiPdAu2,0.0,-0.0468181,,3,3.0
OF5GaZrCs2,3.8359,-0.0177327,,3,3.0
AlNi4Gd,0.0,-0.0223809,,3,3.0
MgSiLa,0.0,-0.0199283,,3,3.0
BrLa3,0.0,-0.0379226,,3,3.0
F6PdSb,0.0,-0.0133643,,3,3.0
Zr2MoIn,0.0,-0.0327413,,3,3.0
Be5Pt3,0.0,-0.0298474,,3,3.0
Ga2Pd2Dy,0.0,-0.0300911,,3,3.0
O2SrEu,0.0,-0.0251121,,3,3.0
Ge2BaIr3,0.0,-0.0490264,,3,3.0
H2Ti2Ni,0.0,-0.0114857,,3,3.0
LiFeIr2,0.0,-0.0408858,,3,3.0
Sc2YAg,0.0,-0.022082,,3,3.0
TiGaRuOs,0.0,-0.0354011,,3,3.0
Ga3RuSn2Ho3,0.0,-0.0343644,,3,3.0
GaRhDy,0.0,-0.0336444,,3,3.0
F6ZnZr,6.7029,-0.0115952,,3,3.0
ScTcW2,0.0,-0.0472623999999999,,3,3.0
H3C3O6Nd,4.6064,-0.0109198,,3,3.0
Cl6K2Sc,0.0,-0.0106995,,3,3.0
Mg2BaPt3,0.0,-0.0442252,,3,3.0
MgGaLa,0.0,-0.0220363,,3,3.0
Cd2Sb4Ba3,0.0,-0.0373799,,3,3.0
H4NiSr,0.0,-0.0091206999999999,,3,3.0
Na2Sn,0.0,-0.0150047,,3,3.0
O4NaCaAs,4.0096,-0.0107108,,3,3.0
LiGaNd2,0.0,-0.0268206,,3,3.0
MnWPt2,0.0,-0.0576239,,3,3.0
FeZrI,0.0,-0.0290436,,3,3.0
MgZn2Hf2,0.0,-0.0316406,,3,3.0
ZnGaBa2,0.0,-0.0275074,,3,3.0
La2Au2Bi,0.0,-0.0616976999999999,,3,3.0
Ge2Cd2Tl,0.0,-0.0341729,,3,3.0
Li3Ni,0.0,-0.0057408,,3,3.0
O8Mo2CsHf,0.0,-0.0208834,,3,3.0
RhSbEu,0.0,-0.0424162,,3,3.0
N2CrBa,0.0,-0.0201258,,3,3.0
PZrPd5,0.0,-0.0300416999999999,,3,3.0
LiCl6K2Tm,5.7193,-0.0141899,,3,3.0
Co8Ni,0.0,-0.0171655,,3,3.0
As2Rh2Eu,0.0,-0.0332785,,3,3.0
NClY,1.7438,-0.0169862,,3,3.0
H8Mg2SrIr,0.0,-0.0113682,,3,3.0
Li2SiS4Sn,2.3444,-0.0121539,,3,3.0
Be2FeW2,0.0,-0.0333096,,3,3.0
N2ErPa,0.0,-0.0440053,,3,3.0
NZn2Hg,0.0,-0.0260245,,3,3.0
AlZnPt,0.0,-0.0312707,,3,3.0
CaIr,0.0,-0.040906,,3,3.0
CaSr2Ag2,0.0,-0.0236718,,3,3.0
Ni2ZnIr,0.0,-0.0293695,,3,3.0
FeNbRh2,0.0,-0.0301093,,3,3.0
O2NaSc,4.581,-0.0108746,,3,3.0
O4Sb2Eu,0.0,-0.0237263,,3,3.0
NaRb2Au,0.0,-0.0288658,,3,3.0
KZrPb2,0.0,-0.0479662999999999,,3,3.0
NEr3Hg,0.0,-0.0468344,,3,3.0
B7Dy3Re,0.0,-0.0249030999999999,,3,3.0
S3KCoNb,0.0,-0.015664,,3,3.0
Ti6RuSn2,0.0,-0.0229585,,3,3.0
YPm,0.0,-0.0358891,,3,3.0
ZnRuPr2,0.0,-0.0339942,,3,3.0
FeSe6Nb2,0.0,-0.0234657,,3,3.0
In6PrIr4,0.0,-0.0483604,,3,3.0
LiClAs2,1.3511,-0.0136184999999999,,3,3.0
MnFeZn2,0.0,-0.0159814,,3,3.0
O6Ba2TmIr,0.0,-0.0266068,,3,3.0
Sc4Fe2Tl5,0.0,-0.0416121,,3,3.0
BNIrTh,0.0,-0.0472388,,3,3.0
Al2Ni2Tb,0.0,-0.0195689,,3,3.0
MoTa2Re,0.0,-0.0601999,,3,3.0
CoSn2Tb6,0.0,-0.041545,,3,3.0
Br6AgCs2Nd,3.8085,-0.0284957,,3,3.0
Al4Nb2Ho,0.0,-0.0213581,,3,3.0
SeHgTl2,0.0,-0.0585109,,3,3.0
Al3PdOs2,0.0,-0.0340965,,3,3.0
ErLu3,0.0,-0.0540938,,3,3.0
Lu3Pb,0.0,-0.0608145,,3,3.0
P3Ge,0.0,-0.0125300999999999,,3,3.0
Be2Ge2Ce,0.0,-0.0186871,,3,3.0
Li4O8MnNi3,0.0,-0.0097358,,3,3.0
B2VNb2,0.0,-0.0204423,,3,3.0
Cl6CuRb2Dy,2.865,-0.0172341,,3,3.0
MgCoGa2,0.0,-0.0139407,,3,3.0
CaAsIr,0.0,-0.0345397,,3,3.0
O4ScCr,0.0,-0.0123393,,3,3.0
NSCa6Sn2,0.0,-0.0160354999999999,,3,3.0
AlPd2Eu2,0.0,-0.0369518,,3,3.0
SCl2Pr2,0.0,-0.0247636,,3,3.0
N2NdHo,0.1279,-0.0296026,,3,3.0
La2Ir2Tl,0.0,-0.0608003,,3,3.0
Ca3Ga8,0.0,-0.015052,,3,3.0
Si2RuIr,0.0,-0.0321702,,3,3.0
MgAlZn4,0.0,-0.0111914,,3,3.0
Si2Ga3Tm3Os,0.0,-0.0336697,,3,3.0
OTi,0.0,-0.0139463,,3,3.0
MgRhLu,0.0,-0.0321529,,3,3.0
CuAsPd2,0.0,-0.025483,,3,3.0
Si2Fe2Tb,0.0,-0.0211917,,3,3.0
NSc3In,0.0,-0.0183981,,3,3.0
CrOsIr2,0.0,-0.058357,,3,3.0
LiLaTl,0.0,-0.0397596,,3,3.0
SrCdIn,0.0,-0.0292294,,3,3.0
SiFe2Re,0.0,-0.0295101,,3,3.0
F6SrSn,5.908,-0.0131533,,3,3.0
Cu5Rh3,0.0,-0.0220756,,3,3.0
ClY2Ru,0.0,-0.02575,,3,3.0
O6Ca2RhPa,2.2273,-0.0217774,,3,3.0
Ge3RhEr,0.0,-0.0289787,,3,3.0
Sc2CoHg,0.0,-0.0290189,,3,3.0
TiMn2Te3,0.0,-0.0277357,,3,3.0
B2O6PrPb,0.0967,-0.0196319,,3,3.0
Sn3Tm,0.0,-0.0403561,,3,3.0
Ga3TcCs,0.0,-0.0245274,,3,3.0
B2TcW2,0.0,-0.038106,,3,3.0
Zr3Pt,0.0,-0.0413031,,3,3.0
Ti2CoGa3,0.0,-0.0169024,,3,3.0
P3Pm,0.0,-0.0191158999999999,,3,3.0
Mg2AlAu2,0.0,-0.0318536,,3,3.0
NaP2Cu2Ce,0.0,-0.017443,,3,3.0
MgDy3Os2,0.0,-0.0489932,,3,3.0
AlCaAg2,0.0,-0.0203436,,3,3.0
ScNiCd2,0.0,-0.0230939,,3,3.0
MgAlDy,0.0,-0.0205031,,3,3.0
N2PrTh,0.0,-0.0411532,,3,3.0
FeTe2Hf6,0.0,-0.0525161,,3,3.0
Al3NdPt2,0.0,-0.0357374,,3,3.0
C2CoNd,0.0,-0.0205639,,3,3.0
SePd5Hg,0.0,-0.0362393,,3,3.0
OSCuLa,1.9244,-0.0208226,,3,3.0
OAsIrU,0.0,-0.0518635,,3,3.0
O6K2TePr,0.0,-0.0154853,,3,3.0
Co2ZnDy2,0.0,-0.0289794,,3,3.0
ZnTcTm2,0.0,-0.0383384,,3,3.0
Ni2YEr,0.0,-0.0280981999999999,,3,3.0
BLuPt2,0.0,-0.0519916,,3,3.0
N2CoPa,0.0,-0.034589,,3,3.0