formula,bg,formation_energy,mp-id,fidelity,bg_category
CuPd2Hf,0.0,-0.0365510999999999,,3,3.0
SbPt3Tl2,0.0,-0.0657387,,3,3.0
Li7N4CuSr2,0.7479,-0.0086626,,3,3.0
P2Ru,0.7161,-0.0192342,,3,3.0
CdSnPu,0.0,-0.05896,,3,3.0
O2TbTl,1.8616,-0.035462,,3,3.0
AlSc2Zr,0.0,-0.0169743,,3,3.0
Na2KAu2,0.0,-0.0313895,,3,3.0
ClInBa2,0.0,-0.031409,,3,3.0
Ge2SrIr,0.0,-0.0335634,,3,3.0
Cl2AsGd2,0.0,-0.0328001999999999,,3,3.0
PScTa,0.0,-0.0314768,,3,3.0
Sc2ZrTc,0.0,-0.0237711,,3,3.0
Be2V2Os,0.0,-0.0235187,,3,3.0
LiTe2Nd,0.9091,-0.0315716,,3,3.0
AlHf2Re,0.0,-0.0514933,,3,3.0
PSe4Ag3,0.7648,-0.0232334,,3,3.0
LiNi2As2Lu,0.0,-0.0225871,,3,3.0
MnYIn5,0.0,-0.0307828,,3,3.0
H4Ti2Pt,0.0,-0.0170759,,3,3.0
Cu2In3Tb2,0.0,-0.0324423,,3,3.0
Br2NbI2,1.0519,-0.0298538,,3,3.0
SiSe4CdCs2,2.8327,-0.0255449,,3,3.0
AgCsBa3,0.0,-0.0375944,,3,3.0
NaHg2Pu,0.0,-0.0627403,,3,3.0
B2O6ZnBa2,4.3491,-0.015889,,3,3.0
AlCo2Re,0.0,-0.0285797,,3,3.0
Ga5CePt,0.0,-0.0287727,,3,3.0
H6RuBa2,2.2637,-0.0156173,,3,3.0
Al3PdNp2,0.0,-0.045318,,3,3.0
Cr4MoPt,0.0,-0.0298217,,3,3.0
OSCuPr,2.2876,-0.0207776,,3,3.0
PNiTl2,0.0,-0.0429455,,3,3.0
Ti2Ga4Ta,0.0,-0.0238334,,3,3.0
CaBr2Hg,3.7779,-0.030822,,3,3.0
Ga5RuHf,0.0,-0.0260525,,3,3.0
Li2Tl3,0.0,-0.0445725,,3,3.0
AsU,0.0,-0.0624332,,3,3.0
SiTiNi2,0.0,-0.0153447999999999,,3,3.0
LiInEu2,0.0,-0.0361163,,3,3.0
O2CrAg,1.3183,-0.0173160999999999,,3,3.0
MnNiSb,0.0,-0.0243543,,3,3.0
Al3PdSn2Sm3,0.0,-0.0298383,,3,3.0
Cl2SbTb2,0.0,-0.0311611,,3,3.0
F6CdPb,2.852,-0.0180359,,3,3.0
GeIr3U2,0.0,-0.0739017999999999,,3,3.0
Co2SnDy,0.0,-0.0298854,,3,3.0
Li6MgBr8,5.5829,-0.0133636,,3,3.0
Mg2CoTm,0.0,-0.0197871,,3,3.0
PdTe2Pr6,0.0,-0.0417205,,3,3.0
GeRh2Ac,0.0,-0.0451239,,3,3.0
Co2Sn5Lu4,0.0,-0.0401097,,3,3.0
FeSm,0.0,-0.0310504,,3,3.0
SiBaAu3,0.0,-0.0520987,,3,3.0
O2CoCu,1.2835,-0.0124594,,3,3.0
VSe4Rb3,1.4697,-0.0211888,,3,3.0
TiAsTc2,0.0,-0.0270948999999999,,3,3.0
S3TiCuPb,0.0,-0.0235038,,3,3.0
S3MnCuRb,0.0,-0.0147101,,3,3.0
Ti4Ni2Ga5,0.0,-0.0167345,,3,3.0
VZr6Bi2,0.0,-0.0401831,,3,3.0
H4AlRb,5.3515,-0.0073334,,3,3.0
B2CCu2Th,0.0,-0.025505,,3,3.0
Mg3In3Ir2,0.0,-0.0324768,,3,3.0
LiBeIr,0.0,-0.0263539,,3,3.0
NiInSb,0.0,-0.0291262,,3,3.0
CoBr4Tl2,0.6657,-0.0349239,,3,3.0
LiMgCl6K2,0.0,-0.0090202,,3,3.0
AlAg4,0.0,-0.0267191,,3,3.0
Ca2Cd2Tl,0.0,-0.0308754,,3,3.0
B2HoOs,0.0,-0.0346031,,3,3.0
Pd2Tl3,0.0,-0.0566682,,3,3.0
GaPrPt2,0.0,-0.0511195,,3,3.0
ZnSe2Hg,0.2936,-0.0309431,,3,3.0
OZnSbDy,0.3233,-0.0280488,,3,3.0
SeMoTe,0.5119,-0.0311986,,3,3.0
Cd2Cs2Hg,0.0,-0.0410081,,3,3.0
N2RbW,0.0,-0.0277922,,3,3.0
MgAgTh,0.0,-0.0442424,,3,3.0
RhSb2Ce,0.0,-0.0390972,,3,3.0
SiPm3,0.0,-0.0357935999999999,,3,3.0
Si4Co4Lu3,0.0,-0.0257008,,3,3.0
MgCl2Hg,2.351,-0.0238106,,3,3.0
CaEuPt2,0.0,-0.0519298,,3,3.0
HPd2Tl,0.0,-0.0354798,,3,3.0
Ge2PmTb,0.0,-0.0329415,,3,3.0
SrBa2Au,0.0,-0.0430878,,3,3.0
S3MnRbAg,0.0,-0.0172969,,3,3.0
MgZr8,0.0,-0.0277957,,3,3.0
O4STe,3.325,-0.0130937,,3,3.0
NTb3Hg,0.0,-0.0446421,,3,3.0
LiCl6Rb2In,3.5547,-0.014351,,3,3.0
SiCoSm,0.0,-0.0246019,,3,3.0
CaAsSn,0.0,-0.0227517,,3,3.0
K2Br6HgTl,0.0,-0.0284389,,3,3.0
TcIn,0.0,-0.0342793,,3,3.0
EuTmPb2,0.0,-0.0648947,,3,3.0
HBrPr,0.0,-0.0234774,,3,3.0
HCaZnSb,1.1326,-0.0165809,,3,3.0
LiRh2Sb2Tb,0.0,-0.0327412,,3,3.0
Sn2IPb2,0.0,-0.0521319,,3,3.0
B2CZn2Pa,0.0,-0.0254926,,3,3.0
O6FeBaLaBi,0.0,-0.0239523,,3,3.0
LaPmIr2,0.0,-0.0580129,,3,3.0
Ge2InLa2,0.0,-0.0324286,,3,3.0
F4Bi,1.064,-0.0204759,,3,3.0
RuHo6Tl2,0.0,-0.053072,,3,3.0
Lu2Au2Hg,0.0,-0.0644002,,3,3.0
PdI3,0.0,-0.0358706,,3,3.0
Ga2PrHo,0.0,-0.0318899,,3,3.0
Li2CaGa2,0.0,-0.009737,,3,3.0
KCaSe3Cd,0.0,-0.0193064,,3,3.0
AgCdHo,0.0,-0.0373104999999999,,3,3.0
ZnGaTh2,0.0,-0.0556889,,3,3.0
RhAgBa2,0.0,-0.0362465,,3,3.0
CoYIn5,0.0,-0.0306107,,3,3.0
PdBiU,0.0,-0.0718305,,3,3.0
MnTb6Bi2,0.0,-0.0511980999999999,,3,3.0
H5Li4Rh,0.0,-0.006477,,3,3.0
S4InTe,0.0,-0.018355,,3,3.0
MgY,0.0,-0.01653,,3,3.0
ScCdHg,0.0,-0.0380978,,3,3.0
N2MgZn2,0.6541,-0.010448,,3,3.0
O2CaHg,2.7056,-0.0244802,,3,3.0
Al3Ni2Pa3,0.0,-0.044655,,3,3.0
RhAgLa2,0.0,-0.038397,,3,3.0
NiZrPd2,0.0,-0.0287834,,3,3.0
MnNi4Er,0.0,-0.0226349,,3,3.0
O2KAg,1.0768,-0.0138679,,3,3.0
LiNiGaRh,0.0,-0.017544,,3,3.0
LiO2Nd,4.0965,-0.0176494,,3,3.0
Sc3Rh2Cd,0.0,-0.0243602,,3,3.0
SeCsAu,2.0527,-0.0432593,,3,3.0
AlCaSn,0.0,-0.0182533,,3,3.0
TcTa8,0.0,-0.0632177,,3,3.0
Gd3Pb,0.0,-0.0635819,,3,3.0
SeIn2I2,0.0,-0.0325207,,3,3.0
AsBr2Ce2,0.0,-0.0314758,,3,3.0
SiFeHf4,0.0,-0.0468487,,3,3.0
NiGa2,0.0,-0.0166426,,3,3.0
O6KNiI,1.9232,-0.0118801,,3,3.0
AsY2Tl,0.0,-0.0381941,,3,3.0
O12Y6Te,3.4149,-0.0181496,,3,3.0
HClCe,0.0,-0.0201218,,3,3.0
Na2CaSn2,0.0,-0.0183389999999999,,3,3.0
Al3Ge2La3Ir,0.0,-0.0300005,,3,3.0
N2Hf3,0.0,-0.0429661,,3,3.0
Zn2PrAu3,0.0,-0.0468680999999999,,3,3.0
BeNNa,1.6464,-0.0067383,,3,3.0
O6NiGeNd2,2.4878,-0.0187301,,3,3.0
Cu4GaNd,0.1174,-0.0203689,,3,3.0
CdAu2,0.0,-0.0564287,,3,3.0
F4RbSm,7.4826,-0.0171129,,3,3.0
MgSrBa2,0.0,-0.0265928,,3,3.0
Ni2CuLu2,0.0,-0.032148,,3,3.0
BeCuZn2,0.0,-0.0117176,,3,3.0
Cu3Pd,0.0,-0.0196888,,3,3.0
SiFeRh,0.0,-0.0212871,,3,3.0
Ge2YAu2,0.0,-0.0415409999999999,,3,3.0
S2TbTl,1.7574,-0.0362723999999999,,3,3.0
AlTiMnRh,0.0,-0.0197379,,3,3.0
Rh2GdTm,0.0,-0.0454979,,3,3.0
F6NaRb2Ce,1.2388,-0.0145987,,3,3.0
SiRu3La2,0.0,-0.0339067999999999,,3,3.0
O7Zr2Sm2,4.6788,-0.0213232,,3,3.0
SbTePb2,0.0,-0.056653,,3,3.0
ClCu3Se3Te,0.5282,-0.0191056,,3,3.0
O2Sc2Te,0.2649,-0.0186458,,3,3.0
Gd3Tl,0.0,-0.0625882,,3,3.0
Li4O5Np,1.767,-0.0173964,,3,3.0
B2Co2Hf,0.0,-0.0230793,,3,3.0
Zn2Pd3Sm,0.0,-0.029013,,3,3.0
Al3Si2Sm2,0.0,-0.0194416,,3,3.0
MnRh2Tb2,0.0,-0.0366726999999999,,3,3.0
Fe3Dy,0.0,-0.0255131,,3,3.0
AlPrIr,0.0,-0.0416946,,3,3.0
B2Co3Sm,0.0,-0.0189038,,3,3.0
CaCu2La2,0.0,-0.0253701,,3,3.0
Ga2Ir2Th,0.0,-0.0550522,,3,3.0
Y5La,0.0,-0.0303675999999999,,3,3.0
Ca3Ac,0.0,-0.0298003,,3,3.0
NaCl6Rb2Tb,5.7422,-0.016372,,3,3.0
SiNi2Tm2,0.0,-0.0299381999999999,,3,3.0
Al3Nb,0.0,-0.0144955,,3,3.0
GeRh3Dy2,0.0,-0.0370458,,3,3.0
O10Ti2NbCsNd2,2.01,-0.0190519,,3,3.0
Li2RuSn2,0.0,-0.0225340999999999,,3,3.0
S2Ti6Ni,0.0,-0.0155157,,3,3.0
H3FeNp,0.0,-0.0271151,,3,3.0
As2RhPa,0.0,-0.0443645,,3,3.0
LiMgKTe2,2.824,-0.0191946,,3,3.0
YLaIr4,0.0,-0.0601137999999999,,3,3.0
GaBrSr,0.0,-0.0207745,,3,3.0
PdIn8Sm2,0.0,-0.0358933,,3,3.0
Be2Zr2Rh,0.0,-0.0212797,,3,3.0
O6TiFeBi2,0.2282,-0.0246986999999999,,3,3.0
Zn2Ir3,0.0,-0.0481973,,3,3.0
SSeAgIn,0.4997,-0.0241066,,3,3.0
LiNiSe2,0.0,-0.0153649,,3,3.0
H2Zr2Hg,0.0,-0.0278241,,3,3.0
S4CrCuHf,0.2875,-0.0204158,,3,3.0
Cu2AsPd2,0.0,-0.0234151999999999,,3,3.0
MnNiSn,0.0,-0.0237122,,3,3.0
MnCoSe4,0.0,-0.0197965,,3,3.0
AsTc2Sb,0.0,-0.031904,,3,3.0
Al2CaAu2,0.0,-0.0335875,,3,3.0
CSi2Sc2Fe2,0.0,-0.0141988,,3,3.0
B2N3Mn2Nd3,0.0,-0.0221012999999999,,3,3.0
C2O6Cs2Ho,0.0,-0.018678,,3,3.0
F6ScCuCs2,2.2881,-0.0157308,,3,3.0
SrZrIr2,0.0,-0.0494458,,3,3.0
F6SiCd,5.8179,-0.0107101,,3,3.0
KCd5,0.0,-0.0268293,,3,3.0
K2Br6PdAg,0.0,-0.020757,,3,3.0
Be2MgAs2,0.7513,-0.0112357,,3,3.0
TiNiSe4,0.0,-0.019434,,3,3.0
Cr2In5Hf4,0.0,-0.0414713,,3,3.0
NiGa2U,0.0,-0.0383117,,3,3.0
CONd,3.2936,-0.0220669,,3,3.0
Mg2Si2Rh,0.0,-0.013278,,3,3.0
SnOs2U2,0.0,-0.0774867,,3,3.0
Ga3Ge2Nd3Os,0.0,-0.0329472,,3,3.0
B3Fe2,0.0,-0.0118392,,3,3.0
BeCo2W,0.0,-0.0272395,,3,3.0
CoAs2Ho6,0.0,-0.0397978,,3,3.0
PrIrBi2,0.0,-0.0683970999999999,,3,3.0
AlGe5Hf3,0.0,-0.0329011,,3,3.0
CdTmTl,0.0,-0.0519515,,3,3.0
O6CdBa2Pt,0.0,-0.0234391,,3,3.0
Li2AgHg2,0.0,-0.0347819,,3,3.0
ZnGa3Lu,0.0,-0.0239768,,3,3.0
Si3OsU,0.0,-0.0414209,,3,3.0
GeSrHg,0.0,-0.037162,,3,3.0
C2CoTm,0.0,-0.0227255,,3,3.0
CuSbAu,0.0,-0.0405716,,3,3.0
LiZnLa,0.0,-0.0198536,,3,3.0
Te2LaAu,0.3107,-0.0478322,,3,3.0
NiSeY2,0.0,-0.0241262,,3,3.0
Cl2AsTb2,0.0,-0.0280291,,3,3.0
Ga2TmAc,0.0,-0.0442705,,3,3.0
ZnAu2Hg,0.0,-0.0550835,,3,3.0
NaNi4Se4,0.0,-0.0169475,,3,3.0
LiMgSiPd,0.0,-0.0131027,,3,3.0
O3Na3Co,1.0147,-0.0084413,,3,3.0
NaAs2Au2,0.0,-0.0368006,,3,3.0
CaSnTm,0.0,-0.0330882,,3,3.0
Ni2Er,0.0,-0.0280695,,3,3.0
S6SnCs2Bi2,1.1992,-0.0303968999999999,,3,3.0
MgHo,0.0,-0.0270476999999999,,3,3.0
O4FeAs,1.9534,-0.0119545,,3,3.0
NiHo2Ir,0.0,-0.0471079,,3,3.0
H3LiPt,0.0,-0.0170028,,3,3.0
Cl4Br2Rb2Ir,0.0,-0.0216462,,3,3.0
Li4Al3,0.0,-0.0047855999999999,,3,3.0
Y3PdIr2,0.0,-0.0440803,,3,3.0
BCrMo,0.0,-0.0206079,,3,3.0
EuHgPb,0.0,-0.0664575,,3,3.0
P2Rh2Ho,0.0,-0.0286709,,3,3.0
O2F4Rb2Mo,3.8337,-0.0141988,,3,3.0
Al3Ge2Zr3Rh,0.0,-0.021672,,3,3.0
O9Sr2Nb5,0.0,-0.0193485,,3,3.0
B2PdPt2,0.0,-0.0378536,,3,3.0
O3AlFe,1.368,-0.0113929,,3,3.0
FeNd2Os2,0.0,-0.0499917999999999,,3,3.0
Pd2Cd3Sm,0.0,-0.0340409,,3,3.0
Fe4As3Rb,0.0,-0.0193828,,3,3.0
Mg5Ga2,0.0,-0.0083834,,3,3.0
GeRhHf,0.0,-0.0395206,,3,3.0
FK3Cd,0.0,-0.0129136,,3,3.0
Ni4Au,0.0,-0.0267038,,3,3.0
Si2LuIr,0.0,-0.0376127,,3,3.0
LiZn4Ag,0.0,-0.0148069,,3,3.0
RhHoTl,0.0,-0.0523871,,3,3.0
CuGeSe4In,0.8694,-0.0215497,,3,3.0
LiCo8,0.0,-0.0155668,,3,3.0
Si2CaAu,0.0,-0.025269,,3,3.0
CrAs2Cs2,0.0112,-0.0273980999999999,,3,3.0
O6Sr2RuLu,0.6538,-0.0200101,,3,3.0
Ca2SrRh2,0.0,-0.0220788,,3,3.0
Mg2S8TiLu3,0.2518,-0.0212179,,3,3.0
TiZrSn,0.0,-0.0281369,,3,3.0
Ni4Cu3,0.0,-0.0156471,,3,3.0
LiCu2Zr,0.0,-0.0159476,,3,3.0
Be2AlNi2,0.0,-0.0102851,,3,3.0
CCo2Sn2Ho2,0.0,-0.0310931,,3,3.0
Si2Ga3Y3Ru,0.0,-0.0216056,,3,3.0
V2MoW,0.0,-0.0350095,,3,3.0
F6NaKTh,7.7696,-0.0182206,,3,3.0
RuCdTb2,0.0,-0.0400764,,3,3.0
Al7Ca3Ni2,0.0,-0.0100624,,3,3.0
N7O2AlSi5Sr,3.9749,-0.0116455,,3,3.0
O2SiHg,1.8928,-0.0247308999999999,,3,3.0
Sn2SmPt,0.0,-0.0475034,,3,3.0
MgScY,0.0,-0.0157294,,3,3.0
P2ScCu2Rb,0.0,-0.0151271,,3,3.0
Ga2Os,0.8955,-0.0350948,,3,3.0
Co2BrTe2,0.0,-0.0258415,,3,3.0
Li2P2Pu,0.0,-0.0279732,,3,3.0
CuBrTb,0.0,-0.0282293,,3,3.0
AlP2Hf6,0.0,-0.0457032,,3,3.0
Te2CeTl,0.0,-0.0489606,,3,3.0
KYHg2,0.0,-0.0435934,,3,3.0
Mg2EuPt3,0.0,-0.0466498,,3,3.0
N2SrNp,0.0,-0.0380919,,3,3.0
SiDyIr,0.0,-0.0441801999999999,,3,3.0
Al3Si2Tb3Pt,0.0,-0.0291878,,3,3.0
As2Zr6Ir,0.0,-0.033832,,3,3.0
CrAs2Zr6,0.0,-0.0276387,,3,3.0
Al3CoGe2Zr3,0.0,-0.0197067,,3,3.0
LiO6Mn2Cu,0.1132,-0.0108872,,3,3.0
Be2As2La,0.0,-0.0191735,,3,3.0
O4NiTe,0.2375,-0.0142393,,3,3.0
FeHf2,0.0,-0.0479691,,3,3.0
O5TiCr2,0.8675,-0.0132921,,3,3.0
MgMnZn2,0.0,-0.0127563,,3,3.0
HOBrBa,5.0676,-0.0193298999999999,,3,3.0
LiO2KZn,2.8124,-0.0090665,,3,3.0
As2SnHg,0.087,-0.0361308,,3,3.0
S2Cu3,0.0,-0.0132181,,3,3.0
C8Cs,0.0,-0.0132536,,3,3.0
SiRu2Os,0.0,-0.038174,,3,3.0
F7Ca2Dy,7.4532,-0.0134143,,3,3.0
NKFe,0.0,-0.0119564,,3,3.0
LiNi2Ge2,0.0,-0.0149007,,3,3.0
Li2F8SrY,0.0,-0.0104482,,3,3.0
S5Zn2Tl2,0.0,-0.024815,,3,3.0
Cu2In2Pu,0.0,-0.0414603,,3,3.0
CuBr2Cs,2.3725,-0.0241092,,3,3.0
PK2Pt,0.0,-0.0249668,,3,3.0
GeNbTe,0.0,-0.0302216999999999,,3,3.0
SrBi,0.0,-0.051355,,3,3.0
Al2Pd2Eu,0.0,-0.0278738,,3,3.0
H2O14SiP4Ba,6.4768,-0.0109004,,3,3.0
Y2CdPt2,0.0,-0.0465129,,3,3.0
IrPb4,0.0,-0.0748009,,3,3.0
InSnLa2,0.0,-0.0396102,,3,3.0
ZnBr3Cs,3.7753,-0.0233275,,3,3.0
Si2GaTh2,0.0,-0.0462181,,3,3.0
AlCaHg2,0.0,-0.0389055,,3,3.0
CO7Na2SiSb,0.0,-0.0110861,,3,3.0
LiPdAu,0.0,-0.0352582,,3,3.0
O4FeSb,0.2283,-0.0149208999999999,,3,3.0
OCdLa3,0.0,-0.0346623,,3,3.0
O6CoSr2Y,0.0,-0.0152677,,3,3.0
Cu4CdAu,0.0,-0.0267494,,3,3.0
P2GeRb2,1.3879,-0.0167404,,3,3.0
Ca2Sb2Bi,0.0,-0.0352032,,3,3.0
Ni2GeRh,0.0,-0.0215921,,3,3.0
Si2FeRuPr2,0.0,-0.0272482,,3,3.0
H3PdU,0.0,-0.0295093999999999,,3,3.0
LiMg2Pt,0.0,-0.0214101,,3,3.0
AlCaNi2,0.0,-0.0128349,,3,3.0
Ge2PdTm,0.0,-0.0314746,,3,3.0
S4K2NiSn,0.6196,-0.0142531999999999,,3,3.0
Ni2Ga5Lu,0.0,-0.0216767,,3,3.0
CrGe2In3La3,0.0,-0.0324809,,3,3.0
YSbSm,0.0,-0.0374493999999999,,3,3.0
CdIn2Pt2,0.0,-0.0479676,,3,3.0
ClBr,2.1149,-0.0137761999999999,,3,3.0
PMoIr,0.0,-0.0393569999999999,,3,3.0
InAuBi,0.0,-0.0604793,,3,3.0
PmPb3,0.0,-0.0683015,,3,3.0
Cr4WIr,0.0,-0.0357573999999999,,3,3.0
ZnSnAu,0.0,-0.039773,,3,3.0
Mg2PdHo,0.0,-0.0235317,,3,3.0
MgRh2Sm2,0.0,-0.0330588,,3,3.0
NOCa6Ge2,0.0,-0.0124687,,3,3.0
Al3Si2Nd3Os,0.0,-0.0280316,,3,3.0
Cd2CsPb2,0.0,-0.0502511,,3,3.0
MgCdTh,0.0,-0.0439345,,3,3.0
CrSe4Rh3,0.0,-0.0253498,,3,3.0
B12CeSm,0.0,-0.0132760999999999,,3,3.0
O4PrNd,0.0,-0.0214728,,3,3.0
YRh2Hf2,0.0,-0.0449859,,3,3.0
H2Ni2Rh,0.0,-0.0145403,,3,3.0
Hf6OsBi2,0.0,-0.0675933,,3,3.0
AlCuZr2,0.0,-0.0214052,,3,3.0
CTm2,0.0,-0.0383882,,3,3.0
Sn2CeDy,0.0,-0.0417655,,3,3.0
B2Ru2Eu,0.0,-0.0280748,,3,3.0
MgRh8,0.0,-0.0306401,,3,3.0
Se2Eu,0.0,-0.0328078999999999,,3,3.0
GePd2In,0.0,-0.0299894,,3,3.0
B2O6ScRb2,0.0,-0.0124576,,3,3.0
TiAsRh,0.0,-0.0243655,,3,3.0
Be4MoRu,0.0,-0.0148985,,3,3.0
Mg3S8CuSn2,0.0,-0.0136628,,3,3.0
Br6Te2Pt,1.5632,-0.0293966999999999,,3,3.0
TiZrRh2,0.0,-0.0293977,,3,3.0
NiPd2Hg,0.0,-0.0375243,,3,3.0
Ge2HoAu2,0.0,-0.0457162,,3,3.0
MnNi2Th,0.0,-0.0370147,,3,3.0
Al4RuEu,0.0,-0.0204839,,3,3.0
FeGa5Er,0.0,-0.0218806,,3,3.0
SiOs,0.0,-0.0414099,,3,3.0
Cu3TbPt2,0.0,-0.0394159,,3,3.0
H4Rb2Eu,0.1542,-0.015931,,3,3.0
MnAsPa,0.0,-0.0467004,,3,3.0
BCNiHf,0.0,-0.0247844,,3,3.0
AlFeHf,0.0,-0.0299067,,3,3.0
Al3Er2Ir,0.0,-0.0334044,,3,3.0
Ag2CdPu,0.0,-0.0506348,,3,3.0
SYTe2,0.0,-0.0292878,,3,3.0
Co2AsTe,0.0,-0.0230855999999999,,3,3.0
LiDyPb,0.0,-0.0427077,,3,3.0
Ni2CuTm2,0.0,-0.0307173,,3,3.0
O8CaRbMo2,0.0,-0.0147347,,3,3.0
Li3O8F2P2VFe,0.0,-0.0096727,,3,3.0
Co4ZnHf,0.0,-0.0244116,,3,3.0
CaGa2Sm,0.0,-0.0222689999999999,,3,3.0
Li4O8MnCo2Ni,0.0359,-0.0099697,,3,3.0
Ga4InSb5,0.0001,-0.0286585,,3,3.0
PrTmBi,0.0,-0.0586639,,3,3.0
O8CaAgW2,0.0,-0.021349,,3,3.0
O6ZnSr2Sb,0.0,-0.0154484999999999,,3,3.0
LiO4SiMn,0.1537,-0.0105248,,3,3.0
Si2CuHo,0.0,-0.0216535,,3,3.0
Li2O8CrMn3,0.0,-0.0114673999999999,,3,3.0
O3FMn2,0.0,-0.012064,,3,3.0
Zr2Pd2Sn,0.0,-0.0333988,,3,3.0
Ga3RbIr,0.0,-0.0285325999999999,,3,3.0
Na2AsPd,0.0,-0.0158493,,3,3.0
Si4Ce3Os4,0.0201,-0.0426575,,3,3.0
Fe2As2Tb,0.0,-0.0252941,,3,3.0
Cr2Co,0.0,-0.0178377,,3,3.0
ZnSb2La6,0.0,-0.0392501,,3,3.0
Ca3Zn2As4Rh2,0.0,-0.0194117,,3,3.0
F4SnBa,3.8503,-0.0181928,,3,3.0
SiTe3Nd4,0.0,-0.0384474999999999,,3,3.0
Sc2CdOs,0.0,-0.0332865,,3,3.0
Li3O2F2Ni,0.7377,-0.0076696,,3,3.0
S4KCr2,0.1998,-0.0130176,,3,3.0
O6AsSr2Tm,4.2908,-0.0183213,,3,3.0
Cl6K3Y,6.0417,-0.0124347,,3,3.0
Li2SiSe4In,0.0,-0.0168993,,3,3.0
Ga2HoIr2,0.0,-0.0456391,,3,3.0
LiHg2Tl2,0.0,-0.0567915,,3,3.0
O6MgBa2Ir,0.1901,-0.0215472,,3,3.0
C2ILu2,0.0,-0.0342455,,3,3.0
F4CoSn,1.2754,-0.013364,,3,3.0
N2LaEr,0.4521,-0.0297732,,3,3.0
P4Fe2Sr,0.0,-0.0149118,,3,3.0
CuNd2Pt2,0.0,-0.0495727,,3,3.0
SiZnIr2,0.0,-0.0419671999999999,,3,3.0
O3Na2Ir,0.0,-0.0177512,,3,3.0
O2MgCu,0.0,-0.0099995999999999,,3,3.0
O3ScPr,3.3913,-0.018994,,3,3.0
Li2MgZn,0.0,-0.0059676,,3,3.0
H2ZnSbCs,1.0312,-0.0193332,,3,3.0
S3KAgTm,0.0,-0.0213948,,3,3.0
BCo6Sn2,0.0,-0.0202385,,3,3.0
H2Zr2Re,0.0,-0.0284295,,3,3.0
OsBi2Th6,0.0,-0.0898680999999999,,3,3.0
Ti4As3,0.0,-0.0187911,,3,3.0
O6NaBa2W,0.0,-0.0215847,,3,3.0
O6Zr2Hg,1.1555,-0.0209771,,3,3.0
BRh6Cd2,0.0,-0.0302677,,3,3.0
CuTb2Tl,0.0,-0.0456593999999999,,3,3.0
Be2TiIr,0.0,-0.024677,,3,3.0
AsInBa,0.6837,-0.0318726,,3,3.0
S2KSc,2.081,-0.0124863,,3,3.0
Na2Se2Pt,1.2195,-0.0247218,,3,3.0
Zr3Cd5,0.0,-0.0306751,,3,3.0
NIPr2,0.0,-0.0345663,,3,3.0
O6MgSi2V,0.9331,-0.0108915,,3,3.0
KAg2Cd2,0.0,-0.0264313,,3,3.0
GdPt2,0.0,-0.067641,,3,3.0
Al5NiZr2,0.0,-0.015104,,3,3.0
SbTmIr,0.0,-0.0544701999999999,,3,3.0
CCo2Ge2Nd2,0.0,-0.0248876,,3,3.0
ScEr5,0.0,-0.0443175,,3,3.0
O6CrMnPr2,0.3935,-0.019164,,3,3.0
KSe3HfAu,0.6393,-0.0345649,,3,3.0
AlNbRuRh,0.0,-0.0281233,,3,3.0
O7Ge2SrHo,0.7508,-0.0163660999999999,,3,3.0
Ni2Y3Hg,0.0,-0.0311607,,3,3.0
Fe4ZrCd,0.0,-0.0223390999999999,,3,3.0
Li3CuSe2,2.2645,-0.0114746,,3,3.0
Al5PrPt,0.0,-0.0224639999999999,,3,3.0
Rh2Sn2Au,0.0,-0.0420185,,3,3.0
Si2Co2Pt,0.0,-0.0254201,,3,3.0
Al2TbLu,0.0,-0.0298071,,3,3.0
Ga2SmPt2,0.0,-0.0446644,,3,3.0
BeAl7,0.0,-0.0072567,,3,3.0
MgPr2Ir2,0.0,-0.0475003,,3,3.0
NiPd2,0.0,-0.0272704,,3,3.0
BeSc2Zr,0.0,-0.0158825,,3,3.0
Ga2Rh2La,0.0,-0.029619,,3,3.0
O2F2Mn3,0.4969,-0.0128943999999999,,3,3.0
RuSn2Ho,0.0,-0.0395018,,3,3.0
B2O6NdPb,0.1146,-0.0196683,,3,3.0
Cu3Pt,0.0,-0.0291111,,3,3.0
O6Sr2GdBi,1.8661,-0.0245018,,3,3.0
NaPd2Sn,0.0,-0.0268278,,3,3.0
Li2AlAg,0.0,-0.0112604,,3,3.0
CoSe6Zr3,0.0,-0.0242984,,3,3.0
Mg2GaPt2,0.0,-0.0342979,,3,3.0
Cu3Zn2Tb,0.0,-0.0201743,,3,3.0
Ni2Zr2Rh,0.0,-0.0261163999999999,,3,3.0
O4RuTa,0.0,-0.0232559,,3,3.0
As3Tc2,0.0,-0.0264899,,3,3.0
NiZrIn2,0.0,-0.0287627,,3,3.0
CoSbEr2,0.0,-0.0394237,,3,3.0
MgCo4La,0.0,-0.0194649,,3,3.0
O6MgMnEr2,2.622,-0.0193823,,3,3.0
Zr3Ru,0.0,-0.0320968,,3,3.0
LiMgGa2,0.0,-0.0102614,,3,3.0
Ag2SmTm,0.0,-0.0401203999999999,,3,3.0
H2O3Cd2,1.1163,-0.0134894,,3,3.0
Li2F8CaSr,0.0,-0.0084503,,3,3.0
O6Ca2CuIr,0.1192,-0.0161056999999999,,3,3.0
Zn4Se5Cd,1.3247,-0.019243,,3,3.0
Ni2CuSr,0.0,-0.0174869,,3,3.0
B6Co2Pr5,0.0,-0.0231629,,3,3.0
Al3Sc3Ge2Os,0.0,-0.0204141,,3,3.0
KAg4Ba,0.0,-0.0289407,,3,3.0
F6GdLu,6.4365,-0.0212149,,3,3.0
BNb2Rh6,0.0,-0.0312871,,3,3.0
LuW2,0.0,-0.0648354999999999,,3,3.0
O4ZnGa2,3.0647,-0.0121497,,3,3.0
Zn3Ag2Th,0.0,-0.0334082,,3,3.0
O3SrPt,1.5396,-0.0240036,,3,3.0
O3Ca2Fe,0.0,-0.0119388,,3,3.0
H2SiFe2,0.0,-0.0106485,,3,3.0
Se3YCsHg,1.7156,-0.0337738999999999,,3,3.0
Li2Ge2Rh,0.0,-0.0157594,,3,3.0
Ge2In3Nd3Au,0.0,-0.0383704,,3,3.0
HRh,0.0,-0.0185579,,3,3.0
B2Ni7Tm3,0.0,-0.0242139,,3,3.0
GaRhDy2,0.0,-0.0372269,,3,3.0
Ca2Ga2Ba,0.0,-0.0186341,,3,3.0
Cl2BrPr,4.3942,-0.0221319,,3,3.0
O2Cl2LaGd,4.332,-0.0251331,,3,3.0
Al4MnLu,0.0,-0.0178247,,3,3.0
CuRu2Hf3,0.0,-0.0461722,,3,3.0
Al3CuGe2Eu3,0.0,-0.0269599,,3,3.0
Sb2TbAu,0.0,-0.0483527,,3,3.0
F8CaNp2,1.1689,-0.0266716,,3,3.0
O6TiPr2Pt,2.238,-0.023977,,3,3.0
LiGaPb2,0.0,-0.0426543,,3,3.0
TiCu2Hg,0.0,-0.0287189,,3,3.0
Cl6K2CuTb,2.8147,-0.0146054999999999,,3,3.0
MgSi4Ru,0.0,-0.0135374,,3,3.0
Se3Cs2Lu,0.0,-0.0334427,,3,3.0
H6Ca2Ni,0.0,-0.0067583,,3,3.0
Al3CaAg,0.0,-0.0131906,,3,3.0
Ca2Rh2Tl,0.0,-0.0323397999999999,,3,3.0
S3MnZnCs,0.0,-0.0174701999999999,,3,3.0
O2Zn3Sb2Ba2,0.0,-0.0242363,,3,3.0
Al5GaBa5,0.0,-0.0232657,,3,3.0
LiZn2Ge2,0.0,-0.0136248,,3,3.0
Co3GeHo2,0.0,-0.028498,,3,3.0
In2PbBi,0.0,-0.0551822,,3,3.0
ZnGa2Br8,3.5833,-0.019218,,3,3.0
K3Sr,0.0,-0.0117666,,3,3.0
CdPbAc2,0.0,-0.0723478,,3,3.0
DyPtTl,0.0,-0.0644244,,3,3.0
MnEr6Tl2,0.0,-0.0519602999999999,,3,3.0
C2Cl5Pr4,0.0,-0.0230435,,3,3.0
Al3Ge2RuHf3,0.0,-0.0322691,,3,3.0
LiScIn,0.0,-0.0170815,,3,3.0
Pd2Hf2Hg,0.0,-0.0524568,,3,3.0
F6CoRb2Cs,2.9583,-0.0145084,,3,3.0
BNFeEr,0.0,-0.0224984,,3,3.0
S3Cr2Rb,0.0,-0.0153072,,3,3.0
Si2ErIr,0.0,-0.0364004,,3,3.0
CdSnTl2,0.0,-0.0526437,,3,3.0
HCaBr,4.3958,-0.0123606999999999,,3,3.0
PCsHo,0.0,-0.0332823,,3,3.0
Mg6Ge3Nd2,0.0,-0.0162596,,3,3.0
H5Ca2Cu,0.8337,-0.0069017,,3,3.0
CMgTi3,0.0,-0.0130142,,3,3.0
Al5Ni2Lu,0.0,-0.0164095,,3,3.0
NaSe3La2,0.0,-0.0271653,,3,3.0
Na2BaPb2,0.0,-0.0403896,,3,3.0
O2KV,0.0,-0.011798,,3,3.0
Si4FeAs4,1.228,-0.0155436,,3,3.0
GeAgEu2,0.0,-0.039977,,3,3.0
Ru2Dy3Au,0.0,-0.0477386,,3,3.0
Be2Ta2W,0.0,-0.0425356999999999,,3,3.0
Zn2As2Cd,0.0,-0.0196889,,3,3.0
Al4Pr,0.0,-0.0152047,,3,3.0
Al3CuSn2Dy3,0.0,-0.0288283999999999,,3,3.0
O3NaCl,5.6074,-0.0069251,,3,3.0
Ni5Gd,0.0,-0.0235438,,3,3.0
Ge2LaPt,0.0,-0.0390016,,3,3.0
Ca2GaCd,0.0,-0.0169858,,3,3.0
NiCd2Tm,0.0,-0.0325439,,3,3.0
Li2NaTl2,0.0,-0.0310171999999999,,3,3.0
O8CaMo2Tl,0.0,-0.0189117,,3,3.0
OBr2Os,0.0,-0.0297625,,3,3.0
Se2CsDy,2.1507,-0.0334041,,3,3.0
O4NbHo,3.8423,-0.0212397,,3,3.0
Nb4Pd,0.0,-0.0331976,,3,3.0
Se2AgEr,1.3108,-0.0318221,,3,3.0
B12Lu,0.0,-0.0114123,,3,3.0
KTi2As2,0.0,-0.0169341,,3,3.0
MgZr2Tc,0.0,-0.025611,,3,3.0
Mg2YTl,0.0,-0.0279073,,3,3.0
K3Ge4Au4,0.0,-0.0347042,,3,3.0
PCl6Rb2,0.0,-0.0124216,,3,3.0
Al2Zn2In,0.0,-0.0151242,,3,3.0
O3PdTm,0.3856,-0.0229102999999999,,3,3.0
Mg2Ge2La,0.0,-0.018872,,3,3.0
Ga2Ta3,0.0,-0.0468501,,3,3.0
Li4MgBa,0.0,-0.0090198,,3,3.0
La3Er,0.0,-0.0448933,,3,3.0
SiPd2U,0.0,-0.0452145,,3,3.0
MnGa5Pr,0.0,-0.0208922,,3,3.0
AlGeDy,0.0,-0.025595,,3,3.0
Fe2Ce2Pb,0.0,-0.0402776,,3,3.0
S3NiRb2,0.1782,-0.0152109,,3,3.0
Al4FeU,0.0,-0.0256549,,3,3.0
Cu2As2RbPu,0.0,-0.0340904,,3,3.0
Be2SeAu,0.0,-0.0247919,,3,3.0
CoIn2Tb,0.0,-0.0330227,,3,3.0
O4NaMn2,0.0,-0.0115099,,3,3.0
Li5S4Cl2As,2.1415,-0.0085164,,3,3.0
GeSr,0.0,-0.0213698,,3,3.0
Si2Pt2Th,0.0,-0.0525619,,3,3.0
Ni3Ir5,0.0,-0.0504242,,3,3.0
LaNdTl2,0.0,-0.0584741,,3,3.0
Ge3PdBa2,0.0,-0.028912,,3,3.0
HFe2,0.0,-0.0130189,,3,3.0
NaCl6Rb2Sm,5.6584,-0.016127,,3,3.0
Ge3RhDy,0.0,-0.0285092,,3,3.0
O4SbPr,2.7147,-0.0201021,,3,3.0
Ag2SbTe,0.0,-0.0342752,,3,3.0
LiPt,0.0,-0.036997,,3,3.0