formula,bg,formation_energy,mp-id,fidelity,bg_category
FeCoGa2,0.0,-0.0171146,,3,3.0
Si2RhBa,0.0,-0.024051,,3,3.0
Li4O4Cr,1.52,-0.0081001999999999,,3,3.0
CrGe2In3Nd3,0.0,-0.0326112,,3,3.0
S3CuSrBa,0.0,-0.0192451,,3,3.0
ScAs,0.0,-0.0187526,,3,3.0
H2NaSr2,0.0,-0.0114945,,3,3.0
Cs2HgBi2,0.0,-0.0605208,,3,3.0
F6NaRe,0.0,-0.0144883,,3,3.0
PVCr,0.0,-0.0161289,,3,3.0
Y2Pd2Tl,0.0,-0.0396362,,3,3.0
Zn2DyLu,0.0,-0.0329738,,3,3.0
NaMgNiIn2,0.0,-0.0185964,,3,3.0
SiScOs,0.0,-0.0329718,,3,3.0
Y5Lu,0.0,-0.03242,,3,3.0
NFSn2Nd6,0.0,-0.0359050999999999,,3,3.0
B2FeHf2,0.0,-0.0323601,,3,3.0
ScNiTl,0.0,-0.0346422,,3,3.0
GeAgTe2,0.0,-0.0312011,,3,3.0
Cu3YRh2,0.0,-0.0238070999999999,,3,3.0
H3SrPt,1.6085,-0.021257,,3,3.0
MgLa3Os,0.0,-0.0414062,,3,3.0
Na2S4SnPb,2.5507,-0.0206417,,3,3.0
NaCs2Au2,0.0,-0.043925,,3,3.0
Ti2Rh2In3,0.0,-0.0290818,,3,3.0
GeEuHg,0.0,-0.0476392,,3,3.0
CaRh4Ba,0.0,-0.0309305,,3,3.0
AlZr2Ir2,0.0,-0.0433849,,3,3.0
AgNdHg2,0.0,-0.0533023,,3,3.0
AlSnPt2,0.0,-0.0468987,,3,3.0
Al3Sn2Nd3Os,0.0,-0.0338025999999999,,3,3.0
Ni4As2Sr,0.0,-0.0187056,,3,3.0
ScGa2Pt,0.0,-0.0303549,,3,3.0
N3CaNi,0.4646,-0.0111176,,3,3.0
Sr2AgBi,0.0495,-0.03932,,3,3.0
CaGa2Lu,0.0,-0.0249635,,3,3.0
Ni2Nd2Tl,0.0,-0.0388236,,3,3.0
MnRh2Th,0.0,-0.0461849,,3,3.0
Ca2NiZn,0.0,-0.0124481,,3,3.0
Li4O8MnY3,1.1206,-0.0129821,,3,3.0
Cu2InAc,0.0,-0.0388433,,3,3.0
BeS2Zn,3.5181,-0.0103628,,3,3.0
Rh2BaPb2,0.0,-0.0521117,,3,3.0
NiAsTh,0.0,-0.0451815,,3,3.0
OGaTb3,0.0,-0.034158,,3,3.0
Ga2RuRh,0.0,-0.0258965,,3,3.0
HKSe,3.2418,-0.0114352,,3,3.0
MnFePu2,0.0,-0.0640130999999999,,3,3.0
Ga5Ba5Tl,0.0,-0.0324946,,3,3.0
F4SrCs2,6.4041,-0.0194025,,3,3.0
Cl6NiCuRb2,0.0,-0.0134549,,3,3.0
Pd8Nd,0.0,-0.0343211,,3,3.0
Be7Ag6,0.0,-0.0167982,,3,3.0
Ga2Ag,0.0,-0.0213091,,3,3.0
NaIn2Pb,0.0,-0.036766,,3,3.0
O3SrBi,0.412,-0.0258298,,3,3.0
Li3S3Bi,2.6262,-0.0174323,,3,3.0
AgPt3,0.0,-0.0604856,,3,3.0
FeGa5Nd,0.0,-0.0208826,,3,3.0
Br2Lu2Pb,0.0,-0.0464162,,3,3.0
SbAuPb2,0.0,-0.0645526,,3,3.0
Mn2Rh3Pr,0.0,-0.0307526,,3,3.0
Al2CaAg3,0.0,-0.0201908,,3,3.0
Pm2IrAu,0.0,-0.057956,,3,3.0
Li3O8TiFe3,0.1277,-0.0105062,,3,3.0
S2ZrIn,0.0,-0.0221182,,3,3.0
CO5Na5Ni,1.2975,-0.0080875,,3,3.0
Al2In3Dy3,0.0,-0.0328617,,3,3.0
Na2Ga,0.0,-0.0083168,,3,3.0
Sc6CrSb2,0.0,-0.0203764,,3,3.0
MgRh2Sn2,0.0,-0.0293426,,3,3.0
YBaPt2,0.0,-0.0530518,,3,3.0
Co2SnLu,0.0,-0.0317897,,3,3.0
Al2Zr6Pd,0.0,-0.0262652,,3,3.0
FSeTm,2.103,-0.0282607,,3,3.0
HSc3Y,0.0,-0.0149059,,3,3.0
PCa2Ir,0.0,-0.0261058,,3,3.0
SeAg3,0.0,-0.0285316,,3,3.0
Ru2HoTm,0.0,-0.0431208,,3,3.0
Pd2InLa,0.0,-0.0363748999999999,,3,3.0
FeRh2Ir,0.0,-0.0393412,,3,3.0
RhRe3,0.0,-0.0618855,,3,3.0
Al5ZnLu,0.0,-0.0155344,,3,3.0
Mg2Ga3Pt,0.0,-0.0221026,,3,3.0
SiFeZr,0.0,-0.0203175999999999,,3,3.0
O6VNbBa2,0.0,-0.0197403,,3,3.0
Ti2Co3Os,0.0,-0.0262869,,3,3.0
Ni2SnEr2,0.0,-0.0344667,,3,3.0
CuGaCe,0.0,-0.025817,,3,3.0
B2Co2Pr,0.0,-0.0190071,,3,3.0
LaTa2Os2,0.0,-0.0644377,,3,3.0
ZnU,0.0,-0.0585272,,3,3.0
HBN2Ca2,3.3832,-0.0093695,,3,3.0
C5Ni3Lu4,0.0,-0.0271217,,3,3.0
O2TeU2,0.0,-0.0536223,,3,3.0
LiAg4In,0.0,-0.0269061999999999,,3,3.0
Li2Cu2Ba,0.0,-0.0148977,,3,3.0
OFe,0.0,-0.0134471,,3,3.0
H8MnFe2La,0.0,-0.0105947,,3,3.0
CCl2Pr2,0.7488,-0.0241063,,3,3.0
Cl6CuRb2Tl,0.0,-0.0190416999999999,,3,3.0
O5Si2K2,4.9392,-0.0102965,,3,3.0
SbI2Tb2,0.0,-0.0422424,,3,3.0
Sc7Ag,0.0,-0.0163403999999999,,3,3.0
AlPNi,0.0,-0.0120375,,3,3.0
MnGe2In3Nd3,0.0,-0.0326083,,3,3.0
AlOs2,0.0,-0.0508153,,3,3.0
O8P2CoBa,0.0,-0.0130065,,3,3.0
DyAuPb,0.0,-0.0652083,,3,3.0
YZr2In,0.0,-0.0309201,,3,3.0
NiZr3Ru2,0.0,-0.0302984,,3,3.0
ScZrPd2,0.0,-0.0284604,,3,3.0
Co2Sn3Er3,0.0,-0.0371745,,3,3.0
GaAg2Cd,0.0,-0.0273389,,3,3.0
Ga3Pt2Pu,0.0,-0.0505559,,3,3.0
Cu3Au5,0.0,-0.0489847,,3,3.0
OInTb3,0.0,-0.037613,,3,3.0
CoRuRh2,0.0,-0.0298341,,3,3.0
Rb2Cd7,0.0,-0.028309,,3,3.0
AlNiAs,0.0,-0.015218,,3,3.0
MgAg2Th,0.0,-0.0410846,,3,3.0
H6CNI3Pb,1.857,-0.0192531999999999,,3,3.0
Si4Ni4Dy3,0.0,-0.0234033,,3,3.0
BeNi2Cd,0.0,-0.0169537,,3,3.0
CePt2Tl,0.0,-0.0651748,,3,3.0
GaCdNd2,0.0,-0.0340085,,3,3.0
SiNiZn,0.0,-0.0134669,,3,3.0
Al3Fe2Y,0.0,-0.0149158,,3,3.0
RhHo3,0.0,-0.0457785999999999,,3,3.0
ZnCe2,0.0,-0.034326,,3,3.0
Ni2RuHo3,0.0,-0.0361691,,3,3.0
AlCuGd2,0.0,-0.0353838,,3,3.0
S4Ag2SnNd,0.0,-0.0234283,,3,3.0
Ga2In3,0.0,-0.0264786,,3,3.0
K2CsBi2,0.0,-0.0426835,,3,3.0
Al3Ge2La3Au,0.0,-0.0296862,,3,3.0
BaTl2Bi,0.0,-0.0661628,,3,3.0
NaRh2Cd2,0.0,-0.0265364,,3,3.0
CuLa2Tl,0.0,-0.0438056,,3,3.0
O4NaSK,5.8697,-0.008804,,3,3.0
ZnTmIr,0.0,-0.0463372,,3,3.0
Li6N4Cr,1.7615,-0.0072013,,3,3.0
NiTc5,0.0,-0.0319569,,3,3.0
NEuPt,0.0,-0.0453283,,3,3.0
Al4RhNd,0.0,-0.0188518,,3,3.0
O4ZnSe,2.436,-0.0107957,,3,3.0
SrI6Ba2,3.1521,-0.0376950999999999,,3,3.0
B5Dy2Re3,0.0,-0.0350638,,3,3.0
NAlHo3,0.0,-0.0338759,,3,3.0
F6Rb2Lu,0.0,-0.0163354,,3,3.0
H6KRb2In,2.5068,-0.0105609,,3,3.0
CSnTb2,0.0,-0.0355105999999999,,3,3.0
O6Ca2VW,0.0,-0.0172293,,3,3.0
P2CuZnY,0.0893,-0.0163604999999999,,3,3.0
Co2Y2Cd,0.0,-0.0243143,,3,3.0
Ni4ZnU,0.0,-0.0304932,,3,3.0
Al2NiTb,0.0,-0.0203086,,3,3.0
As2Rb2In,0.0,-0.0234779,,3,3.0
Li3O6MnCoNi,1.4526,-0.0100258,,3,3.0
ScAgAu2,0.0,-0.0466541,,3,3.0
ZnSe3RbNd,2.3516,-0.0245923,,3,3.0
CaBa3,0.0,-0.0320605,,3,3.0
BeCr2Ru,0.0,-0.0191122,,3,3.0
F8TbDy2,0.0,-0.0196965,,3,3.0
F2Cd,3.6517,-0.0149057,,3,3.0
Al3Si2CuZr3,0.0,-0.0174197,,3,3.0
TbPt3,0.0,-0.0654522999999999,,3,3.0
Sn2CeLu,0.0,-0.0435843,,3,3.0
ZnPbPu,0.0,-0.066506,,3,3.0
Sn2Hf3,0.0,-0.0523596,,3,3.0
Li2InPr,0.0,-0.0207901999999999,,3,3.0
Na2CdHg,0.0,-0.0269422,,3,3.0
RhTm2,0.0,-0.0466518,,3,3.0
Zn2AgAu,0.0,-0.0320733,,3,3.0
MnLa2Ir2,0.0,-0.0500795,,3,3.0
CSi2Mo2U,0.0,-0.034126,,3,3.0
Mn2NbHf,0.0,-0.0332463,,3,3.0
Ni2AsTe2,0.0,-0.0256892999999999,,3,3.0
H12O6F6TiZn,3.0895,-0.0067176,,3,3.0
CaAg2La2,0.0,-0.0319904,,3,3.0
LiNSr3,0.0,-0.0161025999999999,,3,3.0
GaInAu,0.0,-0.039816,,3,3.0
MnRh2Hf,0.0,-0.0380539,,3,3.0
AlSi2Sm,0.0,-0.0185471,,3,3.0
Li2Mg2LaPb2,0.0,-0.0304538,,3,3.0
FeGaTh,0.0,-0.0438082,,3,3.0
NiAs2Th6,0.0,-0.0708982,,3,3.0
SrRhHg,0.0,-0.041747,,3,3.0
GeZrCe,0.0,-0.0321094,,3,3.0
O6ZnHfBi2,3.3273,-0.029065,,3,3.0
B2CRh2Er,0.0,-0.0245065,,3,3.0
O6Ca2CdPt,0.0,-0.0174559,,3,3.0
BeCoSe2,0.0,-0.015943,,3,3.0
CoIPr,0.0,-0.033208,,3,3.0
Be4CoRh,0.0,-0.0118176,,3,3.0
NaP2Ni2Eu,0.0,-0.0192093999999999,,3,3.0
Ca3Cd,0.0,-0.0150269,,3,3.0
NCuEr3,0.0,-0.0360090999999999,,3,3.0
PHoIr,0.0,-0.0448566,,3,3.0
ZnGd2Au,0.0,-0.0507379,,3,3.0
O3ClRb,5.6737,-0.0103207,,3,3.0
Al4RhGd,0.0,-0.0213741,,3,3.0
MgPd2Lu,0.0,-0.0323975,,3,3.0
Ca2As2Cd,1.3094,-0.0190925,,3,3.0
RhHf6Pb2,0.0,-0.0627737,,3,3.0
O7Nb2Hg2,2.0099,-0.0241482999999999,,3,3.0
TiRe,0.0,-0.0440708,,3,3.0
DyTmTl2,0.0,-0.0615922,,3,3.0
SiGaSe,1.3358,-0.0158976,,3,3.0
CuRuTm2,0.0,-0.0389162,,3,3.0
CuSrCd2,0.0,-0.0248367,,3,3.0
CTi3Ag,0.0,-0.0183889,,3,3.0
Ca2PdCd,0.0,-0.0211288,,3,3.0
Zr6AgSb2,0.0,-0.0327574,,3,3.0
TeEr2,0.0,-0.0468014999999999,,3,3.0
LiAg2Pb,0.0,-0.0353555,,3,3.0
Cl4K2Ni,0.825,-0.0109182,,3,3.0
PdSn5La,0.0,-0.0369311,,3,3.0
ScCuPt,0.0,-0.0340606,,3,3.0
FeGa5Pa,0.0,-0.0288151,,3,3.0
S8FeCu2Zr3,0.1707,-0.0167959,,3,3.0
OAsPrIr,0.0,-0.0372275,,3,3.0
CrWIr2,0.0,-0.0579281,,3,3.0
BNNiCe,0.0,-0.0205044,,3,3.0
SiPd2Er2,0.0,-0.0362528,,3,3.0
SrBa2Pt,0.0,-0.0434523,,3,3.0
NOSn2Ba6,0.0,-0.0335744,,3,3.0
RbAg4In6,0.0,-0.0315945,,3,3.0
NiCu4Zr,0.0,-0.0181275,,3,3.0
Ni3HoPt2,0.0,-0.0402541,,3,3.0
H6KCoCs2,2.5947,-0.0124901,,3,3.0
SiPa3,0.0,-0.0775014999999999,,3,3.0
Ru2CePr,0.0,-0.0396203999999999,,3,3.0
O6NiSr2Bi,0.0,-0.0195454,,3,3.0
CoBrPu,0.0,-0.0495213,,3,3.0
Ho2IrAu,0.0,-0.0606216,,3,3.0
Y6Sn2Pt,0.0,-0.0352071,,3,3.0
BAl2PrOs2,0.0,-0.0356579,,3,3.0
Pd3Nd,0.0,-0.0363015,,3,3.0
Ni2Ga2Ho,0.0,-0.0234432,,3,3.0
MgCoPt2,0.0,-0.0412229999999999,,3,3.0
AgDy2Hg,0.0,-0.0493357,,3,3.0
ScRu2Ta,0.0,-0.0383639,,3,3.0
K3Tl2,0.0,-0.0340482,,3,3.0
MgCuPr,0.0,-0.0213697,,3,3.0
Mg2Ru2Sn,0.0,-0.0232598999999999,,3,3.0
CuSn2Nd,0.0,-0.0331256,,3,3.0
CaRh2Gd,0.0,-0.0346088,,3,3.0
In5BaAu2,0.0,-0.0435887,,3,3.0
OK3Hg,0.0,-0.0206288,,3,3.0
Co2NiLu2,0.0,-0.0325676,,3,3.0
Sb2BaPt,0.0,-0.04704,,3,3.0
Be2ScHf,0.0,-0.0214511,,3,3.0
Y2RhPd,0.0,-0.0315335,,3,3.0
O5Na2TiGe,3.7812,-0.0107369,,3,3.0
GaTm,0.0,-0.0348116,,3,3.0
O4EuPa,0.4048,-0.0334017,,3,3.0
ZnDyPt,0.0,-0.0449855,,3,3.0
AgAu7,0.0,-0.0644652,,3,3.0
GePd2Pt,0.0,-0.0391308,,3,3.0
Al6GdEr,0.0,-0.0199019,,3,3.0
B2N3Zn2Tb3,0.0,-0.022205,,3,3.0
F6SPb4,3.1187,-0.032368,,3,3.0
LiBe2Pt2,0.0,-0.0312086,,3,3.0
NiGe2Ce,0.0,-0.0255316,,3,3.0
Cl2Pb,4.2098,-0.03182,,3,3.0
Ti2Pd,0.0,-0.0221184,,3,3.0
O6Sr2MoTb,0.0,-0.0193683,,3,3.0
AlNdAu,0.0,-0.0411555,,3,3.0
SrCd5,0.0,-0.0293288,,3,3.0
Pr3Pb,0.0,-0.0519444,,3,3.0
S2TbAu,0.7905,-0.0351909,,3,3.0
N2NiTb2,0.0,-0.0271584,,3,3.0
N2LaLu,0.4375,-0.0310471,,3,3.0
Mg3Ge2RhIn3,0.0,-0.0210386999999999,,3,3.0
Li3O8TiCr3,1.521,-0.01119,,3,3.0
AsPt2Ac,0.0,-0.0637652,,3,3.0
HTi3Sn,0.0,-0.017972,,3,3.0
Ni2In3Dy3,0.0,-0.0350594,,3,3.0
Cl3KEu,0.7629,-0.0195738999999999,,3,3.0
NaAlBr6Cs2,3.2853,-0.0221145999999999,,3,3.0
AsNdDy,0.0,-0.0382638,,3,3.0
TeLa2Pb,0.0,-0.051212,,3,3.0
B3Cu2Ir4,0.0,-0.0376726999999999,,3,3.0
Al3CuLu2,0.0,-0.0253619,,3,3.0
RhPd2Ho,0.0,-0.037855,,3,3.0
NaAsBr6Cs2,2.7678,-0.023063,,3,3.0
Te3Th,0.4832,-0.0529535,,3,3.0
H3Rb,3.438,-0.0078496,,3,3.0
NiPrHg2,0.0,-0.0493802,,3,3.0
O2FV,1.7005,-0.0109961,,3,3.0
Li2Ge2Zr,0.0,-0.0152051,,3,3.0
KSr2Ag2,0.0,-0.0232743,,3,3.0
H4NCuMoTe4,0.3001,-0.0203545,,3,3.0
AlTiOsIr,0.4133,-0.0428279,,3,3.0
Te2Nd6Os,0.0,-0.0461180999999999,,3,3.0
N6Nb2Tb3,0.0,-0.0253097,,3,3.0
CMg2Ge2Th2,0.0,-0.0361133,,3,3.0
V3Co,0.0,-0.0176318,,3,3.0
S2ZnRbAg,2.3876,-0.017844,,3,3.0
Al2SiCo2,0.0,-0.0125297,,3,3.0
Al5CaIr2,0.0,-0.0246488,,3,3.0
O6Na2TiTe,3.0415,-0.0120521999999999,,3,3.0
TcOs,0.0,-0.0535921,,3,3.0
Mg2InHg2,0.0,-0.0361699,,3,3.0
NaK2SbI6,2.0513,-0.0288426,,3,3.0
AsBaIr,0.0,-0.0445213,,3,3.0
BGa2SrIr2,0.0,-0.0347046,,3,3.0
ZnTc2,0.0,-0.0279676,,3,3.0
RuPdDy2,0.0,-0.0415396,,3,3.0
O2CoBa,0.2104,-0.0193846,,3,3.0
Br4BaPb,3.3378,-0.033826,,3,3.0
SbCeHo,0.0,-0.0445088,,3,3.0
LiSm2Os,0.0,-0.0410240999999999,,3,3.0
LiGe2Tb2,0.0,-0.0276042,,3,3.0
PRbOs,0.0,-0.0347473,,3,3.0
S4MnHf2,0.0,-0.0275581,,3,3.0
KNi2Sb2,0.0,-0.0233312,,3,3.0
Cl8SbI3,1.2873,-0.0180675,,3,3.0
RhCd2Hg,0.0,-0.0407415,,3,3.0
Cl3CaCs,6.1529,-0.0168327,,3,3.0
SbBaPb,0.0,-0.0516279,,3,3.0
LiO4VCs2,4.3846,-0.017523,,3,3.0
B3FeNi,0.0,-0.0114366,,3,3.0
Ti2GaRe,0.0,-0.0304369,,3,3.0
O4SeBi2Np,0.1414,-0.0404734,,3,3.0
Se3Rb2Hf,1.7242,-0.0289411999999999,,3,3.0
MgTl2Pu,0.0,-0.0650092999999999,,3,3.0
AlCl6KCs2,5.556,-0.0160367,,3,3.0
Ni2Ga3,0.0,-0.0167305999999999,,3,3.0
Co4CuSm,0.0,-0.0214818999999999,,3,3.0
PrPmPb2,0.0,-0.0604686,,3,3.0
CoRhOs,0.0,-0.040833,,3,3.0
CuSmTl,0.0,-0.044389,,3,3.0
O7Si2CaLa,0.0,-0.0136952999999999,,3,3.0
F6AgTa,3.4761,-0.0177323,,3,3.0
Si7Ge,0.6152,-0.0111432,,3,3.0
SrYPb2,0.0,-0.0511543,,3,3.0
HGaGeLa,0.0,-0.0211245,,3,3.0
O6InBa2Dy,0.0,-0.0222645,,3,3.0
SrCd2Dy,0.0,-0.0330788,,3,3.0
NaMgPSe4,2.2799,-0.0150157,,3,3.0
H6Ca2Mn,0.0,-0.0070163,,3,3.0
CoRuLa,0.0,-0.0317921,,3,3.0
ScCu2Ge2,0.0,-0.0170298,,3,3.0
Cr2Mn,0.0,-0.0182876,,3,3.0
Ni3SnEu2,0.0,-0.032229,,3,3.0
S4Zn3Cd,2.3155,-0.0145623,,3,3.0
Al2LaPt3,0.0,-0.0462402,,3,3.0
SiP2Cs2,1.6393,-0.0218933,,3,3.0
F6MgV,0.0,-0.0087902,,3,3.0
GeITh,0.0,-0.0514993,,3,3.0
Li2RbSb2,0.0,-0.0205266,,3,3.0
N2NdDy,0.1316,-0.0292879,,3,3.0
TiSe3AgCs,0.4373,-0.0253047,,3,3.0
Si2Ga3Ho3Os,0.0,-0.0327199,,3,3.0
O6Mn2Zr,1.0897,-0.0142263,,3,3.0
MnSe3ErTl,0.7918,-0.0348367999999999,,3,3.0
SnTlPb2,0.0,-0.0648863,,3,3.0
LiAlNiIr,0.0,-0.0248614999999999,,3,3.0
Cd3Tb,0.0,-0.0348567,,3,3.0
B2O6LaPb,0.1247,-0.0196423999999999,,3,3.0
ZnPt2Np,0.0,-0.0658425,,3,3.0
Cu2GeCdTe4,0.0,-0.0288008999999999,,3,3.0
CaZn2Pd,0.0,-0.0178984,,3,3.0
Zr5Ag,0.0,-0.0308388,,3,3.0
O6Ca2CrOs,0.8132,-0.0171241,,3,3.0
CdSnBa,0.0,-0.0359641,,3,3.0
Cl6K2W,0.0,-0.0164248,,3,3.0
AlCa2Cd,0.0,-0.0146866,,3,3.0
MnRu2Lu3,0.0,-0.0428418,,3,3.0
BCRhPr,0.0,-0.0241823,,3,3.0
AgEr2Os,0.0,-0.0514337999999999,,3,3.0
H6CoRbCs2,2.6895,-0.0137293,,3,3.0
NaCdCs2,0.0,-0.0275088,,3,3.0
O3NaKNb,1.137,-0.0130104,,3,3.0
SiCa2,0.3947,-0.0102889,,3,3.0
S4BaPr2,2.2247,-0.0258819,,3,3.0
O2CaMn,1.1869,-0.0126648,,3,3.0
S4Sm3Tm,0.0,-0.0302025,,3,3.0
Rh2In2Ba,0.0,-0.03523,,3,3.0
GaErAu,0.0,-0.0463271,,3,3.0
Cu4GaDy,0.0,-0.0211471,,3,3.0
S4MnHg3,0.0156,-0.0330366,,3,3.0
PNi5Zn,0.0,-0.0152760999999999,,3,3.0
CoRhPt2,0.0,-0.0480111,,3,3.0
In3Os2Th3,0.0,-0.0668749,,3,3.0
CdPt4Pb,0.0,-0.0646508,,3,3.0
O8Hf3Pb,2.7649,-0.0292174,,3,3.0
Cu2PmBi,0.0,-0.038443,,3,3.0
O6MgCoEr2,0.7067,-0.0189498,,3,3.0
B6Fe2Ce,0.0,-0.0144457,,3,3.0
SiRh3Eu2,0.0,-0.0372413,,3,3.0
BeNbRh2,0.0,-0.026805,,3,3.0
FeRh2Ta,0.0,-0.0385615,,3,3.0
OSr,3.726,-0.017255,,3,3.0
FeNi5Sb,0.0,-0.0195391,,3,3.0
In5TmPt,0.0,-0.0417931999999999,,3,3.0
NaSr2In,0.0,-0.0208456,,3,3.0
ZnSbBa2,0.0,-0.0331835,,3,3.0
O6Sr2ZrPt,2.43,-0.0209975,,3,3.0
C2AlNb3,0.0,-0.0217850999999999,,3,3.0
N3IBa,3.1617,-0.0215846,,3,3.0
CHf3Pb,0.0,-0.0554005999999999,,3,3.0
O3Na4Fe,0.7928,-0.0082186,,3,3.0
F7Na3Tm,0.1123,-0.0112944999999999,,3,3.0
Fe2CdDy2,0.0,-0.0325424,,3,3.0
B2Pr3Pt7,0.0,-0.0540555,,3,3.0
Ca2Ge3Cd6,0.0,-0.0238325,,3,3.0
Ba3Au2,0.0,-0.0521212999999999,,3,3.0
Co2YIn,0.0,-0.0242661,,3,3.0
In3Sn2Pr3Ir,0.0,-0.0422661,,3,3.0
GeGd2Hg,0.0,-0.0519058,,3,3.0
MgGaHo,0.0,-0.0239896,,3,3.0
P2Y2Tl,0.0,-0.0308871,,3,3.0
O8S2KRu,0.19,-0.0109445999999999,,3,3.0
F6CuGe,1.5263,-0.0092155,,3,3.0
Cu2RhBa,0.0,-0.0260274,,3,3.0
ScNi4Hg,0.0,-0.0248469,,3,3.0
Cd2HgTl2,0.0,-0.0546435,,3,3.0
B3MnCo,0.0,-0.0118983,,3,3.0
O3PrHo,3.9861,-0.0259314,,3,3.0
CrSe4Te,0.0,-0.0230162,,3,3.0
S2RbTe,0.0,-0.0196839,,3,3.0
TiMn2Ga5,0.0,-0.0171748,,3,3.0
O7Ho2Hf2,4.7329,-0.0280841,,3,3.0
I6Cs2Np,1.4064,-0.0461231999999999,,3,3.0
Co4GaDy,0.0,-0.0224608,,3,3.0
In2Au2Bi,0.0,-0.0568245,,3,3.0
Ca3CuBa,0.0,-0.016763,,3,3.0
Sc6CoSb2,0.0,-0.0203313,,3,3.0
O2Na5CuSe,1.9269,-0.0089254,,3,3.0
NSc2Zn,0.0,-0.0141031,,3,3.0
MgCaAg4,0.0,-0.0235742,,3,3.0
Li2C2O6Co,2.1534,-0.0089581,,3,3.0
O6TiInBa2,0.0,-0.0193032,,3,3.0
AgTe3CsDy,0.0,-0.0391505,,3,3.0
MgAl2Ge2,0.0,-0.0118333999999999,,3,3.0
MgHo2Os,0.0,-0.0439814,,3,3.0
GaTh,0.0,-0.0567058,,3,3.0
BLaPt4,0.0,-0.0561602,,3,3.0
O6CuGePr2,1.1674,-0.0184241,,3,3.0
AgSb,0.0,-0.0342421,,3,3.0
RhAgTm2,0.0,-0.0429299,,3,3.0
KCu2Te4Eu,0.0,-0.0309348,,3,3.0
H2NiPt2,0.0,-0.0327382,,3,3.0
Cl6KRb2In,4.3906,-0.0149467,,3,3.0
BeMnCo,0.0,-0.0133573,,3,3.0
MgCaTl,0.0,-0.0294898,,3,3.0
N2In3Er7,0.0,-0.0403465,,3,3.0
Ni4YCe,0.0,-0.0232091,,3,3.0
F4NaSr,0.0,-0.0097576,,3,3.0
AlSc6Sb2,0.0,-0.0192863,,3,3.0
Mg3Ga3Ge2Pt,0.0,-0.0195877,,3,3.0
GeSe4Rb2Hg,1.731,-0.0269275,,3,3.0
ScTaW4,0.0,-0.0599368,,3,3.0
Si2Mn2Pa,0.0,-0.0318013,,3,3.0
NOGe2Pr6,0.0,-0.032597,,3,3.0
Ca2AsAu,0.5105,-0.02829,,3,3.0
Ga2Sr3Pd4,0.0,-0.0263841,,3,3.0
Li2SnBi2,0.0,-0.0398474999999999,,3,3.0
Cl4CaSn,3.2694,-0.0147112,,3,3.0
P2GeCd,1.1915,-0.0177144,,3,3.0
CuInEu,0.0,-0.0344024,,3,3.0
O2Y2Au,0.0,-0.0304041,,3,3.0
MnAgAu2,0.0,-0.0472877,,3,3.0
S3AgTa,0.0,-0.0261082,,3,3.0
Fe2InNp,0.0,-0.0440105,,3,3.0
CrNiRu,0.0,-0.0230133,,3,3.0
ZrCdHg2,0.0,-0.0495701,,3,3.0
Al3PdHf2,0.0,-0.0309421,,3,3.0
Al2CdCe2,0.0,-0.0273479999999999,,3,3.0
GeZrRh2,0.0,-0.0302869999999999,,3,3.0
Al3Sn2Dy3Re,0.0,-0.0350083,,3,3.0
Al5S8Cu,1.7812,-0.0105371,,3,3.0
P2Pt,1.6867,-0.0312095999999999,,3,3.0
CCdCe2,0.0,-0.032629,,3,3.0
BNCoPa,0.0,-0.0345035999999999,,3,3.0
MgCa2Cu2,0.0,-0.0110768,,3,3.0
PdAgLa2,0.0,-0.0381397,,3,3.0
TiFe4Zn,0.0,-0.0171284999999999,,3,3.0
F6NaK2Au,1.3397,-0.0133762,,3,3.0
Ni2Y2Ir,0.0,-0.0323501,,3,3.0
NaPIn2,0.0,-0.020578,,3,3.0
O2MgBrSb,3.1549,-0.0166631,,3,3.0
LiCo2As2Th,0.0,-0.0295245999999999,,3,3.0
LaPt2Au3,0.0,-0.0658299,,3,3.0
Cl2KRb,5.6983,-0.0134218,,3,3.0
PRbPd,0.0,-0.0217755,,3,3.0
In2PmTh,0.0,-0.052093,,3,3.0
CuSe2La,1.2839,-0.0260348,,3,3.0
O6Ca2SmTa,4.0739,-0.020156,,3,3.0
CoNi3,0.0,-0.0164548,,3,3.0
InSmPt4,0.0,-0.0606858999999999,,3,3.0
Dy3Ir2Hg,0.0,-0.0598883999999999,,3,3.0
CaCdTl,0.0,-0.0379531,,3,3.0
RhPdPt2,0.0,-0.0517319,,3,3.0
Cu4Pa,0.0,-0.0320248,,3,3.0
NV3Ge,0.0,-0.0169979,,3,3.0
O6Ca2HoBi,2.4875,-0.0210441,,3,3.0
Al4Nb2La,0.0,-0.0204532999999999,,3,3.0
O3FeIn,1.3043,-0.0157195,,3,3.0
PCu5Zn,0.0,-0.0143205,,3,3.0
AsDyPt,0.0,-0.0475009,,3,3.0
MgNiPb,0.0,-0.0324417,,3,3.0
SiMoIr2,0.0,-0.0473278,,3,3.0
N3CaBr,3.826,-0.0121920999999999,,3,3.0
Li2SiCo,0.0,-0.0081747,,3,3.0
CrGa2Zr6,0.0,-0.0264435,,3,3.0
CaRhHg,0.0,-0.0376083,,3,3.0
AlCoNbRu,0.0,-0.0238595,,3,3.0
Si2RhDy,0.0,-0.0264191,,3,3.0
NaGe2Au,0.0,-0.0281412,,3,3.0
ZrPdIn2,0.0,-0.0330743,,3,3.0
F6Rb2YIn,3.8443,-0.0156054,,3,3.0
AlTi2Ni2,0.0,-0.0150111,,3,3.0
NaCl2Ca,0.0,-0.0093444,,3,3.0
ScGeZr,0.0,-0.0220928,,3,3.0
Si2In3Nd2,0.0,-0.0301656,,3,3.0
BO10P2Co2Bi,1.3439,-0.0147335,,3,3.0
LiAlCuCd,0.0,-0.0141351999999999,,3,3.0
LiNi2,0.0,-0.01157,,3,3.0
H6RuNp2,0.0,-0.0300261,,3,3.0
Se2BrIn,0.0129,-0.0237563,,3,3.0
MnAs2Rb2,0.0,-0.0205344,,3,3.0
O2LaTl,2.2236,-0.0344546,,3,3.0
Ag2PbBi,0.0,-0.0541648,,3,3.0
LiRhCdSn,0.0,-0.0260563,,3,3.0
LiSbHg,0.0,-0.036281,,3,3.0
As2Pd2Ce,0.0,-0.0310789,,3,3.0
Mn2FeZn,0.0,-0.0170926,,3,3.0
Al3Si2Zr3,0.0,-0.0175936999999999,,3,3.0
CrRh2W,0.0,-0.0390686,,3,3.0
AlRh2Ho,0.0,-0.0321603,,3,3.0
F6KNi,0.0,-0.0075567,,3,3.0
Li3O8CrFe3,0.0,-0.0105939,,3,3.0
O2BrSnSb,1.5601,-0.0222185,,3,3.0
CoSn3Er,0.0,-0.0353933,,3,3.0
AlNiNbIr,0.0,-0.0327233,,3,3.0
LiCoSe2,0.4702,-0.0157041,,3,3.0
Mg2ErAu,0.0,-0.0330344,,3,3.0
NiGe2Hf2,0.0,-0.0367244,,3,3.0
BRh6Tm2,0.0,-0.0357473,,3,3.0
MgTi2,0.0,-0.0123118,,3,3.0
InPrPt4,0.0,-0.0604768,,3,3.0
CdAu3,0.0,-0.0596427,,3,3.0
Cl5Pb,0.0,-0.0197627999999999,,3,3.0
GeInTe2,0.0,-0.0318973,,3,3.0
PdIn6,0.0,-0.0333983,,3,3.0
O8Ni2As2Ba,2.3122,-0.0142647,,3,3.0
O8P2TiCe,0.5184,-0.0139602,,3,3.0
AsRbSn,0.5003,-0.0260548,,3,3.0
Cl4Tb,3.2283,-0.0177348,,3,3.0
AgAuPu2,0.0,-0.0801366,,3,3.0
LiCo2As2U,0.0,-0.0305370999999999,,3,3.0
B8Ru6Ta7,0.0,-0.0356632,,3,3.0
O6YSb2,0.0,-0.0176173,,3,3.0
H3KSr,3.1135,-0.0086009,,3,3.0
Li4O5Se,3.1105,-0.0078552,,3,3.0
ZrRh2Au,0.0,-0.0426550999999999,,3,3.0
Li5BO4,6.0901,-0.0067129,,3,3.0
HO2Ni,0.0,-0.0091767,,3,3.0
ScYRh2,0.0,-0.0284315999999999,,3,3.0
Ga5YIr,0.0,-0.0264861,,3,3.0
PCl2La2,0.0,-0.0247718,,3,3.0
O8Mo2CsNd,4.4925,-0.0193459,,3,3.0
Mg2Cu2Ga,0.0,-0.011587,,3,3.0
Si2MnNb2,0.0,-0.0215247,,3,3.0
LiP2Co2Dy,0.0,-0.0184928,,3,3.0
BrInPr,0.0,-0.0333592999999999,,3,3.0
TiRu2Sn,0.2356,-0.0310814999999999,,3,3.0
N2MgFe,0.0,-0.0108018,,3,3.0
AsTlPb,0.0,-0.0561328,,3,3.0
Ni2CuGa,0.0,-0.016225,,3,3.0
SePm,0.0,-0.0340816,,3,3.0
Li4Ca3,0.0,-0.0054937,,3,3.0
MgMnRu2,0.0,-0.0232653,,3,3.0
Se2Ag2Hg,0.3122,-0.0343489,,3,3.0
P2Cu4Pr,0.0,-0.0183995,,3,3.0
Ru2RhW,0.0,-0.0434007999999999,,3,3.0
F6K2Nb,0.7351,-0.0110382,,3,3.0
AgSm2Ir,0.0,-0.0484721,,3,3.0
Ni2Ge2Pr,0.0,-0.0235339,,3,3.0
CaPt4Au,0.0,-0.0604803,,3,3.0
NiRb5Sb2,0.0,-0.0246202,,3,3.0
Tb3Pb,0.0,-0.0544575,,3,3.0
F4RhCs,1.2805,-0.0165492,,3,3.0
NbMoTc2,0.0,-0.0346937,,3,3.0
PCoPt,0.0,-0.0330814,,3,3.0
LiO7P2V,0.7488,-0.0102531,,3,3.0
NaSrPb2,0.0,-0.0450283,,3,3.0
Mn2Nb,0.0,-0.0233064,,3,3.0
FeBr3Tl,0.0,-0.030422,,3,3.0
CoRu2Ho2,0.0,-0.0373352,,3,3.0
TiAsRb,0.0,-0.0196515999999999,,3,3.0
KCu2As2Y,0.0,-0.0186188,,3,3.0
LiPtHg,0.0,-0.0472832,,3,3.0
LiMgGaPd,0.0,-0.0147687,,3,3.0
Rb2AgSb,1.4799,-0.0279831,,3,3.0
Zn2InLa2,0.0,-0.0298491,,3,3.0
SiIEu,0.0,-0.0345193,,3,3.0
Cl3As,4.0675,-0.0118019,,3,3.0
Li3La,0.0,-0.0125057,,3,3.0
SbCeTm,0.0,-0.0454241,,3,3.0
Mg4Cd5,0.0,-0.0192138,,3,3.0
O6Pt3Hg,0.1851,-0.0322615,,3,3.0
LiNF6K2,3.0566,-0.0067026,,3,3.0
O3MnSr,0.156,-0.0145114,,3,3.0
F6Cs3Sm,6.7834,-0.0213974,,3,3.0
Ru2GdPa,0.0,-0.0573766,,3,3.0
CuZnEr,0.0,-0.0267592,,3,3.0
Be2PdHf2,0.0,-0.0338418,,3,3.0
O4GaAs,1.199,-0.0118609,,3,3.0
TiZn2Ag,0.0,-0.0187135,,3,3.0
NaCu2As2Ho,0.0,-0.0214106999999999,,3,3.0
O12Tm5Re2,0.0797,-0.0282863,,3,3.0
Cr7Ir6,0.0,-0.0428746,,3,3.0
CS2Nb2,0.0,-0.0200578,,3,3.0
TcPt7,0.0,-0.0657891999999999,,3,3.0
B2CSmPt2,0.0,-0.0357579,,3,3.0
H2Ni2In,0.0,-0.0145426,,3,3.0
Ga2Pr,0.0,-0.0261762,,3,3.0
ScTaIr2,0.0,-0.0566664,,3,3.0
GeRb2CdTe4,0.7823,-0.0306835,,3,3.0
RuSb2,0.1492,-0.0367722,,3,3.0
P2KNi2Pr,0.0,-0.0182662,,3,3.0
NiZnBa,0.0,-0.0231211,,3,3.0
AgCd2Pt,0.0,-0.0408329,,3,3.0
Ca2As2Sb,0.0,-0.0202757,,3,3.0
F8Na2SrPu,0.0,-0.0176828,,3,3.0