formula,bg,formation_energy,mp-id,fidelity,bg_category
AsAuTl2,0.0,-0.0586285999999999,,3,3.0
O4TbHf,0.0,-0.0258074,,3,3.0
Ca8Tl,0.0,-0.0167326,,3,3.0
Ni3Se2Tl2,0.0,-0.0335257,,3,3.0
O7Ti2Np2,0.0,-0.0293772,,3,3.0
SiPd3Gd2,0.0,-0.0385371,,3,3.0
P3Au2,0.0,-0.0340933,,3,3.0
S2TlU,0.0,-0.0498068,,3,3.0
Ga2DyLu,0.0,-0.0346161,,3,3.0
CAl3Ta5,0.0,-0.041052,,3,3.0
NDy2Pb,0.0,-0.0464789,,3,3.0
B2CRu2Pu,0.0,-0.0343058,,3,3.0
MgRh4Lu,0.0,-0.0331929,,3,3.0
Mn3Co2,0.0,-0.0177919,,3,3.0
MnFe2Tm2,0.0,-0.0316107,,3,3.0
Ge3GdOs,0.0,-0.0381072,,3,3.0
RhCdLa,0.0,-0.0364257,,3,3.0
Rh6Sb4Np,0.0,-0.0421758999999999,,3,3.0
Rh2Nd2Hg,0.0,-0.0453097,,3,3.0
SrIr2,0.0,-0.0551877,,3,3.0
Al3PdSn2Lu3,0.0,-0.0334204,,3,3.0
MgAlNd2,0.0,-0.0252526,,3,3.0
Ni3Zn2Lu,0.0,-0.0221988999999999,,3,3.0
CoGe3Ba,0.0,-0.0231495,,3,3.0
Se2CsU,0.0,-0.0466863999999999,,3,3.0
LiMg14Ce,0.0,-0.0072525,,3,3.0
SrY2Tl,0.0,-0.0378606,,3,3.0
Mg2LaIr2,0.0,-0.0396571,,3,3.0
Si2NiPu,0.0,-0.0371041,,3,3.0
Co2InDy2,0.0,-0.0330733,,3,3.0
SiRuEu,0.0,-0.0335836,,3,3.0
As2Se5Pb2,0.3318,-0.0327415999999999,,3,3.0
NSr2Pb,0.0,-0.0331483,,3,3.0
F6NaK2Ni,0.0,-0.0085086,,3,3.0
Ga3TcBa,0.0,-0.0252534,,3,3.0
NaP3Ge3,1.3014,-0.0134372,,3,3.0
PdIn3I,0.0,-0.0343442,,3,3.0
LiO4VGa,0.0,-0.0110686,,3,3.0
FClRb,3.471,-0.0127026,,3,3.0
Fe2Ga4Tm,0.0,-0.022279,,3,3.0
F5Rb2Tl,3.5243,-0.0188632,,3,3.0
CN2ClLu,3.9069,-0.0197566,,3,3.0
Si2Sc2W,0.0,-0.024218,,3,3.0
MgSn2Bi,0.0,-0.0387967,,3,3.0
AsLaPt,0.0,-0.0460428,,3,3.0
Ni2CdDy3,0.0,-0.0347665,,3,3.0
MgKTl2,0.0,-0.0397109,,3,3.0
BCo4Y,0.0,-0.0176377,,3,3.0
Pd2ErPb,0.0,-0.048685,,3,3.0
NaCl6K2Nd,5.4548,-0.0134969,,3,3.0
Mg2In2Pb,0.0,-0.0305914,,3,3.0
LaAuHg,0.0,-0.0610287,,3,3.0
LiO2Sb,2.1293,-0.0147351,,3,3.0
Cr2Se4Cd,0.6984,-0.0219322,,3,3.0
Cu4ZnLu,0.0,-0.0218977,,3,3.0
ScMnRh2,0.0,-0.0258865,,3,3.0
Al2CaZn,0.0,-0.0099534,,3,3.0
Pd2InBa2,0.0,-0.0362424,,3,3.0
Rh2SmTb,0.0,-0.0405726,,3,3.0
O4MnAs,0.0,-0.0122054,,3,3.0
HNLa2,0.0,-0.025816,,3,3.0
CoCuPm2,0.0,-0.0302196,,3,3.0
Ir3Pt,0.0,-0.0708255,,3,3.0
N3CrZn2,0.0,-0.0125467999999999,,3,3.0
Sc2CuZn,0.0,-0.0147048,,3,3.0
O7La4,0.0,-0.0228928,,3,3.0
Pd2CdNd,0.0,-0.0355921,,3,3.0
Cd2SmDy,0.0,-0.0386897,,3,3.0
H9C3SiCl,6.2635,-0.006029,,3,3.0
F6AlK2In,4.165,-0.0109714,,3,3.0
F6MnU,1.1617,-0.0212698,,3,3.0
Al2Ni4Dy3,0.0,-0.0254508,,3,3.0
Mn4Fe5,0.0,-0.0180656,,3,3.0
BeCu4Ho,0.0,-0.0192377,,3,3.0
W3Re,0.0,-0.0700318,,3,3.0
B2O4FBi,4.7169,-0.0175752,,3,3.0
F6TaTl2,0.5126,-0.028466,,3,3.0
HB,0.5056,-0.0054739,,3,3.0
BCCeIr,0.0,-0.0339547,,3,3.0
Mg6FeGa2,0.0,-0.0089977,,3,3.0
AlCoNb,0.0,-0.0197643999999999,,3,3.0
PmPt2Pb,0.0,-0.0657755,,3,3.0
Al4AuTh,0.0,-0.0331954,,3,3.0
Zr2InPb,0.0,-0.0430298,,3,3.0
O6Cu3Ba2Tm,0.0,-0.0199647,,3,3.0
KAgSn,0.0,-0.0253691999999999,,3,3.0
Ga2Ta2W,0.0,-0.0473286999999999,,3,3.0
Al2Sr3Sn2,0.0,-0.0226172,,3,3.0
GaAu2Th,0.0,-0.0633897,,3,3.0
OCuEr3,0.0,-0.0359269,,3,3.0
LiFeGaRh,0.0,-0.0181205,,3,3.0
KGe2Ag2,0.0,-0.0218918,,3,3.0
Ge2NdOs,0.0,-0.0390635,,3,3.0
Br2RbI2,0.0,-0.0273368,,3,3.0
ScRhTe,0.5638,-0.0296878,,3,3.0
Cl4CuGa,2.1768,-0.011583,,3,3.0
Ga2IBi2,0.0,-0.0453432999999999,,3,3.0
BeSiIr,0.0,-0.0291530999999999,,3,3.0
O7Si2Mn2,0.995,-0.0116992,,3,3.0
AsRuTm,0.0,-0.0367069,,3,3.0
O9KNb3Ba2,0.0,-0.0191231,,3,3.0
B6Mn2Er,0.0,-0.0152064,,3,3.0
CuYIn2,0.0,-0.0279344,,3,3.0
Ba3Ir,0.0,-0.0475671,,3,3.0
O4MgAg2,1.0591,-0.0140781,,3,3.0
Zr2TaAu,0.0,-0.0496384,,3,3.0
SiPdU,0.0,-0.0492072999999999,,3,3.0
Nb6RuRh,0.0,-0.0337279,,3,3.0
Y5Hg,0.0,-0.0347877999999999,,3,3.0
ZrAgPt2,0.0,-0.0514954,,3,3.0
KAuHg2,0.0,-0.0537370999999999,,3,3.0
Li2NiAs2,0.0,-0.0128247999999999,,3,3.0
O7Ti2Fe2,1.1096,-0.0126553,,3,3.0
Zr2InAu2,0.0,-0.0473652,,3,3.0
Al2Ti3Nb,0.0,-0.0164733,,3,3.0
KCdAu,0.0,-0.0362686,,3,3.0
FSY,1.6554,-0.0170174,,3,3.0
O6Ba2PbBi,0.0,-0.0289591999999999,,3,3.0
Ru2ErTa,0.0,-0.0471957999999999,,3,3.0
H2Tc2Re,0.0,-0.0295624,,3,3.0
BeCoIr2,0.0,-0.0412727,,3,3.0
F6Rb2CdCs,0.0,-0.0155465,,3,3.0
Al3Ag4,0.0,-0.0213481999999999,,3,3.0
Br2Pr2Pb,0.0,-0.0418221,,3,3.0
Ga5LuPt,0.0,-0.0302582,,3,3.0
BCRhSm,0.0,-0.0245363,,3,3.0
CoBrGd,0.0,-0.0328906,,3,3.0
GaNbRh,0.0,-0.0284072,,3,3.0
Cl6Rb2YTl,4.4074,-0.0210576,,3,3.0
H2NaK,2.9989,-0.0050968,,3,3.0
Ni2As2U,0.0,-0.0357317,,3,3.0
HO2Pd,0.2902,-0.0128847,,3,3.0
CuZn2,0.0,-0.0141624,,3,3.0
CoNi2Pr2,0.0,-0.0274150999999999,,3,3.0
Zn7Hg,0.0,-0.0202410999999999,,3,3.0
K3Br6Zr,0.5488,-0.0189955999999999,,3,3.0
O2Ti3,0.0,-0.0143826,,3,3.0
B3Cr2,0.0,-0.0122223,,3,3.0
Au4HgTl,0.0,-0.0695032,,3,3.0
In5DyAu,0.0,-0.0409309999999999,,3,3.0
OF5NaMnRb2,2.0287,-0.0116096,,3,3.0
KTi6Se8,0.0,-0.0190237,,3,3.0
Ca2AgLa,0.0,-0.0235838,,3,3.0
ScSe3RbAg,0.0,-0.0222869999999999,,3,3.0
OCs3Au,1.537,-0.0386522,,3,3.0
O3Ba2Au,0.0,-0.0298556,,3,3.0
Os,0.0,-0.0718798,,3,3.0
In8Au,0.0,-0.0373211,,3,3.0
Zn2CeIr,0.0,-0.0363004,,3,3.0
LiTeTl,0.0,-0.0377931,,3,3.0
SnSm2Tl,0.0,-0.0499383,,3,3.0
GaRbI6Cs2,1.4223,-0.03445,,3,3.0
AlGa5Pa,0.0,-0.0272199999999999,,3,3.0
Mg7Tl,0.0,-0.0134388,,3,3.0
MgZn4Lu,0.0,-0.0193694,,3,3.0
Fe2Ga3Tb3,0.0,-0.028614,,3,3.0
GeRh2Pr2,0.0,-0.0355618,,3,3.0
Zn2AsI,1.6685,-0.0213302,,3,3.0
Li2O5SiV,1.4588,-0.0098011,,3,3.0
P2S6Pd,0.8184,-0.0126219,,3,3.0
Mg2PmTm,0.0,-0.0265251,,3,3.0
O2Rb2AgCs,1.9448,-0.0215641,,3,3.0
Zn2CdBa,0.0,-0.0244796,,3,3.0
Pt,0.0,-0.0701928,,3,3.0
ScGeNb,0.0,-0.0228735,,3,3.0
O3AgTe,1.4851,-0.0182777,,3,3.0
Zn2Nd,0.0,-0.0239902,,3,3.0
CaZn2Au,0.0,-0.0270251,,3,3.0
RuTb2Pt,0.0,-0.0505439,,3,3.0
Mg2LuPt,0.0,-0.0347417999999999,,3,3.0
NaBi,0.0,-0.0417646999999999,,3,3.0
F6Na5Cu,1.4312,-0.007365,,3,3.0
Ta4Ir5,0.0,-0.0698007,,3,3.0
F6SnCs2,6.3938,-0.0176828,,3,3.0
PtHgTl2,0.0,-0.0707856,,3,3.0
Al7Ti,0.0,-0.0089347,,3,3.0
Na2Se4SnHg,1.3669,-0.0248055999999999,,3,3.0
VSe3Cs2,0.8896,-0.0267924,,3,3.0
P2ZrMo,0.0,-0.0225839,,3,3.0
SrRu2U,0.0,-0.0490471,,3,3.0
NaGaTl2,0.0,-0.0413744999999999,,3,3.0
BrSbHg2,0.0,-0.0484444,,3,3.0
S3Pt2Pb,0.0,-0.0412979,,3,3.0
Mg2NdBi2,0.0,-0.0426579,,3,3.0
Si2NiTh,0.0,-0.0338636,,3,3.0
CCdDy2,0.0,-0.0344081,,3,3.0
FeZr2Ta,0.0,-0.0365576,,3,3.0
Zn2DyEr,0.0,-0.0317178,,3,3.0
OFCd,1.57,-0.014926,,3,3.0
CSi2Ba2Os2,0.0,-0.0365434,,3,3.0
AlZrRuPd,0.0,-0.0273708,,3,3.0
O6FeNbBa2,0.8881,-0.0195574,,3,3.0
Cu5Ta,0.0,-0.0237046,,3,3.0
AlCr8Nb3,0.0,-0.0212427,,3,3.0
FeRh,0.0,-0.0262286,,3,3.0
Li2O8V3Cr,0.0,-0.0115518,,3,3.0
ZrAgTl2,0.0,-0.0517838,,3,3.0
O6ScMnBa2,0.0,-0.0177714,,3,3.0
CoSb2Lu,0.0,-0.0373585,,3,3.0
Al2Ag5,0.0,-0.0247165,,3,3.0
Pb4Bi,0.0,-0.0762909,,3,3.0
AlZnAg,0.0,-0.0176040999999999,,3,3.0
O6AlSbBa2,2.0371,-0.0188438,,3,3.0
MnZr2Au,0.0,-0.0376328,,3,3.0
Al2RhTm,0.0,-0.0262528,,3,3.0
Cu4YTl,0.2161,-0.0270584,,3,3.0
CoZn2Eu,0.0,-0.0246343,,3,3.0
O6ZnLa2Pt,2.3779,-0.0232242,,3,3.0
TmHgPb,0.0,-0.0657308,,3,3.0
SrAgIn3,0.0,-0.0311853,,3,3.0
TeI2Pt,0.0,-0.0455029,,3,3.0
NbPdSb,0.0,-0.0347680999999999,,3,3.0
NiCePb,0.3398,-0.0460803,,3,3.0
SnBaAu2,0.0,-0.0541207,,3,3.0
Mn2Os,0.0,-0.0362406,,3,3.0
SiCuDy,0.0,-0.0250443,,3,3.0
In2AuTl,0.0,-0.0521438,,3,3.0
FeIn2Tm6,0.0,-0.0442652,,3,3.0
O8NaNdW2,4.3703,-0.0224557,,3,3.0
AlTc2Ta,0.0,-0.0366424,,3,3.0
B3Si3Nb10,0.0,-0.0246511999999999,,3,3.0
O6Na3MnCoNi,0.0,-0.0102838999999999,,3,3.0
Pd2CdAc,0.0,-0.0471788999999999,,3,3.0
NiRu2Pu2,0.0,-0.0611971,,3,3.0
O5AlCa2Mn,0.0,-0.0115337999999999,,3,3.0
O6TiMnBi2,1.1923,-0.0248673,,3,3.0
Al3Si2NiEu3,0.0,-0.0250042,,3,3.0
Al4Eu,0.0,-0.0172497,,3,3.0
Br2Y2Pb,0.0,-0.035587,,3,3.0
GeInIr,0.0,-0.0414731,,3,3.0
O4LaTh,0.0,-0.03087,,3,3.0
GeBr2Ho2,0.1415,-0.0327899,,3,3.0
Y2PdPt2,0.0,-0.0469988,,3,3.0
FeRu,0.0,-0.0262184,,3,3.0
PdSb2Th6,0.0,-0.0764863,,3,3.0
RbTe2Tm,1.5301,-0.0382854,,3,3.0
O4K3Ru,0.9089,-0.012038,,3,3.0
CaCu4Rh,0.0,-0.0174503999999999,,3,3.0
S6SnSb2Tl2,1.1225,-0.0288019,,3,3.0
Ge2Ag2Pr,0.0,-0.0293678,,3,3.0
CrCoGe,0.0,-0.0183928,,3,3.0
AgPt5,0.0,-0.0636854,,3,3.0
Cl3CrRb,0.0,-0.0143537,,3,3.0
Si2Ni3Pr,0.0,-0.0193535,,3,3.0
Se3Pt2,0.0,-0.04058,,3,3.0
Al2Ni3Ho,0.0,-0.0195082,,3,3.0
S8KMo6,0.0,-0.0204947,,3,3.0
As2SrRh2,0.0,-0.0269774999999999,,3,3.0
Rh2DyHg,0.0,-0.0464297,,3,3.0
O6AsBa2Nd,4.1118,-0.0208005,,3,3.0
Ti3CuRu2,0.0,-0.0227992999999999,,3,3.0
LiAs2Tl2,0.0,-0.0376098,,3,3.0
SnTmPt,0.0,-0.0539416999999999,,3,3.0
MgHoTl,0.0,-0.0426391,,3,3.0
P2Rh2Nd,0.0,-0.0276225999999999,,3,3.0
MgPd2Cd2,0.0,-0.0267059,,3,3.0
O2ClZnSb,3.2281,-0.0156472,,3,3.0
AlYRu,0.0,-0.0241604999999999,,3,3.0
O2TeCe2,0.0,-0.0309225,,3,3.0
SrLaIr4,0.0,-0.0589077,,3,3.0
PCaSe3,2.5002,-0.017093,,3,3.0
SiCu2Zn,0.0,-0.0134579,,3,3.0
Na3Cs,0.0,-0.0125434999999999,,3,3.0
CuSnEr,0.0,-0.0345475,,3,3.0
SrRuSb2,0.0,-0.0335243,,3,3.0
ClBrCd,3.5592,-0.0203979,,3,3.0
PCoHo2,0.0,-0.0322738,,3,3.0
H3TiPd,0.0,-0.012147,,3,3.0
Al3RhU2,0.0,-0.0444442,,3,3.0
KAg2Sb2,0.0,-0.0293663999999999,,3,3.0
RuPd2Sm3,0.0,-0.0396693,,3,3.0
Mg3In,0.0,-0.012224,,3,3.0
O3FNiNb,2.0961,-0.0142755,,3,3.0
MgLaPb2,0.0,-0.0505216,,3,3.0
CuZnI4,0.0,-0.0295838,,3,3.0
O4Cu2As2YTe2,0.0,-0.0194036,,3,3.0
N6Nb2Sm3,0.0,-0.0246826,,3,3.0
O2TiHg,1.2273,-0.0265401,,3,3.0
Al3MnSn2Er3,0.0,-0.0299743,,3,3.0
RhTa8,0.0,-0.0631192,,3,3.0
Fe4CoZr,0.0,-0.0201485,,3,3.0
TiGePt2,0.0,-0.0447494,,3,3.0
O4AlSrSm,3.9922,-0.0176857,,3,3.0
NaCuTe2,0.0,-0.0238467,,3,3.0
ZnZrAu,0.0,-0.0384881,,3,3.0
O6Nb2Hg,2.352,-0.0212826,,3,3.0
OCl2Se,3.3973,-0.0110975,,3,3.0
S3AsTl3,0.959,-0.038381,,3,3.0
ScYPd2,0.0,-0.0278753,,3,3.0
O4NbTh,0.2912,-0.0290041,,3,3.0
AlNb3Mo3Sn,0.0,-0.0311794,,3,3.0
AlYIn,0.0,-0.0235621,,3,3.0
Mn2NdPu,0.0,-0.0475491,,3,3.0
Cl3GaDy3,0.0,-0.0279244999999999,,3,3.0
LiPS4Mn,1.2153,-0.0107853999999999,,3,3.0
N2MoCe,0.0,-0.0255277,,3,3.0
Na2InPt2,0.0,-0.0368091,,3,3.0
Sc2GaHg,0.0,-0.0289232,,3,3.0
O6Sr2SbNp,0.0,-0.025285,,3,3.0
CInLu2,0.0,-0.0391465,,3,3.0
SiMnLu,0.0,-0.028553,,3,3.0
Cl6Rb2Sr,3.1413,-0.0142634,,3,3.0
GaEuIr,0.0,-0.0477391,,3,3.0
YSn2Eu,0.0,-0.0390944,,3,3.0
N3O6CaRb,3.0077,-0.0097886,,3,3.0
S3ZrCs2,2.0699,-0.0242930999999999,,3,3.0
Cl6K2Fe,0.0,-0.0105893999999999,,3,3.0
Ta3Au4,0.0,-0.0682157,,3,3.0
ZnWPt2,0.0,-0.0563476,,3,3.0
NF3Mg3,4.3456,-0.0077864,,3,3.0
O6NiBa2Ta,0.0,-0.0226262,,3,3.0
AgInPt2,0.0,-0.051609,,3,3.0
MgZrSn,0.0,-0.0242832,,3,3.0
GeRuLu,0.0,-0.0373094,,3,3.0
Na3Zn,0.0,-0.0064646,,3,3.0
LiP2Ni2Ba,0.0,-0.0166185,,3,3.0
Be13Tb,0.0,-0.0075626,,3,3.0
LiF6K2Y,7.7939,-0.0103812,,3,3.0
PrBi3,0.0,-0.0702808,,3,3.0
AsY2Cd,0.0,-0.0275497,,3,3.0
Se8Rh3,0.0,-0.0242708,,3,3.0
Cr4Se8AgCd,0.0,-0.0219055,,3,3.0
RbI3Pt,0.0,-0.0409248,,3,3.0
RbSnPt2,0.0,-0.04961,,3,3.0
AlCd2Th,0.0,-0.0413326,,3,3.0
Ag2Ba3,0.0,-0.0364680999999999,,3,3.0
CrTaW2,0.0,-0.0561247,,3,3.0
MgTiCu4,0.0,-0.0137528,,3,3.0
ScZn2In,0.0,-0.0190346,,3,3.0
NaPdSn2,0.0,-0.0276624,,3,3.0
InHfAu,0.6681,-0.0557488,,3,3.0
P2K2SrCd,1.0194,-0.0157338,,3,3.0
Al2Zn2Lu,0.0,-0.0200017,,3,3.0
CaZn2Tb,0.0,-0.0212179,,3,3.0
CdTe2,0.6709,-0.0352237,,3,3.0
CoPd,0.0,-0.0249874,,3,3.0
Si2FeTm6,0.0,-0.0392119,,3,3.0
OAsPdNd,0.0,-0.0277275,,3,3.0
Fe2CuZn,0.0,-0.0162518,,3,3.0
BNNiPu,0.0,-0.0366221,,3,3.0
NaTiSe2,0.0,-0.0164441,,3,3.0
O6MgCr2,1.9372,-0.0110029,,3,3.0
Ni2As2Dy,0.0,-0.0249843,,3,3.0
AgCdTe2,0.0,-0.0342421,,3,3.0
C2S4CoNb4,0.0,-0.0198145999999999,,3,3.0
NaTbHg2,0.0,-0.0473395999999999,,3,3.0
O4Y2Hg,1.6601,-0.0240494,,3,3.0
Cu2ZnGd,0.0,-0.0259238,,3,3.0
KSrI3,4.0425,-0.0298661,,3,3.0
PdLu,0.0,-0.0451421,,3,3.0
SrEuTl2,0.0,-0.0557917,,3,3.0
Al2IPr2,0.0,-0.0286359999999999,,3,3.0
Zn3Pd2Tb,0.0,-0.0261567,,3,3.0
CaSrAg4,0.0,-0.0264668,,3,3.0
ScZr2Os,0.0,-0.0372768999999999,,3,3.0
F6SmEu,0.0,-0.0188471,,3,3.0
LiAs2ErIr2,0.0,-0.0400377,,3,3.0
Y3Ir2,0.0,-0.046083,,3,3.0
TcPt5,0.0,-0.0644415999999999,,3,3.0
CoSe3CsTb,0.0,-0.0284321,,3,3.0
O6Ca2CoRu,0.5252,-0.0130137999999999,,3,3.0
K2BrHg,0.0,-0.027126,,3,3.0
O8CsTmW2,4.9968,-0.0259533999999999,,3,3.0
Cl6CoCuCs2,0.0,-0.0169158,,3,3.0
Y2Rh2Bi,0.0,-0.0412084,,3,3.0
Cl6AsCs3,3.6894,-0.0197809,,3,3.0
TbLuIr2,0.0,-0.0621341,,3,3.0
In2PrAu2,0.0,-0.0503936,,3,3.0
P2Ce,0.0,-0.022892,,3,3.0
OSc3Pt,0.0,-0.0258248,,3,3.0
Na2S4ZnSn,2.4674,-0.0129998,,3,3.0
Cl6ScInCs2,2.7561,-0.019178,,3,3.0
AlSc6Te2,0.0,-0.0193283,,3,3.0
GeEuTa,0.0,-0.046917,,3,3.0
Zn2RhBa,0.0,-0.0254628,,3,3.0
Sc2Ge2Ba,0.0,-0.0219483,,3,3.0
Ge2Au2Np,0.0,-0.0568187,,3,3.0
S3Rb2,1.6694,-0.0150206,,3,3.0
NiGe2Tm6,0.0,-0.0411529,,3,3.0
NbAu8,0.0,-0.0651645,,3,3.0
H6AlRb2Cs,2.6993,-0.0110334,,3,3.0
S4K2CoSn,0.7602,-0.0144561,,3,3.0
Pd3Sb,0.0,-0.0342894,,3,3.0
CaLuHg2,0.0,-0.0510325,,3,3.0
Si3Nd2Pt,0.0,-0.0323503,,3,3.0
Ni4RbSb2,0.0,-0.0230751999999999,,3,3.0
O4SrBi2,2.7985,-0.0309259,,3,3.0
Al5Ru2Th,0.0,-0.0261872,,3,3.0
CCr2Ge2Ho2,0.0,-0.0267467,,3,3.0
MgCo4Ge6,0.0,-0.0173851,,3,3.0
Zn2AgPm,0.0,-0.0259123,,3,3.0
LiSrIn2,0.0,-0.0233689,,3,3.0
Be2As2Cs,0.0,-0.0177612999999999,,3,3.0
MgGeLa,0.0,-0.0230779999999999,,3,3.0
B2N3Fe2Tm3,0.0,-0.0248569,,3,3.0
C4MgCa3,0.0,-0.0093521,,3,3.0
Sn2NdPb,0.0,-0.0482843,,3,3.0
F6CoCs3,2.9995,-0.0179448,,3,3.0
TiGeTe,0.0,-0.0247301,,3,3.0
ZnHoPb,0.0,-0.0466817,,3,3.0
Ni2BaPt3,0.0,-0.0475344,,3,3.0
SiSTh,0.0,-0.0399293,,3,3.0
Al5Ni2Er,0.0,-0.015807,,3,3.0
N3RuCe,0.0,-0.0220795999999999,,3,3.0
NaYCd2,0.0,-0.0234715,,3,3.0
Na2SrPb,0.0,-0.0270493999999999,,3,3.0
TcLa,0.0,-0.0391006,,3,3.0
OAgTeTm,1.5647,-0.0336982,,3,3.0
O7CaGe2Zr,4.726,-0.0137889,,3,3.0
As2SrIr,0.0,-0.0343038,,3,3.0
Fe5Sn,0.0,-0.0210909,,3,3.0
PdCe,0.0356,-0.0394728,,3,3.0
Ag2I4Hg,1.3832,-0.0399432,,3,3.0
PZr2Te2,0.0,-0.0304722,,3,3.0
NaP2Cu2Pu,0.0,-0.0281439,,3,3.0
GeBr3Gd3,0.0,-0.0377072,,3,3.0
K2Br6Nb,0.0,-0.0199197999999999,,3,3.0
NaInPb2,0.0,-0.0474172999999999,,3,3.0
O4CrY,0.0,-0.0147565,,3,3.0
Cl6Rb2Pu,0.0133,-0.024198,,3,3.0
O8S2KGa,5.3438,-0.0096736,,3,3.0
Li3Bi2Th,0.0,-0.0439684,,3,3.0
Co2YGd,0.0,-0.0303702,,3,3.0
NiCuY2,0.0,-0.0221449,,3,3.0
PKBa3,0.0,-0.0279941,,3,3.0
Ge3ErIr,0.0,-0.0364081,,3,3.0
Mg2Cu2Tl,0.0,-0.0226067,,3,3.0
Sm3Tm,0.0,-0.046275,,3,3.0
BePCd2,0.0,-0.0189196999999999,,3,3.0
Li2O9FAl2P2,0.8746,-0.0090993999999999,,3,3.0
O8KV2FeAg2,1.0299,-0.0142968,,3,3.0
AlPd2Ce,0.0,-0.0303934,,3,3.0
LaTlPb2,0.0,-0.0673566,,3,3.0
CoCu2Zr,0.0,-0.0197111,,3,3.0
ScSrIr4,0.0,-0.0540599,,3,3.0
MgCaIr4,0.0,-0.0502757999999999,,3,3.0
NiZn2La,0.0,-0.0220039,,3,3.0
Li2Mg2Al2Ba,0.0,-0.0100502,,3,3.0
CuGeBa,0.0,-0.025006,,3,3.0
PmTm,0.0,-0.047875,,3,3.0
Al3Si2La3Os,0.0,-0.0278356999999999,,3,3.0
TiAs2Zr2,0.0,-0.0246424999999999,,3,3.0
Si6Ba,0.0,-0.0142852999999999,,3,3.0
HSiCaGa,0.3199,-0.0103003,,3,3.0
LiZn2La2,0.0,-0.0233636,,3,3.0
ONaAsBa2,0.0597,-0.0235981,,3,3.0
AlCu2Zr,0.0,-0.0176877,,3,3.0
Zn2Sm2Hg,0.0,-0.0372783999999999,,3,3.0
PdLu2Ir,0.0,-0.0548328,,3,3.0
GaRh2Pr2,0.0,-0.0349587,,3,3.0
F4KGa,6.3356,-0.0094104,,3,3.0
Al3Si2Nd2,0.0,-0.0191732,,3,3.0
NiCuLa,0.0,-0.0250583,,3,3.0
F7Rb3Nb,0.4518,-0.0140097,,3,3.0
Se3InSn,0.3435,-0.0263116999999999,,3,3.0
ScPb2,0.0,-0.0556614,,3,3.0
AgCdHg2,0.0,-0.0494994,,3,3.0
HRh3Hf,0.0,-0.0342446,,3,3.0
ZnNd6Bi2,0.0,-0.0485976,,3,3.0
Pd8Ho,0.0,-0.0350098,,3,3.0
MgCd2Pr,0.0,-0.0277233,,3,3.0
MgZr6Sb2,0.0,-0.0297097,,3,3.0
O2Na2KCu,1.9705,-0.0086662,,3,3.0
OTi3Ir,0.0,-0.0267652,,3,3.0
Al3Y2Ir,0.0,-0.0258996,,3,3.0
AlNiHo,0.0,-0.0249745,,3,3.0
Ti3Tc,0.0,-0.0210806,,3,3.0
Nb2In4Ho,0.0,-0.035841,,3,3.0
Zr5Ce,0.0,-0.0329332,,3,3.0
Na2SiS4Mn,1.8641,-0.0105631,,3,3.0
O4CaIBi2,0.0,-0.0300584,,3,3.0
B6Ru2Pu,0.0,-0.0252991999999999,,3,3.0
Si3RhSm,0.0,-0.0225170999999999,,3,3.0
O6NaSc2Bi,1.9647,-0.0173496,,3,3.0
Al5KBa5,0.0,-0.022382,,3,3.0
AsSr3I3,1.4773,-0.0298736,,3,3.0
GaCe2Au,0.0,-0.0442764999999999,,3,3.0
PdLaBi,0.4176,-0.0526394,,3,3.0
O2RbGd,3.5299,-0.0258843,,3,3.0
CdTbAu2,0.0,-0.0546925,,3,3.0
H4MgRh3,0.0,-0.0152223,,3,3.0
SiSePt,1.2661,-0.0342093,,3,3.0
S3MnSr,0.0,-0.0152533,,3,3.0
H3CoNd,0.0,-0.0147277,,3,3.0
Rh4CdTb,0.0,-0.0358446,,3,3.0
F6Rb3Rh,2.9716,-0.0143097,,3,3.0
O4RhCs3,1.3494,-0.0227604,,3,3.0
KTe3Au,0.383,-0.0383287,,3,3.0
ScAsY,0.0,-0.0219037,,3,3.0
AgHo2Au,0.0,-0.05039,,3,3.0
O6Sr2BiPa,2.3893,-0.0287657999999999,,3,3.0
O6MgBa2Pa,0.0,-0.0252958,,3,3.0
Ni3Pt4,0.0,-0.0471571,,3,3.0
Br2Ce2Pb,0.0,-0.0421579,,3,3.0
Sc4GeSe3,0.0,-0.0186619999999999,,3,3.0
O4CuZnBa2,0.0,-0.0185491,,3,3.0
NaNdPb2,0.0,-0.0503455,,3,3.0
Sc3RhOs2,0.0,-0.0374341,,3,3.0
NiGaTa,0.0,-0.0334255,,3,3.0
PPd5Dy,0.0,-0.0325574999999999,,3,3.0
F6Cs3U,0.0,-0.0269382,,3,3.0
NiCu2Se4,0.0,-0.0183006,,3,3.0
Si3ScNi2,0.0,-0.0134672,,3,3.0
VGaOs2,0.0,-0.0447937999999999,,3,3.0
Co2Se2Rb,0.0,-0.0195864,,3,3.0
Rb2Sb3,0.0,-0.0310481,,3,3.0
LiSr3,0.0,-0.0172743,,3,3.0
S4KCu6,0.0,-0.0129499,,3,3.0
LiNa2Pd3,0.0,-0.0184642,,3,3.0
Sc2Zn2Ag,0.0,-0.0177512,,3,3.0
Ni3AsCd2,0.0,-0.0217204,,3,3.0
ZrHg2Tl,0.0,-0.0600163,,3,3.0
S4Ba2Lu,0.0,-0.0267944,,3,3.0
In2DyTh,0.0,-0.0530323,,3,3.0
LiGa2Pt2,0.0,-0.035879,,3,3.0
Li2GeTl,0.0,-0.024307,,3,3.0
CuY2Sb,0.0,-0.0278096,,3,3.0
YRhHf,0.0,-0.0421601,,3,3.0
H6Mg2Mn,0.0,-0.005687,,3,3.0
Cu2Dy3Tl3,0.0,-0.0492588999999999,,3,3.0
Al3Si2PdEr3,0.0,-0.0261136,,3,3.0
Si2GdOs,0.0,-0.0384544,,3,3.0
Ru2LaTa,0.0,-0.0451543,,3,3.0
GeBr3Pr3,0.0,-0.0311932,,3,3.0
LiSi2Fe2,0.0,-0.0119915,,3,3.0
NaSb2Au2,0.0,-0.0436492,,3,3.0
GaSePd5,0.0,-0.0289939,,3,3.0
IrBiTh,0.0,-0.0827928,,3,3.0
H2,0.0,-0.0026425,,3,3.0
Li2Se,3.4586,-0.0097045,,3,3.0
Ti2Fe3Ir,0.0,-0.0266884,,3,3.0
O7NaP2Tm,6.0512,-0.0139048,,3,3.0
PIrNp,0.0,-0.063516,,3,3.0
LiP2Cu2Er,0.0,-0.0182007,,3,3.0
TiCr4Nb,0.0,-0.0205214,,3,3.0
HBrBa,3.394,-0.0224423999999999,,3,3.0
O4Mg2V,0.0,-0.0103169,,3,3.0
B2Ta,0.0,-0.0277745,,3,3.0
CrCo3Se4,0.0,-0.0190777,,3,3.0
Al3Hf4,0.0,-0.0395501999999999,,3,3.0
O7PdTb4,1.0607,-0.0252535999999999,,3,3.0
Cr4ZrMo,0.0,-0.0231071,,3,3.0
VMn2Ge,0.0,-0.0186418,,3,3.0
Al2Ni3,0.0,-0.0134059,,3,3.0
S2Ni,0.0,-0.012187,,3,3.0
SiCu2Pt,0.0,-0.0279896,,3,3.0
MnGa2Nb6,0.0,-0.0279997,,3,3.0
Be2P2Ca,0.9856,-0.0086977,,3,3.0
H3O10NaCu2,0.0,-0.0071128,,3,3.0
CaGeBr4,2.8773,-0.019159,,3,3.0
CaSe2Tl,0.0,-0.0317958,,3,3.0
F6RhPr,2.7453,-0.0152928,,3,3.0
P2PdTh,0.0,-0.0383974,,3,3.0
Pd2BiTh,0.0,-0.060692,,3,3.0
AlSr2Ir,0.0,-0.0313886,,3,3.0
Li2MgGe,0.1742,-0.0075644,,3,3.0
S3SnHo4,0.0,-0.0344251999999999,,3,3.0
Pd2TmTl,0.0,-0.0481524,,3,3.0
Zn2IrAu,0.0,-0.0420638,,3,3.0
As2Zr2Hf,0.0,-0.0339776,,3,3.0
NbSnGd,0.0,-0.043189,,3,3.0
O3CuTe,0.5641,-0.015153,,3,3.0
Rh4HgPu,0.0,-0.0524018,,3,3.0
O6Sr2PdTb,0.0,-0.0185203,,3,3.0
Cl6MnCuRb2,0.0,-0.0138735,,3,3.0
CdHo2,0.0,-0.0431086,,3,3.0
ClNiTe,0.0,-0.0209867,,3,3.0
HIDy,0.0,-0.0304463,,3,3.0
CaCd2Er,0.0,-0.0306374,,3,3.0
B2O6HfPb,4.6064,-0.0218218999999999,,3,3.0
Co3Rh5,0.0,-0.0275452,,3,3.0
ClSc3,0.0,-0.0133856,,3,3.0
F6K2Gd,0.0,-0.0139749,,3,3.0
Mn3Ge,0.0,-0.0186253,,3,3.0
MgCuZn4,0.0,-0.0124515999999999,,3,3.0
Ga2Pd3Dy,0.0,-0.030633,,3,3.0
TeLu2,0.0,-0.0500767,,3,3.0
PdPr2Ir,0.0,-0.048398,,3,3.0
OK2As2Y2,0.0766,-0.0187347,,3,3.0
NaP2Ni2Y,0.0,-0.0150681,,3,3.0
Al3PdSn2Gd3,0.0,-0.034588,,3,3.0
OClPa,0.0,-0.0406367,,3,3.0
Ni2Se2Rh,0.0,-0.0214388,,3,3.0
GeI2Ho2,0.1616,-0.0394249999999999,,3,3.0
NaAlBr6Rb2,3.3328,-0.0186524,,3,3.0
Rh2Ba2Pb,0.0,-0.0448819,,3,3.0
LiCaRh,0.0,-0.0154741,,3,3.0
SrLa5,0.0,-0.0395497,,3,3.0
Al5Zn2Eu,0.0,-0.0151654,,3,3.0
CrTaOs2,0.0,-0.0574526,,3,3.0
Si3P3Co,1.5272,-0.0115459999999999,,3,3.0
Na4Sb2Hg,0.9856,-0.0232408,,3,3.0
GaGePm2,0.0,-0.0315055,,3,3.0
S3Mn2Tl,0.0,-0.0236262,,3,3.0
O4VCu2Ga,0.1819,-0.012817,,3,3.0
Ca3NiBa,0.0,-0.0169444,,3,3.0
Mn3GeU2,0.0,-0.0470202,,3,3.0
AsRbHg,0.0,-0.036843,,3,3.0
Te5Dy2,0.0,-0.0413951,,3,3.0
O7Al2As2Sr,4.6744,-0.0127102,,3,3.0
As2Tb6Os,0.0,-0.0444841,,3,3.0
O4VLa,3.3922,-0.0175706,,3,3.0
HAgPt3,0.0,-0.0489553,,3,3.0
SrCd4La,0.0,-0.0315696,,3,3.0
O4Sb2IGd,1.0335,-0.0263702,,3,3.0
CaCu2In5,0.0,-0.0260683,,3,3.0
O6Nb4Ba,0.0,-0.021619,,3,3.0
As2YZr,0.0,-0.026229,,3,3.0
Ag2SnPr,0.0,-0.0359539,,3,3.0
LiAgIn,0.0,-0.0226418,,3,3.0
HRh3Pt,0.0,-0.0349675,,3,3.0
N2ScHf,0.0,-0.0260389,,3,3.0
PdDy3Ir2,0.0,-0.0540778,,3,3.0
TiFeSe4,0.0,-0.0197776,,3,3.0
SrLuHg2,0.0,-0.0540893,,3,3.0
Ti3Sn3Ir2,0.0,-0.0378949,,3,3.0
Si3AgDy2,0.0,-0.0268214,,3,3.0
Se2RbY,2.2746,-0.024198,,3,3.0
RhInSn2,0.0,-0.0349945,,3,3.0
ScCdPt,0.0,-0.0392299,,3,3.0
O2K2Fe,0.8683,-0.0108493,,3,3.0
BeI2,4.502,-0.0265589,,3,3.0
PPd5Ce,0.0,-0.0319526,,3,3.0
LiAlAg,0.0,-0.0140668,,3,3.0
H8Mg2FeU,0.0,-0.0134726999999999,,3,3.0
YAg2La2,0.0,-0.0356171,,3,3.0
Li2NaTl,0.0,-0.0205973,,3,3.0
LiRbTe2,0.0,-0.0253063,,3,3.0
Cl2Fe,0.3569,-0.0123228,,3,3.0
F6K2GaTl,4.6214,-0.0153582,,3,3.0