formula,bg,formation_energy,mp-id,fidelity,bg_category
Zr3Ru2Hg,0.0,-0.0389421,,3,3.0
RuEr6Bi2,0.0,-0.0555431,,3,3.0
ScMn4,0.0,-0.0174427999999999,,3,3.0
TiTa,0.0,-0.0412446,,3,3.0
N2PrEr,0.0848,-0.0298365,,3,3.0
LiGa4La,0.0,-0.0190982,,3,3.0
NAlEr3,0.0,-0.0347018,,3,3.0
Y3Rh,0.0,-0.0298388999999999,,3,3.0
Fe2InEr,0.0,-0.0302699,,3,3.0
ScW2,0.0,-0.0511714,,3,3.0
MgSc2Au2,0.0,-0.0352979,,3,3.0
O6MgPdTb2,2.5401,-0.0195936,,3,3.0
O3BaHo,0.0,-0.0244586,,3,3.0
Si2Ru2Ba,0.0,-0.0265429,,3,3.0
HRu3Pt,0.0,-0.03554,,3,3.0
O4PrTa,4.3751,-0.0259559,,3,3.0
P12Fe4Ce,0.6184,-0.0148659,,3,3.0
CaY2Tc,0.0,-0.0251054,,3,3.0
CTi2Ga,0.0,-0.0154787,,3,3.0
Ti6CoSe2,0.0,-0.017791,,3,3.0
SrPt5,0.0,-0.0628251,,3,3.0
Fe2As,0.0,-0.0188779,,3,3.0
O7Fe2As2Sr,1.5169,-0.0136937,,3,3.0
LiMgAuTl,0.0,-0.0376664,,3,3.0
Cu3YAu2,0.0,-0.0357533,,3,3.0
Pr2IrAu,0.0,-0.0575409999999999,,3,3.0
Al3Er2Os,0.0,-0.0333333,,3,3.0
Al3Si2ZnNp3,0.0,-0.0420146999999999,,3,3.0
Ti2Ga4Pr,0.0,-0.0207083,,3,3.0
Ga2SmIr2,0.0,-0.0447458,,3,3.0
Y6PdBi2,0.0,-0.0404159999999999,,3,3.0
ClCa2La,0.0,-0.0185063,,3,3.0
HNaPd,0.0,-0.0137168,,3,3.0
LiO7As2Tb,4.0615,-0.0142481,,3,3.0
LiP2SrAu2,0.0,-0.0314059,,3,3.0
O7Ba3Er2,0.0,-0.0249151,,3,3.0
Ca2CuAu,0.0,-0.0265020999999999,,3,3.0
NiAsRh,0.0,-0.0238729,,3,3.0
O4ScCu2Te2Bi2,0.0,-0.0287077,,3,3.0
Ni2CuY3,0.0,-0.0221909,,3,3.0
Mg4Pb,0.0,-0.0192455,,3,3.0
Sn2Pr2Tl,0.0,-0.0469048,,3,3.0
LiP2Ni2Pr,0.0,-0.0174599,,3,3.0
Mg2Sn,0.0611,-0.015531,,3,3.0
Ga3Ge2Er3Re,0.0,-0.0350275,,3,3.0
NiZn2Pr,0.0,-0.0220314,,3,3.0
O4ErPa,2.9813,-0.0331975,,3,3.0
Al3Ge2Sr3Ag,0.0,-0.0181731,,3,3.0
BTm3Tl,0.0,-0.0474462,,3,3.0
Al2Sc6Rh,0.0,-0.0154532,,3,3.0
O6TiSr2Pt,1.5806,-0.0194331999999999,,3,3.0
AlYAg2,0.0,-0.0249922,,3,3.0
CoHfIr2,0.0,-0.0562558,,3,3.0
O14Al4Ta3,0.0,-0.018225,,3,3.0
Cu2Rh3Tb,0.0,-0.0300813,,3,3.0
Ge5Sr,0.0,-0.0197632,,3,3.0
CN2IPr,2.4186,-0.0227882,,3,3.0
Zn3Pd2U,0.0,-0.035206,,3,3.0
H6O7P2Ca,6.9471,-0.0077021,,3,3.0
Be3Cu4,0.0,-0.0106691,,3,3.0
F6KRb2Nb,0.8116,-0.0133933,,3,3.0
OY3,0.0,-0.0239719,,3,3.0
NO2SrRe,0.0,-0.0247341,,3,3.0
Ag2Sn2La,0.0,-0.0360288,,3,3.0
HSbBa,0.5177,-0.0274851,,3,3.0
O6SbEu2Dy,0.5943,-0.0258311,,3,3.0
H4O2Br2Ba,5.2229,-0.0131859,,3,3.0
Co2In3Tb2,0.0,-0.0328906,,3,3.0
Cd2BaLa,0.0,-0.036234,,3,3.0
O4CrTl3,0.0,-0.0339084999999999,,3,3.0
Se2InNd,0.5862,-0.0307148,,3,3.0
LiCdTl,0.0,-0.0352351,,3,3.0
O6Sr2SmOs,0.5288,-0.0224382,,3,3.0
LiB3N6Ba4,2.4963,-0.0182232999999999,,3,3.0
RuSb2Th,0.0,-0.0520249,,3,3.0
Li2PK,1.51,-0.006537,,3,3.0
SiRh3Sm2,0.0,-0.0343874,,3,3.0
Al7Ni2Sr3,0.0,-0.0131396,,3,3.0
ScHf,0.0,-0.0384219,,3,3.0
Si2NiTa2,0.0,-0.0344953,,3,3.0
OF5ZrCs3,4.9194,-0.020114,,3,3.0
H2CaPd,0.0,-0.0129585,,3,3.0
CV,0.0,-0.0142992,,3,3.0
BO3Mn,0.2438,-0.0112615,,3,3.0
GeBaAu2,0.0,-0.0498744999999999,,3,3.0
N2CePu,0.0,-0.0448058,,3,3.0
Al3Sn2Lu3Au,0.0,-0.0374045,,3,3.0
Li4B2O6Mn,2.961,-0.0085785,,3,3.0
Al4LaPr,0.0,-0.0201032,,3,3.0
Ga2RhPr,0.0,-0.0282884999999999,,3,3.0
F6CuNd,2.0802,-0.0129526,,3,3.0
CSbTh2,0.0,-0.0603739,,3,3.0
O8RbMo2Gd,4.379,-0.0191806,,3,3.0
OCuSeEr,1.7261,-0.0251534,,3,3.0
O4AlSrPr,3.7404,-0.017503,,3,3.0
MgCuPt2,0.0,-0.0407688,,3,3.0
GaBrLa,0.0,-0.0278098,,3,3.0
H8FeZn2Np,0.0,-0.0149846,,3,3.0
Co4HoHg,0.0,-0.0311021,,3,3.0
SbCePt,0.0,-0.0519787,,3,3.0
PSr2Ir,0.0,-0.0323265,,3,3.0
CuPdCd2,0.0,-0.0273767,,3,3.0
Mn2SeBr2,0.7726,-0.0201842,,3,3.0
Si4Co4Ce3,0.0,-0.0226818999999999,,3,3.0
BeAs2Sb,0.0,-0.020497,,3,3.0
GaIDy,0.0,-0.0347864,,3,3.0
Fe4ZrHf,0.0,-0.0279237,,3,3.0
MnFe2W,0.0,-0.0310447999999999,,3,3.0
Y2InIr,0.0,-0.0409024,,3,3.0
Ga5PdPr,0.0,-0.0231144,,3,3.0
Al2Dy,0.0,-0.0216511,,3,3.0
Si2CoDy,0.0,-0.022041,,3,3.0
Mg2CuY,0.0,-0.0134281,,3,3.0
Li2GePb,0.0,-0.0251945,,3,3.0
Ni4ZnDy,0.0,-0.0213728,,3,3.0
TiCuRbTe3,0.0,-0.0280504,,3,3.0
P2Fe2Tb,0.0,-0.0217304,,3,3.0
Cl4Cs2Ba,5.2019,-0.0233897,,3,3.0
C2ClEr2,0.0,-0.0268174999999999,,3,3.0
Al2MnTb,0.0,-0.0205984,,3,3.0
Rh5Cd,0.0,-0.0331944,,3,3.0
O2FeCu,0.0997,-0.0126279,,3,3.0
B2Al2Fe,0.0,-0.0098882,,3,3.0
Se2SmTl,1.3068,-0.0407873,,3,3.0
O6MgCoSr2,0.0,-0.0126263,,3,3.0
Ag4Gd,0.0,-0.037036,,3,3.0
ScMnNi4,0.0,-0.0166362,,3,3.0
Be2STe,2.5053,-0.0146693,,3,3.0
Al4Si2Sc3,0.0,-0.0109558,,3,3.0
MgCa2As2,1.5623,-0.0141479,,3,3.0
Al2Ti6Mn,0.0,-0.014676,,3,3.0
Rh2CdTl,0.0,-0.0426186999999999,,3,3.0
Al3Co2Y,0.0,-0.0147806999999999,,3,3.0
Al7Sc,0.0,-0.0087502,,3,3.0
As2Cd2Pu,0.0,-0.0426485,,3,3.0
Li4OF4Co,0.0,-0.0074322,,3,3.0
Li2S4W,2.0216,-0.0170908,,3,3.0
LaPrPb2,0.0,-0.0602752,,3,3.0
LiBOs,0.0,-0.0274135,,3,3.0
Si2LaPt2,0.0,-0.0420188,,3,3.0
AgCd2Th,0.0,-0.0471891,,3,3.0
LiO6Eu2Re,0.0,-0.024399,,3,3.0
CrCo2Os,0.0,-0.0311268,,3,3.0
NiRu2Ta,0.0,-0.0384097999999999,,3,3.0
Ni2Tm,0.0,-0.028582,,3,3.0
TiCoGaPt,0.0,-0.0308295,,3,3.0
F6ScSr,0.0,-0.0107012,,3,3.0
OTm3Pt,0.0,-0.0483916,,3,3.0
S3Ni2Tl,0.2443,-0.0227367,,3,3.0
SiMoOs,0.0,-0.0392652,,3,3.0
B2CrNb2,0.0,-0.0205448,,3,3.0
OBrAgPb,0.6597,-0.0339179,,3,3.0
Mn2BrDy2,0.0,-0.0309477,,3,3.0
EuPtBi2,0.0,-0.0708995,,3,3.0
GeSe,0.0,-0.0198079,,3,3.0
CuSe3SrSm,1.2515,-0.0254369,,3,3.0
Cl4Rh,0.0,-0.0136942,,3,3.0
Pd2Sn2Tb,0.0,-0.0375958,,3,3.0
Si2Co3Sr,0.0,-0.0159826,,3,3.0
BNSmOs,0.0,-0.0343286,,3,3.0
Ga2YAg,0.0,-0.0235628,,3,3.0
FeInLa3,0.0,-0.0364037,,3,3.0
O4K3Au,0.0,-0.0159032,,3,3.0
SnDyPt2,0.0,-0.0571725,,3,3.0
Al3Si2FeHo3,0.0,-0.023811,,3,3.0
NiAs2Dy6,0.0,-0.0389291,,3,3.0
B4Cr,0.0,-0.0099372,,3,3.0
Li2F6Pa,1.5563,-0.0175911,,3,3.0
Br2Y2Bi,0.0,-0.0361593,,3,3.0
SiNdAu,0.0,-0.041936,,3,3.0
O6Se2RbCs3,4.5555,-0.0192841999999999,,3,3.0
O3SrRu,0.0,-0.0172341,,3,3.0
NiCu2La,0.0,-0.0226225,,3,3.0
O6Cu2Ba3Hg,0.0,-0.0230102,,3,3.0
O6NiPdNd2,0.4707,-0.0197054,,3,3.0
FeCoSeBa2,0.0,-0.0270628999999999,,3,3.0
Ga2BaTl2,0.0,-0.0438145999999999,,3,3.0
Ge2SrAg,0.0,-0.023386,,3,3.0
BCCoZr,0.0,-0.0170305,,3,3.0
Li2NNaRh,0.0,-0.0106939,,3,3.0
O9SrTa2Bi2,2.5845,-0.0288415,,3,3.0
Pd2SbLa2,0.0,-0.038884,,3,3.0
S3Ag3Sb,0.6185,-0.0230565,,3,3.0
TiTcW,0.0,-0.0407028,,3,3.0
YIn5Au,0.0,-0.0380970999999999,,3,3.0
BePTc2,0.0,-0.021712,,3,3.0
Te2Tb6Os,0.0,-0.0482596,,3,3.0
NaCdBi,0.0,-0.0380832,,3,3.0
B2CCo2Sm,0.0,-0.0177099,,3,3.0
O6Sr2RhCd,0.3936,-0.0164377,,3,3.0
F6SiBa,8.638,-0.0126191999999999,,3,3.0
Cl2SeAg2Cd,1.3092,-0.0220932,,3,3.0
Cu2Zn3Ba,0.0,-0.0185069,,3,3.0
NO2BaTa,1.3726,-0.0281453999999999,,3,3.0
PdIn5Nd,0.0,-0.0352952,,3,3.0
SZnPd5,0.0,-0.0270613,,3,3.0
RuRhLu2,0.0,-0.0457419,,3,3.0
NaRhSn,0.0,-0.0250279999999999,,3,3.0
B2MgIr2,0.0,-0.0329504,,3,3.0
ZnYCd,0.0,-0.0244169,,3,3.0
Mg4CaCu,0.0,-0.0075766,,3,3.0
Zn2Ga3,0.0,-0.0151165,,3,3.0
KGa3Os,0.0,-0.0262093999999999,,3,3.0
O2SePu2,0.0,-0.0532002,,3,3.0
AlCu8,0.0,-0.0144845,,3,3.0
BeMg2Sc,0.0,-0.0070827999999999,,3,3.0
ScAsNd,0.0,-0.0271362,,3,3.0
SePd8In2,0.0,-0.0321597999999999,,3,3.0
FeZnPa,0.0,-0.0438126,,3,3.0
SiLu2Ir2,0.0,-0.0537841,,3,3.0
S3TiZnCs,0.1156,-0.0173655,,3,3.0
Ni3U2,0.0,-0.0512757,,3,3.0
Li2CdBa,0.0,-0.0188791,,3,3.0
SrI4Cs2,4.2779,-0.0367547,,3,3.0
O6Ca2MoDy,0.0,-0.0169864999999999,,3,3.0
H2Hf2Ta,0.0,-0.0400238,,3,3.0
Li4MgLa,0.0,-0.0096099,,3,3.0
NaMgKTe2,2.2551,-0.0194543,,3,3.0
O6ClSb4Cs,3.2243,-0.0208169,,3,3.0
Al3Si2Er3Os,0.0,-0.0303961,,3,3.0
MgRh2Bi,0.0,-0.0380572999999999,,3,3.0
HNTb2,0.0,-0.0277359,,3,3.0
MgCu2Cd2,0.0,-0.0192657,,3,3.0
Li2InCe,0.0,-0.0209701,,3,3.0
Si2Sc2Cd,0.0,-0.016439,,3,3.0
O4CoRb,0.7051,-0.0112504,,3,3.0
LiTcPr2,0.0,-0.0309287,,3,3.0
Ir5Pt4,0.0,-0.0705958,,3,3.0
CN2O2Lu2,4.3897,-0.0241923,,3,3.0
CSc2Zn,0.0,-0.0134647,,3,3.0
PPt5Tl,0.0,-0.0622076,,3,3.0
PCa2Ag,0.0,-0.0160813,,3,3.0
SCl2Tb2,0.0,-0.026106,,3,3.0
CRu3La,0.0,-0.0315722,,3,3.0
AlTb,0.0,-0.0277057,,3,3.0
SbPrAu,0.0,-0.0509931,,3,3.0
SiFeIr,0.0,-0.0335055,,3,3.0
N3MoNd,1.3718,-0.0223385,,3,3.0
F7Na3La,0.1338,-0.0104467,,3,3.0
GaInTe2,0.0,-0.0313224,,3,3.0
Ca2Au2Tl,0.0,-0.0468149999999999,,3,3.0
Ga3Pd5,0.0,-0.0272321999999999,,3,3.0
Na3Se2Au,2.43,-0.0213655,,3,3.0
NaPt7,0.0,-0.0620665,,3,3.0
GeTbOs,0.0,-0.0465469,,3,3.0
SeSbLu,0.0,-0.0388949,,3,3.0
Be4NiIr,0.0,-0.0179454,,3,3.0
Co3Ge2Dy,0.0,-0.0234237,,3,3.0
Al2ZnBa2,0.0,-0.021815,,3,3.0
GeAs,0.4188,-0.0196782,,3,3.0
As2Cd2Eu,0.0,-0.0317027,,3,3.0
Zn3DyAu2,0.0,-0.0383766,,3,3.0
BeNa2Pt2,0.0,-0.0310858,,3,3.0
Zn6Ge3Tb2,0.0,-0.0215349,,3,3.0
Fe5W,0.0,-0.0267021,,3,3.0
F6NaK2V,0.0,-0.0091153,,3,3.0
CrSn2Tm6,0.0,-0.0449884,,3,3.0
CaPdCd2,0.0,-0.0263673,,3,3.0
Si2Sc2Nb,0.0,-0.0170215,,3,3.0
KCs2Bi,0.271,-0.0410838,,3,3.0
N3NbPr,0.0,-0.0220065999999999,,3,3.0
CaCu3Zn2,0.0,-0.0139299,,3,3.0
C4RhNd3,0.0,-0.0259861,,3,3.0
P3K2,0.9169,-0.0101154,,3,3.0
KSn2Pt3,0.0,-0.0488763,,3,3.0
O6TeBa2Ce,0.9997,-0.0225167,,3,3.0
Se3SbTm4,0.0,-0.0397727,,3,3.0
Y4Sb3,0.0,-0.0330083,,3,3.0
Al2Cu2Pr,0.0,-0.0183229,,3,3.0
O8As3Rb,2.9341,-0.0123447,,3,3.0
CaGa6Ir,0.0,-0.0228473,,3,3.0
CuAs2Sr,0.0,-0.020173,,3,3.0
MnPdTe,0.0,-0.0299769,,3,3.0
MgCoSe,0.0,-0.0143409,,3,3.0
Al2Ca2Br,0.0,-0.0116922,,3,3.0
Al3Si2MnNd3,0.0,-0.021992,,3,3.0
B3Pm,0.0,-0.0166815,,3,3.0
TiCoPd2,0.0,-0.0251853,,3,3.0
Al3Au7,0.0,-0.0511174999999999,,3,3.0
Si2Pd2Th,0.0,-0.0372708,,3,3.0
V2CrFe,0.0,-0.0180327,,3,3.0
MgZn4Tm,0.0,-0.0187876,,3,3.0
S3Nb2,0.0,-0.0202135999999999,,3,3.0
NaClKBr,5.0791,-0.0119328,,3,3.0
AlPd2Gd2,0.0,-0.0390848,,3,3.0
CoNiTa4,0.0,-0.0502015,,3,3.0
AgSnLa,0.0,-0.0375741,,3,3.0
Cu3Se2,0.0,-0.0173101,,3,3.0
CTi2Sb,0.0,-0.0206276,,3,3.0
Tc5Os,0.0,-0.0412504,,3,3.0
N3O6RbCd,2.6329,-0.0112859,,3,3.0
MgIn,0.0,-0.0193668,,3,3.0
Se2CsIrHg,0.7436,-0.0440208,,3,3.0
LiBe4Pt,0.0,-0.0155479,,3,3.0
MgInEu2,0.0,-0.0368021,,3,3.0
MgSn2Ir,0.0,-0.0373847999999999,,3,3.0
LaTbPb2,0.0,-0.0610876,,3,3.0
LiNCa3,0.0,-0.0086598,,3,3.0
Si2TiMo2,0.0,-0.0216452,,3,3.0
RbInTl2,0.0,-0.0497878,,3,3.0
F3Sr,1.4469,-0.0113192,,3,3.0
Cd2TbIr,0.0,-0.0451400999999999,,3,3.0
CaSmTl2,0.0,-0.0503113,,3,3.0
GaCeAu,0.0,-0.0442645,,3,3.0
PHfOs,0.0,-0.0493228999999999,,3,3.0
Sn2LuAu2,0.0,-0.0536977,,3,3.0
K2GeCdTe4,0.6307,-0.0275763,,3,3.0
Ni2Y2Tl,0.0,-0.0326208,,3,3.0
TiNi2,0.0,-0.0165351,,3,3.0
Mg2Ag2Hg,0.0,-0.0283631999999999,,3,3.0
Al4CrDy,0.0,-0.0165208,,3,3.0
KPd2Pb2,0.0,-0.045293,,3,3.0
MgIn2Ho,0.0,-0.0306014,,3,3.0
O4ILaBi2,1.5285,-0.0347,,3,3.0
CTa,0.0,-0.0389318,,3,3.0
B2N3Co2Th3,0.0,-0.0377055,,3,3.0
N2TiBa,0.8352,-0.0200539,,3,3.0
Ga2Nb,0.0,-0.0223322,,3,3.0
Li2N2Pu,0.0,-0.0276676,,3,3.0
Na3RbCd,0.0,-0.0127578999999999,,3,3.0
AlSiP3,0.5835,-0.0101719,,3,3.0
Zn2Sm,0.0,-0.0242913999999999,,3,3.0
HCaBa3,0.0,-0.0264847,,3,3.0
ClCa2Pb,0.0,-0.027179,,3,3.0
Te3CsHfAu,0.159,-0.0477605,,3,3.0
O3AsCs,3.4439,-0.0169838,,3,3.0
Co2GaU,0.0,-0.0387604,,3,3.0
O3Al2,6.9772,-0.0102085,,3,3.0
O8RbMo2Lu,4.4357,-0.0189575999999999,,3,3.0
HSeY,1.9929,-0.018782,,3,3.0
Br2ITl,2.0184,-0.0374553,,3,3.0
Te3Nd4Bi,0.0,-0.0470625,,3,3.0
B3CrCo,0.0,-0.0119294,,3,3.0
B2O4ClPr,5.7603,-0.0143232999999999,,3,3.0
BCNiNd,0.0,-0.0197806,,3,3.0
ZnYAg2,0.0,-0.0262937,,3,3.0
P2K4Ba,1.1973,-0.013861,,3,3.0
TiCo2,0.0,-0.0171203,,3,3.0
CoCuLu2,0.0,-0.0361094999999999,,3,3.0
CdDy,0.0,-0.0395351,,3,3.0
O4YNd,2.7919,-0.0191327,,3,3.0
Li2O12P4Cu,2.2201,-0.0094743,,3,3.0
Co2Dy4Tl5,0.0,-0.0537755,,3,3.0
Sm3Ho,0.0,-0.0455651,,3,3.0
Be12Ta,0.0,-0.0092596,,3,3.0
O6GaTeTb,3.746,-0.0175554999999999,,3,3.0
AsTh,0.0,-0.059491,,3,3.0
Al11Ti5,0.0,-0.0107695,,3,3.0
RuDy2Au,0.0,-0.0506407,,3,3.0
Al5NiZr,0.0,-0.0127502,,3,3.0
H2MnZr2,0.0,-0.0177016999999999,,3,3.0
P2MoRu,0.0,-0.0231654,,3,3.0
Si2RbPd3,0.0,-0.0237266,,3,3.0
Li5O10Mn2Co3,0.3425,-0.0101066,,3,3.0
GaY2Au,0.0,-0.036217,,3,3.0
BrSb3Hg2,0.7313,-0.0447629,,3,3.0
Si3RhNp,0.0,-0.0346179,,3,3.0
FeGa2Hf,0.0,-0.0287779999999999,,3,3.0
O2SeTb2,2.4453,-0.0286458,,3,3.0
LaPb2,0.0,-0.0656221,,3,3.0
CoY2Hg,0.0,-0.0357715,,3,3.0
Ga3Ge2Zr3Ir,0.0,-0.0285623,,3,3.0
Si4Ni2Pd,0.0,-0.0154693,,3,3.0
H2Sc3Pb,0.0,-0.0215523,,3,3.0
Li4LaTl,0.0493,-0.0210479999999999,,3,3.0
F6CuPd,0.1174,-0.0102339,,3,3.0
NiGe2U,0.0,-0.0397659999999999,,3,3.0
ClSeTm,2.5792,-0.0289109,,3,3.0
Y5Ir,0.0,-0.0354152,,3,3.0
S4VCr2,0.0,-0.0143622,,3,3.0
O8Cl2KRb,6.4031,-0.0086693,,3,3.0
O8GaMo2Tl,4.2585,-0.0193332,,3,3.0
Cl6InCs2Tl,2.7951,-0.0245986,,3,3.0
AlGa2Tb6,0.0,-0.0360618,,3,3.0
Na2MgSiS4,4.0782,-0.0090251,,3,3.0
S3FeCs2,0.1141,-0.0213755,,3,3.0
Ga3Rh2Ho,0.0,-0.0284256,,3,3.0
Zn5Pr,0.0,-0.0188628,,3,3.0
CoGa2Sm,0.0,-0.0241683,,3,3.0
CuZnPu,0.0,-0.0463016,,3,3.0
GaRhTb,0.0,-0.0332873999999999,,3,3.0
F6NaScCs2,7.6512,-0.0150813,,3,3.0
F3KTl,1.9639,-0.0205181,,3,3.0
AsI2Pa2,0.0,-0.0594268,,3,3.0
TiCu3Se4,0.0,-0.0183497,,3,3.0
OTi3Cd,0.0,-0.0181517,,3,3.0
F6NaRb2Mo,2.9058,-0.0130802,,3,3.0
Li3Bi2U,0.0,-0.0449095,,3,3.0
Ca2LaPb,0.0,-0.0350189,,3,3.0
CaTbPb2,0.0,-0.0526496,,3,3.0
Cd2DyPt,0.0,-0.0454693,,3,3.0
Te2BaPb,1.8991,-0.0486104,,3,3.0
AlCuAc2,0.0,-0.051091,,3,3.0
Ni2Tm3Pt,0.0,-0.0438191,,3,3.0
NdPb3,0.0,-0.068263,,3,3.0
Al2MnEr6,0.0,-0.0374675,,3,3.0
Co8Tc,0.0,-0.019136,,3,3.0
O4Ca2Sn,3.4005,-0.0141735,,3,3.0
DyTmHg2,0.0,-0.0596955,,3,3.0
As2AgTb,0.0,-0.0304873,,3,3.0
B2CdPt2,0.0,-0.0373975999999999,,3,3.0
NSr3Au,0.0,-0.0297599,,3,3.0
NCl2Sc2,0.0,-0.0129806,,3,3.0
F3Ti,0.0,-0.0102226,,3,3.0
NCa2GaSn,0.0,-0.0169606,,3,3.0
O7Cu3Ba2Sm,0.0,-0.0184104,,3,3.0
Sr5Ba,0.0,-0.025163,,3,3.0
AlGeTm,0.0,-0.0269153,,3,3.0
P2Pd2Ho,0.0,-0.0280633,,3,3.0
MgGe2Rh2,0.0,-0.0227437,,3,3.0
ZnEuAu2,0.0,-0.0520889999999999,,3,3.0
ZrHfBi,0.0,-0.0575738,,3,3.0
Si3PdCe,0.0,-0.0221794,,3,3.0
CO3FRbEu,0.0,-0.0177963999999999,,3,3.0
AgTe2Pr,1.1,-0.0383158,,3,3.0
NSnTh3,0.0,-0.0674515,,3,3.0
O8KSe2Tl,1.9909,-0.0151842,,3,3.0
Cl8PdIn2,2.1084,-0.0158323,,3,3.0
N2ThPu,0.0,-0.0576061,,3,3.0
Mn2ZrU,0.0,-0.0426266,,3,3.0
MgZr2Sn,0.0,-0.0259712,,3,3.0
Al12W,0.0,-0.0125931999999999,,3,3.0
AsI2Tm2,0.0,-0.0410225,,3,3.0
F6RbYCs2,7.1922,-0.0180928,,3,3.0
PPd3Pb2,0.0,-0.0437408,,3,3.0
Li2O7FMn4,0.0371,-0.0111918,,3,3.0
Al2TiPd,0.0,-0.0167819,,3,3.0
Al3RuPd2,0.0,-0.0216313,,3,3.0
BrAg2I,1.497,-0.030022,,3,3.0
ScPdHg,0.0,-0.0391155,,3,3.0
Ga3Pd2Eu,0.0,-0.0287826,,3,3.0
F6Rb2Ho,0.0,-0.0156807999999999,,3,3.0
BrPdPr,0.9122,-0.0332506,,3,3.0
SeBrIr,1.1822,-0.0372082,,3,3.0
KBr2I,2.1574,-0.0219898,,3,3.0
Si4SrEu,0.0,-0.0197731999999999,,3,3.0
Sn4Ir2Au,0.0,-0.0510002,,3,3.0
Li5O4Au,2.6756,-0.0123199,,3,3.0
CuSnPu2,0.0,-0.0678618,,3,3.0
AsBr6Cs2,0.0,-0.0247666,,3,3.0
Ga2Ag2Ho,0.0,-0.0292515,,3,3.0
H3Np,0.0,-0.0295279,,3,3.0
NCaGa,0.0,-0.0126454,,3,3.0
FeGa8Tm2,0.0,-0.0234452,,3,3.0
Fe2BrY2,0.0,-0.0229167999999999,,3,3.0
CuNd2Ir,0.0,-0.0439268,,3,3.0
Se2CdBa,1.5762,-0.029021,,3,3.0
OFClSn2,2.019,-0.0194586,,3,3.0
NbTc2Ta,0.0,-0.0429696,,3,3.0
GaIEr,0.0,-0.0356002,,3,3.0
Hg2Pb2Bi,0.0,-0.0732391999999999,,3,3.0
SiCr2Mn,0.0,-0.0165356999999999,,3,3.0
Al3FeGe2La3,0.0,-0.0238249,,3,3.0
SrI2,4.115,-0.0337888,,3,3.0
MgAlBa2,0.0,-0.0230218,,3,3.0
CuPd2Tb3,0.0,-0.0375712,,3,3.0
VCr2Te4,0.0,-0.0295096,,3,3.0
Si2RePa,0.0,-0.0481511,,3,3.0
C2ClHo2,0.0,-0.0262815,,3,3.0
As2Pd2Dy,0.0,-0.0316461,,3,3.0
NiDy2Ir,0.0,-0.0464765,,3,3.0
B6Mn2Ho,0.0,-0.0150563,,3,3.0
SCl2CuSb,0.678,-0.0161535,,3,3.0
Mg5Ac,0.0,-0.0193001,,3,3.0
MoPd4,0.0,-0.0332829,,3,3.0
Ga2Dy,0.0,-0.0276105,,3,3.0
MgCo2Ta2,0.0,-0.034605,,3,3.0
Li3CO7PCo,1.6923,-0.0089312,,3,3.0
S4Cs2Pt3,1.9957,-0.0369793999999999,,3,3.0
KCu2Sb2Ce,0.0,-0.0269144,,3,3.0
LiO2Ta,2.1169,-0.022931,,3,3.0
F2Cl2Cu,0.3532,-0.0085688999999999,,3,3.0
AlSe2Cs,3.4588,-0.0228039999999999,,3,3.0
Cl3AsPr3,0.0,-0.0268055,,3,3.0
HCaPd3,0.0,-0.0228415,,3,3.0
Li2CaPb,0.0,-0.0231122,,3,3.0
Pd7Hf,0.0,-0.0369721,,3,3.0
SeRb2Hg,2.255,-0.0333504,,3,3.0
N4Al3Ga,4.1187,-0.0110225,,3,3.0
Ni2NdOs3,0.0,-0.0487130999999999,,3,3.0
O6NbBa2Gd,3.0672,-0.024122,,3,3.0
K2Pd3Pb,0.0,-0.0319568,,3,3.0
F8Nd2Pb,5.6477,-0.0212534999999999,,3,3.0
SiI2Lu2,0.0812,-0.0400055,,3,3.0
CuNdBi2,0.0,-0.054545,,3,3.0
Y3CdPt2,0.0,-0.0435168,,3,3.0
Cu2Ga3Eu,0.0,-0.0226141,,3,3.0
OSCuHo,2.0026,-0.0222781,,3,3.0
O6NaAlI,0.0,-0.010895,,3,3.0
CaSb2Hg,0.0,-0.038571,,3,3.0
Li4B2O6Fe,0.867,-0.0084400999999999,,3,3.0
CoCuIr2,0.0,-0.0436414,,3,3.0
KCu2Sb2Dy,0.0,-0.0274769,,3,3.0
Mg3Pb4,0.0,-0.0455179,,3,3.0
CoY6Bi2,0.0,-0.0384778999999999,,3,3.0
AlHg2Pb,0.0,-0.0549389,,3,3.0
AsCsAu3,0.0,-0.053308,,3,3.0
P2PdBa,0.0,-0.0241138,,3,3.0
Ge2PdIn3Tb3,0.0,-0.0354093,,3,3.0
Ru2NdGd,0.0,-0.0431902,,3,3.0
O6InTeBa2,0.0,-0.0208871,,3,3.0
Se4AgIn2,0.0,-0.0258819,,3,3.0
S2CrIn,0.0,-0.0185421,,3,3.0
Be4FeMo,0.0,-0.0119124,,3,3.0
TiGa2Pt,0.0,-0.0305035,,3,3.0
RhLaBi,0.0,-0.0526941,,3,3.0
ZnGeGd,0.0,-0.0311972999999999,,3,3.0
Ga2BrLa2,0.0,-0.028882,,3,3.0
BCRhTb,0.0,-0.0251596,,3,3.0
HO2Cr,2.3674,-0.0106079,,3,3.0
Al2Zr2Pt,0.0,-0.0303780999999999,,3,3.0
CGePu3,0.0,-0.0718943,,3,3.0
O3F3KRb2W,3.5405,-0.0174996,,3,3.0
ZnZrSb2,0.0,-0.0301028,,3,3.0
Co3Nb2Ru,0.0,-0.0255717,,3,3.0
ClCoPu,0.0,-0.0458708,,3,3.0
H3LaAu,0.0,-0.0250860999999999,,3,3.0
Tb3Au2Tl3,0.0,-0.062716,,3,3.0
Ge4Pd4Hf3,0.0,-0.0367215,,3,3.0
AlLa2Ir2,0.0,-0.0482070999999999,,3,3.0
CuCd2Sm,0.0,-0.0304516999999999,,3,3.0
OClV,0.2009,-0.0127337,,3,3.0
PPrPt,0.0,-0.0428541,,3,3.0
CuZn2Pt,0.0,-0.0285163,,3,3.0
AlSi2Sm2,0.0,-0.0240617,,3,3.0
TiCo5,0.0,-0.0171897,,3,3.0
Na2AlZn2,0.0,-0.0085732999999999,,3,3.0
Na2Te2Pt,0.945,-0.0314478,,3,3.0
Ni2Ge2Lu,0.0,-0.0258952,,3,3.0
HCu,0.8378,-0.0092087,,3,3.0
OZnAsPr,0.9714,-0.0227927,,3,3.0
PCa3,0.0,-0.0105724,,3,3.0
MnCuZr2,0.0,-0.0238725999999999,,3,3.0
Ga6RhEr,0.0,-0.023292,,3,3.0
MgHfAu2,0.0,-0.0522657,,3,3.0
F6Rb2Mo,0.0,-0.0137391,,3,3.0
Si3MoPt2,0.0,-0.0349354999999999,,3,3.0
SiFeNi2,0.0,-0.0155015999999999,,3,3.0
Br5Nb2,0.0,-0.0242659,,3,3.0
ScTi2,0.0,-0.015345,,3,3.0
S10Mo4Ta,0.0,-0.0211322,,3,3.0
Zn2GaSr,0.0,-0.0167305,,3,3.0
AlP2Sb,0.0,-0.0165503,,3,3.0
O6Ca2MoNd,0.0,-0.0164654999999999,,3,3.0
CoY2,0.0,-0.0244987999999999,,3,3.0
O3NaRbRh,0.6698,-0.0141716,,3,3.0
LiIn4Sm,0.0,-0.0305727,,3,3.0
Mg2NiSr,0.0,-0.0121865,,3,3.0
Ti2Ga4Lu,0.0,-0.0224558,,3,3.0
KZn3Ir,0.0,-0.0241631,,3,3.0
Ni3Cu2Pu,0.0,-0.0314906,,3,3.0
Ca2BaBi2,0.0063,-0.0440959,,3,3.0
F6K2HgTl,0.0,-0.01995,,3,3.0
ZnPr2,0.0,-0.0336464,,3,3.0
Co2ZnSm3,0.0,-0.0304391,,3,3.0
LiZnRbTe2,1.9862,-0.0231917,,3,3.0
NPdTm3,0.0,-0.0407451999999999,,3,3.0
P2SrAg2,0.0,-0.021647,,3,3.0
H6Ca2Fe,2.2994,-0.0071094999999999,,3,3.0
F6KAs,5.7976,-0.0087813,,3,3.0
LiHo2Pt,0.0,-0.0434844,,3,3.0
Nd3Ho,0.0,-0.04492,,3,3.0
HNi2Cd,0.0,-0.0165033999999999,,3,3.0
O4NiPu,0.0,-0.0273297,,3,3.0
B2VMo2,0.0,-0.0210116,,3,3.0
F2ClK,3.7573,-0.0076247,,3,3.0
BrIn2Te,0.0,-0.0312802,,3,3.0
B2MnMo2,0.0,-0.0210795,,3,3.0
Li8Sn3,0.0,-0.0119729,,3,3.0
NaNi2Te2,0.0,-0.0225548,,3,3.0
F6ScMn,0.9822,-0.0102028,,3,3.0
TiGeTe4,0.1766,-0.0310784,,3,3.0
MgSb3,0.0,-0.0292527,,3,3.0
AlZn2Au,0.0,-0.026224,,3,3.0
Al5SmIr,0.0,-0.0227686,,3,3.0
Ni2Sn5Tm4,0.0,-0.0387612,,3,3.0
S3KCdSm,2.9858,-0.0202891,,3,3.0
Mg2CaIr,0.0,-0.0231289,,3,3.0
MnIr2Pu,0.0,-0.0679249,,3,3.0
SDy,0.0,-0.0309478,,3,3.0
MgAl3Ge2Ce3,0.0,-0.0227489,,3,3.0
Cl6AsBrRb2,0.0115,-0.0140401,,3,3.0
CO3NaCu,1.691,-0.009448,,3,3.0
In2LaPb,0.0,-0.0470219,,3,3.0
PdDy3Pt2,0.0,-0.0540466,,3,3.0
LiO4Ni2,0.0,-0.0099388,,3,3.0
SiPdTb,0.0,-0.0309018,,3,3.0
Al7Ag2Sm3,0.0,-0.0213909999999999,,3,3.0
MgTe4Cs2Pb,0.4454,-0.0389814,,3,3.0
GaRhPm2,0.0,-0.0351958,,3,3.0
ClTeNd,0.6255,-0.0316776,,3,3.0
Na5Sn2,0.0,-0.013503,,3,3.0
Cs2Hg2Tl,0.0,-0.0570561,,3,3.0
CCo2Sn2Pr2,0.0,-0.0295104,,3,3.0
Sb12NdOs4,0.0,-0.0460431,,3,3.0
Si4Pt3,0.0,-0.036473,,3,3.0
Al5Pd2Hf,0.0,-0.0216173,,3,3.0
VGeZr,0.0,-0.0232003,,3,3.0
LiO12VTeW2,1.9765,-0.0179527,,3,3.0
N2ZrLa,0.0,-0.0249066,,3,3.0
Se2BrPd,0.0,-0.0234151999999999,,3,3.0
Pd2SbPm,0.0,-0.0376013,,3,3.0
RuCdPt2,0.0,-0.0515311,,3,3.0
K2CuBr6Y,2.7868,-0.0192709,,3,3.0
Zn2InTm2,0.0,-0.0333440999999999,,3,3.0
F6NaAsCs2,5.0081,-0.014805,,3,3.0
B6Ni3Lu2,0.0,-0.0191903,,3,3.0
O8KPrW2,4.9706,-0.0226956,,3,3.0
O8AlTe2Cs,2.5813,-0.0157273,,3,3.0
ScNi4Pb,0.0,-0.0260259,,3,3.0
Li3As2U,0.0,-0.0258946,,3,3.0
AsCsEr,0.0,-0.0369814999999999,,3,3.0
F4Co,0.4883,-0.0080473,,3,3.0
F6TmPt,1.319,-0.0206785,,3,3.0
B4Fe5Sm2,0.0,-0.019344,,3,3.0
Sr2InHg,0.0,-0.0371635,,3,3.0
Al3Sc3NiSn2,0.0,-0.017773,,3,3.0
NSr2Au,0.0438,-0.0315522,,3,3.0
Li4O6FMn3,0.0,-0.0098522,,3,3.0
Be2CdPt2,0.0,-0.0365968999999999,,3,3.0
Er2Bi,0.0,-0.0603914,,3,3.0
O7Tm2Hf2,4.7463,-0.0286239,,3,3.0
CoRbIn3,0.0,-0.0276848,,3,3.0
CaGaTe2,0.0,-0.0258797999999999,,3,3.0
H5CN2I3Pb,1.8144,-0.0197173,,3,3.0
CdCe2Hg,0.0,-0.0472785,,3,3.0
Al3MnGe2Np3,0.0,-0.0446610999999999,,3,3.0