formula,bg,formation_energy,mp-id,fidelity,bg_category
Zn4CdEu,0.0,-0.0232128,,3,3.0
Ru2SnU2,0.0,-0.062774,,3,3.0
H6O7P2Cd,5.5901,-0.0086877999999999,,3,3.0
Ga3Ge2RhTh3,0.0,-0.0461422,,3,3.0
Al3Ni2Y,0.0,-0.0146415,,3,3.0
Na2SnAu,0.0,-0.0287643,,3,3.0
LiCuGa2,0.0,-0.0128145,,3,3.0
MgCePt4,0.0,-0.0560987,,3,3.0
InSnCe2,0.0,-0.0401682,,3,3.0
O6Ca2LuTa,4.2642,-0.0213689,,3,3.0
SiRh3,0.0,-0.02841,,3,3.0
Fe4Zn,0.0,-0.0171696,,3,3.0
Be2O5La2,4.5919,-0.0174241999999999,,3,3.0
Si3AgTh2,0.0,-0.0427316,,3,3.0
Si2Ga3Lu3Pt,0.0,-0.0348016,,3,3.0
O6Al2YEr,6.4333,-0.0168206999999999,,3,3.0
Br2In2Hg,0.7618,-0.0352873,,3,3.0
Na2BaHg2,0.0,-0.0372796,,3,3.0
ZnGeEr,0.0,-0.0283499,,3,3.0
O8CaMn4,0.0,-0.012522,,3,3.0
F6Na3Tl,4.1508,-0.0131544,,3,3.0
Mg7Pb,0.0,-0.0138895,,3,3.0
GaTb2Pt2,0.0,-0.0513662,,3,3.0
O2Y2Te,1.3921,-0.0243538,,3,3.0
NiGa3La,0.0,-0.022297,,3,3.0
B2Mn2Tm,0.0,-0.0210723,,3,3.0
Mn2IPr2,0.0,-0.0323546,,3,3.0
As6Y4Rh7,0.0,-0.0287319,,3,3.0
O2ScEr,0.0,-0.0224893,,3,3.0
Br3Pm,3.7715,-0.0276895999999999,,3,3.0
Sb2Pr,0.0,-0.040192,,3,3.0
AlSiSm,0.0,-0.0214433,,3,3.0
AgPm2Pt,0.0,-0.0482116,,3,3.0
Sc2ZrAg,0.0,-0.0227963,,3,3.0
C3N4,1.5023,-0.0093911,,3,3.0
FeGeNp,0.0,-0.0481418,,3,3.0
O2CuBrSr2,2.8947,-0.0175583,,3,3.0
Al3Rh2La,0.0,-0.0232748999999999,,3,3.0
CSi2Ni2Nd2,0.0,-0.0219662,,3,3.0
CaScPb2,0.0,-0.04449,,3,3.0
YIn2Ac,0.0,-0.046858,,3,3.0
AlKZn2,0.0,-0.0108199,,3,3.0
GaSe4Mo4Te4,0.0,-0.0301167,,3,3.0
N2PrLu,0.0558,-0.031113,,3,3.0
Al2Ge2Ce,0.0,-0.0201107,,3,3.0
As2NdPt2,0.0,-0.0459449,,3,3.0
AlBrLa,0.0,-0.0247578,,3,3.0
LiMg2Ba2,0.0,-0.0182224,,3,3.0
Li2PdPb,0.0,-0.0288478,,3,3.0
HNa3Pb,0.0,-0.0185720999999999,,3,3.0
Li2KBr3,5.0192,-0.0136873,,3,3.0
CaIn2Pm,0.0,-0.0307363,,3,3.0
BeScGe,0.0,-0.013222,,3,3.0
Sc2OsPb,0.0,-0.044677,,3,3.0
B2Co13Pr3,0.0,-0.0205896,,3,3.0
BAl2YRu2,0.0,-0.020853,,3,3.0
AlPd2La2,0.0,-0.0327965,,3,3.0
ORhTm3,0.0,-0.0408872,,3,3.0
F6Cs3Pr,5.9356,-0.0212039,,3,3.0
Rb2Pd3Te4,0.4506,-0.0328247,,3,3.0
Al3Ho2Ir2,0.0,-0.0386967,,3,3.0
LiO7As2Er,4.1433,-0.0145889,,3,3.0
BNRuTm,0.0,-0.0270209,,3,3.0
Se3Mo3Ba,0.0,-0.0301343,,3,3.0
As2AgTe,0.0,-0.0272084,,3,3.0
GeCePr,0.0,-0.0363488,,3,3.0
H4FeTm,0.0,-0.0144558999999999,,3,3.0
Si2Hf2Ir,0.0,-0.0443615,,3,3.0
CSc2Br2,0.9502,-0.0169752,,3,3.0
Y2Cd,0.0,-0.0290636,,3,3.0
MgSr2Pt,0.0,-0.0305664,,3,3.0
TmAu3,0.0,-0.065706,,3,3.0
Y3Eu,0.0,-0.0341906,,3,3.0
H4CoY,0.0,-0.0103602,,3,3.0
AlEuAu2,0.0,-0.0507958,,3,3.0
F7KSc2,6.49,-0.0101801,,3,3.0
Al2ICe2,0.0,-0.0289501,,3,3.0
LiNi2Sb,0.0,-0.0183011,,3,3.0
O7Nb2CsTh,0.0,-0.0251147,,3,3.0
S8Fe2CuRh3,0.0032,-0.0169,,3,3.0
NiAs2Ho6,0.0,-0.0397263,,3,3.0
Mn2TbIr3,0.0,-0.0501119,,3,3.0
Ti3Cu5,0.0,-0.0156619,,3,3.0
Mg2EuHo,0.0,-0.0281931,,3,3.0
Al3Ti2Au,0.0,-0.0213654,,3,3.0
Rh2CeTb,0.0,-0.0405158,,3,3.0
Li5O8Co3,0.0,-0.0089326,,3,3.0
SiRuHo,0.0,-0.0321984,,3,3.0
H8FeZn2Tm,0.0,-0.0105277999999999,,3,3.0
AlSr2Ag,0.0,-0.0210779,,3,3.0
SiCu2Gd2,0.0,-0.0319911,,3,3.0
Ti3Os2Hg,0.0,-0.0439804,,3,3.0
O6MgMn3,0.0,-0.0119744,,3,3.0
Ca2RhCd,0.0,-0.0212568,,3,3.0
H2Ca2Ag,0.0,-0.0120115,,3,3.0
Co2IEr2,0.0,-0.0349707,,3,3.0
LiO4Cl,6.7924,-0.0065691,,3,3.0
NiSrIn3,0.0,-0.0281089,,3,3.0
Cr4RhIr,0.0,-0.0298514,,3,3.0
O4CoSb,1.4442,-0.0147374,,3,3.0
As2RuHo6,0.0,-0.041873,,3,3.0
KNi2As2Nd,0.0,-0.0214937,,3,3.0
Li5O4Rh,0.0,-0.0087598,,3,3.0
Ti2Ga2Pd,0.0,-0.0201496,,3,3.0
KAgTe3Tb,0.0,-0.0340443,,3,3.0
Te2Er6Os,0.0,-0.0506449,,3,3.0
Te7Dy4,0.0,-0.0424521,,3,3.0
RhSn2Sm3Tl3,0.0,-0.0512967,,3,3.0
CuITh,0.0,-0.0499891,,3,3.0
H6NiGd2,0.0,-0.0176682,,3,3.0
LiCdPb,0.0,-0.0364027,,3,3.0
Rb2SbPt,0.0,-0.0377132,,3,3.0
O4MnBi,0.0,-0.0216665999999999,,3,3.0
ZnAs2Rb4,0.9346,-0.0200856,,3,3.0
PdSb2Nd6,0.0,-0.0417813999999999,,3,3.0
Mg5Tb,0.0,-0.0119677,,3,3.0
Si3MoRh2,0.0,-0.022711,,3,3.0
O6MgSr2Pt,0.0,-0.017864,,3,3.0
Y2InTl,0.0,-0.0409978,,3,3.0
LiSi2Mo2,0.0,-0.0187281,,3,3.0
O4Na3Bi,1.3582,-0.0159926,,3,3.0
Cu2SrTe2,0.923,-0.0261427,,3,3.0
P2TiCo2,0.0,-0.0150869,,3,3.0
ScAu,0.0,-0.0427655,,3,3.0
KBi2,0.0,-0.0555353,,3,3.0
KBr4Au,1.7314,-0.0267104,,3,3.0
In2GdTb,0.0,-0.0436898,,3,3.0
CdAuPb,0.0,-0.0586246,,3,3.0
H4NInI3,0.0,-0.0189742,,3,3.0
CuInGd2,0.0,-0.0418998,,3,3.0
CaZn2La,0.0,-0.0203177999999999,,3,3.0
RuEr3Pt2,0.0,-0.0555655,,3,3.0
NaBr6Rb2Eu,0.0,-0.0234305,,3,3.0
In2BaPb2,0.0,-0.0519897,,3,3.0
MgS4Mo3,1.3044,-0.0194652999999999,,3,3.0
Zr2PdSb3,0.0,-0.0350001,,3,3.0
Ca2SeTe,1.8319,-0.0212007,,3,3.0
AlCa2Tl,0.0,-0.0252597,,3,3.0
LiO3Os,0.0,-0.0200026,,3,3.0
BeTeBa2,0.0,-0.0307169,,3,3.0
F6TlPa,3.6238,-0.0275791,,3,3.0
Nb2TaW,0.0,-0.0506409,,3,3.0
Al2RhGd,0.0,-0.0279437999999999,,3,3.0
ScGaAg2,0.0,-0.023672,,3,3.0
Ba2AuTl,0.0,-0.0558502,,3,3.0
Al9Ir2,0.0,-0.0199012,,3,3.0
ZnRh2In2,0.0,-0.0299621,,3,3.0
Fe2MoRh,0.0,-0.0262834,,3,3.0
Zn2As2Pb,0.0,-0.0286654,,3,3.0
Cl7ICs2,1.2002,-0.017815,,3,3.0
Ni2As2Sr,0.0,-0.0197241,,3,3.0
P2MnRu2,0.0,-0.0223725,,3,3.0
N3NaGe2,2.9541,-0.0120549,,3,3.0
AsAgCs2,1.2146,-0.032262,,3,3.0
AlI3Gd3,0.0,-0.0429472,,3,3.0
CuZr2Cd,0.0,-0.0269101,,3,3.0
SiCaLa,0.0,-0.0214677,,3,3.0
P2DyOs2,0.0,-0.0433392,,3,3.0
MgGa2Ir2,0.0,-0.0365202,,3,3.0
Ga2CsBi2,0.0,-0.0457775,,3,3.0
Sc2Cu2Y,0.0,-0.0175332,,3,3.0
GaMoRu2,0.0,-0.030405,,3,3.0
Sb2Os,0.4925,-0.0489055,,3,3.0
Al3ZnPr,0.0,-0.0164328,,3,3.0
H2Ba2Tl,0.0,-0.0322063,,3,3.0
H2O2Cd,2.1067,-0.0111057,,3,3.0
O4Sc2Sr,3.2921,-0.0144618,,3,3.0
Pm2IrPt,0.0,-0.0583377,,3,3.0
P2Fe2Th,0.0,-0.0314873,,3,3.0
Se2PdAg,0.0,-0.0262323,,3,3.0
F4V,1.0791,-0.0093434,,3,3.0
O6Ba2PrHf,0.0,-0.0254736,,3,3.0
YBaHg2,0.0,-0.0516313,,3,3.0
AlSe2Sn,0.0125,-0.0215503,,3,3.0
SiCaMn,0.0,-0.0130719999999999,,3,3.0
O8S2RbRu,0.1803,-0.0119803999999999,,3,3.0
SKCs,3.1368,-0.0198484,,3,3.0
HRh2Ba,0.0,-0.0278874,,3,3.0
PSr3Bi,0.089,-0.0322032,,3,3.0
AlTiRh,0.0,-0.0201276,,3,3.0
LiCoTb2,0.0,-0.0283372,,3,3.0
ZrLaAu2,0.0,-0.0538578,,3,3.0
HO4SCs,6.3936,-0.012571,,3,3.0
BrTeAu,1.1755,-0.0422571999999999,,3,3.0
Ni2Zr3Ru,0.0,-0.0270542,,3,3.0
O2CoRb,0.1037,-0.0140673999999999,,3,3.0
B2O6K2Sm,0.0,-0.0129497,,3,3.0
Be2CrRu2,0.0,-0.0197213,,3,3.0
HTeLa,2.083,-0.0293778,,3,3.0
ScZrOs2,0.0,-0.0478539,,3,3.0
NiGaNb,0.0,-0.02228,,3,3.0
B4CoHo,0.0,-0.0166357,,3,3.0
GePrAu,0.0,-0.0449118,,3,3.0
AsZrHo,0.0,-0.0343746999999999,,3,3.0
Ag5Cd4,0.0,-0.0309925,,3,3.0
Co4ZnPa,0.0,-0.0304773,,3,3.0
S3Rb2Tb,0.0,-0.0210855,,3,3.0
Be2TaPt2,0.0,-0.0439086,,3,3.0
Na3S4Ta,3.595,-0.0159709,,3,3.0
MnPt2Pa,0.0,-0.0655531,,3,3.0
Mg2Rh2Sb,0.0,-0.0234683,,3,3.0
SnHfTh,0.0,-0.0652873,,3,3.0
H4NNiSe4Mo,0.0,-0.0144096,,3,3.0
MgRhAu2,0.0,-0.0446964,,3,3.0
CTi4I5,0.0,-0.026528,,3,3.0
CuCd2Pb,0.0,-0.0378614,,3,3.0
H6Y2Ru,0.0,-0.0129620999999999,,3,3.0
Li2AlPm,0.0,-0.0143362,,3,3.0
Li8O6Fe,1.3336,-0.0069379,,3,3.0
Si3NiEr2,0.0,-0.0253452,,3,3.0
AlCrTc,0.0,-0.0207728,,3,3.0
Be2Hf3,0.0,-0.0393534,,3,3.0
Sc2MoAg,0.0,-0.0237304,,3,3.0
FeAsMo,0.0,-0.0244973,,3,3.0
Mg2Pb,0.0,-0.0288166,,3,3.0
As2Tb6Pt,0.0,-0.0445002,,3,3.0
B2Al,0.0,-0.0076041999999999,,3,3.0
H4C4O10CrRb,3.2132,-0.0092072,,3,3.0
Co3Y2,0.0,-0.0216613,,3,3.0
GePdLa,0.0,-0.0327152,,3,3.0
O4EuTh,0.0,-0.0323641,,3,3.0
MgHfPt2,0.0,-0.0532071,,3,3.0
AlCo2Pr2,0.0,-0.0259384,,3,3.0
ZnSb2Tm6,0.0,-0.0449655,,3,3.0
SPdSb,0.0,-0.0270157,,3,3.0
AgTmTl,0.0,-0.0522316,,3,3.0
CoTl2Th6,0.0,-0.0821457,,3,3.0
SiScMn,0.0,-0.0148865,,3,3.0
In7HoPt2,0.0,-0.0428284,,3,3.0
Al3Pt2,0.0,-0.0339931,,3,3.0
MnBr3In,2.2272,-0.0230036,,3,3.0
KScAgTe3,0.0,-0.0285491,,3,3.0
SbAuPu,0.0,-0.0725925,,3,3.0
Ru2Dy3Pb3,0.0,-0.0555166,,3,3.0
Ge3Cd6La2,0.0,-0.0300686,,3,3.0
B3TiCo,0.0,-0.0118751999999999,,3,3.0
OBrHo,4.9112,-0.0281366,,3,3.0
B3O6Sm,6.3088,-0.0134217,,3,3.0
FeTm6Bi2,0.0,-0.0545091,,3,3.0
LiCo2As2Nd,0.0,-0.020855,,3,3.0
O3RhBi,0.9881,-0.0272471,,3,3.0
Zr3In3Os2,0.0,-0.0424984,,3,3.0
F6KCs2Nd,7.2022,-0.0183681,,3,3.0
SrCd2Sb2,0.0719,-0.0321145,,3,3.0
Co2Pr2Pb,0.0,-0.0396987,,3,3.0
H3CdIr,0.0,-0.0222576,,3,3.0
LiY2Zr,0.0,-0.0221011,,3,3.0
LiI3La,0.0,-0.0325431,,3,3.0
Li2F6Eu,0.1368,-0.011864,,3,3.0
ScCe5,0.0,-0.0393862,,3,3.0
Cd2SnEr2,0.0,-0.0399645,,3,3.0
Ga3Rh2La,0.0,-0.0274226999999999,,3,3.0
N2Mg2Zn,0.9385,-0.0090409,,3,3.0
Mg2Br2Sb,0.0,-0.0182866,,3,3.0
O6CuSr2W,0.6222,-0.0191817,,3,3.0
PNi,0.0,-0.0137154,,3,3.0
Ga2As2Sr,0.1328,-0.0197848,,3,3.0
ClTm,0.0,-0.0315524,,3,3.0
PdPt2Pb4,0.0,-0.0682703,,3,3.0
H2Mn2Re,0.0,-0.0229229,,3,3.0
K2AgTl,0.0,-0.0301543999999999,,3,3.0
CoSe3ZrCs,0.0,-0.0255722,,3,3.0
NiRuIr2,0.0,-0.0483256,,3,3.0
Zn2RhDy,0.0,-0.0277767,,3,3.0
MnAu,0.0,-0.0441833,,3,3.0
CuBr6YCs2,2.6688,-0.0252637,,3,3.0
Ga5Sr5Tl,0.0,-0.0246436999999999,,3,3.0
ScCr2Ga4,0.0,-0.0169674,,3,3.0
AgLuAu2,0.0,-0.056995,,3,3.0
KZnAu,0.0,-0.0306287999999999,,3,3.0
Li3O4KPb,1.9889,-0.0145886,,3,3.0
SnI2Pr2,0.0,-0.040519,,3,3.0
Tm2Pt3,0.0,-0.0642295,,3,3.0
Al9KMn2,0.0,-0.009649,,3,3.0
Si2Ga3RuDy3,0.0,-0.0282442,,3,3.0
ZnGa3Hf2,0.0,-0.0317835,,3,3.0
As2CeIr,0.0,-0.0399999,,3,3.0
Zn2RuCe,0.0,-0.0270655,,3,3.0
Cd4Hg3,0.0,-0.0466068,,3,3.0
Sc2Ga2Tc,0.0,-0.019766,,3,3.0
EuHg5,0.0,-0.0661089,,3,3.0
CaAg4Ba,0.0,-0.0292857999999999,,3,3.0
SiClI,2.2293,-0.0185353,,3,3.0
F6GaEu,0.0,-0.0146290999999999,,3,3.0
YCd3,0.0,-0.0301576,,3,3.0
Sr2Rh3In,0.0,-0.0302896,,3,3.0
ORhSbPr,0.0,-0.0321357,,3,3.0
ScPt3,0.0,-0.0574026,,3,3.0
O4MoNp,0.9339,-0.0303905,,3,3.0
RhTe2Lu6,0.0,-0.0498183,,3,3.0
S2KMnAg,0.9273,-0.0163845,,3,3.0
Ga5OsNp,0.0,-0.03748,,3,3.0
RbCdAu2,0.0,-0.0476136,,3,3.0
MnCo2As,0.0,-0.0185818,,3,3.0
O6CoSr2Pd,0.0,-0.0149698,,3,3.0
Ni3Lu2,0.0,-0.032371,,3,3.0
O2PdPb,0.0016,-0.0311746,,3,3.0
Ni2SrPt,0.0,-0.0315894,,3,3.0
Dy2HgPb,0.0,-0.0605501,,3,3.0
Zn2SeTe,1.6313,-0.0217143,,3,3.0
O6TiSbTa,2.7321,-0.0201719,,3,3.0
Li3O5F3Mn3,0.9653,-0.0099024,,3,3.0
GePu3,0.0,-0.0874017,,3,3.0
Ru2TlTh2,0.0,-0.0672686,,3,3.0
SiMnEr,0.0,-0.0268747,,3,3.0
CaSr2Hg,0.0,-0.0309592,,3,3.0
CaZnBa2,0.0,-0.0256624,,3,3.0
Ca2CsPb2,0.0,-0.042288,,3,3.0
Ga2GdPt3,0.0,-0.0513751,,3,3.0
In3Au7,0.0,-0.0585804,,3,3.0
OSnNd3,0.0,-0.0362134,,3,3.0
Rh2CdCe3,0.0,-0.0391377,,3,3.0
LiZn2Rh,0.0,-0.0162363,,3,3.0
Ru7Ta,0.0,-0.0388322999999999,,3,3.0
Li2CoBr4,0.2357,-0.0154322,,3,3.0
Zn2SmTb,0.0,-0.0299555,,3,3.0
K2AsBr6,0.0,-0.0181312,,3,3.0
CaNiAs2,0.0,-0.0173294,,3,3.0
GeAg2Te4Ba,0.0,-0.0343527,,3,3.0
GePrTa,0.0,-0.0435951,,3,3.0
SiCl2I,0.0,-0.015847,,3,3.0
OZnPrBi,0.1521,-0.037132,,3,3.0
ZnPd2Tb2,0.0,-0.0353823999999999,,3,3.0
Rh2ErTl,0.0,-0.0482064,,3,3.0
CoIn3Tl,0.0,-0.0379057,,3,3.0
TiFeRh2,0.0,-0.0260345,,3,3.0
CrCo2Zn,0.0,-0.0165666,,3,3.0
BeAgAu,0.0,-0.0351036,,3,3.0
SiSeTh,0.0,-0.043247,,3,3.0
Y2SnAu,0.0,-0.0411151,,3,3.0
BeB2C2,0.4051,-0.0080559,,3,3.0
Ga2Pd3Ho,0.0,-0.0308241,,3,3.0
Cu4NdHg,0.0,-0.0289856,,3,3.0
Rh2Ho2Tl,0.0,-0.0483755,,3,3.0
ScZn2Hg,0.0,-0.0276873,,3,3.0
Si2Co2Eu,0.0,-0.0222351,,3,3.0
AlBr3Pr3,0.0,-0.0294263,,3,3.0
H16LiB4Sc,5.119,-0.0049278,,3,3.0
Pr2Pt3,0.0,-0.0606764999999999,,3,3.0
NaNiIn3,0.0,-0.0242449,,3,3.0
Si3AgLu2,0.0,-0.0292375,,3,3.0
LiMg2Hg2,0.0,-0.0301005,,3,3.0
H8Mg2CoSm,0.0,-0.0086318,,3,3.0
AlP2Cs3,1.0155,-0.0242332,,3,3.0
Er2HgPb,0.0,-0.0617907,,3,3.0
BrTeTm,1.435,-0.0379144,,3,3.0
Mg5La4,0.0,-0.0219704,,3,3.0
Ru2TaOs,0.0,-0.0522468,,3,3.0
F4As,5.2186,-0.0090172,,3,3.0
BeSnTb,0.0,-0.0295594,,3,3.0
Zn2Ga2Ho,0.0,-0.0222429,,3,3.0
O6ZrBa2Gd,0.0,-0.0238611,,3,3.0
LiPd2Hf2,0.0,-0.0392227,,3,3.0
TiAsIr,0.8143,-0.0368524,,3,3.0
Sr2Cd2Sn,0.0,-0.0287744,,3,3.0
SbDy5Au2,0.0,-0.0527756,,3,3.0
S6MnTa2,0.0,-0.024232,,3,3.0
NaPd3Sn2,0.0,-0.0295558,,3,3.0
Ga6AgEr,0.0,-0.0227155,,3,3.0
S3Dy2,0.9196,-0.0272406,,3,3.0
MgAl7,0.0,-0.0073969,,3,3.0
Al2ZrRh,0.0,-0.0209361,,3,3.0
MgInHo,0.0,-0.0296297,,3,3.0
Ga9CsIr2,0.0,-0.0276343,,3,3.0
ZnBr2,3.8325,-0.0184391,,3,3.0
Y2Ag2Cd,0.0,-0.0301758,,3,3.0
Rh2SbPm,0.0,-0.0378915,,3,3.0
N2TiNp,0.0,-0.0368577,,3,3.0
InTe7Bi4,0.0,-0.050881,,3,3.0
Mg2Ge2Sr,0.0,-0.0145857,,3,3.0
CCe2Pb,0.0,-0.0441727,,3,3.0
O3Ir,0.0,-0.0230315,,3,3.0
Co2GaPm,0.0,-0.0239531999999999,,3,3.0
H2O6Al2Ge,4.9215,-0.009503,,3,3.0
O6NaSm2W,0.468,-0.0229326,,3,3.0
K2As2Se6Pb,0.2918,-0.0235864,,3,3.0
LiGeLu,0.0,-0.0263435,,3,3.0
CaHg2Ac,0.0,-0.0598538,,3,3.0
Ge2Pd2Pb,0.0,-0.0361964,,3,3.0
H4ZnNp,0.0,-0.0224768,,3,3.0
B2C2Ce,0.0,-0.0164388,,3,3.0
F7KLa2,6.6559,-0.0159856,,3,3.0
B6Ni3Er2,0.0,-0.0182665,,3,3.0
H4CaRh,0.0,-0.0101099,,3,3.0
CdAu5,0.0,-0.0628119999999999,,3,3.0
CaRuLa3,0.0,-0.0349603,,3,3.0
O4KPt3,0.0,-0.0313166,,3,3.0
Y5Cd,0.0,-0.0284011999999999,,3,3.0
FeIn5Ho,0.0,-0.0336884999999999,,3,3.0
Mg3Zr4,0.0,-0.0196901,,3,3.0
Y2CdSn,0.0,-0.0311429,,3,3.0
Nd2Os,0.0,-0.0532024,,3,3.0
InPm,0.0,-0.0393453,,3,3.0
LiCd2Pb,0.0,-0.0349123,,3,3.0
Co2Re,0.0,-0.0351404,,3,3.0
CaAg2Cd2,0.0,-0.0268199,,3,3.0
ClBrIn2,1.0561,-0.0243332,,3,3.0
Zr6RuTl2,0.0,-0.0407667,,3,3.0
NSm3Pb,0.0,-0.0448219,,3,3.0
GeNbDy,0.0,-0.0340756,,3,3.0
Na3Sb2La,0.9455,-0.0224855,,3,3.0
RuRe,0.0,-0.0530644,,3,3.0
O2KMn,1.5344,-0.0117967,,3,3.0
Cl6RbW,0.142,-0.0185777,,3,3.0
NaPSr3,0.0,-0.0168617,,3,3.0
H3NO4,4.2546,-0.0062756,,3,3.0
F6CoSb,1.6497,-0.0117066,,3,3.0
BN3Mg3,1.7274,-0.0082634,,3,3.0
In3Sn2Er3Ir,0.0,-0.0445362,,3,3.0
O6Sr2YBi,2.6775,-0.0214603,,3,3.0
FCdSbBa,0.3462,-0.0296474,,3,3.0
CrGeTa,0.0,-0.0349759,,3,3.0
ScSe3SrAg,1.1827,-0.022923,,3,3.0
O6MgTiPu2,0.0,-0.0309902,,3,3.0
LaLuHg2,0.0,-0.0593604,,3,3.0
KRuLa2,0.0,-0.0325069,,3,3.0
SbI2Nd2,0.0,-0.0410566,,3,3.0
HSGd,1.448,-0.0256713999999999,,3,3.0
Ta5Pt3,0.0,-0.0685344,,3,3.0
Zn5Ho,0.0,-0.0197896,,3,3.0
NbRhTa2,0.0,-0.0503563,,3,3.0
Cl8FeGa2,2.2568,-0.0115048999999999,,3,3.0
BrRh2La2,0.0,-0.0358275999999999,,3,3.0
Al4CaCu,0.0,-0.0096187,,3,3.0
Li2O6Ti3,0.0,-0.0112088,,3,3.0
Zr2Pd2Pb,0.0,-0.0412423,,3,3.0
ZnTc8,0.0,-0.032614,,3,3.0
Cl6CuRb2Au,0.3588,-0.0186067,,3,3.0
O6FCuSrNb2,0.1279,-0.0158379999999999,,3,3.0
K3Pd4Pb4,0.0,-0.0420715,,3,3.0
Br4Rb2Pd,1.6975,-0.0230445,,3,3.0
N2EuHf,0.0,-0.0355154,,3,3.0
O8Ti3Ge,2.7295,-0.0126662,,3,3.0
Co3Cu2Y,0.0,-0.0184907,,3,3.0
SrRh2Te2,0.0,-0.0335869,,3,3.0
SiZr2,0.0,-0.0246180999999999,,3,3.0
H12O6Cl2Sr,5.7768,-0.0068821,,3,3.0
OK3Ag,0.6476,-0.0131865,,3,3.0
SnLa,0.0,-0.0404638,,3,3.0
ClMnHo,0.0,-0.0262523,,3,3.0
Cd3Au,0.0,-0.0402651,,3,3.0
NaCa2Tl2,0.0,-0.0341094999999999,,3,3.0
ScAg4,0.0,-0.0281622,,3,3.0
Zn2CeTb,0.0,-0.0299017,,3,3.0
Al9Lu2Ir3,0.0,-0.0291219,,3,3.0
O6Ba2TbBi,2.3747,-0.0267974,,3,3.0
BrLa2Au,0.0,-0.0450178,,3,3.0
MgLaHg,0.0,-0.0393829,,3,3.0
Zn2EuAc,0.0,-0.0431085,,3,3.0
Al3Si2ZnLa3,0.0,-0.0212593,,3,3.0
MgCaBa,0.0,-0.0180824999999999,,3,3.0
Se2SrEu,0.0,-0.0313215,,3,3.0
FeNi4Pr,0.0,-0.0212175,,3,3.0
Si2Fe2Tm,0.0,-0.022199,,3,3.0
AlHfOs,0.0,-0.0481666,,3,3.0
Cl6TiSe4,1.523,-0.0139952,,3,3.0
MnFe3Zr2,0.0,-0.0225749999999999,,3,3.0
Mn4Fe,0.0,-0.0180196,,3,3.0
SiRuTm,0.0,-0.0331691,,3,3.0
Al3Ge2AgHo3,0.0,-0.0273353,,3,3.0
BCr2,0.0,-0.0150961,,3,3.0
Zn4ZrOs,0.4734,-0.0264603,,3,3.0
Ga2Zr2Re,0.0,-0.0336597,,3,3.0
Ga3U,0.0,-0.038308,,3,3.0
O6In2Ba3,1.2706,-0.0226298,,3,3.0
O6Si2NiZn,3.1893,-0.0111215,,3,3.0
GePd2Hf,0.0,-0.0376301,,3,3.0
Al6CePt,0.0,-0.0208317,,3,3.0
Ni2HfPt,0.0,-0.0421349,,3,3.0
ErPtBi,0.0,-0.067646,,3,3.0
YI6Cs3,3.8234,-0.0377954,,3,3.0
H6Li3Al,4.1794,-0.0039197,,3,3.0
NSiCa3,0.0,-0.010402,,3,3.0
Ag2Tb,0.0,-0.0368558,,3,3.0
SiCuPd,0.0,-0.0196463,,3,3.0
AlS2In,0.0335,-0.0160039,,3,3.0
Na4S6Ge2Sn,2.007,-0.0123673,,3,3.0
S4CdSn2,1.0234,-0.0205227,,3,3.0
MgK2Hg,0.0,-0.0225801,,3,3.0
LiIrPu2,0.0,-0.0735057,,3,3.0
LiTcTm2,0.0,-0.0353902,,3,3.0
Ge3PrTa,0.0,-0.03399,,3,3.0
FRbCs2,0.0,-0.026349,,3,3.0
Rh8Ta,0.0,-0.0376914999999999,,3,3.0
CoY6Te2,0.0,-0.0294684999999999,,3,3.0
NaCl6K2Mn,0.0,-0.0104974,,3,3.0
Mg2Hg,0.0,-0.0264147,,3,3.0
LiF6Fe,2.013,-0.0074896,,3,3.0
Cl4CoCu,0.0,-0.0114659999999999,,3,3.0
SClNd,3.0691,-0.022823,,3,3.0
Cl6U,1.8367,-0.0232183,,3,3.0
SiTePt,0.4081,-0.0397976,,3,3.0
MgSmTl2,0.0,-0.0489492,,3,3.0
MnRh2Pu,0.0,-0.0493569,,3,3.0
ScRh2Hf,0.0,-0.037203,,3,3.0
FSeU,0.0,-0.0446521,,3,3.0
CdHo,0.0,-0.0401308,,3,3.0
MgPmAu2,0.0,-0.0477422,,3,3.0
AlBa2Ir,0.0,-0.0399337,,3,3.0
OS2Sb2,1.2906,-0.0206301,,3,3.0
H2Tb3Pb,0.0,-0.0378095,,3,3.0
MgGeIr,0.0,-0.03235,,3,3.0
CaBa2Hg,0.0,-0.0395778,,3,3.0
MgTePt,0.0,-0.0383133,,3,3.0
Pd2ErTl,0.0,-0.0477818,,3,3.0
Br3HgTl,0.0,-0.0403313,,3,3.0
Al2SiNi5,0.0,-0.0139342,,3,3.0
SiOs3Th2,0.0,-0.0700367,,3,3.0
Sc3CuRu2,0.0,-0.0218696,,3,3.0
LiF4Ni,0.6775,-0.00786,,3,3.0
Si2NiRh,0.0,-0.0181321,,3,3.0
Hf3Tl,0.0,-0.065204,,3,3.0
H8Mg2EuOs,0.2066,-0.0140938,,3,3.0
NaCl6Rb2Ho,5.829,-0.0166005,,3,3.0
Rb3Te4Ta,1.5796,-0.0356071,,3,3.0
LiAsRh2,0.0,-0.0231844,,3,3.0
LiPLa2,0.0,-0.0255759,,3,3.0
MgSr2Au,0.0,-0.0301879,,3,3.0
Ge2RbTl2,0.0,-0.0407916,,3,3.0
PmLuPb2,0.0,-0.0633711,,3,3.0
F6MnRb3,1.363,-0.0131394,,3,3.0
Si2CuGa3Lu3,0.0,-0.0284603,,3,3.0
AlCoCe,0.0,-0.0236918,,3,3.0
Se2Au2Hg,0.9625,-0.0494664,,3,3.0
Sc5Rh3,0.0,-0.022364,,3,3.0
Si2AgHo,0.0,-0.0255523,,3,3.0
LiFeRh2,0.0,-0.022244,,3,3.0
Cd3Eu,0.0,-0.0365516,,3,3.0
O9CaBa3Ta2,3.7239,-0.0244881,,3,3.0
CaNi3Sn2,0.0,-0.0219358,,3,3.0
Li2MgCl4,6.2637,-0.0080093,,3,3.0
Al5CaPt2,0.0,-0.0245999,,3,3.0
SrTe2Ba,1.8586,-0.0360546,,3,3.0
SiNiZr4,0.0,-0.0253735,,3,3.0
Li3Sr,0.0,-0.0073452,,3,3.0
Na2S4FeSn,0.5764,-0.0134726,,3,3.0
Ag2PrTl,0.0,-0.0449097,,3,3.0
Ag5Lu,0.0,-0.0355001,,3,3.0
AlHf,0.0,-0.0356306,,3,3.0
Mg2PdTl,0.0,-0.0291489,,3,3.0
Y2HfIr2,0.0,-0.0530144,,3,3.0
ScGeCe,0.0,-0.0266739,,3,3.0
O6MgGeGd2,4.5591,-0.020964,,3,3.0
O6TiBa2Tl,0.0,-0.0229022,,3,3.0
Si2Ru2Ho,0.0,-0.0287276,,3,3.0
FeIGd,0.0,-0.038585,,3,3.0
Ni4Ga2Nd3,0.0,-0.025882,,3,3.0
GeCeHf,0.0,-0.0427087,,3,3.0
SPtPb,0.0183,-0.0523112,,3,3.0
Li3O8Ti3V,0.0,-0.0110431,,3,3.0
N2Nd2Pt,0.0,-0.0366682,,3,3.0
LiP2Rh2Dy,0.0,-0.0242335999999999,,3,3.0
CRu3Lu,0.0,-0.0343246,,3,3.0
Al3CuGe2Hf3,0.0,-0.0299504,,3,3.0
O6MgFeBa2,0.0,-0.016281,,3,3.0
MgTi3Re2,0.0,-0.0328935,,3,3.0
SrEuPt2,0.0,-0.0550015,,3,3.0
Na3Te4Ta,2.1688,-0.0291921,,3,3.0
LiP2TmIr2,0.0,-0.0371781,,3,3.0
O4Na5V,0.0,-0.0080795,,3,3.0
CdHoHg2,0.0,-0.0544346,,3,3.0
F6HoEr,7.8686,-0.019413,,3,3.0
CaNiCu2,0.0,-0.014129,,3,3.0
LiCl4K3,5.6452,-0.0095009999999999,,3,3.0
Si3RhU,0.0,-0.0339716,,3,3.0
Fe4SnU,0.0,-0.0352131,,3,3.0
Li2Te2Pb,0.3534,-0.0316648,,3,3.0
SiPd5Ag,0.0,-0.0297079,,3,3.0
NaBa2Pb,0.0,-0.0402821,,3,3.0
Lu3Hg2,0.0,-0.0610642,,3,3.0
F3KGe,3.7293,-0.0101754,,3,3.0
O4Na4Ti,3.8709,-0.0087481,,3,3.0
KLaTl2,0.0,-0.049443,,3,3.0
Sr2Pd2Ba,0.0,-0.0304173,,3,3.0
CSi2Mo2Nd2,0.0,-0.0272928,,3,3.0
SiNb6Sn,0.0,-0.0308861,,3,3.0
Cu2Y2La,0.0,-0.0259966,,3,3.0
ScCuSe2,0.4908,-0.0186457,,3,3.0
O4FNa3S,5.8223,-0.0078563,,3,3.0
EuAuPb,0.0,-0.0669731,,3,3.0
Na2I2Hg,3.9516,-0.0310085,,3,3.0
PS3AgCs,2.2952,-0.0188038,,3,3.0
Mg2PdPt,0.0,-0.02914,,3,3.0
LiCl6K2Nd,5.3955,-0.0133248999999999,,3,3.0
N2O6Mo2Ba3,3.3853,-0.0211494999999999,,3,3.0
N4Mg4Ti,2.1799,-0.0093315,,3,3.0
HS2Bi,1.1791,-0.0254477,,3,3.0
Ga5RhPa,0.0,-0.0313152,,3,3.0
AgBa2Au2,0.0,-0.0504057,,3,3.0
S2SbAu,0.905,-0.0315528,,3,3.0
Si4Pd4LaCe,0.0,-0.0268571999999999,,3,3.0
Si2Ga3Tm2,0.0,-0.0252275,,3,3.0
InHo2Ir2,0.0,-0.0556594,,3,3.0
O12Al6Ca4Te,3.529,-0.0118139,,3,3.0
MgScSe2,0.0,-0.0163778,,3,3.0
Ga3Ge2RhLu3,0.0,-0.0327998,,3,3.0
Sc3MnRu2,0.0,-0.0223054,,3,3.0
MnZn2U,0.0,-0.0372845,,3,3.0
GaRu2Ac,0.0,-0.0444351,,3,3.0
PtHgTh,0.0,-0.0790545,,3,3.0
O6RuICs,0.3159,-0.0172735999999999,,3,3.0
MgAl2Pt,0.0,-0.0235896,,3,3.0
I6Cs2HgBi,0.0,-0.0451753,,3,3.0
Ga6AgDy,0.0,-0.0224279,,3,3.0
Li4Cd5,0.0,-0.0182003,,3,3.0
Ti3Ru2Pd,0.0,-0.0258615,,3,3.0
Sc2NiPb,0.0,-0.0306108,,3,3.0
O5NiAsBi,2.2394,-0.0196177999999999,,3,3.0
S3Ni4Tl,0.0,-0.02105,,3,3.0
Al3CoGe2Nd3,0.0,-0.0239826,,3,3.0
BeAlNi2,0.0,-0.0117276,,3,3.0
LiP2Pd2Ba,0.0,-0.0222401,,3,3.0
Ga6ErIr,0.0,-0.0279368,,3,3.0
Cu2Ga2Zr,0.0,-0.0191795,,3,3.0
CMn2Sn2Dy2,0.0,-0.0310471,,3,3.0
Na3HoBi2,0.0,-0.0369861,,3,3.0
Rh2LuTl,0.0,-0.0494887,,3,3.0
CTi2Pb,0.0,-0.0301884,,3,3.0
GePd2Er,0.0,-0.0347416,,3,3.0
CIGd,0.0,-0.0361588,,3,3.0
KBr3Tl,1.0831,-0.0289705,,3,3.0
Cd2PrPt,0.0,-0.0443483,,3,3.0
O2YEu,0.0,-0.0266238,,3,3.0
YCd2Ir,0.0,-0.0404189,,3,3.0
MnNb,0.0,-0.0258199,,3,3.0
F6CeTl,0.3891,-0.0203003,,3,3.0
LiSiMnPt,0.0,-0.0259591999999999,,3,3.0
NaAsPb,0.0392,-0.0337298,,3,3.0
B4Mg2Ir5,0.0,-0.0364099,,3,3.0
ZrNb2Ta,0.0,-0.0408134,,3,3.0
O6Sr2ErAu,2.5015,-0.0225101,,3,3.0
As2Sr2Sn,0.0,-0.02507,,3,3.0
Pd5Lu3,0.0,-0.0422171,,3,3.0
F6ZrNp,0.0,-0.0233272,,3,3.0
Ni2TcCd,0.0,-0.0243593,,3,3.0
F6Rb2CsTh,0.0,-0.022941,,3,3.0
CoGa3Ge2Sm3,0.0,-0.0271673,,3,3.0