formula,bg,formation_energy,mp-id,fidelity,bg_category
CoCd2Ce,0.0,-0.0309209,,3,3.0
SSeRu,0.5764,-0.0220969,,3,3.0
Pt2Np,0.0,-0.083089,,3,3.0
O7CaNb2Cs2,1.8071,-0.0189722,,3,3.0
GeAuPu2,0.0,-0.0774994,,3,3.0
ScGa2Au,0.0,-0.0297726,,3,3.0
Ru2NdPm,0.0,-0.039457,,3,3.0
Li2InHg2,0.0,-0.0352088,,3,3.0
FeRhHf2,0.0,-0.0449773,,3,3.0
In2SmHo,0.0,-0.0406748,,3,3.0
Cr2Fe2Y,0.0,-0.0200158,,3,3.0
Tb3Ir,0.0,-0.0535462,,3,3.0
O4TiPt,1.105,-0.0205136,,3,3.0
GdPtPb,0.0,-0.0692639999999999,,3,3.0
Ge3RhGd,0.0,-0.0307264,,3,3.0
Li2O2Fe,0.0,-0.008826,,3,3.0
Ru2ThPu,0.0,-0.0692106,,3,3.0
CSc2Fe2Sn2,0.0,-0.0213160999999999,,3,3.0
Si2CuHf,0.0,-0.0249441,,3,3.0
O4TiMo,0.0,-0.0152538,,3,3.0
C2O6MgCa,5.7884,-0.0095701,,3,3.0
Rh2InSn,0.0,-0.0345777,,3,3.0
O5BaSm2Pt,3.0067,-0.0284722,,3,3.0
Zn2YAg2,0.0,-0.0238108,,3,3.0
F6CaPa,1.6094,-0.0203263,,3,3.0
Ru2Pt,0.0,-0.0466503,,3,3.0
EuTbPb,0.0,-0.0594311999999999,,3,3.0
CBrEu,0.0,-0.0289031999999999,,3,3.0
Al6Cr6Lu,0.0,-0.0164951,,3,3.0
Y2In2Hg,0.0,-0.0387232,,3,3.0
O7CaCs2Ta2,2.4443,-0.0247428,,3,3.0
TiCo2Sn,0.0,-0.0220615999999999,,3,3.0
F3P,5.9772,-0.0076827,,3,3.0
P2K2Mn,0.0,-0.0116655,,3,3.0
BNFePa,0.0,-0.0346149,,3,3.0
TmPt,0.0,-0.062563,,3,3.0
SiRh2Sm2,0.0,-0.0342826,,3,3.0
AlIr2Th2,0.0,-0.0694021,,3,3.0
YAgPt4,0.0,-0.0575122,,3,3.0
CoSnTb,0.0,-0.0338479999999999,,3,3.0
FeGeTm,0.0,-0.030212,,3,3.0
F6RbCs2Pu,0.0036,-0.0259644,,3,3.0
H4CuY,0.5233,-0.0099074,,3,3.0
Mg7Ca3Cu2,0.0,-0.0079351,,3,3.0
O6TiEu2Dy,0.0,-0.0243263999999999,,3,3.0
F3Ce,0.5708,-0.0181056,,3,3.0
O6MnBa2Hf,2.0361,-0.0228782,,3,3.0
Cl6RhCs2,0.0,-0.0189008,,3,3.0
CaGa3Ag,0.0,-0.0184349,,3,3.0
Cl6GaRb2In,1.6852,-0.0154559,,3,3.0
O6Ca2EuTa,0.2771,-0.0208905,,3,3.0
MgCu4Hf,0.0,-0.0216041999999999,,3,3.0
Ga3Zr,0.0,-0.0205152,,3,3.0
Er3Pt2Tl3,0.0,-0.0644952,,3,3.0
Ni3GeDy2,0.0,-0.0277971,,3,3.0
AgTe3CsTm,0.0,-0.0398085,,3,3.0
In2BaAu2,0.0,-0.0496244999999999,,3,3.0
O10Sr2Ru3,0.0,-0.0157327999999999,,3,3.0
Cl6K2CuTm,2.9792,-0.0151237,,3,3.0
AlGa3Ge2Lu3,0.0,-0.0295834,,3,3.0
LiCu2As2Er,0.0,-0.0213601,,3,3.0
Li7Cd,0.0,-0.0060025,,3,3.0
H4MnNi,0.0,-0.0080404,,3,3.0
SiCu2Eu,0.0,-0.0238778,,3,3.0
Li3O8P2Bi,3.7819,-0.0135015999999999,,3,3.0
O2Ca2NiBr2,0.0,-0.0145866,,3,3.0
LiCl6GaRb2,3.1837,-0.0126047,,3,3.0
Na2Sb2Hg,0.0,-0.0305340999999999,,3,3.0
H6Na3Ni,0.0,-0.0051543,,3,3.0
Zn2RuLu3,0.0,-0.038542,,3,3.0
Al3Ho2Re,0.0,-0.0325767999999999,,3,3.0
FClSn,3.524,-0.0175122,,3,3.0
Na5As4,0.0,-0.0118152,,3,3.0
Ni2TcAu,0.0,-0.0340817,,3,3.0
Li4OF5Co,0.0,-0.0072797999999999,,3,3.0
TiZrOs2,0.0,-0.0483973,,3,3.0
Si2Os2Np,0.0,-0.0545603,,3,3.0
CI2Tm2,0.5974,-0.0385677,,3,3.0
Te2Er,0.0,-0.0428261,,3,3.0
F5K2Sb,5.2161,-0.0117321,,3,3.0
PKCa,2.2747,-0.0104094,,3,3.0
B2Ni7Th3,0.0,-0.0350510999999999,,3,3.0
F3As,5.6732,-0.0099013,,3,3.0
BNi6Dy2,0.0,-0.0226474,,3,3.0
SbHoPt,0.1537,-0.0536314,,3,3.0
LiF6InTl2,4.5086,-0.0226575,,3,3.0
F6AsCs3,4.6734,-0.0181083,,3,3.0
Se2AgNd,1.3306,-0.0301531999999999,,3,3.0
CoZn2Tm,0.0,-0.0242373,,3,3.0
Li4AlY,0.0,-0.0075698,,3,3.0
La2IrHg,0.0,-0.0571811,,3,3.0
O4CaSe,3.9466,-0.0109552,,3,3.0
SeTe4Pb5,0.592,-0.0552051999999999,,3,3.0
InHf,0.0,-0.0483192,,3,3.0
O7K2SrU2,1.118,-0.0272194,,3,3.0
Fe4ZrRh,0.0,-0.023061,,3,3.0
LiZn2Y2,0.0,-0.0173159999999999,,3,3.0
F6NaRb2Tm,7.5521,-0.0154631,,3,3.0
ZnPd2Hf,0.0,-0.0361845,,3,3.0
MgScPb2,0.0,-0.0430997,,3,3.0
MoRe2Pt,0.0,-0.0620021,,3,3.0
C2Cr2Fe,0.0,-0.0149363,,3,3.0
Eu2Pb,0.0,-0.0616651999999999,,3,3.0
Ag2SmGd,0.0,-0.0407608,,3,3.0