formula,bg,formation_energy,mp-id,fidelity,bg_category
ClFe2Th2,0.0,-0.0478061,,3,3.0
GaPd2Th,0.0,-0.0453277,,3,3.0
Zn2RhTb,0.0,-0.0275147,,3,3.0
Cl6KCs2Sm,5.7538,-0.0200171,,3,3.0
Y2AuPb,0.0,-0.0510722,,3,3.0
AlIr4,0.0,-0.058836,,3,3.0
F3Tm,7.8967,-0.019997,,3,3.0
Sc2Ni2Hf,0.0,-0.025068,,3,3.0
H6RbRhCs2,3.3373,-0.0154948,,3,3.0
LiAl4Sm,0.0,-0.0133204,,3,3.0
Mg7Sc6,0.0,-0.0092299,,3,3.0
LiAu,0.0,-0.0364052,,3,3.0
Ni3Ge2Sr,0.0,-0.0185838,,3,3.0
Br4PtTl2,1.336,-0.0424642,,3,3.0
Zn2YRu,0.0,-0.0227735,,3,3.0
H4NiLu,0.0,-0.0147351,,3,3.0
LiSi2Sm2,0.0,-0.0229078,,3,3.0
LiGa2Zr2,0.0,-0.0197989,,3,3.0
O4FeRb3,0.7374,-0.0147245,,3,3.0
GaPd2Lu,0.0,-0.0352997,,3,3.0
Se3Er,0.4012,-0.0288831,,3,3.0
Zn3Au2U,0.0,-0.047275,,3,3.0
Br3Ho,4.5355,-0.0289074,,3,3.0
Zn2RbPb2,0.0,-0.0399701,,3,3.0
MgScFe4,0.0,-0.015327,,3,3.0
LiO8CrMn3,0.4536,-0.0118379,,3,3.0
O6ZnBa2U,2.0509,-0.0263679,,3,3.0
GeBr3Y3,0.0,-0.0244952,,3,3.0
SrHg5,0.0,-0.0608975999999999,,3,3.0
FePt2,0.0,-0.0532173,,3,3.0
LiS2Ho,2.2132,-0.01976,,3,3.0
Sc2Co3Ir,0.0,-0.0257373,,3,3.0
CoTe2Ba,0.0,-0.0336469999999999,,3,3.0
Al5ScPt2,0.0,-0.025148,,3,3.0
Ru2SmU,0.0,-0.0548255,,3,3.0
Sn2BaIr,0.0,-0.0462466999999999,,3,3.0
Al2CaAc,0.0,-0.0291168,,3,3.0
AgTe3BaLu,0.8543,-0.0410116,,3,3.0
K3RbAu,0.0,-0.0231243,,3,3.0
AlSiGd,0.0,-0.0261511,,3,3.0
C2TiTm,0.0,-0.0226874,,3,3.0
Be2Ti2Os,0.0,-0.0229926999999999,,3,3.0
LiIrPb4,0.0,-0.0628844,,3,3.0
O5TiBi2,2.957,-0.0275131,,3,3.0
NiEr3,0.0,-0.0420496,,3,3.0
Pd2Cd3Ho,0.0,-0.0347535,,3,3.0
O8CrMn3,0.1049,-0.0122706999999999,,3,3.0
CoSnPa,0.0,-0.0512883,,3,3.0
VFeRu2,0.0,-0.0265889999999999,,3,3.0
O4CaNp,0.007,-0.0267372,,3,3.0
Y2RuPd,0.0,-0.0315321,,3,3.0
CaHgPb2,0.0,-0.0577755,,3,3.0
H4Na2Pd,2.5543,-0.008194,,3,3.0
Mn2NiZn,0.0,-0.0167872,,3,3.0
PSc2I2,0.0,-0.0239898999999999,,3,3.0
Ni2MoPt,0.0,-0.0345605,,3,3.0
N3Mg2P,4.2308,-0.0092406,,3,3.0
F2Cr,1.6186,-0.0111989,,3,3.0
KIn4Tl,0.0,-0.035794,,3,3.0
O6Co2Ni,0.3664,-0.0108297,,3,3.0
Ti6ZnBi2,0.0,-0.0298839,,3,3.0
O4ClFeMo,1.3705,-0.0140676,,3,3.0
Cl4NiRb2,0.9674,-0.0144784,,3,3.0
Co2NdPa,0.0,-0.0447218,,3,3.0
Cu2In3Sm3,0.0,-0.0334718,,3,3.0
O2SEu2,0.0,-0.0286192,,3,3.0
Fe2HoU,0.0,-0.0473023,,3,3.0
NiPdTe2,0.0,-0.0310912,,3,3.0
Cu2YIn2,0.0,-0.0253478,,3,3.0
Se4SrAg2In,0.0,-0.0256492,,3,3.0
MgYHg,0.0,-0.0343322999999999,,3,3.0
O4HfTh,5.1152,-0.0345655,,3,3.0
Ca3ZnGa3Ge2,0.0,-0.0149557,,3,3.0
Sc2Zn2Hg,0.0,-0.0252201999999999,,3,3.0
PrAu2Hg,0.0,-0.0631625,,3,3.0
O5Cl2Sb4,2.8342,-0.0191529,,3,3.0
GeSr2Ag,0.0,-0.0241807,,3,3.0
AsIn2Ba,0.0,-0.0322586999999999,,3,3.0
LiAs2TbPt2,0.0,-0.0394005,,3,3.0
NaAg2Bi2,0.0,-0.044875,,3,3.0
RhCdEr,0.0,-0.0388921,,3,3.0
CoBrDy,0.0,-0.0292413999999999,,3,3.0
Si2CoEr2,0.0,-0.028361,,3,3.0
O8NaCr2Fe,0.6161,-0.0109283,,3,3.0
Zn2Pd3Pu,0.0,-0.0396621,,3,3.0
OF2Te,4.5629,-0.0144356,,3,3.0
Br6Rb2Te,2.136,-0.0228852,,3,3.0
Na2ZnAg2,0.0,-0.0169034,,3,3.0
CrNiAs,0.0,-0.0186626,,3,3.0
Ag3Lu,0.0,-0.0375888,,3,3.0
NaSbCs2,0.8985,-0.0297716999999999,,3,3.0
SiFeNd,0.0,-0.0244037,,3,3.0
F8NaCu2Er,2.4234,-0.0123585999999999,,3,3.0
SrCdSn,0.0,-0.0301925,,3,3.0
Rb2PdI6,0.0,-0.0335790999999999,,3,3.0
Be2Ti2Re,0.0,-0.0226528,,3,3.0
SnAu2Th2,0.0,-0.0740562,,3,3.0
As4Nb5,0.0,-0.0280595,,3,3.0
Mg2SBr2,4.6411,-0.0133607999999999,,3,3.0
AlRhCe,0.0,-0.0296314,,3,3.0
Ta4Ir,0.0,-0.0678678,,3,3.0
MgCd4La,0.0,-0.0285416,,3,3.0
MnNi2Pr2,0.0,-0.0276853,,3,3.0
TiPdPt2,0.0,-0.0482169,,3,3.0
Sr2AgSb,0.0,-0.0290574,,3,3.0
LiZrAg2,0.0,-0.0240681,,3,3.0
Al3Si2CrNd3,0.0,-0.0219848999999999,,3,3.0
P2FeEr6,0.0,-0.0385962,,3,3.0
CCdLu2,0.0,-0.0382633999999999,,3,3.0
Be5Hf,0.0,-0.0142852,,3,3.0
P2CaCu,0.0,-0.0120795,,3,3.0
Ni2Ga5Np,0.0,-0.0279469,,3,3.0
GaSe4In2Tl,0.2764,-0.0300245,,3,3.0
O3GeIn,1.8013,-0.0158659999999999,,3,3.0
Ge2Ru2Np,0.0,-0.0432922,,3,3.0
Ag2Cd3Nd,0.0,-0.0331941,,3,3.0
AsRbBa3,0.0,-0.0324388,,3,3.0
KIn2,0.0,-0.0252521,,3,3.0
CaTa2Ir2,0.0,-0.0577265,,3,3.0
BeSc2Cd,0.0,-0.0160429,,3,3.0
CdLuAu2,0.0,-0.0568357,,3,3.0
Rh2TmHg,0.0,-0.0474816999999999,,3,3.0
O4AlTiCs,4.3259,-0.0154408,,3,3.0
HBrTb,0.0,-0.0246278,,3,3.0
RuTe2Er6,0.0,-0.0465328,,3,3.0
O7Na2SrNb2,2.5698,-0.0144544,,3,3.0
MgSe4Pr2,1.8271,-0.0264297,,3,3.0
Li2AlIr,0.0,-0.0214829,,3,3.0
As2Pd2Cs,0.0,-0.0293732,,3,3.0
Co4TcTa,0.0,-0.0285253,,3,3.0
Ti6CuBi2,0.0,-0.0300502,,3,3.0
AgSbBa,0.062,-0.0369441,,3,3.0
ZnSe4Tl2,0.4108,-0.0344363,,3,3.0
CdIn2Tm2,0.0,-0.0406539,,3,3.0
TiZrMo4,0.0,-0.0311191,,3,3.0
B3TiFe,0.0,-0.0120325,,3,3.0
O6Sr2MoU,0.7459,-0.0249981,,3,3.0
SbAuPu2,0.0,-0.0821173,,3,3.0
Fe5Gd,0.0,-0.0248982,,3,3.0
MgAsPd2,0.0,-0.0232354,,3,3.0
B2Co3La,0.0,-0.0185931,,3,3.0
Ag4Tb,0.0,-0.0346786,,3,3.0
GeRbAu3,0.0,-0.0497023,,3,3.0
SbGdEr,0.0,-0.0496912,,3,3.0
La7Hg,0.0,-0.0463762,,3,3.0
ILaIr,0.0,-0.0516486,,3,3.0
RhIrPu2,0.0,-0.0815858,,3,3.0
SrI4Tb,0.0,-0.0375251,,3,3.0
S2CsPb2,0.0,-0.0423868,,3,3.0
Fe8Np,0.0,-0.0279102,,3,3.0
H8O12MgCl2,6.1223,-0.006213,,3,3.0
CuBaPb2,0.0,-0.052016,,3,3.0
H2AlZr2,0.0,-0.015714,,3,3.0
AgSnTb2,0.0,-0.0408003,,3,3.0
B2N3Rh2Nd3,0.0,-0.0254738,,3,3.0
Cu2CdPm,0.0,-0.0263843,,3,3.0
Li2NaAu2,0.0,-0.0299935,,3,3.0
CaRu,0.0,-0.0222113,,3,3.0
CoGe2In3Er3,0.0,-0.0347043,,3,3.0
O4SnHf,3.7561,-0.0233468,,3,3.0
H6LiNa2Al,3.4939,-0.0042461,,3,3.0
C2ScNb,0.0,-0.0174648,,3,3.0
NiBr4Rb2I2,0.3855,-0.0242281,,3,3.0
SeSbPr,0.0,-0.0351548999999999,,3,3.0
Rh2CdTm2,0.0,-0.0411659,,3,3.0
Se3SrDyAu,1.3921,-0.0349005,,3,3.0
SSnTh,0.0,-0.0485921999999999,,3,3.0
Al5Cu2Th,0.0,-0.0210171,,3,3.0
Si3CoPr,0.0,-0.0187414,,3,3.0
Mg2ErTm,0.0,-0.0280837,,3,3.0
CO4Al4,4.2533,-0.0098877,,3,3.0
AsCd3,0.0,-0.0278519,,3,3.0
AsBr2Ho2,0.0,-0.0332826,,3,3.0
ScGe2Y2,0.0,-0.0225538999999999,,3,3.0
F4BaAu,1.2847,-0.0230219999999999,,3,3.0
B5Ru3Nd2,0.0,-0.0234526,,3,3.0
Sc7Zr,0.0,-0.0162159,,3,3.0
BaIrPb3,0.0,-0.0679945,,3,3.0
O2MnAsI,2.4734,-0.0187522,,3,3.0
PSc2Br2,0.0,-0.017393,,3,3.0
SiTe4Bi2,0.2838,-0.0451772,,3,3.0
LiO2Ti,0.0,-0.0106132,,3,3.0
O4Ca2Ti,2.2741,-0.0119669,,3,3.0
Ni2GaLu2,0.0,-0.0325709999999999,,3,3.0
HBeAs,0.6002,-0.0094754,,3,3.0
O2NaTb,4.6435,-0.0189266,,3,3.0
Br6Rb2Ir,0.0,-0.0265526,,3,3.0
AlMnW2,0.0,-0.041436,,3,3.0
ScY2Ir,0.0,-0.0358654,,3,3.0
Si3CeAu,0.0,-0.0292449,,3,3.0
CeAu2Pb,0.0,-0.0653571,,3,3.0
ZnTm2Pt,0.0,-0.047864,,3,3.0
F6HfPu,0.0,-0.0278648999999999,,3,3.0
AlCo2Tc,0.0,-0.0195458999999999,,3,3.0
Lu3Pt2Tl3,0.0,-0.0663581999999999,,3,3.0
KCaAg2,0.0,-0.0202984,,3,3.0
Pd2Cd3Gd,0.0,-0.0364048,,3,3.0
CoTaIr,0.0,-0.0521622,,3,3.0
MgCo4Lu,0.0,-0.0217398,,3,3.0
CoNiGe,0.0,-0.0177026,,3,3.0
Ho3Pt,0.0,-0.055123,,3,3.0
S3TiRbAg,0.5788,-0.0173302,,3,3.0
O7La2Eu2,0.0,-0.0245087,,3,3.0
Al3Ge2IrPa3,0.0,-0.0485307,,3,3.0
Pd2InHg,0.0,-0.0421255,,3,3.0
NaS3MnNi,0.0,-0.0120714,,3,3.0
MnFeCo,0.0,-0.017793,,3,3.0
MgS4CrDy,1.5892,-0.0173282999999999,,3,3.0
K2NiI6,0.0,-0.0288665,,3,3.0
AlAu4,0.0,-0.0571407,,3,3.0
MnSe4Cs3,0.8842,-0.0275118,,3,3.0
Al3Sc3Ge2Re,0.0,-0.0201636,,3,3.0
Sr2CdBi,0.0,-0.0390623,,3,3.0
ZnLu3Pt2,0.0,-0.0545270999999999,,3,3.0
Se2Rb2Au,0.0,-0.0310446999999999,,3,3.0
O6FeInBa2,0.0,-0.0189859,,3,3.0
Na4P2Ba,1.424,-0.0116724999999999,,3,3.0
NNiZr3,0.0,-0.0246137,,3,3.0
Cu2Zn2Sb4Ba3,0.0,-0.0302273,,3,3.0
Rh2Cd2Ba,0.0,-0.0337759,,3,3.0
FeCuAu2,0.0,-0.0429596,,3,3.0
Be4RuIr,0.0,-0.0210422,,3,3.0
Mg3Al7Ag2,0.0,-0.0110294,,3,3.0
Rh2SnTb2,0.0,-0.0403184,,3,3.0
Rh2CePu,0.0,-0.0560298,,3,3.0
NaPBr6Rb2,2.3599,-0.0185018999999999,,3,3.0
Ca3Ge2Sn3Au,0.0,-0.0277326,,3,3.0
MgNbRu2,0.0,-0.0272953,,3,3.0
Al9Fe2Er,0.0,-0.0132918,,3,3.0
Li2O4GeSr,4.8541,-0.0113304,,3,3.0
MgCu4Er,0.0,-0.0196452999999999,,3,3.0
In2SmIr,0.0,-0.0462721,,3,3.0
PdPb4,0.0,-0.0673168,,3,3.0
PAsPt,0.9989,-0.034364,,3,3.0
CaZn2Au3,0.0,-0.0412198,,3,3.0
F6AlCs2Tl,6.0564,-0.02087,,3,3.0
Al5Ti2Y,0.0,-0.0127593999999999,,3,3.0
Li3Rb2I5,4.6034,-0.0246981,,3,3.0
O3CoCd,0.0,-0.0144546,,3,3.0
KRb2Cd2,0.0,-0.0221554,,3,3.0
Li2CaCd,0.0,-0.0114115,,3,3.0
Li4CaLa,0.0,-0.0103367,,3,3.0
GeSe4YAg2,0.0,-0.0244809,,3,3.0
CaAs3,0.0,-0.0182095,,3,3.0
GaRh2U2,0.0,-0.0586634,,3,3.0
LiMgAgIn,0.0,-0.0183741999999999,,3,3.0
F6RbCs2Ba,0.0,-0.0185286,,3,3.0
P2Mn2Ba,0.0,-0.0202322,,3,3.0
F6KRb2Nd,6.8622,-0.0149267,,3,3.0
SiEr2Os3,0.0,-0.0549658,,3,3.0
Ge2Pt3,0.0,-0.0502662,,3,3.0
CoHf3Os2,0.0,-0.0589506,,3,3.0
MgS2Pb,1.1179,-0.026058,,3,3.0
B2O6CsTa,3.8046,-0.0184614,,3,3.0
LiSe2La,2.0502,-0.0233563,,3,3.0
GeTe4Hg2,0.0957,-0.0436025,,3,3.0
In3Er,0.0,-0.0381241,,3,3.0
ZnIn5La,0.0,-0.0322557,,3,3.0
SiLa2,0.0,-0.0326503999999999,,3,3.0
ZnCs2Au2,0.0,-0.0457427,,3,3.0
Li3O14P4Mn2,0.0478,-0.0099750999999999,,3,3.0
TiCoNiGa,0.0,-0.0170704,,3,3.0
H2FeNb2,0.0,-0.0184079,,3,3.0
CuGaAu2,0.0,-0.0425913,,3,3.0
GeIPa,0.0,-0.0523537,,3,3.0
YCdAu4,0.0,-0.0563766,,3,3.0
NFSr2,1.8653,-0.0164157,,3,3.0
Fe4SnHf,0.0,-0.028694,,3,3.0
Co2Tc,0.0,-0.0230871,,3,3.0
YPd4Hg,0.0,-0.0385285,,3,3.0
Al4Si2Ca3,0.0,-0.0092708999999999,,3,3.0
LiNi2Ba,0.0,-0.0184581,,3,3.0
F6NaCs2Np,0.1937,-0.0239945,,3,3.0
RuInLu,0.0,-0.0416787,,3,3.0
RhIn5U,0.0,-0.0436713,,3,3.0
GeSePd,0.1079,-0.0244532999999999,,3,3.0
ScCoAs2,0.0,-0.0187822,,3,3.0
Be4TiTa,0.0,-0.016858,,3,3.0
ZnNd2Pt2,0.0,-0.0493355,,3,3.0
Zn2As3Br,1.5603,-0.0182015,,3,3.0
ScMn4W,0.0,-0.0261534,,3,3.0
NaGaAg,0.0,-0.0174177,,3,3.0
Ge2RuIn3Pr3,0.0,-0.0344048,,3,3.0
O6ZnLa2Hf,4.5819,-0.0233471,,3,3.0
AlSc2Ga3,0.0,-0.0148183,,3,3.0
RuPrBi2,0.0,-0.0593215999999999,,3,3.0
Te2CsU,0.0,-0.0548742,,3,3.0
Ga3PdPr,0.0,-0.0258259,,3,3.0
ClMnTe,0.0,-0.0220489,,3,3.0
SeTe2Dy,0.0,-0.0368004,,3,3.0
LiRhIr2,0.0,-0.044759,,3,3.0
Ga2Tl2Pb,0.0,-0.0505296,,3,3.0
Al5Cu,0.0,-0.00907,,3,3.0
GeTaPu,0.0,-0.0654926,,3,3.0
F6RbCs2Lu,7.271,-0.020876,,3,3.0
OMnTeBa,1.0815,-0.0272189,,3,3.0
In3Eu,0.0,-0.0389449,,3,3.0
BRu3Ho,0.0,-0.0325513,,3,3.0
F6PrU,0.175,-0.0248423,,3,3.0
FeRh2In,0.0,-0.0301235,,3,3.0
CuZnTh2,0.0,-0.0552075,,3,3.0
BGa2EuOs2,0.0,-0.0400848,,3,3.0
LiTi2Pd2,0.0,-0.0204742,,3,3.0
B2N3Fe2Ce3,0.0,-0.022469,,3,3.0
KSn2Au2,0.0,-0.0440285,,3,3.0
Si3PdBa2,0.0,-0.0242552999999999,,3,3.0
H2CY2,0.0,-0.0152331,,3,3.0
CoSbHf2,0.0,-0.0454809,,3,3.0
SiTiCr,0.0,-0.0154193,,3,3.0
Rh2LaDy,0.0,-0.0404133,,3,3.0
NiIn3Tl,0.0,-0.0377666,,3,3.0
Ag4Pb,0.0,-0.0401611,,3,3.0
NaP2Pd2Nd,0.0,-0.0233075,,3,3.0
P2Ni2Nb,0.0,-0.0179746,,3,3.0
O3AlRb3,3.3689,-0.0148091,,3,3.0
O6Sr2GdTa,3.8095,-0.0241387,,3,3.0
CGe2Lu2W2,0.0,-0.0431299,,3,3.0
NaCuSb,0.0,-0.0191402,,3,3.0
GaSb3Pu2,0.0,-0.058359,,3,3.0
AlSm2Tl,0.0,-0.0427134,,3,3.0
Li2GaPt,0.0,-0.0236171,,3,3.0
H2F2Sr,8.0197,-0.0096992,,3,3.0
O2RbEu,0.0,-0.0241761,,3,3.0
Se3RbInHg,0.8165,-0.0311009,,3,3.0
AlScRu,0.0339,-0.0197145,,3,3.0
Ni2CuLa,0.0,-0.0229065,,3,3.0
Tm6IrBi2,0.0,-0.0607061,,3,3.0
NaSK,3.2704,-0.0086801999999999,,3,3.0
AlMnPdIr,0.0,-0.0333174,,3,3.0
P2K3Cu3,1.4149,-0.0118249,,3,3.0
H2TcSb,0.5073,-0.0198739,,3,3.0
NaCd2La,0.0,-0.0273316,,3,3.0
Sn2HoAc,0.0,-0.053481,,3,3.0
Ca2Tl2Pb,0.0,-0.0484619,,3,3.0
O4PrHf,0.0,-0.0251479,,3,3.0
Fe2In5Tm4,0.0,-0.0377052,,3,3.0
S3Cs2Nd,0.0,-0.0262335,,3,3.0
Al2Ga,0.0,-0.0106019,,3,3.0
SiNbIr2,0.0,-0.0471635,,3,3.0
B2O6BaSm,0.0,-0.0165474,,3,3.0
K2GaAu,0.0,-0.0257853,,3,3.0
CoGa7La2,0.0,-0.0223807,,3,3.0
CoSe3RbDy,0.0,-0.0257423,,3,3.0
MgWIr2,0.0,-0.0546706,,3,3.0
C5Ta6,0.0,-0.0415397,,3,3.0
Ge3Pr,0.0,-0.0256389,,3,3.0
B2O6K3Y,3.6878,-0.0115003,,3,3.0
KCu2As2Lu,0.0,-0.0231593,,3,3.0
Sb2La6Os,0.0,-0.0457376,,3,3.0
SSnPr,0.0,-0.0311646,,3,3.0
O3AsAg,0.6778,-0.0150439,,3,3.0
ISm,0.0,-0.0416215,,3,3.0
BeTi3,0.0,-0.0131038,,3,3.0
Al5Sc,0.0,-0.0090794999999999,,3,3.0
B4O12Fe3Dy,1.1047,-0.0126954999999999,,3,3.0
Ti3Se6Pd,0.0,-0.0212511,,3,3.0
ZnY2Hg,0.0,-0.034967,,3,3.0
B6O13Co4,1.7338,-0.0106379,,3,3.0
B2GdIr2,0.0,-0.0440397,,3,3.0
O5S2Ti2Tm2,0.8354,-0.0201164,,3,3.0
B2CPt2Th,0.0,-0.0443106,,3,3.0
GaI6Cs2Tl,0.6038,-0.0394472,,3,3.0
Ni4CdPu,0.0,-0.0342806,,3,3.0
Cu2SrAg,0.0,-0.0210799999999999,,3,3.0
B2CNi2Dy,0.0,-0.0180938,,3,3.0
C3U2,0.0,-0.0474999,,3,3.0
NiCu2Ir,0.0,-0.0293736,,3,3.0
H2Ni2Ag,0.0,-0.0140473,,3,3.0
H2Y,0.0,-0.0124116,,3,3.0
CBrTm,0.0,-0.0283668,,3,3.0
C2O6CoCs2,1.0534,-0.0152388,,3,3.0
CdTlTh,0.0,-0.0664475,,3,3.0
H2O3AsSeRb,3.109,-0.0120635,,3,3.0
NaRb2I6Bi,2.4207,-0.0355416,,3,3.0
Al4Si2RhCe,0.0,-0.0168578,,3,3.0
O6CdEu2W,0.5276,-0.0269533,,3,3.0
Na2GaAg,0.0,-0.0140733,,3,3.0
ZrTc2Ce,0.0,-0.0365545,,3,3.0
LiHg2Pu,0.0,-0.0623416,,3,3.0
Ge2RuPa,0.0,-0.0436883,,3,3.0
Be2Mo2Hf,0.0,-0.0283977,,3,3.0
B4ScHo,0.0,-0.0162523,,3,3.0
CaNi4Y,0.0,-0.0173082,,3,3.0
PrAuHg2,0.0,-0.0628136,,3,3.0
B2Rh2Ho,0.0,-0.0270748,,3,3.0
Si3NbNd,0.0,-0.021942,,3,3.0
O6Ca2MoSm,0.0,-0.0165874999999999,,3,3.0
RuTa2W,0.0,-0.0597817,,3,3.0
Si2MnPr,0.0,-0.0210589,,3,3.0
NaZn2Sn2,0.0,-0.0207325,,3,3.0
Sc2MnGa2,0.0,-0.0165059,,3,3.0
CrNi3,0.0,-0.0167554,,3,3.0
C2Al2TiCr3,0.0,-0.0136978,,3,3.0
SAgIHg,1.5199,-0.0366903,,3,3.0
F3Ru,0.0,-0.0131643,,3,3.0
LiCu2Zn,0.0,-0.011688,,3,3.0
F6K2Cr,0.7473,-0.0092508,,3,3.0
LiCl6Rb2Rh,2.3331,-0.0142166,,3,3.0
Cu2BaIr,0.0,-0.0353406999999999,,3,3.0
CaIn3Au,0.0,-0.0363355,,3,3.0
Si2Er3,0.0,-0.0349475,,3,3.0
SiZn3Pa2,0.0,-0.0417312,,3,3.0
InTl2Pb,0.0,-0.0634547,,3,3.0
Rb2PtBi,0.0,-0.0479172,,3,3.0
NbPd,0.0,-0.0332866,,3,3.0
InErBi,0.0,-0.0546561999999999,,3,3.0
H2LiCa2,0.0,-0.0060872,,3,3.0
As2PdTh,0.0,-0.0432815999999999,,3,3.0
NaCl6Rb2Nd,5.5946,-0.0160295,,3,3.0
PAgBa2,0.8338,-0.0309649,,3,3.0
SiMoTh,0.0,-0.047289,,3,3.0
PSe3CsAu,1.237,-0.030207,,3,3.0
O8CoCsW2,2.3534,-0.022446,,3,3.0
NSc3Ir,0.0,-0.025976,,3,3.0
NaBr3Pu,0.0,-0.0360308,,3,3.0
GaInSn2,0.0,-0.0301974,,3,3.0
PtHg3,0.0,-0.068669,,3,3.0
Co2Ge7Tb3,0.0,-0.0263702,,3,3.0
Sc3FeY,0.0,-0.0176876,,3,3.0
O6Sr2TbW,0.0,-0.0229101,,3,3.0
CaCu4Zn,0.0,-0.014098,,3,3.0
Fe2Re,0.0,-0.0357933999999999,,3,3.0
Si2FeGa3Tb3,0.0,-0.025893,,3,3.0
O6K2NbTe,0.0,-0.0144239,,3,3.0
F6CaCe,3.6418,-0.0134118,,3,3.0
Cl6K2Bi,0.0,-0.0172862,,3,3.0
PTcLa,0.0,-0.0302708,,3,3.0
BeCu2,0.0,-0.011726,,3,3.0
Rh2SnPu,0.0,-0.0537911,,3,3.0
Sc2ZrRe,0.0,-0.0327081,,3,3.0
Ni2SnTe3,0.0,-0.0302252,,3,3.0
B2Ir3U,0.0,-0.0558245,,3,3.0
HCa3Ga,0.0,-0.0100791,,3,3.0
SnNd2Au2,0.0,-0.0533095,,3,3.0
Ge6TbIr4,0.0,-0.0411384,,3,3.0
ZrMo2Tc,0.0,-0.0340287,,3,3.0
Y2Ru2Cd,0.0,-0.0315162,,3,3.0
OZnAsTm,1.4636,-0.0249738,,3,3.0
Ge2TmPt3,0.0,-0.0509813,,3,3.0
LiNaTl2,0.0,-0.0380524,,3,3.0
H2Zn,3.1374,-0.0067176,,3,3.0
O4NaPNi,2.2322,-0.0101437,,3,3.0
O8V2Pb3,3.0762,-0.0260491999999999,,3,3.0
K2Br6Pt,1.3386,-0.0237449,,3,3.0
MoRu2Rh,0.0,-0.0346672,,3,3.0
KCu2As2Pu,0.0,-0.0320374,,3,3.0
CdSbPb2,0.0,-0.0547384,,3,3.0
NaPZn,1.6534,-0.0099019,,3,3.0
Rh2CdBi,0.0,-0.0441454,,3,3.0
AlHfAu,0.0,-0.0473695,,3,3.0
FeTh3,0.0,-0.0764588,,3,3.0
P5Ho,0.2609,-0.01745,,3,3.0
HSeSm,2.0189,-0.0243093,,3,3.0
H6Pr2Re,0.0,-0.0203795,,3,3.0
Ge2Er2Pb,0.0,-0.043642,,3,3.0
AlBr6Cs2Tl,3.1222,-0.0287453,,3,3.0
LiCl6InCs2,3.4968,-0.0177998,,3,3.0
CoNbTe2,0.0,-0.031578,,3,3.0
MgRh2Gd,0.0,-0.0335344,,3,3.0
OPZnLa,1.5013,-0.0204049,,3,3.0
H4Na2Au,0.0,-0.0132478,,3,3.0
LiCu2Y,0.0,-0.0153084,,3,3.0
Si3NiSr2,0.0,-0.0156506,,3,3.0
ScGaSe2,0.0,-0.0189178,,3,3.0
Zr2Ir2Au,0.0,-0.0554395,,3,3.0
O6TeTm2,3.2611,-0.0226154,,3,3.0
Li2O7PrTa2,0.0,-0.0217376,,3,3.0
Sm3Pt2Tl3,0.0,-0.0622668,,3,3.0
I3Er2,0.6477,-0.0433605,,3,3.0
PPdDy,0.1223,-0.0317101,,3,3.0
Tc7Ru,0.0,-0.0349766,,3,3.0
Na2ZnPt2,0.0,-0.032824,,3,3.0
O4ZnBi2,1.8835,-0.0291515,,3,3.0
O6Ba2LaPt,0.0,-0.0254314,,3,3.0
RhDy2Pt,0.0,-0.0510992,,3,3.0
MnRb2I6,0.0,-0.032106,,3,3.0
ScPtPb,0.0,-0.0544031,,3,3.0
F6ZnCe,2.5182,-0.0132718,,3,3.0
SiRh2La2,0.0,-0.0337031,,3,3.0
CuZn2Ta,0.0,-0.0272923,,3,3.0
Al3Nb2,0.0,-0.0182749,,3,3.0
Mg2IrPt,0.0,-0.0385313,,3,3.0
NaBr6Rb2Sm,4.7317,-0.0226733,,3,3.0
NaY2Au2,0.0,-0.0404988,,3,3.0
NTi3Pt,0.0,-0.0269587,,3,3.0
RuIn2Tm6,0.0,-0.0463226999999999,,3,3.0
SrHoHg2,0.0,-0.0525331,,3,3.0
AgSn2Cs,0.0,-0.0354707,,3,3.0
MgTlPb2,0.0,-0.0573014,,3,3.0
LiMgKSe2,3.1367,-0.0126267999999999,,3,3.0
CaBi2,0.0,-0.0562036999999999,,3,3.0
SmTbIr2,0.0,-0.0592134,,3,3.0
GaPt2Th2,0.0,-0.0709449,,3,3.0
Al7Ni2Y3,0.0,-0.0148155,,3,3.0
F6FeHo,1.6824,-0.0143482,,3,3.0
O3CuGd,0.0,-0.0207351,,3,3.0
BeSrPt,0.0,-0.0330298,,3,3.0
LiAsHg,0.0,-0.0306019,,3,3.0
CSi2Mn2Ho2,0.0,-0.0241923,,3,3.0
CoIn2Er,0.0,-0.0339078,,3,3.0
NDy3Tl,0.0,-0.0461929,,3,3.0
LiGa2Ru,0.0,-0.0178814999999999,,3,3.0
P2Se6Rb2Sn,0.5079,-0.020501,,3,3.0
PNi2Pd,0.0,-0.0193648999999999,,3,3.0
Ga2Rh3Dy,0.0,-0.031156,,3,3.0
SiNdIr,0.0,-0.0426717,,3,3.0
GaGeY,0.0,-0.0218332,,3,3.0
PmHg2Pb,0.0,-0.0644846,,3,3.0
Zn4Ge4Er3,0.0,-0.026156,,3,3.0
F6LuTl,4.6157,-0.0217208,,3,3.0
ClKRb3,0.0,-0.0165079,,3,3.0
NFe3In,0.0,-0.0194715,,3,3.0
InHfIr,0.0,-0.0564684,,3,3.0
SbTeSm,0.0,-0.0409285,,3,3.0
YSbPt,0.2927,-0.0465777,,3,3.0
ZrNbSn,0.0,-0.0337839,,3,3.0
RbBa2Tl2,0.0,-0.0492849,,3,3.0
H3CoPr,0.0,-0.0146567,,3,3.0
Co3RuTb2,0.0,-0.0301466,,3,3.0
SClTi,0.0,-0.0128916,,3,3.0
MgCu4La,0.0,-0.0183289,,3,3.0
GeBr2Er2,0.1369,-0.0333194999999999,,3,3.0
Li3O8Ni4Sn,0.0,-0.0115086999999999,,3,3.0
Na2As2Rh,0.0,-0.0171079,,3,3.0
Na2RbSn,0.0,-0.0164056,,3,3.0
Hg5Ac,0.0,-0.0722836,,3,3.0
H3HoAu,0.0,-0.0262184,,3,3.0
FeSbTe,0.4486,-0.030948,,3,3.0
O2MnI2Pb2,1.2087,-0.0376861,,3,3.0
H6Mg2Fe,2.6523,-0.0057897,,3,3.0
CdCePt4,0.0,-0.0602257,,3,3.0
ZnTc2W,0.0,-0.0383324,,3,3.0
Pd2Ag2Ba,0.0,-0.0338241,,3,3.0
Mg2CaCu3,0.0,-0.0109047,,3,3.0
RhPrHg,0.0,-0.0490897,,3,3.0
Cu2In2Eu,0.0,-0.0304815,,3,3.0
SbHfPu,0.0,-0.0703653,,3,3.0
Ni4Tc,0.0,-0.0199312,,3,3.0
Cu2InTh2,0.0,-0.0514202999999999,,3,3.0
H6NO3P,6.8298,-0.0064819,,3,3.0
LiPmPb2,0.0,-0.0500173,,3,3.0
Ru2In3Tm3,0.0,-0.0411674999999999,,3,3.0
Sr3I3Bi,1.3864,-0.0381257,,3,3.0
LiAsPt,0.0,-0.0316163,,3,3.0
SiFePd,0.0,-0.0207758,,3,3.0
AsBrPr2,0.0,-0.0332005,,3,3.0
Al2S4Ca,3.9158,-0.0106897,,3,3.0
P2FeHf6,0.0,-0.0468569999999999,,3,3.0
Co2InTb,0.0,-0.0289796,,3,3.0
CaGa3Pt,0.0,-0.0265733,,3,3.0
O6Rh3Hg,0.0,-0.0214956,,3,3.0
GaRu2Pr2,0.0,-0.0349325,,3,3.0
Sr4Hg3,0.0,-0.0424525,,3,3.0
O6CaSr2Os,0.0,-0.0187773,,3,3.0
B6O15Lu4,5.5111,-0.0175356,,3,3.0
Zn3Ga2Eu,0.0,-0.0214662,,3,3.0
GeNd2Hg,0.0,-0.044306,,3,3.0
S3Tm2,1.856,-0.0288561,,3,3.0
LiBO3V,1.1388,-0.0100738,,3,3.0
NaAs2Pt2Th,0.0,-0.0478688,,3,3.0
O2SiI,0.0,-0.0165744,,3,3.0
LiZn4Pb,0.0,-0.0220731,,3,3.0
N6Fe2La3,0.0,-0.0211031,,3,3.0
AlRh2Nd2,0.0,-0.033407,,3,3.0
Si2Ga3Y2,0.0,-0.0184128,,3,3.0
CdTe2Cs2,2.4551,-0.0371494,,3,3.0
O5Cu2BaDy,0.0,-0.0186739,,3,3.0
N3Sr3In,0.6507,-0.0189139,,3,3.0
HRhCd,0.0,-0.0226295,,3,3.0
GeRh3Eu2,0.0,-0.0387268,,3,3.0
Ge2PdNd,0.0,-0.0295448,,3,3.0
Si2LaOs,0.0,-0.0345576,,3,3.0
Ni3Nd2,0.0,-0.0274413,,3,3.0
FePd7,0.0,-0.0310387,,3,3.0
O2AgSm,3.0731,-0.0244773,,3,3.0
CuGe2Pa,0.0,-0.0385555,,3,3.0
CaZnY,0.0,-0.0172285,,3,3.0
Si2YIr2,0.0,-0.0392668,,3,3.0
Ni2CuDy3,0.0,-0.0321911,,3,3.0
AlCu2Se3,0.0,-0.0169366,,3,3.0
MgIn2Ce,0.0,-0.0295089,,3,3.0
Al4PrDy,0.0,-0.0208815,,3,3.0
MgCo2Y3,0.0,-0.0207125999999999,,3,3.0
PdIn5La,0.0,-0.0352426,,3,3.0
BCRhTm,0.0,-0.0264498,,3,3.0
AlNi3CuLa,0.0,-0.0195078,,3,3.0
MgRb4Bi2,0.4264,-0.0354103,,3,3.0
HNb3In,0.0,-0.0274432,,3,3.0
Mg2As2Gd,0.0,-0.0228014,,3,3.0
LiCu2As2Nd,0.0,-0.0202697,,3,3.0
S2GaTa,0.0,-0.026373,,3,3.0
LiO6Co2Ni,0.0,-0.0104482999999999,,3,3.0
LiPIr,0.0,-0.0286705,,3,3.0
Al3Si2Y3Ir,0.0,-0.0229684,,3,3.0
RhRe2Os,0.0,-0.0621291,,3,3.0
Be2Co2Zn,0.0,-0.0115354,,3,3.0
GeSe3Pd,1.0246,-0.0227653999999999,,3,3.0
Br7ICs2,0.8143,-0.0256575,,3,3.0
O6Ba2DyHo,0.0,-0.0243273,,3,3.0
LiRhPb,0.0,-0.0375803,,3,3.0
Al2PdTm,0.0,-0.0259506,,3,3.0
GaDy2Au2,0.0,-0.05102,,3,3.0
NiGa2Sr,0.0,-0.0183074,,3,3.0
F6SnPt,1.6153,-0.0178069,,3,3.0
CrMnCo2,0.0,-0.0177528,,3,3.0
Br6SnCs2,1.6226,-0.0267419,,3,3.0
Co2InHf,0.0,-0.0329577,,3,3.0
AlIn2La,0.0,-0.0298826999999999,,3,3.0
DyPt4Hg,0.0,-0.0669766,,3,3.0
Ca2La,0.0,-0.0207613,,3,3.0
SnTe4Hg2,0.0685,-0.0460379999999999,,3,3.0
F6Rb2YCs,6.6861,-0.0163488,,3,3.0
Na2Ge2Pd,0.0,-0.0161898,,3,3.0
ScGdIr2,0.0,-0.0547564,,3,3.0
MgTaPt2,0.0,-0.0538762,,3,3.0
H2Hf2Ir,0.0,-0.0414644,,3,3.0
K3Br6Er,5.1577,-0.0212151,,3,3.0
AlScZn,0.0,-0.0123515999999999,,3,3.0
Al2YLa2,0.0,-0.0262417,,3,3.0
CMn3Ta,0.0,-0.0263918,,3,3.0
LiEu2Hg,0.0,-0.044855,,3,3.0
RhTe3Ba,0.0,-0.0377209,,3,3.0
CdPt2,0.0,-0.0571867,,3,3.0
H3RhPb,0.0,-0.0239079,,3,3.0
As,0.0,-0.0201905,,3,3.0
KAsPt2,0.0,-0.0426943,,3,3.0
LiGe2Ir2,0.0,-0.0370064,,3,3.0
AlDy2Pt2,0.0,-0.050133,,3,3.0
Cl6Cs3Tb,5.543,-0.0231565,,3,3.0
Tc2DyPa,0.0,-0.0545760999999999,,3,3.0
Gd2Tl,0.0,-0.0637796,,3,3.0