formula,bg,formation_energy,mp-id,fidelity,bg_category
CuCdHf,0.0,-0.0362078,,3,3.0
Se2TmAu,0.4598,-0.0415448999999999,,3,3.0
F6Zn3Ta,0.0,-0.0151087,,3,3.0
F6NiLa,0.9246,-0.0132524999999999,,3,3.0
CaCePb2,0.0,-0.0521096999999999,,3,3.0
Al2LaLu,0.0,-0.0288539,,3,3.0
Si2Rh2Cd,0.0,-0.0242236,,3,3.0
N2MgIn2,0.5286,-0.0184035,,3,3.0
PY2,0.0,-0.0231949,,3,3.0
MnRu2Sb,0.0,-0.0316053,,3,3.0
Mg2TbBi2,0.0,-0.0432213,,3,3.0
H4YRh3,0.0,-0.018185,,3,3.0
PdBaHg2,0.0,-0.0527536,,3,3.0
Li2F8ZrTm,1.3348,-0.0134197,,3,3.0
CaTmTl2,0.0,-0.0521014,,3,3.0
B2O6SnHg,2.21,-0.0175425,,3,3.0
RhSb2Lu6,0.0,-0.0497661,,3,3.0
Li2AgAu2,0.0,-0.0353265,,3,3.0
Zn2InBa2,0.0,-0.0282188,,3,3.0
N2FeZn,0.0,-0.0125407,,3,3.0
O8TiMo2,2.6628,-0.0147319999999999,,3,3.0
Li2O7Ti2Sm,0.0,-0.0134053,,3,3.0
Se3AgCsTb,0.0,-0.0306448,,3,3.0
Y3RuI3,0.0,-0.0337821,,3,3.0
SbTe3Dy4,0.0,-0.0439071,,3,3.0
MnNi4Th,0.0,-0.0301919,,3,3.0
N2FeCe2,0.0,-0.0264591,,3,3.0
KPt2Bi2,0.0,-0.0615259,,3,3.0
NiY2Sb2,0.0,-0.0303384,,3,3.0
N2SbU2,0.0,-0.0538212,,3,3.0
HBr2Tb2,0.0,-0.0285771,,3,3.0
GeRb2Pt,0.0,-0.0329697,,3,3.0
O6ZrBa2Bi,0.0,-0.0252833,,3,3.0
MnZr2Cd,0.0,-0.0276724,,3,3.0
O4TmBi,0.8162,-0.0280523,,3,3.0
LiNO3,3.5217,-0.0071108,,3,3.0
O7Al4Ca,4.7424,-0.0103878,,3,3.0
Al3CrSn2Tb3,0.0,-0.0288042,,3,3.0
O3CoNd,1.1454,-0.0185519,,3,3.0
ClCoIn3,0.0,-0.0253626,,3,3.0
Al8Hg,0.0,-0.0144233,,3,3.0
Ca2CuIr,0.0,-0.0266908,,3,3.0
Mg2DyLu,0.0,-0.0283263999999999,,3,3.0
LiPt2,0.0,-0.0481141999999999,,3,3.0
Ni2Zn,0.0,-0.0153871,,3,3.0
Co2La2Hg,0.0,-0.0379392,,3,3.0
Mg2Ba,0.0,-0.016585,,3,3.0
LiIn2Ba,0.0,-0.0276881,,3,3.0
Al3Pd2Tm,0.0,-0.0244035,,3,3.0
Co4GaY4,0.0,-0.0221041999999999,,3,3.0
O6ZrMoBa2,0.0,-0.0212905,,3,3.0
Ge2YPd,0.0,-0.0255559,,3,3.0
LiBa3,0.0,-0.0302011,,3,3.0
In2SbLa,0.0,-0.0374506999999999,,3,3.0
F6SrPdBa,2.2137,-0.0161001,,3,3.0
Fe2CuGe,0.0,-0.0177062999999999,,3,3.0
Ti3Ru2Pt,0.0,-0.0322513,,3,3.0
SiCdTe4Tl2,0.7696,-0.0420542,,3,3.0
Ga2Rh3Th,0.0,-0.0392147999999999,,3,3.0
KPt2Tl2,0.0,-0.0588987,,3,3.0
Al2NiZr6,0.0,-0.0243648,,3,3.0
O4LuW,0.0,-0.0279453,,3,3.0
CaRhBa3,0.0,-0.0324986,,3,3.0
O2SePr2,2.5188,-0.0271414,,3,3.0
ZnCe3Os2,0.0,-0.0486875,,3,3.0
LiAlBr6Cs2,3.0552,-0.0219052,,3,3.0
CRe2,0.0,-0.0507837,,3,3.0
ZnZr2Mo,0.0,-0.0276416,,3,3.0
PrPmIr2,0.0,-0.0580463,,3,3.0
F4ZnDy,3.7678,-0.0160832,,3,3.0
SiScTm,0.0,-0.0260198,,3,3.0
P2FeW,0.0,-0.0275115,,3,3.0
Ni2RbTe3,0.2447,-0.0279238999999999,,3,3.0
TbIr2,0.0,-0.0639762,,3,3.0
Cu2RhIn,0.0,-0.0245475,,3,3.0
SiCa2Cu2,0.0,-0.0122715,,3,3.0
PPd3Pb,0.0,-0.037201,,3,3.0
Al2TbHg2,0.0,-0.0402066,,3,3.0
Si2YIr,0.0,-0.0308191999999999,,3,3.0
Al3ZnSn2Tm3,0.0,-0.0299079,,3,3.0
O6Sr2InPt,0.0,-0.0204757,,3,3.0
Ru2In3Er3,0.0,-0.0405982,,3,3.0
CsTlPb,0.0,-0.0622794,,3,3.0
B4Fe5Er2,0.0,-0.0204945,,3,3.0
ZnDy6Pb2,0.0,-0.0507129,,3,3.0
PS3CsAu,2.0362,-0.0251253,,3,3.0
ZnAu2Pu,0.0,-0.0658200999999999,,3,3.0
Ge2Rh2Nd,0.0,-0.0308964,,3,3.0
SrCd2Ba2,0.0,-0.0327202,,3,3.0
B4MnHo,0.0,-0.016884,,3,3.0
CoIn5Dy,0.0,-0.0334472,,3,3.0
BLaPt2,0.0,-0.0488199,,3,3.0
NaCa2Pd2,0.0,-0.0183291,,3,3.0
AlFeLu,0.0,-0.0274205,,3,3.0
CrTe4Au,0.0,-0.0397147,,3,3.0
InTmAu,0.0,-0.0524196,,3,3.0
CuHo2Tl,0.0,-0.0467799,,3,3.0
Be5Cu4,0.0,-0.0092829,,3,3.0
ScNiY,0.0,-0.019695,,3,3.0
Ga2RhHf6,0.0,-0.0497067,,3,3.0
GaTmPt2,0.0,-0.0533914,,3,3.0
BeCoZr2,0.0,-0.0210045,,3,3.0
Cr2WRe,0.0,-0.0444233,,3,3.0
F6FeZn,0.0,-0.0088687,,3,3.0
Cu2YLa,0.0,-0.0255649,,3,3.0
Rh2ReHg,0.0,-0.0517453,,3,3.0
Si3PdHo,0.0,-0.0230444,,3,3.0
Sr2Ag2Hg,0.0,-0.0354542,,3,3.0
BIr6Th2,0.0,-0.0703239,,3,3.0
ScNi2Ta,0.0,-0.0286381,,3,3.0
OAsRhTb,0.0,-0.0289301,,3,3.0
O4Ca3Cd,1.7216,-0.0132928,,3,3.0
Al4ErHf2,0.0,-0.0299298,,3,3.0
GaCd2Pb,0.0,-0.0380835,,3,3.0
CaSnPt2,0.0,-0.0473378,,3,3.0
MgPbAc2,0.0,-0.0658363,,3,3.0
Ge3Dy,0.0,-0.0267615,,3,3.0
O6Sr2NbTm,3.6876,-0.0200766,,3,3.0
PdIn4Dy,0.0,-0.0362083999999999,,3,3.0
F6In2Hf,1.9788,-0.0197646,,3,3.0
N6V2Ho3,0.0,-0.0232318,,3,3.0
NiRh8,0.0,-0.031778,,3,3.0
BeGeDy,0.0,-0.0244857,,3,3.0
LiMgBr6Cs2,0.0,-0.0215792,,3,3.0
Ni2PdSn,0.0,-0.0254354,,3,3.0
Ge2PtPu,0.0,-0.0552261,,3,3.0
RhTePr,0.8826,-0.0393359,,3,3.0
BeCrOs,0.0,-0.0317479,,3,3.0
H8FeNi2U,0.0,-0.0151119,,3,3.0
Li7VAs4,1.173,-0.0103205,,3,3.0
CaGa5Ru,0.0,-0.0184365999999999,,3,3.0
O6CoMoTe,1.4888,-0.0156835,,3,3.0
Ag2Sb2Ba,0.0,-0.0359342,,3,3.0
CoNiSe4,0.0,-0.0192036,,3,3.0
H5Sr2Pd,0.0,-0.0123653999999999,,3,3.0
MgSe4Sn2,0.3328,-0.0230119,,3,3.0
MgSr2Sn,0.0,-0.0218107,,3,3.0
CaYTe2,0.0,-0.0296307,,3,3.0
Li2Tl2Pb,0.0,-0.0452734,,3,3.0
LiZnRuSn,0.0,-0.0218873999999999,,3,3.0
Al3Rh2Tb2,0.0,-0.0273089,,3,3.0
LiSnPr,0.0,-0.0279628,,3,3.0
Cu2InDy,0.0,-0.0282853,,3,3.0
O5ZnSn2,1.4202,-0.0162352999999999,,3,3.0
TcHf2Ir,0.0,-0.0589292,,3,3.0
Tc2Dy,0.0,-0.0395565,,3,3.0
Ca2Ni2Zn,0.0,-0.0132574,,3,3.0
O2CsNd,3.3724,-0.0262612999999999,,3,3.0
C4Sc3Co,0.0,-0.0130721,,3,3.0
CBiNp2,0.0,-0.075426,,3,3.0
Sc5Te4,0.0,-0.0255482,,3,3.0
GeMoHo,0.0,-0.0349036,,3,3.0
MnNi2Cu,0.0,-0.0166417999999999,,3,3.0
CaCuGa6,0.0,-0.0157075,,3,3.0
B2Mn3Y,0.0,-0.0166834999999999,,3,3.0
Ca2SrHg,0.0,-0.0278138,,3,3.0
TeILa2,0.0,-0.0414328,,3,3.0
CClGd2,0.0,-0.0351473,,3,3.0
SiCl3Eu3,0.0,-0.0296893999999999,,3,3.0
CaCo6As4,0.0,-0.0179957,,3,3.0
SbNdTh,0.0,-0.0597976,,3,3.0
HoTmPb2,0.0,-0.0637133,,3,3.0
AlCu2Sm2,0.0,-0.0257723,,3,3.0
MnCu2I4,1.3856,-0.0283357999999999,,3,3.0
Co4NbIn,0.0,-0.0225912,,3,3.0
Ca2Se2Cd,0.0,-0.0194378999999999,,3,3.0
Ni2As2Rb,0.0,-0.0191666,,3,3.0
As3W2,0.0,-0.0400546,,3,3.0
Al6GdAu,0.0,-0.0222257,,3,3.0
TcLa3,0.0,-0.0410805,,3,3.0
Ni2GeBa,0.0,-0.0231422999999999,,3,3.0
Tc8W,0.0,-0.0388305,,3,3.0
PSe3Tl3,0.5422,-0.0414207,,3,3.0
OCoSeBa,0.5082,-0.0224674,,3,3.0
Ga2RhTm6,0.0,-0.0425469,,3,3.0
ScRe2,0.0,-0.0525698,,3,3.0
O8Cu3NbTa,0.7885,-0.0169164999999999,,3,3.0
Sc7La,0.0,-0.0177586,,3,3.0
AlGeRu2,0.0,-0.024751,,3,3.0
Be2Si2Tb,0.0,-0.0154598999999999,,3,3.0
FeAs2Dy6,0.0,-0.0390278,,3,3.0
Ca3Ge2In2,0.0,-0.0197223,,3,3.0
F6KCs3,0.4667,-0.0165684,,3,3.0
Al3Ge2RuTm3,0.0,-0.0288642,,3,3.0
Cl6CuCs2Bi,1.0526,-0.0231737,,3,3.0
Ga3BaRe,0.0,-0.0323825,,3,3.0
Co2Y3In3,0.0,-0.027691,,3,3.0
CoGe2,0.0,-0.0186128999999999,,3,3.0
GaTe,1.159,-0.0271607,,3,3.0
MgS2RbAu,2.4192,-0.0240231,,3,3.0
Li2AgBi,0.0,-0.029095,,3,3.0
Pd2Sb,0.0,-0.0347447,,3,3.0
Ca3Rh2Pb3,0.0,-0.0409904,,3,3.0
SbAuPb,0.0,-0.0608721,,3,3.0
ScNi2Ga,0.0,-0.0163523,,3,3.0
TiNi2In,0.0,-0.0208171,,3,3.0
B6Cr2Ce,0.0,-0.014615,,3,3.0
B2F8Ca,8.7316,-0.0081587,,3,3.0
Li2O7Cr2,2.5621,-0.0097457999999999,,3,3.0
Zr2CdIr2,0.0,-0.0476267,,3,3.0
Co4Ge4Tb3,0.0,-0.026584,,3,3.0
O6NiBa2Tb,0.0,-0.020415,,3,3.0
Te4CsGd,0.1774,-0.0420003,,3,3.0
S3Cu2Pb,0.0,-0.0227879,,3,3.0
InNdAu,0.0,-0.0496713,,3,3.0
Rh2LaTh,0.0,-0.0525194,,3,3.0
KPdTl2,0.0,-0.0466822999999999,,3,3.0
O8P2CaCr,0.0,-0.0108887,,3,3.0
AlInAu2,0.0,-0.0452081,,3,3.0
Zn2LaTb,0.0,-0.0295951,,3,3.0
LiCl6Cs2Tb,5.5086,-0.0196523,,3,3.0
SrSbTl,0.7744,-0.0446626,,3,3.0
SiTiNb,0.0,-0.020427,,3,3.0
Al3Si2La3Ir,0.0,-0.0278999,,3,3.0
Li2CuIr,0.0,-0.0229366999999999,,3,3.0
O3SeEu,0.0,-0.0205213,,3,3.0
Pd2Ag3Nd,0.0,-0.0342656,,3,3.0
Ni5InSb,0.0,-0.021677,,3,3.0
O6FeSr2Cd,0.0,-0.0150307,,3,3.0
In3CsIr,0.0,-0.0420748,,3,3.0
MgPAg,0.4679,-0.0159756,,3,3.0
Be2MgRu2,0.0,-0.0170821,,3,3.0
NFGa2Sm6,0.0,-0.0323995,,3,3.0
C2Br5Ba4,0.0,-0.0267514,,3,3.0
O6AlTiTa,2.3756,-0.0174157,,3,3.0
Cu2InTb2,0.0,-0.0319338,,3,3.0
CdTlPb2,0.0,-0.063558,,3,3.0
LiAl4Ho,0.0,-0.0140494,,3,3.0
Au3Th,0.0,-0.0765637,,3,3.0
O6MgGeTm2,5.3729,-0.0196466,,3,3.0
B2O6AlFe,1.5822,-0.0103384,,3,3.0
F6K3Np,0.0,-0.0184878999999999,,3,3.0
CaAsSr,0.0,-0.0183825,,3,3.0
MgCu2Sn,0.0,-0.0178767999999999,,3,3.0
Ga3Sn2Tb3Os,0.0,-0.0377079,,3,3.0
MgInDy2,0.0,-0.0338903,,3,3.0
LaIrPb,0.0,-0.0640684,,3,3.0
Se8Pd3,0.0,-0.0237351,,3,3.0
SiFe3Nb2,0.0,-0.0221541,,3,3.0
Ga5LuIr,0.0,-0.0303795,,3,3.0
F6HfHg,4.1019,-0.0220353,,3,3.0
MgCoTh,0.0,-0.0394451,,3,3.0
In7ErPt2,0.0,-0.0429584,,3,3.0
Fe2CoBr8,0.3417,-0.0195968,,3,3.0
NiGe6Ho2,0.0,-0.025986,,3,3.0
Zn3Tb2,0.0,-0.0271914,,3,3.0
Mg2PmDy,0.0,-0.0255294,,3,3.0
S3NiDyPb,0.0,-0.0292719,,3,3.0
GeLu2Ir2,0.0,-0.0555123999999999,,3,3.0
Si2SnLa2,0.0,-0.0291768,,3,3.0
Al5Cu2Sr,0.0,-0.0117808,,3,3.0
BeO2Zn,3.3008,-0.0098609,,3,3.0
Co4Ge6Zr,0.0,-0.0197854999999999,,3,3.0
Tc5Pt,0.0,-0.0411066999999999,,3,3.0
Ga3Dy2,0.0,-0.029645,,3,3.0
PCl6I,2.445,-0.0124639,,3,3.0
NFeGeBa2,0.0,-0.025638,,3,3.0
MgZnBa2,0.0,-0.0245109,,3,3.0
P2CaMn2,0.0,-0.0142344,,3,3.0
In4HgTl,0.0,-0.0455764,,3,3.0
PtTh,0.0,-0.0844707,,3,3.0
KAs2Pt4,0.0,-0.0474782,,3,3.0
Be2GaIr2,0.0,-0.0340086,,3,3.0
Ba2Pb2Bi,0.0,-0.0626072,,3,3.0
O3NaCoRb,0.7117,-0.0116262,,3,3.0
BRu3Th,0.0,-0.042091,,3,3.0
ClAs2Ba2,0.0,-0.0270316,,3,3.0
Li4O12FeNbTe2,1.3819,-0.0123886,,3,3.0
VMo,0.0,-0.0263308,,3,3.0
PBr2Eu2,0.0,-0.0331644,,3,3.0
N2NbHo,0.0,-0.0267616,,3,3.0
NaCeAu2,0.0,-0.0474287,,3,3.0
O6RbIIr,0.0,-0.0192715,,3,3.0
Ga3Zr2,0.0,-0.0228273,,3,3.0
MgZr2Cd,0.0,-0.0243273,,3,3.0
O6MoCdEu2,0.0,-0.0235152,,3,3.0
Si2Sr3In2,0.0,-0.0224379,,3,3.0
F6K2ScIn,3.7249,-0.0117208,,3,3.0
N3WNp,0.0,-0.0416771,,3,3.0
Be2N2Zn,3.7824,-0.0089201,,3,3.0
ZrIn3,0.0,-0.0330614,,3,3.0
Ti4Rh2In5,0.0,-0.0276330999999999,,3,3.0
Si5Fe3Nb4,0.0,-0.0202731,,3,3.0
Al3Si2MnLu3,0.0,-0.02595,,3,3.0
Li2ZnSb,0.0,-0.0142569,,3,3.0
HTi3Nb,0.0,-0.0170098999999999,,3,3.0
YAgSb2,0.0,-0.0341331,,3,3.0
F8Ca2Sr,0.029,-0.0096802,,3,3.0
NaBr4Pt,0.2593,-0.0261101,,3,3.0
Al5Mn2Tm,0.0,-0.0163189,,3,3.0
HTi3Zn,0.0,-0.0133341,,3,3.0
O2K2,2.6408,-0.0084989,,3,3.0
Al3Ti4,0.0,-0.0128563,,3,3.0
H2Ti2Co,0.0,-0.0117153,,3,3.0
Cd2InCe2,0.0,-0.0370384,,3,3.0
Rh2Ir3Pu,0.0,-0.0653601,,3,3.0
O2ClSbEu,0.3141,-0.0244886,,3,3.0
ScGeRu2,0.0,-0.0263738,,3,3.0
LiO7As2Tm,4.1382,-0.0147353,,3,3.0
Al3Sn2Sm3Au,0.0,-0.0338457999999999,,3,3.0
PrIrPb,0.0,-0.0640786,,3,3.0
S4GaSrAg2,0.0,-0.0184038,,3,3.0
RePa,0.0,-0.085429,,3,3.0
Rh4NdHg,0.0,-0.0414675,,3,3.0
F2KCu,2.5647,-0.0096798,,3,3.0
H2TeHg2,0.0,-0.0360273,,3,3.0
H2OBr2Sr,5.0715,-0.0141338,,3,3.0
CoSb2Eu,0.0,-0.0369254,,3,3.0
CaZnSb2,0.0,-0.0249826,,3,3.0
RePt2Au,0.0,-0.070267,,3,3.0
CoMoTa2,0.0,-0.0465367,,3,3.0
Mo7Ta,0.0,-0.0389217,,3,3.0
Al3ZnSn2Gd3,0.0,-0.0322538,,3,3.0
In2BaPb,0.0,-0.0459851,,3,3.0
BMn2Ga2Er,0.0,-0.0216853,,3,3.0
SCa2I2,3.0192,-0.0224887,,3,3.0
AlTc2Pa,0.0,-0.0448041,,3,3.0
BGa2CeOs2,0.0,-0.0386358,,3,3.0
NiAs2Gd,0.0,-0.0297853,,3,3.0
S4CrCuZr,0.0128,-0.0159377,,3,3.0
Ga3Ge2Y3Rh,0.0,-0.0236708999999999,,3,3.0
Nb3Te4,0.0,-0.0360008,,3,3.0
CdInTh2,0.0,-0.0640569,,3,3.0
Ca2BrTl,0.0,-0.0288991,,3,3.0
MgCaCu,0.0,-0.0100838,,3,3.0
O8NaPd6Dy,0.0,-0.0199745,,3,3.0
B2Hf3Ir5,0.0,-0.0568469,,3,3.0
S4Cu2SrIn,0.0,-0.0164693,,3,3.0
GeRhPu,0.0,-0.0548772,,3,3.0
H12O6Cl2Ca,5.6322,-0.0062742,,3,3.0
Cu2Nd2Pb,0.0,-0.039144,,3,3.0
Ge2RhHf6,0.0,-0.0504382,,3,3.0
OBa,2.2475,-0.0256102,,3,3.0
AlCuTm,0.0,-0.0254713,,3,3.0
Zn3In4,0.0,-0.0247714,,3,3.0
Pd2Lu2Tl,0.0,-0.0506329,,3,3.0
F6MgAlCs,7.8865,-0.0117022999999999,,3,3.0
Be15Zr6Pd8,0.0,-0.0182179,,3,3.0
HLiBr2,5.3138,-0.0121167,,3,3.0
Al3Ca3Ge2Ag,0.0,-0.0140787,,3,3.0
O4CeLu,0.842,-0.0242435,,3,3.0
Al7Ag2Np3,0.0,-0.0365714,,3,3.0
OFSb,3.1915,-0.0175322,,3,3.0
Sc2RuIn,0.0,-0.0249016,,3,3.0
Sr2CdHg2,0.0,-0.0428056,,3,3.0
CrNi2Ru,0.0,-0.0213792,,3,3.0
TiCu2Hf,0.0,-0.0274417,,3,3.0
B4Ca2Fe5,0.0,-0.0128999,,3,3.0
S2SmGd,0.0,-0.0328769,,3,3.0
BAl2PrRe2,0.0,-0.0351834,,3,3.0
Si4Mn3PdCe2,0.0,-0.0223677,,3,3.0
GaPd2Dy2,0.0,-0.0364741,,3,3.0
Mg3Al3Ge2Pd,0.0,-0.0125537,,3,3.0
Ti2Rh2Cd,0.0,-0.0266904,,3,3.0
Cl6AsI5,0.436,-0.0212429999999999,,3,3.0
Ge2YIr3,0.0,-0.0473383,,3,3.0
Si2MnRh,0.0,-0.018642,,3,3.0
MgFe4Zr,0.0,-0.0181332999999999,,3,3.0
SrAu,0.0,-0.0466604,,3,3.0
CuSe3PrPb,1.4454,-0.0335195,,3,3.0
GeNbOs,0.0,-0.04167,,3,3.0
Li6NI3,3.0274,-0.0143835,,3,3.0
Si2NbHf2,0.0,-0.0365275,,3,3.0
MgCu4Sr,0.0,-0.0147053999999999,,3,3.0
ZnAs2AgPr,0.2179,-0.0264405,,3,3.0
EuTl3,0.0,-0.0680709999999999,,3,3.0
MgTm6Bi2,0.0,-0.0529366,,3,3.0
SbPtPu,0.0,-0.0732818,,3,3.0
TiFeGaIr,0.4664,-0.0311512,,3,3.0
Al5Ti4Ni2,0.0,-0.0127525,,3,3.0
In4Pb3,0.0,-0.0514843,,3,3.0
CuBaBi,0.0,-0.0450767,,3,3.0
Zr6Sn2Au,0.0,-0.0367438,,3,3.0
Zn2SnPb2,0.0,-0.0427562,,3,3.0
PFeSe,0.4254,-0.0165268,,3,3.0
LiGeIr2,0.0,-0.041413,,3,3.0
Cl4FeBr2Rb2,0.0,-0.0158227,,3,3.0
Al3NiTa2,0.0,-0.0292884,,3,3.0
RhSn2Lu,0.0,-0.0409804,,3,3.0
RhIn3La3Pb2,0.0,-0.0469097,,3,3.0
AlPdLa,0.0,-0.0288021,,3,3.0
Li3FS,5.4157,-0.0061608,,3,3.0
VCo2Ga,0.0,-0.0174821,,3,3.0
MgGa2Tm,0.0,-0.0228397,,3,3.0
Zr4Hg5,0.0,-0.0517442,,3,3.0
Al3Zn5,0.0,-0.0113507,,3,3.0
CSbHf2,0.0,-0.0440006,,3,3.0
FeZn2,0.0,-0.0151034,,3,3.0
SiSc2Ru3,0.0,-0.0245151,,3,3.0
MnNiPt2,0.0,-0.0442705,,3,3.0
Li2O3Nb,0.7146,-0.0119265,,3,3.0
Nb2InAu,0.0,-0.0424639,,3,3.0
LiSRb,3.533,-0.0123088,,3,3.0
GaBrDy,0.0,-0.0292465,,3,3.0
Na2KCs,0.0,-0.0136016,,3,3.0
O8ClWPbBi3,0.2457,-0.0328742999999999,,3,3.0
O8K3Dy,0.0,-0.0116403,,3,3.0
Si3CuDy2,0.0,-0.0242465,,3,3.0
O7Ge2Y2,4.6925,-0.0153485999999999,,3,3.0
AsHoIr,0.0,-0.0479182,,3,3.0
CSiPu3,0.0,-0.0699848,,3,3.0
AlTc3,0.0,-0.0285801,,3,3.0
CuPr2Tl,0.0,-0.0438879999999999,,3,3.0
N2PrTb,0.0959,-0.0288967,,3,3.0
PCdLa2,0.0,-0.032753,,3,3.0
MgNi2Cu,0.0,-0.0131736,,3,3.0
LiAgPt2,0.0,-0.0439052999999999,,3,3.0
O6Sr2EuAu,0.0,-0.0225425,,3,3.0
AlAg2Er,0.0,-0.0306124,,3,3.0
CaAsRh,0.0,-0.0222038,,3,3.0
NiRe,0.0,-0.0436504,,3,3.0
C5Zr4W,0.0,-0.025044,,3,3.0
As2RuTh2,0.0,-0.0545760999999999,,3,3.0
O6CoSr2Dy,0.0,-0.0172656,,3,3.0
Be4AlPt,0.0,-0.0164695,,3,3.0
ZnPrIr,0.0,-0.0433005,,3,3.0
AlSr6Sb2,0.0,-0.0246703,,3,3.0
As2Rh2Ho,0.0,-0.0324022999999999,,3,3.0
Al4FeZr,0.0,-0.0136821,,3,3.0
O6MgMoHo2,0.1652,-0.0206312999999999,,3,3.0
BeSc,0.0,-0.0093537,,3,3.0
Se,0.8924,-0.0200585,,3,3.0
FeIn5Lu,0.0,-0.0345499,,3,3.0
Zr2RhRe,0.0,-0.0423077,,3,3.0
F6CoIr,0.0,-0.0155351,,3,3.0
Rh3Ho,0.0,-0.0381862,,3,3.0
O6Ca2MnPt,0.7518,-0.0167255,,3,3.0
N2PdEr2,0.0,-0.0320801999999999,,3,3.0
Al3Ca2Ge,0.0,-0.0106807,,3,3.0
Ca3In5Pt,0.0,-0.030264,,3,3.0
K3Te4Ta,1.4298,-0.0309441,,3,3.0
AlNi5Cu2,0.0,-0.0150838,,3,3.0
ZnRh2Er2,0.0,-0.0372837,,3,3.0
Ge2In3Pr3Os,0.0,-0.0384655,,3,3.0
Cu2As2RbY,0.0,-0.0206717,,3,3.0
CuRbHg3,0.0,-0.0482419,,3,3.0
NCu2Rb,1.8422,-0.0151499,,3,3.0
H2Mn2Ru,0.0,-0.0156775,,3,3.0
ClFe2Er2,0.0,-0.0297267,,3,3.0
CuTe2Tm6,0.0,-0.0452076,,3,3.0
Ge2CdTh2,0.0,-0.0526648,,3,3.0
NMg3Sb,1.079,-0.0130319,,3,3.0
Cu2GaEr2,0.0,-0.0299702,,3,3.0
Hg2Th3,0.0,-0.0850602999999999,,3,3.0
C3Nb4,0.0,-0.0237769,,3,3.0
Si2LaOs2,0.0,-0.0421599999999999,,3,3.0
Na2S3Er,0.0,-0.0161826,,3,3.0
SeAg,0.0,-0.0257535,,3,3.0
N2CaCr,0.0,-0.0127053999999999,,3,3.0
Ni5Ho,0.0,-0.021969,,3,3.0
Li2IHg,0.0,-0.0279761,,3,3.0
Ni4HoTl,0.0,-0.0312733,,3,3.0
AlClTh,0.0,-0.0383875,,3,3.0
ScNi2Cu,0.0,-0.0157876999999999,,3,3.0
S4GeCdTl2,1.1425,-0.0296132,,3,3.0
NiRuRe2,0.0,-0.0483648999999999,,3,3.0
F6KCs2Er,7.5005,-0.0191352,,3,3.0
Cu2Gd,0.0,-0.0299647,,3,3.0
Al2Fe3La,0.0,-0.0190219999999999,,3,3.0
S2AuBi,0.6916,-0.0419265,,3,3.0
SiPt2Np,0.0,-0.065066,,3,3.0
SiTiTc2,0.0,-0.0246569,,3,3.0
LiSe2Sn,1.6576,-0.0203724,,3,3.0
ZrNb2Re,0.0,-0.0421425,,3,3.0
H12O6F6SiCo,0.0,-0.0065335,,3,3.0
LiCoLu2,0.0,-0.0327024,,3,3.0
CSc3Pd,0.0,-0.0177785,,3,3.0
N2SeCe2,1.123,-0.0274911,,3,3.0
SrI4Eu,1.0886,-0.0389718,,3,3.0
O6TiBa2U,0.0,-0.0269607,,3,3.0
PdIrAc2,0.0,-0.0719044,,3,3.0
Cu5Dy,0.0,-0.0208493,,3,3.0
ScZr8,0.0,-0.0288100999999999,,3,3.0
MgNi4Er,0.0,-0.0204194,,3,3.0
H2Pd2Hg,0.0,-0.0282153,,3,3.0
NiCdTm,0.0,-0.033198,,3,3.0
F6MoCs2Tl,2.6253,-0.023053,,3,3.0
B10FeTh2,0.0,-0.0224688,,3,3.0
In3BaAu,0.0,-0.0424133,,3,3.0
S4Cl2Ag5Sb,0.7978,-0.0209897,,3,3.0
BNi6In2,0.0,-0.0192062,,3,3.0
K2InTe4Hg,0.0,-0.0340129,,3,3.0
Si3RuSm,0.0,-0.0225926,,3,3.0
Al2Ni3Tb,0.0,-0.0191275,,3,3.0
AlNiCu2,0.0,-0.0139268999999999,,3,3.0
Ni2ZnCd2,0.0,-0.0213277,,3,3.0
AlCu4In,0.0,-0.0170922,,3,3.0
OF,3.3063,-0.0049134,,3,3.0
B2O6YPb,0.2038,-0.0181547,,3,3.0
NiGaLu2,0.0,-0.0363656999999999,,3,3.0
KZn2Sb2,0.0,-0.0222465,,3,3.0
CaTl2Ac,0.0,-0.0618299,,3,3.0
GeRh2Sm,0.0,-0.0336405,,3,3.0
FeGa5Ho,0.0,-0.0216914,,3,3.0
CoAs2La6,0.0,-0.0358708,,3,3.0
NiRh2Pu,0.0,-0.0486365,,3,3.0
Mg2YLu,0.0,-0.0233579,,3,3.0
AgSn3Ba,0.0,-0.0362071,,3,3.0
TlPb7,0.0,-0.0753571,,3,3.0
PdEr2Tl,0.0,-0.0521767,,3,3.0
H8Mg2FePu,0.0,-0.0141135,,3,3.0
Al2Ag3Pr,0.0,-0.0258441,,3,3.0
CrNiRbTe3,0.0,-0.0283909,,3,3.0
P2Ni2Pa,0.0,-0.0314423,,3,3.0
O14NaP4Mo2,0.0,-0.0119839,,3,3.0
Cr2CoOs,0.0,-0.0313956,,3,3.0
F6Cs2IrHg,0.0,-0.0256618,,3,3.0
H8C2NBr,5.5494,-0.0067395,,3,3.0
ZnPd4,0.0,-0.0291272,,3,3.0
MgNd3,0.0,-0.033962,,3,3.0
LiOZr2Pt,0.0,-0.029818,,3,3.0
MgCd2Lu,0.0,-0.0306616,,3,3.0
B6O12CaBa2,5.5998,-0.0128515,,3,3.0
B4VCr,0.0,-0.0115073,,3,3.0
Se3Pd2Sn,0.0,-0.0273115,,3,3.0
Si2MnFe,0.0,-0.0145279,,3,3.0
Rh2ErBi,0.0,-0.0497115999999999,,3,3.0
Si2Ag2Pu,0.0,-0.0386965,,3,3.0
O6MgCuSr2,0.0,-0.0121163,,3,3.0
AlClLa,0.0,-0.0210927,,3,3.0
O3ClCoSr2,0.0,-0.0150321,,3,3.0
NaCuSe3Nb,0.0,-0.0195844999999999,,3,3.0
SeI2Er2,0.0,-0.0404418999999999,,3,3.0
ZnGeSr,0.0,-0.0188955,,3,3.0
CY2Tl,0.0,-0.0350882999999999,,3,3.0
RuIDy,0.0,-0.0406824,,3,3.0
GeRhTe,0.2237,-0.0305366,,3,3.0
P2Ag2Pb,0.0,-0.0318017,,3,3.0
SiPd2Np,0.0,-0.0460239,,3,3.0
B4RuHo,0.0,-0.0196445,,3,3.0
Si2CuY,0.0,-0.0163956,,3,3.0
Ga2RhBa,0.0,-0.027148,,3,3.0
Ga3Ta2Ir,0.0,-0.0426705,,3,3.0
LiAlSi,0.2974,-0.0069631999999999,,3,3.0
MnGeCe,0.0,-0.0278937,,3,3.0
S4Ti2Fe,0.0,-0.013926,,3,3.0
PdLaPt4,0.0,-0.060221,,3,3.0
Ti6SnSb2,0.0,-0.0234055,,3,3.0
O6Sr2RuNp,0.1528,-0.0250716,,3,3.0
Y2PtHg,0.0,-0.0495822,,3,3.0
Ru2SbHf,0.0,-0.0429416,,3,3.0
Ru2NdNp,0.0,-0.0552948,,3,3.0
Al2In3Er3,0.0,-0.033804,,3,3.0
RbCdSb,0.1659,-0.0299542,,3,3.0
CO2Hg,1.0728,-0.023559,,3,3.0
Pd2CdPt,0.0,-0.0417384,,3,3.0
Al5Ag2,0.0,-0.0145517,,3,3.0
GeTc,0.0,-0.0273019,,3,3.0
GaAgAc2,0.0,-0.0575837,,3,3.0
B4Sm2Os5,0.0,-0.0438811,,3,3.0
PCuRb2,1.3183,-0.0171475,,3,3.0
H16B4Np,0.1313,-0.0092825,,3,3.0
LiO2F6Mn3,1.1867,-0.0102364,,3,3.0
LiAsPb,0.0,-0.0331019,,3,3.0
S4Cr2Zn,0.7213,-0.0138016,,3,3.0
Zn2Ge2Y,0.0,-0.0190279,,3,3.0
Ca3Se4Pb,2.0752,-0.0249748,,3,3.0
Cl3In2,2.6413,-0.0191737,,3,3.0
F6FeNp,0.1268,-0.021481,,3,3.0
Al9SrRh2,0.0,-0.0139396,,3,3.0
F6CoRh,0.0,-0.0109702,,3,3.0
CoLuPb,0.0,-0.0497578,,3,3.0
Al3Si2RuLa3,0.0,-0.0237395,,3,3.0
Sr2Ag2Bi,0.0,-0.0376668999999999,,3,3.0
MgRhBi,0.0,-0.0395197999999999,,3,3.0
AsSb2,0.0,-0.0315140999999999,,3,3.0
Al5Er,0.0,-0.0150838999999999,,3,3.0
O4S2Cu2InBi2,0.0,-0.0250449,,3,3.0
Al2Cu3Zr,0.0,-0.015675,,3,3.0
NaTe2Er,1.388,-0.033718,,3,3.0
N3NiY,0.2032,-0.0149971,,3,3.0
LiCaCu2As2,0.0,-0.0144709,,3,3.0
O4NaTiNd,2.9393,-0.0159201,,3,3.0
O6MnSr2Nb,0.0,-0.0162509,,3,3.0
AlCaPd,0.0,-0.0175607,,3,3.0
Li2Mg2Si2Ba,0.0,-0.0109628,,3,3.0
Rh3BaPb2,0.0,-0.0490141,,3,3.0
Ni4InAu,0.0,-0.0278321,,3,3.0
NiZnAu2,0.0,-0.0421517,,3,3.0
NCuHo3,0.0,-0.0351779,,3,3.0
H3CuGd,0.0,-0.0173506,,3,3.0
PrPb2Th,0.0,-0.0732884999999999,,3,3.0
P2Y2Ag,0.0,-0.0227066,,3,3.0
Se3BaTa,0.0,-0.0347076,,3,3.0
ZnGe2Ce,0.0,-0.0245978,,3,3.0
MnRhCd2,0.0,-0.0284104,,3,3.0
AlCdAc2,0.0,-0.055072,,3,3.0
O6MoNd2,3.8889,-0.0208034,,3,3.0
Na2P2Ni,0.0,-0.0095496,,3,3.0
Ge3SmOs,0.0,-0.0352892999999999,,3,3.0
SiScFe,0.0,-0.014737,,3,3.0
RhCdBa2,0.0,-0.0360647,,3,3.0
Al3ZnGe2Tb3,0.0,-0.0246089,,3,3.0
Li3O4Ti,0.0,-0.0084512,,3,3.0
O6CrICs,0.8758,-0.0157952999999999,,3,3.0
YCd2Tb,0.0,-0.0343241,,3,3.0
AlCrW2,0.0,-0.0414442,,3,3.0
Al2CaCo,0.0,-0.0109278,,3,3.0
AlNi2Zn,0.0,-0.0139134,,3,3.0
Y2LaBi2,0.0,-0.0520662,,3,3.0
S4SrSm2,2.4399,-0.0237603,,3,3.0
Mg2RhSn,0.0,-0.0204727,,3,3.0
CuCdTb,0.0,-0.0311499999999999,,3,3.0
MoRu3,0.0,-0.0348956,,3,3.0
Al6LaAu,0.0,-0.0203501,,3,3.0
Li4O12FeTe2Bi,0.6214,-0.0142889,,3,3.0
SbTe4Tl2Bi,0.1283,-0.0514296999999999,,3,3.0
LiAs2Rh2Eu,0.0,-0.0283121,,3,3.0
Zn4YZr,0.0,-0.0191425,,3,3.0
MgCoLa2,0.0,-0.0271792,,3,3.0
Li2BaHg2,0.0,-0.0366335,,3,3.0
RhSm2Pt,0.0,-0.0492793,,3,3.0
Li2ScAu,0.0,-0.0225579999999999,,3,3.0
CaGa3Ir2,0.0,-0.0341604999999999,,3,3.0
LiKI2,4.0849,-0.0224952,,3,3.0
LiGa4Sm,0.0,-0.0193107,,3,3.0
C2FeHo,0.0,-0.0221273,,3,3.0
NaMgSn2,0.0,-0.020454,,3,3.0
Co3Ho,0.0,-0.0253458,,3,3.0
ZnZr2Ru,0.0,-0.0279927999999999,,3,3.0
F3KBrBi,3.8867,-0.0217546,,3,3.0
Cu2RhDy,0.0,-0.0283915,,3,3.0
O4Rb3Au,0.0,-0.0205254,,3,3.0
Zn2CdTm2,0.0,-0.0326537,,3,3.0
SrInAu4,0.0,-0.0558626,,3,3.0
RbTe2Gd,1.2413,-0.0400521999999999,,3,3.0
O6Ba2PtHg,0.0,-0.0269535,,3,3.0
LiAsAg,0.0,-0.0183026,,3,3.0