formula,bg,formation_energy,mp-id,fidelity,bg_category
LiCuGaCd,0.0,-0.016282,,3,3.0
SrIn2Au,0.0,-0.0402443,,3,3.0
RhTl2Th6,0.0,-0.0841477,,3,3.0
Cl6K2AsAu,0.1025,-0.016543,,3,3.0
Zn5Pt,0.0,-0.0232586,,3,3.0
PdSbAu,0.0,-0.0466035,,3,3.0
NaCu2As2Er,0.0,-0.0216315999999999,,3,3.0
Al3Sn2Ho3Os,0.0,-0.0356415999999999,,3,3.0
Br2SnNd2,0.0,-0.0339465999999999,,3,3.0
Sc2Ni2Pt,0.0,-0.0269847,,3,3.0
S3AgCsSm,0.0,-0.0250857,,3,3.0
F7K3La,0.029,-0.0116014,,3,3.0
CoY2In,0.0,-0.0270498,,3,3.0
YLaPt4,0.0,-0.0598883,,3,3.0
B2O6SrEr,0.0,-0.0154742,,3,3.0
S3SrHoAu,1.8944,-0.0299855,,3,3.0
SiZnNb4,0.0,-0.0263462,,3,3.0
Al5RhTm,0.0,-0.0184673,,3,3.0
O7NaP2Pr,5.6555,-0.0130446,,3,3.0
AlBr6Rb2Ag,1.645,-0.0210856,,3,3.0
Zr3In,0.0,-0.0317099,,3,3.0
Si3La,0.0,-0.0186369,,3,3.0
ScPd2Cd,0.0,-0.0283322,,3,3.0
Cu2Cd3La,0.0,-0.0276718,,3,3.0
LiPt2Th,0.0,-0.0606914999999999,,3,3.0
AgSb2Ba,0.0,-0.036936,,3,3.0
NiSnPt2,0.0,-0.0484406,,3,3.0
NaTe3,0.4826,-0.0294586,,3,3.0
Si2Zr2Ir,0.0,-0.0316475,,3,3.0
AlMnY,0.0,-0.0183529,,3,3.0
AlInTb,0.0,-0.0298403,,3,3.0
ZnPd2Er3,0.0,-0.0391875,,3,3.0
Li2Zn2Sn,0.0,-0.0137489,,3,3.0
NaAg2,0.0,-0.0223964,,3,3.0
NMgCa3,0.0,-0.0091563,,3,3.0
MgSrTl2,0.0,-0.0434117,,3,3.0
ZnGa3Ho,0.0,-0.0227818,,3,3.0
Zr3Sn2,0.0,-0.0334246,,3,3.0
NaSi,1.5014,-0.0071386,,3,3.0
Tc2Ho,0.0,-0.0399814,,3,3.0
MgAlNd,0.0,-0.0191176,,3,3.0
O2NaClCuBa,0.0,-0.0150517,,3,3.0
LiTiRh2,0.0,-0.0222347,,3,3.0
O6AgBa2Lu,0.7706,-0.0225701,,3,3.0
Cd2CsTl2,0.0,-0.0487731,,3,3.0
Al2ReAu,0.0,-0.0393644,,3,3.0
Ag2SnEu,0.0,-0.0384590999999999,,3,3.0
ZnZr2Sb,0.0,-0.0287011,,3,3.0
F6K2RhAg,2.1652,-0.0125129,,3,3.0
Al9Ti4Nb3,0.0,-0.0149801,,3,3.0
NiTe2Pt,0.0,-0.0405356,,3,3.0
P2NiDy2,0.0,-0.0280106,,3,3.0
Ti2AsBi,0.0,-0.0333812,,3,3.0
CoSn3Sm,0.0,-0.0342767,,3,3.0
N3CoSr,0.0,-0.013895,,3,3.0
O6InBa2Au,0.3207,-0.0236541,,3,3.0
BePRb,2.3624,-0.0124168,,3,3.0
AlPm2Pb,0.0,-0.0433663,,3,3.0
O6AlKI,0.0,-0.0113694,,3,3.0
O3CdHf,3.5024,-0.025144,,3,3.0
B2O6HoPb,0.1663,-0.0202666,,3,3.0
ScCe3,0.0,-0.036924,,3,3.0
O6TiBa2Eu,0.0,-0.0216161,,3,3.0
PSe3Th4,0.0,-0.0583857,,3,3.0
Pd2In5Er4,0.0,-0.0401938,,3,3.0
Ge2PrIr2,0.0,-0.0456969,,3,3.0
Al3Si2CoDy3,0.0,-0.0233974,,3,3.0
MgSc3Au2,0.0,-0.0317462,,3,3.0
S8Mo6Sn,0.0,-0.0221835999999999,,3,3.0
CoRuTb2,0.0,-0.0367040999999999,,3,3.0
LiAlCl6Cs2,4.7298,-0.0153882999999999,,3,3.0
Si2Pd2Er,0.0,-0.0281779,,3,3.0
PCuPt5,0.0,-0.0540864,,3,3.0
RuLu2Os,0.0,-0.0548453999999999,,3,3.0
AlHo2Os2,0.0,-0.0504667,,3,3.0
B4TaNp,0.0,-0.0343099,,3,3.0
MgAg4,0.0,-0.0262143,,3,3.0
CaIn4Pb,0.0,-0.0366792,,3,3.0
Li3O6CrCo2,1.7848,-0.0102186,,3,3.0
CaTiSn3,0.0,-0.0271183,,3,3.0
CdLuHg2,0.0,-0.055972,,3,3.0
KScSe2,1.6875,-0.0175377,,3,3.0
Ge2AuTh,0.0,-0.0514241999999999,,3,3.0
Rh2Dy2Hg,0.0,-0.0470915,,3,3.0
Si3BaPt,0.0,-0.0286203,,3,3.0
NPr2Bi,0.0,-0.0449855,,3,3.0
O6CoSr2Sb,0.8491,-0.0159145,,3,3.0
GeEuAu2,0.0,-0.0534942,,3,3.0
Al3Nb2Pd,0.0,-0.0210863,,3,3.0
Mn2Ge2La,0.0,-0.0241628,,3,3.0
F8Na2SrHo,0.0,-0.0124552,,3,3.0
Mn5Ni,0.0,-0.0180703,,3,3.0
KPb7,0.0,-0.0674271999999999,,3,3.0
Ca3ZnSr,0.0,-0.0130036,,3,3.0
Pd5Sn,0.0,-0.0336269,,3,3.0
BNdIr4,0.0,-0.0564652999999999,,3,3.0
F5I,4.9661,-0.0106899,,3,3.0
O2Na,0.0,-0.0063939,,3,3.0
AlCr2Fe,0.0,-0.0157958999999999,,3,3.0
H3LiMg,4.694,-0.0038938,,3,3.0
CdSnDy,0.0,-0.0386376,,3,3.0
LiGa4Lu,0.0,-0.0210735999999999,,3,3.0
S2RbRh,1.4041,-0.019351,,3,3.0
LiO4K2V,4.3009,-0.0101528,,3,3.0
AsBr6InCs2,0.0,-0.0257878,,3,3.0
Cl2SbSm2,0.0,-0.0302881,,3,3.0
Ca2CuPt2,0.0,-0.0358777,,3,3.0
O16Al5Sb3,0.0,-0.0127660999999999,,3,3.0
ZnLu2Hg,0.0,-0.0486654,,3,3.0
MgGeZr,0.0,-0.0188176,,3,3.0
HC,3.7873,-0.0069048999999999,,3,3.0
Zr3Ru2Ag,0.0,-0.032728,,3,3.0
SeTeCe2,0.0,-0.0383066,,3,3.0
Al12Fe7,0.0,-0.0118933,,3,3.0
P2CaNi2,0.0,-0.0134572,,3,3.0
CClSm,0.0,-0.0222618,,3,3.0
S2ZnAgCs,2.6506,-0.0212939,,3,3.0
Al8Cr4Dy,0.0,-0.0143539999999999,,3,3.0
Sb2SmIr2,0.0,-0.0529595,,3,3.0
K2CdTe2,2.2947,-0.025306,,3,3.0
Cu2As2Ba,0.0,-0.022642,,3,3.0
Pm2AuTl,0.0,-0.0581430999999999,,3,3.0
ScZnIr,0.0,-0.0337462,,3,3.0
O2Lu,0.0,-0.0257594,,3,3.0
O6CoAs2,1.568,-0.0118979,,3,3.0
LiZnGaPt,0.0,-0.0263295999999999,,3,3.0
YAgHg,0.0,-0.0429779,,3,3.0
SrRhLa,0.0,-0.0335257,,3,3.0
O6Sb2Tl,0.0,-0.0216955,,3,3.0
SiGaRu2,0.0,-0.0245672,,3,3.0
InCeAu2,0.0,-0.0548406,,3,3.0
Cr3Ta4,0.0,-0.0459486,,3,3.0
O7BaBi4,2.7679,-0.0344594,,3,3.0
F6AgSn,0.9308,-0.0131348,,3,3.0
H5NF2,7.6663,-0.0053532,,3,3.0
Al2RhBa,0.0,-0.0228925,,3,3.0
AlAu,0.0,-0.0390683999999999,,3,3.0
AlScRh,0.0,-0.0196746,,3,3.0
BCaPt3,0.0,-0.0464158,,3,3.0
O2BrSrSb,3.3549,-0.0204806999999999,,3,3.0
MnRh2Tb,0.0,-0.0338688999999999,,3,3.0
NaSn4Ir,0.0,-0.0367042,,3,3.0
N3Sr3Ir,0.0,-0.0243735,,3,3.0
CuZn5,0.0,-0.0138566,,3,3.0
Al2SrPt2,0.0,-0.0368596999999999,,3,3.0
O6MnGePr2,2.1655,-0.0189917,,3,3.0
O6K2TeU,1.165,-0.0217831,,3,3.0
O6Sr2NdPt,0.0,-0.0219435,,3,3.0
Li4O8VY3,1.1408,-0.0130315999999999,,3,3.0
Li2Al2Sn2Ba,0.0,-0.019221,,3,3.0
GaCd2Pt2,0.0,-0.0439379,,3,3.0
B2AlTc2,0.0,-0.0190717,,3,3.0
Al4ZrNb2,0.0,-0.0187467,,3,3.0
Ag4Pt5,0.0,-0.0529049,,3,3.0
LiCu2Ga,0.0,-0.0125154,,3,3.0
NaCd3,0.0,-0.0239571,,3,3.0
Si2Ru3Er,0.0,-0.0298747,,3,3.0
O6MnSbBa2,0.0,-0.0196513,,3,3.0
Ga2YPt2,0.0,-0.041357,,3,3.0
O5S2Eu2Hf2,0.0,-0.028882,,3,3.0
B2MoHf2,0.0,-0.0356768,,3,3.0
O3ScPu,0.0,-0.0320186,,3,3.0
Se2CdIn,0.0,-0.0265336,,3,3.0
O6CoPr2Pt,1.1634,-0.0235112,,3,3.0
ScInTl2,0.0,-0.0483263,,3,3.0
ZnCe,0.0,-0.0292846,,3,3.0
LiO9P3Ni,3.6141,-0.0098361,,3,3.0
MgSnNp,0.0,-0.0492971,,3,3.0
Cu2Ga3Sr,0.0,-0.0173164,,3,3.0
PKBr6Cs2,2.8013,-0.0224033,,3,3.0
H8Mg2CaCr,0.0,-0.0057691999999999,,3,3.0
O6GeCdLa2,3.6678,-0.0200288,,3,3.0
Sm2Au2Tl,0.0,-0.0608559,,3,3.0
CaZn2Ir,0.0,-0.0273568,,3,3.0
PPt5Hg,0.0,-0.0615788,,3,3.0
O8AlP2Cs,0.0,-0.0120556,,3,3.0
O6PdBa2Np,1.3405,-0.0282904,,3,3.0
Si2CrLa,0.0,-0.0208825,,3,3.0
O4Mn2Tc,0.0,-0.0156262,,3,3.0
H4MgBa,2.6702,-0.0102193,,3,3.0
Cl4Rb2PdI2,0.7254,-0.0211673,,3,3.0
RhW,0.0,-0.0519108999999999,,3,3.0
O6MgCoLu2,0.6481,-0.0199526,,3,3.0
GaRbAu2,0.0,-0.0441895,,3,3.0
F6NaCs2Eu,0.0,-0.0187591,,3,3.0
Ga4Rb,0.0,-0.0173741,,3,3.0
Te2DyAu,0.1929,-0.0488517,,3,3.0
Al2S4Fe,0.7469,-0.0113574,,3,3.0
F6CoNb,0.0,-0.0116882,,3,3.0
O5Se2Y2Hf2,2.41,-0.0263013,,3,3.0
CuCd8,0.0,-0.0286523,,3,3.0
Mg2RhHg,0.0,-0.0284667,,3,3.0
H2ScPd2,0.0,-0.0179022,,3,3.0
AsAg5,0.0,-0.0294516999999999,,3,3.0
PK4,0.0,-0.0088963,,3,3.0
Br6Cs2Dy,0.0,-0.0284695,,3,3.0
N2K2Au,0.0,-0.0211325,,3,3.0
SeRhTe,0.0,-0.0308195,,3,3.0
CaNiSn,0.0,-0.0211013,,3,3.0
O4AsPd,0.0,-0.0138494,,3,3.0
GaPm2Hg,0.0,-0.0437913,,3,3.0
CrRuTa2,0.0,-0.0469686,,3,3.0
Si2WPa,0.0,-0.047584,,3,3.0
ZnRu2Ho2,0.0,-0.0366906,,3,3.0
NaY2Hg2,0.0,-0.0398086,,3,3.0
Co4Ga4Sr3,0.0,-0.0185167,,3,3.0
F6AlY,8.19,-0.0112079,,3,3.0
VTa2Os,0.0,-0.0560627,,3,3.0
ScPtBi,0.0,-0.0555243,,3,3.0
Ni4ZnNp,0.0,-0.0309448,,3,3.0
Sb2Gd,0.0,-0.0451498,,3,3.0
O4CaV2,0.3853,-0.0127489,,3,3.0
O8S2CrRb,2.777,-0.0109557,,3,3.0
LiO6Si2V,0.8479,-0.0106067,,3,3.0
SnEuTm,0.0,-0.0478376,,3,3.0
B2CPd2Ce,0.0,-0.0230911,,3,3.0
SbI2Sm2,0.0,-0.041371,,3,3.0
RhErAu2,0.0,-0.056472,,3,3.0
OZnSbNp,0.0,-0.0422376,,3,3.0
ScNiGe3,0.0,-0.0180814999999999,,3,3.0
O4SmTa,4.4141,-0.0261865999999999,,3,3.0
AgCdBa,0.0,-0.0340973,,3,3.0
Zr3Rh2Tl3,0.0,-0.0476370999999999,,3,3.0
SrAgBa3,0.0,-0.0345337,,3,3.0
Fe2InCe,0.0,-0.0287237,,3,3.0
P2RbIn2,0.0,-0.021906,,3,3.0
AlDy3,0.0,-0.0380217,,3,3.0
Al2ZnW,0.0,-0.0248333,,3,3.0
O7Ti2Pr2,4.4152,-0.0182746,,3,3.0
O4CuBi,0.0658,-0.0203951,,3,3.0
Be2P2Tl,0.0,-0.0205148,,3,3.0
LiAgHg,0.0,-0.0342175,,3,3.0
NiPt4,0.0,-0.0594344,,3,3.0
Tc3Rh,0.0,-0.0348621,,3,3.0
SbNdAu2,0.0,-0.0555699,,3,3.0
SiRuEr,0.0,-0.0326623,,3,3.0
ScBr3Rb,0.0,-0.0205062999999999,,3,3.0
Ni2ZnZr,0.0,-0.0195562,,3,3.0
Si2RuLa,0.0,-0.0253814,,3,3.0
P2GaZr6,0.0,-0.0255438,,3,3.0
MnSe3TmPb,0.0,-0.0354892,,3,3.0
F6K2CuTl,0.0,-0.0148066999999999,,3,3.0
O2LaTm,0.0,-0.0300859,,3,3.0
O2NaCuBrBa,0.0,-0.0168907999999999,,3,3.0
B2Co7U3,0.0,-0.0374091,,3,3.0
SbPrNd,0.0,-0.0423512,,3,3.0
ScZnZr,0.0,-0.0197443,,3,3.0
OCsAu,1.6515,-0.0387226,,3,3.0
CuSe2Zr6,0.0,-0.027358,,3,3.0
CaCu2In2,0.0,-0.0216484999999999,,3,3.0
Cu2In3Dy3,0.0,-0.0347518,,3,3.0
MgPd2Lu2,0.0,-0.0371471,,3,3.0
O6NaSi2Cr,3.1074,-0.0108359,,3,3.0
MgTe2Pb,0.3513,-0.0394464,,3,3.0
LiSiIn,0.3552,-0.0154307,,3,3.0
Al4SrY,0.0,-0.013896,,3,3.0
Al3Pd2Eu,0.0,-0.0246041,,3,3.0
LiGa4Tb,0.0,-0.0196874,,3,3.0
S3CuBaTb,1.2954,-0.0236765,,3,3.0
TiFeCoIn,0.0,-0.0213355,,3,3.0
NaCdIn2,0.0,-0.0254421999999999,,3,3.0
C2CrU,0.0,-0.0355187999999999,,3,3.0
Fe4MoRe,0.0,-0.0296676,,3,3.0
AlMnRuRh,0.0,-0.0244156,,3,3.0
Mg4Cd3,0.0,-0.0159854,,3,3.0
AlBr3,4.3241,-0.0177342,,3,3.0
F6CdPa,0.8876,-0.0222347,,3,3.0
Ru2DyTa,0.0,-0.0464793,,3,3.0
NiZr2Os,0.0,-0.0379354,,3,3.0
LiPd2La2,0.0,-0.0315441,,3,3.0
FeRh2Sb,0.0,-0.031045,,3,3.0
F7I,2.3536,-0.0090397999999999,,3,3.0
AgInNd2,0.0,-0.0384672,,3,3.0
SrAuPb2,0.0,-0.0613028,,3,3.0
LiIr2,0.0,-0.0484616,,3,3.0
O6ZnSr2Rh,0.2309,-0.0148427,,3,3.0
Li2Se4W,1.4213,-0.0228659,,3,3.0
CuSnU,0.0,-0.0515365,,3,3.0
Al2Br8Au,0.6954,-0.0227546,,3,3.0
S3Sn2Tl2,0.6234,-0.0354802,,3,3.0
Mn2Lu,0.0,-0.0306752,,3,3.0
O2MgRb2,3.1528,-0.0136425,,3,3.0
O8P2BaSm,0.0,-0.0158412,,3,3.0
GaPd2Cd,0.0,-0.028545,,3,3.0
SiGeTb2,0.0,-0.0315551,,3,3.0
Si4Pr3Pt4,0.0,-0.0422471,,3,3.0
AsRh2Cd,0.0,-0.0298663,,3,3.0
HBeTi3,0.0,-0.0113569,,3,3.0
CaAg2Sn2,0.0,-0.0291745,,3,3.0
GaSe2Sm,0.4188,-0.0265869,,3,3.0
B2O6K2Nb,0.5482,-0.0118229,,3,3.0
NaSn2Au2,0.0,-0.0430872,,3,3.0
InI2Sm2,0.0,-0.0402523,,3,3.0
Mn5Ni3,0.0,-0.0175739,,3,3.0
ScNiCd,0.0,-0.020623,,3,3.0
SiBr2Ce2,0.0,-0.0290304,,3,3.0
Cl4Nb,1.3128,-0.0144198,,3,3.0
RbPdSn2,0.0,-0.0317664,,3,3.0
SiCrFeCo,0.0,-0.0162566,,3,3.0
CoGa6Y,0.0,-0.0183161,,3,3.0
N2Y7Sn3,0.0,-0.0279337,,3,3.0
RhSnU,0.0,-0.0581372,,3,3.0
KSr2Tl,0.0,-0.0316046,,3,3.0
NiEr3Os2,0.0,-0.0522366,,3,3.0
H2Ti2Re,0.0,-0.022542,,3,3.0
CrMoW,0.0,-0.0409245,,3,3.0
O4TbPu,0.9112,-0.0337915,,3,3.0
Ni2Zr2Hg,0.0,-0.0329046,,3,3.0
Ag3Au5,0.0,-0.0550639,,3,3.0
BNCoTb,0.0,-0.0213806,,3,3.0
Cu2ZnLa2,0.0,-0.0262767,,3,3.0
F8Na2SrEu,0.0,-0.0126711,,3,3.0
GaPrAu2,0.0,-0.0503036,,3,3.0
CdTlAc2,0.0,-0.0714097,,3,3.0
AsCd2Ac,0.0,-0.0435196,,3,3.0
BaAu4,0.0,-0.0637961,,3,3.0
AlPd2Tm,0.0,-0.0323703,,3,3.0
CuNbPt2,0.0,-0.0478207,,3,3.0
Mg3Ag4,0.0,-0.020232,,3,3.0
MgGe2Nd2,0.0,-0.0269107,,3,3.0
O4NdTa,4.3904,-0.0260177,,3,3.0
As2PdHo,0.0,-0.0315078,,3,3.0
PdHgTl3,0.0,-0.0636396,,3,3.0
Zn2CsAu2,0.0,-0.04085,,3,3.0
GaInBa,0.0,-0.0303299,,3,3.0
O3CrAc,1.512,-0.0287604,,3,3.0
Li8O5FMn,2.3798,-0.0070157,,3,3.0
O7Cr3YBa2,0.0,-0.0185743,,3,3.0
CSi2Cr2Er,0.0,-0.0200341,,3,3.0
Cd8Tl,0.0,-0.0350289,,3,3.0
Be5Ta,0.0,-0.0148709,,3,3.0
Al2MnHo6,0.0,-0.0365593,,3,3.0
MoRh7,0.0,-0.034002,,3,3.0
TcIr8,0.0,-0.0672103,,3,3.0
O5Al2Ti,3.3462,-0.0111647999999999,,3,3.0
Se4NbPd3,0.0,-0.0269557,,3,3.0
O4CrCu,0.0,-0.0112251,,3,3.0
Si2InLu2,0.0,-0.033459,,3,3.0
Sc3Pd5,0.0,-0.0267404,,3,3.0
AlWRe,0.0,-0.0497517,,3,3.0
B2Ti2Rh,0.0,-0.0171014,,3,3.0
Be2Zr2Hg,0.0,-0.028051,,3,3.0
O10Zr4Ce,2.3149,-0.0190307,,3,3.0
Mg2Sb2Pu,0.0,-0.0393659,,3,3.0
Cu2Tm2Hg,0.0,-0.040902,,3,3.0
Ga3Ge2Dy3Pt,0.0,-0.0343804999999999,,3,3.0
NCa4In2,0.0,-0.0171993,,3,3.0
RbPd2Bi2,0.0,-0.04907,,3,3.0
GeDyPt,0.0,-0.0470653,,3,3.0
Cd2ErAc,0.0,-0.0507436999999999,,3,3.0
O4YMo,0.0,-0.0175587,,3,3.0
CuBrGd,0.0,-0.0322111,,3,3.0
Al3Si2Ti3Fe,0.0,-0.0126854999999999,,3,3.0
Pd4PrPb6,0.0,-0.0575159,,3,3.0
O8CaAs2Ce,1.6314,-0.014388,,3,3.0
NaRb2Sb2,0.0,-0.0244506,,3,3.0
SnLuPt2,0.0,-0.0590715999999999,,3,3.0
Na4MgSi2Se6,3.2825,-0.0135988,,3,3.0
O4PbBi,0.0,-0.0306981,,3,3.0
PAsHg2,0.0,-0.0416537,,3,3.0
PRbPt2,0.0,-0.0434036,,3,3.0
O6ScSr2Ir,0.0,-0.0193852,,3,3.0
S3MnTmTl,0.6324,-0.0300039,,3,3.0
Ge2PmTa,0.0,-0.037665,,3,3.0
N2PaNp,0.0,-0.0577279,,3,3.0
H6NiTb2,0.0088,-0.0150175999999999,,3,3.0
Fe2Ni3Er,0.0,-0.022775,,3,3.0
Na2InTl,0.0,-0.0287039,,3,3.0
Si2NiNp,0.0,-0.0362139999999999,,3,3.0
Pd2CdTl,0.0,-0.0423408,,3,3.0
PRh2Ba,0.0,-0.0301007,,3,3.0
N2CoSm2,0.0,-0.0262456,,3,3.0
BeCaTeI2,0.0,-0.025456,,3,3.0
Ca3NiGa3Sn2,0.0,-0.0189639999999999,,3,3.0
LiCaNi2Sb2,0.0,-0.0204126,,3,3.0
LiCd4In,0.0,-0.0262719999999999,,3,3.0
H3YRu,0.0,-0.015192,,3,3.0
SnGdAu,0.0,-0.0556746,,3,3.0
O3VSr,0.0,-0.0147463,,3,3.0
CoNiRh2,0.0,-0.0252419,,3,3.0
Ru2SbEr,0.0,-0.0399095999999999,,3,3.0
S2CsGd,2.1726,-0.0310429,,3,3.0
B2CPd2Pr,0.0,-0.0229042,,3,3.0
RuSbTh,0.0,-0.0567231,,3,3.0
CGe2Mo2Tm,0.0,-0.0286495,,3,3.0
Rh2Tm2Hg,0.0,-0.0487394,,3,3.0
Ga5LaIr,0.0,-0.0286352,,3,3.0
Zn2In5Lu4,0.0,-0.0382432,,3,3.0
LiO6FeCo2,0.0,-0.010228,,3,3.0
AsILa2,0.0,-0.0373564999999999,,3,3.0
CTeDy2,0.0,-0.0367552,,3,3.0
AsSmTb,0.0,-0.0381969,,3,3.0
LiO4F8V3,1.9749,-0.009498,,3,3.0
KScSe3Ag,0.0,-0.0202151,,3,3.0
Li2SiPm,0.0,-0.0150268,,3,3.0
O6Ba2TbAu,2.2688,-0.0256026,,3,3.0
O8K3Y,0.0,-0.0099811,,3,3.0
LiK2Br6Mo,2.0597,-0.0184484,,3,3.0
CoNi2Er2,0.0,-0.0304477,,3,3.0
Cl2Ce2Bi,0.0,-0.0384765,,3,3.0
CrTl2Th6,0.0,-0.0821268,,3,3.0
O2ScCu,2.5698,-0.0130885,,3,3.0
F6ZnPu,0.6069,-0.0212791999999999,,3,3.0
Cl6CuCs2Pr,2.4271,-0.0202218,,3,3.0
O4AsRu,0.0,-0.0145089,,3,3.0
S4ZnRb2,1.4068,-0.0140939,,3,3.0
K2In2Au,0.0,-0.0307509,,3,3.0
InCe3,0.0,-0.0420940999999999,,3,3.0
O6Ca2FeNi,0.0,-0.0112227,,3,3.0
AlTc2W,0.0,-0.0373098,,3,3.0
F6GeSr,6.5463,-0.0110767,,3,3.0
H4SrPt,0.0,-0.0182705,,3,3.0
O6Ba2CePt,1.7485,-0.0257962,,3,3.0
O7La2U2,0.0,-0.0340932,,3,3.0
H2PdHf2,0.0,-0.0336025,,3,3.0
MnFe2Ni,0.0,-0.0177792,,3,3.0
SiCaSe4Ag2,0.2522,-0.0211064,,3,3.0
Na2FeSe2,1.0432,-0.0142945,,3,3.0
H2PLa2,0.0,-0.0217591,,3,3.0
S8NbW3,0.0,-0.0274958,,3,3.0
LiSiY,0.0,-0.0140805,,3,3.0
AgAu2Ac,0.0,-0.0656996,,3,3.0
Ge3PtNp,0.0,-0.047197,,3,3.0
SnPrIr,0.0,-0.0510219,,3,3.0
S4Cu5,0.0,-0.0129794,,3,3.0
Co2ZnRe,0.0,-0.0297329,,3,3.0
HO4VCs2,4.0123,-0.0173362,,3,3.0
Co4RhIr,0.0,-0.0290015,,3,3.0
NiY3Pd2,0.0,-0.0283195,,3,3.0
Fe2GaLa,0.0,-0.0242214,,3,3.0
Ni2ZrRh,0.0,-0.0247866,,3,3.0
Cd3Hg5,0.0,-0.0539848,,3,3.0
Zn4YOs,0.0,-0.0259067,,3,3.0
NiY2Ir2,0.0,-0.0436371,,3,3.0
RuHo2Pt,0.0,-0.0517385999999999,,3,3.0
CoGeTh,0.0,-0.0447221,,3,3.0
NaBr6SbCs2,2.7227,-0.0248346,,3,3.0
O6MnCoSm2,0.0,-0.0190348,,3,3.0
S3CoRb2,0.0,-0.015428,,3,3.0
Al11Ce3,0.0,-0.0160136,,3,3.0
TiPdSn,0.6511,-0.0289806999999999,,3,3.0
NiSbPr,0.5842,-0.0331603,,3,3.0
B3O10Ca4Y,5.0987,-0.0116644,,3,3.0
AlTb2Ir2,0.0,-0.0498126,,3,3.0
Cl4Sr,3.1387,-0.0124397,,3,3.0
LiFeI2,0.768,-0.0239781,,3,3.0
Si2ScLa2,0.0,-0.0248307,,3,3.0
MgZr2Ta,0.0,-0.0331655,,3,3.0
S6Se2Mo3W,0.9857,-0.0235306999999999,,3,3.0
K4AuTl,0.0,-0.0293462,,3,3.0
Al2RhDy6,0.0,-0.0377665,,3,3.0
O2MgAsBr,3.6121,-0.0131395,,3,3.0
Rh3Os,0.0,-0.0432716,,3,3.0
PMnHf,0.0,-0.0315591,,3,3.0
CdEu2Pb,0.0,-0.0540563,,3,3.0
Cl3AgTl,0.0,-0.0262873,,3,3.0
CoCu2Se4Sn,0.0,-0.0207826999999999,,3,3.0
Ge2In3Nd3Ir,0.0,-0.0386373,,3,3.0
KPt4Pb,0.0,-0.0610488,,3,3.0
Al4PdDy,0.0,-0.0193075,,3,3.0
B6Ni2Tb,0.0,-0.0141625,,3,3.0
AsTe2Au,0.0,-0.0410232,,3,3.0
NaCl6K2Dy,5.5993,-0.0139488,,3,3.0
O6Na5I,2.5735,-0.0094238,,3,3.0
Ga2SmTb,0.0,-0.031643,,3,3.0
Ga2Se4Ba,2.1339,-0.023013,,3,3.0
MgI3Tl,2.0479,-0.0383545999999999,,3,3.0
SiNi8,0.0,-0.0156699,,3,3.0
PAuPb,0.0,-0.0518253,,3,3.0
C3Al3Y,0.1834,-0.0120731,,3,3.0
Al4SrPd,0.0,-0.0148827,,3,3.0
Si6ScCo4,0.0,-0.013537,,3,3.0
Ti6FeSb2,0.0,-0.0214059999999999,,3,3.0
RbBa2Hg2,0.0,-0.0476803,,3,3.0
O3RhBa2,0.0,-0.0240986,,3,3.0
Mg3Al,0.0,-0.0056541,,3,3.0
Ga4La,0.0,-0.0222933,,3,3.0
Au2HgTh2,0.0,-0.0804133,,3,3.0
Si3RhTb2,0.0,-0.027205,,3,3.0
Zn2ZrPd,0.0,-0.0231513,,3,3.0
Ru3Re,0.0,-0.0439702,,3,3.0
NaCl6Rb2Tl,2.3453,-0.0182058,,3,3.0
NaCd2Au2,0.0,-0.0409823999999999,,3,3.0
NaZn2Ga2,0.0,-0.0128995999999999,,3,3.0
Li2AlAu2,0.0,-0.0307455999999999,,3,3.0
Li5Cu3,0.0,-0.0071361,,3,3.0
O6Na2TeGd,0.0,-0.0161625,,3,3.0
S2NbTl,0.0,-0.0321708,,3,3.0
As2SmPt2,0.0,-0.046087,,3,3.0
Cl6K2Re,1.5052,-0.0165354,,3,3.0
CaNi2Rh3,0.0,-0.0240195,,3,3.0
B2N4Y3,0.0,-0.0167578,,3,3.0
BF4Cl2CsPb,3.8225,-0.0193203,,3,3.0
SiNi2Ir,0.0,-0.0288199,,3,3.0
Fe2InU,0.0,-0.0432353,,3,3.0
B2CNi2La,0.0,-0.0172159,,3,3.0
F6NaK2Pd,0.9241,-0.0099442,,3,3.0
O3AgHo,0.0,-0.0217388,,3,3.0
S6Mn3Rh,0.0,-0.0154009,,3,3.0
O6ZnSr2Pu,0.0,-0.0232705,,3,3.0
F6Na2Hf,8.1656,-0.0138763,,3,3.0
Si2FePr2,0.0,-0.025439,,3,3.0
Al3Sc2Ge2,0.0,-0.0133739,,3,3.0
ZnHg2Pb,0.0,-0.0563331,,3,3.0
Ca2Ge2Sb,0.0,-0.0196101,,3,3.0
KNiAs2,0.0,-0.0166253,,3,3.0
RhPrTl5,0.0,-0.0629831,,3,3.0
NiPd5,0.0,-0.0300028,,3,3.0
SiSbTa,0.0,-0.0382418,,3,3.0
As2Ru2Pu,0.0,-0.0445964,,3,3.0
LiGa4Hf,0.0,-0.0220791,,3,3.0
MgY3Ir2,0.0,-0.0391856,,3,3.0
F6FeTl,1.9439,-0.0161529999999999,,3,3.0
Pt3Tl,0.0,-0.070709,,3,3.0
Gd2HgPb,0.0,-0.0660657,,3,3.0
F6Tl2Pa,0.4286,-0.0325366,,3,3.0
CoMo2Pt,0.0,-0.0394822,,3,3.0
O7Nb2Cs2Ba,1.9976,-0.0214988,,3,3.0
GeI2Lu2,0.2214,-0.0419033,,3,3.0
MgGe2Pd,0.0,-0.019348,,3,3.0
ZnDy2Ir2,0.0,-0.0512175,,3,3.0
O4HoPu,0.9199,-0.0341743,,3,3.0
Al2MnY,0.0,-0.0158936,,3,3.0
Cl4Hg,0.0,-0.0201618,,3,3.0
LiFeGaIr,0.0,-0.0274906,,3,3.0
Ru2IrPt,0.0,-0.0527535,,3,3.0
O5Ti2Se2Pr2,0.3734,-0.0203296,,3,3.0
Br6AgCs2Au,0.0,-0.0302927,,3,3.0
Cu3PdAu4,0.0,-0.0444804,,3,3.0
AgSn,0.0,-0.0335604,,3,3.0
O6FeBa2Ho,0.6432,-0.0211325,,3,3.0
Sn2SmHg,0.0,-0.0466479,,3,3.0
LiPd2Pr,0.0,-0.0283754,,3,3.0
Al4Mn2Gd,0.0,-0.0184151,,3,3.0
O6MnCoSr2,0.0,-0.0140363,,3,3.0
Li2YSn,0.0,-0.0176029,,3,3.0
AlPt7,0.0,-0.0627588,,3,3.0
CoZnSn,0.0,-0.0221247,,3,3.0
GaAs2Zr6,0.0,-0.02766,,3,3.0
Ni4Pt5,0.0,-0.0463149999999999,,3,3.0
AlScAu2,0.0,-0.0410512,,3,3.0
LiNiSe2Rb,0.0,-0.016808,,3,3.0
LiCu4Rh,0.0,-0.0161253999999999,,3,3.0
F6NaRb2Er,7.517,-0.0152969,,3,3.0
O5Na4Bi2,2.0503,-0.0201091,,3,3.0
Zn2SnBa2,0.0,-0.0287874,,3,3.0
C4Lu3Os,0.0,-0.0352645,,3,3.0
Li4O12MnNb2W,2.0404,-0.0143894,,3,3.0
Ag5Pr,0.0,-0.0335566,,3,3.0
O3YBa,0.0,-0.020203,,3,3.0
MgCa2Sn,0.0,-0.0155200999999999,,3,3.0
Mg2InDy2,0.0,-0.0280314,,3,3.0
Al2PdAu,0.0,-0.0301341,,3,3.0
Cl6Rb2AgIn,1.3542,-0.0169538,,3,3.0
O6Ba2ErOs,0.5531,-0.0266325,,3,3.0
InHf6Bi2,0.0,-0.0631212999999999,,3,3.0
SiAs,1.1071,-0.0152026,,3,3.0
LiMgPt4,0.0,-0.0486445,,3,3.0
Rh2In3Nd3,0.0,-0.0380451,,3,3.0
Si2FePa,0.0,-0.0349678,,3,3.0
S3KNdHg,2.0055,-0.0262626,,3,3.0
AsSr2I,1.6808,-0.0270048,,3,3.0
AlSiSc2,0.0,-0.0122175,,3,3.0
O2AgBi,1.6758,-0.0313321,,3,3.0
ZnGa3Sm,0.0,-0.0219519,,3,3.0
Si2Sc,0.0,-0.0119087999999999,,3,3.0
NInNp,0.0,-0.0505674,,3,3.0
BAl2Os2Th,0.0,-0.0443997999999999,,3,3.0
Ag2Au2Pb,0.0,-0.0553791,,3,3.0
Br2HgPb,2.0358,-0.0463564999999999,,3,3.0
Cl7SeZr3,0.5959,-0.017187,,3,3.0
LiPdCdPb,0.0,-0.0357148,,3,3.0
CuSe3BaTb,1.112,-0.0287367,,3,3.0
O2SnLa2,0.0,-0.0297106,,3,3.0
ZnCd2Pb,0.0,-0.0374149,,3,3.0
O6SiNiPr2,2.9699,-0.0180935999999999,,3,3.0
KSe2Hf,0.0,-0.0292127,,3,3.0
Al2TiCu2,0.0,-0.0126941,,3,3.0
NiGa6Er,0.0,-0.0210109,,3,3.0
LiSrRh2,0.0,-0.0232676,,3,3.0
Sm3Lu,0.0,-0.047151,,3,3.0
LiAs2Pt2U,0.0,-0.0485123,,3,3.0
Ge3TmOs,0.0,-0.0366441999999999,,3,3.0
Be2N2Sm,0.0,-0.0155815,,3,3.0
F6SnPa,1.2834,-0.022846,,3,3.0
OHf3Au,0.0,-0.0541543,,3,3.0
OHf3Ir,0.0,-0.0547627,,3,3.0
Li3O8CrCo3,0.0,-0.0104056,,3,3.0
Co2GeNp,0.0,-0.0401657999999999,,3,3.0
S4Sm3Ho,0.0,-0.0298663,,3,3.0
S2KAgHg,1.7399,-0.0259663,,3,3.0
RhGdAu2,0.0,-0.0584523,,3,3.0
CTi2Sn,0.0,-0.0203295,,3,3.0
SiLu,0.0,-0.0335099,,3,3.0
KGeAs,0.5943,-0.0162515,,3,3.0
O7Ti2Pu2,0.0,-0.0300699,,3,3.0
Si2SnDy2,0.0,-0.0310111,,3,3.0
O3CoBa2,0.5051,-0.0214477,,3,3.0
Rh2Cd2La,0.0,-0.0347256,,3,3.0
AlGa2Zr6,0.0,-0.0253983999999999,,3,3.0
Sc6GaBi2,0.0,-0.02939,,3,3.0
HRh2La,0.0,-0.0290984,,3,3.0
NaSbBa,1.0205,-0.0279795,,3,3.0
ZnRhHo,0.0,-0.0329254,,3,3.0
O6CoZnNd2,0.8592,-0.0181213,,3,3.0
O6RuBa2Pa,0.0,-0.0280194,,3,3.0
Cu4YPt,0.0,-0.0269142,,3,3.0
NiSn3Th,0.0,-0.0443348,,3,3.0
Cr4RuRh,0.0,-0.0237071,,3,3.0
CaGa2Ho,0.0,-0.0233952999999999,,3,3.0
O4GeNd,0.0,-0.0170051999999999,,3,3.0
NSnEr3,0.0,-0.0404765999999999,,3,3.0
H3O10NaS2Ni2,2.5812,-0.0086887,,3,3.0
Li2O12P4Mn,2.6674,-0.0097597,,3,3.0
Ti6CrGa2,0.0,-0.0166245,,3,3.0
Te3La4Bi,0.0,-0.0469823,,3,3.0
SbTeTh,0.0,-0.0578978,,3,3.0
Sc2TiGa2,0.0,-0.0159731,,3,3.0
CrCo2Dy2,0.0,-0.0297062999999999,,3,3.0
O6Ba2HgPu,0.0,-0.0319095,,3,3.0
BeSb2Cs4,1.4396,-0.0333342,,3,3.0
B6Co2Gd,0.0,-0.0157906999999999,,3,3.0
Be13Lu,0.0,-0.0081637,,3,3.0
TiMnIr2,0.0,-0.0450167,,3,3.0
PPdHo,0.0959,-0.0321124,,3,3.0
SiLaPt,0.0,-0.042442,,3,3.0
BMn4Ho,0.0,-0.0218709,,3,3.0
Tc2HfPa,0.0,-0.0585251,,3,3.0
F3KNi,2.2981,-0.0096718,,3,3.0