formula,bg,formation_energy,mp-id,fidelity,bg_category
LiO7P2In,4.8804,-0.0115176999999999,,3,3.0
MgNiZn,0.0,-0.0117396,,3,3.0
LiNi2As2Tb,0.0,-0.0211914,,3,3.0
CrBr6Cs2,0.0,-0.0247826,,3,3.0
Te2Ho6Au,0.0,-0.0495237,,3,3.0
GePt5Pb,0.0,-0.063911,,3,3.0
O4GaPt,0.0,-0.0197546,,3,3.0
O6Ca2RuPt,0.0,-0.0180784999999999,,3,3.0
ScYRe4,0.0,-0.0547533,,3,3.0
H3DyIr,0.0,-0.0266070999999999,,3,3.0
NFNp,0.0,-0.0422012,,3,3.0
CaPtAu2,0.0,-0.0551888,,3,3.0
F4CoTl,0.5191,-0.0193603,,3,3.0
PdHoBi,0.0,-0.0545587,,3,3.0
F6RbCs2Ho,7.1129,-0.0202001999999999,,3,3.0
CuSb2Ba,0.0,-0.0329435,,3,3.0
LiBO3Ni,1.8216,-0.009561,,3,3.0
LiMnGePt,0.0,-0.0282024,,3,3.0
La3Tm,0.0,-0.0452662,,3,3.0
Se2InTm,0.8682,-0.0327603,,3,3.0
Se2AgCs,0.0,-0.0279597,,3,3.0
Li3In,0.0,-0.0104546,,3,3.0
In5IrPa,0.0,-0.0485396,,3,3.0
NiPdHo2,0.0,-0.0374322,,3,3.0
ZnRh2Tb2,0.0,-0.0358024,,3,3.0
PIn,1.046,-0.0221986,,3,3.0
Fe8Cu,0.0,-0.0177868,,3,3.0
Zn2Ga2Pb,0.0,-0.0270366,,3,3.0
TaAu5,0.0,-0.0688245,,3,3.0
C4FeLu3,0.0,-0.0284752,,3,3.0
O6ZrSnBa2,4.7698,-0.0213517,,3,3.0
MgK2SrBi2,0.3005,-0.0341828999999999,,3,3.0
Si2MnDy2,0.0,-0.0274947,,3,3.0
CN2Ca2Br2,4.7976,-0.0139867,,3,3.0
SrPd2Ag3,0.0,-0.0306557,,3,3.0
N2PU2,0.0,-0.0486216,,3,3.0
SiCo2Hf,0.0,-0.0273862,,3,3.0
H14B9Cs,4.0016,-0.0065849,,3,3.0
O6TeBa2Gd,0.0,-0.0238785,,3,3.0
ClFeTh,0.0,-0.0416799,,3,3.0
Co2GaNp,0.0,-0.0394988999999999,,3,3.0
SITm,2.8594,-0.0347361,,3,3.0
SAsHf,0.0,-0.0321438,,3,3.0
S7Ba3Hf2,0.9414,-0.0281033,,3,3.0
BAl2TbRe2,0.0,-0.0357511,,3,3.0
Mg2KHg2,0.0,-0.0312311,,3,3.0
CoNi2Ho3,0.0,-0.0331363,,3,3.0
S7Sm5,0.0,-0.0264924,,3,3.0
Cl8ZnGa2,4.5824,-0.0112169,,3,3.0
B4MgAl,0.0,-0.0072653,,3,3.0
O6Te2Ba,2.2915,-0.0185302,,3,3.0
NIHf,1.9427,-0.0378861,,3,3.0
PdCdPt2,0.0,-0.051119,,3,3.0
HYRh3,0.0,-0.027062,,3,3.0
MnNi5Sb,0.0,-0.0196176,,3,3.0
LiP2Fe2Hf,0.0,-0.021036,,3,3.0
Si3CuSm2,0.0,-0.0231515,,3,3.0
Al3Ge2Zr3Au,0.0,-0.0254695,,3,3.0
MgMnAu2,0.0,-0.0410109,,3,3.0
FBrSr,5.7299,-0.018435,,3,3.0
LiSe2Tb,1.7415,-0.0242313,,3,3.0
AsSrAu,0.0,-0.0383409,,3,3.0
N2YCe,0.0,-0.0246072,,3,3.0
FeGeSm,0.0,-0.0276885,,3,3.0
Li2Sr2Ba,0.0,-0.0177579,,3,3.0
Zn2Zr4In5,0.0,-0.0292245,,3,3.0
Fe5Pr,0.0,-0.0222224,,3,3.0
P2Mn2La,0.0,-0.0211155,,3,3.0
NaGeRh,0.0,-0.0195109,,3,3.0
Ni2CuOs,0.0,-0.029744,,3,3.0
AlYCd2,0.0,-0.0244513999999999,,3,3.0
AgHoTl,0.0,-0.0513029999999999,,3,3.0
As2Ag2Pb,0.0,-0.0356618,,3,3.0
O6Br2Pb,3.8534,-0.0171216,,3,3.0
MgLu2Au2,0.0,-0.051795,,3,3.0
Na2PPd,0.0,-0.0134022,,3,3.0
KCd2Ba2,0.0,-0.0298737,,3,3.0
SiNi2Ho,0.0,-0.0235764,,3,3.0
Al3Zn2Sr,0.0,-0.0123445999999999,,3,3.0
GeHfIr2,0.0,-0.0568254,,3,3.0
SrSnI4,2.4482,-0.0353447,,3,3.0
CSiTa2,0.0,-0.0388195,,3,3.0
MnZr6Pb2,0.0,-0.0396458,,3,3.0
CoCuHo2,0.0,-0.0328622,,3,3.0
B2Ir3Pu,0.0,-0.0569739,,3,3.0
Al2ErTm,0.0,-0.0298333,,3,3.0
LiF6Ta,6.8691,-0.0146580999999999,,3,3.0
AlInDy2,0.0,-0.034675,,3,3.0
O4PAg3,1.1053,-0.0174235,,3,3.0
N3SrMo,0.8185,-0.0177809,,3,3.0
LiP,1.1097,-0.0069944,,3,3.0
H2GeTc2,0.0,-0.0191969,,3,3.0
Al4Co4Y3,0.0,-0.0171076,,3,3.0
FeGa3Ge2Hf3,0.0,-0.0330641,,3,3.0
Ag2Sn2Pr,0.0,-0.0360387,,3,3.0
Ge2In3Er3Ir,0.0,-0.0408529,,3,3.0
O8Cr4Rb,0.0,-0.0134367,,3,3.0
B2TbIr3,0.0,-0.0466434,,3,3.0
Be2CdHf2,0.0,-0.0330921,,3,3.0
U,0.0,-0.1035267999999999,,3,3.0
C2BrTb2,0.0,-0.0275911,,3,3.0
H2LiN,3.9108,-0.0052375,,3,3.0
Al3Ge2Eu3Pt,0.0,-0.0333617,,3,3.0
CdPt4Pa,0.0,-0.0693197,,3,3.0
HTi3Sb,0.0,-0.0182948,,3,3.0
Pd2Sb2Nd,0.0,-0.0376578,,3,3.0
InLa,0.0,-0.038932,,3,3.0
Zn2GaSn2,0.0,-0.0228434,,3,3.0
NiZnSn,0.0,-0.0220369999999999,,3,3.0
HOClRb2,4.1234,-0.0135382,,3,3.0
Al7Fe5Ho,0.0,-0.0153607,,3,3.0
Zn3Pt2Np,0.0,-0.048415,,3,3.0
O2CoPd,0.0,-0.0168193,,3,3.0
Al2Tm4Tl5,0.0,-0.0535541,,3,3.0
SYSb,0.0,-0.0265148,,3,3.0
Cd2Tl2Bi,0.0,-0.0567868,,3,3.0
O4MoHf,1.6746,-0.0232673999999999,,3,3.0
LiLaPb2,0.0,-0.0499207,,3,3.0
LiCl6Cs2Ho,5.5928,-0.0198779,,3,3.0
N2ZnHf,2.6184,-0.0249000999999999,,3,3.0
La4Os,0.0,-0.0489401999999999,,3,3.0
O3Na2Ba2,2.7242,-0.0172297,,3,3.0
ZnTm2Au,0.0,-0.0473903,,3,3.0
Ca3GaBa,0.0,-0.0171206,,3,3.0
Al3Si2Tm2,0.0,-0.0215454,,3,3.0
P2KSr,0.0,-0.013624,,3,3.0
S6Ti3Os,0.0,-0.0190492999999999,,3,3.0
SrSbPt,0.0,-0.0443907,,3,3.0
SiRe,0.0,-0.0408451,,3,3.0
LaPm3,0.0,-0.0437486,,3,3.0
FeGa3Ge2Dy3,0.0,-0.0283322,,3,3.0
LiSeTe2,0.0,-0.0247136,,3,3.0
Al2MnCo,0.0,-0.0132461,,3,3.0
ZnGe2In3Ho3,0.0,-0.0338122,,3,3.0
Al4FePr,0.0,-0.015828,,3,3.0
CaNiSb2,0.0,-0.02568,,3,3.0
HCO3Na,5.9382,-0.0076875,,3,3.0
AlCd2La,0.0,-0.0283614999999999,,3,3.0
AsPd,0.0,-0.0268559,,3,3.0
Na2As2Pt,0.0,-0.0244219,,3,3.0
Si8MnFe3,0.0,-0.0130397999999999,,3,3.0
Li4P2Pr,0.0,-0.0114854,,3,3.0
Al5Sm,0.0,-0.0141441,,3,3.0
LiF4Cd,0.6743,-0.009986,,3,3.0
Ga5RhCe,0.0,-0.0235335,,3,3.0
NEr3Pt,0.0,-0.0475604,,3,3.0
Si2YAg2,0.0,-0.0225607,,3,3.0
CuAu2Pb,0.0,-0.0573025999999999,,3,3.0
Si2FeNdOs,0.0,-0.0313893,,3,3.0
H8CrZn2La,0.0,-0.0098318,,3,3.0
Si2OsNp,0.0,-0.0500201,,3,3.0
NBr2Pr2,0.0,-0.0288157,,3,3.0
KTe3TmAu,0.0,-0.0411834,,3,3.0
NInBa3,0.0,-0.0327319,,3,3.0
ScZn2Zr2,0.0,-0.0207973,,3,3.0
Tb2PtAu,0.0,-0.0594543,,3,3.0
Fe2InNd,0.0,-0.0285271,,3,3.0
Si2Mn3Lu,0.0,-0.022234,,3,3.0
TcRu,0.0,-0.0350284,,3,3.0
LiCoGa2,0.0,-0.0133776,,3,3.0
LiAs2CeIr2,0.0,-0.0391128,,3,3.0
B4Mn5Tm2,0.0,-0.0208813999999999,,3,3.0
MgSiRu,0.0,-0.0171538,,3,3.0
F6MnNi,1.7861,-0.0094994,,3,3.0
O5PdBaDy2,2.6592,-0.0251171,,3,3.0
Si2GaEr2,0.0,-0.0281189999999999,,3,3.0
O2ClPb2,0.0,-0.03547,,3,3.0
Al5RhLu,0.0,-0.0189542,,3,3.0
P4Fe6Zn,0.0,-0.0151747,,3,3.0
Mn2SeTe,0.0,-0.0240551,,3,3.0
RbHg2Bi,0.0,-0.0591381,,3,3.0
HNPr2,0.0,-0.025883,,3,3.0
O8Rb3Er,0.0,-0.0149601,,3,3.0
Ge2Nd2Pb,0.0,-0.0410679,,3,3.0
ClMn2Pr2,0.0,-0.0268784,,3,3.0
Zn3Ag2Lu,0.0,-0.0266932,,3,3.0
O4BrNdBi2,1.3947,-0.0326613,,3,3.0
F6RhNd,2.745,-0.015334,,3,3.0
Cl2GeSr3,0.0,-0.0186339,,3,3.0
S3AgBaDy,1.8322,-0.0264621,,3,3.0
LiSr2Au2,0.0,-0.0378072999999999,,3,3.0
Sr2Pd2La,0.0,-0.0312072,,3,3.0
F3CoRb,1.192,-0.0122815999999999,,3,3.0
Ca6PdBi2,0.0,-0.0282575,,3,3.0
CaRbPdTe3,0.0,-0.0301607999999999,,3,3.0
LiK2Br6Eu,0.0,-0.0207204,,3,3.0
PdSn2Ho,0.0,-0.0391351,,3,3.0
LiCl6Rb2Nb,0.0,-0.0143407,,3,3.0
CuSbTb,0.0,-0.0338531,,3,3.0
Rh3LaPt2,0.0,-0.0480745,,3,3.0
BTi2Co6,0.0,-0.0162292,,3,3.0
SeY2In,0.0,-0.0285933999999999,,3,3.0
CN2FGd,2.9741,-0.0200199,,3,3.0
YRhCd,0.0,-0.0313661,,3,3.0
Cr5Tc,0.0,-0.0211585,,3,3.0
Co3Ir5,0.0,-0.0508616,,3,3.0
Al3Ge2Sr3Au,0.0,-0.0225283,,3,3.0
Fe4CdTa,0.0,-0.0282175,,3,3.0
ZrTe2Hg,0.0,-0.0440218,,3,3.0
O3Te,1.7109,-0.014936,,3,3.0
NiIn2Lu,0.0,-0.0350767,,3,3.0
Ti3W,0.0,-0.0294181,,3,3.0
As2RhU2,0.0,-0.0568447,,3,3.0
Cu2SbAc,0.0,-0.0399384999999999,,3,3.0
CaNb2Os2,0.0,-0.0441516,,3,3.0
LaDyPb2,0.0,-0.0613301,,3,3.0
Cu2Zr3In3,0.0,-0.0282094,,3,3.0
Al3Zr2Ir,0.0,-0.0268588999999999,,3,3.0
LiErHg2,0.0,-0.0478692,,3,3.0
Al5Pd2Pu,0.0,-0.0274148,,3,3.0
AgInTm,0.0,-0.0393767,,3,3.0
Mn2RbTe2,0.0,-0.0270437,,3,3.0
O5MgV2,1.2925,-0.0116353,,3,3.0
SiFePr,0.0,-0.0242984,,3,3.0
Al6Mn6Lu,0.0,-0.0165577,,3,3.0
TiGa2Zr6,0.0,-0.0261624,,3,3.0
B6CrFe2,0.0,-0.0112321,,3,3.0
Te2La6Os,0.0,-0.0458656,,3,3.0
TcRh2Ta,0.0,-0.0427601,,3,3.0
SCl2Cu2Hg,1.0581,-0.021128,,3,3.0
CdInPm2,0.0,-0.0385086,,3,3.0
F5AlK2,7.3879,-0.0087523,,3,3.0
Sr3Pt2,0.0,-0.0422590999999999,,3,3.0
CaScLa2,0.0,-0.0274489,,3,3.0
RuTb3,0.0,-0.0441283,,3,3.0
H4NNiSe4W,0.2699,-0.017561,,3,3.0
LiO8P2Ti,1.043,-0.0099573,,3,3.0
Zn2GaDy,0.0,-0.0232730999999999,,3,3.0
Si4Ni4Tm3,0.0,-0.0245084,,3,3.0
NiAsRb,0.0,-0.0194224,,3,3.0
O2CuLu,2.8608,-0.0234571,,3,3.0
MgIn2Ac,0.0,-0.0409754,,3,3.0
GaPt2Pu,0.0,-0.0674734,,3,3.0
LiP2Cu2Np,0.0,-0.0272856,,3,3.0
AgInEr,0.0,-0.038887,,3,3.0
ZnCd,0.0,-0.0218983,,3,3.0
Ni5Pm,0.0,-0.0210835,,3,3.0
HCl2Tl,3.8524,-0.0237062,,3,3.0
O8AlP2Ga,5.5845,-0.0105226,,3,3.0
O6CoSr2Pu,0.0,-0.0236189,,3,3.0
GaIrTh,0.0,-0.0621788,,3,3.0
MgEr2Pb2,0.0,-0.0520313,,3,3.0
Al2NiLu6,0.0,-0.0407269,,3,3.0
Ag2CeSm,0.0,-0.0381385999999999,,3,3.0
Al4NdIr,0.0,-0.0250923,,3,3.0
H4Ti2Pd,0.0,-0.0116598,,3,3.0
BeS2Cu,0.0,-0.0103784,,3,3.0
O6MgPdSm2,2.522,-0.0191201,,3,3.0
CsPtTl3,0.0,-0.0652281,,3,3.0
F6BaLu,0.0,-0.0181479,,3,3.0
Se2InNp,0.0,-0.0458945999999999,,3,3.0
SiMoDy,0.0,-0.0314346999999999,,3,3.0
H5Ba2Ir,0.4288,-0.0215973,,3,3.0
As3Cs2,0.6353,-0.0278035,,3,3.0
NOTi6Sn2,0.0,-0.0195179,,3,3.0
N2Cs2Au,0.0,-0.0329724999999999,,3,3.0
Sc2CoGe2,0.0,-0.0175012,,3,3.0
SiFe,0.0,-0.0145338,,3,3.0
Rh6InSb4,0.0,-0.0354007999999999,,3,3.0
Al2YRh,0.0,-0.0202561,,3,3.0
O6ClKSb4,3.1085,-0.0183246,,3,3.0
Ga2Hg2Bi,0.0,-0.0493525,,3,3.0
Cl4CaSr,5.4007,-0.0133285,,3,3.0
Se2Ir,0.0,-0.0374425,,3,3.0
Ge2Rh3Pu,0.0,-0.0422583,,3,3.0
Rh4Pb,0.0,-0.0420862,,3,3.0
B4Ho2Os5,0.0,-0.0447333,,3,3.0
Li2FeAs2,0.0,-0.0131127,,3,3.0
LiGd2Tl,0.0,-0.0484242,,3,3.0
LiY5,0.0,-0.0235392,,3,3.0
AlNi2Dy2,0.0,-0.0277245,,3,3.0
MnNi4Ta,0.0,-0.0252307999999999,,3,3.0
CN2Sn,1.9361,-0.0160127999999999,,3,3.0
Li2YLa,0.0,-0.0188759,,3,3.0
SClNb,0.0,-0.018209,,3,3.0
Zn6Mo,0.0,-0.0166176,,3,3.0
CdReIr2,0.0,-0.0610489,,3,3.0
LiAsRu,0.0,-0.0197566,,3,3.0
Ni2Ga5Tb,0.0,-0.0206579,,3,3.0
MgAl2S4,3.7877,-0.0098218,,3,3.0
NiPu,0.0,-0.0630846,,3,3.0
SrTmHg2,0.0,-0.0532288,,3,3.0
Na2Cd2Pb,0.0,-0.0291355,,3,3.0
NiCdPb,0.0,-0.0407023,,3,3.0
ZnSr2Pt2,0.0,-0.0405837999999999,,3,3.0
ZrAg2Cd,0.0,-0.0310974,,3,3.0
CdInTl,0.0,-0.0453166,,3,3.0
NiHo2Pt,0.0,-0.0470456999999999,,3,3.0
Cl6K2AgNd,3.7887,-0.0159048,,3,3.0
VI3,0.0,-0.0325306,,3,3.0
F6K3Eu,0.7089,-0.0132588,,3,3.0
K3Pt7,0.0,-0.051802,,3,3.0
PdSmHg,0.0,-0.04929,,3,3.0
C5Sr4Ir3,0.0,-0.0296133999999999,,3,3.0
C2Dy3Pb,0.0,-0.0404036,,3,3.0
SiCoNb4,0.0,-0.0269782,,3,3.0
ScZnRh2,0.0,-0.0246748,,3,3.0
OCl4RbNb,2.9158,-0.0150764,,3,3.0
NaCs2Hg,0.0,-0.0370784,,3,3.0
CoLu6Tl2,0.0,-0.0552490999999999,,3,3.0
S3Se3Bi4,1.0933,-0.0406271,,3,3.0
H2TcSnW,0.0,-0.0294845,,3,3.0
F6TiPt,1.4411,-0.0159673,,3,3.0
BrInBa2,0.0,-0.0341505,,3,3.0
PKBa2,0.0,-0.0251822,,3,3.0
O6CoPr2Os,0.0,-0.0236819,,3,3.0
LiRhSn2,0.0,-0.027398,,3,3.0
BNFeY,0.0,-0.016843,,3,3.0
O8P2CsHo,0.0,-0.0156462,,3,3.0
SeSn,0.626,-0.0283854,,3,3.0
P4Cu2Sr,0.0,-0.0139077,,3,3.0
O6Ba2GdBi,2.0504,-0.0279591,,3,3.0
GaBa2Ir2,0.0,-0.047895,,3,3.0
B2AlCr2,0.0,-0.012349,,3,3.0
H6Mg2Re,0.0,-0.0114724,,3,3.0
Cu2Tb3Tl3,0.0,-0.0488725,,3,3.0
LiS4Co2,0.0,-0.0114554,,3,3.0
Ca2Ag2Au,0.0,-0.0306813,,3,3.0
CBr5Nd4,0.0,-0.0298147,,3,3.0
CaScCd4,0.0,-0.024569,,3,3.0
O6InBa2Bi,0.0,-0.0249034,,3,3.0
CaTl2,0.0,-0.0519086,,3,3.0
Al2HoPt,0.0,-0.0348804999999999,,3,3.0
Na3SbTe4,0.0,-0.0254567,,3,3.0
Al7Cu2U3,0.0,-0.0331058,,3,3.0
Pd2Pt3Np,0.0,-0.0642183,,3,3.0
CaSe,2.4485,-0.0171529,,3,3.0
Al5CoEr,0.0,-0.0156673,,3,3.0
Nb3Ir,0.0,-0.0431758,,3,3.0
Al3Ho2Os,0.0,-0.0328756,,3,3.0
Zr6HfBi2,0.0,-0.0451619,,3,3.0
Li2SrTl,0.0,-0.0251985,,3,3.0
O7Si2TiDy,1.0073,-0.0148917,,3,3.0
Ni2SrIn,0.0,-0.0222024,,3,3.0
SiFe3,0.0,-0.0164009,,3,3.0
Ge2AgNd,0.0,-0.0288514,,3,3.0
Mg2CdIn,0.0,-0.0186082,,3,3.0
F6FeAg3,0.0,-0.0149156999999999,,3,3.0
CrZnIr2,0.0,-0.0438707,,3,3.0
Al3Ge2PdCe3,0.0,-0.0260875,,3,3.0
AlEr2Ir2,0.0,-0.0513053,,3,3.0
CaAg4In,0.0,-0.028314,,3,3.0
KCuSe3Sm,0.0,-0.0226879,,3,3.0
Al3Sn2Tm3Pt,0.0,-0.0365537,,3,3.0
AlAsAg,0.0,-0.0197402,,3,3.0
C2MnY,0.0,-0.0169699,,3,3.0
Pd2Cd3Tb,0.0,-0.0344012999999999,,3,3.0
CsBi2,0.0,-0.0653588,,3,3.0
B2N3Cu2Y3,0.0,-0.0169356,,3,3.0
ClZrTe,0.0,-0.0266828,,3,3.0
SiGaSr,0.0,-0.0167303,,3,3.0
NiLa2Hg,0.0,-0.0430765,,3,3.0
Li2SiEr,0.0,-0.016665,,3,3.0
AlRu2Sn,0.0,-0.0287918,,3,3.0
TiSe4Nb,0.0,-0.0226256,,3,3.0
NiLa2Pt,0.0,-0.0439831999999999,,3,3.0
Mg4P3Rb,1.6993,-0.009759,,3,3.0
Mn2Ga5Ta,0.0,-0.0233359,,3,3.0
AlTiRuIr,0.444,-0.0336621,,3,3.0
F6GeIn2,3.8417,-0.0141355,,3,3.0
SCl6BrCs2,0.0,-0.0162,,3,3.0
In3Sn2Nd3Ir,0.0,-0.0423563,,3,3.0
AsBr2Y2,0.0,-0.0248877,,3,3.0
InAu3,0.0,-0.0603615,,3,3.0
Br3Tl,1.6811,-0.0331679,,3,3.0
Sc2Ag2Cd,0.0,-0.0246487,,3,3.0
H2O5ZnSe,3.2809,-0.0090362,,3,3.0
H8Si,6.6653,-0.004156,,3,3.0
Li2O4MnGe,1.8439,-0.0105072,,3,3.0
Al3Ge2RuNd3,0.0,-0.0260309,,3,3.0
B4Tm2Os5,0.0,-0.0452497,,3,3.0
FeY6Te2,0.0,-0.0295316,,3,3.0
B2O6ErPb,0.1696,-0.0204091,,3,3.0
S3CuTbTl,0.0,-0.0283278,,3,3.0
O2V,0.0,-0.0126201,,3,3.0
Cl2SbDy2,0.0,-0.031554,,3,3.0
O6PdBa2Th,2.3767,-0.0271993,,3,3.0
Li2GaGe,0.0,-0.0103287999999999,,3,3.0
Ru,0.0,-0.034826,,3,3.0
Si2YAu,0.0,-0.0299562999999999,,3,3.0
O2RhCs,1.4413,-0.0221087,,3,3.0
GeI2Th2,0.0,-0.057978,,3,3.0
Li2CaIn,0.0,-0.0123088,,3,3.0
SiTi2Cr3,0.0,-0.0165405,,3,3.0
MgP4Pd6,0.0,-0.0225984,,3,3.0
KTl,0.0,-0.0405561,,3,3.0
Sn2Er6Pt,0.0,-0.0501627,,3,3.0
Zr2IrHg,0.0,-0.0508411,,3,3.0
LiB20Mg9,0.0,-0.0066955999999999,,3,3.0
NiAs2Ba,0.0,-0.0248007,,3,3.0
F2KRb,5.3609,-0.0117736,,3,3.0
Nd3Ir,0.0,-0.0509835,,3,3.0
Si2CaPt3,0.0,-0.041067,,3,3.0
LuPb3,0.0,-0.0709586,,3,3.0
AgCdEu2,0.0,-0.0426352,,3,3.0
Zr2TaOs,0.0,-0.0502881,,3,3.0
NiAsLu2,0.0,-0.0377489,,3,3.0
AsYPd,0.0,-0.0282786,,3,3.0
Ni4SnHf,0.0,-0.0275878,,3,3.0
STl6,0.0,-0.0634588,,3,3.0
Mn2ITh2,0.0,-0.0533302,,3,3.0
H8Mg2FeSm,0.0,-0.0087513,,3,3.0
LiAlBa2,0.0,-0.0223404,,3,3.0
B2O6SrIn,0.0,-0.0132159,,3,3.0
LiF6K2Ni,0.0,-0.0083587,,3,3.0
As5Tb,0.0,-0.0251125,,3,3.0
As2AgNd,0.0,-0.0297206,,3,3.0
Ag5Hg4,0.0,-0.0476747,,3,3.0
AlCo2Ce2,0.0,-0.0265607,,3,3.0
N2FeBa2,0.0,-0.0237497,,3,3.0
Ag2SbAu2,0.0,-0.047648,,3,3.0
O2Ba,2.588,-0.019414,,3,3.0
O5CuSrLaTl,0.0,-0.0225886,,3,3.0
NaGe2Ir2,0.0,-0.0373764,,3,3.0
P2Ba3,0.4025,-0.0290320999999999,,3,3.0
P2Ni2Pr,0.0,-0.0203282999999999,,3,3.0
CoDy2Pt,0.0,-0.04663,,3,3.0
Sc3CoGa3Sn2,0.0,-0.0207035,,3,3.0
BePd3La,0.0,-0.0298801,,3,3.0
Si2Ni2Mo,0.0,-0.0179157,,3,3.0
O2CdLa2,0.0,-0.0284508,,3,3.0
F6SrRh,0.0,-0.0123239,,3,3.0
H6MgSr2,3.2572,-0.0083514,,3,3.0
SrTe2,0.4302,-0.0335445,,3,3.0
K5Sn2,0.0,-0.0163726999999999,,3,3.0
N2SrSn,1.5792,-0.0196703,,3,3.0
O5MgTi2,3.1302,-0.0117846,,3,3.0
MnHo6Pb2,0.0,-0.0519825,,3,3.0
Co2LaU,0.0,-0.0453788,,3,3.0
SiNi3Tm2,0.0,-0.0277188,,3,3.0
CuGeAu2,0.0,-0.0431157,,3,3.0
CuCdIn,0.0,-0.0263198,,3,3.0
TiFe2Te3,0.0,-0.0276528999999999,,3,3.0
Ti5Mn7,0.0,-0.0175156,,3,3.0
Cu2Zn2Ba,0.0,-0.0194666,,3,3.0
Al7HoAu3,0.0,-0.0289759,,3,3.0
MnPd2Sn,0.0,-0.0305052,,3,3.0
Li2Pd2La,0.0,-0.0232899,,3,3.0
PdSb2Cs5,0.0,-0.0375007,,3,3.0
CaGe3Os,0.0,-0.0281271,,3,3.0
Li2ZnGe3,0.0,-0.0128164,,3,3.0
Fe2PdU2,0.0,-0.0553172,,3,3.0
CaGa3Au,0.0,-0.0262156999999999,,3,3.0
As2RbTl2,0.0,-0.0413862,,3,3.0
HoTm3,0.0,-0.0511192,,3,3.0
Y2InI2,0.0,-0.0336188,,3,3.0
NdHg2Ac,0.0,-0.0682432,,3,3.0
MnGe2Tb2,0.0,-0.0308058,,3,3.0
HCl2In,2.9868,-0.0138282,,3,3.0
Fe2In5Er4,0.0,-0.0371649,,3,3.0
Sb2Nd6Ir,0.0,-0.0460822,,3,3.0
Li2Mg2Sn2Tb,0.0,-0.0195272,,3,3.0
Si2Ru3Np,0.0,-0.0389894,,3,3.0
ClRhTl3,0.0,-0.0522206,,3,3.0
PPd5Hf,0.0,-0.0346336999999999,,3,3.0
MnSe2Rh,0.0,-0.0235118,,3,3.0
H6N2F4Sn,5.7168,-0.0082149,,3,3.0
GeBr3Sm3,0.0,-0.0316329,,3,3.0
Fe2PbTh2,0.0,-0.0609393,,3,3.0
YCd2Tl,0.0,-0.0406419,,3,3.0
O7Nb2Cs2Eu,0.0,-0.0226838,,3,3.0
CO2Tl,2.9882,-0.0248516,,3,3.0
Co2Ga3Th3,0.0,-0.0468984,,3,3.0
In2AcTh,0.0,-0.0636414,,3,3.0
H4KFe,0.0,-0.0067501,,3,3.0
Li2O4CoGe,1.8763,-0.0101785,,3,3.0
MgCd2Ce,0.0,-0.0279462,,3,3.0
O8P2Rb3Ho,5.5284,-0.0158428,,3,3.0
TiPd2Pt,0.0,-0.0387599,,3,3.0
Na2CuAs2,0.0,-0.0131539,,3,3.0
GeSrAu2,0.0,-0.0455924,,3,3.0
O2Na2Ni,1.8048,-0.0088486,,3,3.0
O7Ge2Nd2,4.4838,-0.0181104,,3,3.0
HO10P3Pb2,4.2639,-0.0175969,,3,3.0
CRu2Sn2Dy2,0.0,-0.0358918,,3,3.0
NNb2,0.0,-0.0261655,,3,3.0
SiRh2Np,0.0,-0.0467526,,3,3.0
CaYBi,0.0,-0.0394163,,3,3.0
NaCl6K2Bi,4.0951,-0.0163845,,3,3.0
CuBa2Au,0.0,-0.0413035,,3,3.0
CBr5Sm4,0.0,-0.0301603,,3,3.0
LiS2MnCs,1.33,-0.0169602,,3,3.0
Rh6Sb4Lu,0.0,-0.0376460999999999,,3,3.0
AlI3La3,0.0,-0.0364732,,3,3.0
PdEu2Pt,0.0,-0.0534649,,3,3.0
MnFe2Co,0.0,-0.018025,,3,3.0
LiRh5,0.0,-0.0285827,,3,3.0
TiAsZr,0.0,-0.0233968999999999,,3,3.0
MnNi2Y2,0.0,-0.0216284,,3,3.0
SePd,0.0,-0.0268115999999999,,3,3.0
InAu2Th,0.0,-0.0676544999999999,,3,3.0
NBr2Nd2,0.0,-0.0289449,,3,3.0
B4Nd2Ir5,0.0,-0.0438002,,3,3.0
Si3Ba2Pt,0.0,-0.0306168,,3,3.0
NaK2Br6In,2.4771,-0.0185725,,3,3.0
Zn2Y2Sn,0.0,-0.0243743,,3,3.0
NiPd2Sn4,0.0,-0.0325265,,3,3.0
TcOsIr2,0.0,-0.0624902,,3,3.0
NaK2Sb2,0.0,-0.0195198,,3,3.0
OF5RbCs2Hf,5.12,-0.021661,,3,3.0
Li2KAu,0.0,-0.0209011999999999,,3,3.0
O6CoRhNd2,1.2342,-0.020073,,3,3.0
Li2O6MnNi2,0.6459,-0.0102102,,3,3.0
NaS2Au,0.4602,-0.0237824999999999,,3,3.0
F5ScSn,3.3368,-0.0130028,,3,3.0
Al3Ge2PdTh3,0.0,-0.0431257,,3,3.0
P2Cd2Ho,0.0,-0.0266713,,3,3.0
Sc2Cu2Sn,0.0,-0.0195057,,3,3.0
MgFe4Ta,0.0,-0.0240587,,3,3.0
Mn2GeTa,0.0,-0.0308216,,3,3.0
OYCdSb,0.5151,-0.0272435,,3,3.0
S3KPt2,1.5572,-0.0304279,,3,3.0
Li3O6TiV2,0.0,-0.0106198,,3,3.0
MgLa2Os,0.0,-0.0408982,,3,3.0
SiCo2Gd,0.0,-0.0261968,,3,3.0
GeRu3Pr2,0.0,-0.0354236999999999,,3,3.0
FS2SrBi,0.841,-0.0266463,,3,3.0
H6CoSr2,0.0,-0.0097559,,3,3.0
MgGdPt2,0.0,-0.0521236,,3,3.0
AlScMn,0.0,-0.0138166,,3,3.0
Ni4InNd,0.0,-0.0238939,,3,3.0
FeCu3Te4Tl2,0.0,-0.0358931,,3,3.0
Co2Zn,0.0,-0.0160304,,3,3.0
Br6Cs2Tb,0.0,-0.0283542,,3,3.0
O4InTa,4.159,-0.0233999999999999,,3,3.0
Si6SrIr4,0.0,-0.0340498,,3,3.0
Se2Rb3Au,2.4218,-0.029709,,3,3.0
C2NiTb,0.0,-0.0211989,,3,3.0
Mg2GeAg,0.0,-0.0152746999999999,,3,3.0
LiLaPt2,0.0,-0.0474763999999999,,3,3.0
Al3Ni2Lu,0.0,-0.0191695,,3,3.0
NaSn2Tl2,0.0,-0.0441871,,3,3.0
CaPd6Sb4,0.0,-0.0329136,,3,3.0
H6La2Ir,0.0,-0.0203655,,3,3.0
Cu2GeSe4Ba,0.1014,-0.0219325,,3,3.0
CaScCuSe3,0.8825,-0.0181527,,3,3.0
O6MnFeSrBi,0.8792,-0.0195188,,3,3.0
O4Sb2ICe,0.0,-0.0245513,,3,3.0
VBr6Cs2,0.0,-0.0247622,,3,3.0
CSiRu2Dy,0.0,-0.0282165,,3,3.0
MnGa2Lu,0.0,-0.0271643,,3,3.0
Si2Mn3Pr,0.0,-0.0201602,,3,3.0
Al2NiHf6,0.0,-0.0456574,,3,3.0
ZnSe2Zr6,0.0,-0.0271874,,3,3.0
F6NaCuCs2,2.0573,-0.0141871,,3,3.0
Ni2ReAu,0.0,-0.0431016,,3,3.0
AgInBa2,0.0,-0.0363394,,3,3.0
ZnPdPt,0.0,-0.0392692,,3,3.0
AlErAu,0.0,-0.0434797,,3,3.0
BrYPt,1.0064,-0.040789,,3,3.0
InLu2Tl,0.0,-0.0545891,,3,3.0
LiO6RuTb2,0.8595,-0.0195779999999999,,3,3.0
CoTh2,0.0,-0.0698649,,3,3.0
Al5Ti4Fe2,0.0,-0.0130041,,3,3.0
CaInIr,0.0,-0.0385884,,3,3.0
Ag4Te,0.0,-0.0325128,,3,3.0
Te3Bi8,0.0,-0.0673829,,3,3.0
Se3CsLaHg,1.7187,-0.0363727,,3,3.0
CaGa4Nb2,0.0,-0.0206347,,3,3.0
Ge3RuEr,0.0,-0.0290657,,3,3.0
Cu4InNd,0.1509,-0.0232216,,3,3.0
SbAu4,0.0,-0.0627071,,3,3.0
Br2CsTl,3.7622,-0.0386838,,3,3.0
Se3SrHoAu,1.399,-0.0350927,,3,3.0
NMg3Ge,0.0,-0.0092007999999999,,3,3.0
O5VNb,2.0384,-0.0143165,,3,3.0
Pt3Pb2,0.0,-0.0725036999999999,,3,3.0
Co5La,0.0,-0.0215324,,3,3.0
SiMnTb,0.0,-0.0256587,,3,3.0
Na6Cl8Mn,3.6124,-0.0091095,,3,3.0
FSi6Ca10,0.0,-0.0102744999999999,,3,3.0
Be2P2Nd,0.0,-0.0154773999999999,,3,3.0
Zn2Pd3Gd,0.0,-0.0313762,,3,3.0
O4MoBa,4.4788,-0.0193184,,3,3.0
Sn2LaTl,0.0,-0.0473846,,3,3.0
P2CaZr,0.0,-0.0167372,,3,3.0
Ru2Sm3Au,0.0,-0.0459132,,3,3.0
Zn3TmPt2,0.0,-0.039627,,3,3.0
Be2Cu2Ag,0.0,-0.0141579,,3,3.0
BCCoLu,0.0,-0.0230565,,3,3.0
N6Mn2Dy3,0.0,-0.0226912999999999,,3,3.0
LiO8Mn4,0.0,-0.0118152,,3,3.0
SeYSn,0.0,-0.0293333,,3,3.0
NaSi2Th2,0.0,-0.0436428,,3,3.0
OMgBa3,0.0,-0.0270638,,3,3.0
AlAuAc2,0.0,-0.0650085,,3,3.0
O2RbSm,4.1507,-0.0223069999999999,,3,3.0
AlPrPt2,0.0,-0.0491657999999999,,3,3.0
GeDy2Ir3,0.0,-0.0556918999999999,,3,3.0
PdBa2Au,0.0,-0.0459326,,3,3.0
FeGe2Pr,0.0,-0.0254644,,3,3.0
Mg2SeAg,0.0,-0.0159031,,3,3.0
ScIn2Sm,0.0,-0.0319548,,3,3.0
NiPt8,0.0,-0.0642165,,3,3.0
ZnRh2Cd2,0.0,-0.0285631999999999,,3,3.0
Co4CdTb,0.0,-0.0244315,,3,3.0
Br6YCs2Hg,0.0,-0.0305148,,3,3.0
Li2F8SrTm,0.0,-0.0124591999999999,,3,3.0
Mn2Ni3As,0.0,-0.0179334,,3,3.0
Fe2Ge2Sr,0.0,-0.0195687,,3,3.0
In2CePt,0.0,-0.0462342,,3,3.0
AlNi2Cu3,0.0,-0.0145162,,3,3.0
BAl2SrOs2,0.0,-0.031977,,3,3.0
Mn2Ga5Ho,0.0,-0.0213327,,3,3.0
O4TbEr,1.6269,-0.0234484,,3,3.0
ZnGaPt,0.0,-0.0339487,,3,3.0
SeIU,0.0,-0.0543622999999999,,3,3.0
Al2CaGa2,0.0,-0.0119788999999999,,3,3.0
NCoCs,0.0,-0.0214696,,3,3.0
FeSe2CsAu,0.486,-0.0337548,,3,3.0
Ge2SrIr3,0.0,-0.0462481,,3,3.0
LiCaI3,3.6121,-0.0259966,,3,3.0
Cu2Sm3Tl3,0.0,-0.0479977,,3,3.0
SrCd,0.0,-0.0267456,,3,3.0
Cl7SeNb3,1.0026,-0.0173834,,3,3.0
O4GeSr2,3.4233,-0.0153309,,3,3.0
O3RhNd,1.3257,-0.021601,,3,3.0
Sc3Tl,0.0,-0.0291375,,3,3.0
Be2TaW,0.0,-0.0364195,,3,3.0
Al5ScPd,0.0,-0.0128489,,3,3.0
NPdLu3,0.0,-0.0428840999999999,,3,3.0
NFIn2Tb6,0.0,-0.0372873,,3,3.0
Fe3Rh5,0.0,-0.0280191,,3,3.0
FeNi2Re,0.0,-0.0304028,,3,3.0
SbAu2Tl,0.0,-0.0620734,,3,3.0
ITbPt,0.9156,-0.052617,,3,3.0
Se2CsIr,1.4349,-0.0379659,,3,3.0
O4K3Pt2,0.1134,-0.0223841,,3,3.0
LiCaCo2As2,0.0,-0.0150913,,3,3.0
Cl6ZrCs2,4.1208,-0.0193866,,3,3.0