formula,bg,formation_energy,mp-id,fidelity,bg_category
Li2KTl2,0.0,-0.0317888,,3,3.0
Be2BO3F2Cs,6.6865,-0.0119152,,3,3.0
BAs2Rb3,1.8235,-0.0188021,,3,3.0
AuTl,0.0,-0.0708099,,3,3.0
K2As2Sn,1.2999,-0.0190864,,3,3.0
F7NaPr2,7.1156,-0.0155795,,3,3.0
Al2ZnZr,0.0,-0.0154589,,3,3.0
Al2ZrIr,0.0,-0.0303228,,3,3.0
S6Ti3Co,0.0,-0.0136769,,3,3.0
Mg4CaBa,0.0,-0.0116023999999999,,3,3.0
RhIn2Sm,0.0,-0.0369887999999999,,3,3.0
H3RuNp,0.0,-0.0305389,,3,3.0
HCl2Zr2,0.0,-0.0174792,,3,3.0
AlMnCe,0.0,-0.0238315,,3,3.0
N5Al3Ca3,3.1461,-0.0104157,,3,3.0
AlGaNb6,0.0,-0.0281098,,3,3.0
CdSn2Ho2,0.0,-0.040701,,3,3.0
O4PaNp,0.0,-0.0422375,,3,3.0
CSi2Os2U2,0.0,-0.0547008,,3,3.0
SMnBr,0.0,-0.0167003999999999,,3,3.0
BeTaIr2,0.0,-0.0540644,,3,3.0
InTb2Au2,0.0,-0.0540859,,3,3.0
LaPt,0.0,-0.058034,,3,3.0
Cu2GeTe4,0.0,-0.0283852,,3,3.0
NaK2Cd2,0.0,-0.0163831999999999,,3,3.0
HCl2K,6.106,-0.0082805,,3,3.0
Al7Tb,0.0,-0.0127654,,3,3.0
LiCaAs2Ir2,0.0,-0.0331768,,3,3.0
MgAl2Ce2,0.0,-0.0221361,,3,3.0
BO3Co,1.5467,-0.0106915,,3,3.0
Sc4Tc3,0.0,-0.0233482,,3,3.0
Zn6Sn3Pr2,0.0,-0.0254521,,3,3.0
Li2NaCa,0.0,-0.0045781,,3,3.0
Li2CaSn2,0.0,-0.0177581,,3,3.0
Ag2DyTm,0.0,-0.0409848,,3,3.0
CuSm2Os,0.0,-0.0442233999999999,,3,3.0
CuDy,0.0,-0.0318131,,3,3.0
CaCu2Eu,0.0,-0.0234743,,3,3.0
GaGeNd,0.0,-0.0271534,,3,3.0
Al2Cu2Ag,0.0,-0.0156165,,3,3.0
PdTmHg,0.0,-0.0517548,,3,3.0
KEuBi,0.1765,-0.0475827,,3,3.0
ScY,0.0,-0.0210185,,3,3.0
NaFeGa3,0.0,-0.0144366,,3,3.0
Ga2In2Au,0.0,-0.0337752,,3,3.0
FeAgLa3,0.0,-0.0357254999999999,,3,3.0
AlIn5,0.0,-0.0290364,,3,3.0
CuNbSn2,0.0,-0.0300956,,3,3.0
Ag5Pt3,0.0,-0.0459453,,3,3.0
Li2NiRu,0.0,-0.0139017,,3,3.0
S4BrInSb2,1.217,-0.0211693,,3,3.0
Cd3LaAu2,0.0,-0.0459869,,3,3.0
Ni3Hf2,0.0,-0.0352578,,3,3.0
Se2Br2Dy,1.4819,-0.0267941,,3,3.0
CdPbPu,0.0,-0.0721521,,3,3.0
Pt2Tl3,0.0,-0.0714919,,3,3.0
MnYSb2,0.0,-0.0308929,,3,3.0
BeMgAu2,0.0,-0.0374266,,3,3.0
Cl4CuCs2,1.1755,-0.0191137,,3,3.0
O7Cr2Ho2,1.1599,-0.0191921,,3,3.0
SiNd2Ir3,0.0,-0.0527044,,3,3.0
SMnSb,0.0,-0.0220687,,3,3.0
Co2Zr2Ag,0.0,-0.0256478,,3,3.0
Cl4Cs2Sm,0.0,-0.0238893999999999,,3,3.0
H3RhCd,0.0,-0.01498,,3,3.0
C4FeDy3,0.0,-0.0255195,,3,3.0
ZnHg3,0.0,-0.0544274,,3,3.0
InLa2,0.0,-0.0403778999999999,,3,3.0
F8Na2BaCe,3.0682,-0.0137364,,3,3.0
OF5ZrInCs2,3.666,-0.0194482,,3,3.0
Li2NiCd,0.0,-0.0129122,,3,3.0
LiNLa3,0.0,-0.0287853,,3,3.0
BYRu2In2,0.0,-0.0290212,,3,3.0
SiNi3Er4,0.0,-0.0330673,,3,3.0
O2FeZn,0.0,-0.0124003,,3,3.0
AlZnPu,0.0,-0.0439588,,3,3.0
S3SnPb2,0.1555,-0.036548,,3,3.0
Al2Pu,0.0,-0.0421041,,3,3.0
BeNi2Ga,0.0,-0.0136904,,3,3.0
Y6RuTl2,0.0,-0.0389963,,3,3.0
Li4O2F2Co,0.768,-0.0074021,,3,3.0
Ca3Ni2Zn2Sb4,0.0,-0.0221664,,3,3.0
Li2GeTh,0.0,-0.0302913,,3,3.0
Cu2SnSm,0.0,-0.0281603,,3,3.0
ClScBr,0.0,-0.0157702,,3,3.0
Ni2Pr2Hg,0.0,-0.0378258999999999,,3,3.0
TiZrW4,0.0,-0.0543181,,3,3.0
O3VFeAsSr2,0.0,-0.0170727,,3,3.0
MoTaW2,0.0,-0.0603365,,3,3.0
PSbHo2,0.0,-0.0378622,,3,3.0
HOIPb,3.1961,-0.0315258,,3,3.0
CuGaPr2,0.0,-0.0299209,,3,3.0
P4Zn,0.0,-0.0111448,,3,3.0
Be2As2Ba,0.2518,-0.0184614,,3,3.0
Na2S4HgPb,1.1206,-0.0244569,,3,3.0
O3AsY,4.5243,-0.0159741,,3,3.0
BeMnOs2,0.0,-0.0418261,,3,3.0
PSrRh3,0.0,-0.0273635,,3,3.0
O6AsSr2Gd,4.0317,-0.0189097,,3,3.0
LiS2Sm,2.0729,-0.0185834,,3,3.0
O4Cu2SrTe2Bi2,0.0,-0.0292005,,3,3.0
PNi5Hf,0.0,-0.0225094999999999,,3,3.0
O6Sr2InBi,0.1929,-0.0213941,,3,3.0
O3SK2,5.3704,-0.0094279,,3,3.0
OCuZr3,0.0,-0.0240236,,3,3.0
Cu3Pt2Pu,0.0,-0.049676,,3,3.0
Si3EuPt,0.0,-0.0316232,,3,3.0
LiRuTb2,0.0,-0.0330144999999999,,3,3.0
BeMnOs,0.0,-0.0317,,3,3.0
MnSe3Rb2,0.0913,-0.0210536999999999,,3,3.0
Co6As4Th,0.0,-0.0258697,,3,3.0
S4TiZr,0.4308,-0.0157985,,3,3.0
YPb2Pu,0.0,-0.0727477,,3,3.0
Zn2RhEr,0.0,-0.0284169,,3,3.0
MgSrTe2,2.1123,-0.0268343999999999,,3,3.0
NaCl6Cs2La,5.7332,-0.0194863,,3,3.0
Mg2CuY2,0.0,-0.0162999,,3,3.0
Ni3Pr,0.0,-0.023178,,3,3.0
Ru2AgHo3,0.0,-0.0418541,,3,3.0
Pd5Tb,0.0,-0.0357272,,3,3.0
ScGa2Hf2,0.0,-0.0349874,,3,3.0
GaRu2Th,0.0,-0.045877,,3,3.0
O7Rb2PrTa2,0.0,-0.0247323,,3,3.0
Sc2Tl3,0.0,-0.049418,,3,3.0
Al2MnBr8,3.0362,-0.0184415,,3,3.0
H3NdAu,0.0,-0.0251589999999999,,3,3.0
Mn2Ga3Ce,0.0,-0.0221666999999999,,3,3.0
O4MnMo,0.3119,-0.0151904,,3,3.0
Li2ZnAu,0.0,-0.0223977,,3,3.0
N2SrU,0.0,-0.0373625,,3,3.0
O5Cs2Bi2,0.0,-0.030491,,3,3.0
MgAgPr,0.0,-0.0268874,,3,3.0
Ga2AgHo,0.0,-0.0288143,,3,3.0
O4AsEr,4.3443,-0.0185533,,3,3.0
S2CuZn,0.0,-0.0125371,,3,3.0
Pt7Au,0.0,-0.0699916999999999,,3,3.0
Mg3Pd2Sm,0.0,-0.02144,,3,3.0
OSCdBa,2.336,-0.0232988,,3,3.0
Cl3NiTl,1.9185,-0.0235765,,3,3.0
O7Ge2EuLu,0.3081,-0.0200009,,3,3.0
GaRuNp,0.0,-0.0528533,,3,3.0
SiMoTb,0.0,-0.0310701,,3,3.0
Cd2InDy2,0.0,-0.0384235,,3,3.0
NClBa6Tl2,0.0,-0.040765,,3,3.0
H3PrAu,0.0,-0.0251017,,3,3.0
PdTb2Ir,0.0,-0.050371,,3,3.0
I6Cs2Pt,0.7161,-0.0416315,,3,3.0
Cd3CeAu2,0.0,-0.0461313,,3,3.0
BeSe,3.0673,-0.0131589,,3,3.0
F3Sb,4.8106,-0.0143767999999999,,3,3.0
GdTmAu2,0.0,-0.0632883,,3,3.0
MgAl3Ge2Y3,0.0,-0.0172638,,3,3.0
Ca2Zn3,0.0,-0.0123041,,3,3.0
BNi2Dy,0.0,-0.0224282,,3,3.0
O6CuBa2Os,0.0,-0.0222496,,3,3.0
MoTc2Ir,0.0,-0.0442035,,3,3.0
P2KCa,0.0,-0.0105107,,3,3.0
RhTlTh,0.0,-0.0680247,,3,3.0
Be3Cr,0.0,-0.0079919,,3,3.0
Cl6CuCs2Pt,0.0,-0.0221416,,3,3.0
KTe2Pa,0.0,-0.0465888,,3,3.0
Ni2Y2Cd,0.0,-0.0241366,,3,3.0
AsPdHo,0.0,-0.035287,,3,3.0
Al3Ge2Zr3Os,0.0,-0.0258114999999999,,3,3.0
K2As3,0.5982,-0.015964,,3,3.0
AuPb4,0.0,-0.0745183,,3,3.0
LiSe8Mo6,0.0,-0.0254624,,3,3.0
S3PdBaSm,0.0,-0.0260849,,3,3.0
As2Cd2Ba,0.5616,-0.0288901,,3,3.0
Ge3NbNd,0.0,-0.0274167,,3,3.0
FeSr2Ir2,0.0,-0.0412385,,3,3.0
CoTe2Tm6,0.0,-0.0454425,,3,3.0
Be4CrRu,0.0,-0.01216,,3,3.0
Cr3Mo4,0.0,-0.0277182999999999,,3,3.0
KCd2Tl,0.0,-0.0354403,,3,3.0
S4Ag2SnHo,0.0,-0.0241337,,3,3.0
MoPt2Au,0.0,-0.0613843,,3,3.0
Se2CsGd,1.863,-0.0361366,,3,3.0
F5PdCs3,2.9012,-0.0206783,,3,3.0
SrCd2Pb2,0.0,-0.0473106,,3,3.0
H5CoSr2,0.4047,-0.0104321,,3,3.0
CaAg2Cd3,0.0,-0.0274996,,3,3.0
SmPb2,0.0,-0.0659679,,3,3.0
N2ZrBa,1.3507,-0.0237563,,3,3.0
AlMnZrRu,0.0,-0.0234612,,3,3.0
Sr5Rh,0.0,-0.0242326,,3,3.0
Si2CeIr3,0.0,-0.0474054,,3,3.0
Al2Ga2Hg,0.0,-0.0231684,,3,3.0
Ni2Tm3Tl3,0.0,-0.0510756999999999,,3,3.0
FeSnHf,0.0,-0.0390916,,3,3.0
LiO8TbW2,4.1802,-0.0225622,,3,3.0
NiGe2Pa,0.0,-0.0390395,,3,3.0
GeHoIr,0.0,-0.0475248,,3,3.0
PCaNi,0.0,-0.013076,,3,3.0
O3NbBa,0.0,-0.0212881,,3,3.0
KCuTe3Ta,0.0,-0.03411,,3,3.0
MgAl3Ca,0.0,-0.0077694999999999,,3,3.0
O4Ba2Pt,0.0,-0.0269046999999999,,3,3.0
MgTe2Tl,0.0,-0.0384729,,3,3.0
MoRhIr,0.0,-0.0468337999999999,,3,3.0
Mg2Ga2Lu,0.0,-0.0199644,,3,3.0
CaAsCs,1.9027,-0.0235698,,3,3.0
Li5O8Si2Fe,2.1359,-0.0087847,,3,3.0
Cu2Se4SnBa,0.7123,-0.0240872,,3,3.0
VRhSb,0.0,-0.0300005,,3,3.0
Zn7Ga3,0.0,-0.0143102,,3,3.0
Ga2Ir3Np,0.0,-0.0592419999999999,,3,3.0
Zn2SrPd2,0.0,-0.0235286,,3,3.0
O8Ni3Zn2,1.1018,-0.0108522999999999,,3,3.0
NaP2Ru2,0.0,-0.0196285,,3,3.0
S2KGa,3.2579,-0.0121484,,3,3.0
CoSe2Nb,0.0,-0.0232289,,3,3.0
Al2ZnEr,0.0,-0.0202463,,3,3.0
Ga2Br8Ru,1.8211,-0.0209764,,3,3.0
LiSe2Er,1.8378,-0.0251247,,3,3.0
O3Rb2Cd2,1.0027,-0.0185412,,3,3.0
NiTa2Os,0.0,-0.0556187,,3,3.0
AlNi2Tm,0.0,-0.0236335,,3,3.0
Al3Tb2Ir,0.0,-0.0321884,,3,3.0
O6NiSr2Pt,0.1757,-0.018593,,3,3.0
Be2Si2Pr,0.0,-0.0147666,,3,3.0
MgK4As2,0.7341,-0.0117631,,3,3.0
Ge2HoOs,0.0,-0.0403356,,3,3.0
FeCo4Tb,0.0,-0.0223682,,3,3.0
Cu2GaEr,0.0,-0.0247362,,3,3.0
MgCu2Tm2,0.0,-0.0281125,,3,3.0
MnSbPt5,0.0,-0.0585754,,3,3.0
NaS3FeZr,0.0,-0.0150122,,3,3.0
Li2F8ZrTb,1.348,-0.0129787,,3,3.0
O6MgEu2Pt,0.0,-0.0243726999999999,,3,3.0
CuPd2Tb2,0.0,-0.0356011,,3,3.0
Mg2MnNi2,0.0,-0.0122928,,3,3.0
RuSm2,0.0,-0.0415559999999999,,3,3.0
CaInPt2,0.0,-0.0466762,,3,3.0
Si2RhLu,0.0,-0.0282631,,3,3.0
Rh2Sn2Nd,0.0,-0.0374002,,3,3.0
O6Sr2CdIr,0.4897,-0.0202596,,3,3.0
Al3RhSn2Gd3,0.0,-0.0347441999999999,,3,3.0
S4FeCu3Tl2,0.0,-0.0250646,,3,3.0
NBa3Bi,0.8429,-0.0422445,,3,3.0
MgP2Rb4,0.717,-0.0159559,,3,3.0
Al2AgTa,0.0,-0.0285593,,3,3.0
S4V2Ni,0.0,-0.0137181,,3,3.0
Al5Ca,0.0,-0.0081827,,3,3.0
O6ScCrSr2,0.0,-0.0144728999999999,,3,3.0
S4MoW,1.0891,-0.0247333,,3,3.0
AlSe2Au,2.7571,-0.0298964,,3,3.0
S2NiPd2,0.0,-0.020471,,3,3.0
Tb2Au2Hg,0.0,-0.0609658999999999,,3,3.0
Pd2Pb2Bi,0.0,-0.0592595,,3,3.0
SGd,0.0,-0.0364181,,3,3.0
AlK2Au,0.0,-0.0236820999999999,,3,3.0
SrAc3,0.0,-0.0733347,,3,3.0
Co2Er3Hg,0.0,-0.0427178,,3,3.0
O3AlLu,6.8102,-0.0201063,,3,3.0
GeCdCs2,0.2809,-0.0314832,,3,3.0
FeSn4,0.0,-0.0321978,,3,3.0
B2O6K2Ba,0.8906,-0.0121302,,3,3.0
Pd2Ag3La,0.0,-0.0342277,,3,3.0
O4TiFe2,0.0,-0.0131469,,3,3.0
KSe2Bi,1.2872,-0.0326071,,3,3.0
O6LaBi2,0.0,-0.0280246,,3,3.0
ClInHg2,0.0,-0.0448162,,3,3.0
Fe2Ta,0.0,-0.0344144,,3,3.0
O6SrBaHf2,4.4162,-0.0261391999999999,,3,3.0
SrIn2Pt3,0.0,-0.0506873999999999,,3,3.0
NF6KCs2,3.3968,-0.0131519999999999,,3,3.0
LiKAu4,0.0,-0.0482591,,3,3.0
O6CoCdPr2,0.8227,-0.0196093,,3,3.0
MgCo2Zn,0.0,-0.0132538999999999,,3,3.0
CoPd2Sn4,0.0,-0.0325779,,3,3.0
S3Cs2Np,0.0267,-0.0367228,,3,3.0
TiU2,0.0,-0.0744942,,3,3.0
P2Cu2Sr,0.0,-0.0153073999999999,,3,3.0
Te2CsPt,0.0,-0.0463333,,3,3.0
AlNi2Cu2,0.0,-0.0143688,,3,3.0
LiP2Co2Ba,0.0,-0.0168687,,3,3.0
Si4Pd4Tb3,0.0,-0.0293362,,3,3.0
AsDyIr,0.0,-0.0475142,,3,3.0
F2S2Hg3,2.2778,-0.0337868,,3,3.0
CSnTm3,0.0,-0.0410058,,3,3.0
PdPr,0.0,-0.0389263,,3,3.0
LiLaPt4,0.0,-0.0553978,,3,3.0
S4Sm2Tm,0.0,-0.0278577,,3,3.0
B2Fe2Dy,0.0,-0.020181,,3,3.0
RhBa3Hg,0.0,-0.0443662,,3,3.0
Ni2Ge4Ag,0.0,-0.0201641,,3,3.0
O6TeBa3,3.9439,-0.021794,,3,3.0
O6CaLa2Pb,2.9953,-0.0237054,,3,3.0
MnTb6Pb2,0.0,-0.0505042,,3,3.0
Mn7As,0.0,-0.0186147999999999,,3,3.0
As2InAu,0.0,-0.0359252,,3,3.0
Ca2SbAu,0.4259,-0.0324626,,3,3.0
InSm3,0.0,-0.0420767,,3,3.0
H4O2CuI2,0.0,-0.0134312,,3,3.0
Sb2Tl2Bi,0.0,-0.0594747,,3,3.0
MoPd3,0.0,-0.0333579,,3,3.0
MnCu2Pd,0.0,-0.0206358,,3,3.0
Rb2TcI6,0.8468,-0.0338583,,3,3.0
SiCoEu,0.0,-0.0275155,,3,3.0
H3NiU,0.0,-0.026163,,3,3.0
P3Zn3Nd,0.1189,-0.0171626,,3,3.0
BO3V,0.3554,-0.0113975,,3,3.0
O3MnZn,2.005,-0.0120442,,3,3.0
CaCu2Ga5,0.0,-0.0155465,,3,3.0
FeRuEr,0.0,-0.034773,,3,3.0
GaHf2,0.0,-0.0477031,,3,3.0
Al3Ge2AuPu3,0.0,-0.0516582,,3,3.0
Hf2RePt,0.0,-0.0675475,,3,3.0
KCuZn2,0.0,-0.0126793,,3,3.0
Sb2NdPt2,0.0,-0.0526858,,3,3.0
Sc6Sn2Ir,0.0,-0.0261462,,3,3.0
MgSn2Nd2,0.0,-0.0335882,,3,3.0
PRhBa,0.0,-0.0289923,,3,3.0
AlSiCu4,0.0,-0.013211,,3,3.0
CSi2Mo2La,0.0,-0.0243187999999999,,3,3.0
Si2Ca2Pb,0.0,-0.0234671999999999,,3,3.0
B2O6YBa,0.0,-0.0149363,,3,3.0
Mg3Cu2Nd,0.0,-0.0149482,,3,3.0
Al5RuCe,0.0,-0.0174155,,3,3.0
CoYSn3,0.0,-0.0309622,,3,3.0
Si2Ag2La,0.0,-0.0256734,,3,3.0
Zn2PrPt,0.0,-0.0359318,,3,3.0
Ga3Ge2RhEr3,0.0,-0.0311541,,3,3.0
Pd2InPt,0.0,-0.0426483,,3,3.0
S3Rb2Zr,2.0136,-0.0185666,,3,3.0
SBr2Tm2,0.0,-0.0324468,,3,3.0
Be2NbTa2,0.0,-0.0351308,,3,3.0
H4C4O10KCr,3.1926,-0.0085846,,3,3.0
Li2CoGe,0.0,-0.0104565,,3,3.0
O3MgTi,3.975,-0.0111974,,3,3.0
SiAgPr,0.0,-0.0288282999999999,,3,3.0
O7P2Cd2,3.5739,-0.013545,,3,3.0
Se3Mo3Tl,0.0,-0.0344283,,3,3.0
H2Ga2Th,0.0,-0.0275212,,3,3.0
RuTe2Nd6,0.0,-0.0420242,,3,3.0
CuTmPb,0.0,-0.0481942999999999,,3,3.0
LiO2In,2.4641,-0.0139911999999999,,3,3.0
RuInNd,0.0,-0.0376648,,3,3.0
P2NiRb2,0.7079,-0.0162331,,3,3.0
BeCo2Ta,0.0,-0.026666,,3,3.0
ClPdNd,0.9759,-0.0296717,,3,3.0
CdAuBi,0.0,-0.0595263,,3,3.0
LiZnSnIr,0.0,-0.0311468,,3,3.0
O4ZrTb,0.0,-0.0204407,,3,3.0
Si2Ti2Ni,0.0,-0.0144667999999999,,3,3.0
Cd2Ba,0.0,-0.0338594999999999,,3,3.0
AlPd5,0.0,-0.0290840999999999,,3,3.0
Li4O12Co5Sn,0.0,-0.0111268,,3,3.0
Si2MnTb,0.0,-0.0218856,,3,3.0
NaSe2Ta,0.6992,-0.028768,,3,3.0
Mg2RhPt,0.0,-0.029308,,3,3.0
SiFe2W,0.0,-0.0291274,,3,3.0
RbIn2Pt2,0.0,-0.0459975,,3,3.0
CuZn2Tb2,0.0,-0.027476,,3,3.0
SrPd4Hg,0.0,-0.0373658,,3,3.0
Rh2PtAu,0.0,-0.0516751,,3,3.0
BeFe2Zn,0.0,-0.013663,,3,3.0
GeErOs,0.0,-0.0478119,,3,3.0
CY2Te,0.0,-0.0268212,,3,3.0
ScMo2Os,0.0,-0.0391325,,3,3.0
ClFe2Ho2,0.0,-0.0291861,,3,3.0
S4K2Ni3,1.0495,-0.0123892,,3,3.0
NaP2Os2,0.0,-0.034157,,3,3.0
O6NaSi2In,4.3427,-0.0121446,,3,3.0
Rh2BaTl,0.0,-0.0450653,,3,3.0
Al3PdCe2,0.0,-0.0249304,,3,3.0
C2N2S2Ca,3.7335,-0.0101955,,3,3.0
F2RbAg,3.0618,-0.0167056,,3,3.0
ScCr4Ta,0.0,-0.0257105,,3,3.0
CuTb3Ir2,0.0,-0.0503647,,3,3.0
CoGe2Sn3Tb3,0.0,-0.0343478,,3,3.0
O4SeSr,4.1914,-0.0130978999999999,,3,3.0
Cl4Br2RhCs2,0.0,-0.0213597999999999,,3,3.0
Mg7Zn,0.0,-0.006033,,3,3.0
NaCu2Sb2Gd,0.0,-0.0285624,,3,3.0
Co5Lu,0.0,-0.0237485999999999,,3,3.0
O6Ca2TiSb,0.0,-0.0137755,,3,3.0
NClCe,1.5585,-0.0227663,,3,3.0
ScCd2Tb,0.0,-0.0308817999999999,,3,3.0
AsAu3Pb2,0.0,-0.0632581,,3,3.0
F7CsEu2,0.0,-0.0206138,,3,3.0
H12O6CaBr2,4.7221,-0.0073179,,3,3.0
Al3MnTm2,0.0,-0.0247393,,3,3.0
NaCuSe3Lu,0.0,-0.0237397,,3,3.0
CBrCe2,0.0,-0.0306531,,3,3.0
Zr8Cd,0.0,-0.0306854,,3,3.0
NaGa2In2,0.0,-0.0208731,,3,3.0
O6Fe2BaLa,0.0,-0.0181125,,3,3.0
LiCaAs2Ru2,0.0,-0.0210194,,3,3.0
GaZrPt,0.0,-0.0403117,,3,3.0
Ni2CuSb,0.0,-0.0212677,,3,3.0
K2Pd2Tl,0.0,-0.0310207,,3,3.0
OAsRhTm,0.0,-0.0301984,,3,3.0
Sn2Ho2Pb,0.0,-0.0497306,,3,3.0
ScRh2Cd,0.0,-0.0287446,,3,3.0
CaNiIn5,0.0,-0.0278535,,3,3.0
Ru2La3Au,0.0,-0.0451400999999999,,3,3.0
B6CaFe2,0.0,-0.0104245,,3,3.0
TiNbTa2,0.0,-0.0455326999999999,,3,3.0
TeCsHg,0.5215,-0.0485093,,3,3.0
Al3Nb2Ir,0.0,-0.0275481,,3,3.0
LiCu2Se2,0.0,-0.0151122999999999,,3,3.0
NCdHf3,0.0,-0.0464436,,3,3.0
SrDyHg2,0.0,-0.0522432,,3,3.0
F6RhSm,2.7385,-0.0154553,,3,3.0
S4TeLu,0.0,-0.0226457,,3,3.0
SiZn2Ir,0.0,-0.0275172,,3,3.0
F7CsBi2,5.0072,-0.0244873,,3,3.0
RhSn2Nd,0.0,-0.0381400999999999,,3,3.0
O2NiAg2,0.0,-0.0189324,,3,3.0
Cl2ZrTe,0.8923,-0.0224847,,3,3.0
P2Ti6Co,0.0,-0.0157765,,3,3.0
S3CuSrHo,1.4617,-0.0211511,,3,3.0
F6Rb3Nb,0.8031,-0.0146115,,3,3.0
O2PdAg,0.2657,-0.0196282,,3,3.0
CaNiSe,0.0,-0.0163572999999999,,3,3.0
Ga2PrAu2,0.0,-0.0437329999999999,,3,3.0
SiPtPu,0.0,-0.0641928,,3,3.0
Te5Tm,0.0,-0.0402566,,3,3.0
Tc,0.0,-0.0350587,,3,3.0
NCr2Pt,0.0,-0.0295759,,3,3.0
KGa,0.0,-0.0124438999999999,,3,3.0
YLa2Pt2,0.0,-0.0520498,,3,3.0
TaOs2Ir,0.0,-0.0707885,,3,3.0
CrY6Sb2,0.0,-0.029518,,3,3.0
Sb2Dy6W,0.0,-0.0484137,,3,3.0
CdTb3Os2,0.0,-0.0527718,,3,3.0
AlInPt,0.0,-0.0379122,,3,3.0
O6RhBa2Lu,0.0,-0.023201,,3,3.0
F4Zr,6.1973,-0.0129246999999999,,3,3.0
N3NiEr,0.15,-0.0195087,,3,3.0
Se2I2Tb,1.4083,-0.0332181,,3,3.0
Sm3Dy,0.0,-0.0452678,,3,3.0
CaSbGd,0.0,-0.0362165,,3,3.0
In2ErAc,0.0,-0.0524260999999999,,3,3.0
LuPt4Hg,0.0,-0.0681897,,3,3.0
B2O6SrSn,4.4983,-0.0136737,,3,3.0
CuInNd,0.0,-0.0312174,,3,3.0
GaZrPt2,0.0,-0.0478872,,3,3.0
Rh5La,0.0,-0.0356683999999999,,3,3.0
NiCuSe4,0.0,-0.018754,,3,3.0
Ge2ZrHf2,0.0,-0.039645,,3,3.0
AlSiTb,0.0,-0.0221723,,3,3.0
SiCo2Dy2,0.0,-0.0284807999999999,,3,3.0
SiMnNi,0.0,-0.0154392,,3,3.0
OClIn,3.0345,-0.017438,,3,3.0
O6Nb2Tm,0.0,-0.0203183,,3,3.0
HFNa2,4.227,-0.0053571,,3,3.0
Ni2PdTa2,0.0,-0.0399615,,3,3.0
NiRh2Hf,0.0,-0.037351,,3,3.0
O6Sr2YRh,0.0,-0.0169162,,3,3.0
CuAsBa,0.0,-0.0258155,,3,3.0
Ni2W,0.0,-0.0340556,,3,3.0
Se2AgGd,1.1701,-0.0339299,,3,3.0
O6MgCa2Ru,0.0,-0.0120325,,3,3.0
Ga2In2Ba,0.0,-0.0282804,,3,3.0
LiPY,0.0,-0.0147003,,3,3.0
Ga4Ge2Lu3,0.0,-0.0305694,,3,3.0
O2AlIn,0.5494,-0.0158149,,3,3.0
Li3O6Cu2Bi,0.9834,-0.0141129999999999,,3,3.0
NiNb2,0.0,-0.0276662,,3,3.0
LiP2S7Cr,1.8313,-0.0105536,,3,3.0
Rh2Ho,0.0,-0.0397055,,3,3.0
Ni5Er,0.0,-0.0221987,,3,3.0
Li2SiAu,0.0,-0.0215575,,3,3.0
Ge3PdSm,0.0,-0.0275758,,3,3.0
MgS2Hg,1.6257,-0.0239865,,3,3.0
CoSeTe,0.0,-0.0251071,,3,3.0
Li3BS3,3.3773,-0.0074011,,3,3.0
Sr2Sb2Pb,0.0,-0.0397092999999999,,3,3.0
RuRh2Ho3,0.0,-0.0424294999999999,,3,3.0
Ag5Dy,0.0,-0.034275,,3,3.0
Ga2CeOs,0.0,-0.037862,,3,3.0
Sc3Co2Zn,0.0,-0.0155531,,3,3.0
S2Ce,0.0019,-0.0232524,,3,3.0
O6Mg2CuW,0.9438,-0.0154818,,3,3.0
MnGa2U,0.0,-0.0388782,,3,3.0
OAgBa3,0.0,-0.0323663,,3,3.0
Cl8CuGa2,1.4291,-0.0112217,,3,3.0
MgAl2Pr3,0.0,-0.0253592,,3,3.0
F8EuLu2,1.4565,-0.0218873999999999,,3,3.0
Zr3Cd4,0.0,-0.0307115,,3,3.0
Mg3Ag2Pr,0.0,-0.0204426999999999,,3,3.0
O2K2Zn,2.5908,-0.0100177999999999,,3,3.0
O6PrBi2,0.0,-0.0280047,,3,3.0
Li2HgTl,0.0,-0.0367112,,3,3.0
Ga2CdHo2,0.0,-0.032881,,3,3.0
NInSm3,0.0,-0.0363255,,3,3.0
LiY2La,0.0,-0.0252357,,3,3.0
S3As2,1.7245,-0.0140162,,3,3.0
Zr2CdOs,0.0,-0.0413742,,3,3.0
O8SiGa4,3.2604,-0.0118621,,3,3.0
Mn2DyU,0.0,-0.0469223,,3,3.0
SnIHg3,0.0,-0.0555112,,3,3.0
C4MnY2,0.0,-0.0167042,,3,3.0
Te2IrHg,0.0,-0.05368,,3,3.0
Mg3Al3CuGe2,0.0,-0.0103828,,3,3.0
AlCo2Pr,0.0,-0.0216184,,3,3.0
Li2RhTl,0.0,-0.0280051999999999,,3,3.0
AlEuIr,0.0,-0.0449444,,3,3.0
Al3Sc4,0.0,-0.0117902,,3,3.0
CdCeTl2,0.0,-0.0552235,,3,3.0
Sc3In5,0.0,-0.026708,,3,3.0
Rb2Pd2Hg,0.0,-0.0351068,,3,3.0
O8P2BaTh,5.8683,-0.0204078,,3,3.0
YSbLa,0.0,-0.0370187,,3,3.0
CaPd2Au3,0.0,-0.047652,,3,3.0
ScCu,0.0,-0.015069,,3,3.0
ZnCd2Er,0.0,-0.0315152,,3,3.0
Si3Zn6La2,0.0,-0.0184061999999999,,3,3.0
Te3TbBi,0.9989,-0.0482501,,3,3.0
O8NaK3Se2,4.2469,-0.0100805,,3,3.0
OSbI,1.5006,-0.0275764,,3,3.0
Al3ZnBa,0.0,-0.015516,,3,3.0
AlCu4Er,0.0,-0.0201695,,3,3.0
ZnSbPt,0.0,-0.0408796,,3,3.0
In6Ir,0.0,-0.0388103,,3,3.0
Ni3Cu4,0.0,-0.0155776,,3,3.0
Cl6CaBa2,5.5601,-0.0178366,,3,3.0
O4NaMnRb2,1.9777,-0.0130609,,3,3.0
AgCd2Pb,0.0,-0.0419611,,3,3.0
As2Te4Pb,0.2811,-0.0379532999999999,,3,3.0
CN2ClY,3.7544,-0.0143056,,3,3.0
O3Na2Th,3.3838,-0.0233475,,3,3.0
EuAu3,0.0,-0.0659342,,3,3.0
CoRu2Er3,0.0,-0.0401054,,3,3.0
OKBa2,0.0,-0.0247627999999999,,3,3.0
MoTa2W,0.0,-0.0595969,,3,3.0
PCoPu,0.0,-0.0466323,,3,3.0
O4Cu2Sb2Te2Pr,0.0,-0.023916,,3,3.0
O6TiFeTb2,1.0546,-0.0197001999999999,,3,3.0
Al5Ni2Eu,0.0,-0.0161918,,3,3.0
B2O6PtPb,2.3278,-0.0215897,,3,3.0
TiAgPt2,0.0,-0.0476773,,3,3.0
VZrMo,0.0,-0.027814,,3,3.0
ClCuSeTe,1.0007,-0.0204742,,3,3.0
ZnAs2Sr2,0.8259,-0.0207807,,3,3.0
Mg2CePm,0.0,-0.0246465,,3,3.0
Ga3Nd2,0.0,-0.0279433,,3,3.0
Mg2P2Ho,0.0,-0.0169883999999999,,3,3.0
Co2NiPr2,0.0,-0.0274618,,3,3.0
Li3O8Ni3Te,0.0,-0.0110975999999999,,3,3.0
Al2ZnDy,0.0,-0.0196201,,3,3.0
InNdHg2,0.0,-0.0538713,,3,3.0
GeAs3,0.0,-0.0198839,,3,3.0
Zn2RbSb2,0.0,-0.0247601,,3,3.0
Mg2S8Cr3Ga,1.0244,-0.0125289,,3,3.0
S3CuRbSm,0.0,-0.0196446,,3,3.0
ZnGePu2,0.0,-0.0633614,,3,3.0
Ti3Mn2Ga3,0.0,-0.0170385999999999,,3,3.0
LiInPtHg,0.0,-0.0439921999999999,,3,3.0
O7Y2Hf2,4.8655,-0.0242398,,3,3.0
CuInLa,0.0,-0.0310561,,3,3.0
O6Na2TePr,0.0,-0.0145793,,3,3.0
LiRh2Sb2La,0.0,-0.0321992,,3,3.0
Na2Sn2Au,0.0,-0.0302803,,3,3.0
VGaRu2,0.0,-0.0264782,,3,3.0
Be2Hf,0.0,-0.0239704,,3,3.0
MgS2I,0.0,-0.015825,,3,3.0
B2O6Ca3,5.6241,-0.0105611,,3,3.0
SrLa2Tl,0.0,-0.0455164,,3,3.0
ScRuSn2,0.0,-0.0307265,,3,3.0
MgTb3,0.0,-0.0363431,,3,3.0
P4Mo,0.0,-0.0156721,,3,3.0
Al2IBa2,0.0,-0.0271231,,3,3.0
Li2CaPt,0.0,-0.0217408,,3,3.0
Pd2CdHf,0.0,-0.0403108,,3,3.0
Ga2PmDy,0.0,-0.0317831,,3,3.0
Al3Si2Ti3Cu,0.0,-0.0123748,,3,3.0
PdAgNd2,0.0,-0.0383849999999999,,3,3.0
SeSbTm,0.0,-0.0377839,,3,3.0
Si2CuIn3Dy3,0.0,-0.0315567999999999,,3,3.0
P2Zn2Eu,0.0,-0.0211168,,3,3.0
Zn2YCe,0.0,-0.0251892999999999,,3,3.0
LiHg2Th,0.0,-0.0590792,,3,3.0
PIrPu,0.0,-0.0646812,,3,3.0
Al2ScNb2,0.0,-0.019489,,3,3.0
CSiCo2Nd2,0.0,-0.0240802,,3,3.0
Cl6Cs3Ce,0.0,-0.0228782,,3,3.0
Zn2SrAg,0.0,-0.0204143,,3,3.0
PTb2Bi,0.0,-0.0469722999999999,,3,3.0
NiZn2Au,0.0,-0.028324,,3,3.0
Rb2CdSnTe4,1.0005,-0.0328324,,3,3.0
Cu4Ga2Pr3,0.0,-0.0252271,,3,3.0
Si2SrIr3,0.0,-0.043481,,3,3.0
SiCa2Pd3,0.0,-0.0221322,,3,3.0
Se2RhTl,0.0,-0.0370519,,3,3.0
Be4RuRh,0.0,-0.014798,,3,3.0
LiO6NaV2,3.3572,-0.0104242,,3,3.0
Al3Sc3Ge2Au,0.0,-0.0200716,,3,3.0
BeZr2Re,0.0,-0.0344588,,3,3.0
O8AlS2K,6.5246,-0.0092599,,3,3.0
AlPdPt2,0.0,-0.0460032,,3,3.0
Se3PdBaNd,0.0,-0.0310524999999999,,3,3.0
SeSbEr,0.0,-0.0373116,,3,3.0
O2K2MnRb,0.7898,-0.0126707,,3,3.0
LiCl3Pb,4.3581,-0.0219519,,3,3.0
NZr2Ag,0.0,-0.0266259,,3,3.0
Al9Rh2,0.0,-0.0130833999999999,,3,3.0
Se2Lu6Os,0.0,-0.0502588,,3,3.0
PdBi2,0.0,-0.0635444,,3,3.0
SrRh2Pb2,0.0,-0.0486756,,3,3.0
SiNi3,0.0,-0.0151033,,3,3.0
Co2MoRh,0.0,-0.0258041,,3,3.0
CuBr6Rb2,0.0,-0.0202131,,3,3.0
BGa2Ru2Th,0.0,-0.0349418,,3,3.0
OSr4Bi2,1.0561,-0.0377025999999999,,3,3.0
Pd2InPa,0.0,-0.0502014,,3,3.0
P2KGe2,0.0,-0.013667,,3,3.0
Mg2YZr,0.0,-0.0171392,,3,3.0
F6AsAu,0.2943,-0.0154816,,3,3.0
Si2Mn2Th,0.0,-0.030957,,3,3.0
Mn3Dy,0.0,-0.0256908,,3,3.0
NiSbHf2,0.0,-0.0452751,,3,3.0
Zn2CdSm2,0.0,-0.0296673,,3,3.0
CTi3Au,0.0,-0.0262892,,3,3.0
F6HfTl2,5.3505,-0.0285184,,3,3.0
Ge2CsIr,0.6563,-0.0371022,,3,3.0
S3K2Pu,0.0,-0.0274094,,3,3.0
H3BrEu2,0.085,-0.0239671999999999,,3,3.0
S3Co2Rb,0.0,-0.0146658,,3,3.0
Cu4CdSb,0.0,-0.0213458,,3,3.0
CoTb6Tl2,0.0,-0.0495093,,3,3.0
CClHo2,0.0,-0.0303374,,3,3.0
RhAu2Tl,0.0,-0.0610572999999999,,3,3.0
Mg2AlPt2,0.0,-0.0325608,,3,3.0