formula,bg,formation_energy,mp-id,fidelity,bg_category
CoRh2Os,0.0,-0.0391237,,3,3.0
Al3FeTm2,0.0,-0.0246344,,3,3.0
Rh2LaHf2,0.0,-0.0480429,,3,3.0
Se2TlU,0.0028,-0.0549007,,3,3.0
Cu2Zr2Cd,0.0,-0.0247077,,3,3.0
ScCu2As2Rb,0.0,-0.0183168,,3,3.0
Zn7W,0.0,-0.0204688,,3,3.0
Li3GdBi2,0.0,-0.0379206999999999,,3,3.0
ClAs2Br,0.955,-0.0173068,,3,3.0
Y2SnPt2,0.0,-0.0477246,,3,3.0
ZnRh2Ba2,0.0,-0.0323044,,3,3.0
Ni2Dy2Tl,0.0,-0.0405984,,3,3.0
SrI3,1.6316,-0.0344753,,3,3.0
NNd3Pb,0.0,-0.0442722,,3,3.0
S4GeAg2Ba,0.9213,-0.020882,,3,3.0
ClGaDy,0.0,-0.0255838,,3,3.0
Si2CdTh2,0.0,-0.0489553,,3,3.0
LiKTe,3.1437,-0.0172108999999999,,3,3.0
Te3Hg,0.0,-0.0449993,,3,3.0
Na2Te3Er,0.0,-0.0295525,,3,3.0
P3Mo2,0.0,-0.0206844,,3,3.0
Mg2ErBi2,0.0,-0.0438942,,3,3.0
BeGePr,0.0,-0.0229626,,3,3.0
Ti3Ru2Hg,0.0,-0.0316144,,3,3.0
O4MnNi3,0.0,-0.0128291,,3,3.0
Co3Rh,0.0,-0.0214173,,3,3.0
ZrDyBi,0.0,-0.0530221,,3,3.0
B2LuOs,0.0,-0.0362438999999999,,3,3.0
LiBr6Rb2Tb,4.5965,-0.0227233,,3,3.0
Sc6CuAs2,0.0,-0.0164341,,3,3.0
PAs2Sb,0.0,-0.0219288,,3,3.0
SiRh2Gd,0.0,-0.0350589,,3,3.0
NiPt7,0.0,-0.0634677,,3,3.0
B2Fe7Ho3,0.0,-0.0242934,,3,3.0
RhPd2Pb4,0.0,-0.0576438,,3,3.0
Ti2MoTc,0.0,-0.0257896,,3,3.0
PmGdHg2,0.0,-0.0604605,,3,3.0
Cl3RbPu,0.0,-0.0328638,,3,3.0
P2PdCe,0.0,-0.0255535,,3,3.0
N2ZnCe,1.6932,-0.0201218,,3,3.0
CoIn2Sm,0.0,-0.0324406,,3,3.0
C4O12MgCa2Fe,0.9865,-0.010031,,3,3.0
As3Au2,0.0,-0.0398699,,3,3.0
YRh2Ce,0.0,-0.0358074,,3,3.0
Li2GaAu2,0.0,-0.0323962999999999,,3,3.0
ZrHf5,0.0,-0.0573397,,3,3.0
P12Ru4Tb,0.0,-0.0190048,,3,3.0
LiPSe4Cd,2.1437,-0.0182212,,3,3.0
B4Ho,0.0,-0.0164008,,3,3.0
MnAu5,0.0,-0.060887,,3,3.0
MgAl3Ge2Dy3,0.0,-0.0238913,,3,3.0
Cl6CrRb2,0.0,-0.0136182,,3,3.0
CaRhSb,0.0,-0.0278307,,3,3.0
BC2Ho2,0.0,-0.0257284,,3,3.0
O4V2Cd,0.0,-0.0151359999999999,,3,3.0
F6PdEu,0.0,-0.0160307,,3,3.0
Sr3BaAu,0.0,-0.0355349,,3,3.0
Li3O8Mn4Sn,0.0,-0.0123893,,3,3.0
O4K3Cr,0.4137,-0.0105577,,3,3.0
MnCu2Zn,0.0,-0.0156789,,3,3.0
N4Ce3,1.142,-0.0260534,,3,3.0
LiO7SiBi3,3.2086,-0.0260737,,3,3.0
CrCo2Er2,0.0,-0.0307673999999999,,3,3.0
OClCe,0.0,-0.0228989,,3,3.0
Be4AlRe,0.0,-0.0162626999999999,,3,3.0
KSe3TbHg,1.5291,-0.0319529,,3,3.0
Al2Pd3Gd,0.0,-0.0297654,,3,3.0
O6RuBa2U,0.0051,-0.0283173,,3,3.0
CuRhIr2,0.0,-0.0477759,,3,3.0
Tc2HoPa,0.0,-0.0549034,,3,3.0
NiCuHo,0.0,-0.0270750999999999,,3,3.0
Pd2SbDy,0.0,-0.0385977,,3,3.0
O6CaAsSr2,0.0,-0.0136794,,3,3.0
Mg2YAu,0.0,-0.0274438,,3,3.0
LiP2Pd2Er,0.0,-0.0242101,,3,3.0
NaI3Ba,3.7837,-0.0324572,,3,3.0
AlInHg2,0.0,-0.0443633,,3,3.0
FeCu,0.0,-0.0166273,,3,3.0
Li3O12NiNb4,0.0,-0.0140568,,3,3.0
In5TbPt,0.0,-0.0411136,,3,3.0
B4TbIr4,0.0,-0.0407453999999999,,3,3.0
CoAs2Th,0.0,-0.0392838,,3,3.0
Sc2CoAs,0.0,-0.0173539999999999,,3,3.0
Zn2Ag2In,0.0,-0.0245757,,3,3.0
NCa6SePb2,0.0,-0.0250081,,3,3.0
F5K2Tl,3.4259,-0.0157163,,3,3.0
VBr6Rb2,0.0,-0.0209242,,3,3.0
Al5Co2Pr,0.0,-0.0150827,,3,3.0
O8K3V3,0.0,-0.0116532,,3,3.0
GeNbIr,0.8728,-0.0419703,,3,3.0
TiMnFeGa,0.0,-0.0175356,,3,3.0
S3GaSn,0.0,-0.0167401,,3,3.0
FePt2U,0.0,-0.0660232,,3,3.0
PSeNb,0.0,-0.021979,,3,3.0
Co2ZnOs,0.0,-0.0298453,,3,3.0
MnNi4Np,0.0,-0.0318169,,3,3.0
Cr3GeNb2,0.0,-0.0236839,,3,3.0
Si2TcRh,0.0,-0.0229325,,3,3.0
BrInGd,0.0,-0.0383765,,3,3.0
Cl2RbIn,3.5923,-0.018997,,3,3.0
SiRh2Ta,0.0,-0.0368557,,3,3.0
B2Fe2Lu,0.0,-0.021781,,3,3.0
S3KAsAg,1.0554,-0.0153194,,3,3.0
Ti2CuPt,0.0,-0.029998,,3,3.0
NaLaPb,0.0,-0.0416633,,3,3.0
MgCaSb,0.0,-0.0180909,,3,3.0
O7Ce2Hf2,0.2504,-0.0271468,,3,3.0
Dy3Pt2Au,0.0,-0.0601415999999999,,3,3.0
Al3Co2Er,0.0,-0.0184871,,3,3.0
GeBr3Rb,0.4642,-0.0207846,,3,3.0
Ge4Tm3Pt4,0.0,-0.0477543999999999,,3,3.0
Te5Pt,0.0,-0.0429328,,3,3.0
Ga3NdIr2,0.0,-0.0399218,,3,3.0
S2InTe,0.0,-0.0228134,,3,3.0
CuGaEr2,0.0,-0.0335600999999999,,3,3.0
CLu2Tl,0.0,-0.0488926,,3,3.0
O6MnZnPr2,2.6425,-0.0184795,,3,3.0
H3O3Er,4.4021,-0.0134762,,3,3.0
AlSi2Y,0.0,-0.0143775999999999,,3,3.0
Tc2RhIr,0.0,-0.0440584,,3,3.0
Cl3CrCs,0.8439,-0.0177915999999999,,3,3.0
Ge2PdIn3Lu3,0.0,-0.0381741,,3,3.0
Ge3SmRe,0.0,-0.0349446999999999,,3,3.0
SiErPt2,0.0,-0.051554,,3,3.0
Al5HoPt2,0.0,-0.0295677,,3,3.0
RhNdBi2,0.0,-0.0593018,,3,3.0
H4O4Cl2CuPb2,1.1801,-0.0181479,,3,3.0
H2SnPr3,0.0,-0.0294366,,3,3.0
MnNi2La2,0.0,-0.0276034,,3,3.0
Cu2In3Ho2,0.0,-0.0330697,,3,3.0
CoYSn2,0.0,-0.0297051,,3,3.0
N2I2Pb,1.9725,-0.0337707,,3,3.0
P2Sc2Ni,0.0,-0.0145044,,3,3.0
O6CaMnBa2,0.0,-0.0169248,,3,3.0
O4IBi3,1.4354,-0.0382393,,3,3.0
CdPrHg,0.0,-0.0479039,,3,3.0
Br4Cs2Pr,0.0,-0.0300001,,3,3.0
CaSe2Hg,1.7192,-0.0306517,,3,3.0
Li2O4FePd,0.0,-0.0116037,,3,3.0
MnCoSe2,0.0,-0.0193192999999999,,3,3.0
RhCd2Sm,0.0,-0.035293,,3,3.0
SiCr2Co,0.0,-0.0163533,,3,3.0
SiHfIr,0.0,-0.0491556,,3,3.0
AlAgSm,0.0,-0.0283337,,3,3.0
NaScCuSe3,0.0,-0.0168382,,3,3.0
P2Pt3,0.0,-0.0467782,,3,3.0
N3PTi,0.8113,-0.0119508,,3,3.0
LiP2SrRu2,0.0,-0.019998,,3,3.0
O6AsBa2Tm,3.7381,-0.0217301,,3,3.0
AlCl3La3,0.0,-0.0247142,,3,3.0
SrAg2Gd,0.0,-0.0361674,,3,3.0
Co3GeCe2,0.0,-0.0269915999999999,,3,3.0
Sr3In4Pt4,0.0,-0.0445343999999999,,3,3.0
Ge2LuOs2,0.0,-0.0479201,,3,3.0
Tm3Ir,0.0,-0.0573828,,3,3.0
CoNiY,0.0,-0.02068,,3,3.0
O8P2CaTh,5.5764,-0.0178947,,3,3.0
Cu2RhLa,0.0,-0.0271688,,3,3.0
AlCuSr2,0.0,-0.0169936,,3,3.0
O8P2ErPu,0.3576,-0.0223691,,3,3.0
LiCdIn2,0.0,-0.0250887999999999,,3,3.0
Se3AgBaNd,1.5306,-0.0308861,,3,3.0
Li5O4Ag,1.8048,-0.0083986,,3,3.0
Cl3Fe,1.1602,-0.0114688,,3,3.0
C2NiEu,0.0,-0.0227501999999999,,3,3.0
YCd,0.0,-0.0296316999999999,,3,3.0
Li2F8ScGd,6.4529,-0.0127484,,3,3.0
Al2PmEr,0.0,-0.0278563,,3,3.0
O6TiSr2Ho,0.0,-0.0179326,,3,3.0
Co4CdEr,0.0,-0.0250657,,3,3.0
O6Br2Sr,4.6506,-0.0117372,,3,3.0
AlCu7,0.0,-0.0143939,,3,3.0
F6Ir,1.2975,-0.0146936,,3,3.0
Sc5Zr4,0.0,-0.0214916,,3,3.0
MgCa2Ga2,0.0,-0.0117932,,3,3.0
SbTe2Pt2,0.0,-0.050942,,3,3.0
B2CLaPt2,0.0,-0.0355407,,3,3.0
Sr2SnTl,0.0,-0.0388594,,3,3.0
BO5CuBaTb,0.0,-0.0183274,,3,3.0
Si2Ti2Ir,0.0,-0.0256393,,3,3.0
CoSe3RbLu,0.0,-0.0269844,,3,3.0
LiInEr2,0.0,-0.0344527,,3,3.0
InLu2Au,0.0,-0.0541192,,3,3.0
P2Cu2RbPr,0.0,-0.0200012,,3,3.0
O6ScNbEu2,0.0135,-0.0225157,,3,3.0
RuDyPb,0.0,-0.0532535,,3,3.0
RhEr6Pb2,0.0,-0.0548273,,3,3.0
MgS2CsAu,2.3214,-0.0274696,,3,3.0
Ge3La2,0.0,-0.0295189999999999,,3,3.0
NaCl6Rb2In,3.8302,-0.0145363,,3,3.0
Mo5Rh3,0.0,-0.0345101,,3,3.0
Ni4CdU,0.0,-0.0332127,,3,3.0
SrLa,0.0,-0.0326157,,3,3.0
P2S7CrCs,1.8941,-0.0138997,,3,3.0
Li5O8Si2V,1.8268,-0.0088653999999999,,3,3.0
AlZrRuRh,0.0377,-0.0278367,,3,3.0
Al4NiTh,0.0,-0.0243977,,3,3.0
AlInSm2,0.0,-0.03301,,3,3.0
V2FeGe,0.0,-0.0183403,,3,3.0
Fe2GaHo2,0.0,-0.0303364,,3,3.0
NiGa2Th6,0.0,-0.0697308,,3,3.0
LiYHg2,0.0,-0.0422786,,3,3.0
Zn2Sr2Sn,0.0,-0.0219383,,3,3.0
O3Na2Fe,0.0873,-0.0092278,,3,3.0
CO5Na5Cu,1.8042,-0.0080091,,3,3.0
F7Mn2Cs3,2.9473,-0.017523,,3,3.0
MgCaIr,0.0,-0.028997,,3,3.0
N6Cr2Er3,0.0,-0.0234664,,3,3.0
GaTaIr2,0.0,-0.0569936999999999,,3,3.0
PPu,0.0,-0.0612804,,3,3.0
Ge2RuSn3Ho3,0.0,-0.0370939,,3,3.0
O6MgScLa2,0.0,-0.0176607999999999,,3,3.0
ZrRuIn,0.0,-0.0334478999999999,,3,3.0
S3CuRbPr,0.0,-0.019429,,3,3.0
LiO4Ti3,0.0,-0.0121702999999999,,3,3.0
Ca2PdSn2,0.0,-0.0255216,,3,3.0
F4ZnPr,3.8365,-0.0152873,,3,3.0
GeTbAu,0.0,-0.0460659,,3,3.0
RhAgLu2,0.0,-0.0447122,,3,3.0
F6NaIn3,3.5797,-0.0149225,,3,3.0
O3PdLa,0.0,-0.0211064,,3,3.0
Pd2Cd2La,0.0,-0.0345185,,3,3.0
SiCl2Ca3,0.0301,-0.0106952,,3,3.0
C2O6MnSr,0.0,-0.01168,,3,3.0
AlInLa2,0.0,-0.0323915,,3,3.0
S8Nb3W,0.0,-0.0215412,,3,3.0
Be2ZrRh,0.0,-0.0188645,,3,3.0
LiCuCdIn,0.0,-0.0205341,,3,3.0
O2CuBr2Ba2,0.0,-0.0229074999999999,,3,3.0
ScLu3,0.0,-0.0450578,,3,3.0
CN4Ti5,0.0,-0.0145126,,3,3.0
CoY6In2,0.0,-0.0282617,,3,3.0
F8Na2CaY,0.0,-0.0096549,,3,3.0
Li4As4Er3,0.0,-0.0230559,,3,3.0
O7CaCs2U2,1.1053,-0.0310205,,3,3.0
SeInTh,0.0,-0.0509485,,3,3.0
CuGa5Pu,0.0,-0.0298265999999999,,3,3.0
La3OsPb,0.0,-0.0559245,,3,3.0
CoZn3Ba,0.0,-0.0195454,,3,3.0
KCd2Au,0.0,-0.0348449,,3,3.0
N3ZnPr,0.0,-0.0174380999999999,,3,3.0
Al2FePr,0.0,-0.0195209,,3,3.0
LiCu2Sr2,0.0,-0.0154747,,3,3.0
Li2O7Nb2Nd,0.0,-0.016039,,3,3.0
CaSc2Tc,0.0,-0.0184069,,3,3.0
H2Y2La,0.0,-0.0215585999999999,,3,3.0
Co2InTa,0.0,-0.0337995,,3,3.0
Ni2Se4Ir,0.0,-0.0265569999999999,,3,3.0
BeMg2Pt2,0.0,-0.0317821,,3,3.0
O4IGdBi2,1.6754,-0.0366455,,3,3.0
O2KCr,2.2018,-0.0120462,,3,3.0
MnNi4Au,0.0,-0.0254527,,3,3.0
Ag2ErTl,0.0,-0.0466248,,3,3.0
CSi2Cr2Dy2,0.0,-0.0237983,,3,3.0
C2NbTm,0.0,-0.0267928,,3,3.0
O6Sr2NbNd,3.5227,-0.0191101999999999,,3,3.0
O6CoNiSr2,0.0,-0.0134389,,3,3.0
Ru2Sb2La,0.0,-0.0381187,,3,3.0
Ni2Ga2Pr,0.0,-0.0222791,,3,3.0
Ga3IIr,0.0,-0.0317565,,3,3.0
F6NdPa,0.0,-0.0243187,,3,3.0
Mn4TaW,0.0,-0.0349123999999999,,3,3.0
PTb,0.0,-0.0303845,,3,3.0
O5NaKNbLa,4.0252,-0.0162191,,3,3.0
O3PdBi,0.5641,-0.0268718,,3,3.0
KInTe,1.4007,-0.0269951,,3,3.0
RhTeLu,0.0,-0.0434041,,3,3.0
Zn2BaPt,0.0,-0.0348163,,3,3.0
CuRhSm2,0.0,-0.035045,,3,3.0
Cu4Ag,0.0,-0.0183464999999999,,3,3.0
CaCuBi,0.0,-0.035043,,3,3.0
Si3FeTm,0.0,-0.0205058,,3,3.0
Ni2SbHf,0.0,-0.0336633,,3,3.0
GaInAc2,0.0,-0.0581965999999999,,3,3.0
KCd4Sb3,0.0,-0.0304365999999999,,3,3.0
Rb2Au3Pb,0.0,-0.0545369,,3,3.0
Ti6PtBi2,0.0,-0.0364187999999999,,3,3.0
Pr6IrBi2,0.0,-0.0549962,,3,3.0
MgVRh2,0.0,-0.023036,,3,3.0
Be2SiMo,0.0,-0.0137452,,3,3.0
CGe2Mo2Ho2,0.0,-0.0314947,,3,3.0
MnTe2Hg,0.0,-0.0405303,,3,3.0
Co3GeTb2,0.0,-0.0277106,,3,3.0
Ga2Ta,0.0,-0.0332862,,3,3.0
Cl6Rb2Au,0.0,-0.0187873,,3,3.0
AsErIr,0.0,-0.048373,,3,3.0
Ni4TmPb,0.0,-0.0323038999999999,,3,3.0
MgGe2Pt2,0.0,-0.0373595,,3,3.0
Na4P2Cu,0.0,-0.0079189999999999,,3,3.0
Li4MgSr,0.0,-0.0061527,,3,3.0
P4Ni2La,0.0,-0.017525,,3,3.0
Sb2PrPt,0.0,-0.0479288999999999,,3,3.0
Al2Ni2Eu,0.0,-0.0207861,,3,3.0
CO7PKSb,0.0,-0.011807,,3,3.0
GaPt2U,0.0,-0.0658043,,3,3.0
H6K3In,2.5011,-0.0080486,,3,3.0
O8Mg3Fe3,0.734,-0.0107231,,3,3.0
Be5Au4,0.0,-0.0334159999999999,,3,3.0
Ni3PrPt2,0.0,-0.0392368,,3,3.0
Ru2ErU,0.0,-0.0563071,,3,3.0
Rh8In,0.0,-0.0337532,,3,3.0
Al5ZrPd2,0.0,-0.017677,,3,3.0
CuZnPm2,0.0,-0.0294518,,3,3.0
LiAs2NdIr2,0.0,-0.0389546,,3,3.0
Co2Y2Hg,0.0,-0.0319541,,3,3.0
VTe2,0.0,-0.0310193,,3,3.0
GdHoAu2,0.0,-0.0625700999999999,,3,3.0
NaCuSe3Dy,0.0,-0.0224913,,3,3.0
K2Se3Np,0.0,-0.0319556,,3,3.0
Li4O5Te,3.4732,-0.0097359,,3,3.0
LiO4CrMn,0.2875,-0.0115474999999999,,3,3.0
MgLu2Tl2,0.0,-0.0525139,,3,3.0
P3Cs2,1.0464,-0.0219494,,3,3.0
ZnSrPt,0.0,-0.0361584999999999,,3,3.0
O4CeEr,0.0,-0.0233532,,3,3.0
S2Rb2Cd,2.6704,-0.0193857,,3,3.0
H8RuCd2Eu,0.0,-0.0149666,,3,3.0
K2Hg7,0.0,-0.0551522,,3,3.0
Tm2HgTl,0.0,-0.0616395,,3,3.0
PmAu5,0.0,-0.0654675,,3,3.0
Ga3Ta,0.0,-0.0291407,,3,3.0
FeOsIr2,0.0,-0.0581401,,3,3.0
CoZr2Ir,0.0,-0.0382278999999999,,3,3.0
AsCdTl,0.123,-0.0410756,,3,3.0
Se3Ac2,3.1091,-0.0504772,,3,3.0
Ru2AgSm3,0.0,-0.0394141,,3,3.0
LiScNi2Sb2,0.0,-0.021197,,3,3.0
Ni4CeHg,0.0,-0.029869,,3,3.0
CGe2Sm2Os2,0.0,-0.0408389,,3,3.0
O4MoTl2,3.3629,-0.0308831,,3,3.0
Cd3Pu,0.0,-0.050251,,3,3.0
F8Na2CeTb,0.7262,-0.0145726,,3,3.0
Cd2Sn2Tl,0.0,-0.0409722999999999,,3,3.0
CoHo6Tl2,0.0,-0.0510027,,3,3.0
F3RbPb,4.1814,-0.0240311,,3,3.0
BeGeEu,0.0,-0.0262366,,3,3.0
Cd2SnBi2,0.0,-0.0506355,,3,3.0
Co4ZnSn6,0.0,-0.0270212,,3,3.0
HITm,0.0,-0.0317513,,3,3.0
FeTc3,0.0,-0.0307698,,3,3.0
Ni7Hf,0.0,-0.022137,,3,3.0
Al4Si2Au3Th2,0.0,-0.0417982,,3,3.0
S3CaAgTb,1.9013,-0.021199,,3,3.0
HSnTa3,0.0,-0.0479126,,3,3.0
In3Np,0.0,-0.0516728,,3,3.0
SbNdIr,0.0,-0.0516987,,3,3.0
Co2Ga3Y3,0.0,-0.0214114,,3,3.0
Ru2Eu,0.0,-0.0410924,,3,3.0
ScAg2Tl,0.0,-0.0375398,,3,3.0
AlS2Sb,0.0,-0.0168648,,3,3.0
YHgPb2,0.0,-0.0623679,,3,3.0
Ga2HoIr,0.0,-0.0391068,,3,3.0
Cl6Ag3Tm,3.3889,-0.0207022,,3,3.0
Na3Rb,0.0,-0.008305,,3,3.0
Ca2Rh2Sn,0.0,-0.0252642,,3,3.0
Be4AlRu,0.0,-0.0104622,,3,3.0
OCa6Sn2,0.3408,-0.0163193,,3,3.0
TeI2Nd2,0.0,-0.0411082,,3,3.0
Ni4Cu,0.0,-0.0159424,,3,3.0
I3Ba3Bi,0.8196,-0.0456074,,3,3.0
O4TiSn,2.1175,-0.0153555,,3,3.0
Cu2Cd2In,0.0,-0.0248055999999999,,3,3.0
NiSr2Te,0.0,-0.0251664,,3,3.0
FCs3Tl,0.0,-0.039007,,3,3.0
H2O5V2,0.0,-0.0101801999999999,,3,3.0
CoAs2,0.2151,-0.0195615,,3,3.0
ZnGa2In,0.0,-0.0198196,,3,3.0
Ni4InPt,0.0,-0.0280679,,3,3.0
Li5O4Al,5.6634,-0.0068941,,3,3.0
CuHo2Pt,0.0,-0.0468105,,3,3.0
MgCa2Ga,0.0,-0.0104308,,3,3.0
GaRh2Th,0.0,-0.045883,,3,3.0
Ni2RhRe,0.0,-0.0343292,,3,3.0
Mg2Pd2Bi,0.0,-0.0313463,,3,3.0
F6MnFe,0.0,-0.0098117999999999,,3,3.0
Cu3Zn,0.0,-0.0148502,,3,3.0
B3VCo,0.0,-0.0120145,,3,3.0
Pd6Sb4Er,0.0,-0.0365999,,3,3.0
MgCdTb2,0.0,-0.0324808,,3,3.0
ZrPd2Pt,0.0,-0.0426155,,3,3.0
CuIrPu2,0.0,-0.0767038,,3,3.0
NiCu4,0.0,-0.0153658,,3,3.0
SiCrOs,0.0,-0.0336978999999999,,3,3.0
Li2Ru,0.0,-0.013113,,3,3.0
Pd4CdCe,0.0,-0.0350105,,3,3.0
F6SnCe,0.894,-0.0159604,,3,3.0
Ag2EuHo,0.0,-0.0416467,,3,3.0
N2TmPu,0.0,-0.0467924,,3,3.0
MgZnHg2,0.0,-0.0388103,,3,3.0
O6CaBa2Ta,0.0,-0.0223218,,3,3.0
YLaHg2,0.0,-0.0525634,,3,3.0
Rh2Ho3Pb3,0.0,-0.0560292,,3,3.0
F6NaCs2Pb,0.1037,-0.0203421,,3,3.0
OCoSeSr,0.2244,-0.0182179,,3,3.0
NbPd4,0.0,-0.033222,,3,3.0
NaSb2Tl2,0.0,-0.0447685,,3,3.0
GeZr2Pd2,0.0,-0.0300623,,3,3.0
Zr2RuOs,0.0,-0.0428153999999999,,3,3.0
CaCo2Se2,0.0,-0.017463,,3,3.0
N2MnSr,0.0,-0.0156216,,3,3.0
Ge2PdTh,0.0,-0.0425319999999999,,3,3.0
NiNd2Ir,0.0,-0.0441109,,3,3.0
H4N2F2Ge,4.5484,-0.0075765,,3,3.0
BrPdGd,0.4764,-0.0383451999999999,,3,3.0
S3NiSrEr,0.0,-0.0214614,,3,3.0
OTeEuAu,0.0,-0.0431857,,3,3.0
Pd2Sn2Pr,0.0,-0.0370039,,3,3.0
NCr3Ru,0.0,-0.0200169,,3,3.0
CuBrNd,0.0,-0.0271679999999999,,3,3.0
BeAlAs2,0.0,-0.0133564,,3,3.0
ScRu2Bi,0.0,-0.0409587,,3,3.0
Sn2CsPb2,0.0,-0.0524728,,3,3.0
SrRhPb3,0.0,-0.0571136,,3,3.0
Li2As2Zr,0.0,-0.0161596,,3,3.0
Si3CoPa,0.0,-0.0299212,,3,3.0
Al2Si2Eu,0.0,-0.0182162,,3,3.0
Li2GeEr,0.0,-0.0190227,,3,3.0
Sb3NdSm3,0.0,-0.0423969,,3,3.0
NaEu2Tl,0.0,-0.0462729,,3,3.0
SiZrRe,0.0,-0.0381182,,3,3.0
N3MnSr3,0.0,-0.0170756,,3,3.0
Mn4Os,0.0,-0.0288481999999999,,3,3.0
SbLa2Au2,0.0,-0.0534756,,3,3.0
GeIHg3,0.0,-0.0521388,,3,3.0
CSi2Cr2Ho2,0.0,-0.0241492,,3,3.0
F2CaSr,0.0,-0.0128241,,3,3.0
ZrGdIr2,0.0,-0.0587706,,3,3.0
HSrBa2,0.0,-0.0263693999999999,,3,3.0
Mn5W,0.0,-0.0267958,,3,3.0
BO3NaMg,4.4352,-0.0085402,,3,3.0
O4NaMn3,0.0,-0.0124806,,3,3.0
Si3CuY,0.0,-0.0150746,,3,3.0
BeSc2Ni,0.0,-0.0125478,,3,3.0
SeSr2Pd2,0.0,-0.0271116,,3,3.0
P2Cr2Sr,0.0,-0.0166991,,3,3.0
GdPt2Au,0.0,-0.0680154,,3,3.0
Al2CuZr2,0.0,-0.018881,,3,3.0
CTh5,0.0,-0.0817138999999999,,3,3.0
In2Te4Ba,0.8776,-0.0373342,,3,3.0
Ga2CdSm2,0.0,-0.0310585,,3,3.0
CrTe4Tl3,0.0,-0.048248,,3,3.0
LiNFe,0.0,-0.0102706,,3,3.0
O2MnCs,0.9515,-0.0191058,,3,3.0
Cu5Cd,0.0,-0.0176798,,3,3.0
RuTa2Ir,0.0,-0.0603101,,3,3.0
Co2Sb2La,0.0,-0.0309831,,3,3.0
Se2PdLu6,0.0,-0.0459416999999999,,3,3.0
AlPtPa,0.0,-0.0602722,,3,3.0
Li3F8Mn,0.0,-0.0071036,,3,3.0
BeAuPb2,0.0,-0.0563565,,3,3.0
In2PrPm,0.0,-0.0391776,,3,3.0
CoOs3,0.0,-0.0581148,,3,3.0
AgInNd,0.0,-0.0366552999999999,,3,3.0
C2Cl5Ho4,0.0,-0.0250669,,3,3.0
O6ZnSr2Pd,0.0,-0.014522,,3,3.0
O4Na4Fe,0.545,-0.0081994,,3,3.0
RuAuAc2,0.0,-0.0716537,,3,3.0
Ga3Hg,0.0,-0.0291023,,3,3.0
MnSe3TbPb,0.0,-0.0346565999999999,,3,3.0
MgAg2Nd,0.0,-0.0281472,,3,3.0
KPb2Bi2,0.0,-0.0636248,,3,3.0
KSr3Au,0.0,-0.0292618,,3,3.0
LiO5Si2Cu,2.4043,-0.010076,,3,3.0
Cl2KTl,2.9004,-0.02579,,3,3.0
TiCu4In,0.0,-0.0184671,,3,3.0
H2O2ClNd,5.4072,-0.0141088,,3,3.0
KRhSn2,0.0,-0.0288428,,3,3.0
B4RuEr,0.0,-0.0198771999999999,,3,3.0
GeRhEr,0.0,-0.0354717,,3,3.0
Si2Ni2Th,0.0,-0.0305219999999999,,3,3.0
PTe3Lu4,0.0,-0.0442785,,3,3.0
Cu2As2Eu,0.0,-0.0255262,,3,3.0
O3K2Mn2,0.1928,-0.0120034,,3,3.0
InSmBi,0.0,-0.0528067,,3,3.0
O3Mn2Cd,0.0,-0.0159358,,3,3.0
Fe2Tm2Pb,0.0,-0.0433478,,3,3.0
GeYSn,0.0,-0.028337,,3,3.0
Ti2Pd2Au,0.0,-0.0339397,,3,3.0
Al3CaCu2,0.0,-0.0109337,,3,3.0
SiCuBa,0.0,-0.0218928,,3,3.0
AgPr2Au,0.0,-0.0474346,,3,3.0
BeZr2Tc,0.0,-0.0254967,,3,3.0
SSePt,0.0,-0.033759,,3,3.0
Si2NiZn2,0.0,-0.0127514,,3,3.0
H4O4P2Zn,4.514,-0.0078902,,3,3.0
Cl6Rb2Ir,0.0,-0.0191967,,3,3.0
GeITb,0.0,-0.0352847,,3,3.0
CSi2Pr2W2,0.0,-0.0370694,,3,3.0
F6SiEu,1.8564,-0.0142928999999999,,3,3.0
NaRb2Bi2,0.0,-0.0409194,,3,3.0
CeTmTl2,0.0,-0.0607507,,3,3.0
Zn2Sb2Sm,0.0,-0.0296649,,3,3.0
B2Ir3Pa,0.0,-0.0553602,,3,3.0
H12O12P6CaSn,4.8749,-0.0083795,,3,3.0
LiO6TeBaHo,3.3487,-0.019012,,3,3.0
OAgTeNd,1.9078,-0.0316252,,3,3.0
SiCl2,2.2514,-0.0097193,,3,3.0
LiNiRhIn,0.0,-0.0216255,,3,3.0
H4ScPd3,0.0,-0.0161359999999999,,3,3.0
O8YMo2Cs,4.4749,-0.0180841999999999,,3,3.0
H3TiMn,0.0,-0.0091942,,3,3.0
O12Lu6W,3.327,-0.0288266,,3,3.0
TbTl3,0.0,-0.0663143,,3,3.0
O6Sr2TbBi,2.6053,-0.0233374999999999,,3,3.0
Al4RuCe,0.0,-0.0190405,,3,3.0
NaGaAu,0.0,-0.0303826,,3,3.0
BCr2Pd6,0.0,-0.027053,,3,3.0
F6GaRbCs2,7.1146,-0.0164083,,3,3.0
GeTe3Ho4,0.0,-0.0421865,,3,3.0
Zn5Er,0.0,-0.0200076,,3,3.0
MnCo2Sn,0.0,-0.0223801,,3,3.0
Hf3Pt5,0.0,-0.0686664,,3,3.0
AsSe4Cs3,1.7621,-0.0276954999999999,,3,3.0
O2RbPd,0.092,-0.0174915,,3,3.0
S3SbTb4,0.0,-0.0335713,,3,3.0
GeRu2La2,0.0,-0.035537,,3,3.0
SnTeNd,0.0,-0.0400489,,3,3.0
Mg2Ca2Zn,0.0,-0.0086958,,3,3.0
H5CuBa2,0.1074,-0.0143724,,3,3.0
LiP2Ni2Tb,0.0,-0.0180656,,3,3.0
Al3Cu5,0.0,-0.0127114999999999,,3,3.0
CoIn2Er6,0.0,-0.0432535,,3,3.0
AgSn2La2,0.0,-0.0385981,,3,3.0
CaCdLa,0.0,-0.0279906,,3,3.0
O2ILa2,0.0,-0.0301505,,3,3.0
CdGdPt4,0.0,-0.062576,,3,3.0
O4CrHo,0.0,-0.0182773,,3,3.0
PmPt,0.0,-0.0583678,,3,3.0
MgDyAu2,0.0,-0.0487438,,3,3.0
Al5Ca5In,0.0,-0.0113095,,3,3.0
MnNi5,0.0,-0.0166902,,3,3.0
N2Sr7Tl3,0.0,-0.0332924,,3,3.0
Be2NiAu,0.0,-0.023933,,3,3.0
F6NaK2Sm,6.9499,-0.012112,,3,3.0
CuNb3Pd2,0.0,-0.0302228,,3,3.0
CaAsCe,0.0,-0.0258706,,3,3.0
CaMnSb2,0.0,-0.0261923999999999,,3,3.0
SrPtPb,0.0,-0.0569147,,3,3.0
BTm3Pb,0.0,-0.0483157,,3,3.0
AlNd2Au2,0.0,-0.0475711,,3,3.0
B5Ba2Os3,0.0,-0.0334446,,3,3.0
PdInEu,0.0,-0.0406229,,3,3.0
In2TbHo,0.0,-0.0412463,,3,3.0
H2O5SFe,0.99,-0.0087325,,3,3.0
O2Cu2Pb,0.6817,-0.0244833,,3,3.0
MgSc2Au,0.0,-0.026241,,3,3.0
AlCdNd,0.0,-0.0277170999999999,,3,3.0
LiAsLa,0.0,-0.0231037,,3,3.0
NHf2Au,0.0,-0.0523461,,3,3.0
PdSnU,0.0,-0.0577851,,3,3.0
FeNiRh,0.0,-0.0227637,,3,3.0
Si2Pd2Hf,0.0,-0.0303932,,3,3.0
OZnSbTb,0.372,-0.0277929999999999,,3,3.0
O6NiTePb2,1.3138,-0.0254262,,3,3.0
LiSc2Re,0.0,-0.0255759,,3,3.0
PSnCs,0.8561,-0.0284184,,3,3.0
BeScZr2,0.0,-0.0200039,,3,3.0
Cl4W,0.4715,-0.0212235,,3,3.0
Br6Sr2Ba,5.1284,-0.0246614,,3,3.0
MgPrPt2,0.0,-0.0482735,,3,3.0
PdIn4,0.0,-0.0334722999999999,,3,3.0
In3Ho3Pt2,0.0,-0.0495171,,3,3.0
NiGa2Hf6,0.0,-0.0476548,,3,3.0
NiPd2In,0.0,-0.0290705,,3,3.0
Ti2NbSn,0.0,-0.0256454,,3,3.0
O6Ba2LuAu,2.0909,-0.0265053,,3,3.0
N3ZrW,0.0,-0.0266904,,3,3.0
NiAs2Cs2,0.5332,-0.026963,,3,3.0
F6InCs2Bi,2.1469,-0.0233635,,3,3.0
ZrRuInIr,0.0,-0.043203,,3,3.0
B6Co12Sm,0.0,-0.0158773,,3,3.0
F8Ho2Pb,6.2332,-0.0222746999999999,,3,3.0
O4KCu2Y,0.0,-0.0133596,,3,3.0
LiOF2V,0.4263,-0.0096286,,3,3.0
AgCdBi,0.0,-0.0467549,,3,3.0
LiF4Mo,2.5428,-0.0112431,,3,3.0
Zn3Er,0.0,-0.0231578,,3,3.0
O6CuBa2Tb,0.0,-0.0201202,,3,3.0
F6MnGe,2.6605,-0.0100409,,3,3.0
B2ScMn2,0.0,-0.0136334,,3,3.0
KCoIn3,0.0,-0.0252488999999999,,3,3.0
Na2S,3.0677,-0.0072826,,3,3.0
Li2CuGa,0.0,-0.0093843,,3,3.0
LiPTb,0.0,-0.0209693,,3,3.0
O6AlTiBa2,0.0,-0.0170977,,3,3.0
Si2ScNi,0.0,-0.01339,,3,3.0
B2O6SrZr,5.2994,-0.0137317,,3,3.0
Br4Rb2I2Au,0.0,-0.0299996,,3,3.0
BNCaFe,0.0,-0.0119408,,3,3.0
Sb2Er6W,0.0,-0.0501207,,3,3.0
OSeAgLa,1.7234,-0.0274235,,3,3.0
H3O3Sc,5.5955,-0.0082654999999999,,3,3.0
Ge2MoHf2,0.0,-0.0403793999999999,,3,3.0
Ti3CdOs2,0.0,-0.037659,,3,3.0
CaBr6Sr2,5.0707,-0.0212777,,3,3.0
KCu2I3,2.3838,-0.0254379,,3,3.0
YI,0.0,-0.0333375,,3,3.0
CoGePt,0.0,-0.0357357,,3,3.0
F5FeCs2,2.0328,-0.0167789,,3,3.0
Te2ErTl,0.578,-0.0504167,,3,3.0
Ga2INd2,0.0,-0.0323486,,3,3.0
O4ZrNb,0.4197,-0.0179634,,3,3.0
Zn3Pd2Sm,0.0,-0.0257654,,3,3.0
NAlY3,0.0,-0.0212003999999999,,3,3.0
Co2RuTa,0.0,-0.0341282,,3,3.0
Li4Tb3Bi4,0.0,-0.0429315,,3,3.0
Li4P4Tb3,0.0,-0.0185924,,3,3.0
PCd2Eu,0.0,-0.0317988,,3,3.0
N2SrZr,1.6413,-0.0194922,,3,3.0
S2AgCe,0.1138,-0.0252806,,3,3.0
B2CPd2Pa,0.0,-0.0321334999999999,,3,3.0
Fe2ZnHf2,0.0,-0.0351816,,3,3.0
GaGdHg2,0.0,-0.0532739,,3,3.0
Tb5Tm,0.0,-0.0475936,,3,3.0
CGe2Mo2Sm2,0.0,-0.0301818999999999,,3,3.0
Al3Nd2Os,0.0,-0.0309733,,3,3.0
CuY2Ir,0.0,-0.0362071,,3,3.0
Br8BaNd2,3.5283,-0.0278457,,3,3.0
Li2Si2Zn2Ba,0.0,-0.0133177,,3,3.0
IrHgTl3,0.0,-0.0712709,,3,3.0
Al3CrSn2Lu3,0.0,-0.0315888,,3,3.0
La2IrPt,0.0,-0.0579805,,3,3.0
FeSn2Er6,0.0,-0.0440078,,3,3.0
Cr2Tc,0.0,-0.0239478,,3,3.0
InTe3Ir2,0.0,-0.0481579,,3,3.0
Al2Mn2Se5,0.1022,-0.0178689,,3,3.0
NaSSb,0.0165,-0.0177265,,3,3.0
MgCuGa5,0.0,-0.0146388,,3,3.0
Rh2Sn3Nd3,0.0,-0.0391098,,3,3.0