formula,bg,formation_energy,mp-id,fidelity,bg_category
MnRu2Er2,0.0,-0.0381443,,3,3.0
SmEr3,0.0,-0.048857,,3,3.0
Al2NdIr,0.0,-0.0335031,,3,3.0
Si2Co3Dy,0.0,-0.0205887999999999,,3,3.0
O2ScSn,0.0,-0.0183171,,3,3.0
Al3FeLa2,0.0,-0.0216489,,3,3.0
PCuHf4,0.0,-0.0466368999999999,,3,3.0
Al7Ca6,0.0,-0.0088265999999999,,3,3.0
N6O12NaK2Co,3.029,-0.0084841,,3,3.0
NaSn2Eu,0.0,-0.0329025,,3,3.0
NiCu3Se4,0.0,-0.0179053,,3,3.0
HCl2Tb,4.834,-0.0185375,,3,3.0
Al5YOs,0.0,-0.0203298,,3,3.0
SiINp,0.0,-0.0515918,,3,3.0
Cl6AsRb3,3.7072,-0.0146126,,3,3.0
NiSe2Ba,0.0,-0.0252192,,3,3.0
P2Rb2CdBa,0.4245,-0.0226837,,3,3.0
Ni3Pd,0.0,-0.0202909,,3,3.0
AlCuHfPt,0.0,-0.0398956,,3,3.0
Cl2PdLa2,0.0,-0.0283637,,3,3.0
F6GaU,2.0119,-0.0207498,,3,3.0
OAsRhHo,0.0,-0.0294861,,3,3.0
Cl2TePu2,0.0,-0.0560984,,3,3.0
S6AsSb3,1.0196,-0.0191853,,3,3.0
O6Na3Cd2Bi,1.2144,-0.0172128,,3,3.0
Li4Ba3,0.0,-0.0182816,,3,3.0
LiZnAs,0.9102,-0.0125815,,3,3.0
Cr2CoIr,0.0,-0.031407,,3,3.0
Al5LuAu2,0.0,-0.0296911999999999,,3,3.0
KHg3,0.0,-0.0534963,,3,3.0
O3Cu2Ba,0.0,-0.0162319,,3,3.0
SnAuPa,0.0,-0.0686012999999999,,3,3.0
H12O6CoBr2,1.6216,-0.0074179,,3,3.0
O6TiFeSrBi,0.0,-0.0195764,,3,3.0
Al2Zn2Dy,0.0,-0.0185568999999999,,3,3.0
MgScGe,0.0,-0.0133679,,3,3.0
AgCdNd2,0.0,-0.0375908,,3,3.0
ONaRb,2.8022,-0.011633,,3,3.0
LaCe3,0.0,-0.044111,,3,3.0
Tl2Th,0.0,-0.0804647,,3,3.0
P2KCu2Zr,0.0,-0.0157586,,3,3.0
BeCaPd3,0.0,-0.0231201,,3,3.0
Al4CoDy,0.0,-0.016553,,3,3.0
ZnTa5,0.0,-0.0577178,,3,3.0
F3Ac,7.1046,-0.0297116,,3,3.0
Rh2InAc,0.0,-0.0484587,,3,3.0
InTm2Os2,0.0,-0.0566181,,3,3.0
Na2ZnCd,0.0,-0.0130365,,3,3.0
BSi2Ni6,0.0,-0.0143267,,3,3.0
NOSi2La6,0.0,-0.0306514,,3,3.0
O6NiTeBa2,1.4733,-0.0191146,,3,3.0
F6ZnGe,5.2172,-0.0092817,,3,3.0
SiMn2Pt,0.0,-0.0297849,,3,3.0
CTi2As,0.0,-0.0165843,,3,3.0
Ga2YTa2,0.0,-0.039172,,3,3.0
C2ClCa2,0.0,-0.0104054,,3,3.0
Ga3Nb2,0.0,-0.023467,,3,3.0
LiMg2Ca2,0.0,-0.0063021,,3,3.0
KMnSe3Dy,0.8946,-0.0240693,,3,3.0
Mg2LaHg,0.0,-0.0307233,,3,3.0
MgTi,0.0,-0.0104731,,3,3.0
FePdHf2,0.0,-0.0445272,,3,3.0
MgSi6Ni6,0.0,-0.0129053,,3,3.0
BCRhDy,0.0,-0.0254262,,3,3.0
O6TiRuBa2,0.0,-0.0194518999999999,,3,3.0
Sc2CsBi2,0.0,-0.0452961,,3,3.0
Rh2SnNd,0.0,-0.0375157,,3,3.0
Ga4PdDy,0.0,-0.0249837999999999,,3,3.0
F6Cs2Pb,4.1781,-0.0217383999999999,,3,3.0
NaRb3,0.0,-0.0165886,,3,3.0
NNb3Pd,0.0,-0.0289322,,3,3.0
Si4Mo3Tm2,0.0,-0.0282843,,3,3.0
Zn5Ac,0.0,-0.0266543999999999,,3,3.0
LiS2Np,0.0,-0.0335902,,3,3.0
GaSrPd2,0.0,-0.0268029,,3,3.0
Al2CrNi,0.0,-0.0129994999999999,,3,3.0
Zn2RuSm,0.0,-0.0268981,,3,3.0
MgSi7Ir3,0.0,-0.026801,,3,3.0
CdPb5,0.0,-0.0681975,,3,3.0
NaAlGe,0.0,-0.0105843,,3,3.0
Au8Pb,0.0,-0.0698311,,3,3.0
H3CuLa,0.0,-0.0142251,,3,3.0
LiO6Ti2Bi,2.902,-0.0176541,,3,3.0
CBrU,0.0,-0.0450664,,3,3.0
ScGePr,0.0,-0.026351,,3,3.0
GaIn2Tl,0.0,-0.0387686,,3,3.0
Li3O12ZrNbTe2,2.5252,-0.0137381,,3,3.0
PZrPt5,0.0,-0.0569091,,3,3.0
Ni2CePt,0.0,-0.037306,,3,3.0
Ga6AgLa,0.0,-0.0219819,,3,3.0
Tb2Au,0.0,-0.0550934,,3,3.0
Mg2Al5Ti,0.0,-0.0082505,,3,3.0
LiDyAu2,0.0,-0.0480007,,3,3.0
Al4FeNd,0.0,-0.0158796,,3,3.0
KTe3DyAu,0.0,-0.0405277999999999,,3,3.0
SiLuW,0.0,-0.0455105,,3,3.0
PdAg2Au,0.0,-0.0412304999999999,,3,3.0
O6CoBa2Gd,0.0,-0.02175,,3,3.0
H2MgPt2,0.0,-0.0308485,,3,3.0
Pd2Ce2Tl,0.0,-0.0461248999999999,,3,3.0
Co2Pd,0.0,-0.0224057,,3,3.0
O5Fe2Cs6,1.4444,-0.0240589,,3,3.0
LiSc2Rh,0.0,-0.0167953,,3,3.0
As2BrPb2,0.0,-0.0424996999999999,,3,3.0
YSbAu2,0.0,-0.0516552999999999,,3,3.0
CSi2PrW2,0.0,-0.0358096,,3,3.0
ClAs3Cd2,1.1606,-0.0219672,,3,3.0
H6Ca2Ru,2.9517,-0.0090428,,3,3.0
Cu2Zr2In,0.0,-0.0254216,,3,3.0
Se8CsNd5,1.8662,-0.0317606,,3,3.0
Sc4Pd2Tl5,0.0,-0.0445947,,3,3.0
PVCo,0.0,-0.015874,,3,3.0
Ga2Ge2Rb,0.0,-0.0184299,,3,3.0
CrGe3Th,0.0,-0.0347032,,3,3.0
MgZn5,0.0,-0.0121602,,3,3.0
NaCu2Sb2Hf,0.0,-0.0290061,,3,3.0
Zn2CdTh3,0.0,-0.0576485,,3,3.0
SiSr2Pt3,0.0,-0.0451515,,3,3.0
MgAs2Sr2,1.5773,-0.019206,,3,3.0
B2O7Al2Cs2,4.9718,-0.0143644999999999,,3,3.0
CdBaTl,0.0,-0.0479322,,3,3.0
ClMnSm,0.0,-0.0246696,,3,3.0
N3Na5Pt3,0.0,-0.0239441,,3,3.0
F4CuAg,0.0959,-0.0116088,,3,3.0
HO3SCs,6.5731,-0.0132129,,3,3.0
P2Ni2RbTb,0.0,-0.0209343,,3,3.0
Li2AgPb,0.0,-0.0283384,,3,3.0
Ga2Zr6Rh,0.0,-0.0284353,,3,3.0
RhCd2Pr,0.0,-0.0350039,,3,3.0
SbDyEr,0.0,-0.0459683,,3,3.0
AsSe3Th4,0.0,-0.0595614,,3,3.0
AsIPr2,0.0,-0.0373712,,3,3.0
Si3MoPd2,0.0,-0.0222895,,3,3.0
SiCaRh,0.0,-0.0187407,,3,3.0
Mn3Ir5,0.0,-0.0517489,,3,3.0
FeGePr,0.0,-0.0272741,,3,3.0
Ru2LuU,0.0,-0.0575384,,3,3.0
Li6O6Cr,0.7357,-0.0074151,,3,3.0
LiZnSe2Cs,2.5435,-0.0200188,,3,3.0
S4Cs3Ta,3.0737,-0.0287692,,3,3.0
CuBrIn2Te3,0.7812,-0.0308132,,3,3.0
CdLuPt4,0.0,-0.0619894,,3,3.0
In3Tb3Pt2,0.0,-0.0486687,,3,3.0
Al3NiHf2,0.0,-0.0280381,,3,3.0
Cu2CdPt,0.0,-0.0329173,,3,3.0
O6Cu3Ba2Ho,0.0,-0.0197211,,3,3.0
OSrCdTe,1.5615,-0.0256993,,3,3.0
Se2RbTm,2.237,-0.030138,,3,3.0
C3Th2,0.0,-0.0447153,,3,3.0
O6MgEr2Ir,0.0,-0.0241702,,3,3.0
NiEr2,0.0,-0.0393252,,3,3.0
Ti2Mn,0.0,-0.0169338,,3,3.0
Cd4Sb3Cs,0.0,-0.0341625999999999,,3,3.0
YErPb2,0.0,-0.0581085,,3,3.0
Al3Si2IrPu3,0.0,-0.0499421,,3,3.0
Cu2SnLu2,0.0,-0.0359549,,3,3.0
B2O6ZrCs2,4.0596,-0.0172464,,3,3.0
Na2Se3Sn,1.1617,-0.0183182,,3,3.0
Si2TiY2,0.0,-0.0190931,,3,3.0
Sc2Se3,0.769,-0.0196762,,3,3.0
O6YU2,0.0,-0.0338834,,3,3.0
F5MgTi,0.8726,-0.0091576,,3,3.0
NiSrTe3Ho,0.0,-0.0344159,,3,3.0
O8MgMo2Cs,0.0,-0.0157045,,3,3.0
O7Nd2Bi2,0.3397,-0.0282799,,3,3.0
C2InTh3,0.0,-0.0572501,,3,3.0
CO3FRb3,4.2259,-0.0139496,,3,3.0
F6Rb2InTl,4.0772,-0.0194936,,3,3.0
LiO7As2Ho,4.1481,-0.014458,,3,3.0
O4MnRb3,2.0429,-0.0150478,,3,3.0
O2SnSbI,1.3849,-0.0255399,,3,3.0
P2Mn6Fe,0.0,-0.0168334,,3,3.0
O7Fe4YBa,0.0,-0.0162983,,3,3.0
ScSn,0.0,-0.0257543,,3,3.0
Se2Cs,0.0,-0.0268383,,3,3.0
Li2Cl4Zn,4.9411,-0.0088785,,3,3.0
AlGeSe3,1.6982,-0.0180203,,3,3.0
PdSbCe,0.0849,-0.0393542,,3,3.0
NaGePt,0.0,-0.0317923,,3,3.0
S3CuInBa,0.741,-0.020647,,3,3.0
Si2Ta,0.0,-0.0292889,,3,3.0
Pd2InHf,0.0,-0.0411533,,3,3.0
SiNi2Zr2,0.0,-0.0214725,,3,3.0
Au2Bi,0.0,-0.0722849,,3,3.0
ScGeIr,0.0,-0.0359383,,3,3.0
Al6SrAu,0.0,-0.0176573,,3,3.0
ITm,0.0,-0.0452027,,3,3.0
ClGaY,0.0,-0.0189806,,3,3.0
TiNi2Pt,0.0,-0.0303774,,3,3.0
CClU,0.0,-0.0414215999999999,,3,3.0
O3BrRb,4.0869,-0.0125118,,3,3.0
AlCuPdEr,0.0,-0.0272126,,3,3.0
Zr7Cd,0.0,-0.0306361,,3,3.0
Si4VCr,0.0,-0.0130173,,3,3.0
RhHgTl3,0.0,-0.0638637,,3,3.0
PNbRh,0.0,-0.0267315,,3,3.0
Te2CsPr,1.5598,-0.0405209,,3,3.0
SiSrTe4Au2,0.0,-0.0404780999999999,,3,3.0
CdTb2Ir2,0.0,-0.0539468,,3,3.0
Na3PS4,2.6005,-0.0087519,,3,3.0
Zn6Ge3Pr2,0.0,-0.0209519,,3,3.0
O4Na3Sb,2.7547,-0.01119,,3,3.0
Cl2K,2.804,-0.0094856,,3,3.0
ScCu4,0.0,-0.015199,,3,3.0
Si2Fe3Nd,0.0,-0.020196,,3,3.0
Li2O6SnTe,2.8443,-0.013283,,3,3.0
LiAs2DyIr2,0.0,-0.03963,,3,3.0
NiTaAu2,0.0,-0.0554008,,3,3.0
CrCo2Rh,0.0,-0.0217069,,3,3.0
CaAgTe3Dy,0.8452,-0.0346789,,3,3.0
TeCs2Au2,1.1861,-0.050911,,3,3.0
LiP2Pd2Gd,0.0,-0.0256142,,3,3.0
Al2ScAu,0.0,-0.0255706,,3,3.0
CaNi2Zn,0.0,-0.0140797,,3,3.0
CaSb2La2,0.0,-0.0352674,,3,3.0
Al7Ag2Nd3,0.0,-0.0211745,,3,3.0
K2Ag3Pb,0.0,-0.0311816,,3,3.0
O2CuSr2I2,0.0,-0.0227485,,3,3.0
LiSiEr2,0.0,-0.0286345,,3,3.0
F6EuTb,0.0,-0.0191653,,3,3.0
Li8O4F2Mn,1.7588,-0.0068647,,3,3.0
Si3SmIr,0.0,-0.0300152999999999,,3,3.0
LaNdBi,0.0,-0.0559336,,3,3.0
VWRe,0.0,-0.0530388,,3,3.0
In3Sn2Ho3Pt,0.0,-0.0440358,,3,3.0
RbCdHg2,0.0,-0.0470116,,3,3.0
CSiNb2,0.0,-0.0221348,,3,3.0
CdDy2Pb,0.0,-0.0509812,,3,3.0
NInEr2,0.0,-0.0371164,,3,3.0
FeGa5Tm,0.0,-0.0220900999999999,,3,3.0
CoHfPt2,0.0,-0.0560665,,3,3.0
CuZnRu2,0.0,-0.0245837,,3,3.0
Cl6Rb2Pb,1.4294,-0.0197942,,3,3.0
GaAgPt2,0.0,-0.0473508,,3,3.0
F6NaK2La,6.6043,-0.0119503,,3,3.0
Ga2CdEr2,0.0,-0.0334169,,3,3.0
AgTb2Pb,0.0,-0.0507231,,3,3.0
B2CdIr3,0.0,-0.0433245,,3,3.0
In2Ba,0.0,-0.0360936,,3,3.0
As2TeI,0.0,-0.0286035,,3,3.0
SiTeIr,0.6262,-0.0399413,,3,3.0
Li3O6AlCo2,2.4388,-0.0094995,,3,3.0
Zn2Dy2Hg,0.0,-0.0386413,,3,3.0
Al5MnHf,0.0,-0.0174112,,3,3.0
FBr2Cs,2.2512,-0.0215364,,3,3.0
Ru2Tm3Pt,0.0,-0.0501439,,3,3.0
PdInSm,0.0,-0.0377941,,3,3.0
BrAg2Te,0.0,-0.0300375,,3,3.0
O7P2Zn2,4.367,-0.0105306,,3,3.0
CFSc2,0.0,-0.0122787,,3,3.0
Mg2AlSi2,0.0,-0.007549,,3,3.0
Mn2InPa2,0.0,-0.0539797,,3,3.0
Cr2Ge2Pa,0.0,-0.0351255,,3,3.0
S4MnCs2Pb,0.0,-0.0269716999999999,,3,3.0
O2NaAs,2.2162,-0.0108114,,3,3.0
C2InTb3,0.0,-0.0327289,,3,3.0
NiTmPt2,0.0,-0.0531004,,3,3.0
CuILu,0.0,-0.036587,,3,3.0
SiPt3,0.0,-0.0557111,,3,3.0
O4K3Fe,0.723,-0.0100923,,3,3.0
Zn2LaCe,0.0,-0.028952,,3,3.0
SiSeNb,0.0,-0.0217646,,3,3.0
F3Ag2,0.0,-0.0158272,,3,3.0
EuHg2Bi,0.0,-0.0676817,,3,3.0
CuAs2Nd,0.0,-0.0257389,,3,3.0
MnPdAg2,0.0,-0.0286511,,3,3.0
NCl3Er2,2.3731,-0.0247297,,3,3.0
CoLaTl,0.0,-0.0444802,,3,3.0
GaBr3Nd3,0.0,-0.0308667,,3,3.0
CSi2Mn2Nd2,0.0,-0.0225284,,3,3.0
As2SmAu,0.0,-0.0393728,,3,3.0
ScLa2,0.0,-0.0334324,,3,3.0
B2CaCo2,0.0,-0.0121707,,3,3.0
Ni2In3Nd,0.0,-0.0296647999999999,,3,3.0
AlZnEr2,0.0,-0.030905,,3,3.0
H4O2Cl2Mn,2.7488,-0.0079647,,3,3.0
YLaOs4,0.0,-0.0599698,,3,3.0
CaCd2Ac,0.0,-0.0406858,,3,3.0
GaPm,0.0,-0.0308309,,3,3.0
HSe,1.2202,-0.0117044,,3,3.0
BRh6Tl2,0.0,-0.0394889999999999,,3,3.0
CGe2Sm2W2,0.0,-0.0400358,,3,3.0
N2O5,1.3421,-0.0071794,,3,3.0
Li8O5FFe,1.6066,-0.0069092,,3,3.0
P2Cu2Sn,0.0,-0.0173860999999999,,3,3.0
AlIn8,0.0,-0.0304329999999999,,3,3.0
KCaTl2,0.0,-0.0410535,,3,3.0
MnGa5Ce,0.0,-0.0210862,,3,3.0
GaRh2Tm2,0.0,-0.0385711,,3,3.0
PCu5,0.0,-0.0143383,,3,3.0
Sr2CdAu2,0.0,-0.0434401,,3,3.0
SrSn2Pb2,0.0,-0.0494232,,3,3.0
NCo3Cd,0.0,-0.0182517,,3,3.0
NiRuPu2,0.0,-0.0677103,,3,3.0
O4WHg,2.4004,-0.0287502,,3,3.0
F6CdTh,6.0965,-0.0219497,,3,3.0
Si2CuTm,0.0,-0.0223368,,3,3.0
Ge2ErIr2,0.0,-0.047066,,3,3.0
LiSbTl2,0.0,-0.0462541999999999,,3,3.0
F6NaRb2Gd,6.2833,-0.0160534,,3,3.0
OSeAgNd,1.6009,-0.0274506,,3,3.0
Sc8Mo,0.0,-0.0164006,,3,3.0
O4NdLu,2.7625,-0.0237703999999999,,3,3.0
CuGa5Lu,0.0,-0.0221193999999999,,3,3.0
InTeAu5,0.0,-0.0595261,,3,3.0
Sc3MnCu2,0.0,-0.0154387,,3,3.0
Se2SmEu,0.0,-0.0367266,,3,3.0
Ni6GaGe,0.0,-0.0168457,,3,3.0
Al3In2Ho3Os,0.0,-0.0349483,,3,3.0
RuIn3Sn2Pr3,0.0,-0.0381328,,3,3.0
OKRb,1.9138,-0.012904,,3,3.0
LiPd2Sb2Th,0.0,-0.0406047999999999,,3,3.0
Ge2Pd2Nd,0.0,-0.0304134,,3,3.0
F2ICs,2.8253,-0.0223937,,3,3.0
Ni2SrRh,0.0,-0.0221934,,3,3.0
Ga3SrPd,0.0,-0.0215184,,3,3.0
MnGa3Ge2Nd3,0.0,-0.026958,,3,3.0
Li2In2Bi,0.0,-0.0302913,,3,3.0
AgSb2Tb,0.0,-0.0388542,,3,3.0
GePd2Th,0.0,-0.0460275,,3,3.0
Al2FeAu,0.0,-0.02617,,3,3.0
AuHgTh,0.0,-0.0784189,,3,3.0
Li2NaAg2,0.0,-0.0144535,,3,3.0
F3MnCs,2.9338,-0.0163038,,3,3.0
RuSb2Ho,0.0,-0.0403123,,3,3.0
CoZrPt2,0.0,-0.0480142,,3,3.0
O4YEu,0.0,-0.0204724,,3,3.0
NbTaRe2,0.0,-0.0609385,,3,3.0
CZr3Sn,0.0,-0.0284423,,3,3.0
ZnSe2Cd,1.2948,-0.0217638,,3,3.0
Al2La,0.0,-0.0200719,,3,3.0
F5K2Ti,0.0,-0.0096029,,3,3.0
Si2RuRh,0.0,-0.0229206,,3,3.0
H4SrCs2,3.1948,-0.0163771,,3,3.0
BeNiZr,0.0,-0.0174208,,3,3.0
Zr2MoRe,0.0,-0.0420439,,3,3.0
LiCl2Cu,2.3831,-0.0096256,,3,3.0
CoGa3Lu2,0.0,-0.0301096,,3,3.0
SiMnPt2,0.0,-0.0430245,,3,3.0
LiNi2YSb2,0.0,-0.0235522,,3,3.0
Li2O6GeTe,3.8066,-0.0116049,,3,3.0
O2BrAg,0.0,-0.0158206,,3,3.0
H2CoRh,0.0,-0.0143951,,3,3.0
Ge2YPt2,0.0,-0.0423804,,3,3.0
F6K3La,6.4235,-0.0123818,,3,3.0
YPd,0.0,-0.03133,,3,3.0
Ni2InPa,0.0,-0.0416439,,3,3.0
GdIr2,0.0,-0.0679054,,3,3.0
ErIrPt2,0.0,-0.0664288,,3,3.0
SrCeHg2,0.0,-0.0514039,,3,3.0
Te2Hf,0.0,-0.0465748,,3,3.0
F6PdTb,0.7334,-0.0154303,,3,3.0
BCRhPu,0.0,-0.0407065,,3,3.0
Ga2Cd2La,0.0,-0.0279061,,3,3.0
NaAuPb,0.0,-0.0500887,,3,3.0
P4Ru6Cd,0.0,-0.0260205,,3,3.0
LiSrBa2,0.0,-0.0259211,,3,3.0
Zn3LuAu2,0.0,-0.0396057,,3,3.0
O2CuSeCs5,1.1173,-0.0275096999999999,,3,3.0
Al4Si2Mo3,0.0,-0.0176418,,3,3.0
O4FePt,0.0,-0.0199638,,3,3.0
NaCl3Ag,0.0,-0.0128918,,3,3.0
H5IrPu2,0.0,-0.0388392,,3,3.0
Zn2As2Ce,0.0,-0.0230754,,3,3.0
CGe2Mo2Pr,0.0,-0.0273175999999999,,3,3.0
Ni4CuLa,0.0,-0.020732,,3,3.0
Ti3Fe,0.0,-0.0166438,,3,3.0
S2TaTl,0.0,-0.040491,,3,3.0
CHgTh2,0.0,-0.0679007,,3,3.0
GeRuTa,0.0,-0.0405567,,3,3.0
F6K3Mn,1.4798,-0.0094365,,3,3.0
O3ILa,0.7007,-0.0217177,,3,3.0
F6CoRbCs2,2.9793,-0.0162673999999999,,3,3.0
NiBr4I2Cs2,0.5922,-0.0280708,,3,3.0
SGeHf,0.0,-0.0316378,,3,3.0
H8FeNi2Er,0.0,-0.010863,,3,3.0
DyIr2Pu,0.0,-0.0756368999999999,,3,3.0
ErPb2Th,0.0,-0.0749479999999999,,3,3.0
Na2Rb2Cs,0.0,-0.017498,,3,3.0
O4TiPr,0.5925,-0.0172022,,3,3.0
F6MnSn,1.6415,-0.0121574,,3,3.0
NOAl2La6,0.0,-0.0301677999999999,,3,3.0
CoOs2,0.0,-0.0535417,,3,3.0
CCa2Co,0.0,-0.011677,,3,3.0
Ca3Zn2,0.0,-0.0114367,,3,3.0
BPt4U,0.0,-0.0658444,,3,3.0
B2BaIr3,0.0,-0.045021,,3,3.0
Sc2SeI2,0.0,-0.0259025,,3,3.0
Zn2Tb,0.0,-0.0250808,,3,3.0
Y2Ru,0.0,-0.0305793,,3,3.0
O7Rb2Zr2Ba,0.0,-0.0182411,,3,3.0
Rh2Sn3Tm3,0.0,-0.0422776,,3,3.0
Mn5Ga3,0.0,-0.0177737,,3,3.0
Al7Ba3Au2,0.0,-0.0263727,,3,3.0
KBa3Hg,0.0,-0.0392509,,3,3.0
Al2Nd2Tl,0.0,-0.0354931,,3,3.0
FRb3Sb,0.0,-0.0219696,,3,3.0
CAlTb3,0.0,-0.0320742,,3,3.0
C5Hf6,0.0,-0.0397980999999999,,3,3.0
Be4FeTc,0.0,-0.0120646,,3,3.0
Al5SiSr5,0.0,-0.0148484999999999,,3,3.0
Ge2Zr2Ir,0.0,-0.0351141,,3,3.0
PCoSe,0.1371,-0.0163931,,3,3.0
Al3Ge2Dy3Au,0.0,-0.0312984,,3,3.0
LiO10Sr2Nb3,2.1613,-0.0159792,,3,3.0
SmAuHg2,0.0,-0.0630511,,3,3.0
FeAs2La6,0.0,-0.0359177,,3,3.0
CrGa3Ge2Lu3,0.0,-0.0308466,,3,3.0
LiF3Cu,0.0,-0.0079353,,3,3.0
Br2SbEu2,0.0,-0.0384131,,3,3.0
N2SHf2,1.1506,-0.0327490999999999,,3,3.0
MgCdPb2,0.0,-0.0467937,,3,3.0
Cl6Ag3Lu,3.3794,-0.0210499,,3,3.0
O6SrBa2Ir,0.3687,-0.0232728,,3,3.0
SiCo3Lu2,0.0,-0.0292243999999999,,3,3.0
GeTmTa,0.0,-0.0464742999999999,,3,3.0
SCl2AsAg,0.393,-0.0158062,,3,3.0
Al3Si2CuSm3,0.0,-0.0219696999999999,,3,3.0
MgZn2Ce,0.0,-0.0194572,,3,3.0
SrIr,0.0,-0.0470959,,3,3.0
HGeSnBa,0.0,-0.0248885,,3,3.0
PBr2Ho2,0.0,-0.0314113,,3,3.0
LiCoGaIr,0.0,-0.0272036,,3,3.0
AsI3Ba3,0.9162,-0.0373235,,3,3.0
O6TeBa2Eu,0.0,-0.0233043,,3,3.0
ScCoPt2,0.0,-0.0439249,,3,3.0
AlMn2U,0.0,-0.0371562,,3,3.0
OCl4SnTa,0.0,-0.0215831,,3,3.0
S2InTl,0.4757,-0.0318813,,3,3.0
H4BCs,5.8656,-0.0103174,,3,3.0
H5Ba2Pt,0.0,-0.0214591,,3,3.0
Co5Cu,0.0,-0.0168619,,3,3.0
CuPr2Ir,0.0,-0.0437628,,3,3.0
Pd2Tl,0.0,-0.0461669,,3,3.0
Al4YPt,0.0,-0.0224096,,3,3.0
Cu2Ge2Gd,0.0,-0.0260591,,3,3.0
K2Br6InSb,0.0,-0.0215204999999999,,3,3.0
Ru2Sn2La,0.0,-0.0373682,,3,3.0
Ru2La3,0.0,-0.040008,,3,3.0
SbTl5,0.0,-0.0665171,,3,3.0
H3CrTa,0.0,-0.019094,,3,3.0
In5TbOs,0.0,-0.0410868,,3,3.0
Fe3Ge2Dy,0.0,-0.023739,,3,3.0
Mg2YTh,0.0,-0.0334362,,3,3.0
Ti2As2Cs,0.0,-0.0228461,,3,3.0
Ga2CdTh2,0.0,-0.0515023,,3,3.0
O6AlTaPb2,3.3304,-0.0287212,,3,3.0
PBrTb2,0.0,-0.0324784,,3,3.0
Al3Si2RhNp3,0.0,-0.0445131,,3,3.0
PdPa,0.0,-0.066673,,3,3.0
NiGe2In3Nd3,0.0,-0.0324241,,3,3.0
O10K2Ti3Nd2,2.7066,-0.015894,,3,3.0
Ag2BaPt,0.0,-0.0434646,,3,3.0
RhSbSm,0.0,-0.0395333,,3,3.0
CoGe,0.0,-0.0183686,,3,3.0
O3F2Te2,3.5729,-0.0158375,,3,3.0
Li2PdPb2,0.0,-0.0382580999999999,,3,3.0
NaSnTl2,0.0,-0.0463421,,3,3.0
SrAgTe3Tb,0.9239,-0.0366978,,3,3.0
CrTa,0.0,-0.042529,,3,3.0
Ni2Y2Pb,0.0,-0.0333638,,3,3.0
BeRh2In2,0.0,-0.0281734,,3,3.0
NiSr2,0.0,-0.0201712,,3,3.0
P4FeGe4,1.1641,-0.0152547999999999,,3,3.0
ZrAg,0.0,-0.0311981,,3,3.0
In3Nd3Pt2,0.0,-0.0474124,,3,3.0
Al3RhDy3Pb2,0.0,-0.0399212,,3,3.0
O6ScBa2Tb,0.0,-0.0207514,,3,3.0
Si4Pd3Eu2Ir,0.0,-0.0325813,,3,3.0
HLi3Al,0.0,-0.0037971,,3,3.0
Si2Ga3Ho3Ir,0.0,-0.0327862,,3,3.0
ZrHfOs2,0.0,-0.0601169,,3,3.0
AlAs2Sn,0.0,-0.0211583,,3,3.0
O6Na7Nb,3.3154,-0.0090155999999999,,3,3.0
CaGa2Nd,0.0,-0.0220523,,3,3.0
TiTe2,0.0,-0.0309096,,3,3.0
I,1.1513,-0.0367404999999999,,3,3.0
Cl4K2Zn,3.9737,-0.0106516,,3,3.0
B2Ni2Y,0.0,-0.0156221,,3,3.0
O2FePb,0.0,-0.0277069,,3,3.0
TbIrBi,0.0,-0.0662793,,3,3.0
Y2RhPt,0.0,-0.0411136,,3,3.0
GeIPr,0.0,-0.0342412,,3,3.0
HLiO3Nd2,2.3414,-0.01875,,3,3.0
Li2F6Pt,3.1855,-0.0130047,,3,3.0
BaPt2Hg2,0.0,-0.0637664,,3,3.0
Ca2Zn2In,0.0,-0.0163808,,3,3.0
Ag2CdHo,0.0,-0.0358472,,3,3.0
GeYNb,0.0,-0.0274559,,3,3.0
AlSc6Tl2,0.0,-0.0268339,,3,3.0
Cl3NiRb,2.2552,-0.0137254,,3,3.0
CuY2Pd,0.0,-0.0265584,,3,3.0
SiMoTc,0.0,-0.0269881,,3,3.0
O3Cs2Np,0.0,-0.0359045,,3,3.0
Cl3GaNd3,0.0,-0.0262052,,3,3.0
Al3Si2Nd3Au,0.0,-0.0277757,,3,3.0
OZnTeEu,0.4229,-0.0294308,,3,3.0
Rh2SnLu,0.0,-0.0406572,,3,3.0
Si3Zn6Sm2,0.0,-0.0186210999999999,,3,3.0
N2ZrTb,0.0,-0.0260241,,3,3.0
Si2TcW,0.0,-0.0315511,,3,3.0
Na2ZnGa,0.0,-0.0096067,,3,3.0
KSe3ZrPt,0.0,-0.0294248,,3,3.0
RhTe2CsHg,0.0,-0.0434414,,3,3.0
As3Nd,0.0,-0.0268046,,3,3.0
NdEr3,0.0,-0.048637,,3,3.0
Ni2Se4Pd,0.0,-0.0210861,,3,3.0
BePMn,0.6574,-0.0114829,,3,3.0
MnNiAs,0.0,-0.0187088,,3,3.0
KSb2Ba,0.0,-0.0313234,,3,3.0
PMnPt5,0.0,-0.0548255,,3,3.0
F6FeDy,1.7009,-0.0141927,,3,3.0
AlFeNi2,0.0,-0.0149879,,3,3.0
Ni3Dy2,0.0,-0.0292753,,3,3.0
O7Ge2EuTb,0.3216,-0.0191848999999999,,3,3.0
MnBi2Np,0.0,-0.0705246,,3,3.0
Mg2AsPm,0.0,-0.01917,,3,3.0
TiAgIn,0.0,-0.0270105,,3,3.0
GeBaPr,0.0,-0.0345781,,3,3.0
Sc6RhTe2,0.0,-0.0224067,,3,3.0
SrTePt,0.0,-0.0445199,,3,3.0
H3SmIr,0.0,-0.0259005,,3,3.0
Si2Co3Nd,0.0,-0.0197976,,3,3.0
O2CrSr,0.0,-0.0157625,,3,3.0
O8P2Cu3,1.0795,-0.0106815,,3,3.0
Al2CoBr8,1.0038,-0.018143,,3,3.0
AsPa,0.0,-0.0609236,,3,3.0
Al4SrRh,0.0,-0.0151635,,3,3.0
Ce2Au,0.0,-0.0532514,,3,3.0
SrAgPb,0.0,-0.043706,,3,3.0
SmEuHg2,0.0,-0.059317,,3,3.0
Li5O4Cu,1.371,-0.0069314,,3,3.0
Si2Ag2Pr,0.0,-0.0256918,,3,3.0
F6InLu,6.6025,-0.0172899,,3,3.0
NTb3Pt,0.0,-0.0453296,,3,3.0
Co3Th,0.0,-0.0369884,,3,3.0
B2Fe5,0.0,-0.0153056,,3,3.0
GaCdPt2,0.0,-0.0472826,,3,3.0
Al3Ag7,0.0,-0.0243804,,3,3.0
Ti3Zr,0.0,-0.0196517,,3,3.0
Cu2Zn2As4Nd3,0.0,-0.0253302,,3,3.0
Al2CuRe,0.0,-0.02577,,3,3.0
F6Cs3Pu,0.0003,-0.0276339,,3,3.0
Pt4TlPb,0.0,-0.0715833999999999,,3,3.0
NiAgAc2,0.0,-0.0572538,,3,3.0
MgNbRh2,0.0,-0.0270113999999999,,3,3.0
S6CrHf3,0.0,-0.0279902,,3,3.0
Co2Ho4Tl5,0.0,-0.0542081,,3,3.0
Co2ZnHf,0.0,-0.0279759999999999,,3,3.0
OCrBr,1.5516,-0.0165641,,3,3.0
N3FeSr,0.0,-0.0141442,,3,3.0
Mg5Nd,0.0,-0.0114682,,3,3.0
Ti3CrSe6,0.0,-0.0198786,,3,3.0
PCl2Ti2,0.0,-0.0132050999999999,,3,3.0
Ga3Rh2Er,0.0,-0.0286477,,3,3.0
LiK2Br6Tl,0.8647,-0.0220992,,3,3.0
Ru2LaPu,0.0,-0.0559698,,3,3.0
Sc3Ru2Ag,0.0,-0.0245899,,3,3.0
Ni2CuHo3,0.0,-0.032811,,3,3.0
LiTe2Au,0.0,-0.0369781,,3,3.0
FeGa2Ho,0.0,-0.0254334999999999,,3,3.0
ZnGa2Tm2,0.0,-0.0306126,,3,3.0
Ni2Ge2Gd,0.0,-0.0266083,,3,3.0
GeCe2Ir3,0.0,-0.0545630999999999,,3,3.0
PdTm3Os2,0.0,-0.0559903,,3,3.0
N2MnCo,0.0,-0.0138154,,3,3.0
B2O6CaHo,0.0,-0.0140746,,3,3.0
Ga2RuPr,0.0,-0.0283219,,3,3.0
Al2Pd3Tb,0.0,-0.0277787,,3,3.0
NiSr2Pt2,0.0,-0.0409405,,3,3.0
PClCa2,1.6988,-0.0113058999999999,,3,3.0
Ni2DyTl,0.0,-0.0385063999999999,,3,3.0
Li2GeAc,0.0,-0.0289027,,3,3.0
O4MnIr,0.0,-0.020557,,3,3.0
MnIn5La,0.0,-0.0329975,,3,3.0
Co2Ga5Zr4,0.0,-0.0222822999999999,,3,3.0
LiF6In3,3.1809,-0.014757,,3,3.0
Tb5Pu,0.0,-0.0571924,,3,3.0
Mg2RhHo,0.0,-0.0237415,,3,3.0
Pm3Sm,0.0,-0.0440889,,3,3.0
NiTl2Th6,0.0,-0.0820481999999999,,3,3.0
Li6S5AsI,1.503,-0.0103291,,3,3.0
PHfIr,0.0,-0.0492705,,3,3.0
RhSb2Nd6,0.0,-0.0419007999999999,,3,3.0
B2Ta2Ir,0.0,-0.04459,,3,3.0
Al5Mn2Ce,0.0,-0.015342,,3,3.0
Ga2RuTh,0.0,-0.0415127999999999,,3,3.0
O6CuSb2,0.0267,-0.0154808,,3,3.0
Se2Lu,0.0468,-0.0334752,,3,3.0
O2SnIBi,1.3054,-0.0337733,,3,3.0
GaHo2Ir2,0.0,-0.0523864,,3,3.0
O7Gd2Pb2,1.4298,-0.0305141,,3,3.0
H4Li4Au,0.0,-0.0106328,,3,3.0
LiGa4Ce,0.0,-0.0192881,,3,3.0
MgTl2Ac,0.0,-0.0604788,,3,3.0
Be2P2La,0.0,-0.0153935,,3,3.0
NaCl2I,1.64,-0.0153069,,3,3.0
Ag2TmHg,0.0,-0.0459862,,3,3.0
LiO4CoSn,2.1916,-0.0132984,,3,3.0
MgSnTm2,0.0,-0.0365414,,3,3.0
TbTl2,0.0,-0.0642654,,3,3.0
Y3Au2,0.0,-0.0453273,,3,3.0
H4LiO5SK,5.4057,-0.0069463,,3,3.0
Al2As4Sr3,1.5078,-0.0192422,,3,3.0
PdAgTe4,0.0,-0.0357262,,3,3.0
MgGa3Ba,0.0,-0.0191677,,3,3.0
H10B6N,6.2885,-0.0054966999999999,,3,3.0
H6ZnBa2,2.1316,-0.0130437,,3,3.0
Al3Y2Ru,0.0,-0.0196637,,3,3.0
H3MgK,3.192,-0.0051040999999999,,3,3.0
V6CoIr,0.0,-0.0245909,,3,3.0
Zn2CdTh2,0.0,-0.050045,,3,3.0
Al2YTb,0.0,-0.0229583,,3,3.0
MgAsAg,0.0,-0.0192129,,3,3.0
HNi,0.0,-0.009822,,3,3.0
H8Mg2CaNi,0.0,-0.0055660999999999,,3,3.0
Cr2Rh3,0.0,-0.0276308,,3,3.0
B2N3Ni2Pa3,0.0,-0.0386158,,3,3.0
FeNb2Os,0.0,-0.0393033,,3,3.0
Co2LaOs,0.0,-0.0374471,,3,3.0
Li2InIr,0.0,-0.0276678,,3,3.0
Cl6K3Eu,0.0,-0.0148076,,3,3.0
Li2ZnIr,0.0,-0.0226481,,3,3.0
O6Se2RbTl3,3.5091,-0.0273523,,3,3.0
N2RbTa,2.7923,-0.0275956,,3,3.0
AlNi8,0.0,-0.015428,,3,3.0
ClCoZr,0.0,-0.0196572,,3,3.0
HTi3Cd,0.0,-0.0166279,,3,3.0
P2Cu2RbLa,0.0,-0.0199812,,3,3.0
O4YU,0.0,-0.0297772,,3,3.0
Al3Si2Y3Re,0.0,-0.022652,,3,3.0
CrCo2Ni,0.0,-0.0171971,,3,3.0
F6Na2Pd,2.6659,-0.0091363,,3,3.0
Si2SnTh2,0.0,-0.0500798,,3,3.0