formula,bg,formation_energy,mp-id,fidelity,bg_category
Se3Pd2Cs,0.9436,-0.0279981,,3,3.0
BeF6RbDy,8.3759,-0.0143196,,3,3.0
HMgSr3,0.0,-0.0151882,,3,3.0
Cu2YLu,0.0,-0.0287259999999999,,3,3.0
LiNiCuGa,0.0,-0.0127103,,3,3.0
Co2CuGe2,0.0,-0.0177369,,3,3.0
Cl3SnGd3,0.0,-0.0353159,,3,3.0
CaIn2Sm,0.0,-0.0308449999999999,,3,3.0
F6NaCs2Tl,4.2776,-0.0199709,,3,3.0
PCl6K2,0.0,-0.0096388,,3,3.0
Be2As2Lu,0.0,-0.0215233,,3,3.0
O8KMn4,0.0,-0.0122904,,3,3.0
SmBi2,0.0,-0.0678957,,3,3.0
YSnAu,0.2808,-0.0454532,,3,3.0
CdSnSb2,0.0732,-0.0352508,,3,3.0
Ge2YIr2,0.0,-0.0426122,,3,3.0
SiLa2Tl,0.0,-0.0427563,,3,3.0
O6Mg2VW,0.2618,-0.0160616,,3,3.0
Ti6OsBi2,0.0,-0.0364456,,3,3.0
O7KAs2Tm,4.0985,-0.015275,,3,3.0
O4Na3As,3.7707,-0.009087,,3,3.0
Co5Ta3,0.0,-0.0358220999999999,,3,3.0
Ni2RhPu,0.0,-0.0441723,,3,3.0
Ga2PdIr,0.0,-0.0345977,,3,3.0
KRb3Ag,0.0,-0.0203079,,3,3.0
Cl2,2.458,-0.0079737,,3,3.0
B2CRh2La,0.0,-0.0233072,,3,3.0
F6CeTb,0.0,-0.0182646,,3,3.0
Rh5Ta4,0.0,-0.0489159999999999,,3,3.0
Al3Pu,0.0,-0.0335754,,3,3.0
PdTm2Pt,0.0,-0.0529592,,3,3.0
YIn2Pu,0.0,-0.0514656,,3,3.0
AlK3As2,1.0138,-0.0128308,,3,3.0
O6Sr2SmPt,0.0,-0.0220782,,3,3.0
FeGa3Dy2,0.0,-0.0276749,,3,3.0
Li2TmTl,0.0,-0.0325897999999999,,3,3.0
Se3Cs2Hf,1.7907,-0.0346751999999999,,3,3.0
ZnGe2Tm2,0.0,-0.0318426,,3,3.0
H3NO3NaP,5.8799,-0.0074630999999999,,3,3.0
Ga3Ge2RhLa3,0.0,-0.0286799,,3,3.0
ZnAgLu2,0.0,-0.0393209,,3,3.0
Na2Mg2SrSn2,0.0,-0.0164086,,3,3.0
O6Sr2ZrRh,0.0,-0.017407,,3,3.0
AlS2Ag,2.4632,-0.0154943,,3,3.0
LiSnLu,0.0,-0.0318892,,3,3.0
CsAuHg3,0.0,-0.0625763,,3,3.0
PSeY,0.1849,-0.0210460999999999,,3,3.0
Cu2BaBi2,0.0,-0.0457981,,3,3.0
NbSnSm,0.0,-0.0383917,,3,3.0
P2Ni2RbLu,0.0,-0.0223659,,3,3.0
RuRhOs,0.0,-0.0467606,,3,3.0
Si3Cr3Nb2,0.0,-0.0193514,,3,3.0
Al4CuPr,0.0,-0.0153546999999999,,3,3.0
ZnHo2Au2,0.0,-0.0508469,,3,3.0
Al3Ge2RhLa3,0.0,-0.0258193,,3,3.0
SiCl2Lu2,0.0,-0.0290003,,3,3.0
Al3Si2Sm3Au,0.0,-0.0280938,,3,3.0
OFe2Se2Sr,0.0,-0.0188202,,3,3.0
Li4Sb4Tb3,0.0,-0.0280713,,3,3.0
NiGa5Y,0.0,-0.0185019999999999,,3,3.0
NaIn2Pm,0.0,-0.0291937,,3,3.0
C5Ni3Sr4,0.0,-0.0158419,,3,3.0
S3KZnZr,0.0,-0.0149515999999999,,3,3.0
ZnCd2Ba,0.0,-0.028771,,3,3.0
N4Si3,4.9595,-0.0109402,,3,3.0
F4K2Ag,1.309,-0.0111579,,3,3.0
Al5FeTb,0.0,-0.015176,,3,3.0
Al2Ag3Ho,0.0,-0.026746,,3,3.0
MgKSe3Dy,2.7363,-0.0219758,,3,3.0
Be2Ti2Ru,0.0,-0.0155237,,3,3.0
Mg2SrPd2,0.0,-0.0202128,,3,3.0
Sr2Pd2Pb,0.0,-0.0378937,,3,3.0
P4ZnRh6,0.0,-0.0241341,,3,3.0
Sc8Zn,0.0,-0.0141373,,3,3.0
MoPt2,0.0,-0.0588669,,3,3.0
CuIn4Pt2,0.0,-0.041713,,3,3.0
YPd2,0.0,-0.0320054,,3,3.0
CaAgSn2,0.0,-0.0286161999999999,,3,3.0
Ti3Pd2,0.0,-0.0231824,,3,3.0
GeRu3Eu2,0.0,-0.0387652,,3,3.0
Fe2RhAu,0.0,-0.0349568,,3,3.0
In5SmOs,0.0,-0.0407782,,3,3.0
RbSbPb,0.4433,-0.0449878,,3,3.0
B4Ti3,0.0,-0.0121009,,3,3.0
Cl3Rb,2.9655,-0.0122428,,3,3.0
ZnIn2Nd,0.0,-0.031435,,3,3.0
Y3Rh2,0.0,-0.0310415,,3,3.0
Al2Si2Fe,0.0,-0.0108463999999999,,3,3.0
CaBaPt4,0.0,-0.055893,,3,3.0
Br3SnPr3,0.0,-0.0335390999999999,,3,3.0
BFe4Pr,0.0,-0.0206417,,3,3.0
TiSbPu,0.0,-0.0548595,,3,3.0
O6Sr2CdAu,0.0,-0.019679,,3,3.0
MgY2Rh,0.0,-0.0241595,,3,3.0
N2GeEu,0.4316,-0.0235635,,3,3.0
As2Pd2Eu,0.0,-0.0328254,,3,3.0
AlSe2Ag,1.6418,-0.0205257,,3,3.0
CrMnRu,0.0,-0.0237021,,3,3.0
F6Rb2Ir,0.5721,-0.0172488999999999,,3,3.0
O6MgSc2Pt,2.8045,-0.0167878,,3,3.0
NiSnNd,0.0,-0.0325709,,3,3.0
Ga4Nb2Gd,0.0,-0.0277711,,3,3.0
Co5Ho,0.0,-0.0225957,,3,3.0
BeMgSi,0.0,-0.0064459,,3,3.0
In2BaPt,0.0,-0.0449058,,3,3.0
OF5ZnCs2Tl,1.8005,-0.0208154,,3,3.0
GaRuSm2,0.0,-0.035461,,3,3.0
Ga2PrTb,0.0,-0.0313405,,3,3.0
BCr,0.0,-0.0134238999999999,,3,3.0
PdSnAu2,0.0,-0.0518943,,3,3.0
Mg6Si3Gd2,0.0,-0.0163811,,3,3.0
OKI4Ta,1.0067,-0.0338636,,3,3.0
PNiLu,0.0,-0.0286137,,3,3.0
GaPdPr,0.0,-0.0317514,,3,3.0
CoLu6Bi2,0.0,-0.0567754,,3,3.0
Al2Dy2Hg,0.0,-0.0364253,,3,3.0
RhSm2Ir,0.0,-0.0492784,,3,3.0
PI2Eu2,0.0,-0.0397891,,3,3.0
LiAsBa2,0.0,-0.0261764,,3,3.0
MgInGd,0.0,-0.0328879,,3,3.0
O4Al2Ca,5.7445,-0.0105315999999999,,3,3.0
Ga2Ru2Th,0.0,-0.0401744,,3,3.0
In2PrTh,0.0,-0.0519202,,3,3.0
CoTc8,0.0,-0.0329924,,3,3.0
AlFe8Zr3,0.0,-0.0206681,,3,3.0
O2F6Au,0.4479,-0.0121324,,3,3.0
Rb2SnBi2,0.0,-0.047216,,3,3.0
Al7La3Au2,0.0,-0.0275473,,3,3.0
Lu2Au2Pb,0.0,-0.0659409,,3,3.0
BTmPt2,0.0,-0.0511178,,3,3.0
KHgTl4,0.0,-0.0610360999999999,,3,3.0
SBrSm,3.142,-0.026754,,3,3.0
ZnZr6Sn2,0.0,-0.0304299,,3,3.0
GdPt5,0.0,-0.0690592,,3,3.0
NCa2CoCd,0.0,-0.0157702,,3,3.0
O6Ca2ZnMo,2.8187,-0.0130784,,3,3.0
O3K2Pu,0.0,-0.0265919999999999,,3,3.0
Na2PAg,0.9393,-0.0129764,,3,3.0
RhPb4,0.0,-0.0674569,,3,3.0
NaSi2Ir2,0.0,-0.0339809,,3,3.0
Li3Sb2Nd,0.0,-0.021796,,3,3.0
NiGe3Pr,0.0,-0.0240301,,3,3.0
Sc5Hg3,0.0,-0.034959,,3,3.0
CaGeI4,2.5856,-0.0303088,,3,3.0
Ni2Ga3Dy,0.0,-0.0221761,,3,3.0
Bi,0.0,-0.0785791,,3,3.0
MgBa2Ir,0.0,-0.0390161,,3,3.0
BPd6La2,0.0,-0.033051,,3,3.0
SiZr2Ir,0.0,-0.036655,,3,3.0
GaNdPt2,0.0,-0.0512057,,3,3.0
N2Mg2Fe,0.0,-0.0099603,,3,3.0
Si4Fe3CoNd2,0.0,-0.020463,,3,3.0
RuPu,0.0,-0.0724831,,3,3.0
BaPtPb3,0.0,-0.0680216,,3,3.0
CaZn2Ga2,0.0,-0.0143161,,3,3.0
MnZnRu2,0.0,-0.0254689,,3,3.0
Ru2In3Th3,0.0,-0.0576869999999999,,3,3.0
ErLuTl2,0.0,-0.0630681999999999,,3,3.0
Te2AuBi,0.6572,-0.055575,,3,3.0
HK2TeCs,2.6323,-0.0198324,,3,3.0
CMn2Ge2Y2,0.0,-0.0207497,,3,3.0
B5W2Ir3,0.0,-0.0393654,,3,3.0
Cu4GaHf,0.0,-0.023466,,3,3.0
SbTe3La4,0.0,-0.0418766,,3,3.0
Mn2As5Pr4,0.0,-0.0295359,,3,3.0
F6S2Hg3Pb,2.7615,-0.0280207,,3,3.0
Al5Sr5In,0.0,-0.0170168,,3,3.0
O2F2Co,0.9491,-0.0085295,,3,3.0
OPZnTb,1.5285,-0.0213107,,3,3.0
O6Ca2ScMo,0.0,-0.0136709,,3,3.0
Ni2TlTh,0.0,-0.0504755,,3,3.0
CuHo2Os,0.0,-0.0466706,,3,3.0
Ge2TbPt2,0.0,-0.0461488,,3,3.0
In2HoTm,0.0,-0.0424869,,3,3.0
Eu2HgTl,0.0,-0.0626452,,3,3.0
O3CoCs,0.0,-0.0158173,,3,3.0
AgInPr,0.0,-0.0365643,,3,3.0
NiIn2,0.0,-0.0277944,,3,3.0
LaHf2Ir2,0.0,-0.0631893999999999,,3,3.0
S3Au2,0.4286,-0.0334473,,3,3.0
O4ScTm,2.8238,-0.0182862,,3,3.0
Na2In2Hg,0.0,-0.0288558999999999,,3,3.0
Ga2Nb2Ta,0.0,-0.033584,,3,3.0
O6MgCoSm2,0.7564,-0.0177536999999999,,3,3.0
Pd3Pu,0.0,-0.0525783,,3,3.0
LiP2Co2Tb,0.0,-0.0183205,,3,3.0
Mg2AlS8Cr3,1.8689,-0.0120338999999999,,3,3.0
CuTcLu2,0.0,-0.0404936,,3,3.0
NiYZr2,0.0,-0.0265211,,3,3.0
Zn2Pd3Th,0.0,-0.0375124,,3,3.0
O2Sc3,0.0,-0.0135359,,3,3.0
O6MgNbPr2,0.722,-0.0194611,,3,3.0
LiS2KCo,0.0866,-0.010527,,3,3.0
SnAu2,0.0,-0.0581697,,3,3.0
FeGa2Nb6,0.0,-0.0279912,,3,3.0
Tb6WBi2,0.0,-0.0568034,,3,3.0
Li2O8Mn3Co,0.0,-0.0111988,,3,3.0
Li3O8CrCu4,0.0,-0.0099642,,3,3.0
CoSe3NbCs,0.0,-0.0255926,,3,3.0
O7FSb3,0.0,-0.0159192,,3,3.0
LiAlK2Bi2,0.8011,-0.0311296,,3,3.0
Zn2Eu,0.0,-0.0272625,,3,3.0
O4NbU,0.0,-0.0298739,,3,3.0
O4CaCu2Se2Bi2,0.0,-0.0249808999999999,,3,3.0
B2Rh3Pr,0.0,-0.0273384999999999,,3,3.0
HClSm,0.0,-0.0202232,,3,3.0
Mn2Rh3Nd,0.0,-0.0308019,,3,3.0
CaSr2Tl,0.0,-0.0319626,,3,3.0
NaHg2Tl2,0.0,-0.0571485,,3,3.0
S4K2Ru3,0.495,-0.0183979,,3,3.0
Ga5LuOs,0.0,-0.0303296999999999,,3,3.0
ZnGa2Tm,0.0,-0.0250438,,3,3.0
Zn2SrSb2,0.0,-0.0252975,,3,3.0
N2TiCe,0.0,-0.0215379,,3,3.0
RhPdEr2,0.0,-0.0428537,,3,3.0
CaAgTl,0.0,-0.0382045,,3,3.0
Zr2RhPt,0.0,-0.042511,,3,3.0
Sb4Au5,0.0,-0.0548947999999999,,3,3.0
H4DyPt,0.0,-0.0225115,,3,3.0
AlRuLa,0.0,-0.0291252,,3,3.0
O9CaNb2Ba3,3.1677,-0.0198741,,3,3.0
OScCuSe,1.6039,-0.0159507999999999,,3,3.0
LiY2Rh2,0.0,-0.0257965,,3,3.0
MgAlAg2,0.0,-0.0191052,,3,3.0
BCScCo,0.0,-0.0127631,,3,3.0
LuHg2,0.0,-0.0644195,,3,3.0
As2W,0.0,-0.0366817,,3,3.0
SiTc2,0.0,-0.0271809,,3,3.0
As2RuTm6,0.0,-0.0437811,,3,3.0
HSiTi3,0.0,-0.0128435,,3,3.0
Ru2AgNd3,0.0,-0.0388988,,3,3.0
HNaPd3,0.0,-0.0213525,,3,3.0
CrFe2Ru,0.0,-0.0223501,,3,3.0
Ni2GaTe3,0.0,-0.0269586,,3,3.0
BAl2Fe2Dy,0.0,-0.0182475,,3,3.0
MgSn5,0.0,-0.0306526,,3,3.0
KSe2Au,1.1164,-0.030148,,3,3.0
LiSe6Nb3,0.0,-0.0231596,,3,3.0
FeIn2Ho6,0.0,-0.0423587,,3,3.0
GaSe2Gd,0.056,-0.0301462,,3,3.0
CSiSm3,0.0,-0.0311039,,3,3.0
ZnSb2Dy6,0.0,-0.0423068,,3,3.0
Ag4InTl,0.0,-0.0384433999999999,,3,3.0
Sb2Hg,0.0,-0.0475424999999999,,3,3.0
F6CeHo,0.0,-0.0185585999999999,,3,3.0
Pd2In2Sm,0.0,-0.0360442,,3,3.0
CuYPt2,0.0,-0.0467703,,3,3.0
O6Sr2TbHf,0.0,-0.0224697,,3,3.0
PdAgBa2,0.0,-0.0361784,,3,3.0
LiN3Mn2,0.0,-0.0116085999999999,,3,3.0
Si4Sm3Au4,0.0,-0.0418362,,3,3.0
Li3O8Mn4,0.0,-0.0108691999999999,,3,3.0
Al3Si2CrLu3,0.0,-0.0259276,,3,3.0
CaZnLa2,0.0,-0.0274999,,3,3.0
VAsZr,0.0,-0.0237624,,3,3.0
Lu2Pt2Pb,0.0,-0.0666251,,3,3.0
PTiTc2,0.0,-0.0247193,,3,3.0
CuSrIn6,0.0,-0.0299873,,3,3.0
Mg2Al3Si,0.0,-0.0071813,,3,3.0
O8V3YBa2,0.0,-0.0179013999999999,,3,3.0
RhSn5Sm3,0.0,-0.0392749,,3,3.0
Ga5PrIr,0.0,-0.0286736,,3,3.0
Si2CoRhDy,0.0,-0.0247766,,3,3.0
ZnPdLu,0.0,-0.034719,,3,3.0
LaPr3,0.0,-0.0432612999999999,,3,3.0
F5Cr2,0.591,-0.0107232,,3,3.0
Al2Se4Sr,3.6194,-0.0183189,,3,3.0
PCl2Nd2,0.0,-0.0248876,,3,3.0
Al5Sr5Tl,0.0,-0.0205699,,3,3.0
CrFe2Ge,0.0,-0.0185787,,3,3.0
CuBr6SbCs2,0.4333,-0.0256348,,3,3.0
O3RuBa,0.0,-0.0206498,,3,3.0
CoNiPt2,0.0,-0.0436535,,3,3.0
Sn2Ba,0.0,-0.0378161,,3,3.0
OAgTeDy,1.7124,-0.0326931,,3,3.0
OPdSm3,0.0,-0.036082,,3,3.0
In3IPt,0.0959,-0.0419973,,3,3.0
Se2InTl,0.8724,-0.0370705,,3,3.0
B4NbTb,0.0,-0.0189754,,3,3.0
PdSb2,0.0,-0.036175,,3,3.0
OSeBaHg,0.7388,-0.0350289,,3,3.0
Cu3Pd2Gd,0.0,-0.0287728,,3,3.0
O6CaCoLa2,0.0,-0.0179449,,3,3.0
H2CuRh2,0.0,-0.017879,,3,3.0
F6MgRu,0.0,-0.010243,,3,3.0
H2O3Mn2,0.4505,-0.0104161,,3,3.0
DyIrPb,0.0,-0.0656241,,3,3.0
O8P2RbBi,1.2426,-0.0161282,,3,3.0
LiLaOs2,0.0,-0.0474312,,3,3.0
HNi3Rh,0.0,-0.01707,,3,3.0
S8Ti5In,0.0,-0.0150715,,3,3.0
S3Cu2Tm,0.0,-0.0195464,,3,3.0
CCdNd2,0.0,-0.0321389,,3,3.0
O4MgS,6.4049,-0.0088106,,3,3.0
B7FeDy3,0.0,-0.0200492,,3,3.0
TiGa5Rh,0.0,-0.0193043,,3,3.0
O7Y2Zr2,4.9008,-0.0183661,,3,3.0
CSiTa3,0.0,-0.0445712,,3,3.0
OSeCd2,0.2156,-0.0226685,,3,3.0
O8K3Ta,3.9028,-0.0133757,,3,3.0
MgSrTl,0.0,-0.0336888,,3,3.0
RbBa2Bi2,0.0,-0.0522310999999999,,3,3.0
Ca2Pd2Au,0.0,-0.0315642,,3,3.0
ZnDy2Pt,0.0,-0.0457929,,3,3.0
Cl2SbLa2,0.0,-0.0299077,,3,3.0
S4BaNd2,2.2034,-0.0259469,,3,3.0
FeSn2La6,0.0,-0.039191,,3,3.0
O6TiSr2Ir,0.0,-0.0195655,,3,3.0
CoGa2Hf,0.0,-0.0286881999999999,,3,3.0
Ga3Ge2Sm3Pt,0.0,-0.0332515,,3,3.0
Cl6NiTl2,0.4554,-0.0240405,,3,3.0
MnGa2Ce,0.0,-0.0243593,,3,3.0
F6NaPd,0.0,-0.0089441,,3,3.0
CoIn4,0.0,-0.0301297,,3,3.0
N6V2Sm3,0.0,-0.0219516999999999,,3,3.0
LiRh2Ho,0.0,-0.0303266,,3,3.0
Al3PdIr2,0.0,-0.0341885,,3,3.0
Al2TlTh2,0.0,-0.0562734,,3,3.0
BC2Y2,0.0,-0.0172633,,3,3.0
Br3Sr3Sb,1.7683,-0.0251681,,3,3.0
F6Cs3Gd,5.5504,-0.022777,,3,3.0
Cl6SnCs2,3.0832,-0.0194103,,3,3.0
Co2Ga5Tm4,0.0,-0.0299292,,3,3.0
FeHf3Re2,0.0,-0.0584431,,3,3.0
AgInAu4,0.0,-0.0569365,,3,3.0
MgGa2Tb,0.0,-0.0216475,,3,3.0
InPt2U,0.0,-0.0698853,,3,3.0
Al3CrTm2,0.0,-0.024714,,3,3.0
CoIn2Th6,0.0,-0.0735251,,3,3.0
CoIn4Sm,0.0,-0.0328588999999999,,3,3.0
O6Ca2SmW,0.0,-0.0200884,,3,3.0
SeEr2,0.0,-0.0414553999999999,,3,3.0
BS3Sm,2.6204,-0.0176043,,3,3.0
H3CoTm,0.0,-0.0164351999999999,,3,3.0
ScZr2Au,0.0,-0.0366685,,3,3.0
O4CrEr,0.0,-0.0185065999999999,,3,3.0
B2CYPd2,0.0,-0.0203341,,3,3.0
ScNi4Sn,0.0,-0.0195406,,3,3.0
C2S4FeNb4,0.0,-0.0198789,,3,3.0
AlCo2Tb,0.0,-0.0225813,,3,3.0
PmPt3,0.0,-0.0645700999999999,,3,3.0
InErPt2,0.0,-0.0571596,,3,3.0
NaS3NiHf,0.0,-0.0199926,,3,3.0
OZnAsCe,0.0,-0.0230988,,3,3.0
O6MoBa2Tm,0.0,-0.0234319,,3,3.0
Ni2Zn3Pu,0.0,-0.0306544999999999,,3,3.0
H4O10Ca2ZnAs2,4.055,-0.0097127,,3,3.0
ScCrMn,0.0,-0.0169046,,3,3.0
Ga5RuCe,0.0,-0.0235696,,3,3.0
O9P3KNi,3.5482,-0.0103173,,3,3.0
Cl2NbTe2,0.4168,-0.0255444999999999,,3,3.0
Mg2ZnPb,0.0,-0.0249299,,3,3.0
NiGeSe,0.0,-0.0187606,,3,3.0
CsHg3,0.0,-0.0608726,,3,3.0
Nb2InIr2,0.0,-0.0488874,,3,3.0
GaRh2Th2,0.0,-0.0560783,,3,3.0
P2KGa2,0.0,-0.012717,,3,3.0
Co2Ga3La,0.0,-0.0215845,,3,3.0
InTeTh,0.0,-0.0563767,,3,3.0
AlBr3Gd3,0.0,-0.0359052,,3,3.0
As2AuPa,0.0,-0.0529427,,3,3.0
CuIn3Ba,0.0,-0.0313932,,3,3.0
NiGa2Y6,0.0,-0.0243970999999999,,3,3.0
Cu4Ge2Er3,0.0,-0.0283599,,3,3.0
LiTiPd2,0.0,-0.0215783999999999,,3,3.0
NaTe2Pr,1.3803,-0.0320221,,3,3.0
H2CaSb2,0.0,-0.0185749999999999,,3,3.0
DyTmPb2,0.0,-0.0634254,,3,3.0
ZrI4,1.9638,-0.036523,,3,3.0
NaGa4Lu,0.0,-0.0212809,,3,3.0
TiSn3Pr,0.0,-0.0340116,,3,3.0
VFe2Ge,0.0,-0.0184389,,3,3.0
B2Tm,0.0,-0.0229662,,3,3.0
NZr3Tl,0.0,-0.035801,,3,3.0
Li2Au2Hg,0.0,-0.0426902,,3,3.0
S3CaYAg,1.9741,-0.0180641,,3,3.0
O6Mn2BaNd,0.0,-0.0185424,,3,3.0
Al6Ag,0.0,-0.011158,,3,3.0
ZnGeZr,0.0,-0.021682,,3,3.0
BO3Gd,4.435,-0.0202727,,3,3.0
MnNb2Te4,0.0,-0.0338789,,3,3.0
Se2HfPb,0.0,-0.0456871,,3,3.0
ZnTl2Pb,0.0,-0.0583937,,3,3.0
BaLaPt2,0.0,-0.0568434,,3,3.0
SiPd,0.0,-0.021971,,3,3.0
O3MnCo,0.8157,-0.0126691,,3,3.0
H3NO6Sr2,3.1058,-0.0101684,,3,3.0
Fe4InTm,0.0,-0.0263733,,3,3.0
MgAgSn,0.0,-0.0243227,,3,3.0
H2GeNb2,0.0,-0.0187216999999999,,3,3.0
PFe2Pm,0.0,-0.0231194,,3,3.0
TiSn3Nd,0.0,-0.0340447,,3,3.0
O4Ca2Hf,4.3218,-0.0188435,,3,3.0
As3Cd,0.0,-0.0227876,,3,3.0
CSiFe2Er,0.0,-0.0218237999999999,,3,3.0
Sr3In4Ir4,0.0,-0.0445307,,3,3.0
PdTm2Ir,0.0,-0.0530287999999999,,3,3.0
I9Cs3Bi2,2.1652,-0.0439639999999999,,3,3.0
AlMn4Mo,0.0,-0.0193746,,3,3.0
BaAuTl,0.0,-0.0610353,,3,3.0
Al2CoZr,0.0,-0.0164583,,3,3.0
Li2SiNd,0.0,-0.0149743,,3,3.0
MnSeI,0.0,-0.0257051,,3,3.0
Al6SrPd,0.0,-0.0131626,,3,3.0
SrSb2La2,0.0,-0.0377439,,3,3.0
CaSe2Pd2,0.0,-0.0238546,,3,3.0
O4Cu2As2Se2Sm,0.0,-0.0178174,,3,3.0
GeAs2Au,0.0,-0.0321955,,3,3.0
NiErPt,0.0,-0.0464899,,3,3.0
Y2Sb2La,0.0,-0.0357246,,3,3.0
Ca2Ge2Ir,0.0,-0.0264375,,3,3.0
RuIn5Dy,0.0,-0.0360349,,3,3.0
Al3Au2,0.0,-0.0329092,,3,3.0
Ti2Hf2Tl,0.0,-0.0459312,,3,3.0
Si3PdLu,0.0,-0.0242720999999999,,3,3.0
SeBiTh,0.0,-0.0660325,,3,3.0
OMn,0.0,-0.0141259,,3,3.0
PZnTb,0.0,-0.0244465,,3,3.0
ZnAg2Eu,0.0,-0.0327049,,3,3.0
NaAs2Pd2Tb,0.0,-0.0270241,,3,3.0
Ti2Ga4Sm,0.0,-0.0208994,,3,3.0
SiCuGd2,0.0,-0.0361306,,3,3.0
Al2Co2Tm,0.0,-0.0207737,,3,3.0
B2N3Ir2Th3,0.0,-0.0486278,,3,3.0
Cr3Co5,0.0,-0.0175572,,3,3.0
Ga2Cd2Nd,0.0,-0.0279521,,3,3.0
SiS4Ag2Eu,0.7211,-0.0215869,,3,3.0
Tb3Pt4,0.0,-0.0615489,,3,3.0
ZnTb6Pb2,0.0,-0.0500296,,3,3.0
CTi3As,0.0,-0.0166954,,3,3.0
GdHoBi,0.0,-0.0628499,,3,3.0
CEr2Pb,0.0,-0.0473327,,3,3.0
LiO4MnCs2,1.9806,-0.0171765,,3,3.0
Se3In4Sb,0.0,-0.0292724,,3,3.0
NaTeCs,2.6556,-0.0276122,,3,3.0
ZrAg4,0.0,-0.0312879,,3,3.0
Pr2IrPt,0.0,-0.0579007999999999,,3,3.0
Ga3Pb,0.0,-0.0311147,,3,3.0
O6FeZrBa2,0.0,-0.0193866,,3,3.0
Cl6CuRb2Sb,0.8077,-0.0155478,,3,3.0
Si2EuIr,0.0,-0.0370922,,3,3.0
O7Si2ScEu,0.2363,-0.0152509999999999,,3,3.0
FeSb2Sm,0.0,-0.0347774,,3,3.0
Zn2Nb2In,0.0,-0.0254405,,3,3.0
S2EuTl,0.0,-0.0376605,,3,3.0
Mg2SrTl2,0.0,-0.0358098,,3,3.0
CSi2Mo2Gd,0.0,-0.0268887,,3,3.0
HOClMn,2.4698,-0.0105074,,3,3.0
Mg2SrAu2,0.0,-0.0349343,,3,3.0
Ca3Ga4Ge2,0.0,-0.015271,,3,3.0
MnNi4Pa,0.0,-0.0308499,,3,3.0
K3Ag3Bi2,1.1546,-0.0348414,,3,3.0
TiZn3,0.0,-0.0144088999999999,,3,3.0
RhAgNd2,0.0,-0.0386004999999999,,3,3.0
LiBa2Au2,0.0,-0.0446505,,3,3.0
ScCo2Ge,0.0,-0.0174494,,3,3.0
Ti2FeRe,0.0,-0.0307362,,3,3.0
CV2As,0.0,-0.0169235,,3,3.0
NaCaGa4,0.0,-0.0135976999999999,,3,3.0
O6NaHo2W,0.6958,-0.0238753,,3,3.0
EuErTl2,0.0,-0.0627295,,3,3.0
AlZrRuIr,0.3967,-0.0371989,,3,3.0
F6ScRb3,7.1196,-0.0132737,,3,3.0
S3TiNiRb,0.0,-0.0149098,,3,3.0
Co2GaPa2,0.0,-0.0504196,,3,3.0
Rh2SbHo,0.0,-0.0392716,,3,3.0
PTh,0.0,-0.0547682,,3,3.0
CoNb,0.0,-0.0252781999999999,,3,3.0
NDy,0.2855,-0.0305471,,3,3.0
Li3SrBi2,0.0,-0.0317744,,3,3.0
Sc2NiAg,0.0,-0.0193969999999999,,3,3.0
Cd2SnBa2,0.0,-0.0356719999999999,,3,3.0
CoNi2Te2,0.0,-0.0248959,,3,3.0
HSe2Ir,1.0479,-0.0288544,,3,3.0
B2Er,0.0,-0.0224416,,3,3.0
CAlTh3,0.0,-0.0613151,,3,3.0
Be3O4Sr,4.5539,-0.0105629,,3,3.0
N3O6KHg,1.6172,-0.0133842,,3,3.0
Ca5In,0.0,-0.0138198,,3,3.0
Te3Cs2Tb,0.0,-0.0403397999999999,,3,3.0
N2ZrPu,0.0,-0.0415033,,3,3.0
Rh2Nd2Tl,0.0,-0.0461199,,3,3.0
O6Mg2K3Bi,2.3617,-0.0144855,,3,3.0
O6Ba2SmPt,0.0,-0.0255934999999999,,3,3.0
Zn2LaAu3,0.0,-0.0468609,,3,3.0
GeLuIr2,0.0,-0.054959,,3,3.0
ONa4I2,2.8985,-0.0152246,,3,3.0
Y2Rh2Pb,0.0,-0.0406525,,3,3.0
Ca2BrLa,0.0,-0.0212381,,3,3.0
I2Tb,0.0,-0.0414626,,3,3.0
S2Pa,0.0,-0.0412726,,3,3.0
Pd2CeHg,0.0,-0.0451854,,3,3.0
LiO12Ba4Bi3,0.6739,-0.0254655,,3,3.0
SeTl3,0.0,-0.0595227,,3,3.0
Zn2Pd3Tm,0.0,-0.0301956,,3,3.0
Zr2AgIr,0.0,-0.0415062,,3,3.0
LiMgAu2,0.0,-0.0371186,,3,3.0
CoHf6Pb2,0.0,-0.0608181999999999,,3,3.0
HBr2Tm,4.1616,-0.0252205,,3,3.0
Cu3Sb2,0.0,-0.0239683999999999,,3,3.0
Br4PdTl2,0.8359,-0.0371723,,3,3.0
CdAu2Ac,0.0,-0.0655429,,3,3.0
FICs2,4.3936,-0.0311924999999999,,3,3.0
Li4P2Ho,0.0,-0.0122753,,3,3.0
O7Na2BaTa2,2.6158,-0.0216319,,3,3.0
V6GaGe,0.0,-0.0178763,,3,3.0
O4Cl3SrBi3,0.7417,-0.0295212,,3,3.0
CrGa5Lu,0.0,-0.0225926,,3,3.0
Ho2AuTl,0.0,-0.0606689,,3,3.0
NiPr2Pt2,0.0,-0.0495952,,3,3.0
Si4W3,0.0,-0.0358335,,3,3.0
Cu3Nb,0.0,-0.0196111,,3,3.0
S3SbBi,1.1772,-0.0292133,,3,3.0
AlRu2Hf,0.0,-0.035938,,3,3.0
KTiI3,0.0,-0.027995,,3,3.0
Sc2Ag3,0.0,-0.0248535,,3,3.0
As2LaPt2,0.0,-0.045924,,3,3.0
PdPm2Pt,0.0,-0.0488232,,3,3.0
AlPCr,0.189,-0.0125808,,3,3.0
F7Na3Nd,0.1498,-0.0104765,,3,3.0
HgTl2,0.0,-0.0709659,,3,3.0
RhIn3Sn2Tb3,0.0,-0.0392439,,3,3.0
O4CaSb2,2.6153,-0.017491,,3,3.0
PPd2Pm,0.0,-0.0308244,,3,3.0
P2Rh2Eu,0.0,-0.0294857,,3,3.0
Ti2VTe4,0.0,-0.0290877,,3,3.0
Ca2ZnAs2,1.1734,-0.0157474,,3,3.0
Sc2As2Ba,0.0,-0.022895,,3,3.0
AgInLu,0.0,-0.0405268,,3,3.0
F4Th,7.4318,-0.0263618999999999,,3,3.0
Pd2HoEr,0.0,-0.0422344,,3,3.0
ScLaHg,0.0,-0.042435,,3,3.0
ScMnGa2,0.0,-0.0168726999999999,,3,3.0
Si3FeSm,0.0,-0.0189625,,3,3.0
CdHg2Th,0.0,-0.0659996,,3,3.0
BeZnRh,0.0,-0.0177266,,3,3.0
Pd2HoBi,0.0,-0.0490767,,3,3.0
Co2Sb2Nd,0.0,-0.0310302,,3,3.0
Mg2CaBi2,0.5753,-0.0359555,,3,3.0
H2OCl2Co,1.2016,-0.0087238,,3,3.0
Al2CoIr,0.0,-0.0269514,,3,3.0
O4BaPu,0.1345,-0.031973,,3,3.0
Ge3EuOs,0.0,-0.0370308,,3,3.0
B4Er2Os5,0.0,-0.0449793999999999,,3,3.0
Cr8Fe,0.0,-0.0182907,,3,3.0
Ca2ZnAg2,0.0,-0.0193609,,3,3.0
Si2Ga3Dy3Ir,0.0,-0.0323853999999999,,3,3.0
ScTiRu2,0.0,-0.0257608,,3,3.0
CaPtHg,0.0,-0.0501321999999999,,3,3.0
Li4O8Ni3Te,0.6775,-0.0107311,,3,3.0
H8Mg2NiLa,0.0,-0.0084045,,3,3.0
NiCd2Er,0.0,-0.0321765,,3,3.0
AlCdSm,0.0,-0.0280107,,3,3.0
O4CuBi2,0.2443,-0.0291454999999999,,3,3.0
C2MoTm,0.0,-0.0271098,,3,3.0
CaAu2Th,0.0,-0.0618371,,3,3.0
Ag2Cd3Lu,0.0,-0.0350088,,3,3.0
LiPb7,0.0,-0.0666918,,3,3.0
Tb,0.0,-0.0467615,,3,3.0
RhTeGd,0.0578,-0.0445001,,3,3.0
KZnSe3Pr,2.3066,-0.022466,,3,3.0
P2Se6AgBi,1.5091,-0.0253217,,3,3.0
NaSe3Nd2,0.0,-0.0272415,,3,3.0
Sc2ZnY,0.0,-0.0176723,,3,3.0
SiPtTh,0.0,-0.0600185,,3,3.0
O8P2ScSr,0.0,-0.0118437,,3,3.0
Zr2RuRh,0.0,-0.0333391,,3,3.0
PdAgEu2,0.0,-0.0433893,,3,3.0
GaRh2La2,0.0,-0.034902,,3,3.0
Mg2CdSb,0.0,-0.0195743,,3,3.0
SiCuRh,0.0,-0.0202439999999999,,3,3.0
NaSnNd,0.0,-0.0284413,,3,3.0
CdInHo,0.0,-0.0381265,,3,3.0
PdSnSm,0.0,-0.0387561,,3,3.0
RuEr,0.0,-0.0430894,,3,3.0
CoSb2La6,0.0,-0.0395786,,3,3.0
PmTl3,0.0,-0.065694,,3,3.0
SeBrU,0.0,-0.0488623,,3,3.0
Co2Ga5Np,0.0,-0.0281306,,3,3.0
ZnTb2,0.0,-0.0359745,,3,3.0
Ni2WOs,0.0,-0.0434998999999999,,3,3.0
O7Cu3As,0.5195,-0.0106753,,3,3.0
Cu2GaPr,0.0,-0.0229113,,3,3.0
Li2As2Au,0.0,-0.023361,,3,3.0
NiTaOs,0.0,-0.0519681,,3,3.0
H3RuTb,0.0,-0.0189578,,3,3.0
FeCo2Se4,0.0,-0.0192882,,3,3.0
ScLa3,0.0,-0.0358551,,3,3.0
Nd3Pb2,0.0,-0.0572296,,3,3.0
H2Sr2I,0.0,-0.0185205,,3,3.0
Mg2P2Nd,0.0,-0.0159617,,3,3.0
O7P2KY,5.9188,-0.0121136,,3,3.0
O5In2I2Ba3,1.8912,-0.0263943,,3,3.0
SbBaPt,0.0,-0.05012,,3,3.0
MgGaPa,0.0,-0.0404326,,3,3.0
O5Ba2Tm2,2.3115,-0.0271733,,3,3.0
BNU,0.0,-0.0411463,,3,3.0
InSmIr,0.0,-0.0504673,,3,3.0
PSe3Cd,1.639,-0.0205984,,3,3.0
KSbCs2,0.6033,-0.0308016,,3,3.0
NO2Na2As,3.3192,-0.009698,,3,3.0
SbCeAu2,0.0,-0.0557907,,3,3.0
Al3Si2Fe,0.0,-0.0104298,,3,3.0
Be2Ge2La,0.0,-0.0184496,,3,3.0
LiO6Y2W,0.4832,-0.01953,,3,3.0
MgP2Co2,0.0,-0.0126437,,3,3.0
Al3Si2Y3Rh,0.0,-0.0187893,,3,3.0
O6SrI2,3.533,-0.015978,,3,3.0
F6SnU,0.0,-0.0231356,,3,3.0
S2CuCs2,0.0,-0.022876,,3,3.0
Zn2As2Sr,0.5774,-0.0186904,,3,3.0
KScPb2,0.0,-0.0440089,,3,3.0
Sc2RhPd,0.0,-0.0248285,,3,3.0
RhIn5Hf,0.0,-0.0378986,,3,3.0
Mg2PrOs,0.0,-0.0313972,,3,3.0
SeZrSb,0.0,-0.030384,,3,3.0
Dy3Ir2Tl3,0.0,-0.0634858,,3,3.0
NiHoPb,0.0,-0.047534,,3,3.0
KSnTe2,0.0,-0.0302899999999999,,3,3.0
ClCoHo,0.0,-0.0260047999999999,,3,3.0
AlFeNiHf,0.0,-0.02674,,3,3.0
N2Ga3Lu7,0.0,-0.0389699,,3,3.0
S4Cu2Ge,0.0,-0.0128289,,3,3.0
CoRh2,0.0,-0.0282495,,3,3.0
Si2PrOs2,0.0,-0.0421916,,3,3.0
SrSb2Pt,0.0,-0.0426388,,3,3.0
CoZn4Y,0.4448,-0.016733,,3,3.0
SiFe3Dy2,0.0,-0.0269605,,3,3.0
BCo2Ga2Ce,0.0,-0.0203269,,3,3.0
S8Ti3FeCu2,0.0,-0.0135085,,3,3.0
O6SeSrBa2,3.1471,-0.0182222,,3,3.0