formula,bg,formation_energy,mp-id,fidelity,bg_category
Zn6Ge3Dy2,0.0,-0.0217108999999999,,3,3.0
O6Sr2SbLu,4.4221,-0.0204712999999999,,3,3.0
ZnNd2Os2,0.0,-0.0491659999999999,,3,3.0
Mg2Ge2Ba,0.0,-0.0180572,,3,3.0
Si7Co2Sm3,0.0,-0.0204458,,3,3.0
P2BaPb2,0.1182,-0.0429413,,3,3.0
ScMnSe3Tl,0.4622,-0.0287331,,3,3.0
SrBaIr4,0.0,-0.0578744,,3,3.0
Li2BO5Bi,0.3957,-0.0153414,,3,3.0
RhSn2Th6,0.0,-0.0762272,,3,3.0
B2Ti2Cr,0.0,-0.0137452,,3,3.0
O2CuTb,2.9525,-0.0212017,,3,3.0
SiFeTc2,0.0,-0.0249397,,3,3.0
SSbPt,0.0,-0.0395126,,3,3.0
K2Br6Rh,0.0,-0.0196562,,3,3.0
AlCd2Nd,0.0,-0.0284641,,3,3.0
GaRuHo2,0.0,-0.0379309,,3,3.0
B2Al2Co3,0.0,-0.0121462,,3,3.0
ZrAg2,0.0,-0.0312497,,3,3.0
Pd2Ba2Bi,0.0,-0.045304,,3,3.0
Al3RuOs2,0.0,-0.0343399,,3,3.0
F5ZnCs2,0.0,-0.0158525,,3,3.0
H8FeZn2Th,0.0,-0.0141559,,3,3.0
Ge2Zr2Ag,0.0,-0.0268304,,3,3.0
ZnSnTh,0.0,-0.0489765999999999,,3,3.0
PNi2,0.0,-0.0147466,,3,3.0
Al5Ni2Gd,0.0,-0.0168761,,3,3.0
ScHo3,0.0,-0.0402896,,3,3.0
MgCa2Ir2,0.0,-0.0337903,,3,3.0
Rh3Pd3U2,0.0,-0.0514107,,3,3.0
Si4Sr3Rh4,0.0,-0.0228824,,3,3.0
AlPt5Bi,0.0,-0.0629359,,3,3.0
Ca2YAu2,0.0,-0.0379639,,3,3.0
O6MgNiEr2,1.9769,-0.0188064,,3,3.0
O4CoPr,0.3335,-0.0162351,,3,3.0
SeAg8,0.0,-0.030103,,3,3.0
TmTl2Th,0.0,-0.0734142,,3,3.0
Mg2Co2Ge,0.0,-0.0128208,,3,3.0
Zn2TmHf,0.0,-0.0356599,,3,3.0
V2MnFe,0.0,-0.0180428,,3,3.0
ClEr,0.0,-0.0308118,,3,3.0
N3SiP,4.8732,-0.0105621,,3,3.0
SiHf2Ir3,0.0,-0.0592156,,3,3.0
O4VCr,1.3579,-0.0126959,,3,3.0
ClITl2,1.7772,-0.048182,,3,3.0
ScSnTm,0.0,-0.0346922,,3,3.0
ClPdTe2,0.0,-0.0292042,,3,3.0
O6TiGaTa,2.223,-0.0179998,,3,3.0
Mn2GaSm,0.0,-0.02471,,3,3.0
BNEuPt,0.0,-0.036374,,3,3.0
O7Si2TiGd,0.9792,-0.0158496,,3,3.0
PdIn4Tb,0.0,-0.0360491999999999,,3,3.0
Cd2LaPb,0.0,-0.0454172,,3,3.0
KSe2Ac,2.0698,-0.0365985,,3,3.0
LiCl2Cs,6.0983,-0.0161569,,3,3.0
MgY2Ru,0.0,-0.0242163,,3,3.0
SiAu3,0.0,-0.0543757999999999,,3,3.0
MgSc3Pd2,0.0,-0.0195675999999999,,3,3.0
F4Ru,0.1506,-0.0116429,,3,3.0
SiPdDy,0.0,-0.0312559,,3,3.0
Pd2PtPb4,0.0,-0.0629147999999999,,3,3.0
S2KSe,0.0,-0.012156,,3,3.0
MnNi4Y,0.0,-0.0188390999999999,,3,3.0
CaNbTe2,0.0,-0.0298602,,3,3.0
B2O6CoSn,0.0,-0.0125829,,3,3.0
Si2TbIr3,0.0,-0.0477752,,3,3.0
H2O2Mn,1.0368,-0.0089472,,3,3.0
Li2B2O6Fe,0.0,-0.009064,,3,3.0
AlPrAu,0.0,-0.0410486999999999,,3,3.0
P2Cr2Pa,0.0,-0.0321741,,3,3.0
AsPr2,0.0,-0.0366734,,3,3.0
BeMgTe2,2.414,-0.0216359,,3,3.0
Ga2Cd,0.0,-0.0209654,,3,3.0
CaIn6Pt,0.0,-0.0354476,,3,3.0
Mg2Rh2Tl,0.0,-0.0303061,,3,3.0
Si2Re2Pa,0.0,-0.0527710999999999,,3,3.0
Ti2NbRh,0.0,-0.0251934,,3,3.0
Ag2La2Hg,0.0,-0.0438429,,3,3.0
Fe2SnTm2,0.0,-0.0354346,,3,3.0
RbPb4,0.0,-0.0650041,,3,3.0
MgSn2Tm2,0.0,-0.0367606,,3,3.0
SrAg,0.0,-0.0271472,,3,3.0
LiTlPb2,0.0,-0.0567638,,3,3.0
FeIr8,0.0,-0.06526,,3,3.0
MgInTh,0.0,-0.0450876,,3,3.0
ZnHfIr,0.0,-0.0499074,,3,3.0
LiMnNi2,0.0,-0.0133981999999999,,3,3.0
InTm2Tl,0.0,-0.0528737,,3,3.0
Ca2NiCu2,0.0,-0.013287,,3,3.0
Ba2PtPb,0.0,-0.0570069999999999,,3,3.0
O8Ca2Mn3,1.7905,-0.0121467,,3,3.0
Ca2ZnGa,0.0,-0.0126896,,3,3.0
HLiSr2Cd,0.0,-0.0165067,,3,3.0
O2F2Cd,2.6495,-0.0113466,,3,3.0
Ge3BaIr,0.0,-0.0342017,,3,3.0
Li2AlSr,0.0,-0.0087683,,3,3.0
RhCd2,0.0,-0.0317031,,3,3.0
Si4Fe4Hf3,0.0,-0.0279297,,3,3.0
Ag2Ce2Hg,0.0,-0.0442558999999999,,3,3.0
Sn2Pt3Bi,0.0,-0.0606629999999999,,3,3.0
CaSrEu2,0.0,-0.0347663,,3,3.0
ZnRu2Np2,0.0,-0.0594311,,3,3.0
AlKSn,0.0,-0.0175616,,3,3.0
AlTiCoCu,0.0,-0.0145619999999999,,3,3.0
NAsBa,0.0154,-0.0238072,,3,3.0
ZnTe2Sm6,0.0,-0.0401645,,3,3.0
O6SbEu2Er,0.5693,-0.0261178,,3,3.0
In2SmTh,0.0,-0.0522047999999999,,3,3.0
Mg3CaNi,0.0,-0.0082101,,3,3.0
F3CaCs,8.0367,-0.0153204,,3,3.0
AlFeTm,0.0,-0.0262345,,3,3.0
Ge2Zr2Au,0.0,-0.0345086999999999,,3,3.0
Ga3Ge2PdPr3,0.0,-0.0286127,,3,3.0
Li2Cl4Cr,1.1941,-0.0096096,,3,3.0
Co2ZnHf3,0.0,-0.0397618,,3,3.0
Zn2SbAu2,0.0,-0.0406723,,3,3.0
Al3Si2Sc3Ni,0.0,-0.0121392,,3,3.0
N3MoLu,1.4519,-0.0247781999999999,,3,3.0
Sb2Lu6Pt,0.0,-0.0539189,,3,3.0
NiCuTb,0.0,-0.0263009999999999,,3,3.0
P2PtPa,0.0,-0.0486056,,3,3.0
Y6RuPb2,0.0,-0.0398875,,3,3.0
Se3Eu,0.0,-0.029584,,3,3.0
Ge2SrPd3,0.0,-0.0272048999999999,,3,3.0
Fe2Ge2Y,0.0,-0.0209117,,3,3.0
PdSnDy,0.0,-0.03988,,3,3.0
Cu2LaPt,0.0,-0.0365185,,3,3.0
NaFe4Sb12,0.0,-0.0308807,,3,3.0
Ge2RhTh,0.0,-0.0428934,,3,3.0
Al3Ca3CrGe2,0.0,-0.0125323,,3,3.0
BeF6RbTm,8.4317,-0.014785,,3,3.0
YAg2Cd2,0.0,-0.0305111,,3,3.0
Al3MnGe2Tm3,0.0,-0.0268501,,3,3.0
O6Al2SiCa,5.4795,-0.0105535,,3,3.0
SrInTl2,0.0,-0.0504664,,3,3.0
ClZnLa2,0.0,-0.028033,,3,3.0
O3NaBi,1.514,-0.0214705,,3,3.0
O6TiNbBa2,0.0,-0.0197811,,3,3.0
Sc4Se3Sn,0.0,-0.0206516,,3,3.0
Mg6Si3Nd2,0.0,-0.0136884,,3,3.0
MnAsMo,0.0,-0.0246734,,3,3.0
Al3ErIr2,0.0,-0.0369689,,3,3.0
O3V2,0.0,-0.0133163,,3,3.0
LiAs2SmIr2,0.0,-0.0390933,,3,3.0
CuSm2Tl,0.0,-0.0444787,,3,3.0
In2PrHo,0.0,-0.0403902,,3,3.0
FeAs2Cs2,0.0,-0.0272024,,3,3.0
MgCoZn,0.0,-0.0120594999999999,,3,3.0
OBr2Pd2,0.5526,-0.0225691999999999,,3,3.0
ZnSnPt,0.0,-0.0404222,,3,3.0
Cl2GeLa2,0.4984,-0.0261692,,3,3.0
O4Cu2Se2NdBi2,0.0,-0.0283461,,3,3.0
Al3Si2Tm3Ir,0.0,-0.0309662,,3,3.0
O6MoBa2Ho,0.0,-0.023115,,3,3.0
Al5LuPt,0.0,-0.024198,,3,3.0
Si3NiTm3,0.0,-0.029677,,3,3.0
N3MoPu,0.0,-0.035368,,3,3.0
ZnTb3Pt2,0.0,-0.0501256,,3,3.0
O4VHo,3.276,-0.018556,,3,3.0
K2As2Cs,0.0,-0.0194013,,3,3.0
H5O6PCa,5.4628,-0.0075692,,3,3.0
Ga8Sr3,0.0,-0.0185134,,3,3.0
AlSr2Pt,0.0,-0.0313489,,3,3.0
S3KMnNd,0.9391,-0.0182702,,3,3.0
Fe8Zn,0.0,-0.0176236,,3,3.0
MgNi4Sr,0.0,-0.0153194,,3,3.0
OSc3Os,0.0,-0.0257729,,3,3.0
Fe2In3Lu3,0.0,-0.0380835,,3,3.0
O6MgSr2Nb,0.0,-0.0148966999999999,,3,3.0
Sn4Pt2Au,0.0,-0.0509287,,3,3.0
ZrAg2In,0.0,-0.0318853,,3,3.0
Ni2Zn3Nd,0.0,-0.0198006999999999,,3,3.0
OZnLa3,0.0,-0.0311924,,3,3.0
NaCl4Au,2.0791,-0.0185117,,3,3.0
Sc2YAu,0.0,-0.031954,,3,3.0
CaAgIn2,0.0,-0.0274058,,3,3.0
S2KPr,2.5792,-0.0198495,,3,3.0
H2ONaI,4.2511,-0.0120193,,3,3.0
Zr2AgLa,0.0,-0.0340212,,3,3.0
PSc2Tl,0.0,-0.0288771,,3,3.0
CuGaHf2,0.0,-0.0395645,,3,3.0
Dy6ReBi2,0.0,-0.0577748,,3,3.0
LiIn4Dy,0.0,-0.0310864,,3,3.0
H6CrNd2,0.0,-0.0145715,,3,3.0
Pd4Ce,0.0,-0.03574,,3,3.0
Co2Y4In5,0.0,-0.028927,,3,3.0
O6Sr2RuLa,0.8286,-0.0185635,,3,3.0
NCa2In,0.0,-0.0163589,,3,3.0
Al4NiU,0.0,-0.0254154,,3,3.0
CoIr7,0.0,-0.0643794999999999,,3,3.0
CaGa2Tm,0.0,-0.0240973,,3,3.0
HRu3Ir,0.0,-0.0357353,,3,3.0
Cu3Pd2Pu,0.0,-0.0370420999999999,,3,3.0
Ga3Ge2Ho3Os,0.0,-0.0348044999999999,,3,3.0
Fe2SrTe4,0.0,-0.0301319,,3,3.0
LiAg2Au,0.0,-0.0338462,,3,3.0
H3LiCa,2.7181,-0.0050571,,3,3.0
F6Te,5.29,-0.0104466,,3,3.0
Co4NiHo,0.0,-0.0225197,,3,3.0
O6MgV2,2.8344,-0.0112748,,3,3.0
Ge2SrCd2,0.0,-0.0246241,,3,3.0
CoY3,0.0,-0.0252449,,3,3.0
AsBa4,0.0,-0.0362293999999999,,3,3.0
Cu2InPu,0.0,-0.0433803,,3,3.0
Cl6PdCs2Au,0.0,-0.0237725,,3,3.0
Y4La,0.0,-0.0308502,,3,3.0
F3KAsBr,4.2641,-0.0119237,,3,3.0
CuRhDy2,0.0,-0.0367989,,3,3.0
ZnEu2Hg,0.0,-0.0477722,,3,3.0
AgSmBi2,0.0,-0.0588135,,3,3.0
HNaCs3,0.0,-0.0242959,,3,3.0
YPt2Pu,0.0,-0.0705556,,3,3.0
ScAsSr,0.0,-0.0199449,,3,3.0
KAg2Tl2,0.0,-0.0431681,,3,3.0
CoCuRh2,0.0,-0.024948,,3,3.0
NdLuAu2,0.0,-0.0603473,,3,3.0
S4CdLu2,1.5605,-0.0275731,,3,3.0
LiTeLa,0.0,-0.0287438,,3,3.0
MgNd2Pb2,0.0,-0.0494664,,3,3.0
Li6O4F2Fe,1.5304,-0.0072009,,3,3.0
O3Rb2,0.0,-0.0130724999999999,,3,3.0
Ni4GaNd,0.0,-0.0210702,,3,3.0
O4PCu,0.8052,-0.0100271,,3,3.0
Cu4CdGd,0.0,-0.0252321,,3,3.0
CoPr3,0.0,-0.0367667,,3,3.0
Li2InTl,0.0,-0.0279791,,3,3.0
Si2ErPt,0.0,-0.0362492,,3,3.0
NMnZr3,0.0,-0.0247580999999999,,3,3.0
PS3Hg,1.9625,-0.0217451,,3,3.0
Fe3Rh4,0.0,-0.0271240999999999,,3,3.0
Ti2MnSe4,0.0,-0.0198567,,3,3.0
Be2Co,0.0,-0.008962,,3,3.0
CrFe2,0.0,-0.0181731,,3,3.0
Li3O8P2Mn,0.5678,-0.0093673,,3,3.0
ZnAg2Lu3,0.0,-0.0408078999999999,,3,3.0
CuGeCe,0.0,-0.0269425999999999,,3,3.0
H3NaMg,4.091,-0.0042174,,3,3.0
Os2IrPt,0.0,-0.0711877,,3,3.0
MgAs2Tl2,0.0,-0.0381523,,3,3.0
MoW,0.0,-0.0522978,,3,3.0
Al3CrGe2La3,0.0,-0.0239049,,3,3.0
AgErHg2,0.0,-0.0549498,,3,3.0
B2FeIr2,0.0,-0.0352935,,3,3.0
Co2In3La3,0.0,-0.0334418,,3,3.0
RbSb2,0.4983,-0.0321042,,3,3.0
Sc,0.0,-0.0142027,,3,3.0
O7Na2LaTa2,0.0,-0.0219701,,3,3.0
PTm,0.0,-0.0329155999999999,,3,3.0
LiPdSn4,0.0,-0.0300794,,3,3.0
N3CrSm,0.4793,-0.0190842,,3,3.0
Pd2In3Tb3,0.0,-0.0391047999999999,,3,3.0
O3FSeY,4.0475,-0.0143107,,3,3.0
LiAs2Rh2Pr,0.0,-0.0266532,,3,3.0
P2Cu2Ho,0.0,-0.0208475,,3,3.0
H4KGa,5.4254,-0.0066638999999999,,3,3.0
O8Na3As2La,4.0412,-0.0125028,,3,3.0
O8P2SrHo,0.0,-0.0147936,,3,3.0
O6Ca2MnRh,0.0,-0.0131512,,3,3.0
TcRh2Re,0.0,-0.0436445,,3,3.0
Co5Ta,0.0,-0.0255281999999999,,3,3.0
O3Sr2Rh,0.0,-0.0184791,,3,3.0
Cu2RhLu,0.0,-0.0303918,,3,3.0
LiP2Co2Y,0.0,-0.0151797,,3,3.0
SiIrPt,0.0,-0.0512755,,3,3.0
Al5Sr5Pb,0.0,-0.0209483,,3,3.0
B9NMg,1.8821,-0.00784,,3,3.0
Pd2Ho3Au,0.0,-0.0479809,,3,3.0
CoGa2Gd,0.0,-0.0277285,,3,3.0
CaCd2Ce,0.0,-0.0291195,,3,3.0
Ge2PdBa,0.0,-0.0283409,,3,3.0
SiCdBa2,0.0,-0.0302279,,3,3.0
SeTe2Pa,0.0,-0.0493767,,3,3.0
NiCu4Tb,0.0,-0.0207767,,3,3.0
C2VLu,0.0,-0.0238454,,3,3.0
Pd2InEu,0.0,-0.0387689,,3,3.0
MgAl4Pd,0.0,-0.0118578,,3,3.0
O6InBa2Re,0.0,-0.0244185,,3,3.0
F7K3Zn2,4.7618,-0.0092028,,3,3.0
Pd5CdSb,0.0,-0.0334842999999999,,3,3.0
C2SiHf3,0.0,-0.0373113,,3,3.0
CdDyHg,0.0,-0.0493806,,3,3.0
O3CaOs,0.0,-0.0219455,,3,3.0
SiCuHo,0.0,-0.0254423,,3,3.0
Ga3Pt2Np,0.0,-0.0499216,,3,3.0
OSTh,1.4707,-0.0405644,,3,3.0
MnNiIr2,0.0,-0.0443875,,3,3.0
HoLuTl2,0.0,-0.0627387,,3,3.0
RhPdPm2,0.0,-0.0394638,,3,3.0
LiAl2Zn2,0.0,-0.0090268,,3,3.0
F7RbLu2,6.965,-0.0196964,,3,3.0
B2N3Pd2Dy3,0.0,-0.0265371999999999,,3,3.0
Sn2CsTl2,0.0,-0.0510479,,3,3.0
H2Mg2Pb,0.0,-0.0187267,,3,3.0
Mn2GeRu,0.0,-0.0229716,,3,3.0
Al3CuSn2Pr3,0.0,-0.0273268999999999,,3,3.0
MgCaIn,0.0,-0.0164508,,3,3.0
LiSm2Pb,0.0,-0.0422263,,3,3.0
Cd2BaPm,0.0,-0.0363812,,3,3.0
Cl6KRb2Eu,0.0,-0.0172579,,3,3.0
Li3As2Tm,0.3556,-0.0176531999999999,,3,3.0
Pd3Te,0.0,-0.0341685,,3,3.0
ZnRhHf2,0.0,-0.043719,,3,3.0
NiCd2Nd,0.0,-0.0304978,,3,3.0
P2Nb,0.0,-0.0187047999999999,,3,3.0
LiSn2I,0.0,-0.0279966,,3,3.0
Cl6RbSbCs2,3.621,-0.0198605,,3,3.0
In3Ho3Ir2,0.0,-0.0494717,,3,3.0
AlAu2,0.0,-0.0491711,,3,3.0
Li4O8AlCr3,2.3671,-0.0102890999999999,,3,3.0
Co3Hf2,0.0,-0.0356963,,3,3.0
Ti2CoRe,0.0,-0.0306346999999999,,3,3.0
KAsY,0.0,-0.0196569,,3,3.0
Ni2Cu3Pu,0.0,-0.0313463,,3,3.0
Mg2HoBi2,0.0,-0.0436379,,3,3.0
F6KRb2Cd,0.0,-0.0126309,,3,3.0
ScCo2Nb,0.0,-0.0207432,,3,3.0
PtBiTh,0.0,-0.0825637,,3,3.0
Cl6Rb2Th,5.4026,-0.0229242999999999,,3,3.0
Te2NdTl,0.5965,-0.0487911,,3,3.0
BeMnNi2,0.0,-0.0140811,,3,3.0
PdTlTh,0.0,-0.0676654999999999,,3,3.0
PdTeBi,0.0,-0.0498935,,3,3.0
CoAs2Er,0.0,-0.0278919,,3,3.0
O2CuEu,0.0,-0.0224557,,3,3.0
BPd6Lu2,0.0,-0.0359354999999999,,3,3.0
Rh2Er,0.0,-0.040164,,3,3.0
SnSm2,0.0,-0.0423117,,3,3.0
F6ScCe,0.4449,-0.0141771,,3,3.0
F6GeRh,1.2141,-0.0113511,,3,3.0
Nb3W,0.0,-0.0422849999999999,,3,3.0
Mg2CeLu,0.0,-0.0274619,,3,3.0
ZrErOs2,0.0,-0.0567484,,3,3.0
O6Ca2ScNb,3.4666,-0.0137644,,3,3.0
CuSe2Dy,0.8066,-0.0271498999999999,,3,3.0
CaCoY2,0.0,-0.0207501,,3,3.0
Te3TmBi,0.9827,-0.0492387,,3,3.0
BeYPt,0.0,-0.0352069,,3,3.0
S2ITl,0.0,-0.0320726999999999,,3,3.0
ZnSrSb2,0.0,-0.0282046,,3,3.0
NBr2Sm2,0.0,-0.0293239,,3,3.0
B2O6CdSn,3.4525,-0.0140238999999999,,3,3.0
CuTaIr,0.0,-0.0513973999999999,,3,3.0
Co4In6Dy,0.0,-0.0289292,,3,3.0
SBr2Pr2,0.0,-0.0291592,,3,3.0
MgY3Rh2,0.0,-0.0267023,,3,3.0
N2Ga3Sm7,0.0,-0.0324722,,3,3.0
GeAgDy,0.0,-0.0334898999999999,,3,3.0
S2Ga2Se,2.8788,-0.0151329,,3,3.0
AlGeZr,0.0,-0.0197686,,3,3.0
NiSe4U,0.0,-0.0339861,,3,3.0
Al3Ge2AgNd3,0.0,-0.0255159999999999,,3,3.0
Cl6K2NiCu,0.0,-0.0109547,,3,3.0
O2FRb2,0.6211,-0.0131282999999999,,3,3.0
As2SrIr2,0.0,-0.0417177,,3,3.0
HRh3Pb,0.0,-0.0361449,,3,3.0
O8RbMo2Ho,4.4461,-0.0184067,,3,3.0
Li4Ag,0.0,-0.0083195,,3,3.0
Co2Rh,0.0,-0.0228126,,3,3.0
InTe2Dy,0.0,-0.0399510999999999,,3,3.0
N2YPr,0.1981,-0.0242027,,3,3.0
S4Rb3Ta,2.9383,-0.0223427,,3,3.0
Al3TmAu2,0.0,-0.0363325,,3,3.0
Cu4AgAu,0.0,-0.026859,,3,3.0
AlNiDy,0.0,-0.0245649,,3,3.0
Li2AlNi,0.0,-0.0074097,,3,3.0
O6Cu2SrLa2,0.0,-0.0185809,,3,3.0
MgZn4Eu,0.0,-0.0190241,,3,3.0
Ag2Dy2Tl,0.0,-0.046541,,3,3.0
Co3Er2,0.0,-0.0307203,,3,3.0
AlMo2Os,0.0,-0.0376803,,3,3.0
P2Rh2Pu,0.0,-0.0405957,,3,3.0
RbSn2Hg2,0.0,-0.045981,,3,3.0
RuPd2Te2,0.0,-0.0352978,,3,3.0
Al3Sr2Ir,0.0,-0.023681,,3,3.0
O3EuTa,0.0,-0.0308515,,3,3.0
CaCuGe3,0.0,-0.0167694,,3,3.0
Al2S4Ni,0.9841,-0.011066,,3,3.0
CSbHf3,0.0,-0.0478558,,3,3.0
LiNaSn2,0.0,-0.0198562,,3,3.0
Ru2RhIr,0.0,-0.0436352,,3,3.0
MnBr3Cs,1.6469,-0.0244489,,3,3.0
MgCoSm,0.0,-0.0222034999999999,,3,3.0
CaRu2Pu,0.0,-0.0473151,,3,3.0
InLa2Ir,0.0,-0.0483811,,3,3.0
Sc2CoLa,0.0,-0.0223909,,3,3.0
CuWPt2,0.0,-0.0566307,,3,3.0
O6NbBa2Er,3.4672,-0.0233629,,3,3.0
H2CNb2,0.0,-0.0170682,,3,3.0
FeAs2Nb6,0.0,-0.0289968,,3,3.0
OAlNd3,0.0,-0.0304015999999999,,3,3.0
Ga6SmIr,0.0,-0.0272738,,3,3.0
F6RuTl2,0.0,-0.0242913999999999,,3,3.0
Cu2SnPr2,0.0,-0.0310831,,3,3.0
Li8Si,0.0,-0.0033201,,3,3.0
Rh5Sm,0.0,-0.0358829,,3,3.0
Ge2RhSm3Tl3,0.0,-0.0475841,,3,3.0
Mn2AsPm,0.0,-0.0255478,,3,3.0
O3NbHg,2.4844,-0.0259997,,3,3.0
ZnAg2Gd,0.0,-0.0339737,,3,3.0
O2BrIn,0.0,-0.0173209,,3,3.0
Fe4YPr,0.0,-0.0238639,,3,3.0
Sc2GaCd,0.0,-0.0193607,,3,3.0
AsSr2Au,0.7424,-0.0346048,,3,3.0
Mg2Sb2Nd,0.0,-0.0263265,,3,3.0
Zn2Ga2Tm,0.0,-0.0227821,,3,3.0
O12Al3Sr3LaTa,0.0,-0.017036,,3,3.0
GaHo2Au,0.0,-0.0467543999999999,,3,3.0
BeNiZr2,0.0,-0.0207755,,3,3.0
CrTaPt2,0.0,-0.0570274,,3,3.0
N3Ce4,0.0,-0.0308472,,3,3.0
Li4O2F2Fe,0.9973,-0.0075602,,3,3.0
BTb3Pb,0.0,-0.0452363,,3,3.0
Ge2PdPr,0.0,-0.029488,,3,3.0
Se4CdTl2,0.3044,-0.0368278,,3,3.0
Li2Ga2Y,0.0,-0.013499,,3,3.0
ScRh2Hg,0.0,-0.0380565,,3,3.0
F6CoHf,1.9237,-0.0159909,,3,3.0
CCl5Er4,0.0,-0.0270513,,3,3.0
LiO4PFe,0.9138,-0.0101967999999999,,3,3.0
AuHg4,0.0,-0.0683218,,3,3.0
Br3Ho2,0.9542,-0.0329059,,3,3.0
AgInAc2,0.0,-0.0618659,,3,3.0
PdCd3Ba,0.0,-0.0330697,,3,3.0
CaYIn,0.0,-0.02417,,3,3.0
S8V6In,0.0,-0.015411,,3,3.0
Al4FeTh,0.0,-0.0245732,,3,3.0
NiCuCd2,0.0,-0.0229635,,3,3.0
S2MnCuRb,0.9051,-0.0157186,,3,3.0
Dy6AuBi2,0.0,-0.0577498,,3,3.0
InPt2Tl,0.0,-0.0619097,,3,3.0
AuHgPb2,0.0,-0.072266,,3,3.0
O8Cs3Ho,0.0,-0.0191249,,3,3.0
Ga3Ge2Dy3Au,0.0,-0.034109,,3,3.0
B2MnNb2,0.0,-0.0204928,,3,3.0
Sr2InHg2,0.0,-0.04346,,3,3.0
CSi2Sc2W2,0.0,-0.0287823,,3,3.0
Mn2FeSe4,0.0,-0.0198145999999999,,3,3.0
SiNi5,0.0,-0.0154313,,3,3.0
K2Sb2Bi,0.0,-0.0343336,,3,3.0
SmOs2,0.0,-0.0630149,,3,3.0
Co2Nb2Pd,0.0,-0.0268919,,3,3.0
B2O10Ni5Sb,0.0,-0.0124713,,3,3.0
FeNi2Se4,0.0,-0.0189487,,3,3.0
F7Ca2Sr,1.2064,-0.0103636,,3,3.0
H3O5Na2P,5.6308,-0.0073865,,3,3.0
FeAsU,0.0,-0.0477401,,3,3.0
PS3Dy4,0.0,-0.0309871,,3,3.0
Ga3Sn2Tm3Os,0.0,-0.0393748,,3,3.0
Cu4Au,0.0,-0.0260386999999999,,3,3.0
F8BaPr2,7.6231,-0.0183621,,3,3.0
AgGd2Os,0.0,-0.0554779,,3,3.0
AlSe4AgSn,1.3648,-0.0227442,,3,3.0
Cu2InBa,0.0,-0.0260325,,3,3.0
LiK2Pt3,0.0,-0.0386452,,3,3.0
F5Ru,1.4014,-0.010586,,3,3.0
O6Nb2Er,0.0,-0.0201486,,3,3.0
Si3ErIr,0.0,-0.0311375,,3,3.0
LiPS4Zn,3.0295,-0.0100489999999999,,3,3.0
Al2Ni3Sr,0.0,-0.0148145,,3,3.0
S2Cu2Cs,0.0,-0.0181788,,3,3.0
Tb2Pt2Tl,0.0,-0.0624324,,3,3.0
S6Nb2Pt,0.0,-0.0225066999999999,,3,3.0
ZrRh2Ho,0.0,-0.037755,,3,3.0
Al3Rh2Th,0.0,-0.0320999,,3,3.0
S2Cl6Pd,1.9264,-0.0114433,,3,3.0
SiPd2Nd2,0.0,-0.0334388999999999,,3,3.0
PCl6Tl2,0.0,-0.0233705,,3,3.0
Li3C2,0.0,-0.0052667,,3,3.0
CoSn2Dy6,0.0,-0.0422425,,3,3.0
LiMnGePd,0.0,-0.0186864999999999,,3,3.0
N2TbHf,0.0,-0.0340266,,3,3.0
H3MgRb,3.4492,-0.0075556,,3,3.0
Li2SiTm,0.0,-0.0170353,,3,3.0
CoSe2Zr6,0.0,-0.0276298,,3,3.0
Al2Ag3Eu,0.0,-0.0275295,,3,3.0
FeSn4Pr2,0.0,-0.0360771,,3,3.0
FeRhIr,0.0,-0.0410829,,3,3.0
ZnY2Pd2,0.0,-0.0278337,,3,3.0
V2Ga4Ho,0.0,-0.0218551999999999,,3,3.0
YCe3,0.0,-0.0402709,,3,3.0
MgAsRh2,0.0,-0.0237572,,3,3.0
Pd3Lu2,0.0,-0.0428186,,3,3.0
PCuPr2,0.0,-0.0289093,,3,3.0
Si2Ni2Gd,0.0,-0.0230696,,3,3.0
O2K2RbAu,2.3613,-0.0210303,,3,3.0
Ni3Zn2Pr,0.0,-0.0201535,,3,3.0
CBr5Dy4,0.0,-0.0314819999999999,,3,3.0
BYRh3,0.0,-0.0281996,,3,3.0
YRuI,0.0,-0.0340604,,3,3.0
MgNi6As4,0.0,-0.0169581,,3,3.0
K2PdTe2,0.9525,-0.0257061,,3,3.0
B2CRh2Dy,0.0,-0.0240944,,3,3.0
CuRh4,0.0,-0.030022,,3,3.0
Al2Zn3Ba,0.0,-0.0161121,,3,3.0
S4K3Cr,0.0,-0.0113533,,3,3.0
Ga5ZrPd,0.0,-0.0212479,,3,3.0
SiSnPt5,0.0,-0.0572852,,3,3.0
TiMoTa,0.0,-0.0393096,,3,3.0
FeZn2Tc,0.0,-0.0200298,,3,3.0
Zr2AgIn,0.0,-0.0318088,,3,3.0
HS2Y,2.3052,-0.0141165,,3,3.0
KSe3ZrAg,0.682,-0.0230149,,3,3.0
OAgTePr,1.9265,-0.0315512,,3,3.0
AlBaAu3,0.0,-0.0516651,,3,3.0
Mg5Cd3,0.0,-0.0146536,,3,3.0
VIr3,0.0,-0.0583461,,3,3.0
Si2Mn2Tm,0.0,-0.0223865,,3,3.0
Ta3Os5,0.0,-0.0702185999999999,,3,3.0
Ca2CdHg2,0.0,-0.0377905,,3,3.0
CdTlTh2,0.0,-0.0737408,,3,3.0
O8Ni2BaLa3,0.0,-0.0207593,,3,3.0
MgSc2In2,0.0,-0.0204986999999999,,3,3.0
Al4ScPt,0.0,-0.0200672,,3,3.0
Ru2SnCe,0.0,-0.0379252,,3,3.0
Ti2Pt2Au,0.0,-0.0492695,,3,3.0
Co3Tb2,0.0,-0.0292293,,3,3.0
FeNiAu2,0.0,-0.0431688,,3,3.0
Co3Zn,0.0,-0.016353,,3,3.0
MgPt2Hg,0.0,-0.0538993,,3,3.0
MgNiZn2,0.0,-0.0122429,,3,3.0
SrBi3,0.0,-0.064989,,3,3.0
ZrPd7,0.0,-0.032958,,3,3.0
SiRuNp,0.0,-0.0510596,,3,3.0
CdPtPa,0.0,-0.0674147,,3,3.0
O4HoNp,0.0,-0.033689,,3,3.0
NiGeIr2,0.0,-0.044508,,3,3.0
O8Mo2CsPr,4.5002,-0.0193154,,3,3.0
C5Co3Er4,0.0,-0.0256563,,3,3.0
FeBrPr,0.0,-0.027864,,3,3.0
ClCs,5.85,-0.0250836,,3,3.0
BNbPt,0.0,-0.0376837999999999,,3,3.0
F6RbAg,1.9869,-0.0106283,,3,3.0
Ga2CdDy2,0.0,-0.0324074,,3,3.0
BRh6Ta2,0.0,-0.0387839,,3,3.0
Ga2Pd3Tm,0.0,-0.0312811999999999,,3,3.0
Co2GeZr,0.0,-0.0214955,,3,3.0
LiPSr,1.6716,-0.012827,,3,3.0
ScRhCd2,0.0,-0.0277007,,3,3.0
Li4Sb,0.0,-0.0098237,,3,3.0
BeAg3,0.0,-0.0245704,,3,3.0
Hf2Tl,0.0,-0.0659886,,3,3.0
Cr4OsPt,0.0,-0.0360206,,3,3.0
CCo2Ge2Ho2,0.0,-0.0264866,,3,3.0
ORb2Pd,0.0,-0.0207918,,3,3.0
Si3PdTh2,0.0,-0.043315,,3,3.0
LiAgTe,0.552,-0.0242554,,3,3.0
BO3RbSr,3.9062,-0.0141228,,3,3.0
F6SmIr,2.7569,-0.0199356,,3,3.0
Co2GaAc,0.0,-0.03554,,3,3.0
F6DyHo,7.8518,-0.0190779999999999,,3,3.0
SiS4Sr2,3.2944,-0.0151046,,3,3.0
LiO7P2Sc,5.5838,-0.0102799,,3,3.0
P2K4Zn,1.3605,-0.0101761,,3,3.0
NaK2Br6Pr,4.5381,-0.0200163,,3,3.0
Al3Si2NiGd3,0.0,-0.0269217,,3,3.0
Cl3ScCs,0.0,-0.0174269999999999,,3,3.0
Na3S4Nb,3.1635,-0.0117436,,3,3.0
O5K2Zr2,4.268,-0.0151515,,3,3.0
FeGa2Y,0.0,-0.0201588,,3,3.0
Ga2LaPt2,0.0,-0.0444117,,3,3.0
RhPm2Pt,0.0,-0.0490194,,3,3.0
HSiMn3,0.0,-0.0140257,,3,3.0
Nb5Ir7,0.0,-0.0558528,,3,3.0
Pd2SbLu,0.0,-0.0404878,,3,3.0
TiGeSm,0.0,-0.0272917999999999,,3,3.0
TiNiRh2,0.0,-0.0255853,,3,3.0
P3RbCd4,0.6972,-0.0219353,,3,3.0
Cu2Sn2Th,0.0,-0.03999,,3,3.0
LiSe2Au,0.0,-0.0285278,,3,3.0
Sc2ZnOs,0.0,-0.029068,,3,3.0
F6NaCoCs2,2.7062,-0.0146006,,3,3.0
ZnAg2Ce,0.0,-0.0302938,,3,3.0
H3AlPu,0.0,-0.0258763,,3,3.0
F5Na2Ag,1.3038,-0.0092111,,3,3.0
CSiV3,0.0,-0.0151261,,3,3.0
PSbDy2,0.0,-0.0372732,,3,3.0
CoCd2Th,0.0,-0.0436185,,3,3.0
Al3FeSn2Pr3,0.0,-0.027574,,3,3.0
Rh2CsPb2,0.0,-0.0514981,,3,3.0
GeRhNp,0.0,-0.0537574,,3,3.0
B2Fe2Ni,0.0,-0.0137373,,3,3.0
CdLuHg,0.0,-0.0518429,,3,3.0
N2TbTh,0.0,-0.0421295,,3,3.0
NdPt,0.0,-0.0582441,,3,3.0
SSc,0.0,-0.0140297,,3,3.0
Li2S2Cs,0.0,-0.0135383999999999,,3,3.0
Na2AuBi2,0.0,-0.0472618999999999,,3,3.0
F6K3Pb,0.3612,-0.0148163,,3,3.0
Be12V,0.0,-0.0054544,,3,3.0
SiS4Cu2Zn,1.801,-0.0122131,,3,3.0
Ca2GaAu,0.0,-0.0269139,,3,3.0
SeI2Ce2,0.0,-0.0382032,,3,3.0
SnAc3,0.0,-0.0772389,,3,3.0
Fe2Nd,0.0,-0.0264908,,3,3.0
DyPtPb,0.0,-0.0656561,,3,3.0
Ca3Cu2Zn2Bi4,0.0,-0.0368868,,3,3.0
N2CoRe,0.0,-0.0265765,,3,3.0
BO3Tl3,1.4723,-0.036194,,3,3.0
SbNdPu,0.0,-0.0644128,,3,3.0
HORb,4.3057,-0.0115625,,3,3.0
RhTmBi2,0.0,-0.0612792,,3,3.0
PPdLu,0.0,-0.0342038999999999,,3,3.0
BeCo2,0.0,-0.0131357,,3,3.0
Sr2Pd2Tl,0.0,-0.0371527,,3,3.0
Sn2Ba2Pb,0.0,-0.0460218,,3,3.0
LiCl6K2Gd,4.3732,-0.0148516,,3,3.0
HLiPt,0.0,-0.0258172999999999,,3,3.0
HCu3Pd,0.0,-0.0163435,,3,3.0
O3Na2Cr,0.0,-0.0096648,,3,3.0
Na2GeAg,0.0,-0.0147698999999999,,3,3.0
RuPdSm2,0.0,-0.039706,,3,3.0
NaAgTe,0.8033,-0.0248969,,3,3.0
Al3Si2IrNp3,0.0,-0.0487064,,3,3.0
GdTl,0.0,-0.0661378,,3,3.0
F6RbCs2U,0.0,-0.0252656,,3,3.0
B2O6Sr2Cd,3.7792,-0.0142979,,3,3.0
Na2AsCs,0.5582,-0.0170851,,3,3.0
P4K5,0.0,-0.0097728,,3,3.0
O6CuSr2Pd,0.0,-0.0145682,,3,3.0
S2RbPb2,0.0,-0.0389363,,3,3.0
SbEr5Au2,0.0,-0.0543746,,3,3.0
Mn3Dy2,0.0,-0.030056,,3,3.0
B4Co5Dy2,0.0,-0.019751,,3,3.0
SiTb2Os3,0.0,-0.0537083999999999,,3,3.0
LiP2Cu2Sr,0.0,-0.013348,,3,3.0
Ga3Ru2Ho2,0.0,-0.0316258,,3,3.0
SeBr7Zr3,0.632,-0.024123,,3,3.0
AgTmHg2,0.0,-0.0553132,,3,3.0
Rh2Hf2Bi,0.0,-0.0550503,,3,3.0
BCo3Sm,0.0,-0.0208701,,3,3.0
YTbHg2,0.0,-0.0534756,,3,3.0