formula,bg,formation_energy,mp-id,fidelity,bg_category
LiBa2Ir,0.0,-0.0382982,,3,3.0
VPt8,0.0,-0.0646378,,3,3.0
Pd7In,0.0,-0.033084,,3,3.0
NaP2Cu2Pr,0.0,-0.0172536999999999,,3,3.0
CMgDy2,0.0,-0.0279531999999999,,3,3.0
AlSc2Co2,0.0,-0.0145838,,3,3.0
Ru2La2Tl,0.0,-0.0459611,,3,3.0
Cl3AsPu3,0.0,-0.0548696,,3,3.0
PNbHf,0.0,-0.0365054999999999,,3,3.0
Cl6AsRb2Ag,1.3823,-0.015427,,3,3.0
CaGe2Pt,0.0,-0.030368,,3,3.0
AlFe4Zr,0.0,-0.0187643999999999,,3,3.0
SSe2Sm,0.0,-0.0250291,,3,3.0
P4Ni4Nb5,0.0,-0.021808,,3,3.0
O3FePr,0.0,-0.0186919,,3,3.0
HOCaI,3.8907,-0.015968,,3,3.0
Cl3Y,5.3448,-0.0154922,,3,3.0
AlCoNi6,0.0,-0.0154963999999999,,3,3.0
PdSnPr,0.0,-0.0383589,,3,3.0
Si2CaRh,0.0,-0.0166694,,3,3.0
AsSnCs,0.4375,-0.0317394,,3,3.0
MgLa2Au,0.0,-0.0406608,,3,3.0
F6CeDy,0.0,-0.0184012,,3,3.0
MgSb2La,0.0,-0.0315131,,3,3.0
AlCu2Lu2,0.0,-0.03021,,3,3.0
GeInBa,0.0,-0.0312546,,3,3.0
MnRu2Dy2,0.0,-0.0370907,,3,3.0
O6TiSr2Tb,0.0,-0.01768,,3,3.0
Sb2Te3Bi2,0.0,-0.0491341,,3,3.0
NiBaHg3,0.0,-0.0524116,,3,3.0
CoGd,0.0,-0.0381238,,3,3.0
MnZrRh2,0.0,-0.0299826,,3,3.0
OMgSr3,0.0,-0.0167635,,3,3.0
SrBaEu2,0.0,-0.0422309,,3,3.0
FeNb6Sn2,0.0,-0.0322111999999999,,3,3.0
ZnHf3Au2,0.0,-0.0571415999999999,,3,3.0
Al4FeEr,0.0,-0.0170082999999999,,3,3.0
AlY2Te,0.0,-0.0260639,,3,3.0
Si2Tc2Th,0.0,-0.0378724,,3,3.0
Ca2Ir2Pt,0.0,-0.0470634,,3,3.0
Na4S4Zr,3.4098,-0.0109979999999999,,3,3.0
ClTeGd,0.3572,-0.0366165,,3,3.0
RhCdIn2,0.0,-0.0329871,,3,3.0
PdCd2Pt,0.0,-0.0413294,,3,3.0
Be13Hf,0.0,-0.0086682,,3,3.0
Cl6K2PdAu,0.0,-0.0178037999999999,,3,3.0
Zn2GaZr2,0.0,-0.0214544999999999,,3,3.0
Mg2Lu,0.0,-0.0218001,,3,3.0
CoGa2Er6,0.0,-0.0394741,,3,3.0
HCrSe2,0.9391,-0.0160184999999999,,3,3.0
NiBrDy,0.0,-0.0290081999999999,,3,3.0
LiSc2Ru,0.0,-0.0168423,,3,3.0
HLi2In,0.0,-0.0107331,,3,3.0
Y2Sb,0.0,-0.0319071,,3,3.0
Ba2Tl,0.0,-0.050938,,3,3.0
Cl6CrRb2Cs,3.2362,-0.01644,,3,3.0
PCoNi,0.0,-0.0151187,,3,3.0
O6CaSnTb2,4.4472,-0.0207457,,3,3.0
Al2Ti2Zr,0.0,-0.0159904,,3,3.0
Co2Ge2Dy,0.0,-0.0247359,,3,3.0
O6RuBa2Hf,0.0,-0.0242581999999999,,3,3.0
O2NaLa2,0.0,-0.0230387999999999,,3,3.0
MgSnDy,0.0,-0.0302213,,3,3.0
Sc3Rh2Au,0.0,-0.0310147,,3,3.0
SrIn2Pm,0.0,-0.0338317,,3,3.0
Y2LaTl,0.0,-0.0431127,,3,3.0
Fe2Ga2Y,0.0,-0.0197595,,3,3.0
TiGeIr,0.0,-0.0363053,,3,3.0
NiAu5,0.0,-0.0602710999999999,,3,3.0
CuGeGd,0.0,-0.0317497,,3,3.0
AlI6Cs2Tl,2.0047,-0.0386997,,3,3.0
O6Sr2DyHf,0.0,-0.0225864,,3,3.0
LuPt2,0.0,-0.0665454,,3,3.0
Ca2HgPb,0.0624,-0.0416184999999999,,3,3.0
TiSe,0.0,-0.0193051,,3,3.0
Ta8Hg,0.0,-0.0667189,,3,3.0
H3PdDy,0.0,-0.0188064,,3,3.0
STe2Bi2,0.1371,-0.0484804999999999,,3,3.0
Si2CoGa3Er3,0.0,-0.0270864,,3,3.0
GaAsEu,0.0,-0.0309141,,3,3.0
B2NbW,0.0,-0.0299749,,3,3.0
ScCoZn,0.0,-0.0152432,,3,3.0
Ru2In5Nd4,0.0,-0.0378217,,3,3.0
RhPt7,0.0,-0.0656155,,3,3.0
PI2Ce2,0.0,-0.0361706999999999,,3,3.0
O6MgNiLa2,1.7438,-0.0173738999999999,,3,3.0
I4Er,0.0,-0.0405574999999999,,3,3.0
Si2BaPt,0.0,-0.0332914,,3,3.0
Ca2Ni2Br,0.0,-0.0150393,,3,3.0
Ca2Sn,0.0,-0.0191332,,3,3.0
Be2FeRh,0.0,-0.0156128,,3,3.0
O4SePb,3.66,-0.0211615,,3,3.0
PBr2Sm2,0.0,-0.0296205,,3,3.0
ZrRh2Tb,0.0,-0.0371456,,3,3.0
F4NaTb,7.6893,-0.0148119,,3,3.0
O6Sr2PdPt,0.5252,-0.0201592,,3,3.0
ZnRu2Ce2,0.0,-0.0348686999999999,,3,3.0
B2O6CoSr2,0.9924,-0.0130464,,3,3.0
BeMnTc,0.0,-0.0193919,,3,3.0
Al3Si2MnPa3,0.0,-0.0404292,,3,3.0
Co4Sn6Pr,0.0,-0.0299822,,3,3.0
FBrAg2,0.7491,-0.0221121,,3,3.0
MnOs,0.0,-0.0450483,,3,3.0
NCr3Ni,0.0,-0.0162727,,3,3.0
CaSb2Pb,0.0,-0.0404285,,3,3.0
BeSe2Rb2,2.7927,-0.0182612,,3,3.0
FeZnIr,0.0,-0.0344135,,3,3.0
Cd2In2Sn,0.0,-0.0325899,,3,3.0
H3PrPt,0.0,-0.0254605,,3,3.0
NiIn2Ba,0.0,-0.0310033,,3,3.0
TiGe2Y2,0.0,-0.0228159,,3,3.0
N3AlIn2,1.3275,-0.01766,,3,3.0
S4CaAg2Sn,0.3317,-0.0191116,,3,3.0
Si2Ni3,0.0,-0.0141586,,3,3.0
GeNd2Ir2,0.0,-0.0506377,,3,3.0
MnFeNiGa,0.0,-0.0175034,,3,3.0
BCPtPa,0.0,-0.0475562,,3,3.0
KCuZrTe3,0.0,-0.0285600999999999,,3,3.0
O4TbHo,1.0502,-0.0231965,,3,3.0
MgAl3Pr,0.0,-0.0146433999999999,,3,3.0
Ga6HoPt,0.0,-0.0277289,,3,3.0
LiPdIn,0.0,-0.0234017,,3,3.0
Mn2GaRh,0.0,-0.0221905,,3,3.0
O4AlCaY,4.073,-0.0135836,,3,3.0
NFSc6Tl2,0.0,-0.0255511,,3,3.0
SFeAs,0.9145,-0.0164256999999999,,3,3.0
LiAlAg2,0.0,-0.0185153,,3,3.0
O6NiBa2Ho,0.0,-0.0206566,,3,3.0
Al3NiIn2Ho3,0.0,-0.0287569,,3,3.0
B15Na,0.0266,-0.0073263999999999,,3,3.0
NaCu2As2,0.0,-0.0152614999999999,,3,3.0
F2Se2Hg3,1.9163,-0.0367794,,3,3.0
Li2CuZn,0.0,-0.0085272,,3,3.0
ZnGa2Ir,0.0,-0.0296995,,3,3.0
Al2TbPt2,0.0,-0.0419099,,3,3.0
Ni4Ge2Dy3,0.0,-0.0280358,,3,3.0
AgTb,0.0,-0.0394422,,3,3.0
P4Fe2Cu2Sm3,0.0,-0.0229493,,3,3.0
Sc2Ni2In,0.0,-0.0194377,,3,3.0
Ti2Sb,0.0,-0.0236481,,3,3.0
CN2O2In2,2.4322,-0.0162200999999999,,3,3.0
Li3CaBi2,0.0,-0.0296493,,3,3.0
Li3O8F2P2VMn,0.1205,-0.0097624,,3,3.0
Ni2Nd4Tl5,0.0,-0.0521214,,3,3.0
O8MnSr4Ru,0.0,-0.0163206999999999,,3,3.0
In2Sn2Bi,0.0,-0.0433121999999999,,3,3.0
LiPd2Hg2,0.0,-0.0411031,,3,3.0
Hg2Np,0.0,-0.0810489,,3,3.0
CSc2Co2Sn2,0.0,-0.0210863,,3,3.0
SrYIr4,0.0,-0.0564108,,3,3.0
B6O12MnBa2,3.3132,-0.0131059,,3,3.0
CdCs2Hg,0.0,-0.0436497,,3,3.0
F6NaTl3,4.0784,-0.0263758,,3,3.0
CuRb2Te2,0.0,-0.0269436,,3,3.0
NaAg2Cd2,0.0,-0.0256448,,3,3.0
Al9Fe2Ce,0.0,-0.0128544,,3,3.0
LiP2SrPd2,0.0,-0.0193939,,3,3.0
Al3Zr2Os,0.0,-0.0268017,,3,3.0
LiS6Ni3,0.0,-0.0113438,,3,3.0
O6Ba2SmAu,2.3067,-0.0253311,,3,3.0
Sc2ZnIr,0.0,-0.0291685,,3,3.0
Ag4Sn,0.0,-0.0322468999999999,,3,3.0
N3TcLa,0.0,-0.0220193,,3,3.0
BAl2Ru2Nd,0.0,-0.0234584,,3,3.0
ZnPdPr,0.0,-0.0306193999999999,,3,3.0
CdBa2Hg2,0.0,-0.0496709,,3,3.0
GeZr2I2,0.0,-0.0317551,,3,3.0
Si2MnLu,0.0,-0.0239863,,3,3.0
AgPm2Os,0.0,-0.0480527,,3,3.0
PrSm3,0.0,-0.044151,,3,3.0
F5MgW,0.9474,-0.0159046,,3,3.0
MgRu2Pr2,0.0,-0.0324461999999999,,3,3.0
Al7CuLa2,0.0,-0.0160418999999999,,3,3.0
Te2CsLa,1.9297,-0.040549,,3,3.0
LiSiRe2,0.0,-0.0388434,,3,3.0
PbPu3,0.0,-0.1014439,,3,3.0
GeRhCe,0.0,-0.0334536999999999,,3,3.0
ZnGe2In3Tb3,0.0,-0.0331042,,3,3.0
O2KTl,1.2304,-0.0244463,,3,3.0
O2Gd,0.0,-0.0266785,,3,3.0
Si2Rh3U,0.0,-0.0382516,,3,3.0
SnTb,0.0,-0.0422031,,3,3.0
RbTe4Nd,0.344,-0.0366518,,3,3.0
OFY,5.5241,-0.0167783,,3,3.0
KAs2Pd4,0.0,-0.0261444,,3,3.0
Ce3Gd,0.0,-0.0479907,,3,3.0
TiGaRhIr,0.0,-0.0352361999999999,,3,3.0
SbHg,0.0,-0.0527018,,3,3.0
AlCuPt,0.0,-0.0318025,,3,3.0
LiGa2La,0.0,-0.0200481,,3,3.0
Li2O4VMn,0.1504,-0.0105715,,3,3.0
NO2Ag,1.4322,-0.0134194,,3,3.0
NAlLa3,0.0,-0.0301701,,3,3.0
LiF4Cu,1.0572,-0.0073934,,3,3.0
As4Rh6Pr,0.0,-0.0305265999999999,,3,3.0
OZnBiNp,0.0,-0.0524513,,3,3.0
H12N6SnCs2,3.2793,-0.0103118999999999,,3,3.0
GeSnTm,0.0,-0.0362598,,3,3.0
ScNi3Cu2,0.0,-0.0157353,,3,3.0
Ni4ZrPt,0.0,-0.0281236,,3,3.0
K2InAu,0.0,-0.0301033,,3,3.0
O5Cu2BaLu,0.0,-0.0195189999999999,,3,3.0
Mg5In4,0.0,-0.0177290999999999,,3,3.0
CZr3Cd,0.0,-0.0270832,,3,3.0
O6MgCoLa2,0.7296,-0.0175228,,3,3.0
YSbHo,0.0,-0.0389408,,3,3.0
F2ClCs,4.0608,-0.0150066,,3,3.0
Rh2Pr3Hg,0.0,-0.0449579,,3,3.0
K2GaBr6In,0.8051,-0.0195263,,3,3.0
ZnPr3Au2,0.0,-0.0477396999999999,,3,3.0
PZr2Tl,0.0,-0.0369707,,3,3.0
Be2As2U,0.0,-0.0308,,3,3.0
MgNdPt,0.0,-0.0406712,,3,3.0
LiSbPb,0.1987,-0.0387434,,3,3.0
NiIn5Dy,0.0,-0.0333607,,3,3.0
BRu6Ce2,0.0,-0.0342488,,3,3.0
S4CrCu3,0.0,-0.013318,,3,3.0
Cd2In3,0.0,-0.0321517,,3,3.0
Co2NiRe,0.0,-0.0303283,,3,3.0
TiMo2W,0.0,-0.0390128,,3,3.0
Pd2CeBi,0.0,-0.0479035,,3,3.0
PmHg2Bi,0.0,-0.0651889,,3,3.0
B2C2Sc,0.0,-0.0104076,,3,3.0
H12B2O12Ca2Cu,1.8545,-0.007385,,3,3.0
VMnPt2,0.0,-0.0448843,,3,3.0
CuHoPb,0.0,-0.0472659,,3,3.0
H2SeBa2,2.4178,-0.0224711,,3,3.0
S2CsAuHg,1.8703,-0.0395086,,3,3.0
BeCr2Ir,0.0,-0.0283963,,3,3.0
MgGe2Th2,0.0,-0.0476173,,3,3.0
LiAlCuZn,0.0,-0.0099857,,3,3.0
InBa2,0.0,-0.0379034,,3,3.0
TiRh7,0.0,-0.0319208,,3,3.0
SClTb,3.1385,-0.023894,,3,3.0
LiGaSn,0.0,-0.0185436,,3,3.0
AlZn3,0.0,-0.012071,,3,3.0
Li2Mg2CaPb2,0.0,-0.0256217,,3,3.0
Zr2InIr,0.0,-0.0422082,,3,3.0
O4MgCr,2.5764,-0.0103686,,3,3.0
NiCu2Te3,0.0,-0.0264592999999999,,3,3.0
O4RuCs3,0.7977,-0.0230655,,3,3.0
O4Cl2Cu2Ba3,0.0,-0.0193626,,3,3.0
Mg2CaAg2,0.0,-0.0167437,,3,3.0
LiAl4Sr,0.0,-0.0094005,,3,3.0
Ga3Cs,0.1491,-0.0219412999999999,,3,3.0
Ge3SrPt,0.0,-0.0307139999999999,,3,3.0
AlK3Bi2,0.4039,-0.032049,,3,3.0
Si2TcLa,0.0,-0.0251385,,3,3.0
BGa2HoOs2,0.0,-0.0393588999999999,,3,3.0
MnGe2In3Pr3,0.0,-0.0325223,,3,3.0
ScBr4Rb2,0.0,-0.0208935,,3,3.0
K2Tl,0.0,-0.0297901,,3,3.0
Ga5ZrOs,0.0,-0.0267757,,3,3.0
MnFe2Zr2,0.0,-0.0232269,,3,3.0
H6FePu2,0.0,-0.0290631999999999,,3,3.0
O8P2BaLa,0.0,-0.0157357999999999,,3,3.0
K2HgBi2,0.0,-0.0487549,,3,3.0
CdLa2Hg2,0.0,-0.0512025,,3,3.0
NaGaBr6Cs2,1.9892,-0.0228044,,3,3.0
Li3O4Ta,1.9263,-0.0149857,,3,3.0
O7P2Ni2,2.6159,-0.0108888,,3,3.0
Ca2Ga2Cd,0.0,-0.0169383,,3,3.0
As2Tc2La,0.0,-0.0314565,,3,3.0
Cu3NdAu2,0.0,-0.0383451,,3,3.0
SeI6Tl2,0.5861,-0.0430347,,3,3.0
FeRh2Sm2,0.0,-0.0355473,,3,3.0
ClCo2Sm2,0.0,-0.0270974,,3,3.0
ZrSn2Hf2,0.0,-0.0460338,,3,3.0
CuSrBi,0.0,-0.0393061,,3,3.0
FeZr6Tl2,0.0,-0.0387897,,3,3.0
AlCaLa,0.0,-0.0204957,,3,3.0
NiZnPt2,0.0,-0.0429097,,3,3.0
Al5Ag5Ba2,0.0,-0.0232459,,3,3.0
Te4HgTl2Pb,0.0,-0.0548694,,3,3.0
Ti4CoBi2,0.0,-0.0344501,,3,3.0
Cr4TcW,0.0,-0.0296159,,3,3.0
Zn2TbTh,0.0,-0.0427008,,3,3.0
ScMoTc,0.0,-0.0282841,,3,3.0
Al5ScCu2,0.0,-0.0107492,,3,3.0
ZnLu6Pb2,0.0,-0.0556629,,3,3.0
MgRhBi2,0.0,-0.0491755,,3,3.0
Zn3YAu2,0.0,-0.0350756999999999,,3,3.0
CoNi2Cu,0.0,-0.016183,,3,3.0
SiCa2Ga,0.0,-0.0119919,,3,3.0
Ag3InCs2,0.0,-0.033919,,3,3.0
AsPd5In,0.0,-0.0316163,,3,3.0
AsBa,0.5895,-0.0310986,,3,3.0
CoRhAu2,0.0,-0.0472903999999999,,3,3.0
P2SbLa,0.0253,-0.0261163999999999,,3,3.0
AsTe2,0.0,-0.03151,,3,3.0
S4CrCu4,0.0,-0.0134933,,3,3.0
N2Sm,0.0,-0.0219914999999999,,3,3.0
Co2Sb2Ce,0.0,-0.0312423,,3,3.0
CoGa5Zr,0.0,-0.0190045,,3,3.0
O6Sr2RhTb,0.0,-0.0187914,,3,3.0
Al2AgTb,0.0,-0.0238957,,3,3.0
BeRu2Re,0.0,-0.0365104,,3,3.0
PKPd,0.0,-0.0176402,,3,3.0
H8Mg2FeTh,0.0,-0.0129457,,3,3.0
Cl5Ca,0.1323,-0.0094287,,3,3.0
F4NaEr,7.675,-0.0154214,,3,3.0
Al2OsAu,0.0,-0.0397949,,3,3.0
CeTh3,0.0,-0.08309,,3,3.0
HAlGeNd,0.0,-0.0190179,,3,3.0
ScCuZn,0.0,-0.0147219,,3,3.0
F6CuGa,1.8838,-0.0088081,,3,3.0
Sc3Ir,0.0,-0.0291769,,3,3.0
FeNiSe2,0.0,-0.0188646999999999,,3,3.0
O3KPd2,0.6491,-0.0164038,,3,3.0
TiCo2Nb,0.0,-0.0212213999999999,,3,3.0
RuBa2Ir,0.0,-0.0463335999999999,,3,3.0
BeTcRu,0.0,-0.0250682,,3,3.0
Sc2Pd2In,0.0,-0.02642,,3,3.0
PTiV,0.0,-0.0158179,,3,3.0
O6SnSbBa2,0.0,-0.0212522,,3,3.0
P4SrRh2,0.0,-0.0196369,,3,3.0
Ag2LaEu,0.0,-0.040205,,3,3.0
Pd2SbEr,0.0,-0.0392405,,3,3.0
RhTbHg,0.0,-0.0502797,,3,3.0
ZnTe5Hg4,0.0,-0.0474623,,3,3.0
FeAs2Ta6,0.0,-0.0511923,,3,3.0
C3Sc4,0.4489,-0.013097,,3,3.0
F3Er,8.795,-0.0197059,,3,3.0
CuSe6Ta2,0.0,-0.0304798,,3,3.0
CaCuTe3Pr,0.5968,-0.031259,,3,3.0
Co4Ir5,0.0,-0.0470951,,3,3.0
BCYPd,0.0,-0.0202034,,3,3.0
In2CeHo,0.0,-0.0406434,,3,3.0
NMoTa,0.0,-0.0377770999999999,,3,3.0
O3Cu2Hg,0.0,-0.0200633,,3,3.0
S6As2InTl2,0.0,-0.0254396,,3,3.0
Ir3Pt2Th,0.0,-0.0756294999999999,,3,3.0
ZnTlPb2,0.0,-0.0592542,,3,3.0
MnNiSb2,0.0,-0.0274665,,3,3.0
BeCrOs2,0.0,-0.0418314,,3,3.0
In2LaPt2,0.0,-0.0510142,,3,3.0
Se8Mo6Tl,0.0,-0.030032,,3,3.0
ZnGdBi2,0.0,-0.0577713,,3,3.0
Cr2Fe,0.0,-0.0182174,,3,3.0
Br6Rb2Eu,0.0,-0.0251072,,3,3.0
Sc3NiRu2,0.0,-0.0220797,,3,3.0
Sn2CsPt2,0.0,-0.0504731,,3,3.0
P2PrIr2,0.0,-0.0424058,,3,3.0
Al7Ag2La3,0.0,-0.0210536999999999,,3,3.0
BNb2Os6,0.0,-0.0563707,,3,3.0
CaZn2Ho,0.0,-0.0217685,,3,3.0
K3Se2Ag,2.4655,-0.017137,,3,3.0
Al3Si2MnZr3,0.0,-0.0177055,,3,3.0
S3KPdHf,0.0,-0.0234218,,3,3.0
Li2SnI,0.0,-0.0197354,,3,3.0
BCScNi,0.0,-0.0126256,,3,3.0
PAsSb2,0.0,-0.0262045,,3,3.0
NRuTa3,0.0,-0.0494813,,3,3.0
MgRh2La2,0.0,-0.0324625,,3,3.0
LiIn2Pm,0.0,-0.0288253999999999,,3,3.0
NaTe6Hf3,0.0,-0.0424598,,3,3.0
Ru2CdEr3,0.0,-0.0424074,,3,3.0
Al5CaRh2,0.0,-0.0152921999999999,,3,3.0
MgPd2Tb,0.0,-0.0301715,,3,3.0
O4Co2Ru,0.0,-0.0147263,,3,3.0
NiIrPt,0.0,-0.0525139,,3,3.0
ZnTm2,0.0,-0.0393721,,3,3.0
AsRhSm,0.0,-0.0340575,,3,3.0
MgY3,0.0,-0.0221646,,3,3.0
B2Ir2Np,0.0,-0.0532988,,3,3.0
Se2YIn,0.8472,-0.0268118,,3,3.0
Rh6Sb4Tb,0.0,-0.0368991,,3,3.0
Br3Ba3Bi,0.9351,-0.0384491,,3,3.0
Si6Sc5Hf5,0.0,-0.0285436,,3,3.0
Si2FeNb2,0.0,-0.021453,,3,3.0
O4BrCeBi2,0.0,-0.0327736,,3,3.0
O3MnAg,0.0,-0.0149631,,3,3.0
KBr3Rb,0.0,-0.0189739,,3,3.0
AlBr6RbCs2,4.0984,-0.0237834,,3,3.0
Cd2EuTb,0.0,-0.0407185,,3,3.0
AlNiZrIr,0.0,-0.0323445,,3,3.0
YPb2,0.0,-0.0604086,,3,3.0
CrFe2As6,0.0,-0.019774,,3,3.0
AsY2Bi,0.0,-0.0399861,,3,3.0
Se2Pd3,0.0,-0.0280114,,3,3.0
HNa3Tl,0.0,-0.0178397,,3,3.0
P2Zn2Pr,0.0,-0.0190085,,3,3.0
LiIn,0.0,-0.0182875,,3,3.0
CaPt,0.0,-0.0409782,,3,3.0
SiPd3Lu2,0.0,-0.0374956,,3,3.0
Li4As2Ba,0.9469,-0.0137343,,3,3.0
Se4TeU,0.0,-0.0374251,,3,3.0
Zn4Sm,0.0,-0.0201081,,3,3.0
SiCoNp,0.0,-0.0451022,,3,3.0
AlNi2Zr5,0.0,-0.0244908,,3,3.0
O2Na2RbAu,2.5943,-0.0196973999999999,,3,3.0
DyHgTl,0.0,-0.0631955,,3,3.0
YZr2Rh,0.0,-0.0312021,,3,3.0
Be2Nb2Sn,0.0,-0.022354,,3,3.0
GaDy2Au,0.0,-0.0461486,,3,3.0
Al2CrZr6,0.0,-0.0244255,,3,3.0
Zn2PmSm,0.0,-0.0292519,,3,3.0
ZnY3Rh2,0.0,-0.0282356,,3,3.0
O8Y2ZrW,3.3785,-0.0205734,,3,3.0
NaCuBr4,0.3252,-0.0169171,,3,3.0
NdHg2Pb,0.0,-0.0644000999999999,,3,3.0
Ni3Pt2Th,0.0,-0.0481177,,3,3.0
O3Rb2Sn,2.7896,-0.0177562,,3,3.0
Ni2Zn3Ba,0.0,-0.0188539,,3,3.0
F5FeSn,0.1424,-0.0126157,,3,3.0
Rh2SnPm,0.0,-0.0376015,,3,3.0
BKI3,0.0,-0.0252543,,3,3.0
Ru2PdLa3,0.0,-0.0389946,,3,3.0
N2NbLu,0.0,-0.0284386,,3,3.0
SiNi2Pr2,0.0,-0.0263334,,3,3.0
RbIn2Pb2,0.0,-0.0480897999999999,,3,3.0
Te4Ta,0.0,-0.0433577,,3,3.0
Al5FePu,0.0,-0.0240748,,3,3.0
Cr4TcOs,0.0,-0.0300659,,3,3.0
F8Na2ZrEu,0.0549,-0.0137736,,3,3.0
Rh2HoTm,0.0,-0.0431652,,3,3.0
Ca2Cd,0.0,-0.0168895,,3,3.0
Be4ScTc,0.0,-0.0113545,,3,3.0
S7Nd5,0.0,-0.0261278,,3,3.0
RbAgBa3,0.0,-0.0342026,,3,3.0
Mg2SiIr2,0.0,-0.0330947,,3,3.0
Si3CoSr,0.0,-0.0142648,,3,3.0
AlAgEr,0.0,-0.0303208,,3,3.0
COLa,3.3864,-0.0219689,,3,3.0
O4CuTa,0.7395,-0.0197288,,3,3.0
MgSr2Pt2,0.0,-0.0389024,,3,3.0
Se2RuTh6,0.0,-0.0730744,,3,3.0
ZnPb3,0.0,-0.0600842,,3,3.0
NRuHf3,0.0,-0.047604,,3,3.0
GaLaIr,0.0,-0.0444447,,3,3.0
CoTc2Os,0.0,-0.0398329,,3,3.0
LiPd2Tl2,0.0,-0.0427826,,3,3.0
O6Na2Mn2Te,0.5755,-0.0126205,,3,3.0
Sr2Ir3,0.0,-0.0519662,,3,3.0
Si2TcHf2,0.0,-0.0369216,,3,3.0
CMgZr2,0.0,-0.0196543,,3,3.0
MnCoNi2,0.0,-0.0171259,,3,3.0
AlSGe,0.5165,-0.0128218,,3,3.0
FeSe2Sr,0.0,-0.0212187,,3,3.0
MgSiPt,0.0,-0.0292962999999999,,3,3.0
Br5Sb,2.0377,-0.0227776,,3,3.0
Cu4AgSm,0.0,-0.0229889,,3,3.0
LiAlAgCd,0.0,-0.0181767,,3,3.0
Se2RbIr,1.3147,-0.033725,,3,3.0
AsI2Th2,0.0,-0.0583867,,3,3.0
Ga2RuEr6,0.0,-0.0415653999999999,,3,3.0
Zn3DyIr2,0.0,-0.0389086,,3,3.0
Rh2AuTh,0.0,-0.0588212,,3,3.0
Mg2LaHo,0.0,-0.0256057,,3,3.0
Ge6CeIr4,0.0,-0.0409208,,3,3.0
Au4Pa,0.0,-0.0756781,,3,3.0
Mg2SiRu,0.0,-0.0140673999999999,,3,3.0
Fe2TaPt,0.0,-0.0436395,,3,3.0
PTcLa2,0.0,-0.0336234,,3,3.0
BNPdPu,0.0,-0.0407316,,3,3.0
Al3Si2Pu,0.0,-0.0255957,,3,3.0
PRbAg2Te4,0.0805,-0.0305860999999999,,3,3.0
Cl3Sn,1.3428,-0.0158823,,3,3.0
B2C2Er,0.0,-0.0176285999999999,,3,3.0
AsTe3Nd4,0.0,-0.039908,,3,3.0
O6Ca2ErTa,4.214,-0.020835,,3,3.0
Ca2FeIr2,0.0,-0.0363541999999999,,3,3.0
NaSe2Ag2,0.0,-0.0218025,,3,3.0
ZnGa2Zr6,0.0,-0.0260058,,3,3.0
AlFe2Sm,0.0,-0.0223657,,3,3.0
Li2O4VFe,0.2463,-0.01038,,3,3.0
In2CsAu,0.0,-0.0437931,,3,3.0
Cl6ScRb2Au,2.264,-0.0190902999999999,,3,3.0
Ga3Ag,0.0,-0.0199758,,3,3.0
H6Sr2W,0.0,-0.0153171,,3,3.0
CoIn5Ho,0.0,-0.0336087,,3,3.0
S8Cr4MnZn,0.8891,-0.0141687999999999,,3,3.0
Ge2PrPt3,0.0,-0.0495853,,3,3.0
PSeU,0.0,-0.045595,,3,3.0
AlSc2Rh,0.0,-0.0183141,,3,3.0
CrW,0.0,-0.0440278,,3,3.0
S8Mo6Dy,0.0,-0.0232888,,3,3.0
Si2Mn2Pr,0.0,-0.0206009999999999,,3,3.0
PSe3Pb4,0.0,-0.0470505,,3,3.0
O4Cu2Se2TbBi2,0.0,-0.0286755,,3,3.0
Ni2BrPr2,0.0,-0.0285604,,3,3.0
Ca2Zn2Sr,0.0,-0.0138574,,3,3.0
In2HoAu,0.0,-0.0468996,,3,3.0
NaS2Nb,0.8454,-0.0155377,,3,3.0
Mg2GeRu2,0.0,-0.0200709,,3,3.0
CrFe4,0.0,-0.0181693,,3,3.0
NaS2Y,2.668,-0.0149756,,3,3.0
CoGa5Ce,0.0,-0.0209891,,3,3.0
LaHg,0.0,-0.0563448,,3,3.0
Fe3Ge2Er,0.0,-0.0241705,,3,3.0
NiIr2U2,0.0,-0.0735413,,3,3.0
Se3SrErAu,1.4053,-0.0353107,,3,3.0
LiAl2Cu,0.0,-0.008513,,3,3.0
SnEu2Au,0.0,-0.0539395,,3,3.0
GeTe4Lu,0.0,-0.0377925,,3,3.0
ZrTe2Tl,0.0,-0.0451329,,3,3.0
O6TeBa2Tm,0.0,-0.0232704,,3,3.0
ScY2Au2,0.0,-0.0425873,,3,3.0
PdNdPt2,0.0,-0.055097,,3,3.0
LiO6Si2In,4.4527,-0.0119832,,3,3.0
O6CrSnSb,1.5057,-0.0162780999999999,,3,3.0
Na2Cd2Pt,0.0,-0.0280411,,3,3.0
Mn2Pd3Ba,0.0,-0.0295807,,3,3.0
SiHoRe,0.0,-0.0439259,,3,3.0
NaS2Cu,1.0327,-0.010298,,3,3.0
CaZn2Y2,0.0,-0.0187498,,3,3.0
C2FeEr,0.0,-0.0224729,,3,3.0
H8Mg2MnY,1.329,-0.0074226,,3,3.0
O2AsCdI,2.5575,-0.0210123,,3,3.0
Li2F8CaNi,1.4023,-0.0076736,,3,3.0
La2IrTl,0.0,-0.0581547,,3,3.0
O2FSb,1.9028,-0.0149791,,3,3.0
KGeBr6Cs2,0.0,-0.02337,,3,3.0
BeWIr,0.0,-0.0487928,,3,3.0
Cu2CdHf2,0.0,-0.0374478,,3,3.0
FeZr3,0.0,-0.0276094,,3,3.0
P2NiMo,0.0,-0.0185625,,3,3.0
O4AlGaBa,4.1974,-0.0155313999999999,,3,3.0
H4Cs2Ba,2.7369,-0.0187713,,3,3.0
NMn,0.0,-0.0143761,,3,3.0
Be2RhIr,0.0,-0.0291458,,3,3.0
O6Sr2PdDy,0.0,-0.0186428,,3,3.0
AlTiCoPt,0.0,-0.0288823,,3,3.0
O4HoTa,4.4339,-0.0269855,,3,3.0
Al3Sc2Co,0.0,-0.0120491,,3,3.0
BLu2Ir6,0.0,-0.0614228,,3,3.0
F6CuMo,0.0,-0.0112001,,3,3.0
Be2TiHf,0.0,-0.0219683,,3,3.0
B4O12Al3Sm,6.0615,-0.0117349999999999,,3,3.0
BLaIr4,0.0,-0.0563981,,3,3.0
Se2TeTl2,0.0,-0.0446106,,3,3.0
NaCs3Hg,0.0,-0.0372265,,3,3.0
ScCd4La,0.0,-0.0301642,,3,3.0
AgTe2Sm,1.088,-0.0385946,,3,3.0
KBa2Pt,0.0,-0.0399438,,3,3.0
GaPtPa,0.0,-0.0630611,,3,3.0
N2PrGd,0.0,-0.0318381,,3,3.0
BrLa,0.0,-0.0328093999999999,,3,3.0
MgIn2Hg,0.0,-0.0350737999999999,,3,3.0
Tm3Pt,0.0,-0.0572771,,3,3.0
O2RhPd,0.0,-0.0205508999999999,,3,3.0
FeSeSb,0.7301,-0.025351,,3,3.0
SiYPd,0.0,-0.0246338,,3,3.0
H8FeZn2Eu,0.0,-0.0107528,,3,3.0
S3KCuY,0.0,-0.0148423,,3,3.0
S4Cs3Bi,1.5288,-0.0296927,,3,3.0
NbI4,0.4423,-0.0364901,,3,3.0
CaRh2Ho,0.0,-0.0322492999999999,,3,3.0
CuAs2Gd,0.0,-0.0295045,,3,3.0
PNiTa2,0.0,-0.0406642,,3,3.0
Al6PrNd,0.0,-0.0171461,,3,3.0
Na2GaCd,0.0,-0.0139282,,3,3.0
AgBi2Np,0.0,-0.0737855,,3,3.0
Sc3ZnPt2,0.0,-0.0339382,,3,3.0
ZnTb3Os2,0.0,-0.0499299,,3,3.0
NdIr3Pt2,0.0,-0.0667895999999999,,3,3.0
P2S6TlBi,1.8837,-0.0233435,,3,3.0
O6Ca2SrTe,3.8994,-0.0141781,,3,3.0
B2CaNi3,0.0,-0.0125341,,3,3.0
S3Rb2Dy,0.0,-0.0212647,,3,3.0
YLaAu,0.0,-0.0474126,,3,3.0
Al2CdTb2,0.0,-0.0283616,,3,3.0
O6NdTa2,0.0,-0.0269990999999999,,3,3.0
KAsBa2,0.0,-0.027657,,3,3.0
F6Re,0.0,-0.0152859,,3,3.0
Li3F8Ti,2.125,-0.007301,,3,3.0
B3O6Eu,0.0,-0.0141214,,3,3.0
Se2SnHg,0.3366,-0.0362571,,3,3.0
Mg2P2Tm,0.0,-0.0175344,,3,3.0
LiMg2Cu,0.0,-0.0070133,,3,3.0
Ga2Zr2Au,0.0,-0.0334483,,3,3.0
BeO4Se,4.6601,-0.0096815,,3,3.0
Rh2CdTh2,0.0,-0.0587875999999999,,3,3.0
B4NbDy,0.0,-0.0191801,,3,3.0
O6FeCuLa2,0.0,-0.0182811999999999,,3,3.0
AlCdEu2,0.0,-0.0366921,,3,3.0
O5PClRbMo,1.0549,-0.013951,,3,3.0
O6MnSr2Pd,0.4068,-0.0154308,,3,3.0
CoBi2Th,0.0,-0.0679646,,3,3.0
Si2LuRe,0.0,-0.0371457,,3,3.0
Au7Pb,0.0,-0.0699038999999999,,3,3.0
Cl4CoTl2,0.0,-0.0285446,,3,3.0
SiZnPu2,0.0,-0.0609667,,3,3.0
S4FeTa2,0.0,-0.0280434,,3,3.0
O6ZnBa2Os,0.0,-0.0222742,,3,3.0
SiGaDy,0.0,-0.0254175,,3,3.0
MnGePa,0.0,-0.0461032,,3,3.0
Ga2Sn2Ba3,0.0,-0.0325957999999999,,3,3.0
CInHf3,0.0,-0.0469395,,3,3.0
OTi3Pt,0.0,-0.026626,,3,3.0
FeIHo,0.0,-0.035316,,3,3.0
Li2As2Np,0.0,-0.0311009,,3,3.0
Al2Si2Ca,0.0,-0.0093698999999999,,3,3.0
HCo3Ta,0.0,-0.0245009,,3,3.0
Mg3AsI3,2.5529,-0.0216946,,3,3.0
YPt2,0.0,-0.057389,,3,3.0
Ga2Br8Pt,2.3937,-0.0241894,,3,3.0
P2Fe2Cs,0.0,-0.0194113,,3,3.0
Al3FeTa2,0.0,-0.0294538,,3,3.0
GaHfPt2,0.0,-0.0560486,,3,3.0
H4CaZn,1.5357,-0.0064684999999999,,3,3.0
Li2Ca2Sr,0.0,-0.0092594,,3,3.0
F6BaNp,2.052,-0.0248109,,3,3.0
Al2Ho3Tl3,0.0,-0.0478622999999999,,3,3.0
MnGa5Dy,0.0,-0.0215649,,3,3.0
Co4TaRe,0.0,-0.0345022,,3,3.0
Al2HoTm,0.0,-0.0294956,,3,3.0
O6AlBa2Ce,0.0,-0.0199917,,3,3.0
YSn2La2,0.0,-0.0380621,,3,3.0
NiZn2In,0.0,-0.0192239,,3,3.0
AlYPt2,0.0,-0.0454148,,3,3.0
SiDyTa,0.0,-0.0420889,,3,3.0
CuSnCe,0.0,-0.0324898,,3,3.0
Cd2EuTm,0.0,-0.0419682,,3,3.0
Al5SnTm5,0.0,-0.030822,,3,3.0
MnSe3ZrPb,0.0,-0.0317609,,3,3.0
AlIr2Ac,0.0,-0.0608487,,3,3.0
Ga2YPt,0.0,-0.0338161,,3,3.0
O6ScBa2Hf,0.0,-0.0227237,,3,3.0
Mo3Pt,0.0,-0.0438797,,3,3.0
GaHo2,0.0,-0.0386108,,3,3.0
NiRu2Nd3,0.0,-0.0362778,,3,3.0
MgZn2Zr,0.0,-0.0159693,,3,3.0
MgNdHg,0.0,-0.0395349999999999,,3,3.0
N3MoBa3,0.0,-0.0268083,,3,3.0
Ni2ReIr,0.0,-0.0437361,,3,3.0
MnZn4Hf,0.0,-0.0226916,,3,3.0
Al7Cu,0.0,-0.0087166,,3,3.0
Zn4SrLa,0.0,-0.0201814999999999,,3,3.0