formula,bg,formation_energy,mp-id,fidelity,bg_category
Nb3RuRh2,0.0,-0.0339819,,3,3.0
O2Rb2Hg,2.5611,-0.0255841,,3,3.0
O6TiEu2Ta,0.0,-0.0260368,,3,3.0
SRhSb,1.0846,-0.0275741,,3,3.0
As2Ce6Ir,0.0,-0.0429951,,3,3.0
Ge2Pt3Th,0.0,-0.0583297,,3,3.0
Fe4ZrTa,0.0,-0.028462,,3,3.0
O7Zr2La2,4.5258,-0.0210793,,3,3.0
AlNiY2,0.0,-0.0203044,,3,3.0
AlRh2Tb2,0.0,-0.0348053,,3,3.0
Mg3Ag2La,0.0,-0.0204231,,3,3.0
LiCoDy2,0.0,-0.0288695,,3,3.0
O5S2Er2Hf2,2.9831,-0.0285512,,3,3.0
Li2Pd2Ba,0.0,-0.0224116,,3,3.0
NiRh2Lu2,0.0,-0.0396952,,3,3.0
LiO2Y,4.8852,-0.0138886,,3,3.0
Rh2DyTl,0.0,-0.0475393,,3,3.0
F6Rb3Y,6.8711,-0.0146532,,3,3.0
InHf3,0.0,-0.0555897999999999,,3,3.0
OPZnEu,0.0,-0.0226483,,3,3.0
MgGeRu,0.0,-0.0200633,,3,3.0
Na2AuTl,0.0,-0.0377821,,3,3.0
MnAu4,0.0,-0.0592588,,3,3.0
B4ZrEr,0.0,-0.0193457,,3,3.0
C2NiPu,0.0,-0.0366139999999999,,3,3.0
Rh2Sn4Au,0.0,-0.0404403,,3,3.0
KCd4Pb,0.0,-0.0343575999999999,,3,3.0
LiCl6CaRb2,0.0,-0.0121374999999999,,3,3.0
CdLu3Ir2,0.0,-0.0574117,,3,3.0
NaSr2Hg,0.0,-0.0295306,,3,3.0
S2ScIn,0.6019,-0.0181954,,3,3.0
NiGdPb,0.0,-0.0507554,,3,3.0
O3Pt,0.0,-0.0224193,,3,3.0
MgSi2Co,0.0,-0.0108353,,3,3.0
ZnPdEr,0.0,-0.0330604,,3,3.0
F4CrIn,0.7262,-0.0136816,,3,3.0
SiNi2Dy,0.0,-0.0232686,,3,3.0
S2TlPa,0.0,-0.0489468,,3,3.0
Mg2Ga2Er,0.0,-0.0190094,,3,3.0
FeCuSe8Rh4,0.0,-0.0239734,,3,3.0
Co8Ru,0.0,-0.0191693,,3,3.0
B2O4Co,0.6199,-0.0103438,,3,3.0
CrBr3Tl,0.0,-0.0307592,,3,3.0
CDy2Pb,0.0,-0.0460225,,3,3.0
Li4As4Sr3,0.0,-0.0153760999999999,,3,3.0
KPdI3,0.0,-0.0310143999999999,,3,3.0
PSr2I,1.8098,-0.0245483,,3,3.0
CoZr,0.0,-0.0243841999999999,,3,3.0
SiK2Se4Hg,2.1388,-0.0227699,,3,3.0
AlZrRu2,0.0,-0.0278587,,3,3.0
TiTc2Sn,0.0,-0.0308088,,3,3.0
CaFe2Ga,0.0,-0.0157188,,3,3.0
O8As2NbCs,2.782,-0.0153152,,3,3.0
RhLaHg,0.0,-0.0490641,,3,3.0
Al4Ca3Ni4,0.0,-0.0117887,,3,3.0
Mg2LaTl2,0.0,-0.0400311,,3,3.0
Al2CoAu,0.0,-0.0260302,,3,3.0
Si3P4,0.4644,-0.0103615,,3,3.0
Rh5Sb,0.0,-0.0344876,,3,3.0
LiNSr,0.6194,-0.0119613,,3,3.0
P2Ti6Ga,0.0,-0.0157133,,3,3.0
LiMgGeRh,0.0,-0.015646,,3,3.0
ZrSb2Hf2,0.0,-0.0466831,,3,3.0
LiSm2Ir,0.0,-0.0411882,,3,3.0
O6Ba2IrTl,0.0,-0.0277173,,3,3.0
BNiW,0.0,-0.0314288,,3,3.0
S4Dy2Pb,2.3844,-0.0317474,,3,3.0
Se3Lu4Pb,0.0,-0.0462101,,3,3.0
Ca3Ga3Sn2Au,0.0,-0.0249837999999999,,3,3.0
Rh2CdPa2,0.0,-0.0601116,,3,3.0
AlGd2Au,0.0,-0.0492466,,3,3.0
SeBr6Cs2,2.0159,-0.0246776,,3,3.0
V3MnTa2,0.0,-0.034195,,3,3.0
Ca2Rh2In3,0.0,-0.027346,,3,3.0
O3Cu2Sr,0.0,-0.0134262999999999,,3,3.0
PdCe3Os2,0.0,-0.0520546,,3,3.0
NaS3TiCo,0.0,-0.0122539,,3,3.0
H2Sc2In,0.0,-0.0144944,,3,3.0
SCl2AuBi,1.4617,-0.0351885,,3,3.0
C2ClTm2,0.0,-0.0274063,,3,3.0
NiPt2,0.0,-0.0523654999999999,,3,3.0
O5Sb4I2,1.9155,-0.024199,,3,3.0
O4MgNi2,0.1267,-0.0106174,,3,3.0
S4Cu3Sb,0.0,-0.0154536,,3,3.0
Ge2Y3RuIn3,0.0,-0.0292729,,3,3.0
Br3CsTl,0.6471,-0.034936,,3,3.0
SiRu2,0.0,-0.0270086,,3,3.0
Ti2CuSb3,0.0,-0.0268477,,3,3.0
F6RhAu,0.4416,-0.016913,,3,3.0
Sb2Hf6Ir,0.0,-0.058674,,3,3.0
TmLu3,0.0,-0.0544664,,3,3.0
Ga2Pd2La,0.0,-0.0291956,,3,3.0
LiMoIr2,0.0,-0.0451806,,3,3.0
LiRu2Ta,0.0,-0.0349226,,3,3.0
NaPd2Sb,0.0,-0.027187,,3,3.0
O6MnSr2Eu,0.0,-0.0180086,,3,3.0
TiPdCd,0.0,-0.0268027,,3,3.0
C2ITb2,0.0,-0.0308866,,3,3.0
MnI4Au2,1.0239,-0.0436081,,3,3.0
Si2Ni2Dy,0.0,-0.0209226,,3,3.0
LiPRu,0.0,-0.0166511,,3,3.0
RhPdHo2,0.0,-0.0421507,,3,3.0
H6MnRb2,3.2395,-0.0091783,,3,3.0
Cu2ZnSm,0.0,-0.022373,,3,3.0
PKSe3Ag,1.1853,-0.0189354,,3,3.0
O8CuZnW2,1.0572,-0.0200819,,3,3.0
RbTl3,0.0,-0.059622,,3,3.0
ScAs2La,0.0,-0.0260366,,3,3.0
Co3Ni5,0.0,-0.0165933,,3,3.0
H2O5MgMo,4.4904,-0.0106948,,3,3.0
P2Mn2U,0.0,-0.0328646,,3,3.0
Cl2SeAg2Hg,1.6141,-0.0282539,,3,3.0
TiZnPd2,0.0,-0.02445,,3,3.0
H2AgPt2,0.0,-0.0355793,,3,3.0
Cd2InPt,0.0,-0.0414665,,3,3.0
NaSr2In2,0.0,-0.0235083,,3,3.0
MnAgPt2,0.0,-0.0479138,,3,3.0
O8Mo2CsEr,4.4584,-0.0199616,,3,3.0
LiGeCd,0.0,-0.0175285,,3,3.0
K3Au,0.0,-0.0237579999999999,,3,3.0
PSCo,0.7866,-0.0130742999999999,,3,3.0
PRhLu,0.0,-0.0345783,,3,3.0
O6MgSnLu2,4.4195,-0.0219779,,3,3.0
Ti2CrIr,0.0,-0.0311281,,3,3.0
Si2CdLu2,0.0,-0.0328928999999999,,3,3.0
Cu4Se3Tl,0.0,-0.0243712,,3,3.0
Nd2HgPb,0.0,-0.0585124,,3,3.0
PdSb2Ho6,0.0,-0.0453859,,3,3.0
O4Ca3Cu2I2,0.0,-0.0162984,,3,3.0
SeSbI,1.1041,-0.0316522,,3,3.0
O6MgSr2Sb,0.0,-0.0149201,,3,3.0
HO3RbTe,3.6073,-0.0147371999999999,,3,3.0
NaCl6K2Sc,4.4652,-0.0105478,,3,3.0
Si2Cd2Ba,0.0,-0.0243465,,3,3.0
NiGeLa,0.0,-0.0269134,,3,3.0
LiPS2,1.2466,-0.0087264,,3,3.0
In2LaSm,0.0,-0.0392405,,3,3.0
LiBr6InCs2,2.1575,-0.0243746,,3,3.0
P2KCu2,0.0,-0.0121694,,3,3.0
Ni5Ir4,0.0,-0.0405385,,3,3.0
FeIDy,0.0,-0.0349179,,3,3.0
MgSe2AgCs,2.6362,-0.0239743,,3,3.0
TcRePt2,0.0,-0.0618072,,3,3.0
Al5Rh2Ce,0.0,-0.0197456999999999,,3,3.0
GeRu3Pa2,0.0,-0.0544363,,3,3.0
CuRhEu2,0.0,-0.0393403,,3,3.0
DyIr3,0.0,-0.0659935,,3,3.0
CLu3Tl,0.0,-0.0504255,,3,3.0
CIPu,0.0,-0.0527942,,3,3.0
YCdPb2,0.0,-0.0529215,,3,3.0
HNi3Pd,0.0,-0.0169087,,3,3.0
O6Na2TeNd,0.0,-0.0146196,,3,3.0
AlScGa,0.0,-0.0133972,,3,3.0
Ni2Ta2Ir,0.0,-0.0478278,,3,3.0
Sc3Ga2,0.0,-0.0157081,,3,3.0
Li2SrSn2,0.0,-0.0203113,,3,3.0
GaPt2Np,0.0,-0.0666229,,3,3.0
PdSb2Ba6,0.0,-0.0390192,,3,3.0
NiMo2Re,0.0,-0.0392178,,3,3.0
Tc3Ta5,0.0,-0.0552044,,3,3.0
Co2CeDy,0.0,-0.0318031,,3,3.0
O5FKNb4,0.0,-0.0184209,,3,3.0
H6O6Na2Hf,5.1941,-0.0104061,,3,3.0
AsHf2,0.0,-0.0493609999999999,,3,3.0
LiCl6MoCs2,2.2346,-0.0178748,,3,3.0
Mg2CuPt,0.0,-0.0244653999999999,,3,3.0
O2ILa,1.3667,-0.0254451,,3,3.0
F7Fe2Cs3,0.6366,-0.0172061999999999,,3,3.0
MgRuLu,0.0,-0.0320335,,3,3.0
CaCd4Hg,0.0,-0.0334236,,3,3.0
LiMg2Cd,0.0,-0.0109339,,3,3.0
O4NbDy,3.8484,-0.0210351,,3,3.0
H3Pa,0.0,-0.0278449999999999,,3,3.0
K3Pt3Bi2,0.0,-0.0494118,,3,3.0
GaRuHf,0.0,-0.0386717,,3,3.0
BMgSe2,0.0,-0.0133057,,3,3.0
CuITb,0.0,-0.033765,,3,3.0
Al3Si2NiEr3,0.0,-0.0241689,,3,3.0
Li2O10Ti2V3,0.235,-0.0117212999999999,,3,3.0
NdPtPb,0.0,-0.0642355,,3,3.0
LiO2Mo,0.0,-0.0144324,,3,3.0
MoTe6W2,0.9542,-0.0442967,,3,3.0
F4FePb,0.9638,-0.0203798,,3,3.0
O3K2Fe,1.0504,-0.0105977,,3,3.0
MgYHg2,0.0,-0.0429648,,3,3.0
O8RbMo2Hf,0.0,-0.0194473999999999,,3,3.0
NaBr6Rb2Ce,0.0,-0.0226446,,3,3.0
In3Pr3Pt2,0.0,-0.0472939,,3,3.0
CdNdBi2,0.0,-0.0582969,,3,3.0
Mg2PRu2,0.0,-0.0185112,,3,3.0
BeCaTe2,1.3461,-0.0230319,,3,3.0
O10CePr4,0.0,-0.0216863,,3,3.0
Al4CoTm,0.0,-0.0172137,,3,3.0
AlCu2Th2,0.0,-0.0462681,,3,3.0
CdPtPb2,0.0,-0.0631592,,3,3.0
O8Na3V2Gd,3.7103,-0.0138237,,3,3.0
RbTe2Lu,1.5583,-0.0391368,,3,3.0
SiScPd,0.0,-0.0200705999999999,,3,3.0
Cu3Pd2Sm,0.0,-0.0263977,,3,3.0
Mg4Ca5,0.0,-0.0075821,,3,3.0
YPdI,0.5283,-0.0336417,,3,3.0
H3PdEr,0.0,-0.0193115999999999,,3,3.0
ZnSb2Eu2,0.0,-0.0399107,,3,3.0
Cu4CdSm,0.0,-0.0228536,,3,3.0
Br6MoCs2,0.0,-0.0265705,,3,3.0
CZnZr2,0.0,-0.0218417999999999,,3,3.0
SiGaSe3,1.1921,-0.0177897999999999,,3,3.0
Cu4Rh,0.0,-0.0188829,,3,3.0
In5SmPt,0.0,-0.0408071,,3,3.0
F6CuRb2,0.0,-0.0108303,,3,3.0
AlZnTh2,0.0,-0.0534131,,3,3.0
LiBe5,0.0,-0.0039804,,3,3.0
Ge2RuNd,0.0,-0.0299445,,3,3.0
FeCoRh2,0.0,-0.0257545,,3,3.0
CdInLu,0.0,-0.0401726,,3,3.0
P2CuHf,0.0,-0.0254049,,3,3.0
O2FKTe,3.099,-0.014036,,3,3.0
RhSb2Er,0.0,-0.0405059,,3,3.0
BCaGa2Ir2,0.0,-0.0326175,,3,3.0
NiGe2Sn3Ho3,0.0,-0.0349841,,3,3.0
MgCdTb,0.0,-0.0277367,,3,3.0
HMgPt2Au,0.0,-0.043962,,3,3.0
PSHo,0.0739,-0.0247027,,3,3.0
O6FeCuSr2Pb2,0.0,-0.0240823,,3,3.0
GaIr7,0.0,-0.0643406,,3,3.0
SiZnLa,0.0,-0.0229294,,3,3.0
LiHfPb,0.0,-0.0472257,,3,3.0
Be2PdPt2,0.0,-0.0370731,,3,3.0
SiTmPt2,0.0,-0.0519342,,3,3.0
H8Mg2CrPu,0.0,-0.0140596,,3,3.0
MgIn2Ir2,0.0,-0.0431081,,3,3.0
Al9Cu2Sr,0.0,-0.0103582999999999,,3,3.0
ZnBi2Th6,0.0,-0.0832332,,3,3.0
Pd2Ag3Pr,0.0,-0.0342262,,3,3.0
SiScNd,0.0,-0.0232938,,3,3.0
Zr2CdIn,0.0,-0.031655,,3,3.0
ClRb2Sb2,0.0,-0.0258062,,3,3.0
Zn2RuNd,0.0,-0.0266599,,3,3.0
SiGaTh,0.0,-0.0413378,,3,3.0
Se4NbCs3,2.2853,-0.0296534,,3,3.0
LiAs2LuPt2,0.0,-0.0407815999999999,,3,3.0
C2O6SrCd,4.1237,-0.0129885,,3,3.0
B2Sn5Ir6,0.0,-0.0480784999999999,,3,3.0
Na4As2Hg,0.9494,-0.0184302,,3,3.0
MgRh2Tb2,0.0,-0.0340501,,3,3.0
Cl12InSbCs4,1.2822,-0.0192638,,3,3.0
MgInIr,0.0,-0.0368362,,3,3.0
As2Sb3,0.0,-0.0303735,,3,3.0
ZnRuTb,0.0,-0.0320593999999999,,3,3.0
MgTiIr2,0.3302,-0.0417948,,3,3.0
HAlSiNp,0.0,-0.0321443,,3,3.0
SrErPb,0.0,-0.0500702,,3,3.0
Cu4LaAu,0.0,-0.0291378,,3,3.0
Cu2Zn2Cd,0.0,-0.0175786,,3,3.0
B2CNp,0.0,-0.0332089,,3,3.0
O2KSb,2.1481,-0.0161688,,3,3.0
S2LuTl,1.5197,-0.0384112999999999,,3,3.0
NbHgBi,0.0,-0.059997,,3,3.0
LiO7P2Co,2.0862,-0.0098882,,3,3.0
B4MoDy,0.328,-0.0194077,,3,3.0
SbNp2,0.0,-0.0836914,,3,3.0
AlTiNiRu,0.0,-0.0195165,,3,3.0
Rh2DyPu,0.0,-0.0569514,,3,3.0
Sc2AgHg,0.0,-0.0325399,,3,3.0
BrRhSm,0.0,-0.0339473,,3,3.0
P3Mn4As,0.0,-0.0161291,,3,3.0
RuSn2Lu,0.0,-0.0410531,,3,3.0
F6RuBa,0.5263,-0.0148004,,3,3.0
Li2O3Ge,4.314,-0.0092310999999999,,3,3.0
NiW2Pt,0.0,-0.0565532,,3,3.0
Y3CdIr2,0.0,-0.0435353,,3,3.0
Au2Hg2Tl,0.0,-0.0693833,,3,3.0
LiSc2Cd,0.0,-0.0155047,,3,3.0
Na2As2Sr,0.0,-0.0149543,,3,3.0
AgSnBa2,0.0,-0.0370795,,3,3.0
F8K2CaTh,7.605,-0.0164369,,3,3.0
ZnIn5Pu,0.0,-0.0416049999999999,,3,3.0
F4Sc,4.2394,-0.0089558,,3,3.0
Co,0.0,-0.0173043,,3,3.0
HRbCs2,0.0,-0.0250165,,3,3.0
Si2Ni3Pu,0.0,-0.0302349,,3,3.0
Co2Y2Ag,0.0,-0.0244355,,3,3.0
Sn2Hf6Pt,0.0,-0.0581925,,3,3.0
MgZrRu2,0.0,-0.0267244,,3,3.0
MgCo2Re,0.0,-0.0275009,,3,3.0
Co3Tb2Os,0.0,-0.0363483999999999,,3,3.0
NInTm2,0.0,-0.0378703,,3,3.0
GaTe2Pm,0.0,-0.0346169,,3,3.0
B2N4Er3,0.0,-0.0242739,,3,3.0
Pd3Ce,0.0,-0.0365563999999999,,3,3.0
Ni3Te4,0.0,-0.0284477,,3,3.0
Co2Hf2Tl,0.0,-0.0467154,,3,3.0
Na2P2Np,0.0,-0.0277518,,3,3.0
F7Na3Mn,2.0369,-0.0079001,,3,3.0
SFeSb,0.8612,-0.0219859,,3,3.0
BrPtPb2,0.0,-0.0607079,,3,3.0
Zn7Tc,0.0,-0.0162633,,3,3.0
Al3FeGe2Ho3,0.0,-0.0258842,,3,3.0
N3SrRh,0.0,-0.0170915,,3,3.0
NiZr2Rh,0.0,-0.0285651,,3,3.0
AuTlPb,0.0,-0.0724856,,3,3.0
Ni4MoTc,0.0,-0.0224339,,3,3.0
Ge2SrSn2,0.0,-0.0267256,,3,3.0
O3KI,2.7729,-0.0138059,,3,3.0
F6BrAu,2.5026,-0.0147512,,3,3.0
Ag2Cd3Th,0.0,-0.041782,,3,3.0
BSnTb3,0.0,-0.0372627,,3,3.0
AgSb5,0.0,-0.0362008999999999,,3,3.0
AlMnAu2,0.0,-0.0416515,,3,3.0
GaCe2Ir2,0.0,-0.0504625,,3,3.0
B4In5Ir9,0.0,-0.0467556,,3,3.0
Ge2Nb2Hf,0.0,-0.0340858,,3,3.0
Ga2SnTe,0.0109,-0.0266064,,3,3.0
Li3O8Si2Ni2,0.0153,-0.0095091,,3,3.0
O3BaEu,0.0,-0.0250155,,3,3.0
KGe2Pt,0.0,-0.0296619999999999,,3,3.0
LiF6K2Pb,0.0,-0.0142467,,3,3.0
Rb2CsAu2,0.0,-0.0438267,,3,3.0
CaBr6Cs2,0.0,-0.0240184,,3,3.0
ZnRh2Dy2,0.0,-0.0362343,,3,3.0
NiCu2Au,0.0,-0.0289377,,3,3.0
ZrRhCd2,0.0,-0.0317302,,3,3.0
MgPbBi,0.0,-0.0532025999999999,,3,3.0
OK3I,1.5467,-0.0150023,,3,3.0
FeCo2Ge,0.0,-0.0182484,,3,3.0
BeAlTa2,0.0,-0.0364799,,3,3.0
NNiHf2,0.0,-0.0388864,,3,3.0
ZnHoPt,0.0,-0.0453937,,3,3.0
S3Zr2,0.0,-0.0199041,,3,3.0
Ru2Lu,0.0,-0.0421086,,3,3.0
NaSRb,3.0116,-0.0127998,,3,3.0
Rb2Ag2Au,0.0,-0.0347498999999999,,3,3.0
ZrPdSb,0.0,-0.0344402,,3,3.0
Fe2As2Sm,0.0,-0.0248355,,3,3.0
AgSn2Tl2,0.0,-0.0494667,,3,3.0
B5Ca2Re3,0.0,-0.0272737,,3,3.0
CaInPt4,0.0,-0.0547220999999999,,3,3.0
CuInHo,0.0,-0.0330528,,3,3.0
Co4InPu,0.0,-0.0354303,,3,3.0
F6ZnCs3,0.0,-0.0173788,,3,3.0
CaInBa2,0.0,-0.0308183,,3,3.0
Al7Ho3Au2,0.0,-0.0289954,,3,3.0
Co4Ga3Ge,0.0,-0.0173322,,3,3.0
BO4F3Na2S,6.5913,-0.0080033999999999,,3,3.0
Y2CdLa,0.0,-0.0325055,,3,3.0
GeNbTm,0.0,-0.035417,,3,3.0
Zn2GeIr,0.0,-0.0296469,,3,3.0
AlSr2Au2,0.0,-0.0389476999999999,,3,3.0
O7Fe2Sb2Ba,1.6339,-0.0179708,,3,3.0
P4Ca3Cu2Cd2,0.5252,-0.0155258,,3,3.0
Cl8Sc5,0.0,-0.012378,,3,3.0
ScNi2Rh,0.0,-0.0205902,,3,3.0
ScFe4Ta,0.0,-0.0257278,,3,3.0
Li6O6KIr,0.0,-0.0111504999999999,,3,3.0
FK3Au,0.0,-0.0208344,,3,3.0
BrLa2Pt,0.0,-0.0455589999999999,,3,3.0
S8Rh3,0.0,-0.0167031999999999,,3,3.0
MnPt8,0.0,-0.064681,,3,3.0
H8CrZn2Ce,0.0,-0.0099163,,3,3.0
F6ZnNb,0.0,-0.0113142,,3,3.0
LiLa2Ir2,0.0,-0.0467329,,3,3.0
Al9SrPd2,0.0,-0.0135862999999999,,3,3.0
NaNiGa2,0.0,-0.0135112,,3,3.0
CdLaAu,0.0,-0.0484111,,3,3.0
H6KCrRb2,3.184,-0.0092196,,3,3.0
BeGeRu2,0.0,-0.0236463,,3,3.0
OP2Ti2Ba,0.0,-0.0182395,,3,3.0
Ga3Ge2Ho3Au,0.0,-0.0344992,,3,3.0
F6PbTh,6.0248,-0.0276249,,3,3.0
Ca3Co2Cu2As4,0.0,-0.016573,,3,3.0
Cl3GaTb3,0.0,-0.0274991999999999,,3,3.0
MgCaTe2,2.1268,-0.0236449,,3,3.0
CrMo2Ta,0.0,-0.0387384,,3,3.0
Fe2SnCe,0.0,-0.0294532,,3,3.0
AlHfIr,0.0,-0.0483192999999999,,3,3.0
GaBr3La3,0.0,-0.0307458,,3,3.0
O4NdTb,2.5678,-0.022259,,3,3.0
F6Rb2Gd,0.0,-0.0167128,,3,3.0
P2Ni2Ba,0.0,-0.0193698,,3,3.0
NaCoAs,0.0,-0.0142241,,3,3.0
CaSrHg2,0.0,-0.0427736,,3,3.0
NaAs6Sn6Ba2,0.0,-0.0284864999999999,,3,3.0
SiPd3Tm2,0.0,-0.0363156,,3,3.0
RhSnPu,0.0,-0.0603974,,3,3.0
In3Lu3Au2,0.0,-0.0514273,,3,3.0
Si10ScY4,0.0,-0.0155368,,3,3.0
Cl5Tl,0.5343,-0.018977,,3,3.0
Ni2GaTh2,0.0,-0.0486597999999999,,3,3.0
LiCl6ZrCs2,0.0,-0.0177669,,3,3.0
O7CaGe2Ce,2.5859,-0.0149985,,3,3.0
O4BrBi2Pu,0.0,-0.0407635,,3,3.0
K2MnI6,0.0,-0.029303,,3,3.0
S3KCr2,0.0,-0.013221,,3,3.0
F4NaLu,7.655,-0.0162662,,3,3.0
Zn2LuAu,0.0,-0.0385403999999999,,3,3.0
H4NAgTe4W,0.5077,-0.0249338,,3,3.0
F6K2Mn,3.535,-0.009229,,3,3.0
H2GeRu2,0.0,-0.0191409,,3,3.0
Zr5Rh3,0.0,-0.0324835,,3,3.0
Rh2PrLu,0.0,-0.0424016,,3,3.0
HRuTa2Au,0.0,-0.048356,,3,3.0
RhSbTm,0.0,-0.042099,,3,3.0
B4TiCr,0.0,-0.0114319,,3,3.0
LiIn2Hg,0.0,-0.0345362,,3,3.0
KTl2,0.0,-0.0512069,,3,3.0
O6Al3Y,5.2162,-0.0123544,,3,3.0
BRh3Sn,0.0,-0.0293831999999999,,3,3.0
Ge2Ag2Eu,0.0,-0.0313472,,3,3.0
Ga2BaBi2,0.0,-0.0462580999999999,,3,3.0
NaZn2Bi2,0.0,-0.0377905,,3,3.0
MnNi4Tm,0.0,-0.0228917,,3,3.0
FeLu6Pb2,0.0,-0.0561578,,3,3.0
MgIr7,0.0,-0.0630148,,3,3.0
SiSrAu2,0.0,-0.0433101,,3,3.0
CrFeGaSe4,0.0,-0.0195159,,3,3.0
Al2PdEu,0.0,-0.0262613999999999,,3,3.0
Pd2InLa2,0.0,-0.0379684,,3,3.0
BHo2Ir6,0.0,-0.0599327,,3,3.0
ZrTe2Pb,0.0,-0.0458724,,3,3.0
GaAg2Au2,0.0,-0.0435345,,3,3.0
CaAs2Rh2,0.0,-0.0244256999999999,,3,3.0
P2Cu4Zr3,0.0,-0.0200597,,3,3.0
N6Cr2Tb3,0.0,-0.0224773999999999,,3,3.0
N2ScDy,0.2081,-0.0222208,,3,3.0
Al4Ge2Y3,0.0,-0.0176175,,3,3.0
MgY2Ru2,0.0,-0.026409,,3,3.0
GeTcHf,0.0,-0.0395682,,3,3.0
MgNiIn5,0.0,-0.0269344,,3,3.0
O7NaS2K,6.077,-0.0087295999999999,,3,3.0
SnHg2Pb2,0.0,-0.0646626,,3,3.0
Na2P2K,0.0,-0.0079318,,3,3.0
O2NiEr,0.0,-0.0222296,,3,3.0
HO2Y,5.4682,-0.013815,,3,3.0
Si2Ru3Ho,0.0,-0.0296528,,3,3.0
Ti3In3Au2,0.0,-0.0362505,,3,3.0
Ru2OsPt,0.0,-0.0529055,,3,3.0
Si2La2Tl,0.0,-0.0364069999999999,,3,3.0
PSc2Te2,0.0,-0.0238961,,3,3.0
Be2F5Rb,8.0125,-0.0092258999999999,,3,3.0
GeTe4Er,0.0,-0.0369831,,3,3.0
Na2CsBi2,0.0,-0.0410634999999999,,3,3.0
NiIn5Tb,0.0,-0.0332213,,3,3.0
Li2SiPt,0.0,-0.0220311999999999,,3,3.0
Mn3Ni2Y,0.0,-0.0194863,,3,3.0
C2SiZr3,0.0,-0.0212986,,3,3.0
O4MnSb,0.0,-0.0152177,,3,3.0
Ga3Hf2,0.0,-0.0354722,,3,3.0
Si2Zr2Nb,0.0,-0.0238042,,3,3.0
ScCrNi4,0.0,-0.0165276,,3,3.0
CuBr6Rb2Ag,0.0,-0.0214939,,3,3.0
NaPOs,0.0,-0.0292636,,3,3.0
PCaU,0.0,-0.0419515,,3,3.0
Ga6BaPt,0.0,-0.0265777,,3,3.0
ZnTaAu2,0.0,-0.0548143,,3,3.0
Si4Co4Dy3,0.0,-0.0236423999999999,,3,3.0
MgGa2Au,0.0,-0.0271418,,3,3.0
NaNi3Te2,0.0,-0.0215194,,3,3.0
B4Fe5Dy2,0.0,-0.0200126,,3,3.0
NiCuTe,0.0,-0.0229791999999999,,3,3.0
PBr3,3.195,-0.0175467,,3,3.0
ZnDyTl,0.0,-0.0450225999999999,,3,3.0
LiGe2Dy2,0.0,-0.0280145,,3,3.0
Hf2Os,0.0,-0.0663107,,3,3.0
Mg2Rh2Cd,0.0,-0.0219743,,3,3.0
CuGeNd2,0.0,-0.030848,,3,3.0
GaSrPd,0.0,-0.0245336,,3,3.0
Cl6Te4U,0.0,-0.0283177999999999,,3,3.0
O2Na2KPt,0.2468,-0.01774,,3,3.0
InLaTl,0.0,-0.0502255,,3,3.0
CMgMn2,0.0,-0.0129907,,3,3.0
LuIrBi,0.0,-0.0691597,,3,3.0
PNiTa,0.0,-0.0318212,,3,3.0
CaI3Hg,0.0,-0.0383943999999999,,3,3.0
AsSbLa2,0.0,-0.0375013,,3,3.0
Al3Co2Zn,0.0,-0.0123126,,3,3.0
ScCo4Cu,0.0,-0.0165217,,3,3.0
LiAl2Pm,0.0,-0.0157005,,3,3.0
Zn4Pt,0.0977,-0.0252125,,3,3.0
N2ScU,0.0,-0.0357771,,3,3.0
O3NiY,0.0,-0.015117,,3,3.0
O6NaTeBaLa,3.7358,-0.0185839,,3,3.0
SnCsPt2,0.0,-0.0538628,,3,3.0
SnOsPa,0.0,-0.0696262,,3,3.0
NiRu2Tb2,0.0,-0.0362353,,3,3.0
CrRu2,0.0,-0.0292914,,3,3.0
CrRbAgTe3,0.0,-0.0309322,,3,3.0
GeSe4Nb,0.0,-0.0226116,,3,3.0
N2NaCr,0.0,-0.0108638,,3,3.0
O8P2TiRb,0.0,-0.0115041,,3,3.0
Co2PdTa2,0.0,-0.0403512,,3,3.0
MgSnLu,0.0,-0.0325943,,3,3.0
CuTe2Lu,0.1978,-0.037165,,3,3.0
AlAuPa,0.0,-0.059386,,3,3.0
PRbPt,0.0,-0.0342823,,3,3.0
Si2TiNi2,0.0,-0.0143445,,3,3.0
ClAg2,0.7316,-0.023858,,3,3.0
O6MgGeSm2,5.5859,-0.0181475,,3,3.0
P4Sc3Cu2Zn2,0.0,-0.0137269,,3,3.0
Y2CdSn2,0.0,-0.0323166,,3,3.0
Y2RhHg,0.0,-0.0402046,,3,3.0
B2Ru3Hf,0.0,-0.0308515,,3,3.0
NiY,0.0,-0.0224465,,3,3.0
BCFeSm,0.0,-0.0203516,,3,3.0
PmPb,0.0,-0.0605565,,3,3.0
OPCdTh,1.1085,-0.0377025,,3,3.0
Ga7Ag2Tb3,0.0,-0.026995,,3,3.0
Sc2RhTl,0.0,-0.0344521,,3,3.0
Cu2Nb3,0.0,-0.0259222,,3,3.0
Al2ZnZr6,0.0,-0.0239851,,3,3.0
AlCo2Lu2,0.0,-0.0310106,,3,3.0
Al3Ge2Sm3Ir,0.0,-0.0305194,,3,3.0
Rh3Sn2Ba,0.0,-0.036022,,3,3.0
CNb2Tl,0.0,-0.0375224,,3,3.0
Ni4Zn5,0.0,-0.0148327,,3,3.0
Mn2In5Hf4,0.0,-0.0415327,,3,3.0
O7P2KEu,0.0645,-0.0142093,,3,3.0
O6MgKI,0.0,-0.0107057,,3,3.0
PI2Pr2,0.0,-0.0358125,,3,3.0
NiGe2In3Lu3,0.0,-0.0362438999999999,,3,3.0
TmAuHg,0.0,-0.0638767,,3,3.0
Hg3Bi,0.0,-0.0707112999999999,,3,3.0
Cl6Ca2Ba,6.3038,-0.0145481999999999,,3,3.0
Se2SnTa,0.0,-0.0362928,,3,3.0
KTl2Pb,0.0,-0.0573924,,3,3.0
F7Sc2Cs,6.1994,-0.0131178,,3,3.0
Ag4Ce,0.0,-0.0341031,,3,3.0
MgSc2Mo,0.0,-0.0170143,,3,3.0
CGeTb3,0.0,-0.0345346,,3,3.0
MgPd2Cd,0.0,-0.0258498,,3,3.0
CO5Pa,0.7399,-0.0224233,,3,3.0
Si2BaIr,0.0,-0.0334118,,3,3.0
F6CoPu,0.4547,-0.0216467999999999,,3,3.0
BeSiCu2,0.0,-0.011218,,3,3.0
MnRh2Ta,0.0,-0.0387212,,3,3.0
OFClPb2,2.7871,-0.0355093999999999,,3,3.0
Cu4CdLa,0.0,-0.0225719,,3,3.0
MgGa2Hf2,0.0,-0.0330659,,3,3.0
FeMoRe,0.0,-0.0413864,,3,3.0
S2Ni3Ga2,0.0,-0.0147622999999999,,3,3.0
Pd5Sb,0.0,-0.0338409,,3,3.0
B7Ho3W,0.0,-0.0250816,,3,3.0
LaOs2U,0.0,-0.0728285,,3,3.0
MnNiAu2,0.0,-0.0434672,,3,3.0
Co4Sn4Tb3,0.0,-0.0324514,,3,3.0
SBr2Tb2,0.0,-0.0304893,,3,3.0
Se3YCdCs,2.6555,-0.0276305,,3,3.0
Mn2Br8Ir,0.0,-0.0246284999999999,,3,3.0
Mg2CaNi,0.0,-0.0090802,,3,3.0
Zr2Pd2Tl,0.0,-0.0405332999999999,,3,3.0
B6Cr2Er,0.0,-0.015229,,3,3.0
B2O6SrU,0.5986,-0.0208386,,3,3.0
Cl6Cs2Np,1.7267,-0.0277651,,3,3.0
TiIn,0.0,-0.0250057,,3,3.0
Ga2Pd3Nd,0.0,-0.0299573,,3,3.0
NiGa5Nd,0.0,-0.0207235,,3,3.0
MgNb2Ir2,0.0,-0.0432299,,3,3.0
Cu7Zn,0.0,-0.01502,,3,3.0
YHg2Tl,0.0,-0.0595542,,3,3.0
CdGdAu2,0.0,-0.0576533,,3,3.0
F6TiRh,0.4608,-0.0116121,,3,3.0
B2CCu2Pa,0.0,-0.0261011999999999,,3,3.0
NaAgIn,0.0,-0.0231342,,3,3.0
Se2SbCs,1.6828,-0.0295901,,3,3.0
S3KTiAg,0.5427,-0.0152589,,3,3.0
Ni3Rh2Eu,0.0,-0.0284305999999999,,3,3.0
Co2GeTb2,0.0,-0.0298535,,3,3.0
Mg7Au,0.0,-0.0131595999999999,,3,3.0
Sn3Th,0.0,-0.0513543,,3,3.0
As4Pd5Pb,0.0,-0.0323879,,3,3.0
FeCu5,0.0,-0.0156209,,3,3.0
MnIn2Te4,0.4995,-0.0338646,,3,3.0
AlTbAu,0.0,-0.042276,,3,3.0
RuW2Pt,0.0,-0.0613258999999999,,3,3.0
O7CuBrNb2Eu,0.0,-0.0188725,,3,3.0
Ga3Ge2Y3Ag,0.0,-0.0231764,,3,3.0
F6CoBa,0.8888,-0.0125555,,3,3.0
CdAuPb2,0.0,-0.0628423,,3,3.0
Ge2Rh3Th,0.0,-0.0401398,,3,3.0
Al2ClSr2,0.0,-0.0145891,,3,3.0
Si2GaCe,0.0,-0.0206431,,3,3.0
P2NiY2,0.0,-0.0200613,,3,3.0
Sb4BaAu6,0.0,-0.0551841999999999,,3,3.0
ScHg4,0.0,-0.057575,,3,3.0
Cu2SrSb2,0.0,-0.0259429,,3,3.0
O2CoCs,0.0,-0.0183178,,3,3.0
F2KI,1.9439,-0.0149938,,3,3.0
BrRhIn3,0.0,-0.0311864,,3,3.0
Nb2MoRu,0.0,-0.0342845,,3,3.0
V3Fe,0.0,-0.0177824,,3,3.0
Zn2Ga2In,0.0,-0.0185729,,3,3.0
CoRh2Sn,0.0,-0.030414,,3,3.0
TiGe3Dy,0.0,-0.0248737,,3,3.0
CrZn3,0.0,-0.0147633,,3,3.0
SAsOs,1.3951,-0.0343484,,3,3.0
K2CuSb,1.3104,-0.0176516,,3,3.0
In4ErPt,0.0,-0.0429283,,3,3.0
MgGaLa2,0.0,-0.0272671,,3,3.0
NiIn2Ho,0.0,-0.0335178999999999,,3,3.0
S6CoNb2,0.0,-0.0165546,,3,3.0
H2Ga2Zr,0.0,-0.0143623999999999,,3,3.0
SiU,0.0,-0.0569851,,3,3.0
ISmOs,0.0,-0.0519619,,3,3.0
AlRbHg3,0.0,-0.0468315,,3,3.0
BPd4Nd,0.0,-0.0310454,,3,3.0
Cr2Rh,0.0,-0.0235574,,3,3.0
CoCu2Se2,0.0,-0.0176426,,3,3.0
Mg2AgLu,0.0,-0.0244058,,3,3.0
Si2Rh2Tm,0.0,-0.0291179999999999,,3,3.0
O3KRh,0.0,-0.013299,,3,3.0
S4GeCs2Hg,2.2346,-0.0260303,,3,3.0
S4Fe3Cs2,1.7289,-0.0195174999999999,,3,3.0
AsLaAu4,0.0,-0.0571804,,3,3.0
Li4O8Si2Fe,0.8438,-0.0089255,,3,3.0
OAlLa3,0.0,-0.0301306,,3,3.0
TiCu2Rh,0.0,-0.0204000999999999,,3,3.0
Cd2InTh2,0.0,-0.0574677,,3,3.0
LiAs2Rh2Tb,0.0,-0.0272113,,3,3.0
CInCe2,0.0,-0.0334652,,3,3.0
F6MgK2,1.2705,-0.0073294,,3,3.0
MnRh2Cd,0.0,-0.0293529,,3,3.0
S3SeCdIn2,1.3825,-0.0215870999999999,,3,3.0
ZnSnLa2,0.0,-0.0345454,,3,3.0
SeI2Nd2,0.0,-0.0379007,,3,3.0
GaEu,0.0,-0.0355533,,3,3.0
F8Na2SrBa,0.0,-0.0111483,,3,3.0
NaCa2Ag2,0.0,-0.0174993,,3,3.0
CoAsPd,0.0,-0.0237709,,3,3.0
Si2Zr2Pt,0.0,-0.031485,,3,3.0
RhILu,0.0,-0.0430758,,3,3.0
CuIn7,0.0,-0.0309323,,3,3.0