formula,bg,formation_energy,mp-id,fidelity,bg_category
NiAsHf2,0.0,-0.0413107,,3,3.0
LaDy3,0.0,-0.0465958,,3,3.0
CBrSm2,0.0,-0.0307236,,3,3.0
Li2YIn2,0.0,-0.0203208,,3,3.0
Co2As2Eu,0.0,-0.0264078,,3,3.0
O6CrMoBa2,0.0,-0.0197177,,3,3.0
PCoTa4,0.0,-0.0494668,,3,3.0
NRuTb3,0.0,-0.0378214,,3,3.0
ZnRb2SrBi2,0.0156,-0.0396075,,3,3.0
F6NiEr,0.0,-0.0140834,,3,3.0
Rh6Sb4Tm,0.0,-0.0373399,,3,3.0
O8P2CaNb,0.5976,-0.012232,,3,3.0
Te2U,0.0,-0.0598508,,3,3.0
S4CoCu2Sn,0.0,-0.0156821,,3,3.0
Zn2Ho2Tl,0.0,-0.0399563,,3,3.0
MgAl3Ho2,0.0,-0.0214468999999999,,3,3.0
Ga3BaPt2,0.0,-0.039004,,3,3.0
AlGa5Tb,0.0,-0.0197597999999999,,3,3.0
Zr2TcLa,0.0,-0.0350574,,3,3.0
ScYZr,0.0,-0.024164,,3,3.0
Zn4TaW,0.0,-0.031779,,3,3.0
DyHg3,0.0,-0.0635571,,3,3.0
Cl4K2Cd,3.9505,-0.0130614,,3,3.0
CuGe2Y3In3,0.0,-0.0270321,,3,3.0
NaI3Ho,0.0,-0.0339724999999999,,3,3.0
LiCa2Hg2,0.0,-0.0321763,,3,3.0
Ga2Ag2Tl,0.0,-0.0334624,,3,3.0
CeHg2Tl,0.0,-0.0637492,,3,3.0
Pd2In3Th,0.0,-0.0441757,,3,3.0
Mg2YSm,0.0,-0.0206728999999999,,3,3.0
Sc5Ag,0.0,-0.0171499,,3,3.0
GaGd,0.0,-0.0382847,,3,3.0
Zn2LaIr,0.0,-0.0358973,,3,3.0
RhTm6Tl2,0.0,-0.0549505,,3,3.0
ZrI3,0.0,-0.0362672,,3,3.0
NaSn2Ac,0.0,-0.0421032999999999,,3,3.0
LiS2Tl,1.5505,-0.0242242,,3,3.0
NaGe2Ag2,0.0,-0.0210512,,3,3.0
LiAlNi2,0.0,-0.0110592,,3,3.0
S3Rb2Er,0.0,-0.0217022,,3,3.0
Li2RhPb,0.0,-0.0289625999999999,,3,3.0
FeGe3Nd,0.0,-0.0243053,,3,3.0
S8FeCu3,0.0,-0.0119867,,3,3.0
Cl6CuAsCs2,0.6971,-0.0172299,,3,3.0
NiIn2Th,0.0,-0.0450989,,3,3.0
Al3Ca2Fe,0.0,-0.0103832,,3,3.0
CrRh8,0.0,-0.0321271,,3,3.0
Zn4ZrMo,0.0,-0.020203,,3,3.0
O6Ca2RuCd,0.0,-0.0141644,,3,3.0
Cu2As2Rb,0.0,-0.0185454,,3,3.0
MgY2Pt,0.0,-0.0335277,,3,3.0
PRh5In,0.0,-0.0307716,,3,3.0
F6TiCs3,0.9348,-0.0182928,,3,3.0
F13Sb2,0.0,-0.009832,,3,3.0
Si5Pd3Sm2,0.0,-0.0246308,,3,3.0
LiInTb,0.0,-0.0279683999999999,,3,3.0
O6Sr2InTa,4.6031,-0.0211434,,3,3.0
V2WOs,0.0,-0.0445107,,3,3.0
AlCa5,0.0,-0.0093815,,3,3.0
PTeSm,0.0179,-0.031965,,3,3.0
AlGePd5,0.0,-0.0279003,,3,3.0
Cd2InPb,0.0,-0.0424364,,3,3.0
O6CaSr2Sb,0.0,-0.0154325,,3,3.0
Ge2Nb3,0.0,-0.0280603,,3,3.0
TiFeTe2,0.0,-0.0276484,,3,3.0
MgIn2Pm,0.0,-0.0293836,,3,3.0
Cl5In,2.4207,-0.0129763,,3,3.0
LiGeAg2,0.0,-0.0212259,,3,3.0
ZnLaTl,0.0,-0.0435345,,3,3.0
Zn2InPb2,0.0,-0.0422634,,3,3.0
VTc,0.0,-0.0267695,,3,3.0
Ga2PdSn,0.0,-0.0255569,,3,3.0
PrBiTh,0.0,-0.0733391,,3,3.0
O6MgRhBa2,0.0,-0.0177219,,3,3.0
Ag2Te3,0.0,-0.0348951,,3,3.0
Si4ScHf3,0.0,-0.0310995,,3,3.0
S4Zn2Sn,2.038,-0.0151725,,3,3.0
Br2Y2Sb,0.0,-0.028036,,3,3.0
CuTa3,0.0,-0.0536869,,3,3.0
Na2PdSb,0.0,-0.0200426,,3,3.0
AlITm,0.0,-0.0330043999999999,,3,3.0
F6AlKNi,3.3658,-0.0091203,,3,3.0
Be3Co4,0.0,-0.0118858,,3,3.0
S3KZnHo,2.9486,-0.0183422,,3,3.0
TiRhIr2,0.0,-0.0488375,,3,3.0
MgGaPu,0.0,-0.0439600999999999,,3,3.0
AlKHg3,0.0,-0.0443395,,3,3.0
Sr3Rh2Tl3,0.0,-0.0443014,,3,3.0
Li2Mg2Si2Ca,0.0091,-0.0066914999999999,,3,3.0
Na2PdBi2,0.0,-0.040026,,3,3.0
NiPbPu,0.0,-0.0673399,,3,3.0
RhHf,0.0,-0.0492506,,3,3.0
SiSrRu,0.0,-0.0230156,,3,3.0
Rh2La3Pb3,0.0,-0.0538316999999999,,3,3.0
Ga2Zr2La,0.0,-0.0279572,,3,3.0
Be7Cu6,0.0,-0.0095279,,3,3.0
O3CrPr,1.0366,-0.0192181,,3,3.0
Ni2Zn3Y,0.0,-0.0172242999999999,,3,3.0
In3Nd3Au2,0.0,-0.0470003,,3,3.0
S2RhTe,0.0,-0.0229337,,3,3.0
AlGeCe,0.0,-0.0244837,,3,3.0
H2Pd2Pb,0.0,-0.0296899,,3,3.0
Si2GdIr2,0.0,-0.0454069,,3,3.0
CuCd2,0.0,-0.0253125,,3,3.0
CoPt7,0.0,-0.0636556,,3,3.0
B2O6Sr2Ba,3.4636,-0.0154006,,3,3.0
Ge4Dy3Ir4,0.0,-0.0467676,,3,3.0
CrGe3Tb,0.0,-0.0249394,,3,3.0
N3Rb2I,4.6903,-0.0183796,,3,3.0
Cl2AsRh,1.7816,-0.018237,,3,3.0
Sc2PdCd,0.0,-0.0235878,,3,3.0
GePdPu,0.0,-0.0545546,,3,3.0
CoTb2Pt,0.0,-0.0460801,,3,3.0
RhSn2,0.0,-0.0356337,,3,3.0
CuGa5Ho,0.0,-0.0212322,,3,3.0
MnNi4Pr,0.0,-0.0213136,,3,3.0
Ga5AuPa,0.0,-0.0361295,,3,3.0
Li2LaAu2,0.0,-0.0380326999999999,,3,3.0
As2Sr2Cd,0.9498,-0.02417,,3,3.0
AlGa,0.0,-0.0120229999999999,,3,3.0
O6NaNi5,0.0,-0.0115481,,3,3.0
CaPt7,0.0,-0.0629401,,3,3.0
SiCoEr,0.0,-0.026619,,3,3.0
Se2SrIr,0.0,-0.0343022,,3,3.0
Cl6SnCs3,0.2119,-0.0214186,,3,3.0
PCaLa2,0.0,-0.0273921,,3,3.0
O6FeBa2Ir,0.0,-0.0226261,,3,3.0
O6SrTeBa2,4.0641,-0.0201696,,3,3.0
Ti2CoW,0.0,-0.0298892999999999,,3,3.0
H8FeCd2Ba,1.7619,-0.0123528,,3,3.0
Rh2Er3Pt,0.0,-0.0493324,,3,3.0
S3CoRbTa,0.0,-0.0232775,,3,3.0
Be2InAu2,0.0,-0.0363269,,3,3.0
AlTiRhPd,0.0,-0.0235702,,3,3.0
CrRh2Cd,0.0,-0.0291859,,3,3.0
N3CoPr,0.5844,-0.0182781,,3,3.0
F6Na3Pb,0.0922,-0.0135313,,3,3.0
GaPmAu2,0.0,-0.0504388999999999,,3,3.0
Zn2Hg,0.0,-0.0316505,,3,3.0
Ca2TeI2,2.9224,-0.0278115,,3,3.0
O12Al4LaPr3,4.6561,-0.0175839,,3,3.0
IBa2Bi,0.8454,-0.0500717,,3,3.0
F6KIrTl2,1.7609,-0.0265101,,3,3.0
Ca2CuIr2,0.0,-0.0358251,,3,3.0
SiPt2,0.0,-0.0510279,,3,3.0
LiO12NbTe2W,2.3554,-0.0167302,,3,3.0
H7O3Cl,5.7494,-0.0056089,,3,3.0
As2Se6Rb2In,0.0,-0.022062,,3,3.0
Al3NiTm2,0.0,-0.0244302,,3,3.0
Al2Cd2Ba,0.0,-0.023456,,3,3.0
MgCl4Cu,1.1894,-0.009966,,3,3.0
F6CuBa,0.0,-0.0119087999999999,,3,3.0
FeYI,0.0,-0.0282918,,3,3.0
P2Co2Eu,0.0,-0.0226998,,3,3.0
DyTl2Ac,0.0,-0.0712513,,3,3.0
MnIn5Tb,0.0,-0.0334781,,3,3.0
FBrTl2,2.1349,-0.0432055,,3,3.0
O6Na2Mg2Se,2.784,-0.0088484,,3,3.0
TcRuHf2,0.0,-0.0496152,,3,3.0
C3N6Al2,3.3759,-0.0098017,,3,3.0
LuHg3,0.0,-0.0653711,,3,3.0
KPdTe3Hf,0.0,-0.0368241999999999,,3,3.0
CaY2In,0.0,-0.0250031,,3,3.0
CaY7,0.0,-0.0254598,,3,3.0
PScIr,0.0,-0.0332541,,3,3.0
Cl3Au,1.5442,-0.0236228,,3,3.0
LiZnGe,0.0,-0.0119384,,3,3.0
Sr3Ru4Sn4,0.0,-0.0322072999999999,,3,3.0
O2Mg,4.6678,-0.007739,,3,3.0
AgLa2Tl,0.0,-0.0479833,,3,3.0
AlSc2Ge2,0.0,-0.0156269,,3,3.0
Zn3RbAu,0.0,-0.0262324,,3,3.0
CSiHoOs2,0.0,-0.0431704,,3,3.0
Zn2U,0.0,-0.0435013,,3,3.0
Be4MgRe,0.0,-0.0155606,,3,3.0
H6IrPu2,0.0,-0.034936,,3,3.0
TiRh2Au,0.0,-0.0388378999999999,,3,3.0
CuAs2Eu,0.0,-0.0280714,,3,3.0
HMgPd,0.0,-0.0142411,,3,3.0
MgCaSe2,2.8466,-0.0155358,,3,3.0
Al8Au,0.0,-0.0147,,3,3.0
ScSbCe,0.0,-0.0328894,,3,3.0
MgInTl2,0.0,-0.0458175,,3,3.0
B2O6SiNi,3.4666,-0.0102829,,3,3.0
O6AlSr2Nb,3.3191,-0.0155404,,3,3.0
MnTa3,0.0,-0.0546002,,3,3.0
HFe,0.0,-0.0107806999999999,,3,3.0
Ge2Ru3Tb,0.0,-0.0320966,,3,3.0
AsSe3Pr4,0.0,-0.0337316999999999,,3,3.0
Ca2NiSe,0.0477,-0.0147852,,3,3.0
BSiYRh3,0.0,-0.0253896,,3,3.0
BeFe2Co,0.0,-0.0146219,,3,3.0
FCl,2.488,-0.0061004,,3,3.0
Se3Zr,0.3205,-0.0239455999999999,,3,3.0
OY2Hg,0.0616,-0.0343696,,3,3.0
LiTiNi2As2,0.0,-0.0158414,,3,3.0
Ti3Cu4,0.0,-0.0157293,,3,3.0
O4MnPr,1.1821,-0.0170751,,3,3.0
PPd2Ba,0.0,-0.0297374,,3,3.0
FeCo2Tb2,0.0,-0.0293383,,3,3.0
Al4Ni2Zr,0.0,-0.0141176,,3,3.0
CaEuPb2,0.0,-0.0544773,,3,3.0
OTi3Ta,0.0,-0.0253489,,3,3.0
LiCdPt2,0.0,-0.0438003,,3,3.0
Al2MnZr,0.0,-0.0166169,,3,3.0
F6CuAs,0.0,-0.009007,,3,3.0
O6MoLa2,3.9084,-0.0207452,,3,3.0
MgSrTl3,0.0,-0.0491903999999999,,3,3.0
BeRu2Sb,0.0,-0.0280291,,3,3.0
SiClTh,0.0,-0.0392901,,3,3.0
SYI,2.9668,-0.0267972,,3,3.0
Mg4ScBa,0.0,-0.0122376,,3,3.0
C4BrY4I3,0.0,-0.0245280999999999,,3,3.0
S3CrCuBa,0.5525,-0.0183125,,3,3.0
Be4ScMn,0.0,-0.008525,,3,3.0
Si3RuGd,0.0,-0.0254307,,3,3.0
O3GaRh,2.0711,-0.0152315,,3,3.0
AlGePa,0.0,-0.0424247,,3,3.0
ClFeNd,0.0,-0.0243255,,3,3.0
AlPd2Th2,0.0,-0.0538315,,3,3.0
Ni3Rh2Th,0.0,-0.0357125,,3,3.0
S2ScCu,1.053,-0.0136511,,3,3.0
NaAl2Ag2,0.0,-0.0166488,,3,3.0
Ni4TaOs,0.0,-0.0340419,,3,3.0
Li2Ca2Hg,0.0,-0.01869,,3,3.0
Ga5PdSm,0.0,-0.0232935,,3,3.0
LiF6IrTl2,2.464,-0.0259577,,3,3.0
MgZnTm,0.0,-0.0237618,,3,3.0
AgBaAu2,0.0,-0.0529066,,3,3.0
C2Sc2I,0.0,-0.0177840999999999,,3,3.0
Al3Si2Dy3Os,0.0,-0.0295354,,3,3.0
MgGaCe,0.0,-0.0224005,,3,3.0
S2K3Cu,2.5985,-0.0109898,,3,3.0
MgGe2Tc2,0.0,-0.0227734,,3,3.0
KTl7,0.0,-0.0643862,,3,3.0
Al2Np,0.0,-0.0409517,,3,3.0
LiCl6K2Dy,5.5903,-0.013777,,3,3.0
GaIn3,0.0,-0.0290174,,3,3.0
CaRh3Pb2,0.0,-0.0439887,,3,3.0
Li2Ca2Ag,0.0,-0.0111638,,3,3.0
Zr2TcPd,0.0,-0.0329365,,3,3.0
K2As2Se6Sn,1.1085,-0.020036,,3,3.0
LiGa2Ir,0.0,-0.0271553,,3,3.0
Te4Cs2HgPb,0.0786,-0.0466687999999999,,3,3.0
O6Sr2PdNp,1.1361,-0.0247746,,3,3.0
ScMnZn4,0.0,-0.0147257,,3,3.0
BrIn2I,0.872,-0.0312428999999999,,3,3.0
CuZnAs2Sm,0.0,-0.0234743,,3,3.0
O6LuTaPb2,2.8862,-0.0336399,,3,3.0
NiTe2Dy6,0.0,-0.0427062,,3,3.0
B3O5Rb,5.929,-0.0108574999999999,,3,3.0
NiSbPt5,0.0,-0.0579853,,3,3.0
AgEuTl2,0.0,-0.0577255,,3,3.0
O6Ba2TaW,0.0,-0.0280669,,3,3.0
STi3Br7,0.8978,-0.0190489,,3,3.0
Cu2As2CsTb,0.0,-0.0266528,,3,3.0
BO3NaBa,4.3385,-0.0143969,,3,3.0
NNi3Ag,0.0,-0.0178236,,3,3.0
O6Cu2Sr2LaHg,0.0,-0.0206703,,3,3.0
Co2InEr2,0.0,-0.0341087,,3,3.0
F6SmGd,6.4351,-0.0197734,,3,3.0
Ga2HoAu2,0.0,-0.0447633,,3,3.0
AuHgTl,0.0,-0.0699256,,3,3.0
SiEuAu,0.0,-0.0451228,,3,3.0
CaPdPb3,0.0,-0.0543544,,3,3.0
GaPd2Hf2,0.0,-0.0421817,,3,3.0
O4FeBi,0.0,-0.0213828,,3,3.0
O3Na2V,0.7892,-0.0097608,,3,3.0
GaSr2Au,0.0,-0.0331216,,3,3.0
O4Ti3,0.0,-0.0134596,,3,3.0
TiTe2Bi,0.0,-0.0427035,,3,3.0
CuGa2AgTe4,0.4656,-0.0288085999999999,,3,3.0
Li6O4Cr,1.3294,-0.0071874,,3,3.0
Si2AgTm,0.0,-0.0262259,,3,3.0
NaCl6K2Mo,2.2216,-0.0120968,,3,3.0
NiSb2Ba,0.0,-0.0332523,,3,3.0
O6Ba2NdOs,0.5802,-0.0258378,,3,3.0
S2RbNd,2.5645,-0.023003,,3,3.0
Al3Si2MnHf3,0.0,-0.0282804,,3,3.0
ZnRhHo2,0.0,-0.0370442,,3,3.0
F6FeIr,0.6443,-0.0158025,,3,3.0
PRuHo,0.0,-0.0326222,,3,3.0
Co2RuTa2,0.0,-0.0406593,,3,3.0
ZnGa5Tb,0.0,-0.0205958,,3,3.0
AlCuGa2,0.0,-0.0139708,,3,3.0
O6MnZnNd2,2.5766,-0.018542,,3,3.0
AlCeIr,0.0,-0.0421787,,3,3.0
Al3Si2FeSm3,0.0,-0.0222422,,3,3.0
PSe3Er4,0.0,-0.0359231,,3,3.0
LiN2Nb,1.2671,-0.0146001999999999,,3,3.0
AlFe2Zr,0.0,-0.018983,,3,3.0
Al4FeY,0.0,-0.0132739,,3,3.0
SiBa2Au,0.0,-0.0401948,,3,3.0
FeHo6Pb2,0.0,-0.0519305,,3,3.0
Mg2InIr,0.0,-0.0290568,,3,3.0
SCl2Ba2,3.7904,-0.0234862,,3,3.0
NOIn2Pr6,0.0,-0.0355555,,3,3.0
F8Na2SrLa,0.0,-0.0119458,,3,3.0
Na2P2Ru,0.0,-0.0133194,,3,3.0
Se2InPu,0.0,-0.046889,,3,3.0
Cu4TmTl,0.0,-0.0310651,,3,3.0
TiW,0.0,-0.0428732,,3,3.0
CoRhPt,0.0,-0.0404978,,3,3.0
LiAg3,0.0,-0.0242525,,3,3.0
Na3Si4Ni4,0.0,-0.01095,,3,3.0
OGaPr3,0.0,-0.0320101,,3,3.0
Ga2LaIr3,0.0,-0.0489742,,3,3.0
HoAuBi2,0.0,-0.0693876,,3,3.0
KBa2Ir,0.0,-0.0396962,,3,3.0
NTi3Fe,0.0,-0.0160543,,3,3.0
H8Mg2MnLu,1.5045,-0.0096806,,3,3.0
SiSm2Ir2,0.0,-0.049271,,3,3.0
CuZnBa,0.0,-0.022843,,3,3.0
Cu2As2Sr,0.0,-0.0192183,,3,3.0
NTi2Ga,0.0,-0.0157761,,3,3.0
BNFeSm,0.0,-0.020882,,3,3.0
MnGa5Tm,0.0,-0.0221324,,3,3.0
Al6PdTb,0.0,-0.016263,,3,3.0
P2Rh2Cs,0.0,-0.0261083,,3,3.0
Cl6Te4Ba,1.715,-0.0224808999999999,,3,3.0
PCo2Ac,0.0,-0.0343248,,3,3.0
MnINd,0.0,-0.0334533,,3,3.0
MnCu3Te4,0.0,-0.026803,,3,3.0
Be2CuPt,0.0,-0.0241710999999999,,3,3.0
P2CoZr6,0.0,-0.0255565,,3,3.0
Sc2CdPt2,0.0,-0.0410266,,3,3.0
CaCd2Au4,0.0,-0.0501335,,3,3.0
Rh2ILa2,0.0,-0.0391697,,3,3.0
AlILu,0.0,-0.0341266,,3,3.0
PTl,0.0,-0.0413088,,3,3.0
N3ZnNd,0.0,-0.0175126,,3,3.0
Zr3Os2,0.0,-0.0477214,,3,3.0
Si2ZnNd2,0.0,-0.0247762999999999,,3,3.0
Ga3GdPt2,0.0,-0.0422755999999999,,3,3.0
Ga6EuPt,0.0,-0.0283794,,3,3.0
Ca2CuGa,0.0,-0.0129512,,3,3.0
O12Si4CaCo3,0.0,-0.0107924,,3,3.0
Mg4Hg,0.0,-0.01778,,3,3.0
Pd2SnDy,0.0,-0.038269,,3,3.0
C2YMo,0.0,-0.0210676,,3,3.0
MgRu,0.0,-0.0199488,,3,3.0
HC2La2,0.0,-0.022345,,3,3.0
NaK2Br6Tm,4.6561,-0.0208854,,3,3.0
CuInNd2,0.0,-0.0342892999999999,,3,3.0
NaBr6Cs2Ce,0.0,-0.0261282,,3,3.0
Br3Te,2.2488,-0.0242411999999999,,3,3.0
N3PdPr,0.0,-0.0212987,,3,3.0
Sn4Pt,0.0,-0.0430286,,3,3.0
O6KAs4I,3.008,-0.0149876,,3,3.0
Li2AgLa,0.0,-0.0199186,,3,3.0
Zn2Er2Hg,0.0,-0.0396636999999999,,3,3.0
ScTl2,0.0,-0.0532742,,3,3.0
KCd2,0.0,-0.0231708,,3,3.0
LiAs2Rh2Tm,0.0,-0.0280252,,3,3.0
NiPd2Dy3,0.0,-0.0383373,,3,3.0
LiO4SiFe,2.1997,-0.0103156,,3,3.0
F6RbIrTl2,1.4929,-0.0277067,,3,3.0
O4RbIr,0.7982,-0.0203877999999999,,3,3.0
F6GaSr,0.0,-0.0103003,,3,3.0
BOs6U2,0.0,-0.0720483,,3,3.0
F8InSm2,0.0,-0.0174636,,3,3.0
Pd2PtTl,0.0,-0.0521108,,3,3.0
BCaRu2Sn2,0.0,-0.0268292,,3,3.0
H8Mg2SrRu,3.1263,-0.0084086,,3,3.0
BN2Na2K,2.421,-0.0078196,,3,3.0
Co2HfPt,0.0,-0.0424793,,3,3.0
Rb2HgPb,0.2362,-0.0467012,,3,3.0
Be2CaRh2,0.0,-0.0177715,,3,3.0
Zr3Pd2Tl3,0.0,-0.0472886999999999,,3,3.0
Al9Sc2Co3,0.0,-0.0112984,,3,3.0
Mg2CaSr2,0.0,-0.0128506,,3,3.0
ScYLa2,0.0,-0.0320247,,3,3.0
GeRu2Ta,0.0,-0.0392932,,3,3.0
Ag2InAu2,0.0,-0.046962,,3,3.0
F6ScLu,7.6162,-0.0156574,,3,3.0
Li2MgTl,0.0,-0.0208755999999999,,3,3.0
O2Nb,0.0,-0.0178053,,3,3.0
Se2TbAu,0.4717,-0.040301,,3,3.0
LiF4Sb,5.7259,-0.0116382,,3,3.0
Te2Tm6Pt,0.0,-0.0516433,,3,3.0
Mg3Al3Si2Ni,0.0,-0.0085175,,3,3.0
MgPTc,0.0,-0.0173359999999999,,3,3.0
KGe2Pd,0.0,-0.0201878,,3,3.0
O6Ba2TmHf,0.0,-0.0264893,,3,3.0
Fe3Mo,0.0,-0.0222695,,3,3.0
PrPt3Au2,0.0,-0.0660511,,3,3.0
Li4O8V3,0.0528,-0.0099528,,3,3.0
C2Cl5Nd4,0.0,-0.0231414,,3,3.0
Fe3Ni2Nd,0.0,-0.0218145,,3,3.0
Al2Zr,0.0,-0.0159848,,3,3.0
Al2YAg,0.0,-0.0191856,,3,3.0
Sb2CsPt2,0.0,-0.0511618,,3,3.0
NaPmAu2,0.0,-0.0473945,,3,3.0
Li2Ge2Cd,0.0,-0.0148419,,3,3.0
Sb2Au2Tl,0.0,-0.0570621,,3,3.0
Li3Sn,0.0,-0.0111868,,3,3.0
Sc2FePt,0.0,-0.0299854,,3,3.0
H3GdAu,0.0,-0.0281666,,3,3.0
F6TiPd,1.7436,-0.0115182,,3,3.0
Li2NaGa2,0.0,-0.0085601,,3,3.0
NiSe6Br2,0.8414,-0.0196549,,3,3.0
Co2Cu,0.0,-0.0165074,,3,3.0
LiP2Co2Er,0.0,-0.0189144,,3,3.0
ZnTb2Ir,0.0,-0.0452896,,3,3.0
AlBi,0.0001,-0.0431055,,3,3.0
Ge2Au2Pb,0.0,-0.0504593,,3,3.0
TiNi2Te3,0.0,-0.0271942999999999,,3,3.0
P3Zn3Pr,0.0776,-0.0171176,,3,3.0
PAgBa,0.1653,-0.0279486,,3,3.0
BeOs2,0.0,-0.0495788,,3,3.0
S4VCrCu,0.0,-0.0137492999999999,,3,3.0
In2PrDy,0.0,-0.0401004,,3,3.0
NaCl6Sb,2.485,-0.0122478999999999,,3,3.0
Li2O7P2Sn,2.1963,-0.0110140999999999,,3,3.0
Ga2Sr6Rh,0.0,-0.0224994,,3,3.0
O6Sr2HoTa,4.3345,-0.0232302,,3,3.0
Zn5Ir,0.0,-0.0232677,,3,3.0
ClNiBr,1.8914,-0.0154144,,3,3.0
H2O5SZn,5.2001,-0.0082783,,3,3.0
Mg2CdBi,0.0,-0.0298327,,3,3.0
Mg2Sb2Tl,0.0,-0.0315736,,3,3.0
CuInI4,1.5283,-0.033,,3,3.0
N2,7.8794,-0.0092858,,3,3.0
GeAgEr,0.0,-0.0343269,,3,3.0
Tc2Er,0.0,-0.0404577,,3,3.0
Zn5Gd,0.0,-0.0214155,,3,3.0
InCeHg2,0.0,-0.0540283,,3,3.0
O8AgPrW2,2.2553,-0.0243559,,3,3.0
Se3Sn4Sb,0.0,-0.0303768,,3,3.0
O4NiRh2,0.0,-0.0164792,,3,3.0
Ga2Cd2Ce,0.0,-0.0281018,,3,3.0
CoZn2Er3,0.0,-0.0329632999999999,,3,3.0
H2O3Se,4.7597,-0.0085296,,3,3.0
ZrNbRu2,0.0,-0.0338695,,3,3.0
CdAu4Tl,0.0,-0.0632688,,3,3.0
SbAuTl2,0.0,-0.0629089999999999,,3,3.0
KGe2Pt3,0.0,-0.043405,,3,3.0
Mg2CuAu,0.0,-0.0240553999999999,,3,3.0
SiCo2Lu,0.0,-0.025434,,3,3.0
ScCrRh2,0.0,-0.0257028,,3,3.0
BaTlPb4,0.0,-0.0695011,,3,3.0
AlHo2Tl,0.0,-0.0449504,,3,3.0
NaBr6Cs2Dy,4.8144,-0.026492,,3,3.0
RuIn2Dy,0.0,-0.0377864,,3,3.0
Se2TeHg,0.4022,-0.0364951,,3,3.0
O6RbTe2,0.0,-0.0160246,,3,3.0
Al2Ag2Ba,0.0,-0.0238315,,3,3.0
NbPt8,0.0,-0.0664732,,3,3.0
RuPt7,0.0,-0.0657095,,3,3.0
O6P2Cu,0.5669,-0.0101873,,3,3.0
Ag2InSm,0.0,-0.0355706,,3,3.0
C4Sc3Mn,0.0,-0.0132249,,3,3.0
Ni2In5Nd,0.0,-0.0306779,,3,3.0
O6MgSnPr2,4.9729,-0.0195071,,3,3.0
Ni4EuHg,0.0,-0.0311912,,3,3.0
O4CoSe,1.0567,-0.0112955,,3,3.0
BNCoDy,0.0,-0.021658,,3,3.0
O6NiRbI,1.9128,-0.0132527,,3,3.0
SiBa2Ir,0.0,-0.0405882,,3,3.0
Si2ZnTb2,0.0,-0.0261137,,3,3.0
RhPdPb4,0.0,-0.0617274,,3,3.0
SiNd2Ir2,0.0,-0.0488669,,3,3.0
HLi3Pd,0.0,-0.0090122999999999,,3,3.0
S3CuBaSm,1.3042,-0.0232777,,3,3.0
Se2RbNd,2.1961,-0.0281063,,3,3.0
PSCe,0.0,-0.0232181,,3,3.0
Br2Tm,0.0536,-0.0320378,,3,3.0
Zn2Hf3Hg,0.0,-0.0474259,,3,3.0
LiFePt2,0.0,-0.0408075,,3,3.0
HCa3Cd,0.0,-0.0128827,,3,3.0
Na3Sb2Tb,0.5319,-0.0229786,,3,3.0
Sr2I6Eu,1.5599,-0.0372185,,3,3.0
B3O9Na3La2,4.3781,-0.0133304,,3,3.0
CCr2Ge2Zr2,0.0,-0.0214711,,3,3.0
Ga2GePb2,0.0,-0.040507,,3,3.0
Cu3Rh2Sm,0.0,-0.0265514,,3,3.0
SrNdHg2,0.0,-0.0512368,,3,3.0
PdTm,0.0,-0.0433678,,3,3.0
B2RuW2,0.0,-0.0380695,,3,3.0
TeDy,0.0,-0.0439266,,3,3.0
Ni2SnGd,0.0,-0.0321608,,3,3.0
In2BaHg,0.0,-0.044114,,3,3.0
H4ErPt,0.0,-0.0229152,,3,3.0
Cl4ScCs2,0.0,-0.0195808,,3,3.0
MgCoEr,0.0,-0.0242285,,3,3.0
Ti2Ge2Nb,0.0,-0.0213972,,3,3.0
ZnTb2Au,0.0,-0.0448083,,3,3.0
Pd2Dy2Hg,0.0,-0.0467908,,3,3.0
Ti2CrFe,0.0,-0.0172990999999999,,3,3.0
MgSn2Er2,0.0,-0.0361854999999999,,3,3.0
ZnHfPt2,0.0,-0.0552179,,3,3.0
Zn2PdHo,0.0,-0.0278598,,3,3.0
TiCu2,0.0,-0.0156449,,3,3.0
Ag2EuEr,0.0,-0.0419829,,3,3.0
LiF6CrCd,3.5724,-0.0109646,,3,3.0
Cl6ScRbCs2,4.6626,-0.0181761,,3,3.0
NiLu2Ir,0.0,-0.0504033,,3,3.0
As2Rb,0.8919,-0.0208335,,3,3.0
Al3SiCe2,0.0,-0.0208996,,3,3.0
AsSrSb,0.0,-0.0274143,,3,3.0
YIr,0.0,-0.0504436,,3,3.0
Li2RbTe2,0.0,-0.0210107,,3,3.0
Mg2CaRh,0.0,-0.013792,,3,3.0
Al2ScPt2,0.0,-0.0352882,,3,3.0
Si4Co4Sm3,0.0,-0.0226879,,3,3.0
Fe4ZnHf,0.0,-0.0249115,,3,3.0
Si2Sr2Tl,0.0,-0.0277546,,3,3.0
BeBTa,0.0,-0.0267968,,3,3.0
Pt5Hg,0.0,-0.0697672,,3,3.0
Cd2TlPb,0.0,-0.0521994,,3,3.0
Co4Sn6Tm,0.0,-0.0307404,,3,3.0
F3NiCs,3.0034,-0.0155313,,3,3.0
YCd4La,0.0,-0.0325125,,3,3.0
Mn5Co7Sm,0.0,-0.0196933,,3,3.0
SiMnPu,0.0,-0.046449,,3,3.0
Cl6Cs2Pt,2.4082,-0.022982,,3,3.0
RuRhRe2,0.0,-0.0528687,,3,3.0
F6NaRb2Tb,7.4188,-0.0149045,,3,3.0
Ni2Ho3Au,0.0,-0.0420549,,3,3.0
B2N3La3Os2,0.0,-0.0327292,,3,3.0
O3NiDy,0.0,-0.0191081,,3,3.0
O2RhTl,0.0,-0.0304655,,3,3.0
Br4Cs2Ce,0.0,-0.0301688,,3,3.0
LiNi2Se2,0.0,-0.0154793,,3,3.0
SiTc5,0.0,-0.0310831,,3,3.0
Cl2GeNd2,0.1039,-0.0262831,,3,3.0
Ga6YIr,0.0,-0.0251696,,3,3.0
Li4Sb2Nd,0.0,-0.019038,,3,3.0
ScCu2Zr2,0.0,-0.0213713,,3,3.0
Si3NiDy,0.0,-0.0195123,,3,3.0
MgSnIr,0.0,-0.0378078,,3,3.0
Al6Ge2Ru,0.0,-0.0135249,,3,3.0
C2O6Na3,0.0,-0.0080759,,3,3.0
S2TlPu,0.0,-0.0516595,,3,3.0
Mg4Zr5,0.0,-0.0192205,,3,3.0
MgDyIr,0.0,-0.0421232,,3,3.0
AlCo2Y2,0.0,-0.0199149,,3,3.0
F6SrMo,0.0,-0.0129774,,3,3.0
Al4Cu2Zr,0.0,-0.0136008,,3,3.0
CrCoZr,0.0,-0.0222256,,3,3.0
C4MgY3,0.0,-0.0164552,,3,3.0
CuPtPu2,0.0,-0.0766011,,3,3.0
H4MnY,1.1522,-0.0105077,,3,3.0
CoCuSe3Tl,0.0,-0.027788,,3,3.0
O4CoTa,1.5202,-0.0204822,,3,3.0
AlAg2La2,0.0,-0.0316718,,3,3.0
H16C4N8S4Cl2Ni,1.9878,-0.0072216,,3,3.0
FeGe3Pr,0.0,-0.0242519,,3,3.0
MgRh7,0.0,-0.0303415,,3,3.0
Ga4SmIr,0.0,-0.0308458,,3,3.0
BScGa2Ru2,0.0,-0.0212404,,3,3.0
Cl4K2Pd,1.8376,-0.0131808999999999,,3,3.0
O4Sb2ITb,1.0798,-0.0249172,,3,3.0
MnAsNp,0.0,-0.0488858999999999,,3,3.0
Al2CuRu,0.0,-0.0170586,,3,3.0
F8InDy2,0.0,-0.0180871999999999,,3,3.0
SiS4KBi,2.1506,-0.0202182999999999,,3,3.0
LiSc2Cu,0.0,-0.0115975,,3,3.0
Li4O3Fe,1.5745,-0.0076688,,3,3.0
CZrRu3,0.0,-0.0294487999999999,,3,3.0
RbPd2,0.0,-0.0287051,,3,3.0
As2Ag,0.5595,-0.023882,,3,3.0
Rh2Tm3Hg,0.0,-0.0495043,,3,3.0
Rh2PtU,0.0,-0.0610488,,3,3.0
Mg3CaZn2,0.0,-0.0087666,,3,3.0
O8KMo2Pr,4.4943,-0.0168371,,3,3.0
MgZnIn,0.0,-0.0174493,,3,3.0
SnBa2Ir2,0.0,-0.0518862,,3,3.0
AsPdSm,0.0,-0.0338047,,3,3.0
CInCe3,0.0,-0.0358861,,3,3.0
O4Na2Fe,1.1319,-0.0088599,,3,3.0
Ga5Pr2Au3,0.0,-0.0384268,,3,3.0
LiSr2,0.0,-0.015641,,3,3.0
Mn2CoGe,0.0,-0.0185332,,3,3.0
S8FeAg2Sn3,1.0821,-0.0193844,,3,3.0
B6O,2.1601,-0.0080465,,3,3.0
CNTh2,0.0,-0.0538424,,3,3.0
SBa,2.4275,-0.0269587,,3,3.0
CaSbBa2,0.0,-0.032164,,3,3.0
SeY2Cd,0.0,-0.0277232,,3,3.0
Ge2AgPr,0.0,-0.0287982,,3,3.0
GaTm2Pt,0.0,-0.0486436,,3,3.0
LiEu2Ir,0.0,-0.0455422,,3,3.0
CoSb2Ho,0.0,-0.0358285,,3,3.0
N2Ca2Zn,0.9679,-0.011172,,3,3.0
GeNbPr,0.0,-0.0325205,,3,3.0
Ga2LaIr2,0.0,-0.0444909,,3,3.0
O6Ba2ErIr,0.0,-0.0264451,,3,3.0
LiO4FPCu,0.7735,-0.0090669,,3,3.0
Li6O4Zn,4.2624,-0.0067674,,3,3.0
Na2Ge2Rb,0.0,-0.0135620999999999,,3,3.0
B4ScIr3,0.0,-0.0328392,,3,3.0
BrRuEr,0.0,-0.0359858,,3,3.0
S3NiNbTl,0.0,-0.0258861999999999,,3,3.0
LiP2Pd2Dy,0.0,-0.0237976,,3,3.0
O12Sr5Bi3,0.0,-0.0231795,,3,3.0
H6ZnSr2,1.4855,-0.009189,,3,3.0
O6FeSbEu2,0.0,-0.0223705,,3,3.0
AgCd2Lu,0.0,-0.0371545,,3,3.0
Cu2ZrSn,0.0,-0.0246225999999999,,3,3.0
H3RhSm,0.0,-0.0184095,,3,3.0
SRbAu,2.2547,-0.0340845,,3,3.0
BaPt4Pb,0.0,-0.0664887,,3,3.0
Si4Ni2Rh,0.0,-0.0156549,,3,3.0
SiSc2Ir,0.0,-0.0283677,,3,3.0
Li3As2Th,0.0,-0.0248892,,3,3.0
POsPa,0.0,-0.0615453,,3,3.0
S2FeAgCs,0.6293,-0.0220968,,3,3.0
Fe2ISm2,0.0,-0.0328442,,3,3.0
CoSb2Hf6,0.0,-0.0525064,,3,3.0
CaCuIn5,0.0,-0.0276467,,3,3.0
Zn2Y2Pb,0.0,-0.032299,,3,3.0
S2CoAu,0.7089,-0.0269029,,3,3.0
B6Mn2Nd,0.0,-0.0144133,,3,3.0
Li3S2Ag,2.5611,-0.0107922,,3,3.0
F8Cu2Tm,0.0,-0.0126754,,3,3.0
I8Cs2Hg3,1.8747,-0.0449024,,3,3.0
Ge2Pd2Cd,0.0,-0.0271954999999999,,3,3.0
S6V3Ni,0.0,-0.0135803,,3,3.0
O8AlW2Tl,5.0327,-0.0247674,,3,3.0
LiNiGeIr,0.0,-0.027568,,3,3.0
Hg2Tl3,0.0,-0.0706722,,3,3.0
AsI2Sm2,0.0,-0.0381683,,3,3.0
S2SePa,0.0,-0.0359166,,3,3.0
LiCa2Ag,0.0,-0.0134555,,3,3.0
B2Co3Dy,0.0,-0.0195397,,3,3.0
FeSb2Tb6,0.0,-0.0420576,,3,3.0
SSbPu,0.0,-0.0534355,,3,3.0
CrNiPt2,0.0,-0.0441408,,3,3.0
SeTeLa2,0.0,-0.0378689,,3,3.0
Ni2Ga5U,0.0,-0.0274955,,3,3.0
AlCaGe,0.0,-0.0126803,,3,3.0
Cu2Ge2Nd,0.0,-0.0230683,,3,3.0
N2In3Dy7,0.0,-0.0388461,,3,3.0
Ru2Ce3Pt,0.0,-0.0461438,,3,3.0