formula,bg,formation_energy,mp-id,fidelity,bg_category
Ca6CoTe2,0.0,-0.0172574,,3,3.0
Se2TaTl,0.0,-0.0454726,,3,3.0
WIr7,0.0,-0.0710903,,3,3.0
S2K2Zn,3.3395,-0.0111347,,3,3.0
H2CSm2,0.0,-0.0217379,,3,3.0
Y4Ag,0.0,-0.0286801,,3,3.0
AlCo2Ac,0.0,-0.0333648999999999,,3,3.0
Ga2YPr,0.0,-0.0266287999999999,,3,3.0
NiTcHf2,0.0,-0.0447109,,3,3.0
Ti2CuZn,0.0,-0.0153934,,3,3.0
In4TlPb,0.0,-0.0468544,,3,3.0
Cu2Hf3,0.0,-0.0438005,,3,3.0
F6Na2Co,0.9189,-0.0076304,,3,3.0
F12AgTa2,1.5485,-0.0167347,,3,3.0
AlZnAu,0.0,-0.0306129999999999,,3,3.0
CuGaZr2,0.0,-0.0236662,,3,3.0
YRh4Au,0.0,-0.0390374,,3,3.0
H8FeZn2Pu,0.0,-0.0152982999999999,,3,3.0
Ga3Pd2Lu,0.0,-0.0291132,,3,3.0
GaIn2Pb,0.0,-0.0395906,,3,3.0
Se3SnAu2,1.2665,-0.039237,,3,3.0
SiCrRe2,0.0,-0.0428442999999999,,3,3.0
Co3Y,0.0,-0.0200246,,3,3.0
Ni2CuAu,0.0,-0.0291305,,3,3.0
Al3Co14Pr2,0.0,-0.0185985,,3,3.0
CuSe3SmTl,0.0,-0.0330574,,3,3.0
Zr6ReBi2,0.0,-0.0462385,,3,3.0
CaCuY2,0.0,-0.0202199,,3,3.0
O4MgPa,0.0,-0.0246029,,3,3.0
Na2Zn2Hg,0.0,-0.0207974,,3,3.0
Mn2Zr4In5,0.0,-0.0299650999999999,,3,3.0
O8Ti3FeRb,0.9523,-0.0133741,,3,3.0
MgTePt5,0.0,-0.0566757,,3,3.0
BLuPt4,0.0,-0.0581188999999999,,3,3.0
KSeI3,0.0,-0.0283149,,3,3.0
BNiIr,0.0,-0.0318067999999999,,3,3.0
LiPmHg2,0.0,-0.0463029,,3,3.0
MnAu8,0.0,-0.0636429,,3,3.0
LiIn2Tl,0.0,-0.035526,,3,3.0
Rh2In5Th,0.0,-0.0417684,,3,3.0
BCoNi,0.0,-0.0137646,,3,3.0
MnCoGaRh,0.0,-0.0219318999999999,,3,3.0
As4Mo5,0.0,-0.028678,,3,3.0
NS,0.0,-0.0093039,,3,3.0
Cr2Hf,0.0,-0.0332224999999999,,3,3.0
SrPtHg2,0.0,-0.0578204,,3,3.0
Co4HgPu,0.0,-0.0411532,,3,3.0
HOBrSr,5.1209,-0.0150435,,3,3.0
Ag2Er,0.0,-0.0380722,,3,3.0
B6CaMn2,0.0,-0.0105598,,3,3.0
Si2Co3Eu,0.0,-0.0213479,,3,3.0
As2Rh2Tl,0.0,-0.0365231,,3,3.0
SiBrDy,0.0,-0.0270574,,3,3.0
O7P2KGd,4.8762,-0.0148483,,3,3.0
NCoTm3,0.0,-0.0372589,,3,3.0
AlCeOs,0.0,-0.0419607,,3,3.0
SiTc2La,0.0,-0.0312433,,3,3.0
O3TcTl,0.0,-0.0264833,,3,3.0
Zn2InNd,0.0,-0.0264651,,3,3.0
ZnZr2Cd,0.0,-0.0265777,,3,3.0
PY2In,0.0,-0.0260553,,3,3.0
Y5Ru,0.0,-0.0291616,,3,3.0
SbBaAu,0.0,-0.0497699,,3,3.0
Li3O8P2V,0.8013,-0.0094188,,3,3.0
Li3ZnSr,0.0,-0.0085952,,3,3.0
Al3Ge2Dy3Os,0.0,-0.0316125,,3,3.0
ZrTe4,0.0,-0.0365636,,3,3.0
AlPPd5,0.0,-0.0267272,,3,3.0
O6Ca2PrBi,2.5077,-0.0203774,,3,3.0
NGaTb3,0.0,-0.0343019,,3,3.0
KAu2Ac,0.0,-0.0599249,,3,3.0
O4Sb2ISm,0.9905,-0.024594,,3,3.0
FeTe2Er6,0.0,-0.0445065,,3,3.0
LiCl6Cs2Pu,0.0,-0.0257442,,3,3.0
SeIn,0.8113,-0.0273409,,3,3.0
O6MgTiEu2,0.0,-0.0197085,,3,3.0
Ge2Sr,0.0,-0.0207035,,3,3.0
S2RbPr,2.5703,-0.0229305,,3,3.0
K2Br6Bi,0.0,-0.0246793,,3,3.0
LiO2Pd,0.2979,-0.0131097,,3,3.0
S2BrIr,1.0261,-0.027789,,3,3.0
TiGeSe3,0.0,-0.0198192,,3,3.0
EuAu5,0.0,-0.0671012999999999,,3,3.0
SrPt3Au2,0.0,-0.0624407,,3,3.0
SiTiHf,0.0,-0.0303332,,3,3.0
Ru4Rh5,0.0,-0.0342217,,3,3.0
CaLaPt2,0.0,-0.0495197,,3,3.0
B2Fe2Hf,0.0,-0.0233649999999999,,3,3.0
ScIn2Ho,0.0,-0.0330805,,3,3.0
GaBrLu,0.0,-0.0316676,,3,3.0
O4CrAg2,1.193,-0.0163374999999999,,3,3.0
Cl2GePr2,0.1321,-0.0261769,,3,3.0
Si2Ga3PdSm3,0.0,-0.0269241,,3,3.0
CClEr2,0.0,-0.0310156,,3,3.0
Y2LaAu2,0.0,-0.0483124,,3,3.0
Si2AgEu,0.0,-0.0266918,,3,3.0
CoIr8,0.0,-0.0650815,,3,3.0
Cl4K2Pu,0.0,-0.0245662,,3,3.0
Mg2CaHg2,0.0,-0.0316945,,3,3.0
Sn6TbAu4,0.0,-0.0493109,,3,3.0
FeZnPt2,0.0,-0.0435484,,3,3.0
Li5Se4Sb,1.1331,-0.0140246,,3,3.0
MgCaLa,0.0,-0.0192741,,3,3.0
Zr6Te2Au,0.0,-0.0371593,,3,3.0
ErAu4,0.0,-0.0661207,,3,3.0
CrCoZn2,0.0,-0.0155797,,3,3.0
Co4CdDy,0.0,-0.0246179999999999,,3,3.0
HO2Nd,4.3322,-0.0176604,,3,3.0
Ti5Tm,0.0,-0.0219017,,3,3.0
GeSeSm,0.0,-0.0292159,,3,3.0
Fe4Ga4Pr3,0.0,-0.024697,,3,3.0
InTePt,0.0,-0.0474312,,3,3.0
H5Rb3Pd,2.9753,-0.0128146,,3,3.0
GaSmAu2,0.0,-0.0506223,,3,3.0
LiGaPr2,0.0,-0.0266873,,3,3.0
Ga2Cd2Ho,0.0,-0.0289121,,3,3.0
CuBrTe,0.5758,-0.0242306999999999,,3,3.0
O6CaSr2Ir,0.1969,-0.0185837,,3,3.0
O4CdU,2.2644,-0.0291182,,3,3.0
C5Ni3Dy4,0.0,-0.0245926,,3,3.0
Zn2Er2Tl,0.0,-0.0404912,,3,3.0
CoTm2Ir,0.0,-0.0487981,,3,3.0
SiCu4,0.0,-0.0142332,,3,3.0
BNPdPr,0.0,-0.0243638,,3,3.0
Sr3Cd2,0.0,-0.025858,,3,3.0
CCo2Ge2La2,0.0,-0.0247419,,3,3.0
CuSrAu2,0.0,-0.0445285,,3,3.0
TbHg2,0.0,-0.0616374,,3,3.0
CuAgPr2,0.0,-0.0335248,,3,3.0
O3SmAu,1.469,-0.0285571,,3,3.0
C2RuCe,0.0044,-0.0251505,,3,3.0
Ge2PmTm,0.0,-0.0341883,,3,3.0
F6ZrPd,2.1122,-0.0135667,,3,3.0
Si2ZnNp,0.0,-0.0351597,,3,3.0
BCCoSm,0.0,-0.0201591,,3,3.0
Al3FeZr2,0.0,-0.0176401,,3,3.0
Li4ScIn,0.0,-0.0096665,,3,3.0
RhLuBi,0.0,-0.0568121,,3,3.0
Al3Sn2Ce3Au,0.0,-0.0337586,,3,3.0
InDy2Pb,0.0,-0.0517775,,3,3.0
O8P2CaSm,0.0,-0.0133348999999999,,3,3.0
SmPt2Pb,0.0,-0.066015,,3,3.0
CeAu4,0.0,-0.0648407,,3,3.0
NiSn2Tm6,0.0,-0.0448746,,3,3.0
Al4PdEu,0.0,-0.0201926999999999,,3,3.0
BCo4,0.0,-0.0153716,,3,3.0
AsRhBa,0.0,-0.032183,,3,3.0
F6NaAlIn2,3.713,-0.0128267,,3,3.0
CITm,0.0,-0.0338505,,3,3.0
LiO12NaSi4Ga2,5.1726,-0.0104187999999999,,3,3.0
SnI4Ba,2.3906,-0.0382377,,3,3.0
MgZn2Pd,0.0,-0.0166052,,3,3.0
Be3Fe5,0.0,-0.0131122,,3,3.0
Ge2Ho2Pb,0.0,-0.0431231,,3,3.0
Sn2Hf,0.0,-0.0451337,,3,3.0
B2Ru3U,0.0,-0.0376165,,3,3.0
MgGeIn,0.0,-0.0192132,,3,3.0
CoBrLa2,0.0,-0.0316039,,3,3.0
CuCd2Au,0.0,-0.036392,,3,3.0
AlZr2Re,0.0,-0.0355198,,3,3.0
PScGd,0.0,-0.0290041,,3,3.0
LiP2YRh2,0.0,-0.0209239,,3,3.0
AlY6Pb2,0.0,-0.0368762,,3,3.0
AgSbTl2,0.0,-0.0532631,,3,3.0
Ca2Se2Ag,0.0,-0.0195345,,3,3.0
O8As2BaHf,4.501,-0.0184571,,3,3.0
NiCuRbTe3,0.0,-0.0277093,,3,3.0
Al3Si2FeCe3,0.0,-0.0222136,,3,3.0
NCo4,0.0,-0.0156226,,3,3.0
F6AgCs2Pr,3.4133,-0.0202397,,3,3.0
Ga2RuPa6,0.0,-0.074233,,3,3.0
O2Na2Fe,1.0076,-0.0092911,,3,3.0
Li2Si2Pd,0.0,-0.0119275,,3,3.0
Be4MgPt,0.328,-0.0160124,,3,3.0
F6Na2Ho,0.0,-0.0119839,,3,3.0
NBr4Re,0.4073,-0.026536,,3,3.0
Fe4TaW,0.0,-0.0347872,,3,3.0
Se2Pa,0.0,-0.0479666,,3,3.0
F8K2SrTh,7.5976,-0.0175084,,3,3.0
ZnGe2In3Tm3,0.0,-0.03472,,3,3.0
MgSiS4Cu2,2.1719,-0.0113238,,3,3.0
CoZr2Mo,0.0,-0.0285529,,3,3.0
CaY2Au2,0.0,-0.0416662,,3,3.0
NaPSe4Cd,2.3486,-0.0184486,,3,3.0
Cr2MoW,0.0,-0.0353147,,3,3.0
Si2SrPt,0.0,-0.0290233999999999,,3,3.0
CuAs2Rb2,0.0,-0.0197946,,3,3.0
Ga2Ge2Sr3,0.0,-0.0203381,,3,3.0
SnSb2Hg,0.0,-0.044649,,3,3.0
Na2Ca2Sr,0.0,-0.0099303,,3,3.0
Ti2Ni2Ag,0.0,-0.0194913,,3,3.0
N2TbLu,0.3123,-0.0322391999999999,,3,3.0
AsPd3Sn2,0.0,-0.0322017999999999,,3,3.0
MgPdCe,0.0,-0.0280667,,3,3.0
In3Ho3Au2,0.0,-0.0490599,,3,3.0
In3Sn2Tb3Pt,0.0,-0.0433252,,3,3.0
K2HgPb,0.0,-0.0405028,,3,3.0
PCr2,0.0,-0.0161726,,3,3.0
AlOs5,0.0,-0.0612963,,3,3.0
LiCd2La,0.0,-0.0269648,,3,3.0
F6Rb2In,0.0,-0.0131812,,3,3.0
Al2HoPt3,0.0,-0.0471901999999999,,3,3.0
NLaIr,0.0,-0.0421988,,3,3.0
CdInSm,0.0,-0.0366689,,3,3.0
Pd2IrTh,0.0,-0.0589661,,3,3.0
HNaRb3,0.0,-0.0140189,,3,3.0
P2Ag2Ba,0.0,-0.0251018,,3,3.0
C2Er,0.0,-0.0238409,,3,3.0
In3Pa,0.0,-0.0501141,,3,3.0
Hf2Au,0.0,-0.0654068999999999,,3,3.0
Mg4CaLa,0.0,-0.0122502999999999,,3,3.0
NOTb6Pb2,0.0,-0.0461589,,3,3.0
O4CrRe,0.0,-0.0210113,,3,3.0
KRhTe2,0.6253,-0.0299106,,3,3.0
Ga5HfOs,0.0,-0.0312603,,3,3.0
ZnRh2Sn,0.0,-0.0297207,,3,3.0
MgGdTl,0.0,-0.0458518,,3,3.0
Cu2GaAc,0.0,-0.0346744,,3,3.0
LaPrBi,0.0,-0.0558587,,3,3.0
Zr6IrPb2,0.0,-0.0458034,,3,3.0
H2Si2S3,3.4662,-0.008482,,3,3.0
MgAgAu2,0.0,-0.0440952,,3,3.0
OClNd,5.0927,-0.0226590999999999,,3,3.0
Ge2NdPu,0.0,-0.0484249999999999,,3,3.0
Na2RbTl,0.0,-0.0254348,,3,3.0
CrRuRh,0.0,-0.0289547,,3,3.0
CaAg2Sm,0.0,-0.0295479,,3,3.0
Si3NiBa,0.0,-0.0174723,,3,3.0
LiO6Nd2W,0.0883,-0.0226386,,3,3.0
O5SV,1.1994,-0.0103149,,3,3.0
C4NiNd3,0.0,-0.0236931,,3,3.0
FeTcRe2,0.0,-0.0487921,,3,3.0
Mg2S8TiIn3,0.2358,-0.0156258999999999,,3,3.0
Al3FeSn2Pa3,0.0,-0.0459922,,3,3.0
LiGaI2,2.7616,-0.0237626,,3,3.0
O4CeBi,0.0,-0.026938,,3,3.0
KHg2Ac,0.0,-0.0592194,,3,3.0
Al6PdNd,0.0,-0.0159117,,3,3.0
Na2MgSe3,1.2921,-0.0133286,,3,3.0
AlNi4Hf,0.0,-0.0230598999999999,,3,3.0
Ni6As4Tm,0.0,-0.0213994,,3,3.0
CCo3Ge,0.0,-0.0161127,,3,3.0
S3TiSb,0.0,-0.0173299999999999,,3,3.0
F6CoRu,0.0,-0.011194,,3,3.0
F6Rb2Ru,0.0,-0.0133798999999999,,3,3.0
Sc3Ge2PdIn3,0.0,-0.0244274,,3,3.0
BrTeBi,1.1972,-0.0455394,,3,3.0
O5GePb3,1.9686,-0.032129,,3,3.0
ZrAuHg,0.0,-0.0565125999999999,,3,3.0
LiPdIn4,0.0,-0.0284637999999999,,3,3.0
HMn3Ir,0.0,-0.0259662,,3,3.0
Co3Ge2Pu,0.0,-0.033525,,3,3.0
SiNd,0.0,-0.0276042,,3,3.0
H2NaCs,3.6354,-0.0124649,,3,3.0
SiMoTc2,0.0,-0.0290979,,3,3.0
MnBrY,0.0,-0.0228384,,3,3.0
Zn2Pr3Hg,0.0,-0.0379962,,3,3.0
ZnGe2Hf2,0.0,-0.0359498,,3,3.0
H2RbAg,2.8311,-0.01488,,3,3.0
Li6N3Ni2,0.0,-0.0071961,,3,3.0
ZnGa3Np,0.0,-0.0339966,,3,3.0
CoIn4Lu,0.0,-0.0345681,,3,3.0
Cl3CdTl,2.5398,-0.0265157,,3,3.0
N2AlGa,3.373,-0.0118301,,3,3.0
NiAsMo,0.0,-0.0239910999999999,,3,3.0
PdIn3Ba2,0.0,-0.0359204,,3,3.0
BeCl2,7.0981,-0.0083462,,3,3.0
B6Gd,0.0,-0.0152529,,3,3.0
ScIn2Tl,0.0,-0.038662,,3,3.0
Li4O8Co3Cu,0.4389,-0.0096374999999999,,3,3.0
O5Pd2Nd2,1.6396,-0.0228389,,3,3.0
Al3Si2Gd3Os,0.0,-0.0331367,,3,3.0
MgInPt2,0.0,-0.0454746,,3,3.0
RhPdDy2,0.0,-0.0415267,,3,3.0
Ga2YRh,0.0,-0.0245057,,3,3.0
PdInPt2,0.0,-0.052054,,3,3.0
P2CuCs5,0.9216,-0.0284654999999999,,3,3.0
Cl2Th,0.0,-0.0392182,,3,3.0
SiZnCs2,0.6953,-0.0248508,,3,3.0
Rh3SnNd2,0.0,-0.0382314,,3,3.0
Y2AgTe,0.0,-0.0319425,,3,3.0
Cl6K2RbTm,5.1885,-0.015969,,3,3.0
Zn3Ho2,0.0,-0.0280864,,3,3.0
SiSe3Lu4,0.0,-0.0380972999999999,,3,3.0
NiRhBi6,0.0,-0.065192,,3,3.0
CO3Rb2,3.7521,-0.0135989,,3,3.0
O6AlSr2Ru,0.4734,-0.0150941,,3,3.0
P2Ru2Ba,0.0,-0.027044,,3,3.0
Pd6LaEu,0.0,-0.0373722,,3,3.0
Ga3Pa,0.0,-0.0375408,,3,3.0
BrSbHg3,0.0,-0.0523584,,3,3.0
Li3Au,0.0,-0.0195826999999999,,3,3.0
CuRuPt2,0.0,-0.0476853,,3,3.0
H3FeU,0.0,-0.0264891,,3,3.0
O3K2Cr,1.6267,-0.0110831,,3,3.0
LiF2Sr2,0.0,-0.0132439,,3,3.0
TcTa2,0.0,-0.0565242,,3,3.0
LaPt4Hg,0.0,-0.0662252,,3,3.0
S7In5,0.0,-0.0201211,,3,3.0
PCo2,0.0,-0.0154684,,3,3.0
O4InW,0.7108,-0.0233013,,3,3.0
Se4TeTm5,0.0,-0.0394007,,3,3.0
AlGdPt,0.0,-0.0468772,,3,3.0
Li4Hg5,0.0,-0.0392971,,3,3.0
MnCuZn2,0.0,-0.0152743,,3,3.0
LiY2Tc,0.0,-0.0233246,,3,3.0
NaCuTe3Tm,0.0,-0.0314117,,3,3.0
BNi2Y,0.0,-0.0174316,,3,3.0
Sc2InTl,0.0,-0.0340867,,3,3.0
Li4As2Ho,0.0,-0.0150463,,3,3.0
Pd2BaHg2,0.0,-0.0487391,,3,3.0
AlCa2Pt2,0.0,-0.0346977,,3,3.0
Al3Ge2Tm3W,0.0,-0.0323964,,3,3.0
Co2SnU2,0.0,-0.0555555,,3,3.0
Ge2Y2Tl,0.0,-0.0340192,,3,3.0
Li2Mg2Si2Nd,0.0,-0.0115828,,3,3.0
NbSnOs,0.0,-0.0471045999999999,,3,3.0
Zn2Ga2Hg,0.0,-0.0254562999999999,,3,3.0
B4TiTm,0.0,-0.0171048,,3,3.0
Zr6InBi2,0.0,-0.0420626,,3,3.0
BePSc2,0.0,-0.0117419,,3,3.0
CaCd2I2,0.0,-0.0295366,,3,3.0
Nd2Hg,0.0,-0.0522305,,3,3.0
NiRhW2,0.0,-0.0473657,,3,3.0
Ge3NbSm,0.0,-0.0275608,,3,3.0
AlLa5,0.0,-0.0373444,,3,3.0
SeBrHf,0.0,-0.0354677,,3,3.0
H3FeTm,0.0,-0.0165377,,3,3.0
AsYMo,0.0,-0.0283269,,3,3.0
MgCeAu,0.0,-0.0403183,,3,3.0
H5CN2InI3,0.0,-0.016149,,3,3.0
SiZnRb2,0.6915,-0.0163033,,3,3.0
Li2ScGa2,0.0,-0.01073,,3,3.0
Te3Tm,0.0,-0.0418561,,3,3.0
Br3Ir,1.8784,-0.0327109,,3,3.0
O3RbZr,0.0,-0.0166710999999999,,3,3.0
B2Ni2Hf,0.0,-0.0226648999999999,,3,3.0
Cu2Zn3Np,0.0,-0.0296296,,3,3.0
Cu4InSm,0.1365,-0.0233941,,3,3.0
AlZrPt,0.0,-0.0375543,,3,3.0
Cu3DyPt2,0.0,-0.0395914,,3,3.0
Li3Ge2Ag3,0.0,-0.0176155,,3,3.0
CuGeY,0.0,-0.0215107,,3,3.0
F5Na2As,5.0452,-0.0083122,,3,3.0
NaTe2La,1.7727,-0.0320449,,3,3.0
Ag2TlPu2,0.0,-0.0708532,,3,3.0
FeCuSb2,0.0,-0.0268882,,3,3.0
YIn5Pt,0.0,-0.0384163,,3,3.0
ScPd2In,0.0,-0.0291965,,3,3.0
PBa2Ir,0.0,-0.0408943,,3,3.0
MgInLa2,0.0,-0.0315792,,3,3.0
NaIn3,0.0,-0.0262394,,3,3.0
SiCaPt2,0.0,-0.0410552,,3,3.0
B5Fe3Tb2,0.0,-0.0189188,,3,3.0
O6RbBa2Re,2.1821,-0.0230913,,3,3.0
NiSrTe3Dy,0.0,-0.0342223,,3,3.0
Fe2Co3Ce,0.0,-0.0221911,,3,3.0
RbPd4In6,0.0,-0.0324221,,3,3.0
Li3Sb2Eu,0.0,-0.0233751,,3,3.0
As2Au2Tl,0.0,-0.0501785,,3,3.0
GaTa3,0.0,-0.0541781999999999,,3,3.0
BeCu,0.0,-0.0099984,,3,3.0
Li2F6Sn,6.0278,-0.0097944,,3,3.0
Cu4ZnY,0.0,-0.0172842,,3,3.0
C2FeNp,0.0,-0.0361647,,3,3.0
AsRuNp,0.0,-0.0543337999999999,,3,3.0
O4MgTe,2.1051,-0.0128179,,3,3.0
N6Mg2Ca7,1.6002,-0.0097954,,3,3.0
NbRh,0.0,-0.0339259,,3,3.0
F6PBr2CsPb,2.4903,-0.019088,,3,3.0
Lu2AuTl,0.0,-0.063836,,3,3.0
N4Mg4Mn,0.1025,-0.0092023,,3,3.0
KGe2Pd3,0.0,-0.0247028,,3,3.0
CSi2Fe2Ce2,0.0,-0.0227456,,3,3.0
BeSiAs2,1.2653,-0.01398,,3,3.0
Na2AsTl,0.4478,-0.0255834,,3,3.0
H3RuPu,0.0,-0.0312507,,3,3.0
LiCu2As2Zr,0.0,-0.0179022,,3,3.0
LiNi2As,0.0,-0.0140846,,3,3.0
H2AgBa2,0.0,-0.0238936,,3,3.0
MgZr2Pt2,0.0,-0.0424926,,3,3.0
F3PKBr,3.4668,-0.0103979,,3,3.0
YI6Cs2,0.0,-0.037412,,3,3.0
Ge2Pd2Lu,0.0,-0.032635,,3,3.0
Al3ZnHf2,0.0,-0.0275072,,3,3.0
TmW2,0.0,-0.0636349,,3,3.0
NaCrNiSe3,0.0,-0.0172435,,3,3.0
Ca2RhIn,0.0,-0.0220779,,3,3.0
LiO6FNb2Eu,0.0,-0.0178249,,3,3.0
Al2CaGe2,0.0,-0.0131127,,3,3.0
BeFeRu2,0.0,-0.0232319,,3,3.0
Si2Nb2Mo,0.0,-0.0247845,,3,3.0
C4CoHo3,0.0,-0.0259301,,3,3.0
S2Cl6Ni,1.4153,-0.0096148,,3,3.0
TcAgLa2,0.0,-0.0382419,,3,3.0
LiP2TmPt2,0.0,-0.0370247,,3,3.0
F6CoCs2,1.1309,-0.0152272,,3,3.0
O6GaRuBa2,0.7559,-0.0189869999999999,,3,3.0
Pd2In3Tm3,0.0,-0.0410157,,3,3.0
F6Cs3Pa,0.0,-0.0265558,,3,3.0
ZnTa2Au,0.0,-0.0540885,,3,3.0
LiCaHg2,0.0,-0.0376437,,3,3.0
LiO6FNb2Pr,0.0,-0.016899,,3,3.0
GaTaOs2,0.0,-0.0571296,,3,3.0
SiTbHf,0.0,-0.0404417,,3,3.0
S4FeCo3,0.0,-0.0139114,,3,3.0
BDyPt4,0.0,-0.0569029999999999,,3,3.0
MgZn2Dy2,0.0,-0.0258735,,3,3.0
F6K3Pr,6.7819,-0.0124045,,3,3.0
F6AgTm,1.1959,-0.0157592,,3,3.0
SiNi4La,0.0,-0.0201469999999999,,3,3.0
CuITm,0.0,-0.0354344,,3,3.0
HCs,2.5279,-0.0208934,,3,3.0
F6Rb2YTl,5.0028,-0.0195363,,3,3.0
O2Cl4RuCs2,1.6493,-0.0186108,,3,3.0
CdSm2Ir2,0.0,-0.0530758999999999,,3,3.0
Ni2GaIn2,0.0,-0.0232927,,3,3.0
CSc3Hg,0.0,-0.0249659,,3,3.0
GaAgNp,0.0,-0.0515679999999999,,3,3.0
N2OSiGe,4.3393,-0.0120411,,3,3.0
As2Ru,0.637,-0.0255773,,3,3.0
O8S2KCs,0.0034,-0.0112066,,3,3.0
LiIn4Ce,0.0,-0.0305708,,3,3.0
Al2Co2Th,0.0,-0.0295808,,3,3.0
Zn3GdPt2,0.0,-0.0407695,,3,3.0
LiTbPb,0.0,-0.0423725,,3,3.0
TiHo6Bi2,0.0,-0.0523171,,3,3.0
Se2Zr,0.4207,-0.0251447,,3,3.0
AsSrRh,0.0,-0.0264401,,3,3.0
CdSb4Nd2,0.0,-0.0388928,,3,3.0
BeRu2W,0.0,-0.0362658,,3,3.0
RuIr,0.0,-0.0530372,,3,3.0
LiNdHg2,0.0,-0.0461987,,3,3.0
Hf,0.0,-0.0626726,,3,3.0
FK3Te,3.1651,-0.0150656,,3,3.0
Cd2CeTb,0.0,-0.0383468999999999,,3,3.0
KAs2Rb2,0.0,-0.0184563999999999,,3,3.0
Te2EuPb,0.0,-0.0521094,,3,3.0
NaBaPb2,0.0,-0.0493162,,3,3.0
CdTb2Tl,0.0,-0.0495848999999999,,3,3.0
Mg2P2Tb,0.0,-0.0165635,,3,3.0
Pd2InTl,0.0,-0.0431077,,3,3.0
NaYHg2,0.0,-0.0426307,,3,3.0
CSi2W2Th2,0.0,-0.0520485,,3,3.0
In4Tl,0.0,-0.0411144,,3,3.0
LiCoGaRu,0.0,-0.017943,,3,3.0
YRh2Tm,0.0,-0.0378366,,3,3.0
ScTe2La,0.0,-0.0344181,,3,3.0
NaSn,0.4327,-0.0203407,,3,3.0
SnPt2U,0.0,-0.0704597,,3,3.0
Li2CaZn2Ge2,0.0,-0.0117658,,3,3.0
Al2Er3Hg,0.0,-0.039611,,3,3.0
ScRh2Ta,0.0,-0.0378639,,3,3.0
CPV3,0.0,-0.015366,,3,3.0
Se4SnHg2,0.3663,-0.0363442999999999,,3,3.0
CaErPb,0.0,-0.0458572,,3,3.0
SiZr2Ir2,0.0,-0.0438252,,3,3.0
P3Rb2,0.9757,-0.0150808,,3,3.0
Si3Ni2Ho,0.0,-0.0192892,,3,3.0
OHg,1.3904,-0.0375185,,3,3.0
F8Dy2Pb,6.2698,-0.0220471,,3,3.0
AsZr2Ir,0.0,-0.0393504,,3,3.0
Zn2La,0.0,-0.0238276,,3,3.0
AlSi2Gd2,0.0,-0.0297786,,3,3.0
B6Ru2Pr,0.0,-0.0179533,,3,3.0
Ca3CoGe2In3,0.0,-0.0209476,,3,3.0
BeF6KHo,8.3594,-0.0130756999999999,,3,3.0
MnHf6Tl2,0.0,-0.0600206,,3,3.0
O8P2SrPa,0.8526,-0.01914,,3,3.0
N2Na2Th,1.9984,-0.0254481,,3,3.0
SbTePt2,0.0,-0.054168,,3,3.0
Co2Zn3La,0.0,-0.0197987,,3,3.0
Li2O2F2V,0.0,-0.0088653,,3,3.0
FeGe2Pa,0.0,-0.0393612,,3,3.0
O6CoBa2Tb,0.0,-0.0205914,,3,3.0
AlTe2Dy6,0.0,-0.0417242,,3,3.0
Al2TmAu,0.0,-0.0349916,,3,3.0
N2OCeTa,0.0,-0.0293168,,3,3.0
ZnSmHg,0.0,-0.0425766,,3,3.0
C2O6ZrHg,2.5313,-0.0175396,,3,3.0
Sb2BaTl,0.0,-0.0471618,,3,3.0
Co2ZnPr,0.0,-0.0229068,,3,3.0
O6RbIAu,0.6094,-0.0187569,,3,3.0
Ni2GeSe4,0.0,-0.0190069,,3,3.0
AlNi3Cu2,0.0,-0.014686,,3,3.0
Ni2Ga3Pr,0.0,-0.0213992,,3,3.0
CoAsZr,1.4338,-0.0236538,,3,3.0
Al2Co15Pr2,0.0,-0.0191034,,3,3.0
CdCeAu,0.0,-0.0487618,,3,3.0
O6KCrI,0.8534,-0.0125221999999999,,3,3.0
TcSm3,0.0,-0.0420923999999999,,3,3.0
LiHg2Pb2,0.0,-0.0581598,,3,3.0
CrCu4Se4,0.0,-0.0179954,,3,3.0
AsPd5Ta,0.0,-0.0362387999999999,,3,3.0
Zn2HoAu,0.0,-0.0369682,,3,3.0
MgZnHo,0.0,-0.0228198,,3,3.0
DyPt2Pu,0.0,-0.0755494999999999,,3,3.0
ClRuSm,0.0,-0.0303713,,3,3.0
MgCa7,0.0,-0.0090527,,3,3.0
In5ErAu,0.0,-0.0412719999999999,,3,3.0
Na3AlSb2,0.9112,-0.0162609,,3,3.0
InAuNp,0.0,-0.0700824999999999,,3,3.0
TiNiIn,0.0,-0.0221982,,3,3.0
SiRhPa,0.0,-0.0487106,,3,3.0
LiMgPS4,3.0666,-0.0090326,,3,3.0
F8Na2SrNd,0.0,-0.0119788,,3,3.0
H2Ta2Re,0.0,-0.0424878,,3,3.0
O6PdBa2Dy,0.0,-0.0221265,,3,3.0
H8N2F6NaFe,0.0,-0.0064661,,3,3.0
PdTbHg,0.0,-0.0500694999999999,,3,3.0
ZnPd2Pt,0.0,-0.0376400999999999,,3,3.0
O4CoTe,0.0,-0.0143361,,3,3.0
In2CsHg2,0.0,-0.0483921,,3,3.0
Al3Ca2Au,0.0,-0.0192467,,3,3.0
H4FeSm,0.0,-0.0132135999999999,,3,3.0
Be4RuW,0.0,-0.0206648,,3,3.0
BNi6Y2,0.0,-0.0181697,,3,3.0
Ga2Rh2Cd,0.0,-0.0266639,,3,3.0
AlAg2Gd,0.0,-0.0326554,,3,3.0
NaMgP,2.2956,-0.0072809999999999,,3,3.0
GaNd2Au,0.0,-0.0439523999999999,,3,3.0
Mg3Y,0.0,-0.0107813,,3,3.0
O2ClMnBi,1.7853,-0.0249645,,3,3.0
SiNiPd,0.0,-0.0203543999999999,,3,3.0
P3Cd2I,1.5079,-0.0217445,,3,3.0
RuAgPt2,0.0,-0.051645,,3,3.0
P2S7KCr,1.9013,-0.0111912,,3,3.0
Si2ZnPt2,0.0,-0.0354014999999999,,3,3.0
SKAg,2.521,-0.0172365999999999,,3,3.0
F6NiZr,3.4605,-0.0118529999999999,,3,3.0
Zn2In2Ce,0.0,-0.0281154,,3,3.0
Pd2CdCe,0.0,-0.0357498,,3,3.0
TiNbTc2,0.0,-0.0303614,,3,3.0
OSFe2,0.0,-0.0136163,,3,3.0
Li2Cd2In2Ba,0.0,-0.0249472,,3,3.0
Ge2Pd2Pa,0.0,-0.0413236,,3,3.0
HYPt3,0.0,-0.0491731,,3,3.0
Rh2PdTe2,0.0,-0.0353577999999999,,3,3.0
O3AlNd,4.9262,-0.0176497,,3,3.0
ZnRe,0.0,-0.0423112,,3,3.0
AlSb2Pr6,0.0,-0.0387456,,3,3.0
OSFeBa,0.0,-0.0201986,,3,3.0
LiO4FAlP,6.8062,-0.0091469,,3,3.0
HSe2Ag2,0.0,-0.0212062999999999,,3,3.0
InCe2Pb,0.0,-0.0501062,,3,3.0
P2ZnGe,1.3966,-0.0136101,,3,3.0
O6ZrBa2Np,1.4313,-0.0288352,,3,3.0
SbPb,0.0,-0.056489,,3,3.0
Al5Ru2La,0.0,-0.0195928,,3,3.0
FIBa,4.3506,-0.0297212,,3,3.0
Ga2Mo2Ta,0.0,-0.0339866,,3,3.0
S2InCs,2.96,-0.0237037,,3,3.0
N3MoEr,0.8517,-0.0237708,,3,3.0
CaCu5,0.0,-0.0143992,,3,3.0
ZnGa2Hf6,0.0,-0.0472391,,3,3.0
LiMoHf2,0.0,-0.0406475,,3,3.0
CCoTb,0.0,-0.0250501,,3,3.0
NiZn2Ag,0.0,-0.0186833,,3,3.0
Cl3FeCs,0.0,-0.0175453,,3,3.0
Na2KSnCs,0.0,-0.0181986999999999,,3,3.0
CSeDy2,0.0,-0.0327933,,3,3.0
TiNi2Ga,0.0,-0.0167758,,3,3.0
Al2Cr2Ge,0.0,-0.0143092,,3,3.0
OInSm3,0.0,-0.0362129,,3,3.0
RuBi2Th,0.0,-0.0724047,,3,3.0
Al3Ge2RuSm3,0.0,-0.0263539,,3,3.0
Sb3Sm5,0.0,-0.0428127,,3,3.0
NPdTa3,0.0,-0.0490173,,3,3.0
BeNi5,0.0,-0.0143644999999999,,3,3.0
SiFeIr2,0.0,-0.0430905,,3,3.0
ZnSeSr2,0.0,-0.0206172,,3,3.0
PdSnHf,0.6041,-0.0446704999999999,,3,3.0
LiY2Au2,0.0,-0.0402038,,3,3.0
Te2Np,0.0,-0.0609114,,3,3.0
MgDyPt2,0.0,-0.0494692999999999,,3,3.0
Ni2Se3,0.0,-0.0188027,,3,3.0
MnNbSb,0.0,-0.0298139,,3,3.0
Rb2I6Re,1.1899,-0.0377526,,3,3.0
Pd2ErBi,0.0,-0.0494136,,3,3.0
F4AgPt,0.0,-0.0205091,,3,3.0
CoDy,0.0,-0.0327515,,3,3.0
Rh2InTa2,0.0,-0.0472413999999999,,3,3.0
O6CrNiPr2,0.0,-0.0187144,,3,3.0
B2O6RhPb,0.0,-0.0179902,,3,3.0
F6AuHg,0.0,-0.0209513,,3,3.0
Al2P2Rb,0.0,-0.01194,,3,3.0
P2Ba,0.7313,-0.0210539,,3,3.0
OBrCd,0.6539,-0.0194214,,3,3.0
Ti3Ru2Cd,0.0,-0.0252912,,3,3.0
O6KTiI,2.3792,-0.0126182999999999,,3,3.0
Al3Si2MnDy3,0.0,-0.0234536,,3,3.0
AlZrAg,0.0,-0.0236574,,3,3.0
Mn2GaNd,0.0,-0.0244842,,3,3.0
C2FeTb,0.0,-0.0215514,,3,3.0
Zn2InLa,0.0,-0.0263658,,3,3.0
Te2Tb6Re,0.0,-0.0480609,,3,3.0
Al2FeU,0.0,-0.0345037,,3,3.0
As2Rh2Ce,0.0,-0.0315833,,3,3.0
Sr2Ag2Ba,0.0,-0.029598,,3,3.0
Sc3RuPt2,0.0,-0.0375816999999999,,3,3.0
ZrRh2Sb,0.0,-0.0347856999999999,,3,3.0
LiBr2Au,2.8679,-0.0284661,,3,3.0
Al2Zn2Th,0.0,-0.0281326,,3,3.0
Al2HfPt,0.0,-0.038145,,3,3.0
Br3Tm,4.6183,-0.0296132,,3,3.0
Mo2Ho,0.0,-0.0394958,,3,3.0
RbAg2Bi2,0.0,-0.0482849,,3,3.0
CdPb,0.0,-0.0530383,,3,3.0
O2Na2CsAu,2.2703,-0.0225316,,3,3.0
Sc6Te2W,0.0,-0.0260933,,3,3.0
CuMoHf2,0.0,-0.0440285,,3,3.0
Y2TcCd,0.0,-0.0305281,,3,3.0
O6CoBa2W,0.4987,-0.0229212,,3,3.0
B2O6Na3Sc,4.3009,-0.0093013,,3,3.0
Rb2Hg2Bi,0.0,-0.051619,,3,3.0
Be2CuNb2,0.0,-0.0181604,,3,3.0
Rh2Tl3Th3,0.0,-0.0721823,,3,3.0
ClBr2Ag,0.8268,-0.0198095,,3,3.0
LiScAu,0.0,-0.0292938,,3,3.0
O7ScGe2Nd,4.4775,-0.015469,,3,3.0
SiP2Pb,0.3294,-0.0266607,,3,3.0
H8FeNi2Th,0.0,-0.0146493,,3,3.0
HLa3Pb,0.0,-0.0423091,,3,3.0
CAl2,0.1331,-0.0086229,,3,3.0
PZnPt5,0.0,-0.0540287,,3,3.0
F6KCrIn2,2.7253,-0.014013,,3,3.0
BNCuEu,0.0,-0.0222121999999999,,3,3.0
SiTc3,0.0,-0.0291165,,3,3.0
MgSe2Au,0.0,-0.0292618,,3,3.0
SbPrHf,0.0,-0.0485423,,3,3.0
S3ZnBa,2.0794,-0.0175798,,3,3.0
SSeMo,0.8055,-0.0223353,,3,3.0