formula,bg,formation_energy,mp-id,fidelity,bg_category
SnI2Tm2,0.0,-0.0437675,,3,3.0
O8P2AsCs,3.7746,-0.0128332,,3,3.0
Be4SiOs,0.0,-0.0169478,,3,3.0
N2NdHf,0.0,-0.0330664,,3,3.0
NTi2Zn,0.0,-0.0149293999999999,,3,3.0
NiITm,0.0,-0.0358596,,3,3.0
F6CrRb3,3.8839,-0.0132961,,3,3.0
O4CePb,1.3793,-0.0264364,,3,3.0
YAgLa,0.0,-0.0343275,,3,3.0
NiAsPd5,0.0,-0.0288227,,3,3.0
K2RbCs,0.0,-0.0187945999999999,,3,3.0
Cu2Br3Rb,2.1378,-0.0191082999999999,,3,3.0
Sc3Ge4Pd4,0.0,-0.0236362,,3,3.0
Rh2InU,0.0,-0.0514906999999999,,3,3.0
SrZrSb2,0.0,-0.0327813999999999,,3,3.0
CrPd8,0.0,-0.0312719,,3,3.0
Mn2Br8Pd,0.0,-0.0211238999999999,,3,3.0
O8Rb3Ho,0.0,-0.0148414,,3,3.0
BRh6Tb2,0.0,-0.0345506,,3,3.0
CuCe2Pt,0.0,-0.0443147,,3,3.0
CoY2Au,0.0,-0.0362008999999999,,3,3.0
VRh3,0.0,-0.0301572,,3,3.0
STe2Sm,0.0,-0.0334808,,3,3.0
Ca2YLa,0.0,-0.0225146,,3,3.0
Be2PtAu,0.0,-0.0376088,,3,3.0
Zn3Ag2Ba,0.0,-0.0239613,,3,3.0
Al2Ti3,0.0,-0.0129916,,3,3.0
La2Pt2Au,0.0,-0.0603716,,3,3.0
C2BrSm2,0.0,-0.0266612,,3,3.0
MgHg4,0.0,-0.0556189,,3,3.0
AgSbBa2,0.4367,-0.0377172,,3,3.0
P2Zn2Ba,0.0,-0.0182312,,3,3.0
GaCdCe2,0.0,-0.0343136,,3,3.0
H6MnTa2,0.0,-0.019125,,3,3.0
O4Pd2Nd,0.0,-0.0209594,,3,3.0
O4Ba2Os,0.0,-0.0272801,,3,3.0
O7Cu2Sr2YTl,0.0,-0.0189485,,3,3.0
B2Ti3Co5,0.0,-0.0154585,,3,3.0
NaNiSe3Ta,0.0,-0.0253303,,3,3.0
PMoU,0.0,-0.0500534,,3,3.0
S2BrAu,0.0,-0.0269846,,3,3.0
O6GeTeLa,0.0,-0.0172557,,3,3.0
FeZn2Ir,0.0,-0.0292413999999999,,3,3.0
TiCrAs,0.0,-0.0188722999999999,,3,3.0
Ho3Ir2Tl3,0.0,-0.0639383,,3,3.0
Fe2SnHf,0.4451,-0.0339142999999999,,3,3.0
C2InTa3,0.0,-0.0427177,,3,3.0
MgSmPt2,0.0,-0.0485805999999999,,3,3.0
K2CuBr4,0.2857,-0.016937,,3,3.0
Zn6Sn3Ba2,0.0,-0.024698,,3,3.0
S4Ti2Cr,0.0,-0.0141346,,3,3.0
ZrAg5,0.0,-0.0312637,,3,3.0
Al2RhTb6,0.0,-0.0370674,,3,3.0
Zn2EuAu3,0.0,-0.0485841,,3,3.0
Al5Co2Hf,0.0,-0.0175259,,3,3.0
Al4ScSr,0.0,-0.0115504,,3,3.0
P2KCu2Th,0.0,-0.0266837,,3,3.0
SiNi2Hf,0.0,-0.0270646999999999,,3,3.0
MgLuAu2,0.0,-0.0506505,,3,3.0
PI2Np2,0.0,-0.0602411,,3,3.0
OZnZr3,0.0,-0.0237364,,3,3.0
DyTl,0.0,-0.0606169,,3,3.0
CSnEr2,0.0,-0.0373711,,3,3.0
Si4Rh4Sm3,0.0,-0.0291851999999999,,3,3.0
Ga3Ge2RuLu3,0.0,-0.0328312,,3,3.0
Si2NiHf6,0.0,-0.0463718,,3,3.0
B2GdOs2,0.0,-0.0440007,,3,3.0
Cl2SnLa2,0.4329,-0.0294857,,3,3.0
HoHg2Pb,0.0,-0.0656199,,3,3.0
Li3O10Ti2Cu3,0.6605,-0.0100872,,3,3.0
MgAl2Y,0.0,-0.0124347,,3,3.0
AlSc2Ir,0.0,-0.02771,,3,3.0
H3NbRu,0.0,-0.0157791,,3,3.0
InICe,0.0,-0.0392143999999999,,3,3.0
H3ClBa2,2.366,-0.0174434,,3,3.0
BGa2YRu2,0.0,-0.0236527,,3,3.0
Rb3Bi,0.0739,-0.0356074,,3,3.0
Co2NiMo,0.0,-0.0213264,,3,3.0
Cd2Pb2Bi,0.0,-0.058088,,3,3.0
RhNdTl5,0.0,-0.063012,,3,3.0
ZrTc,0.0,-0.033325,,3,3.0
As2Se2Te,0.4733,-0.0236422999999999,,3,3.0
SrHg,0.0,-0.0459187,,3,3.0
B2O6BaNd,0.0,-0.0164407,,3,3.0
Se4Pd2SnBa,0.0,-0.0284572,,3,3.0
Si2PdIn3Tb3,0.0,-0.0333206,,3,3.0
Ru2InLu2,0.0,-0.0432839,,3,3.0
FeRe3,0.0,-0.0578014,,3,3.0
S3TiNiTl,0.0,-0.0232045,,3,3.0
F4FeRb2,0.6678,-0.013259,,3,3.0
Ru2TbHf,0.0,-0.0454236,,3,3.0
GdDyAu2,0.0,-0.0622674,,3,3.0
Be13Pr,0.0,-0.0072857,,3,3.0
CSiTbRe2,0.0,-0.0423333,,3,3.0
MnNi4Hf,0.0,-0.0247403,,3,3.0
Cl6Rb2CsTm,5.1779,-0.0201812,,3,3.0
OAsRuDy,0.0,-0.0293686,,3,3.0
MnSb2Tm6,0.0,-0.0454842,,3,3.0
CoGeMo,0.0,-0.0238752,,3,3.0
O4ClSb2Lu,1.2391,-0.022582,,3,3.0
S2SeMo2Te,0.0,-0.0250566999999999,,3,3.0
ClMn2Sm2,0.0,-0.0273855,,3,3.0
KHg2Bi2,0.0,-0.0605681,,3,3.0
O5Cu2BaEr,0.0,-0.0189574,,3,3.0
ZrInIr2,0.0,-0.052338,,3,3.0
ZnSrCd,0.0,-0.0224,,3,3.0
SiBr2,1.9738,-0.0169929999999999,,3,3.0
AlCuSm2,0.0,-0.0282314,,3,3.0
RhNd6Pb2,0.0,-0.0502892,,3,3.0
CY3Pb,0.0,-0.0346623999999999,,3,3.0
F6SrTb,0.0,-0.0147888,,3,3.0
H2Zr2Os,0.0,-0.0287396,,3,3.0
SiZrHf,0.0,-0.0352179,,3,3.0
F5V,3.6087,-0.0086564,,3,3.0
F6FeNb,0.0,-0.0118444,,3,3.0
PCa2I,1.8826,-0.0182042,,3,3.0
N2SrTh,1.0755,-0.035728,,3,3.0
F6CaPd,2.8795,-0.010451,,3,3.0
O6Ca3Ir,0.1307,-0.0159036,,3,3.0
Al7Lu3Au2,0.0,-0.0305305999999999,,3,3.0
B2Sc3Co7,0.0,-0.0152538,,3,3.0
O8MnFe4Cu,0.0,-0.0126311,,3,3.0
Li2O4VNi,0.3041,-0.0101262,,3,3.0
FeTcPt2,0.0,-0.048712,,3,3.0
SnTeSm,0.0,-0.0403146,,3,3.0
BeFe2Ta,0.0,-0.026886,,3,3.0
PCa2Cd,0.0,-0.0158560999999999,,3,3.0
F6Rb3Np,0.0,-0.0222142,,3,3.0
ZnGa3Er,0.0,-0.023034,,3,3.0
TiCoSe3Cs,0.0,-0.0229403,,3,3.0
RuCdLa3,0.0,-0.0392227,,3,3.0
Al2ScTc2,0.0,-0.0204663,,3,3.0
N2TaU,0.0,-0.0484259,,3,3.0
Sc3Ni2,0.0,-0.0154077,,3,3.0
MgTaIr2,0.0,-0.0542218,,3,3.0
Co4NiZr,0.0,-0.0194591,,3,3.0
CGaCe3,0.0,-0.0324025,,3,3.0
Ge2CdLa2,0.0,-0.031792,,3,3.0
MgSn2Tl2,0.0,-0.0442329999999999,,3,3.0
In2La2Tl,0.0,-0.0456805,,3,3.0
Sn2BaTl2,0.0,-0.0515773999999999,,3,3.0
Mg3SrAg2,0.0,-0.0169074,,3,3.0
CaYAg4,0.0,-0.0273978,,3,3.0
F8Na2YBa,0.0,-0.0120818,,3,3.0
NaSnSb,0.0,-0.0260683,,3,3.0
OClPr,5.0074,-0.0225575,,3,3.0
LiCu4Zn,0.0,-0.012809,,3,3.0
CoSn2Ta6,0.0,-0.0543392,,3,3.0
RbI3,0.9951,-0.033579,,3,3.0
Si2Zr2Os,0.0,-0.0316126,,3,3.0
ZnSnLa,0.0,-0.0316146,,3,3.0
Cl6Rb2Pt,2.2676,-0.0191561999999999,,3,3.0
Co2Ga3Tb,0.0,-0.0221864,,3,3.0
P2AgLa,0.0,-0.0246555,,3,3.0
Sc2AgPt2,0.0,-0.0411546,,3,3.0
HBrPu,0.0,-0.0451767,,3,3.0
O3NaK2Fe,1.1107,-0.0099058,,3,3.0
KHg5,0.0,-0.0584072,,3,3.0
InHg2Pu,0.0,-0.0700805,,3,3.0
Ge2Y2Zr,0.0,-0.0257645,,3,3.0
Al2Sb2Ba,0.0,-0.0264279,,3,3.0
CaRu2U,0.0,-0.0458704,,3,3.0
Li4O8Ni3Cu,0.0,-0.0092341,,3,3.0
CeTbBi,0.0,-0.0573937,,3,3.0
Cd2LaAc,0.0,-0.0489984,,3,3.0
TiCu3Te4,0.0,-0.0266868,,3,3.0
P2KNi2Ce,0.0,-0.0185177,,3,3.0
CMgSc2,0.0,-0.0113254,,3,3.0
O6Ca2TmBi,2.4696,-0.0213498,,3,3.0
NaSr2Hg2,0.0,-0.0375606,,3,3.0
Li3Zn4,0.0,-0.0089,,3,3.0
CaZnPb2,0.0,-0.0439918,,3,3.0
N6Cr2Y3,0.0,-0.0173275,,3,3.0
O6CuBa2Ir,0.0,-0.0220476,,3,3.0
Cu3TbAu2,0.0,-0.0388916,,3,3.0
SiTe,0.0,-0.0235972,,3,3.0
Ti2Hf2Pb,0.0,-0.0466582,,3,3.0
Pd2TlTh,0.0,-0.0591116999999999,,3,3.0
LiLa2Tl,0.0,-0.0406124999999999,,3,3.0
H3ZnCe,0.0,-0.0141207,,3,3.0
AlCa6Sb2,0.0,-0.0162653,,3,3.0
LiKAu2,0.0516,-0.0377387999999999,,3,3.0
O3Ga2,2.8918,-0.0123427,,3,3.0
C2FeTm,0.0,-0.0228525999999999,,3,3.0
LiCuPd2,0.0,-0.0210705,,3,3.0
Pd5TePb,0.0,-0.0398391,,3,3.0
H6Eu2W,0.0,-0.0223168,,3,3.0
O4CaSr,2.7856,-0.0116093,,3,3.0
Fe2Ga5La,0.0,-0.0204603,,3,3.0
PCeNd,0.0,-0.0340068,,3,3.0
CoLa3Pb,0.0,-0.0449808,,3,3.0
LaPt4Au,0.0,-0.0663231,,3,3.0
Al3SrRh2,0.0,-0.0197695,,3,3.0
HICs2,3.4588,-0.0298806,,3,3.0
ScRhIr2,0.0,-0.0482719,,3,3.0
AsNbPd,0.0,-0.0292586,,3,3.0
HO5PSn,3.9686,-0.0120996,,3,3.0
MgSb2Tm6,0.0,-0.0438671999999999,,3,3.0
Sn2ErOs,0.0,-0.0489489,,3,3.0
Al2I8Au,0.5025,-0.034921,,3,3.0
Al2Zn2Pu,0.0,-0.0307219,,3,3.0
SnDyIr,0.0,-0.0526064,,3,3.0
BN2Na2Rb,2.5699,-0.0098801,,3,3.0
O2Na5SCo,1.1017,-0.007988,,3,3.0
Si2Sc2Ru,0.0,-0.0176202,,3,3.0
PCrCo,0.0,-0.015895,,3,3.0
Co2Sn7Er3,0.0,-0.0368275999999999,,3,3.0
LiCdPt4,0.0,-0.0526578,,3,3.0
Al6Si4Tb2Pt,0.0,-0.019856,,3,3.0
Ni7Pa,0.0,-0.0267453,,3,3.0
Li5S4Bi,1.9226,-0.0140672,,3,3.0
O6SrBa2Au,0.0,-0.0226875,,3,3.0
Se2Os,0.0505,-0.0376026,,3,3.0
S3KZrRh,0.0,-0.0182875,,3,3.0
Br6Rb2AgPr,3.6358,-0.0249847,,3,3.0
Te2Lu6Ir,0.0,-0.0540148,,3,3.0
NaBr6Rb2Mo,2.1717,-0.0211641,,3,3.0
F6EuHg,0.0,-0.0202246,,3,3.0
NiRuAc2,0.0,-0.0579818,,3,3.0
CrTcW,0.0,-0.0410213,,3,3.0
C2Cl5Ba4,0.0,-0.0217735999999999,,3,3.0
YAg8,0.0,-0.0310362,,3,3.0
ScTl2Ac,0.0,-0.0627894,,3,3.0
AlGaSm2,0.0,-0.0287631,,3,3.0
H2CO6PMn,1.9436,-0.0093104,,3,3.0
AgNdAu2,0.0,-0.0540071,,3,3.0
Ca2Se2Au,0.0,-0.0270995999999999,,3,3.0
B2N3Y3Rh2,0.0,-0.0208718,,3,3.0
O8Nb5Ba,0.0,-0.0208405999999999,,3,3.0
O8Mo2Th,4.2959,-0.022237,,3,3.0
AlFe2Mo,0.0,-0.0198635,,3,3.0
KAs2Ba,0.0,-0.0228991,,3,3.0
AsSr2Cd,0.0,-0.0246412,,3,3.0
Zn4Ge4Tm3,0.0,-0.0265431,,3,3.0
LiSmAu2,0.0,-0.0471257999999999,,3,3.0
PRhHf,0.0,-0.0369566999999999,,3,3.0
O6ZnRhPr2,0.0,-0.019599,,3,3.0
PdGd2Os,0.0,-0.0560786,,3,3.0
AgBa2La,0.0,-0.0384695,,3,3.0
MgPdIn2,0.0,-0.026587,,3,3.0
Pd2Te2Dy7,0.0,-0.0440902,,3,3.0
S4SmTb2,0.0,-0.0274883,,3,3.0
Cu2Pr2Tl,0.0,-0.0382505,,3,3.0
SiNbPt2,0.0,-0.0467027,,3,3.0
C4NiTm3,0.0,-0.026919,,3,3.0
O3RbTc,0.0,-0.0166055,,3,3.0
SeNp2,0.0,-0.0789454,,3,3.0
O8NaMo2Er,3.4707,-0.0171567,,3,3.0
O6NiGeLa2,2.3552,-0.0186804,,3,3.0
AgDy2Au,0.0,-0.0497831,,3,3.0
Co3GeTa2,0.0,-0.0342964,,3,3.0
AlYHg,0.0,-0.0352861,,3,3.0
Ag7In6,0.0,-0.0322779,,3,3.0
Al4CaTa2,0.0,-0.0250833,,3,3.0
MnCo,0.0,-0.0179863,,3,3.0
H4PBr,4.5849,-0.0074978,,3,3.0
Si2NiIn3Tb3,0.0,-0.0313786999999999,,3,3.0
Rb2CsBi,0.7097,-0.0398971,,3,3.0
LiBr6Rb2U,1.4617,-0.0281262,,3,3.0
AlNiNd,0.0,-0.0230539999999999,,3,3.0
Si2ZnEu,0.0,-0.0222032,,3,3.0
Zn2TcSb,0.0,-0.0247889,,3,3.0
CaNiSe3Tb,0.0,-0.0237333999999999,,3,3.0
NaS2Ir,1.53,-0.0244914,,3,3.0
FClK2,5.3853,-0.0094794,,3,3.0
MnSn2Dy6,0.0,-0.0423569,,3,3.0
AlSbPt5,0.0,-0.0571991,,3,3.0
B2CCaPt2,0.0,-0.0298294,,3,3.0
AlSc2Cd,0.0,-0.0170906999999999,,3,3.0
HPd3Sb,0.0,-0.0280721,,3,3.0
ZnPm2Tl,0.0,-0.0439551,,3,3.0
ZnGd2Ir,0.0,-0.0512023,,3,3.0
Ge2Ir3Th,0.0,-0.0586619,,3,3.0
Be2CuRh2,0.0,-0.0188547,,3,3.0
N3RePu,0.0,-0.0423732,,3,3.0
F6AgSb,1.6032,-0.0133489,,3,3.0
Li4OF7Co2,1.3723,-0.0079549,,3,3.0
NiAsBa,0.0,-0.0260953,,3,3.0
S4MnZn,0.0,-0.0122402999999999,,3,3.0
NiAs2Ho,0.0,-0.0273472,,3,3.0
ZrAgSn,0.0,-0.0330253,,3,3.0
Al2ZnBa,0.0,-0.0173365,,3,3.0
PdSnAc2,0.0,-0.0631329,,3,3.0
Se3AgCsHf,0.8636,-0.0332357999999999,,3,3.0
V3Pd,0.0,-0.0215174,,3,3.0
Ti3Ru2Au,0.0,-0.0319025,,3,3.0
GePdPa,0.0,-0.0511736999999999,,3,3.0
Mg3Co4,0.0,-0.0119492,,3,3.0
DyTl2,0.0,-0.0645934,,3,3.0
GaRu2Pu,0.0,-0.0493276,,3,3.0
MgCo2Dy2,0.0,-0.0271299999999999,,3,3.0
O3Fe2,0.0,-0.0125192999999999,,3,3.0
CBr5Th4,0.0,-0.0503945,,3,3.0
Al2Hf6Ir,0.0,-0.051916,,3,3.0
ZnAgTh2,0.0,-0.0592346,,3,3.0
Fe2RhU,0.0,-0.0434415,,3,3.0
O8P2Ag3In,1.7315,-0.0158381,,3,3.0
O4GaNb,3.4042,-0.0148630999999999,,3,3.0
Al3ZnEu,0.0,-0.0184337,,3,3.0
CoSb2U,0.0,-0.0490115,,3,3.0
MgAlHo,0.0,-0.0208924,,3,3.0
NiRhPt2,0.0,-0.0477275,,3,3.0
LiB14Al,1.5112,-0.0073395,,3,3.0
ScAuHg2,0.0,-0.0554,,3,3.0
Y2SbIr,0.0,-0.0420611,,3,3.0
NaCo3Se6,0.0,-0.0181111,,3,3.0
SPr,0.0,-0.0287626,,3,3.0
Si2Os2Pa,0.0,-0.0534482,,3,3.0
Rh2CePt,0.0,-0.046414,,3,3.0
LiGeDy,0.0,-0.0238559,,3,3.0
F6PCs,8.2662,-0.0116601,,3,3.0
AlAs2Pb,0.0,-0.0311026999999999,,3,3.0
MgLaAu2,0.0,-0.0475508,,3,3.0
AsBr2U2,0.0,-0.0541072,,3,3.0
Ge3PrPt,0.0,-0.0349984,,3,3.0
F6AlNiCs,3.3009,-0.0124418,,3,3.0
HSY,2.1058,-0.0154323,,3,3.0
B4Y2Ir5,0.0,-0.0409861,,3,3.0
CI2Th2,0.0,-0.0560624,,3,3.0
O2Tm,0.0093,-0.0245739,,3,3.0
F6K2Au,0.5862,-0.0139175,,3,3.0
NaCaSn,0.0,-0.0170428,,3,3.0
Be2ZnPd2,0.0,-0.018117,,3,3.0
Sc2Ni2Ag,0.0,-0.0188714,,3,3.0
Be2Mo2Os,0.0,-0.0302709,,3,3.0
O2MgClSb,3.6641,-0.0144967,,3,3.0
TcRu2Os,0.0,-0.0442315,,3,3.0
As2Rb3Pt3,0.0,-0.0396815,,3,3.0
MnCoRhSn,0.0,-0.0267475,,3,3.0
Rh2DyLu,0.0,-0.0437509,,3,3.0
SbPt5Tl,0.0,-0.0659516,,3,3.0
ClPb,0.0,-0.0425272,,3,3.0
H4CoHo,0.0,-0.0138684999999999,,3,3.0
Rh2Sn3Hf3,0.0,-0.0461028999999999,,3,3.0
H2O12Al4KFe3,1.3236,-0.0102256999999999,,3,3.0
Li2CaPb2,0.0,-0.0337217,,3,3.0
LiAg4,0.0,-0.0256768,,3,3.0
Sc3Zn2Cd,0.0,-0.0171537,,3,3.0
S4TeTm,0.0,-0.0220562,,3,3.0
Si3NbPr,0.0,-0.0218920999999999,,3,3.0
B4ScEr,0.0,-0.0165,,3,3.0
HFe2PdAu,0.0,-0.0284021,,3,3.0
As4YRu6,0.0,-0.0294483,,3,3.0
Zn3Pt2Th,0.0,-0.0469427,,3,3.0
Sb4PrNd,0.0,-0.0402306,,3,3.0
CuBr6Rb2Bi,0.7021,-0.0263317,,3,3.0
As2Au,0.0,-0.0366228,,3,3.0
Ga3Er2Ir2,0.0,-0.0426603,,3,3.0
NaS3MnCu,0.0,-0.0118978,,3,3.0
NaSiAg,0.0,-0.0152227,,3,3.0
ZnCdPb2,0.0,-0.0487537,,3,3.0
Sc4Cu2Tl5,0.0,-0.0411731,,3,3.0
Li2CaNi2Ge2,0.0,-0.0125488,,3,3.0
Be4AlZn,0.0,-0.0063853,,3,3.0
AlFe2Re,0.0,-0.0289035,,3,3.0
O2MnCu,0.0,-0.0130069,,3,3.0
Al3Ge2PdHf3,0.0,-0.0320142999999999,,3,3.0
As2LuAu,0.0,-0.0419707999999999,,3,3.0
HBr2Th,0.0,-0.0358688999999999,,3,3.0
Cu4HgTh,0.3792,-0.0376625,,3,3.0
SiCdSm,0.0,-0.0288159999999999,,3,3.0
Ni3Zn2Th,0.0,-0.0289104,,3,3.0
FeRe4,0.0,-0.0604245,,3,3.0
HFe3Ga,0.0,-0.0149976,,3,3.0
BeAu4,0.0,-0.0563461,,3,3.0
YPt4Hg,0.0,-0.0636614,,3,3.0
O8Ca2Ni3,1.1858,-0.0108279,,3,3.0
Nd2Ir,0.0,-0.0534939,,3,3.0
CuRh2Er3,0.0,-0.0397861,,3,3.0
N2VCs,0.7814,-0.0194666,,3,3.0
Si2RhIn3Nd3,0.0,-0.0323982,,3,3.0
BRuW,0.0,-0.0375255,,3,3.0
ZnZrTe2,0.0,-0.0303626,,3,3.0
Cl3Cu,0.475,-0.0102081999999999,,3,3.0
BRhPd,0.0,-0.0250534,,3,3.0
ZnTaPt,0.0,-0.0506952,,3,3.0
O3FCuTa,1.743,-0.0197134,,3,3.0
NiGaPm2,0.0,-0.0305174,,3,3.0
RhIn3Sn2Sm3,0.0,-0.0384983,,3,3.0
InDy2,0.0,-0.0434023,,3,3.0
KIn2Ba2,0.0,-0.0311865,,3,3.0
In2PmPu,0.0,-0.0554789,,3,3.0
Br2SbTh2,0.0,-0.0548268,,3,3.0
HCu3Pt,0.0,-0.0238594,,3,3.0
MgRuNd,0.0,-0.0279992,,3,3.0
SCuAs,0.0,-0.0152403,,3,3.0
S4ScCu4,0.0,-0.0132912999999999,,3,3.0
HTeGd,1.2292,-0.0344284,,3,3.0
F6NaK2Sc,7.7938,-0.0091732999999999,,3,3.0
O7Ti2Ho2,4.2506,-0.0194277,,3,3.0
ZrIn2Ir,0.0,-0.0426622,,3,3.0
Zn2Au2Tl,0.0,-0.0476978,,3,3.0
Mg2CsPb2,0.0,-0.0401417,,3,3.0
Se2RbPr,2.2036,-0.0280399,,3,3.0
CoZr5,0.0,-0.0285115,,3,3.0
CrAsPd5,0.0,-0.0292836,,3,3.0
Sc3ZnOs2,0.0,-0.0339003,,3,3.0
Li2AlPb,0.0,-0.0223129,,3,3.0
HRh3In,0.0,-0.0278373999999999,,3,3.0
Be2Pd2La,0.0,-0.0241125,,3,3.0
H2KPd2,0.0,-0.0163533,,3,3.0
Al2Ca2I,0.0,-0.0150462,,3,3.0
Si4Lu3Au4,0.0,-0.0446903,,3,3.0
YInHg2,0.0,-0.0499003,,3,3.0
S2LaAu,2.5001,-0.0344016,,3,3.0
SnAu2U,0.0,-0.0696939,,3,3.0
F6RuPt,0.2955,-0.0172888,,3,3.0
SeBr2Ho2,0.0,-0.0332734,,3,3.0
SiLaPt2,0.0,-0.0495967,,3,3.0
O4Sb2ITm,1.2199,-0.0255801,,3,3.0
Li2P2Sr,0.3867,-0.0105352,,3,3.0
YIn2Ba,0.0,-0.0341589,,3,3.0
F6MgBi,0.0893,-0.0157386,,3,3.0
Al3Ti2Cu,0.0,-0.0122074,,3,3.0
O7P2CuCd,0.6263,-0.0119884,,3,3.0
ClFe2Tm2,0.0,-0.0303204,,3,3.0
N3NiGd,0.0,-0.0211985999999999,,3,3.0
AlLa2Os,0.0,-0.0418342,,3,3.0
Co2TmHf,0.0,-0.0376424999999999,,3,3.0
Si2Nb2Ta,0.0,-0.0312169,,3,3.0
O7La3Ta,3.9162,-0.0254235,,3,3.0
NiTcIr2,0.0,-0.0485176,,3,3.0
Cr3Nb2Ru,0.0,-0.0261183,,3,3.0
Ge2In3Dy3Os,0.0,-0.0399529,,3,3.0
O12Na3Ti2Nb2Dy,3.0127,-0.0146614,,3,3.0
CaRuSn,0.0,-0.0272657,,3,3.0
MgLa2,0.0,-0.0304835,,3,3.0
Al3Y3RhSn2,0.0,-0.0244933,,3,3.0
YRh4Hg,0.0,-0.0389014,,3,3.0
O7K2BaHf2,0.0,-0.0215733,,3,3.0
RuDy6Pb2,0.0,-0.0531589,,3,3.0
Li3O8Fe4W,0.0,-0.0141957,,3,3.0
MnY2Ru2,0.0,-0.0290923,,3,3.0
N2NaV,1.7582,-0.0110055999999999,,3,3.0
ScZnHg,0.0,-0.0324955,,3,3.0
MgScSn,0.0,-0.0188935,,3,3.0
In3Nd,0.0,-0.0365257,,3,3.0
YSbHf,0.0,-0.0434142999999999,,3,3.0
SBr2Pt,1.4827,-0.0299493,,3,3.0
P2CaCo2,0.0,-0.0138529,,3,3.0
Na2CaAg2,0.0,-0.0162399999999999,,3,3.0
MgCl3Cs,6.1821,-0.0155579,,3,3.0
O6SrNb2,3.9031,-0.0169783,,3,3.0
S3Tl2,0.0,-0.0347564,,3,3.0
O3Cs2Pu,0.0,-0.0364,,3,3.0
Sb2WTh6,0.0,-0.0803349,,3,3.0
Ca2TlBi,0.0,-0.043266,,3,3.0
LiO7As2Pr,4.0593,-0.0138963,,3,3.0
ZnLu2Au2,0.0,-0.0534035999999999,,3,3.0
Al3CoGe2Tm3,0.0,-0.0268144,,3,3.0
TiSe3Ba,0.0,-0.0248615999999999,,3,3.0
NaBa2Tl,0.0,-0.0392329,,3,3.0
SiRh2Pr2,0.0,-0.0337528,,3,3.0
GaAgTb2,0.0,-0.035843,,3,3.0
SnBaHg,0.0,-0.0486117,,3,3.0
P2Ni2Ce,0.0,-0.0205985,,3,3.0
Se6Nb2Pt,0.0,-0.0293162999999999,,3,3.0
HI2La2,0.0,-0.0338016,,3,3.0
YRhSn,0.0,-0.0335492,,3,3.0
Ru2LuHf,0.0,-0.0477351,,3,3.0
F6MoCd,0.0,-0.0132892,,3,3.0
F6Rb3Sm,6.73,-0.0162633,,3,3.0
N3TcEr,0.0,-0.0234137,,3,3.0
Si2Co2Ba,0.0,-0.0192200999999999,,3,3.0
Te5Cs2,0.2398,-0.0380777,,3,3.0
Al3Si2ZnZr3,0.0,-0.0171573,,3,3.0
CaGa3Ir,0.0,-0.0265761,,3,3.0
CrMn3Te4,0.0,-0.0281955,,3,3.0
Tb5Lu,0.0,-0.0481789,,3,3.0
Ta3Ir,0.0,-0.0683377,,3,3.0
CrGa3Ge2Nd3,0.0,-0.0269556,,3,3.0
Zn3Ir2Th,0.0,-0.046953,,3,3.0
Si2PdPr,0.0,-0.0249491,,3,3.0
Mg2SiCo2,0.0,-0.0110549999999999,,3,3.0
Ag4CdPb,0.0,-0.0385328,,3,3.0
CaGe2Ru,0.0,-0.0212474,,3,3.0
Ga3Nd2Ir,0.0,-0.0353724,,3,3.0
MgVRu2,0.0,-0.0233236,,3,3.0
ScSm3,0.0,-0.0368617,,3,3.0
O6ZnMoDy2,0.251,-0.0209319,,3,3.0
H6GaRbCs2,2.3809,-0.0135508,,3,3.0
NaAgPb2,0.0,-0.0469389,,3,3.0
B2O6MgSn,4.5415,-0.0118408,,3,3.0
Mg3Ca2Cu2,0.0,-0.0093020999999999,,3,3.0
CSi2Ni2Dy2,0.0,-0.0232508,,3,3.0
F6CaNi,2.5348,-0.008545,,3,3.0
Ni2RuDy3,0.0,-0.0355418,,3,3.0
S2LaSm,0.0,-0.0290509999999999,,3,3.0
Ge2PrAu,0.0,-0.0384341,,3,3.0
Co2In3Pa3,0.0,-0.0544078999999999,,3,3.0
GeTmPt,0.0,-0.0484162,,3,3.0
CuPdEu2,0.0,-0.0392322,,3,3.0
CrNi2Ir,0.0,-0.0306208,,3,3.0
Be4MnZn,0.0,-0.008349,,3,3.0
CoInLa3,0.0,-0.0363435,,3,3.0
SbThPu,0.0,-0.0816182,,3,3.0
SiMnTe4Cs2,1.1544,-0.0323501,,3,3.0
Cl2Se2Hg3,2.1404,-0.037708,,3,3.0
LiSiMnIr,0.0,-0.0261103,,3,3.0
Al2Si2Ce,0.0,-0.0163989,,3,3.0
Zn2In2Nd,0.0,-0.0279698,,3,3.0
K2GeCd,0.1873,-0.0167504,,3,3.0
Be2FeOs2,0.0,-0.0343412,,3,3.0
Sm2IrAu,0.0,-0.058209,,3,3.0
H2AlRb,1.2465,-0.009109,,3,3.0
F6K3Y,7.0709,-0.0109445,,3,3.0
F6RbHg,0.0,-0.0150792,,3,3.0
Rh3Sn2Pu,0.0,-0.047566,,3,3.0
B2CHoPt2,0.0,-0.0364891,,3,3.0
Co4Zn5,0.0,-0.015212,,3,3.0
AlGa3Ge2Tm3,0.0,-0.0284459,,3,3.0
KRhTl2,0.0,-0.0467499,,3,3.0
CaEuTl2,0.0,-0.0526576,,3,3.0
CuDyPb,0.0,-0.0468762,,3,3.0
RhSn5Ho,0.0,-0.0378258999999999,,3,3.0
O6Ca2HoTa,4.1943,-0.0206869,,3,3.0
LiPt5,0.0,-0.0592229,,3,3.0
CCr2,0.0,-0.0156986,,3,3.0
TiGeTa,0.0,-0.0344456,,3,3.0
Mg2Ba3Bi4,0.0,-0.0500349,,3,3.0
SbBaIr,0.0,-0.0500831,,3,3.0
O6CaEu2Ta,0.0,-0.0253904,,3,3.0
S2K2Mn,1.6904,-0.0121653,,3,3.0
LiBr2Tl,3.4679,-0.0296812,,3,3.0
Ge2Rh3U,0.0,-0.0410615,,3,3.0
H2O3Cl2Mo,2.6903,-0.0109459,,3,3.0
CaCd2Pt,0.0,-0.0358275,,3,3.0
Pd2GdTl,0.0,-0.0498211,,3,3.0
F7Na3Cu,0.0,-0.006985,,3,3.0
O6Y2Mo,3.889,-0.0173954,,3,3.0
S6Cl2Ag,0.0,-0.0117744,,3,3.0
BCCoTb,0.0,-0.0208223,,3,3.0
CuSnI4,0.0,-0.0332263999999999,,3,3.0
O3SiZn,4.0406,-0.0109095999999999,,3,3.0
BeAsTe2,0.0,-0.0247328,,3,3.0
Si2Nb3,0.0,-0.0245492,,3,3.0
PdTeI2,0.0,-0.0361425,,3,3.0
Ga5ZrIr,0.0,-0.0268074,,3,3.0
Li2NaBi2,0.0,-0.0336452999999999,,3,3.0
O8P2CuBa2,1.5815,-0.0154129,,3,3.0
ZnGa3Ge2La3,0.0,-0.0262718999999999,,3,3.0
CaGe2Ba2,0.0,-0.0259266,,3,3.0
O4WTl2,3.4354,-0.0358869,,3,3.0
NOSr6Sn2,0.0,-0.0233461,,3,3.0
LiN3Fe2Ba2,0.0,-0.0187695,,3,3.0
H8FeNi2Dy,0.0,-0.0106558,,3,3.0
Al2Zr3,0.0,-0.0219496,,3,3.0
GeCeAu2,0.0,-0.0512567,,3,3.0
Be4ZrMo,0.0,-0.0139904,,3,3.0
NiGe2Tb,0.0,-0.0260871999999999,,3,3.0
O7Ti2Mn2,0.0,-0.0128630999999999,,3,3.0
PdAc,0.0,-0.0623814,,3,3.0
H8Mg2RuGd,0.0,-0.0113487,,3,3.0
S2Cu2Rb,0.0,-0.0147631999999999,,3,3.0
O2Br4Cs2Pa,0.0,-0.0316252,,3,3.0
FeTc2Ru,0.0,-0.0307319,,3,3.0
InNd2Au,0.0,-0.048183,,3,3.0
Al2Se2Te,2.8676,-0.0194198999999999,,3,3.0
Sn7Tb3,0.0,-0.0397917,,3,3.0
MnILu,0.0,-0.037454,,3,3.0
B4Ru5Ce2,0.0,-0.0271929,,3,3.0
Si2PdDy,0.0,-0.0260322999999999,,3,3.0
HSeCe,0.0,-0.0242504999999999,,3,3.0
NaFe2As2,0.0,-0.0163735,,3,3.0
H6Cd2Os,3.014,-0.0170453,,3,3.0
Pt7Pu,0.0,-0.0754258,,3,3.0
MnSb2Tb6,0.0,-0.0421227999999999,,3,3.0
Cl6Ag3Tb,3.4256,-0.0201932,,3,3.0
YRu2Ho,0.0,-0.0370343999999999,,3,3.0
O2AlAu,0.8766,-0.0244625999999999,,3,3.0
Co3Ga2Pr,0.0,-0.0215808,,3,3.0
MgGe2Os,0.0,-0.028984,,3,3.0
MgAlTm2,0.0,-0.0293666,,3,3.0
Fe2Rh3Ba,0.0,-0.0296021,,3,3.0
FeAu4,0.0,-0.0589564999999999,,3,3.0
Cl2Ba,6.0014,-0.0213436999999999,,3,3.0
FRb3Te,2.831,-0.0224757,,3,3.0
Nb2Au,0.0,-0.0453637,,3,3.0
CaPt4Tl,0.0,-0.0611308999999999,,3,3.0
SAs3In4,0.0,-0.0257526,,3,3.0
AlCo2La,0.0,-0.021566,,3,3.0
Be2B2O6Ba,6.1797,-0.0121214,,3,3.0
Ni2Ta2Os,0.0,-0.0477997999999999,,3,3.0
MgZn4Pt,0.0,-0.0219484,,3,3.0
Al3RhSn2Nd3,0.0,-0.0296877,,3,3.0
CN2Cd,2.6959,-0.0147879,,3,3.0
MgCdPb,0.0,-0.0371199,,3,3.0
Al4LaCe,0.0,-0.0202729,,3,3.0
B2TbIr2,0.0,-0.0416589,,3,3.0
B2Rh3Nd,0.0,-0.0274034,,3,3.0
Al3Sn2Gd3Ir,0.0,-0.0389268,,3,3.0
Cu2Ga3Ce,0.0,-0.0211266999999999,,3,3.0
AlDyHg2,0.0,-0.048437,,3,3.0
LiCaBa,0.0,-0.0171733,,3,3.0
LiGa2Sn2,0.0,-0.0214202,,3,3.0
RuIn2Er,0.0,-0.0384166,,3,3.0
RhHgPb2,0.0,-0.0633625,,3,3.0
CuGa6Er,0.0,-0.0207694,,3,3.0
F6PtTl2,2.8218,-0.0280329,,3,3.0
P2CePt2,0.0,-0.0422738,,3,3.0
Te2Ho6Os,0.0,-0.0497438999999999,,3,3.0
GaTe3Pt2,0.0,-0.0452693,,3,3.0
O6NiSrLaTa,2.4878,-0.0215591,,3,3.0
CoGe2Hf6,0.0,-0.0484907,,3,3.0
PMoOs,0.0,-0.03942,,3,3.0
O5Se2La2Hf2,2.2411,-0.0291154,,3,3.0
As2SrRu2,0.0,-0.0272622,,3,3.0
H4Pd3Er,0.0,-0.0206443,,3,3.0
O3Sr2Cs2,2.6512,-0.0219547,,3,3.0
HfPt8,0.0,-0.0699317,,3,3.0
GaAu2Pa,0.0,-0.0640606,,3,3.0
MgGa3Er,0.0,-0.0213282,,3,3.0
Si3NiPu,0.0,-0.0317293,,3,3.0
Pd2PrPt3,0.0,-0.0540052,,3,3.0
Ca2Sn2Hg,0.0,-0.0324367999999999,,3,3.0
BFe4Nd,0.0,-0.020714,,3,3.0
CaMn2Ge2,0.0,-0.0173575,,3,3.0
Al5CaIr,0.0,-0.0176378,,3,3.0
H3MgCs,3.3527,-0.0109727,,3,3.0
LiMnSe2Cs,1.3637,-0.0210541,,3,3.0
ZnGeLa,0.0,-0.0260417999999999,,3,3.0
Fe3Se4Rb2,0.5236,-0.0201923,,3,3.0
Cl6Rb2Rh,0.0,-0.0150767,,3,3.0
O6TiNiPr2,2.0188,-0.018818,,3,3.0
Pd2HoPb,0.0,-0.0483440999999999,,3,3.0