formula,bg,formation_energy,mp-id,fidelity,bg_category
Rh2LaHg,0.0,-0.0452022,,3,3.0
LiRh,0.0,-0.0182937,,3,3.0
NaK2Cs,0.0,-0.014641,,3,3.0
ScY2Ru2,0.0,-0.0282896,,3,3.0
Pt3Au4,0.0,-0.0694946,,3,3.0
CHf2Pb,0.0,-0.0535564,,3,3.0
MnInPu,0.0,-0.0538754,,3,3.0
O4TiTa,0.0,-0.0210328,,3,3.0
PdTb,0.0,-0.0407762,,3,3.0
O6Ba2GdHf,0.0,-0.0270966,,3,3.0
Ga3PdSm2,0.0,-0.0292505,,3,3.0
Si2CeOs,0.0,-0.0349047,,3,3.0
O3ClTiHo,3.5794,-0.0186868,,3,3.0
Ga2Y,0.0,-0.0210038,,3,3.0
Li2AuTl,0.0,-0.0370479,,3,3.0
OCa3Tl,0.0,-0.0231304,,3,3.0
Ga3Ge2Zr3Rh,0.0,-0.0244193,,3,3.0
S2TeHg,0.4639,-0.0310789,,3,3.0
O4SbIr,0.0,-0.0233801999999999,,3,3.0
AlSiHf2,0.0,-0.0364022,,3,3.0
NaP2Pd2,0.0,-0.0186874,,3,3.0
In3Te2,0.0,-0.0351927999999999,,3,3.0
MgP4Co6,0.0,-0.0142233,,3,3.0
Al3ZnSr,0.0,-0.012085,,3,3.0
Ca2NiIr,0.0,-0.0269453,,3,3.0
AlSb2Er6,0.0,-0.0433493,,3,3.0
Si4Ag4Tm3,0.0,-0.0296312,,3,3.0
O6Ni2InSb,0.7603,-0.0155783,,3,3.0
MnPrPt4,0.0,-0.0579665,,3,3.0
RbZrTe3Au,0.0187,-0.0396378,,3,3.0
MgY2Ir,0.0,-0.0335364,,3,3.0
Mg2BaIr2,0.001,-0.0386473,,3,3.0
CuInTh,0.0,-0.048558,,3,3.0
SBrZr,0.0,-0.0216501,,3,3.0
O4Zn3Cd,0.4762,-0.0134467,,3,3.0
ZnGa2Hg,0.0,-0.0284695,,3,3.0
GaSnEu2,0.0,-0.0405427,,3,3.0
KZn2Ag,0.0,-0.0167331,,3,3.0
GeBrSm,0.0,-0.0290055,,3,3.0
Sc6PdTe2,0.0,-0.0222608,,3,3.0
F2Mn2Te,0.0,-0.0179573,,3,3.0
Al4ScNi,0.0,-0.010804,,3,3.0
CaNiGe2,0.0,-0.0166057999999999,,3,3.0
NaAs2Pd2Ho,0.0,-0.0273823,,3,3.0
In4SmIr,0.0,-0.0420384,,3,3.0
OCdSbPu,0.0,-0.0473721999999999,,3,3.0
AlPdCe,0.0,-0.0292129,,3,3.0
CsPtHg3,0.0,-0.062885,,3,3.0
Ge3NdTa,0.0,-0.0340329,,3,3.0
SbSm2,0.0,-0.042983,,3,3.0
KRb3Au,0.0,-0.0280872,,3,3.0
Ba3Hg,0.0,-0.0470542,,3,3.0
Al2CuMo,0.0,-0.0167106,,3,3.0
NTi2Co,0.0,-0.0156913,,3,3.0
SNbI,0.0,-0.0274363,,3,3.0
ZnCe2Os2,0.0,-0.0495899,,3,3.0
O7Ge2NdEu,0.4182,-0.0188588999999999,,3,3.0
Ag5La,0.0,-0.0335302,,3,3.0
LiAs2Rh2Th,0.0,-0.0353599,,3,3.0
O6FeSr2Hf,0.0,-0.0192381,,3,3.0
B2CPd2Tb,0.0,-0.0234751,,3,3.0
RbAu4Pb6,0.0,-0.0685261,,3,3.0
AgSn2Gd,0.0,-0.0409849,,3,3.0
MgPr2Pb2,0.0,-0.049371,,3,3.0
LiPY2,0.0,-0.0179814,,3,3.0
ZnGaPu2,0.0,-0.0626172,,3,3.0
NBrHf,2.1896,-0.0323936,,3,3.0
BSm2Ir6,0.0,-0.0587455,,3,3.0
Al3Ge2Sm,0.0,-0.0179612,,3,3.0
ScZr7,0.0,-0.0285806,,3,3.0
CuZn2Lu,0.0,-0.0247896,,3,3.0
Tc2Hf,0.0,-0.0447063,,3,3.0
GaIr2Ac,0.0,-0.0628548,,3,3.0
CoCeBi,0.4261,-0.0473019,,3,3.0
Al6CoCe,0.0,-0.013903,,3,3.0
GeRhHo,0.0,-0.0350138,,3,3.0
Na2Pd2Cd,0.0,-0.0210583,,3,3.0
F6Cs3Er,6.9409,-0.0220456,,3,3.0
Al2Pd3Sm,0.0,-0.0273973,,3,3.0
S2CuCdCs,2.5093,-0.0213894,,3,3.0
Cu2GaTm,0.0,-0.0251133999999999,,3,3.0
Al5Co2Pu,0.0,-0.0232482,,3,3.0
NaCaI3,3.8591,-0.0264133,,3,3.0
Si2Sc2Pt,0.0,-0.0249298,,3,3.0
H3CoTh,0.0,-0.0251584,,3,3.0
B2LaOs2,0.0,-0.0408758,,3,3.0
BrTl,2.3288,-0.0468064,,3,3.0
PCoTb2,0.0,-0.0311313,,3,3.0
Ga2Ru3Tb,0.0,-0.0310365,,3,3.0
S2AgCdCs,2.4577,-0.024605,,3,3.0
AsCe,0.0,-0.0339552,,3,3.0
Zr5Rh,0.0,-0.0315065,,3,3.0
Co4MoW,0.0,-0.0288241,,3,3.0
F6ScNd,7.616,-0.0140919,,3,3.0
MgTbHg,0.0,-0.0405892,,3,3.0
N2YTa,0.0,-0.0298063,,3,3.0
H2Ti2Nb,0.0,-0.0146792,,3,3.0
I3Sm2,0.5505,-0.0410591,,3,3.0
CuGaTb2,0.0,-0.031737,,3,3.0
AlTm2Ir2,0.0,-0.051917,,3,3.0
Sc5Tl,0.0,-0.0241431,,3,3.0
CdSm2Pt2,0.0,-0.0530922,,3,3.0
Cl2SeLu2,0.0,-0.0313135,,3,3.0
N2NbTb,0.0,-0.0261495,,3,3.0
O5Ca2Ti2,0.0,-0.0123375,,3,3.0
GePd3,0.0,-0.0298162999999999,,3,3.0
O4SCa,6.7954,-0.0098524999999999,,3,3.0
Mg2ScRu,0.0,-0.0150311,,3,3.0
HLi2MnAs,0.0,-0.0098337,,3,3.0
GaPm2Os,0.0,-0.0443918,,3,3.0
Si4Pd4Er3,0.0,-0.030297,,3,3.0
CrSe3Rb2,0.0,-0.021055,,3,3.0
ZrPt2Au,0.0,-0.0610575,,3,3.0
O4F2TiNbCs,3.0499,-0.0163053999999999,,3,3.0
H2Ga2Gd,0.0,-0.0201033,,3,3.0
GaSrPt2,0.0,-0.0456533,,3,3.0
Fe2SbPm,0.0,-0.0293512999999999,,3,3.0
O6Sr2RuTb,0.7046,-0.0190601,,3,3.0
Ag2CdLa2,0.0,-0.036238,,3,3.0
MgSe2Sr,2.7308,-0.0186790999999999,,3,3.0
Mg2SrLa,0.0,-0.0189166,,3,3.0
F2RbTl,3.4448,-0.0272485,,3,3.0
LiSiLu,0.0,-0.0231919,,3,3.0
Na4SSe,2.7884,-0.0090096,,3,3.0
Ca2AuTl,0.0,-0.0409563,,3,3.0
Al2NiDy,0.0,-0.0205735999999999,,3,3.0
AlY2Pb,0.0,-0.0354926,,3,3.0
Ni2Rh3Pr,0.0,-0.0298569999999999,,3,3.0
Si4Co4Ho3,0.0,-0.0239715,,3,3.0
P3Cu4Tl,0.0,-0.0205318,,3,3.0
Si2DyIr2,0.0,-0.0432406,,3,3.0
Br3Eu3Bi,0.0,-0.0443596,,3,3.0
FeNi8,0.0,-0.0164665,,3,3.0
O3TiAc,0.0,-0.0285569,,3,3.0
YRhTl,0.0,-0.0453528,,3,3.0
K2Br6AuHg,0.0,-0.0279746,,3,3.0
O4MnCu2Te2Bi2,0.0,-0.02859,,3,3.0
Zr5Lu,0.0,-0.0348065,,3,3.0
Cl6K3Sb,3.6579,-0.0126187,,3,3.0
Al3NiEr,0.0,-0.0186033,,3,3.0
SiCo2Ge,0.0,-0.0162317,,3,3.0
InHoPt,0.0,-0.0520662999999999,,3,3.0
CoGe3Y,0.0,-0.0210594,,3,3.0
PKIn2,0.0,-0.0216195,,3,3.0
In3Er3Au2,0.0,-0.0495658,,3,3.0
AgIn2Nd,0.0,-0.0359359,,3,3.0
PCl2Ho2,0.0,-0.0270339,,3,3.0
ZnCe2Tl,0.0,-0.0440591,,3,3.0
AlZn2Gd,0.0,-0.0237983,,3,3.0
AlPK,0.9093,-0.0094392,,3,3.0
S3Ag2In,0.0,-0.0211277,,3,3.0
Be2AlRu2,0.0,-0.0179377,,3,3.0
Si4Cu4Nb5,0.0,-0.0210365,,3,3.0
ZnSr2La,0.0,-0.0254074,,3,3.0
BCa2Pd6,0.0,-0.0255485,,3,3.0
Au4Tl,0.0,-0.0697841,,3,3.0
NHo2Tl,0.0,-0.0461313,,3,3.0
Li2F6Nb,0.0,-0.0097094,,3,3.0
Fe2InHf,0.0,-0.0332382,,3,3.0
ZnSrSn2,0.0,-0.0273935,,3,3.0
Cl2Nd,0.4602,-0.022131,,3,3.0
BeNb2,0.0,-0.0236327,,3,3.0
AlTiMnRu,0.0,-0.0199063,,3,3.0
Fe2NbSn,0.0,-0.0263176,,3,3.0
Si2Ga3Sr2,0.0,-0.0166051,,3,3.0
LiAs2Ru2Th,0.0,-0.0354688,,3,3.0
Si2Hf2Pt,0.0,-0.0441555,,3,3.0
Ga3Pd2Er,0.0,-0.0283061,,3,3.0
TiMoW2,0.0,-0.0476216,,3,3.0
Li2InAu2,0.0,-0.0358343,,3,3.0
LiBeAs,1.344,-0.0095472,,3,3.0
TiMnTe4,0.0,-0.0310871,,3,3.0
BaLa2Os,0.0,-0.0495278,,3,3.0
P2Pd2Dy,0.0,-0.0278374999999999,,3,3.0
CuRhBa2,0.0,-0.0321992,,3,3.0
Li5O3F2Ni,0.3248,-0.0070867,,3,3.0
CoSbEr,0.0,-0.0356315,,3,3.0
CoSrY3,0.0,-0.0246135,,3,3.0
Sc2Co3Ni,0.0,-0.0164552,,3,3.0
Co2Th,0.0,-0.0435208,,3,3.0
LiF6GaRb2,7.2221,-0.0111807,,3,3.0
O6SbBa2Eu,0.1108,-0.0234475,,3,3.0
Co2CuHo2,0.0,-0.0297087,,3,3.0
Nb5Bi4,0.0,-0.0534088,,3,3.0
P4ScRh6,0.0,-0.0244701999999999,,3,3.0
Ge2RhBa,0.0,-0.0285831,,3,3.0
Ca2YPt,0.0,-0.0300457,,3,3.0
S6CrMn3,0.0,-0.0139341,,3,3.0
ZnGa3Ge2Lu3,0.0,-0.0302822999999999,,3,3.0
P4Cu2Zn2Pr3,0.0,-0.0217805,,3,3.0
MgZnRh2,0.0,-0.0219798,,3,3.0
SiBrCe,0.0,-0.0259937,,3,3.0
Pd2PmTl,0.0,-0.0461368999999999,,3,3.0
TiSbGd,0.0,-0.0381628,,3,3.0
CrRh2Au,0.0,-0.0388023,,3,3.0
CuTh2,0.0,-0.0690094,,3,3.0
Cu3Ga5Sm2,0.0,-0.0221959,,3,3.0
AlFe2Tm2,0.0,-0.0297193,,3,3.0
FeNb2,0.0,-0.0280882,,3,3.0
P2Os2Th,0.0,-0.0529791,,3,3.0
Al5KSr5,0.0,-0.0145241,,3,3.0
BeTi,0.0,-0.0103482,,3,3.0
ZnPdAc2,0.0,-0.0573237,,3,3.0
Rb2AgBi,1.0277,-0.0382299,,3,3.0
SiCu2Pr,0.0,-0.0213622,,3,3.0
SbHg3,0.0,-0.0604093,,3,3.0
O5MnAsBi,1.4235,-0.0200780999999999,,3,3.0
PGeAsCd,0.5584,-0.0201474,,3,3.0
Sc2ZnTc,0.0,-0.0196480999999999,,3,3.0
SiP2Zn,1.5297,-0.0114693,,3,3.0
NiAsHo,0.0,-0.0295918999999999,,3,3.0
RuAgTm2,0.0,-0.0429699,,3,3.0
O3ScIn,2.8646,-0.0160217,,3,3.0
NiRh2In,0.0,-0.0294333,,3,3.0
Ru2HfPt,0.0,-0.0513023,,3,3.0
O6Sr2PrW,0.0,-0.022455,,3,3.0
H12N4F4Si,5.6194,-0.0060409,,3,3.0
H6N2Cl2Cd,4.0873,-0.0084776,,3,3.0
H3TbOs,0.0,-0.0263031,,3,3.0
O8Cs3Tm,0.0,-0.0193768,,3,3.0
CrFe3Dy2,0.0,-0.0280155999999999,,3,3.0
NaAuTl2,0.0,-0.0547466,,3,3.0
O6Sr2RhPt,0.0,-0.0203711,,3,3.0
Na3Mn4Te6,0.0,-0.0244928,,3,3.0
B3C4Lu4,0.0,-0.0264969,,3,3.0
SiS4Cu2Ba,1.1698,-0.0158408999999999,,3,3.0
KPtTl,0.0,-0.0505422,,3,3.0
LiCdBa,0.0,-0.0243446,,3,3.0
Ti2Ir,0.0,-0.0352631999999999,,3,3.0
AlCu2Y,0.0,-0.0169605,,3,3.0
GeLa2Ir3,0.0,-0.0539729,,3,3.0
B2Rh3Ce,0.0,-0.0275875999999999,,3,3.0
Li5Sr4,0.0,-0.0111635,,3,3.0
ZrRu,0.0,-0.0335691,,3,3.0
MgTmTl2,0.0,-0.0507211,,3,3.0
O7Cd2Ta2,3.5964,-0.0239919,,3,3.0
O10Cl5Te4Bi3,2.7567,-0.0232501,,3,3.0
InEr2Hg,0.0,-0.0511953,,3,3.0
Al3GeNd2,0.0,-0.0222315,,3,3.0
F6NaRb2In,6.3139,-0.0129838,,3,3.0
O4ClGdBi2,1.2652,-0.0331834,,3,3.0
O4Cu2Se2Sb2Lu,0.0,-0.0220301,,3,3.0
O7CuBrNb2La,0.0,-0.0181875999999999,,3,3.0
NiIn2Er,0.0,-0.0338506,,3,3.0
CCr2Ir2,0.0,-0.0379853,,3,3.0
AlBrTm,0.0,-0.0274399,,3,3.0
O2K5CuSe,1.5676,-0.0111907999999999,,3,3.0
TcTb3,0.0,-0.0438881999999999,,3,3.0
F6RuTm,0.7404,-0.0165569,,3,3.0
MgCoLa,0.0,-0.021724,,3,3.0
Si3TmIr,0.0,-0.0314223,,3,3.0
MgTc2Cd,0.0,-0.0263996999999999,,3,3.0
COAlCe,0.0,-0.0188151,,3,3.0
Pd2InEr,0.0,-0.0382256,,3,3.0
BMgPt2,0.0,-0.038854,,3,3.0
SiCu2,0.0,-0.013473,,3,3.0
PdSn2,0.0,-0.0352359999999999,,3,3.0
Ni2PdEr3,0.0,-0.0366639,,3,3.0
AsTeSm,0.2753,-0.0353093,,3,3.0
O8Rb3Pr,0.0,-0.0143031,,3,3.0
C4RhBa3,0.0,-0.0242745,,3,3.0
C4Sc3Ru,0.0,-0.0153184,,3,3.0
FeSe4Nb2,0.0,-0.0242761,,3,3.0
Li2Mg2Ge2La,0.0,-0.0142338,,3,3.0
Pd3SbPb2,0.0,-0.0482113999999999,,3,3.0
LiO3Bi,1.0125,-0.021164,,3,3.0
CaZn4Ba,0.0,-0.0173782,,3,3.0
O6RhBa2Eu,0.0,-0.0227621,,3,3.0
H4NiDy,0.0,-0.0135071999999999,,3,3.0
TiCuTe3Tl,0.0,-0.0363853,,3,3.0
Se2SnEu,0.0845,-0.0337036,,3,3.0
Cl3KIn,2.4001,-0.0146994,,3,3.0
Cu2CdBa,0.0,-0.0251759999999999,,3,3.0
LiF6Mn,0.0,-0.0076564,,3,3.0
S3CsHfAu,1.1171,-0.0343871,,3,3.0
Zr2Mo,0.0,-0.0320849,,3,3.0
C6Sr,0.0,-0.0119159,,3,3.0
AlNi6Cu,0.0,-0.0152015,,3,3.0
O4KTc,3.7025,-0.013286,,3,3.0
BeSiCo2,0.0,-0.0128375,,3,3.0
Al5Ca2,0.0,-0.0085564,,3,3.0
S3KCrCu,0.0,-0.0127432,,3,3.0
C3Cr2Tm2,0.0,-0.0248163,,3,3.0
MgAlEr,0.0,-0.0213340999999999,,3,3.0
Al3Fe2Th,0.0,-0.0262363,,3,3.0
RbYTe2,1.567,-0.0323655,,3,3.0
MoHf2Re,0.0,-0.0580512,,3,3.0
ZnAgCd2,0.0,-0.0264239,,3,3.0
P2S7RbIn,2.388,-0.0135847,,3,3.0
O6FeBa2Er,0.628,-0.0212766,,3,3.0
CdPbBi,0.0,-0.0615391,,3,3.0
Al5CrHo,0.0,-0.0154504,,3,3.0
F4SrCd,4.9085,-0.0144231,,3,3.0
Ni3GeTb2,0.0,-0.0274319,,3,3.0
Ge2PdSm,0.0,-0.0297354,,3,3.0
P2ScSe6Ag,1.6636,-0.019301,,3,3.0
Pd2In3Pr3,0.0,-0.0377553,,3,3.0
O6MgPdEr2,2.5106,-0.020314,,3,3.0
F6NaCrTl2,3.2455,-0.0215297,,3,3.0
LiRuAc2,0.0,-0.0545892,,3,3.0
OFSn2I,1.5978,-0.0250057,,3,3.0
Sc4Cd3,0.0,-0.0214231,,3,3.0
ClAsNd2,0.0,-0.0305664,,3,3.0
O5S2Zr2La2,2.6612,-0.0214466,,3,3.0
Rb2YI6,0.0,-0.033549,,3,3.0
N2NaFe,0.0,-0.0103089,,3,3.0
ZnNbPt,0.0,-0.03958,,3,3.0
O5Se2Zr2Gd2,1.8571,-0.0260196,,3,3.0
F8BaSm2,7.7885,-0.0186092,,3,3.0
O6Cr2Th,0.0,-0.0216971,,3,3.0
Be2Mo2Ru,0.0,-0.0228113,,3,3.0
SiBrGd,0.0,-0.0307148,,3,3.0
Br6Rb2SbAu,0.0,-0.0274831,,3,3.0
S2BaHg,1.3268,-0.0330765,,3,3.0
Zn2PdIn,0.0,-0.0235562,,3,3.0
ClRb,5.5693,-0.0165187,,3,3.0
LiNBa3,0.0,-0.0264017,,3,3.0
Mg2YRu,0.0,-0.0183873,,3,3.0
PZr2In,0.0,-0.0272613,,3,3.0
Y2In3Sn3,0.0,-0.0334814,,3,3.0
YPdCd2,0.0,-0.0309994,,3,3.0
Al3Sm2Au,0.0,-0.0309683,,3,3.0
O4GaSrLa,3.8092,-0.0182486,,3,3.0
ScTmTl2,0.0,-0.0531587,,3,3.0
O6V2Zn,2.4332,-0.011875,,3,3.0
SrPd2In2,0.0,-0.0315963,,3,3.0
RbAuHg3,0.0,-0.0591161,,3,3.0
As2IrTh2,0.0,-0.0619894,,3,3.0
Mg2S8Cr3Co,1.2266,-0.0125502,,3,3.0
LiPdSnHg,0.0,-0.035203,,3,3.0
MnSb2Np,0.0,-0.0500886,,3,3.0
Si2Ti2Au,0.0,-0.0249292,,3,3.0
InPrHg2,0.0,-0.0538133,,3,3.0
OBrPa,0.0,-0.0442923,,3,3.0
BeGeTb,0.0,-0.0241448,,3,3.0
CuRh2Sm2,0.0,-0.0350129999999999,,3,3.0
Na3Cl6Ho,6.0858,-0.0131766,,3,3.0
PdIn2Dy,0.0,-0.0376054,,3,3.0
In5Hg4,0.0,-0.0487867,,3,3.0
Si3PtNp,0.0,-0.0419166,,3,3.0
ZnInPt2,0.0,-0.0473428,,3,3.0
H2NiSnPr,0.0,-0.0210976,,3,3.0
Li4O10TiV3,0.3673,-0.0104675,,3,3.0
CSiMn3,0.0,-0.0153321,,3,3.0
Al3Ge2Sr3Pt,0.0,-0.0227254,,3,3.0
P2NiZr6,0.0,-0.0254714999999999,,3,3.0
Al3Ge2La3Pt,0.0,-0.0299365999999999,,3,3.0
Al2S4Hg,2.5667,-0.0184233,,3,3.0
Si3PdDy,0.0,-0.0228131,,3,3.0
Br6Rb2Ce,1.52,-0.0244204,,3,3.0
HOClK2,4.3689,-0.0086004,,3,3.0
AsRhTe,0.6217,-0.0310178,,3,3.0
BO4Hf,0.0,-0.0187061,,3,3.0
RhPdBi,0.0,-0.048517,,3,3.0
Te2CsPb2,0.0,-0.0533476,,3,3.0
Co2Y2I,0.0,-0.0259636,,3,3.0
O5AlSiCa,0.7059,-0.0103638,,3,3.0
O6FeCdBa2,0.0,-0.0184681,,3,3.0
Al7Fe5Lu,0.0,-0.0158496,,3,3.0
O8MgCo4,0.0,-0.0111059,,3,3.0
H6OsPu2,0.0,-0.0350217,,3,3.0
HSNp,0.0,-0.0409857,,3,3.0
Cl2SnNd2,0.0705,-0.0295538999999999,,3,3.0
OTi3Nb,0.0,-0.0186711,,3,3.0
MgAl3Tb2,0.0,-0.0207181,,3,3.0
Se2CsAu3,1.7461,-0.0481245,,3,3.0
N4ZnNb2,0.0328,-0.0174446,,3,3.0
Ga2PdIn,0.0,-0.025041,,3,3.0
F6Na2Sc,0.0,-0.0080048999999999,,3,3.0
Cu4Se4Hf,1.4936,-0.0231842,,3,3.0
AgHg2Pb,0.0,-0.0607966,,3,3.0
BZn2Pd6,0.0,-0.0261023,,3,3.0
Si3CuNd2,0.0,-0.0228615,,3,3.0
Sc3Zn2Pt,0.0,-0.0241575999999999,,3,3.0
H8Mn2FeSr,0.308,-0.0090187,,3,3.0
Be2Zr2Cd,0.0,-0.0203562,,3,3.0
FCs2Au,3.4463,-0.0386268,,3,3.0
Sn2CsBi2,0.0,-0.053573,,3,3.0
GeSr2Ir3,0.0,-0.0466049999999999,,3,3.0
F6RhCs,0.2041,-0.0136347,,3,3.0
LiScAg,0.0,-0.0161832,,3,3.0
OCl2V,1.0067,-0.0117878,,3,3.0
InDy2Au2,0.0,-0.0545041999999999,,3,3.0
O6FeNiPr2,0.5701,-0.0184832,,3,3.0
NHf3Ir,0.0,-0.0550889,,3,3.0
BrHg3,0.0,-0.0561637,,3,3.0
P2PdPa,0.0,-0.0392729,,3,3.0
O7Rb2CeTa2,0.0,-0.0248404,,3,3.0
Mg2PI,1.3664,-0.0151335999999999,,3,3.0
Ge2Hf2Ta,0.0,-0.0467324,,3,3.0
ZnLa5,0.0,-0.0382944,,3,3.0
Si2ZnPa,0.0,-0.0334493,,3,3.0
Sc2GaPt,0.0,-0.0298645999999999,,3,3.0
TbHg2Tl,0.0,-0.0642568,,3,3.0
H4Ti2Rh,0.0,-0.0118836,,3,3.0
Al3GaEu2,0.0,-0.0249717,,3,3.0
KBr3Pd,0.0,-0.020892,,3,3.0
Ti2Co2La,0.0,-0.022106,,3,3.0
Br2SnSm2,0.0,-0.0342703,,3,3.0
ZnZr2Os,0.0,-0.0372556999999999,,3,3.0
Co2InNd2,0.0,-0.0312924,,3,3.0
Co2Lu2Tl,0.0,-0.0438726,,3,3.0
HTi2SbTa,0.0,-0.0282684,,3,3.0
LiAl2Rh2,0.0,-0.0180314,,3,3.0
C2O6CdNd,0.0,-0.0150246999999999,,3,3.0
B2O6ClYBa2,4.6866,-0.0171355,,3,3.0
Co2In3Tb3,0.0,-0.0347721999999999,,3,3.0
LiPdHo2,0.0,-0.0337769,,3,3.0
Si2CdCe2,0.0,-0.0284992,,3,3.0
KIn2Pb,0.0,-0.0378765,,3,3.0
SiRh2Hf,0.0,-0.0361635,,3,3.0
Li2BeIr,0.0,-0.0204042,,3,3.0
Ag2PtAu,0.0,-0.0505747,,3,3.0
B4FeTm,0.0,-0.0172826,,3,3.0
C2ITm2,0.0,-0.032873,,3,3.0
Fe4Mo,0.0,-0.0214605,,3,3.0
Al4ScTa2,0.0,-0.0258642,,3,3.0
Cu3Ga2La,0.0,-0.0205857999999999,,3,3.0
Na2K2Cs,0.0,-0.0124985,,3,3.0
Ni2SrIr,0.0,-0.03163,,3,3.0
GaSm,0.0,-0.0310604,,3,3.0
O6CrGeSb,1.6532,-0.0144041,,3,3.0
Ga5Sm2Au3,0.0,-0.0384554,,3,3.0
B4ScY,0.0,-0.0126985,,3,3.0
CScNi3,0.0,-0.0148164,,3,3.0
MnFe4Nb,0.0,-0.0207803,,3,3.0
Al4NiCe,0.0,-0.0158081,,3,3.0
Cl3Tb2,0.8167,-0.0255661999999999,,3,3.0
Pd2CdPr2,0.0,-0.0373231,,3,3.0
Zn2Th,0.0,-0.0412901,,3,3.0
Cd5Pu,0.0,-0.0436323999999999,,3,3.0
F3La,7.4668,-0.0179191,,3,3.0
C2IHo2,0.0,-0.0317593,,3,3.0
CoGe3Pa,0.0,-0.0352073,,3,3.0
V2MnRu,0.0,-0.0223539,,3,3.0
Pd2Sn2Dy,0.0,-0.0377845999999999,,3,3.0
Sn2TmIr,0.0,-0.0493986,,3,3.0
SRbTe2,0.0,-0.0266008,,3,3.0
Sm3Pt2Hg,0.0,-0.0580833,,3,3.0
CaSe2Ta,0.0,-0.0300488,,3,3.0
FeCo2Ni,0.0,-0.0173045,,3,3.0
O8S2NiRb,0.2303,-0.0104617,,3,3.0
BeFe2,0.0,-0.0136363,,3,3.0
Ni2Ga5Zr,0.0,-0.0185987,,3,3.0
SeLu2,0.0,-0.0447516,,3,3.0
Be4ReOs,0.0,-0.027103,,3,3.0
Ga2Ir3Th,0.0,-0.0577955,,3,3.0
Sr2AgTl,0.0,-0.0374987,,3,3.0
AgTe3BaEr,0.8468,-0.0402085,,3,3.0
F7Na3Al,1.93,-0.0071166,,3,3.0
AlScCuPd,0.0,-0.0182576,,3,3.0
O6CdBa2Ir,0.6053,-0.0237094,,3,3.0
NAgTb2,0.0,-0.0346213,,3,3.0
Y2AgTl,0.0,-0.0404094,,3,3.0
MgPb3,0.0,-0.0581349,,3,3.0
O6MgPr2Hf,4.6019,-0.0227876,,3,3.0
LiTi2Rh2,0.0,-0.0210529,,3,3.0
H2RbPd2,0.0,-0.0188297999999999,,3,3.0
YBaPb2,0.0,-0.0554888,,3,3.0
Ti6MnPb2,0.0,-0.0297564,,3,3.0
Al4Si2Nd3,0.0,-0.0207655,,3,3.0
SmPt2Au,0.0,-0.0644245,,3,3.0
CrNiPd2,0.0,-0.025108,,3,3.0
S4BrSnBi2,0.0,-0.0317306,,3,3.0
NiIn6,0.0,-0.0309031,,3,3.0
F5CuCs2,0.0575,-0.0159709,,3,3.0
Na2Ga2Se3,1.7967,-0.015452,,3,3.0
Y2ZrPt2,0.0,-0.0465337,,3,3.0
BaAuHg2,0.0,-0.0618714,,3,3.0
MgLu3Ir2,0.0,-0.0530702,,3,3.0
Al5CrLu,0.0,-0.0163451999999999,,3,3.0
S2K2Cu,0.0,-0.0111205,,3,3.0
OSc3Ir,0.0,-0.0258729,,3,3.0
Se2Cd,1.0382,-0.0239545,,3,3.0
Sc2Zn3,0.0,-0.0142034,,3,3.0
F12Sb2Ba,5.1352,-0.0132095,,3,3.0
SiRh2Lu2,0.0,-0.0387753999999999,,3,3.0
Se4Rh3,0.0,-0.0263933,,3,3.0
Ni4ZnY,0.0,-0.0180269,,3,3.0
SbBa2,0.0,-0.0397584999999999,,3,3.0
AlSiRu2,0.0,-0.0227465,,3,3.0
BaHg2Tl2,0.0,-0.064526,,3,3.0
F5CoCs2,1.0269,-0.0164899999999999,,3,3.0
Br2Y2Te,0.0,-0.028036,,3,3.0
AlSe2Tl,0.692,-0.0309125,,3,3.0
PAs2,0.8316,-0.0168652,,3,3.0
Al3NiSn2Dy3,0.0,-0.0290067,,3,3.0
Cu4TaPt,0.0,-0.0331423,,3,3.0
Al7Cu2Sm3,0.0,-0.0187158,,3,3.0
AlGa2Tb,0.0,-0.0223433,,3,3.0
F6PbPa,1.2629,-0.0279119,,3,3.0
Al4FeHf,0.0,-0.0189411,,3,3.0
MnZn2Ce,0.0,-0.0226952,,3,3.0
ZrRu2Er,0.0,-0.0383626,,3,3.0
Li2O8MgMn3,1.7992,-0.0105481,,3,3.0
Cd2LaPt2,0.0,-0.0496980999999999,,3,3.0
InHo2Tl,0.0,-0.0514858,,3,3.0
NGaNb2,0.0,-0.0237339,,3,3.0
NGaSm3,0.0,-0.0328256,,3,3.0
O6FeNiSr2,0.0,-0.0137339,,3,3.0
H3TiNi,0.0,-0.008879,,3,3.0
PtAuAc2,0.0,-0.0811364,,3,3.0
BeAlIr2,0.0,-0.0395672,,3,3.0
ScZn2La,0.0,-0.0214927,,3,3.0
SClW,1.3394,-0.0298733,,3,3.0
LiCaSn4,0.0,-0.0262854,,3,3.0
MgS2Cs2,3.467,-0.0214831,,3,3.0
CuInPa,0.0,-0.0494305,,3,3.0
BAl2Ru2Er,0.0,-0.0245693,,3,3.0
Al3CoSn2Gd3,0.0,-0.0327117,,3,3.0
Pd2Cd3Nd,0.0,-0.0339129,,3,3.0
H3CoHf,0.0,-0.0184744999999999,,3,3.0
CaIn6Ir4,0.0,-0.0452284,,3,3.0
Zn8Pt,0.0,-0.0199758999999999,,3,3.0
ZnNb2,0.0,-0.0266861,,3,3.0
AlFe3Gd2,0.0,-0.0299556,,3,3.0
NNb,0.0,-0.022453,,3,3.0
Ga3Ho2Re,0.0,-0.0369478,,3,3.0
S2Cl12Os,0.3038,-0.0127652,,3,3.0
NOIn2Sm6,0.0,-0.0362877999999999,,3,3.0
LiAs2YIr2,0.0,-0.0363223,,3,3.0
NiTmBi,0.3131,-0.0496552,,3,3.0
B2TiTc2,0.0,-0.0207863,,3,3.0
Si2ErPt2,0.0,-0.043424,,3,3.0
MgNiAu2,0.0,-0.0402563,,3,3.0
Al2YDy,0.0,-0.0232164,,3,3.0
CuAs2Pu,0.0,-0.041998,,3,3.0
AsCsEu,0.1444,-0.0381773,,3,3.0
Eu2Tl,0.0,-0.060368,,3,3.0
Al9Co3Sm2,0.0,-0.0155794,,3,3.0
RuRh2Pr3,0.0,-0.0391909,,3,3.0
AlCo3Y2,0.0,-0.0194317,,3,3.0
FeCuIr2,0.0,-0.0439551,,3,3.0
Ni2SbIr,0.0,-0.0352411,,3,3.0
F6Cs2Pr,0.0,-0.018805,,3,3.0
AgInCe,0.0,-0.0368562999999999,,3,3.0
KSrBa,0.0,-0.0233144,,3,3.0
P2SrEuPt2,0.0,-0.0408453,,3,3.0
Sc2SePb,0.0,-0.0322753,,3,3.0
EuIrPb5,0.0,-0.0721653,,3,3.0
Sr2CdPt,0.0,-0.0369557,,3,3.0
S6Ti3Ir,0.0,-0.0190015,,3,3.0
NaGa4Sr,0.0,-0.0156874,,3,3.0
SiMn3Tm2,0.0,-0.0282557,,3,3.0
O2CuRb3,1.6961,-0.0161136,,3,3.0
CaSmPb,0.0,-0.0439142999999999,,3,3.0
BNCoEu,0.0,-0.0227756,,3,3.0
LiLa3Os,0.0,-0.0408445,,3,3.0
LiBa2Tl2,0.0,-0.0456385,,3,3.0
AlCo2Th,0.0,-0.03485,,3,3.0
P2CoHf6,0.0,-0.0468262,,3,3.0
Cu4Rh5,0.0,-0.0254155,,3,3.0
Se2PdHg,0.0,-0.035454,,3,3.0
Cu3Ho2,0.0,-0.029012,,3,3.0
Pt3U,0.0,-0.0792097,,3,3.0
Cl2Se2Tm,1.2914,-0.0232299,,3,3.0
Al2Ti2Ta,0.0,-0.0230764,,3,3.0
MnZnHf2,0.0,-0.0395115,,3,3.0
FeAs2Hf2,0.0,-0.0375364999999999,,3,3.0
GeZrDy,0.0,-0.0332883,,3,3.0
ZnBaAu2,0.0,-0.0485184,,3,3.0
CuZrPt,0.0,-0.0395439999999999,,3,3.0
Cl6SbCs2,0.0,-0.0193923999999999,,3,3.0
CuBrPr,0.0,-0.0270759,,3,3.0
HAlEuPb,0.0637,-0.0356504,,3,3.0
S4MnTa2,0.0,-0.0282159,,3,3.0
Co2WPt,0.0,-0.0437406,,3,3.0
S4Zr3,0.0,-0.0204513,,3,3.0
O8Cl2KCs,6.5292,-0.0101057,,3,3.0
Si2Os3Pu,0.0,-0.057908,,3,3.0
Be2F8NaRb3,7.6508,-0.0106561,,3,3.0
Co4Ga4Y3,0.0,-0.0203039,,3,3.0
OBa3Hg,0.0,-0.0399457,,3,3.0
O5Se2Eu2Hf2,0.0,-0.0307337,,3,3.0
O4Mn2Zn,0.9361,-0.0127451,,3,3.0
CI5Ho4,0.0,-0.0401897,,3,3.0
MgSrIn2,0.0,-0.0239366999999999,,3,3.0
RhCdTm,0.0,-0.0393904,,3,3.0
H8B2Mg,7.2508,-0.0045834,,3,3.0
Co2InNd,0.0,-0.0281258,,3,3.0
F6NaCoRb2,2.8132,-0.0112182,,3,3.0
GaBr6RbCs2,2.8037,-0.0244717,,3,3.0
OsIr8,0.0,-0.0711944,,3,3.0
MgAg2Cd,0.0,-0.0247112,,3,3.0
O4VBi,2.3282,-0.0222298,,3,3.0
CoGa3Ta2,0.0,-0.0335653999999999,,3,3.0
CTb2Pb,0.0,-0.0454823,,3,3.0
Na2Pb,0.0,-0.0283397,,3,3.0
Li2F8YZr,1.3651,-0.0114077,,3,3.0
O4Na4W,2.7271,-0.0142461,,3,3.0
FSe2SbEu,0.0,-0.0287757,,3,3.0
C2O6CoNd,1.1196,-0.0136916,,3,3.0
MgTm2Os,0.0,-0.045439,,3,3.0
O7P2Sn,4.8895,-0.0123056,,3,3.0
Co3Ni,0.0,-0.0170301,,3,3.0
Cu2InPt,0.0,-0.0337311,,3,3.0
MoW4,0.0,-0.0627305,,3,3.0
HAlCaGe,0.6166,-0.0105196,,3,3.0
CoGeTe3,0.0,-0.0297196,,3,3.0
Cr2As2Eu,0.0,-0.0267066,,3,3.0
Co3Se4Cs2,1.1619,-0.0237592,,3,3.0
Al3Cr,0.0,-0.0106272,,3,3.0
F6Rb2Tm,0.0,-0.0160066,,3,3.0
O4ErTa,4.4328,-0.0272162,,3,3.0
PCuPt,0.0,-0.0321577,,3,3.0
Al,0.0,-0.0077514,,3,3.0
Co4Sn2Dy3,0.0,-0.0318852,,3,3.0
ZnAgTm,0.0,-0.0326278,,3,3.0
PCaMn,0.0,-0.0136317,,3,3.0
NiNdPb,0.0,-0.0457046,,3,3.0
ZnTb3,0.0,-0.0386089,,3,3.0
Al4Gd,0.0,-0.018224,,3,3.0
Se3BaSmAu,1.4092,-0.0372841,,3,3.0
S2SrAg2,1.2622,-0.021882,,3,3.0
CaPd2Eu,0.0,-0.032895,,3,3.0
Si3Er,0.0,-0.0204163,,3,3.0
O6Ba2BiPa,2.6585,-0.0323553,,3,3.0
AlTiZnRu,0.0,-0.0186276,,3,3.0
MnZn4,0.0,-0.0145291999999999,,3,3.0
BeRb4Bi2,0.7248,-0.0352395,,3,3.0
BeRh2Re,0.0,-0.036212,,3,3.0
Ca2IHg,0.0,-0.0317819,,3,3.0
O7V2Y2,0.4376,-0.0154646,,3,3.0
BNi3,0.0,-0.014146,,3,3.0
CdSn2La2,0.0,-0.0384903,,3,3.0
NaNbTe2,0.6743,-0.0286687,,3,3.0
MgSe4Sm2,2.0002,-0.0267347,,3,3.0
Al2CaSr,0.0,-0.0120646,,3,3.0
ScI4Cs2,0.0,-0.0353057,,3,3.0
NaMgCl6Cs2,0.0,-0.0151612,,3,3.0
Ca2SrBa,0.0,-0.020256,,3,3.0
O9Na2Ca3Ta2,4.1687,-0.0171298,,3,3.0
CoSe2,0.0,-0.0194925,,3,3.0