formula,bg,formation_energy,mp-id,fidelity,bg_category
Ti2MoRu,0.0,-0.0259028,,3,3.0
Ca2Se2In,0.0,-0.0200208,,3,3.0
CoITh,0.0,-0.0506779,,3,3.0
S3SrAgNd,1.9329,-0.0228408,,3,3.0
B2Fe2U,0.0,-0.0311457,,3,3.0
MgAg2Sm,0.0,-0.0283739,,3,3.0
GaZr6Sb2,0.0,-0.0313028,,3,3.0
AlCeAu2,0.0,-0.0485327,,3,3.0
Ba2Au2Bi,0.0,-0.060069,,3,3.0
O7Si2ScHf,0.3309,-0.016042,,3,3.0
Ag5Ba,0.0,-0.032888,,3,3.0
CoTe2La6,0.0,-0.0397077,,3,3.0
O4ClCu2As,0.0,-0.0114101999999999,,3,3.0
O3Ti2,0.0,-0.0133204,,3,3.0
O5SiCd3,1.4305,-0.0165895,,3,3.0
Cu3Se4Ta,1.7402,-0.0246185,,3,3.0
SbIrNp,0.0,-0.0721517,,3,3.0
Al2PmDy,0.0,-0.0272245,,3,3.0
Li2CuRh,0.0,-0.013574,,3,3.0
CYRh3,0.0,-0.028414,,3,3.0
PPb2,0.0,-0.0538958,,3,3.0
LiRhDy2,0.0,-0.0335151,,3,3.0
AgLa2Os,0.0,-0.0475955999999999,,3,3.0
LiNdTl2,0.0,-0.0481826,,3,3.0
O4CaSn2,1.653,-0.0172429999999999,,3,3.0
CCoDy,0.0,-0.0254104,,3,3.0
B2Hf2Ir,0.0,-0.0433029999999999,,3,3.0
KScCu2Sb2,0.0,-0.0218254,,3,3.0
O6CaSr2Mo,2.6799,-0.0155812,,3,3.0
O2SSc2,2.4095,-0.0134786,,3,3.0
Ru2CeHo,0.0,-0.0412369,,3,3.0
CSiTi2,0.0,-0.0138996,,3,3.0
Cd2PtAu,0.0,-0.0503301,,3,3.0
AlGaNd2,0.0,-0.0283181,,3,3.0
BeYAu3,0.0,-0.0487128999999999,,3,3.0
KSb2Hg,0.0,-0.0380106,,3,3.0
HCa2Ba,0.0,-0.0157852,,3,3.0
BeRh2,0.0,-0.0244197,,3,3.0
NiIn2Nd,0.0,-0.032164,,3,3.0
SeI2Dy2,0.0,-0.0394747,,3,3.0
N2W,1.3121,-0.0297487,,3,3.0
NSc3Ru,0.0,-0.0184768,,3,3.0
Li3O6V2,0.4904,-0.0097489,,3,3.0
BeCl2Hg,0.177,-0.023247,,3,3.0
ScGe2Ru2,0.0,-0.0250536999999999,,3,3.0
Co2SbTa,0.0,-0.0347147,,3,3.0
Li2O8P2Cr,0.0,-0.0096418,,3,3.0
Al2In3Tm3,0.0,-0.0343537,,3,3.0
B2N4Eu3,0.0,-0.0249391999999999,,3,3.0
HNi3Ge,0.0,-0.0144246,,3,3.0
Al3Ge2La2,0.0,-0.0216569,,3,3.0
Cl3Ag,0.8852,-0.0140715,,3,3.0
Al9Tm2Ir3,0.0,-0.0286313,,3,3.0
Be2MgPd2,0.0,-0.0165004999999999,,3,3.0
Li2Se3Te,0.2753,-0.0177791,,3,3.0
Mg2InAu2,0.0,-0.0369382,,3,3.0
SiOs2,0.0,-0.0514859,,3,3.0
CrI2,0.0,-0.0311345,,3,3.0
F6CaV,0.8019,-0.0095436999999999,,3,3.0
F6GaTl3,3.4704,-0.0277147,,3,3.0
F6K2Zr,6.4246,-0.0112822,,3,3.0
NClY2,0.0,-0.0200565,,3,3.0
Ga3Ge2Sm3Ir,0.0,-0.0333207,,3,3.0
ZnBa2Ir2,0.0,-0.04722,,3,3.0
CdLa2Au,0.0,-0.0471398,,3,3.0
H6CrLa2,0.0,-0.01447,,3,3.0
Li2F6Zr,7.4628,-0.0099542,,3,3.0
Sc2ZnAg,0.0,-0.0187648,,3,3.0
Zr3Au5,0.0,-0.055523,,3,3.0
F5BaTb,7.2755,-0.0191705,,3,3.0
MgPbTh,0.0,-0.0592727,,3,3.0
PNiOs,0.0,-0.0331526,,3,3.0
NSnTm3,0.0,-0.0413703999999999,,3,3.0
RbTe2Tl,0.2943,-0.0425157,,3,3.0
S2CsEr,2.4874,-0.0289559,,3,3.0
Ga3Lu3Au2,0.0,-0.0450212,,3,3.0
MnCo2Hf,0.0,-0.0293032,,3,3.0
H4CuSr,0.0,-0.0088597,,3,3.0
BeTe,2.2049,-0.0212462,,3,3.0
H4O5NaTeCs,3.975,-0.0116928,,3,3.0
NiGa3,0.0,-0.0165261999999999,,3,3.0
CrFeCo2,0.0,-0.0177496,,3,3.0
Sc2Cu,0.0,-0.0147748,,3,3.0
PSr2Rh,0.0,-0.0230353999999999,,3,3.0
AlPd2Ho2,0.0,-0.0352452,,3,3.0
Y3Ru2Ag,0.0,-0.0312098,,3,3.0
NiSe3RbNb,0.0,-0.0226118999999999,,3,3.0
MgScPb,0.0,-0.0321329,,3,3.0
C3Al2Th2,0.0014,-0.0343597,,3,3.0
SrY2Ag,0.0,-0.0274417,,3,3.0
Si2Ga2Ba,0.0,-0.0187865,,3,3.0
LiAs2Ru2La,0.0,-0.0267321999999999,,3,3.0
Sc2HgPb,0.0,-0.0436965999999999,,3,3.0
NaAsPt,0.0,-0.0320239,,3,3.0
RbPd4Tl6,0.0,-0.0534382,,3,3.0
F6SiMn,4.4064,-0.0093862,,3,3.0
Se2AgCe,0.0326,-0.0303719,,3,3.0
PITl3,0.0,-0.0528084,,3,3.0
Ca3PdSn2Tl3,0.0,-0.0395103,,3,3.0
AlRu2U2,0.0,-0.0572742999999999,,3,3.0
Tl3Bi,0.0,-0.0739341,,3,3.0
Al2CoGd,0.0,-0.0233997,,3,3.0
F6CuSb,0.0,-0.0113148,,3,3.0
Cl3GaPr3,0.0,-0.0261009,,3,3.0
H6RhLa2,0.0,-0.0162277999999999,,3,3.0
ScSrPb,0.0,-0.0380343,,3,3.0
GePd2Ce,0.0,-0.033165,,3,3.0
P2ErOs2,0.0,-0.0438472,,3,3.0
Si4Tb3Os4,0.0,-0.0432638,,3,3.0
FePt7,0.0,-0.063831,,3,3.0
SbTb5Au2,0.0,-0.0521225,,3,3.0
MnNbRh2,0.0,-0.0302548,,3,3.0
GaAgTm,0.0,-0.0337723,,3,3.0
N2CaNp,0.0,-0.0350792,,3,3.0
AlCe2Au2,0.0,-0.0478119,,3,3.0
Al2TcTa,0.0,-0.0297494,,3,3.0
H3NaCa,2.3407,-0.0052946,,3,3.0
F5AlMn,3.5671,-0.0096603,,3,3.0
Sn2Sm2Tl,0.0,-0.0473036,,3,3.0
Sn2CeEr,0.0,-0.0423802999999999,,3,3.0
B12C2Mg,2.4194,-0.0078361,,3,3.0
PK2Pd,0.0,-0.0154534,,3,3.0
Si2MoTa2,0.0,-0.0380715,,3,3.0
Ru2SbLu,0.0,-0.0412145,,3,3.0
Ge3SrPd,0.0,-0.0231038,,3,3.0
K2CoBr6,0.0,-0.0177844,,3,3.0
Al3Y3Sn2Pt,0.0,-0.0285987,,3,3.0
ZnGd2Tl,0.0,-0.0513502999999999,,3,3.0
NaS2RbCd,1.9886,-0.0160215,,3,3.0
CaLaHg2,0.0,-0.0480480999999999,,3,3.0
Si3Ni2Pr,0.0,-0.01826,,3,3.0
NGaTm3,0.0,-0.0374069,,3,3.0
S2BrIn,0.6462,-0.0183978,,3,3.0
LiNNi3,0.0,-0.0121865,,3,3.0
Cl6KGaCs2,4.0432,-0.0166817,,3,3.0
Ge2PdIn3Sm3,0.0,-0.0346584999999999,,3,3.0
SrPt4Hg,0.0,-0.0624476999999999,,3,3.0
CaNiSe2,1.0691,-0.0176748,,3,3.0
CuBr4Rb2I2,0.2297,-0.0240535999999999,,3,3.0
NClHo,1.7702,-0.0240301,,3,3.0
Be2Mo2W,0.0,-0.0298390999999999,,3,3.0
NiAgAu2,0.0,-0.0464531,,3,3.0
S3KMnAg,0.0,-0.0152264,,3,3.0
RbAg2Sb,0.5818,-0.0303331,,3,3.0
HCl2Ho,4.8432,-0.0190852,,3,3.0
O3AlPu,0.0,-0.0305211,,3,3.0
NaCuSe3Tb,0.0,-0.0223182,,3,3.0
Si2Os2U,0.0,-0.0540026,,3,3.0
F6Rb2Hf,8.1437,-0.017603,,3,3.0
CuMoRh,0.0,-0.0280131,,3,3.0
MgHfPt,0.0,-0.0468814,,3,3.0
Be2ScRh2,0.0,-0.0189503,,3,3.0
INdTl,0.259,-0.0519371,,3,3.0
Cu2RhTb,0.0,-0.0281041,,3,3.0
HLiO3La2,2.3752,-0.0186602999999999,,3,3.0
Al5ScFe,0.0,-0.0105458,,3,3.0
AlTi6Bi2,0.0,-0.0292786,,3,3.0
GaTm6Bi2,0.0,-0.0544316,,3,3.0
O6SbBa2Ce,0.0325,-0.0226725999999999,,3,3.0
CoAs2Tm6,0.0,-0.0417008,,3,3.0
Si4Mo3,0.0,-0.0210808,,3,3.0
MnRu2Pr2,0.0,-0.0351068,,3,3.0
Co2CuTm3,0.0,-0.0345235,,3,3.0
OLa4Bi2,0.0,-0.0495515,,3,3.0
Li2ZrPd2,0.0,-0.0206912,,3,3.0
MnSbPa,0.0,-0.0519798,,3,3.0
HCo3Ge,0.0,-0.0148831,,3,3.0
V2NiSe4,0.0,-0.0194212,,3,3.0
Mg2BaPb2,0.0,-0.0407854,,3,3.0
Mg2Cd2Pb,0.0,-0.029393,,3,3.0
OClAgPb,0.8954,-0.0311183,,3,3.0
O6Ca2RhOs,0.0,-0.0182192,,3,3.0
ZnSnSm,0.0,-0.0319725,,3,3.0
AgSnTm2,0.0,-0.0432911,,3,3.0
HBr2Ba,5.1369,-0.0223241,,3,3.0
F6S2GeCd3,2.7331,-0.0144634,,3,3.0
SPu2,0.0,-0.0776902,,3,3.0
CuAs2Pb,0.0,-0.0327554,,3,3.0
Cu2Au,0.0,-0.033248,,3,3.0
Be5Zn,0.0,-0.0058430999999999,,3,3.0
KTe3HfPt,0.0,-0.0430425,,3,3.0
CaBi,0.0,-0.0449583,,3,3.0
RuLa6Pb2,0.0,-0.050042,,3,3.0
Si4Sc3Cu4,0.0,-0.0136445,,3,3.0
F6HoPu,0.0,-0.0264686,,3,3.0
F8Na2SrEr,0.0,-0.0125706,,3,3.0
GeRh2Pm,0.0,-0.0332906,,3,3.0
Si2Co2Th,0.0,-0.0308318,,3,3.0
TiMo2Ta,0.0,-0.0382257,,3,3.0
F6PrEu,0.0,-0.0186749,,3,3.0
LiCu2In,0.0,-0.0166786,,3,3.0
Li2NiRh,0.0,-0.013814,,3,3.0
Ti2As,0.0,-0.0183541999999999,,3,3.0
CoLa3Bi,0.0,-0.0455882,,3,3.0
O2CaBrBi,3.7055,-0.0260589,,3,3.0
AlSi2Dy2,0.0,-0.0254284,,3,3.0
HMnNi2Cu,0.0,-0.0139844,,3,3.0
O7Pt2Bi2,1.1191,-0.0319736,,3,3.0
O4MnSr2,0.6187,-0.0153698,,3,3.0
LiMgPt,0.0,-0.0266031,,3,3.0
LiMgCu2,0.0,-0.0095185,,3,3.0
Fe4ZrW,0.0,-0.0287905,,3,3.0
CuSbTe,0.0,-0.0298861,,3,3.0
CaRh,0.0,-0.0220621,,3,3.0
F7Na3Ca,0.0,-0.0069142,,3,3.0
KPd2Hg2,0.0,-0.0422397,,3,3.0
Ga6SmPt,0.0,-0.0272273,,3,3.0
MgZnAu2,0.0,-0.0397201,,3,3.0
RbTl2Pb2,0.0,-0.063582,,3,3.0
FeNi4Tm,0.0,-0.0227022,,3,3.0
CuTe2Er6,0.0,-0.0442227,,3,3.0
H5CuSr2,1.958,-0.0100781,,3,3.0
Ge2Ag2Th,0.0,-0.0397321,,3,3.0
S3Cu3BrTe,0.9339,-0.0166084999999999,,3,3.0
O2MgClBi,4.1463,-0.0226756,,3,3.0
LiSi2Y2,0.0,-0.0163223999999999,,3,3.0
B10NiTh2,0.0,-0.0223231,,3,3.0
RhSn4Au2,0.0,-0.0453498,,3,3.0
CaRh2La2,0.0,-0.0333108,,3,3.0
YHgTl2,0.0,-0.0605962,,3,3.0
F6K2ScCu,1.4597,-0.0098332,,3,3.0
Li2F8CaSm,0.0,-0.0107657,,3,3.0
N2TiCr,0.0,-0.0147061,,3,3.0
Ge2CsPt3,0.0,-0.048197,,3,3.0
MgPbPu,0.0,-0.063756,,3,3.0
InSnIr,0.0,-0.0471016,,3,3.0
H2La3Pb,0.0,-0.0359911,,3,3.0
Si5Ca2Pt3,0.0,-0.0289643,,3,3.0
Ga3Ge2Tb3Au,0.0,-0.0337699,,3,3.0
Mn3Ni,0.0,-0.0176892999999999,,3,3.0
Se3RbAgEr,0.0,-0.0283776,,3,3.0
O3PrDy,3.9032,-0.0256671,,3,3.0
O6NiBa2Gd,0.0,-0.0215807,,3,3.0
N2CuNd2,0.0,-0.0254093,,3,3.0
GaAuNp,0.0,-0.0645,,3,3.0
Cd2InPb2,0.0,-0.0490672,,3,3.0
KCoTe3Hf,0.0,-0.0341109,,3,3.0
Al2KGa2,0.0,-0.0113644,,3,3.0
Sb2EuPb2,0.0,-0.056445,,3,3.0
LiK2Bi2,0.0,-0.0356289,,3,3.0
O6MnZnTm2,2.3954,-0.0202287,,3,3.0
Ga2RuCe,0.0,-0.0287259,,3,3.0
HgTl4,0.0,-0.0714947,,3,3.0
YPb2Ac,0.0,-0.068142,,3,3.0
N2Ca2Pt,0.0,-0.0225019999999999,,3,3.0
ScIr7,0.0,-0.0644018,,3,3.0
H3LiCo,0.0,-0.0063025,,3,3.0
F6NiGd,0.0,-0.0150516,,3,3.0
MnCu4Y,0.0,-0.0180408,,3,3.0
SrSbTm,0.0,-0.0380145,,3,3.0
Al3CaFe,0.0,-0.0104491999999999,,3,3.0
Cu2Ge2Lu,0.0,-0.0253065,,3,3.0
Sn2La3,0.0,-0.0410796,,3,3.0
F6GaPt,1.3582,-0.0154589999999999,,3,3.0
H8O4Cl2Fe,1.2922,-0.0068395999999999,,3,3.0
ClCo2Nd2,0.0,-0.026735,,3,3.0
NiCd5,0.0,-0.0279834999999999,,3,3.0
Si2Ga3Tm3Pt,0.0,-0.0336465,,3,3.0
O3TbTm,5.2713,-0.0273495999999999,,3,3.0
O8Co5,0.0,-0.0118084,,3,3.0
Ga3Ho,0.0,-0.0251063,,3,3.0
Mo2Tm,0.0,-0.0404806,,3,3.0
SiZnBa,0.0,-0.0214410999999999,,3,3.0
F6MnPd,1.1633,-0.0112278,,3,3.0
CRh2Ba,0.0,-0.0293504,,3,3.0
KBr6Rb2In,3.0935,-0.0215248,,3,3.0
SmTl,0.0,-0.0589883,,3,3.0
MgEuAu2,0.0,-0.0501036,,3,3.0
MnHf6Pb2,0.0,-0.0608575,,3,3.0
AlFe4Tm,0.0,-0.0221585,,3,3.0
B2O6CaY,0.0,-0.0119622,,3,3.0
P2KCo2,0.0,-0.0133192,,3,3.0
F6CdLa,0.0,-0.0147523,,3,3.0
Co4ZrAu,0.0,-0.0283931,,3,3.0
O4MnSe,0.5205,-0.0117809,,3,3.0
ClSeMo,1.1129,-0.0218084,,3,3.0
B4Er,0.0,-0.0166649,,3,3.0
Zn2PmHg,0.0,-0.0351539,,3,3.0
Rh2La3Tl3,0.0,-0.0524211,,3,3.0
GeU2,0.0,-0.0756041,,3,3.0
MgSnPm2,0.0,-0.0327207,,3,3.0
Zn3Ru2La,0.0,-0.0257459,,3,3.0
Al2ScMn,0.0,-0.0124618,,3,3.0
Mg2SiCu3,0.0,-0.0112132,,3,3.0
NaP2CePt2,0.0,-0.0360956,,3,3.0
OAs2Rb2Y2,0.1688,-0.0222612999999999,,3,3.0
Cl2SeSm2,0.0,-0.0271463,,3,3.0
ScIn3,0.0,-0.0290187999999999,,3,3.0
Br2Cd2Hg,0.8131,-0.0340933,,3,3.0
NiCuAs2,0.0,-0.0181373999999999,,3,3.0
F7Rb3La,0.0,-0.0149594,,3,3.0
Ge4Ba3Ir4,0.0,-0.0442012,,3,3.0
Zn3ZrAu2,0.0,-0.0353492,,3,3.0
ClAgHg2,0.5684,-0.0441762,,3,3.0
ScRu2In,0.0,-0.0296277,,3,3.0
HO4NaSe,4.0154,-0.0086911,,3,3.0
Se2CdHf,0.0,-0.0342694,,3,3.0
ZrDy3,0.0,-0.0434334,,3,3.0
Ni3Cu2Eu,0.0,-0.0222057,,3,3.0
F6Na3In,5.9938,-0.0095941,,3,3.0
NMn2Zn,0.0,-0.0151905,,3,3.0
SiPd3Dy2,0.0,-0.0349438,,3,3.0
F4AgCs2,0.6538,-0.0195996,,3,3.0
ClScFe,0.0,-0.0145311,,3,3.0
ScDyPb2,0.0,-0.0539767,,3,3.0
Ru2CdHo3,0.0,-0.0417035,,3,3.0
Na2PdBi,0.0,-0.0302887999999999,,3,3.0
Li3AsIn,0.0,-0.012471,,3,3.0
Ca2GaPb,0.0,-0.0284817999999999,,3,3.0
Al4PrGd,0.0,-0.0227264,,3,3.0
MnRh2Pm,0.0,-0.0330288,,3,3.0
Sn2PmSm,0.0,-0.0408413,,3,3.0
Al7Ag2Er3,0.0,-0.0228299,,3,3.0
Al2CdTb3,0.0,-0.0314549,,3,3.0
Cu2AgHf2,0.0,-0.0375823,,3,3.0
H2Ca2Tl,0.0,-0.020317,,3,3.0
Si2Lu,0.0,-0.0255856,,3,3.0
F6MnHg,2.7982,-0.0156775,,3,3.0
OIPr,4.073,-0.0317022,,3,3.0
MgAl2Ca2,0.0,-0.0081382,,3,3.0
FeGa5Np,0.0,-0.029736,,3,3.0
N6V2Y3,0.0,-0.0174691,,3,3.0
PrHg2Ac,0.0,-0.0681828,,3,3.0
SBrTb,3.1437,-0.0275302,,3,3.0
O2Sc2Bi,0.0,-0.0266956,,3,3.0
TmIrPb,0.0,-0.0669628,,3,3.0
CuGaSe4Sn,0.5664,-0.0215557,,3,3.0
Li5Se4Bi,1.525,-0.0181807,,3,3.0
Cu4SnHo,0.0,-0.0245250999999999,,3,3.0
Mg2SrPt3,0.0,-0.041396,,3,3.0
N2ZrNd,0.0,-0.0250626,,3,3.0
S8Mo6Ba,0.0,-0.0227293999999999,,3,3.0
Ga5YPt,0.0,-0.0263646,,3,3.0
OZnY3,0.0,-0.022103,,3,3.0
PCa3Cd,0.0,-0.0146206,,3,3.0
P5Pr,0.0212,-0.0165249999999999,,3,3.0
MnCoGaPt,0.0,-0.0311802999999999,,3,3.0
Se3RbAgHo,0.0,-0.0281543,,3,3.0
Mn2HgTh2,0.0,-0.0593413,,3,3.0
O2Cl2Cd3,1.6873,-0.0183394,,3,3.0
CoGa6Ba,0.0,-0.0196879999999999,,3,3.0
ZnSrAg4,0.0,-0.0269637,,3,3.0
H4KCo,0.0,-0.0066661,,3,3.0
ZnPdLu2,0.0,-0.0400094,,3,3.0
Co2Sn7Tb3,0.0,-0.0359993,,3,3.0
SiCrMn2,0.0,-0.0165639,,3,3.0
Sm6IrBi2,0.0,-0.0557624,,3,3.0
NaGePm2,0.0,-0.0281151,,3,3.0
SiHo2Pt3,0.0,-0.0544587999999999,,3,3.0
Cu4CdLu,0.0,-0.0247207,,3,3.0
Na2AgBi,0.595,-0.0299237,,3,3.0
O5S2Cr2Cu2Sr3,0.6378,-0.0153689,,3,3.0
SiCu2Tm,0.0,-0.0235615,,3,3.0
NiAs2La2,0.0,-0.0299392,,3,3.0
CuPt4,0.0,-0.0592655,,3,3.0
HTeDy,1.8183,-0.0307751,,3,3.0
SiWOs,0.0,-0.0507633,,3,3.0
Co4ZnSm,0.0,-0.0211962,,3,3.0
NaSnPt,0.0,-0.0373667,,3,3.0
BNRhPa,0.0,-0.038693,,3,3.0
Ni4ZnPr,0.0,-0.0204943,,3,3.0
SiSr2Ir2,0.0,-0.0400131,,3,3.0
O6Sr2YPd,0.0,-0.0166458,,3,3.0
Li2Sb2Ce,0.3665,-0.0255778,,3,3.0
BCaPd2,0.0,-0.0212772,,3,3.0
F7Na3Hf,6.999,-0.0125978,,3,3.0
MnGa3Tb2,0.0,-0.0274481,,3,3.0
I2Eu,0.8907,-0.0441559,,3,3.0
PPd5Tb,0.0,-0.0323959,,3,3.0
P2Ni2Hf,0.0,-0.0240682,,3,3.0
AlCl6GaCs2,3.4399,-0.0165283,,3,3.0
SbI2Lu2,0.0,-0.0455244,,3,3.0
NiCdIn2,0.0,-0.0283993,,3,3.0
Be2Rh,0.0,-0.0148901,,3,3.0
Fe5Np,0.0,-0.0327644999999999,,3,3.0
Ca3Cu2Zn2As4,0.0518,-0.0160331,,3,3.0
Cl2Sr,5.9381,-0.0155173,,3,3.0
BMg2Rh2,0.0,-0.0175447,,3,3.0
CoPb2Pa6,0.0,-0.0852017,,3,3.0
Sc5Mo,0.0,-0.0175362,,3,3.0
Cl2AsLu2,0.0,-0.031366,,3,3.0
As2RhTb,0.0,-0.0313096,,3,3.0
HScPd3,0.0,-0.0239468,,3,3.0
H2O12Mg3Si4,5.948,-0.0093361,,3,3.0
KTiMnSe3,0.0,-0.0183703,,3,3.0
Ga2Zr2Pd,0.0,-0.0262096,,3,3.0
Ti3ZnPd2,0.0,-0.0216508,,3,3.0
F3Na2Ag,2.1406,-0.0107087,,3,3.0
Sn2IBa2,0.0,-0.0386271,,3,3.0
ZnGeNd2,0.0,-0.0305229,,3,3.0
Cl2RbTl,4.2522,-0.0288732,,3,3.0
ScLa2Hg2,0.0,-0.0478853999999999,,3,3.0
AsSnTl,0.0,-0.0428587,,3,3.0
Li5O5Zr,0.0,-0.0090932999999999,,3,3.0
FeGa3Ge2Y3,0.0,-0.0216914,,3,3.0
CoTb6Pb2,0.0,-0.050374,,3,3.0
B2O7In2Eu,0.0,-0.0172145,,3,3.0
Li5PS4Br2,3.1265,-0.009583,,3,3.0
Al2CeHo,0.0,-0.0276233,,3,3.0
BO5PCa,6.0519,-0.0102592,,3,3.0
Ga2Y2Au,0.0,-0.0323992,,3,3.0
Ge2PdIn3Pr3,0.0,-0.0342856,,3,3.0
RbAg2Sn2,0.0,-0.0311562,,3,3.0
GeI2Ba3,0.0,-0.0365279,,3,3.0
AsSeLa2,0.0,-0.0336753,,3,3.0
CuI6Cs2Pr,2.1967,-0.036764,,3,3.0
O3CoZr,1.3595,-0.0159481,,3,3.0
Si4Er3Au4,0.0,-0.0433793,,3,3.0
Ti2FeMo,0.0,-0.021381,,3,3.0
MnZr2Ir2,0.0,-0.0452748,,3,3.0
Si4NbMo,0.0,-0.0184656999999999,,3,3.0
PdPr3,0.0,-0.0411181,,3,3.0
AlCl3Y3,0.0,-0.0180457,,3,3.0
AgTe3Cs,0.2028,-0.0366431,,3,3.0
GeEuIr,0.0,-0.0487849,,3,3.0
H2Sm,0.0,-0.0178808,,3,3.0
MgIn2Er2,0.0,-0.0349892,,3,3.0
NiTe2Cs2,0.8815,-0.0340363,,3,3.0
Ni4PrHg,0.0,-0.0295737999999999,,3,3.0
NiCu2Tc,0.0,-0.0203388,,3,3.0
Li4O8CrNi3,0.0,-0.0097573,,3,3.0
Se4TaTl3,2.3019,-0.0461412,,3,3.0
Mg2PrSm,0.0,-0.0245484,,3,3.0
C2Al2TiNb3,0.0,-0.0195062,,3,3.0
In2PrEu,0.0,-0.0415657,,3,3.0
ScZr2Sb2,0.0,-0.0308384,,3,3.0
N6Mn2Ce3,0.0,-0.0219136999999999,,3,3.0
O4SbTm,2.6896,-0.0216359,,3,3.0
O2Y2Cd,0.0,-0.0224132,,3,3.0
Ti2Zr2Tl,0.0,-0.0332224999999999,,3,3.0
NiPd2Cd,0.0,-0.0282103,,3,3.0
MgY2Ag2,0.0,-0.0250531,,3,3.0
S3CaAgTm,1.9768,-0.0220327,,3,3.0
LiBaTl3,0.0,-0.0521486,,3,3.0
N2YNd,0.2362,-0.024318,,3,3.0
ZnSb2Ba2,0.3931,-0.0343391,,3,3.0
GaSb,0.0946,-0.0269716,,3,3.0
O2RbDy,4.2814,-0.0232422,,3,3.0
Al9KNi2,0.0,-0.0095408,,3,3.0
N2ErTm,0.3698,-0.03231,,3,3.0
AgTe2Dy,1.0521,-0.0394095,,3,3.0
Li4O3F4Ni3,0.3745,-0.0087938,,3,3.0
Li3O10Co2Cu3,0.0,-0.009525,,3,3.0
Pt5Au4,0.0,-0.0696387,,3,3.0
Ni2TmTl,0.0,-0.0395173,,3,3.0
S2AgTb,1.6147,-0.0258707,,3,3.0
Rh2Gd2Pb,0.0,-0.0529617999999999,,3,3.0
Cu2ZnAg,0.0,-0.0188076,,3,3.0
CuAs2Tb,0.0,-0.0265225,,3,3.0
ZnY,0.0,-0.0211377,,3,3.0
KSr3Hg,0.0,-0.0289089999999999,,3,3.0
F4AgAu,1.1429,-0.0203488,,3,3.0
K4ZnSb2,1.2761,-0.01785,,3,3.0
MgGa2Os,0.0,-0.0276225999999999,,3,3.0
Be4AlCu,0.0,-0.0068364,,3,3.0
Si2ScTc2,0.0,-0.0214905,,3,3.0
LiP2CePt2,0.0,-0.035832,,3,3.0
O8P2TiPr,0.9964,-0.0138751,,3,3.0
CuGdPt2,0.0,-0.0544183,,3,3.0
OF5RhCs2Tl,0.0,-0.022699,,3,3.0
Cu4ZnEu,0.0,-0.0214323,,3,3.0
CaZnY2,0.0,-0.0198792,,3,3.0
Ni2ZnZr3,0.0,-0.0233445,,3,3.0
CaAs2Cd2,0.719,-0.0228658,,3,3.0
Cu5Rh,0.0,-0.0182576,,3,3.0
Sb2Er6Re,0.0,-0.0504022,,3,3.0
S3InPt2,0.0,-0.0343093,,3,3.0
Ni2Ga3Pu,0.0,-0.0322847999999999,,3,3.0
H2Ni2Cd,0.0,-0.013938,,3,3.0
Mn2PbTh2,0.0,-0.0609413,,3,3.0
P2Fe2Ho,0.0,-0.022183,,3,3.0
BAl2ErOs2,0.0,-0.0368044,,3,3.0
Mg2Ce,0.0,-0.0181972,,3,3.0
AgSnHo,0.0,-0.03945,,3,3.0
CGeY3,0.0,-0.0232036,,3,3.0
O6FCu3YBa2,0.0,-0.0170779,,3,3.0
Al3Sn2La3Au,0.0,-0.0333894999999999,,3,3.0
BaPtAu2,0.0,-0.0626222,,3,3.0
Zr3Hf,0.0,-0.0386801,,3,3.0
B3MnTa,0.0,-0.0220573,,3,3.0
Mg2SiPt3,0.0,-0.0394257,,3,3.0
S3KCaCu,1.1111,-0.0115271,,3,3.0
NiZr2Re,0.0,-0.0375921,,3,3.0
Ce2PtAu,0.0,-0.0580505,,3,3.0
S2RbIn,2.725,-0.019438,,3,3.0
LiAu2Hg,0.0,-0.0525596,,3,3.0
Cl3Cs,2.9118,-0.0166026999999999,,3,3.0
Se3SbPb4,0.0,-0.0504566,,3,3.0
FeTm6Pb2,0.0,-0.053822,,3,3.0
MgGa2Np,0.0,-0.0363062,,3,3.0
Tm2Tl,0.0,-0.0590213,,3,3.0
Ca2Cu2Ga,0.0,-0.0135426,,3,3.0
CSi2Fe2Lu2,0.0,-0.025966,,3,3.0
N3SrTc,0.734,-0.0175899,,3,3.0
In9CsIr2,0.0,-0.0403442,,3,3.0
AlCrFe2,0.0,-0.0157335,,3,3.0
LiGaSr2,0.0,-0.0160311,,3,3.0
PRe,0.0,-0.041033,,3,3.0
LiPdPr2,0.0,-0.0308016,,3,3.0
H3ErIr,0.0,-0.0271243,,3,3.0
CoGeEr,0.0,-0.0295961,,3,3.0
Ga6PrAu,0.0,-0.026808,,3,3.0
AlHfAu2,0.0,-0.052916,,3,3.0
NaNi2As2Zr,0.0,-0.0186133,,3,3.0
BNi2Pt6,0.0,-0.0512841999999999,,3,3.0
Y6Te2Pt,0.0,-0.0356923,,3,3.0
O7NaP2Gd,5.1009,-0.0144693,,3,3.0
O3AlCe,0.4722,-0.0177904,,3,3.0
Te2Au2Hg,0.0,-0.0563059999999999,,3,3.0
Hg4TlPb,0.0,-0.0700696,,3,3.0
BeW,0.0,-0.0372045,,3,3.0
O6NaTi2Dy,2.8037,-0.0154854,,3,3.0
AgPt2Tl,0.0,-0.0610179,,3,3.0
Sc2CoZn,0.0,-0.0152712,,3,3.0
ScTiAs,0.0,-0.0178996999999999,,3,3.0
Al3GaPd4Ce2,0.0,-0.0269109,,3,3.0
ZnPt7,0.0,-0.0632909,,3,3.0
ClTe4Ta,0.3215,-0.0376576999999999,,3,3.0
As2Sn2Cs,0.0,-0.0302996,,3,3.0
CoLa2,0.0,-0.0345595,,3,3.0
AsBr2Zr2,0.0,-0.0254583,,3,3.0
Sb2LaIr,0.0,-0.0480591999999999,,3,3.0
FeCdLa3,0.0,-0.0356533999999999,,3,3.0
Na5Hg,0.0,-0.014983,,3,3.0
MgRhSn2,0.0,-0.0281077,,3,3.0
H2Zn2Ru,0.0,-0.0136959,,3,3.0
InHgTl2,0.0,-0.0615516,,3,3.0
CNMn6Zn2,0.0,-0.0158171,,3,3.0
HSEr,1.9729,-0.0229029,,3,3.0
Al2Ge4Tb3,0.0,-0.0264491,,3,3.0
Pd5InBi,0.0,-0.0397824,,3,3.0
H2Sr2Te,2.033,-0.018913,,3,3.0
Li2O3Zr,4.1359,-0.0120288,,3,3.0
O3Cu2Zn,0.0,-0.0113854,,3,3.0
H2Pr,0.0,-0.0174722,,3,3.0
Li2O7BaTa2,2.5875,-0.0214258,,3,3.0
AgBaBi,0.0,-0.0506015,,3,3.0
H5RhEu2,0.0,-0.0204567,,3,3.0
MgS4Y2,2.2641,-0.0163602999999999,,3,3.0
As2IrTh6,0.0,-0.07718,,3,3.0
F5BaSm,7.0322,-0.0188275,,3,3.0
Al2RhPr,0.0,-0.0240389,,3,3.0
OICs3,2.0973,-0.0327152,,3,3.0
F6MnRbCs,3.6909,-0.0138833,,3,3.0
BO3Lu,4.9215,-0.0196948,,3,3.0
ZnRb2BaBi2,0.0,-0.0425139,,3,3.0
GaZrRu,0.0,-0.0280156999999999,,3,3.0
Ru3Rh,0.0,-0.0345627,,3,3.0
Sc3Co2In3,0.0,-0.0225854,,3,3.0
F6FePr,1.84,-0.0135912,,3,3.0
VCu3Se2Te2,0.6378,-0.0226209,,3,3.0
Se6I2Au,0.0,-0.0292303,,3,3.0
MgS4Sm2,2.0139,-0.0210256,,3,3.0
PLaIr,0.0,-0.0429158,,3,3.0
O8ScRb3,0.0,-0.0119471,,3,3.0
Si2ZnTm2,0.0,-0.0281428,,3,3.0
Ga6IrPu,0.0,-0.0353014,,3,3.0
Se2La,0.3366,-0.0297506,,3,3.0
MgAlLu2,0.0,-0.0311054,,3,3.0
NiRh2Te2,0.0,-0.0320074,,3,3.0
Li2OF4Fe2,0.0,-0.0091988,,3,3.0
Cu3ZnSe4,0.0,-0.0176296999999999,,3,3.0
Al2FePt,0.0,-0.0268673,,3,3.0
PTiFe,0.0,-0.015887,,3,3.0
Al2TaW,0.0,-0.0381313999999999,,3,3.0
O6CuI2,1.2539,-0.0144713,,3,3.0
O6Ca3Cu2Sr,0.0,-0.012314,,3,3.0
Mg2IrTl,0.0,-0.0386722,,3,3.0
BY3In,0.0,-0.0252984,,3,3.0
Sc2Ga2Pd,0.0,-0.0196519,,3,3.0
KCuRhTe3,0.0,-0.0287331,,3,3.0
AsTeCe,0.0,-0.0352984,,3,3.0
HSeCs,3.1979,-0.0212813,,3,3.0
In6LaAu,0.0,-0.0394482,,3,3.0
Sr2Sn2Sb,0.0,-0.031431,,3,3.0
Co3Ge2,0.0,-0.0180766999999999,,3,3.0
NW,0.0,-0.0399029,,3,3.0
FRb3Bi,0.0,-0.0302158,,3,3.0
Ba2Pt3,0.0,-0.0588284,,3,3.0
F6GdDy,6.4387,-0.0202287,,3,3.0
LiPNd,0.0,-0.0199384,,3,3.0
SbTe2,0.0,-0.0372841,,3,3.0
Be2YPt2,0.0,-0.0364763,,3,3.0
S2Cr,0.8563,-0.0132443,,3,3.0
B2Ho,0.0,-0.0219582,,3,3.0
Li4O4Ti,5.1124,-0.008224,,3,3.0
Cl4Cs2Tb,0.0,-0.0242121,,3,3.0
S2ClAu,0.0,-0.0242022,,3,3.0
SiV6Sn,0.0,-0.0191398,,3,3.0
FeCo2Rh,0.0,-0.0217449,,3,3.0
As2RhLa2,0.0,-0.0335216,,3,3.0
Al2CoEr,0.0,-0.0213206999999999,,3,3.0
N5Nb4,0.0,-0.0209923,,3,3.0
H8MnSrCd2,0.0,-0.0108664,,3,3.0
GeSnHo,0.0,-0.0353442,,3,3.0
AsBr2Au,1.246,-0.0323403,,3,3.0
Ga2RuHf2,0.0,-0.0392425,,3,3.0
Cl6KCs2Tm,5.9799,-0.0207780999999999,,3,3.0
F6SrOs,0.657,-0.0171039999999999,,3,3.0
O7K2NdTa2,0.0,-0.0227032,,3,3.0
Na2TlPb,0.0,-0.0393748,,3,3.0
CuTb3Os2,0.0,-0.0501614,,3,3.0
YTlPb2,0.0,-0.0633538,,3,3.0
Fe4CeSm,0.0,-0.0268743,,3,3.0
Cd2SbPb,0.0,-0.0434132,,3,3.0
Sc3Ru5,0.0,-0.0275125,,3,3.0
GePd2Dy,0.0,-0.0340962999999999,,3,3.0
F6NaRb2Bi,5.403,-0.0173009999999999,,3,3.0
Mo3Rh5,0.0,-0.0343662,,3,3.0
Na2Pt,0.0,-0.0264458,,3,3.0
Cl3La,4.6988,-0.0194762,,3,3.0
AlInPm2,0.0,-0.0327852,,3,3.0
InHg4,0.0,-0.061195,,3,3.0
Al2YPm,0.0,-0.0222541,,3,3.0
GaZrPd2,0.0,-0.0290145,,3,3.0
ScZn2,0.0,-0.0142218,,3,3.0
Ni2InEr,0.0,-0.0295278,,3,3.0
IPm,0.0,-0.0413788,,3,3.0
O6Ti2Th,3.3167,-0.0219826,,3,3.0
S2Se6Mo3W,0.5462,-0.0268785,,3,3.0
LiGa2Ag2,0.0,-0.0196793,,3,3.0
RhEuBi,0.0,-0.0559701,,3,3.0
SiSc2Br2,0.0,-0.0168764,,3,3.0
Se3RhHfTl,0.0,-0.0390183,,3,3.0
ZnCdBa,0.0,-0.0281127,,3,3.0
O6NiHo2Pt,1.4625,-0.0246054,,3,3.0
O7As2Ba2,3.9511,-0.0170051,,3,3.0
AlGa3Ge2Y3,0.0,-0.0205039,,3,3.0
Ge3Se6Bi2,0.0,-0.0306402,,3,3.0
ClCu2I,1.3684,-0.0190517,,3,3.0