formula,bg,formation_energy,mp-id,fidelity,bg_category
CrRuPt2,0.0,-0.048699,,3,3.0
O6Ti2Ho,0.0,-0.0163635,,3,3.0
BRh6Er2,0.0,-0.0354017,,3,3.0
LiO3FSe,4.0681,-0.0088182,,3,3.0
Ga6AgHo,0.0,-0.0225619,,3,3.0
Si4Ca3Mn4,0.0,-0.0133248,,3,3.0
Al2Tb3Hg,0.0,-0.0378271,,3,3.0
Cl6Te4Lu,0.2038,-0.0239744,,3,3.0
ZnGa3Ge2Dy3,0.0,-0.0278298,,3,3.0
SnLa2Pt2,0.0,-0.0537804,,3,3.0
O4S2Cu2TmBi2,0.0,-0.0272764,,3,3.0
Be4FeZn,0.0,-0.008263,,3,3.0
Si2Fe2Sm,0.0,-0.0206871,,3,3.0
YRh7,0.0,-0.0332916,,3,3.0
NiCeBi2,0.0,-0.0549994,,3,3.0
MgAl5Ni,0.0,-0.0087723,,3,3.0
Ge2DyPt2,0.0,-0.0463405,,3,3.0
AlScCu4,0.0,-0.0141555,,3,3.0
Al4NiTb,0.0,-0.0162714,,3,3.0
O6FeCoNd2,0.9927,-0.0186637999999999,,3,3.0
Ti2InW,0.0,-0.0339502999999999,,3,3.0
Ga4ZrNb2,0.0,-0.0237504999999999,,3,3.0
O6MnSr2Os,0.0,-0.0195294,,3,3.0
NiAsCd,0.0,-0.0224159,,3,3.0
CaCdAu4,0.0,-0.0533028,,3,3.0
FClCa,6.2681,-0.0105213,,3,3.0
Cd2Sn2Ba,0.0,-0.0349492,,3,3.0
Ni2Ga2Pd,0.0,-0.0199451,,3,3.0
OSeAgCe,0.0182,-0.0276726999999999,,3,3.0
ZnTb2Au2,0.0,-0.0499426,,3,3.0
Mg2CaTh,0.0,-0.0287902,,3,3.0
NiSb2Ce,0.0,-0.0345771999999999,,3,3.0
TiCuGa,0.0,-0.0162911,,3,3.0
CoBrLu,0.0,-0.0317664,,3,3.0
Rh6Sb4Ho,0.0,-0.0370922,,3,3.0
O7Ge2SrU,0.6902,-0.0214082,,3,3.0
Si2Tc2La,0.0,-0.0272619,,3,3.0
Sc2Co3Os,0.0,-0.0257114,,3,3.0
LiCuIn2Te4,0.8889,-0.0296601,,3,3.0
NiLu2,0.0,-0.0426369,,3,3.0
Tm2IrPt,0.0,-0.062539,,3,3.0
Y2RhSb,0.0,-0.0327327,,3,3.0
NO3Na3Mo,3.9808,-0.011174,,3,3.0
S4CuIr2,0.0,-0.0284614,,3,3.0
Si2Ta2W,0.0,-0.0449514,,3,3.0
Fe2ZnOs,0.0,-0.0303257,,3,3.0
C2NiTh2,0.0,-0.0460399,,3,3.0
ZnAg2Nd,0.0,-0.0302028,,3,3.0
Zr2AgTa,0.0,-0.0398522,,3,3.0
Ba2Pb3,0.0,-0.061984,,3,3.0
AgPt7,0.0,-0.0653223,,3,3.0
Cl3Ca3As,2.1073,-0.0126848,,3,3.0
As2Rh2Tm,0.0,-0.0329411,,3,3.0
Al3Sc2Mn,0.0,-0.0122043,,3,3.0
SiS3Cu2,1.6038,-0.0120875,,3,3.0
PCoNb,0.0,-0.0211158,,3,3.0
As2Ru2Gd,0.0,-0.0346052,,3,3.0
MgSnBa,0.0,-0.0274802,,3,3.0
BeTi2Re,0.0,-0.027253,,3,3.0
FeCoNi,0.0,-0.0172809,,3,3.0
ClTcSn3,0.7073,-0.0304805,,3,3.0
Si3Zn6Y2,0.0,-0.0155877,,3,3.0
CBr2Zr2,0.0,-0.0234956999999999,,3,3.0
S3NiErPb,0.0,-0.0296985,,3,3.0
O5NaGeSb,2.7589,-0.013272,,3,3.0
O6TiSr2Zr,3.0959,-0.0164016,,3,3.0
ZnSr2Te,0.0,-0.0247017,,3,3.0
Sc2SnPt2,0.0,-0.0422325999999999,,3,3.0
F4ZnSn,3.5344,-0.0129713,,3,3.0
SiBr2Tb2,0.0,-0.0300146,,3,3.0
Ga3Nb2Ir,0.0,-0.0316513999999999,,3,3.0
O6AlBa2Gd,0.0,-0.0211759999999999,,3,3.0
O7CaNb2Cs,0.0,-0.0169372,,3,3.0
F6Rb2Pu,1.3177,-0.0226363999999999,,3,3.0
CaZnGa2,0.0,-0.0144072,,3,3.0
Cu5Tm,0.0,-0.0215266,,3,3.0
PmTb3,0.0,-0.0460518,,3,3.0
NiY2,0.0,-0.0242315,,3,3.0
B3BrLa2,0.0,-0.0222803,,3,3.0
ZnInHo2,0.0,-0.0367334,,3,3.0
GeNbTh,0.0,-0.0499613999999999,,3,3.0
HO6Mn3,0.0,-0.0115086999999999,,3,3.0
Br3Hf,0.0,-0.0316986,,3,3.0
B4Co11Nd3,0.0,-0.0196959,,3,3.0
Co2Ge2Sm,0.0,-0.0239957999999999,,3,3.0
LiF12Al3Cs2,8.172,-0.0116334,,3,3.0
GeSe3Tm4,0.0,-0.0375712,,3,3.0
SiZrEr,0.0,-0.0310226,,3,3.0
AlGe2La,0.0,-0.0228898,,3,3.0
Ca2SrTl2,0.0,-0.037781,,3,3.0
P2KNi2La,0.0,-0.0182395999999999,,3,3.0
Na2ZnSe2,2.499,-0.0134957999999999,,3,3.0
O7SrNb2Cs2,1.8269,-0.0200695,,3,3.0
LiCuBr4,0.3732,-0.0166038999999999,,3,3.0
CrGa5Th,0.0,-0.0283409,,3,3.0
H4RhU,0.0,-0.02535,,3,3.0
Al11Sm3,0.0,-0.0160111,,3,3.0
Al5Se8,0.0,-0.0162059,,3,3.0
F7Mn2Cs,0.1796,-0.0127654999999999,,3,3.0
ZnAgBa,0.0,-0.0283958,,3,3.0
Er3Hg2,0.0,-0.0580722,,3,3.0
F8Cu2Y,0.0,-0.0104847,,3,3.0
O5SiTiAg2,1.7826,-0.0154588,,3,3.0
ZnAg,0.0,-0.022473,,3,3.0
Y3In5,0.0,-0.0319068,,3,3.0
S3Cu2Se,0.706,-0.0133057,,3,3.0
PdSn4Pt2,0.0,-0.0458067,,3,3.0
O4SSn,4.2814,-0.0132794,,3,3.0
CuZnTa,0.0,-0.0318063,,3,3.0
SnLa2Ir2,0.0,-0.0536416,,3,3.0
MnNi2Nd,0.0,-0.0238301,,3,3.0
NiHf3Re2,0.0,-0.0582475,,3,3.0
Al5CrCo,0.0,-0.0109430999999999,,3,3.0
MgY3Pd2,0.0,-0.0263686,,3,3.0
HRh3La,0.0,-0.0299678,,3,3.0
Al5FeTm,0.0,-0.015903,,3,3.0
Li2O4MnSn,0.0,-0.012476,,3,3.0
ZnGa3Nd,0.0,-0.0218037,,3,3.0
GaSb3Ce2,0.0,-0.0369668,,3,3.0
Cl6K3Rh,2.454,-0.01227,,3,3.0
O6Ti2Er,0.0,-0.0165168,,3,3.0
O2SeLa2,2.7618,-0.0271798,,3,3.0
Mn6As4Er,0.0,-0.0224218,,3,3.0
Be7Ni,0.0,-0.0059403,,3,3.0
LiO4MoCs,4.9014,-0.0166266,,3,3.0
PI2Gd2,0.0,-0.0419361,,3,3.0
C4MgHo3,0.0,-0.0243885,,3,3.0
ScHgPb2,0.0,-0.0587701,,3,3.0
ScAsDy,0.0,-0.028515,,3,3.0
LiF6PdTl2,0.0,-0.0220843999999999,,3,3.0
PdCsTl3,0.0,-0.0576421,,3,3.0
Mg2Ge2Eu,0.0,-0.0208911,,3,3.0
CoGeTa,1.3879,-0.0348789,,3,3.0
MnCuGe2La,0.0,-0.0236311999999999,,3,3.0
Ge5SeTe4,0.0505,-0.0265048,,3,3.0
Mg2Al5Pu,0.0,-0.019939,,3,3.0
SbGdPt,0.0,-0.0567052,,3,3.0
CaTmAu2,0.0,-0.0509679,,3,3.0
Mg2CaSm,0.0,-0.0160916,,3,3.0
ScFe2Ge2,0.0,-0.0181125,,3,3.0
GeNbTc2,0.0,-0.0309511,,3,3.0
LiO4SiNi,0.0854,-0.0098704999999999,,3,3.0
Ga5SmOs,0.0,-0.0288007,,3,3.0
AlLa2Au,0.0,-0.0414921,,3,3.0
Al2NiLa6,0.0,-0.0325117,,3,3.0
KSe3AgEr,0.0,-0.0263054,,3,3.0
BeNi2Re,0.0,-0.0271842,,3,3.0
Co2YHf2,0.0,-0.0377947,,3,3.0
SiPd2Lu2,0.0,-0.0382716,,3,3.0
Na2As2Ir,0.0,-0.0245245,,3,3.0
BeZrRh2,0.0,-0.0264925,,3,3.0
OPZnGd,1.2205,-0.0242573,,3,3.0
Pd2AgBi,0.0,-0.0440437,,3,3.0
CuEr2Au,0.0,-0.0469965,,3,3.0
MgPd2Hg,0.0,-0.0352,,3,3.0
O6MnCuPr2,0.0,-0.0184588,,3,3.0
BNa2Pt2,0.0,-0.0317258,,3,3.0
LiB2O5Bi,4.2869,-0.0162667,,3,3.0
F8Na3Hf,0.0,-0.011779,,3,3.0
S2MnBi,0.0,-0.0295647,,3,3.0
F4KNi,0.5737,-0.0088515,,3,3.0
CeHg2Pb,0.0,-0.0645644,,3,3.0
C4CoNd3,0.0,-0.0238268999999999,,3,3.0
ZnIrPa,0.0,-0.0621617999999999,,3,3.0
Zn2Y2Tl,0.0,-0.0315528,,3,3.0
S2Re,1.3833,-0.0307167,,3,3.0
O2SK5Cu,1.6521,-0.0100066,,3,3.0
N3LaW,1.1817,-0.0293474,,3,3.0
FeGe3U,0.0,-0.0358975,,3,3.0
Ni2Zn3Sr,0.0,-0.0160889,,3,3.0
BrTe2Pt,0.0,-0.0415493,,3,3.0
SGePd,0.4717,-0.0210284,,3,3.0
Pd2CsTl2,0.0,-0.0497091,,3,3.0
Al2LuPt2,0.0,-0.0435923999999999,,3,3.0
CAlTi3,0.0,-0.0138325,,3,3.0
Cu2Ga5Ce,0.0,-0.0199656,,3,3.0
Ti2Ga4Pu,0.0,-0.0300668,,3,3.0
CuRb2I6Nd,2.2102,-0.0333089,,3,3.0
Cu2As2RbTm,0.0,-0.0246411,,3,3.0
Si2Sc3Ga3Os,0.0,-0.0211222,,3,3.0
SnPt3,0.0,-0.0619512,,3,3.0
RhRePt,0.0,-0.0585595,,3,3.0
Li2SeRu,0.0,-0.01526,,3,3.0
Se8Ir3,0.0,-0.0343428,,3,3.0
Si3CoTb,0.0,-0.0194573,,3,3.0
Br3CsBa,4.7052,-0.0293445,,3,3.0
P2CaGe,0.9288,-0.0129926,,3,3.0
Cu2Rh3Dy,0.0,-0.0302481,,3,3.0
SrBaAu,0.0,-0.0442918999999999,,3,3.0
Ga2Pd2Lu,0.0,-0.0315613,,3,3.0
CoIn4Nd,0.0,-0.0327328,,3,3.0
Cd2In2Hg,0.0,-0.0390786,,3,3.0
Pd2InPm,0.0,-0.0365629,,3,3.0
N3CaRh,0.0,-0.0145703999999999,,3,3.0
Rh2CdSm,0.0,-0.0361371,,3,3.0
SiMo3Hf2,0.0,-0.0403635,,3,3.0
F6RhOs,0.6202,-0.0174743999999999,,3,3.0
GaTe2Gd,0.0,-0.0383666,,3,3.0
MnTe2Dy6,0.0,-0.0428605,,3,3.0
P2Cu4Np,0.0,-0.0271972999999999,,3,3.0
Y2Rh2Sn,0.0,-0.0328226,,3,3.0
BEr3Tl,0.0,-0.0465456,,3,3.0
MgRu2Tm3,0.0,-0.0388427,,3,3.0
NI2Sm2,0.0,-0.0358673,,3,3.0
AlCr4,0.0,-0.0163369,,3,3.0
MgCu4Pr,0.0,-0.0183804,,3,3.0
BePFe,0.0,-0.0113096,,3,3.0
Li2CaIn2,0.0,-0.0166444,,3,3.0
ClPdTl3,0.0,-0.0520314,,3,3.0
MnFe2Ga,0.0,-0.0177633,,3,3.0
Ni2Y2In,0.0,-0.0248768,,3,3.0
Ga6AgU,0.0,-0.0291445,,3,3.0
LiBr2,0.0,-0.0148370999999999,,3,3.0
AlPd2Tb,0.0,-0.031074,,3,3.0
AgLa2Pt2,0.0,-0.0526691,,3,3.0
B2CScCo2,0.0,-0.0127268,,3,3.0
CaZn2Dy,0.0,-0.0214736,,3,3.0
ScNi2ZrSn2,0.0,-0.0256198,,3,3.0
H6LiAlK2,3.2381,-0.0051344,,3,3.0
CaSe3AgHo,1.5688,-0.0266548,,3,3.0
H4MnCo3,0.0,-0.0105439,,3,3.0
MgAu2Hg,0.0,-0.0532394,,3,3.0
Pr3Pm,0.0,-0.0434802,,3,3.0
LiS2Mn,0.0,-0.0110545,,3,3.0
Sr2Rh2Hg,0.0,-0.0364531,,3,3.0
MnGe2Hf6,0.0,-0.0485251,,3,3.0
O6SrBa2Os,0.0,-0.0234575,,3,3.0
LiNd2Pb,0.0,-0.0418174,,3,3.0
LiRuCdSn,0.0,-0.0260369999999999,,3,3.0
SbI2Ho2,0.0,-0.0430892,,3,3.0
SrRhCd3,0.0,-0.0296722,,3,3.0
O7Ge2SrCe,2.5707,-0.0161395,,3,3.0
PdHo,0.0,-0.0419209,,3,3.0
Al3Ge2RuLu3,0.0,-0.0300286,,3,3.0
O3CaNb,0.9234,-0.0152541,,3,3.0
O2ClCaSb,3.6405,-0.0157353,,3,3.0
SiS3Sm4,0.0,-0.0290569,,3,3.0
H5Sr2Pt,0.0,-0.0171503,,3,3.0
CoSn2Er,0.0,-0.0352132999999999,,3,3.0
Ti4Mn2Ga5,0.0,-0.0169578,,3,3.0
Ge2LaPt3,0.0,-0.0495730999999999,,3,3.0
GaPm3,0.0,-0.037386,,3,3.0
HSeEr,1.889,-0.0262344,,3,3.0
CdSnEr,0.0,-0.0394368,,3,3.0
In3Sn3Sm2,0.0,-0.0376672,,3,3.0
ScZnY2,0.0,-0.0210684,,3,3.0
ScSe3,0.0,-0.0197488,,3,3.0
AlSiZr,0.0,-0.0167617,,3,3.0
HOLa,2.7615,-0.0200466,,3,3.0
F6YCs3,6.9388,-0.019786,,3,3.0
O4CeHf,2.1281,-0.0257966,,3,3.0
CZr2Tl,0.0,-0.0367556,,3,3.0
F4NaRu,0.7284,-0.0110908,,3,3.0
Ge2Zr2Mo,0.0,-0.0276742,,3,3.0
CaBr4Ba,5.1673,-0.0235172,,3,3.0
Pd2DyPb,0.0,-0.0480480999999999,,3,3.0
CBrPr,0.0,-0.0255093999999999,,3,3.0
MgFe4Tm,0.0,-0.0215593,,3,3.0
Sc2As2Hf,0.0,-0.027441,,3,3.0
CaRh2Sb2,0.0,-0.0311357999999999,,3,3.0
O6TiZnTb2,3.6985,-0.0193146999999999,,3,3.0
ZnHf3,0.0,-0.0505215,,3,3.0
Sn3Nd,0.0,-0.0384086,,3,3.0
Al6Ge5,0.6543,-0.0128611,,3,3.0
AgSm2Pb,0.0,-0.0495945,,3,3.0
AgHo2Ir,0.0,-0.0508855999999999,,3,3.0
S3Cs2Ba,0.0,-0.0252525,,3,3.0
AlFeIr2,0.0,-0.0427376999999999,,3,3.0
H3BrBa2,2.4619,-0.0192773,,3,3.0
CeHg2,0.0,-0.0608783,,3,3.0
Cl3Hf,0.0,-0.0235243,,3,3.0
B2FeNb,0.0,-0.0170861,,3,3.0
O8NaFe5,0.4404,-0.0119247,,3,3.0
BeCo2Os,0.0,-0.0277347,,3,3.0
Al3Ge2Dy,0.0,-0.0184794,,3,3.0
MgCa3Cu2,0.0,-0.0107497,,3,3.0
RbPt3,0.0,-0.0580266,,3,3.0
Ga5PtTh,0.0,-0.0360426,,3,3.0
CaFe2Ni3,0.0,-0.0158385,,3,3.0
Ga2CdAu2,0.0,-0.0404804,,3,3.0
P12Fe4U,0.0,-0.0182317,,3,3.0
H2La2Hg,0.0,-0.033006,,3,3.0
S4Co2Ni,0.0,-0.0133081,,3,3.0
AlNi2Ta,0.0,-0.0272216,,3,3.0
SiCu7,0.0,-0.0146041,,3,3.0
CoRuTa2,0.0,-0.0465487,,3,3.0
Co2GaNb,0.0,-0.0213995,,3,3.0
Na2K2Ba,0.0,-0.0128639,,3,3.0
Si2NiPa,0.0,-0.0346519,,3,3.0
SbAu,0.0,-0.0533583,,3,3.0
SiCo2GeEu,0.0,-0.0240052999999999,,3,3.0
KSb2Ir,0.0,-0.0388827,,3,3.0
SbI3Ba3,0.9424,-0.0397519,,3,3.0
Li2Zn2Sn2Pr,0.0,-0.021466,,3,3.0
F3Au,0.0,-0.020922,,3,3.0
Nd3Eu,0.0,-0.0460467,,3,3.0
N3MoDy,0.8771,-0.0232463,,3,3.0
PY2Bi,0.0,-0.0375681,,3,3.0
Sb2TlPb,0.0,-0.0556262,,3,3.0
H4CrBa,0.0,-0.0123036,,3,3.0
H6NOI3Hg,1.9025,-0.0184558,,3,3.0
S4TiHf,0.4186,-0.0211323,,3,3.0
CdEr2Hg,0.0,-0.050379,,3,3.0
GaSeI,2.3804,-0.024968,,3,3.0
GaRuPr,0.0,-0.031977,,3,3.0
NaS6Ti3,0.0,-0.0125082,,3,3.0
Zn2Sb2Nd,0.0,-0.0295155,,3,3.0
O6ZrEu2Dy,0.0,-0.0258848,,3,3.0
H5Cs3Pt,2.1828,-0.022774,,3,3.0
Mg2KTl2,0.0,-0.0327728,,3,3.0
F8Cu2Dy,0.0,-0.0122951,,3,3.0
Ca2YRh,0.0,-0.0206215,,3,3.0
BrBa2Hg,0.0,-0.0429047,,3,3.0
Li2ZnSr,0.0,-0.0102339,,3,3.0
F3KIn,3.0497,-0.0131403,,3,3.0
ScZn2Os,0.0,-0.028654,,3,3.0
Al2SrIr,0.0,-0.0280055,,3,3.0
Tm3Pb2,0.0,-0.0620401,,3,3.0
CoGe3Ho,0.0,-0.0252643,,3,3.0
Cd3BaPt,0.0,-0.0406397,,3,3.0
O9Fe2Sr3Te,0.0276,-0.015353,,3,3.0
NaCaBr6Cs2,0.0,-0.0223996,,3,3.0
S4MnSnCs2,0.783,-0.0221341,,3,3.0
N2Ca7Sn3,0.0,-0.0171111,,3,3.0
Al3Si2Ca3Mn,0.0,-0.0104681,,3,3.0
GeSe3Y4,0.0,-0.0256941999999999,,3,3.0
Li2F4Mn,3.6483,-0.0083205,,3,3.0
Mn2NiCuSb2,0.0,-0.0240764,,3,3.0
Si2Re,0.0,-0.0306333,,3,3.0
Li2O8VCo3,0.7227,-0.0107998,,3,3.0
NaS2Ni,0.0,-0.0106553,,3,3.0
NaS2Ga,3.2571,-0.0110574,,3,3.0
Ge2SmOs,0.0,-0.0392653,,3,3.0
CuGe3La,0.0,-0.0236528999999999,,3,3.0
O7Ca2V2,3.1836,-0.0119328,,3,3.0
B2RuHo,0.0,-0.0253671,,3,3.0
Cu2PdAu,0.0,-0.0332262,,3,3.0
F6FeLu,1.8694,-0.0151777,,3,3.0
OSn,0.0,-0.0223917,,3,3.0
LiSc2Ag2,0.0,-0.0189389,,3,3.0
Ag2Cd3Pr,0.0,-0.0331621999999999,,3,3.0
Ge3RhPr,0.0,-0.0277167,,3,3.0
B2O7Na2Al2,5.0758,-0.009155,,3,3.0
H3CuPr,0.0,-0.0142542,,3,3.0
MnPd5Te,0.0,-0.0317851,,3,3.0
LiP2Ru2La,0.0,-0.0236295,,3,3.0
Pd2ErPu,0.0,-0.0570456,,3,3.0
NaCa3Ir,0.0,-0.0211011999999999,,3,3.0
LiP2Co2Sr,0.0,-0.0140493,,3,3.0
AgCdLu2,0.0,-0.0435168,,3,3.0
CdTm2Hg,0.0,-0.0511226,,3,3.0
As2Ag2Ba,0.0,-0.0290873,,3,3.0
BeCuAu2,0.0,-0.0396293,,3,3.0
SrRhTe,0.0,-0.0321163999999999,,3,3.0
Li2CaGe,0.0,-0.0088635,,3,3.0
YPd2Tb,0.0,-0.0360126,,3,3.0
Si3EuAu,0.0,-0.0310773,,3,3.0
Al6NiEu,0.0,-0.0149498,,3,3.0
O6MoTe,1.8429,-0.0151379,,3,3.0
ZnCe2Pb,0.0,-0.0450199,,3,3.0
F6ZnIr,0.5908,-0.0151623,,3,3.0
Li3O8V2Ni2,0.0074,-0.0104341,,3,3.0
Er3Tl,0.0,-0.0561674,,3,3.0
CFe3Ga,0.0,-0.0161267,,3,3.0
Li3O6Al2Cr,3.5635,-0.0093882999999999,,3,3.0
Ga2SbPt3,0.0,-0.0474288999999999,,3,3.0
ClTe2Cs2,0.0,-0.0329305,,3,3.0
LiO4SiBi,3.2937,-0.0187891,,3,3.0
ZnZr8,0.0,-0.0288058,,3,3.0
Al2CoDy6,0.0,-0.0357168,,3,3.0
Cl3Lu,5.5946,-0.0223321,,3,3.0
O4SeBa,4.3833,-0.0159418,,3,3.0
Sc2YCd,0.0,-0.0218861999999999,,3,3.0
Co2NiSe4,0.0,-0.0190359,,3,3.0
O4NaNiAs,2.2381,-0.0109481,,3,3.0
S2CrPb,0.0,-0.029175,,3,3.0
N2MgPu,0.0,-0.034534,,3,3.0
Li3As2Ba,0.0,-0.015381,,3,3.0
Li2MgPb,0.0,-0.0217904,,3,3.0
MgAg2Gd,0.0,-0.0319348,,3,3.0
AlTbIr,0.0,-0.0430066,,3,3.0
Zn2SrIr,0.0,-0.0304727999999999,,3,3.0
O4PrNp,0.0,-0.0326317,,3,3.0
P2Se6AgIn,0.8998,-0.0208848999999999,,3,3.0
LiMg2Si2,0.0,-0.0065393,,3,3.0
V2CrOs,0.0,-0.0317545,,3,3.0
Mn2Ge2Gd,0.0,-0.0272899,,3,3.0
Sc2YCd2,0.0,-0.0237196,,3,3.0
HSc3Sn,0.0,-0.016989,,3,3.0
MgCeIr2,0.0,-0.0485691,,3,3.0
BNNiGd,0.0,-0.0240920999999999,,3,3.0
NGeNd3,0.0,-0.0328129,,3,3.0
GaAgPr2,0.0,-0.0340616,,3,3.0
LiO2Cu,0.8804,-0.0088348,,3,3.0
Cd2InBa2,0.0,-0.0350025,,3,3.0
ZnEu2Ir,0.0,-0.0483573,,3,3.0
O8Na4Ti3,2.6178,-0.0103975,,3,3.0
GeNbRu,0.0,-0.0295377,,3,3.0
Si2Zn2Pa,0.0,-0.029539,,3,3.0
Sn4Ba3Ir4,0.0,-0.0502527,,3,3.0
HRb3Au,0.0,-0.0271548,,3,3.0
Al2CeTb,0.0,-0.0270642,,3,3.0
MgSc2Tl2,0.0,-0.0360576,,3,3.0
MnRh,0.0,-0.0265414,,3,3.0
GeInPt5,0.0,-0.0580848999999999,,3,3.0
MgNiIn,0.0,-0.0183481,,3,3.0
SiCa2Rh3,0.0,-0.0225408,,3,3.0
Si3RhTb,0.0,-0.0229607,,3,3.0
CrSb3Dy,0.0,-0.0361105,,3,3.0
NaP2Cu2Ho,0.0,-0.0182320999999999,,3,3.0
H3AgBa,0.0,-0.0165849,,3,3.0
Al2Zn3Sr,0.0,-0.0132817,,3,3.0
ZnIn2,0.0,-0.026756,,3,3.0
Na2AlAu2,0.0,-0.0313261,,3,3.0
Tc3Re,0.0,-0.0440762,,3,3.0
AlCo8Ta3,0.0,-0.028954,,3,3.0
AlCoNbIr,0.0197,-0.0331237,,3,3.0
O3AlTi,0.0,-0.0117062,,3,3.0
RbPd2Te2,0.0,-0.0327531999999999,,3,3.0
Li4P4Dy3,0.0,-0.0188691,,3,3.0
Ti6PdBi2,0.0,-0.0320918,,3,3.0
O2SeEu2,0.0,-0.0306561,,3,3.0
CaRhTl5,0.0,-0.0580904999999999,,3,3.0
F6NiCs3,0.7731,-0.0177297,,3,3.0
TiRh5,0.0,-0.0312805,,3,3.0
AsRbTa,0.0,-0.0361952,,3,3.0
GeI2La2,0.4907,-0.0371936,,3,3.0
Ru2TaPt,0.0,-0.0521781,,3,3.0
Ag2SnAu,0.0,-0.0418918,,3,3.0
Br2Tb,0.1835,-0.0304235,,3,3.0
H4CuPr,0.0,-0.0124599,,3,3.0
O6CoNiDy2,0.0,-0.0192563,,3,3.0
O7CrGe2Eu,0.0346,-0.0162429999999999,,3,3.0
Mg2As2Er,0.0,-0.0210705,,3,3.0
O6SrMoBa2,2.7051,-0.0202215,,3,3.0
Cd3Tl5,0.0,-0.0565518,,3,3.0
KSn2Pb2,0.0,-0.0465149,,3,3.0
SiPt2Ac,0.0,-0.0614037,,3,3.0
F6YDy,7.8922,-0.0164396999999999,,3,3.0
LiSiPm2,0.0,-0.0254725,,3,3.0
NONd6Pb2,0.0,-0.0442274,,3,3.0
TbHoTl2,0.0,-0.0606487,,3,3.0
O2TePu2,0.0,-0.0564759,,3,3.0
O3RhTm,1.7481,-0.0233957,,3,3.0
MgRh2Tb,0.0,-0.0306117999999999,,3,3.0
RuAgGd2,0.0,-0.0462649,,3,3.0
NiGa2Ce,0.0,-0.0240244,,3,3.0
Ti3Fe2Sn3,0.0,-0.0242394,,3,3.0
TbAu3,0.0,-0.0644229,,3,3.0
TiSnIr,0.0,-0.0417829,,3,3.0
B2N3Ru2Nd3,0.0,-0.025511,,3,3.0
NIU,0.0,-0.0511603,,3,3.0
H8Sn,4.6554,-0.0068693999999999,,3,3.0
MgZn2Pd2,0.0,-0.0200137999999999,,3,3.0
BaTmPb,0.0,-0.0562907,,3,3.0
SGeTm,0.0,-0.0283396,,3,3.0
Sc2CdHg,0.0,-0.0323179,,3,3.0
Cu5Cd3,0.0,-0.020838,,3,3.0
K2Br6Ce,1.507,-0.021611,,3,3.0
F6FeHg,0.9158,-0.0153346,,3,3.0
Be4NiCu,0.0,-0.0084091,,3,3.0
Al3Si2CuHf3,0.0,-0.0279619,,3,3.0
Al5SiCu2,0.0,-0.0099624,,3,3.0
Tc3Pd,0.0,-0.0345972,,3,3.0
O4Mg3Zn,4.0456,-0.0093073999999999,,3,3.0
Ag3Cd,0.0,-0.0311808,,3,3.0
Al8Fe4Ce,0.0,-0.0142114999999999,,3,3.0
LiMgIn2,0.0,-0.0188238999999999,,3,3.0
SClSm,3.1075,-0.0231154,,3,3.0
Ag2Pu,0.0,-0.0575107,,3,3.0
F6TiSm,0.0,-0.0140911,,3,3.0
In2Hg3,0.0,-0.0542501,,3,3.0
GePt5,0.0,-0.0618081,,3,3.0
Rb2I6Os,0.0,-0.0377519,,3,3.0
ZnSm2Ir,0.0,-0.0440411,,3,3.0
H2CHf2,0.0,-0.0293651,,3,3.0
O12GeTe3Cs2,1.1381,-0.0170713,,3,3.0
Ni4SnNd,0.0,-0.0242844,,3,3.0
Mn2Se4Ru,0.0,-0.022251,,3,3.0
AlMn2Sm,0.0,-0.0224541,,3,3.0
Ge6TmIr4,0.0,-0.0415903,,3,3.0
Li5Tl,0.0,-0.0142966,,3,3.0
LiAl,0.0,-0.0052626999999999,,3,3.0
B2SiV5,0.0,-0.0147703,,3,3.0
Sc3Pd2Sn3,0.0,-0.0278882,,3,3.0
Li3O8Co4Ni,0.1989,-0.0105561,,3,3.0
K2Ag3Tl,0.0,-0.0305764,,3,3.0
Al2Ge2Np,0.0,-0.0321831,,3,3.0
SRb2Hg,2.3171,-0.030677,,3,3.0
P2Cu2RbY,0.0,-0.0174669,,3,3.0
As12NdOs4,0.0,-0.0341823,,3,3.0
Cl6K2RbEr,5.1829,-0.0158164,,3,3.0
MgS4Nb2,0.0,-0.0169663,,3,3.0
O4AsSb,2.9584,-0.0150995,,3,3.0
Be2TiRu2,0.0,-0.0195353999999999,,3,3.0
O2ZnBa,2.7666,-0.0186132,,3,3.0
Mg2CdSn,0.0,-0.0192064,,3,3.0
B2Re,0.0,-0.0290718,,3,3.0
CaCu2Sb2,0.0,-0.0233529,,3,3.0
Zn2OsTh,0.0,-0.0489804,,3,3.0
O6MgBaPrTa,3.7466,-0.0224522,,3,3.0
Y2CdAu2,0.0,-0.0458709,,3,3.0
NaSrBa2,0.0,-0.0263229,,3,3.0
Al3Ge2Y3Au,0.0,-0.0246662,,3,3.0
MgLu2Hg,0.0,-0.0463275,,3,3.0
BeSc2Os,0.0,-0.0265818,,3,3.0
PPt5Au,0.0,-0.0616827,,3,3.0
MgTe2Tm6,0.0,-0.0439151,,3,3.0
O3NdEr,3.9603,-0.0262898999999999,,3,3.0
LiO8La4Au,2.3092,-0.0240346,,3,3.0
KSe2Th,0.7629,-0.0378105,,3,3.0
NaGa2Pd2,0.0,-0.0210592,,3,3.0
Be2CoPd,0.0,-0.0151873,,3,3.0
O5CuBa2HgTl,0.0,-0.0281273,,3,3.0
O3LaAu,2.2689,-0.0283252,,3,3.0
LiO6Ba2Os,0.0,-0.0212671,,3,3.0
LiAl2Ni,0.0,-0.0090343,,3,3.0
Cl6Rb2Bi,0.0,-0.0200895,,3,3.0
Si2CrTb,0.0,-0.0217744,,3,3.0
Si2PrOs,0.0,-0.0346046,,3,3.0
S2CuZr6,0.0,-0.0251055,,3,3.0
CaCoY3,0.0,-0.0221177,,3,3.0
RhBaHg2,0.0,-0.0527824,,3,3.0
LiF6Pd,0.0,-0.0087413,,3,3.0
ZnTe2Nd6,0.0,-0.0396124,,3,3.0
CSi2Mo2Ce,0.0,-0.0245719,,3,3.0
MgSc2Ge2,0.0,-0.0150963,,3,3.0
AlP2Pb,0.0,-0.026238,,3,3.0
Al4CuDy,0.0,-0.0161002,,3,3.0
Co5Tc,0.0,-0.020178,,3,3.0
Si2YLa2,0.0,-0.0275113,,3,3.0
Li2Ge2Ba,0.0,-0.0169641,,3,3.0
OHo3Tl,0.0,-0.0466858,,3,3.0
OSc3Ag,0.0,-0.0175753,,3,3.0
ZnZr4,0.0,-0.0273387,,3,3.0
LiZn2Ba2,0.0,-0.0217955,,3,3.0
MgCaBi2,0.0,-0.0435156,,3,3.0
As4Rh6Hg,0.0,-0.0324584,,3,3.0
BGa2Ru2Ho,0.0,-0.0271479,,3,3.0
KScBr6Rb2,3.7411,-0.0200156999999999,,3,3.0
NGd3Pb,0.0,-0.0534097,,3,3.0
TbAu,0.0,-0.0590937,,3,3.0
O3K2Pd,0.9818,-0.0124374,,3,3.0
O6RuBa2Ir,0.0,-0.0240965,,3,3.0
O6MgInLa2,0.0,-0.0190292,,3,3.0
SiPd2Pr2,0.0,-0.0333107,,3,3.0
O12Ti3La2Bi2,2.4777,-0.0222399,,3,3.0
F6NiBa,2.4016,-0.0123714,,3,3.0
H4NiTm,0.0,-0.0141667,,3,3.0
O6MgSr2Pu,0.0,-0.0227215999999999,,3,3.0
Sc2ZrPt2,0.0,-0.0410924,,3,3.0
SiLuPt,0.0,-0.0465983,,3,3.0
CO3Ag,0.0,-0.0129397,,3,3.0
O6Sr2TmW,0.0,-0.0234718,,3,3.0
HOCdI,0.761,-0.0200974,,3,3.0
Si3RuDy,0.0,-0.0232394,,3,3.0
Cu2GaY,0.0,-0.0191063,,3,3.0
Cl4K5Br,5.2437,-0.0114346999999999,,3,3.0
F4SnPb,3.667,-0.0233499,,3,3.0
AlZnTb,0.0,-0.0231843,,3,3.0
P2NiPr2,0.0,-0.0261255,,3,3.0
KSe3ZrRh,0.0,-0.0233618,,3,3.0
Ga2La2Hg,0.0,-0.0380891,,3,3.0
O4BrLuBi2,1.6481,-0.0342019999999999,,3,3.0
SiPd2La2,0.0,-0.0332614,,3,3.0
F6CuNp,0.0444,-0.0207953,,3,3.0
CaGeCe,0.0,-0.0250246,,3,3.0
O6MoBa2Ta,0.0,-0.0247098,,3,3.0
O5Cu2BaSm,0.0,-0.0182729,,3,3.0
Rh3Hf,0.0,-0.0418447,,3,3.0
LiSeY2,0.0,-0.0204771,,3,3.0
Cr2RuIr,0.0,-0.0357535,,3,3.0
Si2Ru3Gd,0.0,-0.0312743,,3,3.0
RhDyBi,0.0,-0.0542989,,3,3.0
AlSiIr,0.0,-0.0304026999999999,,3,3.0
B2F8Sr,9.1734,-0.0093572,,3,3.0
ScZrIn,0.0,-0.0264896,,3,3.0
LiO2Pt,0.0,-0.0224663,,3,3.0
MgNi4Ho,0.0,-0.0201855,,3,3.0
Ga3Sn2Lu3Os,0.0,-0.040524,,3,3.0
ClSeY,2.6608,-0.0209754,,3,3.0
Ga6CePt,0.0,-0.0272589,,3,3.0
Na3Cl6Tm,4.6158,-0.0133253,,3,3.0
BO3Tl,1.0662,-0.021384,,3,3.0
H8Mg2MnTm,1.4022,-0.0093978,,3,3.0
B2Fe7Er3,0.0,-0.0246497,,3,3.0
Rb2SrSb2Hg,0.1897,-0.0350684,,3,3.0
Mg3Al3Ge2Ag,0.0,-0.0121613,,3,3.0
ZnGa6Gd,0.0,-0.0215863,,3,3.0
AgHg2Tl,0.0,-0.0599611,,3,3.0
PdSmBi2,0.0,-0.0593318,,3,3.0
Mn2Ni3Pr,0.0,-0.0216967,,3,3.0
H2Tm,0.0,-0.0203765,,3,3.0
S6Ti2Pd,0.4442,-0.0145969,,3,3.0
Cu3Pm,0.0,-0.0225284,,3,3.0
Al2Ag3Sm,0.0,-0.0260237,,3,3.0
AlSiHf4,0.0,-0.0452580999999999,,3,3.0
Zn3YRu2,0.0,-0.0232629,,3,3.0
MgIr4,0.0,-0.0580875,,3,3.0
LiPCo,0.0,-0.0106711,,3,3.0
GaEr2Au,0.0,-0.0474391,,3,3.0
Al4Si2Tm3,0.0,-0.0235153,,3,3.0
CoLa6Tl2,0.0,-0.0470752,,3,3.0
Al2PrNd,0.0,-0.0259751,,3,3.0
S3Cs2Ce,1.4307,-0.0265832,,3,3.0
Ge2Hf2Os,0.0,-0.0477898,,3,3.0
S2VAu,0.0,-0.0272887,,3,3.0
ZnIr2Pu,0.0,-0.0667202,,3,3.0
Co2ZnPr2,0.0,-0.0269961,,3,3.0
CrPdPt2,0.0,-0.0482444,,3,3.0
PSe3Tl,0.6612,-0.0288257,,3,3.0
SrAg4Tl,0.0,-0.0368726,,3,3.0
MgPb8,0.0,-0.0679222,,3,3.0
Cl6AgCs2Ce,0.0,-0.0219767,,3,3.0
Na2PdTl,0.0,-0.0285699,,3,3.0
O3YAg,0.0,-0.0175074,,3,3.0
Si3Co2Y3,0.0,-0.0192398999999999,,3,3.0
Sc6CoSn2,0.0,-0.0199088,,3,3.0
Ca3AsI3,1.5875,-0.0243707999999999,,3,3.0
NiPdSn,0.0,-0.0285492,,3,3.0
CaCu2Ba,0.0,-0.0199244,,3,3.0
BrIn3Ir,0.0,-0.0386389,,3,3.0
ScCd,0.0,-0.0227574,,3,3.0
H4NiU,0.0,-0.0224133,,3,3.0
H2Hf2Re,0.0,-0.0412379,,3,3.0
Li2O12P4Fe,1.5176,-0.0096813,,3,3.0
FeZn2Er3,0.0,-0.0329427,,3,3.0
SiSc4Te3,0.0,-0.0234631,,3,3.0
Co2OsIr,0.0,-0.0442845,,3,3.0
TeLaHg2,0.0,-0.0550112,,3,3.0
NaCu2Te2,0.0,-0.0222006,,3,3.0