formula,bg,formation_energy,mp-id,fidelity,bg_category
C2K2Pt,1.1954,-0.0215935999999999,,3,3.0
Sn2Sm2Pb,0.0,-0.0480395,,3,3.0
O6ZrRhBa2,0.0,-0.0208466,,3,3.0
Mg4SrY,0.0,-0.011733,,3,3.0
PdBi2Np,0.0,-0.0743152999999999,,3,3.0
GaGePu2,0.0,-0.0640761,,3,3.0
Cl6MnRb3,0.8195,-0.0146854999999999,,3,3.0
Ni2In3Th,0.0,-0.038328,,3,3.0
H2CU2,0.0,-0.0448612,,3,3.0
Cl4U,0.5032,-0.0289888,,3,3.0
S4FeCu2Ge,0.0673,-0.0137163,,3,3.0
Ag3Au2,0.0,-0.0465649,,3,3.0
Pt3Np,0.0,-0.079937,,3,3.0
LiSiHo,0.0,-0.0210916999999999,,3,3.0
ClSeLa,1.6207,-0.0262234,,3,3.0
Na2Se3Zr,1.6847,-0.0180776,,3,3.0
O8P2KPu,0.0,-0.0183220999999999,,3,3.0
MnSe2Cs,0.0,-0.0251392,,3,3.0
BCCuPa,0.0,-0.0335108,,3,3.0
GeTbPt,0.0,-0.0467143999999999,,3,3.0
Li3Ca5,0.0,-0.0068905,,3,3.0
CoSn2,0.0,-0.0296838,,3,3.0
H2LiO4As,4.6684,-0.0082659,,3,3.0
GeIr2Np,0.0,-0.0675073,,3,3.0
Cu4ZnTh,0.0,-0.028538,,3,3.0
O4TiMn,1.4216,-0.0125676,,3,3.0
O8S2VCs,0.9123,-0.0123866,,3,3.0
Si2Cu2Dy,0.0,-0.0202778999999999,,3,3.0
Ge2Pd2Tb,0.0,-0.0310066,,3,3.0
Zn2NdPt3,0.0,-0.0478072,,3,3.0
Fe4RbSb2,0.0,-0.0241212,,3,3.0
Al4RuSm,0.0,-0.0190451,,3,3.0
C3La2W2,0.0,-0.0367458,,3,3.0
LiGaIn,0.0,-0.0176416,,3,3.0
Pd7Er,0.0,-0.0354673,,3,3.0
GaPt2Pa2,0.0,-0.0722232,,3,3.0
AsCdAu5,0.0,-0.0566668,,3,3.0
Si4Co2Au,0.0,-0.0208718,,3,3.0
Co6As4Np,0.0,-0.0267653,,3,3.0
H2PdBa2,0.4583,-0.0242613,,3,3.0
SnDy2Au,0.0,-0.0510358999999999,,3,3.0
SrAu2Pb,0.0,-0.0596802,,3,3.0
Er,0.0,-0.0503406999999999,,3,3.0
Li2O6Al2Mn,2.6429,-0.0096146999999999,,3,3.0
Ni2SnPa2,0.0,-0.053953,,3,3.0
Se4BrInBi2,1.2715,-0.0367522,,3,3.0
O3GaDy,3.1776,-0.0195549,,3,3.0
HTiIr3,0.0,-0.0471460999999999,,3,3.0
Co2NiDy2,0.0,-0.0294587,,3,3.0
Sr2CdPb2,0.0,-0.0458921,,3,3.0
B4Fe5Np2,0.0,-0.0304945999999999,,3,3.0
HZr3Au,0.0,-0.0334377,,3,3.0
TiZnAu2,0.0,-0.0424557,,3,3.0
ZnZrIn2,0.0,-0.0281195,,3,3.0
GeSb2Hg,0.0,-0.0403932,,3,3.0
Ni6As4Ho,0.0,-0.0211443,,3,3.0
Al2Pr3Pt4,0.0,-0.0486437,,3,3.0
Mg2PrAu,0.0,-0.0312844,,3,3.0
Sn2Te5Bi2,0.002,-0.0463132,,3,3.0
Al7DyAu3,0.0,-0.0288714,,3,3.0
PS3Mn,0.5162,-0.0121824999999999,,3,3.0
GdHf5,0.0,-0.061948,,3,3.0
InTe3Au2,0.0,-0.0474409,,3,3.0
CoNi2Ce2,0.0,-0.0280228,,3,3.0
Al2LaPt,0.0,-0.0333525,,3,3.0
LiMgCoSn,0.0,-0.0153261,,3,3.0
PdSn3Ba,0.0,-0.0367194999999999,,3,3.0
Si2GaTb2,0.0,-0.0266965,,3,3.0
C3N3Al7,0.0,-0.0094433,,3,3.0
B4YHf,0.0,-0.0208504,,3,3.0
PRbCs2,0.3043,-0.0269739,,3,3.0
Fe2Ni3Pr,0.0,-0.0215134,,3,3.0
YDyHg2,0.0,-0.0537345,,3,3.0
NaP2Ni2Th,0.0,-0.0263992,,3,3.0
CuAgTe,0.0,-0.0279821,,3,3.0
Fe3NiAs8,0.0,-0.019608,,3,3.0
Li2GeCd,0.0,-0.0139082,,3,3.0
KSr5,0.0,-0.0199098,,3,3.0
Ni2RhPt,0.0,-0.0341804,,3,3.0
SiDyOs,0.0,-0.0440291,,3,3.0
LiSrSn,0.0,-0.0207939,,3,3.0
KSb2Ir2,0.0,-0.0453815,,3,3.0
MgCo4Nb,0.0,-0.0178417999999999,,3,3.0
Al6PtPu,0.0,-0.0288563,,3,3.0
NaP2Ni2Nd,0.0,-0.0176388,,3,3.0
As2Sr,0.0,-0.0217546,,3,3.0
Co2Y3Pd,0.0,-0.0256066,,3,3.0
Al3LaAu,0.0,-0.0279564,,3,3.0
MgSrHg2,0.0,-0.0414243,,3,3.0
GePd2,0.0,-0.0288048,,3,3.0
Al4RhDy,0.0,-0.0195487,,3,3.0
NaMgP2Cu2,0.0,-0.0104913,,3,3.0
Tc2RuW,0.0,-0.0435954,,3,3.0
Ga7Ag2Ho3,0.0,-0.0275302,,3,3.0
O6ScSr2Hf,0.0,-0.0192705,,3,3.0
Ni2TcW,0.0,-0.0342852,,3,3.0
Ca2PdIr2,0.0,-0.0394486,,3,3.0
O12CrTeW2,1.8235,-0.0185914,,3,3.0
ScYRh4,0.0,-0.0303435,,3,3.0
MgCd2Hg2,0.0,-0.0404876999999999,,3,3.0
Al3CoSn2Ho3,0.0,-0.0294832,,3,3.0
Lu3Bi,0.0,-0.06152,,3,3.0
SiFePt2,0.0,-0.042704,,3,3.0
S2Ag3,0.0,-0.0226615,,3,3.0
CoSbTe,0.0,-0.0308205,,3,3.0
RbTe3HfPt,0.0,-0.0451120999999999,,3,3.0
NaLuPb2,0.0,-0.0531724,,3,3.0
Ge2Tc2La,0.0,-0.0307796999999999,,3,3.0
SNiSe,0.0,-0.015532,,3,3.0
BeRhPt2,0.0,-0.0451055,,3,3.0
BRu,0.0,-0.0215162,,3,3.0
TbIrTl,0.0,-0.0639991,,3,3.0
Al2I8Pt,2.1546,-0.0350508,,3,3.0
GaBrNd,0.0,-0.0279076999999999,,3,3.0
O3Na2Os,0.0,-0.0178984,,3,3.0
Li4O12MnSnW2,1.8778,-0.0161031,,3,3.0
Al3Si2Sm3Pt,0.0,-0.0283736999999999,,3,3.0
Se8Mo6Pr,0.0,-0.0283584,,3,3.0
CaGdTl2,0.0,-0.0538611,,3,3.0
Al2PmHo,0.0,-0.0275207,,3,3.0
PdTe,0.0,-0.0354383,,3,3.0
MgHoPt2,0.0,-0.0497877,,3,3.0
Co2ZnTh,0.0,-0.0361137999999999,,3,3.0
Al5RuDy,0.0,-0.0179281,,3,3.0
Zn2ErPt3,0.0,-0.0488703999999999,,3,3.0
S2CsTl2,0.0,-0.0408648,,3,3.0
P2ZrW,0.0,-0.0311568,,3,3.0
O4Na5La,2.3482,-0.0108217,,3,3.0
O3P2,3.8162,-0.0095643,,3,3.0
O6Cu2Rb2Te,1.1589,-0.014566,,3,3.0
O3Sb2,2.1414,-0.0200316,,3,3.0
B4ZrIr3,0.0,-0.0348473,,3,3.0
KCoAs,0.0,-0.0156093,,3,3.0
Cu5Hf3,0.0,-0.0331756,,3,3.0
YPdBi,0.1682,-0.0475375,,3,3.0
O7Bi4,1.0729,-0.0335844999999999,,3,3.0
CoSe3CsHf,0.0,-0.0308508,,3,3.0
FeCoRh,0.0,-0.0232516,,3,3.0
HOClZn,3.4364,-0.0090657999999999,,3,3.0
O2Mn3Sb2Ba2,0.0,-0.0258644,,3,3.0
Ga4Y3Ru4,0.0,-0.0267693,,3,3.0
Al2Sc3Ru,0.0,-0.0161224999999999,,3,3.0
BV,0.0,-0.0133542,,3,3.0
S4VCu2Rb,1.3201,-0.0143618,,3,3.0
AlTa2Pt,0.0,-0.0534423,,3,3.0
Co2ZnCe2,0.0,-0.0276371,,3,3.0
Ge2SrAu2,0.0,-0.0404213999999999,,3,3.0
NiAs2Th2,0.0,-0.05092,,3,3.0
Se3Rh2,0.0,-0.0260694,,3,3.0
GeMoDy,0.0,-0.0344936999999999,,3,3.0
S2Mn2Hg,0.0,-0.0252176,,3,3.0
PNiLa2,0.0,-0.0291372,,3,3.0
ScTiNi2,0.0,-0.0160733999999999,,3,3.0
CuIn3Nd2,0.0,-0.034347,,3,3.0
CoAs,0.0,-0.0190095999999999,,3,3.0
PFe2As,0.0,-0.0170189,,3,3.0
SrSnPt,0.0,-0.0438076,,3,3.0
Br6Rb2Rh,0.0,-0.0224481,,3,3.0
K3MnSe4,0.8954,-0.0164434,,3,3.0
AlNp2,0.0,-0.0739264,,3,3.0
O6Sr2HoHf,0.0,-0.0227186999999999,,3,3.0
PRh5Hf,0.0,-0.0354011,,3,3.0
AsBa2,0.0,-0.0341147,,3,3.0
SiIr,0.0,-0.0413343,,3,3.0
KCdTl,0.0,-0.0371766,,3,3.0
Al3Si2Sc3Zn,0.0,-0.0116663999999999,,3,3.0
TcCdSb2,0.0,-0.0349272,,3,3.0
Ga2SrAg,0.0,-0.0219951,,3,3.0
Br9Sb2Cs3,1.9612,-0.0272333,,3,3.0
S2AgLa,1.7528,-0.0250215999999999,,3,3.0
Cl3GaY3,0.0,-0.0194196,,3,3.0
Pb3Ac,0.0,-0.0799665,,3,3.0
O11Cd2Bi6,1.1637,-0.0326596,,3,3.0
Cl4PtTl2,1.7508,-0.0361306,,3,3.0
Li2CdIn,0.0,-0.0175432,,3,3.0
O6InTeDy,3.2027,-0.0194577999999999,,3,3.0
Li2CaSb2,0.0,-0.0185165,,3,3.0
F11NaVZr2,1.3064,-0.0118325,,3,3.0
CaCuAu2,0.0,-0.04135,,3,3.0
P5Ca,0.0,-0.0107009,,3,3.0
Li3O4Sb,3.82,-0.0107103,,3,3.0
RbAg3Te2,1.6637,-0.0319497,,3,3.0
FeAsHf,0.0,-0.0343508,,3,3.0
Zn2ZrPt,0.0,-0.0327143,,3,3.0
Ti,0.0,-0.0160288,,3,3.0
P2Cu2Ba,0.0,-0.018741,,3,3.0
GaPd2Hf,0.0,-0.0369782,,3,3.0
BMn4Er,0.0,-0.0221016,,3,3.0
Si2DyRe4,0.0,-0.0507854,,3,3.0
Be2Zr2Hf,0.0,-0.0265890999999999,,3,3.0
O6Mn2SrNd,0.0,-0.0168622,,3,3.0
SAs2Te2,0.5939,-0.0249485999999999,,3,3.0
NaAs2Pd2Sm,0.0,-0.0266515999999999,,3,3.0
PdLaHg,0.0,-0.0488636,,3,3.0
HBr2Er2,0.0,-0.0299889,,3,3.0
CoSn8,0.0,-0.0337094999999999,,3,3.0
CoSm6Bi2,0.0,-0.0495174,,3,3.0
Al3Sc3FeGe2,0.0,-0.0142971,,3,3.0
ScNi2Ge2,0.0,-0.0176339,,3,3.0
Ga3NdPt2,0.0,-0.0397634,,3,3.0
Rh2PrBi2,0.0,-0.0541612,,3,3.0
O6MgTiSr2,0.0,-0.0131168999999999,,3,3.0
Si3ZrPd3,0.0,-0.0235137,,3,3.0
Al5SmOs,0.0,-0.0226891,,3,3.0
SiNb3Mo3Sn,0.0,-0.031506,,3,3.0
BGa2LaIr2,0.0,-0.0382722,,3,3.0
Rb2RuI6,0.0,-0.0337242,,3,3.0
O3Rb2Sn2,1.2593,-0.0204051,,3,3.0
As2Y2Tl,0.0,-0.0347756,,3,3.0
I2Th,0.0317,-0.0575515,,3,3.0
Zn2YSb2,0.0,-0.0263177,,3,3.0
Al3Sm2Os,0.0,-0.0312993,,3,3.0
N2Tm7Pb3,0.0,-0.0518265,,3,3.0
SiNdEu,0.0,-0.0362839,,3,3.0
SeSb,0.0186,-0.0288553,,3,3.0
MnDy6Tl2,0.0,-0.0502605999999999,,3,3.0
TiGe3Tm,0.0,-0.0256265,,3,3.0
Mg2S8Cr3Sm,1.4807,-0.0147669999999999,,3,3.0
ScZr2Bi2,0.0,-0.0470561,,3,3.0
Ga3RhLu2,0.0,-0.0331141999999999,,3,3.0
NaP2ScNi2,0.0,-0.0127535,,3,3.0
Ga2RhHo,0.0,-0.0297776,,3,3.0
F6EuLu,0.0,-0.0202872999999999,,3,3.0
Rb3Pt7,0.0,-0.0554857999999999,,3,3.0
Ni2CuHo,0.0,-0.0243834,,3,3.0
O9Ti3SrLa2,0.0,-0.0177016999999999,,3,3.0
NaS3NiZr,0.0,-0.0146897,,3,3.0
KSb2Pt4,0.0,-0.0523573,,3,3.0
S6As2Tl2Pb,0.2326,-0.0292203,,3,3.0
O6Ba2HoPt,0.0,-0.0261149,,3,3.0
HInHf3,0.0,-0.0453011,,3,3.0
Al3Sc3CrGe2,0.0,-0.0142601999999999,,3,3.0
Fe4ZrAg,0.0,-0.0224732,,3,3.0
Ca2Pt2Tl,0.0,-0.047334,,3,3.0
LiNi2Re,0.0,-0.0264488999999999,,3,3.0
S2LaEu,0.0,-0.0314225,,3,3.0
MoOs,0.0,-0.0533541,,3,3.0
LiGePdCd,0.0,-0.021577,,3,3.0
Ge2Lu3,0.0,-0.0416558,,3,3.0
TiMo2,0.0,-0.0286675,,3,3.0
Ni2Ga3Y,0.0,-0.0188669,,3,3.0
LiRhSb,0.0,-0.0251247,,3,3.0
Nd3Hg,0.0,-0.0500176,,3,3.0
RuSn2Pr6,0.0,-0.0412834,,3,3.0
MnSb2Tm,0.0,-0.0368126,,3,3.0
MnCo2Ni,0.0,-0.0172872,,3,3.0
RhPt2Pa,0.0,-0.0695545,,3,3.0
Se8AgSm5,1.644,-0.0314779,,3,3.0
MgZn2Ac,0.0,-0.0308906,,3,3.0
Sc2HfPt2,0.0,-0.04749,,3,3.0
Zn4Y,0.0,-0.0167989,,3,3.0
Ge2RhIn3La3,0.0,-0.0343525,,3,3.0
Rh2PdEr,0.0,-0.0383507,,3,3.0
F8SnSm2,4.3632,-0.0177313,,3,3.0
ZnZr6Pb2,0.0,-0.0391932,,3,3.0
OSeAgTm,1.4411,-0.0295424,,3,3.0
NaCo2Ge2,0.0,-0.015507,,3,3.0
Al5Mn2Dy,0.0,-0.0158118,,3,3.0
SrCsBi,1.176,-0.0470262,,3,3.0
Cu2PdHo,0.0,-0.0285094,,3,3.0
Pd3Sm,0.0,-0.0365671,,3,3.0
Co2INd2,0.0,-0.0322383,,3,3.0
Hg3Tl4,0.0,-0.0705617,,3,3.0
LiS2Sb,0.3097,-0.0154625,,3,3.0
AlCrOs2,0.0,-0.0428756,,3,3.0
F6ZnU,0.8077,-0.0205349,,3,3.0
TiPt8,0.0,-0.0646736,,3,3.0
AlCoHo,0.0,-0.0251074,,3,3.0
Ga2PdPa,0.0,-0.0418374,,3,3.0
CuRhTe3Cs,0.0,-0.0336636,,3,3.0
Cl6Rb2RhAg,1.2827,-0.0168024999999999,,3,3.0
P2Cd2La,0.0,-0.0256352,,3,3.0
Y3Pd2Cd,0.0,-0.030731,,3,3.0
Al4Ge2Tb3,0.0,-0.023916,,3,3.0
Sc3CoAg2,0.0,-0.0208307,,3,3.0
Al2TiCu,0.0,-0.0120489999999999,,3,3.0
O2STm2,3.4374,-0.0287491,,3,3.0
ZnHg5,0.0,-0.0589977,,3,3.0
Sc3Os2Pt,0.0,-0.0436639,,3,3.0
Cd2In2Bi,0.0,-0.0411452,,3,3.0
PNi2GeLa,0.0,-0.021898,,3,3.0
N2CaBa2,0.0,-0.0220713,,3,3.0
SMoI,1.2854,-0.027742,,3,3.0
Co2Ni3Pr,0.0,-0.0211288,,3,3.0
MgFe4Hf,0.0,-0.0234649,,3,3.0
B2Fe3Th,0.0,-0.0277527,,3,3.0
FeGe2In3Lu3,0.0,-0.0363437,,3,3.0
Au8Tl,0.0,-0.0694528,,3,3.0
Mg2RhDy,0.0,-0.0234417,,3,3.0
Fe4Ir,0.0,-0.0285905999999999,,3,3.0
Cl6Rb2Tc,1.8314,-0.0154255,,3,3.0
Al5CoEu,0.0,-0.0160054,,3,3.0
SiBaHg,0.0,-0.0397611,,3,3.0
AsSe3Np4,0.0,-0.0643851,,3,3.0
Ni4GaY,0.0,-0.0185347,,3,3.0
TcSb2Pb,0.0,-0.0462620999999999,,3,3.0
Cl4SrBa,5.86,-0.0184212999999999,,3,3.0
MgNd2Au2,0.0,-0.0470056,,3,3.0
NaSnIr,0.0,-0.0373153,,3,3.0
N2PrNp,0.0,-0.0435643,,3,3.0
SiTiPd2,0.0,-0.0236762,,3,3.0
AgHo2Hg,0.0,-0.0499363,,3,3.0
O12NaSi4CaScZn,5.2741,-0.0108619,,3,3.0
CSnEr3,0.0,-0.0401046,,3,3.0
LiAlCl6K2,4.8722,-0.0094527999999999,,3,3.0
V2CrRe,0.0,-0.031462,,3,3.0
Ni7Os,0.0,-0.0230327,,3,3.0
Zn4Cd5,0.0,-0.0228014,,3,3.0
CrCoTa2,0.0,-0.0423742,,3,3.0
P2RbPt2,0.0,-0.0370538,,3,3.0
B4Co11Dy3,0.0,-0.020504,,3,3.0
CuRu2Pr3,0.0,-0.0359494,,3,3.0
Zn2PdTb,0.0,-0.0273009,,3,3.0
MgMoSb2,0.0,-0.0285561,,3,3.0
O6Na2Cd2Te,1.9237,-0.014555,,3,3.0
Sb2IPb2,0.0,-0.0527085999999999,,3,3.0
Be2Ta2Au,0.0,-0.0425657,,3,3.0
ZrAg2Hg,0.0,-0.0405351,,3,3.0
O5NaKLaTa,4.1228,-0.020052,,3,3.0
ZnSrAu2,0.0,-0.0442265,,3,3.0
Ca2SnAu,0.0,-0.0319211,,3,3.0
YAuBi2,0.0,-0.0641512,,3,3.0
N2NiY2,0.0,-0.0196198,,3,3.0
Si2MnCo,0.0,-0.0143688,,3,3.0
AlSr5,0.0,-0.0198706999999999,,3,3.0
O4ScPa,3.0281,-0.0270295999999999,,3,3.0
O2ClAsCd,3.0921,-0.0154993,,3,3.0
F5SnHo,3.0546,-0.0180162,,3,3.0
ScZr2Ru,0.0,-0.0280260999999999,,3,3.0
AlSc6As2,0.0,-0.015622,,3,3.0
NiPd5Te,0.0,-0.0312293999999999,,3,3.0
Cl2TeGd2,0.0,-0.0359797,,3,3.0
B2N3Rh2Gd3,0.0,-0.0300566,,3,3.0
Li2PmTl,0.0,-0.0306915,,3,3.0
O3MgZn2,2.2698,-0.0104573,,3,3.0
AlZr2Rh,0.0,-0.0264177,,3,3.0
MnAs2Tm6,0.0,-0.0417992,,3,3.0
Al3PdSn2Tm3,0.0,-0.0322755,,3,3.0
Al3Si2RuTm3,0.0,-0.0267972,,3,3.0
RuAgLa2,0.0,-0.0383941,,3,3.0
Ca3Sn2,0.0,-0.0208447,,3,3.0
B2ZrRu3,0.0,-0.0255593,,3,3.0
As2Ru2Nd,0.0,-0.031604,,3,3.0
LiF6AlTl2,4.8985,-0.0205312,,3,3.0
ZnHo2Au,0.0,-0.0459471,,3,3.0
LiBa2Au,0.0,-0.0381241,,3,3.0
MnFe2Ru,0.0,-0.0223541,,3,3.0
Li3F5Cu,1.8272,-0.0070651,,3,3.0
Al3Pd2Lu3,0.0,-0.0326227,,3,3.0
N2Y7Tl3,0.0,-0.036959,,3,3.0
MgPdBi,0.0,-0.0393539,,3,3.0
InTbPt,0.0,-0.0513195,,3,3.0
RbSb2Ir2,0.0,-0.0478706,,3,3.0
Y2InPb,0.0,-0.0419808,,3,3.0
Mn2Ru3La,0.0,-0.0308042,,3,3.0
BeHf,0.0,-0.0336086,,3,3.0
O6MnBa2Eu,0.0,-0.0214827,,3,3.0
CuGa5Sm,0.0,-0.0205810999999999,,3,3.0
MnNi5Se,0.0,-0.0171718,,3,3.0
Cl6K3Zr,0.5929,-0.0124464,,3,3.0
CaIr2,0.0,-0.051238,,3,3.0
CuErBi2,0.0,-0.0560921,,3,3.0
AlSiRu,0.0,-0.0181574,,3,3.0
O8S2CrCs,2.7202,-0.0123851999999999,,3,3.0
Li4SrTl,0.0,-0.0175696,,3,3.0
Rh2CdTa2,0.0,-0.0466004,,3,3.0
P2S3,2.1792,-0.0101373,,3,3.0
CuRh7,0.0,-0.0313994,,3,3.0
Pd2Hf2Pb,0.0,-0.0539549999999999,,3,3.0
Co2Ga5La,0.0,-0.0203937,,3,3.0
H2CoNi,0.0,-0.0099945,,3,3.0
Ge2CdHo2,0.0,-0.0341179,,3,3.0
MgGa2Ru,0.0,-0.0184791,,3,3.0
FeSb2Th,0.0,-0.0476017,,3,3.0
ZnPr2Pb,0.0,-0.0445606,,3,3.0
CaNiHg2,0.0,-0.04086,,3,3.0
Be2YPt,0.0,-0.0275542,,3,3.0
Sc3FeRh2,0.0,-0.022161,,3,3.0
Ga3Au7,0.0,-0.053415,,3,3.0
Na2P2U,0.0,-0.0271113,,3,3.0
PdTm2Tl,0.0,-0.0529264,,3,3.0
NFSn2La6,0.0,-0.0356917,,3,3.0
O4Mg2Pb,1.6791,-0.0177932999999999,,3,3.0
F8Na2SrGd,0.0,-0.0132389,,3,3.0
Ga4DyAu,0.0,-0.0309005,,3,3.0
Li2CdBi2,0.0,-0.0387253,,3,3.0
O3BaEr,0.0,-0.0247521,,3,3.0
Ni2TaAu,0.0,-0.0422378,,3,3.0
ZnAuPa,0.0,-0.0611814,,3,3.0
Na,0.0,-0.0042157,,3,3.0
CO7Na2AlP,5.7185,-0.0091212,,3,3.0
OGeSr3,0.0,-0.0199884,,3,3.0
OAsCdTb,1.282,-0.0278225,,3,3.0
Cu3Rb3Sb2,1.4385,-0.0230295999999999,,3,3.0
NaCl6K2Eu,0.0,-0.0143263,,3,3.0
Fe2SnDy,0.0,-0.0303243,,3,3.0
CaNiZn2,0.0,-0.0135033999999999,,3,3.0
CaNi3Zn2,0.0,-0.0144515999999999,,3,3.0
GaDy2Pt,0.0,-0.0465743999999999,,3,3.0
ScCu2Ga,0.0,-0.0157172,,3,3.0
O3Sr2Ir,0.0,-0.0245769,,3,3.0
ScZnHg2,0.0,-0.0413759,,3,3.0
GeBr2Sr3,0.1077,-0.0223021,,3,3.0
Mg3Al3NiGe2,0.0,-0.0105925,,3,3.0
Al6Ge2Pt,0.0,-0.0175542,,3,3.0
CuGa5Y,0.0,-0.0182155,,3,3.0
CGe2Sm2Re2,0.0,-0.0404978,,3,3.0
In3Dy,0.0,-0.0375199,,3,3.0
Ge2In3Tb3Ir,0.0,-0.0396908,,3,3.0
N3Ca3Fe,0.0,-0.0116738,,3,3.0
Al6Si2Ni,0.0,-0.0093310999999999,,3,3.0
GaGe2Sb,0.0,-0.0229273999999999,,3,3.0
AlCe2,0.0,-0.0325328,,3,3.0
O2Na2Cd,1.6501,-0.0115339,,3,3.0
SiZnSr2,0.0,-0.0173755,,3,3.0
CuRh2Pt,0.0,-0.0383029,,3,3.0
F6RhEr,2.7536,-0.0162331,,3,3.0
O6AlSr2Pd,0.0,-0.0145306999999999,,3,3.0
Al3Si2CrEr3,0.0,-0.0242832,,3,3.0
SAgCs,2.1821,-0.0270772,,3,3.0
Sm3Ir2Hg,0.0,-0.0580771999999999,,3,3.0
V3Pt,0.0,-0.0312926,,3,3.0
O6FeSr2Ru,0.0,-0.0156999,,3,3.0
AgDyTl2,0.0,-0.056212,,3,3.0
H3CeOs,0.0,-0.0258091,,3,3.0
BrBa2Pt,0.0,-0.0436417,,3,3.0
Se3SnSm4,0.0,-0.0360232,,3,3.0
MgAs4,1.0133,-0.0174481,,3,3.0
ScErTl2,0.0,-0.0527952999999999,,3,3.0
CINd2,0.0,-0.0343505,,3,3.0
FeHo2Os2,0.0,-0.0523284,,3,3.0
Cr2Ga,0.0,-0.0177757,,3,3.0
NFeNb3,0.0,-0.0259139,,3,3.0
O2RbPb,1.8682,-0.0285296,,3,3.0
Al2ScRh,0.0,-0.016844,,3,3.0
F6MgBa2,7.5883,-0.0157105,,3,3.0
Mg2InPb,0.0,-0.0299429,,3,3.0
SiYPd2,0.0,-0.0269279,,3,3.0
B2Mn2Ta,0.0,-0.0241032,,3,3.0
F4NiSn,2.5032,-0.0133353,,3,3.0
Ti2Ga4Eu,0.0,-0.0221180999999999,,3,3.0
Pd2In3Hf3,0.0,-0.0447716,,3,3.0
LiScSb2,0.0,-0.0234278,,3,3.0
CrMn2As,0.0,-0.0189955999999999,,3,3.0
ScCoIn,0.0,-0.0219361,,3,3.0
Be2SSe,3.2185,-0.0106876,,3,3.0
F4KRh,1.6104,-0.0116359,,3,3.0
MgRh2Dy3,0.0,-0.0366943,,3,3.0
FeI4,0.0,-0.0330028999999999,,3,3.0
O6InBa2W,0.0,-0.0244888,,3,3.0
AlGe3Eu,0.0,-0.0232747,,3,3.0
AlFeNd,0.0,-0.0233658,,3,3.0
Sc6Te2Au,0.0,-0.0263352,,3,3.0
Si2Co2Dy,0.0,-0.0212696,,3,3.0
CuAu5,0.0,-0.060198,,3,3.0
CoSn2La,0.0,-0.0335418,,3,3.0
ZnCd4,0.0,-0.0269592,,3,3.0
As2Pd2Nd,0.0,-0.0309102,,3,3.0
MgDy2Au2,0.0,-0.0487518,,3,3.0
Co4TaAu,0.0,-0.0342059,,3,3.0
H8FeNi2Tb,0.0,-0.0105711,,3,3.0
HLi2Br,5.5818,-0.0079302,,3,3.0
Ru2PdNd3,0.0,-0.0392606,,3,3.0
H2Y2Bi,0.0,-0.0290676,,3,3.0
C2AlZr3,0.0,-0.0208646,,3,3.0
AlPRb,1.0061,-0.0135383999999999,,3,3.0
HO2Nb,0.0,-0.0141403,,3,3.0
O4Se3Dy4,1.3324,-0.0282589,,3,3.0
O4Mn2Cu,0.0,-0.0127403999999999,,3,3.0
ZnGeY,0.0,-0.0209254,,3,3.0
H2OSb4Ba8,0.8453,-0.0332190999999999,,3,3.0
Ni2BrHo2,0.0,-0.030834,,3,3.0
Na2MgSn,0.0,-0.0125706,,3,3.0
Ca2AgBi,0.1156,-0.0329792,,3,3.0
KAgTe3Ho,0.0,-0.0344078,,3,3.0
MnY6Bi2,0.0,-0.0386263,,3,3.0
S2KAgCd,2.4545,-0.0186564,,3,3.0
SiTc2Ru,0.0,-0.0290847,,3,3.0
AlNiCe,0.0,-0.0234025,,3,3.0
Al5Pd2Th,0.0,-0.0258011,,3,3.0
AlSb2Dy6,0.0,-0.0416821,,3,3.0
CaAs2Pd,0.0,-0.0215346,,3,3.0
BeAlNb,0.0,-0.0154667,,3,3.0
O6Sr2ZrSb,0.0,-0.0178331,,3,3.0
Co4Ir,0.0,-0.0280257,,3,3.0
SnGd3,0.0,-0.05367,,3,3.0
O6AlYBa2,0.0,-0.0181331,,3,3.0
MnCuSn,0.0,-0.023297,,3,3.0
Mg2SiRh3,0.0,-0.0209085,,3,3.0
HORb2I,3.8332,-0.0190952,,3,3.0
Zn4CsBi3,0.0,-0.0410148,,3,3.0
O8P2CaY,0.0,-0.0119668,,3,3.0
Zn3Ru2Er,0.0,-0.0270147,,3,3.0
CrMnRh2,0.0,-0.0264427,,3,3.0
SiNi2Pa2,0.0,-0.0488257,,3,3.0
CO7NaSSb,4.601,-0.0111022,,3,3.0
Zn2LuPt,0.0,-0.0389958,,3,3.0
O6MnZnDy2,2.4768,-0.019411,,3,3.0
NHo2,0.0,-0.0370274,,3,3.0
ZrInBi,0.0,-0.0478753,,3,3.0
O7Ge2SrDy,0.7689,-0.0162518,,3,3.0
Si2Cu4Dy3,0.0,-0.0254129,,3,3.0
H3O6Ag2I,1.0541,-0.0127882999999999,,3,3.0
AuBi2Th,0.0,-0.0810909,,3,3.0
RuRh5,0.0,-0.0339378,,3,3.0
CaAgSn3,0.0,-0.030012,,3,3.0
Al2Ni5Zr,0.0,-0.0164741,,3,3.0
Al2Cu3Nd,0.0,-0.0178541999999999,,3,3.0
KCu2As2Ce,0.0,-0.0213572,,3,3.0
CoBrHf,0.0,-0.0339039,,3,3.0
ScRbBi,0.0,-0.0383743,,3,3.0
FeSnTh,0.0,-0.0502856999999999,,3,3.0
F8Na2CaEu,0.0,-0.0116323,,3,3.0
ScSeBr,1.7212,-0.0198519,,3,3.0
AgSmPb,0.0,-0.0511659999999999,,3,3.0
O5Se2Gd2Ta2,0.0,-0.0319777,,3,3.0
Li2BaBi2,0.0,-0.0410429,,3,3.0
Ge2RhDy,0.0,-0.0308466,,3,3.0
AsRb2Ag,1.4647,-0.0237184,,3,3.0
NaNi2Sb2Ho,0.0,-0.0272444999999999,,3,3.0
O6Rh3Cd,0.0,-0.0179242999999999,,3,3.0
AlGa2Er,0.0,-0.0232117,,3,3.0
Ni8In,0.0,-0.0180485,,3,3.0
Li2PrTl,0.0,-0.0305317,,3,3.0
Ge2SrRh3,0.0,-0.0278023999999999,,3,3.0
O2InPb,0.0,-0.0317556,,3,3.0
Mg2Hg2Pb,0.0,-0.0446345999999999,,3,3.0
InSmHg2,0.0,-0.0540664999999999,,3,3.0
Bi3Np,0.0,-0.0855241,,3,3.0
H2Co2Ir,0.0,-0.0223874,,3,3.0
Zn4Cd3,0.0,-0.0206626,,3,3.0
P2Rh2Lu,0.0,-0.0298925,,3,3.0
Sm3Tb,0.0,-0.0450001,,3,3.0
PMn,0.0,-0.0149895,,3,3.0
Si2CaFe3,0.0,-0.0144063,,3,3.0
F6NaIr,0.0,-0.0140469,,3,3.0
S2ZrBi,0.0,-0.0333236,,3,3.0
F4KSm,7.7125,-0.0150954,,3,3.0
TbHo3,0.0,-0.0484109,,3,3.0
MnTe3Hg2,0.0,-0.0446883,,3,3.0
CuBr6Cs2Pr,2.4833,-0.0267952,,3,3.0
BNGdOs,0.0,-0.0378973,,3,3.0
GaIr2,0.0,-0.0530502,,3,3.0
Ru4Rh,0.0,-0.0345249,,3,3.0
Li4O8CrMn3,0.9063,-0.0105876,,3,3.0
TmHg2Pb,0.0,-0.0662955,,3,3.0
Ni2Ga2Ba,0.0,-0.021276,,3,3.0
Al2NiHf,0.0,-0.0242488,,3,3.0
P2Ni4Sr,0.0,-0.0160114,,3,3.0
Be5Mo,0.0,-0.0095558999999999,,3,3.0
S3NiSrTb,0.0,-0.0208597,,3,3.0
Cl2GeSm2,0.0761,-0.0266255,,3,3.0
F6GdHo,6.4382,-0.0203859999999999,,3,3.0
O8KSe2In,3.1929,-0.012197,,3,3.0
F6FeCu,0.6538,-0.008928,,3,3.0
Cu4Y,0.0,-0.0178814,,3,3.0
Se2GdTl,0.9769,-0.044343,,3,3.0
N2CeU,0.0,-0.0431893,,3,3.0
PPd5La,0.0,-0.0317490999999999,,3,3.0
Al3In2Ho3Pt,0.0,-0.0350109,,3,3.0
Ru2Ho3Hg,0.0,-0.0480775,,3,3.0
GaPdIn,0.0,-0.0279253,,3,3.0
CuRh2Te,0.0,-0.0301365,,3,3.0
Ni3Rh,0.0,-0.0205687999999999,,3,3.0
Sc3CoGe2In3,0.0,-0.0225864,,3,3.0
Zr6Sb2Re,0.0,-0.0372365,,3,3.0
Li3O8Ti2Co2,0.0,-0.0106163,,3,3.0
CoSn2Tm6,0.0,-0.0449414,,3,3.0
P2CaCd2,1.4044,-0.0189386,,3,3.0
CdHfHg,0.0,-0.0538374,,3,3.0
CaZn4Y,0.0,-0.0156323,,3,3.0
MgErIr4,0.0,-0.0573128,,3,3.0
H6NaFeRb2,0.0,-0.0086211,,3,3.0
Ga3YIr2,0.0,-0.0373022,,3,3.0
Zn2Dy2Tl,0.0,-0.0394843,,3,3.0
Li3Hg,0.0,-0.0192185,,3,3.0
In2Th,0.0,-0.0546409,,3,3.0
Cu2Sr2Ba,0.0,-0.022871,,3,3.0
SnTa3,0.0,-0.0590088999999999,,3,3.0
MgCuRh2,0.0,-0.0221243,,3,3.0
Na2S4MnIn,1.0704,-0.0133581,,3,3.0
ScCr4W,0.0,-0.0261606,,3,3.0
Co2CdNd3,0.0,-0.0327881,,3,3.0
O2SiCd,0.0,-0.0151483,,3,3.0
ZnGa2Pa,0.0,-0.0366586,,3,3.0
Zn2LaDy,0.0,-0.0298529,,3,3.0
H9NSi3,4.3798,-0.0055831,,3,3.0
AlSc2Rh2,0.0,-0.0218293,,3,3.0
Ni2YLa2,0.0,-0.029494,,3,3.0
SiNiBa,0.0,-0.0224023,,3,3.0
NCaSe2Ta,0.0,-0.0261495,,3,3.0
F2Mg,7.8861,-0.0078225,,3,3.0
HI2Dy2,0.0,-0.0355688,,3,3.0
Cl6K2AgIr,1.2261,-0.0179211,,3,3.0
RhSn2Pa6,0.0,-0.0783821,,3,3.0
TiSnPa,0.0,-0.0507472,,3,3.0
OIGd,3.4191,-0.0368343,,3,3.0
CaFeIn5,0.0,-0.0280220999999999,,3,3.0
LiDy2Os,0.0,-0.0428125,,3,3.0
Ti2CrSe4,0.0,-0.019817,,3,3.0
B2LaIr3,0.0,-0.0459746,,3,3.0
Al7Dy3Au2,0.0,-0.0287052,,3,3.0
CoGaNd,0.0,-0.0261382,,3,3.0
Ni3Lu,0.0,-0.0263324,,3,3.0
CaInBa,0.0,-0.0279647,,3,3.0
Al4Y5,0.0,-0.0192881,,3,3.0
Ge2Au2Bi,0.0,-0.0509629,,3,3.0
O6Na2Cu2Te,1.2403,-0.0116283,,3,3.0
Te2PtHg,0.0,-0.0535683999999999,,3,3.0
O6NaZr2La,4.3778,-0.0181104999999999,,3,3.0
In3Pb,0.0,-0.0439223,,3,3.0
Ag2CdTb,0.0,-0.0352908,,3,3.0
O6Sr2LaW,0.0,-0.0224632,,3,3.0
Al4FeEu,0.0,-0.0174923999999999,,3,3.0
InHoPb2,0.0,-0.0588585,,3,3.0
BSn2Ir6,0.0,-0.0562907,,3,3.0
Au3Hg5,0.0,-0.0684549,,3,3.0
SiTiTh,0.0,-0.0412236,,3,3.0
CuTe2Ho,0.1085,-0.035628,,3,3.0
MgP4Ru6,0.0,-0.0238402,,3,3.0
HCu2,0.0,-0.0111751,,3,3.0
O7Ba3Th2,3.4669,-0.0329152,,3,3.0
Be2Si2Sm,0.0,-0.0150041,,3,3.0
Si2ZnLu2,0.0,-0.0295321999999999,,3,3.0
Ni2Ga5Sr,0.0,-0.0175443,,3,3.0
Ag2CdTb2,0.0,-0.0377041,,3,3.0