mpid,formula,BG,FE,e_hull
mp-7569,KAsF6,6.954934,-2.7646450502675,0.0
mp-4266,KAsF6,6.9814880000000015,-2.7645452352675,9.9814999999559e-05
mp-32432,Mg2VO4,0.013207,-2.764172962142857,0.0986349371428732
mp-769889,TaFeO4,3.348687,-2.7636967866666686,0.0051070441666638
mp-25502,Cr(SiO3)2,1.615685,-2.76343376861111,0.1114544888888957
mp-771857,LiTiVO5,3.055106999999999,-2.761381537239584,0.083547369583357
mp-8759,Cs2ZrO3,5.259066,-2.758912947291668,0.0
mp-6270,Ba2LiReO6,3.124431,-2.75743077725,0.0
mp-12525,Sr2LiReO6,2.984479,-2.75679272025,0.0105601549999994
mp-19085,Ba2MnWO6,2.750365,-2.7544330708459994,0.0
mp-754505,SrTaNO2,1.8442049999999999,-2.7538942969759987,0.0127365154999807
mp-19163,SrWO4,5.722458,-2.7508796883333333,0.0
mp-3635,LiBO2,6.857411000000001,-2.7507122329166664,0.0
mp-744941,Na3Cr2P2O8F3,3.70209257,-2.750287533320027,0.0
mp-770399,Li6Ti2O7,4.021347,-2.7502285711388894,0.0796492566666726
mp-13800,Cs2NaTlF6,5.0163,-2.749137922713999,0.0
mp-555052,MnSb2F12,4.016806,-2.748065696349333,0.0
mp-768307,BaSO3,5.833938,-2.7460751475625,0.0457809202500003
mp-768310,LaBiO3,3.813539,-2.745673987750002,0.0347246367500133
mp-13356,Ba2SrTeO6,4.6474790000000015,-2.7456089957500014,0.0
mp-768907,Sr3TeO6,4.585872,-2.74402382975,0.0221194629999974
mp-772190,Li6Ti2O7,5.489496000000001,-2.7434484604722225,0.0864293673333396
mp-3904,Mg2GeO4,4.665241,-2.7426218464285705,0.0007702125000257
mp-557664,Cs2TlBiF6,3.997173,-2.742179241714,0.0
mp-770062,NaVSiO4,2.962117,-2.7411293157142858,0.0457844555357374
mp-755003,LaBiO3,3.944662,-2.7400592237500008,0.0403394007500139
mp-35759,Li2NiF4,5.379917,-2.7393240813942863,0.0
mp-13907,CdSnF6,5.598434,-2.7392092858925,0.0
mp-18834,SrMoO4,4.955937,-2.7366494591666672,0.0
mp-770727,Li3Al2FeO6,3.450089,-2.7360237039583337,0.0203004008333325
mp-3642,ScCuO2,4.091891,-2.735971418125001,0.0
mp-6972,YCuO2,4.26655605,-2.73524942625,0.0011000943750003
mp-37614,Al2NiO4,4.3870700000000005,-2.731826479285714,0.0
mp-19048,BaWO4,6.022002,-2.731773408333334,0.0
mp-18946,VBO3,2.64704,-2.7307601230833343,0.0
mp-11715,MgSn(BO3)2,5.146754,-2.730213655583333,0.0
mp-13182,Li2TiGeO5,5.408792999999999,-2.7301486453240744,0.0
mp-772395,LiV(OF)2,3.329463,-2.728781841646667,0.0
mp-1009129,MgO,4.548500000000001,-2.727719665625,0.3375146600000001
mp-19426,CaWO4,5.373326,-2.727064415,0.0
mp-6951,RbCdF3,4.8603570000000005,-2.726660970714,0.0
mp-32405,LiVP2O7,2.872763,-2.7233804113582254,0.0215666036363595
mp-550081,Ba2LaIrO6,0.405837,-2.72073087675,0.0003632999999991
mp-552454,SrTaNO2,2.201919,-2.720699469976002,0.0459313424999798
mp-13798,K2NaTlF6,5.069983,-2.720117496713999,0.0
mp-9172,Li4TiO4,6.374017,-2.7194147524074075,0.0
mp-771686,NbCrO4,1.699031,-2.718965542500001,0.0409681091667124
mp-766656,Li3V3O5F3,2.221473999999999,-2.71880713463,0.084951830535731
mp-18953,NaV(OF)2,3.466438,-2.716749946646667,0.0
mp-755082,Sr3(AsO4)2,5.475272,-2.7167056915384618,0.0
mp-4533,Na2SiO3,5.44708,-2.715942377291667,0.0
mp-559150,Na9ZrP4ClO16,5.71650258,-2.7156826187303533,0.0
mp-753315,Mg3ZnO4,4.820659,-2.715371419999999,0.0328716531249986
mp-9144,LiAsF6,7.195627,-2.7148203152675,0.0
mp-25616,VPO4F,2.63906614,-2.7131094627550345,0.0
mp-9258,SiO2,5.9054969999999996,-2.7128741916666663,0.5718387158333291
mp-10426,Nb2O5,3.152005,-2.7084358737499983,0.3446110478571427
mp-10175,KCdF3,4.780374,-2.707863052714,0.0256700004999999
mp-1880,SbF3,5.389639,-2.7073364633925,0.0
mp-19330,CaMoO4,4.634125,-2.7072235333333325,0.0
mp-2874,In2Si2O7,4.135094,-2.706976320795455,0.0048067636363642
mp-6798,Ba2NaReO6,3.197723,-2.7067852947500004,0.0
mp-18835,VPO4,2.79141498,-2.7066179946825404,0.0
mp-9783,Ba3(AsO4)2,5.6055340000000005,-2.705206182307692,0.0
mp-19845,TiPbO3,2.9621869999999992,-2.7051483020833347,0.0401571039999986
mp-3307,BaSO4,5.694153,-2.702026568177084,0.1320646541666637
mp-546125,ScAsO4,5.256812,-2.7018156641666664,0.0
mp-774113,LiVSiO5,3.345756,-2.701531565781249,0.0544475450000012
mp-7487,BaO,4.099245,-2.701491535625,0.1324158850000003
mp-35795,BiPbF5,5.519099,-2.7012348165642863,0.0550018089285702
mp-315,PbF2,5.60582208,-2.7008342174599997,0.0
mp-769887,NbVO5,2.966739,-2.700756070892858,0.0291936939285708
mp-3953,CaCO3,6.955636,-2.6994553752500003,0.0
mp-754384,ScTlO2,1.624947999999999,-2.698537831874998,0.1002536442187507
mp-754157,AlInO3,3.4979,-2.6983670767500008,0.0348233219999984
mp-774090,LiTiFeO4,2.3914969999999998,-2.6980968245238097,0.0178491165306358
mp-3924,LiNbO2,2.323219,-2.696878413125,0.0
mp-6739,Ba2CaOsO6,0.0,-2.6967778952500003,0.0
mp-20072,LaCuO2,3.983148,-2.696518973124999,0.0
mp-767979,Li2MnOF2,2.610338,-2.695486130765,0.0919173266666666
mp-4360,NaCdF3,5.184394,-2.694347058714,0.0
mp-4190,CaSnO3,4.238805,-2.69245495275,0.0
mp-38035,SrCO3,6.282980999999999,-2.69169050225,0.0237783065000014
mp-19456,AlV2O4,0.0,-2.689741832142857,0.0458961943154765
mp-11737,Li4SiO4,6.42822,-2.6875899755555555,0.0
mp-34022,Mg2SnO4,3.417319,-2.685405769285714,0.0
mp-32453,VPO4,2.70645123,-2.6826850525992065,0.0239329420833325
mp-40189,BaLiLaTeO6,4.653799,-2.680413378749999,0.0060495882291693
mp-33746,SrCO3,5.8282300000000005,-2.679428660250001,0.0360401485000005
mp-776185,LiFeF3,0.181287,-2.6789660857140007,0.2360863079999955
mp-560244,CsZnB(PO4)2,6.70718509,-2.6782482552197795,0.0
mp-2511,PbF2,5.540461,-2.678067805793333,0.0227664116666677
mp-31706,Li3Cr2(PO4)3,4.22741832,-2.677683124464285,0.0
mp-767077,Li5Fe(SiO4)2,3.726357,-2.67742636,0.0142093615625205
mp-1009819,SrO,4.35379794,-2.6773502956249997,0.4153514500000002
mp-773340,Li2TiMnO4,1.391419,-2.675289222828334,0.0715026018750109
mp-775115,Li2TiMnO4,1.706888,-2.675084607828333,0.0717072168750121
mp-4559,BaCO3,6.022703,-2.674991184250002,0.0218445939999947
mp-19282,Sr2ZnWO6,4.342667,-2.67133677925,0.0184613493999918
mp-557658,RbZnB(PO4)2,6.64921087,-2.6687016852197805,0.0
mp-777720,Li2VO2F,1.886862,-2.668583433115,0.050955499999997
mp-752733,TiGa2O5,3.989305,-2.6681221841145835,0.0769787178124987
mp-27719,Al2CuO4,0.0,-2.6681155757142863,0.0629342378571466
mp-769969,TaFeO4,2.864519,-2.667559159166668,0.1012446716666648
mp-755013,Li5TaO5,5.345178000000001,-2.6666742269318178,0.0
mp-31649,LiCrP2O7,4.138608,-2.6661692986309515,0.0183604645454558
mp-776619,Li2TiV3O8,1.244878,-2.6654011090476186,0.0693120410714218
mp-23807,AlHO2,7.393687,-2.66272784028,0.0332224362500008
mp-27864,BF2,6.8212220000000015,-2.6614015755155553,0.1216180953703709
mp-766851,Li4V(PO4)2,4.184613000000001,-2.661118657746032,0.0520384933434368
mp-32436,LiV2(PO4)3,2.36013183,-2.6607920477380955,0.0087613293055568
mp-14038,Rb2NaRhF6,4.102175,-2.6603457332139997,0.0
mp-557382,Ba2ZnWO6,4.321161,-2.659685453250001,0.0
mp-766975,Li3Mn3O3F5,1.6797360000000001,-2.6596740133985706,0.0679966387946651
mp-769990,Li2TiCrO4,1.171244999999999,-2.6581153802083346,0.0826965045833274
mp-14039,K2NaRhF6,4.150442,-2.6577254272140003,0.0
mp-556506,MnCdF5,1.991906999999999,-2.657574890987142,0.004355774523808
mp-973261,Mg2SnO4,3.377358,-2.6573959385714283,0.0280098307142866
mp-35311,ZnCrF6,2.651193,-2.6553872777675,0.0008598187500004
mp-558836,MoF6,5.681058999999999,-2.654917222448572,0.0051664382142897
mp-554311,RbCrF6,2.495739,-2.6527772321425003,0.0
mp-18997,LiMnPO4,4.98247012,-2.6501582270078923,0.0
mp-12866,SrSnO3,2.694883,-2.6485680887500003,0.0058831330000002
mp-548658,RbPO3,5.891782,-2.648554847369049,0.049209081499999
mp-34195,BaCO3,6.131496999999999,-2.648192286250002,0.0486434919999947
mp-555731,SrGeO3,4.475402,-2.6476066730833328,0.1126841413333332
mp-14036,KRb2RhF6,4.311933,-2.647049850714001,0.0
mp-981103,Sr3CdO4,1.471818,-2.6464164087499995,0.018710218749999
mp-6304,Sr2GaSbO6,2.277023,-2.645801623250001,0.0262889948750002
mp-39770,Zr2P3H4NO12,6.08957214,-2.6456770614157152,0.0
mp-774016,Li2NbV3O8,2.0843,-2.6456529514285707,0.0103142869196322
mp-9595,NbInO4,4.471356,-2.6454555816666656,0.0
mp-25637,LiVPO4,3.929220069999999,-2.64486918829932,0.0059945071644982
mp-775209,Li2MnNb3O8,1.234687,-2.643331658639999,0.1097080466964275
mp-12867,SrSnO3,2.668729,-2.6430509657500005,0.0114002559999999
mp-776485,NbV3O8,0.9306479999999999,-2.642026810000001,0.0203540601041609
mp-25552,LiMnPO4F,1.83686562,-2.641869212530654,0.0
mp-32425,LiVPO4,3.74876587,-2.641635666156463,0.009228029307355
mp-561183,KCrF6,2.478011,-2.6413063221425,0.0
mp-31718,Li3Cr2(PO4)3,3.84176421,-2.6404812029642857,0.037201921499868
mp-11022,ScAgO2,3.409952,-2.6387851006250003,0.0
mp-973185,ScAgO2,3.337933,-2.638709148125,7.595250000225208e-05
mp-41414,BaLaMgBiO6,2.503562999999999,-2.6374630362500007,0.0949574184999999
mp-23764,Mg3Si2H4O9,5.929482999999999,-2.636963027540556,0.0002612624999986
mp-767168,Li3TiV3O8,1.960796,-2.6358631037777793,0.0695986807499933
mp-6228,Na2TiGeO5,5.178719999999999,-2.6340596281018533,0.0
mp-769851,ScCrO4,0.8902890000000001,-2.633712211666667,0.0731364785416683
mp-1794,BeO,10.33425087,-2.6331821931249992,0.4819688449999999
mp-555863,P4PtF12,6.137638000000001,-2.6330529598035857,0.0
mp-39886,BaCaLaBiO6,3.515729999999999,-2.6318943382499995,0.1539844623437511
mp-752483,LiBiF5,0.269079,-2.631071939421428,0.064282971071429
mp-752645,Al2CuO4,1.066662,-2.629761210714285,0.1012886028571466
mp-31939,LiMnPO4,4.87772153,-2.6288790848650345,0.0212791421428564
mp-559161,CrCdF6,2.715518,-2.6281962852675,0.0
mp-19202,MgCr2O4,3.9162660000000002,-2.625085397857144,0.0
mp-772244,Li2TiFeO4,0.930663999999999,-2.621472145208333,0.0425523387500002
mp-19299,CrBO3,3.622432,-2.620946096083331,0.0
mp-775020,Mn2OF3,0.024874,-2.6202708811233326,0.0728698743750051
mp-18753,Na3Mo(OF)3,5.171026,-2.619208483732,0.0
mp-18771,Sr2CoWO6,2.280455,-2.61748481975,0.0087130519999982
mp-1873,ZnF2,5.6869250000000005,-2.61737431246,0.0
mp-755856,Mg2SnO4,4.061169,-2.6151735742857136,0.0702321950000008
mp-39239,SrLaMnRuO6,0.8564700000000001,-2.615002963346001,0.0
mp-7709,ZnF2,5.8278870000000005,-2.611657183293333,0.0057171291666677
mp-19329,Na2V(PO4)2,3.97848976,-2.611058415860806,0.040402669679449
mp-769687,Li4TiCrO6,2.210074,-2.609982726180556,0.0181565041666829
mp-775296,TiMnO4,1.2820500000000001,-2.609552053771111,0.0551479308333373
mp-32455,VP2O7,2.45256,-2.6088219204940466,0.0332389869999953
mp-18757,Sr2CdWO6,4.425003,-2.60798376625,0.0238666544999999
mp-546973,SrSnO3,2.115451,-2.6068611937500004,0.0475900279999974
mp-13703,Al4CO4,4.9741,-2.6067376024999995,0.0
mp-752648,Ba3(BrO)2,3.464189,-2.606721240357144,0.0350171707142816
mp-6425,Li3In2(PO4)3,5.53644037,-2.6065449319642857,0.0
mp-1012551,BaBrCl,4.787629,-2.605495981086668,0.0
mp-31923,LiMnPO4,4.86691734,-2.60262567200789,0.0475325550000009
mp-18721,Mn2P2O7,4.474342999999999,-2.6016711960782253,0.0
mp-775228,LiFeSiO4,4.165162,-2.5992216235714287,0.0227955299999926
mp-767253,LiFeSiO4,4.112734,-2.5969161492857142,0.0251010042857071
mp-768014,Mn2OF3,0.425454,-2.5956159869566666,0.0975247685416711
mp-18747,SrMoO3,0.0,-2.59537344475,0.0714404749999992
mp-19322,BaMoO3,0.0,-2.59530442075,0.0
mp-18829,Sr2ZnMoO6,3.387092,-2.59517973825,0.0252309815000009
mp-554620,Sr2FeReO6,0.087106999999999,-2.593870201250001,0.0
mp-769557,LiMnNbO4,1.606053,-2.5916274008514284,0.0826634117856848
mp-23349,Bi(BO2)3,4.8956870000000015,-2.590146060250001,0.0015381844999922
mp-768063,V2P2O7,3.630511,-2.589107189540043,0.0315996387500021
mp-7457,SnF2,3.311172,-2.5885082582933334,0.0
mp-7456,SnF2,4.205374,-2.588273784126667,0.0002344741666675
mp-769922,V2SiO4,1.205801999999999,-2.587233457142856,0.0379407935714297
mp-545488,SiO2,1.9503489999999999,-2.586748405,0.6979645025000005
mp-27608,Be4TeO7,2.852936,-2.586263980729168,0.0
mp-31962,Li6Mn9(PO4)8,4.4194352000000015,-2.586006136061852,0.0439404530000038
mp-754840,TaAsO4,4.017742,-2.585996628333333,0.0548233445833297
mp-18837,KSc(MoO4)2,4.91869,-2.585909169166667,0.0
mp-18798,Sr2Mn2O5,1.076231,-2.5858367170188883,0.0
mp-25008,Ca2Mn2O5,1.093084,-2.585436649241111,0.0580617694444418
mp-767186,LiMn3(OF3)2,2.634706,-2.5852304177100005,0.0893728177083321
mp-6459,CaMg(CO3)2,7.025157,-2.584999672250001,0.0
mp-767329,Li3TiCr3O8,3.010896,-2.5848384864444447,0.0439411713333299
mp-18906,CrPO4,3.13425302,-2.583475116349206,0.0183961066666658
mp-766785,Li4Si2NiO7,3.799254,-2.583336369196428,0.0267269671428591
mp-19619,NaMnPO4,4.62541485,-2.583062789865035,0.0
mp-557296,Sr2MnSbO6,0.784862,-2.582901559346,0.0039747392499673
mp-19021,BaCo2(PO4)2,3.49367999,-2.5826542843223455,0.0
mp-768039,CrOF,2.668818,-2.5818845916466664,0.0736017830555413
mp-560023,NiSnF6,4.609241,-2.5817896915175003,0.0
mp-754535,LaAgO2,4.019926,-2.5798604168750003,0.0
mp-555047,LiCoF4,3.603615,-2.57974933996,0.0
mp-25507,LiCrPO4,2.69472869,-2.579278061156463,0.005094883452382
mp-32469,V2(PO4)3,1.8849940399999991,-2.5791181693697487,0.0110261905882484
mp-31928,LiMnP2O7,2.279071,-2.5779168778091344,0.0144514309090908
mp-6504,BaMg(CO3)2,5.911024999999999,-2.57449734625,0.0051527665000001
mp-11023,ScAuO2,2.9233700000000002,-2.574029335625,0.0131913173437512
mp-548691,Sr2ZnReO6,0.13722,-2.5732417817500006,0.0430134776666664
mp-31785,LiFeP2O7,3.696899,-2.57072093590368,0.0168445799999998
mp-758002,Li3Sn(PO4)2,1.3159166900000001,-2.57067989079932,0.0557995283630985
mp-27422,CsBiF6,4.517306,-2.5706663652675004,0.0
mp-18875,MgWO4,4.605111,-2.5701405341666663,0.0
mp-555718,SrNiF6,0.6756989999999999,-2.5697120246425005,0.0
mp-31750,CrPO4,3.28934551,-2.569067937599206,0.0328032854166675
mp-10401,Tl2SnF6,5.8452850000000005,-2.5682425791266663,0.0
mp-777435,MnVP2(O4F)2,2.227093,-2.5663606371093195,0.0079332432936567
mp-770051,Li4AlCr3O8,4.247201,-2.56549260375,0.0083493229687512
mp-766972,LiMn2O2F3,1.933162,-2.5650017428737493,0.0294309315625005
mp-553991,Ti(GaO2)4,3.961652,-2.563907287435897,0.0026405194230836
mp-31647,LiCrPO4,3.858852159999999,-2.563244824013605,0.0211281205952396
mp-32047,LiMo2(PO4)3,1.6824827900000001,-2.56285056079365,0.0010200298610882
mp-776672,Li2NbV3O8,0.874189,-2.562503582857143,0.0934636554910604
mp-778787,Li3Fe(OF)2,3.346453999999999,-2.5623324681099997,0.0665352731249999
mp-34141,Sr(LaS2)2,3.048103,-2.562295213750001,0.0
mp-31664,LiCrPO4,2.351818,-2.5612778940136045,0.0230950505952405
mp-31728,LiCrPO4,3.62477196,-2.5605952466921766,0.0237776979166683
mp-778565,Li2AlFeO4,4.388815,-2.560559155,0.0258977446874997
mp-767283,LiFeSiO4,4.111307,-2.5603146178571428,0.0617025357142786
mp-559934,LiZnPO4,5.99077997,-2.5600804829421757,0.0011648533928507
mp-774020,LiVPO4,2.6429270000000002,-2.55839991329932,0.092463782164498
mp-557753,K3PO4,5.57534993,-2.5557267885119046,0.0
mp-3759,MgGeO3,5.151464,-2.55520986375,0.0197621865000003
mp-31931,LiMn4(PO4)3,4.03204992,-2.5551179469062864,0.0394582757499968
mp-34418,AgPF6,5.193645,-2.554799403154405,0.0
mp-774088,Li2NbCr3O8,2.810813,-2.5534505635714284,0.0148574760714215
mp-770649,Li5NbO5,4.393036,-2.553365862386363,0.0088186745454539
mp-766159,Li3Mn3(OF)4,1.1508909999999999,-2.5521689359028565,0.049420035312492
mp-766803,CrOF,3.369894,-2.55206926498,0.1034171097222165
mp-27421,RbBiF6,4.404589,-2.5514650615175003,0.0
mp-554959,K2Al2Sb2O7,4.797324,-2.5504331952884622,0.0
mp-18903,Sr2CdWO6,4.485402,-2.55032363225,0.0815267884999997
mp-38951,Mg(GaO2)2,3.470112,-2.5489726414285707,0.0
mp-554917,LiSn2(PO4)3,4.99928522,-2.54739199468254,0.0
mp-756361,ZrSeO,2.952392,-2.5469619557812506,0.0362469150000031
mp-771609,LiTiV3O10,2.9352329999999998,-2.5465933266111107,0.0701274350000265
mp-35421,Ca(LaS2)2,2.977304,-2.5451797523214292,0.012979293571429
mp-24030,ZrP2(HO3)2,5.876344,-2.5441692564482263,0.0
mp-27122,LiSn2(PO4)3,4.9583077499999995,-2.543977603710319,0.0034143909722219
mp-25089,Sr2NiWO6,3.696872,-2.543955952750001,0.0
mp-556275,Rb2Al2Sb2O7,4.862789,-2.5431885752884607,0.0
mp-4590,Mg(GaO2)2,4.388488,-2.5426999242857136,0.0062727171428687
mp-778712,LiFeF5,1.923316,-2.5417899465642853,0.0
mp-504510,MgV2O6,4.06701,-2.541732079722223,0.0
mp-3744,NaNbO2,2.157658,-2.540550664374999,0.0
mp-778349,VFeP2(O4F)2,2.1264,-2.539933994183606,0.0312492594841309
mp-4223,Na3PO4,5.94061071,-2.539052132261905,0.0040615931250007
mp-753691,Y2Bi2O7,0.517292,-2.5389493830681817,0.0778201927272688
mp-774063,V4O7F5,2.419844,-2.5386545987312505,0.0397736445833381
mp-766908,Li5VO3F2,2.542038,-2.538036478739091,0.0886488818181794
mp-14334,K2RbPdF5,4.284901,-2.5374382251055554,0.0010207753703683
mp-775205,Li3MnP2HO8,5.494745,-2.535836191718031,0.0381814853333457
mp-773377,LiFePO4,3.5209770000000002,-2.534890289727892,0.0166866599999986
mp-7572,MgSO4,7.335153,-2.534380293177083,0.0
mp-557359,Cs2Al2Sb2O7,4.87339,-2.5343286929807696,0.0
mp-19400,Sr2NiWO6,3.984592,-2.534135323750001,0.0098206289999973
mp-561078,Rb2CoF6,2.9147410000000002,-2.5330497441266675,0.0
mp-756134,ZrSeO,1.332443,-2.531847636614585,0.0513612341666682
mp-774156,NbFeO4,1.955003,-2.5308976758333324,0.0359484983333313
mp-3205,CaCO3,6.189931,-2.5296358882500014,0.169819487000006
mp-774191,Fe3OF7,3.763864,-2.528102522234545,0.1112348945454595
mp-19131,LiMnBO3,3.80345,-2.5275174080072227,0.0
mp-23301,BiF3,5.211019,-2.5274150808925,0.2703733506250003
mp-753846,Mg(GaO2)2,3.636254,-2.527403759999999,0.0215688814285828
mp-559752,CsZnPO4,5.65718433,-2.5266390940136056,0.0017113110714284
mp-33615,Ba(LaS2)2,2.928074999999999,-2.5262968080357147,0.0134201621428511
mp-25929,Li3Bi2(PO4)3,4.89226033,-2.526114503464286,0.0381097577500026
mp-773368,Li3Cr3SiO8,4.122083,-2.525393275333333,0.0563620243333327
mp-773322,AlCr2O4,0.0,-2.5247580707142867,0.1031247710714318
mp-18591,KZnPO4,5.683007209999999,-2.5245587307993196,0.0084331278571356
mp-752922,Li8HfO6,7.180023999999999,-2.5234863135000003,0.0027599136666678
mp-6929,Ca2As2O7,4.991666,-2.5229905662500003,0.0
mp-32059,MoP2O7,1.293167,-2.522170029494048,0.037555336000004
mp-767644,LiV(PO4)2,1.546492,-2.52037579218254,0.080460394236117
mp-558132,MgVO3,0.5173180000000001,-2.51985242775,0.2619849009999928
mp-18937,V2O3,1.134202999999999,-2.518960015749998,0.0116437682500016
mp-715514,V2O3,1.144519,-2.5174590087499995,0.0131447752499997
mp-25012,MnSn(BO3)2,3.604211,-2.5159790836793325,0.0
mp-705333,LiMo(PO4)2,3.11181822,-2.5151392713492062,0.0333879110416441
mp-558170,Rb3PO4,5.11960564,-2.5149871563244046,0.0
mp-551918,AlBiO3,3.805390999999999,-2.51476364375,0.052586945624995
mp-773569,LiFe3(OF3)2,3.3249560000000002,-2.514461623303333,0.0897537521759241
mp-18673,CsZnPO4,5.55691645,-2.514161242227892,0.014189162857142
mp-32010,Mn4(PO4)3,0.0,-2.512699694901353,0.0182155135526169
mp-6782,Li2ZrTeO6,4.332635,-2.5122115817500004,0.0123712265000035
mp-34433,Mg2TcO4,1.300279999999999,-2.5115894299999986,0.0542302221428583
mp-8873,LiGeBO4,6.316281,-2.5096895595238102,0.0
mp-504723,Ba2NiWO6,4.006725,-2.508088385750001,0.0
mp-27419,LiBiF6,4.231279,-2.5053777840175,0.0
mp-9059,KLi6TaO6,6.120296,-2.504092687678572,0.0
mp-27420,NaBiF6,4.400116,-2.5019932858925,0.0
mp-40802,BaSrLaBiO6,3.36561,-2.50177525125,0.2894196638333319
mp-767226,LiMn2(PO4)2,1.011528,-2.5013619783161904,0.0600287667307695
mp-555212,Ba2InBrO3,2.6357749999999998,-2.5009786326785712,0.0
mp-19000,VPO5,2.962968,-2.5009188413350336,0.0150590221428945
mp-754466,Li2AgF3,3.728285,-2.500917023095,0.0189497416666668
mp-559808,Cs3PO4,5.02003906,-2.4979165966369044,0.0
mp-542919,NaGe2(PO4)3,5.51142916,-2.497215803849206,0.0
mp-541272,LiGe2(PO4)3,5.09440227,-2.4970822380158726,0.0014598634722249
mp-7566,InPO4,3.799576,-2.495622400515874,0.0
mp-554337,Rb2IrF6,0.889532,-2.4938605696822207,0.0
mp-18992,Ba2MnTeO6,1.683479,-2.493526642846,0.0
mp-772700,LiCrPO4,2.705731,-2.4919756511564635,0.0923972934523824
mp-33631,TiZn2O4,3.18731,-2.4911591552380954,0.0463767408333337
mp-767195,Mn5O3F5,0.120276,-2.4903430515,0.0964197930769099
mp-767108,LiMn2(PO4)2,1.827947,-2.490332584470036,0.071058160576924
mp-555911,TlAsF6,5.980499,-2.4901551796425,0.0
mp-642725,CaHClO,5.380041999999999,-2.4900141882825,0.0
mp-16307,Sr2MgIrO6,1.41495,-2.489907461750001,0.0
mp-550805,LuBi2ClO4,2.030466,-2.4894576260325003,0.0
mp-11174,K2IrF6,0.813634,-2.4884460463488893,0.0
mp-31645,CrPO4,2.74500627,-2.486499005515872,0.1153722175000009
mp-19394,LiV2O4,0.00272,-2.4850206314285708,0.0353866954166157