mpid,formula,BG,FE,e_hull
mp-775095,Li2Fe3CoO8,0.0,-1.7608957378571437,0.0245407495758902
mp-19148,K2Mn2O3,1.3995250000000001,-1.7605537250957144,0.0
mp-556034,CO2,8.164584000000001,-1.7601821058333336,0.023517888333334
mp-1315,MgS,3.98818089,-1.7600414670312508,0.0
mp-1008223,CaSe,3.96215561,-1.7591396942968751,0.2583348399999998
mp-773339,Li4FeCo3O8,2.276592999999999,-1.758397493125,0.1029467903124992
mp-27726,SO2,4.416281,-1.7575772738541662,0.0016356466666689
mp-767980,Li3Fe3NiO8,0.6291789999999999,-1.7571388620000004,0.0413142281250005
mp-770315,RbFeO2,2.984503,-1.7556196793749992,0.0892234581250006
mp-976258,EuPtO3,0.0,-1.7552390917500005,0.2428015800000018
mp-4227,BaVS3,0.0,-1.7544921194375007,0.0138957799999968
mp-5461,Rb3TaO8,5.120501,-1.7535204783333331,0.0022748644791663
mp-7502,K2Sn2O3,1.950571,-1.7530907333928565,0.0082357985714294
mp-866818,Ca2SnS4,1.869215,-1.7517166001785711,0.0178779239285704
mp-769978,CrFeO4,0.8730910000000001,-1.7504276658333329,0.0984966150000001
mp-24932,FeBiO3,2.634329,-1.7496495717499996,0.0202509232500007
mp-13274,Na4CO4,3.611318,-1.749045820277778,0.1290455088888906
mp-25589,NiPO4F,0.04252365,-1.7481546520407485,0.2060406623214286
mp-24913,CrPbO3,0.0,-1.7468936787499991,0.1509959933999951
mp-25380,CuPO4F,0.12199650000000001,-1.7468209856121766,0.1152625894821426
mp-738697,Al3P4H18C3N3O16,6.779539,-1.7462041394081054,0.0254354768006912
mp-24967,Fe2TeO6,2.231093,-1.7456754252777782,0.0
mp-1958,SrTe,2.6923414500000002,-1.7452901699999996,0.0
mp-23966,MgH2SeO5,5.258914,-1.7450863124537497,0.0
mp-771456,TeWO6,2.847813,-1.7447997921875,0.0165724362499997
mp-13032,MgS,4.41906664,-1.7443031570312502,0.0157383100000005
mp-7784,SbAsO4,4.154672,-1.7440246450000003,0.0108880034722336
mp-773338,Mn(SbO3)4,2.188459,-1.743810523291765,0.0406017303186292
mp-778057,Na2SnO2,3.04505,-1.7434747647500004,0.0
mp-756084,BaNa4O3,2.842138,-1.74305296296875,0.0562205199999974
mp-866824,Ca2SnS4,1.511207,-1.74243901875,0.0271555053571423
mp-777323,Li3Fe2(CoO4)2,0.434672,-1.742413189333333,0.0934909475000038
mp-25647,LiWO2,1.269494,-1.7408156006250008,0.3200246987499984
mp-546707,Na4CO4,3.516145,-1.7391713691666664,0.1389199600000026
mp-775790,CrTe(WO6)2,2.794234,-1.739151967187501,0.08827422113281
mp-30988,KBiO2,2.680378,-1.7384858631249998,0.0
mp-541912,ZrBrN,2.366482,-1.7354825674599998,0.0
mp-18749,NiSO4,3.911524,-1.7349590381770834,0.0
mp-754262,Zn2As2O7,3.399122,-1.7327730198863636,0.0269885761363637
mp-767705,LiCo(CO3)2,0.974804,-1.7326325492500003,0.0829504341500033
mp-19419,LiFeO2,2.193572999999999,-1.7322205481250004,0.3446347362500006
mp-754196,Ba2SrI6,4.865576,-1.7315326788888887,0.0393279277777778
mp-7466,CaCu2O3,0.0,-1.7289681756250002,0.0147973758333339
mp-7094,ReAgO4,3.843392,-1.7284062808333331,0.0
mp-774019,Mn3TeO8,1.897309,-1.7281963285733335,0.0178248163802052
mp-867369,TcF3,1.6898900000000001,-1.7281375846425,0.3066971375000005
mp-754212,BaSr2I6,5.123001,-1.728063253333333,0.0143023762499998
mp-504570,K3FeO3,2.957775,-1.7260072312500003,0.0
mp-755414,LiTiS2,0.0,-1.7252770280729175,0.0356427206249998
mp-552941,Na4CO4,3.575876,-1.7246760969444457,0.1534152322222235
mp-25544,KMnO2,0.0,-1.7232463133649991,0.2389466006250061
mp-546551,Na4CO4,4.812184,-1.7227546269444447,0.1553367022222245
mp-770384,RbFeO2,2.86394,-1.722330075624999,0.1225130618750007
mp-13841,IrF4,0.9871249999999999,-1.7219760309519994,0.0
mp-3247,Cs2TiS3,2.274413,-1.721316961475695,0.0
mp-7128,Cd(AsO3)2,3.330355,-1.720692028055555,0.0
mp-24064,PHF2,6.239307,-1.7206477397738098,0.1155277673154753
mp-18938,Tl2MoO4,4.373569,-1.7205087221428568,0.0
mp-769670,CrIrO4,0.0,-1.7196535041666674,0.0
mp-28447,Mg(BiO3)2,0.450127,-1.7187403297222223,0.0
mp-974603,HgF2,1.8814829999999991,-1.7171231541266667,0.0089025200000003
mp-23303,RbBr,5.024699379999999,-1.71616035,0.0552075749999998
mp-754199,BaSrI4,4.023373,-1.7150781991666666,0.0415349189583333
mp-773300,Mn5FeO12,0.9415659999999999,-1.713332497766667,0.0574423716319447
mp-28109,SbAsO3,4.657482,-1.7131478752499991,0.0
mp-24942,FeBiO3,2.494778,-1.71302915375,0.0568713412499999
mp-777964,Na2BiO3,0.0,-1.712760667291667,0.0331994487500324
mp-770569,ZnCrO4,3.330875,-1.7121698833333332,0.0
mp-775233,Cs2MnO4,1.752761,-1.7112308822800004,0.0419394653571423
mp-754839,SnBiO4,0.0,-1.7111727524999991,0.088039239166668
mp-25557,MnAsH2O5,2.732161999999999,-1.7085088510499995,0.0
mp-15803,Y2MgSe4,2.168888,-1.706983097767857,0.0
mp-19019,NiMoO4,2.612554,-1.7063090549999984,0.0103929054166673
mp-752910,Na3BiO4,2.083199,-1.7050243668749996,0.0366228093750002
mp-15794,LiYSe2,2.347960999999999,-1.704716657421875,0.0
mp-19341,Tl2WO4,4.3017129999999995,-1.702953980714286,0.0
mp-773313,Li2FeCuO4,1.351547,-1.702233994375001,0.0643116568749997
mp-19022,Na4FeO4,1.72878,-1.7020357338888892,0.0
mp-24854,CoCO3,3.9280939999999998,-1.7010985302500017,0.0
mp-866810,Ca2SnS4,3.400108,-1.6988978208928571,0.0706967032142849
mp-9027,TiS2,0.264972,-1.6986509099305565,0.0220058916666481
mp-28766,K2TiS3,2.192832,-1.6980577914756951,0.0
mp-776651,Mn3NiO4,1.116464,-1.696916112234998,0.1085918737500044
mp-23980,Cs3H(SeO4)2,5.515022999999999,-1.6947353289862497,0.0
mp-771472,Mn4CuO8,0.0,-1.6946862764492312,0.0684964255929472
mp-33300,Fe5CuO8,0.8049769999999999,-1.694147342857144,0.0670674285714492
mp-3255,SrCu2O3,0.0,-1.6939204506250007,0.0167444491666675
mp-20273,Ca3PbO,0.806943,-1.6928656602500003,0.0
mp-755144,NaLiO,4.405339,-1.692012447083333,0.0709427999999983
mp-753809,BaCaI4,4.934918,-1.691911365,0.0273774168749998
mp-14175,K3NbO8,4.419211,-1.6914625658333324,0.0
mp-753425,LiCuCO3,3.6438989999999998,-1.6914060527083332,0.0470840556250005
mp-14025,Zr2CuS4,0.0,-1.6904922844642871,0.0
mp-753575,BaCaI4,4.600993,-1.6902551866666666,0.0290335952083333
mp-771613,LiNiSnO4,1.108655,-1.6896452085714284,0.0079302020714218
mp-770991,Fe(SbO3)4,0.628857999999999,-1.6881522226470589,0.0820764702573599
mp-773257,Mn4NiO8,0.0,-1.6876846272184616,0.0860437904326962
mp-37879,LiYSe2,2.483867,-1.6870810974218755,0.0176355599999995
mp-36843,Mn2NiO4,0.213226,-1.6869017102742856,0.019138871587307
mp-559043,KLaGeS4,3.185965,-1.6865508808928582,0.0
mp-4280,GaCuO2,2.34778909,-1.6846623881249991,0.0
mp-11019,GaCuO2,2.1993,-1.684624740624999,3.7647499994797336e-05
mp-24113,SnH8(NF3)2,7.102969,-1.6842788338741177,0.0
mp-10486,Cd2As2O7,2.99884,-1.6838340962500007,0.0141240013636299
mp-19378,CrAgO2,2.614172,-1.6835684031250002,0.0
mp-10191,Lu2MgSe4,2.245705,-1.6829899191964282,0.0
mp-755293,Sr4Sb2O,1.800441999999999,-1.681349114464286,0.0
mp-753181,SrCu2O3,0.643621,-1.6808156039583335,0.0298492958333334
mp-1925,ZrS,0.0,-1.6782001820312509,0.0876396499999998
mp-504751,AsHPbO4,4.095863,-1.6781790390885711,0.0
mp-771740,Mn3TeO8,0.0,-1.6767246052400004,0.0692965397135383
mp-24589,K2HBrO,4.979514,-1.6763176589739994,0.0
mp-707891,Zn2P2HNO8,0.0,-1.6736454172993191,0.4430265204175745
mp-24844,MnCoO3,2.044235999999999,-1.6726331609419998,0.0268588073750102
mp-755243,Li5CuSO2,3.631258,-1.6716588085069437,0.0547069199305561
mp-13900,Sr(CuO)2,3.423771,-1.6716169075000002,0.0
mp-542980,FeHO2,2.597668,-1.6706363490299996,0.0297794159375008
mp-557762,TiS,0.0,-1.6695458086979176,0.1325089916666648
mp-770245,LiCrNiO4,0.603584,-1.6689101171428564,0.0853788195238056
mp-775094,Li2MnFe3O8,0.0,-1.6687232922114268,0.2784706119196443
mp-558992,In7GeIrO8,1.144335,-1.6678875049999993,0.0
mp-775528,Na2MnO2,1.283744,-1.667597586692,0.0350021686666668
mp-775620,CoOF,0.0,-1.667574539146666,0.0961609662499993
mp-766325,BaCaI4,4.467745,-1.6675430483333331,0.0517457335416664
mp-557959,Cr3O8,1.273162999999999,-1.667164699090909,0.0458171774999991
mp-36921,Mn2CuO4,0.0,-1.667080958845714,0.0539040554464218
mp-754850,NaTiS2,0.322893,-1.6668043299479178,0.0172541749999997
mp-4788,K(OsO3)2,0.0,-1.6651264386111109,0.0115043888888877
mp-773305,Mn3FeO8,0.0,-1.664718804406667,0.0861590053645882
mp-504747,V2Cu3O8,0.891473,-1.6645818676923068,0.0175869415384619
mp-757074,BaCa2I6,5.173712,-1.6635869755555557,0.0290128723611111
mp-975333,LiCaO3,0.0,-1.66223967675,0.3226425987499999
mp-18781,CrCdO4,3.458374999999999,-1.6609903391666674,0.0
mp-743660,FeHO2,2.6521280000000003,-1.6596791165300004,0.0407366484375
mp-769799,Na2FeO3,0.468134,-1.6592040389583331,0.0712824066666666
mp-560237,Cr3AgO8,2.156968,-1.6590212783333331,0.0
mp-3319,Mg(RhO2)2,2.863993,-1.6586750385714284,0.0113765196428561
mp-754381,Zr3N4,1.616097,-1.6581708935028558,0.0352984432142839
mp-4584,Tl3BO3,1.9784549999999999,-1.6575896679166668,0.0
mp-554198,CaMg(SiO)2,0.0,-1.6570261829166668,0.4759991887500021
mp-24007,Rb2HBrO,4.726732,-1.6555237409740002,0.0
mp-23262,Bi2O3,3.091218999999999,-1.6536358622499991,0.0
mp-755643,Rb3InO3,3.148651,-1.6532691676785716,0.0087665303571426
mp-773769,Li2MnCo3O8,0.0,-1.6531595600685711,0.0566147664285718
mp-559612,KLiO,3.869122,-1.65228926875,0.0134810233333331
mp-551561,K4CO4,3.4834259999999992,-1.6518033636111116,0.1886783627777744
mp-19292,Co(AsO3)2,3.009162,-1.6505343441666662,0.0
mp-753709,BaCaI4,4.156937,-1.650337265,0.0689755987499998
mp-754710,Sr2CaI6,4.838033,-1.6493202677777776,0.0396674938888894
mp-772689,Li2Fe3CuO8,0.0,-1.6492446900000002,0.0338403706250023
mp-543057,MnO2,0.759235,-1.6489983244866668,0.1615706641666667
mp-11661,Zr3N4,1.630110999999999,-1.6484117342171427,0.0450576024999982
mp-771866,LiV(TeO4)3,2.7549069999999998,-1.6470847744117654,0.0185188016176462
mp-552552,Na4CO4,2.703138,-1.6469868224999995,0.2311045066666688
mp-549869,K4CO4,4.021863,-1.6456189025000003,0.1948628238888856
mp-546643,K4CO4,3.243751999999999,-1.6451019436111112,0.195379782777775
mp-542054,Hg9(PO4)4,3.049559099999999,-1.6440822328407223,0.0135225852586149
mp-866834,Ca2SnS4,2.882642,-1.643490412321429,0.1261041117857138
mp-545820,SnO,1.053307,-1.643194120625,0.000990455000001
mp-754344,LiZnO2,0.0,-1.6424903243749998,0.0813906325000006
mp-34563,Mn2CuO4,0.47101699999999996,-1.6420994388457135,0.0788855754464217
mp-1581,As2O3,4.782090999999999,-1.6410440657499996,0.0
mp-1519,CaTe,2.53514394,-1.64081599,0.0
mp-981367,SrTlO3,0.0,-1.6407254057499998,0.2370037227499981
mp-767300,Li2Co3SnO8,0.0,-1.6394809117857148,0.1073986123214201
mp-771621,Li3Fe3O8,0.74751,-1.6390813521428578,0.1410803201785713
mp-754065,Hg(SbO3)2,1.423093999999999,-1.638200780833334,0.0
mp-773367,LiMnNiO4,0.7939350000000001,-1.6379546515657128,0.0030606219047637
mp-745173,Na3Cd4P6H10(ClO8)3,0.23501639000000002,-1.637452593191029,0.4669154558805513
mp-1582,As2O3,5.350602,-1.6345049982499993,0.0065390674999967
mp-19189,K2Co(SeO3)2,4.212648,-1.63413405497159,0.0
mp-13099,YN,3.06659377,-1.633592697440001,0.2483161299999992
mp-559437,Zn(CO2)2,5.087986,-1.633504346428572,0.0591808310714272
mp-767120,Mn2FeO6,0.739223,-1.6327452182688889,0.098235531874999
mp-754517,SrCa2I6,5.039276,-1.632736593333333,0.0313682775000008
mp-755382,BiSbO3,3.176084,-1.6323723157500003,0.0863335517272743
mp-23195,Bi2O3,2.59920234,-1.63093340275,0.0227024594999996
mp-25546,Mn(HO)2,2.792827,-1.629808576139999,0.0048715105000018
mp-556549,Bi2O3,3.17808819,-1.6292155517500002,0.0244203104999991
mp-757070,BaCaI4,4.182477,-1.6289029316666668,0.0904099320833329
mp-755350,BaLaI5,3.488566999999999,-1.628845062142857,0.0263819851785713
mp-12860,Na3Cu2SbO6,0.0,-1.6267216739583337,0.0393806833333325
mp-753983,In2HgO4,1.132377,-1.6263517285714286,0.0043104132142861
mp-768005,LiNiSnO4,1.116654,-1.626195507142857,0.0713799034999933
mp-12181,BaSnS2,2.241156,-1.6259278076562502,0.0
mp-36383,Ag3(PO4)2,1.2092827800000001,-1.6252169958608058,0.0
mp-23896,LuHCl,0.0,-1.6250726739599994,0.0
mp-20088,Na4PbO4,2.498392,-1.6248964633333345,0.0
mp-28223,LaSe2,2.145155,-1.6236390098958335,0.1335631408333331
mp-19091,CrO,0.0,-1.6232471306249998,0.3347320974999981
mp-7374,Ba(CuO)2,3.016255,-1.6232386784999997,0.0
mp-2600,BaTe,1.60002621,-1.62308854,0.1670796599999997
mp-773500,LiMnCuO4,1.497453999999999,-1.6214538629942865,0.0219865420238081
mp-27281,LiH3O2,6.316467999999999,-1.6205880205600005,0.0
mp-770398,NiSnO3,2.712408,-1.6198805507500011,0.0114595949999873
mp-550895,K4CO4,2.836797,-1.618211351388888,0.2222703749999972
mp-778416,Na3FeO4,1.869928,-1.6175692650000009,0.0083888308333319
mp-31584,Na3CoO3,3.188251,-1.6163126355357147,0.0
mp-754610,Sr3CaI8,4.10389,-1.6162418175,0.0789666668749999
mp-14222,TlGaO2,3.107176,-1.6161606106250002,0.1181305012499995
mp-19308,Li2NiO2,4.200277,-1.6139029094999997,0.0
mp-772359,Mn3CoO8,1.171638,-1.6138072335733329,0.0285601970833315
mp-767943,Li3FeCo3O8,0.0,-1.613591906,0.1456860971666733
mp-772731,Li2Co3TeO8,0.0,-1.612313958571429,0.078166562500046
mp-32493,V(HO)2,2.324947,-1.6121106509479983,0.1118549000000008
mp-23940,NaHO,4.455425,-1.6115090732899997,0.0018654566666702
mp-556565,KBrF4,2.556552,-1.6098861474600004,0.3831260916666657
mp-19363,HgMoO4,3.490025,-1.609815889999999,0.0
mp-28545,RbLiO,3.582683,-1.6081838487499995,0.0025335349999995
mp-35200,AlO3,0.0,-1.6071610796874998,0.5441598582812501
mp-18788,CrCoO4,2.251871999999999,-1.6060600608333324,0.0
mp-27782,XeIF7,4.572665,-1.6058475987033332,0.0
mp-37214,MnPbO3,0.0,-1.6028927069419994,0.1253827741250033
mp-977117,NaTeO3,0.0,-1.6026507717500005,0.1328441075624962
mp-756477,LiTeHO4,3.147158,-1.602618155517143,0.0644423917857155
mp-976133,NaAsO3,0.0,-1.6003468587500005,0.3053129479999992
mp-879,La3Te4,0.0,-1.5990395264285715,0.0009521083928607
mp-558172,Ca(PtO2)2,0.0,-1.5983152942857135,0.0840658035714296
mp-772593,Li2NiBiO4,0.0,-1.5981051612499997,0.0391655250694507
mp-27226,MgCu2O3,0.8438279999999999,-1.5980277431250005,0.0593107625000008
mp-773462,MnTeO4,0.525303,-1.5971733076600003,0.0842999935937518
mp-24433,KHSeO3,5.621099,-1.5970512384939586,0.0151882124999982
mp-11020,GaAgO2,1.704383,-1.5956507968749998,0.0
mp-661,AlN,5.5852074599999995,-1.5946309011899995,0.0
mp-33406,La2PbSe4,2.46574,-1.5945361791964283,0.0170986542857143
mp-13993,Ti3NiS6,0.0,-1.5940231504375006,0.0
mp-1560,LaTe,0.0,-1.5938471399999994,0.0
mp-756436,FeO,1.9687109999999999,-1.593333975625001,0.076046637500001
mp-28712,Si2Hg6O7,2.62366,-1.5933222165833334,0.0
mp-545541,Na4CO4,2.8229569999999993,-1.5919337369444446,0.2861575922222244
mp-542769,Sn(CO2)2,4.088753,-1.5915258157142844,0.0835690999999974
mp-753497,Li3TiS3,0.0,-1.5913337669791667,0.0838035600000015
mp-755705,SrLaI5,3.3944739999999998,-1.590592767142857,0.0279978810714287
mp-1782,ScSe,0.0,-1.5897162042968749,0.0
mp-756509,BaLaI5,3.922285,-1.5859101485714286,0.0693168987499999
mp-975190,RbTeO3,0.0,-1.5857240607500005,0.146384098000003
mp-560607,Sb2O3,1.806211,-1.5852412207499995,0.1813253575000004
mp-8943,PtF4,2.356618,-1.5851256459520002,0.0
mp-23684,NaHCO2,6.784066,-1.5847534757239998,0.0864601175000032
mp-550679,Rb4CO4,2.850607,-1.5831128447222227,0.2007197322222218
mp-555064,Cd(CO2)2,4.991937,-1.5817808607142854,0.0713507367857175
mp-771111,Li2Fe3NiO8,0.0,-1.580961891428572,0.0938112092633947
mp-978490,SiPdO3,0.0,-1.5787945867499993,0.7114853790000009
mp-545760,Rb4CO4,3.085687,-1.5764534958333334,0.2073790811111111
mp-2591,Ti3O,0.0,-1.5758900953125003,0.0
mp-550547,K4CO4,2.012992,-1.5753762891666665,0.2651054372222194
mp-769905,ZnFeO3,0.0,-1.5748759017500007,0.1092886893749991
mp-975106,Rb2Bi2O5,0.0,-1.5745187840277777,0.0
mp-773237,Mn5CuO12,0.6477689999999999,-1.5737622605444432,0.0521173751041681
mp-551886,Na4CO4,3.625605,-1.5733772380555555,0.304714091111113
mp-552623,Na4CO4,3.559364,-1.5723215280555551,0.3057698011111141
mp-9383,SrHfN2,1.34357389,-1.5719328349399992,0.0313905600000001
mp-645330,Cs4CO4,2.546196,-1.5708829547222225,0.2255446944444461
mp-25317,Li3(CuO2)2,1.2969140000000001,-1.5695342916666664,0.0323933116666665
mp-2384,LaP,0.0,-1.569414474047619,0.0
mp-31999,Na2MnO4,0.0,-1.5690369879942858,0.0788237691071431
mp-37036,Bi2O3,2.4550710000000002,-1.56236551075,0.0912703514999995
mp-708,LaAs,0.0,-1.5611686925000008,0.0
mp-551437,Rb4CO4,2.26458,-1.5607875813888892,0.2230449955555551
mp-1153,Li2S,4.43259282,-1.5607607646875,0.0
mp-775721,Li2FeCo3O8,0.0,-1.560605307857143,0.0748944524776833
mp-23934,PH6NO4,6.87127736,-1.5587878195579374,0.0016765743749935
mp-36915,K6Fe2O5,1.892067,-1.5579984827884608,0.0009629314497034
mp-754238,Li2CuBiO4,0.0,-1.55771150125,0.1050191626562399
mp-774910,LiSb(TeO4)3,2.289194,-1.5576668429411764,0.0283212288235272
mp-551736,K4CO4,3.837312,-1.557601245833334,0.2828804805555531
mp-545387,K4CO4,3.83648,-1.556158149166667,0.284323577222219
mp-9741,Na3Cd2IrO6,0.0,-1.556093128541666,0.0
mp-754844,Na2IrO3,0.11026599999999999,-1.5560590189583337,0.0
mp-541234,Cs2K4Fe2O5,2.358494,-1.555653922019231,0.0
mp-545630,K4CO4,3.409314,-1.5554242825000004,0.2850574438888857
mp-770107,Fe2CuO4,0.553304,-1.554892457857143,0.0647656607142819
mp-933,YAs,0.0,-1.55395215375,0.0
mp-9517,SrTiN2,1.900988,-1.5537040803566669,0.0
mp-973123,ScPdO3,0.0,-1.5533385607499994,0.8204817158749975
mp-984745,CsSnO3,0.0,-1.55308700175,0.2636802893333341
mp-14024,Zr3O,0.0,-1.5519429703125,8.690874999928155e-05
mp-4009,BaPdS2,1.3938190000000001,-1.5518796032812512,0.0
mp-1009885,ZrN,0.0,-1.5517311711899993,0.3185073550000013
mp-703295,SrH2I2O,4.81605,-1.5515577793316666,0.0007942937499993
mp-8806,Sr2Cu2O3,0.0,-1.55056499625,0.5488339285714314
mp-19384,Ni(AsO3)2,3.5245990000000003,-1.5503590708333332,0.0
mp-971633,NaFeO2,2.488766,-1.550191704375,0.3873836749999997
mp-775052,Li2CoCuO4,0.0,-1.548892678125,0.0739789724999973
mp-707206,TeP6H30(NO4)6,5.26726256,-1.5488401133052447,0.0376122243295524
mp-23259,LiBr,6.09059829,-1.54784428,0.0254924700000001
mp-1017,Zr3O,0.0,-1.5477366690624992,0.0042932100000001
mp-540783,OsO4,4.769997,-1.5473536280000004,0.0
mp-551905,OsO4,4.602264,-1.5464383099999992,0.0009153180000032
mp-7206,TcAgO4,2.897615,-1.5463401149999996,0.0
mp-19147,NiCO3,3.9912289999999992,-1.5463232302500003,0.0
mp-973958,KRuO3,0.0,-1.5458835897500007,0.1079295664999993
mp-32011,Mn2NiO4,0.0,-1.545409851702857,0.1606307301587355
mp-977107,NaRuO3,0.0,-1.5448121667500003,0.0806686258749964
mp-24842,KCoO2,2.581682,-1.5425503731249997,0.0
mp-774401,CoSbO4,0.0,-1.5425119783333336,0.1224357810416716
mp-773515,Te3WO12,2.809614,-1.5403998953125004,0.0096945306250013
mp-549697,RbGeIO6,3.946098,-1.5380774913888893,0.0
mp-754198,Ba(LaI4)2,3.361671,-1.5378223227272727,0.0780969419318178
mp-36733,La2CdSe4,1.640145,-1.5376875220535715,0.0922934235714274
mp-756570,Rb4SnO3,2.236465,-1.53754982484375,0.0
mp-684617,Bi2O3,1.428016,-1.5356614294166668,0.1179744328333329
mp-985586,Na3BrO,3.189552,-1.5336462912500004,0.0
mp-3951,Ti2CuS4,0.0,-1.5332723649404778,0.0
mp-10322,BaHfN2,2.369363,-1.532714048689999,0.0
mp-545,TiS,0.0,-1.5316205328645838,0.270434267499998
mp-33546,Fe2CuO4,0.568417,-1.5305422257142862,0.0891158928571389
mp-25524,FeAs2O7,0.0,-1.5298736758749996,0.0869757798958357
mp-757826,CsCa(NO2)3,4.556236,-1.5296527576945456,0.0477798358211725
mp-36069,Co2TcO4,0.0,-1.5291227278571426,0.0451762228571439
mp-773467,Li2Ni3WO8,0.0,-1.5284781071428577,0.060261335357139
mp-772160,SrLaI5,3.299019,-1.5272015342857144,0.0913891139285714
mp-24090,BaH4(IO)2,4.830621,-1.5250850707755557,0.0019224529166663
mp-756182,RbHO,4.595284,-1.5246812032900003,0.0510020833333317
mp-773317,LiFe5O8,1.651098999999999,-1.5242613785714292,0.4163866510714272
mp-772550,CrO3,3.707521,-1.5234127884374995,0.0468205984375007
mp-7486,BaNiS2,0.0,-1.5229609720312505,0.0351715136458308
mp-33332,Co5SbO8,0.040484,-1.5227340389285706,0.0117478467857043
mp-552966,Rb4CO4,1.929997,-1.522084909166666,0.2617476677777786
mp-551267,Rb4CO4,1.623006,-1.5219801258333336,0.2618524511111104
mp-3315,CaPd3O4,0.10802900000000001,-1.5193191512500004,0.0
mp-754144,BaYI5,3.912972,-1.5188501432142856,0.0761112223214302
mp-546320,Rb4CO4,3.182334,-1.5186097491666668,0.2652228277777775
mp-550314,Rb4CO4,3.061293,-1.5183765802777782,0.2654559966666658
mp-11021,GaAuO2,0.649668,-1.5158893506250006,0.0068309381249997
mp-1175,SrS3,2.095441,-1.515703918046876,0.0
mp-985571,LiAg(CO2)2,4.230643,-1.513877915,0.1699211723437494
mp-985572,LiAg(CO2)2,4.359040999999999,-1.5125314925,0.1712675948437496