mpid,formula,BG,FE,e_hull
mp-10046,V2AsC,0.0,-0.5330320281249996,0.0
mp-754515,BaMgGe,0.0,-0.5327240749999996,0.0
mp-11541,ZrOs,0.0,-0.5326788775000004,0.0
mp-14285,CoP2,0.817205,-0.5324979120634921,0.0
mp-16336,Zr2Fe3Si,0.0,-0.5324660808333341,0.0
mp-2568,YSi2,0.0,-0.5321641041666668,0.0368688766666664
mp-3345,Cu3AsS4,0.711805,-0.5309425257812501,0.0
mp-975405,RbAuO3,0.0,-0.5300150567499997,0.3875999507500003
mp-555599,CuS,0.0,-0.529884481197918,0.0
mp-9374,MnMoN2,0.0,-0.5294875424400001,0.0
mp-504,CuS,0.0,-0.5294800836979169,0.000404397500004
mp-867146,ScNbRu2,0.0,-0.5288812700000012,0.0
mp-924130,TiNiSn,0.597766,-0.5288314605555549,0.0
mp-9381,Zr6FeTe2,0.0,-0.5287793733333344,0.0
mp-11755,Lu6Sb2Mo,0.0,-0.5287751999999999,0.0
mp-504100,CuO2,0.0,-0.5282932766666661,0.1741395939583343
mp-16733,Sc2GaC,0.0,-0.527842266875,0.0574272497499999
mp-2319,P2Os,1.4339,-0.5274748303968243,0.0
mp-16043,Mg(As2Rh3)2,0.0,-0.5274488154545467,0.0085892606818189
mp-13383,ScAg(PSe3)2,2.57941,-0.526871727275298,0.0
mp-975274,RbNaO3,0.0,-0.5267154177500004,0.5785062053333347
mp-24513,YH3,0.0,-0.5261131945899997,0.1854463162500002
mp-8857,Cs2As2Pd,1.72166,-0.5251159070000007,0.0
mp-10744,Si3Pt2,0.0,-0.5242742090000008,0.0135564729999995
mp-13416,Sc2InNi2,0.0,-0.5241558140000002,0.0
mp-973968,KNaO3,0.0,-0.5241443157500001,0.587716098333336
mp-8780,Cr2N,0.0,-0.5240482974599985,0.0
mp-10607,Lu3TlC,0.0,-0.5239317184999998,0.0
mp-16263,CaZnGe,0.131054,-0.5228508600000001,0.0
mp-2399,YHg,0.0,-0.5226592762499997,0.0
mp-1032,Ta2B,0.0,-0.5223707405555551,0.0390925775000017
mp-12962,Zr6FeSb2,0.0,-0.5221259088888878,0.0
mp-28613,LiBPt3,0.0,-0.5200118973333332,0.0
mp-9124,LiZnAs,1.31436915,-0.5199398299999997,0.0
mp-15686,Li2CuAs,0.0,-0.5199307587499997,0.0
mp-541310,CaGaGe,0.0,-0.5197340441666665,0.0
mp-12505,LuAgSn,0.0,-0.519615115,0.0
mp-2513,As2Pt,0.439909999999999,-0.5184761108333333,0.0
mp-13363,SiPt3,0.0,-0.5183041600000005,0.0235221324999992
mp-24428,KH2N,3.369328,-0.5172406011549997,0.0
mp-979423,YGa3,0.0,-0.5170682681249996,0.0177193787499998
mp-4081,TaCu3Se4,2.500168,-0.5167418467968741,0.0
mp-12274,LaAl4Co,0.0,-0.5163209233333331,0.0
mp-3312,Cs(SbSe2)2,1.7022190000000001,-0.5155635213392854,0.0
mp-4043,NbCu3Se4,2.193833,-0.5153726330468746,0.0
mp-718,SnPd3,0.0,-0.5149927662499998,0.0
mp-16228,YS2,0.0,-0.5147639052083335,1.54964487154514
mp-752735,PdO2,0.0,-0.5146462441666664,0.2255619133333333
mp-28118,AlSbI6,2.953710999999999,-0.5146130762499999,0.0027504087499998
mp-867242,Sc2ZnGa,0.0,-0.5139945637499999,0.0
mp-7432,Sr(CdSb)2,0.597513,-0.5137577319999999,0.0
mp-7090,NaMgSb,1.797676,-0.5133507983333331,0.0
mp-5590,YMgGa,0.0,-0.5126159463888887,0.0
mp-977427,Zn2PtRh,0.0,-0.5124394099999998,0.0
mp-976229,KAgO3,0.0,-0.5117128807500002,0.3204902577500004
mp-977013,H6PbCI3N,2.132531,-0.5112698434666664,0.0434667484375008
mp-871,FeSi,1.204432999999999,-0.51095827375,0.0
mp-5031,TaSiAs,0.0,-0.5101364499999997,0.0
mp-1707,BaN6,4.975617,-0.5099432020399998,0.0
mp-3909,ZrAlCo2,0.0,-0.5091190025000003,0.0
mp-11284,CaGa2,0.0,-0.5087433800000003,0.0
mp-12952,HfGaAu,0.0,-0.508516255,0.0
mp-3608,LuAgSn,0.0,-0.5084435294444442,0.0111715855555551
mp-31160,CaZnSn,0.0,-0.5081527299999996,0.0
mp-19906,Zr2InNi2,0.0,-0.5063730700000015,0.0026972019999957
mp-11573,TiTc,0.0,-0.5059743433333335,0.0
mp-2449,NbRh3,0.0,-0.5057387325000011,0.0
mp-15120,RbFe2Se3,0.0,-0.5051948059635419,0.0271219849999999
mp-13570,Mg(ScGa)2,0.0,-0.5046176870000003,0.0
mp-3348,LiBIr,0.41614300000000004,-0.5039243530555547,0.0
mp-33723,BiTeBr,2.31804992,-0.5030302416666667,0.0
mp-11521,ScNi,0.0,-0.5030263350000004,0.0
mp-19797,YMnGe,0.0,-0.502984039166666,0.0951187049999964
mp-15954,As2Rh,0.5628369999999999,-0.5027580499999994,0.0
mp-545619,HgO,0.0,-0.5024040756249994,0.1442451787500012
mp-11250,Mg2Au,0.0,-0.5023470728703706,0.0
mp-10181,LiSiNi2,0.0,-0.5022449274999996,0.0
mp-9676,K2NaGaAs2,1.241194,-0.5021244849999998,0.0
mp-351,SiNi,0.0,-0.5019654950000003,0.0
mp-19792,Zr(Fe2Si)2,0.0,-0.5017015392857148,0.0
mp-1359,NbIr,0.0,-0.5015304349999994,0.0
mp-11572,TaTc,0.0,-0.5014102000000005,0.0
mp-9798,Rb(SbSe2)2,1.678965,-0.5012708220535715,0.0
mp-13406,LaAgPb,0.0,-0.50070047,0.0
mp-15987,Hf3(Cu2Si)2,0.0,-0.5003773205555552,0.0
mp-16490,Lu2Al3Co,0.0,-0.5002219875000004,0.0
mp-10712,ScRh3C,0.0,-0.5000679155000001,0.0
mp-972777,Si2OsRu,0.0,-0.4991908400000007,0.013762585416666
mp-504691,LiMnP,0.0,-0.4991555360317458,0.1188264272222223
mp-13446,Co2P,0.0,-0.4987287493650798,0.0239045649999942
mp-182,SrGa2,0.0,-0.4978567366666669,0.0
mp-10566,Lu3BC3,0.0,-0.4971628098809516,0.0
mp-502,As4S5,2.830422,-0.4971522083680561,0.0027405508333337
mp-11743,LiYGa4,0.0,-0.4965846637499999,0.0
mp-4612,TiCo2Ge,0.0,-0.4964841254166671,0.0
mp-7773,Na2AsAu,0.853723,-0.4961980812499998,0.0
mp-7390,SrGe2,1.454895,-0.4960558500000006,0.0
mp-19940,VAs,0.0,-0.4958719662500002,0.0
mp-12071,Ti3As,0.0,-0.4958289962500011,0.0255397555555543
mp-16481,TiAlAu,0.0,-0.495314350555556,0.0
mp-10013,SnS,0.61293916,-0.4952926895312508,0.2802868175000004
mp-15297,Hf6NiSb2,0.0,-0.4951316744444448,0.0
mp-973540,LuAlB4,0.0,-0.4949211411111101,0.0035342241666675
mp-9797,K(SbSe2)2,1.706906,-0.4942876956249996,0.0006115965290174
mp-11460,HfTc,0.0,-0.494258587500001,0.0
mp-1281,VIr,0.0,-0.4936758099999992,0.0240401650000006
mp-13445,Rb2As2Pt,1.19386,-0.492438619,0.0
mp-11576,YbTl,0.0,-0.4915421474999997,0.0
mp-697179,ZrH,0.0,-0.4915275355600004,0.0
mp-2694,LaAl2,0.0,-0.4912335416666664,0.0
mp-5419,LiGa2Ir,0.0,-0.4907642275000006,0.0
mp-734,LaHg,0.0,-0.4900136799999997,0.0
mp-9687,K2PAu,1.512712,-0.4892646470238096,0.0
mp-978846,SnI2,1.7848950000000001,-0.4887889583333329,0.0065769811111113
mp-13922,Ba2Ge,0.345501,-0.4885780249999995,0.0
mp-554304,Bi2Pd3S2,0.0,-0.4878027040178569,0.0630226028571403
mp-28767,Sc5Re2C7,0.0,-0.4873905580357142,0.0
mp-932,ScGa3,0.0,-0.4873722699999998,0.0
mp-35777,Mg(InTe2)2,1.317059,-0.4866175471428572,0.0
mp-9386,CsAu3Se2,3.237033,-0.48610154453125,0.0
mp-23376,GaSeBr7,3.120892,-0.486033396510417,0.0
mp-27413,Mo8P5,0.0,-0.4856899284981685,0.0221627626923055
mp-15985,Zr3(Cu2Ge)2,0.0,-0.485648824444444,0.0
mp-975237,Rb(TeMo)3,0.0,-0.4848382614285711,0.0
mp-10601,Y3GaC,0.0,-0.484646179,0.0
mp-2006,V3Ir,0.0,-0.4845412487500002,0.0
mp-15661,Sc4C3,0.982993999999999,-0.4843806046428573,0.0
mp-11463,LaHg2,0.0,-0.4839903700000002,0.0
mp-1234,LuAl2,0.0,-0.4835973866666663,0.0
mp-10711,VSi2,0.0,-0.4830581955555557,0.0
mp-11190,VSi2,0.0,-0.4830566400000009,1.5555555554769285e-06
mp-9562,LiBeAs,1.602943,-0.4830512833333334,0.0
mp-866820,CaSnS3,0.0,-0.482703599437501,1.0025228657499996
mp-7559,YNi4B,0.0,-0.4825605106944444,0.0
mp-28483,WBr6,1.816382,-0.4820942771428568,0.0
mp-11472,SrHg2,0.0,-0.4817259766666666,0.0010420016666667
mp-1055,CdSe,0.0,-0.4816189017968751,0.1457706949999999
mp-1409,TiNi3,0.0,-0.4812731435416673,0.0
mp-5019,YCo3B2,0.0,-0.4810046059722216,0.0006857899999994
mp-7431,Sr(ZnSb)2,0.308913,-0.4808732299999999,0.0
mp-8969,Mg2Ni3P,0.0,-0.4805696313492067,0.0
mp-7753,MgPd3,0.0,-0.4795856150000004,0.0085313862499996
mp-3411,Tl(MoSe)3,0.0,-0.4794535779687499,0.0
mp-983458,Tl3Cl,0.0,-0.479435615815,0.1766904237500002
mp-3880,Cr2CuSe4,0.0,-0.4792827377678575,0.0
mp-19879,PPd3,0.0,-0.4792582495238094,0.0
mp-7434,NaCuTe,1.8158340000000002,-0.479182225,0.0100348041666671
mp-11192,TaSi2,0.0,-0.478052861111111,0.0
mp-8881,AlAs,2.46907845,-0.47766398,0.0062727625
mp-11285,Ca3(GaNi)4,0.0,-0.477460271818183,0.0
mp-676,CaN6,4.605931,-0.4774510777542856,0.0
mp-23292,HgBr2,3.607982,-0.4773990083333333,0.0
mp-976783,Ge3F,0.0,-0.4765986327974994,0.4266344868749998
mp-707727,H2C2N2O,5.433653,-0.4765323783214279,0.1952968985431739
mp-11431,CaGa3Ni2,0.0,-0.4761587825,0.0
mp-542640,GePt,0.0,-0.4752825424999996,0.0
mp-13286,CaGe2,0.0,-0.4751167033333328,0.0069079433333332
mp-1024,CaGe2,0.0,-0.4749900949999996,0.0070345516666669
mp-7421,KZnAs,0.810794,-0.4743590233333333,0.0
mp-7080,Li5(NiN)3,0.0,-0.4741750688309084,0.0
mp-983566,Ca2AgGe,0.0,-0.4740702262499998,0.0268354896875004
mp-977563,LiNbIr2,0.0,-0.4739120425000003,0.0
mp-11546,TiPd,0.0,-0.4736830333333337,0.0713236249999997
mp-32679,Nb10C7,0.0,-0.473669294852942,0.0389387170588229
mp-3471,La2Ni5B4,0.0,-0.4729925024242425,0.0
mp-1008813,RbAgO,0.8394400000000001,-0.4728480504166666,0.5415350758333366
mp-612,PS,3.538506,-0.4721385017038697,0.0208203491796883
mp-975421,RbAgO3,0.0,-0.4719932307500002,0.3480936857499985
mp-15649,As2Ir,1.3844400000000001,-0.4719529683333323,0.0
mp-644203,CsCaH3,4.286211,-0.471937307172,0.0122608472500003
mp-10580,La(AlGe)2,0.0,-0.47167277,0.0
mp-11816,BaCdGe,0.0,-0.4707546866666664,0.0
mp-985828,AgBiS2,0.0,-0.4702272657812498,0.1051758595833343
mp-20074,SrIn2,0.0,-0.4700199833333329,0.0
mp-13272,BaAlGe,0.0,-0.4698947616666669,0.0
mp-13311,SrAlGe,0.0,-0.4697779750000001,0.0
mp-867979,LaInHg2,0.0,-0.4692084724999997,0.0
mp-9273,K3Sb2Au3,1.651973,-0.4691715625000002,0.0
mp-20263,CaIn,0.0,-0.4690964500000003,0.0
mp-15226,CrWN2,0.0,-0.4683867461899993,0.0592366212499992
mp-4382,YB2Ru3,0.0,-0.4682349634722224,0.0
mp-2379,CoSi2,0.0,-0.4681386999999996,0.0029558866666663
mp-1219,BaGa2,0.0,-0.46775609,0.0
mp-672271,NbSe2,0.0,-0.4673887582291663,0.3714788474999988
mp-1172,MgRh,0.0,-0.4672153349999997,0.0
mp-15687,KZnAs,0.7885168300000001,-0.4665528666666668,0.0078061566666662
mp-5498,Ca(MnAs)2,0.362105,-0.4665290599999992,0.0797128071071435
mp-9344,TiTlCuTe3,0.646779,-0.4661546186111109,0.0
mp-11073,Ti3In3Rh2,0.0,-0.4660927487500004,0.0
mp-9274,Rb3Sb2Au3,1.7912839999999999,-0.4660550175,0.0
mp-16421,Zr2CuSb3,0.0,-0.4660511541666672,0.0517222689583345
mp-317,SnRh,0.0,-0.4658863887500005,0.0
mp-23317,AsBr3,4.151391,-0.4656044862499997,0.0
mp-1431,MnSi,0.0,-0.4655347787499995,0.0
mp-2567,V3Si,0.0,-0.4652579024999994,0.0
mp-554212,Tl2Ni3S2,0.0,-0.4648467868749999,0.0038360360714282
mp-23949,RbCaH3,4.4386969999999994,-0.4645535591719991,0.0179919985000007
mp-1123,HgS,0.22109536000000002,-0.4641677720312498,0.0
mp-15779,Mg2SiNi3,0.0,-0.464142185,0.0
mp-12752,Zr4Al3,0.0,-0.4641296057142869,0.0
mp-2682,Sb2Rh,0.337999,-0.4638313450000003,0.0
mp-8938,Si2Mo,0.5543290000000001,-0.4637800388888896,0.0286197944444435
mp-2767,TiGa,0.0,-0.4637243033333336,0.0
mp-754628,WN2,1.6423329999999992,-0.4633599740866655,0.0577194374999994
mp-7774,Na2SbAu,0.941778,-0.4632871062500002,0.0
mp-34371,AgSbS2,0.0,-0.4632775882812501,0.0620957412500002
mp-3340,TaAlCo2,0.0,-0.4632442599999997,0.0
mp-978854,Sr(GaH)2,0.9636990000000001,-0.463108947448,0.0
mp-11495,LuRu,0.0,-0.4631008925,0.0
mp-3699,CoAsS,0.0,-0.4627258330208335,0.1985813283333328
mp-406,CdTe,1.256177479999999,-0.4625227525,0.0
mp-7759,BaSn3,0.0,-0.4624550162500003,0.0
mp-13053,SrSi,0.0,-0.4609124675,0.0074212949999994
mp-3274,NiGePd,0.0,-0.4608528566666668,0.0
mp-13036,MoN,0.0,-0.4607527561900007,0.0875631143749995
mp-1033,BeNi,0.0,-0.4597720125000002,0.0
mp-7430,Ca(CdSb)2,0.854795,-0.4594745059999997,0.0
mp-11288,Ca3Hg2,0.0,-0.4592272190000001,0.0
mp-778,Fe2P,0.0,-0.4590584593650802,0.0
mp-12779,CdTe,1.29214301,-0.4585080275000002,0.0040147249999997
mp-7437,KZnP,1.536536,-0.458029236031746,0.0
mp-1424,GePd,0.0,-0.4575263649999997,0.0
mp-685146,CdTe,1.345445,-0.4573804225,0.0051423299999999
mp-23758,KNa(BH4)2,7.6294640000000005,-0.4572232289411105,0.0020652475
mp-961710,VSiPt,0.0,-0.4565258700000001,0.1881450362121226
mp-910,NbC,0.0,-0.4564894787499991,0.0395830727083339
mp-13005,LaCrGe3,0.0,-0.4558272899999992,0.0
mp-7564,Nb3Te4,0.0,-0.4558113021428564,0.0
mp-485,ZrNi3,0.0,-0.4554116062500002,0.0
mp-19962,Sn2Pt,0.0,-0.4553486233333324,0.0
mp-713,KAs,1.214108,-0.4553204787499996,0.0
mp-555484,VS2Br2N3,2.355787,-0.4547557975331245,0.1091560613317641
mp-867137,ScVRu2,0.0,-0.4541460350000008,0.0
mp-9385,RbAu3Se2,2.865919,-0.4539282395312506,0.0
mp-977462,ZrCdAu2,0.0,-0.4534505612500004,0.0
mp-1009581,CrSe2,0.0,-0.4533147257291669,0.0
mp-973572,La2TlHg,0.0,-0.4531227812499998,0.0
mp-31458,TiSbRu,0.0,-0.4525451222222223,0.0925433979166676
mp-19809,MnCoSi,0.0,-0.4524381558333322,0.0048429795833335
mp-754629,WN2,1.953028,-0.4524111015866655,0.0686683099999996
mp-19905,Co2Si,0.0,-0.452055654166666,0.0
mp-1008632,V2C,0.0,-0.4512245758333317,0.0195546358333338
mp-27173,P4Ru,2.100934999999999,-0.4510653881428576,0.0
mp-2341,Li3N,2.284911,-0.4509788005949997,0.0096744400000003
mp-27801,TlAgI2,2.29533,-0.4505758037500001,0.0319118399999998
mp-867274,Be2CoIr,0.0,-0.4504391000000005,0.0
mp-12521,SrNi3Ge2,0.0,-0.4499655050000004,0.0
mp-1831,SrAu5,0.0,-0.4498332366666665,0.0
mp-14432,GaTe4(MoSe)4,0.0,-0.4497096964903842,0.0128151236538451
mp-973456,Lu2TcAu,0.0,-0.4495620075,0.101606594375001
mp-2517,Ca2Si,0.6979960000000001,-0.4480333025000001,0.0
mp-8732,Ta2Se,0.0,-0.4474812811979163,0.0
mp-5602,Cr2HgSe4,0.28196899999999997,-0.4473507341964285,0.0
mp-4343,Sr(MnAs)2,0.38217599999999996,-0.4472398139999996,0.0922221388333346
mp-331,ScAl,0.0,-0.4471662649999999,0.0
mp-10366,Nb2Co3Si,0.0,-0.4467702408333321,0.0
mp-973648,FeRhO3,0.0,-0.4467355827500008,1.0523362067499988
mp-1008527,B2CN,0.0,-0.4464410233033336,0.3105550269711532
mp-8683,K5As2Au,0.8692169999999999,-0.4459895606249997,0.0
mp-13427,Sr3Hg2,0.0,-0.445814249,0.0
mp-7084,SrCaSi,0.852252,-0.4453803024999997,0.0
mp-541487,TlPt2Se3,1.147632,-0.445333548463541,0.0
mp-11287,CaHg2,0.0,-0.4437289233333333,0.0
mp-12657,HfAl2,0.0,-0.4433671449999987,0.0
mp-16266,CaZnSi,0.0,-0.4432969250000003,0.0
mp-2318,Nb2C,0.0,-0.4432526725000005,0.0169915916666667
mp-28614,NaBPt3,0.0,-0.4432336933333332,0.0
mp-980948,SrCaIn2,0.0,-0.4428492425000004,0.01291784
mp-372,VPt3,0.0,-0.4426651749999992,0.0131511800000003
mp-35082,BH6N,7.511732,-0.4425488738458334,0.0
mp-7429,Ca(ZnSb)2,0.438303,-0.4419387479999997,0.0
mp-959,LaAl3,0.0,-0.4405001087500002,0.0
mp-5549,MgSnAu,0.0,-0.4398083983333329,0.0
mp-4563,Ti3TlC,0.0,-0.4397290184999989,0.0097795026666664
mp-16544,Mg4As6Ir7,0.0,-0.4392897005882349,0.0
mp-4664,MnGeRh2,0.0,-0.4390723762499995,0.0
mp-973996,Lu2GaCu,0.0,-0.4388545625000004,0.0
mp-10852,La(BC)2,0.0,-0.4380232416666672,0.0
mp-12815,Na2LiAu3,0.0,-0.4380079541666671,0.0
mp-20227,NaMnP,0.0,-0.4378001326984121,0.0215117566666656
mp-867243,Sc2ZnOs,0.0,-0.4374666600000001,0.0
mp-961652,ZrFeSb,0.0,-0.4368261249999996,0.040141421666668
mp-1364,YNi,0.0,-0.4367160349999999,0.0
mp-4990,MnSnRh2,0.0,-0.4363250912499996,0.0
mp-2451,YAl3,0.0,-0.4362635081250001,0.0019184237499993
mp-13070,Sc2AlC,0.0,-0.4362139093749997,0.102679622812496
mp-34663,NaAsSe2,0.5739080000000001,-0.4358772367968746,0.1158925859374999
mp-30946,Ga2PdI8,2.3114,-0.4357892736363637,0.0
mp-10379,Hf3(Cu2Ge)2,0.0,-0.4351821472222213,0.0
mp-9556,SrZnSi,0.0,-0.4351244666666669,0.0
mp-20195,LaMnGe,0.0,-0.4348898483333332,0.1281925966666666
mp-961718,TiAsRh,0.0,-0.4346482238888889,0.4441644141666661
mp-2861,CaTl,0.0,-0.4342483825000003,0.0
mp-867915,ScGaCo2,0.0,-0.4338670875000004,0.0
mp-27844,NiP,0.0,-0.4338474615476189,0.0184100291666657
mp-1009733,Ca2Si,1.078513109999999,-0.4336801766666672,0.0143531258333329
mp-1536,KSb,1.333694999999999,-0.433392864375,0.0
mp-691,SnSe,1.02795,-0.4328877942968749,0.0
mp-754064,MnP2,0.0,-0.4328256937301577,0.0442083735185203
mp-9251,TlTe3Pt2,0.867404,-0.4328181349999997,0.0
mp-7352,MgCuP,0.606314999999999,-0.4327487626984124,0.0
mp-28266,P2Pd,1.2857020000000001,-0.4325386020634928,0.0
mp-5473,CaMgSi,0.297932,-0.4321344500000001,0.0
mp-11977,LiSnAu,0.0,-0.4320272533333327,0.0
mp-977544,Hf2ReNi,0.0,-0.4310579487499986,0.0
mp-559634,Ni3(BiS)2,0.0,-0.4302303440178577,0.0525336342857141
mp-2744,LiPd,0.0,-0.4301554949999997,0.0
mp-743,RbN3,5.35569,-0.4300943855349999,0.0
mp-1773,ReB2,0.0,-0.4297263911111114,0.0
mp-867770,BaHg3,0.0,-0.4295864287500001,0.0
mp-2331,B2Mo,0.0,-0.4289868177777785,0.0030629116666656
mp-13396,LiIn2Rh,0.0,-0.4285431449999999,0.0
mp-20152,In(MoSe)3,0.0,-0.427336910111607,0.0102112228571416
mp-676295,Li3MnP2,0.0,-0.4273249626984115,0.2442393474999997
mp-31509,BaIn,0.0,-0.4272156524999997,0.0
mp-2434,SrTl,0.0,-0.4270001324999999,0.0
mp-4813,NbAlNi2,0.0,-0.4259350825000005,0.0
mp-2717,Zr2Ni7,0.0,-0.4256779872222225,0.0
mp-11471,ScHg,0.0,-0.42552111,0.0
mp-10487,RbSb,1.233811,-0.4252624862499999,0.0005923724999998
mp-977453,Ca2CdIn,0.0,-0.4248198537499999,0.0
mp-961683,LiMgP,2.59182035,-0.4243227960317461,0.3397286633333336
mp-899,InRh,0.0,-0.4241688899999998,0.0
mp-755328,ZrSn2,0.0,-0.4241133433333329,0.0
mp-38725,NaBH4,7.7986889999999995,-0.4240827618577777,0.0001712658333339
mp-962069,LiAgTe,0.297095,-0.4239905766666663,0.1300171662500004
mp-1922,RuSe2,1.142039,-0.4231716198958336,0.0
mp-1008526,B2CN,0.0,-0.4226794058033336,0.3343166444711532
mp-867227,Li3Pt,0.0,-0.4219912200000002,0.0
mp-552265,Bi2SeO2,0.0,-0.4219501382187495,0.8438604880000007
mp-972119,SrCaTl2,0.0,-0.4215498125000003,0.0090744449999999
mp-2845,SbPt,0.0,-0.421447615,0.0
mp-1136,Na3As,0.583399,-0.42136513125,0.0012181049999999
mp-1013524,Ca3N2,0.6400520000000001,-0.4213544629519994,0.5112616037500004
mp-1019,YNi2,0.0,-0.4211856125000004,0.0
mp-31441,Li2GaIr,0.0,-0.4211003574999999,0.0
mp-9697,Cs6GaSb3,0.955429,-0.4210081920000004,0.0
mp-13097,NaZnAs,0.940546999999999,-0.4208689066666664,0.0
mp-4515,Ag3SbS3,1.707274,-0.4196159531696431,0.0022805074999991
mp-11229,YAl,0.0,-0.41955691125,0.0125858524999991
mp-11217,SrAgSb,0.0,-0.4191584083333335,0.2105921201388865
mp-867829,LiVRh2,0.0,-0.4189714675000005,0.0
mp-1605,Ag3O4,0.0,-0.4187488807142858,0.0
mp-961698,LiZnP,2.04568366,-0.4187045143650791,0.1325973600000001
mp-2743,LiPd,0.0,-0.41800908,0.0121464149999996
mp-2647,Al2Au,0.0,-0.4176281333333331,0.0031178466666661
mp-2659,LiN3,4.87243521,-0.4172290142849988,0.0
mp-10521,Y(AlGe)2,0.0,-0.4167910325000001,0.0
mp-12520,SrNi2Ge,0.0,-0.4166472525000007,0.0
mp-27910,Bi2Te2S,0.9879720000000001,-0.4158303768125002,0.0
mp-4368,SbPdSe,0.0,-0.4149754328645834,0.0
mp-4955,AlVCo2,0.0,-0.4145613749999999,0.0
mp-875,AlOs,0.0,-0.4140713724999996,0.0079363562499965
mp-10178,LiMgP,0.5018940000000001,-0.4132695393650791,0.3507819200000006
mp-976181,NaBH4,7.803135,-0.4130110493577774,0.0112429783333363
mp-11488,LaTl,0.0,-0.4127359474999999,0.0
mp-974463,LaAg2Sn,0.0,-0.4124544637499996,0.0
mp-1288,AgO,0.7990400000000001,-0.4120278356249996,0.0426878300000002
mp-1479,BP,2.053402,-0.4119831823809523,0.0
mp-19789,Mn(BW)2,0.0,-0.4114277656666673,0.0
mp-972935,ScZnNi2,0.0,-0.4114014662499992,0.0122519367532465
mp-867271,Be2CoNi,0.0,-0.4108970925,0.0
mp-16253,BaCaSi,0.6124839999999999,-0.4108505233333333,0.0
mp-982243,Y3Sn,0.0,-0.4103544718749994,0.1045529679166668
mp-1282,VC,0.0,-0.4100693887500011,0.088383057152777
mp-954,BaB6,0.367861,-0.4095804585714293,0.0
mp-11533,ZrZnNi4,0.0,-0.4088748375000009,0.0
mp-4824,NaZnP,1.559763,-0.4088179426984127,0.0
mp-982376,SrHg3,0.0,-0.40857564125,0.0112080274999999
mp-2490,GaP,2.27876965,-0.4084357740476197,0.0
mp-14017,K3Sb,0.948585,-0.4082847837499997,0.0
mp-11808,ScNi4Sn,0.0,-0.4080061591666665,0.0
mp-10374,Cr3PtN,0.0,-0.4078954744759997,0.0
mp-19835,Nb2InC,0.0,-0.4078334781249993,0.0021570050000008
mp-5443,Nb2SnC,0.0,-0.4076536768750003,0.0
mp-9675,Cs3BP2,2.305303,-0.407140630476191,0.0
mp-13920,Ba(ZnSn)2,0.0,-0.4066530270000001,0.0
mp-754,Te2Rh,0.0,-0.4065956449999994,0.0
mp-11247,Li3Au,0.0,-0.4060636099999999,0.0
mp-7554,LiMgSnAu,0.0,-0.4057877462499997,0.0628302535763882
mp-16491,SrAl9Co2,0.0,-0.4056013000000001,0.0
mp-19717,TePb,1.12646399,-0.4049589450000002,0.0
mp-15778,MgNiSb,0.0,-0.4044137949999988,0.0
mp-11397,Ga3Ni2,0.0,-0.4040110420000005,0.0
mp-972249,Sr3Bi,0.0,-0.404009275,0.1776242324999999
mp-972971,LaTlHg2,0.0,-0.4037143537500001,0.0081774399999989
mp-10025,SiRu2,0.0,-0.4027472133333324,0.0286433366666631
mp-7438,KZnSb,1.13188,-0.4025696816666665,0.0
mp-975608,Li2TlPt,0.0,-0.4022264012499997,0.0148503349999997
mp-541582,ReSe2,1.679338,-0.4015107173958323,0.0
mp-978292,MgP,0.0,-0.4014073657142857,0.1767388728333321
mp-12684,LaAl,0.0,-0.4011080712500004,0.0
mp-976892,Na(TeMo)3,0.0,-0.4010473485714284,0.0
mp-1009489,RbTe,0.0,-0.4007136650000001,0.4431436625000002