mpid,formula,BG,FE,e_hull
mp-27404,As3(HO2)5,4.71593401,-1.5123461972555556,0.0
mp-13868,PdF4,1.743665,-1.5117293689520004,0.0
mp-985575,LiAg(CO2)2,3.905274,-1.5115030806250005,0.1722960067187493
mp-13137,Hf2CS,0.0,-1.5079932853906255,0.0
mp-5025,Zr2CS,0.0,-1.507704560390625,0.0
mp-770601,Fe2HgO4,2.047736999999999,-1.5064558121428564,0.025561923214286
mp-36903,KNO3,4.971414,-1.5062462052260002,0.008168243500001
mp-10653,SrTe,1.27230019,-1.50619464,0.2390955299999997
mp-778716,CrO3,3.138661,-1.5057549784374995,0.0644784084375009
mp-19175,MnSe2O5,2.722165,-1.5056962499246875,0.0061013906249973
mp-705604,BaLaFe2Cu2O11,0.0,-1.5054433213970593,0.2812285964338219
mp-543045,Tl2CO3,3.950366,-1.5052905285416671,0.0
mp-1125,Li2S,4.974466,-1.5049410646875,0.0558196999999998
mp-25100,Ni2GeO4,3.322622,-1.5047507871428576,0.0
mp-33737,Mn3Cu3O8,0.0,-1.5043347466342851,0.0189054485267776
mp-778695,Li3Co3NiO8,0.025206,-1.5041042059999996,0.0721504433333359
mp-33816,Rb6Fe2O5,1.7867479999999991,-1.503742701250001,0.0
mp-984240,CsCaO3,0.0,-1.5032801427499998,0.4106189019999977
mp-549158,InCuO2,1.550932,-1.503051133125,0.0055841618750003
mp-982048,Ge2O3,1.848598,-1.5029966587499992,0.3815719575000012
mp-2692,NbO,0.0,-1.5022472856249998,0.7922564983333321
mp-557137,KCoO2,1.55586,-1.502043599375,0.0405067737500095
mp-1009838,ZrN,0.0,-1.5017897111899998,0.3684488150000007
mp-2739,TeO2,3.02341,-1.4983085808333332,0.0110177387499925
mp-557,TeO2,3.022717,-1.4982860624999994,0.0110402570833265
mp-753671,PNO,6.59163,-1.498245957241746,0.0
mp-19331,MnNiO3,2.455501,-1.4973297109419987,0.0
mp-36066,PNO,6.642962,-1.4972836639084133,0.000962293333333
mp-756245,BaYI5,3.2722659999999992,-1.4966914475000002,0.0982699180357156
mp-561224,TeO2,3.834484,-1.4966747616666662,0.0126515579166595
mp-975382,RbCaO3,0.0,-1.4964428747499994,0.4085147659999997
mp-982040,KBiO3,0.0,-1.49496427575,0.0961012274999992
mp-551690,Rb4CO4,1.3889989999999999,-1.4947484936111115,0.289084083333333
mp-18730,K3Na(FeO4)2,2.962264,-1.4937209867857146,0.0250034846428635
mp-256,LaN,0.5032829999999999,-1.49336226619,0.0129622749999995
mp-541385,Cs6Fe2O5,2.189125,-1.4930991950961543,0.0
mp-2807,ScP,0.0,-1.4927213890476183,0.0
mp-13658,RbNO3,5.114667000000001,-1.4924704222260003,0.0005588614444427
mp-10014,TaS2,0.0,-1.4921945860416674,0.001142156666674
mp-11739,KLaTe2,2.18658754,-1.4921815525,0.0
mp-743541,MnPH5CO4,4.57700072,-1.4918939278879375,0.0318887584374953
mp-558585,Hg3PClO4,3.3752938,-1.4899373748728035,0.0240623371296342
mp-752446,RbNO3,4.903821000000001,-1.4895745092260009,0.0034547744444424
mp-28797,YHSe,2.33360984,-1.4895388432379164,0.0
mp-982885,KCaO3,0.0,-1.48820597475,0.4233904570000009
mp-985593,NaAg(CO2)2,4.133528,-1.4879411168749996,0.1318954710937507
mp-985610,NaAg(CO2)2,3.448763,-1.4876088593749994,0.1322277285937509
mp-985594,NaAg(CO2)2,4.37216,-1.4870736168749996,0.1327629710937508
mp-778023,LiMnCo3O8,0.0,-1.4855563339199995,0.0378441409615355
mp-556845,CIF3,5.079592,-1.485175253214,0.164167961625
mp-3810,Hg(AsO3)2,1.885176,-1.4849195052777786,0.0
mp-38220,RbNO3,4.991923,-1.4830993342260008,0.0099299494444426
mp-752953,ZrTi2O,0.0,-1.4823950098958338,0.0855416800000092
mp-24948,RbFe(SeO4)2,3.393344,-1.4816333105989583,0.0
mp-13178,AlN,4.501562,-1.4793001361899998,0.1153307650000012
mp-8830,NaRhO2,3.037076189999999,-1.4788722818750006,0.0
mp-868358,Li4CoNi3O8,0.222568,-1.4787051406249994,0.0
mp-12627,Nb3S4,0.0,-1.4786319523214295,0.0
mp-24424,BaHBr,4.217978,-1.4772124195399998,0.0
mp-9382,SrZrN2,1.20765897,-1.4764286086899998,0.0128362112499988
mp-35907,La5TlTe8,1.75868,-1.4736237546428568,0.0
mp-755309,Li3NbS4,3.761742,-1.4733054520312496,0.0066078453125006
mp-555037,TaS2,0.0,-1.4728512160416674,0.0204855266666736
mp-984,BN,5.613981,-1.4715494470233337,0.0005679299999989
mp-973579,FePbO3,0.0,-1.47083422675,0.1811143984999974
mp-13554,SnHgO3,0.6959259999999999,-1.46987542575,0.0636971615000003
mp-23302,RbI,4.33302429,-1.46496874,0.0496787049999998
mp-3988,BaCu3O4,0.557076,-1.4642968068749995,0.0139738229166823
mp-695850,CdCl2,4.6494824,-1.4624291871733337,0.0231027700000003
mp-975384,RbBiO3,0.0,-1.4610370877499996,0.0
mp-771460,TiCo5O12,0.0,-1.4608091828703706,0.0737982777777803
mp-976722,MgPbO3,0.0,-1.4606467827499998,0.5555326020000004
mp-38975,PNO,6.817369,-1.4594414139084126,0.0388045433333337
mp-771796,Mn3CuO8,0.0,-1.4592669885733338,0.074267970572917
mp-550714,PbO,3.050318,-1.4590550318749995,0.0213601387500039
mp-755478,CdBiO3,1.453428999999999,-1.4584748337500002,0.0
mp-754779,Li2NbS3,0.007366999999999999,-1.45828602203125,0.0817849059374973
mp-18726,CrNiO4,2.817583,-1.4578270924999994,0.0
mp-1009008,LaTe,0.0,-1.4571257499999994,0.136721389999999
mp-4531,NaNO3,4.942277,-1.4570712072260008,0.0
mp-25471,Li(CoO2)2,0.0,-1.4566925949999998,0.1038388017857148
mp-14447,Ba2SiSe4,3.116893,-1.456302209910714,0.0
mp-975208,RbRuO3,0.0,-1.4558996017500008,0.1951430224999981
mp-7461,Hg2SO4,3.011387,-1.4556757627232138,0.0
mp-7715,AgF2,0.0,-1.45489854746,0.0
mp-2352,Na2O,3.268466,-1.4543955037499998,0.0
mp-554074,NbS2,0.0,-1.452894622708334,0.002309301666667
mp-32542,Hg2WO4,2.681165,-1.4528048178571424,0.0
mp-1874,NbS2,0.31441919,-1.4514669693750004,0.0037369550000008
mp-555293,NbS2,0.30322365,-1.4506494627083342,0.0045544616667214
mp-24591,ZnH2SeO4,5.702686,-1.4465231901042186,0.0206241651562493
mp-771272,MnTlO3,0.0,-1.4456760189420002,0.1273714110625006
mp-545999,AgSbO3,1.344087,-1.4456333117500002,0.0
mp-24423,SrHBr,4.937221,-1.4441687612066665,0.0
mp-962058,YSeCl,2.72448266,-1.4412449581179168,0.7967597169444423
mp-774332,Na2Co2O3,1.755917999999999,-1.440794879821429,0.0167677623809519
mp-35647,Zn2PtO4,1.163584,-1.4372267928571418,0.0
mp-7534,K2Cd2O3,1.712879,-1.436965560535714,0.0
mp-25092,Ni2As2O7,3.624260999999999,-1.435506979886363,0.0306603712500015
mp-778848,In3NO3,0.309924,-1.4352129330185714,0.0401954392857133
mp-3104,BaZrN2,2.013593,-1.4350097174400007,0.0
mp-12177,Te2O5,2.601387,-1.4339379580357143,0.0
mp-35397,Bi2WO8,1.173814999999999,-1.4296558118181806,0.1765199075000003
mp-19044,Na2FeO4,2.675475999999999,-1.4290382064285725,0.0667982064285617
mp-756795,Rb3PbO3,0.440778,-1.4276820705357145,0.1051338530357135
mp-553952,Li(CoO2)2,0.0,-1.4266185449999995,0.1339128517857144
mp-3938,ZrSiS,0.0,-1.425833643020835,0.0
mp-13126,ZrN,0.0,-1.4258242986899994,0.4444142275000012
mp-636813,Pb3O4,1.768189,-1.423510436428571,0.0374742714285716
mp-19438,LiMnO4,2.642896,-1.4234318318266663,0.1426988720486095
mp-559479,Co3C2(SeO5)2,3.451146,-1.4213996249816183,0.0788397898207753
mp-18901,VAgHgO4,2.562205,-1.4190202985714286,0.0267729303571435
mp-1802,NbS2,0.0,-1.4185882427083338,0.0366156816666674
mp-769869,FeSeO4,1.676363,-1.418228041432292,0.047933337482644
mp-7543,LiVS2,0.0,-1.4180725595312509,0.0267738960714298
mp-755072,Na2O,2.331984,-1.4178594120833334,0.0365360916666666
mp-778768,Li2Co3NiO8,0.037804,-1.417695511428571,0.0288388637500007
mp-3732,Ti2CS,0.0,-1.4175928812239589,0.0
mp-18748,Co3O4,0.48538699999999996,-1.4172226642857138,0.0
mp-774873,NbS2,0.0,-1.4160230543750008,0.0391808700000009
mp-976775,NaMgO3,0.0,-1.4138990637500009,0.3563053410000005
mp-866826,CaSnS3,2.342316,-1.4134303504375012,0.0717961147499988
mp-16763,KYTe2,2.214371,-1.4109524931250004,0.0
mp-23247,ZrBr3,0.0,-1.40586125875,0.0
mp-8751,RbLiS,3.703698,-1.4057766063541672,0.0
mp-8909,RuO2,0.0,-1.403380275,0.0661548674999998
mp-28554,Ca2AsI,2.287719,-1.40168776375,0.0
mp-16764,RbYTe2,2.286209,-1.3980250943750008,0.0
mp-1329,LaTe2,0.0,-1.3979365833333333,0.0019233683333332
mp-975346,RbMnO3,0.0,-1.3966220149419997,0.3742360735937496
mp-1639,BN,6.09524778,-1.395965239523333,0.0761521374999993
mp-12481,LaPPt,0.0,-1.39572843686508,0.0
mp-28295,CsIO3,4.221143,-1.3955319447500003,0.0
mp-4842,Al2ZnS4,3.467807,-1.394988435178572,0.0
mp-9856,Cs2ZrSe3,2.177849,-1.3945116392968753,0.0
mp-422,BeS,4.277042479999999,-1.3911467395312505,0.0
mp-27566,K3(PtO2)2,0.687279,-1.3903514094444442,0.0
mp-771247,CoTeO4,1.858647,-1.3899457125,0.0197482919444533
mp-27193,RbIO3,3.9091899999999993,-1.38798294275,0.0
mp-6915,As2PdO6,0.0,-1.3876565263888887,0.0157150308333351
mp-558332,K5Au(IO)2,3.199754,-1.3867485147500005,0.0
mp-557142,Li2S,4.143048,-1.3853849846875,0.1753757799999995
mp-983578,CsBiO3,0.0,-1.3842413297499996,0.031436932857142
mp-3288,CsNO2,4.297089000000001,-1.3835170912199992,0.0
mp-1132,CdO,0.45670099999999997,-1.3824012731250002,0.0
mp-975425,RbAsO3,0.0,-1.381546191750001,0.1939803731999969
mp-11345,ZrP,0.0,-1.3806450815476188,0.0
mp-552729,KIO3,3.592075,-1.3799337127500002,0.0052428394999983
mp-27891,Bi2SO2,1.189361,-1.3797532923124998,0.0
mp-975200,RbSrO3,0.0,-1.378931102749999,0.440517775
mp-2653,BN,6.83115472,-1.3786182195233323,0.0934991575000001
mp-972831,SiGeN2O,5.028097,-1.3778517902019989,0.0453363923333318
mp-24941,Fe2NiO4,0.0,-1.3774370842857149,0.2810528200000002
mp-755413,Na2O,2.295648,-1.3753907104166665,0.0790047933333335
mp-776952,Na2O,2.835715,-1.374752923750001,0.0796425799999993
mp-557322,Bi4Te2Br2O9,1.28384,-1.3747061488970589,0.169692784963237
mp-773238,Mn(CoO2)4,0.244615,-1.373707023150769,0.0697971219230728
mp-768537,Cs3TlO3,2.750653,-1.3733126912500002,0.0106251242857133
mp-32548,BiO2,0.0,-1.3730464624999996,0.100522711666664
mp-38017,Na2PtO3,1.395453,-1.372953743958334,0.1448541549999991
mp-755834,AgSnO3,0.26492000000000004,-1.36699961275,0.0897995389999986
mp-12015,KAg2AsO4,1.662865,-1.3657331712500005,0.0
mp-777546,NaSnO,0.0,-1.365614677083333,0.0872809602083313
mp-25592,LiNiO2,0.0,-1.3648396806249998,0.0069530506249995
mp-3677,MgSiN2,5.288506,-1.364808819314999,0.0
mp-1279,TaN,0.0,-1.3646627995233314,0.0
mp-35690,Co5RuO8,0.0,-1.3636134346428577,0.0399191703571419
mp-752580,RbNO2,2.673876,-1.3630490137200002,0.0
mp-714904,FeO2,0.8848070000000001,-1.3625791758333332,0.2092250972916672
mp-754358,ZnSeO4,3.5698939999999992,-1.3623018847656247,0.0060707745833248
mp-546920,Li(CO)2,3.754588,-1.3621396085000008,0.2617189347499957
mp-34586,Co2RuO4,0.0,-1.360846741428572,0.0289958042857119
mp-16304,YPPt,0.0,-1.3599704435317472,0.0
mp-771847,Li2CuNiO4,0.0,-1.359873538125,0.0541408365625022
mp-982975,LiBeO3,0.0,-1.3587689697500005,0.5474884847499988
mp-3647,LiGaS2,3.864662,-1.3584596839062506,0.0
mp-4997,ZrGeS,0.0,-1.3576772180208334,0.0
mp-771855,CoTeO4,2.076394,-1.3574050583333337,0.05228894611112
mp-28111,K3NO3,1.220828,-1.3568226315899996,0.0
mp-11147,Na5CuSO2,2.864111,-1.3551073557291673,0.0
mp-11902,Ba2GeSe4,2.134868,-1.354760656339286,0.0
mp-10224,NaVS2,0.0,-1.3504524782812508,0.01901975401785
mp-754352,Na3CuO2,2.580841,-1.3502500287499988,0.0222123241666656
mp-984756,CsMgO3,0.0,-1.3498224427500003,0.4654850959999983
mp-743864,Zr2Fe2F3,0.0,-1.3490298505100011,0.929503847875
mp-754483,Na3(CuO2)2,0.0,-1.3489812911111108,0.0437430433333343
mp-19225,FeAgO2,2.084389,-1.348915833125,0.0
mp-18966,FeAgO2,2.139552,-1.3487612818750003,0.0001545512499996
mp-541780,CoH2SeO4,3.95357,-1.346882402291719,0.0179034173958356
mp-27987,BrF5,4.929240999999999,-1.346424349325,0.0
mp-561070,FeBiO3,2.5516829999999993,-1.3457940237499997,0.4241064712500009
mp-19723,InAuO2,0.591142,-1.3452286556249995,0.0171194093750006
mp-14928,Sc2MnSe4,1.383971,-1.345160545624999,0.0
mp-769756,Co(BiO3)2,0.0,-1.3444361263888882,0.0212259251851847
mp-976185,NaBeO3,0.0,-1.3437363187499998,0.4464347710000034
mp-545379,InBiO3,0.49928000000000006,-1.34368756375,0.4952640157499984
mp-6948,KNaO,3.538505,-1.3423140537499991,0.0148964949999999
mp-32450,VBr2O,0.949158,-1.3408325678125,0.0107896599999994
mp-626012,Te(HO)6,3.916711,-1.3401930191707692,0.0496149857692316
mp-31322,La6OsI10,0.604541,-1.3396611079411764,0.0
mp-2552,TeO3,2.257641,-1.3388166234375003,0.0
mp-545487,Cs(CO)2,4.261355,-1.3387621175000013,0.1977396207499948
mp-25587,LiNiO2,0.770112,-1.338427528125,0.0333652031249993
mp-1459,TaN,0.0,-1.3372378411899994,0.0274249583333343
mp-771810,Li2MnNi3O8,0.0,-1.3346668272114286,0.0284383257738101
mp-930,ZrP,0.0,-1.3345562890476197,0.046088792499999
mp-559067,KNa2AuO2,3.404388,-1.3340105387499996,0.0
mp-19027,Na5CoSO2,2.082639,-1.3337293479513888,0.0122451219444537
mp-559264,Bi2PdO4,0.543293999999999,-1.3327033185714277,0.086269537142873
mp-776511,LiCoNiO4,0.028036000000000002,-1.33253735357143,0.0
mp-10684,CaTe,0.6718310000000001,-1.3324062899999998,0.3084097000000003
mp-546810,Rb(CO)2,4.267282,-1.3314054925000014,0.1976128784999957
mp-754071,Pb2O3,0.5651930000000001,-1.3307442377500005,0.0869878849999921
mp-985591,Li6PS5Br,3.241,-1.3302586052621346,0.0512045821153819
mp-24864,CoO,2.06516021,-1.3300730981249993,0.0
mp-557597,K2Ca(NO2)4,3.79344,-1.329179868634666,0.2278057300127987
mp-4226,LiCrS2,2.222724,-1.3271690520312511,0.0
mp-754567,NaCdO2,0.0,-1.3266193681250005,0.0207677916666666
mp-977112,NaSrO3,0.0,-1.3259532657500004,0.5229036593333332
mp-4474,V4GaS8,0.509909,-1.325059776346155,0.0
mp-14434,K3GeS3,3.314917,-1.3242837381696424,0.0
mp-25484,CoH2SeO5,3.680371,-1.3225969163426383,0.0
mp-32959,H2O,7.185714,-1.322257934496666,0.0685755591666748
mp-6799,LiCa4(BN2)3,3.253308,-1.321837563162857,0.0
mp-774146,W(BrO)2,1.082128,-1.3215979044999997,0.0681409359999989
mp-866845,CaSnS3,1.055978,-1.3213795954375,0.1638468697500004
mp-19380,CrHgO4,2.547514999999999,-1.320780168333334,0.0
mp-769365,ZnSeO4,3.8106359999999992,-1.319371056432292,0.0490016029166575
mp-974337,RuPbO3,0.0,-1.315138853750001,0.1771851198888896
mp-19318,Ag2MoO4,3.414989,-1.3145383064285707,0.0003122889285709
mp-2340,Na2O2,3.6851380000000002,-1.3123730464583332,0.0
mp-772052,CdSeO4,3.490278,-1.311422283932292,0.0205930916666625
mp-555018,RbNa2AuO2,3.454163,-1.3112072537499997,0.0
mp-10488,Cs2Ti(AgS2)2,2.476206,-1.3111145758796308,0.0
mp-985582,Li6PS5I,3.14234,-1.3099273944929042,0.0195928328846113
mp-4336,LaPPd,0.0,-1.3074088076984132,0.0
mp-984051,CsGeO3,0.0,-1.3066752757499998,0.5724109334583369
mp-753081,Li3(CuO)4,0.0,-1.3060536149999995,0.0456232443181834
mp-2815,MoS2,1.9460309999999992,-1.3059801893750005,1.2761666665639383e-05
mp-974734,KInO3,0.0,-1.30294657075,0.2803335273333349
mp-1434,MoS2,1.79489805,-1.3029427877083333,0.0030501633333326
mp-18828,TlFeO2,1.4631750000000001,-1.3016221481250003,0.185982884375
mp-984722,BeGaO3,0.0,-1.3002250517500002,1.0871466175416664
mp-10383,LaTeAs,0.5273869999999999,-1.3001010566666669,0.0
mp-28383,KNaS,3.520749,-1.2992670688541672,0.0
mp-7219,Na2ZrSe3,2.249599,-1.298520228463542,0.0
mp-2672,K2O2,3.7928420000000003,-1.2976821856249998,0.0
mp-2889,LaPd3S4,0.0,-1.296344542656251,0.0
mp-648,Na2S,3.45169862,-1.2943713080208337,0.0
mp-13151,BN,7.362477999999999,-1.2940852607733326,0.1780321162499998
mp-1013526,VS2,0.58865286,-1.2940240127083331,0.0172186766666682
mp-557523,VS2,0.620246,-1.2924655843750006,0.0187771050000007
mp-28864,Y6IrI10,0.5882379999999999,-1.2917690979411764,0.0
mp-9561,VS2,0.5685549999999999,-1.2911211060416672,0.0201215833333341
mp-23945,KLi2(HO)3,4.457967,-1.2887569027344448,0.4746547272222221
mp-13995,Hg2GeO4,2.173152,-1.2887569007142854,0.0
mp-541899,CsCdBr3,3.847547,-1.2882385079999996,0.0
mp-554962,CsK2CoO2,2.436586,-1.287481727083333,0.0
mp-6973,CsNaS,3.349077,-1.2867213930208337,0.0
mp-8799,RbNaS,3.23764,-1.2823792813541672,0.0
mp-1022,K2S,3.233856,-1.2819835280208336,0.0
mp-975322,RbFeO3,0.0,-1.2816759987500006,0.2258521501666673
mp-775242,Li2MnCu3O8,0.0,-1.2805392672114275,0.1077730210267837
mp-4249,Hg(CO2)2,4.218517,-1.2798757735714292,0.2490099357142865
mp-754782,Na2CdO3,0.0,-1.2797985581250009,0.0559172305555542
mp-27848,TiIN,0.627661,-1.278535966348889,0.0
mp-23268,NaI,4.63839611,-1.2775966075,0.0
mp-776320,CuAsO3,0.372227,-1.2761766547500002,0.0822629559999929
mp-975299,RbInO3,0.0,-1.2755635887500003,0.2810660813333348
mp-27544,Cs3Bi2Br9,3.043868,-1.2742633157142849,0.0
mp-39072,Na3(CoO2)4,0.7696130000000001,-1.2736387716666664,0.2813539853333333
mp-675367,Nb3IrS8,0.0,-1.2713445822916671,0.0287426328125004
mp-3216,Li2ZrN2,2.66763,-1.2701079909520003,0.0
mp-25047,MnH4(BrO)2,4.297478,-1.2672216808822228,0.0
mp-1287,KS,2.549397,-1.2669021261979168,0.0
mp-546846,BaBi4(IO2)2,0.0,-1.2666711550000007,0.2846350356060592
mp-772290,LiAgO,2.42712,-1.2654215345833328,0.0
mp-4978,Ti2AlN,0.0,-1.265310351428334,0.0
mp-23862,BaHI,3.9205669999999992,-1.2649727612066666,0.0
mp-1065,LaSb,0.0,-1.2641026875000003,0.0
mp-9723,Sr4Li(BN2)3,3.095332,-1.2635899474485714,0.0
mp-28553,Ca2IN,3.393509,-1.2627017593449998,0.0
mp-4026,KCrS2,2.29009164,-1.2624693145312502,0.0
mp-971,K2O,2.972564089999999,-1.2600255937499998,0.0
mp-2723,IrO2,0.0,-1.2599858891666669,0.0
mp-9813,WS2,1.94745445,-1.2599060293750004,0.0038224949999747
mp-11212,LaAsPd,0.0,-1.259320338333333,0.0
mp-753632,Li2CrS3,0.0,-1.2589286045312502,0.0498076151190467
mp-28868,Nb3(BiS3)2,0.0,-1.2575166999431822,0.0
mp-34421,CdBi3O7,0.0,-1.2572329207954545,0.2094751895454516
mp-546910,CaSnO3,0.0,-1.2571364017500002,1.435318550999999
mp-555138,CoSeO4,3.167613,-1.2570239214322918,0.0050157958333336
mp-554389,Ta3(BiS3)2,0.0,-1.2559274135795455,0.0
mp-18905,FeO,0.0,-1.2558746956250006,0.4135059175000011
mp-753982,Li3CrS4,0.0,-1.2557661045312505,0.0437536989285716
mp-556978,Na2S,3.109089999999999,-1.2548191530208337,0.0395521550000004
mp-753720,Li3BiS3,2.966508,-1.2546500631696418,0.0164645571428589
mp-23297,BrF3,3.867298,-1.2539411996425,0.0
mp-11918,Ca(BeN)2,3.640923,-1.2535118259519995,0.0
mp-10000,Hf2S,0.0,-1.2532243846875015,0.0
mp-2634,NbN,0.0,-1.2530164511899995,0.0002347500000006
mp-753176,AgCO3,0.0,-1.2517697892500004,0.0003364734999982
mp-13031,MgSe,3.45203232,-1.2493156142968749,0.0050649900000001
mp-12480,ScPPt,0.0,-1.2475722735317458,0.0
mp-9062,RbS,2.6080740000000002,-1.2471018403645835,0.0
mp-28760,KRbS,3.147707,-1.2454605880208336,0.0080945866666661
mp-8688,V4GeS8,0.059503999999999994,-1.2450468644230772,0.0
mp-27296,ZrTi2O,0.0,-1.2441184161458327,0.3238182737500104
mp-3835,Ba(Mo3S4)2,0.0,-1.2436961681666674,0.0038679802500096
mp-1895,TaO,0.0,-1.2434232156250005,1.1050387189999975
mp-8736,Sr(Mo3S4)2,0.077114999999999,-1.242626773500001,0.0024168305000005
mp-3861,Al(MoS2)4,0.0,-1.2365748294230772,0.026444256435897
mp-10760,MgSe,2.581415,-1.2355583492968751,0.0188222549999999
mp-725,RhO2,0.0,-1.2355316124999998,0.0
mp-15695,YAsPt,0.0,-1.2324609833333326,0.0
mp-10811,NaSr4(BN2)3,2.983965,-1.2321398099485723,0.0
mp-25600,NiH2SeO5,4.320685,-1.230729566898194,0.0
mp-38683,Co2NiO4,0.0,-1.2306799764285716,0.0
mp-753677,Li3BiS3,3.291492,-1.230332011026785,0.0407826092857153
mp-1868,VS,0.0,-1.2294558807812503,0.0686987737500022
mp-559879,PS2N(Cl3O2)2,4.28543265,-1.2290754371900172,0.1266674820026168
mp-14100,Cd(RhO2)2,2.475719,-1.2287927428571432,0.0
mp-774160,NiTeO4,2.155486,-1.2270375341666668,0.0426320055555455
mp-1133,V5S4,0.0,-1.2223281518055569,0.0
mp-771464,MnCo5O12,0.0,-1.222268694220001,0.0276284344444501
mp-779166,LiCo3NiO8,0.10838899999999901,-1.2212314346153847,0.0291955895512749
mp-684904,K2O,1.201073,-1.2203308254166665,0.0396947683333328
mp-722515,NaCu2H2(SeO5)2,0.048526,-1.2199616707016168,0.0042672128676493
mp-4964,YSbPt,0.8075949200000001,-1.2198490324999998,0.0
mp-8973,NaSi2N3,5.587403,-1.2197893195233327,0.0
mp-777097,CrAgO4,0.0,-1.2197040966666666,0.0
mp-974581,ReBiO3,0.0,-1.2195239447500008,0.5218732474999985
mp-892,ScPt,0.0,-1.2182937899999997,0.0
mp-28862,Y6RuI10,0.6066039999999999,-1.217291792941177,0.0
mp-8756,KLiSe,3.419073999999999,-1.2172826328645836,0.0
mp-9029,Ca3VN3,1.9175959999999999,-1.216613140305714,0.0
mp-767989,Li2FeNi3O8,0.22303,-1.2158633371428575,0.0668737560267871
mp-9227,Ti3Se4,0.0,-1.2155283413392866,0.0
mp-19448,Ni3TeO6,2.479269,-1.2143518727500002,0.0
mp-557964,Li9S3N,3.494542,-1.2137726749667304,0.0084934669230776
mp-2701,NbN,0.0,-1.2133969961899993,0.039854205000001
mp-11607,Si3N4,5.474101,-1.2127480556457146,0.0996267564285702
mp-28863,Y6OsI10,0.442345,-1.2126916170588231,0.0
mp-974861,Mn2Co2O5,0.0,-1.2110574520188888,0.5218731040740785
mp-973396,KBeO3,0.0,-1.2109280717500006,0.622043538999999
mp-20158,PbO2,0.0,-1.2103970474999997,0.106412376666662
mp-975134,KRhO3,0.0,-1.2101929107499998,0.0501989309999997