mpid,formula,BG,FE,e_hull
mp-14037,NaTl2RhF6,3.765317,-2.2318236872140007,0.0
mp-753594,BiOF,3.51836,-2.2316578558133333,0.0109152149999998
mp-550514,LaTaN2O,1.705153,-2.230849365201999,0.0
mp-547017,LiAlAs2O7,4.797026,-2.230154952613637,0.021130616818179
mp-985569,Sr2YCu3O7,0.0,-2.2291006870192307,0.0212915050641067
mp-25622,VO2,1.961215,-2.2290964025,0.255177831666666
mp-27456,BaBr2,5.4549710000000005,-2.227832289583333,0.0
mp-18803,Na2WO4,6.305127,-2.2263845750000004,0.0
mp-9361,RbLaS2,3.3215852,-2.2257871995312506,0.0
mp-559408,NiPbF6,2.430621,-2.2250852021425,0.0
mp-35683,NaPF3,2.451724,-2.2240096323330483,0.4475832766285705
mp-753801,Cs2Sr2O3,3.333386,-2.223052053392857,0.0672648099999992
mp-545783,BaBiO3,0.0,-2.222867922749999,0.0236624724999998
mp-753257,LiCuF4,1.236991999999999,-2.222700563293334,0.0
mp-23438,BaBiO3,0.0,-2.222530510749999,0.0239998845000002
mp-27480,Sn2OF2,3.561525999999999,-2.222484391726,0.0
mp-37153,AgAsF6,3.412765,-2.2224290377675,0.0
mp-19407,MnWO4,2.971225,-2.2216732926600016,0.0
mp-25175,Cs(WO3)2,0.0,-2.2201686252777773,0.0134872402777865
mp-18852,Na2MoO4,5.6262739999999996,-2.21836471,0.0
mp-341,PbF4,3.4058397,-2.2176629809520003,0.0
mp-771763,Mg2Mn3O8,2.73233,-2.214152240221538,0.0396557076923098
mp-767362,LiNiPO4,3.599936999999999,-2.213920479013606,0.0786340282142896
mp-557579,LaS,0.0,-2.21387898578125,0.2791883512500002
mp-753478,BiOF,3.344534,-2.213057940813334,0.0295151299999991
mp-769865,VCr2O4,0.0,-2.2129991107142852,0.0893445465178519
mp-19120,MgCrO4,3.663098,-2.21195842,0.0
mp-755541,Cs3YO3,3.473833,-2.2114233558928578,0.0103755678571433
mp-771606,Li2Cr3SnO8,0.46912000000000004,-2.2112936103571426,0.0704744837698418
mp-778655,Li2CoBO4,2.948459,-2.2110330139583336,0.0590767440624997
mp-14951,Rb3AlO3,3.997854,-2.2092759691071424,0.0
mp-754146,Rb3YO3,3.276286,-2.209018738035715,0.0212967285714285
mp-551601,V2ZnO6,3.680358,-2.208424414722222,0.0191002780555553
mp-976331,LiLuO3,0.0,-2.20803978075,0.5214124512500007
mp-753160,BiOF,4.275277,-2.208004943313333,0.0345681274999991
mp-39536,CaC2S2(OF)6,7.389186,-2.207916671633236,0.1737040141176464
mp-774149,Li2CrWO6,1.243555999999999,-2.2075867927499986,0.0725109477777774
mp-770192,Li2CrO3,1.282886,-2.2071121289583338,0.0535938908333344
mp-775652,LiNiPO4,3.971396,-2.2070632075850343,0.0854912996428582
mp-768030,FeOF,2.7660739999999993,-2.207018076646667,0.0736658691666685
mp-771605,Li2CrFeO4,1.715898999999999,-2.2060039543750003,0.0323085531250084
mp-19285,Ba(FeO2)2,2.733139,-2.2051362964285706,0.0354726607142863
mp-25057,VMoO5,2.486051,-2.2045958866071422,0.0163582008928582
mp-771629,Li2MgMn3O8,3.051262,-2.204175513777144,0.0196624205357078
mp-942701,LiCoSO4F,3.562829,-2.2035534637815624,0.0091088665624941
mp-552488,LaCuSeO,2.768561999999999,-2.2024412724609377,0.0
mp-1476,ScS,0.0,-2.2020648170312507,0.0
mp-33940,Mg2PtO4,2.519481,-2.2008497064285706,0.0
mp-25068,Na2MoO4,5.3973889999999995,-2.200178165,0.0181865449999998
mp-771747,Li2V3FeO8,0.522802,-2.1993067392857126,0.2060222560862739
mp-556777,Li2CO3,5.746736,-2.193570851875001,0.066935055
mp-504104,LiNiPO4F,0.70221257,-2.193552101785654,0.0717740452343758
mp-4525,SrRuO3,0.0,-2.1935212377500006,0.0104750124999988
mp-771630,LiCr3(FeO4)2,2.193875,-2.1934292207142847,0.0059145658163295
mp-560851,CsIOF4,6.198577,-2.1926934090728567,0.0
mp-978842,SrCaO3,0.0,-2.19232721475,0.456265728
mp-541478,NaCo3P3(HO6)2,3.87740329,-2.191656474358368,0.0073530039285554
mp-769655,Mg2CoO4,2.202101,-2.1908290807142854,0.0627345256250002
mp-753360,BiOF,4.000856000000001,-2.190072239980001,0.0525008308333321
mp-16180,Na6S2O9,4.286882,-2.1900589481985304,0.0
mp-34139,Mn2CrO4,0.6064069999999999,-2.18911954598857,0.0094340442857188
mp-770149,Li2CrO3,2.524988,-2.1889527331249994,0.0717532866666692
mp-776864,V3CoO8,1.31853,-2.1885905683333333,0.0407848966666613
mp-770751,CrPO5,3.052756,-2.1883850749064626,0.0417902591071257
mp-777318,Li3V2NiO6,0.0,-2.187771109791667,0.1089800004166568
mp-773760,Fe5(OF2)4,1.195374,-2.1876003020305883,0.2000571239338313
mp-25559,MnVO4,0.9713830000000001,-2.187268575993333,0.0234625877083338
mp-978489,SiPbO3,2.683869999999999,-2.18709288675,0.4242304153333336
mp-774136,CrPHO5,1.297962,-2.186688320995655,0.0260183231770829
mp-10226,NaYS2,3.32493834,-2.1866271514062507,0.0
mp-18988,Li2MnO3,3.374720999999999,-2.185746033284999,0.0
mp-15788,LiYS2,2.884542,-2.185359137656251,0.0
mp-19443,WO3,1.697462,-2.1837452609375,0.0001825724999982
mp-10627,SrS,2.849057,-2.1824037120312507,0.2989603249999995
mp-23299,RbCl,6.05934832,-2.17971416163,0.0613187500000003
mp-975115,RbTcO4,4.639609,-2.1795887724999994,0.0
mp-550436,V2CdO6,3.420547,-2.1795227124999994,0.0168164577777911
mp-559175,WO3,1.694949,-2.1784156776041663,0.0055121558333315
mp-622210,Ba2LaCu3O7,0.0,-2.178291526826923,0.018952444615377
mp-19277,VSO5,3.127792999999999,-2.1773291221875004,0.0276924871428585
mp-33363,LiYS2,3.041305,-2.1769834226562508,0.0083757149999996
mp-752927,LiAgF2,3.420537,-2.174356994345,0.0150030537500001
mp-25006,MnSO4,4.9127979999999996,-2.173770276670416,0.0
mp-23289,KCl,6.205380509999999,-2.1729582116299997,0.07788268
mp-1008998,LaS,0.0,-2.17294938703125,0.3201179500000002
mp-773359,Li2VCoO4,2.299175,-2.171676453749999,0.0507047205208355
mp-37436,Li7SbO6,4.883686,-2.1713653480357142,0.0091664678571437
mp-1105,BaO2,3.91085511,-2.1684953008333334,0.0
mp-10335,Ba2CuTeO6,1.42696,-2.16819518775,0.0205897060000008
mp-25405,LiCuPO4F,0.60373705,-2.1666011042856548,0.0476924109375005
mp-754988,KVO2,2.212075999999999,-2.166243833125,0.0689076913888877
mp-546295,Sr2CuOsO6,0.118076,-2.16586081925,0.0079414159772719
mp-12725,NbAgO3,2.572988,-2.1646064467500006,0.0713725890000001
mp-14307,Mg(ScS2)2,2.6555,-2.164598678035716,0.0
mp-755198,Cs3LaO3,2.876568,-2.164568670535715,0.0126076653571436
mp-778539,Li2CoBO4,2.394435,-2.1642835327083336,0.1058262253124997
mp-757470,K2ZnP4(HO2)8,6.89677395,-2.1634972550432567,0.0005709444032282
mp-753277,LiAgF2,2.972099999999999,-2.163368131845,0.0259919162499997
mp-556321,Li2Co(WO4)2,3.406571999999999,-2.162922681538461,0.0006134469230847
mp-24943,KFe(SO4)2,3.2691,-2.1628062240104167,0.0
mp-753661,SbOF,3.794416,-2.1616919208133343,0.0567703827083345
mp-974061,KSiO3,0.0,-2.1610487267500007,0.4677612343749953
mp-770580,LiCr2O3,0.0,-2.159119068124999,0.0933871616666692
mp-37620,LiMnO2,0.0,-2.158379860865,0.0
mp-775196,Li2MnCr3O8,0.8188829999999999,-2.158011179354285,0.0868035910714244
mp-27453,Li7SbO6,4.907704000000001,-2.1578650308928577,0.0226667850000001
mp-767067,LiMn5O7F,0.0,-2.1575477764099995,0.0528763802232159
mp-18949,VFeO4,2.5585199999999992,-2.157148219166666,0.0146053233333365
mp-14581,CsCu2F6,0.0,-2.1570782069044445,0.0
mp-27311,LaCO,4.465251,-2.1570450829166674,0.0536637158333324
mp-769753,Li4CrFe3O8,2.047093,-2.156460286875,0.0011236090625015
mp-752689,Ba2Na2O3,3.638465999999999,-2.156167741964285,0.0865202857142852
mp-766904,MnV4O12,2.326573,-2.15504489270353,0.0595285136764705
mp-772730,Li2Mn3VO8,0.0,-2.1550373352057157,0.085238513928572
mp-547271,ReO3,0.0,-2.1547182559374995,0.0
mp-18767,LiMnO2,2.19422,-2.154408300865,0.0039715600000063
mp-4527,Li8SnO6,5.306983,-2.1541803395000003,0.0
mp-190,ReO3,0.0,-2.154036449270835,0.0006818066666642
mp-31628,CrReO4,0.6459389999999999,-2.1533985433333327,0.022656768472224
mp-504506,RbIn(MoO4)2,5.268129999999999,-2.1527586008333324,0.0
mp-504667,RbIn(WO4)2,5.736264999999999,-2.152654618333332,0.0420049899999641
mp-32384,Li4Ni7(PO4)6,3.97213168,-2.1525799955749134,0.0432742337804743
mp-555836,Sn2PClO4,3.52761829,-2.151067303294405,0.0
mp-770046,Li4Cr3NiO8,1.0175,-2.15104097875,0.0092927206250008
mp-7767,RbAgF3,0.0,-2.151005784714,0.0
mp-775040,Li2MnSnO4,0.572642,-2.15096777262,0.0278985771874999
mp-18807,V2Zn2O7,3.626153999999999,-2.1482291035227266,0.0324458054545466
mp-776740,Li2MnWO6,2.306901,-2.147387362846,0.0565690169999975
mp-504878,VBiO4,3.151124,-2.147332405833333,0.0163761291666668
mp-3277,BAsO4,6.080689,-2.147066934444444,0.0
mp-753539,SbOF,4.311811,-2.146972081646666,0.0714902218750026
mp-19029,RbCr4O8,0.875548,-2.1465254284615387,0.037179869711533
mp-767047,Li2Mn4O7F,0.20193899999999998,-2.1457429627699987,0.0694108786862317
mp-770037,LiMnSnO4,2.314001,-2.1455867444228565,0.0012798347321263
mp-18775,Fe3PO7,3.100082,-2.1455253142586588,0.0360888561363683
mp-19262,Cr2CdO4,3.460484,-2.144706267857144,0.0
mp-971724,Ti2Si2O5,1.076592,-2.1444475021759253,0.8342990561904786
mp-19449,NaVCdO4,4.360002,-2.144066867142858,0.0
mp-4264,K2S2O5,4.407418000000001,-2.14379543548611,0.0564093411594193
mp-771789,TiMn3O8,1.987706,-2.1429040249622227,0.0947304616666713
mp-978493,SiSnO3,2.09304,-2.1418675877500006,0.4866339869999994
mp-755021,ReO3,0.0,-2.1407521851041684,0.013966070833332
mp-770616,Li2Cr3BiO8,0.464514,-2.1398085746428563,0.020859517817465
mp-773253,Li2MnSnO4,1.792284,-2.139465543869999,0.0394008059375004
mp-775079,Li2Cr3FeO8,0.367226999999999,-2.1394396764285717,0.0570369583968277
mp-4826,CaCuO2,0.0,-2.138392095625,0.0005609337500001
mp-25542,LiMnO2,2.267479,-2.138250483365,0.0201293775000062
mp-777606,Fe2O2F3,0.0,-2.137995713010001,0.1206818145535768
mp-772696,Cr3O4,1.579974,-2.137913974285714,0.0997765721428542
mp-770321,Li2Mn3CrO8,0.0,-2.1377875194914284,0.0097083428571584
mp-19174,BaMnV2(AgO4)2,3.470147,-2.1374024236400007,0.0176543890714295
mp-715550,MoO2,0.0,-2.137215045833332,0.0130827466666652
mp-25173,MgPb2WO6,3.493143,-2.13670392775,0.010748437500001
mp-547029,Na3SO4F,3.61262,-2.1356840044725,0.3367445870370371
mp-9060,RbPdF3,0.0,-2.135590225713999,0.0415625240000014
mp-756654,SbOF,3.696496,-2.1354713191466668,0.0829909843750025
mp-19455,MnMoO4,2.087625,-2.135138274326668,0.0046466191666603
mp-976802,KF2,2.362717,-2.135091085793333,0.0
mp-25046,MnPH2O5,2.779102,-2.1344719325050256,0.0
mp-18847,V2CdO4,0.0,-2.1341938021428573,0.0683521216071421
mp-19311,V2CoO6,2.8818960000000002,-2.1341161163888893,0.0102930922222235
mp-774415,Li2Cr3FeO8,0.0,-2.133941167142857,0.0625354676825429
mp-770932,LiSbO3,3.815768,-2.13379501675,0.0
mp-552547,SrBiIO2,3.881694,-2.1317983585,0.0
mp-31521,CoPO4,2.11353368,-2.1295752205158736,0.0132718891666652
mp-554072,K2CO3,5.230869,-2.128384706875,0.0023250858333279
mp-24868,Cr2CoO4,3.74947,-2.1282271542857143,0.0
mp-776150,ScAgO3,1.208743,-2.126861274750001,0.0605865883333338
mp-18868,RbFe(MoO4)2,3.380731,-2.125834043333333,0.0002556458333504
mp-15637,ZnRhF6,0.274605,-2.1250078702675,0.0
mp-778717,MgFeO3,0.31679599999999997,-2.1246359547500004,0.064455818874995
mp-555194,SiHg3(SF3)2,4.299728,-2.1243980212720843,0.0
mp-10662,K2CO3,4.847887,-2.123751132708334,0.0069586599999995
mp-752525,LiAgF2,3.617001,-2.12324355997,0.066116488125
mp-550172,SnO2,2.057581,-2.1225567308333333,0.0022980783333332
mp-18819,Ni2P2O7,4.09777,-2.1224694122673147,0.0100211729545458
mp-19066,W3O8,0.0,-2.1216146113636367,0.0223726900699112
mp-35482,Ti(FeO2)4,2.22874,-2.1213277751282056,0.1416063955769217
mp-753656,SbOF,3.882473,-2.121127818313333,0.0973344852083357
mp-19362,KFe(MoO4)2,2.913658,-2.1209256575000004,0.0
mp-10326,Zn(ReO4)2,5.522736,-2.1201645586363624,0.0
mp-2632,TlF3,2.710605,-2.1193442127675004,0.0
mp-25119,VPbO3,2.373974999999999,-2.1190235587500013,0.0258844442500016
mp-754272,Cs2Ba2O3,2.798752,-2.118293483392857,0.0241409085714296
mp-25582,MgMoH2O5,5.346605,-2.11820979761,0.0
mp-972222,TaBeO3,0.0,-2.11812112175,1.0067088412000018
mp-25014,MnGeO3,2.717197,-2.1173605029419993,0.0213144773749993
mp-551243,BaBiIO2,3.941319,-2.1165689885,0.0
mp-19328,NaWO3,0.0,-2.1158247057500006,0.0523010734999553
mp-768028,Li3Mn2SnO6,0.0,-2.115723862868333,0.0563136572916667
mp-775531,LiMnO2,2.202706,-2.114827348364999,0.0435525125000069
mp-973471,KReO3,0.0,-2.1129326857500006,0.0283353022857175
mp-554002,Al(HO)3,6.771994,-2.1127511320871433,0.0238633803571435
mp-18741,RbLiCrO4,4.278924,-2.1113335078571427,0.0
mp-19251,RbLiCrO4,4.265614,-2.111116895,0.0002166128571419
mp-755552,LiYS2,1.276167,-2.1097755601562507,0.0755835774999997
mp-560842,Cd2SiO4,2.373656,-2.10896313,0.1345085721428542
mp-754674,Lu(CuO2)2,0.945363,-2.107674832142856,0.0
mp-768038,Li2Mn3GaO8,0.0,-2.10718207449143,0.0173151420089272
mp-12978,SnO2,2.22157,-2.1067557324999995,0.0180990766666679
mp-554883,Al(HO)3,6.694701,-2.106303497087143,0.0303110153571433
mp-777303,Li3CrO4,1.9429800000000002,-2.105621363125,0.0855528012499995
mp-37836,Al(HO)3,6.707152000000001,-2.104275564944286,0.0323389475000004
mp-942700,LiNiSO4F,4.725087999999999,-2.104039941906562,0.0050178362499968
mp-2857,ScN,0.93669572,-2.10324109119,0.0
mp-31529,CoP2O7,0.8310719999999999,-2.102143385494047,0.0917835451875177
mp-771748,Li2VFe3O8,1.538336,-2.101974646428571,0.0639826166666637
mp-770839,LiCr(CO3)2,4.38589,-2.100998622250001,0.0
mp-7041,CaHgO2,3.64422481,-2.100867630625,0.0
mp-11654,BAsO4,5.726528,-2.100204456111111,0.0468624783333364
mp-25005,MnSnO3,1.8030329999999999,-2.0995827119420003,0.0
mp-15801,Zr3PO2,0.0,-2.0985024450992067,0.3621532848333331
mp-976923,NaReO3,0.0,-2.0984742787500013,0.029457512380949
mp-775096,MnPHO5,2.151967999999999,-2.098326134240655,0.0240000838281258
mp-18740,V2Cd2O7,3.835250999999999,-2.0975786171590896,0.0
mp-15638,CdRhF6,1.124562,-2.0973054515175,0.0
mp-752699,LiAgF3,1.012332,-2.097258206714,0.0480330009999989
mp-6858,RbCS(OF)3,7.026795,-2.0964074787647227,0.1101401662499981
mp-771096,LiFeSnO4,2.478525,-2.096248261428572,0.001178247857144
mp-767352,Mn5O5F,0.0,-2.095621260658181,0.0594449954545499
mp-756951,LiSbO3,3.665837,-2.09513612475,0.0386588920000088
mp-773720,LiMnSbO4,1.136723,-2.0907793687085707,0.0240104753571337
mp-470,GeO2,2.720783,-2.0903003325,0.0036647966666674
mp-557752,CsHSO4,7.068699,-2.0893436489546424,0.0021582792857195
mp-754745,Na2SnO3,3.705539,-2.0889277472916663,0.0005151333333355
mp-771067,CrSO4,2.202931,-2.0888781815104167,0.0461432087349154
mp-770603,Li5CrO5,2.459765,-2.08886915875,0.0696706854545432
mp-36890,TaBi3O7,2.93258,-2.088377952159091,0.1599567989772632
mp-37030,TaBi3O7,2.573577,-2.088311508522727,0.1600232426136356
mp-772345,Li4Mn3O8,2.799114999999999,-2.0877916381920008,0.0394113382222087
mp-867195,SrOsO3,0.0,-2.08736121175,0.1019388909999969
mp-769767,Li2CrO4,4.368361,-2.087073776428572,0.0208236854761896
mp-16742,BaAgTeF,2.407819,-2.0869272215475,0.0
mp-973869,LaCdO3,0.0,-2.08371942775,0.4121221478749985
mp-767081,Fe3(OF)2,1.736678,-2.0835703299828574,0.0437188164285675
mp-546079,MgCO3,6.900536,-2.082437880250001,0.3800265669999998
mp-31906,MnReO4,0.24789299999999903,-2.0824147793266654,0.0504297499999992
mp-24657,ZnBP2H4NO8,6.67860226,-2.0823604267480675,0.0
mp-36884,Mn2SnO4,0.0,-2.0819323095600004,0.0
mp-35659,HgPbF6,2.352055,-2.0817741508925005,0.0
mp-561013,Ga2PbO4,4.401829,-2.081240805,7.507142854024096e-07
mp-36538,La2PbS4,2.917747,-2.0786745594642864,0.0199254849999999
mp-4482,NaSbO3,3.925996,-2.0782218747500005,0.0
mp-25539,LiMnO2,0.0,-2.078082408365,0.0802974524999999
mp-560008,PNF2,6.9532229999999995,-2.077769441963809,0.0
mp-13676,TlPO4,1.89724,-2.0773602480158733,0.0
mp-546790,LaCuTeO,2.6231269999999998,-2.0771265053125,0.0069480406250006
mp-771664,Li2VNiO4,2.563431,-2.076215631875,0.0721318673958313
mp-25142,V2Pb3O8,4.0278100000000014,-2.0756805784615384,0.0031253176923007
mp-767458,Tl(WO3)3,0.0,-2.0745998527884613,0.0
mp-28431,Sb(IF3)2,1.254064,-2.0725295274600004,0.0
mp-19230,K3NaCr2O8,4.373527,-2.0721851796428568,0.0022123389285697
mp-1960,Li2O,6.58367191,-2.0715149904166665,0.0
mp-18965,BaCoO3,0.0,-2.0705822417500004,0.0
mp-547792,KSbO3,3.860135,-2.0698473097500014,0.0
mp-774353,Li3Ti(NiO3)2,0.0,-2.0686198436805556,0.0414192060416684
mp-772741,Li2Mn3SnO8,0.0,-2.068368965562858,0.0479992155803445
mp-558314,TaBi4ClO8,1.992348,-2.0683235402328566,0.0696382028571447
mp-755071,SnO2,1.815667,-2.0679014558333333,0.0569533533333341
mp-1102,LuN,0.8857919999999999,-2.067593111189999,0.0
mp-754494,BaLaBr5,4.274378,-2.0674076742857137,0.0446236998214288
mp-25032,Mn2GeO4,1.883686,-2.066897110274286,0.0621763235714958
mp-549589,LaZnAsO,1.230134,-2.0653189353125003,0.0
mp-550320,Li4CO4,6.62552,-2.0650771213888888,0.1324318133333335
mp-770042,Li2CrFeO4,3.320052,-2.064884321875,0.173428185625009
mp-754596,RbGaO2,3.767848,-2.0645131681249995,0.0
mp-771842,Li3Cr2NiO6,0.0,-2.063617809791666,0.0169038791666684
mp-557328,Li3Zn2SbO6,3.953646,-2.061702819375,0.0220031099999991
mp-772059,Li5Mn4O8,0.166742,-2.0613809825788225,0.0638027963725429
mp-752539,Cs2Ba2O3,2.6418299999999992,-2.061156511964286,0.0812778800000009
mp-32761,SiO,0.0,-2.0609204364583342,0.4026142441666573
mp-18782,LiFeO2,1.750097,-2.0592533206250003,0.0176019637500006
mp-13820,Cd3SiO5,2.168136,-2.0584105601388885,0.0
mp-774153,CrSbO4,1.890868,-2.057399381666668,0.066531235000002
mp-18918,ZnWO4,4.29239,-2.0572690883333338,0.0
mp-774235,LiCr3O4,1.060996,-2.056850576875,0.1220239024999969
mp-754005,Mg(CO2)2,5.218945,-2.0567523457142847,0.084372258214282
mp-19177,CrO2,0.0,-2.0552389575000007,0.0
mp-715488,CrO2,0.0,-2.0541697325,0.0010692250000019
mp-555616,CaNb2Bi2O9,0.0,-2.054131453660714,0.627027394821428
mp-978857,SrHgO2,3.613774999999999,-2.053633100625,0.0
mp-35785,Y2CdS4,2.042517,-2.053590374464286,0.0
mp-773543,Mn2O3F,0.0,-2.053454468643336,0.0513051089583367
mp-774411,Li2VO2,2.913691,-2.0532123625,0.1027900606666651
mp-10913,GeO2,2.875346,-2.0530121325,0.0409529966666672
mp-767193,Mn7O7F,0.0,-2.052222954777331,0.0616122933333418
mp-772007,Li2Cr3CoO8,0.0,-2.051826739285713,0.0662355688095264
mp-551740,Li4CO4,6.114743,-2.0513745536111108,0.1461343811111115
mp-778411,V2CoO6,2.1397,-2.0511764986111114,0.0932327100000076
mp-985626,Na3Mn2SbO6,2.143944,-2.0511243641183317,0.0
mp-550498,Li4CO4,6.0569749999999996,-2.049878531388889,0.1476304033333333
mp-3443,Cd(GaO2)2,2.775223,-2.049742330714285,0.0
mp-33569,Sr(LaSe2)2,2.549792,-2.049435700625,0.0
mp-9761,ReO3,0.0,-2.049058864687499,0.1056593912499988
mp-1253,BaSe,2.84514581,-2.048119619296876,0.0
mp-7073,BaTiS3,0.097894,-2.0470044387708337,0.0048742802500001
mp-25110,V2Pb3O8,3.906498,-2.046346405384615,0.0324594907692237
mp-975138,RbWO3,0.0,-2.045720004750001,0.1531926125000087
mp-1215,Ti2O,0.0,-2.0432871248611115,0.0
mp-12509,YZnPO,2.043004,-2.04129176921131,0.0
mp-753524,La2(BiO2)7,0.522624,-2.0408485827173912,0.086388112065217
mp-773280,TiMn5O12,2.8162529999999992,-2.040845198137037,0.0544341225000017
mp-776913,Li2FeWO6,0.314199,-2.04023042875,0.0799830926875015
mp-774101,LiFeO2,2.521302999999999,-2.040096703125001,0.0367585812499999
mp-773270,LiV3CoO10,1.556865,-2.039368642166665,0.0821573872291665
mp-770405,BaLaBr5,4.099059,-2.038934855714285,0.0730965183928571
mp-559373,Ge4PbO9,4.917885999999999,-2.038435840089286,0.0062534184821725
mp-36395,La2CdS4,2.494952999999999,-2.037856656607143,0.0906170999999993
mp-975292,RbMoO3,0.0,-2.0372808127499997,0.1923617994999951
mp-756437,SrLaBr5,4.377946,-2.037200117857143,0.0438412560714267
mp-776233,Li2Fe3SbO8,2.023398,-2.036915575357142,0.0104999875000029
mp-19279,Li2MnO2,3.703741,-2.0364883526919995,0.0090248296666652
mp-15800,Ti3PO2,0.0,-2.0360239900992063,0.3082492055555529
mp-766932,Mn5O7F,0.668092,-2.0356372538261533,0.0779841551923112
mp-25015,LiMn2O4,0.0,-2.035212635988572,0.0376844319260225
mp-37741,Ba(LaSe2)2,2.444107,-2.0338501034821426,0.0020537057142888
mp-18957,NaMnO2,2.618789,-2.0335101396149997,0.0
mp-773283,Li2Mn3FeO8,0.0,-2.0328560366342856,0.0157938276190092
mp-13287,BaCuTeF,2.139095,-2.0326263702975007,0.0
mp-772479,Mn3V2O10,0.765299,-2.032355462358667,0.0983432663333321
mp-984628,CaBO3,0.0,-2.0317732240833344,0.8964383696250016
mp-770797,LiMn2O4,1.44302,-2.030052410274286,0.0428446576403089
mp-25010,NaMnO2,2.384427999999999,-2.0294985771150005,0.0040115625000014
mp-18814,MnCO3,4.884755,-2.029496478442,0.0
mp-12263,LiAuF4,3.970865,-2.0288131466266663,0.0042320325
mp-14305,Lu2MnS4,2.122043,-2.028439004464286,0.0
mp-756439,SrLaBr5,4.061234,-2.02770911,0.0533322639285698
mp-773299,LiMn3CrO8,2.122068,-2.0252992340676914,0.0066855971794836
mp-6879,Ba2CaCu2HgO6,0.0,-2.0252512214583342,0.0125123553124968
mp-23263,LaBr3,4.56815,-2.0251806875,0.0