mpid,formula,BG,FE,e_hull
mp-1953,TiAl,0.0,-0.4005888033333339,0.0
mp-399,Te2Pt,0.0,-0.4004080700000004,0.0
mp-14433,NaGe2N3,3.553692,-0.4002376020233325,0.0
mp-19768,NiAsRh,0.0,-0.4001690166666663,0.0
mp-1689,HfRe2,0.0,-0.4000916583333354,0.0
mp-9664,K3BP2,2.35437,-0.3999580829761905,0.0
mp-3481,KSnAs,0.637532,-0.3997732633333335,0.0
mp-10371,Cr2GaN,0.0,-0.3997579030949989,0.0287896283333326
mp-1963,NbRh,0.0,-0.3989106724999996,0.0
mp-11719,K4ZnP2,1.506044,-0.3987569515986392,0.0
mp-983,RhSe2,0.0,-0.3986094973958328,0.0
mp-8882,GaP,1.935376,-0.3985456665476193,0.0098901075000004
mp-3698,SrAlSi,0.0,-0.3983536866666674,0.0
mp-2395,Sb3Rh,0.075117,-0.3977451687500002,0.0
mp-18063,SrSn3,0.0,-0.3962057481249999,0.0
mp-973954,LuFeGe2,0.0,-0.3961106512499999,0.0356945012499991
mp-2027,HfCo,0.0,-0.3960268224999997,0.0030468250000001
mp-973646,Lu2ZnHg,0.0,-0.3957985737499996,0.0141848774999999
mp-15642,SrMgSi,0.35086700000000004,-0.3947253183333335,0.0
mp-974049,Hf3Pt,0.0,-0.3928260699999999,0.18419416375
mp-1399,AlAu,0.0,-0.3924443062500002,0.0
mp-961676,HfGePt,0.0,-0.392384313333333,0.5164045941666666
mp-3433,YMgNi4,0.0,-0.3922482437500007,0.0
mp-10729,Pd2O,0.0,-0.392155593750001,0.1402647749999976
mp-867273,Be2CuIr,0.0,-0.3921467999999999,0.0
mp-1115,PtSe2,1.120346,-0.3917970390625006,0.0
mp-9573,NaBeAs,1.982054,-0.3917251716666665,0.0
mp-11815,SrSbAu,0.0,-0.3914960883333336,0.3154677160185173
mp-27257,PBr3,4.432835,-0.3912930676488098,0.0
mp-7038,TlPd2Se3,0.782943,-0.3908717176302089,0.0
mp-10906,ZrAlPt2,0.0,-0.3905494700000007,0.6754131443750007
mp-6933,MnN,0.0,-0.3902321861899996,0.092556665
mp-13871,P2Pt5,0.0,-0.3902140537414961,0.0
mp-976724,Hf(VH2)2,0.0,-0.389746521354285,0.0001706233333331
mp-867812,LiAlNi2,0.0,-0.3894071825000003,0.0027037431250009
mp-7575,LiZnN,1.85581263,-0.3891647791266664,0.0
mp-981386,ScH4Pd3,0.0,-0.3890100955599997,0.0354627469400004
mp-1458,Nb3Ir,0.0,-0.3889443212499994,0.0
mp-10195,LuS2,0.0,-0.3872726460416664,1.665343373333334
mp-28317,NaCu5S3,0.45706399999999997,-0.3868275463541669,0.1674681704166642
mp-8936,SnSe,1.43711973,-0.386787161796875,0.0461006324999999
mp-971751,VRh,0.0,-0.3862231100000013,0.0
mp-10899,AlVNi2,0.0,-0.3860662149999996,0.0450264624999992
mp-3123,PPdSe,1.83934,-0.3859843722296633,0.0
mp-7070,Mn3PtN,0.0,-0.3856236764759984,0.0005351059999991
mp-1407,Rh3Se8,0.0,-0.3850528198863646,0.0
mp-867201,CaInHg2,0.0,-0.3849259625000001,0.0
mp-15614,Cu(RhSe2)2,0.0,-0.3845604270535716,0.0
mp-4431,Ag3AsS3,1.98865,-0.3844577967410712,0.002660378571428
mp-9244,LiBC,1.548919999999999,-0.3844550613888889,0.0
mp-10435,Y(AlSi)2,0.0,-0.3844028884999993,0.0033235640000004
mp-23804,Mg2FeH6,3.826199,-0.3834817879688887,0.0
mp-13149,BaAlSi,0.0,-0.3827936899999997,0.0
mp-13534,LaZnNi,0.0,-0.3827035250000013,0.0
mp-9720,Rb3BP2,2.209896,-0.3825063771428573,0.0
mp-867245,LaAgHg2,0.0,-0.3824897049999998,0.0
mp-31442,Li2InRh,0.0,-0.3824702350000005,0.0
mp-11275,Be2Re,0.0,-0.3820494200000001,0.0
mp-5496,Al5C3N,2.342597,-0.381843065542222,0.0439914916666666
mp-31348,Sc2In,0.0,-0.3807928116666659,0.0
mp-6938,ZnRh,0.0,-0.3807442674999999,0.0
mp-38170,Cd(InSe2)2,0.0,-0.3806563627678575,0.2030573171428571
mp-961681,ZrGePt,0.0,-0.3806115183333342,0.6071731549999999
mp-449,Fe5Si3,0.0,-0.3804938543750005,0.0336277699999998
mp-2663,Nb3Pt,0.0,-0.3801447062499985,0.0
mp-10159,K3Sb,1.45301698,-0.3797494662499998,0.0285353175000002
mp-11388,GaIr,0.0,-0.3796046200000003,0.0
mp-14624,K5P2Au,1.102815999999999,-0.3792944351488097,0.0
mp-973539,LuAl3,0.0,-0.3791185675,0.0130804324999997
mp-31454,TaSbRu,1.27505646,-0.3788853466666673,0.0
mp-558378,Pd3S,0.0,-0.3788719822656255,0.0
mp-11350,CaAl9Co2,0.0,-0.3785020208333331,0.0051845781249983
mp-728,Li2Pd,0.0,-0.3783484733333336,0.0
mp-3173,CaAlSi,0.0,-0.3782676266666669,0.0030531999999983
mp-28099,SBr,3.324737,-0.3778401407812497,0.0
mp-1412,Ti3Sb,0.0,-0.3777953062500004,0.0
mp-27838,Na3Bi,0.344394,-0.3773823125000002,0.0
mp-8860,Na3As,0.6115959999999999,-0.3772109750000001,0.0453722612499998
mp-11398,Ga3Ni5,0.0,-0.3768876162499994,0.0
mp-451,ZrB,0.0,-0.3768543483333344,0.3670264124999987
mp-11515,NbRh,0.0,-0.3765878525000001,0.0223228199999994
mp-2699,CaSi2,0.0,-0.3765679016666663,0.0
mp-867179,SrCdHg2,0.0,-0.37544368875,0.0018311142045455
mp-11360,ScGaCu2,0.0,-0.3754398774999999,0.0
mp-2540,VTc,0.0,-0.3748819949999991,0.0
mp-754185,Y2MgNi2,0.0,-0.3748259570000009,0.0
mp-1185,VRh3,0.0,-0.3745041100000001,0.0077946912500035
mp-11575,YTl,0.0,-0.3739782987500009,0.0
mp-1007730,HfAl3,0.0,-0.3738931162499997,0.0213235287499999
mp-977357,Ta2ReRu,0.0,-0.3738429749999988,0.0
mp-11566,ScZn,0.0,-0.3736794024999997,0.0
mp-1260,SrPd5,0.0,-0.3735921166666672,0.0
mp-15685,Na2CuAs,1.439435,-0.37346614875,0.0
mp-2420,PW,0.0,-0.3733660902976189,0.0
mp-644739,LaGa6,0.0,-0.3717852599999998,0.0
mp-972087,ZrH3,0.0,-0.3717835864650008,0.1182228453449996
mp-10850,SbTePd,0.0,-0.3716634808333327,0.4546241447809534
mp-31147,BaZnSi,0.0,-0.3715863066666665,0.0
mp-1247,Sb2Ir,0.972135,-0.3714788016666664,0.0
mp-2841,ScSi2,0.0,-0.3712653533333328,0.1847982366666656
mp-11985,LaMgTl,0.0,-0.3709361861111111,0.0
mp-961719,HfAsRh,0.0,-0.3708068499999999,0.4833545856410266
mp-8753,K4HgP2,1.568441,-0.3707118023129254,0.0
mp-983358,HfAlFe2,0.0,-0.3697169037500005,0.0
mp-2001,LaTl3,0.0,-0.3691031412500001,0.0
mp-2012,LiHg,0.0,-0.36890669,0.0
mp-7392,Na2AgSb,1.301012,-0.3684137000000005,0.0
mp-2337,HfCo2,0.0,-0.3680198716666681,0.0
mp-11253,NaSnAu,0.0,-0.3676777899999995,0.0
mp-2716,TiNi,0.0,-0.3675781672222232,0.0289794286111098
mp-1106,Sr2Si,0.803384,-0.3670492758333334,0.0
mp-28667,Ta(NiTe)2,0.0,-0.3669088734999996,0.0
mp-2488,SiOs,1.1516,-0.3668728824999992,0.011948143333333
mp-14206,K3Ag3As2,1.836554,-0.3664286974999995,0.0
mp-11826,CaPd5,0.0,-0.3664165149999998,0.0
mp-23950,K(BH)3,5.994235,-0.365632574408571,0.0472164335714291
mp-627439,Mn3GaN,0.0,-0.3654002964759983,0.0
mp-971739,ZnCuPt2,0.0,-0.3647067612499999,0.0017904887500002
mp-487,MnP4,1.394042,-0.3644928664761906,0.0003435193333345
mp-13560,YB2Pd7,0.0,-0.3642361585833342,0.1385175159999985
mp-11191,CrSi2,1.2214800000000001,-0.3633700844444437,0.0114057988888909
mp-1222,CrSi2,1.221346,-0.3633686066666668,0.0114072766666675
mp-1967,TaTe2,0.0,-0.3629253877777774,0.0
mp-2557,Zr2Al,0.0,-0.3626896933333335,0.0136166039999992
mp-486,NiP2,1.2222870000000001,-0.3625226187301583,0.0111648566666673
mp-1052,NaAu2,0.0,-0.3624996850000001,0.0
mp-23281,SbI3,2.685556,-0.3623804312500001,0.0
mp-496,SrSi2,0.0,-0.362106806666666,0.0030152150000004
mp-14172,SrSi2,0.0,-0.3621067658333335,0.0030152558333336
mp-10092,KCu4Se3,0.0,-0.3620385707226559,0.0130415106249999
mp-558552,Ta6S,0.0,-0.3618386162946417,0.0052867355357157
mp-12549,BaAl9Ni2,0.0,-0.3618084949999994,0.0
mp-12109,ZrRe2,0.0,-0.3617187558333323,0.0
mp-675926,LiBH4,6.8804110000000005,-0.3611924935244441,0.0714630316666649
mp-14983,Si4P4Ru,2.2867059999999992,-0.3610621119312169,0.0
mp-10009,GaTe,1.37827886,-0.3607627800000004,0.0039807824999997
mp-2516,YZn,0.0,-0.3607610987499998,0.0
mp-9391,TaNi2Te3,0.0,-0.3602355533333335,0.0
mp-915,YCd,0.0,-0.3600577137499998,0.0
mp-11248,LiAu3,0.0,-0.3591073800000002,0.0
mp-961720,ZrAsRh,0.0,-0.3590899716666662,0.5244673593333369
mp-973756,Lu2Mo2C3,0.0,-0.3590204732142855,0.0
mp-23164,Bi2Se3,1.30781519,-0.35842273465625,0.0259400524999993
mp-13082,Mn2CoSi,0.0,-0.3582195024999989,0.020386160000001
mp-16319,Rb3Sb,0.557061,-0.3581003762499997,0.0
mp-7158,Lu(AlGe)2,0.0,-0.3577626280000004,0.0030956210000008
mp-1941,GaNi,0.0,-0.3577617249999996,0.0371513021428588
mp-252,BeTe,2.98439052,-0.3576741975000002,0.0
mp-16648,LiSn4Rh,0.0,-0.3571677499999997,0.0
mp-28591,Na4HgP2,1.5270890000000001,-0.3570393880272107,0.0
mp-1073,CaCd,0.0,-0.3567905075000002,0.0
mp-7420,KHgAs,0.0,-0.3560152249999995,0.0
mp-3736,ZrAlCu2,0.0,-0.3559443850000008,0.0
mp-1492,CdTe,0.6906439999999999,-0.3550374208333332,0.1074853316666666
mp-10849,AsPdSe,0.0,-0.3549164586979169,0.0
mp-891,TaNi3,0.0,-0.3548773187499998,0.0036533187500031
mp-2461,CaGa4,0.0,-0.3536507560000001,3.3471999999701296e-05
mp-20061,GePt2,0.0,-0.3534247161111115,0.0311582976388891
mp-973893,Lu2TlHg,0.0,-0.3533888037499997,0.0
mp-3623,MnAlCo2,0.0,-0.3529218099999998,0.0
mp-15660,Nb4C3,0.0,-0.3527724746428577,0.1710563403571434
mp-4083,MgCuAs,0.167272,-0.3525504016666663,0.0053525583333353
mp-11393,Nb3Ga2,0.0,-0.3513092630000002,0.0
mp-20134,KCN,6.79032225,-0.3511600666266664,0.1713690620833237
mp-333,HfFe2,0.0,-0.3511559783333323,0.0
mp-11873,TlAsPd5,0.0,-0.3509707028571429,0.0
mp-1786,Ti3Au,0.0,-0.3508878075000004,0.0
mp-28302,K4CdP2,1.429733,-0.3508728958843541,0.0
mp-253,ScCo2,0.0,-0.3507086799999992,0.0
mp-15684,K2CuAs,1.767627,-0.3501182712499999,0.0
mp-867874,BeVRu2,0.0,-0.3500508912500013,0.0
mp-729,Cr3Si,0.0,-0.3498983312499995,0.0
mp-23736,LiMgH3,5.164114,-0.3498421361719998,0.0113146079999992
mp-11984,YMgTl,0.0,-0.3492230691666663,0.0
mp-556866,Ag2HgSI2,2.2995389999999998,-0.3490105306770834,0.0
mp-10229,Nb3Si,0.0,-0.3486416524999996,0.0965349683333354
mp-10204,MnSe,0.62691668,-0.3485920967968745,0.0116716099999996
mp-1111,Mn5Si3,0.0,-0.3485621968750001,0.0450789374999995
mp-11213,BaAgSb,0.0,-0.3485366166666666,0.302791155119047
mp-11220,Sc2Al,0.0,-0.3483886116666674,0.0
mp-31486,K2SnBi,0.0,-0.3482060150000001,0.0
mp-9778,K2AgP,1.863558,-0.3479316870238094,0.0
mp-14623,K5CuAs2,0.8306129999999999,-0.3475563275,0.0
mp-2534,GaAs,0.6344543300000001,-0.3472492675000005,0.0
mp-9201,K4Ge2Au7,0.0,-0.3471290276923075,0.0
mp-4798,Sc(AlC)3,0.716283,-0.3470063489285725,0.0
mp-1008865,NdCd2,0.0,-0.346888985833333,0.0
mp-8752,Na4CdP2,1.361899,-0.3466312158843538,0.0
mp-11693,TePt,0.0,-0.3455159725000003,0.0
mp-13092,Zr6Al2Ni,0.0,-0.3454925622222223,0.0157181744444452
mp-12760,Zr6Al2Co,0.0,-0.344995192222222,0.0
mp-9665,K3BAs2,1.894433,-0.3449446661111105,0.0047806458680552
mp-972,MnSe,0.755139,-0.3448823592968741,0.0153813474999999
mp-7275,BaSi2,0.218094999999999,-0.3446643866666672,0.0142145966666662
mp-11557,ScRe2,0.0,-0.3441682399999995,0.0
mp-27922,GeI2,2.810701,-0.3439537483333335,0.0
mp-8868,Ba3NaN,0.0,-0.3438020444759999,0.0
mp-665,SnSe2,1.150305,-0.3437956073958333,0.0
mp-973653,Lu2ZnAg,0.0,-0.3436632762499996,0.0
mp-27853,Hg3(TeBr)2,2.42385,-0.343593165,0.0
mp-4992,ScCrC2,0.0,-0.3433700387500007,0.0
mp-11263,Zr3Au,0.0,-0.3432266687500007,0.0
mp-10003,Nb4CoSi,0.0,-0.3431781066666677,0.019272106249998
mp-1543,Ge2Pt,0.0,-0.3429716549999995,0.0034992887500004
mp-1356,Sb2Pd,0.0,-0.3428970974999998,0.0
mp-28006,Ca(Cu2As)2,0.0,-0.3424942328571429,0.0035423807142862
mp-23737,KMgH3,3.520786,-0.3418343411719998,0.0
mp-1331,YCd2,0.0,-0.3418256174999996,0.0
mp-1598,Na3P,1.039783,-0.3416982145238099,0.0
mp-753490,TiCuGe,0.0,-0.3415732272222224,0.0657385108333334
mp-374,CrB2,0.0,-0.3410657211111119,0.0700930483333284
mp-3486,KSnSb,0.7057370000000001,-0.340476346666667,0.0
mp-1239,Sb3Ir,0.669482,-0.3399392306250002,0.0
mp-973586,Lu(AlC)3,0.7863020000000001,-0.3399210760714289,0.0
mp-637918,Cr3GeN,0.0,-0.3397261654759987,0.0075467519999996
mp-363,NbGe2,0.0,-0.3394903188888886,0.0
mp-13503,ScZn2,0.0,-0.3386413766666667,0.0
mp-2474,YAg,0.0,-0.3381628812500006,0.0
mp-10015,SiOs,0.0,-0.3376853074999992,0.0411357183333329
mp-956096,HfFe2,0.0,-0.3363458016666669,0.0148101766666659
mp-977573,HfH3,0.0,-0.3363387652149994,0.1008630003450008
mp-4248,YCoC2,0.386733999999999,-0.3362795743750002,0.0
mp-18032,Nb5Ga4,0.0,-0.3354028466666669,0.0101800174521118
mp-13459,NaCdSb,0.481979,-0.3352099083333331,0.0
mp-23231,AgBr,2.02991683,-0.3345463849999999,0.037009185
mp-1250,Lu2In,0.0,-0.3344465583333331,0.0
mp-9718,Rb3BAs2,1.8154759999999999,-0.3341566894444441,0.0
mp-2606,BaPd5,0.0,-0.3339723183333341,0.0
mp-267,Te2Ru,1.138822,-0.3339671166666663,0.0
mp-867958,TaInRu2,0.301355999999999,-0.3337527174999994,0.0
mp-1221,V3Ge,0.0,-0.3337172974999998,0.0
mp-31453,NbSbRh,0.0,-0.3335251316666661,0.0746815054166667
mp-27549,K2AgBi,1.330679,-0.3332402487499997,0.0
mp-13854,B3Ru2,0.0,-0.3329817149999997,0.0
mp-10887,HfAlCu2,0.0,-0.3328876687499997,0.0
mp-31141,SrBiAu,0.0,-0.3326454849999998,0.3254216422222225
mp-561017,Cs8Tl8O,0.47499800000000003,-0.3321124100735292,0.0
mp-7439,K3Cu3P2,2.233028,-0.3321052695238098,0.0
mp-977383,ZnPd2Au,0.0,-0.33196567875,0.0
mp-976976,MgPd5,0.0,-0.3319324416666666,0.0
mp-20257,AsPd3Pb2,0.0,-0.3314551683333337,0.0
mp-977059,MgPd5,0.0,-0.3311788016666674,0.0007536399999992
mp-13090,YMgAl,0.0,-0.3307405374999995,0.0
mp-975578,Li2SnHg,0.0,-0.3306238937499999,0.0173932733333335
mp-1703,YbZn,0.0,-0.3305931124999997,0.0
mp-2658,AlFe,0.0,-0.3304594550000006,0.0
mp-10359,Zr(CoGe)6,0.0,-0.3303189169230762,0.0095875952764412
mp-3380,LaRhC2,0.0,-0.3302909081249998,0.0381750418750002
mp-977,LuIn3,0.0,-0.3301409974999996,0.0
mp-16529,Al6Ru,0.0,-0.3295015164285715,0.0
mp-353,Ag2O,1.014284,-0.3294873020833335,0.0
mp-16753,LuCuPb,0.0,-0.3293690666666666,0.0
mp-3539,NbGaNi2,0.0,-0.3292404524999997,0.0101303445677567
mp-8911,CuAgS,1.140496,-0.3290004913541669,0.0242558294444439
mp-5014,CuAgS,1.283248999999999,-0.3289827421875001,0.024273578611111
mp-10289,Ca(BC)2,1.289245,-0.328641818666668,0.0
mp-20235,CaMnGe,0.0,-0.3286223566666664,0.1067301483333311
mp-867342,Li3Ge,0.0,-0.3279032287499999,0.0072740859374995
mp-1848,Te2Ru,0.727636,-0.3278779408333339,0.0060891758333321
mp-867197,LiGaNi2,0.0,-0.3275160999999995,0.0
mp-982734,WN2,0.0,-0.3272350232533322,0.193844388333332
mp-776,LaCd,0.0,-0.3271826024999997,0.0
mp-14018,K3As,0.593492,-0.3263272000000001,0.0
mp-1078,CaCd2,0.0,-0.3261720091666668,0.0076505674999998
mp-12411,Li2ZnGe,0.5125315100000001,-0.3257067624999998,0.0082643718750001
mp-867901,ScTaTc2,0.0,-0.3256958125000011,0.0
mp-977571,MgRh2Pb,0.0,-0.3256618375000002,0.0
mp-16052,Ba(Cu2As)2,0.0,-0.3255026885714284,0.0373412699999997
mp-984704,CaAgHg2,0.0,-0.3252882425000001,0.0176859766071426
mp-10706,ZrRu3C,0.0,-0.3249142824999993,0.0
mp-27587,Li8Pb3,0.0,-0.3242550445454542,0.0
mp-7701,BaSi2,0.0,-0.3230186933333338,0.0358602899999995
mp-1601,TaRu,0.0,-0.3226796775,0.0
mp-328,Zr2Ni,0.0,-0.3226203666666668,0.0
mp-12564,LiSbAu,0.0,-0.3218589549999997,0.0669756081818175
mp-984612,Be3Ru,0.0,-0.3216452299999997,0.0051338250000005
mp-1691,La2Ni3,0.0,-0.3214182480000005,0.0035608787777761
mp-11482,MoIr3,0.0,-0.3211098699999989,0.0
mp-2404,CaAl2,0.0,-0.3211044133333332,0.0
mp-3392,Ba(TlHg)2,0.0,-0.3210781005000001,0.0
mp-1008488,BiPd,0.0,-0.3206436674999997,0.0
mp-16315,GePt3,0.0,-0.3203380212499995,0.0
mp-2715,CoAs2,0.45791800000000005,-0.3201363949999998,0.0
mp-10769,BaSbAu,0.0,-0.3193084649999995,0.6061747900000003
mp-19936,Sc(MnGe)6,0.0,-0.3192945130769227,0.0
mp-982443,NaCaPb2,0.0,-0.3190706862499999,0.0244433284375
mp-3400,Lu(MnGe)6,0.0,-0.3188005523076913,0.0
mp-12773,Zr2Al,0.0,-0.3184542400000001,0.0578520573333323
mp-35071,InAgSe2,0.0,-0.3183410230468748,0.1106291437500002
mp-31510,NbCuTe2,0.0,-0.3180974174999997,0.0252629890625009
mp-24154,NbH2,0.0,-0.3175989290800001,0.0
mp-23751,CsMgH3,3.661905,-0.3175607871719995,0.0041437343333319
mp-2439,ZrNi5,0.0,-0.3174398799999996,0.0018186104166675
mp-16483,BaAl9Fe2,0.0,-0.3173298133333328,0.0
mp-1628,TeRh,0.0,-0.3171169300000001,0.0210980887499978
mp-9281,ZnTe,0.43173599999999995,-0.3169477425,0.1511552100000002
mp-28490,Tl3BSe3,1.662182,-0.3167283903497022,0.0
mp-11230,Y2Al,0.0,-0.3163478666666665,0.0
mp-23192,HgI2,2.234501,-0.3154334866666666,0.000289859375
mp-1578,V3Rh,0.0,-0.3154040437500001,0.0
mp-10381,K2CuSb,1.9691349999999999,-0.3151722824999998,0.0
mp-20196,NbTe4,0.0,-0.3149396000000003,0.0134802653333325
mp-7684,Tl3AsSe3,1.378763,-0.3146905108258932,0.0
mp-556853,MnS,0.0,-0.3142822370312501,0.6344750724999999
mp-1915,Fe2B,0.0,-0.3142600505555559,0.0
mp-13288,Ba3LiN,0.0,-0.3131376034759999,0.0210402203333335
mp-6988,FeN,0.0,-0.3129770061899997,0.0
mp-541772,Bi4RuBr2,1.3502100000000001,-0.3123045392857137,0.0
mp-973956,Lu2CdAg,0.0,-0.3117662412499995,0.0
mp-650,Be5Pd,0.0,-0.3116986308333332,0.0
mp-980200,Zn3Rh,0.0,-0.3116349975000001,0.0172084087499997
mp-1677,Be2Mo,0.0,-0.3110271141666665,0.0
mp-7783,La(BC)2,0.0,-0.3108865216666672,0.1271367200000037
mp-14205,K3Cu3As2,2.173056,-0.3101304487499994,0.0
mp-384,MgP4,1.364393,-0.3099595384761912,0.0
mp-4952,La2MgNi2,0.0,-0.3096526480000001,0.0
mp-11259,TiAu,0.0,-0.3093914933333339,0.1176266400000009
mp-929,ZrCo2,0.0,-0.3091669033333346,0.0
mp-27438,TlBiTe2,0.7393759999999999,-0.3090594700000002,0.0
mp-34903,MgGeP2,2.204503,-0.308858616547619,0.0130066039999992
mp-11489,Li3Pd,0.0,-0.3087134600000003,0.0
mp-2501,BMo2,0.0,-0.3086325222222197,0.0195795991666685
mp-545825,NaIO3,0.0,-0.3084622717500004,1.0292194084999986
mp-971909,ZnPd3,0.0,-0.3075496087500005,0.0155060224999994
mp-11038,Zr6Al2Fe,0.0,-0.3069498922222209,0.0027021551111108
mp-3289,LaMgNi4,0.0,-0.3067973316666658,0.0
mp-32684,HBr,5.723641,-0.3061891668099998,0.0216794375
mp-4771,TiAlCu2,0.0,-0.3057252891666673,0.0
mp-4247,NaZnSb,0.132092,-0.3056595600000002,0.0
mp-1099,NiGe,0.0,-0.30448291125,0.0
mp-23206,BiPd,0.0,-0.3039108381249997,0.0167328293749999
mp-10198,Mn3PdN,0.0,-0.3037699924760005,0.0224421475999996
mp-24728,VH2,0.0,-0.3035835357466663,0.0
mp-4364,NbGaCo2,0.0,-0.3026927424999997,0.0
mp-2424,LaZn5,0.0,-0.3026910975000003,0.0
mp-961686,HfSiNi,0.0,-0.302485005,0.5438439738288299
mp-31452,ZrNiBi,0.0,-0.3024823350000005,0.0749107383333314
mp-17383,Ni2Ge,0.0,-0.3023568599999997,0.0013422191666663
mp-2349,YCd3,0.0,-0.301144806875,0.0
mp-11282,Be2W,0.0,-0.3007025108333335,0.0
mp-984550,CsGaH4,5.287248,-0.3006742215799996,0.0
mp-19713,Sc3In,0.0,-0.3005657512500006,0.0
mp-984725,BaTl3,0.0,-0.2998120200000001,0.0027043399999993
mp-1471,Zr3Al,0.0,-0.2994609024999999,0.0
mp-695,TiCo2,0.0,-0.2993899638888895,0.0025749799999994
mp-975140,RbZn4P3,0.792828,-0.2991410305357145,0.0
mp-452,CoAs3,0.32526000000000005,-0.2986515775000002,0.0
mp-961716,VSnPt,0.0,-0.2976905116666669,0.1758472077777826
mp-972396,Ti2MnRe,0.0,-0.297484062083333,0.0233512837500011
mp-1275,SiMo3,0.0,-0.2970659049999984,0.0
mp-15955,Y(BC)2,0.0,-0.296885735166667,0.145385276999999
mp-1334,Y2C,0.0,-0.2966934641666678,0.0
mp-16747,LuAgPb,0.0,-0.2961535588888885,0.0
mp-7576,CrSi,0.0,-0.2961487424999998,0.0686761200000001
mp-1637,Re2P,0.0,-0.2957716668650789,0.0
mp-2597,InTe,0.0,-0.2957271349999999,0.0084507497368409
mp-6931,Sr(AlSi)2,0.0,-0.2957165880000005,0.0
mp-7704,Ca(AlSi)2,0.0,-0.2956921700000002,0.0
mp-10847,NiSbSe,0.0,-0.2956528111979158,0.0
mp-1401,ZrZn2,0.0,-0.2940912466666668,0.0
mp-23173,HgI2,3.337389,-0.2937704599999999,0.0219528860416666
mp-2361,Hf5Al3,0.0,-0.2923928312499999,0.0487665050000005
mp-1211,ScCd,0.0,-0.2923464425,0.0
mp-947,Au2S,3.003052,-0.2923078013541674,0.0
mp-10270,ScCo3C,0.0,-0.2922739114999999,0.0
mp-2536,Ni2B,0.0,-0.2920394222222231,0.0
mp-28395,B6P,3.277464,-0.2917146475850337,0.0
mp-10463,YCo4B,0.0,-0.2915478931944453,0.009481624393941
mp-975144,RbZn4As3,0.0,-0.2914924156249996,0.0
mp-34240,NaZnAs,0.36759922,-0.2905973049999997,0.1302716016666663
mp-1008911,LiMnAs,0.0,-0.2905743483333325,0.1456826700000019
mp-962068,CaMgSn,0.0,-0.2903818816666662,0.2587766058333347
mp-6908,YMgZn,0.0,-0.2892503758333333,0.0
mp-10846,NiAsSe,0.0,-0.2880929978645839,0.0
mp-34460,Ag3AuS2,2.616234999999999,-0.2874891996875005,0.0
mp-23253,RbBi2,0.0,-0.2871828299999996,0.0
mp-1451,NbNi3,0.0,-0.2861602899999997,0.0008140887500003
mp-23163,CsBi2,0.0,-0.286034281666667,0.0
mp-973615,LuSb3,0.0,-0.2856836012500006,0.2218366649999996
mp-9198,Fe(SiP)4,1.9013719999999992,-0.285493132486773,0.0
mp-973143,ScZn3,0.0,-0.2851094887499998,0.017398207499998
mp-961665,MgScGa,0.467541,-0.2847086233333336,0.1358061158333332
mp-15651,NiSe,0.0,-0.284210530963542,0.0
mp-1077,B2Ru,0.0,-0.284157827777778,0.0
mp-10764,HgS,0.0,-0.2837726620312497,0.18039511
mp-1718,ZrFe2,0.0,-0.2837623766666664,0.0
mp-640345,Cs2MnFe(CN)6,0.0,-0.2837467955799999,0.0197741109635423
mp-2388,CdTe,0.0,-0.2835127274999998,0.1790100250000001
mp-982064,Tl3Br,0.0,-0.28342906,0.1592850462500004
mp-28691,TaTe4I,0.7345809999999999,-0.2828863066666667,0.0