mpid,formula,BG,FE,e_hull
mp-697,SnO2,1.648286,-2.024449166666667,0.1004056425000001
mp-733929,P2H4PbO8,5.53350952,-2.0235937457113646,0.0483188040000008
mp-778766,Li2Fe3WO8,0.0,-2.0232143635714297,0.0744381346428406
mp-770391,Li2CrO2,2.268663,-2.0225706904999994,0.0859124953333321
mp-24927,CrHO2,4.067420999999999,-2.021311107780001,0.0
mp-24917,Cr2TeO6,2.458538,-2.019947355277779,0.0
mp-773330,Li2Mn3SnO8,0.0,-2.019560412705715,0.0968077684374879
mp-2589,MgO2,6.04121,-2.019244299999999,0.0242452504166648
mp-1415,CaSe,3.1083312,-2.017474534296875,0.0
mp-752742,LiCu2F4,0.269974999999999,-2.017108734251429,0.0584729360714284
mp-10064,SiO2,3.142692,-2.0133455475,1.2713673600000002
mp-549389,Li4CO4,7.849156,-2.0131444402777774,0.1843644944444449
mp-491,La3Se4,0.0,-2.012808351339286,0.0089054764285707
mp-551848,Li4CO4,7.895101,-2.012153993611111,0.1853549411111119
mp-18779,Na2CrO4,4.160211,-2.010304077142857,0.0
mp-677445,Y4SiS3,0.0,-2.0101327677734373,0.0
mp-771791,Cr3(FeO4)2,0.257658999999999,-2.0098466761538463,0.0935700838461546
mp-31516,Co(ReO4)2,0.0,-2.0083352100000007,0.0
mp-25503,CrHO2,3.425916,-2.008303506530001,0.0130076012499991
mp-973267,KTcO3,0.0,-2.00683768675,0.0
mp-775986,NaNiBO3,3.736424,-2.0065852650694445,0.0422947475000032
mp-752561,SbO2F,2.510509,-2.0060271746725,0.008792512374999
mp-721013,ZnGaP2H4NO8,5.2488304,-2.0050002734147343,0.0076981293382365
mp-774123,Li2Mn3TeO8,0.0,-2.004902238777144,0.0115045536756053
mp-35185,NbBi3O7,2.601139,-2.004101462159092,0.1291013918181818
mp-34036,NbBi3O7,3.00177,-2.003688049431818,0.1295148045454546
mp-550474,Li4CO4,5.229739,-2.0028595480555555,0.1946493866666676
mp-9657,LiAsO3,4.927638,-2.0017656047500005,0.0
mp-975216,RbReO3,0.0,-2.0016906277500004,0.1374509348823522
mp-772231,RbCrO2,3.856186,-2.001361120625,0.0
mp-25054,MoPbO4,3.7304,-2.0005330366666656,0.0
mp-19143,BaCo2(AsO4)2,3.120189,-2.000203325384616,0.0
mp-977176,NaTcO3,0.0,-1.9997494257500008,0.0
mp-23582,KLi6BiO6,2.474815,-1.9978494594642853,0.0
mp-19387,CdWO4,4.202434,-1.9973583916666664,0.0
mp-753663,BaYBr5,4.9022440000000005,-1.996678036071429,0.0565714176785734
mp-752753,SbO2F,2.491057,-1.9964716409225,0.0183480461249994
mp-775112,Li2CoSnO4,2.882491,-1.9956246737499992,0.0156474565624975
mp-770101,Li5MnO5,0.0,-1.9956122470190905,0.0616610590909099
mp-13983,ZnPdF6,3.44339,-1.9953108440175005,0.0
mp-772968,LiTlPHO3,4.980986,-1.9939019857807487,0.0067753520337303
mp-773294,Mn4CrO8,0.8262780000000001,-1.9923931372184625,0.0472849792067222
mp-38487,Li7BiO6,3.145349,-1.991174410892857,0.0
mp-754021,BaYBr5,4.282302,-1.991112079642857,0.0621373741071451
mp-979416,Ta2Be2O5,0.0,-1.9902964506944436,0.959856411555556
mp-777584,Na7NbO6,4.125126,-1.988905528035714,0.093475336785711
mp-557515,CrBiO3,2.741504,-1.9885874267499992,0.0130180412499996
mp-722860,Na2MgH4(SO4)2,6.22011,-1.9878891354473525,0.0292115646766948
mp-767659,Li3MnFe3O8,1.642007,-1.987628761397333,0.0692194370000001
mp-546011,YZnAsO,1.8444580000000002,-1.9875942046874997,0.0
mp-755894,Li2O,6.982647,-1.98607039875,0.0854445916666666
mp-32311,Re2NiO8,4.610805,-1.9854096636363636,0.0
mp-715463,MoO3,2.590467,-1.9846090234375,0.0388549540625007
mp-769685,Li2NiBO4,2.289949,-1.9844834689583333,0.0781565944531283
mp-776996,Li2CoSnO4,2.005242,-1.98359699125,0.0276751390624969
mp-542102,SrCoO3,0.0,-1.9801876807500007,0.0636311152338722
mp-12368,SbS2NF6,3.598861,-1.9798318372645003,0.0044408491385823
mp-769558,LiMn(CO3)2,1.012972,-1.979425783346001,0.0127954548749968
mp-754060,Li7BiO6,3.087902,-1.9790653344642857,0.0121090764285716
mp-770099,Li4MnO3,2.315131999999999,-1.97655111683875,0.0802278670833329
mp-768029,LiFe(CO3)2,3.21575,-1.9765472812500016,0.0
mp-38856,Mn2FeO4,0.0,-1.97606262956,0.0388506114285789
mp-14411,K4GeO4,4.218101,-1.9746585,0.001401473055556
mp-558134,TlF,3.991033,-1.972736839345,0.0048369262500012
mp-755703,LiSbO2,2.9014100000000003,-1.9719442681249992,0.0033848277777766
mp-13984,CdPdF6,3.65794,-1.9694691615175,0.0
mp-33461,Li3Mn3O8,0.0,-1.9690165566342848,0.0445800626339254
mp-770543,Mn2O3,0.0,-1.9687685391340009,0.0592542426250002
mp-774155,Li2FeO3,1.364364,-1.9685865489583323,0.0
mp-556120,RbTl(SO4)2,3.215561,-1.9664788619270832,0.0
mp-31753,RbCr3O8,2.719807,-1.9657259191666665,0.0
mp-775023,Li2Fe3SnO8,0.0,-1.9650143089285703,0.0163559228571434
mp-6562,Ba2CuHgO4,0.0,-1.964882913125,0.0212749468750059
mp-715574,MoO3,1.443614,-1.963685088437499,0.0597788890625015
mp-556411,CaBi2(CO4)2,2.03932,-1.9612065757692303,0.1834531100000003
mp-1186,ZrS2,1.97934,-1.9611658827083336,0.0
mp-19335,KCr3O8,2.721357,-1.9610336908333332,0.0
mp-775985,V2NiO6,2.521974,-1.9574272741666685,0.0876727677777715
mp-19184,VO,1.87619299,-1.9548065456250008,0.1540299410416636
mp-9205,KSeO2F,4.6583,-1.9533473124567495,0.0
mp-13334,ZnSnO3,2.409485,-1.95265283875,0.0411677729999997
mp-28571,La2Br5,0.7164200000000001,-1.9521112935714289,0.0
mp-33500,Cr2HO4,0.0,-1.9509926233742847,0.0848589914285673
mp-756229,Na(SnO2)2,0.0,-1.9507081092857133,0.0906336719642828
mp-37692,Li3RuO4,0.0,-1.950690595625,0.0
mp-545756,ZnSO4,5.879843,-1.9500657456770831,0.0383611779166654
mp-553955,V2O3,0.44117399999999996,-1.949822845749999,0.5807809382500011
mp-556288,Li2ReO3,1.085806,-1.9490690814583336,0.2092925382738153
mp-549207,Li4CO4,5.614613,-1.9490187613888896,0.2484901733333329
mp-545346,LiGaAs2O7,4.139588,-1.9484986707954552,0.0272523716666661
mp-33708,Mn(FeO2)2,0.0,-1.9477212794228589,0.0
mp-32331,NiP2O7,1.117975,-1.947443886494048,0.1496942048750131
mp-975427,RbAlO3,0.0,-1.94339322275,0.3690044576666658
mp-12170,La2SnS5,0.0,-1.9427795762890636,0.0
mp-769784,Li2Mn2O3,1.545709,-1.9410618008099996,0.0915761797619065
mp-10953,Sc2CdS4,1.9172859999999992,-1.9405856894642863,0.0
mp-2828,HfN,0.0,-1.9402507586900004,0.0
mp-753798,Rb2SnO3,3.549426,-1.940188098958334,0.0
mp-19092,CoWO4,2.79808,-1.9398745458333335,0.0
mp-757872,Li2Ag3F6,1.414766999999999,-1.9398643206490904,0.0491880454545459
mp-14628,ZnSnO3,2.719945999999999,-1.9392909127500004,0.0545296989999997
mp-753209,LiAgF4,0.590372,-1.9388828657933332,0.0637150466666645
mp-971647,NaMnO2,0.354846,-1.9385167421150005,0.0949933975000014
mp-12515,LaZnSbO,0.76112,-1.9385001928125,0.0
mp-19359,NaFeO2,2.621159,-1.9375753793750008,0.0
mp-778022,Na3VO3,1.249801,-1.9356528855357151,0.0651927228571427
mp-696590,TiH8(NF3)2,6.981801000000001,-1.935608668089804,0.0079442688235289
mp-19344,Cr2NiO4,2.508988,-1.9341115542857152,0.0
mp-4497,Si2N2O,6.304095,-1.933815505202,0.0
mp-34263,Mn2TcO4,0.0,-1.933437124559999,0.0239343278571428
mp-18750,Mn(FeO2)2,1.808873999999999,-1.9330344072800003,0.014686872142839
mp-11583,Zr2SN2,1.459268,-1.9329020507645,0.0
mp-23803,GaHO2,4.435434,-1.9327247615299996,0.0152785656249996
mp-775114,NaMnO2,0.155855,-1.9318277046150003,0.1016824350000016
mp-769768,RbMn4O8,0.0,-1.9309902379876915,0.0008946007495005
mp-23791,B(HO)3,7.518028,-1.930892312682381,0.0
mp-18766,Si(NiO2)2,3.84462,-1.9306261257142856,0.0244461564285734
mp-773282,LiMn3(FeO4)2,1.170151,-1.9300924044914276,0.0911534537946554
mp-756297,ZnIn2O4,2.329373,-1.9299988049999992,0.0294119257142861
mp-775027,Li2Mn3CoO8,1.7698809999999991,-1.928683573777144,0.0348396768686178
mp-3930,Sc2MnS4,1.872017,-1.9285879866071431,0.0
mp-773461,Li4MgCo3O8,0.0,-1.92707598375,0.0260547868749885
mp-755568,GaBiO3,4.015957,-1.92677639175,0.0503800023750056
mp-773544,LiCoSbO4,2.256488,-1.925298751428572,0.0
mp-769702,LiMn4O8,1.477752,-1.9235008172184624,0.0334642429807647
mp-769949,Na2MnO3,2.853447999999999,-1.9225042166183333,0.0
mp-24934,InFeO3,1.9399739999999999,-1.9224637667500013,0.0327524454999954
mp-19280,NaCr3O8,2.716428,-1.9223691445833329,0.0
mp-754815,YBr3,5.19568,-1.9223123268750009,0.0
mp-35493,Zn2SnO4,1.008168,-1.9210335771428564,0.0166295214285732
mp-27563,Rb2In4O7,2.560985999999999,-1.920931194519231,0.0
mp-19090,MnTeMoO6,3.115245,-1.9203571642733328,0.0092748712500148
mp-669435,KLaCO4,0.551546,-1.9203082025,0.8734793732142876
mp-553875,Zr2SN2,1.9086789999999991,-1.920134295764501,0.0127677550000022
mp-24473,BePH4NO4,6.964444049999999,-1.920032288632296,0.0
mp-19290,Mn2As2O7,2.341123,-1.9171952382427264,0.0
mp-18884,Na4CrO4,2.918079,-1.917169684444444,0.0
mp-32449,VH2O3,2.802177999999999,-1.9168557309983345,0.0206981329166868
mp-550798,Li4CO4,4.020106,-1.9151344491666664,0.2823744855555565
mp-772421,KLi2FeO3,3.037706999999999,-1.9142888469642856,0.0659080133928622
mp-7228,ReO2,0.0,-1.9127028433333328,0.0026022730555563
mp-554973,TlCuF3,0.0,-1.910581920714,2.9034999959876018e-06
mp-32385,Ni7(PO4)6,0.0,-1.9102881650965249,0.0560169720945911
mp-767363,Li3Mn2(FeO4)2,1.562069,-1.9090850107946675,0.1738343203333547
mp-13743,K3GaO3,3.855044,-1.9080025483928569,0.0
mp-492,TiN,0.0,-1.907854604523334,0.0
mp-23724,KHCO3,6.650649,-1.9077846049783345,0.0162579774999995
mp-714906,V2O3,0.0,-1.9069867287499989,0.6236170552500013
mp-771628,LiVCuO4,0.212681999999999,-1.9068414371428577,0.1075121849999982
mp-25533,VFeH2O5,3.203327,-1.904751658165556,0.0066952013888883
mp-770690,Mn3TeO6,1.515461,-1.9040684370379992,0.0311896910000006
mp-973681,LuRhO3,1.222952,-1.9039412087500005,0.7213032096249979
mp-774174,NaMn2O4,0.0,-1.9032785452742849,0.0820431978571569
mp-767942,Li3Fe3CoO8,1.264841999999999,-1.9032494766666663,0.0026251328125006
mp-28577,RbBrF4,5.031506999999999,-1.9007345007933327,0.0
mp-10417,KSbO2,3.567711999999999,-1.900366661875,0.0
mp-3188,Zn(SbO3)2,1.7160289999999991,-1.9002791102777783,0.0
mp-33137,TcO2,0.0,-1.899933420833334,0.0
mp-773344,Li2CrCuO4,1.247585,-1.8994909074999988,0.0343862562500003
mp-32795,Re3O8,0.0,-1.89911220590909,0.1903115574242431
mp-14466,KLi6IrO6,0.086133999999999,-1.8987426791071431,0.0
mp-775035,Li2NiSnO4,3.201154,-1.8984980674999996,0.003022825937494
mp-774143,MnSbO4,0.0,-1.898206646826668,0.0524209057638902
mp-774702,Li3BiO4,2.456327,-1.8968662568749992,0.0
mp-541226,CsBrF6,5.190917,-1.8955198858925,0.0
mp-773220,Li2Fe3SnO8,0.40055599999999997,-1.8941860003571416,0.087184231428572
mp-19039,CdMoO4,3.5259270000000003,-1.8925705091666665,0.0
mp-769937,MnCrO4,1.761591,-1.8925003501600013,0.0404036229166742
mp-19313,Zn(FeO2)2,2.388127,-1.8924438971428563,0.0
mp-753519,CuPO4,0.37528053,-1.8920979542658725,0.0
mp-976446,MgMnO3,0.473342999999999,-1.8859105309419997,0.4917826249999999
mp-12630,MgSeO4,4.707770999999999,-1.885871041432292,0.0017442333333264
mp-24972,Fe2O3,2.205415,-1.8858569487500008,0.0003081789999992
mp-18878,LiFeAs2O7,3.579614,-1.8857064698863637,0.0
mp-4001,BaTaS3,0.0,-1.8852209664375,0.0011466860000002
mp-24899,Cr2HgO4,2.122992,-1.8835576000000007,0.0
mp-549565,Li4CO4,5.534479999999999,-1.8813343869444443,0.316174547777778
mp-8724,K2TeO3,4.928526,-1.881236300625,0.0
mp-12979,SnO2,0.696421,-1.8803060324999996,0.2445487766666678
mp-10418,RbSbO2,3.548838,-1.879695391874999,0.0
mp-769791,Li4CoO3,3.7058910000000003,-1.8796177267187504,0.0274043410937503
mp-773778,LiCoGeO4,2.954246,-1.8793959071428572,0.0595212905952253
mp-19198,CoSO4,4.098097,-1.878622924010416,0.0023197074999998
mp-559001,CrFe(BiO3)2,2.649137999999999,-1.87862227775,0.0071307037499668
mp-3468,NaAsO2,4.893016,-1.878065873125,0.0
mp-25604,NiPO4,0.07654085000000001,-1.8779886463492064,0.0767943901041601
mp-753515,Sb3O4F,3.2242290000000002,-1.8779729745237503,0.0580545007031254
mp-769852,Li3CoO3,2.768304,-1.877114344107144,0.0404035947321466
mp-556145,NaAsO2,4.776115,-1.8761810325,0.0018848406249993
mp-19388,BaNi2(AsO4)2,3.990288,-1.875461105384615,0.0
mp-550593,Li4CO4,5.863073999999999,-1.8747011458333327,0.3228077888888894
mp-972937,ScAlCO,1.090584,-1.8745517459375003,0.0149092924999996
mp-546202,Li4CO4,6.02327,-1.8734848536111108,0.3240240811111112
mp-771676,MnSbO4,1.531299,-1.873350713493333,0.0772768390972249
mp-773309,Li2CrCuO4,0.898577,-1.8733258906249992,0.0605512731250001
mp-19803,CdIn2O4,1.9831809999999999,-1.873294959285713,0.0
mp-979436,YOsO3,0.0,-1.87260127025,0.7343439725000032
mp-1352,ZrN,0.0,-1.8702385261900003,0.0
mp-2633,GeO2,1.976237,-1.869054235,0.2249108941666672
mp-770104,LiMn4O8,0.0,-1.8688571187569232,0.0881079414423045
mp-770578,GeWO4,1.897001,-1.868603165,0.1944736941666676
mp-755988,Hf3N4,2.121005,-1.8685111099314289,0.0158289232142845
mp-8922,Cd(SbO3)2,2.659812999999999,-1.8647931425,0.0
mp-754329,CdSnO3,2.171325,-1.86300018975,0.0
mp-753162,Li2BiO3,0.0,-1.8621527547916676,0.0189598324999789
mp-752666,LiAg2F4,0.0,-1.861445171394286,0.0131456621428562
mp-1009555,CrO2,0.731939,-1.8612460375,0.1939929200000012
mp-37829,La5TlSe8,2.00167,-1.861123064553572,0.0
mp-768068,Li2MnFe3O8,0.57064,-1.8610985150685704,0.0860953890625007
mp-558838,NiPtF6,3.945274,-1.8598876646425,0.0
mp-12924,KLaSiS4,3.553677,-1.859082773035715,0.0022946971428572
mp-769789,LiFe2O3,0.0,-1.855680800625,0.0853495933333343
mp-554328,NaSO4,5.88849,-1.8550891773437488,0.1602619853124993
mp-504836,YMn4(CuO4)3,0.422244,-1.8520996209419989,0.0383221065624974
mp-19409,Mn(AsO3)2,2.702658,-1.8515906053844449,0.0
mp-769002,Li2BiO3,0.0,-1.8515675972916668,0.0295449900000006
mp-19435,CoMoO4,2.263462,-1.8510243891666665,0.0041784749999997
mp-770385,Li2Fe3BiO8,0.692265,-1.8505687517857143,0.0052988432142848
mp-770857,V(SbO3)4,1.8647850000000001,-1.8500915414705883,0.0548559077205839
mp-753216,LiAg2F4,0.0,-1.8496274785371432,0.0249633549999992
mp-773255,Li2CrNiO4,0.0,-1.847773334375,0.0731243337500027
mp-10680,BaSe,2.10510166,-1.8476195792968748,0.2005000400000014
mp-973068,ScCuO3,0.0,-1.84734024275,0.5661511983750005
mp-559117,KLiMnO2,2.17631,-1.8472290536919984,0.006613051000003
mp-771484,VCoO4,1.726316,-1.8471487275000007,0.0507632667708373
mp-24945,LaFeAsO,0.0,-1.8468869853125005,0.0992332520833327
mp-13744,Rb3GaO3,3.598557,-1.8446615262500003,0.0
mp-35143,BaNbS3,0.0,-1.8437311554375,0.0037329474615273
mp-766797,Li3Mn2(CoO4)2,0.0,-1.8434123254613328,0.0856832650773808
mp-25516,Li(FeO2)2,0.0,-1.8428714792857133,0.0175333716964276
mp-35915,BaBi2O5,0.0,-1.842776685781249,0.1138932515624997
mp-34783,Ga2CuO4,0.59114,-1.840842995714286,0.0607420707142791
mp-24845,Co(SbO3)2,0.7612359999999999,-1.8406760936111108,0.0
mp-33432,Mg(FeO2)2,2.423026,-1.840672778571428,0.4108199478571439
mp-752734,LiAg2F4,0.8254760000000001,-1.840581252822857,0.0340095807142852
mp-18745,LaMnSbO,0.0,-1.8404394218024995,0.0005448964266658
mp-19306,Fe3O4,0.0,-1.84005894,0.0
mp-554948,NaI(OF)2,5.4770509999999994,-1.8395421533133336,0.0
mp-23856,LiHO,5.722016,-1.8381989382900004,0.0
mp-12442,KAuF6,3.945153,-1.8368812483925,0.0
mp-775319,Li2Mn3NiO8,2.205116,-1.8364112387771416,0.0825141551785719
mp-753755,Bi3O4F,3.378089,-1.835224871398751,0.039262444062496
mp-541368,Tl4V2O7,3.509181,-1.834968676057692,0.0
mp-9812,ZnCO3,5.4813600000000005,-1.8346492502500005,0.0
mp-28593,Li3BrO,5.769477999999999,-1.83347505825,0.0387686359999985
mp-34730,Zn(FeO2)2,2.552470999999999,-1.8316144128571423,0.0608294842857137
mp-972827,SiBiO3,0.0,-1.83069030175,0.7246840238333352
mp-553374,Cs4Sb2O5,3.566237,-1.8303602669318173,0.0
mp-770957,Be(CoO2)2,0.0,-1.8300457685714289,0.0124150223214334
mp-979919,TaO3,0.0,-1.8285265246874989,1.107050893593751
mp-772347,Li6FeO6,0.36466099999999996,-1.8279913959615388,0.0691850498076895
mp-706269,MgNb5O9,0.034144,-1.82718452675,0.9701353020740752
mp-1950,SrS2,2.567921,-1.8266910943750003,0.0108995300000005
mp-773261,LiZn(FeO2)4,0.0,-1.8259353832142853,0.050488990848212
mp-753397,Ga2CuO4,0.0,-1.825810595,0.0757744714285655
mp-551092,KLiZnO2,3.688356,-1.8224503935,0.0
mp-770583,MnZnO3,2.8485300000000002,-1.8186567629420003,0.0054484926666704
mp-767158,Mn2CrO6,1.565648,-1.818364016602222,0.0737616283333206
mp-753495,Sb3O7F,0.0,-1.8169682763581831,0.039255668590906
mp-975206,RbSbO3,0.0,-1.81666149175,0.0963838296818133
mp-20067,Na5OsO6,1.227998,-1.8164125372916664,0.0
mp-11660,Hf3N4,2.114367,-1.8154050470742848,0.0689349860714276
mp-1229,CuF2,0.0,-1.814958065793334,0.0
mp-770395,K2LiFeO3,2.957968,-1.8144106505357145,0.0476687253571386
mp-8710,Ca2Pt3O8,2.780615,-1.8117950284615385,0.0
mp-771380,Rb2Fe4O7,2.531007,-1.8117798199038475,0.0489563907692343
mp-754519,LiNb(TeO4)3,2.794544,-1.8117305661764715,0.0086761857352932
mp-33775,La5AgSe8,2.159931,-1.8113674691964288,0.0177577551785725
mp-19395,MnO2,2.570563999999999,-1.8105689886533332,0.0
mp-775241,Li2MnCuO4,0.0,-1.8090049769950003,0.0686521968750009
mp-7176,RbLaSe2,2.86617862,-1.808587251796875,0.0
mp-8696,K3Na(SeO4)2,5.375468,-1.8084447787276776,0.0033651657142854
mp-555741,RbAu(SO4)2,3.127482,-1.807732149010416,0.0
mp-15639,HgRhF6,0.7530800000000001,-1.8076231521425,0.0
mp-28153,Ca(AuF6)2,3.477344,-1.8063738342853333,0.0
mp-777554,CrO,0.28291499999999903,-1.8058458414583327,0.1521333866666658
mp-556194,SrSbSe2F,0.150504,-1.8039420506754995,0.0150149720000003
mp-19326,MnO2,2.246757,-1.8025836686533327,0.0079853200000012
mp-25094,NiWO4,3.130007,-1.801266871666666,0.0
mp-541588,VHgO3,2.968148,-1.7999411127500005,0.0
mp-23260,BaI2,4.619377999999999,-1.79935558375,0.0
mp-1009750,ScN,3.5960436000000002,-1.7992063911899994,0.3040347000000008
mp-772598,MnO2,3.014286,-1.797794274486666,0.0127747141666674
mp-25547,MnO2,2.79602788,-1.7976502878199991,0.0129187008333335
mp-770001,Mn3CrO8,1.515732,-1.7970774760733323,0.0746590047916537
mp-37947,Na4C2O5,4.264248999999999,-1.795654392840909,0.1126225555681816
mp-771938,Mn5SnO12,2.793136,-1.7943903869333329,0.0685595718055589
mp-6913,YN,1.75330934,-1.7938092574399995,0.0880995700000006
mp-23664,YH3(CO2)3,5.765345999999999,-1.7923637344892307,0.1379552251373672
mp-776054,Li2MnCuO4,1.103373,-1.792341548245,0.0853156256250011
mp-773256,Mn4FeO8,0.8216760000000001,-1.7917876972184603,0.1592758353365475
mp-770095,Li(FeO2)2,0.0,-1.791641984285714,0.068762866696427
mp-757173,Sb5O7F,4.013942,-1.791274337303077,0.0795758698557698
mp-504535,InHO2,2.9203900000000003,-1.7910270627799996,0.003105271249999
mp-25558,MnO2,2.83534777,-1.790600554486666,0.0199684341666674
mp-1986,ZnO,2.069484,-1.7903052881249994,0.0069640274999995
mp-755487,Li2BiO3,0.46512899999999996,-1.790212763125,0.0908998241666463
mp-775622,Li3MnCo3O8,1.534349,-1.7888155427306658,0.0236386576666634
mp-555285,Sr2MnCu2(SO)2,0.0,-1.7868685579538883,0.0912568081944433
mp-542425,MnP4H16(NO8)2,5.30766227,-1.7854313457954092,0.0
mp-20066,CO2,8.148735,-1.7836999941666665,0.0
mp-12875,ReO2,0.0,-1.7835248324999995,0.1317802838888884
mp-4578,Sr2GeS4,3.256094,-1.7825908444642862,0.0
mp-755239,Ga2HgO4,1.671312,-1.7817501135714282,0.032194569642856
mp-19137,K2Mn(SeO3)2,4.740342,-1.7813584341497717,0.0
mp-10735,Zr2O,0.0,-1.7813400187500008,0.2269278469999971
mp-984876,Ba2Pd2O5,0.254123,-1.7809326595833332,0.070431016000005
mp-685935,CdGeO3,3.050779,-1.7807932867500007,0.1022919413333376
mp-4385,CdCO3,4.179969,-1.7792742382500009,0.0
mp-25545,MnO2,2.937856,-1.7786308678199998,0.0319381208333329
mp-983327,KH4O2F,6.784466,-1.7777383310212502,0.0035293287499991
mp-11725,CO2,7.9709639999999995,-1.777543089999999,0.0061569041666711
mp-978114,Sn5O6,2.518658,-1.776959965681819,0.0
mp-978952,SnPbO3,2.131049,-1.7767616217500002,0.116359855749998
mp-27230,As2SO6,5.772589999999999,-1.7753247557291667,0.0
mp-754047,Rb3SbO3,3.431231999999999,-1.7710920498214289,0.0255084982142816
mp-753326,LiAg2F6,0.0,-1.7705687896822222,0.0494626677777794
mp-754781,Ga3NO3,2.804323,-1.7702896858757142,0.0482127035714281
mp-24940,Cd(FeO2)2,2.499251,-1.768959150714286,0.0
mp-973156,ScAsO3,0.0,-1.7688718897500009,1.043681861875
mp-3451,BaVS3,0.701334,-1.7683878994375006,0.0
mp-754870,Li2RhO3,0.0,-1.7680969497916668,0.0
mp-19303,Cr2NiO4,0.0,-1.7680647242857137,0.1660468300000044
mp-23251,KBr,5.5075692599999995,-1.767873795,0.0
mp-771665,Li2MnNiO4,1.504277,-1.767462668244999,0.0946138943750005
mp-555857,BaVS3,0.0,-1.7649135044375002,0.0034743950000013
mp-18728,NaFe2O3,0.0,-1.7640470681250011,0.0841300558333335
mp-4690,K3TaO8,5.227777,-1.76388477,0.0150939932291658
mp-2637,YSe,0.0,-1.7636325755468754,0.0
mp-755004,CsInO2,3.1013599999999992,-1.7635709843749998,0.0571007587500007
mp-769934,Na2Mn2O3,0.813102999999999,-1.7633231472385702,0.026249517500001
mp-33797,Sr(RuO3)2,0.0,-1.7614410952777786,0.1457753122222351