mpid,formula,BG,FE,e_hull
mp-19094,VO2,1.732446,-2.484274234166667,0.0
mp-774192,Li2VO3,2.502436,-2.483652016458334,0.0216533020833393
mp-714880,VO2,1.7609700000000001,-2.4826554891666675,0.0016187449999964
mp-32472,LiV(PO4)2,1.63640009,-2.481539576765873,0.1192966096527738
mp-31658,Cr4(PO4)3,0.0,-2.4813709144360896,0.0316280506579076
mp-1087,SrS,3.497046,-2.48136403703125,0.0
mp-7027,InBO3,3.970928,-2.481148612083333,0.0
mp-27017,LiSnPO4,4.540047449999999,-2.480855869192176,0.0052768004166816
mp-546864,Y2C(NO)2,5.050518,-2.4769250085371417,0.0
mp-554155,KSb(PO4)2,5.04347734,-2.47692378093254,0.0
mp-1672,CaS,3.455387,-2.4762869420312503,0.0
mp-558658,Y2C(NO)2,5.032317,-2.4756811028228576,0.001243905714281
mp-755225,Li8ZrO6,6.47772,-2.474229155833333,0.0005859140000001
mp-18840,BaMnO3,2.232485,-2.473779668941999,0.0072780416666606
mp-705354,Mn4(PO4)3,0.0,-2.4737272841118787,0.0571879243420898
mp-19156,BaMnO3,3.023660999999999,-2.473357901942,0.0076998086666657
mp-767256,Li5Si2NiO8,2.315085,-2.4728500931249995,0.0425199901562551
mp-31665,LiCr2(PO4)3,1.36417349,-2.471072990793652,0.0367633832638958
mp-31623,Ca2CoO3,1.791076,-2.469768258958334,0.1813981674999993
mp-18940,Sr2NiMoO6,2.893275,-2.46767719775,0.0
mp-776143,Li4V3CrO8,2.736632,-2.4673730731249988,0.0
mp-674463,AlHO2,6.570711,-2.4658222602799995,0.230128016250001
mp-552604,YBi2ClO4,1.669003,-2.462780940095,0.0
mp-550008,ScBiO3,1.227304999999999,-2.46202217975,0.3568274701249985
mp-560723,Sr2CoMoO6,1.097011,-2.460212008750001,0.0834369880000025
mp-18909,BaNi2(PO4)2,4.221513509999999,-2.45994780970696,0.0
mp-556786,LiCdPO4,4.93740361,-2.459870339727892,0.0004303543253953
mp-26835,Li3Bi5(PO4)6,5.17907801,-2.459784955883458,0.0401952010526365
mp-542116,CsAl(MoO4)2,5.08834,-2.458854414166666,0.0
mp-545603,Ba2BiSbO6,1.9289129999999999,-2.45832089175,0.0086953210000109
mp-25053,Sr2NiMoO6,2.9431469999999993,-2.45805109775,0.0096260999999993
mp-775331,LiVO2,1.462229,-2.457809700625001,0.0310586000000041
mp-772472,LiFePO4,3.470412,-2.4576802790136054,0.0938966707142849
mp-772521,Li8TiO6,5.761592,-2.456174135611112,0.0040807120000003
mp-776205,Hf2N2O,2.713819,-2.454789254202,0.0952085654999965
mp-767042,Li5MnO3F2,3.069293999999999,-2.4539361833718183,0.0525715627272864
mp-775729,Li4V3CrO8,2.616901,-2.4534415056249994,0.0139315674999984
mp-3821,K2PtF6,4.594893,-2.4512547530155544,0.0
mp-24893,Cr4Co3(PO4)6,3.20333366,-2.4496338769884174,0.0091251524324054
mp-775320,Li4V3O8,2.6021900000000002,-2.4483766106666667,0.0683595165277513
mp-772350,Cr2PO5,1.49018,-2.448040090543156,0.0309122305208315
mp-14726,Na4TiO4,4.699800000000001,-2.4462853079629627,0.0
mp-31927,MnPO4,0.8795691400000001,-2.4460049865092066,0.0118236962500084
mp-777469,VO2,1.391406,-2.4455677966666656,0.0387064374999983
mp-777479,VO2,2.385838,-2.445521995,0.0387522391666639
mp-774098,LiVCrO4,1.941717,-2.445007492142857,0.0092823738690377
mp-704227,Mn9(PO4)8,0.48018136,-2.444538640069427,0.0416297159183738
mp-755053,Ga4SiO8,2.582888,-2.4442793553846154,0.0682412038461546
mp-14105,AlTlO2,3.092116,-2.443708294375,0.0273723946590909
mp-32322,LiNi(PO3)3,5.320323,-2.4431806153954088,0.0285441807142721
mp-3107,Ga3PO7,4.615384,-2.443081456985931,0.0163444127272738
mp-777076,Li2TiNiO4,2.8335109999999992,-2.4429563564583336,0.0264900118750031
mp-18761,K3V3O8,2.61922,-2.441978732142858,0.0
mp-19352,KAl(MoO4)2,5.106153,-2.4419578399999984,0.0
mp-35746,Sr(YS2)2,3.176632,-2.441644111607144,0.0722232717857158
mp-555234,RbSbBrF3,4.575765,-2.4400089772616664,0.0
mp-772920,Li8Ti2O7,1.951182,-2.4395986310049023,0.0888008938235298
mp-776136,Li2VCrO4,2.188752,-2.439135223125,0.006311293125
mp-775825,Li2VCrO4,2.039171,-2.438534064375,0.0069124518750003
mp-25145,VO2,2.100069,-2.437985584166666,0.0462886499999974
mp-769641,Li2VCrO4,2.746171,-2.4379273518749995,0.0075191643750001
mp-19073,La2Ni2O5,2.3754939999999998,-2.4349212984722235,0.1198657311111102
mp-13986,Li2PtF6,4.530553,-2.434270163015556,0.0
mp-553025,CaBiClO2,3.621762999999999,-2.433662448152,0.0
mp-776661,NbV3O10,2.577815,-2.433587098035715,0.0819606751785695
mp-19188,Ba3Mn2O8,2.995074,-2.433325613224615,0.0
mp-556163,Zn2SiO4,2.984757,-2.432349258571428,0.0256999019047592
mp-546757,Sn3PO4F3,4.7984089,-2.430228799696841,0.0
mp-36508,SnHgF6,3.959183,-2.4299216002675004,0.0
mp-5046,BeSO4,8.65488,-2.4297438573437504,0.0
mp-31632,CrP2O7,0.9781000000000001,-2.4291725384940484,0.0624431363125008
mp-3098,AlCuO2,3.528843,-2.428611514375,0.0004073012499992
mp-31541,LiCoPO4,4.414888220000001,-2.4276569109183668,0.0066948947023837
mp-757042,LiSnPO4,3.98314174,-2.424773976156462,0.0613586934523828
mp-753939,LiSnPO4,4.70755882,-2.4243033593707475,0.0618293102380969
mp-771663,LiV2O4,1.22411,-2.4236300807142857,0.0967772461309497
mp-754663,Na2Be2O3,5.968434,-2.42355106125,0.0353839571428622
mp-776615,Li4VCr3O8,2.774461999999999,-2.4235199593750005,0.0
mp-755256,LiBiB2O5,4.208073000000001,-2.4234803049537037,0.0806485037499982
mp-776618,Li4VCr3O8,2.7005429999999992,-2.423456950625,6.300875000597728e-05
mp-767013,FePO4,3.602199,-2.4231823005158737,0.0046394054166665
mp-757590,LiSnPO4,4.64060058,-2.4221626177636053,0.0639700518452528
mp-775106,Li2MnV3O8,2.041424,-2.421347655782856,0.0324812930803659
mp-37399,Li7NbO6,5.095516,-2.4211092483928573,0.0359318142857132
mp-942702,LiMnSO4F,5.083513,-2.4201967270265623,0.0143302996875025
mp-31646,LiCr2(PO4)3,0.22734346,-2.4196185163492063,0.088217857708341
mp-14088,Rb2PdF6,4.228814,-2.4190586107933334,0.0
mp-19450,ScTl(MoO4)2,4.940898,-2.4185452570833332,0.0
mp-25148,V2WO6,1.602374,-2.4178888952777795,0.0
mp-6800,KLiSO4,6.777913,-2.416091591294643,0.0
mp-6179,KLiSO4,6.792289,-2.4159024862946428,0.0001891049999995
mp-13610,ZnPbF6,3.34499,-2.4158116702675003,0.0
mp-767452,Mg3Mn4O7,1.560204999999999,-2.4156592444707137,0.0411268814285721
mp-551741,Zn2P2O7,5.416072,-2.4146092740854983,0.0333384451136433
mp-767263,LiFe2(PO4)2,1.936024,-2.412985136630037,0.0826466316345904
mp-755392,LiSnPO4,4.98109136,-2.4127337307993195,0.0733989388095386
mp-1500,BaS,3.07451,-2.41173967703125,0.0
mp-772006,Li2V3SbO8,1.8810250000000002,-2.4109739432142865,0.0
mp-757490,LiSnPO4,4.4380944499999995,-2.410604810799319,0.0755278588095249
mp-8723,AsF5,6.7629470000000005,-2.409819841825,0.0
mp-754311,Mg(ReO4)2,5.5605009999999995,-2.409126792727273,0.0
mp-31942,MnPO4,2.18706634,-2.40895323234254,0.0488754504166752
mp-550433,BeZnO2,4.3282880000000015,-2.4074459943749997,0.0487641825000002
mp-775047,Li2VCrO4,1.38962,-2.4072203006249997,0.0382262156250003
mp-504818,MoPO5,2.878237,-2.4070430913350336,0.01322889642854
mp-6494,K2Ca(CO3)2,6.010925999999999,-2.4065545911363646,0.0
mp-27175,InOF,2.443556,-2.4063497658133337,0.0
mp-766796,Cr2OF2,2.6229050000000003,-2.4061837907259997,0.0784141960000033
mp-18915,LiCoPO4,3.87136296,-2.4051437161564637,0.0292080894642872
mp-9126,Sr(SbO3)2,4.041183,-2.404327763055556,0.0
mp-1004530,CsBPb(IF2)2,2.8749510000000003,-2.40062046126963,0.0506912969444455
mp-18793,LiCrO2,4.132604000000001,-2.3997697306250005,0.0
mp-31540,LiCoPO4,3.96730297,-2.399129515442177,0.0352222901785728
mp-767110,Li2MnO2F,2.313977,-2.397872866608333,0.1013404399999995
mp-754587,K2Be2O3,4.663831999999999,-2.397797105535715,0.0361109878571426
mp-767301,Li3Co2(SiO4)2,1.613729999999999,-2.3965590580000007,0.0992118528333012
mp-32306,Ba2ReNiO6,0.10452399999999999,-2.396165076250001,0.0139336546666681
mp-753654,LiSnPO4,4.028145439999999,-2.3956405054421768,0.0904921641666813
mp-776039,NaMnBO3,3.685679999999999,-2.3949008752294443,0.0237730791666663
mp-9127,Ba(SbO3)2,4.019744,-2.3935972152777776,0.0
mp-556520,CoF2,4.360891,-2.3897082541266657,0.0
mp-18809,Li2VGeO5,3.211149,-2.3895490723611106,0.0027156438889113
mp-552663,LiScAs2O7,5.190315,-2.3889881317045463,0.0
mp-775084,Li2SiNiO4,3.376502,-2.387695369999999,0.0074935681249996
mp-548403,CaCO3,7.607571999999999,-2.3872454232500004,0.312209952000007
mp-31519,LiCoP2O7,2.2394600000000002,-2.3866638286309523,0.0226218695454942
mp-770840,LiVGaO4,1.9965259999999991,-2.3865902600000006,0.0483428218809507
mp-557920,Zn3(PO4)2,5.257614849999999,-2.3865338331684973,0.0
mp-757583,Li2TiCuO4,0.7150489999999999,-2.3864722414583333,0.0985547381250029
mp-9125,Ca(SbO3)2,3.9891360000000002,-2.3864119508333337,0.0
mp-31996,LiMn2(PO4)3,2.42098648,-2.386185178400317,0.0173161267361097
mp-19107,LiMnVO4,3.083857,-2.38518704728,0.0
mp-37216,CdPbF6,3.417586,-2.3827437390175,0.0
mp-24001,NaZn2P2HO8,5.7446937899999995,-2.3818326589150343,0.0
mp-13985,Li2PdF6,3.8616729999999992,-2.3802565113488887,0.0
mp-769759,Li4Cr3GaO8,4.239327,-2.38012617,0.0170631225000015
mp-755999,Rb2Be2O3,4.416052,-2.3799057548214293,0.011541034285714
mp-504864,YCu(WO4)2,2.513563,-2.379581514375,0.029808782291667
mp-767332,LiCoPO4,4.353613,-2.378208410442177,0.0561433951785703
mp-977408,NbTlO3,1.014907,-2.3780724377500007,0.0901059687500005
mp-770618,MgMnO3,3.379875,-2.377693155942,0.0
mp-767909,LiCoPO4,4.37192,-2.377447215442177,0.0569045901785729
mp-550925,NaScAs2O7,5.155437,-2.3766025357954548,0.0
mp-769696,Li2FeBO4,3.932475,-2.3755669064583333,0.0382168521874941
mp-5566,KCuF3,0.0,-2.3751083327140003,0.0058496219999977
mp-32056,Mo(PO4)2,2.1443715699999992,-2.3744703860173164,0.0035040943181803
mp-4236,BaZnO2,3.612828,-2.373504753541667,0.0
mp-3439,SbPO4,5.088551,-2.3731805946825397,0.0
mp-545847,LuBi2BrO4,2.081284,-2.3726149493750004,0.0
mp-775621,MnOF,1.3694359999999999,-2.3712484528,0.0277017137499946
mp-27018,SnPO4,3.5338623,-2.371164981349206,0.0555249347916522
mp-5431,BaTeO3,3.8157289999999993,-2.370074308750001,0.0
mp-24361,CaP2(HO2)4,7.47008647,-2.3699369027113653,0.0063180511666667
mp-558382,Li2SO4,7.865743,-2.3662303127232143,0.0548863635714251
mp-6226,NaSn4(PO4)3,4.68248892,-2.3655811874642856,0.0
mp-766964,Li2Fe2SiO6,3.498619,-2.3651114206818185,0.0721795650000016
mp-767212,MnPO4,1.853648,-2.363963073175872,0.093865609583343
mp-560874,BaPb2C2(O3F)2,5.152701,-2.3636750326830773,0.0040808765384605
mp-19097,FeBO3,2.648351,-2.3634865620833323,0.0
mp-755789,Na2Be2O3,4.38204,-2.36306655125,0.0958684671428624
mp-18879,V2ZnO4,2.311189,-2.362647679285714,0.0
mp-35714,La5TlS8,2.210982,-2.3626036519642857,0.0112486262499995
mp-978968,Ti3O2,0.0,-2.361852900500001,0.032394895999996
mp-557632,K2LiBO3,5.270268,-2.361553781488096,0.0
mp-868354,Li3MnV3O8,1.047767,-2.3591439107306664,0.1121173173333378
mp-767445,LiVFeP2(HO5)2,2.541532,-2.3588383579959102,0.0052513071470601
mp-766999,LiMnVP2(HO5)2,1.912159,-2.358513526287674,0.0325685114706031
mp-28796,Sr5(AuO4)2,2.978859,-2.357018426,0.0
mp-19418,VCrO4,2.878994999999999,-2.3566999891666653,0.0014542455208257
mp-19260,Li2WO4,4.834656,-2.355246056428572,0.0
mp-12444,SrCuSF,2.907597,-2.354078306313125,0.0
mp-868632,MnOF,2.022501,-2.3530138861333327,0.0459362804166714
mp-6625,LaAgSO,2.314572,-2.352182761328125,0.0012635556249982
mp-7744,LiSO3F,7.3867340000000015,-2.351703021500417,0.0
mp-19399,Cr2O3,3.529097,-2.3495750737499987,0.0
mp-767330,Mn3(OF)2,1.931155,-2.3493181261085705,0.0740810078571438
mp-553243,YBi2BrO4,1.9962360000000001,-2.3489962271875005,0.0
mp-777240,Li2FeO2F,3.079679999999999,-2.3485999139483336,0.0962636750000003
mp-31935,MnP2O7,2.298488,-2.346846203590048,0.0508698889999985
mp-779083,Li2V3SnO8,0.833558999999999,-2.3457634967857137,0.0885828138393503
mp-541934,Al(FeO2)2,0.0,-2.3443951128571427,0.0625761067857144
mp-558632,KNaSO4,6.663328999999999,-2.3416269091517856,0.014228915535714
mp-25550,MnPO4F,0.99048961,-2.34156775574932,0.0322288829960255
mp-773994,Li2V3FeO8,0.227182,-2.340554452857142,0.0647745425148453
mp-771611,Li5V4O8,1.459463,-2.3402040923529412,0.0507624796078429
mp-714944,VO2,1.782946,-2.3400676475,0.1442065866666642
mp-6384,RbSO2F,5.629971,-2.3371136195505,0.0
mp-757282,Li2Sn5(PO4)4,3.49020949,-2.3365214343474427,0.0661945670679129
mp-19142,Mn2V2O7,2.098485,-2.3357099536972727,0.0
mp-15349,Li2GeO3,5.333577,-2.335348162291666,0.0
mp-541022,MnCr2O4,3.480687,-2.3336694822800004,0.0
mp-6560,KSO2F,5.518165,-2.333432280550499,0.0
mp-552537,Sr2CuBrO2,3.984854,-2.3328281587500004,0.0
mp-768031,MnOF,1.378796,-2.3320867836333328,0.0668633829166713
mp-3395,SrSeO3,4.995143,-2.3305087614687507,0.0
mp-6989,BaSeO3,5.192567,-2.3304740344687502,0.0
mp-551835,Ba2I2O,4.312155,-2.33028668325,0.0
mp-547956,MnV2O6,2.435827,-2.3281974653844446,0.0159210900000044
mp-634430,VO2,1.828522,-2.3268318375,0.1574423966666636
mp-714960,VO2,1.111279,-2.3253234108333323,0.158950823333333
mp-778681,V3SnO8,1.536749,-2.3251711554166667,0.069248222500013
mp-6126,LiCdBO3,3.557635,-2.324790664236112,0.0
mp-776217,MnV3O8,1.049367,-2.324379200913333,0.0547782741666669
mp-558864,CrHgF6,2.57262,-2.3233111846425,0.0
mp-755902,Lu(HO)3,5.306454,-2.3227625285157143,0.0536533164285701
mp-706543,BaP2(HO2)4,6.41826908,-2.3220187773780316,0.0570490179999998
mp-555552,KNaSO4,6.751739,-2.3217147770089284,0.0341410476785712
mp-37478,La5AgS8,2.482204,-2.3213314173214292,0.023730780446411
mp-28708,In3(PO4)2,4.15649468,-2.320261599130036,0.0
mp-9631,AlAgO2,2.63545,-2.320011114375,0.0
mp-753832,Bi4O3F7,1.213228,-2.319892465505714,0.0817966227678557
mp-3143,Na2SO4,6.672296,-2.3191850012946427,0.0038886057142857
mp-32012,LiMn2(PO4)3,1.16369377,-2.318788626455873,0.0847126786805532
mp-1009127,MgO,3.723779,-2.316974690625,0.7482596350000001
mp-504151,LiBi2(PO4)3,1.13419449,-2.3166280138492072,0.0578921538657395
mp-26695,Li2CuPO4,4.04545408,-2.3149936803869045,0.0532736940625016
mp-558096,Zn2SiO4,4.092111,-2.3140175942857137,0.1440315661904732
mp-767101,WO2F,0.0,-2.3126197834225013,0.0141464323237645
mp-771288,Li3Cr4O8,1.392812999999999,-2.3125952679999995,0.030617741518518
mp-771675,Li2MnVO4,1.323534,-2.312228180745,0.0668633021875004
mp-504748,P3Pb5ClO12,4.46862993,-2.3119688722640825,0.0
mp-4558,Li4GeO4,5.823653999999999,-2.309948862777778,0.0
mp-770024,Li2Mn3NbO8,1.003612,-2.309056266634286,0.0780414195759107
mp-24076,Y(HO)3,5.42157,-2.305902083158572,0.0208707224999908
mp-767967,Mg3Fe3O8,0.0,-2.30312789,0.0423275817410715
mp-549308,LiGeBO4,4.498093,-2.3031164923809517,0.206573067142858
mp-551203,Sr2I2O,4.501868,-2.3026194882500013,0.0
mp-41057,BaLaCuRuO6,1.231004,-2.3007809852500003,0.0518656128333319
mp-31793,FeP2O7,0.129888999999999,-2.300213083494046,0.0763085169791688
mp-28670,Ba2Bi2O5,2.961365,-2.2992286245833324,0.0
mp-776915,V5O12,2.284591,-2.2990922638235305,0.0436608100000306
mp-24898,Cr2WO6,1.618094999999999,-2.297133910277777,0.0
mp-768023,LiV3Zn2O8,0.0,-2.2959142885714283,0.0225310320238127
mp-25614,LiNiPO4,4.29274792,-2.292554507227892,0.0
mp-756505,Cs3ScO3,3.969322,-2.2915946769642863,0.0053254585714279
mp-978851,SrAsO3,0.0,-2.2911309437500007,0.2456855517777772
mp-10341,SrGeTeO6,4.448523,-2.2907829669444464,0.0
mp-753662,K2Mg2O3,4.422955,-2.2907306426785716,0.0076497528571408
mp-776999,Cr2O3,3.139428,-2.28992368875,0.0596513849999986
mp-5558,NaReO4,5.096283,-2.289872286666666,0.0
mp-776344,V2O5,3.926551,-2.2897243694642864,0.0114214121428553
mp-772054,LiMnVO4,1.013884,-2.2891598108514293,0.0960272364285677
mp-771199,V3FeO8,1.385735,-2.2881841083333327,0.0398297800000051
mp-981376,ScSnO3,0.0,-2.2869892657500004,0.6717987756249997
mp-773510,TiV2CrO10,2.45781,-2.2864799456547624,0.0948093977678556
mp-4165,TaNO,3.199,-2.285303897876665,0.0
mp-772723,LiCrSnO4,3.228313,-2.2849594314285717,0.0
mp-32324,LiNiPO4,4.031103059999999,-2.283129751870749,0.0094247553571467
mp-766920,Mn2O2F3,0.624301,-2.282937258284285,0.0823917927380888
mp-777322,Li6Fe(O2F)2,2.734414,-2.2818489590292304,0.0862159790384611
mp-27236,Sb2I2F11,0.0,-2.281172094539334,0.0167866979541733
mp-9157,K3AlO3,4.358242,-2.2794749019642864,0.0
mp-772247,LiNbNiO4,2.903800999999999,-2.279121126428572,0.0569041464285433
mp-551816,YBi2IO4,1.861972,-2.2784790196875,0.0
mp-720804,K3Na3TeP6(HO4)6,5.6201064,-2.276609976518406,0.0278058781976779
mp-25518,FePO4F,0.0,-2.2762521056121767,0.077437233144848
mp-767254,LiCo2(PO4)2,1.417194,-2.2749827981684976,0.0248283785577072
mp-24860,Co2P2O7,3.883949,-2.273891424994588,0.0117569845454461
mp-18733,AlTl(MoO4)2,5.068873,-2.273777399583333,0.0
mp-776115,Li2NbFe3O8,2.05125,-2.273723537142857,0.0370087067857118
mp-557685,NbIO2,1.881732,-2.272908017499999,0.0
mp-766865,LiMn2O3F,0.9806819999999999,-2.2727278645514297,0.0846827504464213
mp-755794,Rb3LuO3,3.143721,-2.2717927126785717,0.0095330628571437
mp-18914,K2MoO4,5.6232050000000005,-2.2717071492857133,0.0
mp-776204,LiV3O4,0.36736800000000003,-2.271254038125,0.0275983555208352
mp-775983,Li6WO6,4.672325,-2.269901509038462,0.0354316773076925
mp-18908,Sr2NiTeO6,2.98029,-2.26889957975,0.0
mp-25654,PWO4,2.95270885,-2.2688171021825383,0.1082437238888722
mp-771550,Li2V3TeO8,1.166754,-2.2687481928571427,0.0458110349234681
mp-19410,ZnCr2O4,3.696659999999999,-2.268597373571428,0.0
mp-8872,RbNa2BO3,4.518392,-2.267164295059524,0.0
mp-18780,K2WO4,5.917469,-2.2665791514285707,0.0
mp-546672,LaBi2IO4,1.6738179999999991,-2.2642800318750007,0.0
mp-19212,Rb2MoO4,5.669864,-2.263647534999999,0.0
mp-777580,V5O12,1.9334770000000001,-2.2633863314705884,0.0793667423529722
mp-766807,Li4Mn3O6F,0.448588,-2.2632874940407146,0.0411638435714296
mp-775543,SnPHO5,4.543561,-2.261583450995655,0.0
mp-26446,Sn4(PO4)3,0.032697359999999,-2.2600826928571425,0.0887391050657768
mp-9117,Sr2YTlCu2O7,0.0,-2.2594018743269237,0.0128753893269202
mp-773287,Li3V2CoO6,0.0,-2.2586253339583338,0.067096763541663
mp-18864,Rb2WO4,5.814659000000001,-2.2584622314285707,0.0
mp-18950,BaCa(FeO2)4,2.878711,-2.2569843892857144,0.0252378880357362
mp-775175,LiVFeO4,1.847262,-2.2557446571428565,0.0330416567261808
mp-976283,LiYO3,0.0,-2.2551132072499995,0.3993888608749998
mp-19035,BaFeO3,0.0,-2.2543792287499995,0.0
mp-773308,Li2MnCrO4,0.0,-2.254352628244999,0.0247221675000206
mp-769794,Li2CrO3,3.1101550000000002,-2.254349403958333,0.0063566158333356
mp-773440,Li2V3FeO8,0.0,-2.25413118642857,0.1511978089434169
mp-770200,Li2Cr3SnO8,0.0,-2.2535185025000004,0.0282495916269835
mp-756334,K2Sr2O3,3.248027999999999,-2.251922932678572,0.0553461764285723
mp-1243,Ga2O3,3.7010300000000003,-2.25145319875,0.0294096560000038
mp-32338,LiNiP2O7,0.42805699999999997,-2.251059191358224,0.0564189902083356
mp-23210,MgCl2,7.04159473,-2.250998962173333,0.0
mp-8871,CsNa2BO3,4.867666,-2.2504128364880955,0.0
mp-754118,Sr(AsO3)2,4.760739,-2.2497455452777784,0.0003272272222218
mp-766854,Cr3(OF)2,2.209161,-2.2494133192685704,0.0847221650000005
mp-557032,Ba5Hf4S13,1.506643,-2.2492093355823854,0.0068454210227217
mp-24938,BaSr(FeO2)4,2.914828,-2.2473882878571425,0.0116464985714692
mp-24610,LiP(HO2)2,7.27545631,-2.2471254669169047,0.0
mp-15781,KLaS2,3.285735,-2.2466391245312503,0.0
mp-23482,BaBiO3,0.126327,-2.2448109727500007,0.001719422499999
mp-4555,Ca(AsO3)2,4.818963,-2.244704388611111,0.0
mp-771685,V4SnO12,3.8623629999999998,-2.2446967152941193,0.0398740122058889
mp-3653,Mg(SbO3)2,2.21456,-2.2438996375,0.0
mp-774289,V5O12,1.779272,-2.2438911255882346,0.0988619482353261
mp-984632,CaBeO3,0.0,-2.24312015975,0.3276254917500001
mp-554688,Ba6Hf5S16,1.464884,-2.2429399962962973,0.0089430148148199
mp-542844,V2O5,2.357688,-2.2422154351785717,0.0589303464285677
mp-23667,RbP(HO2)2,6.827464949999999,-2.2420403519169043,0.0
mp-552234,SrBiBrO2,4.114425,-2.2415794005,0.0
mp-769772,Li2CrO3,1.766722,-2.2415739747916668,0.0191320450000018
mp-24263,KP(HO2)2,6.854056890000001,-2.240961328479404,0.0027308034375055
mp-774070,Li3Si2(NiO4)2,1.626223,-2.239927906666667,0.0829230284166975
mp-674849,TlBiF4,3.036412,-2.239215645793333,0.2851678970833307
mp-33588,Ca2NF,2.673391,-2.2386980833925003,0.0
mp-768025,LiNiPO4,4.260795,-2.2369225947278912,0.0556319125000035
mp-16613,AlAuO2,1.521304,-2.236222719375,0.0122792231250006
mp-775295,Li2MnCr3O8,0.0,-2.236183077925714,0.0086316924999945
mp-770193,Li2CrFeO4,2.658384,-2.2358563618750003,0.0024561456250085
mp-25113,VInO4,4.209224,-2.235830589166667,0.0
mp-769983,Li2CrFeO4,2.382952,-2.235435771875,0.0028767356250085
mp-3338,NaGaO2,4.039955,-2.2343090043750005,0.0
mp-11172,LiIrF6,0.0,-2.2327688958925003,0.0
mp-23879,Ca(HO)2,5.746028,-2.232470307948,0.0