mpid,formula,BG,FE,e_hull
mp-975059,MnTl3,0.0,0.3993392112500001,0.3993392112500001
mp-1009748,ScC,0.0,0.3994343662499995,0.8447927579838668
mp-972748,Si3W,0.0,0.4002408762499998,0.6576718462500004
mp-89,Cr,0.0,0.4059006050000011,0.4059006050000011
mp-971835,Tl3H,0.0,0.4087219790950001,0.4087219790950001
mp-961672,SrAlGa,0.0,0.4131324033333333,0.7930947941666671
mp-1009747,ScSn,0.0,0.4132325024999997,1.002283416428571
mp-1009878,ZrC,0.0,0.41332829125,1.2214694950000011
mp-978303,Mg3Re,0.0,0.4152026337499999,0.4152026337499999
mp-10683,Ca,0.0,0.4185173499999999,0.4185173499999999
mp-1009213,MnSb,0.0,0.4229519425000001,0.4566508875000004
mp-975467,Mn3Hg,0.0,0.426572665000001,0.426572665000001
mp-1008726,Ti2Ga,0.0,0.4297049888888888,0.8276303433333343
mp-973157,Ge3P,0.0,0.43154232172619,0.43154232172619
mp-978652,SiHg3,0.0,0.440818685,0.440818685
mp-1009488,NiN,0.0,0.4408196338100003,0.4819448792066678
mp-971911,ZnN,0.0,0.4463659238100002,0.473272657519999
mp-1009835,TaC,0.0,0.4504761262499989,1.0291781199999992
mp-983407,HPd3,0.0,0.451524134095,0.5201482937500002
mp-972130,Tl3Cr,0.0,0.4520436087500004,0.4520436087500004
mp-7700,SiB6,0.457401,0.4532246728571425,0.4765342432142852
mp-1008805,ReC2,0.0,0.4575869566666645,0.4743871754166644
mp-972794,SiSb3,0.0,0.4580416737500004,0.4580416737500004
mp-1009459,NbC,0.0,0.4588937112500009,0.9549662627083342
mp-974565,ReP3,0.0,0.4613342401785712,0.8145255877083349
mp-976948,Ni3H,0.0,0.4631790765949999,0.5185225437500005
mp-971761,ZnSi3,0.0,0.4646166387499995,0.4646166387499995
mp-976060,Li3C,0.0,0.4725499156250002,0.4753290197916673
mp-1009751,ScC,0.0,0.4751424512499991,0.920500842983868
mp-983359,GaSi3,0.0,0.4784244399999995,0.4784244399999995
mp-962059,SrMgSi,0.0,0.4793819133333332,0.8741072316666667
mp-1009496,OsN,0.0,0.482708736310002,0.4827087363100002
mp-2852,C3N4,4.449858,0.492372517568572,0.4923725175685707
mp-1009650,RbSb,0.0,0.4926159325000001,0.91847079125
mp-1009752,ScSi,0.0,0.4932631549999993,1.3273585399999996
mp-961732,HfNiPb,0.52949,0.4966823950000006,0.8424159449999991
mp-984728,BC,0.0,0.4993374954166656,0.5412122189423059
mp-978264,MgW3,0.0,0.5011569337500017,0.5011569337500017
mp-1009218,MoC,0.0,0.5025947562499997,0.5801098318750011
mp-24201,H2S,0.0,0.5026090662325,0.9745042433333342
mp-12771,Se,0.0,0.5092997114062499,0.5092997114062499
mp-11232,YAl3,0.0,0.5093042043749998,0.9474861362499992
mp-11553,TlPt,0.0,0.5101565591666671,0.6041140276041665
mp-978567,SiAs3,0.0,0.5196594900000004,0.5767129003125007
mp-12062,AgB2,0.0,0.5236279355555561,0.5236279355555569
mp-1008702,Ti2In,0.0,0.5280192588888882,0.6458152566666673
mp-27962,CI4,2.225586,0.5331668764999999,0.5331668765000002
mp-27,Si,0.0,0.5367564800000002,0.5367564800000002
mp-972751,Si3Ge,0.0,0.538603511249999,0.538603511249999
mp-972741,Si3P,0.0,0.5485536704761902,0.626708736875
mp-974426,Re3Sn,0.0,0.5524362162499994,0.5524362162499994
mp-1009848,TcC,0.0,0.5549327562500004,0.5549327562500004
mp-20278,Fe(BMo)2,0.0,0.5574167603333336,0.9856548060000012
mp-974432,Re3Sn,0.0,0.5580797849999986,0.5580797849999986
mp-1009696,RhC,0.0,0.5613610512499996,0.5613610512499996
mp-973271,K3Y,0.0,0.5623835293749999,0.5623835293749999
mp-978806,Si3Ag,0.0,0.5629284224999997,0.5629284224999997
mp-1014509,Cr3N2,0.0,0.5630765330480016,1.1432803819999986
mp-972752,Si3As,0.0,0.5631066487499998,0.6086949608333336
mp-1008491,BeSiP2,0.0,0.5645026347023805,0.9410756187500002
mp-978510,Si3As,0.0,0.5673038100000003,0.6128921220833341
mp-973245,KLu,0.0,0.5704796600000002,0.5704796600000002
mp-973060,MgCr,0.0,0.5718148300000001,0.5718148300000001
mp-1008753,Ti2Al,0.0,0.5753511388888887,0.8937391891666637
mp-984102,Fe3H,0.0,0.5776043765949996,0.6071897437499993
mp-976126,K3Rh,0.0,0.5790734662500001,0.5790734662500001
mp-978497,Si3H,0.0,0.5798804528449999,0.61318599015625
mp-1008987,IrN,0.0,0.5806462738100011,0.5806462738100011
mp-631946,SnOs2Ru,0.0,0.5882760524999995,0.6636394841666675
mp-119,Se,0.0,0.5892225214062496,0.5892225214062496
mp-1014111,Ni,0.0,0.6001029749999995,0.6001029749999995
mp-1008472,CdSiP2,0.0,0.6008743597023813,0.80355072
mp-976334,Li3Tc,0.0,0.6137342050000001,0.6137342050000001
mp-1009019,FeN,0.0,0.6139474788100001,0.9269244849999998
mp-985288,As3W,0.0,0.6153535162500008,0.6661226406249998
mp-1009837,TcC,0.0,0.6475889512500004,0.6475889512500004
mp-10030,RuC,0.0,0.6486300587499993,0.6486300587499993
mp-980038,Tl3Ru,0.0,0.6564642362499997,0.6564642362499997
mp-975530,RbAl,0.0,0.6581729700000001,0.6581729700000001
mp-973786,H3Pb,0.0,0.660757028535,0.660757028535
mp-10681,B2Au,0.0,0.6669399822222223,0.6669399822222228
mp-971657,Au3N,0.0,0.6901657219049997,0.6901657219049997
mp-24420,H2Se,0.0,0.6969084413887501,0.6969084413887501
mp-984762,CsY,0.0,0.6977013637500002,0.6977013637499994
mp-541848,B,0.0,0.7083233081481481,0.7083233081481479
mp-1008681,Sc,0.0,0.7203188999999997,0.7203188999999997
mp-10143,TiB,0.0,0.7230090883333329,1.5547321937500005
mp-1007778,TlN,0.0,0.7250466763099999,0.7250466763100007
mp-705439,CuO2,0.30816099999999996,0.7309605475000005,1.4333934181250003
mp-1008283,Ba,0.0,0.7362551799999999,0.7362551799999999
mp-1009769,RuN,0.0,0.7395046963100009,0.7395046963100009
mp-1009663,ReC,0.0,0.7399414537499993,0.7651417818749984
mp-975821,K3Ir,0.0,0.7423156175000001,0.7423156175000001
mp-977182,NaNb3,0.0,0.7453399737500002,0.7453399737500002
mp-983230,Ga3B,0.0,0.7471496458333338,0.7471496458333338
mp-977138,NaTc3,0.0,0.7546147537499994,0.7546147537499994
mp-1009720,RhN,0.0,0.7687439388100001,0.7687439388100001
mp-978886,SnB,0.0,0.7708308316666672,0.7708308316666663
mp-1008630,WC,0.0,0.7789839712499997,0.9019261299999995
mp-13117,CuN,0.0,0.7854057488100006,0.7854057488100006
mp-1008826,OsN2,0.0,0.786115376746667,0.7861153767466682
mp-974949,Rb3Ir,0.502554,0.7897603275000002,0.7897603274999989
mp-24897,Cr3O,0.0,0.7927156071875006,1.7717052212499995
mp-13480,Cu3N,0.0,0.795171179405,0.7951711794049992
mp-23903,HBr,0.0,0.8053855006900004,1.1332541050000002
mp-976943,NaRe3,0.0,0.806551185,0.806551185
mp-1009820,SnC,1.447945509999999,0.8153498537499999,0.8153498537499999
mp-1006880,BiB,0.6735373,0.824370604166667,0.8243706041666661
mp-24,C,3.80304093,0.8310882887499993,0.8310882887499993
mp-983152,Li3Re,0.0,0.8314074875000008,0.8314074875000008
mp-631392,SrHfRe2,0.0,0.8338650312500011,1.1339337750000011
mp-1008918,CdN,0.0,0.84487729631,0.84487729631
mp-1009694,ReN,0.0,0.8617812113100012,1.0032143783333345
mp-973835,PdN,0.0,0.8620157438099998,0.8620157438099989
mp-978962,Tl3Fe,0.0,0.8701319912499996,0.8701319912499996
mp-974315,RuI,0.0,0.8730108350000005,0.8730108350000005
mp-975050,Rb3Co,0.0,0.8790922350000001,0.8790922350000001
mp-961701,ZrAgB,0.0,0.8835404877777778,1.4203659516666658
mp-974457,Ru3I,0.0,0.8875156612500001,0.8875156612500001
mp-1008802,ReC2,0.0,0.8896942533333342,0.9064944720833328
mp-1009732,RhN,0.0,0.8942903038100001,0.8942903038100001
mp-974525,ReAg3,0.0,0.8964918825000003,0.8964918825000003
mp-972733,Si3B,0.0,0.9097107645833332,0.9233080139583336
mp-1009787,RuC,0.0,0.9100567437499992,0.9100567437499992
mp-7142,OsC,0.0,0.9108525087500006,0.9108525087500006
mp-1009483,NiN,0.0,0.91668133881,0.9578065842066676
mp-1008921,CdN,0.0,0.92668288631,0.92668288631
mp-978855,Sn3B,0.0,0.9337381595833336,0.9337381595833336
mp-13174,PtN,0.0,0.93638379381,0.9363837938099993
mp-10709,ReC,0.0,0.9439375637499996,0.9691378918749988
mp-1009548,PdN,0.0,0.9452912738100006,0.9452912738099996
mp-1005760,Tl3Os,0.0,0.9782360975,0.9782360975
mp-1008965,CdN,0.0,0.98007616131,0.98007616131
mp-978009,HgOs,0.0,0.9818298375000004,0.9818298375000004
mp-976080,Ge3B,0.0,0.9856307683333334,0.9856307683333334
mp-974568,Re3Bi,0.0,0.9916885675000008,0.9916885675000008
mp-631452,NbCrW,0.0,1.0127593533333343,1.0314421799999989
mp-971857,Zn3C,0.0,1.042442316875,1.042442316875
mp-977200,Na3C,0.0,1.056352804375,1.056352804375
mp-7139,N2O,4.467259,1.063768074663333,1.476082121032216
mp-1009652,RhC,0.0,1.0933258062499993,1.0933258062499993
mp-1009582,NiC,0.0,1.1023503562499997,1.1023503562499997
mp-1009731,ReC,0.0,1.1060857987499997,1.1312861268749987
mp-1009601,PdN,0.0,1.1285462088100005,1.1285462088099996
mp-13173,PtN,0.0,1.1367782363100003,1.1367782363100003
mp-976409,K3Nb,0.0,1.13996059625,1.1399605962500003
mp-1008489,CdN,0.0,1.15739577631,1.15739577631
mp-973974,K3Mo,0.0,1.167348585,1.167348585
mp-13175,PtN,0.0,1.1929350538100003,1.1929350538100003
mp-1009538,PdC,0.0,1.2149132262500002,1.2149132262500002
mp-974820,Rb3Tc,0.0,1.2356887150000002,1.2356887150000002
mp-1009822,SnC,0.0,1.2933709487499998,1.2933709487499998
mp-984106,Na3Re,0.0,1.2935075575,1.2935075575
mp-974474,ReBr,0.0,1.3063951225000006,1.3063951225000006
mp-2355,MoN,0.0,1.3185731388100006,1.8668890093750008
mp-1009015,IrN,0.0,1.3389220788100014,1.3389220788100014
mp-1009495,OsN,0.0,1.364997311310001,1.364997311309999
mp-1009539,OsC,0.0,1.3878214487499996,1.3878214487499996
mp-973155,Ge3C,0.0,1.393475880625,1.393475880625
mp-1008820,PdN2,0.0,1.4037831550800004,1.4037831550799984
mp-973674,HgN,0.0,1.404392946310001,1.404392946310001
mp-547864,CdCO3,0.0,1.4326776227499998,3.211951861
mp-1009537,OsC,0.0,1.4647747537499995,1.4647747537499995
mp-1009071,IrC2,0.0,1.4665315216666668,1.4665315216666683
mp-1009533,PdC,0.0,1.4909429262499998,1.4909429262499998
mp-1009005,IrN,0.0,1.5050197088100008,1.5050197088100008
mp-1009767,AgN,0.0,1.5329490188100006,1.5329490188100006
mp-1009766,AgN,0.0,1.5378644238100003,1.5378644238100003
mp-1009648,PtC,0.0,1.5632843462500006,1.5632843462500006
mp-1006887,CdC,0.0,1.98293991875,1.98293991875
mp-672229,Mn3ZnC,0.0,1.9997727175000009,2.0687816576304363
mp-1006882,CdC,0.0,2.10242208375,2.10242208375
mp-33056,Rb6C5,0.18673099999999998,2.1850689120454545,2.2034513918749985
mp-1008653,AgC,0.0,2.2344329562500005,2.2344329562500005
mp-1008661,AuC,0.0,2.24468682625,2.24468682625
mp-1008912,AgC,0.0,2.2571706762500003,2.2571706762500003
mp-975606,InN3,0.0,2.3416705932150004,2.39330112381
mp-25174,W3O,0.0,2.4012762671875,3.163346988125