mpid,formula,BG,FE,e_hull
mp-15896,Cu2SiSe3,1.140622,-0.2828618926302084,0.0
mp-11565,YRh5,0.0,-0.2827538920833324,0.0855026000000007
mp-11840,BaAg,0.0,-0.2826062375,0.0
mp-12110,TaRu,0.0,-0.2823182525000014,0.0403614249999986
mp-316,MnV,0.0,-0.281895445,0.0
mp-2418,PdSe2,1.274697,-0.2815493423958338,0.0
mp-11658,Cu2SnSe3,0.058669,-0.2809066051302083,0.0
mp-10632,TlS,0.0,-0.2806954495312501,0.3065758051562555
mp-1008471,CdTe,0.0,-0.2805474050000001,0.1819753474999998
mp-2317,LaNi5,0.0,-0.2803476249999998,0.0
mp-984315,Be3Ni,0.0,-0.2800958837500005,0.0
mp-31140,BaBiAu,0.0,-0.279551136666667,0.4053735779166674
mp-31301,LiSn4Au3,0.0,-0.2794107031249999,0.0
mp-1646,Li3Hg,0.0,-0.2794043674999997,0.0
mp-973325,Li2MgGe,0.0,-0.2790314237499998,0.0222897411666656
mp-976047,Li3Hg,0.0,-0.2784643724999998,0.0009399949999999
mp-31053,Ag2S,2.141385,-0.2782280530208337,0.0
mp-8939,Si2W,0.39142099999999996,-0.2773844344444443,0.065856858888889
mp-867851,Rb2TlAu3,0.0,-0.2773437558333332,0.0
mp-11883,MgIr2,0.0,-0.2772350549999996,0.0
mp-174,Tl5Te3,0.0,-0.2770040918750003,0.0054349562073863
mp-1384,LaIr5,0.0,-0.2766930816666679,0.0820957308333323
mp-1836,TlSe,0.712735,-0.2763537017968751,0.0
mp-1121,GaCo,0.0,-0.2763156499999999,0.0
mp-11584,Lu8Te,0.0,-0.2762800111111111,0.0
mp-1823,Ti3Al,0.0,-0.2762413262500001,0.0
mp-867225,LaCdAg2,0.0,-0.27611481375,0.0
mp-23710,MgH2,5.032688999999999,-0.2757193107466668,0.0
mp-20311,FeSe,0.0,-0.2755873892968754,0.0
mp-23711,MgH2,4.768359,-0.2750700799133335,0.000649230833333
mp-977382,Ta2VRu,0.0,-0.2750337137500001,0.0
mp-11237,ScAg,0.0,-0.2749242900000004,0.0
mp-15805,Mn3ZnN,0.0,-0.2747272894759988,0.0
mp-16756,Ta3Ga2,0.0,-0.2746484369999989,0.0
mp-28897,BIrPd,0.0,-0.2737602563888899,0.0
mp-27454,BaLi2Si,0.0,-0.2734018974999999,0.0
mp-3522,MgCuSb,0.0,-0.2733721383333337,0.0
mp-1594,Ni2Ge,0.0,-0.2733341449999997,0.0303649341666663
mp-32669,Ag2S,2.1867739999999998,-0.2733065113541671,0.0049215416666688
mp-556225,Ag2S,2.002323999999999,-0.2728519263541672,0.0053761266666687
mp-32884,Ag2S,2.183426,-0.2724500730208336,0.0057779800000021
mp-975359,Rb(FeAs)2,0.0,-0.2722333920000004,0.0
mp-960,B2Mo,0.0,-0.2720396011111106,0.160010128333333
mp-977361,ZnFeRh2,0.0,-0.27162922625,0.0
mp-20189,SrMnGe,0.0,-0.2714140883333329,0.1425793516666678
mp-37920,AgAuS2,1.101775,-0.2713911195312501,0.0
mp-867817,LaTlAg2,0.0,-0.2711276637500002,0.0023172766666661
mp-36216,Ag2S,1.986621,-0.2708689663541672,0.0073590866666686
mp-985782,H2C,7.828746,-0.2703877007466667,0.0439634479166652
mp-408,Mg2Ge,0.7564989999999999,-0.2700891216666665,0.0
mp-977552,Be3Tc,0.0,-0.2694637162500006,0.0
mp-16718,Al6Tc,0.0,-0.2689837185714278,0.0
mp-11305,Li2CdPb,0.0,-0.2689606787499996,0.0
mp-867281,Tc3Pt,0.0,-0.2687364212499989,0.0
mp-6854,Cs2LiMn(CN)6,0.0,-0.2687350255799989,0.126016533697916
mp-973957,La2ZnAg,0.0,-0.26822950125,0.0165463175
mp-13364,CaZn2,0.0,-0.2681478524999997,0.0237953575
mp-1169,ScCu,0.0,-0.2680603000000001,0.0
mp-12087,Cu2S,0.474952999999999,-0.2679397513541666,0.0940375904166668
mp-31220,AlSiTe3,1.9984089999999999,-0.2677983580000003,0.0
mp-2512,AsPd5,0.0,-0.2677400741666662,0.0
mp-3250,Ni2SbTe2,0.0,-0.2674481480000004,0.3479197880000013
mp-27689,PH4Br,5.128036,-0.26729795126254,0.0
mp-24084,KH,4.464731469999999,-0.2671689893099995,0.0
mp-11490,Li2ZnSn,0.0,-0.2656213350000001,0.0346704456944446
mp-7424,BPd2,0.0,-0.2654411555555557,0.0
mp-27916,AgBiSe2,0.738123,-0.2651054872135419,0.0016170158333319
mp-4107,Li(CoGe)6,0.0,-0.2642940292307696,0.0
mp-9295,TaCu3Te4,1.880448,-0.264214449999999,0.0
mp-11449,HfMn2,0.0,-0.2641202241666664,0.0
mp-12772,Hf2Al,0.0,-0.2637661250000001,0.0394866183333331
mp-16766,LaAl2Ag3,0.0,-0.2635147916666665,0.0
mp-13240,ScInCu4,0.0,-0.26336393,0.0
mp-15679,CoAs,0.0,-0.2630646624999997,0.0327742237500006
mp-961707,LaNiSb,0.5460884500000001,-0.2629958483333337,0.6143207916666658
mp-950217,BiI4,1.357346,-0.2629912640000001,0.1234229930000001
mp-973342,SbRh3,0.0,-0.2626378312500002,0.0105350331250004
mp-15650,AsRu,0.0,-0.26257242375,0.0331354325000008
mp-867475,TaSnRu2,0.0,-0.2623893862499997,0.0
mp-8695,MnPSe3,1.374787,-0.2617204377752976,0.0
mp-867263,ScCdHg2,0.0,-0.26102634625,0.0
mp-2008,FeAs2,1.096374,-0.260936896666666,0.0
mp-1113,BW2,0.0,-0.2606483872222232,0.0
mp-23694,LiBH,0.0,-0.2601604025955559,0.0741631837345666
mp-318,SrIr2,0.0,-0.2600819683333337,0.0
mp-10373,Cr3PdN,0.0,-0.2597909984759994,0.0770219099999991
mp-979288,Ta2NbRh,0.0,-0.2597751450000008,0.0
mp-13852,Ge3N4,3.131615,-0.2589045220742859,0.0017535478571426
mp-2515,CrPt3,0.0,-0.2582038749999995,0.0
mp-20007,MnNiGe,0.0,-0.2580874308333326,0.0
mp-1373,Nb3Ge,0.0,-0.257989618749999,0.0559723195833346
mp-558139,CuS,0.0,-0.2564500170312496,0.2734344641666713
mp-1009223,NaAs,0.0,-0.2556445099999997,0.1132668461413044
mp-981356,Zr(FeGe)6,0.0,-0.2554971430769228,0.0
mp-31209,Ca(BeGe)2,0.0,-0.2548968589999994,0.0343179290000001
mp-7459,Te2Mo,0.0,-0.2545057458333334,0.0160438058333332
mp-4638,TlCrTe2,0.35171606,-0.2543938537499999,0.0
mp-976236,NaCaTl2,0.0,-0.25411949625,0.0207031512500002
mp-15683,CrAsRh,0.0,-0.2541140949999993,0.068584614444445
mp-1328,SrRh2,0.0,-0.253602688333333,0.0
mp-1638,SrAl2,0.0,-0.2533515733333331,0.0087164716666672
mp-10074,GeSe2,1.9839820000000001,-0.2531749148958327,0.0153285306250001
mp-972889,ScSn3,0.0,-0.2530288787499994,0.0962980775000002
mp-1948,LaAg,0.0,-0.2526919400000001,0.0
mp-31383,Hf6CoBi2,0.0,-0.2525071155555546,0.0
mp-867795,ScNbTc2,0.0,-0.2525007274999993,0.0
mp-28878,RbTe6,0.0,-0.252309495714286,0.0186952185714286
mp-27533,P2Pd15,0.0,-0.2520011156582631,0.0048752064705883
mp-19814,NiAs2,0.0,-0.251794343333333,0.0
mp-714896,Cr3O,0.0,-0.2517774103124992,0.7272122037499997
mp-974591,Rb4NO,1.174711,-0.2511806722716668,0.4465614955555579
mp-11462,KHg,0.0,-0.2509423725000001,0.0
mp-11335,BeSe,0.6130180000000001,-0.2508407267968753,0.5433316399999999
mp-255,NaHg,0.0,-0.25072797125,0.0
mp-23435,Bi2TeI,0.32954300000000003,-0.2503221875000001,0.0269061812499984
mp-12874,Si2Ru,0.0,-0.2500680349999993,0.2924960191666663
mp-11947,LiAlAg2,0.0,-0.2500600249999998,0.0
mp-27747,PdI2,1.868509,-0.2497023483333335,0.0
mp-11270,MnBe2,0.0,-0.2494644008333324,0.0
mp-1545,Nb3Rh,0.0,-0.2490173225000003,0.0
mp-27368,NaLi5Sn4,0.0,-0.2482354494999999,0.0924430364583335
mp-976261,NaCa2In,0.0,-0.2481254012500003,0.0265590193749996
mp-429,ZnNi,0.0,-0.2475842300000001,0.0
mp-552169,AgClO2,1.817749,-0.2475445251899995,0.3298423087500009
mp-10871,AlAu,0.0,-0.2468314500000001,0.1456128562500001
mp-20305,InAs,0.0,-0.2460362374999998,0.0
mp-4901,Y2MgCu2,0.0,-0.245927683,0.0
mp-867127,ScCdAg2,0.0,-0.2456296412500003,0.0
mp-23697,K3AlH6,2.804202,-0.2449929871719995,0.0501056404999999
mp-2696,MgAg,0.0,-0.244902605,0.0
mp-1009491,RbTe,0.0,-0.2444546400000003,0.5994026875000005
mp-11283,ZrBe5,0.0,-0.2443755091666671,0.0
mp-9575,LiBeSb,1.798548,-0.2442502316666667,0.0392186844444442
mp-5491,MnAlAu2,0.0,-0.2440698374999997,0.0
mp-20233,CaMnSn,0.0,-0.2437055749999993,0.1820945583333335
mp-493,Co2B,0.0,-0.2419772855555552,0.0249118375000003
mp-36940,Mg(CN)2,7.777934999999999,-0.2417238749520009,0.4035527035000008
mp-984553,BOsO3,0.0,-0.2416386550833337,1.7776339021666656
mp-11304,Li2CdPb,0.0,-0.2416270212499998,0.0273336574999998
mp-38505,GaCuSe2,0.0,-0.2415835030468747,0.2361767675000017
mp-19747,Ni3(PbSe)2,0.0,-0.2396611010267858,0.082155015714286
mp-1932,Nb3Os,0.0,-0.239478085,0.0
mp-971754,V2ReW,0.0,-0.23924434125,0.0
mp-971632,GaP,0.709160999999999,-0.2386492915476195,0.1697864825000001
mp-1008881,MgNiH,0.0,-0.2386185328733331,0.0363919653472231
mp-952566,NaSnSb,0.348475,-0.2385640783333329,0.0
mp-973979,LiFePd2,0.0,-0.2384157975000001,0.012870260833333
mp-712,YCu,0.0,-0.2383407812500007,0.02076299375
mp-978261,MnBe2Co,0.0,-0.2374546649999996,0.0111384665624996
mp-23353,Cu2HgI4,1.779823999999999,-0.2368778542857142,0.0
mp-11209,AlAs,0.0,-0.2366056400000005,0.2473311024999996
mp-662,NiSe,0.0,-0.2360401717968745,0.0481703591666669
mp-2371,Ga2Te5,1.55251415,-0.2358193814285719,0.0
mp-11466,NaHg2,0.0,-0.235784445,0.0
mp-974973,HfZrZn2,0.0,-0.235774751250001,0.0102311112499995
mp-10746,Mg2Cu3Si,0.0,-0.2352103133333329,0.0
mp-973771,Lu2MgHg,0.0,-0.2348568949999996,0.0195307700000002
mp-1867,Ta2Ni,0.0,-0.2344725916666661,0.0
mp-13172,YMgCu4,0.0,-0.2338266804166663,0.0
mp-900,RhSe,0.0,-0.2338015217968747,0.0651556012499998
mp-12398,Mg(CoGe)6,0.0,-0.2333782523076921,2.851596153785607e-05
mp-976291,LiAlH4,4.9929830000000015,-0.2333175465799997,0.0166912008333333
mp-19725,Hf(FeGe)6,0.0,-0.2328174619230765,0.0
mp-2025,HfBe5,0.0,-0.2327137899999994,0.0
mp-35687,Be(CN)2,7.51791,-0.2324602079520005,0.2256093974999986
mp-27819,Ag3O,0.084821,-0.2317302865624993,0.0153851900000008
mp-11358,TaCo3,0.0,-0.2311553449999994,0.0
mp-934,LiTl,0.0,-0.2309302325,0.0
mp-34202,Bi2Te3,0.615688999999999,-0.2308349400000004,0.0
mp-12778,VOs,0.0,-0.2307633224999996,0.0063306583333329
mp-1569,Be2C,1.9522410000000001,-0.2306482691666668,0.0
mp-35835,Ag(AuS)2,0.0,-0.2306175316250005,0.0523598766666655
mp-973300,Lu3Ga,0.0,-0.2302030299999993,0.0972799349999995
mp-2776,Ga2Au,0.0,-0.2299966299999999,0.0
mp-1395,VRu,0.0,-0.2299761875000001,0.0
mp-4573,TlSbTe2,0.497481199999999,-0.2295913275000001,0.5973577531818184
mp-24721,RbH,3.88923889,-0.2294985443100001,0.0
mp-371,La3Tl,0.0,-0.2293021312500008,0.0
mp-1009006,LiCdAs,0.0,-0.2291053233333334,0.2522710966666666
mp-1008903,MgAgSb,0.0,-0.2289350616666669,0.0
mp-261,Ba3Al5,0.0,-0.2289080587499996,0.0037182560714299
mp-985440,CrGa3P4,0.0,-0.2282339290476187,0.2155328696875003
mp-7396,Li3Tl,0.0,-0.2281887487500001,0.0
mp-12083,CrIr3,0.0,-0.2278577099999985,0.0
mp-259,AlMo3,0.0,-0.2275736749999986,0.0
mp-32868,Ag2S,0.9778600000000001,-0.2263648846874993,0.0518631683333348
mp-7473,LiCu2Si,0.0,-0.2263257224999999,0.0
mp-12612,Ba3Ag2,0.0,-0.2260739706666665,1.1019333332917824e-05
mp-11621,ZnNiSb,0.0,-0.225739576666666,0.0
mp-12678,TaMn2,0.0,-0.2253992758333325,0.0
mp-30973,Ni3(BiSe)2,0.0,-0.2253366703125,0.0
mp-1298,KAu5,0.0,-0.2251271699999998,0.0
mp-623134,ZrInCu2,0.0,-0.2236851375000004,0.0
mp-33618,AgBiSe2,0.148677,-0.2234790317968751,0.0432434712499989
mp-1486,ZnNi,0.0,-0.2232873275,0.0244812749999998
mp-31474,Rb2Hg7,0.0,-0.2230337211111111,0.0
mp-13034,MoN,0.0,-0.2230028511899995,0.3253130193750007
mp-7558,TaGe2,0.0,-0.2228033822222212,0.0
mp-20207,MnAsRh,0.0,-0.2222141916666673,0.1274869411111101
mp-2631,Ba4Al5,0.0,-0.2219040133333329,0.0
mp-10037,AlCo3C,0.0,-0.2218817834999996,0.019486972500001
mp-38238,Ag2O,0.7548360000000001,-0.2214944370833333,0.1079928650000008
mp-31473,K2Hg7,0.0,-0.2209016188888888,0.0
mp-700,GeSe,1.338205,-0.2207341355468752,0.0
mp-19983,TiCuSn,0.0,-0.2204457572222224,0.0130953627083378
mp-1408,MgHg,0.0,-0.2202583149999999,0.0
mp-2455,As2Os,1.300456,-0.2199838866666669,0.0
mp-1004,Nb3Si,0.0,-0.2194736825000003,0.2257029383333346
mp-13171,YMgCu,0.0,-0.218743408611111,0.0
mp-10844,Te2Ir,0.0,-0.218520683333334,0.07283872
mp-867222,LiCa2Ir,0.0,-0.2182099575,0.0020891224999997
mp-13914,LiCo2Ge,0.0,-0.218199103749999,0.0
mp-974586,Rb2MgH4,4.275518,-0.218058834925714,0.0830188195238097
mp-1799,TaCo2,0.0,-0.2176947250000012,0.0169411646666635
mp-12067,MnAl,0.0,-0.21745546,0.0461626749999997
mp-973682,Fe3B,0.0,-0.2173582872916668,0.0183367506249982
mp-975170,RbHg3,0.0,-0.21734268,0.0166290704166666
mp-1734,CaZn5,0.0,-0.2171912208333332,0.0
mp-3161,LiAlSi,0.536987,-0.2169931399999996,0.0
mp-19907,In2Se3,0.0,-0.21600469315625,0.316585754333333
mp-2850,B2Os,0.0,-0.2153566027777778,0.0
mp-11281,Be2V,0.0,-0.2145518491666666,0.0
mp-3477,MgAgAs,0.0,-0.2138519783333332,0.1354644101666675
mp-20246,Mn4Ge6Ir7,0.0,-0.2137366952941172,0.0547328407647027
mp-27577,Cd2As3I,1.222031,-0.2136623016666667,0.0021517983333336
mp-7711,Ag2O,0.0,-0.2133763104166668,0.1161109916666673
mp-976023,Li3Ga,0.0,-0.2125996699999999,0.0111433975000001
mp-1555,V3Sb,0.0,-0.2122079124999993,0.0
mp-1084,ZrB12,0.0,-0.2116666738461543,0.0172197141025636
mp-8772,ScB12,0.0,-0.2111621992307693,0.0
mp-10692,CoGe,0.0,-0.2103240687499994,0.0063762275000005
mp-975921,HfRu3,0.0,-0.2099124362499989,0.2037022212499994
mp-2426,LiAg,0.0,-0.2098005649999996,0.0121870550000005
mp-10049,MnAsRu,0.0,-0.2091579233333331,0.0
mp-7008,GaAg(PSe3)2,1.326466,-0.208762424275298,0.0151982233749996
mp-962062,BaSrSn,0.32441663,-0.206002478333333,0.4089601687500006
mp-11714,SiC,2.637483,-0.2055554649999997,2.1319583333401223e-05
mp-11872,Ag2O3,0.0,-0.2054111807500007,0.1854211079166656
mp-31460,NbCoSb,0.0,-0.204433201666666,0.0174739509649137
mp-16334,Fe3PdN,0.0,-0.2043306204759986,0.0
mp-971836,Zn2NiIr,0.0,-0.2042953525000009,0.0
mp-16528,Al6Re,0.0,-0.2041112499999999,0.0
mp-20202,MgSn4Ru,0.0,-0.2039695758333332,0.0
mp-558154,Ag3PO4,0.0,-0.2039036191369048,1.223136071249999
mp-11713,SiC,2.799897,-0.2029630597500002,0.0026137248333331
mp-984744,Ca3Tl,0.0,-0.2023919037500006,0.0147322874999997
mp-1008807,RbCuO,0.0,-0.2022859737500001,0.9963722883333296
mp-638,SrZn5,0.0,-0.2022471925000001,0.0154185591666664
mp-7140,SiC,2.379597,-0.2019856187500002,0.0035911658333329
mp-541441,ZnTe,0.0,-0.201973895,0.2661290575000001
mp-31036,CuTe2Br,1.556149,-0.2017568524999995,0.0
mp-1684,ZnAu,0.0,-0.2017076025,0.0
mp-542621,TaSe2,0.171844,-0.201148046395833,0.6149085093333335
mp-540849,CsHg(NO2)3,0.0,-0.2011265167854542,0.8649503965008076
mp-983590,Be3Fe,0.0,-0.2010738612500002,0.0057325381249997
mp-427,FeAs,0.0,-0.2005737000000004,0.0
mp-20118,Cr2AgTe4,0.0,-0.2004950807142853,0.0
mp-23218,AsI3,3.040146,-0.19937857125,0.0
mp-976025,Li3Ga,0.0,-0.1993529349999998,0.0243901325000002
mp-19876,InNi,0.0,-0.1992193333333324,0.0
mp-12724,SrZn,0.0,-0.1991539924999998,0.0
mp-19895,NiSb2,0.0,-0.1976309716666667,0.0
mp-24341,CsBeH3,4.381674999999999,-0.197265935172,0.0
mp-23918,NaGaH4,5.695292,-0.1963925624133331,0.0
mp-973058,LiLu2Al,0.0,-0.1960859749999994,0.0063494018750001
mp-11251,Mg3Au,0.0,-0.1960186049999999,0.2100505824999996
mp-551,BaAl2,0.0,-0.1953978883333332,0.0384279015151531
mp-560025,Ag2S,0.9949079999999999,-0.1952075630208334,0.0830204900000022
mp-11277,ScBe5,0.0,-0.1951228808333329,0.0
mp-1009894,ZrC,0.904886,-0.1945593737499997,0.6135818300000011
mp-13434,CaMgNi4,0.0,-0.194091373333333,0.0033295766666672
mp-10367,HfSbRh,0.0,-0.1940432599999996,0.4902650130128211
mp-23712,MgH2,2.922015,-0.1940377649133337,0.0816815458333328
mp-10154,MnSbIr,0.0,-0.1925049816666669,0.0652717783333338
mp-24723,TaH2,0.0,-0.1923705090799998,0.0
mp-2749,TiBe2,0.0,-0.1912227072222224,0.0
mp-7400,NaAlGe,0.0,-0.1911587599999998,0.0
mp-976765,Na3Au,0.0,-0.1910974412499999,0.0233159950000001
mp-973089,ScTaFe2,0.0,-0.1909620024999992,0.0156213487500007
mp-23224,BiTe,0.0,-0.1906880125000002,0.0024361691666667
mp-10264,NiTe,0.0,-0.1903689024999995,0.0
mp-24409,PH4I,4.882956999999999,-0.1902976804292061,0.0
mp-560460,AgCN3O2,4.151563,-0.1898518756628573,0.574590978979999
mp-313,YC2,0.0,-0.1892009491666684,0.0679426406249987
mp-3525,Sb2Te2Se,0.41189600000000004,-0.1891559177187496,0.6603696746666663
mp-12802,AlCu3,0.0,-0.189042549999999,0.0
mp-13365,SrZn2,0.0,-0.1889481499999998,0.0498607683333334
mp-1585,V3Co,0.0,-0.1888988225000005,0.0
mp-1209,RbAu5,0.0,-0.188590231666667,0.0
mp-11086,La2MgCu2,0.0,-0.1880964019999993,0.0
mp-23217,Bi2Rh,0.0,-0.188004195,0.0
mp-12572,CaPd3C,0.0,-0.1878110395,0.237817145166666
mp-1902,MnPd,0.0,-0.1872982399999987,0.0147909680000015
mp-10376,Cr3SnN,0.0,-0.1872441974759993,0.1271847810000004
mp-2410,SrAg5,0.0,-0.187141185,0.0
mp-203,NiTe,0.0,-0.1866539924999992,0.0037149099999993
mp-976725,Hf3Au,0.0,-0.1865641337500001,0.1441444587500004
mp-2676,TaBe2,0.0,-0.1862539150000005,0.0
mp-2797,YCu5,0.0,-0.1861786704166673,0.0
mp-20112,Ni3Sn,0.0,-0.1851300037500003,0.0
mp-1014,ZrMn2,0.0,-0.1849592208333324,0.0015996675000007
mp-1317,CoSb3,0.624142999999999,-0.1838058793749999,0.0
mp-15607,Ca(BC)2,0.0,-0.1831838546666674,0.1454579640000011
mp-20269,MnGaPt,0.0,-0.1829078699999999,0.2721489849999994
mp-2028,Be2Nb,0.0,-0.1817840283333337,0.0189517075396832
mp-504498,K2CdPb,0.374201,-0.1815259812499998,0.0
mp-2480,OsSe2,0.407800999999999,-0.1810460040624993,0.0
mp-16886,CdAu,0.0,-0.1809382513888893,0.0
mp-3779,CrSiTe3,0.9424500000000001,-0.1806865039999998,0.0
mp-417,MnRh,0.0,-0.1806769250000002,0.0
mp-948,ZnTe,0.0,-0.1805763075,0.2875266450000002
mp-1294,YCo2,0.0,-0.1798659391666663,0.0
mp-1008832,HfC,0.0,-0.1791952362500009,0.7643617799999998
mp-28896,CuBIr,0.0,-0.1786701972222211,0.0
mp-19955,Co2CuGe2,0.0,-0.1785928990000002,0.0
mp-1630,Zr3Hg,0.0,-0.1783773537500002,0.0
mp-985806,Al2Cu,0.0,-0.1762988199999995,0.0
mp-558189,Ag3SI,1.6697950000000001,-0.1761519808124997,0.1042641570000002
mp-2463,LuFe2,0.0,-0.1757768816666676,0.0
mp-12947,LaMgCu2,0.0,-0.1753899962499994,0.0034612134374985
mp-11361,MgCuSn,0.0,-0.1745706449999998,0.0
mp-10889,La3Al,0.0,-0.1739880974999996,0.0265659381250005
mp-971779,ZnRh3,0.0,-0.1730367437500009,0.0173353899999995
mp-1018722,HgSe,1.219277,-0.172676879296875,0.0371261550000001
mp-755,CoSb2,0.0,-0.1723486099999996,0.0031359879166661
mp-1400,HfW2,0.0,-0.1722945216666668,0.0
mp-31103,Ni3Te2,0.0,-0.1721005040000001,0.0
mp-2510,ZrHg,0.0,-0.1720154575000005,0.0
mp-976220,NaCdHg2,0.0,-0.1716393975,0.00519893625
mp-173,MnAl6,0.0,-0.1707525914285708,0.0
mp-624,B6As,3.452613,-0.1702461785714289,0.0
mp-489,Ge4Ir,0.0,-0.1694907139999998,0.0064351700000004
mp-9574,NaBeSb,1.7903390000000001,-0.1692241550000002,0.0496636845833342
mp-971700,ZnAuO3,0.0,-0.1689908197500003,0.7831513173749993
mp-2730,HgTe,0.0,-0.16859844,0.0
mp-16719,Al12Tc,0.0,-0.1682171169230774,0.0
mp-2553,HfBe2,0.0,-0.1682072183333337,0.0179638136666664
mp-432,NbRu,0.0,-0.1681181224999992,0.0
mp-2757,CdAu,0.0,-0.1680598474999999,0.0128784038888891
mp-973759,Lu2MgCd,0.0,-0.1678651187499995,0.0027488249999998
mp-1009817,TaC,0.0,-0.1675613437500001,0.4111406500000001
mp-1804,Fe3N,0.0,-0.1674596155949999,0.0
mp-33683,AgSbSe2,0.0,-0.167336149296875,0.0211630724999998
mp-13590,LiB(CN)4,7.9101669999999995,-0.1671615316186659,0.3358263893989992
mp-680731,Tl2Te3,1.138431,-0.166849865,0.0244042599999998
mp-1008901,MgH2,0.0,-0.1662928790800002,0.109426431666666
mp-28319,PtI2,2.309022,-0.1659946058333332,0.0
mp-12695,CaMg2Ni9,0.0,-0.1654607533333335,0.0
mp-1009651,CaHg2,1.39808338,-0.1649925233333333,0.2787364000000008
mp-1814,BaAg5,0.0,-0.1646963333333335,0.0
mp-12777,AlCu3,0.0,-0.1646098299999989,0.02443272
mp-973668,LuSi3,0.0,-0.1640827400000004,0.2335585575000003
mp-902,BaZn,0.0,-0.1640421374999998,0.0
mp-2670,Nb3Ga,0.0,-0.1639410237500005,0.0556272656250005
mp-9835,CoSb2,0.0,-0.163555433333333,0.0119291645833321
mp-2685,HgPd,0.0,-0.163085965,0.0054351549999998
mp-11390,LiGaSi,0.60793705,-0.16213355,0.0518116416666676
mp-10256,VTe,0.0,-0.1621171550000006,0.1450199925000026
mp-9472,LiAg2Ge,0.0,-0.1619365212499999,0.0
mp-1252,ZrBe2,0.0,-0.1618235366666667,0.033676870666663
mp-979267,Ta2FeMo,0.0,-0.1616313950000005,0.0
mp-11236,MgZnAg2,0.0,-0.1616047462500001,0.0
mp-541449,CrGeTe3,0.822417,-0.1614202980000001,0.0
mp-2363,HfMo2,0.0,-0.1611640133333338,0.0
mp-13688,Ge2Mo,0.0,-0.1607824999999998,0.0
mp-975799,LiZn3,0.0,-0.1601427787499998,0.0
mp-11278,Ta2Be,0.0,-0.159338433333333,0.0
mp-2588,YCo3,0.0,-0.1591644356249991,0.0
mp-977454,HgPd2Au,0.0,-0.1590320075,0.0
mp-2644,CoSb,0.0,-0.1588420349999992,0.0
mp-10886,Al3Cu2,0.0,-0.1569867059999992,0.0340851243999997
mp-20203,MnCuP,0.0,-0.1566738635317458,0.2548469158333324
mp-7250,Nb6Co7,0.0,-0.1557490730769232,0.0
mp-1326,Nb3Sn,0.0,-0.1552216362499994,0.0
mp-984873,Al3Fe,0.0,-0.1528928937499998,0.0832940422500003
mp-20119,PtO2,0.0,-0.1526995541666664,0.7875174433333338
mp-620404,SnC2(SN)2,3.119653,-0.1524426961264282,0.1997148728914295
mp-13464,Ca(FeSb3)4,0.0,-0.1522129911764702,0.0
mp-476,Ge3N4,2.860293,-0.1521018656457136,0.1085562042857146
mp-977204,NaTl2Sb,0.0,-0.152021135,0.0141826665393516
mp-11293,ZrCdCu2,0.0,-0.1508760687499997,0.0
mp-977126,Li3Ag,0.0,-0.1507325575,0.0095304624999998
mp-867345,TcIr3,0.0,-0.1506504362499985,0.0