mpid,formula,BG,FE,e_hull
mp-39,Tl,0.0,0.000258585,0.000258585
mp-976347,Kr,8.988559910000001,0.0003995824999999,0.0003995824999999
mp-974492,ReTc3,0.0,0.0012160274999999,0.0015498637500002
mp-557869,S,3.69297,0.001342646145833,0.001342646145833
mp-27505,Fe3Sn2,0.0,0.0014695990000006,0.0016865263333354
mp-974400,Kr,8.61910716,0.0017301899999999,0.0017301899999999
mp-976411,Li,0.0,0.0019217,0.0019217
mp-10173,Li,0.0,0.00197402,0.00197402
mp-975439,Mn3S,0.0,0.0022029789843749,0.4765816337500013
mp-23156,He,20.26521478,0.0024687399999999,0.0024687399999999
mp-475,SnP,0.0,0.0025054234523809,0.033361997738095
mp-961724,ZrBiRh,0.0,0.0025123316666662,0.5408070313333333
mp-1008634,Au,0.0,0.0027020549999998,0.0027020549999998
mp-978271,Mg3Al,0.0,0.0028856775000001,0.0285116871153845
mp-978254,La3Ag,0.0,0.0029793887499991,0.12932535875
mp-982370,Na,0.0,0.0030165524999998,0.0030165524999998
mp-10861,Hg,0.0,0.0032262266666666,0.0032262266666666
mp-10845,Te2Ir,0.0,0.0037931866666666,0.2951525900000007
mp-754382,He,19.00757295,0.00438156,0.00438156
mp-542065,CdAgSb,0.0,0.0045300133333334,0.055103555
mp-975204,Rb,0.0,0.00487891,0.00487891
mp-42,Ta,0.0,0.0049237406666691,0.0049237406666673
mp-542605,Se,2.228698999999999,0.0049660292187496,0.0049660292187496
mp-867202,Sr,0.0,0.00528638,0.00528638
mp-139,Sr,0.0,0.00549138,0.00549138
mp-542461,Se,2.44032,0.0055899476562499,0.0055899476562499
mp-979286,Xe,7.10865518,0.0056119399999999,0.0056119399999999
mp-975341,La3Mg,0.0,0.0060133562499995,0.0608644787500001
mp-13138,Cu3Sn,0.0,0.006261771250001,0.0194546337500005
mp-974789,Rb3Sn,0.0,0.0068394637500002,0.1495629178125002
mp-46,Ti,0.0,0.0072638383333325,0.0072638383333325
mp-10008,Ca7Ge,0.0,0.0079532756249998,0.234548721875
mp-1008279,Co3Mo,0.0,0.0080642550000007,0.0523972800000009
mp-1012640,CrFeCoNi,0.0,0.0083679212500005,0.0600858127777783
mp-95,Sr,0.0,0.00863689,0.00863689
mp-972981,K,0.0,0.0086667599999998,0.0086667599999998
mp-10157,K,0.0,0.00960858,0.00960858
mp-33,Ru,0.0,0.0103334650000004,0.0103334650000004
mp-153,Mg,0.0,0.0103439300000001,0.0103439300000001
mp-984699,BaSr3,0.0,0.0105766549999999,0.0105766549999999
mp-973508,KRb3,0.0,0.0107345425000001,0.0107345425000001
mp-165,Si,1.007328,0.0107458899999999,0.0107458899999999
mp-973111,In,0.0,0.0110871350000003,0.0110871350000003
mp-20086,MnSn2,0.0,0.0112708866666674,0.0112708866666668
mp-20107,MnCuAs,0.0,0.0114970666666683,0.1907082775000006
mp-10597,Ag,0.0,0.0118011799999999,0.0118011799999999
mp-983235,Tl3Pb,0.0,0.0120671762499999,0.0120671762499999
mp-16775,CdCu2,0.0,0.0122327191666666,0.0122327191666666
mp-753304,Hg,0.50682838,0.0123958599999999,0.0123958599999999
mp-416,Cr3Os,0.0,0.0129926124999997,0.0129926124999997
mp-12065,Ag3Pt,0.0,0.0137571325000003,0.0137571325000003
mp-12661,Cd3In,0.0,0.01391871625,0.01391871625
mp-10635,SnSb,0.0,0.0141048225000002,0.0141048225000002
mp-10266,ZnFe3C,0.0,0.0153931915000001,0.0206771798846148
mp-558014,S,3.525529,0.0159130005208331,0.0159130005208334
mp-11271,BeMo3,0.0,0.0163316687500003,0.1329668365624989
mp-557488,S,3.516029999999999,0.0168084403819435,0.0168084403819435
mp-13548,Cs2Pt,2.480574,0.0172318899999996,0.0172318899999992
mp-10679,Ba,0.0,0.0187818699999999,0.0187818699999999
mp-102,Co,0.0,0.01915361,0.01915361
mp-1825,Cu2Sb,0.0,0.01921577,0.0192157699999997
mp-637377,Ti2In5,0.0,0.0195461052380951,0.0700301042857143
mp-1007760,Ge,0.0,0.0196265600000007,0.0196265600000007
mp-12581,CdTe,0.0,0.0197940975000001,0.4823168500000001
mp-11365,Ti3Cu,0.0,0.0201280924999993,0.1076540933333261
mp-982872,Hg,0.0,0.02046174,0.02046174
mp-972373,Tl,0.0,0.0207609849999999,0.0207609849999999
mp-917,CaC2,3.567609,0.0211870516666662,0.0211870516666765
mp-973364,Mg,0.0,0.0215100325000001,0.0215100325000001
mp-1007854,FeNi3,0.0,0.0218368424999999,0.1153737399999998
mp-9,Y,0.0,0.0218932775000002,0.0218932775000002
mp-1575,CaC2,3.350142,0.0219529449999988,0.0219529450000086
mp-2619,FeSb,0.0,0.0219729699999993,0.0399711599999994
mp-973545,Ga3Te,0.0,0.0224831425,0.2048549237499997
mp-16240,Ag3Sb,0.0,0.0228699525000006,0.0228699525000006
mp-7542,GeP3,0.0,0.0231124964285713,0.0231124964285713
mp-132,Ca,0.0,0.0244168499999999,0.0244168499999999
mp-156,La,0.0,0.0246144299999997,0.0246144299999997
mp-1008277,CrCo2As,0.0,0.0254750862500001,0.1752367214583348
mp-976848,NiRuO3,0.0,0.0258601342499986,1.2804884979999995
mp-10257,Ni,0.0,0.0272740850000001,0.0272740850000001
mp-1007857,Ga,0.0,0.028178435,0.028178435
mp-1043,HfV2,0.0,0.0288755233333321,0.0288755233333333
mp-2482,CaC2,2.72339906,0.0291430249999997,0.0291430250000095
mp-34611,ZnAgAs,0.0,0.0296642933333336,0.1273244519270844
mp-1009018,InAg,0.0,0.03102332,0.0732030474107148
mp-978270,MgZr3,0.0,0.0311019687499998,0.0311019687499998
mp-557376,S,3.221677,0.0321157074374994,0.0321157074374998
mp-974883,Rb3Na,0.0,0.0325022512500001,0.0325022512500001
mp-1008872,MnFeTe,0.0,0.0329748866666671,0.1201819658333338
mp-962070,LiScSi,0.83826382,0.0351326366666668,0.5951033470634917
mp-1009135,MnP,0.0,0.0353782859523814,0.6526594549999984
mp-4367,Cu2NiSn,0.0,0.0377828987500006,0.1564579742708334
mp-110,Mg,0.0,0.0391819100000001,0.0391819100000001
mp-557559,S,3.557941,0.0410080241517855,0.0410080241517851
mp-555760,S,3.481807,0.0412295281597213,0.0412295281597216
mp-105,Te,0.0,0.0421421074999996,0.0421421074999996
mp-1432,Be2B,0.0,0.043189351111111,0.0537077730555557
mp-2755,SiTe2,0.0,0.0431905366666664,0.0431905366666662
mp-10654,Te,0.0,0.0439722149999997,0.0439722149999997
mp-870,TlN3,2.726622,0.0446481782150005,0.0446481782150005
mp-976953,Ni3Te,0.0,0.04469759875,0.1522604137500005
mp-540807,C2S3N2,3.838707,0.0453925700789272,0.300405113274083
mp-258,ZrV2,0.0,0.0454643850000001,0.0454643850000007
mp-973316,NaLi3,0.0,0.0459046475000002,0.0459046475000002
mp-133,Sb,0.0,0.0485670550000003,0.0485670550000003
mp-36,Sc,0.0,0.0490334299999997,0.0490334299999997
mp-973935,OsN2,0.0,0.0490383167466674,0.0490383167466674
mp-2556,TlSn,0.0,0.0494001050000001,0.0494001050000001
mp-504746,Cu5As2,0.0,0.0496888342857145,0.0496888342857149
mp-972692,SnPb,0.0,0.0501830025000002,0.0501830024999998
mp-35751,Zn(CN)2,7.392258,0.0505799130480014,0.2576991980000027
mp-11478,GaAg,0.0,0.0506000600000002,0.0828049924999998
mp-961645,LiAlGe,0.0,0.0512443083333339,0.3456249700000002
mp-1008875,Mn2Sb,0.0,0.0513506450000006,0.0738166083333329
mp-542909,Mn,0.0,0.0521997120000008,0.0521997120000001
mp-1008501,Be,0.0,0.0523251275,0.0523251275
mp-13154,Fe3C,0.0,0.0527870918749986,0.052787091874995
mp-2347,NiAs,0.0,0.0539657174999996,0.3408172441964288
mp-35216,BiTe3,0.0,0.0553843762500001,0.1996562137500004
mp-1008625,W2C,0.0,0.0555751108333311,0.1375365500000001
mp-27337,Xe(OF)2,3.680972,0.0559377820240001,0.5317651905000003
mp-1871,Fe2C,0.0,0.0567144641666672,0.0567144641666654
mp-974368,Rh3Pb,0.0,0.0579591124999998,0.0986862833333335
mp-13589,CuB(CN)4,4.93983,0.0591540143813347,0.3535774897860007
mp-1008280,CrCo3,0.0,0.05973541,0.0652619862500012
mp-2559,SeS,0.0,0.0611056486718748,0.0611056486718748
mp-6985,Ti,0.0,0.063424163333333,0.063424163333333
mp-958,Cr3Rh,0.0,0.0640093850000003,0.1047102200000012
mp-7,S,3.63082005,0.0654304326041662,0.0654304326041659
mp-984518,Ga3Cu,0.0,0.0655431100000001,0.1278711375000001
mp-23157,Bi,0.0,0.0669027150000003,0.0669027150000003
mp-17,Cr,0.0,0.0678711612500002,0.0678711612500002
mp-1008929,FeN,0.0,0.0679272038100009,0.3809042100000006
mp-2577,Mn3Rh,0.0,0.0697349074999991,0.1638095575000004
mp-10048,GaAs,0.0,0.0702774874999998,0.4175267550000004
mp-1272,Cr3Ru,0.0,0.07113441125,0.07113441125
mp-10187,TeIr,0.0,0.0721848474999999,0.290704400000001
mp-11503,MnZn,0.0,0.0723547325000009,0.0859613650000081
mp-971648,GaP,0.0,0.0725970059523808,0.4810327800000005
mp-7162,Sn,0.0,0.0734195250000002,0.0734195250000002
mp-971720,ZnGa3,0.0,0.0736587212500001,0.0736587212500001
mp-1013540,Ca3PN,0.0,0.0737651019049522,1.1603127480000015
mp-978992,SnH4,0.0,0.0771747521040005,0.0771747521040007
mp-1009770,RuN,0.0,0.0772782363100006,0.0772782363100006
mp-976582,HfSb3,0.0,0.0777302437499996,0.3884289887500003
mp-971684,C3N4,2.737053,0.0778856214971434,0.0778856214971419
mp-130,P,0.0,0.0788790019047613,0.0788790019047613
mp-7229,B5Mo2,0.0,0.0799999380952383,0.4503282776190493
mp-136,Fe,0.0,0.0802403649999998,0.0802403649999998
mp-962077,TiAuCl,0.0,0.0808874600244434,1.2308230672222198
mp-1007761,HW,0.0,0.081810160689999,0.081810160689999
mp-985475,Fe3Mo,0.0,0.0825162437499997,0.0830255566666675
mp-41,Zr,0.0,0.0842973499999999,0.0842973499999999
mp-10293,BaC2,3.347859,0.0847916116666667,0.0847916116666676
mp-12118,InCu2,0.0,0.0855871950000004,0.0965972939473682
mp-984351,CuAg3,0.0,0.0856040662500001,0.0856040662500001
mp-379,AgSe,0.0,0.0858239907031248,0.1388155128515622
mp-973534,FeRe,0.0,0.0867105224999988,0.1001800817857141
mp-973983,NiPd3,0.0,0.088884395,0.088884395
mp-981211,ZnIn3,0.0,0.0891385900000001,0.0891385900000001
mp-11334,W,0.0,0.0901560649999986,0.0901560649999986
mp-8925,TlAg3Te2,0.0,0.0907121883333334,0.2423645930357132
mp-980945,Ti3Nb,0.0,0.0911555074999999,0.0911555074999999
mp-974313,NaMg3,0.0,0.09185790125,0.09185790125
mp-1861,Cu2Te,0.0,0.0924015550000003,0.1341654799999991
mp-985588,FeCl,0.0,0.0925610583699994,0.9247261700000003
mp-1636,Mn3Sb,0.0,0.0931431937500004,0.1099926662499983
mp-1009134,MnFe,0.0,0.0934651750000004,0.0934651750000004
mp-973875,Ga3Ge,0.0,0.0941997387500004,0.0941997387500004
mp-23306,CuI,0.814352,0.0975908924999999,0.2537859150000004
mp-974747,MnCu3,0.0,0.0975923962500004,0.0975923962500004
mp-972318,TiSn3,0.0,0.0977822233333327,0.2897217843749997
mp-1008728,Ni,0.0,0.0979936700000001,0.0979936700000001
mp-1009458,NbC,0.0,0.09966630125,0.5957388527083332
mp-985702,AgPb3,0.0,0.0997837200000004,0.0997837200000004
mp-1961,TiAg,0.0,0.0999118041666662,0.1653383699999997
mp-1004377,HfB6,0.0,0.1020895449999993,0.5408425319047625
mp-985283,Ag3Ge,0.0,0.1046705312500004,0.1046705312500004
mp-10051,TeAs,0.0,0.1054253725,0.1179786541666665
mp-976838,Ni3Au,0.0,0.1061588099999992,0.1061588099999992
mp-976592,K3Ag,0.0,0.10653116,0.1111439721874998
mp-10641,Sc,0.0,0.10722085,0.10722085
mp-10,As,0.0,0.1074050600000005,0.1074050600000005
mp-20,Be,0.0,0.1081427774999999,0.1081427774999999
mp-20304,RhN2,0.0,0.108441093413333,0.1084410934133313
mp-961699,NaMgP,0.19342828,0.1100488823015872,0.63277131388889
mp-972175,Zn3In,0.0,0.1101278012500002,0.1101278012500002
mp-971863,ZnP,0.0,0.1102087059523806,0.3197123767187477
mp-972095,Zn3Hg,0.0,0.1106969662500001,0.1106969662500001
mp-10148,InSb,0.0,0.1108106024999999,0.2379064499999997
mp-1007770,TlAs,0.0,0.1121740199999998,0.1121740199999998
mp-971933,YZr,0.0,0.1122561337499998,0.1122561337499998
mp-24669,CrH,0.0,0.1125830106900007,0.1648445199999999
mp-979265,Ta2CN3,0.0,0.1141271425599998,1.2001093551785758
mp-73,Ti,0.0,0.1144893233333324,0.1144893233333324
mp-1009080,HoCd2,0.0,0.116909255,0.4272560266666669
mp-1008926,CrTe,0.0,0.1171504400000005,0.2909178287499996
mp-1625,SnSb,0.0,0.1194241050000002,0.1194241050000002
mp-1009823,BeB2,0.0,0.1203297272222225,0.1255889381944435
mp-973626,Hg3Au,0.0,0.1216587599999999,0.1216587599999999
mp-6615,C2Se(SN)2,3.389545,0.1218994583601776,0.2919078204902785
mp-974589,Re3Mo,0.0,0.1240212712499992,0.131303500625
mp-971757,ZnHg3,0.0,0.12615266125,0.12615266125
mp-971919,ZnSn3,0.0,0.1271821074999999,0.1271821074999999
mp-974408,Re3W,0.0,0.1290877987499978,0.1290877987499978
mp-974799,Rb3Sr,0.0,0.1329752975,0.1329752975
mp-66,C,5.51701897,0.1339096375000004,0.1339096375000004
mp-31495,AgTe2Au,0.0,0.1341718999999996,0.2118333247916659
mp-2639,Na3N,0.0,0.1343754031550004,0.2640788624999994
mp-971901,ZnPb3,0.0,0.1347135637500005,0.1347135637500005
mp-1009217,MnSb,0.0,0.1349973274999998,0.1686962725
mp-118,P,4.515514,0.1350992598214281,0.1350992598214278
mp-12883,P,4.440197,0.1351623744047616,0.1351623744047616
mp-1008798,ReN2,0.0,0.1361492100800004,0.2304379880955558
mp-1008920,Mn2Ge,0.0,0.1366922383333353,0.2526907704166668
mp-10413,AgB(CN)4,6.004598,0.1372211643813344,0.4316446397860005
mp-2666,CrSb2,0.0,0.1385796016666667,0.1385796016666676
mp-1008278,Cr3Ni,0.0,0.1404185674999993,0.1482923199999994
mp-976830,Ni3Pb,0.0,0.1423554224999996,0.1423554224999996
mp-982778,Zn3Se,0.0,0.1430621378515626,0.49877209625
mp-137,Ge,0.6781100000000001,0.1442671033333334,0.1442671033333331
mp-974425,Re3Si,0.0,0.14540479375,0.2961530131250001
mp-128,Ge,0.0,0.1475177500000004,0.1475177500000004
mp-150,Fe,0.0,0.1482214099999996,0.1482214099999996
mp-961715,HfPtPb,0.19886099999999998,0.1499377616666658,0.9192980733333308
mp-981375,HfMg3,0.0,0.1514130187500004,0.1514130187500004
mp-976424,LiLa3,0.0,0.1538653075000002,0.1538653075000002
mp-984353,AsAu3,0.0,0.1540033587499998,0.1540033587499998
mp-1006883,CoNi,0.0,0.1552011000000002,0.1564969499999993
mp-973557,FeAu3,0.0,0.1577981375000003,0.1577981375000003
mp-168,Si,0.0,0.15859482875,0.15859482875
mp-558,YMn2,0.0,0.158827284166667,0.1588272841666658
mp-47,C,4.483277,0.1592270174999992,0.1592270174999992
mp-974023,In3Cu,0.0,0.15991636125,0.1649531089999993
mp-978885,SnTe3,0.0,0.1615926137500003,0.3043684050000004
mp-972868,SiAu3,0.0,0.1616005399999998,0.1616005399999998
mp-1008275,Cr3Ni,0.0,0.1631402499999996,0.1710140024999997
mp-415,IrN2,1.24504,0.1656251575799991,0.1656251575799974
mp-981310,Tl3Ge,0.0,0.1665542074999999,0.1665542074999999
mp-24416,MnH,0.0,0.1667886706900008,0.1667886706900008
mp-974372,Rh3Se,0.0,0.1680843228515618,0.3175628843750005
mp-1008776,SrC2,2.898717,0.1687176816666659,0.1687176816666679
mp-1010071,CrCo,0.0,0.1687831949999996,0.1724675791666658
mp-971631,GaP,0.0,0.1706549159523804,0.5790906900000001
mp-15798,MoC,0.0,0.1709502454166672,0.2484653210416674
mp-28793,Mg2C3,2.425525,0.1726428964999996,0.1726428964999993
mp-975321,LiSi3,0.0,0.1726553112499997,0.2715676540624994
mp-974270,Na3Al,0.0,0.1732117237499999,0.1732117237499999
mp-973963,NiH3,0.0,0.1741855810350006,0.2295290481900003
mp-1009131,MnAs,0.0,0.1744055875000008,0.4432224037500001
mp-977242,Hg3Sb,0.0,0.174572865,0.174572865
mp-10423,KAuC2,2.827124,0.1755728812499999,0.3359571352083339
mp-6958,TlSb,0.0,0.1756572850000002,0.1832589113095237
mp-10421,RbAuC2,3.035416,0.1781678637499988,0.3290794215624997
mp-10185,Mg3ZnC,0.0,0.1788959474999995,0.2231715876599999
mp-977997,ZnMo3,0.0,0.1795836037500002,0.1877800974999957
mp-984597,Au3S,0.0,0.1798232864843747,0.3990541375000003
mp-7755,Se,0.0,0.18038486140625,0.18038486140625
mp-100,Hf,0.0,0.1811112450000003,0.1811112450000003
mp-962060,NaYSi,0.7151660999999999,0.1812033741666662,0.7502363549999993
mp-978286,Mg3Mn,0.0,0.18136668,0.18136668
mp-1008755,SrB2,0.0,0.1818954622222222,0.532806651111108
mp-974635,Rb3Ca,0.0,0.18422723,0.18422723
mp-973199,Sb3Pb,0.0,0.18620636125,0.18620636125
mp-16365,SnSb,0.0,0.1873769600000004,0.1873769600000004
mp-984358,Au3O,0.0,0.1891551121875001,0.3835171212499997
mp-976762,NiAg3,0.0,0.1901076000000006,0.1901076000000006
mp-13035,MoN,0.0,0.1940766988100009,0.7423925693750011
mp-973229,ScNb,0.0,0.1940939850000003,0.1940939850000003
mp-976772,NiAg3,0.0,0.1955088700000007,0.1955088700000007
mp-11540,PtO,0.0,0.1978942643749999,0.9376312262499996
mp-7760,AlSn,0.0,0.1991956625000002,0.1991956625000002
mp-974974,RbMg,0.0,0.2006612183333334,0.2006612183333332
mp-34656,Cd(CN)2,7.597963,0.2009001650480001,0.2758193445000003
mp-976935,Ni3Hg,0.0,0.2010037950000001,0.2010037950000001
mp-27873,Ta2O,0.0,0.2032860554166665,1.7689273451666647
mp-10040,AlPt3C,0.0,0.2039946225000001,0.7632811364999998
mp-4077,Cd(CN)2,7.675549999999999,0.2068260470479998,0.2817452265
mp-675433,Mn2SbTe,0.0,0.2068307137500005,0.6893995462500007
mp-6912,Mn2Sb,0.0,0.2098611100000008,0.2323270733333329
mp-1009653,CaC2,2.92431634,0.2117306283333325,0.211730628333334
mp-1007776,TlP,0.0,0.2135352784523804,0.2307077322499995
mp-13076,IrN2,0.0,0.2146412217466687,0.2146412217466657
mp-2746,MoC,0.0,0.2243015962499992,0.3018166718750006
mp-19858,Sr,0.0,0.2248906483333333,0.2248906483333335
mp-985297,Ag3Rh,0.0,0.2287450200000003,0.2287450200000003
mp-1004524,HPbI3,0.0,0.2335697122759999,0.6615423262500002
mp-1008727,Ti2Ge,0.0,0.2340978905555554,0.8497240981481484
mp-35308,CuCN,4.22545393,0.23848751004,0.2384875100400005
mp-1009829,Be2Si,0.0,0.2392079900000006,0.2392079900000006
mp-148,Ge,0.0,0.2401346787500005,0.2401346787500005
mp-1009735,ReC,0.0,0.24044100375,0.265641331874999
mp-13141,HgTe,0.0,0.2419730649999998,0.4105715049999998
mp-1009128,MnN,0.0,0.243331598810002,0.7261204500000016
mp-13116,NiN,0.0,0.2451012788099999,0.2862265242066675
mp-6986,Ta,0.0,0.2456932700000003,0.2456932700000003
mp-977119,Li3Be,0.0,0.2471336000000001,0.2471336000000001
mp-978496,SiB4,0.0,0.2494505553333321,0.2820839538333333
mp-978525,Si3Mo,0.0,0.25086050125,0.6201603762499994
mp-975110,RbMg3,0.0,0.2514405175000001,0.2514405175000001
mp-10422,NaAuC2,0.0,0.2517897799999993,0.4138858466666661
mp-636297,HfNiSn,0.0,0.2519445600000007,0.8830875899999979
mp-973866,LuOs3,0.0,0.2526097000000007,0.5510229325000005
mp-1009753,ScGe,0.0,0.2542300874999999,1.0804430575
mp-977283,MgRe3,0.0,0.2571780112499997,0.2571780112499997
mp-1008523,BC2N,2.802094,0.2589255264883334,0.9949842149999988
mp-976774,NiGe3,0.0,0.2605634187500003,0.4128048743750004
mp-974458,Re3F,0.0,0.2630973822024991,0.9928675152083332
mp-984100,PPb3,0.0,0.2692203579761911,0.2692203579761911
mp-1008688,Ti2Sn,0.0,0.2716802438888877,0.6028428524999958
mp-5425,RbCuC2,3.189619,0.2743438024999998,0.2945645303125
mp-974906,MnSn3,0.0,0.2744001362500006,0.2744001362500006
mp-973599,Hg3As,0.0,0.2841174700000002,0.2841174700000002
mp-1008689,Ti2Si,0.0,0.2847918455555553,0.9662351464814822
mp-10685,CdCuSb,0.0,0.2884056000000002,0.3187539929166672
mp-11480,MnSnIr,0.0,0.2937028883333331,0.5089611475
mp-1009207,MnSb,0.0,0.2971151675000003,0.3308141125000006
mp-975524,InGe3,0.0,0.2980520912500006,0.2980520912500006
mp-1006884,CoMo,0.0,0.2990703149999998,0.3286256650000005
mp-640079,Mn3Au,0.0,0.3005126858333338,0.341062600833335
mp-109,Si,0.0,0.3019391562500004,0.3019391562500004
mp-555170,B12S,0.0,0.3049417689182689,0.4109788189636756
mp-983584,Al3Tl,0.0,0.3052820062499997,0.3052820062499997
mp-1009206,MnSn,0.0,0.3083628025000005,0.3083628025000005
mp-38994,NaAlSi4,0.0,0.3098611041666673,0.3583139158333353
mp-978287,Mg3Mo,0.0,0.3132934875000006,0.3132934875000006
mp-1007992,CrH,0.0,0.3147876006900008,0.36704911
mp-973948,LiHf,0.0,0.3159904175000001,0.3159904175000001
mp-1007819,CoW,0.0,0.3161935899999992,0.3696573774999994
mp-1008733,Ge,0.0,0.3192192150000004,0.3192192150000004
mp-10630,Sb,0.0,0.3246072950000003,0.3246072950000003
mp-1985,C3N4,4.841273,0.3248984532828579,0.3248984532828558
mp-13136,WC,0.0,0.3277882862499997,0.4507304449999996
mp-12093,Ge,0.0,0.3346003450000001,0.3346003450000001
mp-976017,Li3Co,0.0,0.335423435,0.335423435
mp-16220,Si,1.088601,0.3396075032352946,0.3396075032352943
mp-9519,AgCN,5.081627,0.3412521767066667,0.3412521767066687
mp-971820,ZnH,0.0,0.3465197081900002,0.3465197081900002
mp-10101,CsAgC2,3.536572999999999,0.3519197499999995,0.3805225224999997
mp-10102,KAgC2,3.46687639,0.3548836487499996,0.3771820515624995
mp-1007660,IrN,0.0,0.3556080088100017,0.3556080088100017
mp-982981,Na3Rh,0.0,0.3610900249999997,0.3610900249999997
mp-11312,V3Cd,0.0,0.3640837712499998,0.3640837712499998
mp-977165,Li3Co,0.0,0.3662776075000002,0.3662776075000002
mp-961650,AlVNi,0.0,0.37911948,0.8187360033333304
mp-977343,H3Pt,0.0,0.3802189685349999,0.3802189685349999
mp-16496,Al(CuRe)2,0.0,0.382298114000001,0.5412719420000007
mp-20097,Pt3PbC,0.0,0.3837468345000005,0.4798283544999995
mp-631502,CrNi2Hg,0.0,0.3846349274999996,0.4003824324999998
mp-978495,SiB,0.0,0.3855742966666664,0.4127687954166665
mp-976292,NaCu,0.0,0.3867063025000004,0.3867063025000004
mp-27943,W2N,0.0,0.3878090614288901,0.6483487672222203
mp-974365,RuAu3,0.0,0.3926822775000005,0.3926822775000005
mp-977229,Li3Cr,0.0,0.3953866625000004,0.3953866625000004
mp-974364,RuAu3,0.0,0.3960144987500005,0.3960144987500005
mp-23722,HCl,0.0,0.3976033840600002,1.27314523