mpid,formula,BG,FE,e_hull
mp-985584,Na3PS4,3.383014,-1.2092628874181557,0.0057225599999997
mp-10194,LuSbPt,0.068731,-1.2090083016666664,0.0
mp-975284,RbIrO3,0.0,-1.20837614075,0.0431565640000002
mp-541037,CsCuO,2.242284,-1.20836282375,0.0
mp-11919,Sr(BeN)2,2.960902,-1.2073860589519996,0.0
mp-20289,NaInS2,2.511748,-1.20677190328125,0.0
mp-984552,BeZnO3,0.0,-1.2063481487500003,0.758619992749999
mp-755463,Li3SbS3,2.6982019999999998,-1.2057906231696427,0.0380107971428573
mp-10240,ScNiP,0.0,-1.2056421118650793,0.0
mp-540703,Cs2S,2.956943,-1.2050029146875003,0.0
mp-549580,Sr2Cu3(IO2)2,0.0,-1.2046267831818185,0.3778198799999997
mp-18971,Mn(PtO2)3,1.073489,-1.203806431845999,0.0
mp-770662,CdCoO3,0.704232,-1.20185948775,0.0337586755000005
mp-776486,MnAgO3,0.0,-1.2011920059419992,0.0670356534999996
mp-36988,Ca(AlSe2)2,3.709917,-1.200838674196428,0.0
mp-31055,Sc3InN,0.0,-1.2000738124760004,0.0
mp-11917,Mg(BeN)2,5.381137,-1.1996054189519996,0.0
mp-547094,RuO4,3.648,-1.1995576149999991,0.0019946737500022
mp-27363,BaVSe3,0.0,-1.1985685731562503,0.0362530820000008
mp-6977,Be3N2,4.645455,-1.1958517049519997,0.0294369702500008
mp-559278,K2S,3.042709,-1.1947473955208336,0.0872361324999997
mp-18912,Na5NiSO2,2.302404,-1.1946691101736109,0.1383023260416687
mp-9225,ScSiPt,0.0,-1.1945382075000002,0.0
mp-707190,K2SnBr6,2.433472,-1.1936698583333332,0.0046300727777777
mp-32403,Ni(HO)2,4.322168,-1.1920266779479995,0.0
mp-7667,K2S3,2.341485999999999,-1.1911399154374998,0.0
mp-755378,NaPdO2,1.572135,-1.1906176268749995,0.0273829599375057
mp-16305,ScPRu,0.0,-1.1901930299206347,0.0
mp-554140,TlV3(CrS4)2,0.105117999999999,-1.1898287755357149,0.0122048592857124
mp-7446,Rb2S3,2.371074,-1.1890883584375005,0.0
mp-27138,K2PdBr4,2.5003409999999993,-1.187680111428571,0.0
mp-9250,RbLiSe,3.133701,-1.1864807628645837,0.0
mp-739,TiP,0.0,-1.1864285636309535,0.0
mp-23450,RbIO4,4.280814,-1.1863211574999994,0.0
mp-23562,KIO4,4.194434,-1.1851157708333322,0.0
mp-971634,NaNiO2,0.0,-1.1840583018750008,0.0342070374999998
mp-25489,Co(HO)2,0.0,-1.180180959947998,0.1863483754999961
mp-23794,H4NF,7.381098000000001,-1.1768536938416665,0.0
mp-2885,Ga(MoS2)4,1.0172080000000001,-1.1739730524999994,0.0383581828571433
mp-559694,Ga(MoS2)4,1.014317,-1.1739535924999995,0.0386271414835173
mp-767525,Li6SbS2,0.0,-1.1735869670138888,0.0558994868518514
mp-28603,NaLiSe,3.353298,-1.1726010953645838,0.0
mp-776081,K2O,3.069484,-1.1719644504166666,0.0880611433333329
mp-4678,Zr2AlN,0.0,-1.171814743095,0.022928426041668
mp-10026,ScTe,0.0,-1.1713319674999996,0.0
mp-19213,Ba2Mn2Sb2O,0.6577740000000001,-1.166816581167142,0.0
mp-27816,Ag3BO3,0.164923,-1.1647708900595242,0.0667043336160748
mp-2400,NaS,2.311316,-1.16472089703125,0.0
mp-767264,Li2Ni5O7,0.0,-1.1645623427678566,0.0160815919132648
mp-752670,Li3FeS3,0.0,-1.163698617455358,0.1636204264285714
mp-39091,Co2CuO4,0.493114999999999,-1.163635481428571,0.0726738383333378
mp-972187,ZrSiPt,0.0,-1.162853166666667,0.0
mp-409,NaS,1.951654,-1.1621919303645836,0.0025289666666683
mp-1013548,Ca3SbN,1.304228999999999,-1.1619392574759992,0.0
mp-546568,TaNO,0.0,-1.161761744543333,1.1235421533333287
mp-28222,Rb3Sb2Br9,2.317967,-1.1612667949999995,0.0
mp-925,VN,0.0,-1.1606510411899986,0.1911263299999994
mp-971733,ZnGaO3,0.0,-1.16040651375,0.7305495568749985
mp-28748,Y3IrI3,0.0,-1.1575114589285715,0.0
mp-560882,SeO2,4.768394000000001,-1.156958470364583,0.0102402770833336
mp-756188,LiCu3O4,0.0,-1.1568231393749997,0.0479901675
mp-6628,CsCd(NO2)3,4.086197999999999,-1.1564327799672731,0.0392194076393535
mp-753670,CaPbI4,3.486952999999999,-1.1552690366666667,0.0
mp-7223,Ca3AsN,1.500392999999999,-1.1549291074760006,0.0059797979999993
mp-754540,CaPbI4,3.602496999999999,-1.1542701816666667,0.0009988550000001
mp-30965,NaClO2,2.430214,-1.1533714301900009,0.21409693875
mp-18772,Na4Mo(NO)2,3.300054,-1.1524283319177782,0.0615314779629656
mp-545343,LiIO3,0.0,-1.1514336267499998,0.2478235539999964
mp-34146,Co2CuO4,0.0,-1.1505654978571442,0.0857438219047646
mp-755060,Cs2O,1.232195,-1.1497278070833332,0.0707425466666653
mp-613402,SrZrO3,0.0,-1.1491883747500005,2.530374468999998
mp-11016,RbCd(NO2)3,4.082705,-1.149033825421818,0.0385493343060199
mp-1008557,AlBN2,4.396718,-1.148843300356666,0.3845308387500008
mp-776922,Rb2O,0.949417,-1.1472799126388888,0.0026398644444411
mp-1394,Rb2O,2.395705,-1.146896240416666,0.0030235366666668
mp-27179,CsCrBr3,0.0,-1.143750386,0.0592432706666681
mp-1682,ZrAs,0.0,-1.14294152,0.0
mp-771994,FeCo5O12,0.0,-1.1418787786111106,0.0682242307986102
mp-27243,K2PtBr4,2.80679,-1.1417079857142851,0.0058876835714292
mp-10695,ZnS,3.077719,-1.14030335453125,0.0
mp-753833,Li2CrS4,0.0,-1.1400552523214296,0.0396043538775492
mp-771725,LiNi3O4,0.0,-1.139774914375001,0.0079727274107135
mp-11017,KCd(NO2)3,4.054056,-1.1395263072400004,0.0577773820585472
mp-10281,ZnS,3.097265,-1.13891498828125,0.00138836625
mp-771742,Co3BiO8,0.280932,-1.138158387916666,0.0850666043402768
mp-555763,ZnS,3.085365,-1.1377861378645833,0.0025172166666669
mp-28339,CaPPt,0.190309999999999,-1.1362223135317453,0.0
mp-754010,ZnCu2O3,1.257698,-1.1360652422916668,0.0986182600000029
mp-703272,K5NO4,0.0,-1.135771608738,0.192011911499998
mp-770150,TlCoO3,0.0,-1.1350802497500012,0.0906481353750017
mp-9705,Ba4Na(BN2)3,3.019282,-1.1339649113771435,0.0
mp-755459,Rb2O,1.355127999999999,-1.1317455570833328,0.018174219999997
mp-15567,Na3AuS2,3.3313800000000002,-1.1308816346875,0.0
mp-771554,FeCo3O8,0.0,-1.1305043616666666,0.1157687741145832
mp-755573,Cs2O,2.772863,-1.1302432912500002,0.0902270624999985
mp-769761,Mn(Cu3O4)2,0.0,-1.1292527120639988,0.0
mp-766736,LiNi7O7F,2.941996999999999,-1.1277168259337502,0.0495778306249992
mp-867680,NaTlO,0.556368,-1.1276743470833337,0.054174281666667
mp-3933,Mg2PN3,4.932976,-1.1273975017058715,0.0
mp-19125,Na4W(NO)2,3.054337,-1.127325393028889,0.1559125729629622
mp-753848,Li(CuO)3,0.0,-1.1245252633928564,0.0374914703571418
mp-13580,LuGePt,0.0,-1.1220178224999997,0.0
mp-28835,LiScI3,0.0,-1.121340566,0.0478355430400001
mp-754171,CsRbO,2.373129999999999,-1.11962888875,0.0655661766666666
mp-755738,Rb2O,2.825685,-1.118080532083333,0.0318392449999969
mp-974511,ReSbO3,0.0,-1.1148432947499998,0.6383066305000025
mp-12927,Ba(BeN)2,2.230347,-1.1148292019519992,0.0
mp-556767,ClF3,4.6189350000000005,-1.1136085004575005,0.0071887012499995
mp-1008556,AlGaN2,3.854211,-1.1131028136899994,0.0155132500000005
mp-34293,CsTaN2,3.3145160000000002,-1.11149346869,0.0
mp-755480,KRbO,2.414682,-1.1111063637499996,0.0938663216666664
mp-10456,HfSiPt,0.0,-1.1100613524999996,0.0
mp-23229,FeCl2,1.501238,-1.1095534821733335,0.0
mp-34326,Li6Br3N,3.265457999999999,-1.1093509102379997,0.026933253000001
mp-778408,HgBiO3,0.0,-1.1082261127500004,0.0345750935000008
mp-18817,NiSeO4,3.46852,-1.1066925672656247,0.0
mp-755056,CaPbI4,3.387629,-1.1047805833333328,0.0504884533333336
mp-7394,BaAg2GeS4,1.560398999999999,-1.1038296614062508,0.0
mp-28595,KNaSe,2.884566999999999,-1.10360698953125,0.0
mp-34467,Zn(GaS2)2,2.779915,-1.1009680116071432,0.0084893771428546
mp-19442,Mn(Ni3O4)2,2.38793,-1.1005774313973329,0.0022329038494568
mp-25385,Li(CuO2)2,0.0,-1.0979192664285709,0.0352582599107131
mp-11733,Lu3InN,0.0,-1.0967708764759991,0.0
mp-733610,H7C3N3O5,6.658380999999999,-1.0962635003461108,0.025382355162038
mp-5475,NaTaN2,2.32722208,-1.0962113549399994,0.0009788825000001
mp-866833,CaSnS3,0.397769999999999,-1.0962026254375004,0.3890238397500001
mp-555166,BaAg2SnS4,1.245641,-1.0960012664062502,0.0
mp-756095,NaCu3O4,0.0,-1.0945766137499993,0.0630288337500166
mp-546449,BaCu3O4,0.5175529999999999,-1.0937800543749994,0.3844905754166694
mp-755470,Li2BiS2,0.0,-1.0933610006250007,0.0930126449999981
mp-755032,Cu3(TeO5)2,1.304459,-1.0932087174999991,0.0414120275000104
mp-2674,YPt2,0.0,-1.092397810833333,0.0
mp-12908,ScAgSe2,1.8785939999999999,-1.0919243842968749,0.0
mp-754085,Li2BiS2,0.0,-1.0913729666250007,0.0950006789999982
mp-364,AlRh,0.0,-1.0904238350000002,0.0
mp-25475,CoH4(BrO)2,3.563417,-1.0896978507755553,0.0
mp-20285,NaPt3O4,0.0,-1.0876233962499997,0.0
mp-755127,Ag2GeO4,0.260496,-1.0872102628571425,0.0700408871428583
mp-11824,Ca3PN,1.651241,-1.0865476460950485,0.0
mp-1345,CaP,1.049883,-1.0849564973809531,0.0
mp-3827,KFeS2,0.0,-1.0834146482812503,0.0
mp-556953,RbPS3,2.905803,-1.0827074320565473,0.0
mp-981379,Zn3CdS4,2.67633,-1.08237854828125,0.0159460749999995
mp-13161,ZnO,0.256007,-1.0815850131250002,0.7156843024999988
mp-16731,YP,0.0,-1.0812829752976194,0.55056102
mp-1627,Mo2S3,0.0,-1.0809287164374992,0.0944649394999999
mp-13250,LaSnPt,0.0,-1.0805650916666658,0.0
mp-7580,Hg3(SF)2,2.997382,-1.080433147929286,0.0
mp-28873,CsBrO3,5.525572,-1.0804101567500006,0.0
mp-984554,BPbO3,0.0,-1.0803523400833337,1.0780930242142777
mp-4495,KLiTe,3.350095,-1.080098206666667,0.0
mp-1049,SrAs,0.5921449999999999,-1.0798380658333333,0.0
mp-15963,HfPRu,0.0,-1.0797091915873014,0.0
mp-555108,PH9C(NO)4,6.41447627,-1.0794183227734335,0.0606204461853208
mp-4500,ZrNbP,0.0,-1.079165891031747,0.0
mp-912,LaPt2,0.0,-1.078844116666667,0.0
mp-8670,Ca3CrN3,0.0,-1.0786525474485709,0.0
mp-4124,CaCN2,4.78863889,-1.0784453705650003,0.0
mp-888,CaAs,0.0,-1.0782612699999998,0.0
mp-4628,ZrSiSe,0.0,-1.0776481928645842,0.0
mp-10054,ZrAs,0.0,-1.0759390575000003,0.0670024624999996
mp-4338,Cr2CdS4,1.918226,-1.0750822101785715,0.0
mp-27508,Li6Br3N,3.142736,-1.0719123462379998,0.0643718170000009
mp-12981,ScN,0.0,-1.0706925061899994,1.032548585000001
mp-1266,Na2Se,2.843257,-1.0706727495312502,0.0
mp-13472,HfSiRh,0.0,-1.0704119241666656,0.0
mp-7583,SiS2,3.985316,-1.0692739527083344,0.0517184216666661
mp-23360,Zn(IO3)2,4.520074,-1.0691076863888886,0.0
mp-24338,Sr5As3H,1.228764,-1.0678866831800002,0.0
mp-16732,YAs,0.0,-1.06727517875,0.486676975
mp-28872,RbBrO3,5.36616,-1.067115222750001,0.0
mp-9481,TcS2,1.824643,-1.065757444375001,0.0
mp-975394,RbBeO3,0.0,-1.0653835217500005,0.7609492979999999
mp-4409,Cu(RhO2)2,0.0,-1.064402825714286,0.0208483499999996
mp-768229,Li2BiS3,1.220822,-1.062828605364584,0.0682431366666662
mp-752881,Li2CuS2,0.1511,-1.062790657625,0.0856195936666672
mp-23205,MgI2,4.77486231,-1.0627223533333332,0.0
mp-555569,Cr2S3,0.20236700000000002,-1.0623007024375,0.0350993500000003
mp-14448,Ba2SiTe4,1.9001579999999991,-1.0615143842857135,0.0
mp-15698,Sr5As3,0.0,-1.0603552150000004,0.0
mp-977100,NiMoO3,0.0,-1.0603541387500002,0.6147563752499979
mp-11327,Rb2Se,2.5812548300000002,-1.0598238028645834,0.0
mp-541823,TlCr5S8,1.4560600000000001,-1.0595670441071436,0.0
mp-3896,Y(SiIr)2,0.0,-1.0586000695000009,0.023611194999999
mp-1145,TiB2,0.0,-1.0577434066666669,0.0
mp-19728,YSiRh,0.0,-1.0576300400000005,0.0
mp-984356,CsIrO3,0.0,-1.0567116927500002,0.2119173188333318
mp-23204,FeCl3,0.0,-1.054744688695,0.0955035466666665
mp-754086,Li2CuS2,0.398239,-1.0546915596250015,0.0937186916666652
mp-33526,LiBiS2,1.132724,-1.0538800120312506,0.0
mp-721442,PH5(NO2)2,1.154747089999999,-1.0533697463296032,0.4203168284161079
mp-557136,Cu3Se2(ClO3)2,0.22034399999999998,-1.0532998393236537,0.00233668384615
mp-1011709,Cs2Se,2.5670319999999998,-1.0531261603645836,0.020465549166666
mp-975644,BeF2,0.8682679999999999,-1.0530700991266668,2.5171870286111107
mp-754978,CdCu2O3,0.940257,-1.0521933064583342,0.0442008483333422
mp-1580,NbN,0.0,-1.05102087619,0.2022303250000004
mp-481,ScPt3,0.0,-1.0509071199999998,0.0
mp-1683,ZrSe3,1.11253,-1.0508944814453134,0.0
mp-15799,NbN,0.0,-1.05044900619,0.2028021950000003
mp-1129,ScIr,0.0,-1.0498684899999997,0.0
mp-1009014,LiCuO,0.559982,-1.0498011204166655,0.3903837975000002
mp-559633,Cu6PbO8,0.8388749999999999,-1.0487050719999995,0.0
mp-971704,ZnBO3,0.0,-1.0480015910833338,1.1266985468750024
mp-36577,Sr(AsS2)2,2.438122,-1.0473043937500013,0.0379891860714289
mp-10904,AlPt,0.0,-1.0466967362499997,0.0
mp-2530,Li2Te,3.447886,-1.0441659466666666,0.0
mp-11175,LiZnPS4,3.8634180000000002,-1.0409086056207484,0.0
mp-775774,AgBiO3,0.0,-1.040698218750001,0.0253295520000014
mp-10177,LaSb,0.0,-1.0400002925000005,0.224102395
mp-35320,Ag3(AsO4)2,1.325259,-1.0398752353846146,0.0186922186538405
mp-11193,VAuS2,0.258892,-1.0387398482812502,0.0
mp-20147,ZrMnP,0.0,-1.038576446865078,0.0
mp-251,TaN,0.0,-1.0378946311899997,0.3267681683333343
mp-7548,BaSe3,1.910985999999999,-1.0374887664453132,0.0042250053515617
mp-676144,Ti(CrS2)2,0.0,-1.0368218718452389,0.2619081085714265
mp-645300,Rb4CO4,0.150172,-1.036359923611111,0.7474726533333333
mp-1780,ScRh,0.0,-1.0361610849999998,0.0
mp-558762,KSnS2,0.0,-1.035719908281251,0.0354814229687496
mp-961675,ScNiP,0.8656469999999999,-1.0354076126984129,0.1702344991666668
mp-23411,K2TeBr6,2.5916,-1.0346625055555556,0.0125282899999996
mp-4878,ZrGeSe,0.0,-1.0345402178645835,0.0
mp-12324,CsVP2S7,1.31302,-1.0342665958752706,0.0
mp-972793,Si2B2O5,0.0,-1.0304104155092595,1.707446126296296
mp-10152,La(SiIr)2,0.0,-1.0295312190000003,0.0116133210000004
mp-27462,AlPS4,3.793061,-1.0288525565575397,0.0054478291666661
mp-1747,K2Te,2.8434718,-1.0273176833333333,0.0
mp-10634,CuF,0.5377759999999999,-1.026803228095,0.3344153212500003
mp-973738,GeBO3,0.0,-1.0260733790833334,1.3228432724166668
mp-3787,RbFe2S3,0.0,-1.0251866953645845,0.0
mp-770908,CoO2,0.854827,-1.0245405958333318,0.1132221608333319
mp-1994,HfB2,0.0,-1.0237569694444442,0.0
mp-754326,NaAgO2,1.997461,-1.0235357118749997,0.0
mp-14763,Ca3MnN3,1.425616,-1.022902228877142,0.0
mp-10675,Ti3AlN,0.0,-1.0203514784759988,0.0171457006666599
mp-973750,LuTe2,0.0,-1.0200867883333338,0.0
mp-977011,H3PbCI3NF3,2.327604,-1.0196944661925011,0.1614774822222235
mp-23548,AgBiO3,0.0,-1.01938118275,0.0466465880000015
mp-27682,NaSnS2,0.0,-1.0190951045312504,0.0436132538749998
mp-10739,TiPRu,0.0,-1.018513428809524,0.0
mp-7562,TaTl3S4,3.105277,-1.01844557140625,0.0
mp-15622,HfSe3,1.028354,-1.0160437351953124,0.0
mp-961711,ZrSiPt,1.70344443,-1.0147541666666673,0.1480990000000002
mp-8786,Zr2NiAs2,0.0,-1.0131241599999996,0.0
mp-14226,Ba2YSbO6,0.0,-1.0118719155000009,2.083966985000001
mp-555066,Mo6PbS8,0.0,-1.0117839135000006,0.033010447333333
mp-10628,TaS,0.0,-1.0093778270312503,0.2108876155859409
mp-504858,CoCu2O3,1.131323,-1.0091878631250009,0.0853667824999995
mp-19740,YInPt,0.0,-1.0088750363888888,0.0
mp-504594,ZrBr,0.0,-1.0081766175000002,0.0
mp-8755,KNaTe,2.855472,-1.00756462,0.0
mp-10045,Ba5As3,0.0,-1.007483436875,0.0084021372596159
mp-27683,LiSnS2,0.0,-1.0069770307812504,0.0803410056249998
mp-755796,Li2FeS2,1.2027700000000001,-1.0066616466250005,0.2678756680000012
mp-33738,TiNiO6,0.0,-1.0065915467708333,0.5527879792708337
mp-28747,Y3RuI3,0.0,-1.0061915453571433,0.0
mp-18198,ScSnPt,0.0,-1.0051891461111115,0.0
mp-441,Rb2Te,2.51956785,-1.0051482266666667,0.0
mp-752928,LiCoS2,0.0,-1.00431851453125,0.0818649378124964
mp-866816,CaSnS3,0.0,-1.0035314334375005,0.4816950317500002
mp-554109,CuSeO4,1.467023999999999,-1.0018347322656254,0.016085853749999
mp-25201,Bi(PdO2)2,0.0,-1.001650484999999,0.0987241807142878
mp-13962,HfSiSe,0.0,-1.0013008028645831,0.0
mp-2585,Sr5Sb3,0.0,-0.9996715093750002,0.0
mp-8754,NaLiTe,3.248249,-0.9990900850000004,0.0
mp-14435,K3GeSe3,2.603744,-0.9980542693973214,0.0
mp-10905,Al3Pt2,0.0,-0.9965887100000004,0.0
mp-971914,SrSiPt,0.0,-0.9963959883333332,0.0
mp-1529,LuIr,0.0,-0.9950699749999988,0.0
mp-12906,Sr3CrN3,0.0,-0.994141731734284,0.0
mp-560558,CsCdAuS2,3.121824,-0.994065715625,0.0006173320000004
mp-1009836,ZrN,0.0,-0.9925542061900005,0.8776843200000002
mp-27641,CsBr3,3.277465,-0.9923160962499996,0.0
mp-2030,RuS2,1.643238,-0.9921361610416662,0.0
mp-1472,ZrB2,0.0,-0.9918410144444442,0.0
mp-18939,LiCo(CO)4,5.368479,-0.9913932224999996,0.3955496038333326
mp-3555,LaSiIr,0.0,-0.9869606166666678,0.0
mp-973882,Lu2PdRh,0.0,-0.9867392049999992,0.0154751675000008
mp-1397,Rb2Te,2.500753,-0.9860083683333336,0.0191398583333302
mp-15571,K3AuSe2,2.929622,-0.9855855970312504,0.0
mp-9010,RbAuS,2.904912,-0.9855533163541672,0.0
mp-2403,YPt3,0.0,-0.9848951706249992,0.0
mp-28270,KCuS,2.99704,-0.9841718238541663,0.0
mp-985304,Cr(GaS2)2,0.0,-0.9833561194642868,0.067261635357144
mp-559200,Cd(InS2)2,1.739959,-0.9828751708928573,0.0
mp-13276,SrLiP,2.115859,-0.9818813243650796,0.0
mp-3824,Ta9(NiS3)2,0.0,-0.9816111808455884,0.0
mp-554769,MoSBr,1.73995,-0.9808282105208336,0.0159086763888884
mp-767409,Li5SbS,1.528533,-0.9805226141517862,0.0503398799999996
mp-10796,HgSeO4,2.150628,-0.980203788098958,0.0
mp-10300,ZrMoP,0.0,-0.9800327638095232,0.0
mp-11550,Sc2Pt,0.0,-0.9799444933333336,0.0
mp-12923,SrPIr,0.0,-0.9779364151984128,0.0
mp-866894,CaSnS3,0.0,-0.9761110994375002,0.5091153657500005
mp-867928,ScGaRh2,0.0,-0.9746178875,0.0
mp-6685,Cr4FeCuS8,0.52027,-0.973056484464285,0.0445909971428557
mp-4478,CaSiPt,0.0,-0.9728271583333332,0.0
mp-769882,Co(NiO2)2,0.138816,-0.9720658514285716,0.0543905510714273
mp-24230,HCNO,6.401955,-0.9694501657708336,0.0
mp-560806,Zn2In2S5,0.38321299999999997,-0.9680956967013894,0.0687750531944448
mp-9743,SrAsPd,0.0,-0.967821965,0.0
mp-12105,RbO2,0.0,-0.9671206741666664,0.0
mp-23282,ZrI3,0.0,-0.9662974049999996,0.0021397525000059
mp-8926,Li3BN2,4.649531,-0.966129124404444,0.0030749533333329
mp-1523,ZrP2,0.0,-0.9660267095634936,0.0
mp-655353,Ru(CO)4,2.864703,-0.9658537405555576,0.2232795888888858
mp-7032,HfMoP,0.0,-0.9658374421428592,0.0
mp-961684,LiCaAs,2.48497089,-0.9655213216666668,0.0875809741666664
mp-1009016,LuAs,0.0,-0.9651001874999992,0.5022278150000004
mp-10776,K2Sn(AsS3)2,1.69122,-0.9641156299431825,0.0
mp-543024,Cs2Pd(IBr2)2,1.411727,-0.9629632855555555,0.0
mp-974842,KPtO3,0.0,-0.9621030367500004,0.1245447828333326
mp-774736,LiCuS,3.014453,-0.9604683971874994,0.0009006560416668
mp-10457,HfSiPd,0.0,-0.9581224241666664,0.0
mp-8982,CaSiPt,0.0,-0.9580703550000004,0.0147568033333334
mp-11580,TiCrP,0.0,-0.9570645982539692,0.0
mp-9479,Mg(AlSe2)2,1.896588,-0.956965354910714,0.0027079171428576
mp-756784,LiSbS2,0.0,-0.9545198782812504,0.0515620337499997
mp-10748,TaCu3S4,2.953567999999999,-0.9528531245312504,0.0
mp-704645,CuO,1.000896,-0.9521147756249996,0.00127582
mp-11018,TlCd(NO2)3,3.825498999999999,-0.95145930314909,0.0464336873994541
mp-1158,LuPd3,0.0,-0.9507528625,0.0
mp-36582,NaHS,4.271255699999999,-0.9506692958941668,0.0019043500000002
mp-560262,Zn(InS2)2,0.735754999999999,-0.9505294030357144,0.056789174107144
mp-36254,Cs2TaS6,0.0,-0.9493335971527792,0.4029454732592575
mp-2818,YbAu,0.0,-0.9492277850000002,0.0059239449999997
mp-754727,LiNiS2,0.0,-0.9492231420312502,0.0914565582812505
mp-383,Rb2Te,2.16087,-0.9485307366666664,0.0566174899999998
mp-1522,FeS2,2.023654,-0.9484051510416668,0.0
mp-10999,LuGeIr,0.0,-0.947878164166666,0.0
mp-1013555,Sr3AsN,1.137393,-0.9469498254759998,0.0
mp-13098,YN,0.0,-0.9465897324399996,0.9353190950000004
mp-1885,AlIr,0.0,-0.9463162250000005,0.0
mp-27684,Tl4O3,1.707309,-0.9460955083928576,0.0
mp-9268,KSe,1.6267390000000002,-0.945093333463542,0.0
mp-10485,BaLiSb,1.450463,-0.9440868933333328,0.0
mp-1008624,YBiPd,0.09860657,-0.9426426558333332,0.0
mp-10903,AlPt,0.0,-0.9423203549999996,0.1043763812499998
mp-10616,BaLiAs,1.200940699999999,-0.9422293350000004,0.0
mp-12510,LaSnPd,0.0,-0.9415079405555562,0.0
mp-5513,Tl3VS4,2.824222,-0.9411170801562508,0.0
mp-555874,LiAsS2,2.102044,-0.941049547031251,0.0
mp-753605,LiCuS,2.233793,-0.9407543996874996,0.0206146535416671
mp-1285,PtO2,1.8873300000000002,-0.9402169974999998,0.0
mp-3762,VCu3S4,1.983551,-0.93962450453125,0.0018024350000001
mp-753826,LiCuS,2.472768,-0.9393398838541666,0.0220291693750001
mp-15973,Cr2HgS4,0.923856,-0.9392315758928576,0.0
mp-16264,LiCaSb,1.494181,-0.9380098624999996,0.0
mp-1007786,HfIr,0.0,-0.9379158450000008,0.0
mp-7544,ZrSiRu,0.0,-0.9373906883333328,0.0
mp-2784,Na2Te,2.82401495,-0.9366701333333332,0.0
mp-8983,CaSiPt,0.0,-0.9365924825,0.0362346758333336
mp-549,ScSb,0.0,-0.9360072524999996,0.0
mp-23680,H(CO)2,4.316041,-0.9355833257240008,0.284331719749983
mp-9744,BaAsPd,0.0,-0.9350311483333336,0.0
mp-16728,ScP,0.0,-0.9350171190476192,0.5577042699999994
mp-9063,RbSe,1.820511,-0.9348365584635416,0.0
mp-617,PtO2,3.06873786,-0.9343556508333322,0.0058613466666681
mp-893,ZrSi,0.0,-0.9340925550000004,0.0
mp-38177,Rb2ZnI3,0.6467120000000001,-0.9340900383333334,0.2420985454166664