mpid,formula,BG,FE,e_hull
mp-771266,Li24Ti5Cr7O36,1.207199999999999,-2.5519892927546297,0.0149110691666827
mp-770867,Li2VBO4,1.8957,-2.5519166333333336,0.0678736334374994
mp-1007694,SnPO4F,2.6443,-2.551881854540748,0.0
mp-771358,Li24Ti5Cr7O36,1.225899999999999,-2.5518334806712963,0.015066881250016
mp-771305,Li24Ti5Cr7O36,1.2212,-2.551821844837963,0.0150785170833493
mp-19114,Ca2NiWO6,3.2941,-2.551806165250001,0.0
mp-763847,RbLiMnP3HO10,3.355499999999999,-2.551739725374454,0.0185521976225491
mp-673023,LiBi(PO3)4,4.816899999999999,-2.5517113452711646,0.0315370987500127
mp-673071,Li2SnP2O7,3.7003,-2.551705649578373,0.0365216916666604
mp-19017,LiFePO4,3.922399999999999,-2.5515769497278917,0.0
mp-861551,LiFeSiO4,2.6311,-2.5515597467857143,0.0704574067857075
mp-762631,LiFeSiO4,2.6321,-2.551547692142857,0.0704694614285639
mp-27421,RbBiF6,2.6172,-2.5514650615175003,0.0
mp-771273,Li24Ti5Cr7O36,1.2211,-2.5514473841435183,0.015452977777782
mp-771365,Li24Ti5Cr7O36,1.175799999999999,-2.5513519188657403,0.0155484430555725
mp-771301,Li24Ti5Cr7O36,1.190599999999999,-2.5513468127546286,0.0155535491666842
mp-540392,LiCrPO4,2.668999999999999,-2.5513101961564617,0.0330627484523837
mp-684506,LiBi(PO3)4,4.6455,-2.5512730290211643,0.0319754150000131
mp-775967,Mn3NbCr2(PO4)6,0.0,-2.5512713383736507,0.0941870257638779
mp-998601,KCaCl3,4.7456,-2.551248597956,0.0415118859999998
mp-766734,LiMnPO4,3.2264,-2.551183510936464,0.098974716071428
mp-771302,Li24Ti5Cr7O36,1.1976,-2.5510711923379623,0.0158291695833501
mp-684497,LiBi(PO3)4,4.6449,-2.5509142126322755,0.0323342313889014
mp-762655,LiFeSiO4,2.292399999999999,-2.550900574642857,0.0711165789285646
mp-677028,RbBiF3,1.3584,-2.5506835657140003,0.1035373846666658
mp-770624,Li2CoPO4F,2.9606,-2.5506672399205823,0.0495797640277695
mp-640040,Mn4Nb2O9,1.8273000000000001,-2.5506110620060003,0.0
mp-5699,K2CuF4,0.0,-2.550594502108571,0.0050286885714285
mp-771092,Li6Mn3Cr(PO4)6,0.6678000000000001,-2.5505180095362854,0.0558285677812584
mp-31756,Ba2FeReO6,0.0,-2.5504822082500014,0.0
mp-17918,Ba2SnS3F2,2.3078,-2.550454423383438,0.0
mp-554959,K2Al2Sb2O7,3.499,-2.5504331952884622,0.0
mp-504727,EuBrO,0.0,-2.5503583854166667,0.0
mp-768154,Na3MgPCO7,4.5243,-2.5503276599496334,0.0
mp-559484,Ba11(OsO6)4,0.0,-2.550312696025641,0.0
mp-763528,LiV4(PO4)3,2.119199999999999,-2.550250322964286,0.0524522009342174
mp-26209,LiBiP2O7,4.150399999999999,-2.550218251358226,0.010670485530305
mp-778711,Fe4OF7,0.809399999999999,-2.5501676462150003,0.07337873333333
mp-676861,AlSbO4,1.6006999999999991,-2.5501275333333324,0.0
mp-780075,Hf2N2O,1.9925000000000002,-2.549997819702,0.0
mp-773545,Li4Ti3Mn5O16,0.2923,-2.5497884423142847,0.0403141199212679
mp-762657,LiFe(PO3)3,3.7531,-2.5497045653954085,0.0515703905357183
mp-505787,Ba3FeO5,0.0,-2.549690468194445,0.0029248677777777
mp-771277,Li24Ti5Cr7O36,1.171799999999999,-2.5495150501157404,0.0173853118055715
mp-766175,RbInBP2HO9,4.0389,-2.54945345818181,0.0
mp-762632,LiFeSiO4,3.0239,-2.5494265300000003,0.0725906235714219
mp-756401,TaAsO4,2.8279,-2.549357596666667,0.0914623762499964
mp-25556,Ca2MnP2(H2O5)2,4.1295,-2.54932005442792,0.001753716666669
mp-6525,NaSn2(PO4)3,3.3552,-2.5492759385714288,0.0
mp-775784,Hf2N2O,2.091,-2.549239454452,0.0007583652499949
mp-8959,CsK2PdF5,1.866099999999999,-2.5492062573277767,0.0
mp-540530,Li2Co(PO3)4,2.8594999999999993,-2.5491836767042613,0.028946429649129
mp-762626,LiFe(PO3)3,3.5443000000000002,-2.5491108768239803,0.0521640791071487
mp-8294,Cs2Li2TiO4,3.955399999999999,-2.549101285185185,0.0
mp-582080,Cs3LaCl6,4.5827,-2.549060480956,0.0
mp-761841,Li2SnP2O7,3.466,-2.549009864161706,0.0392174770833273
mp-38951,Mg(GaO2)2,2.434899999999999,-2.5489726414285707,0.0
mp-704703,Na6U2Mo4O21,2.0982,-2.548944757462121,0.0023172850000028
mp-779974,Hf2N2O,2.1572,-2.5489353657020004,0.0010624539999941
mp-779739,Hf2N2O,2.1027,-2.548857175952,0.001140643749995
mp-765840,Li4V3Co(PO4)4,0.6162999999999991,-2.548825949013606,0.074787386297614
mp-25488,Li2CoPO4F,2.8292,-2.5486925788094705,0.0515544251388808
mp-972931,EuMgO3,0.0,-2.54863672575,0.2385703418750005
mp-770502,Li6Cr3Co(PO4)6,1.6342,-2.5486271244642857,0.0627317393750539
mp-772430,Li2AlFeO4,2.1542,-2.548590451875,0.0378664478125001
mp-779837,Hf2N2O,2.0789,-2.5485033597020017,0.0014944599999928
mp-868139,Li4Mn2Nb3Cr3O16,0.10729999999999901,-2.54847053364,0.09162308343749
mp-779987,Fe3OF5,1.5144,-2.5484579174666657,0.0369926361111163
mp-763550,Li3P2WO8,3.9891,-2.548309675977891,0.0600442388392803
mp-773449,Fe4OF7,0.7885999999999991,-2.5482969732983336,0.0752494062499966
mp-768034,V4P2O13,1.4524000000000001,-2.5482718943389724,0.0190479573684019
mp-8837,Ba3Er2Cu2PtO10,0.3004,-2.5482598779166667,0.0116102501157442
mp-549970,Ba2ZnReO6,0.0,-2.5481903277499995,0.0171276272500007
mp-763358,Fe4OF7,0.8345,-2.548046482881668,0.0754998966666633
mp-540427,V(PO3)4,1.5689,-2.548041250728291,0.0181935432352933
mp-780496,Fe3OF5,1.4064,-2.547912306355556,0.0375382472222272
mp-778563,Mn3(OF2)2,0.0,-2.547880891126666,0.0471963347222246
mp-558977,LaErS3,0.8793999999999991,-2.547867284604168,0.0
mp-764064,Mn3(OF2)2,0.0,-2.547703266126666,0.0473739597222246
mp-686038,Y(PO3)3,0.8271000000000001,-2.54764586831044,0.4871405925000039
mp-779973,Hf2N2O,2.080699999999999,-2.547613423202,0.0023843964999947
mp-865197,Li3V3P8O29,1.2196,-2.547529013744464,0.0396251902616313
mp-763989,Mn3(OF2)2,0.0,-2.5474328094599996,0.0476444163888905
mp-776225,Hf2N2O,1.9416,-2.5474097292019997,0.0025880904999961
mp-776628,Li4TiV5O12,0.24669999999999903,-2.5473785641666664,0.1031352720454492
mp-771353,Li24Ti5Cr7O36,0.0,-2.5473768815046296,0.0195234804166828
mp-772590,Li6V2B4SO16,1.9200000000000002,-2.547311565714798,0.0836315713792901
mp-773712,Li2TiCr3O8,0.034100000000000005,-2.547305561190477,0.0372354616269827
mp-675093,Hf2N2O,2.086799999999999,-2.547241632952,0.0027561867499947
mp-20841,Ba2CaIrO6,0.0,-2.5472368287500005,0.0
mp-27405,SnAsF7,3.3358,-2.547138972221852,0.0780252425925933
mp-556841,LaTmS3,0.8731,-2.547098366270834,0.0
mp-756361,ZrSeO,1.9570999999999992,-2.5469619557812506,0.0362469150000031
mp-540363,VP2O7,1.199899999999999,-2.546929327494047,0.0951315799999985
mp-775786,Hf2N2O,2.029000000000001,-2.5468334402020005,0.003164379499994
mp-780883,Mn3(OF2)2,0.11080000000000001,-2.5468263850155552,0.0482508408333357
mp-850223,Fe3OF5,1.253699999999999,-2.546813204688889,0.0386373488888933
mp-768273,Gd3As5O12,2.386,-2.5467123580000006,0.0
mp-540068,LiMnP2O7,0.0,-2.546698358490952,0.0456699502272739
mp-770962,VFe(PO4)2,0.0,-2.5466002269047627,0.0206196234027871
mp-771609,LiTiV3O10,1.7757999999999992,-2.5465933266111107,0.0701274350000265
mp-759624,Li3Bi(PO4)2,3.9119,-2.5465584036564626,0.075791475714289
mp-558949,K2MoP2O9,3.034399999999999,-2.5465560569600334,0.0
mp-780060,Hf2N2O,2.0671,-2.546466168952,0.0035316507499949
mp-765934,Li2FeP2O7,3.666799999999999,-2.5464008391617057,0.0800784015277829
mp-779738,Hf2N2O,2.0681,-2.546294255952,0.0037035637499958
mp-773468,LiFeSiO4,1.311299999999999,-2.546260877142857,0.0757562764285646
mp-28275,Rb2PrCl5,4.8509,-2.5462015626625,0.0
mp-762712,Li4Fe3P3O12F,3.586899999999999,-2.5462004519772043,0.0600985193478393
mp-780230,Hf2N2O,1.9989000000000001,-2.546125936952001,0.0038718827499941
mp-780274,Hf2N2O,1.978999999999999,-2.546106325952002,0.0038914937499932
mp-626169,U(HO2)2,1.892299999999999,-2.5460450417485703,0.1235237475000019
mp-765788,Li5VO3F2,1.573999999999999,-2.5459771878300006,0.0807081727272693
mp-757192,SnP2O7,3.9343,-2.5459398944940475,0.0
mp-863866,Li3V3P8O29,1.2494,-2.5458919774653936,0.0412622265407014
mp-775785,Hf2N2O,2.025299999999999,-2.5458451512019997,0.0041526684999961
mp-779979,Hf2N2O,2.0202,-2.5458327124519995,0.0041651072499959
mp-776212,Hf2N2O,2.072599999999999,-2.545747624702,0.0042501949999955
mp-853153,Li5Co2O2F5,0.0,-2.545691764532143,0.106386405000002
mp-863292,Na3VP2O9,0.434899999999999,-2.545669582496032,0.032980566888888
mp-861091,Li5NiP3O11,3.5263,-2.545607524651785,0.0499147368749994
mp-764961,Li6Co(SiO4)2,2.685,-2.545551928235294,0.0711591741176453
mp-757336,Hf2N2O,2.0236,-2.5455449199520004,0.0044528997499941
mp-763463,LiP4WO12,4.170400000000001,-2.5454032317989417,0.0081974615277706
mp-863005,Ca2Al2Si6SnO22,0.0,-2.5453677475000003,0.4233952598484842
mp-780231,Hf2N2O,1.9967000000000001,-2.5453571184520003,0.0046407012499951
mp-863881,Li2MnP3O10,0.0,-2.5452806729841075,0.0868593638020831
mp-556799,Li3In(BO3)2,3.430799999999999,-2.5452643121527783,0.0040031601041663
mp-766985,V(PO3)4,1.5391000000000001,-2.5452641598459387,0.0209706341176856
mp-776213,Hf2N2O,2.031799999999999,-2.5451881057020023,0.0048097139999931
mp-35421,Ca(LaS2)2,2.1455,-2.5451797523214292,0.012979293571429
mp-764136,Mn3(OF2)2,0.036000000000000004,-2.5451760966822223,0.0499011291666677
mp-557724,KBiF6,2.7083,-2.5451490965175,0.0
mp-779863,Hf2N2O,2.056999999999999,-2.545141387452,0.0048564322499959
mp-780232,Hf2N2O,2.077499999999999,-2.545132730452002,0.0048650892499928
mp-775394,VFe(PO4)2,1.3628999999999991,-2.54505298093254,0.0221668693750096
mp-772238,V2SiO7,2.4434,-2.544998755625,0.0512171637499996
mp-677151,YbTiCdSbO7,0.0,-2.5448736070833338,0.0604769690340871
mp-31690,Cr(PO3)3,1.949,-2.5448524075412084,0.087538835384616
mp-770799,Li5NbO5,3.9186,-2.544799657386363,0.017384879545454
mp-35712,Mg(GaO2)2,2.4173,-2.5447952440476187,0.0041773973809533
mp-762881,Li3Mn(PO4)2,0.0,-2.5447798421774146,0.0900975502976226
mp-558231,Ba3Ho2Cu2PtO10,0.30260000000000004,-2.544717460694444,0.00916302115741
mp-766731,Li3V3P8O29,1.2115,-2.5446855953723704,0.0424686086337242
mp-770910,Li3Mn(BO3)2,1.361899999999999,-2.544683240149444,0.0101296486979318
mp-773517,ScMn2O5,1.0248,-2.544675464458749,0.0234053226953143
mp-696776,BaAl3P2(HO7)2,0.0,-2.544636904587749,0.1016633231534109
mp-705329,Li3Fe2(PO4)3,2.528499999999999,-2.5445805672142874,0.0275837553749989
mp-27094,LiSn2(PO4)3,3.394,-2.54457934718254,0.0028126474999998
mp-24668,CsHF2,6.5186,-2.5445754752500003,0.0
mp-25881,LiBi(PO3)4,4.843100000000001,-2.544573981243388,0.0386744627777746
mp-675164,La12Cu10O31,0.0,-2.5445725712971696,0.0983117162264166
mp-773598,TiFe5(PO4)6,1.365999999999999,-2.544560561812169,0.017865756041635
mp-762648,LiFeSiO4,1.8731,-2.544466930000001,0.0775502235714213
mp-752959,Sc5Cu5O13,0.0,-2.544374436358696,0.0441132308424059
mp-31837,LiFeP2O7,2.3937,-2.544339224085498,0.0432262918181809
mp-776214,Hf2N2O,2.0381,-2.544310807702,0.0056870119999956
mp-754597,LuTlO3,0.6919000000000001,-2.5442987482499997,0.0839924836249998
mp-776226,Hf2N2O,2.0254,-2.544268945452001,0.0057288742499945
mp-764011,NaV(PO4)2,1.8202,-2.544268792599206,0.0313295192361051
mp-3317,SmRhO3,0.7336,-2.54426519775,0.0
mp-771728,Li4Nb3Cr5O16,0.204299999999999,-2.544261052857142,0.0650868823214114
mp-763511,Li2P2WO8,2.7918000000000003,-2.5441951866300365,0.0656816449999944
mp-24030,ZrP2(HO3)2,4.1126,-2.5441692564482263,0.0
mp-770586,Li3AlCrO5,1.964899999999999,-2.5441444803750004,0.0507025375000038
mp-776259,Hf2N2O,2.0534,-2.544016196452,0.0059816232499958
mp-771081,Li3Ni(BO2)5,4.1018,-2.54400657135965,0.0619093526315834
mp-762919,Mn3(OF2)2,0.0,-2.5439536977933326,0.0511235280555579
mp-763709,LiV2PO7,1.1581,-2.5439515515313853,0.0825002622727346
mp-863365,Li2Sn(PO3)4,3.805799999999999,-2.5439235406516296,0.0543286561184137
mp-757076,SnP2O7,3.8735,-2.543918888244048,0.0020210062499996
mp-762686,LiFeSiO4,2.3802,-2.543899603928572,0.0781175496428501
mp-770088,Li3VSiCO7,2.140699999999999,-2.5438933708653844,0.0352029488942493
mp-24884,Co2Si(P2O7)2,3.0023,-2.543891795470522,0.0
mp-779980,Hf2N2O,2.0281,-2.5438768407020005,0.0061209789999949
mp-775783,Hf2N2O,2.0671,-2.5438150144519995,0.0061828052499954
mp-562041,BaCrO3,0.0,-2.5438081864166677,0.0681880365833347
mp-762487,LiFeP2O7,2.2834,-2.5437916354491343,0.0437738804546299
mp-34591,NbFeO4,2.1631,-2.54378942625,0.0230567479166641
mp-504669,KBiF6,2.7061,-2.543765144955,0.0013839515625004
mp-779236,Li3VP2HO8,3.0833,-2.5437433103206986,0.0421740890520823
mp-849501,Li3V3P8O29,1.1291,-2.5437140336281847,0.0434401703779094
mp-771298,Li4V3Cr2Co(PO4)6,0.5522,-2.5437129939642857,0.0775922387416647
mp-764579,LiFe3OF5,2.5003,-2.5435786307200003,0.0691738459999982
mp-27581,Pb7(ClF6)2,4.207599999999999,-2.5435225271809516,0.0
mp-17911,Ba2ZnO3,2.6719,-2.5435015202083338,0.0
mp-761935,Li3V3P8O29,1.2578,-2.5434468010700444,0.0437074029360502
mp-779975,Hf2N2O,2.0039,-2.543405545701998,0.0065922739999972
mp-763587,Li4Ti3Mn3(SbO8)2,0.0251,-2.5433031226028584,0.0678698988392723
mp-780579,Li3V3P8O29,1.2389000000000001,-2.54322453048865,0.0439296735174448
mp-556275,Rb2Al2Sb2O7,3.5936,-2.5431885752884607,0.0
mp-775133,Li4Ti3Fe3(WO8)2,0.9939,-2.5431627425000007,0.0323515662797628
mp-609151,MgWO4,3.3049,-2.543158526666666,0.0269820074999973
mp-674333,Na3PO4,3.909899999999999,-2.5431137253869043,0.0
mp-37509,NbFeO4,1.847999999999999,-2.543102333333332,0.0237438408333332
mp-762622,Li3Fe(PO4)2,2.24,-2.543079347406464,0.0849420043750006
mp-25134,Na2CaV4O12,2.9046,-2.543009058684211,2.1065789473695418e-05
mp-510456,Zr(MoO4)2,3.115199999999999,-2.5428972945454547,0.0
mp-585226,Li3Fe2(PO4)3,2.4816000000000003,-2.5427183542142857,0.0294459683749996
mp-4590,Mg(GaO2)2,3.108099999999999,-2.5426999242857136,0.0062727171428687
mp-673098,LiBi(PO3)4,4.8039,-2.5425027776322744,0.0407456663889025
mp-767795,LiFeP2O7,2.4515000000000002,-2.54239715340368,0.0451683625000001
mp-636731,Zr(MoO4)2,3.1318,-2.5423803090909094,0.000516985454551
mp-684470,Li3Sn2P5O16,4.0922,-2.542314929441392,0.0365104585576778
mp-9793,Ba3BAsO3,1.521399999999999,-2.542304445677084,0.0
mp-769393,DySeO3,1.7860999999999991,-2.5422879860520835,0.0
mp-26702,LiSn2(PO4)3,3.3131,-2.5422850637103176,0.0051069309722233
mp-757428,Cd2Si(P2O7)2,3.9371,-2.542268182137189,0.0393667599999982
mp-13039,Tm2C(NO)2,4.0299,-2.5422205963942863,0.0
mp-554139,Ba3Ga2(Ge2O7)2,2.253599999999999,-2.5421930433695663,0.0323942498913005
mp-655048,LiAlSiH2O5,4.3331,-2.542146846098999,0.1329958088333329
mp-562473,LiSn2(PO4)3,3.1282,-2.542073996626984,0.0053179980555571
mp-541282,KZr2(AsO4)3,3.996,-2.542049284722223,0.0
mp-585400,LiFePO4,2.4496,-2.542023696870748,0.0095532528571435
mp-862682,Ba2Ga2O5,0.0,-2.541943047361109,0.1764549490370353
mp-6397,Na2Ca(SO4)2,5.4777000000000005,-2.5419287094711542,0.0
mp-561525,K2Ga2B2O7,3.7999,-2.5418196191346154,0.0
mp-555933,Na2P2PbO7,4.2885,-2.5418096141617057,0.0
mp-778712,LiFeF5,0.5079,-2.5417899465642853,0.0
mp-779833,Hf2N2O,1.9989000000000001,-2.541781646702,0.0082161729999956
mp-25762,LaFeGe2O7,2.645,-2.541737564659091,0.0
mp-29764,RbHF2,6.6904,-2.541732564,0.0001018300000001
mp-764178,Li3V3P8O29,1.2246,-2.541632969558417,0.0455212344476772
mp-774018,Li3Nb2VO6,0.478699999999999,-2.541562943125001,0.0859787658333326
mp-770956,Li2TiMn2O5,0.6481,-2.5415437494836666,0.0559797055000039
mp-851006,Na6V2B4PO16,0.0,-2.541516413267652,0.0725805487818052
mp-647604,PuIO,0.0,-2.541445872708332,0.0
mp-676932,SrLiEuTeO6,0.0,-2.54142793525,0.0
mp-672979,LiBiP2O7,4.4057,-2.5413044902218616,0.0195842466666693
mp-984755,Nb4Ag2O11,2.372299999999999,-2.5412774363970585,0.0311413170588217
mp-766777,LiFePO4,3.4966999999999993,-2.541203044192177,0.0103739055357126
mp-625087,U(HO2)2,1.902299999999999,-2.5411992921057127,0.1283694971428586
mp-566876,Mn(PO3)3,1.1659,-2.541047312422748,0.0
mp-861173,LiFeSiO4,1.7104000000000001,-2.5408767657142866,0.0811403878571352
mp-698695,CaFe2Sb2(PO4)6,2.8711,-2.5408614359591835,0.0
mp-779864,Hf2N2O,2.0079,-2.540852211202,0.0091456084999954
mp-753353,Sr4LiCu(CO5)2,1.0264,-2.540803127083333,0.0
mp-764139,Li3V3P8O29,1.2772000000000001,-2.5406368623491153,0.0465173416569797
mp-762811,Li2Ti2Mn3O10,0.0,-2.5406162193360777,0.0716558140716916
mp-3744,NaNbO2,1.378199999999999,-2.540550664374999,0.0
mp-705314,Li3V3P8O29,1.277399999999999,-2.5405134325816734,0.0466407714244212
mp-530303,Mg(GaO2)2,2.2577,-2.540506528928572,0.0084661125000113
mp-540123,LiFePO4,3.4966999999999993,-2.540334940085034,0.0112420096428564
mp-684477,Li2Sb(PO3)5,3.967399999999999,-2.540252022575052,0.0366948387318872
mp-759915,Li2BiP3O10,2.5981,-2.5402359751116066,0.0702618560416672
mp-6927,NpO,0.0,-2.540200445,0.1650198828124995
mp-861126,Li4Ni(PO3)6,3.862099999999999,-2.5400140607266013,0.0599416193965511
mp-780160,Li2Cr(PO4)2,0.0363,-2.539922000476191,0.0567485576465136
mp-778485,Ba2Ga6O11,2.6626,-2.5398936673026307,0.0041032445614117
mp-763878,LiMn2O2F3,0.0,-2.5398376678737487,0.0545950065625007
mp-722262,CaB3H3O7,5.7435,-2.539767703722144,0.0
mp-763532,LiP3(WO6)2,2.7636000000000003,-2.53974923468254,0.0
mp-17676,Sr2SnS3F2,2.0801,-2.539739961820938,0.0
mp-764463,Li3Co2Si3O10,0.7240999999999991,-2.539630810416666,0.0888498938888791
mp-555451,Sr3U(Te2O7)2,1.9828000000000001,-2.5394103276136364,0.0
mp-853183,V3Cr2Sn(PO4)6,0.0,-2.539383423710317,0.0856643006597259
mp-755821,Li5Cu(PO4)2,1.8895,-2.5392929678869045,0.0286726817187501
mp-3491,NbSbO4,2.4311,-2.539157397083334,0.0
mp-779982,Hf2N2O,1.9263000000000001,-2.5391232559520005,0.0108745637499954
mp-19028,Na3Fe(PO4)2,2.4126,-2.53908711329932,0.0
mp-4223,Na3PO4,4.1727,-2.539052132261905,0.0040615931250007
mp-770891,Ti3Cr3(SbO8)2,0.7077999999999991,-2.5389499695833333,0.0994818261458281
mp-753691,Y2Bi2O7,0.12360000000000002,-2.5389493830681817,0.0778201927272688
mp-762696,LiFeSiO4,1.791399999999999,-2.5388761230357137,0.0831410305357076
mp-778815,Li2CoP2O7,2.9811,-2.5388606954117066,0.014360290590254
mp-569967,K2PrCl5,4.8153000000000015,-2.5388122407875,0.0
mp-761484,LiFePO4,3.523,-2.538723395263605,0.012853554464284
mp-774063,V4O7F5,1.521399999999999,-2.5386545987312505,0.0397736445833381
mp-758068,K2Yb2O3,2.2465,-2.538566701964286,0.0864508671428554
mp-541867,CsRe3(O3F5)2,3.0448,-2.53853633897,0.0
mp-753327,LiSiBiO4,3.3908,-2.5385267689285707,0.0211189101785738
mp-764203,Li3Co3OF7,2.6661,-2.5384530610414293,0.0389524324999994
mp-583029,K3CaV5O15,2.7283,-2.5384503250520827,0.0
mp-779913,Fe3OF5,1.7289,-2.5384362902444435,0.0470142633333381
mp-504211,LiSn(PO3)3,4.0722,-2.538413478252552,0.0164867036011893
mp-764976,Li2Cr(PO4)2,0.0,-2.5384019489377296,0.0582686091849753
mp-776839,Li6Mn3Sn(PO4)6,0.35250000000000004,-2.538307284661286,0.0662813861250235
mp-744184,TbFeGe2O7,2.592,-2.538292070871212,0.0
mp-778789,Li4V(BO3)2,2.7351,-2.5382669131410256,0.0329475299572719
mp-761433,LiCrPO4,2.929899999999999,-2.538266595680272,0.046106348928574
mp-774714,Li3Sb(PO4)2,3.153899999999999,-2.5381790897278917,0.0604205507142863
mp-766908,Li5VO3F2,1.6471,-2.538036478739091,0.0886488818181794
mp-775008,V3Cr(PO4)6,1.1002,-2.5380238731932767,0.0224649883088279
mp-761570,Li3MnPO5,2.2055,-2.537958846780524,0.0762622882499979
mp-765518,Li3Co3OF7,2.6365,-2.5378818081842858,0.0395236853571425
mp-558610,Sc(ReO3)2,0.0,-2.537799719166667,0.0053634063194412
mp-705599,Cr2P2O7,2.6129000000000002,-2.537760160752164,0.0
mp-31980,LiMn(PO3)4,0.6489,-2.537718198518942,0.0556132537500007
mp-780127,Li9Mn2P4HO18,1.0722,-2.5376968623653227,0.0646808128492564
mp-684093,LiBi(PO3)4,4.7432,-2.5376945666600537,0.0455538773611232
mp-774360,Mn2V3Ni(PO4)6,1.2682,-2.5376002686247605,0.0080077520833388
mp-758688,Li2CuF4,0.8173,-2.5375840163942853,0.0579009821428577
mp-690567,BaLaMnRuO6,0.0,-2.537576095846,0.0728148570833298
mp-762863,Fe3OF5,0.9538000000000001,-2.537546371355555,0.0479041822222274
mp-780061,Hf2N2O,1.927,-2.5375210567020003,0.0124767629999951
mp-14334,K2RbPdF5,2.2313,-2.5374382251055554,0.0010207753703683
mp-25959,LiBi(PO3)4,4.1457,-2.537432637354498,0.0458158066666642
mp-764637,Li3Fe8O3F13,2.253999999999999,-2.5373948438599996,0.0614597016666671
mp-24646,NaAlBP2H3O10,5.7883000000000004,-2.5373848025676184,0.0035927967534723
mp-773438,Li5Cu(PO4)2,1.6448999999999991,-2.5373314803869045,0.0306341692187501
mp-504353,LiSb(PO3)4,4.6567,-2.537310478743388,0.0
mp-850932,Mn3(OF2)2,0.0,-2.537302060015556,0.0577751658333278
mp-780392,Li5Cu(PO4)2,1.8461999999999992,-2.5372965897619046,0.03066905984375
mp-771576,LiMn2(PO4)2,0.0,-2.537284443444396,0.0241063016025648
mp-32442,VP2O7,1.4377,-2.537202700494047,0.1048582069999986