mpid,formula,BG,FE,e_hull
mp-763698,Li4Nb3V3(CoO8)2,0.0,-2.476554958571428,0.098544063571424
mp-765913,LiFePO4,3.6846,-2.476543476870748,0.0750334728571422
mp-559070,Li2Hg(PO3)4,3.2670999999999992,-2.4765344936779443,0.0053812186403527
mp-774099,V2Ni(PO4)3,0.0,-2.4764970891269846,0.0272070947685385
mp-766762,LiFePO4,3.6405,-2.4763180240136062,0.0752589257142837
mp-1672,CaS,2.3819,-2.4762869420312503,0.0
mp-28212,Nb4O5,0.0,-2.476230230694444,0.0243751355555552
mp-757532,LiSnP2O7,0.073299999999999,-2.47620957090368,0.0927962036363636
mp-767927,Li4TiV4Cr4O18,1.318,-2.476176385295699,0.0811335885752679
mp-765227,Li6Sn5(P2O7)4,2.6673,-2.4761389564842955,0.0649477838297842
mp-541323,Sr2NdGaCu2O7,0.0,-2.4760675558653844,0.0116379819230827
mp-767080,LiMn2(PO4)2,0.0,-2.4759567479315745,0.0854339971153859
mp-773464,Mn5V(PO4)6,0.0,-2.4757895284269846,0.0372978185416688
mp-766996,Fe4OF6,2.3076,-2.4757210839445465,0.0678485472727192
mp-759071,LiSb(PO3)4,4.3011,-2.4756968776322754,0.0616136011110946
mp-558658,Y2C(NO)2,3.936199999999999,-2.4756811028228576,0.001243905714281
mp-33684,Ti(FeO2)2,1.123,-2.4756768638095243,0.0169811682142828
mp-759734,Li3Bi2(PO4)3,3.5359,-2.4756682419642866,0.0885560192500021
mp-775178,LiFe2OF3,2.0694,-2.4755762317599994,0.083569938928572
mp-757383,LiSiBiO4,3.093499999999999,-2.4755170225,0.0841286566071461
mp-25159,KV6O11,0.0,-2.4755106232638897,0.027057150451375
mp-780259,Li5LaO4,3.3999,-2.475421772875,0.049655003125002
mp-558955,Ba2CoReO6,0.16670000000000001,-2.47541920925,0.0
mp-776720,Li3Mn4(BO3)4,0.0,-2.475359031543769,0.0447739132970816
mp-757551,Li3Sn3(PO4)4,0.252399999999999,-2.4752692727197805,0.0643273737660177
mp-1013898,LiMo3P3O13,1.1762,-2.4751557425267863,0.0181534189583469
mp-978926,SmGeO3,0.0,-2.475092188250001,0.50926155165625
mp-780105,Li3Mn4(BO3)4,0.0,-2.4750545824133336,0.0450783624275157
mp-557171,Na2Cu(PO3)4,0.8701999999999991,-2.4750229767042606,0.0
mp-770642,Li2MnSO4F3,1.677,-2.475013726462954,0.084141376164772
mp-704184,LiMn(PO3)4,0.0,-2.474886344213386,0.1184451080555568
mp-767578,P4WO12,2.8551,-2.474882182492998,0.0284107744117498
mp-767114,SnP4O11,4.4386,-2.4748600977269346,0.0
mp-763506,TiFe2O5,1.933,-2.474854152864584,0.0235606696874999
mp-764232,VO2F,3.0505,-2.4748475577975,0.0139120441666653
mp-766757,Ti2Fe4O9,1.3253,-2.474810205305555,0.0306364122563973
mp-769422,V3CrNi2(PO4)6,0.12189999999999901,-2.4747571332936498,0.0114892553240562
mp-771526,Li3FeSiBO7,0.0,-2.474675072724359,0.0712970007211524
mp-772683,CrFe(PO4)2,1.8281,-2.474672476626984,0.0401739878472273
mp-767800,Li2Mn(PO4)2,0.6995,-2.4746565020884974,0.0465325604166668
mp-769411,Li6B3SbO9,3.5961,-2.474629868355264,0.0485058416666683
mp-771743,Na3FeBPO7,2.096,-2.4744731283470687,0.0178240466071564
mp-757514,Li4Cu2Si3O10,0.330099999999999,-2.4744656301315797,0.0766055328947388
mp-761135,Li3Sb2(PO4)3,3.3393,-2.4744409047142866,0.0565330219999999
mp-771688,Li4Mn3Nb2Cr3O16,0.6616000000000001,-2.4744251929600005,0.0145172503571373
mp-762705,Li3FeSiO5,2.1731,-2.474408381125,0.0942712529999934
mp-690546,TiNiO3,2.2505,-2.47431316275,0.0170285833333387
mp-29276,Cd2P6O17,4.2535,-2.474309063392857,0.0
mp-1270,Dy2S3,0.593799999999999,-2.4743070376041665,0.0
mp-769681,Li4Fe(BO3)2,3.7795,-2.4742950869871807,0.0206515736538444
mp-697794,Mn2P3O10,0.0,-2.4742476319137143,0.0781252411666084
mp-755225,Li8ZrO6,4.7583,-2.474229155833333,0.0005859140000001
mp-773554,LiMnP2HO7,3.7928,-2.4741334745433736,0.0359695858333202
mp-761289,Li2CrSn(PO4)2,2.059199999999999,-2.4740497915136053,0.0635249579523824
mp-772525,Li6Fe(BO3)3,2.0524,-2.4740330445394743,0.0700094182017521
mp-26267,Li2Cu(PO3)4,0.252499999999999,-2.474030235125313,0.0223292968859745
mp-767581,Li3Cr4(PO4)6,0.0,-2.4740243150965253,0.0900409749662136
mp-756096,Hf2N2O,2.4564999999999992,-2.4739664322020003,0.0760313874999951
mp-764277,VO2F,1.601899999999999,-2.4739368621725,0.0062122143750009
mp-566867,Na2Fe3(PO4)3,0.7719,-2.473931226714285,0.0074158897916634
mp-763790,Mn(PO3)3,1.0864,-2.4739044197304403,0.0671428926922956
mp-565592,BaMnO3,0.742799999999999,-2.473862871192,0.0071948394166598
mp-18840,BaMnO3,0.8952999999999991,-2.473779668941999,0.0072780416666606
mp-776772,Li4Ti2Cr3Sn3O16,0.0,-2.473746324583334,0.0744737008482232
mp-20982,K3Cu2F7,0.0,-2.4736896427775,0.0091563662499964
mp-25674,Co3B7ClO13,2.2683,-2.473648834007361,0.0
mp-28788,Ba9(AuO6)2,1.8826999999999992,-2.473567879130436,0.0
mp-770376,Mn2P4O13,1.122399999999999,-2.473564729239524,0.0412030159210834
mp-690129,BaMnO3,0.8679000000000001,-2.473428066542,0.0076296440666654
mp-878,Ho2S3,1.461299999999999,-2.473393818104167,0.0
mp-19156,BaMnO3,1.9175,-2.473357901942,0.0076998086666657
mp-558628,KLi2BO3,3.999,-2.473326817559524,0.0
mp-767222,LiFe2(PO4)2,1.6011,-2.473316224322345,0.0223155439422821
mp-540460,Cr4(PO4)3,0.6865999999999991,-2.4732626644360898,0.0397363006579123
mp-510546,Sr2CoMoO6,0.0,-2.473214692750001,0.0704343040000026
mp-776220,Hf2N2O,2.2156000000000002,-2.473154685868665,0.0768431338333286
mp-566266,Nd2Mo(SeO5)2,3.3146,-2.4731379283124992,0.0
mp-761300,LiFeB2O5,2.045,-2.4731171988425924,0.0866518495833235
mp-774151,VSb(PO4)2,1.9270999999999991,-2.4730638088492065,0.0668354858333355
mp-783907,LiMnP2HO7,4.0445,-2.4730083351683727,0.0370947252083215
mp-558539,Cs2Ba2(CO3)3,4.3381,-2.472923888046876,0.0
mp-699587,MnSi6Pb8O21,3.2441,-2.4728947440891664,0.0
mp-720312,Na2B5H3O10,4.9795,-2.4728845542096662,0.0030837360795477
mp-767256,Li5Si2NiO8,1.1171,-2.4728500931249995,0.0425199901562551
mp-762568,Li2Mn(PO4)2,0.6234000000000001,-2.472810506703882,0.0483785558012819
mp-780162,Li4Ti3(CoO4)3,0.5826,-2.4728010043181814,0.0919812976514711
mp-6841,Ba4NaCu(CO5)2,1.0292,-2.472716643472222,0.0
mp-27184,B10(Pb2O7)3,3.259,-2.472703686835586,0.0
mp-12832,Ba3CaRu2O9,0.0,-2.472654964083333,0.0157931380000073
mp-866306,Ba(NdS2)2,1.6426,-2.4725603237500007,0.0
mp-744988,KAl2NiP3(H2O7)2,4.5312,-2.4725581684506284,0.0
mp-560222,Na3SO4F,5.1205,-2.472428591509537,0.0
mp-752429,ScTlO3,0.927999999999999,-2.47241788825,0.0786498696250008
mp-698587,TiNiO3,1.708199999999999,-2.4723322908833336,0.0190094552000044
mp-764592,LiFe2OF3,2.6416,-2.4723181099742857,0.0868280607142857
mp-704236,Mn(PO3)3,0.7476,-2.472288184538132,0.0687591278846033
mp-767479,Li2V2SiGeO10,1.851999999999999,-2.472233473906249,0.0604804284374997
mp-31859,Fe3(SiO4)2,1.7005000000000001,-2.472225611923077,0.0437061378846213
mp-556524,Nb2Sn2O7,0.8633000000000001,-2.4720833321590905,0.0868251277272751
mp-557407,K3NaUC3O11,2.1423,-2.472068121907894,0.0
mp-761635,Li2CoP2O7,2.8826,-2.4718467874950405,0.0813741985069205
mp-547125,TbBi2ClO4,1.3439,-2.4717810664491657,0.0
mp-781664,Li3Ti2(CoO4)2,0.593799999999999,-2.471613355555556,0.1023991095833336
mp-772263,Li2MnBPO7,0.7383000000000001,-2.471399031205992,0.0705347831770835
mp-760103,Sr15Pd5O24,0.665899999999999,-2.471397073636364,0.0151569938257596
mp-763548,LiP3W2O13,3.1484,-2.4713922839755647,0.0635511200438436
mp-779070,Li2NiP2O7,4.312200000000001,-2.4713516783283738,0.0058075387499911
mp-8963,Cs2HgF4,2.0818,-2.471346236394286,0.0
mp-772335,Mn5P6WO24,0.058300000000000005,-2.471290218704762,0.0435780519861541
mp-851005,Li2Mn3(BO3)3,0.548299999999999,-2.4712887590664705,0.046237904656845
mp-554063,SmSeClO3,4.3959,-2.471280281767292,0.0
mp-765775,Li2V2SiGeO10,1.8504999999999991,-2.471258877968749,0.0614550243750002
mp-772691,Na2VSiCO7,1.9188999999999992,-2.4712150180208323,0.016001388333307
mp-778823,Fe5(OF4)2,1.6033,-2.471199879801334,0.0837740130000037
mp-778863,Fe5(OF4)2,1.3919000000000001,-2.471139007468,0.0838348853333377
mp-554481,Ba2Sb4P2O17,1.8778000000000001,-2.471105182897619,0.0027383258666642
mp-780169,Hf2N2O,1.195699999999999,-2.471058210535332,0.0789396091666621
mp-540314,Fe(PO3)3,2.0457,-2.4709211788873633,0.0647328037179493
mp-766350,LiSiBiO4,3.0152,-2.4709063474999997,0.0887393316071456
mp-770286,Li3Sn(BO3)2,1.7273,-2.470880582569445,0.0596602735937326
mp-772573,Li2Cr5B3O13,1.2860999999999991,-2.470877843315217,0.0823625281677031
mp-770591,Li3MnAlO4,0.8266999999999991,-2.4708318494122232,0.0545417612499976
mp-762382,LiV2H4(OF5)2,1.0103,-2.47080289152,0.0326555477192922
mp-756919,Mg3(AsO4)2,3.657499999999999,-2.4705350434615383,0.0
mp-778246,Li2Mn2(PO4)3,0.0,-2.4704761113792477,0.0358204036293905
mp-31698,CrP2O7,0.5946,-2.4704068574940483,0.021208817312492
mp-849535,CrPO4F,0.047200000000000006,-2.470252464183606,0.0382659210416713
mp-761412,BaMnO3,0.8081,-2.470249625941999,0.0108080846666602
mp-850028,Li2Mn3(BO3)3,0.635999999999999,-2.4701756664194128,0.0473509973039032
mp-761442,Li6Fe3Co(PO4)6,1.721799999999999,-2.470173478714285,0.0603072027937567
mp-540274,CrP2O7,0.6454000000000001,-2.470167042994047,0.0214486318124915
mp-697664,LiCr4(PO4)3,2.069699999999999,-2.470115095964286,0.0409414565833365
mp-4417,Al2(SO4)3,6.0272,-2.4700026915992663,0.0
mp-26327,Li6Bi3P8O29,0.0,-2.469973370130693,0.0526092244338842
mp-690539,CrNiF6,1.5409,-2.4699321908925,0.0
mp-850410,Li2Mn3(BO3)3,0.6674000000000001,-2.4699084325958824,0.0476182311274335
mp-19431,LiYMo3O8,0.0,-2.469878695576924,0.0486269726922969
mp-778756,LiVBO3,2.2229,-2.4698710742361114,0.0847753376388915
mp-31623,Ca2CoO3,0.9185000000000001,-2.469768258958334,0.1813981674999993
mp-540292,LiCrPO5,0.177899999999999,-2.4695751302306546,0.0310807244687358
mp-1403,Sm2S3,0.7441,-2.469543477437501,0.0
mp-26299,LiSnPO4,3.8438,-2.469521841870748,0.0166108277380967
mp-775053,Mn3Sn(PO4)4,0.135299999999999,-2.46944324167754,0.0188949857291724
mp-541545,BaVAsO6,2.6697,-2.469428264444444,0.0
mp-853194,Li2Mn3(BO3)3,0.36760000000000004,-2.4694234064194123,0.0481032573039037
mp-1033646,RbHfMg6O7,0.0,-2.4692968369166666,0.3868101102499999
mp-5446,Li2PrO3,0.0,-2.469281785625,0.1613942562499994
mp-863076,NbBiO4,2.3185000000000002,-2.469102699999999,0.0637393137500037
mp-757045,Ti3Nb(CuO4)3,0.0,-2.4689919644736853,0.0718503536842067
mp-32540,PWO5,1.8469,-2.468981105977891,0.0
mp-24674,Be3P2(H2O5)2,5.8481,-2.4686697756931832,0.0
mp-1006324,Ce(YS2)3,0.0,-2.4686501931875013,0.0
mp-757047,LiSn(PO3)4,0.0,-2.4685564634656076,0.0940418391435082
mp-861535,Li2Mn(PO4)2,0.8988,-2.468514588242344,0.0526744742628206
mp-684446,LiSnP2O7,0.0,-2.4685124874945896,0.1004932870454542
mp-769721,LiMnBO3,1.9726000000000001,-2.4685039202294456,0.0590134877777801
mp-25639,Li2VPCO7,2.0513,-2.4684418224454348,0.0299787837499865
mp-765963,LiFePO4,3.118699999999999,-2.4683591045493194,0.0832178451785701
mp-765444,LiSi2NiO6,1.2855,-2.468319112750001,0.07281981172917
mp-28279,Gd2NCl3,2.139999999999999,-2.4683098361933333,0.0
mp-559447,Gd3Se4O12F,2.7816,-2.4683096325282508,0.0
mp-8850,Dy2S3,0.7389000000000001,-2.4682696021041672,0.0060374354999979
mp-540621,SrGa2(GeO4)2,3.0761,-2.4682223436538457,0.0
mp-13576,EuAsO4,0.0,-2.468218808333333,0.0
mp-757636,NbTlO3,0.7458,-2.4681784065000003,0.0
mp-780681,LiFe3(SiO4)2,0.630599999999999,-2.4681686547619046,0.0571826448809513
mp-762234,Li4Ti3Mn3(TeO8)2,0.245099999999999,-2.467959460817144,0.056734571986599
mp-761480,LiFePO4,3.156999999999999,-2.4679384586564623,0.0836384910714285
mp-504862,Ti4Cd(CuO4)3,0.0,-2.4679173023333334,0.0756268681249876
mp-2234,Er2S3,1.461199999999999,-2.467907088104167,0.0
mp-773566,Li2MnFe(BO3)2,3.144599999999999,-2.4678330822327785,0.0016185655555513
mp-21025,Nd2Cu2O5,0.0,-2.467721435694445,0.069137528888894
mp-18940,Sr2NiMoO6,2.3104,-2.46767719775,0.0
mp-779235,Li2MnSiO5,0.5558000000000001,-2.467638423023333,0.0923712073333389
mp-761302,Li2VNi(PO4)2,1.659499999999999,-2.4676063404421766,0.0618833640178611
mp-762971,Li2V3O6,1.1098,-2.467525595227272,0.0492790257954345
mp-757349,LiSiBiO4,2.8189,-2.467491170357143,0.092154508750001
mp-757541,LiSiBiO4,3.133799999999999,-2.467344752857143,0.0923009262500027
mp-540424,Cr(PO3)4,0.29350000000000004,-2.4673389795518217,0.0517067480514867
mp-585388,Mn4(PO4)3,0.024999999999999002,-2.4673367343750376,0.0635784740789322
mp-765447,Li5V5O9F,1.094299999999999,-2.4673079513720007,0.0527583576041736
mp-24912,Cr3BO6,1.601999999999999,-2.467289995916667,0.0179705889999883
mp-558707,K2UAs2O9,2.4232,-2.467235435446429,0.0
mp-22563,Gd(LuS2)3,1.049199999999999,-2.467232930437502,0.0
mp-779993,Li2MnFe(BO3)2,3.105,-2.4671835326494445,0.0022681151388859
mp-774078,Li2MnFe(BO3)2,3.127499999999999,-2.4671682372327783,0.0022834105555524
mp-767847,Li6Ca3MnC6(O9F)2,4.701300000000001,-2.467124131689999,0.0480263983333211
mp-772159,La6Cu6O17,0.0,-2.4670974841810343,0.0329279810344838
mp-772320,Li2CoSiO4,2.9162999999999992,-2.4670942787500003,0.0698780912499934
mp-766769,LiFePO4,3.569,-2.46702643579932,0.08455051392857
mp-541331,Sr2PrGaCu2O7,0.0,-2.4669144033653847,0.0122782738461646
mp-757301,LiSn(PO3)3,3.9269,-2.466894967002552,0.08800521485119
mp-23091,Ba2BiSbO6,1.7763,-2.4668719057500006,0.0001443070000091
mp-772780,K3BePCO7,4.0032,-2.4667846480265583,0.0825925457692307
mp-555121,MgAs2S2(OF3)4,3.5807,-2.466776805114524,0.047801832619049
mp-778350,Li2MnFe(BO3)2,3.1508,-2.466717770566111,0.0027338772222194
mp-780483,Li2MnFe(BO3)2,2.639399999999999,-2.4667055665383324,0.0027460812499979
mp-566025,VSnPO5,1.1692,-2.466458963043155,0.0
mp-767415,KNbPCO7,0.4433,-2.4664008599404763,0.1218956355454539
mp-757495,Sn(PO3)4,2.9539999999999993,-2.4663522848459385,0.04334073676472
mp-779099,Li2MnFe(BO3)2,3.0795,-2.4663335434827784,0.0031181043055514
mp-778897,Li2MnFe(BO3)2,3.0498,-2.4662751341077773,0.0031765136805521
mp-780877,Li2Mn3(BO3)3,0.0,-2.4662527573017647,0.0512739064215512
mp-780149,Li2Mn3(BO3)3,0.022199999999999002,-2.4662444831841177,0.0512821805391983
mp-28430,Na2TbO3,0.0,-2.466230733680556,0.0712697552777781
mp-555093,CuB4O7,0.1877,-2.466218347534722,0.0451867606944418
mp-780497,Li2MnFe(BO3)2,2.679599999999999,-2.466203924038333,0.0032477237499977
mp-868758,Li4Mn5Ni(PO4)6,0.462499999999999,-2.4661766538342844,0.0637020589375056
mp-769942,LiMnBO3,2.6077,-2.466103286896109,0.0614141211111149
mp-1011858,Na2CoP2O7,2.683099999999999,-2.4660991941617065,0.0287443777777891
mp-759405,Bi3O2F5,3.284999999999999,-2.466068704345001,0.0
mp-779272,Li2MnFe(BO3)2,2.6787,-2.4659951034827783,0.0034565443055525
mp-774393,Li2MnFe(BO3)2,2.7044,-2.4659901048716666,0.0034615429166642
mp-779890,Li2MnFe(BO3)2,2.7177000000000002,-2.465977278205,0.0034743695833308
mp-780503,Li4Cr7(PO4)6,1.6815,-2.4659483987456454,0.0826604521747959
mp-775261,Li2MnFe(BO3)2,2.7141,-2.4659152923716667,0.0035363554166645
mp-775051,Cr3Sb(PO4)4,1.0055,-2.4658986857242056,0.0787998802083311
mp-778550,Li2MnFe(BO3)2,2.7056,-2.4658843415383336,0.0035673062499972
mp-674463,AlHO2,4.7101,-2.4658222602799995,0.230128016250001
mp-775281,Li2MnFe(BO3)2,2.7149,-2.4658133209827784,0.0036383268055519
mp-15670,Y5S7,0.0,-2.4657559767447927,0.0
mp-8956,Ho2S3,0.611399999999999,-2.4656150324375004,0.007778785666666
mp-565609,Na4Th(MoO4)4,3.9494000000000002,-2.4655862858,0.0
mp-754768,Tb2Pt2O7,1.3893,-2.4655200109469706,0.0
mp-766772,LiFePO4,3.432699999999999,-2.465348436394557,0.0862285133333333
mp-778103,Cd(BO2)2,3.3861,-2.4653454794047613,0.0271023082738093
mp-772437,V3Bi2(PO4)6,0.9702000000000001,-2.4652946059591843,0.0900543848571446
mp-757145,SmH2ClO2,4.7223999999999995,-2.4652151188333336,0.0
mp-776654,Li7V5O12,1.1547,-2.465175578125,0.0319112314583271
mp-778744,Li2MnNi(PO4)2,3.0241,-2.4651037508678906,0.0062526162500411
mp-768592,Na2SnBPO7,1.859199999999999,-2.4650858298759917,0.0941210073697851
mp-765793,Li2Mn(PO4)2,0.744899999999999,-2.4650803467038824,0.0561087158012885
mp-779971,Li2MnFe(BO3)2,3.0082,-2.4649825280661117,0.0044691197222181
mp-697757,LiCr2(PO4)3,0.19540000000000002,-2.464966806071428,0.0428695679861208
mp-782683,LiFe2O2F3,1.5424,-2.464952672008751,0.0544541570138878
mp-31603,LiCo(PO3)4,1.2302,-2.464922220687832,0.0219835366666663
mp-781069,Li2MnFe(BO3)2,3.0889,-2.4648820422327784,0.0045696055555524
mp-853195,Li2Mn3(BO3)3,0.24350000000000002,-2.4648483337723537,0.0526783299509609
mp-776756,Li4TiMn2Ni3(PO4)6,2.2646,-2.4648274576789526,0.0708121813437454
mp-34492,Na2TbO3,0.0,-2.4648161078472235,0.0726843811111113
mp-541870,KAl2P2H5O11,5.2526,-2.4647647310971657,0.005768059960312
mp-779211,Li2MnFe(BO3)2,3.1309,-2.4647277001494445,0.0047239476388849
mp-699636,KTb2Cu(MoO4)4,1.1595,-2.46471071861111,0.0199124633333269
mp-860971,ErH(SO4)2,5.757,-2.4647078424370825,0.0148386800000031
mp-561637,VO2,0.5916,-2.4646383475,0.0196358866666646
mp-771296,Li3Mn(BO3)2,1.3455,-2.4646326132744436,0.0901802755729317
mp-776630,V2O3,0.9127999999999991,-2.46460101175,0.0660027722500018
mp-780499,Li2MnFe(BO3)2,3.042399999999999,-2.4645980559827776,0.0048535918055527
mp-767225,LiFe2(PO4)2,1.5209000000000001,-2.464559068937729,0.0310726993268986
mp-779362,Li2MnFe(BO3)2,3.1151,-2.4645326184827785,0.0049190293055518
mp-37108,Sr(NdS2)2,2.103199999999999,-2.464515446607144,0.0042298421428572
mp-761640,V2Cu(PO4)3,0.019299999999999002,-2.4645153813492064,0.0114345205555563
mp-673029,LiSn2P5O16,0.0,-2.4644598237698414,0.0867069050173734
mp-773762,Li2MnFe(BO3)2,3.0858,-2.4644262038994436,0.0050254438888863
mp-780019,Li2MnFe(BO3)2,3.0617,-2.4644006363994437,0.0050510113888861
mp-761481,Li2FePO5,2.3612,-2.464391135482804,0.0676250112499943
mp-567225,SiNi2(P2O7)2,4.3349,-2.4643877649943304,0.0021313088095009
mp-780583,Li2MnFe(BO3)2,3.072999999999999,-2.4643807884827784,0.0050708593055519
mp-766765,LiFePO4,3.6723,-2.464333539727891,0.0872434099999992
mp-850396,Li2Mn3(BO3)3,0.0,-2.4643143325958827,0.0532123311274332
mp-699660,KHo2Cu(MoO4)4,1.153499999999999,-2.464289860625,0.0097392034722236
mp-765359,Li5VO4F,1.48,-2.4642584228354543,0.0455722388636381
mp-778597,Li2MnFe(BO3)2,3.0258,-2.4642368330661117,0.005214814722219
mp-762265,Li3V5O10,1.1776,-2.4642272401388885,0.0587854520833186
mp-12631,SrTcO3,0.0,-2.46421528475,0.0067744609999982
mp-510367,Fe2P2O7,3.6939,-2.4642088704491347,0.0
mp-20652,PbF3,1.882199999999999,-2.4641747896425,0.0
mp-772304,Li2Ni(PO3)4,3.231699999999999,-2.4640855430200506,0.072879527412268
mp-850761,Li2MnFe(BO3)2,3.148,-2.4639742584827773,0.0054773893055521
mp-767826,Li2FePO5,2.1455,-2.4639530202050253,0.0680631265277789
mp-764167,Na8Fe7(PO4)8,0.0057,-2.4638883579047626,0.0367679363181965
mp-771420,Na3VSiCO7,1.8558000000000001,-2.4638426889423077,0.0013905302884618
mp-764706,Li5VO4F,1.1479,-2.4638297464718177,0.0460009152272746
mp-438,Nd2S3,0.759599999999999,-2.463697789437501,0.0
mp-758156,Li3Sn3(PO4)4,0.0,-2.463669239899267,0.0759274065865316
mp-765264,Li9Mn4(BO3)8,0.6737000000000001,-2.4636524268260747,0.0708276900867925
mp-767045,Li2MnO2F,2.1464,-2.4636249441083327,0.0355883624999968
mp-763961,Li5TiV3O8,0.0,-2.4636066921568625,0.0875681015686238
mp-730945,KAl2P2H5O11,5.087899999999999,-2.463587774311452,0.0069450167460267
mp-759128,Li3Sb2(PO4)3,3.6068000000000002,-2.4634462007142863,0.0675277260000006
mp-775788,Hf2N2O,1.3567,-2.463385623952,0.0866121957499945
mp-767249,Li4MnCo3(PO4)4,2.3728000000000002,-2.4633659622621766,0.0249374487053577
mp-780050,Hf2N2O,1.231099999999999,-2.463364405535331,0.0866334141666627
mp-510519,Rb2V3O8,2.055999999999999,-2.463350211153845,0.0
mp-556551,GdSeClO3,2.993,-2.463297864267292,0.0
mp-764771,Li6V5O12,0.6765000000000001,-2.4632851093478267,0.0475198755978238
mp-762326,Li2CuF5,0.5465,-2.46324502011875,0.0057182542708487
mp-773262,Li3NbV2O6,0.0,-2.463146998125001,0.0950580066666662
mp-772661,Li4MnSn3(PO4)4,2.9147,-2.463124437083605,0.0640146218750121
mp-853200,Li2Mn3(BO3)3,0.0,-2.463104184948824,0.0544224787744909
mp-18022,P4Pb3O13,3.9358,-2.4630459904315485,0.0034983715625198
mp-777666,Li2V3CrO8,1.1225,-2.4630283003571423,0.0250524710862745
mp-38240,Sr(PrS2)2,2.0955,-2.4629774116071443,0.0001164860714295
mp-35078,BaMnO3,0.6737000000000001,-2.462920946941999,0.0181367636666607
mp-769928,Li4NbV3O8,0.0,-2.462890314375,0.0779805143750005
mp-763096,VO2F,1.9056,-2.462878348839165,0.0258812531250001
mp-777667,LiV2O5,1.628199999999999,-2.4628134745312487,0.0
mp-552604,YBi2ClO4,1.3088,-2.462780940095,0.0
mp-773526,Na3Cr(BO3)2,2.7158,-2.462629023402777,0.0424624512499951
mp-763474,LiPWO5,2.4877000000000002,-2.462627996480655,0.0389322896874961