mpid,formula,BG,FE,e_hull
mp-752410,Ba2GeO4,2.9627,-2.8330448532142856,0.0378076413095245
mp-556117,Ga3Pb5F19,4.7168,-2.8330392212077777,0.0
mp-765900,Ti6Co3O16,0.7956000000000001,-2.8328409578,0.097539694199991
mp-754943,ErBiO3,3.1136,-2.8327442827500007,0.0308654691249987
mp-772187,AlGaO3,3.1117,-2.83268725625,0.0288009214999993
mp-756637,Ba3GeO5,2.596199999999999,-2.8325867105092586,0.0339224860185201
mp-778289,LiFeF3,3.0155,-2.8324945217140005,0.0825578719999962
mp-558487,GdP5O14,3.1654,-2.83242872077381,0.0
mp-555173,UCO5,2.2611,-2.8323089362499987,0.0056312103571425
mp-29761,UCO5,2.260799999999999,-2.832306971964286,0.0056331746428561
mp-850760,Li2MnSi4O11,1.3703,-2.8322493755394444,0.0905996776666677
mp-556583,CsSb2F7,4.2993,-2.831891644333,0.0
mp-554675,SrTa2Bi2O9,2.0,-2.831673535089286,0.0281092078571454
mp-706709,Al4P3(HO5)3,5.5706,-2.8316599335558283,0.0262870383000004
mp-755213,YbCO3,4.1307,-2.831463963750001,0.0
mp-565725,ZrV2O7,2.5909,-2.8314612853749983,0.0
mp-706325,CaDyMnSnO6,0.9459000000000001,-2.831413040512666,0.0526608574999665
mp-756063,RbNbO3,2.8197,-2.831228652750001,0.0243334525000005
mp-16828,Li3B7O12,5.6047,-2.831184464621211,0.0
mp-770427,BaLaCl5,3.954999999999999,-2.8310959319714284,0.0629104946428595
mp-777096,LiFeF4,3.1962,-2.8310257024599994,0.096721102685195
mp-690460,BaLa2Mn3O9,0.0,-2.830993564275333,0.0101113855555734
mp-24150,LiNd2HO3,1.871899999999999,-2.830961391052857,0.0226394317857154
mp-29176,Na8Si7O18,4.4437,-2.830919325530304,0.052655549318179
mp-763944,Li5CoOF5,0.06909999999999901,-2.8308346035166667,0.0415777445833347
mp-601292,RbPrP3HO10,4.8166,-2.830813984712857,0.0213379461718776
mp-758107,Yb2P4O13,0.0,-2.8306006665068937,0.0099438167763148
mp-765649,Li11Ti12(NiO8)4,0.033100000000000004,-2.830438345254237,0.090942444194936
mp-777898,LiFeF4,3.5555,-2.830403276626667,0.0973435285185271
mp-757082,LiSi3BiO8,3.5281000000000002,-2.830393215576924,0.0719978658653754
mp-19512,BaV2(PO5)2,2.2674,-2.8303097152460315,0.0
mp-540951,Na2Sr(PO3)4,5.3329,-2.8302020153884713,0.0
mp-777020,LiFeF4,4.311100000000001,-2.830017870793333,0.0977289343518608
mp-777362,LiFeF3,3.5106,-2.829998295714,0.0850540979999969
mp-12337,NaLa2OsO6,0.516899999999999,-2.8299879347500014,0.0
mp-17951,Cs4Zn3F10,4.6800999999999995,-2.8299389521705884,0.0
mp-972387,Sr2MgGe2O7,3.6039,-2.829728849895833,0.0
mp-777190,NaLi3Ti2Cr2(PO4)6,2.8234,-2.8295504064974946,0.0199675701316088
mp-3977,CsB3O5,5.304,-2.829348262083332,0.0
mp-763753,Li2Ti2FeO6,1.9744000000000002,-2.829338258257576,0.083669425000016
mp-14704,Li6Y(BO3)3,4.7398,-2.8290759649342103,0.0
mp-558490,Tb3Se2ClO8,4.0674,-2.8289886382462504,0.0
mp-31801,Al2FeO4,2.754099999999999,-2.828941696428572,0.1449418028571525
mp-559636,KB3O5,5.225300000000001,-2.8288461617129617,0.0009223926851893
mp-626565,Ti3H2O7,2.619399999999999,-2.8287328950825006,0.1580987137499949
mp-6850,Ba2CeC3O9F,0.029200000000000004,-2.8283920603087505,0.0
mp-769738,Li3Al2VO6,2.1698,-2.828329720208333,0.0653320566666666
mp-27389,KSb2F7,4.1611,-2.828203140833,0.0
mp-853165,Li5CoOF5,1.041799999999999,-2.82817604935,0.0442362987500022
mp-757905,Li3Ti(PO4)2,0.14219999999999902,-2.8281282837755097,0.0697662415629247
mp-18958,UMoO6,2.1682,-2.8279227146874995,0.0
mp-765531,Li6NiOF6,1.8946,-2.8276367641707147,0.0261274271428542
mp-560326,Ba5B3CNO9,3.3351,-2.8276143934805247,0.0234493836184226
mp-767149,Li2FeSi3O8,2.6144,-2.827613301071428,0.081018344464284
mp-764374,Li2Mn4OF8,2.0338,-2.8275982743073325,0.0797619153333339
mp-769900,Sm2Mn2O7,0.7452000000000001,-2.82756370597,0.0
mp-776906,Ti3MnFe2(PO4)6,1.127399999999999,-2.8275457985980967,0.0246762453819453
mp-768037,VOF,1.579899999999999,-2.8274381783133338,0.0185707041666676
mp-559354,NaNbO3,1.883299999999999,-2.8273359160000004,0.0342473117500077
mp-17183,Na2BeSiO4,4.5446,-2.8273254440625,0.0
mp-755216,TmBiO3,2.441799999999999,-2.827294782750001,0.0535321338749996
mp-676449,Na4Al3Si3NO13,0.8347000000000001,-2.8270517245262496,0.1031221076185859
mp-767010,Li2Mn2OF6,1.631,-2.8270285950281804,0.0184017023863622
mp-23137,Ba2YBiO6,1.823699999999999,-2.8267737855,0.0
mp-772403,NbVO4,1.009099999999999,-2.8267309120833324,0.0086313688541022
mp-764373,LiFeF3,3.0657,-2.826545503047333,0.0885068906666628
mp-614628,Na3Ca(BO2)5,4.4278,-2.826488811885964,0.0012907868421114
mp-777567,LiFeF4,4.2363,-2.8264206874599997,0.1013261176851942
mp-743694,Ba2La4Mn5SnO18,0.0,-2.8263018524099985,0.0349649822777653
mp-18595,LuCu(BO2)5,0.7753999999999991,-2.826287298284313,0.0103920463112761
mp-768615,Sr3La2Cl12,3.8064,-2.8262039452423533,0.0409319629411752
mp-17395,TmCu(BO2)5,0.7742999999999991,-2.8261653668137248,0.0125143276715711
mp-756793,Li2Nb4ZnO12,2.8733,-2.8259454515789466,0.0241994988157898
mp-778512,LiFeF4,0.0,-2.82590797496,0.1018388301851951
mp-743771,Ca8V7ZnBiO28,3.4528,-2.8257763653333337,0.0080444123333318
mp-989566,Rb2InGaF6,3.266699999999999,-2.8257624057139994,0.0
mp-14294,Ba2YbSbO6,0.0,-2.82575687525,0.0
mp-781958,V4O3F5,0.5565,-2.8257279728916664,0.0590059645833367
mp-557780,CsSi2HO5,4.8193,-2.825720836374445,0.0
mp-777749,Y2Sb2O7,1.916499999999999,-2.82566308064394,0.0601818017424156
mp-558797,VF5,2.9917000000000002,-2.8254226857833338,0.0004202185416666
mp-14237,YbBO3,0.0,-2.8253781847500004,0.1409825983333306
mp-17693,SrCdP2O7,3.7032,-2.8253659306764067,0.0
mp-557516,K2Be2Zn2Si3O11,3.5046999999999993,-2.8252708071874992,0.0034077070000027
mp-777489,LiFeF3,3.0799,-2.825174035380667,0.0898783583333298
mp-3660,LiB3O5,6.3532,-2.8251448912500003,0.0072952078703689
mp-772710,Li2TiNb3O8,0.0,-2.825115819940476,0.0982102029807769
mp-773141,BaLaCl5,3.9903,-2.825031854471429,0.0689745721428591
mp-695070,Ca3Ga2Si(SnO6)2,2.9215,-2.8250029411250015,0.0
mp-566540,Na2CrNiF7,3.8792,-2.8249764634845467,0.0
mp-763720,Li3V2P2O8F3,2.3586,-2.82496501526447,0.0599898722222231
mp-768983,Ba2YCl7,4.6338,-2.824836371282,0.0390170377499998
mp-6775,Na3Sr(BO2)5,4.561,-2.824775563201753,0.0
mp-764309,VOF,1.654399999999999,-2.824667845813334,0.0213410366666675
mp-776778,LiFeF3,3.0149,-2.824614964964,0.0904374287499969
mp-768088,Mn2Si4O11,1.096899999999999,-2.824607220333529,0.0912596499264637
mp-567034,Na2LuMoPO8,4.1749,-2.82453293235348,0.0027836732692128
mp-772797,Ti2Cu(PO4)3,0.565399999999999,-2.8242407718121703,0.0080147265972545
mp-14058,KMg(PO3)3,4.9473,-2.824186743966837,0.0
mp-32813,Ti9O10,0.0,-2.8240267732894737,0.2014406752631714
mp-768099,V4Si4O13,0.6473999999999991,-2.823934244107144,0.0613826531547587
mp-776921,Ti3CrFe2(PO4)6,0.107199999999999,-2.823914553849206,0.0141855941435107
mp-776366,LiFeF4,4.077500000000001,-2.8238617657933336,0.1038850393518604
mp-772064,BaLaCl5,3.5974,-2.8237527097095247,0.0702537169047632
mp-773953,Ba2LaCl7,4.4004,-2.8236849742819983,0.0881679120000029
mp-776857,Li4Ti3Nb2Cr3O16,0.0,-2.823680109642858,0.046455442232137
mp-771102,Li4Ti3MnO8,0.0,-2.823548271935,0.0880747874832561
mp-555003,WF6,5.3735,-2.8235229681628566,0.0
mp-764791,Li2Mn(SiO3)2,3.4471,-2.823470908496363,0.0395445677272645
mp-558293,K2Na(B3O5)3,5.300899999999999,-2.823359673472221,0.0
mp-777678,LiFeF4,4.0954,-2.8232931999599997,0.1044536051851938
mp-989523,Rb2NaAsF6,4.5471,-2.823196091714,0.0
mp-757325,Li3Ti(PO4)2,0.24429999999999902,-2.8229897737755096,0.0749047515629239
mp-5279,Ca3TeO6,3.2468999999999992,-2.8227993547500008,0.0
mp-776657,Li2Fe3F8,3.0159,-2.822746505347693,0.051409303076924
mp-19566,Na3Sc2V3O12,3.2084,-2.8226542128750003,0.0
mp-1019895,La3BN2O3,1.211400000000001,-2.8224936755751853,0.032262889074067
mp-9837,Ba4Nd4Zn3PtO15,2.4838,-2.822396324398148,0.0
mp-4564,Ba4Nb14O23,0.0,-2.8223408904573177,0.0
mp-763819,Li4Mn7(OF7)2,1.7582,-2.8221132220696283,0.0763612837037017
mp-764952,VF5,3.0875,-2.8220684209916658,0.0037744833333341
mp-767360,LiMn(SiO3)2,0.6123000000000001,-2.8220513803459992,0.0378463187857143
mp-755264,TiO,0.0,-2.821955238958335,0.098733564999998
mp-706225,Sr3LaMn2(WO6)2,1.559899999999999,-2.8218527745960005,0.0212713587812505
mp-777694,Li4Ti3V5O16,1.077499999999999,-2.8218179821428566,0.0170562216071594
mp-775778,LiFeF3,3.2665,-2.8217328742140007,0.0933195194999969
mp-754172,La3Ti2N3O4,1.0174,-2.8214066562894446,0.0569863157011081
mp-567364,Na2ErMoPO8,4.1855,-2.821121002545788,0.0032206603846125
mp-758151,Li3Ti(PO4)2,0.22889999999999902,-2.8210584282397955,0.0768360970986385
mp-12449,LiPr2OsO6,0.40649999999999903,-2.82097746175,0.0
mp-767270,Li3VSi2O7,2.1313,-2.820905271634615,0.0517556452403971
mp-16160,Sm4Au2O9,2.0219,-2.820875072416668,0.0
mp-3136,NaNbO3,1.5249,-2.82079556675,0.0407876610000084
mp-6426,Na2MgSiO4,3.7685,-2.8205937871875,0.0022324503125004
mp-19336,Nd2MnCoO6,1.0807,-2.820524038846,0.0
mp-542300,Na2B8O13,5.4478,-2.8205097815036235,0.0
mp-778317,Ti3NbFe2(PO4)6,0.0,-2.8204901766269845,0.0549784192361091
mp-765241,VF5,2.9964,-2.8203743591166663,0.005468545208334
mp-558805,Na3Nd(BO3)2,3.7653,-2.820309589236112,0.0
mp-19061,LiFe(SiO3)2,2.7546999999999993,-2.8202253780000013,0.0006005017499823
mp-29756,RbB3O5,5.2118,-2.820138608749999,0.001805353672843
mp-769239,CeReO4,0.0,-2.8201263,0.1100629636111083
mp-510708,LiFe(SiO3)2,2.7033,-2.8200497152500006,0.0007761644999826
mp-778392,Li2MnF6,2.3745,-2.8199279570111107,0.0585643353703702
mp-772802,K2TmPCO7,4.4497,-2.8198862599454366,0.0152477108333402
mp-763490,Li4Ti3Nb3Cr2O16,0.0,-2.8198770567857148,0.0899181226785703
mp-772886,BaLa2Cl8,3.9733,-2.8198652019163646,0.0579171704545471
mp-764793,Li2Mn4OF8,2.171799999999999,-2.8196910214739983,0.0876691681666672
mp-776200,GdAsO4,3.4222,-2.819604200000002,0.0
mp-6333,NaIn(SiO3)2,3.4798,-2.8195974312500005,0.0
mp-782653,Ca2CrO4,1.8761,-2.8195518532142865,0.0390966042857101
mp-541522,Na2Ca(PO3)4,5.3703,-2.819551278283208,0.0006709751754847
mp-16699,Li6Gd(BO3)3,3.0808,-2.819408647302632,0.0028038377631522
mp-510571,BaNpPH2O7,0.034100000000000005,-2.819390603152937,0.0188281172916644
mp-703591,Ba5B20(H2O19)2,0.10799999999999901,-2.8193664132136314,0.0248877769216413
mp-773439,Li3FeOF4,2.3849,-2.8193427484455555,0.0736265390123449
mp-771963,Ba2LaCl7,3.6471,-2.8193237695319997,0.0925291167500024
mp-989537,Cs2TlInF6,3.9896000000000003,-2.8192948722140003,0.0
mp-565656,Na2HoMoPO8,4.1948,-2.8192591692765565,0.0036522071153841
mp-765273,VF5,3.0026,-2.8191459934916665,0.0066969108333339
mp-766781,VF5,3.0714,-2.8190685330750007,0.0067743712499996
mp-18832,K2VO2F3,2.9836,-2.81899877763375,0.0
mp-11982,Sr2CaTeO6,3.202399999999999,-2.818963821250001,0.0
mp-4779,Li2B4O7,5.668,-2.818847479455129,0.0
mp-766853,LiMn2F7,1.6717,-2.818683457525,0.0640299641666564
mp-766179,LiSi3BiO8,3.4775,-2.8186280701923065,0.0837630112499923
mp-755357,NdAsO4,3.7403,-2.818621537916666,0.0
mp-758270,Li3Ti(PO4)2,0.21030000000000001,-2.8186146834183674,0.0792798419200666
mp-559987,LiAl(PO3)4,5.744099999999999,-2.8186028998544974,0.0026561104629632
mp-1019713,Cs4Si3O8,3.658,-2.8185657813333336,0.0
mp-10301,Sr2ScIrO6,0.0,-2.8184693147500006,0.0
mp-772260,Li10Ti4O13,3.9595000000000002,-2.818366878070988,0.0851530000000062
mp-540742,NdTl(PO3)4,5.2239,-2.8183256563822763,0.0
mp-758201,LiTiP2O7,0.21780000000000002,-2.8182993633279225,0.1161535816861292
mp-772055,Li6Ti2O7,2.9524,-2.8182316024722227,0.0116462253333393
mp-765911,Mn7F18,0.0,-2.8182080791256,0.0373266274666592
mp-764711,Li2V4O5F8,0.0,-2.8180779260931583,0.075365641578923
mp-770125,BaLaCl5,3.880099999999999,-2.8180387630428574,0.0759676635714301
mp-17323,TbCu(BO2)5,0.7693000000000001,-2.818038005833332,0.0178795247671601
mp-767686,Li2Mn(SiO3)2,3.3968,-2.8180368439509085,0.044978632272719
mp-777883,Ba6YCl15,4.6917,-2.8180132731318186,0.0947353448863621
mp-779079,Ti3V2P6WO24,0.0743,-2.817950281904761,0.0344233798611153
mp-770760,Li2TiVO5,2.2828,-2.81786187087963,0.0302453715277728
mp-753285,Mg9CuO10,0.0,-2.8178110661249995,0.0362388864999978
mp-761416,LiFe(SiO3)2,2.7455,-2.81773120925,0.0030946704999825
mp-776727,Li2Fe3F8,2.9193000000000002,-2.8177128124630766,0.0564429959615395
mp-761382,Li2Fe3(Si3O8)2,2.8256,-2.8176597372222223,0.0497209491666694
mp-566312,Na2DyMoPO8,4.1989,-2.8175654344047625,0.0039352694230752
mp-770830,HoBiO3,2.7472,-2.8172958437500006,0.0355325449999979
mp-768453,Lu2(SO4)3,5.9635,-2.81706251983456,0.0
mp-767961,Ti3Mn2P6WO24,0.084,-2.816940626958095,0.0291398294714522
mp-772063,BaLaCl5,4.2395,-2.8169349412571423,0.0770714853571448
mp-505180,AlFePO5,3.5128,-2.816896285230654,0.0001288725000012
mp-704952,Cs4U3Mo3O20,2.0623,-2.8168921175,0.0
mp-1019802,KAl(PO3)4,5.179699999999999,-2.8167156142989422,0.0011999375000009
mp-542297,Eu2SO6,0.0,-2.816694375729168,0.0
mp-684639,UO3,0.0,-2.8166800309375004,0.8119402300000012
mp-697960,Ba2Na2B10H2O19,4.6933,-2.816677305075905,0.0019232386428456
mp-765783,VF5,3.1963,-2.816596235991668,0.0092466683333327
mp-777389,LiFeF3,3.0524,-2.8165397157140006,0.098512677999996
mp-764010,Mn6OF11,0.894,-2.8164914541722226,0.0727763606250047
mp-699531,Pr7Mn8O24,0.0,-2.8164768294276925,0.0279096206410631
mp-744924,Na2TiCr(PO4)3,2.520499999999999,-2.8164364676817053,0.0
mp-764691,Li2V(OF)2,0.0,-2.816390753554286,0.0659440314285655
mp-775650,Ti3V2Co(PO4)6,0.0,-2.816333648293652,0.0377325350154382
mp-13530,SmAsO4,3.732199999999999,-2.816236407916667,0.0204390008333357
mp-776773,LiFeF3,3.1084,-2.8162211759640012,0.0988312177499954
mp-765932,VF5,3.1961,-2.8161886522416677,0.0096542520833331
mp-694942,BaNa5LiCo5F18,2.2675,-2.8161859512140004,0.0147410823333329
mp-769644,LiAlVO4,1.7215,-2.816185857142857,0.034933965452395
mp-764959,VF5,2.8066,-2.8160665984916657,0.0097763058333342
mp-767181,Li3Mn2OF5,2.1431,-2.815944003556364,0.0975264668181816
mp-1035249,Mg14CuSiO16,0.0,-2.8158149478125,0.1909847186718752
mp-555005,Na3Mg2P5O16,4.8098,-2.815779814249084,0.0
mp-558480,K2P2O5F2,5.0435,-2.815769189074588,0.0
mp-6236,Na2BeSiO4,4.562,-2.815734868281249,0.0115905757812502
mp-20209,Eu2ReO5,0.0,-2.815470288281248,0.0314428327205824
mp-761857,LiNb(BO3)2,3.047799999999999,-2.8154402515833343,0.0884131048571426
mp-561569,CsSb2F7,4.1067,-2.8154322403329988,0.016459403999999
mp-10767,CsK2Yb(PO4)2,0.0,-2.8151830140136047,0.0
mp-766857,LiMn2F7,1.674599999999999,-2.815174336025,0.067539085666656
mp-776658,BaO,2.2694,-2.8150532171875,0.0188542034374998
mp-565313,Na2TbMoPO8,4.208200000000001,-2.815043341263736,0.0043282284615351
mp-623092,Gd4Au2O9,1.8748999999999991,-2.8149160907499984,0.0
mp-861583,Nb3Fe(PO4)6,2.6412,-2.814790983781513,0.0
mp-780859,Ti3V2Ni(PO4)6,0.9772000000000001,-2.8146857655158724,0.037687896250004
mp-558268,Ca4Si6Pb6Cl2O21,3.3861,-2.8146481073787166,0.0
mp-556169,YSeO3F,4.2667,-2.814562483088958,0.0
mp-768019,LiTi2V3O10,1.448299999999999,-2.814514239114583,0.0748083092708213
mp-543047,KNaCu(Si2O5)2,0.8046000000000001,-2.8144972113235305,0.0107882013970579
mp-764353,V2O2F3,0.0,-2.814383219438572,0.0937393150000369
mp-1019730,EuZn(BO2)5,0.0,-2.814284288284313,0.0028119980147209
mp-777244,Li2Ti2MnCr2(PO4)6,2.4354,-2.8142674981855347,0.0127167081082273
mp-21879,Ba2CePtO6,1.420399999999999,-2.81426277275,0.0
mp-707317,ErP4HO12,5.554600000000001,-2.814187250888942,0.0
mp-634418,NaCaSiHO4,4.4923,-2.8141275960774994,0.0
mp-6695,BaCdP2O7,3.5826000000000002,-2.813997644085498,0.0
mp-764521,VOF,1.0949,-2.8137419378966673,0.032266944583335
mp-6815,Ti2Cu(PO5)2,0.5587,-2.813721348468253,0.0066387114999937
mp-754698,NbO2,0.0,-2.8136036508333335,0.099204880000018
mp-19674,Sc2Mn2O7,1.048899999999999,-2.813561698697272,0.0
mp-756228,SrLaCl5,3.737999999999999,-2.8135490387571425,0.0502067492857136
mp-753650,BaLaCl5,3.4181999999999992,-2.8134193566142853,0.0805870700000026
mp-306,B2O3,6.3017,-2.813264686749999,0.0
mp-764286,VOF,1.960099999999999,-2.8131505124799996,0.0328583700000013
mp-4975,RbZnF3,4.0807,-2.813149838047333,0.0
mp-555342,Na2CaSiO4,3.336099999999999,-2.8131340090625003,0.0662327112500014
mp-556061,CsSb2F11,4.4228,-2.8130939268278574,0.0
mp-541571,Na2Si4NiO10,3.3741,-2.8130538545588237,0.0052637889705913
mp-763486,Li2Mn3OF6,1.7183,-2.8130066917725003,0.0743607091666653
mp-765218,VF5,2.9955,-2.8129974589083333,0.0128454454166666
mp-849664,Li4FeOF4,4.068099999999999,-2.812963275601001,0.0656170054999991
mp-28774,KSnF3,3.5114,-2.812951387964,0.0
mp-677638,Na27Ca3Al5(P2O7)12,4.7813,-2.8128795858341658,0.0
mp-776758,Li2Fe3F8,2.9908,-2.8128320409246155,0.0613237675000011
mp-766805,Li2MnOF3,1.5105,-2.8127989315400006,0.0329683958928637
mp-19054,BaMnCO3F2,4.0865,-2.8127835861987496,0.023672099375001
mp-782651,Li3MnNb4O12,0.0,-2.812700422798001,0.0320557491874957
mp-1020628,SrGe(PO4)2,4.0919,-2.8126753471825388,0.0
mp-770701,Li2Si4NiO10,3.753699999999999,-2.8126108380882355,0.0639406667647106
mp-763707,Li4Ti3VO8,0.0,-2.812429431875,0.102106280031256
mp-754636,ErBiO3,2.4634,-2.8122938017500005,0.0513159501249989
mp-767584,Ti4Ni(PO5)4,0.1307,-2.8122697822085394,0.0603243415948338
mp-696078,K3ZrH2S(OF)5,5.1147,-2.8119897244707355,0.0
mp-1019561,Ca2GeO4,3.554999999999999,-2.8119778171428567,0.1886120242857139
mp-770456,Li6Ti2O7,2.3765,-2.8119471514722227,0.0179306763333393
mp-677001,SrAl7Tl5Si5O24,0.008199999999999001,-2.8118940132142862,0.1578321045370758
mp-765949,VF5,3.148,-2.811887752658334,0.0139551516666669
mp-694915,CaLaMnSnO6,0.7267,-2.811874923846,0.051651257416668
mp-8261,Ba3Yb4O9,0.0,-2.8118666944531263,0.179938246249999
mp-6648,KLiB4O7,5.0827,-2.8116420151282053,0.0
mp-5285,SrSO4,5.9094,-2.8116361423437497,0.0
mp-863944,Ba5V5O14,0.7356,-2.8114950282291677,0.0424790938738732
mp-778063,Ti3Mn2Ni(PO4)6,2.2602,-2.8114771636247613,0.0097307676967357
mp-763671,Li2Ti2V3O10,0.5897,-2.811308169166665,0.0617787157352971
mp-850067,Ti3Mn2Co(PO4)6,0.0,-2.8112667836247627,0.0348548285763872
mp-776648,Li2Fe3F8,3.1211,-2.8111874322707697,0.0629683761538473
mp-776007,Ti3Mn2Sn(PO4)6,0.09860000000000001,-2.8110785715414286,0.0492865585069441
mp-13792,KTaP4O13,3.6681,-2.81107058558584,0.0
mp-769049,BaLaCl5,3.785,-2.810944757328571,0.0830616692857164
mp-775132,NaLi3Fe4(SiO3)8,2.5606,-2.810836248250001,0.0036060243749966
mp-775021,NaLi3Fe4(SiO3)8,2.6744,-2.810713229125001,0.0037290434999963
mp-754613,K2ErPCO7,4.4968,-2.81069693327877,0.0203153504166735
mp-753830,Tm2Sb2O7,1.4172,-2.8106284889772724,0.068173301022723
mp-27295,Mg14Ge5O24,3.445499999999999,-2.8105061593023253,0.0
mp-765384,LiMn2F7,1.9232,-2.8105054940249987,0.0722079276666569
mp-18827,AlVO4,3.0384,-2.810410771944445,0.0
mp-765849,LiFe(SiO3)2,3.0234,-2.8103013127500005,0.0105245669999822
mp-770414,LiAlVO4,1.709,-2.810211753928571,0.0409080686666811
mp-754422,BaYb2O4,0.0,-2.8100108639285706,0.204350865357144
mp-767095,Li2MnOF3,1.8858000000000001,-2.8099351101114287,0.0358322173214356
mp-18952,Ca4Mn2O7,1.369399999999999,-2.8099197381284613,0.0391831950000005
mp-768032,VOF,1.4409,-2.809713655813334,0.0362952266666676
mp-650816,La5V3S6O7,1.0339,-2.809649466577381,0.0600018856746036
mp-675771,AlPO4,1.1049,-2.809413550515873,0.3290516000000041
mp-20282,CsPbF3,3.338999999999999,-2.809217250714,0.0
mp-767414,K2HoPCO7,4.452,-2.80920703077877,0.0202557758333421
mp-764272,Li2V(OF)2,1.6461000000000001,-2.8091809192685706,0.0731538657142794
mp-675634,KBi2F7,4.6755,-2.808912838333,0.0530513383750017
mp-6787,RbLiB4O7,4.8696,-2.808836337916667,0.0
mp-24104,LiAlSi2H2O7,4.858,-2.8087661423838464,0.0076538938247834
mp-1008500,BaO,2.359899999999999,-2.808585273125,0.0253221474999998
mp-23740,Mg2PHO5,4.9826999999999995,-2.808559081718359,0.0
mp-676273,Pr2SbO2,0.0,-2.8085024755000005,0.0083785303333323
mp-600536,NaMoF6,0.0,-2.8084665540175004,0.0
mp-560767,KNaTiO3,3.5351999999999992,-2.8083556750694445,0.0
mp-18867,Ba3W2O9,3.6729,-2.8083459883035715,0.0048435458928572
mp-698702,CaSmMnSnO6,0.895699999999999,-2.808294125096,0.0470906909999859
mp-558801,K2Pr4Cl9O2,0.447499999999999,-2.808285713049411,0.0377037213725497
mp-849984,LiV4O5F7,1.4352,-2.808170081151766,0.0451902355882216
mp-19528,MnSiO3,2.6058,-2.8080408762277136,0.0030783104642857
mp-768218,Li2TmPCO7,4.8642,-2.8080322945287697,0.0919997333333331
mp-565815,MnSiO3,2.6466,-2.8079814821419995,0.0031377045499993
mp-1020015,Li2B3PO8,5.402900000000001,-2.8077077336139453,0.0