mpid,formula,BG,FE,e_hull
mp-767953,Li2Si3NiO8,4.393199999999999,-2.7069305757142854,0.0821577714285748
mp-706336,Na4Be2Si6Sn(HO5)4,4.0735,-2.70692670795892,0.0
mp-849668,V3(O2F)2,0.9618000000000001,-2.706911510264443,0.0226976894444455
mp-756344,Li4ZrO4,4.3207,-2.7068855066666666,0.0367962827777841
mp-6798,Ba2NaReO6,1.8688,-2.7067852947500004,0.0
mp-565720,BaTbMn2O6,0.0,-2.706706765775333,0.0570848040833116
mp-776528,LiV6O7F5,0.9408999999999991,-2.7066985462999997,0.094886140233922
mp-557985,KPO3,4.9935,-2.706657075369048,0.0009443125000068
mp-18835,VPO4,1.7687,-2.7066179946825404,0.0
mp-566722,Na5CrP2(O4F)2,3.1625,-2.7065511783465075,0.0
mp-755544,YTlO2,1.4748,-2.7065009574999994,0.09513215625
mp-541094,Ta2Hg3S(O2F5)2,2.4414000000000002,-2.7064224182981262,0.0
mp-23293,TbCl3,3.7957,-2.706269498278334,0.0038002599999993
mp-542264,BaNaCe2C4O12F,0.24960000000000002,-2.7062387405328576,0.0
mp-995215,CsSrSiHO4,3.955899999999999,-2.7060751023275,0.0632466466666663
mp-760501,TiGa2O5,2.7831,-2.706067478489583,0.0390334234374991
mp-763978,Li5Ti2V3O10,0.29849999999999904,-2.706041715291666,0.0122826047499957
mp-767333,Li2Si3NiO8,3.8379,-2.7059804125,0.08310793464286
mp-760991,NaNb2O4,0.0,-2.705963578571428,0.016613886285711
mp-652471,Nb2Co(P2O7)3,1.443,-2.7059584474940475,0.0
mp-763364,Li4Co(SiO3)3,2.9379,-2.7059514441911765,0.092471701176481
mp-767197,VOF3,3.2113,-2.705844395964,0.0249092935000021
mp-764269,VOF3,3.873,-2.705800496464001,0.0249531930000017
mp-19588,Sc2(WO4)3,4.126,-2.705792784117648,0.0075866975735294
mp-761307,TiV2O7,2.0311,-2.7057117260416663,0.0
mp-566234,Sr5Cr3ClO12,1.043499999999999,-2.705676048488572,0.0
mp-626569,Ti3H2O7,2.374199999999999,-2.705669064665834,0.2811625441666621
mp-722278,BaSiP4(HO7)2,5.748299999999999,-2.7056494703236806,0.0
mp-779391,V3(O2F)2,0.34700000000000003,-2.7056287635977765,0.0239804361111257
mp-849368,V3(O2F)2,0.9243000000000001,-2.7055176591533323,0.0240915405555703
mp-733509,Na2TiSi4H4O13,3.2593,-2.705504339266529,0.0051801127083326
mp-557115,Cs2As2OF10,3.932,-2.7052305948766677,0.0051855026666647
mp-774389,Li4MnV3(P2O7)4,0.31710000000000005,-2.70520770024368,0.0026499991382999
mp-9783,Ba3(AsO4)2,3.906,-2.705206182307692,0.0
mp-776707,VOF3,2.9487,-2.7051886479640004,0.0255650414999992
mp-19845,TiPbO3,1.582799999999999,-2.7051483020833347,0.0401571039999986
mp-770183,Li2AlVO4,2.169199999999999,-2.7051278474999987,0.0873355603125025
mp-555980,Ba2Zn3(PO3)10,4.808199999999999,-2.705076510854497,0.0
mp-771516,Li4Ti3Cr5O16,0.1653,-2.7050684296428567,0.0324547261706289
mp-606149,SrGd2Co2O7,0.0,-2.704963712187499,0.0410749113020987
mp-1033747,Mg14BiBO16,0.7358,-2.7049295197395837,0.2570612160026036
mp-566680,Li2MnSiO4,3.0521,-2.7048789394950004,0.0
mp-556649,Li4Ga3Si3BrO12,3.9512,-2.7048546613043483,0.0
mp-557836,Na5B2P3O13,5.078699999999999,-2.7048117825595246,0.0
mp-763876,Li2MnSiO4,3.069899999999999,-2.7047841807449995,9.475875000042322e-05
mp-779966,VOF3,2.876,-2.7047827809640004,0.0259709085000023
mp-777046,Li4Ti5Co3O16,0.5101,-2.704668267976192,0.0646451623214128
mp-762579,Li2V2(PO4)3,1.146,-2.7046564991729327,0.0128468910526269
mp-770360,Li2AlVO4,2.3276,-2.7045097012499992,0.0879537065625024
mp-560385,KRb2CoF6,0.0,-2.704446110714,0.0404779490000004
mp-769765,Li2AlVO4,2.1881,-2.7043038124999987,0.0881595953125025
mp-1020620,Rb5Li6(BO2)11,4.3579,-2.704187946382575,0.0
mp-758140,LiTi(PO3)4,0.19759999999999903,-2.70408231994709,0.0896820323174569
mp-677179,BaNaIn2(PO4)3,3.3426,-2.703912674436092,0.0121484588157878
mp-1020147,Na2Mg2P3NO9,5.0785,-2.7038894719362183,0.0
mp-676262,TaTlO3,0.9695,-2.7038040205000025,0.0
mp-5360,Ba3Nb16O23,0.0,-2.703763924494046,0.0
mp-9535,Al6Cd4TeO12,2.566,-2.7037243089130434,0.0
mp-765381,Li9Ti7Cr6O30,0.0,-2.703684759695513,0.0918414497382418
mp-38972,Ba3Re2O9,0.0,-2.7033268686607146,0.0
mp-769003,BaY3Cl11,3.724199999999999,-2.7033190488906667,0.0708931436666704
mp-770519,Li2AlVO4,2.238199999999999,-2.7032750131249994,0.0891883946875022
mp-5327,Na4UO5,2.1446,-2.703203900625,0.0
mp-767184,Ca5Mn4O9,2.0514,-2.7030227302827776,0.025906753888889
mp-780828,V3(O2F)2,0.5726,-2.702910799708888,0.0266984000000007
mp-861129,Li2Si5Ni2O13,3.6075999999999993,-2.702888888238638,0.0548928359090901
mp-754655,Eu2SeO2,0.0,-2.7027286942187514,0.0
mp-699604,CsUV3O11,2.1691,-2.702678645234375,0.0087677448437535
mp-973920,Lu2Ta2O5,0.0,-2.7026369862499986,0.6893397849166671
mp-776514,Li2FeF6,0.312899999999999,-2.702572726348889,0.0
mp-773750,V3(O2F)2,0.2564,-2.7024111485977764,0.0271980511111262
mp-767632,VPO4,2.071399999999999,-2.7023690575992063,0.0042489370833322
mp-767309,LiMn2OF3,1.9013,-2.702231795605713,0.0584331160714279
mp-707645,Na2Ca3B5H2S2ClO18,5.481,-2.702220134832072,0.0013665504617534
mp-698206,Ba5Re3O16,0.5103,-2.702208782708333,0.0
mp-1020181,Na2ZnB6O11,4.7511,-2.7021387444375,0.0020324472499986
mp-16947,LiAlGeO4,3.1826,-2.7021222933333333,0.0
mp-29355,NaTeF5,5.2511,-2.7021012690642863,0.0
mp-3307,BaSO4,4.5086,-2.702026568177084,0.1320646541666637
mp-676985,YbPaO4,0.0,-2.7019768866666665,0.5853569641666674
mp-778326,Ti3FeNi2(PO4)6,0.6998000000000001,-2.701862679960317,0.0275080092187671
mp-14526,Na4Hf2(GeO4)3,3.6565,-2.701857598095238,0.0
mp-558045,NaLi2PO4,5.1689,-2.7018342410119045,0.0
mp-764229,LiV(OF)2,2.0841,-2.70183403998,0.026947801666683
mp-4802,La4Re6O19,0.0,-2.70182624599138,0.0
mp-546125,ScAsO4,3.5491,-2.7018156641666664,0.0
mp-764241,VOF3,3.2211,-2.701596441964,0.0291572475000023
mp-704950,SrFeSn(PO4)3,2.7579000000000002,-2.701587700238095,0.0
mp-774113,LiVSiO5,2.0428,-2.701531565781249,0.0544475450000012
mp-722729,Yb6Cl13,0.0,-2.70151925302,0.0287652137757907
mp-7487,BaO,2.767,-2.701491535625,0.1324158850000003
mp-756933,TaTlO3,0.44579999999999903,-2.701448507750002,0.0023555127500021
mp-12233,ZnB4O7,4.6601,-2.701434719513889,0.0
mp-770522,Li2AlVO4,2.502399999999999,-2.70136684375,0.0910965640625018
mp-35795,BiPbF5,4.297000000000001,-2.7012348165642863,0.0550018089285702
mp-777200,Li2MnPO4F,3.6683,-2.7011818197494732,0.0709697315277768
mp-16996,Li3GaSiO5,3.6429,-2.7010965013749995,0.0
mp-770325,LiVB2O5,2.2631,-2.7010949563425917,0.0385327711111092
mp-561194,La10S14O,1.9410999999999992,-2.701092742125001,0.0
mp-646397,Sm2(MoO4)3,3.2356,-2.7010727464705884,0.0
mp-766141,Mn2NbV3(PO4)6,0.0,-2.701048085291428,0.0204829338888874
mp-28062,Sb2F7,3.8056,-2.7010245259255563,0.0
mp-705056,LiVP2O7,1.9593,-2.701017560449133,0.0439294545454558
mp-850876,VOF3,2.9217,-2.700950436964001,0.0298032525000016
mp-559057,NbTl(BO3)2,3.4093,-2.7008919225833337,0.0
mp-315,PbF2,4.395099999999999,-2.7008342174599997,0.0
mp-864766,NaMgSO4F,5.6118000000000015,-2.7008260762815617,0.0
mp-554701,SbP(OF3)2,4.3964,-2.700790061773524,0.0
mp-769887,NbVO5,1.785299999999999,-2.700756070892858,0.0291936939285708
mp-705582,Mg9V10O24,0.9199,-2.7007325520930228,0.0813711486046439
mp-32495,Li3V3(PO4)4,1.8287,-2.700393948360805,0.0310498263461704
mp-541275,Cs2U(Cl2O)2,2.3217,-2.7003845572822223,0.0
mp-849686,V3(O2F)2,0.8214,-2.700162818042221,0.0294463816666805
mp-559783,Na3B(PO4)2,5.168,-2.7000729275255098,0.0
mp-540682,Nb2CoO6,2.3241,-2.6999991669444436,0.0
mp-28959,Si2Cl2O3,5.6739999999999995,-2.6998856686100003,0.0265012555357131
mp-743573,KBaFe2(PO4)3,2.5398,-2.6995764783834595,0.0
mp-3953,CaCO3,4.999499999999999,-2.6994553752500003,0.0
mp-764046,V3(O2F)2,0.45580000000000004,-2.6992754541533333,0.0303337455555698
mp-768958,Ba2Y5Cl19,4.2872,-2.69916311017077,0.0819445605769226
mp-773906,KNaZrSi3H4O11,4.920400000000001,-2.69912285717762,0.0
mp-768223,Cs2CeO3,2.2437,-2.699109160625,0.0
mp-773547,Li3Fe2OF5,2.848,-2.6988190129272724,0.0864122586363649
mp-23656,Na4Ga3Si3ClO12,4.1073,-2.6988137666634784,0.0
mp-773674,Li4Ti3V3(FeO8)2,1.195,-2.6986938353571426,0.0353483045242786
mp-684534,LiNbP4O13,2.229,-2.6986402203226816,0.0142454297018153
mp-764257,W7(OF5)6,3.4979,-2.6986027977488374,0.0156934616279036
mp-763026,V3(O2F)2,0.40950000000000003,-2.698542930264443,0.0310662694444587
mp-754384,ScTlO2,0.9721000000000001,-2.698537831874998,0.1002536442187507
mp-765210,W7(OF5)6,3.4889,-2.6984975786790697,0.0157986806976708
mp-559653,SrCa(CO3)2,4.7734,-2.6984495427500006,0.0090125492499986
mp-754157,AlInO3,2.1581,-2.6983670767500008,0.0348233219999984
mp-33753,TaHO3,2.7443,-2.698359927973999,0.0673520547500015
mp-28448,DyCl3,3.8943,-2.6982477853616667,0.0
mp-768483,Lu3Sb5O12,3.1058,-2.69819705125,0.0
mp-780260,TiGeO3,1.134899999999999,-2.6981817250833338,0.0413064019999982
mp-774090,LiTiFeO4,1.3314,-2.6980968245238097,0.0178491165306358
mp-764776,LiV3O5F3,1.115,-2.6980472079016664,0.0438023633796254
mp-18204,Ba5Yb8Zn4O21,0.0,-2.697996675427632,0.0567339384649088
mp-776125,Ti3Cu2Sn(PO4)6,0.5726,-2.697969927043652,0.0171567074305585
mp-768450,Tm3Sb5O12,3.108899999999999,-2.6977922135,0.0
mp-616587,RbPO3,4.8466000000000005,-2.6977639288690485,0.0
mp-685150,PbF2,4.3707,-2.6977280207933334,0.0031061966666676
mp-675831,Bi2Pb3F12,4.4481,-2.6976937314282345,0.0487659985294115
mp-556235,CaCO3,4.9926,-2.6974205197500005,0.002034855500006
mp-685136,BiF3,5.0761,-2.6972463983925,0.1005420331250004
mp-758496,LiTi(PO3)4,0.0,-2.697173553141535,0.0965907991230112
mp-24922,KCrP2O7,2.8453999999999993,-2.697094524085497,0.0
mp-762430,LiCrSiO4,2.572999999999999,-2.6970271455357144,0.0904935601785741
mp-995225,CsBaSiHO4,3.9698,-2.6969583954525,0.0446075072916647
mp-772591,Li2Mn2Si2O7,2.4605,-2.6969227288976927,0.0488178441346098
mp-3924,LiNbO2,1.579499999999999,-2.696878413125,0.0
mp-642482,Sr7Mn4O13,1.1903,-2.6968616806287495,0.0248591887916589
mp-5504,BaCO3,4.3837,-2.6968357782500005,0.0
mp-777860,Li2FeF6,0.17750000000000002,-2.6966891852377786,0.0058835411111113
mp-783909,Li2MnSiO4,2.879099999999999,-2.6966630366825,0.0082159028125001
mp-23614,SrNb2Bi2O9,2.4638,-2.696541699732144,0.0
mp-20072,LaCuO2,2.516199999999999,-2.696518973124999,0.0
mp-1017446,HfCdO3,0.0,-2.6961795147500003,0.280297914500002
mp-4135,RbPO3,5.109100000000001,-2.6961451978690483,0.0016187309999997
mp-18719,KLu(WO4)2,3.2443,-2.696078743333333,0.0
mp-31903,Ta2MnZn2O8,2.9972,-2.696061030458462,0.0167775728846137
mp-625054,AlHO2,5.142600000000001,-2.69595027653,0.0
mp-743601,CaFeSn(PO4)3,2.4913,-2.6958988977380955,0.0
mp-773161,NbV5(PO4)6,0.0,-2.695800190793651,0.0315472715624984
mp-771132,Ba3Ga4O9,2.9232,-2.695683427265626,0.0
mp-771678,NaFe2(SiO3)4,0.0,-2.695558733684211,0.0611046756249802
mp-767979,Li2MnOF2,1.5452000000000001,-2.695486130765,0.0919173266666666
mp-771551,Li3VSiBO7,1.5995,-2.6954294892628203,0.0766835340384606
mp-770589,Li3Al2FeO6,2.345999999999999,-2.6952620685416666,0.06106203625
mp-849504,Ta2CrNO5,1.435999999999999,-2.695215708736667,0.061839146666669
mp-13981,KPO3,4.821199999999999,-2.6950084988690484,0.0125928890000066
mp-700135,Cs2U2Mo3O16,2.4489,-2.69500485347826,0.0
mp-849238,Li2MnSiO4,2.882399999999999,-2.694888856995,0.0099900824999998
mp-765943,Li3V2(O2F)2,0.8773000000000001,-2.694808833852727,0.0657704461742296
mp-763504,Li3Mn8(OF3)4,0.0,-2.694802876554073,0.0695706859259237
mp-27661,U2Cl5O2,0.0,-2.6946983432,0.0
mp-8255,CaPtF6,2.643,-2.6945336658925,0.0
mp-755219,ScTlO2,0.8223,-2.694482066875,0.1043094092187502
mp-767726,Li2Fe2Si3O10,2.3253,-2.6944595604411767,0.0445039026470377
mp-758447,LiTi(PO3)4,0.21700000000000003,-2.6944562049470897,0.0993081473174566
mp-4360,NaCdF3,3.513,-2.694347058714,0.0
mp-504540,Na11U5O16,0.0,-2.6942127478125,0.0752262595312505
mp-774346,Li3V2(PO4)3,0.021900000000000003,-2.6940943447142858,0.0447971639999886
mp-775454,Li2MnSiO4,2.8799,-2.694031945432501,0.0108469940624988
mp-735530,Ba2Fe3P6HO22,2.5383,-2.6939878877850427,0.0
mp-680122,TlB5O8,5.1834,-2.6939753353273796,0.0
mp-780918,Li2MnSiO4,2.9646999999999992,-2.6938443573074995,0.0110345821875004
mp-565851,SrFe2(P2O7)2,2.5887000000000002,-2.693713541422901,0.0
mp-770847,La2Cd2O5,1.3022,-2.6936717465277766,0.0794855597222232
mp-853164,Li3VO3F2,3.3379,-2.6935440467922227,0.0750353927777798
mp-778268,Ti3CrSb2(PO4)6,0.0,-2.6935159910714295,0.0858269754166656
mp-775225,Nb3Ni(PO4)6,0.0,-2.6934361531932773,0.0049760902757736
mp-764396,Li3V2(O2F)2,0.8582999999999991,-2.693380458398181,0.0671988216287751
mp-777185,Li4V2(PO4)3,0.521199999999999,-2.693335286632653,0.0216940778643461
mp-776760,Ti3FeSb2(PO4)6,0.0,-2.6932759594047617,0.0846632048148361
mp-622521,BaNd2(MoO4)4,3.4405,-2.693236450869565,0.0046594043478407
mp-762791,LiCrPO4F,1.9798,-2.693189177098155,0.0714643596874982
mp-765135,WOF4,4.4088,-2.6930577326683327,0.0
mp-770148,Li3VB4O9,2.7324,-2.6930569734068626,0.0517869919117659
mp-776012,Ti3FeCu2(PO4)6,0.0,-2.693024896904762,0.0154341167014404
mp-1019794,K3LiP2O7,4.876,-2.6929808096108063,0.0
mp-31905,Ta2Mn4O9,2.4553,-2.692859038006001,0.0
mp-9138,RbPO3,4.7607,-2.692792652869048,0.0049712759999991
mp-32500,Mg2V2O7,2.7138,-2.692663140795455,0.0
mp-764424,Li3V2(O2F)2,0.9366000000000001,-2.6924994867315144,0.0680797932954764
mp-4190,CaSnO3,2.9435000000000002,-2.69245495275,0.0
mp-32516,LiV2P3O11,1.8201999999999992,-2.6923302690021016,0.0390888564705811
mp-782717,Ta2CrNO5,1.0376,-2.6923019859588866,0.0647528694444492
mp-6568,BaCa(CO3)2,4.687,-2.6922739962500004,0.0058715805000009
mp-762251,Ti9Fe11O30,1.3462,-2.6922111595500007,0.0299839794461753
mp-764427,Li3V2(O2F)2,0.919899999999999,-2.6920831521860604,0.0684961278408966
mp-561412,CaCO3,4.9539,-2.69207604025,0.0073793350000057
mp-705116,Sr2MnMoO6,1.0287,-2.691872418846001,0.0067978044999978
mp-849982,Ta2CrNO5,1.355299999999999,-2.69180418707,0.065250668333336
mp-623382,BaFe2(P2O7)2,2.372499999999999,-2.6917705571371884,0.0
mp-40356,BaLaMnMoO6,0.0,-2.691735278846,0.1549947877222237
mp-779201,Li6MnV3(PO4)6,0.0,-2.6917302059882857,0.0243508637500129
mp-38035,SrCO3,4.6569,-2.69169050225,0.0237783065000014
mp-764442,Li3V2(O2F)2,0.9313,-2.6916082264284844,0.0689710535984726
mp-619064,PrMnGeO5,1.094399999999999,-2.6915693777762506,0.0
mp-764828,LiMn2OF3,1.4871,-2.6915393066771425,0.0691256049999999
mp-764441,Li3V2(O2F)2,0.948099999999999,-2.6915088079436367,0.0690704720833546
mp-766613,LiVP2O7,2.0382,-2.69146729681277,0.0534797181818182
mp-849311,MgSb2H2F14,4.4907,-2.6914601404684206,0.0
mp-561170,Ba3ZrRu2O9,0.0,-2.6914494714166675,0.0010461306666522
mp-764788,LiMn2OF3,1.8555000000000001,-2.6914199723914285,0.0692449392857135
mp-757658,LiTi(PO3)4,0.11630000000000001,-2.691408961197091,0.1023553910674559
mp-560265,CaCO3,4.9436,-2.6913623172500007,0.0080930580000062
mp-554774,RbLu(SO4)2,5.8838,-2.691359087760416,0.0
mp-762570,Li3FeSi2O7,2.511599999999999,-2.6913468402884604,0.0573835657692285
mp-764754,LiV3O5F3,1.147199999999999,-2.691338597901666,0.0505109733796258
mp-19594,Sc2(MoO4)3,3.5309,-2.6912585194117646,0.0
mp-764331,LiVSi4(HO6)2,1.7726,-2.691154102362,0.0979833743750004
mp-18739,BaYMn2O6,0.0,-2.6910558336919994,0.0751527426666669
mp-566132,KEr(WO4)2,3.286,-2.691006599166668,0.0
mp-625152,AlHO2,5.546000000000001,-2.69097830653,0.0049719699999997
mp-776815,LiFe2F5,2.5664000000000002,-2.6909061188687495,0.1576893237500005
mp-763583,LiVP2O7,2.2103,-2.690876542949133,0.0540704720454554
mp-780833,Li2MnSiO4,2.962099999999999,-2.6908156044950005,0.0140633349999994
mp-762534,Li2Fe2(SiO3)3,3.0875,-2.690736593203125,0.0773167006249968
mp-771682,Li2TiV2O6,0.9608999999999991,-2.6906198549242437,0.093603196477277
mp-762708,Li7MnP4O14F,3.9907,-2.690441987852999,0.0684298661574098
mp-763733,Li2CrPO4F,2.617299999999999,-2.6904404768650267,0.0264896351851877
mp-765252,LiV3(O2F)2,1.4523,-2.690348769738,0.0712541404444433
mp-542432,Sr2MnGaO5,0.0,-2.69034662969,0.0
mp-775060,LiTiFeO4,2.0614,-2.6903098091666675,0.0256361318877775
mp-777202,Na3V2(PO4)3,1.918499999999999,-2.690297193714287,0.0
mp-772087,Er3Sb5O12,3.1169000000000002,-2.6902607207500004,0.0
mp-754790,Ti3N2O3,1.5473000000000001,-2.690213361688749,0.0045745415700011
mp-763454,LiMn2OF3,1.308,-2.6901042638200003,0.0705606478571416
mp-28044,TmCl3,4.917,-2.6899112486949996,0.0
mp-560058,Li9Ga3P8O29,3.3283,-2.689881395734936,0.0095354906292524
mp-15379,K2SiO3,3.7441,-2.6898769496527786,0.0
mp-25418,LiTiPCO7,2.8265000000000002,-2.6898699155465384,0.0244511606818012
mp-777099,LiMnOF2,0.9907999999999991,-2.689860928918,0.0218612502500104
mp-19561,Mn3Cr2(SiO4)3,2.8887,-2.6897780592690004,0.025272788999997
mp-765939,MnF3,1.3373,-2.6895005411325004,0.0918985566666661
mp-772433,Li2Cr(BO2)5,2.237,-2.689405853657408,0.0777186332407495
mp-770689,Li2MnAl2O6,1.954899999999999,-2.6892769339509095,0.0809232151515111
mp-763234,Li3Mn2P2(O4F)2,0.642099999999999,-2.6887196700288527,0.0221225453676785
mp-698669,Nd2(MoO4)3,3.5548,-2.6886791305882345,0.0
mp-776662,LiCrPO4F,1.4027,-2.688593076004405,0.0760604607812478
mp-779348,Ta2CrNO5,1.2699,-2.6885563476255547,0.0684985077777824
mp-557451,CsReOF6,2.9741,-2.6883795417655563,0.0
mp-10062,Ba2NdNb(CuO4)2,0.0,-2.6883511119642853,0.0046556121428462
mp-690531,La5Mn5O18,0.0,-2.6883309338321424,0.0644242802343697
mp-758056,LiTi(PO3)4,0.250399999999999,-2.688265218558201,0.1054991337063455
mp-767588,LiMnF5,0.5943,-2.688055107415713,0.0214544026488123
mp-767188,LiMn2OF3,1.5709,-2.6879823845342847,0.0726825271428559
mp-505428,Ce2(WO4)3,0.07929999999999901,-2.6877917576470582,0.091872994162891
mp-755054,Ti3N2O3,1.448699999999999,-2.6877793916887507,0.0070085115699995
mp-763389,Li2Co(SiO3)2,3.2331,-2.6876155161363644,0.053286091363625
mp-782679,V3(O2F)2,0.418799999999999,-2.687607854153333,0.0420013455555689
mp-11737,Li4SiO4,4.7841000000000005,-2.6875899755555555,0.0
mp-764397,Li3V2(O2F)2,0.8928,-2.6875131670345453,0.0730661129924108
mp-1034797,RbNaMg14O15,1.32,-2.6874717036693543,0.2073607565725819
mp-673156,Li2NbP4O13,0.40549999999999903,-2.6874653269315485,0.0630568035428522
mp-1020024,Li6B4O9,4.8958,-2.6874254131798243,0.0
mp-768334,LiMn2OF5,0.0,-2.6873430857355554,0.0791445059722244
mp-18935,K2V(PO4)2,2.6958,-2.6872661997069605,0.0074361023076994
mp-771762,Ho3Sb5O12,3.1294,-2.687040938,0.0
mp-677385,Sr6La4Mg2Ru3O20,0.0,-2.6870094757142855,0.2670529422857095
mp-556458,BaCa(CO3)2,4.126200000000001,-2.6869731892500006,0.0111723875000002
mp-765887,Li4NiOF4,1.8989,-2.686691642600999,0.036226145999997
mp-770136,Li4MnV(PO4)3,1.8183999999999991,-2.6865813769164624,0.0282128314285721
mp-760837,Rb3Nb20O34,0.0,-2.6865590261842107,0.0159305252192965
mp-761325,Li2MnSiO4,2.7378,-2.6863867332449995,0.0184922062500003
mp-772534,LaSCl,2.4524,-2.6863078728575007,0.0194810768055662
mp-568170,TbCl3,4.3206,-2.6862112945283334,0.0238584637499998
mp-697818,Sr2Pr2MnCuO8,0.0,-2.6861648039971424,0.1521828245535559
mp-776875,Ta2CrNO5,1.4326,-2.6860285387366662,0.0710263166666695
mp-763957,V3(O2F)2,0.21799999999999903,-2.6860258547088884,0.0435833450000142
mp-767597,LiMnF5,1.9944,-2.685990488487142,0.0235190215773837
mp-764252,VOF3,3.4794,-2.6859582439639995,0.0447954455000028
mp-763247,LiVSiO5,1.759499999999999,-2.68590440015625,0.0700747106250005
mp-765907,LiMnF5,1.501399999999999,-2.685890704737143,0.0236188053273869
mp-553939,CaCO3,4.7004,-2.6858511612500005,0.0136042140000061
mp-768020,Li2MnSiO4,2.8232,-2.6857104519950004,0.0191684875
mp-687091,Rb2U2Mo3O16,2.3517,-2.68570693423913,0.0054893614130424
mp-34022,Mg2SnO4,2.5338,-2.685405769285714,0.0
mp-630511,Ca2FeClO3,0.9904000000000001,-2.685317655287143,0.0277915350000004
mp-770764,Li2Fe(BO2)5,3.0402,-2.685130705879629,0.0152466069444363
mp-554528,TiMn2O4,1.387999999999999,-2.6850324419409524,0.0055894057142893
mp-559848,Li4SiO4,4.9532,-2.6849934483333335,0.0025965272222219
mp-767742,Li3VSiO5,1.6548999999999991,-2.684987076875,0.0484977637500065
mp-15363,Li6Yb(BO3)3,0.0,-2.6846013174342107,0.0
mp-19103,LiCrP2O7,2.7339,-2.6845297631764065,0.0
mp-29550,Ba2EuCl7,0.0,-2.684358761032,0.0036297987499898
mp-778983,Li6MnV3(PO4)6,0.13640000000000002,-2.6842494002382864,0.0318316695000122
mp-562854,CsNb2BiO7,2.4814,-2.684177347613636,0.0
mp-541599,La3Co3O8,0.0,-2.684161391428572,0.0368182239285719
mp-18109,RbDy(SO4)2,5.666399999999999,-2.6841421824826384,0.0
mp-560618,FeSiP3O11,2.8624,-2.684135561752232,0.0
mp-28294,Sb11F43,3.509299999999999,-2.6840841113179628,0.0