mpid,formula,BG,FE,e_hull
mp-540133,LiCoP2O7,0.6818000000000001,-2.3486197804491344,0.0616552722727288
mp-776246,Zr2N2O,1.5631,-2.348610042701999,0.0046950775000009
mp-777240,Li2FeO2F,2.3225000000000002,-2.3485999139483336,0.0962636750000003
mp-554828,Na2Be(GeO3)2,3.7105,-2.348545986136364,0.0
mp-764775,Li7VO5F,1.9844,-2.348545412317144,0.0673604626785735
mp-766238,Zr2N2O,1.601499999999999,-2.348521426952,0.0047836932499993
mp-763557,LiCoSiO4,1.3329,-2.3484906535714294,0.0873163799285574
mp-775843,Zr2N2O,1.6504,-2.348479660452,0.0048254597500001
mp-764750,Li3Fe8(BO3)8,1.6965000000000001,-2.3484381505426355,0.065523046206378
mp-776260,Zr2N2O,1.650399999999999,-2.3484338279520003,0.0048712922499998
mp-775861,Zr2N2O,1.681,-2.348415261452,0.0048898587499994
mp-775823,Zr2N2O,1.6481000000000001,-2.348414745702,0.0048903745000004
mp-771287,Mg2FeO4,0.0,-2.348360519285715,0.0910576977678605
mp-764590,Li3Fe8(BO3)8,1.4989000000000001,-2.34832051868217,0.0656406780668454
mp-773396,Cr4P2O9,2.018599999999999,-2.3482912368293656,0.0619672879743653
mp-779243,Fe3(OF2)2,1.3245999999999991,-2.3482270835844443,0.0848401661111086
mp-764591,Li3Fe8(BO3)8,1.6831,-2.3482270612403093,0.0657341355087055
mp-764523,Li7Fe8(BO3)8,1.5200999999999991,-2.348223155602837,0.0658265790425502
mp-775262,Fe5O3F7,0.784799999999999,-2.3481296708053336,0.1154142396666655
mp-770914,Na3Li3Fe2P2(CO7)2,3.826399999999999,-2.348120046295787,0.0245961076923055
mp-656880,Y2Mn2S2O5,0.0,-2.3480797092086356,0.3495578775875288
mp-764529,Li3Fe8(BO3)8,1.4078,-2.3480605682170537,0.0659006285319598
mp-774421,Li3Fe8(BO3)8,1.6997,-2.3480258796124023,0.0659353171366117
mp-556407,Ba3Bi2TeO9,2.1136,-2.3480110117500006,0.0
mp-561784,Ba6Na2Mn2Ru2O17,0.38320000000000004,-2.347969593902413,0.0
mp-752606,Li2CuSiO4,0.0,-2.347886254375,0.0628832950000015
mp-561233,Sm9(SbO)5,0.0,-2.347865611513158,0.0
mp-773717,Na3Li3Fe2P2(CO7)2,3.7783,-2.3478425782188643,0.0248735757692291
mp-765494,Li3Ti2(NiO4)2,0.5497000000000001,-2.3478295535555564,0.0581310322294674
mp-776314,Zr2N2O,1.6107,-2.347633674452,0.00567144575
mp-773524,Na3Li3Fe2P2(CO7)2,3.7383,-2.34762764187271,0.0250885121153832
mp-972439,Zn3(PO4)2,2.9952,-2.3474609643223445,0.039072868846155
mp-776011,Cr2Fe3Ni(PO4)6,0.0,-2.347335786904761,0.0598190892361349
mp-557635,Sb2TeSeF10,1.5148,-2.347330791910268,0.0881264175111606
mp-853143,MnOF,0.0,-2.3472520919666664,0.0516980745833377
mp-775824,Zr2N2O,1.6551,-2.347209898202,0.006095221999999
mp-1031091,RbLiMg6O7,0.0,-2.3472054379166667,0.4275769812499997
mp-776281,Zr2N2O,1.5861,-2.3471493874519997,0.0061557327500008
mp-765351,Li2Sn4P4O15,2.894399999999999,-2.3470621742452384,0.0979859360999917
mp-1020721,Zn2SiO4,2.2529,-2.3469553314285707,0.1110938290476157
mp-850536,BaGa12O19,1.9291,-2.346900912148437,0.0151011543750012
mp-775867,LiSbPO5,1.594799999999999,-2.3468602541369044,0.0695673245312527
mp-704206,Fe9(PO4)8,1.6058000000000001,-2.3467603890767745,0.0770505496938618
mp-607931,Cs3NaLi2(BO3)2,3.453999999999999,-2.346702848273809,0.0
mp-764491,LiFe2(BO3)2,1.1301,-2.346656094621212,0.0694272419886612
mp-761996,Li2CoNi(PO4)2,2.565699999999999,-2.346654996870749,0.0167981595535744
mp-707443,Na7AlH2C4(O3F)4,4.7979,-2.3466520534000006,0.0
mp-771588,Li6Nb3Fe3O16,0.013499999999999,-2.346644623214285,0.1090081385267822
mp-779246,Fe3(OF2)2,1.3084,-2.3465990485844443,0.0864682011111082
mp-776362,Zr2N2O,1.577299999999999,-2.346478764452,0.0068263557500003
mp-767844,Li12VCo3P4(CO7)4,0.7799,-2.3464249895650187,0.0497138044966938
mp-764621,Li3Fe8(BO3)8,1.496,-2.346388412170542,0.0675727845784734
mp-780353,Na6B4Sb2SO16,0.0,-2.346277201232041,0.0725341104956776
mp-775264,Li4Ti2Co3O10,0.6943,-2.3462516508333326,0.0678235039473413
mp-770061,Li2FePCO7,2.269599999999999,-2.3462338641121026,0.0103399582812597
mp-771900,Li3AlCoO4,1.9464000000000001,-2.346161531805554,0.0302394393055571
mp-775844,Zr2N2O,1.5814000000000001,-2.346040453702,0.0072646664999993
mp-762232,LiCoSiO4,1.1803,-2.346036199285715,0.0897708342142724
mp-762614,Li2TiMn3O8,0.9567000000000001,-2.3459765430628567,0.0719906345002732
mp-757306,LiCu(PO3)4,0.5950000000000001,-2.345951245965608,0.0135734579745507
mp-973830,KErO3,0.0,-2.3458549897500007,0.2454735275833331
mp-27318,Sb3(BrF8)2,0.055900000000000005,-2.3458244311447616,0.0
mp-8957,Na5TaO5,2.538,-2.345784917840909,0.0
mp-779083,Li2V3SnO8,0.0,-2.3457634967857137,0.0885828138393503
mp-762244,Li2AgF4,0.5475999999999991,-2.3456892135371428,0.0954845628571439
mp-770049,Li5Fe2P2(CO7)2,1.4239,-2.345664108347618,0.0450488059999987
mp-763746,Li2FeSiO5,0.0,-2.345663202916666,0.1093132440972217
mp-779998,Li2FeO2F,2.0665,-2.3456535947816666,0.0992099941666664
mp-770054,Li2FePCO7,2.105099999999999,-2.345586941195436,0.0109868811979092
mp-23101,Nb2Bi2PbO9,1.1775,-2.345574183660714,0.0412514817857179
mp-8711,Cs2Li14Tb3O14,0.0,-2.345567420530303,0.0433938750000013
mp-27831,Rb2ZrCl6,3.562,-2.3454992777288894,0.0
mp-975564,PuBO3,0.0,-2.3454120354583337,0.7873219536666658
mp-752858,Li2CuSiO4,0.0,-2.34539692875,0.065372620625002
mp-766060,Li3Fe8(BO3)8,1.4476,-2.3453793993798446,0.0685817973691698
mp-764874,Li3Fe8(BO3)8,1.566,-2.345374823333333,0.0685863734156821
mp-541612,La4Os6O19,0.0,-2.3453601332327594,0.0
mp-773219,LiCoB2O5,1.162,-2.3453290193981484,0.0686919064880928
mp-764660,Li3Fe8(BO3)8,1.6402,-2.3453172935658912,0.0686439031831227
mp-764971,Li3Fe8(BO3)8,1.5276,-2.345242768914729,0.0687184278342858
mp-771294,Li2FePCO7,2.341199999999999,-2.345055988903769,0.0115178334895764
mp-771292,Li2FePCO7,2.1595,-2.3449643434871024,0.0116094789062435
mp-776905,LiFe2F9,0.6686000000000001,-2.344938835475834,0.0623827894841664
mp-776711,Li2FeO2F,1.9983000000000002,-2.344880846031666,0.0999827429166675
mp-764545,Li3Fe8(BO3)8,1.5066,-2.3448580661240306,0.0691031306249829
mp-776597,NaCu(PO3)4,0.7094,-2.3448305259656075,0.0034332182291656
mp-777082,TiNi3Sn2(PO4)6,1.9098000000000002,-2.3448256679232804,0.0869124522453868
mp-743680,K5HfIn(MoO4)6,3.7106,-2.3446572447297296,0.0
mp-505436,CuP4O11,0.5740000000000001,-2.3445036396019336,0.0
mp-698491,NaCa2Al4H8C4ClO20,5.1711,-2.344502306305499,0.0
mp-764796,Li3Fe8(BO3)8,1.6373,-2.344408199379844,0.0695529973691702
mp-19665,NaCoPO4,2.691599999999999,-2.344364587942177,0.0331765785714184
mp-673024,LiSn4(PO4)3,3.7885,-2.3442751137142865,0.0292450538333328
mp-769626,Li4Mn2Nb3Fe3O16,0.1957,-2.3441848950685715,0.1511781459374592
mp-777555,MnV2O6,1.9661,-2.3441185553844446,0.0
mp-771304,Li3SiSbCO7,3.4543,-2.3441034804807703,0.0880626074038559
mp-761979,LiCoPO4,2.3118,-2.3440835393707493,0.0902682662500016
mp-867296,RePO5,0.0,-2.3439973445493196,0.0
mp-772281,Mn5Co(PO4)6,0.0,-2.3439906914825404,0.0613410624305448
mp-770526,Li6Fe2B4SO16,0.0,-2.3439147305423846,0.0833279625430991
mp-764722,Li3Fe8(BO3)8,1.4157,-2.3438578531007748,0.0701033436482401
mp-698608,Ti5Fe11O24,0.9222,-2.343849248583333,0.122892275865377
mp-8504,Yb2TeO6,0.0,-2.343819430833334,0.0
mp-764525,Li3Fe8(BO3)8,1.369999999999999,-2.3437621898449605,0.0701990069040547
mp-767749,Li12MnCo3P4(CO7)4,2.0062,-2.3437575574680953,0.0452656336538463
mp-771898,Cs2SO4,4.5791,-2.343632153794643,0.0351096596428579
mp-776010,Cr2Fe3Cu(PO4)6,0.5381,-2.343573620515873,0.061075692414521
mp-764513,Li3Fe8(BO3)8,1.668399999999999,-2.3435570072868206,0.0704041894621934
mp-763462,Li2Co3(SiO4)2,2.4703,-2.343543287777777,0.0229546398888906
mp-776712,Li2FeO2F,2.083,-2.343531881448333,0.1013317074999999
mp-776047,Mn3Cr2Ni(PO4)6,0.020900000000000002,-2.3433858147625397,0.0787725497916911
mp-767745,Li6Mn2O5F2,0.8142,-2.3433628263699995,0.0703108170000099
mp-771438,Na3Li3Fe2P2(CO7)2,3.7557,-2.34334450360348,0.029371650384613
mp-777974,Li3Fe8(BO3)8,1.6527,-2.3432466347286818,0.0707145620203331
mp-768920,Ho2(SeO3)3,4.5173,-2.3432030172879466,0.0216980907142829
mp-758758,Li2CuSiO4,0.0,-2.3431631049999995,0.0676064443750021
mp-696457,ScP3(HO2)6,5.3068,-2.343118833909351,0.0
mp-556903,HgSb4C2(OF11)2,4.298,-2.3429486849574195,0.080809127903227
mp-868321,LiNi(PO3)4,1.1149,-2.3428361470767194,0.0652231267939953
mp-766609,Li3Fe8(BO3)8,1.3453,-2.3427795812403094,0.0711816155087046
mp-556645,RbNbAsClO5,3.1146,-2.3427641788344435,0.0
mp-764517,Li3Fe8(BO3)8,1.2487,-2.342744005658915,0.0712171910900991
mp-555840,K2PO4,3.2014,-2.342619220799319,0.0979082820535746
mp-1610,TbS,0.0,-2.3425634686979167,0.0
mp-761428,Li3Fe8(BO3)8,1.2724,-2.3424688340310067,0.0714923627180077
mp-758234,P2Pb3O8,3.2125,-2.342288336117216,0.0091391870512884
mp-780519,Fe3(OF2)2,1.162499999999999,-2.3422400363622216,0.0908272133333314
mp-767574,Li7Mn(O2F)2,2.317999999999999,-2.342237145595714,0.0710578671428647
mp-779930,Fe3(OF2)2,1.3468,-2.3422300485844447,0.0908372011111078
mp-771447,Na3Li3Fe2P2(CO7)2,3.7141,-2.3421886497573263,0.0305275042307666
mp-554601,RbCuF3,0.0,-2.3420417157139988,0.013125488
mp-769972,Li2FePCO7,2.4432,-2.3420127874454355,0.0145610349479099
mp-770162,Li2FePCO7,2.4693,-2.341984454320436,0.014589368072909
mp-779810,Fe5O3F7,0.6414000000000001,-2.3418695531386677,0.1216743573333323
mp-690542,Li4WO5,3.0471,-2.341795281624999,0.0336833635000006
mp-9805,KYb(CO3)2,0.0,-2.3417371742500004,0.0
mp-558632,KNaSO4,4.9597,-2.3416269091517856,0.014228915535714
mp-756869,K2TbO3,0.0,-2.3415874203472224,0.0765364274999997
mp-781622,Lu(HO)3,4.341,-2.341579066551429,0.0348367783928553
mp-945194,Na5(SiO3)6,0.0,-2.3415535733620687,0.2644028367888165
mp-775022,LiFeOF,0.0,-2.341548821860001,0.0835815837499973
mp-1019604,Cs2B2S3O13,5.8455,-2.341517430713543,0.0
mp-770542,MnP2O7,1.2775,-2.3414657750900485,0.056250317499999
mp-778638,Fe3(OF2)2,0.9068,-2.34144044914,0.0916268005555531
mp-772476,Na2CrSiCO7,0.8636,-2.341335676354166,0.0423529614583344
mp-779934,Fe3(OF2)2,1.3439,-2.341301799695556,0.0917654499999969
mp-769976,Li2FePCO7,2.5029,-2.3412798453621027,0.0152939770312423
mp-763500,LiCoSiO4,0.8915000000000001,-2.340948080357143,0.0948589531428441
mp-766064,Li3Fe8(BO3)8,1.4945,-2.3409390440310065,0.073022152718007
mp-767293,Li6MnNiP2(CO7)2,2.7338,-2.340897810371172,0.0499376257692345
mp-562338,USeO6,2.0194,-2.3408669432617195,0.0
mp-764741,Li3Fe8(BO3)8,1.3091,-2.340855949147287,0.0731052476017275
mp-707775,K2B5H5O11,4.8926,-2.340835290986231,0.0118193044021719
mp-775755,Li4Ti3Ni3(SbO8)2,1.0106,-2.340808097142857,0.0304811423214292
mp-770165,Li2FePCO7,2.441799999999999,-2.340802814945436,0.0157710074479098
mp-773690,Na2LiFePCO7,3.571499999999999,-2.3407466032188644,0.0171294459615367
mp-767823,Li3Fe2(PO5)2,0.0,-2.340708599040616,0.1009215035661741
mp-6368,CsSO2F,4.4107,-2.340646236050501,0.0
mp-773994,Li2V3FeO8,0.0,-2.340554452857142,0.0647745425148453
mp-775271,Li2Cr3WO8,2.1889,-2.340421521071429,0.0049612185714256
mp-760370,Bi6O5F8,2.9856000000000003,-2.34031401083,0.0198883407894747
mp-34015,Mg10(Fe3O8)3,0.0,-2.3402677593023253,0.0932112747529041
mp-30244,Mg2H2O3,3.5667,-2.340265598712857,0.0200884585714273
mp-771611,Li5V4O8,0.880799999999999,-2.3402040923529412,0.0507624796078429
mp-555866,K6Be4C6O19,4.8084,-2.340174386392857,0.0
mp-19513,SrV2(AsO5)2,1.6632,-2.3401734481666656,0.0035799090000034
mp-1019723,CsZn4(BO3)3,2.8217,-2.34013850625,0.0035255457352914
mp-763594,LiCoSiO4,0.7974000000000001,-2.340128568928572,0.0956784645714146
mp-769962,Li4TiFe3O8,0.6277,-2.340113633541667,0.0303262506250012
mp-40668,NaCoP2HO7,3.0988,-2.34008688988004,0.0012599927777596
mp-761292,Li2FeBO4,2.8278,-2.340082436770833,0.073701321874994
mp-769604,K2MnPCO7,1.0999,-2.340062704192104,0.0
mp-780577,Fe5O3F7,1.2357,-2.3400293178053344,0.1235145926666652
mp-18902,Li2WO4,4.877,-2.3399644692857144,0.0152815871428559
mp-774176,Li2V12O29,0.011499999999999,-2.3399430106104653,0.0566278570930247
mp-765031,MnOF,0.8831,-2.3399106902999995,0.059039476250005
mp-769693,Li2FePCO7,2.0804,-2.3398384157787686,0.0167354066145763
mp-977389,CeCuO3,0.0,-2.33973242275,0.4086678619999953
mp-762879,Li2MnV2O6,0.8170000000000001,-2.3397275248600007,0.1041464638636364
mp-769940,MnV2O4,0.8494,-2.3397144001371437,0.0832467142857229
mp-973953,NdCl2,0.0,-2.33969845134,0.0905053436111122
mp-706303,KCa2P4H9O17,5.3696,-2.3395940717033628,0.0123838835606058
mp-764524,Li3Fe8(BO3)8,1.3969999999999991,-2.339562201472868,0.0743989952761463
mp-25528,Li2FePCO7,2.4568,-2.3395454453621025,0.0170283770312424
mp-752701,LiCuF3,0.035100000000000006,-2.339544090213999,0.0217828284999983
mp-10254,Sr2IrO4,0.0,-2.3393416764285715,0.0348423078571444
mp-695887,K3Cu2P4HO14,0.3251,-2.3393092482708737,0.0
mp-774335,Sn2P2O7,3.1008,-2.339294978858226,0.0475134311363509
mp-762860,LiCoSiO4,0.736499999999999,-2.339267685357143,0.0965393481428442
mp-762935,LiCoSiO4,1.487,-2.3391782335714284,0.0966287999285588
mp-758708,Li2CuSiO4,0.0,-2.3390960524999995,0.0716734968750021
mp-765990,FePO4,2.5497,-2.3390820005158743,0.0887397054166667
mp-766877,Si6Bi9O26,0.0,-2.3390618657926843,0.0662633713414369
mp-17808,Nb2Zn4O9,2.5331,-2.33899609775,0.0474231511666634
mp-850968,LiVSnO4,1.4519,-2.3389862585714285,0.0
mp-758435,Li2CuSiO4,0.0,-2.3389695490625,0.0718000003125016
mp-753405,LiCuF3,0.46680000000000005,-2.3389345702140005,0.0223923484999977
mp-761726,LiCoPO4,2.8316,-2.338872816870748,0.0954789887500018
mp-676361,Li3ErCl6,5.2109,-2.3388234507893326,0.0
mp-780097,Fe3(OF2)2,0.26469999999999905,-2.3388174513622224,0.0942497983333305
mp-770161,Li2FePCO7,2.454,-2.3387464755704355,0.0178273468229264
mp-865526,TmSb(PbO3)2,2.5854999999999992,-2.3386513577500008,0.0
mp-777935,MnOF,0.022599999999999003,-2.3386474177999994,0.0603027487499945
mp-758715,Li2CuSiO4,0.5165000000000001,-2.338556039375,0.0722135100000018
mp-774040,Li3Co2(PO4)3,0.7849,-2.338504277214285,0.0549492044791648
mp-705480,MnF4,0.102399999999999,-2.338476569810666,0.0668639320833452
mp-775054,Ti3Mn3(TeO8)2,0.24000000000000002,-2.338392792203333,0.0482265997135371
mp-975361,RbErO3,0.0,-2.33838198575,0.2363166228750009
mp-556475,KLaPdO3,0.48660000000000003,-2.3382501572916667,0.0074097651388873
mp-542143,RbZn4(BO3)3,2.7811999999999992,-2.3382092733088244,0.0018042952205812
mp-542168,Cs2CoSiO4,2.7201,-2.338208867500001,0.0
mp-560352,SrP2(XeF6)3,2.6253,-2.3381743996921034,0.0
mp-761780,LiCoPO4,2.611199999999999,-2.3381491168707487,0.0962026887500018
mp-765302,Li5Fe2(BO4)2,2.0834,-2.33810796637255,0.058464252794125
mp-770228,Li2FePCO7,2.450799999999999,-2.338018535987103,0.0185552864062428
mp-868639,MnPO4F,0.13390000000000002,-2.337935263963605,0.0358613747817404
mp-763646,Sr3(CoO3)2,0.0,-2.3378583676515152,0.0243425730303021
mp-761618,LiMnPO5,0.0,-2.3377664219131544,0.0501813767447885
mp-763246,LiCoSiO4,1.3864,-2.337752263571429,0.0980547699285576
mp-753979,Sn2P2O7,2.9406,-2.337738253630953,0.0490701563636246
mp-762584,Li3Mn2V5O12,0.4797,-2.3377003957690903,0.1181926143181453
mp-772302,Mg2FeO4,0.0,-2.3376849864285725,0.1017332306250029
mp-27477,TcOF4,0.9928999999999991,-2.337598381557223,0.0
mp-733729,RbInPHO5,3.3688000000000002,-2.337477993523915,0.0
mp-32023,LiMn2(PO4)3,0.0,-2.33746446923365,0.0660368359027767
mp-767468,Li6Mn2O5F2,1.1377,-2.337370450703333,0.0763031926666766
mp-6384,RbSO2F,4.0947,-2.3371136195505,0.0
mp-773940,Na2LiFePCO7,3.6665,-2.3370862745650176,0.0207897746153831
mp-771127,Rb4TiO4,2.8866,-2.337032557407408,0.0
mp-19949,Sc2Cu2Ge4O13,0.190999999999999,-2.33703094529762,0.0069617304761955
mp-554239,NaSbCO2F3,3.098,-2.33693261450875,0.0311177611328128
mp-861265,LiNi(PO3)4,0.0,-2.33692667707672,0.071132596793995
mp-777499,MnOF,0.0,-2.336917491549999,0.0620326750000046
mp-773705,Na2LiFePCO7,0.002499999999999,-2.3367981545650176,0.0210778946153835
mp-771375,Li2FePCO7,2.4902,-2.3367495584871025,0.0198242639062433
mp-6652,KZn4(BO3)3,2.8165,-2.3366784283088244,0.0072081313725531
mp-1019789,K3B(SO4)3,5.2623,-2.336677007966009,0.0
mp-554266,Ba3SrIr2O9,0.0,-2.3366508077500003,0.0
mp-19115,CaFeO3,0.0,-2.3366498252500008,8.105250001211317e-05
mp-18700,K4SiO4,2.9391,-2.3366088949999995,0.0
mp-758498,Li2CuSiO4,0.0,-2.33659203375,0.0741775156250019
mp-765584,Sb(PO3)4,0.11949999999999901,-2.3365789238165267,0.0909891918382213
mp-780853,LiFe3P3(HO6)2,3.285,-2.3365248415012254,0.0082952942857117
mp-757282,Li2Sn5(PO4)4,2.4523,-2.3365214343474427,0.0661945670679129
mp-1020717,Zn2SiO4,2.1159,-2.3364550432142863,0.1215941172619015
mp-774381,LiFe4(BO3)4,1.7777999999999992,-2.3363602072222225,0.0632956482142859
mp-763677,VFe3Ni2(PO4)6,1.2288000000000001,-2.3363538319047623,0.0183692844444447
mp-761755,LiCu(PO3)3,0.10249999999999901,-2.336280672359694,0.080336607321418
mp-707172,K3P4H5O14,5.3502,-2.3362064106915748,0.0
mp-761941,Li2Cr3WO8,2.318,-2.3361445655357147,0.0092381741071498
mp-1020716,Rb3B(SO4)3,5.1274,-2.336105745992325,0.0
mp-767198,Li4CrNi3(PO4)4,1.535899999999999,-2.3360673215136054,0.0530946470982138
mp-697974,SmP3H5NO10,5.369999999999999,-2.3360470389882857,0.0
mp-764825,MnOF,0.075099999999999,-2.3360328473833327,0.0629173191666616
mp-764506,Li3Fe8(BO3)8,1.4035,-2.335933846821705,0.0780273499273089
mp-764006,Li3TiFe3O8,1.8205,-2.335894819444444,0.0448839420000011
mp-763241,Li3Cr2P2(CO7)2,0.11119999999999901,-2.3358546695082807,0.0476381098830094
mp-677416,Na5Mg5In3(SO4)12,3.694999999999999,-2.3358206193664395,0.0
mp-745164,FeP3(HO5)2,2.9486,-2.3357510057203568,0.0
mp-19142,Mn2V2O7,1.204,-2.3357099536972727,0.0
mp-767859,Li12CrCo3P4(CO7)4,1.2044,-2.335610033988096,0.0520726874053476
mp-647452,CaTi4(CuO4)3,0.0,-2.335546051083334,0.4301743973124985
mp-22918,PuCl3,0.0,-2.3354982266637503,0.0
mp-585266,MnP2O7,0.5326000000000001,-2.3354366735900483,0.0622794189999993
mp-770167,Li2FePCO7,2.449099999999999,-2.335387722862102,0.0211860995312429
mp-15349,Li2GeO3,3.568,-2.335348162291666,0.0
mp-770166,Li2FePCO7,2.452899999999999,-2.3353179861954363,0.0212558361979091
mp-770941,Li4Mn3Nb2Fe3O16,0.7705000000000001,-2.3352520486742847,0.0143827992857108
mp-850435,LiFe4(BO3)4,1.5541,-2.335076423888888,0.0645794315476209
mp-850431,LiFe4(BO3)4,1.7173,-2.335035066746032,0.0646207886904779
mp-778552,Fe3(OF3)2,0.19110000000000002,-2.3350245822399995,0.1109820147159146
mp-673101,LiSn4(PO4)3,3.262099999999999,-2.3350183812142857,0.0385017863333327
mp-761723,Li2Si4Ni4O13,3.444099999999999,-2.334884456141304,0.0411340856521711
mp-849707,NaV4O10,0.0,-2.3348462988333334,0.0460872976666628
mp-779976,Fe3(OF2)2,0.9697,-2.33483375414,0.0982334955555526
mp-863657,PmCl2,0.0,-2.33482550634,0.0196271663888882
mp-773678,Na2LiFePCO7,3.6296999999999993,-2.334810393411172,0.0230656557692299
mp-573281,KNa3Al4(GeO4)4,3.3229,-2.334703413392857,0.3328376126934529
mp-771352,Fe5Te(PO4)6,0.7252000000000001,-2.3345733230158734,0.0538945584374728
mp-764214,Li7VO5F,1.8857,-2.3344546123171432,0.0814512626785735
mp-767651,Li2SiNiO4,3.4006,-2.3343983340625,0.0607906040624994
mp-850429,LiFe4(BO3)4,1.6951,-2.334325137936508,0.0653307175000001
mp-558568,Rb2CdSiO4,2.4876,-2.3343170926562498,0.0
mp-559703,BaLa2Te5O14,3.2283,-2.3342724930681817,0.0
mp-758743,Li2CuSiO4,0.0,-2.334234146875,0.076535402500002
mp-779944,Li2CrPO6,0.8508,-2.334229078809524,0.0913708956369028
mp-27359,CsScCl3,0.0,-2.334224174956,0.0170005766666658
mp-767521,Na2InPCO7,2.7683,-2.3341348557787702,0.0
mp-762666,LiFe5P3O13,2.7297000000000002,-2.3341146707061693,0.0506134652272747
mp-770464,LaBiO4,0.6699,-2.3340911554166666,0.0582426078124944
mp-778341,Li4Mn3Ni3(PO4)6,0.5587,-2.3340266577862856,0.0706907530624869
mp-770080,Li2MnSiCO7,1.259399999999999,-2.334016754350833,0.0700566731250003
mp-780131,Li7MnNi3(PO4)6,0.0,-2.3340130187690606,0.0772721413871835
mp-769966,Li3TiFe3O8,1.8386,-2.334011879111111,0.0467668823333342
mp-764755,NaV4O10,0.0,-2.3338442164999997,0.0470893799999903
mp-755010,KYbO2,0.0,-2.333763583125,0.1394582849999999
mp-504808,P2W5O19,0.0,-2.3337517482669417,0.0036663088461441
mp-625959,Ta2H4O7,3.8863,-2.3337307356330768,0.1147015957692314
mp-541022,MnCr2O4,2.3724,-2.3336694822800004,0.0
mp-25080,Li2MoO4,4.1184,-2.3336324232539685,0.0
mp-762293,LiCoSiO4,1.2657,-2.333573187857144,0.1022338456428428
mp-697734,MoP4O13,1.1881,-2.3335095804794985,0.0755516254166677
mp-6560,KSO2F,3.9815,-2.333432280550499,0.0
mp-706386,ZrH6O3F4,5.383,-2.3333409707307142,0.0