mpid,formula,BG,FE,e_hull
mp-758689,Li3CuF4,0.8418999999999991,-2.6417196405950003,0.0842451453124999
mp-761955,Li6TiFe3(PO4)6,1.3799000000000001,-2.641700407380953,0.0542001653437491
mp-757375,Ti2Sn3O10,1.726599999999999,-2.641500279722222,0.0409449980000005
mp-777211,Mn2OF3,0.4899,-2.641436483623333,0.0517042718750042
mp-23831,NdHSO5,5.5593,-2.6413795798665616,0.0
mp-9784,BaBAsO5,3.4465,-2.6413736159895818,0.0
mp-863403,LiNbP2O7,0.261,-2.641364777267316,0.1354574239772938
mp-505046,Gd3Sb5O12,2.7146,-2.64136251475,0.0
mp-761308,Li2MnNb3O8,0.1527,-2.641358700782856,0.1116810045535725
mp-777191,LiFe2OF5,1.9051,-2.641321541725927,0.0707376436419764
mp-561183,KCrF6,1.3980000000000001,-2.6413063221425,0.0
mp-541626,K3Nb3Ge2O13,2.3239,-2.6412046093452393,0.0348552593650808
mp-865324,LuCl3,3.8453,-2.641155646195,0.0
mp-6064,Sr3MgPtO6,2.6841,-2.641153119772728,0.0
mp-578718,Nd6Mo10O39,3.1549,-2.6410945200681826,0.0058281523636338
mp-542931,Bi2B8O15,4.3762,-2.641062974683333,0.0
mp-561647,Cs2TeOF4,5.0193,-2.64104606012625,0.0
mp-774140,TiNi(PO4)2,2.7069,-2.6410451823214287,0.0331202227083302
mp-767202,Li6Mn(OF2)2,2.6568,-2.6410410756323066,0.1031595010256394
mp-566066,NaFe3Si3O10,1.3599,-2.6409296542647063,0.0027804964705921
mp-555201,NaCoF3,2.9522,-2.6408755007140003,0.0
mp-782720,LiTiV3O8,0.8689999999999991,-2.6406858974358967,0.1033654742948524
mp-765455,LiV2O3F,1.2002,-2.6405126642771424,0.0758843808928535
mp-765034,Mn2OF3,0.998699999999999,-2.64040869904,0.0527320564583329
mp-25631,VP2O7,1.518,-2.6404086299940466,0.0016522774999998
mp-773327,Li2VP2O7,2.671799999999999,-2.640287317911705,0.0673255683854163
mp-861482,LiMnPO4,3.5129,-2.6402352080793188,0.0099230189285721
mp-763676,Li4Ti2V5O12,0.269,-2.640210282536232,0.0258811249758519
mp-764795,Li2Fe4OF8,2.5323,-2.640152321384668,0.0733667943333351
mp-773116,La20S29O,1.941799999999999,-2.64008176968125,0.0059185450999983
mp-6345,Ba3TbRu2O9,0.0,-2.6400427479722226,0.0
mp-769985,LiCrB2O5,2.8547000000000002,-2.640007693287037,0.0491164570634907
mp-18783,Ca2FeMoO6,1.1193,-2.63994784525,0.0007268000000051
mp-770222,Li3MnV(PO4)3,0.9115000000000001,-2.639944106512285,0.0452240550624658
mp-6342,LiCa3RuO6,0.31110000000000004,-2.6399235297727275,0.0
mp-25623,KVBP2HO9,2.036,-2.639918158181809,0.0
mp-776675,Ti3Co2Te(PO4)6,0.49259999999999904,-2.6398437644047608,0.0825339587673612
mp-561012,Sr3Cu3(PO4)4,0.537099999999999,-2.6398059468223445,0.0137611423076968
mp-555363,Na2Cd(SiO3)2,2.87,-2.639748343409091,0.0202553140909111
mp-28030,Li8Nb2O9,3.2086,-2.639658675855263,0.0
mp-849235,Fe6OF11,1.5156,-2.6396333649633337,0.0220088405555545
mp-763445,Li2V3P9O28,1.9376,-2.639598370663265,0.0555742748215344
mp-25694,LaMn2O5,1.1301,-2.6395566332087497,0.0
mp-543034,Ba3Zn6Si4TeO20,2.6364,-2.6394480486764698,0.0
mp-19897,Eu2TeO2,0.0,-2.6394150945000012,0.0
mp-762319,Li4TiO4,3.8455999999999992,-2.6394062664351847,0.0800084859722254
mvc-15828,ZnBiF5,3.8792,-2.639243257278572,0.0812248375000006
mp-778888,Li3MnV(PO4)3,0.0,-2.639205153512285,0.0459630080624648
mp-4598,Sr4PtO6,2.214299999999999,-2.639172854772727,0.0
mp-770469,Li5TaO5,3.9015,-2.639030334204546,0.0276438927272719
mp-19358,SmMn2O5,1.088499999999999,-2.63895640383375,0.0
mp-540125,LiMnPO4,3.591699999999999,-2.638940398674558,0.0112178283333337
mp-755031,KPrPCO7,0.10989999999999901,-2.6389248526677496,0.0750133398295425
mp-17240,RbNa3Li12(SiO4)4,4.589,-2.6388831451388888,0.0
mp-3928,Na5P3O10,4.5287,-2.6388823467658717,0.0
mp-11022,ScAgO2,2.1151,-2.6387851006250003,0.0
mp-758251,Li5AgF8,0.35140000000000005,-2.6387281099657147,0.0371739657142837
mp-973185,ScAgO2,2.0645000000000002,-2.638709148125,7.595250000225208e-05
mp-23748,MgBHO3,5.437699999999999,-2.638706269214444,0.0
mp-690556,CaLaMnRuO6,0.0,-2.638670580346001,0.0
mp-763786,Li6Mn(OF2)2,2.6105,-2.638503721786153,0.1056968548717938
mp-560776,Sr3Cu3(PO4)4,0.294299999999999,-2.638451516053113,0.0151155730769279
mp-694925,Ti7(Fe3O8)3,1.1948,-2.638385750416666,0.060586332711539
mp-1020160,Na3Zn(BO2)5,4.222099999999999,-2.638254882675438,0.0
mp-773761,LiCo(SiO3)2,1.711,-2.6382482797499995,0.0522305159499962
mp-1034284,RbMg14BO15,1.1715,-2.638228258239248,0.3017114725659837
mp-560158,Na3Zn(BO2)5,4.2757,-2.638226695833333,2.818684209149325e-05
mp-690492,Ti5Fe7O18,1.3026,-2.6381184811944447,0.0221485088205088
mp-861563,Li3VSiO5,1.6511,-2.637962780125,0.0955220605000066
mp-772628,Li3V(BO3)2,2.3124000000000002,-2.6378892711111117,0.0255416510416681
mp-11913,NaPr2IrO6,0.0,-2.637869232250001,0.0
mp-567431,ThCl4,3.6379,-2.637837313608,0.0
mp-675084,Ca4Al3O10,0.0,-2.637548500735294,0.4879123202678573
mp-764302,RbLiV(PO4)2,1.9844,-2.637529868553114,0.0574200687179438
mp-18701,Ba3YRu2O9,0.0,-2.637526266916667,0.0
mp-41414,BaLaMgBiO6,1.285199999999999,-2.6374630362500007,0.0949574184999999
mp-565352,V2Ge(O2F)2,1.7969,-2.637353371931112,0.0
mp-31358,RbBO2,3.9289,-2.637334721041667,0.0
mp-866078,NaNd(SO4)2,5.653,-2.63731693421875,0.013046689166666
mp-774117,V2O3F,0.0,-2.6373141033233325,0.0340952550000039
mp-24097,Mg3Si2H4O9,4.2476,-2.6372242900405554,0.0
mp-761453,Li5FeP3O11,4.1409,-2.6370469489017863,0.0491331674999955
mp-23764,Mg3Si2H4O9,4.2447,-2.636963027540556,0.0002612624999986
mp-743890,Mn4Si4SnB2(HO9)2,2.7422,-2.636800645545591,0.0
mp-643658,Na3MgP2HO8,4.863899999999999,-2.6363317953206984,0.0
mp-554390,SrAl2SiN2O3,3.7236000000000002,-2.6362563801122216,0.0
mp-31746,Li3Cr(PO4)2,1.9816,-2.63622017579932,0.0671717487498506
mp-849572,Li2Fe3OF6,2.5328999999999993,-2.6362041436158337,0.0712362866666662
mp-767129,WOF4,5.0486,-2.636141907251666,0.0569158254166639
mp-755128,SmTlO2,1.7431,-2.63609033875,0.0972875448437502
mp-774964,Li2CrP3O10,3.2399,-2.6360339990178563,0.0594670377083375
mp-861484,LiMnPO4,3.4985,-2.6360070141507483,0.0141512128571426
mp-774182,Li3Cr(PO4)2,2.7229,-2.6359337335374144,0.0674581910117568
mp-764285,VOF3,2.218,-2.6359336099640003,0.0948200795000024
mp-767168,Li3TiV3O8,0.9294999999999991,-2.6358631037777793,0.0695986807499933
mp-772554,Li4Nb3V5O16,0.20040000000000002,-2.6357898096428563,0.0497142802901855
mp-861584,VPO4,0.0,-2.635769489960317,0.0708485047222211
mp-764327,V2O3F,1.281,-2.635669350823333,0.0357400075000029
mp-765038,LiMnOF2,1.021,-2.6355162006679995,0.0762059785000106
mp-767276,Li5Fe5Si7O24,1.8272,-2.635463650975611,0.083533369024364
mp-1034374,RbMg14BO15,1.7464,-2.6354056840456983,0.3045340467595325
mp-763444,Li5V(PO4)3,1.5841,-2.6353906444897963,0.0932146378571472
mp-761644,Li2Fe3Si3O10,3.0276,-2.6353697576388893,0.0233448181944462
mp-25693,AlFeO3,2.0326,-2.6352333795,0.0289059347500018
mp-754933,SmTlO2,1.7153999999999991,-2.63523201,0.0981458735937499
mp-705001,LiCrP2O7,3.0921,-2.635224800903679,0.0493049622727284
mp-555554,KGa(PO3)4,4.5523,-2.635218435965609,0.0
mp-764632,VOF3,2.2201,-2.635195118464,0.0955585710000024
mp-540351,V2P3O10,0.8922000000000001,-2.635018384119048,0.0221311175640988
mp-765967,WOF4,4.874,-2.634987428501665,0.0580703041666668
mp-763737,Li3Mn2P2O8F3,0.0,-2.6349573921766933,0.0668019298610849
mp-17966,KInP2O7,3.8447,-2.6349502097673154,0.0
mp-704203,Li2VP4O13,1.8286,-2.634706193681548,0.0461431793333266
mp-505734,Cs2SiO3,3.4153000000000002,-2.634553635625001,0.0
mp-778573,Mn2OF3,0.0,-2.6345513007066668,0.0585894547916705
mp-761527,LiMnPO4,3.4354,-2.6345209962936056,0.0156372307142858
mp-557529,Na5P3O10,4.5621,-2.634433402599205,0.0044489441666666
mp-757480,Ti5Pb5O14,0.4157,-2.634429083368055,0.0937221422916652
mp-554108,LiRe(OF2)2,3.1439,-2.6344197165325003,0.0
mp-773465,Li4TiV3O10,1.238699999999999,-2.6343830349537023,0.0493689011342572
mp-774242,LiTaWO6,3.1938,-2.6343819197222222,0.0830978033333327
mp-540200,LiCr(PO3)4,2.7786,-2.6343447679100547,0.0222816404629542
mp-772256,LiVPO5,1.605,-2.6343200017931547,0.0454484043750111
mp-31979,Li2Mn(PO3)4,4.1915000000000004,-2.6342429438600505,0.0365430689911914
mp-766798,LiMnOF2,2.0584,-2.6342006764180006,0.0775215027500095
mp-761487,Li3Cr(PO4)2,2.8493999999999993,-2.63413836377551,0.0692535607736619
mp-6228,Na2TiGeO5,3.229899999999999,-2.6340596281018533,0.0
mp-763854,Mn3OF6,0.477599999999999,-2.6340204361270003,0.0944236562916707
mp-763885,LiMnOF2,0.41279999999999906,-2.6339451709180004,0.0777770082500097
mp-865182,Gd2SCl4,1.7004000000000001,-2.6339406245860717,0.0
mp-558753,BiB2O4F,4.1884999999999994,-2.6338482870237505,0.0
mp-703516,K2TiH2O3F4,2.5149,-2.633795084368056,0.0058893607812526
mp-779371,Li3MnV(PO4)3,0.38480000000000003,-2.6337888817622863,0.0513792798124646
mp-774463,Li3Cr2(PO4)3,2.8011,-2.6337584172142847,0.0439247072500021
mp-769851,ScCrO4,0.0,-2.633712211666667,0.0731364785416683
mp-557952,RbInP2O7,3.8119,-2.6336955215854982,0.0
mp-6065,Sr2GaSbO6,0.7291000000000001,-2.6334197852500005,0.0386708328750007
mp-17718,CsKNa2Li12(SiO4)4,4.722099999999999,-2.6333137877777784,0.0
mp-676713,Hf8PbO24,0.0,-2.63325513060606,0.4240510837121203
mp-756137,Li3Nb6O11,0.0,-2.6331893166875,0.0882306688333329
mp-1794,BeO,8.168299999999999,-2.6331821931249992,0.4819688449999999
mp-21160,Er2Cu2O5,0.313,-2.633140105138889,0.0536910715277763
mp-765255,LiV2O3F,1.435099999999999,-2.6330653085628564,0.0833317366071391
mp-555863,P4PtF12,4.9313,-2.6330529598035857,0.0
mp-1003322,CaMnO2,1.9756999999999991,-2.633021015865,0.0230605174999993
mp-779820,Li3Fe4(Si3O10)2,0.054099999999999,-2.632961579545455,0.0743168814204517
mp-775212,MnV2(PO4)3,0.0,-2.632949114458096,0.0051406319444371
mp-764246,WOF4,4.5049,-2.632868482876665,0.0601892497916667
mp-19161,Ca2CoWO6,1.924299999999999,-2.632836298250001,0.0
mp-730585,LiBH2OF4,7.129,-2.6328071455462965,0.0121322791666651
mp-766879,WOF4,4.8905,-2.632768778501666,0.0602889541666664
mp-565443,Ba4PrMn3O12,0.0,-2.6324815628939997,0.0233285198750277
mp-767346,Mn5(Si2O7)2,0.0,-2.632419784013044,0.0783388103260822
mp-566845,Cr(PO3)3,3.3268,-2.632391242925823,0.0
mp-686936,UV2O8,1.6451,-2.6323638897727273,0.1700567806818149
mp-770034,Li3CrBPO7,3.169599999999999,-2.6323628018086067,0.0788711888461621
mp-767356,LiCo(SiO3)2,1.2376,-2.6323533517500004,0.0581254439499954
mp-765187,WOF4,5.0623,-2.6321848355849995,0.0608728970833327
mp-780533,LiMnSiO4,0.9896,-2.632166398351428,0.0455396500072664
mp-1003402,CaMnO2,2.163499999999999,-2.6320652258649995,0.0240163074999992
mp-763572,LiV2P5O16,2.123399999999999,-2.6320514512698407,0.0687038506250345
mp-554853,Na4Si3(SnO6)2,3.0661,-2.6319602709523817,0.00470725
mp-555982,Si2Ge3P6O25,4.0974,-2.631929079578374,0.0
mp-778595,V2O3F,0.6941,-2.631916925823333,0.0394924325000047
mp-39886,BaCaLaBiO6,2.163999999999999,-2.6318943382499995,0.1539844623437511
mp-765875,LiMnPO4,3.5997999999999992,-2.63180710057932,0.0183511264285716
mp-763413,Li2U(WO5)2,1.567699999999999,-2.6317232799999988,0.0174043715000014
mp-767307,Li4Mn3Cr(PO4)4,2.395,-2.6316204494736044,0.0020914569345347
mp-763860,Mn2OF3,0.0,-2.6315230144566666,0.0616177410416707
mp-771623,Li5Mn3(PO4)4,0.0,-2.6315052548307483,0.0110125549107147
mp-765076,LiMnOF2,1.2316,-2.631407684418,0.0803144947500102
mp-696125,Li10Si(PO6)2,5.2544,-2.6313972080476193,0.1074400950000047
mp-704915,Na2Ni2(B4O7)3,3.7639,-2.6313913157094597,0.0
mp-541994,MnNb3O6,0.0,-2.6313847033460007,0.0195724464285707
mp-706640,CaAl2Si4(H2O7)2,0.10980000000000001,-2.6313546556792,0.2798928657500008
mp-555520,Sr2FeWO6,0.0,-2.6312739717500007,0.0813706540000023
mp-761320,Li2VP2O7,2.7746999999999993,-2.63126310374504,0.0763497825520831
mp-771491,Na3VSiBO7,1.5682,-2.6311967404166663,0.0264069341586612
mp-775746,Li2U(WO5)2,1.4931,-2.6310963673333325,0.0180312841666676
mp-752483,LiBiF5,0.0,-2.631071939421428,0.064282971071429
mp-557109,Na4Zr2(GeO4)3,3.724999999999999,-2.631051082857144,0.0119346150000021
mp-6118,Ca3Cu3(PO4)4,0.6006,-2.631015712399268,0.0
mp-761306,Li3CrB4O9,2.1422,-2.6309863139950984,0.0892546363234814
mp-1003486,CaMnO2,2.2291,-2.630945214614999,0.0251363187499995
mp-540477,Li2Mn(PO3)4,3.8816,-2.6308386167547875,0.0399473960964549
mp-767334,Li2TiCr2O6,2.235999999999999,-2.630773336287879,0.0812826586363577
mp-772777,K3SrPCO7,4.153499999999999,-2.6306123568727107,0.0107825101923086
mp-776801,Li6Nb3V3O16,0.6655,-2.6305831032142857,0.100535874151773
mp-560653,RbNaLi6(SiO4)2,4.5916,-2.6305142686111105,0.0
mp-780926,Li2VPO5,1.0671,-2.630464893816137,0.0826425544907358
mp-7922,CaPdF6,2.1062,-2.6303971933925,0.0
mp-768250,LiPrPCO7,0.3264,-2.6303776590313857,0.11895947369318
mp-554164,KLiZnP2O7,4.2904,-2.630254881036707,0.0
mp-769374,Li2B5SbO10,3.398999999999999,-2.6300866572685178,0.053548120648152
mp-762664,Li6V3P6WO24,1.516699999999999,-2.630069153464286,0.0602569557812469
mp-6456,LiNbGeO5,3.3815,-2.6300680614062504,0.0
mp-777696,LiCrP2O7,2.805,-2.6300429745400424,0.0544867886363649
mp-779177,Li3MnV(PO4)3,0.2985,-2.6300157505122863,0.0551524110624646
mp-675324,BaCO3,4.1101,-2.6299288422500013,0.0669069360000014
mp-13252,SnB4O7,3.5712,-2.6298681071180554,0.0
mp-32027,Li2Mn3(P2O7)2,3.4753,-2.629862678380911,0.0172503276630413
mp-767790,Li3V4(PO4)6,0.2391,-2.629817034826255,0.0643593219594214
mp-23215,ThCl4,3.6672000000000002,-2.629771758607999,0.0080655550000008
mp-752645,Al2CuO4,0.0,-2.629761210714285,0.1012886028571466
mp-765914,LiV(OF)2,2.6761999999999992,-2.629649090396667,0.0991327512500159
mp-770858,V5Cr(PO4)6,0.0,-2.6296344605158737,0.0595257388889045
mp-763432,Li2VO2F,0.15229999999999902,-2.6295071747816654,0.0900317583333292
mp-540045,Li2Mn(PO3)4,5.0535,-2.629433362281104,0.0413526505701682
mp-560466,Na2FeCuF7,0.0565,-2.6293638757572726,0.0064177331818182
mp-6323,BaYb2CuO5,0.0,-2.629310726527778,0.0
mp-781783,Fe6OF11,1.8698000000000001,-2.6292629905188902,0.0323792149999988
mp-763193,Li2VO2F,0.7241000000000001,-2.629250593115,0.0902883399999972
mp-648053,NaPO3,4.741,-2.629149788619048,0.0299171509166651
mp-777633,LiCrP2O7,2.4682,-2.629125063630952,0.0554046995454555
mp-849370,Fe6OF11,1.860199999999999,-2.628882184963333,0.0327600205555551
mp-752895,Li3CuF4,0.9630999999999991,-2.628748930595,0.0972158553125002
mp-510128,U(HO2)2,2.4873,-2.628685272462856,0.0408835167857164
mp-859784,LiV2O3F,1.251199999999999,-2.628597458919999,0.0877995862499965
mp-850447,V2O3F,0.0,-2.628532807906667,0.0428765504166701
mp-782696,Li4Mn(PO3)6,4.5343,-2.6284372514493604,0.0591942185344391
mp-18857,Sr2FeMoO6,0.0,-2.6283552827500003,0.0
mp-558951,K2B6H2O11,5.364199999999999,-2.62835510719,0.0
mp-1019796,K4P2O7,3.7409,-2.628260387687729,0.0
mp-762922,Li2VO2F,1.7004000000000001,-2.6281246660316664,0.09141426708333
mp-9239,NaLaMgTeO6,2.5432,-2.6281204452500004,0.0
mp-25515,LiFePO4F,2.1778,-2.6281068286606555,0.0
mp-763379,LiV(PO3)3,2.5322,-2.628073832716838,0.0482332990629181
mp-772254,Li2VBPO7,1.7224000000000002,-2.628012763209325,0.0941903638095249
mp-763654,Li2V2P2O9,1.725299999999999,-2.6279782188293668,0.0877702093611212
mp-763844,Li2VO2F,1.7317999999999991,-2.627837110198332,0.0917018229166641
mp-3889,NaBO2,4.1074,-2.627785943541667,0.0
mp-768284,Li3Sn(BO2)5,3.761,-2.627772927675437,0.0530815626315757
mp-540260,Li2Cr(PO3)4,3.4217,-2.627669020125315,0.0275960891380515
mp-767111,Li4Mn3(OF3)3,0.8042,-2.627668862228421,0.0910111819078958
mp-42020,BaYMnCoO5,0.20539999999999903,-2.627658620523333,0.0252896871527763
mp-769602,Li2VSO4F3,2.237,-2.6275682604665898,0.0862364461363514
mp-30250,YAgO2,2.4154,-2.6275147162500003,0.0
mp-27579,Na4P2O7,4.416,-2.627492835187729,0.0
mp-677348,Nd8AlSi3(NO5)3,1.0276,-2.6274456426963337,0.7063103421666739
mp-850136,LiFeOF2,2.4912,-2.627430933726001,0.0352096252222304
mp-31940,LiMnPO4,3.3678999999999992,-2.627365198198368,0.0227930288095237
mp-18900,MgV2O4,0.0,-2.627354183571429,0.090033945714282
mp-763118,Li2VO2F,1.6052,-2.6273242006149995,0.0922147324999969
mp-781754,Li3Mn2(P2O7)2,0.0,-2.6272522987739553,0.0154115002717389
mp-556301,Li6CaCeO6,2.463999999999999,-2.627104645178572,0.0246475410714301
mp-777198,LiFe2OF5,2.4943,-2.627024130614816,0.0850350547530869
mp-777242,LiFe2OF5,2.0388,-2.6269118949666668,0.0851472904012355
mp-14395,NaAlAsO4F,3.4604,-2.6268710470237497,0.0
mp-41219,BaLiPrTeO6,3.1399,-2.62678699075,0.0208708534374952
mp-561725,CsBO2,3.8457,-2.626774103958333,0.0
mp-554397,SiO2,0.8752000000000001,-2.6267630220833333,0.6579498854166621
mp-761567,Li2MnP2O7,3.7511,-2.626678994033373,0.0620890044791657
mp-764790,Li2FeSiO4,3.121099999999999,-2.6265706990624995,0.0
mp-685863,Li4SiO4,4.6647,-2.6265177681481484,0.0610722074074043
mp-772066,Li3Ti2NiO6,0.0,-2.6264869275694447,0.1392219335416626
mp-753130,Li4CuF7,0.12210000000000001,-2.6264353311108324,0.0843121194444469
mp-752685,ZrBiO4,1.0659,-2.62635672125,0.0270377720833403
mp-770361,LiV2BO5,1.4777999999999991,-2.6262832658796293,0.0021464954166585
mp-765037,LiMnOF2,1.0331,-2.626278206417999,0.0854439727500109
mp-763177,Li2VO2F,1.6982,-2.626272903948333,0.0932660291666618
mp-559721,KBCF6,7.109199999999999,-2.6262570443118523,0.2007622748611126
mp-764162,NaMn(PO3)3,4.3628,-2.6262520533211235,0.004744782202378
mp-771559,Li4Ti3Nb2Ni3O16,1.8728,-2.6261785175000005,0.0098596833928628
mp-780325,LiMnSiO4,0.0,-2.626062935137142,0.0516431132215515
mp-704942,Li2Cr(PO3)5,2.1007,-2.6260499964880952,0.0442745488768121
mp-18968,Li2FeSiO4,3.123599999999999,-2.6260140893750004,0.0005566096875009
mp-779239,Li3MnV(PO4)3,0.3245,-2.6258847947622863,0.0592833668124646
mp-777630,Li2CrP2O7,2.201,-2.625805757078373,0.048378752499973
mp-779098,Li3MnV(PO4)3,0.7543000000000001,-2.6257970907622856,0.0593710708124648
mp-554260,SnSb2As2F18,3.4536000000000002,-2.6257924965834785,0.0007553498369476
mp-763225,Li2VO2F,0.273,-2.6257678387816665,0.0937710943333307
mp-775435,Li3MnV(PO4)3,0.256599999999999,-2.625643817762286,0.0595243438124644
mp-762779,Li4Mn3P3O12F,3.576,-2.625585051450249,0.0738964753260829
mp-555716,Tm2Ru2O7,0.0,-2.625549323522728,0.0432961955681907
mp-767635,Li3Cr(PO4)2,1.748,-2.6254516141921767,0.0779403103569942
mp-777010,Li4Ti3V3(CoO8)2,1.202,-2.6253467892857145,0.057545171934537
mp-769568,Mn2V3Cr(PO4)6,0.0,-2.6253245877914284,0.0
mp-11014,K2TeOF4,4.8881,-2.6252266451262503,0.0053678126562504
mp-566655,Na2U(WO5)2,2.0015,-2.6251786201666656,0.0
mp-772381,V2SiO4,1.5873,-2.6251742507142852,0.0
mp-554094,CaMg2(SO4)3,5.7585999999999995,-2.6251110073437505,0.0
mp-19202,MgCr2O4,2.8397,-2.625085397857144,0.0
mp-768756,Li2Bi(BO2)5,3.590099999999999,-2.6250678457407406,0.0515301500000955
mp-850146,Li4Mn3Fe(PO4)4,3.566,-2.624922569830748,0.0005903378571083
mp-687204,NdReMoO8,3.3322,-2.6248717706818185,0.0
mp-776876,Ti3CuNi2(PO4)6,0.0,-2.6248445644047624,0.0388822992360964
mp-861540,Li4Mn(PO3)6,4.572100000000001,-2.6247995131734982,0.0628319568103012
mp-767570,Li4Mn3Fe(PO4)4,3.585,-2.6247921234021763,0.0007207842856802
mp-780226,Li3LaO3,3.872199999999999,-2.62465195375,0.0948084446428563
mp-781009,Li3Cr(PO4)2,2.8064,-2.624571841513606,0.0788200830355654
mp-773519,Li4Mn3Fe(PO4)4,3.4465,-2.624477082330748,0.0010358253571078
mp-19687,RbLa(MoO4)2,3.8742,-2.624457901249999,0.0
mp-768146,Na2AlPCO7,5.0719,-2.62443192577877,0.0
mp-780477,Li3MnV(PO4)3,0.33429999999999904,-2.6244071180122854,0.060761043562449
mp-763530,Li4V(PO3)6,3.0291,-2.624372420036945,0.0743471462717444
mp-559186,BaBiBO4,3.5528,-2.6243368955952384,0.0
mp-763175,Li2VO2F,1.7652,-2.624336664781666,0.0952022683333302
mp-767596,Li2VSiO4,1.6609999999999991,-2.6240785446874995,0.0772344951201926
mp-768875,Li6B4O9,4.4245,-2.6240561567324554,0.0633692564473689
mp-761333,Li2CrSiO4,3.0789,-2.6240287472916664,0.0378879602083372
mp-775134,MnV3(PO4)4,0.4761,-2.624008430555874,0.0312133779166448
mp-778299,Li2VPO5,1.237299999999999,-2.6239669054828045,0.0891405428240688
mp-763174,Li2VO2F,1.7722,-2.6239617426983326,0.0955771904166642
mp-767015,Li2VSiO4,1.75,-2.623880591249999,0.0774324485576931
mp-767156,LiMnOF2,0.6405000000000001,-2.623808902917999,0.0879132762500107
mp-557903,Lu2Ru2O7,0.0,-2.623800255340909,0.0589054521590899
mp-767344,Mn2Si2O7,0.5751000000000001,-2.623753007788181,0.0909251148863656
mp-853139,Li2V(PO4)2,2.961999999999999,-2.6235662987454207,0.0777842580769192
mp-770370,V3BO6,1.236499999999999,-2.6235364976666657,0.0071454558749994
mp-761569,Li2MnP2O7,2.5407,-2.623468731325039,0.0652992671874992