mpid,formula,BG,FE,e_hull
mp-850256,LiFe2(BO3)2,1.5856000000000001,-2.361860021439393,0.0542233151704794
mp-684721,TiNb2Zn(PbO3)4,0.22969999999999902,-2.361844911833333,0.0402206859166671
mp-767819,LiCoP2O7,0.8592000000000001,-2.361788066812771,0.0484869859090917
mp-761719,LiCoPO4,2.8051,-2.361744761870749,0.0726070437500014
mp-763834,K2LiMnPCO7,3.2914,-2.361715098869633,0.0641993642307721
mp-773236,Li5Nb2Fe3O10,0.28189999999999904,-2.361684342625,0.0592724071250003
mp-868012,Li4Nb3Fe3(SbO8)2,1.090299999999999,-2.3616735228571426,0.0643153730356731
mp-972600,UCd(PbO3)2,1.6558000000000002,-2.3616036327500005,0.0151988153333331
mp-557632,K2LiBO3,3.6258,-2.361553781488096,0.0
mp-770293,Li5Fe2P2(CO7)2,1.376399999999999,-2.361535433147619,0.0291774811999978
mp-849684,MnOF,0.2518,-2.361512224466667,0.0374379420833381
mp-771405,NaLi2FePCO7,3.9699,-2.3615065307188643,0.0260497280769218
mp-720379,K3NaP4(H2O7)2,4.540500000000001,-2.361481104590806,0.0513041164743697
mp-559184,Zn2Si3Pb4SO15,3.4961,-2.3614484753125,0.0
mp-764612,LiFe2(BO3)2,1.3779000000000001,-2.361349286212121,0.0547340503977524
mp-28291,Ge(SF6)2,4.9563,-2.361318843827,0.0
mp-504533,V4O9,0.4051,-2.3612232925961543,0.0365924371153809
mp-25960,Bi(PO3)4,0.0,-2.3612138783753505,0.0614034618749999
mp-553963,YbSeO3F,0.008400000000000001,-2.3612111589222926,0.037338799817709
mp-764503,LiFe2(BO3)2,1.6146,-2.3612043157575755,0.0548790208522982
mp-765324,LiMnVP2(HO5)2,0.8792000000000001,-2.3609628698170875,0.0301191679411907
mp-778884,LiFeBO3,2.6202,-2.3609250454398145,0.0504608421296275
mp-775210,Sb3P6WO24,0.19139999999999902,-2.3608644415756297,0.0328587380330809
mp-764702,LiFe2(BO3)2,1.5956000000000001,-2.3608517891666665,0.0552315474432063
mp-765103,LiMnVP2(HO5)2,0.8605,-2.3607977200131662,0.0302843177451119
mp-776759,Mn2Fe(PO4)3,0.0,-2.3607500917336504,0.0870762654166483
mp-764652,LiFe2(BO3)2,1.2226,-2.360737190984848,0.0553461456250259
mp-705300,Cr(PO3)5,0.21760000000000002,-2.360727863772676,0.0881515924404912
mp-770265,Li5Fe2P2(CO7)2,1.5793,-2.36072707854762,0.029985835799998
mp-776828,Ti2Cr3Sb3O16,1.658499999999999,-2.3606939565972227,0.111961751041667
mp-763563,LiCoSiO4,0.6967000000000001,-2.3606917738095228,0.075115259690464
mp-556021,BaTeO3,3.1676,-2.3606520867500005,0.0094222219999995
mp-553958,Zn3(PO4)2,3.3332,-2.360648084514652,0.025885748653847
mp-690012,CrPO4,1.6234,-2.360570103015872,0.241301120000001
mp-765066,LiMnVP2(HO5)2,0.867599999999999,-2.360557664522968,0.0305243732353091
mp-764658,LiFe2(BO3)2,1.6821,-2.360546242121212,0.0555370944886606
mp-769701,Li5Fe2P2(CO7)2,1.3572,-2.3605290555476186,0.0301838587999734
mp-764662,LiFe2(BO3)2,1.485899999999999,-2.3605235348484843,0.0555598017613885
mp-771976,Rb2Be2O3,3.6274,-2.3603983026785715,0.0310484864285713
mp-765378,LiMnVP2(HO5)2,0.8283,-2.3603575602092444,0.0307244775490334
mp-675336,Pr10US16,0.0,-2.3603522987037047,0.0394100239814836
mp-761566,Li6MnSiO6,2.9524,-2.36032791989,0.0997903249999998
mp-778576,LiVP4(H2O7)2,2.2388,-2.3602457843483733,0.0178557695833339
mp-1033263,HfMg6BO7,0.0,-2.360237989361111,0.5982446547499993
mp-777425,LiFe2(BO3)2,1.4756,-2.3602365430303025,0.0558467935795707
mp-765107,LiMnVP2(HO5)2,0.9541000000000001,-2.3602106115817927,0.0308714261764846
mp-585261,LiMo4(P2O11)2,0.173599999999999,-2.3601829125768052,0.0144068941129074
mp-662523,SrTeO3,3.174,-2.360102782083333,0.0342659821666693
mp-764508,LiFe2(BO3)2,1.733199999999999,-2.360080322121212,0.0560030144886614
mp-763526,LiP(WO4)2,1.8364,-2.360075061091269,0.0395769657158133
mp-770060,Li5Fe2P2(CO7)2,1.253599999999999,-2.3600435023476187,0.0306694119999981
mp-770188,Li5Fe2P2(CO7)2,1.2533,-2.3599930715476183,0.030719842799999
mp-981550,RbTmO3,0.0,-2.3599277587500005,0.2319880146249993
mp-761616,LiMnPO5,1.261499999999999,-2.3599237072256543,0.0280240914322886
mp-764679,LiFe2(BO3)2,1.696,-2.359852854621211,0.0562304819886616
mp-752535,TaIn3O7,1.075699999999999,-2.3598133394318186,0.1066251963636348
mp-764550,LiFe2(BO3)2,1.259099999999999,-2.3598039273484845,0.0562794092613883
mp-765151,LiMnVP2(HO5)2,0.849699999999999,-2.359775102758263,0.031306935000015
mp-764587,LiFe2(BO3)2,1.4678,-2.3597442196212115,0.0563391169886617
mp-763874,KV6O14,1.0927,-2.359723563452381,0.065543287539679
mp-1748,NdS,0.0,-2.3596309957812505,0.0
mp-764799,LiFe2(BO3)2,1.7641,-2.3595949180303024,0.0564884185795708
mp-5868,Sr3Ru2O7,0.0,-2.3595707040625,0.0150215895833074
mp-773622,LiFe2P2HO8,3.5894,-2.3594774978436064,0.0370318414285728
mp-770864,Li5Fe2P2(CO7)2,1.4098,-2.3594143851476193,0.031298529199998
mp-774255,K3CrPCO7,2.6393,-2.359396913411172,0.0111372233814126
mp-769613,Li4Ti3Ni3(WO8)2,1.084,-2.3593719396428563,0.0850336029464307
mp-757587,Dy5Bi11O24,2.6561999999999992,-2.3593526862083336,0.036582843906249
mp-764598,LiFe2(BO3)2,1.4351,-2.359321028712121,0.0567623078977517
mp-764543,LiFe2(BO3)2,1.7605,-2.3591941868939386,0.0568891497159347
mp-764878,LiFe2(BO3)2,1.6772999999999991,-2.3591903893939388,0.0568929472159345
mp-763991,MnOF,0.0,-2.3591641448833336,0.0397860216666705
mp-765318,LiVFeP2(HO5)2,1.5288,-2.359130665054733,0.0049590000882364
mp-760230,Bi5O4F7,3.0184,-2.359077564895625,0.0231802768750002
mp-767427,LiFe2(BO3)2,1.4577,-2.359074649393939,0.0570086872159336
mp-765071,LiVFeP2(HO5)2,1.4905,-2.359038398388067,0.0050512667549034
mp-28357,NbHg3F6,0.0,-2.359037668714,0.0
mp-770347,TbNiO3,0.0,-2.358982643416668,0.0425595024999987
mp-761190,LiCu(PO3)3,0.472199999999999,-2.358913025038265,0.0577042546428456
mp-762904,LiCoSiO4,1.229299999999999,-2.358801611190476,0.0770054223095106
mp-769717,Li2MnPCO7,0.684299999999999,-2.358716006692104,0.0110335548611102
mp-20163,Th2S3,0.0,-2.3586354409375,0.0
mp-780819,Li4V3FeO10,1.0781,-2.358612711805556,0.0626382615046177
mp-773751,Fe3(OF2)2,1.2595,-2.3585402408066667,0.0745270088888938
mp-780146,Fe3(OF2)2,1.4056,-2.3584991563622215,0.0745680933333314
mp-684083,Sb(PO3)4,0.0,-2.358441598963586,0.0691265166911625
mp-764483,LiFe2(BO3)2,1.5273,-2.358397773030303,0.0576855635795707
mp-25563,Li2MnPCO7,0.877899999999999,-2.358299892942102,0.0114496686111102
mp-769329,RbLi2B3Sb2O9,2.620799999999999,-2.3582146127205883,0.085683113400738
mp-779057,Li2Fe2B2O7,2.1347,-2.3581887457371784,0.0600053698076905
mp-775272,TiFe3(PO4)6,0.0,-2.358180366036416,0.0743635355820897
mp-764559,LiFe2(BO3)2,0.0,-2.3581756843939385,0.0579076522159347
mp-849524,LiFe3O3F4,2.4469,-2.35815081441,0.0961497737373715
mp-765075,LiVFeP2(HO5)2,1.530499999999999,-2.3579335036821845,0.0061561614607859
mp-549475,TbBi2BrO4,1.2894,-2.3578877872916664,0.0
mp-8989,Na2P2PdO7,1.4839,-2.35787804999504,0.0
mp-764387,MnOF,0.0,-2.3578768290499994,0.0410733374999949
mp-762454,LiCrO2,1.768899999999999,-2.357860548125,0.0419091825000004
mp-25588,SmNiO3,0.0,-2.35784309675,0.0
mp-771594,Na3VPCO7,2.1087,-2.357816028411172,0.0392329465504781
mp-1269,SmS,0.0,-2.3577790782812507,0.0
mp-761672,Li4Ti3Cu3(WO8)2,0.0,-2.357751771785715,0.0885857525892861
mp-17597,Ca(ScS2)2,1.2884,-2.357634893392858,0.0030427950000007
mp-765111,LiVFeP2(HO5)2,1.5472000000000001,-2.3576295479959093,0.0064601171470606
mp-705301,LiCoP2O7,1.2293,-2.357604587494589,0.0526704652272735
mp-722834,Na6P2H2O9,4.3754,-2.357591877351604,0.0035828640789485
mp-28542,Na3ErCl6,5.228099999999999,-2.357581866956,0.0
mp-772025,TaIn3O7,0.9951999999999991,-2.3575816621590917,0.1088568736363617
mp-779958,MnOF,0.0,-2.3575137689111108,0.0414363976388934
mp-763516,LiCoSiO4,1.3321,-2.3575052950000006,0.0783017384999862
mp-10392,Sr3CdPtO6,2.04,-2.3575042861363644,0.0
mp-675104,Na3YCl6,5.2756,-2.3574676177060003,0.0
mp-770660,Li12CrGa11O24,1.346099999999999,-2.3574333387499995,0.0328747854166673
mp-772516,LiCoPO4,2.8169,-2.357276939727892,0.0770748658928583
mp-29836,Na3HoCl6,5.2294,-2.3572661384560005,0.0
mp-764709,LiFe2(BO3)2,1.2207000000000001,-2.3572637530303027,0.0588195835795701
mp-769536,Na5Mn2P2(CO7)2,0.46879999999999905,-2.3571723518244188,0.0012402159999993
mp-849587,MnOF,0.0,-2.3571581207166665,0.041792045833338
mp-764618,LiFe2(BO3)2,1.7779,-2.357142471439394,0.0589408651704799
mp-764749,LiFe2(BO3)2,1.5430000000000001,-2.357032400757576,0.0590509358522979
mp-28796,Sr5(AuO4)2,1.3224,-2.357018426,0.0
mp-777216,Cr2Fe3Te(PO4)6,0.0,-2.3570117152380954,0.089472671909716
mp-973960,KScO3,0.0,-2.35688654075,0.1924122702500001
mp-764519,LiFe2(BO3)2,1.5639,-2.3568315303030296,0.0592518063068441
mp-763637,Li4Fe2SiO7,1.8512,-2.356813733482141,0.0713446578571348
mp-38417,Ba(CeS2)2,0.0,-2.356732465178572,0.0603676260714234
mp-540491,Co(PO3)3,1.2056,-2.3567323019642856,0.0295335407692185
mp-565993,RbMnVO4,2.7323,-2.356727508529999,0.0
mp-19418,VCrO4,1.9112,-2.3566999891666653,0.0014542455208257
mp-781675,Li3Co(OF)2,1.2644,-2.3566405912349992,0.1285531493749996
mp-975605,Pr6IrCl11,0.6391,-2.356619320881112,0.0
mp-764469,LiFe2(BO3)2,1.4644000000000001,-2.3566171664393942,0.059466170170479
mp-765317,LiVFeP2(HO5)2,1.3801,-2.356568177407674,0.0075214877352953
mp-763204,MnOF,0.0,-2.3563916502999995,0.0425585162500041
mp-624130,Rb4V5CdClO15,2.3192,-2.3563783702696157,0.0
mp-766062,LiFe2(BO3)2,1.43,-2.356371593257576,0.059711743352298
mp-764932,Li3Fe4(BO3)4,1.2706,-2.3563149337681155,0.0605144673913171
mp-767828,Li2Fe(BO3)2,0.0,-2.35625457689394,0.0729373033522735
mp-770520,Li4Ti2Cr3Fe3O16,0.0,-2.3561872458333326,0.1035635775793721
mp-540419,MnPO4,0.43660000000000004,-2.35618172734254,0.1016469554166743
mp-558229,La10S19,0.722599999999999,-2.356168089385776,0.0
mp-776190,MnV5O12,0.5676,-2.3561258381088885,0.0580705566666619
mp-764256,KLiMnPCO7,0.8778,-2.3560896154421034,0.0
mp-778594,Na2V6O15,0.0,-2.3560717612499995,0.0409018717391216
mp-504871,SrV2CuO7,0.664899999999999,-2.3560674273863627,0.0165569428977336
mp-769982,Li5Fe2P2(CO7)2,1.1784000000000001,-2.356056987547619,0.0346559267999984
mp-780532,Li2FeO2F,2.3033,-2.356000178531666,0.0888634104166685
mp-778811,Li2Fe(BO3)2,0.0,-2.355989517575757,0.0732023626704565
mp-763672,FePO4,2.3689,-2.355818500099208,0.072003205833333
mp-774041,Cr3Sb(PO4)6,0.0055000000000000005,-2.3557649751050427,0.0376357819117654
mp-9380,SrGe4O9,3.0645000000000002,-2.355757466755953,0.0
mp-763307,Li4Ti3Mn2Co3O16,0.23399999999999901,-2.3556756868542856,0.0671134888214171
mp-773689,NaLi2FePCO7,3.8388,-2.3556397897573262,0.0319164690384603
mp-765376,Mn3CoSn2(PO4)6,0.0,-2.355608408929207,0.0979368635416788
mp-764514,LiFe2(BO3)2,1.594299999999999,-2.355529015075757,0.0605543215341164
mp-578601,NaNbO2,0.0,-2.355446626875,0.1851040375000021
mp-767353,Li6CrCoP2(CO7)2,1.29,-2.3554017534111726,0.0625172240414739
mp-19260,Li2WO4,3.968,-2.355246056428572,0.0
mp-770750,Li3Al(FeO3)2,2.1165,-2.3552012791666663,0.0613884154166681
mp-8858,RbCuF3,0.0,-2.3551672037139992,0.0
mp-771622,Li4TiMn3O8,0.216399999999999,-2.355153289971666,0.0974325528125001
mp-764676,MnOF,0.0,-2.35510301905,0.0438471475000046
mp-764206,NaV3O8,1.839,-2.355098437083333,0.0
mp-770204,Li5Fe2P2(CO7)2,1.207,-2.355049157947619,0.0356637563999981
mp-982980,Na3DyCl6,5.2201,-2.355040592122667,0.0
mp-765460,LiCoPO4,2.7054,-2.3550202888350347,0.0793315167857162
mp-6764,BaSi2(NO)2,3.010499999999999,-2.35500756568,0.0
mp-850984,MnOF,0.0,-2.3549674794666675,0.0439826870833375
mp-540379,SbP2O7,0.0,-2.3549573209940475,0.051370233375013
mp-757111,SbOF3,2.5195,-2.354916718464,0.0088136012000017
mp-775012,Li3Co2(PO4)3,0.026299999999999,-2.3548992329642857,0.0385542487291648
mp-764490,LiFe2(BO3)2,1.9411,-2.354880436893939,0.0612028997159344
mp-556417,Rb2NiF6,2.421599999999999,-2.3548269119044445,0.0
mp-767739,Li4FeNi3(PO4)4,3.0109,-2.3546975443707487,0.0026125734821471
mp-23723,K2CaH2S2O9,5.3783,-2.3546889679134377,0.0027704429687496
mp-31362,Na3YCl6,5.1809,-2.354636265206,0.0028313525000003
mp-763200,LiVO3,1.9674999999999991,-2.354557453750001,0.0841813790000021
mp-775149,Ti(SO4)2,2.2226,-2.3544194752840912,0.0
mp-674645,Na3Nd5Cl15,0.0,-2.354240975495652,0.0967688629347822
mp-559516,K3Nb(SO4)4,2.9435000000000002,-2.35422628390625,0.0
mvc-10947,Al(FeO2)2,0.0,-2.3542162392857144,0.0527549803570863
mp-769634,Na3CrPCO7,2.4999000000000002,-2.3541239734111716,0.0076359318028815
mp-12444,SrCuSF,1.5103,-2.354078306313125,0.0
mp-4350,La2(SeO3)3,3.512,-2.3540166280022325,0.0
mp-768003,Na5Mn2P2(CO7)2,0.0,-2.35400945342442,0.0044031143999987
mp-540634,TaTl(GeO3)3,3.6578,-2.3539547100892864,0.0
mp-782657,Mn3VTe2(PO4)6,0.48510000000000003,-2.353943995318095,0.0858704349999852
mp-772390,LiAlFeO4,0.0,-2.353889877142858,0.0889168199107128
mp-763913,Li7Co(OF)3,2.404,-2.353773307308571,0.0991879591964286
mp-850268,Li3Fe8(BO3)8,1.632599999999999,-2.3537644663565884,0.0601967303924251
mp-989549,Cs2PbClF6,0.098999999999999,-2.3536186970400004,0.0
mp-764611,LiFe2(BO3)2,1.43,-2.353536611893939,0.0625467247159337
mp-14734,CsCOF3,6.117,-2.353484344553333,0.0
mp-764729,Li7VO5F,1.8165,-2.353355395531429,0.0625504794642877
mp-762722,LiCoSiO4,1.411299999999999,-2.3533067382142865,0.0825002952857012
mp-675993,Zr2N2O,1.6587,-2.353305120202001,0.0
mp-1019797,K5B(SO4)4,5.2949,-2.3532496460737176,0.0
mp-761814,LiCoPO4,2.5854999999999992,-2.3532475343707486,0.0811042712500018
mp-766217,Sr4Cu2O7,0.8323,-2.35319629875,0.0
mp-761702,LiCoPO4,2.4138,-2.353149759727891,0.0812020458928595
mp-769471,Fe3Co2P6WO24,0.0064,-2.3530558488492077,0.0435305064814386
mp-762221,LiCoSiO4,1.556,-2.3530166650000006,0.0827903684999862
mp-868632,MnOF,0.46280000000000004,-2.3530138861333327,0.0459362804166714
mp-777311,VFe3Co2(PO4)6,0.0,-2.3529288069047634,0.0488566399845646
mp-764815,Li3Fe8(BO3)8,1.743299999999999,-2.3529095751937983,0.061051621555217
mp-773811,NaLi2FePCO7,3.8463000000000003,-2.3528113097573256,0.034744949038461
mp-696379,BH3OF4,7.657299999999999,-2.352780560948518,0.0
mp-605034,K2NiF6,2.3603,-2.35277921746,0.0
mp-766448,NaSnPHO4F,3.5919,-2.3527579319894705,0.0151929733680615
mp-758052,LiCuF3,0.0,-2.352662941714,0.0086639769999976
mp-775315,Si6Bi9O26,0.0,-2.352611709085367,0.0527135280487538
mp-762892,LiCoSiO4,0.7703000000000001,-2.352521610357144,0.0832854231428434
mp-758147,LiCu(PO3)3,0.5284,-2.3525155307525507,0.06410174892856
mp-775533,Li5Mn2V5O12,0.8405,-2.352502968205,0.0549622783333365
mp-763260,LiCoSiO4,1.3669,-2.3524652842857146,0.0833417492142727
mp-698134,K2Na2Sb2H6O3F10,4.5674,-2.3524565464947997,0.0178802345666717
mp-780498,LiCr3P3(HO6)2,1.9114,-2.352433716739319,0.0437939351218812
mp-673837,Ba8Bi4O17,0.7450000000000001,-2.352433527974138,0.019422475977012
mp-771424,NaLi2FePCO7,3.835,-2.352405113026556,0.0351511457692304
mp-697263,LiAsH2OF6,4.1762,-2.3523209968754544,0.0014120034090909
mp-761744,LiCoPO4,2.8761,-2.352313924489796,0.0820378811309519
mp-775866,Zr2N2O,1.774499999999999,-2.3523057707020003,0.0009993494999989
mp-760817,Li2AgF4,0.0,-2.3522423842514284,0.0889313921428582
mp-779314,Li2CrPHO5,2.8251,-2.352238959796523,0.0802034567656262
mp-6625,LaAgSO,1.3631,-2.352182761328125,0.0012635556249982
mp-773187,Li4Mn3V5O16,0.798299999999999,-2.352032609745714,0.0674753883258922
mp-779311,LiFeBO3,2.9857,-2.3520295959027777,0.0593562916666643
mp-758311,Li2CuSiO4,0.0,-2.3518413096875,0.0589282396875017
mp-772377,Li2VCr3O8,0.7802000000000001,-2.3518067417857127,0.0614505944791616
mp-765449,LiCoPO4,3.073,-2.3517146315136057,0.0826371741071421
mp-7744,LiSO3F,5.7916,-2.351703021500417,0.0
mp-644003,BaCo2P2H2O9,2.8682,-2.3515990602925294,0.0075888257812088
mp-777195,LiFe7(O3F5)2,1.4412,-2.3515812662250006,0.0908683944212942
mp-762888,LiCoSiO4,0.8709000000000001,-2.351540624285715,0.0842664092142717
mp-779192,LiCoSiO4,1.3233,-2.3514662467857157,0.0843407867142715
mp-542208,Ba3NaOs2O9,0.0,-2.3514646160833337,0.0
mp-771175,Li2MnBO4,0.909899999999999,-2.351456884703332,0.1054063321093519
mp-765409,LiCoPO4,2.2678,-2.3514557775850347,0.0828960280357158
mp-581875,Ta3Bi7O18,2.3299,-2.351445574017857,0.0030854072767914
mp-505799,P2Pb3O8,3.3803,-2.3514275231684985,0.0
mp-764026,MnOF,0.0,-2.351405498355556,0.0475446681944484
mp-764672,Li3Fe8(BO3)8,1.4555,-2.3513588703100776,0.0626023264389363
mp-775822,Zr2N2O,1.6751999999999991,-2.351321700951999,0.001983419250001
mp-1031127,RbLiMg6O7,0.0,-2.35131900925,0.4234634099166668
mp-559711,Rb2Na2SiO4,3.083,-2.351291084027777,0.0
mp-2495,PrS,0.0,-2.351183952031251,0.0
mp-774433,LiMnPO5,0.1385,-2.351182281288154,0.0367655173697887
mp-763268,MnOF,0.0,-2.351034600022222,0.0479155665277728
mp-764546,Li3Fe8(BO3)8,1.5705,-2.3509115489147288,0.0630496478342852
mp-849934,MnOF,0.0,-2.3508553850222222,0.0480947815277827
mp-771751,Na3CoBPO7,0.3669,-2.3507313871932234,0.0408554797032909
mp-765202,MnCr3Te2(PO4)6,0.0,-2.3507250252647616,0.0882274368055524
mp-769694,Li2FePCO7,2.335299999999999,-2.3507138936954357,0.0058599286979266
mp-767148,P2WO8,1.9197,-2.35066642965368,0.0715885022727249
mp-764941,Li3Fe8(BO3)8,1.520499999999999,-2.350463026589148,0.0634981701598675
mp-767852,Li12Fe3NiP4(CO7)4,3.136099999999999,-2.3504629141804028,0.0369438130769168
mp-557874,KAg(PO3)2,2.9041,-2.350460715369047,0.0
mp-770691,Li3AlFeO5,0.205799999999999,-2.350413900875,0.0691614344999997
mp-777312,Li4Sn2P4H3O16,0.270599999999999,-2.350392560284171,0.0657622831465518
mp-28544,Sm4Cl6O,0.0,-2.3503884887099997,0.205665710757577
mp-18933,Li2WO4,4.3259,-2.3502737326785708,0.0049723237500005
mp-763901,NaVO3,3.2064,-2.35024276475,0.0424706170000028
mp-767140,Sn2P2O7,3.057999999999999,-2.3501780613582257,0.0366303486363595
mp-775802,Zr2N2O,1.7373999999999992,-2.350171171452,0.0031339487499995
mp-560066,SbSO2F5,3.4443,-2.350147205556945,0.0368856005555544
mp-641959,K2V8O21,1.2759,-2.3501146695564517,0.0099050072580642
mp-769683,LiFeBO3,2.773399999999999,-2.3501013863194444,0.0612845012499976
mp-850119,Li3FePCO7,3.959099999999999,-2.3500830968727096,0.0671533715384615
mp-764515,Li3Fe8(BO3)8,1.3367,-2.3500426017054257,0.0639185950435887
mp-763816,Fe3(OF2)2,1.3659000000000001,-2.34998089414,0.0830863555555527
mp-776315,Zr2N2O,1.681499999999999,-2.3499509734520005,0.0033541467499986
mp-767185,Li7Mn(O2F)2,2.4823,-2.3498814184528567,0.0634135942857243
mp-541919,GdNiO3,0.0,-2.3497826672499995,0.0
mp-764938,Li3Fe8(BO3)8,1.738199999999999,-2.3497568028682156,0.0642043938807983
mp-774012,Li5V5Cr2O12,0.282099999999999,-2.349602516875,0.0567963164583371
mp-19399,Cr2O3,2.4365,-2.3495750737499987,0.0
mp-761822,LiCoPO4,2.5252,-2.349544953656463,0.084806851964287
mp-772410,Ti(SO4)2,2.2732,-2.34954197376894,0.0048775015151489
mp-763253,LiCoSiO4,1.473799999999999,-2.349517662142857,0.0862893713571297
mp-566827,K4V5CdClO15,2.3296,-2.3494685987311534,0.0
mp-763833,NaLiMnPCO7,0.7532,-2.349449412942103,0.001255195944438
mp-764535,Li3Fe8(BO3)8,1.4546000000000001,-2.3494312858914728,0.0645299108575425
mp-761670,LiCoPO4,2.7229,-2.3493627457993207,0.0849890598214297
mp-770495,Li4Ti2Mn3Fe3O16,0.6628000000000001,-2.349350069150477,0.0331563563457049
mp-1013899,LiFe3P3O13,0.0,-2.349345907026786,0.043325437718745
mp-770714,LiAlFeO4,0.0,-2.349329976785715,0.0934767202678559
mp-767330,Mn3(OF)2,0.8096000000000001,-2.3493181261085705,0.0740810078571438
mp-861659,Li2Si3Ni3O10,3.7239,-2.349223815416666,0.031701396805543
mp-770833,Li2SnBO4,1.2701,-2.3491955442708328,0.0712596235156226
mp-771513,Na3FeSiCO7,2.7053,-2.3491479247115383,0.0
mp-761965,LiCoPO4,2.438199999999999,-2.349139755442177,0.0852120501785735
mp-775273,Cr2Te(PO4)3,0.0,-2.3491197888492064,0.0940576497916643
mp-777625,TiV4CuO12,0.0,-2.349047582870371,0.0881492980555691
mp-780782,Fe3(OF2)2,1.388599999999999,-2.349007582473333,0.0840596672222195
mp-553243,YBi2BrO4,1.335,-2.3489962271875005,0.0
mp-557910,Cd2PO4F,2.3693,-2.348830452723155,0.0
mp-850471,Li3Fe8(BO3)8,1.7174999999999991,-2.3488127872868216,0.0651484094621928
mp-765921,MnF4,0.034699999999999,-2.348784402143999,0.0565560997500114
mp-759432,LiCu(PO3)3,0.6513999999999991,-2.3487676671811224,0.0678496124999892
mp-863423,SrGa12O19,1.8584,-2.3487598854296867,0.019597673281261
mp-777449,Li4V5SnO12,0.3014,-2.348709972272728,0.1064367478977104
mp-761753,LiCoPO4,2.6359,-2.3486763050850348,0.0856755005357161
mp-762746,Li2Fe2SiO6,2.2232,-2.3486659929545457,0.0886249927272739