mpid,formula,BG,FE,e_hull
mp-775909,ZrO2,3.4318,-3.7806636425,0.0525561700000007
mp-1746,MgF2,6.7193,-3.7804633332933335,0.0667704274999998
mp-755769,ZrO2,4.2234,-3.780435786666666,0.0527840258333345
mp-676319,Dy2Zr2O7,2.742599999999999,-3.779902405189394,0.1423060377272751
mp-686077,Er18Ti14O55,2.3688000000000002,-3.7797566174952113,0.0686621124712605
mp-674521,Dy2TiO5,2.871199999999999,-3.77932880103125,0.126342817874999
mp-756458,ErAlO3,5.803000000000001,-3.77923938525,0.0179594912500036
mp-675835,Dy2Zr8O19,2.3535,-3.7792140405890806,0.0877600800000006
mp-770419,Sr2Zr7O16,3.8849,-3.7784023308,0.0
mp-554190,CaZr4O9,3.8366000000000002,-3.777333212589286,0.0024226730357241
mp-775910,ZrO2,3.316599999999999,-3.776929863833332,0.0562899486666683
mp-559385,SrHo2O4,3.7325,-3.776851178571429,0.001078545357144
mp-542313,Ce2O3,0.0,-3.7766603332499984,0.0
mp-13947,Rb2HfF6,7.129799999999999,-3.7760786313488897,0.0
mp-17077,K2YF5,6.8081,-3.7745126176187496,0.0
mp-34439,Tb10Ti6O27,2.613299999999999,-3.7740086673740314,0.0987654343604607
mp-1597,UO2,0.0,-3.7739836775000017,0.0
mp-676646,Tb2Zr8O19,2.324999999999999,-3.7734251500143663,0.0888892286637954
mp-5489,LuTaO4,4.3138,-3.773387455,0.0
mp-532290,Zr3BiF15,5.2035,-3.77289093015,0.0
mp-4891,HoAlO3,5.8318,-3.77252037375,0.0156947531
mp-29045,La5Ti5O17,0.0,-3.7720864779475303,0.0056934146296203
mp-556995,Nd2O3,3.6365,-3.7710112710833337,0.0283047231666664
mp-769906,Tm6WO12,3.3848,-3.770913584473684,0.0
mp-5373,Y2Ti2O7,2.718,-3.7708545924621215,0.0088064820454505
mp-530379,Tb2TiO5,2.43,-3.770307790885416,0.1259873965625004
mp-752453,Sm2TiO5,3.074099999999999,-3.7702085569270825,0.0702171931249999
mp-752442,BaLu2O4,3.252099999999999,-3.770195542499999,0.0050373850595324
mp-768309,Ce2TiO5,0.0,-3.769780704114584,0.0
mp-12933,TmTaO4,4.1068,-3.769574110833332,0.0
mp-2763,Nd2O3,3.8109,-3.76951372375,0.0298022705000011
mp-675768,Dy14Ti10O41,2.341199999999999,-3.769120576173077,0.0873903428461542
mp-676804,Ho3TaO7,3.544,-3.7657234617045465,0.1290021859090853
mp-756630,DyAlO3,5.723000000000001,-3.765689749583333,0.012788190900002
mp-758379,Y11Ta5O28,0.9859,-3.765488659147726,0.0339894210908973
mp-674357,SmAlF5,0.5566999999999991,-3.76536996835,0.2701210069047617
mp-31417,Nd3TaO7,3.4829,-3.765044731022728,0.0
mp-12862,LuTaO4,4.0476,-3.7640296758333314,0.0093577791666685
mp-676108,Gd8Zr7O26,2.1885,-3.7636733766463424,0.1050728549999995
mp-532384,Dy2Ti2O7,2.5119000000000002,-3.763325247878788,0.0455146894317941
mp-1565,ZrO2,3.125,-3.763145785,0.0700740275000004
mp-3444,ErTaO4,4.082800000000001,-3.7624078766666655,0.0
mp-758332,CaGd4O7,2.8514999999999993,-3.762299534062502,0.0446934575000028
mp-754415,Tb3NbO7,2.5783,-3.761131711704546,0.0133626460227258
mp-17434,K2SmF5,6.7046,-3.761084806368749,0.0
mp-560570,Rb2NaAl6F21,7.004199999999999,-3.7604833411663336,0.0
mp-11107,Ac2O3,3.522599999999999,-3.76040157775,0.0
mp-5985,HoTaO4,4.073,-3.759845789166666,0.0
mp-674484,YbCe9O20,0.0,-3.7598285061666674,0.0339883336249968
mp-676167,Tb14Ti10O41,2.3958,-3.75982838822436,0.0897864906538341
mp-10250,BaLiF3,6.564299999999999,-3.759216087714,0.02196861
mp-755358,LuAlO3,3.6479,-3.75867511175,0.0614760167499977
mp-15056,NaZr2TiF11,0.0,-3.7585071866504447,0.0057523859351817
mp-5503,ErTaO4,4.0531,-3.7584312841666665,0.003976592499999
mp-4434,TbAlO3,5.598200000000001,-3.757341960916667,0.0089939236500011
mp-7703,DyTaO4,4.0605,-3.7570694519444414,0.0
mp-27403,LiUF5,0.26079999999999903,-3.7569382965642864,0.0
mp-556075,SrDy2O4,3.6952,-3.7567946929761904,0.0046878053571433
mp-557483,YbClF,6.0554,-3.7567896948166655,0.0
mp-530245,Tm2TiO5,1.864099999999999,-3.755923505520833,0.1761392729687489
mp-753815,CaY2O4,4.1546,-3.7555256128571424,0.0396853114285704
mp-4344,HoTaO4,4.050800000000001,-3.7555133258333337,0.0043324633333323
mp-755044,CaTb2O4,4.032,-3.755484218809524,0.049268304464288
mp-33872,Na7Zr6F31,5.2616,-3.755354872656591,0.0032877070170584
mp-768411,Dy2SiO5,4.163,-3.754666185885416,0.0789189799999992
mp-14128,K2HfF6,6.4672,-3.7538312346822216,0.0
mp-676314,Dy10Ti6O27,1.7770000000000001,-3.753830505474808,0.1270702181395329
mp-770771,SrSc2O4,3.4364,-3.753607961071427,0.0
mp-771834,Tb3NbO7,0.0,-3.753603358068183,0.0208909996590911
mp-8416,BaCaGaF7,5.8537,-3.753203703333,0.0
mp-669376,KU2F9,0.2237,-3.7526467515175006,0.1044181889583724
mp-12932,TbTaO4,4.0492,-3.752608725555554,0.0
mp-557914,DyTaO4,4.1277,-3.7521675027777768,0.0049019491666655
mp-754599,BaTm2O4,3.229699999999999,-3.7519810257142856,0.0
mp-754225,YbTiO3,2.3173,-3.751514613583333,0.0
mp-16705,Pr2O3,3.6593,-3.75031942775,0.0
mp-14107,NpF3,0.0,-3.74998157058,0.0
mp-559737,Rb2Tb3AlF16,0.0,-3.74992241632,0.0018101792272746
mp-776575,BaTm2O4,3.838,-3.749646415238095,0.0023346104761863
mp-8590,K2HfF6,6.7637,-3.749645325793333,0.0041859088888891
mp-4423,La2Ti2O7,2.7466000000000013,-3.7486117501893945,0.0500664445454575
mp-12193,Nd2Ti2O7,2.9231000000000003,-3.7484302215530314,0.0
mp-754741,ZrO2,3.4022,-3.747838180833333,0.0853816316666691
mp-554593,TbTaO4,4.1244,-3.747470629722221,0.0051380958333311
mp-684890,Tb4F15,0.0,-3.7472351624307016,0.0341253327068411
mp-542038,Er3Si3O10F,5.097099999999999,-3.7469772250699993,0.0060334553431431
mp-766289,ZrU9O20,0.0,-3.746865874499999,0.0330414164999997
mp-29788,KTb3F12,0.0,-3.7468246321425,0.0351002553124999
mp-684966,Tb8O13,0.0,-3.7463220251388902,0.0650763523214283
mp-676556,Sm2Zr8O19,2.2727,-3.746117993405172,0.1024494760344847
mp-775935,ZrO2,3.8528000000000002,-3.746078496388889,0.0871413161111114
mp-561353,NaZr2MnF11,4.2206,-3.745792546936666,0.0
mp-542831,Gd2SiO5,3.0252,-3.744990694531249,0.0
mp-642655,K2GdF5,4.5118,-3.7442929026187497,0.0
mp-5302,Gd2Ti2O7,2.637599999999999,-3.7439644488257575,0.0077319393181802
mp-7104,CsCaF3,6.8717,-3.743936901714,0.0
mp-753197,HfTiO4,2.8259,-3.7438599569444455,0.035152966666665
mp-753802,Sc2Ti2O7,3.5775,-3.743531116553032,0.0
mp-16165,Ho3Si3O10F,5.1135,-3.7434176702170583,0.0
mp-3335,Sm2Ti2O7,2.7404,-3.742918294734849,0.0097997909090921
mp-771045,La2SiO5,4.0614,-3.7419168849479134,0.0501422045833326
mp-531302,La10(Si2O9)3,3.3825,-3.741367160319769,0.0242160981976979
mp-669375,Gd3B2(O2F)3,2.8116,-3.7408490221002366,0.0
mp-14132,Lu3Al5O12,5.0364,-3.74056131425,0.0
mp-7193,Lu2Si2O7,4.8449,-3.7404435362500017,0.0
mp-675128,Sc4Ti3O12,2.7582,-3.7402822236842113,0.0365943763157865
mp-772633,SrSc2O4,4.035,-3.740143850714286,0.0134641103571375
mp-5926,KCaF3,6.6469000000000005,-3.7398466622139983,0.0
mp-16164,Dy3Si3O10F,5.1089,-3.739179097422941,0.0
mp-561149,Ce2O3,0.0,-3.738761087416665,0.0378992458333336
mp-685370,Y2Ti2O7,2.726899999999999,-3.738521861666668,0.0411392128409051
mp-3792,YAlO3,5.5402000000000005,-3.73776619025,0.0186693636000008
mp-754435,LuAlO3,5.0767,-3.73771917275,0.0824319557499979
mp-754936,DyAlO3,5.165999999999999,-3.7376813020833337,0.0407966384000015
mp-2721,Ce2O3,0.0,-3.7372749227499993,0.0393854104999995
mp-675821,Y3TaO7,3.6486,-3.7371676178409103,0.1205716859090824
mp-560349,La3NbO7,2.8479,-3.736511554431817,0.0
mp-5377,YTaO4,4.0314,-3.736263337916665,0.0
mp-560236,MgF2,6.2865,-3.73609268746,0.1111410733333331
mp-758784,YZr4O9,0.0757,-3.7360788195535712,0.0666018184642833
mp-753781,EuHfO3,0.479599999999999,-3.73588097275,0.0
mp-756135,Tb3NbO7,2.5846,-3.7358089330681823,0.038685424659091
mp-2920,LaAlO3,4.0189,-3.73579689575,0.0
mp-768518,LaAlO3,4.4362,-3.7354879360833335,0.0003089596666665
mp-675076,Sr5U5O18,0.0057,-3.735349191160714,0.0
mp-504520,RbEu3F10,0.0,-3.7352633504928567,0.0
mp-3654,RbCaF3,6.397399999999999,-3.7348574617139993,0.0
mp-770474,La4Ti3O12,1.873,-3.734402152368424,0.0934905098684186
mp-769802,Ba2Zr7O16,3.7062,-3.7343030916,0.0275020546000046
mp-14964,Pr3TaO7,3.419899999999999,-3.73416155534091,0.0
mp-560519,Ba3ScCO3F7,4.9085,-3.7340253633053337,0.0
mp-756076,TbTaO4,3.6704,-3.733917858055555,0.0186908674999983
mp-18042,SrTb2O4,3.662199999999999,-3.7334671016666654,0.0087107516071451
mp-15201,Pr2Ti2O7,2.8979999999999992,-3.73336118814394,0.0
mp-561084,Nd4Al2O9,4.0823,-3.733135377583334,0.0
mp-765884,Zr15VO32,1.7356,-3.73249608125,0.0164146326041709
mp-27617,Ce2SeF4,0.0,-3.7323180690505353,0.0
mp-20230,PuOF,0.0,-3.7322281497716663,0.0
mp-28801,La5Ti4O15,0.0,-3.73198172439236,0.0655598798697916
mp-779001,Sr4Hf3O10,4.0727,-3.7317836442647057,0.0121811657352886
mp-4421,LaTaO4,3.468,-3.7310841529166665,0.0
mp-559289,YTaO4,4.1106,-3.730936438750001,0.005326899166647
mp-12287,La3NbO7,2.721299999999999,-3.7308316017045455,0.0056799527272684
mp-676191,Sc11Nb3O24,3.0254,-3.730443003421053,0.0158886973684211
mp-18299,UF3,0.24230000000000002,-3.7300688429758337,0.0
mp-963,ZrO2,2.8574,-3.7290807916666666,0.104139020833335
mp-17275,SrY2O4,3.6959,-3.729055783571428,0.0035804707142936
mp-5304,LaAlO3,3.492499999999999,-3.72905328475,0.0067436110000009
mp-780535,BaLu2O4,2.9254000000000002,-3.7285004678571423,0.0467324597023886
mp-530728,Sc11Nb3O24,2.5343,-3.7283235859210513,0.0180081148684205
mp-560132,Nd2SiO5,4.7758,-3.72822133109375,0.0
mp-3384,Er3Al5O12,4.758,-3.728102685250001,0.0
mp-562057,Cs2Ca2Be3F12,7.1052,-3.728045850093684,0.0
mp-756354,SrSc2O4,2.7653,-3.7275318749999986,0.0260760860714235
mp-16548,ZrTiF6,0.0,-3.727109031725834,0.0183803444097243
mp-752729,CaTb2O4,3.6321,-3.7267620263095234,0.0779904969642881
mp-675068,Nd2Zr8O19,2.3221,-3.7264574378879303,0.1171051455172449
mp-759763,La26B8O51,3.4409,-3.725088235495098,0.0
mp-754141,Ce3TaO7,0.0,-3.724783909886363,0.0101441057670435
mp-2063,Pr2O3,3.745199999999999,-3.7247237247499982,0.0255957030000004
mp-677392,Yb2Ce8O19,0.0,-3.7245330408189647,0.0436327544396526
mp-770210,CaY2O4,3.6651000000000002,-3.7240716796428575,0.071139244642854
mp-555159,Pr2O3,3.5518,-3.7239487187500018,0.0263707089999982
mp-753842,YZr5O11,0.6757000000000001,-3.723749898014706,0.0843200060882338
mp-754114,SrSc2O4,3.503999999999999,-3.722343852857141,0.0312641082142821
mp-14388,Ho3Al5O12,4.6662,-3.72226367975,0.0
mp-778274,Dy5Ti5O17,0.0,-3.7218770915895063,0.070284058426008
mp-3998,LaTaO4,3.3866,-3.721728175833333,0.009355977083338
mp-756850,LuAlO3,3.7125,-3.7216451950833327,0.098505933416666
mp-676951,Dy3NbO7,2.816,-3.721336076704548,0.0676680777272693
mp-850834,Tb5Ti5O17,0.0,-3.721153060601852,0.0654855022685989
mp-675470,YZr9O20,0.0,-3.7209407529166665,0.0645563137291684
mp-18385,Lu2Si2O7,5.199199999999999,-3.720838939886365,0.0196045963636404
mp-12931,SmTaO4,3.9732000000000003,-3.7204650470833336,0.0
mp-757372,Sr5U5O19,0.0,-3.720198472543103,0.0
mp-14630,Y3Si3O10F,5.1402,-3.7199899575700006,0.0004943947058855
mp-753912,CaTb2O4,3.118999999999999,-3.7197700888095233,0.0849824344642868
mp-756468,CaY2O4,3.1247,-3.719366555,0.0758443692857131
mp-308,U3O8,0.0,-3.7182512509090913,0.0
mp-8414,K2HfF6,6.8976000000000015,-3.717990860237778,0.0358403744444437
mp-7064,Er2Si2O7,4.7942,-3.71769830534091,0.0
mp-4950,KCaF3,6.1391,-3.716031585714001,0.0238150764999982
mp-772195,Dy3Al5O12,4.5685,-3.71584872575,0.0
mp-3756,SmTaO4,4.0324,-3.7156863854166664,0.004778661666668
mp-779590,La3PO7,4.062099999999999,-3.7154902712283535,0.0
mp-778664,Tm5Ti5O17,0.0,-3.715403402947533,0.0938990076389209
mp-17363,BaHo2O4,3.2309,-3.7151911989285713,0.0
mp-752785,Sm4U4O17,0.0,-3.71511601925,0.0647880636000035
mp-7624,Er2Si2O7,4.913,-3.714629606250001,0.0030686990909067
mp-7405,SmAlO3,4.7681000000000004,-3.71426901175,0.0
mp-754184,ErAlO3,3.5517,-3.711496613750001,0.0857022627500043
mp-756214,YAlO3,4.9586000000000015,-3.71078997325,0.0456455806000022
mp-752684,BaTm2O4,2.8878999999999992,-3.7104058342857145,0.0415751914285706
mp-5905,Y2BeO4,4.1009,-3.709939252857143,0.0291110849999984
mp-4875,GdTaO4,3.2902,-3.7099182425,0.0
mp-674976,Zr9ScO20,0.0,-3.7096752805,0.0722278372083344
mp-2275,UF6,2.7932,-3.708834134591428,0.0
mp-28974,TiF4,4.166,-3.708593765285334,0.0
mp-754804,La3Ti4O12,0.0,-3.70858532008772,0.0269572771052573
mp-555785,Nd2Ti2O7,2.739699999999999,-3.70857866064394,0.0398515609090868
mp-675882,Dy2TiO5,2.7184,-3.708266118031252,0.1974055008749964
mp-14283,Sr2InF7,4.9452,-3.708237400333,0.0
mp-675329,LaZr9O20,0.0,-3.7080007678333335,0.0781009328958344
mp-14387,Tb3Al5O12,4.473000000000001,-3.707427781625,0.0
mp-8037,BaThO3,3.2009,-3.707107836750001,0.0585633839999975
mp-3960,CaUO4,2.1516,-3.7068319274999992,0.0
mp-674436,NdZr9O20,0.0,-3.7049307694166673,0.0694010521458317
mp-5575,GdTaO4,3.268599999999999,-3.704186457500001,0.0057317849999822
mp-3564,BaSc2O4,3.8718,-3.7036104047619056,0.0
mp-752432,Gd3NbO7,2.385599999999999,-3.7031796403409087,0.0053627354545504
mp-5223,GdAlO3,3.2382,-3.702378382250002,0.0088015729999977
mp-780255,Gd3NbO7,2.282,-3.7022258567045454,0.0063165190909142
mp-758038,La2Ti3O9,2.140799999999999,-3.701581621160714,0.0371293133928354
mp-755512,Sm3NbO7,2.843,-3.7010115619318182,0.0014058730681796
mp-768417,LaAlO3,4.276999999999999,-3.7007542904166666,0.0350426053333343
mp-756591,Sm3NbO7,2.5867,-3.7005631546590902,0.0018542803409076
mp-4002,Li2ZrF6,6.477399999999999,-3.700330496348888,0.0
mp-672341,UF6,2.7449,-3.700149412805714,0.0086847217857135
mp-753164,YbTiO3,3.582,-3.700034762083334,0.0514798514999981
mp-752691,Sr3Hf2O7,4.1002,-3.699562849895834,0.0082206787499981
mp-10342,Tm6ReO12,0.05689999999999901,-3.699521262105264,0.0
mp-6457,La2MgTiO6,3.145,-3.699274860916666,0.0082220482500012
mp-861249,Zr11VO24,1.7597,-3.699266319722224,0.021541361250005
mp-3050,Y3Al5O12,4.4951,-3.698391927875,0.0
mp-3203,NdTaO4,3.941799999999999,-3.697383090416667,0.0
mp-756705,YAlO3,4.0582,-3.69624085125,0.0601947026000022
mp-771816,Gd3NbO7,2.2513,-3.695870371477272,0.0126720043181869
mp-18662,Ho2Si2O7,5.0286,-3.695756363068184,0.0
mp-779519,Ba4Hf3O10,3.604,-3.6951431298529407,0.0056548723529417
mp-675759,Tm10Ti6O27,1.711099999999999,-3.6945220089244186,0.209920736686044
mp-18318,Tm2Si2O7,4.5925,-3.6943861544318186,0.036590575454559
mp-542219,Li2ZrF6,6.0773,-3.6941740735711113,0.0061564227777752
mp-557686,ZrVF6,2.4087,-3.6934500858925,0.0
mp-8415,K2HfF6,6.8346,-3.693281803571112,0.0605494311111112
mp-4718,NdTaO4,4.0262,-3.6931827512499993,0.0042003391666671
mp-559747,La2Ti2SiO9,2.6201,-3.693123773541666,0.0023274863392863
mp-771703,LaAlO3,4.1704,-3.69306874275,0.0427281530000005
mp-755065,Ce2Ti2O7,0.0,-3.691725866098485,0.0096140043181822
mp-246,TiF3,0.0,-3.691626921309167,0.0
mp-39226,SrLa4TiAl4O15,2.099999999999999,-3.6912517598166654,0.0137687925997855
mp-5899,NdAlO3,4.353999999999999,-3.68914910825,0.0
mp-686674,Ba2La3Si3O12F,4.109400000000001,-3.6891157651757154,0.0
mp-676106,NdZr9O20,0.0,-3.6891014740833343,0.0852303474791646
mp-685945,Er14Ti10O41,1.114499999999999,-3.689084198275642,0.1728560803846139
mp-5732,La2Si2O7,4.781899999999999,-3.688562659204546,0.0
mp-675563,LaZr9O20,0.0,-3.6885444851666658,0.0975572155625013
mp-556134,NaZr2FeF11,3.4179,-3.6884809168726673,0.0
mp-583034,Ba2U2O7,0.4186,-3.6879750676136367,0.0
mp-13634,Cs2LiAl3F12,7.0872,-3.68733086746,0.0
mp-27980,U(OF)2,2.0451,-3.687251386976,0.0
mp-780402,Sc2Ti2O7,2.8328,-3.687085249166669,0.0564458673863601
mp-779517,Sr3Hf2O7,3.6592000000000002,-3.686647601562501,0.021135927083332
mp-760533,SmZr4O9,0.0,-3.6852928809821424,0.0986458638214333
mp-4471,ScAlO3,4.591900000000001,-3.6849646097499993,0.0281238593750057
mp-676249,SrU2O6,0.0,-3.684819201944444,0.0515017575555489
mp-541097,Zr3Pb(O2F3)2,2.839,-3.6845547205100018,0.0
mp-675436,Sm2Zr2O7,2.5065,-3.684089467613637,0.1895923495454532
mp-3311,SrUO4,2.0862,-3.684046469166668,0.0
mp-36329,SrUO4,1.9691,-3.6840447925,1.6766667005896352e-06
mp-5652,Y2Si2O7,4.8042,-3.683839724886364,0.0
mp-755901,Sm3NbO7,2.6062,-3.683817853295456,0.0185995817045387
mp-16809,Ho2Si2O7,4.616,-3.6836555589772737,0.012100804090906
mp-4571,CaZrO3,3.8263000000000003,-3.6835208172500016,0.0
mp-19005,Y6WO12,3.4318,-3.68350771263158,0.0
mp-675372,CaZr4O9,2.2314,-3.683475817946428,0.0962800676785811
mp-768176,TmTaO4,3.5355,-3.6832609216666654,0.0863131891666668
mp-781897,Gd3NbO7,2.2338,-3.683127623977272,0.0254147518181877
mp-13946,Rb2ZrF6,6.6418,-3.6828025752377775,0.0
mp-18433,NdTaO4,3.6099,-3.68198949625,0.0153935941666674
mp-5450,K2ZrF6,5.5342,-3.6818285246822224,0.0
mp-752413,Ca2HfO4,3.840999999999999,-3.681413652857143,0.0039835317857015
mp-7999,Y2Si2O7,4.927899999999999,-3.681319085795456,0.0025206390909016
mp-5611,BaUO4,2.1144,-3.6811231249999983,0.0
mp-17062,Dy2Si2O7,4.6278,-3.680533047689394,0.003359684090908
mp-1016873,CaHfO3,3.664399999999999,-3.68049738375,0.1543734384999968
mp-18258,BaTb2O4,3.2026,-3.6802022302380952,0.0
mp-5974,La2Si2O7,4.651299999999999,-3.680129201363637,0.0084334578409439
mp-12309,Cs2NaAl3F12,6.9232000000000005,-3.679819323293335,0.0
mp-18639,La2Si2O7,4.5641,-3.678796590113637,0.0097660690909435
mp-771698,LaAlO3,4.4777000000000005,-3.6787657947500008,0.0570311009999997
mp-559628,NaNp3F13,0.0,-3.678543763630589,0.0585260837745087
mp-752679,CaGd2O4,3.26,-3.677962430000002,0.0582762899999984
mp-560029,Y3BrO4,4.2046,-3.6778576734375017,0.0
mp-676515,YZr5O12,0.0,-3.6776460643055566,0.1243804657986018
mp-37727,Er10Ti6O27,1.721,-3.676729171947676,0.2125686587209294
mp-654139,Nd2Ti4O11,3.1437,-3.6761405814950985,0.0
mp-559734,UOF4,2.5352,-3.676056482668333,0.0237848404166696
mp-17308,Tb2Si2O7,4.6357,-3.6757656439015154,0.0
mp-559078,SrVF5,2.3682,-3.674303819778572,0.0
mp-3466,PrAlO3,4.1325,-3.67417870575,0.0
mp-4609,HfSiO4,5.311100000000001,-3.67405907,0.0
mp-561551,Y2Si2O7,5.1759,-3.6738542989772713,0.0099854259090914
mp-17404,Y2Si2O7,5.1098,-3.6735341876136367,0.0103055372727212
mp-3952,BaY2O4,3.2493,-3.672981313928573,0.0
mp-561424,KAlF4,6.9091000000000005,-3.67247906621,0.0
mp-12673,Lu2SO2,3.0925,-3.6720827393124993,0.0
mp-558781,ScTaO4,4.0258,-3.6714933,0.0
mp-3626,SrZrO3,3.416,-3.6714003147500014,0.008162528999998
mp-558985,La3Si2ClO8,4.5009,-3.67012872809,0.0002005430357172
mp-27478,Na3PaF8,4.2399000000000004,-3.6693299320433344,0.0
mp-767805,Zr11VO24,1.7651000000000001,-3.669126026111112,0.0516816548611167
mp-3556,Tm2SO2,3.0985,-3.6688833313124984,0.0
mp-754231,LuTiO3,0.0,-3.667905841083333,0.0632458102500006
mp-17722,PrTaO4,3.575099999999999,-3.667885018749999,0.0
mp-755525,TmTiO3,0.0,-3.667563515583333,0.0622244680000001
mp-5076,SrZrO3,3.5667,-3.666975833750002,0.0125870099999989
mp-997587,La7ScAl8O24,2.534499999999999,-3.6669470907500017,0.0660112516718758
mp-675231,Y2Zr9O22,0.0,-3.6669448050757567,0.0795063785984862
mp-755804,Lu6TeO12,2.8127,-3.6667875823684217,0.0
mp-6622,BaNd2Ti3O10,1.945999999999999,-3.6667206167187487,0.0077131296875005
mp-674477,MgZr4O9,3.7198,-3.666444164732141,0.0570634353571453
mp-38819,Ho10Ti6O27,1.734199999999999,-3.6661835645058143,0.220037257325572
mp-28611,ThTa2O7,2.6556,-3.665751581875001,0.0
mp-560176,K2NaAl3F12,6.8339,-3.665322759960001,0.0
mp-561413,Rb2Tb3AlF16,0.0,-3.665095810865455,0.0866367846818194
mp-555800,La2Si2O7,4.3649000000000004,-3.663942229053029,0.0246204301515522
mp-766995,LiLa3Ti2O9,2.6852,-3.663187000305556,0.0303775319166632
mp-756861,LiLa4Ti3O12,0.0,-3.66291808925,0.0299552159999798
mp-14133,Gd3Al5O12,3.4625,-3.662462701124998,0.0
mp-768230,SmTaO4,3.4665999999999992,-3.6621899454166673,0.0582751016666662
mp-542832,Ba3Lu4O9,3.1681,-3.661708721953125,0.0
mp-557763,Nd3NbO7,2.804599999999999,-3.660923038068184,0.0
mp-554899,CsAlF4,6.9718,-3.66083372246,0.0057893331944454
mp-3523,SrGd2O4,3.01,-3.660826947857144,0.012837102142857
mp-581644,Y2Si2O7,4.566000000000001,-3.660823783598484,0.0230159412878734
mp-753766,Ho6ReO12,0.0359,-3.660816902105263,0.0
mp-556860,Y2Si2O7,4.6683,-3.66077707125,0.0230626536363569
mp-780370,Sm3Al5O12,4.1378,-3.6603831825000017,0.0
mp-557074,BaPr2Ti3O10,1.949,-3.6601425710937487,0.0024522914062483
mp-752396,Ca2HfO4,0.0,-3.6601402271428567,0.0252569574999874
mp-1020622,SrZrO3,3.1654,-3.6598665327500006,0.0196963109999988
mp-15141,NaZr2ZnF11,5.7288,-3.659259047206001,0.0
mp-2910,KAlF4,6.9377,-3.6592440841266662,0.0132349820833299
mp-13997,RbAlF4,6.8327,-3.6590705796266665,0.0
mp-5259,RbAlF4,6.9365,-3.658792730793332,0.0002778488333374
mp-4693,RbAlF4,6.943799999999999,-3.6586843453766655,0.000386234250004