mpid,formula,BG,FE,e_hull
mp-859129,Li5Si2BiO8,2.760099999999999,-2.5841399421875,0.059441767265624
mp-638033,SiO2,0.210399999999999,-2.5840814008333326,0.7006315066666664
mp-542291,Sm2Mo4O15,2.5309,-2.583998091765874,0.0
mp-769046,Si2Sn2O7,2.5534,-2.5839757376136374,0.0865552324999976
mp-762458,Li6Cr3P6WO24,1.5734000000000001,-2.5839746112142854,0.0604452098437375
mp-767994,BaV8O16,0.0,-2.5837471904000004,0.017089533650008
mp-675767,La2YbS4,2.1295,-2.5837345051785716,0.0064420507142859
mp-763368,LiV3P5O19,1.025,-2.583732009079507,0.0760026288392454
mp-763769,Li2Fe(PO3)4,4.3505,-2.583478744072683,0.0489443388596422
mp-18906,CrPO4,1.8393000000000002,-2.583475116349206,0.0183961066666658
mp-25523,Fe(SiO3)2,0.0,-2.583448286666667,0.1302950760416656
mp-560624,Na5Bi(P2O7)2,4.2843,-2.58340620874504,0.0029050060416606
mp-766785,Li4Si2NiO7,3.3812,-2.583336369196428,0.0267269671428591
mp-559452,Na5Li(PO4)2,4.3383,-2.5833158492150297,0.0
mp-17208,K2Li14Zr3O14,4.2801,-2.5832738478030297,0.0
mp-765872,LiMnPO4,3.4276,-2.5832583202221757,0.0668999067857143
mp-504354,LiBi(PO3)4,5.1177,-2.583248444021164,0.0
mp-770551,Li2MnAlO4,1.1098,-2.5830965779325004,0.0441226099999934
mp-19619,NaMnPO4,3.051,-2.583062789865035,0.0
mp-770853,Li2CoPO4F,2.6148000000000002,-2.582939199781693,0.0173078041666583
mp-557296,Sr2MnSbO6,0.0651,-2.582901559346,0.0039747392499673
mp-769855,SrCrO3,0.7904,-2.582746954749999,0.0695937931250059
mp-19021,BaCo2(PO4)2,2.3069,-2.5826542843223455,0.0
mp-776883,AlFeO3,2.1089,-2.58256037875,0.0815789355000005
mp-676305,Mg4Sb2O9,2.1611,-2.58246539175,0.0
mp-757816,LiNb(PO3)4,0.286099999999999,-2.582365037354497,0.1006575396335902
mp-861542,LiFeSiO4,1.9886000000000001,-2.5823445996428567,0.0396725539285647
mp-694981,Na4Al3Si3B(HO3)4,4.9472000000000005,-2.582326476523951,0.0
mp-777424,LiFe4OF7,2.5323,-2.5822671730446163,0.0593502376923078
mp-853260,V3O5F,0.5218,-2.582140425826667,0.0268905577777918
mp-765773,V3O5F3,0.8623000000000001,-2.5821069868018185,0.0624461619696541
mp-990436,ScClO,2.630899999999999,-2.582090724836668,0.7702771931944437
mp-851264,LiMnPO4,3.408699999999999,-2.582078447484082,0.068079779523809
mp-6488,KTiAsO5,3.0608,-2.5820272608333332,0.0
mp-780647,V3O5F,0.6140000000000001,-2.5820051147155567,0.0270258688888809
mp-504575,MoOF4,4.1739,-2.581944281418332,0.0
mp-768039,CrOF,1.4562,-2.5818845916466664,0.0736017830555413
mp-770358,Li3V3(BO5)2,1.075,-2.581861963379628,0.0523486950000151
mp-778625,LiCr2P5O16,2.9931,-2.5818163485615084,0.0744717161458341
mp-770354,Li3V3(BO5)2,0.7279,-2.5817977561574055,0.0524129022222368
mp-560023,NiSnF6,4.0928,-2.5817896915175003,0.0
mp-31924,LiMnP2O7,1.224999999999999,-2.5817281639454976,0.0106401447727275
mp-541108,Cd2Si(P2O7)2,4.0752,-2.581634942137188,0.0
mp-776194,Li4Ti3Mn2Sn3O16,1.347999999999999,-2.5815532470328555,0.0622812060714235
mp-540179,Li2Cr3(P2O7)2,2.1845,-2.581514442820912,0.0274236390579449
mp-560340,La2Pd2O5,1.1382,-2.5813736573611106,0.0
mp-560174,NaZn(PO3)3,4.8259,-2.5810004936096944,0.0
mp-761352,LiMnSiO4,0.9032,-2.580924621565714,0.0967814267929796
mp-774623,Li4Sn(PO4)2,3.1841,-2.580728616579365,0.0555540557777813
mp-767460,Li4V2SiGeO10,2.2327,-2.58069030486111,0.0032978780555446
mp-774004,Li4V2SiGeO10,2.1785,-2.5806160426388893,0.003372140277766
mp-861467,LiMnPO4,3.014899999999999,-2.5806030137936053,0.0695552132142856
mp-19411,Cs2SrV4O12,2.6751,-2.580561503157896,0.0
mp-676095,Na3Pr5Cl18,4.3891,-2.58053104091077,0.0149103984615388
mp-769659,Li2TiFeO4,0.0,-2.5804708183333336,0.0835536656249997
mp-559415,Na2Cu2Si4O11,0.2544,-2.580426403881579,0.0411145801315804
mp-761549,LiMnPO4,3.3281,-2.580409157722177,0.0697490692857129
mp-19784,In2Si2O7,1.8171,-2.580384157613637,0.1313989268181803
mp-556757,K2NaNiF6,0.0,-2.580313158214,0.0047616650000019
mp-861536,LiMnPO4,3.3801,-2.580236180936462,0.0699220460714293
mp-6281,NaCa3RuO6,0.4293,-2.580229799772728,0.0
mp-762651,Li2Fe(PO3)4,4.245900000000001,-2.5802008227568924,0.0522222601754487
mp-29992,AsPbF7,4.0652,-2.5801574814811112,0.0
mp-762713,LiMn(PO3)3,4.5887,-2.58015187796398,0.07318705428571
mp-767850,LiFeSiO4,2.8705,-2.5800402010714287,0.0419769524999935
mp-754535,LaAgO2,2.8013,-2.5798604168750003,0.0
mp-16793,Be3Cd4Si3SeO12,2.8506,-2.5797997195040767,0.0
mp-557814,SiO2,1.0636,-2.579775457916667,0.7049374495833325
mp-555047,LiCoF4,1.9285,-2.57974933996,0.0
mp-754019,Na4NpO5,0.6496000000000001,-2.5797215685,0.0
mp-780147,LiMnSiO4,0.9949000000000001,-2.57969612728,0.0980099210786944
mp-780898,Li3Mn2(PO3)7,4.0146,-2.57967101908596,0.0837132019948985
mp-753260,LaAgO2,2.826699999999999,-2.579629363125,0.0002310537500003
mp-772867,La2Bi2O7,0.0,-2.5795730546590905,0.0302455961363605
mp-757053,LiNb(PO3)4,0.274599999999999,-2.5795514687433863,0.103471108244701
mp-757845,LiNb(PO3)4,1.0876,-2.5795333069378312,0.1034892700502556
mp-540161,LiMn(PO3)4,1.5347,-2.5793879515744984,0.0139435006944443
mp-542290,Nd2Mo4O15,2.566499999999999,-2.579316978273809,0.0
mp-622619,UVAgO6,1.6036000000000001,-2.579269750833335,0.0097758261111113
mp-763529,Li3P2WO9,3.3444,-2.5791812548293658,0.049097354499966
mp-706271,K2NaMo(OF)3,3.0415,-2.579164959732,0.0215098152142871
mp-849388,V2O3F,0.0,-2.5791418749900004,0.0922674833333374
mp-19075,K2SrV4O12,3.0368,-2.5790447407894748,0.0
mp-24761,RbGaBP2HO9,4.662599999999999,-2.578920471015143,0.0
mp-764345,CrPO4,2.1378,-2.578853046765872,0.0230181762499999
mp-780646,LiMnPO4,3.1544,-2.5788464073650337,0.0713118196428572
mp-585354,LiCr2P3O10,2.5486,-2.5788340301116057,0.0245896034077066
mp-559868,NaLa(CO3)2,3.9031000000000002,-2.5787291407500006,0.0
mp-707530,Na3AlP2H2O9,4.4885,-2.578724907040028,0.0
mp-780439,LiCr(PO3)4,3.0185,-2.578582810965609,0.0780435974074
mp-775988,Mn2NbFe3(PO4)6,2.299699999999999,-2.5785486408469853,0.004036257870382
mp-773214,Gd2W4O15,2.8721,-2.5784328306547613,0.0681440101190453
mp-753171,Li2CuF4,0.5768,-2.578399414965714,0.0170855835714291
mp-26271,Li2Sn(PO3)4,4.059200000000001,-2.578286845651629,0.0199653511184143
mp-27317,SbAsF8,3.8632,-2.578234989452,0.0
mp-744086,SrLaMnRuO6,0.0,-2.578172716846,0.0368302465000063
mp-770343,Li3V(BO3)2,2.6991,-2.5780852521527784,0.0853456700000006
mp-767557,Li3Mn(OF)2,1.486899999999999,-2.578080977605,0.0915490518749999
mp-775618,Li2TiV5O12,0.6604000000000001,-2.578037578083334,0.0887634229583156
mp-18995,Ba2FeMoO6,0.0,-2.5778289737499995,0.0
mp-756422,Li4CuSi2O7,0.635699999999999,-2.5777264149107144,0.041240127857141
mp-704197,Li2Mo(PO4)2,1.694599999999999,-2.577701688745422,0.0488745431730519
mp-780196,LiMnSiO4,0.40940000000000004,-2.5776071972799985,0.1000988510786955
mp-770022,LiVBO4,2.6883,-2.577605701309525,0.0743650003571349
mp-780810,Li4Ti3V3(TeO8)2,0.612499999999999,-2.577577314642856,0.0658660884183683
mp-540209,Li2Cr3(P2O7)2,3.1927,-2.577498309560041,0.0314397723188148
mp-762217,Li2P4WO13,2.984099999999999,-2.5774523514315475,0.0498964600833771
mp-19622,Ba3MnSb2O9,1.764299999999999,-2.577450315147334,0.0
mp-763020,Fe4OF7,1.9278,-2.5774013728816683,0.0461450066666628
mp-765623,V3O5F3,1.014199999999999,-2.577372328165454,0.0703119207575788
mp-764784,LiFeSiO4,3.0096,-2.577358675,0.0446584785714314
mp-540313,LiFe(PO3)3,4.189500000000001,-2.577288342538265,0.0239866133928643
mp-18596,Ca2ZnGe2O7,3.0488,-2.577241216145834,0.0265243413888915
mp-31950,LiMn(PO3)4,1.7367000000000001,-2.5771937154633866,0.0161377368055566
mp-779925,Ce(WO4)2,1.5929,-2.577037957272726,0.0872023063636362
mp-23609,Zn3B7ClO13,4.4852,-2.576989444632361,0.0007382973697938
mp-774048,Fe4OF7,1.9254,-2.576862520798335,0.0466838587499953
mp-863887,LiFeSiO4,2.514199999999999,-2.576845882142857,0.0451712714285648
mp-762765,Li2FeSiO4,3.2064,-2.576814402708333,0.0497562963541673
mp-557103,B5Pb2ClO9,3.489,-2.5767712160496066,0.0
mp-755542,K2TiPCO7,0.12510000000000002,-2.5766701880009917,0.1136917677083335
mp-773708,LiMnPO4,3.4749,-2.5765033241507487,0.0736549028571422
mp-780336,Li3Cr3(PO4)4,1.976,-2.5764534648992683,0.0837346053846133
mp-765859,LiMnPO4,3.3411,-2.576434830579319,0.0737233964285719
mp-561879,Ba5Yb8Ni4O21,0.1454,-2.576407637269737,0.0251251534210528
mp-697833,SrLaFeRuO6,0.0,-2.5763892122500005,0.0
mp-777699,V3O5F,0.36310000000000003,-2.576345837493333,0.0326851461111044
mp-540673,Ba2MnO3,1.620299999999999,-2.5763454853683334,0.0
mp-772126,Li4Fe(PO4)2,4.2067,-2.576211023079366,0.0906123133333354
mp-554718,Bi(BO2)3,3.8529,-2.5762040940000004,0.015480150749993
mp-762153,Li6Cr3Sb(PO4)6,1.861,-2.576192877839285,0.0648129471874936
mp-767327,Li4Mn3Sn(PO4)4,3.2141,-2.576163858223605,0.0329879794345426
mp-773370,Li2Si2NiO6,3.5469,-2.5761338543181824,0.0757886770454598
mp-565372,LiY(MoO4)2,3.3563,-2.576082093958332,0.0509534462847227
mp-557256,RbP3PbO9,4.5591,-2.5760561973596947,0.0
mp-677094,MgTi3Nb2(PbO3)6,1.9826000000000001,-2.5757380320833336,0.0281707079583304
mp-853231,LiFeOF2,1.559,-2.5757221067260003,0.0869184522222275
mp-770763,LiMnPO4,3.3517,-2.5757096909364625,0.0744485360714284
mp-763643,LiMn(PO3)3,3.6891000000000003,-2.5756268090354086,0.0777121232142814
mp-6394,RbTiAsO5,3.056,-2.5755421303645827,0.0
mp-767478,Li4MnFe3(PO4)4,3.8727,-2.5755196199407484,0.0007026491071089
mp-32906,La2S3,1.920099999999999,-2.5754980739375006,0.0154098134999998
mp-767453,Li4MnFe3(PO4)4,3.7374,-2.5754696747621755,0.0007525942857036
mp-721924,CaFe3Si2HO9,1.3944,-2.575399813116875,0.0
mp-766114,Li4MnFe3(PO4)4,3.7836,-2.5753403990478914,0.0008818699999659
mp-557351,Bi(BO2)3,3.4257,-2.575213784,0.0164704607499928
mp-6113,LiTiAsO5,3.1654,-2.575150812239582,0.0
mp-559627,LiP3PbO9,4.7126,-2.5751171486096944,0.0068359153273798
mp-696156,Ca3Si2(H3O5)2,4.7619,-2.5749827606771425,0.0075466377380983
mp-4819,MgGeO3,2.5261,-2.5749720502499995,0.0
mp-861684,LiMnPO4,3.5553,-2.574930045043606,0.0752281819642846
mp-765809,Li3Mn(PO4)2,0.5757999999999991,-2.5748351926536057,0.0600421998214226
mp-777909,Li2Cr2(PO4)3,0.0,-2.5747416304887203,0.0323675396447393
mp-547521,K2Co(PO3)4,3.1734,-2.57473549933584,0.0
mp-779255,V3O5F,0.33940000000000003,-2.5746254080488904,0.0344055755555476
mp-27723,USeO5,1.732899999999999,-2.5746162528348218,0.0163322791071429
mp-763484,Fe4OF7,1.7312,-2.5746143532983328,0.0489320262499974
mp-10925,Pr2Se2O,2.0603,-2.5746064316874997,0.0041280877499918
mp-9319,Ba2PrPtO6,0.0,-2.5745442087500003,0.0
mp-6504,BaMg(CO3)2,4.084799999999999,-2.57449734625,0.0051527665000001
mp-775447,Li4Ti2V3Cr4O18,1.5306,-2.574463944865591,0.0823171685967985
mp-764745,Fe4OF7,1.8525999999999991,-2.574434402881668,0.049111976666663
mp-753123,Li2CuF4,0.254,-2.5744078449657133,0.0210771535714293
mp-705024,VP2O7,1.3524,-2.574347279994047,0.0677136274999945
mp-754588,ZrBiO4,0.0,-2.5743103358333337,0.0790841575000067
mp-19459,K2MgV2O7,3.6258,-2.5743044915624997,0.0
mp-757142,LiNb(PO3)4,0.9699000000000001,-2.57422411957672,0.1087984574113667
mp-767921,Nb2NiO6,2.0367,-2.57421461638889,0.0333240283333236
mp-24849,PrCoO3,0.0,-2.5741207977500005,0.0
mp-10197,ZrO,0.0,-2.5740882056250007,0.3466556334999975
mp-32465,LiV(PO4)2,1.960999999999999,-2.5740324067658733,0.0268037796527842
mp-11023,ScAuO2,1.763299999999999,-2.574029335625,0.0131913173437512
mp-1005666,Sc3Al3C2O5,0.4127,-2.5739982374038464,0.0180657001923076
mp-542836,Rb2SrV4O12,2.793599999999999,-2.573961329210527,0.0
mp-4575,MgGeO3,2.9034,-2.5739584551249988,0.0010135951250003
mp-762289,Li2P2WO8,3.2535,-2.5738968312454213,0.0359800003846091
mp-777183,TiMn3Cr2(PO4)6,0.0,-2.573878140781058,0.0786347669444467
mp-770154,Li3V3(BO5)2,1.065899999999999,-2.573872278379628,0.0603383800000054
mp-697855,Li2Cr3(P2O7)2,2.7561,-2.5737501921687373,0.0351878897101194
mp-684028,Li3Bi(PO4)2,3.748999999999999,-2.5737349550850346,0.0486149242857179
mp-763360,Li2Co2(SiO3)3,2.8418,-2.5736547180468747,0.0937097832812474
mp-762218,LiVH2OF5,1.9578,-2.573550066944,0.0320605817291692
mp-850109,Li2FeP2O7,3.9051,-2.5735393433283726,0.0529398973611154
mp-16821,Ba3PrRu2O9,0.0,-2.573522637416666,0.0
mp-778570,Fe4OF7,1.644499999999999,-2.573402037048333,0.0501443425000145
mp-770368,Li3V3(BO5)2,0.7012,-2.5733123169907404,0.0608983413889028
mp-777627,LiCr(PO3)4,2.5340000000000003,-2.573301390410053,0.0833250179629558
mp-548691,Sr2ZnReO6,0.0,-2.5732417817500006,0.0430134776666664
mp-675555,Na3Nd5Cl18,4.3701,-2.5731956092761537,0.0156175969230769
mp-763068,Fe4OF7,1.5192,-2.5730770424650005,0.0504693370833297
mp-762576,Li2Fe2Si2O7,2.699799999999999,-2.5730612575961542,0.0757628946153792
mp-566772,Cr3B7IO13,1.964,-2.5730352542881945,0.0
mp-765871,LiMnPO4,3.2177000000000002,-2.572999637722177,0.0771585892857134
mp-505177,TiIn2O5,1.9682000000000002,-2.572975762239583,0.0117529159374996
mp-761551,LiMnPO4,3.0053,-2.572951493079319,0.0772067339285724
mp-32022,LiMnP2O7,1.7018,-2.5728568830364065,0.0195114256818182
mp-773718,Li4Fe2(PO4)3,1.543599999999999,-2.572744523299322,0.0297953611309402
mp-778364,Na6Ti2O7,3.4136,-2.572524039805556,0.0043821736666656
mp-761316,Li7Cr3(SiO6)2,3.344,-2.572403056041667,0.0757630762499959
mp-763990,V3O5F,0.35700000000000004,-2.572382583604445,0.0366483999999935
mp-556353,Rb2NaNiF6,0.0,-2.572222919214,0.0038095489999996
mp-6716,Ba4Zr(RuO4)3,0.0,-2.5722221590000003,0.0
mp-757685,Li2Cu(SiO3)2,0.087199999999999,-2.572217103863637,0.0808915963636387
mp-762628,LiFe(PO3)4,2.4755000000000003,-2.572145630132276,0.0231110259722164
mp-762990,LiCr(PO3)4,2.5311,-2.572125903187831,0.0845005051851783
mp-850882,Li2Cr(PO3)5,1.6743000000000001,-2.5720469201837473,0.0982776251811605
mp-769457,Li4Ti4Cr(Fe2O9)2,0.646199999999999,-2.5719189496505384,0.0881880401863668
mp-761711,Li4V3SiO10,1.4529,-2.5719179418055553,0.0730617563194613
mp-6017,Na3In(PO4)2,3.2621,-2.5718866104421765,0.0
mp-770782,Li6V(BO3)3,2.4695,-2.5718759246710534,0.0589061204385998
mp-775993,TiMn2Fe3(PO4)6,0.0,-2.571854021865503,0.0175450272916481
mp-770487,Li3V3(BO5)2,0.47390000000000004,-2.5718328161574058,0.0623778422222374
mp-767248,LiFeSiO4,2.6071,-2.5717842659523806,0.0502328876190407
mp-780115,Li7Cr3Co(PO4)6,2.1361,-2.57177548630662,0.0731418813109696
mp-699257,CaAl2Si2(H2O5)2,4.3611,-2.5716588548410524,0.2216522288815774
mp-26585,Li5Sb2P5O18,3.5081,-2.571629202099207,0.0263347981944574
mp-6336,Na3In(PO4)2,3.3646,-2.571612330799319,0.000274279642844
mp-555490,KRe2O4F7,3.0237,-2.571603033452143,0.0
mp-849515,LiMnPO4,3.1179,-2.5715950582578917,0.0785631687499996
mp-7971,Ba4Li(SbO4)3,1.454399999999999,-2.5715640745000012,0.0
mp-706426,Ca2P2H4O9,5.0576,-2.5714479327600284,0.0092180577941167
mp-761460,Li2FeP2O7,3.8886000000000003,-2.571421635828372,0.0542811387500021
mp-861477,LiMnPO4,3.0874,-2.571413887007892,0.0787443399999991
mp-694891,KRb2Mo(OF)3,3.0236,-2.5713823522320007,0.0066066004642841
mp-763716,LiMnPO4,3.1127,-2.571301173793605,0.0788570532142856
mp-850145,Li4Mn7(PO4)6,2.977299999999999,-2.571294671104669,0.0517503830487822
mp-774148,MnNbO4,0.0,-2.5712831593266663,0.0546703706770745
mp-27033,Li2SnP2O7,3.9316,-2.571057365203373,0.0171699760416608
mp-762545,Li2FeSiO4,2.779699999999999,-2.571023278593749,0.0555474204687511
mp-540242,LiMnP2O7,1.7152,-2.570973659627316,0.0213946490909098
mp-766047,K5Li3Ti8(AsO5)8,3.0181,-2.5708670103645828,0.0085815822460935
mp-762303,Li2CrSiO4,2.6298,-2.57083794578125,0.0910787617187542
mp-763211,V3O5F,0.2267,-2.570789349715556,0.038241633888882
mp-703342,Ti2P2H4O11,2.7606,-2.570725718302833,0.0055248917105332
mp-758002,Li3Sn(PO4)2,0.24860000000000002,-2.57067989079932,0.0557995283630985
mp-27422,CsBiF6,2.8234,-2.5706663652675004,0.0
mp-778319,LiMnP2O7,1.165099999999999,-2.5706658153091344,0.0217024934090908
mp-31739,Li2CrP4O13,0.12710000000000002,-2.5706293369315487,0.0430076913437531
mp-766931,Li2Si2NiO6,3.3892,-2.5706244475,0.0812980838636425
mp-997003,LaAuO2,2.7162,-2.570435878125,0.0210850389583372
mp-772349,V5(BO5)2,0.4389,-2.570321476813724,0.0351735445220615
mp-14535,In(PO3)3,4.3968,-2.570314582092492,0.0
mp-763319,V3O5F,0.0471,-2.570259558604445,0.038771424999993
mp-18875,MgWO4,3.6767,-2.5701405341666663,0.0
mp-770382,Li3V3(BO5)2,1.0475,-2.5701184044907395,0.0640922538889041
mp-849355,LiMnP2O7,0.9064999999999991,-2.5700362378091346,0.0223320709090915
mp-557038,MnAs2F12,3.9706,-2.5700112323493327,0.0
mp-771572,NbV3O8,1.150999999999999,-2.569981779583334,0.0923990905208285
mp-775081,LiNbCrO4,0.0,-2.569963527857143,0.0804243028571356
mp-850368,LiCr3(P3O10)2,1.7223,-2.569814813452381,0.0755898829166721
mp-762400,Li2CrSiO4,1.5431,-2.569733269375,0.0921834381250041
mp-761326,LiVPO4,2.1744,-2.569714882227891,0.0811488132359263
mp-767743,LiFeSiO4,2.8325,-2.569698221428572,0.0523189321428496
mp-766806,LiMn2F9,2.2679,-2.569639170635833,0.0131332526909728
mp-772267,Li2AlFeO4,3.1075,-2.56961586875,0.0168410309375
mp-761321,LiVPO4,2.269199999999999,-2.5695950061564625,0.0812686893073548
mp-782647,Li2MnP3O10,1.3778,-2.569572958921607,0.0625670778645837
mp-560711,Sm10S14O,1.849999999999999,-2.5694679223250008,0.0080102913999997
mp-782713,Li3TiCr2O6,0.0,-2.5693634770138893,0.0577676897222243
mp-697764,LiFeP2O7,2.4905999999999993,-2.569218536812771,0.0183469790909089
mp-775439,Li2Cr3P5O18,0.845,-2.5691643106420057,0.0976529082142798
mp-761511,Li6VFe3(PO4)6,1.7495,-2.5690829147142864,0.0455730214218972
mp-32800,Ac2S3,2.2729,-2.5689971299375003,0.0
mp-769211,Tb2Pb2O7,0.9557000000000001,-2.5688871227651515,0.0
mp-764898,V3O5F,0.0,-2.568857239160001,0.0401737444444378
mp-9806,KGd(CO3)2,2.699,-2.568847165250001,0.0
mp-619753,Cs4CdNi3F12,4.428,-2.568815726464,0.0
mp-769222,Dy2Pb2O7,0.9474,-2.5687456265530297,0.0
mp-560225,RbP2WO8,3.4378,-2.5687301436408725,0.0
mp-765842,LiMnPO4,3.3736,-2.568662922722176,0.0814953042857151
mp-17349,Na3In2(PO4)3,3.2115,-2.5686488729642853,0.0
mp-559020,KBi(PO3)4,4.8932,-2.5685677273544973,0.0
mp-26649,Li2SnP2O7,4.0479,-2.56851014874504,0.0197171924999937
mp-764111,NaFe(PO3)3,3.9641,-2.5685012616454093,0.0102793600595409
mp-27501,Cs2ThCl6,4.691899999999999,-2.568484814395555,0.0
mp-762276,Li2NbCr3O8,1.944599999999999,-2.568308039642857,0.0
mp-10401,Tl2SnF6,4.2911,-2.5682425791266663,0.0
mp-758115,Li2SnP2O7,4.0435,-2.5681169856200405,0.0201103556249933
mp-757788,LiNb(PO3)4,0.8601000000000001,-2.568068602632275,0.1149539743558109
mp-772684,Cr(PO3)2,2.8477,-2.5680360359656076,0.0073258448444626
mp-15336,Sc2Cu2O5,0.0,-2.5679782768055546,0.0691194531944434
mp-541093,Nb2Hg3S(O2F5)2,2.3509,-2.5679782230481263,0.0
mp-695325,Ti5ZnBi2(Pb2O9)2,1.9482000000000002,-2.567962305361112,0.0181705058333347
mp-619802,LiNbWO6,2.4684,-2.567952864166668,0.0215751294444448
mp-706231,NaSr9Fe5(MoO6)5,0.5036,-2.56791074325,0.0181774484000563
mp-19430,Li3Fe2(PO4)3,2.473,-2.567846607214288,0.0043177153749986
mp-770003,Na2VBPO7,1.4714,-2.567760674875992,0.0906109218154842
mp-772326,TiMn5(PO4)6,0.0,-2.567753119167725,0.0343560528125088
mp-1034270,RbMg14BO15,0.294299999999999,-2.5677129327553763,0.3722267980498541
mp-763489,LiVPO4,2.6635,-2.5676714947278905,0.0831922007359269
mp-771752,Na3CrBPO7,2.8333,-2.5675686460393767,0.0138458262225285
mp-540221,LiMnP2O7,1.303,-2.567560773036408,0.024807535681818
mp-756830,MgCu2(SiO3)4,0.8613000000000001,-2.567559756052632,0.0656015865131589
mp-603902,Sr5Mn5O13,0.0,-2.5675195809152176,0.001730450797087
mp-762222,Li2CuF4,0.9750000000000001,-2.567474964965714,0.0280100335714292
mp-13738,CsCd(PO3)3,4.316,-2.567442825216837,0.0
mp-765550,Li2VO3F,2.5474,-2.5672623028485715,0.0835169199999947
mp-849699,V3O5F,0.20039999999999902,-2.567261288048889,0.0417696955555708
mp-562575,KMo(PO4)2,2.4394,-2.5671494384325397,0.0
mp-778726,Fe4OF7,0.048499999999999,-2.5671110257983343,0.0564353537499968
mp-761657,Li2CrSiO4,1.1657,-2.567093035625,0.0948236718750044
mp-771803,LiNbFeO4,2.1149,-2.5670384528571435,0.0
mp-762681,LiFeSiO4,3.05,-2.5669253897619058,0.055091763809516
mp-706536,Hf(MoO4)2,2.9474,-2.566881081363636,0.0300108081818173
mp-565694,K2P2WO9,4.0835,-2.5668680087457494,0.0
mp-762623,LiFeSiO4,2.8493,-2.566770362619048,0.0552467909523741
mp-27775,U(BiO3)2,1.3333,-2.566654069722222,0.0
mp-763625,LiFeSiO4,2.2198,-2.5666293978571426,0.0553877557142792
mp-764355,LiFeSiO4,2.9554,-2.566618604285715,0.0553985492857069