mpid,formula,BG,FE,e_hull
mp-556046,SrGa2B2O7,3.9684999999999993,-2.7828364355902786,0.0
mp-776647,LiV4O5F7,0.6176,-2.7827989099752943,0.0705614067646926
mp-850140,NaLi3Ti2Fe2(PO4)6,2.4482999999999993,-2.782789414392231,0.0111923507236824
mp-13133,K2TiO3,3.4121,-2.7827892350694454,0.0
mp-3589,BPO4,7.2565,-2.782577359960317,0.0
mp-550579,ScTa(PbO3)2,2.5824,-2.78243629475,0.0182057411875025
mp-806,PuO,0.0,-2.7823314340625007,0.0945046421874984
mp-767103,LiVSiO4,2.630699999999999,-2.782293494642857,0.0698803218749981
mp-762174,Ti3Fe2Co(PO4)6,0.054899999999999005,-2.78221422218254,0.021994012222219
mp-767492,Li2V2Si2O9,1.5602999999999991,-2.7822023987500017,0.0391616146111069
mp-776933,LiFe2F5,3.0921,-2.7820917748062497,0.0665036678125003
mp-766965,Li2MnOF3,1.467099999999999,-2.7820884208257137,0.0636789066071497
mp-764259,Mn4OF6,1.9791999999999992,-2.7820523133845447,0.0258460549999997
mp-767472,LiVSiO4,2.0159,-2.7820216876785717,0.0701521288392843
mp-697022,Ca6Si2H6O13,3.4957,-2.781979050295186,0.0076452967592599
mp-761329,LiMn(SiO3)2,1.497199999999999,-2.7818619078460003,0.0780357912857132
mp-540570,MgVO3,2.6932,-2.7818373287500013,0.0
mp-755104,Ba2YCl7,3.988399999999999,-2.7817074170320004,0.0821459919999991
mp-777902,Ti3Mn2Cu(PO4)6,0.0,-2.7816923208469837,0.0293079271064726
mp-776059,Ti3NbCo2(PO4)6,0.18800000000000003,-2.781666526626984,0.0548509960416581
mp-761613,LiVSiO4,1.7435999999999992,-2.78147113,0.0707026865178557
mp-12410,Ba2TbIrO6,0.0,-2.7814413890833336,0.0
mp-779413,BaP4O11,5.147699999999999,-2.7813169496019343,0.0108469681249987
mp-675214,Rb2Bi3F11,3.8503000000000003,-2.7812987220681253,0.0446400682812502
mp-566861,Na2TiFe5(Si3O10)2,2.3046,-2.7812289088725493,0.0
mp-758329,YbCO3,4.696,-2.7812279612500013,0.0502360024999974
mp-621864,Si4Mo2P4O23,2.681899999999999,-2.7809306194282115,0.0
mp-25765,CaLaMn2O6,0.0,-2.780926798691999,0.004372579749992
mp-989525,Cs2RbPbF6,0.0,-2.7808563007140004,0.0
mp-998298,CsSnF3,3.1037999999999992,-2.7807049107139994,0.0112754739999996
mp-31073,Na3B7O12,4.9219,-2.7807001675757586,0.0
mp-770365,LiAlVO4,0.36549999999999905,-2.78064332,0.0704765025952527
mp-1020633,RbMgBO3,4.3738,-2.7805405625694446,0.0
mp-19278,BaCoP2O7,3.0692,-2.7804350527218613,0.0
mp-754383,BaYb2O4,0.0,-2.780317913571428,0.2340438157142869
mp-769647,VOF,2.7095000000000002,-2.780212782480001,0.0657961000000009
mp-6557,Cs2PO3F,4.3991,-2.7801908815050345,0.0
mp-761619,LiMn(SiO3)2,1.199799999999999,-2.780011397096,0.0798863020357139
mp-776002,Ti3Nb2Cr(PO4)6,0.10649999999999901,-2.779739677460317,0.1316366761326062
mp-767033,LiVSiO4,0.8512999999999991,-2.779600980714285,0.0725728358035704
mp-868760,Li3Ti2VO6,0.0,-2.7795566767361115,0.0917383229166661
mp-757002,KZrPCO7,3.8916,-2.7792863335768403,0.0318269918181837
mp-850153,Li2Mn2(SiO3)3,3.0765,-2.7792800542606253,0.0675178314843716
mp-17177,Nb2ZnO6,3.2874,-2.7791858711111104,0.0
mp-667360,CsSbOF4,3.574899999999999,-2.7785764185966677,0.0
mp-773049,K3LiNb6O15,0.0,-2.778411719149999,0.0864339624307906
mp-546321,Ba2NdBiO6,1.6734,-2.7783155850000005,0.0
mp-762312,Li3CrSi2O7,2.7976,-2.7783125543269227,0.0595351490384583
mp-773715,Er2(WO4)3,4.7386,-2.778299768382354,0.0165070658823545
mp-675881,RbBiF4,3.4703,-2.778173061626666,0.0571491816666709
mp-767303,Li2Mn(SiO3)2,3.1693000000000002,-2.7780700080418184,0.0849454681818091
mp-19315,Sr2MnWO6,2.1882,-2.777854985345999,0.0
mp-752393,Be2P2O7,6.028600000000001,-2.777733531358226,0.0779041734090881
mp-764705,Li2V(OF)2,1.3206,-2.7776813767685704,0.10465340821428
mp-767747,LiVSiO4,2.5729,-2.77765312232143,0.0745206941964262
mp-753048,TiSnO4,1.8366999999999991,-2.7774417311111126,0.0444011637499972
mp-27211,KSb4F13,4.6612,-2.7773625228038887,0.0
mp-39412,SrLaMn2O6,0.0,-2.777318074942,0.0
mp-16433,Ca2Ga2O5,2.1663,-2.777187146805556,0.0333369542592594
mp-560104,LiTaGeO5,3.786499999999999,-2.7771638389062487,0.0
mp-753202,Li5CuF8,0.6895999999999991,-2.777115481394285,0.000793790238097
mp-603719,AlPO4,2.917499999999999,-2.7770852938492063,0.3613798566666704
mp-9819,RbAsF6,5.068799999999999,-2.7769695277675,0.0
mp-774859,LiNbPO5,0.0,-2.776935093980655,0.0791578638819388
mp-773058,Ba6Ti7(Sb3O14)3,0.0,-2.7768685764713537,0.0429917504663066
mp-677371,Sr4LaCl11,2.3272,-2.7768198956787504,0.0977100253125007
mp-6160,Rb2PO3F,4.313,-2.77676313971932,0.0
mp-1019606,Cs2Li2B2P4O15,5.4224,-2.7767605677785707,0.0
mp-754541,TmTlO2,1.3081,-2.7766573768750007,0.0996056826562492
mp-15888,Ba2YIrO6,0.0,-2.776629702000001,0.0
mp-505365,Mg3Nb6O11,0.24370000000000003,-2.776619900687499,0.0
mp-767092,LiVSiO4,2.494999999999999,-2.776456213214286,0.0757176033035698
mp-554344,Li3Al(BO3)2,4.593699999999999,-2.776437588819445,0.0907885104166661
mp-695140,Ba4NbP4(O9F)2,0.0,-2.7762757364572743,0.2113935189439661
mp-560597,Na8Si6SnO18,3.8047,-2.7762528059848495,0.0
mp-560870,BaGa2B2O7,3.9802999999999993,-2.7762412610069447,0.0
mp-14047,Al2Cd3(SiO4)3,2.9522999999999993,-2.7761935348750013,0.0056515304999908
mp-673070,LiNb(PO4)2,2.2718,-2.7761757134325387,0.076807521736141
mp-767463,LiVSiO4,2.641599999999999,-2.7760614623214286,0.076112354196427
mp-18825,YCrO4,0.2676,-2.776011565,0.0
mp-554817,Ba3CaSb2O9,3.161,-2.7759804257500007,0.0
mp-566321,BaVClO3,2.3881,-2.7759234457516677,0.0
mp-764949,MnF3,0.256499999999999,-2.7758468236325,0.005552274166666
mp-18860,Li2VSiO5,2.3621,-2.7757116495833336,0.0
mp-624383,Na2VCuF7,0.0,-2.775709068939091,0.0197750390909066
mp-19055,HoCrO4,0.676099999999999,-2.7755306216666664,0.0224448308333329
mp-22826,KNb8O14,0.0,-2.7754658453260883,0.0
mp-761311,Li4MnSi2O7,3.653,-2.7754541171221425,0.0115749342857158
mp-16980,Rb2B4O7,4.594,-2.7754014461858985,0.0
mp-772566,Ho2(WO4)3,4.7214,-2.7752611007352943,0.015454293529407
mp-743600,ZrFeP3PbO12,2.3786,-2.7752422116269853,0.0
mp-6200,Ba2NdRuO6,0.1532,-2.7749250485000005,0.0
mp-560425,Sr2Cu(BO3)2,0.022400000000000003,-2.774682024734849,0.0360590967045473
mp-998358,MgAgF3,2.1127,-2.774650475714,0.0152169110000004
mp-769009,Ba2YCl7,4.1943,-2.774557351782,0.0892960572499994
mp-8289,SnF3,2.7195,-2.7744896446425,0.0
mp-771984,Li3Nb4FeO12,0.0,-2.7743441647500005,0.0413936696250125
mp-30198,Ba4Ga2O7,3.2427,-2.7743107819551276,0.0
mp-757734,LiNbPO5,0.0,-2.774237652730656,0.0818553051319384
mp-6478,LiTaGeO5,3.7398000000000002,-2.7742258051562487,0.002938033750004
mp-767533,Na2LaPCO7,4.0871,-2.7741584132787707,0.0304095072916608
mp-556874,La6Mo8O33,3.2255,-2.7741442235372333,0.0011437992553204
mp-777684,LiFe2F5,2.636199999999999,-2.7741027532437506,0.0744926893749999
mp-754152,YBiO3,2.4743,-2.7740944392500007,0.0470285207499987
mp-767050,LiVSiO4,2.5999,-2.7740916110714293,0.0780822054464263
mp-773738,LiV2(SiO4)2,0.8687,-2.7739873676923086,0.0995189914423058
mp-541628,CsTeF5,4.6238,-2.77390552835,0.0
mp-861556,Li2MnOF3,1.0863,-2.7738914636828573,0.0718758637500069
mp-771889,Sr5La2Cl16,4.1002,-2.7738744303113045,0.0973764067391309
mp-556197,FeF3,3.1061,-2.7738324683925004,0.0
mp-756376,Li3Nb4ZnO12,0.0,-2.773763332499999,0.0374422314583338
mp-27573,NaSb3F10,4.968,-2.773676185492857,0.0
mp-771697,La2Ga4O9,2.698,-2.7736652267500004,0.0881637484444546
mp-24603,CaAl2Si2(H2O5)2,5.0625,-2.77359804010421,0.0197130436184194
mp-560431,KBe(PO3)3,5.558199999999999,-2.773559530038265,0.0
mp-754079,GdAsO4,3.0349,-2.7735231766666666,0.0460810233333344
mp-772835,K2NdPCO7,4.328699999999999,-2.773515475987104,0.0389430266666721
mp-861564,VOF,2.5369,-2.773312720813333,0.0726961616666681
mp-769815,Sr3W2O9,3.5566,-2.7730230433035707,0.0720195272619061
mp-559965,Sr5As3ClO12,3.8285,-2.7729737515838093,0.0
mp-779970,LiFe2F5,3.2451,-2.7728075838687505,0.07578785875
mp-30165,Sr7Re4O19,0.0,-2.772716216458333,0.0038666296111111
mp-756299,Li4HfO4,4.224,-2.7726979911111105,0.0567023938888926
mp-26113,LiTi(PO3)4,0.28690000000000004,-2.7725005671693137,0.0212637850952335
mp-779491,BaP4O11,5.0699,-2.7723486399144344,0.0198152778125004
mp-777626,Li2Fe2OF6,2.3334,-2.7722170948536364,0.0350268711111096
mp-764963,Li2CoSi3O8,3.1591,-2.772203530000001,0.0852290703571432
mp-676230,U2Bi2O7,0.0,-2.77201678625,0.1371036859090946
mp-780134,Li4Ti3V2Cr3O16,1.181699999999999,-2.7719782792857126,0.0260025190327422
mp-19034,Mg3V2O8,3.3068,-2.771956928461539,0.0
mp-774586,Nb3Sb(PO4)6,1.1879,-2.771687490105041,0.0
mp-779622,Be2P2O7,5.5953,-2.7715940549945883,0.0840436497727266
mp-763904,Li3MnVP2(O4F)2,1.5363,-2.771589656442968,0.0362384465441181
mp-772583,Ca3W2O9,3.2671,-2.7715502729464285,0.0828486771428327
mp-1019721,CsMgBO3,3.149599999999999,-2.7714824498611117,0.0014450613194449
mp-573888,Ba2ScCl7,3.6349,-2.771438396532001,0.0257577862499998
mp-743867,TiMnO3,1.2289,-2.771326111275333,0.1953644850000078
mp-754472,HoCuO2,2.541,-2.771190496875,0.0047908096875
mp-753649,LiZrPCO7,4.1552,-2.770993184940477,0.0527554724999976
mp-644497,BaTiO3,0.3567,-2.7707679580833338,0.7361409879999901
mp-754246,TiSnO3,1.1151,-2.7707574370833337,0.0
mp-763610,LiCrSiO4,2.5476,-2.770633410357142,0.0168872953571455
mp-14377,KTaGeO5,3.9009,-2.7704155684375,0.0
mp-18956,SmCrO4,0.2479,-2.770413090416666,0.0
mp-675250,KBi2F7,3.581,-2.770359220833,0.0916049558750016
mp-673761,Gd5(RuO7)2,0.0,-2.770324864642857,0.092522274523839
mp-558852,FeF3,2.8438,-2.769910290475833,0.0039221779166664
mp-763934,Mn3OF5,0.808999999999999,-2.76989248000889,0.0213118051389002
mp-3080,Ca5(Ga3O7)2,3.0724,-2.7696824185000004,0.0007465633999999
mp-18293,SiP2O7,5.455999999999999,-2.769646220994048,0.0306601137500015
mp-566285,FeF3,2.6772,-2.7696432971425007,0.0041891712499992
mp-849775,Li2Cu(Si2O5)2,0.7199,-2.7693379223529413,0.1066899098529434
mp-647476,Ba3Li2V2Cl4O7,3.1302,-2.769207053432777,0.0105257556481443
mp-767341,Li2ScPCO7,4.4398,-2.76915356327877,0.0474587924999996
mp-13903,ZnSnF6,3.7147,-2.7689581308925004,0.0
mp-754699,NaTi2O3,0.0,-2.7689093790972223,0.0781923563425976
mp-31909,Ta2Mn3O8,2.3188,-2.7688964031061545,0.0224778461538459
mp-755892,SrLa2Cl8,3.8396,-2.7688698037345456,0.0896621622727265
mp-686015,Ca3(PO4)2,2.773,-2.7688091843223455,0.5670469653846215
mp-771735,TaFeO4,2.0926,-2.768803830833334,0.0
mp-767720,Li2V4Si4O13,1.9006999999999992,-2.768637187663044,0.0158644690175346
mp-733653,CaAl2Si2(H2O5)2,5.1385,-2.76862792747263,0.0246831562499991
mp-765856,Li5NiOF5,1.8952,-2.76852434935,0.0307205075000078
mp-769816,Ca3W2O9,3.4497,-2.7684832375892867,0.0859157125000003
mp-770679,Li5CrP2(O4F)2,3.1341,-2.768443407327989,0.0437954864814766
mp-761087,NaTiO2,0.0,-2.768286398541667,0.0420218026388923
mp-12372,CaSO4,5.9558,-2.768248055260416,0.0259105129166652
mp-756156,Rb2ZrO3,3.5441,-2.7682023364583337,0.0
mp-775391,Li4Ti4VCr4O18,1.4674,-2.768142395940861,0.0849919758226143
mp-676778,KBiF4,4.1944,-2.768077190793333,0.1366708160416676
mp-561536,NaMgBO3,3.5852,-2.7679880625694437,0.0056140083333344
mp-763340,Ti3Fe2P6WO24,0.075199999999999,-2.76790369718254,0.036263381450631
mp-5403,Rb2TiO3,3.8598,-2.7678798646527785,0.0
mp-707218,Ba3AlHO4,4.0379,-2.767865894568889,0.0
mp-765558,Li6NiOF6,1.941,-2.767843072027857,0.085921119285711
mp-644409,LiAlPHO5,5.728999999999999,-2.7678257642183595,0.0010333021296302
mp-720658,Cs3Mg3In(PO3)12,4.665699999999999,-2.7677350056753256,0.0
mp-560791,CsNaTiO3,3.3617999999999992,-2.767719780902779,0.0
mp-777005,Li2FeF4,3.501699999999999,-2.7677005335371425,0.2233026614285718
mp-13725,Li3PO4,5.818099999999999,-2.7676639247619046,0.0
mp-22329,NaNd2OsO6,0.540999999999999,-2.7676383747500006,0.0
mp-766753,LiSi4NiO10,1.4342,-2.767444718906249,0.0525344492057291
mp-777447,LiFe2F7,3.4868,-2.7673856783330004,0.0987953921111328
mp-556721,Ba5Re3BrO15,2.54,-2.7672523051562488,0.0
mp-774794,Li5Sm3(SbO6)2,3.3604,-2.7672396286363643,0.0164429095075773
mp-770979,Li2AlVO4,1.6555,-2.767202379375,0.0252610284375025
mp-697853,Ba3WO6,2.5551,-2.7671636502499997,0.099019136749999
mp-770103,LiAlVO4,1.741,-2.766793302619047,0.084326519976206
mp-770516,Tb2(WO4)3,4.7329,-2.7666758473039232,0.0160306769117593
mp-2878,Li3PO4,5.7279,-2.766574454761905,0.0010894699999992
mvc-14312,VF5,2.7003,-2.7665219409916677,0.0593209633333335
mp-768941,Sr3TeO6,3.0317,-2.76614329275,0.0
mp-767097,LiVSiO4,2.5026,-2.7659954585714286,0.0861783579464265
mp-683983,TaO2,0.7658,-2.7657814970833328,0.3655010824166656
mp-556340,CaTaNO2,1.612199999999999,-2.7655908159759997,0.0104481979999935
mp-781125,Ti3VCo2(PO4)6,0.0,-2.7655516760714303,0.0365708006944434
mp-556569,SrTa2Bi2O9,1.5824,-2.765524624732143,0.094258118214288
mp-774416,Ti3Cr(PO4)6,0.4171,-2.7655119170168065,0.0492875560661723
mp-542280,Na4Ca(PO3)6,5.1972,-2.7653968322783253,0.0
mp-566430,Ba3ErMn2O9,0.0,-2.7652270745446668,0.0
mp-773302,Li3Ti2CrO6,0.0,-2.765153517569446,0.0877198840923334
mp-703348,UP3HO11,2.522,-2.765140629790982,0.0
mp-21043,RbPbF3,3.044499999999999,-2.765105661714,0.0331767659999986
mp-776923,Ti3V5O16,1.1384,-2.7650510941666653,0.1071819198958152
mp-774172,Mn3OF5,0.0,-2.7648164805644453,0.0263878045833454
mp-8455,CsF,5.9329,-2.7647845030949996,0.1097502300000017
mp-777081,LiV4O5F7,1.0295,-2.7646644105635296,0.0886959061764578
mp-25501,LiCrPO4F,2.2771,-2.7646535367856533,0.0
mp-4266,KAsF6,4.9494,-2.7645452352675,9.9814999999559e-05
mp-776025,Ti3NbCu2(PO4)6,0.011499999999999,-2.764468983571428,0.0529094825347229
mp-694979,Na2TiFe(PO4)3,2.3154,-2.7643745482080204,0.0043892423747697
mp-765120,Li2Mn2OF6,1.2127000000000001,-2.7642595427554544,0.0811707546590883
mp-32432,Mg2VO4,0.0,-2.764172962142857,0.0986349371428732
mp-778714,V4O5F7,1.5555,-2.76398690997375,0.0109996668750174
mp-755441,SrTaNO2,0.9817999999999991,-2.763869102976,0.0027617094999801
mp-777751,Li3Nb3P8O29,2.4834,-2.763859095372369,0.0320413047791756
mp-1035484,LiMg14BO15,2.069199999999999,-2.7638358788844086,0.1991528733085346
mp-541649,Na2W(OF2)2,4.2853,-2.7638253313622227,0.0
mp-25192,La2(WO4)3,4.048100000000001,-2.763738265294118,0.0156056286764716
mp-769889,TaFeO4,2.4105,-2.7636967866666686,0.0051070441666638
mp-767474,LiVSiO4,0.143899999999999,-2.7636652297619047,0.0885085867559505
mp-755488,SrTaNO2,0.891,-2.7636607644759987,0.0029700479999821
mp-735715,YbV4O8,0.8961000000000001,-2.7635953213461537,0.0
mp-566800,Cs5CaNi4F15,5.4603,-2.763579067714001,0.0
mp-780671,SrTaNO2,0.7380999999999991,-2.763500777476,0.0031300349999803
mp-25502,Cr(SiO3)2,0.525899999999999,-2.76343376861111,0.1114544888888957
mp-1020723,Sr2Ga2O5,2.9485,-2.763423012638889,0.0117788588888902
mp-767634,Na5Fe6(SiO3)12,0.0,-2.763386499830508,0.019465412489426
mp-998193,RbSnF3,3.405299999999999,-2.763337428714,0.0286877749999989
mp-26114,Ti(PO3)4,2.770299999999999,-2.7632627055322123,0.0021960357352952
mp-757305,Li2TiP3O10,0.1411,-2.763237418653274,0.1044655878258877
mp-779909,V6O7F5,1.160599999999999,-2.7631739855388884,0.0246350555555707
mp-849636,SrTaNO2,0.912099999999999,-2.7631724494759995,0.0034583629999804
mp-557017,SiO2,2.5295,-2.763135013124999,0.5215778943750005
mp-775987,Ti3Fe2Ni(PO4)6,1.9837,-2.763118471904763,0.0177475892881915
mp-752423,Na2TiO3,3.2114,-2.7630997467361116,0.0097378250000064
mp-761517,Li4MnSi2O7,3.2934,-2.7630841656935723,0.0239448857142861
mp-761620,Li2Ti2CoO6,2.2921,-2.7630721441666664,0.0871956752272771
mp-18882,VSiP2O9,2.7465,-2.762897568841576,0.027467646346146
mp-640740,Na12B26O45,4.9612,-2.7626894865010048,0.0079388665361364
mp-767784,LiVSiO4,2.778399999999999,-2.7625854592857144,0.0895883572321425
mp-17761,CaGeO3,3.474399999999999,-2.7625717114166672,0.0
mp-767059,LiVSiO4,2.3421,-2.7623745092857144,0.0897993072321403
mp-767118,Li2Mn2OF6,1.3434,-2.7623353995736353,0.0830948978409065
mp-764736,V4O5F7,1.417,-2.7622627812237504,0.0127237956249999
mp-757505,LiNbPO5,0.0,-2.7622563539806544,0.0938366038819396
mp-3324,Nb2SnO6,1.7399,-2.7621804341666683,0.0
mp-9928,CaRhF6,0.0,-2.7621370483925003,0.0
mp-769478,Li4Ti4V4CoO18,1.0827,-2.762114821424732,0.0762423410484203
mp-555433,NaYbCO3F2,0.6712,-2.7620111935787497,0.0397819425781289
mp-565195,SrCrSn(PO4)3,3.085299999999999,-2.7617596769047617,0.0
mp-778393,Ti3MnCo2(PO4)6,0.0,-2.76161835554254,0.0399547184374924
mp-760782,Li5CuF6,1.6620000000000001,-2.7615970247616675,0.1160062318749997
mp-771857,LiTiVO5,1.8191000000000002,-2.761381537239584,0.083547369583357
mp-1034206,RbHfMg14O15,0.0,-2.7609325178629023,0.2031111407661301
mp-753626,Li2NdPCO7,4.5289,-2.760872932237103,0.1040030639583342
mp-556027,SiO2,2.4692,-2.7608706502777784,0.5238422572222214
mp-765332,Mn3F8,0.9161,-2.7608539620363644,0.076708475757572
mp-764774,LiTi2V3O12,2.3031,-2.76082724074074,0.00675878787038
mp-617230,MnF3,0.0,-2.760718367799168,0.0206807299999987
mp-767069,LiVSiO4,2.638499999999999,-2.760605510714286,0.0915683058035687
mp-759224,Li5CuF8,0.7916000000000001,-2.7605675049657146,0.0173417666666679
mp-765234,MnF3,0.0,-2.760559981882499,0.0208391159166669
mp-1020022,Li3B(PO4)2,6.1272,-2.760542316989796,0.0135130799999974
mp-753976,GdAsO4,2.7232,-2.7604606783333345,0.0591435216666678
mp-554885,Ba3Si6N4O9,4.372,-2.7603184963986367,0.0
mp-776064,Li2VPO4F,2.6846,-2.7603065000594693,0.0129344079831756
mp-17464,SrGeO3,3.4068,-2.760290814416666,0.0
mp-772765,K2PrPCO7,4.2654,-2.7602404599454373,0.0372511654166727
mp-767038,LiVSiO4,2.2075,-2.7601885303571434,0.0919852861607122
mp-765685,Li4CoOF4,0.017400000000000002,-2.760124953601,0.0505938245000043
mp-767199,LiMn3OF5,1.8939000000000001,-2.7598497795080013,0.0688150619999996
mp-674366,Tl3SiF7,3.685199999999999,-2.7598280280300003,0.0207876027272728
mp-764307,LiMn3OF5,1.7959,-2.7598127190080013,0.0688521224999991
mp-560595,Ca2AsClO4,3.795,-2.759777578845,0.0
mp-768296,Ti3Bi2(PO4)6,2.3485,-2.7596862653877547,0.0788625835714258
mp-565804,AlMoP2O9,2.7593,-2.7596861834569597,0.0
mp-771002,Li2TiVO4,0.48139999999999905,-2.7596200052083333,0.0160683196875064
mp-764471,V4O5F7,1.5538,-2.75949575184875,0.0154908250000174
mp-777433,V6O7F5,0.28489999999999904,-2.7594480899833327,0.0283609511111269
mp-767030,LiVSiO4,1.9342000000000001,-2.7593118217857144,0.0928619947321411
mp-782677,V6O7F5,0.5941000000000001,-2.759301691094445,0.0285073500000141
mp-767180,Li2MnOF3,0.8163,-2.759296512254285,0.0864708151785658
mp-17941,Na2B4O7,4.618,-2.75926528022436,0.0
mp-1019782,K2LiB(PO4)2,5.3944,-2.7591717287755095,0.0
mp-764699,V6O7F5,0.7667,-2.7591398972055554,0.028669143888905
mp-560794,BaNbTePO8,2.7977,-2.759129978695436,0.0
mp-40066,CaLaMnFeO6,1.3633,-2.759071197846,0.0017874155000008
mp-769572,LiAlVO4,1.408599999999999,-2.7590361321428567,0.0920836904523954
mp-1019778,K2Li3B(P2O7)2,5.5903,-2.758914494960317,0.0
mp-8759,Cs2ZrO3,3.854,-2.758912947291668,0.0
mp-777692,V6O7F5,0.517,-2.7587919983166658,0.0290170427777933
mp-767518,Na2ScPCO7,4.351,-2.7586964907787705,0.0
mp-554577,Li4P2O7,5.650799999999999,-2.7586587446108064,0.0
mp-28450,Li4P2O7,5.6108,-2.75863747268773,2.1271923075438796e-05
mp-557590,NaNbO2F,0.0,-2.7586346302380003,0.1760675120999986
mp-762541,Li4Fe(SiO3)3,3.0729,-2.7586299762500013,0.081957088676468
mp-767620,LiVSiO4,1.3802,-2.758629491785714,0.0935443247321412
mp-770256,Li4V2(SiO4)3,1.6149,-2.7585608526190484,0.0898652623809672
mp-554869,SrGeO3,3.3373,-2.758350739083333,0.0019400753333327
mp-764020,V6O5F19,2.0909,-2.7583077517953343,0.020754226749994
mp-780092,V6O5F19,2.041,-2.7582272421286667,0.0208347364166607
mp-17921,NbSeOF7,4.514699999999999,-2.7581361573173746,0.0
mp-767787,LiVSiO4,2.1243,-2.7579861996428567,0.0941876168749988
mp-758037,Li2Ti3P9O28,0.006699999999999,-2.7579212480442186,0.1006431187930818
mp-4648,KTeF5,5.2046,-2.7575258040642856,0.0
mp-6270,Ba2LiReO6,1.8198,-2.75743077725,0.0
mp-556785,RbTeF5,4.8746,-2.7573593671000007,0.0
mp-505390,Ba2ReO5,0.0,-2.757330114843749,0.0
mp-778750,V6O7F5,0.8096000000000001,-2.7572189433166674,0.0305900977777913
mp-15900,Sr3Sc2Cu2S2O5,1.693,-2.7571359888839284,0.0412557304464282
mp-780444,V6O5F19,2.0069,-2.7569934594620005,0.0220685190833274
mp-722867,Ca3Cu5Si9O26,0.0,-2.75688227017442,0.047108551860461
mp-19197,Ba3CrO5,1.5029000000000001,-2.75680088125,0.0021262127777781
mp-12525,Sr2LiReO6,1.679599999999999,-2.75679272025,0.0105601549999994
mp-863885,LiFe(SiO3)2,3.2301,-2.756787677250001,0.0640382024999812