mpid,formula,BG,FE,e_hull
mp-567058,Na2YMoPO8,4.1934,-2.807678859661173,0.0039816953846143
mp-780811,NbVO4,0.0,-2.807665825833331,0.0276964551041754
mp-680756,Na4TiP2O9,2.8289,-2.8076302338816967,0.0
mp-780301,Mn6OF11,0.19770000000000001,-2.807574692505556,0.0816931222916714
mp-755300,TiO,0.0,-2.807459048958333,0.113229754999999
mp-706477,La2Si2O7,1.9245,-2.8074493151136366,0.8811133440909442
mp-761128,BaNb5O8,0.0,-2.807446427857144,0.0
mp-779360,VOF,1.5008000000000001,-2.807435130396667,0.0385737520833346
mp-861440,RbCaCO3F,4.2981,-2.8074198243961908,0.0
mp-757127,LiSi3BiO8,3.0538,-2.8074097557692306,0.0949813256730687
mp-27431,Sn3BF9,4.3624,-2.807408993644359,0.0
mp-27595,K2ReF8,1.0682,-2.807325009729091,0.0
mp-764312,VOF2,2.1599,-2.8073182134074997,0.0627829392187511
mp-779059,LiV4O5F7,0.8908,-2.807225626151765,0.0461346905882224
mp-767367,VOF,1.999099999999999,-2.8072199658133337,0.0387889166666681
mp-765064,Li2VCrP2(O4F)2,1.9782000000000002,-2.8070434157439874,0.0
mp-6867,KCaCO3F,4.3468,-2.806994511062858,0.0
mp-764368,Li2Mn3OF6,2.417399999999999,-2.8069250701058324,0.0804423308333328
mp-861714,Li2VCrP2(O4F)2,2.0339,-2.8068766242856555,0.0001667914583434
mp-758374,Ta7(P2O7)8,0.0,-2.806810587209163,0.0489901590366095
mp-705483,NaCa3Fe4(SiO3)8,1.7183000000000002,-2.806810375375001,0.1964952928125089
mp-768863,PrAsO4,3.7124,-2.8068062649999987,0.0
mp-1019728,RbEu(PO3)4,0.0,-2.8068009069378306,0.0
mp-765266,LiMn2F7,1.5734000000000001,-2.8066698750250003,0.0760435466666562
mp-851032,VOF,0.8862999999999991,-2.8066422347022217,0.0393666477777792
mp-763137,VOF,0.8776,-2.8065697641466665,0.0394391183333349
mp-24705,SrCaB5H2ClO10,4.962199999999999,-2.806523924316666,0.0083393211874982
mp-764384,Li2Mn4OF8,1.2026000000000001,-2.8065105748073327,0.1008496148333337
mp-764689,VOF,1.0086,-2.806506745813332,0.0395021366666688
mp-644707,La5MnOs3O16,0.0,-2.8064947978384,0.0046865169222289
mp-767145,Mg8V5O16,0.7310999999999991,-2.806450267931035,0.0419967565517351
mp-776708,LiV4O5F7,1.2840999999999991,-2.8063145499752937,0.0470457667646924
mp-556647,Ba5Re3ClO15,2.5307,-2.806229172167083,0.0
mp-765791,Li2V3(OF)4,1.2204,-2.80615565152,0.0722939536324744
mp-763877,Li2VCrP2(O4F)2,2.1005,-2.806150384598156,0.0008930311458437
mp-771967,BaLaCl5,3.400899999999999,-2.8060343612571432,0.0879720653571451
mp-9841,Er2(SO4)3,5.8883,-2.8060014389522063,0.0
mp-1016853,CaVO3,0.0,-2.8059822147500006,0.1308550505000374
mp-559692,Ta2Cd(P2O7)3,3.560699999999999,-2.805921278160714,0.0
mp-763882,Li2VCrP2(O4F)2,2.0115,-2.8058120228273213,0.0012313929166776
mp-763890,Li2VCrP2(O4F)2,1.8744,-2.8057497669939875,0.0012936487500114
mp-14142,TiZnO3,3.0906,-2.8056010910833344,0.0280414371666664
mp-18134,Sr3YbRhO6,0.0,-2.8055554725,0.0
mp-15171,K2MgSiO4,4.0026,-2.80542699546875,0.0
mp-625199,ScHO2,4.4927,-2.8053463240300003,0.2067781725
mp-764008,VOF2,1.117999999999999,-2.8052829609075003,0.0648181917187553
mp-767024,Li2VCrP2(O4F)2,2.0572,-2.8051933655356556,0.0018500502083433
mp-776924,Ti3FeSn2(PO4)6,1.3088,-2.8048848385714304,0.0024859465277788
mp-1019737,KEu(PO3)4,0.0,-2.804883041660053,0.0011007540277772
mp-7604,Mg3NF3,3.5817,-2.8047229429928566,0.0
mp-5811,CsPbF3,2.9248000000000003,-2.8046464897139995,0.0045707610000018
mp-555559,Sm3NbSe3O4,1.6340000000000001,-2.804623022571023,0.0232824330303182
mp-28286,Na3Sb5F18,4.3786,-2.8046209399584616,0.0063432431730801
mp-24908,TmCrO4,0.21420000000000003,-2.804602377499999,0.0
mp-770362,Li3Al2VO6,2.2174,-2.8045310072916667,0.0891307695833329
mp-768978,Ho2(SO4)3,5.9222,-2.8044760239522057,0.0
mp-757077,Li2Cu2Si8O19,0.210599999999999,-2.804460747862904,0.1057266466129034
mp-534982,Al13Si5H14Cl(O17F2)2,3.8563,-2.804432095509859,0.0284125188262898
mp-30983,CaP4O11,5.3423,-2.8043900217894353,0.00020123109375
mp-989585,Cs2KPbF6,0.0,-2.8040180927139997,0.0
mp-6706,TiTlPO5,2.647299999999999,-2.8039959352827384,0.0
mp-559557,Cs2Na2B10O17,4.7124999999999995,-2.8039288981586026,0.0
mp-776786,VOF,1.4477,-2.803867182896667,0.0421416995833343
mp-560944,Cs4Ba(PO3)6,5.106400000000001,-2.8037376434852224,0.0
mp-772089,SrLaCl5,3.6632000000000002,-2.803538297864286,0.0602174901785703
mp-754300,HoBiO3,2.4719,-2.803469788750001,0.0493585999999979
mp-755867,Lu2Sb2O7,1.4236,-2.8033339980681817,0.0893279803409239
mp-39684,GdTiCdSbO7,2.3292,-2.8028510377651528,0.0
mp-763639,Li3Ti2V3O10,1.6465,-2.8026589831018507,0.043324370625001
mp-768800,Ho2(SO4)3,5.8704,-2.8026334060110303,0.0018426179411781
mp-760205,Ba16S16O59,4.9752,-2.8026158991071433,0.0198722588049449
mp-7002,NaTiO2,0.0,-2.8025646760416665,0.0077435251388928
mp-767794,LiVSiO4,1.571799999999999,-2.8025310275,0.049642789017855
mp-4287,Sr2SnO4,2.645499999999999,-2.802441541428571,0.0
mp-777023,Ti3CrSn2(PO4)6,0.025699999999999,-2.8023791096825392,0.003343050659712
mp-766778,Mn2F5,0.0,-2.8021879739814284,0.0674678009523779
mp-556226,NaB3O5,5.2407,-2.8021528843055563,0.0
mp-765739,VOF,0.7756999999999991,-2.8020089866466673,0.043999895833334
mp-763577,Li3Ti2V2O8,0.0,-2.801993914888889,0.0593183453333381
mp-779316,VOF,0.8796,-2.8019722403966667,0.0440366420833351
mp-775449,Li2Mn(SiO3)2,3.0724,-2.8019455912236357,0.0610698849999913
mp-557406,NaB3O5,5.2573,-2.8019040088425933,0.0002488754629554
mp-765924,Mn2F5,0.0,-2.8018886239814287,0.0677671509523785
mp-23093,Sr2NdBiO6,1.7018,-2.8018628075,0.0
mp-764052,VOF,0.752899999999999,-2.801813546230001,0.0441953362500004
mp-773275,Li4Ti3CrO8,0.0,-2.801676386875,0.1056504003286296
mp-779315,VOF,0.753699999999999,-2.801658022896667,0.0443508595833339
mp-27553,Ta2SnO7,1.4837999999999991,-2.801507874874998,0.1844105025000111
mp-777188,VOF,0.8874000000000001,-2.8013474349800007,0.0446614475000002
mp-542237,SmP4HO12,5.7384,-2.801327321861166,0.0
mp-557327,Na3Li3Co2F12,1.8825999999999992,-2.8013165782140006,0.0
mp-669354,LaNb2CuClO7,0.0,-2.8012621860008338,0.0654452477083307
mp-628819,Cs2TlFeF6,2.8622,-2.801236937214,0.0
mp-865427,KSrCO3F,4.0934,-2.8010792782057146,0.0
mp-619843,Nb2FeO6,2.218499999999999,-2.801029969166668,0.0
mp-19696,CaMgV2O7,2.7162,-2.8010011118181812,0.0053671039772718
mp-863745,RbSrCO3F,4.1259,-2.8009074539200007,0.0
mp-769737,LiAlVO4,1.513599999999999,-2.8009058892857146,0.0502139333095383
mp-19349,NaMn(SiO3)2,1.016199999999999,-2.8008837318460005,0.0085972497291688
mp-19638,KSrVO4,3.8583,-2.800786223928572,0.0025213717857139
mp-35417,Li3TaO4,1.5777,-2.8007679706249995,0.0645909781249987
mp-703589,K4Ti2H2O5F8,2.638299999999999,-2.8006737260163503,0.0174179979166693
mp-756647,K2YPCO7,4.4412,-2.800649149320437,0.0166252675000002
mp-761439,LiMn(SiO3)2,0.7142000000000001,-2.800631671471,0.0592660276607137
mp-777719,LiV4O5F7,1.2058,-2.800485763210588,0.0528745535293984
mp-23611,BaTa2Bi2O9,1.9158,-2.800449580803572,0.0299604416070948
mp-18449,K2ZrO3,3.6641,-2.800435953125002,0.0
mp-4941,Sr2SnO4,2.704799999999999,-2.800363359285714,0.0020781821428572
mp-13194,PrSbO4,2.198299999999999,-2.800326779166665,0.0
mp-4769,SiP2O7,5.8048,-2.800306334744048,0.0
mp-566589,Ca4Mn3B3CO15,1.4971,-2.8001088453511542,0.0
mp-19360,LuCrO4,0.2333,-2.8000940033333332,0.0
mp-989556,Cs2NaPbF6,0.0,-2.7999464412139994,0.0
mp-754876,SmAsO4,3.8516,-2.7999364025,0.036739006250003
mp-550685,Ba2CaTeO6,2.9976000000000003,-2.79982897875,0.0
mp-18157,SiP2O7,5.788,-2.7997013469940484,0.0006049877500009
mp-780473,Mn6OF11,0.09680000000000001,-2.7994796577833347,0.0897881570138929
mp-554572,K3NbP2O9,2.8040000000000003,-2.799413562162699,0.0
mp-18147,LiGaSiO4,4.0502,-2.799407506190476,0.0
mp-561488,SiO2,2.7733,-2.799387315,0.4853255924999997
mp-765357,Li3V2(OF)3,1.2123,-2.7991853374836366,0.0861146723863575
mp-743582,TiMnCr(PO4)3,2.3007,-2.799182952606244,0.0
mp-695373,Na4Al11Si13Ag7O48,1.5011,-2.7991619909638565,0.1259870977710795
mp-19240,ErCrO4,0.24580000000000002,-2.7991532133333323,0.0
mp-762820,LiV2(SiO4)2,0.9173,-2.799144018461538,0.0743623406730762
mp-776893,LiV4O5F7,0.6233000000000001,-2.799018478210588,0.0543418385293987
mp-777787,HoAsO4,3.667799999999999,-2.7990027962499995,0.0693197229166697
mp-760014,LiSbF4,3.6756,-2.7989127322516665,0.0662716427083367
mp-705477,Ba3LaIn(WO6)2,3.0435,-2.7988662681578944,0.0664179186842108
mp-767065,LiMn3F10,0.5045000000000001,-2.7988395310557146,0.0549269409523764
mp-771831,Sr2LaCl7,3.6174,-2.7988375995320007,0.0706643927499994
mp-753911,GdAsO4,3.014499999999999,-2.798740551666667,0.0208636483333339
mp-767279,Li2DyPCO7,4.7848000000000015,-2.79873266966766,0.0940999654166647
mp-777151,LiFe2F7,3.6311,-2.7986859393330006,0.0674951311111335
mp-554704,TiPHO5,2.8491,-2.7985163193289893,0.0
mp-24595,Ca2B5H2ClO10,5.0182,-2.7984846633166667,0.0
mp-1020146,Na2LiB5(PO7)2,5.4471,-2.798465437375993,0.0
mp-755985,Eu3ReO8,0.0,-2.7984464066666668,0.0
mp-674508,RbPbF3,3.791499999999999,-2.7982824277139997,0.0
mp-775218,MnNb3(PO4)6,0.0,-2.7981179588097485,0.0
mp-554758,SiP2O7,5.7395,-2.798080375994047,0.0022259587500021
mp-763229,VOF,0.942099999999999,-2.797979402896668,0.0480294795833344
mp-19076,HoCrO4,0.2474,-2.7979754525,0.0
mp-27588,Be(PO3)2,6.026,-2.7979680751322755,0.0
mp-778704,LiFe2F5,3.0917,-2.7978302126187495,0.0507652300000005
mp-23237,BiF3,4.6808,-2.7977884315175,0.0
mp-768604,SrLaCl5,3.4167,-2.7974725134,0.0662832746428563
mp-19514,Sr2CrO4,1.968299999999999,-2.7974244878571426,0.0
mp-754009,ScBiO3,3.0834,-2.797420624750001,0.0214290251249984
mp-762793,Li5VP2(O4F)2,2.4688,-2.7974061106613233,0.0518597550926056
mp-778799,Nb3P6WO24,1.0375,-2.797151238487395,0.0
mp-755742,Ho2Sb2O7,1.3472,-2.79707761534091,0.0562709674999943
mp-27330,La3(OsO5)2,0.0,-2.7970597635,0.0
mp-18754,DyCrO4,0.24920000000000003,-2.796924299444444,0.0
mp-778032,LiV2(SiO4)2,1.136099999999999,-2.796801122692308,0.0767052364424056
mp-764717,Li2MnF6,2.9997000000000003,-2.7967611086777766,0.0817311837037033
mp-556843,NdAsO4,3.8819999999999992,-2.7966888816666664,0.0219326562500024
mp-767564,Na5LiFe6(SiO3)12,2.7600000000000002,-2.7966773946666668,0.0028697946666564
mp-1020632,RbB3O5,5.629399999999999,-2.7966418993055555,0.0253020631172873
mp-27310,Na4Sn3F10,3.5349,-2.7966406556999988,0.0
mp-776732,Li2Fe3F8,3.0509,-2.7966344553476925,0.0775213530769241
mp-764974,Li2V(OF)2,1.649599999999999,-2.7965402514114284,0.0857945335714234
mp-863901,Li2V(SiO3)2,1.6437,-2.7964968781060606,0.0694784753817003
mp-706276,Li3Nb4O12,0.0,-2.796462621842105,0.0668311847039557
mp-776721,Ti3V2Sb(PO4)6,0.0284,-2.7963380123214296,0.0560356494444409
mp-29538,BaGdCl5,1.9440000000000002,-2.796334981614286,0.0095537467857136
mp-769128,Dy2Sb2O7,1.3651,-2.796249283825757,0.0466328827272688
mp-756550,TmAsO4,3.5775,-2.796231436666666,0.0805529066666679
mp-553926,NaLiB4O7,5.7974,-2.796009901378206,0.0
mp-675780,KNb3F9,0.0,-2.795959966593077,0.2977694947756397
mp-756631,Nb2P2O9,0.0,-2.79589007364927,0.0920240818461497
mp-771833,Sr2LaCl7,4.3991,-2.795667929032001,0.0738340632499996
mp-565426,Na2GaNiF7,4.3409,-2.795475308484546,0.0
mp-1035222,Mg14CuSiO16,0.0,-2.7954123718749995,0.2113872946093824
mp-560521,Be(PO3)2,5.8411,-2.795365628743388,0.0026024463888845
mp-775999,Li4Ti3Nb2Fe3O16,1.5704,-2.795359103571428,0.0136424737500018
mp-510615,NaFe(SiO3)2,2.863099999999999,-2.7952914512500007,0.0
mp-614918,YClO,2.1238,-2.795248824003333,0.7309130316666739
mp-776000,Ti3Mn2Sb(PO4)6,0.034300000000000004,-2.795206005708096,0.0504433139004643
mp-774073,LiV2(SiO4)2,0.8243,-2.79502442,0.0784819391346136
mp-762463,Li3CrSi2O7,2.715,-2.7950222227243566,0.0428254806410235
mp-2064,RbF,5.9045,-2.7949457230949997,0.099777945
mp-766154,VF5,3.314199999999999,-2.7948810176583336,0.0309618866666667
mp-721300,Ca2B5H2ClO10,5.098899999999999,-2.794775672816667,0.003708990499998
mp-776642,Li2Fe3F8,3.1268,-2.794643203424615,0.0795126050000014
mp-754375,NaTi2O3,0.0,-2.7946347320138885,0.052467003425928
mp-19272,TbCrO4,0.24909999999999902,-2.7943793797222205,0.0
mp-767814,LiVSiO4,0.6395000000000001,-2.7943468433333334,0.0578269731845217
mp-9660,Sr2Cu(BO3)2,0.48610000000000003,-2.7942946728030305,0.0164464486363655
mp-772400,Li2W(OF2)2,4.169,-2.794253290806667,0.0024744488888881
mp-849217,Li4Mn(SiO3)3,2.8622,-2.794209071600588,0.0832289299999979
mp-4406,CaSO4,5.9393,-2.794158568177083,0.0
mp-695209,KNb4AsO13,2.435699999999999,-2.794056985986841,0.0
mp-9820,CsAsF6,5.2216,-2.7939880190175,0.0
mp-779340,LiV4O5F7,0.5956,-2.793700408504706,0.0596599082352806
mp-39419,NdTiCdSbO7,2.5106,-2.793651758219697,0.0
mp-754992,LuTlO2,1.212899999999999,-2.793624471875,0.1016963467187501
mp-764218,Li2V(OF)2,1.9796999999999991,-2.7935939856971417,0.0887407992857092
mp-615682,Ba2LaTa(CuO4)2,0.0,-2.793567073571428,0.0
mp-767190,VOF,1.5280999999999991,-2.793309945257778,0.0526989372222237
mp-8338,TaF3,0.0,-2.7932317446425,0.4429982050000145
mp-698170,Ca2B5H2ClO10,5.2288000000000014,-2.792833483566666,0.0056511797499982
mp-767447,LiVSiO4,2.2633,-2.7926445892857146,0.059529227232141
mp-542129,CsAlBP2HO9,5.2654,-2.7925316288484776,0.0
mp-779518,BaP4O11,5.2234,-2.7921639177269353,0.0
mp-12911,Ba2LaRuO6,0.23419999999999902,-2.792096283250001,0.0
mp-667283,Sr5Re3ClO15,2.3364,-2.791963032687917,0.0
mp-556185,RbNaTiO3,3.459899999999999,-2.791778249236112,0.0
mp-757101,Li2Cu(Si2O5)2,0.793099999999999,-2.79172206014706,0.0843057720588253
mp-765952,VF5,3.3069,-2.7916903401583326,0.0341525641666677
mp-542130,RbAlBP2HO9,5.2635,-2.7916713698484767,0.0
mp-530850,Ta2CuO6,0.020300000000000002,-2.7915612412499997,0.0297054851388995
mp-766902,LiMn2F7,1.7055,-2.7915208325249994,0.0911925891666562
mp-767964,Li2Fe(SiO3)2,3.314,-2.791472448863636,0.0145915797727198
mp-3082,CaSO4,5.6745,-2.791392394288194,0.0027661738888919
mp-19270,TiFeO3,2.0256,-2.791280587083334,0.0226493870000066
mp-769952,VSiO3,1.465299999999999,-2.791116960250001,0.031918887499998
mp-554259,SrAgB7O12,3.000599999999999,-2.7911169300793652,0.0
mp-768979,Ba3Y2Cl12,4.3262,-2.7910141120070584,0.0570202588235275
mp-7824,K2ReF6,1.6997,-2.791011314682222,0.0
mp-561301,SiO2,1.9962,-2.7909520343055565,0.4937608731944438
mp-765915,LiFe(SiO3)2,3.0559,-2.79084091225,0.0299849674999821
mp-761485,Li2Mn(SiO3)2,2.607399999999999,-2.7907651863751517,0.0722502898484762
mp-768597,SrLaCl5,4.1075,-2.790676650185715,0.0730791378571416
mp-763939,VOF,0.9899999999999991,-2.7905763597022224,0.0554325227777789
mp-771357,Lu2(WO4)3,4.7686,-2.7905301080882348,0.013174491617665
mp-754109,PrAsO4,3.7516,-2.7904710358333333,0.0163352291666676
mp-765131,Li2Mn2OF6,0.719,-2.7904317827554546,0.0549985146590881
mp-24894,SrCoP2O7,3.0355,-2.790290689312771,0.0
mp-18892,KBaVO4,3.979,-2.7902559803571427,0.0
mp-19668,LaCrO4,1.0296,-2.7902514891666663,0.0050510937500067
mp-10302,Ba2ScIrO6,0.0,-2.790170904250001,0.0
mp-861172,LiFe(SiO3)2,2.4272,-2.7901140447499992,0.030711834999983
mp-6441,K2PO3F,4.4626,-2.78982028971932,0.0
mp-756564,BaYCl5,4.0352,-2.7896519105428577,0.035783834285711
mp-556801,Na3B6PO13,4.7576,-2.7896459235584894,0.0
mp-20087,Sr2SmTa(CuO4)2,0.0,-2.7895998666071433,0.0209030524553419
mp-768060,VOF,0.5768,-2.789551462480001,0.0564574200000009
mp-17166,K2B4O7,4.821,-2.7895298981089742,0.0
mp-768963,SrLaCl5,3.3475,-2.7891317409000003,0.0746240471428567
mp-557467,Li4Ca(BO3)2,4.7254,-2.7891253054487186,0.0
mp-769650,Zr2Bi2O7,3.1127,-2.789104329659092,0.0533955054545476
mp-3376,Sr2SnO4,2.5727,-2.7890428071428564,0.0133987342857144
mp-782668,Li4VP2(O4F)2,1.5804999999999991,-2.7888960332982635,0.0252850273529432
mp-768221,YBiO3,3.0834,-2.7887674122499995,0.0323555477499999
mp-679630,Ba2BeS(OF)4,3.8258,-2.788740545735209,0.6024227177083281
mp-767068,LiVSiO4,2.686,-2.7886106264285715,0.0635631900892841
mp-766633,Ti3V2Cu(PO4)6,0.0,-2.788607429404762,0.0637662323611163
mp-541157,EuCd(BO2)5,0.0,-2.788445390784313,0.005355558897067
mp-772298,LiTi2Ni(PO5)2,0.004699999999999,-2.7884303416889895,0.0840532081249989
mp-561187,NdGa3(BO3)4,4.338999999999999,-2.7884162609583343,0.0143101893229147
mp-2735,PaO,0.0,-2.7882389106250014,0.2478417874999987
mp-768972,Ba3Y2Cl12,4.5853,-2.7881518446541182,0.0598825261764686
mp-779954,Li3MnOF3,2.322,-2.7880088250975006,0.0977638174999988
mp-773398,Tm2(WO4)3,4.7507,-2.7878678429411763,0.0134924889705896
mp-717,B2O3,8.3486,-2.7877247804166667,0.0255399063333321
mp-756205,ScBiO3,2.7215000000000003,-2.7875448697500005,0.0313047801249988
mp-16025,Y2(SO4)3,5.6993,-2.787533962481617,0.0
mp-769923,TiCrO3,0.427299999999999,-2.7875205600833324,0.1069697195000003
mp-764284,V2OF7,1.7909000000000002,-2.7874694879580004,0.0882090687500047
mp-9159,Li4NpO5,0.5886,-2.7872968565,0.0
mp-758720,Li5CuF6,1.570999999999999,-2.7872188764283337,0.0903843802083335
mp-14735,La2CuSnO6,0.0,-2.7871421965000005,0.0444112614999969
mp-995190,KCaSiHO4,4.3515,-2.7870013898275,0.0155593253124948
mp-559760,ScIO,1.970899999999999,-2.7869698362500004,0.0
mp-754333,TiO,0.0,-2.7868903339583344,0.1337984699999985
mp-776659,LiVPO4F,1.6608,-2.786794669441905,0.0611695542187664
mp-694964,Na4MnAl3Si3O16,1.7946,-2.7866102324429622,0.0012190960185192
mp-6362,Sr2TbIrO6,0.0,-2.7865321495833344,0.0
mp-1020025,LiB3O5,6.139699999999999,-2.786437713194444,0.0460023859259264
mp-754999,SrLaCl5,3.4172000000000002,-2.7864170073285717,0.0773387807142844
mp-851090,SrLaCl5,3.3844,-2.786391909292857,0.077363878749999
mp-27863,AlClO,5.5876,-2.7863169931700007,0.0
mp-764690,Li2V(OF)2,0.0,-2.7862343606971427,0.0961004242857086
mp-510368,RbUCrO6,1.5963,-2.7859362697222214,0.0
mp-780909,Li2Fe3F8,2.9172000000000002,-2.7857001547707703,0.0884556536538463
mp-782707,LiV4O5F7,0.8755000000000001,-2.785600858798825,0.067759457941162
mp-3795,NaZnF3,3.7676,-2.785551892714,0.0
mp-756175,Zr2Bi2O7,2.7929,-2.785537683977273,0.0569621511363678
mp-767891,Li2Si4NiO10,3.9366,-2.7853690530882345,0.0911824517647117
mp-1016928,MgSiO3,2.557100000000001,-2.7851841467500003,0.4654262767500024
mp-775018,TiFe(PO4)2,1.783,-2.7851765835714293,0.0443561358333397
mp-22904,CaCl2,5.3548,-2.785118045506666,0.0
mp-504946,Nb2P4O15,3.2843,-2.7850598669586164,0.009601747000028
mp-555313,ScBiO3,2.6869,-2.785026353750001,0.0338232961249982
mp-675978,K2Bi3F11,3.8253,-2.7849682026931246,0.0930399103125036
mp-771528,Li3Ti2MnO6,0.0,-2.784966038482778,0.0797738330850021
mp-767573,Na2ErPCO7,4.3992,-2.784798149112103,0.0258288591666673
mp-767575,Li2V(SiO3)2,1.892199999999999,-2.784765952954545,0.0812094005332157
mp-768973,Ba2YCl7,4.5625,-2.7847584085320003,0.0790950004999997
mp-776357,Li2SbP(OF3)2,3.7559,-2.7845252489779373,0.083791646574074
mp-566745,Ba5Li2(WO5)3,2.2925,-2.7844715235500006,0.0
mp-566188,Ba4CeMn3O12,1.8542999999999992,-2.7844367898939995,0.0
mp-770509,LiAlVO4,0.326099999999999,-2.7844062480952383,0.0667135745000147
mp-13545,BaIrF6,0.0,-2.7843527283925003,0.0
mp-763718,Li2Mn(SiO3)2,2.7600000000000002,-2.7843320218296963,0.0786834543939312
mp-11992,LiLa2IrO6,0.0,-2.78432407425,0.0
mp-773936,Li4Ti3V3Cr2O16,0.8841999999999991,-2.784167703571429,0.0284415158928954
mp-19314,Mn4Be3Si3SO12,3.1083,-2.7841154105609784,0.0
mp-3374,Nd4Au2O9,1.9966000000000002,-2.7840545792500007,0.0
mp-989569,Rb2NaPbF6,0.0,-2.7840195272140003,0.0
mp-571642,CaCl2,5.5968,-2.7840125330066656,0.0011055125000005
mp-15887,Sr2YIrO6,0.0,-2.7837189890000005,0.0
mp-22551,UP2(PbO5)2,1.766599999999999,-2.7837065955793654,0.0
mp-755083,BaYCl5,4.5011,-2.7836876833999997,0.041748061428569
mp-651786,Ca5MnSi9(Pb3O11)3,2.8158,-2.7836268031966664,0.0
mp-768141,Na2DyPCO7,4.5321,-2.7835909100843264,0.0239583925000008
mp-771585,Ti2Ni(PO4)3,0.158399999999999,-2.7834819551455032,0.0643358848611281
mp-755367,LiTa2CuO6,0.880599999999999,-2.7834320797500003,0.0635471605000059
mp-865758,YbGeO3,1.0216,-2.7832290637499995,0.0
mp-12885,BaAl2Sb2O7,3.4109,-2.783178064895833,0.0
mp-39689,CaLaMn2O6,0.0,-2.7831354554420003,0.0021639230000243
mp-19108,Ca2MnWO6,2.3282,-2.783126207846,0.0
mp-776807,Ti5Mn3O16,1.419499999999999,-2.7831184252588894,0.0951143083333363
mp-761598,Li4Mn2Si3O10,3.0154,-2.7830238962852634,0.0134077749999956
mp-989532,Rb2TlInF6,3.6593,-2.783021566213999,0.0
mp-7257,K3NaP2(O3F)2,4.5042,-2.783007511505034,0.0014598891071413
mp-19302,NaCaVO4,3.6886,-2.7829438171428578,0.0
mp-763083,Li2MnF6,2.6308000000000002,-2.7829331686777774,0.095559123703703