mpid,formula,BG,FE,e_hull
mp-767893,Li3CrPCO7,2.5572999999999992,-2.390597689757325,0.0826817788701905
mp-773681,Na2LiMnPCO7,3.4684,-2.3905577457927105,0.0262164516666665
mp-510036,Fe2Cu(P2O7)2,0.7737,-2.3904799323752832,0.0
mp-769924,Li3TiMn3O8,1.0529,-2.390454554636444,0.0643962216041709
mp-853141,Li3V4O11F,1.3797,-2.390315089470528,0.0758517102631541
mp-18816,Fe2SiO4,2.7099,-2.3902410807142864,0.0369243550000018
mp-767286,Li6CrFeP2(CO7)2,2.4073,-2.390211065334248,0.0565808031490329
mp-540118,MnPO4,0.3679,-2.390184190259206,0.067644492499971
mp-775463,V3Ni(PO4)6,0.0,-2.3900022173109248,0.0398707261397017
mp-764746,Li5V7O12,0.2187,-2.389988763124999,0.035540901840279
mp-21554,P3Pb5O12F,3.72,-2.3899545957369392,0.0
mp-616572,Li2P2PdO7,1.204799999999999,-2.3899109858283736,0.0095589718055544
mp-9498,Nd2C(NO)2,3.7725,-2.3898506628228566,0.0
mp-769704,Li3MnPCO7,3.7565999999999993,-2.389811060792712,0.0939423076923118
mp-540416,MnP2O7,0.9913000000000001,-2.3897123168400483,0.0080037757499988
mp-622520,EuMn2O5,0.0,-2.389600928208752,0.0
mp-565574,K4V2O7,3.4405,-2.3895887445192305,0.0
mp-771608,Li3V6O16,0.0,-2.3895821248000004,0.0224124461999988
mp-18809,Li2VGeO5,2.1485,-2.3895490723611106,0.0027156438889113
mp-850446,Li3Fe4(BO3)4,1.7144000000000001,-2.3895281028985504,0.0273012982608831
mp-761042,NaCu(PO3)3,0.595499999999999,-2.3895120984311222,0.0110165508035784
mp-780554,LiFeP2HO7,3.8876,-2.38946954738004,0.0576324520833351
mp-741593,Ba4Y2Cu4W2O17,0.0,-2.3894686802155167,0.1470210132758902
mp-5854,LiGaO2,3.1981,-2.389447978125,0.0
mp-773710,Na2LiMnPCO7,3.3549,-2.389380121177326,0.027394076282051
mp-770047,Li5Mn2P2(CO7)2,0.0,-2.3890880208244187,0.0399435203333373
mp-850093,Li2VCr2O6,1.3087,-2.3890326221969698,0.0498579257859663
mp-767637,LiCrCO3F2,2.766299999999999,-2.3889931485787503,0.089239908125001
mp-552663,LiScAs2O7,3.451899999999999,-2.3889881317045463,0.0
mp-773675,FePO4,1.4633,-2.3889152369047606,0.0389064690277791
mp-777670,Li4V3Cr3(SnO8)2,1.017,-2.38886099,0.0
mp-757434,LiSi6Bi9O26,2.8648000000000002,-2.3887802749404763,0.0380688193750016
mp-849709,Li4Ti3V2Cu3O16,0.054999999999999,-2.388769879642857,0.1005498107738116
mp-4529,K2SO4,5.2088,-2.388638042366072,0.0
mp-782662,Li2V5Cr2O12,1.282699999999999,-2.3886349047619047,0.0939286127529683
mp-765898,Li3TiMn3O8,0.9693,-2.388604563636444,0.0662462126041711
mp-559407,NaGdH2S2O9,2.9139,-2.388555336329889,0.0
mp-562977,RbNbS2O9,2.777,-2.388537990913462,0.0
mp-764502,Li3Fe4(BO3)4,1.6932,-2.388353225942029,0.0284761752174036
mp-775900,NaLiCu(PO3)3,1.2606,-2.388345423035715,0.0857150750555613
mp-762527,LiFe4(PO4)3,2.9844999999999993,-2.388300366214286,0.0679625220000126
mp-767481,P4WO13,2.3114,-2.388263969368388,0.0478575124999984
mp-777057,LiCoPO4,2.8356,-2.388227597227892,0.0461242083928583
mp-7792,YScS3,1.7711000000000001,-2.3882198219375006,0.0076424375833337
mp-767063,Sn(PO3)2,3.5944,-2.388094987354497,0.0619800704166744
mp-17678,Sr(ScS2)2,1.356999999999999,-2.388090195892857,0.0
mp-761821,LiCoPO4,2.9087,-2.3879933940136056,0.0463584116071444
mp-541190,Cs2LiVO4,3.9955,-2.387940589375,0.0
mp-760781,Li2AgF4,0.5616999999999991,-2.3878245387752384,0.0533492376190487
mp-17448,Ba3CaIr2O9,0.0,-2.3878133910833337,0.0
mp-770026,Na5LiMn2P2(CO7)2,3.3952,-2.387702912523479,0.012326492179489
mp-775084,Li2SiNiO4,3.2176,-2.387695369999999,0.0074935681249996
mp-25536,Li3FePCO7,4.2226,-2.3876698576419413,0.0295666107692307
mp-31591,LiCoPO4,2.741999999999999,-2.387635606513606,0.046716199107144
mp-865139,LiV2CrO6,0.5836,-2.38758771075,0.075697465708318
mp-752924,NaYbO2,0.0,-2.387585506875,0.0929817916666673
mp-28939,U4Te3O4,0.0,-2.3875411749999995,0.0
mp-764714,Li3Fe4(BO3)4,1.6829,-2.3874718865942017,0.0293575145652305
mp-556266,HoCu(WO4)2,1.133499999999999,-2.387412490833333,0.0344882971875026
mp-764586,Li3Fe4(BO3)4,1.643199999999999,-2.3873729437681157,0.0294564573913183
mp-25629,LiVPCO7,1.8586,-2.387365504485929,0.0480206075000095
mp-764451,Li3Fe4(BO3)4,1.8227,-2.387331286376812,0.0294981147826209
mp-19067,Mg3V6(FeO6)4,2.228599999999999,-2.387299812432434,0.0
mp-548403,CaCO3,5.717699999999999,-2.3872454232500004,0.312209952000007
mp-779185,Fe5O3F7,1.3664,-2.3868559891386667,0.0766879213333409
mp-756912,LiZnBO3,2.9774000000000003,-2.386855047569445,0.0460428795833287
mp-850404,Li2FeO2F,1.8875000000000002,-2.386843807698334,0.0580197812500005
mp-583454,Nb2Bi2PbO9,2.2962,-2.386825665446428,0.0
mp-554022,Sn2P2O7,3.5193,-2.3868084099945888,0.0
mp-769782,Li3Co(BO3)2,1.1768,-2.3867806584027766,0.0435299245833329
mp-25716,CaNiBP2H3O10,4.3565,-2.386666811734285,0.0065892433333329
mp-684096,Bi(PO3)4,0.0,-2.386640995728293,0.0359763445220568
mp-770840,LiVGaO4,1.3477000000000001,-2.3865902600000006,0.0483428218809507
mp-557920,Zn3(PO4)2,3.4139,-2.3865338331684973,0.0
mp-769671,LiVPCO7,1.4824,-2.38653303448593,0.0488530775000093
mp-779853,Li3Co(BO3)2,1.183199999999999,-2.386477644027777,0.0438329389583325
mp-757583,Li2TiCuO4,0.0,-2.3864722414583333,0.0985547381250029
mp-9125,Ca(SbO3)2,2.6942999999999993,-2.3864119508333337,0.0
mp-771409,Li2FeBO4,2.395,-2.386406881458334,0.0273768771874936
mp-676562,Yb3Sm3S8,0.0,-2.3863971807142863,0.0746781901785764
mp-782645,Li2MnPHO5,2.8968000000000003,-2.3863834393925227,0.0569075316250025
mp-743761,LiFe3SiPO8,2.5643000000000002,-2.386332425221088,0.1030387674999975
mp-6941,Y2Si3N4O3,2.7943000000000002,-2.386318326105833,0.0411545049999961
mp-773408,Na5LiMn2P2(CO7)2,3.338699999999999,-2.386282795985018,0.0137466087179509
mp-585227,Co(PO3)3,1.5263,-2.3862658427335166,0.0
mp-540197,Fe(PO3)4,0.0,-2.3862120148459383,0.0588581607475573
mp-19433,LiScMo3O8,0.0,-2.386187378461538,0.1356053542307673
mp-31996,LiMn2(PO4)3,1.2013,-2.386185178400317,0.0173161267361097
mp-850170,Li3Fe9O5F11,1.944699999999999,-2.386109618012143,0.0650722966071439
mp-29273,Ca2Ge7O16,2.8625000000000003,-2.3860880106,0.0
mp-767851,Li2SiNiO4,3.2426,-2.3860627665625,0.0091261715624995
mp-778708,Fe5O3F7,1.414,-2.386049777472001,0.0774941329999991
mp-778420,Fe5O3F7,1.3123999999999991,-2.386007396138668,0.0775365143333317
mp-775090,Li4Nb2V3Co3O16,1.467099999999999,-2.3859893514285706,0.0271816087351215
mp-566939,P2W2O11,2.8508,-2.385973148329365,0.0093168744999996
mp-540350,MnP2O7,0.8859,-2.3859103743400474,0.0118057182499997
mp-773680,Na5LiMn2P2(CO7)2,3.3307,-2.3858351390619417,0.0141942656410263
mp-14276,RhPb2F7,1.7702,-2.385834214333,0.0
mp-1016841,HfHgO3,0.0,-2.38581492575,0.2963616960000008
mp-765448,LiCoPO4,2.9506,-2.3857171954421768,0.0486346101785732
mp-778034,Fe5O3F7,1.287,-2.3857133268053343,0.0778305836666657
mp-9746,Ba3NaIrO6,0.0,-2.3856833556818184,0.0
mp-19691,Ba3NiSb2O9,0.7625000000000001,-2.3856798237500008,0.0128490896666679
mp-764703,Li3Fe4(BO3)4,1.5781,-2.385622432898551,0.0312069682608822
mp-555129,La3S3N,1.3357,-2.3855846935096423,0.0
mp-540352,LiCoP2O7,1.2396,-2.385519971358226,0.0247550813636365
mp-771373,Li6FeCo3(PO4)6,0.8029000000000001,-2.385514575464286,0.0554008725937427
mp-767748,Li12CrFe3P4(CO7)4,2.431599999999999,-2.3855002849496345,0.0465138834975888
mp-775461,Li2V3FeO8,1.1613,-2.3854862471428566,0.0198427482291307
mp-772711,Na3SiBiBO7,0.0,-2.3854817565705133,0.0261076118131837
mp-752676,TiBi2O5,2.5795,-2.385417197864584,0.0
mp-600622,EuIO,0.0,-2.3854122887500004,0.0
mp-673874,Ba9(NdS6)2,2.1401,-2.385352184076087,0.0448981245652166
mp-769708,Li3MnPCO7,3.6578999999999993,-2.38529336848502,0.0984599999999886
mp-761318,Li3FePCO7,4.2992,-2.38524311110348,0.0319933573076918
mp-19107,LiMnVO4,2.2182,-2.38518704728,0.0
mp-763060,LiCoPO4,2.777999999999999,-2.3851480707993207,0.0492037348214298
mp-773941,Na5LiMn2P2(CO7)2,3.3173999999999992,-2.3851220098311723,0.0149073948717957
mp-38931,Tb2SmS4,0.0,-2.3851036672023818,0.062102939285717
mp-774423,V3Cu(PO4)6,0.5346000000000001,-2.3850007973109246,0.0218716963602947
mp-32642,Lu2S3,2.0514,-2.3849539384375005,0.063339913
mp-762659,Li4Mn3Nb2Sn3O16,0.9693,-2.3849388199242867,0.0410759136607064
mp-756878,NaYbO2,0.0,-2.384917644375,0.0956496541666673
mp-773413,Na5LiMn2P2(CO7)2,3.3259,-2.3848806957927104,0.0151487089102575
mp-770027,Na5LiMn2P2(CO7)2,3.2957,-2.3847984859850184,0.0152309187179495
mp-697692,LiCr(PO4)2,1.2457,-2.3847392157242058,0.0760797338541765
mp-504350,Sb(PO3)4,0.0,-2.3847014686694683,0.0428666469852805
mp-707483,TiP2H4O9,2.9716,-2.3846901725679466,0.0
mp-764281,Li5Ti2Co3O10,0.8963999999999991,-2.384651626791667,0.0366079139999957
mp-850213,Yb4Br6O,4.251799999999999,-2.3846510087499992,0.0051522190909105
mp-697946,Cs2Zr2ZnH12(OF2)6,4.1025,-2.384647895149143,0.0887212355714277
mp-3622,Na2PdF4,1.239599999999999,-2.384500996394286,0.0
mp-565594,Na3WO4F,4.4655000000000005,-2.384379933187778,0.0045630297222212
mp-998745,TlZnF3,3.9139,-2.384334867714,0.0
mp-850985,LiFeP2HO7,4.0674,-2.384289071130039,0.0628129283333356
mp-770505,Li4Ti3Cr2Co3O16,0.0,-2.3842093764285712,0.0899168843055608
mp-769441,Li4Ti4Mn(Co2O9)2,0.11970000000000001,-2.3841266206492464,0.0865548040698742
mp-769592,Na3VPCO7,2.1544,-2.3840420130265563,0.0130069619350932
mp-764539,Li3Fe4(BO3)4,1.344,-2.384025426594203,0.0328039745652306
mp-764653,Li3Fe4(BO3)4,1.315999999999999,-2.3838779455072467,0.0329514556521859
mp-849352,V3CrO8,0.0478,-2.3838506,0.0373636344270913
mp-773420,Na5LiMn2P2(CO7)2,3.2839,-2.3838269352157875,0.0162024694871805
mp-770021,Li5Mn2P2(CO7)2,0.0,-2.3838179580244185,0.0452135831333375
mp-556015,Dy9(SbO)5,0.0,-2.3837799221710534,0.0
mp-603959,SrCrO4,2.8392999999999993,-2.383748695,0.0878633008333338
mp-755026,La2Pt2O7,0.9644,-2.3837221871590915,0.0
mp-771774,Na2SiSnCO7,3.097399999999999,-2.3837097334375,0.0136518166666661
mp-773342,Na5LiMn2P2(CO7)2,3.3704,-2.3836602738696335,0.0163691308333353
mp-773704,Na5LiMn2P2(CO7)2,3.3195,-2.3836132619465564,0.0164161427564124
mp-773230,Li3MnV3O8,0.7584999999999991,-2.3836101833973333,0.0876510446666705
mp-773682,Na5LiMn2P2(CO7)2,3.373999999999999,-2.3835650392542487,0.0164643654487193
mp-765682,Li3V3CrO8,0.18760000000000002,-2.3834759986666656,0.1026631413332914
mp-771068,Li2FeBO4,2.63,-2.383471018333333,0.0303127403124943
mp-761353,P4WO13,1.9875,-2.3834606668683875,0.0526608149999985
mp-773701,Na5LiMn2P2(CO7)2,3.369,-2.383363902138864,0.0166655025641047
mp-775058,Li3NbV4O8,0.0,-2.383333014375,0.0625298608854229
mp-558427,Na6Mg(SO4)4,5.2539,-2.383328746898148,0.0
mp-761976,LiCoPO4,2.6024000000000003,-2.3833121861564632,0.0510396194642872
mp-19261,Na3MnPCO7,3.2988,-2.3832846119465567,0.0
mp-767404,Gd2As4O11,2.484,-2.3832642511029416,0.0897046152941172
mp-777213,Li4Fe5Sb(PO4)6,1.3064,-2.3832134758392853,0.1246345060999996
mp-770500,Na6Mn2B4SO16,1.4534,-2.3831427121603164,0.0225572498275914
mp-777530,Li2MnPHO5,3.2607,-2.383009730892524,0.0602812401250023
mp-19655,ErAg(WO4)2,3.1893,-2.38300764125,0.001821084687501
mp-998432,CaTcO3,0.0,-2.382933896749999,0.0817113920000007
mp-771071,Li2FeBO4,2.5281000000000002,-2.382756614583333,0.0310271440624942
mp-37216,CdPbF6,2.3364,-2.3827437390175,0.0
mp-542207,Ba3LiOs2O9,0.0,-2.382709934416667,0.0
mp-849513,Fe2Sb(PO4)3,2.229,-2.3826929360714284,0.0291458684722494
mp-24465,GaP3(HO5)2,4.9811,-2.3826758477516083,0.0
mp-764888,Li3Fe4(BO3)4,1.3589,-2.3826526783333333,0.0341767228260998
mp-698063,Na2P2H2O7,5.205,-2.3826386474754213,0.0
mp-773773,Na5LiMn2P2(CO7)2,3.308599999999999,-2.382567565215787,0.0174618394871819
mp-772399,NaVSiCO7,1.8401,-2.3825612969318173,0.0873301224999973
mp-863294,RbVGa(PO5)2,0.6353000000000001,-2.3824218649126987,0.1086585030000018
mp-774369,Li3V12O29,0.0,-2.3823445326420445,0.0391347163636517
mp-556920,Tb9(SbO)5,0.0,-2.3823327553289477,0.0
mp-764504,Li3Fe4(BO3)4,1.2874,-2.3823261420289845,0.0345032591304486
mp-540430,CrP2O7,0.0,-2.3822175717440475,0.1093981030625004
mp-17499,K7Nb(SO4)6,2.8575,-2.38212324037829,0.0
mp-768969,Bi3B7O12,0.401499999999999,-2.382068086212121,0.0776033835227209
mp-767896,Li2SiNiO4,3.111399999999999,-2.3820346318749994,0.0131543062499996
mp-770417,Li4Mn2VNi3(PO4)6,1.4053,-2.382031884012285,0.0729724924374251
mp-759981,NaCu(PO3)3,0.45660000000000006,-2.3819500998596936,0.0185785493750065
mp-774832,Ba10Li2Bi4O21,0.0,-2.3818790617905403,0.0
mp-6755,KSn4(PO4)3,3.764299999999999,-2.381837092714286,0.0
mp-24001,NaZn2P2HO8,3.9677000000000002,-2.3818326589150343,0.0
mp-775868,NbFe3(PO4)6,0.0,-2.3817071890756307,0.0597778933741839
mp-19698,RbV3O8,2.0696,-2.381689439583333,0.0
mp-17621,CsReO4,4.2585,-2.3816463345833334,0.0
mp-690093,Ca2Fe2O5,1.0489,-2.381590059583333,0.161773869722233
mp-19242,YNiO3,0.0,-2.38156588625,0.0
mp-745148,MnP2HO7,1.670799999999999,-2.381555196547316,0.0
mp-3414,AgSbF6,1.767199999999999,-2.3815516171425,0.0
mp-757102,Sr2RhO4,0.0,-2.381505724642857,0.0
mp-764474,Li5Fe8(BO3)8,1.4214,-2.3814918785185184,0.0366067549305588
mp-694873,SrLaNiRuO6,0.39489999999999903,-2.3814844587500006,0.0
mp-699558,K10Zr3Cd(MoO4)12,3.3376,-2.3814502389864867,0.0023098876351346
mp-771453,Li5Ti2Fe5O12,1.5239999999999991,-2.3814470370138885,0.0189419352083346
mp-543042,ScP(H2O3)2,4.8637999999999995,-2.381443029172937,0.0003331199999978
mp-774455,Na4P3H3O11,5.0015,-2.381392352447416,0.00827838684524
mp-753199,Li3Cu2F8,0.0,-2.381361078424616,0.0594738992307801
mp-554732,RbSbS(O2F)2,4.6867,-2.381258811826944,0.0
mp-20098,Ba2PbO4,1.2232,-2.381237316428571,0.0
mp-504943,KNaP2H2O7,5.2201,-2.381139870360037,0.0223118029487086
mp-861591,LiNi(PO3)3,3.5473,-2.381011417538265,0.0907133785714151
mp-8074,TaSnO3,0.0,-2.381011201749998,0.3229146490000012
mp-767915,Li2SiNiO4,3.3558,-2.380966425,0.0142225131249995
mp-769801,Li2AlCoO4,1.6912,-2.3809210050000003,0.061861894062507
mp-780923,Li4V5Cr2O12,0.9478000000000001,-2.380910611956523,0.0588623354347763
mp-19123,Rb2LiVO4,3.965,-2.3808864175,0.0
mp-629319,CoSb2S2(OF3)4,2.9027000000000003,-2.3807573574954763,0.0066576554761912
mp-780821,Li3VCr3O8,1.3912,-2.380590539333333,0.0478677906875004
mp-765730,Li5Co7O3F13,1.804,-2.3805647976507145,0.0646401887499994
mp-540688,SrIn2O4,1.8083,-2.3805240582142853,0.0
mp-774093,Li2MnV3O8,0.0,-2.3805118450685705,0.0733171037946505
mp-26944,Sn2P3O10,0.0,-2.3804676714523807,0.0783645610416607
mp-770277,Li4Cr3GaO8,3.2245,-2.3804127487499995,0.0167765437500015
mp-19139,Mg2Mo3O8,1.641,-2.380341767692308,0.0514749580769233
mp-769446,Li11Fe12(BO3)12,1.016299999999999,-2.3803322372535205,0.0328170420422671
mp-770306,Li4Cr3GaO8,3.1494,-2.3803269153125,0.0168623771875013
mp-770241,Li4Cr3GaO8,3.116599999999999,-2.3802930246875,0.016896267812501
mp-770236,Li4Cr3GaO8,3.0346,-2.380287730625,0.0169015618750014
mp-13985,Li2PdF6,1.8867,-2.3802565113488887,0.0
mp-1003548,CaMn2O4,1.6466,-2.3801799020599996,0.0724000389285599
mp-769981,Li4Cr3GaO8,3.1792,-2.380170161875,0.0170191306250009
mp-770030,Li4Cr3GaO8,3.0366,-2.38015749,0.0170318025000009
mp-769759,Li4Cr3GaO8,3.0916,-2.38012617,0.0170631225000015
mp-770336,Li4Cr3GaO8,3.1699,-2.3800855875,0.0171037050000011
mp-772356,Li4V3Cr3(WO8)2,1.5726,-2.380061368928573,0.0049156299999975
mp-769945,Li3FePCO7,4.056500000000001,-2.3799864741804018,0.0372499942307689
mp-770253,Li4Cr3GaO8,3.072699999999999,-2.379952733125,0.017236559375001
mp-764314,LiMnF6,0.0,-2.3799300060125,0.0
mp-635134,KFeBP2HO9,2.9279,-2.379910391515142,0.1429414833796283
mp-776527,Li2MnPHO5,3.191899999999999,-2.3798929973925227,0.0633979736250029
mp-863389,Nb16Tl16O53,0.0,-2.3798821064264697,0.015796948220605
mp-772753,Li3ZnPCO7,4.3436,-2.3798336549496337,0.0426088677884601
mp-23657,Na6S2ClO8F,4.7796,-2.3797919254208333,0.0
mp-761327,LiFe2OF3,0.507,-2.379775717117142,0.1793704535714262
mp-763791,Mn(PO3)4,0.161499999999999,-2.3797644172553487,0.0694300693750094
mp-566881,P2W2O11,2.890199999999999,-2.379685777996031,0.015604244833332
mp-850150,Li3V3Cr2O10,1.166299999999999,-2.3796787634722216,0.0930481759027603
mp-504864,YCu(WO4)2,1.496999999999999,-2.379581514375,0.029808782291667
mp-540444,CrPO4,0.743599999999999,-2.379513001626984,0.2223582213888892
mp-621928,LiEu(SO4)2,0.0,-2.379481330260417,0.0115870110937494
mp-774425,FeSb3(PO4)6,1.8466,-2.3792467980462195,0.0
mp-706400,BaP2(HO2)4,5.5979,-2.379067795378032,0.0
mp-773405,Cr3Cu(PO4)4,0.0,-2.37899655343254,0.0479163647395832
mp-31537,LiCoPO4,2.9335,-2.37879559377551,0.0555562118452375
mp-769589,LiV3CrO8,1.1787,-2.3787506207692317,0.0893781843910126
mp-505782,Cs2SO4,5.0111,-2.3787418134375,0.0
mp-763883,Li2Mn4O5F3,0.38520000000000004,-2.3787273349042857,0.090320069508933
mp-560128,EuHSO5,0.0,-2.378679595804062,0.0
mp-861603,Li2SiNiO4,3.346599999999999,-2.3786793425,0.0165095956249992
mp-542431,SrV13O18,0.0,-2.378296390078125,0.0596235618139608
mp-767260,Li4MnNi3(PO4)4,2.9959000000000002,-2.3782878419050353,0.0036675952679523
mp-850252,Li5Fe8(BO3)8,1.5365,-2.378267867407407,0.0398307660416703
mp-767332,LiCoPO4,2.9865,-2.378208410442177,0.0561433951785703
mp-850449,Li5Fe8(BO3)8,1.5931,-2.3781658454074077,0.0399327880416695
mp-777707,Li5Fe8(BO3)8,1.3798,-2.378149969185186,0.0399486642638908
mp-977408,NbTlO3,0.11379999999999901,-2.3780724377500007,0.0901059687500005
mp-560476,Rb3NaTiO4,3.2452,-2.378008515462963,0.0
mp-690004,LiCo(PO3)4,0.835299999999999,-2.3779875854100543,0.1089181719444436
mp-3372,Rb2SO4,4.9943,-2.3779714395089284,0.0
mp-565683,Na4Zr(MoO4)4,3.6338,-2.37792327,0.0037370290000033
mp-12326,CaZn(GeO3)2,2.471,-2.377885997749999,0.0166910583000046
mp-779305,Li2FeBO4,2.680799999999999,-2.377882186770833,0.0359015718749944
mp-540469,Li2Co3(P2O7)2,2.902599999999999,-2.377877945212216,0.0497749048913362
mp-699445,K2P2H2O7,4.9118,-2.377864825295934,0.0442539435256552
mp-775681,Li16V3Ga13O32,1.5151000000000001,-2.3778604053125,0.0302288832812509
mp-765727,NaV2O5,0.418199999999999,-2.37783110015625,0.0492176012498939
mp-772014,NbCo3(PO4)4,0.651,-2.3778194888492066,0.065381544166664
mp-770618,MgMnO3,1.9300000000000002,-2.377693155942,0.0
mp-768968,Li4B4Sb2SO16,2.561,-2.3776451294714502,0.0946736564608921
mp-774946,Li2V3SnO8,0.648,-2.377584980178572,0.0567613304464611
mp-767916,Li2SiNiO4,3.5472,-2.3775262540624995,0.0176626840624996
mp-775502,Li4Ti2Mn4Cr3O18,0.0,-2.3775211877313978,0.0826172494585542
mp-765792,Li3Ni3OF7,3.529299999999999,-2.377462173184285,0.0324461053571436
mp-673069,Sb(PO3)4,0.0,-2.3774585349929978,0.0501095806617506
mp-767909,LiCoPO4,2.939699999999999,-2.377447215442177,0.0569045901785729
mp-730691,CaU2Si2H12O17,1.9307,-2.3774055860202936,0.0196165592647048
mp-505130,CsReO4,4.1562,-2.3773881974999993,0.0042581370833332
mp-776058,Cr2Fe3Co(PO4)6,1.7352,-2.377347549126984,0.0609948964583377
mp-684426,Sb(PO3)4,0.0,-2.377339326757704,0.0502287888970442
mp-684482,Sn(PO3)3,0.0,-2.377324929656594,0.1248735514422936
mp-764548,Li5Fe8(BO3)8,1.346899999999999,-2.3773244394074067,0.0407741940416697
mp-761034,Hf5N5O2,0.0,-2.3771977466166674,0.0711755629166681
mp-19172,KV3O8,2.0824,-2.377191229583334,0.0
mp-560078,KLaCr2O8,2.6531000000000002,-2.377169891458333,0.0
mp-764619,Li5Fe8(BO3)8,1.4195,-2.377074144518519,0.0410244889305584
mp-764654,Li5Fe8(BO3)8,1.3898,-2.3769775765185197,0.0411210569305575
mp-771656,MnFe5(PO4)6,0.0,-2.3769653199869847,0.0558575487500139
mp-770555,MnPO4,0.5388000000000001,-2.376914317342539,0.0809143654166373
mp-764854,Li5Fe8(BO3)8,1.3013000000000001,-2.3768663447407405,0.0412322887083362
mp-775343,LiCoPO4,2.4368,-2.376782149727892,0.0575696558928591
mp-771492,Li3CoSiBO7,0.025199999999999,-2.376722621955128,0.0850073319471151
mp-770553,Li2AlCoO4,1.6087,-2.3767046193750003,0.066078279687507
mp-765656,Na5V7O14,0.22079999999999902,-2.3766873504807697,0.0277106439423047
mp-767804,Li3Mn4(PO4)6,0.0,-2.376632508173282,0.0822826581418727
mp-775705,Li4Ti2Fe3Sn3O16,1.3977,-2.3766280742261907,0.0501924669642859
mp-560341,EuSi2(NO)2,0.30559999999999904,-2.3766194613942866,0.0
mp-19343,Co4B6O13,2.802399999999999,-2.3765805007065213,0.0
mp-540146,MnPO4,1.0778,-2.376442936509207,0.0813857462500085
mp-764208,Li3V4O11F,2.3187,-2.376435815786317,0.0897309839473647
mp-625468,Lu(HO)3,5.024900000000001,-2.3764158449442863,0.0
mp-767895,Li3FePCO7,3.7616,-2.3763382376419413,0.0408982307692298
mp-765701,Li4V3FeO8,1.4867000000000001,-2.3762622225000007,0.0163339989062363