mpid,formula,BG,FE,e_hull
mp-769946,Li4Mn(BO3)2,3.5788,-2.5371925262917947,0.0113532976282035
mp-770386,LiMnAlO4,1.714699999999999,-2.5371614415657127,0.0450738360714302
mp-764362,LiNiF3,4.8387,-2.5371392417140006,0.0191229639999983
mp-763427,V4O7F5,1.5181,-2.53713521498125,0.0412930283333388
mp-1034162,RbMg14CO16,0.0,-2.537109944921874,0.3902147877148429
mp-775489,CrP6(WO8)3,2.067,-2.5370139402521006,0.0
mp-763301,Li2CoSiO4,2.957,-2.53697237,0.0
mp-540832,EuFeO3,0.0,-2.53692254825,0.0
mp-767021,CrPO4,1.3818000000000001,-2.53684127843254,0.0650299445833315
mp-752843,Li2CuF4,0.0,-2.53684105068,0.058643947857143
mp-4643,Nb2CuO6,0.276,-2.5368199166666665,0.0496367102777792
mp-554643,K2SbSO4F3,4.578,-2.5367754754665905,0.0
mp-770506,V5BO9,1.4442,-2.5367193521944458,0.0606032114999983
mp-761474,LiFePO4,3.5233,-2.5366909290136053,0.0148860207142851
mp-18951,LiFePO4,3.513299999999999,-2.5366041367517016,0.0149728129761887
mp-850957,Na6Ti2O7,3.1128,-2.5365542161388888,0.0403519973333335
mp-779472,Li5Cu(PO4)2,1.9918999999999991,-2.5365273444494045,0.0314383051562501
mp-26247,Li5Cu(PO4)2,1.7933000000000001,-2.536517532574404,0.0314481170312506
mp-560010,Rb2Ga2B2O7,3.674499999999999,-2.5364832786217946,0.0
mp-765777,V3O5F,0.9374000000000001,-2.536428109160001,0.0726028744444367
mp-773389,CrP4O11,2.5725000000000002,-2.5363924953831853,0.0325599500550568
mp-540193,LiMnP2O7,1.6166,-2.5363833178091344,0.0559849909090912
mp-8202,CsRb2PdF5,2.2311,-2.5363550878833334,0.0
mp-31560,Li2Co(PO3)4,3.154,-2.5363236011779455,0.0418065051754448
mp-758731,Li3Bi(PO4)2,3.7454,-2.536232874727891,0.0861170046428609
mp-851070,Li3V3P8O29,1.194599999999999,-2.5361931900235324,0.0509610139825618
mp-759735,Li2Bi(PO3)5,4.3121,-2.536053676053311,0.0768446363405734
mp-769533,LiMn(PO3)4,1.295999999999999,-2.5360149135189407,0.0564398380555601
mp-19271,BaCrO3,0.0,-2.53600079425,0.0759954287500015
mp-540343,Li2Cr(PO4)2,0.31810000000000005,-2.5359056420146517,0.0607649161080532
mp-771733,Li3MgV8O16,0.2811,-2.535884040714285,0.034702888705361
mp-772013,V3Sb(PO4)6,0.9349000000000001,-2.5358550127521,0.0048846372058894
mp-765983,Li3V3P8O29,0.29399999999999904,-2.5358370523491143,0.0513171516569803
mp-775205,Li3MnP2HO8,4.173999999999999,-2.535836191718031,0.0381814853333457
mp-722369,Na3B5(HO5)2,4.6581,-2.5357812512786664,0.0036387907386385
mp-722188,NaCa4Si8H16O28F,4.8688,-2.535685535415689,0.0185279490732757
mp-778743,Li5Cu(PO4)2,1.7069,-2.5356429122619044,0.0323227373437502
mp-853160,Mn3(OF2)2,0.0020999999999990002,-2.53552030557111,0.0595569202777799
mp-850224,Li7Mn(PO4)4,0.0,-2.5354578415478906,0.068021726636906
mp-764303,Mn2OF4,0.1033,-2.5354563004185717,0.0820361125595257
mp-850118,Cr(PO3)2,2.159599999999999,-2.5353747492989416,0.0399871315111095
mp-673096,Li3Sn(PO3)6,0.22160000000000002,-2.535372280216837,0.0833115709375036
mp-761830,Li3V3P8O29,0.2985,-2.535349290488649,0.0518049135174454
mp-764991,Li3V3P8O29,0.4419,-2.5352910185119057,0.0518631854941888
mp-772939,Li5Cu(PO4)2,2.038899999999999,-2.5352865866369045,0.0326790629687492
mp-760231,LiSn2(PO4)3,3.052199999999999,-2.535276444265873,0.0121155504166665
mp-761945,Li3V3P8O29,0.3427,-2.5350968797909745,0.05205732421512
mp-773366,P2WO7,3.0944,-2.5350597844940483,0.0
mp-13875,Al8(Pb3O7)3,2.8716,-2.5349560924013157,0.0
mp-26701,Li3Sn2(PO4)3,2.4793,-2.5349506808392865,0.0350549360833287
mp-761463,Li2FeP2O7,3.555599999999999,-2.534906959161706,0.0915722815277826
mp-850993,LiMn4(PO4)3,2.7473,-2.5349058146562853,0.059670407999997
mp-773377,LiFePO4,3.477899999999999,-2.534890289727892,0.0166866599999986
mp-779960,V4O7F5,1.4035,-2.53488270185625,0.0492858917361145
mp-762491,LiFe(PO3)3,3.980799999999999,-2.5348324573596943,0.0664424985714351
mp-761565,Li4Mn3Cu(PO4)4,0.0,-2.5347725109021786,0.0146491683035714
mp-669421,AlTlSiO4,2.8133999999999992,-2.5347298299999994,0.3218097149404757
mp-5696,La2Cu2O5,0.0,-2.534711694027778,0.0515290422222278
mp-541654,ReSbOF9,1.011699999999999,-2.5346330289133334,0.0255673774739628
mp-762582,LiFe(PO3)3,3.4388,-2.534501988966838,0.0667729669642884
mp-566556,SrTlVO4,3.2379000000000002,-2.534495611785715,0.0
mp-504222,MoP2O7,1.6828,-2.534440046244048,0.0252853192499991
mp-779046,Li5Cu(PO4)2,2.0374,-2.5344151250744043,0.0335505245312504
mp-771744,Li3FeBPO7,2.3324,-2.534405364500916,0.0818297020192293
mp-7572,MgSO4,5.4889,-2.534380293177083,0.0
mp-557359,Cs2Al2Sb2O7,3.6378,-2.5343286929807696,0.0
mp-5869,Ca2CuO3,0.0,-2.5341405072916667,0.0
mp-19400,Sr2NiWO6,3.3599,-2.534135323750001,0.0098206289999973
mp-763621,LiFe(PO3)3,3.856199999999999,-2.534054059859695,0.067220896071432
mp-26311,Li5Cu(PO4)2,1.9666000000000001,-2.534046716011904,0.0339189335937506
mp-704604,Zr(MoO4)2,3.0967,-2.5340263701515147,0.0088709243939444
mp-762962,Li3V3P8O29,0.6566000000000001,-2.5340177609537657,0.0531364430523293
mp-19415,Er(FeO2)2,0.0,-2.5339332742857144,0.0794304409821524
mp-556330,Cs2Ga2B2O7,3.7986,-2.5338511713141028,0.0
mp-763836,Li3MnP2HO8,4.417,-2.533842140384698,0.0401755366666609
mp-776023,CdSiO3,2.5256,-2.5338251459999994,0.0269537007500009
mp-775116,MnCr3(PO4)4,1.0877000000000001,-2.5337289459725403,0.0321316419791664
mp-505236,V2Hg(P2O7)2,1.343899999999999,-2.533725322851473,0.0
mp-763976,V4O7F5,1.3889,-2.53367735623125,0.0447508870833388
mp-761398,LiCrPO4,2.378,-2.5336325704421774,0.0507403741666685
mp-853140,Li4Mn5Sn(PO4)6,2.028,-2.533604376459285,0.0795359471875043
mp-793763,NbCr2Fe3(PO4)6,0.0,-2.533581091071428,0.0691289445833298
mp-765893,Li3NiOF3,3.1376,-2.5335287487275,0.0851984487499999
mp-672976,LiSn(PO3)3,3.8626,-2.5335232330739794,0.0213769487797614
mp-762490,LiFeP2O7,2.575199999999999,-2.5334145563582253,0.0541509595454545
mp-761393,LiP4WO13,2.0451,-2.5334069383489988,0.004088351885942
mp-763531,LiP3(WO6)2,2.5008,-2.5333658030158737,0.006383431666725
mp-4967,MgSO4,5.5304,-2.533314292760417,0.0010660004166789
mp-772644,Li6Cr(BO3)3,2.3399,-2.533260298881578,0.0787641525438607
mp-763261,Fe(PO3)3,2.7346,-2.5332080898489027,0.0024458927563824
mp-770334,Li2VBO4,2.2955,-2.533183445833333,0.0866068209374999
mp-561078,Rb2CoF6,1.179,-2.5330497441266675,0.0
mp-25750,Ca2Fe2O5,0.8683000000000001,-2.533040476249999,0.0103234530555669
mp-653973,KZnPO4,3.8873,-2.532991858656463,0.0
mp-780885,LiMn3P3O11,3.1411000000000002,-2.5329067128286504,0.0876205508333267
mp-555100,NbBiO4,2.5161000000000002,-2.532842013749999,0.0
mp-686836,MgTiNb2(PbO3)4,2.379,-2.5327214515833334,0.0004889554375013
mp-540450,LiV(PO4)2,1.299099999999999,-2.5327133350992064,0.0681228513194511
mp-763996,Mn3(OF2)2,0.0,-2.5327064944599997,0.0623707313888903
mp-777695,LiFe2OF3,2.9055,-2.5326478531885708,0.0264983174999997
mp-849429,Li3Co2OF5,1.535599999999999,-2.5326021083818184,0.0959935413636348
mp-757874,LiSiBiO4,3.0288,-2.532554892499999,0.0270907866071459
mp-761332,LiFeSiO4,2.3334,-2.5325508647619057,0.0894662888095156
mp-24951,YbFeO3,0.0,-2.5325396142500005,0.0
mp-772843,KSiPCO7,5.168,-2.532484614031385,0.0805377172727288
mp-769425,YFeGe2O7,2.5831,-2.532463977840908,0.0
mp-632815,Li10Ge(PO6)2,4.4932,-2.53244533864762,0.0704411638000017
mp-762877,Li5Cr6P5O24,0.5554,-2.5324037677619047,0.0905946815833349
mp-767128,Li2CoSiO4,2.7203,-2.532377751875,0.0045946181249938
mp-770557,Mn2P2O7F2,0.8102,-2.5323433047492667,0.0195983397008481
mp-761656,Li4Co(PO4)2,2.8352,-2.5321987604126983,0.0799195087499997
mp-774810,RbPHO3F,5.189,-2.5321980316650343,0.0
mp-764641,Li2CoSiO4,2.9181,-2.5321741825000004,0.0047981874999933
mp-556666,CaBiCO4F,2.2216,-2.532106484523749,0.0050717984375001
mp-780814,LiFe3(OF3)2,1.8513,-2.532092634553333,0.0721227409259279
mp-763304,Li2CoSiO4,2.994199999999999,-2.5320749793750004,0.0048973906249933
mp-766176,LiSiBiO4,3.3406000000000002,-2.532063726785714,0.027581952321432
mp-777012,Li4Ti3V3(CuO8)2,0.26779999999999904,-2.532050950357144,0.0919296044345241
mp-757947,Li2Sn(PO3)5,0.1125,-2.53204079735766,0.0646965348007215
mp-762758,Li4Ti2Fe3O10,1.448799999999999,-2.5319845197807016,0.0378724207894789
mp-771869,Li2ZnFe(PO4)2,3.4097,-2.5318992907993203,0.0245118522321421
mp-757038,LiSiBiO4,3.639199999999999,-2.531891137857143,0.0277545412500028
mp-850532,LiSn2(PO4)3,2.9236,-2.5318819641269843,0.0155100305555562
mp-756134,ZrSeO,0.5998,-2.531847636614585,0.0513612341666682
mp-771110,Li4Mn5P6WO24,2.4972,-2.5316965725842864,0.0797241300625142
mp-540287,Li2Cr(PO4)2,0.0,-2.5316870516300365,0.064983506492668
mp-779031,NaV(PO4)2,2.0431,-2.53161111968254,0.0439871921527714
mp-760490,Mg7Cu2O9,0.0,-2.531447211736112,0.0644885072222223
mp-541672,MoP2O7,1.678799999999999,-2.531328777494048,0.0283965879999978
mp-977351,Ac2S3,3.0275,-2.5313252944374995,0.0376718355000003
mp-998241,MnInF3,2.474099999999999,-2.531221215905999,0.0243520750000003
mp-770333,Li2VBO4,2.2750999999999992,-2.5310280302083332,0.0887622365625002
mp-850739,Fe3OF5,1.4469,-2.530981225244445,0.0544693283333375
mp-771360,Li6MnSn3(PO4)6,2.5692,-2.530909199613286,0.0678008898541682
mp-774156,NbFeO4,1.0865,-2.5308976758333324,0.0359484983333313
mp-779917,Fe3OF5,1.432899999999999,-2.530886654688889,0.054563898888893
mp-770904,Li3Mn(BO3)2,1.4244,-2.5308077201494448,0.024005168697931
mp-770412,ScMn2O5,0.0,-2.5307651878962494,0.0373155992578144
mp-620294,MnNb2Zn2O8,2.5005,-2.5307461654584604,0.0224547857692307
mp-25787,V2O3,0.0,-2.5306037839999993,0.0
mp-558161,NaMo2(PO4)3,0.0,-2.530578321071429,0.0066909933333132
mp-698549,Ca4Mn4O11,0.0,-2.5305491701363145,0.0581451995613857
mp-764909,Li5Mn3Cr(PO4)4,0.27080000000000004,-2.5304906405262395,0.0885153442126425
mp-561195,BaTlVO4,3.5439,-2.53035728,0.0
mp-849950,Mn3(OF2)2,0.015700000000000002,-2.530163813904444,0.0649134119444463
mp-772451,Li2Mn3(PO4)3,0.44909999999999906,-2.530052839108285,0.0624065246250014
mp-780637,Li3MnSiO5,0.23489999999999903,-2.5300477637209995,0.076596382250007
mp-771596,NbFe5(PO4)6,2.147599999999999,-2.5300301544047605,0.015975813240713
mp-770961,Li2TiMn2O5,0.6734,-2.529853785983667,0.0676696690000024
mp-3205,CaCO3,4.2614,-2.5296358882500014,0.169819487000006
mp-766073,Li3V3P8O29,1.1247,-2.529525918163068,0.0576282858430268
mp-572711,V2P2PbO10,2.0469,-2.5294970009126976,0.0036771059166635
mp-762561,LiFeP2O7,2.5368,-2.529413095903679,0.0581524200000851
mp-763466,LiP4WO12,4.1522,-2.5293450481878312,0.024255645138882
mp-8301,Gd2CF2,0.7328,-2.529305741976001,0.0
mp-584134,LiBiP2O7,3.6507,-2.5292617063582257,0.0316270305303048
mp-558576,ReSb(OF4)2,3.7699000000000003,-2.529240823084999,0.0
mp-764313,KLiMnP3HO10,3.6249000000000002,-2.5292149900803365,0.0444478644117687
mp-697797,V(PO3)4,1.147,-2.529194612787115,0.0370401811765086
mp-863864,Li3V3P8O29,0.5869,-2.529188209209579,0.0579659947965156
mp-761399,LiCrPO4,2.611499999999999,-2.529175855799321,0.0551970888095247
mp-849656,Li5Co4(Si3O10)2,0.175799999999999,-2.529129934142858,0.0817322266999873
mp-27837,NaHF2,6.9678,-2.5291252715,0.0
mp-18463,RbZnPO4,3.702699999999999,-2.5290020972278917,0.0
mp-778780,VBO4,2.9005,-2.5288466219444445,0.0
mp-780538,V6O11F,0.5145000000000001,-2.5287714761077793,0.0178811327777648
mp-765709,Li5Ti2Fe3O10,1.4627000000000001,-2.5287574472916674,0.0178331967500007
mp-684504,Li3Bi2(PO4)3,3.8819,-2.5285787589642856,0.035645502250003
mp-761486,LiFePO4,3.4886,-2.5285742632993196,0.0230026864285699
mp-775752,Li6VSn3(PO4)6,1.502,-2.5281687780892868,0.0856795159062366
mp-775523,Li3Fe2(PO4)3,2.2652,-2.5281240434642873,0.0440402791249985
mp-774191,Fe3OF7,2.5013,-2.528102522234545,0.1112348945454595
mp-21466,Ca2RuO4,0.0,-2.5280328264285714,0.0142899303571413
mp-762585,LiFeSiO4,2.3506,-2.5280162632142864,0.0940008903571447
mp-554842,Cs5Si3AgO9,2.6818,-2.527999595625,0.0
mp-770906,Li3Mn(BO3)2,1.343899999999999,-2.527992212232777,0.0268206766145988
mp-766672,Li3V3P8O29,0.583199999999999,-2.527986968744464,0.059167235261631
mp-685195,SrLaTl(AsO4)2,3.5481,-2.5279443701282056,0.0
mp-625075,AlHO2,4.4054,-2.52793613153,0.1680141450000007
mp-27247,Na3NbO4,3.768899999999999,-2.5279280634375,0.0
mp-771062,Li6MnFe3(PO4)6,1.1778,-2.5278023607382862,0.0467615760937594
mp-559210,Ca5Te3O14,1.6785,-2.5277725519318186,0.0007691402272707
mp-773129,LiSn2(PO4)3,2.7049,-2.527711188015873,0.0196808066666678
mp-23413,NbBiO4,2.9369,-2.527664229999999,0.0051777837500033
mp-31583,LiCo(PO3)3,3.0315,-2.527566064323981,2.5566250003272728e-05
mp-19131,LiMnBO3,2.563599999999999,-2.5275174080072227,0.0
mp-778734,Li6Fe3Sn(PO4)6,1.6764000000000001,-2.5275018258392863,0.0550820697499832
mp-863893,Li4Ni(PO3)6,4.3492,-2.527484852795567,0.072470827327586
mp-643346,Al2Ge(HO3)2,3.8791,-2.527425036794545,0.0043474722727285
mp-540137,LiMoPO5,1.3988,-2.5274217767931555,0.0098522477344289
mp-23301,BiF3,3.966299999999999,-2.5274150808925,0.2703733506250003
mp-753846,Mg(GaO2)2,2.3585,-2.527403759999999,0.0215688814285828
mp-762638,LiFeSiO4,2.1283,-2.5273707373214287,0.0946464162499936
mp-764956,Li2CoSiO4,2.800499999999999,-2.52731999375,0.0096523762499938
mp-1013922,LiCr2P2O9,0.6364999999999991,-2.52725642517432,0.0224253082142711
mp-684489,LiBiP2O7,4.4537,-2.527069967949134,0.0338187689393967
mp-760683,Li4Cu(PO3)6,0.8013,-2.5270232741748773,0.0463287773275826
mp-548598,U(BiO3)2,1.593,-2.526958866388889,0.0396952033333262
mp-781738,Na6V2B4SO16,0.0,-2.5269293384734195,0.015365184273409
mp-776663,Li4Ti2V3Fe3O16,0.8033,-2.5269071501190483,0.0403325867112798
mp-27069,Li3Bi2(PO4)3,4.0424,-2.5268844705892866,0.0373397906250021
mp-771336,Na3MgPCO7,4.4597,-2.526876206488095,0.0234514534615266
mp-705857,MgV3O8,1.8772,-2.5267954904166667,0.0061586360416558
mp-764301,K2LiVPO6,2.3985,-2.526771405054113,0.0874454502020238
mp-705468,Li3Mn3(PO4)4,0.639799999999999,-2.526598453663882,0.0265641497115414
mp-1032273,Mg6CuSiO8,0.0,-2.5265893168749995,0.421775690468758
mp-22407,BaCu2Si2O7,0.0,-2.5264971059375,0.0423867016666701
mp-22306,Eu2CuO4,0.0,-2.526491082142857,0.0017739200000086
mp-770151,Li2VBO4,2.3718,-2.5264126852083333,0.0933775815624997
mp-31580,Li2CoP2O7,2.994099999999999,-2.526318137911705,0.0269028480902546
mp-697774,Li2Cr(PO4)2,0.0,-2.5263010047069594,0.0703695534157455
mp-33615,Ba(LaS2)2,2.068399999999999,-2.5262968080357147,0.0134201621428511
mp-763566,LiP2WO7,3.7304,-2.5262642636309516,0.0172438548863631
mp-6574,Er2C(NO)2,4.0097,-2.5262355792514293,0.0
mp-768161,LiSiPCO7,5.7639000000000005,-2.5261491731222945,0.0923442721212097
mp-25929,Li3Bi2(PO4)3,3.7495,-2.526114503464286,0.0381097577500026
mp-762694,Li3Ti2Fe3O10,1.644199999999999,-2.526108074212964,0.0525520297618902
mp-770408,Rb6Ti2O7,3.2141,-2.526010377805556,0.0
mp-773213,Li3Fe(BO3)2,2.5723000000000003,-2.525878128611112,0.0002151214583276
mp-25652,LiPWO4F,3.1005,-2.5258778774106543,0.0572865387500014
mp-757899,Li3Sn2(PO4)3,2.175099999999999,-2.5258120698392856,0.0441935470833287
mp-767796,MgV3O8,1.8235000000000001,-2.5256980079166667,0.0072561185416635
mp-554873,Ag2B8O13,3.2651,-2.525631806829711,0.0
mp-565711,P2O2F3,5.3101,-2.52557317460864,0.0
mp-754632,Pr(ReO4)2,0.0,-2.525474890909091,0.0
mp-770508,Li4Ti3Mn3(FeO8)2,0.4335,-2.5254642201028568,0.0429330295174565
mp-851281,Li3Mn2(PO4)3,0.5818999999999991,-2.5254178898102864,0.0563448897499911
mp-773368,Li3Cr3SiO8,2.9838,-2.525393275333333,0.0563620243333327
mp-762483,LiFe(PO3)4,2.2278000000000002,-2.525355378465609,0.0699012776388618
mp-1006058,UCd2O5,2.0821,-2.5253425801562503,0.0210957524999981
mp-26157,LiSb(PO3)4,4.462999999999999,-2.5253014769378312,0.0120090018055396
mp-761378,Li5Mn2Fe3(PO4)6,2.170099999999999,-2.5252554012622865,0.0525553953749868
mp-774231,LiFeB2O5,2.7839,-2.5251612099537044,0.0346078384722119
mp-775125,Li8Fe3Sn(PO4)6,2.2165,-2.525067748180273,0.0873515611904744
mp-777071,Li3Sb(PO4)2,4.2233,-2.525045090620748,0.0735545498214289
mp-29036,Ba(YS2)2,1.7564,-2.5250257341071443,0.0
mp-770630,RbLi2Cr2(BO3)3,2.0057,-2.524996455661765,0.0993022574264701
mp-765462,LiFe3OF5,2.2211,-2.524905533220001,0.0878469434999971
mp-622198,Ti3(BiO3)4,1.6328,-2.524889110789473,0.0396266507894456
mp-757946,Li2SnP2O7,3.1648,-2.524862714578373,0.0633646266666598
mp-763992,V6O11F,0.8278999999999991,-2.524861534996667,0.0217910738888758
mp-764948,Li2P5WO15,3.931,-2.5248290243141818,0.0648667005797127
mp-763370,LiP2WO8,3.3890000000000002,-2.524667907807539,0.0487535034028168
mp-18591,KZnPO4,3.9535,-2.5245587307993196,0.0084331278571356
mp-778793,Li4Fe3(SiO4)3,0.9762000000000001,-2.524428800227273,0.0992441880681767
mp-767789,LiV(PO4)2,0.9176000000000001,-2.5244160511408738,0.0764201352777833
mp-778363,Li4Ti3Fe2Sn3O16,1.2871000000000001,-2.524397879107142,0.0655724350892956
mp-25543,Ca3MnNiO6,2.2759,-2.5243876066781823,0.0036344280303017
mp-851232,V3FeSn2(PO4)6,0.0,-2.524377819960318,0.0533571026041679
mp-775656,Li4Mn3Nb2V3O16,0.5272,-2.5243595018885725,0.0512812184970243
mp-849532,Li4Co3OF11,1.0743,-2.5242333789126317,0.0532255362499958
mp-763668,Li2Mn3P9O28,1.059899999999999,-2.5241766947794573,0.052719319464253
mp-4812,Zn4B6O13,3.4078,-2.523996820706522,0.0
mp-561083,Na3Bi(PO4)2,4.2075,-2.523928012227892,0.0
mp-769723,Li2MnCo(PO4)2,2.460899999999999,-2.523860135510748,0.0183948808035712
mp-743605,ZrCrCu2(PO4)3,0.9956,-2.52380340206767,0.0459298889473673
mp-674232,Ca2Sn2F3,0.0,-2.5237517255100004,0.3111455732142847
mp-771707,Li2SnBPO7,2.7306999999999992,-2.5237435777926582,0.0982466611309504
mp-766780,Li3Fe2(PO4)3,2.4273000000000002,-2.523727947589286,0.0484363749999987
mp-29083,NaErCl4,4.985,-2.52368654134,0.0
mp-27093,Li3Sn2(PO4)3,2.610999999999999,-2.5236401810892866,0.0463654358333292
mp-6071,Sr3LiIrO6,0.0,-2.5235263111363646,0.0
mp-752922,Li8HfO6,5.3818,-2.5234863135000003,0.0027599136666678
mp-541459,KSnPO5,3.0231,-2.5233869817931547,0.0
mp-504207,LiSb(PO3)4,4.1221,-2.5232790201322763,0.0140314586110941
mp-763485,Li2CoSiO4,2.6928,-2.523278318125,0.0136940518749941
mp-559932,KTeOF3,4.212099999999999,-2.5232692243450003,0.0
mp-557371,CaBi2B2O7,3.1706,-2.5231341262152776,0.0093674552083102
mp-762680,Li2Fe3P9O28,2.6415,-2.523072598282313,0.0517212650198359
mp-978284,Na2P3HO9,5.2647,-2.5230539306103807,0.0
mp-1011260,EuFeO3,0.0,-2.5230437127500003,0.0138788354999999
mp-764305,Mn2OF2,1.1644,-2.5230286051099995,0.0695501919999994
mp-762873,Fe3OF5,1.7313,-2.523027820244444,0.0624227333333387
mp-560420,K3Bi2(PO4)3,3.781599999999999,-2.523019834214286,0.0
mp-699398,CsMnMo(OF)3,0.018799999999999,-2.5230135764755555,0.070758376527813
mp-6929,Ca2As2O7,3.316,-2.5229905662500003,0.0
mp-767028,Li6Mn(OF)3,2.1441,-2.522957519483076,0.0872998346153899
mp-764958,Li2CoSiO4,2.9336,-2.52292287125,0.0140494987499941
mp-780191,Li4Co3OF11,0.661899999999999,-2.522839157860001,0.0546197573026274
mp-540171,Li2Ni(PO3)4,4.5469,-2.5228136435463657,0.0141514268859719
mp-771229,LiMnB2O5,1.4263000000000001,-2.5225839392270357,0.0765900130903913
mp-554206,Cs2Al2As2O7,3.6603,-2.5225768152884607,0.0
mp-763827,RbLiVPO5,2.3445,-2.522520384093915,0.1289758220925891
mp-850971,LiMnBO3,2.9262,-2.522461413979444,0.0050559940277805
mp-850917,LiFePO4,3.6639,-2.522396882585034,0.0291800671428568
mp-768866,Sm2Cu2O5,0.3553,-2.52236719375,0.0565851206944465
mp-647226,TaSbO4,2.3563,-2.5223470595833333,0.1707739602083329
mp-769404,YSeO3,1.8121,-2.522298090468751,0.0
mp-769813,LiMnBO3,2.8469,-2.5221818152294437,0.0053355927777811
mp-540472,Mn(PO3)3,1.416,-2.5221154639612093,0.0189318484615386
mp-764957,Li2CoSiO4,2.7567,-2.522053064375,0.0149193056249936
mp-765754,Li4Ti3Cr3(TeO8)2,0.3173,-2.522051195,0.0686265125223224
mp-763392,LiP4WO12,3.7489,-2.5220511037433866,0.0315495895833271
mp-761435,LiCrPO4,2.496999999999999,-2.5219717563350343,0.062401188273812
mp-759667,Li2Sn(BO3)2,3.2075,-2.5219684764393944,0.058055368181817
mp-4279,CaGe2O5,2.688999999999999,-2.5219438479687497,0.0053255504375018
mp-19458,BaV10O15,0.8319000000000001,-2.5218975489903857,0.0
mp-849526,V6O11F,0.0,-2.521800631663332,0.0248519772222106
mp-753437,La5Cu5O13,0.0,-2.521798657663044,0.0435407236956528
mp-1020179,Na6Si2O7,3.312999999999999,-2.5217177957500003,0.0085618631666628
mp-973441,La(ErS2)3,1.0587,-2.5216572279375,0.0
mp-777557,TiFe3Sn2(PO4)6,0.096099999999999,-2.521654787645504,0.0614779972222301
mp-553912,NaZr2(AsO4)3,3.7453,-2.5216380572222223,0.0