mpid,formula,BG,FE,e_hull
mp-776753,Li4CrFe2Ni3(PO4)6,1.420599999999999,-2.3164351369642864,0.0895320284062393
mp-763037,Fe4O3F5,1.5695000000000001,-2.3164124395583343,0.0785589841666585
mp-770401,SbPO4,3.342,-2.316335225515873,0.0568453691666697
mp-776873,Cr2O3,1.7751000000000001,-2.3162498394999984,0.0333252342500145
mp-764533,Li2Fe7(OF2)4,1.5197,-2.3162045921199987,0.0989892371428578
mp-850498,LiFe8(BO3)8,1.7294999999999991,-2.3161307661788624,0.0658815315243792
mp-22750,P2Pb3O8,3.3518,-2.3161025343223445,0.0353249888461597
mp-772848,K3ZnPCO7,3.8609,-2.316085701488096,0.0312375113461493
mp-585241,LiBi2(PO4)3,0.5196000000000001,-2.3160613031547617,0.0584588645601842
mp-19447,Cs2NaVO4,3.9493,-2.315863185625001,0.0
mp-768871,Bi6B10O21,1.187999999999999,-2.315844757916667,0.0972684223310791
mp-763954,Li4Co3O3F4,0.0,-2.315814624893572,0.0718625303571451
mp-765965,LiNi(PO3)4,1.0499,-2.315805727910054,0.092253545960661
mp-773894,CaB2(H2O3)2,5.3586,-2.315746067812564,0.0175945550961573
mp-761641,LiMnPO5,0.0,-2.3156169900381545,0.0723308086197889
mp-761606,LiMnPO5,0.6677000000000001,-2.3155156284756546,0.0724321701822887
mp-769698,Li2FeBO4,1.3316000000000001,-2.3154400764583336,0.0983436821874939
mp-672981,BiP2O7,0.0,-2.3152560069940487,0.0506230734374977
mp-19505,SrCr10O15,0.0,-2.315186772836538,0.0583022497115468
mp-31592,Li3Co3(PO4)4,1.1451,-2.314980770283884,0.0206404717147243
mp-557232,KSmPdO3,0.7336,-2.314823000208333,0.0227686407291658
mp-764415,MnFeCo(PO4)3,0.5134000000000001,-2.314778284874764,0.0280542145833448
mp-771592,Li3CoPCO7,2.913899999999999,-2.31471299033425,0.0427334749999923
mp-767899,Li2SiNiO4,3.389199999999999,-2.314682860625,0.080506077499999
mp-23095,Ca3Cu2(ClO2)2,0.0,-2.3146566846836363,0.000523167272723
mp-770994,Li2MnVO4,0.7126,-2.3145895065783324,0.0645019763541681
mp-27047,Li2CuPO4,1.4867000000000001,-2.3145578747619044,0.0537094996875016
mp-767923,Li6W2O9,2.6091,-2.3144494465441183,0.0526981326470625
mp-401,Sc2S3,0.6433000000000001,-2.314433986937501,0.0
mp-850340,Fe4O3F5,0.45429999999999904,-2.314431603725,0.0805398199999922
mp-850986,Li6Co6O5F11,0.2398,-2.3144024508692853,0.1041895872767861
mp-765195,WO2F,1.6359000000000001,-2.3143834709225013,0.0123827448237641
mp-774091,MnSb3(PO4)4,0.0,-2.3143260824308727,0.0970465405208473
mp-761749,CoP2WO8,2.0195,-2.3142236980158732,0.064215904503964
mp-23414,Sc4NCl6,0.0,-2.3142193756309086,0.0
mp-558434,Ca3CuRhO6,0.0,-2.3141853588636363,0.0254652281818188
mp-19504,BaV2(CoO4)2,1.896399999999999,-2.3141392575000004,0.0
mp-777461,Li4V3Cr2Sn3O16,1.3282,-2.314049846607143,0.0456030244196767
mp-775830,Na3Bi(BO3)2,3.1380999999999992,-2.3140470450694446,0.0155956675000048
mp-558096,Zn2SiO4,2.3636,-2.3140175942857137,0.1440315661904732
mp-773698,Li4V3Cr3(FeO8)2,0.924099999999999,-2.3140119742857146,0.0402645754315305
mp-722904,Na5P3H2O11,0.3476,-2.3140053081083685,0.1514536321428599
mp-771607,Li7Cr5O12,0.0,-2.3136330485416665,0.0166048266666658
mp-672984,LiCu(PO3)4,0.0,-2.3136151859656087,0.0459095179745503