mpid,formula,BG,FE,e_hull
mp-25721,UVO5,0.31510000000000005,-3.0734282394642873,0.0647580099999736
mp-752879,Li3Ti4O8,0.0,-3.0733948911111115,0.0446912123333476
mp-4170,NaTaO3,2.2584,-3.0733200317500016,0.0144386639999982
mp-779948,ZrMnO3,2.9252000000000002,-3.073229079942,0.0268827980000025
mp-626104,U3(HO5)2,1.7838999999999992,-3.073204895316,0.1078580121666679
mp-777480,Li2Ti3MnO8,1.442199999999999,-3.073084160425713,0.0333374541071478
mp-768241,Dy2Ge2O7,3.8473,-3.07303613564394,0.0071341038636365
mp-752484,YbB4O7,6.996500000000001,-3.0729707608680563,0.0
mp-640228,Ca3Nb2CoO9,2.2592,-3.072944097416665,0.0
mp-510057,Gd3NbS3O4,1.7660999999999991,-3.072783186107955,0.0181202774999995
mp-775796,Li2Ti3NbO8,0.0,-3.072714427142858,0.0823026505357376
mp-6674,LiLa2SbO6,3.8857000000000013,-3.07265426775,0.0
mp-14649,Tb2Ge2O7,3.7452,-3.0726164579924236,0.0
mp-753511,LiTiSiO4,0.0,-3.072272241309523,0.0663490109523774
mp-753459,Nb3O7F,1.4918,-3.072109237721817,0.0293216940909122
mp-566725,TmMnO3,0.42059999999999903,-3.072014544942,0.0409063853333346
mp-761891,Li3Ti4O8,0.0,-3.0720074957777785,0.046078607666681
mp-7297,Cs2SnF6,5.3373,-3.0719184646822217,0.0
mp-686735,NaCaAlSi2O7,4.359199999999999,-3.0717024023958337,0.2174226407291515
mp-686748,Ca2Al2Si(HO4)2,4.4653,-3.0715119799826667,0.0
mp-755556,Ba6ZrO8,2.691799999999999,-3.0714949380000003,0.0475800506666654
mp-686905,TmMoO4F,3.7102,-3.0714089940985714,0.0
mp-778351,Li10Mn3F16,3.3565,-3.0713652193765517,0.0494480931034484
mp-779712,Ti17(NO4)6,0.0,-3.0713520765449656,0.0298492286727682
mp-756531,LiNd6(CuO6)2,0.0,-3.0713428128571434,0.0220316088333278
mp-767393,Li15Ti11Nb5O42,2.2795,-3.0708734389840178,0.0258946772602648
mp-9760,BaTb2PdO5,2.0216,-3.0707385364351847,0.0044511193055569
mp-763014,Li3MnF5,3.8533,-3.0707093285455556,0.0456545850000003
mp-772053,ZrMnO3,3.2405,-3.0704431089420003,0.0296687690000023
mp-773974,Li6Ti15Co3O32,0.0,-3.0703552955357147,0.0848329618155094
mp-772749,Ti17(NO4)6,0.0051,-3.070302428247091,0.0308988769706424
mp-560603,Na2MgSi5O12,4.8278,-3.0702931752500007,0.0444692206874997
mp-779465,Ti17(NO4)6,0.0,-3.070289405161985,0.0309119000557487
mp-765530,Li2VF4,2.7339,-3.070263842822857,0.0334858857142856
mp-765780,LiV2OF5,1.8039999999999992,-3.070224363022222,0.0309272022222186
mp-1019889,KSi2BO6,5.3233999999999995,-3.070037322916668,0.0
mp-753668,Ba2GdSbO6,3.4839,-3.0699435472500007,0.0
mp-774797,Li2Ti3ZnO8,3.126799999999999,-3.069799658392857,0.0
mp-772191,Tm2TeO6,3.0533,-3.0696450145370373,0.0
mp-15408,KGaF4,5.2165,-3.0696450064183343,0.0
mp-720704,NaCa9ScZn9(SiO3)20,4.0947,-3.0695026183499987,0.0392504102249997
mp-753349,LiTiSiO4,0.0,-3.0694783823809524,0.0691428698809488
mp-25169,KTh2V3O12,3.300899999999999,-3.0693888069444437,0.0
mp-6268,KTiPO5,3.0442,-3.0693048868452384,0.0
mp-763421,Li2MnF4,3.9074,-3.069285118495714,0.0286455708928574
mp-21520,NaCeP2O7,0.0,-3.0690890940854985,0.0
mp-765620,Li5V2OF11,1.479,-3.069056295754738,0.0475761655388575
mp-3196,NdGaO3,3.452899999999999,-3.0687744152499996,0.0330691832500003
mp-19642,Ho2Ni(B2O5)2,3.904,-3.068725378480392,0.0
mp-752526,Lu2TeO6,3.0987,-3.0685963658333337,0.0097792361111102
mp-555742,Ba2B5ClO9,5.2417,-3.0684821113437235,0.0
mp-778554,Li2MnF4,3.8539,-3.0684536486742853,0.0294770407142861
mp-764350,Li3MnF5,4.2484,-3.068213261323334,0.0481506522222208
mp-766433,Sr3Li4Nb6O20,1.1984,-3.068193633787878,0.0302384821212147
mp-754364,Y2CuO4,0.0,-3.068142965714286,0.0532615314285713
mp-542733,BaY2CuO5,0.0,-3.0681298943055553,0.0370576052777851
mp-861532,Li3VF5,2.5098000000000003,-3.0680221748277776,0.0528676580555558
mp-754646,Dy2Ge2O7,2.9711,-3.067406421098485,0.0127638184090903
mp-13940,Sr2TmReO6,0.0,-3.0673678752500004,0.0579930367499965
mp-1019528,Ba2Mg(BO2)6,5.2119,-3.0672098854761916,0.0062772995238002
mp-560623,Mg3(PO4)2,5.175899999999999,-3.0671589781684983,0.0145051276923071
mp-754027,NaSmO2,3.6122,-3.06706557625,0.0
mp-626173,HoHO2,3.949799999999999,-3.06698560028,0.0
mp-775518,Li5Ti6FeO16,2.195,-3.066688067499999,0.0338633449999843
mp-763488,LiCrF4,3.0313,-3.066646593084999,0.0403105210416763
mp-565302,ErMoO4F,3.7276000000000002,-3.0662652794557133,0.0
mp-765895,LiVF5,2.1274,-3.0662421622785723,0.0470046792857186
mp-780172,Tm2TeO6,3.1117,-3.0662067536111115,0.0034382609259262
mp-6575,Ba4Na(BO3)3,3.9839,-3.0662010173529417,0.0
mp-707516,Mg16Si8HO32,0.0,-3.065941846467017,0.1132813833575454
mp-760698,Yb2TiO5,0.0,-3.0659114341145832,0.1909755870312501
mp-6110,Sr2YSbO6,3.512199999999999,-3.0658270145000017,0.0516492459999993
mp-756770,UNb6O16,0.0,-3.0658154900000008,0.0563802904347845
mp-566496,HoMoO4F,3.736,-3.0656330258842845,0.0
mp-705168,Sr5V3ClO12,3.9446,-3.0654902830123816,0.0
mp-766139,Li2V2F7,0.37099999999999905,-3.065470717120909,0.1004007912878801
mp-8812,Rb2GeF6,5.9668,-3.0653338669044445,0.0
mp-18890,CaFe(SiO3)2,3.085499999999999,-3.06526697425,0.0073767662499992
mp-1265,MgO,4.444899999999999,-3.065234325625,0.0
mp-604717,SiO2,5.1678,-3.065190261111112,0.2195226463888886
mp-10474,NaPF6,7.008900000000001,-3.065152425029405,0.0
mp-41473,CsTiNiOF5,3.1081,-3.065132860429629,0.0
mp-752407,Dy2Ge2O7,3.8173999999999992,-3.065094057462122,0.0150761820454539
mp-554827,NaMnCrF6,3.279,-3.0646753140481477,0.0
mp-765820,Li2V2F7,0.0,-3.064165985302727,0.1017055231060615
mp-619488,Ba2NbCrO6,1.5823999999999991,-3.0641050119999997,0.0
mp-566864,TbMoO4F,3.7675,-3.0637158010033323,0.003584750119046
mp-17784,CaTiGeO5,2.9242999999999992,-3.0636011003645844,0.0
mp-510370,CsAlCuF6,0.0,-3.0634621438488887,0.0
mp-1019605,Cs2Ba3(P2O7)2,4.7249,-3.0634472524948246,0.0041450020652185
mp-6668,LiTiPO5,3.059199999999999,-3.0633039820014885,0.0
mp-765329,LiVF5,1.9417,-3.063286117457143,0.049960724107148
mp-753305,LiTiSiO4,0.0,-3.0629952009523795,0.0756260513095199
mp-707515,Mg16Si8HO32,0.0,-3.0629260145371933,0.1162972152873669
mp-7982,Mg2SiO4,4.395399999999999,-3.0625892707142848,0.1734058024999996
mp-19319,ErMnO3,0.44780000000000003,-3.0622745414420014,0.0345393231666637
mp-735808,Na2Ca29ZrSi16(O7F2)8,2.3014,-3.062140853325334,0.5476588282708299
mp-13954,Rb2GeF6,5.8839,-3.0619140969044447,0.0034197700000007
mp-39025,NbO2F,1.6515,-3.0617218352975017,0.124381114374998
mp-765765,Li2V2F7,0.21399999999999902,-3.0616325421209094,0.1042389662878795
mp-767672,LiVF5,1.9139000000000002,-3.0615591326357148,0.0516877089285765
mp-616850,Sr2VClO4,3.7723,-3.0615490757199995,0.0
mp-560836,SiO2,4.9689,-3.0614923116666666,0.2232205958333342
mp-559330,Sr4B14O25,5.206200000000001,-3.0613839639437983,0.0
mp-774150,MnAl2O4,2.6578,-3.061329204422857,0.0
mp-9143,LiPF6,7.5394,-3.0612138881544046,0.0
mp-7476,RbDyO2,3.6027,-3.0607036572916666,0.0
mp-771753,Li2Ti3MnO8,0.6227,-3.060622702211428,0.0457989123214321
mp-12265,SrCuF4,0.759699999999999,-3.0605422849600004,0.0
mp-20994,TaO2,0.0,-3.060484952499998,0.0707976269999992
mp-13546,Y2Ge2O7,3.7719,-3.060247448522728,0.0
mp-756702,PrBrO,3.5244,-3.0601186054166667,0.0325964949999999
mp-1016825,HfMgO3,0.7745000000000001,-3.060060209750002,0.5895504404999983
mp-770380,Ta3InO9,2.8472999999999993,-3.0598237931730763,0.0551074957692314
mp-767433,LiV2OF5,1.7501,-3.059783423207408,0.0413681420370393
mp-768083,Li5La3Nb14O42,0.0,-3.059713283945313,0.0857147275781251
mp-6812,KBaPO4,4.9459,-3.0595750343707477,0.0
mp-744914,Ca8MgAl6Si5O28,2.9092000000000002,-3.0594477701041662,0.4028580440624987
mp-753131,Li3Ti4O8,0.0,-3.0590506211111115,0.0590354823333481
mp-10942,KNaLaNbO5,3.6387,-3.0589626884722216,0.0
mp-779906,Ca3WO6,3.552399999999999,-3.0589506607500008,0.0246504524999977
mp-7726,Rb2UO4,1.8996,-3.058931735,0.0
mp-863886,Ta8Cr3O24,0.0,-3.0588749425714283,0.0834412142857239
mp-766658,LiV2OF5,1.7496999999999991,-3.058761433577778,0.0423901316666688
mp-19548,CaMn2Be3(SiO4)3,3.8734,-3.0587516022342864,0.0
mp-760360,Hf3N2O3,3.288599999999999,-3.05830383231375,0.0706782449999998
mp-763422,Li2MnF4,4.0357,-3.0582633479599983,0.0396673414285722
mp-754197,NdO,0.0,-3.0580537293750005,0.1080429325
mp-15326,Sm3IrO7,0.0,-3.0579429428409086,0.0
mp-25031,HoMnO3,0.43510000000000004,-3.057846619942002,0.0287075169999369
mp-557577,K3ScSi2O7,3.6385,-3.0578345322115386,0.0
mp-27981,PuClO,0.0,-3.057805280461666,0.0
mp-768961,YB5O9,5.2587,-3.057751939472221,0.0004418224444471
mp-541928,Sm3Re2O9,0.09010000000000001,-3.0573457434821427,0.0122262333928588
mp-677370,UP2O7,0.0,-3.0572598509940483,0.0
mp-555182,Na2Be2(SiO3)3,4.5404,-3.0572329871093755,0.0
mp-560873,Pr3Nb(Cl3O2)2,2.9226,-3.057154693897143,0.0192703114285732
mp-764280,Li2MnF4,4.013199999999999,-3.057146015817142,0.0407846735714283
mp-6539,RbTiPO5,3.0134,-3.057118286063988,0.0
mp-761429,Eu6WO12,0.0,-3.056964823421054,0.0
mp-765918,LiV2OF5,1.7128,-3.056706478022222,0.0444450872222255
mp-11344,PrO,0.0,-3.056693955625,0.0685722341666661
mp-765048,LiV2OF5,1.7492,-3.05658213542963,0.0445694298148176
mp-14168,K2GeF6,5.8902,-3.0564046713488886,0.0
mp-23147,Na4Al3Si3BrO12,4.609800000000001,-3.056168580434784,0.0
mp-6037,Ba2SmSbO6,3.605399999999999,-3.0561169375,0.0
mp-754239,ScGaO3,4.0845,-3.0561067372500004,0.076356408875001
mp-754345,LiTaO3,2.3884,-3.0561020497500015,0.0882191849999998
mp-686601,Na3MgAlSi7O18,4.810500000000001,-3.05609142675,0.0917199167916686
mp-755615,Li3Ti4O8,0.0,-3.0560856744444456,0.0620004290000135
mp-19247,ScVO4,2.6445,-3.0560111791666684,0.0
mp-7949,Rb2GeF6,5.796,-3.055819705793333,0.0095141611111122
mp-557585,Lu(PO3)3,5.6749,-3.055789092637363,0.0
mp-8614,K3NdSi2O7,3.5564,-3.0557634670192315,0.0
mp-25789,Ba5V3ClO12,4.0709,-3.0556657096790474,0.0
mp-1019514,AlPO4,5.4686,-3.0554580569047625,0.0830070936111146
mp-769466,Y2Ge2O7,3.8961,-3.05532688034091,0.0049205681818182
mp-774557,Er2TeO6,3.012699999999999,-3.0550801386111117,0.0
mp-763712,LiTi2VO6,1.564999999999999,-3.0549995950833337,0.0607743792499952
mp-720222,Na3CaAl3Si3SO16,3.7823,-3.0547026023726858,0.0300511022048599
mp-765275,Li3V2F12,0.6619,-3.054577021428236,0.027443895000025
mp-4156,Li2ZrO3,3.7336,-3.0542314489583333,0.0
mp-764698,LiVF3,2.568799999999999,-3.054156600714,0.018740939999998
mp-6844,KLi3Si12(SnO15)2,4.4356,-3.0541447943229163,0.0
mp-765363,Li2VF4,1.3747,-3.0540379052038102,0.0497118233333324
mp-755376,Er2TeO6,3.0329,-3.0539291904629637,0.0011509481481457
mp-603907,MgSiO3,5.0422,-3.05376557625,0.1968448472500021
mp-1019512,AlPO4,5.2949,-3.053725334404763,0.0847398161111145
mp-753580,LiTiSiO4,0.0,-3.0537213880952376,0.0848998641666636
mp-762995,Li2MnF4,4.1274,-3.0536989518885713,0.0442317375000005
mp-755586,NaLaO2,3.2411,-3.053562855625,0.0
mp-3033,RbTaO3,3.5412,-3.05336401375,0.0
mp-25019,DyMnO3,0.41339999999999905,-3.0531161912753304,0.0225766520000014
mp-680944,Nb2O5,1.6138000000000001,-3.053046921607141,0.0
mp-555105,Ta9Pb12O20F29,2.492299999999999,-3.0529151617787136,0.0
mp-7825,K2GeF6,5.799799999999999,-3.052899431348889,0.0035052399999999
mp-768281,Ho2Ge2O7,3.31,-3.052747737840909,0.0336954454545468
mp-8380,K2Si4O9,4.6244,-3.0527457884166664,0.0306159006666675
mp-775918,LaTiNO2,1.2144,-3.052645642809334,0.0383762937560021
mp-757021,KGdO2,3.05,-3.052412973125002,0.0
mp-766925,LiVF5,1.5758,-3.0524075358500005,0.0608393057142908
mp-779256,V2OF5,1.9184,-3.052190781525,0.0
mp-541238,KTi2(PO4)3,2.5455,-3.0521527809788376,0.0
mp-762782,Li3VF5,2.3684,-3.0520662576055564,0.0688235752777775
mp-768503,Lu(PO3)3,5.741099999999999,-3.051980314848901,0.0038087777884623
mp-557257,KVF3,2.0744,-3.0519392957139995,0.0
mp-557778,RbNbSiO5,3.2067,-3.05190638796875,0.0
mp-558902,LiMnGaF6,3.7836,-3.0517310920111105,0.0
mp-754112,CeBrO,0.0,-3.051713417083333,0.0
mp-777893,LiVF3,2.6218,-3.051634299964,0.0212632407499979
mp-559605,SiO2,3.695,-3.0514208130555565,0.2332920944444439
mp-772882,Dy2Ge2O7,3.3259,-3.0513418899621216,0.0288283495454546
mp-776444,KLiTi2(PO5)2,3.1523,-3.051138804032739,0.0176513111458316
mp-774430,Li2MnF4,4.592,-3.0511209079599992,0.046809781428573
mp-764744,V2OF5,1.7698,-3.051067606525,0.0011231749999991
mp-775301,LiV(Si2O5)3,2.0867,-3.05104426027174,0.0497612396739111
mp-21532,La2Ge2O7,3.5542000000000002,-3.0509869453409086,0.0
mp-3334,Tm2Sn2O7,2.6486,-3.05090705125,0.0
mp-777088,LiV2OF5,1.839499999999999,-3.0508951252444447,0.0502564400000027
mp-776627,Li3FeF6,3.9832,-3.0508782745473337,0.0
mp-775438,V2OF5,1.552,-3.0508736424625007,0.0013171390624986
mp-581967,Nb2O5,1.6713,-3.050847319770408,0.0021996018367484
mp-773011,Dy2Ge2O7,3.562299999999999,-3.0508192983712124,0.0293509411363634
mp-779365,V2OF5,1.5278,-3.0507886244416667,0.0014021570833326
mp-550117,Sm4Se3O4,1.2744,-3.050775042798296,0.0
mp-8763,Tm2S2O,2.694699999999999,-3.0506773243749987,0.0228552611249996
mp-4535,PrGaO3,3.3909,-3.050668844750001,0.0086857589999995
mp-764159,V2OF5,1.4965,-3.0505089243374996,0.0016818571874992
mp-557040,Lu(PO3)3,5.6663000000000014,-3.0504510651694146,0.0053380274679497
mp-754283,HoHO2,4.522500000000001,-3.0504484971549988,0.0165371031250005
mp-14380,CsNaSnF6,5.143599999999999,-3.0503142935711116,0.0
mp-768262,V3F10,0.0,-3.0502404401461543,0.0967662673076645
mp-19385,YMnO3,0.0,-3.050229201608665,0.0
mp-851257,V2OF5,1.5619,-3.0502122290250004,0.0019785524999988
mp-14401,NaCaPO4,4.914,-3.0501221393707483,0.0
mp-768762,Ho2TeO6,3.0134,-3.0500910925,0.0
mp-5005,Mg3(BO3)2,5.143,-3.04996645780303,0.0
mp-17268,Lu2Cu(B2O5)2,0.6675,-3.0498878349509795,0.0077886750367675
mp-559441,LiTiPO5,3.0747,-3.0498308976264883,0.0134730843749952
mp-777328,V2OF5,1.4855,-3.0498281140250003,0.002362667499999
mp-9656,BaY2PdO5,1.987099999999999,-3.04971045736111,0.018413354444446
mp-41734,Na8Al6Si6SO28,4.1847,-3.049648396307397,0.0
mp-781134,V2OF5,1.5417,-3.0495266752749997,0.0026641062499992
mp-851040,V2OF5,1.5246,-3.0495229081916673,0.0026678733333325
mp-20463,CaPbF6,3.455899999999999,-3.0494689596425006,0.0
mp-772246,TaVO4,1.8279,-3.049424834166667,0.0
mp-556228,Na5Ca4P4O16F,4.7165,-3.0493766977856978,1.428391666902229e-05
mp-30993,LaIO,3.2887,-3.0493290604166674,0.0
mp-677010,YbTi2CdO6F,0.0,-3.049294764729394,0.1209400263068172
mp-555089,SrLi4Ca(SiO4)2,4.8294999999999995,-3.0492668309375,0.0
mp-684730,EuTi2CdO6F,0.0,-3.0492471747293943,0.1096110429545422
mp-13931,Ba2TbReO6,0.0,-3.0490732515833336,0.0
mp-781965,V2OF5,1.7342,-3.048989561941666,0.0032012195833326
mp-778731,Li2MnF4,3.8341,-3.048775657424285,0.0491550319642861
mp-733443,Ca7Si6H4CO23,4.581099999999999,-3.0486828331885376,0.0163906290243893
mp-24954,NaAl6Fe3Si6B3O30F,2.5556,-3.0485427347738003,0.015374309463489
mp-780722,Y6N2O5,0.0,-3.0484614227700004,0.0873887662820482
mp-1019788,K4Al3(SiO4)3,0.0,-3.048405665000001,0.0133501862518921
mp-18576,Tm2Cu(B2O5)2,0.661299999999999,-3.048380437009803,0.0060686251102897
mp-18124,KAlCuF6,0.0809,-3.0482999121822223,0.0050054872222213
mp-3884,Ho2Sn2O7,2.6917,-3.04827293125,0.0
mp-753532,Nb2O3F2,0.2096,-3.0481885415900005,0.0079963520237971
mp-3688,Er2Sn2O7,2.673,-3.0481856185227283,0.0
mp-621945,La2Ge2O7,3.7144,-3.048175352613636,0.0028115927272729
mp-1020626,Zr2Ga(PO4)3,4.186999999999999,-3.048174783571429,0.0106930538888896
mp-765708,V2OF5,1.7294,-3.0481000490250003,0.004090732499999
mp-31626,Ta2CrO6,0.323,-3.0480380030555554,0.0146677066666764
mp-20845,Dy2Sn2O7,2.7123,-3.0477742579166662,0.0
mp-559376,Na2CaPO4F,4.7508,-3.0476849471428045,0.0
mp-776091,LiLaNdSbO6,3.917299999999999,-3.047607178,0.0040225654166707
mp-8324,Dy2S2O,2.5645000000000002,-3.0475509485416667,0.0079276362499998
mp-8762,Er2S2O,2.6472,-3.047488777374998,0.0128909033333375
mp-769396,Y2Ge2O7,2.9452000000000003,-3.047419302159092,0.0128281463636366
mp-560303,BaCa2C2(O3F)2,4.7298,-3.04740245576,0.0061154196153863
mp-6430,Ba2YReO6,0.0,-3.0472543475,0.0
mp-560170,Nd5Te2Cl3O10,3.3381,-3.047196942989,0.0
mp-761118,Ti7Sn3O20,1.524899999999999,-3.047121735222221,0.05351639391667
mp-763192,V2OF5,1.6801,-3.0469066273583323,0.0052841541666666
mp-676422,Ta2O5,3.2084,-3.0465761923214285,0.3083694285714279
mp-705413,CsTaCo(OF2)2,2.94,-3.0465513130288886,0.0
mp-25030,TbMnO3,0.4016,-3.0465254291086663,0.0
mp-12266,CaCuF4,0.7140999999999991,-3.04643678996,0.0
mp-777951,LiMnF3,3.5243,-3.0464048361560003,0.0183460497499989
mp-754341,Ho2TeO6,3.1026,-3.0463277134259266,0.0037633790740718
mp-557133,Cs2KMoF6,4.1117,-3.046287195714,0.0
mp-690635,K2NaVOF5,2.7864,-3.0462610707200004,0.0
mp-684821,NaCa2SiO4F,2.5833,-3.04624893291,0.3234312388888858
mp-6075,Ba2Li(BO2)5,4.951700000000001,-3.0461924806018508,0.0
mp-766302,Ba5Nb5O14,0.0,-3.046089275729168,0.0620292427083288
mp-6693,CaZn(SiO3)2,4.0551,-3.0460586992499983,0.0373943449166684
mp-707521,Mg16Si8HO32,0.0,-3.0460442880459646,0.1331789417785973
mp-755543,HoHO2,4.7573,-3.045957670279998,0.0210279300000006
mp-973536,LuUO3,0.0,-3.045945258750001,0.7216025888749993
mp-778547,Li2MnF4,3.9058,-3.0458068136742855,0.0521238757142858
mp-565718,SmMoO4F,3.8163,-3.045796100884285,0.0
mp-765830,Li3VF5,2.4749,-3.0456820451055555,0.0752077877777779
mp-505223,Ba2Tb2Ti2Cu2O11,0.0,-3.045679170197369,0.0539257416447922
mp-4991,Tb2Sn2O7,2.7218,-3.045394104583333,0.0
mp-777904,Li2Ti3CrO8,0.0,-3.0452803767857146,0.0324528790498757
mp-777894,LiVF3,2.542799999999999,-3.045133368214,0.0277641724999915
mp-531071,NaTa4O8,0.0,-3.045119447564101,0.0
mp-776684,Li3FeF6,4.069599999999999,-3.0450712829640003,0.005806991583344
mp-776687,Li5FeF8,3.8558,-3.045057226394285,0.0429644548809413
mp-777864,Li2MnF4,4.059699999999999,-3.045049659031428,0.0528810303571436
mp-780857,Li2VOF4,1.6283,-3.04500654137625,0.002226695666665
mp-765781,LiVF5,1.7843,-3.044988215850001,0.0682586257142903
mp-768313,Dy2TeO6,3.006599999999999,-3.044861851203705,0.0
mp-556424,RbVF3,2.4491,-3.044663405714,0.0
mp-775306,Li2Ti3FeO8,1.9457,-3.0446205071428567,0.003542330714275
mp-2991,Cs2UO4,1.8211,-3.0445817921428566,0.0
mp-777084,LiV2OF5,1.5573000000000001,-3.044522652466666,0.0566289127777803
mp-6125,RbTi2(PO4)3,2.6058,-3.0444966895899475,0.0
mp-763801,Li3MnF6,1.722899999999999,-3.044265849643333,0.0021984671666661
mp-17832,RbBaPO4,4.995900000000001,-3.04425286329932,0.0
mp-556212,K4U5Te2O21,1.7541,-3.0442061073828133,0.00013344125
mp-556464,SiO2,4.035,-3.0441816372222226,0.2405312702777777
mp-778861,LiV2OF5,1.1189,-3.0441678824666667,0.0569836827777807
mp-557463,Na3ScSi2O7,3.7748,-3.0440723868269233,0.0
mp-769875,Li4CrF6,3.0117,-3.0438281333763637,0.0429057813636344
mp-777717,Li4MnF7,1.9009,-3.043685845774166,0.025181117916663
mp-853273,LiV2OF5,1.6439000000000001,-3.0434896794111115,0.0576618858333359
mp-778591,LiMnF3,3.6510000000000002,-3.043282211906,0.0214686739999994
mp-1595,Nb2O5,2.171,-3.0432599437500008,0.0097869778571411
mp-777086,LiV2OF5,1.2137,-3.0432129320962966,0.0579386331481508
mp-8323,Dy2S2O,2.169899999999999,-3.0431631370416667,0.0123154477499998
mp-555076,KNaSnF6,5.1714,-3.04313564246,0.0
mp-982366,Tb2S2O,2.5113,-3.0430748162083328,0.008454436750001
mp-554191,Na2UO4,1.866,-3.042997513571428,0.0
mp-20288,CeCO3F,0.17120000000000002,-3.042817239017777,0.0
mp-989639,Cs2KInF6,5.4629,-3.042799093714,0.0
mp-556048,Nb2O5,1.5321,-3.0427980882142864,0.010248833392854
mp-765358,Li3VOF5,2.7786,-3.0427752152200003,0.0305825950238203
mp-556788,SiO2,4.7884,-3.0427320958333333,0.2419808116666661
mp-645593,Ca3ScCoO6,0.8271000000000001,-3.042689296590909,0.0
mp-558046,KMnF3,2.7828,-3.042509315906,0.0
mp-777052,LiV2OF5,1.834,-3.042460324688889,0.058691240555559
mp-17973,Cs3GeF7,4.3869,-3.042416688029999,0.0022755609090916
mp-764694,LiVF5,1.9896,-3.0423628437071435,0.070883997857142
mp-555359,KMnF3,2.7802000000000002,-3.0423260819060007,0.0001832339999969
mp-677716,RbAl3Cd(SiO4)3,1.8815,-3.0422521506250013,0.0750504166249994
mp-7610,Li2CaSiO4,5.189699999999999,-3.042237430625,0.0
mp-15170,Lu2Sn2O7,2.606499999999999,-3.04217286625,0.0
mp-861457,LiV2OF5,0.7683,-3.0421503660777782,0.0590011991666692
mp-756034,NaSmO2,3.9782,-3.04205954,0.0250060362499997
mp-695056,Na6CaZr(SiO3)6,4.314500000000001,-3.0420538772656256,0.0172475283593742
mp-565616,La2CrO6,2.1814,-3.0419904580555563,0.0
mp-8809,BaLa2PtO5,2.4067,-3.041785840138888,0.0
mp-765445,Li2VF4,2.4348,-3.0416521935371432,0.0620975349999985
mp-17699,Er2Cu(B2O5)2,0.6619,-3.0415971740686265,0.0052120128676449