mpid,formula,BG,FE,e_hull
mp-777531,Ti3Nb2Cr3O16,0.8117999999999991,-2.86008585875,0.0963474544791616
mp-754370,Ba3GeO5,2.7592,-2.8598102145833337,0.0066989819444449
mp-23089,SrTa2Bi2O9,2.4928,-2.859782742946429,0.0
mp-706291,Ca2B8H2O15,5.576099999999999,-2.8597676040490123,0.0
mp-763979,Li4Ti3Mn2Nb3O16,0.0,-2.8597429779257126,0.0700173373660693
mp-767112,Li4Mn3OF11,0.8136,-2.8596458469589474,0.0562813132236765
mp-776918,Ti3Mn2Fe(PO4)6,0.6205,-2.8594555672358744,0.011990529965276
mp-754659,Zr3N2O3,2.7098,-2.8594030366887515,0.0601703543749998
mp-41236,Ba2La2Zn(WO6)2,3.0862,-2.859389836315789,0.1076774301315861
mp-1019555,BaNaLi3(BO2)6,5.2185,-2.8593784986956523,0.0
mp-685291,AlPO4,1.4649,-2.859332201488096,0.2791329490277805
mp-775663,TiMn(PO4)2,1.7391,-2.859305669068094,0.0313644813541724
mp-20337,ZrPbO3,2.6739,-2.859286900750001,0.0328110550000033
mp-775424,Na5Li4Ti5O14,0.048400000000000006,-2.859157953779762,0.0167436559821423
mp-764511,Mn6OF11,0.0,-2.8591404361166664,0.0301273786805555
mp-763941,Mn6OF11,0.0,-2.8590226752833336,0.0302451395138936
mp-777252,LiFeF4,3.3866,-2.8588194991266667,0.0689273060185273
mp-17461,NaTiP2O7,0.069899999999999,-2.8588120544642863,0.0606423578527977
mp-557290,Na2Si2O5,3.887599999999999,-2.8587237759722215,0.0621027650000014
mp-12183,KB5O8,5.3412,-2.858718596398808,0.0
mp-558990,K2Sr(PO3)4,5.602600000000001,-2.8586879740726823,0.0
mp-778735,Mn6OF11,0.394599999999999,-2.858672263061111,0.03059555173611
mp-761450,LiFeSi3O8,3.1816,-2.8586235155769235,0.0692532167307531
mp-769069,Na2Li4Ti3Al(PO4)6,0.0,-2.8584689849642877,0.0888065219897278
mp-16599,K3YbSi2O7,0.0,-2.8583763660576924,0.0
mp-705680,La2Mo2O9,3.065699999999999,-2.858364035480769,0.0423593884615414
mp-781011,V3OF11,1.8989,-2.858178876622666,0.0658079691666611
mp-541274,BaV2(P2O7)2,1.9275,-2.8581788740419487,0.0080406816666638
mp-5990,CsLi(B3O5)2,5.0778,-2.858159337083332,0.0002478901388975
mp-776803,LiFeF4,3.5553,-2.8580746499599994,0.0696721551851942
mp-780826,LiFeF3,3.294899999999999,-2.8580459372140004,0.0570064564999963
mp-707176,NaCa2Al2P2H5O11F4,5.4845999999999995,-2.8578121604740914,0.0
mp-1017000,MgZrO3,0.631699999999999,-2.85780627875,0.6682193389999984
mp-776038,LiFeF4,3.3284,-2.8577886452377776,0.0699581599074159
mp-21445,Ba3In2O5F2,1.5869,-2.8577867190525,0.0200195287499962
mp-775929,La2Nb2N2O5,1.4554999999999991,-2.8577572532736357,0.0652550999333865
mp-769903,V2Si2O7,2.3302,-2.8576887962499997,0.0842472369318176
mp-764113,V3OF11,1.9062000000000001,-2.8575468612893333,0.0664399844999943
mp-752926,LiTiP2O7,0.0,-2.857521055600649,0.0769318894134025
mp-1020624,NaBe(BO2)3,5.3609,-2.8574051256818187,0.0016565138636375
mp-775922,SrNb3NO7,1.530599999999999,-2.8574032355108336,0.0806507697916654
mp-755798,ZrPbO3,2.635599999999999,-2.8574024347500013,0.0346955210000032
mp-776692,LiFe2F7,3.081,-2.857388527833,0.0087925426111343
mp-758362,Li3Ti2(PO4)3,0.0014000000000000002,-2.857336551005953,0.0926502145630916
mp-559611,Yb4Ge3(O3F2)3,0.0,-2.8572567790177263,0.1830554123863645
mp-705606,Al2CoO4,0.0,-2.856983611190476,0.0344439745238105
mp-763006,LiMnF4,0.47450000000000003,-2.8569175501200004,0.0933387541666563
mp-777990,Tm2Sb2O7,2.1304,-2.8567466585227272,0.0220551314772681
mp-1016821,BaSiO3,0.9385000000000001,-2.8567022927500005,0.5620722189999974
mp-761803,La9Ni5O19,0.0,-2.85665552314394,0.083847461515143
mp-772486,Lu2Sb2O7,2.0964,-2.856546574886364,0.0361154035227428
mp-7983,Mg2SiO4,3.5361000000000002,-2.856480147857142,0.3795149253571424
mp-776461,BaNb3NO7,1.2513,-2.8564236684275013,0.0643955770833333
mp-505113,TiSn6F16,2.7043,-2.8563899254655074,0.0001630486956507
mp-752715,Ba3(ClO)2,2.1949,-2.856344371645714,0.0557386734523772
mp-560506,NaTiP2O7,0.1058,-2.8561002096915584,0.0633542026255256
mp-774023,Na2Ti3Fe(PO4)6,0.0,-2.8560380996825407,0.0186766172048749
mp-755370,BaNb3NO7,1.2927,-2.855963073844168,0.0648561716666673
mp-778504,Ti5Ni(PO4)6,0.0,-2.855924793941799,0.1280150390833281
mp-29084,Ba2GdCl7,2.4275,-2.8557883477820005,0.0
mp-772261,LaAsO4,3.8186,-2.8557762983333337,0.0
mp-763841,SrLiVPO6,1.9488,-2.8557379368095246,0.0741510609166651
mp-767592,Li3V(SiO3)3,2.2683,-2.8557370778906264,0.096927373789061
mp-774316,Mn6OF11,0.5436,-2.8556837463944453,0.0335840684027823
mp-676591,Li11Nb12O36,0.0,-2.8555891872033903,0.0420872059216144
mp-3283,RbNbO3,3.3068,-2.85556210525,0.0
mp-766668,Mn6OF11,0.5246000000000001,-2.8555515302833334,0.0337162845138943
mp-27556,CsNbO3,3.319,-2.8555396605000003,0.0
mp-862724,Rb2Pu2O5,0.0,-2.8555236433333326,0.0
mp-772218,Ti2Ni(PO5)2,2.9552,-2.8554795491349196,0.0049611096666719
mp-581862,Cs2NaAl(PO4)2,4.457400000000001,-2.8554563005314617,0.0
mp-975521,NdMgO3,0.0,-2.85545286825,0.270298859125
mp-541431,Ca2SiH2O5,4.6543,-2.855422175849,0.0029605627500002
mp-39626,SrLaMnWO6,2.028799999999999,-2.855382196846,0.053011084562506
mp-989565,Rb2TlGaF6,4.4008,-2.855327844214,0.0
mp-735022,SrPHO4,5.2009,-2.855260760066462,0.0005405728571439
mp-849672,Mn6OF11,0.43999999999999906,-2.855243712783333,0.0340241020138938
mp-780525,Mn6OF11,0.44010000000000005,-2.8550171977833343,0.0342506170138934
mp-560504,Rb2Sb2OF10,3.7737,-2.8549814060433336,0.0
mp-768954,Ba2YCl7,4.7082999999999995,-2.8548089132820005,0.0090444957499995
mp-22441,Ba2MgReO6,0.0,-2.8546064442500003,0.0
mp-764155,Mn6OF11,0.44410000000000005,-2.854540145283333,0.0347276695138933
mp-13650,Ca2GeO4,2.898199999999999,-2.854515292857143,0.1460745485714314
mp-760462,Li5Ti(SiO4)2,0.5455000000000001,-2.8544841197916657,0.0662208762500151
mp-29269,NaSbF4,4.3132,-2.8544668470433323,0.0
mp-777891,LiFeF4,2.8958,-2.8544652968350004,0.0732815083101936
mp-636654,LaTiNbBi2O9,1.7236,-2.8543169044940475,0.039788796785718
mp-978506,SmSiO3,0.0,-2.8540580632499997,0.6460055783437529
mp-774185,Mn6OF11,0.3546,-2.8539924902833342,0.0352753245138934
mp-14345,BaZnP2O7,4.3393,-2.8539587059036795,0.0
mp-6603,Sr2CeIrO6,0.0,-2.85394061225,0.0
mp-764526,Mn6OF11,0.2988,-2.8539380216722225,0.0353297931250047
mp-540750,CsNb(PO4)2,3.2732,-2.8538188884325386,0.0158708279166672
mp-776138,LiFeF3,3.3048,-2.8538048952139996,0.0612474984999966
mp-977455,PaAgO3,0.914899999999999,-2.8536659567500013,0.0
mp-10350,BaNdCuBO5,0.0,-2.8535679889351844,0.0
mp-686041,Li7Nb8O24,0.0,-2.853496168205128,0.0358049794711465
mp-15865,RbScAsO4F,4.0481,-2.8533036240549987,0.0
mp-555356,Ba13Dy8Zn4Pt4O37,2.2975,-2.853175569084596,0.0
mp-690517,La2NiO4,2.191,-2.853166492142857,0.1769687885714281
mp-764812,VOF2,1.3564,-2.8530879371575004,0.0170132154687552
mp-554245,BaPb2IF5,2.8424,-2.8530735106611114,0.0029438683333342
mp-686585,K6Al11Si13Ag5O48,1.5983,-2.8528327789156633,0.1705822635768035
mp-777591,Li4Ti5Fe3O16,1.195199999999999,-2.852766599404762,0.029287790051061
mp-753268,Li6CuF8,0.4052,-2.8525985939679996,0.0550971776666671
mp-554583,DyP5O14,5.246399999999999,-2.852009143232143,0.0
mp-12237,HoP5O14,5.233099999999999,-2.8519782620238097,0.0
mp-15382,TmP5O14,5.2284,-2.85195318914881,0.0
mp-765225,Li2MnF6,2.4326,-2.851891987196296,0.0266003051851848
mp-764430,Li2MnF6,2.4655,-2.8518544509,0.0266378414814809
mp-555495,K3Y(BO3)2,3.1813,-2.851736198611111,0.0
mp-775911,La2Nb2N2O5,1.8865999999999992,-2.8517041296372736,0.0713082235697477
mp-766860,LiMnF4,2.8769,-2.851579298036666,0.0986770062499902
mp-776061,Li4Ti3Mn3Nb2O16,1.036099999999999,-2.8515333543885726,0.038882169910714
mp-752693,Ba3(ClO)2,2.453299999999999,-2.8514494216457145,0.060633623452377
mp-556039,Na3Y(BO3)2,3.6611000000000002,-2.851395191944445,0.0
mp-694898,Sr5La3Mn4(WO6)4,2.107199999999999,-2.851387859596,0.0243708477968649
mp-4871,ErP5O14,5.2303,-2.85136786802381,0.0
mp-14398,CaSn(BO3)2,3.700999999999999,-2.8513514505833344,0.0
mp-581194,CsB5O8,5.9417,-2.8513090338988087,0.0
mp-18547,NaGdGeO4,3.2576,-2.851259445000001,0.0
mp-9160,La4Au2O9,1.9691,-2.8511794230833334,0.0
mp-754323,TmBiO3,3.1128,-2.8508814907499995,0.0299454258749998
mp-776763,Ti3(WO6)2,2.5978,-2.8507681595588235,0.0398731047059222
mp-779884,Sr5W3O14,2.4118,-2.850706968295455,0.0200163883333193
mp-14011,Al(PO3)3,5.6178,-2.850622082348901,0.009721994038462
mp-19574,Mg3Fe2(SiO4)3,2.711699999999999,-2.8505800083750015,0.0589190911874997
mp-651358,Ba2ErCl7,4.9184,-2.850557333532002,0.0
mp-559951,SrTa2Bi2O9,2.304,-2.850424796160714,0.0093579467857178
mp-6481,Na2ZnSi3O8,3.9452000000000003,-2.850378141428571,0.0
mp-769921,Ta2Mn2O7,1.9710999999999992,-2.850313330515453,0.0753998431818168
mp-4917,LaAsO4,3.9896000000000003,-2.84999024375,0.005786054583333
mp-561814,RbB5O8,5.9404,-2.849729745059523,0.0
mp-753627,LiTiP2O7,0.1019,-2.8496656128733764,0.0847873321406753
mp-758393,Li3Ti2(PO4)3,0.0,-2.849620444380953,0.1003663211880914
mp-555904,NaSmGeO4,3.547599999999999,-2.8495554057142862,0.0
mp-22896,LaCl3,3.6454,-2.849390277445,0.0
mp-17089,K3Eu(PO4)2,0.0,-2.849267407585034,0.0
mp-777672,LiFeF3,3.0807,-2.8491188197140005,0.0659335739999962
mp-764379,V2O2F3,1.2749,-2.8491186758671434,0.0590038585714651
mp-775975,La2Nb2N2O5,1.4661,-2.8490784600918184,0.0739338931152016
mp-8000,SrSn(BO3)2,3.6113,-2.8490718305833327,0.0
mp-8454,KF,6.3537,-2.8490349880949997,0.1035351699999829
mp-775184,Sc2(PO4)3,0.0,-2.8489744336344547,0.0810735721691227
mp-4681,NaNbO3,2.3639,-2.8489724652499997,0.0126107625000084
mp-8161,CaPdF4,1.1613,-2.8488287891266677,0.0
mp-554996,K5B19O31,5.3537,-2.848790464643939,0.0
mp-6428,Ba2YRuO6,0.08999999999999901,-2.8487302205000007,0.0
mp-776827,LiFeF4,3.3661,-2.8487210557933333,0.0790257493518611
mp-850110,Li2Mn(SiO3)2,3.486899999999999,-2.848673691678182,0.0143417845454454
mp-777470,LiFeF3,3.458999999999999,-2.8486080360473327,0.0664443576666631
mp-3671,NaNbO3,2.3619,-2.8485952852500005,0.0129879425000076
mp-765451,Li3V4O5F7,1.193299999999999,-2.8483797994515783,0.0841091730701695
mp-779064,Li4FeOF5,3.0088,-2.8483594333818183,0.0969572923737382
mp-757914,Li3Ti2(PO4)3,0.0102,-2.8483157248809534,0.1016710406880907
mp-853177,Nb3V(PO4)6,0.0,-2.84831298054622,0.0
mp-42089,K4Gd2C3O9F4,2.7175000000000002,-2.84829371061409,0.0
mp-777899,LiFeF3,3.2798,-2.8482227382140004,0.0668296554999958
mp-39681,NaTi2BiO6,2.7382,-2.8482168000833337,0.0141703905000003
mp-554201,MoF3,2.9582,-2.8481701321424997,0.016955074999994
mp-765204,LiMn2F7,0.400499999999999,-2.8480958210250003,0.0346176006666558
mp-25619,LiVPO4F,1.6248,-2.8479642236606546,0.0
mp-686747,K2Nb6Ag(PO8)3,1.7979,-2.847597186230159,0.0
mp-772137,Er2Sb2O7,1.751199999999999,-2.847350488068181,0.0157993339772879
mp-868300,La16Ni8O33,0.0,-2.8473197747587715,0.1425208042105339
mp-558228,Li2MnF6,2.715999999999999,-2.8467844538629623,0.0317078385185185
mp-758662,Ba2GaP4HO14,5.0374,-2.846697158568226,0.0003615017329545
mp-763509,LiTiVO4,0.31169999999999903,-2.8466461788095248,0.0963890785714216
mp-510535,CsB5O8,5.8969000000000005,-2.8465509748809517,0.0047580590178526
mp-853149,VOF2,1.229299999999999,-2.8462553313241656,0.02384582130209
mp-780448,Ho2Sb2O7,1.831799999999999,-2.8461705600378786,0.0071780228030302
mp-744637,Ba2V3P6HO22,1.944799999999999,-2.8461682469026885,0.0
mp-773549,VOF2,1.3175000000000001,-2.8461533621574997,0.0239477904687559
mp-627944,Si4H2O9,5.1713000000000005,-2.846109393899334,0.0598276308333325
mp-778746,VOF,1.659599999999999,-2.8460088824800014,0.0
mp-8058,YAsO4,3.659799999999999,-2.846006964583333,0.0
mp-680683,CsB9O14,5.4514,-2.8458865982291663,0.0
mp-743987,Ti3V2O9,0.7782999999999991,-2.8458057065178566,0.3200869895535963
mp-556335,YP5O14,5.2522,-2.8457710900238102,0.0
mp-776495,LiFeF4,3.6927,-2.84561089246,0.0821359126851941
mp-765757,Li4MnOF4,2.4416,-2.845532230697,0.0992619229999967
mp-559996,Al(PO3)3,5.512499999999999,-2.845519446451466,0.0148246299358971
mp-685446,BaNb8O14,0.304899999999999,-2.845488354565218,0.0297582007608685
mp-772019,Ba5La2Cl16,4.2429,-2.8454689553113037,0.0718154621739151
mp-767929,Li3VSi2O7,2.1006,-2.8454364977243576,0.0272244191506461
mp-777804,LiFeF4,3.4886,-2.8453701928766666,0.0823766122685274
mp-777181,Ti2Nb(PO4)3,0.0,-2.8453059773677243,0.1309650345404041
mp-557482,Ca5As3O12F,3.9518,-2.8453048657709537,0.0
mp-764198,LiVOF4,2.1252,-2.845159301572857,0.0333343086607191
mp-755621,BaNb3NO7,1.5507,-2.8450482667608337,0.0757709787500005
mp-774426,Nb3Cr(PO4)6,2.6069,-2.845047547605042,0.0
mp-764479,VOF2,1.1419,-2.8450393509075,0.0250618017187553
mp-505234,BaP2PbO7,4.3622,-2.8449275838582255,0.0
mp-777553,LiFeF4,3.3558,-2.8448359363488884,0.0829108687963051
mp-776754,Li2Fe3F8,3.2095,-2.8447427999630768,0.0294130084615389
mp-27615,U(PO3)4,0.28299999999999903,-2.8446009904341736,0.0
mp-755287,Ca3CdO4,2.5211,-2.84449446125,0.0
mp-691121,Sr3La5Mn8O24,0.0,-2.844354397192,0.0
mp-6788,La3Ga5SnO14,3.305,-2.8442253435869564,0.0
mp-32308,Ta2NiO6,2.7613,-2.8440660341666666,0.0
mp-553925,Rb5B19O31,5.2851,-2.843945879189393,0.0
mp-764900,VOF,1.3589,-2.843784340813334,0.0022245416666679
mp-766449,Li3TiSiO5,0.026299999999999,-2.843709358541666,0.0914811147500076
mp-766928,Li4Mn3OF11,1.2576,-2.843561894327369,0.0723652658552556
mp-653287,Cr3Pb5F19,2.949799999999999,-2.8435465554670367,0.0070837879629648
mp-780836,Li4Fe3OF11,2.6304,-2.8434914557547377,0.0468935660233915
mp-531722,Li5Nb6O18,0.0,-2.8433766412931036,0.0374048601508594
mp-568287,Li5VP2(O4F)2,2.4559,-2.8433464049205828,0.005919460833347
mp-557457,TmSeO3F,4.2903,-2.843344199755625,0.0
mp-14155,HoP5O14,5.4553,-2.843288539273809,0.0086897227500291
mp-758218,LiTiP2O7,0.17420000000000002,-2.843272954918831,0.0911799900952203
mp-765687,VOF,1.255199999999999,-2.843259951646667,0.0027489308333343
mp-558104,NaMn3F10,1.4189,-2.843242710698572,0.0002445613095245
mp-779880,Ba2GeO4,3.4905,-2.8431846664285714,0.0276678280952387
mp-13753,SmP5O14,5.3790000000000004,-2.8431814172738106,0.0
mp-851019,VOF,1.3131,-2.8431346762300014,0.0028742062500004
mp-779893,DyP5O14,5.4353,-2.8430988957321426,0.0089102475000011
mp-4736,NdP5O14,5.3904,-2.843091196148809,0.0
mp-17679,RbNb(PO4)2,3.0886,-2.8430774238492074,0.0007916822916653
mp-1020163,Na3Li2Al(SiO4)2,4.051,-2.8430119159375,0.0058922341145821
mp-764830,VOF,1.132499999999999,-2.842987460257777,0.0030214222222246
mp-769138,Dy2Sb2O7,1.8993,-2.8427980271590902,8.413939393658865e-05
mp-777924,Li2Fe3F8,2.9391000000000003,-2.8427197103476916,0.0314360980769246
mp-30537,TbP5O14,5.362,-2.842712863315477,0.0
mp-765767,VOF2,0.9691000000000001,-2.8426696140325003,0.0274315385937553
mp-698163,BaPHO4,5.3765,-2.842529941197415,0.0012503638690475
mp-766903,Li2MnF6,2.8175,-2.8424588731222213,0.036033419259259
mp-14817,PrP5O14,5.3923,-2.84245619164881,0.0
mp-744025,Sr8Mg3Fe(MoO6)4,9.999999999976696e-05,-2.84238994925,0.0
mp-565217,Na2SrVP2O9,2.542599999999999,-2.842194251329366,0.0
mp-733968,BaCaP2(HO4)2,5.327,-2.842028147387891,0.0
mp-3457,ErP5O14,5.444100000000001,-2.842013235398809,0.0093546326250004
mp-776710,LiFeF4,3.6098,-2.8418537616266657,0.0858930435185287
mp-766976,Li4Mn3OF11,1.4098,-2.841736812748421,0.0741903474342029
mp-36866,Al2CdO4,2.676,-2.841729165,0.0118951278571435
mp-552191,Ba2TbBiO6,1.7187000000000001,-2.841475805583334,0.0
mp-764914,Li3Ti4VO8,0.0,-2.841289651666668,0.0819160703124985
mp-767075,LiVSiO4,2.0535,-2.8412263342857145,0.0109474822321402
mp-545659,Ba2DyBiO6,1.7248,-2.8412150719166673,0.0
mp-770959,Ba3GeO5,2.69,-2.8410393468055557,0.0254698497222225
mp-17377,KNb(PO4)2,3.1667,-2.841002155724206,0.0069658916666668
mp-757673,LiTiP2O7,0.036000000000000004,-2.8409197146915584,0.0935332303224934
mp-766923,LiVSiO4,1.851099999999999,-2.8408191807142855,0.0113546358035705
mp-775155,Li4FeOF5,2.9748,-2.8407651923212116,0.1045515334343498
mp-703350,La2(GeO3)3,3.0791,-2.840658939732143,0.0052519021428567
mp-556941,NaFeF3,3.0099,-2.8405291922140004,0.0
mp-850946,LiVOF4,2.1572,-2.8405081237157135,0.0379854865178623
mp-3263,USO,0.0,-2.840318808437498,0.0
mp-782053,Sr9La5Cl33,3.6325,-2.84018573026766,0.0284604443617029
mp-767555,LiVSiO4,2.051999999999999,-2.8400069797619043,0.0121668367559504
mp-705581,Al2CoO4,0.0,-2.839853974821428,0.0515736108928566
mp-779125,DyP5O14,5.3851,-2.839790122607144,0.0122190206250003
mp-767963,Li2FeSi3O8,3.081,-2.8397391671428567,0.068892478392855
mp-776448,BaNb3NO7,0.820299999999999,-2.839388492594165,0.0814307529166686
mp-566264,Na2CaVP2O9,2.558599999999999,-2.839309149162699,0.0
mp-705576,Al2FeO4,0.0,-2.8392411998214286,0.1346422994642901
mp-759861,Yb2P4O13,0.0,-2.8392330894016298,0.0013113938815791
mp-540549,Al(PO3)3,5.7002,-2.8392268031181325,0.0211172732692306
mp-13563,YP5O14,5.4835,-2.8391171722738093,0.0066539177500004
mp-555022,LuSeO3F,4.2845,-2.838688008922292,0.0390923691666662
mp-776975,NbO2,0.0,-2.838671280416667,0.074137250416685
mp-676563,Ta4Cu2O11,1.2731000000000001,-2.8385311840441183,0.0389384964705961
mp-756660,Li4Ti3NbO8,0.0,-2.8384454437499995,0.0850986032031233
mp-765683,Mn6OF11,1.2638,-2.8384072891722223,0.0508605256250049
mp-863919,Li9V5(Si5O16)2,1.7645,-2.8383146294642865,0.0949931457589254
mp-766988,Li2VSi2O7,1.7176,-2.8381210186458325,0.0648409454166545
mp-777920,LiFeF4,4.1162,-2.838069677182222,0.0896771279629717
mp-756978,Ba3(ClO)2,2.334699999999999,-2.8379616891457147,0.0741213559523767
mp-765945,Li2Mn4OF8,2.0591,-2.837924205640666,0.0694359840000009
mp-771958,Ba3LaCl9,4.3826,-2.837646255526155,0.0838162628846159
mp-772801,LuBiO3,2.3018,-2.83752065075,0.0585524731250002
mp-554560,Li4Be3P3BrO12,5.864999999999999,-2.8373623193167705,0.0
mp-561972,SrMn2(PO4)2,3.3013,-2.8372251415854217,0.0
mp-12450,LiNd2OsO6,0.4066,-2.8371349662499994,0.0
mp-779108,Be2P2O7,6.0325,-2.8371067760173165,0.0185309287499988
mp-775466,K2InSi4HO11,4.0332,-2.8370905501247377,0.0
mp-686458,Rb11Al14Si10(AgO16)3,0.020100000000000003,-2.8369608631395344,0.2268021634302233
mp-556999,ErSeO3F,4.2923,-2.8368496089222925,0.0019666766666643
mp-781503,VOF2,0.8146,-2.836815220490833,0.0332859321354224
mp-12929,SmAsO4,3.689199999999999,-2.8366754087499992,0.0
mp-763865,V6O5F8,0.3929,-2.8366356645142106,0.089373192105266
mp-761046,Na3Ti2(PO4)3,0.0,-2.8366054523809523,0.0582735116640957
mp-12160,Li6Ho(BO3)3,4.7449,-2.836156698223684,0.0
mp-773070,KNb2O5,0.0,-2.8361497424479167,0.0686106040064142
mp-758145,LiTiP2O7,0.098899999999999,-2.8359940826461028,0.0984588623679485
mp-773111,Ba2LaCl7,4.2082,-2.8359219177819996,0.0759309685000024
mp-680384,Sr10Ga6O19,3.0095,-2.83588054825,0.0118927230714254
mp-24390,CaPHO4,5.4321,-2.8356300970307484,0.0
mp-558538,HoSeO3F,4.2961,-2.835560201838959,0.0010971916666662
mp-853179,Ti3VFe2(PO4)6,0.0694,-2.8354719294047617,0.0166228170138875
mp-705559,Na3Ca3Zr2Si4(O5F)3,3.076999999999999,-2.8353980362440003,0.5911839408749966
mp-615746,RbBiF4,2.8659,-2.8353222432933336,0.0
mp-545539,Pr2BiO2,0.0,-2.8350865335000015,0.0
mp-540850,TlPF6,6.3698,-2.8350360772169045,0.0
mp-8979,TaInO4,3.5676,-2.834914568333333,0.0
mp-1019710,CsB5O8,5.9528,-2.834793297559524,0.0165157363392811
mp-675283,TlPF6,6.0343,-2.8347025275294047,0.0003335496874994
mp-773020,LuP5O14,5.4098,-2.83462593664881,0.0129987517499996
mp-505392,Ba3V4O13,2.945599999999999,-2.8345584160624995,0.0
mp-764819,VOF2,1.0933,-2.8344251896575,0.0356759629687513
mp-758063,LiTiP2O7,0.28240000000000004,-2.834197651055196,0.1002552939588561
mp-4419,NaNbO3,1.5604,-2.8341964077500017,0.0273868200000002
mp-6123,Ba2Pd(OF)2,0.0,-2.8341380464114287,0.0531517410714288
mp-3164,BaSO4,5.950699999999999,-2.83409122234375,0.0
mp-557260,RbSb2F7,4.2682,-2.8339633570830003,0.0
mp-1342,BaO,2.0906,-2.833907420625,0.0
mp-19541,Mg3Mn2(SiO4)3,0.0,-2.8337812362210015,0.1126963251041699
mp-743873,SrLaMnSbO6,1.8423999999999991,-2.833634639346,0.0
mp-777907,Li5FeOF5,4.2827,-2.833492413933333,0.095471186666666
mp-772898,AlGaO3,3.2132,-2.83348130725,0.0280068704999996
mp-17637,USO6,1.9501000000000002,-2.833457486445313,0.0
mp-767049,LiVSiO4,2.171399999999999,-2.8334474510714287,0.0187263654464269
mp-559574,K3Sm(BO3)2,3.4183,-2.8333166996527783,0.0
mp-1020014,Li3B11O18,5.5447,-2.8333033478385428,0.0
mp-777472,LiFeF4,3.9064,-2.833241596626667,0.0945052085185276
mp-5878,KZnF3,3.6889,-2.8331522007140015,0.0
mp-555955,LaSeO3F,3.7498,-2.8331518033667367,9.50589814801006e-05
mp-772382,Li2FeSi3O8,3.040899999999999,-2.833085056428572,0.0755465891071409