mpid,formula,BG,FE,e_hull
mp-541629,BaGaF5,5.7568,-3.5394430094214284,0.0
mp-22487,EuScO3,0.0,-3.5393016537500004,0.0138434023750004
mp-770812,SrCe2O4,0.0,-3.539299781785714,0.0419438121428346
mp-7640,Sc2Si2O7,3.764400000000001,-3.539160805795456,0.0848290640909077
mp-12146,CaB2F8,8.3113,-3.539028172191212,0.0
mp-27390,K5ThF9,5.9624,-3.5379888820473337,0.0
mp-2940,LuPO4,5.9556000000000004,-3.5377604838492074,0.0
mp-867166,PuO2,0.0,-3.537335766458334,0.0861244933333331
mp-676300,Sc3NbO7,2.059599999999999,-3.5370357298863637,0.1732760107954529
mp-4752,Na5Al3F14,6.548500000000001,-3.536155194166364,0.0
mp-662570,BaB2F8,7.875,-3.535810190827576,0.0274982812499988
mp-756704,LuTa3O9,3.302699999999999,-3.5357574427884604,0.0123151784615398
mp-754893,U4O7,0.0,-3.5355660435227283,0.0668729213636378
mp-755895,Ba3Zr2O7,3.0246,-3.5352629565625,0.0
mp-3975,K2TaF7,5.608499999999999,-3.535160565333,0.0
mp-555307,Ba2CoF6,0.0,-3.534939228571111,0.050105334444443
mp-3901,NdNbO4,3.6582,-3.5346684470833325,0.0
mp-761842,Hf3SnO8,3.582499999999999,-3.534665103333333,0.0259447489583326
mp-43114,Ca3TiAl2Si3O13F2,3.0993,-3.534602910429029,0.0224042700520827
mp-9486,K2AlF5,6.3239,-3.5345890426187494,0.0
mp-8216,LaBO3,4.500700000000001,-3.534566517083333,0.0
mp-28802,Sr4Zn3F14,4.7884,-3.5339213353171424,0.0182619966666637
mp-754150,La3GaO6,3.8351,-3.53288189725,0.0022511341249984
mp-5308,LaTa3O9,2.7517,-3.5327846602884607,0.0121490082692297
mp-752515,YTa3O9,3.2338,-3.5326688091346146,0.0
mp-755689,ErClO,5.249599999999999,-3.5322161498366675,0.0
mp-560731,Ba2Ti9O20,2.7429,-3.5320223264516115,0.0051091220564281
mp-4006,ErPO4,5.919600000000001,-3.531314774682538,0.0
mp-757624,Sr3La4O9,3.8438,-3.5304312616406257,0.0579332259375
mp-7723,NaAlF4,5.776199999999999,-3.53041688996,0.1002481443333334
mp-7618,Cs3YF6,5.3385,-3.5299079239639997,0.0
mp-776018,SrTiO3,1.7362,-3.529835192083333,0.0393393689999985
mp-16934,BaLaAlO4,4.4343,-3.5297874782142853,0.0022866775595069
mp-28653,NdTa3O9,3.214,-3.5296709191346123,0.0
mp-554918,BaY6Si3B6(O12F)2,5.2315,-3.529660829223336,0.0071995666666619
mp-686572,NaPr9Si6(SO12)2,3.121499999999999,-3.529634620550594,0.0
mp-768572,YAl3O6,4.122,-3.5292665229999995,0.0836992625000014
mp-2892,BaNd2O4,3.097299999999999,-3.529223006785714,0.0
mp-555506,ZrCrF6,0.0,-3.5291266908924994,0.0491993128124992
mp-561462,Ba2Nd2Si4O13,5.046200000000001,-3.5288812505357146,0.0
mp-4104,HoPO4,5.9209,-3.5282158205158733,0.0
mp-31213,Sr4Ti3O10,1.7813,-3.5279167983823525,0.0
mp-541813,RbMgF3,6.6647,-3.527753758047333,0.0
mp-7492,LaBO3,4.0196,-3.527393553083333,0.007172964000004
mp-763464,Zr4MnO9,2.9462,-3.526746108014998,0.0446494421428589
mp-552120,YClO,4.270700000000001,-3.5261618556700003,0.0
mp-770998,GdTa3O9,2.8865,-3.526109070865385,0.0
mp-8402,RbMgF3,6.9384000000000015,-3.526037965713998,0.001715792333333
mp-555467,Sr2AlCO3F5,5.424600000000001,-3.525513921016666,0.0
mp-558248,PrTa3O9,3.1746,-3.5254280824038444,0.0
mp-3943,BaTi2O5,1.8301,-3.5252009732812497,0.0220831379166668
mp-5767,DyPO4,5.8870000000000005,-3.5251593632936515,0.0
mp-36225,Na3ZrF7,6.1421,-3.5243998353027273,0.014360771818179
mp-13897,K3UF7,0.793999999999999,-3.524025201666364,0.0
mp-4163,Ca3Ti2O7,2.5214,-3.5234976822569446,0.0026664106249985
mp-38357,Ba4Bi3F17,4.9991,-3.523392233759583,0.0
mp-14552,Ba2SrUO6,2.2434,-3.5233424882500017,0.0
mp-3594,Gd3GaO6,2.9661,-3.5231844587499994,0.0
mp-13019,NaLa2TaO6,3.981199999999999,-3.5227868962500017,0.0
mp-13680,BaBOF3,5.8868,-3.522398834414444,0.0961878170192305
mp-504457,BaTi6O13,2.6401,-3.5223868028125014,0.0106270404062325
mp-695698,Ca2TiAlSi2O9F,3.0731,-3.5221672565066657,0.0182751941796883
mp-15761,Ba4Ti12O27,0.0,-3.5221482990406985,0.0041054600697911
mp-17468,SrZrSi2O7,4.7096,-3.522016352386365,0.0010742241666648
mp-13055,Ba2LaTaO6,3.620799999999999,-3.52190442175,0.0
mp-557713,Ba2LaTaO6,3.6312,-3.5218421072500012,6.231449999560823e-05
mp-778259,PrHfO4,0.19340000000000002,-3.521549842708333,0.0606806855208326
mp-4709,PrNbO4,3.7546999999999993,-3.5215303825000013,0.0
mp-10791,ErBO3,5.131399999999999,-3.521101690916666,0.0
mp-555184,SmTiClO3,3.211,-3.5208624618627784,0.0
mp-7079,CaZrSi2O7,4.5532,-3.5207032617045466,0.0034120418181764
mp-755950,Ba2Sc2O5,2.71,-3.5207011356944435,0.0
mp-4340,TbPO4,5.8675,-3.5205462394047617,0.0
mp-12644,Ba2LuNbO6,2.847899999999999,-3.5204596297500004,0.0
mp-12286,Sr2Ta2O7,2.9093,-3.5203353885227275,0.0
mp-40830,NaSr3LaTi5O15,1.8642,-3.5201568290833323,0.0069482543799956
mp-38102,Na3CeF7,2.6973000000000003,-3.519890388029999,0.0
mp-755323,DyClO,5.168800000000001,-3.51973433205889,0.0
mp-3962,LaPO4,4.520300000000001,-3.519196599265872,0.0
mp-31110,Sm3GaO6,3.6243,-3.518928817,0.0
mp-554278,TiO2,2.6774,-3.5188309805555553,0.0
mp-2955,NaMgF3,6.7529,-3.5183455602139997,0.0
mp-21639,KTiF4,0.0,-3.518239427529444,0.0
mp-780393,HoBO3,5.0472,-3.5178405865833327,0.059311597833334
mp-770977,Ca2CeO4,2.260299999999999,-3.5178309946428565,0.0653222332142799
mp-768227,DyNbO4,3.2584,-3.5170331502777765,0.0719788000000019
mp-774530,Ba4Ti11O26,2.2142,-3.516857252215448,0.0274609839512223
mp-29731,HoClO,5.1804,-3.5167635448366674,0.0
mp-29605,SrPr2O4,3.3444,-3.516306788214286,0.0461218732142851
mp-1018659,CeO2,0.6968999999999991,-3.5160203508333328,0.4290530599999976
mp-8133,LaPO4,4.7024,-3.51591826718254,0.003278332083342
mp-779846,HoTa3O9,2.6798,-3.5158332537500008,0.0259893678845948
mp-505432,SmBeF4,0.0,-3.5157920382933336,0.3557041171527775
mp-10792,DyBO3,5.0107,-3.5153743154166657,0.0282002280000011
mp-772222,TmClO,5.0946,-3.514871214836667,0.0706942683333338
mp-770936,Ba2Sc2O5,2.8133,-3.5136174143055547,0.0070837213888879
mp-676261,Y3NbO7,2.1545,-3.5134301242045467,0.245767747727271
mp-754524,CeTiO3,0.0,-3.5133697860833344,0.0865925379999996
mp-390,TiO2,2.0517,-3.5127858063888886,0.0060451741666796
mp-565468,LiCaCrF6,4.0967,-3.5125641469044444,0.0
mp-773069,ErTa3O9,2.6546,-3.5124332722115383,0.0305718513461563
mp-770836,Ba5Sc6O14,3.6435,-3.5113769395000003,0.0605387915333359
mp-760078,Ba4Ti11O26,2.7188,-3.5113024357520333,0.0330158004146383
mp-43094,Ca3Ti2AlSi3O14F,3.0113,-3.5112065702926394,0.0126711505989565
mp-30997,ZrTlF5,4.8447000000000005,-3.510768068707143,0.0
mp-758331,NdTa3O9,2.2516,-3.5103541329807664,0.0193167861538441
mp-559560,Nd2Ti3(ClO4)2,2.9455,-3.510288874601333,0.0
mp-3349,Sr3Ti2O7,1.8404999999999991,-3.509941542673612,0.0
mp-15743,Sr2CeO4,2.2243,-3.509310050714286,0.0
mp-17715,SrTa2O6,3.228999999999999,-3.509175788333333,0.0
mp-850669,YTa3O9,2.7163,-3.508832430865384,0.0238363782692303
mp-558566,Ba5Er2ZrAl2O13,2.5861,-3.50835280375,0.0
mp-504701,CsTiF4,0.0,-3.508206543154445,0.0
mp-559151,BaSrTa2O7,2.1898,-3.507677979886364,0.0
mp-556183,Pr3U(ClO2)3,1.4230999999999991,-3.5076233582523084,0.0039982450000017
mp-34380,HoTaO4,1.5885,-3.507562753333333,0.252283035833333
mp-7617,Rb3YF6,5.0547,-3.5075623329640013,0.0094334027499991
mp-558533,Nd3U(ClO2)3,1.4115,-3.5074870922907686,0.0146058523076941
mp-694876,NaSr2LaTi4O12,1.8852,-3.507104105166667,0.0094836088916654
mp-12642,Ba2TmNbO6,2.8502,-3.50708707375,0.0
mp-768303,DyNbO4,3.9158,-3.5070039427777773,0.0820080075000007
mp-755781,TbNbO4,3.9277,-3.5063742413888868,0.0785585008333384
mp-771005,LuTa3O9,2.6285,-3.5061845443269224,0.0418880769230778
mp-6651,K2Ta2(OF2)3,3.9245,-3.506071777183846,0.0
mp-760484,TmBO3,4.5014,-3.5051971560833337,0.0304339896499943
mp-5827,CaTiO3,1.8283,-3.5047423500833346,0.0643119432499972
mp-554363,Pr2Ti3(ClO4)2,2.968,-3.5046657527679987,0.0
mp-8627,SmBO3,5.1718,-3.5046299530833327,0.0
mp-5132,YPO4,5.8009,-3.50383904093254,0.0
mp-28072,La2Be2O5,3.9238,-3.503754905138888,0.0395134077777772
mp-703275,NaSr3NdTi5O15,1.9141000000000001,-3.503469846783331,0.012827508222216
mp-27546,CaClF,5.6701999999999995,-3.5031731298166675,0.0084319949999995
mp-32927,Tb2O3,0.0,-3.5024591120833337,0.4995091842499999
mp-770430,GdTa3O9,2.4874,-3.5024257108653845,0.0236833600000174
mp-768357,Ba2Ti11O24,2.574,-3.5021393317117124,0.0320244733445953
mp-695164,Ba8Ce7YHO24,2.0843,-3.5018982831980487,0.0187026430335404
mp-778873,BaCe2O4,0.0,-3.5013337710714287,0.0136898694047609
mp-759489,BaTi8O16,0.0,-3.5011309245333324,0.0
mp-752852,BaTi8O16,0.0,-3.500647197733333,0.0004837268000077
mp-15733,CaTaAlO5,3.8999,-3.5003082576562488,0.0
mp-773060,Ba6Ta9Ti7O42,0.0,-3.50015356608073,0.0
mp-18229,CaTa2O6,3.4758,-3.499718898055556,0.0
mp-15254,Li3AlF6,7.6884000000000015,-3.499554338714,0.0
mp-754696,PrTiO3,0.0,-3.4995510340833342,0.0755152371250087
mp-556036,Ba3Al2Cu2F16,0.5436000000000001,-3.499322982566956,0.0014473055869528
mp-18414,BaLa2BeO5,3.887,-3.49920574375,0.0
mp-14026,Ca2Ta2O7,2.2952,-3.499157384886364,0.0009869557142838
mp-761873,KTiF4,0.0,-3.498882032737777,0.0193573947916672
mp-769317,Ca4Ta2O9,3.921099999999999,-3.498847382416665,0.0
mp-1840,TiO2,2.2984,-3.4988433630555553,0.0199876175000142
mp-5933,BaTiO3,1.727,-3.4988427344166673,0.0080662116666641
mp-769649,GdTa3O9,2.3374,-3.4984371777884613,0.0276718930769401
mp-561473,CaTaAlO5,3.9264,-3.4984329970312498,0.001875260625006
mp-1019898,LaPO4,4.6606,-3.498424426349207,0.0207721729166756
mp-755226,La2Tb2O7,0.0,-3.49811852094697,0.0872134922727276
mp-769582,Sr5Ta4O15,3.3459,-3.49805592578125,0.0
mp-3211,Nd2SO2,2.8645,-3.4979967383124992,0.0
mp-972112,Sr2MgUO6,2.1157,-3.497499579249999,0.0200332935000027
mp-561011,Li2Ta2(OF2)3,3.8335999999999992,-3.4970677026325645,0.0
mp-8136,ThSO,1.113999999999999,-3.4969400467708325,0.0
mp-695582,Na3Sr4La3Ti10O30,1.942399999999999,-3.4966576115833323,0.0094127330700004
mp-675179,Ba3Bi2F12,5.1102,-3.4958552026047056,0.0662426466666685
mp-9406,Li2La2Ti3O10,2.073899999999999,-3.4952396566176462,0.0199894485294365
mp-555990,Er2SiSO4,2.8061000000000003,-3.4952013186328124,0.0195986924999989
mp-1818,SiF4,7.7173,-3.4951551529520004,0.0
mp-557793,Rb4LiZr3H2F19,6.1954,-3.4950426325810344,0.0
mp-6653,Ba2ErNbO6,2.856,-3.494185330250001,0.0
mp-556020,Li3AlF6,7.915100000000001,-3.494140601714,0.0054137370000004
mp-864913,Na3UF8,0.0,-3.494140415376666,0.0
mp-769307,Ca4Ta2O9,4.500500000000001,-3.4940752204166667,0.0047721619999965
mp-561167,Nd2Zr2O7,0.0,-3.493956147159092,0.3665309704545443
mp-27192,CsBe2F5,7.180899999999999,-3.4939058994937504,0.0
mp-863021,Ba2Sc2O5,1.5365,-3.4935166740277777,0.0271844616666658
mp-559014,Nd4GeO8,3.5008,-3.493302262692308,0.0
mp-27823,SmClO,4.876199999999999,-3.492902819003333,0.0
mp-2998,BaTiO3,1.6669999999999991,-3.492403165083334,0.0145057809999897
mp-542863,Ca7NbSi4O17F,3.5274,-3.4920271532480003,0.0
mp-17366,Ho2SiSO4,2.6337,-3.4916417895703127,0.0185733103124992
mp-623088,KTbF5,0.0,-3.491312362278572,0.0076907126190484
mp-542112,CaZrO3,3.2155,-3.4912949827500017,0.1922258345000092
mp-17412,BaPr2O4,3.074299999999999,-3.4909067817857147,0.0
mp-6109,CaTiSiO5,3.002099999999999,-3.490748261302082,0.0
mp-14169,Li4UF8,0.33740000000000003,-3.4907217174630767,0.0003436105769223
mp-39866,BaSm4Si3SeO12,2.5404,-3.4906867915997024,0.0377661641369009
mp-753354,Eu4O3F7,0.0,-3.490425036934285,0.0586195737053572
mp-760405,ErBO3,4.5583,-3.4898932010833343,0.0312084898333626
mp-616580,UO3,1.4882,-3.4895477174375022,0.1390725434999993
mp-755969,Sr3La4O9,3.0779,-3.4895205482031253,0.0988439393750013
mp-757206,BaTi6O12,0.0,-3.4894133157894736,0.0040262303696039
mp-695514,NaSr2NdTi4O12,1.8599,-3.4881989413749994,0.0148791121111049
mp-769266,Ca3Ta2O8,4.1056,-3.488077356923076,0.0113187385714148
mp-696736,RbBe2F5,7.0859,-3.4880299188687496,0.0
mp-6019,Sr2YNbO6,3.2306999999999992,-3.4879317930000013,0.0
mp-15549,K2LiAlF6,7.217799999999999,-3.4876884917140005,0.0
mp-556996,K2LiAlF6,7.2639,-3.487653316380667,3.517533333408096e-05
mp-753056,HoBO3,4.5448,-3.487544963083333,0.0896072213333347
mp-1439,TiO2,2.5266,-3.48744382138889,0.0313871591666661
mp-780625,Tb5O9,0.0,-3.4874116912797626,0.0857742875892864
mp-4481,Ca2SiO4,4.199400000000001,-3.487332415,0.0
mp-6217,LaSc3(BO3)4,4.2334,-3.4868451975833343,0.0
mp-10348,LaSc3(BO3)4,4.1081,-3.486634288583334,0.0002109089999997
mp-754672,TiO2,2.9809,-3.4862509122222214,0.0325800683333472
mp-9839,K2LiAlF6,7.4418,-3.486183801714,0.0015046900000008
mp-558553,Sr4Ti5(Si2O11)2,1.9373,-3.4857014445952386,0.0
mp-559502,Ba3NaNd3(Si3O10)2,4.5793,-3.485619202803031,0.0
mp-12641,Ba2HoNbO6,2.8516,-3.4849461552500003,0.0
mp-540610,K2U7O22,1.4469,-3.4847733904032263,0.0417336875806402
mp-632715,Cs3CeF6,0.26229999999999903,-3.4845797137140004,0.0
mp-505070,CeTa3O9,0.0,-3.4843899950961545,0.0040610246153995
mp-755421,Ca6HfO8,4.1479,-3.4837891316666663,0.0023098694999923
mp-12948,NaMgF3,6.620699999999999,-3.483732443714,0.0346131164999992
mp-753657,TiOF,0.0,-3.483731854702224,0.000795473333321
mp-695250,BaLa7Mg5Nb3O24,3.0726,-3.483729733,0.03929694483333
mp-753318,DyBO3,4.514,-3.483430577416668,0.060143966
mp-758317,YTa3O9,2.1427,-3.4831379979807675,0.049530811153847
mp-7550,CeNbO4,0.0,-3.4830305416666665,0.0
mp-5394,LaSF,1.481199999999999,-3.4825653600841675,0.0
mp-553961,ScNbO4,3.3047,-3.482185326666665,0.0
mp-2657,TiO2,1.780999999999999,-3.4821207997222223,0.0367101808333458
mp-13514,NdBO3,5.0609,-3.482027990083334,0.0
mp-769297,Sr5Ta4O15,2.9673000000000003,-3.481687429114583,0.0163684966666668
mp-775484,Ba6Li2Ti16O39,2.3147,-3.481188025165345,0.0155329450793679
mp-3788,SrAl4O7,3.7468,-3.4800041498958336,0.0
mp-27985,YClO,5.0908,-3.4798961256700007,0.0462657300000071
mp-775938,TiO2,2.083899999999999,-3.4798401175000007,0.0389908630555684
mp-12829,LiCaGaF6,6.4003,-3.4798167707933336,0.0
mp-684815,Ba4La2Ti3Nb2O18,2.1891,-3.479422189396552,0.0419239904022976
mp-7028,YbOF,2.158699999999999,-3.479168835813333,0.0
mp-1019570,Ca8Si5O18,4.545,-3.4781641009677418,0.0006281168548376
mp-4867,CaAl4O7,3.9982,-3.477781680729167,0.0
mp-18075,Na2TiF6,4.666399999999999,-3.477475156348889,0.0410962777777959
mp-5512,Sr4Al14O25,3.945899999999999,-3.4768998742151167,0.0022441678488513
mp-686697,Na3Sr4Nd3Ti10O30,1.964,-3.476823824033333,0.0130349279333295
mp-560399,NaMgF3,5.9262000000000015,-3.4766756087139994,0.0416699514999994
mp-556041,Ba2NiF6,4.5169,-3.4766172041266667,0.0252480688888869
mp-558896,Yb3(SF2)2,0.0,-3.476584674765,0.1357762172222214
mp-20092,EuTa2O6,0.0,-3.4763668025000007,0.0149905372222214
mp-7858,MgUO4,1.6931,-3.475986915833332,0.0
mp-548170,U3O8,0.0,-3.475768086363636,0.2424831645454546
mp-761156,Li3La5Ti6Nb2O26,1.885499999999999,-3.475499742916667,0.0564836072023844
mp-6711,Na3Li3Al2F12,7.0872,-3.475013256964,0.0
mp-774524,Li3La5Ti6Nb2O26,1.9064,-3.475008653869049,0.0569746962500037
mp-556069,Tb11O20,0.0,-3.4747609919892466,0.0753721741129034
mp-23058,NdClO,4.766400000000001,-3.4747474706700014,0.0
mp-3094,SrAl2O4,4.1398,-3.4747206303571434,0.0
mp-12640,Ba2DyNbO6,2.8514,-3.474683782416668,0.0
mp-556382,EuClF,0.8959,-3.474619268150001,0.0
mp-23050,GdClO,2.9892,-3.4741619998366677,0.0
mp-3831,SmPO4,5.7418000000000005,-3.4741145042658723,0.0
mp-7238,NdBO3,4.6987,-3.4740781070833338,0.0079498830000002
mp-695243,Na2SrLa2Ti5O15,1.995,-3.474041947483333,0.0109936583599967
mp-27391,Na5Zr2F13,5.553599999999999,-3.4740272667735,0.122819669
mp-585516,Ca3Si2O7,4.6202,-3.473914773229166,0.0023865537499947
mp-559708,Li6ZrBeF12,6.1837,-3.473903423214,0.0126869111666687
mp-13811,Ba2MgUO6,2.053699999999999,-3.4735299857499995,0.0
mp-30906,Sr2Al6O11,4.124,-3.4733808003289472,0.0046767897368571
mp-767384,Ba2LiTi11O24,0.0,-3.473324461929825,0.0138454295558858
mp-556942,Ca2SiO4,4.4522,-3.471898806964286,0.0154336080357149
mp-27264,NaTiF4,0.201999999999999,-3.4709198798211105,0.0
mp-777129,TiO2,3.3083,-3.4707420532407416,0.0480889273148275
mp-3972,Ce2SO2,0.0,-3.4703502433125015,0.0
mp-557387,Sr2TmNbO6,2.857699999999999,-3.4700653907500003,0.0362171990625057
mp-6091,BaAl2(SiO4)2,4.819699999999999,-3.4700357348076927,0.0
mp-555191,La3Si2Cl3O7,4.1096,-3.4696509715686665,0.0063183003333318
mp-6586,K2NaAlF6,6.858,-3.469336995713999,0.0
mp-555314,Sr7Zr(Si2O7)3,4.4268,-3.4692738278928563,0.0208952107142863
mp-3584,NdPO4,5.675000000000001,-3.469246085515872,0.0
mp-18677,PrSc3(BO3)4,4.389200000000001,-3.469164005583334,0.0
mp-5492,SrAl2O4,4.0564,-3.4687701104761905,0.0059505198809519
mp-769390,Ca3Ta2O8,4.2097,-3.4687109719230764,0.0306851235714145
mp-17979,BaAl2(SiO4)2,4.7813,-3.4680173976923068,0.0020183371153787
mp-553432,TiO2,3.4299,-3.4678249830555563,0.0510059975000132
mp-14190,NdPO4,5.3095,-3.4677678567658736,0.0014782287499972
mp-1020715,Sr6Y2Al4O15,3.9889,-3.4676761708796286,0.0076297304012378
mp-865120,NaPaO3,2.9473000000000003,-3.46759111175,0.0
mp-3932,Ca3Si2O7,4.4296,-3.467520445729168,0.0087808812499936
mp-677212,Ba3LiTa3Ti5O21,2.2708,-3.4673044201388867,0.0
mp-2963,CaAl2O4,4.3446,-3.4670367750000004,0.0006503210476154
mp-758289,Th4Ta18O53,1.6168,-3.4669652674166658,0.0537435326666688
mp-11773,Nd3GaO6,3.647599999999999,-3.466879215500001,0.0
mp-14560,Ca2Ta2O6F,0.0,-3.4666373944263627,0.0754569181363713
mp-6254,Ba2TbNbO6,2.9904,-3.466542254083333,0.0
mp-754769,TiO2,2.2943000000000002,-3.466354435555555,0.0524765450000135
mp-556631,KZrSnF7,4.0133,-3.466338040833,0.0
mp-555561,BaU(SiO4)2,2.385899999999999,-3.46618185375,0.0167361624999937
mp-771131,NdZrO3,0.0,-3.4661506992500013,0.2004841707749971
mp-557888,K5U2O4F9,2.7062,-3.4657725545354987,0.0
mp-14600,CaAl2O4,4.3909,-3.465472615178572,0.0022144808690445
mp-27273,Ti9O17,0.0,-3.4654096077403844,0.0164342286538197
mp-1019535,BaAl2(SiO4)2,4.9061,-3.4654090723076925,0.0046266624999926
mp-6521,LiLaTiO4,2.263699999999999,-3.4652015316666667,0.0289366887500026
mp-756170,Sr3LiTa4(O6F)2,0.0,-3.4651620053354537,0.0375833946704649
mp-3236,Pr2SO2,2.8586,-3.4646319093124984,0.0
mp-861504,PrBO3,4.652,-3.464584324083333,0.0
mp-757394,LaTi6O12,0.0,-3.464436134473685,0.0594822700657875
mp-560339,Ca2Zr(SiO3)4,4.8495,-3.4643726121052634,0.0052956026315751
mp-4589,PrPO4,5.6478,-3.4642734580158727,0.0
mp-7251,Ba2YNbO6,2.8514,-3.4636725850000003,0.0
mp-17987,Tb11O20,0.0,-3.4633414336021504,0.0867917325000018
mp-667379,Ba7Al64O103,4.2537,-3.463170227004309,0.0
mp-760457,YBO3,4.5918,-3.4626335795833336,0.0854183326666611
mp-769333,Ca4Ta2O9,4.1648,-3.46259824075,0.0362491416666621
mp-559642,CaZrAl9BO18,4.8628,-3.4623670881388886,0.0031420014999987
mp-4202,BaAl2O4,4.0969,-3.46230893125,0.0
mp-1019534,BaAl4O7,3.6891,-3.4622578755208337,0.0005506072666641
mp-677430,NaLiLa2Ti4O12,1.9969000000000001,-3.4613911203333343,0.0313279086250144
mp-1019533,Ba9Y2(SiO4)6,4.5047,-3.461042945731707,0.0052064718292763
mp-765640,Sm3Ta17O47,2.3251,-3.4609358372574626,0.0
mp-4169,USiO4,0.0,-3.4608553683333327,0.0684929241666765
mp-4429,CaSiO3,4.8369,-3.460830602416668,2.720133333244945e-05
mp-5532,Sr2TiO4,1.914199999999999,-3.4607730873809524,0.0
mp-694911,BaCaBO3F,3.8701,-3.4597230923723803,0.006625982653059
mp-770239,Ba2Ta2O7,2.9092000000000002,-3.459663219431818,0.0
mp-9173,TiO2,2.4757000000000002,-3.45962914888889,0.0592018316666784
mp-27984,PrClO,4.698500000000001,-3.459622199836667,0.0
mp-510544,SrSm2Nb2O9,2.1115,-3.459334962232142,0.0597651197500201
mp-33318,Ca11Al14O32,3.372,-3.4591863931578937,0.0
mp-6008,Ca3Al2(SiO4)3,4.992699999999999,-3.4589648698750004,0.0008903456041675
mp-559390,CaAl2O4,4.190300000000001,-3.4589433092857145,0.0087437867619009
mp-6081,Ba2Ti(SiO4)2,3.7171,-3.458924887820513,0.0
mp-558428,Ba9Sc2(SiO4)6,4.3057,-3.4588624317073178,0.0068325199695182
mp-3828,BaAl2O4,3.9419,-3.458709496964286,0.0035994342857117
mp-3978,SrSiO3,4.6251,-3.4586034044166665,0.0
mp-534782,Ca18Nd2Si3P9(O16F)3,4.3443,-3.4585282398364714,0.0103443234638556
mp-557552,Sr2CuF6,1.068,-3.4581833280155565,0.0
mp-4930,TiAl2O5,2.9468,-3.4576812534895818,0.0132013021875003
mp-778653,LiLa3Ti3CrO12,0.0,-3.45722902425,0.0560870750208266
mp-554451,BaFeF4,3.3521,-3.4571051107933326,0.0025056666666669
mp-504554,Ba5Ta4O15,3.0865,-3.457011521614584,5.892208327118453e-05
mp-554623,Sm2Ta2Cl2O7,3.1249,-3.4568766446361527,0.0
mp-15066,LiTmSiO4,4.7791999999999994,-3.456343158214285,0.0
mp-559691,Ca2Al2SiO7,4.284800000000001,-3.4557720407291668,0.0212694631249981
mp-12244,Cs3TiF7,2.9901,-3.455765454999697,0.0
mp-14485,LaTa7O19,3.116599999999999,-3.4555097923611098,0.0