mpid,formula,BG,FE,e_hull
mp-767648,Li2SiNiO4,3.475899999999999,-2.3762178765624995,0.0189710615624996
mp-769760,Li2AlCoO4,1.772,-2.3761820250000003,0.066600874062507
mp-769944,Li3FePCO7,4.0809,-2.376180728026557,0.041055740384615
mp-767244,LiCoP2O7,1.1067999999999991,-2.3761343931764074,0.0341406595454554
mp-699401,CsScAsO4F,2.270399999999999,-2.3760823167112504,0.373639661249995
mp-764891,Li5Fe8(BO3)8,1.477399999999999,-2.376065609629629,0.0420330238194477
mp-764554,Li5Fe8(BO3)8,1.3078,-2.3760286627407408,0.0420699707083356
mp-764279,Li3MnV3O8,0.8407000000000001,-2.3759218687306665,0.0953393593332974
mp-762880,LiCoSiO4,1.4218,-2.375853789642857,0.0599532438571293
mp-764798,Li5Fe8(BO3)8,1.4374,-2.375783267851852,0.0423153655972248
mp-566482,V6O13,0.0,-2.375739116381578,0.0493792989473487
mp-3682,KCuF3,0.009199999999999,-2.3757047527140003,0.0052532019999977
mp-775649,Fe2Sn(PO4)3,0.0594,-2.3756799085714286,0.0749510866666778
mp-770952,Li4Co3Ni(PO4)4,2.5693,-2.3756260722278912,0.0232764087946453
mp-769696,Li2FeBO4,2.5776,-2.3755669064583333,0.0382168521874941
mp-625392,Lu(HO)3,4.9552000000000005,-2.3755227303014292,0.0008931146428565
mp-1020609,Zn2SiO4,2.542799999999999,-2.3753363364285707,0.0827128240476158
mp-764657,Li5Fe8(BO3)8,1.5074,-2.3753198194074066,0.0427788140416698
mp-778251,Li4TiCo2Ni3(PO4)6,2.3268,-2.3753188861309527,0.0847885054062649
mp-769539,Li7VGeO8,3.5013,-2.3753042861764704,0.0304445600000153
mp-769769,Li2AlCoO4,1.6394,-2.375260895625,0.0675220034375074
mp-764181,Li2Co3OF6,1.6904000000000001,-2.3752572446574995,0.1015691314583344
mp-767294,Li6VCoP2(CO7)2,0.8690000000000001,-2.375239123795787,0.0595919989933975
mp-764626,Li5Fe8(BO3)8,1.3611,-2.3752291134074084,0.0428695200416688
mp-705332,LiCoP2O7,0.8663000000000001,-2.375225446358226,0.0350496063636365
mp-556031,Sn2P2O7,3.6278,-2.3752213054491342,0.0115871045454509
mp-4035,RbReO4,4.1189,-2.3750989566666667,0.0
mp-762248,LiSb3(P3O10)2,2.8455,-2.375001968785713,0.0966565563333246
mp-772233,Li4VGa3O8,1.6165999999999991,-2.374970035625,0.0393330231250024
mp-771496,Li2V3WO8,1.5147,-2.374903492142857,0.0491075567857759
mp-680154,Rb2Ti(GeO3)3,2.7546,-2.374887622083333,0.0848212812222177
mp-765705,NaV5O8,0.0,-2.3748525867857135,0.1018687637500122
mp-541846,P4O9,5.5643,-2.374795550086996,0.0074881699432216
mp-780490,LiCr(PO4)2,1.1546,-2.374787943640873,0.0860310059375093
mp-773362,Li2V6O15,0.06960000000000001,-2.374714684293477,0.0433280871739203
mp-764541,Li5Fe8(BO3)8,1.358399999999999,-2.3745584487407405,0.0435401847083358
mp-771801,Na2FeBPO7,0.4738,-2.374352581542658,0.0513309559746897
mp-763240,LiCoSiO4,1.2652,-2.374280464285715,0.0615265692142719
mp-767888,Li3FePCO7,3.5789,-2.3742513372573253,0.0429851311538458
mp-755260,Cd4B6O13,2.4314,-2.374225025054348,0.0264043948188392
mp-4998,Sr2IrO4,0.0,-2.374183984285714,0.0
mp-556463,KGe2BO6,3.498,-2.374181897416667,0.0030020293821451
mp-775280,Li5Fe8(BO3)8,1.4565000000000001,-2.37416842562963,0.0439302078194474
mp-754249,Li3ZrNb(TeO6)2,1.875899999999999,-2.3741561434210525,0.0196443764473688
mp-775524,Li2V3FeO8,1.246399999999999,-2.3741007007142865,0.0312282946577013
mp-761818,LiCoPO4,2.9618,-2.374055881513605,0.0602959241071445
mp-19602,Ba2CoO4,1.0982,-2.3739739110714284,0.0056373203571435
mp-546350,TmBi2BrO4,1.3546,-2.373969180625,0.0
mp-775996,TiFe3Cu2(PO4)6,0.0,-2.373950360145503,0.0455497828472495
mp-39995,SrNbFeO6,0.0,-2.3738665897222218,0.1764600882638936
mp-764507,Li5Fe8(BO3)8,1.4030999999999991,-2.3737908185185193,0.0443078149305584
mp-773901,KZnP2O7,0.0,-2.373776791130953,0.0865407211363615
mp-694547,MnPO4,0.0,-2.373766561509206,0.0840621212500103
mp-770541,Mn2PO5,0.8653999999999991,-2.3737172239081543,0.0589498668750074
mp-764576,Li5Fe8(BO3)8,1.390499999999999,-2.3737098005185184,0.0443888329305588
mp-972160,YbMgO3,0.0,-2.3735152707500005,0.3120830797499998
mp-4236,BaZnO2,2.270499999999999,-2.373504753541667,0.0
mp-601348,LuP2H4NO7,4.9841,-2.3733789027866985,0.0
mp-705632,Ti3Fe7O15,1.1238,-2.3733714473499994,0.0701470212307686
mp-764665,Li5Fe8(BO3)8,1.5546,-2.3733097509629637,0.044788882486114
mp-3439,SbPO4,3.9963,-2.3731805946825397,0.0
mp-776198,V5CrO12,1.1851,-2.3731726341666675,0.0690616001736206
mp-764493,Li5Fe8(BO3)8,1.2956,-2.3731550187407406,0.0449436147083357
mp-764904,LiFe2(BO3)2,0.0,-2.3730981655303025,0.0429851710795707
mp-776878,NbFe3Cu2(PO4)6,0.0,-2.3730737594047633,0.0528326879629386
mp-764614,Li5Fe8(BO3)8,1.22,-2.3730040282962963,0.0450946051527809
mp-672950,Sb(PO3)4,0.026699999999999002,-2.3729965310224097,0.0545715846323391
mp-775037,Li3V4SnO12,1.3980000000000001,-2.3728701115000006,0.0691910462500002
mp-763250,Co(PO3)3,1.1421000000000001,-2.3728610473489007,0.013404795384603
mp-696490,Ca2H2S2O7,5.0825,-2.3727107708934603,0.0731518857692323
mp-19339,LaNiO3,0.0,-2.3726420547500005,0.0
mp-697792,LiMn2(PO4)3,0.5692,-2.3726317272892063,0.0308695778472198
mp-771599,Li3FePCO7,4.0108,-2.3726235649496337,0.0446129034615374
mp-545847,LuBi2BrO4,1.3984,-2.3726149493750004,0.0
mp-760804,Li2AgF4,0.0,-2.372504974251428,0.0686688021428585
mp-763592,LiCoSiO4,1.4676,-2.372479823571429,0.0633272099285573
mp-762689,Li4Ti2Fe5O12,1.5030000000000001,-2.372351372753624,0.0409009891304297
mp-861251,Li9Mn5(SiO8)2,1.1536,-2.372308657962499,0.0695830568749933
mp-764824,Li5Fe8(BO3)8,1.3735,-2.37228927274074,0.0458093607083363
mp-763255,LiCoSiO4,1.3725,-2.372157247142858,0.0636497863571294
mp-764025,MnOF,0.15989999999999902,-2.3721503769666668,0.026799789583328
mp-780642,Li2Co2OF6,1.017,-2.3721319053081817,0.094364726704546
mp-769564,NaVPCO7,1.5078,-2.3720918667586584,0.0392498965908973
mp-764528,Li5Fe8(BO3)8,1.471,-2.3720383025185185,0.0460603309305582
mp-775229,Li3MnV4O12,0.0,-2.372005049798001,0.0632246354999894
mp-774994,Li5Fe8(BO3)8,1.6197000000000001,-2.371994980296296,0.0461036531527812
mp-771807,Li2Mn3NbO8,0.7198000000000001,-2.371994409134286,0.0151032770759105
mp-764531,Li5Fe8(BO3)8,1.4737,-2.3719743296296296,0.0461243038194476
mp-585308,Li3Co2(PO4)3,1.1008,-2.371949013214285,0.0215044684791649
mp-757781,LiSi2(BiO3)3,3.0679,-2.371947196583334,0.0529317405833289
mp-22457,K3Na(SO4)2,5.2921,-2.3719166195089283,0.0003303140178561
mp-622640,V3O7,0.996,-2.3718781783749994,0.0
mp-764880,Li5Fe8(BO3)8,1.6572,-2.3718714996296293,0.0462271338194479
mp-6783,NaLiSO4,5.5381,-2.3718529417708343,0.0002421998809492
mp-766846,Li2CoSn(PO4)2,1.6075,-2.371847764727891,0.0883944728869021
mp-677242,K2SO4,4.9029,-2.3718337548660715,0.0168042875000002
mp-23002,TiBrO,0.0,-2.3718031443055563,0.0178882133333351
mp-859100,Li2CuF5,0.5961000000000001,-2.3717984785562503,0.0971647958333488
mp-764464,Li5Fe8(BO3)8,1.4949000000000001,-2.371791730518519,0.0463069029305582
mp-767856,Li5V12O32,0.0,-2.371763564285715,0.0140179366326904
mp-764552,LiFe2(BO3)2,1.745,-2.3717597673484847,0.0443235692613885
mp-15269,Sr3CdIrO6,0.0,-2.3716223865909103,0.0
mp-764310,KLi2MnPCO7,3.0119,-2.371615066561941,0.0832188492307892
mp-764542,Li5Fe8(BO3)8,1.287499999999999,-2.3716081834074068,0.04649045004167
mp-767954,Li2FeSiO5,0.0,-2.371573216805555,0.0834032302083294
mp-770562,Li6AlCrO6,2.9988,-2.371502458035714,0.1049096812499987
mp-697742,MnP2O7,1.069,-2.371489362590048,0.0262267299999985
mp-778331,Li5Fe8(BO3)8,1.5812,-2.37142340651852,0.0466752269305574
mp-1016852,BaMnO3,0.0,-2.3714062849419992,0.1096514256666614
mp-775199,LiMnVO4,2.1401,-2.3713944740657147,0.0137925732142818
mp-762245,LiFe2(BO3)2,1.9749,-2.3713338523484846,0.0447494842613886
mp-775621,MnOF,0.0,-2.3712484528,0.0277017137499946
mp-26342,SbP2O7,0.0,-2.3712374004940484,0.0350901538750125
mp-764210,Li7VO5F,1.7161,-2.3711729973171427,0.044732877678574
mp-699219,NaZnSiHO4,3.4269,-2.3711669851400003,0.0
mp-27018,SnPO4,2.4403,-2.371164981349206,0.0555249347916522
mp-768960,Li5BO4,5.3981,-2.3711530931666664,0.0469005302500002
mp-684052,LiSn6P7O24,2.5803000000000003,-2.3710981457017546,0.0595036101535049
mp-765446,LiCoPO4,2.9922,-2.3710343654421777,0.0633174401785723
mp-772695,Na3Fe(BO3)2,2.2908,-2.37101364861111,0.026702106874997
mp-764947,RbV4O10,0.0,-2.3709979535000003,0.0312084450000114
mp-541538,K2CdSiO4,2.6403,-2.3709222478125,0.0
mp-706229,Ba2La2Fe2Cu2O11,0.0,-2.3709110001973683,0.0899085931578964
mp-937761,Li7ZrO6,0.0,-2.3708352326785715,0.0726409296428567
mp-771906,Li2AlCoO4,1.5688,-2.370754471875,0.0720284271875071
mp-771535,TiV4CoO12,0.676099999999999,-2.370648525648148,0.1213720676388838
mp-773735,NaLi5Fe2P2(CO7)2,4.0232,-2.3705262645650182,0.0318700990384615
mp-765935,Li2Co4OF8,2.748999999999999,-2.3704161180513332,0.0889866336666669
mp-3848,BaGe4O9,3.0551,-2.3704139605654766,0.0
mp-764720,LiFe2(BO3)2,1.8001999999999991,-2.370305081439393,0.0457782551704797
mp-773436,NaLi5Fe2P2(CO7)2,4.0042,-2.37027243610348,0.0321239274999998
mp-32352,LiNi(PO3)4,0.9354,-2.3701402059656087,0.037919067905106
mp-776889,LiMn2(PO4)3,0.6452999999999991,-2.3701319281225404,0.0333693770138863
mp-5431,BaTeO3,2.7125,-2.370074308750001,0.0
mp-543100,LiCoSiO4,1.3978,-2.3700158289285715,0.0657912045714148
mp-24361,CaP2(HO2)4,5.649699999999999,-2.3699369027113653,0.0063180511666667
mp-769764,MnPO4,0.1517,-2.3698970801203183,0.0879316026388981
mp-772602,NaLi5Fe2P2(CO7)2,4.0463,-2.369859044949634,0.032537318653846
mp-778152,Sc2Pt2O7,1.8009000000000002,-2.3698101007954544,0.0
mp-767302,Li2SiNiO4,3.461,-2.369801530625,0.0253874074999993
mp-773409,NaLi5Fe2P2(CO7)2,4.0342,-2.369704779565019,0.0326915840384609
mp-764643,Li5Fe8(BO3)8,1.5151000000000001,-2.3697039254074075,0.0483947080416697
mp-770610,Li2AlCoO4,1.6853999999999991,-2.3696995596875,0.0730833393750076
mp-763589,LiCoSiO4,1.1943,-2.3696482860714294,0.0661587474285578
mp-768120,Na2GaPCO7,3.7817,-2.3696139374454366,0.0
mp-758101,Li4Cu3F10,0.0,-2.3696120530529408,0.0881328985294107
mp-566924,K2BiMoPO8,3.5602,-2.3695312519688647,0.0
mp-853248,LiVCrO4,1.252199999999999,-2.3694321050000005,0.0848577610118948
mp-762886,LiCoSiO4,1.374099999999999,-2.3693987632142863,0.0664082702857014
mp-775269,LiFe2(BO3)2,0.0,-2.3693621898484847,0.0467211467613886
mp-753384,Nb4Tl4O13,0.0,-2.369354576011905,0.0401338789881116
mp-704504,YbMn2O5,0.0,-2.3693355363337494,0.0048272612499999
mp-25675,Co3B7IO13,2.2508999999999992,-2.36924759720486,0.0229171901249998
mp-505062,SmCu(WO4)2,1.4017,-2.369211626875,0.0315860509375003
mp-766276,Ba2In2O5,0.4077,-2.3691961540277777,0.0740829438888912
mp-763256,LiCoSiO4,1.5904,-2.3691949171428583,0.0666121163571284
mp-763584,LiCoSiO4,1.3102,-2.369173476785716,0.0666335567142715
mp-764656,LiFe2(BO3)2,1.7136,-2.3689759484848483,0.047107388125025
mp-776424,Na2LiCuP2O7,1.170699999999999,-2.368944902687729,0.0859917829615231
mp-721463,K2P2H2O7,4.7606,-2.3689210967061904,0.0531976721153979
mp-510565,Cs2AgF4,0.1767,-2.3688224242514293,0.0
mp-770110,Li4Nb3Fe5O16,1.101699999999999,-2.3686669285714292,0.0729161901785424
mp-773887,TiBi2O5,2.5742000000000003,-2.368599758802084,0.0168174390624997
mp-566769,K2BiPWO8,4.0502,-2.368508446776556,0.001083388974358
mp-775322,Li5Fe8(BO3)8,1.4954,-2.368498672074073,0.0495999613750033
mp-546621,ErBi2BrO4,1.3505,-2.3684725650000003,0.0
mp-767318,Li6MnCoP2(CO7)2,2.0074,-2.3683777157557877,0.0522222011538433
mp-761709,LiCoPO4,2.8138,-2.368255769489796,0.066096036130955
mp-31005,Zn3(PO4)2,3.5343,-2.368250841630036,0.018282991538463
mp-1020662,Rb4B2S4O17,5.153700000000001,-2.3682456516049393,0.0
mp-773672,MnFe(PO4)2,0.0,-2.368101301151429,0.0747238931944629
mp-540635,BaSn(GeO3)3,2.7734,-2.368020359017857,0.0
mp-767347,Li3FePCO7,4.2418,-2.3680176930265566,0.0492187753846149
mp-771683,Li2TiMn3O8,0.0,-2.367989308539048,0.0499778690240821
mp-764678,LiFe2(BO3)2,1.8209,-2.367972158939393,0.0481111776704805
mp-704210,Mo(PO4)2,1.741199999999999,-2.3679579819264083,0.010016498409092
mp-768103,NaVPCO7,1.9201000000000001,-2.3678726794859304,0.0434690838636253
mp-556049,Sr4Br6O,4.2196,-2.367711281022728,0.0
mp-689981,MnPO4,0.0,-2.3677006285925395,0.0901280541666746
mp-540152,MnP2O7,1.0364,-2.367638460840048,0.0300776317499993
mp-685926,Nd10US16,0.0,-2.3675105100000007,0.0395776900000015
mp-777660,Li3Fe9O5F11,1.6456,-2.367510416226428,0.0836714983928548
mp-770899,Li2V3O8,1.990999999999999,-2.3674888757692303,0.0860651211538447
mp-772480,Na3MnSiCO7,1.1273,-2.367395830554615,0.0
mp-779933,Fe3(OF2)2,1.2227000000000001,-2.367382950806667,0.0656842988888861
mp-773628,NaV2O4,0.0,-2.367284528571429,0.0787335649642928
mp-540222,MnP2O7,1.0426,-2.367275096840048,0.0304409957499993
mp-23357,Sr2Bi2O5,2.2554,-2.3672611093055544,0.0
mp-777230,P8W3O29,1.9217,-2.3671740650252984,0.0613208143750272
mp-759767,LiCu(PO3)3,0.640099999999999,-2.367160321288265,0.0494569583928461
mp-769713,Na4B4Sb2SO16,1.8820000000000001,-2.367058560582562,0.0582035371296241
mp-758797,LiCu(PO3)3,0.173899999999999,-2.3670112389668367,0.0496060407142744
mp-771139,Cs4HfO4,2.7399,-2.3669974983333333,0.0
mp-773501,Li3MnV2O6,0.3508,-2.366916359871667,0.0487673956250107
mp-1002569,MgMnO2,0.7773000000000001,-2.3669157846149997,0.1659263662499954
mp-764570,LiFe2(BO3)2,1.6739,-2.366908779848485,0.0491745567613888
mp-22399,Yb2S2O,0.698399999999999,-2.366884369375,0.2384501907777778
mp-771385,Na3MnPCO7,3.2776,-2.3668537819465567,0.0164308299999991
mp-13369,Ba3CaIr2O9,0.0,-2.3668338474166672,0.0209795436666659
mp-760251,Na2CuP2O7,0.522799999999999,-2.36680050999504,0.0331464595833361
mp-769424,Li5Fe6(BO3)6,0.0,-2.366791263500001,0.0481717901428542
mp-760510,Sr2Bi2O5,2.2664,-2.3666434629166653,0.0006176463888891
mp-770550,Li2AlCoO4,1.6962000000000002,-2.3665731925,0.0762097065625075
mp-761970,LiCoPO4,2.808599999999999,-2.36652078454932,0.0678310210714308
mp-767755,Li3FePCO7,4.2981,-2.366353558795787,0.0508829096153835
mp-761643,Li6Ni3P6WO24,2.189899999999999,-2.366332533964286,0.0815035447499967
mp-31352,Er2(SeO3)3,3.9484999999999992,-2.366286614073662,0.0
mp-27686,Cd2P2O7,2.7107,-2.3662818618127712,0.0
mp-996948,CaCr2O4,1.1068,-2.366237537321429,0.3236737937500074
mp-558382,Li2SO4,5.9904,-2.3662303127232143,0.0548863635714251
mp-676129,NaSm2Cl6,0.0,-2.3662003692103704,0.1006417789550262
mp-768770,Mg(ReO4)2,3.8744,-2.3660655975757585,0.0430611951515178
mp-546625,HoBi2BrO4,1.366499999999999,-2.3659796975,0.0
mp-775029,VSb3(PO4)4,1.8837000000000002,-2.36597531280754,0.0905646318750026
mp-772706,NaLi2FePCO7,3.951,-2.3659615084111723,0.0215947503846143
mp-1004038,CaMn2O4,1.5091,-2.3658627056314288,0.0867172353571312
mp-770663,Li2FeBO4,2.3322,-2.3658499820833336,0.0479337765624938
mp-19317,Yb(FeO2)2,1.1017,-2.365845560714285,0.0239185450000158
mp-764624,LiFe2(BO3)2,1.7922,-2.3656275055303033,0.0504558310795699
mp-761809,RbHoHS2O9,0.2238,-2.365618002713929,0.0806103174553598
mp-6226,NaSn4(PO4)3,3.7411,-2.3655811874642856,0.0
mp-759821,Sb3O2F5,3.4665,-2.365565557845,0.0566760089999993
mp-767878,Li3FePCO7,4.2364,-2.3655580939880947,0.0516783744230764
mp-764465,LiFe2(BO3)2,1.606899999999999,-2.365535704621212,0.0505476319886613
mp-772438,LiCoPO4,2.8127,-2.3652384070493206,0.0691133985714298
mp-504791,P(WO4)2,1.1591,-2.365175104372294,0.0001502661363854
mp-774022,CrSn3(PO4)6,0.4738,-2.3651617436344536,0.0659891499632205
mp-771672,Li3VCr3O8,1.2581,-2.3651494833333326,0.0633088466875007
mp-761828,LiCoPO4,2.761199999999999,-2.365141954727892,0.0692098508928591
mp-565849,TbCu(WO4)2,1.209499999999999,-2.3651160494444445,0.0511117889583339
mp-766964,Li2Fe2SiO6,2.4928,-2.3651114206818185,0.0721795650000016
mp-1031367,KLiMg6O7,0.0,-2.3651106112500004,0.4218191971666654
mp-765533,NaV3O6,0.8350000000000001,-2.36510700625,0.1022296416250299
mp-755346,Li5BO4,5.184900000000001,-2.3650708281666666,0.0529827952500001
mp-753287,CaCdO2,0.3799,-2.365049659375,0.0
mp-769014,Ho2(SeO3)3,3.9351000000000003,-2.364901108002233,0.0
mp-764447,LiFe2(BO3)2,1.7324,-2.3649003703030296,0.0511829663068432
mp-767885,Li3FePCO7,4.2013,-2.3648793130265564,0.0523571553846142
mp-776140,Li2MnV5O12,0.0,-2.364875466797999,0.0985580838958153
mp-775754,Li4Nb3V2Co3O16,0.449399999999999,-2.3647978432142858,0.1204463533928699
mp-764829,Fe4O3F5,1.344999999999999,-2.364785452891668,0.0301859708333251
mp-561226,BTe3(OF5)3,3.7899,-2.364560052193939,0.0
mp-767860,Li2SiNiO4,2.9164,-2.364460095625,0.0307288424999994
mp-767780,KV4O10,0.0,-2.3643467124999997,0.0373171852222231
mp-771668,TiV4FeO12,0.7023,-2.364345903981482,0.1881808906944488
mp-771410,Li2MnBO4,0.6277,-2.3643296428283325,0.0925335739843511
mp-767875,Li3FePCO7,4.2436,-2.3643078343727097,0.0529286340384613
mp-763238,Li2Cr2P4H3O16,0.0,-2.364288492157072,0.0549117119675912
mp-859785,Li3Ni2OF5,0.411199999999999,-2.3642704211090906,0.1192900577272704
mp-764512,Li5Fe8(BO3)8,1.4401,-2.364234611851852,0.0538640215972243
mp-17685,Li3GaGeO5,3.2656,-2.364075697625,0.0
mp-698690,NaCaGaSi2O7,3.121099999999999,-2.364056058229167,0.6692358052777738
mp-765612,Ba8Bi4O17,1.0307,-2.3638718183189646,0.0079841856321856
mp-780095,LiMnP3(HO5)2,3.7991,-2.363869174852101,0.0784697161764746
mp-853266,Li3Fe9O5F11,1.1821,-2.363844427297857,0.0873374873214301
mp-778628,Li2Mn3P4(HO4)4,3.6289000000000002,-2.363794116542792,0.0280119436781687
mp-20953,CeScS3,0.0,-2.363783055937501,0.003056066
mp-560874,BaPb2C2(O3F)2,4.0572,-2.3636750326830773,0.0040808765384605
mp-770133,Li5Fe2P2(CO7)2,1.4253,-2.363663697947619,0.0270492163999982
mp-9765,Nd2Pt2O7,1.0872,-2.3636320857954547,0.0
mp-761815,LiCoPO4,2.560899999999999,-2.3635763645493197,0.0707754410714303
mp-769973,Li3CrBO5,1.9829,-2.3635704817916667,0.1025237093055482
mp-767949,Li3Fe4(PO4)6,0.0,-2.3635402832046344,0.0761048408952635
mp-744577,FeP2HO7,2.4135,-2.3635255675964064,0.0090754127272703
mp-19097,FeBO3,1.698899999999999,-2.3634865620833323,0.0
mp-504997,NdCu(WO4)2,1.5763,-2.363472126458332,0.0334520331250018
mp-766115,LiCrO2,2.9621,-2.3634670106250004,0.0363027200000001
mp-771624,Li2VCr2O6,1.8001999999999991,-2.363377467499999,0.0755130804829367
mp-761732,LiCoPO4,2.7269,-2.3632636629421766,0.0710881426785707
mp-770507,Li4Ti3Mn3(NiO8)2,1.1058,-2.3632252343885702,0.0620158709821385
mp-780931,LiMn2P2HO9,0.6134000000000001,-2.363170376198698,0.0290381092083311
mp-764589,LiFe2(BO3)2,1.7538999999999991,-2.3631151484848485,0.0529681881250248
mp-764489,LiFe2(BO3)2,1.56,-2.3630767855303016,0.0530065510795712
mp-764573,LiFe2(BO3)2,1.6712,-2.3630752223484843,0.0530081142613889
mp-755789,Na2Be2O3,3.0523,-2.36306655125,0.0958684671428624
mp-764983,Li3VCr3O8,1.5066,-2.363063386,0.0653949440208334
mp-1012835,SmCu(WO4)2,1.4499,-2.362974803125,0.0378228746874995
mp-676130,TlSnF3,2.8207,-2.3629358094640005,0.0
mp-552992,DyBi2BrO4,1.329,-2.3628546814583338,0.0
mp-9497,Pr2C(NO)2,3.716999999999999,-2.3627618278228573,0.0
mp-767801,LiTiCrSO8,0.9273,-2.3627329670052086,0.0804780321440965
mp-777255,LiFeBO3,2.6311,-2.3627027722916667,0.0486831152777753
mp-35714,La5TlS8,1.395399999999999,-2.3626036519642857,0.0112486262499995
mp-559182,P2IrClF6,0.8571000000000001,-2.362567546784048,0.0
mp-764482,LiFe2(BO3)2,1.5637,-2.3625481950757568,0.053535141534116
mp-850253,LiFe2(BO3)2,1.8867,-2.3625414555303017,0.0535418810795711
mp-764693,LiFe2(BO3)2,1.6688,-2.3625212666666657,0.0535620699432071
mp-761286,Li2FeBO4,2.3149,-2.362478443333334,0.0513053153124936
mp-771987,Li3MnV4O12,1.1592,-2.3624346697979997,0.0727950154999899
mp-540338,MnP2O7,1.3431,-2.3624119778400483,0.0353041147499988
mp-776804,Li4NiSn3(PO4)4,2.1561999999999992,-2.3623454313350343,0.0949060338690408
mp-764547,LiFe2(BO3)2,1.6316,-2.362301148939394,0.0537821876704791
mp-776880,Li2Fe2Ni(PO4)3,1.4032,-2.362276812714286,0.063656487000018
mp-775465,MnSb3(PO4)6,0.0,-2.362221881897984,0.0151272291176365
mp-565377,KTbCr2O8,2.7192,-2.3622022646527783,0.0
mp-764329,Ti3Fe3(SbO8)2,0.0,-2.3621420258333337,0.1168210268489584
mp-861571,LiMnVO4,1.643799999999999,-2.362064369422858,0.02312267785714
mp-761652,Mn3Co(PO4)4,0.49889999999999907,-2.362009950219207,0.0170733392708362
mp-849360,LiV2CrO6,1.1219,-2.362003826083334,0.1012813503749843
mp-604459,Li2B4H4O9,5.117199999999999,-2.3619727978235088,0.0098374988377196
mp-775238,LiFe2(BO3)2,1.474999999999999,-2.3619410891666663,0.0541422474432069