mpid,formula,BG,FE,e_hull
mp-772373,TiP6(WO8)3,0.0,-2.6234436204481786,0.0244358601470722
mp-4886,NdCuO2,2.405099999999999,-2.6230289174999992,0.0
mp-9006,Ho2CF2,1.1355,-2.622959027976,0.0
mp-772467,Li4Mn3Nb5O16,0.0,-2.6229020768885727,0.0907631820982093
mp-764000,Li3CoOF3,2.157599999999999,-2.6228919199775,0.095286503125
mp-764730,Li3VO3F,1.9893999999999992,-2.6228898087425008,0.0513092296874999
mp-764710,Li3VO3F,1.994099999999999,-2.6227108424925007,0.0514881959374999
mp-863427,Li3Si2BiO7,3.2388,-2.6226859637500004,0.0924598022115379
mp-762973,Li4V(PO3)6,2.895499999999999,-2.6226579600369453,0.0760616062717449
mp-766665,Li6V(SiO4)2,1.7099,-2.622652587647058,0.0795218689819066
mp-763728,Li3Mn2P2O8F3,0.0,-2.6226350470378046,0.0791242749999732
mp-643898,CaP2H2O7,5.6995000000000005,-2.622610318931707,0.0
mp-24909,CaCrO3,0.615699999999999,-2.6222820937499995,0.0551405105000055
mp-764551,Li4Fe3(OF3)2,3.2956,-2.622281292642666,0.0669230813333303
mp-3782,Nd3Sb5O12,3.1547,-2.622257120875,0.0
mp-549490,KNb4O5F,0.0,-2.622142432949091,0.0
mp-772242,LiVPO5,3.142,-2.622070852418154,0.0576975537500112
mp-765697,Li2TiFeO4,0.9123999999999991,-2.6218521008333333,0.042172383125
mp-763521,LiVPO5,1.626399999999999,-2.6218059074181546,0.0579624987500109
mp-761291,Li3FeB4O9,3.0827,-2.6217181489950985,0.0279065156617415
mp-771141,Dy2Cu2O5,0.07209999999999901,-2.6216063363425928,0.0404532613888779
mp-28185,TaClF8,3.3874,-2.621590965028,0.0
mp-764346,Li2FeSiO4,2.9932,-2.621534185,0.0050365140624997
mp-772244,Li2TiFeO4,0.830299999999999,-2.621472145208333,0.0425523387500002
mp-756392,LiCuSi2O5,1.942599999999999,-2.621397988472222,0.097126335555556
mp-5029,Ho2Cu2O5,0.326,-2.621271454305556,0.0535804299999975
mp-763629,Li2FeSiO4,3.0269,-2.621204989375,0.005365709687501
mp-763645,Li2FeSiO4,3.0894,-2.621183748749999,0.0053869503125012
mp-556891,KFeF3,2.907,-2.6210927417139995,0.2026356359999974
mp-19299,CrBO3,2.3026,-2.620946096083331,0.0
mp-1034150,KRbMg14O15,2.014,-2.6209416951209668,0.2652542966532261
mp-776009,Ti3CoCu2(PO4)6,0.0,-2.6209391096825385,0.0567134161111093
mp-761298,LiVPO4,2.571799999999999,-2.6208369997278917,0.0300266957359296
mp-764822,Li2VO2F,0.9658999999999991,-2.620823640614999,0.0987152924999978
mp-757666,CaB5H3O10,5.1418,-2.620693421404912,0.0128592429784699
mp-16871,K2ZrGe2O7,3.9038,-2.6206379119791663,0.0
mp-762678,LiFeSiO4,2.6843,-2.620541885714286,0.0014752678571356
mp-765361,LiV2O3F,1.5082,-2.6204754260628564,0.0959216191071394
mp-851009,Li5Fe7O3F13,2.401399999999999,-2.62045452443643,0.0466559023214268
mp-763198,Li2VO2F,1.1979,-2.620416768531666,0.0991221645833304
mp-778261,Li4TiMn3Cr2(PO4)6,1.1456,-2.620362839202953,0.0825873716339558
mp-769453,Li4Ti4V(Fe2O9)2,1.619199999999999,-2.6203312951344087,0.0835549584838926
mp-775020,Mn2OF3,0.0,-2.6202708811233326,0.0728698743750051
mp-780415,NaEuO2,0.0,-2.620255885625,0.0
mp-556014,Li3Ga(BO3)2,4.1585,-2.6202124046527784,0.0100784099999957
mp-779184,Li3MnV(PO4)3,0.43110000000000004,-2.620166428512285,0.0650017330624654
mp-781692,Mn2OF3,0.0,-2.619940844456666,0.0731999110416712
mp-777144,Ti3Cu2Te(PO4)6,0.543299999999999,-2.6198371357936505,0.0439954578819454
mp-767707,Li2Fe5Si5O16,2.117,-2.6198220692857137,0.048076471339284
mp-861565,Mn7(OF3)3,0.5702,-2.6197518266410533,0.0935063336842016
mp-763209,Li2VO2F,1.0057,-2.6195193756149995,0.1000195574999969
mp-781504,Li2CrP2O7,2.5196,-2.61948889062004,0.0546956189583056
mp-769658,Li2TiFeO4,0.8561000000000001,-2.619382475208333,0.0446420087500003
mp-776639,Li4Ti3Cr3(FeO8)2,0.7337,-2.619327219285713,0.0341190898611092
mp-763182,Li2VO2F,1.1566,-2.6189369972816654,0.1006019358333292
mp-764872,Li5Fe7O3F13,2.8756,-2.618827653365001,0.048282773392855
mp-779056,Li2FeP2O7,3.9628,-2.6187415520783723,0.0077376886111162
mp-767688,NaNdPCO7,0.185899999999999,-2.618734415167749,0.0867968784659067
mp-25128,SrV6O11,0.0,-2.6186645993749993,0.0341525511110951
mp-777493,Li3Fe4(OF3)3,1.9361000000000002,-2.618611691550526,0.0674376904385942
mp-778890,Li3MnV(PO4)3,0.2989,-2.618501263012285,0.0666668985624658
mp-1034098,KRbMg14O15,2.122899999999999,-2.618433851895161,0.2677621398790331
mp-998762,MnTlF3,2.6287000000000003,-2.618294646906,0.0
mp-762953,LiFe2OF5,1.9765000000000001,-2.6182743058,0.0937848795679032
mp-781626,Li2NbO3,0.0,-2.618268283958334,0.1005232958333275
mp-18891,BaV6O11,0.0,-2.6181464140972235,0.0357642614236208
mp-30889,Ho2Ru2O7,0.0,-2.618078890340909,0.0253134215909085
mp-762557,Li2FeSiO4,2.9464,-2.618045745,0.0085249540624996
mp-767091,LiNbSn3(PO4)6,2.7647,-2.618001715530613,0.009142983857143
mp-31817,Li2Fe(PO3)4,3.9524,-2.617980105125313,0.014442977807028
mp-626037,Si2H2O5,5.4403000000000015,-2.617975975943332,0.0354437936111118
mp-763354,LiVPO5,2.956699999999999,-2.617832047730655,0.0619363584375109
mp-763475,Li2V3(P2O7)2,2.52,-2.6177890880383017,0.0505274064645462
mp-24877,SmCoO3,0.0,-2.61770816475,0.0
mp-765411,Li3CrSiO5,3.351199999999999,-2.617545971125,0.0802994414999958
mp-18771,Sr2CoWO6,1.6379000000000001,-2.61748481975,0.0087130519999982
mp-30902,Er2Ru2O7,0.0,-2.6174444598863644,0.0357490912500004
mp-764005,Li4TiV3O8,0.5875,-2.6174213629166667,0.0148569498437556
mp-1873,ZnF2,3.48,-2.61737431246,0.0
mp-540423,LiCr(PO3)4,3.4423,-2.6172563040211663,0.0393701043518444
mp-763396,Li4Co2Si3O10,2.8755,-2.617249777763158,0.0377868876315865
mp-763872,LiMnOF2,1.0971,-2.617207630418,0.09451454875001
mp-764354,LiMnF5,1.652,-2.6167402242014286,0.0927692858631017
mp-760255,Li3CuF6,0.7167,-2.616720901047334,0.0
mp-27349,BSF7,4.9968,-2.6166952307287965,0.0
mp-765019,LiV(PO3)4,2.2558,-2.6166906348544967,0.0710384687500091
mp-704123,CrF4,1.5634000000000001,-2.616622643952,0.0
mp-763898,NaVPO5,1.6149,-2.6164881421056547,0.0302192846874849
mp-17392,Sr2ZnGe2O7,3.113699999999999,-2.6164723744791667,0.0
mp-770544,LiAlCrO3,1.9811,-2.6163954281249997,0.1028422198611149
mp-849231,Fe6OF11,0.7996000000000001,-2.6163753227411117,0.0452668827777769
mp-763099,Li2VO2F,1.172999999999999,-2.6163094564483327,0.1032294766666641
mp-540438,LiMn(PO3)3,3.984099999999999,-2.6162292401068368,0.0371096921428524
mp-753063,Li3CuF6,0.668999999999999,-2.616214795214,0.0005061058333346
mp-556809,Sr11(OsO6)4,0.0,-2.6162128008974355,0.0
mp-767001,WOF3,2.3593,-2.6161963094639997,0.0
mp-763598,LiV(PO3)4,2.2487,-2.615841955410053,0.0718871481944525
mp-762542,Li4Ti3Cr3(SbO8)2,0.0,-2.6157706639285716,0.0508587841294714
mp-780822,Fe6OF11,0.8029000000000001,-2.615728472741111,0.0459137327777892
mp-989551,LiTl2InF6,4.0172,-2.6156629927140003,0.0
mp-7611,Li2CaGeO4,4.1135,-2.6156548962500006,0.0
mp-771228,Li4TiCrO6,1.2269,-2.6156089113888883,0.0125303189583503
mp-30157,Dy3S2Cl5,3.2556,-2.6155786149425007,0.0195339610000049
mp-766924,LiMnOF2,1.111,-2.6154795924179988,0.0962425867500105
mp-540310,Li2Mo(PO3)5,4.4309,-2.6154364430098345,0.0250229681884048
mp-762566,Li2FeSiO4,2.9645,-2.615435983125,0.0111347159375005
mp-558444,Mn(PO3)2,3.8754,-2.6154023332944973,0.0
mp-763345,Li2VO2F,1.1166,-2.6153320518649994,0.104206881249997
mp-778279,NaLiMnP2O7,3.8104,-2.615273252158373,0.0405946289409717
mp-673088,Nb(PO3)4,0.2333,-2.615264455434174,0.032938288481791
mp-772588,Li2V5B3O13,1.940099999999999,-2.615246080054348,0.0354294120652056
mp-755856,Mg2SnO4,2.640899999999999,-2.6151735742857136,0.0702321950000008
mp-759234,Li3CuF6,0.929999999999999,-2.615102372464,0.0016185285833349
mp-39239,SrLaMnRuO6,0.0,-2.615002963346001,0.0
mp-767130,Cr4OF6,1.2968,-2.614878868035454,0.0612168490909086
mp-770756,Li3SiSnBO7,3.5191,-2.614763540416668,0.0588355798076945
mp-765748,NaVPO5,2.4527,-2.6147487049181546,0.031958721874985
mp-771213,Li4TiCrO6,1.2276,-2.6147117378472218,0.013427492499999
mp-765491,Ti4(Fe2O5)3,1.3827,-2.614700509016667,0.0146024065077003
mp-861538,Li2VO2F,1.814,-2.614699311864999,0.1048396212499973
mp-865181,EuGeO3,0.0,-2.6146931867500016,0.0
mp-704536,Be3Fe4Si3SeO12,3.1008,-2.6146549834171195,0.0
mp-16695,K2ZnP2O7,4.129,-2.6145566104117073,0.0
mp-763212,Li2VO2F,1.0705,-2.614412458948333,0.1051264741666635
mp-764564,Li2Fe2OF4,2.4931,-2.6143861095566656,0.0829231783333348
mp-861575,Li3V(BO3)2,2.5749,-2.6142361067361115,0.0491948154166674
mp-771633,Li3Mn(PO4)2,0.28300000000000003,-2.6142129890821764,0.0206644033928524
mp-761634,Li2MnCr(PO4)2,2.2089,-2.61415283443932,0.0031127513690636
mp-770606,Eu2CoO4,0.0,-2.614116252142857,0.0195260728571256
mp-765014,Na2LiMn(PO3)5,3.6781,-2.61400809584109,0.0417175061111425
mp-559805,HoTeClO3,3.8508,-2.6140049661683338,0.0
mp-771317,Ti5Sb5O17,0.0,-2.613965258873457,0.1042720789506166
mp-16872,RbLi2Ga2(BO3)3,3.665499999999999,-2.6139448530147056,0.0045913471945571
mp-763203,Li2VO2F,0.9411,-2.613856781031666,0.1056821520833288
mp-23576,CsSbClF3,3.6585,-2.613834831138333,0.0
mp-765021,Li2V3(P2O7)2,2.9492000000000003,-2.6137423121687373,0.054574182334111
mp-767138,Li2VSiO4,1.2550000000000001,-2.6137263160416677,0.0875867237660257
mp-14390,Na3GaP8O23,5.0014,-2.6135924152431973,0.0
mp-19499,KY(MoO4)2,3.589,-2.6133316843749994,0.0
mp-771215,Li4TiCrO6,1.277499999999999,-2.6132117063888898,0.0149275239583488
mp-532575,Na13Ca7S12(O16F)3,5.2446,-2.613115226654458,0.0023164949698797
mp-763205,Li2VO2F,0.9741000000000001,-2.613083921031666,0.1064550120833303
mp-1018639,TiSnO3,1.047899999999999,-2.613058279083334,0.1576991580000086
mp-762540,Li2FeSiO4,2.9237,-2.6130459278125,0.013524771250001
mp-31961,LiMn2(PO3)5,4.2135,-2.613033082875922,0.0254610932608692
mp-20815,SnPbF4,3.345399999999999,-2.61292235746,0.031748880416667
mp-32309,Sr4Re2NiO12,1.866,-2.612815139736841,0.0106782933684224
mp-772630,Li3V(BO3)2,2.8342,-2.612805721111112,0.050625201041667
mp-560216,Cs2GeP4O13,4.1237,-2.6128004636815483,0.0
mp-984716,CaSn4(PO4)6,3.517899999999999,-2.612765585102041,0.0
mp-557456,Li4Al3Ge3IO12,3.1208,-2.612737298695653,0.0
mp-763235,LiMnPO4F,0.9038,-2.6127237275306534,0.0291454850000043
mp-780193,LiCr(PO3)3,2.5296,-2.612566076466838,0.0197087723421276
mp-31972,Li3Mn(PO4)2,1.0943,-2.612416771403605,0.022460621071433
mp-1019791,K2Zn(PO3)4,4.8504,-2.612320002493735,0.0
mp-14968,Dy2Ru2O7,0.0,-2.6122044610984845,0.0207214345454627
mp-763190,Li2VO2F,0.8643000000000001,-2.612191950198333,0.1073469829166633
mp-763574,LiV2(PO4)3,1.2041,-2.612087955793652,0.0574654212500007
mp-763556,LiV(PO3)4,2.7822,-2.6117630244378307,0.0759660791666752
mp-769543,Li3Mn2(SiO4)2,0.0,-2.6117401661279995,0.0831920159166514
mp-25059,NaMoP2O7,3.9664,-2.6117221586309523,0.0
mp-7709,ZnF2,3.5604,-2.611657183293333,0.0057171291666677
mp-863851,LiFeSiO4,2.2996,-2.6115670850000003,0.010450068571421
mp-15750,TaAgP4O13,2.0967,-2.611555969664788,0.0
mp-767717,NaPrPCO7,0.1574,-2.6114443194859307,0.0913746318749986
mp-579811,Rb2U(MoO5)2,0.0,-2.611440918666668,0.0
mp-765904,Li2FeSiO4,3.0781,-2.611405990625,0.015164708437501
mp-18833,Sr3Cr2O8,0.0,-2.611359534615385,0.0356899569230817
mp-765567,Li4P5HO15,5.6948,-2.611321329313846,0.0018149903000015
mp-770954,Li4Nb2V3Cr3O16,1.2736,-2.6113137735714287,0.0033777962276353
mp-767598,LiVPO5,1.2921,-2.6112577564806543,0.0685106496875116
mp-763497,LiV(PO3)3,2.603999999999999,-2.6112260468239805,0.065081084955775
mp-773399,Li3Fe(PO4)2,2.474,-2.611066234013606,0.0169551177678579
mp-19329,Na2V(PO4)2,2.7586,-2.611058415860806,0.040402669679449
mp-976955,Li2RuF6,0.0398,-2.6109944791266657,0.0
mp-771268,Li4TiCrO6,1.3111,-2.610921647847222,0.0172175825000167
mp-17493,Be3Cd4Si3SO12,0.817199999999999,-2.610895925611413,0.0
mp-763394,LiV(PO3)4,2.520299999999999,-2.6108780334656077,0.0768510701388978
mp-773679,Li2V3(PO4)3,0.449,-2.610820933214286,0.0599760830921143
mp-31539,Li4Co(PO4)2,3.2951,-2.6108152624126983,0.0013030067499997
mp-777038,LiMnPO4,3.2826,-2.610798680579318,0.0393595464285727
mp-757464,LiNb(PO3)4,0.17820000000000003,-2.610743797910053,0.0722787790780339
mp-764266,LiMnOF2,0.8498,-2.610688631168,0.1010335480000108
mp-762706,Li5Mn4P4O16F,3.5293,-2.610426278747032,0.0775464780833354
mp-767710,Li2VP2O7,2.455,-2.6103259668700383,0.0972869194270833
mp-560843,Na4Zr2Ti(CO4)4,3.1442,-2.6101867291358034,0.0
mp-772086,Ba4Sn3O10,2.723799999999999,-2.610102922205882,0.0493743852941186
mp-687011,Ba7Ca2Mn5O20,0.7955000000000001,-2.6100332852882357,0.0
mp-762639,LiFeSiO4,3.0258,-2.6100177175,0.0119994360714219
mp-769687,Li4TiCrO6,1.2953000000000001,-2.609982726180556,0.0181565041666829
mp-773714,SrV4O10,1.6631,-2.6098732521666665,0.0005791714583214
mp-850240,Li2Mn3(SiO4)2,2.044699999999999,-2.6098446953031105,0.0498942820555541
mp-770462,La2Bi2O7,0.0,-2.609818650795454,0.0
mp-769715,LiVBO4,2.5334,-2.609795825238096,0.0421748764285636
mp-30313,Tb2Se2O7,3.219899999999999,-2.6097417709185606,0.0
mp-649933,BaCeC2O6F,0.324899999999999,-2.609660678971818,0.277210975530302
mp-19007,V2PO5,0.0,-2.609648533668155,0.0
mp-7830,UO,0.0,-2.6096180706250003,0.2208696875000004
mp-1016999,SrGeO3,0.0,-2.60961247175,0.1506783426666667
mp-771279,Li4TiCrO6,1.199799999999999,-2.6095771105555543,0.0185621197916843
mp-780008,Li3Fe4(OF3)3,2.1938,-2.6095538620768437,0.0764955199122781
mp-775296,TiMnO4,0.157899999999999,-2.609552053771111,0.0551479308333373
mp-861486,Li6V(OF)3,2.107199999999999,-2.6094277497938467,0.1025183549999955
mp-762422,Li4Fe(PO3)6,4.3787,-2.6092988986576366,0.0531982379310438
mp-853134,Li2MnP2O7,3.9831,-2.6092742246583724,0.0794937738541667
mp-765841,LiV2O3F,1.0092,-2.609222042491428,0.1071750026785682
mp-761576,Li2MnV2(PO4)3,0.5599000000000001,-2.6091127582622864,0.059901717197385
mp-759486,LiNbSn3(PO4)6,2.9448,-2.609085627244897,0.0180590721428588
mp-771653,Li6V3Ni(PO4)6,0.9196000000000001,-2.6089338252142853,0.0445665935625125
mp-769686,Li4TiCrO6,1.1431,-2.6088568032638895,0.0192824270833496
mp-669388,Gd2Se2O,1.3044,-2.6088296961875,0.0
mp-6077,Ba3SmRu2O9,0.0,-2.608714137916668,0.0
mp-770489,Li6Cr3Fe(PO4)6,2.377599999999999,-2.6083714879642854,0.0429319360312243
mp-762316,Li2CrSiO4,1.2517,-2.6082909978124995,0.0536257096875045
mp-677335,GaPO4,4.6909,-2.60822838218254,0.0
mp-764908,Li3VO3F,1.3617,-2.6081590653050006,0.0660399731250001
mp-16280,Ca2Sb2O7,1.7338,-2.608124380340909,0.0
mp-774171,Li3Mn2(SiO4)2,0.0,-2.608120122794667,0.0868120592499837
mp-758007,Ba2CaP4(H3O8)2,5.4657,-2.608061135313826,0.0
mp-17337,RbAsOF4,3.7089,-2.608052949072857,0.0
mp-18757,Sr2CdWO6,3.3145000000000002,-2.60798376625,0.0238666544999999
mp-763564,LiV(PO3)3,2.588,-2.6078842432525517,0.0684228885272046
mp-540418,LiMnPO4,3.4653,-2.6078225148650342,0.0423357121428571
mp-559748,NdGaGe2O7,2.8601,-2.607757627613637,0.0
mp-540471,LiMn(PO3)3,3.9814000000000003,-2.607733396892552,0.0456055353571391
mp-772424,RbLi2V2(BO3)3,2.4291,-2.6075437721323538,0.061512429650727
mp-608621,Nb2NiO6,2.9339,-2.6075386447222217,0.0
mp-778631,Li3Mn2(SiO4)2,0.36970000000000003,-2.6074653674613337,0.0874668145833164
mp-780024,LiMn(PO3)3,4.4927,-2.60741867296398,0.0459202592857099
mp-626083,Si2H2O5,5.274100000000001,-2.607388364276667,0.0460314052777768
mp-763711,Li2CrSiO4,1.299799999999999,-2.6073428237500007,0.0545738837500033
mp-6702,Na7In4P9O32,3.7157,-2.6073410534203285,0.0
mp-769525,TiV2Fe3(PO4)6,0.0,-2.607332328756613,0.0480260853472156
mp-25704,PrMn2O5,1.096899999999999,-2.607309461021249,0.0
mp-25743,Cr3B7BrO13,2.4249,-2.60730768595486,0.0
mp-775197,Mn3Nb(PO4)4,0.129199999999999,-2.60727333480254,0.0595168686458418
mp-989533,NaTl2InF6,4.2708,-2.6072670942139995,0.0
mp-771325,Dy2Cu2O5,0.3416,-2.607234326898148,0.0548252708333221
mp-775049,Li5Ti2V5O12,0.17720000000000002,-2.607167673680556,0.0107752558333409
mp-861062,LiMnPO4,3.147999999999999,-2.607134208674558,0.0430240183333339
mp-2973,Pr3Sb5O12,3.167999999999999,-2.607125818000001,0.0
mp-765261,Li3Cr(BO3)2,3.114,-2.6071251179861106,0.02660628083333
mp-764340,Li2FeSiO4,2.9573,-2.6069692778124995,0.0196014212500008
mp-766110,LiMnV(P2O7)2,1.2710000000000001,-2.6069513221829035,0.0090801288095292
mp-764622,LiMnV(P2O7)2,1.2189,-2.606906190198775,0.0091252607936382
mp-546973,SrSnO3,0.9698000000000001,-2.6068611937500004,0.0475900279999974
mp-767775,Li6MnCr3(PO4)6,1.036,-2.6068545412382864,0.0473645215208407
mp-975958,KNaMo(OF2)2,2.2123,-2.60685415914,0.0318248574206343
mp-540269,LiMoP2O7,3.7065,-2.6068404195400428,0.0217798245454501
mp-762830,Li4Mn2Nb3V3O16,0.0,-2.606755121497144,0.0668228576339213
mp-13703,Al4CO4,3.8248,-2.6067376024999995,0.0
mp-752648,Ba3(BrO)2,2.2886,-2.606721240357144,0.0350171707142816
mp-780754,Li2VP2HO8,2.085499999999999,-2.6067080292721756,0.0
mp-763291,V3O5F,0.799199999999999,-2.6066500580488903,0.0023809255555491
mp-764484,LiMnV(P2O7)2,1.3442,-2.606646761309888,0.009384689682526
mp-767417,K2AlPCO7,4.9518,-2.606558476195437,0.0316759042866126
mp-6425,Li3In2(PO4)3,3.7684,-2.6065449319642857,0.0
mp-18845,Ba2FeWO6,0.0,-2.606284485750001,0.0269929397500003
mp-758861,Li3AgF4,2.6452,-2.6061529257512497,0.0789671973437498
mp-755362,Sm2Se2O,2.093899999999999,-2.606145960687498,0.0104280717500016
mp-766150,Li4Ti2Mn3O10,0.49410000000000004,-2.6060081446691217,0.0461462331578879
mp-540475,LiMnPO4,3.4374000000000002,-2.606001000936462,0.0441572260714293
mp-765699,Li3Fe(PO4)2,2.4322999999999992,-2.605995146513606,0.0220262052678572
mp-18913,Ba3Cr2O8,0.0,-2.6059880692307704,0.0136219875000058
mp-777517,Ti3Cu2Ni(PO4)6,0.0,-2.6059221632936502,0.0473661589583418
mp-764454,LiMnV(P2O7)2,1.3469,-2.6058887686114742,0.0101426823809394
mp-763956,Li3Mn(PO4)2,0.25919999999999904,-2.6057848390821765,0.0290925533928607
mp-560872,Mg10Ge3(H2O9)2,3.907,-2.6056818316280004,0.0
mp-780287,Li3Mn2(SiO4)2,0.0,-2.605647232128,0.0892849499166503
mp-1012551,BaBrCl,4.4843,-2.605495981086668,0.0
mp-780107,Li7Cr3Fe(PO4)6,1.5433000000000001,-2.605490606794425,0.0594408098170422
mp-765110,LiVFe(P2O7)2,1.6782000000000001,-2.605342841899094,0.0081728604761837
mp-767272,LiVFe(P2O7)2,1.6041,-2.6052762547562356,0.008239447619041
mp-765161,LiVFe(P2O7)2,1.5996000000000001,-2.605164517613378,0.0083511847618984
mp-765127,LiVFe(P2O7)2,1.5781,-2.605132940708617,0.0083827616666605
mp-770010,LiCrB2O5,2.1903,-2.605090272175927,0.0840338781745995
mp-697657,CaP4(HO6)2,5.6370000000000005,-2.605063760769524,0.0
mp-777072,LiVPO5,2.1544,-2.6048635586681543,0.0749048475000115
mp-763669,Li4Ti2Mn3O10,0.8577999999999991,-2.604858504142808,0.0472958736842015
mp-767982,Li3Mn2(SiO4)2,0.0,-2.6047948167946657,0.0901373652499852
mp-768190,Li3MgPCO7,5.3898,-2.604761546872711,0.0455179634615419
mp-756942,Ba3(BrO)2,2.2005,-2.6047218207142864,0.0370165903571386
mp-756876,K3BaPCO7,3.905599999999999,-2.6046718753342493,0.0261961244230759
mp-744260,LiLa(MoO4)2,3.748399999999999,-2.604537820624999,0.0079618978240727
mp-24970,Ca2FeSbO6,2.1517,-2.604520112250001,0.0001063490000001
mp-6290,NaInP2O7,3.7446,-2.6045044011309533,0.0
mp-774356,Li3Mn2(SiO4)2,0.0,-2.604472593128,0.0904595889166506
mp-770625,Li4Al3Cr3(SbO8)2,2.5052,-2.604469053928572,0.0027330021428575
mp-762581,LiFeSiO4,2.9611,-2.604290349642857,0.0177268039285642
mp-757155,Nb(PO3)4,0.13339999999999902,-2.6042768580812323,0.0439258858347333
mp-761952,Li5Sb(P2O7)2,4.290500000000001,-2.6041192310367065,0.0500406206597281
mp-648072,NaPO3,4.7362,-2.604111029119048,0.0549559104166661
mp-540231,Li2FeP2O7,4.1959,-2.6040884508283724,0.0223907898611157
mp-15161,Tb2Ru2O7,0.0,-2.6040839432196976,0.0165571782954767
mp-561058,Na3Ga(PO4)2,4.0408,-2.604068438477892,0.0
mp-27616,ErSCl,2.9329,-2.6040283341075003,0.0
mp-14488,Li3In2(PO4)3,3.677199999999999,-2.604001466714286,0.0025434652499995
mp-673168,SiO2,3.391499999999999,-2.603967613055557,0.680745294444443
mp-704125,Nd2Zr3(MoO4)9,3.4865,-2.6039297021999994,0.0
mp-17539,KAsOF4,3.7145,-2.6038774597871424,0.0
mp-554465,RbFeF3,0.0,-2.6038324917140003,0.1967572900000007
mp-755184,Sm2Se2O,1.679699999999999,-2.603821619687499,0.0127524127500002
mp-695805,Li2FeP2O7,4.2488,-2.603701369161706,0.0227778715277819
mp-505299,Ho2Mo4O15,3.3221,-2.603649233273808,0.0
mp-973225,Na2CrH2F8,1.8302999999999991,-2.6035839943661543,0.0
mp-762392,Li2Cr2Si2O7,1.0305,-2.6035700843269227,0.0971477175000048
mp-647285,NaMg2V3O10,2.8158,-2.60354423796875,0.0
mp-780825,LiMnSiO4,1.0591,-2.603455470137141,0.0742505782215525
mp-704736,K6U2Mo4O21,2.1736,-2.6034113965530303,0.0