mpid,formula,BG,FE,e_hull
mp-600060,SiO2,5.683199999999999,-3.2738462334027787,0.0108666740972225
mp-770406,Sm2WO6,3.7504,-3.2738071544444467,0.0
mp-600016,SiO2,5.6503,-3.2737081229166662,0.0110047845833332
mp-558326,SiO2,5.587,-3.2736989130555565,0.0110139944444433
mp-542201,Ba3Nb2O8,4.499700000000001,-3.2735264869230765,0.0
mp-560941,SiO2,5.7701,-3.2735149908333327,0.0111979166666671
mp-557211,SiO2,5.553599999999999,-3.2734882358333337,0.0112246716666657
mp-600015,SiO2,5.6014,-3.273372941111111,0.0113399663888884
mp-600029,SiO2,5.4247,-3.2733283390277776,0.0113845684722218
mp-553945,SiO2,5.6009,-3.2733276248958334,0.0113852826041664
mp-555251,SiO2,5.6355,-3.2732247599999997,0.0114881474999997
mp-6073,Mg3Al2(SiO4)3,4.9394,-3.2732195631250014,0.0390880063
mp-560920,SiO2,5.610799999999999,-3.2731913239583332,0.0115215835416666
mp-600018,SiO2,5.4453,-3.273180296111111,0.0115326113888851
mp-7087,SiO2,5.3645,-3.2731166983333337,0.0115962091666652
mp-669426,SiO2,5.6183,-3.273090885,0.0116220224999992
mp-15078,SiO2,5.6346,-3.273074224351853,0.0116386831481474
mp-558025,SiO2,5.671,-3.2730587553703714,0.0116541521296298
mp-600004,SiO2,5.4296,-3.2730356416666675,0.0116772658333328
mp-600027,SiO2,5.522600000000001,-3.2730015290277783,0.0117113784722224
mp-556469,SiO2,5.696199999999999,-3.272998475833333,0.0117144316666664
mp-639511,SiO2,5.6509,-3.2729908613541667,0.0117220461458327
mp-686055,Sr3Pr4O9,2.3406000000000002,-3.272960763203125,0.2307520337500009
mp-558891,SiO2,5.6471,-3.2729294158333335,0.0117834916666623
mp-17909,SiO2,5.7313,-3.272913901388889,0.0117990061111115
mp-600052,SiO2,5.4991,-3.2729012985000003,0.0118116090000004
mp-774528,Li11Ti24O48,0.0,-3.2728044740963864,0.0067321922891405
mp-600063,SiO2,5.6966,-3.272652325277777,0.0120605822222188
mp-7020,LiYO2,4.108199999999999,-3.272532915,0.0
mp-8352,SiO2,5.3649000000000004,-3.2725214525,0.0121914549999999
mp-7638,LiTa3O8,3.4495,-3.2725193962500008,0.0
mp-8995,Cs2NbF6,0.23919999999999902,-3.272504961904444,0.0
mp-561351,SiO2,5.4512,-3.2724984330555564,0.012214474444443
mp-11585,La2MgGeO6,0.423299999999999,-3.27218894125,0.0160459989999983
mp-557955,Ca3Al4ZnO10,3.544699999999999,-3.2721697418055555,0.0041127683838375
mp-600032,SiO2,5.7155000000000005,-3.272068126250001,0.0126447812499979
mp-6922,SiO2,5.5311,-3.272068011944445,0.0126448955555549
mp-560336,SiO2,5.5748,-3.2720549849999987,0.0126579225000007
mp-12403,LiBF4,8.246,-3.2719923902377777,0.0
mp-680204,SiO2,5.6081,-3.27180059189394,0.0129123156060604
mp-554543,SiO2,5.4402,-3.2717993974999997,0.0129135100000006
mp-559872,SiO2,5.6041,-3.2717868886111123,0.0129260188888871
mp-639741,SiO2,5.659499999999999,-3.2717753955555566,0.0129375119444432
mp-600084,SiO2,5.549,-3.2717399183333327,0.0129729891666663
mp-40866,CaLaTiMnO6,0.18399999999999903,-3.271531260012668,0.0263603146875333
mp-600007,SiO2,5.606899999999999,-3.2714480325,0.013264874999999
mp-667368,SiO2,5.6294,-3.2714240626041664,0.0132888448958325
mp-600041,SiO2,5.465199999999999,-3.2714148867708333,0.0132980207291666
mp-600014,SiO2,5.7274,-3.2713895220833336,0.0133233854166654
mp-639506,SiO2,5.6572000000000005,-3.271362124861111,0.0133507826388896
mp-600059,SiO2,5.7102,-3.2712349529901963,0.0134779545098027
mp-40161,NaHf2(PO4)3,5.0443,-3.271109772460317,0.0
mp-25127,Lu2V2O7,1.148799999999999,-3.2710615853409086,0.0036178831818158
mp-600028,SiO2,5.5863,-3.2710605327083337,0.013652374791663
mp-600071,SiO2,5.4719,-3.270991613680556,0.0137212938194437
mp-557004,SiO2,5.5806000000000004,-3.2709184519444445,0.0137944555555513
mp-705476,Ba2La3Ti2Cr3O15,1.487199999999999,-3.2704666232833337,0.0459534241000039
mp-600023,SiO2,5.488,-3.270446349083333,0.0142665584166667
mp-772214,LiZr2O4,0.0,-3.2704169971428567,0.0985969490714264
mp-560064,SiO2,5.7315000000000005,-3.270370570729167,0.0143423367708326
mp-774263,Li13Ti28O56,0.0,-3.270346339553265,0.0064991068041084
mp-19036,Tm2V2O7,1.1145,-3.2702225139772714,0.0043467434090906
mp-769316,Li5Nb3OF18,3.9757000000000002,-3.2701449725062965,0.0855736562500011
mp-600051,SiO2,5.5706,-3.2701186412500007,0.0145942662499987
mp-17279,SiO2,5.7151,-3.269840121458333,0.0148727860416624
mp-556262,SiO2,5.72,-3.2697952620833326,0.0149176454166664
mp-675048,Sr3Nd4O9,3.1139,-3.269792227265625,0.2645434237499984
mp-561090,SiO2,5.5448,-3.269766175931372,0.014946731568628
mp-581877,Cs2Zr(Si2O5)3,4.946899999999999,-3.2696794541145833,0.0
mp-756426,ZrNbO4,0.0,-3.2695900216666667,0.1034241500000003
mp-556440,CaZr4(PO4)6,4.1838,-3.2695839125306136,0.0
mp-752596,YbSmO3,0.0,-3.2694627932500007,0.1297426717499989
mp-561181,SiO2,5.6107000000000005,-3.2693578559523813,0.0153550515476172
mp-667383,SiO2,5.508599999999999,-3.2692772185714283,0.0154356889285711
mp-972808,SiO2,5.5882,-3.269269495,0.0154434124999962
mp-32895,SiO2,5.7862,-3.2692107650000013,0.015502142499999
mp-555271,Ba2Zn2ClF7,4.354,-3.269098334299166,0.0029843095833372
mp-639478,SiO2,5.5486,-3.2690910152777786,0.0156218922222226
mp-600005,SiO2,5.4398,-3.269037110625,0.0156757968749996
mp-600045,SiO2,5.4237,-3.269002809166666,0.0157100983333329
mp-557894,SiO2,5.718299999999999,-3.2689560410416667,0.0157568664583322
mp-579904,Sr4Al6CrO16,2.194299999999999,-3.268781183055556,0.0
mp-600061,SiO2,5.6122,-3.2687607318055565,0.0159521756944442
mp-13516,TmAl3(BO3)4,5.6843,-3.2687188065833324,0.0044430016682692
mp-554267,SiO2,5.6122,-3.2685995904166667,0.0161133170833327
mp-600111,SiO2,5.5173,-3.268583120364583,0.0161297871354157
mp-760217,NaTi4O8,0.0,-3.268501330128206,0.0692116110897274
mp-4155,Ca2Nb2O7,1.44,-3.2684563526136388,0.0415585820454467
mp-754640,Ce2SeO2,0.0,-3.2683628302187504,0.0
mp-6044,Sr6B(PO4)5,4.8124,-3.268255295379464,0.0
mp-615993,SiO2,5.4699,-3.268212494642858,0.0165004128571411
mp-676934,KCaNd(PO4)2,4.7393,-3.2680988448992685,0.0
mp-600053,SiO2,5.522,-3.268040079761905,0.0166728277380912
mp-600037,SiO2,5.4426,-3.267924321666667,0.016788585833332
mp-554081,Ca2PClO4,5.3708,-3.2677347942319037,0.0
mp-554755,SiO2,5.6152,-3.266978615,0.0177342925000001
mp-14941,Al2Pb3F12,5.2252,-3.2669751374576466,0.0
mp-9844,BaAl2B2O7,4.6477,-3.2669189693402787,0.0
mp-600002,SiO2,5.4577,-3.2668918054166665,0.0178211020833334
mp-555483,SiO2,4.721699999999999,-3.266708145833334,0.0180047616666669
mp-639733,SiO2,5.6305,-3.266491311388889,0.0182215961111111
mp-600024,SiO2,5.75,-3.2660982252083333,0.0186146822916661
mp-4764,Pr2SeO2,2.1691,-3.26593513621875,0.0
mp-18084,BaTb2ZnO5,3.050599999999999,-3.2655710508796285,0.0126356708796295
mp-557465,SiO2,5.522,-3.26536775375,0.0193451537499989
mp-17481,Mg4Ta2O9,4.2059,-3.2653387110833334,0.0
mp-18296,Ba5Dy8Zn4O21,3.3654,-3.264989964989036,0.0066669337499991
mp-40206,Ca2Nd2Nb3FeO14,2.2485,-3.264579492613635,0.0183407577272714
mp-560155,SiO2,5.6417,-3.2643658434259266,0.0203470640740732
mp-555048,NaAlCdF6,4.608,-3.264348190515556,0.0
mp-759713,Li8Ti15O32,0.0,-3.264136928727273,0.011435558909099
mp-767633,Li4Ti9O20,1.8417000000000001,-3.2636881312121213,0.0649842677272865
mp-39483,SrLaTiMnO6,0.08319999999999901,-3.263505435512666,0.0316461297499639
mp-765985,Li5Ti12O24,0.0,-3.2634477117073177,0.0351900529268132
mp-565757,Gd2WO6,3.1124,-3.263442183888889,0.0
mp-650715,Gd2Be2GeO7,3.253599999999999,-3.263409193229168,0.0
mp-16037,Dy2TeO2,1.0886,-3.263403493166668,0.0
mp-849760,Al11AgO17,3.195999999999999,-3.2633468262500003,0.0239939315517245
mp-676275,Nd2Pb5F16,4.1182,-3.263279824088696,0.0426221979710144
mp-772372,Sm2WO6,3.5725000000000002,-3.2632230694444453,0.0105840849999996
mp-753711,Ca3(PO4)2,4.5074,-3.2631894173992677,0.0726667323076997
mp-766293,Al11AgO17,3.0191,-3.2631139229741377,0.02422683482758
mp-675682,Al11NO15,4.052200000000001,-3.263007105227036,0.0422558325925939
mp-556882,SiO2,5.6423,-3.263006284791666,0.0217066227083329
mp-697670,KAlSi3O8,4.9267,-3.2627058176923067,0.0
mp-28649,NaTi8O13,0.0,-3.2624969588446984,0.0044207414772703
mp-1019529,Ba8Al10B12O41,4.4373,-3.262121086073944,0.0
mp-540794,Ba3SrNb2O9,3.2346,-3.2620996924166668,0.0153172216666668
mp-559347,SiO2,5.6325,-3.2620490491666665,0.0226638583333329
mp-677238,Th10N9F13,2.0872,-3.2620481447465624,0.0849582068229128
mp-562920,CsAl(SiO3)2,4.7668,-3.2619392018750006,0.0
mp-6062,YAl3(BO3)4,5.351400000000001,-3.2619355382083337,0.0
mp-639480,SiO2,5.6231,-3.2618836221296306,0.0228292853703688
mp-755707,K3LiTi7O16,2.8255999999999992,-3.2613170361728385,0.0034061019444528
mp-557118,SiO2,5.4995,-3.2611080766666665,0.0236048308333334
mp-600078,SiO2,5.6143,-3.2610525576851863,0.0236603498148149
mp-558087,Na2Ca3(Si3O8)2,4.3043,-3.2609315401851853,0.0003441875000103
mp-16432,Sr3(BO3)2,4.3938,-3.260928594166667,0.0
mp-5670,LiTi2O4,0.0,-3.2608903561904765,0.0
mp-600065,SiO2,5.3276,-3.2607910096527783,0.0239218978472184
mp-558373,PrNb3O9,2.848499999999999,-3.2606479325961546,0.008622124807692
mp-755311,NaLuO2,4.061,-3.260604021874999,0.0
mp-695170,Nd3Al3Si3(NO6)2,3.8758,-3.2605087192286963,0.0069330729347942
mp-677011,K4BaTa6(Si2O13)2,2.846999999999999,-3.260436081036584,0.0034443443902425
mp-566468,Er2V2O7,0.0,-3.260421318977272,0.0070987045454558
mp-6442,LiAl(Si2O5)2,5.3223,-3.2603142395312488,0.0
mp-757457,LaNb3O9,1.630299999999999,-3.2602736793269256,0.0324548350000135
mp-686037,U7Cd3O20,0.0,-3.2602525636666657,0.053355157500011
mp-697840,Ba3La7Ti3Cr7O30,1.767599999999999,-3.2600476483500005,0.0246242492499959
mp-767515,Gd3AsO7,2.3103,-3.2599590389772737,0.0534836936363625
mp-773224,LiY3WO8,3.2087,-3.2599124844230776,0.0716353449038411
mp-561125,Ba5P3BrO12,4.963699999999999,-3.25978357234694,0.0
mp-752851,Ca2SiB2O7,5.735700000000001,-3.2596556955902787,0.0147373172916669
mp-6101,Ba3Nb6(Si2O13)2,2.281,-3.2594211239102573,0.0
mp-862893,ThNb4O12,1.9434,-3.259377445,0.0290459764705861
mp-15543,NaLiZr(Si2O5)3,5.202999999999999,-3.259291792760416,0.0
mp-600001,SiO2,5.491,-3.259247790166667,0.0254651173333329
mp-600038,SiO2,5.4989,-3.2592375341666675,0.0254753733333323
mp-559962,SiO2,5.6777,-3.2589161172222223,0.0257967902777771
mp-559928,SiO2,5.4895,-3.2586433091666667,0.0260695983333327
mp-555165,SiO2,5.6892,-3.2582269119791665,0.0264859955208329
mp-559771,Pr6O11,0.0,-3.258092372720588,0.0510130047058847
mp-600067,SiO2,5.74,-3.25790907279762,0.0268038347023793
mp-17451,Nd3ReO7,0.0,-3.257742011477272,0.0497625444318217
mp-16036,Tb2TeO2,1.1715,-3.257671049833334,0.0
mp-7385,K2Be2PbF8,5.547,-3.2572984276553845,0.0
mp-686718,Sr5Al11TlSi13O48,2.958,-3.25694860698718,0.1037804265637944
mp-756599,La2ZnO4,3.033,-3.256934515,0.0321153842857153
mp-558374,SiO2,5.5665000000000004,-3.2565175558333337,0.0281953516666657
mp-555315,Zr3Cd3AgF20,0.0,-3.2563996779185187,0.0
mp-560973,SiO2,5.4387,-3.256372213055557,0.0283406944444433
mp-695202,Mg4Al9Cu(SiO4)9,1.9945000000000002,-3.256180784661017,0.0324467184237331
mp-23070,BaBrF,4.8829,-3.256143617063332,0.0
mp-8994,Rb2NbF6,0.21979999999999902,-3.256005683015556,0.0
mp-773055,Li3Mg3Ti6O16,0.0,-3.255708766607144,0.0142588110714232
mp-639682,SiO2,5.6453,-3.2556271025,0.0290858049999993
mp-773298,LuCrO3,2.5313,-3.2554585352500007,0.0
mp-5616,Sr2P2O7,5.1125,-3.255338016358226,0.0
mp-862811,Cs2KU2(Si2O7)2,0.0,-3.2552726485869563,0.0
mp-1019563,Ca2SiO4,3.3021,-3.255146144285714,0.2321862707142869
mp-677468,Ba16Tb8Nb5(SnO16)3,0.0,-3.2548567081458346,0.0126627602734119
mp-762351,Li4Ti7O16,2.4529,-3.2547460898765426,0.0316688464815051
mp-541177,GdVO3,0.0,-3.254659493750002,0.0
mp-559982,Na2AlZnF7,4.822599999999999,-3.2546370189390914,0.0033214209090912
mp-17895,K3BeF5,6.2164,-3.2544967812166665,0.001442290277791
mp-546546,SiO2,5.5638,-3.254387808611112,0.0303250988888859
mp-4591,SrNb2O6,2.9952,-3.2542828694444443,0.0
mp-15359,GdAl3(BO3)4,2.850899999999999,-3.254259079583334,2.4422166678306212e-05
mp-772150,Li2Ti13O22,0.0,-3.2541084798423423,0.0600580575675699
mp-680222,SiO2,5.5951,-3.254026713194445,0.030686194305554
mp-774752,Li2MgTi3O8,3.2916,-3.25374278375,0.0
mp-554138,Pr2SbO5F,3.508,-3.2536891638822216,0.0
mp-557649,K2Ce(Si2O5)3,2.221899999999999,-3.2536599703645828,0.0
mp-754250,NaLuO2,4.0962,-3.25364694625,0.0069570756249879
mp-530165,Li13Ti22O48,0.0,-3.2536311038152617,0.00759587315261
mp-1019560,Ca2B2O5,4.7085,-3.2535684374537035,0.0
mp-1019559,Ca2B2O5,4.692,-3.2534473107870365,0.0001211266666691
mp-561318,Ba2AlCu2F11,0.574199999999999,-3.2534249050889588,0.0005923068854061
mp-3521,NaBF4,7.8412000000000015,-3.2532747852377786,0.0
mp-542664,Ce2SiSeO4,0.0,-3.253159816074218,0.0213342931250011
mp-557930,SiO2,5.6398,-3.2529378216666665,0.0317750858333329
mp-766834,Li7Ti16O32,0.0,-3.2524917146666668,0.0365376187272552
mp-555740,SiO2,5.5865,-3.2524876483333336,0.0322252591666654
mp-600049,SiO2,5.646800000000001,-3.2521485506249994,0.0325643568749995
mp-541096,CsUNbO6,2.1254,-3.252000440833333,0.0
mp-36194,Ba2TiO4,1.882399999999999,-3.2519832030952385,0.1604272471428585
mp-644481,ScO,0.0,-3.2516764956250013,0.0683763689583329
mp-560247,Li2Ca2Si5O13,4.7981,-3.251636801420456,0.0092782563636362
mp-17101,CaNb2O6,3.6052,-3.2516015855555565,0.0
mp-7765,Ba3SiO5,3.5354,-3.2514151295833327,0.00395534
mp-6535,NdAl3(BO3)4,5.1342,-3.2513105679583334,0.0082451871370192
mp-863362,LiTa3O8,2.413799999999999,-3.2507497468749995,0.0217696493750008
mp-777503,TmCrO3,2.5329,-3.2506795302499985,0.0
mp-541026,CaMg3Si3O10,3.4088,-3.250667454705882,0.0588125476470606
mp-9752,Li2NbF6,0.0,-3.2504331196822225,0.0303752254814764
mp-676049,KBF4,7.3125,-3.2500978002377785,0.0741293924999997
mp-19206,LiLa4CoO8,0.156399999999999,-3.25005935,0.0367728257142872
mp-7337,NdAl3(BO3)4,5.3192,-3.2499972939583333,0.0095584611370203
mp-677065,TaOF3,2.0799,-3.2499659071639986,0.2832852448000045
mp-767725,Sr2CrCO3F5,3.3819,-3.249916853516668,0.0
mp-6121,BaY2ZnO5,3.0989,-3.2498935401388884,0.0208919379629612
mp-767974,LiLa4CoO8,1.467399999999999,-3.249870641428571,0.0369615342857159
mp-41742,CaNdTiMnO6,0.22529999999999903,-3.249519330262667,0.0243323046249965
mp-14558,Ba2Mg(PO4)2,4.696999999999999,-3.2493056039377284,0.0
mp-555232,LiU4P3O20,1.8112000000000001,-3.248966417474488,0.0
mp-686689,Y2BeAlBO7,4.340400000000001,-3.2488718789930564,0.3138564049027739
mp-542477,Ho2MoO6,2.1491000000000002,-3.248833709166666,0.0
mp-642823,Dy2V2O7,1.059,-3.248740638825757,0.013813826590912
mp-776456,Ti2O3,0.0,-3.2486012607499988,0.0702463926666698
mp-6246,Ca2CO3F2,5.14,-3.2483804826412497,0.0280637034375033
mp-753676,Ta2TiO6,0.0,-3.2483590787962964,0.0220049817777781
mp-554332,SrCrF6,0.0,-3.248267037142498,0.0
mp-677223,NaCaAl3(SiO4)3,3.473099999999999,-3.2477052138750016,0.0969508424999992
mp-3859,Ca2B2O5,4.7391,-3.2472519405092592,0.0063164969444455
mp-25180,Nd2WO6,3.7285,-3.2467213033333335,0.0
mp-16163,Pr3ReO8,1.8172000000000001,-3.2466756131250007,0.0
mp-545512,CaO,3.120599999999999,-3.246628390625,0.0650846999999998
mp-556804,PrAl3(BO3)4,5.068600000000001,-3.246333712583334,0.0050073694807686
mp-553993,SiO2,5.6413,-3.245166349375,0.039546558125
mp-698722,Ca5Yb3Ti5Mn3O24,0.427799999999999,-3.245074824655333,0.0062707508750019
mp-555791,SiO2,5.7383999999999995,-3.24503463875,0.0396782687500003
mp-6694,Cs2Zr(SiO3)3,4.789899999999999,-3.244680428416667,0.0
mp-542476,Dy2MoO6,2.166,-3.2446554825925915,0.0
mp-3470,MgSiO3,4.6484,-3.2446531992500014,0.0059572242500021
mp-4049,U2P2O9,0.2285,-3.244054089033883,0.0
mp-5026,MgSiO3,4.6064,-3.244042486000001,0.0065679375000025
mp-11684,SiO2,5.8114,-3.243937558125,0.040775349375
mp-29393,UNb2O7,0.0,-3.2439015438750003,0.0295195318333352
mp-41472,Ca5P3HO13,5.1982,-3.243585227461624,0.0
mp-754236,Y2GeO5,3.7067,-3.243574590156249,0.1201523290625008
mp-21563,SrAlBO4,4.297899999999999,-3.2434027813095243,0.0695274920238118
mp-757546,K3Ta8O21,0.0,-3.243397397070312,0.0
mp-767146,Li7Ti12NbO30,2.6266,-3.243312480149998,0.026779218725002
mp-766823,Li7Ti11O24,0.0,-3.2432682962698416,0.0
mp-558340,Nd5As2ClO10,3.2958,-3.243237525736665,0.0
mp-10688,CeO,0.0,-3.2430129456250008,0.0
mp-555661,Ca9In(PO4)7,4.3214,-3.2427207549259265,0.0
mp-699403,BaLa3TiCr3O12,1.8926999999999992,-3.2425181185833343,0.0262797041250095
mp-559740,SiO2,5.7101,-3.242488673333334,0.0422242341666656
mp-557826,Li3U7(PO7)5,1.925,-3.242396300484524,0.0015974949999968
mp-561491,KNaMg2Si4(O5F)2,5.2111,-3.242383071994,0.0
mp-27927,NbAlO4,3.383199999999999,-3.242313576666666,0.0
mp-721624,Ca5P3HO13,5.2116,-3.2423039131434424,0.0012813143181809
mp-1020124,MgSiO3,4.642100000000001,-3.2421132052500017,0.0084972182500013
mp-766393,Li7Ti11O24,0.0,-3.2420217643650795,0.0012465319047638
mp-756557,LiY4Ti4(S2O5)2,0.0,-3.242016363713768,0.0183027176087087
mp-1020361,MgSiO3,4.5708,-3.241857254625,0.0087531688750024
mp-23023,LaBrO,3.7256,-3.2417972970833335,0.0
mvc-14348,MgCrF4,3.3472,-3.2417010491266667,0.0997544108333334
mp-1020117,MgSiO3,4.5456,-3.2412046489999997,0.0094057744999984
mp-9360,CaU(PO4)2,0.252899999999999,-3.2411932263492056,0.0
mp-1020125,MgSiO3,4.5985,-3.2411873622500003,0.0094230612500023
mp-755797,LiTi8O13,0.0,-3.240798973617426,0.0596077215909094
mp-554887,KUNbO6,1.942599999999999,-3.2406730752777784,0.0
mp-6600,K2Zr(SiO3)3,4.8118,-3.2406623777500005,0.0
mp-560203,SiO2,5.4814,-3.2404930050000007,0.0442199024999983
mp-557304,Sr2SiCl2O3,5.1218,-3.24040301034625,0.0023152932291656
mp-770613,Tb2WO6,2.4635000000000002,-3.240366971018519,0.0745872783333343
mp-556985,SiO2,5.6098,-3.2400694691666665,0.0446434383333329
mp-1019530,Ba2P2O7,5.1483,-3.240038526358226,0.0
mp-773189,Sm2WO6,2.9672,-3.2399053600000007,0.0339017944444464
mp-3800,Yb3Al5O12,0.0,-3.2398235824999992,0.0371285827500003
mp-14415,Pr2Be2GeO7,4.2674,-3.2395832748958338,0.0
mp-776655,Ti2O3,0.0,-3.239506239416668,0.0793414140000017
mp-1020115,MgSiO3,4.5433,-3.2395034965,0.0111069270000019
mp-557803,MgSiO3,4.6751000000000005,-3.2394872545000006,0.0111231690000019
mp-19063,ErCrO3,2.5100000000000002,-3.2392628242499995,0.0
mp-22431,Yb2Ti2O7,0.0,-3.239184954280303,0.1712828762499967
mp-41732,BaLa2TiCr2O9,1.007099999999999,-3.2389880974166667,0.0562665167777804
mp-554433,KAl(SiO3)2,4.755000000000001,-3.2389682289999997,0.0035927831874991
mp-6055,Sm2SiTeO4,2.0006,-3.2388671296875,0.0
mp-11659,BaTi(BO3)2,2.387699999999999,-3.2388480217499995,0.0022659204999975
mp-764425,LiY3WO8,2.7868,-3.238821687500001,0.0927261418269172
mp-555974,Rb2U(SiO3)4,2.508299999999999,-3.238679508421053,0.0
mp-772105,Li2Zr2O5,3.8868,-3.2385510015277776,0.075343235277776
mp-560997,KVF4,1.9296,-3.2382988726683344,0.0
mp-559539,Li2U3P2O15,2.2683,-3.2376650038609296,0.0
mp-767086,Li5MgTi12O24,0.0,-3.2375641530952386,0.0217774759523869
mp-851118,KNa2LiZr2(Si2O5)6,4.7587,-3.2372098596354166,0.0145364746874996
mp-561352,BaNa2Ti2(Si2O7)2,3.3673,-3.2371154313405808,0.0139971343478215
mp-677269,Ca16Zr9Ta7N7O41,2.0888,-3.237012553973875,0.0494849743437484
mp-555097,Tb3Si2Cl5O6,4.689599999999999,-3.2370063121125003,0.0
mp-549737,Ba2Ca(BO3)2,4.0801,-3.2365076809848485,0.0
mp-19162,LaVO4,3.1222,-3.2364796783333336,0.0
mp-555203,Sr5B3ClO9,3.9640999999999993,-3.2362650202505554,0.0
mp-2895,Mg2SiO4,4.6395,-3.2359950732142844,0.0
mp-779456,Y2ReO5,0.8513000000000001,-3.2357297839062493,0.0157877453333306
mp-768114,Li6Ti9O20,0.0,-3.235685269428572,0.0029314380476268
mp-7995,Mg2BO3F,4.4508,-3.2354664784438087,0.0021477515178558
mp-972367,UAlO3,0.0,-3.2352326867500003,0.1911276455250004
mp-30274,AcBrO,4.241,-3.2350047962500006,0.0
mp-27872,MgTi2O4,0.0,-3.2347239147619047,0.0168740785714245
mp-559969,CaLaGaO4,3.4555000000000002,-3.234455415,0.0
mp-18542,Nd2SiTeO4,2.0488,-3.2344347725,0.0
mp-560886,SrSi2O5,4.0583,-3.23433742421875,0.1590570438541672
mp-684921,Na3CaAl4Si8ClO24,4.8269,-3.2342831999575608,0.011276341107723
mp-757158,LiTa3O8,2.2078,-3.2341395824999983,0.0383798137500033
mp-1020118,MgSiO3,4.558400000000001,-3.2338017488750004,0.0168086746250022
mp-754043,NaLuO2,4.1867,-3.2337535231249994,0.0268504987499884
mp-541732,Al3Pb5F19,5.137600000000001,-3.233579748985556,0.0019431151388911
mp-859120,ThNb4O12,1.7238,-3.233573868235294,0.0548495532352912
mp-769818,HoCrO3,2.4964,-3.2333155122500004,0.0
mp-600026,SiO2,5.153,-3.2332100175000003,0.05150289
mp-556679,Na2Ca3Si3O10,4.3798,-3.233026089305556,0.0