mpid,formula,BG,FE,e_hull
mp-17765,Ta2ZnO6,3.0662,-3.0111963688888888,0.0029506193518518
mp-765215,VF4,2.1934,-3.0111897554519995,0.0094136685000032
mp-12268,BaCuF4,0.0,-3.0111307832933343,0.0013054387499984
mp-23046,SrIF,4.311199999999999,-3.0109102603966673,0.0
mp-1019541,BaCa3O4,2.3279,-3.010891704375,0.1813699687499994
mp-764448,V2OF5,1.6192,-3.010835225691666,0.0413555558333333
mp-774230,Li4Ti5V3O16,0.6295000000000001,-3.0107977101190473,0.0222525900893231
mp-1019793,K3La(PO4)2,4.484,-3.010744925442177,0.0
mp-6692,Ba2PrSbO6,3.771,-3.0107057862500013,0.0
mp-19157,LaMnO3,0.0,-3.010701482942,0.0104270865
mp-17297,Na2GeF6,5.7858,-3.0106921006081486,0.0
mp-764633,V2OF5,1.537599999999999,-3.0106717559,0.041519025624999
mp-772524,LiTi2(PO4)3,2.7607999999999993,-3.0106707634788368,0.0262513983333327
mp-555156,MnCrF5,2.2668,-3.010649446701429,0.005564272857141
mp-13937,Sr2TbReO6,0.0,-3.0106404575833334,0.0882080357499983
mp-764715,V2OF5,1.5907,-3.010572360691666,0.0416184208333332
mp-754117,YHO2,4.8376,-3.0104568634050004,0.0182704262499999
mp-573324,CsK2Ho(PO4)2,4.8777,-3.0104540650850344,0.0
mp-764905,Li2Mn3F8,3.3757,-3.010072910569232,0.0368119273076921
mp-13935,Ba2YbReO6,0.0,-3.01000887225,0.0
mp-754307,BaNdO3,0.0,-3.00974022825,0.111264466750006
mp-764357,V2OF5,1.7996,-3.0097344165249997,0.0424563649999996
mp-8128,NaNdO2,3.3339,-3.009705625,0.0
mp-18407,BaSiO3,2.1249,-3.009693921083334,0.4090805906666644
mp-776599,NaTi2(PO4)3,2.6023,-3.0096363132010584,0.0308092769444439
mp-556776,Sr(PO3)2,5.419799999999999,-3.0095396390211637,0.003170522500028
mp-557723,SiO2,3.5612999999999992,-3.0095132036111116,0.2751997038888838
mp-556122,BaCa(PO3)4,5.5237,-3.00941282832672,0.0
mp-754055,CsErO2,2.8037,-3.009379383125,0.0
mp-557381,Rb3U3Ge2O13,0.533399999999999,-3.009191466488096,0.0
mp-779169,Li3MnF6,1.6087,-3.0091759668099995,0.0372883499999954
mp-756402,YHO2,4.6373,-3.009113670905,0.0196136187499975
mp-559127,K2Zn2Si8O19,4.2179,-3.0089735591532265,0.0063338065860181
mp-754777,NaLaO2,3.918799999999999,-3.008963651874999,0.0445992037500007
mp-704306,K2U2MoO10,1.6901,-3.0089385815,0.0041696867083338
mp-560217,K2Al2B2O7,4.5949,-3.0088403260576917,0.0
mp-677431,Na3SrTiNb3O12,1.569999999999999,-3.0088095985833334,0.0296714625000014
mp-556974,BaB4O7,6.4658,-3.0087414308680565,0.0282590654166803
mp-17064,Gd2Sn2O7,2.623399999999999,-3.008682057159092,0.0
mp-769873,Li3MnF6,1.6835,-3.0086351984766666,0.0378291183333283
mp-769074,Na2LiTi3Al(PO4)6,2.5088,-3.0085391134749035,0.0117570393792751
mp-11000,CaB4O7,6.317200000000001,-3.0085361025347237,0.0304287440625081
mp-581229,Gd2Ge2O7,2.7786999999999993,-3.0083623574621203,0.0
mp-756988,Nb5OF14,0.0,-3.008301202895501,0.1268090021750039
mp-778250,Li3FeF6,3.7585,-3.008260116464,0.0426181580833437
mp-1013874,NaTi3P3O13,0.0,-3.0080046245267864,0.0560319573740919
mp-662605,Na2Si4O9,4.4699,-3.007888644972222,0.0584924426111115
mp-765919,VF4,2.15,-3.007647275952,0.0129561479999971
mp-561045,Ba8Ce3(SbO6)4,1.8772,-3.00748955974359,0.0
mp-7264,Nd(PO3)3,5.4768,-3.0072207110027467,0.0
mp-22734,HfPbO3,2.7161,-3.0072056752500003,0.0084773129999984
mp-779182,LiMnF3,3.2957,-3.0072009644060005,0.0575499214999988
mp-613785,Yb3Si2ClO8,0.0,-3.0070862402328578,0.06408563992857
mp-770762,La7(FeO8)2,0.0,-3.0070806784,0.1101348944749975
mp-620924,Cs2NaFeF6,3.8015,-3.007062581214,0.0
mp-625663,ScHO2,4.4857000000000005,-3.0069709602800003,0.0051535362499999
mp-774059,Li7Ti12Fe5O32,0.0,-3.0067949894642862,0.0065126271874991
mp-763098,Li2MnF4,4.0065,-3.0066962893885716,0.0912344000000002
mp-546142,Na2UO4,2.015399999999999,-3.006691039285714,0.0363064742857055
mp-779085,LiMn2F5,3.2036000000000002,-3.006676414525417,0.0290421433333323
mp-556377,Ba17Dy16Zn8Pt4O57,2.2995,-3.006610892724674,0.0018749857516269
mp-559346,K3Nb3Si2O13,2.1454,-3.0064603795833342,0.0003583683333321
mp-34993,LiAlO2,4.5040000000000004,-3.0063382770833336,0.0897202379166666
mp-558050,Rb2NaMnF6,1.5342,-3.00633220631,0.0
mp-25026,SmMnO3,0.27440000000000003,-3.006266163442,0.0
mp-554765,BaSb2F12,4.0459,-3.0061667196186663,0.0
mp-561067,KRb2FeF6,4.0965,-3.0061480697139995,0.0
mp-769073,Na2LiTi3Al(PO4)6,2.331,-3.005815508339768,0.0144806445144114
mp-767323,V6F13,0.0274,-3.005656628182632,0.0426418757894744
mp-720338,Sr7SiB3NO13,0.0,-3.0055462331452008,0.1633521134249971
mp-695475,Ca3YGa3B4O15,3.996099999999999,-3.0055020383814086,0.0356132169551273
mp-769682,HfFeO3,2.1447,-3.0054408517500013,0.0858283134999986
mp-677733,K2TiAl(PO4)3,2.899499999999999,-3.0054387737343364,0.0
mp-763851,BaLiCaVP2O9,2.000699999999999,-3.005403966329365,0.06009837609722
mp-667372,Ba8Zr3(SbO6)4,2.9436,-3.0052961229487183,0.0
mp-1019522,Ba2B10O17,5.6719,-3.0052823968247124,0.0019804362500064
mp-695396,Na3SrTiNb3O12,1.656499999999999,-3.0052650438333344,0.03321601725
mp-770296,La4Zn3O9,1.7738,-3.005240385703125,0.0973369406249986
mp-768110,Li2Ti3CoO8,2.441599999999999,-3.0051650846428566,0.0
mp-767777,Li2V(Si2O5)3,2.041,-3.00485827203125,0.0889791637500243
mp-27998,KNb3O8,2.4762,-3.004609651666668,0.0
mp-17997,BaTi2(P2O7)2,0.0,-3.0045832075340133,0.0422594304767507
mp-555223,Cs2MnF5,1.3949,-3.004557508988749,0.0
mp-30957,Pr(PO3)3,5.4756,-3.004467583118131,0.0
mp-541148,KUVO6,1.9806000000000001,-3.004420374444445,0.0
mp-556489,Ta2SnO6,2.2893,-3.004362056388888,0.0
mp-560981,NaMg4(PO4)3,4.6212,-3.004155573089286,0.011085909374997
mp-556320,Cs2NaFeF6,4.0522,-3.0041011622140004,0.0029614189999946
mp-28675,Ba2Nb15O32,0.0,-3.0039388134693867,0.0
mp-696497,Mg3Si4(HO6)2,5.1766,-3.0038935962971425,0.0
mp-758836,Li4Ti3O8,1.745299999999999,-3.0038837273333328,0.0964264055555768
mp-772271,LuWO4,1.9631,-3.0038783833333333,0.0201317245833294
mp-662810,Na5Lu(SiO3)4,3.6801999999999992,-3.003677843712121,0.0179685475378761
mp-769810,Sr3WO6,3.580399999999999,-3.0035981572500012,0.0
mp-752474,NbOF2,0.0,-3.0035540434074997,0.1557175129583292
mp-772997,Li8Ti7Nb6O30,0.0,-3.0031055792973858,0.0829138269853064
mp-14134,Lu3Ga5O12,2.3544,-3.003005338125,0.0
mp-557104,LiAlB2O5,5.4116,-3.0029993577314813,0.0
mp-561377,K4Mn3F12,0.84,-3.0026467390610523,0.0
mp-8888,HoAl3(PbO4)2,2.9941,-3.002577436785714,0.0224388694642847
mp-771999,Li4Y3CrO8,3.2591,-3.00251867046875,0.0518234484375002
mp-754282,SrO,2.9368,-3.002421758125,0.0902799874999997
mp-14235,SrGa2(SiO4)2,3.9542,-3.002403563846153,0.0
mp-777676,LiVF3,2.3764,-3.002338653714,0.070558886999998
mp-27472,NbSbF10,4.3499,-3.0022554743250005,0.0
mp-8993,Sm2S2O,2.4108,-3.0022308123749992,0.0069863465000024
mp-776567,NaTi2(PO4)3,2.5131,-3.002143849589948,0.0383017405555552
mp-777941,Li11V6O5F19,0.825199999999999,-3.0021118898502444,0.0743842985196439
mp-566279,TmFeO3,1.192599999999999,-3.0021017730833344,0.0
mp-763331,LiMn2F5,3.0768,-3.0020868334837503,0.0336317243749997
mp-755790,HfPbO3,2.7562,-3.00189417525,0.0137888129999979
mp-770605,ZrCrO3,1.3886,-3.001879088749998,0.0812444900000031
mp-645555,KUVO6,1.9565000000000001,-3.0018475083333342,0.0025728661111124
mp-504607,YInO3,2.051699999999999,-3.001777560583334,0.0046611166666652
mp-778509,LiVF3,2.6116,-3.001707431714,0.0711901089999971
mp-20222,Sr2NbInO6,3.3866,-3.001622768750001,0.0
mp-760927,NaTiPO5,2.7735,-3.001615232938988,0.0174620232624986
mp-13929,Ba2SmReO6,0.0,-3.0013027844999995,0.0
mp-4179,YbPO4,0.0,-3.0012569021825395,0.0
mp-754826,CsScO2,2.9595000000000002,-3.0012025018749995,0.0
mp-778633,LiMnF3,3.5293,-3.0011069365726675,0.0636439493333318
mp-779317,LiMnF3,3.5182,-3.000942239572667,0.0638086463333325
mp-768342,SrNb2O4,1.1539,-3.000816162142855,0.0
mp-754154,CsHoO2,2.8172,-3.000731950625,0.0
mp-8891,K2Zr(BO3)2,3.4092000000000002,-3.000728610984849,0.0
mp-754818,NaTaO3,2.713899999999999,-3.00070376225,0.0870549334999992
mp-560647,Ca2GeO4,3.6002,-3.000589841428571,0.0
mp-755001,Er2TeO6,2.452299999999999,-3.000585228611111,0.0544949099999971
mp-850117,LiScVO4,1.326299999999999,-3.0005414571428566,0.0374942530654749
mp-774354,LiMn2F5,3.1486,-3.0004460781712496,0.0352724796875003
mp-755820,NdO2,0.0,-3.000416154166666,0.1656805077083332
mp-765216,VF4,1.5907,-3.0003969474520003,0.0202064764999967
mp-755018,RbTaO3,2.3882,-3.0002972847499985,0.0530667289999957
mp-565780,Sr2VO4,1.529599999999999,-2.9999753873214283,0.0
mp-19324,Ca2MgWO6,3.744699999999999,-2.9997240402500016,0.0
mp-17059,K3Nb3Si2O13,2.2255,-2.999698079821428,0.0071206680952364
mp-565379,KCa10V7O28,3.8017,-2.9995706613043467,0.0
mp-765658,V2OF5,1.5209,-2.9993808799624997,0.0528099015624992
mp-560239,K3Ti3(PO4)5,2.5785,-2.999342053563748,0.0016642719758106
mp-770584,Sr3WO6,3.4214,-2.9992594197499995,0.0043387374999985
mp-557076,SiO2,4.0465,-2.9991854311111115,0.2855274763888875
mp-559939,Ba(PO3)2,5.4349,-2.9991413490211634,0.0
mp-773575,LiMnF3,3.6033,-2.999101706906,0.0656491789999993
mp-757758,LiTi3Nb(PO4)6,2.517299999999999,-2.9990429845306132,0.0040891503571494
mp-891955,Ca10V6O25,2.3156,-2.998949612957317,0.0287847234146303
mp-14629,Li2EuSiO4,0.043300000000000005,-2.998488450833334,0.0
mp-684816,K2NaNb(OF2)2,2.3831,-2.9983592137260016,0.0869896874999982
mp-9238,Ba2UCuO6,0.1713,-2.9983400387500003,0.0106975569999772
mp-755713,Tb2SbO2,0.0,-2.9983141468333345,0.0
mp-764296,V2OF5,1.561,-2.9982563433999996,0.0539344381249993
mp-743592,Mg11AlFeSi11O36,2.739899999999999,-2.9982395819166667,0.2061437502187484
mp-27862,UTa2O8,1.2312,-2.9981908381818183,0.4562728336363655
mp-763348,Li2MnF4,4.0445,-2.998131997959998,0.0997986914285719
mp-773663,Na2Ti2O5,3.8739,-2.9979321685648137,0.057018631277792
mp-27457,Ba(PO3)2,5.269,-2.997821846521165,0.0013195024999852
mp-21567,SmAl3(PbO4)2,2.9907,-2.99769066125,0.0
mp-782664,Ti3MnO8,1.823699999999999,-2.9975131250799985,0.0942523575000002
mp-774371,Li4Mn3F10,3.4539,-2.9973586908694116,0.0810544670588226
mp-8109,EuB4O7,2.036500000000001,-2.9973473029513884,0.0
mp-560263,Pr4Se3(O5F3)2,3.9852,-2.9973310365400545,0.0
mp-850443,LiV2OF5,1.647399999999999,-2.9972390958000004,0.1039124694444471
mp-12236,Er3Ga5O12,3.3298,-2.9971943092500006,0.0
mp-559288,Gd(PO3)3,2.9356,-2.997191943887361,0.0159134881730818
mp-766108,Ba3LiTi5(SbO7)3,2.3975,-2.9970912913510097,0.0299651824242444
mp-558272,Na3ThP3O11,4.9705,-2.997019324613095,0.0
mp-18954,ScMnO3,0.0,-2.9969139589420006,0.0091291506874995
mp-766739,Li2VOF3,2.3625,-2.9968331889028565,0.0495626079563429
mp-5427,Mg2P2O7,5.3203,-2.996515764085498,0.0
mp-556258,Na3BeAl(SiO4)2,4.3245000000000005,-2.9964456929999983,0.0
mp-777718,Li2MnF4,3.871,-2.9963941258171416,0.1015365635714298
mp-556812,SiO2,4.5145,-2.9963704452777793,0.2883424622222215
mp-3368,LiNb3O8,2.9705,-2.9962468004166665,0.0
mp-773560,LiMnF3,3.328799999999999,-2.9959479084060012,0.068802977499998
mp-773748,Li2MnF5,1.619,-2.9959447046137493,0.0169156418750002
mp-1019602,Cs2Al2B2O7,4.2435,-2.995870786698718,0.0
mp-1018719,HfTaNO3,1.8978000000000002,-2.9958667718549985,0.166382610416667
mp-36480,La2CuO4,0.0,-2.995749175,0.0570201728571362
mp-780480,Li11V6O5F19,0.0,-2.9956679939965856,0.0808281943733018
mp-558310,BaLi2SiO4,4.3896,-2.995610264166667,0.0
mp-2931,Li2TiO3,3.0339,-2.9955724409027784,0.0
mp-14760,LuAl3(PbO4)2,2.984799999999999,-2.9953731162500006,0.0383563492857153
mp-556198,Na2Si3O7,4.3033,-2.995255731145834,0.0165424014583335
mp-684696,BaNa4Ti2Si10(BO15)2,3.0028,-2.9951337141666663,0.1727521507823128
mp-775259,Li2Mn3F8,3.3773,-2.9951051263384616,0.0517797115384626
mp-18019,K3Sm(PO4)2,4.9728,-2.995064923477891,0.0
mp-559284,Rb2Al2B2O7,4.1788,-2.99495673823718,0.0
mp-772900,Sm2TeO6,3.034599999999999,-2.9945460944444457,0.0
mp-554218,Ti4P6PbO24,2.7893,-2.9944909790068035,0.0
mp-1020109,LiMg3P3O11,5.3095,-2.9944073279464285,0.0
mp-1019598,CeGaO3,0.0,-2.99416832175,0.1348248619411762
mp-6759,BaGa2(SiO4)2,4.0084,-2.9938728132692303,0.0
mp-626724,LaHO2,3.839,-2.99386589778,0.0
mp-777939,LiV3OF11,1.4645000000000001,-2.9936682349587502,0.0309752498046957
mp-15575,Ho3Ga5O12,3.326099999999999,-2.993622674875,0.0
mp-765845,LiVF3,2.231299999999999,-2.993560441714,0.0793370989999973
mp-558102,KLiSi2O5,4.7068,-2.993298512361112,0.0
mp-5207,Sc(PO3)3,5.1542,-2.9932841317719774,0.0
mp-696529,Al5HO8,4.3283,-2.993265292401428,0.2356587157142842
mp-22705,BaPrO3,0.0,-2.9931548202500005,0.1010285172499996
mp-29104,Ti3Zn2O8,2.5854,-2.9930845609615377,0.0
mp-30192,Pr4Se3O4,1.3245,-2.99278229734375,0.0
mp-21706,GdAl3(PbO4)2,2.9479,-2.992682374642858,0.0038572751190475
mp-763793,Li2Mn3F8,3.3624,-2.992679402492308,0.0542054353846168
mp-17114,Nd2Sn2O7,2.6641,-2.9925528303409084,0.0
mp-778037,Li11V6O5F19,0.5932000000000001,-2.9924938383868303,0.0840023499830584
mp-989568,Cs2NaMgF6,0.0,-2.9924636362140005,0.0
mp-778819,LiMnF3,3.2543,-2.9921235429060005,0.0726273429999988
mp-778800,LiMnF3,3.5504000000000002,-2.991913414906002,0.0728374709999988
mp-766722,Li2Mn3F8,3.3394,-2.9918848501846163,0.0549999876923079
mp-868491,LiV3(OF3)2,1.4935,-2.991816455803334,0.0455494387499984
mp-8960,Ba3NaNbO6,3.0766,-2.991803171590909,0.0
mp-763092,Li2Mn3F8,2.855899999999999,-2.9917091494153847,0.0551756884615386
mp-21618,NdAl3(PbO4)2,2.985699999999999,-2.9916861691071426,0.0
mp-560242,NaMnF3,2.6871,-2.991586835406,0.0
mp-695259,Ba3LiTi5(SbO7)3,2.332799999999999,-2.9915432184722235,0.035513255303031
mp-24961,LuFeO3,1.5868,-2.99145945475,0.0208783018750011
mp-776896,Nb2O5,2.4469,-2.991453806607143,0.0615931149999973
mp-765916,Ti2CoO5,1.7405,-2.9912171380729173,0.0
mp-15748,Sr2CuSi2O7,0.158699999999999,-2.9912071678125005,0.0498607684722234
mp-7976,RbGdO2,3.0036,-2.9911305556250003,0.0
mp-763030,LiMnF3,3.4187,-2.9911262761560016,0.0736246097499977
mp-754138,CsDyO2,2.835999999999999,-2.9911124660416664,0.0
mp-549706,MgO,3.287099999999999,-2.991092005625,0.0741423199999999
mp-704600,LiTi4Mn(PO4)6,0.0,-2.9910352037832806,0.0033116555120127
mp-555014,Rb2MnF5,1.2946,-2.9910323452387497,0.0
mp-572822,TiO2,1.6966,-2.9909830263888884,0.5278479541666812
mp-707376,NaNb14O36,0.0,-2.9909470154901965,0.0142214390563708
mp-775265,Li2Mn3F8,3.0444,-2.990904148453847,0.0559806894230767
mp-4391,MgSiO3,4.642499999999999,-2.9906833777500013,0.2599270457500022
mp-756040,Gd2HgO4,1.9117,-2.9906795150000005,0.0
mp-27758,AlTl2F5,4.0814,-2.9904948144937498,0.0
mp-772157,Li4Ti5Nb3O16,0.0,-2.990447597976192,0.1116328404464379
mp-778808,Li6La3Nb2O12,0.0,-2.990440154782609,0.0761999710869467
mp-8084,NaNb6O15F,1.565499999999999,-2.990319407388696,0.0585894379347902
mp-765230,LiVOF3,1.5224,-2.9902393083033334,0.0064314317063578
mp-558256,Li3Ti4O8,0.0,-2.9901375777777788,0.1279485256666799
mp-764431,LiMn2F5,3.4517,-2.9900071728587503,0.0457113849999997
mp-557027,Rb2Be2Si2O7,4.3938,-2.9899493218269235,0.0
mp-695000,LiMg6Sc(SiO3)8,3.211099999999999,-2.9898424936250003,0.287551094812498
mp-555620,BaNb7(P2O11)3,0.0,-2.9898005169110955,0.0016569043368779
mp-15576,Dy3Ga5O12,3.3047,-2.9897723697500007,0.0
mp-540996,NdGeBO5,3.9922,-2.989757586614584,0.0
mp-763362,LiMnF3,3.383,-2.989734664406,0.0750162214999994
mp-763019,LiMnF3,3.0923,-2.989724824656,0.0750260612499991
mp-17187,K3Nd(PO4)2,4.919499999999999,-2.989655690620748,0.0
mp-763093,Li2Mn3F8,3.2135,-2.9896050909538454,0.0572797469230783
mp-4158,Nd2CuO4,0.0,-2.989278498571428,0.0
mp-765966,LiVF6,3.077099999999999,-2.9889896146425,0.0
mp-755588,Ho2TeO6,2.5187999999999993,-2.988972284166666,0.0611188083333313
mp-8672,La2PdO4,0.0,-2.9887397049999995,0.0584869792857167
mp-771238,Y2TeO6,2.2226999999999992,-2.9885557577777777,0.0347223383333332
mp-770600,DyWO4,1.9468,-2.9885325186111125,0.0124421493750013
mp-556525,BaNd2PtO5,2.5164,-2.9884985040277767,0.0
mp-774399,LiMnF3,3.4213,-2.988354881306,0.0763960045999994
mp-771445,Li4Ti5VO12,0.0,-2.9883289117424243,0.1027608877954637
mp-1020023,Li3AlSiO5,4.7208,-2.988327962125,0.0
mp-775735,Sr2CoCO3F5,0.9266000000000001,-2.988319453725,0.0250149882291665
mp-554056,Ca2B5BrO9,5.2036,-2.988218097328432,0.0
mp-771771,Ta2PbO6,3.5547,-2.988130055555555,0.0312887194444471
mp-24980,TmFeO3,1.576199999999999,-2.9879764467499994,0.0141253263333478
mp-18742,Sr2CaWO6,3.2729,-2.9878020432500008,0.0477033404999849
mp-866313,Ba3In(BO3)3,3.4878,-2.987659191953125,0.0
mp-8874,LiSiBO4,6.4308,-2.9875188230952383,0.0003306198750037
mp-18848,Sr2MgWO6,3.2641,-2.9874675647500015,0.0091332389999969
mp-565930,Ti4Fe(PO4)6,2.3256,-2.9872386118639462,0.0
mp-8514,BaNd2PdO5,2.219099999999999,-2.9871471323611107,0.0
mp-774246,Nb9VO25,1.9967000000000001,-2.9869732746071427,0.0014542156428571
mp-978099,K3Gd(PO4)2,2.8376,-2.98681111829932,0.0
mp-676572,NdPb6F15,4.3396,-2.9867995854704543,0.0303200753030301
mp-767432,Sr16V8O31,0.43359999999999904,-2.9867366334318186,0.0
mp-6198,SrGa2(SiO4)2,3.8803,-2.986724015961538,0.0156795478846145
mp-6696,K2Ti2(PO4)3,0.0,-2.98662887829574,0.0057937381516319
mp-778114,Sm2Ge2O7,2.5577,-2.986531453068182,0.0430788847727274
mp-19200,Tb2Mo2O7,0.0,-2.986410164128789,0.0055560392045439
mp-560146,Ba17Y16Zn8Pt4O57,2.2817,-2.9863541544240197,0.0
mp-6909,BaPrO3,0.0,-2.98625705375,0.1079262837500003
mp-27439,TmIO,3.3943,-2.986214550416668,0.0
mp-673846,La2CuO4,0.0,-2.9857975028571433,0.0669718449999932
mp-774472,PrSO,1.409,-2.9857474384375,0.0
mp-647442,KNaMn(Si2O5)2,3.0188,-2.9855464066741177,0.0
mp-772030,LiTiO2,0.0,-2.985440141041667,0.0076922412499982
mp-557653,SiO2,4.113799999999999,-2.9853451525000003,0.2993677549999987
mp-17583,Gd2TeO6,2.6902,-2.9852818019444434,0.0
mp-776810,Li2FeF5,3.8394,-2.9850734563687493,0.0196305171527813
mp-640515,LiV(SiO3)2,1.8767,-2.98495395275,0.0
mp-558358,Ca(B3O5)2,5.8213,-2.9849426223529414,0.0
mp-5322,Pr3IrO7,0.0,-2.984912277613637,0.0
mp-766912,LiVF6,3.1853,-2.9847702202675013,0.0042193943749992
mp-25711,La2NiO4,1.5036,-2.984740812857144,0.0453944678571414
mp-36864,Li2TiO3,2.403399999999999,-2.9847387834027788,0.0108336574999992
mp-19043,LiV(SiO3)2,2.0674,-2.9846761277500007,0.0002778250000012
mp-542076,Ca3V2O8,3.4501,-2.9846496623076924,0.0203102221153814
mp-553896,K3MoF6,3.352999999999999,-2.9846073977139995,0.0
mp-778345,Li2FeF5,3.4609,-2.9844255526187493,0.0202784209027813
mp-779455,Li7Ti5O12,0.0,-2.9842934811805555,0.0100589304166653
mp-773081,Li3Ti6Zn3O16,0.0,-2.98423766625,0.0131693991964256
mp-5965,Tb3Ga5O12,3.2791,-2.9841468797500013,0.0
mp-554286,La6Ti2S8O5,1.3379,-2.9839679267658736,0.0
mp-984729,BaSr3O4,2.5111,-2.983925451875,0.0440777125
mp-776840,Li3FeF5,3.4968,-2.98384142205,0.0493566625000001
mp-8070,Li2BeSiO4,5.8679,-2.983497395,0.0
mp-556585,MnF2,2.767499999999999,-2.9833608452800005,0.003970499166666
mp-781615,HfCrO4,0.5763,-2.983355948749999,0.0638609633333331
mp-764845,LiVOF3,1.8467,-2.9832978249699997,0.0133729150396915
mp-556281,Sc(PO3)3,5.0599,-2.983227808374542,0.010056323397432
mp-18981,Sr2CaWO6,3.226199999999999,-2.9832145847500016,0.0522907989999845
mp-23063,Ba4Cl6O,4.3647,-2.98315179461909,0.0
mp-762908,LiMn2F5,3.0017,-2.9830173647337497,0.0527011931250003
mp-763101,LiMnF3,3.5423,-2.982999555406,0.0817513304999995
mp-755716,HoHO2,4.1921,-2.98297336653,0.0840122337500002
mp-625147,GdHO2,3.0714,-2.982965821530001,0.0
mp-753173,HoIO,3.4575,-2.9829034304166675,0.0
mp-554033,Na6Si8O19,4.5317,-2.982762458825757,0.0042252396969706
mp-25090,La2NiO4,1.5482000000000011,-2.982649537857143,0.0474857428571429
mp-765942,Li2VOF4,2.6315,-2.982605071063749,0.0638721422172752
mp-867940,Rb2U2O5,0.0,-2.9824026273611093,0.1157689099999981
mp-7725,Na2UO4,2.0224,-2.9821925035714285,0.0608050099999912
mp-849583,YNb2NO5,2.2861000000000002,-2.9821492754033323,0.0596538958333354
mp-778703,Li4Mn3F10,2.996,-2.98213726998706,0.096275887941176
mp-8042,ZrGeO4,3.7395,-2.9820960058333332,0.0
mp-766728,LiV(SiO3)2,2.165499999999999,-2.9820370078750003,0.0029169448750092
mp-767716,LiVSi3O8,2.1659,-2.981992250576924,0.072136845576944
mp-39140,Na4Al3Si3HO13,4.0558,-2.981893346452918,0.0
mp-765440,LiV2F5,2.2369,-2.9818407963687483,0.0640610800000009
mp-765855,Li2VOF3,1.6465,-2.981767876402857,0.0646279204563429
mp-8892,LiInF4,4.0149,-2.9817199591266665,0.0
mp-766144,Li3V4(OF3)3,1.8959000000000001,-2.9816838515505264,0.0630578099122898
mp-561599,Ba3Nb2CoO9,1.5992,-2.981662051416667,0.0596757446666735
mp-619127,Cs2KMn3F12,1.947,-2.981598427064444,0.0