mpid,formula,BG,FE,e_hull
mp-4934,Al2SiO5,4.992799999999999,-3.3835956370312488,0.0074925078125005
mp-3010,Rb2TbF6,0.022799999999999,-3.383129952274815,0.0
mp-42897,NaPrTiNbO6F,2.811,-3.3828075945778786,0.0355078488636433
mp-540876,KTh2(PO4)3,4.5918,-3.3825711249603185,0.0
mp-3281,Al5BO9,4.9356,-3.3821488721944446,0.0
mp-555508,Ca11Si4SO18,3.5249,-3.382145432545956,0.0250526223529412
mp-4622,Li2BeF4,7.597899999999999,-3.3821341254419046,0.0
mp-772771,La4(B2O5)3,4.555999999999999,-3.38182653815,0.0229352749199929
mp-675299,Ca2SiO4,3.7086,-3.3817977971428577,0.1055346178571436
mp-756656,Gd3InO6,2.2306,-3.3817560242500013,0.0538475287500013
mp-28917,Ba2Ti13O22,0.0,-3.3815278141666667,0.0
mp-530164,MgAl2O4,4.5550999999999995,-3.3813800580357136,0.0074453769642861
mp-5760,NdSF,1.2363,-3.381207912584168,0.0
mp-554016,K4Ti2PO4F9,3.0556,-3.3811589064819287,0.0
mp-530722,MgAl2O4,4.3367,-3.381117167142857,0.0077082678571418
mp-39159,CaLaTiCrO6,2.3315,-3.3810069914166667,0.0014885455000044
mp-560278,Er3B5O12,5.3497,-3.381002484916668,0.0
mp-553974,Ba7Fe6CuF34,0.6143000000000001,-3.3808385575095836,0.0007324447395831
mp-39542,KRb2ZrOF5,4.5842,-3.38063418622,0.0210687097499979
mp-9338,Ba2MgSi2O7,4.4529,-3.3805697161458337,0.0
mp-556066,Sr2LiSiO4F,4.7908,-3.380541437354444,0.0063989893055618
mp-560591,NaTi2Al5O12,2.719,-3.380491921166666,0.0
mp-776076,BaSiO3,4.6051,-3.3795529417500005,0.0392215699999978
mp-560993,CaAl12Si4O27,5.236199999999999,-3.3795292630397737,0.0435848837215902
mp-558128,KNd2NbO6,3.6165,-3.3794796327500007,0.0
mp-6119,Na2Nd2Ti3O10,2.0455,-3.3793379416176466,0.0311980756617611
mp-616260,KYb3F10,0.0,-3.3790873879928567,0.004504415714285
mp-752658,Y2SeO2,2.156,-3.3789386552187524,0.0
mp-34144,MgAl2O4,4.5897,-3.3787514216666663,0.0100740133333339
mp-554280,RbTh2(PO4)3,4.5631,-3.3783726677380947,0.0
mp-6903,Na2Ca4ZrNbSi4O17F,3.772399999999999,-3.378162485748,0.0
mp-6493,CaMgSiO4,4.6294,-3.377687538214286,0.0
mp-759560,LiTi6O12,0.0,-3.377553356842105,0.0462468673684117
mp-18687,NbF5,4.566199999999999,-3.3774436222416657,0.0
mp-561157,Sr3Y2(BO3)4,4.4415000000000004,-3.3769915147222216,0.0206624690079362
mp-18704,CsLiBeF4,6.8736,-3.376841467822857,0.0
mp-766367,Dy5(ReO6)2,0.0,-3.376820631491228,0.0
mp-7181,CsSr2Ta3O10,2.0452,-3.3767666289062497,0.0
mp-3031,BaSi2O5,4.7566,-3.37663041359375,0.0
mp-754624,Al2O3,5.667699999999999,-3.37652720175,0.0655862990000004
mp-634809,U(OF)2,1.7567,-3.376363838976,0.3108875480000037
mp-3405,NaAl11O17,4.491,-3.3761291395258617,0.0
mp-769395,Ho3ReO7,0.0,-3.3761131857954565,0.0660009503030245
mp-17612,Ba2SiO4,4.6289,-3.3757884835714287,0.0
mp-559822,La2TaCl3O4,3.6843,-3.3754146696446656,0.0029919330833356
mp-530146,MgAl2O4,4.1229,-3.3752851182142867,0.0135403167857131
mp-3992,PrSF,1.2541,-3.3746761884175007,0.0
mp-690978,La5Ti6S3(ClO5)3,1.7618999999999991,-3.3743839997099214,0.0237582747136784
mp-10931,HoSF,1.299599999999999,-3.374311486750834,0.0
mp-769480,Y4Ga2O9,3.427,-3.374205438583336,0.072794150833328
mp-6253,KLiBeF4,6.8529,-3.374134337822857,0.0
mp-755404,Gd3SbO7,2.4773,-3.3740987294318177,0.0
mp-640562,KYb3F10,0.0,-3.37409392335,0.0094978803571414
mp-768263,Ba2La2O5,2.4337,-3.373261626805556,0.051474442777776
mp-21540,Li3TiF6,0.1575,-3.3730074932139997,0.012171394166665
mp-769283,Sr4Ta2O9,4.1571,-3.3729745354166667,0.071688699333329
mp-15155,Na2Sm2Ti3O10,2.028299999999999,-3.372954848088234,0.051631222441177
mp-676014,NaAl11O17,4.4125,-3.3728761957327587,0.003252943793103
mp-22225,CeSiBO5,0.17140000000000002,-3.3728525420312514,0.0
mp-759230,NaAl11O17,4.402099999999999,-3.3728153246982755,0.0033138148275861
mp-4200,ScPO4,4.5188999999999995,-3.3727188046825387,0.0
mp-554801,Ca3Nb4(O6F)2,2.9837000000000002,-3.3726396436847628,0.0198891730952386
mp-17891,NaYSiO4,4.2827,-3.3726334421428565,0.0
mp-686571,Ca10P6ClO24F,5.4033,-3.3724776304290818,0.0064129124404761
mp-531530,MgAl2O4,4.183400000000001,-3.372259241857144,0.0165661931428564
mp-558478,La3NbSe2(O2F)2,1.432999999999999,-3.3721106266306258,0.0
mp-767602,La2Ti2CrO9,0.8291000000000001,-3.371989498363096,0.0530945741071366
mp-770743,Li2Hf2O5,3.8274,-3.3719857973611105,0.0958643586111165
mp-5065,Al2SiO5,5.403799999999999,-3.37164324328125,0.0194449015624993
mp-641919,KLi3Ca7Ti2Si12(O18F)2,3.5221,-3.371495594614497,0.0
mp-769253,Dy2SeO2,2.074699999999999,-3.371492800885418,0.042992869999999
mp-31031,La4PdO7,0.38630000000000003,-3.371360455729167,0.0252559987499978
mp-622203,BaMnGaF7,3.624,-3.3711035514289995,0.0027059584999866
mp-557662,Ca2Mg5Si8(O11F)2,5.0192,-3.370712078971283,0.0
mp-1019803,KAl9O14,4.1426,-3.3706368696875004,0.0091662195989545
mp-699405,Ca6Mg5Al2Si11O36,4.8512,-3.3704487982500013,0.0098184811041655
mp-755175,Al2O3,5.4924,-3.3699496477499986,0.072163853000001
mp-779260,Gd3SbO7,2.532699999999999,-3.369879522613635,0.0042192068181812
mp-10344,Ba2PrNbO6,2.9772000000000003,-3.369721187250001,0.0
mp-752989,Ti8O13,0.114499999999999,-3.3694625156944435,0.0101661728571276
mp-977417,NdB2HF10,7.788500000000001,-3.369447526882382,0.0
mp-545548,BaHf(PO4)2,4.9273,-3.3691715159325395,0.0
mp-33302,MgAl2O4,4.2658,-3.3685748241071423,0.0202506108928579
mp-9489,NaSmTiO4,2.426799999999999,-3.3685017391666667,0.0143862201785758
mp-860798,NaAl11O17,4.3719,-3.3683947946982764,0.0077343448275843
mp-541513,NaGdTiO4,2.2356,-3.3683819991666684,0.0150524946428554
mp-772413,Al8SiO14,4.0633,-3.3681027092391305,0.056262841630434
mp-5957,EuTaO4,0.0,-3.3679284083333343,0.0
mp-559384,BaNaNdSi2O7,4.4466,-3.3677614026041667,0.0
mp-3081,BeAl2O4,6.118099999999999,-3.367522660357142,0.0
mp-534901,Sr10P6BrO24F,4.8553,-3.367156736422891,0.0005968083333343
mp-17913,Tb2SiSeO4,2.5839,-3.366381480345052,0.0
mp-561949,GdBO3,2.242699999999999,-3.3661781060833333,0.0666251609999992
mp-8065,K2Ti6O13,2.7535,-3.3659714969642858,0.0
mp-10932,ErSF,1.3243999999999991,-3.3657849100841672,0.0020168659259196
mp-743699,Ca5Ho3Ti5Mn3O24,0.5537000000000001,-3.3657101860303333,0.0224065486560931
mp-754531,Al2O3,4.369999999999999,-3.36550598075,0.0766075200000004
mp-565319,NaSrFeF6,4.1088,-3.365352531348889,0.0
mp-18219,Dy2SiSeO4,2.574099999999999,-3.365253082428385,0.0005678021875006
mp-530399,LiAl5O8,5.2491,-3.365143255535714,0.0
mp-760747,Ti11O18,0.0,-3.3650333177873555,0.0198351151723983
mp-760396,TaAlO4,2.585899999999999,-3.3647608549999988,0.0557866066666648
mp-19234,Ba2WO3F4,3.9748,-3.3647277143509995,0.017676037500002
mp-554018,Mg3BeAl8O16,5.240499999999999,-3.364668034642857,0.0218309303571428
mp-530984,Al22PbO34,3.595,-3.3645730642543863,0.0119470757017543
mp-10804,NaYPO4F,5.4899000000000004,-3.364251649598155,0.0031019612500005
mp-743698,Ca5Dy3Ti5Mn3O24,0.5324,-3.3641423961553323,0.0199013534060927
mp-15897,La4Si2S3O7,2.4924,-3.364082207871093,0.0
mp-10086,YSF,1.3132,-3.3640736692508337,0.0
mp-754237,LiTmO2,4.3152,-3.3638143581249995,0.0
mp-8861,Rb2MgF4,6.2257,-3.363775153537143,0.0
mp-6249,Sr3Nd2(BO3)4,4.569699999999999,-3.363541167579365,0.0026728532142854
mp-31102,Tb3ReO7,0.0,-3.3634155453409087,0.0181441282007543
mp-769656,Ba2Ce2O5,0.0,-3.3632353245833326,0.0064345976851845
mp-752826,Al2O3,4.0173,-3.363223517549999,0.0788899832000007
mp-779428,Sr4HfO6,3.7468,-3.363052795227273,0.0651481047727227
mp-14048,Sr3Al2(SiO4)3,4.4318,-3.3627991028750013,0.091681825624982
mp-21542,K2CeTa5O15,0.048100000000000004,-3.362597566249999,0.0
mp-773073,Ba8Ta7O24,0.0,-3.3625165776923067,0.0413681668717949
mp-566537,Sm3BWO9,3.8084000000000002,-3.3623657286011897,0.0
mp-18584,Ho2SiSeO4,2.565799999999999,-3.3618592151367186,0.0080467980468768
mp-33335,MgAl2O4,4.251799999999999,-3.361855920238096,0.0269695147619053
mp-530748,MgAl2O4,4.1392,-3.3618280466071417,0.026997388392858
mp-754218,Tb2SeO2,2.1367,-3.361639495552083,0.04283473
mp-21757,Eu3Al5O12,0.0,-3.36140039675,0.0021035340000015
mp-555284,Ba2NdAlO5,3.6856,-3.3613807093055548,0.0044491509722215
mp-561050,BaCaSiO4,4.3673,-3.361167621607143,0.070392827678571
mp-6766,CaMg(SiO3)2,4.9716000000000005,-3.3609194527499997,0.0
mp-558239,Rb4U5O17,1.5170000000000001,-3.3597538828365385,0.005692308749996
mp-674334,Ca2SiO4,4.3743,-3.3591221628571435,0.1282102521428578
mp-982662,Eu2MgSi2O7,0.011800000000000001,-3.358890582812501,0.0
mp-766208,Ba3LiTi5Nb3O21,2.0419,-3.35870346165404,0.0110509107575786
mp-17633,Er2SiSeO4,2.5551,-3.3586208166992204,0.0262033888281258
mp-4271,EuTaO4,0.0,-3.3583992275000014,0.0095291808333328
mp-3463,CaTi2O4,0.0,-3.3580592380952377,0.0257477725595247
mp-560036,Li2Ca3Be3Si3(O6F)2,5.7347,-3.3580205278952007,0.0
mp-1020642,Sr3Y2(BO3)4,4.5074,-3.35793333436508,0.0397206493650781
mp-11772,Ba3Ti3(BO6)2,2.1313,-3.357906193916668,0.0264322531666607
mp-778473,Gd3SbO7,2.525899999999999,-3.3578426210227263,0.0162561084090882
mp-5840,LiScO2,3.904,-3.3576563481249995,0.0
mp-15275,NaGdTiO4,2.2347,-3.357522690238097,0.0259118035714269
mp-761136,NaTi8O16,0.0,-3.357445911933333,0.0709598430999864
mp-13791,BaNaNd(SiO3)3,4.7404,-3.3572634292500014,0.0020034881666646
mp-18043,Sr6YSc(BO3)6,4.4962,-3.3572066101562505,0.0
mp-6803,Sr3Pr2(BO3)4,4.5407,-3.3570868923412696,0.0008206208333341
mp-4393,Cs4U5O17,1.5343,-3.3567695416826933,0.0
mp-5487,Sr3SiO5,3.760299999999999,-3.3566396479166656,0.0055843983333341
mp-6553,LiSc(SiO3)2,4.9196,-3.3565174702499996,0.0012256129999919
mp-6099,LiSc(SiO3)2,4.929,-3.356503151,0.0012399322499927
mp-770950,LiLa4MnO8,1.7081999999999982,-3.356271209711428,0.0359531310714338
mp-769845,LiLa4MnO8,1.6309,-3.3561738350685717,0.0360505057142894
mp-650929,Na2Ti9O19,2.1886,-3.355891063791665,0.0334534445833352
mp-557798,K5Li2NdF10,6.452199999999999,-3.3558909359388887,0.0
mp-531793,MgAl2O4,4.020999999999999,-3.355786425,0.0330390099999995
mp-677121,KBaAl3Si5O16,4.7151,-3.355753083461538,0.0106176927884593
mp-13748,Cs3SiF7,5.633800000000001,-3.3554439498481816,0.0030332259090908
mp-706524,Sr3La4O9,2.4813,-3.355140293828125,0.2332241937500008
mp-5468,Na3AlF6,5.8904,-3.3549607282140004,0.0596658050000007
mp-38843,CaTa2O6,2.0946,-3.3549382641666674,0.1447806338889261
mp-10960,Tb2Ti2S2O5,0.7039000000000001,-3.3548882285795463,0.0
mp-20980,NaNdTiO4,2.4465,-3.3547813513095237,0.0059109689285765
mp-556123,Sr2Sc2B4O11,4.3418,-3.354774525811404,0.0063230480921028
mp-743716,Ca5Y3Ti5Mn3O24,0.5491,-3.3546067178428336,0.0203120062810899
mp-28503,Al10Si2O19,3.3810000000000002,-3.354572811895162,0.0612050212903216
mp-558320,K3U3Si2O13,0.5497000000000001,-3.3543474555357142,0.0
mp-13859,K3SiF7,5.9196,-3.353953995757273,0.006583508181821
mp-556890,BaNaCr2F9,3.5693,-3.3539531210161537,0.0
mp-3799,GdSF,1.098399999999999,-3.353900320084167,0.0
mp-33997,TaO2F,2.0476,-3.3538416684225005,0.0855696287499956
mp-9512,SrAl2P2(O4F)2,5.4887,-3.353561997238032,0.0078003499999974
mp-705451,CsTiMnOF5,2.0199,-3.3532149049807405,0.0
mp-686745,Ba3LiTi5Nb3O21,2.1934,-3.3530796111994934,0.0166747612121245
mp-850283,HfNbO4,0.0,-3.352180325833333,0.1238213729166659
mp-768814,Y2GeO5,3.397599999999999,-3.352084595781249,0.0116423234375009
mp-782035,Al2O3,4.662399999999999,-3.351978652083334,0.0901348486666666
mp-12240,Na2LiBe2F7,6.9483,-3.3515665806941666,0.0
mp-14328,Pr3GePO9,4.5689,-3.351409782096089,0.0
mp-685242,Sr7Al12O25,1.1673,-3.3513386920738633,0.1088725927036078
mp-768873,Y2GeO5,3.7621,-3.3511282623437504,0.0125986568749993
mp-755483,Al2O3,4.0029,-3.35098588275,0.0911276180000006
mp-560631,KUSi2O7,0.5872,-3.3509778142045463,0.0
mp-20763,Na2Gd2Ti3O10,1.712399999999999,-3.350583183676469,0.0733417884705467
mp-778814,Tm2WO6,3.6258,-3.3501892194444447,0.0
mp-691065,K6Ba2CaU6O24,1.9524000000000001,-3.3501316711538465,0.0229871608974363
mp-705457,Ba3La2Ti3Cr2O15,1.5316,-3.35004955035,0.0298667966000039
mp-559348,BaZr(BO3)2,4.1141,-3.3499669310833324,0.0
mp-19502,BaTi18Mn3O38,0.0,-3.349936385506332,0.0108489913173297
mp-12264,LiYbF4,0.0,-3.3497227407933337,0.001906877083333
mp-18610,Sm2SiSeO4,2.6087000000000002,-3.34955928388672,0.0
mp-9650,MgTa2O6,2.8397,-3.3495134741666672,0.0
mp-12243,Rb3SiF7,5.6568,-3.3492793648481816,0.0034870436363636
mp-867613,LiTi4O8,0.0,-3.3491941800000005,0.0307456951281981
mp-540784,Rb2Ti6O13,2.6209000000000002,-3.3491285188690485,0.0
mp-6174,Mg2Al4Si5O18,4.8175,-3.34912329887931,0.0
mp-780869,Tm2WO6,3.215099999999999,-3.3487812884722232,0.0014079309722241
mp-1938,Al2O3,5.313199999999999,-3.34874911175,0.0933643890000004
mp-17025,Sr3Y(BO3)3,4.4201999999999995,-3.3481399802343743,0.0025146508333353
mp-755355,La2Pr2O7,0.0,-3.3480824103409104,0.1228637535227274
mp-9392,Sr4Al6TeO12,2.8466,-3.3480037489130434,0.0
mp-10390,Ta2O5,1.2267000000000001,-3.347377802321428,0.0075678185714291
mp-1019381,Al7Si3BO18,4.6157,-3.347369042298851,0.0170866710344874
mp-23121,Sr5P3ClO12,5.0783,-3.3473686248831296,0.0
mp-1019562,Ca2SiO4,4.1723,-3.347358215714286,0.1399741992857155
mp-675733,Y5(ReO6)2,0.0,-3.3470458814473703,0.0
mp-759786,Na2Ti7O15,2.8839,-3.3469054427256943,0.0100674476041771
mp-675134,Sr5Ti5O13,0.0,-3.346830946068841,0.0488614884057181
mp-684652,BeF2,6.800199999999999,-3.3467315513488884,0.223525576388889
mp-760075,Ti19O30,0.0,-3.3459920486564614,0.0119291273469581
mp-31016,Ca4Nb2O9,3.264099999999999,-3.3457081764166663,0.0
mp-4126,KUO3,0.4454,-3.345606454750002,0.0
mp-13973,Gd2SeO2,1.3184999999999991,-3.34541459821875,0.0
mp-17562,Sr3Sc(BO3)3,4.635499999999999,-3.345217669453124,0.0
mp-694056,BaMg2Al6(Si3O10)3,3.8653,-3.34516903703125,0.0286500809895819
mp-560039,NaY(SiO3)2,4.709,-3.345027905500001,0.0012293762499844
mp-769345,Ho3ReO8,1.7189,-3.345004395,0.0
mp-756270,Lu4(B2O5)3,5.2305,-3.34493809555,0.0916673624249977
mp-565583,Gd3BWO9,3.1839,-3.3449236123511894,0.0
mp-674298,Al22CdO34,2.258399999999999,-3.344606369342105,0.0252365269298247
mp-556167,SrAl4O7,3.2333,-3.344376693645833,0.1356274562499972
mp-42190,K2NaTiOF5,3.9585999999999992,-3.344237142386666,0.0
mp-772243,La4MnO8,1.367599999999999,-3.3441170954584623,0.0834709964182689
mp-638261,La2GeO5,4.015499999999999,-3.343985093906249,0.0
mp-559770,Nd4Ga2O9,3.601299999999999,-3.343378156416667,0.0018225200833272
mp-5185,K2BeF4,6.8711,-3.342615903894285,0.0
mp-558195,Ba2HoB2ClO6,4.0836,-3.342232633674445,0.0
mp-694012,Ca3YAl3B4O15,4.4422,-3.3420527136698723,0.0338093868589677
mp-755043,Al2Si2O7,5.0535,-3.341913128977273,0.020163587499999
mp-38307,MgAl2O4,4.536799999999999,-3.341852794285714,0.0469726407142863
mp-18959,Y2Be2Fe(SiO5)2,3.9209,-3.3415737180882363,0.0
mp-754604,BaBePO4F,6.0427,-3.341573106160655,0.0
mp-769598,La4MnO8,1.2887,-3.3412230643046152,0.0863650275721159
mp-557163,TaPbF7,5.127800000000001,-3.3411695975922218,0.0
mp-14457,Na3Li3Ti2F12,0.0,-3.3411349231306664,0.0
mp-560818,Sr5B3O9F,4.1747,-3.3409820844411104,0.0026150547222192
mp-675172,TaAlO4,1.8382,-3.340869232499999,0.0796782291666655
mp-565233,Nd3BWO9,3.802399999999999,-3.340566099315476,0.0
mp-13972,Sm2SeO2,2.1358,-3.3399565592187512,0.0
mp-684907,U12O19,0.0,-3.3398119378629025,0.1298182172580677
mp-758428,Ti3NbO8,0.0,-3.339733197083333,0.0323103778525695
mp-25305,Y2Ti2S2O5,0.7881,-3.339691219337122,0.0
mp-773512,Tm2WO6,3.7668999999999992,-3.339500167500001,0.0106890519444462
mp-10347,CsCa2Ta3O10,2.1782,-3.339437000156249,0.0231031252678608
mp-674423,Sr20Ta8O39,0.0,-3.3390810941604485,0.0345866840298523
mp-554342,Hf3Cd3AgF20,0.0,-3.3388510825481488,0.0
mp-6178,Cs2KTiF6,0.0,-3.338749277380667,0.0
mp-5263,Ca4P2O9,4.4843,-3.3386475304960324,0.0
mp-41109,Ca3Er3Ge2BO13,3.6346,-3.338389765132576,0.0
mp-550751,BaBeSiO4,4.5484,-3.3383847414285706,0.0
mp-773061,Ba6Ti7Nb9O42,0.0,-3.33825625436198,0.0014195235658469
mp-531459,MgAl2O4,3.3267,-3.3382305242857147,0.0505949107142846
mp-4632,Sr3(PO4)2,5.4064,-3.33822234047619,0.0
mp-555850,LuSF,2.614099999999999,-3.3380581034175,0.0
mp-3632,YSF,2.559299999999999,-3.337811640084168,0.0262620291666682
mp-34330,MgAl2O4,4.356599999999999,-3.3377504071428565,0.0510750278571423
mp-15312,Ca4Al6TeO12,3.1457,-3.33749684673913,0.0
mp-556703,Ba3Mg(SiO4)2,4.6934000000000005,-3.3373132454761905,0.0183418979166596
mp-677497,SrMg2Al6(Si3O10)3,3.836,-3.3369407623437497,0.0242452722916688
mp-1020648,NaLaSiO4,4.454600000000001,-3.336901708809524,0.0
mp-17939,Na2SiF6,6.8676,-3.3368789389414824,0.05914996
mp-5999,Sm2Ti2S2O5,0.779899999999999,-3.33682638751894,0.0
mp-18466,Nd2SiSeO4,2.6009,-3.3366628929492186,0.0
mp-755373,Lu2GeO5,3.4948,-3.33654610515625,0.1009203857421869
mp-7074,NaSc(SiO3)2,4.950100000000001,-3.3364528882499997,0.0
mp-567056,Er2WO6,3.2025,-3.336286925138889,0.001523465416664
mp-758829,Nb2OF8,4.2124,-3.3362865425700003,0.0124956770454556
mp-554778,NaY(SiO3)2,4.8028,-3.3360112440000003,0.0102460377499848
mp-531132,Ca3(PO4)2,4.9795,-3.3358561497069603,0.0
mp-675710,K2U2O7,1.6176,-3.3358425880681817,0.0050041572727455
mp-761148,Ti9SnO20,1.7902,-3.3357745339999987,0.0436588294166657
mp-760439,TaTiO4,0.0,-3.3356169011111105,0.004287900000012
mp-6899,CaBePO4F,6.1019,-3.335304442723155,0.0063669626562532
mp-10970,LiErO2,4.110799999999999,-3.334889560625,0.0
mp-559759,CaAlBO4,4.6961,-3.334864526309524,0.0
mp-705452,SrLaTaMnO6,2.6272,-3.3347927798460004,0.0
mp-14386,Ba3Lu(BO3)3,3.8583,-3.3345937657031257,0.0
mp-769344,Ba4Ta2O9,3.370599999999999,-3.334395269749999,0.0
mp-6680,RbCa2Ta3O10,2.2015,-3.33411285265625,0.0264126358035721
mp-554364,MgBeAl4O8,5.528399999999999,-3.333935649821428,0.0462378802976193
mp-5449,Na2Ti6O13,2.916699999999999,-3.3338503060119065,0.0
mp-1019575,Ca4Al6SO16,4.419,-3.3334355393171298,0.0
mp-15626,Rb2NaTiF6,0.0,-3.3333226738806667,0.0
mp-756035,LiTi4O8,0.0,-3.33325527051282,0.0466846046153772
mp-756194,Tm4(B2O5)3,5.0617,-3.3332002587499985,0.0879535219300038
mp-677709,Na3Sr7Ti7Nb3O30,1.7047,-3.3327970869833323,0.0241000740999997
mp-10971,LiErO2,4.171,-3.332256424375,0.00263313625
mp-558688,Ba2Sc2B4O11,3.3548,-3.3322228205482483,0.0082098021271903
mp-29760,Ca10P6O25,3.1485,-3.331971651702961,0.0049057348780827
mp-18509,KBe3ZnF9,6.2447,-3.3313447721935714,0.0
mp-572124,SrTi2O5,1.9511,-3.3311131288541667,0.2191825895312468
mp-17229,RbBe3ZnF9,6.2801,-3.3311018364792857,0.0
mp-558079,Ca3Mg(SiO4)2,3.8228,-3.331021263214286,0.1014887133928566
mp-685036,Al2O3,3.299399999999999,-3.33100146325,0.1111120374999998
mp-684768,Sm2O3,0.0,-3.33064434075,0.5487573487499997
mp-754537,LiLuO2,4.7738,-3.330262765625,0.0683640700000003
mp-775211,Ho2WO6,3.6157,-3.3300821149999997,0.0
mp-581114,Cs2YSi4O10F,4.8312,-3.3298473611077783,0.0
mp-14385,Ba3Tm(BO3)3,3.843599999999999,-3.329803423828125,0.0
mp-680432,Sr10Al6O19,3.6919,-3.3296897136071433,0.0137593452499995
mp-3009,Rb2BeF4,6.6674,-3.3295326274657135,0.0
mp-760244,Ca4Nb2O9,2.977,-3.3294917567499995,0.0162164196666658
mp-505089,Li4TbF8,0.0,-3.3294646954117946,0.0096509920238441
mp-769783,LuVO3,1.6225999999999992,-3.3293837557500003,0.005173328999998
mp-3032,RbBF4,7.737,-3.3293270185711115,0.0
mp-39288,BaLaMgNbO6,2.7808,-3.3291834207499997,0.0904104103333338
mp-866662,K5La4Si4O16F,4.661,-3.3290848662063337,0.0
mp-662566,Ca4Al6SO16,4.4663,-3.32856398431713,0.0048715550000002
mp-774479,LiCa2Ta3O10,2.1736,-3.328354560781249,0.0658326735565424
mp-760359,NaTi6O12,0.0,-3.328328399473684,0.0715220211842027
mp-752918,NaTi6O12,0.0,-3.3279250642105267,0.0719253564473589
mp-558435,KYb2F7,0.0,-3.3278501663330005,0.0343766277499986
mp-973892,EuAlO3,0.0,-3.327772175749998,0.0095285650000018
mp-1019518,Ba2CaSi4(BO7)2,4.8764,-3.327287491992754,0.0
mp-778918,TmVO3,1.6208999999999991,-3.3267443312500005,0.0
mp-19976,Ce4S3O4,0.0,-3.3266224556534083,0.0
mp-557696,Na5Y4Si4O16F,4.7696,-3.326160327706333,0.0188240396666614
mp-6446,Ba3La2(BO3)4,4.0127,-3.3253994440079366,0.0150178552539728
mp-770571,Ho2WO6,3.7755,-3.3253615175,0.0047205975000004
mp-684265,Mg2Al4Si5O18,4.3459,-3.3253266814655165,0.0237966174137929
mp-566052,Pr3BWO9,3.801599999999999,-3.3251820344940475,0.0
mp-755609,Y2SeO2,2.0962,-3.3250056832187496,0.0539329720000019
mp-695172,CsMg12Al25Si29O108,4.346,-3.3243917493428574,0.0216553036699975
mp-561095,LiHo3Ge2(O4F)2,4.1635,-3.32422861702375,0.0018122610937512
mp-4929,KBF4,7.9327,-3.3242271927377764,0.0
mp-770559,Dy2WO6,3.623,-3.3239033609259265,0.0
mp-776497,Li2La3Ti2Nb2O13,0.0,-3.3237022108901524,0.1077889554261339