mpid,formula,BG,FE,e_hull
mp-638731,LaCO3F,3.9559,-3.1480660301288887,0.0
mp-776092,Li3V2F9,2.3215,-3.148008878265,0.0788848340476109
mp-768345,Ba2B2O5,3.8444000000000003,-3.1479537963425916,0.0067765708333338
mp-555485,Rb2GdGa(SiO3)4,3.3463,-3.14736661975,0.0
mp-554566,BaLiCoF6,2.2721,-3.1472914374600003,0.0
mp-773016,Lu2P4O13,5.344,-3.14721837071742,0.0607722138815791
mp-1020141,Na2Al2Si3O10,4.4468,-3.147087535147058,0.0437614532720571
mp-779308,SrLiLa7(CoO8)2,0.5669000000000001,-3.1470750148148148,0.0198188883569248
mp-583646,Na2Gd2B2O7,3.0607,-3.147037342083334,0.0
mp-19296,SrVSi2O7,2.8073,-3.1470009226136364,0.00321160947726
mp-16032,Pr2TeO2,1.655599999999999,-3.1468235425000004,0.0
mp-752643,NaTi2O4,0.0,-3.1468089626190467,0.0088302667857025
mp-763438,Li2VF6,2.0805,-3.1466817344044458,0.018033672500012
mp-556532,CaAlB3O7,5.380199999999999,-3.146601691145834,0.0162065552083241
mp-769861,Gd2V2O7,1.3003999999999991,-3.1465452435227275,0.0712043468181828
mp-774719,Ba4Nb3O12,0.0,-3.1465406863157903,0.0518743589309185
mp-6131,Ba3Yb(BO3)3,0.0,-3.1458005511197924,0.0
mp-776494,LiVF4,2.0631,-3.1457410332933344,0.0829818733333427
mp-1020637,Sr3BeB6O13,4.7944,-3.145601165597826,0.0
mp-765185,LiV2F7,2.657699999999999,-3.1451662138330003,0.0824710339999894
mp-778409,LiVF4,2.0654,-3.1451321216266668,0.0835907850000099
mp-19269,NdCrO3,2.3395,-3.14502703475,0.0
mp-34584,Zr4N2O5,2.377399999999999,-3.144922160773636,0.0238275270454533
mp-555087,Ba5Si(Cl3O2)2,4.548599999999999,-3.1446326640350004,0.0
mp-684817,K2LiTa6(PO8)3,3.0471,-3.1445585301190473,0.0
mp-559066,Ba3Y(BO2)9,5.187699999999999,-3.1445239258064515,0.0081266599999878
mp-19165,BaFe(Si2O5)2,3.6492,-3.1443335740625,0.0
mp-3666,LiTaO3,3.7003,-3.14432123475,0.0
mp-753593,Ti10O13,0.0,-3.14424409621377,0.0361135226086872
mp-677549,Ca2Al2SiO7,3.2089,-3.1441903144791663,0.3328511893749989
mp-29327,SmBrO,4.5207,-3.1440871729166666,0.0
mp-782001,Li8La4TiNb7O28,0.0,-3.143994979826389,0.0361769372916676
mp-764375,Li2VF6,1.970799999999999,-3.1439702807933334,0.0207451261111248
mp-677042,Na7Zr4Si5PO24,4.4485,-3.143872814465737,0.0111603091463505
mp-12187,Na2Mg2(Si2O5)3,4.410299999999999,-3.14379118095,0.0
mp-772562,Nd2V2O7,0.0,-3.143788929431818,0.0627363713636377
mp-754883,KHoO2,3.9758,-3.143725901875,0.0
mp-42054,BaLaTaZnO6,2.5384,-3.14362582625,0.1112783843571527
mp-24886,Sr2UCoO6,1.4171999999999991,-3.1436003837499995,0.0269002435
mp-695512,Na3LaTi2Nb2O12,1.723,-3.1434389919166663,0.0193530554750012
mp-866647,AcCrO3,1.768399999999999,-3.1434184322499994,0.0
mp-764802,Li2VF6,1.75,-3.143383929867408,0.0213314770370507
mp-771174,Ba2B2O5,3.8166,-3.143351272453704,0.0113790947222227
mp-9259,Ba2Mg(BO3)2,4.532399999999999,-3.1427603600757568,0.0
mp-6585,CaMgB2O5,5.311999999999999,-3.142654168287036,0.0019412643055538
mp-775959,LiLa7(CuO7)2,0.036999999999999006,-3.1425645019791664,0.036189092499999
mp-566107,K6U5V2O23,1.766,-3.1425206466319446,0.0
mp-756294,Li2Ti2O5,3.7434,-3.1425074560648145,0.0276278048147897
mp-653861,K3Lu(SiO3)3,3.4819,-3.1424421291406253,0.005298021968751
mp-504885,BaFe(Si2O5)2,3.5786000000000002,-3.1420394832812493,0.00229409078125
mp-638406,Ba3MnNb2O9,1.767299999999999,-3.1419809988139997,0.0
mp-755658,CePrO2,0.0,-3.141786306875,0.0423532608333339
mp-505268,BaLu2CuO5,0.0,-3.1417422131944437,0.0467232462499991
mp-764769,Li4VF7,2.6044,-3.141725227360834,0.074755774444438
mp-974336,HoO,0.0,-3.141551223125,0.2351328729166661
mp-756290,TbGaO3,3.635599999999999,-3.141548596416668,0.0467985066666667
mp-767455,SrLiLa3FeO8,0.9437000000000001,-3.1415433935714288,0.0110537299999968
mp-778314,LiVF4,0.0,-3.1414612864183336,0.0872616202083431
mp-1020654,SrBeB2O5,5.6873000000000005,-3.1413362307870365,0.0
mp-561141,KYP2O7,5.2001,-3.1412370970400434,0.0097005375000067
mp-8056,Ca(BO2)2,6.020300000000001,-3.1412038765476185,0.0
mp-534778,NaCa2ScZn2(SiO3)6,4.2934,-3.1408519210833328,0.0269344044444421
mp-554346,KSr4(BO3)3,4.173,-3.1407407747794123,0.0
mp-558033,Na2Ca3Ta2O9,3.712799999999999,-3.1407256907031256,0.0675157735937466
mp-31127,Sr3P4O13,5.2118,-3.1406396051815486,0.0055158764999934
mp-556963,SiO2,5.3934,-3.1406068894444457,0.1441060180555542
mp-626062,U3(HO5)2,1.9927000000000001,-3.1404969279826656,0.0405659795000019
mp-765896,LiV3F10,1.7610000000000001,-3.1404874394214284,0.0866845260714299
mp-766911,LiVF4,2.2904,-3.1404231024600016,0.0882998041666756
mp-759774,Na6Ti11O24,0.0,-3.140384644715448,0.0594463772357638
mp-644527,LiY2Ti2S2O5,0.0,-3.14017970939236,0.0473815787500111
mp-41795,LiAlPO4F,5.9117999999999995,-3.1401456474106557,0.0117462130208343
mp-540713,Ca2Al2FeSi4BHO16,3.9301,-3.1398321544550623,0.0017683227932101
mp-561098,LiUPO6,2.1007,-3.1398263678439133,0.004018925079368
mp-677244,Tb5(RuO6)2,0.0,-3.1397031527192985,0.0
mp-554886,Ba3Nb2(P2O9)2,3.1326,-3.139586066847444,0.000588177384257
mp-21421,Pu2SO2,0.0,-3.1395030900624987,0.0
mp-18469,SrMgP2O7,5.366,-3.1393839256764067,0.0
mp-675011,CsPF6,7.1409,-3.1393652406544046,0.0
mp-561330,Na3Li3Cr2F12,4.0883,-3.1393245763389994,0.0
mp-6486,SrBPO5,5.3818,-3.1392943776264883,0.0
mp-756648,LiNdO2,3.611,-3.139274351875,0.0121162659375002
mp-556283,Na2TiSi4O11,2.732299999999999,-3.1392230150231475,0.0114117563888154
mp-756632,NbO2F,1.2697,-3.1391716134224987,0.0469313362499903
mp-777807,Li2VF5,2.0367,-3.1390296435562504,0.0864921730208223
mp-15541,KNa2Si12(BO10)3,5.1362,-3.1389782564062503,0.0
mp-9749,Sr(BO2)2,4.9456,-3.13860976547619,0.0
mp-667292,K2MgSi5O12,4.484100000000001,-3.1385297118750013,0.0
mp-40451,NaGd3Ti2(SbO7)2,2.0437,-3.138524189356062,0.0
mp-7848,AlPO4,5.663699999999999,-3.1384651505158723,0.0
mp-977152,NpTiO3,0.0,-3.1383431938333346,0.194108589999999
mp-561291,SiO2,5.265300000000001,-3.1382874354166668,0.1464254720833331
mp-754263,Ho2CuO4,0.0,-3.1382807535714283,0.0284172132142988
mp-762800,Li4VF7,0.0,-3.138214234444167,0.0782667673611046
mp-766057,V4OF11,1.5669,-3.1380748408962513,0.0010249296874995
mp-780240,Gd2P4O13,3.2682,-3.1380555892700506,0.0194989882894898
mp-6150,Na4Zr2(SiO4)3,4.321199999999999,-3.1380524135714287,0.0
mp-766617,V4OF11,1.5875000000000001,-3.1380437852712504,0.0010559853125018
mp-781049,V4OF11,1.4506000000000001,-3.1380351977712504,0.0010645728125018
mp-558039,Sr2HoSbO6,3.6365,-3.1379777417500008,0.0
mp-779347,V4OF11,1.521599999999999,-3.1378918265212503,0.0012079440625019
mp-766602,V4OF11,1.486,-3.1378891158962503,0.0012106546875001
mp-6565,Li3Sc2(PO4)3,4.7407,-3.1378745604642866,0.0
mp-765499,Li3VF6,2.4358,-3.1378371807140013,0.0857639818333266
mp-556633,Na3VF6,2.5425,-3.137807430714002,0.0
mp-764187,V4OF11,1.4857,-3.13779676245875,0.0013030081250002
mp-774050,V4OF11,1.5045,-3.1377826208962505,0.0013171496875017
mp-774387,V4OF11,1.4979,-3.13775709308375,0.001342677500002
mp-560105,K3Ho(SiO3)3,3.7625,-3.1377428397656253,0.0007943170208335
mp-782703,V4OF11,1.5199,-3.1376922562087506,0.0014075143749998
mp-767641,LiV2F7,2.6584,-3.1376867828329997,0.0899504649999896
mp-556940,MgSiO3,3.8758,-3.1376484469999997,0.112961976500002
mp-556880,SiO2,5.020300000000001,-3.1376184491666663,0.1470944583333331
mp-780304,V4OF11,1.4304000000000001,-3.1374313090212507,0.0016684615625015
mp-557438,Sm2Ti3(BiO6)2,1.899499999999999,-3.1374263810526317,0.0396553140131494
mp-766143,V4OF11,1.5057,-3.13721620058375,0.0018835700000021
mp-40685,NaSm3Ti2(SbO7)2,2.2791,-3.136981292196971,0.0
mp-6847,KY2Ti2S2O5,0.0,-3.136880796892361,0.0313420041667438
mp-863858,Li4V2F9,0.9705999999999991,-3.136823041047334,0.0365435808888801
mp-774742,Li3Sc2(PO4)3,4.6105,-3.1366944009642865,0.0011801594999987
mp-769938,TbPrO4,0.0,-3.1366808501388883,0.0934390348958329
mp-867649,LiTi(Si2O5)2,0.5326999999999991,-3.1365771283854165,0.0842206799479079
mp-4051,AlPO4,5.475,-3.136346995515872,0.0021181550000051
mp-22690,TbCdF6,0.0,-3.1363280219341667,0.0473445554762497
mp-15983,Ba2NaNb5O15,2.4651,-3.136317515380436,0.0146117695652154
mp-1020634,SrMgB2O5,4.6961,-3.1362796635648147,0.0
mp-32404,Ta2VO6,0.8707,-3.1360998958333344,0.0
mp-17662,Lu2PdO4,0.5854,-3.135992703571429,0.0482663012499999
mp-21394,EuO,0.0,-3.135917898125001,0.0
mp-34898,Zr4N2O5,2.0388,-3.1358793228190915,0.0328703649999972
mp-640357,Al2SiO5,4.0596,-3.135749532968749,0.2553386118750005
mp-2939,BaTbO3,0.0,-3.1355752694166674,0.0911148819999985
mp-560956,Cs2KCrF6,4.067,-3.1354911777139995,0.0
mp-771342,Gd2P4O13,2.9666,-3.135458280454262,0.0220962971052784
mp-5924,MgSiO3,5.7928,-3.1353791707500007,0.1152312527500019
mp-556865,NaBe2BO3F2,5.9419,-3.135374640310741,0.0058175916666645
mp-942733,Li7La3Zr2O12,4.450799999999999,-3.135321317916668,0.0072710037500023
mp-4412,La4Se3O4,1.3261,-3.1353040437073862,0.0
mp-863031,KNaGdTaO5,2.7073,-3.1352895629166664,0.0
mp-560939,NaLaP2O7,4.4754,-3.1352549865854984,0.0
mp-23648,Li4Al3Si3ClO12,5.2612,-3.13519483535913,0.0
mp-545719,SiO2,4.8294,-3.135062028333333,0.1496508791666659
mp-6772,CaBe2(PO4)2,5.8263,-3.13480506720696,0.0
mp-5779,Sm3RuO7,0.0,-3.1343813528409097,0.0049668434090914
mp-772049,Li2Ti2O5,3.760399999999999,-3.13432626550926,0.0358089953703437
mp-554252,K2NaCrF6,3.9821,-3.134314795214,0.0
mp-763731,LiV3F10,1.7053,-3.1340704119214284,0.0931015535714401
mp-765238,Li4V3OF11,2.1408,-3.1340008557547367,0.0315978659649065
mp-1017439,SrSiO3,2.3766,-3.1337462607499997,0.3248571436666738
mp-8110,AlBO3,5.830899999999999,-3.1336060860833337,0.0304349868461546
mp-761285,Sc2V2O7,0.605699999999999,-3.133508949886365,0.0324876494318182
mp-32310,Ba3Ta2NiO9,3.3673,-3.133504689416667,0.0
mp-30146,CaSn2F6,3.5026,-3.1334778457933337,0.0048917277777764
mp-755624,Ca2PrO4,0.0,-3.133416708571428,0.098390567410715
mp-6040,BaBPO5,5.495,-3.1333598513764884,0.0
mp-759302,Yb2TiO5,0.0,-3.1332519797395837,0.1236350414062492
mp-22202,BaTm2CuO5,0.0,-3.1332438990277773,0.0382813301389015
mp-778401,LiVF4,1.243399999999999,-3.1330603707933324,0.0956625358333447
mp-15558,Li3GaF6,6.2804,-3.133027110547333,0.0
mp-18343,BaMgP2O7,5.322800000000001,-3.1328617140854984,0.0
mp-18961,ScCrO3,2.4812,-3.1322793912500004,0.0345398643750041
mp-861607,KNaNdTaO5,3.5102,-3.13222111375,0.0
mp-777529,Li2VF6,1.9224,-3.1318859189414816,0.0328294879629762
mp-557994,Ba3Sc(BO2)9,5.2789,-3.1315694939516137,0.0067238773185245
mp-557915,AlPO4,5.4597,-3.1315300574603184,0.0069350930555591
mp-779989,Gd2P4O13,3.3476,-3.1313452380858413,0.0262093394736986
mp-561336,Li2Mg2Si4O11,4.9276,-3.1313314780921044,0.0151695085526277
mp-565819,Ca5V3O12F,3.8685,-3.1312565952947615,0.0
mp-554315,CaBeB2O5,5.6922000000000015,-3.1311599971759265,0.0042543597222195
mp-767498,Li10Ti11Nb6O42,2.191799999999999,-3.1310857347222214,0.0338333768840612
mp-30088,Ba3P4O13,5.1231,-3.130991323931548,0.0006434726249811
mp-560936,Rb2NaCrF6,3.9409,-3.1309705452139984,0.0
mp-541299,Zr4Cd(PO4)6,3.7527,-3.130673820102042,0.0
mp-697836,SrUO4,0.7591000000000001,-3.1301622525,0.5538842166666988
mp-27896,BF3,8.132,-3.130128746934166,0.0007683828125006
mp-560407,KNbSi2O7,3.431,-3.1298425471590905,0.0
mp-780016,V4OF11,1.061499999999999,-3.1298290393337505,0.0092707312500017
mp-675472,Al17(NO7)3,4.033499999999999,-3.129663282765609,0.0420869107317098
mp-3955,AlPO4,5.612399999999999,-3.1296363521825383,0.0088287983333339
mp-561072,Sr2DySbO6,3.6563,-3.129571347416668,0.0
mp-541740,TaPO5,2.9698,-3.1295031179421744,0.0
mp-557969,LiLa2S2O8F3,4.5891,-3.129501892605937,0.0
mp-581413,Ta2Hg2F11,0.934099999999999,-3.1294777743726665,0.0
mp-555002,LiEr2S2O8F3,6.0868,-3.129301299012188,0.014173772343744
mp-8226,ThNF,2.2611,-3.1292919828566657,0.0
mp-555678,Na4Ti5O12,2.4965,-3.1292061456349205,0.0
mp-557604,AlPO4,5.667,-3.1290683282936507,0.009396822222226
mp-557362,AlPO4,5.5478,-3.129064355446429,0.0094007950694479
mp-761140,Na4Ti7O16,2.4747999999999992,-3.1290529595061725,0.0911061462962958
mp-6509,Sr3GaO4F,3.6831,-3.1290208017988883,0.0
mp-761033,Hf3N2O3,3.151799999999999,-3.1289820773137498,0.0
mp-557758,LaMg(BO2)5,4.744099999999999,-3.12888852240196,0.0
mp-778629,LiV4OF11,0.9877,-3.1287141202552937,0.0311937717647206
mp-558981,SrBe2(BO3)2,5.3456,-3.12859597939394,0.0079793072726968
mp-721330,Rb14Na3Al17Si31O96,2.0598,-3.1285405715217385,0.0925844622981317
mp-707977,AlPO4,5.540599999999999,-3.1285154516269844,0.0099496988888931
mp-758089,Li2Ti3O6,0.0,-3.128505282954546,0.0350185372727338
mp-545974,AlPO4,5.3232,-3.1283194196825392,0.0101457308333339
mp-1019510,AlPO4,5.478400000000001,-3.128267370515873,0.0101977800000039
mp-558056,AlPO4,5.4806,-3.128167348015873,0.0102978025000037
mp-720985,CaEr15Si8Se11ClO28,2.5023,-3.1280193741842384,0.0386775890429698
mp-23792,NaCa2Si3HO9,4.8456,-3.1279731956168755,0.0
mp-5859,AlPO4,5.508,-3.127942148154762,0.0105230023611158
mp-542336,BaTm2NiO5,2.149599999999999,-3.1279136543055555,0.0
mp-780771,LiV4OF11,1.3346,-3.1279131793729418,0.0319947126470729
mp-616668,Na2AlNiF7,5.2253,-3.127897144393636,0.0
mp-22524,CeP2O7,1.5859,-3.1278932094940477,0.0004299067499946
mp-769079,ScGaO3,3.1715,-3.1277860314166666,0.0046771147083344
mp-541280,BaLaGaO4,3.9475000000000002,-3.127776796071428,0.0075369633095299
mp-703673,YbVO3,0.399999999999999,-3.12776093225,0.0
mp-676987,Yb14Ti10O41,0.0,-3.1277522899679484,0.2071065267115397
mp-28620,Zr3SO9,3.805499999999999,-3.127717172716348,0.138417627499999
mp-557842,AlPO4,5.4534,-3.1276675023492064,0.0107976481666707
mp-19446,CaMn(SiO3)2,3.2619,-3.127568961846,0.0102555227499792
mp-3417,Ca(BO2)2,5.1925,-3.1275487129761905,0.0136551635714248
mp-555941,AlPO4,5.671200000000001,-3.1275349452380947,0.0109302052777824
mp-769499,LiLa8V8O32,1.1582000000000001,-3.1273937377551024,0.0830096366836752
mp-779379,LiV4OF11,1.108099999999999,-3.127375909078824,0.0325319829411911
mp-559145,AlPO4,5.662,-3.1273328881547617,0.0111322623611149
mp-8271,Ba2Ca(BO2)6,4.959300000000001,-3.1271978078571427,0.0
mp-560812,KU2(PO4)3,0.0085,-3.1270062405158727,0.0
mp-675254,AlPO4,5.353,-3.1269980399603177,0.0114671105555599
mp-5440,AlPO4,5.612,-3.1269225369047624,0.0115426136111151
mp-780915,V4OF11,0.9634,-3.1268342043337505,0.0122655662500017
mp-561027,AlPO4,5.5314,-3.126805906349206,0.0116592441666707
mp-5024,ZrP2O7,4.4725,-3.1265959314940472,0.0
mp-777078,Li2VF6,2.3686,-3.126395261904445,0.0383201450000125
mp-541338,AlPO4,5.6739999999999995,-3.1263854009325405,0.0120797495833366
mp-766910,Li2VF6,2.0229,-3.1262230602377783,0.03849234666668
mp-557754,ZrP2O7,4.0937,-3.1261423474940484,0.0004535839999988
mp-1019513,AlPO4,5.6296,-3.1260830749603183,0.0123820755555588
mp-777077,LiV4OF11,1.0343,-3.126049068196469,0.0338588238235448
mp-554273,AlPO4,5.4822,-3.12600011687004,0.0124650336458369
mp-27791,SrBe3O4,4.1295,-3.12586003125,0.0
mp-752673,Dy2CuO4,0.0,-3.1253433040476186,0.0249074371428212
mp-3219,EuPO4,0.0,-3.125332082599205,0.0
mp-560026,Mg5B3O9F,5.118399999999999,-3.1252707344411115,0.0
mp-773066,KTa2PO8,3.0048,-3.1251856023412707,0.0
mp-760007,Hf3N2O3,3.2891,-3.1251544323137503,0.0038276449999994
mp-755426,NdSmO2,0.0,-3.1251185506250003,0.0910316707812501
mp-686702,Ca4Al11Si13(AgO16)3,2.4763,-3.1249825073417723,0.1158081951898717
mp-572283,SiO2,4.9688,-3.124831461666666,0.1598814458333333
mp-752415,NbO2F,1.6800000000000002,-3.1248074234225003,0.0612955262499905
mp-554905,CaZnSi3O8,4.089399999999999,-3.124796321923076,0.00510130608974
mp-4873,Ce2TeO2,0.0,-3.124687416500002,0.0
mp-554185,AlPO4,5.6724,-3.124510623536706,0.0139545269791705
mp-37990,AlPO4,5.459099999999999,-3.1244470378492064,0.0140181126666707
mp-769881,Li3CrF6,3.9332000000000003,-3.124330183214,0.0378922215000105
mp-559860,SiO2,4.5099,-3.1242550641666664,0.160457843333333
mp-556826,Ca(BO2)2,5.456799999999999,-3.124248688214286,0.0169551883333305
mp-12958,BaSiO3,3.037699999999999,-3.123884118083334,0.2948903936666642
mp-6231,Ba2ErSbO6,3.3776,-3.1238608287500007,0.0
mp-861944,KNaPrTaO5,3.455,-3.123673478472221,0.0
mp-17298,SrTi4(PO4)6,2.7819,-3.12358058414966,0.0
mp-780283,Li4V3OF11,1.8082999999999991,-3.123305223649474,0.0422934980701699
mp-765544,Li4V3OF11,2.234499999999999,-3.123299458912632,0.0422992628070124
mp-557757,AlPO4,5.632,-3.123247707738096,0.0152174427777813
mp-767144,SrLa3MnO8,0.0,-3.1231479439200003,0.0814258430288354
mp-19673,Ba6Lu2(WO6)3,2.9893,-3.1231344904310343,0.0
mp-775161,Li2Ti3VO8,0.553199999999999,-3.1230653430357145,0.0
mp-743780,Ca2Al2FeSi3HO13,2.5432,-3.1222816374940923,0.0096808010984865
mp-859136,Li2VF6,2.1147,-3.121484401348889,0.0432310055555689
mp-780456,Ta2Nb3O12,0.0,-3.1214408851470585,0.0390823680882395
mp-20396,RbCa2Nb3O10,1.481399999999999,-3.121056203281249,0.0469422221875071
mp-707519,Mg16Si8HO32,0.0,-3.1209166483968422,0.0583065814277175
mp-4300,Yb2Si2O7,0.0,-3.120801090795455,0.0
mp-7480,RbLuO2,3.693099999999999,-3.120723153125,0.0
mp-1611,SmO,0.0,-3.120648321875,0.1121864193749999
mp-559549,K2LaNb5O15,1.8326,-3.120615311249998,0.0073969429710185
mp-980386,Yb2Nd2O5,0.186899999999999,-3.120580772361111,0.6118221358333331
mp-1019892,La2B8O15,4.385699999999999,-3.120494187283333,0.0229011199333335
mp-767649,Li2VF6,2.004299999999999,-3.120313873571112,0.044401533333346
mp-765306,Li5VF8,3.0323,-3.1201217133585715,0.0912734593452322
mp-6465,NaTi(SiO3)2,0.0,-3.1201150364166663,0.012654264593749
mp-560768,NaSr4(BO3)3,3.9798,-3.1200764108823527,0.0136610602205866
mp-775122,LiLaNb4O12,1.2726,-3.119746726944443,0.0685368197222171
mp-759333,Na7Ti11O24,0.0,-3.119305426150793,0.023117261369034
mp-766094,NbO2F,2.8979999999999992,-3.119210055297501,0.0668928943749893
mp-556264,KRb2CrF6,4.1253,-3.1190240297139997,0.0
mp-772213,La4CuO8,0.0,-3.1189280738461536,0.0596816337980765
mp-21989,Ca3Sc2(GeO4)3,3.466199999999999,-3.1189133688750004,0.0
mp-757853,Na4Ti5O12,2.9088,-3.1188567563492073,0.0103493892857162
mp-557047,Cs2NaCrF6,3.9440999999999993,-3.118735212214,0.0
mp-770251,Ti4VO8,0.0,-3.1186457635897433,0.1295059107692235
mp-582483,Na2Th(PO4)2,4.9462,-3.1186008699954213,0.0
mp-23068,NdBrO,4.481899999999999,-3.1184561529166666,0.0
mp-16804,LiCaPO4,5.1799,-3.1184542218707483,0.0009477469047505
mp-555861,Na2Th(PO4)2,4.9443,-3.1184461323992667,0.0001547375961559
mp-19122,BaSr2Mn2(Si2O7)2,1.619599999999999,-3.118433957366087,0.000661314882274
mp-779759,LiV4OF11,0.0,-3.1180752605494124,0.0418326314706032
mp-16831,CaTi4(PO4)6,2.7248,-3.1180748630068025,0.0
mp-6753,Ca5Si2C2O13,4.790699999999999,-3.1180721113068186,0.0051174194318219
mp-9427,NaYP2O7,5.2806,-3.1179946397673164,0.00185708234849
mp-753768,TbPrO4,0.0,-3.1178792597222222,0.1122406253124985
mp-693463,NaCa3ScZn3(SiO3)8,4.2163,-3.1175672996249997,0.0291357055625018
mp-12878,Sr2YSbO6,3.7004,-3.1174762605000015,0.0
mp-851120,KNa2Li3Zr2(Si2O5)6,0.0,-3.1174749634499994,0.0580565409129629
mp-554813,NbCrF6,0.0,-3.1174493933925,0.0
mp-2929,BaTbO3,0.0,-3.1173811694166664,0.1093089819999999
mp-6332,Li2TiSiO5,3.215299999999999,-3.1172909736574077,0.0
mp-505808,BaEr2CuO5,0.0,-3.117275815694444,0.0351192304166678
mp-677014,K2ErTi(PO4)3,2.5575,-3.1170161429448617,0.003001471907905
mp-6687,Ba2HoSbO6,3.4155,-3.11698338075,0.0
mp-17953,MgNb2O6,3.4118,-3.1169814402777782,0.0
mp-557802,K2Be(Si2O5)2,4.6976,-3.116941624558823,0.0
mp-699464,Ca3Be2Si3(HO6)2,5.0047,-3.116859701465456,0.0
mp-667310,AlPO4,5.4284,-3.1168209939418,0.0216441565740774
mp-31760,Sr2TaFeO6,2.0999,-3.1167722007500016,0.0
mp-684841,KMg3AlSi3(O5F)2,3.764699999999999,-3.1165166007439997,0.2215962385937482
mp-642216,MgSiO3,5.0524000000000004,-3.11633343925,0.1342769842500022
mp-558160,NaYCO3F2,5.2379,-3.11596048389125,0.0
mp-24402,CaAlSiHO5,5.242800000000001,-3.1159445077633325,0.0049543949999968
mp-733817,Mg16Si8HO32,0.0,-3.115761396467017,0.0634618333575449
mp-693682,Na25Zr11Sc5Si12(PO8)12,3.9101,-3.115515630820763,0.0252613832608821
mp-560954,SiO2,4.4788000000000014,-3.115442208333333,0.1692706991666632
mp-2542,BeO,7.459799999999999,-3.1151510381249987,0.0
mp-16136,Sr3TaGa3(SiO7)2,3.8521,-3.1149895333695654,0.0
mp-769800,SrEu4O5,0.0,-3.114954522625,0.0123201450000003
mp-769680,HfCrO3,1.5871,-3.11495427075,0.0917543404999978
mp-754165,ScGaO3,2.6997,-3.1146028477500014,0.017860298375
mp-767401,Gd2AsO5,2.2475,-3.1144799495312494,0.0443180793749853