mpid,formula,BG,FE,e_hull
mp-557125,K3ReClF6,1.8139999999999992,-2.6840772300363627,0.0087212804545462
mp-760729,Ca2Ga2Si(HO4)2,3.511199999999999,-2.6839531944826667,0.0
mp-505306,Eu2Sn2O7,0.0,-2.6838961226136364,0.0
mp-18555,KEr(SO4)2,5.8689,-2.6837640617187493,0.0005063865624981
mp-768995,Ba2Y5Cl19,4.269299999999999,-2.683580378824616,0.0975272919230772
mp-6135,Ba2PrIrO6,0.0,-2.683555514750001,0.0
mp-780178,Li8TiMn3(PO4)6,1.5922,-2.6835195035266217,0.0830897660119074
mp-778348,Ta2CrNO5,1.442,-2.683503332625554,0.0735515227777821
mp-558689,Ba2PrIrO6,0.0,-2.68341683175,0.0001386829999816
mp-770846,Ba3Sn2O7,1.670299999999999,-2.6834140940625004,0.0
mp-849666,Ta2CrNO5,1.3251,-2.6833740026255555,0.0736808527777803
mp-861566,Mn3Si3O10,1.280399999999999,-2.6833198018987487,0.0723298559374931
mp-777393,LiFeF3,0.001099999999999,-2.683248750214001,0.2318036434999957
mp-782698,Li2TiMnO4,0.0,-2.6831586790783333,0.0636331456249976
mp-776919,Ti3Fe2Te(PO4)6,0.11819999999999901,-2.6831450655158733,0.094204216310759
mp-764228,VOF3,3.0935,-2.683132812464,0.0476208769999999
mp-768638,Dy3Sb5O12,3.1578,-2.683125787,0.0
mp-777495,Li2VP2O7,2.7579000000000002,-2.6830524383283723,0.0245604479687502
mp-985608,Nd2O5,2.8438,-2.683001670892857,0.0307954678571427
mp-558708,Nd2Cu(GeO4)2,0.37460000000000004,-2.682961542307692,0.0047812614743589
mp-763573,Li5V(P2O7)2,2.6612,-2.6827205572867068,0.0696536445833295
mp-651934,CsCrP2O7,2.676599999999999,-2.682551413858225,0.0
mp-698025,Na2Si3(HO4)2,4.5496,-2.6824736533160003,0.0051315514999998
mp-505124,Sr7Mn4O15,1.3692,-2.682464095676538,0.0
mp-554066,Ba3Lu2Zn5O11,2.2892,-2.68242240875,0.0015626499404755
mp-849681,Ta2CrNO5,1.3735,-2.6823890870700007,0.074665768333336
mp-540636,WOF4,3.1048,-2.682321358501666,0.0107363741666661
mp-772009,Li3Nb4NiO12,0.628,-2.6822780642499997,0.0899242221249831
mp-761642,Li2Cr3Si3O10,2.184599999999999,-2.682192537638888,0.0334567886111099
mp-6301,Ba3CeRu2O9,0.0,-2.68197767975,0.0
mp-19057,CaNiP2O7,3.8717,-2.681833852267316,0.0056536752272737
mp-1013878,LiV3P3O13,1.2862,-2.6818173352767856,0.0140608239999728
mp-1020611,SrGe2(BO4)2,3.813099999999999,-2.681677375064102,0.0
mp-764724,Li4VO3F2,1.658499999999999,-2.6815757791130013,0.093959491249997
mp-555510,Sr2YbRuO6,0.0,-2.681541170750001,0.0
mp-10299,Ca4PdO6,1.822699999999999,-2.68153873659091,0.0
mp-771291,Li3Mn(BO2)5,4.0042,-2.681424364041753,0.0454241454823884
mp-766843,WOF4,3.1229,-2.6814199501683333,0.0116377824999993
mp-853168,V3(O2F)2,0.5223,-2.681336735819999,0.0482724638889031
mp-28073,UCuO4,0.0,-2.6811808291666672,0.0556962100000024
mp-23265,GdCl3,2.0054,-2.6811396799450007,0.0
mp-540686,CsPr(SO4)2,5.413600000000001,-2.6810269121354167,0.0
mp-849444,Li2Ti2NiO6,2.8432999999999993,-2.6809759600757577,0.0854007104545395
mp-768974,BaY3Cl11,4.2205,-2.680914937224,0.0932972553333364
mp-1013850,LiV2P2O9,1.4893,-2.6809029785671763,0.0103723941071649
mp-24875,HoCoO3,0.0,-2.680831404750001,0.0118713988749989
mp-760376,KTiO3,0.0,-2.6807220900833344,0.0890508938749796
mp-556425,SbF4,3.4408,-2.680584688077,0.0
mp-770339,LiVB2O5,2.1161,-2.6805501492592594,0.0590775781944419
mp-764389,Li3V2(O2F)2,0.0,-2.680451134307273,0.0801281457197182
mp-40189,BaLiLaTeO6,2.952599999999999,-2.680413378749999,0.0060495882291693
mp-556062,NaNb4Tl3P2O17,2.4915,-2.680285131757054,0.0
mp-764283,VOF3,2.8799,-2.6802577979640008,0.0504958915000015
mp-776062,Li2FePO4F,3.9356,-2.680215542837248,0.0112065731944488
mp-998322,CsInF3,0.0,-2.6801671837140004,0.0
mp-763522,Li3V3(PO4)4,1.8697000000000001,-2.6801568193223444,0.051286955384632
mp-770967,Li2MnP2O7,4.0774,-2.680044053408372,0.0087239451041671
mp-762531,Li2Ti2V5O12,0.854699999999999,-2.6800348053968257,0.0951960451322833
mp-765133,Li3VCr(P2O7)2,0.629599999999999,-2.6800172934730853,0.0280101534783048
mp-767274,Li3MnSi2O7,1.1607,-2.6799274392084618,0.098789294811608
mp-32427,LiVPO5,1.5636,-2.6797684061681544,0.0
mp-765313,Li4MnO2F3,1.2721,-2.679454193203,0.0924258699999986
mp-777463,Li2FeF6,0.29089999999999905,-2.67944282746,0.0231298988888895
mp-33746,SrCO3,4.2741,-2.679428660250001,0.0360401485000005
mp-14665,KNd(SO4)2,5.6613,-2.6793891844270825,0.0
mp-561433,KPuCO5,0.434299999999999,-2.679284072578124,0.0
mp-694999,Na3V2P2O10F,2.093,-2.679194759437804,0.0020893222222255
mp-557112,Li4Ga3Si3IO12,3.439699999999999,-2.679187065,0.0
mp-510264,KY(WO4)2,3.2428,-2.6790404856249985,0.0
mp-767727,LiMn2OF5,0.0,-2.6789879554577767,0.0874996362500022
mp-776185,LiFeF3,0.010899999999999,-2.6789660857140007,0.2360863079999955
mp-3593,Ta2Sn2O7,1.485199999999999,-2.6789557080681807,0.0781013518181819
mp-571627,CaCl2,5.3328,-2.678703018006667,0.1064150275000006
mp-707746,CaAl2Si3H6O13,4.9624,-2.6783581219188,0.0056238698500017
mp-761800,Li6V3Cr(PO4)6,1.9505000000000001,-2.6783474452142846,0.0452419674374926
mp-770739,LiTiFeO4,2.1957,-2.678336127023811,0.0376098140306346
mp-4438,CaSnO3,2.3301,-2.67825978025,0.0141951724999991
mp-775287,Fe10OF19,1.496099999999999,-2.678174772628666,0.0139440936666694
mp-2511,PbF2,4.3823,-2.678067805793333,0.0227664116666677
mp-768076,Li3V4(PO4)6,0.6562,-2.678033922393823,0.0161424343918605
mp-761817,LiNbVO4,1.2698,-2.677958550357144,0.0370823911607178
mp-775224,NbV3(PO4)6,0.9933000000000001,-2.6778030308403364,0.0013344051470554
mp-558370,Ca3TiBe2Si2(As3O10)2,2.6233,-2.6776969885784303,0.0
mp-25508,Li2CrPO4F,2.800599999999999,-2.677657457698361,0.039272654351854
mp-657543,SrAl2(SiO4)2,0.8165,-2.677554984615384,0.7408319875498623
mp-771280,Li24Ti7Cr5O36,1.3016,-2.677458470300925,0.011919628472234
mp-767077,Li5Fe(SiO4)2,2.4664,-2.67742636,0.0142093615625205
mp-625404,AlHO2,5.495400000000001,-2.677395837155,0.0185544393750003
mp-761503,Li2Cr4Si4O13,1.4543,-2.6773658859239124,0.0466837059565179
mp-1009819,SrO,2.7428,-2.6773502956249997,0.4153514500000002
mp-769023,Ba2Y7Cl25,4.1259,-2.677346213352941,0.0915929664705883
mp-771286,Li24Ti7Cr5O36,1.2749,-2.6772646869675936,0.0121134118055659
mp-690508,Ta2Mn4O9,2.6363,-2.677148994006001,0.0157100440000004
mp-771284,Li24Ti7Cr5O36,1.315299999999999,-2.6769969197453705,0.0123811790277894
mp-25013,Ba2MnMoO6,1.2569,-2.676802579846001,0.0
mp-559305,KCrCuF6,0.3488,-2.676730027182222,0.0023603590740739
mp-771285,Li24Ti7Cr5O36,1.2939,-2.676696800162038,0.0126812986111213
mp-771282,Li24Ti7Cr5O36,1.2134,-2.6766002090509264,0.0127778897222334
mp-31723,Li3Cr(PO4)2,2.7819000000000003,-2.676505972227891,0.0268859523212796
mp-19680,RbLa(WO4)2,3.7897,-2.6764791299999997,0.0
mp-558777,KNd(SO4)2,5.4174,-2.67645372421875,0.0029354602083335
mp-771367,Li24Ti7Cr5O36,1.2928,-2.6763267121064818,0.0130513866666781
mp-763554,LiVP2O7,2.171699999999999,-2.676280782267315,0.0686662327272698
mp-764980,LiMnF5,2.2836,-2.6762418702728565,0.0332676397916733
mp-771283,Li24Ti7Cr5O36,1.2496,-2.676186811550925,0.0131912872222335
mp-684059,LiTi(PO3)5,0.1854,-2.6758661611769483,0.0791787385606035
mp-777506,V3(O2F)2,0.0,-2.675649774153332,0.053959425555556
mp-770344,Li3V(BO2)5,2.6285,-2.675567393464912,0.060658545855265
mp-743598,TiCdFe(PO4)3,2.258499999999999,-2.675474788108467,0.0
mp-12730,Ba2YbRuO6,0.0,-2.6754452872500005,0.0
mp-763443,Li2Co(SiO3)2,2.968799999999999,-2.6754416120454545,0.0654599954545345
mp-769070,BaY4Cl14,4.0974,-2.6754041564810533,0.089372118552629
mp-773340,Li2TiMnO4,0.39010000000000006,-2.675289222828334,0.0715026018750109
mp-28094,RbDy2Cl7,4.5280000000000005,-2.6752739156153327,0.0
mp-774418,TiV3(PO4)6,0.8519,-2.675170539565828,0.0145857940441178
mp-4626,CaCO3,4.171200000000001,-2.675154415250001,0.0243009600000059
mp-775115,Li2TiMnO4,0.3027,-2.675084607828333,0.0717072168750121
mp-762188,Li2VP3O10,2.1159,-2.675036188080357,0.0620017092708424
mp-4559,BaCO3,4.4099,-2.674991184250002,0.0218445939999947
mp-569876,LiMgVO4,3.4825999999999993,-2.674805280714285,0.0
mp-10321,La2ZnRhO6,0.0,-2.67479136875,0.0
mp-771354,Li24Ti7Cr5O36,1.3141,-2.674492876273148,0.0148852225000108
mp-18822,Mn2PO4F,2.7959,-2.6744570160881542,0.0
mp-16837,Nb3AgO8,1.5603999999999991,-2.67434364875,0.0382583204166646
mp-776907,Ti3CoNi2(PO4)6,0.0,-2.674311913293652,0.0247671726157214
mp-32409,LiVPO5,1.4998,-2.6742970961681545,0.0054713100000114
mp-772258,LiMnNbO4,2.591199999999999,-2.674290812637143,0.0
mp-771300,Li24Ti7Cr5O36,1.22,-2.674238606273148,0.0151394925000118
mp-540481,Li2CrP2O7,3.7041,-2.6741845095783723,0.0
mp-763481,Nb2CoO6,1.9055,-2.6741156369444443,0.0258835300000193
mp-706588,Na3NdV2O8,3.6913,-2.6738837051785715,0.0126318250000005
mp-557771,SiO2,2.3054,-2.673837729166668,0.6108751783333322
mp-25785,CaVNiP2O9,1.974199999999999,-2.673811360710033,0.0
mp-767872,Li3V4(PO4)6,0.8201,-2.6737440475289582,0.0204323092567255
mp-761355,Li5VP3O11,3.012899999999999,-2.6737164766517862,0.0579168250312545
mp-559109,ErGeBiO5,3.3459,-2.6736428965625,0.0
mp-24966,LaFe3(BO3)4,2.2811,-2.673491784083334,0.0
mp-764398,VOF3,3.0291,-2.6734720874640003,0.0572816020000024
mp-555246,Ba3LuRu2O9,0.0,-2.673457429416667,0.0
mp-764419,Li3V2(O2F)2,0.9678000000000001,-2.6733393108981813,0.0872399691287748
mp-770235,Li4Ti3V3(WO8)2,0.13140000000000002,-2.6732157764285707,0.047192359352687
mp-7205,LiInSiO4,3.028699999999999,-2.6732131257142853,0.0
mp-763774,Li2Nb6NiO18,1.2195,-2.6731917269444447,0.0672841995833337
mp-12323,NaSm2IrO6,0.0,-2.67311780025,0.0087545173750074
mp-763789,Ti3Cu2P6WO24,0.0,-2.673041009404762,0.0621041769444428
mp-706279,Li2ZrFe(PO4)3,2.0109,-2.6729936279887228,0.1917984063157884
mp-757404,Li2Cu2Si5O13,0.47390000000000004,-2.672896967329545,0.0840754445454532
mp-554657,Na2Tl2B10O17,4.1036,-2.6728815562231185,0.0
mp-643941,CaAl2Si(HO2)4,4.690799999999999,-2.672843717467499,0.0174307645312481
mp-704577,Na2Co2(B4O7)3,2.749899999999999,-2.6728017421959462,0.0124906701081215
mp-14353,BaNaNd(GeO3)3,3.4575,-2.672788724083333,0.0
mp-677422,Ca2Ga2Si(HO4)2,3.5092,-2.6726537131493324,0.0112994813333315
mp-776780,Li4Ti3Cr3(SnO8)2,0.0,-2.67252491,0.02708157977679
mp-540113,Li3Cr2(PO4)3,3.0299,-2.6724576000892863,0.0052255243748673
mp-759877,Li4CuF7,0.6795,-2.6720788369441664,0.0386686136111134
mp-17889,KNa2(PO3)3,5.0463,-2.6717054903690487,0.0035395986111126
mp-561827,Cs3TlF6,3.3218,-2.671614938214,0.0
mp-770960,Li3TiV3O8,1.5812,-2.6715814657777788,0.0338803187499934
mp-767926,Li4Ti4Mn4VO18,0.8483,-2.6714136617098925,0.090086987600813
mp-774138,V2O3F,1.031499999999999,-2.671409358323333,0.0
mp-19282,Sr2ZnWO6,3.402,-2.67133677925,0.0184613493999918
mp-989561,NaTl2GaF6,4.3908,-2.671305755214,0.0
mp-763493,Li2VP3O10,2.2043,-2.671241871674108,0.0657960256770895
mp-15635,TiTl3F6,0.0,-2.6711338118806665,0.0969029535000034
mp-1020707,Rb2GeB4O9,4.0842,-2.671126370651041,0.0
mp-773087,Li2MgCu2(SiO3)4,0.4535,-2.6710479269047624,0.052674346130952
mp-853142,Li4Co2OF7,1.2875,-2.6709430553271427,0.0367264349107152
mp-557840,NaLa(SO4)2,4.1818,-2.6708680723437497,0.0
mp-1034881,CsNaMg14O15,1.126499999999999,-2.6708092404435475,0.2272184983870975
mp-769462,Li2Nb6NiO18,1.2693,-2.6706824834259257,0.0697934431018527
mp-557756,Li4Zn(PO4)2,4.676,-2.6706628484126984,0.0006724017500001
mp-30241,Mg5(HO3)2,3.8709000000000002,-2.670622096518461,0.0150613153846146
mp-778788,Li3MnV(PO4)3,0.9356000000000001,-2.6705395342622857,0.0146286273124651
mp-34728,Al2CuO4,0.0,-2.6705152530952385,0.0605345604761939
mp-764757,Li3V2(O2F)2,0.9239,-2.670322324534545,0.0902569554924452
mp-15335,Lu2Cu2O5,0.28399999999999903,-2.6701306501388893,0.052770939861114
mp-764351,LiMn2OF3,1.200699999999999,-2.6700447395342857,0.090620172142855
mp-780002,V2O3F,1.1841,-2.670003499156666,0.0014058591666703
mp-510602,FeSiO3,2.6283,-2.669925055,0.0145046222499924
mp-775623,LiTiMnO4,0.5552,-2.6697519321609517,0.0924860147470703
mp-768074,LiTaWO6,3.2939,-2.669667178333333,0.0478125447222215
mp-32419,LiV2(PO4)3,1.3014000000000001,-2.6695533770436524,0.0
mp-777913,Li2VO2F,1.0852,-2.6694901789483327,0.0500487541666636
mp-23421,LiYb2Cl5,5.4787,-2.6694255557874995,0.0188697600000011
mp-25017,NaNdMnWO6,2.6106,-2.669344593096,0.0
mp-765005,Li2Co(SiO3)2,2.8871,-2.669150238863637,0.0717513686363524
mp-605340,LaFeO3,1.7426000000000001,-2.66911711025,0.2667191560000006
mp-849219,V3(O2F)2,0.49650000000000005,-2.6691057624866668,0.0605034372222359
mp-777080,VOF3,1.8397000000000001,-2.6689247224640007,0.061828967000002
mp-13695,SmCuO2,2.5020000000000002,-2.6689011737499992,0.0
mp-867955,Na2Nb3O6,0.0,-2.6687840915909096,0.0
mp-781789,Li4NbIn3(PO4)6,2.6893000000000002,-2.6687745960150377,0.0056128372368347
mp-765668,V2O3F,1.235999999999999,-2.6686401061011105,0.0027692522222224
mp-777100,VOF3,1.841099999999999,-2.6686120024640005,0.0621416869999995
mp-777720,Li2VO2F,1.480699999999999,-2.668583433115,0.050955499999997
mp-778557,V2O3F,1.1818,-2.668579280323333,0.0028300780000041
mp-764179,Li3VO3F2,2.5993,-2.6685357890144448,0.1000436505555573
mp-763169,V2(OF)3,1.434699999999999,-2.6684695169566672,0.0082378931250008
mp-18979,TbFe3(BO3)4,2.3316,-2.66845020025,0.0009657299687493
mp-777730,Li3BiB8O15,4.004799999999999,-2.6684405002623457,0.065144173888914
mp-13603,CdB4O7,3.9877000000000002,-2.668432992638889,0.0
mp-561561,Cs2KRhF6,2.1034,-2.6684135257140005,0.0
mp-756672,Li4Si4Bi2O13,3.8328,-2.6683638786413044,0.0819481588043489
mp-1019565,Ca3Ga2(GeO4)3,2.9786,-2.6682808243750005,0.0
mp-752733,TiGa2O5,2.2972,-2.6681221841145835,0.0769787178124987
mp-772440,Li2Mn(BO2)5,1.2029,-2.6681206228774066,0.052534257612832
mp-19136,TbFe3(BO3)4,2.3623,-2.6681141937499997,0.0013017364687488
mp-625420,AlHO2,4.8339,-2.66798548153,0.0279647950000008
mp-778150,Li9Nb3P8O29,0.154899999999999,-2.667952935632896,0.1095130298724527
mp-12210,YbP5O14,0.0,-2.66793526327381,0.0
mp-763983,V2O3F,1.226699999999999,-2.6679253522122237,0.0034840061111136
mp-652776,Rb2V(PO4)2,2.8653999999999993,-2.667903162399268,0.0196057792307611
mp-850939,Li2MnV(P2O7)2,0.010100000000000001,-2.667876360038225,0.0028920237311087
mp-778786,V2O3F,1.2125,-2.6677884087399995,0.0036209495833379
mp-7719,NaTm(SO4)2,5.7586,-2.66777588734375,0.0
mp-764675,Li4Fe7(OF7)2,3.0404,-2.667769468857779,0.0430480088888876
mp-23717,Ca2MgP2(H2O5)2,5.3863,-2.667750788061604,0.001239062192984
mp-777443,Li2FeF6,0.0,-2.6677109519044446,0.0348617744444448
mp-773200,LiVB2O5,2.5525,-2.6676650257870382,0.0719627016666635
mp-763723,Li6MnV3(PO4)6,1.0054,-2.6675607949882862,0.0485202747500128
mp-769969,TaFeO4,1.883199999999999,-2.667559159166668,0.1012446716666648
mp-672262,La3Zn3Ge2SbO14,2.9454000000000002,-2.667525924239131,0.0
mp-673702,Na2CeO3,1.975899999999999,-2.6675256772916667,0.0322087799999968
mp-29369,Sb7F29,3.5953,-2.6675035569308334,0.0
mp-764893,Li2MnV(P2O7)2,0.3926,-2.667469541553377,0.0032988422159574
mp-764027,Li2VO2F,0.9741000000000001,-2.667422724781665,0.0521162083333308
mp-764325,V3(OF)4,0.6841,-2.667402439978181,0.1071586088636342
mp-695780,Li2MnP2O7,4.2766,-2.667400912991706,0.0213670855208327
mp-19345,ErMn2O5,1.0779,-2.667204824458749,0.0
mp-761571,Li5MnP3O11,4.1628,-2.667172104449785,0.0535114589999921
mp-780114,LiVSiO5,2.0535,-2.66712172453125,0.0888573862500399
mp-582011,CeCl3,0.0,-2.6671214411950004,0.0
mp-555674,LuMn2O5,1.0698,-2.667117004458749,0.0
mp-763947,V2O3F,1.120499999999999,-2.66710168624,0.0043076720833372
mp-540223,Li2MnP2O7,4.254799999999999,-2.6670789079917068,0.0216890905208329
mp-540330,Li2V(PO3)5,2.2923,-2.6670627193141816,0.027603065797102
mp-763501,Li3V2(O2F)2,0.959199999999999,-2.6669482813527265,0.0936309986742642
mp-765760,LiMn2OF3,1.3783,-2.6669068470342863,0.0937580646428557
mp-764603,Li2MnV(P2O7)2,0.177099999999999,-2.666813432083679,0.003954951685654
mp-778568,V2O3F,1.150399999999999,-2.6668091691566667,0.0046001891666698
mp-774358,Li2MnV(P2O7)2,0.47119999999999906,-2.6667964379927698,0.0039719457765636
mp-554673,KZnB(PO4)2,4.7598,-2.6667233048351653,0.0
mp-763785,LiMn2OF3,1.8294000000000001,-2.666714437391428,0.0939504742857124
mp-755013,Li5TaO5,3.7142999999999993,-2.6666742269318178,0.0
mp-778770,Li2MnV(P2O7)2,0.28690000000000004,-2.66665279708368,0.0041155866856534
mp-554057,KPr(SO4)2,5.5718,-2.666587645260417,0.0
mp-763658,Li3V(PO4)2,2.2363,-2.6665659386564635,0.0805462603571527
mp-777501,V2O3F,1.0937000000000001,-2.66652164999,0.0048877083333369
mp-764421,Li3V2(O2F)2,1.0161,-2.6664900970345444,0.0940891829924117
mp-767364,Li2Mn2Si2O7,2.6963,-2.6664712081284616,0.0792693649038414
mp-565746,KVPO5,3.0252,-2.666387223043154,0.0202531503125023
mp-779885,Li2MnV(P2O7)2,0.285599999999999,-2.6663144675382244,0.0044539162311094
mp-753314,Eu2SeO2,0.0,-2.6661060262187504,0.0366226680000014
mp-762690,Li7FeP4O14F,3.9177999999999993,-2.666038648558183,0.0651493130864304
mp-780295,Li2VO2F,1.5210000000000001,-2.666038318114999,0.0535006149999972
mp-566683,K2Cr3(ClF3)2,2.3631,-2.6660242125892304,0.0
mp-542396,HoMn2O5,1.0706,-2.6658485235212512,0.0
mp-861572,LiMn2OF3,1.8355000000000001,-2.66583599382,0.0948289178571419
mp-764299,Li2VFe(P2O7)2,1.813899999999999,-2.66581814560065,0.0004381198484626
mp-770536,Li2VH2OF5,2.5167,-2.6658093767672724,0.0593428971969709
mp-779997,LiFe2OF5,2.2705,-2.665808586355555,0.0462505990123469
mp-779300,LiFe2OF5,2.2825,-2.6657853685777777,0.0462738167901246
mp-25667,EuMnO3,0.0,-2.6657349439419993,0.0
mp-770014,Li3VBPO7,2.1828,-2.66561098488553,0.0878591699999953
mp-10476,NaEr(SO4)2,5.7442,-2.66553030109375,0.0
mp-565245,Dy2Hf2(MoO4)7,3.1912,-2.6654488013675217,0.0
mp-849335,Ti3N2O3,1.649699999999999,-2.6654160879387487,0.0293718153200011
mp-776619,Li2TiV3O8,0.6088,-2.6654011090476186,0.0693120410714218
mp-764318,Li2VFe(P2O7)2,1.7145000000000001,-2.6653994913582264,0.0008567740908862
mp-541436,NbTl(PO4)2,2.8409,-2.665355419474206,0.0023282361458356
mp-764797,Li3V2(O2F)2,0.7641,-2.6652984445345456,0.0952808354924457
mp-763862,Li2VFe(P2O7)2,1.720399999999999,-2.6652299359036804,0.0010263295454313
mp-763852,Li2VFe(P2O7)2,1.8512,-2.6651419663582256,0.0011142990908865
mp-765940,LiV(OF)2,2.528299999999999,-2.6650210424800007,0.0637607991666824
mp-763748,Li2CrPO4F,2.347199999999999,-2.6649200188094717,0.0520100932407441
mp-763494,Li3V2(O2F)2,0.9199,-2.664912567489091,0.0956667125378656
mp-1019786,K3Zn(BO2)5,4.2633,-2.6648758643859645,0.0
mp-558804,CsGeB3O7,4.5981,-2.6648298311458336,0.0
mp-763861,Li2VFe(P2O7)2,1.6987,-2.6647882220400434,0.0014680434090683
mp-767232,LiV2(PO4)2,0.5545,-2.664724706245422,0.0144431337651802
mp-540192,Li2MnP2O7,3.111599999999999,-2.664724427991706,0.024043570520833
mp-541962,KGd(WO4)2,3.231099999999999,-2.66465924875,0.0
mp-25040,DyMn2O5,1.0799,-2.6646549618545823,0.0
mp-764789,LiMn2OF3,1.0545,-2.664432419177142,0.0962324924999995
mp-565340,Cr2B(PO4)3,3.059699999999999,-2.664412470886244,0.0
mp-762067,Li4Ti3V3(SbO8)2,1.098,-2.6644022171428565,0.042802264441927
mp-565752,KGd(WO4)2,3.1438,-2.6643109775,0.0003482712499973
mp-774309,Li2MnV(P2O7)2,0.363399999999999,-2.6643046866291344,0.006463697140199
mp-989577,LiTl2GaF6,4.262300000000001,-2.664294183714,0.0
mp-24925,NaCrP2O7,2.7103,-2.6641947484036788,0.0
mp-849332,V2O3F,0.8026000000000001,-2.6641695633233327,0.0072397950000038
mp-850412,Li7TiCr3(PO4)6,0.0,-2.66416409622532,0.0826325747212113
mp-761335,Li4V(PO4)2,2.618099999999999,-2.663907924579365,0.0492492265101036
mp-776745,Li4Ti3V2Cr4O18,1.5461,-2.6638996242741935,0.0910581183387577
mp-18799,YbVO4,0.0,-2.663516300833334,0.001764181145833
mp-763343,Li2VO2F,1.3732,-2.6633661631149987,0.056172769999998
mp-25154,V(PO3)3,2.2644,-2.6633623138873626,0.0
mp-763450,Li3V3(PO4)4,1.8506999999999991,-2.6630925347069607,0.0683512400000152
mp-3919,KBO2,4.1301,-2.6630796247916666,0.0
mp-676020,BaCO3,4.017799999999999,-2.6630757542500008,0.0337600239999957
mp-555867,BaNb2Bi2O9,2.2153,-2.662980744017857,0.0048698287499968
mp-769380,Li2TiSn3(PO4)6,2.748699999999999,-2.6628853177843923,0.0068892186805635
mp-540312,Li2V(PO4)2,1.4504000000000001,-2.6628819404761903,0.0384686163461491
mp-774874,Li3Ti2CuO6,0.21549999999999903,-2.662822681736112,0.1049203397222262
mp-23807,AlHO2,5.6572000000000005,-2.66272784028,0.0332224362500008
mp-1019787,K2NaZn(BO2)5,4.2332,-2.6626061601754385,0.0
mp-9747,B4PbO7,4.208499999999999,-2.662345098368056,0.0