mpid,formula,BG,FE,e_hull
mp-34459,Ba(NdS2)2,1.9232,-2.420368048035715,0.0521922757142858
mp-38728,Sr(ErS2)2,2.274599999999999,-2.4203371837500005,0.0514147469047614
mp-542840,In2Si2Pb2O9,3.3467000000000002,-2.4203322789166672,0.0
mp-767871,Li3MnPCO7,4.0612,-2.4203266400234806,0.0634267284615273
mp-767822,MnFe3(PO4)4,1.2713,-2.42029331722254,0.0150301329166921
mp-942702,LiMnSO4F,3.9043,-2.4201967270265623,0.0143302996875025
mp-777675,Li3V5O12,1.2119,-2.4201936702500007,0.0757804012499789
mp-775181,Mn3Nb(PO4)6,0.0,-2.4201457238662187,0.0311537142647111
mp-773772,NaLi5Mn2P2(CO7)2,3.599499999999999,-2.4200799371388646,0.0469286385897431
mp-767591,MnFe3(PO4)4,1.4405000000000001,-2.4200631513892064,0.0152602987500252
mp-773269,MnFe3(PO4)4,1.0888,-2.419937084305873,0.0153863658333595
mp-762285,Li3V7O12,1.081899999999999,-2.419929421590909,0.0879095532954572
mp-560019,K2Ge3(BO5)2,3.8545000000000003,-2.41983141769608,0.0007121688562081
mp-769706,Li2FeNi(PO4)2,3.0236,-2.4198299004421773,0.0022358280357099
mp-643265,ReF7,1.9773,-2.4197921772912503,0.0
mp-762517,Li4Ti3Fe3(TeO8)2,1.123299999999999,-2.419764447142857,0.0475120402678346
mp-767886,Li3MnPCO7,4.0117,-2.419760087523481,0.0639932809615269
mp-696136,Li10Sn(PO6)2,3.3917,-2.4196659486476197,0.1406091870000008
mp-776877,Mn2Cr(PO4)3,0.0,-2.4196455900669847,0.0861972727777793
mp-1003639,Ca3Mn4O8,0.410099999999999,-2.4196039564226672,0.1415101671666647
mp-853257,NaV10O15,0.0,-2.419599305913462,0.0495472218108954
mp-782652,Li4Ti3Cr3(NiO8)2,0.9182999999999991,-2.419590082142856,0.0628827329504053
mp-770648,Li8ZrO6,4.0226,-2.4195713965000007,0.0552436733333321
mp-781753,Li3CuP2O7,1.210199999999999,-2.4195207926877296,0.0965080915384577
mp-773211,Li3FeSiCO7,2.5351999999999992,-2.4195177727884616,0.035648036153856
mp-768794,LiBiB2O5,3.393,-2.4194511946759247,0.0846776140277763
mp-756628,Li4NbO4,0.0,-2.4193388777777773,0.0909993738888861
mp-861063,LiNi(PO3)3,4.6493,-2.419302311288265,0.0524224848214149
mp-20973,Ce2S3,0.0,-2.419244256937501,0.0
mp-754857,Nb2Ge2O7,1.524,-2.4192441907954545,0.094685249090908
mp-704836,CaTiSiO5,1.395,-2.419218131927084,1.0715301293749988
mp-775492,Li2MnV3O8,0.9618000000000001,-2.4191456193542855,0.0346833295089368
mp-554160,K2CuP2O7,0.26179999999999903,-2.41912179374504,0.0001788237500113
mp-28087,Pb4IF7,2.9146,-2.4190851606941672,0.0279980579166663
mp-14088,Rb2PdF6,2.2614,-2.4190586107933334,0.0
mp-773931,NaLi5Mn2P2(CO7)2,3.5999,-2.419032582908095,0.047975992820513
mp-849964,Li2V3CrO8,1.450199999999999,-2.4190221571428556,0.0690586143005607
mp-850370,Li6Mn2B4SO16,1.643399999999999,-2.418952284056868,0.0774482731034469
mp-560240,K2SbPO6,2.5161000000000002,-2.4188880925595244,0.0
mp-31751,Ba2Cr7O14,0.0026000000000000003,-2.418846010760869,0.0409211545652183
mp-638765,Al2O3,0.682299999999999,-2.418782965749999,1.0233305350000013
mp-849330,Li2V2CrO6,0.0,-2.418658347651515,0.0613750890245938
mp-555505,Na2YbC2O6F,0.0,-2.418653177599167,0.0003746589062556
mp-19373,LiVO3,3.0342,-2.4186123712500005,0.020126461500034
mp-758350,Nb8Tl8O25,0.0,-2.41860484320122,0.019512856432927
mp-13976,Yb2SeO2,0.0,-2.4185998842187493,0.5004093562812493
mp-861149,Li3Ni2(PO3)7,4.072599999999999,-2.418582695391414,0.0907046829040485
mp-19450,ScTl(MoO4)2,3.6201,-2.4185452570833332,0.0
mp-561005,SrBi6(PO5)4,3.508399999999999,-2.4185075931413205,0.0
mp-771601,Li3VPCO7,2.7478000000000002,-2.4183586987957875,0.0924206118028809
mp-779811,Fe5O3F7,1.3902,-2.4183518674720004,0.0451920429999992
mp-769609,Li4VCr3O8,1.5588,-2.4183014503125007,0.0052185090625016
mp-781683,LiFeP2HO7,3.9745,-2.418210849880039,0.0282196183333356
mp-767124,Li2MnO2F,1.0404,-2.418207534525,0.0810057720833299
mp-3047,MgGeO3,2.4744,-2.4181675247499994,0.1568045255000001
mp-779222,Li3Co2(SiO4)2,0.146699999999999,-2.4181653590000005,0.0776055518333018
mp-763492,Li3CoSiO5,1.1762,-2.4181397663750004,0.0356006672500068
mp-774181,NaLi5Mn2P2(CO7)2,3.6196,-2.418125620792711,0.0488829549358973
mp-755592,K2TbO3,0.0,-2.4181238478472227,0.0
mp-769605,Li4VCr3O8,1.5099999999999991,-2.4181050437500007,0.0054149156250016
mp-540064,LiCo(PO3)4,0.9577000000000001,-2.4180833326322757,0.0688224247222217
mp-764292,VO2F,2.5865,-2.4180185121725013,0.0621305643749998
mp-641112,ReO2F3,3.2953,-2.4179173306991677,0.003210728437498
mp-557508,NaLaH2S2O9,4.6572000000000005,-2.417890045885444,0.0
mp-25148,V2WO6,1.072699999999999,-2.4178888952777795,0.0
mp-780860,Li2Co2OF6,1.1378,-2.417831193944546,0.0486654380681823
mp-542214,Si6Cl10O7,5.46,-2.4177993276673915,0.0172870834239118
mp-769595,Li4VCr3O8,1.6083,-2.4177793506250005,0.0057406087500018
mp-767121,Li2MnO2F,0.637,-2.417772745775,0.0814405608333297
mp-555218,Ba4Br6O,4.1634,-2.4177128978409104,0.0
mp-27564,Na4B2O5,3.6854,-2.417671479507576,0.0
mp-32113,Mo2P3O13,1.1507,-2.4176387686408733,0.0074670104166632
mp-773539,NaLi5Mn2P2(CO7)2,3.6214,-2.4174967746388645,0.0495118010897437
mp-540787,K3V5O14,2.3325,-2.417476778522728,0.0
mp-765081,Li2MnO2F,0.9936,-2.417452759941668,0.0817605466666648
mp-757884,Li2Sn3(P2O7)2,2.5153,-2.4174024865165635,0.074494061521726
mp-505031,Cs4Cu3F10,0.11959999999999901,-2.4172903718764704,0.0
mp-770980,Li4TiMn(WO6)2,1.1055,-2.4172812791313327,0.0368576776250018
mp-868600,Li3MnP2O9,0.0,-2.4172115148933644,0.0517794337222232
mp-767567,P2WO8,2.2697,-2.4171539330627705,0.0051009988636501
mp-769608,Li4VCr3O8,1.9310999999999992,-2.4171320225000006,0.0063879368750017
mp-18974,HoNiO3,0.0,-2.4170269942500004,0.0
mp-19473,CaNi3(P2O7)2,4.0017,-2.4170161790854983,0.0
mp-767025,Li2MnO2F,1.084299999999999,-2.416966039108333,0.082247267499997
mp-556419,ReO2F3,3.4217,-2.4169331489283343,0.0041949102083309
mp-542503,La9(SbO)5,0.0,-2.416875661118421,0.0
mp-773634,NaLi5Mn2P2(CO7)2,3.575499999999999,-2.4167724367542487,0.050236138974359
mp-698479,RbTeHOF4,4.8825,-2.4167133230787496,0.0
mp-767262,Li12Mn3FeP4(CO7)4,3.6464,-2.416668087312711,0.0504560561538465
mp-849517,Mn6O5F7,0.47200000000000003,-2.4166595977966665,0.0803540984027897
mp-765256,Li7V(O2F)2,2.204099999999999,-2.416625981955714,0.0910942992857126
mp-12185,LiCu(PO3)3,0.6669,-2.4166172796811227,0.0
mp-675219,Ba9(LaS6)2,2.241799999999999,-2.4165901160326086,0.034099171956516
mp-744764,Mn7P6(HO6)4,3.2095,-2.4165096858480832,0.0
mp-763363,LiPWO5,0.0,-2.4164612733556554,0.0850990128124955
mp-771182,CrFe5(PO4)6,1.4095,-2.41632200968254,0.0405079490972308
mp-768923,Bi4(B2O5)3,3.3396,-2.4162201835499992,0.0040554597000284
mp-770540,Mn2PO5,0.0,-2.4162038335956546,0.0164632571875067
mp-767056,Li2MnO2F,1.0974,-2.416103102441667,0.0831102041666627
mp-6723,Sr3ZnIrO6,0.0,-2.4160891052272726,0.0
mp-6318,KLiSO4,5.3179,-2.416005579866072,8.601142857145305e-05
mp-32102,LiMo2P2O11,1.013799999999999,-2.4159415420275296,0.0033563693749822
mp-542218,NaVBP2H3O10,2.1429,-2.4159124322898435,0.0001425475000997
mp-6179,KLiSO4,5.3221,-2.4159024862946428,0.0001891049999995
mp-766750,Li2MnCu(PO4)2,0.0,-2.415895152653605,0.0327899787500101
mp-781682,LiMn3(BO3)3,0.1731,-2.415892374945626,0.0868208714192562
mp-643074,Cs2P2H2O7,5.2232,-2.415876298244652,0.0
mp-13610,ZnPbF6,1.9585000000000001,-2.4158116702675003,0.0
mp-540536,Mo2P3O13,1.623,-2.4157658214186504,0.0093399576388861
mp-767913,BaV8O21,1.3112,-2.415742685708333,0.0067054533333337
mp-780399,Na6B4Sb2PO16,0.0,-2.415686778784893,0.081277221901165
mp-767452,Mg3Mn4O7,0.5658000000000001,-2.4156592444707137,0.0411268814285721
mp-773620,Li4Mn3Nb3(SbO8)2,0.0,-2.415647697245715,0.084146377656249
mp-773703,NaLi5Mn2P2(CO7)2,3.532,-2.415619793485018,0.0513887822435901
mp-767288,Li6VCrP2(CO7)2,1.9883000000000002,-2.4155915976419418,0.0777811062019235
mp-6684,NaCdPO4,2.9166,-2.415582911870749,0.0
mp-24946,CaFeO2,0.04020000000000001,-2.4154946356250004,0.0750522162500004
mp-767162,Li2Mn3O4F3,1.0405,-2.415463390120833,0.0895770432812463
mp-32933,Tm2S3,2.0032,-2.4151194719375004,0.0630623677499979
mp-611608,CsNiF3,4.3878,-2.415111278714,0.0944821110000013
mp-545529,NdBi2ClO4,1.183499999999999,-2.4150688444700004,0.0
mp-22766,CaIn2O4,1.9991,-2.4150471092857138,0.0
mp-767803,P2WO8,2.9566,-2.4150021410173164,0.0072527909090887
mp-542295,NaYbGeO4,0.0,-2.4149909728571424,0.0242244691964259
mp-763776,LiFe3P3O11,3.1618,-2.414982164751984,0.0837652825000043
mp-767817,MnFe7(PO4)8,1.440899999999999,-2.4148225269942074,0.0167500510416669
mp-861183,LiNi(PO3)3,4.5459,-2.414712987538265,0.0570118085714153
mp-541304,NaMo3P3O16,1.7417999999999991,-2.4146887527950307,0.0
mp-767044,Li2MnO2F,0.8410000000000001,-2.4146473607749996,0.0845659458333294
mp-771441,NaLi2MnPCO7,3.5916,-2.414644593485018,0.0356191894871784
mp-566215,Mn2PClO4,3.1216,-2.4146214763469045,0.0
mp-551741,Zn2P2O7,3.6447,-2.4146092740854983,0.0333384451136433
mp-764188,NaV5O10,1.01,-2.4146033892187493,0.059431427968752
mp-22019,Yb3Sb5O12,0.0,-2.4146030375,0.0
mp-6597,CsLiSO4,5.3584,-2.4145760687946423,0.0032795382142909
mp-772374,Mn5Fe(PO4)6,0.0,-2.4144800606492063,0.0383474593055481
mp-768048,Li4VCr3O8,1.919699999999999,-2.414416171875001,0.0091037875000017
mp-18315,Cs6Si2O7,3.1656,-2.4143652035833343,0.0
mp-853192,Na6Cr2B4SO16,0.0,-2.414191586404453,0.0497813379597795
mp-772585,Fe5Sn(PO4)6,1.255499999999999,-2.4141821942658748,0.0255797279861198
mp-767116,Li2MnO2F,0.9769999999999991,-2.414125781608333,0.085087524999996
mp-558448,Pr2Ir2O7,0.0,-2.4141192403409093,0.0
mp-558431,LiCu(PO3)3,0.6768999999999991,-2.414109657895408,0.0025076217857034
mp-779807,Fe5O3F7,1.2049,-2.4140990764720014,0.0494448339999982
mp-704959,CrP2O7,0.6234000000000001,-2.414032922994048,0.0775827518124918
mp-773687,NaLi5Mn2P2(CO7)2,3.536899999999999,-2.4138916461773263,0.0531169295512823
mp-778036,LiCr2(PO4)3,0.0,-2.413848639404762,0.0939877346527859
mp-764240,Na2V6O13,0.0,-2.413838017440475,0.0408737503571465
mp-558234,Na5La(WO4)4,4.7881,-2.4138309090384613,0.0027202490865327
mp-773725,NaLi5Mn2P2(CO7)2,3.525,-2.41381349752348,0.0531950782051282
mp-556884,CaSi2(NO)2,4.3692,-2.4138117823466674,0.0
mp-757901,LiSnPO4,3.3427000000000002,-2.413811249727892,0.0723214198809536
mp-771618,Li5V3Cr2O10,1.7064000000000001,-2.413783376125001,0.040433762874998
mp-764561,Li4Fe(OF)2,2.9078,-2.4137712205422224,0.0942483822222328
mp-765831,Li7V(O2F)2,0.66,-2.413684341955714,0.094035939285713
mp-769289,Y2Hg2O5,0.659,-2.4135261634722216,0.0897679816666663
mp-24955,Sr4Fe4O11,0.0,-2.4135094970394726,0.0046032206579749
mp-775407,Li3Ti(FeO3)2,0.0,-2.413462051180556,0.0548393662500004
mp-770915,Ti3Mn3Cr2O16,0.8502999999999991,-2.413458320953333,0.098876406874993
mp-768452,Li5Bi2(BO3)4,0.0,-2.4133060305072473,0.0319443390760794
mp-778705,Fe2OF3,1.6320000000000001,-2.413271397053333,0.0959875045833413
mp-775984,TiFe3Ni2(PO4)6,0.0,-2.4132241540343924,0.0192408411631941
mp-756983,Li10Cu(SiO5)2,0.33170000000000005,-2.4132047551086955,0.0564879006521783
mp-29432,NaScCl4,3.8115,-2.4131347196733333,0.0
mp-775206,VSb3(PO4)6,0.0,-2.4130837677521013,0.0110328438235294
mp-565440,La2Te3MoO12,3.581,-2.4129864369444456,0.0
mp-767263,LiFe2(PO4)2,1.9141000000000001,-2.412985136630037,0.0826466316345904
mp-29514,PHF4,7.5482000000000005,-2.4129284106625395,0.0
mp-770199,Li2CoSn3(PO4)6,0.0,-2.4128433037103156,0.0445077511631915
mp-767094,LiFe2(PO4)2,1.5367,-2.4128072647069603,0.0828245035576671
mp-755392,LiSnPO4,3.8739,-2.4127337307993195,0.0733989388095386
mp-763043,Fe2OF3,1.552,-2.412693637886667,0.0965652637500067
mp-767818,Li6CrCo3(PO4)6,0.8313,-2.4126594489642854,0.0553625466840177
mp-763951,VO2F,1.1068,-2.4126101396725,0.0675389368750005
mp-705085,LiCrP4O13,0.0,-2.4125565491384706,0.104247416688592
mp-17455,K7Ta(SO4)6,3.6873,-2.412552941430921,0.0
mp-768921,Li8B2O7,5.509600000000001,-2.4124560017401957,0.0667514980882337
mp-552806,BaBiClO2,3.177399999999999,-2.412333297152,0.0
mp-767984,Li2NiP2O7,4.366,-2.4123298279117065,0.0648293891666584
mp-767287,Li6MnCrP2(CO7)2,2.3308,-2.412315126909633,0.066201291646629
mp-29304,Y2InCl7,4.0073,-2.412311869532,0.0
mp-775626,NaV5O8,1.2919,-2.4123015617857138,0.0644197887500119
mp-39215,Zn3GaB6PO12,4.0713,-2.412247318612836,0.0
mp-676950,Be(GaO2)2,2.4852,-2.4122443864285708,0.108243415952379
mp-773411,MnPO4,0.0,-2.412208202620317,0.0456204801388988
mp-770025,Na2MnBPO7,0.253299999999999,-2.412190378705992,0.0698411274348886
mp-556791,K5V3O10,3.0582,-2.4121523558333333,0.0
mp-765735,VO2F,1.0682,-2.412106913839166,0.068042162708334
mp-32028,Mn(PO3)4,0.435799999999999,-2.412101804902409,0.03709268172795
mp-6211,RbLiSO4,5.2348,-2.412020098080357,0.0
mp-779090,VO2F,1.1421000000000001,-2.4119956784225,0.0681533981250011
mp-540633,RbNb(GeO3)3,3.1666,-2.4119057711607144,0.0
mp-560822,Na5Lu(WO4)4,4.658,-2.4118460219230764,0.0126692130769239
mp-767933,Li3Nb2Fe3O10,1.602399999999999,-2.411775064583334,0.0500639741666795
mp-1500,BaS,2.1515,-2.41173967703125,0.0
mp-765277,LiSnPO4,3.284599999999999,-2.411721899370748,0.0744107702380967
mp-778767,Li2FeBPO7,0.22659999999999902,-2.41160503862599,0.0836013753645783
mp-757106,LiSnPO4,2.6617,-2.411511881156462,0.0746207884523819
mp-773351,NaLi5Mn2P2(CO7)2,3.551799999999999,-2.4114441834850178,0.0555643922435899
mp-723378,KAlH6(OF3)2,6.9765999999999995,-2.4113525758662497,0.0
mp-761910,Li3Cu2F8,0.007500000000000001,-2.411262439963077,0.0295725376923057
mp-771614,LiVO2,1.3702,-2.411246486875001,0.0776218137500039
mp-773671,MnFe(PO4)2,0.0,-2.411230201706984,0.031594992638908
mp-773325,Li2V3O8,1.630199999999999,-2.4112250053846154,0.0423289915384597
mp-555202,KTeHOF4,5.027,-2.4111746680787496,0.0022501103906265
mp-777668,Li4Ti3Co3(SnO8)2,0.258099999999999,-2.4111305589285723,0.0593815660118348
mp-761420,LiCrPO5,0.1773,-2.4110713213244046,0.0895845333749925
mp-765308,Li2MnO2F,0.8740000000000001,-2.4110620749416665,0.0881512316666635
mp-774194,NaLi5Mn2P2(CO7)2,3.5457,-2.4110550994465565,0.0559534762820508
mp-735504,KVPHO6,2.422,-2.411037089421524,0.0
mp-762470,Li3Fe5(PO4)6,1.8148,-2.4109948599624067,0.0927966442105408
mp-772006,Li2V3SbO8,1.193,-2.4109739432142865,0.0
mp-1013917,LiMn3P3O13,0.0,-2.4108863126707853,0.0238502102499991
mp-565637,NaFe3(PO4)3,0.4312,-2.4108571078571432,0.0524916149122525
mp-774089,Li5Nb2V5O12,0.0,-2.410803490625,0.0840628785069466
mp-775989,CrFe3Sb2(PO4)6,2.286099999999999,-2.410668199682539,0.0298605551388897
mp-782644,LiMn3(BO3)3,0.41900000000000004,-2.410629279008125,0.092083967356757
mp-757490,LiSnPO4,3.367499999999999,-2.410604810799319,0.0755278588095249
mp-849350,LiMn3(BO3)3,0.5445,-2.410574807133125,0.092138439231757
mp-25001,FePO4,2.2248,-2.41048392468254,0.017337781250001
mp-849570,Li2V3SbO8,2.0776,-2.410384231607144,0.0005897116071427
mp-2981,CaTeO3,2.9347,-2.410350728083334,0.0115215838666653
mp-767284,Li6VFeP2(CO7)2,2.6203,-2.410313888795787,0.0546531588341308
mp-765710,Li4Fe5Ni(PO4)6,1.5656,-2.4103027589642863,0.0609594681874838
mp-721294,NaB5(H2O5)2,5.5723,-2.4102937162656657,0.0
mp-777711,LiFeBO3,3.1611,-2.410247909236111,0.0011379783333316
mp-764093,Li5Ni2(PO4)3,4.0388,-2.4101409401948057,0.0551806279545461
mp-25083,LiMo3P3O16,1.648299999999999,-2.4101118404037263,0.0094825290217421
mp-705011,LiFeP2O7,0.966499999999999,-2.4100518888582254,0.1775136270455384
mp-769347,MgSO3,5.024900000000001,-2.4100394675625,0.0615334146304356
mp-765676,Li4Co7(OF7)2,2.0283,-2.4100219599688892,0.0571246248148149
mp-769502,Li4Nb2Fe3O10,2.0898,-2.4098683469736843,0.0366988597368429
mp-8723,AsF5,4.6002,-2.409819841825,0.0
mp-769662,Li2TiFe2O5,1.3106,-2.4098041827916665,0.0552915270000014
mp-31815,Li2Fe(PO4)2,0.0,-2.4097962689377286,0.1000314079807669
mp-14653,AgSb2F12,0.5386999999999991,-2.4097305836186673,0.0
mp-780327,LiMn3(BO3)3,0.0256,-2.409660285570625,0.0930529607942567
mp-775202,CrSb3(PO4)6,1.2841,-2.4096553783403363,0.002619353161763
mp-765982,FePO4,2.750099999999999,-2.4096067205158733,0.0182149854166677
mp-778534,LiCrPO5,1.148499999999999,-2.409495157105656,0.091160697593736
mp-683953,SiO2,1.4904,-2.4093751665972216,0.8753377409027774
mp-30935,B17F27,2.5751,-2.409198284555984,0.1524448216003788
mp-27212,Sb2IF15,3.8902,-2.4091759537694446,0.0
mp-771868,Li4MnNb(WO6)2,0.4554,-2.4091663747979997,0.0293880048846109
mp-754311,Mg(ReO4)2,3.9655,-2.409126792727273,0.0
mp-851011,LiMnP3HO10,0.8188000000000001,-2.4090544375853566,0.0781515845833054
mp-776118,Mn3FeSn2(PO4)6,0.0,-2.4090406119847616,0.0844663008333279
mp-767975,Li2NiP2O7,2.5113,-2.4090347154117056,0.0681245016666594
mp-761782,Li7Fe3(SiO6)2,1.6582000000000001,-2.408994953125001,0.0777139560416531
mp-757885,LiSnPO4,2.7596,-2.408935355442176,0.0771973141666686
mp-18944,Na5Y(WO4)4,4.7451,-2.408917016250001,0.0055776748076921
mp-17008,CaTeO3,3.293799999999999,-2.408909767416667,0.0129625445333321
mp-758855,LiZnBO3,3.3925,-2.408831851944445,0.0240660752083297
mp-556004,Ba3In2Br2O5,1.2907,-2.408733213854166,0.0082184071354216
mp-558725,Ba5Ru2Br2O9,0.4718,-2.408644295902778,0.0
mp-7595,GeF2,4.0597,-2.4086216524599995,0.0
mp-704946,Fe2P4Pb3O16,2.4153000000000002,-2.4085676032952383,0.0
mp-19228,K2MnV4O12,1.992999999999999,-2.4084360661031585,0.0
mp-560097,CaTeO3,3.2538,-2.4084192234166677,0.0134530885333319
mp-768665,LiBiB2O5,1.8355000000000001,-2.408227068564813,0.0959017401388875
mp-1875,TeF6,4.3688,-2.4082085988771427,0.0006172107142852
mp-766754,Li2NiP2O7,2.472299999999999,-2.408178906661707,0.0689803104166584
mp-561374,CaTeO3,3.1241,-2.40814493775,0.0137273741999939
mp-25946,Sb2P5O16,0.0757,-2.4079975430641816,0.0053825236413009
mp-773546,NaLi2MnPCO7,3.5574,-2.407836926754249,0.0424268562179479
mp-540203,LiCo2P3O10,3.0638,-2.4077801291741068,0.016941927890631
mp-767842,Li12V3CoP4(CO7)4,0.853599999999999,-2.4076264674496333,0.0657215038236245
mp-605486,ScTl(MoO4)2,3.6563,-2.4076030102083323,0.0109422468749968
mp-771581,Na3FeSiBO7,0.0,-2.407572904647436,0.0172125459134466
mp-773445,NaLi2MnPCO7,3.5568,-2.4075599954080955,0.0427037875641014
mp-756148,Sm2Pt2O7,1.1981,-2.407554615795455,0.0
mp-759435,LiCu(PO3)3,0.3971,-2.407545193431123,0.0090720862499882
mp-550433,BeZnO2,2.655399999999999,-2.4074459943749997,0.0487641825000002
mp-780320,LiMn3(BO3)3,0.5244,-2.407405559008126,0.0953076873567564
mp-781594,LiMn3(BO3)3,0.1809,-2.4073354793206256,0.0953777670442566
mp-560614,KLiSO4,5.260300000000001,-2.407273751294643,0.008817839999998
mp-775047,Li2VCrO4,0.7542,-2.4072203006249997,0.0382262156250003
mp-756045,Li4Sn(BO3)2,2.5107999999999993,-2.40717420698718,0.076368686089741
mp-769600,LiV2S2(O4F3)2,1.1396,-2.4071595092244737,0.0510766324736753
mp-4359,Sr2PdO3,0.22710000000000002,-2.407102133958334,0.0
mp-504818,MoPO5,2.4078,-2.4070430913350336,0.01322889642854
mp-761269,Li2AgF4,0.37510000000000004,-2.406945372822857,0.0342284035714302
mp-19646,K2MnV2O7,2.41,-2.406932938725833,0.0
mp-850080,Li4V3Cr3O12,1.1799,-2.406830754318181,0.0526312380113305
mp-566165,RbMoPClO5,1.9978,-2.406791111956137,0.0
mp-768459,Ti2(SO4)3,0.0,-2.406791063707108,0.0884685350735319
mp-780510,LiMn3(BO3)3,0.28949999999999904,-2.4067045993206264,0.0960086470442558
mp-6494,K2Ca(CO3)2,4.3436,-2.4065545911363646,0.0
mp-7500,Na4SiO4,3.2221,-2.406504513333333,0.0
mp-25527,FePO4,1.5789,-2.4064785906547623,0.0213431152777783
mp-1020636,Zn2SiO4,2.6045,-2.4064686303571428,0.0515805301190441
mp-849514,LiMn3(BO3)3,0.17520000000000002,-2.4064553955706263,0.0962578507942559
mp-768323,LiFe2(PO4)2,0.9889000000000001,-2.406442523553113,0.0891892447115134
mp-775534,Mn2Sn(PO4)3,0.0,-2.406332179789205,0.0921758958333489
mp-541668,SbP2O7,2.239299999999999,-2.4063275543690485,0.0
mp-625957,Ta2H4O7,3.0296,-2.4062681614023083,0.0421641700000003
mp-19479,Na5La(MoO4)4,4.0741,-2.4062513813461535,0.0
mp-565569,NaAl(MoO4)2,3.6881,-2.4062365758333333,0.0040095499305561
mp-769616,Na2CrPCO7,2.8714,-2.406193402445437,0.0
mp-766796,Cr2OF2,2.0584,-2.4061837907259997,0.0784141960000033
mp-776611,Li4Mn2NbNi3(PO4)6,0.48789999999999906,-2.4061623002622867,0.1057043714843697
mp-554223,RbScAs2O7,3.5429,-2.406083760340909,0.0
mp-760402,TaRhO4,0.9714,-2.4060833533333343,0.014292613541663
mp-545525,NbCuO3F,0.1731,-2.40595319499,0.035912303333335
mp-770111,PrBiO4,0.549199999999999,-2.4059143729166657,0.0155547512500016