mpid,formula,BG,FE,e_hull
mp-1302,PrO2,0.0,-3.0415817508333327,0.0836844389583379
mp-31755,Ta2FeO6,2.3539,-3.041563424722223,0.0
mp-27536,UBrO2,0.11479999999999901,-3.041545858125,0.0
mp-754824,SrO,2.5643000000000002,-3.041541355625,0.0511603899999997
mp-763088,Li2MnF4,3.9851,-3.0414785834957137,0.0564521058928573
mp-12620,NdSeF,0.9158000000000001,-3.0414025907612507,0.0
mp-779058,LiV2OF5,0.6409,-3.0413260608,0.0598255044444409
mp-760401,Nb3O7F,0.716,-3.0410958886309114,0.0603350431818174
mp-644332,KMnF3,2.689199999999999,-3.040917523406,0.0015917924999984
mp-771106,Dy(PO3)3,5.7383999999999995,-3.040879219015568,0.0
mp-32667,SiO2,5.3845,-3.0406438980555563,0.2440690094444431
mp-14437,RbYO2,3.608599999999999,-3.0406122337499992,0.0
mp-6761,NaTi2(PO4)3,2.4429,-3.0404455901455028,0.0
mp-766802,Li5MnF8,1.9824000000000002,-3.0404147728914284,0.0444540814285705
mp-779183,LiMnF3,3.4757000000000002,-3.040352318656,0.0243985672499995
mp-555123,KMnF3,2.6633,-3.040322609906,0.002186705999998
mp-555909,Tb5Se2Cl3O10,3.7344999999999993,-3.040198161806707,0.0
mp-555439,CsLi3F4,6.7384,-3.0401558637200004,0.06663516375
mp-762923,Li4Mn3F10,3.1353,-3.040117644692941,0.0382955132352931
mp-764293,Li2VOF4,2.189899999999999,-3.040006829501249,0.0064703837797752
mp-767497,Li9Ti7Nb5O30,0.0,-3.039956682238561,0.054178207352951
mp-863884,LiV2OF5,0.8006000000000001,-3.039942147744444,0.0612094175000033
mp-6527,Na3Li3In2F12,5.2896,-3.0398820430890003,0.0
mp-778294,Li2VF4,2.7356000000000003,-3.039863884608572,0.0638858439285705
mp-560129,Na3La2(BO3)3,3.790199999999999,-3.0395533015441174,0.0
mp-8333,RbNaSnF6,5.100099999999999,-3.03955144121,0.0
mp-774482,KLiTi2(PO5)2,3.012,-3.039533026063989,0.0292570891145818
mp-861668,LiV2OF5,1.821099999999999,-3.0394487960777785,0.0617027691666693
mp-553918,Eu2B5ClO9,0.8729000000000001,-3.039295200167253,0.0
mp-9056,ZrPdF6,0.9909000000000001,-3.0390606471425,0.0063936788541685
mp-12881,Ba3NbGa3(SiO7)2,3.2958,-3.0389883311956525,0.0
mp-556214,CaB4O7,5.6352,-3.038964846597223,0.0
mp-766361,Nb2O5,2.1388,-3.038857163607144,0.014189757999997
mp-7888,Sr2HoReO6,0.0,-3.0387083667500003,0.0726532813124958
mp-556375,Ba2LaSbO6,3.8413,-3.0386584162500005,0.0070643869999997
mp-557043,Ba2Nd2Ti2Cu2O11,0.0,-3.0384155280043865,0.0201688186842083
mp-39823,Na8Al6Si6CO27,3.2507,-3.0383452248177085,0.0
mp-755659,DyHO2,4.5215,-3.0383185531966665,0.0013657565625004
mp-41918,SrLaNbZnO6,2.372999999999999,-3.0383087882499997,0.1262109866111123
mp-4860,Gd2CuO4,0.0,-3.038208907857144,0.0242233850000008
mp-18259,Ho2Cu(B2O5)2,0.6646000000000001,-3.0381507555392147,0.0174906095098066
mp-765433,LiMnF3,3.6288,-3.038111984906,0.0266389009999992
mp-769675,HfFeO3,2.9099,-3.038110790250002,0.053158374999997
mp-764846,Li2MnF4,3.8456,-3.038105859626666,0.0598248297619052
mp-764996,Li2V2OF6,1.9026,-3.0380127416718183,0.0840055474242396
mp-769039,Dy2TeO6,3.0392,-3.0379749163888903,0.0068869348148146
mp-759636,Nb5O12F,0.0,-3.037940470621668,0.0446744572222179
mp-556537,SiO2,4.5413,-3.0379294127777783,0.2467834947222212
mp-859130,Li4VF6,2.4003,-3.037869236103637,0.0939279359090914
mp-776767,Li2VF4,0.317799999999999,-3.0377716773466656,0.0659780511904761
mp-776705,LiV2OF5,0.531199999999999,-3.0376387961703712,0.0635127690740766
mp-775339,Li2V(Si2O5)3,1.7923,-3.0375730151562497,0.0562644206250251
mp-558749,RbMnF3,2.9422,-3.037489925906,0.0
mp-19546,Zr2Mo(PO6)2,3.1721,-3.0374803538935584,0.0
mp-554867,Ta2O5,0.2969,-3.037221407321427,0.3177242135714291
mp-778686,V2OF5,0.6579,-3.037120840691666,0.0150699408333325
mp-27692,BaB4O7,5.1593,-3.0370004962847226,0.0
mp-765157,LiVF3,2.425999999999999,-3.0369997387139995,0.0358978019999982
mp-18640,LiTi2(PO4)3,2.4404,-3.0369221618121705,0.0
mp-18907,Ca2MnAlO5,0.0,-3.0368385596899987,0.0074813080158753
mp-4210,Sm2CuO4,0.0,-3.0367563485714286,0.0066421712500064
mp-756389,Lu2TeO6,2.3933,-3.0366978563888885,0.0416777455555559
mp-684833,Na8Al6Si6O25,1.4543,-3.036656499361112,0.0504531598055555
mp-720987,Na3CaSc3Zn(SiO3)8,3.7453,-3.0365945093750013,0.2366084178541649
mp-24858,Ba2UCoO6,0.0,-3.0365352577500007,0.0212490171666637
mp-676060,Gd2CuO4,0.0,-3.0364728950000006,0.025959397857143
mp-7791,Li2GeF6,5.7409,-3.036316266904445,0.0
mp-581259,K2U2WO10,1.8912,-3.0362707147499983,0.0035854990833339
mp-686526,NaCaAlSi2O7,3.9498,-3.0361502586458333,0.2529747844791519
mp-997591,CsNa7Ta8O24,0.0,-3.0361485431250004,0.0477785732499977
mp-7870,GdO,0.0,-3.035984585625,0.2190562241666658
mp-777459,Li3FeF6,3.8142,-3.0359148862139995,0.0149633883333439
mp-762921,LiMnF3,3.888,-3.0359020685726668,0.0288488173333325
mp-27376,Rb6Si10O23,4.3121,-3.0358968156089734,0.0
mp-5368,Li2GeF6,6.0486,-3.03583801246,0.0004782544444443
mp-25840,LiTi2(PO4)3,2.5563000000000002,-3.035706739867725,0.0012154219444422
mp-18256,Mg2B2O5,5.1536,-3.0356224277314805,0.0
mp-764695,Li2VOF4,1.5987,-3.0356104451262502,0.0108667681547744
mp-561974,Zr7(NO2)4,2.7922000000000002,-3.0356005936589483,0.0282327586842114
mp-777551,LiVF3,2.6788,-3.035593118214,0.0373044224999974
mp-555676,SiO2,4.5916,-3.03555548375,0.2491574237499989
mp-972058,YbTmO3,0.0,-3.0354759407500005,0.4780376649999996
mp-759793,LiTi2(PO4)3,2.6006,-3.035329351534392,0.001592810277776
mp-5547,Mg2B2O5,5.0851,-3.035321469953704,0.0003009577777746
mp-9309,CsTa(BO3)2,3.4027,-3.035270487083334,0.0
mp-3547,MgSiO3,5.415499999999999,-3.0351637567500007,0.2154466667500028
mp-767589,LiVF5,1.9594,-3.0351203594214287,0.0781264821428617
mp-763149,LiMnF3,3.293,-3.034977344906,0.029773540999999
mp-554831,Yb4Cl6O,5.176,-3.034868299619091,0.0
mp-561018,Na3Sc2(BO3)3,3.7232,-3.0348613183088236,0.0
mp-1020725,Sr4Li2B12O23,4.6951,-3.0348254621646333,0.002396261402433
mp-554423,Y(PO3)3,5.688899999999999,-3.03478646081044,0.0
mp-763048,V2OF5,0.7114,-3.0347381706916665,0.0174526108333319
mp-17560,Na2UO4,2.0732,-3.0346260242857146,0.0083714892857047
mp-555497,SiO2,4.3008,-3.0345252958333337,0.2501876116666661
mp-18977,Ba2CaWO6,3.177499999999999,-3.0344892627499997,0.0029936290000014
mp-763332,Li3MnF5,3.617,-3.0344662379900007,0.0818976755555542
mp-767204,Li2V(Si2O5)3,2.0913,-3.034445815572916,0.0593916202083573
mp-764189,Li3Mn2F7,3.4951,-3.0343930537708332,0.0497127175000002
mp-759377,LiTi2(PO4)3,2.5652999999999992,-3.0343121380621696,0.0026100237499981
mp-604,Nb2O5,2.5212,-3.034204919464286,0.0188420021428559
mp-774382,Li2MnF4,3.8068,-3.0341310811742845,0.0637996082142864
mp-2908,Al2ZnO4,3.8457,-3.033953925,0.0
mp-560772,Mg2B2O5,5.1356,-3.0337709941203683,0.001851433611109
mp-756103,Y2HgO4,2.0445,-3.033682229285714,8.188464285563413e-05
mp-764712,Li2VF4,2.6486,-3.0336740292514293,0.070075699285713
mp-31062,Y(PO3)3,5.7608,-3.03351959254121,0.0012668682692336
mp-557730,Dy(PO3)3,5.5908,-3.0333571951694145,0.0075220238461515
mp-759849,Li2Ti6Zn3O16,2.8292,-3.033348341851851,0.0
mp-558924,Na5Ga3F14,5.2178,-3.0333095480299996,0.0
mp-762903,LiMnF3,3.1386,-3.033248825906,0.0315020599999993
mp-35527,Zr7(NO2)4,2.608199999999999,-3.0332313347115782,0.0306020176315815
mp-772217,ErInO3,1.9560000000000002,-3.0331722804166663,0.0157531887083335
mp-672212,NaNb13O33,1.6963000000000001,-3.0331192075797864,0.0004537063829346
mp-19258,Ba2SmMoO6,0.0,-3.0329682960000013,0.0314168010000139
mp-560528,K2Ce(PO4)2,1.452,-3.032866336630036,0.0
mp-778801,Li2MnF4,3.8952,-3.0328291113528563,0.0651015780357147
mp-7594,CsLiF2,6.2744,-3.032701856845,0.0
mp-720703,NaUHOF5,0.0,-3.0326643816188885,0.2552722957175888
mp-5540,SrB4O7,7.117000000000001,-3.0326126583680564,0.0067655214351738
mp-559389,SiO2,4.1899,-3.032452344166668,0.2522605633333317
mp-773348,Li4Y3VO8,1.786399999999999,-3.03230296421875,0.044313797187506
mp-17677,Nb9PO25,2.1092,-3.0322652534098653,0.0
mp-4086,La2Sn2O7,2.659099999999999,-3.0322638667045454,0.0
mp-1019547,BaLi2Mg(PO4)2,5.638199999999999,-3.032236122585034,0.0087813622321455
mp-19386,Sr3V2O8,3.676,-3.0321217700000003,0.0
mp-13024,AlPO4,4.9643999999999995,-3.0320619563492053,0.1064031941666714
mp-556438,KNaSmNbO5,3.4945,-3.0319861920833326,0.0
mp-773039,Li2Ti6Zn3O16,2.849,-3.0319344979629617,0.0014138438888897
mp-777422,DyHO2,4.727,-3.031767653196667,0.0079166565625001
mp-768022,LiTi4VO8,0.0,-3.031764789761904,0.1067508085714177
mp-556065,Li2MoF6,2.2737,-3.031756606904444,0.0
mp-862664,Rb2Zr2O5,1.692,-3.0316697673611106,0.0915383944444467
mp-557741,Ba17Tm16Zn8Pt4O57,2.3147,-3.031558087463236,0.0
mp-1019525,Ba3ZnB5PO14,4.8405000000000005,-3.0314781489136906,0.0
mp-3370,Y2Sn2O7,2.7501,-3.0314596467045463,0.0
mp-758233,Nb9PO25,2.0823,-3.031270414981293,0.0009948384286584
mp-773017,LiTi2(PO4)3,2.4389,-3.03115540931217,0.0057667524999978
mp-775357,LiV2F9,1.910499999999999,-3.0308880396425004,0.0437573779166662
mp-4117,Li2Si2O5,5.154,-3.030823834583334,0.0
mp-13898,Cs2NaInF6,5.304,-3.030743804214002,0.0
mp-555837,Rb6Si10O23,4.2187,-3.0307091140705116,0.0051877015384613
mp-861178,Li4VF6,2.4728,-3.030662336558182,0.1011348354545456
mp-9646,La(PO3)3,4.6293,-3.0305455761950553,0.0
mp-19365,Ba3V2O8,3.7426999999999992,-3.0305048523076934,0.0
mp-1020670,SrB4O7,5.175899999999999,-3.030452083877314,0.0089260959259149
mp-22951,BaIF,4.0263,-3.030418887063334,0.0
mp-10948,SiO2,5.2394,-3.030262335,0.2544505724999997
mp-767723,LiV2F9,1.8537000000000001,-3.0301885250591676,0.0444568924999986
mp-755464,CeBrO,0.0,-3.030162665416667,0.0215507516666617
mp-763104,Li2MnF4,3.5855,-3.0300798093885715,0.0678508799999999
mp-557857,SrLi2Nb2O7,1.6613,-3.0299811303125,0.0100069530208362
mp-743906,La5MnRe3O16,0.0,-3.029723271038398,0.0312156398600027
mp-772840,Sm2Ge2O7,3.6725,-3.029610337840909,0.0
mp-755015,NaLaO2,3.6668,-3.0294076625,0.0241551931249999
mp-850914,Li4CrF6,2.5802,-3.0290313671642415,0.0577025475757562
mp-619171,Rb2LiFeF6,3.697599999999999,-3.0290034362140004,0.0
mp-6122,Ba2NdSbO6,3.7321,-3.028838458,0.0
mp-849779,LiSi6BiO14,3.9631,-3.0287600021590912,0.0300354626704528
mp-626151,YHO2,4.0468,-3.0287272896550004,0.0
mp-777702,LiMnF3,3.772199999999999,-3.028673459406,0.0360774264999994
mp-773843,LiTi2(PO4)3,2.296,-3.02862861792328,0.0082935438888878
mp-774539,LiTi2(PO4)3,2.604999999999999,-3.0285193518121702,0.0084028099999979
mp-554144,K3Mn2F7,2.7835,-3.0285072462708325,0.0
mp-14862,SrCu(Si2O5)2,0.859499999999999,-3.028284117187498,0.0193542816145839
mp-763103,LiMnF3,3.6206,-3.0279353476560003,0.036815538249999
mp-768267,HoInO3,1.9681000000000002,-3.027929414416667,0.0102146915833314
mp-555960,SiO2,5.3454,-3.027880471458333,0.2568324360416661
mp-765457,LiMnF3,2.9514,-3.027810320406,0.0369405654999992
mp-891956,Ca10V6O25,2.35,-3.027734336371952,0.0
mp-764761,Li2VOF4,2.0956,-3.02770382793875,0.0187733853422749
mp-765545,LiVF3,2.5456,-3.027702750714,0.0451947899999973
mp-561356,Cs2UP2O9,2.151999999999999,-3.0276766449957484,0.0
mp-546279,ScBrO,3.236,-3.027609647083333,0.0
mp-764337,LiMnF3,3.7869,-3.0273762629060004,0.0373746229999989
mp-8869,Y2S2O,2.5515,-3.0272649628750004,0.0101557633333335
mp-561280,Na3Li3Fe2F12,4.0681,-3.0271573493390003,0.0
mp-25025,YMnO3,0.405199999999999,-3.027066186942,0.0231630146666645
mp-776691,Li3VF5,2.7168,-3.0269348135777783,0.0939550193055556
mp-566113,GdMoO4F,3.371,-3.02687335981286,0.0
mp-763349,Li2MnF4,3.969,-3.026658350459998,0.0712723389285727
mp-558227,K2RbMn2F7,2.9214,-3.0265962396041663,0.0
mp-763091,Li2MnF4,4.7007,-3.0265823361742856,0.0713483532142857
mp-558733,SiO2,5.2698,-3.026538339722223,0.2581745677777771
mp-756708,CaPrO3,0.0,-3.0260531587500004,0.1737917913750006
mp-677378,TiNbTl(O2F)2,2.5858,-3.0256099054496315,0.0301520953240705
mp-1020797,Y(PO3)3,5.6193,-3.0255932810027466,0.0091931798076974
mp-777475,Li3FeF6,4.008999999999999,-3.0255080932139995,0.0253701813333258
mp-13938,Sr2DyReO6,0.0,-3.0254977589166665,0.0801073601874993
mp-557844,KMg4(PO4)3,4.9852,-3.0254848842142863,0.0040557395624993
mp-762785,LiVF5,2.0398,-3.0253723515642865,0.0878744900000052
mp-18460,K2Si6GeO15,4.3731,-3.025253332239583,0.0
mp-7787,HfSO,2.869099999999999,-3.0252316042708323,0.0068513712500006
mp-776830,Li3V4F19,1.3893,-3.0251875201003853,0.0702432796153793
mp-766561,LiNd14(Cu3O14)2,0.0,-3.02518003489796,0.0091944966326487
mp-6127,BaCu(Si2O5)2,0.8549000000000001,-3.025036898281249,0.0142194732812503
mp-3552,Li2Si2O5,5.24,-3.0250099395833336,0.0058138949999984
mp-776502,LiTi2(PO4)3,2.6769,-3.0247407287566137,0.012181433055554
mp-765541,Li2VF4,2.6512000000000002,-3.0247237113942864,0.0790260171428558
mp-13170,KNaGdNbO5,2.717799999999999,-3.0244930784722217,0.0
mp-606604,CsLi2F3,7.0403,-3.024343149761666,0.0577514875000009
mp-559454,Cs2KFeF6,4.095599999999999,-3.024308821714,0.0
mp-776139,LiVF5,1.866,-3.0242502558499997,0.0889965857142911
mp-561294,SrLi2Nb2O7,1.4673,-3.0238757157291665,0.016112367604169
mp-763433,Li2MnF4,3.743699999999999,-3.02375057438857,0.0741801150000007
mp-772535,LiNb13O33,1.707,-3.0237486532180853,0.0147961097872322
mp-753799,CsTmO2,2.778399999999999,-3.023704804374999,0.0082407153125005
mp-1020112,Mg2SiO4,4.457700000000001,-3.0233006035714287,0.2126944696428561
mp-556487,K2NaMoF6,3.8931,-3.0232993892140003,0.0
mp-17066,Y2TeO6,3.0718,-3.023278096111111,0.0
mp-505438,BaGd2PdO5,0.035999999999999005,-3.023272410694444,8.433438888744149e-05
mp-764290,V3OF7,1.1207,-3.0230214204163635,0.099351009090931
mp-9757,BaSm2PtO5,2.6058,-3.0229197545833317,0.0029664537962981
mp-18150,K3Lu(PO4)2,4.9407,-3.0228897647278923,0.0
mp-777780,Li3MnF6,1.3675,-3.0228054983099995,0.0236588184999995
mp-558931,SiO2,4.5368,-3.0226889823611116,0.2620239251388874
mp-8515,BaSm2PdO5,2.1423,-3.0226373684722216,0.0
mp-765242,V2F7,0.7778,-3.0225052273144435,0.089389456944434
mp-777488,Li3FeF6,3.9812000000000003,-3.022501231214,0.0283770433333439
mp-777900,Li3FeF6,4.0719,-3.0224752577140004,0.0284030168333435
mp-754453,LaTiNO2,0.5628999999999991,-3.0224156313093333,0.0686063052560044
mp-760979,Na2Ti2O5,3.6479,-3.022361574120368,0.0325892257222237
mp-19750,BaGd2PtO5,2.191799999999999,-3.0223212906944443,0.0183689633796362
mp-561237,LiCaBO3,5.040100000000001,-3.0223207736111117,0.0001091050000008
mp-541318,CsTi3Si2P6O25,0.0,-3.022063359454634,0.0
mp-776814,LiMnF3,3.4012000000000002,-3.022053770906,0.0426971149999992
mp-777887,Li3VF5,2.5404,-3.0220510852907405,0.0988387475925929
mp-768149,DyInO3,1.987099999999999,-3.0219457044166673,0.0046853436666669
mp-558212,KNaNdNbO5,3.4371,-3.0217975115277773,0.0
mp-558674,K2NaFeF6,4.0922,-3.021760171213999,0.0
mp-39260,Na2CaPO4F,4.1045,-3.0217107779205814,0.0259741692222208
mp-282,TiF2,0.45179999999999904,-3.0215949796822223,0.2598511725925929
mp-556806,BaNa2(SiO3)2,4.1743000000000015,-3.021372179772728,0.0140393495454516
mp-23151,Na4BeAlSi4ClO12,4.6318,-3.0212443875330446,0.0
mp-19657,LaMnO3,0.0,-3.021128569442,0.0
mp-558894,Ba4Ti2PtO10,1.9973,-3.02101006240196,0.0
mp-555150,KTa(BO3)2,3.6133,-3.020959480083333,0.0
mp-554799,VF4,2.2417,-3.020603423952,0.0
mp-555481,Ba6Er2Ga4O15,3.5263,-3.0205842695833325,0.0
mp-561249,Ba17Er16Zn8Pt4O57,2.3049,-3.0204727325612746,0.0
mp-779287,La2HgO4,2.237199999999999,-3.020451906428572,0.0
mp-7958,KLaO2,3.8678,-3.020155778125,0.0
mp-989605,Cs2RbInF6,5.3728,-3.020112719714,0.0
mp-756339,Tm2TeO6,2.45,-3.0200603319444457,0.0495846825925925
mp-558078,Rb2NaFeF6,4.0722,-3.0199400722139997,0.0
mp-989629,CsRb2GaF6,5.539300000000001,-3.019904968714,0.0
mp-683997,Ce3NbS3O4,0.0,-3.019828832471592,0.0665448941161717
mp-697305,K2Na5Al7Si5O24,2.3028,-3.01976465511628,0.1189369619476732
mp-771957,Ta2PbO6,2.6067,-3.019418775000001,0.0
mp-774361,Li2Mn3F8,3.5244,-3.019098536146154,0.02778630173077
mp-558702,CsMnF3,3.4542,-3.0190315602393336,0.0
mp-6189,CaCu(Si2O5)2,0.8497999999999991,-3.018921312499999,0.0294215860937505
mp-756930,BaCaO2,2.8163,-3.018915294375,0.0538949612500001
mp-6686,K2NaInF6,5.2445,-3.0188968212140006,0.0
mp-777932,LiMnF3,3.5986000000000002,-3.0188619534060015,0.0458889324999978
mp-19957,LaGeBO5,4.0105,-3.018811352239583,0.0
mp-778300,LiV2OF5,0.7904999999999991,-3.0188107461703706,0.0823408190740773
mp-27526,K3InF6,5.322100000000001,-3.0186043023390003,0.0
mp-6358,NaTiPO5,3.0398,-3.0181736229389884,0.0009036332624985
mp-676975,Ba3Na7Ti3Nb7O30,1.1087,-3.0181621474499982,0.0370385268300044
mp-558547,K2MnF4,2.807,-3.0181340322457144,0.0
mp-566140,Sr9YbV7O28,0.0,-3.0181232381111114,0.0
mp-765046,Li4V2OF7,0.9141999999999991,-3.018119291755714,0.0569534709424681
mp-669528,Na2UO4,2.0003,-3.018058758571428,0.024938754999991
mp-560824,La6B(NO2)3,1.0963,-3.0179165741441683,0.0
mp-17350,La2TeO6,2.9623999999999993,-3.017911226666667,0.0
mp-779729,Na2Ti2O5,3.8077,-3.0178269596759244,0.037123840166668
mp-466,Nb2F5,0.14979999999999902,-3.0178092639452387,0.0
mp-557364,CdB2F8,5.4624,-3.0177830143503033,0.0
mp-767161,Li4MnF7,2.19,-3.017429717024166,0.0514372466666621
mp-755317,Y2TeO6,3.0839,-3.017411967685185,0.0058661284259251
mp-754621,Sm2Ge2O7,3.8174,-3.0173025503409088,0.0123077875000001
mp-773101,K3Li2Ta6(PO8)3,0.0,-3.017286604323308,0.0535987042643419
mp-863708,KPuO3,0.0,-3.0172850801249997,0.0
mp-765917,LiV2OF5,1.841999999999999,-3.0172228743185188,0.0839286909259282
mp-778346,Li2MnF4,3.6791,-3.0172086665314275,0.0807220228571443
mp-764288,Li3MnF6,1.8901000000000001,-3.01720794631,0.0292563704999953
mp-554863,KNb5O13,2.3545,-3.0170852449342114,0.0053697167105273
mp-763187,Li2Mn3F8,3.356999999999999,-3.0170147424923077,0.0298700953846164
mp-696195,YSeF,2.1589,-3.0170130345112502,0.0
mp-2883,Sm2Sn2O7,2.6977,-3.0168157826136364,0.0
mp-764278,Li3MnF5,4.7264,-3.0167775352122224,0.099586378333333
mp-553278,Nd4Se3O4,1.323299999999999,-3.0167464682528418,0.0
mp-6138,Na2TiSiO5,2.9882,-3.016556635324074,0.0
mp-7650,RbScO2,3.454099999999999,-3.0165326231250003,0.0
mp-21568,BaSm2CuO5,0.0,-3.0163171048611113,0.028199079027785
mp-8081,Na2SnF6,4.9577,-3.01567967746,0.0
mp-27123,ErSeF,2.112,-3.0155706396501385,0.0254487416666657
mp-20464,SrPrO3,0.0,-3.0153900067500015,0.1402639094999989
mp-541317,KTi3Si2P6O25,0.0,-3.0152085551303096,0.0053685320778633
mp-9716,TiBO3,0.0,-3.0151147184166667,0.0738244901833304
mp-765237,VF4,2.2356,-3.015110251952,0.0054931719999977
mp-25121,UV2O6,0.4112,-3.0150485519444468,0.0035625551388598
mp-556737,Pr6Ti2S7O6,1.1657,-3.014537792108136,0.0057548848809556
mp-1013762,LiTi2P2O9,0.0425,-3.014419536483844,0.0501229237771845
mp-560387,Cs2Al2P2O9,4.899699999999999,-3.014254109162699,0.0
mp-779073,LiMnF3,3.7828999999999993,-3.0141822469060005,0.0505686389999988
mp-567350,KCr2PbF9,3.0941,-3.014090379862307,0.0
mp-764367,V2OF5,1.6925000000000001,-3.0140733824624997,0.0381173990624992
mp-8145,RbScO2,3.3017,-3.0139961656250005,0.0025364575000006
mp-779355,Li3MnF5,4.3604,-3.0139226168788884,0.1024412966666661
mp-555976,Na2TiSiO5,3.2081,-3.0138961028240736,0.0026605324999549
mp-772587,Sr4Li4Nb5FeO20,1.2550000000000001,-3.0138844525,0.0183365937499964
mp-555188,Ba17Ho16Zn8Pt4O57,2.2984,-3.0138810677573526,0.0
mp-9559,Nd3IrO7,0.0,-3.013791051477274,0.0
mp-558317,KNaPrNbO5,3.4049,-3.0137588718055563,0.0
mp-10814,SrLiBO3,4.3664,-3.013652370486111,0.0
mp-763012,Li2MnF4,3.743999999999999,-3.01341179796,0.084518891428571
mp-566768,Ca2VClO4,3.4607,-3.0133462341575004,0.0
mp-778277,Li2Ti3FeO8,1.3264999999999991,-3.0132236889285715,0.0349391489285473
mp-690120,La3(MoO5)2,1.700299999999999,-3.0131549495,0.107299103999999
mp-778697,LiMnF3,3.8372,-3.0130137434060003,0.0517371424999986
mp-554396,Mg2SiO4,4.1471,-3.0129536857142853,0.2230413874999994
mp-556229,Li2MnF5,1.8414000000000001,-3.0128603464887496,0.0
mp-41191,Na3Ti2P2O10F,3.1952,-3.0126206146229886,0.005205471786267
mp-763783,Li4MnF7,0.0,-3.0125615336908327,0.0563054299999965
mp-675215,Mg2SiO4,3.429999999999999,-3.01244591392857,0.2235491592857137
mp-7889,Sr2YReO6,0.0,-3.0121378545000006,0.0833710791874899
mp-625150,ScHO2,4.412,-3.0121244965300003,0.0
mp-743638,Li6Ti8Ni(PO5)8,2.979599999999999,-3.0120748764777017,0.0029283142857146
mp-776083,HfSnO3,2.3676,-3.01203669175,0.0691540584999987
mp-754534,Li2CeO3,2.3497,-3.0120024139583337,0.0
mp-764226,Li2VF4,2.701,-3.011850774965714,0.0918989535714276
mp-19383,Ti4Mn(PO4)6,2.4649,-3.011764295891375,0.0
mp-560861,Cs2KMnF6,1.5996000000000001,-3.01128283881,0.0