mpid,formula,BG,FE,e_hull
mp-770645,Li8HfO6,3.9011,-2.4626241878333333,0.0636220393333344
mp-31745,Cr(PO3)4,0.0,-2.462560147787116,0.0564855798161927
mp-769510,Li5Ti4Co3O16,0.33640000000000003,-2.4625518473809533,0.0943803446316939
mp-779720,Li5LaO4,3.9705,-2.462496404875,0.0625803711250014
mp-5348,MgCO3,4.9603,-2.4624644472500004,0.0
mp-18849,Fe2P2O7,3.7687,-2.4624091440854983,0.0017997263636253
mp-566951,LaSbMo2O9,3.277299999999999,-2.462398745480769,0.0
mp-851013,VFe2(PO4)3,0.0,-2.462380231071428,0.0583735711111224
mp-780549,LiFe2O2F3,2.0132,-2.4623335138837508,0.0570733151388882
mp-763780,Fe(PO3)3,2.0249,-2.4623277331181335,0.0733262494871525
mp-765419,Li6V5O12,0.6962,-2.462317948260869,0.048487036684782
mp-777452,LiNbCoO4,2.2355,-2.4622865671428564,0.0
mp-757159,LiSiBiO4,3.1885,-2.4622609917857146,0.0973846873214308
mp-779369,Fe5(OF4)2,0.12210000000000001,-2.462256766801334,0.0927171260000037
mp-677680,LiMgAl3(SO4)6,5.713999999999999,-2.4622345536964287,0.0169773373571482
mp-768084,Li8V11O22,0.8115000000000001,-2.462227866036586,0.0491257656402224
mp-780395,Cd(BO2)2,2.901,-2.4621990250000003,0.0302487626785694
mp-770709,RbLi2Fe2(BO3)3,2.3855,-2.4621843641911783,0.0140702836029378
mp-32120,Mo3(PO4)4,1.6307999999999991,-2.462135734886128,0.0441860341303481
mp-770352,Eu2NiO4,0.0,-2.462095012142856,0.022657798571446
mp-774502,NbSb3(PO4)6,0.0,-2.462080861869747,0.0302604759313958
mp-550008,ScBiO3,0.6928999999999991,-2.46202217975,0.3568274701249985
mp-780724,LiSbP2O7,3.6412,-2.4618540286309525,0.0688071314393932
mp-771369,LiMnBO3,2.1548,-2.4617743591183334,0.0657430488888923
mp-775787,Hf2N2O,1.619799999999999,-2.461582245452,0.0884155742499945
mp-978093,Ho2S3,2.4745,-2.4611947694375003,0.0121990486666661
mp-763830,Li3Ti2Mn5O12,0.5962000000000001,-2.4610793121121213,0.086328610189394
mp-769611,Li4V3CrO8,1.9371999999999991,-2.460874864999999,0.0064982081249986
mp-769614,Li4V3CrO8,1.872099999999999,-2.4607764193749992,0.006596653749999
mp-704461,Ba3La7Mn(Co3O10)3,0.0,-2.4607754221692004,0.0510051205999992
mp-761143,KLiSb(PO4)2,0.2717,-2.460773347527473,0.0742890401922968
mp-766761,LiFePO4,3.4596,-2.4607580475850344,0.090818902142856
mp-771386,VBO4,2.6343,-2.460737531944444,0.0681090899999983
mp-853213,Li2Mn3(BO3)3,0.0,-2.4607197858311767,0.0568068778921393
mp-769615,Li4V3CrO8,0.0,-2.4606127628124987,0.0067603103124991
mp-760580,Li2AgF3,1.9705000000000001,-2.460566945595,0.0592998191666671
mp-772301,LiFePO4,3.3635,-2.46049996829932,0.0910769814285705
mp-554833,CoAs4F18,3.433799999999999,-2.4604395339747827,0.0
mp-765513,LiTiCoO4,0.9399000000000001,-2.4603809830952383,0.0702650275000005
mp-34508,Sr(SmS2)2,2.1281,-2.460373606607143,0.0125471735714297
mp-771975,Na2TbO3,0.0,-2.460124963402777,0.0773755255555554
mp-558393,Rb2Nb3Cl7O5,2.3515,-2.460080402592352,0.0
mp-567498,Rb2NaTmCl6,5.0572,-2.460079848956,0.0
mp-1017466,SrMnO3,0.0,-2.460023682942,0.0432249640000002
mp-18909,BaNi2(PO4)2,3.7407,-2.45994780970696,0.0
mp-757507,Sm3Bi5O12,2.548999999999999,-2.459928674625,0.0283693728437466
mp-23995,Al2P3(HO3)3,6.2699,-2.4599011003762183,0.0044332831638636
mp-615489,Mn3Nb6O11,0.2338,-2.459887155831498,0.0
mp-26835,Li3Bi5(PO4)6,4.0023,-2.459784955883458,0.0401952010526365
mp-9018,LiCdPO4,3.2179,-2.459784409013605,0.0005162850396809
mp-721238,Li10Sn(PO6)2,3.272599999999999,-2.4597814214476186,0.1004937142000015
mp-778680,Li5Mn8(BO3)8,0.5750000000000001,-2.4597224300225182,0.056472134462945
mp-782718,Mn6O5F7,0.0,-2.459713118074444,0.0373005781250128
mp-555252,Rb2Ti(GeO3)3,3.072899999999999,-2.459708903305556,0.0
mp-757889,LiSn(PO3)3,3.8805,-2.459663890931123,0.0952362909226183
mp-4659,Cd(PO3)2,3.9273000000000002,-2.459624704160053,0.0
mp-776752,Li4Mn2Fe3Sb(PO4)6,1.109899999999999,-2.4596124476372863,0.0827839132875247
mp-779995,LiMn2P2HO8,3.418,-2.459596519052176,0.0381348952380893
mp-763372,LiP3(WO6)2,0.0,-2.4595855774603166,0.0801636572222808
mp-780239,Na6Sn2B4SO16,3.4322999999999992,-2.459582273990661,0.0
mp-777697,MnP2WO8,2.2835,-2.459562515595872,0.0512673924537345
mp-772477,CrSn(PO4)2,0.43520000000000003,-2.4595001950992064,0.0547803744791686
mp-765344,Li8NbNi3(PO4)6,0.28949999999999904,-2.459420061156463,0.1046402456250064
mp-556030,BaCuCO3F2,0.435299999999999,-2.459366425141249,0.0158891081250001
mp-756799,Ti2Nb2(CuO4)3,0.0,-2.459317798859649,0.0777694594736839
mp-9745,Ba3NaRuO6,0.528099999999999,-2.459236732500001,0.0
mp-766360,La6Cu6O17,0.0,-2.4592279476293104,0.040797517586208
mp-7849,AlAsO4,4.2482,-2.459218873333333,0.0
mp-9092,Er2S3,1.163499999999999,-2.459193860937501,0.0087132271666652
mp-8192,Rb2PtF6,2.6425,-2.4590733096822217,0.0
mp-762292,Li4V5O10,1.2627,-2.458962411184209,0.0460795486184135
mp-19596,K2V3O8,2.0111,-2.458926059230769,0.0
mp-989559,Cs2NaLiF6,0.0,-2.458877410214,0.0
mp-542116,CsAl(MoO4)2,3.8773,-2.458854414166666,0.0
mp-761518,Li2Fe(PO4)2,0.0,-2.4587767204761897,0.0510509564423049
mp-559514,Nd4S3NCl3,3.0831,-2.4587293558497723,0.0
mp-776049,V3Fe2Cu(PO4)6,0.0,-2.4587082816269845,0.0449671966666649
mp-763842,Na3LiMnBPO7,2.4324,-2.4586950585337077,0.077734530833335
mp-698647,LiVO2,0.080899999999999,-2.4586548040625007,0.0302134965625038
mp-720104,Na4Al3Ge3NO14,2.7976,-2.4586478371952003,0.0
mp-850915,LiFe2O2F3,1.641,-2.4585512932587505,0.0608555357638884
mp-767365,SnP4O11,3.9191000000000003,-2.4585078316331845,0.0163522660937243
mp-28288,BaGe2O5,1.8132000000000001,-2.458460802343751,0.0537321643402819
mp-769739,Li4NbCr(WO6)2,1.8451,-2.4583923812500004,0.0234689586250098
mp-767650,Li4Mn2Fe(BO3)4,0.8523000000000001,-2.458176235373333,0.0685971739130675
mp-19337,Ba3CoSb2O9,1.8777000000000001,-2.458166038083333,0.0
mp-767642,Li4MnFe2(BO3)4,1.9108,-2.4581611546794213,0.0481625271739121
mp-9612,La3Ir3O11,0.0,-2.4581600637499985,0.0
mp-767685,LiMn2P2HO8,3.3759,-2.4581389129807474,0.0395925013095173
mp-14787,Tm2S3,2.5249,-2.458094447437501,0.0200873922499971
mp-861746,Li4V3CrO8,1.0314,-2.458088051562499,0.0092850215624986
mp-860886,Li7Cu(SiO4)2,1.1446,-2.4580659322222216,0.0944910238888923
mp-3789,Zn2SiO4,2.7537000000000003,-2.4580491604761896,0.0
mp-754213,Li2ZrCuO4,0.0,-2.458010798125,0.0710104375
mp-765910,LiFePO4,3.4131,-2.457956149727892,0.0936207999999991
mp-780197,Li2Mn3(BO3)3,0.0,-2.4579559414194123,0.0595707223039028
mp-777460,MnPO4,0.6794,-2.457828682759206,0.0
mp-775331,LiVO2,1.0526,-2.457809700625001,0.0310586000000041
mp-853131,Li2V3CrO8,0.0,-2.4578059571428565,0.0302748143005597
mp-773534,TiFeO4,0.0,-2.457801121944444,0.0875165048958326
mp-771407,Li3Fe(BO3)2,2.0792,-2.4577260609027793,0.0683671891666604
mp-772472,LiFePO4,3.2763,-2.4576802790136054,0.0938966707142849
mp-10584,Ba2LiOsO6,0.0,-2.45763197625,0.0
mp-767454,PWO5,1.6157000000000001,-2.457614348477892,0.0113667575000153
mp-774121,LiFe2O2F3,1.7478,-2.4574935870087504,0.0619132420138885
mp-622116,ReOF4,0.9318000000000001,-2.4574736357933333,0.0
mp-24124,NdH2ClO2,4.8667,-2.4574656000833337,0.0
mp-765454,TiCr7O12,0.0,-2.4574611630833347,0.0283427121250081
mp-773556,VO2F,1.6827,-2.457341315089165,0.0228077614583348
mp-765691,Mn6O5F7,0.0,-2.4573085358522224,0.0397051603472338
mp-765073,Li2MnO2F,2.2011,-2.4572353874416666,0.0419779191666629
mp-36100,Ca(SmS2)2,2.083399999999999,-2.4572202208928573,0.0142499607142871
mp-585297,Li2NiP2O7,3.1132,-2.4571161733283744,0.0200430437499905
mp-762336,LiSb(PO3)4,3.9234,-2.4571145149933864,0.0801959637499836
mp-773388,Li4Mn5Nb3O16,0.0,-2.457008352671427,0.0817483454017775
mp-774141,Li4Cr2P4H3O16,0.9188000000000001,-2.4568551626979644,0.0336023094827586
mp-673624,MgNb2(PbO3)3,2.1362,-2.45676313675,0.005748937249999
mp-762281,Li5V5O12,0.8980999999999991,-2.456656346363637,0.0612478898105957
mp-764230,Li2MnO2F,0.0,-2.456625409525,0.0425878970833295
mp-762264,Li2CoSiO4,2.6016,-2.456514518125,0.0804578518749936
mp-759396,LiBi3(P3O10)2,3.9787,-2.4564893006190487,0.0648988933333223
mp-540277,VPO5,1.6329,-2.4562974620493185,0.0596804014286096
mp-780116,Mn6O5F7,0.0,-2.4562395464077773,0.0407741497916793
mp-772521,Li8TiO6,3.991599999999999,-2.456174135611112,0.0040807120000003
mp-36836,Sr4Ru2O9,0.0,-2.4560121305277782,0.0
mp-777661,Li5Mn8(BO3)8,0.5302,-2.4559705595780743,0.0602240049073881
mp-773357,Li2Fe3(PO4)3,1.4682,-2.4559493924642863,0.0592631893124799
mp-13335,Cd(BO2)2,3.343099999999999,-2.455930147261905,0.0365176404166662
mp-756347,Y2Pt2O7,1.4572,-2.455860788977273,0.0
mp-776682,Mn6O5F7,0.0,-2.4558514541855567,0.0411622420138995
mp-764786,Li4Mn(OF)2,2.7762000000000002,-2.4558144384266662,0.0943063064814815
mp-752943,Li4Cu(PO4)2,0.681,-2.4558014024126984,0.0689849741666703
mp-15179,Pr2S3,0.7774999999999991,-2.4557858419375003,0.0
mp-776866,Li4Ti3Co2Sn3O16,1.6612,-2.4557738323214293,0.0865415569196397
mp-673644,Tb2S3,1.872099999999999,-2.455768489520834,0.0234368257500001
mp-998434,RbTlF3,0.0,-2.455687425714,0.0305714532500003
mp-561481,Ba5Ru2ClO9,0.0,-2.4554935408535297,0.0327157753431528
mp-758196,Mg3(AsO4)2,3.032299999999999,-2.4554008684615383,0.0151341750000009
mp-38327,Ca(TbS2)2,2.1434,-2.455274365416668,0.0230971289285726
mp-779306,Li3Fe(BO3)2,2.1966,-2.4552603267361115,0.0708329233333273
mp-770402,Li3B2SbO6,3.119999999999999,-2.4552300892361103,0.0403497333333371
mp-1016819,HfZnO3,0.0,-2.455224102750001,0.6872005434999995
mp-556414,CsTmSeCl2O3,4.3558,-2.4552088076704695,0.0
mp-763369,Li2Co2Si2O7,2.3439,-2.4550814233653835,0.0698180611538425
mp-540007,MnPO4,0.460099999999999,-2.45505320484254,0.0027754779166748
mp-35876,Ca(NdS2)2,2.061299999999999,-2.4549940830357144,0.0123006071428575
mp-776205,Hf2N2O,1.3758,-2.454789254202,0.0952085654999965
mp-542459,BaGa2(GeO4)2,3.2617,-2.454715545384615,0.0151823001923085
mp-645301,K2CoP2WO10,2.660999999999999,-2.454510316324405,0.0
mp-567287,Rb6U(Mo2O9)2,2.3604,-2.4544976730172405,0.0
mp-5189,AlAsO4,3.865,-2.45449561,0.0047232633333438
mp-7645,KAl(SO4)2,5.5291999999999994,-2.4544614756770837,0.0
mp-767317,Li4Mn(OF)2,1.3372,-2.45443705176,0.0956836931481479
mp-767831,LiFe2(PO4)2,1.5931,-2.4543000618223454,0.0413317064422829
mp-849537,V6O11,0.44960000000000006,-2.45424723757353,0.0472711407353028
mp-768054,Li4V3CrO8,0.9635,-2.4541522012499986,0.0132208718749993
mp-18575,Nb2Zn3O8,2.9667,-2.454125413461538,0.0229322867307484
mp-779996,LiFe2O2F3,1.9177,-2.454096598258751,0.0653102307638882
mp-32645,Sm2S3,1.807599999999999,-2.4540293121875,0.0155141652499999
mp-767042,Li5MnO3F2,1.2666,-2.4539361833718183,0.0525715627272864
mp-761019,Hf2N2O,2.1159,-2.453933206702,0.0960646129999958
mp-780129,Fe2OF3,1.4514999999999991,-2.453894071303333,0.0553648303333407
mp-850409,Fe2OF3,1.5199,-2.4535965763033336,0.0556623253333405
mp-771295,LiMnBO3,2.9162,-2.453553603979444,0.0739638040277812
mp-767228,LiFe2(PO4)2,1.6052,-2.453516085091576,0.0421156831730522
mp-775729,Li4V3CrO8,0.9862000000000001,-2.4534415056249994,0.0139315674999984
mp-767752,Li3V5O10,0.639899999999999,-2.4534113162499995,0.0696013759722085
mp-761911,Li2Cu(PO3)4,0.869,-2.4533769464411024,0.0429825855701855
mp-776510,Li3Sb3P8O29,2.6023,-2.4533669332793457,0.0070099205232594
mp-28908,Ba5(RuO5)2,0.22809999999999903,-2.453322036323529,0.0
mp-605642,KB3(HO3)2,4.8267,-2.453288228259584,0.0203766772395823
mp-32383,Li2NiP2O7,4.116,-2.4532718110367053,0.0238874060416591
mp-763386,Li2Co2Si2O7,2.84,-2.453141134134615,0.071758350384611
mp-765093,LiSb(PO3)4,3.4616000000000002,-2.45308752068783,0.0842229580555393
mp-1013939,TiSF,0.0,-2.4530189573063903,0.1771514202222244
mp-866339,Cd(PO3)2,4.008599999999999,-2.4530083426322755,0.0066163615277785
mp-776218,LiV2O4,0.0,-2.4529230178571413,0.0674843089880443
mp-775252,Li8Mn3Fe5(BO3)8,3.0354,-2.452914819921111,0.0020203878125011
mp-998159,TlFeF3,0.0,-2.452880068714,0.0
mp-2173,P2O5,4.8374,-2.4527939367772107,0.0051178378571403
mp-764906,LiV2O4,0.830299999999999,-2.4527824964285707,0.0676248304166158
mp-765769,Li10Ti3Mn5O16,0.862699999999999,-2.4527489280823525,0.1039393057352926
mp-757964,LiSn2P5O16,2.2785,-2.4527300491865085,0.0984366796007068
mp-763013,Fe2OF3,1.3916,-2.4526892195533327,0.0565696820833405
mp-770071,LiAl2FeO6,0.8270999999999991,-2.4526873257500013,0.1254716501249984
mp-779805,Li8Mn3Fe5(BO3)8,0.0,-2.452685731171112,0.0022494765624996
mp-765993,V2Fe3Sb(PO4)6,0.740699999999999,-2.452648791765874,0.0620911089583229
mp-763251,CoP4O11,3.1738,-2.4526412925706853,0.0
mp-761553,Li2Ni(PO3)4,3.5437,-2.4525324001253126,0.0844326703070246
mp-972978,ScVO3,0.0,-2.4525296107500005,0.8048039999999919
mp-763052,Fe2OF3,0.9197999999999991,-2.45247120997,0.056787691666674
mp-2309,Tm2S3,1.1833,-2.4524680654374995,0.0257137742499988
mp-781591,Li3Co2(SiO4)2,0.0,-2.4524363053333333,0.043334605499969
mp-765222,LiSn3(P3O10)2,0.208399999999999,-2.452427693785714,0.080903657604181
mp-694933,MgTi3Pb5WO15,1.6852999999999991,-2.452386394949999,0.0537777948000002
mp-676933,CeAl8O16,0.0,-2.4522332551999995,0.7748663547000003
mp-561496,NaMg3Al(MoO4)5,3.551,-2.4521787838333333,0.000996516222222
mp-764343,Li7Mn(OF)3,3.0122,-2.452151841662857,0.0863848054761913
mp-558557,BaLa4Cu5O12,0.0,-2.452116667500001,0.0303616831818178
mp-762555,LiFePO4,3.295899999999999,-2.4521157007993204,0.0994612489285691
mp-761462,LiFePO4,3.3556999999999992,-2.4520200868707485,0.0995568628571419
mp-778616,VO2F,1.4668,-2.4520198377975,0.0281292387500009
mp-769703,LiCrBO3,1.448999999999999,-2.452000492291667,0.0384359926587309
mp-28970,Nd2NCl3,3.343,-2.451969710776668,0.0
mp-23102,Sr2Cu(ClO)2,0.0,-2.451914587002858,0.0
mp-540234,Li2NiP2O7,3.567799999999999,-2.4519052660367073,0.025253951041658
mp-540270,MoP2O7,1.248,-2.451833198494048,0.107892167000001
mp-776769,Li2Fe2(PO4)3,0.0,-2.451770230488723,0.0343728579934277
mp-551456,Ba2CuClO2,2.3029,-2.451746929293334,0.0
mp-20775,CeDyS3,0.0,-2.4516850682708338,0.0
mp-540486,Fe3(P2O7)2,0.8609,-2.4516714845181404,0.0399001489285995
mp-761464,LiFePO4,3.3973,-2.451623777227891,0.0999531724999993
mp-772694,Li2FeSn(PO4)2,3.106499999999999,-2.4515976779421766,0.067257131726186
mp-1021522,VO2,0.9384999999999991,-2.4515553354166664,0.0327188987499962
mp-26725,LiSnPO4,2.5567,-2.451532719965987,0.0345999496428586
mp-19215,CaCrO4,2.3678,-2.4514222608333327,0.0
mp-17924,ZnP2PbO7,4.2572,-2.4513789993127704,0.0
mp-767237,LiFe2(PO4)2,1.4168,-2.4513110985531146,0.0443206697115128
mp-3821,K2PtF6,2.5717,-2.4512547530155544,0.0
mp-558143,Pr4S3NCl3,3.0308,-2.4512045990315907,0.0
mp-561474,K3LiSiO4,3.6727,-2.451201124166666,0.0
mp-772439,Li3AlFeO4,2.4242,-2.451145727361112,0.0191753495833344
mp-861181,Mn3VSn2(PO4)6,0.005799999999999,-2.45102582976254,0.097773561041663
mp-765283,Li5TiV3O8,0.627799999999999,-2.451010617598039,0.1001641761274472
mp-694534,LiFeP2O7,1.5153,-2.4509713631764067,0.1365941527272722
mp-560934,Na2Zn5(PO4)4,3.6589,-2.450970333421517,0.0
mp-780486,Mn6O5F7,0.0,-2.450963040852224,0.0460506553472326
mp-694722,Li2NiP2O7,4.13,-2.450915127911708,0.0262440891666573
mp-782685,Li3Fe3(OF)4,1.7117,-2.450871759982857,0.0825246132936552
mp-779525,Li3Sb3P8O29,2.3308,-2.4508587311863224,0.0095181226162832
mp-672972,Sn(PO3)3,2.3452,-2.450763337541209,0.0514351435576783
mp-769153,Li2SbSO4F3,4.3691,-2.450684290921137,0.074512307954544
mp-764772,LiVO2,1.2487,-2.450672946625,0.0381953540000044
mp-744672,Ca2Mn2Si4H6O17,0.168499999999999,-2.4506352762867736,0.0615877236828108
mp-780470,Li8Mn3Fe5(BO3)8,3.1448,-2.4505294865877785,0.0044057211458339
mp-779952,LiCrP2HO7,2.9568,-2.450460625296706,0.0341969526884788
mp-778626,Li8Mn3Fe5(BO3)8,3.1249,-2.450443315129444,0.0044918926041672
mp-780917,Mn6O5F7,0.0531,-2.450439256963333,0.0465744392361227
mp-850375,Li8Mn3Fe5(BO3)8,2.8502,-2.4504083024211107,0.0045269053125007
mp-775257,Li8Mn3Fe5(BO3)8,3.1048,-2.4504002234627777,0.0045349842708342
mp-779373,Li8Mn3Fe5(BO3)8,3.101,-2.4503995697127783,0.0045356380208341
mp-775850,Mn2Fe3Sb(PO4)6,2.248,-2.450234605985873,0.0044290166030229
mp-778141,Sm2Pb2O7,1.009199999999999,-2.4501755187500005,0.0314485714772736
mp-765689,Li4Co3(OF3)2,2.5015,-2.4501296373093333,0.0789676119999986
mp-778038,Li8Mn3Fe5(BO3)8,3.0954,-2.450095344504445,0.0048398632291668
mp-763937,VO2F,1.568,-2.4500927571725,0.0300563193750003
mp-766947,Sn(PO3)2,3.779599999999999,-2.4500750577711647,0.0
mp-759198,Li2AgF3,1.8653,-2.450030834761667,0.0698359299999999
mp-558455,Na4Li5(BO3)3,3.8255,-2.4500191152976183,0.0
mp-645799,VP2Pb2O9,2.2786,-2.4499649021386065,0.0008095670357652
mp-554231,Nd5Cu5O13,0.0,-2.4498999692934795,0.0711719500000089
mp-774410,Li8Mn3Fe5(BO3)8,0.0,-2.449868056379445,0.0050671513541669
mp-752520,GdIO,0.252299999999999,-2.449854782916667,0.0
mp-32586,Nd2S3,1.7865,-2.4498441656875016,0.0138536237499993
mp-705380,LiMo2P3O13,2.7289,-2.449801345028195,0.051473923552602
mp-764817,Li2Mg11(WO4)12,3.4156,-2.449683569041096,0.0998506453424639
mp-760052,Hf2N2O,1.8812,-2.4496725638686656,0.1003252558333276
mp-774523,Li3Sb2(PO4)3,2.9263,-2.4495313102142857,0.0814426164999968
mp-34185,Ca(PrS2)2,2.057,-2.4495293501785724,0.0121139489285724
mp-776817,LiFeF5,1.2092,-2.4495087844214294,0.0922811621428589
mp-8962,Rb2HgF4,1.9382000000000001,-2.449349913537143,0.0
mp-23549,Bi3B5O12,3.283,-2.449308155041668,0.0
mp-32826,Dy2S3,1.9090999999999991,-2.449301177854168,0.0250058597499975
mp-5456,Sr2CuO3,0.0,-2.449298745625,0.0
mp-31600,LiCo(PO3)4,0.874,-2.449215557354499,0.0376901999999992
mp-684104,LiSb2P5O16,3.295099999999999,-2.4492019302281736,0.0470760775000194
mp-35787,Ca(DyS2)2,2.1664,-2.449156852083334,0.0257158724999992
mp-762519,Li4Fe7(PO4)6,3.0594,-2.4491537306968643,0.0559285548780401
mp-704669,BaYb2(MoO4)4,0.0,-2.4490802645652168,0.0
mp-780896,MnCr(PO4)2,0.0,-2.448968562262539,0.0808813906250129
mp-765557,TiMn3Te2(PO4)6,1.3313,-2.448876714114393,0.0850156913194446
mp-759329,LiBi3(P3O10)2,3.6350000000000002,-2.4488538594523805,0.0725343344999869
mp-765236,Li5V4O12F,2.4582,-2.448841233463183,0.0573649961363749
mp-754503,ZrBrO,0.0,-2.4488125287500004,0.1044472333333326
mp-19185,Mn3(BO3)2,2.0333,-2.4487476630648493,0.0
mp-770090,LiAlCoO3,2.1941,-2.448722272291667,0.0586744370833347
mp-775007,SbP6(WO8)3,0.0,-2.4485894027521016,0.0272436127757416
mp-779792,Fe5(OF4)2,0.939199999999999,-2.4484195781346667,0.1065543146666714
mp-775320,Li4V3O8,1.723,-2.4483766106666667,0.0683595165277513
mp-777002,Li4V5Cr3O16,1.091,-2.448356928571429,0.0231944776636741
mp-27111,Li3Sb3(PO4)4,3.0469,-2.4483114700274724,0.0462486108333335
mp-773504,V3Sb2(PO4)6,0.0,-2.4483087245306123,0.0965825178571382
mp-2826,Lu2S3,2.5704000000000002,-2.448293851437501,0.0
mp-868260,Li2Mn2P2O9,0.6033000000000001,-2.4482726812906983,0.0723296569166755
mp-762271,Li2V3O6,0.404099999999999,-2.4481519161363643,0.0686527048863432
mp-772350,Cr2PO5,0.6496000000000001,-2.448040090543156,0.0309122305208315
mp-1020594,Zn2SiO4,2.6732,-2.4480097024999994,0.0100394579761875
mp-780584,LiMnP2HO7,4.019400000000001,-2.4479739732933727,0.0621290870833206
mp-559319,Zn2P2O7,3.6862,-2.4479477191991346,0.0
mp-18967,Ba2CoMoO6,0.0,-2.4479230487500003,0.0355932961666729
mp-777476,CrFe2(PO4)3,1.999299999999999,-2.4478844560714292,0.0379537555555558
mp-680169,Na21S7Cl(O14F3)2,4.905,-2.4477719767011243,0.0
mp-759498,LiSbP2O7,3.7232,-2.447738332494588,0.0829228275757731
mp-18288,Ti(SnO2)2,1.0812,-2.447729375952381,0.0011501007142884
mp-775609,V3CoSn2(PO4)6,0.0,-2.4477188352380965,0.1046916023263913
mp-850889,Li3CrP2O9,0.0,-2.4476701721626983,0.0843321956645279
mp-766776,LiV2O5F,2.1494,-2.447534750548889,0.0491075680555539
mp-707009,BH2OF3,7.5534,-2.4475076505323803,0.0
mp-555851,Na2Cd3(P2O7)2,3.0513,-2.4474987167339544,0.0
mp-7921,MgPdF6,1.8285,-2.4473607146425005,0.0
mp-781976,Li2CuF5,0.45939999999999903,-2.4473485782437505,0.0216146961458481
mp-777247,Li2Mn3(BO3)3,0.262,-2.447298941419412,0.0702277223039029
mp-559790,K2Nb3Cl7O5,2.2949,-2.4470728081805877,0.0
mp-762479,Li3Fe3(PO4)4,1.724999999999999,-2.446996695860806,0.0918577921153884
mp-759235,Li2CuF5,0.0,-2.4468589488687504,0.0221043255208481
mp-758899,Sb2OF8,2.1564,-2.4467274650699995,0.0438794482727287
mp-23080,AlBiO3,1.585999999999999,-2.44672428975,0.1206262996249947
mp-26871,Li2Sn3(P2O7)2,2.7556,-2.446686921516564,0.0452096265217258