mpid,formula,BG,FE,e_hull
mp-16927,NaTbGeO4,3.5921,-2.8867795947619053,0.0
mp-773505,Al2CrO5,0.7300000000000001,-2.88666127078125,0.0353742762499766
mp-761820,LiFeSi3O8,3.160399999999999,-2.886555487692308,0.0413212446153679
mp-560209,Li9Al3P8O29,5.349299999999999,-2.8860808215512628,0.0081169184863965
mp-1019896,La5S4NO2,1.4327,-2.8859942350941665,0.0050040341666672
mp-562366,Cs2U3(TeO7)2,1.8529,-2.8859863475000007,0.0
mp-772529,Y2W2O9,3.188099999999999,-2.8859512089423065,0.0683717584615468
mp-775203,Li8ScFe7(SiO3)16,2.7487,-2.88592438875,0.0020161414375046
mp-850923,TiV(PO4)2,0.1504,-2.885851885793652,0.0005599746527789
mp-18423,CsYbP2O7,0.070799999999999,-2.8856266263582246,0.0
mp-759928,K3TbSi3(HO5)2,4.603999999999999,-2.8853993045038586,0.0
mp-20248,SrYb2O4,0.0,-2.8852792157142857,0.1453757464285701
mp-19956,Ba2InO3F,2.046699999999999,-2.8852335978485724,0.0
mp-19134,CaCrP2O7,2.9342,-2.885219196358225,8.121681818451519e-05
mp-778149,Li6Ti3P8O29,2.3633,-2.885039480674172,0.0266745297644783
mp-776108,LiNbO3,2.7432,-2.884992529,0.0290155927499995
mp-19434,Pr2NiO4,1.6753,-2.8849656592857147,0.0484248321428575
mp-975579,NdBeO3,0.0,-2.8849302852500003,0.2607881271250001
mp-754038,YIO,2.2197,-2.8849095279166668,0.0641799
mp-542501,Rb2U3(TeO7)2,1.835899999999999,-2.884797463214286,0.0
mp-763822,LiMnF4,0.7841,-2.884743874495,0.0655124297916556
mp-7748,NaAlO2,4.7292,-2.884565509375,0.0649902168749996
mp-18831,Y2Mn2O7,0.8710999999999991,-2.88439941278818,0.0
mp-555764,BaNb10SiO19,0.0148,-2.8843765086693547,0.0
mp-18735,Ba2Co(BO2)6,2.1832,-2.884254507857144,0.0148290245635216
mp-761465,Li2V(SiO3)3,2.105899999999999,-2.884216495583334,0.0950956571666941
mp-6676,Sr2HoRuO6,0.0,-2.884186246750001,0.0
mp-11734,Sr2MgReO6,0.0,-2.8841852802500005,0.0044319210000001
mp-560894,Li4Be3P3ClO12,6.218199999999999,-2.8838198603280745,0.0
mp-557673,RbBe2P3O10,5.6227,-2.8837572135491083,0.0
mp-558362,CaMgGeO4,3.623399999999999,-2.88369433,0.0
mp-764014,V3OF11,1.5639,-2.8835678699560003,0.0404189758333268
mp-778699,V3OF11,1.606999999999999,-2.883547305956,0.0404395398333274
mp-777223,V3OF11,1.5278,-2.8834739382893333,0.0405129074999939
mp-765549,Li7CoOF7,2.267,-2.88339992466125,0.0661293859374998
mp-778369,V3OF11,1.5402,-2.8833689399559996,0.0406179058333275
mp-777474,LiFeF4,3.226,-2.883366271626666,0.0443805335185283
mp-764053,V3OF11,1.525399999999999,-2.883322942289333,0.0406639034999942
mp-763320,V3OF11,1.522999999999999,-2.8832185306226665,0.0407683151666606
mp-850158,V3OF11,1.5725,-2.882998493622666,0.0409883521666616
mp-779511,Ba2MgO3,3.5116,-2.8829614485416664,0.0280549404166672
mp-23209,SrCl2,5.2286,-2.8829098021733337,0.0
mp-17382,Rb2Si3SnO9,3.7986,-2.8828685957500015,0.0
mp-764201,Li2V3O3F5,1.2510000000000001,-2.882853464207692,0.0759193827991682
mp-776723,Cr4OF11,0.9281,-2.882719874646249,0.0328521167447872
mp-773764,Cr4OF11,0.9415,-2.88271673933375,0.0328552520572866
mp-770159,Sr7W4O19,3.0853,-2.8827077234583327,0.0
mp-775444,Ti3Mn2V(PO4)6,0.0171,-2.8826569608469845,0.0092880819010439
mp-763228,Cr4OF11,0.9174,-2.88260630277125,0.0329656886197868
mp-763232,Cr4OF11,0.9226000000000001,-2.88253593245875,0.0330360589322866
mp-774379,Cr4OF11,0.869599999999999,-2.8823802137087497,0.0331917776822905
mp-686239,Sr5Li25La7Nb8O48,3.210899999999999,-2.8823391013978505,0.1004140506182755
mp-780904,Cr4OF11,0.9155000000000001,-2.8823264280837497,0.033245563307287
mp-23326,Ca4Cl6O,5.2239,-2.8823257841645447,0.0
mp-849606,Cr4OF11,0.9244000000000001,-2.88231686464625,0.0332551267447867
mp-849558,Cr4OF11,0.831199999999999,-2.88230243589625,0.0332695554947868
mp-766170,Li9Ti5(SiO8)2,0.0,-2.8822286332291664,0.0746900559375136
mp-763972,Cr4OF11,0.9371,-2.8821502362087497,0.033421755182287
mp-541482,BaCeC2O6F,0.2706,-2.8821134866990916,0.004758167803029
mp-779363,Cr4OF11,0.9148000000000001,-2.882087310896249,0.0334846804947872
mp-12622,SrPdF4,1.3251,-2.8820079582933342,0.0
mp-865716,YbCl2,5.3972,-2.8819669371733334,0.0
mp-780158,Cr4OF11,0.8343,-2.88176558527125,0.0338064061197869
mp-28017,Na8Ti5O14,3.5098000000000003,-2.8816883263271613,0.0
mp-6392,NaBePO4,5.5745000000000005,-2.881429472585035,0.0
mp-17394,NaYGeO4,3.6470000000000002,-2.8810807896428576,0.0
mp-2533,NbO2,0.0,-2.881031505833333,0.031777025000002
mp-9583,K2ZnF4,4.3016,-2.88100506568,0.0
mp-766938,K3Li2Nb5O15,2.5576,-2.88087677515,0.0107633294666431
mp-763985,Cr4OF11,0.7937000000000001,-2.8808080793337494,0.0347639120572873
mp-777888,LiFeF3,3.2689,-2.8806311437140004,0.0344212499999958
mp-762473,TaCrO4,1.9662000000000002,-2.8806133741666664,0.0733429099999742
mp-555424,CaNb2(P2O7)3,2.3702,-2.88057206332738,0.0
mp-778720,Cr4OF11,0.7559,-2.88045300808375,0.0351189833072869
mp-770006,Al2CrO5,0.676099999999999,-2.8803128970312493,0.0417226499999774
mp-763897,Li6CoOF6,0.0,-2.880251354170714,0.0362278296428622
mp-763227,LiMnF4,1.280299999999999,-2.880227833175556,0.0700284711111001
mp-7567,UGeO4,0.0,-2.8801676616666665,0.0900853680555524
mp-777677,LiFeF4,3.0836,-2.88002087621,0.0477259289351943
mp-558105,LiB6O9F,6.4556000000000004,-2.8795614324964705,0.0
mp-754723,Li2Ti3BiO8,0.0,-2.879340988214286,0.1157358173214229
mp-765881,LiFeSi3O8,3.1855,-2.8789715911538467,0.0489051411538294
mp-706809,Ca2Al11Si13Ag7O48,1.7357,-2.8789500351851864,0.1223262483024676
mp-654301,Nb5P7O30,2.566799999999999,-2.8788490737896817,0.0
mp-989558,Cs2TlGaF6,4.766,-2.878812448214,0.0
mp-559732,K2Nd(PO3)5,5.248299999999999,-2.878777782248965,0.0066274861956516
mp-6621,Ba2ErRuO6,0.07299999999999901,-2.8784545827500003,0.0
mp-19084,BaMg2V2O8,3.5516,-2.8783543526923077,0.0
mp-774314,Ti3MnV2(PO4)6,0.7793999999999991,-2.8782556913758732,0.0149642436979196
mp-778394,Li2MnF6,2.6841,-2.878137309233333,0.0003549831481475
mp-5418,Li6Zr2O7,3.9436,-2.87811514925,0.0
mp-776189,LiFeF3,3.3132,-2.8780283057140004,0.0370240879999963
mp-707304,Be4Si2H2O9,5.739199999999999,-2.8778503575582355,0.0
mp-777674,LiFeF4,3.6467,-2.87779803371,0.0499487714351944
mp-760701,LiNbO3,3.4191000000000003,-2.8777979907499995,0.0362101309999989
mp-542266,KSmP3HO10,5.4434000000000005,-2.877793258306607,0.0
mp-765198,Li3MnF7,1.554,-2.8777373212990898,0.0557345903030297
mp-1203,TiO,0.0,-2.8777117399583334,0.0429770640000022
mp-770907,Gd2W2O9,2.4647,-2.8776896516346144,0.0535942705768786
mp-556908,Nd5As4(ClO4)3,3.6757,-2.8776236094700014,0.0
mp-757671,Li3Ti2(PO4)3,0.11530000000000001,-2.8775036316309524,0.0724831339380918
mp-19734,MgPbF6,3.0406,-2.8774988771425005,0.0
mp-14070,RbAlO2,3.3716,-2.877241846875,0.0
mp-773090,Nb6CdO16,1.5731,-2.877205460434782,0.0507346250000075
mp-695635,Li3Al3P3H2O14F,5.7714,-2.877153316354452,0.0095619943269218
mp-761452,Li2Fe(Si2O5)3,0.2641,-2.877096269947917,0.0982946559114585
mp-1020683,NaCa(PO3)3,5.4403999999999995,-2.8770057253954087,0.0
mp-6016,NdAlGe2O7,3.26,-2.876864560795454,0.0
mp-754445,Li2Ti(BO3)2,2.7927999999999993,-2.8768376270454543,0.0860091668831115
mp-769970,ScFeO3,1.0123,-2.8768284777500006,0.0582858048749983
mp-771977,TmAsO4,3.5505,-2.8767843433333327,0.0
mp-776015,Li2Ti3NiO8,2.2797,-2.8766755614285713,0.0548812553571309
mp-561326,LuSeO3F,3.9052000000000002,-2.876382824755625,0.0013975533333328
mp-778375,La2Nb2N2O5,1.605299999999999,-2.876307968500908,0.0467043847061123
mp-767273,Li2Mn3F10,0.0,-2.876239002318667,0.0814323100000038
mp-773171,TiMn(PO4)2,1.0124,-2.8762223517069843,0.0144477987152829
mp-767580,Li4MnOF5,0.13239999999999902,-2.8759254657418185,0.0917010873863644
mp-6822,NaGa(SiO3)2,4.1707,-2.87559775425,0.0193374523333362
mp-753378,TaGaO4,3.276499999999999,-2.875552729166668,0.0318584058333311
mp-616251,Cs4Fe3F10,3.1395,-2.8754622445235287,0.0
mp-761475,Li2Fe2Si5O13,3.3943,-2.875456157329545,0.0335043038636326
mp-763640,Li2Ti3V3O12,0.9737999999999991,-2.8754322647499984,0.0945162345000163
mp-743768,BaLa3Mn4O12,0.0,-2.8754102776919983,0.0107005770417174
mp-28550,Hf2Ag3F14,0.1527,-2.8752972198242106,0.0
mp-22772,Sr2Nb5O9,0.0,-2.8752513382031246,0.0372757766666662
mp-757688,BaNb8O14,0.338099999999999,-2.875246555326088,0.0
mp-684733,Ti10O11,0.0,-2.8752284278769844,0.1402601021428609
mp-758310,Li3Ti2(PO4)3,0.0,-2.875132035380953,0.0748547301880915
mp-765258,Li4MnF8,1.0362,-2.8750305769600004,0.0965041479487158
mp-763015,LiMnF4,1.6022,-2.874893004842222,0.0753632994444339
mp-774350,Mn6OF11,1.1909,-2.8748508958388888,0.0144169189583385
mp-773089,K3Li2Nb6(PO8)3,0.0,-2.874841748796993,0.0232265768289376
mp-777801,LiFeF4,3.8649,-2.8745858941266667,0.0531609110185273
mp-1784,CsF,5.2602,-2.8745347330950004,0.0
mp-14970,BaLaCuBO5,0.0,-2.8745172969907395,0.0020360787927042
mp-765853,LiV2O2F3,1.3772,-2.8743220857587506,0.0633075178993269
mp-504949,Ba2WO5,3.1515,-2.8742516285937505,0.0
mp-557108,Ba2Nb2TeO10,2.9816000000000003,-2.8741784700000013,0.0
mp-777477,LiFeF4,3.1167,-2.8741664778766665,0.053580327268528
mp-761680,Li2CrSi4O11,0.9435,-2.873929930763889,0.0870162989506146
mp-6644,LiLa2RuO6,0.31469999999999904,-2.87391150075,0.0
mp-23003,Ce2BiO2,0.0,-2.8738781575000005,0.0
mp-764382,Li6Mn11(OF12)2,2.1418,-2.8738704279446505,0.0756716320930195
mp-555958,Ba2Li3(PO3)7,5.451099999999999,-2.873767192588383,0.0
mp-555303,LiEr(PO3)4,5.7413,-2.87374764707672,0.0813374099074053
mp-556814,LiNdGeO4,4.058400000000001,-2.8737444485714283,0.0
mp-758337,Ca2P6O17,5.3661,-2.873736624392858,0.0
mp-1020724,Na7Al4P9O32,4.7512,-2.873561410728022,0.0
mp-1018097,BaCaO2,2.1353,-2.8735353706249995,0.1992748850000003
mp-755690,NbO2,0.0,-2.8735290191666665,0.0392795116666686
mp-7644,LuAsO4,3.5333,-2.873146278333333,0.0
mp-1020161,Na3Al2(PO4)3,5.2294,-2.8731230038392868,0.0352211648437483
mp-6567,LiNd(PO3)4,5.7983,-2.8730264122156086,0.071768629166665
mp-18111,Ba2LaC3O9F,3.9314,-2.8730115559337506,0.0
mp-553308,CsNdO2,2.925099999999999,-2.87298857375,0.0
mp-640266,Ca3Al2O6,0.0,-2.87291697219697,0.5479646670562772
mp-33690,PrSO,1.9171999999999991,-2.8728545684375,0.1128928699999996
mp-581857,KBiF4,3.2279,-2.8728218045433342,0.0319262022916673
mp-768142,Li13Nb14ZnO42,0.0,-2.872580072107142,0.0120558902738103
mp-753139,Li6CuF8,0.0,-2.872566361968,0.0351294096666672
mp-762398,Li2CrSi3O8,3.1126,-2.8724725735714296,0.0595570977142889
mp-24995,PrFeO3,1.446699999999999,-2.87245401825,0.0
mp-773911,Ti2Sn(PO4)3,0.0,-2.87243884681217,0.0061872477546049
mp-23220,YbCl2,5.5411,-2.8723948380066666,0.0095720991666663
mp-775658,Ti3NbV2(PO4)6,0.0,-2.872272684404762,0.034868643715276
mp-19089,UCoO4,1.445599999999999,-2.8721413741666666,0.0
mp-774021,Ti3Mn2Cr(PO4)6,0.040400000000000005,-2.8721362205692063,0.0073311851735962
mp-565678,K2HoPWO8,4.543,-2.8720638511996337,0.0
mp-861557,Li4Mn3OF11,1.0928,-2.872050603801054,0.043876556381571
mp-556257,SiO2,3.6123,-2.8719572073611115,0.412755700138888
mp-754317,NdO2,0.0,-2.87194975,0.2941469118749955
mp-777525,LiFeF4,3.2287,-2.871895100793333,0.0558517043518609
mp-767282,Li2MnSi3O8,2.6554,-2.8718259957828565,0.0815532157142842
mp-769867,ZrCrO4,0.5910000000000001,-2.8717634987499987,0.0724658862500078
mp-762500,LiTi2P3O11,0.06820000000000001,-2.871697809786415,0.1132589013683222
mp-14069,CsAlO2,4.273499999999999,-2.871680168125,0.0
mp-21644,BaNb8O14,0.2031,-2.8716013642391314,0.0036451910869548
mp-557403,LiFe2F6,1.7058,-2.8714328591266667,0.0
mp-776888,Ti3Mn2Nb(PO4)6,0.0,-2.8714170297358743,0.0378952135086816
mp-560937,Na3Si3SnO9F,3.8343,-2.871394479849412,0.0
mp-758357,Li3Ti3(PO4)4,0.0,-2.8712980329761915,0.1067384004093359
mp-764981,Li4Mn3OF8,2.1687,-2.8711046178843747,0.0896409823437505
mp-560742,Ba2TeP2O9,3.4201,-2.87093136517432,0.0
mp-761645,Li2Cr2Si4O11,2.5679,-2.8709171130921063,0.0143153229473611
mp-761653,Li2MnSi3O8,2.7363999999999993,-2.870913900425714,0.0824653110714273
mp-1020026,LiBeBO3,6.0842,-2.870905366736112,0.001286467916671
mp-676937,Ta8Pb6O25,0.32830000000000004,-2.8708872179807687,0.0
mp-770800,Li4Ti3Nb5O16,0.0,-2.8705237778571413,0.1157111331868243
mp-764015,Li4Ti3VO8,0.0,-2.8704658287500004,0.0440698831562551
mp-686232,Na7Al11Si13(AgO12)4,0.5483,-2.8703627452409632,0.1628989072289224
mp-33508,TaGaO4,3.157399999999999,-2.8702817312499995,0.0371294037499989
mp-764645,Li3MnF7,1.407699999999999,-2.8701205085718176,0.0633514030303024
mp-772156,ErAsO4,3.5786000000000002,-2.8701197533333325,0.0
mp-776937,LiFeF3,2.2218,-2.869932723547333,0.045119670166664
mp-757276,Li3Ti2(PO4)3,0.0,-2.869921169630953,0.0800655959380911
mp-705412,CaLaMnMoO6,1.3005,-2.8698888443460016,0.0
mp-764336,Li4Mn3OF8,2.224999999999999,-2.8698222139781246,0.0909233862500009
mp-763147,Li2MnF6,2.7275,-2.8698176995111115,0.0086745928703697
mp-555286,CsNb(PO4)2,2.5389,-2.8696897163492063,0.0
mp-555488,Na5AlP2(O4F)2,4.6654,-2.8696443411242862,0.0
mp-27583,Sr2P6O17,5.326,-2.8695675829928575,0.0
mp-4342,KNbO3,1.475999999999999,-2.86942728875,0.00206528
mp-763886,La7Mn8O23,0.0,-2.8693816285902622,0.0714160069078602
mp-757493,Ti11H7O24,0.0,-2.8693458950874606,0.0941403744438087
mp-33029,Nd2O3,0.9034000000000001,-2.8691789377500014,0.9301370564999996
mp-780010,Ba2GeO4,3.7083,-2.869059766607143,0.0017927279166665
mp-675601,Al3NO3,4.082899999999999,-2.8690078212328576,0.0452535082142837
mp-17777,Sr5As3O12F,3.9026,-2.86899221339,0.0
mp-781604,VOF2,1.7276,-2.868977525074166,0.0011236275520891
mp-18620,Mg(PO3)2,5.5284,-2.868760523743387,0.0
mp-6660,BaNaBO3,3.6487,-2.868748831736112,0.0
mp-766202,Li7Ti3(SiO6)2,0.0,-2.868653758958333,0.0761936991666818
mp-767695,Li2MnSi3O8,3.2608,-2.868545123282857,0.0848340882142837
mp-763960,VOF2,1.7162,-2.868529901324166,0.0015712513020895
mp-761624,LiFeSi3O8,3.2145,-2.868405775384616,0.05947095692306
mp-12944,HoAsO4,3.609,-2.8683225191666675,0.0
mp-777595,LiFeF4,3.4054,-2.8681760207933333,0.0595707843518607
mp-27430,Sn2BF7,4.400799999999999,-2.8681696362496667,0.0
mp-868279,Mn7F16,1.4003,-2.8681537906852177,0.0475489462318803
mp-24601,Al3Si2H3O10,5.476000000000001,-2.8680399757422226,0.0241645111111097
mp-560441,BaZn2Si2O7,3.3032,-2.867934805729167,0.0
mp-779935,VOF2,1.7832000000000001,-2.8677934834075,0.002307669218756
mp-778749,VOF2,1.5198,-2.867647551324166,0.002453601302089
mp-754960,SmIO,2.178699999999999,-2.8675808612500013,0.0764430733333334
mp-756251,Ba2LaCl7,3.313899999999999,-2.867529754282,0.0443231320000023
mp-17242,Nb2(PO4)3,0.0,-2.867410322310924,0.0
mp-765406,Nd2NiO4,0.6717999999999991,-2.8674040528571427,0.1009839860714105
mp-755559,LiNbO3,3.456,-2.86738640075,0.0466217209999992
mp-12623,BaPdF4,1.3729,-2.8673824541266666,0.0
mp-758597,K2TiSi3(HO5)2,3.4247,-2.8673129499392584,0.0
mp-776766,LiFeF3,3.2909,-2.867167187964,0.0478852057499965
mp-16998,Ba2Nb6Te2O21,2.1563,-2.86701121375,0.0
mp-572332,Cs2Sb2OF10,3.8704,-2.8668443048766665,0.0029715899444386
mp-3790,SrNb8O14,0.258399999999999,-2.8666768429347833,0.0
mp-777622,LiFeF3,3.3346,-2.8666126772140004,0.0484397164999963
mp-706239,NaCa2Mg2V3O12,3.3296,-2.8665323055000003,0.0
mp-778602,Ba3GeO5,2.9101999999999992,-2.8665091965277787,0.0
mp-5632,DyAsO4,3.6275,-2.8665082577777774,0.0
mp-766098,LiTi3Sb(PO4)6,2.4673,-2.8664600618163263,0.0057839661428733
mp-542903,ZrPbO3,2.7758000000000003,-2.8664206125000007,0.0256773432500043
mp-770102,Li3Al2VO6,1.9795999999999991,-2.866417841458333,0.0272439354166662
mp-769734,ScFeO3,1.5712000000000002,-2.8663602257499994,0.0687540568750009
mp-775078,Li4Ti3Nb3V2O16,0.0,-2.8660799139285698,0.0762556995870653
mp-775777,LiFeF4,3.1241,-2.8660437624600004,0.0617030426851936
mp-867744,LiTi3O4,0.0,-2.8660281056250003,0.0908824874999982
mp-19627,Na2Co(Si2O5)2,3.0632,-2.866005654264705,0.0
mp-764352,Li3Mn3OF7,2.2852,-2.865986986247143,0.0633108142857148
mp-7905,SiO2,4.7646999999999995,-2.8659337141666668,0.4187791933333331
mp-3151,Li3TaO4,4.5636,-2.865358948749998,0.0
mp-643829,AlSiHO4,5.5699,-2.8651997198028565,0.0830773985714286
mp-557539,MoF3,3.5743,-2.8651252071424995,0.0
mp-779498,Ba3(ClO)2,2.4989,-2.8650898670028573,0.0469931780952341
mp-779920,Gd2W2O9,1.8332000000000002,-2.8650432718269245,0.066240650384568
mp-777332,Li2MnF6,2.9219999999999993,-2.865030961455555,0.0134613309259252
mp-762999,Li4FeOF5,1.550999999999999,-2.8650188162606063,0.0802979094949503
mp-772748,Ba2P6O17,5.254700000000001,-2.8649385415928577,0.0017372513999971
mp-690552,SrLaMnMoO6,1.125,-2.8649164043460003,0.0
mp-849465,Mn6OF11,0.062899999999999,-2.8648717708388887,0.0243960439583386
mp-558294,Li3TaO4,4.5218,-2.8648249712500005,0.0005339774999981
mp-561241,USb3O2F17,2.4478,-2.864749115118696,0.0
mp-19208,La2MnCoO6,0.021500000000000002,-2.8646659693459995,0.0
mp-778513,LiFeF4,3.9826,-2.8645094953766663,0.0632373097685272
mp-849433,SrTiH4(OF3)2,3.9338,-2.864466332913333,0.0
mp-772609,La2Zn2O5,1.5065,-2.8644389784722213,0.093104124444447
mp-6068,Sr2TbRuO6,0.18510000000000001,-2.8642532995833334,0.0
mp-3718,ThTeO,0.24179999999999902,-2.86423991375,0.0
mp-764092,Mn6OF11,0.24750000000000003,-2.8640942233388893,0.0251735914583379
mp-566925,BaFe2P2O7F2,3.9301999999999992,-2.864050885880034,0.0
mp-776724,Li4Fe2OF8,2.6715,-2.8639959413846667,0.0574697612962982
mp-772341,Ti3MnCr(PO4)6,0.0,-2.8637900062723256,0.0173634845357266
mp-8586,InBF4,4.532,-2.863618946904444,0.0
mp-705482,Ba3La3Mn2(WO6)3,1.4413999999999991,-2.8636134501524144,0.1118547388146549
mp-559219,Zr(PO3)4,4.1158,-2.8631901533753505,0.0067109565441167
mp-3248,TbAsO4,3.6466,-2.8631826505555553,0.0
mp-776796,VOF2,1.7098,-2.8631555146575,0.0069456379687515
mp-771914,Ba3La2Cl12,3.9776000000000002,-2.863131609654117,0.0413727344117633
mp-1020162,Na4Mg3P4O15,4.7301,-2.8631157972550363,0.0
mp-764558,VOF2,1.5966999999999991,-2.8630699204908328,0.0070312321354224
mp-558616,SrZnP2O7,4.4518,-2.863014179994589,0.0
mp-627632,Si4H2O9,5.1536,-2.8627278372326668,0.0432091874999995
mp-771883,Sr3LaCl9,3.7154,-2.8626805234107686,0.0099155788461517
mp-777494,VOF2,1.596099999999999,-2.8626583184075,0.0074428342187555
mp-777305,LiFeF3,3.1206,-2.8626264897140015,0.0524259039999952
mp-695890,Mg10Si3(H2O9)2,4.950699999999999,-2.862605471056571,0.0231331957857126
mp-764211,LiVOF4,3.0138,-2.862548048001429,0.0159455622321473
mp-767616,Li2VSi3O8,2.984199999999999,-2.862527752857144,0.0950767549450564
mp-770682,Li2Co(Si2O5)2,3.0596,-2.862515065735293,0.0703199417647013
mp-555403,K3WF6,2.6188000000000002,-2.862464505714,0.0
mp-14430,Sr2YRuO6,0.182699999999999,-2.8622388820000015,0.0
mp-777700,LiFeF4,2.7728,-2.862136274404444,0.0656105307407495
mp-3125,K3Zn2F7,4.0269,-2.8620750394441665,0.0
mp-777679,LiFeF4,3.3818,-2.8619485020433326,0.0657983031018618
mp-6949,InF3,4.0226,-2.8619043158925006,0.0
mp-763926,VOF2,1.655,-2.8618876196574994,0.0082135329687558
mp-777785,LiFeF4,2.9978000000000002,-2.8618160216266664,0.0659307835185272
mp-566621,Li2U4W4O25,1.9108,-2.861765882035714,0.0168564199999998
mp-771944,Ba3La2Cl12,3.7858,-2.861758014065882,0.042746329999999
mp-763144,Mn6OF11,0.0,-2.8616491780611115,0.0276186367361157
mp-765829,HfCoO3,2.4865,-2.861589622250001,0.0939565369999986
mp-758287,Li3Ti2(PO4)3,0.37200000000000005,-2.8614366933809534,0.0885500721880907
mp-6097,Li3Al(BO3)2,4.8248,-2.861276954236111,0.0059491449999997
mp-12448,LiSm2OsO6,0.396099999999999,-2.86126378675,0.0
mp-560657,RbLa9(IrO6)4,0.0,-2.861181836052632,0.0
mp-973451,Nd2BiO2,0.0,-2.8609676945,0.0
mp-554747,Li5La3Nb2O12,3.2624,-2.860930209659091,0.29934229965908
mp-694868,Rb2ZrFe(PO4)3,2.4218,-2.860892972330828,0.0
mp-505345,SrV2(P2O7)2,1.504499999999999,-2.860869807137187,0.0
mp-778567,Mn6OF11,0.2536,-2.860863589172224,0.0284042256250041
mp-779244,Mn6OF11,0.0,-2.8608301219500003,0.0284376928472269
mp-19533,Al2Fe3(SiO4)3,3.641399999999999,-2.86078800175,0.0162625780000027
mp-556376,SiO2,2.8049,-2.8607055108333332,0.4240073966666662
mp-17702,Yb2SiO5,0.0,-2.8606359676562496,0.1971051699218752
mp-762389,Ti3V2Fe(PO4)6,0.7374,-2.86061312968254,0.013268584375
mp-765719,Mn6OF11,0.38330000000000003,-2.8605274063944446,0.0287404084027826
mp-19239,Mg6MnO8,2.2891,-2.8605142187306662,0.0
mp-19580,Ti2Ni(PO5)2,2.9847,-2.8604406588015867,0.0
mp-1019377,Al(PO3)3,5.8176,-2.8603440763873627,0.0
mp-778915,Ca5W3O14,2.3675,-2.860239276818181,0.0288872737499996
mp-775154,LiMnF4,1.701,-2.860140624008888,0.0901156802777762