mpid,formula,BG,FE,e_hull
mp-774236,Li3CrSiCO7,3.113,-2.506591758173077,0.0376913480769198
mp-780630,LiVP2HO8,1.4215,-2.5065566465238827,0.0330189120192576
mp-762840,Li3CrP2HO8,2.822,-2.506523156320698,0.0474495261666669
mp-1018700,EuO2,0.0,-2.5064108625,0.0954446997916669
mp-760637,LiBiP2O7,3.707,-2.5063611277218625,0.0545276091666684
mp-27135,Bi(PO3)3,4.5202,-2.5062925825412097,0.0
mp-765970,Ti3Sn7O20,1.7439,-2.506261222666666,0.0367864379166684
mp-760122,Li2CuF4,0.0,-2.506234678299048,0.0892503202380954
mp-763482,VPO5,2.270299999999999,-2.506180149906462,0.0097977135714675
mp-770348,Li2VSiCO7,1.8635000000000002,-2.506085989687499,0.0664137491667027
mp-699373,Ti7Fe13O30,1.2087,-2.5060776720833338,0.0303330199692233
mp-560463,Li2B4O7,3.7379000000000002,-2.5060492790705142,0.3127982003846119
mp-752651,Li4Ti2Nb3Cu3O16,0.0,-2.5060436461904763,0.1125271110491148
mp-31806,LiFe3(P3O10)2,2.4394,-2.5060055176190468,0.0271162385277774
mp-777465,Li3P3(WO6)2,3.6739,-2.5059995739642864,0.0386303368749967
mp-773619,V3Fe(PO4)6,1.168899999999999,-2.5059942646638653,0.0175068208333133
mp-14730,NaSiSbO5,2.8726000000000003,-2.50591936671875,0.024736645312501
mp-764696,Li4Ni2OF7,0.6706000000000001,-2.5059155081842848,0.0715084121130971
mp-26675,LiSb(PO3)4,4.2484,-2.5057839255489416,0.0315265531944284
mp-704962,Li3Mn3(PO4)4,0.3909,-2.5057372917408065,0.0474253116346163
mp-763230,Li9Cr4(BO3)8,0.4782,-2.505711494296296,0.090789693851848
mp-25695,RbMnP3HO10,0.7619,-2.5056984794603574,0.0
mp-557285,Ho11Te16ClO48,2.7859,-2.5056418447139484,0.0
mp-17887,SnP2O7,3.321799999999999,-2.5056036647440485,0.0403362297499994
mp-3476,P2PbO6,4.4803,-2.505461522493386,0.0
mp-540071,Mn4(PO4)3,0.0,-2.5054268672697746,0.0254883411842179
mp-24958,Na4Fe2(PO4)3,0.14450000000000002,-2.5054139092517027,0.0166194377381012
mp-27419,LiBiF6,2.5394,-2.5053777840175,0.0
mp-647680,MnSiO3,0.030199999999999002,-2.5053695553420003,0.3057496313499985
mp-14563,NaCa3IrO6,0.0,-2.5053180265909103,0.0
mp-761396,LiCrPO4,2.292499999999999,-2.5052548650850355,0.0791180795238108
mp-25908,Sn(PO3)4,3.4585,-2.50525090469888,0.0044421169117789
mp-16152,Pr2Te2O7,1.533699999999999,-2.5051524948863637,0.1098894120454536
mp-781055,Fe3OF5,0.0,-2.505027466911111,0.080423086666677
mp-558930,Zn(PO3)2,4.7071,-2.5050102129100527,0.0
mp-758780,LiBiP2O7,4.351100000000001,-2.505001307721862,0.0558874291666686
mp-775016,MnCr(PO4)2,0.7367,-2.504999743095874,0.0248502097916798
mp-761397,LiCrPO4,1.9259,-2.5048456007993196,0.0795273438095263
mp-26541,LiSb(PO3)4,4.2104,-2.5047943509656085,0.0325161277777619
mp-765310,Li5Ni2O2F5,2.1843,-2.504718358103571,0.021929826428586
mp-669389,Sr3InRhO6,1.480799999999999,-2.5046980675,0.0
mp-770903,Li3Mn(BO3)2,1.2378,-2.5045011409827773,0.0503117478645984
mp-775170,Li2AlCr2SbO8,2.0373,-2.5044834328571417,0.0094741918452436
mp-9712,Ba3BPO3,1.4649,-2.504468227313988,0.0
mp-767358,MnV3Sb2(PO4)6,0.004399999999999,-2.5044588605425395,0.0609017863194418
mp-774251,LiFePO4,3.3545,-2.5044068854421764,0.047170064285714
mp-761461,LiFePO4,3.4944,-2.5044019940136053,0.0471749557142855
mp-774803,TiSb3(PO4)6,0.0,-2.5043756053011212,0.0208979980514696
mp-757479,Li2Sn(PO3)6,2.290499999999999,-2.504319412817461,0.0831309483950581
mp-772526,Li6Mn(BO3)3,1.2196,-2.504296263274211,0.0569092682017453
mp-781014,LiVP2HO8,1.3653,-2.5041761536392677,0.035399404903873
mp-9059,KLi6TaO6,4.3852,-2.504092687678572,0.0
mp-696853,CaZnSiH2O5,3.6399999999999992,-2.504080533349,0.0040386887500014
mp-540632,RbTa(GeO3)3,3.473,-2.5039780979464292,0.0
mp-780807,Li2TiCr3O8,0.0,-2.5039679654761904,0.0805730573412706
mp-14646,Li2Mg2(SO4)3,5.625199999999999,-2.503931321167764,0.0
mp-850764,LiVP2HO8,1.418699999999999,-2.5038528451777293,0.035722713365411
mp-863912,Li3Mn2(PO4)3,0.0,-2.503795759310285,0.07796702025
mp-677138,RbPHO3F,4.7535,-2.5037439982721774,0.0284540333928511
mp-619752,Cs3Mo2(O2F)3,3.9928,-2.503714622933571,0.0
mp-585175,LiCo(PO3)3,3.1495,-2.503713708252552,0.0238779223214322
mp-7535,Li5AlO4,4.795,-2.503685304,0.0033837987500016
mp-765570,Li2Mn(PO4)2,0.9969000000000001,-2.5035508247808047,0.0176382377243591
mp-765370,Li5V3Cu(PO4)4,1.4693,-2.5035256588752044,0.1023937384587201
mp-761658,Li2CoP2O7,2.865099999999999,-2.5034976154117072,0.0497233705902537
mp-673682,Tb2YbS4,2.1164,-2.5033873432738103,0.0070016610714302
mp-24277,KGdP2H4O9,3.2754,-2.5033422261423808,0.0140892863235366
mp-778397,Li2Sn(BO3)2,3.046399999999999,-2.503175424621212,0.0768484199999992
mp-23086,ErSeClO3,4.3487,-2.503161382600625,0.0
mp-762157,Li5Cr2Fe3(PO4)6,1.0918,-2.5031599087142844,0.0932879444062742
mp-767241,Li4Mn3Sb(PO4)4,0.27280000000000004,-2.503058526080749,0.0871729838690491
mp-32529,V3(PO4)4,0.7507,-2.5028983211904774,0.1185817158695652
mp-851047,LiFe2OF3,2.311499999999999,-2.5028909585457138,0.0562552121428572
mp-775334,V3Cu(PO4)4,0.2426,-2.5028696938492048,0.0307472312499843
mp-767855,LiMn2(PO4)2,0.141599999999999,-2.5028652304315746,0.0585255146153853
mp-241,CdF2,2.8977,-2.50263942246,0.0
mp-791893,V3Cr2Ni(PO4)6,0.0,-2.5025855355158737,0.0676599632175687
mp-863377,Li2SnP2O7,2.2417,-2.502472097078374,0.08575524416666
mp-761401,LiCrPO4,1.233299999999999,-2.5024608240136064,0.0819121205952395
mp-675677,Yb(SmS2)2,2.0578,-2.5023988051785717,0.0010888864285725
mp-765493,Ba2Sb2O5,2.3822,-2.5023363040277777,0.0
mp-759341,Li4Cu(PO3)6,0.3361,-2.5022611667610835,0.0710908847413769
mp-561089,Ba3LaIr2O9,0.0,-2.502211808083333,0.0
mp-793791,Sm(FeO2)2,0.0,-2.502134235357143,0.0586948296428424
mp-760629,LiBiP2O7,3.550099999999999,-2.5020681859036804,0.0588205509848505
mp-17709,Na2ZnSiO4,3.1365,-2.502064334375,0.0043446950000003
mp-769854,Li2VSn(PO4)2,2.580899999999999,-2.5020573804421766,0.0758268646130968
mp-764631,Mn4O3F5,0.0,-2.5020100907116665,0.0440353703124936
mp-705362,Li2Co(PO3)5,0.879699999999999,-2.502008966053313,0.0354907219927529
mp-705030,LiCr(PO3)5,0.0912,-2.5019974608739166,0.0626373828503785
mp-27420,NaBiF6,2.7096,-2.5019932858925,0.0
mp-23335,Ti3(BiO3)4,1.3813,-2.5018645886842106,0.0626511728947365
mp-19171,Y(FeO2)2,0.0,-2.5018582067857147,0.0811578000000121
mp-770844,V3(PO4)2,1.758899999999999,-2.5018566708608057,0.0723937454807703
mp-770371,Li4Ti3Mn2Fe3O16,0.6458,-2.5018247918542857,0.0538510237372804
mp-770280,Li6Bi(BO3)3,4.186299999999999,-2.5017874841447365,0.0090438536842096
mp-40802,BaSrLaBiO6,1.873199999999999,-2.50177525125,0.2894196638333319
mp-782693,Li2CoOF3,0.6847000000000001,-2.501575505688572,0.0719569669642865
mp-561348,KCoF3,2.1918,-2.501558585714,0.1473931706666675
mp-764844,Li7V4O11F,1.3426,-2.501509612606088,0.0737582376630738
mp-763498,LiP2WO7,3.7422,-2.501469019540043,0.0420390989772716
mp-772436,Li2AlFeO4,3.1814,-2.50146763375,0.0849892659374997
mp-767226,LiMn2(PO4)2,0.27990000000000004,-2.5013619783161904,0.0600287667307695
mp-566830,K4Th(MoO4)4,4.0045,-2.501358585999999,0.0
mp-20587,EuS,0.0,-2.50134950453125,0.0
mp-30990,K6Si2O7,3.5066,-2.5013236442500006,0.0
mp-23587,HoSeClO3,4.357200000000001,-2.5011143309339587,0.0
mp-689967,LiMn(PO3)4,1.6151,-2.501093297130053,0.0913614544444492
mp-698164,Rb2B10H6O19,5.7894,-2.500985547625315,0.0
mp-555217,Dy3Se4O12F,3.741099999999999,-2.50098544002825,0.0
mp-555212,Ba2InBrO3,1.8283,-2.5009786326785712,0.0
mp-19000,VPO5,1.8518000000000001,-2.5009188413350336,0.0150590221428945
mp-754466,Li2AgF3,2.0522,-2.500917023095,0.0189497416666668
mp-641191,U2Tl2Mo3O16,2.3226,-2.500894422608694,0.0031982282971014
mp-779393,LiV2P2HO9,1.1637,-2.5008850097373645,0.090830726999993
mp-774417,Sn3P6WO24,2.7096,-2.5008815153991595,0.0024687248529424
mp-553950,Li10Si2PbO10,2.9602999999999993,-2.5008210114130422,0.0030874928260873
mp-763829,Ba5Mn5O14,1.0222,-2.5008012132208326,0.0
mp-620979,CsNiF3,4.872,-2.500797010380668,0.0087963793333338
mp-775601,Li5Mn3Bi2(PO4)6,0.0,-2.5007393447862873,0.0776024676875071
mp-542842,KMnP3HO10,0.7785000000000001,-2.5006963857103583,0.0
mp-532524,TiZn2O4,2.04,-2.5006291109523806,0.0369067851190481
mp-580589,Cs2NaErCl6,5.3479,-2.500611273956,0.0
mp-650764,Ba5Mn3ClO12,1.7299,-2.5005870717209517,0.0
mp-766766,LiFePO4,3.3899,-2.50056985079932,0.0510070989285704
mp-769420,LiCr2(PO4)2,0.0,-2.5005085189377287,0.0969438612179489
mp-774754,KRe4O8F13,3.129499999999999,-2.5004286242488467,0.0017244210576938
mp-697789,LiCrP2O7,1.117,-2.5003550918127697,0.1841746713636372
mp-767227,LiMn2(PO4)2,0.2232,-2.500340640239266,0.0610501048076939
mp-774413,MnV3(PO4)6,0.6786000000000001,-2.500256142633276,0.0253070983823331
mp-866739,RbMnP3HO10,0.9992000000000001,-2.5002426085228566,0.0054558709375074
mp-24921,TlCrP2O7,2.791,-2.5002269734036786,0.0
mp-773697,Li2VSiCO7,1.9614,-2.500140411770832,0.0723593270833697
mp-757883,LiSiBiO4,2.9488,-2.5001300292857143,0.0595156498214306
mp-765418,Li4V2P4H3O16,0.5921000000000001,-2.5001157430427905,0.0248454220689673
mp-762344,Na8Nb5O14,0.250499999999999,-2.500104483055555,0.094286611157413
mp-768002,LiTi2Mn3O10,1.4676,-2.499987078669583,0.0701269650781206
mp-542951,Cs2NaHoCl6,5.2906,-2.4999784739560003,0.0
mp-763141,LiMn2F9,0.9941999999999991,-2.4999176631358333,0.0828547601909734
mp-781628,Li7Mn8(BO3)8,0.5628000000000001,-2.4999114149151773,0.0239923196276468
mp-18203,KGe2(PO4)3,3.6226000000000003,-2.4998295774603183,0.0
mp-30243,Mg3(HO2)2,3.7709,-2.4998274591377783,0.0171666577777775
mp-16585,HgB4O7,2.5834,-2.4997314977430567,0.0
mp-24066,SrHClO,4.9798,-2.4997098882825,0.0
mp-540631,KTa(GeO3)3,3.5077,-2.4995885929464285,0.0
mp-687057,Sr2CoReO6,0.0,-2.4994641217499995,0.0318643533000013
mp-777056,MnP6(WO8)3,1.1344,-2.4993726070450424,0.0
mp-769986,Mn2AlO4,0.2172,-2.4993567152742853,0.0630267360714125
mp-28883,GeP2O7,3.8284000000000002,-2.4992804129940485,0.0
mp-1004037,CaMnO2,1.819799999999999,-2.49927609899,0.1568054343749994
mp-566135,NiB4O7,3.3555,-2.4991966837847235,0.0121379291203673
mp-630880,LiNd2Tl(MoO4)4,2.9659,-2.4991418627083326,0.0073233103703618
mp-763825,Na2LiVPO6,2.343,-2.499039318235932,0.0977636336647993
mp-558257,DySeClO3,4.366899999999999,-2.4990110966284025,0.0
mp-849254,NbCr3(PO4)6,0.0,-2.498990366722689,0.0386679956617719
mp-780876,Li6Fe(OF)3,2.7067,-2.498969697101539,0.0967274501923141
mp-561124,Ho3Se4O12F,3.7086,-2.4989479187782506,0.0074800748750005
mp-19563,Na2CoPO4F,2.9785,-2.4988433846428046,0.0076658161111113
mp-510276,SmTl(WO4)2,2.744,-2.4987473960416664,0.0
mp-1016846,TiCdO3,0.0,-2.4987465410833343,0.1974656609999989
mp-763631,LiVP3HO10,2.1948,-2.498744335962857,0.0924003056640527
mp-745115,NaFe9Si6B3H2O31,0.8508,-2.498609413672886,0.0
mp-863062,LiSiBiO4,3.4051,-2.498549370714285,0.0610963083928606
mp-555823,SiO2,1.2338,-2.4985368500000007,0.7861760574999987
mp-763623,LiFe(PO3)4,2.5151,-2.498430804854497,0.0968258512499948
mp-19516,Al2(WO4)3,4.5569,-2.498303279117648,0.0556791623529413
mp-775102,Li7Fe3Co(PO4)6,0.0,-2.4982808960627167,0.0694275921341089
mp-763663,LiMn3(P3O10)2,0.48989999999999906,-2.4982627503817136,0.0449585347499885
mp-9245,LiGaPdF6,0.933999999999999,-2.4982318613488896,0.0069966930864184
mp-766619,Li4Cr(PO4)3,1.3127,-2.4981348541309516,0.0868008404735558
mp-26223,Li4Cu(PO4)2,0.0398,-2.4981102434126985,0.0266761331666618
mp-558366,SiO2,1.179,-2.4980643745833326,0.7866485329166668
mp-568670,Cs2NaTbCl6,5.2046,-2.497972602789334,0.0
mp-559808,Cs3PO4,3.572299999999999,-2.4979165966369044,0.0
mp-676154,Yb(DyS2)2,2.1483,-2.497912629940477,0.0089776046428573
mp-1019566,Ca3ZnGe5O14,2.4862,-2.497816350326087,0.0229134020579699
mp-675244,Yb(NdS2)2,2.0395,-2.4977869251785725,0.0015252749999996
mp-849288,V2O3,0.6212,-2.4977307704999987,0.0328730135000014
mp-6598,K2Cu(PO3)4,0.8983000000000001,-2.4976937593358404,0.0
mp-706489,NaB2HO4,5.126,-2.497650240947292,0.0100439252059674
mp-566629,Li2NiPO4F,3.6477,-2.4976345824205826,0.0
mp-15438,ZnP4O11,4.755800000000001,-2.4976282731956845,0.0
mp-14648,NaZnPO4,3.854,-2.4974939779421765,0.0083766692857256
mp-7986,CaSnO3,1.390499999999999,-2.4974663667500003,0.1949885859999991
mp-764725,Li7V4O11F,1.0158,-2.4974006347800004,0.077867215489114
mp-780195,LiVP3HO10,2.7383,-2.4973918919003566,0.0938955376171844
mp-17649,TlSnF7,1.8252,-2.4972969812033337,0.0
mp-764951,Li6V2O5F2,1.78,-2.497230351575334,0.0927037930000018
mp-542919,NaGe2(PO4)3,3.832,-2.497215803849206,0.0
mp-762598,V3FeSb2(PO4)6,0.0,-2.497154471349206,0.0528826586805637
mp-541272,LiGe2(PO4)3,3.385,-2.4970822380158726,0.0014598634722249
mp-1013749,Li3Ti2(GeO4)3,0.0,-2.496853527416667,0.0843723075312432
mp-849242,Li10Mn(SiO5)2,0.987599999999999,-2.496769117976521,0.0523598041304342
mp-776770,LiFeF5,0.4237,-2.496678803171428,0.0451111433928606
mp-780156,Li5Mn6(BO3)6,0.7233,-2.496666094236001,0.0259986665475988
mp-761468,LiFePO4,3.6715,-2.4966326300850343,0.054944319642856
mp-771212,Li3Mn(BO3)2,1.4308,-2.4966029751494445,0.0582099136979312
mp-771025,Na2SiBSbO7,2.1623,-2.4964416083680563,0.0792451511805518
mp-574571,Rb3YCl6,5.0167,-2.4964381034559997,0.0
mp-776965,Na3Sb(PO4)2,4.092,-2.4964252191028917,0.01146377172625
mp-775193,Li7Fe3Ni(PO4)6,2.4234,-2.4962824743554006,0.0472167189938872
mp-18729,V2Co(PO5)2,1.5733000000000001,-2.496256230579365,0.0
mp-12672,Yb2SO2,0.0,-2.4962037873125005,0.5332961022777765
mp-766374,LiSiBiO4,3.3375,-2.4958943938095244,0.0637512852976209
mp-782643,Li5Mn6(BO3)6,0.441799999999999,-2.4958848476645716,0.0267799131190287
mp-769834,Eu2Mn2O7,0.0,-2.4956939718790907,0.0
mp-554903,TbSeClO3,4.3781,-2.4956717602395138,0.0
mp-7566,InPO4,2.3413,-2.495622400515874,0.0
mp-673059,LiSbP2O7,3.933,-2.4955135820400427,0.0351475780303029
mp-531119,Ta2Zn4O9,2.9024,-2.495468696750001,0.0383492113333332
mp-761389,Li6VSb3(PO4)6,1.6104999999999992,-2.4954630800892863,0.0874902421249927
mp-763465,Li2CoSiO4,2.6839,-2.4953211015625003,0.0416512684374934
mp-761665,Li2CoP2O7,2.647599999999999,-2.495319159578373,0.0579018264235875
mp-18800,Cr2SiO4,1.9961,-2.495257965714285,0.031321410714284
mp-675723,NbHg2F6,0.0,-2.495145618015556,0.1003525245833394
mp-674465,K2SrCl4,4.988099999999999,-2.4951438165057143,0.0265837510714286
mp-770152,Li4Ti2Mn3Cr3O16,0.616699999999999,-2.4951161745076185,0.0238844010714522
mp-778858,Na6Mn3(PO4)4,2.161,-2.495087162595204,0.0769551956896252
mp-769627,V2CrFe3(PO4)6,0.0,-2.4950670621825397,0.054694992847228
mp-774081,Li4Mn3Fe(BO3)4,3.0413,-2.495048231439444,0.0034362964583332
mp-766770,LiFePO4,3.3629000000000002,-2.494991315977892,0.0565856337499992
mp-19001,SrMnO3,0.8108000000000001,-2.494921071942,0.008327575
mp-774377,Li4Mn3Fe(BO3)4,3.012,-2.494918320189444,0.0035662077083342
mp-779804,Li4Mn3Fe(BO3)4,3.024,-2.4948901231061096,0.0035944047916673
mp-675293,Yb(YS2)2,2.1278,-2.4948684923214297,0.0141528097619119
mp-778866,Li4Mn3Fe(BO3)4,2.997,-2.4948612731061104,0.003623254791667
mp-561589,Sr2Fe2O5,0.7521,-2.4948469979166665,0.0
mp-781603,Li4Mn3Fe(BO3)4,3.0329,-2.4948151956061104,0.0036693322916674
mp-779197,Li4Mn3Fe(BO3)4,3.0094,-2.4947457628977774,0.0037387650000004
mp-865132,Li4Ti3Fe3(SbO8)2,0.16290000000000002,-2.4947259078571427,0.0428300184805054
mp-772677,LiFePO4,3.2872,-2.49472183829932,0.0568551114285709
mp-779785,Fe5(OF4)2,1.1013,-2.4947071421346667,0.0602667506666705
mp-778690,Li4Mn3Fe(BO3)4,3.0309,-2.4945993893561105,0.0038851385416665
mp-28027,AsF3,5.359999999999999,-2.4945689133925,0.0
mp-753548,Rb6Ti2O7,2.1781,-2.494551222138889,0.0314591556666643
mp-763367,LiP2WO7,3.4961,-2.49447994681277,0.0490281717045446
mp-7661,Li2RhF6,0.0,-2.494452500793334,0.0
mp-850374,Li4Mn3Fe(BO3)4,2.9713,-2.494388509356112,0.0040960185416665
mp-776051,Li2Mn2Fe(PO4)3,0.815099999999999,-2.4943805250602864,0.089076745624987
mp-697339,Ho2H4CO7,4.9922,-2.494357628445001,0.0
mp-26745,LiSbP2O7,3.3047,-2.494344116358225,0.0363170437121214
mp-770621,Li4Ti3V2Co3O16,0.0,-2.4943104075,0.0922958845833328
mp-557111,Sr3CaRu2O9,0.0,-2.4943065687500003,0.0
mp-28122,LiGdCl4,2.136,-2.494277945506667,0.0
mp-673073,LiSbP2O7,4.0558,-2.4940569281764065,0.0366042318939392
mp-546292,YbClO,0.0,-2.493950094836667,0.2489330726666683
mp-850959,Li5Mn6(BO3)6,0.164199999999999,-2.4939018273788576,0.0287629334047423
mp-554337,Rb2IrF6,0.0,-2.4938605696822207,0.0
mp-759381,Li3Bi2(PO4)3,3.0965,-2.4938512219642868,0.0703730392500023
mp-779403,Li4Mn3Fe(BO3)4,2.9966999999999993,-2.4938169393561105,0.0046675885416673
mp-762200,LiP2WO7,3.9162,-2.493719123176408,0.0497889953409078
mp-565358,V2Cd(PO5)2,1.7502,-2.4936845429126984,0.0028466068333328
mp-18992,Ba2MnTeO6,0.9367000000000001,-2.493526642846,0.0
mp-1011860,Na2CoP2O7,3.0133,-2.493475260620039,0.0013683113194424
mp-20186,PrRuO3,0.0,-2.4934282117500013,0.0782622900999996
mp-780119,V6O11F,0.45829999999999904,-2.49342713444111,0.0532254744444333
mp-778566,Li4Mn3Fe(BO3)4,2.884699999999999,-2.493415347689444,0.0050691802083342
mp-779172,Fe5(OF4)2,1.415,-2.493376713801333,0.061597179000004
mp-766196,LiSiBiO4,3.361199999999999,-2.493376565952382,0.0662691131547639
mp-778920,Li4Mn3Fe(BO3)4,2.9671,-2.4932885318561104,0.0051959960416674
mp-504340,LiSb(PO3)4,4.184299999999999,-2.493288027632276,0.0440224511110951
mp-775239,Li4Mn3Fe(BO3)4,2.9219999999999993,-2.493284917897777,0.0051996100000009
mp-779411,Li4Mn3Fe(BO3)4,2.969999999999999,-2.4932519760227776,0.0052325518750002
mp-850958,Li4Mn3Fe(BO3)4,2.9509,-2.4931503743561105,0.0053341535416668
mp-15472,Ba4LiCu(CO5)2,0.9264999999999991,-2.493148096527777,0.0
mp-769439,Li5Mn6(BO3)6,0.0,-2.49313591080743,0.0295288499761703
mp-774076,Li4Mn3Fe(BO3)4,2.9623,-2.4931141368561107,0.0053703910416667
mp-778911,Li4Mn3Fe(BO3)4,2.965999999999999,-2.4931052151894435,0.0053793127083343
mp-773548,Li4Mn3Fe(BO3)4,2.9603,-2.4930685426894437,0.0054159852083337
mp-2350,LaS,0.0,-2.493067337031251,0.0
mp-698074,Ca2H2S2O9,5.7341,-2.493053997107666,0.0204395561666679
mp-561480,NaNiF3,4.610799999999999,-2.4929593287139995,0.0
mp-769171,SiGeO3,2.8185000000000002,-2.4929557165000005,0.1060615667499993
mp-567084,KNi(PO3)3,4.953,-2.492941902538267,0.0
mp-779789,Li4Mn3Fe(BO3)4,2.9,-2.492896032689444,0.0055884952083333
mp-4325,Zr(SO4)2,3.5633,-2.4928370561931814,0.0
mp-850094,LiMn(PO3)4,0.7981,-2.4927318918522747,0.1005995604166667
mp-32644,Pr5Cl12,0.0,-2.492668133673725,0.0885986639215667
mp-780585,Ti(FeO2)2,1.581999999999999,-2.492658032023809,0.0
mp-763795,Mn3O2F5,0.9756999999999991,-2.4925520276330007,0.0593777114166647
mp-558587,V5O9,0.7882999999999991,-2.492535745267858,0.0126778067857191
mp-775753,MnSn(PO4)2,1.5478,-2.492503814345872,0.0263439577083266
mp-22569,InPO4,2.7239,-2.492497955932539,0.0031244445833404
mp-565301,KFe2(PO4)2,1.9463000000000001,-2.492468699514653,0.0023894207692238
mp-769210,Tb2Pb2O7,1.093099999999999,-2.492465713219697,0.0764214095454542
mp-762843,LiFeP2O7,1.9497,-2.492430321358225,0.0951351945454543
mp-756440,Er2Pt2O7,1.540499999999999,-2.4924172194318186,0.0
mp-769535,V3(PO4)2,2.0661,-2.4923861548992683,0.0818642614423073
mp-780548,Li3Mn3(PO4)4,1.133099999999999,-2.4923159532792685,0.0608466500961544
mp-559263,K2Li4UO6,2.1501,-2.492296470576924,0.1409578994230722
mp-8390,LiYbO2,0.0,-2.492209480625,0.1574175937499999
mp-762627,LiFe2P5O16,2.6435,-2.4921330760615086,0.0673136926388684
mp-696130,Li10Ge(PO6)2,4.4506,-2.492057271247619,0.1108292312000021
mp-8230,Zn(PO3)2,4.6635,-2.492052915410053,0.0129572975000034
mp-766755,Li3FePO5,2.9765,-2.4920058474345232,0.0560014149999981
mp-774802,NbCu(PO4)2,0.30099999999999905,-2.492002002599206,0.0690223673957683
mp-772700,LiCrPO4,1.9808000000000001,-2.4919756511564635,0.0923972934523824
mp-754684,Ba4IrO6,0.0,-2.4919328747727283,0.0
mp-770729,Li2AlFeO4,2.5826000000000002,-2.4919299103125,0.0945269893749998
mp-764369,Ba8Mn8O23,1.037,-2.4919041327289744,0.0018412014903237
mp-763478,LiP2WO7,3.503999999999999,-2.491827538403679,0.0516805801136355
mp-763796,KMnP3HO10,1.1088,-2.4917613275853574,0.008935058125
mp-697796,Li2Cr5(PO4)4,2.336699999999999,-2.4916759926807757,0.038388513364195
mp-567080,V4O7,0.581,-2.4915641826136357,0.0193600925000083
mp-850373,Li4Mn3P4(HO8)2,3.563099999999999,-2.4914800037069305,0.047496772241387
mp-560453,Ca7Cu(PtO6)2,0.0,-2.4914440056818177,0.0173270225757606
mp-774385,Fe5(OF4)2,1.3142,-2.491394582801333,0.0635793100000041