mpid,formula,BG,FE,e_hull
mp-769301,Ca4Ta2O9,4.4946,-3.4554781839166657,0.0433691984999971
mp-40286,NaLiLa2Ti4O12,1.6749,-3.4552347013333344,0.0374843276250143
mp-559964,Ti6O11,0.0,-3.455146079338236,0.0071163277940993
mp-695476,NaSr8LaTi10O30,1.8021999999999991,-3.4548476647833333,0.0932921574900032
mp-558609,Ce3Ta(ClO2)3,0.0,-3.4548332944061535,0.0
mp-10492,Rb2SiF6,6.991199999999999,-3.454553684126666,0.0
mp-18794,Sm2TiMnO6,1.9061000000000001,-3.454360747512667,0.0180698477499987
mp-15021,Ba3Ta5O15,0.0,-3.4536475771195647,0.0
mp-6995,SrAl12O19,4.4463,-3.4535395415234382,0.0027829526562497
mp-430,TiO2,2.239299999999999,-3.453515071388889,0.0653159091666797
mp-6267,LaSiBO5,4.1759,-3.453211652447917,0.0
mp-541462,SrTa4O11,3.5237,-3.4531471086718746,0.0
mp-40251,BaLaMgTaO6,2.9440999999999993,-3.4531288937500006,0.0796415950000017
mp-694955,NaLi2La3Ti6O18,1.9293,-3.4528225879166654,0.0485630678333421
mp-17694,Ca5Al6O14,4.226,-3.4525868275000007,0.003228747314286
mp-7288,Sc2SO2,2.0102,-3.4524941933125013,0.0
mp-685168,BeF2,6.5396,-3.452316896418333,0.1179402313194444
mp-4180,Ca2SiO4,4.6785,-3.4522050735714287,0.0351273414285717
mp-637224,Pu2O3,0.0,-3.4522032915,0.0
mp-8697,ScBO3,4.118,-3.4521829820833334,0.0
mp-17836,BaNd2BeO5,3.8754999999999993,-3.451713717638889,0.0
mp-3042,K2SiF6,7.2224,-3.4511969141266667,0.0
mp-6169,Ba3Ta6(Si2O13)2,3.0288,-3.4509216882692333,0.0
mp-558514,RbZrCdF7,5.1017,-3.450361356833,0.0
mp-559243,Nd2Ta2Cl2O7,3.0798,-3.4500720423284608,0.0
mp-8447,K5Ti3F14,0.0,-3.4500232548481806,0.0
mp-769610,Ca5Ta4O15,3.2814,-3.449959012864582,0.0497800283035623
mp-560821,Ca2SiO4,4.4276,-3.4499308025,0.0374016125000009
mp-769381,Ca3Ta2O8,4.5215,-3.4495550911538446,0.0498410043406458
mp-558636,CaAl2O4,4.9819,-3.4495256078571432,0.018161488190473
mp-6548,K2La2Ti3O10,2.0435,-3.4493665266176463,0.0001764310294074
mp-8401,CsMgF3,6.7028,-3.4493270037139987,0.0577033317500008
mp-7531,Ca4Al6O13,3.941799999999999,-3.449064389402175,0.0133559668115941
mp-6669,Sr5P3O12F,5.2118,-3.4484973797845586,0.0
mp-530149,Ca12Al14O33,1.9743,-3.4482291762923727,0.005958121864408
mp-555528,Ca2Th(Si2O5)4,4.9887999999999995,-3.447927386290322,0.0019173172580622
mp-3079,CaTa4O11,3.5437,-3.4473178649218745,0.0
mp-771189,Ba4Ti3O10,2.1142,-3.447248898970588,0.0207489017647191
mp-5476,Cs4Mg3F10,6.2806,-3.4469944368764702,0.0
mp-35589,Na3UF7,0.0,-3.4467776998481816,0.0268483645454571
mp-36775,SrAl2O4,3.961899999999999,-3.446635325,0.0280853053571421
mp-13002,K2SiF6,7.1895,-3.4462737157933336,0.0049231983333335
mp-3735,GdPO4,2.8647,-3.4457163625992053,0.0
mp-8335,Ba2ZrO4,2.9787999999999992,-3.444980780714286,0.0
mp-554006,SrCaSiO4,4.4796,-3.444703984761905,0.0185774316666638
mp-769271,Sr4Ta2O9,4.195699999999999,-3.4446632347500006,0.0
mp-6604,Na2LiAlF6,7.2073,-3.4446155022140004,0.0102688468333349
mp-752998,U3O5,0.0,-3.4442176745312487,0.0938920231250044
mp-28234,CaAl12O19,4.3195000000000014,-3.443858479492187,0.0116305887499397
mp-760477,SmBO3,4.3574,-3.4438208855833325,0.060809067500001
mp-559702,Pr2Ta2Cl2O7,3.0505,-3.4430693588669223,0.0
mp-1019584,CaAl2SiO6,4.605699999999999,-3.44240516175,0.0164474654583344
mp-1019586,CaAl2SiO6,4.5200000000000005,-3.44236394875,0.0164886784583346
mp-1019573,CaAl2SiO6,4.6134,-3.442275280750001,0.0165773464583338
mp-1143,Al2O3,5.853700000000001,-3.44211350075,0.0
mp-748,Ti5O9,0.0,-3.4420446228273813,0.0080959471428414
mp-28232,MgTi2O5,2.7175000000000002,-3.4420393686979165,0.0
mp-14676,NdTa7O19,3.1661,-3.4413855428240736,0.0
mp-18216,BaCa2(SiO3)3,4.5745000000000005,-3.441286162416666,0.0055438773333325
mp-15492,DyTa7O19,3.222299999999999,-3.4406306596450595,0.0036758125925935
mp-561086,CaSiO3,4.707999999999999,-3.440570238416667,0.0202875653333309
mp-12245,Rb3TiF7,3.037,-3.440543834545152,0.0
mp-17552,CaSiO3,4.7326,-3.4405432854166667,0.0203145183333326
mp-554034,KLa2NbO6,3.7492,-3.440298568750001,0.0
mp-753708,TiOF,0.057300000000000004,-3.4399476238688886,0.0445797041666562
mp-554542,Mg3B(OF)3,5.4165,-3.4398325218986656,0.0
mp-1019532,BaAl4O7,4.1958,-3.4395912703125,0.0232172124749983
mp-759796,Mg5Ti13O30,0.0,-3.439565082795139,0.0006063429688101
mp-769246,Sr4Ta2O9,3.6451000000000002,-3.4393393990833334,0.0053238356666636
mp-18313,SrSiO3,4.3766,-3.4386575477499997,0.0199458566666734
mp-7571,KNbF6,5.1345,-3.4386523815175,0.0
mp-850779,HoTa7O19,3.1653000000000002,-3.4386014753240715,0.0063219607407845
mp-6528,Cs2NaAlF6,6.697,-3.438328630214,0.0
mp-758658,CaAl2(SiO4)2,4.8122,-3.438148666730769,0.0024597662499985
mp-684010,K8Ti5P2(O4F11)2,3.1144,-3.4381001541267517,0.0
mp-556623,K2TiOF4,3.022199999999999,-3.4379641076002083,0.0
mp-4428,CaSiO3,4.726,-3.4378213647500013,0.0230364389999992
mp-555586,LuPO4,5.9929,-3.437757946349206,0.1000025375000017
mp-753920,Tm2SeO2,2.1147,-3.43762421421875,0.0
mp-6709,Ca3La3(BO3)5,4.137,-3.437504783926282,0.0
mp-15736,Sr3AlO4F,4.0449,-3.437491449576667,0.0111066008564817
mp-773103,ErTa7O19,3.1747,-3.4370098527314803,0.0084829361111111
mp-22072,YbF3,0.0,-3.4370043277675,0.0
mp-772036,YTa7O19,3.155399999999999,-3.436811377268517,0.0037046675925989
mp-770124,GdTa7O19,2.7025,-3.4367627479166667,0.0005949044444442
mp-755277,Tb3SbO7,2.7565,-3.436518093068182,0.0
mp-531590,SrAl22O34,4.4761,-3.43643581241228,0.0136546671052597
mp-743640,Li3La8Ti9Cr3O36,1.2976,-3.4354064361864403,0.0658399271186542
mp-5078,SrZnF4,5.0642,-3.4353886982933344,0.0
mp-17103,Sr3Ta6(Si2O13)2,3.085499999999999,-3.4350444831410267,0.0050658033974322
mp-861257,Tb3SbO7,2.963199999999999,-3.4346372307954542,0.0018808622727277
mp-6473,Ca5P3O12F,5.5148,-3.434524383832178,0.0
mp-566608,SrCrF4,2.4214,-3.4338635382933327,0.1270136291666661
mp-753821,Pr3GaO6,3.6286,-3.43367905925,0.0
mp-558458,Mg3Si(O2F)2,5.0611,-3.433664666488,0.0
mp-759694,Mg2Ti7O15,0.0,-3.4331820912673607,0.0003965829861058
mp-695308,CaGdTh(PO4)3,2.608,-3.433170264265873,0.0
mp-10520,LiNdTiO4,2.2825,-3.43282963845238,0.0233204828571409
mp-7048,Al2O3,4.4553,-3.4326328937499992,0.0094806070000004
mp-6325,Ba3MgTa2O9,3.2733,-3.4317188420833338,0.0
mp-233,UO3,0.46579999999999905,-3.4315305859375,0.1970896750000008
mp-19996,Ba2GdNbO6,2.6514,-3.431212018750001,0.0
mp-12262,CsBeF3,6.644299999999999,-3.431151180214,0.0
mp-6144,Na2La2Ti3O10,2.091399999999999,-3.430945718382352,0.011796423933827
mp-28641,ThB2O5,4.8186,-3.4308432830729165,0.0
mp-780049,LuTa7O19,3.1931,-3.4308269625462957,0.0171057325925918
mp-755403,Ba2Sc2O5,3.220599999999999,-3.4303051729166665,0.0903959627777766
mp-17825,Sr2SiO4,4.376799999999999,-3.430196566428572,0.009033851428585
mp-559999,BaMnF5,1.7942,-3.4301143945585717,0.0
mp-974482,K4Hf5O12,3.268,-3.4299614966666665,0.0
mp-39387,SrLiTa2O6F,3.6165,-3.4295812098809098,0.0199044711363622
mp-6785,K3UO2F5,2.713899999999999,-3.4295435625863635,0.0
mp-758006,Ca2SiO4,4.1639,-3.429268347857142,0.0580640671428582
mp-849533,TiO2,2.7647,-3.428238727638888,0.0905922529166805
mp-554038,CaTa2O6,2.4404,-3.4275420533333336,0.072176844722259
mp-677283,Sr4NdNb2Al3O15,2.5183,-3.4275334428499997,0.005250977666666
mp-769409,Y4Ga2O9,3.548499999999999,-3.4274654145833336,0.0195341748333337
mp-1019732,EuAl2O4,0.0,-3.4273817914285707,0.0
mp-505025,BaPuO3,0.0,-3.4273029811250004,0.0
mp-768388,Lu2GeO5,3.948899999999999,-3.42676285546875,0.0107036354296869
mp-769481,Y4Ga2O9,3.54,-3.4264466675833334,0.0205529218333353
mp-558927,SrFeF5,3.7149,-3.4261008213857136,0.0
mp-1019568,CaAl2SiO6,4.4797,-3.4256794310000003,0.0331731962083337
mp-1019572,CaAl2SiO6,4.549800000000001,-3.4254694420000007,0.0333831852083337
mp-13975,Er2SeO2,2.1741,-3.425303594218751,0.0
mp-12205,Ti4O7,0.0,-3.4252176527651517,0.006189168863619
mp-2254,Al2O3,4.8274,-3.4252068827499995,0.0169066180000001
mp-558941,LiYSiO4,5.1083,-3.4250474046428567,0.0
mp-743624,Ca5DyTi5Fe(SiO5)6,2.6769,-3.424867831406249,0.0045678980468721
mp-756715,Gd3InO6,2.8589,-3.42481126175,0.0107922912500022
mp-555471,La3Ti5Al15O37,1.3978,-3.4246373764930564,0.1232031630833283
mp-696871,LaAlO3,3.581899999999999,-3.4242040597500014,0.3115928360000009
mp-756751,Tm2Nb2O7,0.0,-3.423845419431818,0.095550916654032
mp-771235,CsLa3O5,3.365899999999999,-3.42361408625,0.0191813584259277
mp-5104,CaZnF4,5.1236,-3.423298814126666,0.0044344441666668
mp-766437,MgTi5O10,0.0,-3.4230892628645826,0.0017504333333544
mp-756724,Lu2Nb2O7,0.0,-3.422956638068182,0.0989990432449232
mp-561547,SrSiO3,4.6026,-3.4225536695,0.0360497349166735
mp-10444,Ca2Al2O5,3.563799999999999,-3.4225390745833333,0.0226022421428577
mp-981511,Y3SbO7,2.8011,-3.4215144723863635,0.0
mp-16002,U2Ta6O19,0.0,-3.4214249118055564,0.0266402772222225
mp-677231,CaNd2Ti2ZnO9,2.4057,-3.4213967128055556,0.0354350972499997
mp-769571,Ba2Ta2O7,2.922899999999999,-3.421268008977272,0.0383952104545493
mp-721592,Ca6Al7O16,0.0,-3.421035102758621,0.0
mp-540812,Sr2CuF6,0.023200000000000002,-3.4209623660711106,0.0372209619444454
mp-13974,Ho2SeO2,2.1517,-3.4206101642187505,0.0
mp-14333,TaAlO4,4.0663,-3.4205474616666662,0.0
mp-4782,CaSnF6,5.4068,-3.4204270715175005,0.0014095212500002
mp-675679,UTa2O7,0.150199999999999,-3.420282357375,0.0603746805000007
mp-27986,Np(OF)2,0.0318,-3.420166048726,0.0
mp-706815,KBa7Al15Si17O64,4.152299999999999,-3.4200147036538464,0.024104791514425
mp-769119,YbScO2,0.0,-3.4198485431249988,0.0645586644791667
mp-769280,Ca5Ta4O15,2.9774000000000003,-3.4193846941145822,0.0803543470535625
mp-769252,Sr3Ta2O8,4.082,-3.41935351846154,0.0581667569230806
mp-675751,Zr7N2O11,3.1558,-3.4193233236755005,0.0484379202500022
mp-770409,Tm2GeO5,3.9474,-3.4191567160937506,0.0
mp-556934,KNaSiF6,6.980499999999999,-3.4189284632933337,0.0046844432407429
mp-776084,BaSiO3,4.542,-3.418774511750001,0.0
mp-720255,Sr20P12Cl(O16F)3,5.164099999999999,-3.4184566573687243,0.0047585336904791
mp-8290,BaSnF6,4.9883,-3.4183721427675,0.0
mp-769915,La4Ga2O9,3.8863,-3.4182566642500007,0.0
mp-6564,Sr2MgSi2O7,4.495900000000001,-3.4178130928125,0.0
mp-505305,La3MoO7,0.023600000000000003,-3.4177285935227277,0.0
mp-555344,Hf2P2O9,4.9036,-3.4176689178800363,0.0
mp-768865,Lu2GeO5,3.42,-3.417383920781249,0.0200825701171876
mp-40519,Na3Sr7Ta3Ti7O30,1.7944,-3.4163434553833323,0.0084063461000027
mp-756393,Er2Nb2O7,0.0,-3.415490072613637,0.093787742032795
mp-756581,LiNdTi2O6,2.3145000000000002,-3.4153227108333333,0.0765270795000052
mp-39511,LiCaTa2O6F,3.662899999999999,-3.414975417153636,0.0301409689393938
mp-3416,Na3AlF6,6.714499999999999,-3.414626533214,0.0
mp-769284,Dy2SeO2,2.149499999999999,-3.414485670885417,0.0
mp-768766,Tb3SbO7,2.9589,-3.4141429389772733,0.0223751540909091
mp-769399,BaTa4O11,3.4594,-3.4139368842968745,0.0025585401562508
mp-757224,Th4P6O23,4.1911,-3.4139266612824684,0.0
mp-769268,Sr4Ta2O9,4.1431000000000004,-3.4132346494166663,0.0314285853333302
mp-753059,TiOF,0.0,-3.4132089313688905,0.0713183966666548
mp-753853,U4BiO10,0.0,-3.4131704524999997,0.0683438669999993
mp-559208,SrTiSi2O7,3.6068000000000002,-3.4128277250378787,0.0155952057878785
mp-695817,ScF3,1.7908,-3.4124808996425,0.9066563900000002
mp-3397,Ba2TiO4,4.1473,-3.4124104502380948,0.0
mp-776475,Al2O3,5.2156,-3.4123755235000006,0.0297379772499999
mp-675015,Yb6U3O17,0.0,-3.4122781073557684,0.0
mp-720971,Ca12Al11Si3Cl5O32,4.3306000000000004,-3.4119312758142857,0.0
mp-770379,Tm2GeO5,3.3808000000000002,-3.41189161796875,0.0072650981249999
mp-558528,La2TiZnO6,2.9182,-3.411145525416667,0.0427583817499996
mp-554529,Ba2TiO4,4.2635,-3.411116839404763,0.0012936108333345
mp-9413,Ca2TiSiO6,2.363399999999999,-3.4107405044166668,0.1042155441249939
mp-774527,Na2Ti12O25,2.7649,-3.410591913878206,0.0086340880769171
mp-22184,Ba2SmNbO6,2.8503,-3.4105871570000015,0.0
mp-752496,TiOF,0.0,-3.410147820535556,0.0743795074999891
mp-753794,Hf2P2O9,4.8809000000000005,-3.4100576848031143,0.0076112330769255
mp-1019583,CaAl2SiO6,4.291799999999999,-3.4098848595000018,0.0489677677083335
mp-557538,Na2Gd2MgSi4(O6F)2,3.4215,-3.4098049907556516,0.0
mp-762032,Ba4Li4Ti19O44,2.3023000000000002,-3.4097342118544605,0.0457897652640912
mp-686602,CaPr2Ti2ZnO9,2.4402,-3.409726360805557,0.0135466526666654
mp-3881,BaZnF4,4.5489,-3.4094893399599986,0.0
mp-16691,SrLi2Ti6O14,2.8389,-3.4094318910869577,0.0
mp-774547,Er2GeO5,3.8644000000000003,-3.4089284893229164,0.0
mp-558083,BaLi2Ti6O14,2.890799999999999,-3.4087850729347826,0.0
mp-759943,Al2O3,4.064599999999999,-3.408777018625,0.0333364821250006
mp-12441,CaAl2O4,4.8499,-3.4084824228571433,0.0592046731904734
mp-16291,NaZr2PdF11,0.0,-3.4084497928726667,0.0
mp-40143,Cs2KZrOF5,4.8774,-3.40824291922,0.0
mp-1019587,CaAl2SiO6,4.602400000000001,-3.4082320457499997,0.0506205814583342
mp-765472,KTi6O12,0.0,-3.4082197278947364,0.0008292815131607
mp-768185,Ba4Li4Ti19O44,2.2457,-3.40789042931925,0.0476335477993021
mp-8382,CePO4,0.16760000000000003,-3.4074693277380965,0.0
mp-756587,TiO2,2.3165,-3.4073756409722233,0.1114553395833457
mp-757911,MgAl10O16,4.406999999999999,-3.4071529059259253,0.0211451703703717
mp-7980,Ba3SrTa2O9,3.3693,-3.4068439414166667,0.0144854483333336
mp-17834,La2SiSeO4,2.306899999999999,-3.4065185991992197,0.0
mp-754120,Dy2Nb2O7,0.0,-3.4064160356439386,0.0923499019191922
mp-4136,CePO4,0.1882,-3.4064081750992052,0.0010611526388899
mp-554971,ZrFeF6,0.0,-3.4062021133925,0.1354326521875002
mp-540795,Ba3SrTa2O9,3.8005,-3.405738145416668,0.0155912443333328
mp-20882,CeBO3,0.0045000000000000005,-3.4047958100833333,0.0
mp-7233,La2SeO2,2.4067,-3.404492354218751,0.0
mp-755340,Tb2SeO2,2.1447,-3.4044742255520832,0.0
mp-7143,BaPuO3,0.0,-3.404456686125,0.0228462950000007
mp-3879,Ba2CuF6,0.8402000000000001,-3.4040170541266663,0.0
mp-27888,Zr3GeO8,3.8969,-3.4037937687500013,0.0038641404166668
mp-677029,Ca2MgAl2(SiO4)3,4.8877000000000015,-3.4036525492500003,0.0149335705625022
mp-6208,Ca2BeSi2O7,4.9868,-3.4028656940625006,0.0003743154166642
mp-6760,Na3La9B8O27,4.0102,-3.402145964725177,0.0
mp-6661,BaTi(SiO3)3,3.0637,-3.40189852092262,0.0
mp-720112,Sr5Al10(Si7O24)2,4.2338000000000005,-3.4017784109090914,0.0
mp-541600,RbLaTa2O7,2.2853,-3.4011475753409104,0.0218819688636333
mp-772919,Tm4(B2O5)3,5.683299999999999,-3.40064446675,0.0205093139300007
mp-8898,TaAlO4,3.2754,-3.4003506758333324,0.0201967858333311
mp-39003,Mg3Al14O24,4.311599999999999,-3.4001288117073183,0.0146908017073137
mp-765688,LaAl12O19,0.0,-3.3999178624609376,0.0530005845647352
mp-769349,BaTa6O16,2.1822,-3.3995704773913027,0.0
mp-22952,CeClO,0.0,-3.399561293170001,0.0
mp-754174,Tb2Nb2O7,0.0,-3.399525653674244,0.0929582210227284
mp-559670,KBaYSi2O7,4.6816,-3.3994824634375003,0.0
mp-558240,K3Al4P2O8F9,5.456,-3.399295566996173,0.0
mp-645246,Dy3BWO9,3.7847,-3.399035598065477,0.0033217566071446
mp-8876,Ca4Al6SO12,3.7266999999999992,-3.3987876464809768,0.0
mp-554282,Lu3B5O12,5.426500000000001,-3.3986550820416683,0.0010663161562476
mp-754605,LiLuO2,4.5008,-3.3986268356250005,0.0
mp-558273,Ca3SiO5,3.278299999999999,-3.398463219953704,0.0498426785185168
mp-560638,Na2U2Si(O4F)2,2.078299999999999,-3.3984396964919994,0.0
mp-760093,LiTi8O16,0.0,-3.397557901133335,0.049049704599982
mp-765486,PrAl22O34,0.0,-3.3973961256578953,0.0458212315570252
mp-771772,Lu4(B2O5)3,5.8261,-3.3973520235500008,0.0392534344249977
mp-8877,Sr4Al6SO12,3.3443,-3.3970479599592385,0.0
mp-7339,BaSiO3,4.534499999999999,-3.39688085725,0.0218936544999985
mp-753747,Ta3O7F,2.2236,-3.3967568177218186,0.0
mp-705932,Sr10P6ClO24F,5.0933,-3.3965560166195585,0.0013769857142857
mp-614369,La3BWO9,3.785299999999999,-3.3964433759226185,0.0
mp-754401,Al2O3,4.2235,-3.39641582675,0.0456976740000003
mp-31212,K2MgF4,6.405900000000001,-3.396278463537143,0.0
mp-4758,K2NbF7,4.528399999999999,-3.3962703330830015,0.0
mp-656852,Ti13O22,0.0,-3.396232417119049,0.0126939065000009
mp-3775,Na2SiF6,6.9887999999999995,-3.3960288989414824,0.0
mp-760088,MgTi23O40,0.0,-3.395987588177084,0.0091894073958389
mp-863358,KAl11O17,4.674899999999999,-3.395351712801724,0.0
mp-581403,K3Na4Si3BF22,6.9785,-3.3950454961468677,0.0029743694444421
mp-1020588,ZrSiO4,3.8593,-3.3950039450000005,0.1818259416666663
mp-772497,Er4(B2O5)3,5.580500000000001,-3.39493440195,0.0140879241666969
mp-558209,Ca3Mg(SiO4)2,4.8796,-3.3949340866071434,0.0375758900000002
mp-645218,Tb3BWO9,3.7934,-3.394728226636905,0.0
mp-1019558,BaSr2Mg(SiO4)2,4.759,-3.3945356942857146,0.0
mp-567062,SrLiFeF6,4.1239,-3.3944295896822214,0.0
mp-776490,Al2O3,5.4415000000000004,-3.39431261175,0.0478008890000003
mp-17714,Ho4(B2O5)3,5.5299,-3.39399751975,0.0384282345999924
mp-18099,BaSbF5,4.7525,-3.3936745051357144,0.0
mp-29222,Ba2Si3O8,4.5119,-3.3933206484615384,0.0
mp-553897,Ba2Si3O8,4.4855,-3.392641860192308,0.0006787882692274
mp-558534,Tm3B5O12,5.3919,-3.392534439416667,0.0
mp-766387,RbAl11O17,4.7303999999999995,-3.392425388146552,0.0
mp-1019599,CePO4,0.0,-3.3924001121825387,0.015069215555556
mp-756593,Ta3(OF)5,2.197,-3.3923574782461534,0.0831460707692404
mp-754475,Tm2SeO2,1.9537,-3.3923555722187513,0.045268641999999
mp-18108,Dy4(B2O5)3,5.4521,-3.3923020690166665,0.0200797393000016
mp-4753,Al2SiO5,4.8355000000000015,-3.3910881448437493,0.0
mp-762279,K2Ti8O17,2.7786999999999993,-3.3908306146142,0.0091096564814794
mp-554352,Ba2CuF6,0.0,-3.390435676348889,0.0135813777777764
mp-8057,Ti3O5,0.0,-3.3902349801562512,0.0083877818749833
mp-42599,NaYTiNbO6F,2.7187,-3.390111328214243,0.0535626613636282
mp-6094,Ca2MgSi2O7,4.467700000000001,-3.389749083645834,0.0225927318749992
mp-6632,Ca5B3O9F,4.2439,-3.3897470231911107,0.0
mp-6514,NaLaTiO4,2.421499999999999,-3.389664213095238,0.009016206250008
mp-4377,K2TbF6,0.0,-3.389630740608148,0.0
mp-755289,Li3Y3ZrO8,4.1806,-3.389585475166667,0.0437771283333408
mp-6076,Ca4LaB3O10,4.2993000000000015,-3.3895820373611105,0.0
mp-28351,Dy2GeO5,3.9954,-3.3895422193229163,0.0
mp-10930,TbSF,1.2587,-3.389393991195277,0.0
mp-760755,KAl11O17,4.6159,-3.3892833269396543,0.0060683858620693
mp-754812,Al2O3,4.1705,-3.3892137217499982,0.0528997790000005
mp-6224,LiScSiO4,4.612299999999999,-3.38904173,0.0
mp-694881,NaNd3Ti3MnO12,0.0,-3.388941611923,0.0522625147500033
mp-556530,LaSc3(BO3)4,3.9049,-3.388922859583334,0.097922338
mp-758848,Ti5NbO12,0.0,-3.388894233796296,0.0320784763461627
mp-6167,Ba2NdNbO6,2.985,-3.3888531755000004,0.0
mp-3536,MgAl2O4,5.1095,-3.388825434999999,0.0
mp-757527,LiTi6O12,0.0,-3.3887139763157905,0.0350862478947266
mp-559391,Pr3Si2Cl3O7,4.8449,-3.388633687235333,0.004949991166665
mp-540995,Rb5Nb3OF18,3.9867,-3.3885317989877786,0.0
mp-695278,Ba3La9Mg7Nb5O36,2.9983,-3.3881694370833344,0.1003796251666617
mp-43134,NaNdTiNbO6F,2.786299999999999,-3.3880206273051523,0.0374610331818257
mp-12295,Sr3La2(BO3)4,4.1562,-3.387927433055556,0.0033049339285717
mp-554141,Ca3SiO5,3.3125,-3.3879056592129637,0.0604002392592573
mp-13960,Sr3Er2(BO3)4,4.476699999999999,-3.387791214484128,0.009806771726188
mp-16903,SrSbF5,4.7617,-3.3874912512071425,0.0
mp-6943,Ca4GdB3O10,3.2691,-3.38745729625,0.0
mp-42022,Cs2RbZrOF5,4.7017,-3.38723821722,0.007388931250003
mp-559083,Ca2MgSi2O7,4.6042,-3.3869175778125005,0.0254242377083331
mp-18005,NaYTiO4,2.3749000000000002,-3.3868259359523827,0.0204592735714257
mp-29937,Ho5(ReO6)2,0.0,-3.38665586263158,0.0
mp-27917,Ca3SiO5,3.695999999999999,-3.386641647731482,0.0616642507407387
mp-6388,Ca4SmB3O10,4.3844,-3.3865557258333334,0.0
mp-17313,Mg3BeAl8O16,5.1747,-3.386498964999999,0.0
mp-3931,SmSF,1.2296999999999991,-3.3855834692508338,0.0
mp-8558,BaNpO3,0.0,-3.3855601025,0.0
mp-669333,Ba5Si8O21,4.5042,-3.3854716951838224,0.0039218391911779
mp-773910,Er2GeO5,3.6141,-3.3851129951562493,0.0238154941666675
mp-555247,Dy3ReO7,0.0,-3.3848171585227265,0.0414983874242373
mp-32591,Al2O3,3.075199999999999,-3.384810398625,0.057303102125001
mp-21423,Pu2O3,0.0,-3.3847936634999995,0.067409628
mp-767799,LiLa2Ti2CrO9,2.2594,-3.3846409966388893,0.0409949410000045
mp-29223,Ba3Si5O13,4.514799999999999,-3.3843254544642862,0.0026370092857135
mp-10935,NaErPO4F,5.5176,-3.384126975535655,0.0038334356249976
mp-3771,MgTiO3,3.529499999999999,-3.3839616690833347,0.0
mp-757376,KAl11O17,4.5874000000000015,-3.3837198690086203,0.0116318437931033
mp-761414,Al19CrO30,3.9272,-3.3836237191500005,0.0038628602499954
mp-556754,Ti3O5,0.0,-3.3836228239062507,0.0149999381249834