mpid,formula,BG,FE,e_hull
mp-755210,Y4Cu2O7,1.567899999999999,-3.114456692980769,0.1035314957692303
mp-699243,La5MgRe3O16,0.094199999999999,-3.1144409905999986,0.0292991946000018
mp-40484,NaNd3Ti2(SbO7)2,2.1497,-3.1144142026515165,0.0004224849999978
mp-779608,Ba3(BO3)2,3.106899999999999,-3.114250819166668,0.0494941395454553
mp-769885,Sc2V2O7,1.2135,-3.1142000194318165,0.0517965798863659
mp-772972,Li2Ti2O5,3.7177000000000002,-3.11418772912037,0.0559475317592337
mp-765182,Li3VF7,1.9246,-3.114124996666364,0.0535294631817766
mp-754327,Ho2CuO4,0.0,-3.114117977857142,0.052579988928584
mp-756781,Sr3Li2Nb4O13,0.0,-3.1140419366477285,0.0180205514015003
mp-17841,Mg4Nb2O9,3.4252000000000002,-3.1138329690833344,0.0
mp-759754,Ti11O14,0.0,-3.113637004833333,0.0459471088000018
mp-1019511,AlPO4,5.556900000000001,-3.113614006765873,0.0248511437500038
mp-21149,GdO2,0.0,-3.1135971208333357,0.1414436889583328
mp-558088,AlPO4,5.6341,-3.1134764210714287,0.0249887294444484
mp-558590,U2NiO6,0.3891,-3.1134077360185195,0.1120324959259271
mp-42163,Ca10Si3S3(ClO12)2,4.500199999999999,-3.1131114463977982,0.0283591672619039
mp-542121,Rb4Nb2Si8O23,3.7154,-3.1130721529391887,0.0
mp-768011,LiTi3VO8,1.541599999999999,-3.1129925238461538,0.0957946057692194
mp-557543,K3LuSi2O7,3.6083,-3.1129064352884623,0.0
mp-561344,Rb2CrF5,3.4227,-3.112632463556249,0.0
mp-686482,K2YTi(PO4)3,2.5582,-3.112586960839599,0.003978990460526
mp-8188,KScO2,3.6247,-3.112513255625,0.0
mp-677081,SrLa11Mg3Ga9O34,1.5107,-3.1121623100431037,0.1075155342564571
mp-16598,K3TmSi2O7,3.7555,-3.1120747186217943,0.0
mp-555447,NaScB2O5,4.9199,-3.1118999563425915,0.0
mp-767031,Ta2MnO6,2.1698,-3.111703023162222,0.0080552636111086
mp-28626,LaSO,1.522899999999999,-3.1117017176041664,0.0
mp-4608,KPF6,7.0206,-3.1116808231544044,0.0
mp-17666,Nd3OsO7,0.0,-3.111431602840909,0.0
mp-764920,LiVF5,1.9047,-3.1112727094214288,0.0019741321428625
mp-14837,Sm4Si2Se3O7,2.3907,-3.1111164723144533,0.0048059984375008
mp-10620,LiPrO2,3.533199999999999,-3.11102462,0.0097431437500024
mp-566060,Pr3W(ClO2)3,3.5179,-3.1109427836369226,0.0
mp-772672,Sm2V2O7,1.3499,-3.1108679730681814,0.093566048409091
mp-555253,La5Ti2AgS5O7,1.5128000000000001,-3.110847036369792,0.0
mp-18684,KPF6,7.2209,-3.1105967906544048,0.0010840324999978
mp-540659,Ba(BO2)2,4.522399999999999,-3.11056447452381,0.0
mp-757048,LiTi(SiO3)2,0.08079999999999901,-3.110522372083334,0.0719263767499995
mp-6105,Pr2Ta3(SeO4)2,0.9477000000000001,-3.110465167645834,0.0
mp-766147,Li2V4OF12,1.6858,-3.1104264766068423,0.0572965005263208
mp-19377,LiLa2MoO6,1.619799999999999,-3.11026974825,0.0019635836666775
mp-5730,Ba(BO2)2,4.7852,-3.110174928333333,0.0003895461904761
mp-15079,Cs4KLiGa2F12,6.0599,-3.109861179714,0.0
mp-765229,V2F7,1.7368000000000001,-3.109812466481112,0.0020822177777652
mp-867735,PrSmO2,0.0,-3.10973887375,0.096203729635417
mp-541550,Mg16Si8HO32,0.0,-3.1096623275196484,0.0695609023049135
mp-14638,Rb2LiGaF6,6.1124,-3.1096548102140007,0.0
mp-766941,Li4VF8,1.9347,-3.10955802227077,0.0601311665384525
mp-34475,Ta2MnO6,1.930199999999999,-3.109554961773332,0.010203324999999
mp-697317,Rb2YTi(PO4)3,2.5453,-3.1095109583395986,0.0054090226315821
mp-767978,Li3La7(FeO8)2,0.9455,-3.109481114999999,0.0454448215178615
mp-705743,Ta2MnO6,2.1806,-3.1094198526066656,0.0103384341666643
mp-18502,BaSi3SnO9,3.7232,-3.1092779461607143,0.0
mp-6192,Ba2DySbO6,3.4688,-3.1092147139166673,0.0
mp-761971,LiLaNb4O12,1.3084,-3.109127614537039,0.0791559321296233
mp-556905,GdMg(BO2)5,3.0152,-3.1090876232843128,0.0
mp-560671,Rb2NaVF6,0.0,-3.1090770632140017,0.0
mp-695095,Ca19Si6S6(ClO24)2,3.9751,-3.108998792603643,0.0449592409259258
mp-542100,K4Nb2Si8O23,3.793999999999999,-3.1087169572635145,0.0022819987837792
mp-765368,LiVF5,2.073,-3.1084964640642863,0.004750377500005
mp-540878,La3Re2O9,0.21030000000000001,-3.108470480446428,0.0069748714285768
mp-684990,Al2O3,3.1115,-3.1082508747500004,0.3338626260000001
mp-657338,MgSiO3,4.3843,-3.1081541877499994,0.1424562357500027
mp-1020740,YBe2B5O11,5.3906,-3.10814392629386,0.0
mp-1778,BeO,6.8508000000000004,-3.1080364031249994,0.0071146349999997
mp-675569,KPF6,7.1053,-3.1078248631544048,0.0038559599999974
mp-17878,BaHo2CuO5,0.0,-3.107608489583334,0.0328072641666663
mp-8409,KYO2,3.973899999999999,-3.10743809625,0.0
mp-771862,Li2Ti3VO8,0.0,-3.1074174335714275,0.0156479094643078
mp-557244,SiO2,5.1733,-3.1073847533333327,0.1773281541666662
mp-555544,SiO2,4.320699999999999,-3.1073752375,0.17733767
mp-695608,Rb8BaNaAl11Si13O48,2.0294,-3.107067109573172,0.1418513207012237
mp-8346,Lu2Ge2O7,3.7065,-3.1066989982954536,0.0
mp-16597,K3ErSi2O7,3.7372,-3.1066443829807686,0.0
mp-861975,PaO3,0.0,-3.1066200009375,0.0
mp-775865,Li2Ti3MnO8,2.3697,-3.1064216145328563,0.0
mp-766954,LiVF5,1.898299999999999,-3.106308023707143,0.0069388178571481
mp-703370,Ca13Si10H12(O17F5)2,5.030699999999999,-3.1060587535169617,0.0173460001898737
mp-767609,LiVF5,2.218499999999999,-3.1060453694214294,0.0072014721428566
mp-19369,Ti2CrO5,0.2987,-3.105939194322918,0.0226788481249915
mp-686347,Ca16MgAl14Si9O56,1.0407,-3.105926044791667,0.3637476142187479
mp-767769,LiVF5,1.817,-3.1055743008500007,0.0076725407142905
mp-774721,Li5La3Nb2O12,3.4594,-3.1055217763636365,0.0547507329545524
mp-755610,Ba6HfO8,2.4348,-3.105215353,0.063394153333335
mp-753864,Sr2Li2Nb4O13,1.4216,-3.1051501498214304,0.026678556130955
mp-14482,SrNb6O16,1.6317,-3.105142240869565,0.0266491820652063
mp-695030,La10Mg(Ga3O10)3,0.0,-3.10512923575,0.0466606588910956
mp-7478,RbTmO2,3.6638,-3.1051022681249987,0.0
mp-15016,Nd4Si2Se3O7,2.3918,-3.1047895134082037,0.0009042555468745
mp-8878,Sr(BO2)2,6.3751,-3.1046005095238103,0.0340092559523963
mp-8678,NaAlPO4F,5.429500000000001,-3.1044655711606537,0.0016414989583379
mp-530852,Mg2SiO4,2.3731,-3.1042837947142856,0.1317112784999992
mp-3336,LaGaO3,3.376299999999999,-3.1042134677499997,0.0375820970714286
mp-642210,MgSiO3,4.2049,-3.1040608872499997,0.1465495362500029
mp-649676,CaSiO3,2.9075,-3.103776871916668,0.3570809318333321
mp-754093,Gd2CdO4,1.615999999999999,-3.103505900714286,0.0815008714285703
mp-16596,K3HoSi2O7,3.721999999999999,-3.1034745104166666,0.0
mp-7599,BeO,7.0845,-3.103319013125,0.0118320249999994
mp-606691,KU2P3O14,2.3916,-3.1031265738392872,0.0
mp-15362,Li3Nd2(BO3)3,4.7523,-3.1031193288970584,0.001955445441176
mp-10734,Ti4O5,0.0,-3.103085741435185,0.0388024233333279
mp-556450,PrB2ClO4,5.0695,-3.1030389570741663,0.0
mp-763858,Ta2MnO6,1.9696999999999991,-3.1030071046899987,0.0167511820833325
mp-1020110,Mg2SiO4,3.8213999999999992,-3.1029510378571423,0.133044035357142
mp-14708,Tm2Ge2O7,3.7188,-3.1027570344318183,0.0
mp-989531,Cs2KGaF6,6.0426,-3.1025451627139997,0.0
mp-541244,CeVO4,0.3341,-3.1023451712500005,0.1123286512499994
mp-779434,Li5La3Nb2O12,3.4842,-3.101994549431818,0.058277959886352
mp-777940,Li4V3OF11,0.9464,-3.1019634507547367,0.063635270964907
mp-540693,La2CoO4,0.8839,-3.101858091428572,0.0537071742857122
mp-625367,LuHO2,4.1067,-3.101748969029998,0.0088729344791671
mp-754739,CaBe3O4,3.911499999999999,-3.101655054375001,0.0626364968749992
mp-558206,K9U6BiO24,1.7042000000000002,-3.1015038338749994,0.0
mp-557084,Al2CuSi2O7F2,0.634799999999999,-3.101380863295,0.0194143542857139
mp-559088,La2Si(IO2)2,2.9986,-3.101304224444445,0.0264861183333335
mp-6667,CaBPO5,5.317,-3.101187759293154,0.0055566361011951
mp-17687,SrDy2CuO5,0.0,-3.1010018585648136,0.0659072752778007
mp-10517,LiScP2O7,4.7646,-3.1008102868127714,0.0
mp-998739,MgTlF3,4.2135,-3.1006652667139982,0.0
mp-13827,Ca(BO2)2,6.0656,-3.1005569010714296,0.0406469754761857
mp-769637,Li5Ti6FeO16,2.6955,-3.1005514125,0.0
mp-560673,NaPr2S2O8F3,6.1548,-3.1000277988559377,0.0
mp-771710,Li3Zr4(PO4)6,0.048199999999999,-3.0999674113127416,0.0570663148346142
mp-6265,Ba2TbSbO6,3.507199999999999,-3.099957831583333,0.0
mp-760539,Li2Ti3O6,0.0,-3.099838815227273,0.063685005000007
mp-16595,K3DySi2O7,3.7064,-3.0998380115705126,0.0
mp-1020647,Sr2LiBeB3O8,4.7198,-3.0996429605,0.0
mp-753947,LuHO2,4.8555,-3.0993885765299987,0.0112333269791671
mp-558325,K2YNb5O15,1.6085,-3.0992941304891306,0.0275869962318822
mp-23145,Na4Al3Si3ClO12,4.6948,-3.099142985576522,0.0
mp-706328,Ba3DyUFeO9,1.4773,-3.099014029527779,0.1416891390713903
mp-769118,HoSO,1.190999999999999,-3.0987525976041663,0.0162629218827143
mp-31408,Al4(B2O5)3,5.8172999999999995,-3.0986087331499994,0.0
mp-989400,Rb2NaGaF6,5.9026,-3.0985072072140003,0.0
mp-780921,CeCrO3,0.0,-3.0984469532500016,0.0568742777727262
mp-776215,Li2Ti3NbO8,0.0,-3.0983376146428574,0.0566794630357367
mp-21546,K2CeNb5O15,0.0,-3.0980684412499984,0.0066412484057956
mp-669331,Ca3Y2(GeO4)3,3.2592,-3.0977907465000003,0.0
mp-558910,Li2U3(PO5)4,2.1386,-3.097784271978653,0.0
mp-14836,Pr4Si2Se3O7,2.3921,-3.0977246374707037,0.0
mp-10559,Gd3AuO6,1.5063,-3.0977145217499995,0.0
mp-21307,NaEuTiO4,0.0,-3.0976926516666667,0.0
mp-677551,Na6MgAl4Si13O36,5.029300000000001,-3.0976075532500005,0.0809813026927068
mp-767939,Li2V2F7,0.7864000000000001,-3.097604167575456,0.0682673408333336
mp-759116,YbAlO3,0.0,-3.0975143837500005,0.1243840030000189
mp-30926,LaB5O9,4.4878,-3.097491425805557,0.0
mp-675342,NdPb4F11,4.4389,-3.0974053009743745,0.0383214010416672
mp-17769,YSO4F,5.8491,-3.097356535750357,0.0069145457142862
mp-22550,BaDy2CuO5,0.0,-3.0971618916203703,0.0304615755555888
mp-755887,La2S2O,2.4295,-3.0970767183750008,0.0028980384999997
mp-1020114,MgSi2O5,5.011099999999999,-3.0969303060937508,0.1664685489062405
mp-767477,Ta2MnO6,2.0255,-3.096846235662221,0.0229120511111098
mp-19217,ErMnO3,0.0,-3.0968138646086656,0.0
mp-674897,SrNd3AlCuO8,0.1973,-3.0968025687500003,0.1784841116071494
mp-556709,Na2ZrSiO5,4.004,-3.0967487590277787,0.0
mp-767692,Li2VF6,2.1057,-3.096620189126667,0.068095217777774
mp-694975,Ba3HoUFeO9,1.4135,-3.0963541070833336,0.1508007133214395
mp-555482,KZrH2OF5,5.8343,-3.096190856569,0.0007187746250023
mp-755714,SrEuO2,0.0,-3.096083239375,0.0182265825000005
mp-13772,Li3Pr2(BO3)3,4.7278,-3.096066150367648,0.0
mp-3427,LiAlO2,4.5899,-3.0960585149999997,0.0
mp-767392,Li7Ti7Nb5O30,2.1219,-3.0960351725340134,0.0501797250255116
mp-684769,Sr2La6TiCu3O16,0.0,-3.0958781609523816,0.0633044445535642
mp-6492,Ba2YSbO6,3.5377,-3.0958389005000013,0.0
mp-3614,KTaO3,2.0983,-3.0957266407499997,0.0
mp-774483,Zr2(PO4)3,0.0,-3.0955154127521007,0.0118461783455856
mp-686540,Na3Al2P2O8F3,4.7689,-3.0953210433200264,0.0
mp-16594,K3TbSi2O7,3.688,-3.0952518765705133,0.0
mp-15103,Sr3Y2(GeO4)3,3.1359,-3.09519352425,0.0
mp-8961,Ba3NaTaO6,3.4045,-3.095109021136363,0.0
mp-555529,LiCaCoF6,0.0,-3.094988626904444,0.0405141755555513
mp-774561,Zr2(PO4)3,0.0,-3.0949485252521005,0.0124130658455872
mp-560321,Mg2SiO4,4.4414,-3.0948296992857145,0.1411653739285698
mp-691150,Lu4V4O13,0.0,-3.0947313998214283,0.2084612192857182
mp-8412,LiCeO2,0.0,-3.0947203775,0.042510452187491
mp-6853,Ca3TaGa3(SiO7)2,3.9122,-3.094671902065218,0.0
mp-534773,Na2Al17Si11B7(H3O31)2,4.069699999999999,-3.0945118230084447,0.018986286193761
mp-756336,CaEu2O3,0.0,-3.0944083264583355,0.1001079691666664
mp-867750,Ti3PO7,0.0,-3.094030166076839,0.1359768019902727
mp-6238,Ba2Ta6Te2O21,2.828,-3.0939179389112903,0.0
mp-850929,Li4MnF6,4.9148,-3.093914104675757,0.0341800424242411
mp-556132,SiO2,4.3926,-3.09339301875,0.1913198887499998
mp-16956,Na3Sc2(PO4)3,4.6575,-3.093254293964286,0.0
mp-14052,Ca3In2(SiO4)3,3.668,-3.0931557496250006,0.0085544273749995
mp-546679,Nd2AlNO3,1.061999999999999,-3.093077824447142,0.0763281432143312
mp-975666,PrBrO,4.462999999999999,-3.092715100416666,0.0
mp-2472,SrO,3.2748,-3.092701745624999,0.0
mp-555899,Li2Si3O7,5.2253,-3.0926856255208337,0.0016104772916669
mp-693857,NaLi2Al3(SiO4)3,2.955,-3.0925858317857147,0.1132743413293662
mp-760188,Nb3O7F,2.2294,-3.092431965449092,0.0089989663636362
mp-776762,LiVF5,1.9967000000000001,-3.092369899242857,0.0208769423214336
mp-10560,Sm3AuO6,1.7207000000000001,-3.0922612165000003,0.0
mp-775789,Li2VF6,2.197699999999999,-3.092222144126666,0.0724932627777912
mp-1019738,BaEu2O4,0.0,-3.0921405110714297,0.0
mp-14985,KZrPdF7,0.6681,-3.0921385403330004,0.0119268483333296
mp-566252,Ba2VP2O9,2.5501,-3.0920223558886053,0.0
mp-13643,Er2Ge2O7,3.727899999999999,-3.091933033068182,0.0
mp-765177,LiVF5,1.9674,-3.0918509128142864,0.0213959287500049
mp-675334,LiTi2O4,0.0,-3.091700601190477,0.1691897549999836
mp-556696,Ba2YbB2ClO6,0.0,-3.0915185449244453,0.0056257988690484
mp-754668,Hf3N2O3,3.2508999999999992,-3.0915179704387503,0.0374641068749994
mp-760184,Na4Ti5O12,2.7626,-3.09145865515873,0.0377474904761925
mp-554463,Na3LuSi2O7,3.9466,-3.091444749134616,0.0
mp-672214,BePbF4,5.2044,-3.091419349126667,0.0441263234722226
mp-17753,Nd3RuO7,0.0,-3.0914010964772736,0.0
mp-764434,Li2VF6,1.9285,-3.090949926348889,0.0737654805555685
mp-720212,Rb9Na2Al11Si13O48,2.4145,-3.0909132953012053,0.1124542972439694
mp-754794,La2S2O,2.1692,-3.0908958278750003,0.0090789290000001
mp-5088,NaGdO2,3.1172,-3.0905199656250013,0.0
mp-541281,BaNdGaO4,3.732999999999999,-3.090501794642857,0.0139383438452398
mp-566812,Sr9LuV7O28,3.6781,-3.090375360444443,0.0
mp-676467,Na3Al2P2O8F3,4.7401,-3.0894763424866927,0.0058447008333324
mp-765356,Li2VF6,1.9723,-3.0893642930155565,0.0753511138889013
mp-705861,Rb10NaAl11Si13O48,2.1539,-3.089167094397592,0.1171913469879468
mp-975288,RbNpO3,0.0,-3.0889059265000016,0.0072200699999989
mp-34052,Li7Ti7O16,0.0,-3.088807945888888,0.0302541810000143
mp-13190,KRb2GaF6,5.8894,-3.088706077714,0.0
mp-565570,Sr9TmV7O28,3.5778,-3.0886384672222222,0.0
mp-6947,SiO2,5.0026,-3.0885311591666658,0.1961817483333341
mp-765804,Li6VF8,3.5201000000000002,-3.088522328634667,0.0563636503333349
mp-764195,Li3V2OF7,2.1573,-3.08847374266,0.0479907398718033
mp-13934,Ba2TmReO6,0.0,-3.08806911325,0.0
mp-674522,K6U4O15,1.3949,-3.0880201732833337,0.1064340766666767
mp-18656,GdGaO3,3.3962,-3.087994253249999,0.0490047592499998
mp-18786,Ca2CoSi2O7,3.056,-3.0878391853125,0.0178878341666637
mp-3858,NaTaO3,2.6172,-3.0877586957500007,0.0
mp-1019719,CsSi2BO6,5.2589000000000015,-3.087679376416668,0.0
mp-555394,SiO2,4.0687,-3.0876309502083337,0.1970819572916653
mp-755924,Y2CuO4,0.0,-3.0869734857142848,0.0344310114285715
mp-686296,CaGd2Zr(GaO3)4,3.2017,-3.086652616750001,0.0
mp-778060,Li2VF4,2.7537000000000003,-3.0866293096085715,0.0171204189285711
mp-19056,HoMnO3,0.0,-3.0865541369420004,0.0
mp-557472,K2Be2(SiO3)3,4.809900000000001,-3.0865308138281256,0.0
mp-866030,EuSiO3,0.0,-3.0864457837500003,0.2516295232500063
mp-560082,Ho2Ge2O7,3.7385,-3.086443183295455,0.0
mp-555421,Na3TmSi2O7,3.961,-3.086440901185898,0.0
mp-771549,Li2Ti3VO8,0.25680000000000003,-3.086365646071428,0.0366996969643072
mp-7477,RbErO2,3.646599999999999,-3.086271384375,0.0
mp-754004,TmHO2,4.5627,-3.086164720905,0.0029090710937493
mp-561245,Sr8Si2PtO14,2.253999999999999,-3.0861066199,0.0010984701999969
mp-754545,NdO,0.0,-3.0860702243750007,0.0800264374999999
mp-6163,Cs2NaGaF6,5.9678,-3.085997445214,0.0
mp-565883,Li2U3V2O15,2.2727,-3.085928322670453,0.0018367436363639
mp-753883,La4Bi2O9,2.5475,-3.085838196083334,0.0647982023333604
mp-557330,Sr2B5ClO9,5.3411,-3.085431533696667,0.0
mp-772338,Li2ScFe(SiO3)4,2.9333,-3.08534586225,0.003938619249995
mp-566070,Pr2B2MoO9,3.3727,-3.085246463184524,0.0
mp-555073,La3As2ClO7,3.149899999999999,-3.085156913808462,0.0
mp-554665,SiO2,4.8029,-3.0851400216666662,0.1995728858333301
mp-566258,Ba2MnSi2ClO7,1.328399999999999,-3.084606166382307,0.000303017235578
mp-7249,Ba3Nb2ZnO9,2.7287,-3.0843250870833345,0.0
mp-559537,Ca4P6O19,5.3618000000000015,-3.083777311804188,0.0
mp-781505,Ca3WO6,3.706,-3.08360111325,0.0
mp-558603,K2Si4O9,4.447,-3.083361689083333,0.0
mp-989618,Cs2RbGaF6,5.939299999999999,-3.0833284197140003,0.0
mp-560004,Na2USiO6,1.9761,-3.08320849975,0.0386534118750017
mp-9785,BaHo2PdO5,1.943799999999999,-3.08316566125,0.0198310049999994
mp-4675,NaTaO3,2.2798,-3.0831195477499995,0.0046391479999989
mp-775392,Li2Ti3MnO8,1.7513,-3.0826333959614263,0.0237882185714344
mp-8217,Cs2GeF6,6.032,-3.0825050302377783,0.0
mp-19975,Sr2PrO4,0.0,-3.0821691878571427,0.0554983939285742
mp-673808,Mg2SiO4,3.8639,-3.0820624321428567,0.1539326410714281
mp-542209,Ba2CoSi2O7,2.9050000000000002,-3.081889263229167,0.0
mp-14396,Mg3(PO4)2,5.106400000000001,-3.0816641058608063,0.0
mp-555608,Na3Sc2(PO4)3,4.7095,-3.0816248397142862,0.0116294542500003
mp-764324,Li2VF4,2.744899999999999,-3.08126252068,0.022487207857142
mp-29326,La3(ReO5)2,0.0,-3.0812280488333337,0.0
mp-15844,TaPO5,3.826399999999999,-3.080971794192174,0.0485313237500033
mp-690244,Lu4V4O13,0.33429999999999904,-3.0808282464880947,0.2223643726190509
mp-686588,RbNa10Al11Si13O48,2.5018000000000002,-3.0805802259036135,0.0988605759186649
mp-765259,Li4VF8,2.1118,-3.0804827916938464,0.0892063971153751
mp-8001,LiAlO2,6.1183,-3.080468258125,0.0155902568750008
mp-989572,Cs2NaCaF6,0.0,-3.080413995214,0.0076189617499995
mp-560929,Na3CrF6,4.0586,-3.080252191214,0.0
mp-772793,Dy2Ge2O7,3.7422,-3.0801702395075763,0.0
mp-27657,Ca2B6O11,5.639,-3.0801530145394738,0.0
mp-755920,Ti3NO4,0.0,-3.0799683821725017,0.0361185043749969
mp-16135,Sm3NbS3O4,2.286,-3.0799196770170454,0.0015043357575752
mp-767349,LiVF5,1.9884000000000002,-3.0797637722785716,0.0334830692857188
mp-6000,La2Ti3(AgO5)2,1.9412,-3.0797468701470594,0.0573363645588234
mp-3808,K2UO4,1.9745000000000001,-3.0794315749999988,0.0
mp-17975,KSrPO4,5.0889,-3.0791249307993196,0.0
mp-559833,Na2YC(OF)3,5.261,-3.0790912046070007,0.0052566466249999
mp-767160,Ca5MnO6,2.9678,-3.0788253907050005,0.0143438474999992
mp-778026,Li2MnF4,4.0319,-3.0785192236742853,0.0194114657142865
mp-768422,TmHO2,4.8302,-3.07849791778,0.0105758742187491
mp-24784,Mg16Si8HO32,0.0,-3.0784172027828065,0.100806027041755
mp-755515,Lu2TeO6,2.9821999999999993,-3.0783756019444444,0.0
mp-29993,TaAgF6,3.554999999999999,-3.0782354583925,0.0
mp-9740,BaDy2PdO5,1.983,-3.0781768832870373,0.0120274963888888
mp-6361,NaSr3NbO6,3.2962000000000002,-3.077748782045456,0.0
mp-19535,Ca3Fe2(SiO4)3,2.6134,-3.0775711620000017,1.0263999996595883e-05
mp-765832,Li2V2OF6,1.6207,-3.0775473471263637,0.0444709419696947
mp-28075,K2Ti2O5,3.2268,-3.077525537731481,0.0
mp-9870,K3Ta3(BO6)2,2.6687,-3.077458134916665,0.0
mp-753692,Ho2Ge2O7,3.002899999999999,-3.077394695795455,0.0090484875000003
mp-558301,SiO2,5.440799999999999,-3.077354180416666,0.2073587270833332
mp-971996,SrHoO3,0.0,-3.0771095717500003,0.2293950882499986
mp-867722,PrNdO2,0.0,-3.07710153,0.0787875138541673
mp-504801,ErHO2,3.982099999999999,-3.07706463278,0.0
mp-556531,LiSi2BO6,5.586699999999999,-3.0769524587916672,0.0
mp-16801,GdSO4F,3.178,-3.076768127893214,0.0
mp-707302,Rb10Al24Cd7(SiO4)24,2.2832,-3.0765397818322997,0.051800064580739
mp-861590,Li2VF6,1.9564000000000001,-3.076386724126667,0.0883286827777904
mp-972216,Sr2SmSbO6,3.6039,-3.0761252105000003,0.0
mp-510,TaO2,0.42840000000000006,-3.0760334045833315,0.0552491749166677
mp-9755,HfGeO4,4.161099999999999,-3.0760056241666667,0.0
mp-11706,Ho2HgO4,2.0919,-3.0758477028571423,0.0032098807142855
mp-778732,Li2MnF4,4.0178,-3.0758035908171424,0.0221270985714285
mp-754125,NdO2,0.0,-3.0757307333333324,0.0903659285416633
mp-562154,DyMnO3,0.0,-3.075692843275334,0.0
mp-10402,TiTl2F6,3.871,-3.075596405978519,0.0
mp-696651,K3NbHOF7,4.1033,-3.0754815233230777,0.0
mp-555942,Er3SiSe2O10F,4.0849,-3.075468585345736,0.0
mp-775345,LiTi2VO6,1.7907,-3.0754114013333345,0.0403625729999959
mp-765263,LiVF5,1.9073,-3.0749852683500003,0.0382615732142905
mp-745166,Sr2Fe2H2OF10,3.5417,-3.074955464287647,0.0
mp-755431,PrNdO2,0.0,-3.07483036625,0.081058677604167
mp-559273,SiO2,5.6598,-3.0748211094444446,0.2098917980555548
mp-771759,Li2Ti3CrO8,0.0,-3.0748066242857144,0.0029266315498759
mp-35171,NbO2F,1.3247,-3.0742741784225007,0.1118287712499981
mp-764758,Li6MnF8,4.5332,-3.074132466032,0.0680379613333341
mp-753108,Yb2TiO5,0.0,-3.074126851614584,0.1827601695312495
mp-557786,CaNb2P2O11,2.4718,-3.07411750187128,0.0
mp-6978,RbHoO2,3.625099999999999,-3.073965619375,0.0
mp-775616,Li2Ti3CrO8,0.0,-3.0737848448214287,0.0039484110141625
mp-849541,Li2V2F7,1.2155,-3.073610225075456,0.0922612833333334
mp-765024,LiVF5,1.9205,-3.073523063707144,0.0397237778571479