mpid,formula,BG,FE,e_hull
mp-756296,ErTiO3,0.0,-3.658643125583334,0.0591609107500179
mp-754128,Ba3Hf2O7,3.5653,-3.6583691982291673,0.0
mp-776024,CaZrO3,3.4707,-3.658116682,0.0254041352500102
mp-5479,RbAlF4,6.8752,-3.6580693691266664,0.0010012105000045
mp-677015,Na3Sm17Si12(O25F)2,4.656700000000001,-3.657976018361667,0.0
mp-754182,TbZr4O10,0.0,-3.656639279055556,0.0769312870000025
mp-754405,Ce2TiO5,0.0,-3.6565582022395833,0.1132225018750006
mp-676874,Dy2Ti2O7,1.8367,-3.65590830625,0.1529316310605821
mp-780421,LaAlO3,4.270499999999999,-3.655172375416667,0.080624520333334
mp-5347,KAlF4,6.786300000000001,-3.65496368246,0.0175153837499966
mp-17235,Sm2Si2O7,5.105700000000001,-3.6547132489772736,0.0
mp-865218,YbTiO3,1.895699999999999,-3.654706108083333,0.0968085054999985
mp-3834,BaZrO3,3.0368,-3.6546831467500014,0.0
mp-1019544,BaZrO3,3.1193,-3.65438136975,0.0003017770000006
mp-7964,YAlO3,3.496499999999999,-3.6543469322499993,0.1020886216000018
mp-755236,HoTiO3,0.0,-3.654020720583334,0.0596479910000145
mp-560293,LiLa5Ti8O24,1.9348999999999992,-3.653553890877193,0.0265136710361861
mp-27307,Na2ZrF6,6.251799999999999,-3.653375623015555,0.0
mp-22013,LaTiO3,0.0,-3.652910446083333,0.0256773587500003
mp-770448,La2Ti3O9,2.621499999999999,-3.6528983708035705,0.0858125637499789
mp-12671,Er2SO2,3.0733,-3.6528522733125,0.0
mp-559427,BaSr4U3O14,2.0759,-3.652795079431821,0.0
mp-558883,Y3Si2ClO8,4.5652,-3.6525192532685713,0.0
mp-769997,La2Ti3O9,3.781,-3.6524756833035714,0.0862352512499793
mp-674999,La2Zr2O7,2.2255,-3.652474188977273,0.2722122695454452
mp-16605,Sr2TmTaO6,3.8822,-3.65177186175,0.0
mp-779599,DyTiO3,0.0,-3.6507363619166666,0.0579386940000024
mp-27649,BaU2O7,2.0533,-3.650301372875,0.0098206065000017
mp-561531,Y2Si2O7,4.5955,-3.64980448625,0.0340352386363562
mp-556176,Li2ZrF6,5.481199999999999,-3.6497539746822216,0.0505765216666649
mp-29094,Nd3PO7,4.27,-3.64907287448593,0.0
mp-1216,YbO,3.4599,-3.6487615506249993,0.0
mp-776418,CaGd2O4,2.9964,-3.648489382142858,0.0877493378571419
mp-3727,Nd3NbO7,2.646,-3.6475087832954554,0.01341425477273
mp-772740,Ba4Lu6O13,2.5346,-3.64706175375,0.0491978133876802
mp-12670,Ho2SO2,3.0336,-3.6455164153125,0.0
mp-29743,Sr5U3O14,2.0422,-3.6454064045454544,0.0
mp-684934,U5O11,0.0,-3.644642873359375,0.110182782499999
mp-754177,CaGd2O4,2.4804,-3.6445942850000006,0.0916444349999992
mp-768409,TbTiO3,0.0,-3.6445919912500018,0.0565819195000063
mp-754191,La2Ti3O9,2.0596,-3.6438874750892856,0.0948234594642638
mp-997590,La8MgAl7O24,0.0,-3.643137785,0.0251644596093729
mp-13775,Gd2Si2O7,3.2104,-3.643093729431819,0.0
mp-997585,La8Al7GaO24,3.458,-3.642697679,0.0188490503839329
mp-560163,Ca4Si2O7F2,4.678,-3.642394498575334,0.0
mp-17956,Ca2UO5,2.1350000000000002,-3.64202979640625,0.0164925971875025
mp-767070,LiLa5Ti8O24,2.1172,-3.6415900640350887,0.03847749787829
mp-761151,Zr6O11,0.36000000000000004,-3.64081285492647,0.0850568430588225
mp-14322,Ba3Tm4O9,3.2829,-3.640647840703125,0.0
mp-754240,CaSm2O4,3.8425000000000002,-3.640637331428571,0.0765676155357155
mp-1019546,BaY4Si5O17,4.8104000000000005,-3.640567129675924,0.0
mp-7739,Ba2ZnF6,4.732399999999999,-3.639997011348889,0.026791781111104
mp-21794,Sm2Si2O7,4.7966,-3.639944783068183,0.0147684659090927
mp-760440,Sr2U4O11,0.0,-3.639842310220589,0.0913765997269084
mp-23622,Sm3Si2ClO8,4.4572,-3.638735833268573,0.0
mp-765013,Zr9VO20,1.714,-3.6374179081666655,0.0609073464999969
mp-984723,DyAlO3,2.947399999999999,-3.636832872083333,0.1416450684000008
mp-756922,Ho2SO2,2.8694,-3.6366759723125,0.0088404430000004
mp-12669,Dy2SO2,3.0076,-3.636650131979165,0.0
mp-557492,LiLa5Ti8O24,2.0496,-3.6359476392982457,0.0441199226151329
mp-31115,Er3GaO6,3.5359,-3.63584860225,0.0071793063499967
mp-560110,BaUTiO6,1.9643000000000002,-3.6350466112962967,0.0
mp-13816,Cs2NaErF6,6.863899999999999,-3.6350136057139992,0.0
mp-16981,Sm5Si3O13,0.0,-3.6349773894642863,0.0364117721651791
mp-686019,Y2Ti2O7,2.5848,-3.634780264280304,0.1448808102272689
mp-675716,Mg2Zr5O12,3.8874,-3.6345312963157896,0.037007361052634
mp-674513,Dy3TaO7,2.0598,-3.634291409886364,0.2499602686363627
mp-754942,SrSm2O4,3.5881,-3.634194098571428,0.0204361783928561
mp-861179,Zr7VO16,1.762,-3.6340368575,0.0305647577083387
mp-768320,LiLa5Ti8O24,1.9374,-3.633823114824561,0.046244447088819
mp-685608,K2UF6,0.34499999999999903,-3.63366599246,0.0
mp-17315,Zr3Tl2OF12,4.2570000000000014,-3.6335348708627784,0.0
mp-18391,Sm2Si2O7,4.7617,-3.633024165795455,0.021689083181819
mp-756365,CaCeO3,2.337299999999999,-3.63253334125,0.0591959414999987
mp-558842,Sm7BP2O17,4.788600000000001,-3.631838904596561,0.0
mp-753891,ZrTiO4,2.8427000000000002,-3.631832611944444,0.0441927845833323
mp-542469,Gd2Si2O7,2.7790999999999992,-3.6318269989772745,0.0112667304545457
mp-22428,SrCeO3,2.2876,-3.63160640775,0.0084326509999943
mp-769819,La6WO12,3.462799999999999,-3.6314854918421062,0.0
mp-18471,Sr2UO5,2.1693000000000002,-3.6306075095312496,0.0
mp-674341,Sc3TaO7,2.6921,-3.6300077785227263,0.1835628567045528
mp-510278,GdTiO3,0.0,-3.629136451083333,0.0262180425000106
mp-780432,La3Al5O12,3.794799999999999,-3.62881268275,0.0335633642499999
mp-375,UO3,1.6163,-3.6286202609375007,0.0
mp-754414,SrSm2O4,3.524599999999999,-3.6285518667857137,0.0260784101785702
mp-676311,Nd2Zr2O7,2.362999999999999,-3.627666425795456,0.2328206918181799
mp-35612,PuOF,0.0,-3.627426641438333,0.1048015083333346
mp-4355,YTiO3,0.0,-3.627381913583334,0.0587337349999597
mp-15225,Nd2Si2O7,4.8256,-3.6266557673863633,0.0
mp-558954,Na2Sr2Al2PO4F9,5.8328,-3.626564689190263,0.0
mp-13815,Rb2NaErF6,6.4981,-3.6265246597140006,0.0
mp-768175,Dy2SO2,2.8613,-3.6262259429791657,0.010424189
mp-5913,Pr2Si2O7,5.1705,-3.625000961704545,0.0
mp-545404,SrGd2Al2O7,2.6254,-3.6249978815625017,0.0294428910416524
mp-557203,SrZrO3,3.3637,-3.62480517375,0.0547576699999989
mp-3323,SrZrO3,3.2114,-3.6246419347500014,0.054920908999998
mp-530524,Zr3TlF15,3.4196,-3.624629240939474,0.0
mp-31114,Ho3GaO6,3.5583,-3.62438560925,0.0042760098499972
mp-5594,Sc2Si2O7,4.2797,-3.623989869886364,0.0
mp-12668,Tb2SO2,2.9772000000000003,-3.623853190645834,0.0
mp-769780,Gd6WO12,2.7825,-3.623752622894736,0.0
mp-1959,PuO2,0.0,-3.623460259791668,0.0
mp-556771,Nd2Si2O7,5.0399,-3.6234009601136368,0.0032548072727269
mp-676725,Lu3NbO7,2.095399999999999,-3.6233756385227256,0.2203556826136115
mp-772408,Ba4Tm6O13,2.529,-3.6230153863586967,0.0515164671739114
mp-14963,Pr3NbO7,2.659599999999999,-3.622557264886364,0.0029681381818171
mp-776167,CeAlO3,0.0,-3.6216546472500006,0.0003016084999991
mp-18130,Nd2Si2O7,4.6637,-3.6209879028409087,0.0056678645454564
mp-641117,La5Ti4FeO17,1.4488,-3.6195891556635806,0.0225628248148144
mp-761840,Zr5Ti7O24,3.054599999999999,-3.619322025601853,0.0305043015972152
mp-15317,Rb2NaHoF6,6.479699999999999,-3.619309356714,0.0013000020000033
mp-706869,La2ThTa(ClO2)3,4.145300000000001,-3.6192782658164098,0.0
mp-761153,U6O11,0.0,-3.6191626931617655,0.0438214644117689
mp-3408,CeAlO3,0.0,-3.61816322475,0.0037930310000007
mp-3160,Pr2Si2O7,4.8385,-3.616912887386365,0.0080880743181754
mp-559764,Nd3Si2ClO8,4.3816,-3.616203658982857,0.0
mp-12626,K2SrBe2F8,7.162599999999999,-3.615867842270769,0.0024385303846159
mp-676802,K2HfF6,2.7355,-3.61557646708963,0.138254767592592
mp-6059,Cs2KYF6,6.464,-3.615296559964001,0.0
mp-14853,Ba3Er4O9,3.2722,-3.6151765550781256,0.0
mp-17143,BaGd2O4,2.7986,-3.614597241428573,0.0
mp-754761,Sr2HfO4,3.868,-3.613543825,0.0063708775000002
mp-560378,Ca3Ta4(O6F)2,3.8739,-3.6135175236847616,0.0
mp-557458,NaZr2CoF11,3.2763,-3.613205074206,0.0
mp-13230,K3YF6,6.4613,-3.612909491464,0.0
mp-16461,Gd2Si2O7,2.875099999999999,-3.6129091426136366,0.0301845868181835
mp-4731,K2UF6,0.065599999999999,-3.612904610793334,0.0207613816666585
mp-31113,Dy3GaO6,3.585199999999999,-3.6121010557500015,0.0012047717999976
mp-554303,La3U(ClO2)3,1.5601,-3.6119367390215382,0.0
mp-29890,Th2AuF11,2.3115,-3.611573587363572,0.0
mp-18566,LaSnF7,5.203,-3.611156288981112,0.0
mp-8315,LiSmAlF6,0.0,-3.610774276626666,0.2476918525925935
mp-560478,BaY2Si3O10,4.8148,-3.6106671829687498,0.0
mp-12355,Sr2YTaO6,3.844999999999999,-3.6106550585,0.0
mp-6255,Ca3Sc2(SiO4)3,4.1025,-3.6102407873750018,0.0
mp-754211,SrLa2O4,3.7880000000000003,-3.6102044857142856,0.0489689649999984
mp-8020,LaTiO3,0.0,-3.6099919040833335,0.0685959007499992
mp-554235,La2Hf2O7,0.0,-3.6098715389772735,0.447902281363632
mp-1020706,SrY2Si3O10,4.931599999999999,-3.609789319843751,0.0036640548958342
mp-676461,Ca2La2MgTi3O12,2.014900000000001,-3.60960539925,0.0286702019999989
mp-860957,Zr5Ti7O24,2.7677,-3.6095751932407407,0.0402511339583266
mp-13925,Cs2NaYF6,6.865399999999999,-3.609298915464,0.0
mp-685632,Ba7U7O24,0.0,-3.609213665526316,0.0516602537594064
mp-13595,Rb2UF6,0.0413,-3.6091202691266666,0.0
mp-13000,Ba2HoTaO6,3.447999999999999,-3.6088612982500017,0.0
mp-7012,KRb2YF6,6.383100000000001,-3.6081719159639993,0.0
mp-34580,Er3Pb4F17,5.0743,-3.607809284592917,0.0
mp-694982,Sr2La2MgTi3O12,1.8857,-3.6076768752499992,0.0306588598750003
mp-22416,SmTiO3,0.0,-3.607542475083335,0.0489358857499979
mp-5323,CeAlO3,0.0,-3.60725811675,0.014698139
mp-2616,NpO2,0.0,-3.6069604370833326,0.0
mp-8396,CsEuF3,0.0,-3.606761364713998,0.0
mp-752581,Sr2HfO4,3.9466,-3.6067573282142855,0.0131573742857149
mp-14023,Na3Li3Sc2F12,6.8685,-3.606594176714,0.0
mp-695254,Ca10La6Mg3Ti13O48,1.916599999999999,-3.6060426919583337,0.0149275823124988
mp-7013,Ho2Be2SiO7,5.0869,-3.605324431562501,0.0
mp-771838,La4Al6O15,4.3641,-3.60509054035,0.0719696764000001
mp-3187,BaCeO3,2.2207,-3.6048893117500014,0.0
mp-767035,Zr7VO16,1.925,-3.60429192875,0.0603096864583374
mp-755420,SrSm2O4,2.8981,-3.6041463278571433,0.0504839491071411
mp-23432,BaClF,5.4426,-3.60397968315,0.0
mp-17004,UOF4,1.9952999999999992,-3.603711441418333,0.0961298816666689
mp-3316,BaCeO3,2.2112,-3.60355329875,0.001336013000003
mp-686467,Sr14La6Mg3Ti17O60,1.864299999999999,-3.6035166518833313,0.0071546136249978
mp-23025,LaClO,4.069,-3.6034735148366672,0.0
mp-752555,SrLa2O4,3.4421,-3.6029467225,0.056226728214284
mp-695571,Na5Ca6Nd5Zr16O48,3.6137,-3.602768617781249,0.0067782479062508
mp-674332,U17O31,0.0,-3.602357475598957,0.0536892119791705
mp-560830,Nd3Si2ClO8,5.2091,-3.6022574575542854,0.0139462014285705
mp-768305,Sr2HfO4,3.6822,-3.601310437142857,0.0186042653571441
mp-865239,UF3,0.0,-3.6010834571425003,0.1289853858333334
mp-555109,TmNbO4,3.4278,-3.600915587500001,0.0
mp-6319,Na2MgAlF7,6.656,-3.60081600803,0.0
mp-756810,Sr3Ta4(O6F)2,3.2944,-3.5994722608276186,0.0159571483333369
mp-4511,La2SO2,3.0609,-3.5985772753124987,0.0
mp-14323,Ba3Ho4O9,3.2561,-3.5982133563281256,0.006817370312496
mp-644492,LuNbO4,3.3963,-3.598082100833332,0.0
mp-39167,CaScAlSiO6,4.8888,-3.5980666032500004,0.0012942499791641
mp-13926,Rb2NaYF6,6.4704,-3.5975593914640007,0.0
mp-12894,Y2SO2,2.993499999999999,-3.5975509203125,0.0
mp-555272,Na5Zr2F13,6.1043,-3.5968469357735,0.0
mp-22957,SrClF,5.9367,-3.5968458848166662,0.0
mp-31112,Tb3GaO6,3.605399999999999,-3.5967475497500003,0.0
mp-13613,K2Mg2Be3F12,7.013199999999999,-3.596557456146316,0.0
mp-561197,TaF5,5.5329999999999995,-3.5958110551583333,0.0
mp-15003,Ca3HfSi2O9,4.6779,-3.5957999537500003,0.0
mp-554826,Pr3Si2ClO8,5.1502,-3.5951331330899987,0.0
mp-30273,AcClO,4.4451,-3.594246979003334,0.0
mp-28274,Ba3In2F12,4.5144,-3.5941141314282365,0.0
mp-555489,LiY6B3O14,4.665100000000001,-3.593755151249999,0.012403457361108
mp-755558,BaLa2O4,3.5481,-3.593544255,0.0
mp-6058,K2NaScF6,6.757299999999999,-3.5923129052139986,0.0
mp-34579,Na3HfF7,6.246399999999999,-3.5921324293936365,0.0
mp-6500,KRb2ScF6,6.5976,-3.592018813714,0.0
mp-5960,Ca3UO6,2.1498,-3.591848801750001,0.0376878714999939
mp-685070,Zr19O40,0.0373,-3.591565729661017,0.1117144281779634
mp-510605,Gd2Zr2O7,0.0,-3.591486078977273,0.2748378968181804
mp-6204,Cs2NaScF6,6.799099999999999,-3.5914701412140007,0.0
mp-7886,Cs2RbYF6,6.2119,-3.591201411964001,0.0
mp-997588,La8Al7BO24,3.5096,-3.591002316416666,0.1196407820000065
mp-754614,LuNbO4,3.276599999999999,-3.5906820258333325,0.0074000749999942
mp-17960,BaSm2O4,3.1428,-3.5906715175,0.0
mp-9348,KRb2ScF6,6.5217,-3.589689975714,0.0023288379999977
mp-14551,Sr2CaUO6,2.2051,-3.5895545117500007,0.0
mp-556639,DyNbO4,3.4638,-3.5890119502777784,0.0
mp-554835,KZrVF7,2.4296,-3.5883964485829996,0.0
mp-555679,Na2UF6,0.30660000000000004,-3.588232451904444,0.0
mp-9771,UTi2O6,0.0,-3.5874486223148163,0.016433257222225
mp-6613,Ba2YTaO6,3.362,-3.5871288340000005,0.0015961040000007
mp-38916,Y3Pb4F17,5.0725,-3.5868763044887504,0.0
mp-752656,BaLa2O4,3.1295,-3.5858619446428577,0.0076823103571417
mp-17418,SmSnF7,4.9483999999999995,-3.5857133100922214,0.0
mp-772295,TmClO,4.5259,-3.5855654831700017,0.0
mp-12647,TbNbO4,3.5134,-3.5849327422222235,0.0
mp-6655,Y2Be2SiO7,5.1583,-3.5847893740625008,0.0
mp-9540,SmMgF4,0.0,-3.58460976121,0.3561305525000007
mp-562066,BaCrF5,3.5888,-3.5844892169214284,0.0
mp-753858,TiOF2,3.897399999999999,-3.5844738769491675,0.0529588440624975
mp-27761,Li3ThF7,5.685799999999999,-3.584470204848181,0.2063116953030306
mp-7560,LuBO3,5.3023,-3.584141697083333,0.0
mp-3119,NdTiO3,0.0,-3.5832771660833327,0.0421273000000006
mp-13229,K3GdF6,4.5665000000000004,-3.582403889714,0.003544463999999
mp-997589,La8Al7InO24,3.3008,-3.5819993047500005,0.059557929624999
mp-10523,CeSiO4,1.447799999999999,-3.5817252441666665,0.0331679149999981
mp-752533,SrLa2O4,2.7904,-3.5815766728571425,0.077596777857142
mp-755142,La2MgO4,3.375400000000001,-3.58138193142857,0.0699436850000001
mp-752433,LiLa3Ti4O12,0.0,-3.5810514870833345,0.0273998924687379
mp-556850,BaMnF4,3.2598,-3.580796668453333,0.0035628525000017
mp-756246,NdZrO3,0.0509,-3.5806766332500004,0.0859582367749975
mp-8557,BaPaO3,0.0,-3.5806607147500005,0.0
mp-695403,Ba2La2MgTi3O12,1.9234,-3.5806594585833342,0.0265434690416697
mp-8974,Ba3Dy4O9,3.240999999999999,-3.5799622636197928,0.0008747687499992
mp-13799,K2NaYF6,6.2547,-3.579035359464,0.032154198749998
mp-38807,Y7ReO14,0.9237000000000001,-3.578799452272728,0.0405757076136286
mp-676341,Na2UF6,0.24920000000000003,-3.5779483307933333,0.0102841211111135
mp-554722,Y3GaO6,3.6807,-3.5777117819999997,0.0046904245000014
mp-18183,YSnF7,4.8968,-3.5775513020366674,0.0
mp-554964,Pr7BP2O17,4.6897,-3.5773933246891536,0.0
mp-556017,Th2P2O9,5.073399999999999,-3.577282861341576,0.0
mp-752713,HoBO3,5.4365,-3.577152184416667,0.0
mp-4820,ZrSiO4,4.4661,-3.576829886666668,0.0
mp-757504,ZrTi2O6,2.652799999999999,-3.5761562345370383,0.047471023333335
mp-676389,Yb2Zr8O19,0.0,-3.5756377342672403,0.0999595658189669
mp-756106,TbCeO4,0.156399999999999,-3.575159144722221,0.0648643508333322
mp-557028,Sr2LaTa3O11,3.0179,-3.5748919761029403,0.0198253292646857
mp-756052,Ca3Zr2O7,3.3234,-3.5748121065625007,0.0467407562499975
mp-8945,YSnF7,4.7535,-3.5738207350922218,0.0037305669444434
mp-752537,Sr2HfO4,3.4581,-3.573472175714285,0.0464425267857144
mp-766207,Zr6Nb2O17,2.7757,-3.5730230654500006,0.0417483375999978
mp-22246,EuTiO3,0.0,-3.5726764450833333,0.0013087849999955
mp-5295,LaNbO4,3.9345,-3.572357039166667,0.0
mp-756837,Ca4Zr3TaO12,0.0,-3.57194918475,0.0328073034499958
mp-561543,BeF2,7.9632,-3.570257127737777,0.0
mp-756457,ErNbO4,3.4705999999999992,-3.569773179166667,0.0244032600000014
mp-562542,Cs4NaHf3H2F19,6.8635,-3.569769618960345,0.0
mp-15951,BeF2,8.3241,-3.5697384102377767,0.0005187175000003
mp-696965,Cs3TbF6,5.7503,-3.5695729730473333,0.0
mp-531661,Nd10Ti12O39,1.172,-3.5694027795696734,0.1588811488524637
mp-4651,SrTiO3,1.848799999999999,-3.569174561083332,0.0
mp-4019,CaTiO3,2.3238,-3.569054293333333,0.0
mp-556106,SrB2F8,8.145199999999999,-3.5689816021912124,0.0
mp-559400,BeF2,8.085,-3.5678523960711117,0.0024047316666662
mp-4805,Gd2SO2,2.038999999999999,-3.5678250373125,0.0
mp-756888,La2(SiO3)3,4.3073999999999995,-3.567320112232144,0.034703314464286
mp-753726,TbCeO4,0.0,-3.5666920738888885,0.0733314216666656
mp-9275,Th2Ta6O19,3.2316,-3.5658906743981467,0.0192815842592626
mp-760476,LiU3O8,0.132299999999999,-3.565785029166667,0.0075586020833409
mp-3448,KMgF3,6.953699999999999,-3.5651758457140006,0.0
mp-754808,La2MgO4,2.4898000000000002,-3.5651089021428564,0.0862167142857135
mp-753418,SrNd2O4,3.6022,-3.564987396428571,0.0324388125000005
mp-5663,BaCeO3,2.308,-3.5644093107500003,0.0404800010000023
mp-7310,ZrPbF6,5.0238,-3.5642195396425005,0.0
mp-754359,Y6TeO12,2.725399999999999,-3.5636393605263184,0.0
mp-558430,BaB2F8,8.043,-3.5633084720775754,0.0
mp-769844,La3Ti3CrO12,0.33080000000000004,-3.5630548518421064,0.0449518796052625
mp-557448,Ba2CaUO6,2.1961,-3.5623551162500013,0.0
mp-771055,EuZrO3,0.2651,-3.562322473750001,0.0
mp-755597,Ca2CeO4,2.161,-3.562080423571428,0.0210728042857129
mp-6873,CaAlSiO4F,5.2058,-3.5612741370237497,0.0288625030468754
mp-1020714,Y4AlSiNO8,3.7659000000000002,-3.561212045992001,0.0139750872416701
mp-558281,SrCrF4,3.6107,-3.56087716746,0.0
mp-14192,Na2UF6,0.0,-3.560289736348889,0.0279427155555573
mp-3970,K2TiF6,4.7349,-3.5601821115340733,0.0
mp-777760,TbCeO4,0.0,-3.5601132001388893,0.0799102954166652
mp-554702,NaZr2NiF11,5.6362,-3.5600800882060004,0.0
mp-37473,TiOF2,1.8523,-3.5599491300741675,0.0774835909374997
mp-768382,La2Al4O9,3.710599999999999,-3.5597274850833345,0.0781749456666656
mp-15059,GdSnF7,4.4455,-3.5593307845366664,0.0
mp-558491,BaAlBO3F2,6.0642,-3.559026517224583,0.0
mp-10510,BaAlBO3F2,6.0437,-3.558949069724583,7.744749999005762e-05
mp-686543,NaSm9Si6(SO12)2,3.066,-3.55886511203869,0.0
mp-755462,PrHfO3,0.0,-3.5584839017499994,0.1343135021249999
mp-755405,SrNd2O4,3.421599999999999,-3.557807123928572,0.0396190850000008
mp-559176,La4Ti5(Si2O11)2,0.0,-3.5574993363095246,0.0119749170000051
mp-760461,LuBO3,4.2791,-3.5554818590833355,0.0286598379999993
mp-14152,SmNbO4,3.5614,-3.5549305562499995,0.0
mp-976271,KTi2F7,0.0,-3.5544905216663336,0.0331039033749682
mp-754092,ScTiO3,0.0,-3.553832620583333,0.0976229248749689
mp-15751,Ba3Y4O9,3.4394,-3.5537637194531246,0.014333357812502
mp-686040,MgU2O6,0.0,-3.553740463055555,0.0286846533333431
mp-677222,Ba3La3Ti4NbO18,2.408299999999999,-3.553504908591953,0.0665736040517277
mp-752726,BaLa2O4,2.683,-3.552239811428572,0.0413044435714269
mp-15004,Ca3ZrSi2O9,4.4537,-3.5517970022500007,0.0
mp-676456,Sr6La2Ta3Al5O24,3.5058000000000002,-3.551678139,0.0
mp-684801,CaLaMgTaO6,4.1303,-3.5514396807499997,0.0
mp-677136,LiCa3Zr3TaO12,3.939399999999999,-3.5514251052499985,0.00677890320833
mp-754363,Ba2HfO4,3.437,-3.5511261757142853,0.0
mp-556108,DyTiClO3,3.163799999999999,-3.550930359223889,0.0
mp-3956,Sr3UO6,2.207499999999999,-3.5505603427500008,0.0
mp-3442,CaTiO3,2.2434,-3.5505397870833333,0.018514506249998
mp-754113,TmClO,5.2921,-3.550532024836668,0.0350334583333333
mp-7603,Li2TiF6,4.3715,-3.5505129420896293,0.0
mp-754409,HoBO3,5.0979,-3.550308139083333,0.026844045333334
mp-7954,Nd2O3,1.5703,-3.54986550775,0.2494504865000007
mp-532768,YZr5Si5PO24,3.9082,-3.5488950876554237,0.015769658055559
mp-5598,Sm2SO2,2.8996,-3.5488908403125,0.0
mp-29205,YBO3,5.1669,-3.54805191225,0.0
mp-6280,Al2Si(O2F)2,5.6953000000000005,-3.547801459153334,0.0
mp-558159,BaTi2O5,2.8003,-3.547284111197916,0.0
mp-753948,PrTiO3,0.0,-3.545651414083334,0.0294148571249959
mp-705614,Sr5Fe3F19,3.125099999999999,-3.5454446910225927,0.06440064430556
mp-757365,LaTa3O9,2.3038,-3.544933668557692,0.0
mp-850193,HoBO3,5.367,-3.5438079025833344,0.0333442818333331
mp-12315,DyBO3,5.3594,-3.5435745434166668,0.0
mp-27690,Sr3Zr2O7,3.0929,-3.543085441979167,0.0386672187499979
mp-9308,Li4ZrF8,5.9638,-3.5428359853476934,0.0
mp-21858,UO3,1.9038,-3.5421297796874995,0.0864904812500011
mp-621825,Y6Pb8OF32,4.0785,-3.541780256049574,0.0124547589148944
mp-560512,Sm2EuBeO5,0.5827,-3.541730663472221,0.0026189276388883
mp-557453,La2Zr2O7,0.074699999999999,-3.5416958985227267,0.3829905599999925
mp-294,UO3,1.8558000000000001,-3.5414052203125,0.0872150406250007
mp-768585,HoTa3O9,3.258,-3.5405877024038457,0.0012349192307503
mp-754701,CaTiO3,3.570599999999999,-3.5401499320833336,0.0289043612499977
mp-772798,BaLa2O4,3.356999999999999,-3.540013434285714,0.0535308207142843
mp-5884,TmPO4,5.939399999999999,-3.5395581488492054,0.0
mp-9077,Nd2Be2SiO7,5.0243,-3.539486997812499,0.0
mp-865726,CsBa2Cr2F11,3.4923,-3.5394524523806243,0.0