mpid,formula,BG,FE,e_hull
mp-771293,Mg3WO6,3.9264,-2.7335690740000005,0.0346089767499995
mp-9628,KCdF3,3.3579,-2.733533053214,0.0
mp-699248,Sr2B5H2O11,0.9298000000000001,-2.733437342216167,0.0368681594687467
mp-743629,K4Na2FeH3F12,4.0785,-2.7334287322790907,0.0284397040909043
mp-39933,TaFeO4,2.2745,-2.7332423300000013,0.0355615008333316
mp-565447,ThV4O12,2.5723,-2.7332138289705883,0.0
mp-555606,Na10Be4Si4O17,3.9402999999999992,-2.732869886321428,0.0026916380714174
mp-767700,LiVCrP2(O4F)2,1.2648,-2.7328694119047,0.01115362425001
mp-699377,MnSiO3,2.4641,-2.732840318316998,0.0782788683750013
mp-627867,Si4H2O9,2.037,-2.732812904232667,0.1731241204999989
mp-690470,NbCrO4,0.544999999999999,-2.7326048658333333,0.0273287858333812
mp-776074,CaGeO3,3.2925,-2.7325988000833337,0.0299729113333375
mp-777685,Ti3Fe2Cu(PO4)6,0.12559999999999902,-2.7325237846825403,0.0386451436358221
mp-19534,Tb2(MoO4)3,3.5663,-2.7324617189215683,0.0
mp-559276,AlBPbO4,3.0814,-2.732458153095237,0.0023499480357145
mp-769028,Si3Sb2O9,4.1105,-2.732456397589285,0.0100613923214298
mp-989567,Cs2RbTlF6,3.7422,-2.732442172214,0.0
mp-973655,LuSiO3,0.0,-2.73235523275,0.8765454669999926
mp-772216,LiNb8O14,0.0,-2.7321201857608703,0.0356040207971002
mp-37614,Al2NiO4,3.4756,-2.731826479285714,0.0
mp-19048,BaWO4,4.8822,-2.731773408333334,0.0
mp-761968,Li4FeSi2O7,3.415,-2.7313074131249997,0.0109740723214279
mp-695452,K2Al11Si13(Ag3O16)3,1.2822,-2.7312239893975905,0.1281702568072331
mp-27525,K3TlF6,3.7843,-2.731204755464,0.0
mp-763420,Ti2V3Cr(PO4)6,0.0,-2.7311963514417985,0.0819522318865662
mp-554029,NaMg4V3O12,3.321599999999999,-2.731069046499999,0.0
mp-18946,VBO3,1.8227,-2.7307601230833343,0.0
mp-778733,Mg3WO6,3.5908,-2.730657017749999,0.0375210330000008
mp-762824,Li2MnPO4F,3.6651000000000002,-2.7306316014161385,0.0415199498611107
mp-540182,LiVP2O7,2.1508,-2.73060452590368,0.0143424890909047
mp-782821,LiV2(OF)3,0.896,-2.7305547491466657,0.0971532678395119
mp-541041,NdAg(PO3)4,3.7001,-2.7305144151322764,0.0
mp-22992,TiClO,0.0,-2.7304898570588896,0.0269239005555563
mp-1032931,HfMg6AlO8,0.0,-2.7303844990625,0.3435163407343769
mp-765547,Li3V(OF)2,0.46069999999999905,-2.730297914985,0.1045763343749976
mp-25188,Nd2(WO4)3,3.9463,-2.7302666611764703,0.0251876105882402
mp-11715,MgSn(BO3)2,3.622999999999999,-2.730213655583333,0.0
mp-13182,Li2TiGeO5,3.4593,-2.7301486453240744,0.0
mp-782047,Ca9La5Cl33,3.6799,-2.7300998114378734,0.0823681199999999
mp-863888,Li2Fe(SiO3)2,2.624,-2.73006048689394,0.0760035417424171
mp-542512,NaPr2RuO6,0.47300000000000003,-2.730060109750001,0.0
mp-758673,LiNb2O4,0.0,-2.730017058571428,0.0594028335714309
mp-695157,KBaIn2(PO4)3,3.453499999999999,-2.7299577135808266,0.0
mp-853187,LiTiMnO4,0.0216,-2.729953693946667,0.0322842529613538
mp-769890,NbVO5,1.890299999999999,-2.7299497648214293,0.0
mp-760468,LiSi2BiO6,3.3344,-2.7297627612499995,0.0579317723749968
mp-31488,Li3NbO4,3.7757,-2.729748163125,0.0
mp-772332,Nb3Co(PO4)6,2.1091,-2.7296742376050416,0.0036870813235303
mp-11905,LiNd2IrO6,0.0,-2.729671895250001,0.0
mp-2706,SnF4,3.0953,-2.7296404559519987,0.0
mp-27455,YCl3,4.9300999999999995,-2.7293915843199996,0.0
mp-755183,DyTlO2,1.482399999999999,-2.7293776610416667,0.0974959162499997
mp-865973,PHPb2F10,5.4791,-2.7293402670439457,0.0
mp-775564,Li2TiV3O8,1.2315,-2.7290735333333336,0.0056396167857304
mp-757639,LiTi(PO3)4,0.1655,-2.729067476613757,0.0646968756507897
mp-763391,Li2Co(SiO3)2,2.9727,-2.729000917954546,0.0119006895454436
mp-757793,Li2Nb(PO4)2,0.31670000000000004,-2.7288840447069593,0.0944024053461554
mp-776894,NaTiO2,0.10899999999999901,-2.728852175416667,0.0814560257638925
mp-850469,LiCrSiO4,2.8981,-2.7287863382142867,0.0587343675000022
mp-772395,LiV(OF)2,2.2105,-2.728781841646667,0.0
mp-1035479,RbLiMg14O15,1.2721,-2.728592099314515,0.1961009812499998
mp-763945,V4O5F7,0.5948,-2.72849801809875,0.0464885587500178
mp-766084,Li7Nb12O24,0.0,-2.728348474883721,0.043854397906978
mp-559007,Na2CrCuF7,0.008399999999999,-2.7282930571209087,0.0072604271212108
mp-1443,Sn3F8,3.1589,-2.7281748858654553,0.0
mp-765861,Li3V3O5F3,1.072,-2.728132436772857,0.0756265283928732
mp-765956,LiV(OF)2,2.26,-2.7281101812299995,0.0006716604166836
mp-707540,ZrP2(HO4)2,4.3746,-2.728067359110037,0.0
mp-755364,NdSeO,0.337099999999999,-2.7279460091145844,0.0374049201171855
mp-560632,NaGaSiO4,3.8215,-2.727887620476192,0.0
mp-684119,LiTi(PO3)5,1.4422,-2.727748121858766,0.027296777878786
mp-699371,Al2NiO4,3.076200000000001,-2.7277383891071434,0.0040880901785671
mp-1009129,MgO,3.0152,-2.727719665625,0.3375146600000001
mp-560766,Ba4Nd2Cu2O9,0.0,-2.727523521544118,0.0115033995588236
mp-772351,NbVO5,2.0402,-2.727456471964284,0.0024932928571441
mp-578938,La2(MoO4)3,3.6508000000000003,-2.727327428235294,0.0
mp-12159,Na2PO3F,4.4907,-2.727119892397891,0.0173271560119072
mp-19426,CaWO4,4.3443,-2.727064415,0.0
mp-630403,Ca2MnGaO5,0.0,-2.727013114967777,0.0
mp-765877,Li5NiOF5,1.7733,-2.726932883516666,0.072311973333341
mp-25018,Ca2MnGaO5,0.0,-2.726929578578888,8.353638888891624e-05
mp-686016,KSn2F5,2.9857,-2.7269110524104168,0.0018741619270885
mp-558122,GdSClO4,1.9163000000000001,-2.726907227474643,0.0
mp-1034744,NaMg14BO15,1.9427,-2.72683039420699,0.2149469495662606
mp-6951,RbCdF3,3.1745,-2.726660970714,0.0
mp-25143,K2RbGdV2O8,3.385199999999999,-2.7265874892857136,0.0
mp-774763,Ti3Sb2(PO4)6,2.1441,-2.726446149959184,0.0931025078571341
mp-34234,Al2NiO4,3.065299999999999,-2.7264296371428567,0.0053968421428649
mp-763624,Li2Fe(SiO3)2,2.8795,-2.725949536136364,0.0801144924999928
mp-558672,Si3Bi2O9,3.5103,-2.725928380089286,0.0119726830357151
mp-23612,K3B6BrO10,5.212000000000001,-2.7258963531249987,0.0
mp-8075,NaBe4SbO7,3.385899999999999,-2.7256448649038463,0.0
mp-699888,Na2TiFe(PO4)3,2.4985,-2.7254821496553903,0.0432816409273995
mp-743949,Na3VSi4(HO6)2,2.2359,-2.725393335101818,0.0035364540909377
mp-620364,CaSmCuClO3,0.0,-2.725371122787144,0.0042685838392859
mp-764255,LiMn2OF5,0.854599999999999,-2.7253025587911113,0.0411850329166689
mp-995192,RbBaSiHO4,3.907799999999999,-2.7252778854525,0.0191541347569428
mp-770122,Li8TiMn3(PO4)6,1.1916,-2.7249903185266207,0.041618951011908
mp-765868,TiWO4,0.5586000000000001,-2.7249223780555565,0.0505874068055547
mp-25165,NaVP2O7,2.110999999999999,-2.7247948588582243,0.0
mp-763701,LiCrSiO4,2.0247,-2.724691193571428,0.0628295121428603
mp-758240,LiTi(PO3)4,0.22690000000000002,-2.724664008280424,0.0691003439841226
mp-565335,GdMoClO4,2.4125,-2.7244707418942857,0.0
mp-676666,Rb2CeO3,2.1298,-2.7243911214583334,0.0
mp-680254,Yb7Cl15,0.0,-2.724334216199999,0.0266342238290917
mp-558495,SrFe2(PO4)2,3.6598,-2.7243307233608065,0.0
mp-585483,SiMoP3O11,4.337300000000001,-2.724286132377233,0.0
mp-767449,Li2VSiO5,1.608199999999999,-2.7242834677777776,0.0514281818055719
mp-11166,BaZnCO3F2,4.7744,-2.7242621448287507,0.0
mp-690094,Mg3V2O6,1.194599999999999,-2.7242441606818177,0.1196334945454502
mp-764141,NaVP2O7,2.141,-2.7242036190854964,0.0005912397726781
mp-765102,LiTi(PO3)4,0.1854,-2.724134700224868,0.0696296520396781
mp-698018,LiAlSi2H2O7,3.9817,-2.724073705845385,0.0923463303632461
mp-25562,Li2MnPO4F,3.6757,-2.7240066100272484,0.0481449412500003
mp-532789,Li6Nd6Sb(TeO8)3,0.0,-2.723857255,0.0106702143281287
mp-753958,GdAsO4,2.6976,-2.7238088150000004,0.0957953850000006
mp-735822,Fe3Pb8F24,1.679599999999999,-2.7236461345302865,0.0019466789999942
mp-684108,Li2Ti(PO3)5,0.25979999999999903,-2.7236417832996884,0.0540081094585955
mp-767169,Mn4OF6,1.7613,-2.723562088839091,0.0843362795454547
mp-558580,Na2Zn(SiO3)2,3.6116,-2.7233004225,0.0077898936363514
mp-684066,Li2Ti(PO3)5,0.22190000000000001,-2.7232920569953416,0.0543578357629428
mp-760377,Li2Nb(PO4)2,0.0,-2.7232860081684973,0.1000004418846165
mp-1018025,LuAgO2,2.1527,-2.723025908125,0.0
mp-579542,Th(MoO4)2,3.598099999999999,-2.722927847474748,0.0018700549116257
mp-780025,Li4Ti3V3(SnO8)2,0.5294999999999991,-2.722849014642857,0.0168218335491001
mp-767027,Li4FeSi2O7,3.441999999999999,-2.722624333482142,0.0196571519642851
mp-559635,Sr3CaIrO6,0.0,-2.7224749652272724,0.0
mp-694970,SrLa7Cu4(SnO6)4,0.0,-2.7220498497500003,0.047791460749984
mp-705491,SrLaMnFeO6,0.0,-2.722015380846,0.0
mp-558943,LiUAsO6,2.2759,-2.7218104097222215,0.0030017088888891
mp-773192,Gd2(WO4)3,3.2203,-2.7217011382352942,0.0337342925000108
mp-3733,BeTl2F4,4.4409,-2.721514036751429,0.0
mp-779396,LiV6O7F5,1.235199999999999,-2.7213869849842105,0.0801977015497037
mp-775994,Ti3CrCu2(PO4)6,0.0,-2.7213153932936507,0.013463627847214
mp-850180,Li4Fe3OF8,2.6677,-2.721292419266876,0.1045079529687456
mp-27982,PuBrO,0.0,-2.721242574375001,0.0
mp-556855,Ba3Bi(ClO)3,3.9283,-2.7212403681030004,0.0
mp-559142,KLi(PO3)2,5.2914,-2.7211926117440486,0.0
mp-15889,Ba2LaIrO6,0.0,-2.7210941767500003,0.0
mp-757996,LiTi(PO3)4,0.023000000000000003,-2.7209524568915344,0.0728118953730119
mp-772435,Li3Al2FeO6,2.660799999999999,-2.7208448097916675,0.0354792949999991
mp-560829,Na2BeSiO4,2.9149,-2.7208447646875,0.1064806793750001
mp-782695,Li4CoOF5,0.0,-2.720746199290909,0.0736399917045442
mp-552454,SrTaNO2,0.7545000000000001,-2.720699469976002,0.0459313424999798
mp-567027,Y2(MoO4)3,3.5530999999999993,-2.7206071144117647,0.0272263627941491
mp-566656,Sr3V4CdO14,3.165499999999999,-2.7205701851136364,0.0017555703693181
mp-560261,TaBiO4,2.900899999999999,-2.72042620875,0.0
mp-760599,TiSn(PO4)2,1.6575,-2.7204038269047617,0.064971466180518
mp-778623,LiV6O7F5,1.193199999999999,-2.7203350373526307,0.0812496491812915
mp-556390,Rb10Si6O17,3.4663,-2.7203168853409094,0.0007338639141298
mp-558817,Na2FeNiF7,2.764199999999999,-2.7202729984845457,0.0001302136363481
mp-13798,K2NaTlF6,3.6205,-2.720117496713999,0.0
mp-32528,Li3V3(PO4)4,2.0374,-2.7200657789377285,0.0113779957692479
mp-764274,VOF3,3.4012000000000002,-2.719781805964,0.0109718834999998
mp-763730,Li2VPO4F,2.4724,-2.7197610440872486,0.0534798639553963
mp-28414,Nd2GeO5,2.4351,-2.71975750765625,0.5488593537152768
mp-752418,La2Se2O,1.7862,-2.7197537586875,0.0011961832777771
mp-2814,Yb2O3,0.0,-2.719752104250001,0.199257136249999
mp-29195,LiPO3,5.5611999999999995,-2.7196378385357143,0.0
mp-9172,Li4TiO4,4.5573,-2.7194147524074075,0.0
mp-559712,Rb2NaCoF6,0.0,-2.7193006972140004,0.0305060810000012
mp-18308,CaZn2(PO4)2,3.787199999999999,-2.719237031245421,0.0
mp-849986,LiV6O7F5,1.3164999999999991,-2.719215694721052,0.0823689918128707
mp-861696,Li4Ti4Cr5O18,0.0,-2.7191449246505375,0.0948270008422902
mp-764977,Li2FeOF3,2.4855,-2.7191188206885712,0.0915902065873091
mp-557189,LiPO3,5.5752000000000015,-2.718990143469047,0.0006476950666787
mp-771686,NbCrO4,1.0398,-2.718965542500001,0.0409681091667124
mp-617266,SrNb4O6,0.0,-2.718834459318181,0.0251408380302979
mp-8568,Ca4PtO6,2.391699999999999,-2.7187960506818176,0.0020402275757582
mp-9751,Al2Ge2O7,3.4013,-2.718768459431818,0.0
mp-39144,SrLiPrTeO6,3.3073,-2.71850903425,0.0
mp-541176,CsV2P5O16,0.0053,-2.7184496625198418,0.0
mp-686947,EuMoO4F,0.064099999999999,-2.71838570517,0.0
mp-15437,MgP4O11,5.1105,-2.7183716958519346,0.0
mp-18490,Sr2SmNb(CuO4)2,0.0,-2.7182963787500003,0.017764162455359
mp-19584,K3NdV2O8,3.6332,-2.718183802678571,0.0
mp-19552,Al2Co3(SiO4)3,2.9508,-2.7180941695,0.0394038555000015
mp-761623,Li5V(SiO4)2,0.21829999999999902,-2.718026483125,0.0766124925000122
mp-25626,K2VH2OF5,2.2231,-2.717961037676364,0.0
mp-677372,Ti10Bi(Pb3O10)3,0.0,-2.7177080641833324,0.0212160024333343
mp-777083,LiV6O7F5,1.3779000000000001,-2.7176020431421044,0.0839826433918178
mp-775153,Li3FeOF3,3.0904,-2.7173319131025,0.08567338875
mp-18984,Na2ZrNi(P2O7)2,3.7889999999999993,-2.7172303777218616,0.031906620073383
mp-24142,MgAlH4O2F5,5.837,-2.7170764790715385,0.0097674149999997
mp-761411,Li4Ti2Nb3Cr3O16,0.0,-2.716845096190477,0.0932610911607039
mvc-5076,Ca2FeWO6,2.3313,-2.716835870250001,0.0
mp-555623,BaMo2(PO4)3,0.0,-2.7168160777380965,0.0137369309722661
mp-540311,Li3V(PO4)2,2.1261,-2.7168027768707477,0.0303094221428663
mp-755082,Sr3(AsO4)2,3.785999999999999,-2.7167056915384618,0.0
mp-762699,Li5MnP2(O4F)2,1.6278000000000001,-2.7165841707146554,0.0410839123148711
mp-754223,Ta2CuO6,0.0,-2.7165199097222215,0.104746816666676
mp-849669,Li2Mg2MnFe(PO4)4,0.9848000000000001,-2.7164529070515746,0.0097984265384916
mp-767164,Mn4OF8,0.7287,-2.7164181853546157,0.0717691190705185
mp-778769,LiV6O7F5,1.089999999999999,-2.716272517352631,0.0853121691812912
mp-777498,Ti3CrNi2(PO4)6,0.049499999999999,-2.7161773994047627,0.032765192777779
mp-775589,Ti3CuSn2(PO4)6,0.0,-2.7161070857936505,0.0453901448379641
mp-3516,UTeO5,1.8368,-2.715983709107141,0.0043677198214293
mp-4533,Na2SiO3,3.8657,-2.715942377291667,0.0
mp-780138,Li3V2(SiO5)2,1.5817,-2.715893933970587,0.0646525817647036
mp-755731,Ta2Pb2O7,1.6231,-2.7157798862500018,0.0270258272727268
mp-559150,Na9ZrP4ClO16,3.9694000000000003,-2.7156826187303533,0.0
mp-757817,Li2Nb(PO4)2,1.1534,-2.7155169014377276,0.1077695486153862
mp-777089,LiV6O7F5,1.002599999999999,-2.7154822905105256,0.0861023960233886
mp-3822,SrCO3,4.425400000000001,-2.7154688087500007,0.0
mp-753315,Mg3ZnO4,3.1526,-2.715371419999999,0.0328716531249986
mp-510725,SrV3O7,2.3876,-2.715352732613636,0.0053968057386466
mp-13599,NaSn2F5,3.7838,-2.7152414776187497,0.0
mp-9144,LiAsF6,5.1404,-2.7148203152675,0.0
mp-761380,Li3V(PO4)2,2.0582,-2.7147967590136055,0.0323154400000103
mp-16800,Sc2(SO4)3,4.3566,-2.7146584348345595,0.0
mp-771256,Sr3(AsO4)2,3.542399999999999,-2.714608520961538,0.0020971705769232
mp-705293,Li3V2(PO4)3,1.9338,-2.714589211964286,0.0243022967500037
mp-777527,LiV6O7F5,1.0399,-2.7144950031421056,0.0870896833918166
mp-773450,TiCrO4,0.0,-2.7144397236111097,0.072595245416652
mp-774128,Li2TiV3O8,0.006399999999999,-2.7143303383333333,0.0203828117857067
mp-770686,Li3MnAl2O6,2.1234,-2.7142658721633333,0.0692330914583232
mp-30900,TaBiO4,2.9731,-2.714248255416667,0.0061779533333421
mp-767163,Li2VCr(P2O7)2,2.1866,-2.714075727267316,0.0006626618181906
mp-16978,Ba3MgSb2O9,2.6494,-2.7140358604166663,0.0
mp-765056,Li2VCr(P2O7)2,2.177399999999999,-2.713935443479436,0.00080294560607
mp-530449,Ca3(AsO4)2,3.6298,-2.7139346001098903,0.0
mp-1020608,SiP2O7,4.9422000000000015,-2.713879577994049,0.0864267567500016
mp-763855,Li2VCr(P2O7)2,2.106099999999999,-2.713843451812771,0.0008949372727355
mp-11914,NaLa2IrO6,0.0,-2.71379727375,0.0
mp-764248,Li2VCr(P2O7)2,2.1292,-2.7137966827218616,0.0009417063636458
mp-763868,Li2VCr(P2O7)2,2.1997,-2.713786904767316,0.0009514843181914
mp-764335,V6O7F5,1.3214000000000001,-2.7137306422055563,0.0740783988889024
mp-763857,Li2VCr(P2O7)2,2.133,-2.7137180962067107,0.0010202928787954
mp-764289,Li2VCr(P2O7)2,2.0869,-2.713670542873376,0.0010678462121305
mp-764239,Li2VCr(P2O7)2,2.1081,-2.7136455763582252,0.0010928127272817
mp-849354,TiV3O8,0.42209999999999903,-2.7135841430555563,0.0293292777083227
mp-561616,LuCoO3,0.0027999999999990003,-2.7134896847500003,0.0224578540000077
mp-11906,LiPr2IrO6,0.0,-2.7134710822500008,0.0
mp-989538,Cs2InBiF6,2.2862,-2.7133372152139996,0.0
mp-775706,Ti3VSb2(PO4)6,0.0,-2.713286385515873,0.0835143762499992
mp-773964,Ba10LiW7O30,1.5209000000000001,-2.71326875078125,0.0631380771614686
mp-705340,LiVP2O7,2.070999999999999,-2.7130064811309516,0.0319405338636329
mp-850101,LiV6O7F5,1.0366,-2.71289653998421,0.0886881465497122
mp-764686,Li2VO2F,1.7955,-2.712892093948333,0.0066468391666632
mp-752773,Li4CuF5,1.0967,-2.7128819610949995,0.1040659072499998
mp-9258,SiO2,4.0015,-2.7128741916666663,0.5718387158333291
mp-761654,TiCo(PO4)2,1.8653,-2.7127845831547623,0.0344734324999649
mp-559534,Ba5Al2In2IrClO13,0.0,-2.7127399203962503,0.0
mp-772918,Sr3TeO6,2.5037,-2.7126814338750003,0.0534618588749964
mp-19266,Sr2FeWO6,1.9746000000000001,-2.7126446257500008,0.0
mp-859137,Li2Mn2Si2O7,2.8691,-2.7124765227438457,0.0332640502884569
mp-763051,Li2VO2F,1.806899999999999,-2.7124158481149987,0.0071230849999981
mp-558717,LiUAsO6,2.2644,-2.712347482500001,0.0124646361111109
mp-25036,YbMnO3,0.5091,-2.712319082941999,0.0
mp-27383,Nb3CuO8,0.748799999999999,-2.7123089610416664,0.040263173541664
mp-767853,Li2Mn2Si3O10,1.2624,-2.712176525554117,0.0727537838655427
mp-770190,Li4V2Si(PO6)2,1.944599999999999,-2.712163931723357,0.0826014393253942
mp-770693,Li3MnAl2O6,1.4060000000000001,-2.712096290288334,0.0714026733333232
mp-764841,LiVO2F,2.4218,-2.711975022738,0.0509415970000013
mp-769994,Li3Ti2CoO6,0.28,-2.711955805902777,0.0922031651041583
mp-643741,Sr2YAlCu2O7,0.0,-2.7119408124038458,0.0282322843269247
mp-560260,CsLa(SO4)2,4.3605,-2.7118978508854164,0.0
mp-25023,Mn2Si(P2O7)2,4.0241,-2.711832177704808,0.0
mp-776800,Li4Ti3Nb2Co3O16,1.4451,-2.7117914382142856,0.0219343876785931
mp-778325,Li2TiV3O8,1.2078,-2.711762502261905,0.0229506478571348
mp-555649,MoF5,2.0375,-2.7116631368249995,0.0
mp-763290,V3(O2F)2,0.6421999999999991,-2.7116443213755552,0.0179648783333483
mp-22592,CaTi4(CuO4)3,0.0,-2.711497859583333,0.0542225888124887
mp-1019615,Cs3Li4(BO2)7,4.5217,-2.711369942767856,0.0
mp-770201,Li2AlVO4,2.3742,-2.7112631481249987,0.0812002596875025
mp-775892,Ti3MnSb2(PO4)6,0.0,-2.7112581441536503,0.089370344641205
mp-770575,LiCrPO4F,2.6155999999999993,-2.7109068556919063,0.053746681093747
mp-25699,CaMnSiHO5,1.2381,-2.7107918762033325,0.0113325752777848
mp-13863,BaGeO3,3.5403000000000002,-2.7106835752500005,0.0
mp-764287,VOF3,3.3637,-2.710628338964001,0.0201253504999989
mp-853155,V3(O2F)2,0.553399999999999,-2.7105094791533326,0.0190997205555696
mp-630641,Sr2FeClO3,1.1226,-2.7104357467157136,0.0
mp-570232,TbCl3,4.5211,-2.7100697582783333,0.0
mp-560043,KSb4F13,4.7449,-2.7099402644705566,0.0674222583333241
mp-770404,Li4V2Si(PO6)2,1.8049,-2.709858376247165,0.0849069948015861
mp-761394,Li4Fe2Si3O10,3.1586,-2.7098280477631578,0.0206598421052612
mp-770894,Li2CrPO4F,2.2453,-2.7097955558928044,0.0071345561574105
mp-779943,VOF3,3.030999999999999,-2.7096906059640005,0.0210630835000023
mp-777325,V3(O2F)2,0.8585,-2.7095917741533326,0.0200174255555705
mp-756073,Rb2ZrO3,3.2835,-2.7095435118750006,0.0586588245833343
mp-9816,GeF4,5.500500000000001,-2.7095270979520008,0.0
mp-768285,Be2GeO4,3.990299999999999,-2.709481998333333,0.0
mp-780089,Li3MnSi2O7,1.4716999999999991,-2.709450709208461,0.0692660248116086
mp-14389,Na3AlP8O23,5.2445,-2.7091402915289127,0.0
mp-776371,Li2Nb2(PO4)3,0.0,-2.7090939823308275,0.1123796093947353
mp-765770,VOF3,3.4485,-2.709036408464,0.0217172810000025
mp-777058,LiV6O7F5,0.9873000000000001,-2.7090338273526315,0.0925508591812906
mp-557123,Na2CuSi3O8,0.7571000000000001,-2.7089696716071434,0.0087702414285617
mp-764907,Li3Fe3OF7,2.7048,-2.7089614960414283,0.0661131867857154
mp-5548,Ta2Cd2O7,2.0269,-2.708954418522727,0.0
mp-776884,LiV6O7F5,1.3908,-2.7089377862999986,0.0926469002339232
mp-781081,VOF3,3.109099999999999,-2.7089364729640004,0.0218172165000023
mp-566848,MnB4O7,5.0303,-2.708891002198056,0.0611683230208317
mp-10426,Nb2O5,1.852199999999999,-2.7084358737499983,0.3446110478571427
mp-777150,VOF3,3.0568,-2.7081846684640007,0.0225690210000015
mp-566919,NaCaVO4,3.7316000000000003,-2.708101090714286,0.0748427264285496
mp-757442,Ca3In2O6,1.9618,-2.708095857272728,0.0330116088636351
mp-868490,Ti3Co2P6WO24,0.0,-2.7080720641269846,0.0418004452020142
mp-778305,Li3V2(PO4)3,2.0174,-2.7080034017142864,0.0308881070000026
mp-777934,Li3FeOF3,3.6437,-2.7079501590400006,0.0950551428124999
mp-10175,KCdF3,3.1006,-2.707863052714,0.0256700004999999
mp-561346,Na2ZrGeO5,3.4539,-2.70773476,0.0072660406944446
mp-561176,Sb2POF13,4.0801,-2.7077201680773677,0.0
mp-5039,KPO3,5.0422,-2.7076013878690484,0.0
mp-745104,Gd2(MoO4)3,3.234,-2.707482910294118,0.0005770836764664
mp-764549,V3(O2F)2,0.9929999999999991,-2.707479719708888,0.0221294800000144
mp-6856,Be3Zn4Si3SO12,3.9654000000000003,-2.707477230394022,0.0
mp-32481,LaV3O9,2.57,-2.7074186720192306,0.025419677307692
mp-1880,SbF3,4.438099999999999,-2.7073364633925,0.0
mp-677714,K2YbSn(PO4)3,0.0,-2.7073283356203013,0.0168740814474004
mp-705308,Cs2TiV3(PO6)3,2.0845,-2.7072388002204577,0.0
mp-850979,V3(O2F)2,1.0171,-2.7072353602644443,0.0223738394444588
mp-19330,CaMoO4,3.5057,-2.7072235333333325,0.0
mp-850951,Li3MnV(P2O7)2,2.1375,-2.707038670906128,0.0085975528804302
mp-2874,In2Si2O7,2.7009,-2.706976320795455,0.0048067636363642