mpid,formula,BG,FE,e_hull
mp-1019779,K2Mg2Si2O7,4.9573,-2.951765932211538,0.0348715694230765
mp-767622,Li2VOF3,1.7415,-2.9516584096171425,0.0947373872420573
mp-556099,Yb3B5O12,0.0,-2.9514571397916667,0.0081082880208347
mp-554302,Cs2NaMnF6,0.0,-2.95144376731,0.0437817039999952
mp-778059,Li2FeF5,3.5821,-2.95139849480625,0.0533054787152806
mp-755581,NaCeO2,0.0,-2.951362066875,0.034128405795454
mp-6732,La2MgIrO6,0.0,-2.9512051402500017,0.0
mp-677572,Na8Al11Si13(AgO16)3,2.167,-2.951199859879518,0.1178588677183834
mp-764204,LiV2OF7,1.9341000000000002,-2.951141801325455,0.0753380747159191
mp-624688,Ta2O5,2.4693,-2.9510772023214265,0.4038684185714309
mp-560459,Rb3Al2(PO4)3,4.4173,-2.9508948749642867,0.0
mp-778574,V4(OF3)3,1.823999999999999,-2.9508903424662503,0.0143253859374867
mp-779165,Li2MnF5,1.4327,-2.9507783008637496,0.0620820456249999
mp-626550,Ti3H2O7,2.8727,-2.9503566879991667,0.0364749208333279
mp-555621,RbAl3(P3O10)2,5.4378,-2.9502854937857137,0.0
mp-776821,Li2MnF5,0.7715000000000001,-2.950278122426249,0.0625822240625
mp-558059,LiMnF4,1.855,-2.950256304286666,0.0
mp-769692,LuWO4,2.0645000000000002,-2.9501812891666668,0.0738288187499964
mp-559663,SrLiNiF6,2.309799999999999,-2.9500463880155565,0.0
mp-767252,LiMn2F6,0.3032,-2.9500035639696285,0.0126110870370421
mp-555914,K2CaP2O7,4.8824,-2.9499647181200395,0.0
mp-17864,BaNa(B3O5)3,5.5009999999999994,-2.949836262451924,0.0
mp-755634,Y2HgO4,1.2172,-2.9497862071428567,0.0839779067857131
mp-762393,Li2Cr(Si2O5)2,2.614,-2.9497762786764703,0.0444916107646919
mp-677489,CsTiCuOF5,0.0,-2.9497451920962963,0.0435770757407443
mp-9636,CsSbF6,5.0904,-2.9496504365175,0.0
mp-9212,NaAlO2,3.7968,-2.94955572625,0.0
mp-11691,Nd2HgO4,2.2077,-2.9495296592857145,0.0
mp-767572,Li2MnF5,1.7835,-2.949499638051249,0.0633607084375
mp-695708,Ba7SiB3NO13,0.181599999999999,-2.9494712619452,0.1297098655999855
mp-1019968,LaZn(BO2)5,4.7136000000000005,-2.949421346813726,0.004723243529412
mp-540962,KLa(PO3)4,4.8922,-2.949368733187831,0.0
mp-777710,LiMn2F5,3.1819,-2.94912997004625,0.0865885878124999
mp-775110,Li2Ti3CoO8,1.7291,-2.9490955710714286,0.056069513571435
mp-753712,YIO,3.4111000000000002,-2.949089427916668,0.0
mp-20212,BaPr2CuO5,0.4272,-2.9490086645833333,0.0237951516666985
mp-778715,LiMn2F5,3.0496,-2.9489809264525,0.0867376314062502
mp-763515,LiMnF4,2.0021,-2.9489652105366666,0.0012910937499981
mp-11623,LaInO3,2.7507,-2.9489227687500006,0.0060919459999997
mp-6413,LiDy(PO3)4,5.9314,-2.9487996907804237,0.0028458114351748
mp-28567,LiBiF4,4.8473,-2.9486577457933336,0.0
mp-769879,LiVOF3,1.837799999999999,-2.9485331691366663,0.0481375708730249
mp-25633,V(SiO3)2,1.4068,-2.9484910591666664,0.069408957222226
mp-5803,NbPO5,2.1631,-2.9482299470493194,0.0
mp-30548,TlBF4,5.7573,-2.9478861856544447,0.0
mp-768231,YHO2,4.2211,-2.947833344655,0.0808939449999979
mp-5800,Sm3Ga5O12,3.1576,-2.9477487458750007,0.0
mp-588,GaF3,4.7051,-2.9473407121425,0.0
mp-767304,LiMn2F6,0.0,-2.9473309332288884,0.0152837177777813
mp-555366,LiHo(PO3)4,5.9286,-2.9472603379100537,0.0
mp-767582,Li2V(Si2O5)2,1.585499999999999,-2.9472501307352945,0.0680793887782851
mp-20356,Ce2SbO2,0.0,-2.9472014895000003,0.0
mp-19403,Ba2CaMoO6,2.258,-2.94709036875,0.0
mp-755877,BaNdO3,0.0,-2.9470893882500007,0.173915306750005
mp-542453,NbPO5,2.3831,-2.9470647509778893,0.0011651960714296
mp-764794,Li2Mn2F7,0.5693,-2.947044240249999,0.0588536511363582
mp-17128,CsTb(PO3)4,5.3063,-2.9469424500396832,0.0
mp-765812,TiVO3,0.0,-2.9468395665833347,0.0251519065000085
mp-757399,La12Cu6O25,0.0,-2.946774821889535,0.070427742790712
mp-19130,KNaFe(Si2O5)2,2.9975,-2.9467076136764696,0.0
mp-850147,Li10Mg12Fe(PO4)12,4.4803,-2.9466279987607567,0.0029927235843381
mp-19153,Lu2Mn2O7,1.0081,-2.946605308697273,0.0
mp-779194,Li5V6O5F19,0.7836000000000001,-2.946423519538857,0.0670622721428593
mp-772279,Ti2V(PO4)3,0.0772,-2.9463431490343908,0.0
mp-771681,LiVOF3,1.7361,-2.9462486797616667,0.0504220602480245
mp-555065,LiEr(PO3)4,5.9182,-2.946227194854498,0.0088578621296271
mp-24608,K2AlH2OF5,5.9967,-2.945867892676363,0.0040605456818152
mp-761470,Li2Mn2Si5O13,3.285999999999999,-2.9457061587804545,0.0205230965340845
mp-695505,K2LiNb6(PO8)3,2.2981,-2.9455566642857147,0.0
mp-865322,UTlO3,0.308399999999999,-2.9453338977500003,0.0
mp-777596,Li5V6O5F19,0.803,-2.9452272501102854,0.0682585415714314
mp-554615,KEr(PO3)4,5.373399999999999,-2.945194880132276,0.0065467183333325
mp-989595,CsRb2InF6,4.8289,-2.945168218714,0.0255612172916661
mp-657336,MgSiO3,2.437599999999999,-2.94515996675,0.3054504567500027
mp-766926,LiVF6,3.1403,-2.9451335452675003,0.0438560693749998
mp-14234,MgB4O7,5.7433,-2.9450588025347213,0.0
mp-781788,K2LiNb6(PO8)3,2.2356,-2.9450250367857143,0.0005316274999227
mp-743630,SrTiFe(PO4)3,2.2525,-2.944998387552911,0.0
mp-18651,Sr3DyRhO6,2.1402,-2.944869891742425,0.0
mp-764432,V3(OF3)2,1.2807,-2.944242278603636,0.079475246818192
mp-780779,Cr(Si2O5)2,1.827999999999999,-2.9440744941666663,0.0947436233333327
mp-754217,SmIO,3.5519,-2.944023934583333,0.0
mp-17605,CsNd(PO3)4,5.3001,-2.9438899222156087,0.0
mp-18495,SrLi(B3O5)3,5.6482,-2.943777181875,0.0
mp-760515,Ba3Sr4O7,2.4311,-2.9437326313392864,0.0380572607142841
mp-760419,Li2BiF5,4.0571,-2.94369402449375,0.0630193343749976
mp-559610,Rb2NaAl2(PO4)3,4.6181,-2.943493578839285,0.0
mp-15520,TbZn(BO2)5,5.0939,-2.9434901023039215,0.0114445363602975
mp-566048,Ba2La2Mn(WO6)2,1.5055,-2.9434875039978934,0.0734469296052591
mp-559777,Na5Ca2Al(PO4)4,4.649599999999999,-2.9434737266921767,0.0
mp-767189,Li2Mn7F16,2.6388,-2.9434669358304006,0.0748322251999971
mp-764842,LiVOF3,2.1513,-2.94336447122,0.053306268789691
mp-776670,LiMnF4,1.9824,-2.9432101967866657,0.0070461074999901
mp-567309,KFeF4,3.0627,-2.943092859335,0.0
mp-772392,LiTiVO4,0.7527,-2.9430352573809526,0.0
mp-765265,Ti2Mn(PO4)3,0.155499999999999,-2.9429021340877255,0.0088694226907914
mp-767887,V(SiO3)2,1.496,-2.9428591356944436,0.0750408806944413
mp-37737,HfTiF6,0.0,-2.942764218600834,0.8816881655555582
mp-975913,PrNbO3,0.0,-2.942672338750002,0.3428934221999977
mp-774922,Ti3TeO8,3.156999999999999,-2.9426262400000014,0.0740481547222202
mp-8511,PF5,7.0881,-2.942545935674206,0.0
mp-566588,Ti2MnO4,0.0,-2.942503225613334,0.0736376148628661
mp-17770,CsPr(PO3)4,5.2958,-2.9424101742989435,0.0
mp-560547,KCrF3,1.849,-2.9424040107139997,0.0046604870000015
mp-780919,LiMnF4,2.056499999999999,-2.942282718036666,0.0079735862499896
mp-555727,RbTb(PO3)4,5.492,-2.9422724950396835,0.0
mp-557773,Sc2TeO6,2.8859999999999992,-2.94213682601852,0.0
mp-625359,NdHO2,4.1593,-2.941645418405,0.0
mp-31517,Ta2CoO6,2.5215,-2.9416125113888887,0.0
mp-11165,Na2MgPO4F,4.736000000000001,-2.9414350922816928,0.0
mp-559584,LiCaNiF6,2.3521,-2.9412964407933337,0.0
mp-39160,CaTiFe(PO4)3,0.264599999999999,-2.9412241544973554,0.0
mp-557747,K2SrP2O7,4.7677,-2.941165937911707,0.0
mp-17160,DyPtF7,2.3154,-2.941143723332963,0.0
mp-777451,Li2FeF4,3.6065,-2.941125242287143,0.049877952678571
mp-766909,LiVF6,3.23,-2.9410448671425,0.0479447474999998
mp-615152,MnF2,3.2807,-2.9408228277800004,0.0465085166666661
mp-541168,RbTm(PO3)4,5.4715,-2.940661674160053,0.0
mp-559766,Cs3LiF4,5.6548,-2.9405445287200003,0.0130737662499997
mp-560037,Rb2NaBiF6,4.9249,-2.9402758107139997,0.0
mp-24999,YFeO3,1.5605,-2.9402304667500005,0.0
mp-543036,KDy(PO3)4,5.4718,-2.940182928558202,0.0081191151388813
mp-771863,Li4Y3MnO8,1.0335,-2.94009096927875,0.0539036821875003
mp-743608,Ca3YMn3B4O15,1.379,-2.9400819711844863,0.0165951184335071
mp-755000,LiTiO2,0.0,-2.939862837291667,0.0532695449999982
mp-1022733,Ba2NbFeO6,1.690599999999999,-2.939853063416666,0.0154819178333269
mp-6479,KDy(PO3)4,5.2774,-2.939840641891535,0.0084614018055484
mp-773100,La2BiO5,0.8297999999999991,-2.93957730265625,0.0689736862500129
mp-17651,HoPtF7,2.2952,-2.9395716781477783,0.0
mp-16773,KTb(PO3)4,5.319,-2.9393257680952383,0.0
mp-769918,Tm2Mn2O7,0.996599999999999,-2.9389702846063632,0.0
mp-3379,K2SbF5,4.6778,-2.93885026761875,0.0029183520833315
mp-541636,KEr(PO3)4,5.4862,-2.938733050965608,0.0130085475000001
mp-19096,Ba2VO4,1.524499999999999,-2.9385190857142858,0.0
mp-764408,LiMnF4,1.8855,-2.9385004563699995,0.0117558479166559
mp-18341,ErPtF7,2.2785,-2.9384377523144445,0.0
mp-559695,Cs2RbBiF6,4.7749,-2.9384257232140008,0.0
mp-6741,NaLa(PO3)4,5.095599999999999,-2.938126853048942,0.0
mp-765938,LiVF6,3.3314,-2.9380280346425,0.05096158
mp-777471,Li2FeF4,3.587,-2.937704001394285,0.053299193571429
mp-18255,RbSm(PO3)4,5.2964,-2.937458514160053,0.0
mp-554505,KHo(PO3)4,5.3316,-2.9374311901322745,0.0
mp-19700,Yb2Be2Si2NiO10,0.2056,-2.9373029575,0.0
mp-6248,LiGd(PO3)4,3.4712,-2.9371870654100536,0.0
mp-561886,CsNd(PO3)4,5.493200000000001,-2.9371643913822747,0.0067255308333322
mp-695277,BaLaTiCuO6,0.0,-2.9369772061666666,0.0347241086250003
mvc-13158,CaVO3,0.5509000000000001,-2.9368372652500008,0.0
mp-17439,KSm(PO3)4,5.2969,-2.9367962097156086,0.0
mp-4519,KPrO2,3.6626,-2.936752535625,0.0
mp-758180,CsSi3HO7,4.7963000000000005,-2.9367361356141664,0.0037327185416682
mp-761778,Li2V2Si5O13,2.3586,-2.936671500511365,0.0355853372027983
mp-769926,EuVO3,0.0,-2.93650260375,0.0
mp-18572,KEr(PO3)4,5.2945,-2.936376513743386,0.0153650847222222
mp-1019725,CsY(PO3)4,5.5193,-2.9361812473544973,0.0
mp-18705,Sr3TbRhO6,2.1142,-2.936038052803032,0.0
mp-542920,LaFeO3,1.3628999999999991,-2.9358362662500013,0.0
mp-779692,Ti7O8,0.0,-2.9358346104444464,0.1175738100000103
mp-560320,KBa2(PO3)5,5.1425,-2.9357224725750513,4.062402173410362e-05
mp-17661,RbNd(PO3)4,5.3014,-2.9356842863822745,0.0
mp-1020656,RbY(PO3)4,5.4849,-2.9355736302711635,0.0055954605555559
mp-9457,Ca3ReO6,0.0,-2.93550837725,0.0
mp-15519,NdZn(BO2)5,5.037800000000001,-2.935499099460785,0.0061905817279424
mp-768018,Li2Ti4VO8,0.0,-2.9354921804444456,0.1080054853333241
mp-720643,K2ZrSi3(HO5)2,4.9328,-2.9354440695688897,0.0
mp-782688,Li2FeF4,0.0,-2.9353972221085707,0.0556059728571431
mp-540611,RbNd(PO3)4,5.451899999999999,-2.9353265399933868,0.0003577463888868
mp-572543,CsPr(PO3)4,5.4728,-2.9351976215211635,0.0072125527777773
mp-621926,Na2TiSiO5,3.1096,-2.9350774947685188,0.0814791405555093
mp-1022808,Ba2NbFeO6,1.35,-2.9348888245000015,0.0204461567499922
mp-6433,KNd(PO3)4,5.3418,-2.9347952352711637,0.0
mp-561999,CsAlAgF6,0.0,-2.9346256610711112,0.0
mp-17569,SmPtF7,2.3817,-2.9345939250922224,0.0
mp-545598,UCdO4,1.942799999999999,-2.9344506858333332,0.0
mp-780561,La3Ga5O12,2.869,-2.9344497402500016,0.0
mp-766864,LiVF6,3.2532,-2.9343439621425005,0.0546456524999996
mp-14354,Rb2SrP2O7,4.7092,-2.9343182512450405,0.0
mp-19474,Ba2V2O7,3.4599,-2.9341536107954536,0.0
mp-778687,LiMnF4,0.6967,-2.933950228036666,0.0163060762499904
mp-778532,Li2FeF4,2.565,-2.9338187354419047,0.0571844595238095
mp-19376,TiMnO3,1.8848,-2.9331480982753333,0.033542498000008
mp-776774,Li3FeF5,4.2166000000000015,-2.9331106364944444,0.1000874480555555
mp-763820,Li3Mn5F15,0.0,-2.9331034340282596,0.0534358136956472
mp-18498,Sr3YRhO6,2.1512000000000002,-2.933101737727273,0.0
mp-981934,LaBeO3,0.0,-2.9328431637500003,0.2560983178750025
mp-558795,KMgPO4,4.5953,-2.9327398713350337,0.0
mp-765295,LiV6F13,1.9781,-2.9327385005235,0.0861677115000034
mp-18727,LiCr(SiO3)2,3.0382,-2.9326792582499985,0.0039991079999861
mp-559977,KNd(PO3)4,5.356,-2.9326443638822752,0.0021508713888955
mp-572741,CsUP3O11,2.344,-2.932360151595983,0.0
mp-558761,MnSnF6,2.405799999999999,-2.9323209691375,0.0
mp-557505,KUP3O11,2.3388,-2.932307738549108,0.0
mp-18661,KY(PO3)4,5.328399999999999,-2.9323069052711648,0.0115948130555496
mp-774908,LiTiNbO4,0.0,-2.9322204745238074,0.1169233246428653
mp-762395,Li2Cr(Si2O5)2,2.7249,-2.931832810588236,0.0624350788529266
mp-33803,Nd2Mo2O7,0.0,-2.931790603522728,0.0454143204545474
mp-541495,KY(PO3)4,5.3516,-2.9317889277711635,0.01211279055555
mp-773564,LiMnF4,1.2137,-2.931738361786666,0.0185179424999892
mp-764468,Li2Mn2F7,0.11670000000000001,-2.9317053832045445,0.0741925081818131
mp-755651,CsGdO2,2.4731,-2.931611906875,0.0
mp-553988,Cs2LiF3,5.659000000000001,-2.9315745789283327,0.048404903333334
mp-775326,Li2Ti3NiO8,2.7066,-2.9315568167857142,0.0
mp-695601,Na7Al12Si12H6ClO48,3.6089,-2.9314277086044185,0.114651229011625
mp-771998,Li4Y3FeO8,2.6585,-2.9313818410937493,0.0529329997656251
mp-779361,Li24Ti11CrO36,1.5560999999999992,-2.931370585115741,0.0029629873611263
mp-565260,Nd2W2O9,3.5017,-2.9313085604807703,0.0
mp-779092,Li24Ti11CrO36,1.4654999999999991,-2.9312585227546304,0.0030750497222218
mp-556936,CsBa(BO2)3,4.0415,-2.9311731002272734,0.0034676031818188
mp-779227,Li24Ti11CrO36,1.4433999999999991,-2.9310824834490745,0.0032510890277919
mp-558181,NaSiBO4,5.5274,-2.931018820119048,0.0
mp-765737,V4(OF3)3,0.5709000000000001,-2.9310163824662503,0.0341993459374867
mp-772107,Ca2WO5,3.213,-2.9309277520312493,0.0189720993749986
mp-779775,Li24Ti11CrO36,1.331299999999999,-2.9308246938657416,0.003508878611111
mp-556708,KUP3O11,2.2711,-2.9307877133928577,0.0015200251562781
mp-9821,RbSbF6,4.8849,-2.9307592040175003,0.0
mp-863370,K6Nb11O30,0.0,-2.9307347127127654,0.0206096657528576
mp-556740,NaSiBO4,5.5023,-2.9307079121428568,0.0003109079762015
mp-691043,Ba10Pr5Nb(Sn2O15)2,0.0,-2.93062109255,0.0437048246875004
mp-541601,KPr(PO3)4,5.3491,-2.9306090054100533,0.0
mp-19660,Sr2V2O7,3.452,-2.9305748015909088,0.0
mp-761561,LiCr(SiO3)2,3.1566,-2.93055618325,0.0061221829999862
mp-773933,Ta2WO8,1.7921,-2.9304384399999988,0.0
mp-554225,CsFeF4,2.8735,-2.9303200195433328,0.0
mp-556111,YSeF,1.559199999999999,-2.9302717965945826,0.0867412379166667
mp-768358,ScInO3,2.1968,-2.9302412547500003,0.0739241123749998
mp-764752,LiV2OF7,1.8488,-2.9301455699618177,0.096334306079556
mp-774537,Ti2(PO4)3,0.0,-2.92989591397759,0.0116762056249957
mp-704544,ThV2O7,2.6022,-2.9297646017499988,0.0514942160000018
mp-769941,DyWO4,2.1716,-2.9296845169444445,0.0712901510416692
mp-19194,BaMnP2O7,3.8394,-2.9296697800818614,0.0059695268181521
mp-27971,AcCl3,5.0859,-2.9296300143200007,0.0
mp-771411,Sr3GeO5,2.5648,-2.9295661351388893,0.0360304719444357
mp-770596,TaCrO4,0.9754,-2.9294895774999983,0.0244667066666437
mp-6635,Ba2CaReO6,0.0,-2.9294751112500004,5.005199999974508e-05
mp-23199,BaCl2,5.1132,-2.929473757173332,0.0240208683333333
mp-557311,Sr2GeO4,3.566,-2.9292808532142858,0.0
mp-781761,Li2FeF4,3.6637,-2.929204651394285,0.0617985435714283
mp-561138,RbGd(PO3)4,3.4694,-2.9290537449933867,0.0
mp-1016830,MgTiO3,1.5962,-2.929011278083334,0.4549503910000006
mp-5525,KAlO2,3.999399999999999,-2.92889300734375,0.0
mp-770639,Y2W2O9,3.4602,-2.928881768557692,0.0254411988461615
mp-774609,Na5Li3Ti5O14,3.115299999999999,-2.9286660213271603,0.0198607554444381
mp-29177,BaTe2F10,4.8809000000000005,-2.9283609139923072,0.0
mp-572951,CsNaSi2O5,4.4582,-2.928218309027777,0.0
mp-772073,Li2Nb4O11,2.5441,-2.9281349996323525,0.0439239541176412
mp-777453,LiVF6,3.1431,-2.9280998812050005,0.0608897334374996
mp-978504,SmGaO3,2.779399999999999,-2.9280689212499995,0.2100731816666678
mp-767600,Li2MnF5,1.8449,-2.9280420480512497,0.0848182984374998
mp-705523,CaLaVFeO6,1.2809,-2.927956857083333,0.0169751181666661
mp-557485,RbFeF4,2.9575,-2.927723723293333,0.0
mp-557679,KNaSi2O5,4.2837,-2.9277077706944445,0.0005290607638945
mp-1020616,RbMgPO4,4.490200000000001,-2.9276295293707486,0.0
mp-40201,Na8Be3Si9(ClO12)2,3.9839,-2.927295998728696,0.0368279138043607
mp-780929,LiMnF4,0.6541,-2.927232360536666,0.0230239437499895
mp-559799,KGd(PO3)4,3.4915,-2.927141376660053,0.0011018209027149
mp-767753,Li2Fe2Si8O19,3.5081,-2.926964322701612,0.0910855583870891
mp-43068,Na3Al3Si3AgBrO12,3.335299999999999,-2.926790881956522,0.0
mp-772125,NbPO5,2.996,-2.9266219774064632,0.0216079696428597
mp-699146,Mg3AlFe(SiO4)3,2.425899999999999,-2.9265916627500004,0.18533748665625
mp-777664,Li2FeF4,3.0891,-2.9263958706800004,0.0646073242857143
mp-554526,KGd(PO3)4,3.1193,-2.9263765923544987,0.0018666052082689
mp-766801,Li4MnF8,2.2371,-2.926339098498462,0.0451956264102548
mp-554517,NaMnF4,2.0519,-2.9262715042866656,0.0
mp-17446,PrPtF7,2.4352,-2.926219030925556,0.0
mp-772584,Ti5V(PO4)6,0.0,-2.9261086450529104,0.0775274686111089
mp-14555,LaCd(BO2)5,4.3762,-2.9259911322549024,0.0
mp-19484,BaCaV2O7,3.2318000000000002,-2.925825170340908,0.0012882804545473
mp-555598,KGd(PO3)4,3.2157,-2.9258070329100536,0.002436164652714
mp-765336,LiVOF2,1.0644,-2.925734072476,0.0668679638888845
mp-769880,LiVOF3,2.6582,-2.92565270622,0.0710180337896915
mp-4888,NbPO5,3.0812,-2.9255821891921765,0.0226477578571469
mp-774535,TiNb3(PO4)6,0.0,-2.925571770742297,0.0
mp-556655,Li2AlBO4,4.864,-2.9254830323958334,0.0
mp-689817,Cs4U2V2O13,2.0504000000000002,-2.925328194583334,0.0
mp-558129,KNaSi2O5,4.4523,-2.9252370831944443,0.0029997482638943
mp-980108,Sm2MgIrO6,0.0,-2.9251999277500005,0.0055435488749981
mp-504559,Pr2W2O9,3.4973,-2.9251008083653858,0.0
mp-765525,Li2VOF5,3.2968,-2.925058301355556,0.0269154885185383
mp-15547,Na2ZnGaF7,3.9775,-2.9249787170072716,0.0
mp-12807,KAlO2,3.753799999999999,-2.92493410875,0.0039588985937504
mp-777457,Li2FeF4,3.5784000000000002,-2.9248648572871425,0.0661383376785718
mp-618968,UMoO5,0.036299999999999,-2.9247749362500013,0.0702785525000138
mp-560535,K4Sr(SiO3)3,4.1609,-2.9247694700735307,0.0
mp-14691,NaEr(PO3)4,5.5405,-2.924728910548942,0.0135308967129708
mp-581956,Na10U8W5O44,1.7426,-2.9246071451492544,0.0018993800373099
mp-771832,Li2Ti3SnO8,0.0,-2.9245009964285713,0.1029993273809477
mp-556888,KSbF6,4.912599999999999,-2.9244867896425006,0.0
mp-566617,Ca3Cr3(PO4)4,3.241599999999999,-2.924216926245421,0.0
mp-778700,Li2FeF4,3.6247,-2.9240700483585704,0.0669331466071438
mp-777008,LiFeF4,3.6188000000000002,-2.923910620793333,0.0038361843518606
mp-553881,SiO2,3.5957,-2.923905921666666,0.3608069858333333
mp-773047,KNb2PO8,2.2181,-2.9238618151190483,0.0097159175555514
mp-776264,LiFeF4,3.236399999999999,-2.9238286016266666,0.0039182035185278
mp-976952,NaPuO3,0.0,-2.923717153125,0.0
mp-566157,BaFeCuF7,0.23059999999999903,-2.923690066333,0.0248105330000116
mp-755336,NdIO,3.5759,-2.923432502916667,0.0
mp-567680,BaCl2,4.5724,-2.9233940643955565,0.0301005611111131
mp-541373,KTa3CuO9,0.0,-2.9232843266964283,0.0150627445535711
mp-557656,RbNaSi2O5,4.4435,-2.9232623506944435,0.0
mp-557177,Li2Al(BO2)5,5.6317,-2.9232470722685187,0.0
mp-554947,NaSiBO4,5.4139,-2.923195463571428,0.0078233565476306
mp-555273,Ca3Ge(ClO2)2,4.1976,-2.923056611902,0.0128916907499947
mp-761646,Li2Cr2Si5O13,2.8549,-2.92300460846591,0.0167024373181803
mp-763803,Li2Mn2F7,1.2666,-2.922872565704545,0.0830253256818185
mp-1019609,Cs2Sr2Li3B3(PO4)6,5.6029,-2.9228697898392872,0.0
mp-759342,Nb9AsO25,2.1016,-2.922790507178572,0.0
mp-560016,NaNb2PO8,1.9724000000000002,-2.922750907966269,0.0
mp-12226,NaNd(PO3)4,5.603,-2.922663202632274,0.0
mp-541908,KSbF6,4.9633,-2.9223562727675003,0.0021305168750007
mp-15073,BaSmC2O6F,4.282,-2.9223495264718187,0.0
mp-776791,LiFeF4,3.7901000000000002,-2.92225494996,0.0054918551851939
mp-774083,Li2Ti2VO6,1.069299999999999,-2.922172308712122,0.0745741186363631
mp-766916,Li2VF7,1.0091,-2.9221214343329995,0.1052462970000025
mp-764320,Li5MnOF5,0.5905,-2.9221187602633343,0.0620230674999993
mp-6712,NaLuGeO4,3.6234,-2.9220042992857143,0.0
mp-774105,Ca5Ge3O11,3.3456,-2.9219855107236845,0.0159679807017596
mp-1020650,Sr3Ge2(B3O8)2,4.4198,-2.9219734637037034,0.0
mp-565908,Ca3WCl2O5,3.9325,-2.921677525933636,0.0
mp-975103,RbMgPO4,4.5457,-2.9216452061564624,0.0059843232142871
mp-15113,Na2Si3O7,4.6833,-2.921643740729167,0.090154391875
mp-776881,LiFeF4,3.0524,-2.9214692357933334,0.0062775693518606
mp-695597,NaMg3Si4O11F,3.106999999999999,-2.9213727601220008,0.3082391975312593
mp-752437,SmInO3,2.639699999999999,-2.9212080842500012,0.0306264088749976
mp-554941,KRb2BiF6,4.7975,-2.920928009214,0.0
mp-29825,K2Si2O5,4.3282,-2.920899956805556,0.0
mp-16970,Na2Si2O5,4.4261,-2.9208265409722225,0.0
mp-3193,Na2Si2O5,4.4533,-2.9207357829166667,9.075805555269768e-05
mp-14864,Cs2Ti(PO4)2,3.4477,-2.9204397327197804,0.0
mp-557855,CaGaBO4,3.9612,-2.920416051309523,0.0
mp-555030,NaY(PO3)4,5.5938,-2.9201911508267195,0.0102287762962962
mp-777669,Li2FeF4,3.3555,-2.920097632108571,0.0709055628571428
mp-566131,KCrF3,0.7059000000000001,-2.9200748737140003,0.0269896240000013