mpid,formula,BG,FE,e_hull
mp-773521,La6Mn3O14,0.0,-3.189248043060002,0.0750874891303965
mp-755565,HoBrO,3.652699999999999,-3.189228777083333,0.0
mp-6870,KBe2BO3F2,6.0552,-3.1892115758662967,0.0
mp-756544,LiLaO2,3.5436,-3.188945528125,0.0164739262499988
mp-7323,RbBe2BO3F2,5.9642,-3.188794946977408,0.0
mp-684991,NaCaScZn(SiO3)4,4.5493000000000015,-3.1887949055,0.0211580607083332
mp-777681,Li3VF6,2.5144,-3.188777401214,0.0348237613333282
mp-558564,SiO2,5.5113,-3.1886795961111125,0.0960333113888882
mp-776509,Sr2Ti6N2O11,1.9036,-3.1885106727861903,0.0403722690504757
mp-769319,LiNb(OF)2,3.1688,-3.1882418637300014,0.0
mp-771147,Dy2P4O13,5.638800000000001,-3.18823754931391,0.0055722415789603
mp-769888,Ho2V2O7,0.506599999999999,-3.188088072613635,0.0771372229545459
mp-973981,LuBrO,4.3926,-3.1878465937500007,0.0
mp-773072,Ba8LiNb7O24,0.0,-3.1878253695000014,0.0170288340000297
mp-6475,NaZr2(PO4)3,4.1967,-3.1876797049603187,0.0
mp-865500,Na2Hf2O5,1.9558,-3.1875119829166665,0.0
mp-766914,LiV2F7,1.771,-3.187230639332999,0.0404066084999907
mp-6453,K3Nd(Si2O5)3,4.1357,-3.18713612885,0.0
mp-25140,GdVO4,2.9685,-3.186991337499999,0.0
mp-560152,SiO2,5.6113,-3.186947388333333,0.0977655191666659
mp-554669,Ba3Ta2CdO9,3.4856,-3.186848765083333,0.0
mp-559383,RbLuP2O7,5.0946,-3.1867387756764067,0.0
mp-19460,Ba5Nd8Mn4O21,1.8889,-3.1864153823707886,0.0
mp-759307,TiNb2O7,2.0475,-3.1862745860416664,0.0065075532500245
mp-850357,Sm2V2O7,0.958299999999999,-3.1862403198863634,0.0181937015909099
mp-554848,Cs2VF6,2.037099999999999,-3.1861974602377785,0.0
mp-554175,SiO2,5.7494,-3.18615523625,0.0985576712499991
mp-8096,ZrCuF6,0.0,-3.1861410221425004,0.0094153215624999
mp-752467,NbO2F,2.2067,-3.186102949672501,0.0
mp-553342,CsBe2BO3F2,6.0015,-3.186070664755185,0.0
mp-769045,HoGaO3,2.8722,-3.185989810416667,0.0193125125333271
mp-19508,SrCr(Si2O5)2,3.2707,-3.185912532656249,0.0
mp-6698,Th2Cu(PO4)3,2.9243,-3.185865291626984,0.0
mp-5391,Mg2SiO4,4.497299999999999,-3.185776907142857,0.0502181660714278
mp-29232,ZrPb3F10,4.674,-3.1857636451357148,0.0084336135714284
mp-756350,TiNbO4,0.0,-3.185583191388889,0.0396729779273457
mp-759382,Li2Ti7Nb6O30,2.2723,-3.1853804676481485,0.0547389501666639
mp-776621,LiVF4,2.0836,-3.185350804126668,0.0433721024999904
mp-754526,TmBrO,4.427,-3.185286140416667,0.0093629750000001
mp-755698,HfP2O7,5.3149,-3.1847053574940483,0.0162515709999979
mp-556498,Sr2Be2B2O7,4.079700000000001,-3.1846966155448726,0.005455330384593
mp-754834,Er2TeO2,0.49640000000000006,-3.1846394745,0.0079921820000006
mp-768908,Ho2TeO2,0.5862,-3.1845296965000016,0.0
mp-677732,NdTi2CdO6F,1.396599999999999,-3.1843069108657573,0.1510979623232353
mp-778506,Li2VF5,2.852,-3.1841314351187497,0.0413903814583225
mp-760594,LiTi2O4,0.0,-3.1840650954761904,0.0768252607142709
mp-28663,Mg14Si5O24,4.677800000000001,-3.183869548837209,0.0203560829651152
mp-555604,Na3Dy(Si2O5)3,4.5070000000000014,-3.1838644242166656,0.0
mp-772220,Li3Ta7O19,2.8734,-3.183795332370688,0.0666209325862166
mp-556088,SiO2,5.68,-3.1837627816666667,0.1009501258333323
mp-767605,Li2VF5,2.488,-3.1836397782437498,0.0418820383333224
mp-13042,NaSr3TaO6,3.8787000000000003,-3.183620869772727,0.0
mp-14912,La4Si2Se3O7,2.2305,-3.183579897470704,0.0
mp-554149,BaNaFe2F9,3.7199,-3.1834553714007683,0.0022846696154266
mp-19518,BaCr(Si2O5)2,3.2289,-3.1834236879687507,0.0
mp-11709,Sm(BO2)3,5.469099999999999,-3.183315821000002,0.0174790695624977
mp-776624,LiVF4,2.3709000000000002,-3.182627327876667,0.0460955787500099
mp-767646,SrLiLa15(CoO8)4,0.8101,-3.182536871698113,0.0317308912511489
mp-755141,NaHoO2,4.0621,-3.182515664375,0.0072263149999862
mp-28155,LaNb5O14,2.1536,-3.1824933363750016,0.0263466204999982
mp-28375,Ta2AgF12,0.7143,-3.182160745618667,0.0
mp-754204,LiGdO2,3.130499999999999,-3.1819890556249995,0.0402151643749935
mp-759280,LiZr2(PO4)3,4.4162,-3.1818524869047637,0.0080814493055481
mp-1020641,Rb2Ca2(SiO3)3,4.1345,-3.1817376903906256,0.0
mp-771240,La2P4O13,4.92,-3.181392412822684,0.0034640127631551
mp-1138,LiF,8.7161,-3.1808801980949997,0.0
mp-767699,LiVF4,2.2028,-3.1806245632933337,0.0480983433333435
mp-1020057,LiLaO2,3.7336,-3.1803293212499995,0.0250901331249995
mp-755389,CaEuO2,0.0,-3.180300736875002,0.0435147574999987
mp-773588,Sc6N2O5,0.0,-3.1801913585392305,0.0228740692307685
mp-3488,Na2Ti3O7,2.9886999999999992,-3.180079329479168,0.000287856249999
mp-5996,Na2Ti2Si2O9,3.263,-3.1800513539722224,0.0
mp-30321,Y2P4O13,5.6411,-3.1799496583489986,0.0029586698684269
mp-14977,Na3Y(Si2O5)3,4.5279,-3.17978716665,0.0
mp-753774,KTmO2,3.974299999999999,-3.179629590625,0.0
mp-19169,PrVO4,3.029899999999999,-3.179570535,0.0
mp-684861,NaYbTiNbO6F,0.0,-3.179327828441515,0.0660756106250044
mp-776733,Li3VF6,2.5067,-3.1792824379640003,0.044318724583328
mp-3615,Nd(BO2)3,5.4208,-3.179154888500002,0.0123346993124986
mp-771338,La2P4O13,4.6152,-3.1789854817700505,0.005870943815788
mp-773068,LiZr2(PO4)3,4.2911,-3.1788341199603183,0.0110998162499935
mp-767631,Li3VF6,2.5271,-3.178807340214002,0.044793822333327
mp-755792,LuGaO3,3.6376,-3.1787940747500003,0.0539372379999996
mp-754040,CeSmO2,0.0,-3.17869544625,0.0592283971875016
mp-755070,CeSmO2,0.0,-3.178694842500001,0.0592290009375009
mp-10509,BaGaBO3F2,4.9647,-3.1785841172245832,0.0
mp-971707,Tm2Mg2O5,2.1944,-3.1775334706944434,0.467025102361113
mp-772958,Er2P4O13,5.4556000000000004,-3.1774893292700512,0.0215228013157915
mp-776452,Ca2Ti6N2O11,1.803499999999999,-3.177408253738572,0.0589712370266628
mp-783902,Dy2V2O7,0.47440000000000004,-3.1774002929166656,0.0851541725000029
mp-557023,NbVF6,0.0,-3.1773577671425013,0.0
mp-6124,NaAl(SiO3)2,5.2254,-3.1771538102499997,0.0307683201874979
mp-21496,LiLa4CuO8,0.7702,-3.177082348571429,0.0145294657142853
mp-16855,K3Ta3Si2O13,2.9726,-3.177039839107142,0.0
mp-19441,CaCr(Si2O5)2,3.3907,-3.1770223007812497,0.0028552842708329
mp-766116,VF3,1.7384000000000002,-3.1769702321425,0.0490385274999978
mp-694885,CaLaMnNbO6,2.378999999999999,-3.1767750293460013,0.0413497653750134
mp-760172,Na7Ti16O32,0.0,-3.1764832416666664,0.0221915923484701
mp-779957,SrLiLa7Fe3O16,0.0,-3.1763141271428568,0.0702729687797667
mp-687094,Cs2NaVF6,0.0,-3.1760945417140003,0.0
mp-765321,Li2VF5,2.3259,-3.1760590973062497,0.0494627192708225
mp-557411,KRb2VF6,2.5191,-3.1757562967140007,0.0
mp-504590,Ca2Si3PbO9,4.371,-3.1756520090833344,0.0020276274444412
mp-765186,Li2VF5,2.1785,-3.1755046329312497,0.0500171836458225
mp-767661,Li2VF5,2.3638,-3.17541741824375,0.0501043983333229
mp-779737,Ho2P4O13,5.4324,-3.175405086901629,0.0145559459210655
mp-767772,Li3V2F9,2.2881,-3.175145260765,0.0517484515476107
mp-11183,Pr(BO2)3,5.3949,-3.1750602417500007,0.0
mp-6596,MgAlPO5,5.042300000000001,-3.175041907105654,0.0
mp-19751,Ba2YbNbO6,0.0,-3.17488479775,0.0079340240000007
mp-779190,LiVF4,2.6597,-3.1744175407933337,0.0543053658333434
mp-680695,Ce3B2(ClO2)3,0.0,-3.1742133707580957,0.0349051447448918
mp-681439,LiZr2(PO4)3,4.2314,-3.1740669888492072,0.0158669473611023
mp-645962,La4B14O27,4.1752,-3.173997894824074,0.0
mp-754578,TmGaO3,3.6067,-3.1739444327499995,0.0440321289999987
mp-555305,NaNb(OF)2,3.1327,-3.173868063313334,0.0
mp-554663,Mg2SiO4,4.5874000000000015,-3.1737088649999987,0.0622862082142852
mp-770997,Li2HfO3,4.1189,-3.1736583364583337,0.0085194641666674
mp-755302,TiNbO4,0.0,-3.173379528611111,0.0518766407051245
mp-767625,LiVF4,2.2786,-3.173279669543334,0.0554432370833426
mp-779463,Dy2P4O13,5.4334,-3.1732459418139114,0.0205638490789432
mp-754903,Y(BO2)3,5.446999999999999,-3.173147754,0.0075105455000006
mp-555825,Na4Sc2Si4O13,4.6001,-3.1731308741847832,0.0
mp-642313,K3Y3(BO3)4,4.1596,-3.1730954307007577,0.0
mp-770465,Ba4Ce2O7,0.0,-3.172925536057692,0.0360519992307706
mp-541661,LiZr2(PO4)3,4.1295,-3.172534111349206,0.0173998248611031
mp-777528,Li3VF6,2.4757000000000002,-3.172364616214,0.0512365463333353
mp-769015,DyGaO3,2.8659,-3.1723053817500007,0.0253114739333275
mp-22264,CsSr2Nb3O10,1.4423,-3.1722266557812513,0.0
mp-772959,Er2P4O13,5.477,-3.171929515191103,0.0270826153947378
mp-5459,Nd2TeO2,1.5804,-3.1718582415,0.0
mp-753298,PrYO2,0.0,-3.1717467637500008,0.1024510697916643
mp-6331,Na2Y2B2O7,4.3727,-3.1714390566987185,0.0043828411965805
mp-752942,LiTi2O4,0.0,-3.1711372397619044,0.0897531164285574
mp-561052,Ba4Na2CaTi3Si4(SO13)2,2.1206,-3.171026185967262,0.0206431954166692
mp-555548,MgAlPO5,4.9741,-3.171023055230654,0.0040188518750028
mp-776679,LiVF4,1.4987,-3.1706374799600003,0.0580854266666763
mp-758243,TiNb2O7,1.3475,-3.1704008388749987,0.0223813004166917
mp-14049,Ba3Al2(SiO4)3,3.2933,-3.1703802410000015,0.2726726916562487
mp-761078,Na9Ti20O40,0.0,-3.17020861968599,0.0197343525241571
mp-559929,Ba3Ta6Si4O23,0.0,-3.1700788038541656,0.1787520216329099
mp-777901,Li2VF5,2.1904,-3.1698944907437503,0.0556273258333224
mp-19587,UCrO4,0.338699999999999,-3.1697978166666663,0.0
mp-504427,Ti3PbO7,1.9724000000000002,-3.1695972380681834,0.0
mp-7148,K2SrTa2O7,2.0693,-3.1694147815625,0.0
mp-557744,NaUBO5,1.9151,-3.1693845659895823,0.0
mp-782719,LiVF4,2.096899999999999,-3.169262396626667,0.0594605100000098
mp-694935,K3LiMg4(Si2O5)6,4.7657,-3.1690895628499987,0.0
mp-779147,Ho2P4O13,5.4866,-3.1690610704542608,0.020899962368416
mp-25581,La2MoO6,2.511599999999999,-3.1689720791666667,0.0592771144444412
mp-769391,Ba4ZrO6,3.1542,-3.1688891288636367,0.0538831572727263
mp-557195,KCa2Nb3O10,1.956799999999999,-3.168291663125,0.0046850321875027
mp-19214,CeVO4,0.0,-3.168141909166668,0.0465319133333324
mp-6227,Ca2ZnSi2O7,4.0553,-3.1680831823958333,0.0155098733333343
mp-555023,KCa4(BO3)3,4.5893,-3.1680019036029416,0.0
mp-776608,Ca2Ti6N2O11,2.2672,-3.1678141246909535,0.0685653660742815
mp-40478,NaDy3Ti2(SbO7)2,2.4818000000000002,-3.1677580754924253,0.0
mp-766861,LiVF4,2.3366000000000002,-3.1677517270433344,0.0609711795833423
mp-755883,NaDyO2,4.0169,-3.167732422291667,0.0040603237499858
mp-558191,Na2ZrSi2O7,4.5653,-3.1675219023958334,0.0
mp-861868,KNaLaTaO5,3.7157,-3.1674833556944444,0.0
mp-4957,CaNbO3,0.0,-3.1674354862500005,0.0591711023125043
mp-561065,MgTi2(PO5)2,3.121099999999999,-3.1671326391349206,0.0
mp-28707,PrNb5O14,1.9449,-3.167060789375,0.0265311705000002
mp-11711,Gd(BO2)3,2.7361,-3.16689606275,0.0
mp-1019526,Ba3Si2(B3O8)2,5.3993,-3.1665997666666668,0.0
mp-560334,NaAlSiO4,4.599299999999999,-3.1664587855357142,0.0
mp-3222,La3RuO7,0.0,-3.1660876226136376,0.0
mp-22720,RbSr2Nb3O10,1.4646000000000001,-3.1656307707812497,0.0064232974218754
mp-758044,Li5Ti8O16,0.0,-3.165588995287356,0.0214370922413955
mp-777680,Li2VF5,2.447,-3.1655710426187507,0.059950773958322
mp-31049,NdO2,3.4112,-3.165306073333334,0.0007905885416619
mp-759946,Sc16O15,0.0,-3.1649802383467738,0.0479741467338712
mp-765573,Li4Zr3O8,3.698099999999999,-3.1649393186666663,0.0450898030000015
mp-772993,Li2Ti7Nb6O30,2.2457,-3.164897611425926,0.0752218063888872
mp-765894,Li5VF8,2.482999999999999,-3.164847779251428,0.046547393452375
mp-767932,Li2VF6,2.1121,-3.1647154069044445,0.0
mp-756127,TaNbO5,2.3307,-3.1644834601785714,0.0395128110714289
mp-1019777,K2La2B2O7,4.2027,-3.164335883814103,0.0
mp-21898,SrTbO3,0.0,-3.164155693416668,0.1173226571249985
mp-560233,Sr5B3BrO9,3.8991000000000002,-3.164115270624998,0.004696131458334
mp-5639,Mg2SiO4,4.7521,-3.164113153571428,0.0718819196428564
mp-541412,CsYP2O7,5.1175,-3.1638725515854977,0.0
mp-4624,TaBO4,3.4514,-3.163861923611112,0.0
mp-755417,Ba3(BO3)2,4.1693,-3.163744958712121,0.0
mp-755206,Ca2Ti6N2O11,1.988299999999999,-3.1637205618338102,0.0726589289314247
mp-19598,GdCrO3,2.413599999999999,-3.1637090062499995,0.0
mp-765124,LiV2F7,2.2507,-3.1636948080830005,0.0639424397499892
mp-642363,Al2O3,4.271699999999999,-3.1635466007499997,0.2785669000000004
mp-561549,K2Be2(Si2O5)3,4.83,-3.163472308949999,0.0
mp-772412,MgSiO3,4.7719000000000005,-3.1634625960000005,0.0871478275000026
mp-17429,KHfPdF7,0.6668000000000001,-3.1634174073329997,0.0
mp-756444,Ca2Ti6N2O11,2.0854,-3.1633799946909527,0.0729994960742814
mp-776629,LiVF4,2.4101999999999992,-3.163303567043334,0.0654193395833431
mp-29030,ThTl3F7,3.2195,-3.1632744318936363,0.0
mp-758845,Ba5Nb2O10,2.3701,-3.1632641948529394,0.0068225117647076
mp-38468,Li7Ti12O24,0.0,-3.1632018188372104,0.0478731003488359
mp-766983,LiCa2Nb3O10,2.0222,-3.1631109242187487,0.0282878759375009
mp-560605,LiLa4AuO8,1.6583,-3.162858332857143,0.0
mp-760863,Na4Ti7O16,2.3982,-3.162801049876544,0.0573580559259259
mp-556778,BaTeF6,4.8353,-3.1627051552675005,0.0005982806250042
mp-541298,KHfH2OF5,6.6561,-3.162561366319,0.0
mp-556319,SiO2,5.198,-3.1624430575000004,0.1222698499999985
mp-622482,BaY2CoO5,1.8631,-3.1622840293055563,0.0
mp-18744,Sr2ErMoO6,1.234099999999999,-3.1622382452500015,0.0
mp-561396,Li3CrF6,3.9644,-3.162222404713998,0.0
mp-1004528,CsB3PbF12,6.2981,-3.162070036722353,0.0
mp-532565,SrLa7TiGa7O24,1.751199999999999,-3.161674168291668,0.0407636570089202
mp-13614,Rb2Be3Cd2F12,5.236499999999999,-3.1616687740410527,0.0
mp-676431,Na4Al3Si9ClO24,4.5204,-3.1616630171526827,0.018949690243903
mp-556867,K2PrZr(PO4)3,4.4301,-3.1616196790413533,0.0
mp-765367,LiVF4,2.0189,-3.1615333114183333,0.0671895952083438
mp-27522,K2Zr2O5,3.8226,-3.1614955323611107,0.0147353274074042
mp-556719,K2Ti(SiO3)3,3.3701,-3.1612967018611116,0.0
mp-685295,Sr22Nb10O47,1.708299999999999,-3.1612471503639226,0.1336720482278455
mp-555321,BaNiF4,4.6572000000000005,-3.1611813374600004,0.0009227233333319
mp-21527,Na2ScCuF7,0.0,-3.1611625991663637,0.0122796937878773
mp-560622,CaLa2B10O19,4.5432999999999995,-3.1611433075130204,0.0
mp-781757,TaNbO5,2.487,-3.1610633453571437,0.0429329258928579
mp-695119,Na3Zr2Si2PO12,4.4926,-3.160981410904763,0.0053903962499877
mp-555322,Eu2SiCl2O3,0.642699999999999,-3.1608789422212498,0.0
mp-765208,LiVF4,1.9744000000000002,-3.1607888721822217,0.0679340344444545
mp-557497,Pr2Nb11O30,0.0,-3.160749814476744,0.0210736454069717
mp-695354,Na3Zr2Si2PO12,4.4556000000000004,-3.1605483507797634,0.0058234563749879
mp-1019610,Cs2MgSi5O12,4.5828,-3.160177763500001,0.0
mp-720719,Ca2Y2Si4H2CO16,5.1278,-3.159925256101482,0.0012022280555541
mp-752637,HoBrO,4.3862,-3.159853355416667,0.0293754216666659
mp-667374,NaAlSiO4,4.541399999999999,-3.1596436367857152,0.0068151487499994
mp-558629,Ba2ZnSi2O7,4.0007,-3.1595683628125006,0.0
mp-686541,Al2Cd(Si5O12)2,2.377399999999999,-3.159479718108108,0.0504043135810796
mp-25076,Nd2MoO6,2.6647,-3.1594358538888883,0.0
mp-773024,LiCa2Nb3O10,2.0086,-3.1592794434375,0.0321193567187503
mp-704727,Sr5V3O12F,3.9987,-3.1590994291042858,0.0
mp-757716,LiTi(Si2O5)2,0.384,-3.1588950299479164,0.0619027783854075
mp-7950,ThSeO,0.769,-3.1587723399479164,0.0
mp-770094,Y2V2O7,0.48689999999999906,-3.1587159176136352,0.0815600284090916
mp-773074,LiZr2(PO4)3,4.3898,-3.158575200238096,0.0313587359722156
mp-558318,Rb2TbGa(SiO3)4,4.0952,-3.158556457541668,0.0
mp-766952,LiVF4,2.1645,-3.158536809126668,0.0701860975000094
mp-776493,LiVF4,2.4242999999999992,-3.1582432816266666,0.070479624999991
mp-7959,KErO2,3.9606,-3.158224399374999,0.0
mp-695074,KNa3Al4(SiO4)4,4.0624,-3.158185981607143,0.0179454151785716
mp-689927,Na3DyTi2Nb2O12,2.515499999999999,-3.1580346495,0.0091712572499922
mp-554240,NaCa4(BO3)3,4.0868,-3.1579936441911767,0.0007410654411774
mp-556637,Ba6Na2Nb2P2O17,3.0126,-3.1576288240496715,0.0
mp-772787,Gd2P4O13,3.296999999999999,-3.1575545775595244,0.0
mp-676988,Na3HoTi2Nb2O12,2.5575,-3.1574395499166665,0.0108551299166599
mp-771306,Dy2P4O13,5.3785,-3.1571548508928573,0.0366549399999964
mp-863868,Li2VF5,3.0374,-3.15709043886875,0.0684313777083227
mp-554003,Sr4Li(BO3)3,4.1874,-3.1570788576470585,0.016575775220593
mp-17897,RbYP2O7,5.0221,-3.1569575772673164,0.0
mp-780003,La2P4O13,4.753699999999999,-3.1568832276911034,0.0279731978947364
mp-776623,LiV2F7,2.137699999999999,-3.156845154833,0.0707920929999899
mp-673845,NbO2F,1.9496,-3.156383159255833,0.0297197904166566
mp-766963,Li5VF8,2.5606,-3.1563734042514286,0.0550217684523746
mp-755416,HoGaO3,3.6065,-3.15598467725,0.0493176456999933
mp-760372,Na5Ti12O24,0.0,-3.1559665474390264,0.0574033710772283
mp-756597,Li2HfO3,4.6913,-3.1558436172916675,0.0263341833333337
mp-849971,LiVF4,2.2211,-3.15584138746,0.0728815191666765
mp-863749,Rb2Hf2O5,1.9487,-3.155663125138888,0.0
mp-29356,NaTi2O4,0.0,-3.1556392294047626,0.0
mp-9607,Li2UO4,2.1005,-3.1554540925000003,0.0
mp-555230,Rb2YGa(SiO3)4,4.1384,-3.15540557475,0.0
mp-779522,Ho2P4O13,5.359500000000001,-3.1551800454542613,0.0347809873684337
mp-772744,Tm2P4O13,5.369199999999999,-3.1549883591384713,0.0410218505263166
mp-28499,Al10Ge2O19,2.1205,-3.1549836831854843,0.0304589964516193
mp-8351,NaAlSiO4,4.4806,-3.1548313592857133,0.0116274262500004
mp-771158,Ba2B2O5,3.9978000000000002,-3.154730367175925,0.0
mp-767846,Sr2FeCO3F5,2.4958,-3.1547145472666664,0.0
mp-762236,Al3CrO6,3.3694,-3.154545058750001,0.0144338352499868
mp-561253,Ba3Lu(BO2)9,5.247299999999999,-3.154515735403226,0.0039557834408707
mp-777556,LiVF4,2.4551,-3.154466862460002,0.0742560441666757
mp-5447,Sm3OsO7,0.0,-3.154158697386365,0.0038282868181784
mp-14050,Ca3Ga2(SiO4)3,4.2496,-3.154034449375001,0.0118246171249998
mp-767834,Sr2MnCO3F5,1.3728,-3.1539742444300014,0.0181638628124911
mp-1020606,SrBe2(PO4)2,5.7435,-3.1539218975915757,0.0
mp-773003,Er2P4O13,5.3688,-3.1538149891384717,0.0451971414473693
mp-1019731,EuAl3(BO3)4,0.0,-3.153496667833334,0.0
mp-754031,YBrO,3.6348,-3.1534544695833335,0.0
mp-639978,UMnO4,0.9722000000000001,-3.153386285993333,0.0
mp-1017988,SrCaO2,3.3236,-3.153317308125,0.0488901099999994
mp-7738,LaSeF,1.726099999999999,-3.153178626594584,0.0
mp-6468,BaNd2ZnO5,3.056,-3.1531484345833336,0.012473674907417
mp-686583,Na5Zr4Si3(PO8)3,4.1737,-3.153135098956045,0.0198717930769234
mp-756854,Sr2LiNb3O10,1.7679,-3.1527496482812487,0.0423583951562527
mp-29934,Zr6Ag7F31,2.799,-3.1526974859520447,0.0
mp-683947,SiO2,5.210199999999999,-3.1526415420833325,0.1320713654166674
mp-695515,Na13Zr8Si9(PO16)3,4.418699999999999,-3.1525372836948846,0.0080951898148109
mp-17037,Rb2Ti(SiO3)3,3.1377,-3.1524604941944436,0.0
mp-559417,LaB2ClO4,4.154100000000001,-3.1521109308241675,0.0
mp-767617,LiVF4,2.3609,-3.1519734157933343,0.0767494908333432
mp-767671,Li3VF6,2.5445,-3.1519522387140007,0.0716489238333268
mp-20135,Na2Ca2Ta3O10,0.0,-3.151868073088234,0.0597735807254906
mp-768887,Y(BO2)3,5.245,-3.1517198685000003,0.028938431000002
mp-744927,Na5CaAl5Fe(SiO3)12,3.234499999999999,-3.1516002086666672,0.0342744491406241
mp-559530,Ti5(PO5)4,2.891,-3.151325618817733,0.0
mp-554508,KYP2O7,5.065,-3.150937634540044,0.0
mp-756936,Sr3Li4La5O12,0.0,-3.150680596041667,0.0353454593750006
mp-12350,SiO2,6.1956,-3.1504316325,0.1342812749999993
mp-758272,Zr4N2O5,2.277,-3.1504174412281816,0.0183322465909068
mp-768906,YBrO,4.4876000000000005,-3.1503437329166672,0.0031107366666667
mp-14651,Zr2AgPdF11,0.5633,-3.1503339278726665,0.0
mp-40502,CsTiCoOF5,2.3608000000000002,-3.1502182037629627,0.0
mp-6964,NaTbO2,3.892299999999999,-3.1500642102083334,0.0
mp-39123,Na3Zr2Si2PO12,4.2135,-3.1498825629047613,0.0164892442499882
mp-755875,Ti3O4,0.0,-3.149860906428572,0.0552270757142867
mp-530986,MgSiO3,4.5226,-3.1497091378750013,0.1009012856250013
mp-755612,DyGaO3,3.6351,-3.149662790083333,0.0479540655999937
mp-556068,SiO2,6.180999999999999,-3.1495746573611116,0.1351382501388887
mp-11206,LiTi(SiO3)2,0.0,-3.149352115916667,0.033096632916667
mp-554824,La3RuO7,0.569099999999999,-3.149310683068184,0.0167769395454602
mp-753413,Ba2B2O5,3.8041,-3.1492316071759268,0.00549876
mp-771867,Ti3VO8,1.5775000000000001,-3.1491645824999988,0.1110272114583335
mp-17853,YGaO3,2.8953,-3.1490346189166663,0.0271597363333295
mp-559829,SiO2,6.106,-3.1489853925,0.1357275149999992
mp-767706,LiV2F7,2.0983,-3.148903118333,0.0787341294999901
mp-753901,Er2CuO4,0.0,-3.148887538571429,0.0332123755357276
mp-776616,LiV2F7,2.2743,-3.148866556833,0.0787706909999901
mp-30980,NaYO2,4.132999999999999,-3.1487481775,0.0
mp-505814,CsBa2Nb3O10,1.4077,-3.1485837076562504,0.0
mp-765548,LiVF4,3.0345,-3.1485566157933342,0.0801662908333433
mp-24469,CaAl4Si2(HO6)2,4.5346,-3.148507859154285,0.0084212761309547
mp-677437,Na3Zr2Si2PO12,4.4153,-3.1484587519047618,0.0179130552499886
mp-766862,Li2VF6,1.9304000000000001,-3.14808239746,0.0166330094444582