mpid,formula,BG,FE,e_hull
mp-772387,SnP6(WO8)3,0.0,-2.4913858948109247,0.0241835627206032
mp-18732,TiNiO3,2.886499999999999,-2.4913417460833345,0.0
mp-770698,Li2AlFeO4,2.9327,-2.49131697875,0.0951399209375001
mp-504849,Cs2Li2SiO4,3.8531,-2.491301838333333,0.0
mp-767239,Mn5O3F5,0.0,-2.4913017445769223,0.0954610999999872
mp-759715,KLi2Sb(PO4)2,3.431399999999999,-2.491259750085033,0.0820674438293611
mp-555355,SiO2,1.2528,-2.4912453258333342,0.7934675816666665
mp-774868,ZnP4O11,4.627,-2.4912050972581845,0.0064231759374973
mp-675668,Yb(PrS2)2,2.015,-2.491204605892858,0.0024562032142849
mp-767701,Mn2VFe3(PO4)6,1.0704,-2.4911910330692058,0.0068928254861155
mp-554822,CsSb(PO4)2,2.9469,-2.4911846392658727,0.0
mp-33631,TiZn2O4,1.4336,-2.4911591552380954,0.0463767408333337
mp-541332,Sr2LaGaCu2O7,0.0,-2.491085792211538,0.0154524808173199
mp-756818,LiSiBiO4,3.2515,-2.4910368540476187,0.0686088250595267
mp-765974,LiFePO4,3.3409,-2.4910163118707485,0.0605606378571419
mp-759360,LiBi(PO3)4,3.2667,-2.4909683049933857,0.0922801390277916
mp-774995,Fe5(OF4)2,0.9343999999999991,-2.490900032801333,0.0640738600000041
mp-761655,Li2CoP2O7,2.2452,-2.4908296379117068,0.0623913480902542
mp-765059,Li2VCrP2(HO5)2,1.983099999999999,-2.4908128508850265,0.0008000688888891
mp-763880,Li2VCrP2(HO5)2,1.9209,-2.49080946421836,0.0008034555555553
mp-762934,V2Fe3P6WO24,0.0,-2.490674743293651,0.0525445730208407
mp-776819,LiFeF5,1.100299999999999,-2.4906564126357145,0.0511335339285707
mp-851014,Li5Mn6(BO3)6,0.0,-2.4905928413788576,0.0320719194047427
mp-763423,Li2PWO6,2.8365,-2.490559585059525,0.0562972009294862
mp-684082,LiSb(PO3)4,4.0039,-2.4904810623544966,0.0468294163888733
mp-28541,Bi2P4O13,4.5172,-2.490399032033209,0.0
mp-767195,Mn5O3F5,0.0,-2.4903430515,0.0964197930769099
mp-863408,LiSiBiO4,3.0357,-2.4903400027380957,0.0693056763690505
mp-767108,LiMn2(PO4)2,0.8097000000000001,-2.490332584470036,0.071058160576924
mp-558224,Dy2(TeO3)3,3.2255,-2.4902601322916667,0.0
mp-763642,LiFeP2O7,2.0977,-2.49025020840368,0.0973153074999997
mp-765042,Li2VCrP2(HO5)2,2.1447,-2.490198608385026,0.0014143113888893
mp-555911,TlAsF6,4.6463,-2.4901551796425,0.0
mp-763879,Li2VCrP2(HO5)2,0.0,-2.490059574218359,0.001553345555556
mp-541330,Sr2SmGaCu2O7,0.0,-2.490039289326923,0.0112805511057505
mp-642725,CaHClO,5.327,-2.4900141882825,0.0
mp-546082,TmBi2ClO4,1.4059,-2.4899819597825,0.0
mp-776792,NaV3P2O13,2.1006,-2.489946505523183,0.0
mp-1020578,Sr4S3O,2.1146,-2.489927427929688,0.1442710362500001
mp-762468,LiFeP2O7,2.1889,-2.4898385315854976,0.0977269843181822
mp-765065,Li2VCrP2(HO5)2,1.6957,-2.4897948001442862,0.0018181196296289
mp-566386,NaMo2P3O13,2.433099999999999,-2.489723585554512,0.005338248947396
mp-562501,SiP3RuO11,0.005399999999999,-2.4896674661272327,0.0233375945833342
mp-765957,Li6V2O5F2,1.277299999999999,-2.4896026595753336,0.1003314849999972
mp-770824,Nb2P4H3O16,0.0,-2.489566524729638,0.0843353438999994
mp-851018,Li5Mn6(BO3)6,0.0,-2.489548191950288,0.0331165688333126
mp-1013911,Na2CoP2O7,3.0677,-2.489503314161706,0.0053402577777896
mp-560642,Na3SbP2O9,2.6288,-2.4894930918293654,0.0
mp-675406,Yb(HoS2)2,2.1723,-2.4894697594642863,0.0167681754761908
mp-550805,LuBi2ClO4,1.461799999999999,-2.4894576260325003,0.0
mp-555300,Na2Zn3(SiO4)2,2.7950999999999993,-2.4894244467777784,0.0
mp-850073,Li5Mn6(BO3)6,0.0,-2.4894190185217155,0.0332457422618848
mp-767623,LiMn2(PO4)2,0.0,-2.489269903508498,0.0721208415384619
mp-761478,LiFePO4,3.4132000000000002,-2.489266418656463,0.0623105310714278
mp-775763,AlBiO3,3.0461,-2.4892589277499995,0.0780916616249953
mp-4596,Sr2RuO4,0.0,-2.4892202857142864,0.0
mp-767440,Li2MnFe2(PO4)3,1.5432000000000001,-2.489211759262287,0.0605042695624833
mp-772012,LiFePO4,3.5669,-2.4892116361564627,0.0623653135714272
mp-753973,LiSnP2O7,0.0,-2.4891495927218616,0.0798561818181822
mp-781059,Li2MnP2HO8,1.1661,-2.489034324697891,0.0062374676785745
mp-765254,W(OF)2,1.6949,-2.489030643976001,0.0003751290000018
mp-19340,LiVO2,1.7771000000000001,-2.4888683006250005,0.0
mp-673126,LiSb(PO3)4,4.319999999999999,-2.4888424340211643,0.0484680447222061
mp-621994,NdOsO4,0.0,-2.4887934772916664,0.0
mp-764365,W(OF)2,1.7757,-2.488739092976,0.0006666799999983
mp-775685,V3Fe2Ni(PO4)6,0.0,-2.488679507182539,0.0264834636188293
mp-765421,Li8VCo3(PO4)6,0.0038000000000000004,-2.4886076392517,0.0928709047321554
mp-850163,Li3Mn3(PO4)4,0.7661999999999991,-2.48858691058696,0.0645756927884626
mp-761467,LiFePO4,3.1047,-2.488512448061225,0.0630645016666653
mp-757838,LiSn(PO3)3,4.06,-2.488486017716837,0.0664141641369049
mp-6443,Ba3CaRu2O9,0.0,-2.4884481020833333,0.0
mp-11174,K2IrF6,0.0,-2.4884460463488893,0.0
mp-4789,PrRhO3,0.6013000000000001,-2.4884305617500004,0.0
mp-566728,Nd2Te2W2O13,3.417399999999999,-2.4883526626973684,0.0
mp-773603,Na3V(BO3)2,2.0938,-2.488345349027778,0.0441837022916544
mp-774085,Li5Nb2V3O10,0.211599999999999,-2.488166239124998,0.0839061065000006
mp-850112,LiMn2(PO4)2,0.42890000000000006,-2.488146439470035,0.0732443055769245
mp-554591,K2Ca2(CO3)3,4.7388,-2.488146083359375,0.0099400028124971
mp-780557,Li3FeP2HO8,4.1768,-2.4880162849873653,0.0399967959999987
mp-761660,Li2CoP2O7,2.9702,-2.4879321874950397,0.0652887985069217
mp-19226,NaFePO4,3.8275,-2.4879258143707483,0.0
mp-767776,P4WO12,2.953099999999999,-2.4879005230812328,0.015392433823516
mp-30197,K3ErCl6,5.196899999999999,-2.487860101956,0.0
mp-14383,KGePO5,3.2291,-2.4878151889806546,0.0
mp-767211,LiMn2(PO4)2,0.0,-2.4877781329315733,0.0736126121153866
mp-757745,Ba4In2O7,1.367099999999999,-2.487691880673077,0.0817357761538479
mp-684090,LiSbP2O7,3.6516,-2.4876659265854983,0.0429952334848486
mp-976349,LuH2ClO2,4.8104000000000005,-2.487589080500001,0.0
mp-770892,VPO5,1.9487,-2.487546720977891,0.0284311425000378
mp-561664,TeF4,4.0186,-2.487541844952,0.0
mp-761707,Li2CrCo(PO4)2,1.035199999999999,-2.487518777942177,0.0336999766518033
mp-762448,Li6Fe3Sb(PO4)6,1.3198,-2.4875061520892863,0.0768332629749899
mp-771635,Li2NbVO4,0.0,-2.4874703956250004,0.1054029612499993
mp-32081,LiMo2(PO4)3,0.8795000000000001,-2.487459303015873,0.076411287638864
mp-699575,CoSiO3,2.6041,-2.487455564375,0.018127303375004
mp-773169,Li5Fe5(PO4)6,2.1622,-2.4872684007142865,0.056420051468728
mp-29500,Ge7F16,4.3804,-2.4872305458278263,0.0026524228260873
mp-774378,Li3Mn2Fe(BO3)3,2.6337,-2.4869749504538894,0.0018319507407422
mp-777193,NaLiMn2Fe4(PO4)6,1.3958,-2.486892270670828,0.0171978830482428
mp-779087,Li3Mn2Fe(BO3)3,2.6445,-2.4867995362872217,0.002007364907409
mp-778859,Li3Mn2Fe(BO3)3,2.6271,-2.486789480176111,0.0020174210185208
mp-767639,Li4Mn3(BO3)4,0.6554000000000001,-2.4866191358498546,0.0549225865217319
mp-695286,Li11Sc7Ti(PO4)12,2.518199999999999,-2.4865490923267024,0.6398245619620306
mp-771932,Li2V2SiGeO10,2.1096,-2.4864433579687493,0.046270544375
mp-780294,Li3Mn2Fe(BO3)3,2.6411000000000002,-2.4864201996205555,0.0023867015740757
mp-757997,LiSn(PO3)4,0.0,-2.4863471963822747,0.0762511062268407
mp-769817,LiVBO3,1.7401,-2.4863262517361107,0.0683201601388914
mp-780631,Li3Mn2Fe(BO3)3,2.642699999999999,-2.4863192857316663,0.0024876154629653
mp-778913,Li3Mn2Fe(BO3)3,2.659499999999999,-2.486271132953888,0.0025357682407429
mp-780297,Li3Mn2Fe(BO3)3,2.6528,-2.486263823231667,0.0025430779629642
mp-779888,Li3Mn2Fe(BO3)3,2.654199999999999,-2.4862567487872216,0.0025501524074087
mp-779905,Li3Mn2Fe(BO3)3,2.6487,-2.486213336009444,0.0025935651851876
mp-776001,Li4Nb3V3(SbO8)2,0.258499999999999,-2.4861367178571423,0.0954672764843733
mp-773385,Li3FeSiO5,2.2539,-2.4861255341249997,0.082554099999994
mp-557006,Na2SbSO4F3,4.4339,-2.4860467331938643,0.0
mp-566600,Ba4NaMn2O9,0.0,-2.4860313723856247,0.0
mp-762652,LiFe2P3O11,2.31,-2.485984741355041,0.0452006063235259
mp-766763,LiFePO4,3.3829000000000002,-2.4859557486564623,0.0656212010714281
mp-761447,Mn2Fe3P6WO24,2.4269,-2.4859266408469853,0.0051038811805153
mp-849413,Li5Mn6(BO3)6,0.0,-2.4858953342360004,0.0367694265476004
mp-758224,Li3Sn2(PO4)3,2.9297,-2.4857771470892858,0.0842284698333291
mp-763758,LiFePO4,3.5158,-2.48577346829932,0.0658034814285706
mp-565320,V8O15,0.6443999999999991,-2.485721961249999,0.0112979446739132
mp-779872,Li2V2P7HO24,1.4868000000000001,-2.48571955306352,0.0413151067939807
mp-849503,Li5Mn6(BO3)6,0.0,-2.4856835778074298,0.0369811829761701
mp-849498,Li5Mn6(BO3)6,0.0,-2.485638567093144,0.0370261936904565
mp-9262,Cs2PtF6,2.814,-2.485611330793333,0.0
mp-580541,Cs2NaSmCl6,5.0722,-2.4855546037060003,0.0
mp-754173,Sm2Cu2O5,0.0,-2.485534921805556,0.0934173926388908
mp-746030,NaFePO4,3.2918,-2.485394401870749,0.0025314125000113
mp-722684,KAlP4(H2O7)2,5.653,-2.4853058580983736,0.0
mp-850437,Li5Mn6(BO3)6,0.0,-2.4852885925217145,0.0373761682618862
mp-849508,Li5Mn6(BO3)6,0.0,-2.4851837016645724,0.0374810591190275
mp-976713,HoH2ClO2,4.7024,-2.485143161333333,0.0
mp-779026,Li4MnCr2Fe3(PO4)6,1.1417,-2.4850378164882847,0.0992368377499959
mp-19394,LiV2O4,0.0,-2.4850206314285708,0.0353866954166157
mp-779226,Li5Mn6(BO3)6,0.0,-2.4850037295217144,0.0376610312618854
mp-707307,Nd2P3(HO2)5,5.675,-2.4849647754942854,0.0138329239142382
mp-755757,Li2Sn(BO3)2,2.3637,-2.4849488859848488,0.0950749586363626
mp-771063,Li4Fe3Ni(PO4)4,3.043999999999999,-2.484938789013605,0.0018825500892862
mp-767837,LiVCO3F2,2.0703,-2.4849275298287505,0.0697512953125061
mp-765950,LiFePO4,3.5322,-2.4849005870493195,0.06667636267857
mp-761694,LiSn3Sb(PO4)6,2.5894,-2.4848966576734703,0.0078044781428578
mp-771552,Li5Ti2Mn5O12,0.113899999999999,-2.4848275826305564,0.0395052733333329
mp-755635,Ho2Pt2O7,1.506899999999999,-2.4847392689772736,0.0
mp-757131,Sn(PO3)4,3.3535,-2.484642116904762,0.0250509047058971
mp-691074,SrPrGaCuO5,0.24230000000000002,-2.484616465138888,0.1678609344444641
mp-780137,Li3Mn4(BO3)4,0.7077,-2.484606484152464,0.035526460688386
mp-567652,Cs2LiYCl6,4.8986,-2.484435421206,0.0
mp-570379,Cs2LiLuCl6,5.3389,-2.484428158956,0.0
mp-851023,Li3Mn4(BO3)4,0.7007000000000001,-2.484291110674203,0.0358418341666464
mp-19094,VO2,0.8578999999999991,-2.484274234166667,0.0
mp-510127,V6O11,0.739899999999999,-2.484208649338236,0.0173097289705932
mp-775104,Li3TiV4O8,0.0,-2.484150596666667,0.0543196776388921
mp-766913,VSn(PO4)2,0.042300000000000004,-2.484054202599207,0.0825997528125022
mp-762525,Li2Fe3P5O18,1.950699999999999,-2.4838992493920067,0.0694354500892808
mp-778357,Li4Cr7(PO4)6,2.1866,-2.483786692404182,0.0648221585162591
mp-774317,Li3VP2H2O9,2.4006,-2.483705301451794,0.0293462388970544
mp-761663,Li2CoP2O7,3.2618,-2.4836937274950395,0.0695272585069215
mp-774192,Li2VO3,1.6959,-2.483652016458334,0.0216533020833393
mp-684106,LiSbP2O7,3.9865,-2.4836123884036803,0.0470487716666658
mp-770949,Li2VPCO7,2.2484,-2.4835063978621026,0.0149142083333186
mp-540439,Mn(PO3)3,1.0507,-2.4834017508842856,0.0576455615384494
mp-541537,K2ZnSiO4,3.4888999999999992,-2.4833597976562496,0.0
mp-767585,Li3Cr4(PO4)6,0.0,-2.4833545025289587,0.0807107875337802
mp-772826,K2LiTi2(AsO5)2,0.0,-2.4832596657843133,0.1047939523529386
mp-769001,Li6Sn2B4SO16,3.469999999999999,-2.483232683645833,0.0584342582758576
mp-697769,Mo(PO3)4,1.863099999999999,-2.4831144089635857,0.0346877132352618
mp-757616,LiSn(PO3)4,0.0,-2.483112101521164,0.0794862010879517
mp-540459,LiCr4(PO4)3,2.6339,-2.4830751517142864,0.0279814008333367
mp-757569,LiSn(PO3)4,0.0,-2.482948309298941,0.0796499933101744
mp-31954,Mn5(P3O11)2,0.0,-2.482904222905196,0.0178990918181671
mp-762163,Li3TiMn2O6,0.0,-2.482813128840556,0.0678413745833328
mp-762716,Li2Fe3(SiO4)2,2.229599999999999,-2.482805966888888,0.0507089426111138
mp-762783,LiMn5P3O13,2.0967,-2.4827503575152594,0.0578143881818125
mp-560189,NaLi2BO3,3.9589,-2.482671593809524,0.0
mp-722780,Pr2P3(HO2)5,5.6653,-2.482614151619285,0.0131999712892385
mp-849255,LiMn3(P3O10)2,0.020200000000000003,-2.48258557154838,0.0606357135833217
mp-551702,Ba2CdReO6,0.0,-2.482519517750001,0.0
mp-13283,Sm(ErS2)3,1.056099999999999,-2.482424320687501,0.0
mp-770702,Li2AlFeO4,2.3434,-2.48240957625,0.1040473234375003
mp-767473,Li2FeP2HO8,2.3839,-2.4823340782007475,0.0
mp-19662,BaCrO4,2.9572,-2.482316723750001,0.0
mp-677520,KBa6Zn4(GaO3)7,2.4589,-2.4822724741346147,0.0
mp-20944,Sr2PbO4,1.3966,-2.4822538642857137,0.0
mp-705746,Ti3Fe5O12,0.9830999999999991,-2.48218048875,0.1006763150384664
mp-556332,V7O13,0.6304000000000001,-2.4821483748125006,0.0167833818750064
mp-984332,Rb2Sr2(CO3)3,4.6134,-2.4820738339843755,0.0028900378124987
mp-566366,Cs2V4O9,2.3216,-2.481961890083333,0.0
mp-18642,Ca(YS2)2,1.533699999999999,-2.4819413119642872,0.0
mp-759290,Li3Bi2(PO4)3,3.5627,-2.4818614484642856,0.0823628127500031
mp-850069,Li3Mn4(BO3)4,0.32680000000000003,-2.4818394198046376,0.0382935250362113
mp-765257,Li6V2O5F2,1.9696,-2.4817543952420005,0.1081797493333303
mp-541285,Th(TeO3)2,3.6292,-2.4815391738888883,0.0
mp-763946,NaFePO4,3.7034000000000002,-2.4815037268707485,0.0064220875000113
mp-778832,Li3Mn4(BO3)4,0.478099999999999,-2.481404773717681,0.0387281711231679
mp-774288,Li2V3CrO8,1.0848,-2.4813846505357136,0.0066961209077032
mp-1087,SrS,2.5006,-2.48136403703125,0.0
mp-861577,Li2VO3,1.750199999999999,-2.4812934922916674,0.0240118262500059
mp-699232,Mg7P2(HO2)8,4.852600000000001,-2.4812827847015293,0.0
mp-773957,Na3MnSiBO7,1.1301,-2.4812472120289746,0.0207212787499972
mp-6194,K4UC3O11,2.0892,-2.4811628540131583,0.0
mp-7027,InBO3,2.6517999999999993,-2.481148612083333,0.0
mp-26261,Li2Cu(PO3)4,0.8250000000000001,-2.481062983809524,0.0152965482017659
mp-19267,BaMnO3,2.0603,-2.481057710608666,0.0
mp-777105,LiFeB2O5,2.0172,-2.4810519446759267,0.07871710374999
mp-771384,Lu2Co2O7,0.0,-2.48103572125,0.0207032303409091
mp-684539,Li3Sb2(PO4)3,3.4734,-2.480962609964287,0.05001131675
mp-565758,V9O17,0.457999999999999,-2.480932461971153,0.0146167895192395
mp-709350,Sr5As5HO18,3.2622,-2.4808799882282755,0.0
mp-27017,LiSnPO4,3.4071000000000002,-2.480855869192176,0.0052768004166816
mp-759696,Li2Bi3P9O28,3.959099999999999,-2.48069675840136,0.0804587391666791
mp-866617,Cs2Sr2(CO3)3,4.6054,-2.480676701484376,0.0
mp-762801,Li2MnPO5,1.404,-2.4806526761450263,0.0817987656944563
mp-780790,Li2Mn2Si2O9,0.8885999999999991,-2.4806393597113336,0.0879337412333374
mp-549127,HoBi2ClO4,1.370999999999999,-2.4805877141575,0.0
mp-766847,WOF3,0.0,-2.480548680964,0.1356476285000063
mp-39259,BaLaZnRuO6,0.378999999999999,-2.4805208967500003,0.0424179953333681
mp-778894,Li8Mn5Fe3(BO3)8,2.9955000000000003,-2.4805115914194444,0.0034564964236079
mp-769725,Li4Ti3Cr3(CoO8)2,0.5375000000000001,-2.4803165146428574,0.0834048938558229
mp-675741,La10US16,0.0,-2.4800880787037043,0.044787249074079
mp-758376,Li3Sn2(PO4)3,1.9987000000000001,-2.480049836214286,0.0899557807083315
mp-767074,LiMn2(PO4)2,0.7093,-2.4800331798546504,0.0813575651923095
mp-6662,NaSr3IrO6,0.0,-2.480010607500001,0.0
mp-780292,Li8Mn5Fe3(BO3)8,3.0066,-2.4799678018361107,0.0040002860069421
mp-857354,LiSn3Sb(PO4)6,2.299,-2.479929701102042,0.0127714347142866
mp-759933,Li2Sn(BO3)2,2.385,-2.479819989166667,0.1002038554545441
mp-763543,LiP3W2O13,3.452099999999999,-2.479808770554513,0.0551346334648954
mp-744463,Li2Ti4Co(AsO5)4,2.7286,-2.479576242311828,0.0097853053225884
mp-707876,Ca3Be2P4(HO2)10,5.1849,-2.4794118073995115,0.0113904786538459
mp-707838,Ca3Be2P4(HO2)10,5.319100000000001,-2.4793462970148963,0.0114559890384615
mp-768702,Ta2Zn4O9,2.9471,-2.479304223416667,0.0545136846666665
mp-764616,LiFe2OF3,2.0239,-2.4792902314028566,0.0798559392857143
mp-707200,Na4P4H2O13,5.1224,-2.47921338025526,0.0236114811594312
mp-9323,Tb2S3,0.5791000000000001,-2.4792053152708333,0.0
mp-540393,CrPO4,1.200999999999999,-2.479195083015872,0.1226761400000011
mp-774976,Li8Mn5Fe3(BO3)8,0.043000000000000003,-2.4789718122527784,0.0049962755902743
mp-782715,Li2CoOF3,1.1839,-2.478907404974286,0.0946250676785718
mp-23331,Si3(BiO3)4,3.897899999999999,-2.4788849263157893,0.0
mp-780799,Li8Mn5Fe3(BO3)8,0.0,-2.4788343064194445,0.0051337814236074
mp-779395,Li8Mn5Fe3(BO3)8,3.0399,-2.478807708919444,0.0051603789236089
mp-767549,P4WO12,3.0049,-2.4787865695518216,0.0245063873529263
mp-757974,LiSn(PO3)4,0.0,-2.478742361660052,0.0838559409490642
mp-8727,Ba4PtO6,1.801599999999999,-2.478665610227274,0.0
mp-26312,Li4Cu(PO4)2,0.0,-2.478584542079365,0.0462018345000032
mp-752404,Ba2Sb2O7,0.9781999999999991,-2.478582036704545,0.0377806672727274
mp-774025,TiCr3(PO4)6,0.0,-2.4785624495658274,0.049261891709559
mp-757578,LiSn(PO3)4,0.0,-2.478560250548941,0.0840380520601744
mp-779832,Li8Mn5Fe3(BO3)8,3.037499999999999,-2.478552728502778,0.0054153593402741
mp-779765,Li8Mn5Fe3(BO3)8,2.9851,-2.4785193051694443,0.005448782673608
mp-776747,V3Fe2Te(PO4)6,0.0106,-2.47850083718254,0.0464927264236179
mp-780436,Li8Mn5Fe3(BO3)8,3.0049,-2.4784851528777767,0.0054829349652756
mp-771457,NbFeO4,2.024,-2.4784627725,0.0883834016666647
mp-672959,Li2Cu(PO3)4,0.800299999999999,-2.478445079862156,0.0179144521491316
mp-775395,Mn3Cr(PO4)4,0.18399999999999903,-2.4784104118858727,0.015428905937501
mp-778882,Li8Mn5Fe3(BO3)8,0.065,-2.4783875093361107,0.0055805785069411
mp-763520,LiPWO5,2.2083,-2.478367335855656,0.0231929503124952
mp-765402,Mn3VCr2(PO4)6,0.0,-2.478363673373652,0.0828163923610976
mp-694929,SrLaTa2(NO)3,1.0135,-2.478325525589001,0.0204145632499326
mp-768820,Li3Bi(BO3)2,3.4538,-2.4783170129861105,0.0
mp-557391,Na2Ca2(CO3)3,4.8329,-2.478291000234376,0.0
mp-774396,Li8Mn5Fe3(BO3)8,0.0,-2.4782591255861117,0.005708962256941
mp-767683,LiVP2HO7,2.6279,-2.4782560882133717,0.0580831826302041
mp-774299,Li8Mn5Fe3(BO3)8,2.979,-2.478236519544444,0.0057315682986081
mp-777276,VCr2Fe3(PO4)6,0.0,-2.4781897627380953,0.0541144970138916
mp-18529,Tm2S3,2.2738,-2.4781818396875,0.0
mp-757966,Li3Sn2(PO4)3,0.0,-2.478087484214285,0.0919181327083293
mp-766774,LiFePO4,3.2165,-2.4780842765136057,0.0734926732142851
mp-567044,K3Sc(MoO4)3,3.9435000000000002,-2.478080199210525,0.0
mp-510294,Sr2CuWO6,0.0,-2.47801686175,0.0430055229000005
mp-763382,Li2Co2Si2O7,2.8249,-2.4779944412499995,0.046905043269227
mp-754822,Li4Ti3Sn5O16,0.579299999999999,-2.4779646498214283,0.1012263700892823
mp-554719,Mg3B(HO2)3,3.4202,-2.4778920626943592,0.0115564098076923
mp-772228,CdP4O11,4.3777,-2.4778572713206843,0.0
mp-5472,Nb2Cd2O7,1.8871,-2.4778381857954552,0.0098679604545459
mp-769575,Li6Co5(P2O7)4,2.9488,-2.477731966377913,0.0147429820921924
mp-776713,Li3Mn4(BO3)4,0.049899999999999,-2.477702564152464,0.0424303806883852
mp-556002,Li6Cu(B2O5)2,0.7482000000000001,-2.4776362447222224,0.0446429953571314
mp-779299,Li3Mn4(BO3)4,0.0,-2.4776316789350723,0.042501265905777
mp-770860,Li4Mn2Fe3P6WO24,2.1268,-2.477439966012286,0.0822255660625002
mp-849525,Li2Fe3O3F5,1.9627000000000001,-2.4774199342076932,0.0970767909401688
mp-561076,La3GaS5O,1.196499999999999,-2.4774168614062497,0.0
mp-853130,TiNiO3,2.5877,-2.4773631550833337,0.0139785910000043
mp-759455,LiSbP2O7,3.3884,-2.4773587002218616,0.053302459848485
mp-698475,K4ErP6H6ClO21,4.8671,-2.477307517302601,0.0340677335256387
mp-541289,Y2S3,1.488,-2.4772905321041683,0.0
mp-762453,Li11V16O32,0.9520000000000001,-2.4771599600000003,0.0377506731991372
mp-754837,Hf2N2O,2.436,-2.477050990702,0.0729468289999957
mp-552008,DyBi2ClO4,1.3622,-2.476988234365834,0.0
mp-755314,Hf2N2O,2.0711,-2.4769485665353312,0.073049253166662
mp-546864,Y2C(NO)2,3.9662,-2.4769250085371417,0.0
mp-554155,KSb(PO4)2,2.9439,-2.47692378093254,0.0
mp-757431,LiSn(PO3)4,0.0,-2.476918596382274,0.0856797062268412
mp-776053,Li2TiMn2O6,1.5566,-2.476913300553333,0.0788638407386272
mp-754833,Hf2N2O,1.066599999999999,-2.4769009517019995,0.073096867999995
mp-675103,Sr6Bi2O11,1.0428,-2.476862790986842,0.0800769099122797
mp-565692,K3Bi5(PO4)6,4.0534,-2.476720896015037,0.0015727203947335
mp-770811,Si2As2O7,4.5533,-2.4766946714772726,0.0608960352272713
mp-649253,NbClF8,3.263,-2.476693130028,0.0
mp-781954,Fe5(OF4)2,0.8138000000000001,-2.476685717468001,0.0782881753333368
mp-1016823,BaGeO3,0.0,-2.47666919975,0.2340143754999993
mp-707219,K2Zr2ZnH12(OF2)6,5.1135,-2.4766684465777145,0.0
mp-762565,Li10Fe(SiO5)2,1.7148,-2.4766482898913043,0.0548854141304353
mp-20342,Yb2Sn2O7,0.0,-2.4766455312500004,0.0091885648863616
mp-505362,Ca(LuS2)2,1.581099999999999,-2.476578364821429,0.0
mp-770499,Mn4P2O9,2.1851,-2.4765616580853647,0.0128594629999909