mpid,formula,BG,FE,e_hull
mp-768505,LuGaO3,2.882799999999999,-3.23273131275,0.0
mp-18769,CeVO3,0.043599999999999,-3.232602641750001,0.0
mp-754825,NaTmO2,4.0764,-3.232204289375,0.0
mp-560889,Ba6Na2Si4O15,4.1718,-3.2319893281018515,0.0
mp-985587,Al2O3,4.8041,-3.2319582487500003,0.2101552519999998
mp-1019543,BaCaP2O7,5.3187,-3.2319109993127717,0.0023233760227272
mp-13323,Ba2EuNbO6,0.0,-3.2316224792500012,0.0
mp-1020123,MgSiO3,4.411099999999999,-3.2316170260000003,0.0189933975000027
mp-17812,Sm2SiTeO4,1.7845,-3.2314723643750005,0.0073947653124992
mp-28150,BaNb2O6,2.6143,-3.2313031897222215,0.0
mp-4321,MgSiO3,4.5304,-3.2312431765000005,0.0193672470000016
mp-621924,BaCdGaF7,4.4668,-3.2311748948330017,0.0
mp-19068,TmVO4,2.9583,-3.231090029166665,0.0
mp-756406,Li2Zr2O5,3.6528,-3.2307374612500004,0.0831567755555529
mp-865424,CsUO3,0.45710000000000006,-3.2305654087500013,0.0328369489999964
mp-744123,BaLa4TiCr4O15,1.881599999999999,-3.2302449138166662,0.0226788339999988
mp-11207,Pr3ReO7,0.0,-3.2302184267045466,0.0302403811363571
mp-23024,SrBrF,5.0003,-3.23007777873,0.0
mp-561423,ZrTlCdF7,2.2065,-3.2299610888329995,0.0
mp-849718,Na2Ti4O9,2.433099999999999,-3.2294410314166657,0.0225516104444434
mp-557024,SiO2,5.6788,-3.229398899444446,0.0553140080555554
mp-558703,Al3Pb5F19,5.1203,-3.229103163800369,0.0064197003240762
mp-676448,CsTiZnOF5,3.1448,-3.229002785985185,0.0
mp-14532,NaTa3O8,2.68,-3.228919476249999,0.0223532504166623
mp-777219,LiVF4,2.1186,-3.228722906626668,0.0
mp-558054,SrLi2Ta2O7,2.2704,-3.228636624479168,0.0
mp-849730,Na2Ti4O9,2.4246,-3.2285387339722216,0.0234539078888893
mp-17750,Pr2SiTeO4,2.084399999999999,-3.228461787500001,0.0
mp-17922,Ca2P2O7,5.5138,-3.2284302243127714,0.0
mp-15901,Li2LaTa2O7,0.0,-3.2283975923958343,0.0453148331249977
mp-17807,LiUNbO6,1.7534,-3.2283061827777795,0.0033073341666653
mp-19300,La2MoO6,2.792399999999999,-3.2282491936111097,0.0
mp-17959,Nd2SiTeO4,1.7858999999999992,-3.227542408125,0.006892364375
mp-754801,Li3Ti6O13,0.0,-3.2272232198295474,0.0687100435037812
mp-762371,NbOF3,3.9131,-3.2272141419639997,0.0871743944999989
mp-19381,DyCrO3,2.4922,-3.227161561083333,0.0
mp-756014,Ba4HfO6,3.0638,-3.227148077954545,0.0631712777272737
mp-1019735,BaNaEu(SiO3)3,0.002499999999999,-3.226888000083334,0.0028260765000016
mp-583714,Pr5O9,2.8244000000000002,-3.2268792249107148,0.1216202641517867
mp-18960,ErVO4,2.9661,-3.22665981,0.0
mp-556421,NdVO3,1.034099999999999,-3.2265497532500005,0.0
mp-4574,YbTaO4,0.0,-3.226434669166668,0.0
mp-18784,DyVO4,2.9764,-3.2263753427777786,0.0
mp-6259,SrLi2Ta2O7,2.1666,-3.226333804895833,0.0023028195833347
mp-676339,BaTa2O6,3.618999999999999,-3.2261545236111107,0.2335935433333347
mp-559931,VF3,1.549799999999999,-3.2260087596425,0.0
mp-556820,Sm3Si2Cl5O6,4.6078,-3.2257143066437504,0.0
mp-18220,LiAlSiO4,5.054499999999999,-3.2255608669047624,0.0
mp-554479,Ba3BPO7,3.3373,-3.2252042344593264,0.0180465464583328
mp-974451,K2Al2O3F2,4.0212,-3.225040701236667,0.0108708463725495
mp-18993,LuVO4,2.9436,-3.224781455,0.0
mp-19121,TbVO4,2.9828,-3.224773748055556,0.0
mp-3531,Ca2P2O7,5.4165,-3.2247241561309528,0.0037060681817919
mp-579086,KSrNb2O6F,1.792599999999999,-3.224519676244547,0.0
mp-676378,Sr6Ta2O11,2.399899999999999,-3.224092410460526,0.1464736686842007
mp-6032,SrSi2(BO4)2,5.4873,-3.2240656712179474,0.0
mp-780539,LiVF4,2.4354,-3.2239324232933337,0.0047904833333429
mp-557092,Y3Si2Cl5O6,4.5564,-3.2239279788312496,0.0134547087500003
mp-19965,K4BaU3O12,1.9861,-3.2238332847499995,0.0361057552500021
mp-676519,Sr6Nb7O21,0.0,-3.223731390772058,0.0127021680881451
mp-558578,Li3VF6,2.4336,-3.2236011625473333,0.0
mp-5401,Sr2B2O5,4.283,-3.2234856827314813,0.0
mp-578953,YbZr6(PO4)9,0.0,-3.223430444285714,0.0
mp-626161,Al5HO8,4.7661,-3.223366274901428,0.0055577332142844
mp-555420,NaLiTi3O7,2.623399999999999,-3.2232079411458336,0.0004923785416668
mp-693753,BaNa5Ca7P6(O8F)3,4.816800000000001,-3.223173267546553,0.0
mp-19179,Ba2V(SiO4)2,2.587899999999999,-3.222663001153846,0.0
mp-754998,Ce2SeO2,0.0,-3.2225945082187493,0.0457683219999989
mp-541996,Pr2SiTeO4,1.7631000000000001,-3.2223151274999986,0.0061466600000006
mp-555296,YbTaO4,0.0,-3.2222625125,0.0041721566666836
mp-15902,Li2Ca2Ta3O10,0.0,-3.2222117301470585,0.0375760522745132
mp-21332,LiGdO2,3.280399999999999,-3.2222042200000014,0.0
mp-17741,Sm2ReO5,0.7924999999999991,-3.2220475970312483,0.0
mp-758371,YbAlO3,0.0,-3.2218983867500013,0.0
mp-557384,MgUB2O7,2.2225,-3.2213042560984864,0.0
mp-18560,NpPO4F,0.0,-3.2211028540050344,0.0
mp-755756,Y2TeO2,1.0487,-3.221069265500001,0.0
mp-555050,BaNb2O6,2.9040999999999992,-3.2209369858333337,0.0103662038888892
mp-694922,BaLa5TiCr5O18,1.9947000000000001,-3.2208571633055545,0.0214838679166824
mp-8846,Ba3Nb5O15,0.0,-3.220767739945652,0.0035593396195654
mp-776170,LiTi2O4,0.0,-3.220405029404763,0.0404853267856974
mp-761164,LiNbF5,0.063399999999999,-3.2203455644214287,0.0890136799047622
mp-18274,Ba4LiNb3O12,2.579799999999999,-3.22033342825,0.0
mp-600050,SiO2,5.8144,-3.220212260416668,0.0645006470833315
mp-676684,Sr4Nb2O9,3.25,-3.2201944520833328,0.0855096773333397
mp-40873,Ba3Na2Ti3Nb2O15,1.5631,-3.22001336235,0.0288047584599979
mp-685194,Li4Ti5O12,2.6703,-3.220010352301588,0.0
mp-766906,LiVF4,2.1007,-3.2199549357933344,0.0087679708333432
mp-780569,Ba8Nb7O24,0.0,-3.2199261843589753,0.0287569915384455
mp-675416,Sr4Nb2O9,3.0104,-3.219720595583333,0.085983533833339
mp-558808,LiAl(SiO3)2,4.9005,-3.21964446325,0.0244515357222274
mp-6326,LiAlSiO4,4.8474,-3.2194062392857146,0.0061546276190469
mp-760378,LiTi2O4,0.0,-3.2193413111904756,0.0415490449999858
mp-3387,CaSiO3,3.653799999999999,-3.2193181297500004,0.2415396739999993
mp-1019747,K2Ca3Si3O10,4.1202,-3.219311004305556,0.0
mp-581584,Cs2U(SiO4)2,2.2215,-3.2191940745192302,0.0
mp-774715,Ba4LiNb3O12,2.4458,-3.2191518768750003,0.0011815513749997
mp-1019542,BaCaB2O5,4.4673,-3.218916856203703,0.0
mp-769920,TbCrO3,2.4854,-3.2188705979166685,0.0
mp-9753,Na2NbF6,0.28850000000000003,-3.218852693015555,0.0
mp-557591,SiO2,5.6144,-3.218765815138889,0.0659470923611103
mp-767057,SrLiLa3MnO8,1.6632999999999991,-3.2187076486399984,0.0092664829910749
mp-754480,GdYO2,0.0,-3.2182784275,0.088363061041667
mp-25479,La4CoO8,0.297199999999999,-3.218105270000001,0.0372749422596303
mp-768469,TmGaO3,2.9219999999999993,-3.21797656175,0.0
mp-6327,LiAlSiO4,4.798599999999999,-3.217909993095238,0.0076508738095242
mp-675532,LaTi6O12,0.0,-3.2177408565789487,0.3061775479605249
mp-554263,Ca2BClO3,4.5762,-3.217605104810953,0.0
mp-1008677,TiO2,1.056499999999999,-3.217511016388889,0.3013199641666677
mp-554475,LaNb2ClO6,2.5637,-3.217312552576,0.0163041968333317
mp-17620,TmBO3,2.3564,-3.2171142614166666,0.3185168843166615
mp-767647,LiVF4,2.4038,-3.2171049920433337,0.0116179145833434
mp-766737,LiVF4,2.06,-3.2170917870433344,0.0116311195833427
mp-4853,CaSiO3,3.5088,-3.21664856525,0.2442092384999999
mp-4356,CaSiO3,3.527899999999999,-3.21659180425,0.2442659995000005
mp-756013,PrSiO4,0.0,-3.2165740983333326,0.1063434498958297
mp-3382,CaSiO3,3.514599999999999,-3.21656512875,0.2442926749999996
mp-776726,LiV2F7,1.7058,-3.216538595083,0.0110986527499905
mp-6748,Cs2Ti(Si2O5)3,3.5085,-3.2165310191840266,0.0
mp-754334,NaTmO2,4.1184,-3.216503835625,0.0157004537499991
mp-769384,Li3NbOF6,4.9368,-3.216308868944545,0.0520072857954554
mp-27187,Be2TlF5,4.9163,-3.2163055348062497,0.0
mp-667200,NaCa2TiSi2O8F,3.7375,-3.2160503620237786,0.197211319916664
mp-8146,SrPuO4,0.0,-3.2155552236458327,0.0
mp-765007,VF3,1.6507,-3.2155436477675003,0.0104651118749981
mp-676491,Ca3Yb2Zr3Ti8O28,2.6925,-3.2154623340530306,0.3631140973295484
mp-8985,Ba2YC2(O2F)3,5.263999999999999,-3.2154117459692864,0.0
mp-677780,Ca2MgSi2O7,4.233700000000001,-3.2151234582291672,0.1972183572916659
mp-776437,LaTa2NO5,2.1631,-3.2150868876255556,0.0340705136111072
mp-697278,NaCaAlH2OF6,6.5999,-3.2150164888025,0.0216606214583334
mp-677067,Ca3Al4Si8(ClO12)2,3.6088,-3.2149759101590245,0.1320418528658526
mp-636827,TiO2,2.7733,-3.214954247638889,0.3038767329166792
mp-560513,Gd3Si2Cl5O6,2.531,-3.2148903196125,0.0
mp-763439,Li3VF6,2.4726,-3.214763275964001,0.0088378865833274
mp-722997,NaCaAlH2OF6,6.6368,-3.214441284219168,0.0222358260416655
mp-705054,Cs7U8V2ClO32,1.521299999999999,-3.2143684547652005,0.0018208101500007
mp-769464,LiLa3MnO7,2.222399999999999,-3.2143306210175004,0.0
mp-10837,Na2MgInF7,4.9737,-3.2143003116663635,0.0
mp-554539,Ca6Si3H2O13,4.47,-3.214294453687085,0.0109755961458342
mp-556662,SiO2,5.5589,-3.2139687316666667,0.0707441758333331
mp-555387,BaSi2(BO4)2,5.5233,-3.2137661214102566,0.0
mp-776939,LiVF4,2.1946,-3.213510714126667,0.0152121925000097
mp-754162,LiGdO2,3.062599999999999,-3.21341701375,0.0087872062499929
mp-6824,Na2ZrSi4O11,4.5766,-3.213389597986111,0.0
mp-553248,CsLaNb2O7,1.4413999999999991,-3.213316743522727,0.033214214431819
mp-776626,LiVF4,2.4317,-3.2133016849600007,0.015421221666676
mp-778010,LaTa2NO5,2.0492,-3.2131858751255544,0.0359715261111084
mp-779988,SrLiLa3MnO8,1.5871,-3.213062964354285,0.0149111672767894
mp-560297,LiTaSiO5,3.7965,-3.21291153640625,0.0
mp-776622,LiV2F7,2.101499999999999,-3.2128312793330003,0.0148059684999903
mp-757953,ThNb4O12,1.3104,-3.212770825,0.0756525964705865
mp-777566,LiVF4,2.1702,-3.212364049960002,0.0163588566666756
mp-755342,LuGaO3,2.5134,-3.21172285375,0.0210084589999999
mp-766543,Li7Ti11O24,0.0,-3.2116460067460317,0.0316222895238134
mp-15095,Ca3Si2SnO9,3.4383999999999992,-3.2116236574166668,0.0
mp-558569,SiO2,5.6388,-3.211604322638889,0.0731085848611119
mp-559460,Cs2Ti(Si2O5)3,3.290199999999999,-3.2115208989756936,0.0050101202083343
mp-675692,LiTi2O4,0.0,-3.211403164523811,0.0494871916666497
mp-558200,SiO2,5.317699999999999,-3.2112561170833325,0.0734567904166674
mp-18582,Rb2Ti(Si2O5)3,3.485299999999999,-3.2111128577256944,0.0
mp-7914,NaScO2,3.979999999999999,-3.2111040893750005,0.0
mp-684585,Gd2O3,0.0,-3.2108536347500007,0.6951953369999995
mp-859110,Ta7BiO19,3.0205,-3.2106277155092577,0.003313591574118
mp-554059,Sr2UZnO6,1.8036,-3.2105541782500007,0.0533856925
mp-6340,LiAl(SiO3)2,5.368399999999999,-3.2105010540000007,0.0335949449722265
mp-41837,RbTiZnOF5,3.1708,-3.2103083732074063,0.0003019542129685
mp-540577,KZr2(PO4)3,4.2822000000000005,-3.210034532182541,0.0
mp-1019745,K2Ca3Si3O10,4.7468,-3.209772432361111,0.0095385719444438
mp-559571,ZrB2O5,3.7946,-3.2097583230729163,0.0
mp-677636,Sr22Nb10O47,2.365199999999999,-3.2095202828955687,0.0853989156962056
mp-1019744,K2Al2Si3O10,4.3747,-3.2091194375,0.0180367234191187
mp-6419,CaSi2(BO4)2,5.6644,-3.2091097375641024,0.0
mp-555155,KNa2Y(Si2O5)3,4.8143,-3.20888830305,0.0
mp-646967,Ca3Mg3(PO4)4,5.0058,-3.208728360347985,3.176743589783371e-05
mp-755526,Ba2Ti6N2O11,1.9033,-3.2086887142147624,0.0189669499195126
mp-3285,Na2Ta4O11,3.4657,-3.208583887867646,0.0
mp-753719,SrLiNb2O6F,1.7698999999999991,-3.208575843971819,0.0323610852272686
mp-755881,Ba2Ti6N2O11,1.8813,-3.2083600451671432,0.0192956189671313
mp-690914,KNaMg5(Si2O5)6,4.7418000000000005,-3.2083249075,0.0
mp-2458,TbO2,0.0,-3.2082661252777784,0.1267074549999982
mp-561457,CsAlSiO4,4.458200000000001,-3.2082328335714285,0.0
mp-764360,LiVF4,2.064,-3.208014443293333,0.0207084633333432
mp-15922,Gd2ReO5,0.7654999999999991,-3.2080028857812497,0.0
mp-1416,NbF4,0.0,-3.2078818049519997,0.0688641969666656
mp-16035,Gd2TeO2,1.0708,-3.2077625465000015,0.0
mp-559419,Ba9LiSi10C(ClO4)7,4.6715,-3.207684742327143,0.0011237327455351
mp-677250,K2LuZr(PO4)3,4.3151,-3.207407907330828,0.0
mp-531864,Al24Zn3O40,0.0,-3.2073989761940296,0.0554090828917939
mp-756560,Li2Ti3O7,2.485399999999999,-3.207356231979167,0.0500066988541831
mp-542874,LiAl(SiO3)2,5.303800000000001,-3.20735089325,0.0367451057222272
mp-769785,ScVO3,1.5053,-3.206986252750001,0.0503473579999909
mp-772938,Li2Ta4O11,3.4741,-3.2068277478676466,0.0279863067647099
mp-703276,Ca5Al11TlSi13O48,0.45530000000000004,-3.206742974294872,0.1694570565170963
mp-16033,Sm2TeO2,1.422399999999999,-3.2066867595000006,0.0
mp-5586,NaErO2,4.0544,-3.2064849625000003,0.0
mp-558713,LiAlSiO4,4.6935,-3.2061820354761905,0.0193788314285718
mp-560235,K9Sm3Si12(O16F)2,4.5766,-3.2061321774117237,0.0
mp-559489,K2ZrSi2O7,4.5246,-3.206089379479168,0.0
mp-19133,YVO4,2.9705,-3.2060571987499986,0.0
mp-754502,SmYO2,0.0,-3.2059760043750014,0.0951139670312475
mp-4658,La(BO2)3,4.542,-3.20576246125,0.0042922957999973
mp-6763,K2Ti(Si2O5)3,3.254,-3.205560580642361,0.0020866593750064
mp-14030,Na2LiY(Si2O5)3,4.6025,-3.20555377005,0.0
mp-764895,LiVF4,2.3275,-3.2053643549600017,0.0233585516666758
mp-760062,Na3Ti8O16,0.0,-3.2051918447530863,0.03811250515432
mp-680374,KAlSiO4,4.6996,-3.205149230535714,0.0
mp-11601,NaErO2,4.0684,-3.205078428125,0.0014065343750004
mp-615420,U3CuO10,0.32229999999999903,-3.204856960178572,0.0415876342857153
mp-682067,KCaNb2O6F,2.7607,-3.204838938062728,0.0095763222272733
mp-8986,Ba2GdC2(O2F)3,3.0692,-3.204758514897858,0.0
mp-554929,CsNdNb2O7,2.3868,-3.2046263619318194,0.0213471821590882
mp-1020009,Li2Ca2Si2O7,4.7378,-3.2046205973397432,0.0100487956410253
mp-41283,BaLaTaMnO6,0.9447999999999991,-3.203972451846,0.0915678908571422
mp-19323,SmVO4,3.0043,-3.2039600920833315,0.0
mp-755353,Sr2Ti6N2O11,1.7830000000000001,-3.2037943770719046,0.0250885647647614
mp-753472,NbAlO4,2.8606000000000003,-3.2037145870833332,0.0385989895833382
mp-42255,NaCaNb2O6F,2.7833,-3.2035896316990917,0.0052523301136346
mp-686765,YTi2CdO6F,1.349199999999999,-3.203489819047576,0.1412848215909186
mp-686726,LaTiAlPbO6,1.8576000000000001,-3.2034597149166677,0.0526563366999965
mp-560173,KAlSiO4,4.5482000000000005,-3.203401312857144,0.0017479176785757
mp-556544,LiAlSiO4,5.021,-3.203397068214285,0.0221637986904772
mp-3696,UNb3O10,0.0,-3.203091345535714,0.0221659864880532
mp-675424,Ba2P2O7,4.5725,-3.2030737419642854,0.0369647843939482
mp-755813,Sc6N2O5,0.0,-3.2030654277699986,0.0
mp-559298,La5Sb4(O4F)3,3.3074,-3.2029866459820835,0.0
mp-9480,KAlSiO4,4.5009999999999994,-3.202905274285714,0.00224395625
mp-13541,Sr2Mg(BO3)2,4.579700000000001,-3.202882695530303,0.0
mp-555860,EuTiClO3,0.0,-3.2027299147794444,0.001044407083329
mp-772869,Ta7InO19,2.0335,-3.2026099671759267,0.0367731975925931
mp-8355,KAlSiO4,4.5002,-3.2025573035714285,0.0025919269642908
mp-619836,Nd4V5(Si2O11)2,0.7793999999999991,-3.2023483096428595,0.0199088396339295
mp-772825,Ta2BeO6,3.370999999999999,-3.202202948055556,0.0994549877777757
mp-1020615,Y2SiP4O15,5.5755,-3.2021330295968613,0.0
mp-6434,RbAlSiO4,4.3806,-3.2019217075,0.0
mp-559608,K3NdSi7O17,4.713500000000001,-3.2017970511160714,0.0
mp-541217,BaHo2CoO5,1.8403999999999991,-3.2017937931944456,0.0
mp-644879,MgSiO3,4.5951,-3.2015359194999995,0.0490745040000026
mp-755491,Sr2Ti6N2O11,2.1566,-3.2014367699290487,0.0274461719076182
mp-558203,SiO2,5.8698,-3.201278308229167,0.0834345992708325
mp-770092,HfP2O7,5.2942,-3.200956928494048,0.0
mp-562434,Cs3Ta5O14,3.788499999999999,-3.200801251704543,0.0
mp-6452,BaSm2ZnO5,3.2387,-3.2007965040277786,0.0093176583796266
mp-18989,LaVO4,3.5130999999999992,-3.200778884583334,0.0357007937499993
mp-768745,HfP2O7,5.4604,-3.200327408244049,0.0006295202499977
mp-6793,BaLa2ZnO5,3.1916,-3.200274000694445,0.0133737412962959
mp-776466,Ba2Ti6N2O11,2.1391,-3.2001090008814286,0.0275466632528456
mp-675648,Pr9Be4O20,0.030899999999999,-3.2000283225757573,0.1121957813447052
mp-18725,YCrO3,2.4831,-3.1997747022499987,0.0
mp-556994,SiO2,5.3498,-3.1996927258333323,0.0850201816666675
mp-559586,BaNa2Nd2Si4CO15,4.8248,-3.1991110122500004,0.0
mp-560978,Ba4Al2O7,3.5745,-3.199104424134616,0.0
mp-760083,Sr5Nb5O16,0.0,-3.198848954999999,0.0532886144231223
mp-975622,Rb2Al2Si3O10,4.6713000000000005,-3.1987362119117635,0.0177957073529455
mp-557134,SiO2,5.4591,-3.1986930633333324,0.0860198441666675
mp-557861,Li2CaTa2O7,2.1401,-3.198656624895834,0.0192545142460289
mp-19406,La2MgMnO6,1.9571,-3.1984856378460003,0.0
mp-561259,Na3NbOF6,5.0991,-3.1982926600809094,0.0
mp-559689,LiAlSiO4,5.0525,-3.1982793892857133,0.0272814776190486
mp-694958,Na2Li5Al7Si29O72,3.239999999999999,-3.198242802086957,0.0571834374782476
mp-557468,K5V3F14,0.0,-3.1975040584845456,0.0
mp-775944,Ba2Ti6N2O11,1.445,-3.1973656375480948,0.0302900265861794
mp-19599,Ca3Cr2(SiO4)3,3.222899999999999,-3.197343779000001,0.0
mp-766953,LiVF4,0.0,-3.1966589257933333,0.0320639808333247
mp-25065,Sm2MoO6,2.2312,-3.1966161263888875,0.0
mp-555104,Na2Er2B2O7,4.3493,-3.196382045544872,0.0
mp-19477,Mn2Al4Si5O18,3.907,-3.196362420324826,0.0
mp-770700,Li2Ti3O7,2.8666,-3.1961937523958337,0.061169178437515
mp-772232,Tm2P4O13,5.629399999999999,-3.196010209664787,0.0
mp-505346,Eu3(BO3)2,0.3684,-3.1956357687121213,0.0
mp-558895,Cs2KVF6,2.536299999999999,-3.1955136107140008,0.0
mp-861268,LiLaNb2O7,1.3900000000000001,-3.195394492613637,0.0777130386363644
mp-10339,SrNbO3,0.0,-3.1952958097500015,0.007507359666711
mp-1020661,NaAl(SiO3)2,4.544399999999999,-3.1948947267500003,0.0130274036874977
mp-680387,PrYSi2O7,0.618999999999999,-3.194868913750001,0.4595514295454528
mp-754969,TmBrO,4.3469,-3.1946491154166665,0.0
mp-561154,La(BO2)3,4.1959,-3.1945678822500003,0.0154868747999969
mp-42227,Cs2ZrTlOF5,4.1425,-3.1944103107200004,0.0167868572500022
mp-555147,SiO2,5.3615,-3.1943033633333333,0.0904095441666665
mp-12427,Sr2TaGaO6,4.0418,-3.1942961047500003,0.0
mp-10093,Sr2YbNbO6,0.0,-3.194225077250002,0.0190216721666605
mp-532727,K2YZr(PO4)3,4.564,-3.1941172369360906,0.0
mp-8796,Sr2LiSc(B2O5)2,4.626,-3.1940560018981468,0.0
mp-765420,Li11V4F24,0.0,-3.1939716816297437,0.0160404603846187
mp-8376,MgAlBO4,6.0077,-3.1939657773809524,0.0
mp-640553,BaNb2O6,1.7859,-3.1938570113888898,0.0374461783333313
mp-772925,Li4Ti5O12,3.0153,-3.1937390673015877,0.026271285000007
mp-677550,Ca5Al12Si12(AgO24)2,2.194,-3.19357392658228,0.1217161304272132
mp-554023,Be2BO3F,6.3561,-3.1935622066580955,0.0
mp-559187,NaVF4,2.0363,-3.1933491970433336,0.0
mp-6578,Ba3B(PO4)3,5.0114,-3.1930586664974947,0.0020625230263142
mp-560131,SiO2,5.685499999999999,-3.1928602139583333,0.0918526935416661
mp-754469,Er2TeO2,0.542399999999999,-3.1926316565000006,0.0
mp-773164,Gd2V2O7,0.980499999999999,-3.192325892159092,0.0254236981818198
mp-771521,LiLa6Mn3O14,0.034399999999999,-3.1922900033491657,0.0453110993750005
mp-7800,LiSmO2,3.7006,-3.192186725625,0.0092574517187502
mp-764965,Li3VF6,2.494,-3.1921647327139997,0.0314364298333353
mp-554854,CsLuP2O7,5.1874,-3.1920373049945883,0.0
mp-19364,BaDy2CoO5,1.843599999999999,-3.1917625093981488,0.0
mp-640790,Ba8Nb6CoO24,0.0,-3.1917261415384615,1.9656410227497645e-05
mp-6372,K2Be3Zn2F12,5.675800000000001,-3.1917239474621053,0.0085175164473687
mp-645340,Nd(BO2)3,5.254899999999999,-3.1914895878125003,0.0
mp-766168,Ti4SnO10,1.7655,-3.1913253389444445,0.0487104073333313
mp-754827,Tm2TeO2,0.41440000000000005,-3.1912920585000015,0.0
mp-556364,Ca2SiCl2O3,5.1049,-3.19128048284625,0.0161749115625013
mp-556156,LiUBO5,1.9059000000000001,-3.191182700364582,0.0058676699107156
mp-3347,Be2SiO4,5.8262,-3.1910299147619052,0.0
mp-695048,GdTi2CdO6F,1.3352,-3.1909916220021226,0.1417224402272676
mp-565960,Na2Li8U11(WO22)2,1.2792000000000001,-3.190937562611942,0.0165395829850751
mp-18880,ErVO4,2.7173,-3.190846518333332,0.0358132916666669
mp-11112,Tb(BO2)3,4.9842,-3.1908287805833337,0.0231772349375027
mp-19295,LuVO4,2.604599999999999,-3.1906841958333345,0.0340972591666659
mp-540905,YAlGeO5,3.811,-3.190634900468749,0.0
mp-559434,Tb(BO2)3,5.294700000000001,-3.1904306048333324,0.0235754106875028
mp-756435,Sr3Nb4O13,0.988,-3.190101156812502,0.0980788626874975
mp-27407,Ca12Be17O29,3.6698999999999993,-3.189994701400862,0.0064923584482761
mp-779637,Ho2P4O13,5.6319,-3.1899610328226813,0.0
mp-10499,LiZr2(PO4)3,4.2387999999999995,-3.189933936210318,0.0
mp-561437,Al2Ge(O2F)2,4.0658,-3.189856974153334,0.0
mp-18812,NdVO4,3.0195,-3.1898382570833332,0.0
mp-776491,Lu2P4O13,5.4581,-3.189830704664787,0.0181598799342115
mp-556553,SiO2,5.1327,-3.1898165183333327,0.0948963891666672
mp-755617,NaHoO2,4.004799999999999,-3.1897419793749995,0.0
mp-19281,LaCrO3,2.164499999999999,-3.18942744825,0.0
mp-3020,BaNbO3,0.0,-3.1893749787500005,0.0
mp-776496,HfMnO3,3.0438,-3.189296106942,0.034400803500004