mpid,formula,BG,FE,e_hull
mp-775338,V3Cu2Ni(PO4)6,0.0,-2.33333531218254,0.0424070498688413
mp-1020018,Li5B(SO4)4,6.108199999999999,-2.3330926921314097,0.0080984869230755
mp-771729,Li4Mn3NbO8,0.0,-2.3329921808050003,0.0715893599999999
mp-772303,Sb2(PO4)3,0.0,-2.332942217605042,0.0197260440440976
mp-552537,Sr2CuBrO2,2.3439,-2.3328281587500004,0.0
mp-764873,LiFe4(BO3)4,1.6113,-2.332793729126984,0.0668621263095232
mp-773443,V3O7,0.0,-2.332746073541666,0.0391321048333299
mp-559755,Sm2(SeO3)3,3.9039,-2.332673892287947,0.0
mp-764738,LiFe4(BO3)4,1.7156,-2.3325190691269837,0.0671367863095255
mp-771069,Li2FeBO4,2.3452,-2.3323357705208334,0.0814479881249941
mp-752424,Ba4Br6O,3.6339,-2.332183221477272,0.085529676363639
mp-542152,P2Pb3O8,3.5298,-2.332105838553113,0.0193216846153907
mp-768031,MnOF,0.37669999999999904,-2.3320867836333328,0.0668633829166713
mp-850747,LiFe2P2HO8,3.255099999999999,-2.3320560062364635,0.0644533330357157
mp-781687,LiMnP2(HO4)2,1.0886,-2.332033077099319,0.0145134416071393
mp-765142,LiCoSiO4,1.5515,-2.332006662142857,0.1038003713571296
mp-764567,LiFe4(BO3)4,1.7979,-2.3320027484126986,0.0676531070238102
mp-763107,Li4Ti3Fe2Co3O16,0.14420000000000002,-2.3319664732142873,0.0499747592745478
mp-25526,FeP2O7,0.05330000000000001,-2.331962707994047,0.0445588924791682
mp-721618,SrB6(H4O7)2,5.2619,-2.3318732730675875,0.0041135615732743
mp-773971,Li4Mn2V3Cr3O16,0.43460000000000004,-2.3317740493542853,0.0749395165148847
mp-771773,Na2BiBPO7,0.029200000000000004,-2.3317357852926595,0.0765979527430555
mp-541611,La4Ru6O19,0.0,-2.3317339397844816,0.0
mp-676370,Yb3Ti3O14,0.0,-2.3317312618750003,0.4819046983125004
mp-572632,Mn2V2O7,1.456799999999999,-2.331692166879092,0.0040177868181583
mp-763633,Li3Ti2(NiO4)2,0.0,-2.33163751888889,0.0743230668961336
mp-770044,K3FePCO7,3.743,-2.3315538037957872,0.0067420850961532
mp-764617,LiFe4(BO3)4,1.5443,-2.331487273412697,0.0681685820238104
mp-780530,Na2MnPCO7,0.6287,-2.33146785335877,0.0
mp-764234,Li13Mn3Nb2O16,1.031299999999999,-2.331467319202352,0.0881979202941094
mp-770144,Na5LiFe2P2(CO7)2,3.5416,-2.3314544866804026,0.0115814576923058
mp-14778,Ca3Zn3(TeO6)2,2.129599999999999,-2.331266222250001,0.0
mp-684502,Sn2P3O10,0.340599999999999,-2.3311846894523813,0.1276475430416601
mp-773446,Na5LiFe2P2(CO7)2,3.6147,-2.3310722420650176,0.0119637023076908
mp-771590,Na3CrPCO7,2.5348,-2.3310149757188645,0.0307449294951895
mp-540946,LiReO4,4.0225,-2.3309500886111105,0.0
mp-648179,Cs3Mn3V4O16,0.889699999999999,-2.3308827031876933,0.0
mp-773529,Na5LiFe2P2(CO7)2,3.6025,-2.330804683218864,0.0122312611538442
mp-773414,Na5LiFe2P2(CO7)2,3.6191,-2.3307694345650183,0.0122665098076897
mp-773523,Na5LiFe2P2(CO7)2,3.5619,-2.3307482778342488,0.0122876665384596
mp-763129,Mn2Fe3Co(PO4)6,0.0,-2.3307385064025405,0.0595897590972276
mp-773528,Na5LiFe2P2(CO7)2,3.6439,-2.3306732226419413,0.0123627217307671
mp-684053,Sn6P7O24,0.0,-2.3306156878828843,0.0853915690709596
mp-849720,LiFe4(BO3)4,1.6524,-2.3306074272222226,0.0690484282142858
mp-769427,Li5Fe6(BO3)6,1.6005,-2.3305101195000004,0.0844529341428543
mp-3395,SrSeO3,3.6958,-2.3305087614687507,0.0
mp-771203,Li4MnCr3O8,0.6756000000000001,-2.3304985688099995,0.0089236943750119
mp-6989,BaSeO3,3.8804,-2.3304740344687502,0.0
mp-639662,CrF5,1.3584,-2.3304720197416664,0.0
mp-849704,LiFe4(BO3)4,1.4752,-2.3304059169841267,0.0692499384523817
mp-771530,LiV3O8,1.7675,-2.3303224604166672,0.0281537591667184
mp-763196,MnOF,0.0,-2.3303068011333337,0.0686433654166709
mp-556247,Dy3S3N,1.3945,-2.3302858795810724,0.0
mp-25591,NdNiO3,0.0,-2.33023048275,0.0
mp-943492,LiFeSO4F,4.1059,-2.330154214406564,0.0118619679687794
mp-1534,YS,0.0,-2.330015998281251,0.0
mp-560675,K6Cu(SiO4)2,0.5072,-2.330015008823529,0.0
mp-25772,Mn4Be3Ge3SO12,2.4229,-2.3299563642566308,0.0
mp-540340,Cr2(PO4)3,0.0,-2.3299367790756293,0.0540269906985315
mp-780032,Li4Co4(OF3)3,0.38230000000000003,-2.329858361973,0.0946309328124996
mp-555098,SrSeO3,3.8781,-2.3298287624687504,0.0006799989999937
mp-767783,FeP2O7,0.0,-2.329826314244047,0.046695286229168
mp-540861,KNa3Al4(SiO4)4,3.113699999999999,-2.3295707294642862,0.8465606673214285
mp-2470,DyS,0.0,-2.329553035364585,0.0
mp-764916,LiFe4(BO3)4,1.4879,-2.3294705257936505,0.0701853296428574
mp-23077,Cs2UCl6,0.1368,-2.32938102995111,0.0
mp-762896,LiFe4(PO4)3,2.211899999999999,-2.329320555714286,0.126942332500012
mp-777085,Li4Ni(BO3)2,3.4657,-2.329252399294872,0.0384264283974307
mp-8773,K3CO3F,3.8463,-2.3292231209300005,0.006951763125004
mp-761765,Li3Mn3SiO8,0.915,-2.328884869525333,0.0883822339583737
mp-755619,Sn2P2O7,2.7152,-2.3288519036309525,0.0579565063636247
mp-764536,LiFe4(BO3)4,1.515299999999999,-2.3288282781746026,0.0708275772619053
mp-554631,Sb2(PO4)3,0.05740000000000001,-2.328729365105042,0.0239388965441049
mp-762512,Mn3CrCo2(PO4)6,0.0,-2.328710069206986,0.048131845902767
mp-775044,LiVO3,2.087199999999999,-2.3286972667500003,0.1100415660000351
mp-767152,Ba3Fe3O8,0.0,-2.3286850371428565,0.0306465574574303
mp-550111,SmBi2BrO4,1.278299999999999,-2.3286366271875,0.0
mp-622930,Ba4In6O13,0.44170000000000004,-2.328600349402175,0.0235892265217385
mp-851295,Fe3Ni2P6WO24,2.5304,-2.3285828494047625,0.0190869304168526
mp-767922,Mn3CrTe2(PO4)6,0.0,-2.328531928929205,0.084423517936524
mp-850455,LiFe4(BO3)4,1.272699999999999,-2.3284865093650797,0.0711693460714286
mp-697761,MnPO4,1.15,-2.328356501092538,0.1294721816666761
mp-557354,Tm2Te4O11,3.2138,-2.3283139128676464,0.0032565047794115
mp-850745,LiFe4(BO3)4,1.4043,-2.328291926031746,0.0713639294047627
mp-707981,Y4H9NO13,3.3405,-2.3282180928225933,0.0
mp-31418,La(SbO3)3,1.486399999999999,-2.3282039435576936,0.0
mp-25975,LiCu(PO3)2,2.2293,-2.3281814203690474,0.0433601350416585
mp-779181,LiNbNiO4,3.4283,-2.328091291785715,0.0079339810713996
mp-771529,Li4MnV3O8,0.9354999999999991,-2.3280517675600008,0.1059281242187486
mp-763607,LiP(WO4)2,0.058300000000000005,-2.327965379007935,0.0716866477991473
mp-764472,LiFe4(BO3)4,1.4752,-2.3279174984126985,0.0717383570238094
mp-772422,Na6Fe2B4PO16,0.027999999999999,-2.3277883861986863,0.0423235900646554
mp-863917,LiNi(PO3)4,0.0026000000000000003,-2.3277051570767195,0.0803541167939947
mp-561689,CsLiMoO4,4.423999999999999,-2.327644439285713,0.0
mp-765253,MnF4,0.7666000000000001,-2.3274725991440004,0.0778679027500102
mp-775393,Li2Cr3SbO8,2.811199999999999,-2.327468761964285,0.0
mp-540345,Cr2(PO4)3,0.0,-2.327411175987395,0.0565525937867672
mp-764723,LiFe4(BO3)4,1.3741,-2.32732794031746,0.0723279151190485
mp-770327,Li4Ti3Fe3(CoO8)2,0.0,-2.3272223235714287,0.0998699814158206
mp-652195,Sr4Fe6O13,0.057799999999999005,-2.3272182998369573,0.035306552391277
mp-770744,Li4Nb2Fe3Sn3O16,1.5534000000000001,-2.327203555892858,0.0159560944642889
mp-773540,Mn5Ni(PO4)6,0.16559999999999903,-2.3271874375936505,0.0468003041145959
mp-780764,LiCuP4O11,0.34989999999999905,-2.3271788408018206,0.0820511310048601
mp-779091,LiFe4(BO3)4,1.173,-2.327123120555555,0.0725327348809532
mp-777908,Li2FeBO4,2.7011,-2.327120153333333,0.086663605312494
mp-560899,CaB3H5O8,5.5945,-2.327075686064706,0.0099389217647036
mp-762247,LiCoSiO4,0.702499999999999,-2.326923253571429,0.1088837799285578
mp-540142,Mo2P2O11,1.9934,-2.3269011616626982,0.0
mp-775471,Li3V4FeO12,0.0,-2.3268492857500007,0.0756347730000275
mp-556676,Na3Al2(AsO4)3,3.258,-2.3268414589999997,0.0
mp-9425,Sr2GaCuSO3,0.5552,-2.326838744726563,0.0406015794531251
mp-763053,Fe4O3F5,1.5083,-2.326774909141668,0.0681965145833247
mp-772733,Li3CrBAsO7,2.8933,-2.32674477926282,0.085877313846141
mp-764450,MnOF,0.0,-2.3267240619666665,0.0722261045833381
mp-759095,LiSn2P4H3O16,3.3251,-2.326713551470806,0.0404760349038468
mp-641281,Na4Pu(MoO4)4,0.15979999999999903,-2.3266922132749994,0.0297969393999988
mp-767290,Li6CrNiP2(CO7)2,1.845499999999999,-2.326690284565018,0.0693534298798281
mp-677095,Na2CaSn2(GeO4)3,2.3158,-2.3266383179999988,0.0
mp-557343,Zn3BPO7,3.196799999999999,-2.3264925740426587,0.022110752708337
mp-9216,Ca3Tl2O6,0.7309999999999991,-2.3264842309090907,0.0
mp-769718,Na5LiFe2P2(CO7)2,3.5831,-2.326396748218864,0.0166391961538439
mp-779926,Fe3(OF2)2,0.9337999999999991,-2.3263814663622213,0.1066857833333312
mp-865509,MnP2H2O7,4.368,-2.326314459011705,0.0
mp-27436,PaCl5,2.4189,-2.3262987043833334,0.0
mp-39440,Ca2MnIrO6,0.0,-2.326265248846,0.0014985745000002
mp-853163,Li4Co(OF)2,1.857799999999999,-2.3261938049866666,0.0837176463888909
mp-697913,HfP2(H3O5)2,5.2369,-2.3261912897584462,0.0173387485526204
mp-780163,LiVP4(H2O7)2,2.1292,-2.32615303476504,0.0519485191666637
mp-540349,FeP2O7,0.06280000000000001,-2.3260204854940474,0.0505011149791672
mp-764334,Li6MnO3F2,2.3954,-2.3258765176741667,0.1056028709722225
mp-561518,Mg2BiAsO6,3.342399999999999,-2.32572513525,0.0027103732187505
mp-770147,Li3FePCO7,3.3393,-2.3257064130265563,0.0915300553846147
mp-767337,Li2SiNiO4,3.0798,-2.325697911458333,0.0694910266666664
mp-19591,Mn4SiO7,0.8957,-2.3256430402158323,0.0545732659375115
mp-18164,Tb3S3N,1.4081000000000001,-2.3255467656525,0.0
mp-625465,Tm(HO)3,3.8243,-2.325471297087143,0.0357852241964282
mp-647218,Re2P2O11,0.597,-2.3254298181626987,0.0
mp-542676,Lu2Te4O11,3.2085,-2.3253822175735297,0.010488862864924
mp-720593,Na2B5H5O11,4.9627,-2.3252790475079705,0.0104654537944686
mp-768966,Li5BO4,5.3519,-2.3252538459166665,0.0927997774999998
mp-775004,Fe3P6WO24,0.08370000000000001,-2.325206729369748,0.0295590769914229
mp-760811,Li5Cu3F14,0.31509999999999905,-2.3251731166663645,0.0766276001515304
mp-778681,V3SnO8,0.8160000000000001,-2.3251711554166667,0.069248222500013
mp-622618,BaLaNiRuO6,0.0,-2.32500514025,0.0267592708333337
mp-752888,Li2CuSiO4,0.0,-2.32485656625,0.0859129831250022
mp-771711,Li4V3CoO8,0.8467000000000001,-2.324836486875,0.0416721614062511
mp-771684,LiMg2Mn3O8,0.0,-2.32483433592,0.01855104023217
mp-759798,Bi7(O2F3)3,2.9241,-2.324794692532272,0.0193673026136398
mp-6126,LiCdBO3,2.115599999999999,-2.324790664236112,0.0
mp-774386,Li2Cr3P4(HO4)4,2.84,-2.324737910236586,0.0321785327011481
mp-540409,FeP2O7,0.1263,-2.3246889134940467,0.0518326869791687
mp-19500,BaCr10O15,0.0,-2.32468192860577,0.031492561442306
mp-779482,Li6Bi2B4SO16,0.1307,-2.3246788745079026,0.082310739511497
mp-28146,LiGa5O8,2.522299999999999,-2.3246764037500003,0.0
mp-764620,LiFe4(BO3)4,1.6916,-2.324629911507936,0.0750259439285727
mp-764677,LiFe4(BO3)4,1.3325,-2.3245091646031746,0.0751466908333338
mp-26594,BiP2O7,0.0,-2.3244092834940484,0.0414697969374975
mp-776217,MnV3O8,0.0,-2.324379200913333,0.0547782741666669
mp-645592,Nb3(BiO3)5,1.267199999999999,-2.324375214293477,0.0173350273913053
mp-771515,Li6V3W3O16,1.3644,-2.3243590396428573,0.0652695130357274
mp-758096,SbOF3,1.9230999999999991,-2.3243297659640003,0.039400553700001
mp-28853,LaAuO3,1.797699999999999,-2.32429596525,0.0
mp-24645,Er(HO)3,3.7167,-2.3242935628014294,0.030100581785712
mp-781053,LiFeP3(HO5)2,3.618299999999999,-2.324251179648572,0.0748428051470559
mp-8002,LiGaO2,3.7357,-2.324228283125,0.0652196949999996
mp-581795,Er2Te4O11,3.224099999999999,-2.32421609375,0.0010267911029187
mp-776057,TiCr2Ni3(PO4)6,0.0,-2.324067329867725,0.0904410029166502
mp-763579,Li4Cr5O10,0.0,-2.324063952236842,0.031055735409355
mp-680424,AlPO4,3.5429999999999993,-2.32403226343254,0.8144328870833366
mp-776120,Mn3Cr2Cu(PO4)6,0.0,-2.3240123542069844,0.0891987287847229
mp-780229,Na6Bi2B4PO16,0.0,-2.3240097143021345,0.0456653628879282
mp-767131,LiMn2O3F,1.1058,-2.3239988959799995,0.0334117190178515
mp-767668,Li9Fe5(SiO8)2,1.646099999999999,-2.3239939875,0.0602515154687441
mp-28429,Na2PrO3,0.0,-2.3239662181250007,0.0962449194444401
mp-765522,Li4Ti3Co3(TeO8)2,1.111899999999999,-2.323936522500001,0.0374729393681443
mp-764800,LiFe4(BO3)4,1.4796999999999991,-2.323903481984126,0.0757523734523815
mp-774424,LiMnVO4,1.3694,-2.323896235851429,0.0612908114285684
mp-705884,LiFePHO5,2.327,-2.3238241708850267,0.0019316144444445
mp-773470,Li5Mn2V3O10,0.8639999999999991,-2.323818968221,0.0772278782499924
mp-559519,Na4TiAs2O9,3.0658,-2.3237496448697925,0.0
mp-647629,YbMoClO4,0.0,-2.3234792126085706,0.1182358371428575
mp-24075,Ho(HO)3,3.6657,-2.3234248813728566,0.0252098160714284
mp-998711,TlGeF3,3.3593,-2.323325206714,0.0
mp-558864,CrHgF6,1.417,-2.3233111846425,0.0
mp-767601,Li6Mn2O5F2,0.8859,-2.323154864703333,0.0905187786666728
mp-775745,Li2Mn3NbO8,0.6665000000000001,-2.3231320307414287,0.0639656554687668
mp-4770,Na2SO4,4.9811,-2.3230736070089284,0.0
mp-698033,KAl2P2H8O12F,4.9791,-2.3230321219746344,0.0069652643376061
mp-542514,Ho2Te4O11,3.2288,-2.323007146102941,0.0
mp-672966,LiCu(PO3)4,0.6957,-2.3229870259656087,0.0365376779745503
mp-761687,LiSbPO5,0.0,-2.322931506793154,0.0934960718750019
mp-19667,LiNi2P3O10,3.9647,-2.3228956751116066,0.0
mp-505311,Sr2CrCuSO3,0.9866,-2.3228888922265627,0.0347863203906255
mp-776887,Fe3NiSn2(PO4)6,0.058499999999999004,-2.322866016626984,0.077382137337997
mp-765432,Li2V3CoO8,0.0,-2.3227815892857135,0.0238461774404736
mp-755902,Lu(HO)3,3.596,-2.3227625285157143,0.0536533164285701
mp-24074,Dy(HO)3,3.6966,-2.3227331501823807,0.0103008098214276
mp-775075,LiV3O8,1.8409,-2.322702945833333,0.0357732737500509
mp-705495,CaB3H5O8,5.5273,-2.3226242468,0.0143903610294096
mp-775614,Na2MnPCO7,0.6119,-2.322585122733769,0.0088827306250003
mp-975308,RbGdO3,0.0,-2.3225583187500005,0.1683729550000006
mp-771677,MnV4CrO12,0.20690000000000003,-2.322553334219999,0.0509544757638806
mp-541496,MnVH4O2F5,2.1658,-2.3225404426069223,0.0013849446153839
mp-31609,Li3Co3(PO4)4,0.846399999999999,-2.322529392014652,0.0130918499839562
mp-556939,NpIO,0.0,-2.3225166650000006,0.0
mp-764650,LiFe2(BO3)2,1.4483,-2.3224639780303025,0.0936193585795708
mp-767660,LiMnCO3F2,1.5588,-2.3224575021362504,0.0419605183333278
mp-5061,Li5ReO6,2.158299999999999,-2.322421241041668,0.0
mp-769690,LiFeBO3,3.242,-2.3223849804861105,0.0890009070833315
mp-753124,Ba5Bi3O11,0.0,-2.3223770220394733,0.0485578588157888
mp-768027,Na2MnPCO7,0.7401000000000001,-2.322349450650437,0.0091184027083324
mp-775468,Mn3V(PO4)6,0.0,-2.3223138329838653,0.0398373138602936
mp-554540,Li5ReO6,2.2088,-2.3221610621527784,0.0002601788888894
mp-850329,Fe4O3F5,1.4527,-2.3221470995583338,0.0728243241666595
mp-27291,PaCl4,0.0158,-2.322092007608,0.0
mp-14260,ZnAg(PO3)3,3.0283,-2.3220602338775507,0.0
mp-975296,RbHoO3,0.0,-2.3220391417500004,0.2418781037499977
mp-706543,BaP2(HO2)4,4.793,-2.3220187773780316,0.0570490179999998
mp-510342,Dy2Te4O11,3.2494,-2.321935690710784,0.0047650058087951
mp-776985,MnV3O8,1.078299999999999,-2.32192424008,0.0572332349999999
mvc-11624,VO2,1.0637,-2.321723291666667,0.1625509424999958
mp-555552,KNaSO4,5.0709,-2.3217147770089284,0.0341410476785712
mp-758599,Sr5(ReO3)12,0.0,-2.3216705780188684,0.0167169740566048
mp-31614,Li3Co3(PO4)4,0.7201000000000001,-2.3216636281684986,0.0139576138301098
mp-31845,LiFe2(PO4)3,0.0,-2.3215536109325416,0.0690103285416734
mp-769577,Li2VCr3O8,0.810099999999999,-2.3214686232142845,0.0917887130505903
mp-766625,LiFe2(BO3)2,0.601799999999999,-2.321462716439393,0.0946206201704802
mp-37478,La5AgS8,1.5947,-2.3213314173214292,0.023730780446411
mp-767583,LiCr2(PO5)2,0.08070000000000001,-2.3213130015793646,0.0660710612499988
mp-19652,Ba3V2S4O3,0.3835,-2.321128795000001,0.0465554966406278
mp-768058,Na2MnPCO7,0.5078,-2.320937010025436,0.0105308433333339
mp-850341,Fe4O3F5,1.5869,-2.3209214595583347,0.0740499641666581
mp-29787,Ba5Pt2O9,1.929499999999999,-2.3208710038281257,0.0
mp-761975,CoSn3(PO4)4,0.7442000000000001,-2.3208049740575394,0.0845196653125022
mp-763393,KFeP4(H2O7)2,3.0577,-2.320731733931705,0.0
mp-770247,Li4Ti2V3Ni3O16,1.3155000000000001,-2.320711037619048,0.0660926986011878
mp-976284,EuSbO3,0.0,-2.32070060275,0.1935822074000022
mp-32069,UMo5O16,0.28850000000000003,-2.3206700440909067,0.0312477825649377
mp-765068,LiVFeP2(HO5)2,1.5067,-2.320658670348852,0.0434309947941189
mp-976313,K3V(SO5)2,3.4426,-2.3206302834765618,0.0192875510096355
mp-775643,Na2MnPCO7,0.558499999999999,-2.3205334858587694,0.0109343674999999
mp-781494,Li4Ti3Mn3(CuO8)2,0.09759999999999901,-2.320452756888572,0.0863717378868891
mp-26173,LiBi3(PO5)2,3.395699999999999,-2.3204402064806557,0.0121598051388893
mp-778614,Li4Cr2Ni3Sn(PO4)6,1.9375,-2.320408935089285,0.1178406228750024
mp-24121,Tb(HO)3,3.584,-2.3203684575633337,0.0157457889285703
mp-28158,K4Be3O5,3.2092,-2.3203676026041653,0.0
mp-775499,Na2MnPCO7,0.632799999999999,-2.320265771067103,0.0112020822916667
mp-764739,MnFeCo(PO4)3,0.526,-2.320264096541429,0.0225684029166792
mp-28708,In3(PO4)2,3.0692,-2.320261599130036,0.0
mp-764383,MnFeCo(PO4)3,0.5416999999999991,-2.320229678069207,0.0226028213889009
mp-566592,CsMn2V2ClO7,1.8915,-2.320198261071539,0.0042966553845023
mp-9631,AlAgO2,1.4090999999999991,-2.320011114375,0.0
mp-768085,Na2MnPCO7,0.5288,-2.32000014273377,0.0114677106249994
mp-775516,Fe3Co(PO4)4,0.788099999999999,-2.3198703688492066,0.0367076880208099
mp-531523,LiGa5O8,2.2544,-2.319798738928572,0.0048776648214268
mp-769485,Na2MnPCO7,0.5295000000000001,-2.3197700494004363,0.0116978039583335
mp-639347,BaEuFe2O5,0.0,-2.319761880138889,0.1857870233333383
mp-566323,RbLiMoO4,4.5427,-2.3197541507142856,0.0
mp-31245,Tb2Te4O11,3.2575,-2.31964416620098,0.0
mp-1013910,LiFe2P2O9,0.008,-2.3195386799957483,0.0580682242410688
mp-850746,Fe4O3F5,1.2903,-2.319465909975001,0.0755055137499915
mp-25490,Li3CoPCO7,2.7458,-2.3192769949496346,0.0381694703846076
mp-767861,Li2Si2Ni2O7,3.2025,-2.319230322596153,0.0703759219230955
mp-3143,Na2SO4,4.9638,-2.3191850012946427,0.0038886057142857
mp-850470,Mn(PO3)5,0.0,-2.3191596435802944,0.0731735699404856
mp-28855,Cd4OF6,1.899,-2.319126964853636,0.0
mp-605691,La2P3H7O11,4.4891,-2.319077474277205,0.0612642924254238
mp-779250,Li2FeBO4,2.2207,-2.3189308208333337,0.0948529378124938
mp-1003485,Mg2Mn3O6,0.1482,-2.3186829391254538,0.1090444418181908
mp-758844,Li3CuSiO4,0.8529999999999991,-2.3185991641666663,0.0989247724999993
mp-779551,Ba4Br6O,3.3563,-2.3184099544318184,0.0993029434090928
mp-770879,Fe5Co(PO4)6,1.4463,-2.3183553549603184,0.0619705849305551
mp-555178,Rb5H5(OF3)2,5.3515,-2.318319900291111,0.001632207638889
mp-566271,Cs3Mo4P3O16,0.10060000000000001,-2.3183019536263743,0.1297596802307676
mp-696618,CaB2(H2O3)2,5.5553,-2.318158975793333,0.015181647115388
mp-778709,Li2FePHO5,3.8225000000000002,-2.318140228296524,0.0595932570000012
mp-32373,Li2Ni3(P2O7)2,4.0405,-2.3180507884730845,0.0
mp-754377,K4TiO4,3.1646,-2.318004012962962,0.0826341011111111
mp-765677,Li6V5SbO12,0.8316999999999991,-2.3178966654166677,0.0921692855555553
mp-757886,NdHS3O11,5.4826999999999995,-2.3178762602848435,0.0
mp-560919,Na5Y(CO3)4,4.2043,-2.3178550825000004,0.0
mp-565797,CsV(SO4)2,2.0301,-2.3177618848437507,0.0
mp-782725,MnOF,0.12150000000000001,-2.3177373294666666,0.0812128370833376
mp-31744,Cr3(PO4)4,0.0,-2.3177285368426497,0.1230806555163042
mp-541793,NaFeBP2H3O10,2.6123,-2.317610352012063,0.0015404091666626
mp-761897,LiCuF3,0.5463,-2.317484109380666,0.0438428093333316
mp-772283,Li2Cr3SbO8,1.9309,-2.3174664767857136,0.0100022851785714
mp-776234,Li2MnV4FeO12,1.356299999999999,-2.317286690797999,0.0640544603333257
mp-767289,Li6FeNiP2(CO7)2,3.148199999999999,-2.317257927641942,0.0403190584615433
mp-998759,TlCdF3,3.7001999999999993,-2.3171897954640004,0.0
mp-763277,Fe3Co2Sb(PO4)6,0.0034000000000000002,-2.31715243593254,0.0392196241666447
mp-557997,CaSeO3,4.2502,-2.3170948489687504,0.0
mp-31249,La2Te4O11,3.3342,-2.317083196102941,0.0
mp-770356,Na6Fe2B4SO16,0.0,-2.3170817491630737,0.0186739744396593
mp-763446,MnFeCo(PO4)3,0.5024000000000001,-2.3170702444580957,0.0257622550000116
mp-868347,LiNi(PO3)4,0.0,-2.3170044454100545,0.0910548284606607
mp-770496,Mg2Mn3O7,0.5144000000000001,-2.3170002259691658,0.0394339366666773
mp-1009127,MgO,2.2549,-2.316974690625,0.7482596350000001
mp-13718,NaCd4(PO4)3,2.479,-2.316946938089285,0.0047572399166648
mp-762193,Fe3Co2Sn(PO4)6,0.0,-2.3168055275992065,0.0498934814930516
mp-27968,Li6Ge2O7,3.8132,-2.3166971545833333,0.0034114280000201
mp-505274,Na2SO4,5.026400000000001,-2.3166734202232138,0.006400186785715
mp-23004,CsMgCl3,5.126099999999999,-2.316632965956,0.0
mp-579605,Cs2KEuCl6,0.0,-2.316530739456,0.0