mpid,formula,BG,FE,e_hull
mp-760017,Li2TiO3,1.5749,-2.981421891180557,0.0141505497222214
mp-758004,K3Nb7O19,2.0722,-2.9814208909913797,0.0035948135632182
mp-504922,UPbO4,1.510099999999999,-2.9812630562499987,0.0
mp-772185,Li6Hf2O7,4.4135,-2.980977463916666,0.0
mp-12523,YbPO4,0.0,-2.98086095218254,0.0203959500000001
mp-765851,LiVF3,1.9761,-2.980815812714,0.0920817279999974
mp-566555,Li3Nd3(WO6)2,3.660599999999999,-2.9807424545,0.0
mp-761010,TiP2O7,2.5895,-2.9807416179107147,0.0
mp-556588,SiO2,4.0078,-2.9804921166666665,0.3042207908333339
mp-555378,Rb2FeF5,3.693,-2.9804782732437496,0.0
mp-766764,Li2VOF4,2.6196,-2.9803179704387497,0.066159242842275
mp-608461,PaCl2O,0.0,-2.9802546796508333,0.0
mp-559154,Ti4Bi2O11,2.091999999999999,-2.98013627002451,0.0054009116911313
mp-759686,BeAlSiHO5,5.360499999999999,-2.980041597763332,0.0073917092841906
mp-561486,Na2Mg5(PO4)4,4.9369,-2.9799862249029982,0.0032739944444477
mp-861906,BaNa2Mg(PO4)2,5.0412,-2.9797098832993196,0.0
mp-776664,LiV3OF11,1.293599999999999,-2.979493422146249,0.0451500626171963
mp-28962,Ti4Bi2O11,2.0404,-2.9794489382598046,0.0060882434558369
mp-775808,MgO,3.4114,-2.979358073125,0.0858762525000003
mp-770805,Li6Hf2O7,4.2889,-2.9792560182499987,0.0017214456666678
mp-765854,Li3V2F12,0.036399999999999,-2.97922513466353,0.1027957817647307
mp-764923,VF4,2.7285,-2.979034702952,0.0415687209999973
mp-1019614,Cs3Y(PO4)2,4.4731,-2.9789574534778915,0.0
mp-567672,Na2VOF4,2.9353000000000002,-2.9787219723137497,0.0011889018750048
mp-764697,Li3VOF5,2.9884,-2.97833012422,0.0950276860238199
mp-776359,YNb2NO5,2.5304,-2.9778235406811113,0.0639796305555577
mp-13936,Sr2GdReO6,0.0,-2.9777820882499997,0.0970865739375117
mp-763616,La4Mn4O11,0.2237,-2.9777065319784213,0.056077481842113
mp-554159,Li2BeSiO4,5.5993,-2.9776956843749987,0.0058017106250005
mp-559118,CsTa(PO4)2,3.3899999999999992,-2.9776001271825394,0.0
mp-850092,Li2FeF4,3.5932,-2.9774853471085714,0.0135178478571429
mp-561008,Ca(PO3)2,5.5318,-2.9774230477711643,0.0109730534722221
mp-6175,BaLi2P2O7,5.3618000000000015,-2.9774097781200397,0.0018813664583365
mp-650928,K3Nb7O19,2.1043,-2.977372278663792,0.0076434258908051
mp-766859,LiV3(OF3)2,1.2184,-2.977281110803333,0.0600847837500131
mp-761317,Li2VSi4O11,2.2167,-2.977257485486111,0.0529547930555995
mp-19581,Mg3Cr2(SiO4)3,3.4551,-2.9772002830000006,0.0595917541250052
mp-24956,ErFeO3,1.5703,-2.9771746722500017,0.0026997123749996
mp-20620,Ba2NbInO6,3.3486000000000002,-2.9771485467500005,0.0
mp-776523,NaLi3Ti2Al2(PO4)6,2.5061,-2.977057448339598,0.0369139681578936
mp-764787,LiVOF3,1.834699999999999,-2.97691738872,0.0197533512896912
mp-776520,NaLiTiAl(PO4)3,2.540599999999999,-2.976827731629073,0.0243794806333248
mp-5843,Ce(PO3)3,0.22279999999999903,-2.976796015041209,0.0
mp-623854,NaNb3O8,2.4842,-2.976773724999997,0.0
mp-764783,LiMnF3,2.711999999999999,-2.9765992804060004,0.0881516054999984
mp-17850,K3NaTh2O6,3.6676,-2.9765504272916665,0.0
mp-755591,Dy2TeO6,2.5307,-2.976427888981481,0.0684339622222234
mp-20958,Ba2LaReO6,0.0,-2.97618762625,0.024339620874997
mp-764837,Li2VOF4,2.4813,-2.9761107070012502,0.0703665062797744
mp-6704,BaNd2CuO5,0.4194,-2.975983110694445,0.0240410202777789
mp-541827,Ba2Zn7F18,4.0535,-2.975909878015555,0.0
mp-559590,PrGeBO5,3.9886999999999992,-2.9755015532118056,0.0
mp-765233,VF4,2.7348,-2.975500845952,0.045102577999998
mp-973585,LuIO,3.2624,-2.97546068875,0.0
mp-22535,HfPbO3,2.4163,-2.975442043750001,0.0402409444999971
mp-5867,K3Nb8O21,0.0,-2.9754266198828123,0.0042207054807708
mp-10080,PrGeBO5,3.9977,-2.975285458489583,0.0002160947222211
mp-18764,Ba2SrWO6,3.2478,-2.9751283457500017,0.0
mp-849249,LiCr(Si2O5)2,2.1385,-2.975081512656251,0.0921098065624992
mp-778052,Sm2TeO6,3.028299999999999,-2.9749980876851856,0.0195480067592726
mp-42508,Na4BeAlSi4ClO12,4.276599999999999,-2.9748938197069568,0.0463505678260878
mp-697313,Al24Tl10Cd7(SiO4)24,2.6653000000000002,-2.9747557541925467,0.0034179345859124
mp-18894,CaCo(SiO3)2,2.6563,-2.9746866087499995,0.0085337269999969
mp-4394,Pr2Sn2O7,2.6358,-2.974660719886363,0.0
mp-861582,LiMnF3,3.7716,-2.974606899906,0.0901439859999992
mp-7972,RbLaO2,3.5220000000000002,-2.974555543125,0.0
mp-766158,VF4,2.7245,-2.974470300952,0.046133122999997
mp-766156,LiV3(OF3)2,1.7441,-2.9743992033033333,0.062966691250013
mp-763495,LiMnF3,2.4534,-2.9742989385726677,0.0904519473333316
mp-8470,NaPrO2,3.1969,-2.974130183125,0.0
mp-556250,KSrB5O9,5.1442,-2.9739967185677085,0.0
mp-763004,LiMnF3,3.5100000000000002,-2.9739546596560005,0.0907962262499984
mp-19553,Mn3Al2(SiO4)3,3.5565,-2.973844495769,0.0071914095500016
mp-766790,VF4,0.737699999999999,-2.9738271742853337,0.0467762496666637
mp-776911,MgO,3.4257,-2.973802604375,0.0914317212500002
mp-24950,CaTi4(FeO4)3,1.6248,-2.973760824583335,0.029560970062505
mp-558834,Eu2B5BrO9,0.8801000000000001,-2.9737432392401955,0.0
mp-743769,Mg5Al4Fe(SiO4)6,2.710199999999999,-2.9735204938750015,0.2680144822687485
mp-763003,LiMnF3,3.1237,-2.9733694899060006,0.0913813959999982
mp-26630,TiP2O7,2.7319,-2.9733297911607157,0.0074118267499923
mp-709021,CaTi2(HO3)2,3.070599999999999,-2.973262760506667,0.0
mp-5444,Y3Ga5O12,3.3529,-2.973090429625,0.0
mp-559123,YSiNO2,4.0731,-2.972799820476,0.0077159676250033
mp-767350,LiVF3,2.3717,-2.972299671714,0.1005978689999978
mp-556038,Ba3In(BO2)9,4.7243,-2.972229804758064,0.0083396036021543
mp-764760,LiVOF3,2.1361,-2.972213922053333,0.0244568179563584
mp-850742,LiV3OF11,0.0,-2.97217025152125,0.0524732332421962
mp-756645,Li5Ti3O8,0.0,-2.972150099375,0.0225583078125
mp-15385,Na2UP2O9,2.1752,-2.9721089742814617,0.0
mp-24960,HoFeO3,1.5675000000000001,-2.97209828225,0.0
mp-5839,TiPO4,0.062899999999999,-2.9720807414186514,0.0742006901051581
mp-770602,TiVO3,0.6252999999999991,-2.9719914730833343,0.0
mp-763891,Li2Mn3F8,2.8732,-2.9719208884538464,0.0749639494230782
mp-541044,CsYO2,2.8477,-2.9718420074999994,0.0
mp-850220,Si6BiO14,0.0,-2.9717795472619053,0.054198541190459
mp-761341,TiVO4,1.1814,-2.9715259911111125,0.0300266162499802
mp-559706,Li3Gd(BO3)2,3.1614,-2.9713371627777785,0.0
mp-757450,Sc2Ge2O7,3.6855,-2.971274705795456,0.0147701154545458
mp-6499,BaLiBO3,4.3861,-2.971191610486111,0.0
mp-754158,KNdO2,3.7108,-2.9711695825,0.0
mp-556232,Na2CaMg(PO4)2,5.0991,-2.9710959316921763,0.0001003262500018
mp-764685,LiVOF3,2.2221,-2.9710235537200003,0.0256471862896914
mp-8615,NbBO4,2.4711,-2.9709651361111127,0.0
mp-765452,LiVOF2,1.6095,-2.9709602362260004,0.0216418001388856
mp-556393,RbBe4(BO3)3,5.1692,-2.970957044926469,0.0
mp-560088,Cs2Li3F5,5.618399999999999,-2.970904850095,0.0914326749999992
mp-25417,LiTiO2,0.0,-2.9708888597916667,0.0222435224999983
mp-779587,TiPO4,0.0,-2.9703636727380944,0.0759177587856729
mp-764721,LiVOF3,1.9123,-2.970314535803333,0.0263562042063583
mp-777631,LiMn2F5,3.2776,-2.97029034723375,0.065428210624999
mp-677305,Li17Ti20O40,0.0,-2.9702616545887435,0.0958956296753381
mp-704637,Nb12WO33,1.890399999999999,-2.970150720461956,0.007320628260901
mp-1019718,CsBe4(BO3)3,5.4195,-2.970150445808823,0.0
mp-776408,YNb2NO5,2.4179,-2.9700695559588888,0.071733615277779
mp-7974,RbSmO2,3.4848,-2.969993323749999,0.0
mp-5299,La2RuO5,0.0,-2.9698319817187486,0.0242609520833365
mp-770018,Li2Ti3FeO8,0.0,-2.9697953500000005,0.0783674878571183
mp-776515,CeFeO3,0.6735999999999991,-2.9697351367499984,0.0650611549999986
mp-19679,Y2Mo2O7,0.0,-2.9696230417045446,0.0162712349999889
mp-765873,LiV2F5,2.260199999999999,-2.96957377699375,0.0763280993750008
mp-761669,Li2Ti3CoO8,1.8695,-2.969351100714285,0.0358139839285787
mp-778241,Li2V3F8,2.2001,-2.96933268227077,0.0869521419230769
mp-683616,Li5Ti7In(PO4)12,2.4695,-2.969327026764513,0.0086393501369812
mp-43188,Na8BeAl4Si7(BrO12)2,3.886799999999999,-2.9693076085869565,0.0411557036594185
mp-780834,Li2FeF4,3.6802,-2.969163076394285,0.0218401185714292
mp-17035,K3Sc(PO4)2,4.2975,-2.9689541797278927,0.0
mp-11189,Li2MgSiO4,4.677099999999999,-2.9688938240625005,0.0
mp-7724,Li2UO4,2.0658,-2.9688165335714283,0.1866375589285711
mp-18990,Ba2Mn(BO2)6,3.9788,-2.968805845521905,0.0
mp-558116,KMnF4,2.0244,-2.9687831822033326,0.0
mp-562394,Cs4Li2(Si2O5)3,4.408,-2.9687257311574067,0.0
mp-764423,Li2CrF4,1.964899999999999,-2.9687173906799997,0.0642186478571433
mp-763824,Ba2LiVP2O9,2.044,-2.9686772908293664,0.089507146041674
mp-690490,TiVO4,0.9899999999999991,-2.9686466202777786,0.0329059870833141
mp-754208,ErInO3,2.5532,-2.9686438397500003,0.0802816293750003
mp-776811,Li3MnF6,1.5801,-2.968593372309998,0.0778709444999954
mp-1019806,KMg6P7O24,5.1735,-2.968452877280701,0.0
mp-762988,LiMnF3,3.594999999999999,-2.968212719906,0.0965381659999993
mp-779337,Li5V6O5F19,1.1397,-2.9681370461102863,0.04534874557143
mp-11613,Ba2CuSi2O7,0.178599999999999,-2.9679862603125007,0.0398909320833471
mp-619767,Cs3Fe2F9,4.0304,-2.9679448079078576,0.0
mp-560311,Na3FeF6,4.1281,-2.967910472714,0.0
mp-13941,Sr2YbReO6,0.0,-2.9677615072500005,0.0187921991666666
mp-765090,LiMnF3,3.109499999999999,-2.967383061406,0.0973678244999991
mp-766748,Li2VSi4O11,0.9102999999999991,-2.9671079646527785,0.0631043138889326
mp-777018,Li2FeF4,3.6837,-2.966918607822857,0.0240845871428572
mp-766937,LiVF6,3.0894,-2.9669181927675017,0.0220714218749993
mp-755252,DyHO2,4.159000000000001,-2.9668982606966665,0.0727860490625005
mp-777466,Li2FeF4,3.7132,-2.9666521946085713,0.0243510003571429
mp-9625,LiMgPO4,5.4297,-2.96660076079932,0.0
mp-24953,DyFeO3,1.5602999999999991,-2.9665620160833326,0.0
mp-755253,LiZrO2,0.0,-2.9665594193750007,0.0543001271249998
mp-771241,Ta3AgO8,2.2966,-2.966382507708333,0.0103808233333335
mp-5364,YbBO3,0.0,-2.966360783083334,0.0
mp-8564,CsK2Sc(PO4)2,4.0897,-2.966085659727891,0.0
mp-776984,HoInO3,2.5765000000000002,-2.9660570702500015,0.0720870357499974
mp-23092,Ba2TaBiO6,2.5855,-2.9660525532499995,0.0002795980000005
mp-773987,Ti12Fe5O32,0.0,-2.9657006222448987,0.1007275287117313
mp-554412,RbTa(PO4)2,3.3525,-2.9656740713492056,0.0
mp-559776,Li5La3Ta2O12,3.971899999999999,-2.965660098863637,0.2941457294696956
mp-18271,Na5Ti2Si2PO13,2.5262000000000002,-2.9656532227251566,0.0
mp-763327,LiMnF3,3.4463,-2.9655527199060003,0.0991981659999989
mp-764333,V3(OF3)2,0.0,-2.9654146272400017,0.0583028981818278
mp-764267,LiV3OF11,1.519199999999999,-2.965368706833749,0.059274777929696
mp-6944,LiTiO2,0.0,-2.965351855416668,0.0277805268749977
mp-22621,LaTiAgO4,1.464999999999999,-2.965349708809524,0.0899304375000014
mp-558854,NbFeF6,0.0,-2.9652950796425004,0.109358868104171
mp-775340,Li2Cr(Si2O5)3,0.7241000000000001,-2.965242248906249,0.0766456502546217
mp-775103,V4(OF3)3,1.4002000000000001,-2.9652157284037504,0.0
mp-561514,NaSrB5O9,5.2309,-2.9651425507552087,0.0
mp-554041,Na2Al2B2O7,4.3422,-2.9650019486217953,0.0
mp-40204,KZrTl2OF5,3.1105,-2.9649173862200007,0.0579179280000019
mp-998227,KHfO3,0.0,-2.9648790557500018,0.0356505437500036
mp-553981,RbMnF4,2.0352,-2.9648701726200004,0.0
mp-765239,VF4,1.8642,-2.964824276702,0.0557791472499973
mp-762787,Li2VF7,1.7343,-2.9648241343330004,0.0625435970000003
mp-765129,LiVF6,3.155699999999999,-2.9647776421425003,0.0242119724999998
mp-849493,Li2FeF4,3.7024,-2.9646641656799995,0.0263390292857144
mp-765055,Li2Mn2F7,0.1208,-2.9646574122954545,0.0412404790909031
mp-553121,Sm2IO2,0.0,-2.9646435755,0.094904681750001
mp-765122,LiVF6,3.1525,-2.9645848605799996,0.0244047540625
mp-604909,Ca4Si2H2CO11,4.6256,-2.964377677362,0.0048919866875003
mp-763191,LiMnF3,3.408,-2.9643759579060003,0.100374927999999
mp-777418,Li2FeF4,3.5922,-2.9642805678228568,0.0267226271428571
mp-766901,LiVF6,3.0818,-2.9642617002675005,0.0247279143750001
mp-20169,Ce2O3,0.0,-2.96423409075,0.8124262424999991
mp-768864,KNdO2,3.8044000000000002,-2.96421161,0.0069579725000012
mp-777704,Li2Mn3F8,2.7893,-2.9641854821076925,0.0826993557692317
mp-779309,V4(OF3)3,1.1773,-2.96416484027875,0.0010508881249871
mp-764356,V2OF4,1.656399999999999,-2.9640767387157143,0.0990749307142824
mp-849246,Ti2CdO5,2.5113,-2.9640667374479177,0.0406275065624974
mp-504474,TbHO2,4.7376000000000005,-2.963932857363334,0.0811419537499995
mp-763134,V4(OF3)3,1.3695,-2.96386190965375,0.0013538187499868
mp-774388,V4(OF3)3,1.279399999999999,-2.96378914715375,0.0014265812499871
mp-555568,K2Zn(Si2O5)2,4.2665,-2.963639455735294,0.0
mp-557420,KBaB5O9,4.8693,-2.963614237786457,0.0
mp-777967,V4(OF3)3,1.346,-2.96357125840375,0.0016444699999871
mp-766917,LiVF6,3.1549,-2.9635026221425007,0.0254869924999994
mp-765528,Li2VOF3,1.8385,-2.963383116402857,0.0830126804563429
mp-764879,V4(OF3)3,1.4453,-2.9632637184037502,0.0019520099999867
mp-776886,Li2FeF5,2.7262,-2.9632399579312496,0.0414640155902805
mp-764172,V4(OF3)3,1.3633,-2.96311095996625,0.002104768437487
mp-779405,Li3V4(OF3)3,1.3969999999999991,-2.963007980497895,0.0817336809649216
mp-764648,LiTiO2,0.0,-2.962989181041668,0.0301432012499978
mp-557012,Li3Sc(BO3)2,4.5439,-2.9629264321527784,0.0
mp-706617,Na2AlSi3HO9,4.6627,-2.9629028687418755,0.0
mp-9759,BaPr2PdO5,2.247099999999999,-2.9628332795833328,0.0
mp-764227,Ca3MnO4,2.835899999999999,-2.9625478994949983,0.0213494125000002
mp-34978,Al2FeO4,0.0,-2.9625305533333326,0.0113529459523817
mp-776784,Li3FeF6,3.812299999999999,-2.962494772714,0.088383501833344
mp-765926,VF4,1.8728,-2.962419432952,0.0581839909999972
mp-775939,YNb2NO5,2.529699999999999,-2.9622957826255547,0.0795073886111144
mp-18986,Ba2MgWO6,3.223099999999999,-2.9622957117500013,0.0
mp-554371,CaSiBHO5,5.3854,-2.9622451632262945,0.0014387112962976
mp-766936,LiVF6,3.2555,-2.9621509727675,0.0268386418749999
mp-972066,ZrAlO3,0.0,-2.9620716867500008,0.5170237375499998
mp-764687,LiVOF3,1.2543,-2.962019950803334,0.0346507892063572
mp-850453,Li3V4(OF3)3,1.1747,-2.9620013660242117,0.0827402954386062
mp-573204,Cs2KBiF6,4.9469,-2.9619569252140003,0.0
mp-778865,V4(OF3)3,1.278,-2.9617813874662504,0.0034343409374866
mp-850913,LiVOF3,1.656499999999999,-2.961711500594999,0.0349592394146922
mp-558309,K4SnSb2F14,4.0813,-2.9617067472219056,0.0
mp-14873,K4Nb8Si(P2O17)2,1.886299999999999,-2.9615230489192337,0.0
mp-559523,RbMgF3,2.2027,-2.9615129203806663,0.5662408376666663
mp-23321,Sr4Cl6O,4.558899999999999,-2.961396439619091,0.0
mp-542069,Cs8Ta6O19,3.4757000000000002,-2.9613092667803023,0.0
mp-997599,Na8Ta7VO24,1.2602,-2.9611679842500003,0.0397100472499989
mp-554184,Ho2Cu(BO2)8,0.866499999999999,-2.9608437940123453,0.0160917633950692
mp-973930,NpBeO3,0.0,-2.9607075655000012,0.4495291119999987
mp-560866,LiLa(PO3)4,5.2141,-2.9605374262433872,0.0
mp-766951,Li3VF8,1.9215,-2.960432455793334,0.0925206866666661
mp-25037,PrMnO3,0.057,-2.9604047349419997,0.0
mp-559812,Rb3CrF7,0.7833,-2.9603278843936365,0.0
mp-557935,Dy2Cu(BO2)8,0.8659000000000001,-2.960093202098766,0.0170324267284041
mp-743567,Li2Ti4Ni(PO5)4,2.9429,-2.9600241291628264,0.0051201803225939
mp-18247,Sr3ScRhO6,2.266399999999999,-2.9599790515909103,0.0
mp-779370,V4(OF3)3,1.3814,-2.9599121680912504,0.0053035603124866
mp-779382,Li3V4(OF3)3,0.9921000000000001,-2.959810489971579,0.0849311714912381
mp-559234,CsLa(PO3)4,5.0452,-2.9598006090211646,0.0
mp-1019708,CsBaLiP2O7,4.8877999999999995,-2.95976749687004,0.0
mp-17438,Na2GeF6,5.604900000000001,-2.959704141348889,0.0509879592592596
mp-19573,Mg3V2(SiO4)3,0.0,-2.9594476133750014,0.1111611502500151
mp-17149,Sr3ErRhO6,2.192,-2.9593984229545462,0.0
mp-24952,TbFeO3,1.5513000000000001,-2.959211042416667,0.0
mp-10320,La2MgRhO6,0.0,-2.9591247397500005,0.0
mp-5033,Tl2SiF6,4.976,-2.9590693785711117,0.0
mp-17672,BaLi(B3O5)3,5.7832,-2.9590538149519223,0.0
mp-774383,V4(OF3)3,1.472,-2.9589648705912497,0.0062508578124873
mp-556420,Rb2NaMn3F12,1.8271,-2.9588798415088893,0.0
mp-769630,Li2Mn3F8,3.3809,-2.9588346001846166,0.0880502376923075
mp-555112,Li2CrF6,1.5229,-2.958813610793333,0.0
mp-776809,Li2Mn3F8,3.429599999999999,-2.9586731632615377,0.088211674615386
mp-27794,BaB8O13,5.5451,-2.9586012023674253,0.0
mp-559927,Tb2Cu(BO2)8,0.8675,-2.9585504105555565,0.0173998922376643
mp-755318,ScHO2,3.666399999999999,-2.95843780528,0.0536866912500002
mp-560790,Cs2NaBiF6,5.021000000000001,-2.958378280714,0.0
mp-849409,V4(OF3)3,1.2401,-2.95834571590375,0.0068700124999869
mp-762998,Li2MnF5,0.8734000000000001,-2.9583342896137497,0.0545260568749998
mp-35799,Hf2Bi2O7,2.7787,-2.958295221704545,0.0
mp-561290,K2BiF5,4.7686,-2.95822779449375,0.0
mp-770898,Ti3Nb2V3O16,1.109999999999999,-2.9581188395833338,0.0922208104166539
mp-850159,Li2Mn(Si2O5)2,3.0364,-2.9580998210858818,0.0537500426470582
mp-779822,Li3V4(OF3)3,1.1431,-2.9580017915505263,0.0867398699122903
mp-560629,K3Al2(PO4)3,4.4329,-2.957994432714285,0.0
mp-682,NaF,6.0943,-2.957897320595,0.0
mp-19287,NaV(SiO3)2,2.000199999999999,-2.9576516012500003,0.0
mp-853156,V4(OF3)3,0.7861,-2.95759940621625,0.0076163221875065
mp-1795,NbF3,0.0,-2.9574480921425,0.1682514792916665
mp-777464,Li4Ti5Cr3O16,0.0,-2.9572106933333333,0.027360779777636
mp-555001,LiMnFeF6,2.4344,-2.9571985642333343,0.0
mp-566418,LiMnFeF6,2.3409,-2.9571032727518523,9.529148147802148e-05
mp-722896,Mg7Si4(HO8)2,3.8438,-2.9569899214565516,0.0951521731992324
mp-4181,Pr2CuO4,0.0,-2.9568854935714293,0.0
mp-557158,CrMoF6,2.5915999999999992,-2.9568410546425,0.0
mp-735519,KHoCoSi2O7,3.0267,-2.956714556979166,0.0637503457500026
mp-782712,Li3V4(OF3)3,1.0761,-2.9566992704978943,0.0880423909649223
mp-766942,Li2MnF5,1.8375000000000001,-2.9566733393012496,0.0561870071874999
mp-769263,TbInO3,2.5934999999999993,-2.956660027416667,0.0564577691249992
mp-566186,Sm2Mo2O7,0.0,-2.956553216704545,0.0
mp-782034,YNb2NO5,2.516,-2.956540195403333,0.085262975833336
mp-765521,LiVOF3,2.1107,-2.9565208116366666,0.0401499283730251
mp-766949,Li3VF8,1.3808999999999991,-2.95632965746,0.0966234850000002
mp-761603,LiV(SiO3)2,2.045299999999999,-2.9562846517500003,0.0286693010000114
mp-755549,Y2TeO6,2.5391999999999992,-2.956216399166667,0.0670616969444442
mp-989190,ScBrO,3.3514,-2.956165250416668,0.0714443966666662
mp-779062,Li3V4(OF3)3,1.148299999999999,-2.956151540761053,0.0885901207017632
mp-15509,Yb4Si2S3O7,0.0,-2.955994661464844,0.0366584443923621
mp-553999,Ba2Ni3F10,4.8298,-2.95567537946,0.0025719539999986
mp-761824,Sr16V12O39,0.6273000000000001,-2.955439477742537,0.0
mp-850492,LiMn(Si2O5)2,2.6047000000000002,-2.955367975841249,0.0638354264285752
mp-1021504,Ba2NbFeO6,1.731999999999999,-2.95533498125,0.0
mp-782708,V4(OF3)3,1.5231000000000001,-2.9552946262162503,0.0099211021874872
mp-764766,Li2VOF4,0.8844000000000001,-2.95518145418875,0.0920517828541651
mp-551675,Li3UO4,0.378,-2.9551228631249997,0.0
mp-17031,KAlP2O7,5.296699999999999,-2.955067475903681,0.0
mp-779205,Li3V4(OF3)3,0.932299999999999,-2.9548971623400004,0.0898444991228171
mp-765416,Li2Fe2Si8O19,3.0309,-2.9548814159274177,0.0631684651612829
mp-561200,Na3MnF6,1.6641000000000001,-2.95480553581,0.0
mp-556001,NaBeSi3HO8,4.978099999999999,-2.9546083371335716,0.0
mp-762821,Li3Ti3VO8,0.0,-2.954431012666666,0.0574185271000029
mp-561305,BaZnSiO4,3.5871,-2.954358690952382,0.0105955222619043
mp-553982,K4In2Si8O21,3.8038,-2.954147243321429,0.0
mp-677731,Rb2NaNb6(PO8)3,2.251,-2.954056737757938,0.0
mp-766842,TaCrO4,2.3097,-2.953956284166668,0.0
mp-555618,Na2MnF5,1.693,-2.9538173958637493,0.0
mp-676104,Tm2CuO4,0.0,-2.953781032142857,0.2529148316071437
mp-14531,NaNb3O8,2.2455,-2.953595085416667,0.02317863958333
mp-763794,Li2Mn2F7,0.6111,-2.953565080477273,0.0523328109090845
mp-568662,BaCl2,5.4309,-2.9534946255066665,0.0
mp-753879,Pr2S2O,2.361199999999999,-2.953419314875,0.0070884195000013
mp-684018,SrB8O13,5.5745000000000005,-2.9533555690719697,0.0
mp-707534,Mg16Si7HO32,0.0,-2.9532922958682137,0.1351981762611585
mp-616604,CsMnF4,0.0994,-2.9530919409533327,0.0149873970833338
mp-463,KF,5.9956000000000005,-2.952570158095,0.0
mp-1019554,BaNaB5O9,5.0076,-2.9524537046614574,0.0
mp-18652,Sr3HoRhO6,2.1668,-2.952414984772727,0.0
mp-21699,BaLa2In2O7,2.462,-2.952326984270833,0.0046925862500026
mp-767448,Li4ScFe3(SiO3)8,2.768599999999999,-2.952236912,0.0028182686250008
mp-766989,LiFe(Si2O5)2,3.052799999999999,-2.9521764848437506,0.0426070303124994
mp-743607,Li2Ti4Co(PO5)4,1.6172,-2.952014321582181,0.0421162408467825
mp-765925,Li2VOF5,2.8337,-2.9519737898740748,0.0
mp-1022809,Ba4NbFeO8,2.6971,-2.95186063125,0.0