mpid,formula,BG,FE,e_hull
mp-32434,Ca2V2O7,3.0528,-2.9200732907954534,0.0
mp-619475,RbFeF4,2.8768000000000002,-2.9200077641266664,0.0077159591666671
mp-22161,CaYb2O4,0.0,-2.91988662,0.1113237205357142
mp-763437,LiWF6,3.470799999999999,-2.9197972249549995,0.0
mp-767338,V(SiO3)2,1.8442999999999992,-2.9197669219444444,0.0981330944444422
mp-29698,Nb3ClO7,2.0193,-2.9196892026827275,0.0
mp-556307,Na2Si2O5,4.4459,-2.9196462484722208,0.0011802924999972
mp-556423,Na2Si2O5,4.4498,-2.9196359393055555,0.0011906016666625
mp-755998,Zr3N2O3,2.660099999999999,-2.919573391063752,0.0
mp-16777,NaAlP2O7,5.2801,-2.9195208856764068,0.0010359871210852
mp-561458,Na4Sc2(PO4)3,0.363399999999999,-2.919369099489796,0.0755424425848403
mp-15239,Nd3Ga5O12,3.0611,-2.9193257900000007,0.0
mp-7973,RbNdO2,3.4261,-2.9191575949999997,0.0
mp-556927,RbFeF4,2.828,-2.91911398746,0.0086097358333336
mp-777450,Ti5Mn(PO4)6,0.0,-2.9190421120240218,0.0898807697762897
mp-29532,Ca11(ReO6)4,0.0,-2.9188610693589747,0.0
mp-777665,Li2FeF4,3.5929,-2.9185755696085707,0.0724276253571432
mp-778548,Li2FeF4,3.8539,-2.9184218249657143,0.0725813699999999
mp-765498,LiVOF3,2.4153000000000002,-2.9182793574700003,0.0783913825396913
mp-20687,Sr2LuRuO6,0.11410000000000001,-2.9182450397500004,0.0
mp-554383,Na2Si2O5,4.4573,-2.918191500416666,0.0026350405555524
mp-772224,LiTi3MnCr(PO4)6,2.3445,-2.917897990820317,0.0001545663888595
mp-559361,Cs3MnF7,1.5495,-2.917781044480908,0.0036586959090918
mp-6272,NaEuP2O7,0.0,-2.9176912563582253,0.0
mp-764682,LiVOF3,2.0851,-2.917561201636666,0.0791095383730251
mp-773185,Gd2W2O9,2.8302,-2.917494770480768,0.0137891517307249
mp-6257,CsNb(BO3)2,3.2991,-2.9174820155833325,0.0
mp-777875,LiFeF4,3.5689,-2.9174783382933343,0.0102684668518602
mp-24989,SmFeO3,1.5177999999999991,-2.91740844575,0.0
mp-773770,LiMnF4,2.1837,-2.9172572697033328,0.0329990345833222
mp-696683,K3SnHF8,5.1576,-2.917223268703077,0.0
mp-763011,LiMnF4,0.9221,-2.916856248036666,0.0334000562499898
mp-25797,SrV2P2O9,1.468599999999999,-2.9166629360671763,0.0
mp-765240,Li3VOF6,3.1774,-2.916451060762728,0.0771420760606185
mp-776730,Li2FeF5,3.244,-2.91634800324375,0.0883559702777807
mp-7977,CsSmO2,2.8983,-2.916330755,0.0
mp-769917,Ho2Mn2O7,0.9335,-2.916297896424545,0.0
mp-776816,Li2FeF5,3.665499999999999,-2.916285077618749,0.0884188959027811
mp-556178,BaAl2(GeO4)2,3.936,-2.9162540755769233,0.0
mp-626558,Ti3H2O7,2.6827,-2.916246504249167,0.0705851045833281
mp-720948,NaCa2LuSi2O7F2,1.2063,-2.916135293742,0.6709442282499971
mp-18453,RbAlPdF6,0.5243,-2.9161029785711112,0.0225672577777764
mp-778510,LiFeF4,3.1302,-2.91595705996,0.0117897451851947
mp-777444,Li3Fe2F7,3.4986,-2.9157916386108327,0.0435653891666669
mp-772130,Li2Ti3NiO8,1.721999999999999,-2.9157184728571433,0.0158383439285589
mp-18629,NaTmGeO4,3.6137,-2.9156542514285717,0.0
mp-29699,TiNb3O6,0.520799999999999,-2.9155395514166673,0.0
mp-776230,LiFeF4,3.1399,-2.91551702746,0.012229777685194
mp-558111,Rb2MnF6,3.3045,-2.915294527566666,0.0
mp-764199,LiVOF3,0.0,-2.915287958303333,0.0813827817063588
mp-764361,LiMnF4,2.1745,-2.9152725426200004,0.0349837616666564
mp-554053,SrGaBO4,3.7452,-2.915068156309524,0.0
mp-19436,La7Mo7O30,1.1666,-2.915046832443182,0.0094193767045389
mp-645060,Ti2Co(PO5)2,2.518399999999999,-2.9149585104682547,0.0
mp-778347,LiFeF4,3.102999999999999,-2.9149426224599995,0.012804182685195
mp-863066,Ta6Pb4O19,1.742299999999999,-2.914890979439655,0.0
mp-764833,Li4V3(OF2)4,1.384,-2.9142576570800003,0.0484471685672645
mp-628967,SrCrP2O7,2.9628,-2.914206016585497,0.0
mp-562345,Cs2Si2O5,4.2397,-2.914008418611111,0.0
mp-3731,LiNbO3,3.3358,-2.91400812175,0.0
mp-753163,HoIO,2.2234,-2.913900562083333,0.0690028683333352
mp-626566,Ti3H2O7,2.7106,-2.9138757800825004,0.0729558287499951
mp-778058,Li2FeF5,3.7173,-2.9136855423062493,0.0910184312152813
mp-779199,V3OF11,1.8997,-2.9135139572893327,0.0104728884999945
mp-685819,Yb2TiO5,0.0,-2.913261010989584,0.3436260101562496
mp-759926,Li2Ti(BO3)2,2.9516,-2.9132328393181823,0.0496139546103835
mp-774449,Li2Ti3SbO8,0.0,-2.9131760660714283,0.0891548482440569
mp-777781,Li2FeF4,3.3033,-2.9130792388942863,0.0779239560714284
mp-3519,ZrSO,2.419699999999999,-2.9128886201041664,0.0
mp-555391,NaVF3,0.6925,-2.912851910714,0.0792924404999988
mp-765260,LiVOF2,1.3648999999999991,-2.912829690476,0.0797723458888857
mp-15742,Nd2CuO4,0.0,-2.9128261528571433,0.0764523457142987
mp-557057,NbO2,0.165499999999999,-2.9128085308333347,0.0
mp-756689,La2SbO6,0.07399999999999901,-2.9127943969444448,0.007156637337963
mp-772416,Li2Ti3Sn(PO4)6,2.5061,-2.912419574821429,0.0021200452083371
mp-695648,KNa6Al7Si9O32,3.8663,-2.9123930125454547,0.2768150714999988
mp-14854,Sr2LiIn(B2O5)2,3.765799999999999,-2.9123866216203713,0.007527398194445
mp-1019808,KBe2B3O7,4.8329,-2.912357650416667,0.0052208989743531
mp-767205,Li3Mn2F9,2.0418,-2.9123508694735705,0.0736791732142743
mp-761305,LiFe(Si2O5)2,2.9057,-2.9123213840624995,0.0824621310937505
mp-755777,Ce2S2O,0.0,-2.9123084028750004,0.0324888472500006
mp-756018,BaMgO2,3.1592000000000002,-2.912154945625,0.0374159275000005
mp-11625,KCa(PO3)3,5.0389,-2.912069002181123,0.0
mp-763903,V3OF11,1.9343000000000001,-2.9117131712893336,0.012273674499994
mp-759737,Ti3(SnO5)2,1.619399999999999,-2.9117073975000003,0.0495331145000026
mp-556343,SrGaBO4,3.8463,-2.9115956186309515,0.0034725376785731
mp-764306,Li3Mn2F9,2.038399999999999,-2.9113342573307137,0.0746957853571306
mp-541071,KZrP2HO8,4.1955,-2.9109881446008057,0.0017102644230782
mp-558133,Rb2MnF6,3.231299999999999,-2.910872507566666,0.0044220200000006
mp-565904,TiMnO3,1.5326,-2.910498447275333,0.056192149000001
mp-775448,Li2Ti3NiO8,2.8272,-2.910281990892857,0.0212748258928456
mp-541246,Nd2NiO4,1.381299999999999,-2.9101486953571434,0.0582393435714108
mp-753619,BaSrO2,2.2522,-2.910094785625,0.0532097975000001
mp-555396,Mg2PClO4,5.0406,-2.9099658020444044,0.0159485893750002
mp-608254,SmClF,0.0,-2.909735512316667,0.2520782524999996
mp-6289,Ba2Ti(GeO4)2,3.7129,-2.909727840128205,0.0
mp-14556,SmCd(BO2)5,4.4709,-2.9096295712254903,0.0047437038970663
mp-762994,LiMnF4,0.9085000000000001,-2.90957440262,0.0406819016666562
mp-1019603,Cs2BaP2O7,4.6544,-2.909516505411707,0.0
mp-764861,Li2Mn2F7,0.45840000000000003,-2.9093031895681816,0.0965947018181818
mp-556808,RbNb(BO3)2,3.3773,-2.9090562491833327,0.0
mp-17500,GdPtF7,2.3379,-2.908587828981111,0.0
mp-7324,KBePO4,5.2347,-2.9082349661564617,0.0
mp-764237,LiVOF3,1.6839,-2.908134827053333,0.0885359129563587
mp-774258,Ti5Nb(PO4)6,0.006299999999999001,-2.9081085375529088,0.1077730245306547
mp-776808,Li11Fe6F29,3.2092,-2.908002122163261,0.0866639598309211
mp-21892,Al2PbO4,3.9425,-2.9079961342857144,0.0
mp-763267,V3OF11,2.1723,-2.907991249956,0.0159955958333277
mp-4783,BaPrO3,0.0,-2.9079496627499997,0.1862336747500004
mp-29254,PrIO,3.6584,-2.9079142587500013,0.0
mp-763183,LiMnF4,2.2336,-2.90789266262,0.0423636416666557
mp-821,NbO2,0.42600000000000005,-2.907868634791668,0.0049398960416855
mp-767482,Li6ScFe5(SiO3)12,2.7659000000000002,-2.90784537825,0.0024667020833328
mp-779357,V3OF11,2.1816,-2.907828187289333,0.0161586584999939
mp-1009009,LiF,7.5592999999999995,-2.907769368095,0.2731108300000002
mp-761849,Na5Li3Ti5O14,2.9587,-2.9077220394753085,0.0408047372962894
mp-23100,Sr2LuBiO6,1.9118,-2.90769383925,0.0
mp-18797,Yb2V2O7,0.0,-2.907578707613636,0.0
mp-36465,Al2FeO4,2.3609,-2.907459790000001,0.0664237092857238
mp-772676,Sr2WO5,3.1883,-2.907424769843749,0.005505562062515
mp-781061,V3OF11,2.1551,-2.9072672896226663,0.0167195561666613
mp-555231,Ba3Bi2(PO4)4,3.7865,-2.9072421014952385,0.0
mp-989541,Rb2NaSbF6,4.124899999999999,-2.9071839617140003,0.0
mp-567457,Ba3WCl2O5,3.9374000000000002,-2.9071664107063633,0.0
mp-675069,LiNbO3,3.0231,-2.90714981375,0.0068583079999999
mp-28971,Rb2Si2O5,4.0396,-2.90707692375,0.0
mp-764680,V3OF11,2.1733000000000002,-2.906973397956,0.0170134478333272
mp-32407,TaVO5,2.171999999999999,-2.906903050178572,0.0
mp-1019809,KBe2B3O7,4.949,-2.9069020950961546,0.0106764542948658
mp-18737,Nd2NiO4,1.7465000000000002,-2.906862681428572,0.0615253574999821
mp-773297,Li3Ti3CrO8,0.0,-2.9067472366666665,0.0802421049577439
mp-34210,Al2ZnO4,3.030299999999999,-2.9067452378571432,0.1272086871428568
mp-561260,Na2CaP2O7,4.954700000000001,-2.9066600004117062,0.0
mp-557397,K2MnF6,3.2698,-2.9065083020111095,0.0
mp-779967,Dy2Mn2O7,0.9041,-2.9063514712730307,0.0
mp-780818,TiVO4,0.0,-2.9062131752777773,0.095339432083314
mp-23872,Ca3Al2H6S(OF)8,5.7404,-2.9061893107250887,0.0004895927976216
mp-756168,Li2Nb4O11,2.5366,-2.905944473749998,0.0661144799999959
mp-17487,NaErGeO4,3.610699999999999,-2.905937012857144,0.0
mp-765012,V3O2F5,1.292599999999999,-2.9059251740950005,0.0920836592500133
mp-676694,LiNbO3,2.9835000000000003,-2.9058827270833327,0.0081253946666652
mp-560127,K2MnF6,3.1934,-2.905727244788888,0.0007810572222224
mp-33365,CeGaO3,0.0,-2.9057218227500003,0.223271360941176
mp-559958,Rb3MnF7,1.6078000000000001,-2.9056950776627275,0.0058592936363632
mp-774116,Li2Ti3CoO8,0.9994999999999991,-2.905679156428572,0.0994859282142872
mp-765366,LiVOF2,1.6168,-2.905645264476,0.086956771888885
mp-7714,Li4UO5,2.0777,-2.9056187866249994,0.0
mp-758316,La10Bi8O27,1.2729,-2.905594486972222,0.0
mp-19110,BaCrP2O7,3.0648,-2.905464529994589,0.0
mp-542767,Sr2TmRuO6,0.134999999999999,-2.905108911250001,0.0
mp-1020621,RbBe2B3O7,4.865,-2.9050757643269236,0.0142998289636739
mp-780155,Li9Fe3(OF7)2,1.807799999999999,-2.90483898997,0.0445263643055593
mp-19367,NaCr(SiO3)2,2.8718999999999992,-2.9048077822500007,0.0
mp-37995,Ti3Zn2O8,1.8044,-2.904763938461538,0.0883206225000092
mp-6241,LiGa(SiO3)2,4.3095,-2.9041407765,0.0408583500833339
mp-776640,Ti5Cr(PO4)6,0.0,-2.904070505330687,0.0850047586755806
mp-777673,Li2FeF4,3.643399999999999,-2.9040298385371424,0.0869733564285715
mp-674361,LiNbO3,2.9621,-2.90382868595,0.0101794357999995
mp-6745,LiGa(SiO3)2,4.2722,-2.90365452775,0.0413445988333345
mp-581361,Ba3La2C5O15F2,3.9044,-2.9036177079122223,0.0
mp-7035,CaMgAsO4F,3.9326,-2.9035459963987504,0.0
mp-764276,Li2Mn2F7,0.1708,-2.9034651586590914,0.1024327327272667
mp-764253,LiVOF3,1.1513,-2.903296792886667,0.0933739471230241
mp-686057,LiNbO3,3.0381,-2.9030551485000005,0.0109529732499993
mp-565623,NaLaMgWO6,3.489,-2.90296220625,0.0
mp-772682,Dy2W2O9,3.143399999999999,-2.902803152275641,0.0703385078846139
mp-23808,KScBP2HO9,4.8467,-2.902719945848476,0.0
mp-560381,RbIn3F10,3.4383,-2.9027192669214283,0.0064630547321424
mp-761331,LiTi3V(PO4)6,1.241299999999999,-2.9026837159591845,0.0139980022142811
mp-559103,Na7Y2P7O24,4.8343,-2.902523106916668,0.0008923962916789
mp-771948,Ba3LaCl9,3.7824,-2.902507538987692,0.0189549794230785
mp-558162,RbP(OF)2,5.1966,-2.9024853084125404,0.0
mp-558347,K4Ba(SiO3)3,4.2288,-2.902315193602941,0.0019433919607605
mp-777321,LiMnF4,1.5192,-2.9022787034533324,0.047977600833323
mp-19220,CaSi2NiO6,4.4392,-2.90215242325,0.0052587134999972
mp-19100,Sr2CaMoO6,2.2527,-2.90184706475,0.0649646735000004
mp-556797,K2Si3SnO9,3.8617,-2.90139815575,0.0
mp-9055,LiAlPdF6,1.0557,-2.9013327874600017,0.0191210759259252
mp-777130,Li2FeF4,3.3952,-2.9012783949657135,0.0897247999999999
mp-866613,CsNa2Be6(BO3)5,4.5079,-2.901178121106321,0.0004258835344828
mp-554116,BaPb2BrF5,3.2598,-2.901114246772222,0.0016734455555562
mp-694892,CaLa3Mn4O12,0.0,-2.900885930692,0.0023280432499994
mp-505679,HfV2O7,2.6491000000000002,-2.9008528083749985,0.0
mp-27936,Na2SbF5,4.824,-2.9008461407437505,0.0
mp-776715,Li3Fe2F7,3.3770000000000002,-2.900807941944167,0.0585490858333335
mp-997394,NbAgF6,2.8552999999999993,-2.9007975171425,0.0
mp-767246,Li2Mn7F18,0.6911,-2.9006407836348163,0.070212765185186
mp-557098,Ba8V7O22,0.0,-2.9004849723648647,0.015513460350621
mp-23809,RbScBP2HO9,4.8011,-2.9004023368484764,0.0
mp-18334,NaHoGeO4,3.6055,-2.9003817160714287,0.0
mp-24906,UCr2O6,1.0302,-2.900360226388889,0.0176793750000019
mp-772955,Ba2LaCl7,4.1371,-2.9001514105320005,0.0117014757500015
mp-777559,LiFeF4,3.1787,-2.900138844126666,0.0276079610185275
mp-554856,Na2Si2O5,4.4186,-2.8997910418055546,0.0210354991666639
mp-972395,TmBeO3,0.0,-2.89971794375,0.4003514570000011
mp-760226,Nb3O2F5,0.6020000000000001,-2.899616679595,0.0866923644166686
mp-765431,LiVOF2,1.4401,-2.899473504559333,0.0931285318055525
mp-781880,Ba9La5Cl33,3.445,-2.899241962288937,0.0099529406382998
mp-767656,Nb4VO12,1.857599999999999,-2.8985865426470574,0.0540887282352926
mp-775792,AlVO3,2.144199999999999,-2.8984862052500007,0.0878724371249966
mp-762562,Li2Fe(Si2O5)2,3.1715,-2.898401378823527,0.0765975482352958
mp-758035,Li3Ti3(PO4)4,0.0,-2.8983819004761915,0.0796545329093358
mp-10950,Sr2Cu(PO4)2,0.22160000000000002,-2.8982703766300366,0.00292188269231
mp-558966,Ca5(ReO6)2,2.1161,-2.8981234303508776,0.0
mp-775687,Li3Fe2F9,3.942599999999999,-2.898013574336428,0.073708755595252
mp-763784,LiMn2F6,0.9550000000000001,-2.8980070721177773,0.0646075788888929
mp-775530,Li2Ti3FeO8,0.0,-2.8977871899999994,0.1503756478571194
mp-777550,LiFeF4,3.6935000000000002,-2.89757492871,0.0301718764351948
mp-559062,KP(OF)2,5.236499999999999,-2.8971131609125407,0.0
mp-755138,NdInO3,2.6533,-2.89691121375,0.0148804317499999
mp-4747,Ca2SnO4,2.7136,-2.8967400671428565,0.0
mp-755783,Li2Ti(BO3)2,2.9039,-2.8966663815909097,0.0661804123376565
mp-5012,Li2SiO3,5.0766,-2.8965625339583334,0.0
mp-17234,KTiP2O7,0.133999999999999,-2.8964495331006503,0.0400587048755083
mp-40374,Na6TiMn(SiO3)6,2.8038,-2.896314638128959,0.0342942177734411
mp-5079,KSbF4,4.4258,-2.89625113621,0.0
mp-557711,K3Nb3(BO6)2,2.3808000000000002,-2.8962069465416667,0.0
mp-19465,HoCo(BO2)5,3.1169000000000002,-2.8960916209313723,0.0118286795097883
mp-775198,Ti3P6WO24,2.5217,-2.8960360796638662,0.0
mp-566760,LaBMoO6,3.5502000000000002,-2.896027781157408,0.0100875466388892
mp-556098,NaFeF4,3.3274,-2.8957481228766664,0.0
mp-765857,LiCr(SiO3)2,2.951699999999999,-2.8957456430833326,0.0409327231666516
mp-17829,Sr3SmRhO6,2.020299999999999,-2.8957031840909093,0.0
mp-772176,Li3Nb7O19,2.0609,-2.895545829956897,0.0865218879310329
mp-762431,Li2CrSi4O11,0.525799999999999,-2.8955320015972217,0.0654142281172864
mp-773030,ScP2O7,0.0,-2.8955070454940484,0.0619432815624971
mp-626547,Ti3H2O7,2.8908,-2.8954092221658336,0.091422386666661
mp-769904,V2Si2O7,0.0,-2.8952355126136364,0.04670052056818
mp-17495,RbTiP2O7,0.10890000000000001,-2.8951714683279235,0.0376900214891673
mp-755374,Sm2TeO6,2.5849,-2.8951683386111116,0.0993777558333475
mp-777522,LiFeF3,3.282899999999999,-2.8951160227140003,0.0199363709999964
mp-675152,NdPb8F19,3.5795999999999992,-2.8950573026825,0.05428690595238
mp-565633,CaMnB2O5,2.9771,-2.8948603704770366,0.0016865690277896
mp-11718,RbF,5.5244,-2.8947236680949997,0.0
mp-1020144,Na2Be4B4O11,4.983300000000001,-2.8946648444246037,0.0009184293452397
mp-765201,Li4MnOF5,0.5609000000000001,-2.894509352105455,0.0731172010227272
mp-777417,Li4Ti5Mn3O16,0.39970000000000006,-2.894315976293334,0.0400138044271081
mp-559773,Na4Sr(SiO3)3,4.0944,-2.8941999436029415,0.0401721475489971
mp-764810,LiMnF4,2.781399999999999,-2.8941396584533323,0.0561166458333231
mp-766967,Li2Mn3(Si3O8)2,2.8647,-2.894069768810372,0.0434353997222221
mp-778242,Ti2Fe(PO4)3,0.170499999999999,-2.8940499434788367,0.0215784048611045
mp-24148,LiLa2HO3,1.941899999999999,-2.89404154891,0.0213065157142855
mp-18962,Sr2CaMoO6,2.2555,-2.8939723087500013,0.0728394294999992
mp-555428,Sr5(ReO6)2,2.1062,-2.893871372105264,0.0
mp-769812,Tb2Mn2O7,0.8691000000000001,-2.893810314303332,0.0
mp-662567,Nd12Cu6O25,0.0,-2.8937529644476743,0.0666095201744152
mp-5392,Mg2SiO4,3.5073,-2.8928040814285696,0.3431909917857139
mp-16115,Pr2CuO4,0.0,-2.892717426428572,0.0641680671428446
mp-6294,Sr2ErRuO6,0.0,-2.8927116732500004,0.0
mp-15248,K3Nb3(BO6)2,1.9127999999999992,-2.8923621539166673,0.003844792624994
mp-765874,LiV2O2F3,1.5601999999999991,-2.89232381263375,0.0453057910243277
mp-677233,NaAl3Tl2(SiO4)3,2.9332000000000003,-2.8922947021428573,0.0703392959415625
mp-773984,Li3Ti6Co3O16,0.0,-2.892179236785714,0.0264444555357155
mp-554359,Cs2Si3SnO9,3.7921,-2.892065803916667,0.0
mp-566718,Ba3Mo2(P2O9)2,2.384,-2.8919036770326274,0.0
mp-6699,NaMgPO4,4.9274000000000004,-2.8918851818707494,0.0
mp-36447,Al2CoO4,3.0024,-2.891305700714286,0.0001218850000022
mp-15395,CsBePO4,5.1939,-2.8912915015136056,0.0
mp-771123,ScFeO3,0.904,-2.8912861970833337,0.0438280855416657
mp-758527,K3ErSi3(HO5)2,4.6339999999999995,-2.8911252894599992,0.0
mp-760657,Yb(BO2)3,0.0,-2.89107514375,0.061694928791665
mp-782710,Li2FeF4,3.3475,-2.89103398068,0.0999692142857142
mp-25164,SrVPO6,2.4421,-2.89101432728836,0.0
mp-3273,Si5P6O25,5.5931,-2.8909029916617075,0.0
mp-19495,NdCo(BO2)5,3.1128,-2.8908915347549007,0.0006933486838338
mp-1020657,NaSr(PO3)3,5.4018,-2.8908874064668373,0.0
mp-504948,LiScGeO4,3.9614000000000003,-2.8907255857142857,0.0076091728571388
mp-561447,K3AlB8O15,5.0001,-2.8906450027623447,0.0
mp-771738,LiTiCrO4,1.6508999999999991,-2.8905052888095235,0.0
mp-766984,Li2Fe(Si2O5)3,0.33240000000000003,-2.8905024274479163,0.084888498411459
mp-761287,Ca2WO5,3.011599999999999,-2.8904795632812488,0.0594202881249987
mp-556282,Ba2AlInO5,2.0183,-2.8904376504166662,0.0
mp-19468,YCo(BO2)5,3.115,-2.8904025022549007,0.0089588946078507
mp-720244,NaCaMgAl(SiO3)4,2.5873,-2.8903207050000006,0.3941000865937507
mp-862794,K2Pu2O5,0.0,-2.890266833333332,0.0
mp-775700,Li4Ti3Nb2V3O16,0.0,-2.890241804285714,0.028811337991085
mp-853249,Li4Mn3OF8,1.775399999999999,-2.890203920228125,0.0705416799999962
mp-755132,Zr3N2O3,2.677,-2.8901356810637515,0.0294377099999998
mp-24990,NdFeO3,1.474899999999999,-2.89013285725,0.0
mp-12729,Ba2TmRuO6,0.06529999999999901,-2.88983227425,0.0
mp-561246,Al2Si2Pb2O9,2.7575,-2.889758693416667,0.0
mp-1019611,Cs2Na2Sr(B3O5)6,5.6254,-2.8897243618396216,0.0
mp-990440,Na2ZrO3,4.350999999999999,-2.8897053606250007,0.0
mp-3980,LiSbF6,4.933400000000001,-2.8897022415175004,0.0
mp-6245,K5Nb4O12F,3.4222,-2.889592876417728,0.0
mp-776802,LiFeF3,3.484099999999999,-2.8895023837140013,0.0255500099999954
mp-777588,Li2FeF4,3.477999999999999,-2.889426257822857,0.1015769371428572
mp-13755,BaNa(PO3)3,5.3055,-2.8893987657525515,0.0
mp-767604,Li12Nb14ZnO42,3.258,-2.8893538673550725,0.00706874344203
mp-557784,LaNbTeO6,3.297799999999999,-2.8893044969444444,0.0
mp-1019739,Eu2Ge(BO4)2,0.0,-2.8892390652564104,0.0
mp-640524,MnNb2O6,2.5349,-2.8891705670511096,0.0
mp-759244,Li12Nb14ZnO42,3.2302,-2.889117419528985,0.0073051912681183
mp-11887,K2U3(TeO7)2,1.8406,-2.8890262551190475,0.0
mp-642350,KLa(PO3)4,4.348199999999999,-2.8889322587433868,0.060436474444443
mp-775519,Li2Ti3NiO8,2.1304,-2.888826185,0.0427306317857016
mp-685995,Ta6Pb4O19,0.551,-2.8886815196120685,0.0262094598274664
mp-19351,MnSi2O5,3.4858000000000002,-2.8886740052762496,0.1000428267187469
mp-645979,RbCrF5,1.6165,-2.8883739454928565,0.0
mp-773611,Na2Ti3Cr(PO4)6,0.0,-2.8882971391269843,0.015889408628487
mp-764975,LiMnF4,2.181899999999999,-2.8881904847033333,0.0620658195833225
mp-776689,Li3Fe2F9,3.8723,-2.8881886964792853,0.0835336334523946
mp-770749,Li2Ti(BO3)2,2.8806,-2.888145867954545,0.0747009259740209
mp-864241,AcFeO3,0.9887999999999991,-2.8880510002500004,0.0
mp-5955,NaSbF6,4.8892,-2.8877553946425003,0.0
mp-771928,Li3Ti4MnO12,0.0,-2.887677735631333,0.0648165713124946
mp-772441,Y2W2O9,2.3369,-2.88763711971154,0.0666858476923142
mp-25157,BaVPO6,2.469,-2.88763625978836,0.0
mp-772342,Y2W2O9,1.9714999999999991,-2.8874482208653847,0.0668747465384687
mp-765961,LiFeSi3O8,3.143599999999999,-2.8874000926923085,0.0404766396153668
mp-541293,Pr2NiO4,1.335999999999999,-2.8873927460714293,0.0459977453571429
mp-8231,ZrSO,0.7935999999999991,-2.8873917334375,0.0254968866666658
mp-9372,Ba2Cu(PO4)2,0.258499999999999,-2.8873277804761903,0.000918756538466
mp-769573,LiTiVO4,1.4748,-2.88728648452381,0.0557487728571377
mp-557533,Cs2TlVF6,0.0,-2.8872810202139996,0.0
mp-565953,Ba3NbFe3(SiO7)2,2.3971,-2.887274436413043,0.0
mp-765028,Mg11Mn2O13,1.9335,-2.8871265741603844,0.0142947746153829
mp-18243,K2Si3SnO9,3.8295999999999992,-2.887096614416667,0.0143015413333342
mp-19796,Ba2Nb5O9,0.0,-2.887083828828125,0.0
mp-763100,LiMnF4,2.4813,-2.886806829286666,0.0634494749999898