mpid,formula,BG,FE,e_hull
mp-767735,Li12VCr3P4(CO7)4,1.9836999999999991,-2.4058842220650187,0.0780166060096139
mp-559968,Na2NbAsO6,3.1214,-2.4058461730000005,0.0
mp-14469,KHg(PO3)3,3.037499999999999,-2.4057775641454087,0.0
mp-850097,LiMn3(BO3)3,0.08270000000000001,-2.405594827758126,0.0971184186067564
mp-778773,Fe5O3F7,1.301599999999999,-2.405580579472001,0.057963330999998
mp-554084,BaBi6(PO5)4,3.427599999999999,-2.4055136170122893,0.0
mp-849401,Li4Co7(OF7)2,2.0318,-2.4054759988577774,0.0616705859259258
mp-773404,NaLi2MnPCO7,3.5433,-2.4054167431004028,0.0448470398717946
mp-777597,NaLi2V3O9,3.0393,-2.405356752416666,0.0180402633333356
mp-561659,MnF4,1.3254000000000001,-2.4053405018940013,0.0
mp-768516,Ti2(SO4)3,0.0,-2.4053020073835785,0.089957591397062
mp-770114,Mn2PO5,0.0,-2.405240327658155,0.0274267631250069
mp-762674,LiFe4(PO4)3,3.163999999999999,-2.4052319999642853,0.0510308882500041
mp-769825,LiFeBO3,2.8956999999999993,-2.4052182289583337,0.0061676586111083
mp-698668,Nb3ZnFe3(O6F)2,1.7278,-2.4052117791609517,0.1792068309523777
mp-765312,Li3VFeP2(HO5)2,0.0,-2.4051846929437093,0.0456775191447356
mp-18915,LiCoPO4,2.4571,-2.4051437161564637,0.0292080894642872
mp-19461,Na5Nd(WO4)4,4.786399999999999,-2.405084689326922,0.000756241875
mp-755511,Y2Hg2O5,1.6972,-2.405084018472221,0.0982101266666664
mp-850096,LiMn3(BO3)3,0.0,-2.405023590258125,0.0976896561067572
mp-557810,BaH6F8,7.5667,-2.4049741915826663,0.0
mp-850071,LiMn3(BO3)3,0.167799999999999,-2.404959043070626,0.0977542032942562
mp-19346,Fe3(PO4)2,3.4932,-2.404939932014652,0.0
mp-23143,Ca2Cu(ClO)2,0.0,-2.4049356198600003,0.0109452735714237
mp-22442,Ba2NaOsO6,0.0,-2.40481318975,0.0
mp-774658,LiSnPO4,3.215,-2.4047422713945577,0.0813903982143005
mp-768788,Li3Bi(BO3)2,3.9539,-2.4046585040277777,0.0736585089583332
mp-765289,LiSnPO4,3.2874,-2.404651794727891,0.0814808748809534
mp-1382,Ce3S4,0.0,-2.40463889375,0.0034667060714275
mp-566164,NaLiV2O6,3.0841,-2.404628814250002,0.0110972929999997
mp-781740,Li2V3CrO8,0.6137,-2.404416514999999,0.0836642564434182
mp-33392,Sr(CeS2)2,0.0,-2.4043473187500006,0.0326454467857155
mp-9126,Sr(SbO3)2,2.779,-2.404327763055556,0.0
mp-767119,Li3Mn3O5F3,0.7765000000000001,-2.4042894734071427,0.0712178168303543
mp-850395,LiMn3(BO3)3,0.0,-2.404226036820626,0.0984872095442561
mp-863879,TiCo3(PO4)4,0.2469,-2.404206571210319,0.0418548251562356
mp-17265,Sr2CuGe2O7,0.0,-2.404130660312501,0.0550101176389032
mp-850135,Li3V2Cr2O8,0.8428000000000001,-2.404063484666666,0.0545662970624967
mp-771493,NaLi2MnPCO7,3.4761,-2.404029981561941,0.0462338014102554
mp-675756,Ba3P4O13,1.697,-2.403978982431548,0.7276558141249811
mp-775166,Li2TiMn3O8,0.7382000000000001,-2.403952856931905,0.0140143206312259
mp-773802,NaLi2MnPCO7,3.5422000000000002,-2.4038151863696333,0.0464485966025636
mp-764221,Cr2OF2,2.2239,-2.4038019847259995,0.0807960020000022
mp-24617,RbGdH2S2O9,2.6781,-2.403790087941,0.0
mp-554501,Ba5Os3ClO15,0.6081000000000001,-2.4037831552920834,0.0
mp-1003311,CaMn2O4,1.268799999999999,-2.403733252417142,0.0488466885714178
mp-778724,Fe4OF7,1.1598,-2.4036606374650007,0.2198857420833296
mp-19472,Rb2MnV2O7,2.5644,-2.403623719975833,0.0
mp-767951,V11NiO18,0.6177,-2.4036131944166668,0.0348885352917154
mp-769668,Li2TiFe2O5,1.2397,-2.403565314791667,0.0615303950000045
mp-25792,VO2,0.17720000000000002,-2.403526198125,0.0807480360416637
mp-850102,Li4NbFe(WO6)2,2.298999999999999,-2.403507134250001,0.0167473383333351
mp-768797,Li3Bi(BO3)2,3.2588999999999992,-2.403489860069444,0.0748271529166668
mp-19469,Na5Tb(MoO4)4,3.9379999999999993,-2.403447036474359,0.0
mp-771421,Na3Li3Mn2P2(CO7)2,3.4453,-2.40329424252348,0.0302247476923067
mp-853170,Li2MnO2F,1.0629,-2.403286361608333,0.095926944999996
mp-504355,Bi(PO3)4,0.0,-2.4032590130812337,0.0193583271691162
mp-733849,Li2P2H2O7,5.2791,-2.403234463757472,0.0256265307051268
mp-777026,FePO4,1.8779000000000001,-2.403197596765873,0.0246241091666679
mp-767285,Li6MnFeP2(CO7)2,3.6201,-2.4030846461404027,0.047410272307693
mp-775076,CrSb(PO4)2,1.518399999999999,-2.4030820400992057,0.0844438687499984
mp-764871,V2Fe3Te(PO4)6,0.0,-2.403065083015874,0.0783348946874928
mp-769428,Li10Si2NiO10,2.5404,-2.4029396325,0.0512401113043425
mp-23799,NaZnP2HO7,4.5108000000000015,-2.4029295323800395,0.0175370419642879
mp-767930,Li2Nb2Fe3O10,1.5600999999999992,-2.402910660735293,0.0688830920588401
mp-17009,Ba3Te2O9,2.3646,-2.402862871160715,0.0
mp-777851,Li3Bi(BO3)2,2.935699999999999,-2.4028443538194444,0.0754726591666665
mp-768009,Li5Cr17(SiO16)2,1.0661,-2.402831452857142,0.0675405521428551
mp-566277,Na5Er(MoO4)4,3.8857,-2.4028203753846147,0.0
mp-989555,Tl2InGaF6,2.3621,-2.402714241714,0.0
mp-773350,NaLi2MnPCO7,3.4936,-2.40270667752348,0.0475571054487167
mp-752827,Ba2In2O5,0.7034,-2.40267916125,0.0405999366666689
mp-774145,Li2V3SbO8,1.5627,-2.4026127753571425,0.0083611678571458
mp-7979,K2PdF6,2.0399,-2.4025700874600004,0.0
mp-776666,CrFe3Sn2(PO4)6,0.037799999999999,-2.4024554266269837,0.0764828806944475
mp-772375,Fe5Sb(PO4)6,2.193799999999999,-2.4023855837103185,0.0191177732986096
mp-25510,Li3CrPCO7,2.8924,-2.402348929180403,0.0709305394471133
mp-777858,VO2,0.23949999999999902,-2.402307549722222,0.081966684444442
mp-566892,KMoPClO5,2.01,-2.402231986956137,0.0
mp-762543,LiFe4(PO4)3,3.074799999999999,-2.4022013504642863,0.0540615377500124
mp-773530,Na3Li3Mn2P2(CO7)2,3.487,-2.402102330215788,0.0314166599999996
mp-648745,NaTiFeO4,1.978799999999999,-2.4020388473809526,0.2358263484285441
mp-772215,LiNb8O10,0.0,-2.401954695921051,0.074886601578946
mp-771467,Na3Li3Mn2P2(CO7)2,3.5219,-2.4019291675234795,0.0315898226923083
mp-761288,MnBO3,0.0,-2.4018981662753327,0.0387284725937533
mp-755835,LiBiB2O5,3.3119,-2.4018923077314813,0.1022365009722197
mp-768809,Li3Bi(BO3)2,3.2286,-2.401887846111111,0.0764291668750001
mp-704220,FePO4,2.4351,-2.4018388863492066,0.0259828195833335
mp-760798,Li2CuF5,0.8027000000000001,-2.4018258660562504,0.0671374083333482
mp-17100,In2P2O7,3.6658,-2.401810705449135,0.0
mp-605503,CrP3(HO5)2,3.289799999999999,-2.4017093994703567,0.0
mp-758536,KAl2P2H4O11,0.7236,-2.401606944221024,0.0881399743645836
mp-764315,VO2F,1.762299999999999,-2.4015629715474995,0.0785861050000011
mp-769876,TbNiO3,0.0,-2.401542145916667,0.0
mp-6088,LaCuSO,1.6691,-2.401457777578125,0.0
mp-768931,Ga10Si2O19,2.081699999999999,-2.4014228027016133,0.0737336106451733
mp-32041,NaMoPO6,2.7291,-2.401362305621693,0.0
mp-849327,Li2Cu(PO3)3,1.179199999999999,-2.401266089535715,0.0863075602499918
mp-775532,LiNbCoO4,1.019,-2.401222010714285,0.0610645564285707
mp-766759,Li2Fe2P2O9,1.6646,-2.401171019162699,0.0947711706666956
mp-540267,CrP2O7,0.0,-2.4011263769940467,0.0904892978125007
mp-780835,Li5FeO3F2,2.784099999999999,-2.401098263284545,0.088201965681816
mp-19464,Na5Lu(MoO4)4,3.830199999999999,-2.4009706626923077,0.0
mp-24683,RbZn2P2HO8,3.9293,-2.400959787843605,0.0
mp-771800,MnSn3(PO4)4,0.729599999999999,-2.40093037534754,0.0718384687499655
mp-6730,Sr3ZnPtO6,2.566099999999999,-2.400879592954546,0.0
mp-759684,Na3Bi(P2O7)2,0.0,-2.4008681049945886,0.0744769407386343
mp-771604,Li3CrPCO7,2.499199999999999,-2.4007898137957873,0.0724896548317284
mp-6312,Sr2CuCO5,0.0,-2.400766496805556,0.0364059755555636
mp-780179,Li7FeCo3(PO4)6,0.0,-2.4007452797212547,0.0826693032926844
mp-756510,K4TiO4,3.1456,-2.400638114074073,0.0
mp-28848,Ca2Bi2O5,2.495699999999999,-2.400493238657408,0.0073669334259163
mp-769511,NaLiV2O6,3.0701,-2.4004398890000003,0.0152862182500008
mp-774240,Na3Li3Mn2P2(CO7)2,3.5313,-2.4004283721388644,0.0330906180769234
mp-763269,NiP4O11,4.8551,-2.4003902002269344,0.0050971448437291
mp-703231,CdFe2Sb2(PO4)6,2.8426,-2.4003734992448984,0.0
mp-765742,Na3V5O10,0.523,-2.4003133976388886,0.0318102534722104
mp-849505,MnFe2(PO4)3,0.0,-2.400199954735873,0.0376240768055531
mp-775682,Na9Li7V16O48,3.056,-2.4001967526875005,0.0126527638749998
mp-690536,Sr4Fe4O11,0.0,-2.4001810536184216,0.0179316640790263
mp-772000,FeP2WO8,2.4311,-2.4001717730158725,0.0529859753703387
mp-778395,LiCrPO5,0.8471000000000001,-2.4000469255431547,0.1006089291562366
mp-774402,VCr3(PO4)6,0.0,-2.400004659663866,0.0428008073529424
mp-31874,Fe(PO3)4,0.344099999999999,-2.3999992216106443,0.0450709539828517
mp-760136,Li4TiCu3(PO4)4,0.0,-2.3999642592517003,0.0966388958035748
mp-6467,Na2CuP2O7,0.4913,-2.399946969578373,0.0
mp-758814,CaAs2H6F18,4.9837,-2.399936396968148,0.0
mp-566560,PWO5,0.0,-2.3999045861564627,0.0690765198214435
mp-774265,NaLi2MnPCO7,3.4913,-2.3997302157927103,0.050533567179487
mp-769277,Yb2TeO2,0.0,-2.3995581905,0.519451049999998
mp-560799,NaNdH2S2O9,5.7376000000000005,-2.3995143577187776,0.0
mp-761683,Na4TiO4,3.2426,-2.3994672301851856,0.0468180777777762
mp-773743,NaLi2MnPCO7,3.5254,-2.39940821502348,0.0508555679487177
mp-769735,Li3MnPCO7,3.5753,-2.3993841365619417,0.0843692319230653
mp-773183,LiVSiCO7,1.8349,-2.3993318946590905,0.0914801843181827
mp-24302,CdAs2HF13,3.9677000000000002,-2.3992190431817653,0.0
mp-37199,Ce(NdS2)2,0.0,-2.3992166687500003,0.0406414542857147
mp-31540,LiCoPO4,2.6999,-2.399129515442177,0.0352222901785728
mp-734394,KAlP2H4O9,5.2367,-2.399072368348264,0.0099175398529247
mp-14484,KNaLi2(SO4)2,5.297099999999999,-2.3990700195089283,0.0
mp-2656,Nd3S4,0.0,-2.399045733392858,0.0349186864285693
mp-849531,Li2Fe5O5F7,1.6714,-2.3989885789252634,0.0827251632748558
mp-763628,Li3TiMn3O8,1.144299999999999,-2.398873779303111,0.0559769969375052
mp-768095,KV13O20,0.590699999999999,-2.39879599485294,0.0970486997957511
mp-770002,AlCrO4,0.0,-2.3987394425,0.0822967740625015
mp-554498,SiO2,0.5029,-2.398696202222222,0.8860167052777781
mp-772721,LiSi6Bi9O26,3.1079,-2.3986779418452384,0.0281711524702394
mp-25871,Li3Cu2P5O16,0.253799999999999,-2.398601079056776,0.0393538911538362
mp-770647,Li2SiSnCO7,3.272599999999999,-2.3985751746875006,0.0840697079166661
mp-19697,Ba3NiSb2O9,2.3423,-2.3985289134166674,0.0
mp-849472,Li5Co7O3F13,1.924,-2.398511789436429,0.0466931969642852
mp-773403,Na3Li3Mn2P2(CO7)2,3.5248,-2.3984810886773262,0.0350379015384616
mp-773258,K2CrPCO7,2.4556,-2.39846007577877,0.0
mp-553082,PrBi2ClO4,1.1244,-2.398444678532501,0.0
mp-772487,LiCrO2,3.0591,-2.398358550625,0.0014111800000007
mp-699213,CsZn2P2HO8,3.9656000000000002,-2.3982790978436053,0.0
mp-714921,V6O13,0.0,-2.3982744898026307,0.0268439255262951
mp-554294,Na7SnS3(O4F)3,4.9906000000000015,-2.398159872913749,0.0205040689663436
mp-850450,Li7Fe8(BO3)8,1.4263000000000001,-2.398129717304965,0.0159200173404228
mp-773605,Na3Mn(BO3)2,1.4053,-2.3980892753577785,0.0316047335416724
mp-773755,Na3Li3Mn2P2(CO7)2,3.565099999999999,-2.3980376596388644,0.035481330576923
mp-703305,Na2PHO4,4.7475000000000005,-2.398000127714405,0.0
mp-776068,LiVCrO4,1.3665,-2.3979309730952374,0.0563588929166609
mp-770981,Li2VGaO4,1.645,-2.3979221210416664,0.0412360183333353
mp-684508,LiSb2(PO4)3,2.0471,-2.3979076177380954,0.0337233636573985
mp-780282,Cd(BO2)2,2.7302,-2.397902271190476,0.0945455164880941
mp-775624,Na5Li3V8O24,3.1045,-2.3978660676250008,0.0121068582500001
mp-771660,MnP2O7,0.8066,-2.3977160925900467,0.0
mp-680158,K2Ti(GeO3)3,2.847099999999999,-2.397606539527779,0.0680942754444453
mp-774461,TiMn3(PO4)6,0.0,-2.3976015799446504,0.0517666935294123
mp-1018828,NpSeO,0.0,-2.3975635861979163,0.0
mp-775390,Li2Mn2Ni(PO4)3,0.6233000000000001,-2.3975411230602868,0.0697569387500109
mp-8870,LiMgAsO4,3.4543999999999992,-2.3974392257142862,0.0014327883333331
mp-767662,Li3Fe3(BO3)4,1.811699999999999,-2.3974238480303045,0.0786872855113598
mp-733844,Na3GaP2H2O9,3.9887,-2.3974171932165,0.0
mp-778301,Li4V3Cr5O16,0.7725999999999991,-2.3973144657142864,0.0397138600744
mp-770349,LiVSiCO7,1.7103,-2.397296424659091,0.0935156543181818
mp-673118,Sn3(P2O7)2,2.2445,-2.3971938468990936,0.0653914604761807
mp-761697,Ti5Fe11O24,1.0304,-2.397053495083334,0.0696880293653769
mp-757574,Ba8In8O19,1.3122,-2.3970400861071424,0.0160275244285719
mp-773688,Na3Li3Mn2P2(CO7)2,3.4958,-2.396890985215788,0.0366280049999998
mp-770531,MnP2O7,0.851699999999999,-2.3968527888400484,0.0008633037499992
mp-38901,Nd2SmS4,0.0,-2.3968448591071434,0.0392073064285734
mp-782634,VFe5(PO4)6,1.3117,-2.3968043441269837,0.0774834099305703
mp-559115,P2RhClF6,1.424699999999999,-2.3967682434090483,0.0
mp-761032,Hf5N5O2,0.0,-2.39674980995,0.0516234995833357
mp-767301,Li3Co2(SiO4)2,0.6373,-2.3965590580000007,0.0992118528333012
mp-780176,Fe5O3F7,1.2638,-2.396511188138667,0.0670327223333409
mp-25906,Bi(PO3)4,0.0,-2.3964906664635857,0.0261266737867638
mp-1019531,BaAl2Si3(NO)4,3.5604,-2.3964460046085714,0.0
mp-763955,Li4MnV3O8,0.6019000000000001,-2.3963560375600004,0.037623854218749
mp-622195,CsSO3F,5.1506,-2.39627742233375,0.0
mp-707398,Mg2PHO5,2.3981,-2.3962402645887297,0.4123188171296288
mp-762181,Li4CoSn3(PO4)4,1.889299999999999,-2.396235445620748,0.0769520079910695
mp-767730,Li12VFe3P4(CO7)4,2.642,-2.396197740911172,0.044904017109375
mp-32306,Ba2ReNiO6,0.0,-2.396165076250001,0.0139336546666681
mp-761371,P5WO15,0.8798,-2.3960669678202944,0.0715332104761934
mp-775722,Na7Li3V10O30,3.134,-2.39600140285,0.0105196142000014
mp-694541,FePO4,2.6559999999999993,-2.395973614682541,0.0318480912500005
mp-767663,Li2Mn3(BO3)4,0.5216000000000001,-2.3959496225974597,0.0958715669982988
mp-778790,NaV5O8,1.3228,-2.395886945357143,0.0808344051785834
mp-764190,NiP4O11,4.5253,-2.3958765792894345,0.0096107657812289
mp-33444,Sr5(BiO4)3,0.0,-2.3957049995000004,0.0
mp-861580,LiNi(PO3)3,4.3664,-2.395654060216837,0.0760707358928431
mp-753654,LiSnPO4,3.0124,-2.3956405054421768,0.0904921641666813
mp-634591,Nd2Tl(MoO4)4,0.0,-2.3955932743478248,0.0647837489945821
mp-770048,K3VPCO7,2.324499999999999,-2.3955274111034788,0.0339161523798123
mp-764599,VO2F,0.7834,-2.3955252146724995,0.0846238618750012
mp-780319,Li3MnP2H2O9,0.8976000000000001,-2.3954375032729693,0.0370071314705828
mp-2038,Sm3S4,0.0,-2.395434541250001,0.0421762507142835
mp-31594,LiCoPO4,2.6302,-2.395389947227891,0.0389618583928586
mp-778276,Mn3NbNi2(PO4)6,0.0,-2.3952989536514293,0.0584766673611092
mp-645183,Na5Gd(MoO4)4,3.3896,-2.3950908405769225,0.0
mp-771722,Li4Nb3V3(NiO8)2,0.0,-2.3950467325,0.1398895367410828
mp-22067,Ba2CuGe2O7,0.18760000000000002,-2.395012095312501,0.0227893166666595
mp-15919,BeAgPO4,2.6504,-2.3950061581802733,0.0
mp-771416,Na3Li3Mn2P2(CO7)2,3.329899999999999,-2.3949695344465565,0.0385494557692309
mp-31555,LiCoP2O7,0.9979999999999991,-2.394955412721862,0.0153196400000004
mp-776039,NaMnBO3,2.5243,-2.3949008752294443,0.0237730791666663
mp-767736,Li12Cr3FeP4(CO7)4,2.4471,-2.3948951291804024,0.066674439338942
mp-32018,Mn(PO3)4,0.0,-2.394880097255349,0.0543143893750102
mp-720583,Na3B3H2O7,4.5439,-2.394857277066,0.0
mp-510490,GdScS3,1.110199999999999,-2.3948092999375006,0.0
mp-505061,LaCu(WO4)2,1.4321,-2.394746798749999,0.0190991765625021
mp-776146,Li2V3FeO8,1.0216,-2.39464311642857,0.0106858789434163
mp-767702,Li4Ti3Ni2Sn3O16,2.1122,-2.3945928701785717,0.0807431157142817
mp-776686,Li5Fe3Ni2(PO4)6,2.3929,-2.394520040464285,0.0581829358750143
mp-767076,Sn(PO3)2,3.7461,-2.394452688743387,0.0556223690277848
mp-561385,SrTeO3,3.413099999999999,-2.3943687642500007,0.0
mp-764945,LiCoSiO4,0.3476,-2.39427940095238,0.0415276325476066
mp-780925,Li4V3Cr2O10,1.036599999999999,-2.394201206973684,0.073946864934232
mp-850371,Na6V2B4AsO16,0.0,-2.394037874712643,0.0860877173029184
mp-21724,ZnSiPbO4,3.1014,-2.3938795666071435,0.0
mp-9127,Ba(SbO3)2,2.8606000000000003,-2.3935972152777776,0.0
mp-767694,Li12MnFe3P4(CO7)4,3.6399999999999992,-2.393554305545017,0.0403113878846186
mp-763900,NaCo2P3O10,2.3543,-2.3934779585491066,0.0088637416145997
mp-673020,Bi(PO3)4,0.0,-2.3934162998459394,0.0292010404044109
mp-780026,LiMn4(BO3)4,0.34339999999999904,-2.393415203595556,0.0994458381150646
mp-765601,Li3V4O11F,1.994799999999999,-2.393414661049474,0.0781903652631728
mp-627993,LiV2O5,0.292599999999999,-2.39332524984375,0.0694882246875039
mp-770532,Mn2PO5,0.6947999999999991,-2.3932869251581548,0.0393801656250243
mp-18197,Na2BeGeO4,3.7017,-2.3932494337500003,0.0024567968750011
mp-566084,K2LiVO4,3.976099999999999,-2.393216836875,0.0
mp-769583,Li3VCr3O8,1.5089000000000001,-2.393160611,0.0352977190208338
mp-972117,SrTeO3,3.6061,-2.39306649375,0.0013022705000222
mp-763744,LiMnP3HO10,0.9313000000000001,-2.392975529772857,0.0942304923958046
mp-759607,LiSb4P7O24,3.3890000000000002,-2.39297014837963,0.06227538833331
mp-647158,SrTeO3,3.464,-2.3929117795,0.0014569847500025
mp-673144,LiSnP2O7,0.12429999999999901,-2.392872445903679,0.1761333286363653
mp-775135,Cr3Ni(PO4)4,0.0099,-2.392769835932539,0.047564004583366
mp-19083,NaVO3,3.2338,-2.3927133817500006,0.0
mp-765789,Li2NiOF2,2.182099999999999,-2.392704158105,0.0249053574999935
mp-754664,Li2TiCuO4,0.0,-2.392636313333333,0.0923906662500027
mp-767890,Li3CrPCO7,2.6531000000000002,-2.3925488276419404,0.0807306409855748
mp-774266,Na2LiMnPCO7,3.431899999999999,-2.3924948104080954,0.0242793870512825
mp-771575,Li2TiMn3O8,0.7279,-2.39246615889619,0.0255010186669384
mp-767568,Li3Mn4(PO4)6,0.0,-2.3924491708759845,0.0664659954391702
mp-554949,Ba6Ru2Pt(ClO6)2,0.6919000000000001,-2.392436435283479,0.0
mp-690708,KLiPH2O4F,4.9035,-2.3924170444025243,0.0387127007500067
mp-683957,Nd4CuTe5(ClO5)3,1.488999999999999,-2.3923340049475,0.0
mp-37070,Pr2SmS4,0.0,-2.3922638441071435,0.0385491848214298
mp-773685,Na2LiMnPCO7,3.4518,-2.3922045802157874,0.02456961724359
mp-765977,Li2Ni(PO3)5,0.1663,-2.392187004314182,0.0836067401358651
mp-553891,Mg2BP3(H3O7)2,5.1936,-2.3921481152950914,0.0
mp-26574,Bi(PO3)4,0.0,-2.392123680287116,0.030493659963235
mp-705336,Li2Co3(P2O7)2,2.7885,-2.392114596951345,0.0355382531522074
mp-540072,Fe(PO3)4,0.0,-2.3920355916106444,0.0530345839828516
mp-26542,Sb(PO3)4,0.0,-2.391985341757704,0.0355827738970448
mp-773290,KVPCO7,1.813599999999999,-2.3919583090313847,0.0484255972727325
mp-764896,Li7Fe8(BO3)8,1.156399999999999,-2.3919046930496446,0.0221450415957429
mp-765686,Li2Co4OF8,2.2384,-2.3918978680513328,0.0675048836666674
mp-778218,MnFe3Sn2(PO4)6,0.07310000000000001,-2.391875873320317,0.0782280709722327
mp-764459,Li3Fe4(BO3)4,1.8891,-2.391843863115942,0.0249855380434915
mp-780202,Li2FeO2F,1.658399999999999,-2.3918196085316663,0.0530439804166666
mp-695314,Ca5Si2HO9F,2.9067000000000003,-2.3917712417255563,0.9838380852777736
mp-767343,Li3CrPCO7,2.6734,-2.3917689011034784,0.0815105675240364
mp-765948,Li4Nb3Cr2Fe3O16,0.16690000000000002,-2.3917453064285707,0.1361942926785957
mp-643409,Ba4Y(CuO3)3,0.0,-2.3917244616911764,0.0
mp-772548,SmCuO3,0.0,-2.3917104102500004,0.0307503614999768
mp-770672,Na2LiMnPCO7,3.385799999999999,-2.391683204254249,0.0250909932051284
mp-770558,MnP2O7,1.3002,-2.391657855340048,0.0060582372499995
mp-767892,Li3CrPCO7,2.7651,-2.391586818603479,0.0816926500240358
mp-556822,Na2CuP2O7,0.6496999999999991,-2.39154693937004,0.0084000302083362
mp-773726,Na2LiMnPCO7,3.5033,-2.39152514752348,0.0252490499358977
mp-781743,Li3V5Cr2O12,0.41300000000000003,-2.391509129318183,0.0846719424999982
mp-770174,MnP2O7,1.5352000000000001,-2.3915007565900472,0.0062153359999994
mp-853193,Na6Mn2B4PO16,0.0,-2.391465524023513,0.047225598592961
mp-755752,Rb2Be2O3,2.2055,-2.391446789107143,0.0
mp-771388,MnP2O7,1.4175,-2.391375051090048,0.0063410414999989
mp-774267,Na2LiMnPCO7,3.449,-2.39125177502348,0.0255224224358974
mp-753102,La2Bi4O9,1.739099999999999,-2.3912334760833347,0.0135775610000079
mp-756177,Li4ZrNb(TeO6)2,0.0,-2.39118172525,0.0576030243958065
mp-764486,Li3Fe4(BO3)4,1.6499000000000001,-2.3911300320289857,0.0256993691304474
mp-585418,Fe(PO3)4,0.008599999999999,-2.390998309551821,0.0540718660416743
mp-690977,NaP3(PbO3)4,3.2891,-2.3909843849642853,0.0
mp-767898,Li3CrPCO7,2.715999999999999,-2.3909627772573256,0.0823166913701918
mp-764273,Na2LiMnPCO7,3.6455,-2.3909275888696335,0.0258466085897444
mp-721217,K2P2H2O7,5.0961,-2.390847464206191,0.0312713046153829
mp-31575,LiCo2P5O16,1.1541,-2.3908441998115086,0.0100468956249955
mp-763582,KMn2P2HO9,0.5467000000000001,-2.3907822288653646,0.0
mp-767032,Li2Mn4O5F3,0.340199999999999,-2.3906794899042856,0.0783679145089326
mp-851051,MnPO4,0.0,-2.390627734286985,0.0672009484722302
mp-773686,Na2LiMnPCO7,3.4769,-2.390621314061941,0.0261528833974367