mpid,formula,BG,FE,e_hull
mp-762629,LiFeP2O7,1.9942,-2.521562406585497,0.0660031093181823
mp-29001,NaLuCl4,5.1662,-2.5215334725899994,0.0
mp-585408,Li3Sn2(PO4)3,2.805499999999999,-2.5215165649642857,0.0484890519583292
mp-3707,CaGe2O5,2.4285,-2.52150737203125,0.0057620263750015
mp-697563,Ca4MgB4H6(CO9)2,4.2989,-2.5214934390253343,0.0467216373928582
mp-763357,LiP2WO8,2.493999999999999,-2.5214833313492058,0.0519380798611104
mp-767135,LiCr2(PO4)2,0.902899999999999,-2.5214232608608067,0.0760291192948798
mp-767728,Li6Mn(OF)3,2.1,-2.521398034867691,0.0888593192307745
mp-764982,Mn2OF2,1.1267,-2.521321042776665,0.0712577543333328
mp-776111,Li8Fe7(PO4)8,0.024399999999999002,-2.5213128760865806,0.037750391045435
mp-761386,LiCrPO4,1.7955,-2.5213033561564635,0.0630695884523824
mp-20352,Ba3In2O6,0.8820000000000001,-2.521204189772728,0.0
mp-558065,In4(P2O7)3,3.4044,-2.521176941445853,0.0057679868279603
mp-774404,LiVP3HO10,2.1452,-2.5211399259628564,0.0701475035546845
mp-770942,Li4Ti3V2(Fe2O9)2,1.518999999999999,-2.5210534812096785,0.0860888774462189
mp-766457,LiSnP2O7,1.5229000000000001,-2.5210087206764062,0.0479970538636376
mp-764821,V6O11F,0.5169,-2.520953974996667,0.0256986338888758
mp-622497,V3O5,0.9892999999999991,-2.52091804046875,0.0
mp-31604,Li2CoP2O7,3.1026,-2.520888880203373,0.032332105798587
mp-769603,LiVSO4F3,1.1838,-2.5208059787632493,0.0474991018863715
mp-684427,LiSb(PO3)4,4.5289,-2.5206317362433857,0.0166787424999839
mp-555838,SnPO3F,3.6818,-2.520627321339207,0.0
mvc-5737,Ca2CoWO6,1.6033,-2.52059962775,0.1122366704999988
mp-765923,Mn2F7,0.21229999999999902,-2.5205742416944443,0.0519034139351868
mp-775997,V3P2O11,1.306599999999999,-2.52056740468378,0.0623235003124804
mp-565252,Na3Fe2(PO4)3,2.2767,-2.5205186172142873,0.0024160167500211
mp-757917,Be(GaO2)2,2.8901,-2.5204878023809516,0.0
mp-763395,LiV4(PO4)3,1.571999999999999,-2.520458647214287,0.0822438766842168
mp-759141,LiBi(PO3)4,4.4313,-2.520405396798941,0.0628430472222358
mp-767644,LiV(PO4)2,0.647099999999999,-2.52037579218254,0.080460394236117
mp-850757,Fe3OF5,1.5957000000000001,-2.520374626355556,0.0650759272222263
mp-756050,TaCuO3,1.5612,-2.5203579357500003,0.0228785864999974
mp-761572,Li2TiCoO4,0.18149999999999902,-2.5202701489583337,0.0589274562500001
mp-540482,LiCrP2O7,1.2397,-2.5201608649945872,0.1643688981818201
mp-770038,Li2VBO4,2.0451,-2.520151288958333,0.0996389778124999
mp-616718,K3Np(MoO5)2,0.3597,-2.5201043813281245,0.0
mp-6524,CaMg3(CO3)4,4.8153000000000015,-2.520045272250001,0.0036867875000012
mp-770143,LiMnV(PO4)3,0.9245000000000001,-2.519989748624761,0.0426711647222184
mp-25907,LiSn(PO3)4,0.0,-2.519974553743386,0.0426237488657301
mp-762495,LiFe(PO3)4,2.344999999999999,-2.519901248743386,0.0753554073611058
mp-29286,TlSbF4,3.8659,-2.51986353996,0.0
mp-558132,MgVO3,0.0,-2.51985242775,0.2619849009999928
mp-695545,TaTi9Al3Zn23O48,1.6626,-2.519814062321429,0.053004031994047
mp-1020030,LiAl(GeO3)2,3.382999999999999,-2.519729219,0.0004591269523812
mp-762640,LiFe(PO3)4,2.6513,-2.5197089776322756,0.0755476784722155
mp-27210,RbTlF4,2.7647,-2.5196656537100006,0.0
mp-697726,Li2CoP2O7,3.010799999999999,-2.519489448328373,0.0337315376735878
mp-761388,LiCrPO4,1.407699999999999,-2.5193656235374142,0.065007321071433
mp-764713,Li7V4O11F,1.557499999999999,-2.519332288693044,0.0559355615760708
mp-770128,Cs6Ti2O7,3.333,-2.5192886388055555,0.0
mp-637194,Cs3Sc2Cl9,3.9353000000000002,-2.5191693767385708,0.0
mp-565704,CsMo2P3O13,2.239099999999999,-2.5191574479229333,0.0
mp-865865,Yb(ErS2)2,1.466399999999999,-2.519150294464286,0.0
mp-26949,LiSn2(PO3)5,4.116300000000001,-2.5190876477924427,0.0
mp-769967,Li3NbV3O8,0.7048000000000001,-2.5190704046666665,0.0756790354166678
mp-759838,NaSn2(PO4)3,3.288599999999999,-2.5189626252380943,0.0303133133333322
mp-18937,V2O3,0.476099999999999,-2.518960015749998,0.0116437682500016
mp-850138,LiMnP2O7,0.4616,-2.5189133759909517,0.0734549327272731
mp-23623,B5Pb2BrO9,3.4053,-2.518809630122549,0.0
mp-684503,LiSn(PO3)3,4.206300000000001,-2.518803267895408,0.0360969139583327
mp-19930,Nd2Ru2O7,0.0,-2.5187730507954544,0.0097533879545448
mp-33932,NbHO3,2.6275999999999993,-2.518766488974,0.0356164042499997
mp-672958,LiSb(PO3)4,4.0474,-2.5186867062433858,0.0186237724999838
mp-761254,Li5CuP3O11,0.3435,-2.518667088901786,0.0661078464999977
mp-566244,Zr(MoO4)2,2.9382,-2.5186303909090912,0.0242669036363682
mp-540433,Li2Fe3(P2O7)2,3.8427000000000002,-2.5186272530383023,0.0331418332608759
mp-27342,Ge5F12,4.3696,-2.5185634331929414,0.0
mp-758533,Li3Sb(PO4)2,2.9071000000000002,-2.5185428772278913,0.0800567632142863
mp-686614,TaTi9Al3Zn23O48,1.6732,-2.5184821213690483,0.0543359729464283
mp-780042,Li2CoOF3,1.0344,-2.518439879617143,0.0550925930357149
mp-770387,LiMnAlO4,1.6148999999999991,-2.51838330978,0.0638519678571425
mp-752501,LiSiBiO4,3.033899999999999,-2.518123672857143,0.0415220062500028
mp-20374,Ho2C(NO)2,3.996099999999999,-2.518020274965715,0.0
mp-782700,TiMnV4O12,0.6605999999999991,-2.5179713118125933,0.0686512073611265
mp-566874,KMo2P3O13,2.6651000000000002,-2.517941357133459,0.0
mp-765747,Li4TiCr3O8,0.0,-2.5178736304166662,0.0524171772916641
mp-622295,NaMo(PO4)2,2.492099999999999,-2.5177103553075404,0.0115192094096858
mp-22694,LiPPbO4,3.5252,-2.517645235263605,0.0
mp-555812,NaSr3BiO6,1.7251,-2.517638272045456,0.0
mp-567297,CaU(MoO4)4,2.0244,-2.5176373138636348,0.0
mp-775675,V3Fe2Sb(PO4)6,0.0,-2.517563072599207,0.0426118927777849
mp-540463,CrPO4,2.0334,-2.5172532880158727,0.0846179349999989
mp-540038,LiMo(PO4)2,2.4819,-2.5172087523908733,0.0313184299999775
mp-759099,Li3Sb(PO4)2,2.9066,-2.517135645085034,0.0814639953571427
mp-775617,Li4Ti2Nb3Ni3O16,0.0,-2.5170873079761917,0.095914068660714
mp-8201,Rb3PdF5,2.234099999999999,-2.517050201216668,0.0
mp-684042,Li3Bi2(PO4)3,4.0258,-2.516990635964286,0.0472336252500031
mp-562387,Li6Tb2O7,0.0,-2.5169842946944443,0.090245418666667
mp-851036,P3(WO6)2,2.056499999999999,-2.5168879334873946,0.0
mp-853150,Mn3(OF2)2,0.0,-2.5168860011266667,0.0781912247222234
mp-769601,LiVSO4F3,1.3764,-2.516841499013249,0.0514635816363711
mp-558548,Na3B6NO13,3.2938,-2.5167632420056525,0.0
mp-770969,LiVSn3(PO4)6,1.3638000000000001,-2.5166777726734693,0.024016510000008
mp-763483,LiP2WO8,3.6562,-2.516635597182539,0.0567858140278163
mp-763512,Li2CoSiO4,2.7693,-2.5166313515625003,0.0203410184374934
mp-722344,KCa4B22H18ClO46,5.510099999999999,-2.516556448832464,0.0018089655512367
mp-772401,V2Co(PO4)3,0.0,-2.5165306335714286,0.03587309166668
mp-556443,Ba5Ru2Cl2O9,0.0,-2.5165174984872216,0.0
mp-767147,LiCr2(PO4)2,0.0,-2.516504855091576,0.0809475250641007
mp-762780,LiMnP2O7,0.303299999999999,-2.51637386576368,0.0759944429545456
mp-27426,B4PF9,5.712,-2.516252599676565,0.2262282518749998
mp-764580,LiFe2OF3,2.8213,-2.516152625688572,0.0429935449999998
mp-17914,CaGa4O7,2.5336,-2.5161391144791683,0.0
mp-770346,Li2VBO4,2.0372,-2.516092898958333,0.1036973678124999
mp-32486,VPO5,1.8954,-2.515977863477891,0.0
mp-778870,LiFe2OF3,2.7818,-2.5159761239028566,0.0431700467857147
mp-765776,V3CrSb2(PO4)6,0.0,-2.515913811904761,0.0621005874999998
mp-581161,VPO5,1.962799999999999,-2.515888944727891,8.891875003769201e-05
mp-684109,LiBiP2O7,3.9872,-2.51581557249459,0.0450731643939406
mp-3180,Ta2Te2O9,3.1919,-2.515807806826923,0.0
mp-762773,Li5Fe4P4O16F,3.7324,-2.5157459622856995,0.0777845373333478
mp-763470,Li2CoSiO4,2.8270999999999993,-2.5157212309375003,0.0212511390624934
mp-779794,Fe5(OF4)2,1.257599999999999,-2.515622712801333,0.0393511800000041
mp-759117,Li2SbP3O10,3.8109,-2.5155469319866075,0.0741694401041659
mp-774364,LiCrPO4,2.512599999999999,-2.515534716156464,0.0688382284523818
mp-580631,Cs2KTbCl6,5.0878,-2.515457317289333,0.0
mp-773926,VFe(PO4)2,0.06570000000000001,-2.515373338849208,0.0518465114583417
mp-25555,CsMnP3HO10,0.8596,-2.515283214772857,0.0
mp-626085,Si2H2O5,4.5416,-2.515221013721111,0.1381987558333328
mp-684509,LiSn(PO3)3,4.2159,-2.5152016464668367,0.0396985353869041
mp-705333,LiMo(PO4)2,2.6869,-2.5151392713492062,0.0333879110416441
mp-770057,LiMnV(PO4)3,0.8234,-2.515058995291428,0.0476019180555526
mp-558170,Rb3PO4,3.664799999999999,-2.5149871563244046,0.0
mp-769580,V3(PO4)2,2.164999999999999,-2.514779750476191,0.0594706658653851
mp-551918,AlBiO3,2.977899999999999,-2.51476364375,0.052586945624995
mp-771364,Li6CrSn3(PO4)6,1.9426,-2.5147324010892853,0.0831690769062403
mp-697652,HfP2H4O9,5.4204,-2.5147212488700297,0.0074393915624959
mp-26341,LiSbP2O7,3.9593000000000003,-2.5146148359036804,0.016046324166667
mp-582081,Cs3NdCl6,4.9486,-2.514494355456,0.0
mp-773569,LiFe3(OF3)2,2.3315,-2.514461623303333,0.0897537521759241
mp-25760,PrFeGe2O7,2.7016,-2.5144504369318184,0.0
mp-689929,LiV(PO4)2,1.353,-2.514337135793651,0.0864990506250062
mp-766991,Li4Si3(NiO5)2,3.532799999999999,-2.514318533289474,0.0353791710526394
mp-26897,LiSn(PO3)3,3.1143,-2.5142828686096945,0.0406173132440468
mp-566509,Na3Fe3(PO4)4,2.2211,-2.514237145091576,0.0
mp-22214,Rb2RhF6,0.0,-2.5141877163488893,0.0
mp-18253,SrGa4O7,2.4295,-2.5141820653125007,0.0
mp-18673,CsZnPO4,3.880599999999999,-2.514161242227892,0.014189162857142
mp-18843,Ca3FeRhO6,1.4702,-2.5141372065909104,0.003705846136361
mp-773573,V2Sb(PO4)3,0.0,-2.5141322807936506,0.0813399138888897
mp-771561,Na3CrSiBO7,0.9356000000000001,-2.5140521642628197,0.0519932863942296
mp-706805,Sr4Mn2CoO9,0.0,-2.513977792489792,0.0269816937629689
mp-762469,LiFe(PO3)4,2.6502,-2.5138972579100543,0.0813593981944382
mp-29035,Sr(YS2)2,1.8113000000000001,-2.513867383392858,0.0
mp-562012,K2Th(MoO4)3,2.84,-2.513562666944445,0.0560690435069428
mp-19219,Li3VO4,4.0337,-2.5135238275,0.0
mp-566111,VPO5,1.9252,-2.5135129349064624,0.0024649285714293
mp-686085,Sc13Cu13O33,0.0,-2.513391761038134,0.1047562834639954
mp-762290,Li4Fe3Co(PO4)4,1.583699999999999,-2.5131953936564617,0.0090752700446463
mvc-11441,AlCr2O4,0.0,-2.5131401235714295,0.1147427182142895
mp-555082,CsLi5(BO3)2,3.4975,-2.5131397104166666,0.0
mp-781681,LiMn(PO3)4,1.0853,-2.5130915799078317,0.080239872361111
mp-757312,NaInBP2HO9,3.9372000000000003,-2.51306252668181,0.0134956595238131
mp-767722,VFe(P2O7)2,1.2455,-2.513044348494048,0.0157229924166788
mp-755666,Yb2TeO2,0.0,-2.5130379965,0.4059712439999981
mp-541324,Sr2ErGaCu2O7,0.0,-2.513032119903846,0.0256304036057768
mp-765270,Li9Cr4(BO3)8,0.5138,-2.5129198536296298,0.0835813345185139
mp-765267,Li3Fe(BO3)2,2.4444,-2.5128642154861107,0.0132290345833281
mp-757890,LiSiBiO4,3.4191000000000003,-2.5128518680952374,0.0467938110119074
mp-14536,KNa2Zn3(PO4)3,3.9,-2.512829851156462,0.0020811998809522
mp-3237,Na2CuF4,0.8944999999999991,-2.512822999251429,0.0
mp-771077,LiFeB2O5,2.5189,-2.512682012453704,0.047087035972213
mp-8449,Rb2Li2SiO4,3.8516,-2.512626838888888,0.0
mp-759185,LiSb(PO3)4,3.7298,-2.512548206521163,0.0247622722222065
mp-777220,LiFe3(OF3)2,1.5802999999999991,-2.5124725208033323,0.0917428546759282
mp-765441,LiMn5O3F5,0.8525,-2.5124445935357147,0.0795874292857128
mp-758944,LiBi(PO3)4,4.4348,-2.5124308849933863,0.070817559027791
mp-767483,VPO5,1.7964,-2.512345030620748,0.0036328328571801
mp-6782,Li2ZrTeO6,2.7792,-2.5122115817500004,0.0123712265000035
mp-759871,LiBi(PO3)4,4.3278,-2.512139983465608,0.0711084605555694
mp-774043,MnV(P2O7)2,1.0275,-2.512098345042048,0.0201746602500136
mp-557035,K3SO4F,5.2345,-2.5118832028058344,0.0020730875000003
mp-757663,LiSn(PO3)4,0.0,-2.5118199867989417,0.0507783158101737
mp-759406,Li3Sb(PO4)2,3.331099999999999,-2.5118144724064626,0.086785168035715
mp-556902,KLi4NbO5,3.7769999999999992,-2.5118106069318173,0.0
mp-765269,Mn2F7,0.46269999999999906,-2.511742145305555,0.0607355103240756
mp-561243,Sr2CuClO2,2.384299999999999,-2.5116761448488893,0.0
mp-771475,Li4MnNb2WO12,1.2585,-2.511639417297999,0.0473428335000001
mp-556488,RbNiF3,4.6929,-2.5116068650473338,0.0
mp-849772,LiTi3Nb(CuO4)3,0.0,-2.5115660117500003,0.0864271386250132
mp-763638,LiFeP2O7,2.3635,-2.5115594299945885,0.0760060859090909
mp-773922,Li8Ti6Mn7O30,0.9131,-2.5114444649847054,0.0931464995098059
mp-25104,La2NiIrO6,0.0,-2.51119703875,0.0017122223333325
mp-770335,Li3VBO5,1.859,-2.5111874502916662,0.0922806340000059
mp-3217,USeO,0.0,-2.5111731082812505,0.0
mp-558323,SrBi2B2O7,2.804,-2.5110735326736124,0.010147015729168
mp-541325,Sr2HoGaCu2O7,0.0,-2.5110226652884617,0.0234931800961613
mp-759289,LiBi(PO3)4,4.6826,-2.5109755834656085,0.0722728605555689
mp-28156,NaGdCl4,2.47,-2.510954754673333,0.0
mp-762199,LiP2WO8,3.5405,-2.5109141638492063,0.0625072473611494
mp-984052,Ba(LuS2)2,1.7477,-2.510804726250001,0.0
mp-764642,Li2CoSiO4,2.5197,-2.510765365625,0.026207004374994
mp-583094,Li3VO4,3.939,-2.5107538784375,0.0027699490624994
mp-757806,LiSn(PO3)4,0.056599999999999005,-2.5107060259656087,0.0518922766435077
mp-753414,Lu2Pt2O7,1.698899999999999,-2.5107036144318187,0.0
mp-4582,NdRhO3,0.646799999999999,-2.510679509250001,0.0
mp-6299,K2Mg2(SO4)3,5.544899999999999,-2.510677813930922,0.0
mp-765954,LiP2WO8,2.308,-2.5106214575992056,0.0627999536111501
mp-764157,Na3Fe2(PO4)3,2.3868,-2.510598663964287,0.0123359700000209
mp-771303,LiMnB2O5,2.1107,-2.5105465772825912,0.0886273750348358
mp-767139,LiCr2(PO4)2,1.0178,-2.5105013923992674,0.0869509877564187
mp-19356,YbMnO3,0.0,-2.510449328608665,0.2018697543333329
mp-759673,LiBiP2O7,4.1874,-2.5104083711309526,0.0504803657575783
mp-771799,Mn3V(PO4)4,0.0796,-2.510368156469206,0.0303485226041644
mp-25672,VPO5,1.9882,-2.5103342370493187,0.0056436264286094
mp-558057,LiCdCoF6,0.0,-2.510332454126667,0.0437135799999985
mp-770015,Na3MnBPO7,1.4831,-2.5102994580363003,0.0092780349965568
mp-765286,LiSn(PO3)4,0.0,-2.510266683465608,0.0523316191435077
mp-4208,Ca2RuO4,0.0,-2.510259325,0.0320634317857129
mp-556821,RbEu(SO4)2,0.0,-2.510226647760416,0.0
mp-774125,LiNbFeO4,0.784199999999999,-2.510191390000001,0.0568470628571446
mp-12625,U2TeO2,0.0,-2.5100479005000027,0.0
mp-759416,Li3Sb(PO4)2,3.1144,-2.5100064403231293,0.0885932001190479
mp-644303,UW3O11,0.0,-2.509875879916667,0.0300624566666147
mp-764634,Li2CoSiO4,2.4566,-2.50983485875,0.027137511249994
mp-757138,Li2Sn(PO3)4,4.0198,-2.509822529072682,0.0884296676973619
mp-768092,LiVSO4F3,1.5144,-2.509809584513249,0.0584954961363717
mp-8873,LiGeBO4,4.526400000000001,-2.5096895595238102,0.0
mp-557772,CsNiF3,5.3618,-2.509593389714,0.0
mp-772109,LiSiBiO4,2.9523,-2.5095915053571427,0.050054173750003
mp-559585,FeAs4F18,3.069899999999999,-2.509513736366088,0.0004600716304388
mp-22512,Sr2In2O5,0.998499999999999,-2.5094680223611108,0.0293177441666685
mp-694945,Ba3La7Mn2(Co4O15)2,0.0,-2.5093602303883995,0.0482844357000002
mp-758840,KB6P(H2O7)2,5.8809000000000005,-2.5093204234644317,0.0
mp-781058,Fe3OF5,0.0008,-2.5092295619111105,0.0762209916666716
mp-773205,LiMnB2O5,1.011,-2.5092041647825916,0.0899697875348346
mp-779914,Fe3OF5,1.6254,-2.5090542513555563,0.0763963022222267
mp-975347,NdGeO3,0.0,-2.5090290732500007,0.4501114341944419
mp-761664,Li2CoP2O7,2.9887,-2.509016542911707,0.0442044430902539
mp-29457,Ba2Cu5F14,0.0,-2.508975152221905,0.0
mp-13038,Dy2C(NO)2,3.978899999999999,-2.508846341156191,0.0
mp-42458,SrAl3P2(HO2)7,4.9878,-2.5087972316307594,0.0369065982870378
mp-763909,V6O11F,0.0,-2.508789767218888,0.0378628416666551
mp-6078,Na2Cd3Si3O10,2.446799999999999,-2.5087037165277786,0.0
mp-775268,Li8Mn7Fe(BO3)8,2.96,-2.508685195209444,0.0043157727430527
mp-779873,Li8Mn7Fe(BO3)8,2.981099999999999,-2.5086074354177774,0.0043935325347197
mp-778763,Li8Mn7Fe(BO3)8,2.9645,-2.508599401251111,0.0044015667013859
mp-780298,Li8Mn7Fe(BO3)8,2.9777,-2.5085791052094435,0.0044218627430536
mp-8018,K2RhF6,0.0,-2.5085739296822225,0.0
mp-779173,Li8Mn7Fe(BO3)8,2.9791,-2.5085523070844444,0.0044486608680527
mp-558516,TmSeClO3,4.336799999999999,-2.508548429683959,0.0
mp-758086,LiSn(PO3)3,4.1888,-2.50853388557398,0.0463662962797615
mp-778916,Li8Mn7Fe(BO3)8,2.974,-2.5085182081261097,0.004482759826387
mp-778721,Li8Mn7Fe(BO3)8,2.9745,-2.508467707292777,0.0045332606597199
mp-722342,NaCa2B9(H2O5)4,5.1407,-2.5084203282865003,0.0060097491041695
mp-774189,Li8Mn7Fe(BO3)8,2.9742,-2.508416549167777,0.0045844187847201
mp-779167,Li8Mn7Fe(BO3)8,2.9821,-2.5083784583344437,0.0046225096180529
mp-779202,Li8Mn7Fe(BO3)8,2.9747,-2.5083614412511097,0.0046395267013865
mp-773304,Li3Nb2CrO6,0.35299999999999904,-2.508247184791666,0.0895950008333361
mp-776003,Mn2V3Cu(PO4)6,0.0,-2.508201781680316,0.0145539183333216
mp-780110,LiVP2HO8,1.398899999999999,-2.508115216908497,0.0314603416346432
mp-504723,Ba2NiWO6,3.3409,-2.508088385750001,0.0
mp-776046,TiFe3Sb2(PO4)6,1.102999999999999,-2.5080734540343914,0.036696860659716
mp-780485,LiVP2HO8,1.3803,-2.508030022100805,0.0315455364423353
mp-1003856,MgMnO2,1.712899999999999,-2.5079713271150004,0.0248708237499952
mp-542737,TiZn2O4,2.306899999999999,-2.507874950238095,0.0296609458333341
mp-694554,Mn3(P2O7)2,0.0,-2.507874164655284,0.0174860826190421
mp-762548,LiFe(PO3)4,2.3914,-2.50782141596561,0.0874352401388831
mp-761638,Li2CoP2O7,2.3923,-2.5078144558283726,0.0454065301735884
mp-765941,Mn2F7,1.8053000000000001,-2.5077852855833336,0.0646923700462975
mp-777138,LiVP2HO8,1.3892,-2.5077821146008064,0.0317934439423348
mp-779219,Li8Mn7Fe(BO3)8,2.886699999999999,-2.5077267777094434,0.0052741902430533
mp-779234,Li8Mn7Fe(BO3)8,2.9053,-2.5077102522927768,0.0052907156597195
mp-850771,Li8Mn7Fe(BO3)8,2.901,-2.5076820197927767,0.0053189481597195
mp-779175,Li8Mn7Fe(BO3)8,2.902799999999999,-2.507659654792777,0.005341313159719
mp-778353,Li8Mn7Fe(BO3)8,2.8977,-2.507649890417777,0.0053510775347191
mp-779854,Li8Mn7Fe(BO3)8,2.8974,-2.507638029584444,0.0053629383680524
mp-695816,LiFeP2O7,2.4343,-2.5076072293127707,0.0799582865909087
mp-25709,AlVMoO7,2.3303,-2.507593736375,0.0
mp-779267,Li8Mn7Fe(BO3)8,2.8964,-2.507582418959444,0.0054185489930524
mp-626528,NbHO3,2.5186,-2.507552823474,0.0468300697499994
mp-1016845,ZrCdO3,0.0,-2.507496097750001,0.3453962990000008
mp-541327,Sr2TbGaCu2O7,0.0,-2.5074683847756414,0.0174219569711624
mp-28255,LaHO,2.4324,-2.5074267387066658,0.0
mp-779867,Li8Mn7Fe(BO3)8,2.885199999999999,-2.507426032292777,0.0055749356597196
mp-767037,LiV(PO4)2,1.0161,-2.5074188538492077,0.0934173325694498
mp-767976,Li4Nb3V3(SnO8)2,0.12340000000000001,-2.5073867135714285,0.0961976027455335
mp-779074,Li8Mn7Fe(BO3)8,2.8964,-2.5073530787511102,0.0056478892013869
mp-757560,Li3Sn2(PO3)7,4.3251,-2.5072816767550496,0.0725787561111106
mp-764100,Li2CoOF2,0.18250000000000002,-2.507268607271667,0.05667589083333
mp-721249,Li10Ge(PO6)2,4.4921,-2.5072367764476193,0.0956497260000022
mp-780442,Li6Mn5Fe(BO3)6,2.6098,-2.5071272210361117,0.0010349335648136
mp-849441,LiVP3HO10,2.3312,-2.507123178775357,0.0841642507421838
mp-772681,Cr(PO3)2,2.3932,-2.507103251243387,0.0682586295666833
mp-779844,Li6Mn5Fe(BO3)6,2.6031,-2.507090465758333,0.0010716888425914
mp-850228,Li6Mn5Fe(BO3)6,2.6117,-2.507081855480556,0.0010802991203684
mp-774303,Li6Mn5Fe(BO3)6,2.6115999999999993,-2.5070778040916677,0.0010843505092568
mp-15960,Li5AlO4,4.662000000000001,-2.50706910275,0.0
mp-774368,Li6Mn5Fe(BO3)6,2.6076,-2.507068455758334,0.0010936988425909
mp-774370,Li6Mn5Fe(BO3)6,2.6092,-2.5070644913138898,0.0010976632870347
mp-23096,LuSeClO3,4.3255,-2.5070282626006257,0.0
mp-572797,Cs2IrF6,0.0,-2.5070131941266665,0.0
mp-850225,FeP6(WO8)3,2.0728,-2.5069863240756303,0.0
mp-566429,Rb5ErHf(MoO4)6,3.7417000000000002,-2.506970919999999,0.0
mp-765835,LiV5O7F,0.7892999999999991,-2.5069501510671435,0.0562977924702377
mp-754711,Nb2Pb2O7,0.9375999999999991,-2.5069436657954545,0.0166396025757578
mp-25791,BaV2CdO7,3.0724,-2.5069418185227264,0.0089242954545483
mp-762457,LiFePO4,3.592899999999999,-2.50694154829932,0.0446354014285708
mp-765880,Mg3Fe2O5,2.2009,-2.5068769196250003,1.5921000008134456e-05
mp-41829,BaNdNiSbO6,2.5993,-2.5068248165,0.0447993223999994
mp-779841,Li6Mn5Fe(BO3)6,2.604399999999999,-2.506811974925,0.0013501796759243
mp-556604,BaCuPClO4,0.44929999999999903,-2.5068110992319053,0.0058007306249994
mp-779891,Li6Mn5Fe(BO3)6,2.6001,-2.5068096843694434,0.0013524702314811
mp-774362,Li6Mn5Fe(BO3)6,2.604199999999999,-2.5067660010361124,0.0013961535648121
mp-28891,Li7TaO6,4.373399999999999,-2.5067308388690472,0.0324092659523804
mp-545500,BaSbClO2,2.8810000000000002,-2.506635041152,0.0