mpid,formula,BG,FE,e_hull
mp-762703,LiFeSiO4,2.6304,-2.566606225357144,0.0554109282142789
mp-768890,Li4B2O5,4.8277,-2.5665831854166665,0.0695703108333329
mp-27275,Li3BO3,5.1473,-2.566570180416666,0.0
mp-648971,Ce2Mo4O15,0.053799999999999,-2.5664835168452367,0.0262245504591831
mp-6491,Na2ZnP2O7,4.0485,-2.566439518953373,0.0032629167360997
mp-558582,In(PO3)3,4.372199999999999,-2.566413221579671,0.0039013605128239
mp-554825,K2SnP2O7,4.1772,-2.5663819710367073,0.0
mp-777435,MnVP2(O4F)2,1.1557,-2.5663606371093195,0.0079332432936567
mp-780152,LiFeOF2,1.7902,-2.566263598476,0.0963769604722308
mp-18774,NaFeP2O7,2.4732,-2.5662243193127705,0.0
mp-5455,K6Ti2O7,3.4489,-2.5662129951388892,0.0
mp-779881,Fe4OF7,1.663,-2.566087450798334,0.0574589287499964
mp-767550,Na2TiPCO7,0.1887,-2.565919158417659,0.0810816325749907
mp-780927,Li2VP2HO8,2.3775,-2.5658620471293188,0.0408459821428621
mp-769980,Li4AlCr3O8,3.1818,-2.565846248125,0.0079956785937511
mp-778791,Fe4OF7,1.3306,-2.5658274445483342,0.0577189350000137
mp-767946,Mn2V3Sb(PO4)6,0.0,-2.565825668485873,0.0249963305555489
mp-770316,Li4AlCr3O8,3.0624,-2.565758803125,0.0080831235937512
mp-770091,Li4AlCr3O8,3.2438,-2.5657315496875004,0.0081103770312509
mp-761713,LiFeSiO4,3.005,-2.565617397142856,0.0563997564285756
mp-755194,Er(ReO4)2,0.0,-2.5655845949999976,0.0165775557197029
mp-770752,Ce(WO4)2,1.7063,-2.5655841522727267,0.0986561113636366
mp-767779,VCr(P2O7)2,0.903799999999999,-2.5655125884940477,0.0261339716249935
mp-766155,LiMnPO4,3.611399999999999,-2.5655074341507493,0.0846507928571425
mp-770311,Li4AlCr3O8,3.203999999999999,-2.5655014909375007,0.0083404357812506
mp-770051,Li4AlCr3O8,3.1125,-2.56549260375,0.0083493229687512
mp-667471,KB5O8,4.1303,-2.565427530505953,0.2932910658928547
mp-770240,Li4AlCr3O8,3.1083,-2.565353395937501,0.0084885307812507
mp-763739,Li3Fe2(SiO4)2,1.140299999999999,-2.565312999333333,0.0591327118333229
mp-769691,ScCoO3,0.0,-2.5652441952500005,0.0934798694999958
mp-706235,NaCa2V3Zn2O12,3.0254,-2.56518977525,0.0
mp-762587,LiFeSiO4,2.8554,-2.565141712321428,0.0568754412499936
mp-769984,Li4AlCr3O8,3.1048,-2.5650823756250007,0.0087595510937505
mp-868821,Li2TiCr3O8,0.0,-2.5650451626190485,0.0194958601984129
mp-705361,LiCrP2O7,1.9503000000000001,-2.56503019181277,0.1194995713636375
mp-23651,Na4Al3Ge3IO12,3.4006,-2.565022276304348,0.0
mp-766848,LiMn2F9,2.2518,-2.565004490635834,0.0177679326909734
mp-766972,LiMn2O2F3,0.737599999999999,-2.5650017428737493,0.0294309315625005
mp-28559,Na6Be8O11,3.6365,-2.5649903297500005,0.0
mp-540415,LiMnP2O7,0.686499999999999,-2.5649577248545885,0.0274105838636371
mp-634802,Np(OF)2,0.0,-2.564795576726,0.8553704719999988
mp-560608,Nd10S14O,1.8352,-2.564780057225,0.0023476270999989
mp-25794,V2CdP2O9,1.7336,-2.5647565194600355,0.0
mp-764212,Li2VO3F,2.5305,-2.5647462210628573,0.0860330017857089
mp-777068,LiMnP2O7,0.8744999999999991,-2.5647040350818613,0.0276642736363639
mp-19507,BaMn2V2O8,2.1893,-2.5646828926476912,0.0
mp-763259,Mn3(PO4)2,2.8392,-2.5646474510823443,0.0
mp-770341,Li4AlCr3O8,3.081599999999999,-2.56463455,0.0092073767187512
mp-762650,Li3Fe2(SiO4)2,1.3314,-2.5646315319999995,0.0598141791666568
mp-763124,Fe4OF7,1.6849,-2.5646103782983345,0.0589360012499966
mp-23427,Ti3(BiO3)4,2.424899999999999,-2.5645157615789467,0.0
mp-765996,LiMn2O2F3,0.6333000000000001,-2.564466812873749,0.0299658615625002
mp-19626,Mn3Fe2(SiO4)3,2.363299999999999,-2.5644656316440004,0.0155033456250013
mp-760812,Li3CuF6,0.8733000000000001,-2.5643937934640006,0.0523271075833342
mp-772899,Li3ZrO3,0.0,-2.5643889276785714,0.0823913183571436
mp-557940,KNd(CO3)2,4.3598,-2.564382439500001,0.0
mp-861622,LiMnPO4,3.3449,-2.564376634507892,0.0857815925
mp-851283,LiFeSiO4,2.729999999999999,-2.5643471560714284,0.0576699974999934
mp-558142,Cs4Ni3F10,4.9549,-2.564322206288236,0.0
mp-764137,NaFeP2O7,2.5268,-2.5643216054491336,0.0019027138636369
mp-765846,LiMnPO4,3.2595,-2.5643156748650333,0.0858425521428509
mp-32024,Li3Mn2(PO4)3,0.9513,-2.564304722060286,0.0174580574999989
mp-752411,Tm2Pb2O7,0.9136999999999991,-2.5642932703409103,0.0212473114772722
mp-764359,CrOF,1.424599999999999,-2.564277231646665,0.0912091430555417
mp-763781,Li3Fe2(SiO4)2,1.6844000000000001,-2.5642365010000003,0.060209210166656
mp-755723,Er2Pb2O7,0.916899999999999,-2.5641774803409088,0.0057111335227277
mp-770986,LiVBO4,1.590099999999999,-2.564159051666667,0.0878116499999919
mp-567173,K2Mn2Zn4Si4O15,1.6655,-2.564079618172963,0.0051024099074066
mp-763660,LiMn(PO3)4,1.0613,-2.5639806718522755,0.0293507804166672
mp-540188,LiMnP2O7,1.1437,-2.5639454428091346,0.0284228659090901
mp-553991,Ti(GaO2)4,2.3608000000000002,-2.563907287435897,0.0026405194230836
mp-560266,Na3B5SO8,3.8692,-2.563703234993873,0.0054754568137269
mp-762687,LiFeSiO4,1.8255000000000001,-2.5636865764285717,0.0583305771428497
mp-21266,BPPbO5,4.259,-2.563611001376488,0.0
mp-764556,Li5Fe7O3F13,0.6779000000000001,-2.5636067594364293,0.1035036673214273
mp-1018030,Sr2SO,2.1896,-2.5635821288281244,0.2234507625000006
mp-774131,V3Sb(PO4)4,1.530299999999999,-2.56353462280754,0.0597240218750005
mp-40761,SrLaMnCoO6,0.0,-2.563453071846,0.0072632403906247
mp-540331,LiMn(PO3)4,1.5583,-2.5634263421300543,0.0299051101388885
mp-770411,Li2AlFeO4,3.118999999999999,-2.563310878125,0.0231460215624998
mp-762804,LiFeSiO4,2.5507,-2.563307239642857,0.0587099139285642
mp-861174,Li3Fe(PO4)2,2.2938,-2.563302343537416,0.0647190082440483
mp-3118,Mg3TeO6,2.9101,-2.5632575812500007,0.0
mp-1019727,NaEuGeO4,0.0,-2.5632365785714284,0.0003356157142864
mp-761328,LiVPO4,2.5249,-2.5632083536564627,0.0876553418073546
mp-565651,Pr2Mo4O15,3.1862,-2.5630921154166653,0.0
mp-707195,KSiHO3,4.768199999999999,-2.563087825395,0.0
mp-763950,V3O5F,0.0,-2.562934603604445,0.0460963799999927
mp-778460,Li3Bi(PO4)2,4.2483,-2.562805977942177,0.059543901428575
mp-23309,ScCl3,3.8723,-2.5627485186950003,0.0
mp-15728,MgAg(PO3)3,3.3422,-2.5627192864668364,0.0
mp-861693,LiMnPO4,2.9528,-2.5625496043293188,0.0876086226785721
mp-774106,Li3Fe2(SiO4)2,1.511199999999999,-2.562543599,0.0619021121666563
mp-767938,LiFeSiO4,2.8707000000000003,-2.5625249117857143,0.0594922417857075
mp-26407,Li2SnP2O7,4.118600000000001,-2.5625236335367063,0.0257037077083275
mp-776672,Li2NbV3O8,0.135999999999999,-2.562503582857143,0.0934636554910604
mp-567162,Na2U(MoO5)2,2.2616,-2.562384087166667,0.0066429169999988
mp-770330,LiVBO4,0.2086,-2.562346832619048,0.0896238690476112
mp-765526,Li3NiOF3,1.9121000000000001,-2.5623429824774995,0.0460842037500004
mp-778787,Li3Fe(OF)2,2.5174,-2.5623324681099997,0.0665352731249999
mp-34141,Sr(LaS2)2,2.2358000000000002,-2.562295213750001,0.0
mp-771843,Mn3(PO4)2,2.8782,-2.562154776082344,0.0024926749999938
mp-761438,Li2Cr2P2O9,2.3611,-2.5620012178293647,0.0792254565555525
mp-770707,Li2AlFeO4,3.0695,-2.5619872115625,0.0244696881250003
mp-17167,Be3Cd4Si3TeO12,2.8787000000000003,-2.561942190434784,0.0
mp-760650,Li3Bi(PO4)2,3.4539,-2.5618356111564617,0.0605142682142894
mp-21742,Ba5AlIr2O11,0.0,-2.56182454625,0.0
mp-973613,LiCeO3,0.0,-2.56173482075,0.4655062649999993
mp-558277,Ti3(BiO3)4,2.2583,-2.561727086842105,0.0027886747368146
mp-850484,LiVPO4,2.574999999999999,-2.561714769013605,0.0891489264502123
mp-541956,CsTiAsO5,3.0051,-2.561681835520833,0.0
mp-540356,LiFe(PO3)4,2.5020000000000002,-2.561475363743386,0.0337812923611062
mp-762656,LiFeSiO4,2.7244,-2.561390917142858,0.0606262364285639
mp-761599,Li4MnP2O9,1.4716,-2.5613593570875297,0.0195325582812504
mp-771382,LiVBO4,0.399,-2.561356306428571,0.090614395238088
mp-765801,Mn3F10,0.0373,-2.56134683729077,0.0754143390064099
mp-761392,LiCrPO4,2.4892,-2.5612651336564625,0.0231078109523839
mp-555743,LiZnPO4,4.1939,-2.561245336335034,0.0
mp-770028,LiVBO4,1.8254000000000001,-2.5612203805952385,0.0907503210714208
mp-770704,Li2AlFeO4,3.0421,-2.561182935,0.0252739646874999
mp-21137,Ca2PbO4,1.481999999999999,-2.561081841428571,0.0
mp-555464,KRb2NiF6,0.0,-2.5610252367139994,0.0139417990000003
mp-772339,LiNbFeO4,2.5094,-2.5609742428571445,0.0060642099999999
mp-770733,Li2AlFeO4,3.0507,-2.5609388556249995,0.0255180440625002
mp-859131,LiMnPO4,3.523799999999999,-2.5608706516507485,0.0892875753571429
mp-759657,Li3CuF6,0.44729999999999903,-2.560835533464,0.0558853675833344
mp-652479,LiZnPO4,4.189599999999999,-2.560814645710034,0.0004306906249924
mp-560560,CdSiO3,2.573,-2.5607788467500003,0.0
mp-779084,LiCr(PO3)3,3.1423,-2.5606788139668373,0.0715960348421287
mp-706631,Na2B3HO6,4.6148,-2.5605706259266667,0.0
mp-778565,Li2AlFeO4,3.0568,-2.560559155,0.0258977446874997
mp-770673,V5Sb(PO4)6,0.0,-2.560553881488095,0.090491213194447
mp-763970,V4O7F5,1.5531,-2.5605533706062498,0.0178748727083384
mp-770629,Li2AlFeO4,3.0927000000000002,-2.560373860625,0.0260830390624997
mp-861394,Li2Si2NiO6,3.7537000000000003,-2.5603450106818184,0.0915775206818239
mp-767283,LiFeSiO4,2.5873,-2.5603146178571428,0.0617025357142786
mp-764341,Li3FeSiO5,2.3144,-2.560312019875,0.0083676142499928
mp-743616,K2FeH2OF5,3.8684,-2.5602274117672725,0.0
mp-853198,V2Sn(PO4)3,0.0,-2.560118262460319,0.0531903727083333
mp-5032,La3Ru3O11,0.0,-2.5600871565441192,0.0072172377941175
mp-559934,LiZnPO4,4.13,-2.5600804829421757,0.0011648533928507
mp-775164,Li2NbCr3O8,2.2504,-2.560069548214285,0.008238491428564
mp-767838,LiFeSiO4,2.7268,-2.5599700535714285,0.0620470999999938
mp-764196,Li2VO3F,2.452,-2.5599254857057145,0.0908537371428517
mp-585265,LiMo2(PO4)3,1.3906,-2.5599121374603184,0.0039584531944196
mp-850899,Mn3OF8,0.45210000000000006,-2.559910903220833,0.0633245994328683
mp-560740,La2SnS3O2,1.6742000000000001,-2.5598788955859373,0.0
mp-771859,Li3MnSiBO7,1.5078999999999991,-2.5596927501058966,0.0615087523846167
mp-767313,Li2Si2NiO6,3.4086,-2.559690970227273,0.0922315611363693
mp-769673,Tb2Bi2O7,0.0,-2.559678733219697,0.0631627692045455
mp-762794,LiMn(PO3)3,4.3219,-2.5596431997496936,0.093695732499996
mp-505216,Gd2Ru2O7,0.0,-2.559624313522725,0.0174171150000592
mp-683952,SiO2,1.3132,-2.5596124390277777,0.7251004684722222
mp-779366,LiCr(PO3)4,2.606099999999999,-2.5595556115211653,0.0970707968518445
mp-32509,V(PO3)4,1.7651000000000001,-2.5595400598459386,0.0066947341176852
mp-676443,La5YbS8,0.0,-2.559472560892858,0.0170924392857108
mp-18778,Zr(WO4)2,3.6052,-2.5594358781818185,0.0742988586363644
mp-771732,Li3MnBPO7,1.1598,-2.5593773711132237,0.0825029821514311
mp-850148,Mn3(OF2)2,1.019599999999999,-2.5593478055711114,0.0357294202777787
mp-790064,V5Co(PO4)6,0.0,-2.5592830260714297,0.0702278338888788
mp-554432,ReSbOF10,1.981099999999999,-2.559197970242309,0.0
mp-777229,V4O7F5,1.4348,-2.55918210560625,0.0249864879861148
mp-779895,LiCr(PO3)3,2.611299999999999,-2.559138902002553,0.0731359468064134
mp-769612,Li6Mn3P6WO24,0.6901,-2.5590420422862863,0.0792419397187575
mp-566934,K2Th(MoO4)3,3.633099999999999,-2.5590236980555554,0.0106080123958332
mp-761406,Li2CrSiO4,2.448,-2.558853295468751,0.1030634120312532
mp-762769,Li3Mn(PO4)2,1.2506,-2.5588349037250344,0.0760424887499944
mp-772991,Er2Bi2O7,0.37300000000000005,-2.558806365795455,0.0965875662500002
mp-762807,LiFeSiO4,3.0048,-2.558687761666667,0.0633293919047544
mp-768670,K3MgPCO7,4.4383,-2.558596828795788,0.0039753139423028
mp-585424,LiCrPO4,2.6276,-2.5585310154421768,0.0258419291666696
mp-764102,Li3Fe2(SiO4)2,0.9314,-2.558516166,0.0659295451666555
mp-781078,Li3V2P4(HO8)2,0.9395000000000001,-2.558442449060036,0.019689704629652
mp-553977,K4NpS2ClO10,0.13789999999999902,-2.5584121515352773,0.0
mp-769732,Li3Cr(BO3)2,2.074099999999999,-2.5584003179861106,0.0753310808333305
mp-774020,LiVPO4,1.899299999999999,-2.55839991329932,0.092463782164498
mp-985637,Li2Si4O7,3.0397,-2.558324145096154,0.2979491805769259
mp-1020623,ZnSiO3,3.5902,-2.558198189750001,0.1478500948333341
mp-859138,LiMnPO4,3.024899999999999,-2.55817587057932,0.0919823564285708
mp-554603,K5NaCe2(SO4)6,0.077199999999999,-2.5581159197203944,0.0
mp-756317,Al2HgO4,1.346099999999999,-2.5580724278571423,0.0853370025000002
mp-777093,LiMnP2O7,1.349,-2.5579604753091343,0.0344078334090909
mp-780314,Li3V2P4(HO8)2,0.9941999999999991,-2.5579079199859622,0.0202242337036926
mp-705357,LiMnP2O7,1.2075,-2.5578948509909516,0.0344734577272731
mp-779902,Li3V2P4(HO8)2,0.8773999999999991,-2.557877886097073,0.0202542675925823
mp-39888,NdTi3Fe(CuO4)3,0.0216,-2.557861371125,0.0541108427500027
mp-765435,Li7CrFe3(PO4)6,1.1046,-2.5578457428919865,0.055613087439001
mp-23621,NaBi(PO3)4,4.6279,-2.55777115693783,0.0
mp-763719,LiMn2(PO3)5,4.0219,-2.557770272223748,0.0807239039130438
mp-15002,Sr2CaIrO6,0.0,-2.5577228377500005,0.0
mp-540180,Cr3(P2O7)2,0.013399999999999001,-2.5576450311848067,0.0368818721626595
mp-762486,LiFe(PO3)3,3.663799999999999,-2.557641506645408,0.0436334492857213
mp-765268,Mn2F7,0.541399999999999,-2.557541081138889,0.0149365744907425
mp-776589,Li9Sb3P8O29,3.827,-2.557504400939018,0.0555684002210989
mp-704540,LiMo2(PO4)3,1.581999999999999,-2.55749474968254,0.006375840972197
mp-769778,Ca2In2O5,1.3036,-2.557454894305553,0.0568513219444462
mp-760655,Li3Bi(PO4)2,3.5843,-2.5574108436564624,0.06493903571429
mp-5163,LaRhO3,0.5939999999999991,-2.5574055092500005,0.0
mp-18698,CsPr(CO3)2,4.5623000000000005,-2.5573705297500013,0.0
mp-779245,Mn3(OF2)2,0.258499999999999,-2.55726462446,0.0378126013888904
mp-762240,K2Li2TiO4,4.2118,-2.557248604351852,0.0050651982407492
mp-17113,Sm2Ru2O7,0.0,-2.557242281704545,0.0076867457954534
mp-556056,Pr10S14O,1.8415000000000001,-2.5572083944250004,0.0
mp-698576,Ti3Fe5O12,1.2325,-2.55718840275,0.0256684010384677
mp-762810,Li2Fe2Si2O7,3.0949,-2.5571874806730768,0.0916366715384571
mp-540033,LiMnP2O7,0.9387000000000001,-2.557147155990952,0.0352211527272734
mp-17056,LiZnPO4,4.1081,-2.5570830028231297,0.0041623335118972
mp-777491,Li3V2P4(HO8)2,0.9151,-2.5570584201094184,0.021073733580236
mp-743731,K2MnH2OF5,1.3384999999999991,-2.5570436054909087,0.0
mp-772580,Mn5Nb(PO4)6,0.0,-2.5569580309269835,0.0401783322916742
mp-28049,BaBrCl,4.9288,-2.55689491692,0.0486010641666689
mp-760410,BePO4,0.0,-2.5568524230158727,0.0608154730208285
mp-777423,Na6Ti2O7,3.630899999999999,-2.556782521805556,0.020123691666666
mp-14721,KSiSbO5,2.8079,-2.556763715156249,0.0
mp-761673,Li4Mn3Ni(PO4)4,2.7518000000000002,-2.556754060545034,0.0040032365179536
mp-26855,Li2Sn(PO3)4,3.9056,-2.5566974014411032,0.0415547953289401
mp-770016,LiVBO4,1.428,-2.556689081666668,0.0952816199999917
mp-774412,LiCr(PO3)3,3.3285,-2.5566449132525526,0.0756299355564129
mp-769189,Dy2Bi2O7,0.0,-2.5564926688257583,0.078633607727272
mp-777905,Fe7(OF7)2,1.039,-2.5564532056156533,0.0746454091304338
mp-778729,Mn3(OF2)2,0.0,-2.5564297389044435,0.0386474869444466
mp-773758,Mn3(OF2)2,0.0,-2.556410919460001,0.0386663063888894
mp-767530,BaNa3PCO7,3.6661,-2.5564101753342494,0.045827416538458
mp-704674,Ca3MnCoO6,0.0,-2.556370663496363,0.0542188860101005
mp-764224,Li2V2O5F2,2.4443,-2.556339471693637,0.0647097340909077
mp-765732,VP6(WO8)3,1.6373,-2.5562864540756305,0.0
mp-556413,Na4Cd2Si3O10,2.7504999999999993,-2.5562450803947367,0.0
mp-771276,LiMnB2O5,1.5574000000000001,-2.5561095439492583,0.0430644083681688
mp-765933,Li2V2O5F2,2.1426,-2.556097052602728,0.0649521531818173
mp-558694,CsFeF3,0.0,-2.556092517714,0.2987254687499989
mp-770381,Li3V3(BO5)2,0.6788999999999991,-2.556061496712963,0.0781491616666798
mp-762621,LiFe(PO3)3,3.7582,-2.5560210255739797,0.0452539303571502
mp-570061,Nd3NCl6,3.370599999999999,-2.555986351194,0.0087871830000016
mp-690452,LiMn4(PO4)3,2.8719,-2.555898886156285,0.0386773364999974
mp-778622,Li3Fe2(SiO4)2,1.9231999999999991,-2.5558967530000003,0.068548958166656
mp-31774,V2Fe3(SiO4)3,0.0,-2.555875476500001,0.0900977274374969
mp-767230,LiMn2(PO4)2,0.0,-2.5558638283161903,0.0055269167307701
mp-557753,K3PO4,4.0019,-2.5557267885119046,0.0
mp-769443,Li4Ti4Mn(Fe2O9)2,1.0258,-2.555667163552473,0.0816281122258058
mp-8388,K2CuF4,0.378,-2.5556231906799995,0.0
mp-2865,K2CuF4,0.339,-2.555614117108572,9.073571428430682e-06
mp-778864,Li2Mn3(PO4)3,0.013500000000000002,-2.5556051343582853,0.0368542293750016
mp-754110,SmAgO2,2.5214,-2.555437535,0.0
mp-781013,Li3V2P4(HO8)2,0.8002,-2.5554097007267016,0.0227224529629523
mp-850922,Li3Fe2(SiO4)2,1.854,-2.5553943186666666,0.0690513924999889
mp-24181,CsGaP3HO10,4.6041,-2.5553495078378567,0.0
mp-861458,LiMnPO4,2.7783,-2.555338671115033,0.0948195558928581
mp-779827,Ce(WO4)2,1.4584000000000001,-2.555289267954544,0.108950995681818
mp-6273,Ba4Na(SbO4)3,1.5158,-2.5552325387500003,0.0
mp-3759,MgGeO3,3.6483,-2.55520986375,0.0197621865000003
mp-31931,LiMn4(PO4)3,2.7244,-2.5551179469062864,0.0394582757499968
mp-753226,SmAgO2,2.4833,-2.555049351249999,0.0003881837500001
mp-25565,Rb2MnH2OF5,1.335999999999999,-2.5550286450363644,0.0
mp-762870,Li2CrSiO4,1.6349,-2.5550111543750003,0.1069055531250038
mp-703308,CsGaP3HO10,4.900499999999999,-2.5549216772128567,0.000427830625
mp-697758,LiFeP2O7,2.5246,-2.554849673176407,0.0327158427272724
mp-34418,AgPF6,3.235999999999999,-2.554799403154405,0.0
mp-677573,NaCa2Mg2(AsO4)3,2.9898000000000002,-2.5547093018750013,0.0
mp-763373,Li3P2WO8,3.9504,-2.5545087175850343,0.0538451972321381
mp-866387,LiY(MoO4)2,2.973,-2.554450998958332,0.0725738375115749
mp-767005,LiMn2O2F3,1.2784,-2.5543767291237485,0.0400559453125008
mp-762329,Li7Sb2P7O24,4.0418,-2.554345232541668,0.0740372273125187
mp-773561,Fe4OF7,0.8366,-2.554221119131667,0.0693252604166634
mp-767788,Li6CrFe3(PO4)6,2.3823,-2.5542084492142862,0.0443355738437327
mp-772305,Y2Bi2O7,0.0,-2.554085774886364,0.0626838009090864
mp-761559,LiFeSiO4,2.6029,-2.5540115560714294,0.0680055974999929
mp-763045,Fe4OF7,0.7312999999999991,-2.5539598153816683,0.0695865641666628
mp-6233,NaSr3RuO6,0.49650000000000005,-2.5539480893181814,0.0
mp-776714,Li3V2P4(HO8)2,0.7027999999999991,-2.5539132103563325,0.0242189433333557
mp-565671,SrV2ZnO7,2.7793,-2.5539089489772717,0.0017159063068188
mp-763046,Fe4OF7,0.8003,-2.5539025416316683,0.0696438379166624
mp-763468,LiV3P3O11,2.4286,-2.5538168019742056,0.0805879604020507
mp-18888,Sr2CdWO6,3.5122,-2.55361833825,0.0782320824999995
mp-541789,CsGd(CO3)2,2.7428999999999992,-2.553506470249998,0.0
mp-720245,CsKNaLi13(SiO4)4,3.9246,-2.5534911325,0.0848432051157423
mp-753309,Bi2OF4,3.9154,-2.553482800858571,0.0073629683928597
mp-558418,NaCrF6,0.0,-2.5534779140175,0.0334780640625043
mp-774088,Li2NbCr3O8,1.8766,-2.5534505635714284,0.0148574760714215
mp-752849,Y2Pb2O7,0.998699999999999,-2.5534436189772727,0.0
mp-764668,Fe4OF7,0.803199999999999,-2.553434672881668,0.0701117066666627
mp-861546,LiMnPO4,3.1633,-2.5534326379602725,0.0967255890476188
mp-762539,Li2FeSiO4,2.6487,-2.5533782803125,0.0731924187500006
mp-23846,KHF2,6.9611,-2.55337535025,0.0
mp-770649,Li5NbO5,2.9243,-2.553365862386363,0.0088186745454539
mp-19483,TmFeGe2O7,2.5789,-2.5533649971590906,0.0
mp-782650,LiMnP2O7,1.031899999999999,-2.553360451445498,0.0390078572727272
mp-762646,LiFeSiO4,2.163599999999999,-2.5531824798214293,0.0688346737499925
mp-764553,Mn3OF8,0.0,-2.5531238761375,0.0701116265162005
mp-690119,Ti3Fe5O12,1.4172,-2.5529615722500005,0.0298952315384379
mp-616694,CsCoF3,0.0,-2.552961279047333,0.0882118149523822
mp-776765,V3CrSn2(PO4)6,0.0,-2.55286853968254,0.0429823002083349
mp-614986,BaYb2NiO5,0.0,-2.5527895379166665,0.0358335511111116
mp-782694,Mn3(OF2)2,0.0019000000000000002,-2.5527317539044443,0.0423454719444391
mp-26129,LiBiP2O7,3.964399999999999,-2.552692523858225,0.0081962130303052
mp-779654,Na3Nb6O11,0.0,-2.5526636849375004,0.0987594299743594
mp-770563,Mn3(PO4)2,2.8617,-2.552346734351576,0.0123007167307633
mp-541743,Ba3YbRu2O9,0.1486,-2.5523359950833338,0.0
mp-769229,Ho2Bi2O7,0.0,-2.55230593125,0.0932867615909085
mp-557293,Li2CdSiO4,2.8338,-2.55224512,0.0
mp-771274,Li24Ti5Cr7O36,1.166,-2.5522202698379632,0.0146800920833491
mp-640915,Na2LaPS2O7,3.6339,-2.552177394036172,0.140977529567305
mp-766159,Li3Mn3(OF)4,0.7464000000000001,-2.5521689359028565,0.049420035312492
mp-766803,CrOF,2.149,-2.55206926498,0.1034171097222165
mp-771902,Li4Ti3Cr2Fe3O16,0.0,-2.5520488324999993,0.0577576397080434
mp-755375,Lu2Pb2O7,0.8772000000000001,-2.5520251503409086,0.0473756198863641
mp-764106,V4O7F5,0.0,-2.5520009181062497,0.0264273252083384