mpid,formula,BG,FE,e_hull
mp-540075,Li4MoP2O9,1.6212,-2.60339625234003,0.0490727223047144
mp-778410,Li3Fe3OF7,2.0228,-2.6031752117557145,0.1718994710714279
mp-761405,Li2Fe2Si2O7,3.1294,-2.6031484856730764,0.0456756665384574
mp-755915,Li4Nb3TeO12,0.0,-2.6031208342500003,0.0392389471562388
mp-763561,Li2P2WO8,3.0496,-2.603092105091576,0.0067847265384557
mp-30242,Mg4H2O5,4.006500000000001,-2.6029654012263643,0.0137087536363607
mp-764344,Li2FeSiO4,2.9306,-2.602880405,0.0236902940625007
mp-762413,Li3CrSiO5,2.9625999999999992,-2.602840673125,0.0950047394999957
mp-740714,LiB5H2O9,6.0817,-2.6028015512837253,0.0
mp-765434,Li2Si2NiO6,3.6551,-2.6027681220454544,0.0491544093181879
mp-770722,Mg3Mn5(BO4)4,0.8380999999999991,-2.6027440075523804,0.0
mp-777954,Li3Mn4F19,1.3967,-2.602637650825,0.0483778192067267
mp-676483,NaLiZnP2O7,4.2378,-2.6026354291617073,0.0
mp-770198,Li5Mn2(PO4)3,3.6014,-2.602571563236624,0.0903160084090988
mp-22355,Sr2InSbO6,1.750899999999999,-2.6023750497500004,0.0
mp-776110,SiSnO3,2.526599999999999,-2.6023409857499997,0.0261605889999989
mp-770545,LiAlCrO4,0.6509,-2.6023047125,0.0767627848253935
mp-764045,Li3Mn(PO4)2,0.906799999999999,-2.6022768824750337,0.0326005100000044
mp-755864,TiCu(PO4)2,0.20590000000000003,-2.602201113571428,0.0406486672917019
mp-3163,BaSnO3,0.372399999999999,-2.60202901975,0.0
mp-19401,CrPO4,2.4649,-2.601871223015873,0.0
mp-31763,Ca2FeReO6,0.0,-2.6018325532500013,0.0
mp-651847,GdGaGe2O7,2.8223000000000003,-2.601791130340909,0.0
mp-554157,KNaZnP2O7,4.2038,-2.60168562437004,0.0
mp-769538,Li3Mn2(SiO4)2,0.0,-2.601679305794667,0.0932528762499833
mp-18721,Mn2P2O7,3.265,-2.6016711960782253,0.0
mp-769629,Mn2V3P6WO24,0.0,-2.601631056124761,0.0267126884028314
mp-553932,GaPO4,4.4398,-2.6016028321825395,0.0066255499999989
mp-779848,V5P6WO24,0.0,-2.6015387430158725,0.0501530568981465
mp-771178,Li3MnB4O9,0.744799999999999,-2.601523496110392,0.0689625882536537
mp-764348,LiFeSiO4,2.9041,-2.6015217303571427,0.0204954232142791
mp-779831,Li3V(BO3)2,2.7524,-2.6015047063194445,0.061926215833334
mp-9702,Sr3BPO3,2.0155,-2.6014968735639887,0.0
mp-770359,TaAsO4,2.6704,-2.6014569816666664,0.0393629912499982
mp-697078,Cs2SiP4(HO7)2,5.1811,-2.6014280083530856,0.0
mp-776484,Li6Sn3P8O29,3.1607,-2.60136514219591,0.0251084900724594
mp-763397,LiV(PO3)3,2.3404,-2.601324663966837,0.0749824678129185
mp-763586,LiV2(PO3)5,2.7701000000000002,-2.6012170301837467,0.0586229508787949
mp-505707,Tb2Mo4O15,3.3306,-2.601210852162698,0.0
mp-771161,Ba3(BrO)2,2.3516,-2.601204867142857,0.0405335439285687
mp-790062,V5Sn(PO4)6,0.040299999999999,-2.6011903992658723,0.0587729156597216
mp-761362,LiVPO5,1.4729,-2.6011334074181542,0.0786349987500116
mp-556641,Na2LiAlP2H2O9,5.1375,-2.6010411517459113,0.0032970761274526
mp-673092,Li4Sn(PO3)6,4.4967,-2.6010339919334973,0.0390753226867817
mp-772490,Li4Ti3Mn3(WO8)2,0.5023999999999991,-2.600978995102857,0.0561966342261914
mp-643387,AlH2PbO2F3,4.494199999999999,-2.6008662509233327,0.0
mp-770261,Mn2P2O7,3.294199999999999,-2.600616329714589,0.0010548663636367
mp-770182,MnV(PO4)2,0.102899999999999,-2.600551032818095,0.003274589444441
mp-572271,Cs3P7Pb2O21,4.9376,-2.6005291643308084,0.0
mp-861244,Li5Fe(P2O7)2,2.0377,-2.600408354161706,0.0798326606249961
mp-772750,Li3MgPCO7,5.4592,-2.600333855718865,0.0499456546153878
mp-704488,Th(MoO4)2,2.7906,-2.6002326038383843,0.1245652985479886
mp-767229,Li2VSiO4,1.5185,-2.6001981731249995,0.1011148666826926
mp-772393,NbFe(PO4)2,0.0903,-2.5999196688492057,0.1022691740178558
mp-764639,Li2MnFe(PO4)2,3.4593,-2.5999156494393185,0.0009519389285586
mp-773352,Li2MnFe(PO4)2,3.7761,-2.5998758947964618,0.0009916935714153
mp-780087,LiMnSiO4,1.1322,-2.5998151990657137,0.0778908492929799
mp-567264,SbMoOF9,3.679799999999999,-2.5998026037049993,0.0
mp-761458,Li4Nb3V3Cr2O16,0.203099999999999,-2.5997928453571424,0.0573428219419778
mp-613910,BaNiF6,0.4727,-2.5997887408925004,0.0
mp-767431,Na3SrPCO7,4.052899999999999,-2.599709521872711,0.0096946201923131
mp-707105,Li3B5(HO5)2,5.8854,-2.5997048512786662,0.0
mp-778307,Li2MnFe(PO4)2,3.640599999999999,-2.599694968010748,0.0011726203571296
mp-649915,CsPr(MoO4)2,3.6948,-2.5996653983333324,0.0
mp-764670,Li2MnFe(PO4)2,3.7336,-2.599581746225033,0.0012858421428338
mp-780878,LiMn(PO3)3,4.0608,-2.5993754199282653,0.0539635123214248
mp-765262,Li3Cr(BO3)2,3.078,-2.599310066111112,0.0344213327083293
mp-764125,Li4Mn2(PO4)3,0.859599999999999,-2.59929578981932,0.0406752141666695
mp-704109,SrFe3P3O13,2.0126,-2.599228743026785,0.0
mp-761607,Li2Si6Ni3O16,3.410999999999999,-2.5991967429629628,0.0838040081481521
mp-770135,Li2MnV(PO4)3,1.1412,-2.5991910444866164,0.0299773052631024
mp-4959,Ca(GaO2)2,2.9772,-2.5990765875,0.0494833057738111
mp-778558,Li3MnV(PO4)3,0.1579,-2.5989944268872853,0.0861737346874651
mp-761564,Li2MnP2O7,2.3245,-2.598922997575039,0.0898450009375002
mp-551135,BaCuB2O5,0.49439999999999906,-2.59890993550926,0.032282565925918
mp-849392,Li9V2P4HO18,0.4047,-2.5988440377500286,0.0875270773652072
mp-559256,La4S3NCl3,2.9165,-2.5987527585770462,0.0
mp-780595,Na3VBPO7,2.0249,-2.5986466345009145,0.0175810512706009
mp-763641,LiFeSiO4,2.9586,-2.598624266607143,0.023392886964288
mp-766977,Li3Mn(OF)2,1.202999999999999,-2.598513590105,0.0711164393750003
mp-29155,TlB3O5,4.2226,-2.598405275416665,0.0
mp-762799,LiFeSiO4,2.9793000000000003,-2.5983947778571426,0.0236223757142788
mp-779826,Li3MnV(PO4)3,0.0,-2.5982771993872853,0.0868909621874651
mp-762180,LiV2(PO4)3,1.2198,-2.5981114996825405,0.0714418773611109
mp-780884,LiMnPO4,3.3834,-2.598077839150748,0.0520803878571429
mp-780866,LiFe2Si2O7,2.0098,-2.5980648463541662,0.050844197916664
mp-765890,LiMnPO4,3.612199999999999,-2.5979899127221766,0.0521683142857138
mp-41634,K2SnH2OF6,3.844699999999999,-2.5979753106774988,0.0232573883101858
mp-753689,Ba2Nb8O11,0.0,-2.597952509226188,0.0482280204761913
mp-649729,NbO2,0.18579999999999902,-2.597869250208332,0.3149392806250209
mp-561864,BaCr2O4,2.5408,-2.597856246071429,0.0
mp-754751,Li3Nb3TeO12,2.0593,-2.5977318102631566,0.0181171502631203
mp-757727,BaB2H2O5,4.7844,-2.597721595849,0.0
mp-4122,GaPO4,4.439100000000001,-2.59767230218254,0.0105560799999988
mp-17164,NaNbGeO5,3.0775,-2.5975969329687487,0.0
mp-861552,Li3Mn(PO4)2,1.1943,-2.597522678129796,0.0373547143452412
mp-762294,Mn2V3Fe(PO4)6,0.0,-2.5974967697358724,0.0
mp-565267,Na2SrV3O9,2.2136,-2.5974589805833332,0.0
mp-510475,Y2Cu2O5,0.09100000000000001,-2.597458034583333,0.0421655955555593
mp-565952,Ba3Fe2Cl2O5,2.4379,-2.597420683980834,0.0
mp-779086,LiCr(PO3)4,2.8150999999999993,-2.5973804579100537,0.0592459504629561
mp-770345,Li3V(BO3)2,2.0244,-2.5973697556944444,0.0660611664583337
mp-757862,K4Nb15O24,0.0,-2.5972550855813954,0.0131573394864332
mp-24981,RbFeP2O7,2.4814,-2.597236637949133,0.0
mp-763635,LiFeSiO4,2.963,-2.5971114496428576,0.0249057039285638
mp-540112,LiFe(PO3)3,4.001799999999999,-2.597014449145409,0.0042605067857204
mp-771008,Ba3(BrO)2,2.472,-2.597004694464286,0.0447337166071388
mp-861466,LiMnPO4,3.242399999999999,-2.5969840173650343,0.0531742096428571
mp-762298,Li2CrSiO4,1.9817999999999991,-2.5969609490625007,0.0649557584375033
mp-1031039,KHfMg6O7,0.0,-2.5969569435833337,0.2591500035833336
mp-558624,Ba3LaRu2O9,0.0,-2.5969466114166675,0.0
mp-767253,LiFeSiO4,2.873999999999999,-2.5969161492857142,0.0251010042857071
mp-687090,Hf(MoO4)2,3.2774,-2.5968918895454536,0.0
mp-861873,TaTlO3,0.6811,-2.59669640775,0.1071076127500028
mp-559337,Nd7(S2Cl3)3,2.2068,-2.596688722555227,0.0163818533409099
mp-764853,Cr(PO3)3,3.0964,-2.5966177367719783,0.0357735061538466
mp-585209,Li2Mo(PO4)2,1.9317,-2.5963786466300367,0.0301975852884375
mp-540296,Li2Mo(PO4)2,1.7581,-2.5963226135531143,0.0302536183653598
mp-6721,Sr3LiRuO6,0.399,-2.596277102954545,0.0
mp-768041,Li4MnCr3(PO4)4,1.909799999999999,-2.5962316708336064,0.0045875943750059
mp-29775,Sr4PdO6,1.6164,-2.5959553284090906,0.0
mp-560626,Ba2Ni7F18,4.8408,-2.595835373756296,0.0
mp-766023,Li2Cu2Si4O11,0.4212,-2.5958086246710517,0.0778363405263107
mp-756755,Li3Nb3TeO12,2.1154,-2.5957528786842103,0.020096081842067
mp-767451,Li4V2SiO8,1.8587999999999991,-2.595624205166667,0.0759362838749897
mp-768014,Mn2OF3,0.0,-2.5956159869566666,0.0975247685416711
mp-690560,TiTlWO5F,2.8041,-2.5956078449007407,0.0
mp-779220,Li2Cr3P9O28,2.9882999999999993,-2.595577643520408,0.0608554256150863
mp-768001,Li6Fe(SiO4)2,3.7361,-2.5955485882352947,0.0633264336764671
mp-775156,LiMnSiO4,1.267199999999999,-2.595484759244284,0.0822212891144102
mp-13694,PrCuO2,2.3548,-2.595478305624999,0.0
mp-780012,LiMnPO4,3.4347,-2.595427219150749,0.0547310078571419
mp-644325,CsFeSiO4,3.0859,-2.595211510357144,0.0
mp-554145,Na3SrPCO7,4.0616,-2.595052640334249,0.0143515017307747
mp-762641,LiFe(PO3)3,4.0098,-2.595041109681123,0.006233846250006
mp-705305,V(PO3)3,1.9532999999999991,-2.595037966195056,0.0683243476923056
mp-761337,SrCrO3,0.690099999999999,-2.594863529416666,0.057477218458338
mp-565901,RbPr(MoO4)2,3.8472,-2.5948046408333325,0.0
mp-7811,SrSO4,3.9294000000000002,-2.5946869798437504,0.2169491624999997
mp-768024,V2P2O7,2.7873,-2.594672009540042,0.0260348187500021
mp-779533,Ba3(BrO)2,2.2906,-2.594609655714286,0.0471287553571393
mp-9804,KHo(CO3)2,4.2582,-2.594385915250001,0.0
mp-1033715,CsHfMg6O7,0.0,-2.5943664275833336,0.2617405195833324
mp-697811,Li2FeP2O7,3.7642,-2.594215776245038,0.0322634644444495
mp-763908,V3O5F,0.30359999999999904,-2.59413112304889,0.0148998605555483
mp-767820,Li4V8O13F3,0.938099999999999,-2.594097883743572,0.0733017318452002
mp-9807,KDy(CO3)2,4.3497,-2.594045550416668,0.0
mp-673807,Na3Sm7Cl24,4.31,-2.593965000315882,0.0
mp-771179,Li4Nb5Cr3O16,0.0429,-2.593951983214286,0.0948616043005952
mp-776685,Li3Fe4(OF3)3,2.022199999999999,-2.5938951015505265,0.0921542804385948
mp-585476,Cs7Np3(Cl2O)6,0.0,-2.5938460613525005,0.0
mp-761457,Li4Fe(PO3)6,4.220700000000001,-2.5937582303817748,0.0687389062069057
mp-27473,Sb2TeF14,3.965099999999999,-2.593698727744705,0.0
mp-764245,Mg7Mn5O12,1.378699999999999,-2.593630330824999,0.0279438491666663
mp-768884,Li4B2O5,4.971,-2.593580384962121,0.0425731112878784
mp-767419,NaPH2OF6,6.1895,-2.59351793965684,0.0219087683585863
mp-772427,Li3Fe(PO4)2,2.5233,-2.593372248656464,0.0346491031249875
mp-773430,NbV2O7,0.0,-2.593327320124999,0.0629197855000054
mp-703283,Sr2La2Mg(RuO4)3,0.0,-2.59332662475,0.0128321064583278
mp-771541,Gd2W4O15,3.4916,-2.5933141032738085,0.0532627374999972
mp-772212,LiNb5O8,0.0908,-2.593121895892857,0.0813338164880921
mp-24199,LiHF2,8.0448,-2.5931146127500004,0.0
mp-561307,DySCl,2.7617000000000003,-2.5930224363297234,0.0
mp-18838,K2MnSO4F3,1.5128,-2.5929099669175004,0.0
mp-569271,Cr3(P2O7)2,1.3983,-2.592856048327664,0.0016708550198245
mp-771908,LiFePO4F,2.4041,-2.592704166629405,0.0354026620312506
mp-6507,Na2Zn2Si2O7,3.323,-2.592702980288462,0.0
mp-560032,NaNb2AsO8,2.6985,-2.592499842708334,0.0
mp-698594,Sm2Mo2O7,0.261,-2.5924991239772712,0.3640540927272351
mp-540484,LiMnP2O7,1.314699999999999,-2.592368308718225,0.0
mp-545643,BaCO3,3.9622,-2.592341776250001,0.1044940019999956
mp-781596,LiFeOF2,1.724799999999999,-2.5923043757260005,0.0703361832222269
mp-5692,TbRhO3,0.8724000000000001,-2.592281278916667,0.0
mp-775437,V3P6WO24,1.1647,-2.592270117605043,0.0
mp-761560,LiMnPO4,3.492099999999999,-2.592257813793605,0.0579004132142859
mp-24843,Ba2CoWO6,0.0,-2.59223902475,0.0
mp-763545,LiVPO5,1.668,-2.592228431168155,0.0875399750000109
mp-540396,Li3Fe(PO4)2,2.2211,-2.592191966870748,0.035829384910702
mp-30927,CsAs4F13,5.266199999999999,-2.592185241137221,0.0
mp-766055,Li7TiFe3(PO4)6,1.0648,-2.5920871847619056,0.1163536452439242
mp-861558,LiMnPO4,3.3772,-2.5920480741507483,0.058110152857143
mp-763986,V3O5F,0.480199999999999,-2.591906085826668,0.0171248977777924
mp-763400,LiV2(PO4)3,0.6586000000000001,-2.591893619821429,0.0776597572222224
mp-763350,V3O5F,0.5902000000000001,-2.5918469958266663,0.0171839877777717
mp-763706,LiMn(PO3)3,3.961899999999999,-2.59177330046398,0.0615656317857107
mp-998155,RbSrCl3,4.6184,-2.591708713956,0.0405450969999994
mp-6146,LiNbZnO4,2.7777,-2.5916998410714283,0.0032400503571432
mp-556548,Bi(BO2)3,3.9576000000000002,-2.59168424475,0.0
mp-1016884,CaGeO3,0.5053999999999991,-2.5916632837499995,0.1709084276666708
mp-769557,LiMnNbO4,0.588699999999999,-2.5916274008514284,0.0826634117856848
mp-24882,NdCoO3,0.0,-2.591464630750001,0.0
mp-765826,LiMnPO4,3.2011,-2.5914594141507488,0.0586988128571421
mp-1033679,RbHfMg6O7,0.0,-2.591381701583333,0.2647252455833335
mp-765393,Li10Cr3P6(O4F)6,0.0,-2.5912757523614576,0.0819269909572399
mp-25755,CsFeP2O7,2.3933,-2.591252079767316,0.0
mp-767687,Li4Si2NiO7,3.4341999999999993,-2.5912014574107136,0.0247475996428585
mp-626864,U(HO2)2,1.672299999999999,-2.5911951796057133,0.0783736096428588
mp-559933,Ba3In2Cl2O5,1.4312,-2.5911079568975004,0.0052732203125014
mp-557470,K2Sb2S(O2F3)2,4.3549,-2.5911034034135008,0.0
mp-762644,LiFeSiO4,3.0816,-2.591102040238096,0.030915113333326
mp-863004,K2USO7F2,0.4244,-2.591012086937883,0.1432656580021367
mp-761528,LiMnPO4,3.061,-2.5909591845078923,0.0591990424999995
mp-559715,Li2Cd(PO3)4,4.5942,-2.590956198283207,0.0055175239692992
mp-766735,LiMnPO4,3.3549,-2.590937685579319,0.059220541428572
mp-7475,La2S3,1.034199999999999,-2.5909078874375004,0.0
mp-850969,LiMnSiO4,1.5692,-2.590903030851428,0.0868030175072656
mp-759424,Li7Bi2P7O24,4.4624000000000015,-2.5908025074166665,0.0542051196875021
mp-6968,Cs2KCuF6,0.847499999999999,-2.590780929714,0.0
mp-20643,Y2Ru2O7,0.0,-2.5907587980681823,0.0238103968181775
mp-540456,LiCr(PO3)3,2.9745,-2.590683653966836,0.0415911948421294
mp-770070,Li3TiCr3O8,2.3315,-2.590232955777778,0.0385467019999961
mp-998197,RbCaCl3,4.9587,-2.590194203956,0.0104764839999993
mp-23349,Bi(BO2)3,3.8401,-2.590146060250001,0.0015381844999922
mp-762645,LiFeSiO4,2.839,-2.5900520885714293,0.0319650649999925
mp-510452,CeHSO5,0.019700000000000002,-2.590034581429061,0.0171076693919847
mp-763912,V3O5F,0.41809999999999903,-2.58990816304889,0.0191228205555482
mp-771465,Li4Ti5Ni3O16,0.3708,-2.589905075476191,0.0339247772619026
mp-861713,Mn5(OF3)2,0.9224999999999991,-2.5898171934184613,0.0938583453846151
mp-772449,LiNbCrO4,1.0406,-2.589682947857142,0.0607048828571361
mp-555095,Ba5Re3NO18,2.3,-2.5895683392548148,0.0
mp-566470,Rb6U2Mo4O21,2.1909,-2.5895211586742417,0.008434927828282
mp-705355,Li2Mn(PO3)5,1.5914000000000001,-2.5895030882689647,0.0312862740579706
mp-628951,V2P2O9,1.6511,-2.5894530998031144,0.0161954984615206
mp-29178,TePbF6,4.6008000000000004,-2.5894280940175,0.0
mp-780872,LiMnSiO4,0.9821000000000001,-2.58938617853,0.0883198698286937
mp-31256,U(SbO3)2,1.2887,-2.5892795641666666,0.0048664286111144
mp-777955,Li2Cr(PO3)4,3.490999999999999,-2.589265314072682,0.0659997951906836
mp-768063,V2P2O7,2.6343,-2.589107189540043,0.0315996387500021
mp-762872,Li3Ti2Mn3O10,0.9013,-2.589037416039629,0.0470300385474349
mp-561166,Na2ZrGe2O7,3.6856,-2.588974370729167,0.0
mp-21703,Na3TiP3NO9,0.0,-2.5889672952695517,0.0137253292570598
mp-770196,Li3Co(BO2)5,3.038,-2.5889334537280693,0.0602094155592052
mp-636225,KLiNd2(MoO4)4,3.423699999999999,-2.588915002291666,0.0
mp-756467,TiCu(PO4)2,0.0,-2.588895846904762,0.0539539339583683
mp-861545,LiMnPO4,2.8385000000000002,-2.588811478793605,0.0613467482142864
mp-540304,LiMo(PO3)4,4.3232,-2.5887152340211657,0.0297501695833313
mp-762724,LiMn(PO3)3,4.2941,-2.588626214392551,0.0647127178571391
mp-851012,LiMn(PO3)3,4.1326,-2.5885456818925507,0.0647932503571322
mp-779990,LiFe3(OF3)2,1.9676,-2.588410730386666,0.0158046450925946
mp-777421,Li4Ti3V2Sn3O16,0.0,-2.588393131964285,0.0979660074107062
mp-1820,YbS,2.2234,-2.58834822703125,0.0
mp-505078,BaNb7O9,0.0,-2.5882741100735283,0.0
mp-7456,SnF2,3.262899999999999,-2.588273784126667,0.0002344741666675
mp-23634,KSbClF3,4.4254,-2.5882485017633337,0.0
mp-762774,LiMnPO4F,0.967499999999999,-2.5882287197181544,0.0536404928125033
mp-762403,Li2Cr2SiO6,2.847,-2.5882028047727275,0.0597290654545377
mp-762643,LiFeSiO4,1.6568999999999992,-2.588189897142857,0.0338272564285642
mp-773206,Li3CrSiBO7,1.031999999999999,-2.5881397111858964,0.0853614655982779
mp-764047,LiVPO5,2.2049,-2.587812220543155,0.091956185625011
mp-4103,Sr2Sb2O7,1.3571,-2.587726865340909,0.0
mp-540026,Li2FeP2O7,4.1734,-2.5877099239533727,0.0387693167361158
mp-762817,LiMn2(PO3)5,4.1771,-2.587604993528096,0.0508891826086959
mp-19294,LiFeP2O7,2.5994,-2.587565515903679,0.0
mp-25400,Li2TiPCO7,0.23119999999999902,-2.587393473834325,0.1314169071875
mp-763544,LiVPO5,2.6757,-2.587374598980655,0.092393807187511
mp-781082,SrCrO3,0.5876,-2.5873718901785714,0.0649688576964324
mp-861465,LiMnPO4,3.1353,-2.5873477648650343,0.0628104621428562
mp-769922,V2SiO4,0.5883,-2.587233457142856,0.0379407935714297
mp-769951,Ba2MnO4,0.0,-2.5871216637085723,0.0192227297618927
mp-766664,LiFeSiO4,1.6747,-2.587092732023809,0.0349244215476129
mp-763338,V3O5F,0.0,-2.5870915708266677,0.0219394127777707
mp-30251,YAuO2,2.686199999999999,-2.587025735000001,0.003036555625
mp-770845,Li2Al2FeO6,0.0,-2.5869971934090907,0.0933556192613629
mp-646192,NaCrF6,1.374,-2.58695597808,0.0
mp-857361,LiMnPO4,3.291099999999999,-2.586923101650749,0.0632351253571421
mp-6018,Ba3NdRu2O9,0.0,-2.5868901572500005,0.0
mp-540309,Li3Mo2(PO4)3,2.727,-2.586849834964286,0.0307908982500002
mp-758031,Li4Sn(PO3)6,4.2261,-2.586761076761084,0.0533482378591951
mp-545488,SiO2,0.30210000000000004,-2.586748405,0.6979645025000005
mp-2843,SnF2,3.275,-2.58663965246,0.0018686058333337
mp-541038,U(MoO4)2,0.0,-2.586636855227273,0.0564790624999993
mp-566887,Fe3B7ClO13,2.8149,-2.5865902104656957,0.0
mp-585305,Li9Bi3P8O29,4.1806,-2.5865197384900385,0.0469104103231297
mp-705356,Li2Fe(PO3)5,2.4488,-2.586502686488095,0.0357933571014532
mp-761334,LiVPO4,2.5282,-2.5864843663945583,0.0643793290692604
mp-19023,YbCrO4,2.3211,-2.586347075000001,0.0
mp-27608,Be4TeO7,1.280699999999999,-2.586263980729168,0.0
mp-762022,Li4Mn3Co(PO4)4,1.9345,-2.5862128144736056,0.0099938071875005
mp-861688,LiMnPO4,3.130899999999999,-2.586187672186462,0.0639705548214291
mp-767624,Li9V5(SiO8)2,1.6405,-2.5860681949999997,0.0556854431250037
mp-754840,TaAsO4,2.6966,-2.585996628333333,0.0548233445833297
mp-18837,KSc(MoO4)2,3.6132,-2.585909169166667,0.0
mp-617172,Li2VPO6,3.1365,-2.585843946059524,0.0142389976666486
mp-779171,LiCr(PO3)3,2.8768000000000002,-2.5858201925382667,0.0464546562706997
mp-15560,Ga(PO3)3,4.8881,-2.5858090832463367,0.0
mp-2882,Y2Cu2O5,0.3311,-2.5857803270833326,0.0538433030555598
mp-757690,LiNb(PO3)4,0.18080000000000002,-2.5857087131878305,0.0973138638002568
mp-554696,La2Mo4O15,3.237699999999999,-2.5856681545833333,0.0075900449404766
mp-767996,Li3Fe2(SiO4)2,1.6259000000000001,-2.585622599333333,0.0388231118333228
mp-763513,LiV(PO3)3,2.6902,-2.5855900412882664,0.0907170904914895
mp-31238,Ba3(SbO3)2,2.9311000000000003,-2.5855446846212127,0.0
mp-859134,LiMnPO4,3.182099999999999,-2.585510079507891,0.0646481474999998
mp-761409,LiFeSiO4,3.1533,-2.585509943928572,0.03650720964285
mp-17433,NaSr4(SbO4)3,2.0937,-2.5854413345,0.0221833351071438
mp-767186,LiMn3(OF3)2,1.2142,-2.5852304177100005,0.0893728177083321
mp-630867,RbLiNd2(MoO4)4,3.411299999999999,-2.5851572014583333,0.0
mp-19176,La2NiRuO6,0.0,-2.585036165750001,0.0040746695714251
mp-6459,CaMg(CO3)2,5.0091,-2.584999672250001,0.0
mp-770155,Li3V3(BO5)2,1.2932000000000001,-2.5848405242129613,0.0493701341666819
mp-767329,Li3TiCr3O8,1.903599999999999,-2.5848384864444447,0.0439411713333299
mp-764148,V3O5F,0.7855000000000001,-2.584628293048889,0.0244026905555489
mp-762492,Li2Fe(PO3)4,4.0099,-2.584586492493735,0.0478365904386066
mp-780750,LiMnSiO4,0.0,-2.5845759015657137,0.0931301467929799
mp-690564,La2Mn3PbO9,0.0,-2.5845136056086657,0.0276814780000034
mp-763740,LiFeSiO4,2.976899999999999,-2.584431315,0.0375858385714211
mp-770577,LiAlFeO3,2.243999999999999,-2.5844124822916665,0.0360867320833318
mp-763942,Li4Co3OF8,1.9489,-2.584374495048126,0.0684653365624994
mp-779965,V2O3F,0.0,-2.58437354749,0.0870358108333384
mp-769588,Li3V2S2(O4F3)2,1.0314,-2.5842566538221416,0.072384692559539
mp-861550,LiMnPO4,3.0953,-2.584226874388845,0.0659313526190477
mp-722269,AlP3(HO5)2,5.7405,-2.584154927282857,0.0075717260937473