mpid,formula,BG,FE,e_hull
mp-763242,V6O5F19,1.8984,-2.7567621751286664,0.0222998034166534
mp-763797,Li2Mn2OF4,1.6239000000000001,-2.756751013103334,0.0972950733333339
mp-565665,Ba2V2ZnO8,3.4336,-2.7567215496153845,0.0025267850000005
mp-530027,Si6O13,2.0845,-2.7565966625657894,0.3552366182236799
mp-560310,SbPOF8,4.6913,-2.7564033153513847,0.0
mp-754823,ErTlO2,1.371499999999999,-2.756376815625,0.0983647879687499
mp-24916,GdCrO4,0.6165,-2.756356900833332,0.0
mp-18776,CaCoP2O7,2.7472,-2.7562355799945877,0.0036057065909052
mp-25170,KVP2O7,2.0684,-2.756147122040044,0.0
mp-27767,Li6Si2O7,4.7951999999999995,-2.756129378916667,0.0150496200000018
mp-765764,V4O5F7,0.557199999999999,-2.75601902247375,0.0189675543750178
mp-29265,Nd2(SO4)3,5.437200000000001,-2.755979214246324,0.0
mp-773864,TiSnO4,2.254,-2.7559734994444436,0.0658693954166658
mp-6872,K3SiN(OF2)3,3.3592,-2.7559051598764284,0.0035837308928572
mp-763918,V6O5F19,2.0415,-2.755888548128667,0.0231734304166533
mp-1020705,Rb2Li3B(P2O7)2,5.5484,-2.7558351977728184,0.0
mp-19187,Na2ZrCo(P2O7)2,3.0646,-2.7558249540854978,0.0267514433207134
mp-989526,Cs2KTlF6,3.8205,-2.7557168262139995,0.0
mp-778615,V6O7F5,0.44200000000000006,-2.755527075538889,0.0322819655555708
mp-6183,Ba2PrRuO6,0.167,-2.755401168250001,0.0
mp-558608,Nb2PbO6,2.536499999999999,-2.7553984012037054,0.0
mp-560754,SiO2,1.36,-2.755315104583333,0.5293978029166633
mp-861609,Li2Mn4Si4O13,2.346399999999999,-2.755306142612609,0.0188599146195649
mp-557355,Rb2SiP4O13,5.166600000000001,-2.755200366181549,0.0
mp-772429,Li2V(BO2)5,2.8421,-2.755131826018519,0.0392469433333264
mp-763927,V6O7F5,0.8938,-2.755058513872223,0.0327505272222357
mp-774414,Ti3Mn(PO4)6,0.0,-2.755048457633277,0.0347737630514721
mp-853218,V6O5F19,1.9655,-2.755025045795334,0.0240369327499934
mp-676991,NaAlSi2H2O7,4.7533,-2.7549132439223083,0.0336807395673064
mp-777248,LiFeF3,3.0058,-2.7548758672140004,0.1601765264999963
mp-616490,KYb(PO3)4,0.042199999999999,-2.754853587632276,0.0
mp-769777,NbVO4,1.347,-2.7548399241666663,0.0805223567707678
mp-767973,Li2Fe(SiO3)2,3.2217000000000002,-2.754755077045455,0.0513089515909008
mp-777259,Ti3Cr2Sb(PO4)6,0.0,-2.7546707250992073,0.0627873461111061
mp-1020646,NaLi2B(PO4)2,5.8332999999999995,-2.7546471209183667,0.0
mp-762315,Li2Cr(SiO3)2,1.5998,-2.7545188884090908,0.0812422904545515
mp-19085,Ba2MnWO6,2.218,-2.7544330708459994,0.0
mp-568602,YCrO4,0.6873,-2.754425983750002,0.0225274483333635
mp-779095,Mn3OF5,0.0,-2.75435723112,0.0368470540277909
mp-763837,Na2SrLiVP2O9,1.761499999999999,-2.7543475834337805,0.0751244453472166
mp-11904,LiSm2IrO6,0.0,-2.7543381967500005,0.0
mp-1019724,LiEuO2,0.0,-2.754217736874999,0.0
mp-19126,NdCrO4,0.24710000000000001,-2.7541982787499983,0.0
mp-765437,NbCrO4,1.9782000000000002,-2.7541243158333324,0.0058093358333817
mp-773711,Ti2Sb(PO4)3,0.0,-2.7539325007010595,0.109977783425915
mp-754505,SrTaNO2,0.8129000000000001,-2.7538942969759987,0.0127365154999807
mp-10461,NaSr3SbO6,2.9189,-2.753814174772728,0.0
mp-777327,V6O7F5,0.5392,-2.7537058666500003,0.0341031744444588
mp-849412,V6O5F19,2.045099999999999,-2.7537009874620004,0.0253609910833203
mp-782658,V6O5F19,2.0247,-2.7536950877953337,0.0253668907499866
mp-556761,Ba5As3ClO12,3.995999999999999,-2.7536268449171435,0.0
mp-770607,Li3VSi4(HO6)2,2.3287,-2.753592360783636,0.0335602542613742
mp-756686,AlGaO3,2.6071,-2.7535648392499987,0.1079233385
mp-763308,V6O5F19,2.1006,-2.7532311124620006,0.0258308660833197
mp-552802,ErU2S3O2,0.0,-2.7531901649609365,0.0374401993750161
mp-566013,K2Mn2P2O7F2,3.358,-2.7531623251160307,0.0
mp-765036,Li2MnOF3,0.5323,-2.7530677693971426,0.0926995580357212
mp-25152,RbVP2O7,1.9475,-2.7529614643127696,0.0
mp-768152,NaZrPCO7,4.0075,-2.7528838735768395,0.0386230822727284
mp-761375,Li2Ti3Ni(PO4)6,0.013399999999999001,-2.7528547988492065,0.0414135341550805
mp-765672,V6O5F19,1.932599999999999,-2.752704147795334,0.0263578307499869
mp-995216,RbSrSiHO4,4.0584,-2.7526970742025,0.0185365294791646
mp-781614,V6O7F5,0.599399999999999,-2.752577976094444,0.0352310650000156
mp-772563,Li2VO2F3,2.5101,-2.752506593883749,0.0892998368750062
mp-763902,Mn3OF5,0.0,-2.7523874288977783,0.0388168562500119
mp-558851,Cs2KCoF6,0.0,-2.7522910537140013,0.0
mp-555318,K2Zn(SiO3)2,3.9191000000000003,-2.7520564265909093,0.0
mp-850981,V6O5F19,1.9572,-2.752040595462,0.027021383083321
mp-765700,V6O5F19,1.9829,-2.7519357554620005,0.0271262230833198
mp-553884,Ba5Si(Br3O2)2,4.262799999999999,-2.7516644503125005,0.0
mp-767538,NaCePCO7,1.2258,-2.7516554622132032,0.0290422343182017
mp-735589,CaV2P3HO12,1.5189,-2.751537855021354,0.003624080855265
mp-23883,Be2BHO4,5.8665,-2.751519001598333,0.0
mp-764852,V6O5F19,1.942,-2.751515357128667,0.0275466214166533
mp-779212,V6O5F19,2.0808,-2.7513788071286673,0.0276831714166538
mp-22887,EuCl2,1.214399999999999,-2.751352337173333,0.0
mp-555237,PrSClO4,4.7016,-2.751227822831785,0.0
mp-581955,CsSi2SbO7,3.227099999999999,-2.7511951261742422,0.0
mp-705635,Na3CaAl3Si3CO15,1.148,-2.751185230625,0.3254652067788655
mp-767006,Li2Mn2OF6,1.504,-2.7511188127554544,0.0943114846590882
mp-693892,Sr2CrClO4,1.1299,-2.7511062932200003,0.0
mp-757327,Li7Ti2P7O24,0.21480000000000002,-2.7510132190000007,0.0996066354690361
mp-850401,Li2FeOF3,2.3404,-2.750943848188572,0.0597651790873063
mp-19163,SrWO4,4.6571,-2.7508796883333333,0.0
mp-774337,Li3Ti2FeO6,0.0,-2.750860645902779,0.0820540960416629
mp-1017465,BaVO3,0.0,-2.7508280027500005,0.1590535822972976
mp-780899,V6O5F19,2.083599999999999,-2.7508267974620004,0.0282351810833203
mp-25002,TiFeO3,1.4865,-2.750789284083333,0.0631406900000062
mp-763953,V6O5F19,1.9594,-2.750746953462,0.0283150250833275
mp-3635,LiBO2,5.226,-2.7507122329166664,0.0
mp-853265,V4O5F7,1.6077000000000001,-2.7507045899737506,0.0242819868750174
mp-777890,Ti3NiSn2(PO4)6,2.0712,-2.7506848069047627,0.0108124237268514
mp-767606,Na2NdPCO7,4.3794,-2.75059619515377,0.0289964685416554
mp-763935,V6O7F5,0.9371,-2.750567191649999,0.0372418494444595
mp-772346,Tm2(WO4)3,3.9047,-2.7505358397058823,0.0508244922058835
mp-771930,EuCrO3,0.0,-2.7504738877499997,0.0
mp-778719,Mn3OF5,0.383999999999999,-2.7504381755644447,0.0407661095833455
mp-765863,LiV6O7F5,1.535699999999999,-2.7504036273526307,0.0511810591812915
mp-19050,Ca2MnO4,0.371,-2.750360610851428,0.0096793619047632
mp-744941,Na3Cr2P2O8F3,2.458199999999999,-2.750287533320027,0.0
mp-770399,Li6Ti2O7,2.4848,-2.7502285711388894,0.0796492566666726
mp-765978,Li2MnOF3,1.3204,-2.750185502254286,0.0955818251785665
mp-762912,Ti3CoSn2(PO4)6,0.0,-2.7500596085714286,0.0256854427777764
mp-759680,LiSi2BiO6,3.6346,-2.7500425207499997,0.0376520128749966
mp-767778,Li2V3Si3O10,1.9249999999999992,-2.7500084098611115,0.0227608012286406
mp-763201,V6O7F5,0.0,-2.750002457205556,0.0378065838889032
mp-766789,MnF3,0.8374,-2.749995401549167,0.031403696249999
mp-677193,Mg3BH2O5F,4.010299999999999,-2.7498669384455545,0.0047421748437512
mp-779962,V6O7F5,0.7746000000000001,-2.749862643316666,0.0379463977777927
mp-792971,Li2MnVP2(O4F)2,0.0,-2.749850304658154,0.0168027610937206
mp-510253,Dy2(WO4)3,4.0894,-2.7497078431372546,0.0377364460294096
mp-762518,Li4Ti2Mn3Nb3O16,0.0,-2.7496779748647606,0.0818207943303548
mp-769850,ZrCoO3,1.7275,-2.7495778817500023,0.082383244999999
mp-851028,Mn3OF5,0.0,-2.7495678166755564,0.0416364684722347
mp-696878,K3CaP2HO8,4.9617,-2.749469510320698,0.0
mp-776500,Li3V2(OF)4,1.2909,-2.7494139057507687,0.0789569048168576
mp-763993,Li2TiVO4,0.0,-2.749248846041666,0.026439478854173
mp-13800,Cs2NaTlF6,3.6228000000000002,-2.749137922713999,0.0
mp-773707,Li4Ti3Mn2V3O16,0.9531000000000001,-2.749136362925713,0.0360311522916561
mp-34842,Na3UO4,0.127499999999999,-2.74908942375,0.0
mp-849236,V6O5F19,2.0723,-2.7490014837953334,0.0300604947499874
mp-772660,NbCrO4,1.976,-2.748827520000001,0.0111061316667129
mp-778689,V6O5F19,2.0143,-2.7488076174620004,0.0302543610833208
mp-778569,Mn3OF5,0.0,-2.7487463616755563,0.0424579234722344
mp-761678,Ti13(Fe5O14)3,1.4695999999999991,-2.748735774273809,0.0
mp-773965,Nb2PbO6,1.9287999999999992,-2.748680257388888,0.0067181438148171
mp-8609,Li6UO6,2.1685,-2.7486210628846153,0.0
mp-764049,V6O5F19,2.2316,-2.7485421717953336,0.0305198067499867
mp-771615,Li2TiVO4,0.0,-2.748541008333333,0.0271473165625053
mp-770351,Tb2(WO4)3,3.9217,-2.7485220739215688,0.0341844502941128
mp-754625,SrTaNO2,1.0762,-2.7484695144760014,0.0181612979999794
mp-780829,Mn3OF5,0.44500000000000006,-2.7484450116755568,0.0427592734722335
mp-561390,LiYb(PO3)4,0.0,-2.7483824456878296,0.0050060521990715
mp-776788,Li2MnVP2(O4F)2,0.3185,-2.7483727734081542,0.0182802923437206
mp-763619,Li2Fe(SiO3)2,3.392499999999999,-2.7483019834090907,0.0577620452272604
mp-863911,Li2Fe(SiO3)2,2.9174,-2.7482690820454545,0.057794946590902
mp-772627,Ho2(WO4)3,3.9244,-2.748039730588236,0.0426756636764658
mp-554549,CaGeO3,2.512099999999999,-2.7479058301249997,0.0146658812916689
mp-29226,Ca3Ga4O9,2.639299999999999,-2.747875477369792,0.0
mp-636383,Ba4Sm2Cu2O9,0.0,-2.7478749524264714,0.0147065849264347
mp-764161,Mn3OF5,0.0,-2.747839594453334,0.0433646906944558
mp-565386,Y2(MoO4)3,3.9229000000000003,-2.7478334772058823,0.0
mp-762399,Li2Cr(SiO3)2,2.4339,-2.7477626820454546,0.087998496818189
mp-773513,Er2(WO4)3,3.9171,-2.7477317552941174,0.0470750789705896
mp-705508,Ba3LaZnReWO12,2.043799999999999,-2.7477305565789467,0.0593799939103725
mp-567046,TbMoClO4,2.7455,-2.7477140395133324,0.0
mp-767709,Li2Mn3Si3O10,2.5783,-2.7476016414099997,0.0162996576388909
mp-5707,CsAsF4,4.6082,-2.7471117724600007,0.0
mp-565666,DyMoClO4,2.7273,-2.747063122846665,0.0
mp-765731,Mn3OF5,0.0,-2.747050358342223,0.044153926805567
mp-652774,CsVP2O7,1.8684,-2.7470441206764065,0.0
mp-558465,LaAg(PO3)4,3.7647999999999993,-2.7470393887433864,0.0
mp-780838,Mn3OF5,0.0,-2.7468535327866666,0.0443507523611081
mp-766992,Li3VCrP2(O4F)2,0.593499999999999,-2.7467511363864987,0.0318420870098066
mp-12621,NdTeF,0.42040000000000005,-2.7467224595633337,0.0411051874074059
mp-755316,Dy2Sb2O7,0.0,-2.746707530643939,0.0961746359090876
mp-554203,Li4Ga3Si3ClO12,4.411799999999999,-2.746600654706956,0.0
mp-764030,V4O5F7,0.4751,-2.7464313905987505,0.028555186250017
mp-695026,NaYb3Ti2(SbO7)2,0.0,-2.74627207344697,0.0536082965056801
mp-776709,Li2MnVP2(O4F)2,0.5817,-2.746261044553989,0.0203920211978863
mp-849234,Mn3OF5,0.0,-2.746097246120001,0.0451070390277887
mp-566043,Ba3V4PbO14,3.1539,-2.7459958694318183,0.0
mp-777203,Li2MnVP2(O4F)2,0.694299999999999,-2.7459083147623207,0.0207447509895537
mp-767251,Li2VSiO5,2.256199999999999,-2.745871401527777,0.0298402480555095
mp-850468,LiTiV2O6,1.3928,-2.745722144416668,0.0742122785416707
mp-768310,LaBiO3,3.069999999999999,-2.745673987750002,0.0347246367500133
mp-13356,Ba2SrTeO6,3.129199999999999,-2.7456089957500014,0.0
mp-686671,CeBeSiHO5,0.1875,-2.745553729707777,0.3674331087844553
mp-557298,Fe2Pb3F12,3.137499999999999,-2.745278449369412,0.0
mp-764130,V6O7F5,0.7526,-2.745275587761112,0.0425334533333483
mp-565801,HoMoClO4,2.7101,-2.745149761179999,0.0
mp-778503,Ti3Fe2Sb(PO4)6,0.028900000000000002,-2.745085219543652,0.0586507222685384
mp-762546,Li4Ti2V3O10,0.629599999999999,-2.7450712326754383,0.037831772894739
mp-762402,Li2Cr(SiO3)2,1.4258,-2.745023130681818,0.0907380481818247
mp-18911,LiVP2O7,2.1256,-2.7449470149945885,0.0
mp-19428,K2RbTbV2O8,3.399899999999999,-2.744859950952381,0.0
mp-776063,Li2MnPO4F,3.0801,-2.74483674377725,0.0273148074999998
mp-995194,KBaSiHO4,3.9285,-2.7448117892025,0.0125845744444443
mp-11892,NaNd2RuO6,0.0,-2.7446544902500007,0.0
mp-565869,SrVClO3,2.183599999999999,-2.744597239501668,0.0
mp-771211,Lu2(WO4)3,3.8813,-2.7443573055882355,0.0593472941176642
mp-763838,Na2LiCaVP2O9,1.7406000000000001,-2.7442068642150304,0.0897632748697878
mp-763943,V6O7F5,0.7227,-2.7440950260944437,0.043714015000015
mp-565693,TmMoClO4,2.6771,-2.7440870790371426,0.0
mp-768907,Sr3TeO6,3.0473,-2.74402382975,0.0221194629999974
mp-774691,Ba6Na2P2Ru2O17,0.34529999999999905,-2.743846652497947,0.0
mp-777197,Li2MnVP2(O4F)2,0.501599999999999,-2.7437814418456545,0.0228716239062203
mp-567057,LuMoClO4,2.8844,-2.743724089037142,0.0
mp-6089,BaZn2(PO4)2,4.0373,-2.7437145675915757,0.0
mp-14232,LiBO2,7.2810999999999995,-2.7437030760416663,0.0070091568749965
mp-765975,VF5,3.175099999999999,-2.743643954741668,0.0821989495833328
mp-11653,BPO4,6.9876000000000005,-2.743599778849207,0.0389775811111103
mp-558267,NaLiSiB3HO8,5.2406,-2.743599227574667,0.0
mp-558642,Sr3Bi(ClO)3,4.0001,-2.7434939583530005,0.0
mp-3051,Mg2GeO4,3.4021,-2.7433920589285714,0.0
mp-777766,Li3NbHO2F7,2.5571,-2.7432751610321424,0.1200806108482153
mp-565714,ErMoClO4,2.7012,-2.7432515554657138,0.0
mp-764922,VF5,3.1601,-2.743165920991667,0.0826769833333331
mp-8810,SrZn2(PO4)2,3.9629,-2.7430223760531147,0.0
mp-770213,Li3Ti(BO3)2,0.6219,-2.7430192281250005,0.1003199381089787
mp-764557,V6O5F19,2.266,-2.742995143795333,0.0360668347499872
mp-18863,PrCrO4,0.24819999999999903,-2.742915945833333,0.0
mp-755663,Ta2Pb2O7,2.8152,-2.742805713522728,0.0
mp-754555,HoTlO2,1.4284000000000001,-2.742758760625,0.0985061390624997
mp-772782,K2CePCO7,0.26030000000000003,-2.7427027766121035,0.0373926965624997
mp-677490,Li4Nd3SbTeO12,2.9443,-2.742630558809524,0.0126526863491953
mp-3904,Mg2GeO4,3.0734,-2.7426218464285705,0.0007702125000257
mp-771918,Li2MnPO4F,3.599299999999999,-2.7426004239161386,0.0295511273611115
mp-23211,PrCl3,4.3439,-2.742595972445,0.0
mp-16737,Na2BeB2O5,4.7145,-2.7423656479583336,0.0
mp-744149,NaCa3MgFe(Si2O7)2,0.7612000000000001,-2.742323354895832,0.4333221022395684
mp-772241,Li3MnAl2O6,1.7656999999999992,-2.7423107157050004,0.0411882479166569
mp-557664,Cs2TlBiF6,3.067299999999999,-2.742179241714,0.0
mp-775436,Ti3Fe(PO4)6,0.0,-2.7421652346638656,0.0337486608639618
mp-765782,VF5,3.1935000000000002,-2.7418440305750003,0.0839988737500005
mp-776086,CaGeO3,3.3911000000000002,-2.7417047947500004,0.0208669166666712
mp-767577,Li4V2Si3O10,1.8135000000000001,-2.7416482040789467,0.0559001364068816
mp-770062,NaVSiO4,1.975899999999999,-2.7411293157142858,0.0457844555357374
mp-861559,TaFeO4,1.8691,-2.7411274388888884,0.0276763919444444
mp-9203,Al6Cd4SO12,2.712799999999999,-2.7411221664809773,0.0
mp-752705,Ti(PO3)4,2.3564,-2.741029629355741,0.0244291119117656
mp-744014,TiMnFe(PO4)3,2.3224,-2.740974066772912,0.0
mp-28271,Sn5BF13,4.1558,-2.740965919454561,0.0
mp-853224,Ti7(WO5)6,0.0,-2.7409253919573664,0.0744971946287993
mp-762428,LiCrSiO4,2.7106,-2.7408442796428565,0.046676426071432
mp-763708,Li2TiV2O6,1.273099999999999,-2.7408259421969703,0.0433971092045499
mp-868136,Li4V7O9F7,0.8588,-2.7408203516511103,0.0946177513734554
mp-1020027,Li4P2O7,5.5813000000000015,-2.740742100764653,0.0179166438461528
mp-4100,Ca4IrO6,0.0,-2.7405889588636367,0.0228874140909081
mp-1020142,Na2B4O7,5.4224,-2.7405399528098298,0.0187253274145291
mp-779963,V6O7F5,0.26469999999999905,-2.7405201883166663,0.0472888527777932
mp-624909,LaNb2CuBrO7,0.0,-2.740501984895834,0.0545866056249977
mp-621730,Cs2NaCoF6,0.0,-2.740432457214,0.0
mp-769874,Li2TiVO4,0.0,-2.7403988652083333,0.0352894596875055
mp-775628,Li5La3(SbO6)2,3.1211,-2.7402902312500013,0.0558539886363673
mp-782706,V6O7F5,0.403599999999999,-2.7402386505388887,0.0475703905555704
mp-761293,ZrCoO3,0.0,-2.7401851727500017,0.0917759539999991
mp-18926,La3Ni2O7,0.0,-2.7401351440624997,0.0160446258333335
mp-761390,TaFeO4,1.891299999999999,-2.7401176983333344,0.0286861324999989
mp-770342,Tb2(WO4)3,4.3417,-2.7401128127450987,0.0425937114705838
mp-685151,TiO,0.0,-2.740104236458334,0.1805845674999986
mp-755003,LaBiO3,2.6285,-2.7400592237500008,0.0403394007500139
mp-695511,Na2CaTi2(GeO4)3,2.5739,-2.7400496922916675,0.0
mp-677627,Li3Nd3(TeO6)2,3.131399999999999,-2.73992370525,0.0
mp-779054,LiV2(OF)3,0.6937,-2.7397130732207406,0.0879949437654383
mp-543046,CsScP2(HO4)2,4.832899999999999,-2.7396626325664624,0.0
mp-765931,MnF3,0.9456000000000001,-2.7396202711325004,0.0417788266666656
mp-770209,Li3Ti(BO3)2,0.1499,-2.7395977860416667,0.1037413801923126
mp-762405,Li4Cr2Si3O10,2.3486,-2.739376965131579,0.0231865415789531
mp-35759,Li2NiF4,5.0816,-2.7393240813942863,0.0
mp-555078,Ba3SrSb2O9,3.1353,-2.7392188140833342,0.0
mp-13907,CdSnF6,3.850399999999999,-2.7392092858925,0.0
mp-1019716,CsLi4(BO2)5,4.4885,-2.7392090972916656,0.0
mp-565823,SmMoClO4,2.8195,-2.739135583679999,0.0
mp-764571,Li2VFeP2(O4F)2,1.6913,-2.7390572867856555,0.0
mp-759473,Na5Ti3O8,0.0,-2.7390535296875003,0.043659520798613
mp-505517,BaNb4O6,0.0,-2.739000729772728,0.0
mp-3359,Ba2SnO4,2.442199999999999,-2.7388915385714294,0.0
mp-778572,Li2VFeP2(O4F)2,1.809899999999999,-2.738813548660655,0.0002437381249276
mp-764494,Li2VFeP2(O4F)2,1.6052,-2.7387572949106547,0.000299991874928
mp-770653,Sr3W2O9,2.6749,-2.7387525183035715,0.1062900522619045
mp-989548,Rb2NaTlF6,3.6388,-2.738394631713999,0.0
mp-1020709,Sr5(Ga3O7)2,2.9142,-2.7381039481000005,0.0116979335000015
mp-772829,Ba6Li2Ti7(Sb3O14)3,0.0,-2.738050721123737,0.068892519820074
mp-17743,Sr3Sn2O7,2.1597,-2.738007793229167,0.0027711149999865
mp-769895,TaFeO4,2.1364,-2.73790919625,0.0308946345833334
mp-540736,BaCd(PO3)4,4.396400000000001,-2.737906187493386,0.0
mp-765897,Li3Mn5O2F9,1.7742,-2.737751389632105,0.1029361468421061
mp-989562,Cs2LiTlF6,3.4749,-2.737747058214,0.0
mp-562260,CaSO4,5.953899999999999,-2.7373348644270834,0.0568237037499983
mp-40186,LiCaPrTeO6,3.3167,-2.7369985152500007,0.0
mp-765118,LiVCrP2(O4F)2,0.9590999999999991,-2.7368599254046995,0.0071631107500103
mp-773126,Sm2(WO4)3,3.9757000000000002,-2.736824942352941,0.0240978257353106
mp-9332,KGaPO4F,4.108099999999999,-2.7367432606919047,0.0
mp-779071,LiV2(OF)3,0.464599999999999,-2.736635264331852,0.091072752654326
mp-761425,Ti3VCu2(PO4)6,0.052500000000000005,-2.7365572435714305,0.0116234317013876
mp-566516,Sr4Cr3O9,0.0,-2.736547750286457,0.0386114043229177
mp-764851,NaLiV(OF)2,1.5423,-2.7364215585542864,0.082203832857143
mp-756683,HfBiO4,1.073,-2.736401456666666,0.0199805637499981
mp-765305,LiVCrP2(O4F)2,0.9908000000000001,-2.7363127270158096,0.0077103091388988
mp-772582,Sr3W2O9,2.8234999999999992,-2.7361861286607145,0.1088564419047628
mp-764044,Mn3OF5,0.24,-2.7360804861200005,0.0551237990277897
mp-2918,YCuO2,2.6470000000000002,-2.7360397999999995,0.0003097206250046
mp-770727,Li3Al2FeO6,2.6281,-2.7360237039583337,0.0203004008333325
mp-3642,ScCuO2,2.3309,-2.735971418125001,0.0
mp-767008,Li2Si2WO7,2.7995,-2.7358740365625,0.045290986666667
mp-765077,LiVCrP2(O4F)2,1.3355000000000001,-2.7358604556824764,0.0081625804722325
mp-850900,Li3V2(PO4)3,0.0,-2.7357797279642853,0.0031117807500038
mp-774111,Mn3OF5,0.0,-2.735702444453335,0.0555018406944558
mp-565332,LiMg4V3O12,3.300499999999999,-2.7356992985,0.0022545532499966
mp-4636,ScCuO2,2.390499999999999,-2.7356643106250003,0.0003071074999994
mp-767223,LiVCrP2(O4F)2,1.0971,-2.7356378022380334,0.0083852339166767
mp-767443,Li2Mn5Si5O16,2.1642,-2.735619208385714,0.0451456219642825
mp-768006,Li4Mn3(OF3)2,2.5187,-2.7355447901680003,0.0918442446666656
mp-30158,Sr3Ga4O9,2.8861,-2.735514387265625,0.0
mp-777966,LiV2(OF)3,1.104299999999999,-2.7354888887762963,0.0922191282098827
mp-616175,EuSO4,1.2805,-2.735360893593749,0.0
mp-6972,YCuO2,2.6307,-2.73524942625,0.0011000943750003
mp-768078,Cr4Si4O13,1.3925,-2.7348938050595244,0.0744560602380968
mp-767689,LiVCrP2(O4F)2,1.3514,-2.7348422482380332,0.0091807879166765
mp-558137,AlBPbO4,2.7567,-2.734808101130952,0.0
mp-764899,Li2FeOF3,2.3292,-2.7347180985457142,0.0759909287301638
mp-8399,CsCdF3,3.288,-2.734631676714,0.0
mp-765908,LiCrSiO4,3.110699999999999,-2.734393601428572,0.0531271042857168
mp-761424,TiFe(PO4)2,0.278499999999999,-2.7341416010714306,0.0953911183332927
mp-23183,NdCl3,4.299799999999999,-2.73397926932,0.0
mp-18899,Nd2MnNiO6,1.5317,-2.733957829846,0.0
mp-782714,LiV2(OF)3,0.9438999999999991,-2.7337121624800003,0.0939958545061792
mp-764593,Li3Fe3OF7,3.1024,-2.733681815684286,0.0413928671428571
mp-566749,YMoClO4,2.781,-2.733660859394285,0.0106598763095231
mp-568740,GdWClO4,2.5147,-2.7336554940371416,0.0076283651190376
mp-767464,LiVCrP2(O4F)2,1.1921,-2.7336254782380327,0.0103975579166766
mp-541367,SrCd(PO3)4,4.4041,-2.7335707161044973,0.0025967167361127