mpid,formula,BG,FE,e_hull
mp-763297,CoP4O11,3.1506,-2.4466541153831853,0.0059871771874453
mp-19255,TiFe2O5,1.7134,-2.446640954739584,0.0517738678124999
mp-566757,DySbMo2O9,3.196799999999999,-2.44662101022436,0.0
mp-505618,Ba2CuWO6,0.0,-2.44651745175,0.0435619702500016
mp-771379,LiCrBO3,1.5389,-2.4464822284027767,0.0439542565476207
mp-699346,LiCo2(PO3)5,3.0534,-2.4464682312707047,0.0379392948913039
mp-14726,Na4TiO4,3.324599999999999,-2.4462853079629627,0.0
mp-774348,Li3MnFe2(BO3)3,2.8263000000000003,-2.44626120873389,0.0038351856481471
mp-28549,Li8SiO6,4.4497,-2.446213411500001,0.0
mp-557614,Cd(PO3)2,3.7122,-2.4462064479100536,0.0134182562500004
mp-673129,Sn(PO3)3,0.0,-2.4461130146565946,0.0560854664422931
mp-780474,Li3MnFe2(BO3)3,2.8421,-2.446102682067224,0.0039937123148137
mp-774366,Li3MnFe2(BO3)3,2.712999999999999,-2.446054576789444,0.0040418175925935
mp-5637,SrZnO2,2.0793,-2.446052610625,0.0
mp-770717,Na2VPCO7,2.123699999999999,-2.445969760778769,0.0
mp-762287,Li2V5O10,0.6202000000000001,-2.4457169701470587,0.0707257992156797
mp-608717,EuMoClO4,0.0,-2.445688636894285,0.0
mp-558829,Cs3Yb(SO4)3,0.0,-2.4456783793256585,0.0
mp-761482,Li2FePO5,2.5086,-2.4456472777050258,0.0863688690277726
mp-767627,Mn3(OF3)2,0.0,-2.445645108410909,0.0709821414393898
mp-779955,Li3MnFe2(BO3)3,2.7735,-2.4456446745672227,0.0044517198148144
mp-778683,Li3MnFe2(BO3)3,2.7981000000000003,-2.4455954126227777,0.0045009817592589
mp-778821,Li3MnFe2(BO3)3,2.7687999999999993,-2.445587442067223,0.004508952314814
mp-777479,VO2,1.378699999999999,-2.445521995,0.0387522391666639
mp-778723,Li3MnFe2(BO3)3,2.770299999999999,-2.4455214951227795,0.004574899259258
mp-779856,Li3MnFe2(BO3)3,2.7535,-2.445510179845,0.0045862145370367
mp-8611,Li8CeO6,2.5162,-2.4454589791666668,0.0022509806666679
mp-774373,Li3MnFe2(BO3)3,2.7431,-2.4454477904005563,0.0046486039814812
mp-850366,Li3MnFe2(BO3)3,2.7882000000000002,-2.445409499011668,0.0046868953703693
mp-850414,LiB3P(HO3)3,5.988,-2.4454091925120727,0.0003824373529415
mp-853188,Mn2Fe3Sn(PO4)6,0.0,-2.445398220985873,0.01776666979167
mp-763222,NbFe3Co2(PO4)6,0.0,-2.4453033894047627,0.0481844328704053
mp-687212,Cr(PO3)4,0.0025,-2.4452612219047634,0.0737845056985264
mp-974,Tm2S3,0.9358000000000001,-2.4452475374375005,0.0329343022499974
mp-773260,K2VPCO7,1.6536,-2.445211212862103,0.0
mp-763714,LiVP2(HO4)2,1.941799999999999,-2.4451900134593205,0.0095898183928575
mp-562613,P2O5,5.540900000000001,-2.4451408246343536,0.0127709499999975
mp-764019,Li2TiNiO4,1.602199999999999,-2.4451251277083337,0.024321240625003
mp-774098,LiVCrO4,1.152999999999999,-2.445007492142857,0.0092823738690377
mp-676762,Yb(CeS2)2,0.0,-2.4449340801785717,0.0226255967857147
mp-6641,Ba3SrRu2O9,0.308399999999999,-2.4449316334166675,0.0
mp-695434,Li7Zr3Nb(TeO6)4,1.915,-2.4449022473076933,0.0159661127564092
mp-775327,Li2MnV3O8,1.5656,-2.4449019336399997,0.0089270152232217
mp-762038,Li4CrCo3(PO4)4,1.0944,-2.444876420442177,0.0329088596651816
mp-677308,NaPr2Cl6,0.0,-2.4448384149511115,0.0544755637037006
mp-772327,Mn5Cr(PO4)6,0.0,-2.4446989345380947,0.0371368382638888
mp-763575,Li10Co(SiO5)2,1.9408999999999992,-2.444548534021738,0.0485950238043475
mp-704227,Mn9(PO4)8,0.250399999999999,-2.444538640069427,0.0416297159183738
mp-764440,Cr(PO3)4,0.05840000000000001,-2.4445060307282915,0.0745396968750169
mp-26950,Sn2(PO3)5,0.0,-2.444493553146644,0.0363817093181566
mp-763119,TiFe3Co2(PO4)6,0.0,-2.444333089312169,0.0431441762847191
mp-762770,LiMn5P3O13,2.9249,-2.444309093651623,0.0962556520454516
mp-755053,Ga4SiO8,2.405299999999999,-2.4442793553846154,0.0682412038461546
mp-761629,Li17V16O32,0.6445999999999991,-2.4442644581538455,0.0189987749743574
mp-771194,Nb2Ge2O7,1.8118,-2.4441687410227284,0.0697606988636341
mp-566529,Fe5(SiO4)3,2.4238,-2.4440864867500003,0.0407770531249944
mp-684493,LiSn2P3O10,3.6428000000000003,-2.4440723140178573,0.0467452923958271
mp-559052,LiNb3(Bi2O7)2,2.7406,-2.4440326396590915,0.0
mp-764572,VO2F,1.5277,-2.4440077467558323,0.0361413297916684
mp-767724,Li5Fe3(BO3)4,1.148,-2.4439175269444444,0.0248220418749909
mp-6305,K3TiO4F3,2.536,-2.4438745459306057,0.1350410342288963
mp-558595,Ba6Ru3(ClO6)2,0.0,-2.4438550289791308,0.00482654402174
mp-562708,Eu2(MoO4)3,0.0,-2.443813195,0.0
mp-777698,V2O3,1.4363000000000001,-2.443812741416667,0.086791042583334
mp-18483,Rb6Si2O7,3.1374,-2.443746334583334,0.0
mp-14105,AlTlO2,2.1963,-2.443708294375,0.0273723946590909
mp-766103,Li7Zr3Nb(TeO6)4,2.3669000000000002,-2.4436916076923083,0.0171767523717942
mp-32891,Y2S3,1.901899999999999,-2.4436299649375,0.0336605671666667
mp-6520,Ba3MgRu2O9,0.0,-2.44348879275,0.0
mp-761531,MnV3Ni2(PO4)6,0.10460000000000001,-2.443415321653649,0.030512327951393
mp-760002,Li3Cu2F7,0.44780000000000003,-2.443399098819166,0.0545200331250006
mp-773226,Li5Mn3Nb2O10,0.18710000000000002,-2.443375210269001,0.0642965217499904
mp-762524,Li4Fe7(PO4)6,2.998199999999999,-2.443368734111498,0.0617135514634066
mp-763054,Fe2OF3,1.4915,-2.4433510745533336,0.0659078270833406
mp-20546,Ba2In2O5,0.919,-2.4432790979166668,0.0
mp-770741,Mg3(AsO4)2,2.6418,-2.4431771042307693,0.027357939230769
mp-657716,Li2Fe3(P2O7)2,3.605,-2.443168129342649,0.1086009569565282
mp-781963,Li2FeO2F,1.835599999999999,-2.4430885989483326,0.0017749900000003
mp-3107,Ga3PO7,3.1409,-2.443081456985931,0.0163444127272738
mp-780139,Li4Ti3Co3(WO8)2,0.0398,-2.443080255357143,0.0640425305357172
mp-763122,Li2Mn2Co(PO4)3,0.742499999999999,-2.442999254060285,0.0739278621875234
mp-777076,Li2TiNiO4,1.643299999999999,-2.4429563564583336,0.0264900118750031
mp-763323,LiMn2(BO3)2,0.765699999999999,-2.44283756752303,0.0692395993181769
mp-767569,Mn3Fe(PO4)4,0.6661,-2.442834548760872,0.0074923897916914
mp-778528,Li2Mn(BO3)2,2.065,-2.442760978799394,0.0775935404545427
mp-778899,LiCrPO5,0.40800000000000003,-2.4427518839806552,0.0579039707187361
mp-752754,Hf2N2O,0.34830000000000005,-2.442583256702,0.1074145629999954
mp-781694,LiMn2(BO3)2,0.0178,-2.442559752068484,0.069517414772724
mp-540447,LiNi(PO3)3,3.9183,-2.4425550186096947,0.0291697774999866
mp-769596,Li3V3CrO8,0.9017000000000001,-2.442460021333333,0.0436791186666232
mp-764716,Fe2OF3,1.5097,-2.4424131033033336,0.0668457983333405
mp-760582,Li2AgF3,2.1270000000000002,-2.4423945872616666,0.0774721774999998
mp-555650,NdSeClO3,4.1926,-2.442365283433959,0.0
mp-773279,Mn3Fe(PO4)4,0.40380000000000005,-2.4423520977192057,0.0079748408333575
mp-763863,Li4Mn3Nb3(SnO8)2,0.0,-2.442349856888572,0.09297523169643
mp-780113,LiMnP2HO7,4.0102,-2.44234539371004,0.0677576666666546
mp-767221,LiFe2(PO4)2,1.4302,-2.442343778168499,0.0532879900961287
mp-774344,Mn5Sn(PO4)6,0.0,-2.442324559954762,0.0358438192361329
mp-5160,AgBF5,0.0,-2.442310239659524,0.0
mp-765511,Li6VO5F,2.2588999999999992,-2.4422529590338455,0.0719390399999992
mp-770242,LiCrBO3,2.1998,-2.4421744459027783,0.0482620390476205
mp-25638,Li3VPCO7,2.832999999999999,-2.442133754949633,0.0686455556490361
mp-566480,SmSbMo2O9,3.236,-2.442049943942308,0.0028352046367441
mp-767841,Na6Ca3MnC6(O9F)2,4.3288,-2.4420329794677778,0.0
mp-780593,VO2F,1.9710999999999992,-2.4420162665475003,0.0381328100000004
mp-18761,K3V3O8,1.8032000000000001,-2.441978732142858,0.0
mp-19352,KAl(MoO4)2,3.8863,-2.4419578399999984,0.0
mp-778630,LiV3P3(HO6)2,2.4616000000000002,-2.4417754081678917,0.0219143801785701
mp-777948,Mn6O5F7,0.0,-2.4417504664077776,0.055263229791663
mp-866267,YbMoClO4,2.3301,-2.441715049751429,0.0
mp-759028,Li3Sb3(PO4)4,3.231999999999999,-2.4416977954761907,0.0528622853846147
mp-755911,Hf2N2O,0.0863,-2.441689691702001,0.1083081279999938
mp-540326,CrP2O7,0.34440000000000004,-2.4416565439940463,0.0499591308124927
mp-35746,Sr(YS2)2,2.1883,-2.441644111607144,0.0722232717857158
mp-777662,LiMn2(BO3)2,0.5207,-2.4416276172199995,0.0704495496212072
mp-762980,VO2F,1.6265,-2.4415160463391663,0.0386330302083344
mp-687105,ThCd(MoO4)3,3.5168,-2.4415079958823536,0.0
mp-26762,Sn(PO3)3,0.0,-2.4414980527335164,0.0607004283653704
mp-767643,Li3Mn2Fe(BO3)4,1.3956,-2.4413840903903026,0.0672644770028307
mp-765960,Li3MnVP2(HO5)2,2.0258,-2.441281660888974,0.0458999691447337
mp-778062,LiFeF5,0.8242,-2.4412721415642857,0.1005178050000035
mp-774306,LiCrPO5,0.672,-2.4412720496056552,0.059383805093736
mp-762851,Li3Co2(SiO4)2,0.3763,-2.4412698940000004,0.054501016833302
mp-758291,Li3Sn3(PO4)4,0.0,-2.4412579533608056,0.098338693124993
mp-763535,LiP5W3O19,0.9576000000000001,-2.441237826222362,0.0968366048214601
mp-676909,NaEu2Cl6,0.0,-2.4412358812474064,0.0
mp-632692,LiFe4(PO4)4,0.7423000000000001,-2.4411849148952394,0.0225077876000314
mp-773133,K3CuB2P4H3O17,0.7381000000000001,-2.441000231427476,0.0
mp-764192,Li6Co11(OF12)2,2.3211,-2.440956859326976,0.0709728530232576
mp-776879,Ti3Mn2Cr3O16,0.880799999999999,-2.440829112163333,0.1020893617708242
mp-32534,NaPWO6,3.745,-2.4407766414550283,0.0071173620370377
mp-850436,Li2Mn3(BO3)3,0.0,-2.4407765473017644,0.0767501164215502
mp-762720,Li2Mn2P2O9,0.7149000000000001,-2.440692280957365,0.0799100572500091
mp-765328,Li8VNi3(PO4)6,1.5875000000000001,-2.4406518516326536,0.0699280431547748
mp-776850,Li2Mg2(WO4)3,4.2023,-2.4406358065789484,0.0503330778947379
mp-780099,Fe2OF3,1.3708,-2.4405766358033336,0.0686822658333401
mp-763999,Mn6O5F7,0.0,-2.4405634158522216,0.056450280347235
mp-850077,LiMn2(BO3)2,0.30310000000000004,-2.440372159947272,0.0717050068939357
mp-34011,Ca(HoS2)2,2.1913,-2.4403112644642864,0.0339091604761909
mp-767105,LiFe2(PO4)2,1.361899999999999,-2.4402960173992683,0.0553357508653595
mp-765693,Mn6O5F7,0.16510000000000002,-2.440288224741112,0.0567254714583445
mp-778827,LiMn2(BO3)2,0.5357000000000001,-2.4402842775230296,0.0717928893181767
mp-850179,Li2Mn3(BO3)3,0.0,-2.4402555764194127,0.0772710873039024
mp-566896,V2Ni(PO5)2,1.5323,-2.440193100912698,0.0
mp-764186,Mn6O5F7,0.14169999999999902,-2.44015842863,0.0568552675694569
mp-778775,Li2Mn3(BO3)3,0.0,-2.4401020237723534,0.0774246399509621
mp-850433,Li2Mn3(BO3)3,0.0,-2.4400951399488253,0.0774315237744893
mp-769731,VBO4,2.2086,-2.440072732361112,0.0887738895833312
mp-555234,RbSbBrF3,3.7542,-2.4400089772616664,0.0
mp-557019,RbErSeCl2O3,4.3116,-2.4399439404829684,0.0
mp-25579,YMo3O8,1.2228,-2.439860486875,0.1106008087499983
mp-23768,AlZnH4O2F5,5.0567,-2.43981387137923,0.0032163038461563
mp-690504,Li3V4O8,0.0,-2.439700058000001,0.0696548775833099
mp-777663,LiMn2(BO3)2,0.49290000000000006,-2.4396808004018187,0.0723963664393902
mp-772920,Li8Ti2O7,0.7655000000000001,-2.4395986310049023,0.0888008938235298
mp-850773,Li2Mn3(BO3)3,0.0,-2.439308424360589,0.0782182393627266
mp-549695,GdBi2ClO4,0.8529,-2.4392664622825,0.0
mp-771655,Li3V2CrO6,1.8865999999999992,-2.4392358189583336,0.0208284018749989
mp-694952,Ti5Fe11O24,1.164,-2.439231040083334,0.0275104843653846
mp-765333,Li5Mn3O5F3,0.669099999999999,-2.4392058967312504,0.0828703549999998
mp-782642,LiMn2(BO3)2,0.4797,-2.439172221765454,0.0729049450757521
mp-779312,Li2Mn(BO3)2,0.6614000000000001,-2.439138580844848,0.0812159384090875
mp-776136,Li2VCrO4,0.9750000000000001,-2.439135223125,0.006311293125
mp-555160,CsYSeCl2O3,4.4032,-2.4390813626704686,0.0
mp-757722,BaZnGeO4,2.8891,-2.438906580238096,0.0108014922619013
mp-767011,Li7Mn3(SiO6)2,1.2906,-2.438851295745,0.0953132532291629
mp-775226,LiMn2(BO3)2,0.568199999999999,-2.43883745002303,0.0732397168181773
mp-779783,Li4MnFe3(BO3)4,3.2005,-2.4388371796927784,0.0015815879861111
mp-769617,Li2VCrO4,1.2694,-2.4388254885416667,0.0066210277083325
mp-778635,Li4MnFe3(BO3)4,3.1372,-2.4388215084427785,0.001597259236111
mp-850248,LiMn2(BO3)2,0.41599999999999904,-2.438817485704848,0.0732596811363599
mp-32787,Ho2S3,1.9342000000000001,-2.4387561824375,0.0346376356666668
mp-566695,NdSbMo2O9,3.2597,-2.4387540875961533,0.0
mp-762062,Li5Fe3Co2(PO4)6,2.3770000000000002,-2.438753649714286,0.0635248994375103
mp-19440,LiVO3,2.8222,-2.4387388327500013,0.0
mp-29927,Pb7(BrF6)2,4.0573,-2.438697234965714,0.0122246809523804
mp-767107,Li2MnO2F,0.0,-2.438694021608333,0.0605192849999971
mp-764452,Li3Co2(SiO4)2,0.230299999999999,-2.438689049333334,0.0570818614999684
mp-769565,Na2VPCO7,2.1699,-2.4386625745287698,0.0073071862499984
mp-776734,LiFeF5,0.4454,-2.438652406742858,0.1031375398214304
mp-769635,Li2VCrO4,1.3192,-2.4386493181249995,0.0067971981250014
mp-673119,LiSn2P3O10,3.7549,-2.438632676361607,0.0521849300520775
mp-775825,Li2VCrO4,0.9269000000000001,-2.438534064375,0.0069124518750003
mp-772384,LiNbCoO4,2.2631,-2.438490452499999,0.0237961146428569
mp-696075,Ca2H2S2O9,5.1689,-2.4384439595521106,0.0750495937222215
mp-775791,Li2TiFe2O5,1.460299999999999,-2.4383845692916672,0.0267111405000006
mp-767191,Li7Mn(OF)3,2.7495,-2.438311846662857,0.1002248004761918
mp-781074,LiMn2(BO3)2,0.48550000000000004,-2.4382838752503018,0.0737932915909045
mp-504729,Cs2PdF6,2.306499999999999,-2.4382745796822216,0.0
mp-849696,Mn6O5F7,0.0,-2.438256306407777,0.0587573897916637
mp-6046,Na4UC3O11,2.1523,-2.4382483750657893,0.0
mp-759263,Li3Bi3(PO4)4,3.4515000000000002,-2.4381149547069594,0.0948108967307632
mp-28065,ThNCl,2.4974,-2.4380934352133323,0.0
mp-566814,YSbMo2O9,3.2023,-2.43808925375,0.0346335279807696
mp-780889,LiMnP3HO10,1.2315,-2.4380215141478567,0.0491845080208328
mp-25145,VO2,1.074399999999999,-2.437985584166666,0.0462886499999974
mp-768055,Li2VCrO4,1.7173999999999991,-2.4379585475,0.0074879687499995
mp-759493,LiSbP2O7,4.0237,-2.437950025221861,0.0927111348484848
mp-769641,Li2VCrO4,1.6276000000000002,-2.4379273518749995,0.0075191643750001
mp-780879,LiMn3P3(HO6)2,3.4415,-2.437895488305033,0.0090269884127014
mp-695366,Na3LiMg4(Si2O5)6,0.5315000000000001,-2.43784655055,0.7149147970749983
mp-758810,LiBi2P3O11,3.4454000000000002,-2.4377337934138645,0.0764640312254956
mp-769620,Li2VCrO4,1.932499999999999,-2.437680961875001,0.0077655543749992
mp-768057,Li2VCrO4,1.7728000000000002,-2.43765903875,0.0077874774999999
mp-31677,LiCr2(PO4)3,0.0,-2.4376002302380946,0.0702361438194429
mp-24348,BiP4HO12,4.9882,-2.4375548450556077,0.0
mp-540022,MnPO4,0.509199999999999,-2.4375282015092052,0.0203004812499703
mp-759985,Bi3O2F5,3.4435000000000002,-2.4374489885950004,0.0286197157500032
mp-766111,Mn6O5F7,0.17169999999999902,-2.437435899185556,0.059577797013901
mp-861170,Ti5Fe11O24,1.1496,-2.4374181925833325,0.0293233318653793
mp-935267,Li4UC3O11,2.2974,-2.437400995986841,0.0358438413157902
mp-775278,Li2MnV3O8,1.3458,-2.437187555068571,0.0166413937946501
mp-778551,LiMn2(BO3)2,0.591299999999999,-2.43702600093212,0.0750511659090875
mp-28555,RbSF5,4.6838,-2.4370164021446428,0.0
mp-851003,Fe5P6WO24,2.3386,-2.436940724126984,0.0147483774652759
mp-1019539,BaB2S3O13,6.181,-2.4369053360142554,0.0
mp-763292,Ti3Mn3(SbO8)2,0.6120999999999991,-2.4368672330366663,0.0843292845485947
mp-763458,V2GaO5,0.44020000000000004,-2.4368414461979166,0.0021886350520841
mp-771909,Li4Mn2P4H3O16,0.5505,-2.436745868971067,0.0300883684698201
mp-759634,Sr16Cu8O23,0.1748,-2.436690077845745,0.0152536306383002
mp-772838,Er(ReO4)3,3.8063000000000002,-2.4366758559375,0.0
mp-777037,Li2CrPCO7,2.895299999999999,-2.436661361195436,0.015733354062454
mp-780977,Li4MnFe3(BO3)4,3.1115,-2.4364872146927774,0.0039315529861116
mp-780635,Li4MnFe3(BO3)4,3.157399999999999,-2.4364815426094446,0.0039372250694444
mp-25802,Li2Bi(PO4)2,0.16720000000000002,-2.436476841373627,0.0637438319391021
mp-779072,Li4MnFe3(BO3)4,3.154099999999999,-2.436468700526111,0.0039500671527781
mp-772668,Li3MnSiCO7,0.8431000000000001,-2.4364244074776917,0.0487277294270116
mp-761144,Na3LiSbP2O9,0.003,-2.4364012504650296,0.0833485661328197
mp-20036,Gd3S4,0.0,-2.4363917958928565,0.0124055428571434
mp-773551,Li4MnFe3(BO3)4,3.1491000000000002,-2.4363737238594445,0.0040450438194445
mp-759650,Li3Bi3(PO4)4,3.0989,-2.4362993831684983,0.0966264682692248
mp-1016154,MgMnO2,1.2435,-2.436237525865,0.0966046249999994
mp-770708,Na3SiBSbO7,0.0,-2.4361953450320515,0.0799814999278876
mp-778926,Li4MnFe3(BO3)4,3.1839,-2.4361848588594435,0.0042339088194456
mp-775472,Cr3Co(PO4)4,0.6886000000000001,-2.436183035932539,0.0509321587500029
mp-767806,VO2F,2.5328999999999993,-2.4361718959225,0.0439771806250011
mp-775677,Li4Fe5P6WO24,2.126899999999999,-2.436159427964286,0.0889277705000397
mp-697027,NaSi2(HO2)3,5.078799999999999,-2.436157181946667,0.0018935579166665
mp-1019742,HeSiO2,6.5469,-2.4360277699999995,0.0275069106249992
mp-11903,LiEu2IrO6,0.0,-2.4360192427500005,0.0
mp-850399,LiVPHO5,2.2039,-2.4359936725516933,0.0791205588889063
mp-667345,NbTl2PO6,2.9004,-2.4358813687261907,0.0
mp-850362,Li4MnFe3(BO3)4,3.163,-2.4358534584427787,0.0045653092361108
mp-18049,Ge5P6O25,3.5718,-2.4358530659672617,0.0
mp-776060,MnCr2Fe3(PO4)6,0.0,-2.435825295820317,0.0550140786111264
mp-3474,LaCuO3,0.0,-2.435742040750001,0.0
mp-4701,CuSnF6,0.1778,-2.4357186477675,0.0
mp-746071,KFePO4,3.4089,-2.435705947227892,0.0805208812499831
mp-763650,LiP3W2O13,3.8082000000000003,-2.435656758186091,0.0992866458333168
mp-773612,Li4MnFe3(BO3)4,0.062199999999999006,-2.4355449380261116,0.0048738296527774
mp-849511,VO2,0.5491,-2.4355400154999995,0.0487342186666648
mp-778982,Li4MnFe3(BO3)4,3.1295,-2.435497571359444,0.0049211963194455
mp-767824,Li2Mn(BO3)2,1.4258,-2.435435628572121,0.0849188906818145
mp-767638,Li3Mn3(BO3)4,0.7257,-2.435402351570303,0.0890693458380447
mp-780816,LiMn2(BO3)2,0.012900000000000002,-2.435307987523029,0.0767691793181786
mp-29903,TlTeF5,4.4514,-2.4352275590642862,0.0
mp-767682,Li4Fe3(BO3)4,2.0044,-2.435226724855073,0.0402352824456517
mp-770725,RbLi2Mn2(BO3)3,0.5117,-2.4351916693041176,0.0846969010924532
mp-764002,VO2F,1.533699999999999,-2.4351725925891663,0.0449764839583339
mp-778029,LiMn2(BO3)2,0.6812,-2.4351569761593934,0.0769201906818146
mp-763039,Fe2OF3,1.3483,-2.4351018616366664,0.0741570400000073
mp-769397,MgSO3,4.9784,-2.434984140229167,0.0365887419637767
mp-849530,Li2MnVP2(HO5)2,1.0425,-2.434967846493915,0.01846300458332
mp-764166,Mn6O5F7,0.0,-2.4349296164077776,0.0620840797916786
mp-25504,Li2CrPCO7,3.132,-2.434924717445436,0.0174699978124541
mp-19073,La2Ni2O5,2.023499999999999,-2.4349212984722235,0.1198657311111102
mp-760805,Li2AgF3,1.9409,-2.434852610595,0.0850141541666671
mp-850227,LiCrPO5,0.1292,-2.4347752402306546,0.0658806144687362
mp-775219,Cr3P6WO24,0.022599999999999003,-2.4347691376050418,0.0206479676286672
mp-766135,Sr6Bi2O11,1.035299999999999,-2.4347419636184204,0.1221977372807012
mp-22325,P2Pb2O7,3.6475,-2.4347030488582257,0.0
mp-757945,LiSnPO4,3.5738,-2.434664277227892,0.0514683923809533
mp-775995,Mn3CrSn2(PO4)6,0.0,-2.434651953373651,0.087863212291662
mp-752793,Li2AgF3,1.964799999999999,-2.4346473543449987,0.0852194104166672
mp-759868,Li3Sb2(PO4)3,2.4939,-2.4346449812142863,0.0963289454999998
mp-781697,Li2MnNbO4,0.0,-2.434398724494999,0.1048074543749972
mp-763906,Li2VCrO4,1.7347000000000001,-2.4343567243749997,0.0110897918750003
mp-13986,Li2PtF6,2.4927,-2.434270163015556,0.0
mp-767771,P3W2O13,2.1023,-2.4341223247519843,0.0104342255092948
mp-25705,NaMn3P3(HO6)2,3.323099999999999,-2.433905289257415,0.0
mp-28163,K2PdF4,1.8732,-2.433904326394285,0.0
mp-758245,Li3SiBiO5,3.2412,-2.433885801874999,0.0579074128749992
mp-762170,Li2NiP2O7,4.3009,-2.4338285862450406,0.0433306308333243
mp-768582,Na3BiBPO7,3.6301,-2.433800228731685,0.0206729069755242
mp-689973,Li2Fe(PO4)2,0.0,-2.433750345476191,0.0760773314423044
mp-778795,Ta2Zn4O9,2.9448,-2.4337492112500003,0.1000686968333335
mp-776870,Li2V3SnO8,1.2406,-2.4337090296428565,0.0006372809822074
mp-767281,Li6MnVP2(CO7)2,2.6874000000000002,-2.433686093063479,0.0635802464783621
mp-25084,KMoPO6,2.5431,-2.4336695189550266,0.0003794567777761
mp-553025,CaBiClO2,3.6207000000000003,-2.433662448152,0.0
mp-758929,Li2Cu(PO3)4,0.32580000000000003,-2.433657612625313,0.062701919385975
mp-776661,NbV3O10,1.5159,-2.433587098035715,0.0819606751785695
mp-757967,LiSn4P7O24,0.3184,-2.4335020239351857,0.0879390758565143
mp-771363,MnPO4,1.0529,-2.4335018901203176,0.0243267926388988
mp-769187,Sn5P6O25,2.5557,-2.433491041245039,0.0422680056944368
mp-25655,Pr(WO4)2,0.0574,-2.4334884040909093,0.0891358311931824
mp-767143,Li4Mn3O5F3,0.702199999999999,-2.433468072513333,0.0955058066041711
mp-707334,K7P6H2NO22,3.6047000000000002,-2.433453349623459,0.0194846502631582