mpid,formula,BG,FE,e_hull
mp-779869,Li2MnV(P2O7)2,0.4282,-2.6623391914018617,0.0084291923674717
mp-36086,Li3NbO4,1.037099999999999,-2.6623150906249995,0.0674330725
mp-1019781,K2Na3P3O10,4.3865,-2.6622526142658733,0.0
mp-562321,SrCr2O4,2.7927,-2.662167366785713,0.0
mp-561479,K2U(WO5)2,2.0235,-2.6621260781666667,0.0
mp-770420,Li4Ti3Mn3V2O16,0.0,-2.6621236951028564,0.0888726925892839
mp-773563,Li4Ti2V3Cr3O16,0.9931999999999991,-2.6620485669047613,0.0272444632216775
mp-762897,Li2V(PO4)2,1.2191,-2.662000164322344,0.0393503924999985
mp-25028,TbMn2O5,1.081499999999999,-2.661978547062916,0.0
mp-779207,Li6MnV3(PO4)6,0.6322999999999991,-2.661977771113285,0.0541032986250131
mp-585383,Li2V(PO4)2,1.494099999999999,-2.661834358168498,0.0395161986538425
mp-762725,Li2Cr2P2O7F2,2.1716,-2.661831157321365,0.0474276800556046
mp-764785,Li3V2(O2F)2,0.351799999999999,-2.6618219202163633,0.0987573598105937
mp-554891,RbCoF3,0.0,-2.661735148047333,0.0
mp-1020164,Na3LiP2O7,4.8511,-2.6615815046108064,0.0
mp-861531,Li2VH2OF5,2.4034,-2.6615406999490907,0.0636115740151517
mp-866728,K2CrH2F8,1.9070999999999991,-2.6615367793661537,0.0
mp-763742,Li2FePO4F,3.7155,-2.6614861533928043,0.029935962638893
mp-850089,Ti3Co2Ni(PO4)6,0.0221,-2.661477820238096,0.062514946550916
mp-770720,Li4ZrO4,4.0628,-2.6614627438888885,0.0822190455555613
mp-654373,RbVPO5,2.9656000000000002,-2.6614477567931547,0.0
mp-27864,BF2,4.8995999999999995,-2.6614015755155553,0.1216180953703709
mp-697020,LiAlSiH2O5,4.6145000000000005,-2.661255348849,0.0138873060833324
mp-765508,V3(O2F)2,1.2187000000000001,-2.6612253652644435,0.0683838344444449
mp-764756,Li6MnV3(PO4)6,0.5298,-2.661121383238286,0.0549596865000125
mp-766851,Li4V(PO4)2,3.209199999999999,-2.661118657746032,0.0520384933434368
mp-763388,Li4VP2O9,1.2345,-2.6610965185900297,0.0626196468750199
mp-18936,NdFe3(BO3)4,2.319299999999999,-2.6609536004583343,0.0
mp-775045,MnNb(PO4)2,0.0458,-2.6609451001792066,0.0957743655833329
mp-608080,Al3(PO4)4,0.020799999999999003,-2.660854947386128,0.1943282593206489
mp-977123,NaTiO3,0.0,-2.6608484170833338,0.0886073027749949
mp-6152,La2ZnIrO6,0.0,-2.660661417750001,0.0307659759999996
mp-566034,KNd(WO4)2,3.8022,-2.660644587708333,0.0
mp-782667,Li2MnSiO4,2.7851,-2.6605184488700004,0.0443604906249994
mp-770546,Li2Mn2P2O7F2,2.846599999999999,-2.660410376616032,0.097803191083317
mp-781768,Mn2OF3,0.28250000000000003,-2.6603984952899995,0.0327422602083382
mp-32525,Li2V(PO4)2,2.6334,-2.660377529322344,0.0409730274999962
mp-14038,Rb2NaRhF6,1.9529999999999992,-2.6603457332139997,0.0
mp-8851,BaCuP2O7,0.34890000000000004,-2.6603319895400435,0.0
mp-776645,Li2MnP2O7,3.7889,-2.66023411257504,0.0285338859374979
mp-763965,V2(OF)3,1.516,-2.660139908206668,0.0165675018750004
mp-557259,MoF6,4.1644,-2.660083660662857,0.0
mp-540942,KDy2Cl7,4.5535,-2.6600611193653334,0.0
mp-721216,Al2Si2H4O9,4.9329,-2.6598503876900006,0.0135837380882337
mp-779407,Li6MnV3(PO4)6,0.47400000000000003,-2.659845787613285,0.0562352821250131
mp-776787,V2(OF)3,1.5224,-2.6597988536233337,0.0197787315972224
mp-770888,Li4Nb5V3O16,0.13159999999999902,-2.659781985714285,0.0775214349032786
mp-766975,Li3Mn3O3F5,0.5356000000000001,-2.6596740133985706,0.0679966387946651
mp-541152,Al2Si2H4O9,4.9053,-2.659637535042941,0.0137965907352937
mp-767556,NaTiPCO7,2.6902,-2.659564932819264,0.0230517029545476
mp-768169,Li3CaPCO7,4.872999999999999,-2.6593411949496346,0.0820886723076945
mp-705747,Ti9Fe11O30,1.313,-2.6593025789500007,0.0628925600461745
mp-776665,Li2MnP2O7,4.0492,-2.6592627740333725,0.0295052244791662
mp-19424,TiCoO3,0.0,-2.659251222083334,0.0
mp-853210,Mn2OF3,0.34600000000000003,-2.6591768319566658,0.0339639235416715
mp-18348,KGaP2O7,4.3848,-2.65917622749459,0.0
mp-22272,Ba2UCuO6,0.0,-2.659092752750001,0.3499448429999763
mp-555118,NaPO3,5.081,-2.6590669395357147,0.0
mp-32502,LiV(PO3)4,2.2154,-2.658913477910053,0.0288156256944525
mp-773295,Li2TiCrO4,0.0,-2.658873002083334,0.0819388827083278
mp-14511,NaAlGeO4,3.7388,-2.658824419523809,0.0
mp-764216,LiV3(OF2)4,1.8348,-2.6586695752825,0.0758997703125006
mp-771208,Ba5(Ga3O7)2,2.7217000000000002,-2.6585325709000007,0.0453281012533315
mp-31890,Li4Fe(PO4)2,3.9187,-2.658348309746032,0.0084750266666757
mp-767084,LiMn3(OF3)2,0.8258999999999991,-2.65834797146,0.0162552639583317
mp-853154,LiNbVO4,0.0,-2.658264268571429,0.0567766729464338
mp-557481,Sr4RhO6,0.0,-2.658244260681818,0.0
mp-541721,Ba3ErRu2O9,0.0,-2.658219007083334,0.0
mp-558243,Ba2InClO3,1.914499999999999,-2.6581987688585715,0.0
mp-769990,Li2TiCrO4,0.0,-2.6581153802083346,0.0826965045833274
mp-849951,Li2Fe4OF8,2.8475,-2.6579992843846667,0.0555198313333358
mp-850989,V2(OF)3,1.7615,-2.6579774715400006,0.018729938541667
mp-675600,Hf6PbO18,0.0,-2.6577588613,0.4084785735999965
mp-864662,HoCl3,3.7011,-2.657755668695,0.0
mp-14039,K2NaRhF6,1.9994,-2.6577254272140003,0.0
mp-765509,LiV(OF)2,2.0856,-2.6577176412300005,0.0710642004166821
mp-5052,TiCdO3,2.4319,-2.6576928100833337,0.0385193919999986
mp-542808,RbGd(WO4)2,3.240199999999999,-2.6576869712499978,0.0
mp-774749,RbNa3Li12Ti4O16,4.3103,-2.6576008747685185,0.0
mp-556506,MnCdF5,0.761,-2.657574890987142,0.004355774523808
mp-763333,Li3V2(O2F)2,0.708399999999999,-2.65752528658,0.1030539934469567
mp-864891,NaPO3,5.1221,-2.6574193323690487,0.0016476071666655
mp-555835,Gd3Sc2(GaO4)3,0.49250000000000005,-2.657415986125,0.691349132625005
mp-973261,Mg2SnO4,1.903399999999999,-2.6573959385714283,0.0280098307142866
mp-763651,LiVP2O7,1.978199999999999,-2.657298861585497,0.0876481534090869
mp-761344,Li2VP2O7,2.588899999999999,-2.657294120620039,0.0503187656770824
mp-562182,ZnSiO3,3.4371,-2.65718946525,0.048858819333331
mp-850486,LiVP2O7,2.5161000000000002,-2.6571838909036787,0.0877631240909062
mp-861574,LiMnNbO4,2.7797,-2.6571799815657147,0.0171108310713989
mp-24217,Sc2P3(HO3)3,4.6108,-2.6571504136115123,0.0
mp-741045,Na4AlP2HO9,4.4207,-2.6571249840329703,0.0
mp-763562,LiVP2O7,0.17749999999999902,-2.6571003781764064,0.0878466368181785
mp-1022965,K3V2(PO4)3,1.7942,-2.657095764714286,0.0503264742343603
mp-764737,Li3V2(O2F)2,0.5607000000000001,-2.6570051913527273,0.1035740886742298
mp-29590,Sn2OF5,1.9099000000000002,-2.6569486721499995,0.0
mp-697749,LiV2(PO4)3,1.4095,-2.6569479019047626,0.0126054751388897
mp-16984,Sr3MgRhO6,0.0,-2.6567463861363647,0.0
mp-766463,Na3GaB4O9,4.3701,-2.6563982792892165,0.0
mp-705334,Li2V(PO3)5,2.1267,-2.656231549748965,0.0384342353623186
mp-18910,BaV4O9,1.0483,-2.656184477232143,0.0152977424107181
mp-540421,Li2MnP2O7,4.1701,-2.6561406592417063,0.0326273392708333
mp-35822,Li4SiO4,5.0854,-2.656107459444444,0.0314825161111116
mp-765678,Li3TiV3O8,1.5090000000000001,-2.655997371444445,0.0494644130833261
mp-764275,V2O3F2,1.5030000000000001,-2.6559854330185706,0.057332403333346
mp-31953,Li2MnP2O7,3.8564,-2.65590607757504,0.0328619209374991
mp-767608,LiVCr(P2O7)2,1.3979,-2.6557889242800456,0.0085175742856886
mp-773753,V2(OF)3,1.477099999999999,-2.655703542164999,0.0210038679166677
mp-767900,Li4Si3NiO9,3.9817,-2.6556960206617646,0.0825700410294185
mp-767629,LiVCr(P2O7)2,1.4875,-2.6555941680895687,0.0087123304761647
mp-765819,Li2VO2F,1.7723,-2.655593721031666,0.0639452120833308
mp-765383,LiV3O5F3,0.7426,-2.655449822068333,0.0863997492129584
mp-35311,ZnCrF6,1.5468,-2.6553872777675,0.0008598187500004
mp-765117,LiVCr(P2O7)2,1.3305999999999991,-2.655371536026077,0.0089349625396577
mp-761309,TiNi(PO4)2,2.2899,-2.655362931349208,0.0188024736805569
mp-8054,NaSc(GeO3)2,3.5523000000000002,-2.655310846750001,0.0
mp-769560,Li2TiV3O8,0.7328999999999991,-2.6551230476190475,0.0795901024999938
mp-763856,Mn3OF6,0.4953,-2.655053490627001,0.0733906017916696
mp-765174,LiVCr(P2O7)2,1.2967,-2.6550234852324257,0.0092830133333361
mp-31899,Ba2MnReO6,0.0,-2.6549899923460005,0.0
mp-558836,MoF6,4.2538,-2.654917222448572,0.0051664382142897
mp-8130,CaGeO3,2.0247,-2.6548606077500008,0.10771110366667
mp-565854,RbNd(WO4)2,3.385899999999999,-2.6548381685416658,0.0
mp-765790,LiV(OF)2,2.4867,-2.6547973141466663,0.0739845275000163
mp-764050,Li3CoOF3,0.1086,-2.6545462249775,0.0636321981250001
mp-558752,Rb2Ca2(SO4)3,5.3971,-2.6544794022203955,0.0
mp-705291,LiCrP2O7,2.8553,-2.654477779767315,0.030051983409093
mp-2879,SrSnO3,1.7365,-2.6544512217500005,0.0
mp-22828,Eu2Ge2O7,0.0,-2.6543227673863643,0.0
mp-9039,Sr4IrO6,0.0,-2.654312434772727,0.0
mp-29880,Sm2SCl4,3.503699999999999,-2.6542297838717857,0.0
mp-558192,NaPO3,5.146199999999999,-2.6540649026190484,0.0050020369166663
mp-23659,Na4Ga3Si3BrO12,4.0513,-2.6540132182608698,0.0
mp-758026,Li4Si4Bi2O13,2.310899999999999,-2.6539178652717403,0.0963941721739134
mp-31964,Li2Mn(PO3)4,4.101,-2.6537519846495248,0.0170340282017171
mp-764728,Li2VO2F,0.0,-2.653610033948332,0.0659288991666642
mp-17288,Li2ZnSiO4,3.7868999999999993,-2.65355141625,0.0
mp-763745,Li2FePO4F,3.6955,-2.653512264781693,0.0379098512500037
mp-764403,LiMn7(OF3)3,1.3932,-2.653309015309,0.0573128039999995
mp-771216,Sr3(AsO4)2,3.3602,-2.653274614230769,0.0634310773076922
mp-780037,LiMn2Si2O7,0.7164,-2.6532586029725,0.0854674820833292
mp-768510,Ba4Sn3O10,1.1901,-2.6532325254411764,0.0062447820588236
mp-3120,Tm2Cu2O5,0.30810000000000004,-2.653199244305556,0.052762115416665
mp-780649,V2O3F,0.7259000000000001,-2.653172740823333,0.0182366175000048
mp-770158,LiMnAlO3,1.8152000000000001,-2.6531555274516663,0.0777001412499984
mp-772362,TiMn3(PO4)4,0.009399999999999001,-2.6531186709136487,0.0211307456770875
mp-25676,BaCoBP2HO9,3.0073,-2.653086513181809,0.0048259806666628
mp-20006,ZnPb2F6,3.922799999999999,-2.6530029919044447,0.0200112572222215
mp-554944,TiSO5,2.104899999999999,-2.6529764852827378,7.4016964273226895e-06
mp-777682,Li2NbV3O8,1.494,-2.6528340189285715,0.0031332194196309
mp-9454,Sr3MgIrO6,0.0,-2.652788092954546,0.0
mp-554311,RbCrF6,1.416399999999999,-2.6527772321425003,0.0
mp-850141,Mn2OF3,0.050899999999999,-2.652749953289999,0.0403908022083339
mp-757794,Li3HfO3,0.0,-2.6526807558928573,0.0849516089285709
mp-698132,Al2Si2H4O9,4.9007000000000005,-2.6526558809252947,0.0207782448529396
mp-863029,ErCl3,3.7739000000000003,-2.652634627445,0.0
mp-720111,Na4Al3Si3ClO16,0.3044,-2.652537432898519,0.0595191889351909
mp-19492,LiMn(PO3)3,4.3259,-2.6524954315354092,0.0008435007142821
mp-619034,ZnSiO3,3.391699999999999,-2.652403455875,0.0536448287083315
mp-1020643,Rb3Zn(BO2)5,4.1752,-2.6523223366228064,0.0
mp-1034839,RbNaMg14O15,1.1056,-2.6522444868951607,0.2425879733467751
mp-11912,NaNd2IrO6,0.0,-2.6520931182500007,0.0
mp-697753,Li3Cr2(PO4)3,2.8872,-2.652068259464284,0.025614864999869
mp-698686,Na3CaFe4(SiO3)8,0.0297,-2.652056435375001,0.2125730881875105
mp-566127,SrFe3(PO4)3,1.4011999999999991,-2.6520411641729327,0.0
mp-764973,LiVP2O7,2.5941,-2.6519934977218607,0.0929535172727238
mp-769458,Li6Ti(BO3)3,0.0257,-2.651963152258772,0.0973090686973661
mp-774297,Li3MnV(PO4)3,0.0,-2.651879865512286,0.0332882960624489
mp-19042,Ca3Mn2O7,0.29900000000000004,-2.6518294033891663,0.0162650497222234
mp-8794,K4UO5,2.1712,-2.651799483124999,0.0
mp-4851,Sr(GaO2)2,3.0697,-2.6517952480357136,0.0
mp-743583,Ca2Fe3Sb(PO4)6,2.1864,-2.6517857842658734,0.0
mp-706550,Mg3Mn3(BO5)2,0.0,-2.651577726317408,0.0147386583333153
mp-4734,NaPO3,4.971,-2.6515457693690485,0.0075211701666662
mp-763888,WOF4,5.0069,-2.6515221020433324,0.0415356306249998
mp-25688,Li2FePO4F,4.0613,-2.651490914365027,0.0399312016666701
mp-531006,CsB9O13,3.1242,-2.651420358858696,0.1175970396569301
mp-704632,Ba2Sm2Fe4O11,0.8254,-2.651395720723684,0.0204744817763318
mp-763401,LiV(PO3)3,2.8372,-2.651386081109695,0.024921050670061
mp-16194,Rb2SiO3,3.4349,-2.6512909338194444,0.0
mp-531778,Mg17(As3O16)2,3.1126,-2.6512630734545453,0.0
mp-675545,TaHg2F6,0.0,-2.6511440791266665,0.1158611854166666
mp-554923,Sr(GaO2)2,2.6751,-2.650959376964285,0.0008358710714304
mp-540276,LiVPO5,1.6961,-2.650713844293154,0.0290545618750117
mp-763347,Li2VO2F,0.345599999999999,-2.650701716448332,0.0688372166666644
mp-559482,Ti2Bi2O7,2.6108000000000002,-2.6506886474621214,0.0439610076136078
mp-19705,SrV4O9,2.4622,-2.6506362147321423,0.0194400441517981
mp-763282,Li4VP2O9,3.4928999999999992,-2.6505680104650304,0.0731481550000197
mp-850152,Li2MnSiO4,2.852099999999999,-2.6503956141825,0.0544833253124998
mp-6455,NaNd(SO4)2,5.5386,-2.6503636233854166,0.0
mp-759433,Li3CuF5,0.5449,-2.6501925889944444,0.0753802316666671
mp-18997,LiMnPO4,3.411499999999999,-2.6501582270078923,0.0
mp-777778,Li2VO2F,1.7347000000000001,-2.6501298489483323,0.0694090841666641
mp-707095,YHSO5,5.4776,-2.650031882991562,0.003113408749976
mp-763982,Li3TiV2O6,0.0,-2.650013285347223,0.0300683647916768
mp-776722,LiFe2OF5,2.1765,-2.649827209503704,0.0622319758641989
mp-567169,BaMo2(PO4)4,2.7048,-2.6496226303209114,0.0076112539130228
mp-32416,V3(P2O7)2,0.0,-2.6496135476133778,0.0216698092124545
mp-7615,Rb3TlF6,3.149899999999999,-2.6495505012140006,0.0201383582500032
mp-2664,TiO,0.0,-2.6495457539583342,0.2711430499999992
mp-764238,WOF4,5.0012,-2.649528655376665,0.0435290772916641
mp-778223,Li4Ti3Mn2Cr3O16,0.41960000000000003,-2.64945389864,0.0399653927678311
mp-757466,Li3Si2BiO7,3.7837,-2.6494121332371803,0.0657336327243589
mp-764495,Li2CrPO4F,2.2296,-2.6493499365872486,0.0675801754629663
mp-763007,Mn2OF3,0.0442,-2.649303339734443,0.0438374157638943
mp-699370,Nb2CoO6,1.288999999999999,-2.649031380833333,0.0509677861111299
mp-762397,Li2V3P5O18,1.0574,-2.6489833158205776,0.0877503376785568
mp-542867,YMn2O5,1.0726,-2.6489348450837493,0.0
mp-635331,Ba2CoC2(O3F)2,3.066,-2.6488649807599995,0.0075838373076919
mp-641917,ZnSiO3,3.336799999999999,-2.6488366335,0.0572116510833353
mp-761573,Li4Mn(PO4)2,4.0977,-2.6488014444766983,0.0640264880000076
mp-28085,KAs2F7,4.7762,-2.6487791160830008,0.0
mp-850961,LiFe2OF5,2.1569,-2.6487695754296303,0.0632896099382733
mp-15599,K2Ca2(SO4)3,5.3165000000000004,-2.648764411036184,0.0024584252631543
mp-12866,SrSnO3,1.6118000000000001,-2.6485680887500003,0.0058831330000002
mp-548658,RbPO3,4.5235,-2.648554847369049,0.049209081499999
mp-34195,BaCO3,4.3419,-2.648192286250002,0.0486434919999947
mp-761431,Ti5Fe7O18,1.363799999999999,-2.6481871071944445,0.0120798828205082
mp-25151,V2P4PbO14,2.042099999999999,-2.647856832851473,0.0
mp-8348,TlSbF6,4.3334,-2.6478300583925,0.0
mp-566691,Cr3B7ClO13,2.7083,-2.6477343077573607,0.0030040114583336
mp-684767,K3P2H(O3F)2,4.9848,-2.6477335892636056,0.0158032164285666
mp-555731,SrGeO3,3.0028,-2.6476066730833328,0.1126841413333332
mp-767296,Li4TiMn3(PO4)4,0.0,-2.6475848825688435,0.0803567722478595
mp-780932,Li2MnSiO4,2.9335,-2.647563385745,0.0573155537499996
mp-697820,BaLaMnInO6,0.0,-2.647454190095999,0.0705820225833324
mp-764219,CrOF,2.313799999999999,-2.6474003741466654,0.0080860005555507
mp-861544,Li2Fe2Si3O10,3.0401,-2.647391139852941,0.0915723232352725
mp-554752,RbLi7(SiO4)2,4.718,-2.6472502780555547,0.0
mp-753653,LiTi2P4H3O16,2.569,-2.647201639675934,0.0567226216346172
mp-767172,Mn2OF3,0.6323000000000001,-2.6471512794566667,0.0459894760416705
mp-28251,Ta2Zn3O8,3.5103,-2.647133076153845,0.0
mp-541720,Ba3DyRu2O9,0.0,-2.647052898861112,0.0
mp-14036,KRb2RhF6,2.1662,-2.647049850714001,0.0
mp-777024,CeNiO3,0.9323,-2.64701842375,0.0764528829999928
mp-780597,V2(OF)3,0.9809,-2.6469512865400007,0.0326262986805554
mp-767328,Li5Fe5Si7O24,2.372999999999999,-2.646899223658538,0.0720977963414375
mp-779214,Mn2OF3,0.0,-2.6468947886233334,0.0462459668750039
mp-674478,BaCO3,4.159499999999999,-2.6467499892500017,0.0500857889999943
mp-861686,Li5Fe5Si7O24,2.5976999999999992,-2.6467189739024386,0.0722780460975363
mp-19291,NaVPO5,1.2667,-2.6467074267931547,0.0
mp-766149,LiV(OF)2,2.764199999999999,-2.6467072724800005,0.0820745691666822
mp-765097,W2OF8,2.5313,-2.646660962797273,0.0398419640151521
mp-777067,Li2MnP2O7,3.141499999999999,-2.6465990709083727,0.0421689276041661
mp-761336,Li3V2(PO4)3,0.0,-2.6465165103392865,0.0923749983750026
mp-863852,Li5Fe5Si7O24,2.3908,-2.646468214634147,0.0725288053658275
mp-755840,Nb2SbO6,0.0,-2.6464376119444446,0.0651381535185091
mp-555120,KGaCuF6,0.0,-2.6464065619044437,0.005009464305556
mp-758281,RbB2P2HO9,5.7824,-2.6463125352929207,0.0
mp-761609,Li2MnV(PO4)2,2.5021,-2.6463054547964617,0.0042055064393897
mp-556023,Nd3S2Cl5,3.1773000000000002,-2.6462645284425,0.0
mp-29144,KTe2F9,4.5077,-2.6462257871424995,0.0
mp-6860,Na3AlP3NO9,4.9929,-2.646214820906806,0.0
mp-775157,Li6MnV3(PO4)6,0.0,-2.6461777193632856,0.0699033503750135
mp-765987,Li3Mn(OF)2,2.4193000000000002,-2.64614068198,0.0234893474999999
mp-721255,Li10Si(PO6)2,5.1063,-2.646133398447619,0.092703904600004
mp-25058,KMoP2O7,3.8588,-2.646070969085497,0.0
mp-554532,K2TeClF5,4.4512,-2.6458673674122224,0.0
mp-559849,Ca(GaO2)2,2.9856000000000003,-2.6458377516071425,0.0027221416666689
mp-762698,LiMn(PO3)3,4.1212,-2.6457011159996933,0.0076378162499892
mp-867875,SmCl3,3.4912,-2.64568316057,0.0
mp-39770,Zr2P3H4NO12,4.2944,-2.6456770614157152,0.0
mp-6765,Li3AlGeO5,3.969199999999999,-2.645674310125,0.0
mp-706657,Al13Si5H18ClO38,4.2833,-2.6456577811455992,0.0225425284888887
mp-774016,Li2NbV3O8,1.1083,-2.6456529514285707,0.0103142869196322
mp-25064,RbMoP2O7,3.8594,-2.6456413145400437,0.0
mp-763559,Li2V(PO4)2,1.3999,-2.645617932014652,0.0557326248076872
mp-777066,Li2MnP2O7,4.0615,-2.6455509279917053,0.0432170705208339
mp-757303,Mg17(As3O16)2,2.5512,-2.645506772181818,0.0057563012727266
mp-9595,NbInO4,3.0227,-2.6454555816666656,0.0
mp-774010,Li2NbV3O8,1.21,-2.645426344642857,0.0105408937053468
mp-3154,Sm3Sb5O12,3.1334,-2.6452793908750007,0.0
mp-559959,Rb2CoF4,0.0,-2.6451340449657144,0.0831692516666615
mp-554441,NaTi2Ga5O12,2.7362,-2.645106043666668,0.0011988289999997
mp-705365,Li2V(PO4)2,1.4738,-2.6448680354761898,0.0564825213461501
mp-32499,BaV3O8,1.8698000000000001,-2.6448274679166666,0.0053563204166664
mp-560550,BaBi2(B2O5)2,3.3497999999999992,-2.6446483980392155,0.0
mp-561446,BaCa(GaO2)4,3.064199999999999,-2.644606171428572,0.0
mp-777210,LiFe2OF5,1.7394999999999992,-2.6445980691333326,0.0674611162345701
mp-781060,Mn2OF3,0.0,-2.644343401539999,0.0487973539583386
mp-779269,LiMnF5,1.3083999999999991,-2.6442953788442862,0.0652141312202436
mp-776173,Ti3Cu2Sb(PO4)6,0.0373,-2.644178588988096,0.0484291862847223
mp-777629,Mn2OF3,0.0,-2.644079034456666,0.0490617210416717
mp-18866,CaV4O9,2.4882,-2.6440646829464285,0.022069750714273
mp-559904,NaLi3SiO4,4.4978,-2.643960620833333,0.0
mp-778657,LiMnF5,2.1629,-2.6438796067014283,0.065629903363102
mp-555644,Al2Tl3(PO4)3,3.4349,-2.6437094005892865,0.0033235853749999
mp-764112,V2(OF)3,1.4706000000000001,-2.643610418415,0.0330969916666674
mp-10070,BaAg(PO3)3,3.1971,-2.643496853788265,0.0
mp-14694,CaCuP2O7,0.6021000000000001,-2.6434522279491346,0.0
mp-608031,NaNpCO5,0.058300000000000005,-2.6433605446875,0.0
mp-775209,Li2MnNb3O8,0.0478,-2.643331658639999,0.1097080466964275
mp-18932,LiPr(WO4)2,3.6337,-2.6432970762500005,0.0
mp-761488,Ti7(Fe3O8)3,1.4133,-2.643283374666667,0.0556887084615382
mp-755047,Ti3N2O3,1.7108,-2.6432808135637496,0.0515070896950007
mp-770168,Li5Mn2(PO4)3,3.8729,-2.643178076645715,0.0497094950000081
mp-505270,TiSO5,2.5707,-2.643147784211309,0.0098361027678555
mp-558690,ZnB4O7,5.374300000000001,-2.642987912118056,0.058446807395831
mp-651178,CsMoP2O7,3.794699999999999,-2.6429757602218604,0.0
mp-706525,NaAl3P2(HO3)4,5.4975,-2.6429042486668406,0.005795643749999
mp-850904,Mn2OF3,0.0,-2.6425950742900004,0.0505456812083373
mp-1005754,SmHSO5,5.5679,-2.6424094786165617,0.0
mp-765726,Mn2OF3,0.0,-2.6423419466233327,0.0507988088750002
mp-565816,Ba4NdMn3O12,0.0,-2.642312957769,0.0196216958125683
mp-773537,Li4Ti3Cr3(WO8)2,0.0,-2.6421387599999995,0.0416261708452392
mp-780907,Mn2OF3,0.30970000000000003,-2.6420815648733327,0.0510591906250006
mp-540378,VP2O7,1.3194,-2.6420609074940464,0.0
mp-776485,NbV3O8,0.36860000000000004,-2.642026810000001,0.0203540601041609
mp-767740,V(PO3)3,2.3138,-2.641965477156594,0.0213968367307675
mp-761304,Li3Fe(BO2)5,3.971999999999999,-2.641935581885964,0.0482398159210539
mp-767613,RbVBP2HO9,2.0693,-2.64188222118181,0.0
mp-540385,Li3Cr2(PO4)3,3.1279,-2.6418187889642843,0.035864335500003
mp-770403,Li4V2(PO4)3,0.20920000000000002,-2.641734088061225,0.0732952764357746