mpid,formula,BG,FE,e_hull
mp-758571,Al11TlO17,4.585100000000001,-3.3233612831465513,0.0
mp-531051,Ca4Nb2O9,2.4215,-3.3232995214166663,0.0224086549999995
mp-555164,Ca5P3ClO12,5.4052,-3.3232567019069386,0.0
mp-769366,Nd3SbO7,2.5869,-3.3228528492045464,0.0
mp-14161,Sr4Al6SO16,4.393499999999999,-3.3227691342245382,0.0045993876851841
mp-770481,Ta9PO25,2.7033,-3.322761926552721,0.0
mp-530194,Ca4Nb2O9,2.4271,-3.3227445640833326,0.0229636123333332
mp-39460,Ca5P3ClO12,5.3781,-3.3224637639307493,0.0007929379761879
mp-770416,Dy2WO6,3.2102,-3.322208496064816,0.001694864861113
mp-17447,Sr10P6SO24,3.543999999999999,-3.3219397466496083,0.0
mp-559378,Ba5Ta2Cl2O9,3.5216,-3.3217175765427767,0.0
mp-15634,Cs2NaTiF6,0.0461,-3.321695990880668,0.0056817086666693
mp-770570,Dy2WO6,3.7745,-3.3213025634259266,0.002600797500003
mp-12797,BaBe2Si2O7,5.5679,-3.3212777923958337,0.0
mp-13630,Rb3NaBe2F8,6.617800000000001,-3.3212027238942863,0.0
mp-6383,BaBe2Si2O7,5.5249,-3.3210361226041663,0.0002416697916673
mp-27576,Sc2GeO5,4.1263,-3.3205747057812496,0.0
mp-695133,CsMg4Al9(SiO4)9,4.044,-3.320534180932204,0.0194646598686425
mp-14384,Ba3Ho(BO3)3,3.8221,-3.3203714013281256,0.0
mp-556715,LiTiMnF6,0.09629999999999901,-3.319346173122222,0.024016284074074
mp-757333,Al12PbO19,4.518599999999999,-3.319216594804688,0.0060587320312501
mp-649595,CaMgSiO4,4.6952,-3.319189687142857,0.0584978510714302
mp-758770,Li2Mg3Ti6O16,3.3131,-3.3190800657407404,0.0145689071296306
mp-15577,Pr4Ga2O9,3.609199999999999,-3.318851853416667,0.0
mp-458,Ti2O3,0.0,-3.318847653416669,0.0
mp-552028,Nd2Ti2S2O5,0.825299999999999,-3.318650603882574,0.0
mp-560186,BaMgSiO4,4.113899999999999,-3.31855636,0.0169654432142873
mp-758324,Ti5Nb2O14,0.0,-3.318159428849208,0.0329145167124504
mp-766548,Li4Ti11O24,2.5241000000000002,-3.3180270659829056,0.0399004993589766
mp-983228,SrEu2Al2O7,0.0,-3.317618758229166,0.0102293906249979
mp-560458,Rb2U2O7,1.6672,-3.3175963607954557,0.0
mp-772523,Ba8LiTa7O24,0.0,-3.3174970375,0.0339455272250361
mp-12645,LiHoO2,4.0322,-3.31748677375,0.0
mp-6074,KRb2TiF6,0.0,-3.317169731380666,0.0
mp-772783,Li2Mg3Ti6O16,3.288,-3.3171204398148144,0.0165285330555562
mp-558349,Ba5P3ClO12,5.0449,-3.3170307944069393,0.0
mp-557613,K2Mn2Be3F12,4.5317,-3.3169215140105264,0.0022194782236839
mp-560358,Zr2P2O9,4.1039,-3.316798112880037,0.0
mp-19205,ErVO3,1.5712000000000002,-3.3165522797500016,0.0
mp-684591,Al2O3,3.343299999999999,-3.3163995764999994,0.1257139242500002
mp-773046,Mg4Sc3(SiO3)8,0.0,-3.3161068041025645,0.0736020514102602
mp-686653,KMg4Al9(SiO4)9,3.9501999999999993,-3.316099271779662,0.0215195638644072
mp-27132,Zr2P2O9,4.1075,-3.3160852271108068,0.0007128857692304
mp-766596,Ti(SiO3)2,3.2748,-3.316029526018519,0.0467227391666629
mp-556137,Li2Ca4Si4O13,4.456,-3.3160003557065227,0.00570747673913
mp-28121,La3ReO8,1.8544999999999991,-3.3159990175,0.0
mp-15590,Sr2Nb2O7,2.752099999999999,-3.3159140513636363,0.0
mp-769285,Ho3ReO8,1.716899999999999,-3.3157471591666656,0.0292572358333345
mp-534793,KCa5Mg5Al(SiO3)12,4.8377,-3.3155730505833327,0.0261486621249993
mp-6875,BaNa2Al4(SiO4)4,4.7346,-3.315510478703703,0.0
mp-761057,Sr5Nb4O15,2.8004000000000002,-3.3152287007812493,0.0
mp-760795,Al10ZnO16,4.241,-3.3151415246296296,0.0211528268518508
mp-771443,Tb2WO6,3.768499999999999,-3.314954249351852,0.0
mp-771428,Tb2WO6,3.6175,-3.314880256296296,7.399305555644276e-05
mp-27169,KTa5O13,3.1482,-3.3148169688815785,0.0
mp-774520,TiAlO3,0.0,-3.3146514670833342,0.065829110000001
mp-772638,Ho2WO6,3.6336,-3.314498903472224,0.015583211527776
mp-39712,NaCaTaTiO6,2.4426,-3.314445355916667,0.0139611386249995
mp-760762,NbOF3,3.6434,-3.3143885364639987,0.0
mp-1019549,BaMg2Si2O7,4.5563,-3.3142781596875004,0.0
mp-3870,Sr2Nb2O7,2.684,-3.314239358977274,0.0016746923863681
mp-757433,NaTi4O8,0.0,-3.314175293974359,0.0235376472435753
mp-756565,Li2Ti7O15,1.482799999999999,-3.3138067718923607,0.0742901838021143
mp-675744,Yb4Zr3O12,0.0,-3.3134803786842113,0.0385759748684186
mp-778634,Tb2WO6,3.2092,-3.3134407185185184,0.0015135308333338
mp-754269,Nd3SbO7,2.7436000000000003,-3.3131468405681828,0.0097060086363498
mp-556356,Na2SrAl4(SiO4)4,4.7044999999999995,-3.313085890555556,0.0
mp-676247,NaYbF4,0.0,-3.312929900793334,0.0
mp-558114,Sr4NbAlO8,2.9538,-3.3127165296428567,0.0
mp-42036,Nd6Al7Si5N3O25,3.379799999999999,-3.312689505073694,0.0367250042391038
mp-555491,ZrCoF6,0.0,-3.3126751621425017,0.0984125021874993
mp-622251,Ba2CaFe2CuF14,0.9529000000000001,-3.3125541505830003,0.0053900660000012
mp-16590,Tb4Si2S3O7,2.606499999999999,-3.312438912610677,0.0053854413281246
mp-559224,Sr3Al2Cl2O5,4.2155,-3.311808734605833,0.0
mp-19024,HoVO3,1.571,-3.3117682472500016,0.0
mp-2605,CaO,3.6344,-3.311713090625,0.0
mp-13627,Y3ReO8,1.6955,-3.311679411666667,0.0
mp-759367,YbNdO2,0.0,-3.3115137587500003,0.0959153474999992
mp-562061,BaDy2MnO5,1.696699999999999,-3.311193014782592,0.0081914773611124
mp-866304,Ba2GdB2ClO6,3.1318,-3.3109345449244465,0.0
mp-557777,K2ScSi4O10F,4.7453,-3.3109201132605555,0.0
mp-6250,BaTm2ZnO5,3.3223,-3.3108032765277784,0.0263199311574053
mp-3857,Ba3(PO4)2,5.1417,-3.3105249381684985,0.0
mp-676278,Ca2SiO4,4.053000000000001,-3.3103341578571435,0.1769982571428574
mp-17357,NaSmSiO4,4.2409,-3.310253007142857,0.0
mp-752449,La2B4O9,4.491899999999999,-3.3101432438611105,0.0080820998666641
mp-674373,Rb2U2O7,1.6448,-3.3100948703409085,0.0075014904545529
mp-16587,Dy4Si2S3O7,2.6106,-3.3100286911002605,0.0130288732031242
mp-759678,Li4Ti15O32,1.9439000000000002,-3.309723730392156,0.0860634620588243
mp-6310,Ba3Y(BO3)3,3.8152999999999992,-3.30955859013021,0.0
mp-19259,Sr4Al6WO16,3.541899999999999,-3.309528525185186,0.0043385624999929
mp-4547,La2TeO2,2.028699999999999,-3.3094609185000015,0.0
mp-766248,Al11InO17,3.720999999999999,-3.3094379160775858,0.0128038316666678
mp-29794,Ba2PdF6,1.678699999999999,-3.309405461348889,0.0
mp-556661,Y2SiCO7,4.7772,-3.309284327840909,0.0
mp-541593,ZrPb2F8,5.2222,-3.308803338592728,0.0199474768181806
mp-754937,LiTi3O6,0.0,-3.3086270447499984,0.0296454987499856
mp-774193,La2WO6,3.654,-3.3086026144444443,0.0
mp-1019527,Ba3Y2(B2O5)3,4.5196,-3.3082250187019233,0.0
mp-13774,NaNdSiO4,4.4774,-3.307715562857143,0.0
mp-6813,KCa10(PO4)7,5.241,-3.30771162536232,0.0
mp-28216,Lu6Ge4O17,3.7402,-3.3076435474537043,0.0
mp-850251,Na2Ti9O19,1.763199999999999,-3.307418433791666,0.0819260745833343
mp-976726,LiDyO2,4.5644,-3.3069673660416665,0.0
mp-16600,Dy2B4O9,5.6211,-3.3064416040833344,0.0184783808333328
mp-561584,Gd2GeO5,3.113,-3.30635463765625,0.0
mp-25144,DyVO3,1.5488,-3.3059694125833348,0.0
mp-556139,BaZr(PO4)2,4.156000000000001,-3.305826506349206,0.0
mp-28940,Sr4Nb2O9,3.645699999999999,-3.3057041294166662,0.0
mp-772340,Tm2WO6,2.8443,-3.305489412222223,0.0446998072222228
mp-623024,TiCdF6,4.3747,-3.305433983600833,0.0
mp-6757,Ho4Si2S3O7,2.6198,-3.305290775683593,0.0217801683854155
mp-677080,K6Ba3Ta12(Si2O13)4,2.798199999999999,-3.305281765370371,0.0036271122222242
mp-768301,Ho2B4O9,5.659700000000001,-3.3052260858611104,0.0307153817777852
mp-9478,BaSi4O9,4.3439,-3.3051871818750014,0.0320500148214275
mp-680689,SrTi2O5,1.8634,-3.305026530885415,0.2452691874999981
mp-14150,Ca4Al6SO16,4.6683,-3.3048216549652785,0.0286138843518521
mp-779571,La3B5O12,3.8196,-3.304819716666666,0.0674909204000009
mp-556906,Na3LiBe2F8,6.9864,-3.3047514755014284,0.0076644493154764
mp-20778,Dy2Be2GeO7,4.4623,-3.304478051423612,0.0
mp-978920,Tb2Be2O5,2.198399999999999,-3.3044284069907417,0.3033988856944445
mp-18515,NaGdSiO4,3.2325,-3.3043548082142857,0.0
mp-772489,Lu2WO6,2.8266,-3.304244240833333,0.0503730400000002
mp-756914,Er2B4O9,5.6886,-3.3042110621944443,0.0217206035833452
mp-552963,Pr2Ti2S2O5,0.841499999999999,-3.303789977064395,0.0
mp-561507,Ca4Al6O13,3.6188000000000002,-3.303749592880435,0.1586707633333333
mp-695214,Ba9La3Mg5Nb7O36,2.3787,-3.3034015330833326,0.0472370668333237
mp-1019746,K2Ca4Si8O21,4.5791,-3.303158279035715,0.0
mp-753800,NbOF3,3.6646,-3.302901071963998,0.0114874645
mp-693620,KCa2Be2Al(Si2O5)6,4.868799999999999,-3.3022966961979168,0.0
mp-707135,Al2Si4O11,4.1738,-3.3019179313970595,0.032853911323528
mp-560226,NaNd(Si3O7)2,4.7954,-3.3017919544318186,0.0
mp-29755,CaSi2O5,4.7791999999999994,-3.301472902656249,0.0933305649999987
mp-579270,Ca4Al6WO16,3.9812,-3.3010875990740733,0.0254929648148145
mp-3751,AlTlF4,4.4298,-3.301048663293334,0.0
mp-541114,Sr2RhF7,1.9751,-3.3008260275830006,0.0
mp-6671,Sm4Si2S3O7,2.5838,-3.300582095996093,0.0
mp-686464,Ca10P6SO24,3.7466,-3.3005599266496084,0.0
mp-6316,Er4Si2S3O7,2.6296,-3.3004565466210947,0.0291957793229151
mp-759812,Li4Ti11O24,2.2962,-3.300372843931625,0.0575547214102574
mp-772090,Li4Ti9O20,3.1247,-3.30028806530303,0.028384333636378
mp-560721,NaCaBeSi2O6F,5.2919,-3.3002474678075004,0.0
mp-7127,Ba2YbTaO6,0.0,-3.2999201607500006,0.0
mp-752891,LiTi3O6,0.0,-3.299877748750002,0.0383947947499834
mp-29791,Nd4PdO7,1.0861,-3.299870943229166,0.0067449900416658
mp-772151,Li2Ti4O9,2.8924,-3.2997846888611115,0.0098718519166656
mp-560620,BaZr(PO4)2,3.8199,-3.2996921688492065,0.0061343374999687
mp-10251,LiDyO2,3.9642999999999993,-3.299473421666667,0.0074939443749997
mp-565331,TbVO3,1.5225,-3.299334907916668,0.0
mp-5606,AlTlF4,4.2492,-3.299260766626666,0.0017878966666673
mp-15281,Sm3ReO7,0.0,-3.2992323237500014,0.0491494648106112
mp-560119,TbCl2F,4.8595999999999995,-3.299167314010833,0.004334387500001
mp-690559,NaLa2Ti2MnO9,0.0079,-3.2989863470362213,0.0289803663333536
mp-5788,NaUO3,0.43100000000000005,-3.2986186617500004,0.0
mp-8682,Ca2SiO4,4.3558,-3.2985840307142853,0.1887483842857147
mp-5156,ThP2O7,5.389299999999999,-3.2985150862440475,0.0
mp-557126,NaPr(Si3O7)2,4.789,-3.298386282045455,0.0
mp-1019714,CsCa10(PO4)7,5.2034,-3.298258766884058,0.0
mp-3575,Ca3(BO3)2,4.8224,-3.298153465075758,0.0
mp-16591,Tm4Si2S3O7,2.6506,-3.2980904130273436,0.0413879136718744
mp-3487,Ca3(PO4)2,5.4611,-3.2980567258608056,0.0377994238461543
mp-772781,Lu2B4O9,5.780299999999999,-3.2979229281944447,0.0403250370416632
mp-505228,Sr5Nb5O17,0.0,-3.2975195506018533,0.0
mp-561123,U2AuF11,0.0,-3.2970662012921426,0.2250407224999948
mp-703273,KBaLiZnF6,4.9936,-3.296871418214,0.0102970309999976
mp-6054,Ba5Tm8Zn4O21,3.359,-3.296864516480264,0.0163835251973685
mp-560909,NaLiYb2F8,0.0,-3.2967701191266667,0.035509640208331
mp-6495,BaEr2ZnO5,3.3171,-3.2960655529166663,0.0219274717129618
mp-14972,Ba3Sc(BO3)3,3.474199999999999,-3.2959317080989585,0.0
mp-757031,Mg2TiO4,3.3894,-3.2959232055952383,0.0
mp-13971,Nd2SeO2,2.1457,-3.2956412132187514,0.0
mp-7423,Sm3ReO8,1.7634,-3.2955690852083332,0.0
mp-561133,Sr5Nb4O15,2.5561000000000003,-3.295490120156249,0.0197385806249954
mp-554495,CaZr(PO4)2,4.330299999999999,-3.2954599734325405,0.0
mp-24802,Sr2Al3Si3HO13,4.9047,-3.2954522259031815,0.0007227180218842
mp-769394,Ba4Ta2O9,3.5999,-3.29520812875,0.0391871409999993
mp-530905,Ba23U8O48,0.0,-3.295146955696202,0.0282556225316481
mp-557176,Ba5B4(O5F)2,4.5127,-3.295097497692697,0.0062982023809503
mp-548479,Cs2U2O7,1.497599999999999,-3.2949237744318185,0.0
mp-766828,Li4Ti15O32,2.0055,-3.2947836298039204,0.1010035626470298
mp-23915,Ca2Al3Si3HO13,5.036199999999999,-3.2939796159031816,0.0158385547159074
mp-777047,LiTmO2,4.6182,-3.2937594406249997,0.0700549175000002
mp-770617,La4FeO8,1.0986,-3.2934244023076933,0.0775292382211478
mp-21580,EuSnF7,0.010199999999999002,-3.2932875573144447,0.0
mp-9468,KCa9Mg(PO4)7,5.2794,-3.293117599166667,0.0
mp-767245,Sr2VCO3F5,2.4119,-3.2929407649750004,0.0
mp-554912,BaMnFeF7,2.1283,-3.2924937476790017,0.0077188352499861
mp-1020598,Y4Si2S3O7,2.461,-3.292306342714843,0.0144867594270845
mp-510013,Pr3MoO7,0.0158,-3.2919942757954543,0.0
mp-676665,Ba4Ta2TiZnO12,2.2354,-3.291986837333333,0.0
mp-695506,Na3Ca7Ti7Nb3O30,1.180499999999999,-3.291827857983333,0.0649851156750003
mp-770873,Ho2WO6,2.8638999999999992,-3.291629619444445,0.0384524955555551
mp-677246,Ba6Ti2Nb10Si8O51,2.6809,-3.291469979962121,0.000922893175506
mp-4973,CeSF,0.0,-3.2914283234175006,0.0
mp-768280,Sm2B4O9,5.402000000000001,-3.2914143205277773,0.0106589242083341
mp-9515,Al2SiO5,5.544199999999999,-3.2912664301562486,0.0998217146875006
mp-16137,K4CaU3O12,2.1025,-3.29110679625,0.0
mp-9467,NaCa9Mg(PO4)7,5.1503,-3.2910962805797115,0.0
mp-579552,La2CO5,3.932999999999999,-3.2910959129687485,0.0
mp-555349,La2CO5,3.9487,-3.290956634218749,0.0001392787500034
mp-770731,LiZr2O4,0.0,-3.2908596110714288,0.0781543351428553
mp-14835,Nd4Si2S3O7,2.5812999999999993,-3.2906187459960936,0.0
mp-779849,La2WO6,3.6137,-3.290493267083334,0.0181093473611149
mp-850556,La3Nb8O24,0.0,-3.290304113428572,0.0255231381529341
mp-684897,Ta2O5,3.0717,-3.2902769123214264,0.0646687085714301
mp-22499,EuSnF7,0.0378,-3.2900755537033333,0.0032120036111118
mp-5857,MgAl2O4,4.9766,-3.2899253157142856,0.098900119285715
mp-3318,Na2BeF4,6.6745,-3.2891765246085716,0.0
mp-9637,K3NpO2F5,0.2862,-3.288828057699998,0.0
mp-6738,Al6B5(O5F)3,6.114699999999999,-3.288628968298391,0.0
mp-677628,Mg2TiO4,3.2878,-3.28824684404762,0.0076763615476167
mp-782639,Dy2WO6,2.914399999999999,-3.2877063581481485,0.0361970027777811
mp-541040,Y2Be2GeO7,4.540100000000001,-3.287610376979168,0.0
mp-695409,Ba7Na3Ti7Nb3O30,1.113999999999999,-3.287340356783332,0.0260037588500008
mp-6501,BaHo2ZnO5,3.0589,-3.287213547916666,0.018800184351849
mp-22530,LaYbO3,0.0,-3.2872082877500004,0.1151773988749997
mp-23141,Sr5P3BrO12,4.9315,-3.287009709727891,0.0
mp-557291,BaCoF4,2.9911,-3.286872995793334,0.0
mp-676979,Mg2TiO4,3.267,-3.2866650286309524,0.0092581769642841
mp-7137,LiTbO2,4.5467,-3.2864912920833333,0.0
mp-21599,Eu2Si2O7,0.0,-3.286413649204545,0.0
mp-674492,Na2U2O7,1.583199999999999,-3.2863453967045464,0.0
mp-761869,Sr3Li3La5O12,3.0223,-3.286291774130436,0.0376236428260865
mp-3855,Na2BeF4,6.7369,-3.28604670818,0.0031298164285713
mp-5448,Pr3SbO7,2.7215000000000003,-3.2859170630681827,0.0
mp-3563,Ba5Nb4O15,2.5991,-3.2857507991145813,0.0
mp-676382,Yb2Zr2O7,0.0,-3.2857349935227287,0.1319345589772727
mp-867966,Eu2SiO5,0.0,-3.2853743848437498,0.0
mp-19926,La2Be2GeO7,4.114299999999999,-3.285242984479167,0.0
mp-753769,Sr3Li3La5O12,2.9474,-3.2849946241304337,0.0389207928260875
mp-781015,La2WO6,3.1375,-3.2847473909722233,0.0238552234722249
mp-559246,BaCrF6,0.0,-3.2846139646425003,0.0
mp-17516,Ca10P6SeO24,3.747499999999999,-3.2844096333454926,0.0
mp-6030,Be3Al2(SiO3)6,5.3195000000000014,-3.2837297816379314,0.0
mp-27377,K4Zr5O12,3.186499999999999,-3.283600833095239,0.0
mp-754678,BaTaO3,0.0,-3.28346793075,0.0353196952000001
mp-558625,SrZr(PO4)2,4.1079,-3.283323325099206,0.0142640335000017
mp-6416,Ba5Er8Zn4O21,3.3617999999999992,-3.2827676454276324,0.0123570649342115
mp-9516,Al2SiO5,5.462099999999999,-3.28257315328125,0.1085149915624992
mp-540868,Ca3Si(ClO2)2,4.3804,-3.2824257736520015,0.0
mp-769842,LiLa4FeO8,0.6408,-3.2823912592857147,0.0865403453571698
mp-756722,YbPrO2,0.0,-3.2822270981249995,0.104786772083333
mp-30137,Gd3ReO8,1.621999999999999,-3.2821532266666686,0.0
mp-19145,Ca4Al6WO16,3.891499999999999,-3.2820168303703707,0.0445637335185171
mp-6945,SiO2,5.5482000000000005,-3.2817669666666665,0.0029459408333334
mp-6474,Ba3MgNb2O9,2.6479999999999992,-3.28168336875,0.0
mp-16159,Pr4Si2S3O7,2.5915,-3.281525569902344,0.0
mp-733790,SiO2,5.593,-3.2815040773611117,0.0032088301388881
mp-773186,Tb2WO6,2.919399999999999,-3.2814618099074075,0.0334924394444442
mp-554089,SiO2,5.660399999999999,-3.2813972783333334,0.003315629166666
mp-557689,CaAl2B2O7,4.8231,-3.281244815173612,0.0
mp-753785,NbOF3,3.2629,-3.2809133549639986,0.0334751815000009
mp-556870,MgAl2O4,4.8621,-3.2807815085714287,0.1080439264285715
mp-684677,Al2O3,3.9762999999999993,-3.2807458905000004,0.1613676102500001
mp-556986,Er2B2Cl2O5,5.0806000000000004,-3.2806458526003026,0.0
mp-557072,Ba3TiNb4O15,2.4151,-3.280585789365942,0.0151397535507218
mp-985590,SiO2,5.515899999999999,-3.2804715008333325,0.0042414066666669
mp-18883,YVO3,1.5639,-3.2802082022500016,0.0
mp-752546,LiTi4O8,0.0,-3.2802023251282035,0.0997375499999932
mp-673247,Y2O3,0.0,-3.2801690287500014,0.7084410289999994
mp-707027,CaScSi3HO9,5.0957,-3.2801170376580013,0.0013541704722204
mp-19350,LaVO3,0.9979999999999991,-3.2801095447500015,0.0
mp-753153,Dy2CO5,4.4368,-3.2800987052604165,0.0
mp-542814,SiO2,5.5103,-3.280070626805556,0.0046422806944441
mp-558669,SrAl2B2O7,4.686,-3.280023282673611,0.0
mp-8059,SiO2,5.5887,-3.2798173875,0.0048955199999998
mp-16990,Ba10P6SO24,3.188,-3.279718199576437,0.0
mp-989195,ScClO,3.922799999999999,-3.279666839836667,0.0727010781944441
mp-530141,Li7Ti16O32,0.0,-3.2794785221212117,0.009550811272712
mp-560308,BaZr4(PO4)6,4.3446,-3.2794393896734704,0.0
mp-772579,La2WO6,3.492199999999999,-3.279371821111112,0.0292307933333368
mp-557264,SiO2,5.4327,-3.2792218881249995,0.0054910193750004
mp-1019774,K2CeAl(SiO3)4,0.27090000000000003,-3.2790714326250003,0.0
mp-15939,SrAl2B2O7,4.6511000000000005,-3.2790588193402783,0.0009644633333323
mp-754671,YScO2,0.0,-3.27905349375,0.043841008489581
mp-554151,SiO2,5.725199999999999,-3.2790074133333333,0.0057054941666656
mp-1019580,CaMg(SiO3)2,4.5994,-3.2787498160000004,0.0821696367499997
mp-768254,Gd3AsO7,2.2214,-3.2784213387499985,0.035021393863639
mp-691117,SrLaTiMnO6,0.0,-3.278266487262665,0.016885077999964
mp-555580,SrZr4(PO4)6,4.3718,-3.2782327348163265,0.0
mp-565850,La2WO6,3.5606,-3.2780018712500003,0.0306007431944479
mp-756639,Li2NbOF5,3.6859,-3.277849417651851,0.0098969496759266
mp-21020,Sr2UO4,0.0,-3.277840525,0.1432841921428576
mp-557227,KCa12Si4S2O26F,4.2813,-3.2778216340611963,0.0008390385054344
mp-6643,BaDy2ZnO5,3.0569,-3.2777317146759266,0.0154897310185155
mp-531820,Li4Ti7O16,2.8296,-3.2774914528395067,0.0089234835185418
mp-16964,SiO2,5.6779,-3.277066843611112,0.0076460638888882
mp-556654,SiO2,5.6055,-3.2769871161111115,0.0077257913888875
mp-651707,SiO2,5.696,-3.2768921810714287,0.0078207264285694
mp-557933,SiO2,5.5245,-3.27678881,0.0079240975000001
mp-767398,Gd3AsO7,2.0907,-3.2767503717045448,0.0366923609090914
mp-559550,SiO2,5.6097,-3.276630126388889,0.0080827811111099
mp-556454,SiO2,5.5651,-3.2764894881249997,0.0082234193749997
mp-558115,SiO2,5.6222,-3.2762671412500013,0.0084457662499985
mp-555700,SiO2,5.484,-3.2761340479166656,0.0085788595833342
mp-639512,SiO2,5.6163,-3.276089967789856,0.0086229397101433
mp-558947,SiO2,5.6495,-3.276021493472223,0.0086914140277762
mp-554258,SiO2,5.4489,-3.2759751772916665,0.0087377302083329
mp-16055,KLi3Zr2(Si2O5)6,5.1525,-3.2758730021354165,0.0
mp-600003,SiO2,5.4596,-3.2758400347916656,0.0088728727083342
mp-684745,CsTiNb(O2F)2,2.4272,-3.275740462116298,0.0186587624107224
mp-771193,Ba3Y2O6,2.5398,-3.275691828863637,0.0921717056818138
mp-27539,La2ReO5,1.011199999999999,-3.275566534531249,0.0
mp-555556,SiO2,5.6138,-3.275486431458333,0.0092264760416664
mp-559360,SiO2,5.664199999999999,-3.2753605165277784,0.0093523909722215
mp-33297,Mg2TiO4,2.5837,-3.2752470995238085,0.0206761060714271
mp-6607,Ca5Si2SO12,4.4382,-3.2751968478281244,0.0041834131250011
mp-662706,SiO2,5.5366,-3.275184735595239,0.0095281719047601
mp-560708,SiO2,5.6266,-3.275130348928573,0.0095825585714273
mp-14416,Sm2Be2GeO7,4.4201999999999995,-3.275125067395834,0.0
mp-31369,Gd2B4O9,2.8237,-3.2750546988611102,0.0
mp-4790,ThGeO4,3.8957,-3.274979519166667,0.0
mp-555521,SiO2,5.5742,-3.2749143504166667,0.0097985570833323
mp-985570,SiO2,5.599,-3.274873227083333,0.0098396804166664
mp-554682,SiO2,5.7065,-3.274751873819445,0.009961033680554
mp-560527,SiO2,5.3907,-3.27468426125,0.0100286462499994
mp-776082,Ti3NbO8,0.0,-3.2746646341666668,0.0973789407692287
mp-770889,La2WO6,3.2227,-3.274581368611112,0.0340212458333368
mp-639463,SiO2,5.3927,-3.2744621802777787,0.0102507272222229
mp-12787,SiO2,5.6211,-3.274346759166667,0.0103661483333326
mp-6795,Ba5Ho8Zn4O21,3.3644,-3.2742384680592114,0.0095374390131581
mp-8602,SiO2,5.5296,-3.2741998393627454,0.0105130681372536
mp-560809,SiO2,5.4481,-3.274113622361112,0.0105992851388894
mp-559617,HfB2O5,4.411,-3.2739059352604163,0.0
mp-560998,SiO2,5.5774,-3.2738982984259266,0.010814609074071
mp-530546,SiO2,5.5611999999999995,-3.2738889094753088,0.0108239980246906
mp-555211,SiO2,5.6207,-3.2738700424999987,0.0108428650000007