mpid,formula,BG,FE,e_hull
mp-756117,Li2TiTeO6,2.3234,-2.433413817416666,0.0
mp-778728,Li2MnVP2(HO5)2,0.46629999999999905,-2.433325882605025,0.020104968472209
mp-19188,Ba3Mn2O8,1.5797,-2.433325613224615,0.0
mp-772123,Li4Nb2Cr3Fe3O16,1.7983,-2.433253109642856,0.0088209629464266
mp-753009,Li2AgF3,1.7102,-2.4332445547616666,0.0866222100000007
mp-560028,UTe6(OF5)6,2.2523,-2.4331868921674418,0.0
mp-776798,Li2MnVP2(HO5)2,0.5434999999999991,-2.433160135753176,0.0202707153240595
mp-774355,Li3Co2(SiO4)2,0.5406999999999991,-2.4331309230000007,0.0626399878333012
mp-1146,ThS2,1.0319,-2.4330477968750004,0.0
mp-853226,Mn2CrFe3(PO4)6,0.0,-2.4329470036247622,0.033885280763906
mp-743881,K2V3P4H4O19,1.9763,-2.4328181372065916,0.0
mp-975577,K3La(AsO4)2,3.857,-2.4327564671428563,0.0
mp-757547,Li2Sn3(P2O7)2,3.0831,-2.4327541736904768,0.0591423743478127
mp-25666,Li3MnPCO7,3.6835,-2.4327418711773268,0.0510114973076811
mp-646633,V2Ni(PO5)2,1.7194,-2.4327278912460315,0.0074652096666518
mp-767985,Li2NiP2O7,4.169,-2.43270830499504,0.0444509120833247
mp-850875,Fe2OF3,1.341,-2.4326933737200003,0.0765655279166743
mp-776688,V2O3,1.2369,-2.4326923082499987,0.097911475750001
mp-769652,Li2VCrO4,1.5322,-2.43254353875,0.0129029775000004
mp-17771,NaMg4(AsO4)3,3.192199999999999,-2.43254316775,0.0
mp-673134,LiSn2P3O10,2.898,-2.432524240111608,0.0582933663020766
mp-773562,Fe2OF3,1.406599999999999,-2.432506217886667,0.0767526837500067
mp-777091,Li2MnVP2(HO5)2,0.512099999999999,-2.4324888763087307,0.0209419747685046
mp-9499,Sm2C(NO)2,3.8823,-2.432439888537143,0.0
mp-556163,Zn2SiO4,2.6857,-2.432349258571428,0.0256999019047592
mp-770843,VCrO3,1.246399999999999,-2.4322106982500005,0.0078787306249967
mp-777212,Li2MnVP2(HO5)2,0.2936,-2.432190580105027,0.0212402709722079
mp-768065,VCrO3,1.260499999999999,-2.432153897249999,0.007935531624998
mp-998609,CsNaF3,0.0175,-2.432129012214,0.0
mp-764057,VO2F,1.6388,-2.432007459255832,0.0481416172916686
mp-28969,Pr2NCl3,3.3932,-2.43190248536,0.0
mp-764402,MnFe(PO4)2,0.7685000000000001,-2.4318998147625392,0.0109253795833534
mp-851037,Mn6O5F7,0.0,-2.4318834275188883,0.0651302686805683
mp-557589,TlZn(PO3)3,4.5196,-2.431861248073981,0.0
mp-540489,LiCoPO4,3.138,-2.4318445725850344,0.0025072330357165
mp-768738,Li3Bi(BO3)2,2.9149,-2.431785153402778,0.0465318595833332
mp-13771,Sc2Cd3(GeO4)3,2.3032,-2.4317398935000005,0.0
mp-780128,Fe2OF3,1.3111,-2.431684341636667,0.0775745600000075
mp-776006,VCo(PO4)2,0.0,-2.431683265099206,0.0436133254166843
mp-763194,LiMn2(BO3)2,0.5031,-2.4316426129775763,0.0804345538636308
mp-850175,Li2MnVP2(HO5)2,0.4617,-2.431641835382804,0.0217890156944315
mp-779186,Li3Co2(SiO4)2,0.022000000000000002,-2.4315166120000007,0.0642542988333012
mp-19640,SmTl(MoO4)2,3.534399999999999,-2.4314518860416663,0.0100483727083364
mp-777149,Li2MnVP2(HO5)2,0.49140000000000006,-2.4314321274198414,0.0219987236573935
mp-634767,RbMnH2OF4,1.6821,-2.4313919485233333,0.0087993311111063
mp-771562,Li4TiCr5O12,0.060599999999999,-2.431361100530303,0.0859903614899035
mp-540011,Li2Ni(PO3)5,0.0,-2.4312604938794,0.0445332505706668
mp-849682,Li2MnVP2(HO5)2,0.0,-2.431259859456879,0.0221709916203565
mp-677041,ZrCuF3,0.46280000000000004,-2.431252968714,0.6178546101805553
mp-761677,LiCoPO4,3.2239,-2.431101010442177,0.0032507951785731
mp-767666,Li12Mn3VP4(CO7)4,2.6856,-2.4309454988511723,0.0595643551622577
mp-31585,LiCoPO4,0.742499999999999,-2.4309001204421783,0.0034516851785726
mp-768812,LiBiB2O5,3.0193,-2.430825163564815,0.0733036451388864
mp-860461,Li2VCrO4,1.319,-2.4308052722916664,0.0146412439583327
mp-769939,LiMnBO3,2.5814,-2.43080213689611,0.0967152711111145
mp-850898,LiMn2(BO3)2,0.022599999999999003,-2.4307080820684837,0.0813690847727226
mp-768776,LiBiB2O5,3.5923,-2.4306946207870377,0.0734341879166633
mp-689963,CrPO4,2.0446,-2.4305840263492065,0.1712871966666664
mp-18680,Tm8S11,0.0,-2.4305590002467112,0.001181738881578
mp-776644,Ti3Mn3(SnO8)2,1.204,-2.430475908036666,0.0992627827083385
mp-32640,La5S8,0.0,-2.4304075501923084,0.0950440474038423
mp-627151,Zr(MoO4)2,3.105,-2.430407272727273,0.1124900218181874
mp-18792,Ca3(CoO3)2,0.0,-2.430348312045456,0.003622359318169
mp-778033,Mn6O5F7,0.0,-2.4303478858522216,0.0666658103472341
mp-765595,Sn(PO3)3,0.0,-2.4302866202335176,0.0719118608653701
mp-21767,Si2Pb3O7,2.6294,-2.4302447723958327,0.0
mp-546757,Sn3PO4F3,3.7868,-2.430228799696841,0.0
mp-861720,Li3VPCO7,2.5652,-2.430202132257325,0.0805771783413433
mp-764401,MnFe(PO4)2,0.8949,-2.43018892976254,0.0126362645833513
mp-14921,Zn4B6SeO12,1.8571,-2.430111185808424,0.0
mp-705344,CdFeSn(PO4)3,2.5692,-2.4300964549603177,0.0
mp-763832,Li3MnPCO7,3.7331,-2.430051372715788,0.0537019957692193
mp-761812,LiCoPO4,3.1546,-2.4300478357993205,0.0043039698214304
mp-773263,MnFe(PO4)2,0.7701,-2.429953238929206,0.0128719554166547
mp-733468,K2PHO4,4.5325,-2.4299484850060717,0.0
mp-36508,SnHgF6,2.4352,-2.4299216002675004,0.0
mp-19490,PrTl(MoO4)2,3.4692,-2.429851080416667,0.0
mp-34680,SrNd5S8,0.0,-2.4298267657142865,0.0215280885714257
mp-5046,BeSO4,6.9502,-2.4297438573437504,0.0
mp-770290,Li3B2SbO6,2.8223000000000003,-2.4297401248611106,0.0658396977083359
mp-767833,MnFe(PO4)2,0.38429999999999903,-2.4297260557347617,0.0130991386111301
mp-771765,Li4NbCr5O12,0.9773000000000001,-2.4296076006818184,0.0774137811363679
mp-780198,LiMn2(BO3)2,0.006799999999999,-2.4295008116139383,0.0825763552272693
mp-780805,Fe5(OF4)2,1.166399999999999,-2.429499705801334,0.1254741870000035
mp-765953,Li2MnO2F,0.0,-2.429401638275,0.0698116683333296
mp-770808,LiB2SbO5,2.8864,-2.4293953296759248,0.0971518994444453
mp-850750,LiV2P4(HO8)2,1.090799999999999,-2.429319788984837,0.0510585252000064
mp-779307,Li3Fe(BO3)2,2.5133,-2.429303361319445,0.0967898887499947
mp-541666,KMnH2OF4,1.497599999999999,-2.429244788801112,0.0135551638888884
mp-781375,Fe5O3F7,1.2456,-2.429217006472,0.0343269039999993
mp-706367,KCaP3H4O11,5.2022,-2.429201775250786,0.0418412688750011
mp-761997,Li2CrNi(PO4)2,1.7405,-2.429123666870748,0.0566457631250116
mp-761736,LiCoPO4,3.153,-2.4290872565136064,0.0052645491071441
mp-743566,MnFe2Sb2(PO4)6,2.6785,-2.4290691091294696,0.0
mp-765078,LiVCrP2(HO5)2,1.406,-2.429054563290028,0.0003871841176463
mp-3748,AlCuO2,1.8022999999999991,-2.4290188156249988,0.0
mp-715035,VO2,0.7988000000000001,-2.42900928875,0.0552649454166633
mp-762252,Li4V7O12,0.9192999999999991,-2.428962361086958,0.0359326260144943
mp-765109,LiVCrP2(HO5)2,1.254199999999999,-2.428884549907675,0.0005571974999991
mp-849754,Li2Cu(PO3)4,0.17850000000000002,-2.4288730901253133,0.0674864418859746
mp-765072,LiVCrP2(HO5)2,1.2776,-2.428837403093949,0.0006043443137242
mp-1019741,HeSiO2,6.4897,-2.428799285625,0.0347353949999993
mp-767236,LiFe2(PO4)2,1.2584,-2.4287405735531142,0.0668911947115136
mp-773395,Mn5Sb(PO4)6,0.0,-2.428618199399206,0.0386239770717598
mp-3098,AlCuO2,1.8148,-2.428611514375,0.0004073012499992
mp-558798,BiPO4,3.6895000000000002,-2.4285978188492066,0.0
mp-697816,Li2Fe(PO4)2,0.0,-2.4285944345146526,0.0812332424038428
mp-765067,LiVCrP2(HO5)2,1.3166,-2.428583008584145,0.0008587388235286
mp-769590,Li2V3CrO8,0.9900000000000001,-2.4285731803571418,0.059507591086275
mp-779883,LiV2P4(HO8)2,0.986699999999999,-2.4285006255848383,0.0518776886000056
mp-767093,LiFe2(PO4)2,2.1484,-2.4284125954761917,0.0672191727884365
mp-698627,Ti5Fe11O24,1.119599999999999,-2.428315789333334,0.0384257351153767
mp-767192,Sn(PO3)2,3.0537,-2.4282908690211635,0.0217841887500078
mp-763998,Mn6O5F7,0.0,-2.428272110574445,0.0687415856250117
mp-767879,Li3VPCO7,2.5534,-2.428242348795787,0.0825369618028819
mp-558681,PClOF2,5.4542,-2.428202433247048,0.0
mp-780479,LiV2P4(HO8)2,1.1173,-2.4281269179848386,0.0522513962000052
mp-781065,Fe2OF3,1.2831,-2.428067939136667,0.0811909625000071
mp-765123,LiVCrP2(HO5)2,1.4381,-2.428019130348852,0.0014226170588225
mp-12022,HgB4O7,1.795699999999999,-2.4279490258680565,0.0717824718750002
mp-780628,Na6Cr2B4PO16,0.0,-2.427911775336617,0.0864104663731479
mp-782691,LiFe5(OF2)4,1.6634,-2.427906886362223,0.0684646792283922
mp-770734,Mg3(AsO4)2,3.0162,-2.4278811967307683,0.0426538467307704
mp-22604,InAsF6,3.3845,-2.4278279027675,0.250408711875
mp-540111,FePO4,2.7434,-2.4278217059325407,0.0
mp-604498,NdTl(MoO4)2,3.5665,-2.427806505208332,0.0
mp-758651,Li3Sb3(PO4)4,3.6363,-2.4277602066941384,0.0667998741666666
mp-560412,GdP4H4NO12,3.4734,-2.4277201822382257,0.0048023663068406
mp-755298,Li4NbO4,0.0,-2.427714884999999,0.082623366666664
mp-764338,FePO4,2.7823,-2.4276615138492073,0.0001601920833333
mp-31541,LiCoPO4,2.9248000000000003,-2.4276569109183668,0.0066948947023837
mp-779938,LiV2P4(HO8)2,1.082299999999999,-2.4276505245848377,0.0527277896000066
mp-849542,Li2MnVP2(HO5)2,0.5762,-2.4276314942716932,0.0257993568055416
mp-850962,LiFe2(SiO4)2,0.005599999999999001,-2.4275957894871807,0.1049943348878175
mp-767729,Li12V3CrP4(CO7)4,1.9742000000000002,-2.4275709337957867,0.0745050734254819
mp-761727,LiCoPO4,3.1147,-2.4274571286564632,0.0068946769642881
mp-771028,Li3SiBiBO7,0.0,-2.4274041938782056,0.0959779067628137
mp-781070,LiV2P4(HO8)2,0.9447000000000001,-2.427335505584838,0.0530428086000025
mp-770538,Mn2PO5,0.7572999999999991,-2.4273271017206546,0.0053399890625076
mp-779946,Fe3OF5,1.438,-2.4272962980222217,0.1581542555555604
mp-777090,LiV2P4(HO8)2,0.9558000000000001,-2.4272251791848385,0.0531531350000058
mp-1033557,RbMg6BO8,1.686599999999999,-2.4271966516666663,0.5312775128124994
mp-510587,Fe2SiO4,2.6766,-2.4271654357142856,0.0
mp-567109,Mn2Fe3(SiO4)3,0.0,-2.427103552221,0.1211930476874947
mp-684708,Er2S3,1.971899999999999,-2.4270276486875004,0.0408794394166651
mp-761422,VFe3Sb2(PO4)6,0.0,-2.427005544126984,0.0321614565972225
mp-783905,NaV2O4,0.9135999999999991,-2.426966771428571,0.0190513221071508
mp-780471,LiV2P4(HO8)2,1.17,-2.4269354701848385,0.0534428440000018
mp-769653,Li2TiFe2O5,1.474,-2.4268162247916667,0.0382794850000012
mp-9890,TaAgO3,1.9156,-2.426781986750001,0.020526138500001
mp-707453,K5NaP3(HO4)3,4.6396999999999995,-2.4267595922977385,0.0
mp-767102,Li2MnO2F,0.8420999999999991,-2.4266932707750004,0.0725200358333291
mp-765112,LiVCrP2(HO5)2,1.1987,-2.42665821417238,0.0027835332352941
mp-565765,MgV2PbO7,2.5094,-2.426636132727272,0.0
mp-770913,Cr2PO5,1.1185,-2.4266257017931547,0.0523266192708327
mp-689979,LiFeP2O7,1.2115,-2.4266230159036803,0.1609425000000834
mp-25686,LaCrHO5,2.5218,-2.4265765909212496,0.0
mp-565905,Ba3Fe2Br2O5,2.3991000000000002,-2.4264580809375005,0.0
mp-762381,Li4V11O22,0.864599999999999,-2.426377096148648,0.0874574136035981
mp-758269,Ba8In6O17,0.728499999999999,-2.426342771008065,0.0722380050000017
mp-772265,MnPO4,0.9055000000000001,-2.42613088984254,0.0316977929166757
mp-762856,Li2Fe(PO4)2,0.0,-2.426107988937729,0.083719687980766
mp-769322,MgSO3,4.8986,-2.425994992312499,0.0455778898804437
mp-781067,Li6MnFe5(BO3)6,2.8379,-2.4259631763461127,0.004777964629631
mp-774324,Li6MnFe5(BO3)6,2.8479,-2.4258523403738903,0.0048888006018534
mp-768556,Na3BSbPO7,3.5102,-2.4258290210393767,0.0457302427129127
mp-769660,Li2TiFe2O5,1.636399999999999,-2.425824149791668,0.0392715600000039
mp-774349,Li6MnFe5(BO3)6,2.835599999999999,-2.4258086553738902,0.0049324856018539
mp-767880,Li3MnPCO7,3.4721,-2.425796253100404,0.0579571153846041
mp-763997,Mn6O5F7,0.2615,-2.4257962402966657,0.0712174559027749
mp-779877,Li6MnFe5(BO3)6,2.7977,-2.4257861862072216,0.0049549547685217
mp-779213,Li6MnFe5(BO3)6,2.8451999999999993,-2.425738255651668,0.0050028853240764
mp-777204,Li4Ti3V2Ni3O16,1.6363,-2.4257360578571427,0.0686735989583313
mp-779784,Li6MnFe5(BO3)6,2.8636,-2.425718277735001,0.0050228632407423
mp-19109,FePO4,2.7015000000000002,-2.425696427738096,0.0021252781944447
mp-617180,Cs2V5O13,1.5096,-2.4256419448125017,0.0
mp-770041,Li3VCr2O6,1.874,-2.425592366458333,0.0052364452083324
mp-770219,NbAsO4,2.6353,-2.4255844241666664,0.0391279741666306
mp-774466,CoP6(WO8)3,0.0,-2.4255005820168067,0.0196604142524439
mp-778014,Li6MnFe5(BO3)6,2.8181000000000003,-2.4254767012072227,0.0052644397685206
mp-754787,SmTlO3,0.8895000000000001,-2.4254546492500006,0.0732822346249992
mp-779859,Li6MnFe5(BO3)6,2.8303000000000003,-2.425442578151668,0.005298562824076
mp-762684,Li2Ti(FeO3)2,1.7930000000000001,-2.425423479772728,0.0658729096969708
mp-767894,Li3VPCO7,2.5852,-2.4253455876419414,0.0854337229567274
mp-777069,LiMn2PO5,1.829999999999999,-2.425297878196138,0.0804807375000002
mp-780634,Li6MnFe5(BO3)6,2.8588,-2.4252717220405566,0.0054694189351875
mp-863259,Pm2S3,2.4211,-2.4252592874375,0.0
mp-542331,Zn2P2O7,3.6266000000000003,-2.4252406812067093,0.0227070379924319
mp-778754,Li8MnFe7(BO3)8,3.1743,-2.4251626052977784,0.0007397223263918
mp-585184,Mo2P3O13,0.8305,-2.42510577905754,0.0
mp-850229,LiV2P4(HO8)2,0.8465,-2.4250348609848382,0.0553434532000061
mp-771435,Na3CrSiCO7,2.6464,-2.4249930716346157,0.0044745773076924
mp-756400,NdBiO4,0.5653,-2.4249060645833342,0.0
mp-779218,Li8MnFe7(BO3)8,3.156499999999999,-2.4248231015477777,0.0010792260763929
mp-850743,Li8MnFe7(BO3)8,3.1002,-2.42479669238111,0.0011056352430598
mp-757042,LiSnPO4,3.0295,-2.424773976156462,0.0613586934523828
mp-780443,Li8MnFe7(BO3)8,3.065099999999999,-2.4247636071727783,0.0011387204513919
mp-779381,Li8MnFe7(BO3)8,3.145799999999999,-2.424734878214444,0.001167449409726
mp-778892,Li8MnFe7(BO3)8,3.1706,-2.42473341425611,0.0011689133680601
mp-19579,PrTl(MoO4)2,3.581999999999999,-2.424666957083333,0.0051841233333291
mp-13687,Cs2KAgF6,0.620799999999999,-2.424618966714,0.0
mp-780175,Li4Fe3P4(HO8)2,3.8515,-2.424618124297274,0.0429722094827553
mp-778862,Li8MnFe7(BO3)8,3.1051,-2.424591935922777,0.0013103917013932
mp-555059,TcSb(OF4)2,2.8188,-2.4244673112099995,0.0
mp-762709,LiTiFe2O5,1.5007000000000001,-2.424464610879631,0.0713034803869465
mp-766993,Li2MnO2F,0.8597,-2.424439373691666,0.0747739329166634
mp-676424,Sm(GdS2)2,0.0,-2.424436885535713,0.0231339725000054
mp-19104,LiYb(WO4)2,0.8205,-2.4244314145833328,0.0
mp-585378,Li2Co3(P2O7)2,2.817599999999999,-2.424423601299172,0.0032292488043808
mp-767863,Li3VPCO7,3.2087,-2.4244090487957872,0.0863702618028821
mp-565791,FePO4,2.6721,-2.4243037805158743,0.0035179254166664
mp-753939,LiSnPO4,3.498299999999999,-2.4243033593707475,0.0618293102380969
mp-765063,Li2VFeP2(HO5)2,1.4812,-2.4241174155146563,0.0
mp-767310,Li3VPCO7,3.0435,-2.424075299565017,0.0867040110336514
mp-775232,LiCr4(PO4)3,1.244599999999999,-2.424014472464286,0.0870420800833358
mp-775204,Li2V3WO8,1.4997,-2.4240110489285716,0.0
mp-850744,Fe3(SiO4)2,1.412499999999999,-2.4237397164102563,0.0921920333974419
mp-566014,FePO4,2.4856,-2.4237007138492075,0.0041209920833331
mp-775971,Li5Sn5(PO4)6,0.256499999999999,-2.4236836800892867,0.0972005744895767
mp-771663,LiV2O4,0.42709999999999904,-2.4236300807142857,0.0967772461309497
mp-25943,Li2CuP2O7,0.0,-2.42361784437004,0.0392310981250068
mp-557268,KLi4AlO4,3.9726,-2.42357000175,0.0
mp-18983,ErNiO3,0.0,-2.4235563762500005,0.0
mp-754663,Na2Be2O3,4.268000000000001,-2.42355106125,0.0353839571428622
mp-776615,Li4VCr3O8,1.8257,-2.4235199593750005,0.0
mp-540320,FePO4,2.7308,-2.4234938388492075,0.0043278670833331
mp-770518,Li4Ti3Mn3(CoO8)2,0.7553000000000001,-2.423487395817144,0.060856771827142
mp-25660,LiCo2P3O10,2.7489,-2.423481189486606,0.0012408675781312
mp-755256,LiBiB2O5,3.2969,-2.4234803049537037,0.0806485037499982
mp-771525,Li3MnPCO7,3.805099999999999,-2.4234758761773274,0.0602774923076809
mp-776618,Li4VCr3O8,1.9194,-2.423456950625,6.300875000597728e-05
mp-767693,Li12V3FeP4(CO7)4,2.6919,-2.4234019680265573,0.0654303692127422
mp-767881,Li3MnPCO7,3.4172000000000002,-2.423381821946558,0.06037154653845
mp-765377,Li2VFeP2(HO5)2,1.7307000000000001,-2.423324398662804,0.000793016851853
mp-773988,Li4Ti3Co3(SbO8)2,0.635699999999999,-2.423291487857143,0.0419404301785721
mp-767830,FePO4,2.7245,-2.42326213405754,0.0045595718750011
mp-767864,Li3VPCO7,3.1653000000000002,-2.4232510776419405,0.0875282329567284
mp-29680,Ta2Bi4O11,2.7997,-2.4232461890441184,0.0
mp-765143,Li2NiP2O7,2.643599999999999,-2.42324332999504,0.0539158870833249
mp-850413,LiCrPO5,0.4313,-2.4232098731994047,0.0774459814999861
mp-767013,FePO4,2.583799999999999,-2.4231823005158737,0.0046394054166665
mp-778751,Mn6O5F7,0.0,-2.4231329389077785,0.0738807572916782
mp-767865,Li3VPCO7,3.207,-2.423090239180402,0.0876890714182669
mp-767903,Li3VPCO7,2.4336,-2.423082070911172,0.0876972396874968
mp-762254,Li3V5O12,1.119599999999999,-2.42308203275,0.0728920387499885
mp-19031,RbVO3,3.0513,-2.423030073750001,0.0
mp-767316,Li3MnPCO7,3.5059,-2.4230053317542497,0.0607480367307582
mp-18815,KVO3,3.0372,-2.4228383147500008,0.0
mp-771788,Li4V3O8,0.0,-2.422721235333334,0.0940148918610841
mp-36223,Ba(PrS2)2,1.9354,-2.4227109508928573,0.0204902724999964
mp-853146,Li4VCr3O8,0.0,-2.4226840125000004,0.0008359468750054
mp-782680,VO2F,1.1084,-2.4226544046725005,0.0574946718750002
mp-764734,Mn3VSb2(PO4)6,0.023499999999999,-2.422544071706985,0.0825934795138874
mp-542523,Fe7(PO4)6,1.4674,-2.42251014942085,0.0
mp-762018,LiCoPO4,3.1973,-2.4224843475850344,0.0118674580357156
mp-770767,SmCuO3,0.121799999999999,-2.422460771750001,0.0
mp-767829,FePO4,2.7569,-2.422428032182541,0.0053936737499995
mp-547244,SrBiClO2,3.3015,-2.4223881811520003,0.0
mp-998309,CsNaF3,0.0,-2.422377222714,0.0097517894999996
mp-540806,Ca2IrO4,0.0,-2.4223389445238093,0.0278593040476184
mp-687234,P2WO8,2.456,-2.4222549319264077,0.0
mp-541240,Sb3O2F5,3.777699999999999,-2.422241566845,0.0
mp-767336,Li3MnPCO7,4.108499999999999,-2.4222176654080956,0.0615357030769114
mp-780940,Li8MnFe7(BO3)8,0.0018000000000000002,-2.422190235714444,0.0037120919097271
mp-778538,Mn6O5F7,0.0,-2.422186014185556,0.0748276820139004
mp-757590,LiSnPO4,3.4943,-2.4221626177636053,0.0639700518452528
mp-780440,Li8MnFe7(BO3)8,3.1364,-2.4221578457144446,0.0037444819097256
mp-761671,Li3CoPO5,0.0,-2.4221255991845236,0.058020160249999
mp-1017467,CaMnO3,0.0,-2.4220628489419997,0.1173078766666702
mp-765882,LiNi(PO3)3,3.8064,-2.4220162007525508,0.0497085953571296
mp-762390,LiV5O10,1.2626,-2.42201117078125,0.079352597708322
mp-762268,Li3V2O6,1.301699999999999,-2.4219308870454563,0.0836157786363527
mp-560656,CaTeO3,2.9142,-2.421872311949999,0.0
mp-774173,Li8MnFe7(BO3)8,3.116,-2.4218525867561116,0.0040497408680577
mp-18182,CsNa3TiO4,3.4808,-2.421831555185185,0.0
mp-779866,Li8MnFe7(BO3)8,3.1654,-2.4217488082144456,0.0041535194097246
mp-19209,LiAl(MoO4)2,3.6252,-2.421532723749999,0.0146180141782439
mp-756241,PrBiO4,0.748899999999999,-2.4214691241666664,0.0
mp-19432,KNaV2O6,3.2404,-2.4214514692500018,0.0
mp-775106,Li2MnV3O8,1.2306,-2.421347655782856,0.0324812930803659
mp-39010,MgCr2O4,0.7034,-2.4212696671428566,0.203815730714286
mp-767910,Li3MnPCO7,3.5184,-2.4212025913696342,0.0625507771153737
mp-760133,Li6Ag3F10,0.07679999999999901,-2.421142100626316,0.0697325105263129
mp-28932,Sn4OF6,3.2029,-2.4211359791718183,0.0009977943181871
mp-555704,ReO2F3,3.335,-2.4211280591366666,0.0
mp-771064,Li4Ti2V3(Fe2O9)2,1.5642,-2.421124778252689,0.0865871797042725
mp-37399,Li7NbO6,3.5059,-2.4211092483928573,0.0359318142857132
mp-765850,NaV2O5,0.9284999999999991,-2.4210980129687503,0.0059506884373936
mp-624769,P2WO8,2.530399999999999,-2.421092401017316,0.0011625309091041
mp-761648,LiNi(PO3)3,2.993999999999999,-2.421060824145408,0.0506639719642718
mp-767854,Li3VPCO7,3.174899999999999,-2.42097906110348,0.0898002494951892
mp-778755,Li8MnFe7(BO3)8,3.1258,-2.420875048839444,0.005027278784726
mp-767876,Li3MnPCO7,4.1411,-2.420825405408096,0.0629279630769117
mp-774304,Li2V3WO8,1.7313,-2.4208031630357136,0.0032078858929178
mp-765327,V3FeCu2(PO4)6,0.0,-2.420774598849208,0.0113710680555279
mp-771478,Mn3Fe2P6WO24,0.0,-2.4207618244847615,0.0799833452456457
mp-776056,Mn3Cr2Sb(PO4)6,0.0,-2.4207098046236504,0.0945932627083205
mp-767884,Li3MnPCO7,4.1018,-2.4207073163696347,0.0630460521153732
mp-767734,Li12Mn3CrP4(CO7)4,2.3728,-2.4206459944280954,0.0604888990925438
mp-780183,Fe2OF3,1.2707,-2.4206438166366664,0.0886150850000113
mp-776895,NbFe3Ni2(PO4)6,2.3587,-2.4205847121825403,0.0230757483333343
mp-18893,Ca2Mn3O8,1.442699999999999,-2.420548823298463,0.0
mp-540050,Fe3P3O11,1.5595,-2.4203891242962188,0.0380586233088244