mpid,formula,BG,FE,e_hull,fidelity,BG_category
mp-6628,CsCd(NO2)3,4.086197999999999,-1.1564327799672731,0.0392194076393535,3,4.0
mp-5566,KCuF3,0.0,-2.3751083327140003,0.0058496219999977,3,0.0
mp-28295,CsIO3,4.221143,-1.3955319447500003,0.0,3,4.0
mp-978652,SiHg3,0.0,0.440818685,0.440818685,3,0.0
mp-867219,Sr2GaGeN,0.669593,-0.7393567774760001,0.0,3,0.0
mp-11287,CaHg2,0.0,-0.4437289233333333,0.0,3,0.0
mp-318,SrIr2,0.0,-0.2600819683333337,0.0,3,0.0
mp-504498,K2CdPb,0.374201,-0.1815259812499998,0.0,3,0.0
mp-757590,LiSnPO4,4.64060058,-2.4221626177636053,0.0639700518452528,3,4.0
mp-34467,Zn(GaS2)2,2.779915,-1.1009680116071432,0.0084893771428546,3,2.0
mp-6987,Sr(GaTe2)2,1.049842,-0.7446120571428568,0.0,3,1.0
mp-1550,AlP,2.358316,-0.6125680790476187,0.0,3,2.0
mp-773534,TiFeO4,0.0,-2.457801121944444,0.0875165048958326,3,0.0
mp-18740,V2Cd2O7,3.835250999999999,-2.0975786171590896,0.0,3,3.0
mp-7002,NaTiO2,0.0,-2.8025646760416665,0.0077435251388928,3,0.0
mp-3623,MnAlCo2,0.0,-0.3529218099999998,0.0,3,0.0
mp-5443,Nb2SnC,0.0,-0.4076536768750003,0.0,3,0.0
mp-9732,BaNaP,1.54939,-0.7749557421428577,0.0,3,1.0
mp-10464,CaF2,9.562248,-4.185924405793334,0.0521677983333326,3,7.0
mp-12631,SrTcO3,0.0,-2.46421528475,0.0067744609999982,3,0.0
mp-4559,BaCO3,6.022703,-2.674991184250002,0.0218445939999947,3,6.0
mp-1967,TaTe2,0.0,-0.3629253877777774,0.0,3,0.0
mp-756182,RbHO,4.595284,-1.5246812032900003,0.0510020833333317,3,4.0
mp-24513,YH3,0.0,-0.5261131945899997,0.1854463162500002,3,0.0
mp-12674,MnAu,0.0,-0.0061160749999995,0.0749837549999998,3,0.0
mp-333,HfFe2,0.0,-0.3511559783333323,0.0,3,0.0
mp-554688,Ba6Hf5S16,1.464884,-2.2429399962962973,0.0089430148148199,3,1.0
mp-2319,P2Os,1.4339,-0.5274748303968243,0.0,3,1.0
mp-25172,Ba3WO6,3.973403,-2.8111514857500013,0.0550313012499978,3,4.0
mp-3348,LiBIr,0.416143,-0.5039243530555547,0.0,3,0.0
mp-3698,SrAlSi,0.0,-0.3983536866666674,0.0,3,0.0
mp-11474,TlHg3,0.0,-0.0260391037499999,0.0,3,0.0
mp-778,Fe2P,0.0,-0.4590584593650802,0.0,3,0.0
mp-2501,BMo2,0.0,-0.3086325222222197,0.0195795991666685,3,0.0
mp-31935,MnP2O7,2.298488,-2.346846203590048,0.0508698889999985,3,2.0
mp-557604,AlPO4,7.27214073,-3.1290683282936507,0.009396822222226,3,7.0
mp-2371,Ga2Te5,1.55251415,-0.2358193814285719,0.0,3,1.0
mp-775790,CrTe(WO6)2,2.794234,-1.739151967187501,0.08827422113281,3,2.0
mp-985626,Na3Mn2SbO6,2.143944,-2.0511243641183317,0.0,3,2.0
mp-28835,LiScI3,0.0,-1.121340566,0.0478355430400001,3,0.0
mp-975380,RbCdO3,0.0,-0.7454620977500006,0.3877708160000006,3,0.0
mp-772972,Li2Ti2O5,5.435669,-3.11418772912037,0.0559475317592337,3,5.0
mp-768037,VOF,2.594086,-2.8274381783133338,0.0185707041666676,3,2.0
mp-753059,TiOF,0.0,-3.4132089313688905,0.0713183966666548,3,0.0
mp-555857,BaVS3,0.0,-1.7649135044375002,0.0034743950000013,3,0.0
mp-13174,PtN,0.0,0.93638379381,0.9363837938099993,3,0.0
mp-9854,YP5,0.7128669999999999,-0.5456090863293651,0.0,3,0.0
mp-974395,Pt3Rh,0.0,-0.0104875999999993,0.0,3,0.0
mp-19844,Na(FeSb3)4,0.0,-0.078109259117648,0.0,3,0.0
mp-11327,Rb2Se,2.58125483,-1.0598238028645834,0.0,3,2.0
mp-777479,VO2,2.385838,-2.445521995,0.0387522391666639,3,2.0
mp-31750,CrPO4,3.28934551,-2.569067937599206,0.0328032854166675,3,3.0
mp-1009581,CrSe2,0.0,-0.4533147257291669,0.0,3,0.0
mp-2404,CaAl2,0.0,-0.3211044133333332,0.0,3,0.0
mp-546794,SiO2,7.117335,-3.2847129075,0.0,3,7.0
mp-1319,ZrTe,0.0,-0.6235147450000005,0.2763084400000002,3,0.0
mp-19143,BaCo2(AsO4)2,3.120189,-2.000203325384616,0.0,3,3.0
mp-15679,CoAs,0.0,-0.2630646624999997,0.0327742237500006,3,0.0
mp-613402,SrZrO3,0.0,-1.1491883747500005,2.530374468999998,3,0.0
mp-1106,Sr2Si,0.803384,-0.3670492758333334,0.0,3,0.0
mp-20233,CaMnSn,0.0,-0.2437055749999993,0.1820945583333335,3,0.0
mp-557,TeO2,3.022717,-1.4982860624999994,0.0110402570833265,3,3.0
mp-4482,NaSbO3,3.925996,-2.0782218747500005,0.0,3,3.0
mp-7067,Ca(CdAs)2,0.658895999999999,-0.5909712060000001,0.0,3,0.0
mp-985572,LiAg(CO2)2,4.359040999999999,-1.5125314925,0.1712675948437496,3,4.0
mp-11022,ScAgO2,3.409952,-2.6387851006250003,0.0,3,3.0
mp-16857,LaMn3Ni2,0.0,-0.0147023094444449,0.1512877737037037,3,0.0
mp-9350,ScGeAu,0.0,-0.721891138333333,0.0,3,0.0
mp-753349,LiTiSiO4,0.0,-3.0694783823809524,0.0691428698809488,3,0.0
mp-18946,VBO3,2.64704,-2.7307601230833343,0.0,3,2.0
mp-977592,Bi2Rh3S2,0.0,-0.5675485354464291,0.0,3,0.0
mp-18988,Li2MnO3,3.374720999999999,-2.185746033284999,0.0,3,3.0
mp-1543,Ge2Pt,0.0,-0.3429716549999995,0.0034992887500004,3,0.0
mp-31160,CaZnSn,0.0,-0.5081527299999996,0.0,3,0.0
mp-8911,CuAgS,1.140496,-0.3290004913541669,0.0242558294444439,3,1.0
mp-778241,Li2V3F8,2.9129810000000003,-2.96933268227077,0.0869521419230769,3,2.0
mp-975359,Rb(FeAs)2,0.0,-0.2722333920000004,0.0,3,0.0
mp-1007854,FeNi3,0.0,0.0218368424999999,0.1153737399999998,3,0.0
mp-19895,NiSb2,0.0,-0.1976309716666667,0.0,3,0.0
mp-774088,Li2NbCr3O8,2.810813,-2.5534505635714284,0.0148574760714215,3,2.0
mp-540783,OsO4,4.769997,-1.5473536280000004,0.0,3,4.0
mp-10051,TeAs,0.0,0.1054253725,0.1179786541666665,3,0.0
mp-4419,NaNbO3,2.89457,-2.8341964077500017,0.0273868200000002,3,2.0
mp-776952,Na2O,2.835715,-1.374752923750001,0.0796425799999993,3,2.0
mp-707727,H2C2N2O,5.433653,-0.4765323783214279,0.1952968985431739,3,5.0
mp-550685,Ba2CaTeO6,4.546958,-2.79982897875,0.0,3,4.0
mp-2384,LaP,0.0,-1.569414474047619,0.0,3,0.0
mp-1483,SiRh,0.0,-0.7866004300000009,0.0322713437499997,3,0.0
mp-1569,Be2C,1.952241,-0.2306482691666668,0.0,3,1.0
mp-774353,Li3Ti(NiO3)2,0.0,-2.0686198436805556,0.0414192060416684,3,0.0
mp-36733,La2CdSe4,1.640145,-1.5376875220535715,0.0922934235714274,3,1.0
mp-7430,Ca(CdSb)2,0.854795,-0.4594745059999997,0.0,3,0.0
mp-770024,Li2Mn3NbO8,1.003612,-2.309056266634286,0.0780414195759107,3,1.0
mp-757074,BaCa2I6,5.173712,-1.6635869755555557,0.0290128723611111,3,5.0
mp-11278,Ta2Be,0.0,-0.159338433333333,0.0,3,0.0
mp-2482,CaC2,2.72339906,0.0291430249999997,0.0291430250000095,3,2.0
mp-18860,Li2VSiO5,3.514681,-2.7757116495833336,0.0,3,3.0
mp-1832,LaPt5,0.0,-0.7695253366666664,0.0,3,0.0
mp-981375,HfMg3,0.0,0.1514130187500004,0.1514130187500004,3,0.0
mp-754779,Li2NbS3,0.0073669999999999,-1.45828602203125,0.0817849059374973,3,0.0
mp-10376,Cr3SnN,0.0,-0.1872441974759993,0.1271847810000004,3,0.0
mp-27462,AlPS4,3.793061,-1.0288525565575397,0.0054478291666661,3,3.0
mp-975821,K3Ir,0.0,0.7423156175000001,0.7423156175000001,3,0.0
mp-15635,TiTl3F6,0.0,-2.6711338118806665,0.0969029535000034,3,0.0
mp-1008832,HfC,0.0,-0.1791952362500009,0.7643617799999998,3,0.0
mp-10098,YGeAu,0.0,-0.8392503425000003,0.0,3,0.0
mp-1065,LaSb,0.0,-1.2641026875000003,0.0,3,0.0
mp-5019,YCo3B2,0.0,-0.4810046059722216,0.0006857899999994,3,0.0
mp-752753,SbO2F,2.491057,-1.9964716409225,0.0183480461249994,3,2.0
mp-756293,La2HfO5,5.757568999999999,-3.927670113906249,0.0763500540625283,3,5.0
mp-13554,SnHgO3,0.6959259999999999,-1.46987542575,0.0636971615000003,3,0.0
mp-18021,Ge3Mo5C,0.0,-0.069166684166665,0.0648986475555553,3,0.0
mp-770099,Li4MnO3,2.315131999999999,-1.97655111683875,0.0802278670833329,3,2.0
mp-715488,CrO2,0.0,-2.0541697325,0.0010692250000019,3,0.0
mp-10366,Nb2Co3Si,0.0,-0.4467702408333321,0.0,3,0.0
mp-24433,KHSeO3,5.621099,-1.5970512384939586,0.0151882124999982,3,5.0
mp-1953,TiAl,0.0,-0.4005888033333339,0.0,3,0.0
mp-5046,BeSO4,8.65488,-2.4297438573437504,0.0,3,7.0
mp-975427,RbAlO3,0.0,-1.94339322275,0.3690044576666658,3,0.0
mp-974974,RbMg,0.0,0.2006612183333334,0.2006612183333332,3,0.0
mp-974421,IrRu,0.0,-0.0247362024999997,0.0132643187500001,3,0.0
mp-2674,YPt2,0.0,-1.092397810833333,0.0,3,0.0
mp-541310,CaGaGe,0.0,-0.5197340441666665,0.0,3,0.0
mp-705333,LiMo(PO4)2,3.11181822,-2.5151392713492062,0.0333879110416441,3,3.0
mp-139,Sr,0.0,0.00549138,0.00549138,3,0.0
mp-770908,CoO2,0.854827,-1.0245405958333318,0.1132221608333319,3,0.0
mp-32331,NiP2O7,1.117975,-1.947443886494048,0.1496942048750131,3,1.0
mp-3208,ZrGeTe,0.0,-0.7865249466666668,0.0,3,0.0
mp-24813,LaFe5H2,0.0,-0.076211535905001,0.1948584637499992,3,0.0
mp-12594,TiIr,0.0,-0.7705983083333336,0.074499209999999,3,0.0
mp-8936,SnSe,1.43711973,-0.386787161796875,0.0461006324999999,3,1.0
mp-770596,TaCrO4,2.073562,-2.9294895774999983,0.0244667066666437,3,2.0
mp-25654,PWO4,2.95270885,-2.2688171021825383,0.1082437238888722,3,3.0
mp-685194,Li4Ti5O12,4.204224,-3.220010352301588,0.0,3,4.0
mp-3432,ScNiSb,0.429081999999999,-0.8983539883333336,0.0,3,0.0
mp-554121,NaHf2VF11,4.056803,-3.846215958872667,0.0,3,4.0
mp-961677,TaGaPt,0.0,-0.0491502099999993,0.4851510700000032,3,0.0
mp-622980,MnTePd,0.0,-0.0080006766666661,0.2346516350000014,3,0.0
mp-13520,Na2ZnGe,0.10073,-0.1484756699999998,0.0,3,0.0
mp-558132,MgVO3,0.5173180000000001,-2.51985242775,0.2619849009999928,3,0.0
mp-17383,Ni2Ge,0.0,-0.3023568599999997,0.0013422191666663,3,0.0
mp-875,AlOs,0.0,-0.4140713724999996,0.0079363562499965,3,0.0
mp-17,Cr,0.0,0.0678711612500002,0.0678711612500002,3,0.0
mp-36508,SnHgF6,3.959183,-2.4299216002675004,0.0,3,4.0
mp-985283,Ag3Ge,0.0,0.1046705312500004,0.1046705312500004,3,0.0
mp-31452,ZrNiBi,0.0,-0.3024823350000005,0.0749107383333314,3,0.0
mp-33738,TiNiO6,0.0,-1.0065915467708333,0.5527879792708337,3,0.0
mp-551601,V2ZnO6,3.680358,-2.208424414722222,0.0191002780555553,3,3.0
mp-982975,LiBeO3,0.0,-1.3587689697500005,0.5474884847499988,3,0.0
mp-27916,AgBiSe2,0.738123,-0.2651054872135419,0.0016170158333319,3,0.0
mp-867744,LiTi3O4,0.0,-2.8660281056250003,0.0908824874999982,3,0.0
mp-755264,TiO,0.0,-2.821955238958335,0.098733564999998,3,0.0
mp-2739,TeO2,3.02341,-1.4983085808333332,0.0110177387499925,3,3.0
mp-109,Si,0.0,0.3019391562500004,0.3019391562500004,3,0.0
mp-757098,Li2Fe2S3,0.1857629999999999,-0.8972136253125009,0.25465649642857,3,0.0
mp-770398,NiSnO3,2.712408,-1.6198805507500011,0.0114595949999873,3,2.0
mp-774908,LiTiNbO4,0.0,-2.9322204745238074,0.1169233246428653,3,0.0
mp-984240,CsCaO3,0.0,-1.5032801427499998,0.4106189019999977,3,0.0
mp-11487,LaPt3,0.0,-0.8455721949999989,0.0786125316666677,3,0.0
mp-3648,Zn2CuAu,0.0,-0.1395504399999998,0.0104853337500001,3,0.0
mp-779083,Li2V3SnO8,0.833558999999999,-2.3457634967857137,0.0885828138393503,3,0.0
mp-975144,RbZn4As3,0.0,-0.2914924156249996,0.0,3,0.0
mp-501,TaSe2,0.0,-0.8074698765625001,0.0085866791666662,3,0.0
mp-16732,YAs,0.0,-1.06727517875,0.486676975,3,0.0
mp-554109,CuSeO4,1.467023999999999,-1.0018347322656254,0.016085853749999,3,1.0
mp-1042,HfSi,0.0,-0.8206296787499996,0.0,3,0.0
mp-973089,ScTaFe2,0.0,-0.1909620024999992,0.0156213487500007,3,0.0
mp-18753,Na3Mo(OF)3,5.171026,-2.619208483732,0.0,3,5.0
mp-504858,CoCu2O3,1.131323,-1.0091878631250009,0.0853667824999995,3,1.0
mp-19406,La2MgMnO6,3.481529,-3.1984856378460003,0.0,3,3.0
mp-36988,Ca(AlSe2)2,3.709917,-1.200838674196428,0.0,3,3.0
mp-972224,TaGeRh,0.0,-0.5427518516666664,0.0,3,0.0
mp-769865,VCr2O4,0.0,-2.2129991107142852,0.0893445465178519,3,0.0
mp-545825,NaIO3,0.0,-0.3084622717500004,1.0292194084999986,3,0.0
mp-775319,Li2Mn3NiO8,2.205116,-1.8364112387771416,0.0825141551785719,3,2.0
mp-555741,RbAu(SO4)2,3.127482,-1.807732149010416,0.0,3,3.0
mp-2424,LaZn5,0.0,-0.3026910975000003,0.0,3,0.0
mp-985591,Li6PS5Br,3.241,-1.3302586052621346,0.0512045821153819,3,3.0
mp-9550,ScMnSi,0.0,-0.621236184444444,0.0,3,0.0
mp-773282,LiMn3(FeO4)2,1.170151,-1.9300924044914276,0.0911534537946554,3,1.0
mp-978855,Sn3B,0.0,0.9337381595833336,0.9337381595833336,3,0.0
mp-767363,Li3Mn2(FeO4)2,1.562069,-1.9090850107946675,0.1738343203333547,3,1.0
mp-753809,BaCaI4,4.934918,-1.691911365,0.0273774168749998,3,5.0
mp-352,HfO2,5.729341,-4.039194866666667,0.0,3,5.0
mp-756095,NaCu3O4,0.0,-1.0945766137499993,0.0630288337500166,3,0.0
mp-32905,Cu8O7,0.0,-0.8252274712499996,0.0673347303333331,3,0.0
mp-13995,Hg2GeO4,2.173152,-1.2887569007142854,0.0,3,2.0
mp-755570,Li(NiS)2,0.0,-0.8578225536250003,0.0696638317499971,3,0.0
mp-9386,CsAu3Se2,3.237033,-0.48610154453125,0.0,3,3.0
mp-1009537,OsC,0.0,1.4647747537499995,1.4647747537499995,3,0.0
mp-755,CoSb2,0.0,-0.1723486099999996,0.0031359879166661,3,0.0
mp-753081,Li3(CuO)4,0.0,-1.3060536149999995,0.0456232443181834,3,0.0
mp-14447,Ba2SiSe4,3.116893,-1.456302209910714,0.0,3,3.0
mp-775027,Li2Mn3CoO8,1.7698809999999991,-1.928683573777144,0.0348396768686178,3,1.0
mp-31284,NaSn5,0.0,-0.0680288258333329,0.0087228116666673,3,0.0
mp-972187,ZrSiPt,0.0,-1.162853166666667,0.0,3,0.0
mp-1479,BP,2.053402,-0.4119831823809523,0.0,3,2.0
mp-1009008,LaTe,0.0,-1.4571257499999994,0.136721389999999,3,0.0
mp-7582,GeS2,3.153686,-0.7555509393749998,0.0206862377083298,3,3.0
mp-9289,ZrSnTe,0.0,-0.678274658333334,0.0,3,0.0
mp-6949,InF3,5.6800559999999995,-2.8619043158925006,0.0,3,5.0
mp-28222,Rb3Sb2Br9,2.317967,-1.1612667949999995,0.0,3,2.0
mp-974463,LaAg2Sn,0.0,-0.4124544637499996,0.0,3,0.0
mp-962077,TiAuCl,0.0,0.0808874600244434,1.2308230672222198,3,0.0
mp-559117,KLiMnO2,2.17631,-1.8472290536919984,0.006613051000003,3,2.0
mp-27533,P2Pd15,0.0,-0.2520011156582631,0.0048752064705883,3,0.0
mp-985586,Na3BrO,3.189552,-1.5336462912500004,0.0,3,3.0
mp-6492,Ba2YSbO6,4.880768,-3.0958389005000013,0.0,3,4.0
mp-731,Mg3Hg,0.0,-0.1134633774999998,0.037308361875,3,0.0
mp-7192,Sc2Sb,0.0,-0.7809089666666674,0.0,3,0.0
mp-554769,MoSBr,1.73995,-0.9808282105208336,0.0159086763888884,3,1.0
mp-975443,InCuO3,0.0,-0.92650359075,0.5070897800000003,3,0.0
mp-973316,NaLi3,0.0,0.0459046475000002,0.0459046475000002,3,0.0
mp-1009048,KAgO,0.828997,-0.5999815770833331,0.4465520358333293,3,0.0
mp-773344,Li2CrCuO4,1.247585,-1.8994909074999988,0.0343862562500003,3,1.0
mp-753162,Li2BiO3,0.0,-1.8621527547916676,0.0189598324999789,3,0.0
mp-7759,BaSn3,0.0,-0.4624550162500003,0.0,3,0.0
mp-2347,NiAs,0.0,0.0539657174999996,0.3408172441964288,3,0.0
mp-34195,BaCO3,6.131496999999999,-2.648192286250002,0.0486434919999947,3,6.0
mp-25385,Li(CuO2)2,0.0,-1.0979192664285709,0.0352582599107131,3,0.0
mp-753519,CuPO4,0.37528053,-1.8920979542658725,0.0,3,0.0
mp-38994,NaAlSi4,0.0,0.3098611041666673,0.3583139158333353,3,0.0
mp-1006118,P2S7,2.89221,-0.6368644738475532,0.0,3,2.0
mp-2426,LiAg,0.0,-0.2098005649999996,0.0121870550000005,3,0.0
mp-753801,Cs2Sr2O3,3.333386,-2.223052053392857,0.0672648099999992,3,3.0
mp-4248,YCoC2,0.386733999999999,-0.3362795743750002,0.0,3,0.0
mp-556888,KSbF6,5.332767,-2.9244867896425006,0.0,3,5.0
mp-41795,LiAlPO4F,7.9720537,-3.1401456474106557,0.0117462130208343,3,7.0
mp-560385,KRb2CoF6,0.0,-2.704446110714,0.0404779490000004,3,0.0
mp-2808,ZrRh,0.0,-0.7322953400000003,0.070602645000001,3,0.0
mp-37990,AlPO4,7.04234693,-3.1244470378492064,0.0140181126666707,3,7.0
mp-39681,NaTi2BiO6,3.84148,-2.8482168000833337,0.0141703905000003,3,3.0
mp-18772,Na4Mo(NO)2,3.300054,-1.1524283319177782,0.0615314779629656,3,3.0
mp-142,Ga,0.0,0.0,0.0,3,0.0
mp-617,PtO2,3.06873786,-0.9343556508333322,0.0058613466666681,3,3.0
mp-985594,NaAg(CO2)2,4.37216,-1.4870736168749996,0.1327629710937508,3,4.0
mp-16481,TiAlAu,0.0,-0.495314350555556,0.0,3,0.0
mp-430,TiO2,3.814424,-3.453515071388889,0.0653159091666797,3,3.0
mp-971720,ZnGa3,0.0,0.0736587212500001,0.0736587212500001,3,0.0
mp-2349,YCd3,0.0,-0.301144806875,0.0,3,0.0
mp-975200,RbSrO3,0.0,-1.378931102749999,0.440517775,3,0.0
mp-37947,Na4C2O5,4.264248999999999,-1.795654392840909,0.1126225555681816,3,4.0
mp-974435,Re3N,0.0,-0.129808696845,0.0,3,0.0
mp-1500,BaS,3.07451,-2.41173967703125,0.0,3,3.0
mp-11304,Li2CdPb,0.0,-0.2416270212499998,0.0273336574999998,3,0.0
mp-978489,SiPbO3,2.683869999999999,-2.18709288675,0.4242304153333336,3,2.0
mp-550593,Li4CO4,5.863073999999999,-1.8747011458333327,0.3228077888888894,3,5.0
mp-1009820,SnC,1.447945509999999,0.8153498537499999,0.8153498537499999,3,1.0
mp-1008624,YBiPd,0.09860657,-0.9426426558333332,0.0,3,0.0
mp-4964,YSbPt,0.8075949200000001,-1.2198490324999998,0.0,3,0.0
mp-10627,SrS,2.849057,-2.1824037120312507,0.2989603249999995,3,2.0
mp-976775,NaMgO3,0.0,-1.4138990637500009,0.3563053410000005,3,0.0
mp-18807,V2Zn2O7,3.626153999999999,-2.1482291035227266,0.0324458054545466,3,3.0
mp-560262,Zn(InS2)2,0.735754999999999,-0.9505294030357144,0.056789174107144,3,0.0
mp-11307,MgCd,0.0,-0.1052476449999999,0.0,3,0.0
mp-767120,Mn2FeO6,0.739223,-1.6327452182688889,0.098235531874999,3,0.0
mp-542076,Ca3V2O8,4.767399,-2.9846496623076924,0.0203102221153814,3,4.0
mp-612,PS,3.538506,-0.4721385017038697,0.0208203491796883,3,3.0
mp-10607,Lu3TlC,0.0,-0.5239317184999998,0.0,3,0.0
mp-554302,Cs2NaMnF6,0.0,-2.95144376731,0.0437817039999952,3,0.0
mp-8736,Sr(Mo3S4)2,0.077114999999999,-1.242626773500001,0.0024168305000005,3,0.0
mp-11276,BeRh,0.0,-0.6153724074999998,0.0,3,0.0
mp-12905,Ba3CrN3,0.0,-0.915366173877142,0.0,3,0.0
mp-758044,Li5Ti8O16,0.0,-3.165588995287356,0.0214370922413955,3,0.0
mp-32384,Li4Ni7(PO4)6,3.97213168,-2.1525799955749134,0.0432742337804743,3,4.0
mp-27635,Rb2SnI6,0.858501,-0.8687318716666663,0.0130264598611127,3,0.0
mp-35795,BiPbF5,5.519099,-2.7012348165642863,0.0550018089285702,3,5.0
mp-11360,ScGaCu2,0.0,-0.3754398774999999,0.0,3,0.0
mp-559091,SiO2,6.834223,-3.280417601666666,0.0042953058333328,3,6.0
mp-15799,NbN,0.0,-1.05044900619,0.2028021950000003,3,0.0
mp-2824,AlPd2,0.0,-0.8280263816666675,0.0,3,0.0
mp-7437,KZnP,1.536536,-0.458029236031746,0.0,3,1.0
mp-774156,NbFeO4,1.955003,-2.5308976758333324,0.0359484983333313,3,1.0
mp-557137,KCoO2,1.55586,-1.502043599375,0.0405067737500095,3,1.0
mp-755558,BaLa2O4,4.632709,-3.593544255,0.0,3,4.0
mp-1219,BaGa2,0.0,-0.46775609,0.0,3,0.0
mp-27689,PH4Br,5.128036,-0.26729795126254,0.0,3,5.0
mp-1006059,Tl3Bi,0.0,-0.0224196887499998,0.0,3,0.0
mp-4338,Cr2CdS4,1.918226,-1.0750822101785715,0.0,3,1.0
mp-25094,NiWO4,3.130007,-1.801266871666666,0.0,3,3.0
mp-766786,VF5,4.98817,-2.788778785158333,0.0370641191666676,3,5.0
mp-27910,Bi2Te2S,0.987972,-0.4158303768125002,0.0,3,1.0
mp-37091,Sr(AlTe2)2,2.900606,-0.8343044785714285,0.0,3,2.0
mp-41057,BaLaCuRuO6,1.231004,-2.3007809852500003,0.0518656128333319,3,1.0
mp-1007660,IrN,0.0,0.3556080088100017,0.3556080088100017,3,0.0
mp-33339,Ba3Ti3O8,0.0,-3.3295615221428565,0.0463524414285725,3,0.0
mp-1009837,TcC,0.0,0.6475889512500004,0.6475889512500004,3,0.0
mp-1007922,CuI,2.343509,-0.0994023324999999,0.0567926900000004,3,2.0
mp-12866,SrSnO3,2.694883,-2.6485680887500003,0.0058831330000002,3,2.0
mp-1013548,Ca3SbN,1.304228999999999,-1.1619392574759992,0.0,3,1.0
mp-977242,Hg3Sb,0.0,0.174572865,0.174572865,3,0.0
mp-10797,CaSiNi2,0.0,-0.5379240412499993,0.0,3,0.0
mp-720804,K3Na3TeP6(HO4)6,5.6201064,-2.276609976518406,0.0278058781976779,3,5.0
mp-984356,CsIrO3,0.0,-1.0567116927500002,0.2119173188333318,3,0.0
mp-12832,Ba3CaRu2O9,0.0,-2.472654964083333,0.0157931380000073,3,0.0
mp-560236,MgF2,7.9747,-3.73609268746,0.1111410733333331,3,7.0
mp-552537,Sr2CuBrO2,3.984854,-2.3328281587500004,0.0,3,4.0
mp-975530,RbAl,0.0,0.6581729700000001,0.6581729700000001,3,0.0
mp-35907,La5TlTe8,1.75868,-1.4736237546428568,0.0,3,1.0
mp-36,Sc,0.0,0.0490334299999997,0.0490334299999997,3,0.0
mp-1009720,RhN,0.0,0.7687439388100001,0.7687439388100001,3,0.0
mp-753842,YZr5O11,1.297051,-3.723749898014706,0.0843200060882338,3,1.0
mp-1009733,Ca2Si,1.078513109999999,-0.4336801766666672,0.0143531258333329,3,1.0
mp-977100,NiMoO3,0.0,-1.0603541387500002,0.6147563752499979,3,0.0
mp-767362,LiNiPO4,3.599936999999999,-2.213920479013606,0.0786340282142896,3,3.0
mp-560851,CsIOF4,6.198577,-2.1926934090728567,0.0,3,6.0
mp-32322,LiNi(PO3)3,5.320323,-2.4431806153954088,0.0285441807142721,3,5.0
mp-9636,CsSbF6,6.829935,-2.9496504365175,0.0,3,6.0
mp-1393,Sn4Au,0.0,-0.0770599889999999,0.0,3,0.0
mp-1009731,ReC,0.0,1.1060857987499997,1.1312861268749987,3,0.0
mp-975421,RbAgO3,0.0,-0.4719932307500002,0.3480936857499985,3,0.0
mp-18913,Ba3Cr2O8,0.0,-2.6059880692307704,0.0136219875000058,3,0.0
mp-1009894,ZrC,0.904886,-0.1945593737499997,0.6135818300000011,3,0.0
mp-11017,KCd(NO2)3,4.054056,-1.1395263072400004,0.0577773820585472,3,4.0
mp-557322,Bi4Te2Br2O9,1.28384,-1.3747061488970589,0.169692784963237,3,1.0
mp-2716,TiNi,0.0,-0.3675781672222232,0.0289794286111098,3,0.0
mp-772052,CdSeO4,3.490278,-1.311422283932292,0.0205930916666625,3,3.0
mp-8938,Si2Mo,0.5543290000000001,-0.4637800388888896,0.0286197944444435,3,0.0
mp-1873,ZnF2,5.6869250000000005,-2.61737431246,0.0,3,5.0
mp-973058,LiLu2Al,0.0,-0.1960859749999994,0.0063494018750001,3,0.0