mpid,formula,BG,FE,e_hull,fidelity,BG_category
mp-10040,AlPt3C,0.0,0.2039946225000001,0.7632811364999998,3,0.0
mp-555464,KRb2NiF6,0.0,-2.5610252367139994,0.0139417990000003,3,0.0
mp-867958,TaInRu2,0.301355999999999,-0.3337527174999994,0.0,3,0.0
mp-961700,TiCoAs,0.0,-0.1332132772222216,0.4806637658333353,3,0.0
mp-2760,Nb6C5,0.0,-0.5411700561363634,0.0,3,0.0
mp-9486,K2AlF5,8.147908,-3.5345890426187494,0.0,3,7.0
mp-545719,SiO2,6.346009,-3.135062028333333,0.1496508791666659,3,6.0
mp-1049,SrAs,0.5921449999999999,-1.0798380658333333,0.0,3,0.0
mp-32548,BiO2,0.0,-1.3730464624999996,0.100522711666664,3,0.0
mp-753802,Sc2Ti2O7,5.316914000000001,-3.743531116553032,0.0,3,5.0
mp-772395,LiV(OF)2,3.329463,-2.728781841646667,0.0,3,3.0
mp-34460,Ag3AuS2,2.616234999999999,-0.2874891996875005,0.0,3,2.0
mp-28571,La2Br5,0.7164200000000001,-1.9521112935714289,0.0,3,0.0
mp-775621,MnOF,1.369436,-2.3712484528,0.0277017137499946,3,1.0
mp-9856,Cs2ZrSe3,2.177849,-1.3945116392968753,0.0,3,2.0
mp-754937,LiTi3O6,0.0,-3.3086270447499984,0.0296454987499856,3,0.0
mp-756361,ZrSeO,2.952392,-2.5469619557812506,0.0362469150000031,3,3.0
mp-37920,AgAuS2,1.101775,-0.2713911195312501,0.0,3,1.0
mp-14222,TlGaO2,3.107176,-1.6161606106250002,0.1181305012499995,3,3.0
mp-1011709,Cs2Se,2.567032,-1.0531261603645836,0.020465549166666,3,2.0
mp-1638,SrAl2,0.0,-0.2533515733333331,0.0087164716666672,3,0.0
mp-776092,Li3V2F9,3.264392999999999,-3.148008878265,0.0788848340476109,3,3.0
mp-975384,RbBiO3,0.0,-1.4610370877499996,0.0,3,0.0
mp-19039,CdMoO4,3.5259270000000003,-1.8925705091666665,0.0,3,3.0
mp-4079,Sc3AlC,0.0,-0.5926219435000007,0.0,3,0.0
mp-2783,Ta2Si,0.0,-0.5542896516666657,0.0060676566666675,3,0.0
mp-33997,TaO2F,3.527391,-3.3538416684225005,0.0855696287499956,3,3.0
mp-975079,MnZn3,0.0,-0.0114341962499997,0.0089757525000062,3,0.0
mp-32811,Ag2Te,0.0,-0.02706816,0.0367813791666691,3,0.0
mp-27380,FeMo3S4,0.0,-0.8704459032812508,0.1094941307142853,3,0.0
mp-18726,CrNiO4,2.817583,-1.4578270924999994,0.0,3,2.0
mp-973674,HgN,0.0,1.404392946310001,1.404392946310001,3,0.0
mp-756654,SbOF,3.696496,-2.1354713191466668,0.0829909843750025,3,3.0
mp-12815,Na2LiAu3,0.0,-0.4380079541666671,0.0,3,0.0
mp-2474,YAg,0.0,-0.3381628812500006,0.0,3,0.0
mp-3637,YOF,6.547062,-4.249713323313332,0.0,3,6.0
mp-9575,LiBeSb,1.798548,-0.2442502316666667,0.0392186844444442,3,1.0
mp-23223,TiI3,0.0,-0.8011616216666666,0.0051078293749999,3,0.0
mp-561,Nb3Se4,0.0,-0.8617348691964283,0.0,3,0.0
mp-1008278,Cr3Ni,0.0,0.1404185674999993,0.1482923199999994,3,0.0
mp-11495,LuRu,0.0,-0.4631008925,0.0,3,0.0
mp-1336,PdO,0.62351786,-0.7986305531250002,0.0,3,0.0
mp-775721,Li2FeCo3O8,0.0,-1.560605307857143,0.0748944524776833,3,0.0
mp-11620,ZnNi3Sb2,0.0,-0.0425513858333334,0.2175268025000001,3,0.0
mp-983565,CuBSe2,2.571355999999999,-0.1118196659635417,0.0,3,2.0
mp-555037,TaS2,0.0,-1.4728512160416674,0.0204855266666736,3,0.0
mp-23297,BrF3,3.867298,-1.2539411996425,0.0,3,3.0
mp-542112,CaZrO3,4.772634,-3.4912949827500017,0.1922258345000092,3,4.0
mp-753378,TaGaO4,4.859376,-2.875552729166668,0.0318584058333311,3,4.0
mp-16775,CdCu2,0.0,0.0122327191666666,0.0122327191666666,3,0.0
mp-27388,Ba(SiNi)2,0.0,-0.5532316850000008,0.0,3,0.0
mp-756439,SrLaBr5,4.061234,-2.02770911,0.0533322639285698,3,4.0
mp-559934,LiZnPO4,5.99077997,-2.5600804829421757,0.0011648533928507,3,6.0
mp-556788,SiO2,6.581842,-3.0427320958333333,0.2419808116666661,3,6.0
mp-540803,Sr3(LiSb)4,0.0,-0.8734758136363635,0.0,3,0.0
mp-1009651,CaHg2,1.39808338,-0.1649925233333333,0.2787364000000008,3,1.0
mp-2741,CaF2,9.09094359,-4.238092204126667,0.0,3,7.0
mp-11557,ScRe2,0.0,-0.3441682399999995,0.0,3,0.0
mp-25054,MoPbO4,3.7304,-2.0005330366666656,0.0,3,3.0
mp-13275,NaSrP,1.946999,-0.8038368632539689,0.0,3,1.0
mp-19438,LiMnO4,2.642896,-1.4234318318266663,0.1426988720486095,3,2.0
mp-971944,SrMg3,0.0,-0.0123077499999999,0.0700316281249997,3,0.0
mp-753747,Ta3O7F,3.696286,-3.3967568177218186,0.0,3,3.0
mp-19817,Y3InC,0.0,-0.5450184970000003,0.0,3,0.0
mp-23197,TlI,2.5525961,-0.6295235675000002,0.051753455,3,2.0
mp-2513,As2Pt,0.439909999999999,-0.5184761108333333,0.0,3,0.0
mp-983235,Tl3Pb,0.0,0.0120671762499999,0.0120671762499999,3,0.0
mp-20289,NaInS2,2.511748,-1.20677190328125,0.0,3,2.0
mp-11174,K2IrF6,0.813634,-2.4884460463488893,0.0,3,0.0
mp-27243,K2PtBr4,2.80679,-1.1417079857142851,0.0058876835714292,3,2.0
mp-772730,Li2Mn3VO8,0.0,-2.1550373352057157,0.085238513928572,3,0.0
mp-560387,Cs2Al2P2O9,6.444643,-3.014254109162699,0.0,3,6.0
mp-912,LaPt2,0.0,-1.078844116666667,0.0,3,0.0
mp-9008,RbTeAu,1.844939,-0.6875949316666669,0.0,3,1.0
mp-4499,MgAlSi,0.0,-0.0396145374999997,0.0200356534259285,3,0.0
mp-770578,GeWO4,1.897001,-1.868603165,0.1944736941666676,3,1.0
mp-754870,Li2RhO3,0.0,-1.7680969497916668,0.0,3,0.0
mp-976273,Hf3Ge2,0.0,-0.6994384849999988,0.0,3,0.0
mp-767212,MnPO4,1.853648,-2.363963073175872,0.093865609583343,3,1.0
mp-558430,BaB2F8,10.122796,-3.5633084720775754,0.0,3,7.0
mp-756168,Li2Nb4O11,3.9930939999999993,-2.905944473749998,0.0661144799999959,3,4.0
mp-13820,Cd3SiO5,2.168136,-2.0584105601388885,0.0,3,2.0
mp-23163,CsBi2,0.0,-0.286034281666667,0.0,3,0.0
mp-27337,Xe(OF)2,3.680972,0.0559377820240001,0.5317651905000003,3,3.0
mp-4771,TiAlCu2,0.0,-0.3057252891666673,0.0,3,0.0
mp-3567,NaVSe2,0.0,-0.8579773205468753,0.0029341406818232,3,0.0
mp-560558,CsCdAuS2,3.121824,-0.994065715625,0.0006173320000004,3,3.0
mp-981934,LaBeO3,0.0,-2.9328431637500003,0.2560983178750025,3,0.0
mp-559808,Cs3PO4,5.02003906,-2.4979165966369044,0.0,3,5.0
mp-18817,NiSeO4,3.46852,-1.1066925672656247,0.0,3,3.0
mp-7534,K2Cd2O3,1.712879,-1.436965560535714,0.0,3,1.0
mp-1008875,Mn2Sb,0.0,0.0513506450000006,0.0738166083333329,3,0.0
mp-2647,Al2Au,0.0,-0.4176281333333331,0.0031178466666661,3,0.0
mp-9561,VS2,0.5685549999999999,-1.2911211060416672,0.0201215833333341,3,0.0
mp-341,PbF4,3.4058397,-2.2176629809520003,0.0,3,3.0
mp-31793,FeP2O7,0.129888999999999,-2.300213083494046,0.0763085169791688,3,0.0
mp-4697,Zn(CrSe2)2,1.051944,-0.5862739356249997,0.0,3,1.0
mp-974973,HfZrZn2,0.0,-0.235774751250001,0.0102311112499995,3,0.0
mp-770543,Mn2O3,0.0,-1.9687685391340009,0.0592542426250002,3,0.0
mp-25046,MnPH2O5,2.779102,-2.1344719325050256,0.0,3,2.0
mp-771554,FeCo3O8,0.0,-1.1305043616666666,0.1157687741145832,3,0.0
mp-13907,CdSnF6,5.598434,-2.7392092858925,0.0,3,5.0
mp-767193,Mn7O7F,0.0,-2.052222954777331,0.0616122933333418,3,0.0
mp-9813,WS2,1.94745445,-1.2599060293750004,0.0038224949999747,3,1.0
mp-767301,Li3Co2(SiO4)2,1.613729999999999,-2.3965590580000007,0.0992118528333012,3,1.0
mp-11869,HfSnPd,0.6215062,-0.7199772966666664,0.0,3,0.0
mp-557752,CsHSO4,7.068699,-2.0893436489546424,0.0021582792857195,3,7.0
mp-12521,SrNi3Ge2,0.0,-0.4499655050000004,0.0,3,0.0
mp-867841,GaTc,0.0,-0.0964008899999999,0.0,3,0.0
mp-557837,SiO2,7.157380999999999,-3.2785408849999995,0.0061720224999994,3,7.0
mp-947,Au2S,3.003052,-0.2923078013541674,0.0,3,3.0
mp-979919,TaO3,0.0,-1.8285265246874989,1.107050893593751,3,0.0
mp-867916,ScGaIr2,0.0,-0.7891389199999992,0.0,3,0.0
mp-768537,Cs3TlO3,2.750653,-1.3733126912500002,0.0106251242857133,3,2.0
mp-27838,Na3Bi,0.344394,-0.3773823125000002,0.0,3,0.0
mp-769756,Co(BiO3)2,0.0,-1.3444361263888882,0.0212259251851847,3,0.0
mp-13126,ZrN,0.0,-1.4258242986899994,0.4444142275000012,3,0.0
mp-2511,PbF2,5.540461,-2.678067805793333,0.0227664116666677,3,5.0
mp-560008,PNF2,6.9532229999999995,-2.077769441963809,0.0,3,7.0
mp-549389,Li4CO4,7.849156,-2.0131444402777774,0.1843644944444449,3,7.0
mp-976128,Hf5Sc,0.0,-0.0132769958333322,0.0,3,0.0
mp-557938,HfVF6,3.625223,-3.7927551602675,0.0,3,3.0
mp-75,Nb,0.0,0.0,0.0,3,0.0
mp-975382,RbCaO3,0.0,-1.4964428747499994,0.4085147659999997,3,0.0
mp-3340,TaAlCo2,0.0,-0.4632442599999997,0.0,3,0.0
mp-3143,Na2SO4,6.672296,-2.3191850012946427,0.0038886057142857,3,6.0
mp-3654,RbCaF3,8.291551,-3.7348574617139993,0.0,3,7.0
mp-977117,NaTeO3,0.0,-1.6026507717500005,0.1328441075624962,3,0.0
mp-1539,ZrTe,0.0,-0.8998231850000007,0.0,3,0.0
mp-27544,Cs3Bi2Br9,3.043868,-1.2742633157142849,0.0,3,3.0
mp-755032,Cu3(TeO5)2,1.304459,-1.0932087174999991,0.0414120275000104,3,1.0
mp-7767,RbAgF3,0.0,-2.151005784714,0.0,3,0.0
mp-19306,Fe3O4,0.0,-1.84005894,0.0,3,0.0
mp-771857,LiTiVO5,3.055106999999999,-2.761381537239584,0.083547369583357,3,3.0
mp-9479,Mg(AlSe2)2,1.896588,-0.956965354910714,0.0027079171428576,3,1.0
mp-972879,Sc2RuAu,0.0,-0.67499709375,0.0,3,0.0
mp-772392,LiTiVO4,1.766712,-2.9430352573809526,0.0,3,1.0
mp-18809,Li2VGeO5,3.211149,-2.3895490723611106,0.0027156438889113,3,3.0
mp-23722,HCl,0.0,0.3976033840600002,1.27314523,3,0.0
mp-2478,NbSi2,0.0,-0.5452688166666664,0.0,3,0.0
mp-978292,MgP,0.0,-0.4014073657142857,0.1767388728333321,3,0.0
mp-1145,TiB2,0.0,-1.0577434066666669,0.0,3,0.0
mp-984873,Al3Fe,0.0,-0.1528928937499998,0.0832940422500003,3,0.0
mp-1848,Te2Ru,0.727636,-0.3278779408333339,0.0060891758333321,3,0.0
mp-556646,RbFeF4,3.542084,-2.9115334724599986,0.0161902508333344,3,3.0
mp-3861,Al(MoS2)4,0.0,-1.2365748294230772,0.026444256435897,3,0.0
mp-9693,K2SnSe3,2.411729,-0.8938144017968744,0.0,3,2.0
mp-755796,Li2FeS2,1.20277,-1.0066616466250005,0.2678756680000012,3,1.0
mp-20133,NbCrN,0.0,-0.8281024166266668,0.0073983841666667,3,0.0
mp-28317,NaCu5S3,0.4570639999999999,-0.3868275463541669,0.1674681704166642,3,0.0
mp-10152,La(SiIr)2,0.0,-1.0295312190000003,0.0116133210000004,3,0.0
mp-10572,NaPN2,6.131455,-0.8288254769638091,0.0,3,6.0
mp-1639,BN,6.09524778,-1.395965239523333,0.0761521374999993,3,6.0
mp-24416,MnH,0.0,0.1667886706900008,0.1667886706900008,3,0.0
mp-1008556,AlGaN2,3.854211,-1.1131028136899994,0.0155132500000005,3,3.0
mp-1008820,PdN2,0.0,1.4037831550800004,1.4037831550799984,3,0.0
mp-23231,AgBr,2.02991683,-0.3345463849999999,0.037009185,3,2.0
mp-556012,NaCSN,5.016207,-0.5682734041106254,0.0595234718749999,3,5.0
mp-5473,CaMgSi,0.297932,-0.4321344500000001,0.0,3,0.0
mp-768479,YScO3,4.847037999999999,-3.955734367249998,0.0306023803750008,3,4.0
mp-12385,Ba2YTaO6,4.9928230000000005,-3.5887249380000013,0.0,3,5.0
mp-4165,TaNO,3.199,-2.285303897876665,0.0,3,3.0
mp-867317,Cu3Si,0.0,-0.0547528762500002,0.0115050954999986,3,0.0
mp-23411,K2TeBr6,2.5916,-1.0346625055555556,0.0125282899999996,3,2.0
mp-1009751,ScC,0.0,0.4751424512499991,0.920500842983868,3,0.0
mp-1882,CaCu5,0.0,-0.1177368800000001,0.0,3,0.0
mp-704745,Cu8O,0.0,-0.0372983056944444,0.1791179027777785,3,0.0
mp-10418,RbSbO2,3.548838,-1.879695391874999,0.0,3,3.0
mp-11251,Mg3Au,0.0,-0.1960186049999999,0.2100505824999996,3,0.0
mp-758052,LiCuF3,0.0,-2.352662941714,0.0086639769999976,3,0.0
mp-754629,WN2,1.953028,-0.4524111015866655,0.0686683099999996,3,1.0
mp-11583,Zr2SN2,1.459268,-1.9329020507645,0.0,3,1.0
mp-24897,Cr3O,0.0,0.7927156071875006,1.7717052212499995,3,0.0
mp-19302,NaCaVO4,5.085691,-2.7829438171428578,0.0,3,5.0
mp-1009694,ReN,0.0,0.8617812113100012,1.0032143783333345,3,0.0
mp-20162,InAgS2,0.676685,-0.6789367770312502,0.0893981900000007,3,0.0
mp-754065,Hg(SbO3)2,1.423093999999999,-1.638200780833334,0.0,3,1.0
mp-757470,K2ZnP4(HO2)8,6.89677395,-2.1634972550432567,0.0005709444032282,3,7.0
mp-10641,Sc,0.0,0.10722085,0.10722085,3,0.0
mp-543085,La4NiO8,1.952003,-3.0755158838461543,0.0788245984134619,3,1.0
mp-752525,LiAgF2,3.617001,-2.12324355997,0.066116488125,3,3.0
mp-972275,Ti2ReRu,0.0,-0.5716793583333342,0.0120549850000006,3,0.0
mp-556660,CO,7.32066,-0.6500143118750001,0.6877606837500041,3,7.0
mp-1935,BaMg2,0.0,-0.0820150708333331,0.0,3,0.0
mp-545387,K4CO4,3.83648,-1.556158149166667,0.284323577222219,3,3.0
mp-31906,MnReO4,0.247892999999999,-2.0824147793266654,0.0504297499999992,3,0.0
mp-4938,ScCo3B2,0.0,-0.5422449872222224,0.0,3,0.0
mp-553942,Cu2S,0.0,-0.1275110180208329,0.2344663237500004,3,0.0
mp-554396,Mg2SiO4,5.864188,-3.0129536857142853,0.2230413874999994,3,5.0
mp-12990,Ti2AlC,0.0,-0.7002945577083342,0.0,3,0.0
mp-553342,CsBe2BO3F2,7.415056,-3.186070664755185,0.0,3,7.0
mp-773510,TiV2CrO10,2.45781,-2.2864799456547624,0.0948093977678556,3,2.0
mp-774873,NbS2,0.0,-1.4160230543750008,0.0391808700000009,3,0.0
mp-34611,ZnAgAs,0.0,0.0296642933333336,0.1273244519270844,3,0.0
mp-4612,TiCo2Ge,0.0,-0.4964841254166671,0.0,3,0.0
mp-1821,WSe2,1.917704,-0.5595532740625005,0.0,3,1.0
mp-755318,ScHO2,5.360912,-2.95843780528,0.0536866912500002,3,5.0
mp-867352,TcRh3,0.0,-0.0776839500000008,0.0,3,0.0
mp-19339,LaNiO3,0.0,-2.3726420547500005,0.0,3,0.0
mp-9675,Cs3BP2,2.305303,-0.407140630476191,0.0,3,2.0
mp-975274,RbNaO3,0.0,-0.5267154177500004,0.5785062053333347,3,0.0
mp-867264,Re3Os,0.0,-0.0649944874999999,0.0,3,0.0
mp-20067,Na5OsO6,1.227998,-1.8164125372916664,0.0,3,1.0
mp-12015,KAg2AsO4,1.662865,-1.3657331712500005,0.0,3,1.0
mp-772260,Li10Ti4O13,5.566037,-2.818366878070988,0.0851530000000062,3,5.0
mp-978496,SiB4,0.0,0.2494505553333321,0.2820839538333333,3,0.0
mp-983609,MgIn5,0.0,-0.0088202883333335,0.0237737949999998,3,0.0
mp-624,B6As,3.452613,-0.1702461785714289,0.0,3,3.0
mp-776170,LiTi2O4,0.271866,-3.220405029404763,0.0404853267856974,3,0.0
mp-7708,TlCdS2,0.0,-0.6119570620312502,0.1678727800781269,3,0.0
mp-23141,Sr5P3BrO12,6.54926066,-3.287009709727891,0.0,3,6.0
mp-771684,LiMg2Mn3O8,0.0,-2.32483433592,0.01855104023217,3,0.0
mp-973681,LuRhO3,1.222952,-1.9039412087500005,0.7213032096249979,3,1.0
mp-1513,Co9S8,0.0,-0.7921593048529421,0.0,3,0.0
mp-979261,TiPd,0.0,-0.5450066583333335,0.0,3,0.0
mp-672271,NbSe2,0.0,-0.4673887582291663,0.3714788474999988,3,0.0
mp-971,K2O,2.972564089999999,-1.2600255937499998,0.0,3,3.0
mp-752699,LiAgF3,1.012332,-2.097258206714,0.0480330009999989,3,1.0
mp-776083,HfSnO3,3.246894,-3.01203669175,0.0691540584999987,3,3.0
mp-1009131,MnAs,0.0,0.1744055875000008,0.4432224037500001,3,0.0
mp-2613,LaCu5,0.0,-0.1475388749999998,0.0,3,0.0
mp-1415,CaSe,3.1083312,-2.017474534296875,0.0,3,3.0
mp-2789,NO2,4.385934,-0.8246280927377777,0.0,3,4.0
mp-775022,LiFeOF,0.0,-2.341548821860001,0.0835815837499973,3,0.0
mp-752670,Li3FeS3,0.0,-1.163698617455358,0.1636204264285714,3,0.0
mp-2533,NbO2,0.0,-2.881031505833333,0.031777025000002,3,0.0
mp-772231,RbCrO2,3.856186,-2.001361120625,0.0,3,3.0
mp-25380,CuPO4F,0.1219965,-1.7468209856121766,0.1152625894821426,3,0.0
mp-11755,Lu6Sb2Mo,0.0,-0.5287751999999999,0.0,3,0.0
mp-561070,FeBiO3,2.5516829999999993,-1.3457940237499997,0.4241064712500009,3,2.0
mp-18032,Nb5Ga4,0.0,-0.3354028466666669,0.0101800174521118,3,0.0
mp-28304,Ca3(AlAs2)2,1.7225929999999992,-0.8305538816666669,0.099437019722222,3,1.0
mp-28505,Ba(AlTe2)2,2.38452,-0.8976935814285706,0.0,3,2.0
mp-31322,La6OsI10,0.604541,-1.3396611079411764,0.0,3,0.0
mp-768240,BaY2F8,9.224586,-4.407253185865455,0.0,3,7.0
mp-11478,GaAg,0.0,0.0506000600000002,0.0828049924999998,3,0.0
mp-15798,MoC,0.0,0.1709502454166672,0.2484653210416674,3,0.0
mp-867141,ReOs3,0.0,-0.0833311175000002,0.0,3,0.0
mp-20195,LaMnGe,0.0,-0.4348898483333332,0.1281925966666666,3,0.0
mp-1232,Mo3Pt,0.0,-0.0931312999999995,0.065577492500001,3,0.0
mp-10456,HfSiPt,0.0,-1.1100613524999996,0.0,3,0.0
mp-101,Ir,0.0,0.0,0.0,3,0.0
mp-773330,Li2Mn3SnO8,0.0,-2.019560412705715,0.0968077684374879,3,0.0
mp-558979,VS2N3Cl2,2.7120640000000003,-0.7060356095981248,0.1361460950449995,3,2.0
mp-16236,KAgSe,1.297359,-0.6692557428645829,0.0,3,1.0
mp-19871,PbAu2,0.0,-0.0719010966666662,0.0,3,0.0
mp-15613,Cu(RhS2)2,0.0,-0.8123243837500007,0.0,3,0.0
mp-10597,Ag,0.0,0.0118011799999999,0.0118011799999999,3,0.0
mp-12947,LaMgCu2,0.0,-0.1753899962499994,0.0034612134374985,3,0.0
mp-557559,S,3.557941,0.0410080241517855,0.0410080241517851,3,3.0
mp-18747,SrMoO3,0.0,-2.59537344475,0.0714404749999992,3,0.0
mp-27178,HgPS3,2.630099,-0.5871780760565478,0.0,3,2.0
mp-771550,Li2V3TeO8,1.166754,-2.2687481928571427,0.0458110349234681,3,1.0
mp-973882,Lu2PdRh,0.0,-0.9867392049999992,0.0154751675000008,3,0.0
mp-2379,CoSi2,0.0,-0.4681386999999996,0.0029558866666663,3,0.0
mp-554198,CaMg(SiO)2,0.0,-1.6570261829166668,0.4759991887500021,3,0.0
mp-974820,Rb3Tc,0.0,1.2356887150000002,1.2356887150000002,3,0.0
mp-36921,Mn2CuO4,0.0,-1.667080958845714,0.0539040554464218,3,0.0
mp-27852,Hg3(TeCl)2,2.608806,-0.5715900609314285,0.0,3,2.0
mp-12814,Ba3SbN,1.463407,-0.8919798454760006,0.0,3,1.0
mp-924129,ZrNiSn,0.5848107300000001,-0.6832787150000001,0.0,3,0.0
mp-18135,Zr4Co7Ge6,0.0,-0.6006803923529418,0.0,3,0.0
mp-10113,ScBIr3,0.0,-0.6430944593333322,0.0,3,0.0
mp-23803,GaHO2,4.435434,-1.9327247615299996,0.0152785656249996,3,4.0
mp-977357,Ta2ReRu,0.0,-0.3738429749999988,0.0,3,0.0
mp-12515,LaZnSbO,0.76112,-1.9385001928125,0.0,3,0.0
mp-8812,Rb2GeF6,7.954060999999999,-3.0653338669044445,0.0,3,7.0
mp-32310,Ba3Ta2NiO9,4.711043,-3.133504689416667,0.0,3,4.0
mp-34688,TiO2,3.555411,-3.511001981388888,0.00782899916668,3,3.0
mp-9145,Rb2SnSe3,2.453115,-0.9075912267968752,0.0,3,2.0
mp-754672,TiO2,4.687019999999999,-3.4862509122222214,0.0325800683333472,3,4.0
mp-1009695,CaB2,0.0,-0.1334092111111111,0.1825852399999989,3,0.0
mp-766823,Li7Ti11O24,0.3256429999999999,-3.2432682962698416,0.0,3,0.0
mp-19384,Ni(AsO3)2,3.5245990000000003,-1.5503590708333332,0.0,3,3.0
mp-770662,CdCoO3,0.704232,-1.20185948775,0.0337586755000005,3,0.0
mp-25092,Ni2As2O7,3.624260999999999,-1.435506979886363,0.0306603712500015,3,3.0
mp-11175,LiZnPS4,3.863418,-1.0409086056207484,0.0,3,3.0
mp-12699,Ca3Au4,0.0,-0.7767420771428577,0.0,3,0.0
mp-558864,CrHgF6,2.57262,-2.3233111846425,0.0,3,2.0
mp-1008275,Cr3Ni,0.0,0.1631402499999996,0.1710140024999997,3,0.0
mp-554883,Al(HO)3,6.694701,-2.106303497087143,0.0303110153571433,3,6.0
mp-16733,Sc2GaC,0.0,-0.527842266875,0.0574272497499999,3,0.0
mp-10054,ZrAs,0.0,-1.0759390575000003,0.0670024624999996,3,0.0
mp-978254,La3Ag,0.0,0.0029793887499991,0.12932535875,3,0.0
mp-27480,Sn2OF2,3.561525999999999,-2.222484391726,0.0,3,3.0
mp-769685,Li2NiBO4,2.289949,-1.9844834689583333,0.0781565944531283,3,2.0
mp-973956,Lu2CdAg,0.0,-0.3117662412499995,0.0,3,0.0
mp-943,Co3S4,0.0,-0.8077886537500001,0.0,3,0.0
mp-32455,VP2O7,2.45256,-2.6088219204940466,0.0332389869999953,3,2.0
mp-25545,MnO2,2.937856,-1.7786308678199998,0.0319381208333329,3,2.0
mp-553374,Cs4Sb2O5,3.566237,-1.8303602669318173,0.0,3,3.0
mp-542054,Hg9(PO4)4,3.049559099999999,-1.6440822328407223,0.0135225852586149,3,3.0
mp-755615,Li3Ti4O8,0.0,-3.0560856744444456,0.0620004290000135,3,0.0
mp-2488,SiOs,1.1516,-0.3668728824999992,0.011948143333333,3,1.0
mp-23241,YBi,0.0,-0.8901937087499991,0.0,3,0.0
mp-1278,Zr2Si,0.0,-0.7794757683333344,0.0,3,0.0
mp-558674,K2NaFeF6,5.125046,-3.021760171213999,0.0,3,5.0
mp-554212,Tl2Ni3S2,0.0,-0.4648467868749999,0.0038360360714282,3,0.0
mp-867212,TcOs3,0.0,-0.0745861487500008,0.0,3,0.0
mp-12549,BaAl9Ni2,0.0,-0.3618084949999994,0.0,3,0.0
mp-35311,ZnCrF6,2.651193,-2.6553872777675,0.0008598187500004,3,2.0
mp-16240,Ag3Sb,0.0,0.0228699525000006,0.0228699525000006,3,0.0
mp-771605,Li2CrFeO4,1.715898999999999,-2.2060039543750003,0.0323085531250084,3,1.0
mp-2851,VSb2,0.0,-0.0608423483333335,0.0334722794444459,3,0.0
mp-769794,Li2CrO3,3.110155,-2.254349403958333,0.0063566158333356,3,3.0
mp-6986,Ta,0.0,0.2456932700000003,0.2456932700000003,3,0.0
mp-432,NbRu,0.0,-0.1681181224999992,0.0,3,0.0
mp-31939,LiMnPO4,4.87772153,-2.6288790848650345,0.0212791421428564,3,4.0
mp-20083,ScCuSi,0.0,-0.659126012500001,0.0079996863888887,3,0.0
mp-13108,SrHfO3,5.382087,-3.7979277517500014,0.0328721334999997,3,5.0
mp-771725,LiNi3O4,0.0,-1.139774914375001,0.0079727274107135,3,0.0
mp-33816,Rb6Fe2O5,1.7867479999999991,-1.503742701250001,0.0,3,1.0
mp-774332,Na2Co2O3,1.755917999999999,-1.440794879821429,0.0167677623809519,3,1.0
mp-1009483,NiN,0.0,0.91668133881,0.9578065842066676,3,0.0
mp-47,C,4.483277,0.1592270174999992,0.1592270174999992,3,4.0
mp-550,Al12Mo,0.0,-0.11252159,0.0,3,0.0
mp-19940,VAs,0.0,-0.4958719662500002,0.0,3,0.0
mp-555552,KNaSO4,6.751739,-2.3217147770089284,0.0341410476785712,3,6.0
mp-559373,Ge4PbO9,4.917885999999999,-2.038435840089286,0.0062534184821725,3,5.0
mp-19177,CrO2,0.0,-2.0552389575000007,0.0,3,0.0
mp-1994,HfB2,0.0,-1.0237569694444442,0.0,3,0.0
mp-772054,LiMnVO4,1.013884,-2.2891598108514293,0.0960272364285677,3,1.0
mp-1172,MgRh,0.0,-0.4672153349999997,0.0,3,0.0
mp-35759,Li2NiF4,5.379917,-2.7393240813942863,0.0,3,5.0
mp-1009766,AgN,0.0,1.5378644238100003,1.5378644238100003,3,0.0