mpid,formula,BG,FE,e_hull,fidelity,BG_category
mp-773308,Li2MnCrO4,0.0,-2.254352628244999,0.0247221675000206,3,0.0
mp-1406,MnTe,0.219011799999999,-0.0381750149999993,0.0544118524999994,3,0.0
mp-976258,EuPtO3,0.0,-1.7552390917500005,0.2428015800000018,3,0.0
mp-703272,K5NO4,0.0,-1.135771608738,0.192011911499998,3,0.0
mp-10680,BaSe,2.10510166,-1.8476195792968748,0.2005000400000014,3,2.0
mp-16526,AlPt2,0.0,-0.8611489191666664,0.0015399508333384,3,0.0
mp-977552,Be3Tc,0.0,-0.2694637162500006,0.0,3,0.0
mp-767656,Nb4VO12,2.869519,-2.8985865426470574,0.0540887282352926,3,2.0
mp-18721,Mn2P2O7,4.474342999999999,-2.6016711960782253,0.0,3,4.0
mp-769933,NiHgO2,1.674618999999999,-0.769650000625,0.0,3,1.0
mp-772090,Li4Ti9O20,4.761947,-3.30028806530303,0.028384333636378,3,4.0
mp-766952,LiVF4,3.151298,-3.158536809126668,0.0701860975000094,3,3.0
mp-768114,Li6Ti9O20,0.0,-3.235685269428572,0.0029314380476268,3,0.0
mp-23482,BaBiO3,0.126327,-2.2448109727500007,0.001719422499999,3,0.0
mp-1961,TiAg,0.0,0.0999118041666662,0.1653383699999997,3,0.0
mp-976582,HfSb3,0.0,0.0777302437499996,0.3884289887500003,3,0.0
mp-10144,B2W,0.0,-0.0779343144444458,0.2560289933333326,3,0.0
mp-541780,CoH2SeO4,3.95357,-1.346882402291719,0.0179034173958356,3,4.0
mp-2874,In2Si2O7,4.135094,-2.706976320795455,0.0048067636363642,3,4.0
mp-557632,K2LiBO3,5.270268,-2.361553781488096,0.0,3,5.0
mp-770150,TlCoO3,0.0,-1.1350802497500012,0.0906481353750017,3,0.0
mp-19188,Ba3Mn2O8,2.995074,-2.433325613224615,0.0,3,3.0
mp-775020,Mn2OF3,0.024874,-2.6202708811233326,0.0728698743750051,3,0.0
mp-961705,TiPtPb,0.0,-0.0958254655555552,0.5228712950000007,3,0.0
mp-778712,LiFeF5,1.923316,-2.5417899465642853,0.0,3,1.0
mp-3522,MgCuSb,0.0,-0.2733721383333337,0.0,3,0.0
mp-974568,Re3Bi,0.0,0.9916885675000008,0.9916885675000008,3,0.0
mp-154,N2,9.96459099,8.881784197001252e-16,8.881784197001252e-16,3,7.0
mp-9472,LiAg2Ge,0.0,-0.1619365212499999,0.0,3,0.0
mp-773253,Li2MnSnO4,1.792284,-2.139465543869999,0.0394008059375004,3,1.0
mp-12581,CdTe,0.0,0.0197940975000001,0.4823168500000001,3,0.0
mp-753495,Sb3O7F,0.0,-1.8169682763581831,0.039255668590906,3,0.0
mp-645330,Cs4CO4,2.546196,-1.5708829547222225,0.2255446944444461,3,2.0
mp-18779,Na2CrO4,4.160211,-2.010304077142857,0.0,3,4.0
mp-28150,BaNb2O6,3.98942,-3.2313031897222215,0.0,3,4.0
mp-770957,Be(CoO2)2,0.0,-1.8300457685714289,0.0124150223214334,3,0.0
mp-19322,BaMoO3,0.0,-2.59530442075,0.0,3,0.0
mp-2567,V3Si,0.0,-0.4652579024999994,0.0,3,0.0
mp-39542,KRb2ZrOF5,5.869486,-3.38063418622,0.0210687097499979,3,5.0
mp-755071,SnO2,1.815667,-2.0679014558333333,0.0569533533333341,3,1.0
mp-546790,LaCuTeO,2.623127,-2.0771265053125,0.0069480406250006,3,2.0
mp-972042,Zn3Cu,0.0,-0.0642499662499997,0.0012775112500005,3,0.0
mp-979911,Y2Au,0.0,-0.6503831400000001,0.0,3,0.0
mp-1009080,HoCd2,0.0,0.116909255,0.4272560266666669,3,0.0
mp-10849,AsPdSe,0.0,-0.3549164586979169,0.0,3,0.0
mp-555156,MnCrF5,3.346489,-3.010649446701429,0.005564272857141,3,3.0
mp-6782,Li2ZrTeO6,4.332635,-2.5122115817500004,0.0123712265000035,3,4.0
mp-755999,Rb2Be2O3,4.416052,-2.3799057548214293,0.011541034285714,3,4.0
mp-977543,ZrInRh2,0.0,-0.7304622824999996,0.0,3,0.0
mp-24,C,3.80304093,0.8310882887499993,0.8310882887499993,3,3.0
mp-18198,ScSnPt,0.0,-1.0051891461111115,0.0,3,0.0
mp-1326,Nb3Sn,0.0,-0.1552216362499994,0.0,3,0.0
mp-24289,HPd,0.0,-0.1372483193100002,0.0,3,0.0
mp-756437,SrLaBr5,4.377946,-2.037200117857143,0.0438412560714267,3,4.0
mp-12509,YZnPO,2.043004,-2.04129176921131,0.0,3,2.0
mp-978857,SrHgO2,3.613774999999999,-2.053633100625,0.0,3,3.0
mp-11482,MoIr3,0.0,-0.3211098699999989,0.0,3,0.0
mp-775530,Li2Ti3FeO8,0.0,-2.8977871899999994,0.1503756478571194,3,0.0
mp-555359,KMnF3,3.915156999999999,-3.0423260819060007,0.0001832339999969,3,3.0
mp-38856,Mn2FeO4,0.0,-1.97606262956,0.0388506114285789,3,0.0
mp-13984,CdPdF6,3.65794,-1.9694691615175,0.0,3,3.0
mp-4533,Na2SiO3,5.44708,-2.715942377291667,0.0,3,5.0
mp-13854,B3Ru2,0.0,-0.3329817149999997,0.0,3,0.0
mp-752733,TiGa2O5,3.989305,-2.6681221841145835,0.0769787178124987,3,4.0
mp-973983,NiPd3,0.0,0.088884395,0.088884395,3,0.0
mp-975405,RbAuO3,0.0,-0.5300150567499997,0.3875999507500003,3,0.0
mp-11472,SrHg2,0.0,-0.4817259766666666,0.0010420016666667,3,0.0
mp-775228,LiFeSiO4,4.165162,-2.5992216235714287,0.0227955299999926,3,4.0
mp-554601,RbCuF3,0.0,-2.3420417157139988,0.013125488,3,0.0
mp-10367,HfSbRh,0.0,-0.1940432599999996,0.4902650130128211,3,0.0
mp-753360,BiOF,4.000856000000001,-2.190072239980001,0.0525008308333321,3,4.0
mp-34465,Li2HN,4.185611,-0.5622239602499994,0.0562972065625002,3,4.0
mp-11248,LiAu3,0.0,-0.3591073800000002,0.0,3,0.0
mp-552454,SrTaNO2,2.201919,-2.720699469976002,0.0459313424999798,3,2.0
mp-982779,NbTe,0.0,-0.1297337299999998,0.2697873990625013,3,0.0
mp-772731,Li2Co3TeO8,0.0,-1.612313958571429,0.078166562500046,3,0.0
mp-973342,SbRh3,0.0,-0.2626378312500002,0.0105350331250004,3,0.0
mp-559146,La2MoO6,4.6501660000000005,-3.1679510319444457,0.0602981616666635,3,4.0
mp-722860,Na2MgH4(SO4)2,6.22011,-1.9878891354473525,0.0292115646766948,3,6.0
mp-976968,NaPdO3,0.0,-0.7824536997500005,0.2212660865625002,3,0.0
mp-18819,Ni2P2O7,4.09777,-2.1224694122673147,0.0100211729545458,3,4.0
mp-773461,Li4MgCo3O8,0.0,-1.92707598375,0.0260547868749885,3,0.0
mp-16544,Mg4As6Ir7,0.0,-0.4392897005882349,0.0,3,0.0
mp-769002,Li2BiO3,0.0,-1.8515675972916668,0.0295449900000006,3,0.0
mp-11190,VSi2,0.0,-0.4830566400000009,1.5555555554769285e-06,3,0.0
mp-553432,TiO2,5.221668,-3.4678249830555563,0.0510059975000132,3,5.0
mp-12883,P,4.440197,0.1351623744047616,0.1351623744047616,3,4.0
mp-2019,LaRu2,0.0,-0.11663755,0.0,3,0.0
mp-739,TiP,0.0,-1.1864285636309535,0.0,3,0.0
mp-27227,LiAg3O2,1.753890999999999,-0.8182622929166664,0.0,3,1.0
mp-32056,Mo(PO4)2,2.1443715699999992,-2.3744703860173164,0.0035040943181803,3,2.0
mp-2653,BN,6.83115472,-1.3786182195233323,0.0934991575000001,3,6.0
mp-38505,GaCuSe2,0.0,-0.2415835030468747,0.2361767675000017,3,0.0
mp-766854,Cr3(OF)2,2.209161,-2.2494133192685704,0.0847221650000005,3,2.0
mp-1880,SbF3,5.389639,-2.7073364633925,0.0,3,5.0
mp-1580,NbN,0.0,-1.05102087619,0.2022303250000004,3,0.0
mp-10760,MgSe,2.581415,-1.2355583492968751,0.0188222549999999,3,2.0
mp-769655,Mg2CoO4,2.202101,-2.1908290807142854,0.0627345256250002,3,2.0
mp-2658,AlFe,0.0,-0.3304594550000006,0.0,3,0.0
mp-776493,LiVF4,3.373961,-3.1582432816266666,0.070479624999991,3,3.0
mp-554304,Bi2Pd3S2,0.0,-0.4878027040178569,0.0630226028571403,3,0.0
mp-25100,Ni2GeO4,3.322622,-1.5047507871428576,0.0,3,3.0
mp-19363,HgMoO4,3.490025,-1.609815889999999,0.0,3,3.0
mp-754071,Pb2O3,0.5651930000000001,-1.3307442377500005,0.0869878849999921,3,0.0
mp-558,YMn2,0.0,0.158827284166667,0.1588272841666658,3,0.0
mp-1009489,RbTe,0.0,-0.4007136650000001,0.4431436625000002,3,0.0
mp-554051,H6CNF,7.585619,-0.8161965097544441,0.0731563356944446,3,7.0
mp-976082,Mn2GaW,0.0,-0.0631728749999993,0.0015473175,3,0.0
mp-3433,YMgNi4,0.0,-0.3922482437500007,0.0,3,0.0
mp-867613,LiTi4O8,0.21781,-3.3491941800000005,0.0307456951281981,3,0.0
mp-7289,K2Te3,1.277957,-0.7194708339999998,0.0,3,1.0
mp-12773,Zr2Al,0.0,-0.3184542400000001,0.0578520573333323,3,0.0
mp-8696,K3Na(SeO4)2,5.375468,-1.8084447787276776,0.0033651657142854,3,5.0
mp-1008920,Mn2Ge,0.0,0.1366922383333353,0.2526907704166668,3,0.0
mp-28111,K3NO3,1.220828,-1.3568226315899996,0.0,3,1.0
mp-771810,Li2MnNi3O8,0.0,-1.3346668272114286,0.0284383257738101,3,0.0
mp-174,Tl5Te3,0.0,-0.2770040918750003,0.0054349562073863,3,0.0
mp-11023,ScAuO2,2.92337,-2.574029335625,0.0131913173437512,3,2.0
mp-1014509,Cr3N2,0.0,0.5630765330480016,1.1432803819999986,3,0.0
mp-148,Ge,0.0,0.2401346787500005,0.2401346787500005,3,0.0
mp-9235,LaNiSb,0.0,-0.8773166400000001,0.0,3,0.0
mp-752539,Cs2Ba2O3,2.6418299999999992,-2.061156511964286,0.0812778800000009,3,2.0
mp-769702,LiMn4O8,1.477752,-1.9235008172184624,0.0334642429807647,3,1.0
mp-867270,Be2CoPt,0.0,-0.5876930475000002,0.0,3,0.0
mp-978856,SrH3,0.0,-0.1285765664649996,0.3487646653450001,3,0.0
mp-976331,LiLuO3,0.0,-2.20803978075,0.5214124512500007,3,0.0
mp-554799,VF4,3.394145,-3.020603423952,0.0,3,3.0
mp-28613,LiBPt3,0.0,-0.5200118973333332,0.0,3,0.0
mp-13743,K3GaO3,3.855044,-1.9080025483928569,0.0,3,3.0
mp-23791,B(HO)3,7.518028,-1.930892312682381,0.0,3,7.0
mp-23407,Hg(IO3)2,3.833033,-0.8199299486111116,0.0,3,3.0
mp-773257,Mn4NiO8,0.0,-1.6876846272184616,0.0860437904326962,3,0.0
mp-23713,CaH2,4.099146,-0.6512435665799998,0.0,3,4.0
mp-492,TiN,0.0,-1.907854604523334,0.0,3,0.0
mp-972935,ScZnNi2,0.0,-0.4114014662499992,0.0122519367532465,3,0.0
mp-6425,Li3In2(PO4)3,5.53644037,-2.6065449319642857,0.0,3,5.0
mp-556767,ClF3,4.6189350000000005,-1.1136085004575005,0.0071887012499995,3,4.0
mp-754126,CuAuO2,0.0,-0.6760505081249999,0.0274797849999997,3,0.0
mp-971788,VRu3,0.0,-0.1164672287500003,0.0,3,0.0
mp-37879,LiYSe2,2.483867,-1.6870810974218755,0.0176355599999995,3,2.0
mp-15056,NaZr2TiF11,0.902291,-3.7585071866504447,0.0057523859351817,3,0.0
mp-1252,ZrBe2,0.0,-0.1618235366666667,0.033676870666663,3,0.0
mp-755288,LiFeCuS2,0.0,-0.8013450676250009,0.1204451349999997,3,0.0
mp-771748,Li2VFe3O8,1.538336,-2.101974646428571,0.0639826166666637,3,1.0
mp-754663,Na2Be2O3,5.968434,-2.42355106125,0.0353839571428622,3,6.0
mp-19399,Cr2O3,3.529097,-2.3495750737499987,0.0,3,3.0
mp-7560,LuBO3,6.654675,-3.584141697083333,0.0,3,6.0
mp-27330,La3(OsO5)2,0.62063,-2.7970597635,0.0,3,0.0
mp-551736,K4CO4,3.837312,-1.557601245833334,0.2828804805555531,3,3.0
mp-27315,CaTiF6,6.935463,-3.991952325475833,0.0,3,7.0
mp-11021,GaAuO2,0.649668,-1.5158893506250006,0.0068309381249997,3,0.0
mp-756505,Cs3ScO3,3.969322,-2.2915946769642863,0.0053254585714279,3,4.0
mp-7487,BaO,4.099245,-2.701491535625,0.1324158850000003,3,4.0
mp-753515,Sb3O4F,3.224229,-1.8779729745237503,0.0580545007031254,3,3.0
mp-11385,YFe5,0.0,-0.0490903187500014,0.0,3,0.0
mp-756560,Li2Ti3O7,4.112009,-3.207356231979167,0.0500066988541831,3,4.0
mp-11212,LaAsPd,0.0,-1.259320338333333,0.0,3,0.0
mp-752546,LiTi4O8,0.0,-3.2802023251282035,0.0997375499999932,3,0.0
mp-27527,Te2AuI,0.0,-0.0999314012500001,0.00496341375,3,0.0
mp-23217,Bi2Rh,0.0,-0.188004195,0.0,3,0.0
mp-1836,TlSe,0.712735,-0.2763537017968751,0.0,3,0.0
mp-774411,Li2VO2,2.913691,-2.0532123625,0.1027900606666651,3,2.0
mp-504818,MoPO5,2.878237,-2.4070430913350336,0.01322889642854,3,2.0
mp-755210,Y4Cu2O7,3.195378,-3.114456692980769,0.1035314957692303,3,3.0
mp-541299,Zr4Cd(PO4)6,5.48725033,-3.130673820102042,0.0,3,5.0
mp-7784,SbAsO4,4.154672,-1.7440246450000003,0.0108880034722336,3,4.0
mp-1818,SiF4,9.706711,-3.4951551529520004,0.0,3,7.0
mp-13914,LiCo2Ge,0.0,-0.218199103749999,0.0,3,0.0
mp-4527,Li8SnO6,5.306983,-2.1541803395000003,0.0,3,5.0
mp-777167,LiTiO2,0.0,-2.929608633229167,0.0625076728125,3,0.0
mp-1170,SnS2,2.25563044,-0.8217009943749994,0.0,3,2.0
mp-7704,Ca(AlSi)2,0.0,-0.2956921700000002,0.0,3,0.0
mp-773359,Li2VCoO4,2.299175,-2.171676453749999,0.0507047205208355,3,2.0
mp-2001,LaTl3,0.0,-0.3691031412500001,0.0,3,0.0
mp-13596,K2ZrF6,7.950858,-3.680713284126667,0.0011152405555545,3,7.0
mp-546320,Rb4CO4,3.182334,-1.5186097491666668,0.2652228277777775,3,3.0
mp-10487,RbSb,1.233811,-0.4252624862499999,0.0005923724999998,3,1.0
mp-24341,CsBeH3,4.381674999999999,-0.197265935172,0.0,3,4.0
mp-1458,Nb3Ir,0.0,-0.3889443212499994,0.0,3,0.0
mp-12780,Sr(GaAu)2,0.0,-0.5932283819999998,0.0,3,0.0
mp-10521,Y(AlGe)2,0.0,-0.4167910325000001,0.0,3,0.0
mp-545512,CaO,4.432868,-3.246628390625,0.0650846999999998,3,4.0
mp-416,Cr3Os,0.0,0.0129926124999997,0.0129926124999997,3,0.0
mp-976446,MgMnO3,0.473342999999999,-1.8859105309419997,0.4917826249999999,3,0.0
mp-12778,VOs,0.0,-0.2307633224999996,0.0063306583333329,3,0.0
mp-13434,CaMgNi4,0.0,-0.194091373333333,0.0033295766666672,3,0.0
mp-547792,KSbO3,3.860135,-2.0698473097500014,0.0,3,3.0
mp-1008279,Co3Mo,0.0,0.0080642550000007,0.0523972800000009,3,0.0
mp-980109,SnAu3,0.0,-0.0489578637499996,0.0424449137500002,3,0.0
mp-12324,CsVP2S7,1.31302,-1.0342665958752706,0.0,3,1.0
mp-767659,Li3MnFe3O8,1.642007,-1.987628761397333,0.0692194370000001,3,1.0
mp-12086,Cu3Pt,0.0,-0.1368979899999995,0.0,3,0.0
mp-973958,KRuO3,0.0,-1.5458835897500007,0.1079295664999993,3,0.0
mp-1139,Co3Mo,0.0,-0.0443330250000002,0.0,3,0.0
mp-903,ZrCr2,0.0,-0.044378793333332,0.0,3,0.0
mp-11463,LaHg2,0.0,-0.4839903700000002,0.0,3,0.0
mp-985825,Al3Cu,0.0,-0.08638631625,0.0458377987500004,3,0.0
mp-1009014,LiCuO,0.559982,-1.0498011204166655,0.3903837975000002,3,0.0
mp-553281,Ba2LaNbO6,4.418965,-3.4009061247500005,0.0,3,4.0
mp-2542,BeO,9.309849,-3.1151510381249987,0.0,3,7.0
mp-12107,TiPt3,0.0,-0.8567223866666671,0.0030899710714278,3,0.0
mp-20250,PdS,0.0,-0.6848886064062505,0.0,3,0.0
mp-23514,BiSI,2.417652,-0.6236207396875001,0.0028270825,3,2.0
mp-554355,CaF2,7.41625842,-3.9976175407933336,0.2404746633333321,3,7.0
mp-755309,Li3NbS4,3.761742,-1.4733054520312496,0.0066078453125006,3,3.0
mp-924130,TiNiSn,0.597766,-0.5288314605555549,0.0,3,0.0
mp-146,V,0.0,0.0,0.0,3,0.0
mp-18864,Rb2WO4,5.814659000000001,-2.2584622314285707,0.0,3,5.0
mp-14018,K3As,0.593492,-0.3263272000000001,0.0,3,0.0
mp-11462,KHg,0.0,-0.2509423725000001,0.0,3,0.0
mp-773255,Li2CrNiO4,0.0,-1.847773334375,0.0731243337500027,3,0.0
mp-677305,Li17Ti20O40,0.0,-2.9702616545887435,0.0958956296753381,3,0.0
mp-23306,CuI,0.814352,0.0975908924999999,0.2537859150000004,3,0.0
mp-9819,RbAsF6,7.100585000000001,-2.7769695277675,0.0,3,7.0
mp-3909,ZrAlCo2,0.0,-0.5091190025000003,0.0,3,0.0
mp-9657,LiAsO3,4.927638,-2.0017656047500005,0.0,3,5.0
mp-6953,Ca(MnP)2,0.2109339999999999,-0.6823931352380939,0.0678111410714317,3,0.0
mp-542065,CdAgSb,0.0,0.0045300133333334,0.055103555,3,0.0
mp-867243,Sc2ZnOs,0.0,-0.4374666600000001,0.0,3,0.0
mp-36875,Na(CoO2)3,1.205194,-0.8559650492500005,0.5230179574999996,3,1.0
mp-1084,ZrB12,0.0,-0.2116666738461543,0.0172197141025636,3,0.0
mp-766851,Li4V(PO4)2,4.184613000000001,-2.661118657746032,0.0520384933434368,3,4.0
mp-3400,Lu(MnGe)6,0.0,-0.3188005523076913,0.0,3,0.0
mp-961710,VSiPt,0.0,-0.4565258700000001,0.1881450362121226,3,0.0
mp-977164,Li3H3N2,3.227171,-0.6257920088275002,0.0198079476562496,3,3.0
mp-361,Cu2O,1.79744004,-0.6492486254166673,0.0,3,1.0
mp-541,Ta3Sb,0.0,-0.0985144612499997,0.0,3,0.0
mp-7667,K2S3,2.341485999999999,-1.1911399154374998,0.0,3,2.0
mp-23856,LiHO,5.722016,-1.8381989382900004,0.0,3,5.0
mp-557686,ZrVF6,3.363252,-3.6934500858925,0.0,3,3.0
mp-767047,Li2Mn4O7F,0.2019389999999999,-2.1457429627699987,0.0694108786862317,3,0.0
mp-3173,CaAlSi,0.0,-0.3782676266666669,0.0030531999999983,3,0.0
mp-11193,VAuS2,0.258892,-1.0387398482812502,0.0,3,0.0
mp-10200,ZrBeSi,0.0,-0.7452010633333342,0.0,3,0.0
mp-27639,IBr,2.383048,-0.0865501024999999,0.0,3,2.0
mp-753826,LiCuS,2.472768,-0.9393398838541666,0.0220291693750001,3,2.0
mp-8772,ScB12,0.0,-0.2111621992307693,0.0,3,0.0
mp-2767,TiGa,0.0,-0.4637243033333336,0.0,3,0.0
mp-35,Mn,0.0,0.0,0.0,3,0.0
mp-496,SrSi2,0.0,-0.362106806666666,0.0030152150000004,3,0.0
mp-777801,LiFeF4,4.936055,-2.8745858941266667,0.0531609110185273,3,5.0
mp-776618,Li4VCr3O8,2.7005429999999992,-2.423456950625,6.300875000597728e-05,3,2.0
mp-25089,Sr2NiWO6,3.696872,-2.543955952750001,0.0,3,3.0
mp-28567,LiBiF4,5.988344,-2.9486577457933336,0.0,3,6.0
mp-776791,LiFeF4,4.880265,-2.92225494996,0.0054918551851939,3,4.0
mp-7243,LiSnPd2,0.0,-0.6576481387499999,0.0,3,0.0
mp-977382,Ta2VRu,0.0,-0.2750337137500001,0.0,3,0.0
mp-770932,LiSbO3,3.815768,-2.13379501675,0.0,3,3.0
mp-1008807,RbCuO,0.0,-0.2022859737500001,0.9963722883333296,3,0.0
mp-11261,YAu,0.0,-0.8587148662499997,0.03154871,3,0.0
mp-775094,Li2MnFe3O8,0.0,-1.6687232922114268,0.2784706119196443,3,0.0
mp-27682,NaSnS2,0.0,-1.0190951045312504,0.0436132538749998,3,0.0
mp-35777,Mg(InTe2)2,1.317059,-0.4866175471428572,0.0,3,1.0
mp-8914,SrGaSn,0.0,-0.5410889874999997,0.0,3,0.0
mp-979416,Ta2Be2O5,0.0,-1.9902964506944436,0.959856411555556,3,0.0
mp-23229,FeCl2,1.501238,-1.1095534821733335,0.0,3,1.0
mp-23712,MgH2,2.922015,-0.1940377649133337,0.0816815458333328,3,2.0
mp-32432,Mg2VO4,0.013207,-2.764172962142857,0.0986349371428732,3,0.0
mp-770399,Li6Ti2O7,4.021347,-2.7502285711388894,0.0796492566666726,3,4.0
mp-772925,Li4Ti5O12,4.678266000000001,-3.1937390673015877,0.026271285000007,3,4.0
mp-1637,Re2P,0.0,-0.2957716668650789,0.0,3,0.0
mp-556953,RbPS3,2.905803,-1.0827074320565473,0.0,3,2.0
mp-714904,FeO2,0.8848070000000001,-1.3625791758333332,0.2092250972916672,3,0.0
mp-5012,Li2SiO3,6.896147,-2.8965625339583334,0.0,3,7.0
mp-25592,LiNiO2,0.0,-1.3648396806249998,0.0069530506249995,3,0.0
mp-353,Ag2O,1.014284,-0.3294873020833335,0.0,3,1.0
mp-973633,LuSi2Ni,0.0,-0.7925723687500001,0.0,3,0.0
mp-684904,K2O,1.201073,-1.2203308254166665,0.0396947683333328,3,1.0
mp-981310,Tl3Ge,0.0,0.1665542074999999,0.1665542074999999,3,0.0
mp-3474,LaCuO3,0.0,-2.435742040750001,0.0,3,0.0
mp-866816,CaSnS3,0.0,-1.0035314334375005,0.4816950317500002,3,0.0
mp-554328,NaSO4,5.88849,-1.8550891773437488,0.1602619853124993,3,5.0
mp-23301,BiF3,5.211019,-2.5274150808925,0.2703733506250003,3,5.0
mp-28861,CsC8,0.0,-0.0508493733333331,0.0,3,0.0
mp-558781,ScTaO4,5.768883000000001,-3.6714933,0.0,3,5.0
mp-977383,ZnPd2Au,0.0,-0.33196567875,0.0,3,0.0
mp-942702,LiMnSO4F,5.083513,-2.4201967270265623,0.0143302996875025,3,5.0
mp-11540,PtO,0.0,0.1978942643749999,0.9376312262499996,3,0.0
mp-1020,TaRh3,0.0,-0.6060342399999996,0.0,3,0.0
mp-13160,YZnGe,0.0,-0.6802458708333331,0.0,3,0.0
mp-32324,LiNiPO4,4.031103059999999,-2.283129751870749,0.0094247553571467,3,4.0
mp-769937,MnCrO4,1.761591,-1.8925003501600013,0.0404036229166742,3,1.0
mp-755703,LiSbO2,2.9014100000000003,-1.9719442681249992,0.0033848277777766,3,2.0
mp-973123,ScPdO3,0.0,-1.5533385607499994,0.8204817158749975,3,0.0
mp-554465,RbFeF3,0.0,-2.6038324917140003,0.1967572900000007,3,0.0
mp-20180,Mn3GeC,0.0,-0.0523875224999997,0.0432979750869577,3,0.0
mp-1008805,ReC2,0.0,0.4575869566666645,0.4743871754166644,3,0.0
mp-11457,HfRh,0.0,-0.8444876524999998,0.0,3,0.0
mp-14209,LiYGe,0.0,-0.7359456869444448,0.0,3,0.0
mp-975110,RbMg3,0.0,0.2514405175000001,0.2514405175000001,3,0.0
mp-971647,NaMnO2,0.354846,-1.9385167421150005,0.0949933975000014,3,0.0
mp-545379,InBiO3,0.49928,-1.34368756375,0.4952640157499984,3,0.0
mp-25547,MnO2,2.79602788,-1.7976502878199991,0.0129187008333335,3,2.0
mp-721442,PH5(NO2)2,1.154747089999999,-1.0533697463296032,0.4203168284161079,3,1.0
mp-973629,LuAlPd,0.0,-0.8922848966666663,0.0,3,0.0
mp-20278,Fe(BMo)2,0.0,0.5574167603333336,0.9856548060000012,3,0.0
mp-1009848,TcC,0.0,0.5549327562500004,0.5549327562500004,3,0.0
mp-755333,HgO2,1.7759903499999992,-0.0214097775,0.4096897254166682,3,1.0
mp-983566,Ca2AgGe,0.0,-0.4740702262499998,0.0268354896875004,3,0.0
mp-677445,Y4SiS3,0.0,-2.0101327677734373,0.0,3,0.0
mp-554517,NaMnF4,3.380429,-2.9262715042866656,0.0,3,3.0
mp-12696,YMgPd,0.0,-0.6940130952777773,0.0,3,0.0
mp-773300,Mn5FeO12,0.941566,-1.713332497766667,0.0574423716319447,3,0.0
mp-557869,S,3.69297,0.001342646145833,0.001342646145833,3,3.0
mp-40356,BaLaMnMoO6,0.0,-2.691735278846,0.1549947877222237,3,0.0
mp-1554,KTe,0.985157,-0.8399438450000002,0.0001662662499999,3,1.0
mp-19962,Sn2Pt,0.0,-0.4553486233333324,0.0,3,0.0
mp-773338,Mn(SbO3)4,2.188459,-1.743810523291765,0.0406017303186292,3,2.0
mp-12636,PRu,0.0,-0.564713976547619,0.0,3,0.0
mp-556588,SiO2,5.869437,-2.9804921166666665,0.3042207908333339,3,5.0
mp-6494,K2Ca(CO3)2,6.010925999999999,-2.4065545911363646,0.0,3,6.0
mp-13034,MoN,0.0,-0.2230028511899995,0.3253130193750007,3,0.0
mp-3721,SrHfO3,5.703886,-3.8247139167500017,0.0060859684999989,3,5.0
mp-31383,Hf6CoBi2,0.0,-0.2525071155555546,0.0,3,0.0
mp-12118,InCu2,0.0,0.0855871950000004,0.0965972939473682,3,0.0
mp-558096,Zn2SiO4,4.092111,-2.3140175942857137,0.1440315661904732,3,4.0
mp-646507,Hf2Ni2Sn,0.0,-0.5652599210000006,0.0208660269999994,3,0.0
mp-10256,VTe,0.0,-0.1621171550000006,0.1450199925000026,3,0.0
mp-2807,ScP,0.0,-1.4927213890476183,0.0,3,0.0
mp-3857,Ba3(PO4)2,6.802391999999999,-3.3105249381684985,0.0,3,6.0
mp-773764,Cr4OF11,2.763186,-2.88271673933375,0.0328552520572866,3,2.0
mp-37216,CdPbF6,3.417586,-2.3827437390175,0.0,3,3.0
mp-1582,As2O3,5.350602,-1.6345049982499993,0.0065390674999967,3,5.0