mpid,formula,BG,FE,e_hull,fidelity,BG_category
mp-753722,LiCuS2,0.0,-0.8477293170312503,0.0739447085416671,3,0.0
mp-19035,BaFeO3,0.0,-2.2543792287499995,0.0,3,0.0
mp-31002,Rb2Te5,0.851788999999999,-0.5420094285714286,0.0,3,0.0
mp-541013,TiI4,2.030618999999999,-0.7302077473333337,0.0,3,2.0
mp-1008755,SrB2,0.0,0.1818954622222222,0.532806651111108,3,0.0
mp-549565,Li4CO4,5.534479999999999,-1.8813343869444443,0.316174547777778,3,5.0
mp-11473,TlHg,0.0,-0.0260825325,0.0,3,0.0
mp-1734,CaZn5,0.0,-0.2171912208333332,0.0,3,0.0
mp-119,Se,0.0,0.5892225214062496,0.5892225214062496,3,0.0
mp-504723,Ba2NiWO6,4.006725,-2.508088385750001,0.0,3,4.0
mp-9839,K2LiAlF6,9.675288,-3.486183801714,0.0015046900000008,3,7.0
mp-422,BeS,4.277042479999999,-1.3911467395312505,0.0,3,4.0
mp-4678,Zr2AlN,0.0,-1.171814743095,0.022928426041668,3,0.0
mp-15607,Ca(BC)2,0.0,-0.1831838546666674,0.1454579640000011,3,0.0
mp-122,Ba,0.0,0.0,0.0,3,0.0
mp-24237,ScH2,0.0,-0.7661974590799995,0.0,3,0.0
mp-973948,LiHf,0.0,0.3159904175000001,0.3159904175000001,3,0.0
mp-775295,Li2MnCr3O8,0.0,-2.236183077925714,0.0086316924999945,3,0.0
mp-11609,Sb(MoS)2,0.0,-0.7891650486249999,0.0012794045000008,3,0.0
mp-754840,TaAsO4,4.017742,-2.585996628333333,0.0548233445833297,3,4.0
mp-19362,KFe(MoO4)2,2.913658,-2.1209256575000004,0.0,3,2.0
mp-19279,Li2MnO2,3.703741,-2.0364883526919995,0.0090248296666652,3,3.0
mp-557257,KVF3,3.019863,-3.0519392957139995,0.0,3,3.0
mp-773543,Mn2O3F,0.0,-2.053454468643336,0.0513051089583367,3,0.0
mp-776672,Li2NbV3O8,0.874189,-2.562503582857143,0.0934636554910604,3,0.0
mp-554218,Ti4P6PbO24,4.44779243,-2.9944909790068035,0.0,3,4.0
mp-753160,BiOF,4.275277,-2.208004943313333,0.0345681274999991,3,4.0
mp-778022,Na3VO3,1.249801,-1.9356528855357151,0.0651927228571427,3,1.0
mp-675926,LiBH4,6.8804110000000005,-0.3611924935244441,0.0714630316666649,3,6.0
mp-5470,AgPS3,2.462072,-0.5624810390565486,0.009844980333332,3,2.0
mp-767367,VOF,2.937946,-2.8072199658133337,0.0387889166666681,3,2.0
mp-31441,Li2GaIr,0.0,-0.4211003574999999,0.0,3,0.0
mp-753131,Li3Ti4O8,0.0,-3.0590506211111115,0.0590354823333481,3,0.0
mp-10000,Hf2S,0.0,-1.2532243846875015,0.0,3,0.0
mp-975524,InGe3,0.0,0.2980520912500006,0.2980520912500006,3,0.0
mp-19082,TiMnO3,3.571827,-2.9666905962753334,0.0,3,3.0
mp-10110,SiRh,0.0,-0.5376057600000008,0.2812660137499998,3,0.0
mp-546449,BaCu3O4,0.5175529999999999,-1.0937800543749994,0.3844905754166694,3,0.0
mp-485,ZrNi3,0.0,-0.4554116062500002,0.0,3,0.0
mp-16421,Zr2CuSb3,0.0,-0.4660511541666672,0.0517222689583345,3,0.0
mp-1558,SrPd2,0.0,-0.6439056050000005,0.0,3,0.0
mp-557296,Sr2MnSbO6,0.784862,-2.582901559346,0.0039747392499673,3,0.0
mp-8688,V4GeS8,0.0595039999999999,-1.2450468644230772,0.0,3,0.0
mp-973655,LuSiO3,0.0,-2.73235523275,0.8765454669999926,3,0.0
mp-3653,Mg(SbO3)2,2.21456,-2.2438996375,0.0,3,2.0
mp-640079,Mn3Au,0.0,0.3005126858333338,0.341062600833335,3,0.0
mp-1008873,MnCoSe,0.0,-0.0597020461979163,0.1804737583333313,3,0.0
mp-10341,SrGeTeO6,4.448523,-2.2907829669444464,0.0,3,4.0
mp-13132,LaN,0.0,-0.9130786311899994,0.5932459100000003,3,0.0
mp-2323,BeCu,0.0,-0.0910555524999994,0.0112955900000004,3,0.0
mp-976772,NiAg3,0.0,0.1955088700000007,0.1955088700000007,3,0.0
mp-771740,Mn3TeO8,0.0,-1.6767246052400004,0.0692965397135383,3,0.0
mp-37153,AgAsF6,3.412765,-2.2224290377675,0.0,3,3.0
mp-743541,MnPH5CO4,4.57700072,-1.4918939278879375,0.0318887584374953,3,4.0
mp-956096,HfFe2,0.0,-0.3363458016666669,0.0148101766666659,3,0.0
mp-15987,Hf3(Cu2Si)2,0.0,-0.5003773205555552,0.0,3,0.0
mp-540957,Cs2TeI6,2.004958,-0.8312510088888891,0.0,3,2.0
mp-25142,V2Pb3O8,4.0278100000000014,-2.0756805784615384,0.0031253176923007,3,4.0
mp-2410,SrAg5,0.0,-0.187141185,0.0,3,0.0
mp-975140,RbZn4P3,0.792828,-0.2991410305357145,0.0,3,0.0
mp-34903,MgGeP2,2.204503,-0.308858616547619,0.0130066039999992,3,2.0
mp-715514,V2O3,1.144519,-2.5174590087499995,0.0131447752499997,3,1.0
mp-976892,Na(TeMo)3,0.0,-0.4010473485714284,0.0,3,0.0
mp-12673,Lu2SO2,4.271801,-3.6720827393124993,0.0,3,4.0
mp-755463,Li3SbS3,2.698202,-1.2057906231696427,0.0380107971428573,3,2.0
mp-549,ScSb,0.0,-0.9360072524999996,0.0,3,0.0
mp-1008872,MnFeTe,0.0,0.0329748866666671,0.1201819658333338,3,0.0
mp-770101,Li5MnO5,0.0,-1.9956122470190905,0.0616610590909099,3,0.0
mp-8857,Cs2As2Pd,1.72166,-0.5251159070000007,0.0,3,1.0
mp-541238,KTi2(PO4)3,4.20403602,-3.0521527809788376,0.0,3,4.0
mp-18939,LiCo(CO)4,5.368479,-0.9913932224999996,0.3955496038333326,3,5.0
mp-561224,TeO2,3.834484,-1.4966747616666662,0.0126515579166595,3,3.0
mp-32449,VH2O3,2.802177999999999,-1.9168557309983345,0.0206981329166868,3,2.0
mp-7142,OsC,0.0,0.9108525087500006,0.9108525087500006,3,0.0
mp-770601,Fe2HgO4,2.047736999999999,-1.5064558121428564,0.025561923214286,3,2.0
mp-7285,HfNi3,0.0,-0.5349500837499997,0.0020662647499998,3,0.0
mp-757872,Li2Ag3F6,1.414766999999999,-1.9398643206490904,0.0491880454545459,3,1.0
mp-13276,SrLiP,2.115859,-0.9818813243650796,0.0,3,2.0
mp-975204,Rb,0.0,0.00487891,0.00487891,3,0.0
mp-1007761,HW,0.0,0.081810160689999,0.081810160689999,3,0.0
mp-771247,CoTeO4,1.858647,-1.3899457125,0.0197482919444533,3,1.0
mp-774736,LiCuS,3.014453,-0.9604683971874994,0.0009006560416668,3,3.0
mp-973540,LuAlB4,0.0,-0.4949211411111101,0.0035342241666675,3,0.0
mp-24409,PH4I,4.882956999999999,-0.1902976804292061,0.0,3,4.0
mp-775622,Li3MnCo3O8,1.534349,-1.7888155427306658,0.0236386576666634,3,1.0
mp-770037,LiMnSnO4,2.314001,-2.1455867444228565,0.0012798347321263,3,2.0
mp-560586,RbTi2(PO4)3,4.26177975,-3.0434080851455025,0.0010886044444422,3,4.0
mp-1861,Cu2Te,0.0,0.0924015550000003,0.1341654799999991,3,0.0
mp-19029,RbCr4O8,0.875548,-2.1465254284615387,0.037179869711533,3,0.0
mp-10887,HfAlCu2,0.0,-0.3328876687499997,0.0,3,0.0
mp-2772,ZrAl2,0.0,-0.5385220875,0.0,3,0.0
mp-100,Hf,0.0,0.1811112450000003,0.1811112450000003,3,0.0
mp-442,RhPb,0.0,-0.0814543416666673,0.0,3,0.0
mp-7080,Li5(NiN)3,0.0,-0.4741750688309084,0.0,3,0.0
mp-1008489,CdN,0.0,1.15739577631,1.15739577631,3,0.0
mp-3395,SrSeO3,4.995143,-2.3305087614687507,0.0,3,5.0
mp-9205,KSeO2F,4.6583,-1.9533473124567495,0.0,3,4.0
mp-13369,Ba3CaIr2O9,0.0,-2.3668338474166672,0.0209795436666659,3,0.0
mp-973878,Lu3Ga5Ni,0.0,-0.6491236555555561,0.0,3,0.0
mp-771272,MnTlO3,0.0,-1.4456760189420002,0.1273714110625006,3,0.0
mp-753539,SbOF,4.311811,-2.146972081646666,0.0714902218750026,3,4.0
mp-976592,K3Ag,0.0,0.10653116,0.1111439721874998,3,0.0
mp-7392,Na2AgSb,1.301012,-0.3684137000000005,0.0,3,1.0
mp-10769,BaSbAu,0.0,-0.3193084649999995,0.6061747900000003,3,0.0
mp-973599,Hg3As,0.0,0.2841174700000002,0.2841174700000002,3,0.0
mp-542769,Sn(CO2)2,4.088753,-1.5915258157142844,0.0835690999999974,3,4.0
mp-1746,MgF2,8.97804,-3.7804633332933335,0.0667704274999998,3,7.0
mp-10365,MnCoSi,0.0,-0.0444306783333334,0.4128504570833336,3,0.0
mp-26446,Sn4(PO4)3,0.032697359999999,-2.2600826928571425,0.0887391050657768,3,0.0
mp-12071,Ti3As,0.0,-0.4958289962500011,0.0255397555555543,3,0.0
mp-541912,ZrBrN,2.366482,-1.7354825674599998,0.0,3,2.0
mp-974337,RuPbO3,0.0,-1.315138853750001,0.1771851198888896,3,0.0
mp-4406,CaSO4,7.671567,-2.794158568177083,0.0,3,7.0
mp-705604,BaLaFe2Cu2O11,0.0,-1.5054433213970593,0.2812285964338219,3,0.0
mp-32542,Hg2WO4,2.681165,-1.4528048178571424,0.0,3,2.0
mp-961720,ZrAsRh,0.0,-0.3590899716666662,0.5244673593333369,3,0.0
mp-766154,VF5,4.980753,-2.7948810176583336,0.0309618866666667,3,5.0
mp-23289,KCl,6.205380509999999,-2.1729582116299997,0.07788268,3,6.0
mp-559752,CsZnPO4,5.65718433,-2.5266390940136056,0.0017113110714284,3,5.0
mp-752927,LiAgF2,3.420537,-2.174356994345,0.0150030537500001,3,3.0
mp-1009009,LiF,9.734968,-2.907769368095,0.2731108300000002,3,7.0
mp-4233,KMnSb,0.564157999999999,-0.1438782949999998,0.1450502812500005,3,0.0
mp-18900,MgV2O4,0.0,-2.627354183571429,0.090033945714282,3,0.0
mp-20119,PtO2,0.0,-0.1526995541666664,0.7875174433333338,3,0.0
mp-3717,LuBRh3,0.0,-0.835530253333333,0.0,3,0.0
mp-135,Li,0.0,0.0,0.0,3,0.0
mp-20139,Mn3Ge,0.0,-0.0253716087499995,0.0865267675000005,3,0.0
mp-31140,BaBiAu,0.0,-0.279551136666667,0.4053735779166674,3,0.0
mp-1124,MgZn2,0.0,-0.1235083508333332,0.0,3,0.0
mp-20050,InP3,0.0,-0.0625497798214294,0.0502542422023797,3,0.0
mp-13033,MgTe,3.18028675,-0.8733390500000002,0.0008903524999999,3,3.0
mp-24076,Y(HO)3,5.42157,-2.305902083158572,0.0208707224999908,3,5.0
mp-866894,CaSnS3,0.0,-0.9761110994375002,0.5091153657500005,3,0.0
mp-20304,RhN2,0.0,0.108441093413333,0.1084410934133313,3,0.0
mp-977408,NbTlO3,1.014907,-2.3780724377500007,0.0901059687500005,3,1.0
mp-778057,Na2SnO2,3.04505,-1.7434747647500004,0.0,3,3.0
mp-13365,SrZn2,0.0,-0.1889481499999998,0.0498607683333334,3,0.0
mp-753798,Rb2SnO3,3.549426,-1.940188098958334,0.0,3,3.0
mp-540703,Cs2S,2.956943,-1.2050029146875003,0.0,3,3.0
mp-14105,AlTlO2,3.092116,-2.443708294375,0.0273723946590909,3,3.0
mp-867356,TcRu3,0.0,-0.0605345374999988,0.0,3,0.0
mp-27872,MgTi2O4,0.0,-3.2347239147619047,0.0168740785714245,3,0.0
mp-2512,AsPd5,0.0,-0.2677400741666662,0.0,3,0.0
mp-48,C,0.0,0.0,0.0,3,0.0
mp-31098,YB2Ir3,0.0,-0.6788811126388884,0.0,3,0.0
mp-773302,Li3Ti2CrO6,0.0,-2.765153517569446,0.0877198840923334,3,0.0
mp-557523,VS2,0.620246,-1.2924655843750006,0.0187771050000007,3,0.0
mp-774117,V2O3F,0.0,-2.6373141033233325,0.0340952550000039,3,0.0
mp-10229,Nb3Si,0.0,-0.3486416524999996,0.0965349683333354,3,0.0
mp-7140,SiC,2.379597,-0.2019856187500002,0.0035911658333329,3,2.0
mp-19156,BaMnO3,3.023660999999999,-2.473357901942,0.0076998086666657,3,3.0
mp-105,Te,0.0,0.0421421074999996,0.0421421074999996,3,0.0
mp-36751,In5AgS8,0.6333869999999999,-0.905428425892857,0.0,3,0.0
mp-8927,TaCuN2,1.73388127,-0.7305245036899999,0.1273786989683323,3,1.0
mp-3810,Hg(AsO3)2,1.885176,-1.4849195052777786,0.0,3,1.0
mp-769889,TaFeO4,3.348687,-2.7636967866666686,0.0051070441666638,3,3.0
mp-11009,CaC2(SN)2,4.529298,-0.7060119596978579,0.0865027762332664,3,4.0
mp-971700,ZnAuO3,0.0,-0.1689908197500003,0.7831513173749993,3,0.0
mp-541582,ReSe2,1.679338,-0.4015107173958323,0.0,3,1.0
mp-24721,RbH,3.88923889,-0.2294985443100001,0.0,3,3.0
mp-6591,SrLiAlF6,9.238441,-3.897299125793335,0.0,3,7.0
mp-755293,Sr4Sb2O,1.800441999999999,-1.681349114464286,0.0,3,1.0
mp-1298,KAu5,0.0,-0.2251271699999998,0.0,3,0.0
mp-23950,K(BH)3,5.994235,-0.365632574408571,0.0472164335714291,3,6.0
mp-14305,Lu2MnS4,2.122043,-2.028439004464286,0.0,3,2.0
mp-25475,CoH4(BrO)2,3.563417,-1.0896978507755553,0.0,3,3.0
mp-9127,Ba(SbO3)2,4.019744,-2.3935972152777776,0.0,3,4.0
mp-1867,Ta2Ni,0.0,-0.2344725916666661,0.0,3,0.0
mp-19728,YSiRh,0.0,-1.0576300400000005,0.0,3,0.0
mp-8732,Ta2Se,0.0,-0.4474812811979163,0.0,3,0.0
mp-12065,Ag3Pt,0.0,0.0137571325000003,0.0137571325000003,3,0.0
mp-9514,Mg(AlC)2,2.5311,-0.0618987449999998,0.0024261762499984,3,2.0
mp-12752,Zr4Al3,0.0,-0.4641296057142869,0.0,3,0.0
mp-675334,LiTi2O4,0.0,-3.091700601190477,0.1691897549999836,3,0.0
mp-23317,AsBr3,4.151391,-0.4656044862499997,0.0,3,4.0
mp-36248,H4BrN,5.105064,-0.7014783361433329,0.0115418141666658,3,5.0
mp-10326,Zn(ReO4)2,5.522736,-2.1201645586363624,0.0,3,5.0
mp-23376,GaSeBr7,3.120892,-0.486033396510417,0.0,3,3.0
mp-1399,AlAu,0.0,-0.3924443062500002,0.0,3,0.0
mp-867369,TcF3,1.68989,-1.7281375846425,0.3066971375000005,3,1.0
mp-1009836,ZrN,0.0,-0.9925542061900005,0.8776843200000002,3,0.0
mp-961652,ZrFeSb,0.0,-0.4368261249999996,0.040141421666668,3,0.0
mp-28593,Li3BrO,5.769477999999999,-1.83347505825,0.0387686359999985,3,5.0
mp-774063,V4O7F5,2.419844,-2.5386545987312505,0.0397736445833381,3,2.0
mp-3807,Al2CdSe4,2.012172999999999,-0.7685297349107142,0.0456888550000034,3,2.0
mp-978968,Ti3O2,0.0,-2.361852900500001,0.032394895999996,3,0.0
mp-977,LuIn3,0.0,-0.3301409974999996,0.0,3,0.0
mp-33588,Ca2NF,2.673391,-2.2386980833925003,0.0,3,2.0
mp-772598,MnO2,3.014286,-1.797794274486666,0.0127747141666674,3,3.0
mp-2516,YZn,0.0,-0.3607610987499998,0.0,3,0.0
mp-1009730,Ca2Sn,1.07824416,-0.6064532783333334,0.0318333458333328,3,1.0
mp-1963,NbRh,0.0,-0.3989106724999996,0.0,3,0.0
mp-415,IrN2,1.24504,0.1656251575799991,0.1656251575799974,3,1.0
mp-10679,Ba,0.0,0.0187818699999999,0.0187818699999999,3,0.0
mp-4824,NaZnP,1.559763,-0.4088179426984127,0.0,3,1.0
mp-38177,Rb2ZnI3,0.6467120000000001,-0.9340900383333334,0.2420985454166664,3,0.0
mp-778408,HgBiO3,0.0,-1.1082261127500004,0.0345750935000008,3,0.0
mp-10566,Lu3BC3,0.0,-0.4971628098809516,0.0,3,0.0
mp-771629,Li2MgMn3O8,3.051262,-2.204175513777144,0.0196624205357078,3,3.0
mp-10845,Te2Ir,0.0,0.0037931866666666,0.2951525900000007,3,0.0
mp-31474,Rb2Hg7,0.0,-0.2230337211111111,0.0,3,0.0
mp-7544,ZrSiRu,0.0,-0.9373906883333328,0.0,3,0.0
mp-7773,Na2AsAu,0.853723,-0.4961980812499998,0.0,3,0.0
mp-775052,Li2CoCuO4,0.0,-1.548892678125,0.0739789724999973,3,0.0
mp-16297,Sc3SnC,0.0,-0.7883805365000015,0.0,3,0.0
mp-773309,Li2CrCuO4,0.898577,-1.8733258906249992,0.0605512731250001,3,0.0
mp-32884,Ag2S,2.183426,-0.2724500730208336,0.0057779800000021,3,2.0
mp-655489,Pb4SeBr6,2.474026,-0.8212419662357959,0.0427238436363635,3,2.0
mp-975138,RbWO3,0.0,-2.045720004750001,0.1531926125000087,3,0.0
mp-6870,KBe2BO3F2,7.497899,-3.1892115758662967,0.0,3,7.0
mp-1009223,NaAs,0.0,-0.2556445099999997,0.1132668461413044,3,0.0
mp-3315,CaPd3O4,0.108029,-1.5193191512500004,0.0,3,0.0
mp-5042,YTiGe,0.0,-0.7108897413888885,0.0,3,0.0
mp-16763,KYTe2,2.214371,-1.4109524931250004,0.0,3,2.0
mp-9676,K2NaGaAs2,1.241194,-0.5021244849999998,0.0,3,1.0
mp-754152,YBiO3,3.373512,-2.7740944392500007,0.0470285207499987,3,3.0
mp-504570,K3FeO3,2.957775,-1.7260072312500003,0.0,3,3.0
mp-752928,LiCoS2,0.0,-1.00431851453125,0.0818649378124964,3,0.0
mp-9382,SrZrN2,1.20765897,-1.4764286086899998,0.0128362112499988,3,1.0
mp-13545,BaIrF6,0.734679,-2.7843527283925003,0.0,3,0.0
mp-4888,NbPO5,4.657134,-2.9255821891921765,0.0226477578571469,3,4.0
mp-27368,NaLi5Sn4,0.0,-0.2482354494999999,0.0924430364583335,3,0.0
mp-13946,Rb2ZrF6,8.824315,-3.6828025752377775,0.0,3,7.0
mp-772055,Li6Ti2O7,4.632376,-2.8182316024722227,0.0116462253333393,3,4.0
mp-554917,LiSn2(PO4)3,4.99928522,-2.54739199468254,0.0,3,5.0
mp-1009471,NbN,0.0,-0.61568532119,0.6375658800000004,3,0.0
mp-775528,Na2MnO2,1.283744,-1.667597586692,0.0350021686666668,3,1.0
mp-28868,Nb3(BiS3)2,0.0,-1.2575166999431822,0.0,3,0.0
mp-31996,LiMn2(PO4)3,2.42098648,-2.386185178400317,0.0173161267361097,3,2.0
mp-32385,Ni7(PO4)6,0.0,-1.9102881650965249,0.0560169720945911,3,0.0
mp-27725,AuI,3.101495,-0.0758372924999997,0.0,3,3.0
mp-9385,RbAu3Se2,2.865919,-0.4539282395312506,0.0,3,2.0
mp-944,AlB2,0.0,-0.0434671911111112,0.0122970596000007,3,0.0
mp-552185,AgNO3,3.590163,-0.7700750962260002,0.0,3,3.0
mp-973557,FeAu3,0.0,0.1577981375000003,0.1577981375000003,3,0.0
mp-1265,MgO,6.30087423,-3.065234325625,0.0,3,6.0
mp-10744,Si3Pt2,0.0,-0.5242742090000008,0.0135564729999995,3,0.0
mp-2540,VTc,0.0,-0.3748819949999991,0.0,3,0.0
mp-34563,Mn2CuO4,0.4710169999999999,-1.6420994388457135,0.0788855754464217,3,0.0
mp-755414,LiTiS2,0.0,-1.7252770280729175,0.0356427206249998,3,0.0
mp-776915,V5O12,2.284591,-2.2990922638235305,0.0436608100000306,3,2.0
mp-2861,CaTl,0.0,-0.4342483825000003,0.0,3,0.0
mp-973060,MgCr,0.0,0.5718148300000001,0.5718148300000001,3,0.0
mp-559612,KLiO,3.869122,-1.65228926875,0.0134810233333331,3,3.0
mp-961681,ZrGePt,0.0,-0.3806115183333342,0.6071731549999999,3,0.0
mp-25503,CrHO2,3.425916,-2.008303506530001,0.0130076012499991,3,3.0
mp-978962,Tl3Fe,0.0,0.8701319912499996,0.8701319912499996,3,0.0
mp-3338,NaGaO2,4.039955,-2.2343090043750005,0.0,3,4.0
mp-1009747,ScSn,0.0,0.4132325024999997,1.002283416428571,3,0.0
mp-31753,RbCr3O8,2.719807,-1.9657259191666665,0.0,3,2.0
mp-1014,ZrMn2,0.0,-0.1849592208333324,0.0015996675000007,3,0.0
mp-777546,NaSnO,0.0,-1.365614677083333,0.0872809602083313,3,0.0
mp-25173,MgPb2WO6,3.493143,-2.13670392775,0.010748437500001,3,3.0
mp-1009831,TaN,0.0,-0.5519264561899995,0.8127363433333343,3,0.0
mp-560129,Na3La2(BO3)3,5.209814,-3.0395533015441174,0.0,3,5.0
mp-11359,Ga2Cu,0.0,-0.0831040366666666,0.0,3,0.0
mp-16254,BaCuP,0.095331,-0.7297684693650801,0.0,3,0.0
mp-776999,Cr2O3,3.139428,-2.28992368875,0.0596513849999986,3,3.0
mp-1047,Ca3N2,1.619835,-0.9189937529519996,0.01362231375,3,1.0
mp-767158,Mn2CrO6,1.565648,-1.818364016602222,0.0737616283333206,3,1.0
mp-15803,Y2MgSe4,2.168888,-1.706983097767857,0.0,3,2.0
mp-1432,Be2B,0.0,0.043189351111111,0.0537077730555557,3,0.0
mp-976725,Hf3Au,0.0,-0.1865641337500001,0.1441444587500004,3,0.0
mp-976847,Ni3Sb,0.0,-0.1386933862499999,0.0130087625000001,3,0.0
mp-985304,Cr(GaS2)2,0.0,-0.9833561194642868,0.067261635357144,3,0.0
mp-636297,HfNiSn,0.0,0.2519445600000007,0.8830875899999979,3,0.0
mp-771665,Li2MnNiO4,1.504277,-1.767462668244999,0.0946138943750005,3,1.0
mp-2534,GaAs,0.6344543300000001,-0.3472492675000005,0.0,3,0.0
mp-20268,TiGePd,0.0,-0.7093992938888896,0.0,3,0.0
mp-11547,YTlPd,0.0,-0.6664561925000001,0.0,3,0.0
mp-755559,LiNbO3,4.900827,-2.86738640075,0.0466217209999992,3,4.0
mp-19723,InAuO2,0.591142,-1.3452286556249995,0.0171194093750006,3,0.0
mp-772593,Li2NiBiO4,0.0,-1.5981051612499997,0.0391655250694507,3,0.0
mp-253,ScCo2,0.0,-0.3507086799999992,0.0,3,0.0
mp-557142,Li2S,4.143048,-1.3853849846875,0.1753757799999995,3,4.0
mp-771630,LiCr3(FeO4)2,2.193875,-2.1934292207142847,0.0059145658163295,3,2.0
mp-10020,ScC,0.0,-0.1389255487500005,0.3064328429838685,3,0.0
mp-2480,OsSe2,0.407800999999999,-0.1810460040624993,0.0,3,0.0
mp-28591,Na4HgP2,1.527089,-0.3570393880272107,0.0,3,1.0
mp-11191,CrSi2,1.22148,-0.3633700844444437,0.0114057988888909,3,1.0
mp-888,CaAs,0.0,-1.0782612699999998,0.0,3,0.0
mp-1473,Fe7W6,0.0,-0.0208676469230773,0.0,3,0.0
mp-766156,LiV3(OF3)2,2.675457,-2.9743992033033333,0.062966691250013,3,2.0
mp-27259,CsCrI3,0.0,-0.8175712819999997,0.0532368033333332,3,0.0
mp-1089,TiIr3,0.0,-0.7144286841666663,0.0,3,0.0
mp-2030,RuS2,1.643238,-0.9921361610416662,0.0,3,1.0
mp-753508,LiCuS,1.967487,-0.9104511388541668,0.0509179143749998,3,2.0
mp-560237,Cr3AgO8,2.156968,-1.6590212783333331,0.0,3,2.0
mp-930,ZrP,0.0,-1.3345562890476197,0.046088792499999,3,0.0
mp-973364,Mg,0.0,0.0215100325000001,0.0215100325000001,3,0.0
mp-37214,MnPbO3,0.0,-1.6028927069419994,0.1253827741250033,3,0.0
mp-31999,Na2MnO4,0.0,-1.5690369879942858,0.0788237691071431,3,0.0
mp-974861,Mn2Co2O5,0.0,-1.2110574520188888,0.5218731040740785,3,0.0
mp-13002,K2SiF6,9.271241,-3.4462737157933336,0.0049231983333335,3,7.0
mp-1009752,ScSi,0.0,0.4932631549999993,1.3273585399999996,3,0.0
mp-1009207,MnSb,0.0,0.2971151675000003,0.3308141125000006,3,0.0
mp-4142,MnSbPd,0.0,-0.0900554816666658,0.2038081166666669,3,0.0
mp-7187,TiAlNi2,0.0,-0.6199108316666662,0.0,3,0.0
mp-11147,Na5CuSO2,2.864111,-1.3551073557291673,0.0,3,2.0
mp-331,ScAl,0.0,-0.4471662649999999,0.0,3,0.0
mp-19407,MnWO4,2.971225,-2.2216732926600016,0.0,3,3.0
mp-9225,ScSiPt,0.0,-1.1945382075000002,0.0,3,0.0
mp-552941,Na4CO4,3.575876,-1.7246760969444457,0.1534152322222235,3,3.0
mp-19147,NiCO3,3.9912289999999992,-1.5463232302500003,0.0,3,4.0
mp-973586,Lu(AlC)3,0.7863020000000001,-0.3399210760714289,0.0,3,0.0
mp-1526,TiHg,0.0,-0.009828848333333,0.0567602125000004,3,0.0
mp-771464,MnCo5O12,0.0,-1.222268694220001,0.0276284344444501,3,0.0
mp-771613,LiNiSnO4,1.108655,-1.6896452085714284,0.0079302020714218,3,1.0
mp-754455,Sc2O3,5.793244,-3.8975423787500008,0.0865210587499998,3,5.0
mp-66,C,5.51701897,0.1339096375000004,0.1339096375000004,3,5.0
mp-3319,Mg(RhO2)2,2.863993,-1.6586750385714284,0.0113765196428561,3,2.0
mp-4409,Cu(RhO2)2,0.0,-1.064402825714286,0.0208483499999996,3,0.0
mp-1864,LaP5,0.247807,-0.5691590788293652,0.0,3,0.0
mp-30943,MgPSe3,2.963191,-0.6068951467752981,0.0,3,3.0
mp-754358,ZnSeO4,3.5698939999999992,-1.3623018847656247,0.0060707745833248,3,3.0
mp-975159,RbZnO3,0.0,-0.8956934217500006,0.4034867090000001,3,0.0
mp-770104,LiMn4O8,0.0,-1.8688571187569232,0.0881079414423045,3,0.0
mp-2339,Ti3Pt,0.0,-0.6495360550000013,0.0,3,0.0
mp-18686,ZrCr5P3,0.0,-0.5963508060317461,0.00647943375,3,0.0
mp-1598,Na3P,1.039783,-0.3416982145238099,0.0,3,1.0
mp-23680,H(CO)2,4.316041,-0.9355833257240008,0.284331719749983,3,4.0
mp-978016,LaSn2Pd,0.0,-0.7822484450000005,0.0169611059935901,3,0.0
mp-3363,Sc2Ni2Sn,0.0,-0.6048909779999996,0.0,3,0.0
mp-2444,GaRh,0.0,-0.6843403949999995,0.0,3,0.0