mpid,formula,BG,FE,e_hull,fidelity,BG_category
mp-769842,LiLa4FeO8,2.294366,-3.2823912592857147,0.0865403453571698,3,2.0
mp-10322,BaHfN2,2.369363,-1.532714048689999,0.0,3,2.0
mp-19378,CrAgO2,2.614172,-1.6835684031250002,0.0,3,2.0
mp-6912,Mn2Sb,0.0,0.2098611100000008,0.2323270733333329,3,0.0
mp-757282,Li2Sn5(PO4)4,3.49020949,-2.3365214343474427,0.0661945670679129,3,3.0
mp-984762,CsY,0.0,0.6977013637500002,0.6977013637499994,3,0.0
mp-778547,Li2MnF4,5.223839,-3.0458068136742855,0.0521238757142858,3,5.0
mp-24868,Cr2CoO4,3.74947,-2.1282271542857143,0.0,3,3.0
mp-973261,Mg2SnO4,3.377358,-2.6573959385714283,0.0280098307142866,3,3.0
mp-5606,AlTlF4,5.461059,-3.299260766626666,0.0017878966666673,3,5.0
mp-1006882,CdC,0.0,2.10242208375,2.10242208375,3,0.0
mp-973653,Lu2ZnAg,0.0,-0.3436632762499996,0.0,3,0.0
mp-1008681,Sc,0.0,0.7203188999999997,0.7203188999999997,3,0.0
mp-33,Ru,0.0,0.0103334650000004,0.0103334650000004,3,0.0
mp-556916,GaAgS2,1.969118,-0.83907408828125,0.0025926037500001,3,2.0
mp-11236,MgZnAg2,0.0,-0.1616047462500001,0.0,3,0.0
mp-11016,RbCd(NO2)3,4.082705,-1.149033825421818,0.0385493343060199,3,4.0
mp-1357,P3Rh,0.0,-0.5835010066964283,0.0,3,0.0
mp-766834,Li7Ti16O32,0.0,-3.2524917146666668,0.0365376187272552,3,0.0
mp-984,BN,5.613981,-1.4715494470233337,0.0005679299999989,3,5.0
mp-777081,LiV4O5F7,1.944867,-2.7646644105635296,0.0886959061764578,3,1.0
mp-755392,LiSnPO4,4.98109136,-2.4127337307993195,0.0733989388095386,3,5.0
mp-1009555,CrO2,0.731939,-1.8612460375,0.1939929200000012,3,0.0
mp-27741,TeAuI,1.5896050000000002,-0.1383596825000002,0.0,3,1.0
mp-25604,NiPO4,0.07654085,-1.8779886463492064,0.0767943901041601,3,0.0
mp-27873,Ta2O,0.0,0.2032860554166665,1.7689273451666647,3,0.0
mp-3498,HfGaNi2,0.0,-0.5551995712500002,0.0094785444704319,3,0.0
mp-19227,YMnO3,0.351885,-3.029469797942,0.0207594036666662,3,0.0
mp-985593,NaAg(CO2)2,4.133528,-1.4879411168749996,0.1318954710937507,3,4.0
mp-1009495,OsN,0.0,1.364997311310001,1.364997311309999,3,0.0
mp-1004530,CsBPb(IF2)2,2.8749510000000003,-2.40062046126963,0.0506912969444455,3,2.0
mp-891,TaNi3,0.0,-0.3548773187499998,0.0036533187500031,3,0.0
mp-10264,NiTe,0.0,-0.1903689024999995,0.0,3,0.0
mp-31510,NbCuTe2,0.0,-0.3180974174999997,0.0252629890625009,3,0.0
mp-2827,YCo5,0.0,-0.0994719620833339,0.0208966771212129,3,0.0
mp-25542,LiMnO2,2.267479,-2.138250483365,0.0201293775000062,3,2.0
mp-1009005,IrN,0.0,1.5050197088100008,1.5050197088100008,3,0.0
mp-13548,Cs2Pt,2.480574,0.0172318899999996,0.0172318899999992,3,2.0
mp-12520,SrNi2Ge,0.0,-0.4166472525000007,0.0,3,0.0
mp-976885,Li2Mg,0.0,-0.0286878499999998,0.0139513983333343,3,0.0
mp-9595,NbInO4,4.471356,-2.6454555816666656,0.0,3,4.0
mp-4120,CaCuAs,0.702326999999999,-0.8074187650000001,0.0,3,0.0
mp-10371,Cr2GaN,0.0,-0.3997579030949989,0.0287896283333326,3,0.0
mp-756646,SrLu2O4,4.486555,-3.839603140714285,0.0096942789285705,3,4.0
mp-555836,Sn2PClO4,3.52761829,-2.151067303294405,0.0,3,3.0
mp-554072,K2CO3,5.230869,-2.128384706875,0.0023250858333279,3,5.0
mp-768031,MnOF,1.378796,-2.3320867836333328,0.0668633829166713,3,1.0
mp-766964,Li2Fe2SiO6,3.498619,-2.3651114206818185,0.0721795650000016,3,3.0
mp-5031,TaSiAs,0.0,-0.5101364499999997,0.0,3,0.0