mpid,formula,BG,FE,e_hull,fidelity,BG_category
mp-1008786,MgTe,1.31177289,-0.8103278400000002,0.0639015624999999,3,1.0
mp-549158,InCuO2,1.550932,-1.503051133125,0.0055841618750003,3,1.0
mp-754329,CdSnO3,2.171325,-1.86300018975,0.0,3,2.0
mp-13272,BaAlGe,0.0,-0.4698947616666669,0.0,3,0.0
mp-27606,ZrAs2,0.0,-0.840426894999999,0.0,3,0.0
mp-1009459,NbC,0.0,0.4588937112500009,0.9549662627083342,3,0.0
mp-13097,NaZnAs,0.940546999999999,-0.4208689066666664,0.0,3,0.0
mp-978303,Mg3Re,0.0,0.4152026337499999,0.4152026337499999,3,0.0
mp-558014,S,3.525529,0.0159130005208331,0.0159130005208334,3,3.0
mp-7092,TiSi,0.0,-0.7685568270833336,0.0,3,0.0
mp-776913,Li2FeWO6,0.314199,-2.04023042875,0.0799830926875015,3,0.0
mp-7104,CsCaF3,8.886113,-3.743936901714,0.0,3,7.0
mp-19435,CoMoO4,2.263462,-1.8510243891666665,0.0041784749999997,3,2.0
mp-13396,LiIn2Rh,0.0,-0.4285431449999999,0.0,3,0.0
mp-2568,YSi2,0.0,-0.5321641041666668,0.0368688766666664,3,0.0
mp-2588,YCo3,0.0,-0.1591644356249991,0.0,3,0.0
mp-1424,GePd,0.0,-0.4575263649999997,0.0,3,0.0
mp-643099,H6CN4O3,3.964316,-0.1087651458921438,0.833279201629975,3,4.0
mp-27891,Bi2SO2,1.189361,-1.3797532923124998,0.0,3,1.0
mp-6938,ZnRh,0.0,-0.3807442674999999,0.0,3,0.0
mp-25524,FeAs2O7,0.0,-1.5298736758749996,0.0869757798958357,3,0.0
mp-2490,GaP,2.27876965,-0.4084357740476197,0.0,3,2.0
mp-23251,KBr,5.5075692599999995,-1.767873795,0.0,3,5.0
mp-9078,BaPIr,0.0,-0.907274061031746,0.0,3,0.0
mp-28109,SbAsO3,4.657482,-1.7131478752499991,0.0,3,4.0
mp-2858,ZrO2,5.133455,-3.833219812500001,0.0,3,5.0
mp-554140,TlV3(CrS4)2,0.105117999999999,-1.1898287755357149,0.0122048592857124,3,0.0
mp-1542,YB2,0.0,-0.5669673319444447,0.0,3,0.0
mp-773720,LiMnSbO4,1.136723,-2.0907793687085707,0.0240104753571337,3,1.0
mp-753490,TiCuGe,0.0,-0.3415732272222224,0.0657385108333334,3,0.0
mp-10852,La(BC)2,0.0,-0.4380232416666672,0.0,3,0.0
mp-13274,Na4CO4,3.611318,-1.749045820277778,0.1290455088888906,3,3.0
mp-550547,K4CO4,2.012992,-1.5753762891666665,0.2651054372222194,3,2.0
mp-504746,Cu5As2,0.0,0.0496888342857145,0.0496888342857149,3,0.0
mp-555345,CrCuS2,0.0,-0.6668989095312501,0.2168086156249931,3,0.0
mp-7100,LaOF,6.112878999999999,-4.27237837248,0.0,3,6.0
mp-28490,Tl3BSe3,1.662182,-0.3167283903497022,0.0,3,1.0
mp-19456,AlV2O4,0.0,-2.689741832142857,0.0458961943154765,3,0.0
mp-552966,Rb4CO4,1.929997,-1.522084909166666,0.2617476677777786,3,1.0
mp-777323,Li3Fe2(CoO4)2,0.434672,-1.742413189333333,0.0934909475000038,3,0.0
mp-777606,Fe2O2F3,0.0,-2.137995713010001,0.1206818145535768,3,0.0
mp-1009077,FeH,0.0,-0.0591707343100003,0.0,3,0.0
mp-620404,SnC2(SN)2,3.119653,-0.1524426961264282,0.1997148728914295,3,3.0
mp-773564,LiMnF4,2.543813,-2.931738361786666,0.0185179424999892,3,2.0
mp-9227,Ti3Se4,0.0,-1.2155283413392866,0.0,3,0.0
mp-1871,Fe2C,0.0,0.0567144641666672,0.0567144641666654,3,0.0
mp-776081,K2O,3.069484,-1.1719644504166666,0.0880611433333329,3,3.0
mp-556853,MnS,0.0,-0.3142822370312501,0.6344750724999999,3,0.0
mp-25405,LiCuPO4F,0.60373705,-2.1666011042856548,0.0476924109375005,3,0.0
mp-867750,Ti3PO7,0.6238119999999999,-3.094030166076839,0.1359768019902727,3,0.0
mp-770602,TiVO3,1.368957,-2.9719914730833343,0.0,3,1.0
mp-9361,RbLaS2,3.3215852,-2.2257871995312506,0.0,3,3.0
mp-771380,Rb2Fe4O7,2.531007,-1.8117798199038475,0.0489563907692343,3,2.0
mp-8799,RbNaS,3.23764,-1.2823792813541672,0.0,3,3.0
mp-1078,CaCd2,0.0,-0.3261720091666668,0.0076505674999998,3,0.0
mp-35659,HgPbF6,2.352055,-2.0817741508925005,0.0,3,2.0
mp-553991,Ti(GaO2)4,3.961652,-2.563907287435897,0.0026405194230836,3,4.0
mp-560790,Cs2NaBiF6,6.256837000000001,-2.958378280714,0.0,3,6.0
mp-25053,Sr2NiMoO6,2.9431469999999993,-2.45805109775,0.0096260999999993,3,2.0
mp-23450,RbIO4,4.280814,-1.1863211574999994,0.0,3,4.0
mp-1007770,TlAs,0.0,0.1121740199999998,0.1121740199999998,3,0.0
mp-23282,ZrI3,0.0,-0.9662974049999996,0.0021397525000059,3,0.0
mp-754596,RbGaO2,3.767848,-2.0645131681249995,0.0,3,3.0
mp-33569,Sr(LaSe2)2,2.549792,-2.049435700625,0.0,3,2.0
mp-19090,MnTeMoO6,3.115245,-1.9203571642733328,0.0092748712500148,3,3.0
mp-23268,NaI,4.63839611,-1.2775966075,0.0,3,4.0
mp-13852,Ge3N4,3.131615,-0.2589045220742859,0.0017535478571426,3,3.0
mp-15626,Rb2NaTiF6,0.0,-3.3333226738806667,0.0,3,0.0
mp-10187,TeIr,0.0,0.0721848474999999,0.290704400000001,3,0.0
mp-7139,N2O,4.467259,1.063768074663333,1.476082121032216,3,4.0
mp-972175,Zn3In,0.0,0.1101278012500002,0.1101278012500002,3,0.0
mp-13688,Ge2Mo,0.0,-0.1607824999999998,0.0,3,0.0
mp-74,Rh,0.0,0.0,0.0,3,0.0
mp-11719,K4ZnP2,1.506044,-0.3987569515986392,0.0,3,1.0
mp-33333,NaSbSe2,0.1480739999999999,-0.6177808755468752,0.0,3,0.0
mp-19419,LiFeO2,2.193572999999999,-1.7322205481250004,0.3446347362500006,3,2.0
mp-755056,CaPbI4,3.387629,-1.1047805833333328,0.0504884533333336,3,3.0
mp-973750,LuTe2,0.0,-1.0200867883333338,0.0,3,0.0
mp-322,TlS,1.356125,-0.5368747845312503,0.0503964701562553,3,1.0
mp-18780,K2WO4,5.917469,-2.2665791514285707,0.0,3,6.0
mp-771742,Co3BiO8,0.280932,-1.138158387916666,0.0850666043402768,3,0.0
mp-28383,KNaS,3.520749,-1.2992670688541672,0.0,3,3.0
mp-560806,Zn2In2S5,0.3832129999999999,-0.9680956967013894,0.0687750531944448,3,0.0
mp-16252,BaCaGe,0.7152919999999999,-0.5765705841666667,0.0,3,0.0
mp-24208,CrH2,0.0,-0.0318419890800001,0.0029990171266662,3,0.0
mp-638,SrZn5,0.0,-0.2022471925000001,0.0154185591666664,3,0.0
mp-776486,MnAgO3,0.0,-1.2011920059419992,0.0670356534999996,3,0.0
mp-7041,CaHgO2,3.64422481,-2.100867630625,0.0,3,3.0
mp-34042,KY3F10,7.694771999999999,-4.118677485671428,0.1687357892857139,3,7.0
mp-27420,NaBiF6,4.400116,-2.5019932858925,0.0,3,4.0
mp-1522,FeS2,2.023654,-0.9484051510416668,0.0,3,2.0
mp-11902,Ba2GeSe4,2.134868,-1.354760656339286,0.0,3,2.0
mp-977462,ZrCdAu2,0.0,-0.4534505612500004,0.0,3,0.0
mp-372,VPt3,0.0,-0.4426651749999992,0.0131511800000003,3,0.0
mp-560037,Rb2NaBiF6,6.142846,-2.9402758107139997,0.0,3,6.0
mp-753661,SbOF,3.794416,-2.1616919208133343,0.0567703827083345,3,3.0
mp-18741,RbLiCrO4,4.278924,-2.1113335078571427,0.0,3,4.0
mp-258,ZrV2,0.0,0.0454643850000001,0.0454643850000007,3,0.0
mp-973996,Lu2GaCu,0.0,-0.4388545625000004,0.0,3,0.0
mp-11449,HfMn2,0.0,-0.2641202241666664,0.0,3,0.0
mp-744941,Na3Cr2P2O8F3,3.70209257,-2.750287533320027,0.0,3,3.0
mp-23548,AgBiO3,0.0,-1.01938118275,0.0466465880000015,3,0.0
mp-770385,Li2Fe3BiO8,0.692265,-1.8505687517857143,0.0052988432142848,3,0.0
mp-556786,LiCdPO4,4.93740361,-2.459870339727892,0.0004303543253953,3,5.0
mp-767013,FePO4,3.602199,-2.4231823005158737,0.0046394054166665,3,3.0
mp-1009079,CrTe,0.0,-0.0042704399999999,0.1694969487499991,3,0.0
mp-10300,ZrMoP,0.0,-0.9800327638095232,0.0,3,0.0
mp-545760,Rb4CO4,3.085687,-1.5764534958333334,0.2073790811111111,3,3.0
mp-10271,ZnCo3C,0.0,-0.0113941025000002,0.0,3,0.0
mp-961718,TiAsRh,0.0,-0.4346482238888889,0.4441644141666661,3,0.0
mp-25175,Cs(WO3)2,0.0,-2.2201686252777773,0.0134872402777865,3,0.0
mp-11515,NbRh,0.0,-0.3765878525000001,0.0223228199999994,3,0.0
mp-5025,Zr2CS,0.0,-1.507704560390625,0.0,3,0.0
mp-3700,LiYF4,9.823554,-4.059907227876667,0.0,3,7.0
mp-982778,Zn3Se,0.0,0.1430621378515626,0.49877209625,3,0.0
mp-13090,YMgAl,0.0,-0.3307405374999995,0.0,3,0.0
mp-13534,LaZnNi,0.0,-0.3827035250000013,0.0,3,0.0
mp-12735,KAg2,0.0,-0.0123008324999993,0.0,3,0.0
mp-778539,Li2CoBO4,2.394435,-2.1642835327083336,0.1058262253124997,3,2.0
mp-34656,Cd(CN)2,7.597963,0.2009001650480001,0.2758193445000003,3,7.0
mp-766965,Li2MnOF3,2.951098,-2.7820884208257137,0.0636789066071497,3,3.0
mp-778681,V3SnO8,1.536749,-2.3251711554166667,0.069248222500013,3,1.0
mp-13496,ZrPd,0.0,-0.5911075050000001,0.0582013750000003,3,0.0
mp-19967,LuMnSi,0.0,-0.5476681191666669,0.0,3,0.0
mp-1169,ScCu,0.0,-0.2680603000000001,0.0,3,0.0
mp-962078,CaCdSi,0.08041,-0.1169885149999997,0.2382067241666657,3,0.0
mp-1667,Co2Ge,0.0,-0.0930334833333338,0.0514333808333331,3,0.0
mp-10681,B2Au,0.0,0.6669399822222223,0.6669399822222228,3,0.0
mp-10401,Tl2SnF6,5.8452850000000005,-2.5682425791266663,0.0,3,5.0
mp-984597,Au3S,0.0,0.1798232864843747,0.3990541375000003,3,0.0
mp-9295,TaCu3Te4,1.880448,-0.264214449999999,0.0,3,1.0
mp-1575,CaC2,3.350142,0.0219529449999988,0.0219529450000086,3,3.0
mp-4280,GaCuO2,2.34778909,-1.6846623881249991,0.0,3,2.0
mp-554155,KSb(PO4)2,5.04347734,-2.47692378093254,0.0,3,5.0
mp-973068,ScCuO3,0.0,-1.84734024275,0.5661511983750005,3,0.0
mp-1209,RbAu5,0.0,-0.188590231666667,0.0,3,0.0
mp-24669,CrH,0.0,0.1125830106900007,0.1648445199999999,3,0.0
mp-978493,SiSnO3,2.09304,-2.1418675877500006,0.4866339869999994,3,2.0
mp-972971,LaTlHg2,0.0,-0.4037143537500001,0.0081774399999989,3,0.0
mp-27413,Mo8P5,0.0,-0.4856899284981685,0.0221627626923055,3,0.0
mp-768030,FeOF,2.7660739999999993,-2.207018076646667,0.0736658691666685,3,2.0
mp-1915,Fe2B,0.0,-0.3142600505555559,0.0,3,0.0
mp-27757,Be4B,0.0,-0.0126221063333332,0.0,3,0.0
mp-1009264,NbCo,0.0,-0.0106874749999992,0.1339366642857165,3,0.0
mp-28873,CsBrO3,5.525572,-1.0804101567500006,0.0,3,5.0
mp-11247,Li3Au,0.0,-0.4060636099999999,0.0,3,0.0
mp-770840,LiVGaO4,1.9965259999999991,-2.3865902600000006,0.0483428218809507,3,2.0
mp-31649,LiCrP2O7,4.138608,-2.6661692986309515,0.0183604645454558,3,4.0
mp-867179,SrCdHg2,0.0,-0.37544368875,0.0018311142045455,3,0.0
mp-7096,Fe3S4,0.0,-0.6679635137500008,0.2214684878571429,3,0.0
mp-12874,Si2Ru,0.0,-0.2500680349999993,0.2924960191666663,3,0.0
mp-961670,HfSiPt,0.0,-0.6140888649999994,0.4959724875000013,3,0.0
mp-4107,Li(CoGe)6,0.0,-0.2642940292307696,0.0,3,0.0
mp-767979,Li2MnOF2,2.610338,-2.695486130765,0.0919173266666666,3,2.0
mp-556866,Ag2HgSI2,2.299539,-0.3490105306770834,0.0,3,2.0
mp-766805,Li2MnOF3,3.143212,-2.8127989315400006,0.0329683958928637,3,3.0
mp-973979,LiFePd2,0.0,-0.2384157975000001,0.012870260833333,3,0.0
mp-773440,Li2V3FeO8,0.0,-2.25413118642857,0.1511978089434169,3,0.0
mp-961699,NaMgP,0.19342828,0.1100488823015872,0.63277131388889,3,0.0
mp-14017,K3Sb,0.948585,-0.4082847837499997,0.0,3,0.0
mp-1009885,ZrN,0.0,-1.5517311711899993,0.3185073550000013,3,0.0
mp-560030,CaF2,8.205148999999999,-4.0554809557933345,0.1826112483333322,3,7.0
mp-6854,Cs2LiMn(CN)6,0.0,-0.2687350255799989,0.126016533697916,3,0.0
mp-11739,KLaTe2,2.18658754,-1.4921815525,0.0,3,2.0
mp-504751,AsHPbO4,4.095863,-1.6781790390885711,0.0,3,4.0
mp-977229,Li3Cr,0.0,0.3953866625000004,0.3953866625000004,3,0.0
mp-551905,OsO4,4.602264,-1.5464383099999992,0.0009153180000032,3,4.0
mp-557719,PbS,2.492292,-0.8085098457812503,0.0593205912500005,3,2.0
mp-554168,KRb2MoF6,3.737262,-3.015846711714,0.0,3,3.0
mp-19442,Mn(Ni3O4)2,2.38793,-1.1005774313973329,0.0022329038494568,3,2.0
mp-867768,ScZnPt2,0.0,-0.9236884887500008,0.0,3,0.0
mp-976139,Li3Mg,0.0,-0.0228888074999997,0.0094748500000005,3,0.0
mp-28705,CaB2Rh3,0.0,-0.6111921105555554,0.0,3,0.0
mp-977453,Ca2CdIn,0.0,-0.4248198537499999,0.0,3,0.0
mp-754801,Li3Ti6O13,0.0,-3.2272232198295474,0.0687100435037812,3,0.0
mp-6951,RbCdF3,4.8603570000000005,-2.726660970714,0.0,3,4.0
mp-1174,MgSc,0.0,-0.0364310750000003,0.0,3,0.0
mp-553955,V2O3,0.4411739999999999,-1.949822845749999,0.5807809382500011,3,0.0
mp-11985,LaMgTl,0.0,-0.3709361861111111,0.0,3,0.0
mp-560244,CsZnB(PO4)2,6.70718509,-2.6782482552197795,0.0,3,6.0
mp-10010,Al(CoSi)2,0.0,-0.5368441919999996,0.0,3,0.0
mp-754845,La3Ti2N3O4,1.789264,-2.8175172937894444,0.0608756782011088,3,1.0
mp-755738,Rb2O,2.825685,-1.118080532083333,0.0318392449999969,3,2.0
mp-4043,NbCu3Se4,2.193833,-0.5153726330468746,0.0,3,2.0
mp-12626,K2SrBe2F8,9.257564,-3.615867842270769,0.0024385303846159,3,7.0
mp-556750,CoO2,0.0,-0.8768083874999988,0.2609543691666651,3,0.0
mp-615,YMg,0.0,-0.1111512912500005,0.0,3,0.0
mp-614,NaO2,0.0,-0.8867360775000002,0.0201150466666595,3,0.0
mp-19455,MnMoO4,2.087625,-2.135138274326668,0.0046466191666603,3,2.0
mp-777097,CrAgO4,0.0,-1.2197040966666666,0.0,3,0.0
mp-775825,Li2VCrO4,2.039171,-2.438534064375,0.0069124518750003,3,2.0
mp-975291,RbLiO3,0.0,-0.7148682667500005,0.5256011769999986,3,0.0
mp-974581,ReBiO3,0.0,-1.2195239447500008,0.5218732474999985,3,0.0
mp-18798,Sr2Mn2O5,1.076231,-2.5858367170188883,0.0,3,1.0
mp-768680,CrP2S7,0.0,-0.7458923374627972,0.0327145808750009,3,0.0
mp-1925,ZrS,0.0,-1.6782001820312509,0.0876396499999998,3,0.0
mp-929,ZrCo2,0.0,-0.3091669033333346,0.0,3,0.0
mp-32010,Mn4(PO4)3,0.0,-2.512699694901353,0.0182155135526169,3,0.0
mp-27454,BaLi2Si,0.0,-0.2734018974999999,0.0,3,0.0
mp-13898,Cs2NaInF6,7.210315,-3.030743804214002,0.0,3,7.0
mp-778344,Li2MnF4,4.330476,-3.063135816531428,0.0347948728571436,3,4.0
mp-755239,Ga2HgO4,1.671312,-1.7817501135714282,0.032194569642856,3,1.0
mp-4266,KAsF6,6.9814880000000015,-2.7645452352675,9.9814999999559e-05,3,7.0
mp-752666,LiAg2F4,0.0,-1.861445171394286,0.0131456621428562,3,0.0
mp-754435,LuAlO3,6.64996,-3.73771917275,0.0824319557499979,3,6.0
mp-757070,BaCaI4,4.182477,-1.6289029316666668,0.0904099320833329,3,4.0
mp-35647,Zn2PtO4,1.163584,-1.4372267928571418,0.0,3,1.0
mp-2369,SnPd,0.0,-0.5362730124999997,0.0,3,0.0
mp-669435,KLaCO4,0.551546,-1.9203082025,0.8734793732142876,3,0.0
mp-27193,RbIO3,3.9091899999999993,-1.38798294275,0.0,3,3.0
mp-5590,YMgGa,0.0,-0.5126159463888887,0.0,3,0.0
mp-976802,KF2,2.362717,-2.135091085793333,0.0,3,2.0
mp-934,LiTl,0.0,-0.2309302325,0.0,3,0.0
mp-927,CuP2,1.665207,-0.1164949378968257,0.0,3,1.0
mp-981356,Zr(FeGe)6,0.0,-0.2554971430769228,0.0,3,0.0
mp-2776,Ga2Au,0.0,-0.2299966299999999,0.0,3,0.0
mp-23292,HgBr2,3.607982,-0.4773990083333333,0.0,3,3.0
mp-1718,ZrFe2,0.0,-0.2837623766666664,0.0,3,0.0
mp-9480,KAlSiO4,5.967416,-3.202905274285714,0.00224395625,3,6.0
mp-16305,ScPRu,0.0,-1.1901930299206347,0.0,3,0.0
mp-1113,BW2,0.0,-0.2606483872222232,0.0,3,0.0
mp-9062,RbS,2.608074,-1.2471018403645835,0.0,3,2.0
mp-867865,ReRh3,0.0,-0.0784350287500004,0.0,3,0.0
mp-775242,Li2MnCu3O8,0.0,-1.2805392672114275,0.1077730210267837,3,0.0
mp-766548,Li4Ti11O24,4.164111,-3.3180270659829056,0.0399004993589766,3,4.0
mp-19956,Ba2InO3F,2.9077260000000003,-2.8852335978485724,0.0,3,2.0
mp-32453,VPO4,2.70645123,-2.6826850525992065,0.0239329420833325,3,2.0
mp-10474,NaPF6,9.072299,-3.065152425029405,0.0,3,7.0
mp-754212,BaSr2I6,5.123001,-1.728063253333333,0.0143023762499998,3,5.0
mp-976291,LiAlH4,4.9929830000000015,-0.2333175465799997,0.0166912008333333,3,5.0
mp-11517,NbRu3,0.0,-0.1217071112499983,0.0,3,0.0
mp-168,Si,0.0,0.15859482875,0.15859482875,3,0.0
mp-25557,MnAsH2O5,2.732161999999999,-1.7085088510499995,0.0,3,2.0
mp-8723,AsF5,6.7629470000000005,-2.409819841825,0.0,3,6.0
mp-1646,Li3Hg,0.0,-0.2794043674999997,0.0,3,0.0
mp-755225,Li8ZrO6,6.47772,-2.474229155833333,0.0005859140000001,3,6.0
mp-23729,NaBeH3,1.85158,-0.1383943331719997,0.1258738206666669,3,1.0
mp-976411,Li,0.0,0.0019217,0.0019217,3,0.0
mp-2730,HgTe,0.0,-0.16859844,0.0,3,0.0
mp-868003,LaInAu2,0.0,-0.7098152849999995,0.0,3,0.0
mp-778411,V2CoO6,2.1397,-2.0511764986111114,0.0932327100000076,3,2.0
mp-2028,Be2Nb,0.0,-0.1817840283333337,0.0189517075396832,3,0.0
mp-1795,NbF3,0.0,-2.9574480921425,0.1682514792916665,3,0.0
mp-7228,ReO2,0.0,-1.9127028433333328,0.0026022730555563,3,0.0
mp-10250,BaLiF3,8.664026,-3.759216087714,0.02196861,3,7.0
mp-4497,Si2N2O,6.304095,-1.933815505202,0.0,3,6.0
mp-768011,LiTi3VO8,2.651782,-3.1129925238461538,0.0957946057692194,3,2.0
mp-24728,VH2,0.0,-0.3035835357466663,0.0,3,0.0
mp-985571,LiAg(CO2)2,4.230643,-1.513877915,0.1699211723437494,3,4.0
mp-981211,ZnIn3,0.0,0.0891385900000001,0.0891385900000001,3,0.0
mp-4798,Sc(AlC)3,0.716283,-0.3470063489285725,0.0,3,0.0
mp-1123,HgS,0.22109536,-0.4641677720312498,0.0,3,0.0
mp-770618,MgMnO3,3.379875,-2.377693155942,0.0,3,3.0
mp-25647,LiWO2,1.269494,-1.7408156006250008,0.3200246987499984,3,1.0
mp-1004377,HfB6,0.0,0.1020895449999993,0.5408425319047625,3,0.0
mp-8891,K2Zr(BO3)2,5.113401,-3.000728610984849,0.0,3,5.0
mp-10924,Mg(Co3P2)2,0.0,-0.6333738820346313,0.0,3,0.0
mp-16264,LiCaSb,1.494181,-0.9380098624999996,0.0,3,1.0
mp-768310,LaBiO3,3.813539,-2.745673987750002,0.0347246367500133,3,3.0
mp-557397,K2MnF6,5.112992999999999,-2.9065083020111095,0.0,3,5.0
mp-13302,LuSnAu,0.0,-0.7508152633333337,0.0626578349999995,3,0.0
mp-977129,HgPd3,0.0,-0.1087051725000001,0.0089163450000002,3,0.0
mp-560767,KNaTiO3,5.333996,-2.8083556750694445,0.0,3,5.0
mp-2815,MoS2,1.9460309999999992,-1.3059801893750005,1.2761666665639383e-05,3,1.0
mp-771288,Li3Cr4O8,1.392812999999999,-2.3125952679999995,0.030617741518518,3,1.0
mp-11660,Hf3N4,2.114367,-1.8154050470742848,0.0689349860714276,3,2.0
mp-11361,MgCuSn,0.0,-0.1745706449999998,0.0,3,0.0
mp-555166,BaAg2SnS4,1.245641,-1.0960012664062502,0.0,3,1.0
mp-19955,Co2CuGe2,0.0,-0.1785928990000002,0.0,3,0.0
mp-7744,LiSO3F,7.3867340000000015,-2.351703021500417,0.0,3,7.0
mp-867263,ScCdHg2,0.0,-0.26102634625,0.0,3,0.0
mp-12659,Mn2Nb,0.0,-0.1399484649999986,0.0,3,0.0
mp-31453,NbSbRh,0.0,-0.3335251316666661,0.0746815054166667,3,0.0
mp-28553,Ca2IN,3.393509,-1.2627017593449998,0.0,3,3.0
mp-555066,Mo6PbS8,0.0,-1.0117839135000006,0.033010447333333,3,0.0
mp-2657,TiO2,3.333216,-3.4821207997222223,0.0367101808333458,3,3.0
mp-8689,V4GeSe8,0.0,-0.6549937972115393,0.0,3,0.0
mp-12894,Y2SO2,4.424503,-3.5975509203125,0.0,3,4.0
mp-558636,CaAl2O4,6.538794,-3.4495256078571432,0.018161488190473,3,6.0
mp-776827,LiFeF4,4.639555,-2.8487210557933333,0.0790257493518611,3,4.0
mp-426,CoSe,0.0,-0.1357130467968748,0.1402293337499998,3,0.0
mp-555763,ZnS,3.085365,-1.1377861378645833,0.0025172166666669,3,3.0
mp-10653,SrTe,1.27230019,-1.50619464,0.2390955299999997,3,1.0
mp-9268,KSe,1.6267390000000002,-0.945093333463542,0.0,3,1.0
mp-1529,LuIr,0.0,-0.9950699749999988,0.0,3,0.0
mp-631452,NbCrW,0.0,1.0127593533333343,1.0314421799999989,3,0.0
mp-25581,La2MoO6,3.688524,-3.1689720791666667,0.0592771144444412,3,3.0
mp-23205,MgI2,4.77486231,-1.0627223533333332,0.0,3,4.0
mp-2885,Ga(MoS2)4,1.017208,-1.1739730524999994,0.0383581828571433,3,1.0
mp-14285,CoP2,0.817205,-0.5324979120634921,0.0,3,0.0
mp-25582,MgMoH2O5,5.346605,-2.11820979761,0.0,3,5.0
mp-2585,Sr5Sb3,0.0,-0.9996715093750002,0.0,3,0.0
mp-1958,SrTe,2.69234145,-1.7452901699999996,0.0,3,2.0
mp-545346,LiGaAs2O7,4.139588,-1.9484986707954552,0.0272523716666661,3,4.0
mp-977112,NaSrO3,0.0,-1.3259532657500004,0.5229036593333332,3,0.0
mp-19120,MgCrO4,3.663098,-2.21195842,0.0,3,3.0
mp-1008912,AgC,0.0,2.2571706762500003,2.2571706762500003,3,0.0
mp-976707,H4CN2O,5.920546,-0.7706076328737499,0.0234940531250007,3,6.0
mp-768907,Sr3TeO6,4.585872,-2.74402382975,0.0221194629999974,3,4.0
mp-560547,KCrF3,2.453676,-2.9424040107139997,0.0046604870000015,3,2.0
mp-13095,YAlNi,0.0,-0.5993884319444452,0.0,3,0.0
mp-11165,Na2MgPO4F,6.5882513000000005,-2.9414350922816928,0.0,3,6.0
mp-1804,Fe3N,0.0,-0.1674596155949999,0.0,3,0.0
mp-450,NbB2,0.0,-0.6906748211111117,0.0048797433333334,3,0.0
mp-556880,SiO2,6.598533,-3.1376184491666663,0.1470944583333331,3,6.0
mp-1008283,Ba,0.0,0.7362551799999999,0.7362551799999999,3,0.0
mp-768060,VOF,1.311589,-2.789551462480001,0.0564574200000009,3,1.0
mp-558380,Cr2F5,2.253753,-2.949443210135714,0.0017758585714231,3,2.0
mp-971835,Tl3H,0.0,0.4087219790950001,0.4087219790950001,3,0.0
mp-752953,ZrTi2O,0.0,-1.4823950098958338,0.0855416800000092,3,0.0
mp-1796,Tl5Te3,0.0,-0.1423415131250003,0.1400975349573863,3,0.0
mp-23751,CsMgH3,3.661905,-0.3175607871719995,0.0041437343333319,3,3.0
mp-20263,CaIn,0.0,-0.4690964500000003,0.0,3,0.0
mp-644739,LaGa6,0.0,-0.3717852599999998,0.0,3,0.0
mp-545,TiS,0.0,-1.5316205328645838,0.270434267499998,3,0.0
mp-13100,MoPt3,0.0,-0.1302863499999995,0.1551192324999988,3,0.0
mp-975292,RbMoO3,0.0,-2.0372808127499997,0.1923617994999951,3,0.0
mp-9723,Sr4Li(BN2)3,3.095332,-1.2635899474485714,0.0,3,3.0
mp-12481,LaPPt,0.0,-1.39572843686508,0.0,3,0.0
mp-767186,LiMn3(OF3)2,2.634706,-2.5852304177100005,0.0893728177083321,3,2.0
mp-16496,Al(CuRe)2,0.0,0.382298114000001,0.5412719420000007,3,0.0
mp-4573,TlSbTe2,0.497481199999999,-0.2295913275000001,0.5973577531818184,3,0.0
mp-546200,TlIO3,0.0,-0.7412173857500001,0.2420117180000005,3,0.0
mp-754741,ZrO2,5.025427,-3.747838180833333,0.0853816316666691,3,5.0
mp-1932,Nb3Os,0.0,-0.239478085,0.0,3,0.0
mp-19747,Ni3(PbSe)2,0.0,-0.2396611010267858,0.082155015714286,3,0.0
mp-556288,Li2ReO3,1.085806,-1.9490690814583336,0.2092925382738153,3,1.0