formula,bg,formation_energy,mp-id
TlCr3O8,1.8267,-1.7782296165277771,mp-561221
Zn2NiP2(H2O3)4,3.7775,-1.777842610771428,mp-1205204
Pb3WO6,2.3694,-1.777760717249998,mp-1201110
Rb2Co2(MoO4)3,0.0,-1.777731286710527,mp-1209900
NaFe2Mo2H3O10,2.8704,-1.7775271786182951,mp-1221050
NdMnSbO,0.0,-1.777319990107758,mp-18755
CaCr4(HgO4)2,0.0,-1.777294243666668,mp-1234928
Y4Si2Sb2W13O28,0.0,-1.777232791632652,mp-1248937
Ba4Sr4Co3Cu5O24,0.0,-1.7770716985000001,mp-1076491
MgCr4(CuO4)3,0.0,-1.777060351749999,mp-1302062
Li2CoO3,0.0,-1.777049654444449,mp-1173879
K4Li5(FeO4)2,0.013999999999999,-1.7769311108245611,mp-759002
KLi4FeO5,0.0,-1.776893787325758,mp-756561
MnAlP2(HO)15,3.7952,-1.776860337528434,mp-758995
NaFeH4SO6F,2.131199999999999,-1.776843313134236,mp-1193859
Mn13Cr3O32,0.6313000000000001,-1.776791981106323,mp-775873
Fe6P4H17O27,1.5183,-1.7767458777744691,mp-744374
CeMnSbO,0.0,-1.776625294482758,mp-510487
MgMn5CuO12,0.474,-1.776489791297641,mp-2230686
LiMn28O56,0.0,-1.776462592416498,mp-775739
Ba2Co4BrO7,0.0,-1.7763998185714291,mp-1228776
NaCoCSO7,0.4885,-1.776349513989028,mp-770820
LiCoCSO7,0.6955,-1.7763405368939391,mp-773196
Mn7CrO16,0.9978,-1.776019792313217,mp-769632
Ti(CoO3)2,0.0,-1.77583029037037,mp-753158
Li2NbNi3O8,0.0,-1.7757593465476191,mp-771953
GaFeNiO4,0.0,-1.775721365357142,mp-1224929
K4Mn2S4O19,0.105399999999999,-1.775668756805589,mp-1199803
CoBi6(SO8)2,2.350099999999999,-1.775559480399999,mp-1190466
MgMn8(SO3)8,1.212899999999999,-1.7755218324011761,mp-1233998
CsMoO3,0.0,-1.7754282169310351,mp-1183917
NiSb2H12(O3F4)2,5.0235,-1.77542192862069,mp-1199397
Mn2FeO3,0.1081,-1.7749765443103451,mp-761563
FeSb2C6(OF2)6,4.6192,-1.774855681296297,mp-19466
Cs4Mn3O6,1.2663,-1.7747354578779821,mp-1226457
Li10Co4O9,1.4087,-1.774703425362318,mp-1185179
Mn2NiO4,0.0,-1.774506774408867,mp-36843
MgWCl4O,2.2573,-1.774338191428571,mp-2226888
UMo2H2O9,2.1206,-1.774069897321429,mp-1208512
Li4Mn3Cu3(SbO8)2,0.0,-1.773744931683088,mp-775279
Sr3Co2Cu2S2O5,0.0,-1.773583601428571,mp-1400076
K3MnCrO8,0.8097000000000001,-1.773574471513925,mp-757140
ZnCr2O5,0.0,-1.773542630624999,mp-1043285
V30Cu34O95,0.0463,-1.773481938270441,mp-1217808
Co2PH2CO7,2.6567,-1.773397905164835,mp-23823
ZnCrAs2O7,0.6120999999999991,-1.773259136590908,mp-1042787
Zn3Ge3(WO6)2,0.891699999999999,-1.773128394999999,mp-1364109
CaMn4(CoO6)2,1.160699999999999,-1.773012849564429,mp-1233435
Na8Li9(FeO4)4,0.0534,-1.772946923271201,mp-768443
Cs2Fe2(MoO4)3,1.4418,-1.772846299700545,mp-1202238
Na5Co2As(CO4)4,0.0,-1.772822343371305,mp-779756
Be2Co(NF7)2,0.662999999999999,-1.772708651578947,mp-1215013
GaFe(BiO3)2,1.6718000000000002,-1.7726048377499999,mp-1225056
CaFe2(AsO5)2,0.0,-1.772397469333334,mp-1196503
K5NaV2(MoO5)6,0.7734000000000001,-1.7722706969915771,mp-726386
RbFeO2,1.5864,-1.772249116875,mp-755536
Bi2Te2WO10,2.8648,-1.772135222555556,mp-559837
Zn2NiWO6,0.0001,-1.772110101499998,mp-1275491
Mn6HO12,0.0,-1.7720895791492761,mp-1080246
LiMnRhO4,0.043499999999999,-1.7718442451806231,mp-1222353
Li3CrCo3O8,0.780199999999999,-1.771829998333333,mp-759149
Li7Fe3O10,0.0,-1.771821454666667,mp-1176887
Mn15CrO32,1.0028,-1.7716669797701141,mp-771190
Li2Cr(CoO3)2,0.0,-1.77163136560606,mp-757009
Ba3V2H12(C5O14)2,0.021399999999999,-1.771629708363637,mp-1195162
Sr2Li4MnS3O2,2.0078,-1.771563476980363,mp-1173260
Li4MnFe5O12,0.284499999999999,-1.771486655966562,mp-771089
K2Cu3(MoO4)4,0.597599999999999,-1.77147572218,mp-704317
Li3Cr3(NiO6)2,0.728499999999999,-1.771243443625,mp-772885
Cs2Cr4O13,1.7647,-1.770825199832124,mp-31378
Li2FeCoO4,0.844399999999999,-1.770816632083334,mp-753409
V2Ni(HO2)4,2.7872,-1.770659468333333,mp-542027
LiNi(SO4)2,0.0,-1.770515055694444,mp-776292
V3H4NO8,2.1017,-1.770195882500001,mp-768097
MgFe6(O5F)2,0.0,-1.7701513007894731,mp-2230699
K2Li3CoO4,1.4735,-1.7700962439499999,mp-757868
K6Na2MnH24(WO6)6,1.8851,-1.770014516589196,mp-766955
CoP2(H4O5)2,2.448,-1.769815492823129,mp-24536
MoPb3Cl2O5,2.198199999999999,-1.769634967727272,mp-557563
CaNiO3,0.0,-1.7696274735,mp-1368210
K2CoP2(H3O4)2,3.1642,-1.769540892172932,mp-1188582
Zn3Mo2O7,1.6887,-1.769287838749998,mp-1374543
Na7V2O6,0.8766,-1.769251600977011,mp-849512
NaLiMo(H2O3)2,4.5497,-1.7690149095932801,mp-504845
Li4Ti2Fe3Ni3O16,0.0,-1.769000876428571,mp-766008
Li4Mn5Ni3O16,0.0,-1.768968346535302,mp-756534
V12Cu10O33,0.4843,-1.76884941009091,mp-1100992
Sr4Fe6Bi7PbO24,0.0,-1.768833545952381,mp-1218820
Mo3O7,0.9197,-1.768803336499999,mp-1044452
TiFe11O16,1.125499999999999,-1.768662905119047,mp-759782
Cs2Mn2Cr3O12,0.0,-1.7685085167196,mp-1214390
Li3Fe5O9,1.6984,-1.768304815882352,mp-770655
Ba2Tl2Mo3O10,0.0,-1.768150934509805,mp-1046567
Mn5SbO12,0.0213,-1.767984775536398,mp-753773
Be2Tl2Co(O3F4)2,0.6817000000000001,-1.767883232982456,mp-1214715
KMn2Cr2O10,0.0,-1.767814626207471,mp-1104505
LaFeAsO,1.285599999999999,-1.767602885000001,mp-1281007
ZnCu4(WO4)5,0.0,-1.767459636833333,mp-1216042
Na2U2FeH8(C3O7)4,0.242599999999999,-1.76743012722186,mp-1201346
Li3Mn(NiO3)2,0.0,-1.767421712744252,mp-756364
Ni8B3SbO15,0.0,-1.7673931225000001,mp-1220223
LaZnFeAgO6,0.1311,-1.767167328166667,mp-1044078
V2Bi8O17,2.140799999999999,-1.7669155694444452,mp-1100934
KMnH5(SO5)2,4.3698000000000015,-1.766846219285843,mp-1223556
Zn2SbWO6,1.4332,-1.766584842999999,mp-1370607
CsMnH5(SO5)2,4.3098,-1.766457656254537,mp-1225960
LiFeP3(H7O8)2,3.932699999999999,-1.766302527136054,mp-850955
MgCr4O12,1.2127,-1.7663017126470582,mp-2228969
ZrNiO3,0.0,-1.766193799,mp-1188025
LiCo(CO3)2,0.0,-1.766132306833333,mp-753103
ZnCr3O7,0.0,-1.766088374090909,mp-1044344
K8Li9(FeO4)4,0.0,-1.766011681567567,mp-759352
Li2Mn2CuO6,0.235799999999999,-1.765942825684429,mp-755903
Li2TiNi3O8,0.7121999999999991,-1.765857367321428,mp-775328
SrMo5O8,1.39,-1.7657979544642861,mp-15096
Na8MgMn2O8,1.1156,-1.765794086415607,mp-2231876
Li4FeBi(TeO6)2,1.0224,-1.7657390303333331,mp-776005
NiP2(H4O5)2,3.7796,-1.7655269852040851,mp-510650
Cs2(WO4)3,0.053799999999999,-1.765429001135903,mp-1227596
K3MnO4,0.0,-1.765423763085129,mp-19140
Li4Nb(FeO4)3,0.0,-1.7654171276666661,mp-774238
Li3Co2SbO6,0.6329,-1.7653146716666661,mp-754343
LiCo(SO4)2,0.092,-1.765250341527778,mp-1176804
ZnTeMoO6,3.0952,-1.7651720629629621,mp-558830
NaMgMoO3,0.0,-1.764870560229885,mp-2225340
MgIr2(WO6)2,0.0,-1.764860706764705,mp-2229273
FeBi2PO8,0.0,-1.764770264136905,mp-1190874
Fe3P4H12(NO8)2,3.8429,-1.764610674961389,mp-1205149
Li5Co5(SnO6)2,0.0,-1.764418433611111,mp-756714
LiMn2CoO6,1.3976,-1.7640313429195411,mp-1176665
SrNiO3,0.0,-1.7639698830000001,mp-762506
V3(AsO4)4,0.0,-1.7638833832608711,mp-1047768
K2MgMn2O4,0.0,-1.7635620994846741,mp-2215994
K2Mn(SeO3)2,3.6409,-1.763508037465322,mp-19137
VGa(CuO2)2,0.0,-1.7634390084375,mp-1216344
Li2Mn5O12,0.0612,-1.7634287105958861,mp-758668
CaCr2(CuO4)2,0.4613,-1.76328286076923,mp-1351744
Na5Ni2As(CO4)4,0.0,-1.7632687349784482,mp-771195
LiFe2O3,1.555799999999999,-1.763118891388888,mp-1298536
Ba2AlNi3O8,0.0,-1.763076705,mp-1048224
V3(FeO6)2,0.239899999999999,-1.7628865314705882,mp-1196228
Ba2Tl2Cr3O10,0.0,-1.762861741568628,mp-1046536
Na3Fe5O9,0.0,-1.76275977112576,mp-540658
MnRe2(HO5)2,0.3565,-1.762651927695402,mp-1104976
Rb2Mo3Se3O16,2.6974,-1.762394380501302,mp-1194625
NaMn2BiO6,0.0,-1.762296919724138,mp-1120814
CaFe(GeO3)4,0.0,-1.76205719611111,mp-1519272
NiAgF3,0.761,-1.761972439000003,mp-998429
MgCo2(SO5)2,0.255599999999999,-1.7617410660000001,mp-2232215
LiBi3PbWClO8,0.0,-1.761629465555555,mp-1235925
Li4Mn3Cu3(SnO8)2,0.0,-1.7616003931116582,mp-774670
Fe2Ag(MoO4)3,1.1415,-1.761549528703704,mp-560130
MgMo2(Pb2O5)2,1.782499999999999,-1.7614488679411762,mp-2229267
Rb11Mn8O16,0.148599999999999,-1.761280761241379,mp-1201493
Na2NiAsCO7,1.1155,-1.7612443987715511,mp-772551
NaMgCr2In(H2O5)2,1.1299,-1.7611706288445261,mp-2231703
MgNi4(OF2)4,0.538,-1.761023428529411,mp-2240852
Li4MnCo2NiO8,0.8306999999999991,-1.7609538500790232,mp-1222620
CaMnIrO6,0.0,-1.76091609532567,mp-1342876
BaV(AsO5)2,0.3913,-1.76079180125,mp-1199112
EuMn4(CuO4)3,0.0,-1.7607220618362072,mp-641487
BaFeCuPb2ClO5,0.0,-1.760717300454545,mp-1228046
Sr2GaNi2O7,0.0,-1.7605792339583322,mp-1043888
KFe2P2O11,0.0,-1.760429509783481,mp-1196130
ZnCr4O9,0.6792,-1.760390922142857,mp-1041381
Mn3Zn(FeO2)8,0.9949999999999992,-1.760346709778325,mp-1221853
MgMo4O9,0.9188,-1.759882825714286,mp-1047806
Ba3Sr5Co2(CuO4)6,0.0,-1.7597859297500011,mp-1076137
CaMn2CoO7,0.267299999999999,-1.7597305691692782,mp-1042685
LaMo5O8,0.307699999999999,-1.7596719003571422,mp-3911
NaSrFeBiO6,0.0,-1.759574908137931,mp-1519031
Sb(MoO4)2,0.0,-1.7594720945454552,mp-25264
Na2Co5Mo4(ClO4)4,2.358199999999999,-1.759426905895439,mp-699543
Li3MnCo3O8,0.4649,-1.759352177862069,mp-774219
Zn(MoO2)4,0.0,-1.759228370769231,mp-1393933
Na2Mg(FeO2)4,0.9746,-1.759007263850574,mp-2232376
Fe6CuP4(H4O7)4,1.0402,-1.7589186423376622,mp-1213332
Mn2V3(AgO4)3,0.095699999999999,-1.7588316684181031,mp-1210930
Ba2Tl2Zn3Cr4O12,0.0,-1.7587459346376821,mp-1807788
Ba3Fe26O41,0.4319,-1.7586266682857141,mp-1201385
K2Mn2O3,0.0,-1.75827920719458,mp-19148
Rb2Cr4O13,1.7665,-1.758260677236842,mp-616565
Na3MnO3,1.3748999999999991,-1.75822225208128,mp-755984
CrBiO4,0.5143999999999991,-1.758149844583335,mp-1274148
CrFe2O5,0.0,-1.758130379375,mp-754205
Mn(AsO2)2,2.0961,-1.7580691904187151,mp-752598
Li4Co3TeO8,0.8300000000000001,-1.757933875,mp-772478
Li2Cr3(CoO6)2,1.789,-1.75782173627193,mp-772115
Li7Co5O12,0.6824,-1.7574475763888882,mp-771155
LiCr4(HgO4)2,0.0,-1.75720547188889,mp-1235716
Li4Mn3(NiO4)3,0.1532,-1.7571288107784742,mp-753186
MgNiAsO5,0.151199999999999,-1.7568828650000001,mp-1374432
LiZn2AgWO6,2.05,-1.75662196590909,mp-1235459
V2CuH3O7,0.0,-1.756317667596154,mp-1193540
As2WO7,3.0777,-1.7562670062499999,mp-1042755
ZnBiMoO5,1.399499999999999,-1.756109303125001,mp-1044297
VP2Cl7O4,2.0934,-1.7561092603061221,mp-555373
KFe2(MoO5)2,0.0,-1.756024259816666,mp-1103886
Li2Mn3(FeO4)3,0.1401,-1.755949613522987,mp-753998
Ga2Mo(SeO5)2,3.6215,-1.755290112479167,mp-554901
Mn3HO6,0.0,-1.755285574504311,mp-1003317
RbLiWO5,0.6105,-1.7550762851041661,mp-1209734
KLiWO5,0.7030999999999991,-1.755055637885416,mp-1211940
Rb2Mn3O4,0.3306,-1.754988467643677,mp-1188117
VAgO3,1.628299999999999,-1.754956429833332,mp-559736
MgMn2(FeO2)4,1.3389,-1.754808101390805,mp-2232141
MgFe4As2O11,1.651999999999999,-1.754746175277778,mp-2229130
LiNi2(SO4)3,0.0,-1.7547354172685181,mp-768614
MnFeBiO5,0.373199999999999,-1.75462410474138,mp-1221879
K3MgMnO4,0.7431000000000001,-1.754562689409003,mp-2240210
MgW2(ClO)4,0.0,-1.754547012272726,mp-2223701
Mn2HO4,1.076199999999999,-1.7545104570874381,mp-1003920
ThCrO7,0.0,-1.7543777283333322,mp-1189314
H2WO4,1.4761,-1.754318643928571,mp-29530
Fe3PH6PbSO14,2.0408,-1.754193803832417,mp-735523
VAs2O7,1.397,-1.7539152655,mp-1042751
MnZn(FeO2)4,1.083899999999999,-1.753611730566502,mp-1221602
MnIn2NiO6,0.0,-1.7535442976264362,mp-1188474
K2Cr4O13,1.8378,-1.753510224184211,mp-542693
Mn2CrPb2O9,1.386099999999999,-1.753440513275807,mp-1193329
Li5Ni5(SnO6)2,0.1107,-1.75303883111111,mp-772998
Li5Mn2Fe17O32,0.9062999999999992,-1.753033100045156,mp-775411
Mg2Fe9O13,0.7421000000000001,-1.753005777291666,mp-1045982
Na2LiV5H18O23,2.469999999999999,-1.752917536807999,mp-1203476
VH4N(OF2)2,3.2112,-1.7529092170833331,mp-1194544
SrFe3Bi2O9,0.0,-1.752871195,mp-1218295
LiNiCSO7,0.3377,-1.752789260075756,mp-770369
V4NO10,1.3364,-1.752712464999999,mp-1207886
Li3Fe2CuO6,0.610399999999999,-1.7526240233333321,mp-755180
Li4Mn3Co2Te3O16,0.1778,-1.752364640254514,mp-753545
LiNiSnO4,0.3588,-1.752339691904762,mp-756797
Fe5O7F3,0.0,-1.752188765999999,mp-1178256
CoPb2WO6,1.87,-1.752120892999998,mp-20069
Cr2Te4O11,2.3209,-1.752028875686286,mp-540537
SrFeBi2O5,0.0,-1.752010775555556,mp-1208668
K2CoH2(SO5)2,0.883,-1.751614826,mp-1212258
AlCoP2C2(NO4)2,0.3982,-1.751557575580356,mp-1196580
HoZn(NiO3)2,0.0,-1.7513360859999991,mp-1041153
ZnMoAsO5,1.005299999999999,-1.751313726875,mp-1047153
Bi17W3O34,2.0285,-1.750911648148149,mp-757274
FeCo2BO5,0.0,-1.750658042962963,mp-1203720
LaFePO,0.0,-1.750613983660714,mp-510668
NaNiAsO4,0.0,-1.750389314839901,mp-558835
K3VH2(CO5)2,2.2312,-1.750312234125,mp-559433
Mn3Fe2Sb3O16,0.3965,-1.7500171768247121,mp-756766
FeAg3F6,1.7972,-1.749918151499999,mp-1205948
V(CoO2)2,0.1323,-1.749845271309522,mp-530941
BaMn2Ru4O11,0.0,-1.7498448808812261,mp-1228364
Li9Co7O16,0.7064,-1.7498306231249992,mp-1175469
MnZn3(FeO2)8,1.336199999999999,-1.749804721711822,mp-1221586
MgNi2(MoO4)2,1.168199999999999,-1.749762787307692,mp-2218442
Li4Fe3Ni2Sn3O16,0.0,-1.749699324940476,mp-774281
MgTe3WO12,1.8794,-1.749527644999999,mp-2224751
LaV3TeO15,0.029899999999999,-1.749503913833333,mp-1180989
CsMo2H2C7S7(OF)21,2.2331,-1.749253938273036,mp-1198212
MnFeNF6,1.4212,-1.749142320742337,mp-1201036
LiWO2,0.0,-1.749117898333333,mp-25467
FeGe3H4PbO10,2.915999999999999,-1.748859881315789,mp-1196102
Li5Cr2Ni5O12,0.0,-1.748726702361111,mp-774237
Li2Co3SbO8,0.8174999999999991,-1.748696522261904,mp-757613
Li4Ni3(SnO5)2,0.0092,-1.748670782017542,mp-758187
Li4Fe3Cu2Sb3O16,0.0,-1.7485581429761892,mp-765704
Li5Fe11O16,1.2236999999999991,-1.748551487395834,mp-766727
SrCo2As2(H2O5)2,2.7097,-1.748149730394736,mp-562127
Mn3H6(SO6)2,2.9737,-1.747997947121438,mp-1212144
CoBi2SO7,2.244799999999999,-1.7479497363636372,mp-1195268
Fe2Pb3WO9,0.0,-1.747841644333332,mp-1224835
Fe2Cu2Ge4O13,0.2979,-1.74779175904762,mp-22219
Li2Cr3(CoO4)3,0.2359,-1.747688366333332,mp-753037
Mo2HO6,0.0,-1.747554473472223,mp-626099
Zn2Cr2O5,0.6607000000000001,-1.747545273333333,mp-1376393
NiMoO4,0.0,-1.7472281991666672,mp-505273
K2MnH8(SO6)2,4.6359,-1.746971931797241,mp-542145
K2LiFeO3,2.0745,-1.746968267190476,mp-756221
Li6Mn17O40,0.0,-1.74693590229885,mp-758827
Li5NiHO4,2.5772999999999993,-1.74650008060606,mp-1177168
FeMoClO4,1.5746,-1.7463620228571421,mp-23123
Ba2Sr2Co(CuO4)3,0.0,-1.746319999,mp-1099763
Na8Mg(FeO4)2,1.9348,-1.746264615580762,mp-2230177
MnZnO2,0.038999999999999,-1.7460686007327582,mp-1046085
MnH6(OF)3,1.5208,-1.745661282725463,mp-735521
LiCoO2,0.6623,-1.7456597708333341,mp-22526
K2MgCr2Cd(H2O5)2,1.1116,-1.745658919724999,mp-2230097
Li2Fe3BiO8,1.142,-1.745565866369047,mp-1177997
Li3Co4WO8,1.328699999999999,-1.745525790625,mp-754704
Na2Mo(H2O3)2,4.5563,-1.7454620678083541,mp-1182757
CaCo2Te3(ClO4)2,2.1672,-1.745453416249999,mp-562004
Ba3Co8Sn3O20,0.0,-1.745435951617646,mp-1214703
Mn3Fe5O12,0.479499999999999,-1.7450539606896551,mp-757662
Zn(FeO2)2,1.6686,-1.745025911428572,mp-19313
LiMnH4(SO5)2,1.045499999999999,-1.7447988750702421,mp-1176828
Mn2CdO3,0.0,-1.744773992643678,mp-1221887
Mn3Cd2O8,1.214799999999999,-1.744743971061009,mp-18870
Mn3(HO3)2,0.131499999999999,-1.744651857844828,mp-1004758
Li7Fe4NiO12,0.0,-1.744324536388889,mp-760174
SrCo2Te3(ClO4)2,1.867699999999999,-1.7442858740625,mp-562378
Mn2Mo3O8,0.0,-1.7441281142970821,mp-504503
NaNiCSO7,0.079899999999999,-1.744040105352663,mp-863078
CoSnO3,0.0,-1.7440109039999991,mp-761574
NiP3NO9,0.0,-1.743827148137755,mp-720476
Ba(Mo3O5)2,0.085899999999999,-1.743794238088236,mp-624196
KMgMoO3,0.9696,-1.743446017875,mp-2210641
Li4Co5Sb3O16,0.0,-1.743195600119048,mp-771118
Na4MnO4,0.688199999999999,-1.7431354359386981,mp-849304
Na3VH6O7,4.0072,-1.743100037449289,mp-643263
MgCo2(SbO3)4,0.2881,-1.742929013947368,mp-2230991
CaMn4O9,0.0,-1.742698182980296,mp-1047836
Li4Mn3Fe2Co3O16,0.0,-1.742501665611658,mp-774451
Sr2MnCu2(SO)2,0.0,-1.742359545881226,mp-551219
VSi3Bi61O100,2.001,-1.741977559151517,mp-1217882
MgCr3Se3(SO8)3,0.1552,-1.741964778662683,mp-773053
Na2EuMnO6,0.0,-1.741940168568967,mp-1518085
Li2(FeO2)3,0.0,-1.741920333787879,mp-752883
Mn3NiO4,0.0905,-1.741881976724138,mp-776651
MgHg8(W2O7)4,1.4644,-1.741593121,mp-2216938
FeSnH12(OF)6,2.0402,-1.741567922211538,mp-505108
W4NO12,1.233299999999999,-1.74147200245098,mp-1216288
LiMn3(NiO4)2,0.0,-1.741463395509031,mp-755150
Li4Fe3Co3(SnO8)2,0.0,-1.741413519761905,mp-793779
Na2U2CoH8(C3O7)4,0.0,-1.7413468440143132,mp-1201788
NaVH8(NF3)2,0.0,-1.741254018409962,mp-1209962
KFe8P8H16N7(O4F)8,1.1171,-1.7412095468674111,mp-1225303
Li5Mn5(SeO3)8,0.8681999999999991,-1.740876196073138,mp-1222696
SrMgFe2(SeO3)4,3.1105,-1.7408086417187492,mp-2230288
Li4Cr2Ni3Te3O16,1.0141,-1.740774352976189,mp-754975
CaMo5O8,1.0922,-1.740643009285715,mp-3856
MgHg2(WO4)2,0.0,-1.740642354615385,mp-2220018
KV3CdCu4O13,0.066599999999999,-1.7406361921477271,mp-1211626
LiCdMoO5,0.0,-1.740521983541667,mp-727198
V3Se2ClO8,1.665,-1.74051463390625,mp-1048546
Li8TiNi7O16,0.0,-1.7400736128125,mp-760950
Li5Mn2Cu3O10,0.0,-1.7400155553764372,mp-755409
MnTeO3,3.006299999999999,-1.73984980841954,mp-1176417
VCdCoO5,1.537,-1.739821524375,mp-1194927
Ni3P3O13,0.0,-1.739775875996239,mp-1048029
Co3(PO5)2,0.0,-1.7395811326190471,mp-1193155
Li13Co11O24,0.204599999999999,-1.7389881511111112,mp-531078
Li2Mn3(SeO3)4,2.7896,-1.73881286403975,mp-773051
Cu3Mo8Br2O23,0.019299999999999,-1.73850463548611,mp-557905
Na3V5H18O23,2.447899999999999,-1.7384807288089381,mp-1196902
CrPbO3,0.0,-1.738003188999999,mp-22364
CoPHO5,0.5879000000000001,-1.737980412924107,mp-755227
NaCr2FeO8,1.662,-1.737952860114942,mp-1210261
Li3Mn2(SeO3)4,0.7033,-1.737886894058909,mp-1211552
W(ClO)2,1.7864,-1.737782917999999,mp-32539
MnSb2Pb5O11,1.4424,-1.737715705417423,mp-687227
Fe2NF6,1.8135,-1.7376558488888891,mp-1198504
Li2CoO2,2.5449,-1.737626623333333,mp-755297
V2Pb14Cl4O17,2.3284,-1.737520938513512,mp-825375
CaV5H19O23,2.343,-1.737280128411458,mp-774676
CoSO4,2.1606,-1.7370555291666672,mp-19379
Li2Mn5(CuO6)2,0.0663,-1.737028891729611,mp-849474
Li3Co2O5,1.0581,-1.7368159920000001,mp-1173960
Mn2Zn3O7,0.336799999999999,-1.736770375071838,mp-1378139
Li4Mn3Cr2Cu3O16,0.0,-1.736244868111658,mp-867667
InAg(MoO4)2,0.0,-1.73607568625,mp-1224724
K2Mg(FeO2)2,1.1107,-1.735855241055555,mp-2240467
Li2Cr3(NiO6)2,2.4624,-1.735614386008772,mp-780190
Fe(GeO3)2,0.0,-1.7355363388888891,mp-1043501
ZnCu(MoO4)2,0.4366,-1.735525131666667,mp-1216064
ZnCrO2,0.116999999999999,-1.73540004375,mp-1444748
BaFe12O19,1.2425,-1.7352961110937501,mp-554293
Li9Cr12Co7O48,0.0,-1.734975419605262,mp-772364
TeWO6,1.6646,-1.734877521458333,mp-1386832
ScCr2Ag(H2O5)2,1.7683,-1.73466522787037,mp-559606
Zn2FeSbO6,1.3843,-1.7346123145,mp-1370970
Mn2Te3O8,2.1851,-1.734562590066312,mp-18607
MgFe2O5,0.0,-1.734424305,mp-756222
MnHO2,0.0,-1.734264161670258,mp-626270
RbV3CdCu4O13,0.0,-1.7341316907954551,mp-1209242
Na6Mn7O10,0.261199999999999,-1.7341275862518721,mp-774805
Li4Co3Ni3(WO8)2,0.008999999999999,-1.733876700119048,mp-761155
FeP3(H2O3)3,2.1041,-1.733779722706767,mp-746690
Zn2SbMoO6,0.0,-1.733625557500001,mp-1370720
BaCoH2C3ClO8,0.2252,-1.733551234843751,mp-1229322
LiCrNiO4,0.0,-1.733245711190476,mp-768708
Li4Fe3Ni3(SbO8)2,0.0,-1.733202132619048,mp-761969
BaMg(MoO2)4,0.0,-1.732673396785715,mp-1044540
Sr4Fe4O13,0.0,-1.732651109285713,mp-1204222
Li4Mn2Cu3Sn3O16,0.0,-1.7326246326498351,mp-776289
Mn4CoO8,0.0,-1.732441105517241,mp-755442
ZnAsWO5,2.6036,-1.732380881562499,mp-1047474
BaFeO4,1.412299999999999,-1.732218810833332,mp-1214471
Fe2Cu8P4O21,0.0,-1.732204852387754,mp-1201149
KFeO2,2.1388,-1.73185696134375,mp-559464
CrHg3F6,0.158499999999999,-1.731808436750002,mp-1237300
ZnW3O7,1.036099999999999,-1.731621808409091,mp-1044651
Hg2Mo5O16,2.3691,-1.731616798913044,mp-29148
Na2Li2FeO4,0.274,-1.731552843269476,mp-25323
NiPb2WO6,2.7937000000000003,-1.731523378999999,mp-1206631
CsFeO2,1.976,-1.731291164913793,mp-1080749
LaCoAsO,0.0,-1.731155109375,mp-1079008
SrFe12O19,1.140199999999999,-1.731081362812499,mp-3742
ZnCrBiO5,0.861499999999999,-1.7310511621875,mp-1044221
Li4CrNi3O8,0.0,-1.731019542083332,mp-757137
Zn2MoSeO7,3.7131,-1.730790659303977,mp-1191333
KV5Zn(H8O11)2,2.4984,-1.730611860827777,mp-1182650
VCdCuO4,1.1168,-1.730580807857142,mp-505424
Ba3SrCo(CuO4)3,0.0,-1.7305455410000001,mp-1099886
SrZn2Fe16O27,0.9205999999999992,-1.730516837065218,mp-1208968
Li2Cr4O13,1.5733,-1.7304895108771932,mp-770390
MgMnPbO3,0.173999999999999,-1.730377952988505,mp-2223058
BaFe5Bi4O15,0.0,-1.730333613000001,mp-1228771
Li5Ni5(SbO6)2,0.0,-1.730319753194444,mp-756974
KNiBiWO6,1.3429,-1.730307628724999,mp-1519358
KVHSe2O7,2.2736,-1.730252895265624,mp-644015
Li4Co3SbO8,0.0,-1.730222008333333,mp-1177495