formula,bg,formation_energy,mp-id
Sr2Pr2CrNiO8,0.912899999999999,-2.87284058452381,mp-1218722
CaTiP3WO12,0.7037999999999991,-2.8728153273478823,mp-1044377
Na2LiMnF6,0.0,-2.872809395402298,mp-1114240
ZnCr(Si2O5)2,3.3001,-2.87278921609375,mp-1043538
Rb2TlCrF6,4.1503,-2.872781604833334,mp-1113651
BaVPO6,2.469,-2.872445018293651,mp-18520
SmCo(BO2)5,3.1202,-2.872250434901961,mp-19489
Mg30VBiO32,0.0952,-2.87209829078125,mp-1036755
SrMg14CrO16,2.615599999999999,-2.8719925678125002,mp-1034560
HfMg30WO32,0.0,-2.87195628578125,mp-1038524
Ca2Nb2MoO8,0.0,-2.871741029615384,mp-1047029
MnNb2O6,1.924,-2.8716737219923463,mp-22100
Ba2ZnFe2F14,0.1839,-2.871632728421052,mp-1356655
BaNaLaWO6,3.044499999999999,-2.87159690113793,mp-1519664
CaCrP2O7,0.1076,-2.871509720616883,mp-19134
Ti2MnZnO6,2.2983,-2.871506938959771,mp-1217104
Li2V(SiO3)3,2.131399999999999,-2.871320038111112,mp-757471
CaMg6MnO8,4.655200000000001,-2.87126940049569,mp-1032915
BaLa4Mn5O15,0.0,-2.871141452586207,mp-1228080
KSrNdWO6,2.825799999999999,-2.871091192975,mp-1519244
BaSrCaMoO6,2.2592,-2.8710762930000002,mp-1227642
Mg14VFeO16,2.820099999999999,-2.8706128821875,mp-1035698
CsCrCoF6,2.2148,-2.870498638295019,mp-1225975
Li4Mn3OF8,1.7732,-2.870496867007903,mp-849279
Na2MnFeF7,1.4946000000000002,-2.870432939759665,mp-1221376
Sr3Pr7Cr9NiO30,0.0319,-2.8703592162333322,mp-1173249
MnSi2O5,2.237999999999999,-2.870239342241378,mp-19351
Mg30CoBiO32,1.275099999999999,-2.8702220046875,mp-1036911
UMoO5,0.1444,-2.870027866785713,mp-618968
Ba2WO5,3.1569,-2.869734222187485,mp-28403
Cs3Fe2F9,4.0424,-2.86969627635468,mp-541662
NaNdMgWO6,0.000199999999999,-2.86962836088793,mp-1210016
Na2Ti3Cr(PO4)6,0.0,-2.869625970017105,mp-772553
BaSc6Ni4O15,0.0,-2.869307485576923,mp-1214365
NdCo(BO2)5,3.1184,-2.869298354901962,mp-19495
BaFeCuF7,0.37,-2.8692657275,mp-1228033
NaSrLaWO6,3.0666,-2.869249961887931,mp-1516595
CeFeO3,0.6746999999999991,-2.869122613,mp-756062
Sr3NdMn2O8,0.0,-2.8688906402401493,mp-1218352
Ba2EuMoO6,0.0479,-2.868653988499999,mp-1205758
ZrCrO4,1.27,-2.8685314733333342,mp-1650178
Li2MnF6,2.7177,-2.8684345934738182,mp-754966
Nd4Mn3NiO12,0.101399999999999,-2.8683904156896562,mp-1220253
Y2Mn2O7,0.8710999999999991,-2.868369052351096,mp-18831
NaCaFe2(SiO3)4,1.5807,-2.868352482068965,mp-694890
Li2Ti3V3O12,1.0266,-2.868105422083334,mp-753240
BaNb4CrO12,1.418799999999999,-2.868059169444444,mp-1519975
CaTb2Mn3O9,0.0,-2.8680120311417623,mp-1227302
La3SmV2Cr2O10,0.3219,-2.867871641805556,mp-1099885
Li3Ti3Fe(PO4)6,2.3884,-2.8677860348069513,mp-695021
Ca2Nd2MnNiO8,0.0,-2.86772610413793,mp-1227616
Mg30MnBiO32,0.1233,-2.867624334498922,mp-1037840
BaNb2V2O11,2.1233,-2.867384822812499,mp-1188841
MnZn(Si2O5)2,3.0012,-2.86704476565194,mp-1043523
Ca2Pr2MnNiO8,1.345199999999999,-2.866939360804596,mp-1227517
Sr3DyMn2O8,0.0,-2.866890360537767,mp-1218420
Sr7CaTi3Mn5O24,0.0,-2.866788380991379,mp-1076827
KCaTbWO6,2.8457,-2.8667038203916673,mp-1521279
Y2MgMn2O6,0.029599999999999,-2.866402815532915,mp-2217804
SrSm3Mn4O12,0.0,-2.8662900968362073,mp-1218118
La2ZnWO6,2.117,-2.866188211,mp-1445639
NaTbEuWO6,0.299999999999999,-2.8660974383045983,mp-1517099
Sr2YMgCrO6,2.7729,-2.866088234999999,mp-2217900
YCo(BO2)5,3.1218,-2.86607626637255,mp-19468
Li3MnF7,1.5942,-2.865955650266457,mp-759724
Sr2V(PO4)3,1.1096,-2.865927972996031,mp-727920
CsCrNiF6,3.2021,-2.8659248094061303,mp-1229022
U7V5Ag3O35,1.0793,-2.8659245516,mp-1217056
BaLa3Mn4O10,0.6795999999999991,-2.86587979704023,mp-1228230
Sr3PrMn2O8,0.0,-2.865645526252052,mp-1218451
Li2CrSi3O8,3.3157,-2.865351595476191,mp-758277
V2F9,0.6412000000000001,-2.865299171363636,mp-1101228
K2Mn5Si12O31,0.568399999999999,-2.865191498683102,mp-1224568
Ba3WO6,3.151399999999999,-2.865173970999999,mp-1228775
Li6CoOF6,0.0,-2.865153960714285,mp-759438
Ba2Co(BO2)6,0.0,-2.865107833333334,mp-18735
Na2CrNiF7,4.0783,-2.865084767068966,mp-558356
YbCrO4,2.3346,-2.864950179166667,mp-19023
Li3Ti6Co3O16,0.0,-2.8648615298214293,mp-772982
Ba2La2Ni(WO6)2,3.302399999999999,-2.8645880636842103,mp-1228484
Mg11Mn2O13,1.990699999999999,-2.864551717725464,mp-753303
Mg14MnFeO16,1.7607,-2.8645265352478453,mp-1036237
Mg14ZnCrO16,2.323200000000001,-2.8645145696875,mp-1035830
LiMg14WO16,4.4876000000000005,-2.8642498435416672,mp-1035613
Mg30CrBiO32,0.0,-2.86418917234375,mp-1038546
Ti3Mn2V(PO4)6,0.0171,-2.864182918436645,mp-774589
Na2CrCoF7,2.727099999999999,-2.864180678773511,mp-557230
ErFeO3,1.5703,-2.8641381045000003,mp-19935
BaLa3Mn4O12,0.0,-2.8639903213362072,mp-1228047
Ca3Co2(SiO4)3,1.990299999999999,-2.863979490625,mp-1163930
LaTiNiO4,0.275299999999999,-2.863892501904762,mp-1147531
KCaYWO6,2.8432999999999993,-2.863551791724999,mp-1520844
NaEuYWO6,0.299599999999999,-2.863498008637931,mp-1518401
Li7CoOF7,2.304999999999999,-2.863254550833333,mp-765549
BaSrTbCrO6,0.0,-2.863217214666666,mp-1522060
K2RbMnF6,0.0,-2.8627877729931033,mp-1111381
RbMg30WO32,2.8539000000000003,-2.862738325117188,mp-1039670
Ba2MgCuNi2F14,0.0,-2.8627154084999993,mp-1354763
Cs2Na8U8Mo5O44,1.8121,-2.86264720299022,mp-1228549
Ho2MgCr2O8,1.0635,-2.86263296730769,mp-2219250
Ca2V3O8,1.496299999999999,-2.8625693223076922,mp-1284741
Ba3TaFe3(SiO7)2,2.5099,-2.8622157146666662,mp-1190340
Ti3MnV2(PO4)6,0.7793999999999991,-2.862100900438559,mp-774314
NaLi2CrF6,4.2989999999999995,-2.862068752804597,mp-1111349
Ti2Cr(PO4)3,0.0,-2.862026172533069,mp-1101303
CsMg30CrO32,2.9493,-2.861948040932112,mp-1039740
Mg30NiBiO32,1.3833,-2.86189031234375,mp-1036845
BaMg2V2O8,3.5789,-2.8618394488461543,mp-19084
CaMnSi2O7,0.7001000000000001,-2.8617960509482763,mp-1260708
Li2MnSi3O8,2.7880000000000003,-2.861777346399836,mp-753994
MgSi4WO10,2.2137,-2.8616850703125,mp-1043550
RbMg30CoO32,1.9050999999999991,-2.8615452376171873,mp-1037038
K4Ti3Co(PO4)6,1.4530999999999992,-2.86126431518045,mp-706228
HfMg14CoO16,0.1768,-2.8610697259375,mp-1034829
Ho2MnNiO6,1.8696,-2.8608171287931032,mp-1212340
Sr2MgMoO6,2.313,-2.860713332499999,mp-1078539
Ti3V2Cr(PO4)6,0.034399999999999,-2.860577134662698,mp-1101282
CaEuNbFeO6,0.0,-2.8604638795,mp-1521619
Sr2La2MnCuO8,0.0,-2.8604462180665022,mp-1173270
Na12Ca3Fe2(SiO3)12,2.602299999999999,-2.8603256188700272,mp-1221962
Y2FeSbO7,1.8064,-2.859815067727272,mp-1216121
Li6NiOF6,1.8953,-2.859697304642857,mp-753283
Ba5V5O14,1.324899999999999,-2.8595979975,mp-1183410
Be3Tl2Ni2F12,5.4318,-2.8594425314035092,mp-1214337
Sm2V2O5,0.0,-2.859207977222221,mp-1076055
Li3Al2VO6,0.0,-2.859061117916667,mp-755151
Li7NiOF7,3.1729,-2.859025637083333,mp-765342
Li2Cr5(Si2O5)6,1.6612,-2.858896840034013,mp-765349
Nd2MnFeO6,0.6502999999999991,-2.858892264793104,mp-1220545
CaLa4Ga2(FeO6)2,2.3814,-2.858709334047618,mp-1233458
Ca5W3O14,2.4389,-2.858643893409091,mp-778380
BaSrYCrO6,0.0,-2.858605222,mp-1516437
Li2Cr2Si4O11,1.855999999999999,-2.858575855877193,mp-757623
Sr2YCrO6,0.0,-2.858571588,mp-1079925
BaSr3Ca2(MoO6)2,2.3031,-2.8585316465,mp-1227697
VOF2,1.729299999999999,-2.858523329583334,mp-781604
Sr2TbCrO6,0.0,-2.858492841666666,mp-1520970
CaNd3Mn4O12,0.0,-2.858484613711206,mp-1227174
NaMnFeF6,2.4364,-2.858278394367815,mp-1209999
HfMg14VO16,0.091599999999999,-2.85818038625,mp-1034331
NaSrZrWO6,0.0,-2.857939619137931,mp-1519119
Sr3La9Mn11NiO36,0.0,-2.857938530704024,mp-743659
PrEuNbFeO6,0.0,-2.857744084666667,mp-1523150
Tm2MgCr2O8,1.7433,-2.857663850384616,mp-2218774
Li2Mn3F10,0.0,-2.857514081363985,mp-757143
MgMn2(SiO3)4,1.0387,-2.857189015308531,mp-2230268
Mg30FeBiO32,0.609399999999999,-2.85707909453125,mp-1037415
NaSrNdWO6,3.0272,-2.856957951137931,mp-1518812
Sr5Ca3Ti3Mn5O24,0.0,-2.856954031741378,mp-1075962
LiMnSi3O8,1.487699999999999,-2.856851485097259,mp-757876
Mn7F16,1.4016,-2.856739288065966,mp-867575
La2MgMnZnO6,1.8657,-2.856684243902822,mp-2240284
Lu2MgCr2O8,1.7298,-2.856648771410257,mp-2219388
Ba3La3Mn2(WO6)3,1.494999999999999,-2.85663138382283,mp-684803
CaLa2Mn3O9,0.0,-2.85659936641954,mp-1227500
TiMn(PO4)2,1.0138,-2.8563602617125072,mp-773171
Li2U4W4O25,1.917899999999999,-2.8562780147619042,mp-557893
K2HoPWO8,4.5636,-2.8562608251263732,mp-555335
Li4Mn3OF11,1.0928,-2.855915020901392,mp-861557
Sr3ScNiO6,0.0,-2.855798381818182,mp-17557
Li2Co(Si2O5)2,3.370399999999999,-2.8557932662745102,mp-1264368
NdNi(BO2)5,4.0969,-2.855774738431372,mp-19520
CaLaMnCrO6,0.0,-2.855768193293104,mp-1049271
CaPrCr2O6,0.0,-2.855696057166667,mp-1044723
La7Mn8O23,0.0,-2.855446692985481,mp-760072
La5Sm3V2Cr6O20,0.0151,-2.855314994791667,mp-1076879
La7SmMn6(FeO12)2,0.0,-2.855283011689656,mp-1076669
Li11Ti12(NiO8)4,0.051199999999999,-2.855145679096046,mp-760001
Ti3Mn2Cr(PO4)6,0.0404,-2.855109008992199,mp-773110
Ti3NbV2(PO4)6,0.0,-2.855098389384919,mp-774853
Li4Ti3Nb3V2O16,0.0,-2.8550774058333332,mp-756025
HoFeO3,1.5675,-2.855059119499998,mp-19785
Mg14VNiO16,2.0316,-2.8550243909375,mp-1034890
Dy2MnNiO6,0.5364999999999991,-2.8550224766264383,mp-1104659
Li4Ti3VO8,0.0,-2.854964547083333,mp-760347
CaMn2F10,1.7105,-2.854816824297083,mp-1412254
Ti5Ni(PO4)6,0.0,-2.85464059401455,mp-778504
CsMg30MnO32,1.8102,-2.854477723087284,mp-1038041
Ti2Fe(PO4)3,0.1711,-2.854402623366402,mp-778242
SrLa2Mn3O9,0.0,-2.854285460252873,mp-1218302
CaTi3V5O16,0.8822999999999991,-2.854191778,mp-1233418
Na2CaMn3(SiO3)6,0.0814,-2.854117198218391,mp-1221526
NaCaMn3Si5HO15,3.1151,-2.854058600823938,mp-1195048
Ba2La2Zn(WO6)2,3.0766,-2.854017015789474,mp-41236
La7SmMn5Fe3O20,0.4192,-2.854002445407088,mp-1099861
BaV2(P2O7)2,2.0462,-2.853949163503401,mp-557348
La14Mn16O45,0.0,-2.8539170358919552,mp-698613
MgTi3V5O16,0.9013,-2.8538869713999993,mp-1233709
La3Mn3O10,0.0,-2.853741791382903,mp-757379
GdNi(BO2)5,3.132,-2.853718377401962,mp-505232
Ba3MgV4O14,3.1827,-2.853698848636363,mp-1195880
SrNdFeO4,0.494299999999999,-2.853686715357143,mp-1218098
BaNaNdWO6,2.9197,-2.85368200588793,mp-1518179
SrMg14FeO16,4.1301,-2.8536618196875,mp-1035624
Mg14VCoO16,0.907,-2.85321512125,mp-1035122
Sr6La14Mn17(SnO20)3,0.0,-2.8531024729982772,mp-1173234
Al2Fe(PO4)3,3.0241,-2.853053598551587,mp-1229078
Ca3La5Mn7CrO24,0.0,-2.853020032262931,mp-743745
Ti3Mn2Nb(PO4)6,0.0,-2.8529329214922,mp-776180
LaFeO3,1.950899999999999,-2.852925804000007,mp-1078634
NaMg14FeO16,2.5933,-2.852923057855602,mp-1035481
Mg14MnNiO16,1.975299999999999,-2.8528789843103453,mp-1036266
Li5Fe3F14,3.343099999999999,-2.852808813030303,mp-849291
VOF,1.344799999999999,-2.852374580833333,mp-764900
HfMg14CrO16,0.1707,-2.8522728740625,mp-1033901
Li6ScFe5(SiO3)12,2.7584,-2.8521077215833333,mp-766133
BaLa2Fe2O7,0.0,-2.852101886249999,mp-1227917
Mg14ZnFeO16,2.4189,-2.8519646678124992,mp-1035831
RbCrCoF6,2.1763,-2.85196198861111,mp-1219598
Li6Mn11(OF12)2,2.2658,-2.851760759238172,mp-759326
Li3VFeP2(O4F)2,2.4464,-2.85169708672269,mp-1177545
Ta6Mn2Zn3O20,2.138,-2.851670529027809,mp-1218079
LaTiCrO6,0.1022,-2.8513192675925922,mp-1346591
HfMg14MnO16,0.0,-2.8512827677478443,mp-1036036
Al2Cr3(SiO4)3,2.3564,-2.851237027624999,mp-1364177
KSrPrWO6,2.8314,-2.851047782891667,mp-1519713
Ba3Mo2(P2O9)2,2.391499999999999,-2.850849555502646,mp-554339
RbNa2CrF6,3.4631,-2.850811771025862,mp-1110625
Li2VSi3O8,3.1803,-2.85070760404762,mp-766402
Li3Mn3OF7,2.3645,-2.850680804199507,mp-761165
Mn6OF11,1.2102,-2.850571506532567,mp-774350
NaCa2Mg2V3O12,3.3486,-2.850536808193965,mp-706239
RbCrNiF6,3.227999999999999,-2.8505304430555563,mp-1219589
Ti3Nb2Cr3O16,0.8185,-2.850499548750001,mp-777531
YMo3F15,1.8009000000000002,-2.850468216776314,mp-1041695
YbCrO3,0.0,-2.8502928842500013,mp-1187572
LiMn2F7,1.4182,-2.85023693041954,mp-763425
Tb2MnNiO6,1.8813,-2.850117359626436,mp-573037
SrPrDyFeO6,0.0,-2.8497568223333323,mp-1518138
Sr2Nd2CrNiO8,0.6337,-2.849749963214285,mp-1218760
DyFeO3,0.9134,-2.849742895333331,mp-22283
SrLaVFeO6,1.2001,-2.849536051000001,mp-1218148
HfMg14NiO16,0.3383,-2.8495286225000003,mp-1034711
V2OF6,0.141499999999999,-2.849323158888889,mp-1101248
Mg14MnCoO16,1.4029999999999991,-2.8489367227478453,mp-1036235
Mg14CrFeO16,2.411599999999999,-2.8487726806249998,mp-1035602
La7Mo7O30,1.2331,-2.848765359659092,mp-19436
BaMnPClO4F,2.460099999999999,-2.847857914730433,mp-1194882
La7SmMn7CuO24,0.0,-2.847827810137931,mp-1099832
Eu5(MoO6)2,0.0,-2.84772612394737,mp-1105347
Sr3Ca5Ti3Mn5O24,0.0,-2.847616644491378,mp-1076628
Ba3CrF12,0.0,-2.8475992675,mp-1215001
KVPO4F,2.3034,-2.8474841446116073,mp-1239185
SrV2(P2O7)2,2.121299999999999,-2.847431070884353,mp-505345
Sr5La3Mn8(O5F)4,0.0,-2.846956621211208,mp-698712
BaSrCeFeO6,0.0,-2.846781751,mp-1522103
Nb3V(PO4)6,0.0,-2.846515167289915,mp-850405
LiFeSi3O8,3.3579,-2.84630608602564,mp-757037
Pr2MgV4O12,1.0226,-2.846292956754387,mp-2231378
SrLaMnWO6,0.6170999999999991,-2.846217888293103,mp-39626
Ti3MnCr(PO4)6,0.0,-2.84598747587966,mp-771886
Ca9Si6(WO7)4,2.196999999999999,-2.8458852519148943,mp-1214849
Ba3Y5(CoO5)3,1.194699999999999,-2.84567529625,mp-1334271
Mg2Nb2FeO8,3.1238,-2.845580870384615,mp-1048464
Ta3NbV4O20,2.0969,-2.845496595071428,mp-1218100
La5Sm3VCr7O20,0.0,-2.845485937291667,mp-1076766
SrEuNbWO6,0.0,-2.8453503705000003,mp-1518537
Be3Cr2(SiO4)3,1.8397,-2.8452774814999993,mp-1047903
K3WF6,2.8446,-2.845175077174997,mp-555403
Li3V(SiO3)3,2.2965,-2.8450584265625,mp-766406
MgCo(SiO3)2,3.0905,-2.844870474,mp-1041840
Sr2LaMn2O7,0.0,-2.844849860488505,mp-1218756
LiVOF4,3.0153,-2.844819990119048,mp-760189
Sr6Ce2Y4Fe3(CuO8)3,0.0,-2.844734770238096,mp-1218662
LaBMoO6,3.562299999999999,-2.844663909768519,mp-558445
K4Ti3Ni(PO4)6,2.308099999999999,-2.844651223733083,mp-698691
TbFeO3,1.6263,-2.844573657333333,mp-19853
Li4Ti3Mn2Nb3O16,0.0,-2.8444145553284073,mp-760948
K2TiCr(PO4)3,2.6824,-2.844400630882204,mp-1224541
Mg30VCO32,1.332899999999999,-2.844143722890626,mp-1036759
Sr5W3O14,2.5378,-2.843939285227271,mp-779884
Ca2LaMn2O7,0.0,-2.8439152529885052,mp-1214095
CaTa2CoO7,0.369299999999999,-2.843848008492424,mp-1366347
KNdEuWO6,0.173,-2.843766694475,mp-1519055
Tb2MgCr2O8,1.0787,-2.843447229871794,mp-2242039
Li11Fe5(OF11)2,2.3187,-2.843399774666667,mp-1178085
La6Sm2Cr3Fe5O24,0.8646,-2.8433593352499997,mp-1076529
Mg14VCuO16,0.0,-2.8431305090625,mp-1035395
La5Sm3Cr8O20,0.0,-2.8430960843055573,mp-1100028
Nd9Mn10O30,0.0,-2.843045227690007,mp-530644
EuHfVSnO6,0.0,-2.842957942,mp-1517113
Sr3MgV2O8,1.604099999999999,-2.842817693214286,mp-2242152
Ti3(WO6)2,2.6851,-2.842795002205883,mp-776763
SrLiVPO6,1.974599999999999,-2.842732017047619,mp-759976
K2TlCrF6,4.0416,-2.842726659783334,mp-1111376
SrCaZrFeO6,0.0,-2.842691321000001,mp-1519567
V2O2F3,1.2749,-2.84259071,mp-764379
Sr5La3Mn4(WO6)4,2.107199999999999,-2.842544778418103,mp-694898
Sr2MgZrMnO6,1.4201,-2.842528283902822,mp-2240158
Li3Al2CrO6,3.955199999999999,-2.842488636666667,mp-861240
CsK2MoF6,2.8022,-2.842407379415517,mp-1112308
SrHfVSnO6,0.0,-2.8422859705,mp-1520913
MgVO2F,1.7093,-2.842244662000001,mp-2225031
MgCoF5,1.9081,-2.8419068907142853,mp-1385961
NaSrSmWO6,2.873599999999999,-2.8415699396379313,mp-1516403
Mg3Mn2(SiO4)3,1.4259,-2.8414645617931042,mp-1258129
Sm2FeSbO7,1.797099999999999,-2.841330059090908,mp-1219197
Li3V4O5F7,1.2099,-2.841186421052632,mp-752564
Gd2FeSbO7,1.8178,-2.841088052727272,mp-1224759
VF5,3.0176,-2.841025762916667,mp-27309
YEr(FeO3)2,1.5885,-2.840965276999999,mp-1216032
Na2Co(Si2O5)2,2.6552,-2.8409609639858022,mp-18096
Li2TiCr(PO4)3,2.3334,-2.840886545733083,mp-1223017
Mg30CrCO32,1.1748,-2.840847978828125,mp-1038542
LiMg14CoO16,1.877199999999999,-2.8408074379166672,mp-1035145
BaSrGdCrO6,0.0,-2.8407389629999993,mp-1516227
Rb2TlVF6,0.0,-2.840599925833334,mp-1113849
Dy2MgCr2O8,1.5468000000000002,-2.840513100641024,mp-2218943
Ti2MnFeO6,0.0,-2.84028389445977,mp-1217127
Mg30MnCO32,1.9097,-2.840239303327047,mp-1037884
Ca2MnO3,1.7349,-2.84006221882184,mp-1227324
HfMg14FeO16,0.1553,-2.8399963403125,mp-1035541
NaCaDyWO6,2.861099999999999,-2.839973089304597,mp-1523242
Mg14VCdO16,3.0265,-2.839945975625,mp-1034404
CrPb2F7,3.6136,-2.8396973392500002,mp-1197980
K4Ti3Mn(PO4)6,1.2569,-2.839669269862847,mp-743671
LaCe2Mn3O9,0.0,-2.839589566252874,mp-1223081
VZn(Si2O5)2,1.682599999999999,-2.83956232859375,mp-1043518
Li32Ti13Cr3O48,1.5932,-2.83934014625,mp-1177824
Mg2TaMnO6,1.3282,-2.839054559776438,mp-1290236
LiVSiO4,2.1026,-2.839018775119048,mp-753702
LuSc(FeO3)2,1.0614,-2.838980782166666,mp-1222824
Mg6MnO8,2.2891,-2.8389373430287352,mp-19239
MgVCrP2(O4F)2,1.8437,-2.838765189619047,mp-2226915
Mn3Nb8FeO24,2.527399999999999,-2.83836056427203,mp-1221970
ErCrGeO5,2.8836999999999993,-2.838350435937499,mp-1213301
Ba12Sm4Al3(CoO6)5,0.6442999999999991,-2.838163261666667,mp-1229173
Sr2CeFeO6,0.0,-2.838073395999999,mp-1521510
Ba2MgFe2B2(P2O9)2,3.5191,-2.837837869720853,mp-1234736
LiVPO4F,1.6248,-2.8377582250595252,mp-25423
La14Mn15O48,0.0,-2.837727665570981,mp-531911
Mg30BWO32,2.002799999999999,-2.837675439830729,mp-1038510
KFeF4,2.7092,-2.837659914125,mp-555631
TbCrGeO5,2.8032,-2.8376568555208332,mp-1208423
V6O5F8,0.456199999999999,-2.837204506447369,mp-759879
SrMgCo(PO4)2,3.0854,-2.837137632637362,mp-1046375
Li3Mn4F15,0.0,-2.8370535366692793,mp-759518
CsVCoF6,2.2164,-2.836937833850575,mp-1228876
DyCrGeO5,2.83,-2.836865024583334,mp-1213026
LiMg6CrO8,3.2513,-2.8368578020833333,mp-1031034
Li2Mn(SiO3)2,3.4864,-2.836832722690701,mp-754949
Li3VSi2O7,2.2957,-2.8368121474358983,mp-1253145
SrMg14CoO16,2.763199999999999,-2.8367635768749992,mp-1035008
Li2V(OF)2,0.0,-2.8366444420238093,mp-753161
Ca5Sc2(CoO6)2,1.4346,-2.83628505,mp-1336958
CsMg30FeO32,2.029499999999999,-2.836254311088362,mp-1037605
KCa2Mg2V3O12,3.3434,-2.8361058408625,mp-1224080
Na2Fe(Si2O5)3,0.0,-2.83610406490661,mp-780575
Sr3La7Mn9FeO30,0.0,-2.836057824527587,mp-1173239
Cr3Pb5F19,3.0614,-2.836037779629629,mp-653287
NaSrPrWO6,3.0064,-2.835865834554597,mp-1522333
HoCrGeO5,2.9071,-2.835782280625,mp-1212155
GdCr3(BO3)4,0.5184000000000001,-2.835781287833333,mp-1105604
CaMg6CrO8,2.083399999999999,-2.83575649875,mp-1031928
Li9Fe3(OF7)2,1.8165,-2.835716280357143,mp-780155
BaNaPrWO6,2.9179999999999993,-2.835596362304598,mp-1519011
Na4Al3Cr(P2O7)4,3.576999999999999,-2.8355226064240933,mp-1221255
La4(CoO3)3,0.5629999999999991,-2.8355000407812523,mp-622353
Li4Ti3Mn3Nb2O16,1.0415,-2.83549590704023,mp-776061
K3V2P2O8F3,2.247499999999999,-2.835437796724206,mp-1097033
SrMg14NiO16,4.0966,-2.8354017540625,mp-1034783
Cs5CaNi4F15,5.4603,-2.835184835531035,mp-556893
MgSi4(MoO6)2,3.3331,-2.835003212894736,mp-2230886
Mg14CrCoO16,0.006599999999999,-2.8349515796875,mp-1035031
NaEuZrWO6,0.0,-2.8349462716379312,mp-1516967
LaTiZnCrO6,2.489899999999999,-2.834671017833332,mp-1044950
Y2MnCoO6,0.0,-2.834619458793103,mp-1189894
KCaGdWO6,2.8078000000000003,-2.834556823724999,mp-1517607
Li5Cr(SiO3)4,0.0,-2.834496186590909,mp-1177439
Na5Fe3F14,3.3197,-2.8344897503134803,mp-560925
La2MgCoO6,0.272899999999999,-2.834355419500001,mp-1274653
Li4Cr2Si4O13,3.0944,-2.834331281666667,mp-759372
Mg14CrCuO16,0.264499999999999,-2.834172056875,mp-1035284
DyY(FeO3)2,0.004599999999999,-2.834153474166665,mp-1225109
BaSrDyMnO6,0.0,-2.834024941959771,mp-1522044
Sr2GdMnCrO7,0.0,-2.833982616077585,mp-1218815
Ca3Si4(NiO7)2,0.4668,-2.833863372173912,mp-1248859
Ba10V10O29,0.7658,-2.83380741887755,mp-766994
SrMgNi(PO4)2,4.2789,-2.833767644175824,mp-1046412
Ti3V2Fe(PO4)6,0.7339000000000001,-2.833680421051587,mp-758183
Sr2DyMnO6,0.0,-2.83363017195977,mp-1519151
RbMgNiF6,2.045,-2.833308671388889,mp-1219590
Li3MnOF4,2.0076,-2.833110141436782,mp-1276200
Li2Si4NiO10,3.7818,-2.8330511939215692,mp-770701
Mg14ZnNiO16,4.129499999999999,-2.832986104374999,mp-1035175
SrLa2Fe2O7,0.0,-2.83297923125,mp-1217886
K2SrVB5O12,3.9009,-2.832792581682539,mp-1200300
Mg14ZnCoO16,2.7637,-2.832769919375,mp-1035198
Sr3NbCoO7,0.0,-2.8327584941666673,mp-1284693
BaLa3(NiO4)2,0.4565,-2.832684703928572,mp-1227939
Ba2MgMoO6,2.2647999999999993,-2.8326574255,mp-1205825
V3Pb5F19,0.334999999999999,-2.832540580370389,mp-1208227
Li3Fe2F7,3.5823,-2.832480138333333,mp-777444
CsRb2FeF6,4.1741,-2.832430517465517,mp-1111396
K2NaMgVOF5,1.3392,-2.832392120079937,mp-2241208
Ca3Ti(FeO4)2,1.958899999999999,-2.831664266666667,mp-1227734
KCaLaWO6,2.8899,-2.831570657474999,mp-1522448
Y2MgCr2O8,1.0673,-2.831382771153846,mp-2219397
Mg14MnCdO16,1.567599999999999,-2.831244146497844,mp-1036069
Li3Ti4VO8,0.0,-2.831104112083334,mp-752543