formula,bg,formation_energy,mp-id
Cr2CuO4,0.0,-1.9373669635714301,mp-504573
MgCo6Ag2P6(HO6)4,1.0509,-1.937260977236987,mp-1234730
CrXeF6,1.8849999999999991,-1.9372252925,mp-28749
Mn7BiO12,0.0,-1.937203649275861,mp-1188529
Na2Mn3O7,1.405699999999999,-1.9371550334626442,mp-19080
MgCd2(MoO4)2,1.7311,-1.9370162588461541,mp-2242219
Li4Mn5NiO12,0.0605,-1.936924081954023,mp-753964
Zn3FeP3O14,0.1089,-1.936876730425169,mp-1207546
Li3MnFe3O8,1.6421,-1.9368575458620692,mp-757216
Rb3FeMo4O15,0.0,-1.936756411304348,mp-1199199
BaMo2Se2O11,2.5898,-1.9367074468554681,mp-554548
Mn2Cu5P4(HO9)2,0.195199999999999,-1.936629756352693,mp-745163
SrMo4H4O15,2.7437,-1.936615050989582,mp-1197507
MgFe6(O2F)4,1.454,-1.93660266605263,mp-2231471
Li2Co2(SO4)3,2.8014,-1.9365665931140341,mp-778578
Li6Mn15O32,0.0,-1.936551737338972,mp-761797
Mo9O25,0.0,-1.936496298676471,mp-28777
Li7Mn14O32,0.0,-1.936454344044676,mp-757896
Li11V12(CuO4)12,0.0,-1.9364229957429722,mp-774644
Li3Cr2Fe3O10,1.1206,-1.936416616666666,mp-1177772
ZnNiF6,1.6071,-1.936362921249999,mp-1391273
SrMo2Se2O11,2.7115,-1.9363447849804691,mp-1200408
VZnHPbO5,2.9144,-1.936224415694421,mp-734495
Li2Mn5O10,0.2904,-1.936215683901284,mp-753105
Li4Mn3Co2Sn3O16,0.0,-1.9362055704330872,mp-774784
Li4Cr5Co3O16,0.045999999999999,-1.936116005833332,mp-771854
LiMoAsO6,2.5585,-1.936071435648148,mp-555962
Na2Zn11(MoO4)12,3.3150999999999993,-1.9360232446953232,mp-1221398
Li4V(TeO4)3,1.4009,-1.935813571416666,mp-1566890
Li2Ni(CO3)2,3.8553,-1.935655704015152,mp-766032
Mo5O14,0.0,-1.935370803289473,mp-30544
Li4Mn3Co2Sb3O16,0.0,-1.9353032038259441,mp-754687
Li35(FeO4)8,0.065399999999999,-1.935223689022221,mp-850218
Mo8O23,0.9108,-1.935219598870967,mp-560190
Rb2Cr2O7,2.765,-1.9351933502272711,mp-17385
V2Zn3TePb3O14,3.1807,-1.9347421607246371,mp-1190411
CaFeSO,0.0,-1.934716569375,mp-1078415
Ba4Sr4Co3(CuO4)5,0.0053,-1.9344337415277781,mp-1076896
TiBi8W(BrO8)2,1.464699999999999,-1.934359229761905,mp-1217238
Li3Fe2(CO4)2,2.203999999999999,-1.934322797999999,mp-765004
Na7Mn11O24,0.6086,-1.9340690239737282,mp-765608
Mo9O26,0.4984,-1.9340294184285711,mp-706490
MgCr2(Fe2O5)2,1.513,-1.93384463735294,mp-2229112
Fe(Si2O3)2,0.0,-1.933809410909091,mp-744274
Li3Mn4P3H12O19,2.6208,-1.933761810991528,mp-759055
MgCo(ReO4)2,0.0,-1.933608696666667,mp-2218227
Li2MnV4O14,0.0,-1.93348629259989,mp-1191925
NiPO4,0.0,-1.933475289107142,mp-504165
TlV3Cd4O12,2.3305,-1.933473244416689,mp-1216804
Li3CrFe3O8,0.5899000000000001,-1.933464951333333,mp-754939
MnPH4N(OF)3,1.5509,-1.9334008328902992,mp-1197191
Na2CoGeO4,1.9531,-1.9333854478448271,mp-545646
Re(WO4)2,0.1038,-1.93316775840909,mp-1041585
Mn8Cl3O10,0.454499999999999,-1.933166274449946,mp-25773
Li4Nb2Fe3Cu3O16,0.0,-1.932639969761905,mp-757923
LiMo2AsO9,2.599999999999999,-1.932535270448718,mp-559600
ZnCr6Si2Pb10(O16F)2,2.327999999999999,-1.932493032075471,mp-556077
V2NiP2(H4O7)2,0.6379,-1.932484481084655,mp-23983
TlSbWO6,2.7695,-1.932454243703704,mp-1216623
Li7Fe3(WO8)2,0.0,-1.9323501051190481,mp-771171
Li2MnCoO4,0.451699999999999,-1.932224502449712,mp-1173929
Mn9Zn2O13,0.0,-1.9321382694324731,mp-1045310
Mn(WO4)2,0.6865,-1.932043958902821,mp-1041563
Li4Cr3(CoO4)3,0.8369000000000001,-1.9319205928787881,mp-753039
Fe2Cu(PO5)2,0.0,-1.931854351952381,mp-1193267
Li4Mn5(NiO6)2,0.6548,-1.931463427303848,mp-758838
K2Cr2Cu(PO7)2,0.046699999999999,-1.931295399704082,mp-1204374
Rb3FeF3,0.7182000000000001,-1.931283872499999,mp-698616
Na2FeAsCO7,2.1663,-1.9312400860632182,mp-772415
Li6Fe5SbO12,0.573199999999999,-1.9311833799999991,mp-765615
Na6SiNi2(CO4)4,0.0,-1.931050239078478,mp-770501
Sn2WO5,2.421699999999999,-1.9309384737499982,mp-557633
Mn2Cr3Sb3O16,0.8158000000000001,-1.9309177664942532,mp-1176495
Na3CoC2ClO6,2.7796000000000003,-1.930851629741378,mp-1203077
Li3Mn4CuO8,0.0,-1.930807360107759,mp-753827
U3Ni2O9F16,0.0,-1.930721811499999,mp-1199636
LiFeP3H8O13,3.6786,-1.930690487394689,mp-849293
LiVP4(H2O3)6,3.0255,-1.930623878664021,mp-778976
SrCa(CoO3)2,0.0,-1.930604438749999,mp-1075928
MoPbO4,2.8876,-1.930465625,mp-22169
Ca3MnH12S2O17,2.363,-1.9304447660837432,mp-1204717
Li8Mn12Ni4O31,0.9554999999999992,-1.930436683760709,mp-771196
MgV2(HgO3)2,0.9144999999999992,-1.930331154545456,mp-2240221
Li7Mn2(CoO4)3,1.6734,-1.930285826633141,mp-1174467
MgZn2Mo3O8,1.501199999999999,-1.930229109642857,mp-2228177
Mn5In3O12,0.0,-1.9301619664827592,mp-1221486
Li5Fe3(SbO5)2,0.9907,-1.930044100083333,mp-1638622
Na5Co2P(CO4)4,0.0,-1.929996893269265,mp-1176370
Al3Tl4Fe(As2O7)4,2.7875,-1.9299713141666681,mp-1229069
Mn3V3(TeO8)2,0.712299999999999,-1.9298860732136012,mp-772284
BaMn4ZnO8,0.0,-1.929665468694582,mp-1044381
SrMnTeO6,0.9939,-1.929600084955299,mp-1218186
CsMgFe(SO4)2,0.8174999999999991,-1.9295753076657811,mp-2218960
Sr2GaCo2O7,0.0,-1.9293059093749991,mp-1046936
MgV2Ni(TeO5)2,1.535499999999999,-1.9291853155208332,mp-2233001
Li2Fe3SbO8,1.891799999999999,-1.9291776447619051,mp-771712
LiMn2TeO6,0.012099999999999,-1.9291509505862061,mp-1210977
Na11Mn24O48,0.043099999999999,-1.929088761994184,mp-760171
Li4Mn5Fe3O16,0.173,-1.928938000821018,mp-772124
BaIn8Ni2O15,1.197999999999999,-1.92887850878205,mp-1228714
Na3CoAsCO7,2.6503,-1.928776898395226,mp-773177
MgMn2Te2(MoO6)2,1.093799999999999,-1.928668793378705,mp-2230229
MgBi4(WO6)2,1.8804999999999992,-1.9285981202631581,mp-2231229
Mn13Si2(SbO14)2,0.0,-1.9285130238467432,mp-1931800
Al2CoP3NO14,0.0081,-1.928511836139455,mp-1204067
MgFe2(WO4)2,1.758999999999999,-1.928333757307692,mp-2219948
KMo4AsO15,2.915499999999999,-1.928233419035714,mp-1203695
Mg2Co2O5,0.9009,-1.928189761666667,mp-1076088
Na4Fe2C4SO16,1.0039,-1.928110816963601,mp-778206
VZn2HO5,2.8693,-1.9280555056944442,mp-726240
V5CoO15,0.343499999999999,-1.92797821595238,mp-674349
V6Fe4(CuO8)3,0.3906,-1.927963268378378,mp-558156
K2MoSeO6,3.4747,-1.927907686934375,mp-558021
Li4Mn3CuO8,0.0,-1.927849628570403,mp-773427
Na7Mn16O32,0.5315999999999991,-1.927841839210032,mp-766607
K3CrO4,1.239399999999999,-1.92780925959375,mp-19414
K2Cr2O7,2.7644,-1.9275026110909061,mp-561028
Li3Fe3(SnO5)2,1.9465999999999992,-1.927432385555555,mp-753126
MnVCuO4,1.116099999999999,-1.92740520684729,mp-510459
LiMn4O8,0.178799999999999,-1.927321052696729,mp-1281247
Mn3Cr3(SbO8)2,0.1657,-1.9272332043247131,mp-756838
NaV4Bi13O30,2.8099,-1.92720056148707,mp-1212549
Co3(PO4)4,0.0,-1.9271387025465831,mp-31554
MgCoMo2O7,0.8744000000000001,-1.927018621818181,mp-1042604
Li3Ti(NiO2)4,0.263999999999999,-1.926909874583333,mp-1305999
Li4Mn3Co3(WO8)2,0.3206,-1.926887760968801,mp-774604
Na4MgMn4O8,0.0,-1.926862978955375,mp-2229598
SrCa3(CoO3)4,0.0,-1.9268426775000012,mp-1076096
Li4Cr2Co3Sn3O16,0.0,-1.926684121369047,mp-774884
Sr3Fe2Cu2Se2O5,0.0,-1.9263293628348221,mp-557020
CoCu(PO4)2,0.005099999999999,-1.9263108036904761,mp-761614
ZnCr3(SO4)6,0.0,-1.926267368088234,mp-766220
Ba6(NiO3)5,0.0,-1.9261626378846142,mp-541426
Li6Fe5WO12,1.639,-1.9261370033333332,mp-752576
Fe2P3(HO3)3,0.0,-1.9260724789810921,mp-23972
Li4Mn3Ni2Sn3O16,1.0095,-1.9260211754330872,mp-774492
RbMnO2,0.0,-1.925758571774426,mp-559700
K6MgCr2O8,0.8890999999999991,-1.9257581369705872,mp-2241088
MgFe2(SO5)2,1.6617000000000002,-1.925713499999999,mp-2228654
VPPbO7,0.0,-1.925679788214284,mp-1202139
V2FeAgO7,1.340799999999999,-1.925654196969697,mp-1191609
Mn2Tl2(SO4)3,4.3732,-1.9254388207909872,mp-1210788
MnPb2WO6,1.6917,-1.925368126543102,mp-1194656
LaFe4(BiO4)3,1.5881999999999992,-1.925061583250001,mp-1222983
RbMn4O8,0.0,-1.9249455614788331,mp-752932
Li4Mn3(FeO4)3,0.0,-1.9247020489602922,mp-1177469
Rb2U2Cr3(H6O11)2,1.6182,-1.9246557484756082,mp-1211852
MoO3,1.8342999999999992,-1.9246418721875,mp-715584
Sr6Ca2Co7CuO24,0.0,-1.9246093545,mp-1076741
Cr3(FeO4)2,0.0,-1.924459066923077,mp-756710
Rb2Ni2(SO4)3,4.0383,-1.924440555789473,mp-1209582
K2CoP4H10O17,3.0405,-1.924258480016807,mp-764838
VCdPO7,0.473,-1.924100013964285,mp-1190083
Sb2Mo10O31,0.289899999999999,-1.923949107325581,mp-608522
LiAlNi3O5,3.0743,-1.923926803333333,mp-1222577
Li4Mn3Ni2Sb3O16,0.0,-1.9238967709688,mp-757668
Li14Fe4O13,2.3661,-1.923849786182795,mp-781016
Li4V3Fe2Ni3O16,0.539199999999999,-1.923734569047619,mp-780735
V2Te2O9,2.2804,-1.923640043333386,mp-30901
LiFeAsO4,2.2859,-1.92361894047619,mp-510641
Li2Ni2(SO4)3,3.8594,-1.9235648516666661,mp-768896
CaV2Bi2(PbO5)2,0.0,-1.9235322329411761,mp-1234502
Cs2Ni2(MoO4)3,3.8074,-1.9233147161479132,mp-1203005
MgCoAs2O7,2.0853,-1.923150231136364,mp-1042722
Cr3Sb5O16,0.547299999999999,-1.922949279999999,mp-777918
MgMn2(CO3)4,1.1145,-1.922825646361161,mp-2228404
V3Zn7H3SO19,2.7017,-1.922757228674242,mp-757858
NaCoPCO7,0.0078,-1.922659636911105,mp-1101670
LiInMo3O8,0.0,-1.922488641538462,mp-22805
KMn2(MoO5)2,0.0,-1.922422811540804,mp-1104584
Li9(FeO4)2,0.0261,-1.922352728947368,mp-780203
Rb3Mn16O32,0.0,-1.922243558615619,mp-758431
Li17(CoO4)3,0.3449,-1.9222114014583331,mp-1172980
K5Mo8As(H3O16)2,3.4022,-1.92209743079327,mp-1225259
LiCo2P4H3O16,0.0,-1.922082227909798,mp-752661
W4O9,0.0,-1.9218629257692301,mp-1048022
K4P4H6WO14,2.8299000000000003,-1.921735545174876,mp-1213616
Na3VO3,0.4039,-1.921701986305418,mp-755905
V3H5O8,0.0,-1.9216887916406251,mp-626080
MnP3NO9,0.287,-1.921657600847114,mp-1210751
Na4MgMn2O6,1.5165000000000002,-1.92163548433687,mp-2220000
Fe4Si2Sn7O16,0.0,-1.921594353620688,mp-628588
CrB2(PbO2)6,1.8898,-1.921576528134919,mp-1197022
Na5Ni2P(CO4)4,0.0,-1.9212247696978362,mp-1176329
Na3NiAsCO7,3.534,-1.9209550678183012,mp-770940
LiFe2(SO4)3,1.3547999999999991,-1.920894370601851,mp-769018
Li5CoO4,1.6143,-1.920797472166666,mp-760147
Mn3BPO10,0.0,-1.920684498340173,mp-1197087
Li4Mn2Fe3Sn3O16,0.6858999999999991,-1.9206551105069791,mp-1177473
LiMgCr3Se2(SO6)4,2.5207,-1.9205744320863092,mp-769552
KMn6O12,0.0,-1.920459751570327,mp-757832
Li15Fe15SiO32,1.905799999999999,-1.920433067142857,mp-1178074
ZnMoO4,2.300799999999999,-1.9202678466666672,mp-1095420
K2LiV5H10O19,2.5943,-1.9202595605495492,mp-1203349
Mn3TeO6,0.7581999999999991,-1.920252579045977,mp-18795
GdFe4(BiO4)3,1.6060999999999992,-1.9202230005,mp-1225148
Co2PHO5,2.4941,-1.920177615654762,mp-505217
V(SO4)2,1.3168,-1.920031615681818,mp-849323
Li10Fe9CoO20,0.314299999999999,-1.9199254180833332,mp-770651
Li3Mn2(FeO4)2,0.332,-1.919784785057472,mp-767363
Li4VCo3O8,1.4272,-1.919593013333333,mp-753470
NiPtF6,2.0795,-1.9194652237499998,mp-558838
MgMn3CoO8,0.8047999999999991,-1.9194050445225461,mp-2219747
Mg4Fe5(TeO6)3,0.5456000000000001,-1.919363099833334,mp-1046612
Mg3Ni3(AsO4)4,2.1871,-1.919327085192308,mp-1041507
AlNi3F15,0.0,-1.9192899743421041,mp-1254498
Li3Fe2(AsO4)3,2.5266,-1.9191242343750001,mp-542008
CaNdMn4O12,0.0,-1.9188782421791202,mp-1521595
Mn2Tl2(MoO4)3,2.8053,-1.9188225092120401,mp-1211724
Li4Cr2Ni3Sb3O16,0.0615,-1.918672852619047,mp-764319
NiF3,0.0,-1.9186620925,mp-614777
Li5Cr2Co3O10,0.0,-1.918534942083333,mp-756240
Na9Mn15O32,0.3355,-1.9185285485960581,mp-764537
MgMnBiO5,1.0682,-1.91850249317888,mp-1044167
CoWO4,0.0,-1.918304684166666,mp-19092
Li2CrTeO6,0.0,-1.9181752213333332,mp-1178016
Rb2MoSeO6,3.1275,-1.918122023734375,mp-556349
Co3P2O9,0.0,-1.91801425994898,mp-1202222
Ca2CoRhO6,0.074599999999999,-1.9179904905,mp-1378169
Li2Al(NiO2)3,0.391899999999999,-1.917987695972222,mp-1302787
Sr4Ca4Co7CuO24,0.0,-1.917980434,mp-1099611
CoP4(H5O8)2,3.3954,-1.9176970564861742,mp-696788
Na4Cr2As(CO4)4,0.0,-1.917676578259899,mp-770736
NaMoAsO6,2.6992000000000003,-1.917377008764368,mp-622602
Al2Fe2O7,0.0,-1.917318597727272,mp-1258020
Li4Cr2Co3Sb3O16,0.5819999999999991,-1.9172931433333331,mp-753885
LiCo5O3F5,1.4753,-1.917171377380954,mp-760350
Li2Cr(FeO3)2,0.090899999999999,-1.917084578181819,mp-782631
CsFe5(MoO4)7,1.2707,-1.917003084381834,mp-1196710
KMgCo2(MoO5)2,0.9408,-1.9169775226406252,mp-2241177
Na5Mn2As(CO4)4,0.005699999999999,-1.9169386367949501,mp-776638
Co3Ag2P3HO12,0.0,-1.9168167815958042,mp-1226919
K3Na5VMo7O20,0.0025,-1.916803572879071,mp-1076540
FeGeO3,1.9617,-1.916730591000001,mp-22334
Na4V20(CuO4)15,0.0,-1.9166857131870432,mp-1221582
BaBi12Mo4WO34,3.347699999999999,-1.916597251923078,mp-557475
Li3Mn3(FeO5)2,0.891699999999999,-1.91642174743295,mp-753542
TaWO7,0.0,-1.916350571370369,mp-1217845
VBi(PbO3)2,2.7092,-1.916262451625,mp-640883
Li13Mn2O12,0.0,-1.9162191270072382,mp-752819
TiMn9O20,1.6749999999999992,-1.9161608103237562,mp-771265
Li9Mn7Cr12O48,0.2242,-1.916069927177858,mp-851099
Bi2Te2W3O16,3.0739,-1.9160071157971021,mp-558409
LiNi2P2O9,0.0,-1.91594077465136,mp-1013987
Li5Mn3(CoO5)2,0.0011,-1.915935297022989,mp-753328
LiMnP3(H5O7)2,4.0589,-1.91590926147217,mp-1204876
MgCo2(GeO3)4,1.2469,-1.9158289686842112,mp-2231473
K2Li3CrO4,1.275799999999999,-1.9157940897,mp-766413
K2NaV5H10O19,2.4862,-1.915718028469711,mp-604368
Mn2InO5,0.8958,-1.915702797816092,mp-774229
Ba2AlCo3O8,0.0,-1.9156261857142851,mp-1048180
NaFe4(MoO4)5,1.3009,-1.915587892045977,mp-558429
Li47(CoO4)8,0.8284,-1.915420083754789,mp-1177487
InCu(WO4)2,0.6250999999999991,-1.915357530972221,mp-672012
Li2CoCO4,2.5814999999999992,-1.9153448267708342,mp-757730
NaV4(CuO4)3,0.0,-1.915295836068966,mp-1210050
RbMn6O12,0.0,-1.9152797239519062,mp-1173584
Fe5SiO8,1.292999999999999,-1.9152556566071441,mp-705744
Fe7Si3(H4O9)2,1.5576,-1.9152068808333331,mp-1225755
LiFeHSO5,4.088,-1.9150350907870382,mp-943462
Fe6O7F5,0.3186,-1.915033062222222,mp-755923
V3Fe2CuO12,0.419699999999999,-1.914760766388889,mp-773088
Li9Mn22O48,0.0,-1.9147391482845921,mp-530336
Ca2Fe7O11,0.274899999999999,-1.914653511749997,mp-29248
K2Cr3O9,0.270599999999999,-1.914622320678571,mp-1193190
MnCu2P2O9,0.0,-1.9145349781940542,mp-1197083
LiNi3P3O13,0.0,-1.914459831863095,mp-1094143
LiFe(CO3)2,2.1032,-1.914425032833333,mp-753899
Li3Ni2SbO6,2.8084,-1.9143695316666671,mp-1102490
Li4FeTe2WO12,0.0,-1.9143475963333332,mp-775176
SrSmMn4O12,0.0,-1.9142996764846751,mp-1522852
NaInSnWO6,2.7817,-1.9142296533045982,mp-1520890
BaMn2Fe4O11,0.9487,-1.9142115561590032,mp-1228499
SrNdMn4O12,0.0,-1.9141963460680071,mp-1517226
KFe3P8(H11O18)2,2.8003,-1.913908082741327,mp-735701
Mn7PbO12,0.0,-1.913850097775863,mp-1105431
CaCoSn2O7,0.0,-1.9138143363636362,mp-1043286
SrMnPF,0.0,-1.913810871893472,mp-1079195
KMn6As7O24,1.3939,-1.913775685982531,mp-1200457
CaMnZnAs2H3O10,2.748599999999999,-1.913428371482279,mp-1228163
Fe3(OF)2,1.4501,-1.913300053571428,mp-753491
Li11(CoO4)2,0.2897,-1.9131152212698421,mp-769483
Ga7(Fe3O8)3,2.0707,-1.9129405228124992,mp-767269
Li9Fe5O12,0.2791,-1.9127758473076921,mp-764889
Mn2FeSbO6,1.339299999999999,-1.9123304565862072,mp-1221899
Na5V3O12,0.2508,-1.912261250344828,mp-1196811
BaMn2O4,0.0,-1.912159234408868,mp-1215039
Li12Mn2Fe3O16,0.0,-1.9121505213897592,mp-767746
FeP2(PbO5)2,0.0,-1.9119130636190471,mp-1212751
RbMn6As7O24,1.4179,-1.9117878213838482,mp-556158
Na6Fe2As(CO4)4,0.0,-1.9117600379577881,mp-772200
KMgMn2Cr2O10,0.329499999999999,-1.911744296757003,mp-2233123
Li16(CoO4)3,0.0,-1.9117113147849452,mp-543091
Al(NiO2)2,0.0,-1.911670162142856,mp-768600
Mo13O33,0.0,-1.9115950338043481,mp-1221884
Li15(FeO6)2,0.019299999999999,-1.9115229358620691,mp-758099
Sr3Fe2(SeO3)6,2.4393,-1.911479487898706,mp-556960
ZnCr5O7,0.035499999999999,-1.911391827307691,mp-1046078
Li3Nb(NiO2)4,2.0747,-1.911291241874999,mp-754319
H(WO3)4,0.590499999999999,-1.911220199485293,mp-1224441
Na3Mn4(TeO6)2,0.0,-1.911197550437875,mp-561325
Li5V6(CuO4)6,0.007299999999999,-1.9111585549186991,mp-774871
MgNiAs2O7,2.642299999999999,-1.911130267045453,mp-1042817
Na5Mn7O16,0.6104,-1.9110323647290641,mp-764328
NbFeO3,0.0,-1.910904074999999,mp-1186220
Sr6Ca2Co7CuO20,0.0,-1.9108180529166672,mp-1076118
Mn2Bi3Sb3O14,1.741699999999999,-1.910766743448276,mp-1221942
BaV2Cu(AgO4)2,0.0,-1.9107310845238081,mp-1192702
MgZn2FeWO6,1.3728,-1.910698767727272,mp-2217753
Li7Fe3O8,1.8594,-1.910668286018518,mp-771124
Ni2P3O11,0.0,-1.9103749955580351,mp-26892
Na3NiBAsO7,0.0,-1.9101748166003532,mp-771271
TiFe3Bi3PbO12,2.0919,-1.9100326131666672,mp-1217154
Mg4Te3W5O18,0.5504,-1.9100163638333332,mp-1046636
Zn2CrSbO6,1.859699999999999,-1.9098437144999991,mp-1347006
MgCr2(SbO3)4,0.477699999999999,-1.909655448157894,mp-2231478
MgMn2V2(CuO4)2,0.7023,-1.9096007207241381,mp-2241479
Na3W2(ClO)4,0.3182,-1.909514548779841,mp-1221209
NaCoBP2H4O11,0.121099999999999,-1.909514252074917,mp-1211027
K4Na4NbW7O20,0.6614,-1.909361760264366,mp-1099948
Co2P2H4O9,0.0,-1.909215473928572,mp-505176
LiNi(WO4)2,0.0,-1.909189315277777,mp-25291
LiFeCO4,1.9645,-1.909023905833332,mp-757567
Na2MoAs2O9,3.0479,-1.908986646625616,mp-1221374
Sr2Ca6Co7CuO24,0.0,-1.908925253749999,mp-1099600
MgFe(SbO3)4,0.583699999999999,-1.908892835277778,mp-2229252
Li2MnNiO4,0.2564,-1.908763394324712,mp-753347
Li5Mn3(NiO5)2,0.467699999999999,-1.908666681522988,mp-755837
Li3Cr(CoO3)2,0.9438,-1.9085749475000011,mp-1275904
BaAlCuMoO5,0.0,-1.9084245883333342,mp-1042504
KLi2Mn2O4,1.117999999999999,-1.908194573308748,mp-780874
LiCr3O8,1.9279,-1.9081613011111112,mp-674219
MgTiCo3O8,0.0,-1.9081476960256412,mp-2224744
CoNi(PO4)2,0.0,-1.908122568273809,mp-765340
SrDyMn4O12,0.0,-1.907951420743933,mp-1519263
BaBi12Mo5O34,3.3118,-1.907949145192308,mp-1215003
LiV(SO4)3,1.325699999999999,-1.907784593578431,mp-772428
Na8MgV2O8,0.2416,-1.907754964001815,mp-2231854
ZnNi2P2O9,0.0,-1.907679719056122,mp-1043209
HfTl8(MoO4)6,3.4877,-1.9073256970940191,mp-645513
NaNi2P2O9,0.0,-1.9073221546903592,mp-1094125
Fe2H4NF6,1.6671,-1.907256567499999,mp-1212793
Li4Fe3Sb5O16,1.140299999999999,-1.9071713858333321,mp-769870
Mg(WO2)2,1.209099999999999,-1.9070954478571431,mp-1046915
Li4FeO3,2.6567,-1.907044623854166,mp-752680
Ba2Ca3Tl2(CoO3)4,0.0,-1.9068933594202901,mp-1807035
Eu2Mo5O18,0.0481,-1.9068522800000012,mp-704384
V2Zn2O5,0.0,-1.906771807222223,mp-1343010
LiCo2O2F3,0.0,-1.906678995416667,mp-755433
Li3Fe2(CO3)4,1.7153,-1.906460164761905,mp-753336
CaCu2(MoO4)2,1.3141,-1.906417266153846,mp-1041448
RbNa2V5H10O19,2.4772,-1.9063578893988822,mp-1220238
Mn6Zn3Si(AsO10)2,0.005999999999999,-1.906340168205819,mp-1212184
MgMn3NiO8,1.533999999999999,-1.906242546830238,mp-2226836
NbCo(PbO3)2,1.229899999999999,-1.9060418849999992,mp-1205736
Sr4MgFe2Cu2(SO3)2,0.6109,-1.905982037058824,mp-2229265
MgZn2(FeO3)2,2.168199999999999,-1.9056333604545461,mp-2217317
LaCrNiO6,0.0,-1.905601630555556,mp-1881105
TlCr(SO4)2,2.7522,-1.905312533194444,mp-1208041
Fe2PCO7,1.8151,-1.905049961103896,mp-1213220
Te(WO4)2,2.177399999999999,-1.905036561060605,mp-1041860
Al2Co2O7,0.5769000000000001,-1.905007049545455,mp-1248317
Li3Fe3SbO8,0.8054999999999991,-1.905005969999999,mp-772131
Ga2NiP3H8NO14,4.2619,-1.904841990652709,mp-23783
Ba2Mg2Tl2Fe3O10,0.0,-1.9047208729824572,mp-1046553
BaTe2Mo2(HO6)2,3.0286,-1.9046019508333332,mp-1182595
NiRhF6,0.015899999999999,-1.9045723312499991,mp-20580
V5O14,0.0,-1.904386669342105,mp-1204545
Li3Mn2O4,0.094899999999999,-1.9043375250957861,mp-691164
MnSiH12(OF)6,4.1847,-1.904229282164013,mp-1181030
Li5Mn2Fe5O12,0.8722000000000001,-1.9042175776053651,mp-770934
Ti(FeO2)4,0.0,-1.903959635641024,mp-35482
Li4Co3Sn2Sb3O16,0.0,-1.9039553926190471,mp-774605
BaNiO2,2.3221,-1.9038426225,mp-18943
NaCr3O8,1.791,-1.903775240531608,mp-19280
Cs2Co2(MoO4)3,2.6757,-1.903709834832123,mp-622214
MgFe2(SbO4)2,0.119699999999999,-1.903594184999999,mp-2218640
Li2V2P2(H4O5)3,2.3334,-1.9033902513924972,mp-831190
Cr7FeO12,0.286899999999999,-1.9033627327499991,mp-1245071
MnSbO4,1.6205999999999992,-1.9033338684051722,mp-1280914
Mn7FeCl3O10,0.9382,-1.903299647643679,mp-653429
CaMn16O32,0.0,-1.9032839466713591,mp-1003318
MnFe2P2O11,0.003,-1.9031934287322951,mp-1222030
Mn(GeO3)2,1.438699999999999,-1.9031832075478932,mp-1043383
Li3Mn10O20,0.0,-1.903141754373042,mp-705636
Ba2Sr2CoCu3O10,0.0,-1.9030297644444452,mp-1099812
Mn5Cr2O12,0.246399999999999,-1.9028788199818512,mp-755906
InAg(WO4)2,2.3704,-1.902841799861112,mp-560403
Na2MnO3,1.9179,-1.902797412614942,mp-755874
BaV2(PO7)2,0.0,-1.902782850488721,mp-1182505
Li6Fe3Sb3O16,0.059099999999999,-1.902778274999999,mp-771508
Bi(WO4)2,0.0,-1.902454437727273,mp-1041572
Mn3Cr2O8,0.0,-1.902395447214854,mp-1221838
Co2P2H4PbO10,2.6443000000000003,-1.902279392857143,mp-1201187
NbAgWO7,0.0,-1.902225208166666,mp-1220513
BaSrCr4O12,0.0,-1.902189903888889,mp-1517417