formula,bg,formation_energy,mp-id
MgCo4(NiO6)2,0.794899999999999,-1.170713972368421,mp-2230302
BaMoI4O15,0.9874,-1.170390899880952,mp-1203873
MgCo4(HgO4)2,0.2705,-1.169711634666668,mp-2232298
Co5O8,0.0,-1.169614579999998,mp-761471
Co2CuO4,0.0,-1.168799279999999,mp-39091
MnH7C3NO6,3.625199999999999,-1.167874173982279,mp-1194724
Fe2H11(SeO5)3,0.123699999999999,-1.167122540912298,mp-765464
CoRe3H22(N3O7)2,3.9408,-1.166703978260869,mp-1202096
Co2Ag3SbO6,0.3795,-1.166599589305555,mp-1181748
Mn2Hg2O7,0.0,-1.166442817805644,mp-754289
MoH8(NF2)3,2.4636,-1.166390829166666,mp-1210624
Fe6ClO12,0.0,-1.165515423947368,mp-1225401
Na3(NiO2)5,0.414199999999999,-1.165123320229884,mp-759923
Mn(IO3)2,2.2873,-1.165002999770115,mp-554980
MgCo2(CuO4)2,0.0,-1.16458650326923,mp-1041418
RbFeO3,0.0,-1.164507126499999,mp-975322
Mo2C4O9,0.1273,-1.164439563333334,mp-1194607
Co(RhO2)2,0.0,-1.164360381428568,mp-546936
KMnCl3O2,0.0,-1.163980786454434,mp-1103922
DyCr2O2,0.0,-1.163687818833332,mp-1213546
Na2Co(NO3)4,3.1828,-1.16363332777677,mp-645487
V2H12C4S4O15,1.9757,-1.163386308783784,mp-1198308
K2BaNi(NO2)6,1.7322000000000002,-1.163279899749999,mp-690607
Cd6(CoO3)5,0.9162,-1.162962906730769,mp-1652319
FeH18(NO6)3,2.8406,-1.1625533023125,mp-24776
Li(CoO2)8,0.112999999999999,-1.161283075333333,mp-674388
Co(NiO2)2,0.0,-1.160993608571427,mp-754168
NiH12(NO6)2,3.1523,-1.160228573148147,mp-1194565
ScV2O2,0.0,-1.160226016,mp-1209615
MnSi(OF)6,0.0,-1.159210366518884,mp-1211039
K4MoO8,0.569299999999999,-1.158084591461538,mp-705676
Mg(CoO2)8,0.284799999999999,-1.157764641,mp-2220732
CoP6(N2O11)2,0.0072,-1.15761313069264,mp-1182419
Rb2Mo(IO3)6,0.0,-1.157499131666666,mp-557228
Rb3Ni2(NO3)7,2.9288,-1.156652626969697,mp-1196286
ZnFe2CoO7,0.0,-1.156358340568181,mp-1336629
FeAuO2,0.4779,-1.155320730625,mp-996994
Na3Mo9P(H5O17)2,0.0,-1.155096290197908,mp-1213052
Fe3(PO8)2,0.0,-1.15425725377551,mp-1195420
FeH7(CO2)4,1.4882,-1.1538787339375,mp-1202429
MnFe4O5,0.0,-1.153610860293105,mp-1221795
Co5SnO12,0.9953999999999992,-1.153269344722221,mp-850192
FeHC2O3,2.3764,-1.153243988392859,mp-600152
Mo(NO4)2,2.8207,-1.152971723863637,mp-1198436
K2BaMgCo(NO2)6,0.0,-1.152610001717391,mp-1233485
Ni15O16,0.0,-1.152582349677418,mp-1100319
Li5Mn2Co5O12,0.0,-1.152329139688697,mp-753188
Na5(NiO2)9,0.200099999999999,-1.151306602090516,mp-760267
MoBr3O,0.9067,-1.151260577499999,mp-1221539
Mn2O5,0.0,-1.151075065837439,mp-1104282
K6W4CO29,0.065,-1.150762372087499,mp-1182792
VAg3HgO4,1.459699999999999,-1.150673211944445,mp-1216423
Zn(CoO2)4,0.0,-1.150041984615384,mp-1041352
MnFe2(PO8)2,0.0,-1.14987939105794,mp-1181160
Al2Fe(PO9)2,0.0,-1.149612079968944,mp-1202735
K4Mo6Se2O33,0.440799999999999,-1.149429283970833,mp-1225158
CoH2CO3,0.0,-1.149380426071429,mp-1204815
Zn(Ni2O3)2,0.0,-1.148950850454545,mp-1043670
PrCr2O2,0.0,-1.1485374358333311,mp-1211150