formula,bg,formation_energy,mp-id
Mg6AlNiO8,3.696399999999999,-2.750642821875,mp-1033094
Ca6Al2Fe4O15,0.7553000000000001,-2.7505594709259262,mp-1227858
SrHoMn2O6,0.0,-2.750531710086206,mp-1218261
V2OF8,2.5574,-2.750356062954545,mp-1101223
Ba3CrO5,0.0,-2.750318571666667,mp-19197
K2RbLuV2O8,3.3743,-2.7502627213333333,mp-1211699
SrVZn(PO4)2,1.783399999999999,-2.750004623791209,mp-1046426
BaFeBP2O9,1.7888000000000002,-2.749762646675169,mp-1193185
Sr2LaCrO6,0.0,-2.7497591514999993,mp-1079391
BaPr3(NiO4)2,0.4406,-2.749620936785713,mp-1227893
NbCrO4,0.0,-2.749603696666666,mp-758053
Ba2LiMn2(P2O7)2,0.0,-2.749558898163775,mp-1235287
Li3V(OF)2,1.177499999999999,-2.7494265296875002,mp-753080
Mg14FeBO16,2.0291,-2.749245597161457,mp-1035654
Mn4Be3Si3SeO12,3.1871,-2.749166153002953,mp-18554
Li5Ti3Mn2(PO4)6,0.0635,-2.749145872759646,mp-776210
K5Na3Nb7WO24,0.0,-2.749062904759698,mp-1099622
Ti3NiSn2(PO4)6,2.0712,-2.749027559940476,mp-777890
ZnCo(Si2O5)2,2.7874,-2.74881651046875,mp-1043509
SrCa7Ti2Mn6O24,0.347199999999999,-2.748694946981321,mp-1247687
Ca2MnO4,0.0,-2.748383880775861,mp-19050
Ho2FeSbO7,1.3926999999999992,-2.748330794090907,mp-1224105
CeNiO3,1.011699999999999,-2.748283114499998,mp-776207
LiTiVO5,1.917399999999999,-2.748221734583333,mp-756178
Li4Fe3OF11,2.6334,-2.748199094385965,mp-754559
Na2W(OF2)2,4.2853,-2.748144636695402,mp-505382
Tm4Mo4O11,0.415,-2.7480412547368442,mp-16392
Ba9Ca3La4(Fe4O15)2,2.409099999999999,-2.747765394444444,mp-1228537
Ti3Cr2Sn(PO4)6,0.0,-2.74775992063492,mp-1101318
Gd2Cr2O5,0.0,-2.747649430555556,mp-1184487
Li4V2(SiO4)3,1.624699999999999,-2.747634232301588,mp-770256
SrCrSn(PO4)3,3.085299999999999,-2.74750680799603,mp-560855
Mg6AlCoO8,1.134499999999999,-2.7474983775,mp-1033099
VSiP2O9,2.7927,-2.7472908507142852,mp-18882
Ba10MgMn3V8(Cl3O7)4,2.4433,-2.7472482340127913,mp-1228946
Li4Ti4V4CoO18,1.1036,-2.7472120316666673,mp-769478
Ca2VBiO6,3.097899999999999,-2.7471123265000013,mp-554381
Ta2Mn3O8,2.352999999999999,-2.747085156804597,mp-31909
LiTi2V3O12,2.3503,-2.747048690972223,mp-764774
Ba2MnWO6,2.2267,-2.746980555793102,mp-19085
Mn3OF5,0.856499999999999,-2.746689417088123,mp-763934
Cs4Mn2PdF12,1.082199999999999,-2.746524204446461,mp-542296
La4Nb(CoO4)3,0.0,-2.7463283135,mp-1223118
NaLi3Fe4(SiO3)8,2.5779,-2.746263725284483,mp-775132
KPrMnNbO6,0.0,-2.746034573684771,mp-1519998
Ba2V2ZnO8,3.4759,-2.745950435961538,mp-556688
BaLaMnSnO6,0.0,-2.745798053793103,mp-1227906
SrWO4,4.6571,-2.745727157499999,mp-19163
La5(Mo2O7)3,1.0219,-2.745715874374999,mp-705132
Mg2Cr2(SiO4)3,0.7938000000000001,-2.745695535657895,mp-1261423
SrNiP2O7,3.740199999999999,-2.74567095970779,mp-17551
Li2VPO4F,2.8597,-2.745500523617724,mp-776064
BaMg14FeO16,3.7331,-2.745288483125,mp-1035662
K2RbTmV2O8,3.369,-2.745110733714286,mp-1211717
Ti3Cr(PO4)6,0.414,-2.744947589642857,mp-774416
Li2Mn3(SiO3)4,1.4207,-2.744896837521893,mp-774444
GdCrO4,0.0,-2.744891623333332,mp-22244
Ti3CrCo2(PO4)6,0.006699999999999,-2.74462880188492,mp-757741
Li2Mn4Si4O13,2.3459,-2.744559621886557,mp-860880
BaPrMn2O5,0.0,-2.744526661392081,mp-549776
Li2V(BO2)5,2.8596,-2.744421657916667,mp-772429
SrMnZn(PO4)2,3.2563,-2.74431135593975,mp-1046402
Ba2La2MgZn(WO6)2,1.686499999999999,-2.74426968425,mp-2230018
Ti3Cr2Ni(PO4)6,0.0,-2.744055979940475,mp-1101367
La4Fe3NiO12,0.0,-2.744018128500001,mp-1223185
Li2V3Si3O10,2.0434,-2.743964348703703,mp-767778
Li4Mn2Si4O13,1.329699999999999,-2.743791245508496,mp-758881
Dy2(WO4)3,3.9072,-2.743790955784312,mp-30960
Lu4Mo4O11,0.0,-2.743748446140351,mp-558119
Li2Fe(SiO3)2,3.4496,-2.743686567651515,mp-753634
KCeMgWO6,0.1377,-2.743557708225,mp-1522415
Ti3VNi2(PO4)6,0.0,-2.743497893273808,mp-1101293
SrNdCrSnO6,2.090099999999999,-2.74340753025,mp-1521877
Li2Si5Ni2O13,3.6093,-2.74334903939394,mp-859789
K3Fe5F15,0.0,-2.743160296163043,mp-1201518
Li3VSi4(HO6)2,2.3965,-2.743129182840908,mp-1266205
Mg6AlVO8,1.3612,-2.743107495625,mp-1033159
Mn4(SiO3)5,0.398,-2.743063627571839,mp-1351269
Si4Mo2P4O23,2.6946,-2.742999059805186,mp-553934
MgTiV3O8,1.0069,-2.742998146794872,mp-2219007
Be3Si3(MoO6)2,3.8176,-2.742898203749999,mp-1047811
Li2TiV2O6,1.290499999999999,-2.7426694395454563,mp-752814
Ca6Nd6Mn11CrO36,0.0,-2.742621617204023,mp-532691
Sm2MnRhO6,1.037,-2.742511040793104,mp-1219164
Ba2Y2Mn4O11,0.115499999999999,-2.742429831406534,mp-1214593
Mg14FeSnO16,2.7164,-2.742063164531249,mp-1036012
Mn3F8,0.9143,-2.741666293981191,mp-752616
Li2Fe3F8,3.3358,-2.7416375335897443,mp-776754
MgSc4(FeO3)4,1.795799999999999,-2.74161661452381,mp-2220857
KVP2O7,2.0781,-2.741560270139611,mp-16812
CaPrMn2O6,0.0,-2.741404495752873,mp-40630
CsFeF3,3.424699999999999,-2.741391856597701,mp-555302
MgNb2V2O8,1.0547,-2.741247195,mp-2227321
Na4Mn2P2O7F6,1.585799999999999,-2.7412039921745253,mp-1201699
Sr16Mn8O29,0.3805,-2.74113580053676,mp-767781
CaLaFeSnO6,2.8007,-2.7409960554999993,mp-1043948
MgV2(O2F)2,1.1017,-2.740902353888888,mp-2217104
LiTiV2O6,1.388599999999999,-2.740892999666667,mp-849731
NaMg6CrO8,3.0212,-2.740855650086207,mp-1030819
Nb2FeO6,2.0862,-2.740847085000001,mp-22366
Sr2CrClO4,0.0,-2.7407924281250002,mp-693892
YMg6FeO8,1.5878,-2.740770251874999,mp-1033030
SrMg6MnO8,4.542000000000001,-2.7407217117456892,mp-1032448
Li5V(SiO4)2,0.218299999999999,-2.740710475416666,mp-752704
KLaEuWO6,0.0421,-2.740509018725001,mp-1523198
SrPrVSnO6,0.0,-2.7405014086666672,mp-1522887
SrCa7Mn6Al2O20,0.0,-2.740433175766284,mp-1247712
V6O5F19,2.041,-2.740233326333333,mp-780092
CaSmCoO4,1.040299999999999,-2.740207450714286,mp-1227147
La7SmMnFe7O20,0.8737,-2.740199189734195,mp-1099902
BaNiP2O7,3.3322000000000003,-2.740188257662336,mp-1214404
Li3Nb4FeO12,0.0,-2.7400924775,mp-756149
Mg14MnBO16,0.0,-2.7400125192843032,mp-1036103
K2RbErV2O8,3.3886000000000003,-2.739897928714285,mp-1211720
Li3VCrP2(O4F)2,0.622599999999999,-2.739563659369747,mp-753680
CaMnAl4SiP3(HO4)5,4.886700000000001,-2.739440860803131,mp-1199709
SrSmMn2O6,0.0,-2.739432550586207,mp-1217787
Ti3Fe2Ni(PO4)6,1.995699999999999,-2.739388042440476,mp-775987
Mg6TiCoO8,0.0948,-2.739323395833334,mp-1032165
LiMg6FeO8,2.777799999999999,-2.739286842083332,mp-1032467
VPbOF5,2.5426,-2.7392418696875,mp-1195912
LiFe2F7,3.1449,-2.739210143333333,mp-776692
K2LiCoF6,0.0,-2.7391939207833342,mp-1111150
Y2(WO4)3,4.8202,-2.739118086029411,mp-3629
RbVP2O7,1.9638,-2.7390696667532453,mp-18436
Lu2MgW2(ClO4)2,2.8495,-2.7390660178888893,mp-2220371
SrV3P4O17,1.8247,-2.738988742242857,mp-15866
La2Fe2O5,1.260999999999999,-2.738956553333333,mp-1099626
Li4Ti2V3O10,0.674999999999999,-2.738901046842106,mp-758896
MgFeF6,0.0,-2.7388956918750003,mp-1402047
NdCrO4,0.2958,-2.738855106249997,mp-19126
NaLi3Ti2Fe2(PO4)6,2.4454,-2.738833906734293,mp-849337
Li32Ti11Cr5O48,0.0,-2.738731290243056,mp-777936
Li4Ti3Nb2Fe3O16,1.5852,-2.738667987797619,mp-775999
Li2Ti2CoO6,2.3535,-2.738480190984849,mp-757277
Ti3Fe2Co(PO4)6,0.0663,-2.738430685773809,mp-758414
Li4Ti4V4NiO18,1.206099999999999,-2.738276737150537,mp-767907
Mg8Mn3O11,2.3869,-2.738275184490596,mp-753927
Ti7(WO5)6,0.0,-2.738256174031008,mp-851115
Ca3Cr2O7,0.0,-2.738240153749999,mp-1377823
La2ZnFeO6,0.0,-2.738182359000001,mp-1274023
Ba6Na2Mn2Nb2O17,9.999999999976696e-05,-2.738179471504162,mp-1214806
Li4Ti3Mn2V3O16,0.990499999999999,-2.7378953981855503,mp-773707
NaLiFe2(SiO3)4,2.738,-2.7378567047356333,mp-850191
K3TmV2O8,3.4169,-2.73772675226785,mp-1104265
K3Fe6F19,0.035099999999999,-2.737710941758928,mp-1204955
NaFeF3,2.2462,-2.737641432275862,mp-1078217
Tb2FeSbO7,1.3076,-2.737516973939395,mp-1217709
LiMn3OF5,1.8051,-2.737499791962643,mp-761133
Li2VO2F3,2.5919,-2.737477837708333,mp-772563
VZn(SiO3)2,0.5847999999999991,-2.737442956,mp-1249045
SrVClO3,2.189,-2.7373799945833333,mp-558871
SrCaVWO6,0.6616999999999991,-2.737379819,mp-1521594
Rb3Mn3P3O10F7,0.5783,-2.7373624905854492,mp-1203159
Na3Cr2P2O8F3,2.5697,-2.737300511764276,mp-720126
Mg3V2O7,1.189599999999999,-2.7372552516666673,mp-1367439
Ba3LaZnReWO12,2.043799999999999,-2.737192260921052,mp-684996
Er4Mo4O11,0.0,-2.737091147236842,mp-16391
Ho4Mg(WO4)6,0.981399999999999,-2.7370264375714273,mp-1234571
Li2Mn2OF4,1.8208,-2.736914944725416,mp-759996
Rb2CrAgF6,3.0253,-2.736779278666666,mp-1110610
Li4CoOF4,0.0174,-2.736769666583333,mp-759652
CaLaCrFeO6,0.0,-2.736746545499998,mp-1043895
Li3V2(OF)4,1.329699999999999,-2.736693200769231,mp-776500
Ba2Ni7F18,4.4443,-2.736610159629629,mp-560626
Cs2VAgF6,0.0,-2.736490122166665,mp-1112639
YWClO4,3.591799999999999,-2.736427652857142,mp-1207601
Sr2La2Mn4O11,0.0,-2.736353911406533,mp-1218776
GdWClO4,2.5471,-2.736214926428571,mp-555084
Eu2MoO6,0.0,-2.7361915100000003,mp-1213281
Li4V7O9F7,0.8584,-2.7359309279012343,mp-867535
Ba2CaMn2(P2O7)2,0.0,-2.735769151062326,mp-1233081
Cs3CaFe(P2O7)2,2.4361,-2.735749686523345,mp-1198664
CaMn3(P2O7)2,3.7443,-2.735728945334749,mp-1044590
Na3Li2Fe5(SiO3)10,2.7055,-2.735667297716091,mp-775329
LiSm2Cr2O8,0.706599999999999,-2.735354253333333,mp-1235200
Li4NiOF4,2.2518,-2.735299143333333,mp-753143
Gd2(WO4)3,3.8025,-2.735250980882353,mp-778228
Sm2(WO4)3,4.7416,-2.735246109558824,mp-1101395
K2NiF4,3.6693,-2.735236737785715,mp-556546
La7SmMn2(FeO4)6,0.0,-2.735097495646552,mp-1076598
K2RbHoV2O8,3.3687,-2.7349989233571432,mp-1211709
Mg14CoSnO16,0.3096,-2.73496367671875,mp-1035116
CaCoF6,1.3308,-2.73487642125,mp-1398496
Mg6VZnO8,3.143300000000001,-2.7348397206249992,mp-1032031
Sr2Y2Ni2O7,0.379799999999999,-2.734793196153846,mp-1048742
Na2SrLiVP2O9,1.7849,-2.734677776117355,mp-759637
KNa2MoF6,2.0919,-2.7345319030008612,mp-1111010
Ba6Y2Fe4O15,2.4647,-2.734513425555554,mp-1198058
BaSrMnWO6,2.0186,-2.734499136793103,mp-1519441
Ti3MnNi2(PO4)6,1.161699999999999,-2.734366823771894,mp-1101299
LaMgCrSnO6,2.669,-2.734359138499999,mp-1049277
Ba2V2BiPO11,2.999199999999999,-2.734340733508403,mp-1228794
BaLaMgMn2O6,0.0,-2.734309908714733,mp-2217986
Ti3CrNi2(PO4)6,0.049999999999999,-2.734300250496032,mp-777498
Ba3V4PbO14,3.1539,-2.734256147727272,mp-561403
Li2Si3NiO8,3.8704,-2.734116832261905,mp-757113
Eu3YMn4O12,0.0,-2.7339977898362062,mp-1226148
MgMn4(OF4)2,0.087499999999999,-2.733988857114943,mp-2232132
Eu2VWO6,0.3942,-2.733905529000002,mp-1520585
Rb3LuV2O8,3.347,-2.7338724063690423,mp-1209398
Tm2MgW2(ClO4)2,2.633,-2.733762223666667,mp-2232493
Sr4Mn3BO10,0.0,-2.7337341882199873,mp-1208742
La7SmCrFe7O20,0.8537999999999991,-2.733681809791668,mp-1076459
Li2Mn3Si3O10,2.2462,-2.73346017141443,mp-767709
BaSrNdMnO6,0.0,-2.733301824043104,mp-1523075
Li4Ti2Mn3Nb3O16,0.0,-2.733276878706898,mp-758756
Dy2FeSbO7,1.796,-2.733000232575756,mp-1225341
Sm2MnCoO6,0.0,-2.732972618293103,mp-1188690
Li4V2Si3O10,1.3892,-2.732972133333334,mp-766379
Ho2FeMoO7,0.635,-2.732795089090908,mp-1224293
Ca2VSbO6,0.0,-2.732772291,mp-1372414
Li2NbV(PO5)2,2.1366,-2.732761296778274,mp-1246420
Sr2MnClO3,0.0,-2.732661370418719,mp-542187
BaNa5LiCo5F18,2.2788,-2.73265297817433,mp-694942
RbMg14CrO16,0.6754999999999991,-2.732575977109375,mp-1034246
K2NaCoF6,2.9932,-2.73241830858793,mp-1111105
Pm2(WO4)3,4.0407,-2.732251823235293,mp-1209910
CaFe(PO3)4,4.4626,-2.7321423465873,mp-1045812
Ba2CrO4,1.9086999999999992,-2.731894101428558,mp-17520
Sr2NdSmMn4O12,0.0,-2.731864095211206,mp-1218770
Dy2FeMoO7,0.0,-2.731850596212119,mp-1225454
NaVSiO4,0.0,-2.731731129482759,mp-754456
RbVCuF6,0.0,-2.731665900555556,mp-1209206
Na3LiFe4(SiO3)8,2.767399999999999,-2.7315718846867822,mp-1221254
HfMg6VO8,0.072599999999999,-2.731415873124999,mp-1031480
Ca2DyMnO6,0.0,-2.73140718395977,mp-1521466
CaPr(MoO3)2,1.2495,-2.731335463166666,mp-1044742
K2RbDyV2O8,3.4091,-2.731318518833333,mp-1211702
KLaZrFeO6,0.0,-2.731194154225001,mp-1519849
MgVFeP2(O4F)2,1.155,-2.731108938952382,mp-2240896
YWO3,2.2586999999999993,-2.7308813945,mp-1369924
BaLaMn2O6,0.0,-2.730775449086207,mp-19245
SrLaFeSnO6,2.8193,-2.73076925125,mp-1173171
Li3MnAl2O6,1.747399999999999,-2.730759716702587,mp-772241
Ca3W2O7,2.4024,-2.7305517425,mp-1373133
TiCr2O5,1.0341,-2.730494912916667,mp-1208207
CsVP2O7,1.8855,-2.73039115263099,mp-562901
K2Mn2P2O7F2,3.7232,-2.730384265143185,mp-558599
Sr4Cr3O9,0.0,-2.7303098407291673,mp-554541
SrNdMn2O5,0.0,-2.730308659818007,mp-1218124
V3SiP5O19,2.0564,-2.730265087704081,mp-560988
K3ErV2O8,3.4218,-2.73020266583928,mp-1104228
Mg6MnAlO8,0.367700000000001,-2.73017934612069,mp-1033146
Gd2MgCr2O8,1.6367999999999991,-2.730093501153845,mp-2218497
CaCr3P3O13,1.244399999999999,-2.730038958696428,mp-1047869
LiTiMnO4,1.5162,-2.730021838513959,mp-1301329
Na5LiFe6(SiO3)12,2.765,-2.729963453670499,mp-766215
Na2ZrCo(P2O7)2,3.2085,-2.729934267787729,mp-19187
Ca2YNiO5,0.0,-2.729927937222222,mp-1047556
Ba2SmMgMoO6,2.200699999999999,-2.72989736090909,mp-2227531
Ca3Mo2O7,1.4979,-2.7298524708333343,mp-1376713
LiV2(OF)3,0.7335,-2.729808743703703,mp-779054
TiFeO3,2.2487,-2.729712792666666,mp-1277107
Li9V3P8O29,2.0806,-2.729611026778425,mp-27013
ZrFeP3PbO12,2.3786,-2.729562379940475,mp-743600
NaFe(SiO3)2,1.8358,-2.729421948637932,mp-21867
Ti3Fe2P6WO24,0.073399999999999,-2.72938484827381,mp-758943
KLaNbWO6,0.4343,-2.729330924225,mp-1516686
Rb3TmV2O8,3.3826,-2.729136594464288,mp-1209314
BaWO4,4.8822,-2.729128477500001,mp-19048
Na9LiFe10(SiO3)20,2.7449,-2.729088724957471,mp-775304
Mg14CrBO16,1.0544,-2.729030578723958,mp-1033898
Na4Ti5Mn4O18,0.8330000000000001,-2.728868373997034,mp-766831
La3Mn2Sb3O14,1.237999999999999,-2.728734749130093,mp-1191110
KBaEuWO6,0.0,-2.728668683225001,mp-1520553
Mg6VCrO8,2.0555,-2.7286533568749998,mp-1031588
Nd4Co3O10,0.0,-2.728539570735294,mp-562894
BaMg14CoO16,2.6511,-2.728404702812499,mp-1035119
Ca4Mn5Al(Si3O14)2,0.0,-2.728314966583072,mp-1227877
LiVCrP2(O4F)2,1.4268,-2.728118759841269,mp-867682
KAl3Fe2Si2(HO6)2,3.5502,-2.727997927715909,mp-1223658
BaTbInWO6,1.6481,-2.727974288333333,mp-1517949
SrNdMn2O6,0.0,-2.727931837336207,mp-1218102
Li4Cr2Si3O10,2.5003,-2.727876355701755,mp-758615
Li2Si2WO7,2.8366,-2.727875745138888,mp-753700
K2RbTbV2O8,3.3975,-2.7278107384761903,mp-19428
SrCeCrSnO6,0.127699999999999,-2.727758351499999,mp-1517421
Ba5SrLa2Fe4O15,2.431199999999999,-2.727748692407406,mp-1228552
Ca5La10Mn14(NiO24)2,0.0,-2.727625655456133,mp-1332851
Li3V2(PO4)3,1.8718999999999992,-2.727606636196428,mp-6396
Na2MgMnP2O7F3,1.5187,-2.727606475935959,mp-2232789
Fe(Si2O5)2,1.182,-2.7275876848333342,mp-1043700
CaV2P3HO12,1.5193999999999992,-2.727558080667292,mp-735589
Li4Mn3(OF3)2,2.6617,-2.727360323808429,mp-753977
SrPrMn2O6,0.0,-2.727303758752873,mp-1218059
Rb2TlMoF6,3.848499999999999,-2.727277752833333,mp-1113863
Li2MnPO4F,3.329399999999999,-2.7270636599156193,mp-776063
Cr4Si4O13,1.417599999999999,-2.727057510952381,mp-768078
Li8V3P8O29,1.0229,-2.726913007996031,mp-849522
Nd3Er(WO4)6,4.019699999999999,-2.726873544779412,mp-1220548
Th(WO4)2,4.4628,-2.726846018522726,mp-1208466
CaMg6CoO8,2.6627,-2.7268087925,mp-1032957
Sr10Mg3Fe2(MoO6)5,0.4154,-2.726784623899999,mp-1173625
Na13Mn5(SiO3)12,0.459999999999999,-2.726654133448276,mp-1221917
VBO3,1.8746999999999991,-2.726639265833333,mp-18946
LaMgCrMoO6,1.3459,-2.726271054500001,mp-1049205
Ti3VCo2(PO4)6,0.0,-2.726265692162697,mp-780701
MgV(PO3)4,2.1946,-2.726235947976189,mp-1045828
Mg14NiSnO16,1.1565,-2.72622762015625,mp-1034997
Nd2(WO4)3,3.9516,-2.726176271176469,mp-17950
PrCrO4,0.297199999999999,-2.726160331111111,mp-18863
LaMgCr2O6,0.0,-2.72608363,mp-1044928
CaWO4,4.3443,-2.726062027499999,mp-19426
Na2LiCaVP2O9,1.7654,-2.725968921273604,mp-759615
Rb3ErV2O8,3.3909,-2.725690416607142,mp-1209331
KMg14WO16,1.5868000000000002,-2.725679486164062,mp-1035811
K3HoV2O8,3.4261,-2.725639749767851,mp-1104967
BaMg14NiO16,3.750199999999999,-2.725633702812501,mp-1034854
CaTi2CoO7,0.3102,-2.725611933560605,mp-1042502
Ti3CoSn2(PO4)6,0.0,-2.72557657688492,mp-758082
RbMg14MnO16,0.0,-2.725446633294719,mp-1036182
NaLiV(OF)2,1.5472,-2.725428515316092,mp-752560
Ti2V3Cr(PO4)6,0.0,-2.725325228736772,mp-759931
Na3ZrNi(PO4)3,3.7976,-2.725324462403324,mp-532552
CaCoP2O7,3.158,-2.725268855389609,mp-1041999
Na2Mn(SiO3)2,2.416,-2.725100129153606,mp-1221423
BaLaCrMoO6,0.0,-2.724911492500001,mp-1229299
Na2ZrNi(P2O7)2,3.5821,-2.724803203242273,mp-18984
CaNdCoO4,0.6141999999999991,-2.724772339642857,mp-1227058
Li2TiV3O8,0.0,-2.724660326785714,mp-1304584
Cs2TlFeF6,2.9057,-2.724510652264368,mp-504603
LiCdFeF6,3.7992,-2.724353514259258,mp-1211087
KSrLa4Mn6O18,0.0,-2.724255622327874,mp-532792
Ca2VMoO6,0.6962,-2.7241696865000002,mp-1227834
VZnF4,1.1417,-2.724139701249996,mp-1410296
MnSb2F12,3.2674,-2.724095755862031,mp-555052
Ba6Na2V2Sb2O17,3.216299999999999,-2.723955865439953,mp-1214658
Mg4FeO5,3.2624,-2.723942009999999,mp-1273830
La4TiMn5(PbO9)2,0.0,-2.723905849432951,mp-706223
Mg2Ta2Ni2O9,3.5726999999999993,-2.723794014977777,mp-1222197
SrSmCrSnO6,2.103899999999999,-2.723628213999998,mp-1516332
NaFe2PbF9,1.198,-2.723446277029177,mp-1210072
BaMnOF5,0.0,-2.723415279741379,mp-1189956
RbYb(WO4)2,0.0,-2.7233281896875,mp-1209118
Rb6In2Co2Si9O26,3.058199999999999,-2.7232710355185192,mp-562801
MnZn(SiO3)2,2.2211,-2.723189551793103,mp-1171226
GdY(WO4)3,3.2727,-2.723052532647059,mp-1224627
Li3V3O5F3,1.015299999999999,-2.7226542942857153,mp-759132
SrYCoO4,0.0,-2.7226290335714283,mp-1274913
Rb2NaCoF6,0.0,-2.7226094986379312,mp-559563
K2MgFe4P6(O4F3)4,1.469399999999999,-2.722553827008711,mp-1233328
Rb2MnTlF6,0.0,-2.722546698626437,mp-1113634
Li4Ti3V6O18,1.028,-2.7225090497849482,mp-1177271
Sr3CaTiMn3O12,0.0,-2.722495285606322,mp-1099855
Ca2AlNiO5,0.0,-2.722406833333333,mp-1257498
ZnWF6,0.0,-2.72218641875,mp-1400616
Ba3V4ZnO14,3.052499999999999,-2.722127817727273,mp-1195152
Ho4Mo4O11,0.4952,-2.722083158026314,mp-14801
TiWO4,0.0,-2.721982793333333,mp-753512
TiMn2V3(PO4)6,0.0,-2.721747182418125,mp-765562
K2RbYV2O8,3.3843,-2.7217094680000002,mp-1211701
KNa2MnF6,0.0,-2.721649505793965,mp-1111011
MgVBO4,2.457799999999999,-2.721599832023809,mp-2223622
K2CrAgF6,2.8775,-2.721524893616666,mp-1112287
Ca2Nb2CoO9,0.9124999999999992,-2.721500686785714,mp-1364209
Li4Fe(SiO3)3,3.188699999999999,-2.7214575001960792,mp-758639
NaLaZrFeO6,0.0,-2.7213917596379322,mp-1520308
LaCrWO6,0.7814000000000001,-2.721358199999999,mp-1040819
KTaWO6,3.2588,-2.721223896620371,mp-1223039
MgV4O7F5,1.4943,-2.721195012647058,mp-2228986
Mn3Si(O2F)2,2.6069,-2.7211882776293113,mp-554429
CaNiP2O7,4.1929,-2.721168939935063,mp-19057
Li4FeF8,0.0,-2.721069981987179,mp-778245
BaVCdP2O9,2.4525,-2.720984859413264,mp-699566
SrGdCoO4,0.8127000000000001,-2.720978178571429,mp-1218232
CaCr2O4,0.0,-2.720966848928566,mp-540593
Li2Si12(NiO6)5,3.9543,-2.720908122993197,mp-772287
Li2Ti2NiO6,2.8456,-2.7209006378030303,mp-831246
SrMn3(PO4)3,0.0,-2.720868041459035,mp-1201132
Sr2YAlNi2O7,0.730699999999999,-2.720825925769231,mp-1046808
Ti3Cr2Co(PO4)6,0.0,-2.720734390218254,mp-775780
TiVZn(PO4)3,1.2856,-2.720616292347882,mp-1044402
La7SmMnFe7O24,0.0,-2.720589549698276,mp-1076610
BaYInWO6,1.6116,-2.720576961666666,mp-1520192
MgSc2(FeO3)2,0.802299999999999,-2.720433897727272,mp-2217644
SrCa3Mn2O8,0.0,-2.720425731133005,mp-1218408
AlCrO3,1.802899999999999,-2.7202839275,mp-1345463
BaMn3(PO4)3,0.0,-2.719899778564298,mp-1204296
Ti3Fe2Sn(PO4)6,0.077499999999999,-2.71963627952381,mp-1101366
Rb3HoV2O8,3.364499999999999,-2.7196161112499992,mp-1209368
MgNb2V2O10,0.7631000000000001,-2.7195239556666673,mp-2232321
HfMg6MnO8,0.085499999999999,-2.719465151120689,mp-1032770
CaCr2F12,1.4544,-2.719313165333323,mp-1932798
Sr3MoO6,2.284099999999999,-2.719260483999999,mp-1205668
CaLaFeSbO6,2.254699999999999,-2.718929198,mp-1639336
Pr2(WO4)3,4.0628,-2.718853712549018,mp-1209767
Ba2YV3O7,0.0,-2.718846659615384,mp-1048379
Ba3LaMgIn(WO6)2,1.843,-2.718723096833333,mp-2230108
TiV5(PO4)6,0.0,-2.71846978864418,mp-885510
Rb2LiCoF6,2.8411,-2.7184617018333332,mp-1113736
Al5(FeO4)3,2.0496,-2.71844733025,mp-1359741
Ca4La4Mn7NiO24,0.0,-2.71843726038793,mp-697834
ZrCoO3,1.9991,-2.7183933045,mp-756665
Mg6MnZnO8,4.1885,-2.7183606923706902,mp-1032803
LiVP2O7,2.1466,-2.718353710010822,mp-26227
Li2Mn5Si5O16,2.413499999999999,-2.71828081772578,mp-765986
Cs2KCoF6,3.0136,-2.718215617656034,mp-540729
ThV4O12,2.6896,-2.718099193235293,mp-565447
TiZnCr(PO4)3,2.3963,-2.718065051236772,mp-1044311
Na2TiFe(PO4)3,2.3203,-2.718061147106343,mp-694979
KRb2CoF6,0.0,-2.7180167332250003,mp-560071