formula,bg,formation_energy,mp-id
BaMn6O12,0.0,-2.08253282224138,mp-1228093
Sr2NiIrO6,0.0,-2.082495822,mp-1078518
K3Na5VMo7O24,0.0,-2.082439190966163,mp-1099938
KMnP2H5O9,3.764999999999999,-2.082398324623153,mp-1224570
Li2Cr2FeO6,0.0,-2.082271752727274,mp-782636
Li2MnCO4,2.2676,-2.082264854949713,mp-758215
LiMn3P2(HO3)4,0.8147000000000001,-2.082248709723279,mp-759026
Mn5O5F,0.0,-2.082217907241378,mp-753550
MgScNi2SbO6,1.949999999999999,-2.082103702727272,mp-2234085
Na3Ge3(MoO6)2,0.0,-2.081940428456896,mp-1013797
Sr7CaFe4(CoO6)4,0.0,-2.0819153842500002,mp-1076747
MnZn2Si(HO3)2,1.146,-2.08167769441092,mp-1181196
K4Na4Mo7WO24,0.0,-2.081563687362931,mp-1076546
V2Zn3O8,2.7049,-2.081534421923078,mp-17545
Li4Nb2Co3Sb3O16,0.0,-2.081473275833334,mp-774912
BaMnAlCuO5,0.0,-2.081436422547893,mp-1042474
Zn4Fe5(P3O14)2,0.8141,-2.081211458787375,mp-1201819
Li4V(CO3)4,1.2907,-2.081207767896825,mp-759521
CoP2O7,0.0,-2.080988749678572,mp-26662
Li2CrCSO7,2.4025,-2.080914405347222,mp-768607
KMnSn3O8,0.8738999999999991,-2.080681330398542,mp-1298569
LiCo3Sb(PO4)6,0.0,-2.08067827917687,mp-764378
Li4V3Ni3(SbO8)2,0.457999999999999,-2.080614489047619,mp-756761
LaFe5(GeO5)3,1.701099999999999,-2.080423667291667,mp-650954
Li9Cr4C8(SO16)2,0.014699999999999,-2.080358217727274,mp-776454
Sr4(NiO3)3,1.3317,-2.0802538103125,mp-759747
NaNbWO7,0.0,-2.08017782313793,mp-1221017
Sr2NiOsO6,0.0,-2.080158984999998,mp-19119
Ca3Co(SeO3)4,2.9679,-2.07962360471875,mp-561911
Li3VAs2O9,1.7624,-2.0796015349999992,mp-1177474
Li4Cr2C4SO16,2.3018,-2.079547901882716,mp-771912
Na2MnBAsO7,0.5533,-2.079500486446361,mp-771164
CrSiH8(O2F3)2,0.032,-2.079500198749999,mp-1196749
Li5CrO5,1.314099999999999,-2.079469437651516,mp-754233
Na2MgV2Cd2O8,0.927999999999999,-2.079469355850574,mp-2232203
Li3V(FeO3)2,1.2137,-2.07944352,mp-761106
Li4V3Co3(SnO8)2,0.7034,-2.079250958333333,mp-774843
MgMn2(MoO4)2,1.395,-2.079181530066313,mp-2218779
Li4TiCo3O8,0.6587000000000001,-2.079161777604167,mp-1297766
LiFePCO7,0.0259,-2.079139167997835,mp-1176697
LiCr(SO4)2,2.1606,-2.079093766805556,mp-776761
Li8Mn15CrO32,0.315199999999999,-2.079074758493431,mp-770529
Co7P6(HO6)4,2.5609,-2.079024282508711,mp-24516
Li8MnO6,1.7875,-2.078989260306513,mp-755817
Ba2EuCoCu2O7,0.0,-2.078962150769232,mp-1214711
K4WO5,3.3802,-2.078901624233332,mp-504840
VHO2,0.0,-2.078761513437499,mp-626787
LiCaFe3SnO8,2.010399999999999,-2.0786343755952372,mp-1176820
RbIn(MoO4)2,3.9692,-2.078594995347222,mp-504506
AlTe(WO4)2,0.4372,-2.078406794722221,mp-1041870
Li4Mn3Cr3(TeO8)2,0.0,-2.078402341087848,mp-774791
Mn2CrSbO6,1.4196,-2.078288352086206,mp-1105510
Co3OF5,0.0,-2.078215363888889,mp-760177
Al2Si3(WO4)3,0.115999999999999,-2.078165301624999,mp-1328088
NaBi(WO4)2,3.4038,-2.078135593448275,mp-1220818
Sr2CoSe2(ClO3)2,2.1714,-2.078096940745192,mp-561998
Hf3MnF6,0.0,-2.078030256793103,mp-1206167
Sr3Mn2Cu2S2O5,0.0,-2.077905366133005,mp-1275541
CaV4(CuO4)3,0.0,-2.0777873745,mp-510056
VBiO3,1.297099999999999,-2.077773306,mp-756282
V5(FeO6)2,0.479099999999999,-2.077768879210527,mp-1100942
Li5Mn(CO3)4,1.0552,-2.077730968049897,mp-765023
MgMnRe2(HO5)2,2.182,-2.07764954752694,mp-2240936
FeNiPO5,0.0,-2.077506058080357,mp-542158
Li4Mo3O8,1.585499999999999,-2.077484462222223,mp-566257
KVTeO5,3.378,-2.076915276427082,mp-18487
In2(WO4)3,4.3058,-2.076858201372548,mp-553953
LiVTeO5,2.7905,-2.0766940428125,mp-1181006
Na6V2O7,1.0522,-2.076662852551724,mp-780893
V2Cd2O7,2.5598,-2.076633188636363,mp-18740
Sr2AlTlFe2O7,0.0,-2.076592482948718,mp-1045986
Nb2Ni4O9,2.535599999999999,-2.076364263500001,mp-646749
MgV2P2(H4O7)2,2.3556,-2.076357196825396,mp-1210781
NaMgVO3,0.0,-2.076286873563218,mp-2224154
CaCoAsO5,1.0381,-2.076209731249999,mp-1373701
Li17Cr2O12,0.7872,-2.076069695376343,mp-754575
Sr2MgNiIrO6,0.0,-2.076052228636363,mp-2240423
Li7Eu3(MoO4)8,0.0705,-2.075953541366667,mp-1223167
Na4VHO5,3.9961,-2.075926849706112,mp-554275
KSrEuFeO6,0.0,-2.075861652225001,mp-1523292
NaV3(SO7)2,1.9544,-2.075743261818965,mp-1180153
Rb3Mo12PO40,2.2651,-2.075703972716836,mp-560115
NaMgMn4O8,0.5442,-2.075580538435961,mp-2228524
LiMnAsO4,1.9316,-2.075570689823481,mp-20052
Ba2AlTlCo2O7,0.0317,-2.075564499102566,mp-1046381
CaCr4O9,0.7228999999999991,-2.075527843214286,mp-1041451
LiTi2Co3O10,0.1934,-2.075424916875,mp-762834
Li5Mn4O8,0.0,-2.075393624611225,mp-1293032
Y4Co13Si2(SbO14)2,1.633599999999999,-2.07538637510204,mp-1044612
Li2Cr(CO3)2,3.3906,-2.075332753787878,mp-754838
NbFe(PbO3)2,1.8713,-2.075322707999999,mp-1220306
Mg2MnIrO6,0.0,-2.075309590293104,mp-1378636
Tl(WO3)3,0.0,-2.07528514756411,mp-766046
Na2MgMn4O8,0.508899999999999,-2.075096433965517,mp-2227237
BaCoO2,0.3967,-2.074947819166665,mp-19086
Li4Mn5O10,0.482299999999999,-2.074934813315185,mp-757628
CrSiO5,0.756999999999999,-2.074869163571429,mp-1046697
EuNiO3,0.0,-2.074794617000002,mp-20718
Na4Mg(WO4)2,2.268399999999999,-2.074744051367815,mp-2232224
Li4Cr3Co3(WO8)2,0.0,-2.074739315119046,mp-849422
AlCoNF6,0.214099999999999,-2.074714915,mp-1229178
Li4FeTe(WO6)2,1.546799999999999,-2.07468559875,mp-1569036
MgVSbO4,1.196799999999999,-2.074665612142857,mp-2210742
Hf3Tl10Mo12PbO48,2.8327,-2.074633520045076,mp-705900
MgMnSbO4,0.0,-2.074576137561576,mp-2227203
NiSbP2O9,0.0,-2.074567103021976,mp-1043461
BaCaFe4O7,1.5647000000000002,-2.074389128461538,mp-1193438
LiMn2O3,0.5482,-2.0743432086159,mp-1639950
Sr3Fe2S2O5,0.0,-2.074179264999999,mp-1046611
Cr2(SiO4)3,0.5603,-2.074100932647058,mp-1172462
V3AgO8,1.162,-2.074051041805555,mp-1100976
Li4Cr3Fe3(SnO8)2,0.468199999999999,-2.074022028333333,mp-775073
NaV4Cd3O12,0.765899999999999,-2.073976178568966,mp-1638843
TlV2SbO8,2.772,-2.073954743194445,mp-622278
Li5Cr2O8,0.544999999999999,-2.073915854444444,mp-753141
Li2Mn3O6,0.8591000000000001,-2.073909020496343,mp-762412
LiCo6(OF5)2,1.0215,-2.073564135964913,mp-1235110
Cs2VHO4,3.4847,-2.073533491320043,mp-1096946
Li4Mn3Cr3(FeO8)2,0.62,-2.073521355968801,mp-761449
Ba4Mg(Co2O5)2,0.0,-2.073473985,mp-2230717
Li7CrO6,0.8724000000000001,-2.073353044166666,mp-771074
RbNaMo3O10,2.9354999999999993,-2.073149221591954,mp-555325
Li8Nb(FeO4)3,0.042999999999999,-2.0731437090277782,mp-754201
K6Mo10O33,3.0507,-2.073007344969387,mp-559753
SrCrBiSbO6,0.0,-2.072968464,mp-1518707
Na2TeW2O9,2.6950000000000003,-2.072926606923234,mp-723466
KNa3V2(MoO5)2,0.5920000000000001,-2.07268706903544,mp-1099868
Li3Cr2(AsO4)3,2.670199999999999,-2.072398058499999,mp-779404
Eu4Mo4O11,0.0,-2.072366880526317,mp-554530
K2Mo(SO5)2,2.8802000000000003,-2.0723019968,mp-558124
Li4Mn3V2Fe3O16,0.8386,-2.072285790968803,mp-761239
Ba2YNi3O8,0.0,-2.072268259285714,mp-1048131
Li2FeBPO7,0.2376,-2.072246142539682,mp-777716
Ge2(WO3)9,0.0,-2.0719914075,mp-766380
Cs2V5H5O16,2.482599999999999,-2.071844550555726,mp-1198581
LiNi3P4O15,0.0,-2.071775180517598,mp-27080
Ba2Ca2Tl2Fe3O10,0.0,-2.071741096666667,mp-1046475
VCdO3,0.0,-2.071688186000001,mp-556857
Ba2Mg3Mn4Tl2O12,0.0,-2.071591281886558,mp-1047595
Na5Mn2P(CO4)4,0.0,-2.071554054728624,mp-776602
Mn12O17F7,0.0,-2.07145922625479,mp-760039
LiFe(GeO3)2,2.765399999999999,-2.071417921833332,mp-21270
Li3CrClO4,2.6992000000000003,-2.071375964444445,mp-756743
Li4Mn7O12,0.181999999999999,-2.0713311556022,mp-758315
Ti3Co3(TeO8)2,0.4958,-2.071260583055556,mp-752786
Li7Mn4O12,0.0,-2.071085411524238,mp-764763
LaMn8Bi3O20,0.668,-2.070993510576508,mp-1222927
Ca(WO2)2,1.5984,-2.070880982857141,mp-1042163
VBP2H5NO9,2.1173,-2.07054531801065,mp-24710
Rb2CoB12(H2O3)10,3.3282,-2.070534044615384,mp-774813
Mn2SnO4,0.0,-2.070504940837438,mp-36884
Na6Al3Fe3(TeO6)4,2.6393999999999993,-2.070361827873563,mp-1220862
Al4Co13Si2(SbO14)2,1.8638,-2.070311625510204,mp-1044552
Sr3Ca5Fe4(CoO6)4,0.0,-2.0702099355,mp-1076602
Li16Fe4SiO16,2.1994,-2.070175612522523,mp-757339
CeCrSe2O,0.0,-2.070149847937499,mp-19375
SrCoAsHO5,1.9987,-2.070111971527777,mp-1194871
Li9Al(CoO4)2,2.466999999999999,-2.0701116495,mp-770726
Na2CrAsCO7,2.8794,-2.070048965854885,mp-771169
Li4VFe3O8,1.0627,-2.070021283958334,mp-760357
FeBi6P2(O7F)2,2.102499999999999,-2.070018347571428,mp-1212910
Li5Mn3(SbO5)2,0.9025999999999992,-2.070005371522988,mp-1667016
MnP2(HO4)2,0.3361,-2.069902085362827,mp-1202814
Mg3Ni2(GeO4)3,0.181099999999999,-2.069685135374999,mp-1364008
Ni4P4O15,0.0,-2.069645545155279,mp-585202
Li3Mn3SbO8,0.0,-2.069524732252874,mp-756729
MgMn3SnO8,0.1522,-2.069494137214855,mp-2219435
KVAsO5,0.0,-2.069456794499999,mp-1202651
MgVBiO4,1.5891000000000002,-2.069364037857144,mp-2227171
VCu3(PO4)4,0.0,-2.069254364107143,mp-755952
MgV4Ag2O11,1.1695,-2.069151966296297,mp-2233253
K2P4PtWClO10,1.7432999999999992,-2.069078252530075,mp-1212425
EuMgMnO3,0.0,-2.069038460488505,mp-2210618
ZnFeNiP2O9,0.201799999999999,-2.0689498469132652,mp-1043109
Ba2NiRuO6,0.004,-2.068848193000001,mp-1147774
TaZn2CoO6,1.670999999999999,-2.068585134233333,mp-1344346
Co3BPO7,0.0033,-2.068523321984127,mp-562300
Li4V3Fe5O16,0.9967,-2.068352770833333,mp-772417
Fe5(BO3)6,0.0,-2.068309239137932,mp-1198168
Li3V2(NiO4)2,1.4901,-2.068172576,mp-1177514
MgMn4O8,0.0,-2.068143603594165,mp-1003484
LiMn2O4,0.426899999999999,-2.0681063427422,mp-1272804
Li4Mn5Sb3O16,0.0,-2.067839379392446,mp-756961
Sr2YMgTlFe2O7,0.4013,-2.067801280238095,mp-2228484
Sr2Ca2Co3CuO10,0.0,-2.067791364791667,mp-1076273
Sr2NiSe2(ClO3)2,3.387,-2.067702453437502,mp-553947
MgMn(ReO4)2,0.0,-2.067681562327585,mp-2218256
Mn5P4(HO2)10,3.3033,-2.067679768608374,mp-728654
ZnCr4NiO8,0.0,-2.067653764285714,mp-1215758
CsIn(MoO4)2,3.688599999999999,-2.067613580943487,mp-1213321
MnPHO5,0.727499999999999,-2.067485309227987,mp-756230
TlFeF3,3.4393,-2.067485199666668,mp-998159
Li4Mn5Sn3O16,0.0,-2.067442550642447,mp-771907
Cs2CrO4,3.2458,-2.067413580972909,mp-647813
MoSF4,2.8691,-2.067353063052396,mp-1205247
Nd2V2H2Se4O17,2.2434,-2.067293578032407,mp-1200480
Li5Mn7O16,0.871,-2.067267194185139,mp-530177
VZn2O4,0.0,-2.0672598589285722,mp-38131
PuNiO3,0.0,-2.067242016749998,mp-1188081
Ba8Co7O19,0.5323,-2.067173560294118,mp-704890
Co3Ag2(P2O7)2,2.0647,-2.067122284430642,mp-505812
Sn(WO4)2,2.782999999999999,-2.067069726363636,mp-1041577
V4FeO12,0.0,-2.067060245882353,mp-763248
NaFePCO7,0.069099999999999,-2.066906303729287,mp-769633
KVS2O9,1.8958,-2.066889322288461,mp-555364
V2Pb3O8,2.9795000000000003,-2.0668857126923,mp-19903
LiV3(TeO6)2,1.924799999999999,-2.066824335370372,mp-559938
SrCoAs2O7,2.4789,-2.066789350454546,mp-18086
Ca3Mn2(IrO6)2,0.0,-2.066779471887478,mp-1340405
Na3VAsCO7,1.484999999999999,-2.06676183551061,mp-771270
K3CrF3,0.0644,-2.066730965249999,mp-690521
In2WO6,2.7154,-2.066720564259258,mp-768725
VFeO4,0.0,-2.066525278333333,mp-18949
LiMnB3(HO3)3,1.5952000000000002,-2.066260385442022,mp-778282
Li2Ni3(BO3)3,0.0,-2.066242286421568,mp-1177892
CrOF4,2.3505,-2.065883125833334,mp-760228
BaSmCr4O12,0.0,-2.065786770277777,mp-1520355
NaAsW2O9,2.4161,-2.065663175298409,mp-1194840
K3Mo12PO40,2.2532,-2.065624871453443,mp-560580
Cs2Mo4O13,3.1268,-2.065562156542648,mp-1202511
Li2Cu(WO4)2,0.423699999999999,-2.065498311282051,mp-555519
NpNi(OF2)3,0.0,-2.065488858068182,mp-1210343
MgFe6O7F5,1.4465,-2.065420799736841,mp-2230986
AlRe(WO4)2,0.0,-2.065402343541667,mp-1042310
U2CoSi2(H7O9)2,1.6392,-2.065230058445945,mp-1208188
V3Cr3(TeO8)2,1.137199999999999,-2.065200514305555,mp-763835
Fe3CoCu2(PO4)6,0.0,-2.064893238829365,mp-757713
K2MgMn3V2(HO5)2,1.328999999999999,-2.064873936289655,mp-2230132
PrZn(FeO3)2,0.0,-2.064769978666667,mp-1044777
KPrMnBiO6,0.0,-2.06475979168477,mp-1521485
BaMnO4,0.5058,-2.064723187155174,mp-1214463
LiFeBO4,0.066699999999999,-2.064611745357141,mp-776554
Tl2TeMo2(PO7)2,2.8927,-2.064608524886646,mp-10448
LiCoPHO5,2.0953,-2.064567898802911,mp-754793
NaCoSO4F,2.1368,-2.064534601109915,mp-1205341
K3VSO3,3.1383,-2.06444388803125,mp-561048
Li4Cr2TeWO12,0.6647000000000001,-2.0643671535,mp-774764
Ga2FeO4,0.5741,-2.064265934642857,mp-690544
MgFeO2,1.3027,-2.064238538125,mp-1446179
Li15Cr2O12,0.0,-2.064141583448275,mp-758530
Co4(P2O7)3,0.8935000000000001,-2.064068520334101,mp-778880
K3FeMo4O15,2.5345,-2.063972736706521,mp-1181219
Li4Nb2Fe3Co3O16,0.847399999999999,-2.063779784047619,mp-757731
V3CuO8,0.0,-2.063724037499999,mp-755381
CrF6,2.0863,-2.063723397142856,mp-1391848
BaNdCr4O12,0.0,-2.063683726527778,mp-1517084
V16(CuO8)5,0.0,-2.063545233278688,mp-758314
MnNi3(PO4)4,0.0,-2.063426344854269,mp-775024
TiMn4O10,1.4943,-2.063405258170498,mp-777945
CaMnBiO5,1.5535,-2.063325566616379,mp-1042623
KMgMn2O4,1.3453,-2.063213477264009,mp-2225911
V2Zn3O7,0.0,-2.063067345,mp-1368630
ZrNi5(BO5)2,1.4703,-2.062848308518518,mp-1215311
U3Ag6Mo5O27,1.4163,-2.062823101463413,mp-560774
LiCr6(OF)4,0.0,-2.062750807555555,mp-1235655
Ba2VTe4HO13,2.867399999999999,-2.062548027757937,mp-1201779
MnReO4,0.0,-2.062499820071838,mp-31906
Na5Li(Mo3O10)3,2.9755000000000003,-2.062459970782885,mp-1195001
EuNiSnWO6,0.213999999999999,-2.062424404999999,mp-1516192
Pr(MoO2)6,0.0,-2.062374630087718,mp-561129
Li3Cr2(FeO4)2,0.6837000000000001,-2.062268331999999,mp-755011
LiVCSO7,2.164399999999999,-2.062228581893938,mp-754930
Li3Mn5O8,0.0,-2.0621004849784472,mp-754811
BaDyCo4O7,0.0,-2.062001783974359,mp-18804
Li2Mn3Cr3O12,0.073399999999999,-2.061949646522988,mp-850956
CsV3(TeO6)2,2.3111,-2.061867867110472,mp-18398
LiCoF2,0.0,-2.061829768333333,mp-1097040
Li9Mn15O32,0.5789000000000001,-2.061745197660098,mp-769450
Ni5Sb(PO4)6,0.013199999999999,-2.061524326884919,mp-752690
Ba4Nd2Cu6NiO15,0.0,-2.061289326785715,mp-1228702
V3Pb5ClO12,2.808299999999999,-2.0612567647619042,mp-628782
VZn(GeO3)2,0.0,-2.061239671,mp-1043218
MgMn8O13F3,0.322099999999999,-2.061180105937932,mp-1233266
Li9Mn21O40,0.365699999999999,-2.061169920807882,mp-776365
Na2FeP2(HO3)2,4.3712,-2.061161143618795,mp-1201072
Li10Mn3Cr3(CoO8)2,0.9769,-2.060969243444896,mp-780494
Rb2CrO4,3.1436,-2.060843094285714,mp-17071
Li4Mn5SbO12,0.0,-2.060834182863114,mp-1177353
KIn(MoO4)2,3.6425,-2.060741107409723,mp-650228
MnGaO3,1.2823,-2.060712347086208,mp-1176435
EuMgFeO3,0.0,-2.060592274166668,mp-2226109
Rb2Mo3SO13,2.8832,-2.060545179210528,mp-557413
BeCrO4,2.4705,-2.060414783749999,mp-770887
Na2CoSiCO7,0.236699999999999,-2.060386320229886,mp-771009
Li6NbFe5O12,1.7343000000000002,-2.060352182083333,mp-752667
CaNiAsHO5,2.4759,-2.060292846805555,mp-505457
Li4Cr3(CO3)6,0.653799999999999,-2.060149000430107,mp-758282
MgMn3SbO8,0.483099999999999,-2.060141514522547,mp-2218908
LiCrCSO7,2.6462,-2.060025409621211,mp-773160
Mg2NiSbO6,0.483399999999999,-2.0600120525,mp-1374281
Na3MnAsCO7,2.6273,-2.059932001505304,mp-771035
LiMgCr7(SO4)12,2.7801,-2.05982159258454,mp-532590
Sb(WO3)5,0.0,-2.059779611190476,mp-1219461
MgFe3PO7,2.2054,-2.059603916220238,mp-2218220
Li4CrO5,1.4312,-2.059533565333333,mp-770688
Co2Ni3Sb(PO4)6,0.0,-2.059519568829365,mp-758112
Li5MnO4,1.5718,-2.05951151995977,mp-774621
K2Mo4O13,2.992,-2.059281836289473,mp-637680
Li6Mn3CoO10,0.9559,-2.059251518189655,mp-1174771
Mg3Fe4(MoO4)6,1.2735,-2.05919919581081,mp-1042940
BaDyCr4O12,0.0,-2.059176203425926,mp-1517741
Li3Nb(FeO2)4,1.9741,-2.059122376874999,mp-1177575
Rb2Mo4O13,3.1604,-2.059111636052632,mp-1209549
Li9Mn5O12,1.3548,-2.059051863448277,mp-1176815
MgV2Zn4O8,1.1966,-2.058985383,mp-2232455
Tl2NiF4,0.0,-2.058970368571429,mp-1206532
VFeSbO6,0.2019,-2.058906198333334,mp-1216330
Li2MnCO5,1.1538,-2.058583023566411,mp-764236
SrMnFeBiO6,1.188,-2.058466937793105,mp-1218209
MgCr2(FeO3)2,2.318199999999999,-2.058463157727273,mp-2217293
Ba12(CoO3)11,0.0,-2.058361398125001,mp-1195315
Na2CrCSO7,2.451399999999999,-2.058277383354884,mp-773178
Li4Mn3Fe3(WO8)2,0.0,-2.058114988468801,mp-764443
MgCrAs2O7,1.2053,-2.058054540681818,mp-1042772
Ba3V2Ni6(AsO6)4,3.1805,-2.057939319743591,mp-1228018
LiIn(MoO4)2,3.661,-2.057841353749999,mp-554101
Li4CaNiO4,2.7874,-2.057615936333333,mp-775950
CaMn8O13F3,0.0,-2.057313584937931,mp-1233196
Li4CrFe3O8,1.897299999999999,-2.057254102083333,mp-768701
BaMn2O5,0.0,-2.05723651885776,mp-1095090
Li4V3Ni3(SnO8)2,0.152699999999999,-2.05714438547619,mp-775442
Fe2BO4,1.1644,-2.057117998095238,mp-20302
Sr4Co(IrO4)3,0.0,-2.0570949345,mp-1218568
YNiH3SO7,4.4271,-2.056912734711538,mp-744434
V3O8,0.6103000000000001,-2.056858389090909,mp-796383
VSO4,3.110499999999999,-2.056826916666666,mp-755951
Ba3CoRu2O9,0.0,-2.056674646666667,mp-19058
Ca4Fe5(TeO6)3,1.2644,-2.056487091666667,mp-1046805
Ba3CoIr2O9,0.0,-2.056273485333334,mp-1214637
Na6Cr2C4SO16,0.0,-2.055784865716409,mp-780528
Al(CoO2)2,0.0,-2.05576668,mp-753184
Li10Mn3Cr3(NiO8)2,1.035,-2.055615720797836,mp-774408
Sr3CaCo3CuO10,0.0,-2.055613165000001,mp-1099678
Be(FeO2)2,1.8397,-2.055603252142856,mp-770566
LiCr3O4,0.083599999999999,-2.055587825416665,mp-774235
MgNi3P3O13,0.0,-2.055531248946428,mp-1047865
LiFe8(OF)8,1.333699999999999,-2.055484722533333,mp-1235661
Ba2YW3O7,0.0,-2.055476187307692,mp-1048468
ZnWO4,3.2609,-2.055167530000002,mp-18918
Ba2NaMnO6,0.0,-2.054973846931034,mp-1516498
Na4Cr2C4SO16,1.6495000000000002,-2.054970088074713,mp-770560
Li3Cr3CuO8,0.0,-2.054959044,mp-768828
Li2Cr3CoO8,0.0,-2.054850132619048,mp-756414
Sr2GaFe2O7,0.0,-2.054834957708333,mp-1371485
Li6Fe2C4SO16,0.0,-2.054681120431033,mp-770599
Ba2Co2O5,0.0,-2.054551607222222,mp-1076439
MgV2Pb3O8,1.442899999999999,-2.054365844642857,mp-2240997
BaNaEuFeO6,0.0,-2.05422294963793,mp-1520230
PbWO4,2.9475,-2.054140709166665,mp-504591
Li2Cr2CoO6,0.6526000000000001,-2.054128588787878,mp-758963
Mn3Cr3(WO8)2,0.51,-2.054092540574712,mp-755961
Na2Cr7O14,0.0,-2.054027971424287,mp-754789
CsMg6WO8,0.0,-2.053969144353448,mp-1099223
Li4Mn5O12,1.0113,-2.053914901094687,mp-691115
CaW3O7,1.679,-2.053890794318182,mp-1044516
BaMgMnV2(AgO4)2,0.9683,-2.053807189084291,mp-2232129
BaHoCo4O7,0.0,-2.053564298461538,mp-17703
Sr4MgMn2Cu2(SO3)2,0.0,-2.05350840622718,mp-2229452
BaCoAs2O7,1.3273,-2.053426938409091,mp-1191386
LiCo2(PO4)3,0.0,-2.053415324292328,mp-863391
MnAlPH4O7,3.6275,-2.053350340183849,mp-1211169
Ba5Co5O14,0.0,-2.053313538333332,mp-22557
LiMnCO4,1.293,-2.05323571089491,mp-1661789
NaFeAsO4F,1.5887,-2.053221859859913,mp-1210021
NaMgV2Bi3O10,1.4667,-2.053210535669371,mp-2229135
Li4V5Cu3O16,0.0,-2.053016501904762,mp-777917
MgP4W3O14,0.7528,-2.052988589935063,mp-1044085
Sr2AlTlCo2O7,0.0,-2.052906607564103,mp-1252241
Na2CaV12O36,0.0,-2.052831489661933,mp-1221892
Li4Cr3Ni3(WO8)2,0.259,-2.052763793333334,mp-757815
Li2NiO2F,0.474899999999999,-2.05273579861111,mp-1272313
V2H2O5,1.343999999999999,-2.052615484166667,mp-1079538
BaEu(WO3)4,0.0,-2.052436990277778,mp-1516333
Sr2CoSO3,0.0,-2.052197661785714,mp-1046632
Li3V3(CoO6)2,1.2374,-2.052197068375,mp-774919
Mn7GeO12,0.5022000000000001,-2.052191077025861,mp-1172871
MgV6(HO3)6,1.342299999999999,-2.052166339435484,mp-1234567
BaYCo4O7,0.7462000000000001,-2.052164372307691,mp-1194048
Sr3MgCo2S2O5,0.0,-2.052109628846154,mp-1048653
Li5Nb2Co5O12,0.000899999999999,-2.051892030694443,mp-755029
Li2VO2,1.9148,-2.051847119333334,mp-774411
Sr6Ca2Fe3Co5O24,0.0,-2.051587451999999,mp-1076805
Li3Cr2CuO6,0.172199999999999,-2.05146523,mp-753263
SrMo2(AsO6)2,2.6928,-2.05143991617647,mp-541910
KSrMnSnO6,0.0,-2.051306745018104,mp-1520965
MgCr3InO8,0.7584000000000001,-2.051271311666666,mp-2218505
Na4VO4,1.067199999999999,-2.051262099501916,mp-754829
Ni5(P3O11)2,0.0,-2.050922819935064,mp-26314
Li6MnO4,3.0413,-2.050808946630094,mp-770533
LiVP2H5O9,2.5423,-2.05046293965939,mp-774186
Na5VO5,2.281399999999999,-2.05042486744514,mp-18233
Li4NbCo3O8,0.8083,-2.050413932083333,mp-1273584
Mn3O4,0.8134999999999991,-2.050409240541872,mp-18759
Li5V2Ni3O10,0.295199999999999,-2.050217496583333,mp-781051
Li2Mn2SbO6,0.9462,-2.050181137502612,mp-1567262
Li4Cr3Sn3(TeO8)2,1.1124,-2.050177222559524,mp-774846
Rb4Mg(MoO4)2,1.459099999999999,-2.050166219,mp-2228624
V2Zn4O9,2.5914,-2.049996815666667,mp-28331
Li7Mn17O32,0.0,-2.049996266752873,mp-699179
Li4Ti2Mn3Cu3O16,0.0,-2.049872580135468,mp-754563
Sr8Tl3Cr(CuO5)4,0.0,-2.049667713333334,mp-559339
VPbClO3,2.3699,-2.049469373749999,mp-554803
NaSrMnSnO6,0.0,-2.049451931431034,mp-1521795
SrEu(CoO3)2,0.0,-2.0493631935,mp-1218310
MnZn(GeO3)2,1.5984,-2.049281800543104,mp-1043445
HfTl2Fe2(MoO4)6,2.6073,-2.049278649333334,mp-1224453
LiMn3O4,0.0,-2.049080435890804,mp-34650
KSrCaMnO6,0.0,-2.049051863518104,mp-1520978
Ba3NiIr2O9,0.0,-2.048973204666667,mp-540907