formula,bg,formation_energy,mp-id
Mg3WO6,3.950699999999999,-2.717900925124999,mp-768489
LiMg4V3O12,3.3026,-2.717871643416666,mp-559155
Ba3Ti(FeO4)2,1.6418,-2.7177809027380953,mp-1228283
Ca2MnGaO5,0.0,-2.717583835603448,mp-630403
Sr2YMn2GaO7,0.0,-2.717576130643235,mp-1047071
Mn4Be3Si3TeO12,3.1768,-2.717548969060469,mp-18320
Rb3DyV2O8,3.392,-2.717496653154765,mp-1209315
WF5,2.9429,-2.717414811666666,mp-1367785
NaSrTbVO6,0.0,-2.717373008804597,mp-1520524
Sr2CeCoO6,0.0,-2.71736649,mp-1516664
Sr12Mn6O23,0.0,-2.717323549087469,mp-764995
LiV(OF)2,2.2316000000000003,-2.717316262222223,mp-1539853
Ba2V3HO9,1.9502,-2.717228091083334,mp-1192628
SrEuDyFeO6,0.0,-2.7172057156666662,mp-1517447
MgMn(PO3)4,4.076,-2.717114503694581,mp-1045783
Na3Li3Co2F12,1.8967,-2.717113636581897,mp-21932
La4Ni3O10,0.0,-2.716976697352941,mp-558316
Y3Mn2Sb3O14,0.0,-2.716891828902821,mp-1216224
Na2CrCuF7,0.008399999999999,-2.716774048205329,mp-504978
KMg14CoO16,0.1557,-2.7167078902265622,mp-1035155
Li3Mn5O2F9,1.9536,-2.7165881660344833,mp-758528
CsK2LaV2O8,3.7121,-2.716559512082512,mp-1213137
AlMoP2O9,2.8184,-2.716556878791209,mp-557607
V3(O2F)2,1.408299999999999,-2.71654262888889,mp-1274975
Ti3VCu2(PO4)6,0.0573,-2.7165216054960313,mp-752444
Ba8Re2(WO8)3,0.0,-2.716439769054055,mp-581446
Ba2MgMn2(P2O7)2,1.9981,-2.716378747801457,mp-1233482
Ti3NbNi2(PO4)6,0.0,-2.716015548551586,mp-1101686
SrSmCoO4,0.6552,-2.715957714999999,mp-1217761
KLaMoO5,3.2557,-2.71595185278125,mp-1147623
Mg3Si4(WO7)2,0.7106999999999991,-2.715735666956522,mp-1263350
Sr2MoO4,0.0,-2.7157154571428572,mp-19237
BaEu2Mn2O7,0.0,-2.715639680905172,mp-1183437
NbVO5,2.0888,-2.715484263571429,mp-753993
MgCrSF5,1.2534,-2.715412755937499,mp-1046702
Ti3MnCo2(PO4)6,0.0,-2.715085884605227,mp-778393
Li3Cr2P2(O4F)2,1.4299,-2.714987699369749,mp-759310
SrZnCr(PO4)2,2.279299999999999,-2.714811444175824,mp-1046422
DyMn2O4,0.0,-2.714598065361248,mp-1096947
Mg3Co2(Si2O7)2,1.532599999999999,-2.7144933421739132,mp-1254259
MnZnF4,3.0349,-2.714469238821839,mp-1931566
La3MnW(SO2)3,0.3421,-2.7144057861022173,mp-1054584
Li11V8(PO4)12,0.8757,-2.714357855979505,mp-849384
Sr2MgCrO4,1.6968,-2.714180018125,mp-2227890
LaMoClO4,2.7474,-2.713937867321429,mp-1204388
HfMg6CoO8,0.182,-2.71388795625,mp-1031728
Sr2YV2GaO7,0.0,-2.71388621673077,mp-1046616
BaNb2CrO6,0.0,-2.713847554999999,mp-1519828
Rb3TbV2O8,3.3869,-2.713767508511899,mp-1209304
Mn5OF11,0.0,-2.713741770567951,mp-754167
SrTbEuFeO6,0.0,-2.713697202166666,mp-1518143
KFe2F6,0.0,-2.713677815694444,mp-1223730
Ba4Na2W2O11,3.6266,-2.7136465809346633,mp-1228581
Ca8Mn6Al2O21,0.1477,-2.713632696759087,mp-1247683
Ba3Fe4P8PbO28,4.0495,-2.713483659935064,mp-1228512
Ti3Cr2Sb(PO4)6,0.0,-2.713167848551585,mp-774372
TiMo(PO4)3,1.3673,-2.713153336897758,mp-1044323
Mg6MnCrO8,2.130099999999999,-2.713119413620689,mp-1032690
KAlCo(PO4)2,3.2012,-2.713060226464285,mp-532810
Mg6TiFeO8,0.5167,-2.712992167708333,mp-1032516
Li2VO2F,1.832,-2.712929244861111,mp-763051
Li4V2Si(PO6)2,2.122399999999999,-2.712911399648526,mp-1255288
Sr2Ca2TiMn3O12,0.0,-2.712902771356321,mp-1077669
K3YV2O8,3.4086,-2.712865512982143,mp-1105034
Li4Ti4Cr5O18,0.0,-2.712780085215053,mp-861696
Sr2V3HO9,1.958899999999999,-2.712760765083334,mp-1192478
VOF3,3.6563,-2.712652723499999,mp-556026
BaNb4(FeO7)2,2.3473,-2.712473551428571,mp-1096881
Nd2MnRhO6,0.4194,-2.712388709293104,mp-1220508
HfMg6CrO8,0.1194,-2.712335603125,mp-1033343
Sr2NdMnO6,0.0,-2.712296225543105,mp-1521512
Mg3V2O6,1.194,-2.712237365909091,mp-673839
CaLaFeMoO6,1.218599999999999,-2.712180774,mp-1044000
K2RbGdV2O8,3.3892,-2.712102805857142,mp-21331
NaMg4V3O12,3.3243,-2.711823919568965,mp-541220
CaV3O7,2.6227,-2.711808833181818,mp-19347
Na4AlCr3(P2O7)4,3.143599999999999,-2.711444037105911,mp-1221260
KSrEuWO6,0.0,-2.711058980225001,mp-1523094
TiV3O8,0.7877000000000001,-2.710972401944445,mp-1317675
TiMoO4,0.0,-2.710971552222222,mp-1216722
Rb2NiF4,3.7349,-2.710891979285714,mp-561317
K2CrCuF6,0.6825999999999991,-2.710737754449999,mp-1111939
Ba2NbCoO6,1.534599999999999,-2.710650131,mp-1228382
NaVP2O7,2.1604,-2.710645244605911,mp-752810
BaNdCrSnO6,1.921999999999999,-2.7106270272499993,mp-1517440
SrV3O7,2.5494,-2.710209818636364,mp-510725
HfMg14WO16,0.054499999999999,-2.7100528996875,mp-1033809
K2RbLaV2O8,3.4692,-2.710005932642857,mp-1211738
Li3V3(PO4)4,2.056899999999999,-2.710003082252747,mp-32528
NaMg6MnO8,1.4357,-2.709892485581896,mp-1032433
SrCa7Mn6Al2O21,0.132199999999999,-2.70979872000233,mp-1247679
Rb3YV2O8,3.3415,-2.7096167330357153,mp-1209350
Mg3Si3(WO6)2,2.1308,-2.709548628125,mp-1157231
SrDy2Fe2O7,0.0,-2.709507847361109,mp-1218289
Mg6AlFeO8,2.007200000000001,-2.709434204375,mp-1033177
Nb3Co(PO4)6,2.1295,-2.709301038760503,mp-771766
Li5V4(PO4)6,0.403999999999999,-2.7092739280647122,mp-849426
Na9Fe10(SiO3)20,0.0,-2.7091498791152913,mp-775293
SrCa3TiMn3O12,0.0,-2.708963457106322,mp-1076074
Li7V6(OF)12,0.2978,-2.708916602792793,mp-775890
Ba3Al2Ga2(FeO6)2,3.2184,-2.708888433095238,mp-1229132
Na3Ca10Mn7V12O48,0.9016,-2.70888458937069,mp-694988
MgV8(OF)8,0.4793,-2.7088677234,mp-1234292
SrCaMnO4,0.0,-2.708866936133004,mp-1218332
AlMo3F15,1.8927,-2.7088650862499972,mp-1041498
LiMn2OF5,0.8942999999999991,-2.7087538704661562,mp-761120
MgV3P3O13,1.284899999999999,-2.708577474946428,mp-1041461
Mg6TiNiO8,0.0119,-2.708560566458334,mp-1031881
Li4Ti2Nb3Cr3O16,0.0,-2.708498389642857,mp-757702
Rb8Ti3Cr2Ni3(P2O7)8,2.2969,-2.7084620143668823,mp-1173606
Li3V(PO4)2,2.0725,-2.708453483520408,mp-26399
Na2FeNiF7,2.7689999999999992,-2.708318773887147,mp-561395
CsTaV2O8,2.7305,-2.708126358290709,mp-1194848
CaVFe(P2O7)2,1.7576,-2.708073624217687,mp-1233333
CaPrCoO4,0.611799999999999,-2.708040257380953,mp-1227079
Ti3Cr2Cu(PO4)6,0.0,-2.708011029662697,mp-1101335
Li8TiMn3(PO4)6,1.1976,-2.707943851229767,mp-768533
Ti3Fe(PO4)6,0.0,-2.707883469054623,mp-775436
Ba5SrNd2Fe4O15,2.4166,-2.707855633518518,mp-1228568
Li4CoOF5,0.0,-2.707696383939393,mp-754887
Li3Ti2V3O12,0.933099999999999,-2.707693926833333,mp-760212
Li2Co(SiO3)2,3.0051,-2.707444126969697,mp-753142
Li15Mn8P8(O4F)8,0.2203,-2.707372655078749,mp-759732
Li5Mn4(Si3O10)2,0.0,-2.7073510399540233,mp-778120
Li5V2P5O18,1.9323,-2.707321444662698,mp-26595
Ba10LiW7O30,1.526,-2.7072173973611102,mp-772977
Na2FeCoF7,2.0624,-2.707138116728056,mp-557221
Li3MnSi2O7,0.9207999999999992,-2.706941164840848,mp-780126
Tb4Mo4O11,0.184,-2.706897104166667,mp-21950
Ca2CrSbO6,2.0309,-2.706853443499999,mp-1189906
Ca5Cr3O12,0.029099999999999,-2.7067932513749993,mp-21976
Rb2VAgF6,0.0,-2.706512145666666,mp-1110597
Ti3FeNi2(PO4)6,0.6998000000000001,-2.706359212162699,mp-778326
SrNdCoO4,0.621599999999999,-2.706037485357143,mp-1218151
Cs2NaCoF6,2.801,-2.705754885068966,mp-558211
LaMgCrWO6,0.0,-2.7056849155,mp-1044938
Sr4FeMoO8,0.720599999999999,-2.705672723571429,mp-1218333
CaVNiP2O9,0.0,-2.705608375306123,mp-21646
Ti3CrCu2(PO4)6,1.5183,-2.705528002440477,mp-775994
K2RbScV2O8,3.0768,-2.705510843357129,mp-1211745
SrMg6CrO8,2.142299999999999,-2.705447204375001,mp-1033472
K2RbSmV2O8,3.1226,-2.705238969071428,mp-1211767
K2CrOF5,2.4206,-2.705221783277778,mp-1105719
Na2TiFe5(Si3O10)2,2.3118,-2.705201170326233,mp-557596
Cs2Fe2P3O8F7,2.5752,-2.705148408783586,mp-1200525
Sr3V4CdO14,3.206099999999999,-2.705003647045454,mp-561266
La7Sm(FeO3)8,0.8335999999999991,-2.704983934500001,mp-1076382
Ba2YCr3O7,0.0078,-2.704906609230768,mp-1048325
Li4Ti4MnCr4O18,0.7338,-2.704819205309602,mp-767369
Ti3Fe2Sb(PO4)6,0.0289,-2.70479929938492,mp-778503
Y2Co3(SiO4)3,2.7187,-2.704693030874998,mp-1157336
LiVO2F,2.4348,-2.704583727666667,mp-752626
Ba6Gd2Fe4O15,2.1756,-2.704474228333334,mp-1215063
Ba4Cr2MoWO12,0.0,-2.704250930499999,mp-1228199
Li3V2(SiO5)2,1.6186999999999991,-2.704228140294117,mp-779630
Li12MnV7(PO4)12,0.1814,-2.704201557295567,mp-779342
HoV2ZnO6,0.0,-2.704153009999999,mp-1041130
BaGdInWO6,1.6715,-2.703644507666666,mp-1516504
Li3Ti2FeO6,0.0,-2.703509463888889,mp-774337
Li5Ti2V3O10,0.349,-2.703298924166667,mp-760954
La6Mo8O33,3.245799999999999,-2.7032766629787233,mp-31128
TiCrO4,0.0,-2.703237982222222,mp-755596
Sr2YCr2O7,0.0,-2.703165924166666,mp-1045011
Li2VCr(P2O7)2,2.2016,-2.703165175010822,mp-753866
CsV2P5O16,0.0091,-2.70310503449456,mp-504996
Mg14VBiO16,0.1277,-2.7030565715625,mp-1034245
MgV2(PO5)2,1.2593,-2.703033718285714,mp-2232216
BaCaSmMnO6,0.0,-2.702946084293104,mp-1522001
SrNiF6,1.7074,-2.702901423750001,mp-555718
K2NbV(PO5)2,1.0716,-2.702809186799108,mp-1224543
VPO4F,1.5351,-2.702751832806124,mp-1104878
Lu2(MoO4)3,3.909399999999999,-2.702578999607843,mp-1211136
La2MgZnCoO6,2.2862,-2.702398248636364,mp-2217956
Sc2(WO4)3,4.2033,-2.702185727941176,mp-5516
UV3O10,0.0,-2.701913487142856,mp-505163
YMnGaO5,1.585,-2.70172051286638,mp-1207709
MgV2O4,0.000199999999999,-2.7016632902380953,mp-1040943
Li9Cr3P8O29,3.0834,-2.701587921676384,mp-26975
Li5MnP2(O4F)2,1.627399999999999,-2.701533213734263,mp-758807
MgV2(SiO4)3,1.4533,-2.701512509305555,mp-1261307
Ba6La2Fe4O15,2.396199999999999,-2.701463833518519,mp-1228690
Ca4Mn3AlO11,0.084799999999999,-2.701444852897006,mp-1247717
SrEuYFeO6,0.0,-2.7014353865,mp-1522081
LaMgVFeO6,1.553199999999999,-2.701350087500001,mp-1043844
Sr2CeMn3O9,0.0,-2.701237125586207,mp-1218910
Li15V6(P8O29)2,1.0735,-2.701165706150376,mp-1178192
Sr3CaMn2O8,0.0,-2.700987138990147,mp-1218411
Li4Ti3V3(SnO8)2,0.5295999999999991,-2.700979486547619,mp-754570
Na3VSi4(HO6)2,0.0601,-2.7009200243926332,mp-743949
Li2Mn2Si2O7,3.025,-2.70082814750221,mp-859108
VPO4,1.834699999999999,-2.70069467577381,mp-18835
Rb3GdV2O8,3.2957,-2.7005970294642823,mp-1209373
K3NdV2O8,3.6565,-2.700558495660715,mp-16799
CsLi5Mn(P2O7)2,3.959,-2.700472152612971,mp-1195536
SmEuCrSnO6,0.0,-2.7004627555000003,mp-1521686
LiMg6WO8,4.566,-2.700348210208333,mp-1031191
Ca3Cr2(GeO4)3,3.310799999999999,-2.7003196089999992,mp-1048585
Li3V2(O2F)2,1.3573,-2.7002487227272742,mp-1572353
MgAlFeO4,2.516,-2.7002392407142852,mp-1222041
Li4Ti3Cr5O16,0.186699999999999,-2.700224681547619,mp-771120
CaTi2Fe2(PO4)6,0.0,-2.700144228129251,mp-1355185
MgCrSiO5,0.5888,-2.699886571249999,mp-1046669
NaFe2(Si2O5)3,1.998,-2.699860265994971,mp-818474
La2FeCoO6,0.0,-2.699818660000001,mp-1223373
CaV2O6,2.8812,-2.6997670455555562,mp-27624
Mg6VFeO8,3.106899999999999,-2.699719025625,mp-1032499
MgTi2Mn2O6,0.016799999999999,-2.699382086138975,mp-2217743
Li3MnV(P2O7)2,2.137699999999999,-2.699369753543584,mp-850951
Sr2EuFeO5,0.0,-2.699153078333334,mp-1218832
UCoO4,0.6779000000000001,-2.699018927499999,mp-19089
Li2Mn2Si3O10,1.2618,-2.698946549266397,mp-766544
Mg14MnBiO16,0.0,-2.698914144622844,mp-1036154
Ca4Ga3FeO10,0.0,-2.69836297263889,mp-1228210
Sr5La5Mn9CuO30,0.0,-2.698360105727586,mp-698602
Ba3NaMn4Si6O23,0.1147,-2.698204853529823,mp-1215159
Ca2HoMn3O9,0.0,-2.698157427419539,mp-1227762
W5(O2F11)2,3.5107,-2.697861106774194,mp-760149
BaEu2CoO5,0.0,-2.6977684372222233,mp-541429
CaLaMnFeO6,1.075699999999999,-2.697698679793102,mp-40066
K3ScV2O8,3.0893,-2.697545394053572,mp-1104363
RbTaV2O8,2.8144,-2.697450944569444,mp-1194597
SrCaMnGaO5,1.4085,-2.6971837383812263,mp-1218355
MnFe2Pb8F24,2.187599999999999,-2.697094647512314,mp-1201249
Li2Si4Ni2O11,4.213100000000001,-2.69688122877193,mp-757344
NaCaFe(SiO3)4,0.0,-2.696634573756807,mp-1221093
SrCaSmMnO6,0.0,-2.696601852293104,mp-1522553
MgAl8Fe3(PO5)8,0.0,-2.696438090535714,mp-1222242
Ca2TbMn3O9,0.0,-2.696405667863985,mp-1227626
KNa2FeF6,4.1152,-2.6963835940008622,mp-1111014
Nd3Mn2Sb3O14,0.0,-2.696260529016457,mp-1191901
Li2Fe2(Si2O5)3,3.0223,-2.6962145933666672,mp-772312
Na5Fe6(SiO3)12,0.0,-2.6960612931677392,mp-766401
KV4P7O24,1.923499999999999,-2.6960439974930552,mp-557659
Ti3VSb2(PO4)6,0.0,-2.695979659662698,mp-774876
Ca3Mn2WO9,0.3203,-2.695963664057473,mp-1228190
Li3V4O7F5,1.190699999999999,-2.6959028726315792,mp-765375
PrMgCr2O6,0.0,-2.695875405666666,mp-1044528
Ba4La6Mn5In5O30,0.1481,-2.69576188645977,mp-720201
Li2V2(PO4)3,0.0,-2.695738242005012,mp-849317
K2MnTlF6,0.0,-2.695543939576437,mp-1111371
LaV3O9,2.570799999999999,-2.695535013846155,mp-29855
Sr6CaMn4O13,1.3496,-2.695348768821839,mp-1218618
Sr2MnO4,0.0,-2.695346935418719,mp-18978
Sr2ZrCoO6,0.0,-2.695174324,mp-1079027
Li2VFeP2(O4F)2,1.8423999999999991,-2.695019440059525,mp-756057
CaSc4(FeO3)4,1.1752,-2.694929071428571,mp-1233251
CaHo(WO3)2,2.114899999999999,-2.694899280499999,mp-1041228
K3Ni2F7,3.5833,-2.694834912229166,mp-560449
Mn4OF8,0.733,-2.694785962055703,mp-754014
SrCa7TiMn7O20,0.0,-2.694713095523627,mp-1077688
ScMn2O4,0.0,-2.69459729726601,mp-1219298
TiMnFe(PO4)3,2.3036,-2.6945230677884973,mp-699376
Sc10V10O37,0.0,-2.694474914298245,mp-1173573
Rb2Mo(OF2)2,3.484099999999999,-2.6942905627777782,mp-1209465
Sr3Sm(FeO4)2,0.0,-2.693963043928571,mp-1218432
BaMo2(P2O7)2,3.9317,-2.693897771360543,mp-16802
Mg9V10O24,0.920099999999999,-2.693769381744186,mp-33705
BaV2O6,2.878,-2.693702212592591,mp-18929
NaCa3Fe(SiO3)8,0.0,-2.693682453821062,mp-1221188
BaMnNb2O6,0.0,-2.693586343793105,mp-1523372
MgTi3Fe2Co(PO4)6,0.015299999999999,-2.693563899806949,mp-1234376
Mg2Nb2WO8,0.3563,-2.693539959615385,mp-1046764
Ce2(WO4)3,0.079299999999999,-2.693502823235293,mp-17686
LiFe2F5,3.219299999999999,-2.693320080416666,mp-776764
BaTbMn2O6,0.0,-2.693193453752873,mp-558858
Li3Nb4NiO12,0.6533000000000001,-2.6931550915,mp-756616
Sr7Mn4O13,1.9826,-2.693146540488507,mp-554474
SrLaMgMn2O6,1.312799999999999,-2.693029861442006,mp-2217867
LiLu2W2(ClO4)2,2.4105,-2.692975977777778,mp-1235179
LiVB2O5,2.2721,-2.692947322129631,mp-768913
Na3VB6O13,3.4253,-2.692882320940779,mp-557235
Ti3MnSb2(PO4)6,0.0,-2.69273711543856,mp-775892
Nb3Ni(PO4)6,0.0,-2.692674508760505,mp-775225
Li7V3P8O29,0.4691,-2.69251790820162,mp-757637
Li9Ti7Cr6O30,0.0,-2.692480919294871,mp-759088
Sr2MgMnO4,0.6606000000000001,-2.692453904116379,mp-2228187
Sr3Nd(FeO4)2,0.0,-2.692387564107142,mp-1218438
Ti3Fe2Cu(PO4)6,0.125599999999999,-2.692280293829365,mp-777685
Li4MnV3(P2O7)4,0.4958,-2.692126323600163,mp-777395
BaNaEuWO6,0.0,-2.691752255387932,mp-1518039
TiV2O7,2.1462,-2.691691609333334,mp-752445
SrCa7Mn6Al2O22,0.0424,-2.691647024739111,mp-1247617
CsNpMoO6,0.3369,-2.69163411815613,mp-1213571
Ca3V2(GeO4)3,0.0,-2.69159893825,mp-1327747
Na3ErV2O8,3.625499999999999,-2.6915894467241372,mp-555537
Pr2MnRhO6,0.369199999999999,-2.691347834126438,mp-1219893
Ba2V5(PO6)4,1.0383,-2.691044271530613,mp-560918
Sr5Cr3ClO12,1.1425,-2.690973759761904,mp-1179227
LiV3(O2F)2,1.4523,-2.690912926833333,mp-759980
Ta2VZn2O8,0.8167000000000001,-2.690851440935897,mp-1046105
Be3Fe2(SiO4)3,1.450699999999999,-2.69078681475,mp-1047825
Ba3Cr2MoO9,0.0,-2.690746808999999,mp-557755
Tb2MgW2(ClO4)2,2.643,-2.690661457888887,mp-2232271
KLu(WO4)2,3.2486,-2.690631258243055,mp-18719
Mn2Si(P2O7)2,4.120100000000001,-2.690464495687309,mp-17863
Sr2DyFeO6,0.2219,-2.690384840166666,mp-1518012
Sr2Ca6TiMn7O20,0.0,-2.690276635315293,mp-1076877
K2RbNdV2O8,3.4296,-2.6902760749642862,mp-1211725
NaLi2FeF6,4.1704,-2.690261746804597,mp-1111348
MgCr(PO3)4,2.5268,-2.690152824365078,mp-1045788
Li2MnSiO4,2.176599999999999,-2.690084414012211,mp-559240
Ca6Mn3Al(SiO6)4,0.0,-2.689954069310344,mp-1227703
Ca5Mn4O9,2.3402,-2.689933867595785,mp-753847
Li4FeSi2O7,4.1088000000000005,-2.689888897380952,mp-757988
CaSi2WO6,1.589,-2.689883142875,mp-1041992
CaCo3(SiO3)4,0.0,-2.689834717999999,mp-1227278
LiV3O5F3,1.1332,-2.6895950465277783,mp-758438
K2TlMoF6,3.750599999999999,-2.689483886783335,mp-1111419
Sr2VSnO6,0.0,-2.6894611535,mp-1519447
Mg14CrBiO16,0.187999999999998,-2.68935658375,mp-1033843
Li3Ti2CoO6,0.2949,-2.689287499305556,mp-754180
Li2CrPO4F,2.3172,-2.68926614806217,mp-770894
SrMo(PO4)2,1.9989999999999992,-2.68919923827381,mp-1046415
SrP2WO8,3.156,-2.689101072023808,mp-1046472
SrDyCoO4,0.9849999999999992,-2.689070690952381,mp-1218284
Sm2Fe2O5,0.9248,-2.6890301972222233,mp-1076463
Mg14CoBiO16,1.8656,-2.689007934374999,mp-1034825
TbMoClO4,2.748,-2.689001050952381,mp-558223
Rb2TiV3(PO6)3,2.2285999999999992,-2.688966270361553,mp-1203774
RbMg14FeO16,0.0,-2.6889455008593752,mp-1035557
Cs2W(OF2)2,3.1768,-2.688816068812262,mp-1226138
Ca3La5Mn6(CuO12)2,0.0,-2.688695298814655,mp-706245
LiMn2OF3,2.1704,-2.688604517027915,mp-756757
CsUV3O11,2.274,-2.688471907790948,mp-572487
W7(OF5)6,3.4979,-2.6883864658139522,mp-764257
K2VAgF6,0.0,-2.688357245616667,mp-1112271
CaCo(PO3)4,3.2999,-2.688315323531745,mp-1045787
TiNi(PO4)2,2.2899000000000003,-2.688312071607143,mp-752647
BaSmCrSnO6,1.959699999999999,-2.688117325999999,mp-1517794
Li5Fe3(OF5)2,1.7943000000000002,-2.688068937833333,mp-1177125
Cs2TiV3(PO6)3,2.1004,-2.6880493789471203,mp-581138
LiVSiO5,2.1668,-2.688015865416666,mp-754539
NaTbMnWO6,2.2708,-2.6879429475977,mp-555494
BaNdMgMn2O6,0.0,-2.687910533487461,mp-2217652
Li7V4P9O32,2.2043,-2.687864552213827,mp-27087
Li3MoF6,2.9152,-2.687778699,mp-1111287
Li4Ti3Nb2Co3O16,1.497099999999999,-2.687692597797619,mp-776073
Ca2YMn3O9,0.0,-2.68744418641954,mp-1227926
BaPrMn2O6,0.0,-2.687422312752873,mp-19274
SrPrDyNiO6,1.4826,-2.687236834333332,mp-1519887
BaNdMn2O6,0.0,-2.687230799336206,mp-22571
Sr2Mn3P4(HO8)2,3.504199999999999,-2.68719868703202,mp-1197934
Li4Ti3V4Cr2O18,0.3186,-2.68716149123656,mp-774678
Li2Al2CrSbO8,2.5534,-2.68714821904762,mp-1222897
Al2Co3(SiO4)3,2.9748,-2.6870843805,mp-6186
Li7V8(PO4)12,0.8895999999999991,-2.687042323587302,mp-729675
Li3VSiBO7,1.6499,-2.686999338397436,mp-771263
Mg6ZnCrO8,1.6177,-2.68699182125,mp-1032507
DyMnCrO5,0.0563,-2.6869557090122123,mp-1213015
Li4Fe2Si4O13,2.7804,-2.686916581231885,mp-759501
Ca2LaMn3O9,0.0,-2.68688678941954,mp-1227659
Na5CrP2(O4F)2,3.168199999999999,-2.686873689417533,mp-559615
DyMoClO4,2.7283,-2.686860015238095,mp-555683
CaLaMnSnO6,0.7388,-2.686839492793105,mp-694915
Li3NiF6,2.3599,-2.68679543025,mp-1211465
LuMoClO4,2.8871,-2.686787826666666,mp-556010
Co(Si2O5)2,1.0491,-2.686786194666666,mp-1043669
Li4Mn(PO4)2,4.1309000000000005,-2.686699182203338,mp-26081
BaPrMgMn2O6,0.0,-2.686643480229885,mp-2240280
KLaMnWO6,2.4917,-2.686461859018102,mp-1105566
TiCo(PO4)2,1.8961,-2.68619760500992,mp-752800
Na7Mg7Fe5(PO4)12,2.2482,-2.686120245447715,mp-1173791
Li2MnOF2,1.6884,-2.6861196015996183,mp-753929
Pr2MgMn2(GeO5)2,1.7428,-2.68610144612914,mp-2229749
SiMoP3O11,4.3633,-2.686009803526785,mp-581326
TmMoClO4,2.6792,-2.685963249285715,mp-559178
SrCr(PO4)2,0.119299999999999,-2.6859410741071432,mp-1046448
KTaV2O8,2.716,-2.6857791291319453,mp-1194599
Li4Co(SiO3)3,2.9541999999999993,-2.685746078137255,mp-758369
ErMoClO4,2.7062,-2.685698043571428,mp-559004
Ca6Sc(CoO4)3,0.9348,-2.685624827954545,mp-1227024
Sr12Tm3Ni5O24,0.0,-2.6855011109090903,mp-1218940
KEr(WO4)2,3.2910999999999992,-2.6854459251875,mp-558010
Lu2Mn(GeO3)4,1.9777,-2.685445642961284,mp-1222837
MgTi2V2O6,0.0,-2.685232951060607,mp-2217303
Li6MnV3(PO4)6,0.5203000000000001,-2.685096136769704,mp-777835
CaV8(OF)8,0.398099999999999,-2.685084310799999,mp-1234773
Ba4Mo2O6F13,0.0,-2.684943460800001,mp-1202067
ZnSi4WO10,2.011399999999999,-2.684898211249999,mp-1043629
Sr3Ca5TiMn7O20,0.0,-2.684846205940294,mp-1077695
HoMoClO4,2.7162,-2.684803627857142,mp-558005
KCrP2O7,2.875499999999999,-2.684641871503246,mp-18387
Sr2AlV11O22,0.6374000000000001,-2.684599707222224,mp-1218881
Rb3ScV2O8,3.118,-2.684512151964285,mp-1209347
CaLa3(FeO3)4,0.0,-2.68422154375,mp-1227194
Eu3W(ClO2)3,0.0,-2.684059971923079,mp-1213105
Rb2VCuF6,0.0,-2.6840008875,mp-1113787
LiV2P5O16,0.032999999999999,-2.683900550064484,mp-25812
MgTa2(FeO4)2,2.149299999999999,-2.6835100568974353,mp-2218623
ZnCr(SiO3)2,0.0665,-2.6834657355,mp-1248912
Ca2Cr2O5,0.9077,-2.683408700555555,mp-1105485
Li4V2(PO4)3,0.5274000000000001,-2.683386693441044,mp-777185
Sr2ZnWO6,3.5827,-2.68336307975,mp-1195362
K3CoF6,2.898399999999999,-2.683251744175,mp-1111145
Ta2CrNO5,1.435999999999999,-2.68317245912963,mp-849504
Li3VB4O9,2.752399999999999,-2.683103539509805,mp-768885
LiVSi4(HO6)2,1.9547999999999992,-2.683051064291666,mp-1256989
Na3LaV2O8,3.767899999999999,-2.683029873152709,mp-558512
CaNi(PO3)4,4.6204,-2.68302037575397,mp-1045813
WOF4,4.0543,-2.682990330833333,mp-752955
MgCrPO5,1.752499999999999,-2.6829406437053582,mp-1046666
KLaDyMnO6,0.0,-2.68275510118477,mp-1523024
NaLi2MnF6,0.0,-2.682731754597701,mp-1111191