formula,bg,formation_energy,mp-id
CeSbMo2O9,0.11,-2.353129542307693,mp-1204842
RbFeAgF6,0.281399999999999,-2.353121934351852,mp-1209325
Li4Nb2V3Ni3O16,1.5990000000000002,-2.3530969776190482,mp-776390
Ba6MgCo2(Sb2O9)2,1.2958,-2.353080670806451,mp-1233616
CsEu(MoO4)2,0.0,-2.353069434137932,mp-1213374
Li3CoSiBO7,0.0521,-2.353067031474358,mp-771167
Li6MnNiP2(CO7)2,2.8522,-2.353032277969875,mp-757236
Li2Fe5(PO4)4,3.5627999999999993,-2.352971154268077,mp-540431
Li4Mn2V5O12,1.248999999999999,-2.352897837356323,mp-759274
TiMn3Cu2(PO4)6,0.0,-2.352840376249544,mp-1101271
LiV4O10,0.0,-2.352642368555555,mp-776037
Ba2AlV3O7,0.0,-2.352625812692308,mp-1048346
CaLaFeNiO6,0.0,-2.352552896,mp-1043874
Li4TiCo2Ni3(PO4)6,2.3307,-2.352503654113095,mp-778251
CdFe2Sb2(PO4)6,2.8457,-2.352485540795919,mp-703231
Li2WO4,3.968,-2.352370269523809,mp-19260
K5Sm(MoO4)4,3.8758,-2.352365818125001,mp-1224359
Sm(FeO2)2,0.0,-2.352249432142857,mp-755338
Sr2Fe2Se2OF2,0.0,-2.352246551076388,mp-550944
Fe2P4Pb3O16,2.4141999999999992,-2.352073547942856,mp-704946
V4O9,0.4062,-2.352025431538462,mp-27412
Li4Ni5(P3O11)2,3.2929,-2.351967759086229,mp-26313
Li4Fe2P4H3O16,1.5845,-2.351810936057059,mp-1177422
Li3Ni2O2F3,2.5234,-2.351740538499999,mp-753703
MgVMoO5,1.3661,-2.351734486249999,mp-2225400
Ti2Cr3Sb3O16,1.736099999999999,-2.3516961877777782,mp-776079
KMoPClO5,2.0279,-2.351687704654762,mp-554960
MnP2HO7,1.6962000000000002,-2.351595590315159,mp-734805
FePO4,1.3564,-2.351585960357142,mp-753395
Li2MnBO4,0.630099999999999,-2.351368467970546,mp-771018
Li5Ni6(P2O7)4,0.9115,-2.35136035391084,mp-886210
LiAl(MoO4)2,3.6252,-2.351329154027778,mp-19209
Li4Cr2Ni3Sn(PO4)6,2.004399999999999,-2.351174179654761,mp-778614
CeCu(WO4)2,0.117499999999999,-2.351124633749999,mp-1213939
Ca2CoSbO6,0.6627000000000001,-2.351119786499999,mp-1379512
Fe3(SiO4)2,1.484499999999999,-2.350756869615384,mp-28444
Na3FeSiBO7,0.0,-2.350754717177276,mp-771318
Ca7MgMn8O24,0.0,-2.350744494961206,mp-1076485
KSrLaMnO6,0.0,-2.350742389018104,mp-1523124
CaLa2Fe2(TeO6)2,2.0811,-2.350726343333334,mp-1233928
NaNi2P3O10,3.914,-2.350393625956742,mp-761044
LiCoP2O7,0.0,-2.350351497965368,mp-27043
CaY2(FeO2)4,2.2997,-2.350342167333333,mp-1233632
Mo3P3O13,0.0,-2.3503165912594,mp-1047920
LiMo3P3O16,1.683999999999999,-2.35024137292443,mp-17314
BaLaCo2O5,0.0,-2.35019775,mp-1206732
Fe(PO3)4,0.364,-2.350186585798317,mp-31874
CoP2PbO7,3.161299999999999,-2.350182173798701,mp-505235
KFeNi(PO4)2,2.4626,-2.350088777233516,mp-1194949
KV6O14,1.1048,-2.350083567488096,mp-758169
KLaCoWO6,0.0,-2.350055765225001,mp-1516194
Mg6NiBiO8,2.141899999999999,-2.3500536775,mp-1031703
Li4Ti3Cu3(WO8)2,0.0,-2.349938306190476,mp-757783
CaCr4O8,0.0,-2.349907945384616,mp-1444394
KPrNiWO6,3.102099999999999,-2.349893803891666,mp-1519999
Sr2YFeCu2O7,0.0,-2.349893651923076,mp-1042547
LiCoSiO4,1.299,-2.349885492857142,mp-764945
KEu(MoO4)2,0.0,-2.349843173520833,mp-556949
K2MgMo2P2(ClO5)2,1.0792,-2.349806974146616,mp-2230600
Sr4TlFe2O9,0.0,-2.349747808645833,mp-1218464
Sr2YGaW2O7,0.4724,-2.349673060576922,mp-1046772
MgZn2Fe2(SiO5)2,1.847,-2.349551331470588,mp-2229218
LiFe2(P2O7)2,0.0,-2.349222328424036,mp-1200149
LiFe4(PO4)4,0.756599999999999,-2.34921354127619,mp-632692
CaLaCrCuO6,0.0,-2.3491973359999982,mp-1040903
BaLa2(CoO3)3,0.0,-2.349069193333334,mp-1302177
Na3MnSiCO7,1.2865,-2.3490579011206902,mp-772101
Mn3Fe2Sn(PO4)6,0.0,-2.348911517962507,mp-776652
Na2TiNiO4,1.509,-2.348828121386494,mp-1221264
Li2FeO2F,1.849,-2.3487676194444442,mp-754758
Na2Mg3(MoO4)4,3.6565,-2.348657088043678,mp-1221800
Li2Fe(PO3)8,0.0,-2.3486452952517,mp-694564
Li2Fe3O3F5,2.0061,-2.348568172820512,mp-849525
KLaFeSbO6,1.6969,-2.348553209225001,mp-1520811
LiMnPO5,1.2573,-2.348543774800903,mp-757358
MnBiPO5,2.779,-2.348529656259237,mp-560153
Li12CrFe3P4(CO7)4,0.2247,-2.348513626126373,mp-766534
SrEuCrBiO6,0.0,-2.3485124165,mp-1521023
Li3TiMn4O8,0.601399999999999,-2.348510070316092,mp-1290530
Li6MnSiO6,3.085099999999999,-2.348503398602218,mp-757260
Cr(PO3)5,0.0,-2.348242395867346,mp-705019
CaPr3(CoO3)4,0.0,-2.34818748525,mp-1227199
V2CrO6,1.3129,-2.348136220555556,mp-1306095
ScTl(MoO4)2,3.6236,-2.348050686527779,mp-19450
Sr2CoO4,0.7733999999999991,-2.348026246071429,mp-1275355
Tb2Mn3Sb3O14,1.281199999999999,-2.347993381687565,mp-1217720
Ba2Y2Co3CuO10,0.0,-2.347866097222223,mp-1228469
Li7MnCo3(PO4)6,0.0,-2.347723476320036,mp-887355
MgFe2(OF)2,2.1112,-2.347607976428572,mp-2225985
Li4Ti2V3(Fe2O9)2,1.5916,-2.3475706554838722,mp-768180
Mn3Cr2Ni(PO4)6,0.0,-2.347498685323618,mp-776047
Sr2AlGaNi2O7,1.5629,-2.347449331730769,mp-1342473
LiCoPO4F,0.808,-2.347400427247024,mp-25465
NaHfCuWO6,0.8338999999999991,-2.347311471137931,mp-1521471
Sr4Ca4Mn5(FeO8)3,0.0,-2.347267183991379,mp-1076058
Sr5Ca3Fe7CoO20,0.3948,-2.347186722569445,mp-1076516
Li4Mn2V3O12,0.7118,-2.34716084972359,mp-760844
CsMoP2HO9,3.2355,-2.347129324835063,mp-1203598
Rb2Mg2(MoO4)3,4.3146,-2.346951578421052,mp-1210378
SrV2CuO7,0.664899999999999,-2.346887507727273,mp-504871
Ca3MgFe2(CO3)6,3.8204,-2.346875972833333,mp-1227755
Ca3Co2(GeO4)3,2.112999999999999,-2.346806112875,mp-1326042
CrSn3(PO4)6,0.4657,-2.3466296253781502,mp-773109
KBaFe2(PO4)3,2.5436,-2.346550740325187,mp-725402
Li5Mn2V5O12,0.8406,-2.346502235105363,mp-774681
Li2MnPCO7,0.7791,-2.34628349160338,mp-756699
Cs2BiPWO8,3.9277,-2.346228930688709,mp-1201858
Li2V3FeO8,1.2138,-2.346177711726191,mp-773482
Mg2SnWO6,2.3789,-2.346025758499999,mp-1047188
V2Fe3Te(PO4)6,0.0,-2.345887121792328,mp-759460
Li6Ni3Sb(PO4)6,0.0,-2.345792297196429,mp-1176986
Li4V5Sn3O16,1.3602,-2.34573077172619,mp-868646
VP3(Pb2O7)2,2.222,-2.3457272475081172,mp-1198079
FeSb3(PO4)6,1.9333,-2.345672001995797,mp-774425
Ca2CrO5,0.0,-2.345478024374999,mp-1384096
K2LiMnPCO7,3.5002,-2.345460683877478,mp-759934
Ba2YMgFe3O8,0.0,-2.345460270333332,mp-2232505
MnV5O12,0.583,-2.345422407662835,mp-756126
Co4B6O13,3.0013,-2.345389873913042,mp-19343
Li4Ti3Fe5O16,0.0,-2.345372594404761,mp-771498
Ba3Fe2TeO9,1.701299999999999,-2.345328889111111,mp-1228445
Li4Mn3V5O16,0.8102,-2.34529487704023,mp-773187
RbNiW(OF)3,2.2401,-2.345185899166667,mp-694996
Li5FeO3F2,2.7258999999999993,-2.345058949242424,mp-755038
CrFe3Sn2(PO4)6,0.0,-2.345040502996033,mp-776666
NaMoPO6,2.7169,-2.345007053724685,mp-21798
K4Mg(WO4)3,4.6083,-2.344874842449999,mp-1194610
Rb5Gd(MoO4)4,3.0413,-2.344845711057693,mp-1219815
Mn3P6WO24,0.4858,-2.3447259974014782,mp-1176455
V2Fe3Ni(PO4)6,0.0,-2.344599839107141,mp-1101236
Li3FePCO7,4.2201,-2.344555154010988,mp-754987
Sr2Co(BrO)2,0.3275,-2.344424367857143,mp-23114
Li3V4CrO8,0.5800999999999991,-2.344421494375,mp-755134
Li2Ti2Fe3O10,0.2025,-2.3443336596078432,mp-762700
BaYMgCrCuO5,0.0,-2.344295948,mp-2242141
Li2TiFe2O5,1.4694,-2.3442553475,mp-756002
Li4Ni7(OF7)2,2.7776,-2.343976484938272,mp-859156
BaEuCrBiO6,0.0,-2.3439742825,mp-1522588
AlWO3,0.8598999999999991,-2.343923776999999,mp-1046804
CaCoGeO4,2.0128,-2.343906481785715,mp-1213999
NaCoPO4,3.2132,-2.34385401836031,mp-562796
Sb3P6WO24,0.191399999999999,-2.343831983466385,mp-775210
Na2Fe2Ni(PO4)3,0.342299999999999,-2.343650382834359,mp-1210544
Li9Fe4(BO3)8,0.0,-2.343616196518518,mp-1176790
MgV2CdO6,2.1193,-2.3435824255,mp-2217172
LiV3O8,1.793,-2.343562962777778,mp-27503
CoNi(PO3)4,3.2203,-2.343543510753968,mp-540947
Sr2NiClO3,0.0,-2.343474359285714,mp-1104703
BaYCuWO5,0.0,-2.343405843888888,mp-1042479
Na8ThU(MoO4)8,0.2554,-2.343341585220689,mp-1221149
PrMg(FeO3)2,0.0,-2.343268810166666,mp-1044536
Li2V3P4(HO4)4,2.3835,-2.343245681215107,mp-849336
MgV(WO4)2,2.0131,-2.343213707083334,mp-2218253
K3Fe3P4H2O17,2.2497,-2.343174429580049,mp-720729
K4Ca(WO4)3,2.4664,-2.34307488595,mp-1147522
SrLaFeBiO6,0.0,-2.3429883165,mp-1518769
MnSb3(PO4)6,0.0,-2.342949574582005,mp-774636
Li2Cr3WO8,2.1889,-2.342886569047618,mp-775271
V2Fe3Co(PO4)6,0.006999999999999,-2.342811084940475,mp-774570
Rb4V5CdClO15,2.3192,-2.342801133269231,mp-555007
Fe5(P3O11)2,0.0,-2.342702026298701,mp-31872
NaMn2FeAg(PO4)3,1.1417,-2.342671411141831,mp-1173558
NaV13O18,0.690499999999999,-2.342660879730603,mp-1101727
Sr3NiPbO6,0.8702000000000001,-2.342658155454545,mp-20659
KLiMnPCO7,1.0371,-2.342646039429768,mp-761124
Na6Mn2B4SO16,1.452,-2.342595209941537,mp-770500
Li4Ni3Sn(PO4)4,2.015,-2.342508054889456,mp-753100
CaFe(GeO3)2,1.6032000000000002,-2.342413028999999,mp-1043513
Y2Co2O7,0.0,-2.342372649545453,mp-1369302
Na3Mg2V3O12,0.021199999999999,-2.342342693331897,mp-1210549
Eu6Mo10O39,0.098199999999999,-2.342302936909091,mp-553893
Li4Nb2Fe3O10,2.0517,-2.342268483070175,mp-769502
LiTiNiO4,0.6869000000000001,-2.3421905866666672,mp-1290806
Ba2MgCoMoO6,1.6445,-2.342117921363636,mp-2222775
Li4Co5(P3O11)2,0.0,-2.341950736518661,mp-26551
Na2SrV2CoO8,1.382199999999999,-2.341844120375615,mp-1195067
MnFe3(PO4)4,0.2372,-2.341830317562603,mp-766435
MgV5CoO12,1.0976,-2.34177142763158,mp-2230399
Ti2Fe4O9,1.340999999999999,-2.341758083777779,mp-765583
CoF2,2.2721,-2.341685073333334,mp-555908
Sr2CrBiO6,0.272699999999999,-2.341659418,mp-1520897
Ba2Nd2Fe3CoO12,0.0,-2.34163542625,mp-1228604
Li4Ti3Ni3(SnO8)2,0.542899999999999,-2.341632898333333,mp-851029
RbVPO6,0.4138,-2.341563410099207,mp-1199688
Li2Co4OF8,2.2509,-2.341500032111112,mp-765686
CrBPbO4,2.324799999999999,-2.341418702380951,mp-21100
Li15Ni8(PO4)12,0.0,-2.341271979225473,mp-1178182
V2Cu(PO5)2,0.0,-2.341209362035713,mp-646720
K3CrPCO7,2.7248,-2.341193123184066,mp-774255
Ca3Mn4BiO12,0.0,-2.341176747586206,mp-1227724
RbMnVO4,2.7318,-2.34115779666872,mp-559311
K10Hf3Mo12PbO48,2.7925,-2.341124673547297,mp-1205471
V2ZnO4,1.3106,-2.341038290952379,mp-1048867
Li3Co2(PO4)3,1.1288,-2.341008921821429,mp-26087
NaVO2,0.0,-2.340843991594829,mp-19391
Ba2Mn3AlO8,0.0,-2.340782317413792,mp-1048103
NaV3O8,1.9032,-2.340779273448275,mp-752972
BaYMgMnCuO5,0.0,-2.340742475793102,mp-2240586
SrCo2BPO7,1.2083,-2.34072015219246,mp-1196974
KFe4(PO4)3,3.3722,-2.340715055558928,mp-1202220
Mn3VNi2(PO4)6,0.047399999999999,-2.340635856990284,mp-867954
MgCrGaO4,2.1907,-2.3405459803571422,mp-2239948
RbP4(WO4)8,0.0,-2.340523452357143,mp-1209356
Fe4OF6,2.7805,-2.340475902727272,mp-1638869
Li3NbV4O8,0.0,-2.340457157499999,mp-754577
Sr7CaFe7CoO20,0.0,-2.340377070902777,mp-1099946
Na2V6O15,0.0,-2.340349007728636,mp-778594
Li3V24O58,0.9363,-2.340348043294118,mp-1177621
Ba2CrBiO6,0.039299999999999,-2.340303777,mp-1519532
Li5V4O8,0.9003000000000001,-2.340222715686275,mp-771611
Cr3(PO4)4,0.0,-2.340181323850932,mp-695952
Cr2Te(PO4)3,0.0,-2.340170853366401,mp-775273
Sr6Ca2Fe7CoO20,0.2066,-2.340144133472222,mp-1076884
Li7FeNi3(PO4)6,0.028299999999999,-2.340099447833915,mp-1177019
ScCu(WO4)2,0.9948999999999992,-2.340068339583332,mp-1209155
YMo3O8,1.2820999999999991,-2.339882802500001,mp-25579
CeAg(WO4)2,0.081199999999999,-2.339730888472221,mp-1213933
Cr4Si2Br2O7,2.2567,-2.339683496166666,mp-557963
Li7Mn(O2F)2,2.6209,-2.339589091161741,mp-753376
BaGdCo2O5,0.0,-2.339440831666667,mp-1079551
MgMn2V2O7,1.338,-2.33940600632184,mp-2218163
K8Th(MoO4)6,3.9187,-2.339320074179486,mp-556508
BaNa2V2CuO8,0.0,-2.339314298411329,mp-17711
Tb2CoTe2(SO7)2,3.0646,-2.339246777222221,mp-1190385
Na2Ni3(P2O7)2,3.7688,-2.33924268223174,mp-761052
Eu2CoRuO6,0.0,-2.339215697000003,mp-1213340
Sr2Ca6Mn5(FeO8)3,0.0,-2.339210242741379,mp-1076268
Li6CrCoP2(CO7)2,1.3096,-2.339158504972527,mp-757130
Rb8Th(MoO4)6,4.004300000000001,-2.3391570328205122,mp-1195447
Li2NiSn(PO4)2,2.1298999999999992,-2.338963866496599,mp-770823
Ba4La6Mn(Co3O10)3,0.0,-2.33893109595862,mp-720103
Na4Ni5(P3O11)2,3.4051,-2.338817639010118,mp-554790
K2FeP2H3(O4F)2,2.9297,-2.338775765418651,mp-1224019
Li6Ni3Sn(PO4)6,0.0,-2.338771902821427,mp-1176956
TiCo3(PO4)4,0.251599999999999,-2.338708478412698,mp-863402
Sr7CaMn4(FeO6)4,0.0,-2.338670111293103,mp-1099713
Dy2CoTe2(SO7)2,3.0606,-2.338642240079363,mp-1190177
V3O7,1.1152,-2.338437482666667,mp-622640
BaNaSmMnO6,0.0,-2.338383016431035,mp-1517761
MnCr3Te2(PO4)6,0.0,-2.338288355253374,mp-759795
Ca12Mn8Si7(H5O16)3,1.0723,-2.3381999524688712,mp-746884
NaFe2(PO4)2,1.8351,-2.338171016205001,mp-1210447
LiMn2P2HO9,0.713499999999999,-2.338162012982075,mp-780733
Ho2CoTe2(SO7)2,3.0518,-2.338044712301586,mp-1190336
SrMn2Si2(H2O5)2,0.8719999999999991,-2.337973254255897,mp-1218288
BaNd4(CoO3)5,0.0096,-2.337931914600001,mp-1228268
Li4Nb3V2Co3O16,0.4543,-2.337931239761905,mp-775754
Li4V5SnO12,0.313,-2.337928226287879,mp-777449
BaYCoCuO5,0.387599999999999,-2.337840216666667,mp-1227472
LiFe2(SiO4)2,0.0188,-2.337529474743589,mp-850962
Ca3Fe3(SbO6)2,0.0583,-2.337483338999999,mp-1214233
Zn3Co2(Si2O7)2,0.427299999999999,-2.337351344565217,mp-1262752
KTbCr2O8,2.7243,-2.3373111836597222,mp-558923
RbEu(MoO4)2,0.0,-2.337285932708334,mp-1209361
Li4Mn2Nb3Fe3O16,0.2134,-2.337242462471264,mp-769626
Eu4Mg(Fe2O5)2,0.0,-2.337230523421054,mp-2230294
CeTl(MoO4)2,0.0,-2.337175675486111,mp-1213849
CsV2P3O14,0.1499,-2.337070627054186,mp-1203962
MnCr2O4,2.2026,-2.337050971133004,mp-28226
V2Ag(PO5)2,1.1175,-2.337035380396824,mp-1201392
TiV4CuO12,0.0,-2.337027355740742,mp-756111
Mn3Fe2Sb(PO4)6,0.0,-2.33701554504584,mp-1176475
MgMn2O4,0.0,-2.33700030583744,mp-27510
Ba6Na2Mn2Ru2O17,0.3858,-2.336969942538645,mp-542399
KBaV2CuClO7,0.2839,-2.33677071478846,mp-1223573
Cs2ZrMn(MoO4)4,2.3455,-2.3366873486350572,mp-1226199
MnCoB2O5,2.5223999999999993,-2.336669708473819,mp-1221788
La7SmCo5Cu3O20,0.0,-2.336524488611112,mp-1076880
Rb2NiAgF6,0.0,-2.3363778946666662,mp-1110604
LiCo(PO3)5,0.0149,-2.336286586888528,mp-705372
Na5La(MoO4)4,4.0837,-2.336211102380637,mp-19479
Cr4P2O9,2.045799999999999,-2.336168390119048,mp-772202
BaSrCrBiO6,0.142,-2.336163041,mp-1517386
Li4Ti3Mn4(CoO9)2,0.763999999999999,-2.336138354679274,mp-774525
Cr2Fe3Sb(PO4)6,0.0,-2.336004867440477,mp-776202
MgMn2P2(HO5)2,0.661299999999999,-2.336000358391046,mp-2224767
Li7Co(OF)3,2.4222,-2.335954758095237,mp-759770
K2V8O21,1.2496,-2.33588197966129,mp-581174
KFePO4F,2.4331,-2.335828393205357,mp-6834
Tl6V7P5O31,1.0497,-2.335828327820699,mp-1217668
Mn3ZnP3O13,0.146299999999999,-2.335781960636084,mp-1047803
MgV12(BO5)4,0.065599999999999,-2.335755062207208,mp-1233229
Li2Cr2P4H3O16,0.0,-2.335750929962523,mp-763238
Li3Mn2V5O12,0.4736,-2.335660383902819,mp-757617
Mg2Mn2O5,0.0,-2.335652435095786,mp-1099805
Na5Mn2P2(CO7)2,0.468799999999999,-2.335632672081773,mp-769536
Mn3VTe2(PO4)6,0.4851,-2.335621775693988,mp-782657
Na3CrPCO7,2.6073999999999993,-2.335569627213906,mp-769634
Cr3Sb(PO4)6,0.0,-2.3355610484663862,mp-773143
Na3V24O58,0.866799999999999,-2.335522098048681,mp-1176383
Li4Mn3Nb3(TeO8)2,0.4561,-2.335435650730706,mp-778817
RbNi2F6,0.0,-2.335407549722222,mp-556497
MgVO2,0.367799999999999,-2.335293408750001,mp-2210700
Li4Mn2FeNi3(PO4)6,0.0,-2.335244073426312,mp-1177440
Li7Fe3(SiO6)2,1.7107,-2.335240984722222,mp-753111
Fe19(SiO4)12,1.2866,-2.33513956607595,mp-773636
CaMn2V4CuO12,0.0,-2.335109078293103,mp-1227327
LiMn3(PO4)4,0.0,-2.335081732737411,mp-758525
Li3FeBPO7,2.3438,-2.33503094029304,mp-756319
CaMnAsO5,1.2868,-2.33475015005388,mp-1326396
NaLiMnPCO7,0.875699999999999,-2.334686539773878,mp-760044
Fe5(SiO4)3,1.9406,-2.334623950374999,mp-1198345
Li2MnV2O6,0.8466,-2.3345811776907,mp-753136
La7SmCo6(AgO12)2,0.0,-2.334129513833333,mp-1076275
VZnNiP2O9,1.9474,-2.33405102994898,mp-1333433
SrMgNiO3,2.208699999999999,-2.333942805000001,mp-2228091
V3Cu2Ni(PO4)6,0.0,-2.333801654662698,mp-775338
K4V5CdClO15,2.3346,-2.333785786307693,mp-560688
SrNdCoRuO6,0.0,-2.3337309525,mp-1218219
BaNdFeCoO6,0.0,-2.33368072575,mp-1227838
NaAl(MoO4)2,3.6927,-2.333600209281609,mp-561398
MnV2O6,1.8524,-2.333588346992338,mp-2490654
NaEu(MoO4)2,0.0,-2.33348427553161,mp-1210114
MnFe3Sn2(PO4)6,0.0733,-2.333307160716336,mp-776103
Ba2Fe2Se2OF2,1.8099999999999992,-2.333144739409721,mp-549058
CaFe6(OF2)4,1.813199999999999,-2.333125908421053,mp-1233207
Sr2ReNiO6,0.0,-2.333112200249999,mp-22353
K2CoSiO4,2.9618,-2.33303936915625,mp-505285
Zn3Si3(MoO6)2,1.2614,-2.33302256125,mp-1154656
La3Fe4AgO12,0.0,-2.332838851833334,mp-1223177
CrFe5(PO4)6,1.411899999999999,-2.33271458938492,mp-768375
Ca3Mn2(SbO6)2,0.5124000000000001,-2.332704721361161,mp-1374903
NaCa2V3(CuO6)2,0.0,-2.332695993818964,mp-694896
HoCr2O6,0.096599999999999,-2.332655953333333,mp-1041225
ZnFe3(P2O7)2,2.4743,-2.332636473344155,mp-1044037
Na5Tb(MoO4)4,3.9472,-2.332622777829355,mp-19469
Fe5(OF4)2,1.304099999999999,-2.332608438333333,mp-1178293
Li3V4FeO12,1.8668,-2.332506084,mp-1666404
LiMnVP2(HO5)2,1.0341,-2.332317458414711,mp-753729
Li4Mn3NbO8,0.967399999999999,-2.332289858882903,mp-1304742
Na5Er(MoO4)4,3.8939,-2.332285659688329,mp-555973
KVPO6,0.4026,-2.332272637849207,mp-1211800
LiFeBO3,3.1615,-2.332140617916666,mp-777049
Li6Mn2O5F2,0.8348999999999991,-2.332128190057472,mp-766030
Sr2FeOsO6,0.0,-2.332112187499999,mp-1095170
Li12CrGa11O24,1.4981,-2.332108602760417,mp-770660
Li4Ti3Mn2Co3O16,0.240499999999999,-2.332072686399835,mp-757980
Na2V2O5,0.830499999999999,-2.332028065306514,mp-1280642
Sr2CoTeO6,1.509999999999999,-2.332021244166666,mp-561642
Sr8Fe5Re5O28,0.0,-2.331793449619566,mp-1199146
NaCaDyMnO6,0.0,-2.3317672370977,mp-1516248
Li2Fe2Ni(PO4)3,1.4032,-2.331602303029761,mp-776880
NaCaInWO6,2.3994,-2.3313814788045972,mp-1518127
Li3Fe3(OF)4,1.7811,-2.331221922857143,mp-755182
Mn5Co(PO4)6,0.0,-2.331133552708675,mp-771641
Li4V3FeO8,1.5136999999999992,-2.331083505833334,mp-765701
SrCaFeSnO6,0.0,-2.3310583895,mp-1521717
LiVSnO4,1.4519,-2.331040234761905,mp-850189
BaSr6Fe3Bi3O16,0.0,-2.330999748275862,mp-1227908
ZnCoP2O7,2.9562,-2.33091543198052,mp-562428
NaFe7(PO4)6,0.4333,-2.330756765506222,mp-1205097
Ca2Mn2B4O13,0.0,-2.330654041191843,mp-1201306
Na5Lu(MoO4)4,3.8389,-2.330620524560125,mp-19464
Fe5Sn(PO4)6,1.255499999999999,-2.33060874063492,mp-772062
Li2V12O29,0.0,-2.330590394457363,mp-773021
Li4Nb2V3Co3O16,1.1374,-2.330542819761905,mp-1177325
Mn3NiSn2(PO4)6,0.011099999999999,-2.3304907133791732,mp-1176570
Sm2CoTe2(SO7)2,3.1058,-2.330413312777778,mp-1190452
Mg2V9O13,0.0,-2.330398654374999,mp-1045970
LuCrO5,0.4068,-2.330226983988095,mp-1211553
Mn3CoSn2(PO4)6,0.0,-2.330047030323618,mp-757703
Ba4Cr13O28,0.0,-2.330009399999999,mp-1228860
MgCoPO5,0.151899999999999,-2.329908266830357,mp-1046667
BaSrPrNiO6,0.0,-2.329900621166666,mp-1520375
K10Zr3Mn(MoO4)12,2.2342,-2.329893899465283,mp-532562
P2W5O19,0.0,-2.329886431318681,mp-28031
MgMn(GeO3)2,1.5632,-2.329806196793104,mp-1043454
K2Ce2Fe4O11,0.094199999999999,-2.3297655183947352,mp-1097037
Li4MnCr3O8,0.7180999999999991,-2.329717641954023,mp-756944
Ca2FeOsO6,0.0,-2.329608482,mp-1105304
Mn5Ni(PO4)6,0.177699999999999,-2.329528912708677,mp-772291
MgV3CrO10,0.7322000000000001,-2.329508856333333,mp-2241072
GdCoO3,0.0,-2.329470012999999,mp-20951
NaV4O10,0.8429000000000001,-2.329390984536398,mp-760274
Co2(PO3)5,0.001199999999999,-2.329145271964285,mp-1101575
Li4Mn3CuNi2(PO4)6,0.0295,-2.329038943874589,mp-775323
Mo(PO4)2,1.9817,-2.328986884025974,mp-25868
Ba2CoO4,0.3179,-2.328969620000002,mp-16887
Ba2AlCr3O7,0.0,-2.328945821153846,mp-1048330
LiMnP3(HO5)2,3.9035,-2.328880338540761,mp-780095
V3MoO6,1.0915,-2.328854931000001,mp-1216518
Sr3Cr2S2O5,0.0,-2.328772994999999,mp-1239342
Li4Ti2Mn3Sb3O16,0.0,-2.3287455347783252,mp-1177278
LiCo2P5O16,1.1541,-2.328649755272817,mp-26204
KSrNdMnO6,0.0,-2.328367045268103,mp-1519497
La4MnSe6O,0.0,-2.328155673499461,mp-16841
MgV4(WO6)2,0.9449,-2.328070694999999,mp-2230567
KBaBiWO6,2.4187,-2.328046917724999,mp-1520614
Fe2Cu(P2O7)2,0.0,-2.327981111598638,mp-510036
SrV2(AsO5)2,1.7431,-2.327886138666666,mp-19513
Li2CrPHO5,2.8564,-2.327800102755951,mp-779314
MgV2CoO6,1.974899999999999,-2.3277589315,mp-2217239
Fe3P3O11,1.5619,-2.327649195084032,mp-540050
Ta2CoO7,0.0,-2.327645814466666,mp-1366075
BaNaLaMnO6,0.0,-2.327614653431035,mp-1522946
LiV6O15,0.6382000000000001,-2.327483292992424,mp-776036
Li2Co3OF6,1.693299999999999,-2.32741372201389,mp-761080
Li2V3Cr2O12,0.0411,-2.32734132495614,mp-778232
Li4Nb3Fe3(SnO8)2,0.230799999999999,-2.32707545797619,mp-753666
Li11Co12(PO4)12,0.0,-2.327073123522661,mp-775324
Li4Mn2V3Cr3O16,0.437199999999999,-2.326990466756978,mp-773000
Li4Cr5O10,0.0,-2.326938171754387,mp-753172
ZnFeF6,0.8452000000000001,-2.326847351249995,mp-1396958
Na5Y(MoO4)4,3.9433,-2.326705938919099,mp-19497