formula,bg,formation_energy,mp-id
Li4MoP2O9,1.6838000000000002,-2.568719268913691,mp-504158
Li2TiCr3O8,0.833299999999999,-2.568698478571429,mp-1275461
CaMnGeO4,1.754799999999999,-2.568673011133004,mp-1214074
SrCaPrFeO6,0.6846000000000001,-2.568547439166666,mp-1517272
BaSrNiWO6,3.3716,-2.568518454999998,mp-1227411
Li3P2WO9,3.3804,-2.5683840177857142,mp-757576
Sr8MgMn6O20,1.091399999999999,-2.568370213788177,mp-2216785
Mg5Cr(Si2O9)2,0.0,-2.5683137110714283,mp-1211907
LiVFe(P2O7)2,1.7188,-2.568229136281179,mp-752490
Pr2Hf3(MoO4)9,3.6865,-2.568212959466667,mp-1180394
Sr2Y2W2O7,0.219899999999999,-2.568184745000001,mp-1047238
BaEuCrSnO6,0.0,-2.568088292999999,mp-1522613
Li7Mn4(PO4)6,0.180299999999999,-2.568036078607674,mp-760033
CaPr(WO3)2,1.4144,-2.568010211166667,mp-1044771
Fe(SiO3)2,0.723,-2.567999398611111,mp-1203128
Pr2FeCuO6,0.3847,-2.5678164218333333,mp-1520601
CaNiP2WO9,0.0,-2.567701621734695,mp-1043542
Li3Fe2P2(O4F)2,1.5577,-2.5675158452521,mp-1177665
SmCoO3,0.0,-2.567496454999943,mp-20016
LaNd(CoO3)2,1.0783,-2.567495990749999,mp-1222992
BaCaCrSbO6,1.2601,-2.567483896999999,mp-1516519
La2Mn3ZnO9,0.0,-2.5674586595862072,mp-1223644
Li2Cr2(PO4)3,0.0,-2.567449980294485,mp-850906
ZrFe(PO4)3,0.014899999999999,-2.567436242731092,mp-767499
Sr2Ca6TiMn7O24,0.0,-2.567394752221264,mp-1099702
V2Cr(PO4)3,0.0177,-2.567361101051587,mp-771696
BaLaMnRuO6,0.320999999999999,-2.567296566293104,mp-1272796
LiFe2OF5,2.2883,-2.567205798703703,mp-755843
Y4(Mo2O7)3,0.4241,-2.567148798709677,mp-1328802
Ba2AlV3O8,0.0,-2.567120058571429,mp-1048162
UVAgO6,1.6036,-2.566959402962963,mp-622619
KBaGd(MoO4)3,2.9552,-2.5668020442916673,mp-1223587
LiV(PO3)5,0.911899999999999,-2.5667192448430742,mp-504206
Li6V3Cu(PO4)6,0.0439,-2.566677349946428,mp-1176990
Mn2V3Fe(PO4)6,0.0,-2.566671258436645,mp-758220
SrFe3(PO4)3,0.0,-2.566499892575188,mp-555399
LiCrPO4,2.1346,-2.566351388282313,mp-25447
LiLa2Mn3O9,0.0,-2.5663463808084312,mp-1222383
Ca2MnFeSi4(HO3)5,1.7123,-2.56626644229218,mp-1227867
YMn(WO4)2,1.6614,-2.566241396077585,mp-1042160
Li4V3Ni(PO4)4,1.804,-2.5660971947108853,mp-1177236
Rb3NiF6,0.0,-2.56609698425,mp-1113628
Li4V3Co(PO4)4,0.616699999999999,-2.566085392210884,mp-765840
Ba3MgCr2O8,1.5036,-2.566000309642856,mp-2228457
Ca3V3(NiO6)2,0.0,-2.5659588368749993,mp-1214162
SrCaSmFeO6,0.2989,-2.5659331515,mp-1521866
Mg3Si3(NiO6)2,0.0819,-2.565908383125,mp-1154758
LiV3P5O19,1.068,-2.565810513983843,mp-758286
Li3Mo2(PO4)3,3.9347,-2.565755580696428,mp-27003
KLu(MoO4)2,3.9992,-2.56575306032639,mp-1211421
Li7Mo4P9O32,3.2862,-2.56570972702152,mp-27067
BaCaSmFeO6,0.1972,-2.5657069865,mp-1519954
Li2InFe(P2O7)2,2.7432,-2.5656491909956722,mp-1222830
Li4Ti4Mn4FeO18,0.0,-2.565558895754542,mp-774578
Li4Ti3Mn2Sn3O16,1.4402,-2.565531808006979,mp-755012
CaV4O10,0.141299999999999,-2.565518629333334,mp-1048685
Li6Mn9(PO4)8,3.1313,-2.565488777609494,mp-25923
Mn5(OF3)2,0.8852000000000001,-2.565475026896552,mp-861713
Sr2FeBrO3,1.1631,-2.565466526071428,mp-556507
Li6Cr3Sb(PO4)6,1.8971,-2.565437666196428,mp-758334
Ba2V2FeHO9,2.2895,-2.565422053083333,mp-1192499
BaPrFeSnO6,2.074799999999999,-2.565340856666667,mp-1520852
LiMnP2O7,1.2405,-2.565324869822735,mp-31924
CsNiF3,5.3618,-2.5652495650000002,mp-557772
Li2Cr2Si2O9,0.5571,-2.565221975611111,mp-758712
KMn4(PO4)3,3.0707,-2.565122665770135,mp-6130
Li4Cr3P4O15,2.6174,-2.5651198423809523,mp-772300
Sr4NdMn5O15,0.0,-2.565099059686207,mp-1218675
La2Mg(CoO3)2,1.392999999999999,-2.564896122272728,mp-2240365
La4Fe(NiO4)3,0.0,-2.564497439,mp-1223166
Nd6Mo10O39,3.1605,-2.564442258,mp-558785
Si4NiO10,0.0,-2.564409260999999,mp-1325790
Sr4PrMn5O15,0.0,-2.564402533852874,mp-1218591
K2SrV4O12,3.0368,-2.564325975236843,mp-19075
Li4Si3(NiO5)2,3.5721,-2.564268959385965,mp-765979
MgSc2Mn4O10,0.0,-2.5642028651014193,mp-2229016
La2NiIrO6,0.0,-2.564056868499999,mp-20964
Li2Cr3(P2O7)2,2.2261,-2.563970213706003,mp-540179
Li4V3SiO10,1.4734,-2.563966185740742,mp-761711
Li5Fe(P2O7)2,2.037,-2.56396394500992,mp-859124
BaCo2(PO4)2,2.284099999999999,-2.563938020714286,mp-1194023
LiCr2P3O10,2.5815,-2.563863766703869,mp-585354
Li2P4WO13,3.0138,-2.563859008761904,mp-757625
Ta6Zn3(FeO6)4,2.6311,-2.563849758216216,mp-1042882
VZnSiO5,1.8206,-2.5637578621875012,mp-1046716
NaCrF6,1.374,-2.563722792984914,mp-646192
BaDyFe2O5,0.0,-2.563711889074074,mp-24971
Ca2SbMoO6,0.0,-2.563670942499999,mp-1370909
Ba2NiWO6,3.3409,-2.563658962499999,mp-504723
Sr2FeO3,0.0,-2.563631265,mp-1071505
Li3Mn2(PO4)3,1.190899999999999,-2.563618484989533,mp-26039
K6Sr2Ni5(P2O7)5,3.8869,-2.563578255429802,mp-1225542
MgV3O7,2.4187,-2.563500954772728,mp-773444
MgMn6Nb4O18,0.0193,-2.563406282847802,mp-2216037
Cs2SrV4O12,2.6812,-2.563402076805808,mp-18160
Sr7PrFe4(MoO6)4,0.978499999999999,-2.563384927041666,mp-698609
Ti2CrFe3(PO4)6,0.561599999999999,-2.563326933458994,mp-1101304
Li2FeSiO4,3.123599999999999,-2.563266433645833,mp-18968
K2AgMoF6,2.5573,-2.563260360616666,mp-1110842
NaMoP2O7,3.2076,-2.56320403869682,mp-18435
MgV8Ge4(O2F)8,0.7393000000000001,-2.56319241581081,mp-1233657
Rb2Th3Mg(MoO4)8,3.5741,-2.56300337902174,mp-1195019
BaFe3(PO4)3,1.1157,-2.562997197838346,mp-1194498
VCr(PO4)2,0.0,-2.562993619107141,mp-752732
Li3Ni(BO2)5,4.106,-2.562836901622808,mp-771081
SrSmFeSnO6,2.1723,-2.5626165530000002,mp-1518521
Li6V(BO3)3,2.4935,-2.5626087260526322,mp-770782
Na2CrH2F8,1.589,-2.562508682712202,mp-973225
K2RbEuV2O8,0.0,-2.562486282642858,mp-1211828
ErVO2,0.0,-2.562434170625,mp-1212989
RbMn4(PO4)3,3.357599999999999,-2.562396832532634,mp-560306
PrMg(MoO3)2,1.2662,-2.562335871666666,mp-1044530
MgWO4,3.6767,-2.562331308333333,mp-18875
Ba2MnO3,1.4139,-2.562281357571839,mp-27443
Sr2MgFeO4,1.2241,-2.562022098125,mp-2241597
Sr2ZnMoO6,2.4361,-2.561958846,mp-1079971
Na3Mo(OF)3,3.9164,-2.561763619413791,mp-18753
Mn6P7O24,0.0,-2.561727967569896,mp-504168
Ba3MnSb2O9,1.5103,-2.561670194528736,mp-17341
Li4Mn3(PO4)4,0.175899999999999,-2.561609206136958,mp-758852
Li3Fe(PO4)2,2.4956,-2.561607267091837,mp-773399
Li4Fe7(OF7)2,3.0765,-2.5615404497530863,mp-757088
Li4Mn3Co(PO4)4,1.984799999999999,-2.5615356130606393,mp-758017
Ba2Nd2Fe4O11,0.0,-2.561513236842106,mp-704634
Ca3Mn2SbO9,0.1004,-2.561443479890804,mp-1227969
Rb2V(OF2)2,0.8264,-2.561394930555556,mp-1188203
Li13Mn6(PO4)8,0.0,-2.561290230645125,mp-1178075
MnV3Cr2(PO4)6,0.0,-2.561232900438561,mp-775773
Ba2Mg(WO4)2,1.046599999999999,-2.561109834999999,mp-2226861
Li3Mn2(PO3)7,4.1696,-2.561099347374608,mp-780898
V4(P2O7)3,1.7479,-2.560999755898618,mp-557332
Na2FeCuF7,0.0,-2.560896188887147,mp-560466
Li4Mn3Ni(PO4)4,2.7986,-2.56085531948921,mp-757417
Mg2CrWO6,1.596099999999999,-2.560821232999998,mp-1047222
Rb2SrV4O12,2.799699999999999,-2.560715802105264,mp-510558
Cs2V(OF2)2,0.6385000000000001,-2.560704706034483,mp-731832
K2Th3Mg(MoO4)8,3.6343,-2.560688155641304,mp-1194804
Li5NiP3O11,3.5265,-2.5605914737797613,mp-859097
V3ZnP3O13,1.5596,-2.5605598374464282,mp-1047813
Li6Fe(SiO4)2,3.890199999999999,-2.560547070294117,mp-753932
CsAlVP2(HO5)2,2.769,-2.560434888908287,mp-1195968
V3P4PbO17,1.7321,-2.560264219742856,mp-699581
Li4Mn3Sn(PO4)4,3.397999999999999,-2.560173989132066,mp-757170
ThV2SeO9,2.3117,-2.56012745671875,mp-1202658
Li2Cr3P5O18,0.8466,-2.559992825888604,mp-775439
V2(PO4)3,1.077,-2.559922940819328,mp-26104
K3EuV2O8,0.0,-2.559920303696429,mp-542181
Gd6Mo10O39,2.6567,-2.559868015272726,mp-1195215
MgCoF6,0.0078,-2.559765698125,mp-1443950
ScVO2,0.0,-2.559764956249999,mp-1209108
CsY(MoO4)2,3.9764,-2.559740210804598,mp-1213231
Li2V4P4O15,2.114,-2.559559392409525,mp-765082
SrLiNdCoO4,1.118799999999999,-2.559509868854167,mp-1236182
Sr4MgMn2Ga2O11,0.7239,-2.5594769230431043,mp-1234609
La3Mn4AgO12,0.0,-2.559307303919539,mp-1223238
SrEu2Fe2O7,0.0,-2.559275993958334,mp-603128
LiCr3(P3O10)2,1.7217,-2.558916537039682,mp-779048
Sr7SmFe4(MoO6)4,0.7020000000000001,-2.558893555375,mp-694963
SrCaNdFeO6,0.7082,-2.558859223749999,mp-1517289
MgVNiP2O9,1.989,-2.558810701020409,mp-1332813
Li3Fe4(Si3O10)2,0.0,-2.558796747272727,mp-779820
Li4Ti2Mn3V3O16,0.4748,-2.558588264421182,mp-770623
Ho(WO3)2,0.0,-2.558379693333333,mp-1041295
LiMn2O2F3,0.6613,-2.558346702399426,mp-753612
Sr4MgRe2NiO12,0.0,-2.558300259,mp-2230175
KTaW2O9,1.4278,-2.558135053814169,mp-1223468
K2NaTi2Fe7Si8H4O31,1.466999999999999,-2.558069298409927,mp-1212500
NaNiF3,0.0,-2.557812885499999,mp-561480
Li2Al2FeO6,0.9758,-2.557758117424242,mp-768173
Mg6CdFeO8,3.7338,-2.557719983749999,mp-1032129
CsMnCuF6,0.0,-2.557582425842911,mp-1228881
YCr(WO4)2,0.0,-2.557548416249999,mp-1042879
Li2VFe(PO4)2,2.559199999999999,-2.557504908639456,mp-861602
MnNbO4,0.0,-2.557473098821839,mp-754809
Cs3MnZn3(PO3)12,1.2174,-2.55743831204747,mp-1226446
TiMn3Cr2(PO4)6,0.0,-2.557328475971767,mp-776109
Sr4FeRuO8,0.0,-2.557285502142856,mp-1218399
TiMn5(PO4)6,0.4187,-2.5572843897457123,mp-2214853
Ca9LaMn10O30,0.0,-2.5571605270862072,mp-706340
CaMo2(PO5)2,0.6322000000000001,-2.557115886619047,mp-1044205
CaP2WO7,0.6886999999999991,-2.556919393116882,mp-1042052
Li2CrPO5,2.3541,-2.5568242776455032,mp-757132
VCr(P2O7)2,0.9698999999999992,-2.556703100178571,mp-767779
Na2CrAgF6,2.3255,-2.556679519442528,mp-1111094
Tm3Fe5O12,1.863,-2.556667702750001,mp-1208209
Li7Cr3Co(PO4)6,0.0,-2.556543429297328,mp-780115
V4O7F5,1.1344,-2.556511785,mp-752866
NaTl2MoF6,2.9199,-2.556509695804598,mp-555970
Li6Cr3P8O29,0.2506,-2.5564966254813672,mp-26976
Li6V9(PO4)8,1.7053,-2.5564866764935053,mp-758250
K4MgFe3(PO4)5,2.2881,-2.55635101158225,mp-532755
RbP2WO8,3.485,-2.556341935148808,mp-542871
K2MgV2O7,3.662,-2.556299013708334,mp-19459
Li5Mn4(P2O7)4,0.266999999999999,-2.55627449801186,mp-1177149
AlCr3O6,1.408699999999999,-2.55627214925,mp-1048826
Sr11LaFe6(MoO6)6,0.628699999999999,-2.556132028916667,mp-735565
Li2MnFe(PO4)2,3.6926,-2.556128230991672,mp-761246
Ca4Mn3CrO10,0.446899999999999,-2.5558888746551722,mp-1247629
Sr10Fe5Mo4WO30,1.227,-2.5558304058,mp-1218929
V3P3O13,0.0,-2.555759560733083,mp-1047927
KMo2(P2O7)2,1.1436,-2.5557522188486392,mp-1211413
Cs2Zr(WO4)3,2.9771,-2.555746231628352,mp-1226158
K2FeAgF6,2.1064,-2.555641053616666,mp-1112286
K3YbMgV2O8,0.283499999999999,-2.555555178749999,mp-2228614
Li2Mo(PO4)2,1.9417,-2.555503707380951,mp-583981
MnP4O11,4.5053,-2.555489972281402,mp-557042
KP2WO8,3.5193,-2.555455280544642,mp-19462
Sr3La(CoO4)2,0.052899999999999,-2.555347156785715,mp-1218340
Eu2FeSnO6,0.0,-2.55533808375,mp-1520924
Li2VSO4F3,2.254499999999999,-2.555259132651515,mp-769602
Li3P3WO11,3.9619,-2.5552004782738083,mp-758366
Na3MnP8O23,2.0079,-2.555084117620337,mp-1210983
Li3Ti2(FeO4)2,1.0143,-2.5550791817777783,mp-762702
BaNdFeSnO6,2.0832,-2.555025121249999,mp-1519858
Li2Cr2P2O9,2.4264,-2.554942054063492,mp-757371
Ca2BiWO6,1.8101,-2.554903193,mp-1375332
BaTbFe2O5,0.0,-2.554834197962963,mp-1227304
Na2VBPO7,1.4714,-2.554823427422345,mp-768554
Sr5Mn5O13,0.0,-2.554798135854574,mp-603888
Ca2FeReO6,0.0,-2.55467773025,mp-31763
MgMn6O5F7,0.462599999999999,-2.554629108557168,mp-1233971
Li2VO3F,2.5074,-2.554531085238095,mp-759788
Rb3V2ZnP4O17,1.2305,-2.55452893457672,mp-818385
KGdV4O12,0.5637000000000001,-2.554477307069444,mp-1521101
LaCrTeO6,2.758499999999999,-2.554332671851851,mp-1105175
MgV3O6,1.003299999999999,-2.554332589500001,mp-2217203
BaNdMnCoO5,0.0,-2.554266598936782,mp-1227840
RbLa(MoO4)2,3.8742,-2.554191829375001,mp-18473
V3(PO4)2,2.365,-2.554086533021978,mp-850528
Ta2MoO8,0.9442,-2.554079332696969,mp-1046352
Mn3Al(SiO4)3,0.6549,-2.554064812041742,mp-1154487
Ba2V3O8,0.0,-2.55405923,mp-1048112
NaCa2V3Zn2O12,3.0491,-2.554058480818965,mp-706235
Ba2V2FeO9,0.299999999999999,-2.554018688928572,mp-1214659
LiFe(PO3)3,3.948699999999999,-2.553984804090135,mp-26003
Ti6Fe8O21,1.107199999999999,-2.553961933428572,mp-769418
Ca2CeNiO6,1.45,-2.553801667999998,mp-1520291
CaVBiO5,3.248399999999999,-2.55377148390625,mp-560755
CsMg14WO16,0.0,-2.553760237176725,mp-1099220
Sr9NdFe5(MoO6)5,0.9106,-2.553732115549999,mp-698711
Ba2YMgMn3O8,0.0,-2.5536710705862062,mp-2228188
Li2Si3Ni2O9,3.7565,-2.553637194479167,mp-1265127
V3Sb(PO4)4,1.572999999999999,-2.553616035357142,mp-754862
ZnCo(SiO3)2,2.5473,-2.5535754722500013,mp-1264233
Li2MnP3O10,1.4220000000000002,-2.553530020220391,mp-782647
Sr4CaMn2Ga2O11,0.0,-2.5534694317931033,mp-1233777
La7SmCo6(AgO10)2,0.0,-2.553419606898149,mp-1076866
Sr2V2GaO7,0.0,-2.5531870997916672,mp-1046832
Ba5Fe3W2O15,0.180799999999999,-2.5531686968000002,mp-1228597
SrCa3Mn4O10,0.0,-2.553140141970784,mp-1076184
Lu3Fe5O12,1.6766,-2.5530607265,mp-559750
Ca2Mn(PO5)2,0.2117,-2.5529980098144502,mp-726714
Er3Fe5O12,1.6765999999999992,-2.552971443874999,mp-560103
V5Ni(PO4)6,0.3405,-2.552843547718254,mp-1101285
Li4Ni(PO4)2,3.531399999999999,-2.552803923674603,mp-26369
Rb3TbMgV2O8,1.5552,-2.552776401611111,mp-1233436
Li4Mn3V2Cr(PO4)6,0.5556000000000001,-2.55266584887459,mp-1177396
Mg6FeCuO8,0.068999999999999,-2.552644878125,mp-1032624
CsHo(MoO4)2,3.540899999999999,-2.552484682054598,mp-1213347
MgMoP2O7,2.970399999999999,-2.5524706090259732,mp-2217749
LiCr2(PO3)5,2.6793,-2.552454435067287,mp-25861
LuZnFeO4,1.1464,-2.55242496095238,mp-1222267
Na3CrBPO7,2.8333,-2.552333850995957,mp-756584
Cr4P7O24,0.0,-2.552291719214284,mp-585323
Li4Mn7(PO4)6,2.9773,-2.552251772602626,mp-849324
TmCrTeO6,2.6432,-2.5521943835185192,mp-1105987
Li2Fe3Si3O10,3.1425,-2.552164171203704,mp-757294
Ca4Mn3CrO11,0.0,-2.552159452041742,mp-1247615
V2CdP2O9,1.480799999999999,-2.552051214948979,mp-21665
LiLu4(CoO3)4,0.0,-2.551994226666666,mp-1235074
La3Co3O8,0.0,-2.551963255714286,mp-29203
Cr(PO3)2,2.8745,-2.551782443809525,mp-772172
K2P2WO9,4.0913,-2.551688799377551,mp-561311
Sr6Mn3FeO14,0.0,-2.551597285158045,mp-1218555
Ta2ZnCoO7,2.6833,-2.551528076219696,mp-1042628
LiV(PO4)2,1.960999999999999,-2.551501418968254,mp-32465
Mg6CrSiO8,2.219999999999999,-2.55128895375,mp-1030893
K2Mn2Zn4Si4O15,0.9687,-2.551193332050446,mp-554911
Sr3V3(BiO7)2,0.0,-2.551171435227272,mp-1208809
Rb2CrAuF6,1.6645999999999992,-2.5511064155,mp-1110593
CaEuV4O12,0.0,-2.551069454166667,mp-1518420
LiMn4(PO4)3,3.3657,-2.551067789199302,mp-26393
MnVP2(O4F)2,1.1557,-2.551049321229768,mp-777048
Mn3(PO4)2,2.9497,-2.550938795621447,mp-558631
KTm(MoO4)2,3.5609,-2.550837927062501,mp-1211532
MgNb4(CoO6)2,0.371,-2.550786811315789,mp-2230492
Sm2Ni2O5,0.6524000000000001,-2.550761035555556,mp-1099625
Li5Fe2P5O18,2.1125,-2.550750013829364,mp-1177139
CaHo(FeO3)2,0.0,-2.550745396499999,mp-1041214
Li4NbV3Cr2(PO4)6,0.298999999999999,-2.550650335779762,mp-1177323
Mg6FeNiO8,0.0,-2.550641637500001,mp-1099232
HoMg(WO3)2,2.007,-2.550618318499999,mp-1041135
RbEr(MoO4)2,3.6024000000000003,-2.5505888233333343,mp-1209587
SrNb2NiClO7,0.0,-2.550572276249999,mp-1232351
NaMg6CoO8,1.1644,-2.550505594461207,mp-1032301
Ba2Li3La3(MoO4)8,2.509,-2.5505042111458343,mp-1228731
Mn7(P2O7)4,0.0,-2.550460003433955,mp-778008
Li7Fe2P7O24,2.5575,-2.550459965520832,mp-757222
CsTm(MoO4)2,3.584699999999999,-2.550410857471266,mp-1213346
TiV2Fe3(PO4)6,0.0,-2.550406944199734,mp-769525
Li5CrFe4(P2O7)5,2.4695,-2.550389814965368,mp-1223507
Fe3B11HO20,0.3226,-2.550379704059522,mp-1203485
Rb2U(MoO5)2,2.3085,-2.550358435666665,mp-554226
Li3Fe2P5O16,3.938599999999999,-2.550328194546703,mp-31885
Mg2TaNiO6,0.0,-2.550171785233332,mp-1376265
Na2MgFe2(PO4)3,0.323399999999999,-2.55004281683436,mp-1210561
Li3MnSiBO7,1.7528,-2.549957767469054,mp-755970
SbMoOF9,3.7468,-2.5498830525000002,mp-555680
NbFe(PO4)2,0.0903,-2.549829359107143,mp-772031
BaMn2V2O8,2.2123,-2.54981148872016,mp-19507
RbHo(MoO4)2,3.6249,-2.5498061556250002,mp-1209629
LiFe(PO3)4,2.937999999999999,-2.549689882050263,mp-25977
Li7Mn4P9O32,0.8469000000000001,-2.549674098016216,mp-757726
LiFePO4F,2.2424,-2.549630086622024,mp-25407
SrCaMn2O5,0.0,-2.54931461065134,mp-1076496
NpV4O12,0.133699999999999,-2.5492416533088242,mp-557073
Sr4CaMn2(SO3)2,0.0,-2.548967165724137,mp-1048672
Li2U(MoO5)2,2.4115,-2.54882867711111,mp-560793
KEr(MoO4)2,3.5667,-2.5487994864375,mp-1211601
Li4MnP2O9,1.6142,-2.548658140346879,mp-757635
Mg2MnWO6,2.511399999999999,-2.548564660793102,mp-1275545
Li2Fe4Si4O13,2.9365,-2.548558446159421,mp-758011
Ho3Fe5O12,1.896599999999999,-2.548476713374999,mp-781609
ZnSi2NiO6,3.9418,-2.548374156499997,mp-1258028
Na7Cr3Co(PO4)6,2.0518,-2.548268339573471,mp-532715
ErCrTeO6,2.6495,-2.548190376296296,mp-1105511
Ba2VBiO6,1.1225,-2.548162820000001,mp-1522771
K2U(MoO5)2,2.3125,-2.548123813133332,mp-558075
NaNdFeWO6,2.4171,-2.5480660843879313,mp-1189143
Ca2FeMoO6,1.1193,-2.548062932999999,mp-18783
NaFe3Si3O10,1.371699999999999,-2.547949637287018,mp-559532
Mn3F10,0.0374,-2.5479424718302393,mp-753434
MnZnF6,2.3517,-2.547889649741379,mp-1386276
MgNbCrO4,0.0,-2.547754180714285,mp-2225349
MoF3,3.3753,-2.5476647137499993,mp-557539
MgAl8Fe3Si8(H2O5)8,3.5984,-2.547625531513158,mp-1223700
V2Fe(PO4)3,0.0,-2.547618151329366,mp-1101225
NaCaFe3(PO4)4,2.2436,-2.547532553898029,mp-850003
TiZnNiP2O9,3.051599999999999,-2.547477593044218,mp-1043054
Li8Mn7Nb(PO4)12,0.183799999999999,-2.547402085630239,mp-780717
Li4Co3OF8,1.9874,-2.547365148645833,mp-759351
Dy3Fe5O12,1.903299999999999,-2.547214713249999,mp-21974
KTb(MoO4)2,3.6116,-2.5471726980347222,mp-1211409
Li3MnBPO7,1.2583,-2.54715406167235,mp-757046
Na7Cr4(PO4)6,0.507899999999999,-2.547152274695421,mp-761050
KDy(MoO4)2,3.5956,-2.5471512278263893,mp-1211686
KHo(MoO4)2,3.5792,-2.547131448729166,mp-1211556
Li4Mn3NbCr2(PO4)6,0.4399,-2.547106982374589,mp-776566
Li2Fe(PO3)5,1.6862,-2.547096333690476,mp-705356
Na2Li2V3P2O13,1.7887,-2.5470812643732272,mp-849320
BaYFe2O5,0.465999999999999,-2.5470797516666672,mp-542205
K2BaNa2Ti4Si8(WO7)4,0.103899999999999,-2.54703298878759,mp-1212630
SrCrO2,0.0,-2.54689945125,mp-1218326
Na5Mg4Fe8(PO4)12,0.031,-2.54688850276118,mp-1173809
CsDy(MoO4)2,3.602,-2.546839806776821,mp-572231
CaP4WO12,2.0453,-2.546837436587301,mp-1045855
Li8TiMn7(PO4)12,0.166099999999999,-2.546825108700415,mp-776113
KNaMo(OF2)2,2.229899999999999,-2.546651936514367,mp-975958
RbDy(MoO4)2,3.6073,-2.546648039722222,mp-1209371
Ba2Mn2Se2OF2,0.0,-2.546645978394396,mp-1080029
SrFe(PO4)2,0.0,-2.546597164940475,mp-1046490
Cr7(PO4)6,0.7454000000000001,-2.5465655461583,mp-16894
Ca4Mn3SbO12,0.2408,-2.546517845189655,mp-1227588
Li7Fe4(P2O7)4,1.564899999999999,-2.546403405861195,mp-1177031
Li2VBO4,1.9479,-2.546309413854167,mp-768177
Li2CrP4O13,0.1795,-2.546215657011905,mp-31739
Ca8Mn6Cr2O21,0.0,-2.546144932367194,mp-1247652
Ba4Mn3O10,0.0,-2.546114705811359,mp-18791
V2Sn(PO4)3,0.0,-2.5461022829960323,mp-850780
Li4Ti3(FeO4)3,0.0604,-2.545936431969697,mp-753168
K6U2Mo4O21,2.1736,-2.545835995409104,mp-558070
Ca2FeSbO6,1.4857,-2.54563916075,mp-20431
MgMn2(P2O7)2,0.5293,-2.545588668068262,mp-1234569
MnAs2F12,2.7681,-2.545398635528736,mp-29108
Li4Ti4Mn4NiO18,0.9726999999999992,-2.545353250915833,mp-767054
BaSr3Mn3O10,1.3553,-2.545334164929006,mp-1227783
Sr2TbCoO6,0.0,-2.545272291666667,mp-1517177
Li2Ti2Mn3O10,1.1323,-2.545212362183907,mp-1273561
LiV3P3O11,2.5415,-2.545199288875662,mp-757627
Mn2F7,0.6527000000000001,-2.54508159454023,mp-760309
Li2V5(PO4)4,2.3911,-2.54508059686067,mp-758158
SrCaCr2O6,0.0,-2.545034353000001,mp-1218402
CsTb(MoO4)2,3.6397,-2.545005700943488,mp-1213293
Pa2Cr2O5,0.0,-2.544972423888888,mp-1186387
Li7Cr7(P4O17)2,2.2607,-2.544918318044217,mp-772520
Ca12ScCo7O24,0.7907000000000001,-2.544778030795454,mp-1227689
V(PO3)4,1.6464,-2.544708876827731,mp-26956
CaMo3P3O13,1.1772,-2.544687625696428,mp-1047841
LiMn3P3O11,3.2093,-2.544665063391944,mp-780780
Li3P2WO8,4.103199999999999,-2.544664939234692,mp-758018
Gd4Mo7O27,2.8488,-2.54450302388158,mp-704325
Li4Mn5V(PO4)6,0.244999999999999,-2.544476397771142,mp-775798
Li3MgV8O16,0.2817,-2.5443845151785722,mp-771733
HoCrTeO6,2.6338,-2.544345439074073,mp-1105351
Li2Cr2P2O7F2,2.219799999999999,-2.544288184730157,mp-758993
SrEuFeWO6,0.0,-2.5442833395,mp-1517349
MnAl2SiO5,0.344599999999999,-2.5442214661590032,mp-1213128
Li4Ti4V(Fe2O9)2,1.651399999999999,-2.544218663763441,mp-767675
Li6Mn3P6WO24,0.720599999999999,-2.5441042790412562,mp-769612
Li4Ni(PO3)6,4.1569,-2.544080625558293,mp-859119
Sr2CrSnO6,0.0,-2.5439687675,mp-1521920
PWO4F,2.964,-2.543892059948979,mp-25432
Sr3Sm(CoO4)2,0.0,-2.543865024642857,mp-1218459
V4Cd3(PO4)6,2.0024,-2.54380585480695,mp-1216514