formula,bg,formation_energy,mp-id
La7SmMn4(FeO5)4,0.9926,-2.831068928172892,mp-1076172
MgSi2NiO6,3.937499999999999,-2.830690812124999,mp-1041887
Li5VP2(O4F)2,2.4678,-2.830407496997355,mp-554656
Li2VSi2O7,1.733,-2.830347914305556,mp-765964
Li4MnOF4,2.608799999999999,-2.830328417376437,mp-760393
BaVO3,0.0,-2.830250003000001,mp-19150
Sr2Y2Fe2O7,1.017699999999999,-2.830103649999999,mp-1047054
La2GaCoO6,1.7713,-2.83003903675,mp-1223269
Ba7Ca2Mn3V2O20,2.1808,-2.829841324523327,mp-560912
BaNdDyFeO6,0.0,-2.829796641916667,mp-1519745
Na2Si4NiO10,1.3731,-2.8297519092799193,mp-505307
Sr3La5Mn8O24,0.0,-2.829717449461208,mp-691121
Sr3La7Mn8(FeO15)2,0.0,-2.829617415168966,mp-705096
La2MgTiCoO6,0.0,-2.829559668030304,mp-2223087
CsMgNiF6,0.386399999999999,-2.829395015517241,mp-1225959
Ba2V3P6HO22,0.375999999999999,-2.829187570856091,mp-728780
Ta2Mn(P2O7)3,2.0819,-2.829180105681827,mp-1208509
KCrNiF6,3.1558,-2.829034705805555,mp-1223481
Nb3Cr(PO4)6,2.6167,-2.8287109634663863,mp-774426
Ti3Mn2Fe(PO4)6,0.625999999999999,-2.828710141214422,mp-774935
Ta2Mn2O7,2.155799999999999,-2.828615295502611,mp-755851
KCeEuWO6,0.0,-2.828538497225,mp-1521850
La2MnNiO6,0.0,-2.828505349293104,mp-1188812
Na2GaNiF7,4.1,-2.8283822045689653,mp-558993
SrSm3(NiO4)2,0.5934,-2.8281931525000013,mp-1218013
Li8ScFe7(SiO3)16,2.7502,-2.828154589645835,mp-775203
Ba2SmCrO6,0.0,-2.828080864499999,mp-1523051
Ba2LaCrO6,0.478299999999999,-2.82807571125,mp-1522286
Sr3La3Mn3RuO14,0.0,-2.827931965783045,mp-1218547
Li2MnSi4O11,0.063699999999999,-2.827900195810982,mp-757188
Rb2FeF4,2.8943,-2.827688656428572,mp-1206640
Li9V5(Si5O16)2,1.764199999999999,-2.827539880357142,mp-863437
Sr2YAlFe2O7,1.377899999999999,-2.827538141538461,mp-1047019
Mg2Ta2WO8,0.645699999999999,-2.82741869728205,mp-1046203
MgTi4(FeO5)2,0.0,-2.827402168725491,mp-2228999
KLiMn2(SiO3)4,2.041,-2.827332989822496,mp-1189006
Mg14CrNiO16,0.5657000000000001,-2.8272044093749993,mp-1034790
BaLaFeO4,0.6856999999999991,-2.827091046428571,mp-1227839
Sm2MgCr2O8,1.701699999999999,-2.827056768076923,mp-2215872
NaCaTbWO6,2.856599999999999,-2.8265727238045972,mp-1520168
CaLaMnMoO6,1.3872,-2.8261777087931033,mp-684705
Rb5Mo3O3F14,1.1405,-2.826146731766666,mp-1222256
LiSm4(Mo2O7)2,1.536499999999999,-2.826089506231884,mp-1235612
NaLi2VF6,0.0,-2.825933653804598,mp-1111338
La5Sm3Cr7FeO20,0.062999999999999,-2.825847560347224,mp-1100047
HfCoO3,2.5156,-2.825757570999999,mp-753534
Mg30FeCO32,2.485299999999999,-2.825755940078125,mp-1037498
Li11Fe6F29,3.2097,-2.825667445036231,mp-776099
CaNd2Mn3O9,0.0,-2.825481245252874,mp-1227543
Li4Ti3V3O12,0.0,-2.8253615160606063,mp-753117
Mg14MnCuO16,0.0,-2.825148495560345,mp-1036333
LiFeF4,3.2942,-2.825005161388888,mp-776264
Sr2YV2O7,0.0,-2.82494395375,mp-1047261
NaCaYWO6,2.8551,-2.8248962561379303,mp-1521011
SrCa3TiMn3O10,0.0,-2.824826143104246,mp-1076776
RbFeF4,2.4958,-2.824803344583334,mp-555667
Eu3WO6,0.152599999999999,-2.824687303500002,mp-754296
YV2O4,0.0,-2.824650504285714,mp-1411320
NaMg14WO16,4.263999999999999,-2.824054357230603,mp-1034599
Li2Fe2Si5O13,3.5372,-2.824043972803032,mp-757523
Sr2GdCrO6,0.0,-2.82390501,mp-1518869
Mg14NbVO16,0.0167,-2.8237596175,mp-1034421
SrFeP2O7,4.2064,-2.823731287889609,mp-17881
Mg3V4(PO4)6,1.9549,-2.823725441158301,mp-1232134
La3Ni2O7,0.0,-2.823711413333334,mp-18926
La18Ni12O41,0.0,-2.823562657112677,mp-867986
KPrEuWO6,0.141099999999999,-2.823447297141667,mp-1516219
V4O3F5,0.5565,-2.8233988566666692,mp-754530
Ba3V4O13,2.9577,-2.8231374335,mp-505392
VZnF6,0.0,-2.823032161874999,mp-1392784
CsGaNiF6,4.4905,-2.82301691468391,mp-1225948
Y2MnNiO6,0.0,-2.822945541793103,mp-19192
K2ZrFe(PO4)3,2.6176,-2.822916329654135,mp-1211889
CrF2,0.006399999999999,-2.822883553333335,mp-554340
Na3V2P2O8F3,2.272199999999999,-2.82287434435687,mp-694937
MgVPO5,1.9802,-2.8228045927678562,mp-1273519
Sr3MgV2O7,0.0,-2.822564494615384,mp-2218863
Y2Fe3(SiO4)3,3.845799999999999,-2.8224947067499992,mp-1324167
NbVO4,1.0711,-2.822340059583334,mp-772403
YFeO3,0.0,-2.821769901999999,mp-1275986
Li2V3(OF)4,1.2333,-2.821674548974359,mp-752838
Sr2Nd2MnCuO8,0.0,-2.821500970209359,mp-1173257
CsFeF4,0.0,-2.821379681609196,mp-554225
Na2SrVP2O9,2.2868,-2.821255004802955,mp-555920
Li2ZrFe(PO4)3,2.4566,-2.8212436348997483,mp-766132
Ca6Nd6ScMn11O36,0.0,-2.8211872072873563,mp-698723
Eu2V2O5,0.003999999999999,-2.8211534861111143,mp-1099750
SrLaMnMoO6,0.7235,-2.821086028293104,mp-690552
Cs2ZrMn(PO4)3,0.0,-2.82092223098263,mp-1213813
SmCrGeO5,2.669699999999999,-2.8208864578125,mp-1208812
KLaMgWO6,2.781499999999999,-2.820778298725,mp-1523297
BaLa2Mn3O9,0.0,-2.820627285586207,mp-690460
Ba2V3O9,1.5728,-2.8205224225,mp-32531
MgTa2CoO7,2.7709,-2.820282088833333,mp-1042599
Ca2Mn2(SiO4)3,1.0448,-2.820258423992741,mp-1250185
LiLa4Ga2(FeO6)2,1.8708,-2.820107825634921,mp-1235609
Sr2La6Mn7CuO24,0.0,-2.81997787863793,mp-738741
Mg30NiCO32,2.423999999999999,-2.819917393046874,mp-1036823
Na2CaVP2O9,2.5752,-2.819876922636288,mp-561006
Si4WO10,0.025399999999999,-2.819812998,mp-1043760
YCrGeO5,2.863,-2.819775249999999,mp-1207733
Eu3Sc2(FeO4)3,0.0,-2.819743994000001,mp-1213528
Ba11W4O23,1.3708999999999991,-2.8197182021052623,mp-1247867
Li3Ti4MnO12,0.0,-2.81958487956322,mp-756540
Li3V3O3F5,0.8607,-2.819509238571429,mp-759089
Mg2VP3O11,2.2748,-2.819380907731091,mp-1232300
V7(O2F3)3,0.155199999999999,-2.8192983138636363,mp-760107
Sr3LaMn2(WO6)2,1.865,-2.819290158543103,mp-1218657
Eu2WO6,0.0,-2.8191394561111123,mp-1213585
Sr2YMn2O7,0.0,-2.8190939888218383,mp-1218597
CaV3P3O13,1.5244,-2.819004293696429,mp-1047854
Sr4La4Cr(NiO5)3,0.0,-2.818914750185184,mp-1173211
SrV(PO4)2,1.7975999999999992,-2.8187426101488082,mp-1046421
NaPrEuWO6,0.090499999999999,-2.8186476995545973,mp-1516834
MgTiMn(PO4)3,0.0,-2.818535861955164,mp-1044357
BaV2(PO5)2,2.2939,-2.818132340952381,mp-19512
Ca4TiMn3O10,0.0181,-2.8180294665070242,mp-1247583
BaCaNbWO6,0.7630999999999991,-2.81802165,mp-1519910
CsMg30WO32,2.6942,-2.817898137807112,mp-1098527
V4Si4O13,0.658799999999999,-2.817839332142857,mp-766894
SrLaMnSbO6,2.0708,-2.8178345975431043,mp-727395
Al15Fe9O32,2.1445,-2.817826997857143,mp-765944
ZrV2O7,2.5909,-2.817252799750002,mp-554326
Mg14CrCdO16,2.2745,-2.8172361803125,mp-1033886
Li2Ti2V3O10,0.605899999999999,-2.817225459019607,mp-759328
Mg14MnNbO16,0.0,-2.817160601497844,mp-1036050
KCaNdWO6,2.8502,-2.817152151224999,mp-1520256
Si4MoO10,0.019999999999999,-2.817150538,mp-1043698
SrMn2(PO4)2,3.4677,-2.8170864182805992,mp-541990
Sm2Mn2O7,0.975,-2.8170814059874583,mp-756215
Ba2TiFeO6,0.0,-2.816929195000001,mp-1228536
Eu3VGeO9,0.0,-2.8168901617857163,mp-1213659
Mg6TiVO8,0.1385,-2.816768801458333,mp-1031659
SrNd2Mn3O9,0.0,-2.816640488086208,mp-1218259
Li4Ti4V5O18,0.9929999999999992,-2.816638275376345,mp-769487
Ca2CrO4,1.893599999999999,-2.816624737321428,mp-780397
La3Sm(FeO3)4,1.3941,-2.8164554275,mp-1223137
Li6Ti3V(PO4)6,0.0262,-2.816410743946428,mp-758994
SrCaNbWO6,0.6203000000000001,-2.816409505,mp-1519815
Sr2Ca2TiMn3O10,0.0,-2.8163849833125782,mp-1076680
Sr2V3O9,1.7738,-2.816274826071431,mp-1218556
Sm2Cr2O5,0.0,-2.816238732777779,mp-1099951
Ca8V7ZnBiO28,3.4595,-2.816154769444445,mp-731583
Ti3V2Ni(PO4)6,0.977399999999999,-2.816080271607141,mp-780859
Ba2La4Mn5SnO18,0.0,-2.815877459488507,mp-743694
SrNd3(NiO4)2,0.5918,-2.815842635178571,mp-1218171
GdCrGeO5,2.412499999999999,-2.815770610937499,mp-1212488
NaLi3Ti2Cr2(PO4)6,2.8178,-2.815534561471134,mp-776043
SrV2(PO5)2,1.8276,-2.815497741619047,mp-559580
CaCr2P2O9,2.1309,-2.8154714065561213,mp-1040889
Li3Si6NiO15,1.7001,-2.8154644731,mp-757292
La12Ga23WO56,0.0,-2.815351017309782,mp-1223721
Li2Mn4OF8,2.2461,-2.815262348559386,mp-761138
Sr2La2FeCoO8,0.0,-2.815128880714285,mp-1218706
Li5CoOF5,0.2882,-2.815041922222222,mp-752884
Mg14FeNiO16,3.208599999999999,-2.814876193750001,mp-1035790
La7SmCr2(FeO4)6,0.8693000000000001,-2.814743553000001,mp-1076431
MgTiMo(PO4)3,1.0933,-2.814709046792327,mp-1044288
Y4CdMo3O16,2.776899999999999,-2.8145270453125,mp-1216342
Ba4YCu(WO6)2,0.3197,-2.8144427359999993,mp-1228051
Y3Ga3(FeO6)2,2.6298,-2.8144064615,mp-1208208
BaTbNdFeO6,0.0,-2.814224132416666,mp-1517069
Li3V2P2O8F3,2.3625,-2.813991560932539,mp-758819
Li4Ti3Nb2Cr3O16,0.0,-2.813976221547619,mp-774924
NaSrCeWO6,0.0,-2.8139108351379303,mp-1520917
Ca3La5Mn7FeO24,0.0,-2.813885202762931,mp-694928
La7SmMn5(FeO8)3,0.0,-2.8138835717413793,mp-1099887
Eu2NbWO6,0.0,-2.8138781780000013,mp-1519174
Ca2VWO6,0.0,-2.8137880744999992,mp-1296431
Ca2YWO5,0.8416,-2.813775959444445,mp-1367535
La2MgNiO6,1.364099999999999,-2.8133004534999992,mp-1391671
Ba6ZnCo5(SiO4)6,3.061,-2.813128769047619,mp-1120751
BaSmEuMnO6,0.0,-2.813087575793105,mp-1517753
BaMo(PO4)2,1.704199999999999,-2.813069997440477,mp-1542939
KCe2FeO5,0.036499999999999,-2.81298377386111,mp-1097060
KLaHfFeO6,0.0,-2.812907237225,mp-1518711
GdY3(FeO3)4,0.3826,-2.812855175999999,mp-1224573
KCaSmWO6,2.8322000000000003,-2.8128066332249992,mp-1521200
Li4Ti3MnO8,0.0,-2.8125132063290232,mp-754722
CaV2(PO4)3,0.8128000000000001,-2.812345681051588,mp-1214166
Ba4La8Mn11SnO36,0.0,-2.812316669037356,mp-743838
Na3Ca2Fe5(SiO3)10,1.0476,-2.812227676582758,mp-695491
NaMg14CoO16,1.3648,-2.812213131918104,mp-1035088
Nd2MgCr2O8,1.7066,-2.8121562715384623,mp-2241016
Ti4Ni(PO5)4,0.1307,-2.8117874347208542,mp-766392
Ba2TaCoO6,1.532799999999999,-2.811752820733334,mp-1228308
Ba6Na2Ta2Mn2O17,0.0001,-2.811562852182322,mp-1214895
Be3Tl2Co2F12,0.0,-2.8113720720614053,mp-1214371
GdY(FeO3)2,1.583099999999999,-2.811269423,mp-1224655
KCe2FeO6,0.8443,-2.811204395225,mp-1097054
La3Si(Mo2O7)2,1.337099999999999,-2.811151238863636,mp-1224288
BaZnNiF7,1.4896,-2.8110082307499993,mp-1047950
Li2Mn2OF6,1.6309,-2.810989276593521,mp-753723
Sr3La7Mn7(FeO10)3,0.0,-2.8108341866103452,mp-706341
Mg2TiWO6,1.6687,-2.810826894333334,mp-1328974
Ti3VSn2(PO4)6,0.3546,-2.810669209940476,mp-766224
Mg14VSiO16,3.151399999999999,-2.8106691490625,mp-1034449
Na2LuPWO8,4.7657,-2.810566961466779,mp-1197089
Gd2MnCoO6,0.9184,-2.810533952293104,mp-1224833
Li3Nb4VO12,0.0,-2.810518531499999,mp-753504
K2SmMoPO8,4.0009,-2.81048395128022,mp-1199136
CaV2(PO5)2,1.8731,-2.810424025952381,mp-556243
Ca2Nb2WO8,0.0,-2.8103893246153833,mp-1044156
Na2TmPWO8,4.8021,-2.81037581595396,mp-1198653
SrCa7Ti2Mn6O20,0.0,-2.810249618451468,mp-1247576
Mn2Si4O11,0.0,-2.810021464462474,mp-768088
NaLi5Ti3Cr3(PO4)9,2.191,-2.809960601663713,mp-720533
BaSrNdCrO6,0.631599999999999,-2.8098591322499993,mp-1518926
YMg6VO8,0.121999999999999,-2.809845561875,mp-1032755
Ba4MgMn4(P2O7)4,1.3302,-2.809695490308155,mp-1234981
LiMn(SiO3)2,0.9289,-2.8096728130014372,mp-757866
Ba3NbFe3(SiO7)2,2.3971,-2.809664361739129,mp-31758
NaSmEuWO6,0.422299999999999,-2.809645793137932,mp-1523299
LiTi2Ni(PO5)2,0.0,-2.8095658818303573,mp-771939
Li3Fe2F9,3.9431,-2.809557096428572,mp-774866
ZnCrF5,3.0837,-2.809395448571428,mp-1393890
WF6,5.3735,-2.809382193571428,mp-555003
Nd2FeSbO7,1.3969,-2.80928720272727,mp-1220431
LiAlVO4,1.7902,-2.809097857976191,mp-753631
Ti3Mn2Ni(PO4)6,2.0597,-2.809053885658867,mp-775759
Mg2TaMoO6,1.8878,-2.808925772233333,mp-1373336
Li5NiOF5,2.0926,-2.8088594205555553,mp-753377
VSiO3,0.0,-2.8087977035000002,mp-754608
Sr3CaTiMn3O10,0.0005,-2.808757070395913,mp-1076505
Li3Ti2VO6,0.0,-2.808745608055556,mp-867959
CsMoF7,3.4794,-2.808713502222221,mp-28936
Sr2NdMn2O7,0.0,-2.808699194030172,mp-1218717
Sr3Ti2Mn2BiO12,0.0,-2.808675507626437,mp-1218519
Ba2YCoO5,1.5617,-2.808661915555556,mp-1205054
Li4Ti3Nb3Cr2O16,0.0,-2.808585574761905,mp-763490
LiTi2V3O10,1.4546,-2.8085264890625012,mp-754024
K2TlVF6,0.0,-2.808479016783334,mp-1111367
Li2TiVO5,2.3223000000000003,-2.808320263333333,mp-755429
La5Sm3Cr6(FeO10)2,0.2785,-2.808210991527777,mp-1076203
Na2MgV2(OF)4,1.388999999999999,-2.80803980290451,mp-2218926
KMg2AlFeSi3(HO6)2,3.0954,-2.807952449875,mp-1223617
Mg14CoNiO16,1.8655,-2.8077430571875,mp-1035281
BaSrSmCrO6,0.0,-2.8074998504999993,mp-1521852
Sm2MnNiO6,0.0,-2.807459271793104,mp-555010
Mg30CoCO32,0.877799999999999,-2.807297051328125,mp-1036880
Li2FeSi3O8,3.311,-2.807214960833332,mp-753540
MgTiFe(PO4)3,2.379099999999999,-2.807181154292327,mp-1044282
Ca6Mn3Al2O15,0.0,-2.80713734668435,mp-1255429
NaMoF6,0.0,-2.80708427125,mp-504778
MgV4(OF)6,1.1633,-2.806785274411765,mp-2229114
Na2ErPWO8,4.7911,-2.806768939415498,mp-1201517
Ca4Mn2O7,0.0,-2.806712146604773,mp-18952
La7SmMn4(FeO6)4,0.0,-2.806704608043105,mp-1076671
SrLaCrSnO6,2.027599999999999,-2.806364175999999,mp-1521441
LaSm3(FeO3)4,1.5064000000000002,-2.806323776499999,mp-1222895
La5Mn6O18,0.0,-2.806204544571938,mp-530892
Gd3Y(FeO3)4,1.5032,-2.8059817794999993,mp-1225082
Na3Sc2V3O12,3.2558,-2.805971591456896,mp-6213
La6Sm2Cr5Fe3O20,0.448299999999999,-2.805913343333333,mp-1099978
Ti3V2P6WO24,0.0743,-2.8058609438293662,mp-779079
LaTaZnFeO6,3.4267,-2.805843499233333,mp-1044107
NdCrGeO5,2.5312,-2.805828713749999,mp-1210145
Ba2NdMgMoO6,2.0867,-2.805670436590909,mp-2226150
KMg14CrO16,2.5372999999999992,-2.805122622414063,mp-1034004
MnNb4FeO12,2.5194,-2.805095088496168,mp-1221858
Sc2Mn2O7,0.0,-2.805036003260187,mp-17619
ZnFe(Si2O5)2,3.4437,-2.80490181171875,mp-1043537
Ba3W2O9,3.6786,-2.804791172857144,mp-18867
Li4FeOF5,1.5943,-2.804742301515152,mp-759422
Mg3Fe2(Si2O7)2,2.0588,-2.804695020652173,mp-1263953
Li2V4O5F8,0.0,-2.8045808774561403,mp-752634
SrPr2Mn3O9,0.0,-2.804271900141762,mp-1218264
Ca2AlWO5,0.7542,-2.804067100555555,mp-1261272
SmFeO3,1.545,-2.8038036295000013,mp-20243
Na2HoPWO8,4.789,-2.8036797286462662,mp-1200859
YMg6MnO8,0.162,-2.803601931120689,mp-1032792
Rb3YbV2O8,0.0,-2.803577624196429,mp-1209291
La12Ga23MoO56,0.0,-2.803122886222825,mp-1224232
Ba12V4O19,0.0,-2.802847142428572,mp-1228785
Al2NiO4,3.205599999999999,-2.802741493571429,mp-37614
LiV4O5F7,0.8641000000000001,-2.802722460784313,mp-754849
PuCrO3,0.0,-2.802689262749997,mp-1209736
Li3MnP2(O3F2)2,1.7453,-2.802683727169797,mp-1199210
Li3Cr4P2O8F9,2.5796,-2.802632371895605,mp-758264
Mg14NbCrO16,0.0114,-2.802460113125,mp-1033949
SrMgV2O7,2.7983,-2.8024287706818183,mp-1208827
HfNiO3,2.7983,-2.802277456,mp-1178219
MgMn8(SiO3)10,0.408599999999999,-2.8020696944581283,mp-1234735
Na2DyPWO8,4.7314,-2.802022066082164,mp-1197813
NaCaZrWO6,0.0,-2.8019952261379313,mp-1516212
Li3Ti2V3O10,1.628,-2.801985282592592,mp-752510
Ti3MnSn2(PO4)6,1.303799999999999,-2.801831590160783,mp-1101302
Ti3VCr2(PO4)6,0.0,-2.801768456607141,mp-1101287
YMg6CoO8,2.736799999999999,-2.801707739375,mp-1032731
Ba2Fe2CuF14,0.0,-2.801665327368421,mp-1361380
NdBMoO6,3.5265,-2.801558199074073,mp-1196885
CaV2O5,0.0,-2.8014750212500013,mp-19305
Mg14MnSiO16,0.6424999999999991,-2.801473968060345,mp-1036087
CaV2O4,0.0,-2.801427047499998,mp-504712
Gd2MnNiO6,0.0,-2.801422737293103,mp-1212655
V3Si3O10,0.457499999999999,-2.8013761128125,mp-1101243
Ti3NbCr2(PO4)6,0.0,-2.801368991607143,mp-1101347
KBaCr2(PO4)3,3.2965,-2.801141708614661,mp-1223640
YTi(WO4)2,1.7127,-2.801049497777777,mp-1042631
Al3Co(PO4)4,1.6574,-2.800954206711309,mp-1215069
HoV2O6,0.8904999999999991,-2.800791376111112,mp-1343485
Mg14CdFeO16,3.8563,-2.800662959062499,mp-1035518
LiFe(Si2O5)3,0.0,-2.800584290905797,mp-775750
Li2Ti2MnCr2(PO4)6,2.3555,-2.8005415751113922,mp-720669
CaV(PO3)4,2.9611,-2.800480191309522,mp-1045800
Li6Ti3Cr(PO4)6,0.063199999999999,-2.80046380519643,mp-758706
Li4Mn7(OF7)2,1.7944,-2.8004212318092803,mp-763819
YMg6CrO8,1.088199999999999,-2.80027471625,mp-1031936
Na2TbPWO8,4.7698,-2.800215352428317,mp-1199562
Sr3Fe2O4F3,0.0,-2.80015865875,mp-1147568
Na2TiCr(PO4)3,2.5204999999999993,-2.800048150527395,mp-720098
Ca2ZrFeO6,0.0,-2.799852334999999,mp-1521637
Al(WF5)3,3.1318,-2.799762154210525,mp-1047756
Li4Ti4V4CrO18,0.0,-2.799740236182796,mp-884288
MgW2(OF4)2,3.8207,-2.799682574999999,mp-2219150
CaSm4(Mo2O7)2,1.258499999999999,-2.799472725652173,mp-1234486
Pr7Mn8O24,0.0,-2.7994560498747423,mp-678801
Ba4Y2Fe2O11,0.0,-2.799376451315788,mp-1194618
Ca2YCoO5,0.6779000000000001,-2.7992168305555563,mp-1047496
La7SmMn3(FeO4)5,1.019699999999999,-2.799193742674808,mp-1076455
Ti2Ni(PO4)3,0.158399999999999,-2.799099418921958,mp-771314
Ti3Mn2P6WO24,0.0819,-2.799088214825534,mp-767961
CaMg6FeO8,4.259500000000001,-2.799068071874999,mp-1032929
CaFeP2O7,3.3507,-2.798918775162337,mp-1343599
Sr2HfCoO6,0.0,-2.798528335,mp-1517280
Ba2NaTi2MnRe2Si8HO26F,0.237599999999999,-2.79842002891425,mp-1215061
LaWClO4,2.9076999999999993,-2.798301488571428,mp-558773
Li2VCrP2(O4F)2,1.9782,-2.798268716830357,mp-760236
Sr2Y4Fe2Cu2O13,0.5308,-2.798261756956522,mp-1218649
Cs2MnNiF6,3.9301,-2.798176958724138,mp-1226311
Ca8Ti2Mn6O21,0.038599999999999,-2.79814114633116,mp-1247703
Li2MnOF3,1.640299999999999,-2.797950160299671,mp-753282
KBa2V2ClO7,3.2799,-2.797841482480769,mp-1223502
NaCa2Fe5(SiO3)8,0.5075000000000001,-2.797840630784483,mp-818519
CaLuMn2O6,0.0,-2.797704238752873,mp-1227180
BaErMn2O5,0.0,-2.797654440095786,mp-1188765
Li3MnNb4O12,0.0,-2.7976185608965523,mp-780417
Pr8Ni4O17,0.0,-2.7976147758045973,mp-1173645
K2VO2F3,2.9836,-2.797603298375,mp-18832
KCaPrWO6,2.8469,-2.7973999356416672,mp-1521614
LiFeF3,3.467,-2.797327263666666,mp-777522
CaTmMn2O6,0.0,-2.797248206586208,mp-1227160
Mg2Nb2CoO8,2.852999999999999,-2.797192030769231,mp-1046744
GdFeO3,0.0,-2.797173253499997,mp-600576
MgMnVP2(O4F)2,0.691399999999999,-2.797104346814451,mp-2240838
Mn(Si2O5)2,0.0,-2.796853897195403,mp-1043728
AlVO4,3.0384,-2.796821249444444,mp-18827
BaLaSmMn3O9,0.0,-2.796751835252873,mp-1227930
Mg6TiMnO8,0.1074,-2.796725448829023,mp-1031861
Li3Mn2OF5,2.306,-2.79664139507837,mp-753529
BaCr2(P2O7)2,3.1307,-2.79653768897959,mp-1192170
BaLaNdMn3O9,0.0,-2.796488486752874,mp-1227936
Mn7F18,0.0,-2.796270170620689,mp-753607
Sm4Mg(Mo2O7)2,1.2937,-2.796127616304346,mp-1233068
Pr2MgCr2O8,1.66,-2.795782570641025,mp-2218317
Ba2Co2F11,0.0,-2.795753403444445,mp-1041033
Ti3VFe2(PO4)6,0.069199999999999,-2.795714644107142,mp-851092
EuCrO3,0.0,-2.795692883500019,mp-1189762
BaPrNbCoO6,0.0,-2.7956067141666683,mp-1227832
Cs7Fe4F15,3.431,-2.795340391830241,mp-562028
Mg3Si4(MoO7)2,1.4753,-2.795111671521738,mp-1248826
V4Pb3O3F19,1.8835,-2.794732143965517,mp-1196298
Nd2MnCoO6,0.0,-2.794713231293103,mp-19336
Ba3MgV2O8,1.7886000000000002,-2.794632418214285,mp-2227999
BaLaPrMn3O9,0.0,-2.794527041697319,mp-1227919
ScNiBO4,0.0,-2.7944503163095242,mp-1219308
Ti3V2Co(PO4)6,0.0,-2.794409717718253,mp-774831
BaMnCO3F2,4.065399999999999,-2.794316631616379,mp-19054
LiMg6MnO8,1.5316,-2.794178793204023,mp-1032403
Li3Ti2V2O8,0.0,-2.794133103111111,mp-763577
Ca2AlCoO5,0.0,-2.794079868333333,mp-1372050
Sr2SmCrO6,0.0,-2.7940749135000003,mp-1522861
Li3V2(OF)3,0.6251,-2.7939714700000002,mp-1280055
BaTbMn2O5,0.0438,-2.7938456980587483,mp-1106241
La2Mo2O9,3.0654999999999992,-2.793216375000001,mp-705680
Mg3Ta6(FeO6)4,2.6832000000000003,-2.793134669432431,mp-1042715
CaV2(PO4)2,2.0737,-2.7930306001373633,mp-1049264
La4Co3O10,0.0,-2.792840349264706,mp-1203869
LiV2(SiO4)2,0.9269,-2.792705247948718,mp-762820
Sr10Mg4Fe(MoO6)5,1.8798,-2.792559736999999,mp-1218897
Sr2MgTiMoO6,0.156299999999999,-2.79244705621212,mp-2240169
Na3CaFe4(SiO3)8,1.4038,-2.7923957375201143,mp-1173803
Ca4TiMn3O11,0.0,-2.792046838006655,mp-1247725
Ti4Cr3(PO4)6,0.0,-2.79202948489704,mp-555289
CeMnO3,0.0,-2.792029400586206,mp-1183706
Li4Ti3CrO8,0.0,-2.791981395208333,mp-756669
Sr4MgV3O10,0.0,-2.7917973941666663,mp-2232863
Mg2TaWO6,2.6806,-2.791780952733334,mp-1047112
Li2Mn3OF6,1.7183000000000002,-2.791650295246648,mp-759714
NaCaGdWO6,2.8136,-2.791639597137931,mp-1521963
LiTi3V5O16,0.891699999999999,-2.7914550485333343,mp-1235238
Li2V2(SiO3)3,1.751,-2.791131471145834,mp-1267368
KMg14MnO16,0.255099999999999,-2.791098723599407,mp-1036233
Mg3Si3(MoO6)2,2.667499999999999,-2.7910684796250003,mp-1327088
UV2O8,2.1142,-2.791035894545455,mp-541493
AlWF5,0.5218,-2.791011414999999,mp-1262038
Mg14NbCoO16,0.1714,-2.790955393125,mp-1035120
CaMn(PO3)4,4.3842,-2.790898375639011,mp-1045779
SrCa7Ti2Mn6O21,0.0771,-2.7907458896419692,mp-1247570
Ba3LaIn(WO6)2,3.0435,-2.79071336008772,mp-684983
TiNbFeO6,1.241299999999999,-2.790575222314815,mp-1216798
Ca2YMoO5,0.0,-2.790466045,mp-1368579
CaMn2(PO4)2,3.3819,-2.790342111357521,mp-1048915
La5MnOs3O16,0.0,-2.790260330917241,mp-644707
TiCr(PO4)2,0.0665,-2.790186679107142,mp-770565