formula,bg,formation_energy,mp-id
RbV2SbO8,2.7554,-2.242689998333334,mp-622258
CaMo2O7,3.727999999999999,-2.242650780499999,mp-1042314
Mg6BWO8,2.966,-2.242536263697916,mp-1033247
Li5V5(NiO6)2,1.3552,-2.242366277361111,mp-756056
Li4Ti2Cr3Co3O16,0.410499999999999,-2.242344912142857,mp-754733
BaSr7MnFe7O24,0.0,-2.242268337948276,mp-1076592
Mn6O7F5,0.000899999999999,-2.242266895421457,mp-754821
Sr2Eu2TlNi2O9,0.0,-2.242105109270834,mp-1218836
Ca2FeIrO6,0.0,-2.24188327125,mp-1306506
Li5Co2(SiO5)2,0.239299999999999,-2.241843343245614,mp-849671
Li3Co2O2F3,0.0071,-2.2417865815,mp-760300
Sr2YCo2O7,0.0,-2.241776564583332,mp-1047167
Li3Fe9O5F11,1.944599999999999,-2.241767499642857,mp-849473
TiNbBi5WO15,1.3757,-2.241756793188405,mp-1217348
Sr6Ca2MnFe7O24,0.0,-2.241716487198275,mp-1075969
Li3VCr4O8,0.143299999999999,-2.241701618125,mp-756915
Mn3Sn(PO4)6,0.0249,-2.24156733843089,mp-778517
Li6Cr5O12,0.0,-2.241557214347826,mp-781691
La2Co2Se2O3,0.0,-2.2415306077430572,mp-1079800
Li3Cr5O10,0.0,-2.241347587222222,mp-762282
Cs3NdCr3O12,2.6163,-2.241230329945554,mp-572404
Li3FeBO4,3.1401,-2.241013413796296,mp-778748
Fe2Ni(PO4)2,0.0,-2.240946505329671,mp-17631
CrFe3Co2(PO4)6,0.0,-2.240925494940475,mp-758226
Sr2CoOsO6,0.0,-2.240684457000001,mp-1079403
Ba2Pr3(CoO3)5,0.0,-2.24062682,mp-1229013
LiNiPO4F,0.0,-2.240619480059523,mp-1176633
ZnCr2(PO5)2,0.0,-2.240601159619047,mp-1044104
Mn3Fe2Co(PO4)6,0.0,-2.240585962823617,mp-757452
Na6Fe2B4SO16,0.0,-2.240266148877328,mp-770356
MgV(CO3)2,2.9885,-2.2401821155,mp-2217161
Sr5Ca3Fe4(CoO5)4,0.0,-2.240145008680555,mp-1076428
Nb2CrO8,0.7118,-2.24008773090909,mp-1046983
V16CrO41,0.0232,-2.2400187561206892,mp-849774
Li2Fe2Cu(PO4)3,0.1,-2.2399851962797612,mp-761114
Sr16Fe16O47,0.0,-2.239842744240507,mp-530945
Na3FeS2(O4F)2,2.5691,-2.239654140258621,mp-1194982
Li4Mn5V3O16,0.6207,-2.239635237249591,mp-773194
LiFePHO5,0.0,-2.239608244914022,mp-756507
CrOF3,2.1933,-2.2395654355,mp-31703
BaHoFe4O7,0.078899999999999,-2.239383223846152,mp-1194202
Li4V3CoO10,0.0,-2.239248441851851,mp-759134
LiCr(GeO3)2,2.756599999999999,-2.239092940583332,mp-21549
Li3MnBAsO7,1.0839,-2.239084360738284,mp-771037
Gd2Mo(SeO4)3,0.0,-2.239024236223958,mp-582378
Sr3MgFe2S2O5,0.9985,-2.238998001923077,mp-1048639
ZnFe3P3O13,1.9597,-2.238952221696429,mp-1047809
FeAs2H3OF13,2.540899999999999,-2.2388668810625,mp-1196313
KV2SbO8,2.8099,-2.2386957989375,mp-19496
V3FeO8,0.390199999999999,-2.2386753125,mp-771199
Cs2MgMnV2(ClO3)2,1.487999999999999,-2.238623016588669,mp-2226471
Li3V3(FeO6)2,2.4519,-2.23852642925,mp-775234
K3Na(WO4)2,4.7838,-2.23836434879495,mp-17636
Li2TiCo2O5,1.296199999999999,-2.238254834,mp-770848
Na2HgMoF6,0.0,-2.238174925625,mp-1111063
SrMgVO3,0.0,-2.238114885,mp-2227408
FeB12(HO6)4,0.016599999999999,-2.238038550243901,mp-1194745
CaCrBiO5,0.9903,-2.238009946718751,mp-1042669
Mn2Fe3Cu(PO4)6,0.0,-2.237974545103311,mp-767774
VReO4,0.0,-2.237861547500001,mp-1297017
Ba4Pr4Co8O23,0.0,-2.237808099273503,mp-1228513
TlP4(W5O17)4,0.0,-2.237795943138761,mp-1217667
Eu3Fe5O12,0.033199999999999,-2.237794446750001,mp-555758
Mg(WO3)4,0.9618,-2.237763749117647,mp-2229060
Rb3Na(WO4)2,4.5825,-2.237725503848522,mp-1104817
Li4Ni7(PO4)6,3.541,-2.237632344907083,mp-32384
Mn2VNi3(PO4)6,0.0,-2.237450914547756,mp-759208
MgCrWO6,0.5218,-2.237397004999999,mp-2223064
Sr2YTlNi2O7,0.0,-2.237367552948719,mp-1046045
CaV4(NiO6)2,0.0,-2.237232340526316,mp-1233707
Li4Nb2V3Cu3O16,0.0,-2.237197010119048,mp-774767
Rb5(WO3)18,0.0,-2.237184695681817,mp-761961
Rb3P(W3O10)4,3.2535,-2.237162583609693,mp-554622
KEuSnWO6,0.0,-2.237078046224999,mp-1522486
K2Fe3P4(HO4)4,3.6361,-2.237050711485221,mp-1200218
Li5MnCr3O8,2.3146,-2.237045884829276,mp-761082
K9(WO3)20,0.0,-2.236981033205056,mp-761779
Li2TiNi2O5,0.013199999999999,-2.236922448999999,mp-770852
Mn7SiO12,0.3909,-2.236868358525862,mp-3224
Ti2Mn3Cr3O16,0.8107000000000001,-2.23684739460249,mp-771173
Sr5Ca3MnFe7O24,0.0,-2.236814643948276,mp-1076079
LiFe2P2O9,0.0373,-2.236727559115646,mp-1013910
Li2MnCr2O6,0.6409,-2.236623183751306,mp-850919
Li2PWCO7,3.8206,-2.236596615109126,mp-25398
Fe3Co(PO4)4,0.8486,-2.236502617023809,mp-774667
K2UMo2HO10,2.3188,-2.236473477703125,mp-1212300
MnCo(PO4)2,0.718599999999999,-2.236406698518062,mp-775270
Ta2Co4O9,2.0509,-2.236345993311112,mp-863438
MgCr4(WO6)2,1.8007,-2.236336968684209,mp-2230023
Na2VBAsO7,1.553499999999999,-2.236237924118774,mp-773190
NaSrBiWO6,2.0972,-2.236169800137931,mp-1518378
Sr15Fe10(Bi5O23)2,0.0,-2.236161937716049,mp-616616
MgMnV4CuO12,0.5777999999999991,-2.235969695417423,mp-2230033
K3V(SO5)2,3.4516,-2.235891756046875,mp-976313
Na4Ni7(PO4)6,3.0042,-2.235873041301814,mp-19470
NdMn7O12,0.0,-2.235726351650862,mp-1210129
WSF4,3.3183,-2.235522606249999,mp-28113
Mn2Co(PO4)3,0.0,-2.235516590543923,mp-757011
Li9Fe5(SiO8)2,1.7383000000000002,-2.23540928,mp-767668
Na3MnBSO7,2.428099999999999,-2.235364233364279,mp-773188
ErCu(MoO4)2,1.4141,-2.235157468333334,mp-1213667
VSbO4,0.5192999999999991,-2.235131224999993,mp-29146
LiSiNiO4,0.273099999999999,-2.235122678333333,mp-761324
MnFe3Co2(PO4)6,0.0,-2.23503323793856,mp-758013
K3CoPCO7,2.916699999999999,-2.234843319722527,mp-1580470
K(WO3)4,0.0,-2.234711635132352,mp-757494
CoSb(PO4)2,1.6389,-2.234706496607142,mp-1983740
PrMn7O12,1.0533,-2.2345844148591962,mp-1188985
Li2FeAgF6,1.5286,-2.234536440833333,mp-1111363
Al(FeO2)2,1.0647,-2.234448979285713,mp-1293197
Rb(WO3)4,0.0,-2.234417720702614,mp-706249
MgCr3(FeO4)2,1.9517,-2.234407476785713,mp-2228448
KMg2V3(CuO6)2,0.0,-2.234244228612499,mp-561861
Li6Fe(O2F)2,1.04,-2.234190397307692,mp-755545
UMo4PbO16,1.6815000000000002,-2.234180799772727,mp-1208141
LiCr10O15,0.203899999999999,-2.234091955320511,mp-770681
Na5LiCo2P2(CO7)2,2.6862,-2.234078842673677,mp-768850
La4FeSe6O,1.620899999999999,-2.2340751828385432,mp-1312000
Sr2Li2NiO4,2.7663,-2.233991758796296,mp-753817
Ba2Ho2Fe(CoO4)3,0.0,-2.233879782999999,mp-1228474
LiFe4(BO3)4,1.7785000000000002,-2.233861939523809,mp-774381
KV12O30,0.3666,-2.233780509703488,mp-849579
ZnFe2(PO4)3,0.0,-2.233757075357142,mp-850540
Li4Ti3Fe3(CoO8)2,0.0,-2.233529705119047,mp-768930
BaCrInWO6,0.1824,-2.233422985666665,mp-1519687
Mg2VIrO6,0.043,-2.2330959535,mp-1377792
MgVSnO4,0.1659,-2.233040195714285,mp-2240244
Ba2AlTlCr2O7,0.0,-2.232931499871795,mp-1048438
Li4Mn8O13F3,0.468399999999999,-2.232872643813629,mp-766808
Mn3Cr(PO4)6,0.0,-2.232744541519126,mp-771880
CaMn4O6,0.0,-2.232742526974922,mp-1042706
LiTaWO7,0.0682,-2.232663972566665,mp-1222430
LiGa(WO4)2,3.4505999999999992,-2.23247940798611,mp-17510
Fe3Co2Sb(PO4)6,0.0032,-2.2324081771626982,mp-758164
LiV2FeO7,2.2984,-2.232389034848485,mp-1247728
LaMnCrO6,0.443299999999999,-2.232381274770115,mp-1040818
Cr2Ni3Sb(PO4)6,0.0,-2.232343096607143,mp-775941
ZnCo3(P2O7)2,2.489,-2.232243030162338,mp-1043740
Te6Mo(OF5)6,2.7227,-2.232079582790698,mp-540984
LiNi2P4H3O14,4.3173,-2.232052715443947,mp-40575
MgFe(GeO3)2,1.5423999999999989,-2.23204450675,mp-1043493
Rb2(WO3)9,0.0,-2.23183677618421,mp-531981
V4SnO12,2.5435,-2.231770928529412,mp-756857
Nb2Fe4O9,2.021499999999999,-2.231729956333333,mp-1210013
Cs2MnV2(BrO3)2,1.8578,-2.231622479403182,mp-572800
Na5LiNi2P2(CO7)2,3.9515,-2.231616009404445,mp-768847
CaPr(CoO3)2,0.0,-2.231611039166665,mp-1044741
Rb3V(SO5)2,3.1651,-2.23155585609375,mp-1196029
UMo5O16,0.278,-2.231513562272728,mp-32069
Li3Cr5O8,0.739799999999999,-2.231449998125,mp-1311453
Sr3La2FeCo4O15,0.0,-2.2314228566,mp-1218694
Li4Cr3CoO8,0.8818,-2.231349322708333,mp-768946
Si2NiO6,0.0,-2.231324256666665,mp-1264292
VCr2O4,0.100899999999999,-2.23123429,mp-1314508
Li8Fe(O2F)2,3.022799999999999,-2.231232089277777,mp-752873
Sr2FeSO3,0.0,-2.231098478214285,mp-1046652
MoPO4,1.190599999999999,-2.230988206190476,mp-1048896
Li4Ni2P4H3O16,0.0,-2.230859561229474,mp-849272
PrZn(WO3)2,1.2831,-2.230723381666666,mp-1044784
NiF2,4.9116,-2.23065729,mp-559798
Fe5Co(PO4)6,1.424099999999999,-2.230633351051587,mp-770879
Ba2ErCoCu2O7,0.0,-2.230605012692307,mp-1214699
EuMnSnWO6,0.153299999999999,-2.230546700793104,mp-1519332
Ba2YCo3O8,0.0,-2.230528755000001,mp-1048020
Li24MnCr11O36,1.004,-2.230378456082376,mp-1178077
VFe3Cu2(PO4)6,0.0,-2.230364133829364,mp-758420
CaCoBP2H5O11,3.3187,-2.230311416414397,mp-1199897
Li2Mn2V3O12,0.0569,-2.23030324039625,mp-1177949
VNi3Sb2(PO4)6,0.0129,-2.230147665773808,mp-757444
Fe5O3F7,1.3664,-2.230133625999999,mp-777536
Sr6Y3Fe(Cu4O11)2,0.0,-2.230036240999999,mp-1218669
Rb(WO3)6,0.0,-2.229965134699999,mp-698610
V2P2H2O11,1.785,-2.229945114222689,mp-1198775
MnCuF6,0.0,-2.229693058491379,mp-1206085
Li4TiMn5O12,0.063399999999999,-2.229680485741902,mp-754620
K4MoWO8,4.4095,-2.229603135642856,mp-1223817
NaSrYFeO6,0.0,-2.229593585137931,mp-1518900
Mn3Sb(PO4)6,0.0,-2.229570045048536,mp-775275
Li3V2NiO6,0.0,-2.2295033875,mp-755724
Ti(CoO2)2,0.0,-2.229277574047619,mp-36765
CaMn25FeSi4SbO44,0.0177,-2.229018506029946,mp-1227954
Li4VP6(H4O11)2,2.5922,-2.228985056126598,mp-780492
LiPW4O13,0.897899999999999,-2.228919877261904,mp-757984
K(WO3)6,0.0,-2.228915842289998,mp-675140
MgFe6(OF2)4,1.8316999999999992,-2.228695885526315,mp-1233442
Li4MnV2WO12,1.1649,-2.228694701063218,mp-755727
Li5Co9(P2O7)8,0.0009,-2.22866980908084,mp-705379
K(WO3)3,0.5068,-2.228646656711538,mp-1178157
Li4Cr5Sn3O16,0.214699999999999,-2.228600264226191,mp-770671
Ni2P2O7,1.558699999999999,-2.228525349707793,mp-554705
CaFeO3,0.0,-2.2285190305,mp-19115
Nd2Te4MoO14,3.190399999999999,-2.228466196031745,mp-561180
Sr7CaFe4(CoO5)4,0.0,-2.228400806875,mp-1076159
MgCo2(BO3)2,2.3143,-2.22836147121212,mp-2217796
Sr2MgFeMoO6,1.0972,-2.228337492272727,mp-2222878
LaCoSbPbO6,1.5277999999999992,-2.228332163749999,mp-1223180
Cs6Si2NiO8,3.087,-2.228306848701826,mp-556265
Mn3CrCu2(PO4)6,0.0,-2.228276082823618,mp-775289
Sr4MgNi2(ClO3)2,0.0,-2.228193974333332,mp-2232172
Na4UCr3O14,2.0333,-2.228144332978057,mp-555988
Li4FeNi5(PO4)6,0.0,-2.228039337779761,mp-766569
Sr2Mn2AlTlO7,0.0,-2.228021266476569,mp-1045984
Li3V4NiO12,0.086299999999999,-2.228014666000001,mp-756454
Li4CoCu3(PO4)4,0.0,-2.22783057542517,mp-757489
Sr5Fe4CoO10,0.0,-2.227796527000001,mp-1218452
Ba2HoCoCu2O7,0.0,-2.227665543846153,mp-1214661
V2HO4,0.0,-2.227611190178572,mp-626489
MnFe3Ni2(PO4)6,0.0,-2.227576040160782,mp-780788
LiFe5P3O13,2.9798,-2.227573832375542,mp-758965
CaGe2WO6,1.4485,-2.22755056,mp-1043370
Na3CoPCO7,2.223,-2.227513549713907,mp-770948
Ba3Fe3O8,0.0,-2.227407730714285,mp-1196000
Mn3FeCo2(PO4)6,0.0,-2.2273549803236192,mp-758090
ZnNiSnP2O9,2.748199999999999,-2.227347512984694,mp-1043346
K3P(W3O10)4,3.2441,-2.227268613953443,mp-554269
Ba2DyCoCu2O7,0.0,-2.227006853589744,mp-1214693
LiMnCrO4,0.0212,-2.226947700180623,mp-1176640
MgV2CuO7,0.317499999999999,-2.226870957878787,mp-1041772
Li6FeCoP2(CO7)2,0.0,-2.22679045804945,mp-753777
Te4Mo(OF4)5,2.9955,-2.226682754222222,mp-560414
Sr2Ca6Fe3(CoO4)5,0.0,-2.226585167500001,mp-1076198
Ba4Fe4O11,0.0,-2.226388043947368,mp-757712
K3NiPCO7,3.8376,-2.226365661260989,mp-754510
Li4MnP6(H4O11)2,4.3744,-2.226362804612718,mp-779351
Li4V3Cr3(TeO8)2,0.8361000000000001,-2.226278001666667,mp-769563
BaLa(CoO3)2,0.0,-2.226180699499999,mp-20477
Mn3Cu2Sn(PO4)6,0.0,-2.22614999629584,mp-792972
MgAlAg(WO4)2,2.391599999999999,-2.226133835128204,mp-2220125
KBaMnO4,1.8093,-2.226077319311577,mp-1192441
Mn5Cr4O12,0.1472,-2.226036456888339,mp-1222112
Na2V2NiH4(OF)6,2.7460999999999993,-2.22592613275041,mp-1198199
Li3TiFe3O8,1.8661999999999992,-2.225647984222222,mp-755163
NaMgMn2O4,1.088499999999999,-2.2256359340301732,mp-2217217
LiTbPrNiO6,0.6659,-2.225635542666667,mp-1518023
Li2Fe2P4H3O16,0.0,-2.225593939962522,mp-1662213
Li4Nb3Fe3(TeO8)2,0.5071,-2.225447307738094,mp-779209
NaMn2V3(PbO6)2,2.1428,-2.225398674862069,mp-706292
Li4Cu3Ni(PO4)4,0.0,-2.22524317542517,mp-757757
MgMn(CO3)2,4.078900000000001,-2.225221826293105,mp-2217116
LiVCO4,1.7462,-2.2251947015476192,mp-765999
KSrSmFeO6,0.0,-2.225184434224999,mp-1520748
BaMo3O10,2.4881,-2.225081294642858,mp-28465
CaMnV4(CuO6)2,0.0,-2.224869395896552,mp-1227223
Ba2Ca2Mn3Tl2O10,0.0,-2.22481868370841,mp-1046494
Y4Fe13Si2(SbO14)2,1.4724,-2.224772801428571,mp-1248168
Fe6Bi(P3O13)2,0.0,-2.224575093791209,mp-1225123
MgMnV4NiO12,1.574,-2.224530493312161,mp-2231564
BaV2O7,0.8513000000000001,-2.2244989135,mp-723402
SrCrSnWO6,0.0,-2.2243093195,mp-1517968
NaSrSbWO6,1.115,-2.22424449913793,mp-1522343
BaDyFe4O7,1.7414,-2.224183886666665,mp-1192895
Li10Ti3Co3(NiO8)2,0.9617,-2.224143112156863,mp-774315
Cs(WO3)2,0.0,-2.224118584961686,mp-21857
Sr3MgMn4O12,0.643799999999999,-2.224115946336206,mp-2230221
Li4Mn2V3Sb3O16,0.0,-2.223952859971263,mp-765741
Li3CoSiCO7,1.233699999999999,-2.223874916923077,mp-770659
V12Cu2O29,0.5762,-2.223867730813953,mp-772965
Ba4Y2FeCu5O14,0.0,-2.223842468846153,mp-1228213
Mn2V3NiO8,0.0,-2.223823277204435,mp-1280544
Li32Mn3Cr13O48,0.8376999999999991,-2.223639307296455,mp-777842
CsMg6CrO8,0.0,-2.223453401853448,mp-1099262
Li5Mn3Cr2O10,0.8975000000000001,-2.223453044522989,mp-752479
Li2CuMoF6,0.0,-2.223153679333334,mp-1111143
LiY2(FeO2)4,1.8179999999999992,-2.223103699555556,mp-1235662
Li9Mn3(WO4)7,0.0,-2.223098239867937,mp-777686
Na2MoAuF6,0.9192,-2.223017425874999,mp-1111302
MnSb3XeF23,0.7159,-2.22300844135468,mp-1195126
MgV4FeCoO12,1.5113999999999992,-2.222990525526316,mp-2231237
SrFeO3,0.0,-2.222982896999998,mp-510624
Mn7Sb(PO4)12,0.0,-2.222973114429876,mp-776832
Li4Nb3Co3(SnO8)2,0.546199999999999,-2.222950267976191,mp-774896
TlV4O10,0.0,-2.222900838222223,mp-18842
MgV3CuO8,0.0,-2.222899427307692,mp-2219529
LiPWCO7,2.9392,-2.222896158906926,mp-25414
MgV4FeNiO12,1.901299999999999,-2.222890500263159,mp-2231114
MgMo2O7,3.7069,-2.222699028749986,mp-27604
Na3NiPCO7,4.2779,-2.2226353454831362,mp-770968
NiAg(PO3)3,3.207899999999999,-2.222616666560374,mp-1210398
ZnNi3(P2O7)2,3.1974,-2.2222902576623382,mp-1043713
MnVP2(HO5)2,1.178799999999999,-2.222209580919798,mp-753350
Pr2Te4MoO14,3.266899999999999,-2.221947571428571,mp-556092
BaNdMg(CoO3)2,0.0,-2.221861661136363,mp-2240082
Sr2FeIrO6,0.0,-2.221845612999995,mp-1208946
Ca2PdWO6,0.0,-2.221463447,mp-20810
Ba8Fe8O21,0.0,-2.221075599594595,mp-757601
Na6Mn2B4AsO16,0.0,-2.221010876320848,mp-770785
Co2P5O16,0.0,-2.220925478183229,mp-27024
RbBaMnO4,1.8112,-2.220856379347291,mp-17445
Fe5Ni(PO4)6,0.0,-2.220703979107142,mp-768933
LiCo2P4H3O14,2.7722,-2.220694913360615,mp-41701
UCd(MoO4)4,2.0026,-2.220085507727272,mp-1208009
Tl3Mo4(P2O11)2,1.0921,-2.220034747456711,mp-1208648
Mo3P2PbO14,1.5159999999999991,-2.219905811214285,mp-1200601
Li3V2(GeO4)3,0.0,-2.219808372375,mp-1013916
Mn13Si2SbO24,0.1655,-2.219651172744254,mp-557740
NpFe(OF2)3,0.0,-2.219615949886363,mp-1211370
Li7W5O16,1.7734,-2.219585603333332,mp-771579
Co(PO3)4,0.0,-2.219396270504202,mp-1045799
Li12(WO4)7,0.0,-2.219213294893617,mp-1210972
Li5Cr4O8,1.160599999999999,-2.219201868039215,mp-849547
Li4Ti2Ni3O10,0.0,-2.219084092631579,mp-758922
Li2Fe3P4(HO4)4,3.7765999999999993,-2.218767008628898,mp-849240
MgMn2P2(H2O5)2,3.2076,-2.218537334481462,mp-1233855
Mg10(Fe3O8)3,0.0,-2.218309082558137,mp-34015
Sr3Tl(FeO4)2,0.0,-2.21798069952381,mp-1218508
Li4V3(FeO5)2,1.37,-2.217976487017544,mp-752916
K10MgMo7O27,3.7192,-2.217948739944446,mp-555868
Li5Nb2Co3O10,0.863599999999999,-2.217836802333333,mp-757125
Li4Mn2Nb3Co3O16,0.608699999999999,-2.217751448899835,mp-774294
KLaFeSnO6,0.0,-2.217705008725,mp-1517586
Li4Nb2Co3Sn3O16,1.7506,-2.217645777440477,mp-771059
Mn2(PO4)3,0.0,-2.217549284105332,mp-26062
VFe3(PO4)6,0.0,-2.217459727289916,mp-774165
Ba2YCoCu2O7,0.0,-2.217448923461538,mp-1214571
Sr4Ca4Fe3(CoO4)5,0.0,-2.217424614861111,mp-1076502
Mg3Ge3(WO6)2,1.0419,-2.217386750125,mp-1364208
VFe2BO5,1.645999999999999,-2.2173640287962972,mp-1207977
LiFe6(OF2)4,1.6187,-2.217076739122808,mp-1235528
Li5Mn5V2O12,0.047099999999999,-2.216810923180077,mp-756887
CdMoPO6,0.0,-2.216809399404761,mp-553877
Li3MnCr4O8,0.7012,-2.21673591799569,mp-756839
MnBPbO4,0.910899999999999,-2.216731743156814,mp-19882
MnWO4,2.356299999999999,-2.216569472988496,mp-19407
TaZn2FeO6,1.674599999999999,-2.216480632733334,mp-1340585
MnV4CoO12,2.0229,-2.216430144885057,mp-756893
Li2CoO2F,0.681099999999999,-2.216353936944444,mp-764063
Li2MgMn3O8,1.9551,-2.21625923503284,mp-581301
Li2V2FeO6,1.035299999999999,-2.216172706969698,mp-754148
VCd2PO7,2.8522,-2.216144432694804,mp-1216433
Cr2ReO6,0.080199999999999,-2.216127602500001,mp-21241
VInO4,2.9684,-2.216125894444445,mp-22443
LiNiBO3,3.0381,-2.216087830138889,mp-755271
Ba2MgNiWO6,1.3913,-2.216073216818181,mp-2222926
Mn3(PO4)4,0.0,-2.215851585537589,mp-697730
Ba2ErCuNi2O7,0.0,-2.215805484230769,mp-1214712
Li2Si2Ni3O8,3.155699999999999,-2.215757569555556,mp-766974
Na2W4O13,1.808499999999999,-2.215550446724137,mp-32533
Fe3Ni(PO4)4,0.0,-2.2154310686904752,mp-775017
Li4CrP6(H4O11)2,2.8295,-2.215277567102206,mp-775207
SrEuFeBiO6,0.0,-2.215269892500001,mp-1518745
Li32Mn5Cr11O48,0.7654000000000001,-2.215248203190853,mp-778376
Rb5HfFe(MoO4)6,3.2283,-2.21517102141892,mp-647350
Ca3Co2O7,0.174499999999999,-2.215158858333333,mp-1367827
Na2WO4,4.752099999999999,-2.214918839679804,mp-18803
KNa7V7MoO24,0.0,-2.214907759672628,mp-1076222
Sr2MnCuSO3,0.0,-2.214889160053879,mp-20239
MgV2MoO8,1.122099999999999,-2.214864259583334,mp-2218208
K2MoO3F4,0.3876,-2.21483298845,mp-1198169
BaEuFeBiO6,0.0,-2.2146952665,mp-1517846
Li3Mn2CrO6,0.202199999999999,-2.214605592571839,mp-774897
ZnP2(WO5)2,2.7668,-2.214582261285714,mp-1044100
Mn7Sn(PO4)12,0.0,-2.214444549944582,mp-778765
Tl2Mo3P3O17,2.348799999999999,-2.214422555523811,mp-1208507
Li9Mn7V12O48,0.3991,-2.214144035335753,mp-831248
CsVSO6,2.141,-2.214066093433908,mp-1181965
Li4Mn3Cr3(SbO8)2,0.529299999999999,-2.214017541683086,mp-774806
Li4MnCr5O12,0.088799999999999,-2.214006952330198,mp-754440
V2PbO6,2.2667,-2.213791998888889,mp-21126
V3NiO6,0.0,-2.213714311000001,mp-1216522
V8CuO20,0.5263999999999991,-2.213697987816091,mp-773059
Li2AlNiO4,2.0236,-2.213436601458333,mp-756603
MnV4NiO12,2.013,-2.213327408218392,mp-850419
MgVCuO4,1.3422,-2.213272839285714,mp-1103557
KNa7V6Cr2O20,0.033999999999999,-2.213264477830699,mp-1099912
Li4Ni5Te(PO4)6,2.9686,-2.213238274696428,mp-774836
VCr2O6,0.0,-2.213218027777777,mp-1101261
Rb2TiCr2(MoO4)6,2.5925,-2.213162129095238,mp-1219915
V5CuO12,0.4964,-2.213105715,mp-777235
VNiP2O9,0.0146,-2.212992383598901,mp-1350888
SrMgMnO3,0.0,-2.212954469655173,mp-2210709
CsV(MoO4)2,0.0,-2.212936793304597,mp-561748
Li4Ti3Fe3(NiO8)2,0.0,-2.212925536190477,mp-780404
Mn2Cr3FeO8,1.7368,-2.212638574704433,mp-1222018
NaCrPCO7,0.7282000000000001,-2.2126155241838332,mp-769599
Nb3Fe(BiO3)6,2.3257,-2.212555495,mp-1220715
NaGa(WO4)2,3.4971,-2.2125501549066082,mp-1210165
Sr2FeBiO6,0.349599999999999,-2.212546675000001,mp-1205525
LaZnCrBiO6,0.9679,-2.212443973999999,mp-1049286
LiFeP2HO8,0.0,-2.212254577220696,mp-758760
Sr4Ca(FeO3)5,0.0,-2.2122072244,mp-1218523
Ba4CaNd3(Co4O11)2,0.0,-2.212090878223685,mp-1228232
Fe3Co2Te(PO4)6,0.056,-2.212059719847884,mp-759431
Mn3Co4P6(HO6)4,2.8146,-2.211942443820738,mp-1210889
Ba10Fe8Pt2Cl2O25,0.0,-2.21187992138298,mp-1228981
LiCo2OF3,2.0879,-2.21186826047619,mp-765718
SrV4(AgO6)2,2.0861,-2.211843805964912,mp-555885
Li4Fe(WO4)3,2.2436,-2.211837189416666,mp-787524
Li4Mn5NbO12,0.0,-2.211801281954024,mp-756259
Rb2NiAuF6,0.0,-2.2117716575,mp-1110586
KCo4(PO4)3,2.5376000000000003,-2.211584867558927,mp-646599
Li9Cr3(WO4)7,0.0,-2.211536276808509,mp-778229
Li4VFe(WO6)2,1.261,-2.211354143666666,mp-757500
MnFeBO4,0.9277,-2.2113406363711,mp-1176443
Li7Cr3(WO8)2,1.4534999999999991,-2.211300163333334,mp-771209
ZrCo3(BO4)2,1.3204,-2.211271828809524,mp-1215312
Ca3Fe4(WO4)6,2.0851,-2.211236309189188,mp-1043059
Sr3Ca(FeO3)4,0.0,-2.211153925,mp-1094055
Na3LaMn3(AsO5)3,1.4613,-2.211008918617241,mp-1203724
K8V2(S2O9)3,1.9921,-2.210985844546512,mp-704408
K5Na3Nb4(WO5)4,0.338499999999999,-2.210938837302442,mp-1076208
Li4Nb2Ni3Sn3O16,2.152,-2.210937124940476,mp-760315
Na2NiHgF6,1.7089,-2.2108729589,mp-1111162
NiAs3H3OF18,4.3465,-2.210603585432692,mp-604978
LiVFeO4,2.2232,-2.210388556190476,mp-756201
MgV2H2O5,1.8302,-2.21036709625,mp-2223097
CaV4(GeO4)4,0.0,-2.21028752,mp-1233945
CaLa2Co2Sb2(PbO6)2,1.8872,-2.210265116190476,mp-1233131
Li24Mn5Cr7O36,1.0553,-2.210161436106322,mp-768842