formula,bg,formation_energy,mp-id
LaWO2,0.0,-1.729968618749999,mp-1211437
LiSbTe2WO12,1.9194,-1.729649354509804,mp-754339
NaNiH4SO6F,4.6315,-1.729529383491379,mp-1194067
Li3Fe7O12,1.0915,-1.7294864004545452,mp-752897
Li5Co5(SbO6)2,0.0,-1.7293082086111111,mp-771036
Li5Co3O8,0.0,-1.7292525729166661,mp-1173996
CuSb(MoO4)2,0.6344000000000001,-1.729172382083334,mp-558286
Mn(SbO3)4,1.096199999999999,-1.7291433181135891,mp-757065
Li5Co5O9F,0.571499999999999,-1.729013598833333,mp-752861
Mn3As(HO2)4,0.0,-1.729000424924569,mp-861683
Li4Co3Ni2Sb3O16,0.0,-1.728917804404762,mp-757795
CrTe(WO6)2,1.6336,-1.728832003541666,mp-756075
LiMn9CdO10,0.0,-1.7287434873672691,mp-1235825
Cs2MnO4,0.6356,-1.728598686391625,mp-505300
MgMn3O7,0.0,-1.728501707617555,mp-1044328
Li4Ni3TeO8,0.647899999999999,-1.7283107531250002,mp-756871
Li5Fe2(IrO5)2,0.0,-1.728023227719298,mp-1222691
Li5Fe5(CuO6)2,0.2864,-1.727992281111111,mp-757148
Rb2CrCl5O,1.0209,-1.727938965277777,mp-1198076
Te3W5O18,0.0,-1.72770793173077,mp-1046585
MoAs2O7,2.5228,-1.727452817999999,mp-28775
Zn(Mo3O8)2,0.7584000000000001,-1.7274393856521741,mp-1340467
LiFe8(O3F)4,0.0,-1.727089551333334,mp-1236324
CdTeMoO6,3.189399999999999,-1.7270716379629631,mp-555560
BaMgZn(FeO2)4,1.474899999999999,-1.726870711666667,mp-2233108
Li4MnCo5O12,0.0,-1.726797840966563,mp-1177382
NaCoH4SO6F,3.0039,-1.726775307777093,mp-1193789
Ca2(Fe2O3)11,0.0,-1.7267430299122801,mp-653005
Fe5Bi4O13F,2.0697,-1.726644986630434,mp-1225422
CaMn4(CuO4)3,0.0,-1.726377317086206,mp-510570
Al2Ni2O7,1.0073,-1.726363709090908,mp-1248873
Tl2Mo3SeO12,2.3865,-1.726116859945024,mp-1201686
Mn2H2SO5,3.4249,-1.726070413336207,mp-1199375
V3(Bi4O11)2,0.011099999999999,-1.726065573333333,mp-1100945
MgCo2Te2(MoO6)2,1.0996,-1.726034985701754,mp-2230418
Rb2Mo2H4C4O15,2.7213000000000003,-1.726010791481481,mp-554482
V2Bi24O41,1.8048,-1.725957305298509,mp-758482
NiSnO3,1.7717,-1.725544296999999,mp-754654
Na5Fe3Ag2(As2O7)4,1.8185,-1.725254300331084,mp-1220973
Mn2Bi3O7,0.8317000000000001,-1.7252124209051711,mp-1278892
Li4Fe3O8,0.0,-1.724968086222222,mp-775127
NaFe2(MoO5)2,0.0,-1.724966506758621,mp-1104887
Co3P4H8N2(O3F)4,2.4025,-1.724926413441559,mp-1200021
MgCr2(FeO4)2,0.016599999999999,-1.724826997307691,mp-2219913
SrNi2Te3(ClO4)2,3.1308,-1.7247575778124982,mp-646605
K2Cr2HgCl2O7,2.5763,-1.724685552642856,mp-558517
Mn3TeO8,0.0,-1.7245673962883141,mp-770922
Zn11Fe25O48,0.9151999999999992,-1.7244236507142852,mp-1101180
Na2Fe2C4SO16,0.0,-1.7244148634103451,mp-771992
CrPbO4,2.0522,-1.7243814908333341,mp-19146
YWO2,0.0,-1.72436935375,mp-1207640
Li3Co3SbO8,0.3571,-1.724340841333332,mp-772208
KCaFeBiO6,0.0,-1.724320465725,mp-1519883
Ba2Li(NiO2)2,1.0726,-1.724319763703704,mp-1236499
V2Co(HO2)4,2.0867,-1.723947419500001,mp-757855
Li4V2Fe3Cu3O16,0.0,-1.72342408297619,mp-780863
K4NiP6O25,0.0,-1.723291307551587,mp-1181103
KLiWO3,0.0,-1.723211147597222,mp-1235719
BaCa(Fe12O19)2,1.0236,-1.7231192748437492,mp-1229206
Bi17(WO11)3,1.2992,-1.723059049339624,mp-758626
MgFe4CuO8,0.5062000000000001,-1.722867281071428,mp-1222046
Na3V(SO)2,2.3954,-1.72284540364224,mp-559831
La2CoSiO2,0.0,-1.7227022600000002,mp-1147750
Ca5W(N2O)2,2.3489,-1.722604418749998,mp-558331
Cr2O5,0.516,-1.7224604260714271,mp-776160
Ca3Fe2(RhO6)2,0.0,-1.7222990631578932,mp-1347394
VCo3AsO8,0.0,-1.7222744809615371,mp-1216438
Li3Co4SbO8,1.2594,-1.722263178125,mp-756225
Li5(CoO3)2,0.974,-1.722224736666666,mp-753251
K2Mo2H4C4O15,2.748,-1.722050000907408,mp-1196938
Mo3NO9,2.744,-1.7220117600000011,mp-1180501
VCuHPbO5,0.125999999999999,-1.7219994359722222,mp-505289
Li10FeCo9O20,0.152599999999999,-1.721980786583333,mp-764262
Li4Fe3Co3(TeO8)2,0.0,-1.721947722380952,mp-1177425
K2FePH5(CO5)2,2.5254,-1.721930477994897,mp-604071
Fe4SiO9,0.0,-1.721882771785715,mp-1225529
Ba4Sr4CoCu7O24,0.0,-1.721844599999999,mp-1099676
CaFe2Cu3(SbO6)2,0.9809999999999992,-1.72163007825,mp-1194983
Rb2MnO4,0.6351,-1.721545900418719,mp-505209
Mn4NiO8,0.0,-1.721249697824935,mp-757060
Li5Fe3(NiO5)2,0.2113,-1.721169785333333,mp-755786
K2Li2FeO4,0.403,-1.7210831670740732,mp-25219
Cr2(Bi2O5)3,2.408,-1.720828916521737,mp-30205
SrFe5Bi4O15,0.0,-1.7206707554000011,mp-1218304
V2Co2Se2O11,1.3256,-1.720619003216912,mp-1199860
LiMg(Fe5O8)2,0.0,-1.720526960297618,mp-773699
Cr5(TeO6)3,0.349499999999999,-1.7203706938461532,mp-1046527
MgFe2(BiO3)2,1.913,-1.720324059545455,mp-2217296
Li9Cr12Ni7O48,0.0,-1.7202106901315781,mp-1177063
Al(CoO2)3,0.0,-1.72016798275,mp-1045074
Li4Mn3Fe3(NiO8)2,0.0,-1.720015555254516,mp-769561
Li5Mn2Ni5O12,0.0,-1.719885903438696,mp-771232
Mn3Cd3(TeO6)2,0.4897,-1.719881664106321,mp-1221836
Li2Co2SnO6,0.844599999999999,-1.719854388333333,mp-753584
MgFeCuAs2PbO10,0.3859,-1.719510640625,mp-2232745
MgNi2(SbO3)4,0.3304,-1.719453293947369,mp-2230390
Rb2Mo2O5,0.1198,-1.7194284166666671,mp-1099822
Li20(CoO2)21,0.0,-1.7192153468273081,mp-532301
MnV2O8,0.750799999999999,-1.7191470289028201,mp-1203804
CrIrO4,0.0,-1.7191456250000001,mp-753633
NaCrH8(NF3)2,4.2236,-1.719106890632184,mp-976447
FeP2H2O9,0.0,-1.719056334770409,mp-743814
Cr3O7,0.239299999999999,-1.718996839749999,mp-1044455
MgMn2(NiO3)2,0.0,-1.718828614623824,mp-2217993
Ba2TlFe2O7,0.0,-1.718641311527778,mp-1046342
CoPH6O6F,0.0,-1.7183110891428561,mp-695928
Ni5B2SbO10,0.0,-1.718305267129629,mp-1209850
RbVH6SO9,2.9413,-1.718180670694444,mp-554329
Mn2Bi2O5,1.402499999999999,-1.718143067873563,mp-2647153
NaMnP2H10NO10,3.9037,-1.718112874643842,mp-757398
LiFe2P3O13,0.0,-1.718004411961152,mp-697808
Li4Ni3SnO8,0.0,-1.717865252395832,mp-755496
Li2FeNiO4,0.0,-1.717753459583333,mp-753050
NaV2(PO7)2,0.029,-1.717726796350791,mp-1180297
KVH6SO9,2.93,-1.7174275015138891,mp-560059
NiSnH12(OF)6,3.6811,-1.717413413076922,mp-24577
CaMgFeP2O13,0.0,-1.717143087876984,mp-1182791
Na4Mg(FeO2)4,1.3258,-1.717037249442189,mp-2224830
Ba2Mn4Tl2Zn3O12,0.0,-1.7167225103648172,mp-1048574
Mn3Cr2Te3O16,0.2238,-1.716530164324712,mp-773319
Li3NiO3,1.7279,-1.716244253571428,mp-773516
MgBe2(CoO2)4,0.1833,-1.716173197,mp-2232157
Cr2H2Pb4ClO10F,2.067199999999999,-1.715939719374999,mp-1226437
TlVSeO5,2.4187,-1.7159095653971361,mp-1208048
Mn3AgAs3(HO6)2,1.4337,-1.71578699168856,mp-542292
LiCoCO4,0.8597,-1.715758502976191,mp-758146
LiFeAsCO7,0.047899999999999,-1.715734269166667,mp-770902
Cr3CdF6,0.0,-1.715720755999999,mp-1214068
Zn3Co2(GeO4)3,2.1989,-1.7156028323749999,mp-1364220
V2Hg2O7,1.4424,-1.7148465963636381,mp-540566
MnP(HO)7,3.984499999999999,-1.7148226964108682,mp-1182381
MgMo2(HO2)4,1.4856,-1.7147957506666671,mp-2228631
YV5(H12O13)2,2.4232,-1.714670532857143,mp-1203975
FePb2WO6,2.3575,-1.714655161,mp-1205806
KFe3As4(HO8)2,2.508,-1.714095502105769,mp-1204715
Li4Fe3Cu2Sn3O16,0.0,-1.713951242083332,mp-1177426
AlCr4(CuO4)3,0.0,-1.713893238500001,mp-1045721
Li4MgNi3O8,0.3275,-1.713762544270833,mp-1282789
RbCr4BiO14,2.2291,-1.713699164125,mp-642938
La3YFe4(AsO)4,0.0,-1.7136708253125001,mp-1223197
Mg8SiW9O49,0.074999999999999,-1.713580977537313,mp-1198202
VCuBi2O7,0.0745,-1.713517193181818,mp-1191650
CoF4,1.613999999999999,-1.713008289,mp-1397055
Fe3H4(S2O9)2,1.2048,-1.7129122706896531,mp-696936
Mn(CO3)2,1.245199999999999,-1.712622717547893,mp-754012
K3MnO3,1.6113,-1.712323962811576,mp-540914
NiGeH12(OF)6,4.624499999999999,-1.712276203076922,mp-1173402
LiFe5O8,1.3685,-1.7119847100595251,mp-21735
Li4TiFe4(Co2O9)2,0.0,-1.7118242671505381,mp-774870
Li3Co2(GeO4)3,0.0,-1.711702672874999,mp-1013807
Li8FeCo3O8,2.003,-1.711596781333333,mp-752780
Tl2Ni2(MoO4)3,3.8078,-1.711383492324563,mp-1208571
NiSO4,0.0,-1.711362256249999,mp-18749
Cr2O5F2,2.3434,-1.711194328888888,mp-758873
Li5Fe5O12,0.048699999999999,-1.711110773712121,mp-759022
Li4Fe5(CoO6)2,0.0,-1.711085331231885,mp-775227
Hg2W2O7,2.0599,-1.711076903636365,mp-754961
Li4Cr3Co3(NiO8)2,0.977499999999999,-1.711047586190475,mp-758563
Si2Sb2Mo13O28,0.0,-1.710844095555554,mp-1044616
KFeH5(SO5)2,2.0856,-1.710807995842105,mp-1223582
ZnAs2WO7,2.7645,-1.710767309318182,mp-1043070
Li4Cr3Co5O16,0.0,-1.7107477229761912,mp-770878
Li4MnNi3O8,0.0,-1.710503631954022,mp-1177345
Li4Cr2Fe3Co3O16,0.0,-1.710208494761904,mp-774878
K5Mn3O6,0.813299999999999,-1.7101432630387932,mp-1194679
VIn(SeO4)2,2.1645,-1.71013823969618,mp-1191502
BeVO3,0.0,-1.710029862,mp-1183449
Tl2Co2(SO4)3,2.929699999999999,-1.709772517587719,mp-1208238
Li2Co3WO8,0.5286999999999991,-1.70973547547619,mp-775180
LiFe2(CO3)4,0.0978,-1.709615278070175,mp-758039
AsWO5,1.8533,-1.70954075392857,mp-1047270
Mn5H8S3O16,3.301999999999999,-1.709462598661098,mp-1202275
NaFeAsCO7,0.096,-1.70945102580721,mp-770821
MnP4H16(NO8)2,4.0598,-1.709427718628268,mp-510246
LaZnFeCuO6,0.002199999999999,-1.7093674495,mp-1044050
Mn2Cr3O12,0.6347,-1.709367047844827,mp-760285
Mn2Pb2O5,0.0,-1.709052546762453,mp-1204982
BaMo6I2O25,0.0,-1.709039418529412,mp-1201115
Co6O5F7,0.0,-1.709022001111111,mp-752440
MgCr(CoO3)2,0.0966,-1.7089064875,mp-2223659
Li3Fe3NiO8,0.9259,-1.7087218359999992,mp-757161
Li8(CoO2)5,0.6687999999999991,-1.708707732463768,mp-1638660
Fe39Si3O56,0.7038000000000001,-1.7085785620408152,mp-1178317
Be2Tl2Ni(O3F4)2,1.059,-1.70857448140351,mp-1214791
K2Cr2AsO10,0.0192,-1.70855906991111,mp-1202439
K3VH6C4O13,2.9347000000000003,-1.708422564231482,mp-698305
V2NiO7,0.448899999999999,-1.7083608065,mp-818255
KLiMoO5,0.7766000000000001,-1.708287524916666,mp-1211848
NaCrO3,0.0,-1.7081399252758611,mp-1076642
Li4Mn3Cu3(TeO8)2,0.0,-1.7079555307307062,mp-757393
FePH5CO8,2.5269999999999992,-1.707865058493303,mp-1237189
Fe(SbO2)2,0.5327000000000001,-1.707838569642855,mp-22265
Li2Ni2SbO6,0.669,-1.707517661060606,mp-1639439
K2ZnCr2(H2O5)2,2.695999999999999,-1.707506785763158,mp-1195983
LiSbWO7,0.2052,-1.707404284333333,mp-1222410
Li4Mn2Co3Te3O16,0.7614999999999991,-1.7073897174712631,mp-753987
Li4Mn3Fe3(CoO8)2,0.0,-1.707378147397373,mp-754076
Li2Mn15O32,0.0,-1.707337821339433,mp-34891
MgCo6O7F5,0.380499999999999,-1.7071397497368421,mp-2230306
NaCo2H3(SO5)2,0.0,-1.7071303822294062,mp-1173715
Cr3Pb5ClO12,0.5851000000000001,-1.707110170476189,mp-1213842
Fe2O3,0.0,-1.7070913529999991,mp-19770
MnPCO4,0.65,-1.70692863429627,mp-1181254
Li21(Co4O9)2,0.9658,-1.706694177234042,mp-850944
Mn4H2C8O17,2.2619,-1.7066429148136821,mp-1222084
LiMnNiO4,0.205499999999999,-1.706483919466339,mp-756366
Co3P2(H2O3)4,3.0494,-1.7063856888714282,mp-1204587
Li2FeTeO6,0.0,-1.706247392333333,mp-1177983
BaCa(CoO2)4,0.0438,-1.706187512857142,mp-1044463
Mn(SO4)2,0.2655,-1.706180474508881,mp-771239
Li3Fe2(CoO4)2,0.0,-1.706162318,mp-1177761
Bi14WO24,2.5439,-1.706017954871795,mp-705713
V2Cu3(Bi2O7)2,0.026299999999999,-1.706007219130435,mp-557876
AlW3Se2ClO8,1.4901,-1.705881104645834,mp-1045980
Li4Co5O9F,1.1535,-1.705863688070175,mp-755408
Pr2FeAs2RuO2,0.0,-1.705842462291667,mp-1219984
Li7Mn3Co3O16,0.085399999999999,-1.705705446107808,mp-759545
Li14Co13O28,0.0,-1.705692689575756,mp-777836
Li4Co3O7,0.282799999999999,-1.7055055916666662,mp-1174179
Ba2Tl2Fe3O10,0.0,-1.7054551521568642,mp-1046571
Ba6Sr2CoCu7O24,0.0,-1.70537011,mp-1076247
Tl2V(SO5)2,0.6174000000000001,-1.705214848111112,mp-1192871
Cr3Fe3(TeO8)2,0.305,-1.705213456388888,mp-757950
KMoCl4O,2.803099999999999,-1.70499321675,mp-699552
Li3Fe4CuO8,0.0,-1.704922609999999,mp-756367
Mn2ClO3,0.280999999999999,-1.704430002227012,mp-1190593
Li2Cr3O10,2.0403,-1.704335493111111,mp-772426
K2FeH8(SO6)2,4.4501,-1.70428035698,mp-542146
NaNi2Mo2H3O10,3.190699999999999,-1.7041412880627391,mp-1220997
Li4Mn2Ni3O10,0.0,-1.7038643889050211,mp-758690
Zn2Fe7O12,1.1595,-1.703861347142856,mp-757326
Li4Fe5(NiO6)2,0.734,-1.703698535579709,mp-758177
Ca(FeO2)4,0.6617000000000001,-1.7033942246153841,mp-1398614
Li9Fe23O32,1.1087,-1.703363959375,mp-772996
Co5(PO6)2,0.03,-1.7033218927255631,mp-1203728
Te3Mo5O18,1.607299999999999,-1.703218553269231,mp-1046563
NaMn2(SO4)2,0.3342,-1.7032042467108741,mp-1194228
Mg2Co3O8,0.520999999999999,-1.703040396923077,mp-1408143
ZnFeAs2O7,1.3387,-1.702977567500001,mp-1042820
Li3Co2RuO6,0.0,-1.702869288333333,mp-1222636
VFeCoO4,0.0,-1.7028045157142861,mp-1216396
NaNi2H3(SO5)2,3.5968,-1.7027850244516272,mp-1221038
K2V6CdCu9O26,0.012099999999999,-1.702709460556818,mp-1224519
MnP4(NO6)2,0.2557,-1.7026842207369721,mp-1181262
Li6Fe7O15,0.0,-1.702672676249999,mp-758888
CuW2O7,0.3526,-1.702551614333333,mp-1042407
Li3Zn2Fe19O32,0.0,-1.702299270178572,mp-1177501
Al(WO2)2,0.0,-1.701881402142856,mp-1400230
Mn15NiO32,1.1139,-1.7018775583117811,mp-851082
Na3FeO3,2.3505,-1.701576663448275,mp-30947
Rb2V6CdCu9O26,0.0612,-1.701496190568182,mp-1219824
LiMn2NiO6,1.349799999999999,-1.70144654241954,mp-25284
V4Cd(SeO6)3,0.5231,-1.7014428545012021,mp-1198140
Li4Cu3WO8,0.175999999999999,-1.7014156239583331,mp-756533
CaCo(GeO3)4,0.0,-1.701360688333333,mp-1516830
Li9(NiO4)2,0.0,-1.7013588269736841,mp-775731
Li4Fe3Ni3(TeO8)2,0.0,-1.701299141666666,mp-772169
Co3BO5,0.0,-1.7010196935185191,mp-542153
MnP2HO8,1.3029,-1.700991794872229,mp-1210948
Na7Fe3O8,2.0167,-1.700986178036398,mp-18917
Zn2CuWO6,0.3496,-1.700905845999999,mp-1041762
CuWO4,0.0,-1.700866176666666,mp-22773
Li3Cr3(CuO6)2,0.0,-1.700678392124999,mp-774351
Fe3P6H14(NO8)3,0.0,-1.700621161007142,mp-1213484
MgCo2(CO3)4,1.1972,-1.700202411842106,mp-2231241
MgCu3(MoO3)4,0.8205,-1.700195746249999,mp-1043122
RbMgMoO3,1.337199999999999,-1.699933979583333,mp-2242203
VNi3AsO8,2.6658,-1.699705252115385,mp-1216333
FeAsO4,1.557999999999999,-1.699692442916665,mp-21016
Li3Co4SnO8,0.665299999999999,-1.6993831034375,mp-1302608
UMo2O11,0.0,-1.699370595714285,mp-1204282
Zn3Fe8CoO16,1.605499999999999,-1.699340281785714,mp-1215745
Li4Fe2Cu3Sb3O16,0.0,-1.699337097261904,mp-754057
Li2MnH8(SO6)2,3.9071,-1.698995539083908,mp-779330
K2Mo2O5,0.4885,-1.6989641805,mp-1075956
MgFe10(O4F)4,0.0,-1.698902955322581,mp-1234620
Fe7(AsO4)6,1.5249,-1.698793269594594,mp-510450
Na4Fe2O5,2.0475,-1.69876137163793,mp-19396
Tl2WO4,3.3207,-1.6987105345238132,mp-19341
Cs4V2S4O3,1.9412,-1.6986437187400532,mp-572287
VZnSe2O7,2.0909,-1.69861534247159,mp-556959
MnSO5,0.1986,-1.698611716490148,mp-2224849
Li10Fe3Co2Ni3O16,0.0,-1.698573832156862,mp-778201
CoMoO4,0.0,-1.698526819583333,mp-17289
Nb2Ni2O9,0.388199999999999,-1.698491908846154,mp-1370479
As4W3O16,2.0997,-1.69846555152174,mp-1041770
Mn9(FeO6)4,0.8218999999999991,-1.698369765172413,mp-769622
K4Ni7(AsO4)6,2.5952,-1.6983416879024391,mp-1224183
Mo3O8,1.2265,-1.698086945909091,mp-1173004
Sr2FeCu2O7,0.0,-1.6980532924999991,mp-1043304
KMgMnO2,0.0,-1.6979840720362072,mp-2225311
CaBi3PbWClO8,0.0,-1.6978405826666672,mp-1233335
MoPbSeO6,2.3078,-1.697718594427082,mp-1196979
Na4Cr2H6O11,3.0836,-1.697707900565967,mp-1204421
Bi14MoO24,2.6318,-1.6976353046153851,mp-691119
K4MnO4,1.4906,-1.697634221047893,mp-1211757
Na3MnP3(H12O11)2,4.014699999999999,-1.697565820396179,mp-24493
RbLiMoO5,0.4712,-1.697364793541666,mp-1204616
CeFeAsO,0.0,-1.697325840625,mp-605060
Li8Fe3Co7O20,0.4165,-1.697071193596491,mp-764985
Li10Co11O21,0.5341,-1.6970177326984122,mp-530277
Na2FeH7(SO6)2,2.306,-1.697001739542026,mp-1196381
Li17(Co4O9)2,0.9383,-1.696996159224806,mp-758913
Zn3Fe3(AsO4)4,1.6552,-1.696918182115384,mp-1041706
Li3Co3TeO8,0.7913000000000001,-1.69675978911111,mp-772004
MgCr2(CoO4)2,1.1723,-1.69657958576923,mp-2219132
LiCr3O9,1.351,-1.696574826153846,mp-770652
NdMo5O8,0.0,-1.6963589098214291,mp-16672
Li2Cr(H2O3)2,3.0725,-1.696262757820512,mp-505245
CrPb2O5,1.8544,-1.6962362943749991,mp-22373
MgZn2(FeO2)4,1.2365,-1.696165409666665,mp-2232657
Li4Mn2Co5O12,0.4878,-1.696120180182408,mp-774397
MgCu3(WO3)4,0.0,-1.69575006025,mp-1043299
VCdAgO4,1.8437,-1.69539330845238,mp-541708
LiMn3NiO8,0.1792,-1.695354213625109,mp-757424
Li3Ni4SbO8,1.646599999999999,-1.695352632499999,mp-754956
Zn(WO2)4,0.103299999999999,-1.695347640769231,mp-1046548
LiZnFe7O12,1.3962,-1.695330738492063,mp-771267
Li4Mn5Cu3O16,0.0,-1.695254821892445,mp-752865
V3Co3(TeO8)2,0.0,-1.695191538888889,mp-775162
Li4V2Co3Ni3O16,0.0,-1.695128677619047,mp-758110
Cr4O9,0.1945,-1.6949272780769231,mp-1041443
Na12MnCu2H16(SO4)8,3.5092,-1.694923831682856,mp-1199501
Ba7SrCoCu7O24,0.0,-1.69491217475,mp-1076342
K2Co3H6S3O16,0.0242,-1.694860174983333,mp-510629
LiFe5O5F,1.0762,-1.694797344444444,mp-766142
FeP2H6NO8,2.0996,-1.69457229954365,mp-1225639
MnH4S2O9,4.5401,-1.694412029870689,mp-505481
SrWO2,0.0,-1.694294828124999,mp-1208617
TbFeAsO,0.0,-1.694277398541667,mp-1079887
Co(WO4)2,0.0,-1.6938217990909081,mp-25290
TlCrO3,0.4346,-1.6936482416666672,mp-1105306
Mg7Co17O32,0.0,-1.693552856696429,mp-767945
Li2CrCo3O8,0.5611,-1.693448416369048,mp-1178130
Ba2Na(NiO2)3,0.5781000000000001,-1.6932216226149421,mp-19397
NaMnH2C3O7,2.5658000000000003,-1.6931356438793101,mp-1210269
MoPNO7,1.1863,-1.692881958964285,mp-1203523
Li3(FeO2)5,0.459,-1.6922780666666661,mp-752476
ZnCrO4,2.0907,-1.6922108724999991,mp-755896
Ba3Mo2(IO9)2,0.0,-1.692186222400001,mp-1198357
VO3,0.0,-1.6920081724999991,mp-1207792
FeSeO3F,1.4261,-1.69198368330729,mp-1190442
K2Cr2Cd(H2O5)2,2.7899000000000003,-1.691923409973684,mp-24816
BaAlNi4O7,0.4242,-1.691885149615384,mp-1048397
Li(FeO2)2,0.0,-1.691847734761904,mp-25386
LiMnO3,0.0,-1.6915997667528742,mp-1120793
KFe3H6(SO7)2,1.8639,-1.691069558451922,mp-1192851
Na4Mg(CoO3)2,1.5767,-1.690890950039787,mp-2226674
MgCrPtO2,0.0,-1.6907222329999991,mp-2242022
FeAg(MoO4)2,1.4844,-1.690706718055555,mp-1212730
FePO5,0.0,-1.6907063001870741,mp-1212855
Mn3(CoO4)2,0.8285,-1.690257374907162,mp-504423
Rb8Mn5O10,0.8041,-1.690023302811094,mp-1196651
Li10Fe3Co3(NiO8)2,0.7782999999999991,-1.689802675686274,mp-774318
MnCSO7,0.0569,-1.6897080425431041,mp-754649
LiNi(CO3)2,1.1106,-1.6894202523333322,mp-763540
NiSn2H12(OF)6,4.6485,-1.689408495648148,mp-735541
Mn2NiO3,0.0,-1.688998426810345,mp-1221937
NaFePH2(CO3)2,3.6274,-1.68882703911709,mp-1200387
VP(HO)9,2.6738,-1.6886294286696422,mp-1197101
Li2FeCuO4,0.0,-1.688454932083333,mp-1177950
V(PO3)2,0.6557000000000001,-1.688386834920633,mp-724868
K6Mo7H18O35,2.373,-1.688264317212121,mp-1227772
MgW2(BrO)4,0.701199999999999,-1.687964050454545,mp-2227274
Li2Mn(CoO3)2,1.6124,-1.6879152076907,mp-1177992
KVO4,0.0,-1.687826672041667,mp-1180691
VPH5NO6,2.4145,-1.687812182206633,mp-731924
FeBP2NO9,0.0,-1.68773777417517,mp-1212760
Zn7Cu8(MoO4)12,0.0,-1.687730016,mp-1216462
Rb2Cr2Cd(H2O5)2,2.700199999999999,-1.687638452631578,mp-554838
TbMn2BiO6,0.0,-1.687390461252874,mp-546339
CoSn2H12(OF)6,2.5957,-1.68722914787037,mp-561571
ZnCoMo2O7,0.6836000000000001,-1.687188429090908,mp-1042650
Li20Co21O40,0.546999999999999,-1.68714979292181,mp-705640
Bi2Mo2Se2O13,2.8105,-1.6870197215625,mp-1200193
MgFe11O18,0.0,-1.686800522166666,mp-754288
MnP2O5,0.3387,-1.686552138402093,mp-1200077
Li4Mn2Fe3Co3O16,0.0,-1.6864145899712641,mp-761441
VPNO6,0.2687,-1.686290357876983,mp-1196520
Li6Fe9CoO20,0.0,-1.686226771111111,mp-765392
Li3CoRuO5,0.0,-1.6861695675000001,mp-1222819
Cr8O21,1.7012,-1.685936004310345,mp-558855
BaTl(MoO3)2,0.0,-1.685853310833334,mp-1047046
Li3Zn(Fe5O8)4,1.053599999999999,-1.685766479821428,mp-771780
MnH4NF3,2.8948,-1.685742488936782,mp-1210843
CeFe4(CuO4)3,0.0,-1.685703730499998,mp-1105352
CrPdO2,0.0,-1.685489044999999,mp-1063607
Li4Mn3Fe3(CuO8)2,0.0,-1.6854300848973731,mp-756989
U2NiAs2(HO)24,2.4707,-1.685409925566037,mp-1199639
NaLaMn4O12,0.0,-1.685315533227969,mp-1520145
Na2MnO2,0.268999999999999,-1.685244889471263,mp-559081
NaNiBP2O11,0.0421,-1.685162914156147,mp-1211194
Fe2(CO3)3,1.8766999999999991,-1.6851437046428561,mp-758121
BaNaAlMo6(H13O17)2,3.4128,-1.6850222570852071,mp-1199471
LiCo2C2O7,1.2187,-1.684834347777777,mp-758625
CrAgO2,1.6634,-1.684735102916666,mp-19378
K3Al3Si3(WO3)4,0.027299999999999,-1.68466900587,mp-1212431
Li4Fe2Ni3Sn3O16,0.200299999999999,-1.6846607999404761,mp-775337
ZnFe5O8,0.0,-1.684544337142855,mp-35033
CrWO6,0.902899999999999,-1.6842622975000001,mp-1802603
EuWO2,0.0,-1.68423858375,mp-1212926
K2Fe4O7,0.8588,-1.6840119368846131,mp-1120752
Fe3NiF6,0.0,-1.683818378999999,mp-1237050
Mg(Fe5O8)2,1.1054,-1.6835559272222231,mp-757008
NdMn4CoO12,0.0,-1.683555437734674,mp-1516824
NdWO2,0.0,-1.683550241249999,mp-1209913
YNi3Se2ClO8,1.3035,-1.683192531979167,mp-1048551
MoPbO3,0.0,-1.683171408999999,mp-1186106
Mn6Zn3O16,0.0403,-1.683007745903448,mp-772816
RbLi7(NiO3)2,2.5132,-1.682953038177083,mp-754101