formula,bg,formation_energy,mp-id
TiVO4,0.7223,-2.968286045972223,mp-1276433
Ba2SrWO6,3.2504,-2.968149434,mp-18764
Mg30MnAlO32,0.0,-2.967977611217672,mp-1038409
LiMg30FeO32,2.8286,-2.967817585208333,mp-1037677
Sr3V2O7,0.5565,-2.96719737041667,mp-22391
Na2ZrFeSi2O8F,2.8616,-2.967169726683908,mp-1210430
MnF2,2.3648,-2.966967116810346,mp-556585
Li2V4O3F8,0.0,-2.966373575392157,mp-753231
Eu2YWO6,0.0,-2.966332079000001,mp-1517152
CaSm4V4O12,1.130999999999999,-2.966102502380954,mp-1233308
K2NaMoF6,3.9023,-2.966080086587931,mp-556487
SrMg30MnO32,2.827,-2.965970750748922,mp-1038040
Cs2MnF4,3.459399999999999,-2.965928856748767,mp-1206528
KNaMn(Si2O5)2,2.8079,-2.965876960974138,mp-554248
YMg30CrO32,0.0,-2.965854912499999,mp-1037480
Mg30AlFeO32,0.8690999999999991,-2.96584179015625,mp-1038379
YMg30NiO32,1.1713,-2.9656261962499992,mp-1037774
CaMg30CoO32,1.806,-2.9656225225000012,mp-1038101
Mg30TiCoO32,0.445599999999999,-2.9655702588020842,mp-1037122
Li3VOF4,1.5642,-2.9655006773611112,mp-780660
NdMoO4F,4.0564,-2.9654767510714293,mp-1192562
Na3Zr3Fe(PO4)6,2.4292,-2.965173599918785,mp-706238
Ba2Mn2CuF14,1.1457,-2.965024216887477,mp-1045769
LiVOF2,1.6529999999999991,-2.9650195351666673,mp-759150
GdMoO4F,1.3117,-2.9649934303571452,mp-555179
Rb2CrF6,1.878099999999999,-2.964953194999999,mp-2041196
Mg3Cr2(SiO4)3,3.4797,-2.964843920499999,mp-6700
MgAl4Cr2O10,2.569199999999999,-2.964634825588236,mp-2229131
La4MgCr2O12,1.633499999999999,-2.964542667631579,mp-2228331
Mg30VZnO32,1.9261,-2.96449730703125,mp-1037352
Mg30VCrO32,1.7301000000000002,-2.964350677968749,mp-1036772
Sr2Y2Mn2O7,0.016599999999999,-2.964173598527851,mp-1048669
NaMnF3,2.7474,-2.9640653488620683,mp-560242
Sr5V3O13,0.5547000000000001,-2.963833913333334,mp-1218652
Li2VSi4O11,2.2291,-2.9635336634259253,mp-752694
Ba2MnNbO6,1.162799999999999,-2.9635321102931043,mp-1272179
Ti2CoO5,1.7405,-2.963518827395834,mp-753066
NdMnO3,1.898,-2.963478812086206,mp-20852
LiCr(Si2O5)2,2.1384,-2.963421418020833,mp-780620
NaMg30MnO32,1.6848,-2.963306600145474,mp-1038043
La4Mn4O11,0.226199999999999,-2.9631968550907453,mp-758462
Ca2Fe2(SiO3)5,1.105499999999999,-2.962875237083333,mp-818683
Li2V3F8,2.1998,-2.962605184358975,mp-778241
SrMgMn(PO4)2,3.7898,-2.9623618086320582,mp-1046354
MgCoF4,4.0944,-2.9623157075,mp-1444113
Y6MgMn6O18,0.019499999999999,-2.9620789394382663,mp-2224487
Na7Sr2Fe7F32,3.195999999999999,-2.9620533448886492,mp-581085
Li2Ti4Ni(PO5)4,2.9428,-2.9620195299539183,mp-725430
Mg30TiCrO32,0.0,-2.961913249270833,mp-1098369
KRb2MoF6,3.6262,-2.961774015224999,mp-554168
Sr2MnP3O11,0.103499999999999,-2.961364052315213,mp-559244
Ba2EuWO6,0.0113,-2.9613594059999993,mp-1518337
BaSrEuWO6,0.010399999999999,-2.96133452625,mp-1518836
CaSi4WO10,2.2125999999999992,-2.9611088878125003,mp-1043702
AlVO3,1.569,-2.96073348,mp-1178549
KNa2Li3Fe2(Si2O5)6,3.329399999999999,-2.960679973800172,mp-16283
Na2VFeF7,0.004599999999999,-2.960660561841692,mp-1199680
EuVO3,0.0,-2.9606587225000043,mp-1178351
Sr2VO4,0.0,-2.9606349314285723,mp-18972
CaMg14VO16,9.999999999976696e-05,-2.960615994375,mp-1036366
LiV2OF7,1.8637,-2.9605059930303033,mp-1285272
Li5V6O5F19,0.3494,-2.9602884459047623,mp-1177030
Ba2CaCuNi2F14,0.0,-2.9602448630000002,mp-1046122
Y2V3(SiO4)3,2.715799999999999,-2.9602370015,mp-1157332
Rb2LiFeF6,3.7234,-2.959949142833333,mp-22663
Sr2YAlV2O7,0.7058,-2.959916556153846,mp-1252036
Sr10Mg5Mo(W2O15)2,2.626,-2.9598721997,mp-1218935
La7(FeO8)2,0.0,-2.9596819682000013,mp-770762
La15(NiO4)8,0.047699999999999,-2.9596377066363653,mp-1178158
Sr3Ca5Ti3Mn5O20,0.0075,-2.959592868115422,mp-1076134
Sr2YMn2AlO7,0.397599999999999,-2.959469016604773,mp-1046905
Mg30MnCrO32,1.6973999999999991,-2.959311416530172,mp-1037910
Nb15MoO40F,1.8059999999999992,-2.959282698508774,mp-557934
V2Si4O11,0.380399999999999,-2.958981837058824,mp-867855
Mg30MnZnO32,2.7789,-2.9588712484051722,mp-1037924
Mg2Ta2CoO8,2.2862,-2.95876374824359,mp-1046092
Mg2Ta2Mn2O9,2.9985,-2.958687998701917,mp-1210629
PrMoO4F,4.0857,-2.9585828488095243,mp-1192358
Na2VOF4,2.991799999999999,-2.958528153157328,mp-554228
CsK2VF6,0.0,-2.958520357415517,mp-1112254
Mg30TiNiO32,0.631899999999999,-2.958468695677083,mp-1037199
Li2Ti3NiO8,2.7605999999999993,-2.958395378511906,mp-775326
V2OF4,1.8429,-2.958384173571429,mp-760069
BaSrMgWO6,3.2391,-2.9574843515,mp-1227368
Mg30VFeO32,2.004,-2.957466068593749,mp-1037070
Sr5V3HO13,3.9935,-2.957354805056818,mp-1218711
CsCrFeF6,0.0,-2.956924186072797,mp-1225950
Ho2CrSbO7,1.6887999999999992,-2.956802449999999,mp-1224219
Ca3MnO4,2.908,-2.956653652241379,mp-1227657
Ti4Fe(PO4)6,2.3278,-2.9565967924625842,mp-554569
Al3FeSiBO9,3.9052,-2.9564740934444442,mp-1214903
YMg30FeO32,0.0,-2.9564594642187503,mp-1037801
Sr2La2MnZnO8,1.553099999999999,-2.956322597173645,mp-1218782
BaNd2Mn2O7,0.0,-2.9559738438218393,mp-18861
La3(MoO5)2,1.700299999999999,-2.955940375,mp-674986
SrFeP(O2F)2,0.0,-2.955848483849205,mp-557850
Cs2LiMoF6,4.8178,-2.955805476264368,mp-1110974
Mn3Al2(SiO4)3,3.7426999999999992,-2.955633462439654,mp-6480
V4(OF3)3,0.0,-2.955454478750001,mp-759536
Na3Li3Fe2F12,4.0837,-2.9551791960818963,mp-6247
Li3Mn(Si2O5)3,1.344399999999999,-2.9548420129172412,mp-758981
Mg30TiFeO32,0.6284999999999991,-2.954632995677084,mp-1036996
TiMnO3,2.004899999999999,-2.9546040562528733,mp-19082
Sr2Y2V2O7,0.0,-2.95459276,mp-1047231
Nb12WO33,1.890399999999999,-2.954560287500001,mp-704637
LiMg30WO32,3.1002,-2.954541314739584,mp-1040082
Li2CrF4,2.020299999999999,-2.9544662720238093,mp-764423
Dy2MnSbO7,0.375899999999999,-2.954274386024032,mp-1225344
CaEuZrWO6,0.0,-2.9542672465,mp-1519275
Sr2Co(PO4)2,3.148799999999999,-2.954241778919414,mp-561556
Nd20Mn19O60,0.0,-2.9542413005120163,mp-1173614
Sr2MgZrCrO6,2.4492000000000003,-2.95411561590909,mp-2215839
Ba2Mn(BO2)6,3.9788,-2.954110900496715,mp-18990
Pr2NiO4,0.0982,-2.953693202261905,mp-505093
SrMg30FeO32,3.0674,-2.9532991878125,mp-1037572
Ba2MgWO6,3.223099999999999,-2.9532242795,mp-18986
La5FeRe3O16,0.0,-2.9531355160999992,mp-698096
Mg30MnFeO32,2.932200000000001,-2.952568543092672,mp-1037923
K4Zr3Mn(PO4)6,2.8643,-2.952474038547057,mp-704534
Mg30ZnCrO32,1.6493000000000002,-2.95244807984375,mp-1037573
Ba2LiVP2O9,2.0816,-2.95243719384127,mp-760067
V(Si2O5)2,2.4305,-2.9523608958333343,mp-1043652
Sr5Ca3Ti3Mn5O20,0.1095,-2.952205971587642,mp-1099762
SrEuMgWO6,0.3566,-2.952167827000001,mp-1518310
NaAl6Fe3Si6B3O31,0.0,-2.951927876477585,mp-818418
Mg30VNiO32,2.0727,-2.9515640626562503,mp-1037092
Nd20Mn20O59,0.020299999999999,-2.9513027778143512,mp-1173621
Sr3LaMnCrO8,1.2211,-2.95111440413793,mp-1218443
Ca2AlMoO5,1.7716,-2.9510520650000003,mp-1046989
LaPr3Mn4O12,0.0,-2.950974244086206,mp-1222923
CaMg14MnO16,2.0248,-2.950930368685345,mp-1036400
Mg2Ta2NiO8,2.584599999999999,-2.950889255358974,mp-1046134
BaCaCeCrO6,0.0,-2.950675736999998,mp-1516242
Tb2MnSbO7,0.429599999999999,-2.950563000114941,mp-1217713
Li4Ti5Cr3O16,0.0,-2.9503441125,mp-777464
Li2V2OF5,0.000799999999999,-2.950326644666667,mp-759836
Cs4KLiFe2F12,0.0,-2.950166326960201,mp-561000
K2Sc2Mo(PO6)2,3.0902,-2.949642414278195,mp-1225084
CaCo(SiO3)2,1.1736,-2.949598319,mp-18894
Ca5V3O13,0.598699999999999,-2.949477955952381,mp-1214138
CsVOF4,3.5464,-2.949024023165025,mp-1193015
KSrDyWO6,2.8841,-2.9489915918916663,mp-1521008
CaSi2NiO6,4.5227,-2.948969151249999,mp-19220
Mg30VCoO32,0.9893999999999992,-2.9489651490625,mp-1037188
Ca2CoSi4NiO12,2.9093,-2.948898731,mp-1227451
La5CoRe3O16,0.0185,-2.9488634777000002,mp-698050
Ca4Co3Si8NiO24,3.1496,-2.948849342749999,mp-1227707
Rb2LiMnF6,0.0,-2.9487951146264373,mp-1113711
HfMg30CoO32,0.017899999999999,-2.9487808075,mp-1036860
Cs2TlVF6,0.0,-2.9485744192643693,mp-557533
Ca4CoSi8(NiO8)3,3.8439,-2.9485411905,mp-1227711
KMnF4,2.1486,-2.948373868363506,mp-558116
LiMg30CoO32,2.180699999999999,-2.948358721458333,mp-1037086
Sr2MgZrVO6,0.9937,-2.9483365395454553,mp-2224177
NaMg30FeO32,2.6485000000000003,-2.9481917854903013,mp-1037628
Li3VF8,2.0326,-2.948109282499999,mp-2913130
CsNa3U4(MoO10)2,1.791799999999999,-2.947905821126436,mp-1194022
Rb2NaFeF6,4.118600000000001,-2.947750641637931,mp-558078
Na3Ti2Mn3Si4(O8F)2,0.006099999999999,-2.94712267898659,mp-1210891
K2NaFeF6,4.0922,-2.94678372858793,mp-558674
Eu2DyMnO6,0.0,-2.94672887395977,mp-1521818
RbMnF4,2.3279,-2.946728194238506,mp-553981
Ti3Nb2V3O16,1.140699999999999,-2.9466309200000023,mp-770898
Li9V8F48,0.4379,-2.946393336615385,mp-1176824
ThV2O7,2.3154,-2.9463195680000003,mp-825406
Cs3CrF7,0.0,-2.94630910854232,mp-614724
SrMg30NiO32,4.0777,-2.946301543593749,mp-1036839
Li2CrF6,0.0,-2.946232729074074,mp-555112
Mg30MnNiO32,2.8526,-2.946069553873922,mp-1038248
Li6Ti7Cr5O24,0.0,-2.946033167460318,mp-774674
TaCrO4,2.4597,-2.945962722055546,mp-753467
Li2VF7,1.7343000000000002,-2.945864939416667,mp-759125
Mg30ZnFeO32,3.2203,-2.9457428814062503,mp-1037212
Ti12Mn5(PO4)18,0.0,-2.945387920030155,mp-1217628
Cs2KFeF6,4.095599999999999,-2.9453288056560343,mp-559454
Mg30CrFeO32,1.615299999999999,-2.9452742398437493,mp-1037531
NaSrZrVO6,1.198,-2.945081538137931,mp-1519080
Sr16V12O39,0.6957,-2.94485501380597,mp-757304
NaV(SiO3)2,0.0673,-2.944825122887931,mp-19287
Sr2La2Cr3MoO12,1.477999999999999,-2.9447882830000003,mp-1218810
La2W2O9,3.4485,-2.944704858076923,mp-30162
Sr2Ni(PO4)2,4.2332,-2.944700482380952,mp-14884
Sr20V15O49,0.0,-2.944649087083333,mp-759591
Mg2Nb2VO8,1.091899999999999,-2.944542561923077,mp-1046836
HfMg30VO32,0.0,-2.944453706875,mp-1036714
BaCrF7,0.0,-2.944391534166667,mp-1048114
Cr2F5,1.5997,-2.944371399285714,mp-558380
Li3Ti3VO8,0.0,-2.944176315999999,mp-752665
Sr7CaTi3Mn5O20,0.2943,-2.944019082420976,mp-1076183
La5(MoO4)4,0.0,-2.943945275800001,mp-1223266
CsMnF4,0.076,-2.943881081681036,mp-554411
HfMg30CrO32,0.0,-2.943777755624999,mp-1038596
SrCaEuWO6,0.564599999999999,-2.9437157665,mp-1516941
PrMnO3,0.057,-2.943615975919542,mp-22564
La5Re3NiO16,0.0,-2.9433375481,mp-698001
La17Mn18O54,0.0,-2.9432381260422322,mp-531223
Mg3Cr2(Si2O7)2,2.4641,-2.943170073695651,mp-1266557
LiMg14CrO16,3.317199999999999,-2.943130446354167,mp-1035402
Rb3CrF7,1.4829,-2.943012476136363,mp-20919
LiFe(Si3O7)2,2.6182,-2.942624312424242,mp-863392
MgWOF4,0.0,-2.942568002857142,mp-2225303
Mg2TaCrO6,2.9652000000000003,-2.942500407483332,mp-1323661
HfMg30NiO32,0.0136,-2.942496232031249,mp-1036918
Na2AlFe(SiO3)4,2.9823,-2.9423030366379312,mp-1221399
Ba2ScV3O11,3.2262,-2.942115865735294,mp-1214840
Ta4FeCoO12,2.2555,-2.942002590240741,mp-1218072
HfFeO3,2.9099,-2.941841794000001,mp-753856
Li2Mn(Si2O5)2,3.1749,-2.941813664093983,mp-849390
Rb2LiMn3F12,1.903,-2.94170712456258,mp-1209597
Ca2NbFeO6,2.087099999999999,-2.941695491999999,mp-1214121
Mg30VCdO32,1.7467,-2.941612510625,mp-1036735
LiV5F11,2.247999999999999,-2.941389839313726,mp-759570
SrMg30CrO32,0.530899999999999,-2.9413385884375,mp-1038723
Ba2Mn2Si2O9,1.9934,-2.9412712876408063,mp-558695
HfMg30MnO32,0.0,-2.940823054186422,mp-1037789
Na2LiFe(Si2O5)3,3.3949,-2.940600437643677,mp-6838
CaMg14CrO16,1.0648,-2.940170079375001,mp-1036367
LiFe(Si2O5)2,3.3411,-2.940133872708333,mp-857353
Gd2NiO4,0.0892,-2.9401037028571433,mp-1207225
Al2Fe3F15,2.7091,-2.9399847017500003,mp-1265576
La2Mn2O5,0.0461,-2.9399408373180083,mp-1099627
Li3Fe(Si2O5)3,3.382399999999999,-2.939889681700001,mp-765285
Rb2NaMn3F12,1.8271,-2.9397483705651353,mp-18518
Mg30ZnNiO32,4.0442,-2.939539594999999,mp-1037547
Ca2Nb2FeO8,3.1679,-2.939534258846152,mp-1047759
La6Sm2Cr5(FeO8)3,1.4566,-2.9394685945,mp-1099896
HfMg30FeO32,0.0,-2.93942482078125,mp-1037499
Mg30CrNiO32,1.704199999999999,-2.939306105,mp-1037024
MgV4(OF2)4,1.043899999999999,-2.939173715588235,mp-2224434
Cs4Zr3Mn(PO4)6,2.7516,-2.939058139458129,mp-705889
Mg30CrCoO32,0.9603,-2.938855438125,mp-1036988
KSrTbWO6,2.887399999999999,-2.938803420391667,mp-1516327
KLaNbCrO6,2.0549,-2.938738616224999,mp-1522297
Mg30VCuO32,0.0952,-2.9387152856250003,mp-1037549
Lu2Mn2O7,1.112099999999999,-2.938114664017765,mp-19153
KMg30CrO32,3.6932,-2.937982549644531,mp-1040266
LiTiVO4,0.762,-2.937961547380953,mp-772042
Y2Mo2O7,1.6484,-2.9379081445454562,mp-2674749
KBaGdWO6,2.8167,-2.937881864725,mp-1523079
Ca8Ti3Mn5O20,0.4646,-2.937580324782086,mp-1247624
Mg30CrCuO32,1.0408,-2.937527052656249,mp-1037287
SrMg30CoO32,2.0697,-2.93751602609375,mp-1037019
V(SiO3)2,1.5244,-2.937264426388889,mp-1265975
LiMn(Si2O5)2,2.6044,-2.937055706172774,mp-849757
Na8Ta7VO24,1.454,-2.937020192559195,mp-997599
Ba2La2Mn(WO6)2,1.5055,-2.936868257522686,mp-560825
NaCa3Fe4(SiO3)8,1.489099999999999,-2.936675876284482,mp-1173734
Li2Mn2F7,0.135599999999999,-2.936618599775339,mp-765055
Li2Ti4Co(PO5)4,2.381399999999999,-2.936573535115207,mp-1222854
Mg30MnCdO32,2.700199999999999,-2.9364603341864233,mp-1037825
CsVNiF6,2.3655,-2.9363620660727983,mp-1228899
CaVO3,0.433899999999999,-2.9363439975,mp-22608
NaMg30WO32,2.917899999999999,-2.9361663478340523,mp-1039782
MnAlSiO5,1.7544,-2.936076515678879,mp-1210817
La19Mn19O60,0.0,-2.935752349241731,mp-685375
Li2Cr(Si2O5)2,2.7634,-2.935426703039217,mp-758640
SrMgCr(PO4)2,2.9329,-2.935267277252748,mp-1046414
Sr10Mg5Mo2(WO10)3,2.4223,-2.935252344899999,mp-1218914
KVOF4,3.6667,-2.9351555531785722,mp-558666
Ba5V3HO13,3.9795,-2.935093845284094,mp-1228550
Ba2EuVO6,0.0,-2.935080830500001,mp-1519613
Mg2MnNb2O8,2.6442,-2.935020601763927,mp-1046844
Mg30NbVO32,0.406699999999999,-2.934918368125,mp-1036762
Li2V(Si2O5)2,1.6954999999999991,-2.934724701568627,mp-766408
KSrYWO6,2.8822,-2.934650456725001,mp-1516583
BaMn2Si2O7,2.6464,-2.934603474446838,mp-1196057
Li2VOF5,2.8409,-2.9345145796296292,mp-757198
KRb2FeF6,4.140000000000001,-2.9342973782249993,mp-561067
MgNb4VO12,0.337899999999999,-2.934216079722221,mp-2229195
Li2Mn2Si5O13,3.4408,-2.934172452387669,mp-757482
LiMnF4,1.855,-2.934033461877395,mp-558059
La9Ni5O19,0.0,-2.934005355454544,mp-757549
Nd2CoO4,0.0,-2.933724992142857,mp-1206526
KMn2Zn3(Si2O5)6,0.0048,-2.933404789648168,mp-1260941
Ca8Ti3Mn5O21,0.2745,-2.933392721815005,mp-1247614
Mg30FeNiO32,3.4062,-2.93308342515625,mp-1036994
Na2CaMnAl2P2H2(O5F2)2,4.3124,-2.93275328010312,mp-1221604
NaMg30CoO32,2.5579,-2.932586636115302,mp-1037022
Mg30MnCoO32,1.2184,-2.9324957819989232,mp-1038281
NaV3F7,1.451299999999999,-2.932219807272725,mp-1120804
Ti2V(PO4)3,0.0769,-2.931885007810845,mp-771649
Li2MoF6,1.7655,-2.931861057037036,mp-22439
Li2Mn2(Si2O5)3,3.2499,-2.93181058020115,mp-757647
La15Mn16O48,0.0,-2.931410197872108,mp-772954
Y2MnSbO7,0.434099999999999,-2.931267139811912,mp-1216107
Ba2MgCo2CuF14,0.018,-2.9311504412500002,mp-1358843
La17Mn17O54,0.0,-2.931110007043495,mp-705870
Y2W2O7,1.8551,-2.93107879090909,mp-1323899
Eu2MgWO6,0.278599999999999,-2.9310433685,mp-1205507
NaSrHfWO6,0.0,-2.93083650513793,mp-1516820
Ba2VO4,1.5455,-2.930773886071427,mp-19096
CaSi4NiO10,0.0,-2.9306052159375002,mp-1043642
Cr(Si2O5)2,1.823899999999999,-2.9305943853333343,mp-779017
Na2MnF5,1.693,-2.930590704148707,mp-555618
LiMn2F6,0.312999999999999,-2.930082619910602,mp-757174
Sr3TaCoO7,1.0652,-2.930056257694444,mp-1298696
KLaZrCrO6,0.0,-2.930011246225,mp-1517088
Mg30MnCuO32,0.1409,-2.929974470592672,mp-1037989
CaLa2CoO6,0.1054,-2.9298201425,mp-1273081
Mg30MnNbO32,0.3684,-2.929781569967672,mp-1037821
Ca2YFeO5,0.927999999999999,-2.929702393333334,mp-1047527
Li7Ti12Fe5O32,0.0,-2.9294460477380952,mp-772995
Ba3TiZnWO9,3.081699999999999,-2.9293234698888893,mp-1228110
Ca2WO5,3.2830999999999992,-2.92905175375,mp-771519
Tm2Mn2O7,0.996599999999999,-2.92900769007837,mp-755041
KHoCoSi2O7,3.0358,-2.928976559354166,mp-735519
LiV6F13,1.9781,-2.928759198916667,mp-760005
Ba3V4(PO4)6,2.037899999999999,-2.928511188455598,mp-1228744
Ba2Co(PO4)2,1.4643000000000002,-2.928478199752746,mp-505731
KBaCeWO6,0.5378000000000001,-2.928468507725,mp-1518107
La7SmMn8O20,0.036399999999999,-2.928389509609676,mp-1099865
SrCa7Ti3Mn5O20,0.4537,-2.9282997050598643,mp-1247600
MgTi4Cr2O10,0.0,-2.928244301078431,mp-2229708
KCrF3,1.4898,-2.9281725704499992,mp-556365
MgV3(OF)4,1.2616,-2.928032040416667,mp-2218144
LiCrSi3O8,2.710899999999999,-2.927991702179488,mp-753254
SrLa3Mn3CrO12,0.3421,-2.927937594939656,mp-1218266
K3MoF6,3.352999999999999,-2.927756605174998,mp-553896
Cs2NaFeF6,3.841,-2.927675845568965,mp-504611
CeMoO4F,0.1015,-2.927288004642857,mp-1192442
BaNaDyWO6,2.8635,-2.927216575304597,mp-1520399
CaMn4(SiO3)5,3.2266,-2.927157428668995,mp-558800
Rb3MoF6,3.3404,-2.927005886249998,mp-1113829
NaUVO6,1.9662,-2.926880280431033,mp-1202065
CaLa3(CoO4)2,0.4409,-2.926669033928572,mp-1227143
Ba2YFeO5,2.8847,-2.926506524999999,mp-1204162
Li2V2Si5O13,2.5017,-2.926467896666666,mp-758036
Li2Ti2VO6,0.2702,-2.926395235757575,mp-758843
Ca3YMn3B4O15,1.384499999999999,-2.9263718896330673,mp-726398
Ti2MnO4,0.0,-2.926332923513958,mp-561097
BaSrEuVO6,0.0,-2.926224710000001,mp-1518816
Ti2Fe(PO5)2,1.9465,-2.926053450230159,mp-556401
Cs2RbFeF6,4.1178,-2.9258412786810353,mp-1112167
LaTb3(Mo2O7)2,0.2778,-2.9257622615909082,mp-1222843
KMg30MnO32,1.8944,-2.925748330862203,mp-1038115
Ca2Fe2Si5HO15,1.8821,-2.92573343485,mp-695983
Li2Ti4VO8,0.0,-2.925655216000001,mp-753566
Nd2W2O9,3.5126,-2.925593314807692,mp-560076
Ti2Mn(PO4)3,0.155899999999999,-2.925584695751459,mp-759966
Ca8Ti3Mn5O22,0.1513,-2.925507641964609,mp-1247663
Ca3WCl2O5,3.9325,-2.925349647954545,mp-558558
CaMn2(SiO3)4,1.1615,-2.925257907676952,mp-1154719
Mg30ZnCoO32,1.2351,-2.925154815,mp-1037497
MgTi4MnZnNiO12,2.3451,-2.9249945003132183,mp-1222066
LiCr(SiO3)2,3.2645,-2.924964505583332,mp-510529
Mg30VSiO32,1.8949,-2.924650253125,mp-1036736
Li2Mn5(Si2O5)6,2.997299999999999,-2.92462493176167,mp-850291
SrCa3V4O12,0.8810000000000001,-2.924197174,mp-1218581
Sr2NbFeO6,1.7829000000000002,-2.923957424999999,mp-1218741
SrCa7Ti3Mn5O21,0.2763,-2.9239046705987892,mp-1247645
CaMg14FeO16,2.6849,-2.923767776249999,mp-1036463
Sr2LiZrCrO6,2.7548,-2.923549148484848,mp-1235588
CsWF7,4.630599999999999,-2.923457344406128,mp-561687
Li5Mn3F14,1.360099999999999,-2.923355401270898,mp-759632
BaMg30VO32,1.7377,-2.92329909328125,mp-1036802
Mg30NbCrO32,0.469199999999999,-2.923092951562499,mp-1038594
Eu2MgV2O8,0.0,-2.923058189615386,mp-2218969
TaTiFeO6,1.3284,-2.9230188017407412,mp-1217927
Mg30CdFeO32,2.9573,-2.92301296265625,mp-1037391
Cs2NaMnF6,0.0,-2.922730889362069,mp-554858
Ba2V2O7,3.4599,-2.922540033863607,mp-19474
Ba5V4(ClO7)2,3.2262,-2.9224372317,mp-1198636
MgCo(Si2O5)2,2.9469000000000003,-2.9224088196875,mp-1043503
Eu3BWO9,0.184399999999999,-2.922402567083334,mp-556626
SrCaCo(PO4)2,3.0398,-2.922207441098901,mp-1046419
Pr12Mn11O36,0.0,-2.922114715970193,mp-530875
Na2CrFeF7,2.0232,-2.922051907409874,mp-699648
Li10Ti11Cr9O40,0.0,-2.9218297829999993,mp-769567
Ca2AlFeO5,0.698199999999999,-2.921796394444445,mp-1257214
Li10Mg12Fe(PO4)12,4.4817,-2.9216119874584052,mp-849374
MgVOF2,1.093799999999999,-2.921232562000001,mp-2225285
Li3FeF5,1.644,-2.920922298611112,mp-776129
K2Sr3Mn2(P2O7)3,0.4074,-2.920780717300565,mp-561223
LiCr(Si2O5)3,0.7595000000000001,-2.920721707536232,mp-850539
KMg2AlFe(SiO4)3,1.060199999999999,-2.9207112826125,mp-1223578
Eu3MoO7,0.0,-2.9206762750000013,mp-1213342
CaTiMn(PO4)3,1.052799999999999,-2.920439093621829,mp-1244685
Pr2CoO4,0.0,-2.920110816190476,mp-1207107
BaLaEuWO6,0.0,-2.919986537,mp-1521896
KSrGdWO6,2.835499999999999,-2.919693824225,mp-1518642
CaTiNiP2O9,3.0134,-2.919581371079932,mp-1043092
Mg30FeCoO32,0.0,-2.91954386640625,mp-1037039
Sr2CaMoO6,2.561199999999999,-2.9194941195,mp-19116
Li2Mn7F16,2.6388,-2.919442467687356,mp-753570
LiMg14MnO16,0.7531999999999991,-2.919224547227011,mp-1036220
SrMnP2O7,3.9331,-2.9191447613378863,mp-1208769
SrCaV2O6,0.7961,-2.9191020355000012,mp-1218467
Sr2CoCO3F5,1.8113,-2.918998801458334,mp-775735
Li24Ti11CrO36,1.5557999999999992,-2.91847836675926,mp-779361
KEuDyWO6,0.3304,-2.918474499391667,mp-1520907
MgTi3ZnNiO9,3.069,-2.9184285906666663,mp-1222049
BaMg30MnO32,2.646099999999999,-2.918296776061422,mp-1037843
Li4Y3MnO8,1.1037,-2.918235945235273,mp-756303
CsMgCoF6,1.9747,-2.918185277183909,mp-1225938
Pr2W2O9,3.5096,-2.918131446217949,mp-27479
Mg30MnSiO32,1.4162,-2.917987165280172,mp-1038039
Ba2Ni(PO4)2,4.0996,-2.917954437060439,mp-19491
Na2VNiF7,2.4654,-2.91741615661442,mp-1191842
BaNaTbWO6,2.8478000000000003,-2.917299163804597,mp-1517370