formula,bg,formation_energy,mp-id
Na3FeAsCO7,1.7516,-1.9772908193567271,mp-771144
Li3Mn3O8,0.0,-1.977158775985222,mp-770608
VAsO4,1.7413,-1.97707822125,mp-752642
Mn2Si(H2O3)2,2.6479,-1.9769511991047741,mp-726397
Li5Cr2Fe5O12,0.9827,-1.976943864861111,mp-755090
Ni3(BO3)2,0.0,-1.976881564393941,mp-18806
BaZnCr4O8,0.0,-1.9766728478571431,mp-1044490
Li2VP4(H2O3)6,2.7168,-1.9766704508172461,mp-780300
Na3MoO4,1.3712,-1.9766602361422412,mp-1210288
K3MgVO4,0.4282,-1.976646245194444,mp-2217188
SmEu(CoO3)2,0.0,-1.9765971745000002,mp-1521043
FeTe3S3Cl3(OF2)9,3.0463,-1.976578619594594,mp-1197776
Li2NiCSO7,3.5267,-1.976430346180555,mp-771145
LiVP3H8O13,2.222299999999999,-1.976339896048535,mp-780522
CaCoO3,0.0,-1.9762971390000001,mp-1368304
Mn2V3O12,0.0,-1.976086402109533,mp-849562
Mn2Al3Fe(PO7)3,0.0,-1.976059898159688,mp-1225171
NdMn5(CuO6)2,0.0,-1.975902150857759,mp-1220123
MgMn(SbO3)4,0.9405999999999992,-1.9757853751628351,mp-2228376
Rb3Zn3(MoO4)4,0.0,-1.9756534954807692,mp-1209384
Fe4(PO5)3,0.0,-1.975649451087662,mp-1203829
KV3(SeO6)2,2.3366,-1.9756358092743052,mp-541520
KNdFeBiO6,0.4222,-1.975620191475,mp-1518702
Li9Si2Ni5O16,0.596299999999999,-1.9756195903125,mp-859799
MgVBiO6,0.0,-1.975596927777778,mp-1368037
Fe2(WO4)3,2.6699,-1.975592756249999,mp-1213596
Li4Mn3Ni3(WO8)2,0.5307000000000001,-1.975568400611658,mp-752993
Rb2Cd2(MoO4)3,4.1251,-1.97545299118421,mp-1210143
Mn2O2F9,0.613499999999999,-1.9754021966047741,mp-27807
Na6Co2C4SO16,2.731099999999999,-1.9753538538198692,mp-780164
NaFe(MoO4)2,2.1186,-1.9753325826149442,mp-1190931
VCdBiO5,2.6632,-1.97526664859375,mp-558859
Li5Mn5(NiO6)2,0.545099999999999,-1.975029003180077,mp-774245
Li2Mn2FeO6,0.0118,-1.974867729926855,mp-758874
LiMn2P4H11O18,4.6113,-1.974828982264356,mp-780468
FeCu3(PO4)4,0.0,-1.974806886607143,mp-775297
Nd2P3H5WO9,2.488,-1.974796542508927,mp-1212504
Li9Cr19O48,0.052599999999999,-1.9747535317105251,mp-851096
K3Na5V2(Mo3O10)2,0.0,-1.9747339134346271,mp-1076637
BaAlFe4O7,0.8155000000000001,-1.9745414019230771,mp-1048359
MgMn4In2O10,0.0,-1.974511925885733,mp-2229065
Mn8O13F3,0.0,-1.974501318477013,mp-776594
Fe3P2H3O11,1.2237,-1.974474171212404,mp-540712
Li2TiCo3O8,0.0277,-1.974278714642856,mp-757968
Sr4Ca4FeCo7O24,0.0,-1.9741049865,mp-1075997
La4FeAs4Ru3O4,0.0,-1.9740845578125001,mp-1223053
ZnCoNiP2O9,0.180099999999999,-1.9740677853061221,mp-1043126
Ba2AlW3O8,0.0,-1.9740566442857141,mp-1048143
RbMgFe(MoO4)2,0.7483000000000001,-1.973669487884615,mp-2218804
B2Mo(PbO2)6,2.4454,-1.9734935111111092,mp-1196917
AlCr3O8,0.0,-1.9734523724999982,mp-1229068
ZnFeO2F5,1.7122000000000002,-1.973390204444444,mp-1178657
TlV(SO4)2,2.0345,-1.9731049465277781,mp-1208013
Al4Fe2CuP4(H8O13)2,0.7703000000000001,-1.9730309688409702,mp-1229285
Li2FeCO4,2.6885,-1.9729747489583331,mp-757609
Be3Co2(NF6)2,0.0,-1.972841290131579,mp-1214936
Li3Cu2(WO4)4,0.0,-1.9727829080000001,mp-25293
Cr(GeO3)2,0.6980000000000001,-1.9725945233333322,mp-2237154
Li4Mn9O18,0.0,-1.9725553138616991,mp-1177463
MgV6(FeO6)4,0.0,-1.9725267707142862,mp-1355442
MgAlTl(MoO4)2,0.0,-1.9725073329487182,mp-2241198
BaSr3Co2(CuO5)2,0.0,-1.9723790218055561,mp-1076898
Co2OF3,0.262499999999999,-1.972214389999999,mp-760935
Na6Ni2C4SO16,3.532199999999999,-1.97218532623365,mp-776196
Li4Cr3Co3(SnO8)2,0.029399999999999,-1.972013616547618,mp-778219
Li3Mn3NiO8,0.459699999999999,-1.971778760252874,mp-757987
Ni3AgP3(HO6)2,2.9368,-1.9717721725283441,mp-24731
Li4V3Cu3(SbO8)2,0.0,-1.9715920851190472,mp-771157
TlCr(MoO4)2,2.8216,-1.971569551736112,mp-645568
CsVTeO6,1.7666,-1.971509252369094,mp-1225864
Sr2CrFeAsO3,0.0,-1.9713965596875,mp-1189319
Li2Cr3(CO3)6,0.0,-1.971131332643679,mp-757965
Li3Mn2NiO6,0.0,-1.971002756321838,mp-756831
LiCr2O5,0.0,-1.970943045104166,mp-770687
MgCr2Cu2(WO4)4,0.1688,-1.9707606386000012,mp-1233924
VNiO3,0.0,-1.9706471140000001,mp-1206033
Pr2P3H5WO9,2.6333,-1.9705968766755941,mp-1212590
Ca4MgCo(AsO5)4,0.025399999999999,-1.970473999166667,mp-1227829
Ba14U2V4S25O,0.3449,-1.970252992880434,mp-1229227
Li3Fe(SbO3)4,0.0,-1.9699874362499992,mp-756153
V4NO11,0.0,-1.969950068124999,mp-1216776
V4Ag2O11,1.0019,-1.969933968137255,mp-19402
Li4Cr3Cu3(WO8)2,0.0,-1.9699280176190481,mp-774888
Li4Mn3Cr3(CoO8)2,0.477199999999999,-1.9698681059688021,mp-776269
Fe5P4(H3O10)2,0.8779,-1.96985775560204,mp-744239
NiAs3NF18,0.0012,-1.969841068478261,mp-1211733
Li6VFe5O12,0.012199999999999,-1.9697631345833342,mp-863880
MgMn4Zn2O8,0.0928,-1.969476709114943,mp-2227248
Sr2Ca6FeCo7O24,0.0,-1.9692294772499999,mp-1076626
NaV2P2(H4O7)2,0.0,-1.969113688913519,mp-746817
MnPH4O5F,3.76,-1.969065699381157,mp-1190204
Li4MnO3,1.439899999999999,-1.969048336408046,mp-755396
Li3Cr13Ni3(SO4)24,2.2487,-1.96900701503597,mp-695469
Li8FeO6,0.0,-1.968938306111111,mp-763305
BaMn3Fe3O11,0.6949999999999991,-1.968774646321838,mp-1228385
MgCrPbO3,0.3243,-1.968616008333333,mp-2240153
Li3FeO3,2.0511,-1.9685776071428571,mp-770886
Li2CoSnO4,1.9913999999999992,-1.968502268333334,mp-755501
Fe3(OF4)2,0.0,-1.968427066153846,mp-1104355
ZnCo2P2O9,0.0,-1.968338326198979,mp-1041038
Li3Co3(Ge3O8)2,0.0,-1.968271094821429,mp-772493
NaMn4(AsO4)3,1.1152,-1.9682708627801722,mp-1210122
Ga13Fe11O32,0.2103,-1.9681001344196432,mp-758262
Cs2Mo3SeO12,2.4983,-1.968016867869673,mp-18353
Li4Mn5FeO12,0.0,-1.967952207408568,mp-756410
K8Li9Cr4O16,0.762999999999999,-1.967919023459459,mp-850924
Li5Mn5(CoO6)2,0.5221,-1.96786204651341,mp-765629
Li2Cr3CuO8,0.1772,-1.967773018869047,mp-1178058
V2Ni2O7,0.0,-1.9676189961363642,mp-27157
Li2Fe3WO8,1.2896,-1.9672440933333322,mp-775194
Li17Fe4(CO3)16,0.0,-1.967179214196078,mp-882899
CrO,0.0,-1.967088979999999,mp-755073
Co3Cu(PO4)4,0.0,-1.967021801607143,mp-775177
MgFe2Mo2(ClO4)2,2.656399999999999,-1.966960060333333,mp-2226692
BaCo2(AsO4)2,0.0,-1.9668755523076922,mp-19143
Ba3Fe8Sn3O20,0.0429,-1.966840186617647,mp-1214965
Li4(MoO4)3,0.0,-1.9667645075438591,mp-1211266
MgCr4(CuO4)2,0.353399999999999,-1.9667473623333331,mp-2232473
CrAsO4,2.5028,-1.966665451805549,mp-1204934
Cr10Fe5O24,0.0,-1.9664549158974352,mp-771184
Zn5Fe3(P3O14)2,0.1733,-1.966377318520407,mp-1216364
Li3Ti(CoO2)4,0.0,-1.9663369014583332,mp-756324
Fe3BO5,1.019499999999999,-1.9660454046296292,mp-22223
Li10Fe3Sb7O24,1.0632,-1.966037415530303,mp-770854
FeP3(HO2)6,2.7053000000000003,-1.965908519837662,mp-604694
CaV4(PdO4)3,0.0,-1.9656124080000001,mp-1188629
Li4Mn3V2Co3O16,0.3603,-1.965471188468802,mp-756676
CeMoO2,0.0,-1.965416631249999,mp-1213789
KMn3O6,1.1986,-1.96537085210431,mp-1016190
KMn2O4,0.319599999999999,-1.965231119016009,mp-763541
KCoPCO7,0.0,-1.965198496535714,mp-773502
Li10Mn3Cr2Ni3O16,0.3788,-1.965165646091954,mp-778885
V2NO5,2.3788,-1.9650297675000001,mp-1208115
Li4V3Ni3(TeO8)2,1.3366,-1.9648777252380951,mp-763968
Li3MgNiO4,1.3094,-1.964559521805556,mp-776409
Fe10O11F9,0.313799999999999,-1.964531487666667,mp-777638
Li4CrTe2WO12,0.0,-1.964245865833333,mp-774655
VHO3,2.071399999999999,-1.964186262916666,mp-1178874
LiCr2Cu2(WO4)4,0.442499999999999,-1.9640285049333321,mp-1236608
CsCrAs2O7,2.5017,-1.96401745428684,mp-1195248
Ti2Mn3Fe3O16,0.0,-1.963817381685824,mp-755215
Mn2Sb2O7,0.3025,-1.963357117351097,mp-541741
MgMn4NiO8,0.0,-1.9632460040517241,mp-2228529
K2FeP4O15,0.0,-1.963209761616884,mp-1201434
Ba2MgMo4(Se2O11)2,1.9622,-1.963188651041666,mp-1234048
BaV2H2Se2O11,1.7073,-1.963146396093749,mp-1195240
Zn(WO3)2,0.640799999999999,-1.963126036666666,mp-1045708
Hf3NiF6,0.0,-1.9630158882500062,mp-1237178
Fe7Sb3P3(BrO6)3,0.0,-1.96279161467437,mp-1197479
Cr(SbO3)2,0.0,-1.9627345175,mp-756024
Li4V2Fe3Sb3O16,0.5433,-1.962630304404761,mp-777892
TiFe5O8,0.0,-1.962516560238094,mp-1216930
Sr3Ca5FeCo7O24,0.0,-1.96237975875,mp-1099827
Ca4Co5(TeO6)3,1.596799999999999,-1.9623706425000011,mp-1046609
Li2NbCo3O8,0.6675000000000001,-1.962201984404762,mp-757558
V2H3O5,1.5180999999999991,-1.961987415875025,mp-625381
Li9Mn12Ni3O32,0.158399999999999,-1.961938117235221,mp-769460
LiMoO2,0.0,-1.961930820833333,mp-19338
Li2CrNiO4,0.0,-1.9618038783333331,mp-1178023
MgCuMo2O7,0.0,-1.96178087439394,mp-1041857
Li6FeO4,2.7019,-1.9617434840909092,mp-756155
MgMn3BiO8,0.0,-1.9616623891379321,mp-2218295
Sr2CoCuSO3,0.0,-1.9615355103124992,mp-1048567
Na3Fe2(MoO4)3,0.6301999999999991,-1.961529854456895,mp-542274
Ni5(P2O7)4,0.0,-1.961386852491287,mp-705436
Sb2WO6,1.189099999999999,-1.961205790555554,mp-28918
Ba3Sr5Co4(CuO5)4,0.0,-1.961106306736111,mp-1076683
ZnCo3P3O13,0.349199999999999,-1.961041180696429,mp-1047839
Mn3In2Sb3O14,0.0,-1.9609629916875662,mp-1221839
Li8Mn6(FeO6)3,0.0,-1.9609509181215101,mp-758917
LiVCuO4,0.0,-1.9609422269047612,mp-505131
VPbSeO5F,2.8394,-1.9609285197048612,mp-1195199
VZn2SbO6,0.598299999999999,-1.9607537982499998,mp-1275528
Li2NiSnO4,2.4454,-1.960714100833334,mp-755249
Li4CrSb(TeO6)2,1.390299999999999,-1.960649933833333,mp-781050
CoBO3,0.1471,-1.9606277758333321,mp-757083
Li2Co(CO3)2,2.9086,-1.960457732878788,mp-753950
Li8Fe2O7,2.5588,-1.960386017598038,mp-779474
Hf3CoF6,0.0,-1.959462419999999,mp-1237499
LiCrP3H8O13,0.6033000000000001,-1.959367673356227,mp-849450
CaEuNiBiO6,0.0,-1.9591156165,mp-1521776
V3P4H8N2O17,0.0,-1.959103424443277,mp-1217404
LaZnCrCoO6,0.0,-1.959093946,mp-1049220
LiCoPCO7,0.0,-1.959085754816017,mp-25464
KMoPO7,0.7608,-1.959072295689284,mp-818256
Co2PClO4,2.6302000000000003,-1.959027435892856,mp-622183
Na4Mn9O18,0.0,-1.959005041351502,mp-1094147
NaFe2P2H5O11,2.5432,-1.95883501413881,mp-1197635
Zn3Cu(WO4)4,0.050699999999999,-1.958533805416666,mp-1215825
Li4Mn3Cr3(NiO8)2,0.92,-1.958528235611658,mp-757051
RbFe(SO4)2,2.1651,-1.9583104335416661,mp-1209220
VSnO3,0.0,-1.958239529500001,mp-1207852
V(CO3)2,1.5916,-1.957898693333334,mp-762249
SrCa7FeCo7O24,0.0,-1.957545853249999,mp-1076861
V2Fe4Mo3O20,2.111799999999999,-1.957480593275862,mp-1208570
Li2Mn2O3,1.594299999999999,-1.9573492196469622,mp-756298
Te(WO4)3,1.6167,-1.957286668541666,mp-756368
Li3MnCoO5,1.7259000000000002,-1.957263113793104,mp-1173984
K3Cr4PO16,2.7235,-1.9572207169330351,mp-683600
Na4Fe2P(CO4)4,0.0,-1.957165617228151,mp-778673
FeF4,1.6505,-1.9570883979999991,mp-1396678
Rb2Mo3SeO12,2.5069,-1.9570270165190962,mp-1198721
SrCo2(AsO4)2,2.3082000000000003,-1.9569843726923082,mp-1193940
LiFeMoClO4,3.0476,-1.956749722291666,mp-561410
CoSiO4,0.9398,-1.9567284895833341,mp-25268
Mn5O8,0.5504,-1.956560843050398,mp-18922
Bi2WO6,1.913999999999999,-1.956552777222222,mp-23480
K2MoAs2O9,2.7838000000000003,-1.956495639428571,mp-561554
Na3CrO4,1.033799999999999,-1.956457010517241,mp-1210429
MgMn4CuO8,0.0,-1.956333849766009,mp-2228575
AlVP2C2N2O9,2.2879,-1.95611847039916,mp-735184
Li2CrP4(H2O3)6,2.4219,-1.9560360073037322,mp-778674
Li2Mn5(FeO6)2,0.4674,-1.955604972920087,mp-769550
K3Mn4O8,0.487499999999999,-1.9556045673982891,mp-1003764
ZnGaFeO4,0.0,-1.9555733485714282,mp-1215743
Rb2MoAs2O9,2.761,-1.955520164642857,mp-555873
Ni4P2O9,3.227299999999999,-1.955419238285714,mp-771899
BaLi2NiO3,2.3049,-1.954761870238094,mp-756841
GeWO4,1.0688,-1.954579286249999,mp-770711
MgCr4O9,0.6066,-1.9543375903571432,mp-1041374
TiMnH12(OF)6,1.9467999999999992,-1.9542868319717062,mp-505405
Li4Cr2Fe5O12,1.327499999999999,-1.9540476407971001,mp-850397
Sr2NiBiO6,0.0,-1.9539047860000012,mp-1519550
MgCuBi(WO4)2,1.9143,-1.9538563180769222,mp-2241115
Ti2Mn3Te3O16,0.0,-1.953796033352491,mp-754257
FeP3H5NO10,1.6048,-1.953651621008929,mp-696483
BaNi2(AsO4)2,2.8416,-1.953633648076923,mp-19388
Na9Mn21O40,0.0,-1.9535734436995071,mp-761085
Mn2AsO5,0.0,-1.9535515363577731,mp-1205062
MgMn5SbO12,0.5518999999999991,-1.953444096560799,mp-2230809
Li4Mn2Fe3Sb3O16,0.0,-1.9534401171141211,mp-774898
Sb(WO4)2,0.0,-1.9530687513636371,mp-1047752
Li3Co4O4F3,0.0,-1.9530607675,mp-760940
MgV4(H4O7)2,2.19,-1.952967727962962,mp-1194238
MgMn3FeO8,0.5975,-1.952957131445624,mp-2218663
RbMoO3,0.0,-1.9528968765,mp-975292
FeCuPO5,0.0,-1.9528779715178581,mp-505811
Si2Ni3H4O9,3.2016,-1.952740435555555,mp-1105877
Li2FeAsCO7,2.2223,-1.9527329968055551,mp-771027
Li2Mn2Cr3O12,1.739599999999999,-1.9525065506594061,mp-775291
Li2Cr(CO3)3,0.0223,-1.9524592734444441,mp-780684
NaPrEuNiO6,0.0,-1.952445062804597,mp-1522238
PrMgCoO3,0.0,-1.9524213319444441,mp-2239942
BaFe2PbO5,1.3233,-1.952314815277776,mp-1215009
GaFeO3,0.1724,-1.952254804249999,mp-649086
VCrO5,1.3045,-1.952228490357143,mp-772310
Zr3FeF6,0.0,-1.9521809960000012,mp-1206115
Ca2Ni2O5,0.0,-1.951950527222221,mp-1347146
K6MgV2(SO3)2,1.4296,-1.9519349702058821,mp-2229785
LiFeSbO4,1.3545,-1.9518820651190472,mp-774920
Mg11(Fe15O28)2,1.1207,-1.951804699639176,mp-685444
LiMn7O12,0.0,-1.951754650817527,mp-770641
CrGa(BiO3)2,2.0429,-1.9517191542499999,mp-1226251
CaWO2,0.0,-1.951485219374999,mp-1390191
PrMg(NiO3)2,0.0,-1.9514833121666662,mp-1044749
K4Li5Cr2O8,1.079,-1.95143452082456,mp-1178153
Li3Fe2SnO6,0.031,-1.951372814583332,mp-773162
NaFe(SO4)2,2.0944,-1.9512926394899421,mp-1102092
Li2Mn3CoO8,0.3865,-1.9510453707471271,mp-1287701
Co4OF11,0.6344000000000001,-1.9510412343749999,mp-763328
Li4Fe3Sn2Sb3O16,0.0,-1.950960929047617,mp-851349
Al2(FeO3)3,0.0,-1.9509585518750001,mp-1265553
Rb2Mo(O2F)2,0.6217,-1.9509107994444441,mp-1209419
BaSrNiBiO6,0.0,-1.9507288820000002,mp-1517390
Li2Mn3NiO8,1.399299999999999,-1.950653339675697,mp-771112
Zn2Cr3O8,0.7465,-1.9505897092307691,mp-1042832
Mg3As4W3O16,0.0,-1.950565605,mp-1041766
Mn3O5F,0.0,-1.9505613970881222,mp-752457
Li4Ti2Fe4(CoO6)3,0.3412,-1.9505467485483872,mp-775160
ZnCoSiO5,0.0,-1.9503225475000001,mp-1046656
Li4Mn3V2Ni3O16,0.7288999999999991,-1.950312913111659,mp-771254
KVH2SO7,1.9909999999999992,-1.950043397895832,mp-728123
FeBP2H5NO9,2.1163,-1.950018608931705,mp-766957
Ba2CaY(Co4O7)2,0.54,-1.9498587542307702,mp-1228573
LiFe(SO4)2,2.056699999999999,-1.9498370187499992,mp-771819
Fe2O2F5,0.8155999999999991,-1.949788103333332,mp-1190371
Li4V3Co3(TeO8)2,1.2845,-1.949751858095238,mp-771757
NaV3H6(SO7)2,2.147,-1.949742876495357,mp-644318
CaCu2(WO4)2,1.378899999999999,-1.9497189025000001,mp-1041453
Li4Fe3SbO8,1.3010000000000002,-1.9496088977083341,mp-780303
Bi3Sb(WO6)2,1.404199999999999,-1.9495015377777771,mp-1227520
Li4Co3Sn3(SbO8)2,0.3752,-1.949432016011905,mp-776240
Li3Mn3CoO8,0.6854,-1.949409002586207,mp-1314393
Mg3Te2Pb6WO18,2.559999999999999,-1.9494039989444432,mp-1222251
Li4Mn5CoO12,0.6466000000000001,-1.949344791954023,mp-771545
Ba2Ca3Tl2(WO3)4,0.0,-1.949094912898551,mp-1843918
ThMn4(CuO4)3,0.0,-1.949011755086206,mp-648519
K3FeF3,0.8008000000000001,-1.948749875249999,mp-690534
RbCr3O8,1.8319,-1.948668683124999,mp-30547
Ba3Fe10SnO20,1.7977999999999992,-1.9486437351470571,mp-1228526
Li4Cr3Cu2Sb3O16,0.0,-1.94861138047619,mp-774503
NaMn7O12,0.0,-1.948566162844826,mp-18999
CaV(GeO3)4,0.1006,-1.9485389072222221,mp-1521779
Li4Fe2C4SO16,1.5723,-1.9484719983641972,mp-781611
NiBPO6,0.089999999999999,-1.948309843941798,mp-1199032
Fe4P3H4NO12,3.3855,-1.948307801413689,mp-1197292
Tl2CoP4(HO2)8,3.4811,-1.948302525007681,mp-865272
CaCr2CuO7,0.2863,-1.948299117424242,mp-1042403
AlCo3F15,0.0,-1.948254995,mp-1041829
K3VMo3H4O15,2.9506,-1.948169202567308,mp-1197826
RbMoAsO6,2.4553000000000003,-1.9481381575,mp-16991
KMoAsO6,2.659399999999999,-1.94797412525,mp-560582
Na2Cr2O5,0.0,-1.947786628639846,mp-1099683
TiBi8W(ClO8)2,1.2218,-1.947677705833334,mp-1217203
Ba2Sr6Co3(CuO4)5,0.047699999999999,-1.947428987013889,mp-1099742
Cr(WO4)3,1.4946,-1.947416420624999,mp-1178444
Mg3Co3(AsO4)4,2.0683,-1.9473046811538461,mp-1047775
LiCo(WO4)2,1.1227,-1.946915806944443,mp-25289
Mn2V2PbO10,0.8996999999999991,-1.946873613724138,mp-1210744
Li3Co2(GeO4)2,0.060399999999999,-1.9468135613333342,mp-753224
Ba2Mg(NiO3)2,0.621999999999999,-1.946709705909091,mp-2215935
Na3Mn2(GeO4)3,0.0,-1.946435315875,mp-1013842
Rb4Mg(WO4)2,0.792899999999999,-1.946376009666666,mp-2232450
GaCu(WO4)2,0.9748999999999992,-1.946274754374999,mp-1212689
Tl2NiP4(HO2)8,4.8709,-1.9462261959754221,mp-1203479
VAsO5,2.1315,-1.946205387857143,mp-510763
BaY(CoO2)4,0.6661,-1.946199657589285,mp-646218
Na2CoCSO7,2.2413,-1.946123174604885,mp-772117
Ca2CoAs2(HO4)2,1.872199999999999,-1.9460377275,mp-1214418
KMnO2,1.8828999999999991,-1.946032971086926,mp-554900
BaAlCuWO5,0.0,-1.946002060555555,mp-1044976
Cd4MoW3O16,2.7918000000000003,-1.94592408375,mp-1226936
Li2Cr2NiO6,0.0,-1.94578814969697,mp-850867
Li4SbTe2WO12,0.0,-1.9456010888333322,mp-753933
Li4Cr3Ni3(SbO8)2,0.0,-1.9455057944047611,mp-774232
BaU2V2(HO3)4,0.0,-1.94532751297619,mp-1215083
Li5WNO4,3.5321,-1.9453142978787872,mp-772397
MgNiB2P2(H3O4)4,4.5703,-1.9452224518907562,mp-1224736
Rb2UCr(IO6)2,2.2192,-1.945091591111109,mp-558424
BiSbWO6,1.231099999999999,-1.9450153488888922,mp-1227556
BaCaFe2Co2O7,0.0,-1.944946904615383,mp-1228404
LiFeO2,1.712499999999999,-1.9449367477083321,mp-757614
Mn(PO4)2,1.154399999999999,-1.944933509746977,mp-753884
Li3Fe3WO8,0.012999999999999,-1.944658659999999,mp-1177706
Co2PO5,0.0,-1.9442250374553571,mp-1272384
Li4Ni3Sn3(SbO8)2,0.872499999999999,-1.944073769940476,mp-777462
Ca4Ni5(TeO6)3,1.817,-1.9437620406666651,mp-1046817
Li11(MoO2)12,0.414399999999999,-1.943705352269504,mp-1223041
CaFeBiO5,0.716399999999999,-1.9432842900000011,mp-1044379
Li4Co3Sn5O16,0.5487000000000001,-1.9430852610119052,mp-772511
Li2Ni3O3F2,2.517699999999999,-1.942978122166665,mp-753499
Sr3Fe2Ag2S2O5,0.0,-1.942875126666665,mp-1208725
KCr3O8,1.9034,-1.942798178520831,mp-19335
K2UCr(IO6)2,2.141,-1.9427757006666662,mp-553996
V2CoP2(H4O7)2,2.1211,-1.942734603306878,mp-24174
V2P2H6PbO14,1.2767,-1.942671282871427,mp-1179451
Li3V2CoO6,0.0,-1.942575744999999,mp-756859
ZnCr4O6,0.0,-1.9425493786363621,mp-1042605
NiSnP2O9,0.016799999999999,-1.942512573214286,mp-1044247
CsCr3O8,1.6554,-1.942454589554585,mp-573422
Sb3WC6O6F17,2.888,-1.942327993636362,mp-699606
NaFe2(MoO4)3,1.0892,-1.9422898272988511,mp-555752
V5Zn4(TeO6)3,0.132699999999999,-1.942231522333333,mp-1046564
V2Cd3O8,2.4714,-1.94218713653846,mp-1216762
V2Ni2PbO8,2.8852,-1.9419661321153852,mp-1207918
Li3Mn5(FeO6)2,0.147799999999999,-1.941820358317659,mp-849955
LaMnFe3(BiO4)3,0.0,-1.9417853936465521,mp-1223013
Ba2Mn2TlO7,0.0,-1.9416792645162841,mp-1048461
MgCr2O6,1.3102,-1.9416651738888882,mp-2223092
SrCaCr4O12,0.0,-1.941559659444444,mp-1521869
ZnFe2(PO5)2,0.0,-1.9414869999523812,mp-1043971
MgSb4(WO6)2,1.4817999999999991,-1.941420372894737,mp-2231000
Li10Mn23O48,0.0,-1.9413914209351502,mp-531323
Sr3Fe2Cu2S2O5,0.145999999999999,-1.941332755714286,mp-505310
CoPtF6,1.9373,-1.9411580149999992,mp-556492
CaCoMo2O7,0.0,-1.9411282031818171,mp-1042596
KEuMnBiO6,0.0,-1.940842486018105,mp-1520623
LiMnFeO4,0.6476000000000001,-1.9407857487520521,mp-753432
Ba3Sr5Co3(CuO4)5,0.0,-1.9407788453472221,mp-1076881
TiNi4GeO8,2.4005,-1.940748564880951,mp-1216682
Li4Fe2O5,2.2075,-1.9406634475757572,mp-760830
V2Co2PbO8,2.202299999999999,-1.9406107496153842,mp-1203643
Na2NiCSO7,3.0554,-1.940593599813218,mp-768598
K2Ni2(MoO4)3,3.2782,-1.940426785236842,mp-556279
Na3Fe2Mo5O16,0.7362000000000001,-1.940355878812997,mp-566333
U2V2NiO16,0.0,-1.940340843809523,mp-1200707
MgMn12Zn6O24,0.2225,-1.940084452562149,mp-1233432
LaZnCrCuO6,0.0,-1.9400548485,mp-1049069
Mo4O11,0.035299999999999,-1.940046706333333,mp-558247
NaFeSnO4,1.8559,-1.9399294959113291,mp-1221058
Co3P4O15,0.0,-1.939651557207791,mp-849725
Mn3VO8,0.7526,-1.939364657816093,mp-771315
Li4V3Co3(WO8)2,0.0,-1.939294563333334,mp-757526
Li8CoO6,1.073999999999999,-1.9392833037777781,mp-27920
V2HgO6,2.014299999999999,-1.9391908036111112,mp-17749
MnNiP2O9,0.0,-1.938996335170519,mp-1043595
K2Co2(SO4)3,2.7281,-1.9387713373421052,mp-21807
Li6CoO4,1.9349,-1.938767046590909,mp-18925
Li4VFe(TeO6)2,1.370299999999999,-1.938759641833333,mp-761819
CaW4O9,0.0,-1.9387241339285701,mp-1041414
ZnFe(GeO3)2,1.2894,-1.938722734250001,mp-1043588
Li2Ni2(MoO4)3,2.964299999999999,-1.938417592719297,mp-1211383
Li4Mn7O16,1.045899999999999,-1.93803297180928,mp-757932
Cr3TeO8,0.4312,-1.9378918397222211,mp-770187
Mo17O47,0.0,-1.937681924531249,mp-285
MgCr2(BiO4)2,1.242,-1.9375740780769222,mp-2218406
CaDyMn4O12,0.0,-1.937559646299489,mp-1520547
Li3Ni(SbO3)4,0.0,-1.9375054942499992,mp-849457
Li3Nb(CoO2)4,1.761299999999999,-1.9374995425000001,mp-772083
SmCoSe2ClO6,2.7367,-1.9374666313352271,mp-562836
CoPO4F,0.0,-1.937452378520408,mp-25444
BaMg2V6(Cu4O13)2,0.0,-1.937416776744187,mp-1228514