formula,bg,formation_energy,mp-id
LiSm(MoO4)2,3.066,-2.495415980277778,mp-1211145
V3FeSn2(PO4)6,0.0,-2.495357117440476,mp-850580
NdMoO5,0.338099999999999,-2.4952316432142863,mp-1210103
Li9Mn(SiO5)2,1.1311,-2.495191824451411,mp-1176791
BaTiMnBiO6,0.0,-2.495050769126437,mp-1227378
Li7Mn2Fe6(PO4)8,1.4371,-2.494930922115241,mp-1176968
Sr20Fe3Co7(MoO6)10,0.9566999999999992,-2.494920821100001,mp-744266
YTl(WO4)2,2.937099999999999,-2.494916040694445,mp-1207646
Li4Mn3Cr2Sn(PO4)6,1.915,-2.49487513124959,mp-1177389
CaFe2Sb2(PO4)6,2.870699999999999,-2.494762093081633,mp-698695
Li2MnNi(PO4)2,3.050299999999999,-2.494743772777387,mp-778744
Gd2Mo4O15,2.5091,-2.494723840555556,mp-555761
SmTl(WO4)2,2.744,-2.494713035277778,mp-18041
Sr3MnFeO7,0.0,-2.494605256077586,mp-1218478
KPrCrWO6,0.0,-2.494605091891665,mp-1516810
Sr4MgMn3(ClO4)2,0.0,-2.494596572155172,mp-2229285
Al2(WO4)3,4.6158,-2.494557517352938,mp-19516
MgTi2Tl2W2(O5F)2,1.3569,-2.494548063596492,mp-2230484
KMg3V3CuO12,0.8707,-2.4945249893624992,mp-1211434
Li2MnSn(PO4)2,3.0925,-2.494517268848816,mp-860889
Li2CoOF3,0.6992,-2.494454193809524,mp-754749
Sr3MnRuO7,0.0,-2.494403374410919,mp-1218426
Ca2Mn7Si10H12O35,2.7286,-2.49437340084117,mp-1228000
LiGd(MoO4)2,2.978399999999999,-2.494311470277779,mp-1210959
LiEu2Cr2O8,0.0,-2.494279741794872,mp-1235174
Sr2Ca2Mn3FeO10,0.0,-2.494136742919061,mp-1076197
MgMn3P3O13,0.0716,-2.494032964886083,mp-1047808
Mn3AlF15,0.0,-2.4940254017785852,mp-1358927
Li2VSn(PO4)2,2.7079999999999993,-2.493991050246598,mp-756985
Sr5Ca3Mn6(FeO10)2,0.0,-2.493927719655174,mp-1076601
Li3Cr(PO3)8,0.0,-2.493898218531745,mp-26329
NbFeO4,1.8298,-2.493895478333327,mp-31761
TiMn3Sb2(PO4)6,0.025399999999999,-2.493886643471766,mp-774911
KV2PO8,2.239,-2.493883175470237,mp-557947
CaEuDyNiO6,0.0,-2.493873161666666,mp-1519833
Sr2ZnNi2(PO4)4,0.0,-2.493850015542857,mp-1657996
Ca4YFe5O13,1.0376,-2.493826706413043,mp-650518
Ga2Fe(PO4)3,2.824,-2.493781489940475,mp-1224904
LiVO2,0.0,-2.493781042083334,mp-19340
Sr2YFe2O7,0.0,-2.493774752083333,mp-1047245
Mn3V(PO4)4,0.083799999999999,-2.493710791348521,mp-756523
LiLa4Ni3WO12,0.9354,-2.493662905873017,mp-1235780
CsLiMnP3HO10,3.0472,-2.493658630211653,mp-752778
Mn2Nb4Zn3O16,1.233699999999999,-2.493647235234483,mp-1373205
V2P4PbO14,0.0,-2.49352480707483,mp-22285
Li5V3Cu(PO4)4,1.6189,-2.493456737594417,mp-760808
Li5Co4(Si3O10)2,0.173,-2.493450009619049,mp-849656
V3Cu(PO4)4,0.2481,-2.493447936607143,mp-775334
TbNiO3,0.0,-2.493387772333331,mp-755865
CaCo3(P2O7)2,0.813399999999999,-2.493324412889611,mp-16803
Ti2In3FeO10,1.559499999999999,-2.493317806354166,mp-1217450
Sr7Mn7O20,0.0,-2.493278691926978,mp-1218659
Y5Mn3(NiO6)3,0.0,-2.493083647027349,mp-1324685
Li4TiMn2Ni3(PO4)6,2.2628,-2.493069982759646,mp-776756
Li3MnFeCo(PO4)3,2.4151,-2.493042212826648,mp-1177625
LaMoO5,2.3042,-2.492983328928571,mp-1211854
Mn9(Si2O9)2,0.0,-2.492905685689655,mp-737304
Ba8Mn8O21,0.8045,-2.492860230768872,mp-694888
LiAl2V4O8,0.9255999999999992,-2.492838585555556,mp-1235052
Sr2CrOsO6,0.0,-2.492751817999999,mp-1078354
Rb2Ti(WO4)3,2.8232,-2.492750830462963,mp-1219784
MnTl(PO3)3,4.3339,-2.492708632513782,mp-1196500
Fe3SiP5O19,1.7066,-2.4925535998469392,mp-555031
Li6Mn(BO3)3,1.2582,-2.492549104364792,mp-772526
TmFeGe2O7,0.0,-2.492423580454545,mp-19483
Li3Cr2P5O18,0.0,-2.49238650565051,mp-26684
Sr3Ca5Mn8O23,0.0,-2.492300358165339,mp-1247625
Li3Fe2(PO3)7,4.0258,-2.492234298863636,mp-759417
AlNiAg2F7,1.9697,-2.4922114857575752,mp-1214829
KNiAs3F18,4.6169,-2.492137192271739,mp-558932
Ba5Mn5O14,1.0239,-2.492107004568965,mp-759718
SrCa7Mn7CrO24,0.221199999999999,-2.4920402242629303,mp-1247623
Sr3Ca5Mn8O22,0.0,-2.492005253446008,mp-1247692
Li3Ni3OF7,3.6766,-2.4919661189285702,mp-753329
NaLaNiWO6,3.3392,-2.491925077137931,mp-1173651
KCeMnWO6,0.1443,-2.491905383518101,mp-1517613
Li5Si2NiO8,1.1305,-2.491865696041666,mp-753204
Li2CoOF2,0.1825,-2.491846323611111,mp-760048
Mn2V3Cu(PO4)6,0.0,-2.491815557325532,mp-776003
Li6V2O5F2,1.8051,-2.491786425333333,mp-764951
SrEuFeSbO6,0.0,-2.4917160905,mp-1519899
MgZr(MoO4)2,1.5323,-2.491658817083335,mp-2218131
Sr2La2TlNi2O9,0.0,-2.491650067395834,mp-1218757
Li8TiFe7(PO4)12,0.0,-2.491644083496241,mp-775101
LiNd(MoO4)2,3.4291,-2.491612358402779,mp-1222327
MgV4O10,1.5242,-2.4916120103333332,mp-2224992
Ba2CoGe2O7,2.124,-2.4915868775,mp-1190827
Ca7MgMn7FeO20,0.0,-2.49153829411159,mp-1099831
Li4Mn5Fe(PO4)6,0.321099999999999,-2.491450573521141,mp-776660
Li4Ti3Fe3(WO8)2,0.9861,-2.49144564797619,mp-775133
Li3Ni2P5O16,4.340800000000001,-2.491245693777472,mp-26191
K5Na3Nb4(WO6)4,0.0,-2.491192930009698,mp-1099943
Li11Mn12(BO3)12,0.0,-2.491166317209002,mp-766526
Ca7MgTiMn7O24,0.0,-2.490973224346264,mp-1076543
V4O7,0.5857,-2.490850337272725,mp-555597
Mn3(P2O7)2,0.649,-2.490827219398311,mp-772322
BaTmFeCuO5,0.0,-2.4907873227777793,mp-1205946
BaV2CdO7,3.1179,-2.4907749781818183,mp-22822
SrCa7Mn8O23,0.0,-2.4907687556012372,mp-1247632
Ba2BiWO6,1.960399999999999,-2.4907615329999993,mp-1520885
LiMn5O3F5,0.8525,-2.490677514499179,mp-759115
Na3MnBPO7,1.568299999999999,-2.490663470836807,mp-768574
Na6U2Mo4O21,2.0982,-2.490502361614419,mp-559430
Sr2Al4Fe3P4(H2O13)2,0.004199999999999,-2.490435855199335,mp-1209043
RbFeF3,0.0,-2.4904115045,mp-554465
LiVPHO5,1.8043,-2.490393199080688,mp-753560
La2Mg(NiO3)2,2.3998,-2.490383331363635,mp-2217604
Mg6CoCuO8,0.0609,-2.490309103125,mp-1032153
Ca2Fe3Si3O14,0.0245,-2.490263348181818,mp-1214297
SrFeNi2(PO4)3,1.4127,-2.490221441522555,mp-1195488
Li5Fe4(P2O7)4,1.4982,-2.490190412084655,mp-849492
Li4Ti2Mn3Cr3O16,0.6505999999999991,-2.490164277992611,mp-770152
Li4Ti3Cr2Fe3O16,0.0,-2.489963857619047,mp-771902
BaMnO3,0.8952999999999991,-2.489944874252874,mp-18840
NaNdCoWO6,2.4461,-2.48992279138793,mp-1210062
NaPrMnWO6,1.1303,-2.4898946800977,mp-1522211
BaLuFeCuO5,0.0,-2.4898480401851852,mp-611378
TlCrP2O7,2.8078000000000003,-2.489753267056277,mp-17021
Ce2Mo4O15,0.055899999999999,-2.489722987142856,mp-559828
SrLaFeRuO6,0.0,-2.489706637,mp-697833
LiTi2Mn3O10,1.497599999999999,-2.489483015237068,mp-753655
KCe(MoO4)2,0.0,-2.4893943214375,mp-1223568
LaSm(CoO3)2,0.7027000000000001,-2.48937807,mp-1075930
LiMn4P7O24,0.9861999999999992,-2.489357183265486,mp-1101573
VFeP2(O4F)2,1.2924,-2.489254396020408,mp-777408
Sr3Fe2MoO9,0.7011000000000001,-2.489227529666668,mp-1218650
Sr2Ca6Mn8O23,0.0,-2.489134269960211,mp-1247627
SrGd2(FeO3)3,0.0,-2.489024522333333,mp-1218646
Li3Fe(OF)2,2.4911,-2.4890234628125,mp-755329
Mn4(PO4)3,0.0,-2.489017405823827,mp-25970
Li2ZnFe(PO4)2,3.6034,-2.488912064889455,mp-756192
ErBiW2O9,2.543399999999999,-2.488767008461538,mp-1983109
Nd2CoRuO6,0.0,-2.4887151305,mp-1210035
MgMn2(B4O7)2,1.093,-2.488580344967815,mp-1234300
Li8Mn7Sn(PO4)12,0.3447,-2.488459139117082,mp-1176895
SrV6O15,0.0158,-2.48845824681818,mp-5206
Sr3CaMn2FeO10,0.0,-2.488433631521298,mp-1218360
KLaCeNiO6,1.3357,-2.488349694224999,mp-1517811
Mn4P4O13,3.6706,-2.488107862395028,mp-675297
MgTiV4CoO12,1.5535,-2.488106462543859,mp-2231031
V3Ni2P6WO24,1.7489,-2.48804289077381,mp-1101187
La2MnFeSe2O3,1.516,-2.488028983068727,mp-1223250
Li8NbNi3(PO4)6,0.2899,-2.487991808202947,mp-759457
Ba3Y4(NiO5)3,0.0,-2.487939516599999,mp-1376017
K2Sm2Mg(MoO4)4,1.8645,-2.48793155998,mp-1233579
Li2MnO2F,1.402699999999999,-2.487877149516282,mp-1280554
GdTl(WO4)2,2.9492000000000003,-2.487807592361111,mp-1212540
LiVBO3,1.7400000000000002,-2.487784760138888,mp-756785
Sr2La3Fe4CuO15,0.0,-2.4877576458,mp-1218789
NaCe(MoO4)2,0.113799999999999,-2.487671033448276,mp-1221085
Mn3P3PbO12,0.8563000000000001,-2.48736967330114,mp-1202942
Nd2NiPtO6,1.8452,-2.487354999499999,mp-1209936
MgCr2(PO5)2,0.391299999999999,-2.487343506285715,mp-2232665
Al2V2O7,0.0,-2.487275749545455,mp-1261949
SrEuCoWO6,0.0,-2.487275003500001,mp-1521177
Mn13Al4Si2(SbO14)2,1.0468,-2.487269709451091,mp-560917
Li2V3CrO8,1.110199999999999,-2.487203856190476,mp-1302892
KFePbOF6,1.427299999999999,-2.487174647475,mp-818579
MnP6(WO8)3,1.1303,-2.48712215017024,mp-776341
TiZnNi(PO4)3,0.0,-2.487002832347883,mp-1044366
Ho2Cu(WO4)4,0.0,-2.486866519565216,mp-1212724
V3Zn(P2O7)2,0.450099999999999,-2.486861505162336,mp-1044206
Sr4LiMn2Ga2O11,0.0,-2.48675303195977,mp-1235278
V6O11,0.739899999999999,-2.486746045,mp-30518
Mn3Nb2ZnO9,1.905799999999999,-2.486674538252873,mp-557349
Na6V2B4SO16,0.0,-2.486658947325604,mp-781738
Na2FeSn(PO4)3,2.4688,-2.486617019825641,mp-1221475
Mg2Fe2(SiO4)3,0.0,-2.486269701578947,mp-1249492
La2MgFe2(MoO6)2,1.0145,-2.486236675526316,mp-2230275
CsMnP3HO10,2.8052,-2.4862314289227982,mp-23871
Ba2Mg(MoO4)2,1.4981,-2.486186247307693,mp-2218462
ErFeGe2O7,2.6630000000000003,-2.486125136818181,mp-1213525
Li2Mn3P5O18,0.7114,-2.486073841381217,mp-1177915
Ba2YFe3O8,0.0,-2.485970354999999,mp-558860
LiMn10(PO4)7,3.0141,-2.485945063590079,mp-759206
Li3TiMn2O6,0.5592,-2.485938660349617,mp-1292456
BaNdNiSbO6,2.824,-2.485938296249999,mp-41829
Ba2FeReO6,0.0,-2.48591545325,mp-31756
Mn2P4O13,1.1808,-2.485851198522815,mp-770561
K2Th(MoO4)3,3.633099999999999,-2.48575743275,mp-556638
Mg6CdCoO8,2.6072,-2.4854795999999992,mp-1031978
Li4Mn3Sb(PO4)4,0.279599999999999,-2.485186048774923,mp-753896
Li8Mn7Fe(BO3)8,2.9599,-2.4851029705316092,mp-775268
Co3B11HO20,2.175,-2.485027809416667,mp-1199160
Cr2P4Pb3O16,2.4535,-2.484856397942857,mp-704115
Li7Mn8(BO3)8,0.233099999999999,-2.484817552555637,mp-779028
Li3ZnFe2(PO4)3,3.6957999999999993,-2.484813785663265,mp-1223044
Ca2VIrO6,0.4312,-2.484801397,mp-1379764
DyMoO5,2.352,-2.48476616095238,mp-1213168
PrMg(WO3)2,2.0064,-2.484764637166667,mp-1044743
YMo(WO4)2,1.8828,-2.4847376837499993,mp-1042328
Li9Co3P8O29,1.2083,-2.484639045962098,mp-583985
Sr10Fe3Co2(MoO6)5,0.0,-2.484638619000001,mp-1218936
LiVP2HO8,1.5437999999999992,-2.484550525297618,mp-1576561
Li3CrP2HO8,2.818199999999999,-2.484548176702381,mp-762840
V2Fe3(SiO4)3,0.0,-2.48443526175,mp-21791
LiEu2CoO4,0.0,-2.484417795416666,mp-1236244
Li3P5(WO6)4,3.516,-2.484404605367064,mp-1177533
Li8Mn7Sb(PO4)12,0.0,-2.484361635498661,mp-1176842
MgNbV3O10,0.0151,-2.484283822333333,mp-2232233
NdTl(WO4)2,3.252,-2.484275819236111,mp-1209958
Ba8Mn8O23,1.0391,-2.484247075857648,mp-760130
AlV(WO4)2,1.316999999999999,-2.484224144166666,mp-1042105
Ba3FeO5,0.0,-2.484196669444442,mp-30093
MnV3(PO4)6,0.7020000000000001,-2.484092525758476,mp-774413
LiV6O11F,0.8497,-2.484045973333333,mp-1235260
Ho(MoO3)2,0.9817,-2.4840094105555552,mp-1041198
Rb2Th(MoO4)3,3.616,-2.484004182499999,mp-1195528
LiMo4P7O24,3.407299999999999,-2.483853926412037,mp-585332
Li6FeSn3(PO4)6,2.420699999999999,-2.483800107571427,mp-1176997
Li10Mn(SiO5)2,0.9872999999999992,-2.48379963962019,mp-780653
Sn3P6WO24,2.6987,-2.483796874789916,mp-774417
Li2CeSm(MoO4)4,0.139499999999999,-2.483759578402777,mp-1238771
Li2V2Cu(PO4)3,0.441199999999999,-2.483730046029762,mp-759398
KBaNaCaTi4Fe8Si8(O19F)2,0.0,-2.483717186436917,mp-1213447
LiV3O6,1.1511,-2.483645458833332,mp-1176549
MgTi8(NiO3)8,0.0575,-2.483639849308943,mp-2220227
V8O15,0.6674999999999991,-2.483571645869564,mp-556566
W(OF)2,1.6949,-2.483548475999999,mp-759764
Mn2AlO4,0.0,-2.483427134051725,mp-768538
Sr4MgMn2(SO3)2,0.0,-2.483422983057471,mp-2228629
CaNi3(P2O7)2,3.7349,-2.483307683571428,mp-19473
SrLaMnCoO6,0.0,-2.483282500293104,mp-40761
CaVAsO5,1.3158,-2.483240219374999,mp-1375686
EuZrFeBiO6,0.0,-2.4831411075,mp-1522264
K3Fe2(PO4)3,2.2618,-2.4830161415339282,mp-581237
Dy2Cu(WO4)4,0.0,-2.482997972971012,mp-1213479
Pr2Mo4O15,3.2004,-2.482949909206349,mp-560897
LiMn4(P2O7)3,0.0,-2.4828882973567072,mp-776632
Li2PWO6,2.849,-2.482848292880953,mp-757392
Li2P8W3O29,2.1807,-2.482790629138321,mp-776995
Fe6OF11,1.525,-2.482764761111111,mp-756379
Li3TiV4O8,0.0,-2.482733735208334,mp-754706
KCoAs3F18,2.8102,-2.482657940749999,mp-1194626
Na2LiVPO6,2.3545,-2.482626129612256,mp-760057
EuMoO3,0.0,-2.482626111999999,mp-1184411
V2Zn3(SiO4)3,0.0,-2.482586457250001,mp-1251134
EuV2BiO8,0.0,-2.482586112916667,mp-1225151
LaMgCrBiO6,0.0,-2.482505203,mp-1049203
Mn4O3F5,0.0,-2.482484363477012,mp-752492
LaFeGe2O7,2.7611,-2.482428621818181,mp-19980
Li5Mn6(BO3)6,0.422099999999999,-2.482414127407225,mp-780308
TbMoO5,2.335,-2.482362786666666,mp-1208410
Li4Cr(PO4)3,1.3348,-2.482280206863095,mp-764927
KDySnWO6,2.522599999999999,-2.4822156423916653,mp-1516809
Ca33Mo27O80,0.0,-2.482204300214285,mp-1229268
Li8Mn7Cr(PO4)12,0.0,-2.482193770103923,mp-776829
Li6Mn5Fe(BO3)6,2.6092,-2.482164551657087,mp-778872
La7SmCo6(CuO12)2,0.0,-2.4821057234999993,mp-1076076
Na3Fe(PO4)2,1.6539,-2.482099643815974,mp-19028
Rb2HgMoF6,0.0,-2.48205116775,mp-1112226
CaV2Ni2(P2O9)2,1.0623,-2.482042110502647,mp-1333286
BaSrMn2O6,0.789099999999999,-2.481979802586207,mp-1227420
CaFe2P2HO9,1.201299999999999,-2.481975573869046,mp-1200109
Ca2CuWO6,0.0,-2.481847409000001,mp-1368020
Li4Ti3Fe2Sn3O16,1.3487,-2.481748588511904,mp-775897
Rb2CoF6,1.179,-2.481685928333333,mp-560878
Tm2Mn3Sb3O14,1.2092,-2.481681711536049,mp-1216807
RbNa2CoF6,3.2454,-2.481677368025862,mp-1110626
LiMn3(P3O10)2,0.615799999999999,-2.481390695999452,mp-758642
Li6Mn3Sb(PO4)6,2.0149,-2.4813365480412553,mp-1177012
KEu(WO4)2,0.0,-2.4812939589375,mp-640227
V2Cd(PO5)2,2.2004,-2.48092574045238,mp-19510
LiMn2P3O11,1.012299999999999,-2.4808829860661152,mp-25829
LiMoP4O13,1.4889,-2.480874908126567,mp-26401
Nb2Zn2CrO8,1.0557,-2.480852163461539,mp-1046856
RbFeCuF6,0.0,-2.480824043055555,mp-1219597
SrNdNiSbO6,2.720099999999999,-2.480704970749998,mp-1518545
Eu2CrInO6,0.0,-2.480695680666667,mp-1517471
LiCdCoF6,0.0,-2.480673156481481,mp-558057
KTbSnWO6,2.084,-2.480637869391666,mp-1520163
FeP6(WO8)3,2.0933,-2.480630746701681,mp-850225
Li2NbVO4,0.0,-2.480621668958333,mp-755466
Ba2MnTeO6,0.9485999999999992,-2.480495740459771,mp-18992
Li6VSb3(PO4)6,1.6321,-2.4804319631964282,mp-757309
Sr2NiMoO6,2.3095,-2.480371825499999,mp-18940
BaDyFeCuO5,0.0,-2.480258880740739,mp-1207068
MgMo2P2O9,2.616799999999999,-2.480157884591837,mp-1040870
Y2MgMn2S2O5,0.0,-2.480126384238506,mp-1046607
Li7Fe7P6(O8F)3,3.3326,-2.480085135663626,mp-760108
V7O13,0.0,-2.4800389505,mp-27151
Er2Mn3Sb3O14,1.1665,-2.480006437445139,mp-1225740
DyFeGe2O7,1.831799999999999,-2.479939324696968,mp-622558
Nd2Te2W2O13,3.417399999999999,-2.479931707807018,mp-554313
LiFePO4,3.922399999999999,-2.479896014710883,mp-19017
MnV3Sb2(PO4)6,0.0035,-2.479819859049672,mp-767358
EuMgSnWO6,0.232599999999999,-2.479769923500001,mp-1516717
Sr2MgMnMoO6,1.505199999999999,-2.479653871175549,mp-2217329
Li4Ti4Mn(Fe2O9)2,1.0594,-2.479500795470893,mp-767373
RbMnP3HO10,1.3746,-2.4794672781631,mp-866712
LiFe2P3O10,3.1686,-2.479408053891369,mp-27007
K2Fe2P2O7F2,3.5208,-2.479326232085715,mp-1182723
Pr3Fe5O12,1.8327,-2.47925301875,mp-1197438
Li4Cr3Cu(PO4)4,0.0,-2.479182574710885,mp-1177451
SrCa3Mn4O12,0.0,-2.479140221586207,mp-1094044
P4WO12,2.9507,-2.479124770063024,mp-849758
Sr20FeCo9(MoO6)10,0.219899999999999,-2.479082471099999,mp-706242
Ca2Mn2V3AgO12,2.0088,-2.478970691126436,mp-532537
KMo2(PO4)3,0.8635,-2.478907365621031,mp-560013
Sr2AlGaFe2O7,1.267099999999999,-2.4789067625,mp-1048505
Fe(PO3)3,2.793399999999999,-2.4788503990201463,mp-541930
K2FeHgF6,0.0,-2.4787819927,mp-1111935
Ba2MgVFeO6,1.87,-2.478661074999999,mp-2223880
SnP6(WO8)3,0.0,-2.478592717436974,mp-771945
MgFe3(P2O7)2,3.5532,-2.478454498344154,mp-1043946
BaMgV2CuO8,0.1293,-2.478418851153845,mp-1228071
Mg2V2O5,0.0,-2.478373904444444,mp-1367520
Mg3CoO4,0.0,-2.478348120625,mp-1099254
Li4Fe3P3O12F,3.586899999999999,-2.478303889011386,mp-759070
Mn5O3F5,0.7121000000000001,-2.478290895358091,mp-1277673
Li4Ti3Mn3(FeO8)2,0.485199999999999,-2.478265615254516,mp-770508
Li6Fe3Sn(PO4)6,1.6795,-2.478194131571428,mp-778734
SrNdFeRuO6,0.0,-2.47815658325,mp-1218130
Eu2CoWO6,0.0,-2.478047705,mp-1520430
Li4Nb3V3(SbO8)2,0.2586,-2.4779916140476193,mp-776001
Li2CePr(MoO4)4,0.120999999999999,-2.47797286326389,mp-1222777
LaMgCrSbO6,0.0,-2.477888207499999,mp-1044947
Mn3Zn(P2O7)2,2.6479,-2.47788466533475,mp-1043615
Li2NiOF2,2.3369,-2.477794064444444,mp-753392
TbFeGe2O7,2.6695,-2.477635888333332,mp-744184
PrTl(WO4)2,3.330699999999999,-2.477551839583334,mp-1209389
LiP3W2O13,3.3183,-2.477413577619047,mp-758410
SrCa7Mn8O24,0.303799999999999,-2.4774067595237073,mp-1247638
Li4Fe3P4O15,3.7823,-2.47740272709249,mp-705404
NaLaCeNiO6,1.426599999999999,-2.477306206637929,mp-1523368
Li2VO3,1.6683,-2.477306122361112,mp-774192
Mo(PO3)5,0.1494,-2.477226710153062,mp-504210
Sr2ScFePO3,0.0,-2.477015394330356,mp-1189114
Ca2HoMn4BiO12,0.0,-2.476970103336207,mp-1227572
FeP4O11,3.5753999999999992,-2.476959781629463,mp-759361
PrMoO5,0.122799999999999,-2.476638710952382,mp-1209482
Li3Cr4P9O32,0.6013000000000001,-2.476605159828869,mp-705371
Li11V16O32,0.9689,-2.476581457909605,mp-758440
Fe2B(PO4)3,2.025,-2.476507414616402,mp-1197728
Na2Mn2Cd(PO4)3,0.081399999999999,-2.476416242377463,mp-1210502
Li5Mn3Bi2(PO4)6,0.010799999999999,-2.476297943457923,mp-775601
NaMnFe(PO4)2,1.5082,-2.476233769122773,mp-1173592
Sr4Fe3ReO12,0.0,-2.476204356875,mp-1218429
RbEu(WO4)2,0.0,-2.476119666875,mp-1209558
LiPr(MoO4)2,3.092399999999999,-2.476103558750001,mp-1211147
V2Co(PO5)2,0.083499999999999,-2.475975886285714,mp-18729
Mn3O2F5,1.0419,-2.475973737379311,mp-759619
Li4Ti3V2Ni3O16,1.6532,-2.475815008690477,mp-776519
KYSnWO6,2.1069,-2.4758118202249992,mp-1522868
LiVCO3F2,2.1268,-2.475746494479166,mp-766478
Ba4NaMn2O9,0.0,-2.475676866806753,mp-554477
Li7V5O12,0.770099999999999,-2.47563686263889,mp-766239
VFe(P2O7)2,1.2889,-2.475534951678572,mp-767722
NaMo2(PO4)3,0.0,-2.4754355577948832,mp-541674
Li2Fe3(P2O7)2,3.922399999999999,-2.475430946749481,mp-26985
SrFe3P4HO16,2.3865,-2.475343513792856,mp-746739
Sr2CoMoO6,0.0,-2.475307321000001,mp-510546
NaCa2V3(CoO6)2,2.1268,-2.475092731818965,mp-694918
Li4Mn5Sb(PO4)6,0.016899999999999,-2.47497786977114,mp-1177350
Mn4Si3AsHO13,2.2148,-2.474925297635189,mp-733680
Li6MnFe3(PO4)6,1.1904,-2.474911483394703,mp-771062
Sr2Sm2TlNi2O9,0.0,-2.4747482167708332,mp-1218719
MnSn(PO4)2,1.6824,-2.474738992684729,mp-775753
SrMgFeO3,1.6425,-2.474432801666667,mp-2227860
SmBiW2O9,2.6689,-2.474325542115385,mp-1200917
Cs3TlNi3F10,4.909999999999999,-2.474274077205876,mp-1226140
Li4TiV4Cr4O18,1.3494000000000002,-2.474273304892473,mp-767927
Co3B7O13F,2.2897,-2.474201342673611,mp-1197938
Li6NbCo3(PO4)6,0.3889,-2.474057359196428,mp-758592
K2Gd2Mg(MoO4)4,1.549399999999999,-2.4739461307800013,mp-1233513
Rb2TlCoF6,2.0341,-2.473937786833334,mp-1113650
Li2VPCO7,2.2891,-2.473937374275793,mp-770949
Er2MgTl2(WO4)4,2.102499999999999,-2.473862746866666,mp-1234838
VZnPO5,2.3139,-2.473775475892857,mp-1277731
VSn(PO4)2,0.0405,-2.473747787440475,mp-753543
V3Fe(PO4)6,1.192,-2.473611010231092,mp-772911
Li4Co3OF11,1.0803,-2.473533263859649,mp-754688
NaV3P2O13,2.1674,-2.473475569771844,mp-776555
LiMo2P3O11,3.4971,-2.473444413368347,mp-25827
Li4Mn3(BO3)4,0.6435000000000001,-2.473443224730135,mp-766499
Li2MnPO5,1.4847,-2.473274624915618,mp-752743
Ca4MnFe3O10,1.4301,-2.47326208571839,mp-1227204
BaYV4O7,0.0,-2.4732530134615383,mp-1048392
SrEuCoO4,0.0,-2.473217255000001,mp-1218291
KMnP3HO10,0.0,-2.4731846151787242,mp-510562
KPrDyFeO6,0.271,-2.473109339058332,mp-1522577
Li2V2SiGeO10,2.2268,-2.473053400104167,mp-756174
Cs2CoF6,0.0,-2.472950881034483,mp-610706
Sr2CuWO6,0.0,-2.472931554,mp-510294
Na3V(BO3)2,0.0,-2.472895422080938,mp-773603
KV6O11,0.3273,-2.472864422902776,mp-17353
NaNi(PO3)3,4.7543,-2.4728205488612782,mp-557716
K2TlCoF6,2.5182,-2.472797150783334,mp-1111102
MgVCr2Fe3(PO4)6,1.1895,-2.472785644401544,mp-1234917
Li4V2P4H3O16,0.6004,-2.4727623288156813,mp-752967
Li3Fe(BO3)2,2.5875,-2.4727302313194452,mp-770825
Li3Mn4(BO3)4,0.2097,-2.472649291089456,mp-776994
K2FeP2O7,4.1612,-2.472393431982142,mp-1191511
LiPWO5,2.2712,-2.472349700997024,mp-757577
Eu2(WO4)3,0.0,-2.4723307520588222,mp-540684
Ca2YFe3(SnO6)2,0.0,-2.472292858624999,mp-694869
Mo4P7O24,0.893999999999999,-2.472178156357142,mp-26744
BaSrV4O12,0.149399999999999,-2.47213255888889,mp-1522965
Mn5P3ClO12,3.0688,-2.472057838503988,mp-1210668
Na6Mn7Fe6(PO4)12,0.8310999999999991,-2.4720475289811072,mp-1173834
Li10V(SiO5)2,0.853599999999999,-2.471980428188406,mp-765779
KZrInWO6,0.489899999999999,-2.471966453391667,mp-1522688
Ba12MnRu5(ClO6)4,0.0043,-2.471793944085457,mp-1228797