formula,bg,formation_energy,mp-id
BaGdCrFeO6,0.0,-5.153567591,mp-1518724
Na3U6VF30,0.0,-3.827232110958292,mp-1195908
NaHf2VF11,3.1712,-3.8249189550919542,mp-554121
BaCaVF7,2.6214,-3.7959010862500002,mp-1047952
Ba2Mg2MnF10,4.4494,-3.7776360565287352,mp-1214672
Lu6WO12,3.4519,-3.776021891578945,mp-756479
BaCaCrF7,3.7209,-3.77080516575,mp-560577
SrCaCrF7,4.2453,-3.7707881975,mp-1208686
HfMnF6,4.9479,-3.7625554997413793,mp-1205992
Tm6WO12,3.3673,-3.757400671578949,mp-756123
Na3U6CrF30,0.197,-3.748511319978447,mp-1195887
Ba2YMn2F11,3.7169,-3.729533731720546,mp-1049236
NaZr2VF11,2.163,-3.727254019091953,mp-558441
Ba2YV2F11,2.467999999999999,-3.7222729453125,mp-1044893
NaZr2MnF11,4.2265,-3.720106141620689,mp-561353
Zr15VO32,1.7356,-3.714882552083333,mp-765485
BaMnAlF7,4.6514,-3.714422612043102,mp-1214444
HfVF6,3.2213,-3.7037399425,mp-557938
BaMgVF7,2.529,-3.696001451249999,mp-1047850
Sr5Cr3F19,3.3272,-3.6955015525925923,mp-1173208
Ba5Cr3F18,1.433099999999999,-3.691702171778845,mp-1204444
Zr11VO24,1.7607000000000002,-3.68198832,mp-861249
Ba2YCr2F11,3.2403,-3.678893805312499,mp-1049234
SrVF5,2.3771,-3.6758770978571422,mp-30297
Ba2CrF6,2.4321,-3.674939850555555,mp-1214706
YVF5,2.691,-3.673272302142858,mp-1392327
YMnF5,4.044,-3.6662396547044342,mp-1402653
Er10W2O21,3.078999999999999,-3.664397379166666,mp-554807
ZrMnF6,4.4442,-3.661806588491378,mp-1206098
Na3U6FeF30,0.2176,-3.6577409691034473,mp-1194946
CaVF5,0.0,-3.657193422142856,mp-1401720
Ho6WO12,3.4002,-3.6564756473684192,mp-19065
Y6WO12,3.4343,-3.6557847515789472,mp-19005
Lu6MgWO12,0.0,-3.65408088425,mp-2229986
NaSr2CrF8,4.0664,-3.651948126781608,mp-561198
ZrVF6,2.407299999999999,-3.646671824375,mp-557686
Ba2CaMnV2F14,1.2483,-3.638905167146551,mp-1214724
BaMgCrF7,4.165,-3.6385434610000003,mp-1047859
NaZr2FeF11,3.4179,-3.6377325630919533,mp-22242
Ba2AlV2F11,2.4649,-3.634177167187501,mp-1044800
Tm6MgWO12,0.0,-3.6315465082500022,mp-2230452
Ba2Mn2AlF11,0.068799999999999,-3.627614539220546,mp-1044811
La6WO12,3.4959,-3.6233294852631572,mp-755135
Zr9VO20,1.714,-3.620520510000001,mp-759463
Zr7VO16,1.762,-3.619999341875,mp-861179
YCrF5,1.6172,-3.618027963571428,mp-1395840
Gd6WO12,2.7937,-3.617686128421053,mp-753421
BaCaMnF7,0.0359,-3.614458342043103,mp-1047948
Ba2AlCr2F11,0.0,-3.601217216979167,mp-1044788
BaCaMoF7,4.6469000000000005,-3.59872223775,mp-1047929
Y10W2O21,3.142,-3.594930444393939,mp-556220
ZrCrF6,2.6153,-3.5933790012499998,mp-2459069
Ba2YFe2F11,3.9453,-3.588503543020833,mp-1049241
Ho6MgWO12,0.0,-3.587082607249996,mp-2229997
La5Ti4FeO17,0.0,-3.58698732771605,mp-641117
Ba2CaV2FeF14,1.021399999999999,-3.58314929575,mp-1214736
NaZr2CoF11,3.482599999999999,-3.58211852175862,mp-22091
NaZr2NiF11,1.8738,-3.577501869758632,mp-554702
BaCrF5,3.5561000000000003,-3.576210748928577,mp-541031
Ba2MnAl2CoF14,2.972299999999999,-3.574526734396551,mp-1214777
BaCaFeF7,3.9013,-3.5729431895,mp-1047946
SrLiVF6,2.6226000000000003,-3.57263433537037,mp-1208625
Na3Np6FeF30,0.003499999999999,-3.572231408790948,mp-1211073
RbZrMnF7,2.3454,-3.570381424043103,mp-555669
KZrVF7,2.4489,-3.569601635475,mp-554835
BaLa8Co(Si3O13)2,2.6382000000000003,-3.56873703047619,mp-1228420
LiCaVF6,2.6309,-3.566594360925926,mp-1211094
CaCrF5,3.2323,-3.561919715000005,mp-556748
CaMnF4,0.9425999999999992,-3.561836437155172,mp-1398106
BaMnF4,2.3195,-3.558479204655171,mp-556850
CaVF4,1.9332999999999991,-3.553353985833332,mp-1387359
Nd5Ti4FeO17,1.7847,-3.552762297716049,mp-557307
La3Ti3CrO12,0.3308,-3.552151340921053,mp-755384
SrCrF4,3.6107,-3.543301309999999,mp-558281
SrCrF5,3.0298,-3.542727267321428,mp-1209037
Ba2MnAl2CuF14,0.8823000000000001,-3.5423848621465512,mp-1214705
Ba2CaV2CoF14,2.5605,-3.540057744499999,mp-1203415
Ca3Y9Al18CrSiO48,0.5981999999999991,-3.5388778815,mp-720216
Pr5Ti4FeO17,1.7721,-3.53588052728395,mp-555502
CaCrF4,0.0,-3.535186316666667,mp-1388114
NaSrVF6,2.5448,-3.533828349597701,mp-1210039
CsBa2Cr2F11,3.4705999999999992,-3.527435293415948,mp-865412
Ba2NiF6,0.7181000000000001,-3.526653002222222,mp-556041
BaNaVF6,2.5539,-3.5201100348754792,mp-1214563
Sr2V2OF10,0.0,-3.5185840745,mp-1209027
BaCaWF7,4.3393999999999995,-3.51751464725,mp-1047958
BaMgMnF7,1.7811,-3.516194081543104,mp-1047862
Sr5Fe3F19,3.6135,-3.512167275185185,mp-1173207
Zr4MnO9,2.9462,-3.51104348520936,mp-763464
SrLiCrF6,4.3642,-3.510632277037036,mp-1208634
La7V2BO17,2.8406,-3.509595141080248,mp-1212487
LiCaCrF6,3.7879,-3.503914989259259,mp-556792
BaMgMoF7,4.7534,-3.50267215925,mp-1047848
YFeF5,2.8958,-3.501270193571429,mp-1405645
Ba2CoF6,0.0,-3.499635145555556,mp-555162
La11V4O26,0.0301,-3.498757873780488,mp-29041
ZrFeF6,3.2465,-3.49835055375,mp-562418
Ba2AlFe2F11,3.8605,-3.498076629062499,mp-1044845
La6MgWO12,2.752300000000001,-3.494618953249999,mp-2230066
Ba2YCo2F11,3.3276,-3.493987535104167,mp-1049278
Ca9LaTi9MnO30,0.0,-3.493289923058621,mp-694954
CaVF6,0.0,-3.492439452500001,mp-1391106
BaLiCrF6,3.9628,-3.492257260648148,mp-560949
Gd6MgWO12,0.0,-3.486418677249999,mp-2230099
Na5Zr2MnF15,3.851,-3.485029353253373,mp-560480
AlVF5,3.1768,-3.479429516428573,mp-1248567
Ba2YNi2F11,5.0025,-3.478945454895834,mp-1044915
Ba2CaV2CuF14,0.1441,-3.47870105425,mp-581167
MnAlF5,4.4125,-3.4731950239901472,mp-28850
BaMgFeF7,3.7303,-3.4727462095,mp-1047894
La2TiMnO6,2.213199999999999,-3.465758080876438,mp-1223138
Zr3NbCr4F24,0.221699999999999,-3.4637713996875,mp-1216109
BaNaCrF6,4.3208,-3.459497335014367,mp-1214564
Ba8Ca5Mn3Fe8F56,2.2256,-3.4587245304224132,mp-1228779
Na2La7Ti8Mn2O30,0.292499999999999,-3.4586616708221922,mp-1173810
BaSc8Ni2O15,3.8545,-3.456677979423077,mp-1228045
Ba2V2F11,0.9068,-3.45182685988889,mp-1040790
BaVOF4,2.7946,-3.449738876785715,mp-556379
Er3Al3Cr2O12,3.539499999999999,-3.448679456874999,mp-1213214
LiLa3Ti3CrO12,0.0,-3.444271097916667,mp-755440
KCaV2F9,2.2395,-3.444210859403846,mp-1212044
Ba3Na2Cr4F20,3.5814,-3.443819873026159,mp-558077
Dy2VO5,1.747399999999999,-3.443070702291667,mp-1200746
Ca5Y7Al16Cr2(SiO24)2,0.081399999999999,-3.442913215125,mp-534807
MgVF5,2.378,-3.441870932857142,mp-1388832
NaNp3FeF15,0.0001,-3.441188978756467,mp-1221458
Ba2La6Mg4Ti3WO24,2.1649,-3.4379278482499998,mp-744094
Sm2TiMnO6,1.6792,-3.436049351626438,mp-18794
Ca3Hf2AlFeSiO12,3.0174,-3.43293973275,mp-1227961
La2Ti3VO10,0.0,-3.429486943749999,mp-1223106
Ca10Ti8NbFeO30,1.9961,-3.4291991734333322,mp-743819
Nd7V2BO17,2.742899999999999,-3.4246113560802462,mp-1210883
Na3Sr4Cr5F26,3.326699999999999,-3.424163031490471,mp-1201930
Li3La8Ti9Cr3O36,1.4458,-3.424161775593222,mp-743640
BaMgWF7,4.0092,-3.42030348475,mp-1047900
La3MgTi3CrO12,0.0,-3.4192712535,mp-2230553
HfFeF6,0.0,-3.41574119875,mp-1206605
Y3Al3Cr2O12,3.5074,-3.414867023624999,mp-1207891
Ba4LaTi4CrO15,1.334,-3.413997269633333,mp-1228142
Ba2Mn2ClF7,4.027900000000001,-3.413241539238506,mp-1214624
BaMnF5,2.639,-3.41258288613301,mp-540958
Ba2CaMnFe2F14,2.1519,-3.412094242896551,mp-1214779
Sr7CaTi7MnO24,1.0789,-3.411368998031609,mp-1076570
AlCrF5,2.4445,-3.410629022142856,mp-1262600
CaMnF5,2.5589,-3.410114536133009,mp-557426
BaSr7Ti7MnO24,0.9921999999999992,-3.407552762281609,mp-1076377
ZrCoF6,0.0,-3.404382454999999,mp-556360
Ba2AlCo2F11,2.8514,-3.403479886770834,mp-1044813
ZrNiF6,0.0,-3.40175743625,mp-1206530
La2TiCrO6,0.0,-3.401008692833334,mp-1277771
NaNd3Ti3MnO12,1.056199999999999,-3.400792283590517,mp-1221062
Ca5DyTi5Fe(SiO5)6,2.6769,-3.400432430381943,mp-743624
CaLa9Ti5Cr5O30,0.0,-3.3985028734333342,mp-694926
Ce3MoO7,0.0,-3.398195299545453,mp-639904
Ca2La8Ti5Cr5O30,0.0,-3.396935548333333,mp-743953
Y3Al3V2O12,0.0,-3.396105122,mp-1207869
Ba2Sr6Ti7MnO24,1.0421,-3.3957105642816092,mp-1076337
Sc2VO5,0.0,-3.3957052273749992,mp-1201569
Ca9LaTi8Mn2O30,0.0,-3.391338117150575,mp-694916
Ba2AlNi2F11,0.8179000000000001,-3.391203846354166,mp-1044802
BaMnVF7,2.0544,-3.3893271377931042,mp-1214547
Y2VO5,1.600099999999999,-3.388980260937501,mp-1201610
La3BWO9,3.794799999999999,-3.3881831513690472,mp-554773
KLa5V2O13,2.9836,-3.387968432488095,mp-1195137
Ba3Sr5Ti7MnO24,0.81,-3.38731642378161,mp-1075974
Dy3BWO9,3.788599999999999,-3.384105871011903,mp-556997
Ba2CaCr2F14,0.928999999999999,-3.383956226315788,mp-1360720
BaNiF4,4.6572000000000005,-3.38353836916667,mp-555321
Tb3BWO9,3.8011,-3.382038129583333,mp-557110
Ba2NaMn3F11,3.6924,-3.380262070598378,mp-1228567
Ca3La7Ti5Cr5O30,0.0,-3.380190043133334,mp-744126
Er6MoO12,2.1216,-3.377652788947367,mp-1213660
CaLaTiCrO6,2.687699999999999,-3.376717194583332,mp-39159
La3MoO7,0.0236,-3.3756849604545462,mp-29150
CaLa2VO6,1.785899999999999,-3.375381797,mp-1385417
LiLa2Ti2CrO9,2.296599999999999,-3.374880277333333,mp-766086
La2NiO3F2,2.6467,-3.373425849375,mp-2646996
Ba7MnFe6F34,2.1105,-3.37229915079023,mp-22484
BaFeF4,3.3521,-3.371831979999998,mp-554451
Na3La8Ti9Mn3O36,1.2517,-3.371485453863238,mp-1173864
Al19CrO30,3.9429,-3.369452651599999,mp-757340
La2Ti3CoO10,1.447,-3.368034806250001,mp-1223091
Ca10VP5(O12F)2,3.8289,-3.367385818647959,mp-1214126
CaWF6,3.7379,-3.36734935875,mp-1395540
La2MgVO6,1.7390999999999992,-3.366408281500001,mp-1411395
Y6MoO12,2.1663,-3.360715905263158,mp-1237135
Ca14MnP9(O12F)3,5.1084,-3.360468547535186,mp-1228737
Ba6Mn2Zn(ClF2)6,2.8883,-3.359589767994891,mp-1228107
La2Ti2CrO9,0.8577,-3.359480408154763,mp-766382
La3FeO6,2.0848,-3.3584037165,mp-1180667
La4MgMnO8,0.113100000000001,-3.358019837352217,mp-2228445
Ca3Zr2AlFeSiO12,3.0066,-3.356612029125,mp-1227925
Ba2WO3F4,3.9748,-3.354204817999999,mp-19234
Y2ZrWO8,3.2777,-3.3536868233333332,mp-1216116
Ba4CaV4Cu2F28,0.9638,-3.35318299102564,mp-1355181
Ba2Sr6Ti7MnO22,0.0,-3.353015755559587,mp-1246044
Ba4Ta10FeO30,2.040699999999999,-3.352668252740741,mp-1228547
YCoF5,3.278299999999999,-3.351718859285715,mp-1392689
CaFeF4,2.8537,-3.350879614166666,mp-1400147
Sm3BWO9,3.825699999999999,-3.350879025654762,mp-561186
Ca5Ho3Ti5Mn3O24,0.5773,-3.350653072636494,mp-695081
Ho2VPO8,2.977399999999999,-3.350357725386904,mp-1223991
BaMnGaF7,3.7932,-3.349744040043103,mp-622203
Ca5Dy3Ti5Mn3O24,0.5649000000000001,-3.349115810886495,mp-743698
Er5(MoO6)2,0.0,-3.348784165789473,mp-1105166
ZrMnTlF7,2.3108,-3.348520544626437,mp-557434
Sm3Ti4CoO14,0.0,-3.34838820219697,mp-1219208
Ba7Fe7F34,1.9244,-3.3471726625000002,mp-1214486
Ba3La2Ti3Cr2O15,1.547199999999999,-3.3461760694000002,mp-684820
LiLa4MnO8,1.322699999999999,-3.345879896697456,mp-770950
KCaCr2F9,3.2258,-3.34565867350641,mp-1212098
Gd3MoO7,0.0,-3.345289248863636,mp-1204194
BaNaCr2F9,3.5815,-3.3448456974137932,mp-556890
BaFeF5,3.7113,-3.344179041071432,mp-14999
Dy5(MoO6)2,0.0,-3.34389256464906,mp-1105361
Gd3FeO6,2.5521000000000003,-3.342539213999998,mp-1189831
Tm2WO6,3.648199999999999,-3.341016665000002,mp-778814
Ba2Ce2Ti2Fe(Si4O13)2,0.219,-3.340461791382114,mp-1229035
Sm3MoO7,1.7639,-3.339929460681817,mp-705801
Ba4Ta10CoO30,2.4312,-3.338343036296295,mp-1228585
Gd3BWO9,3.2389,-3.338328356369049,mp-561177
Ho5(MoO6)2,0.0,-3.337745712368419,mp-1105194
Ca5Y3Ti5Mn3O24,0.5861000000000001,-3.337391526011495,mp-695044
BaVZnF7,2.5205,-3.337140264,mp-1047908
La4MnO8,1.367599999999999,-3.3353452013793112,mp-756496
Sm3FeO6,1.4942,-3.3350189425,mp-1105484
SrFeF5,3.7287999999999992,-3.334117371071433,mp-27338
MgCrF5,3.1817,-3.332808360714285,mp-1395450
BaTi18Mn3O38,0.0,-3.332654179396551,mp-19502
Ca5Gd3Ti5Mn3O24,0.845299999999999,-3.331826344761495,mp-744410
CaFeF5,2.832999999999999,-3.33115487428572,mp-542232
Er2WO6,3.6554,-3.3295026419444462,mp-17201
La7Cr2BO17,1.2771,-3.32942236441358,mp-1212632
Nd3BWO9,3.8249,-3.328955441547618,mp-561272
Na2MgVF7,2.5192,-3.328581348887148,mp-1210449
La2Ti2CoO8,2.2232,-3.327805923205129,mp-1223127
CsTiMnOF5,2.0467,-3.327212825102171,mp-684782
Ba2V2CuF12,0.7418,-3.326447592352941,mp-1228885
PrEuHfCrO6,0.034399999999999,-3.326086217666666,mp-1516991
Tb5(MoO6)2,0.0,-3.326075127543858,mp-1105460
PrEuHfVO6,0.0,-3.324963372666666,mp-1520808
BaCaCoF7,2.3502,-3.324326358999999,mp-1047947
La2TiCoO6,0.5484,-3.324110930583335,mp-1211314
SrSmHfCrO6,2.6321,-3.323960994499999,mp-1520664
Ba10Ti8NbNiO30,0.0,-3.323934518933334,mp-1228979
Ba4Ta10NiO30,0.0,-3.322408681851852,mp-1228660
TmVO3,0.0,-3.320021488000004,mp-755258
SrLiFeF6,4.1343,-3.319276114537037,mp-559277
Ba2CaFe2CoF14,2.6655,-3.3188854862499992,mp-1214725
La7SmTi3V5O24,0.0,-3.318808911,mp-1076581
Er5Mg(MoO6)2,0.7666000000000001,-3.318729205749999,mp-2230038
NdEuHfCrO6,0.0215,-3.31863520425,mp-1518805
Tb2WO6,3.649,-3.318034524814814,mp-771017
Ho2WO6,3.643,-3.317423112222221,mp-775211
SrLaTaMnO6,2.742599999999999,-3.316988782276438,mp-684742
Ba2MgCr2CuF14,3.5958,-3.316671958249999,mp-1045870
La2TiNiO6,2.8034,-3.316128182333334,mp-1211325
LiCaFeF6,4.1719,-3.31610681148148,mp-1211093
Sr2La3Ti2Cr3O15,1.5872000000000002,-3.3141651770666662,mp-706258
CaPrHfCrO6,2.684099999999999,-3.313105939166665,mp-1522185
Pr3BWO9,3.807799999999999,-3.311746417083333,mp-558051
Dy2WO6,3.653799999999999,-3.311442006203702,mp-770559
MgVF4,2.365199999999999,-3.311326203333334,mp-1443628
BaCrF6,0.0,-3.31118269,mp-559246
AlFeF5,4.2584,-3.310668462142857,mp-28901
ErVO3,1.5838,-3.3105158775,mp-19205
La4MgFeO8,1.0145,-3.309569691071428,mp-2228454
Sr4Al6WO16,3.6877,-3.3083688602314822,mp-14865
YNiF5,2.2381,-3.307505016428571,mp-1445738
Sr2HfVO6,0.0,-3.307124305,mp-1518433
Y5(MoO6)2,0.0,-3.306844249473683,mp-18821
Y2Mn(Si3O7)4,4.448,-3.306690864951885,mp-1194598
Eu2HfVO6,0.0,-3.305448941000001,mp-1518592
Ca6La4Ti5Cr5O30,0.1654,-3.304265289433334,mp-695477
YbVO4,0.0,-3.304186793333334,mp-18799
SrLa2WO7,3.3594,-3.303500319318182,mp-1196620
Rb2Mn2Be3F12,5.1571,-3.303099247150635,mp-1209659
La2WO6,3.6801999999999992,-3.30309511277778,mp-774193
Ba2CaMn2CuF14,1.2563,-3.302105178293104,mp-1045850
Ho5Mg(MoO6)2,0.4002,-3.301593603999999,mp-2230947
HoVO3,0.0,-3.301341118499998,mp-19024
Ba2FeCoF9,2.0265,-3.300975195769231,mp-541648
Ca3ScFe(SiO4)3,3.0517,-3.3008592593749992,mp-1227921
Ba7Fe6CuF34,0.6143000000000001,-3.299934332291667,mp-553974
MgMnF4,4.25,-3.299359460488505,mp-1046728
LiTiMnF6,0.0966,-3.2992624105108552,mp-17467
SmEuHfCrO6,0.0,-3.298802617999999,mp-1520876
BaVCdF7,2.5315,-3.298060462249999,mp-1214298
BaLaTiCrO6,1.224999999999999,-3.297388075083333,mp-39208
Y2Be2Fe(SiO5)2,2.1933,-3.296999063823529,mp-18959
DyVO3,1.6567999999999992,-3.296628931333332,mp-22789
K2Mn2Be3F12,4.7164,-3.295466983900635,mp-699937
Sr4Al6MoO16,3.5484,-3.294082419398147,mp-6120
La4MgCoO8,1.010199999999999,-3.292668228214286,mp-2224844
CaLaTaCrO6,2.104599999999999,-3.291822536483333,mp-1040806
TbVO3,1.439599999999999,-3.291628755333334,mp-554811
Ca4Al6WO16,4.1286,-3.291008087592592,mp-556028
BaDy2MnO5,1.696699999999999,-3.290913837084927,mp-541007
BaLa2WO7,3.3342,-3.2908933645454552,mp-1203123
CaCrF6,1.5339,-3.29080727,mp-557519
MgVF6,0.0,-3.290731074375,mp-1446092
Lu3ScV4O12,1.5285000000000002,-3.29039659025,mp-1222459
CsBaCr3F12,2.8965,-3.289220283803244,mp-557433
Ba5Ti4MoO15,0.0,-3.288211716733334,mp-1228035
Tb5Mg(MoO6)2,0.759599999999999,-3.287994159916666,mp-2230949
Ba5Ho8Mn4O21,2.0623,-3.287884899124318,mp-17339
La2Ti3NiO10,0.0,-3.287117886875,mp-1223170
NaSrFeF6,3.4614000000000003,-3.287027767097701,mp-556802
Ba8Ti3Co(SiO4)8,0.2311,-3.284521129423077,mp-1228423
La4MgNiO8,1.554699999999999,-3.284196272500001,mp-2228439
Nd3FeO6,2.080899999999999,-3.28377778625,mp-1186277
Ba2UCrO6,0.9356999999999992,-3.282478179999999,mp-1205611
NaLa2Ti2MnO9,0.1312,-3.282169028065134,mp-690559
MgCrF4,3.4968999999999992,-3.281840275833333,mp-1045314
Sr2ZrVO6,1.169699999999999,-3.281108623249999,mp-1272971
Li10Sc9Fe(SiO3)20,3.0593,-3.280708605383333,mp-1178101
BaZnCrF7,3.9516,-3.28005308225,mp-1047910
LaVO3,0.0,-3.279302451000002,mp-19350
Lu2ScV3O9,1.607699999999999,-3.279165404722222,mp-1223087
Tb2AlFeO6,2.4911,-3.278761241833332,mp-1217718
Sr2VCO3F5,2.4796,-3.278130180416667,mp-759772
Ca3Ti3Cr2O12,3.090699999999999,-3.278112299124999,mp-1214263
Ca4Al6MoO16,3.713,-3.27698727574074,mp-556889
Na2MgCrF7,4.2549,-3.275442118887147,mp-1210432
SrLiTi4CrO11,2.2734,-3.274535773148149,mp-1173174
Ba2Cr2F11,0.429099999999999,-3.274423182777778,mp-1049253
Ba2La3Ti2Cr3O15,1.5,-3.274081647666666,mp-684872
BaNaFeF6,4.059,-3.273947641819922,mp-1214635
Mg3Al8Fe(Si5O18)2,3.9981,-3.273893302844827,mp-1222261
Ba3Ta2MnO9,2.3396,-3.273462715839847,mp-1214505
Sr5Ti4FeO15,0.2471,-3.273427647133333,mp-1218575
Sr2UCrO6,0.9756999999999992,-3.272775954999999,mp-1205705
BaSr7Ti6Mn2O24,0.0,-3.272358260896551,mp-1075988
Nd3MoO7,0.0354,-3.272352570227271,mp-557299
Sr2TaVO6,0.0,-3.272045069733333,mp-1205944
Al9Cr(BO9)2,3.946599999999999,-3.271842929277777,mp-1228622
Ba2CaCuMo2F14,0.514,-3.271405586249999,mp-1045884
Sr3CaTi3MnO12,0.0,-3.270073866646552,mp-1099703
La7Ta3(W2O15)2,3.5412,-3.269058061522727,mp-1223362
CaWF5,3.421,-3.268594951428571,mp-1409253
Ba2MoO3F4,3.225,-3.2671376355,mp-1214599
Sm2WO6,3.6037,-3.26699742611111,mp-771966
YVO3,0.0,-3.2656779040000012,mp-18883
Na2Sr6ZnFe6F34,3.4149000000000003,-3.2654456673011962,mp-697817
Ca10V3P3(O12F)2,3.8137,-3.265406890093537,mp-1227627
BaCaNiF7,2.0554,-3.265313916999999,mp-1047971
CaEuHfVO6,0.0,-3.2651381615,mp-1519493
SrCaHfVO6,0.0,-3.264896683999999,mp-1522440
Ca4Y2Al7Cr2SiO24,0.477999999999999,-3.264489228374999,mp-743704
Ba3Dy2WO9,2.2084,-3.264355978222221,mp-1228348
Ba2MnNiClF7,2.5225,-3.26425919691092,mp-554990
Lu2V2O7,1.1751,-3.262010215303032,mp-20406
Ti15VO24,0.0,-3.261814536,mp-765586
SrLaTiMnO6,0.0,-3.261345454626437,mp-691117
CaLaTiMnO6,0.2488,-3.261212056376437,mp-40866
Ba2UMnO6,0.0613,-3.260499004793104,mp-19852
Ca4Mg3Fe(SiO3)8,4.1563,-3.260066760625,mp-1227644
Tm2V2O7,0.0,-3.259915154545456,mp-19036
La7SmTi2V6O24,0.0,-3.259819543916667,mp-1099746
Ba3Tb2WO9,2.3808,-3.259709961222221,mp-1228418
Gd2WO6,0.0,-3.259663490833333,mp-565757
Ta9VO25,2.5765,-3.259644298314285,mp-17857
Ba3Lu2MoO9,1.898299999999999,-3.259615391888888,mp-1228133
Ba2La2Mg2TiWO12,0.0,-3.259312329666666,mp-534904
BaLa2TiCr2O9,0.0,-3.257225321888889,mp-1227920
Na5Ca7Zr2TiMnSi8(O8F)4,0.179,-3.257102638636015,mp-1221189
Ca7La3Ti5Cr5O30,0.0,-3.257029691433333,mp-744008
Ba3La7Ti3Cr7O30,1.854099999999999,-3.255805064899999,mp-697840
Ba2YW2F11,2.3033,-3.255405725729166,mp-1048842
LiLa4FeO8,0.904799999999999,-3.254812362380952,mp-756904
Ca2TaVO6,0.431499999999999,-3.254614706733334,mp-1373426
LuCrO3,2.5313,-3.253673551833335,mp-755471
Ca6AlCr3(SiO4)6,3.4967,-3.253593167750001,mp-1227522
GdVO3,0.0,-3.252683904,mp-541177
Mg3Al12FeSi4(BO9)4,3.7922,-3.251357421861111,mp-1222235
Sr4Al6CrO16,2.254099999999999,-3.251243121851852,mp-554152
Er2V2O7,0.0,-3.250776504545453,mp-557684
BaCoF4,0.0,-3.250731535833333,mp-556101
SrNdZrCrO6,2.452699999999999,-3.249917282749999,mp-1520463
SmVO3,1.5136,-3.249731109500001,mp-1188225
Ba5Y8Mn4O21,1.5582,-3.248099350966425,mp-1199104
La2HfNiO6,2.043399999999999,-3.247802997999998,mp-1078675
CaCeAl2FeSi3O13,0.408699999999999,-3.247527517142857,mp-1201269
TmCrO3,2.6809000000000003,-3.2474085135,mp-777295
Ca9Cr(PO4)7,2.8908,-3.247349256499999,mp-560257
Ba2Ti4Cr2O13,1.8433,-3.2473455444444452,mp-1228511
Ba2CaFe2CuF14,1.5146000000000002,-3.2472014335,mp-581641
Ce2WO6,0.0,-3.2468882308333322,mp-1214437
Ba3Y2WO9,2.3881,-3.246651754999999,mp-1228087
NdTiCrO5,1.3246,-3.246325474479166,mp-1199036
La4FeO8,0.713499999999999,-3.246115302884616,mp-754261
Sr5Co3F19,0.9893,-3.245354002962963,mp-1208697
Ca4Mg3Si8NiO24,4.7374,-3.244887420875,mp-1227614
Pr3MoO7,0.016,-3.243233262727272,mp-30215
BaCrCdF7,4.103,-3.242997732749999,mp-1214499
CaMoF6,2.5031,-3.242683640000001,mp-1401355
BaWF7,3.2735,-3.242570979444435,mp-1047945
BaLa3TiCr3O12,1.8926999999999992,-3.242357749166665,mp-699403
Ho2V2O7,1.2503,-3.241677890909092,mp-1178177
La4V5(Si2O11)2,0.355799999999999,-3.241338027714286,mp-19030
Sm3VGeO9,3.098,-3.240811219107143,mp-1209262
CsVF4,0.0,-3.239912102083333,mp-1192215
CaMoF5,3.7032,-3.239254712142856,mp-1402613
LiY3WO8,3.3225,-3.2388477625641032,mp-756622
VF3,1.6025,-3.238528048750001,mp-559931
Nd2WO6,3.7285,-3.237745801111111,mp-18057
Na5Nd11Ti10Mn6O48,0.0,-3.237648577253952,mp-532608
Ca3V2(SiO4)3,1.8973,-3.237476242875,mp-1163934
CaTi2MnO6,1.5799999999999992,-3.23747311970977,mp-1194928
Ca8Al11Fe(Si3O13)4,0.0,-3.237326822380953,mp-1227897