formula,bg,formation_energy,mp-id
FeH8(ClO2)2,2.5945,-1.290298985666666,mp-733521
Fe2(TeO4)3,1.5896,-1.29023127617647,mp-1042761
Li9Ni15O28,0.0,-1.289586827115384,mp-759153
SbWO7,0.0,-1.289451520555555,mp-1219467
NiPbO3,0.0,-1.289322196999998,mp-1078668
MnAsO5,0.254699999999999,-1.289309141490148,mp-1201829
Ba2Ni3O7,0.0,-1.2887489970833321,mp-1048554
Fe4H12C15O31,0.1943,-1.288269155725806,mp-1201928
UCrO9,0.0,-1.288214347499999,mp-1179331
MgFe2(AgO2)2,0.0,-1.288045183148147,mp-2240693
FeH6(CO3)2,3.545,-1.287891007166666,mp-510524
CoH2SeO4,1.6176,-1.287205860292969,mp-505469
NaCo2BiO6,0.8673000000000001,-1.287051121137931,mp-1120819
MgFe3Co5O16,0.0799,-1.2866022234,mp-2220691
BaCr2PO13,0.3964,-1.286559140567226,mp-1182527
Sr4MoN4O,2.370399999999999,-1.285817026124999,mp-6164
Cr2Ag2O7,1.3352,-1.2856238753030291,mp-627414
K3VO8,1.495299999999999,-1.285597515979166,mp-1211704
Li5Cu5(NiO6)2,0.0,-1.285261249027777,mp-770841
Cr3(CuO6)2,0.1179,-1.285158879852941,mp-764630
Mn4NO8,0.7198,-1.285075867440318,mp-1210626
Na3Ni2O5,0.4942,-1.2850007689137921,mp-760035
ZnCoTeBr2O3,2.6795,-1.284775863802082,mp-561705
Fe6Pb(SO7)4,0.0,-1.284302466923076,mp-1201833
MnH12S2(NO5)2,4.4525999999999994,-1.284249315849297,mp-831268
Na8(NiO2)9,0.2172,-1.2842110731724141,mp-760204
MnH8(BrO2)2,3.8298,-1.284140651195401,mp-540545
Co7(RuO6)2,0.130799999999999,-1.283740192380952,mp-675115
Cr6PbO18,0.0,-1.283365906000001,mp-694897
CoH4SeO5,3.0003,-1.283358010894887,mp-1181790
LiCo8O9,0.0,-1.283355777685186,mp-771968
Na3(Mo9O26)2,0.7524000000000001,-1.283049052522438,mp-1173856
Na2Ni3O5,0.161699999999999,-1.2830063292758611,mp-765675
CaEu(CoO3)4,0.0,-1.282613273055556,mp-1520376
NiH20S2(NO7)2,5.0831,-1.281672899358973,mp-23912
LiNi6O7,0.0,-1.281280375595238,mp-753344
Co4Mo4O19,0.0121,-1.281226993518518,mp-1226415
Na2NiO3,1.3061,-1.280901694626436,mp-755764
Li6FeNi9O20,0.0,-1.280562478333333,mp-758623
Rb5(CoO2)2,1.106599999999999,-1.28055545431818,mp-541389
Ni(BiO3)2,0.133,-1.280503719722223,mp-1101457
Na2Mg(NiO2)5,0.566099999999999,-1.280456635986589,mp-2229155
FeNiO3,0.0,-1.280436607,mp-1272388
CoPbO3,0.0,-1.280296279499999,mp-1178420
Na3(NiO2)2,0.8386,-1.280228382126435,mp-764056
MoCl4O,1.7247,-1.2801785633333331,mp-22974
NiH4SeO5,3.8904,-1.280083728167613,mp-24544
Cr2Hg2H2O9,2.1741,-1.279026719166667,mp-733763
P3W2N2(Cl5O)3,2.2434,-1.278960019657142,mp-1201704
FeHgO2F5,0.0,-1.278945457500001,mp-1188386
Rb5Nd2W(NO3)11,1.3897,-1.278684977644231,mp-1210361
LiCo6O7,0.0,-1.2785839677380941,mp-773572
LiCo7O8,0.0,-1.278424718958334,mp-38489
MgV2(Ag3O4)2,0.4124,-1.278422312647058,mp-2229909
K2MnH4(I2O7)2,2.6710000000000003,-1.2778603250972411,mp-1223747
NiAsO4,0.0,-1.277531324583333,mp-510749
FeO2,0.0,-1.277397556666667,mp-850222
MgFe2(CuO4)2,0.0,-1.277269997692307,mp-1041416
MgCo4(NiO4)2,0.0,-1.2767339029999991,mp-2232368
FeH12N3(OF2)3,3.5115,-1.2761868848,mp-1196925
Li3Co2Cu3O10,0.0,-1.276165690555555,mp-752567
MgCoAgO2,0.0,-1.273560041333333,mp-2210649
MoP2N2O9,0.988599999999999,-1.273549025127551,mp-731047
NaCo11O17,0.0,-1.27335888763377,mp-775864
Rb2MoS3O,1.9705,-1.273279488928571,mp-1193927
Na2Co7H16(CO2)16,2.6442,-1.272943727846008,mp-1203292
CoSe2O5,2.3763,-1.272770595898438,mp-18973
VH7(CO2)4,0.030299999999999,-1.2726396759375,mp-698158
Li2Fe3Co7O20,0.0,-1.272188113645834,mp-757626
Na5CoSO2,1.378399999999999,-1.272089747155172,mp-19027
Fe2P2NO11,0.0,-1.271885027455356,mp-1201744
CoO,0.5880000000000001,-1.271831146250001,mp-22408
NaNi2O3,0.0,-1.270968449396551,mp-759286
KV5ZnO22,0.119399999999999,-1.270965698870689,mp-1198255
Na2Co(SO6)2,0.0,-1.270844958397566,mp-1210905
Ca2Fe6Se9Cl4O27,0.3869,-1.2706211921061201,mp-1204736
Co3SnO8,0.0,-1.270222666249999,mp-771769
KFeO3,0.5258,-1.26986237345,mp-1097023
Na6(NiO2)7,0.334099999999999,-1.269553245121327,mp-850287
MnNi7O8,1.0111,-1.269460427370688,mp-1221343
KEu(FeO3)4,0.0,-1.269353759013889,mp-1519988
V2NO,0.0,-1.268616393750001,mp-690555
LiZn(CoO2)4,0.151899999999999,-1.26842249452381,mp-1235938
NiH10(SeO5)2,3.8277,-1.268271875747282,mp-1181715
Mn2Fe3Co3O16,0.0,-1.26822628566092,mp-772328
VP2NCl10O,1.8039,-1.268146693619047,mp-561324
Ba2Mn2As2O,0.0,-1.267897156551724,mp-550454
V12CoH24C8(NO16)2,0.3802,-1.267808634430379,mp-1201666
Ni5Se4(ClO6)2,3.1026,-1.267650496059781,mp-1194971
MgCo2(NiO2)4,0.7404000000000001,-1.267267888333333,mp-2232265
Tl2NiH12(SeO7)2,3.8339,-1.2671939524630371,mp-1198362
MgFe2(CuO2)2,0.0,-1.266943341666666,mp-2224223
VH10SeNO9,2.7763,-1.266674303174716,mp-1201219
VS2NO8,0.0,-1.266662243333331,mp-1207838
Li6CoNi9O20,0.0,-1.266630112499999,mp-775263
Fe2Mo4O7,0.0638,-1.266591849615385,mp-542150
Co7Te4(BrO2)6,2.2401,-1.266530720574711,mp-639164
Co3SbO8,0.0,-1.266479311250001,mp-757530
NiP2(H8O5)2,5.108,-1.266206960665024,mp-758219
Rb2NiO2,2.8076,-1.2654713379999991,mp-19167
V2S3(NO6)2,0.0,-1.26531203868421,mp-1208097
Na3V5O23,0.0411,-1.265207130133481,mp-863288
Na5(NiO2)6,0.0,-1.264992766386805,mp-765679
Mn3(Ni17O20)2,1.136,-1.264539419399909,mp-758834
CoH2SeO5,1.6716000000000002,-1.264461807204861,mp-23967
KMgV5O22,0.073499999999999,-1.264417895767241,mp-1205280
Fe2(SeO4)3,2.2467,-1.264223167472426,mp-505098
MnCuH10Se2(ClO5)2,0.3221,-1.264149190293021,mp-729033
Li7(NiO2)11,0.0,-1.264148072583332,mp-768079
CoPH4ClO3,3.0874,-1.263909218964286,mp-728709
CoNiP4(H8O5)4,2.98,-1.263399744975369,mp-1229196
Ca(NiO2)4,0.0,-1.262754084999999,mp-18718
Rb3Mo2HCO13,2.5125,-1.262685362062499,mp-1197950
Na3Ni5O8,0.0,-1.26253112494612,mp-759953
ZnFe2O5,0.0,-1.2621362925,mp-1043265
Li2FeCo9O20,0.050699999999999,-1.262067135208334,mp-759051
Mo2NO7,1.4549,-1.261847974749998,mp-1180983
Eu2Cr2O5,0.0,-1.2614158433333351,mp-1076286
V2Zn3O11,0.0,-1.2611992078125,mp-1207938
TeMoCl7O,2.5316,-1.260353141916666,mp-616455
Co5Se4(BrO6)2,2.528,-1.260220709755435,mp-562833
VH3(C2O3)2,1.7959,-1.260208241160714,mp-1208136
Li5(NiO2)8,0.0,-1.259619617988505,mp-758751
Li6Ca12W4N16O3,2.9006,-1.259552922804877,mp-15203
Co11CuO16,0.0,-1.2585811,mp-757448
LiCo2NiO6,0.6139999999999991,-1.258547901333333,mp-774305
K3Mo2HCO13,2.4996,-1.25837031965,mp-1199601
Mo2Cl8O,0.9508,-1.2583436338636371,mp-653062
Co3Cu3(TeO6)2,0.4457,-1.258305191166666,mp-1226601
BaW4O7,0.0,-1.258230168749998,mp-1048515
Na4(NiO2)5,0.517199999999999,-1.257373889237748,mp-753301
V2CdO10,1.533,-1.257199347692308,mp-1193246
FeO2F,0.0,-1.256697267499999,mp-758879
Co2RuO4,0.0,-1.25661225642857,mp-34586
Co5CuO8,0.0,-1.2565020196428571,mp-761404
Fe4AgAs(XeF3)2,0.1914,-1.256441652083333,mp-1213657
Li5Ni9O16,0.0,-1.256272491222222,mp-758491
CdNi2H24(ClO2)6,4.0435,-1.256256466777777,mp-721610
ZnCoBi2O7,0.0,-1.25616332625,mp-1042620
NdDy(NiO3)4,0.0,-1.25581707162037,mp-1521174
Ba2Ni3O8,0.0,-1.255626521538461,mp-1401956
FeCu2(SO4)2,0.0,-1.255421459230767,mp-1213365
K4(NiO2)3,0.691299999999999,-1.255388656076921,mp-1104174
Zn2W2O5,0.0,-1.255308039444445,mp-1346571
Li2MgCo13O28,0.9558,-1.255127420265151,mp-760219
NiSeO3,0.0,-1.25510434046875,mp-20460
CoH10SeO9,0.0,-1.254609963325893,mp-1202295
NiPH4ClO3,3.9714,-1.254565293714284,mp-728203
Na2Ni2O3,0.0,-1.254533626108374,mp-754438
LaV2O2,0.011599999999999,-1.254429321500001,mp-1212471
Cr(ClO)2,2.4182,-1.254129389,mp-1079620
CrHg3(PbO4)2,1.9243,-1.253997437321429,mp-559462
LiCoCuO4,0.0,-1.25378697404762,mp-754020
TbV2O2,0.0,-1.253764824833334,mp-1208791
CrCo3O8,0.4768,-1.253708130833333,mp-861562
MnSeO5,0.0,-1.253606786467826,mp-1103909
CoH5SeClO5,2.9560999999999993,-1.253338922872596,mp-776636
FePNO4F,0.016399999999999,-1.253151342142858,mp-1212772
CoH12(ClO3)2,3.0715,-1.252748564999999,mp-696766
NiH2SeO5,2.9949,-1.2525212472048661,mp-23968
MgCoCuO2,0.0,-1.251700705,mp-2226498
Zn2Ni11O13,1.963,-1.251597544807693,mp-1101164
Cu3Mo(HO2)4,0.0,-1.25145947484375,mp-1199983
MnCu2SbO4,0.0,-1.25144204099138,mp-1221735
MnSn3F6,0.0,-1.251390966293102,mp-1213086
K3Fe(C2O5)3,0.172299999999999,-1.25135115497,mp-1205279
FeHg2O3F5,0.0,-1.251299381363638,mp-1225010
K2MoS3O,1.921599999999999,-1.251283868499998,mp-1193903
Fe2Cu3(SeO3)6,0.2582,-1.25126374255388,mp-558202
NiH6(CO3)2,4.0189,-1.251116915055555,mp-1195478
Ag2MoO4,1.873099999999999,-1.251052689761907,mp-19318
K3Mo4CSNO16,0.7926000000000001,-1.2505338341057681,mp-1181887
Co3Se4(ClO5)2,2.6502,-1.250368367598684,mp-1105151
LiNi9O10,0.0,-1.250244247666665,mp-775737
CoH6(CO3)2,2.537,-1.250232276833333,mp-1196066
ZnFe4(CuO4)3,0.0,-1.250058050999999,mp-1043129
Ni3(TeO4)2,0.0,-1.249750093525641,mp-1237476
KMo2C4O11,0.083799999999999,-1.249701949569444,mp-1203538
U2Mn(AsO10)2,0.0,-1.24958849171724,mp-1199293
MgCo5BiO12,0.6773,-1.24900307131579,mp-2230223
NiH12(ClO3)2,1.412599999999999,-1.248853538809524,mp-24231
Cs2Cr(NO3)5,2.7358,-1.248424550984508,mp-560716
VH10S2(NO4)2,1.7481,-1.248258820760869,mp-1100920
MgCo5CuO8,0.1335,-1.248047122999999,mp-2228622
Mn2Mo2NO10,0.0,-1.247825005390805,mp-1104385
FeAg(SeO3)2,1.179,-1.247794580885416,mp-704626
CsNaMoO6,0.711,-1.247784644559386,mp-1204588
Li7Ni13O24,0.0,-1.247327779848484,mp-758593
CaFe3Co5O16,0.0,-1.246321325199999,mp-1233966
Li3(NiO2)5,0.3803,-1.246013918888889,mp-1311345
Li4Co13O28,0.4597,-1.24584180362963,mp-759373
TlFe(SeO4)2,2.3073,-1.245764199835069,mp-1208026
CsMoN3O11,2.7732,-1.245671316228448,mp-1200253
K3CoO2,1.6284,-1.245469531125,mp-28825
Cs2NiO2,2.6343,-1.245445636862069,mp-755100
VAg2HgO4,0.740699999999999,-1.2453469615104171,mp-1208167
Fe6P4H23O21,1.5143,-1.244956283746693,mp-1213654
CaCrO6,0.0,-1.24449164703125,mp-1204789
Na7Ni17O24,0.0,-1.243275082909482,mp-760117
MgCd2(NiO2)4,0.0,-1.243238636333332,mp-2232399
CoP2H13C2NO9,3.3787000000000003,-1.242668135822704,mp-1202935
Na2Co6O7,0.0,-1.242409874850575,mp-759583
Tl2CoH12(SeO7)2,2.5576,-1.242385781979166,mp-1198158
Li6Ca12Mo4N16O3,2.5777,-1.242290296219512,mp-15202
VAg3O4,0.8996000000000001,-1.242050435624999,mp-18889
Ni5H2Se6(ClO4)4,3.0001,-1.24067005247159,mp-1195170
Co(HO)2,2.3295,-1.2404038535,mp-1273062
CrAsO6,0.1951,-1.24023502515625,mp-1214694
HoV2O2,0.0,-1.240164448999999,mp-1212690
CaCo4O9,0.0,-1.240039764285714,mp-1041397
Co3(SO6)2,0.046199999999999,-1.239274287794117,mp-1201339
Be2NiN2(O3F4)2,0.4171,-1.238804219473684,mp-1237097
CoSiH15N6(OF3)2,2.7165,-1.237551123508064,mp-1226454
Zn3Co9O16,0.0,-1.23737878,mp-765468
Ni5(AsO6)2,0.0,-1.237014970263157,mp-1105634
NaSi2W2O5,0.0,-1.23693231663793,mp-1212767
Ba(NiO2)4,0.323099999999999,-1.236639218461538,mp-18991
Cs2VS5O,1.634,-1.236119338256705,mp-1198002
V2H38S4(N2O9)3,2.3843,-1.235979260941558,mp-1100935
KCr2Fe3O14,0.0,-1.235757819862499,mp-1180836
NaNi3O4,0.0,-1.235564954547413,mp-759512
CaCo2(CuO4)2,0.0257,-1.235552343076923,mp-1350165
SrCa(CoO3)4,0.0,-1.235496508888888,mp-1517017
NdSm(NiO3)4,0.0,-1.235191464583333,mp-1521987
MgCo4(CuO4)2,0.0,-1.235181347666666,mp-2232479
CoH8(ClO2)2,3.2609,-1.235074532666667,mp-1182181
NiH8(ClO2)2,4.3162,-1.234650515833332,mp-1220246
BaMo2C4O17,2.8698,-1.234505582569444,mp-1199746
MnCo3O8,0.0,-1.234280509827585,mp-773602
MnCo9O10,0.0,-1.234116752896551,mp-1176471
KCr2FeO10,0.0,-1.234098764089286,mp-1104716
Cs3CoI4NO3,1.0972,-1.233587846372125,mp-1196088
Ni3Se4(ClO5)2,3.1114,-1.233504175756579,mp-1105005
CoH4(ClO)2,2.573,-1.233406687222222,mp-23853
ZnWO2,0.0,-1.233105935624999,mp-1048324
Fe3P2(HO)8,1.6698,-1.232888043299319,mp-1212790
Mn(Ni9O10)2,1.325899999999999,-1.232284860587974,mp-758680
BaZn(NiO2)4,0.0,-1.231658379999999,mp-1044577
Li4(NiO2)7,0.3832,-1.2309454353333331,mp-774600
FeH12Pt(ClO)6,2.3613,-1.230813236538461,mp-542912
MoH12N3O3F5,2.5604,-1.230681831770833,mp-728422
Mn2P2C12S(O2F3)4,3.0306,-1.230662038112102,mp-558968
Zn(NiO2)2,0.0,-1.230278035714286,mp-1047462
CoC8(SF3)4,0.8569,-1.230182783399999,mp-1195784
CsK2CoO2,1.675799999999999,-1.229804064025859,mp-551244
Li7(NiO2)12,0.0,-1.22972946868217,mp-758820
CoP2(H8O5)2,2.252799999999999,-1.229139583509852,mp-542114
MgCo7O12,0.460599999999999,-1.22900180925,mp-2230053
ZnNi9O10,2.0976,-1.2282467955,mp-753807
WO4,0.0,-1.22808274675,mp-1201934
Ag4Mo2Se3O16,1.7787000000000002,-1.227226647047916,mp-558550
Ca(W2O3)2,0.0,-1.226791693181817,mp-1044591
Ba(CoO2)4,0.0,-1.2265875,mp-1041292
K2Mo3SO17,0.6779000000000001,-1.2265831734565211,mp-1227933
CuH32W6(Cl6O11)2,1.0639,-1.226552555753425,mp-1201127
Mn3(AgO2)4,0.632599999999999,-1.226028946863984,mp-704268
CoH8N2(OF2)2,3.1919,-1.225864142941176,mp-1196899
Zn(Mo4O5)2,0.0242,-1.224337929736842,mp-1045325
NiH12S2(NO5)2,3.9809,-1.224248402407407,mp-849432
Mn2Zn(CuO4)2,0.0189,-1.223978300643236,mp-1041405
NaNi5O6,0.0,-1.223895851781608,mp-753049
LiCo3NiO8,0.238199999999999,-1.223827918717947,mp-1275497
Mo4N2O15,0.137299999999999,-1.223386063571428,mp-1203927
Ba2Mn2Sb2O,0.0,-1.223353110123153,mp-19213
SrMn(SeO3)4,0.0,-1.223208689850335,mp-1522521
MnP3H12NO7,4.3697,-1.222268754556649,mp-559466
Fe(SeO3)2,0.324,-1.222069072465278,mp-1201086
Zn2Co9O13,0.0,-1.221732249375,mp-1045890
FeH8(BrO2)2,1.7042000000000002,-1.221483500999999,mp-24537
TlFeO2,1.5549,-1.220559035833335,mp-607310
MgCo5NiO12,0.0,-1.219450541315789,mp-2230392
CoBiO4,0.5144000000000001,-1.21933431,mp-755614
FeAgO2,1.148499999999999,-1.219109076041666,mp-19225
Ni5Se4(BrO6)2,2.8709,-1.2190517125815221,mp-555343
Zr2Fe2F3,0.0,-1.218527907857143,mp-743864
NiO,2.300899999999999,-1.218085299999999,mp-19009
NiSO5,0.0,-1.2172163825,mp-1104671
CoP2H17N4O9,1.190599999999999,-1.21700890637987,mp-728003
K7As2W8O39,0.0009,-1.216872865995535,mp-1182713
Ca3B5W8Cl2O13,0.5954,-1.216837592123655,mp-1215119
CoH6(SeO4)2,2.327899999999999,-1.2166798251286761,mp-744574
Li3Ni7O12,0.0,-1.216675002878788,mp-1177647
Co2As2O9,0.8107000000000001,-1.216513179807692,mp-1196672
Li(NiO2)2,0.869599999999999,-1.21639313172619,mp-774941
Ni5(TeO6)2,0.205,-1.215971520701754,mp-756164
K3FeO2,1.1592,-1.215781174041666,mp-31218
VS2NO9,0.0,-1.213944252692307,mp-735027
K2SrNi(NO2)6,2.1937,-1.213852720772727,mp-19374
Mg2W9O13,0.0,-1.213531048541665,mp-1046047
FeSe3O8,0.0,-1.213495901002603,mp-1196307
Na2CoH4(SeO5)2,2.347899999999999,-1.21342697170769,mp-1180336
K2BaCo(NO2)6,1.029,-1.213394558840909,mp-18823
VAsNO4F,1.1437,-1.21336760609375,mp-1207948
Na2Fe(SO6)2,0.0,-1.2132985642799181,mp-1210951
Ca2W9O13,0.0,-1.212865875208334,mp-1378229
MgCo4(CuO4)3,0.0,-1.21279138375,mp-1043110
Cr2Cu3(OF)12,1.106299999999999,-1.212736274827586,mp-1182221
CoSn2(OF)6,0.0,-1.212143514,mp-731595
Li6Mg(Ni6O13)2,0.6691,-1.212142242555555,mp-759215
MgCo3O7,0.0,-1.21191174465909,mp-1338614
V4Zn3Cu3O22,0.0,-1.211634549687501,mp-1217369
Cr2NiH20(NO7)2,3.0033,-1.210733332435896,mp-1204049
Cs2Mo2O11,2.4144,-1.210042096620689,mp-645299
MgTl2(FeO2)2,0.0,-1.209883346851853,mp-2240587
KV5NiO22,0.0502,-1.209858231974137,mp-1204947
K2BaLiCo(NO2)6,1.1227,-1.209828721644928,mp-1236436
MnH8(NO5)2,2.8971,-1.209596038234811,mp-727472
KNiTeO6,0.0,-1.209308722657408,mp-1147706
Na7(NiO2)10,0.0,-1.209090568369057,mp-760203
NaNi4(P2O11)2,0.0,-1.209068535966152,mp-1222793
MgNiAgO2,0.0,-1.208656793333332,mp-2225602
Li4Fe3Co2Ni3O16,0.0,-1.208128267619047,mp-753758
VTeH11(NO4)2,2.6724,-1.208092956105072,mp-1199327
ZnCo5O7,0.8860000000000001,-1.207956043461538,mp-1370323
Co3Ni2Te3O16,0.0,-1.207678231666667,mp-757443
MnH4(SO6)2,0.1622,-1.207374153575318,mp-696903
CrSi(Ag3O4)2,0.0012,-1.207304139687499,mp-1200173
Li6(NiO2)11,0.335799999999999,-1.20727419128205,mp-758747
Co3TeO8,0.0,-1.207107865555555,mp-753013
NaCr2FeO10,0.030399999999999,-1.207085636169949,mp-1193386
K2CoH4(I2O7)2,2.5372,-1.205955992979999,mp-1223804
CoH12(BrO3)2,2.853,-1.205745978452381,mp-510271
Mo3(NO5)2,0.4819,-1.205685279666667,mp-1180361
KGaCoC4Cl3O4,3.7405,-1.205510123910715,mp-561754
NiOF,0.0,-1.205402673333333,mp-1147690
BiW2(Br4O)2,1.8201,-1.205330088461539,mp-1192987
Bi(MoO5)2,0.0,-1.2048929803846151,mp-1193126
CrNF4,0.0,-1.204605872083333,mp-1192059
CoCuCO5,0.067199999999999,-1.2041728015625,mp-1195492
CrCl3O,1.4763,-1.20360076025,mp-1202206
Li3Cu2Ni5O12,0.091099999999999,-1.203098983787879,mp-1177736
VH16C4(NO4)3,3.1012,-1.202852631944444,mp-698262
VBiO2,0.0,-1.202550405625001,mp-1207870
VH9(NF)3,2.5181,-1.2023177767968751,mp-1194816
CaCo5O7,0.0,-1.202140823461539,mp-1335725
Mn2Co2O5,0.0,-1.20204872342912,mp-974861
BaSr(CoO3)4,0.0,-1.201604781666666,mp-1517422
Cs2Ni(NO3)4,2.9547,-1.20124385891107,mp-557503
K3V2O12,0.054099999999999,-1.201120399955882,mp-1200488
Co25Cu11O48,0.0,-1.200613393928571,mp-758061
Fe2Te2SO13,0.0,-1.200540509629629,mp-1182492
K2CaNi(NO2)6,2.138,-1.200390310659091,mp-22650
FeP(HO2)2,1.5012,-1.200091605267856,mp-1212769
LiCo2CuO6,0.290999999999999,-1.199945246333334,mp-766810
H12WN3O3F5,3.0682,-1.198860039739583,mp-735688
Mn3P2O15,0.250799999999999,-1.19855274252894,mp-1203856
Fe2H10Cl6O5,0.5885,-1.19806461847826,mp-1212917
CoP3H15C3NO12,0.8513000000000001,-1.197331778147959,mp-1196080
BaCa(CoO3)4,0.0,-1.197108286111111,mp-1521211
Li5CoNi9O20,0.0,-1.19697356447619,mp-1120825
CoCu2TeO6,0.0,-1.196380516916666,mp-1226159
CrAgO4,0.0,-1.195661571944445,mp-754959
LiNi2(CO4)2,0.2661,-1.194398912756411,mp-757925
Na3V3H6O7,0.3599,-1.194204832980943,mp-1237969
Co5SbO12,0.0,-1.194074808333333,mp-753116
Li2Cr2O9,0.9987999999999992,-1.19395966128205,mp-1237680
Na3NiO2,1.5612,-1.193162395272988,mp-759317
KCr2Fe(HO4)2,0.4241,-1.19273676355357,mp-1211729
Co3(AsO4)4,0.1056,-1.192467112391305,mp-1047608
Co2TeCl2O3,0.0,-1.191995741458333,mp-550564
Rb3CoO2,0.0,-1.19144224375,mp-30194
K2Ni(NO3)4,2.944,-1.191171528657895,mp-556059
Mg(W2O3)2,0.0,-1.190887867727272,mp-1043583
Co(PO5)2,0.0,-1.1903910045604391,mp-1213861
Li3Co11O14,0.0,-1.190179005714285,mp-757926
Co2NiO4,0.0,-1.189508992142857,mp-38683
MnCu3(SeO3)4,0.104099999999999,-1.189215503365301,mp-1221764
NiSeO4,2.1705,-1.18907068039063,mp-18817
CoH2(CO2)2,2.1843,-1.189031421574072,mp-1203827
Mn(PtO2)3,0.073399999999999,-1.188962142793099,mp-18971
Na5Ni9O16,0.0,-1.188478778563217,mp-765602
MnAgO3,0.0,-1.188434382919541,mp-754229
CoHSO4,0.2809,-1.188048694107142,mp-1213835
Co3O5F,0.0,-1.187849817777779,mp-779014
K3HWS4O,2.5955,-1.187640731799999,mp-1189847
Na2Cr2H2O7,2.397,-1.186442730596816,mp-1211049
Cu2NiTeO6,0.2721,-1.186002556916667,mp-1225905
CaCr2O2,0.0,-1.1859738930000001,mp-1214428
Co8(BiO4)5,0.173,-1.185140948181818,mp-675023
UCr(HO2)3,1.4703,-1.185106562613635,mp-1208178
ZnNiBiO5,0.2029,-1.18490192375,mp-1044421
MnH4(C2O3)2,2.1937,-1.184296503528735,mp-1211095
Mg(NiO2)4,0.7689,-1.184241403461537,mp-756552
Co5Te3O16,0.3258,-1.184094236666667,mp-771020
Li(Mo4O5)2,0.0,-1.18387854122807,mp-29324
Fe2CoO6,0.0,-1.183482531666666,mp-753617
Cr3H8(NO5)2,2.025,-1.182985464836957,mp-602511
SiW12C16(NO10)4,2.0985,-1.1821741886301371,mp-1197711
CoH2Cl2O,0.8128000000000001,-1.181906084166666,mp-1192030
Co29O40,0.0,-1.181368133913043,mp-705563
Sr2Mn3(BiO)2,0.0,-1.181195100421456,mp-546629
ZnFe3O7,0.0,-1.181025290227272,mp-1332408
FeCuH4S2O13,0.0,-1.180788276428571,mp-1203139
MgCrH3(CO3)2,2.0763,-1.180710055673076,mp-1210937
Rb3VO8,0.0871,-1.180708367291667,mp-1180695
W3Se2ClO8,0.6045,-1.180463173191965,mp-1045028
MnH4S(NO2)2,3.58,-1.178788673160921,mp-1196995
MnH4(NO4)2,2.612199999999999,-1.1783720150287351,mp-1204140
Na5(NiO2)8,0.0,-1.1780978164447071,mp-765844
CoH8Se2(ClO4)2,1.889199999999999,-1.177954105461309,mp-1204801
MgCo2(AgO3)2,0.6367,-1.177666993484847,mp-2217730
VH6C2S2O7,0.0,-1.177244325138889,mp-1202628
Fe(Se2O5)2,0.0,-1.177203453291667,mp-25259
KNa2NiO2,1.5423999999999989,-1.17711357458477,mp-558824
Mo4H2N2O13,0.426899999999999,-1.176531530119049,mp-1212007
NiH15IO12,2.448299999999999,-1.17635142150862,mp-1204231
K3MoHS4O,2.1188,-1.1760195038,mp-1189247
MnCu2(SO4)2,0.0,-1.176007945225464,mp-1211123
Li2Ni5O9,0.0,-1.175949089479167,mp-1177872
RbMnCl3O2,0.0,-1.175293285775862,mp-1104379
Mn2PC11SO8F9,3.1326,-1.174726521890779,mp-699914
MoPNCl6O,2.1637,-1.1745873025892861,mp-649091
MnCo5O12,0.0,-1.173885970440612,mp-755620
Mn3Co3(CuO8)2,0.069099999999999,-1.173627785574712,mp-770859
FePtO2,0.0,-1.173558543749999,mp-867719
Cr4BiNO14,0.006599999999999,-1.173454902125,mp-1199387
CaEuMnCoO6,0.0,-1.172503775043104,mp-1522194
VAg(IO4)2,1.3705,-1.172486243524306,mp-1198619
CrS2NO8,0.0,-1.170959488333334,mp-1213738