formula,bg,formation_energy,mp-id
LiV4(PO4)3,2.119599999999999,-2.543793030363096,mp-758417
Li2V2Sn(PO4)3,0.0,-2.5437467272797623,mp-768559
Mn3OF8,0.4559,-2.543746039482759,mp-850899
V5Sb(PO4)6,0.0,-2.5436656441071412,mp-770673
KCaCeMnO6,0.0,-2.5436117045181033,mp-1517965
LiMnB2O5,1.6017,-2.543360667455299,mp-768442
K2SrTh2(MoO4)6,0.0,-2.543203161985713,mp-1195516
LiV2Zn2(SiO5)2,1.3528,-2.543195657254902,mp-1235640
Cr2P5O16,0.1346,-2.5431893314441,mp-26134
Li24Ti5Cr7O36,1.170399999999999,-2.54315272037037,mp-768398
CaNdFeSnO6,2.208,-2.54306906525,mp-1520035
K2Ni(PO3)4,4.734500000000001,-2.543000949109023,mp-1211887
Li2V2O5F2,2.4599,-2.542927888333333,mp-764224
Sm2CoNiO6,0.512,-2.542865451,mp-1219319
AlCrFeO4,1.4767,-2.542837820714286,mp-1229097
NaTiFeO4,1.8618,-2.542697320316092,mp-1220922
DyCrTeO6,2.7169,-2.542657223148146,mp-1105344
Sr2FeReO6,0.0,-2.542482665,mp-552162
KMoP3WO12,2.490499999999999,-2.542481697426588,mp-1223809
Li4Nb3Cr5O16,0.2049,-2.542360970476191,mp-756891
Tb3Fe5O12,1.6670999999999991,-2.542309987375,mp-19710
LaMn3V4O12,0.0,-2.542051041439656,mp-1205445
SrV2ZnO7,2.8518,-2.541929695,mp-556361
Li2Co(PO3)4,3.212,-2.54190547632832,mp-26359
Li4Ti4Mn4CoO18,0.0,-2.541600758819059,mp-774293
Mn4Nb2O9,0.015499999999999,-2.541547874114944,mp-31901
Mn3(OF2)2,1.019599999999999,-2.5415459865325682,mp-849358
Li5VO3F2,1.592099999999999,-2.5415123721969692,mp-752747
Li2Mn5(PO4)4,3.097999999999999,-2.541370541292343,mp-850918
TbCrTeO6,2.6885,-2.5412185181481473,mp-1105332
Na2Mn3(PO4)3,0.0619,-2.5408632285240143,mp-1210501
Ba3MgWO6,0.816199999999999,-2.540858725909091,mp-2217673
V4Zn(PO4)6,1.331899999999999,-2.540851810510203,mp-1358135
Ba6La2Co4O15,1.478199999999999,-2.540831799074074,mp-1228747
Li6Cr3Ni(PO4)6,0.3312,-2.540821539446429,mp-757295
Ta2Zn2CoO8,0.0,-2.540788902858974,mp-1046160
TiV3Cu2(PO4)6,0.0228,-2.5406721955886242,mp-1101412
Ca8Mn7CrO20,0.2541,-2.540660425292144,mp-1247684
Rb7DyFe6(P4O17)2,2.2251,-2.540582679844813,mp-1203480
BaCaNdFeO6,0.5867,-2.54051799775,mp-1519220
Li4Mn2Nb3Cr3O16,0.1076,-2.540496428185549,mp-867530
Li4Mn3Nb(PO4)4,0.322599999999999,-2.540446428774924,mp-861478
KLaV4O12,0.4331,-2.54040844401389,mp-1522036
CaLaCrNiO6,0.6463000000000001,-2.540361508499999,mp-1048901
Al2Fe(SiO5)2,0.0478,-2.540316967833333,mp-1198093
Ba2ZnMoO6,2.385199999999999,-2.540304109,mp-1206097
Sr18Fe6Ru3O34,0.0,-2.5402489511475412,mp-1173476
Mg6NbFeO8,0.921999999999999,-2.540204375,mp-1032174
MgV4O8,1.269,-2.540083061923077,mp-2218937
Na2SrMnV2O8,2.645699999999999,-2.539972025227833,mp-1194593
CaLa(FeO3)2,0.0,-2.539938195500001,mp-1043900
V5BO9,1.464799999999999,-2.539806968277779,mp-770506
Cr2(PO3)5,0.249099999999999,-2.539736880373375,mp-1101561
LiP4WO12,4.1198,-2.539725121355818,mp-757973
Li7Mn(BO3)3,3.5681000000000003,-2.539627533063218,mp-1222860
V3CrSn2(PO4)6,0.0,-2.539588151607142,mp-776765
Li2Mn4P4O15,3.0924,-2.539535387678489,mp-759540
MgFeBO4,1.8677,-2.539494614166666,mp-1210634
Li2Ni(PO3)4,4.6885,-2.539445131854636,mp-26165
Ba4Fe12Si8ClO35,1.7846000000000002,-2.539442249583333,mp-1228666
Na8Fe6P6(O8F3)3,0.0,-2.539273793280974,mp-1221001
Ba10MgMn6(O12F)2,1.0335,-2.5391922491299113,mp-1233725
NaMo2(P2O7)2,1.1965,-2.539094975235749,mp-1220983
Mn2V3Ni(PO4)6,1.2659,-2.538987700381088,mp-774360
Li2Fe4OF8,3.0204,-2.53885597811111,mp-849951
Li3Mn3(OF)4,0.7664000000000001,-2.538672880270937,mp-753615
LiMn2P5O16,2.174099999999999,-2.538661273433737,mp-26188
BaCrO3,0.0,-2.538649073285715,mp-557081
SrEuNiWO6,0.4733,-2.5385660235,mp-1516349
Mg6NbNiO8,0.0,-2.538455863125,mp-1031823
La2ZnNiO6,1.098799999999999,-2.538450849999999,mp-1385224
Ca9Y3(CoO6)4,0.0,-2.53838633575,mp-1227804
Li2CrSiO5,0.2542,-2.53837112587963,mp-757461
V4P2O13,1.439,-2.5383671565413533,mp-753664
SrCa7Mn6Cr2O20,0.3696,-2.53835228243295,mp-1247701
LiMnAlO4,1.7586,-2.538269037680624,mp-770386
Rb2FeCuF6,0.5338,-2.5381276245,mp-1113487
KSmV4O12,0.458599999999999,-2.538118795125001,mp-1522534
SrTiMnBiO6,0.0,-2.538038600126438,mp-1217765
RbSm(MoO4)2,3.6776,-2.5380126908333343,mp-1209294
LiMn2(PO4)2,0.0,-2.537934068729316,mp-753779
Li4V3Cu(PO4)4,0.1306,-2.537826452568027,mp-1177267
Sr4CaCr5O15,0.0,-2.537694403799999,mp-1218573
SmEuFeSnO6,0.0,-2.5376785775,mp-1516960
KSm(MoO4)2,3.6536,-2.537652578104166,mp-1211523
Ca8Mn7CrO21,0.0,-2.537619229203167,mp-1247704
Mn2Zn3(Si2O7)2,1.7039,-2.537608858515742,mp-1258846
Ca3V3(CoO6)2,0.0,-2.537558555625,mp-1214146
BaNi2(PO4)2,0.0,-2.537440351483517,mp-18909
Sr2V11NiO22,0.7712000000000001,-2.537432278333335,mp-1218689
LiV5(BO5)2,0.0,-2.5373866623148142,mp-756548
Li4V7(PO4)6,2.199,-2.537320307590011,mp-758345
V3Co(PO4)4,0.7652999999999991,-2.537302815357144,mp-774635
Na2FePO4F,3.5279,-2.537232553461276,mp-1194940
Li2CoPO4F,2.7098,-2.537132745006614,mp-770853
SrCa7Mn7CrO21,0.0,-2.537046308122087,mp-1247578
KY(MoO4)2,3.656,-2.536991310395832,mp-19499
Sr4Mn2Ga2O11,0.0,-2.53692582136116,mp-1218651
SrCa7Mn6Cr2O21,0.0,-2.5369181877726,mp-1247588
Li2Mn3(PO4)3,0.0558,-2.5368770289694162,mp-778864
Li6Mn3Cr(PO4)6,0.7068999999999991,-2.536803308541255,mp-771092
BaV2ZnO7,3.0584,-2.536784898636364,mp-560496
Li3AlCrO5,2.0263,-2.536767939249999,mp-770586
LiFeSiO4,2.9822,-2.536767287619047,mp-758562
BaMg6VO8,3.426199999999999,-2.536754338125,mp-1031593
LiCr2(PO4)2,0.0,-2.53663919635531,mp-753918
CsSm(MoO4)2,3.6731,-2.5365584933045993,mp-1213306
LiV2PO7,1.5409000000000002,-2.536438933452381,mp-752517
Mo(PO3)3,4.2428,-2.536424978635532,mp-5581
Cs3NiF7,0.873499999999999,-2.5363833700000002,mp-17450
CaLaCrBiO6,0.0,-2.536354276999999,mp-1048881
Li4Ti3Mn5O16,0.296699999999999,-2.536331334035304,mp-772971
RbY(MoO4)2,3.6191999999999993,-2.5362476439583332,mp-1209254
Li6Cr3Co(PO4)6,1.6552,-2.536227786196428,mp-770502
Mn5Nb(PO4)6,0.0,-2.536164696875341,mp-772128
SrCaEuMnO6,0.0,-2.536024744293104,mp-1518897
CaP2W2O9,2.258899999999999,-2.535977704948979,mp-1041006
Fe2P3(O3F)3,2.5033,-2.535951155329135,mp-1202233
Rb7SmFe6(P4O17)2,2.2134,-2.5357812075829083,mp-1196551
Ba2VP2O11,0.116799999999999,-2.535720725892857,mp-863001
Na3MgMo(OF)3,2.084899999999999,-2.535686778103447,mp-2240370
NbMoO4,0.0,-2.535496439999999,mp-1220430
LuNiO3,0.0,-2.535460960833331,mp-19327
NiB4O7,2.142299999999999,-2.535456436805554,mp-557107
KFeP2O7,1.9052,-2.5352130728668762,mp-541673
ScMn2O5,1.1108,-2.535182568232759,mp-773517
Li3Nb2VO6,0.4979,-2.535134537708332,mp-773121
Mn3NbCr2(PO4)6,0.0,-2.535107736712506,mp-775967
Li4TiV5O12,0.250899999999999,-2.535075455757575,mp-776628
KTl2MoF6,2.4401,-2.535024284391668,mp-560959
NaNbWO6,2.9255,-2.535004902931034,mp-1221083
LiLa(MoO4)2,3.7935,-2.534886955069446,mp-729006
Li3Mn3(PO4)4,1.0438,-2.534774449898635,mp-26143
BaGdFe2O5,0.0,-2.5347714416666682,mp-20989
Li3VSiCO7,2.1933,-2.534766981346154,mp-768601
K4Ba2Na4Ti8MnSi16(W4O29)2,0.0,-2.53476407731797,mp-1213587
Li5Co2O2F5,0.000199999999999,-2.534619144404761,mp-850204
V2O3,0.0,-2.53454769325,mp-21579
Rb6U2Mo4O21,2.1941,-2.534443137727273,mp-555242
Ba2Sm2Fe4O11,0.0,-2.534275642368422,mp-704632
AlFeO3,2.1792,-2.534268328,mp-1178577
CrNiF6,0.0,-2.534242858750021,mp-690539
NaLa(MoO4)2,3.5204,-2.534238506364929,mp-1220757
Sr20Fe9Co(MoO6)10,0.2971,-2.534179709250001,mp-720269
LiNb7V12O48,1.6223,-2.534161198872549,mp-774457
ErMoO5,0.200099999999999,-2.534156491071429,mp-1213170
RbFeP2O7,2.5011,-2.534139638344155,mp-18396
K3ErMgV2O8,1.7368,-2.534104643783333,mp-2232149
Li2Fe5Si5O16,2.3446,-2.534015127738095,mp-767707
LiTiV3O10,1.8755,-2.533925881111111,mp-756940
BaYMnCuO5,0.0,-2.53389521032567,mp-1308658
Ti5Fe7O18,1.379199999999999,-2.53388543488889,mp-757016
GdMnGe2O7,1.2932,-2.533880653448276,mp-1191402
MgV3CoSn2(PO4)6,1.128599999999999,-2.533564916563706,mp-1234391
Na2V3P2O13,1.7762,-2.533524697477217,mp-558049
Na2VAgF6,0.0,-2.533360947999998,mp-1111313
DyVO2,0.0,-2.533210767916665,mp-1212946
KNa2CoF6,3.224199999999999,-2.533209598000862,mp-1111017
Ta2Zn2NiO8,3.6028,-2.533209058435898,mp-1046140
Ba2FeGe2O7,0.0,-2.5332053591666632,mp-1190820
Li3Cr3SiO8,3.077899999999999,-2.533138231333333,mp-755028
Mn2V3Sb(PO4)6,0.0,-2.5330133664922,mp-767946
KLa(MoO4)2,3.3346,-2.5328364514375,mp-1211443
Li3Mn(BO3)2,1.3526999999999991,-2.532832230938698,mp-770910
Nb2WO8,2.3846,-2.532815379545455,mp-1046949
SrLa(FeO3)2,0.0,-2.532713528499999,mp-1218237
Sr5FeMo4O15,0.0,-2.532699091399999,mp-1218610
LaFeWO6,1.7784,-2.532645078333333,mp-1043919
Na4CaFe4(PO4)6,2.1879,-2.532626861624983,mp-1173772
K2MgMn2P6(HO10)2,3.843,-2.532617965627855,mp-1233500
Li4Cr5(P3O11)2,1.9217,-2.532606250707849,mp-780109
U2Co3O8,0.3506,-2.5325892438461532,mp-22523
Sr2FeMoO6,0.6149,-2.5325863264166673,mp-1173284
Li3V3P8O29,1.2238,-2.532502682724252,mp-1177582
KHfInWO6,0.5172999999999991,-2.532502573391666,mp-1522604
RbGd(MoO4)2,3.1143,-2.5324305254166672,mp-1209393
Cs2Mo3P5O19,0.4887,-2.53226561250085,mp-1196773
Li3MnB6O13,1.460699999999999,-2.532248357083958,mp-779068
SrCa7Mn6Cr2O22,0.0,-2.53213271987069,mp-1247571
RbNd(MoO4)2,3.6992,-2.5320838929166682,mp-1200745
BaSmFeSnO6,2.106899999999999,-2.532077728999999,mp-1519243
SrCa7Mn7FeO20,0.0,-2.532024070986589,mp-1076449
K2CrAuF6,1.5844,-2.53201195645,mp-1111943
Al5(CoO4)3,0.3208,-2.531957335249997,mp-1252778
Ba3Fe2Cl2O5,2.4471,-2.531939594999999,mp-560330
Mn2OF4,0.9464,-2.531885765837439,mp-1295109
MgMn2P2O9,0.0,-2.531825424296271,mp-1041008
KLaDyFeO6,0.283399999999999,-2.531797851391666,mp-1516307
Mg6VSnO8,2.7958,-2.5315747078125,mp-1031691
K2RbTbMgV2O8,1.5741,-2.531481156911111,mp-2232136
V3Ni(PO4)4,0.8257000000000001,-2.5314334366071423,mp-1101186
LaMgMnFeO6,1.412399999999999,-2.531362042793103,mp-1043996
SrCa7Mn7CrO20,0.1993,-2.531297410083813,mp-1247650
Li4Mn5Cr(PO4)6,0.3167,-2.531283272521141,mp-759645
KGd(MoO4)2,3.1729,-2.5311970858125012,mp-1211580
V2ZnP2O9,1.6989,-2.531037520841836,mp-1041048
BaMg6MnO8,3.9317,-2.53096298299569,mp-1032679
Na9Fe3P8O29,2.4659,-2.530946146113401,mp-761065
HoMoO5,0.0,-2.530902193928571,mp-1212177
V2SiO7,2.4983,-2.530888542250001,mp-771650
Sr3CaCr2S2O5,0.0,-2.530876622307691,mp-1048627
YCrTeO6,2.6946000000000003,-2.530866930185184,mp-1105234
LiP3(WO6)2,2.7689,-2.5308525034589953,mp-758098
Sm2CoPtO6,1.7723,-2.5308373050000013,mp-1208920
Eu2FeSbO7,0.0,-2.53073029818182,mp-1225440
LiMn6(OF2)4,0.0,-2.530707425311555,mp-1232977
SrMn2V2O8,2.0316,-2.530686881220159,mp-1194563
CaCr2(SiO4)3,0.0,-2.530685773055555,mp-1250522
K3V(PO4)2,1.9769,-2.530673475431122,mp-557046
La2CoIrO6,0.6160000000000001,-2.5306732215,mp-18862
Sr2MgZnWO6,2.0822,-2.530657917727273,mp-2217664
LiCr6P7O24,2.3798,-2.530631201469297,mp-504358
Mn5(SiO4)3,0.0,-2.530621519357758,mp-5802
Ba2Li3Y3(MoO4)8,2.2428,-2.530619855833334,mp-1228739
Li4TiFe3Sn2(PO4)6,1.511699999999999,-2.530523049613096,mp-1177317
BaNdFe2O5,0.0,-2.530522628611111,mp-1182187
ErMnFeO5,1.1587,-2.530337448491378,mp-1213032
KLiTm2(MoO4)4,3.2004,-2.5302160550243062,mp-1211810
ScCoO3,0.8961999999999991,-2.530143647499999,mp-1643785
Sr9Mn5Co2O21,1.790399999999999,-2.530038271071761,mp-1197208
Li6Cr9(PO4)8,2.7335000000000003,-2.530009538675325,mp-26163
LiVH2OF5,1.9690999999999992,-2.529945429583333,mp-752723
Ca8Mn7CrO22,0.0,-2.52988685626361,mp-1247613
Ba2V2CuClO7,1.0395,-2.529880418461537,mp-1214680
Li4Fe3(OF3)2,3.4329,-2.529576204555555,mp-752847
CsGd(MoO4)2,3.082,-2.529492260387931,mp-1213392
Ca2SbWO6,1.4767,-2.529327250999999,mp-1369592
Ca4Mn3CrO12,0.344599999999999,-2.529293260314655,mp-1247715
Li2Fe2Si2O7,3.2718,-2.529264232435896,mp-757107
CsNd(MoO4)2,3.6679,-2.529240501846265,mp-1213270
KNdV4O12,0.382299999999999,-2.529221211930556,mp-1522681
Na2CaV4O12,2.9046000000000003,-2.529112228566243,mp-17968
NdTi3Fe(CuO4)3,0.0617,-2.529084167374999,mp-39888
Sr4MgMn2(ClO3)2,0.0,-2.529073620057471,mp-2228751
TaTlV2O8,2.7868,-2.529017008597222,mp-1194680
Li4V3Cr2Co(PO4)6,0.5606,-2.528898569279762,mp-771298
KLiTb2(MoO4)4,3.3146,-2.528865176621529,mp-1211713
Ti3Cr3(SbO8)2,0.7355,-2.528864603333333,mp-770891
MgV4Sb2(PO4)6,0.7105,-2.528513425752896,mp-1233069
CrP6(WO8)3,2.0678,-2.528283801407563,mp-775489
Cs2HgMoF6,0.0,-2.528273312181036,mp-1113177
KLiEr2(MoO4)4,3.2596,-2.528098759190972,mp-1211563
KLiDy2(MoO4)4,3.2809,-2.5280254676631952,mp-1211571
Ca7MgMn8O20,0.0,-2.528024516345785,mp-1076897
Sr2MgZnMoO6,1.8057,-2.527968935,mp-2240644
Na3VP2O9,1.1306,-2.527962726894908,mp-1193226
Li6Co(SiO4)2,2.700299999999999,-2.527912713823529,mp-758702
Li5Fe2(PO4)3,3.9183,-2.527876362413419,mp-1177302
ZnWF5,0.0,-2.527797519999999,mp-1404732
Ca7Ni(IrO6)2,0.0866,-2.527796464999999,mp-1227125
Nd2Zr3(MoO4)9,3.4931,-2.527700626999971,mp-704125
Li2Cr(PO4)2,0.0,-2.527643212765568,mp-779887
Sr2Ca6Mn7FeO20,0.0,-2.527383781056034,mp-1099810
BaMgV4O8,1.0152,-2.527351795357143,mp-1044203
Tm2Mo4O15,3.2963,-2.527332158333333,mp-1208057
LiVP3HO10,2.1024,-2.527270516313244,mp-849372
Ca3Fe2(GeO4)3,2.4715,-2.527250949624999,mp-21971
TmNiO3,0.0,-2.527218608000002,mp-1106304
KLiHo2(MoO4)4,3.226,-2.527140916690972,mp-1211688
Li4Ti3Mn3(SbO8)2,0.0,-2.52699653454023,mp-758701
K3HoMgV2O8,1.7641,-2.526982132783333,mp-2228647
Nb2VZn2O8,0.9222999999999992,-2.52694661076923,mp-1046866
MgMn3VCr2(PO4)6,0.441899999999999,-2.52683769369325,mp-1234827
RbTm(MoO4)2,3.100899999999999,-2.526751532291668,mp-1209114
MgV2O6,2.7654,-2.526702651666667,mp-504510
La3Fe5O12,1.9344,-2.5266957703750013,mp-1212003
Li4TiV8O18,0.0,-2.5265664065053772,mp-769497
Li3Co2Si3O10,0.0,-2.526554791944443,mp-1177711
NaMnP2O7,0.8287,-2.526411064417823,mp-1192230
Sr3MgFe2O7,0.0,-2.526273179999999,mp-2240893
MgTi(WO4)2,1.6719,-2.526243267361111,mp-2218111
Lu2Mo4O15,3.3038,-2.526238371587302,mp-1210966
LiCoF4,1.9285,-2.526201368055556,mp-554689
Y3Fe5O12,1.9136,-2.52611848025,mp-4704
Cs3Mo6(P5O19)2,0.0,-2.525915297112177,mp-622048
DyMnFeO5,1.146,-2.525895946824713,mp-1212984
Cs2Mo5(P3O11)3,1.4311,-2.52578586767543,mp-1201373
BaEuSnWO6,0.1386,-2.5257852090000013,mp-1516731
LiFeP2O7,1.7443,-2.525759379329004,mp-19294
CaFe3Si2O9,1.150599999999999,-2.525737655333334,mp-859186
Li5V3Bi2(PO4)6,0.3195,-2.525694918113096,mp-1177171
KLaNbNiO6,0.0,-2.525545193224999,mp-1520198
Mg2VBiO6,3.291,-2.5255247247500012,mp-23134
MnCr3(PO4)4,1.1418,-2.525468930687604,mp-775116
Cs2VH2(OF2)2,2.8269,-2.5254435747100312,mp-1226442
Pr(WO3)2,1.6787,-2.525338647962963,mp-1044751
SrNi2(PO4)2,3.7853,-2.525292888406593,mp-18252
Li9Cr5(SiO8)2,2.8676,-2.5252393953125,mp-756673
BaSrInWO6,0.0,-2.525219261666667,mp-1516873
NaV(PO4)2,1.8202,-2.525185704430418,mp-759218
V3Cr2Fe(PO4)6,0.0,-2.525161221051586,mp-774892
Cr6P7O24,0.1596,-2.525127207635136,mp-504359
Li4Mn(BO3)2,3.8475,-2.525087912853669,mp-754416
CsFeP2O7,2.4057,-2.5250215308128072,mp-20113
Li2TiMn2O5,0.643799999999999,-2.524998473086206,mp-770956
MgTiV4FeO12,1.3376,-2.524994709385966,mp-2230449
CaV4O6,0.282899999999999,-2.524892217272727,mp-1044005
V6O11F,0.575499999999999,-2.52486152111111,mp-754260
Sr2Mg(MoO4)2,1.5909,-2.524849196538462,mp-2219849
SmCrTeO6,2.694899999999999,-2.524806572962962,mp-1106360
Li3Mn2P4HO14,3.9074,-2.524764444611811,mp-780148
Li5Cr6P5O24,0.625,-2.524692194497024,mp-758754
KLiLu2(MoO4)4,3.1597,-2.524688605788194,mp-1211661
Li6Cr(BO3)3,2.3605,-2.52468105736842,mp-772644
RbLiMnP3HO10,3.5241,-2.524671430526054,mp-760023
Li3VP2HO8,3.2231,-2.524588612369046,mp-755739
V3Cr2Sn(PO4)6,0.0,-2.524515427023809,mp-850428
CsPr(MoO4)2,3.6994,-2.524512056360154,mp-572452
RbTb(MoO4)2,3.183,-2.524449953680555,mp-1209099
MgMn4(OF)4,0.7147,-2.524427286671087,mp-2233400
Sr3Ca5Mn7FeO20,0.0,-2.52438288612548,mp-1076750
K3CaV5O15,2.7603,-2.524329174447917,mp-561144
P2WO7,3.122999999999999,-2.524320427428571,mp-755995
Eu2NiO4,0.0,-2.524308572857145,mp-770352
SrCa7Mn6Cr2O23,0.0,-2.52427982622016,mp-1247633
VP6(WO8)3,1.642399999999999,-2.524243819936975,mp-760032
Er2Mo4O15,3.286699999999999,-2.524230554285712,mp-1212977
LiVP4O13,0.9993,-2.524126822468672,mp-25948
Fe10OF19,1.3841,-2.523947684666667,mp-887367
Sr2FeSbO6,1.6733,-2.523769741499999,mp-1218824
Fe3B7ClO13,3.8698,-2.523761256840277,mp-556300
Li4Ti3V3(CuO8)2,0.2742,-2.523532372619047,mp-776176
MgP8(WO12)2,3.8568,-2.523506258061223,mp-1233126
SrMnOF5,0.0,-2.52343228411638,mp-1106083
Nd16(Mo3O8)7,1.055599999999999,-2.523396768279569,mp-1202578
Mg6MnSnO8,0.0,-2.52339631205819,mp-1099241
Na6V2B4PO16,0.0,-2.523372492054668,mp-780410
RbLu(MoO4)2,3.0489,-2.523370806597223,mp-1209266
Li3Mo(PO3)8,1.1831,-2.523338901309524,mp-26319
Ca4Mn4O11,0.0647,-2.52329018798548,mp-698549
Sr3Y(CoO4)2,0.0,-2.52316989,mp-1218489
Ba6Mn5O16,1.3114,-2.523109913320509,mp-30895
NbV2Fe3(PO4)6,0.8916000000000001,-2.523083025496032,mp-759273
Li3MnPO5,2.4135,-2.523081131007389,mp-757770
Li6Mn3Sn(PO4)6,0.3804,-2.522871106916256,mp-776373
Li3Fe2(SiO4)2,1.5291,-2.522828097,mp-1177702
Ba3Fe2WO9,1.515899999999999,-2.522751010666667,mp-1228376
Sr4Ca4Mn7FeO20,0.0,-2.522633878764368,mp-1076163
Cr2P3O10,0.0,-2.522609971928569,mp-26116
Ho2Mo4O15,3.3221,-2.522608943095238,mp-29142
LaSmNi2O5,0.548099999999999,-2.522579839375,mp-1076810
GdCrTeO6,2.6147,-2.522575112962962,mp-1188719
VO2,0.7584000000000001,-2.522468176666668,mp-541404
Be3Fe4Si3TeO12,3.2723,-2.52245891789855,mp-1134064
V3Cr(PO4)6,1.1069,-2.522385589642857,mp-775008
Ca2Cr3O8,0.4883,-2.522366256923076,mp-1404745
LiP4WO13,2.5984,-2.522353976942355,mp-758454
V3O5,1.311799999999999,-2.5223457256249993,mp-1272338
Li3Mo2P5O18,1.4358,-2.522341078864796,mp-585177
K2NaMo(OF)3,3.2738,-2.522129552087931,mp-690372
Mg6CdNiO8,4.116499999999999,-2.5220463625000002,mp-1031652
MgMn5Cr(PO4)6,0.451899999999999,-2.522038682770604,mp-2220589
CsLa(MoO4)2,3.3379,-2.521990295387931,mp-1213151
Ca3MnCuO6,0.6747999999999991,-2.521987856857367,mp-1214191
KMo4(P2O7)4,0.0,-2.5218300325461662,mp-1223988
KLiSm2(MoO4)4,3.337299999999999,-2.521801934190974,mp-1211510
Ca8Mn8O21,0.0,-2.521779840431035,mp-1247596
NaV2O4F,1.686,-2.521779743297413,mp-1220916
Sm2CoO3,0.124999999999999,-2.521677381166667,mp-1173620
Na2CoNiF7,1.4955,-2.521602485705329,mp-1210483
VP2PbO8,1.7906,-2.521528969315476,mp-1216361
RbPr(MoO4)2,3.9205,-2.5214933615972233,mp-559424
Zn2Cr5(PO4)6,0.7738,-2.521481432915057,mp-1207502
LiMn2(B4O7)2,0.1751,-2.521446487701149,mp-1235124
RbSc(MoO4)2,3.6046,-2.521413759375001,mp-1209180
Ba2SnWO6,1.5556,-2.521390678999999,mp-1518946
SrCa7Mn8O20,0.0917,-2.521388731693006,mp-1247682
BaV10O15,0.8558000000000001,-2.52134808423077,mp-19458
TbVO2,0.0,-2.521285728541666,mp-1208383
Tb2Mo4O15,3.3306,-2.521284601587301,mp-29945
Mn2V3Co(PO4)6,0.0,-2.521217580658868,mp-766563
Sr5Ca3Mn7FeO20,0.0,-2.521165284597701,mp-1099672
Eu2FeWO6,0.0,-2.521126592,mp-1521041
TaNiP2O9,0.0153,-2.521095702239927,mp-1043512
Dy2Mo4O15,3.315699999999999,-2.520972093015871,mp-1213187
NdCoO3,0.0,-2.520969372499943,mp-22599
SrTlVO4,3.2379,-2.520933969404763,mp-560156
Mg6FeCoO8,2.280999999999999,-2.52080149625,mp-1032577
V2Hg(P2O7)2,0.0,-2.520729114812924,mp-505236
SrCa7Mn7CrO22,0.0,-2.520624051921505,mp-1247606
KMo(PO4)2,2.4449,-2.520604322419642,mp-541350
Mn9Al2Si8(HO4)8,2.8092,-2.520593113243718,mp-707875
LiCr3P3O13,0.0,-2.520575049363096,mp-1012789
BaSrVBiO6,0.985599999999999,-2.520552897,mp-1521465
K3YMgV2O8,1.5764,-2.5204591197833333,mp-2228697
Li2Fe3OF6,2.7425,-2.520365893888888,mp-849572
Nd2CoNiO6,0.0,-2.520333432999999,mp-1220568
Ba3In2MoO9,1.8273,-2.520288537888889,mp-1228643
NaFe(PO3)3,4.1472,-2.520219386629133,mp-764111
Li7Mn(PO4)4,0.0,-2.52009338677985,mp-756003
Rb2VAuF6,0.0,-2.5200214915,mp-1110581
CrP4O11,2.660799999999999,-2.519964013504464,mp-774615
Ba6Nd3TiCu6(MoO12)2,0.0,-2.519908201805556,mp-1228694
Y2Mn3O9,0.4674,-2.5198992875923643,mp-1350656
Hf(MoO4)2,3.2774,-2.519785754393939,mp-687090
Mn2OF2,1.169599999999999,-2.5196127821724152,mp-759797
Ba2SrCrO6,0.6776,-2.519606774,mp-1522756
Pr16(Mo3O8)7,0.8094,-2.519606516146953,mp-1196789
Ca4CrFe3O10,1.7498,-2.519592239166666,mp-1227753
MgV5O10,0.9449,-2.5195100459375,mp-2224247
NaCr2P2O9,0.7364,-2.51949683861893,mp-1040460
V3Sb(PO4)6,0.9553,-2.51946127052521,mp-756472
KMg6CrO8,1.085999999999999,-2.519424000453125,mp-1031323
Sr2InWO6,0.0,-2.519313970666667,mp-1520931
Sr2YFe3O8,0.0,-2.519291254285713,mp-1208510
Li9Mn2P4HO18,1.0763,-2.519231675167161,mp-780127