formula,bg,formation_energy,mp-id
AlWO4,2.9802999999999993,-2.682709359999999,mp-1182867
Li3Al2FeO6,2.6790000000000003,-2.682679986458334,mp-770727
NaLaMnWO6,2.0322,-2.682671373931033,mp-22748
Li4Ti5Co3O16,0.0,-2.68264544607143,mp-1177251
CaSmMnSnO6,1.070599999999999,-2.682502858793104,mp-1521356
SrLaMnFeO6,0.1239,-2.682492377793102,mp-1218252
Li4MnO2F3,2.577,-2.6824181918764363,mp-753501
CaMnSiHO5,0.0,-2.682255667686781,mp-24017
HfMg6NiO8,1.029599999999999,-2.6822006675,mp-1031788
LaV2BiO8,3.2664,-2.682178571250001,mp-1222712
Ti3FeCo2(PO4)6,0.0,-2.682059265773808,mp-758306
Sr4La4Mn7CuO24,0.0,-2.68198278763793,mp-698710
Pr3Mn2Sb3O14,0.0,-2.681966737311913,mp-1192218
Sr3LaMn4O10,0.0,-2.681935350373564,mp-1218559
Cs7Co4F15,3.0056,-2.6819063083687,mp-573016
LiLu(WO4)2,3.8008,-2.68189497375,mp-1190882
Rb2W(OF2)2,3.1963,-2.681892906111111,mp-1219649
Sr2Y2Co2O7,0.1869,-2.681870906923076,mp-1047119
KLa(WO4)2,3.8549,-2.681838703104167,mp-1211473
Mg2Cr5(PO4)6,0.6837000000000001,-2.68177777480695,mp-1210760
Ba6Nd2Fe4O15,2.3557,-2.681690976851851,mp-1228695
La5Mn5O18,0.0,-2.681546492309114,mp-690531
CsCrCuF6,0.0,-2.681499691628353,mp-1228892
K2MgP2WO10,3.457099999999999,-2.681302489767856,mp-555398
SmMoClO4,2.8361,-2.681249134285715,mp-558997
Mg2Mn2(SiO4)3,1.3374,-2.681174748729583,mp-1264900
K2RbPrV2O8,3.424,-2.681127125261905,mp-1211736
K2Nb4Fe2O13,1.8139999999999992,-2.681097893309524,mp-17508
Tm2Mn(GeO3)4,1.9907,-2.6809780254174242,mp-1216872
RbCrP2O7,2.9787,-2.68076609948052,mp-1196895
Ba2EuCrO6,0.0,-2.680701319249999,mp-1522649
Sr4Ca4TiMn7O20,0.0,-2.680641864065293,mp-1099799
Mn4Si4O13,0.0,-2.680631231748769,mp-766688
Li2Mg2MnFe(PO4)4,1.061599999999999,-2.680594115314197,mp-755564
Ba2GdMgMoO6,1.5189,-2.680517812272727,mp-2227258
KHo(WO4)2,3.340999999999999,-2.680466336437498,mp-1192188
Ta2Mn4O9,2.4602,-2.680466133092722,mp-17993
Li3VO3F2,3.3379,-2.680290699444444,mp-850210
ZnSi4NiO10,0.005399999999999,-2.680281637656249,mp-1043543
MgFeP2O7,4.2706,-2.680121119707792,mp-1042037
CsFeCoF6,1.828,-2.679922508850574,mp-1226043
BaYMn2O6,0.0,-2.679766433086206,mp-555455
Li2MnAl2O6,1.9674,-2.679661604963427,mp-770689
Sr5Ca3TiMn7O20,0.0,-2.679591573231961,mp-1076192
Ba2V2O5,0.0212,-2.679438186666667,mp-1304744
La2Mg(FeO3)2,2.3198,-2.679379851363637,mp-2240076
Rb2TlFeF6,2.9912,-2.679314555833333,mp-1113644
Mn3Cr2(SiO4)3,2.923499999999999,-2.678999684189655,mp-6274
Li2FeOF3,2.3571,-2.678992005595238,mp-850401
LiSc4(FeO3)4,1.3091,-2.678944788253968,mp-1236487
BaCo2Si2O7,0.044799999999999,-2.6788259741666662,mp-19203
Sr2TbFeO6,0.227299999999999,-2.6788215666666653,mp-1522066
BaSrEuCrO6,0.0,-2.6786120687499992,mp-1520360
Ta2MnZn2O8,1.8718,-2.678555380969054,mp-18369
MgMn2(PO4)2,3.2055,-2.678377112319061,mp-2219203
CaCr2(P2O7)2,0.0,-2.678346145646257,mp-1344248
Ba4CaMn2MoO12,0.0,-2.6781583037931043,mp-1228205
Li2Cr(BO2)5,2.2557,-2.6779980959722223,mp-772433
Sr3V3BiO12,2.9198,-2.677944155526316,mp-1218701
K3Nb4Mo4(PO4)12,0.1069,-2.67793430038682,mp-1224474
MgTiCo(PO4)3,1.4341,-2.67791947790344,mp-1044294
Mg2FeBO5,2.085699999999999,-2.67784053574074,mp-1210692
KTl2CrF6,3.5979,-2.677724281391668,mp-1205672
Li2Ti2V5O12,0.893799999999999,-2.677723758968254,mp-758312
RbTm(WO4)2,3.324,-2.677703464375,mp-1209157
Li3VSiO5,1.706999999999999,-2.67760292475,mp-766229
KTb(WO4)2,3.3535,-2.677590083243055,mp-1190561
V2O3F,0.8026000000000001,-2.6775585425,mp-780623
Ca8Mn6Al2O23,0.244199999999999,-2.677555829168877,mp-1247619
Li4Si3NiO9,4.051,-2.677509451960785,mp-766702
Li4VO3F2,1.633,-2.6773529655833332,mp-764753
LaMgMnCrO6,1.120099999999999,-2.677308482293102,mp-1044923
CsFeNiF6,2.6205,-2.677132267739463,mp-1225937
RbLu(WO4)2,3.3097,-2.677106441180554,mp-1209359
LiTm(WO4)2,3.7741,-2.6770258365277773,mp-1210997
Rb2MgP2WO10,3.3881,-2.676908863627232,mp-561031
La4Cu3MoO12,0.2237,-2.676838259749999,mp-554177
Li4Ti3Nb2Ni3O16,1.8898,-2.676794084761905,mp-771129
La4Ni3O8,0.0,-2.676691451333333,mp-557939
Li6TiCr3(PO4)6,0.0,-2.6764884910297613,mp-758137
Li2Mn5(Si2O7)2,2.3497,-2.676340642652873,mp-756814
Ti3Mn(PO4)6,0.0,-2.67631454399377,mp-774414
Li3Mn8(OF3)4,0.7559,-2.676040814201788,mp-1661801
AlV3O6,0.4872,-2.6760227325000012,mp-1045019
MgCr2P2O9,2.2107,-2.6760131304846952,mp-1040886
Sr2MnGaO5,0.0,-2.675951816159004,mp-21302
La2MgZnNiO6,2.8024999999999993,-2.675934156818181,mp-2241389
Sr3MgMn2O7,0.0,-2.675932178912466,mp-2218972
TiMn2O4,1.387999999999999,-2.67569474631363,mp-540763
Ba2VMoO6,0.400299999999999,-2.6755853955,mp-1079477
Na3V2(PO4)3,1.9166,-2.675392726653324,mp-776557
Li4MnV(PO4)3,2.0378,-2.675339066199663,mp-768584
Ca2Fe2(SiO4)3,0.0,-2.675228492763158,mp-1251946
Mg2V2O7,2.7138,-2.675142304545454,mp-27150
Mg3Fe3(PO4)4,3.727999999999999,-2.675087945137362,mp-1222215
PrMnGeO5,1.9606,-2.675033118699712,mp-619064
Ba6Pr2Fe4O15,2.369,-2.675031596234568,mp-1228608
Li2Nb6NiO18,1.2399,-2.674981183580247,mp-759780
Eu2MnWO6,0.387599999999999,-2.674874771793104,mp-1516440
SrCaMnWO6,1.566,-2.674870084793101,mp-1520083
LiMnOF2,0.9532,-2.6747602222528752,mp-776488
Ba2YMn3O8,0.0,-2.674676511699507,mp-1041433
Mg3CrO4,0.0,-2.674556645624999,mp-1024044
BaMn2FeSi2O9,0.023299999999999,-2.674487644724139,mp-1193263
LiCrP2O7,2.7339,-2.674344235238095,mp-19103
LiV4P7O24,1.843999999999999,-2.674275013356482,mp-1101513
Er2Mn(GeO3)4,2.0246,-2.674259645417424,mp-1225782
Li7MnP4O14F,4.2543,-2.674171541290214,mp-758227
Tm2NiRuO6,0.0,-2.6741555535000012,mp-1208122
Sr2MnGaO5F,0.0,-2.674136821543104,mp-1218766
K2VH2OF5,0.2351,-2.674125571545454,mp-23839
Li6NbV3(PO4)6,0.1805,-2.674092381446429,mp-1176951
Sr3Pr3Mn2Cu2O13,0.0,-2.6740871759070473,mp-1218561
Mg14NiBiO16,1.9701,-2.67404746125,mp-1034577
TaFeO4,0.0,-2.673982990388886,mp-761390
NaV3(PO4)3,0.0,-2.673949151068835,mp-557634
MnAlO3,1.2511,-2.673892614586207,mp-774250
LiV2P3O11,1.8216,-2.673883340721287,mp-32516
RbEr(WO4)2,3.4478,-2.673847612291666,mp-1209367
K2TlFeF6,2.5608,-2.673615376783333,mp-1111373
NaYMnWO6,2.7563999999999993,-2.673562475431033,mp-1105401
Sr2CrSbO6,1.6894,-2.673530843999999,mp-1084823
Cs2V(PO4)2,2.9895,-2.67352772700739,mp-541679
Ho5Cu(WO4)8,0.8681000000000001,-2.673524001413042,mp-1224662
Ba3MoO6,2.2259,-2.673427223,mp-1205495
MgMn2P2(O4F)2,1.0258,-2.6733144553431862,mp-2232581
Sr7Mn4O15,0.0,-2.673177705643235,mp-28761
RbLa(WO4)2,3.7897,-2.6731323460416663,mp-18605
Ca2LaGa(FeO4)2,1.7441,-2.673125279821428,mp-1227683
K3W2(O2F3)2,1.3463,-2.673083131116668,mp-1224236
Li7V7P6(O8F)3,2.545899999999999,-2.673023697578521,mp-759300
Li3TiV3O8,1.6037,-2.672927452555555,mp-756307
MgVCrO4,1.8579,-2.672792599285713,mp-1221990
Er2NiRuO6,0.0,-2.672538971499999,mp-1212954
MgAlCrO4,2.418199999999999,-2.672529713571429,mp-2227439
Ca2FeWO6,3.0012,-2.672509629,mp-1275487
LiMn3OF8,0.2583,-2.672502355355879,mp-759751
CaMn2P2O9,0.0,-2.672352445010556,mp-1364623
Rb3CoF6,2.9106,-2.67234887424999,mp-1113630
Ca8TiMn7O20,0.1126,-2.672346497884738,mp-1247661
Li2VP2O7,2.9171,-2.672170341954364,mp-754669
Li2TiMnO4,0.0,-2.6720280613038803,mp-754547
LiV(PO3)4,2.1576,-2.671968688994708,mp-26955
NaTaWO6,3.2929,-2.671873227079182,mp-1221000
LiV3P3O13,0.0,-2.671769407363095,mp-1013878
Mg2V3O8,1.8265,-2.671733286538461,mp-1661936
LiMnVP2(O4F)2,0.0,-2.671717012703338,mp-777400
RbHo(WO4)2,3.4066,-2.671693730208332,mp-1209334
NaV3P3O13,1.4356,-2.671626947015394,mp-1012791
NaSrEuWO6,0.006099999999999,-2.671546507637931,mp-1521666
KCrCuF6,0.0,-2.671336324416666,mp-541136
Li2MnP2O7,4.3532,-2.6712444919902842,mp-1203394
Fe3Pb5F19,2.9969,-2.671145758703703,mp-1213069
CaCr3(P2O7)2,2.3839,-2.671128187435065,mp-1040822
La4Ni3WO12,0.0,-2.6711190685000012,mp-1223132
TmWBrO4,2.6794,-2.671049450714285,mp-1192455
NaNbFe(PO4)3,2.432,-2.67102693918377,mp-1221032
SrV2O6,2.8040000000000003,-2.670981360555556,mp-19038
LiNbVO4,1.337299999999999,-2.670964023690476,mp-761817
Rb2V(PO4)2,2.9669,-2.6709057335989,mp-19481
RbTb(WO4)2,3.4143,-2.670850456180557,mp-1209144
NdMoClO4,2.6074,-2.670761418749999,mp-1199278
Mn(SiO3)2,0.802,-2.670648114770115,mp-1142713
BaCaMnWO6,1.885199999999999,-2.670369828793103,mp-1516715
LiV2P2O9,1.5389,-2.6703383759013612,mp-1013850
Rb2VHgF6,0.003599999999999,-2.670305425750001,mp-1113932
Sr2CrReO6,0.0,-2.67028520825,mp-1205958
GdMoClO4,2.4595,-2.669957121428571,mp-559032
LiEr(WO4)2,3.7954,-2.669882129861111,mp-1192111
ErWBrO4,2.7085,-2.669785819285713,mp-1192576
NaV2P2O9,1.4384,-2.669754355761787,mp-1094113
K2V(PO4)2,2.74,-2.669670406445054,mp-18935
Li4Ti3V3(WO8)2,0.136899999999999,-2.669590014404761,mp-768668
Li3VCr(P2O7)2,0.6165,-2.66953781863354,mp-752491
SmV2BiO8,3.0673,-2.669526983750001,mp-1218963
YMoClO4,2.7874,-2.669297855,mp-560118
Li3Cr(PO4)2,2.6416999999999993,-2.669190409948979,mp-1661932
Li5V(P2O7)2,2.6712,-2.669056021051587,mp-758419
Li3Mn2P2(O4F)2,0.671999999999999,-2.6687917467733993,mp-759305
Na3TbV2O8,3.7172,-2.6687740300574703,mp-1210894
EuZrCrBiO6,0.0,-2.6687120065,mp-1523008
RbMg14CoO16,0.0522,-2.668542030546874,mp-1035444
Nb2CoO6,1.7676,-2.668490155833343,mp-504552
LiLa(WO4)2,3.6807,-2.6684821406944432,mp-1210919
SrLaNiO4,0.0,-2.668460153571428,mp-1218155
CsCrP2O7,2.7059,-2.668233519676444,mp-562965
Li6V3Cr(PO4)6,1.9631,-2.6682036061964283,mp-757469
Ho2Mn(GeO3)4,2.0636,-2.66811549699637,mp-1224234
Li2Cr3Si3O10,2.3316,-2.668100568148148,mp-757421
Y2Mg(FeO3)2,0.1547,-2.668085425909091,mp-2217559
Cr3B7O13F,3.1891,-2.667987317256944,mp-1213769
SrCr2O4,0.0,-2.667741410714283,mp-540583
SrCaCeCoO6,0.0,-2.667683634,mp-1516565
Mn3Si3O10,1.280399999999999,-2.667680489612069,mp-861258
Y2(MoO4)3,3.9811,-2.667609437794116,mp-556937
Li3Cr2(PO4)3,2.9720999999999993,-2.667552592696427,mp-780606
CaCo2(SiO3)4,0.0,-2.66752269,mp-1248436
RbCrCuF6,0.0,-2.667428340277777,mp-1219603
YMnCrO5,0.138799999999999,-2.667383268803879,mp-1207744
Li3Mn(BO2)5,4.123799999999999,-2.667294140461283,mp-768488
Ti3CrSb2(PO4)6,0.0,-2.667290611329365,mp-778268
Li24Ti7Cr5O36,1.319899999999999,-2.6672415767129642,mp-768392
La3Al(FeO3)4,0.0,-2.667165041750001,mp-1223294
Sr2VInO6,1.797499999999999,-2.667111297666667,mp-1521078
Be3Si3(WO6)2,3.5641,-2.6670425503749993,mp-1047959
TbWBrO4,2.6473,-2.66703991095238,mp-1192573
Ca3MnZnO6,2.2454,-2.666855457993731,mp-19224
Fe2Pb3F12,3.137499999999999,-2.666823764999999,mp-28700
LiHo(WO4)2,3.7911,-2.666756416527777,mp-1191729
Li3FeSi2O7,2.8033,-2.666704549615384,mp-759383
SrCa7Mn6Al2O23,0.175899999999999,-2.66668894846375,mp-1247705
Mg6VNiO8,1.474999999999999,-2.666683626875,mp-1031776
Sr2Fe(PO4)3,0.0,-2.666554771051587,mp-1203060
Ti3CoNi2(PO4)6,0.0,-2.6665306213293642,mp-774435
MgTiNi(PO4)3,0.0,-2.666333629570106,mp-1044226
Mn3B7ClO13,4.208299999999999,-2.666306990331657,mp-556656
LiVPO5,1.5636,-2.666295293184523,mp-26963
K3Co2F7,0.0,-2.666295177229168,mp-555101
Ti3MnCu2(PO4)6,0.0,-2.6662736462718932,mp-1101389
K4Na2FeH3F12,4.0785,-2.666252364795845,mp-694997
Mg6VCoO8,1.5075,-2.665947389375,mp-1032299
Li2Cr4Si4O13,1.4712,-2.66590274615942,mp-757512
DyWBrO4,2.651,-2.665898297023808,mp-1192384
CsSi2Mo3P6O25,1.3245,-2.665774613581414,mp-1213518
Gd4Mo4O11,0.4432,-2.66557848907895,mp-1200768
La2MgTiNiO6,0.0,-2.665516965303031,mp-2223109
Li12Mn3V5(PO4)12,0.5555,-2.665499699243842,mp-887443
Li2Fe2OF6,2.3338,-2.665471211060605,mp-755474
HoWBrO4,2.6863,-2.665364907857142,mp-1192451
Li3V4(PO4)6,0.6562,-2.665296253455599,mp-766125
NaPr3Mn4O12,0.0,-2.665240282405172,mp-1221009
Ba7Ca2Mn3Cr2O20,0.0,-2.6651605915821492,mp-556182
NaPrZrFeO6,0.0,-2.665075123304598,mp-1521691
Mg14FeBiO16,2.9930000000000003,-2.665057281249999,mp-1035533
Li3V(BO2)5,2.7495000000000003,-2.664956094254385,mp-770344
Ca2La5Mn7NiO24,0.0,-2.664929430269672,mp-1357240
Ta4Mn2Zn3O16,1.5191,-2.6648829522078152,mp-1378479
SrMoO4,3.8445,-2.664873142499999,mp-18834
Ca7MgTiMn7O20,0.0,-2.664851332954182,mp-1076207
Mn3V2(SiO4)3,0.0,-2.664848467564655,mp-14046
Ca5Cr3ClO12,0.9861,-2.6645643369047622,mp-1196512
KMgFe(PO4)2,2.4804,-2.664561556464285,mp-1194865
Ca3Fe7(SiO4)6,2.5679,-2.664513616749999,mp-1227996
Ca5La7Mn7Ru5O36,0.0,-2.664452108508621,mp-743863
Rb2MnCuF6,0.0,-2.664430039293103,mp-1113808
Li2MnV(P2O7)2,0.021799999999999,-2.664354146507687,mp-850939
Sr4LaMn5O13,0.0,-2.664279348680659,mp-1218501
Fe3Pb8F24,1.679599999999999,-2.664217306571427,mp-735822
Dy2Mn(GeO3)4,2.0967,-2.664211162171808,mp-1225644
YV2BiO8,2.939,-2.6640125475,mp-1215728
Ti3FeSb2(PO4)6,0.0,-2.6639641391071422,mp-776760
SrZnFe(PO4)2,3.3951,-2.663923033021978,mp-1046443
NaCaEuWO6,0.0,-2.66387843213793,mp-1518554
BaMo2(PO4)3,0.0,-2.663804371884921,mp-541255
Nd4Ni3O10,0.0,-2.663721131176469,mp-555135
V2B(PO4)3,2.2316,-2.66371261952381,mp-560575
KNdZrFeO6,0.0,-2.663656030475,mp-1520724
NaLaDyMnO6,0.0,-2.663434518597701,mp-1517903
MnZnF5,0.0433,-2.663302068275862,mp-1394801
Li4Ti3Cr3(SnO8)2,0.0,-2.663162507261904,mp-776780
Tm2MgMo2(ClO4)2,1.7352,-2.6631383690000012,mp-2232507
KY(WO4)2,3.4953,-2.663045768937499,mp-510264
Sr2FeWO6,1.768399999999999,-2.663015328,mp-19266
SrCa7TiMn7O21,0.0,-2.662813598212178,mp-1247574
MgVSF5,0.289799999999999,-2.6627794859375,mp-1046747
Sr10Mg2Fe3(MoO6)5,1.3907999999999991,-2.662637937800001,mp-1218944
LiDy(WO4)2,3.786799999999999,-2.662636796666666,mp-1192153
Li7V2P7O24,2.5942,-2.662604240145833,mp-758404
Li3MnB8O15,1.3799,-2.662545740232014,mp-777353
MgV2(PO4)2,2.001,-2.662501682060439,mp-1040887
Dy2MgW2(ClO4)2,2.4472,-2.6624941852222213,mp-2232238
SrMg6FeO8,4.0408,-2.662434661875,mp-1032435
Mn12O5F19,0.0,-2.662429111810344,mp-760306
Li9TiMn3(PO4)6,0.367599999999999,-2.662386331976363,mp-768514
Na3V2P2O10F,2.1311,-2.662373362690202,mp-1173762
La2FeNiO6,0.0,-2.662331269,mp-1223335
MgFe(PO3)4,4.3795,-2.6622790040873,mp-1045790
KFe2P3(O4F3)2,2.4313,-2.662277484308915,mp-1205183
Na2MnPO4F,0.0,-2.66222519198139,mp-556404
Li6V3P8O29,0.0,-2.662222470263975,mp-760182
Li5Cr2P5O18,2.4505,-2.662172113162698,mp-26683
K2RbCoF6,3.2015,-2.662046084199999,mp-1111385
Li3Ti2NiO6,0.0,-2.661776715555555,mp-755155
Li2VP3O10,2.1352,-2.661730677849702,mp-757972
Sr2YAlCo2O7,0.0,-2.661657289615384,mp-1046824
Mn2NbV3(PO4)6,0.0,-2.661623351492199,mp-759695
NbV3(PO4)6,1.0128,-2.661574420231093,mp-775224
Li4Fe3OF8,2.565299999999999,-2.661532711145834,mp-764594
Ca8TiMn7O21,0.0,-2.661500224090556,mp-1247702
Ti3FeCu2(PO4)6,1.440999999999999,-2.661499568829365,mp-776012
Ca2MoWO6,1.550599999999999,-2.6614614210000003,mp-1347979
BaCaNdMnO6,0.0,-2.661427052543104,mp-1517966
Ho2MgW2(ClO4)2,2.4305,-2.661276716333332,mp-2227208
Na3SmV2O8,3.6922,-2.661162983747947,mp-1210666
Cs3CoF6,2.912,-2.661095949896553,mp-1206497
Ba5Cr3ClO12,1.0844,-2.6609496502380963,mp-1214675
BaNd2MgMn2O7,0.938299999999999,-2.6608836092970822,mp-2218912
KGd(WO4)2,3.247499999999999,-2.660793796020833,mp-505647
Li5VP3O11,3.150499999999999,-2.660752275529762,mp-757557
YCr3O6,1.6873999999999991,-2.660695653499999,mp-1045038
Mg3Co2(SiO4)3,2.539799999999999,-2.66045464875,mp-1324099
KSm(WO4)2,3.5365,-2.660352503104165,mp-1211333
LiTaWO6,3.3631,-2.660248955907407,mp-768074
Ba2CrMoO6,0.0,-2.6602070959999993,mp-1079901
Fe7Pb7F34,2.2939,-2.660195482708332,mp-21679
Li2Cr5(Si2O7)2,2.6538,-2.660144944066666,mp-867580
MgNiF5,2.0048,-2.660099035714286,mp-1397453
TmMn2O5,1.221099999999999,-2.660034671982766,mp-1207725
Li4Ti4Mn4VO18,0.8492000000000001,-2.659993329948091,mp-766883
Li3V5(PO4)6,1.9493,-2.659988452312029,mp-1177556
Li2TiCrO4,0.3064,-2.6598656915625,mp-1302453
Ho2MgMo2(ClO4)2,1.7095,-2.659814385666665,mp-2227083
LiMnNbO4,2.7137,-2.659752926252054,mp-771705
LiTb(WO4)2,3.7750999999999992,-2.659734967499999,mp-1211005
EuMoO4F,0.0,-2.65965903607143,mp-582540
RbY(WO4)2,3.4123,-2.659604904791666,mp-1209133
BaEuVSnO6,0.0,-2.659563586000001,mp-1522177
Li4Ti3V2Cr4O18,1.585799999999999,-2.659541970430107,mp-774581
Li2CrP2O7,3.834,-2.6595338550793652,mp-26965
Nb2NiO6,2.998199999999999,-2.659272506666665,mp-22198
Tb2MgMo2(ClO4)2,1.7155,-2.659133244555555,mp-2232185
LiMgVO4,3.482599999999999,-2.659056395476189,mp-560157
CsAlFe3(SiO4)3,2.0275,-2.659040877482758,mp-1226105
Li3TiV2O6,0.374699999999999,-2.658947957361112,mp-1273419
Na2TlCrF6,3.7666999999999993,-2.658808712609196,mp-1110619
K5Na3Nb6(WO12)2,0.0,-2.658750792509697,mp-1076412
Li4Ti2V3Cr3O16,0.9930999999999992,-2.658513355714286,mp-772990
Dy2MgMo2(ClO4)2,1.7314,-2.658407499222221,mp-2228768
Ti4(FeO4)3,0.8216000000000001,-2.658385749122806,mp-1337025
Y4Mo4O11,0.0,-2.658333649078947,mp-16393
Li2V(PO4)2,1.310099999999999,-2.658300478150183,mp-26415
Li5VP2O9,0.003499999999999,-2.658292912408963,mp-559308
Li4CrP2(O4F)2,0.5884,-2.65828821289916,mp-759047
V3(OF)4,0.6841,-2.658268441818182,mp-760115
Sr2YTlV2O7,0.0,-2.658255107564103,mp-1046038
La2VReO6,0.0,-2.657909011250001,mp-1078783
Ta2W2O11,2.158,-2.657902518977777,mp-677178
UMnO4,0.7099000000000001,-2.657902235488505,mp-19173
GdWBrO4,0.6918000000000001,-2.657839921071428,mp-1192808
TiV3(PO4)6,0.875699999999999,-2.657787760623248,mp-774418
CsLa(WO4)2,3.649499999999999,-2.65771794038793,mp-1213173
LuMn2O5,0.7359,-2.657710999066092,mp-542397
RbSm(WO4)2,3.448399999999999,-2.657651141875,mp-1209136
CeMoClO4,0.0,-2.657282696785714,mp-1196379
ErMn2O5,1.0779,-2.657208089795258,mp-19345
NaNdMnWO6,2.2832,-2.6571764521810333,mp-20156
Li2Fe5F17,2.9095,-2.6570577812152782,mp-849403
Tb2(MoO4)3,3.3639,-2.656939632107843,mp-3114
RbLaMnWO6,1.6904,-2.656909701543102,mp-1105199
Li2Si2NiO6,3.7949,-2.656881666742424,mp-1645783
LiV2(PO4)2,0.587399999999999,-2.656683559047619,mp-753869
Ho2(MoO4)3,3.5751,-2.656624027058823,mp-1212381
BaMn2P2O9,1.1844,-2.656562042153413,mp-726803
Dy2(MoO4)3,3.581099999999999,-2.656520687254902,mp-1213120
BaYVCuO5,0.0,-2.656487152777777,mp-1042482
SrCeEuNiO6,0.0,-2.6564799404999992,mp-1518063
La2Co2O5,0.0,-2.656410840555556,mp-1076438
Ca4Si6W3O19,0.0322,-2.656306745937499,mp-1214557
V4P7O24,0.0,-2.656296420214285,mp-504284
Ti3Cu2P6WO24,0.0,-2.656150896051587,mp-759932
K2Cr3(ClF3)2,2.4339,-2.656148201115384,mp-555898
Yb2Mo4O15,0.122299999999999,-2.656119101964285,mp-1207731
Ho2NiRuO6,0.0,-2.6560934209999982,mp-1211920
Dy2MnCoO6,0.391799999999999,-2.6560564936264353,mp-1237349
Ca2MnReO6,0.1472,-2.6559970390431062,mp-1106155
Ca6La2Mn7CrO24,0.0,-2.655991766137931,mp-743861
Na3GdV2O8,3.1514,-2.655731516843186,mp-1212330
Mn2Fe5(SiO3)8,1.8955,-2.655667103996462,mp-1210841
SrFeSn(PO4)3,0.0,-2.6556201649404763,mp-704950
V2(OF)3,1.4803,-2.655440350833333,mp-763169
Li4Ti3V3(SbO8)2,1.115399999999999,-2.655216414761905,mp-762067
K2U(WO5)2,2.0582,-2.655209157466665,mp-542317
CaDyMnSnO6,0.9511,-2.65505615345977,mp-706325
Li3MnV(PO4)3,0.9264999999999992,-2.65505075159298,mp-778000
LiV2(PO4)3,1.3092,-2.6549863170701062,mp-1101601
RbGd(WO4)2,1.2857,-2.654935861458334,mp-510541
KNd(WO4)2,3.8022,-2.654838397895833,mp-559456
Li3VBPO7,2.2187,-2.654809729523809,mp-768575
Mg14VCO16,1.0269,-2.65479737140625,mp-1034537
Li2Mn(BO2)5,1.237299999999999,-2.6547285247461683,mp-772440
Ba2ZnWO6,3.3679,-2.654629445,mp-548615
BaMoO4,3.7927,-2.654552259166666,mp-19276
V5(P3O11)2,0.057199999999999,-2.654536896147185,mp-767351
Na3NdV2O8,3.7144999999999992,-2.6545216919027093,mp-706588
La2TcNiO6,0.0,-2.654395983499999,mp-1087477
Li4Fe2Si3O10,3.3015,-2.654381393070175,mp-757438
Ca2Mn3Si3O14,0.0,-2.654316726990595,mp-1214281
La2(MoO4)3,3.6634,-2.654257838039218,mp-554402
Na3CoF6,2.7172,-2.654233963913793,mp-1210465
Li4Ti3V3(FeO8)2,1.2104,-2.654230634404762,mp-773674
LiY(WO4)2,3.7774,-2.654157191944444,mp-1191085
BaEu2NiO5,0.0,-2.654110979444445,mp-22294
Li11Fe3B24(PbO24)2,1.1731,-2.6540728206439392,mp-694909
KV3(PO4)4,0.0,-2.654021138575892,mp-1223432
Cs7Ni4F15,4.9957,-2.653855162499999,mp-563023
Sr5La5Cu(NiO5)4,0.0,-2.653813956714286,mp-690554
La2ZnCoO6,0.0,-2.653802820000001,mp-1272890
Li4V(PO4)2,3.3679,-2.653667076007936,mp-753500
Eu2CrSnO6,0.0,-2.6536272505,mp-1521253
CsTm(WO4)2,4.7348,-2.653592392471266,mp-1213213
SrDyV4O12,0.092499999999999,-2.653561515092593,mp-1519466
HoMn2O5,1.1551999999999991,-2.653464195420227,mp-510225
Ba3SrZn2(WO6)2,3.3892,-2.653446005999999,mp-1228089
Ca3HoMn4O12,0.0,-2.653353716836207,mp-1227754
CaNd3Cr4O16,0.291199999999999,-2.653219370104165,mp-1227184
V3P4O15,1.9615999999999991,-2.653181553003246,mp-28425