formula,bg,formation_energy,mp-id
Mg14CrSiO16,2.261599999999999,-2.790174966562499,mp-1034870
KSr3La8Mn12O36,0.0,-2.7900973148737083,mp-697306
Na2YPWO8,4.7418,-2.789904791146267,mp-1201418
Ba2La2Mn4O11,0.087299999999999,-2.789817134564429,mp-1214651
Sr3La9Mn10(CuO18)2,0.0,-2.789676929071839,mp-698797
Mg2VO4,0.0,-2.7895048285714292,mp-30545
Ca2V2O5,0.0,-2.7894844905555543,mp-1344143
Li6Ti3Fe(PO4)6,0.051499999999999,-2.789461677446428,mp-1176962
BaFe2P2O7F2,1.6729,-2.789432288520409,mp-561063
Mg8V5O16,0.7459999999999991,-2.789331305517241,mp-767145
NaFeF4,2.9539999999999993,-2.789319680646551,mp-18455
Ti3Mn2Sn(PO4)6,0.0986,-2.789306944686644,mp-776007
TmCrO4,0.2142,-2.789211074166669,mp-22647
Mg14FeCuO16,0.0571,-2.7892073109375,mp-1035796
Eu3FeO6,0.0,-2.7890771100000022,mp-1189159
MnSiO3,2.6058,-2.789071418443349,mp-5945
Ca4Mn3B3CO15,0.0,-2.789052985242042,mp-532650
SrLaMnO3,0.0,-2.789040291321839,mp-1218167
Li4Ti5Fe3O16,1.2162,-2.788818240714286,mp-777591
V2OF7,2.4554,-2.788621291000001,mp-765500
Sr2VWO6,0.8022,-2.788499068,mp-1519311
Sr2CrO4,1.9972,-2.7884199301785713,mp-19514
CaLaFeWO6,2.471,-2.78816411,mp-1638691
CaLaCrSbO6,1.4122,-2.787961126499999,mp-1667275
Mg2Nb2NiO8,3.317,-2.787905901923078,mp-1046848
YV3O6,1.4055,-2.7878851202500012,mp-1044996
Ca2CrWO6,1.7595,-2.787684323499999,mp-1282800
Sr3CrF12,0.181899999999999,-2.7876251525,mp-1210197
CaMgV2O7,2.7603,-2.78740285090909,mp-14381
BaCoSiO4,3.1021,-2.787397283333333,mp-562027
Ca2Pr4(Mo2O7)3,0.1934,-2.787239887020201,mp-1227629
Lu2(WO4)3,4.8308,-2.787231358137254,mp-768455
ThV2PbO8,2.432499999999999,-2.7871411725,mp-1217380
MgVP2O7,2.806,-2.787031448116883,mp-1048245
Ti3Mn2Co(PO4)6,0.0,-2.786959343714422,mp-849251
BaYMn2O5,0.0,-2.7869452734291182,mp-18850
KSrVO4,3.8457,-2.78674985925,mp-556966
CaFe3(SiO3)4,2.9331,-2.786664067999999,mp-1227384
Sr8Cu(WO6)3,0.0,-2.7864867205,mp-1218848
Li5FeOF5,4.355,-2.786418781180555,mp-777279
Ti3MnFe2(PO4)6,1.1408,-2.786359611827449,mp-774915
Na2Ti3Fe(PO4)6,0.0,-2.786252875017106,mp-772859
LaTaFeO6,0.0,-2.786242780259259,mp-1044002
CaHoMn2O6,0.0,-2.786210496086205,mp-39739
Ti3CrSn2(PO4)6,0.028599999999999,-2.786133101051587,mp-776286
LuCrO4,0.284999999999999,-2.786060476111112,mp-19360
Li3CrSi2O7,2.7192,-2.7859633469230762,mp-758792
SrLaMnSnO6,0.9869,-2.785886013293104,mp-1218210
Ti3CrFe2(PO4)6,0.107099999999999,-2.785796767440476,mp-774450
Ba3Y5(NiO5)3,0.0,-2.7857326755769223,mp-1048252
Sr5Cr3O12F,1.0321,-2.785607708571428,mp-18859
Pr2FeSbO7,1.7804000000000002,-2.78547632257575,mp-1219865
Li4Fe2OF8,2.678,-2.785455131222221,mp-776522
Ca8Mn4Al4O21,0.0,-2.785365464776328,mp-1247620
NaVPO4F,2.0793,-2.7852444749715213,mp-1238774
Na2ZnFeF7,2.9496,-2.785228429568965,mp-15548
CaEuNbWO6,0.0,-2.785012426499999,mp-1518158
Rb4MgU4Cr4O24,0.2917,-2.784996732837835,mp-1233406
Al2Fe3(SiO4)3,3.826900000000001,-2.784980043750001,mp-6172
KMnP(OF)3,0.1509,-2.784951782758209,mp-1198325
La24Ni16O55,0.0527,-2.78490514163158,mp-1178319
YTa(WO4)2,1.959099999999999,-2.7847296739444443,mp-1042458
Ca3La5Mn7NiO24,0.0,-2.7845240330129313,mp-39207
ErCrO4,0.300399999999999,-2.784355649999998,mp-19240
Ti6Co3O16,0.8250999999999991,-2.7843351128,mp-758898
TiMnCr(PO4)3,2.300899999999999,-2.784313409455164,mp-725932
Li2W(OF2)2,4.169,-2.784309477685186,mp-772400
Mg14NbFeO16,0.907999999999999,-2.7841322625,mp-1035626
Mg14CdCoO16,2.773799999999999,-2.784084236562499,mp-1035067
Ba2SmMnO6,0.0,-2.783816058293104,mp-1519192
NaMn(SiO3)2,2.884699999999999,-2.783754242431035,mp-19349
LiSi4NiO10,1.5203,-2.783661487083334,mp-765576
Mg14CdNiO16,4.271,-2.7836538521875003,mp-1034717
Tm2(WO4)3,4.8088,-2.7833847992647063,mp-772226
Sr9Cr5O18,0.8572000000000001,-2.7831591971875,mp-29919
NaMg3V3Cr3Si6B3H3O31,1.4672,-2.7831176351439493,mp-1221086
Y4V6O21,0.195799999999999,-2.783108557419354,mp-1324086
Li2V(SiO3)2,1.6437,-2.783060368787879,mp-863421
Sr6Mg(W2O9)2,2.3113,-2.783019298793103,mp-1234368
CaTbMn2O6,0.0,-2.782975006752873,mp-1227156
Ca8Al3(FeO4)5,1.867999999999999,-2.782973514166665,mp-1227241
Sr2Ce2YCoCu2O11,0.4184,-2.782901580526315,mp-1218876
LiMn3F10,0.6188,-2.782731830151887,mp-767065
Lu2FeCoO6,1.794599999999999,-2.782687023833334,mp-1247745
SrLaMn2O5,0.1107,-2.782516521762453,mp-1218315
Li2Cr3(SiO3)4,2.3455,-2.782306284603175,mp-757728
Ba2LaMn2O7,0.0,-2.7822861171551723,mp-1228437
Mg3Fe2(SiO4)3,2.711699999999999,-2.782252023124999,mp-6551
Li4Ti2Nb3V3O16,0.213199999999999,-2.781965528214286,mp-757958
BaMg14VO16,2.902399999999999,-2.7818951684375,mp-1034473
Si2WO6,0.001699999999999,-2.781807325555555,mp-1143521
Nb3Fe(PO4)6,2.640599999999999,-2.78148468170168,mp-859878
BaCaCeFeO6,0.0,-2.781431761999999,mp-1519944
Ti3NbFe2(PO4)6,0.0,-2.781239952440475,mp-778317
Li2Fe2Si4O11,3.4646,-2.781039900614035,mp-757429
Mg14CoSiO16,0.7026999999999991,-2.780866783124999,mp-1035303
KCeNdMnO6,2.0177,-2.780760435268104,mp-1520426
Nb3P6WO24,1.0427,-2.780659837289916,mp-777849
MgMnP2O7,3.885699999999999,-2.780657777019705,mp-1048275
Ti3V2Sb(PO4)6,0.0297,-2.780649941329364,mp-776521
Ca3Si3(NiO6)2,0.014299999999999,-2.780445715125,mp-1154587
Nd2MnNiO6,1.457199999999999,-2.7804042532931033,mp-18899
Li2NiF4,5.1236,-2.780159261190476,mp-35759
La13Mn14O42,0.0,-2.780126504870066,mp-674504
MgTi4(CoO5)2,0.0209,-2.780007757549018,mp-2229700
Ba5Li2(WO5)3,2.291499999999999,-2.779990600866666,mp-557816
Mg14VSnO16,2.842599999999999,-2.77993251984375,mp-1034549
HoCrO4,0.296799999999999,-2.7799262849999993,mp-19076
Li2UWO7,1.8699999999999992,-2.779832911969695,mp-1223021
Ba3MgNb2CoO9,0.0,-2.779804843750001,mp-2232718
SrCaDyMnO6,0.0,-2.779711638959772,mp-1518514
Li4Mn(SiO3)3,2.8629,-2.779536190956728,mp-780578
ScFeO3,0.9222999999999992,-2.779514111333333,mp-771123
Mg14FeCoO16,0.047599999999999,-2.7792197896875,mp-1035756
Na2LuMoPO8,4.1749,-2.7791912478129333,mp-561247
DyCrO4,0.297999999999999,-2.779022291111109,mp-18754
Na2VCuF7,0.0,-2.778893360757572,mp-541773
MnNb3(PO4)6,0.0,-2.778881700170242,mp-775218
YLu3Cr4O16,0.0,-2.778865281666667,mp-1216059
Li4Ti3V3Cr2O16,0.8934999999999991,-2.778582677619048,mp-772715
TaMnO4,1.2455,-2.778472605460725,mp-1306705
Na2TmMoPO8,4.2237,-2.778195619223192,mp-1210390
TbCrO4,0.2967,-2.778189815277777,mp-19272
CeBMoO6,0.1158,-2.7780987796296293,mp-642871
Mn2F5,0.0,-2.778075849408868,mp-753215
Ba5MgMnV4(Cl3O7)2,2.6163,-2.778008514933259,mp-1214612
Sr8Mg3Fe(MoO6)4,0.0,-2.777958632375,mp-744025
SrCa7Ti2Mn6O22,0.0773,-2.777775458006655,mp-1247647
La4Fe(NiO5)2,0.0,-2.777767998823531,mp-1223077
Li2Mn2(SiO3)3,2.617,-2.777761239637213,mp-772645
Sr2NbCoO6,1.5007,-2.777619402000001,mp-1218740
Ca2MnWO6,2.1817,-2.777544282293102,mp-19108
La9Ni6O19,0.0,-2.777209800882352,mp-1223566
SrCaCeFeO6,0.0,-2.777178776,mp-1519881
LaCrO4,1.0853,-2.777143998333334,mp-18456
La2MnRuO6,0.0,-2.777096221293104,mp-1223380
Mg14NbNiO16,0.0495,-2.7769472556249992,mp-1034850
Cs4Fe3F10,3.1395,-2.776807024036505,mp-616023
Mg14SiNiO16,0.5870000000000011,-2.776530346875001,mp-1035009
NdFeO3,1.7349,-2.776405970499999,mp-20407
Ba4CeMn3O12,1.9704,-2.776246725689655,mp-561553
CsZnFeF6,2.2145,-2.776032882739463,mp-1225833
Ti3Mn2Sb(PO4)6,0.036699999999999,-2.775856005381089,mp-776000
Ba2MnCu(P2O7)2,0.0,-2.775747880522838,mp-1228743
HoMgCr2O6,0.0,-2.775510356999999,mp-1041076
KBaVO4,3.9819,-2.775431843535714,mp-18892
Na2ErMoPO8,4.1972,-2.775428278261652,mp-556289
Ti3FeSn2(PO4)6,1.3145,-2.775110052440478,mp-776144
Mn2Al3Si3O14,0.0,-2.77509425799373,mp-1210830
Ba2Tb2Mn4O11,0.251399999999999,-2.7750278336872363,mp-867516
CaLaMn2O6,0.0,-2.774998104586207,mp-39689
La6Sm2Cr3(FeO4)5,0.9913999999999992,-2.774962064166667,mp-1099892
BaMg14MnO16,0.7568,-2.774850118060345,mp-1036171
TiCrO3,0.4277,-2.774804165666667,mp-755606
Ba3Fe2P4(O6F5)2,0.7347,-2.774719313986175,mp-1198352
Sr3LaCr2(MoO6)2,0.0,-2.774668539749998,mp-1218627
Li5Mn(SiO3)4,0.0451,-2.77458720664838,mp-774496
Mg3VO4,1.535499999999999,-2.7745264893750012,mp-1024068
Er2(WO4)3,4.7925,-2.774494153382352,mp-773008
Na2InNiF7,3.8608,-2.77442232222048,mp-22820
Mg14CoCuO16,0.018599999999999,-2.774368731875,mp-1035635
Na2AlCr(P2O7)2,3.3801,-2.7742889586968182,mp-1221476
MgTiP3WO12,0.8862999999999991,-2.773209793181216,mp-1044375
CaHo(MoO3)2,1.3182,-2.773120962499998,mp-1041241
RbUCrO6,1.5963,-2.773102488611109,mp-17642
NaLaEuWO6,0.6625000000000001,-2.77306310913793,mp-1517878
La7SmMn3Fe5O24,0.0,-2.773029801844828,mp-1075984
Li2Si6Ni2O15,3.854999999999999,-2.772709545966667,mp-850290
Ca8Ti2Mn6O23,0.0,-2.772611033314177,mp-1247681
MnNb8(FeO8)3,2.3973,-2.77245769355364,mp-1221926
Li2Ti2FeO6,1.9776999999999991,-2.772240358030303,mp-753064
Ti3Cr2Fe(PO4)6,0.1135,-2.772104283829366,mp-776069
Na2HoMoPO8,4.208299999999999,-2.7720640498001132,mp-559910
Mg14FeSiO16,2.646,-2.772007049374999,mp-1035561
YMg6NiO8,3.0069,-2.77198577125,mp-1032757
Li4VP2(O4F)2,1.5853000000000002,-2.771960992212886,mp-782668
Ca2TaNiO6,0.0,-2.771806545733332,mp-1367927
Li3Ti2MnO6,0.0,-2.771801637049809,mp-756623
Mg2Fe5(SiO3)8,2.2768,-2.77179018,mp-1222243
Li2V2Si2O9,1.5882,-2.7717370086111113,mp-766119
La3(NiO3)2,0.0,-2.771731707727272,mp-551749
NaCaLaWO6,2.3322,-2.771698829637931,mp-1521388
Sr2Pr2MnCuO8,0.0,-2.771543827233169,mp-1218720
AcFeO3,0.9887999999999992,-2.771539465500001,mp-861502
Ti2MnNiO6,2.2676,-2.7714517739597713,mp-1217119
Mg14MnSnO16,0.1736,-2.771446860716594,mp-1036224
NaCa2La7Mn10O30,0.0,-2.7713909896137943,mp-1173875
CsFe2F6,0.0,-2.771279930517241,mp-1197505
Na3MnF6,0.087299999999999,-2.771278398206896,mp-561200
Ti5Mn3O16,1.4196,-2.771185909602491,mp-776100
La7SmMn2(Fe3O10)2,1.032599999999999,-2.771089608079503,mp-1076418
BaTiFe2(SiO5)2,0.0,-2.7708983764583333,mp-1202235
BaVClO3,2.3925,-2.770726779166666,mp-559481
Li3MnOF3,2.4906,-2.770674090366379,mp-755504
Al4Zn3Cr2O12,3.5397,-2.770651122857141,mp-1228406
MgTiNiP2O9,3.0266,-2.770621761794218,mp-1043031
Na2DyMoPO8,4.2135,-2.770452292812933,mp-555687
Mg14CuNiO16,0.0258,-2.770387041562499,mp-1035352
Ca5MnSi9(Pb3O11)3,2.816699999999999,-2.7703193511040523,mp-651786
Ti3V2Cu(PO4)6,0.0,-2.770317125218253,mp-765089
NaNdEuWO6,0.4619,-2.770024659387931,mp-1516393
MgMnB2O5,3.3863,-2.769432129862705,mp-1222009
Ca3W2O9,3.4593,-2.769308367321428,mp-772583
Na2Fe2F7,1.682599999999999,-2.769244732068965,mp-1210473
NaCaVO4,3.6886,-2.7691338459113313,mp-19302
Ho2(WO4)3,4.7761000000000005,-2.769026879117645,mp-772566
Sr2HfMgFeO6,1.459099999999999,-2.769004186818182,mp-2223125
CaYMn2O6,0.0,-2.7689539160862062,mp-1227126
MgVO3,2.7895,-2.768925973999999,mp-27186
Na2TbMoPO8,4.2208,-2.7687256189667813,mp-559111
Li2Ti3Co(PO4)6,0.0,-2.7686644398478832,mp-758323
KSr2Nb4FeO15,0.0,-2.768477517489131,mp-1223530
Ba3Cr2WO9,0.0,-2.7681211930000003,mp-541512
Ba3V2O7F5,1.4075,-2.767969835735294,mp-1215049
Sr2MnWO6,1.8985999999999992,-2.767879497793102,mp-19315
SrVZnP2O9,2.4493,-2.767763764681123,mp-15526
SrCaP2WO8,1.3822,-2.767707228021977,mp-1046467
UMoO6,2.1839,-2.767629485937499,mp-18958
MgV4(O3F2)2,0.7530000000000001,-2.767534344999999,mp-2232436
Al7Cr(Bi2O9)2,2.5541,-2.767509591666667,mp-1228228
BaSrSmMnO6,0.0,-2.767332972293104,mp-1517679
YLuCr2O8,0.2697,-2.767278778888889,mp-1215972
Li4Mn2Si3O10,3.159,-2.767020317326074,mp-757670
Li2CoSi3O8,3.1595,-2.767005680119047,mp-753262
Sr3W2O9,3.5566,-2.766933634285714,mp-756585
Ba3Li2V2Cl4O7,3.149899999999999,-2.766933327314815,mp-581188
Li4Ti3V2Cr3O16,1.1874999999999991,-2.766862809404762,mp-780134
KCrPO4F,2.5013,-2.766801125705358,mp-19498
Li2V4Si4O13,2.0586,-2.76679714115942,mp-767720
Sr6La14Mn17(CuO20)3,0.0,-2.766690718448277,mp-1173225
NaCaSmWO6,2.8373,-2.7664069596379313,mp-1518904
Li2Cr(SiO3)2,0.194799999999999,-2.766318731969697,mp-1261497
Na4MnAl3Si3O16,1.7958,-2.766303603275862,mp-694964
La2Mo2O7,0.0,-2.766294947272727,mp-29581
LiCrSiO4,2.5874,-2.766164678333333,mp-763610
Sr3Nb2CoO9,0.4104,-2.766136504000001,mp-1179777
Ti3MnCr2(PO4)6,0.0,-2.7660638946052263,mp-1101291
CaTiCo(PO4)3,1.264,-2.7660524070701062,mp-1044222
Li2VSiO5,2.3621,-2.7659651535185192,mp-18860
MgMn2Al2O6,2.677,-2.765682159169279,mp-2217878
Ca2SmYMn4O12,0.0,-2.765574957836206,mp-1227446
Lu3MnFe3O10,0.0,-2.765551637525356,mp-1222593
Ca4TiMn3O12,0.459299999999999,-2.7655395273563212,mp-1247707
Sr2CrWO6,0.0,-2.765528198499999,mp-1207052
Ba2YCr3O8,0.0,-2.765353487142856,mp-1047804
Mn4OF6,2.3017,-2.765324940611286,mp-752976
Sr2YCr2GaO7,1.0382999999999991,-2.765322910576922,mp-1046077
KLaNbFeO6,1.711799999999999,-2.765143900225,mp-1522180
MgTiCrO4,0.0,-2.765135339761904,mp-2227419
BaLaMnSbO6,1.511099999999999,-2.764941370293103,mp-1227869
Cs4U3Mo3O20,2.0623,-2.7649411599540232,mp-562961
CaBe3Co2(SiO4)3,2.8321,-2.764831447738096,mp-1048770
BaVZnP2O9,2.3917,-2.7646019486989792,mp-15531
TiP3WO12,2.234,-2.764524700721287,mp-1044343
CaSmMn2O6,0.0,-2.764515817086207,mp-1227151
Nd2Cr2O5,0.0,-2.764409737777777,mp-1186240
SrCa7Ti2Mn6O23,0.0,-2.764384595814176,mp-1247584
Ca5Nd5Mn9CrO30,0.0,-2.764111021977586,mp-699041
Sr6MgMo3O14,0.3548,-2.764106881874999,mp-1218596
Sr2Fe2P3(O6F)2,0.0,-2.764089910187075,mp-1200426
MgSc2Cr2O8,1.070999999999999,-2.763892516538462,mp-2219069
SrLaCoO4,1.3403,-2.763861028571429,mp-1274449
CsTaWO6,3.1466,-2.763755162998724,mp-1225854
Li2AlVO4,1.6904,-2.763732589375,mp-755460
SrLaMn2O6,0.0,-2.763565402919541,mp-699554
Ca4Mn3AlO10,0.0,-2.763395958821839,mp-1247677
SrZrVSnO6,0.0,-2.7633585065,mp-1517400
BaMg14CrO16,1.0469,-2.7633329215625,mp-1034474
Li17Cr6(Si2O7)6,0.434299999999999,-2.7633282260606062,mp-1178100
CaMg6NiO8,4.248800000000001,-2.763191933125,mp-1033006
Ti3Nb2Cr(PO4)6,0.106499999999999,-2.763142391884921,mp-776002
V4O5F7,1.5045,-2.762986811874999,mp-755181
Ba5Cr3O12F,1.0051,-2.76294712595238,mp-1214531
Ti3Mn2Cu(PO4)6,0.0,-2.7628454728810903,mp-777902
Ba7V6CoCl4O21,1.3615,-2.7628191232051282,mp-1194914
Li4Ti4VCr4O18,1.500299999999999,-2.762740471505376,mp-774577
SrCoP2O7,3.034799999999999,-2.762650104707792,mp-17107
La2MnRhO6,0.377699999999999,-2.762642829793104,mp-1223338
Ba6Fe3Si8C2(ClO10)3,0.0,-2.7623600732692313,mp-1214735
KUCrO6,1.6413,-2.762303133305554,mp-542558
Mg2TaFeO6,1.9989999999999992,-2.7622733707333342,mp-1345547
KPrMgWO6,2.9739,-2.762086675391667,mp-1520976
V6O7F5,1.1646,-2.7619774550000002,mp-779909
Ca2LaNdMn4O12,0.3076,-2.761942332211207,mp-1227467
LiLa2FeO6,0.754699999999999,-2.761924758833332,mp-1078209
SrNd2Fe2O7,0.0,-2.761906461666665,mp-1218180
MnNb4O12,1.668,-2.761903158995944,mp-775807
Li3FeOF4,2.3917,-2.761815898333334,mp-754295
Tb2(WO4)3,4.785500000000001,-2.761743254460783,mp-770516
Li4MnSi2O7,3.4122,-2.761740750804598,mp-752430
Li3Ti2CrO6,0.0,-2.7616319213888882,mp-756972
La5V3S6O7,1.048599999999999,-2.761322732857142,mp-650816
BaFe2Si2O7,0.0,-2.7611882820833342,mp-1214455
Li5Nb6NiO18,0.4855,-2.761109240388889,mp-775480
Li2MnVP2(O4F)2,0.8944999999999991,-2.7610766068052133,mp-1177877
TmWClO4,3.5891,-2.760944345714286,mp-1103683
Pr2MnNiO6,1.6564,-2.760933286626437,mp-1209751
Mn4Be3Si3SO12,3.3366,-2.760727641488006,mp-19314
CaCr(PO3)4,2.4894,-2.760699128531745,mp-1045839
Li4FeOF4,2.618,-2.760636225333333,mp-754592
La2(WO4)3,4.0757,-2.7606250017647063,mp-16808
Mg14CrSnO16,2.4312,-2.76046073828125,mp-1034441
EuZrVSnO6,0.0,-2.760359143000001,mp-1518257
Cs2TlMoF6,3.8865,-2.760194740264368,mp-560710
La7SmCrFe7O24,0.8649000000000001,-2.760080938250001,mp-1099808
Na3MoF6,2.6015,-2.759792483250001,mp-1110567
La2GaNiO6,0.6707999999999991,-2.75964756225,mp-1272284
Sc2MnNiO6,1.818099999999999,-2.759368691293103,mp-1105225
EuHfCrBiO6,0.0,-2.759242703500001,mp-1519362
BaPr2Mn3O9,0.0,-2.759227720808429,mp-1227914
BaNb2Fe2(PO4)6,2.445799999999999,-2.7592274335102043,mp-705895
Mg6MnVO8,3.3983,-2.758973151120689,mp-1031817
Li4Ti3V5O16,1.109999999999999,-2.758962322261904,mp-777694
MgCrP2O7,3.1611,-2.758850699025973,mp-1042039
RbFe2F6,1.5418,-2.758847765555556,mp-1195892
Ca9Pr11Mn20O60,0.0,-2.758552807269541,mp-532591
TaNb3V4O20,1.944,-2.758531404547618,mp-1217943
Na2YMoPO8,4.2058,-2.758327418261652,mp-557549
Nb9V2O25,0.0,-2.758270219305556,mp-1210227
Li3MnVP2(O4F)2,1.5727000000000002,-2.7582329289539262,mp-752825
La3CrW(SO2)3,0.0,-2.7579849376785712,mp-866693
MgFeSiO4,4.0185,-2.757971127142857,mp-1192819
LuWClO4,3.5573,-2.757886050238095,mp-1103690
Ti3NbCo2(PO4)6,0.1888,-2.757854983829365,mp-776059
LaTaZnCrO6,1.8631,-2.757829398733332,mp-1049235
Li2Fe3(Si3O8)2,2.9702,-2.757814065432098,mp-757311
Mg14CoBO16,1.952199999999999,-2.757753665911458,mp-1035075
YCrO4,0.7015,-2.75744404875,mp-1285565
Ba3MgMnNb2O9,0.0,-2.757420409245689,mp-2233226
Mg2Nb2MoO8,0.0,-2.757370378461537,mp-1046822
Sr5La2Mn8(O3F)6,0.0,-2.757362289832007,mp-743681
LiCrPO4F,2.336,-2.757236044122024,mp-25448
TiV(PO4)3,1.3638,-2.757122292191875,mp-1044267
Sr2SmMnO6,0.0,-2.7571004492931053,mp-1521945
PrFeO3,1.0793,-2.757081589333333,mp-22341
KMg14FeO16,2.0092,-2.756997215226562,mp-1035697
BaNdMn2O5,0.0,-2.756928560929119,mp-546665
EuHfCrSnO6,0.0,-2.756922555,mp-1523067
Li5CrP2(O4F)2,3.1334,-2.756899399775132,mp-770679
TbWClO4,3.4255,-2.7566576445238082,mp-1103802
Li2TiFe(PO4)3,2.3733,-2.7565186602067673,mp-1222972
CaTiNi(PO4)3,0.0,-2.756225437903439,mp-1044432
SrPrDyCoO6,0.0,-2.756182896333334,mp-1517726
V2Pb(OF4)2,3.4112,-2.756030254615384,mp-1104916
SrCaHfCoO6,0.0,-2.756012489000001,mp-1516660
LiFe(SiO3)2,2.7521999999999993,-2.755912632583333,mp-19061
YCr3F15,0.167199999999999,-2.7555613671052632,mp-1041853
Ba3ErMn2O9,0.0,-2.755539548724138,mp-555498
PrV2O6,0.8994000000000001,-2.755479411851852,mp-1044729
TiFe(PO4)2,0.2774,-2.7554561174404752,mp-752448
Ti3V5O16,1.1618,-2.7553079804166662,mp-776195
SmCrO4,0.0,-2.7552086391666673,mp-18956
Sr2VMoO6,0.3704,-2.7550891125,mp-1282190
La7SmCr2(Fe3O10)2,0.8217999999999991,-2.754967746666667,mp-1076204
NaMn2(SiO3)3,0.0,-2.754865733149427,mp-1193750
DyWClO4,3.4164,-2.754722916666664,mp-1103766
Na9CaFe10(SiO3)20,1.3327,-2.754588792924138,mp-720248
Ba3NaMn4Si6O22F,0.6848000000000001,-2.7544768221109033,mp-1197574
ErWClO4,3.5688999999999993,-2.7544753799999993,mp-1103556
MgFe2(SiO3)4,2.390799999999999,-2.754429166842105,mp-1255353
Na2Li5Ti3Fe(PO4)6,0.0974,-2.754413305543474,mp-773757
Mg6TiCrO8,0.0,-2.754365281458333,mp-1031428
MgTiFeO4,2.4409,-2.754148392619047,mp-2215958
CaCr2(PO4)2,2.160599999999999,-2.753855355137362,mp-559196
Ho2MnRuO7,0.0,-2.753822777084639,mp-1224038
Ba2FeP4HO14,2.4765,-2.7538224227191552,mp-1228712
CsVCuF6,0.0,-2.753815709406131,mp-1229021
Si2MoO6,0.2843,-2.753792037777777,mp-1143048
MnB4O7,4.7101999999999995,-2.753720564966476,mp-12209
Li4Ti5Mn4O18,0.9394999999999992,-2.7536899005394893,mp-766836
LiFe2F6,1.7058,-2.753536442592592,mp-557403
BaCoP2O7,2.418199999999999,-2.753409940389611,mp-19278
Mg3MnO4,1.131,-2.7533784456788792,mp-1222140
HoWClO4,3.4026,-2.753375935714283,mp-1103778
Li5Ti3V2(PO4)6,0.0827,-2.753343809113095,mp-850911
Mn2Be3(SiO4)3,0.2239,-2.753286738543104,mp-1250945
La5Fe4NiO15,0.0,-2.753124684,mp-1223348
Li2Mn5F17,0.1835,-2.753118184221743,mp-764892
Mg3V2O8,3.336299999999999,-2.752985765000001,mp-19034
CaV3(P2O7)2,2.622499999999999,-2.752795243344154,mp-1044537
SrCaNdMnO6,0.0,-2.752436584043104,mp-1518192
Ca6Pr6Mn11CrO36,0.0,-2.752354378787357,mp-706248
Li9Nb10Cr6(PO4)24,0.030799999999999,-2.752322835458128,mp-850091
LiV6O7F5,1.5346000000000002,-2.7523028007017563,mp-753549
SrMg6VO8,3.668999999999999,-2.7520325850000003,mp-1031676
Mg6AlCrO8,0.4602,-2.7519795675000003,mp-1033120
Li2TiVO4,0.538,-2.751850674166666,mp-757075
SrPrCrSnO6,2.0575,-2.751675773666666,mp-1522443
La3Mo4O16F,3.6136,-2.751650799166667,mp-1198818
Li2FeSi4O11,0.055299999999999,-2.751633334259259,mp-758998
MgTi4(FeO4)3,1.4573,-2.7513847499166673,mp-2229993
Cr(SiO3)2,0.5592,-2.751365143888888,mp-25238
La4ZnCu2MoO12,0.359999999999999,-2.751361338499999,mp-1223629
Nd3Si(Mo2O7)2,1.342799999999999,-2.751328793409089,mp-1220991
CaNdMn2O6,0.0,-2.7512634397112072,mp-720198
NaLi9Fe10(SiO3)20,2.7254,-2.751215939713793,mp-1101479
Sr2MgTiFeO6,2.507699999999999,-2.75119872439394,mp-2217649
Li2Ti3Ni(PO4)6,0.0168,-2.75101111262566,mp-757337
NaLi7Fe8(SiO3)16,2.7108,-2.7508410010589093,mp-775490
Y4Mg(WO5)4,0.5238,-2.750815691206896,mp-1234195
AlFePO5,0.5231,-2.750685666517856,mp-17477