formula,bg,formation_energy,mp-id
Ba2AlFe3O8,0.0,-2.147870685714285,mp-1048153
VIn2O5,0.197,-2.147828970729166,mp-21274
SrCa3(Co2O5)2,0.0163,-2.147788814513888,mp-1076675
VMoO5,0.0,-2.147728544285714,mp-22006
Rb2Mn2(SO4)3,4.6386,-2.147584803466425,mp-12436
MnV4O12,0.9794,-2.147564881643001,mp-752792
Mn3(O2F)2,0.0,-2.147536733754789,mp-763274
LaMgFeO3,0.0,-2.147356122500001,mp-2226544
Li3Fe3SiO8,1.571899999999999,-2.147352104666666,mp-752904
Mg2IrWO6,1.1793,-2.147282815999999,mp-1344771
K2Mn2(SO4)3,4.5728,-2.147271033308528,mp-6531
V4As2O13,1.4928,-2.147247262631579,mp-28337
K2Mn3V2(HO5)2,1.9596,-2.147237135831243,mp-762295
CrReO4,0.0,-2.147153852916666,mp-31628
Li5V(CO3)4,2.7054,-2.147097168143939,mp-765146
NbCo3(PO4)4,0.712599999999999,-2.147056595773809,mp-756466
KMgMn2(MoO5)2,0.1589,-2.146844309882005,mp-2232688
RbMgIn(WO4)2,3.7818,-2.146792943012821,mp-2218601
CaAl2Si2(WO4)2,0.7341000000000001,-2.146714630666666,mp-1215070
V2ZnPbO7,2.467799999999999,-2.146573545681818,mp-557548
Na6Co2B4SO16,0.151599999999999,-2.146569876118707,mp-780413
Li5V2Fe3O10,1.0508,-2.146443483833333,mp-754679
Mn3Ga2(GeO4)3,1.866099999999999,-2.146410063939655,mp-1211638
K5In(MoO4)4,3.4823,-2.146265986458333,mp-1203773
MgV2(BiO4)2,1.3998,-2.146212195769232,mp-2219041
LiBi(WO4)2,2.4718,-2.146169153611112,mp-1211195
Rb5In(MoO4)4,3.613299999999999,-2.146061501314129,mp-1209387
K4MoS3O14,2.7304,-2.145927878818181,mp-557872
Li2MnWO6,1.1277,-2.145863094959769,mp-776740
K2Te(WO4)3,2.8707000000000003,-2.145831934092592,mp-558216
Mg2AgWO6,0.0556,-2.145787471166667,mp-1047193
MnVBiO5,1.9709,-2.14577806036638,mp-558892
Li3Al(CoO3)2,0.8599000000000001,-2.145772447499999,mp-1222590
RbIn(WO4)2,4.2653,-2.145657781180554,mp-504667
Li5Mn3(SnO5)2,0.8338000000000001,-2.145626573272989,mp-755397
SrMn2BiO6,0.8914000000000001,-2.145455817586207,mp-1279155
Li4Mn3Nb2Ni3O16,0.4468,-2.14539265704023,mp-758591
Li4Cr5FeO12,0.0377,-2.14536571560606,mp-756845
NaCo3P3(HO6)2,0.0,-2.145342439657518,mp-505246
V3NiO8,0.7002,-2.145315913333333,mp-755704
Fe3CoNi2(PO4)6,0.0,-2.145212556051587,mp-770497
ZnP2W2O9,0.7545000000000001,-2.145149638341836,mp-1041044
Li2CoPCO7,0.7917000000000001,-2.145116393025794,mp-25454
Zn2Cr3FeO8,0.0,-2.145085084285714,mp-1215741
V2Pb2O7,2.9261999999999992,-2.14506765840909,mp-22005
Li2VNiO4,1.8664,-2.145063296458332,mp-753337
ZnCo2(P2O7)2,0.0,-2.144960812789115,mp-1359993
Li4V3Ni3(WO8)2,1.034299999999999,-2.144808082619047,mp-776367
Li4Cr3Fe3(WO8)2,1.372799999999999,-2.144770536904762,mp-761030
V4HgO10,0.0,-2.144759966833334,mp-554760
Li2Cr(SO4)2,2.248599999999999,-2.1447495778205132,mp-850862
Na6Cr2P(CO4)4,0.0,-2.144686394066162,mp-770548
Cr5Cu(GeO6)2,0.547099999999999,-2.14457261825,mp-1213937
Li9Mn7O16,0.9314999999999992,-2.144572025797413,mp-1100541
Li4Mn3O7,0.9933,-2.144546178366174,mp-1174296
Na6W10O33,3.4097,-2.144470525577058,mp-764858
UTi22Fe18PbO76,0.1066,-2.14445900579096,mp-706661
LiCo3P4O15,0.6998000000000001,-2.144340652582815,mp-775872
SrFeMoO5,2.2075,-2.144298290625,mp-690817
Ce4MnSe6O,0.0,-2.144235629332792,mp-582774
Fe3H4(OF4)2,0.9575,-2.144086808529412,mp-696951
CaAs2WO7,3.075,-2.143967177727272,mp-1043068
Li2Cr3BiO8,0.0,-2.143834620119047,mp-756154
MgMn2(GeO3)4,0.8586,-2.143820819519057,mp-2231275
Cr3WO8,0.409799999999999,-2.143709030833333,mp-773181
Na17(WO3)20,0.0,-2.143567356633488,mp-530412
Mn6BiPO12,0.0,-2.143491727111453,mp-1221358
Li2Mn3CrO8,0.7263000000000001,-2.143387065925697,mp-775679
K3LiMn4(MoO4)6,3.0348,-2.143332453994934,mp-725121
Na3Ag3W2(OF)6,2.323699999999999,-2.143203441456896,mp-1189708
BaSr7Fe6(CoO12)2,0.0,-2.143135069999999,mp-1099936
Tl(WO3)6,0.0,-2.143019246133336,mp-33436
Eu2CoTe2(SO7)2,0.010899999999999,-2.142991763730158,mp-1190438
Li4Ti3Co3(NiO8)2,0.7622,-2.142970723333332,mp-763517
SrNdNiBiO6,0.3864,-2.14286949975,mp-1516486
Eu2W2O5,0.0,-2.142843100555557,mp-1184406
Li12Cr5O16,0.5996,-2.142771227272726,mp-764428
BaNdMgCo2O5,0.0,-2.142679818750001,mp-2242118
MnZn3F6,1.3114,-2.142395851793103,mp-1237325
CsNiPdF5,0.5593,-2.142377060312498,mp-560600
MgFe6(OF)6,1.4226,-2.142348058157894,mp-2230086
LaCrSe2O,0.8653999999999991,-2.1423035244375,mp-1211273
Sr2NiRuO6,0.0,-2.142298130499999,mp-1078758
Na6MgV2O8,1.3967,-2.142102491957404,mp-2229148
Li2Ni(WO4)2,0.0,-2.142007291282051,mp-558765
Li4V3Fe2Sb3O16,0.0,-2.141892683333334,mp-850537
Fe3Si2O9,0.0,-2.141888595000001,mp-1193684
Li2Mn2(SO4)3,4.6747,-2.141867725922564,mp-777817
Li2FeGeO4,2.1565,-2.141823088958333,mp-1210923
Mg2Tl2(MoO4)3,3.886199999999999,-2.141617877192984,mp-13187
ZnP3W3O13,0.0,-2.141595208196428,mp-1047917
CaFeWO6,0.0,-2.141556877777776,mp-1391360
Cr2CdO4,1.8327,-2.141551745,mp-19262
LiMn5O7F,0.0,-2.141497738070608,mp-753411
V2MoO8,1.4089,-2.141442864545455,mp-1216790
Mg(MoO3)2,0.8757,-2.141439725000001,mp-1045691
NbCr(SnO3)2,1.8758,-2.141208034999999,mp-1517880
BaMn4O8,0.3999,-2.141138706030062,mp-766233
LiV(CO3)2,2.0581,-2.141062827333333,mp-762019
LiMn2P2(H2O5)2,0.7675999999999991,-2.140851298604269,mp-1235619
MgSiNiO5,0.0,-2.140825104374999,mp-1046737
Mn5VO8,0.4954,-2.140812590332513,mp-1193782
Mg2CoO4,0.7214,-2.140810158214286,mp-753991
K2LiIn(MoO4)3,3.7750999999999992,-2.14080098444737,mp-1197982
RbCr4O8,0.0078,-2.140790542115385,mp-19029
TaFeO3,0.0,-2.140556650466666,mp-1187220
CaVBiO6,0.4436,-2.140419518888889,mp-1374254
K2Mo2O7,3.4081,-2.140368895409105,mp-27597
NaV(SO4)2,1.6873,-2.140325395739943,mp-554124
K2Mn3P4(HO3)4,4.4833,-2.140143210874581,mp-863756
MgV2(CoO4)2,1.9323,-2.139910131923077,mp-2219669
Sm4V20(CuO4)15,0.0,-2.139869245454545,mp-1219719
Mn3NbO8,0.5273999999999991,-2.139855806566091,mp-1176463
Cs2Mn2(MoO4)3,3.303,-2.139646223693286,mp-1213801
MnCo3(PO4)4,0.1766,-2.139520517770935,mp-775179
W3O8,0.0,-2.139502694545453,mp-715557
Nd(FeO2)3,1.767399999999999,-2.139428811749999,mp-1220447
Sr2CoSeO2,0.342299999999999,-2.139365758723959,mp-1147648
Li2MnSnO4,0.0,-2.139273813074713,mp-755365
Sr3MgFe2Br2O5,0.0,-2.139252063846154,mp-2220066
KVCdO4,3.0655,-2.139092277285713,mp-559503
ZnNiF5,1.6149,-2.138967449285714,mp-1343278
Li4Co3Ni3(PO4)6,0.0,-2.138777302529762,mp-766568
Li4Mn3Sn5O16,0.014499999999999,-2.13877079329023,mp-773180
Ca2VFe4BiO12,1.0957,-2.1387189781249982,mp-705898
LiCo3P3O11,2.5741,-2.138705941792328,mp-584239
Tl2Ni4P4O15,3.3299,-2.138549222109524,mp-556824
Sr2Co2O5,0.0,-2.138443608333333,mp-556076
LiV(SO4)2,1.8683,-2.138425172083332,mp-771941
NaSrPrFeO6,0.0,-2.138374965304598,mp-1519261
Cr2P4H3O16,0.0,-2.138360564892857,mp-776748
Sr2MgFeCoO6,0.6553,-2.138330795909091,mp-2222850
Na3Ni(BO3)2,0.0,-2.138169488539271,mp-772229
Sm2MnTe5Cl2O13,2.691099999999999,-2.138053340163668,mp-559046
Li4Cr3Sn3(SbO8)2,0.0,-2.137982842797619,mp-755860
Li5Nb2Fe5O12,0.0,-2.137933617777778,mp-772705
Li8MnCr3O12,0.8409000000000001,-2.137914777274904,mp-766919
K2MnP4(HO2)8,4.5311,-2.13789905132266,mp-849787
K2Ni4P4O15,0.3734,-2.137884569722856,mp-558324
Rb4Zn(MoO4)3,4.068899999999999,-2.137781833937501,mp-1210004
Al4(CoO4)3,0.0,-2.137776631842104,mp-1358877
Ba2Cr3O7,0.0,-2.137729532083332,mp-1048539
Li3Mn4CrO8,0.0,-2.137727089482759,mp-756602
Li3CoBO4,1.753499999999999,-2.137709530740741,mp-768705
Tl2V3O8,2.1152,-2.137632212435899,mp-1208174
V18Cu2O45,0.7408,-2.137595382692309,mp-1101003
MgPb2WO6,3.070299999999999,-2.13753318775,mp-20216
ZnP2WO7,0.0,-2.1374175972077922,mp-1347472
ReWO6,0.0,-2.1373404015625,mp-1404693
AlV(TeO4)2,2.836099999999999,-2.137334604236111,mp-1194859
Y(CoO2)2,0.0,-2.136966185714286,mp-1383697
V4ZnO6,0.0,-2.136723528636364,mp-1043021
Mg6CoCO8,2.5892,-2.1363042546875,mp-1031988
SrCaCo2O5,0.0,-2.136111192708333,mp-1099694
Fe3P2O9,0.1295,-2.136085876734694,mp-1204155
Sr2AlCoCu2O7,0.023699999999999,-2.136005411923077,mp-1042971
Mg3WO4,0.0,-2.135933133124999,mp-1099244
MnGeO3,1.6731999999999991,-2.135882778586207,mp-20798
BaAlCrCuO5,0.0,-2.135838199444444,mp-1042497
KIn(WO4)2,4.3176,-2.135792368243054,mp-557734
Na4MgV2O6,1.271399999999999,-2.135788939270556,mp-2233672
W8O21,0.0,-2.135729148706896,mp-560362
Li4Mn5Cr3O16,0.0,-2.135677384392447,mp-772050
LiMnSnO4,1.3896000000000002,-2.135656558037766,mp-755934
Li8CrO6,2.1346,-2.135592388777777,mp-780493
Li4V3Co2Sn3O16,1.2795,-2.135569647797619,mp-778284
V4Ni2O9,0.8429000000000001,-2.135563055333334,mp-1101714
Na6Fe(SO4)4,4.276,-2.135525105676883,mp-1210320
Li6FeO4F,2.7581,-2.135285933333334,mp-778608
Na4WO5,3.8008,-2.135016239551723,mp-19334
Cs3Li2Fe(MoO4)4,2.9686,-2.135014098485853,mp-1213707
Na6Mn2P(CO4)4,0.0,-2.134913350992441,mp-780462
Ba5Mn(Co2O7)2,0.5192999999999991,-2.134721146372126,mp-1228475
Na2Mn(SO4)2,3.521,-2.134707520822281,mp-754159
Li7Cr2O8,0.5376000000000001,-2.134670533137255,mp-757971
Rb2Mo2O7,3.3984,-2.134647746363635,mp-554786
Li4TiMn8O18,0.0,-2.134617075164998,mp-769509
Li4Nb2Fe3Sb3O16,0.0,-2.134568077619047,mp-1177322
Mn7Ni(PO4)12,0.0,-2.134563879135757,mp-776812
KEuMnSnO6,0.0,-2.134458452518104,mp-1516881
Mn3Ga4P6(H2O5)6,3.5464,-2.134145235211822,mp-758167
Sr8Fe4Co4O23,0.0,-2.134003542179487,mp-1218682
Mn3WO6,1.8192,-2.133976629879308,mp-19158
Na3TiFe3O8,1.7711,-2.133860237831417,mp-1221213
MgNiO2,3.4026,-2.133779868749999,mp-1221953
KWO3,0.0,-2.13368859445,mp-1040472
SrMn7O12,0.0,-2.133550639775863,mp-1105343
MnTl2H2OF5,0.0,-2.13343692178161,mp-24555
Li7Ni(O2F)2,0.7928000000000001,-2.13337175720238,mp-1662701
CaZnSnWO6,2.927,-2.133237551499999,mp-1517738
Li2Mn4O7F,0.0,-2.133180759885056,mp-753834
Li3V(CO3)3,2.9882,-2.133111934999999,mp-758041
BaNdNiBiO6,0.3204,-2.13297528975,mp-1522954
Ba2Mg2Tl2Cr3O10,0.0,-2.13278838508772,mp-1324064
Sr2Ca2Fe3CoO12,0.0,-2.132621278749999,mp-1075966
Mg3Cr3(AsO4)4,1.4886,-2.132607004423078,mp-1047507
BaCrSnBiO6,0.9540999999999992,-2.1325920485,mp-1518013
Li3V(SO4)3,0.0,-2.132523662763158,mp-772425
EuCu(MoO4)2,0.0,-2.132517154583335,mp-560455
Fe3Cu2Te(PO4)6,0.0,-2.132457079292327,mp-776124
Cr2CoO4,2.606,-2.132410751428586,mp-20758
Li2MnBAsO7,0.984499999999999,-2.132378634688697,mp-772182
Ba2YTlNi2O7,0.0,-2.1321990306410252,mp-1046397
CaMn7O12,0.0,-2.132179828275861,mp-29283
ScV(SeO4)2,2.7794,-2.132164689557291,mp-1200926
Na6(WO3)7,0.0,-2.132158514213995,mp-867796
Li4Mn3Cr2Sn3O16,0.2195,-2.132003490433087,mp-774860
K2Mn2(MoO4)3,3.0261,-2.131867448308531,mp-651434
Li4Cr3CuO8,0.0,-2.131852599583332,mp-756558
Mg3V3(AsO4)4,0.020599999999999,-2.131498396538462,mp-1041705
Li4Mn3V3(TeO8)2,0.4295,-2.131462692516421,mp-1177458
Li3Mn3WO8,0.0,-2.131269921586207,mp-756701
V3Pb5O12F,3.002599999999999,-2.131194432857143,mp-1207903
Li6Mn2C4SO16,4.0747,-2.131074248909037,mp-771387
Li4Mn3WO8,1.251799999999999,-2.1309651260704032,mp-773363
Li2V(CO3)2,2.9913,-2.130892759242425,mp-1567493
MgMnAsO5,0.0,-2.13086599817888,mp-1380034
RbCr(SO4)2,2.9234,-2.130861589791667,mp-1209234
LaZnFeSnO6,0.0,-2.1307341675,mp-1044024
LiCrPH2O5,2.547499999999999,-2.130592278547618,mp-849467
MgMn4O6,0.6494999999999991,-2.130510983338558,mp-2217359
MgBiWO5,1.6324,-2.1305074390625,mp-1044356
HoZn(FeO3)2,0.0,-2.130445861999999,mp-1041163
V2Re2O11,0.6779000000000001,-2.130404445333333,mp-1179005
Na2VAsCO7,0.9742,-2.130359692521551,mp-771012
CdCoF5,0.425699999999999,-2.1303253235714292,mp-1213938
V4CrFe3O16,2.042799999999999,-2.130032590833333,mp-1216482
Li7Si2(NiO4)3,0.591499999999999,-2.129957849305555,mp-1640236
Ca3Co3(AsO4)4,2.4163,-2.129949244807693,mp-1047370
Li2V3(FeO6)2,0.0,-2.129856250350877,mp-776874
LiCr(MoO4)2,2.76,-2.129827416527778,mp-1191696
Co5(P3O11)2,0.102899999999999,-2.129621993874458,mp-26552
Li8Bi2(MoO4)7,2.9688,-2.129456964703702,mp-559185
Zn(W18O49)2,0.0,-2.129427962,mp-1217459
BaSmCoCuO6,0.0,-2.1293637245,mp-1227751
MgMn6(O5F)2,0.3915,-2.129353898030853,mp-2228340
Li4Mn3SnO8,0.3849,-2.129334821695402,mp-757409
KV3(PbO3)4,2.9891,-2.129240816862498,mp-1223484
Co2SiO4,0.0,-2.129220831071429,mp-21856
MgMn12O17F7,0.0,-2.129204581626282,mp-2220218
CrInO3,1.4521,-2.129044673833333,mp-756147
MgFe8(OF)8,1.3058,-2.128986809000001,mp-2220761
Na7(WO3)8,0.0,-2.12896804204244,mp-761115
LiNi4(P2O7)3,0.0,-2.128885206755952,mp-779757
EuV2IO9,0.0,-2.128869826346154,mp-1197271
CsV2(PO6)2,0.249,-2.12881071861417,mp-1196205
Na5Cr2P(CO4)4,0.1257,-2.128551008804979,mp-775934
Tl3V5O14,2.1447,-2.128513405,mp-1192129
FeNi(PO4)2,0.0,-2.128447954107143,mp-780106
Ti7Cr12O48,0.8711000000000001,-2.128388242736318,mp-851094
Li2VAsCO7,2.1158,-2.128370018263888,mp-772133
CaV4(CoO7)2,0.218299999999999,-2.128369872380951,mp-1337690
Mg3Fe4O7,2.050099999999999,-2.128316562857141,mp-773982
Li3Ni3O3F5,0.299699999999999,-2.128288367857143,mp-758736
CoBiPO5,2.322999999999999,-2.128241812142857,mp-23595
RbV2SeO7,2.0481,-2.128239048394886,mp-623590
Na4V2P(CO4)4,0.0,-2.128224769080003,mp-782641
Na3Mn5(Ge3O10)2,0.3931,-2.12806570775862,mp-1211859
Li3Mn5Cr3O16,1.337799999999999,-2.1280222992464872,mp-774662
Li8Mn13Cr3O32,0.11,-2.127737935888753,mp-775158
CsMg6CoO8,0.0,-2.127606344353448,mp-1032311
NiPbF6,2.2615,-2.127497956249998,mp-20854
Li6Cr3Sb3O16,0.5467000000000001,-2.127472206428572,mp-773191
NiSb3XeF23,1.609299999999999,-2.127402873660714,mp-1195453
V3Zn2FeO11,2.145,-2.127316360588236,mp-1216668
V5Fe3O16,0.8997,-2.127260332083333,mp-675117
Mg2CoSbO6,0.430699999999999,-2.127222537999999,mp-1344636
SrNi2P2(H2O5)2,3.4774000000000003,-2.1271918925939852,mp-863262
Li2Mo2P2O11,0.0,-2.126950622997198,mp-1223051
V3Cr2Sb3O16,1.1772,-2.126851384999999,mp-778794
Mn3CoCu2(PO4)6,0.0,-2.126687164490284,mp-758293
Cs3Mo2BrO7,2.8825000000000003,-2.126652912612732,mp-1184398
Mn7Cu(PO4)12,0.0,-2.126485466782816,mp-1176532
Ca2CoIrO6,0.0,-2.12642163525,mp-1287594
Li3FeBO5,0.497799999999999,-2.126395538166667,mp-771078
K4Na4Mo5(WO8)3,0.593,-2.126276935112931,mp-1099727
Cs4Na2MgV2O8,1.284599999999999,-2.126275190963489,mp-2233145
SrPrNiRuO6,0.460899999999999,-2.125969711166667,mp-1218113
Ni3(P2O7)2,0.0,-2.125902682789116,mp-25992
CrSnSbO6,0.9006000000000001,-2.125878194444444,mp-1226180
Li4Nb2Cr3Cu3O16,0.0,-2.125860550476191,mp-775290
Sr2YNi2O7,0.0,-2.125623810416666,mp-1047522
GaFe2BO5,2.0716,-2.125574479074073,mp-1097025
V2Te2O7F2,0.0,-2.125541813717948,mp-554413
Fe3(PO4)4,0.0,-2.125539464068322,mp-31818
Li3NbFe3O8,0.8643000000000001,-2.125522257999999,mp-763729
Na2W3O10,3.9872,-2.125507172183907,mp-759496
MgMn3CrO8,0.6286,-2.125428861445624,mp-2227372
Mn3Cu2Ni(PO4)6,0.0,-2.125205874490285,mp-780130
UHg(MoO4)4,2.0624,-2.125163398977273,mp-1208038
Sr5(CoO3)4,0.011,-2.125067673174603,mp-704141
Li7V6Ni5O24,0.0,-2.125005253174602,mp-769574
VAg2(PO4)2,2.038,-2.124902452316849,mp-19478
KCr(SO4)2,3.153899999999999,-2.1248429076875,mp-1211656
Sr4V2(Se2O7)3,2.7193,-2.1248312890625,mp-1204879
Ba4Dy2Cu6NiO15,0.0,-2.124594004583333,mp-1228235
KV2SeO7,2.1253,-2.124531873372159,mp-1203567
VZnO3,0.8621000000000001,-2.124512842500001,mp-1378086
CsMgAl(MoO4)2,0.0,-2.124465257281167,mp-2234041
CoCuP2O7,0.0,-2.124464477662338,mp-21403
CaCo2(PO5)2,0.0,-2.1241366279523812,mp-1044185
LiCr3(FeO4)2,1.3080999999999992,-2.1241155623809522,mp-755327
Li4Ti2Mn3Ni3O16,0.0207,-2.123967623349754,mp-767719
AlVP2CNO9,0.5951000000000001,-2.123833889285714,mp-735041
KNa(WO3)2,0.0,-2.12373263886293,mp-1076224
Li2Mn2CrO6,1.2466,-2.123691414320794,mp-1568146
MgCr2O5,0.0,-2.123624909999999,mp-1043159
MgVAs2O7,2.3392,-2.1235587809090912,mp-1042807
RbLi2Ni2(BO3)3,0.9122,-2.123511704803922,mp-770719
Cr6O11,0.0,-2.123403061470588,mp-1213798
MgGe4(MoO6)2,1.7727,-2.123333117631579,mp-2230144
BaMnV2(AgO4)2,2.3708,-2.123178457233168,mp-19174
Fe4P9O32,0.0,-2.123162282261904,mp-27102
V6Cu2O15,0.0,-2.123107332391304,mp-757160
MgCrSbO4,0.727599999999999,-2.122987003571429,mp-2227640
Na6Fe2B4AsO16,0.0,-2.122821876463535,mp-770768
Sr2CoRuO6,0.0,-2.122513607,mp-1218846
MgMo2O5,0.9713,-2.122447369375001,mp-1387028
SrLa3MnO12,0.0,-2.122435405466531,mp-1218274
Li2Zn2W2O9,2.766899999999999,-2.122180268444445,mp-1210825
V2CoO6,2.0354,-2.122171667777718,mp-755622
NiP2H2O7,4.8327,-2.122030831086308,mp-1202294
LiFe5O3F5,1.6707,-2.122024718095237,mp-754471
MgTi2(FeO2)4,0.0,-2.122010768777777,mp-2233216
BaV2(CuO4)2,0.1615,-2.121815618653846,mp-557454
Mn3Al4FeP4(H4O7)4,3.619,-2.121431518792223,mp-1222576
NaVCdO4,3.0263,-2.121421460911329,mp-19449
Li2NiPCO7,0.0,-2.121411171775793,mp-25396
MnSb2(OF4)2,0.0,-2.121335534840849,mp-1194472
Na3Mn2BO6,1.9648999999999992,-2.121204456180555,mp-1221286
NaCaPrFeO6,0.0,-2.120986013304598,mp-1520029
KNbWO7,0.7202000000000001,-2.120918348725,mp-1223408
LiVCoO4,2.071299999999999,-2.120816598333333,mp-753926
Cs2CoHgF6,0.0,-2.120758046181035,mp-1112601
NiTe(PO4)2,2.9758,-2.120725190704366,mp-755844
LiNi5(P2O7)4,0.0,-2.120689679654194,mp-27060
BaEuMgFe2O5,0.0,-2.1206177335,mp-2240715
K4V3S5O23,2.8128,-2.1205791331857142,mp-557252
LiV2(CO4)2,1.270499999999999,-2.120573355833333,mp-758446
K3Na5V3Mo5O24,0.0,-2.120570753716163,mp-1099606
Cr2CoNi3(PO4)6,0.0,-2.12048617799603,mp-757291
Li4Ti3Fe2Cu3O16,0.0,-2.120455624761904,mp-778758
CaSmCr4O12,0.020599999999999,-2.120436591944444,mp-1522389
Li3Mn2SnO6,0.8304,-2.120429053821839,mp-1290756
Li3Mn3CrO8,0.0,-2.120279504252873,mp-1177699
V4AgO10,0.0,-2.11993409211111,mp-1216506
NaNi4F10,0.0,-2.119927314777781,mp-673691
KNaV6(PbO3)8,2.943,-2.119844037465731,mp-1224220
CrSbO4,0.8623000000000001,-2.119747337916659,mp-33857
Li3Co8(OF3)4,0.0,-2.119624974444445,mp-780689
LaMgCrAgO6,0.030699999999999,-2.119611355166666,mp-1049227
V3(FeO4)2,0.0137,-2.119567677307692,mp-1207898
Ca3Fe6(SnO8)2,1.5414,-2.119550264814814,mp-1228383
YW2O9,1.0505,-2.119530889166667,mp-1191214
CoBP(HO3)2,2.8865,-2.119491019361471,mp-1238930
Li2MgCr3(SO4)6,0.9556999999999992,-2.119422871296295,mp-772868
LiV2(SO4)3,0.5052000000000001,-2.11921011574074,mp-1176597
Na2CoHgF6,0.0,-2.119184760525863,mp-1111189
Li2MnCSO7,4.237,-2.118859567674808,mp-780526
Cs2V2Cu(ClO3)2,0.6817000000000001,-2.118779700235411,mp-1199641
MnAgPO4,0.0,-2.118772164177222,mp-1193494
Li4V2C4SO16,1.967499999999999,-2.118760684845679,mp-776347
Fe2Cu(PO4)3,0.0,-2.118713424940477,mp-775240
BaYMgCoCuO5,0.0,-2.118699500999999,mp-2240198
Ba2Mn3O7,0.0,-2.118694144899425,mp-1048511
KCrO2,3.056,-2.1186856943125,mp-1079775
NaSrEuMnO6,0.0,-2.118581172431036,mp-1517725
Li4V3Ni2Sn3O16,1.574699999999999,-2.118567997083333,mp-777392
Rb2TiFe2(MoO4)6,2.5943,-2.118466420238096,mp-1219881
CoNi2(PO4)2,2.8633,-2.118453569560439,mp-1226305
LaFe2PbO6,0.0,-2.118355055,mp-1223018
MgV2Cd2O7,1.1821,-2.118231525833332,mp-2218250
MgBiMoO5,1.511199999999999,-2.118033507812501,mp-1044272
Ba5Co5O13F,0.149499999999999,-2.117903807708334,mp-1228627
W5O12F,0.0,-2.117884799166665,mp-766126
NiBiPO5,3.8528,-2.117806550892858,mp-556993
Co3Sb(PO4)4,0.152899999999999,-2.117780244107143,mp-754002
Cs2Mo3O10,3.4187,-2.117735942287357,mp-1193056
Y(FeO2)3,1.2114,-2.11771447425,mp-1045059
Sr7CaFe5(CoO8)3,0.0,-2.117596726499999,mp-1076062
Li4V2Fe3O10,0.8106000000000001,-2.117581080964913,mp-758719
Sr2FeCuSO3,0.0,-2.1175037396875,mp-505312
Ca2FeCuSO3,0.675999999999999,-2.117465202812499,mp-1105354
Li2Cr3FeO8,0.101899999999999,-2.1174095570833322,mp-777653
Ba6Co6O16F,0.0,-2.117403700517241,mp-1228594
MgScTl(MoO4)2,0.380199999999999,-2.117278917179488,mp-2218801
Sr3CaCo2S2O5,0.0,-2.117275693846153,mp-1048637
Li8Mn9O18,0.6379,-2.117269598229885,mp-759775
Li8WO6,2.981,-2.117255039777777,mp-755616
NaV3(FeO4)3,0.0,-2.117147311651543,mp-565518
KNa3WO5,3.5954,-2.117101610638792,mp-556386
KMgAl(MoO4)2,0.202599999999999,-2.116989434788462,mp-2241357
Ba4Y2Cu6NiO15,0.0,-2.116959976071428,mp-1228275
Ga2(WO4)3,4.2839,-2.116957999558823,mp-772174
Li5FeO4F,0.7312000000000001,-2.116940187878788,mp-1177116
EuMgCrO3,0.0,-2.116866599166667,mp-2226133
MgFe(CO3)2,4.2415,-2.1168033315,mp-1222048
Cs5V5FeCl6O13,0.0,-2.116697545609196,mp-1198376
Li4Cr3Fe3(SbO8)2,1.6775000000000002,-2.116593825119047,mp-756671
Li6Mn5SbO12,0.720499999999999,-2.116477128527298,mp-1648716
LiVCO5,1.731599999999999,-2.116454562760417,mp-1176659
Fe2PClO4,0.5959999999999991,-2.116387919642856,mp-556581
Mn2PO4,0.0,-2.11638020221499,mp-1210854
Li5Ti2Ni5O12,0.074399999999999,-2.11622174888889,mp-770539
MgV2(CO3)4,1.6349,-2.115955636052631,mp-2228787
Li2Mn3GaO8,0.5734,-2.11592336735427,mp-1307659