formula,bg,formation_energy,mp-id
TiNi5(PO4)6,0.0,-2.18035792614418,mp-772277
Li3CrO4,1.1496,-2.180159844375,mp-770632
V4CrCuO12,0.6418,-2.180077924444445,mp-756483
KNa7V6(MoO10)2,0.0,-2.180060529566811,mp-1099956
Cs2CoCu3F10,0.0,-2.179991381831897,mp-1226314
Ba2YNi3O7,0.0,-2.179975938076922,mp-1048426
Li2V2CoO6,1.1442,-2.179935045151515,mp-756363
Fe3Cu(PO4)4,0.0,-2.179921627440475,mp-775191
Li3Fe2P2(CO7)2,0.0,-2.179918772795031,mp-768593
UAg2(WO5)2,1.0923,-2.179834346388887,mp-705061
Mg3Fe3O8,0.0,-2.179799038214285,mp-753591
Rb3Li2Ga(MoO4)4,4.0648,-2.179747770641026,mp-1209544
CrFe3Cu2(PO4)6,0.0,-2.179638083273809,mp-773538
Sr6(CoO3)5,0.0,-2.17962530826923,mp-19235
RbNi4(PO4)3,3.8278,-2.179585565821428,mp-1203865
CaCrAs2O7,1.3255,-2.179581049318182,mp-1042764
MgTi(FeO2)4,1.1572,-2.179556314166666,mp-2228463
MnZn2SiO6,0.0746,-2.179490987793103,mp-1180274
FeBP(HO3)2,4.2042,-2.179489658452381,mp-1213675
LiCa3Fe5Sn3O16,0.8642000000000001,-2.179468234226191,mp-757592
LiGa4(WO6)2,2.393299999999999,-2.179453322280701,mp-1236043
TiFeBiPbO6,2.0298,-2.179380668333334,mp-1216981
Li4Ti3Fe3(CuO8)2,0.0,-2.179272114761904,mp-760932
Nb2Co(PbO3)3,0.0,-2.179254015666666,mp-1220846
Mn3Co2Ni(PO4)6,0.0,-2.179185426156952,mp-758256
Na3CaTi3Fe5O16,1.5271,-2.179058714076354,mp-1173821
Li3FeBAsO7,2.2191,-2.178979177051281,mp-771029
Li3AlMo2(AsO7)2,2.8901,-2.17892747340909,mp-560164
MgV4(GeO4)4,0.399999999999999,-2.178904345,mp-1234618
AlCu(WO4)2,0.927199999999999,-2.178751104583334,mp-1047770
NaCaLaFeO6,0.0,-2.178690467637931,mp-1517244
KNa(WO3)4,0.0,-2.178609371590517,mp-1516548
Na6Mn(SO4)4,4.3439,-2.178503940970627,mp-1210321
MnAl2P2H10O13F2,4.582199999999999,-2.178472947490557,mp-1201658
LiVMoO6,2.7403,-2.178402661481482,mp-1222368
Mn7Fe(PO4)12,0.0,-2.178261292812228,mp-778021
Li4CrO4,1.779,-2.178241171481481,mp-772434
TiFe(BiO3)2,0.0,-2.178228017083333,mp-550745
Sr2CaFe2Bi2O9,0.0,-2.178195021875,mp-1209081
Mn2CrNi3(PO4)6,0.0,-2.178145219269978,mp-760233
VRe2O9,1.8956,-2.178052431250003,mp-29931
K4V2S4O19,2.0392,-2.177951777034482,mp-1196076
ScNi2SbO6,0.0,-2.1776836625000002,mp-1078244
Li3Ti2Co3O10,0.4918,-2.177655187037037,mp-753046
LiMn(P2O7)2,0.0,-2.177506869491789,mp-1202232
K4MgV4O10,0.7029000000000001,-2.177483328105263,mp-2232080
Li2CoBO4,1.4599,-2.177228885416666,mp-752707
Sr6Ca2Fe7CoO24,0.0,-2.1772275404999992,mp-1076399
Li2CrFeO4,2.0383,-2.177177298749999,mp-756242
Li2FeHgF6,0.0,-2.177076831916667,mp-1111554
Mn2Be3(NF6)2,0.0,-2.177055024782214,mp-1212123
La2MgCo2Sb2(PbO6)2,1.6504,-2.177053505000001,mp-1234106
NaSrLaFeO6,0.0,-2.176978034637931,mp-1522660
Ca(FeO2)2,2.081,-2.176721821785713,mp-1271060
MgCo(WO4)2,2.653599999999999,-2.176394440416666,mp-2218237
LiV2NiO6,1.5283,-2.176241476333332,mp-1565491
Ba2Tb2MgCo4O11,0.0,-2.176146349666667,mp-2229990
Mn2FeAg2(PO4)3,1.0229,-2.175780045906199,mp-1222056
Fe2PO5,1.1341,-2.175769878705357,mp-553913
Al2Co3GeO8,0.298,-2.175519381071428,mp-1229034
CaCoO2,0.0,-2.17549640125,mp-1048132
Ni7(P2O7)4,0.0,-2.175273705166113,mp-778386
SrCrSnSbO6,0.879699999999999,-2.175102164499999,mp-1521763
KSrPrFeO6,0.0,-2.175010020891666,mp-1520110
Cr2(WO4)3,3.0223,-2.174916648676471,mp-772321
BaNaNdFeO6,0.0,-2.174832364887932,mp-1516692
V6AgO15,0.0,-2.174808889621211,mp-757033
LaCrBiO6,1.2273,-2.174740972222222,mp-1040863
Pr(WO3)5,0.0,-2.174734176507935,mp-628549
Na4VS3O13,2.6285,-2.17472536954844,mp-699658
Li4Cr3O8,1.0376,-2.174675036222222,mp-771884
Fe7P12WO48,0.0,-2.174663668760503,mp-770783
Fe4P2O9,3.1713,-2.174402973619047,mp-636960
MgMn5O8,0.6617999999999991,-2.174364676761084,mp-2226989
Na11(WO3)13,1.0254,-2.174219009367816,mp-757528
Mn3Fe(PO4)6,0.0,-2.174062561225006,mp-774347
Na9(WO3)13,0.0,-2.174038851433012,mp-1101697
BaHo(CoO3)2,0.0,-2.1740156015,mp-1079686
ScBi3(MoO6)2,2.8937,-2.173871347222223,mp-1209046
Li4MnCr(WO6)2,0.7189000000000001,-2.173857955063218,mp-752745
Li7MnO5F,1.2963999999999989,-2.173752634733169,mp-753538
LiFePO5,0.0,-2.173727623184524,mp-867567
Sr4CaYFeCu4PbO14,0.0,-2.173725461153845,mp-1218684
Ca2V2O9,0.0598,-2.173706334615384,mp-1194234
Na17(WO3)19,0.9734,-2.17362289084353,mp-706847
VNi3(PO4)4,0.0154,-2.173563119523809,mp-775192
CsSbWO6,0.1143,-2.173342098295019,mp-1540169
Rb4WS3O14,3.3741,-2.173310577272728,mp-1197102
Sr2(FeO2)3,0.289099999999999,-2.173306949545454,mp-1200902
Li3Co4(BO3)4,0.469,-2.173228872681159,mp-768439
LiCoOF2,0.2206,-2.173119600666666,mp-850916
Ba2Mn5O10,0.0,-2.173075544685598,mp-1214669
NaVMoO6,2.7363,-2.172935941264368,mp-1220800
LiNi4(PO4)3,3.6954,-2.172858817113096,mp-26511
Sr4CaFe2(SO3)2,0.0,-2.172773360333333,mp-1048660
LiCrCO4,2.9088000000000003,-2.172763342261905,mp-765159
Li4Nb3Co3(TeO8)2,0.786199999999999,-2.172740222559523,mp-774825
YFe3F15,0.0,-2.1727224478947362,mp-1041792
CaLaFeAgO6,0.0,-2.172619369416667,mp-1043917
K3V3(AsO7)2,2.9011,-2.172460000193181,mp-556255
Fe3Sb(PO4)6,0.0,-2.172431020819327,mp-775128
Li3Cr4FeO8,1.1787,-2.172369904375,mp-770828
Eu2CoPtO6,0.0,-2.172181970500002,mp-1213003
LiNi3OF5,3.2492,-2.172157904333333,mp-753317
K5Na3(MoO4)4,4.3782,-2.171907860370997,mp-1223849
Li4Mn3V3(FeO8)2,0.9368,-2.171817450968801,mp-1177360
V2Fe2Pb(O4F)2,0.0,-2.171633012666667,mp-1207906
K2Na6V5(MoO8)3,0.0,-2.171620937069396,mp-1099629
K4WS3O14,3.4401,-2.171600656772726,mp-559294
SrNd(CoO3)2,0.0,-2.171538999749999,mp-1218211
MgV4(CoO6)2,0.0,-2.171412793947369,mp-2228343
Na9(WO3)16,0.0,-2.171394371265942,mp-757561
Ba2Mn2AlTlO7,0.0,-2.171155513399646,mp-1048457
MgCo(GeO3)2,2.1627,-2.171137704,mp-1043189
Mg6NiCO8,3.132899999999999,-2.171082615937499,mp-1031610
Li2Cr3TeO8,0.0,-2.171037528809524,mp-778197
Sr5Ca3Fe7CoO24,0.0,-2.1709468247499992,mp-1075955
Cr3O4,1.077,-2.170918334285713,mp-756253
Na7(WO3)20,0.0,-2.170868890340864,mp-1173836
Li5NiO3F2,0.0,-2.170857027424243,mp-759151
Rb8W13O43,1.8216,-2.170842546171876,mp-706241
Li4Ti2Mn3(Fe2O9)2,0.9881,-2.1708094883481652,mp-767370
Mg2CrIrO6,0.0,-2.170799284499999,mp-1376144
Mn3CuNi2(PO4)6,0.0,-2.170776597823618,mp-772496
LiCo2OF5,0.8817,-2.170742253425926,mp-780316
Li5Mn5Cr2O12,0.0086,-2.170715664013409,mp-770946
Sr2Ca6FeCo7O20,0.0,-2.1705673888888892,mp-1099653
Rb4Mn(MoO4)3,3.128399999999999,-2.170566202396551,mp-1219695
V2Zn2O7,2.5529,-2.170509448636363,mp-17458
NaLi(WO3)4,0.0,-2.170353649706257,mp-1517013
Li3Cr10Fe5O24,1.4117,-2.170312636428571,mp-771093
Co3Sn(PO4)4,0.1886,-2.17018867389881,mp-775131
Na5(WO3)7,0.145799999999999,-2.170084131875653,mp-766425
K4Na4MoW7O24,0.0,-2.170044589362932,mp-1076685
LiNi2(PO4)2,0.0,-2.170040676355311,mp-753843
MgNi(GeO3)2,2.606899999999999,-2.17000875475,mp-1043162
Na(WO3)8,0.0,-2.169498392011494,mp-532334
Sr8Mn6Cu4Se4O15,0.0,-2.169350927350303,mp-1218663
MgV4(NiO6)2,1.9218,-2.169297374473684,mp-1233433
W25O73,0.0,-2.16928806510204,mp-649605
Li4V5Co3O16,1.2917,-2.16919495297619,mp-1177160
Li4Ti2Cr3Ni3O16,0.327599999999999,-2.169125769285713,mp-770552
Li12Mo5O17,1.2811,-2.169091232205882,mp-1199885
Li4NbFe3O8,0.7523999999999991,-2.168984353958333,mp-770958
RbUCrNO9,2.1079,-2.168929557307692,mp-1203963
ZnMo2(PO5)2,0.0,-2.168866864619048,mp-1044091
V3Cr3(SbO8)2,1.147799999999999,-2.168735149583332,mp-776536
BaSr7Fe7CoO24,0.0,-2.168732366999999,mp-1075935
Sr3Ca5FeCo7O20,0.0,-2.168639530416666,mp-1076479
Li2Fe7(OF2)4,1.653599999999999,-2.168521135079364,mp-761205
Co3(P3O10)2,0.195,-2.168491201305418,mp-26568
Li4Ti2Ni3Sn3O16,0.2379,-2.168366610178571,mp-753972
Na10(WO3)13,0.323499999999999,-2.168318533851501,mp-766145
K2Co3P4(HO4)4,2.8527,-2.168111932347291,mp-746692
KNa3V2(MoO6)2,0.5564,-2.167995697819397,mp-1099867
Sr2FeMoNO5,1.284699999999999,-2.167673815999999,mp-1218838
V(PO4)2,0.9803,-2.167659717662338,mp-1199208
Na7(WO3)12,0.0,-2.167653883448276,mp-759096
Na5V2P(CO4)4,0.0,-2.167570484519264,mp-779752
Li4Mn2Cr3Sb3O16,0.123,-2.1675171056855502,mp-766080
Li6Cr2O7,0.8789999999999991,-2.167338154,mp-885422
Li3Mn2C3O9F,4.1884999999999994,-2.167149946992337,mp-766471
Li8FeO5F,2.9955,-2.167131664111112,mp-776549
Na2V2CuH4(OF)6,0.7481,-2.167060088464695,mp-1203632
CrMoO4,0.0,-2.166948223333333,mp-1213733
MgCr2(WO4)2,1.2645,-2.166466304999998,mp-2227118
Ca2FeP2(H2O3)4,2.2875,-2.166382381371428,mp-780739
LiV2P2H5O11,2.0013,-2.166312991850906,mp-758721
MgCo6(OF5)2,1.7765,-2.166274895,mp-1233284
Li4NbCr(TeO6)2,1.2101,-2.166235920833334,mp-1177314
Na16(WO3)19,0.0,-2.166185943772488,mp-1173873
Li4Mn2Cr3Sn3O16,0.0501,-2.166163214792693,mp-775298
Li4Mn5O9F,0.6182000000000001,-2.166103803315185,mp-753850
Li8Ni(O2F)2,3.2285,-2.166050241277777,mp-1176816
W10O29,0.0,-2.166001550897435,mp-27732
Sr4Ca4FeCo7O20,0.0,-2.1659564225,mp-1100009
LaZnCrSbO6,0.0,-2.165917507999999,mp-1049223
MgGa4(WO6)2,2.558799999999999,-2.165738591842105,mp-1234217
K6Na2V2S7O30,1.7577,-2.16572986726082,mp-704360
GdV(SeO4)2,2.0264,-2.165693715390625,mp-1203163
Sr3MgCo2Cl2O5,0.0,-2.165657884615385,mp-2219142
MgTiZn2WO6,0.0,-2.165614995303031,mp-2217865
MgW2O7,4.0946,-2.165405251,mp-1042288
BaTbFe4O7,0.4784,-2.165346958205127,mp-1214367
Na4Li5(WO3)10,1.134999999999999,-2.165220133718039,mp-1221439
Fe5(OF2)4,0.0,-2.165191532941176,mp-754310
FeCo(PO4)2,0.6879000000000001,-2.165061282857143,mp-775299
Mg(FeO2)2,0.0,-2.165017080714286,mp-608016
LaMgFeCoO6,0.0,-2.164940105,mp-1043977
Na4(WO3)5,0.6516000000000001,-2.164877700021552,mp-1221262
Ca3Fe5Sn3O16,0.0,-2.164792090925925,mp-757114
Li5Cr5O12,0.0,-2.164623848484848,mp-758582
V(GeO3)2,1.6688,-2.164592917222222,mp-1043195
Li4FeSb(WO6)2,2.0653,-2.164475514916667,mp-753494
CaMn4O8,0.5121,-2.16445706397878,mp-1003483
LiNi4P7O24,0.0,-2.164393050023148,mp-705375
UBi4WO12,0.8135000000000001,-2.164270105,mp-1216293
RbSbWO6,0.0001,-2.164202981944445,mp-1543124
KUCrNO9,2.1177,-2.163838522288461,mp-1195992
KBaFeO3,0.5118,-2.163714324958333,mp-18038
Ba3Mo2(NO3)2,3.1689,-2.163700296923079,mp-1228095
Li10Ti2Mn3Co3O16,0.0,-2.163662359229208,mp-779764
VSO4F3,0.9792,-2.163628182777778,mp-768093
TaFe(PbO3)2,2.0945,-2.1636145887333322,mp-1218012
Mn13Fe(SiO11)2,0.0,-2.163599593239565,mp-1210713
NaSr12Ni7O23,0.8698,-2.163577095729751,mp-1221033
K4Na4Mo3W5O24,0.193099999999999,-2.163457768362931,mp-1099601
CsCr(MoO4)2,3.1264,-2.163446979554597,mp-1213686
SrLiEu(CoO3)2,0.0,-2.163414261666667,mp-1236266
MgV5(MoO5)5,0.836199999999999,-2.163405421111111,mp-1234912
Li4Nb3Fe2Ni3O16,0.4936,-2.163208206190476,mp-764250
NaNi4(PO4)3,3.735199999999999,-2.163141516140395,mp-21966
Li5Mn17(SiO16)2,0.4331,-2.162873726455255,mp-768071
Na2FeSiCO7,0.0,-2.162749663979885,mp-772135
Li6Mn2P(CO4)4,0.0,-2.162656823982929,mp-771904
Sr2V2Se3O13,2.603799999999999,-2.162619035601563,mp-1199170
KVO2,1.6682,-2.1626119880625,mp-754400
KNa7V7CrO24,0.0,-2.162597169922628,mp-1076665
YCr3O9,0.6657000000000001,-2.162561794230769,mp-1352636
Li3Cr2CoO6,0.8204,-2.162549980833333,mp-753687
Ti3Fe9O16,1.507399999999999,-2.162470100357142,mp-530877
Li4Mn3Cr2O10,0.3176,-2.162440566690866,mp-754963
Li2Co2P2O9,0.8091,-2.162399383730158,mp-758067
Rb2CoAuF6,0.9054,-2.1623652555,mp-1110594
AlSb(WO4)2,1.6412,-2.162271753333333,mp-1041643
Sr2AlGaW2O7,0.4012,-2.162244687884614,mp-1045091
MnPO3,0.0,-2.162157954264779,mp-1210723
V12Fe6O35,0.0,-2.162157262169811,mp-757552
KCaSmFeO6,0.0,-2.162118710224999,mp-1519830
Sr5Ca3FeCo7O20,0.0,-2.162071039861112,mp-1099816
CrCo3(PO4)4,0.5899000000000001,-2.161926772023809,mp-775991
Li4Ti2Mn3Co3O16,0.7902,-2.161720211921183,mp-861729
Na3Co(BO3)2,0.9309,-2.161524078122605,mp-773604
KLi(WO3)4,0.0,-2.161397692254629,mp-1521873
BaGd(CoO3)2,0.0,-2.161327148999999,mp-1214665
EuZnSnWO6,0.189799999999999,-2.161283258,mp-1517678
Sr3Mn4O12,0.0,-2.161222606406535,mp-705675
NaFeSO4F,4.1937,-2.161015427672414,mp-1105952
Na8(WO3)19,0.0,-2.160952756738506,mp-1173831
Li3Fe2(BO4)2,0.0,-2.160867287888889,mp-759625
Mg3Co2(GeO4)3,2.4734,-2.160831350875001,mp-1329459
Na3(WO3)4,0.0,-2.160787121533575,mp-757849
Sr4Mg(Co2O5)2,0.6625999999999991,-2.160684477105262,mp-2228341
Cs2ZrFe2(MoO4)6,2.6723,-2.160470091980295,mp-1226541
MgV2(SO5)2,1.2106,-2.160341928666666,mp-2228639
Eu2Ni2O5,0.0,-2.1602350749999992,mp-1097890
SrCrSnBiO6,0.9519,-2.159913142499999,mp-1517668
W3O7F,0.0,-2.159910014545452,mp-759488
LiMnO2,1.150399999999999,-2.159869964066093,mp-754656
La4Cu6(MoO4)9,1.5758,-2.159834127454547,mp-558757
NaSrNdFeO6,0.0,-2.159810714887931,mp-1516413
VGeO3,0.014299999999999,-2.159676125500001,mp-755199
Li4V2Cr3Fe3O16,1.182999999999999,-2.159647649761905,mp-770523
Mn3V6(FeO6)4,1.4562,-2.1596034398322472,mp-559387
CrPHO5,0.9222,-2.159463497611607,mp-754797
Na2(WO3)3,0.0,-2.159438586268474,mp-1221401
MgMn3VO8,0.7370999999999991,-2.159406646830239,mp-2241282
Mg3Mn3(AsO4)4,1.9047,-2.15936257591512,mp-1047769
Li3Mn4VO8,0.0,-2.159086771357758,mp-770661
Sr24Fe16O53,0.0,-2.158912060483872,mp-765020
Li5Co4(BO3)4,0.7533999999999991,-2.158904790933333,mp-1177143
MgNi(WO4)2,3.383099999999999,-2.158897715416666,mp-2218246
MgV4CoNiO12,1.4109,-2.158837245000001,mp-2230429
Li5V3(NiO5)2,1.3068,-2.158781955333332,mp-755845
Na2VS2O9,2.710499999999999,-2.158773501982758,mp-555266
Dy2Mo3H2Se2O17,1.6412,-2.158676744058493,mp-1203751
Er2Mo3H2Se2O17,1.6125,-2.158496653930288,mp-1203166
EuCrSnBiO6,0.0,-2.158494486000001,mp-1518767
V4FeCoO12,0.0,-2.158286795555556,mp-756657
NaVAsO5,1.5064000000000002,-2.158210942359914,mp-17507
MgVAgO4,2.2098,-2.158205882738095,mp-1192534
VPPb3O8,3.0205,-2.158165051126373,mp-1216362
Li4Nb3Ni3(TeO8)2,0.0,-2.1581255598809532,mp-1177365
Li4Mn3Nb2Co3O16,0.5073000000000001,-2.158112120611658,mp-763519
BaMn5(SO4)6,4.3486,-2.157960226240422,mp-1215056
MnCu(PO4)2,0.0,-2.157938219351395,mp-775025
Mg3Fe2O7,0.3942,-2.157812779583333,mp-1378205
MgMn4O7F,0.8260999999999991,-2.157786846671086,mp-2227865
UNi7(BO4)4,0.7519999999999991,-2.157572787559523,mp-578723
Rb5Al(MoO4)4,2.046599999999999,-2.157556949134616,mp-1219794
Mg4Mn5(TeO6)3,0.7073,-2.157546315155173,mp-1046588
K3Mo4(P2O11)2,0.1643,-2.157484529100649,mp-818285
MgRe2(WO6)2,0.0,-2.157452992352941,mp-2240808
Li5Cr3NiO8,3.0727,-2.157448774215687,mp-759272
VFeP2(HO5)2,1.123,-2.157423682611607,mp-753646
Na5Ni2P2(CO7)2,0.0,-2.15735786064729,mp-1101707
Li4Ti3Fe2Ni3O16,0.0,-2.157321267976191,mp-759701
Li4V3Fe3(SbO8)2,1.1125,-2.157116500119048,mp-775441
Ni6OF11,0.920999999999999,-2.157046872222222,mp-754507
Fe7(PO5)4,1.5842,-2.15698685672811,mp-690584
V2P2H4O11,1.7147,-2.156970280093985,mp-744747
MgTi(CoO3)2,1.0071,-2.156856760833333,mp-2227441
Mn3TeP2Pb3O14,2.4566,-2.15679154911937,mp-1192249
Li7Mn5O12,0.9682,-2.156760055541188,mp-1175314
MgV2(SbO4)2,1.0265,-2.15656831423077,mp-2218724
Ti(FeO2)3,1.3331,-2.156462737333334,mp-1217316
LiCaEuFeO6,0.0,-2.156453924833334,mp-1517096
Ca3Fe4(MoO4)6,1.3464,-2.156451184864865,mp-1043101
BaNaPrFeO6,0.0,-2.156300456304598,mp-1522267
Ba4Sr(FeO3)5,0.0,-2.156297491799999,mp-1228328
CaCr3O7,0.0,-2.15624674090909,mp-1044320
MgMn6(O3F)3,0.5158,-2.1561442596098,mp-2228824
Li4V5Ni3O16,1.134099999999999,-2.156089706904762,mp-1177166
Co3(PO4)2,2.9001,-2.156004351868131,mp-19264
Li3Cr3CoO8,1.0004,-2.155946822,mp-759061
V(WO4)2,1.4784,-2.155440051818181,mp-1047717
Ni2P5O16,0.0225,-2.155416209704968,mp-32393
SrCaFeBiO6,0.4131,-2.155213113,mp-1520073
KCr(MoO4)2,2.9629000000000003,-2.155061294354167,mp-1211679
LiVPH2O5,2.255699999999999,-2.154983060172619,mp-779915
Li4CrTe(WO6)2,1.0823,-2.154911379749999,mp-1643248
BaFe2P4H4O17,0.9647,-2.154908182806122,mp-1228787
MgV2(MoO5)2,0.8477000000000001,-2.154895241666668,mp-2226685
Sn(WO3)18,0.0,-2.15487865109589,mp-685528
V3As2O9,1.2701,-2.154804352142857,mp-1216491
MgMo2(WO6)2,0.7705000000000001,-2.15473907735294,mp-2224454
Li4V5(Fe2O9)2,1.3966,-2.154611292365591,mp-774849
V2SiPb5O12,2.6668000000000003,-2.15451597275,mp-1217159
Li3Ti(NiO3)2,0.072799999999999,-2.154434942361111,mp-1275017
LaMgFeCuO6,0.1012,-2.154231970499999,mp-1043854
VBiO4,2.2615,-2.154109184999999,mp-23044
Mg2Cr9O13,0.0,-2.154067582708332,mp-1045889
Mn4SiTeCl2O7,2.4894,-2.15405594589272,mp-1193890
Li5FeO3F,2.5771,-2.153874175916667,mp-761250
Li2MoO3,1.3636,-2.153861700277772,mp-694855
VFe7(PO4)12,0.0,-2.153497437436975,mp-1101268
W18O49,0.0,-2.15327105216418,mp-907
LiCo5(P2O7)4,0.026599999999999,-2.153249050130385,mp-584817
Fe2PHO3F2,1.4983,-2.153178168154762,mp-1202411
MnZnNiP2O9,0.5607000000000001,-2.153155780515481,mp-1333743
Mg3V6Cd2Cu3PbO24,1.6862,-2.153091445256409,mp-1222758
KNdFeSnO6,0.0,-2.153088216974998,mp-1518022
Li4Mn5Cr2O12,0.5664,-2.153071538390804,mp-850972
SrMn5(SO4)6,4.3163,-2.15304683087005,mp-554634
YV(SeO4)2,1.3221999999999992,-2.153044592473958,mp-1190417
K3V2(S2O9)2,1.416499999999999,-2.153040201824073,mp-1181810
KBi(WO4)2,2.7107,-2.152997771020833,mp-23136
K2Na2Mo(WO4)3,0.0,-2.15282484336293,mp-1099821
Li2Mn3WO8,0.0,-2.152717911818555,mp-771959
Li7Mn10Cr6O32,0.0,-2.15263169768443,mp-769505
Cs2V2H2O7,3.086299999999999,-2.152565817831564,mp-1204913
SrPrNiBiO6,0.3113,-2.152540990166667,mp-1518344
MgCo3P3O13,0.3042,-2.152406542696428,mp-1047887
Ta9Mn11O34,0.0,-2.152374103763728,mp-675520
MoW11O36,0.969299999999999,-2.152346686041666,mp-1211051
Na5(WO3)6,0.0,-2.152305394892985,mp-767014
Li4Cr5BiO12,0.0,-2.152300413787878,mp-756777
SrNdNiRuO6,0.3996,-2.152159281249999,mp-1218114
MnOF2,0.3786,-2.152147133232759,mp-756709
W2(OF3)3,0.0099,-2.152119966785714,mp-1193011
Li2TiFe3O8,0.2077,-2.15203797892857,mp-1277589
LiCr6O11,0.0,-2.151999842407408,mp-772581
Sr3Cr2Cu2S2O5,0.400699999999999,-2.151978576428571,mp-1048428
Mg(MoO2)2,2.2975,-2.151961647142857,mp-1047726
LiNiOF,2.390199999999999,-2.151861740208334,mp-753559
Eu2NiPtO6,0.0,-2.1518391055,mp-1212982
Li9Fe3(WO4)7,0.0,-2.15181139574468,mp-772992
Li2Co(WO4)2,2.6607000000000003,-2.151807988205127,mp-552307
Li4NbTe2WO12,0.0,-2.151791073833332,mp-753044
Li3V2(FeO4)2,0.9679999999999992,-2.151691066666666,mp-763659
HfNi5(BO5)2,3.165499999999999,-2.151686976712963,mp-558963
TiCrSO8,1.715799999999999,-2.151592306136364,mp-1101433
Rb2Te(WO4)3,2.9664,-2.151437088981481,mp-567014
Co2B2O5,0.0,-2.15124852925926,mp-510055
Li5V3(CoO5)2,0.9904,-2.151236117833333,mp-757281
LiCrB3(HO3)3,1.4087,-2.151194800416666,mp-778018
KNaMoWO6,0.209299999999999,-2.151015016112931,mp-1076659
Cr2P3O13,0.0,-2.150996067857144,mp-27100
HoMg(CoO3)2,0.0,-2.150992257499999,mp-1041115
CoF3,1.6435,-2.150928883125,mp-1271079
BaTeMo2O9,3.0136,-2.150919276858974,mp-1203413
Sr18Co14O45,0.375399999999999,-2.150840471103896,mp-1219118
Li2VCoO4,1.3205,-2.150772185833333,mp-773359
Mn7Co(PO4)12,0.0,-2.150469162076933,mp-758047
Mg2TeWO6,0.6915,-2.150413075666667,mp-1370485
Li4Mn3V2Sb3O16,0.6002999999999991,-2.150410828468801,mp-775695
Li3Mn2O5,1.0029,-2.150375400586207,mp-1173962
BaFeO3,0.0,-2.150281130333332,mp-1192651
MgFe2(PO5)2,0.0,-2.150210076285714,mp-1044012
CaGa4(WO6)2,1.959299999999999,-2.150094632631579,mp-1233056
Li5Mn3O8,1.188699999999999,-2.150084919403736,mp-1284734
K4MnMo4O15,3.0961,-2.150067533413793,mp-555534
TlMoPO6,2.8562000000000003,-2.150051524775132,mp-17542
U3(Mo5O16)4,0.336599999999999,-2.150012072528736,mp-1217654
Li2V2(SO4)3,3.5936,-2.150004638245614,mp-770191
LiV4(GeO4)4,0.5752,-2.149734610533333,mp-1235198
Na2MoO4,4.3983,-2.149706168251234,mp-18852
Li4Mn3VO8,0.0,-2.149657544820403,mp-773098
Sr7CaFe6(CoO12)2,0.0,-2.149320592499999,mp-1076372
Ca2V3Co2AgO12,1.9349,-2.149128551708334,mp-726140
KSbWO6,2.8241,-2.149047612472221,mp-1223347
Li8Cr3TeO12,0.9878,-2.149036955138889,mp-767678
Na14(WO3)19,0.0,-2.149030032714559,mp-1173848
MgV8Zn4O16,0.2904,-2.148980768793104,mp-1233918
V4FeNiO12,0.0,-2.148977992222222,mp-756937
Na11(WO3)16,0.0,-2.148787552202299,mp-531997
Cr2PIO4,0.0,-2.148650980267857,mp-557217
LiNi2P3O11,0.0,-2.148529806897759,mp-32389
NaCr6O11,0.0,-2.148411580354405,mp-780132
Na3FeBSO7,2.9324000000000003,-2.148321354677276,mp-774247
Ca7MgFeCo7O20,0.0,-2.148202437083333,mp-1099907
Na3CoSiCO7,1.0634,-2.148181175702918,mp-771041
W17O47,0.0,-2.148147158828125,mp-1197770
Sr(FeO2)2,1.936,-2.1480569966071412,mp-21926
KCr4O8,0.0,-2.148050575173077,mp-18881
Li6V2C4SO16,3.0591,-2.148033862844827,mp-776436
BaCaFeBiO6,0.2216,-2.147983424,mp-1519427
Sr2AlCu2MoO7,0.0,-2.147975878846153,mp-1043885
Fe2Ni3Sb(PO4)6,0.0,-2.147953162718254,mp-777420
MnVSbO6,0.686199999999999,-2.147939474770114,mp-510305