formula,bg,formation_energy,mp-id
VIO4,1.0608,-1.521904680416667,mp-752578
MgCr2(CoO3)4,0.321299999999999,-1.521760016052631,mp-2230385
Mo2P2NO11,0.8154,-1.521755791361607,mp-1197674
MnH8SO8,4.274100000000001,-1.5217441296072791,mp-24732
LiV(CuO3)2,0.0,-1.521713995333333,mp-1201317
K2CoH2(SO4)2,0.6262,-1.521625919133333,mp-1212230
FeH9(SO6)2,2.5427,-1.521576467552083,mp-1225460
Na5CoO4,1.461299999999999,-1.521409258939655,mp-21792
UCr4(H3O4)6,2.3974,-1.5213145071808511,mp-1204339
Rh2WO6,0.0,-1.521290434999999,mp-1209123
CrP2H13(NO5)2,3.625,-1.521250431626276,mp-698227
MgCd2(CoO3)2,1.1707,-1.5210034677272721,mp-2223054
FeH4(SO5)2,0.0355,-1.520931173529411,mp-772432
K2CrMo6H19O32,0.696499999999999,-1.5208711013874991,mp-1228872
Zn4Ni5(TeO6)3,1.2647,-1.5208404539999991,mp-1046551
Li5Co4(NiO6)2,0.164099999999999,-1.520749964202899,mp-760155
Mn8NO16,0.8924999999999991,-1.520370037537932,mp-1221848
Tl2Fe2(SO4)3,3.8056,-1.520356358640351,mp-1208266
MoH4O5,1.7927,-1.5200931728749991,mp-728527
MnTl2H12(SO7)2,3.9623,-1.519899599825733,mp-1197777
SmDy(CoO3)4,0.0,-1.519477454814814,mp-1518584
Fe4O5,0.0,-1.519237164444444,mp-1188678
Li10CoNi9O20,0.4502,-1.519159711833332,mp-759912
Na4NiMo6(H19O20)2,2.8117,-1.519115093179968,mp-1195146
CaFe4(CuO4)3,0.0,-1.5190555345,mp-1043124
FeCo(BiO3)2,0.5354999999999991,-1.518898982000001,mp-1225028
Li4Fe9CoO20,0.0,-1.518874647156863,mp-765027
Sm2MgMo2(I4O15)2,2.8009999999999993,-1.518817676860465,mp-1233182
V3H8(NO4)2,1.9786,-1.518807119285714,mp-765962
Mn3(SeO3)4,0.6878000000000001,-1.518603669903584,mp-773071
LiCo5O5F,0.0,-1.518208781944444,mp-764225
K2Na4Fe2O5,0.482199999999999,-1.518045855385942,mp-1211809
CoMo4O15,0.0,-1.5175632802499999,mp-1105747
V2H10Se2O13,2.5124,-1.517312566192129,mp-1201097
Na4CoO4,0.5364,-1.517222244022987,mp-27224
Na2LiFeO4,0.0,-1.517135607011493,mp-510742
Li4FeCu3O8,0.0,-1.517116058333333,mp-756375
Te3WO12,1.5961,-1.516747633125,mp-773515
WCl3O,0.0,-1.516688350999999,mp-556208
ZnFe16Ni7O32,1.235599999999999,-1.516638768928571,mp-1198303
RbFeSe2O7,0.0,-1.516392853380681,mp-703253
Mn3(CuO4)2,0.0,-1.516291251830238,mp-504567
Li8Fe3Ni7O20,0.0,-1.5162856322807001,mp-759370
Ba2Tl2Zn3(FeO3)4,0.0,-1.515927261594203,mp-1048584
MnAs2O7,0.5803,-1.515838803793103,mp-1042875
Li23Ni17O40,0.0,-1.515544620708333,mp-705828
Li6Fe3Co3O16,0.0,-1.5154613089285711,mp-755973
Li4Fe2Cu3Te3O16,0.0,-1.515248503333333,mp-765617
Na2CoO3,0.0,-1.514713897543104,mp-777786
MgMnCuO2,0.0,-1.5145414165862061,mp-2228221
Na5Co2O5,1.3256,-1.513366565991378,mp-561875
FeP2CO8,0.2052,-1.512919158690474,mp-1182728
KMn(SeO4)2,0.037099999999999,-1.512845084989044,mp-555354
Tl2CrO4,2.5156,-1.512726541309527,mp-16892
Co2Bi11O20,1.050599999999999,-1.51251933030303,mp-690537
CrH15S2O15,3.332799999999999,-1.5124176383712111,mp-727766
VN(OF)2,0.3138,-1.512215351250001,mp-1192023
Co2P2NO8,0.8775000000000001,-1.512192328021978,mp-1213809
Sr2Cu2Ni(SO)2,0.0,-1.512156987222222,mp-505611
Fe3Pb4BrO8,1.233299999999999,-1.5120968790624991,mp-1212776
K2Fe2H8C4Cl2O13,2.2251,-1.5119885299838711,mp-1205066
Cu6Mo5O18,0.7167999999999991,-1.511939512586207,mp-5511
Li9Co13O28,0.051,-1.511822746800001,mp-758645
K2Mo2C4O15,0.2636,-1.511779120195652,mp-1212036
K2Co2(SeO3)3,2.6268,-1.5117782238457032,mp-1223719
CrH18(O3F)3,4.2569,-1.511598905241935,mp-725062
SrFe4(CuO4)3,0.0,-1.511353993,mp-1105138
CrO3,2.2699,-1.5112073775000001,mp-510421
NaMgNiO2,0.0,-1.511182243275861,mp-2226994
Mn2H8S3(NO6)2,4.5273,-1.51114541938378,mp-759076
MnFeO4,0.0,-1.5111306704885061,mp-761315
MgCo6(O3F)3,0.4816,-1.5110479407894741,mp-2228436
CoMoH2SeO7,0.052799999999999,-1.511006784153645,mp-866480
Sr2Cu2NiO7,0.0,-1.51091968375,mp-1044112
Na9Cr2(H9O7)3,3.3093,-1.510855815697691,mp-863376
V2CoO8,0.098,-1.5105167200000011,mp-1194802
MnH2Cl2O,3.3176,-1.5102333517385051,mp-1192289
Tl2Mo3PCO12,0.545899999999999,-1.510076240858396,mp-722560
Cs2MoN(Cl2O)2,1.0733,-1.509915200431033,mp-1182795
KNiH9(CO5)2,4.707800000000001,-1.5097816153695651,mp-697458
Rb4MgFe8H6(Se8O25)2,2.3228,-1.509759834470588,mp-1197601
K(Mo2O3)4,0.0,-1.509628608916665,mp-1224511
CrGaMo6(H19O20)2,3.4204,-1.509602101686047,mp-1215140
VH12SO11,3.0716,-1.509519008699999,mp-1196378
SrCo(GeO3)4,0.0,-1.5094918050000001,mp-1519959
MnCu(Te2O5)2,0.6787999999999991,-1.508879663099856,mp-505342
FeTe6O13,2.3607,-1.508757643499999,mp-561036
Na7Co3O8,1.372099999999999,-1.5087142580363981,mp-776669
AgSbWO7,0.0,-1.508686119666665,mp-1229079
LiFePbO3,1.2713,-1.5085103730555551,mp-1235342
Li3(CoO2)5,0.0,-1.5084673922222231,mp-774507
Li6FeCo9O20,0.5032000000000001,-1.508432069166667,mp-759050
Mo5PbO8,1.125099999999999,-1.508380348035714,mp-21759
Li3Fe2(CuO4)2,0.0,-1.508177061999999,mp-781767
NaFe9H18(S3O22)2,0.1714,-1.5081308408830671,mp-1223165
FeTe3ClO7,2.2711,-1.508050761458333,mp-1201019
Li4Fe3(NiO4)3,0.0,-1.507976291060605,mp-758854
LiCrCo3O8,0.0,-1.507876292948718,mp-758629
Li(FeO2)3,0.4165,-1.507841640333333,mp-753154
BaSrCoCu2(SO)2,0.0,-1.507791632777778,mp-1227882
Cr12Fe7O48,0.0098,-1.507687975373134,mp-1178459
Ag2Mo2O7,1.9011,-1.5074706507575741,mp-27966
Fe5CuO8,0.1528,-1.5071843071428581,mp-33300
Na4Co2O5,0.907899999999999,-1.507053062547022,mp-778475
V4Cu9(ClO9)2,0.0,-1.506839218787879,mp-1196185
Co2AsHO5,1.9439,-1.5068288893055561,mp-1202958
Li3Co3NiO8,0.0,-1.506753379333334,mp-777820
Li5Co2Cu3O10,0.0,-1.5067063988333331,mp-752862
MgFe4H42(S3O23)2,2.2454,-1.506555122550504,mp-1200159
Li(CoO2)2,0.665899999999999,-1.506478392440475,mp-774082
FePH6NO5,3.5902000000000003,-1.5064114562244901,mp-1281631
NiMo4O15,0.4503,-1.5063166747499999,mp-1180053
CsV2S2O,0.0,-1.506241108275863,mp-1070912
Na8Mg(NiO4)2,1.3707999999999991,-1.505597672422867,mp-2231589
Li6CoNi5O12,0.059499999999999,-1.505009014999999,mp-867666
ZnFeO2,0.4966,-1.504858570625,mp-1046293
NiAg4(PO4)6,0.0,-1.504690717843536,mp-1203837
V3H6CNO7,1.9904,-1.504560358055555,mp-600200
FeCu2H21(O5F4)2,0.489699999999999,-1.504351567529761,mp-40573
KCoO2,0.0,-1.504170098062499,mp-1180771
Mo8P9H56N12ClO56,2.7586,-1.503950271491448,mp-604773
Na4Fe6O13,0.0,-1.503936997196402,mp-781012
Mo(RhO3)2,0.0,-1.503809329444443,mp-22097
Li4Co3Cu3(TeO8)2,0.0,-1.503482172023809,mp-765052
Ba2Co3O8,0.0,-1.503479836923077,mp-1048116
Sr2MnZn2(AsO)2,0.0,-1.503426578103449,mp-862748
KCoMo3(AsO6)3,0.011399999999999,-1.503393897634616,mp-1205282
Mn3(PO7)2,0.0,-1.5033922604252,mp-1203802
Fe2CO5,1.414899999999999,-1.5032057287499991,mp-1199200
Li5Co5(CuO6)2,0.0,-1.503100148194445,mp-764915
CrAsO5,0.642899999999999,-1.5029897803571421,mp-1337174
Li5(NiO2)4,0.0,-1.502853623333332,mp-780518
CsV2I3O13,1.829699999999999,-1.5024751641923781,mp-572728
Cs4MgMn4H16(Cl3O2)4,1.2711,-1.50247238167433,mp-1234758
Na3(CoO2)4,0.0,-1.502138286275862,mp-766225
Fe9O10,1.6184,-1.5020958310526311,mp-759037
NaAlCr2O10,0.0,-1.501856055098521,mp-1193153
K3WS3ClO,2.776399999999999,-1.501829202138887,mp-555092
Cr2(GeO4)3,0.613699999999999,-1.501507167794117,mp-1329713
K6Mg(FeO3)2,1.1503,-1.501506116566666,mp-2232307
RbV2I3O13,1.7589,-1.501278554868421,mp-560376
MnP2(HO)4,4.478899999999999,-1.500887107625765,mp-1195060
FeTe2ClO5,2.1486,-1.500365541481481,mp-559874
Rb6Mg(FeO3)2,0.0,-1.500250355333333,mp-2226530
CrHg(PbO3)2,2.0918,-1.500121868250001,mp-556308
FeMo2H4NO8,2.6352,-1.5000721710937501,mp-1202077
Fe5O7,0.0,-1.49997127625,mp-1095382
Fe3Sb5(IO3)3,2.5007,-1.49988522975,mp-1199909
CrFe7O12,0.156299999999999,-1.499793677124998,mp-1245166
Li2Co3(SeO3)4,2.6403,-1.499621574097221,mp-562404
VH8N2OF4,2.8379000000000003,-1.499542723593749,mp-1195824
Fe8O9,1.2314,-1.499313180588234,mp-705588
RbH3WO7,3.1797,-1.499240029270833,mp-560254
Mn5(AsO5)4,0.373099999999999,-1.499211764815696,mp-1198289
Na2Fe2O5,0.0,-1.498915591417624,mp-752590
CrP2H15N2O11,3.7807999999999993,-1.49891362767857,mp-698222
Fe(AsO2)2,2.5252,-1.4988049775,mp-756549
MnH8(SO6)2,0.409699999999999,-1.498594534801349,mp-778207
MnBi2O5,0.0,-1.49850088317888,mp-1210932
Na7(CoO3)2,0.0,-1.498345034310343,mp-19427
Cs4FeO4,2.000199999999999,-1.498143178735633,mp-1201003
K3Mo4O16F,1.1287,-1.498097233197916,mp-1212278
LiNiO2,0.018,-1.497991299166667,mp-2348641
Rb2Fe2O3,0.0,-1.497958862142857,mp-755676
Li6(NiO2)5,0.0,-1.4973712261904761,mp-752908
Fe2P2H6C2O13,1.0491,-1.49735964167143,mp-1229091
MgTl3VO4,0.426099999999999,-1.497321896111114,mp-2222828
MgMn2(AgO2)2,0.0,-1.497320891577267,mp-2227067
K9Fe2O7,2.0603,-1.4972013877916661,mp-1199147
Mn3NiO8,0.4022,-1.496995453649424,mp-1176568
Li7Fe5O16,0.0,-1.4968235097619051,mp-1176883
Cr(OF)3,1.349299999999999,-1.49676008,mp-1226389
Ba2Co9O14,0.0,-1.496708619599999,mp-510717
MnSe2O5,2.0513999999999992,-1.496655939389823,mp-17901
Na4CrH6ClO7,0.0,-1.496605193053538,mp-1221392
KCr2FeHO8,1.2042,-1.496425255653846,mp-1211835
Mn3(AsO4)4,0.4497,-1.496301447556221,mp-1041708
FeH4S2NO8,2.3185,-1.496299018124999,mp-684724
Fe21O32,0.0,-1.496282992075471,mp-530048
VAg2AsO6,1.613099999999999,-1.496258252583333,mp-1188566
VP3(HO)6,1.9864,-1.4962557614174101,mp-1201989
Co6O7F5,0.0,-1.496124643888889,mp-849276
Fe11Si4(H4O9)3,0.2893,-1.496061056296297,mp-1225211
CaCo5SbO8,0.0,-1.4957873546666671,mp-1234045
MgIn(FeO2)2,0.0,-1.495662948958333,mp-2240460
TlW2(Cl3O)2,0.0,-1.495555315757577,mp-865762
BiW2(Cl4O)2,1.6948,-1.495319213461538,mp-1193947
Na8CoO6,0.9516999999999992,-1.495229025735632,mp-764233
ZnCoP2H12O11,2.0092,-1.4950386181216921,mp-1199400
Na10Fe4O9,0.0,-1.494823915164917,mp-37749
V2(CuO3)3,0.166899999999999,-1.4947536132142851,mp-1194512
FeCoBi2(AsO6)2,0.0,-1.494440587500001,mp-1225216
Fe7O8,1.0723,-1.493853144333332,mp-715333
K3NaMo5Se2O23,1.387,-1.493811315818141,mp-1182625
LiCo5O7F,0.4512,-1.4936151891666671,mp-1291653
Tl3Cr4AgO14,1.976,-1.493457825530303,mp-1203083
VFe2(CuO2)3,0.8204,-1.493432661666667,mp-1216357
Co2AsClO4,0.0,-1.4933836296875,mp-551131
VCu2HO5,0.049999999999999,-1.493371775416666,mp-1197678
Mn2Tl2O7,0.0,-1.4930219634117041,mp-22354
FeClO,1.9133,-1.492954021666667,mp-540828
CrCoNF6,0.8890000000000001,-1.492577692777777,mp-1226403
MgFe4(NiO4)2,0.028299999999999,-1.492569138999999,mp-2232663
Li3Co2(NiO4)2,0.0,-1.4924672886666661,mp-779959
V5H18N3O17,2.131,-1.492399560348838,mp-1204985
NaMn(HO)3,1.9477,-1.492330034132542,mp-758826
VCuSe2O7,0.0,-1.49219532747159,mp-557097
Ni17(AsO4)12,0.0,-1.4918817540259741,mp-767798
H2WO5,2.4913,-1.4918788837499999,mp-626865
Zn2NiO3,1.1883,-1.4918207825,mp-1215778
Mn3Cu3O8,0.0,-1.491604555985222,mp-21784
BaFe2S2O,0.0,-1.491538529999999,mp-1095213
Rb6Co2O7,1.152699999999999,-1.491538390999998,mp-772572
Mn8Cu7O20,0.0,-1.491327812812808,mp-532104
MgFe4(CuO4)2,0.0,-1.491191548999999,mp-2232109
Fe10O11,1.4714999999999991,-1.4909577690476181,mp-705555
Fe2As2PbO10,0.0213,-1.490828913166667,mp-1197443
CsFeH4Cl3O2,3.4992,-1.490824513832288,mp-744268
KCr2FeO9,0.1063,-1.490485767096153,mp-727170
Cr2AgBiO8,1.487999999999999,-1.490484460138888,mp-559885
CsV(NO4)2,1.7603,-1.490443107471263,mp-1200557
Mo2O3,0.5236000000000001,-1.490327660500001,mp-1371699
MgCoHO2,0.0,-1.49007991925,mp-2227658
Ba3SrCo2Cu4(SO)4,0.0,-1.4899429249999991,mp-1228462
K(Mo2O3)2,0.0,-1.489852451113638,mp-28849
CsMnO4,2.2208,-1.489636837514363,mp-18994
VCdNiP2O13,0.202099999999999,-1.489620616626983,mp-1217198
FeAs(H2O3)2,2.8784,-1.48911983375,mp-543041
MgFe2(SeO5)2,1.1035,-1.488687783979167,mp-2232099
Mn5Co3O16,0.8854000000000001,-1.488618611652299,mp-756965
Cr4CuO12,0.0,-1.488450762941176,mp-752836
Li5Co(Ni2O5)2,0.0,-1.487818711333333,mp-1222736
MnP3H6NO7,2.6372,-1.487546764408866,mp-1211766
Mn2As2O9,0.482199999999999,-1.487303179489392,mp-1199645
MgCo3BiO8,0.0,-1.4872533419230771,mp-2240855
Fe21Ni9O40,0.0,-1.486952950428571,mp-698680
RbCrH24(SO10)2,4.0581,-1.486941849791666,mp-24108
SrFe2S2O,2.0437,-1.4869373816666651,mp-1095280
Co5SbO8,0.0,-1.4869248114285711,mp-33332
Tl2FeH12(SO7)2,3.9101,-1.486657725376344,mp-1198334
Ba2CoCu2(SO)2,0.0,-1.486311756111111,mp-1078706
VPNO5,0.94,-1.486154625736606,mp-1200963
Mn5As4(H11O13)2,0.4588,-1.4859694903009681,mp-541763
Fe10Bi5O24,0.0,-1.4859353730769231,mp-530917
Zn3Fe2O7,0.0,-1.4858578887499991,mp-1371689
MnH10SO9,0.4052,-1.485848469901478,mp-505004
Li2Ni2BiO6,0.8308999999999991,-1.4857544483333331,mp-1569254
Cs2WSO4,0.4457,-1.485736262101293,mp-1226525
Co2As2O5,0.0,-1.485607919999998,mp-705094
Fe13O15,0.0,-1.4855365237499991,mp-756693
Li4Co5NiO12,0.048,-1.485480155606061,mp-1648324
MgFe2(CoO4)2,0.919,-1.485418495,mp-2219106
Co9Te5(PbO5)6,1.3596,-1.485331924266667,mp-1203045
PrFeAsO,0.0,-1.485280211041667,mp-22491
Na6MgMo2(NO3)2,1.229699999999999,-1.485249053133874,mp-2228971
Li4Mn2Co3Ni3O16,0.0,-1.485231822471264,mp-776416
NaNi2(MoO5)2,0.065499999999999,-1.485190238091954,mp-1210175
Cs8Fe2O7,1.7378,-1.485079856602433,mp-1198676
NaNi4H9(CO5)3,3.7286,-1.485023322894665,mp-761175
V2Cu3H6O11,0.0,-1.484980917386362,mp-721062
Na3VH11IO13,2.5564,-1.484752435099584,mp-1205476
KCaNi2H3(SeO5)2,2.2301,-1.48460453924671,mp-1233117
Ni(CO2)2,3.240599999999999,-1.4841859599999991,mp-1104034
MgFeCo3O8,0.0,-1.483725136538461,mp-2224752
TlCrO4,1.9171,-1.48334825201389,mp-706518
VP2(NO4)2,1.5954000000000002,-1.48310159532967,mp-1207949
Fe2Te4H3ClO12,1.5179,-1.4829569054734841,mp-743878
LiNi5O5F,2.436,-1.482855701944444,mp-753465
Mn3Co2Te3O16,0.0,-1.482797588491379,mp-755884
SnMo5O8,0.946299999999999,-1.48271780375,mp-14695
Ca3Mn2O12,0.080399999999999,-1.482462054315415,mp-1214143
Na9Co2O7,1.1929,-1.482338685134099,mp-510308
Na2UMo2H3O11,0.5059,-1.4819224623162421,mp-1212280
Fe11O12,1.4282,-1.48173293173913,mp-705417
FeH7SO8,2.2921,-1.481670656838234,mp-1213176
Na4FeO5,0.481699999999999,-1.4815293688017241,mp-764836
FeO,1.8157,-1.481519387499999,mp-1274279
RbFeH4Cl3O2,2.936899999999999,-1.481471218409091,mp-734319
Co2TcO4,0.0,-1.481405397857143,mp-36069
Na5CoHO4,1.418599999999999,-1.480955126763323,mp-774341
Li5Co2Ni5O12,0.0,-1.480723818194444,mp-765625
Fe21O23,1.3538,-1.4804801530681821,mp-706875
Li4Fe2Ni5O12,0.0,-1.480264200362317,mp-758641
MgCoBi2O7,0.0,-1.4802224762500011,mp-1042617
KMnH3(CO2)3,3.2756,-1.480114620995074,mp-1192422
CaV4O15,0.2052,-1.48005805875,mp-1227849
MgMn2Co5O12,0.6438,-1.480024977043103,mp-2230034
MnH6SO6,4.7059000000000015,-1.479911267530788,mp-765484
Fe2Te4BrClO10,1.9778,-1.479781836064815,mp-1213361
FeBi2Se2Cl3O7,1.3914,-1.4796260903125,mp-1192577
Fe23O25,1.2771,-1.4789985053125,mp-705553
SrCo6O11,0.0,-1.4789317005555531,mp-18381
Co(SO4)2,0.0,-1.478569253787878,mp-772268
V(HgO2)2,1.238999999999999,-1.478410062678571,mp-29189
Li2CrH8Cl5O4,2.8872,-1.478242029833332,mp-770676
Fe5O8,0.0,-1.47798222596154,mp-510746
Li3Co(NiO2)4,0.0,-1.477836923124999,mp-756787
K2NiH12(C2O7)2,3.3749,-1.477793720893938,mp-554044
RbV(IO4)2,2.7622,-1.477540501875,mp-556847
KMnO3,0.0,-1.477517156036207,mp-1184948
V2(CuO2)5,0.0,-1.477375675735294,mp-27550
MnH6(S2O9)2,0.292799999999999,-1.477371824842449,mp-779879
Cu3Mo2O9,0.0,-1.4773587758928581,mp-649957
Li5Co7O16,0.6043000000000001,-1.477170530238094,mp-771191
NaMnH3(CO2)3,3.9508,-1.476879555397167,mp-1195148
Fe19Co5O32,0.125499999999999,-1.4766204898214281,mp-757738
FeTe3BrO7,1.0909,-1.476618273333333,mp-1201424
ZnFe2H28(S2O15)2,1.6923,-1.476442451,mp-1196074
Ba2MnZn2(AsO)2,0.0,-1.476176074492338,mp-19045
VP2C4N3(ClF6)2,2.9932,-1.476174371845238,mp-560484
Li3Co4CuO8,0.0,-1.4761019175,mp-756258
CoTe(PbO3)2,1.7931,-1.4755814881666651,mp-1078906
Mn3Cu(SeO3)4,0.2175,-1.475469672158405,mp-1221852
Fe32O35,0.507899999999999,-1.475207054701491,mp-863766
V2Zn3H2O11,0.029299999999999,-1.474993297638889,mp-1216533
Fe3H28(S2O15)2,1.0282,-1.4748084513076911,mp-1202481
MgFe2(CoO2)4,1.452599999999999,-1.474788603666667,mp-2241110
VH6SO10,0.095199999999999,-1.474645619444444,mp-1217176
Co2Te3O8,2.4813,-1.474494457692308,mp-18855
Fe2Co3Sb3O16,0.9379999999999992,-1.474436313333334,mp-1178389
Li3Co3CuO8,0.0,-1.474400783999999,mp-769624
KCrH24(SO10)2,3.7239,-1.474272924369791,mp-729028
Fe17O18,1.5382999999999991,-1.474056338571428,mp-705424
K2CoH4(SeO5)2,2.8355,-1.473940875483551,mp-644334
VP2(HO)6,2.8845,-1.473720878452381,mp-735524
CoTe6O13,2.716,-1.4737158102499999,mp-1198962
Rb5FeO4,1.8727999999999991,-1.473615956374999,mp-768830
V2CuH14C2N2(OF2)4,0.8210000000000001,-1.473304030833333,mp-1195565
Fe4As4H4O19,0.054099999999999,-1.473084660645161,mp-1225931
Ni9Te5(PbO5)6,1.9839,-1.472855097166665,mp-1204674
SrCa(FeO3)4,0.0,-1.472811807222221,mp-1517238
Li4Fe3Co3(NiO8)2,0.0,-1.4725183554761911,mp-760302
Cs2K4Fe2O5,0.0,-1.472014993331565,mp-505040
CrH10SO9,0.0,-1.471756085714285,mp-1202852
VH12SO10,2.2702,-1.4709250116666661,mp-1210714
KFe2H(SeO3)4,2.3115,-1.470686684893749,mp-735586
KV(IO4)2,2.7395,-1.470524658937501,mp-559744
PH24W12C6N3O40,3.316,-1.4698512266237531,mp-1180044
RbMnO4,2.137099999999999,-1.469840426738501,mp-18301
Na6Mg(NiO3)2,1.378299999999999,-1.4695896122183911,mp-2225014
Li2Ni3SnO8,0.540299999999999,-1.469569507797619,mp-760774
KH8WN2(OF)3,3.8835,-1.469284123736111,mp-1223712
Ba2Tl2Zn3(NiO3)4,0.0,-1.469134039420291,mp-1340134
Li15(NiO2)14,0.0,-1.469099628245613,mp-705910
VH4(CO3)2,2.9947999999999992,-1.468898502307693,mp-601182
Fe7(CoO6)2,0.0929,-1.468798847619047,mp-1225378
Cr4Xe5F44,1.2921999999999991,-1.4686765791037741,mp-1199834
CdCoAsHO5,1.0398,-1.468586090694445,mp-1195662
Rb2WSO4,0.350099999999999,-1.468562470312499,mp-1219664
Li4CuNi3O8,0.036,-1.468299575208333,mp-752986
Cs6Co2O7,1.1644,-1.46827028886207,mp-773199
Li3FeNi3O8,0.0,-1.468135599333333,mp-753275
ZnFeBiO5,0.1409,-1.4679498778125,mp-1044413
VCuAgO4,0.0,-1.467899853452381,mp-510659
CoBC8(OF2)5,3.2026,-1.467851403466668,mp-562548
CoTe2O5,2.5023,-1.467821985885416,mp-781595
FePO6,0.341299999999999,-1.4678079837053561,mp-1196792
K2Li2NiO4,0.013899999999999,-1.467789510962962,mp-773004
Mn3Ni2Te3O16,0.0,-1.4673311993247111,mp-774607
Fe2BiSbO7,0.0,-1.4673041327272731,mp-1224738
VP2H13CN3O11,2.8281,-1.466989856388249,mp-1100919
Ca(Ni2O3)2,0.0,-1.466961943181817,mp-1043722
H8W3Se(NO6)2,3.1147,-1.466914990282451,mp-25729
Tl2NiH12(SO7)2,4.6530000000000005,-1.466852183763441,mp-1199808
Li13Ni15O28,0.0,-1.466696166666666,mp-766878
MgMn2(CoO3)4,0.1338,-1.4664258532032661,mp-2228862
AlCo3Se2ClO8,1.8001,-1.466250656979166,mp-1264957
VH10(CO5)2,2.9338,-1.466103667173913,mp-759318
NiTe6O13,2.9767,-1.46610021575,mp-1196304
Li4Ni5SbO12,0.0,-1.466093919242423,mp-1177306
ZnFeO3,0.0,-1.465996034999999,mp-755099
NaMn3CuH24(SO6)4,4.2021,-1.465584696231095,mp-1180020
Li19Ni23O42,0.0,-1.465116302896826,mp-698842
Mn3CuO8,0.0,-1.464931576149425,mp-756525
Mn3Cr2Co3O16,0.0,-1.464917692658047,mp-772635
Cs2Mn(Cl2O)2,0.502699999999999,-1.464871950804598,mp-1080610
Co7(AsO6)2,0.0,-1.4648406442857151,mp-17489
Na3Co2CuH8S4O17,0.3119,-1.464732091118227,mp-1221835
Fe4O7F,0.0,-1.464719130833333,mp-780861
LiV(IO4)2,2.659399999999999,-1.464572214236111,mp-554998
MgZn2(CoO2)4,0.1835,-1.464463271,mp-2232283
Na4CoO3,1.1481,-1.464403423189655,mp-18762
Li3MnCu3O8,0.053199999999999,-1.464257660528736,mp-756390
Li5Cr2Cu5O12,0.0,-1.463915002777777,mp-756836
Na4TeMo6H40(NO20)2,3.4168000000000003,-1.463914497657891,mp-1182759
MnCd4O5,0.0,-1.463753077043104,mp-1221762
Co7CuAs4(HO5)4,0.0,-1.46362828513889,mp-1226214
FeAs2O7,0.3379,-1.463611766,mp-25260
NiPNO5,0.3852,-1.463345994955356,mp-1210409
V5ZnO7,0.0,-1.463287285384616,mp-1378207
LiMnCo3O8,0.0,-1.463165672404951,mp-756037
Na10Co4O9,1.4835999999999991,-1.462982004295352,mp-562435
K4Na2Mg(FeO3)2,0.3832,-1.46274666711724,mp-2232201
Na14Fe2O9,0.0,-1.462355855572413,mp-1176424
K7Rb5(Fe2O5)2,1.3489,-1.462294593009615,mp-1223738
CoPH6NO5,0.7073,-1.462273103724489,mp-697560
Fe14O15,1.019,-1.46212988775862,mp-764417
Li4Co5CuO12,0.0845,-1.461822857878789,mp-773165
MgCo5O8,0.431299999999999,-1.461760991071429,mp-2228518
Na2NiMo6H26(NO15)2,2.6576,-1.4611926338098291,mp-1198211
CoSb2Br2O3,1.595799999999999,-1.4610845953124991,mp-550763
V3S2NO12,0.0,-1.4607456597222221,mp-1202363
Na3(CoO2)5,0.3081,-1.460745514118774,mp-861555
Na3(CoO2)2,0.0136,-1.460488677681992,mp-754437
Fe2CuAs2(HO5)2,0.7587,-1.460258125147058,mp-644028
FeH8SO8,4.0183,-1.460006383194443,mp-1195843
Na3Mg(CoO2)5,0.7888000000000001,-1.460002980480944,mp-2231249