formula,bg,formation_energy,mp-id
Sr3Ca6V7BiO28,3.6107,-2.917199772444444,mp-532540
Ti3FeO7,1.2912,-2.917017173181817,mp-1103361
Sr3Fe2(OF)4,0.0,-2.917011701538462,mp-1103995
Ba3MnF12,0.0,-2.91699505924569,mp-1237261
SrLa3CoNiO8,0.0,-2.9169676610714292,mp-1218258
BaMnP2O7,3.984,-2.916863040201522,mp-18703
Mg30CdNiO32,3.7915,-2.916704430312499,mp-1036825
Ca2Ta2WO8,0.181599999999999,-2.916613211897435,mp-1046286
Ba2YV3O8,0.0,-2.916394275714286,mp-1047835
Li2FeF5,3.66,-2.916305208333333,mp-776635
Mg30NbCoO32,0.0,-2.916148088125,mp-1036975
La4Mn3NiO12,0.0928,-2.916139654689657,mp-1223131
Mg30NbFeO32,0.3181,-2.91605207375,mp-1037501
KSrCeWO6,0.6406000000000001,-2.915984618724999,mp-1521083
Ta2WO8,1.9392999999999991,-2.915953204060605,mp-772657
Er2Mn2O7,1.1678,-2.9157233146238233,mp-19256
CaFeF6,0.0,-2.91554703625,mp-1404740
Gd2W2O9,2.844,-2.91553006923077,mp-770657
Sr2V2O7,3.3912,-2.915350878409091,mp-19368
BaCaV2O7,3.2741,-2.915217995227272,mp-19484
Ti3V2O9,1.5774,-2.914789540714285,mp-1179324
Mg30CoSiO32,0.0,-2.9147534465625,mp-1037157
Gd2MnSbO7,1.6004,-2.914275617084638,mp-1224711
BaMnNb4O12,1.8824,-2.913680271551724,mp-1523208
SrCaMnNbO6,0.0,-2.913664076793104,mp-1522791
Li2Fe2Si8O19,3.213199999999999,-2.913452989408601,mp-765416
Li4MnF8,2.2493,-2.913452197020336,mp-756952
CaTiMo(PO4)3,1.0023,-2.913297633736772,mp-1044354
Mg30FeCuO32,0.0,-2.913267081875,mp-1037298
Mn9Al8Fe3(SiO4)12,3.5858,-2.9132005387672413,mp-1221930
Mg14TiVO16,0.137500000000001,-2.913083967916667,mp-1034443
BaNaYWO6,2.8552,-2.913068630137931,mp-1516963
Mg30CoNiO32,0.0,-2.91299573109375,mp-1037175
Mg30VSnO32,1.8617,-2.912943563984375,mp-1036763
CaEu2WO6,0.6178,-2.912938223000002,mp-1205634
SrCa7Ti3Mn5O22,0.061099999999999,-2.912933762885663,mp-1247696
BaMg30CrO32,1.5460999999999991,-2.9128852090625,mp-1038639
La11Mn12O36,0.0,-2.912758906274111,mp-766296
Li3Mn5F15,0.0,-2.912517570637182,mp-759954
Y(WF5)3,3.4834,-2.912377441315789,mp-1041588
Mg30CrSiO32,1.829,-2.9122803465625,mp-1039892
Mg30SiNiO32,0.0,-2.912233266406249,mp-1036904
CaVP2O7,3.377399999999999,-2.91175112538961,mp-1369469
Dy2Mo2O7,0.0,-2.911589593484849,mp-1190424
LiCrCdF6,3.9378,-2.91125776037037,mp-1211098
Ca3Co2(Si2O7)2,1.2255,-2.9112189669565223,mp-1249267
Sm2MnSbO7,0.355999999999999,-2.911215762539185,mp-1219206
Li2V2(Si2O5)3,1.3186,-2.911022818866667,mp-773075
Sr10Mg5Mo3(WO15)2,2.3303000000000003,-2.910924030499999,mp-1218906
Ca3Cr3(PO4)4,3.252199999999999,-2.910920005906593,mp-557821
Tb2Mo2O7,0.0,-2.910913877121213,mp-19200
Ca3Ta2Mn2O12,0.4045,-2.910886832133092,mp-1345521
CaMg14NiO16,3.4417,-2.9107756871875012,mp-1036402
SrEuDyCrO6,0.0,-2.910770853666666,mp-1520871
Yb2MnCoO6,0.0,-2.910723611198276,mp-1215956
V3O2F5,1.4786,-2.910692034000001,mp-1101202
KMg30FeO32,2.6424000000000003,-2.9106521905820313,mp-1037604
PrMgV2O6,0.894899999999999,-2.910620631666668,mp-1044527
Mg30CrCdO32,0.493799999999999,-2.9102858365625,mp-1038570
BaYFeO4,1.7746,-2.910201128392857,mp-1195207
Li4V4(OF3)3,0.536999999999999,-2.910170265166666,mp-765901
KBaLaWO6,2.9056,-2.910136708975001,mp-1519429
Li2Cr2Si5O13,2.957,-2.9100647105303032,mp-758237
K3Mn5(Si2O5)6,0.0,-2.910029804428103,mp-1211913
Mg30NbNiO32,0.416599999999999,-2.9099891524999992,mp-1037074
NaEuHfWO6,0.0,-2.909944880637931,mp-1522189
MgFe(SiO3)2,3.804599999999999,-2.909882640625,mp-558339
Na10U8W5O44,1.7568,-2.909702043862583,mp-559577
Y4Mn3NiO12,0.5216000000000001,-2.909649096189656,mp-1216205
La7SmMn8O24,0.0,-2.909588990836207,mp-1099923
Na5Mn3F14,1.3818,-2.909546943440439,mp-28398
LaBWO6,3.8287,-2.909348835462962,mp-1211317
Cs2MnF6,3.3832,-2.909271344137932,mp-557912
SrCaNi(PO4)2,3.8435,-2.909063978791209,mp-1046437
La7SmV8O20,0.116899999999999,-2.908948588611111,mp-1076878
Ta2CoO6,2.004,-2.908913289962972,mp-31517
Ho2MgV4O12,0.7401000000000001,-2.90875010131579,mp-2230356
LiWF6,3.4718,-2.908735297291667,mp-759647
K3FeF6,4.1409,-2.90860409517499,mp-1111491
NaSrDyWO6,2.8974,-2.908479982304597,mp-1519128
CrMoF6,0.0,-2.90843886625,mp-557158
Ti4Co(PO4)6,0.0,-2.908318997462584,mp-1217225
Sr3CaV4O12,0.4009,-2.908300615750001,mp-1644003
MnSnF6,2.405799999999999,-2.908231397866379,mp-20096
Mg14AlCoO16,0.6949000000000001,-2.9082207884375,mp-1036619
Ca2V2O7,2.9553000000000003,-2.908076423636363,mp-27614
CaWF4,1.4295,-2.908056592499999,mp-1395287
Mg30MnSnO32,1.8544,-2.908019330670797,mp-1038154
Ba3WCl2O5,3.9374,-2.908011544090908,mp-553883
CaTb3Mn4O12,0.0,-2.908001520086206,mp-1227131
CaMg14CoO16,1.061499999999999,-2.907888453749999,mp-1036443
Sr8V6O19,0.467799999999999,-2.907682824999999,mp-1218609
Ca8Ti3Mn5O23,0.0,-2.907621482427056,mp-1247666
Ti5V(PO4)6,0.0,-2.90750626262566,mp-772584
YMg14VO16,0.0,-2.9074992309375,mp-1035981
Sr4V3O10,0.0,-2.907447337058824,mp-21303
KTbEuWO6,0.4137,-2.907371293891667,mp-1519524
MgMnSiO4,3.131,-2.9073220404187192,mp-1210608
CaLaCrSnO6,2.897500000000001,-2.907153161,mp-1048919
VZnF5,0.0322,-2.906657057142863,mp-1394906
RbMg30CrO32,3.5936999999999992,-2.906656177617188,mp-1039661
Mg30CuNiO32,0.0,-2.9063445525000002,mp-1037367
Ti2VHO6,1.309099999999999,-2.9063144897916673,mp-1195787
Nd4CuNiO8,0.0,-2.906284151428572,mp-1220220
SrV2P2O9,1.468599999999999,-2.9062190972704083,mp-21614
BaMg30FeO32,2.6279,-2.90616250328125,mp-1037485
BaTiMn2(SiO5)2,0.0,-2.905999989949713,mp-1200625
MgNiF4,4.3374999999999995,-2.9059678583333333,mp-1402637
Mg30FeSiO32,1.851399999999999,-2.9059517118750002,mp-1037606
CaLaCr2O6,0.744899999999999,-2.905918001,mp-1048852
Mg14TiMnO16,0.0,-2.905826184102011,mp-1036209
Li5MnOF5,0.6001000000000001,-2.905800700383142,mp-760276
CaLaFeO4,0.470799999999999,-2.905729902142857,mp-1227068
SrEuNbFeO6,0.0,-2.905343569500001,mp-1519206
NaMnF4,2.0519,-2.905333789885058,mp-554517
Cs4U2V2O13,2.087799999999999,-2.905078846600984,mp-572715
MgTa4Mn4Nb4O24,0.244,-2.9049828417853383,mp-1233120
KPrHfWO6,0.0,-2.904874692891666,mp-1518922
Gd2GeMoO8,2.4793000000000003,-2.9048386370833352,mp-1224706
K2FeF5,2.9703,-2.90476089446875,mp-1205367
CaHoCr2O6,0.0,-2.9045832195,mp-1041195
KNaFe(Si2O5)2,1.1496,-2.9045583325664293,mp-19130
Ba4NbFeO8,2.7302,-2.904453096607143,mp-1022809
VPbF5,0.4088,-2.904198873214296,mp-1208828
MgTiVO4,0.9663,-2.9041850583333333,mp-2223674
Be3V2(SiO4)3,1.8598,-2.904018475375,mp-1047935
KEuYWO6,0.3611,-2.9039512602250013,mp-1519341
Y4Be6Fe3(SiO5)6,0.0,-2.9039009536734692,mp-1265318
YMg14CoO16,0.313799999999999,-2.9038376931250003,mp-1036070
Na2CrF4,1.1081,-2.903762755394088,mp-558383
Mg30CoCuO32,0.0,-2.9036034101562502,mp-1037496
NaMg14CrO16,3.1717,-2.903586231293103,mp-1034602
Al2FeO4,0.0,-2.9035625028571412,mp-30084
Li2V2Si4O11,2.1809,-2.903406565350877,mp-756730
Ho2Mn2O7,1.1659,-2.9032127205329132,mp-754918
RbMgCoF6,1.9239,-2.903187705833333,mp-1219588
Ca2Gd2MnNiO8,1.6446,-2.903106324852216,mp-1227535
Nd2Mo2O7,0.0,-2.903089981818181,mp-690122
La7SmMn7FeO20,0.0013,-2.902939732653258,mp-1099704
Rb3FeF6,4.0898,-2.9028153082499992,mp-1113833
Li4V3(OF2)4,1.4231,-2.902599839122807,mp-758474
Mg30CrSnO32,1.6296,-2.9025215324218743,mp-1095707
Mg14MnVO16,1.363999999999999,-2.902441845872845,mp-1036151
SrLaFeO4,0.516199999999999,-2.902433839285714,mp-1218154
Mg3Mn2(Si2O7)2,2.137099999999999,-2.902386055689655,mp-1250887
Y2Cr3(SiO4)3,2.2234,-2.902366650875,mp-1157313
KSrSmWO6,2.849,-2.902156748975,mp-1516962
Ba2CaMoO6,2.258,-2.9021457209999992,mp-19403
Rb2MnF6,3.2312,-2.902140161436781,mp-558133
Mg14AlNiO16,1.6296,-2.9020941793749992,mp-1036618
LuFeO3,0.0,-2.901636080666666,mp-1193395
Mg2V2(SiO4)3,1.753499999999999,-2.901605204868421,mp-1250278
KNa2CrF6,3.7636,-2.9014785230008613,mp-1111015
CaMnP2O7,3.4785,-2.901390524292431,mp-18743
CaV2P2O9,1.5018,-2.901277977270408,mp-21541
LiTi3MnCr(PO4)6,2.346899999999999,-2.901141472753375,mp-771567
Mg30CdCoO32,1.245099999999999,-2.90092868234375,mp-1036927
Sr2La2CrNiO8,0.0,-2.900697247857142,mp-1218698
MgVSiO5,1.307699999999999,-2.900695477500001,mp-1264059
Mg2Nb2CrO8,1.188799999999999,-2.900613825384615,mp-1046839
La2MnZnO6,1.5789,-2.9006005837931053,mp-1275611
YMg14MnO16,0.0,-2.900549952122844,mp-1036223
K3MnF6,0.0,-2.900522648968103,mp-1111694
Li4ScFe3(SiO3)8,2.765399999999999,-2.900509585833333,mp-766037
CaMn3Zn(SiO3)5,2.8848000000000003,-2.900469337951724,mp-1195724
Y2MnFeO6,0.8599000000000001,-2.900460739293103,mp-1216171
Ti5Mn(PO4)6,0.0,-2.9004378061793012,mp-777450
Y3VH3O8,2.3493,-2.900394860583333,mp-1192654
La3VH3O8,2.2922,-2.900312118583333,mp-1194534
Sr2WO5,3.1883,-2.900101233124999,mp-772676
Ti12Fe5O32,0.0,-2.899922224081633,mp-773026
CsRbMnF6,3.3815,-2.8998884116762462,mp-1228944
SrCa7Ti3Mn5O23,0.0,-2.899837996593723,mp-1247639
Ba2CaV2(P2O9)2,1.9504,-2.8997731040211643,mp-1363137
MgTiV(PO4)3,1.431699999999999,-2.899686340958994,mp-1044309
UCr2O6,1.0302,-2.899558374444443,mp-22172
Li2FeF4,3.594099999999999,-2.8994305263095232,mp-849283
Li3VOF6,3.2009,-2.899429912272727,mp-759965
BaMg30NiO32,3.0784,-2.89910269109375,mp-1036835
CaTi4(FeO4)3,1.6248,-2.8990401529166663,mp-20986
SrTiFe(PO4)3,2.2352,-2.8989516217923272,mp-695093
Ca4Mn2Al2O11,0.0,-2.898616175308529,mp-1227726
Sr2EuVO6,0.0,-2.898513376500001,mp-1521428
Mg14AlCrO16,0.0,-2.8982261612499998,mp-1036586
SrTb2Fe2O7,1.1701,-2.898120952777777,mp-540740
Rb2FeF5,2.8688,-2.898034175312505,mp-28600
Ba2Ti4Fe2O13,1.086199999999999,-2.897617218492064,mp-1214656
V3OF11,1.9550999999999992,-2.897565248666666,mp-777723
LiTi4VO8,0.0,-2.897457982619048,mp-753565
Rb2Si5NiO12,3.8268,-2.8974196653749993,mp-1195212
SrCrP2O7,3.1321,-2.896869574935065,mp-1179211
MgTiCr(PO4)3,2.4548,-2.896806376792327,mp-1044303
Li3Ti3CrO8,0.0,-2.896799700666667,mp-755762
Li3Mn2F9,2.0503,-2.896742682204434,mp-754135
SrEuDyMnO6,0.0,-2.896691844459771,mp-1517910
Cs3FeF6,4.0085,-2.89650030189655,mp-1205629
YMg14CrO16,0.0,-2.8964391600000012,mp-1035956
La7SmV7CrO20,0.2233,-2.896425323402779,mp-1076889
RbMg30MnO32,1.995,-2.896410836647359,mp-1038023
Rb3MnF6,0.0,-2.896340527043103,mp-1113828
CaTiFe(PO4)3,0.0,-2.896108553736772,mp-39160
Ba2NbFeO6,1.455,-2.8955537204999993,mp-1021504
Ca2Cr2(SiO4)3,0.5882000000000001,-2.895308753289473,mp-1250467
Mg30FeSnO32,1.6793,-2.895303309921875,mp-1036955
La2ZnCrO6,0.9615,-2.895180879999999,mp-1410247
Mg14AlVO16,0.0,-2.8949935596875003,mp-1036641
Li4Mn2OF7,0.9575,-2.8949881152996713,mp-753323
CaNiF5,0.0,-2.894890377857142,mp-1389691
Dy2W2O9,3.1769,-2.894723222179486,mp-772682
RbCrF3,0.9717,-2.8946429765,mp-1206325
Mg10FeO11,3.2225,-2.8944552545454543,mp-753206
Li3V4P2O8F9,1.9855,-2.89439697804945,mp-758610
V2Si2O7,1.8045,-2.894371363181818,mp-1273857
K2MnF6,3.3143,-2.894356403047892,mp-560127
KMg30WO32,2.9611,-2.894347626832031,mp-1040243
SrEuYCrO6,0.0,-2.8941332185,mp-1519529
Mg30CoBO32,2.088000000000001,-2.894089935143229,mp-1036995
Ba3VO5,1.2467,-2.894078152777777,mp-1214496
CaLa3Mn4O12,0.0,-2.8939826793362062,mp-1227182
CaLaCrMoO6,1.5053,-2.893946270500001,mp-1048863
NaCr(SiO3)2,3.0616,-2.893855338637935,mp-19367
MgMn4(Si4O11)2,0.693499999999999,-2.893796438763546,mp-1234076
NaSrYWO6,2.8804,-2.893746595137931,mp-1522178
Sr3UFe2O9,0.8969,-2.893624590999999,mp-1218655
Li3La3(MoO6)2,2.8495,-2.89354564875,mp-1185315
BaNaGdWO6,2.8728,-2.8934589121379313,mp-1516849
Dy2Mn2O7,0.9041,-2.893416257199581,mp-755869
Sr3LaMn2O8,0.0,-2.8932285089901493,mp-1218441
KBaNdWO6,2.8191,-2.893126229475,mp-1521867
CaLa3Mn4O10,0.9226999999999992,-2.892719701206897,mp-1227476
BaMg30CoO32,2.210099999999999,-2.89271726125,mp-1037023
Li6Mn2OF11,1.1246,-2.892709508793104,mp-754082
PuVO3,0.0,-2.892695518749998,mp-1209729
La4SmMn5O15,0.0,-2.892615965186209,mp-1223203
La9Mn10O30,0.0,-2.892592470292049,mp-758449
NaLaMgWO6,3.5197000000000003,-2.892416510137931,mp-1173567
Sr2TaCoO6,1.6183,-2.892238627733334,mp-1283831
Na3FeF6,3.1439,-2.892234818913793,mp-560311
Cs3MnF7,1.5495,-2.892172022899687,mp-17040
BaEuYCrO6,0.0,-2.8921163335,mp-1517793
SrNdMgWO6,0.0,-2.89202198725,mp-1523147
LiV3O3F7,1.215,-2.891967237380952,mp-1176719
LiMg14FeO16,2.6398,-2.891903034791666,mp-1035435
KMg30CoO32,2.0677,-2.8918901215195323,mp-1037121
SrMg14VO16,3.280299999999999,-2.8917608487499993,mp-1034472
NaAl6Fe3Si6B3H3O30F,3.5914,-2.891713858257157,mp-863003
KRbMnF6,3.343499999999999,-2.891623081409003,mp-1223322
Ba8V7O22,0.0,-2.8913964970270283,mp-28902
Mg14MnAlO16,0.0,-2.891239595872845,mp-1036650
Hf3Ni(OF)6,0.0,-2.891145830624999,mp-1236837
Cs2TlCrF6,4.1533,-2.8909923052643682,mp-1112495
Ca8Ti3Mn5O24,0.5853,-2.8908757264288782,mp-1247605
SrLa3Mn4O12,0.0,-2.890818365336207,mp-1218257
K3Nb6VO19,2.3407,-2.890759890577585,mp-561406
CaLaCrWO6,1.852599999999999,-2.890700132,mp-1048921
LaMgVCrO6,1.3575,-2.8906128344999993,mp-1044888
Ta2NiO6,0.0,-2.890584630518518,mp-32308
Mg14TiCrO16,0.095399999999999,-2.8900997666666672,mp-1034067
Sr2FeO3F,0.626,-2.890080845357141,mp-1218828
BaCrP2O7,0.0343,-2.889971435389609,mp-19110
Rb3MnF7,1.664599999999999,-2.889913092766458,mp-18408
YMg14NiO16,0.8548,-2.8899079678125,mp-1036049
Sr2ZrFeO6,0.0,-2.889830738999999,mp-1520386
K3RbMn2F12,3.37,-2.889779838061781,mp-1223892
BaNa2Fe4F12,3.1752,-2.889654381197822,mp-1227924
Mg2Mn(PO4)2,3.5063,-2.889421271324377,mp-555215
CsMnFeF6,1.1137,-2.889407558065134,mp-1228982
La3SmCr2(FeO6)2,0.9318,-2.889261157,mp-1076611
TaVO5,2.171999999999999,-2.889145934976198,mp-18137
Li2Mn2Si4O11,3.181699999999999,-2.889119506975197,mp-767711
Ca2TaCoO6,0.361199999999999,-2.889074560233333,mp-1377373
Mg30NiSnO32,1.5501,-2.889019156796874,mp-1036900
Ti2Co(PO5)2,1.9118,-2.888954799896824,mp-562797
MgV2(OF)3,1.3275,-2.888940003888889,mp-2217147
TmFeO3,0.0,-2.888833371666667,mp-558400
Mg21FeSi12(HO16)3,1.6845999999999992,-2.888747536808823,mp-743959
Sm2Mn2O5,0.0,-2.88854042565134,mp-1076289
Mg14VZnO16,3.242400000000001,-2.8884619478125,mp-1035195
YMoO3,2.2163,-2.888439059000001,mp-1379411
BaEuDyMnO6,0.0,-2.888322498459771,mp-1520404
LiV2O2F3,1.591799999999999,-2.8882940591666673,mp-753928
CaLaVFeO6,0.0,-2.888186702,mp-1043924
Ca2Nb2CoO8,2.8628,-2.888177294230769,mp-1047021
Al2V3(SiO4)3,2.0694,-2.888095515374999,mp-1163942
Ba4Nd4Ti3Mn(Cu2O11)2,0.0,-2.888055393103448,mp-1228289
Ba3UFe2O9,1.0145,-2.888044190999998,mp-1228523
CsRb2MoF6,3.0636,-2.8877340684655173,mp-1111457
LiMgCoF6,2.4806,-2.887573356481481,mp-1222326
Mg14AlFeO16,0.172199999999999,-2.887209540624999,mp-1036658
K2RbMoF6,3.0563,-2.887130868199999,mp-1110666
MgTiMnO4,2.2124,-2.887004985180625,mp-2227189
CaMg6VO8,3.793800000000001,-2.8868780737499993,mp-1032997
Li4MnOF5,0.7646000000000001,-2.886752946024033,mp-759491
Eu2NbFeO6,0.0,-2.8866740520000023,mp-1516596
Ti5Cr(PO4)6,0.0,-2.8865952026256623,mp-776640
BaNaCeWO6,0.5205999999999991,-2.88655321863793,mp-1520136
Ba3SrCa2(MoO6)2,2.2648,-2.886514551499999,mp-1228050
LiTiCrO4,1.751399999999999,-2.88641666845238,mp-756275
HfV2O7,2.7436,-2.886355527249998,mp-505679
SrLa3Mn4O10,0.8902000000000001,-2.886313503429118,mp-1218306
Sr10Mg5Mo4WO30,2.379499999999999,-2.886149864099999,mp-1218905
Cs2FeF5,0.0,-2.886040013976293,mp-1213714
Li2Fe(Si2O5)2,3.3375,-2.8858837139215683,mp-772589
Nb4VO12,1.878099999999999,-2.885376982352941,mp-753925
Mg14TiCoO16,0.4521,-2.885222885729166,mp-1035127
La7SmMn7CuO20,0.0,-2.8850790566810343,mp-1076513
Al2CoO4,0.0,-2.885069807857142,mp-532094
LaCo(BO2)5,3.1157,-2.884990487254901,mp-19475
Mg30CoSnO32,0.239099999999999,-2.884891352421875,mp-1037255
KSrLaWO6,2.9551,-2.8846842589749992,mp-1522351
Sr4NbCoO8,1.4473,-2.884232578571429,mp-1218456
Mg30MnBO32,0.450999999999999,-2.8839768629234013,mp-1098739
LiTi3V(PO4)6,1.2387,-2.883943482891156,mp-757374
Li2Cr2(Si2O5)3,1.6803,-2.883879410166665,mp-773023
Mg14VCrO16,2.197000000000001,-2.8836373390625,mp-1034527
Ca3Ta6(FeO6)4,2.770299999999999,-2.883633676054053,mp-1043066
La2MgVZnO6,1.1763,-2.883629459545455,mp-2240439
SrMg14MnO16,1.8978,-2.883552466810344,mp-1036160
SrMgFe(PO4)2,3.917899999999999,-2.883503197637361,mp-1046445
Li2Fe(Si2O5)3,0.0,-2.883397132256944,mp-775303
BaSrNbWO6,0.8734000000000001,-2.883098155,mp-1519649
Mg30CrBO32,0.174599999999999,-2.883092538424478,mp-1038513
MgV4O5F7,1.3792,-2.882799425588235,mp-2224803
SrCa7Ti3Mn5O24,0.528299999999999,-2.882794022991379,mp-1247714
Mg3AlFe(SiO4)3,2.450999999999999,-2.8827627802499998,mp-699146
Tb2Mn2O7,1.1024,-2.882692812199581,mp-754207
NaMg14MnO16,0.9006999999999991,-2.882440313103448,mp-1036133
Ti2Ni(PO5)2,3.042,-2.882407713396826,mp-18281
TiAlFeO5,1.6263,-2.882356848541667,mp-1217055
La2Cr2O5,0.0,-2.882088619444445,mp-1097715
Sm2Mo2O7,0.0,-2.8820770345454623,mp-554770
Li2CrSi4O11,0.528,-2.88168866175926,mp-758359
La7SmMn7FeO24,0.0,-2.881350152637932,mp-1076792
LiMnFeF6,2.4344,-2.881047644584929,mp-22200
Ca5Nb4(CoO9)2,1.5737,-2.881040867068965,mp-1324889
Mg30FeBO32,0.0,-2.880783265299479,mp-1037542
Cr4OF11,0.0,-2.880685939375,mp-776505
Sr2TiFeO6,0.0,-2.8805394425833333,mp-1218692
CaMnB2O5,3.3848000000000003,-2.880527788890484,mp-555385
Li2V3O3F5,1.3165,-2.880481744358974,mp-764201
SrCePrCoO6,1.8113,-2.880371544166667,mp-1523044
SrLa3(NiO4)2,0.457599999999999,-2.880347894642857,mp-1218254
Mg14MnCrO16,1.094799999999999,-2.880337177122844,mp-1036104
Li4V2Si4O13,2.1984999999999992,-2.880181918514492,mp-850217
CsNbNi(OF2)2,3.056499999999999,-2.879954609961684,mp-684827
Gd2Mo2O7,0.0,-2.879818378636373,mp-642754
RbMg30FeO32,2.411799999999999,-2.879805236367187,mp-1037596
Li4Ti5Mn3O16,0.410699999999999,-2.8797325872783253,mp-777417
Er2FeSbO7,1.5915,-2.879694602272727,mp-1225637
NaCaHfWO6,0.0,-2.87953496413793,mp-1516390
Mg14MnZnO16,1.7804000000000002,-2.879416433060345,mp-1036184
CaNdFeO4,0.0,-2.8793390846428553,mp-1227142
Ca2Nb2NiO8,3.1347,-2.8793179292307682,mp-1047012
MgV2P2(O4F)2,2.0141,-2.8793174656190472,mp-2224838
BaNaSmWO6,2.92,-2.879206350137932,mp-1516632
CaEuV2O6,0.0,-2.8790875225,mp-1518366
SrVO3,0.0,-2.878867755,mp-18717
Ti3P6WO24,2.5297,-2.878812087584031,mp-775198
Li4Y3FeO8,2.708999999999999,-2.8787974120833333,mp-756449
NaEuDyWO6,0.317599999999999,-2.878617618804598,mp-1519154
Li2Mn7F18,0.7303000000000001,-2.8786068982290343,mp-753981
Li4Ti3Nb2V3O16,0.0,-2.8785864301190482,mp-774881
KCaDyWO6,2.8505000000000003,-2.8783435038916663,mp-1520891
MgSi4NiO10,3.2196,-2.878330605156249,mp-1043541
Ba2EuV3O11,0.035099999999999,-2.87824284382353,mp-1215052
La4MgGa2(FeO6)2,2.4268,-2.878020214285714,mp-1233257
K4Li3Nb18P12(WO42)2,0.8404,-2.877668525485482,mp-849406
La7SmMn6(FeO10)2,0.142,-2.877551322710728,mp-1076797
Sr2NbWO6,0.7211999999999991,-2.877325457,mp-1517644
Lu2MnCoO6,0.0,-2.877298819126436,mp-1247738
Ca3NdMn2O8,0.0,-2.8772441059544343,mp-1227690
La2ZnMoO6,1.5064000000000002,-2.876989743,mp-1407332
Dy3VH3O8,2.3987,-2.876986805916666,mp-1225720
Li2Mn3(Si3O8)2,3.0588,-2.87671320112814,mp-766967
CaFe2(SiO3)4,1.8920999999999992,-2.876457403684211,mp-1171010
Al2CrO5,0.036599999999999,-2.876227499375,mp-773505
Er2MgCr2O8,1.0419,-2.875862371153846,mp-2218803
Sr7W4O19,3.114099999999999,-2.8757239845,mp-768610
La8Mn9O27,0.0,-2.8756121162813493,mp-698617
MgV6O5F19,1.133,-2.875593984032258,mp-2220694
Ba2La2MgMn(WO6)2,2.264599999999999,-2.875573709146551,mp-2230028
KSmEuWO6,0.163899999999999,-2.8755386557250002,mp-1519009
YMg14FeO16,0.0,-2.875369684999999,mp-1036118
Na2VCoF7,2.3694,-2.875320869568966,mp-1180838
RbCrF5,0.178699999999999,-2.875133582142837,mp-559677
Mg14TiFeO16,0.142599999999999,-2.874906876666666,mp-1035770
SrCaNbFeO6,1.7541000000000002,-2.874870919999999,mp-1519250
BaZnCoF7,1.6673,-2.87486017925,mp-1047922
La7Mn8O24,0.0,-2.8748389500884173,mp-530585
Mg14TiNiO16,0.062999999999999,-2.874608901041667,mp-1034893
SrVPO6,2.4421,-2.8744512544047622,mp-17502
Na6TiMn(SiO3)6,2.804599999999999,-2.8744170074856332,mp-40374
KBaPrWO6,2.8123,-2.874132157891666,mp-1523149
La6Sm2V5Cr3O20,0.158399999999999,-2.874061882847224,mp-1099931
TiV(PO4)2,0.148899999999999,-2.874028041607143,mp-850923
BaTiMnNbO6,0.0,-2.873968581126438,mp-1516399
Ti5Fe(PO4)6,0.0,-2.873914445681216,mp-1101277
UFeO4,0.7501999999999991,-2.873807404999998,mp-504549
Sr2La14Mg4(Fe4O15)3,0.0,-2.8737913304545453,mp-1173278
Sr3La2Mn6(O2F)6,0.0,-2.873615143365041,mp-1173236
Sr2DyCrO6,0.0,-2.8735830421666653,mp-1517166
Li3Mn5OF11,2.2314,-2.873562903482759,mp-760153
HoCo(BO2)5,3.124999999999999,-2.873404687254902,mp-19465