formula,bg,formation_energy,mp-id
LiZn2Fe9O16,1.5292,-1.68294542297619,mp-773576
MgCo12(BO5)4,0.0,-1.682912842477478,mp-1234270
MgCr2(NiO4)2,0.766899999999999,-1.68279702576923,mp-2218395
Na2Cr4O13,1.9232,-1.682636018829401,mp-780184
K2NaFeO3,0.0,-1.6825733504827591,mp-560924
CoSnH12(OF)6,0.0,-1.682546520769231,mp-24003
FeH2SO5,3.1761,-1.682527692777777,mp-643564
Li4Mn3Co5O16,0.1989,-1.682524222397374,mp-754275
Mn3Fe8CuO16,0.0,-1.682522585135469,mp-1221984
LaYFe2(AsO)2,0.0,-1.6824665525,mp-1222786
Fe2P2H9NO11,2.569,-1.682422592021428,mp-23881
K2Li2CoO4,1.2831,-1.68242217762963,mp-761245
SrCoBiRuO6,0.0,-1.6823879875,mp-743579
Rb2MgFe4O7,1.6873,-1.682385886071428,mp-2227668
VH3CO5,2.8555,-1.682298784375001,mp-1207864
Li2Mn3(CoO4)3,1.0851,-1.682250485022988,mp-754774
Na3MgVH6O7,1.5443,-1.682204822313218,mp-2228859
Mn3Fe3(SbO8)2,0.0,-1.6821684793247131,mp-775891
CrBi8O15,1.96,-1.6820955546875,mp-705013
PrZn(NiO3)2,0.0,-1.6820773966666671,mp-1044787
ZnFeAsO5,1.9675,-1.682058298437501,mp-1047105
KNa2FeO3,0.5024000000000001,-1.681918880715516,mp-504863
BaCaMn4O12,0.0,-1.6814383395402301,mp-1522423
LaFe4(CuO4)3,0.0,-1.68143263775,mp-1105546
CaEuMn4O12,0.0,-1.681421205373564,mp-1516447
Cr19O48,0.3451,-1.681366412388059,mp-780521
KV5Co(H8O11)2,2.052499999999999,-1.6812920321611111,mp-776014
Li4Co3NiO8,0.0,-1.6812442852083331,mp-867537
K4Fe2O5,0.7339000000000001,-1.681025150363636,mp-553960
LiLaMn4O12,0.0,-1.680964478336526,mp-1523240
Sm6Fe6As6O5F,0.0,-1.680853028125,mp-697821
CaZnFe(AsO5)2,0.0,-1.680484676333333,mp-1227168
Mn5As4(HO2)10,1.725499999999999,-1.68034827928603,mp-1204184
Zn4CoO5,0.329499999999999,-1.680190324999999,mp-1215675
Li4Co3Ni2Sn3O16,0.8715,-1.680146877083333,mp-774657
MnTe2O5,1.7152,-1.6801198735955452,mp-16994
InNi2SbO6,0.0,-1.680116531666666,mp-1078367
Rb2W2O5,0.0,-1.680029902777778,mp-1075937
Fe3P4H8NO12,1.7257,-1.680019313520408,mp-1204707
Na2FeH8(SO6)2,4.2919,-1.679997243310345,mp-1196027
Fe2Sb3PbO8,1.1471999999999989,-1.679995478214284,mp-1224921
MgCoBiO5,0.4618,-1.67971569375,mp-1044230
MgFe2P2(HO)18,2.4065,-1.679564737970384,mp-24752
Fe2Mo3O8,0.2673,-1.679521808461539,mp-504974
NaSbWO7,0.0,-1.67946287913793,mp-1220907
Li10Fe21O32,0.0,-1.6794561578306881,mp-685404
SmCoAsO,0.0,-1.679240515625,mp-1091397
SrFeAsF,0.0,-1.6791817606250001,mp-20807
Li2MgCo3O8,0.0,-1.679007737976189,mp-1177928
Ba2W(CO2)4,0.0817,-1.6785711823333331,mp-1214683
Mn2CuO4,0.0,-1.67853715726601,mp-1275201
VZn2IO7,2.7456,-1.678447349090908,mp-1190901
KNaMnO2,0.274499999999999,-1.6784093433120681,mp-559242
ZrW2ClO10,0.0,-1.678398630535713,mp-1215850
MgAg6Mo10O33,1.3099,-1.678372458799999,mp-1234022
BaInFe4O7,0.0,-1.678128930897435,mp-1214344
Cu3(WO3)4,0.0,-1.67799205736842,mp-1043077
Mg3Fe2H4(Se3O10)2,2.1885,-1.6779201326875,mp-1210726
LiCoBP2H2O11,0.000899999999999,-1.6779020835714271,mp-1238728
Mn5FeO12,0.003299999999999,-1.67789142775862,mp-755276
KVH2SeO7,2.5911,-1.6777881785078121,mp-1196510
MgMn4(CoO6)2,0.9328,-1.677458507722323,mp-1234536
Li5Fe3(CuO5)2,0.3148,-1.677047829333332,mp-755996
Li8Co3NiO8,1.9892,-1.677025192333333,mp-761167
MoC4(O2F3)2,1.4749,-1.676972330333333,mp-1210779
Mn5H8SO12,1.8172,-1.676819181429044,mp-1196354
K4H6W2S2O9,4.039,-1.6767468115869562,mp-1195712
Mn3AsO8,0.0,-1.6766886353160921,mp-1203335
Cs6Mo4C10S2O27,0.0756,-1.676655798019002,mp-1204705
MnFe3(BiO3)4,0.9373,-1.6765853173965521,mp-1221875
V(Bi5O8)5,1.875699999999999,-1.676529137727273,mp-767265
Cs2Cr4Cd(HO4)4,2.7195,-1.676280052752235,mp-572375
NaFe3O5,1.5371,-1.676120402653257,mp-505170
CaMn3Cu3RuO12,0.0,-1.676032143189655,mp-1227263
Rb3CoNCl4O3,2.7487,-1.675575098333334,mp-562140
CrP2H15O14,3.6413,-1.675151581501115,mp-1201441
K2ZnCr4(HO4)4,2.5866,-1.67501230961111,mp-697882
Li4FeCo3O8,0.9578,-1.674998190833332,mp-754123
InMoHSeO7,3.139599999999999,-1.6749758018418541,mp-1205217
Li2Fe2CoO6,0.122499999999999,-1.674955500606061,mp-759337
AlNiH16N(OF)6,5.667,-1.6749279570967741,mp-773092
V2ZnP3NO15,0.112999999999999,-1.674890587792208,mp-1198608
SiMoO3,0.0,-1.674858800999999,mp-1186997
KV3Cu5O13,0.0,-1.674848186238636,mp-563041
Eu2Mo3H2Se2O17,0.0211,-1.6742870475841352,mp-1198444
Fe2C2O7,2.1604,-1.673975420151514,mp-759204
LiFe3O4,0.010499999999999,-1.673903765416666,mp-1176726
Fe4Bi2O9,1.2366,-1.673642153333334,mp-504615
Li2MnCo3O8,0.0,-1.673545006578407,mp-761940
Fe2O3F,0.0,-1.673459979166666,mp-758871
FeRe(PbO3)2,0.0,-1.673228283249999,mp-1280283
Li4Ni3O6F,0.0,-1.673040534166666,mp-761276
NaFe3H6(SO7)2,1.882,-1.673020333226126,mp-604429
FeBiO3,1.279099999999999,-1.672776781,mp-23501
MgCr2(CuO4)2,0.0,-1.672737195576923,mp-1935909
Zn2Ag2(MoO4)3,2.2162,-1.672670070701755,mp-1215766
NaFe(TeO3)2,2.1497,-1.672579363346264,mp-556373
Cr(Bi7O12)2,2.019199999999999,-1.672403235128204,mp-698567
MnCo5(BO5)2,0.8859999999999991,-1.6723489261813531,mp-1221855
Li3Mn(CoO2)4,0.0,-1.6722030473706901,mp-756302
Ba(Fe2O3)9,0.049599999999999,-1.672092407934782,mp-566548
KCo2As2HO8,2.0002,-1.6718926427500012,mp-746371
CsNa5(FeO3)2,2.2614,-1.671831762789409,mp-1226173
Y2(NiO3)3,0.0879,-1.671723939464286,mp-1349550
Np2CoH8F10,0.0,-1.671696983214286,mp-1210419
KCrO3,0.0,-1.671608068449999,mp-1076732
VZn2IrO6,0.2539,-1.6715305805,mp-1047088
BaFe2(SeO3)4,1.8294,-1.671514027072368,mp-561035
CoReO4,0.0,-1.671448755416667,mp-28783
Sr2Fe23O38,0.0461,-1.671427624285714,mp-1101422
NaCo2As3O10,1.1586,-1.671203278367457,mp-1194999
Li4Co5SnO12,0.0,-1.671033330378788,mp-756712
Li4Co5SbO12,0.0,-1.670971776515151,mp-757593
Tl3VO4,2.5955,-1.670863315000004,mp-29047
LiZn4Fe13O24,1.4592,-1.670665333174602,mp-769606
Li2Co3SnO8,0.024,-1.6706470574404761,mp-757875
MoHO3,0.7623000000000001,-1.67037852725,mp-1221516
Na5CrO4,0.6585999999999991,-1.670308815564655,mp-780700
CoTeMoO6,1.847299999999999,-1.670296165185186,mp-551806
K2Co(B2O5)6,0.049199999999999,-1.6702699901,mp-1181383
CrCo4SbO8,0.9159,-1.670023434285714,mp-1226307
Zn3Co4(SbO6)2,0.347099999999999,-1.670018547380951,mp-1216036
Fe13Si2(SbO14)2,0.016899999999999,-1.6694336248888881,mp-1251404
Cr3CuO8,0.488799999999999,-1.669175770833333,mp-546035
K2Be2Co(O3F4)2,0.2393,-1.669140226552632,mp-1212259
Li4Fe3Cu3(SbO8)2,0.0,-1.6689839844047611,mp-764385
Li2Cr2H4O9,2.6274,-1.6685000233333331,mp-696441
MnFe4(BiO3)5,1.0898,-1.668177175317242,mp-1222178
Cu2W2O7,1.0255,-1.668169785454545,mp-756162
K2VCo6Cu2As5O24,0.4375,-1.6680551033,mp-1223921
GdFeAsO,0.0,-1.667817868124998,mp-1078679
Te2MoO7,2.8614,-1.667758174333332,mp-19453
BaSrMn4O12,0.0,-1.667678686206896,mp-1521375
Li4Fe5CoO12,0.0,-1.667477845606061,mp-769792
Rb2(WO4)3,0.0,-1.667107556176469,mp-1219769
Li2Ni3WO8,0.0,-1.6670057511904761,mp-771895
Li4Mn3Fe2Ni3O16,0.0,-1.666999527397373,mp-763223
Li3(FeO3)2,0.268099999999999,-1.666974289999998,mp-1177753
LiCrO3,0.0,-1.666735623666667,mp-1185311
ZnW4O9,0.0,-1.666708231785714,mp-1045120
Li10Ni4O9,0.0,-1.666692370797101,mp-1185196
LaFeBiO6,0.0,-1.666514395,mp-1044028
Li3Fe3CuO8,0.0,-1.666493389333332,mp-771398
Li2NiBiO4,0.0,-1.6663564264583342,mp-755002
Na5Mn2O8,0.0,-1.666259519183908,mp-780612
Nd5Fe5As5O4F,0.0,-1.66624099525,mp-698941
Li2Mn(SeO3)2,3.2053,-1.666186604707746,mp-1177936
Sm4Fe3Co(AsO)4,0.0,-1.665915316875,mp-1219165
V2Se3O11,2.1989,-1.665833239658202,mp-29173
CoP4H16(NO8)2,3.3299,-1.6658224079120871,mp-24300
CoCO3,0.0,-1.665704252999999,mp-21434
MnH6(SO4)4,5.2799,-1.665539751867815,mp-24071
H(WO3)2,0.2986,-1.6653552401388891,mp-34047
Li3Cr(CoO2)4,0.0,-1.6652934787499991,mp-756763
NaTbMn4O12,0.0,-1.665277222209451,mp-1518776
Na3LiMo2(H6O7)2,4.6272,-1.6652624899209771,mp-735483
CaZn2(FeO2)4,1.533,-1.664928548666666,mp-1233230
Na2Ni4Mo4(HO4)5,0.004599999999999,-1.66478191568596,mp-1173788
Li(Fe2O3)4,1.0797,-1.664684317063492,mp-758077
Nd4Fe4As4O3F,0.0,-1.664530002499998,mp-1220250
SmFeAsO,0.0,-1.664398180625001,mp-20349
Ca(Fe2O3)4,1.1096,-1.664279626190476,mp-1233089
Na3V5(H12O13)2,2.4485,-1.664188019123068,mp-1199993
VPb2Se2ClO8,1.5448,-1.664115679977678,mp-1192566
MoPb5O8,2.5574,-1.6640317466071401,mp-652366
Na4Mg(Fe2O5)2,0.0,-1.6640009047640651,mp-2230090
MnAs3(PbO3)3,1.8608,-1.663995195964439,mp-818613
NaMgFe5O8,1.3295,-1.663991655758621,mp-2232356
NaSmMn4O12,0.0,-1.663990552116858,mp-1521735
KFeS2O9,0.1805,-1.6639351163269231,mp-1192804
Na5MnO4,1.1895,-1.663826793232758,mp-28262
Mn4CuO8,0.0,-1.663771862440319,mp-756265
YFe4(CuO4)3,0.0,-1.663587358999999,mp-1045770
RbFe3O5,0.0,-1.663570134166666,mp-769468
Mo3(AsO4)4,1.4909,-1.6635388921739132,mp-1041702
Na5CoCO5,1.3959,-1.663446971408046,mp-1221135
K4Mo3H4O17,2.442199999999999,-1.663219581035713,mp-735596
K2Li3NiO4,1.8411,-1.66320836995,mp-774432
K7Mo12H31Pt2O59,2.5534,-1.663126097788288,mp-1225875
Rb2Be2Co(O3F4)2,0.2145,-1.66309605605263,mp-1209794
MnAsH2O5,2.2527,-1.6629240742145601,mp-24550
FeRe2(H2O3)4,2.683799999999999,-1.6628104228260872,mp-1191971
Rb4Co(PO4)6,0.008599999999999,-1.662736440510203,mp-1203531
Mn5CoO12,1.4001,-1.66249029275862,mp-755555
Li4Ni5Sb3O16,0.0,-1.662304684047619,mp-762510
Ni2GeO4,2.1356,-1.662257669999998,mp-22638
Na7Cr2O6,0.201,-1.662248494643678,mp-831182
Ca(NiO2)2,0.0,-1.662092417499998,mp-1372361
V2Cu3H24(OF)12,0.008199999999999,-1.661529099245282,mp-504939
TiCu2NiO4,0.0,-1.661521622916667,mp-1216924
SrSm(FeO3)4,0.0,-1.661333336944444,mp-1521076
LiZn6Fe17O32,1.380199999999999,-1.661163111130951,mp-771348
Li4Co3Cu2Sb3O16,0.0,-1.661013059761905,mp-763275
NiP4H16(NO8)2,4.443,-1.6608718573992671,mp-758839
LiNiCO4,0.5741,-1.6608340876190482,mp-757976
NaNdMn4O12,0.0,-1.660738787255747,mp-1519099
Mn3Sb5(IO3)3,0.7864000000000001,-1.660590790439648,mp-1196009
Zn3Cr6(FeO6)4,0.1932,-1.660517430810811,mp-1360264
K2MnH4(Cl2O)2,3.6477,-1.660481615187002,mp-42264
Na3MgCo2SbO6,1.7785000000000002,-1.6603761945490711,mp-2218348
K5UCr3H3NO17,1.7000000000000002,-1.660263595416666,mp-1213511
SrFe2(SeO3)4,2.3881,-1.66005141680921,mp-560149
CsLi7(NiO3)2,2.4418,-1.65990850893678,mp-754136
Na8Fe2O7,2.109099999999999,-1.659875048296146,mp-27557
Mn3BiO8,0.4614,-1.659580706982758,mp-773037
ThCr2O10,0.0,-1.6595556276923071,mp-1209755
K4Li3(FeO4)2,0.1298,-1.659533854941176,mp-758588
Li5Fe2Ni3O10,0.0,-1.659332495833332,mp-755824
ZnNi2(PO5)2,0.0,-1.659307069619047,mp-1044127
MnMoO5,0.0,-1.659267693990148,mp-1105000
Fe4As10PbO22,1.7469,-1.659244507297297,mp-735662
MgHg2(MoO4)2,1.1328,-1.6590847184615392,mp-2226950
Mn2Zn2O5,0.0,-1.659031935095785,mp-1373342
Tl2MoO4,3.462799999999999,-1.659020907380958,mp-18938
Li3Co2NiO6,0.0,-1.658954482499999,mp-765538
K2V4Zn5O20,0.0,-1.658789477887097,mp-863831
Fe4As2O11,0.7292000000000001,-1.658691507647059,mp-29472
Fe5SnO8,0.0,-1.658565361071429,mp-690495
Mn3Co3(TeO6)2,1.444999999999999,-1.658514854856322,mp-1221822
Zn3Ni4(SbO6)2,1.1224,-1.658493511190476,mp-1216023
Fe(BO)6,0.5643,-1.6584355319230761,mp-1213438
Li5Mn(Ni2O5)2,0.0,-1.6582211182298852,mp-850209
Bi28Mo2O47,0.9457,-1.6581430134415591,mp-698611
Mg(Fe2O3)4,1.130499999999999,-1.658035318333333,mp-1234465
Ni2P2O9,0.0,-1.658025806675824,mp-1044234
Mg5Co19O32,0.0,-1.6579286734821421,mp-767791
Li2FeH8(SO6)2,3.809899999999999,-1.657894786466666,mp-778185
Li4Co3Cu3(WO8)2,0.0,-1.657765835833334,mp-758255
NdEu(FeO3)4,0.0,-1.657669220694445,mp-1523256
Cu4MoW3O16,0.0,-1.65761638625,mp-1225898
Na2CrH5C4O11,3.2211,-1.657319966478636,mp-1211082
Li4Fe3Ni3(SnO8)2,0.0,-1.657284767261904,mp-774855
Ti2CrIn3O6,0.0,-1.657097750555554,mp-1217256
Co3Te2(PO7)2,0.0,-1.657059791077097,mp-1190932
SmMgNiO3,0.0,-1.656895702500001,mp-2223038
ZnFe4CoO8,1.5231,-1.656888559285714,mp-1215623
MnCd2TeO6,0.0,-1.6566824492097691,mp-1221792
LiCo2(CO3)3,0.4269,-1.6565528895555561,mp-757952
MgMnHO2,0.0,-1.6563826988362071,mp-2225371
BaInCo4O7,0.0,-1.6562846970512821,mp-22402
V2Cu3O8,0.1159,-1.656074128461539,mp-504747
MgMo2(IrO6)2,0.0,-1.656049296764706,mp-2229029
MnMoH2SeO7,1.8798,-1.656038892731232,mp-1192298
KMn5(SeO3)6,0.4471,-1.655964202365588,mp-557389
Co2Mo3O8,0.0,-1.655926108461538,mp-17824
Li5(CoO2)4,0.6302999999999991,-1.6558411589215691,mp-760135
Na2CoH8(SO6)2,3.3006,-1.6557930321103451,mp-23689
Co2GeO4,0.0,-1.655759844285714,mp-548805
MgV5H20NO22,2.501,-1.655719840306122,mp-1204069
Mo2PbSe2O11,2.476,-1.655535522480468,mp-1204412
Li4CrCo5O12,0.163899999999999,-1.6554769937878782,mp-771079
Li3Cr(NiO2)4,0.0,-1.655373253749999,mp-756352
Na2NiH8(SO6)2,4.58,-1.655324263110344,mp-510526
Cs2MnH12(SO7)2,4.2046,-1.655221392653029,mp-1197828
Rb3MnO3,1.3497,-1.655166975775862,mp-553971
MnPbO3,0.0,-1.655090434586205,mp-1188613
Mn4Zn3H10(CO8)2,2.1956,-1.65504466412069,mp-1210812
Fe4As5O13,1.7174999999999991,-1.654980923295453,mp-28519
V2Fe(CuO2)3,0.6603,-1.6548838191666662,mp-1216789
Na3Co2(GeO4)3,0.0,-1.654868050081896,mp-1013794
Li10Fe2Co3Ni3O16,0.0,-1.654856339803922,mp-779007
ZnCuW2O7,0.630999999999999,-1.6547390672727271,mp-1328687
Li4Cr2Ni5O12,0.0,-1.654639803188405,mp-780469
RbCrH4(C2O5)2,3.2694,-1.6545978981249991,mp-752822
CrPtO2,0.0,-1.654502145625,mp-755584
MgFe2(ClO)2,1.4053,-1.654375060714285,mp-2242040
NiCO3,0.0,-1.6542193050000011,mp-19147
NdCoAsO,0.0,-1.65406465375,mp-1086665
V13O16,0.0,-1.6539971739655182,mp-30065
V2P2NO11,0.9777,-1.6538594885491051,mp-834376
Mn13Fe3O32,0.0,-1.6538426261063222,mp-771188
CaNiBiO5,1.0234,-1.6537683959375,mp-1044575
Na2MgMn2O8,0.4516,-1.653623855663129,mp-2219449
FeAg(SO4)2,1.6382999999999992,-1.653559416388888,mp-1212721
CoBiAsO5,2.0761,-1.6534395684375,mp-1105091
Rb4Mg(FeO2)4,1.6821000000000002,-1.653285808529411,mp-2228930
V3Co10AsO20,1.5644,-1.653237573897059,mp-1208112
LiZn(Fe5O8)2,0.0,-1.6532269947619052,mp-756921
Ni3TeMo2O11,2.6087,-1.6531619348039222,mp-557988
Na5Fe11O16,0.8882999999999991,-1.653154320215517,mp-764460
BaMn2TlO6,0.0,-1.653108480419541,mp-1046464
Cs3VH8(Cl3O2)2,2.4005,-1.652601338134797,mp-644672
KBaV5(H2O7)2,0.017199999999999,-1.652568149589999,mp-1212585
In(FeO2)2,0.0,-1.6524331452380951,mp-20693
Be2NiH20N2(O3F4)2,4.9841,-1.652365674102563,mp-1198491
Cr3O8,0.5890000000000001,-1.652323716363635,mp-2220540
TlV3CdCu4O13,0.0,-1.652226397424243,mp-1208185
Mn(PbO2)2,0.9834,-1.651937781311575,mp-21823
KNi3As3O11,2.563399999999999,-1.651810094430556,mp-560548
SmMgCoO3,0.0,-1.6517607908333332,mp-2226111
MgFe2(HO2)2,1.5481,-1.651649034166665,mp-2217204
Na2FeO3,1.8938,-1.651637902959769,mp-764074
Rb2MnH12(SO7)2,3.748199999999999,-1.651496561707452,mp-1196469
LiMn5(CuO6)2,0.2438,-1.651298908649425,mp-756860
K2Mo8O13,0.0,-1.651083118673911,mp-1223708
KCrH4(C2O5)2,3.2405,-1.6510281896125,mp-1189653
MnSeO3,3.099599999999999,-1.650879934554944,mp-1202364
Li8FeCo9O20,0.147899999999999,-1.6507924738596491,mp-764865
K4Mn2H16S4O23,3.4004,-1.650788806323715,mp-698687
Li6Fe3Co5O16,0.0,-1.650502140666666,mp-759074
VP2NO8,0.0,-1.65041855764881,mp-818266
SrDy(FeO3)4,0.0,-1.6500194839814821,mp-1522927
MnCoO3,0.0,-1.6499188855862061,mp-20641
Fe7Sb10(Cl4O9)2,2.5717,-1.649865227674419,mp-1201515
K4Mo2H6S2O9,3.371699999999999,-1.649843044195652,mp-1203753
SmFe4(CuO4)3,0.0,-1.649820056249999,mp-1106008
CuMo2O7,0.0,-1.649789195166667,mp-1041732
MgMn4(NiO6)2,0.390399999999999,-1.649517768774954,mp-2231728
MgFe4(TeO6)2,1.184499999999999,-1.64946185622807,mp-2230347
NaFe5O8,1.6739,-1.649200759205665,mp-1101666
Na5MnO5,0.535099999999999,-1.648951576347963,mp-1176326
TbFe4(CuO4)3,0.0,-1.6487880873333332,mp-1105642
K2Cr4Co(HO4)4,1.9353,-1.6487220599814811,mp-601334
MgWO2,0.0,-1.648721706249999,mp-1387273
Cu3(MoO3)4,0.542399999999999,-1.648708938947369,mp-1043118
CrMoO3,0.0,-1.6484964329999992,mp-1226313
Li3V(H6O5)2,4.0668,-1.6481950975,mp-1193122
FeSO3,2.7701,-1.6480844151666671,mp-540655
HgWO4,2.2876,-1.6479435379166671,mp-19132
Zn3Fe4(SbO4)6,1.4236,-1.6478046864864861,mp-1042677
MnCdO2,0.0,-1.6477820288577592,mp-1221645
Cr2Bi28O47,1.168,-1.647639075259741,mp-685468
Li4Fe2Cu3Sn3O16,0.0,-1.64762952922619,mp-1177443
Rb2Fe4O7,0.268999999999999,-1.647522416923075,mp-768846
V2Cu2BiO8,0.0,-1.647439529999999,mp-1216874
Li3Ni4SnO8,0.0,-1.647393552812499,mp-755223
Mn4Bi3NO15,1.123899999999999,-1.647322340074963,mp-559323
NdFe4(CuO4)3,0.8729999999999991,-1.6472652043749991,mp-1189790
Na3V5H26O27,2.4488,-1.646986626010457,mp-1201033
Ni3BO5,0.0,-1.646923544351854,mp-1210020
CaDy(FeO3)4,0.0,-1.6468753423148141,mp-1519459
Ag2W2O7,1.9614,-1.646673068484848,mp-32537
ZnFe2As2(HO5)2,1.6353,-1.6466722498529411,mp-766713
DyFe4(CuO4)3,0.0,-1.646393583083332,mp-1189224
K3(Fe11O17)2,0.040399999999999,-1.646198904605933,mp-1178199
MgFe3O4,0.0,-1.645932653125,mp-1222001
VZnH14(O2F)4,2.7277,-1.645869453839285,mp-1198771
NaMn6Al3H42(SO19)2,2.931499999999999,-1.6458122370267991,mp-729027
Li3Mg(NiO2)4,0.0,-1.645796402812499,mp-756610
Li2Fe3CoO8,0.0,-1.645312888333333,mp-762142
Sm2TeMo6(H5O9)4,1.1144,-1.645309509410257,mp-1198228
MnTe(PbO3)2,1.0191,-1.64501356345977,mp-1221598
VCuO4,0.1981,-1.644716896666667,mp-25196
Rb2Mg(FeO2)2,1.3853,-1.6445313266666661,mp-2217243
LaNiPO,0.0,-1.644493762410713,mp-1079685
LiZn(FeO2)4,0.0,-1.644377749523809,mp-755444
Ba2Tl2Zn2Fe3O10,0.0,-1.64432540508772,mp-1046524
Sr2CoCu2O7,0.0,-1.6442519887499991,mp-1335753
PrFe4(CuO4)3,0.0,-1.644028250083332,mp-1105690
MgFe6O11F,0.1415,-1.6440117197368411,mp-2231383
HoFe4(CuO4)3,0.0,-1.643843274249999,mp-1106004
LiNdMn4O12,0.0,-1.643814147364305,mp-1517398
CaSm(FeO3)4,0.0,-1.643790318055555,mp-1517111
VAs2H4O9,2.2586999999999993,-1.643592170937499,mp-505074
NaFe2H3(SO4)2,1.5629,-1.643568383445582,mp-695964
NiBiAsO5,2.8781,-1.64332654625,mp-557209
Mn2Ni(BiO3)3,0.0,-1.6433235130574722,mp-1221980
MgZn2(CoO3)2,0.8180000000000001,-1.64319253590909,mp-2218075
CaCoBi2O7,0.0,-1.643177003636363,mp-1042662
Zn3As4W3O16,0.0,-1.643134396346153,mp-1041724
W2O7,0.0,-1.643046974999999,mp-1178760
KSmMn4O12,0.0,-1.643044093554119,mp-1517964
Mo3(HO5)2,0.0,-1.642940062166667,mp-626751
Ba3Co10O17,0.0,-1.642840350166667,mp-562649
Mn3FeO8,0.0,-1.642681072399425,mp-756788
RbV2PO11,0.6071000000000001,-1.6423950364761901,mp-1195080
Cs2FeH2Cl5O,2.4188,-1.642356647891849,mp-1193024
TlWO3,0.0,-1.642345367666667,mp-1187621
Fe(SbO3)4,0.0,-1.642270963529411,mp-754951
Na10Mn4O9,0.0,-1.642225616761618,mp-38089
ErFe4(CuO4)3,0.0,-1.6420564975000012,mp-1188611
ZnCuMo2O7,0.230399999999999,-1.642033243181819,mp-1041894
Li5V2Co5O12,0.4879,-1.641904887777778,mp-771251
K3VCO8,2.4179,-1.641850875134615,mp-555154
Cr3AgO8,1.2442,-1.6417160693055541,mp-546111
MgMn(CoO3)2,0.4005,-1.6413718832931041,mp-2217083
CaMg2MnFe2(P2O13)2,0.3988,-1.6412927472639571,mp-1204766
YMo3Se2ClO8,0.6000999999999991,-1.641273062979166,mp-1045584
VAgTeO5,2.607999999999999,-1.641256086354165,mp-645743
Na2Li2CoO4,0.6293000000000001,-1.641129562436143,mp-861533
BaNd(FeO3)4,0.0,-1.641026950416667,mp-1522481
CsMoIO6,2.6158,-1.640991870795019,mp-554274
Mn8O17,0.3141,-1.640940195137931,mp-1221945
KH8W(NF3)2,3.2305,-1.640878543180555,mp-1211841
MgCoPb2WO6,1.3304,-1.6408067095454542,mp-2217979
Cs2MgCr2(H6O7)2,3.2252,-1.640795080622915,mp-1215128
MgV2Cd2(CuO4)2,0.9255,-1.6407134970000001,mp-2232576
Rb4Fe2O5,0.195699999999999,-1.640588151363636,mp-559809
Fe2H6(SO5)3,2.1469,-1.640521743942307,mp-1199115
Cr3HgF6,1.1538,-1.64044621925,mp-1214307
Li14W7O32,0.0,-1.640372872012578,mp-1198827
Li3Mn(CuO3)2,0.0,-1.64030431566092,mp-756973
Li3Ni3TeO8,0.0,-1.640244211777778,mp-1177536
Ba2Co3O7,0.0,-1.6402379462499999,mp-1402976
MgInNi2SbO6,1.8513,-1.640176901060606,mp-2222766
LiMn2Cu(RuO4)2,0.0,-1.64010487494253,mp-1222666
Li4Fe5NiO12,0.061899999999999,-1.639686815606061,mp-1177537
TmFe4(CuO4)3,0.0,-1.639661040499999,mp-1189973
InFeCoO4,1.747,-1.639376057380953,mp-1224078
Li4Fe2Co3Te3O16,1.208,-1.639216601190476,mp-756964
LiPrMn4O12,0.0,-1.639124634818008,mp-1520473
Fe2TeO6,0.0,-1.638982694074073,mp-21437
Na3WNO3,3.181899999999999,-1.63887794551724,mp-1221211
CrP(HO)5,2.8716,-1.638869128199405,mp-504967
Zn9Fe15O32,0.0,-1.638741121428571,mp-766377
U2Ni2O11F12,0.0,-1.638736369814813,mp-1217729
Fe(SO4)2,0.0,-1.63868466530303,mp-771312
BaSm(FeO3)4,0.0,-1.6384976447222221,mp-1523135
Cr3(FeO6)2,1.823599999999999,-1.6381975649999991,mp-776667
V2Cu(PO7)2,0.2203,-1.63813268075188,mp-1178896
Co2SnO4,0.0,-1.637988171428572,mp-36028
VH6SO8,3.0193,-1.637931997343749,mp-1195871
Na3Fe5O8,1.156299999999999,-1.637897024789871,mp-761093