formula,bg,formation_energy,mp-id
LiMn3Al2(HO2)6,0.7946000000000001,-2.048751003942768,mp-690617
YCr3Se2ClO8,2.0598,-2.048648786645833,mp-1048488
W2O5,0.0,-2.048473410714286,mp-1392923
Ba5Co5ClO13,0.0,-2.048410437083334,mp-23580
Li6Mn3Sb3O16,0.296899999999999,-2.048221433349754,mp-771023
Li3V6Fe4(CuO12)2,0.0,-2.048156287692307,mp-772865
Li4V3Cu3(WO8)2,0.0,-2.048118113690476,mp-1177220
K3NaCr2O8,3.0529,-2.048080444152094,mp-18964
Tl4Ni7(PO4)6,3.1027,-2.048073108565622,mp-560035
Mn6PO12,0.0,-2.048049004459424,mp-26066
V18Ag7O48,0.7470000000000001,-2.048039243995434,mp-863411
Eu2NiBiO6,0.0,-2.0480072440000012,mp-1517339
Ni4(PO4)3,0.0,-2.047995484417292,mp-26512
Li4Ti3Mn2Ni3O16,0.027899999999999,-2.047942308542692,mp-771397
BaCoO3,0.0,-2.047858012,mp-18965
NaVTeO5,3.0152,-2.0478192816307472,mp-18897
CrO2,0.041999999999999,-2.04770086166665,mp-19177
Li2V3(CO3)6,0.728499999999999,-2.047619092298851,mp-758280
Li2Co(SO4)2,3.2144,-2.047502192051282,mp-1194281
Li19Mn8C16(SO16)4,0.101699999999999,-2.047467546007042,mp-776592
LiFe6O7F5,1.8019,-2.04723515754386,mp-754565
MoWO6,1.4963,-2.04722267375,mp-1221457
KLaFeBiO6,0.361399999999999,-2.047168834225,mp-1517573
Li7V4(CO3)10,1.2185,-2.047119801633988,mp-1176889
CaVSi4O15,0.8708,-2.047027343571427,mp-1200285
LaMgCoO3,0.0,-2.046872624166667,mp-2226770
Na3Fe(SO4)3,0.0,-2.046664501928311,mp-1196866
Li4Mn3Sn2Sb3O16,0.0,-2.046626811683087,mp-774787
KUVIO10,0.3862,-2.046626014982142,mp-1204908
Li2VCoO5,0.6361999999999991,-2.046620938518518,mp-758263
MgMn(SbO3)2,1.951,-2.046562740293103,mp-2217260
Sr4Ca4Fe3Co5O24,0.0,-2.046380089750001,mp-1076674
LiCoOF,0.0,-2.046323325833333,mp-760241
Li5Mn3(FeO5)2,1.0806,-2.046290401022989,mp-757564
V4Bi6PbO20,2.8891,-2.046192641935484,mp-1208079
Li6Mn9O20,0.0,-2.045994372896552,mp-867994
LiCo3P3O13,0.059199999999999,-2.045932699613094,mp-1013912
V3(PbO3)4,0.0,-2.045763886842105,mp-1208010
MgMoAsO5,1.2767,-2.045743468437501,mp-1359496
CoAs3OF18,0.0,-2.045728934130435,mp-726340
NaFe(GeO3)2,1.5846,-2.045677166637932,mp-22614
Li13Mn17O40,0.0,-2.045641956116584,mp-759819
Li2Co4O3F8,0.138399999999999,-2.045586827156863,mp-755735
CrNi5(PO4)6,0.0,-2.04558446438492,mp-771940
K6CoMo5O19,2.805,-2.045283702854838,mp-556109
Sn(WO3)3,0.0,-2.045179445,mp-761454
Li5Mn5(SbO6)2,0.0,-2.045062144846744,mp-773202
Li3Mn4SbO8,0.0,-2.04497998885776,mp-756607
MnSiO4,0.0,-2.044731995627395,mp-1249486
Li5Mn5O12,0.5106,-2.044698977105538,mp-771669
Li2NiBO4,1.297399999999999,-2.044642353229166,mp-771080
Sr3Co3O8,0.0,-2.044573345357143,mp-757739
Na4AlFe3O8,2.355699999999999,-2.044548466594827,mp-1221220
LiMn7O7F,0.0,-2.044512819303161,mp-764671
CaCoAs2O7,2.2492,-2.044447314318182,mp-1042739
LaCr4(CuO4)3,0.2062,-2.04441889275,mp-1106068
MnSO4,2.8118,-2.044368775905172,mp-22554
K8MgCo2(Mo4O15)2,1.1294,-2.044319822102041,mp-2217025
Fe7P6(HO6)4,3.1224,-2.043809949094076,mp-24474
CaV4(CuO7)2,0.5880000000000001,-2.043752558571429,mp-1330228
Mo(WO4)2,0.0,-2.043718429545455,mp-1041534
K3TiFeH4S4O19,2.4305,-2.043687683127603,mp-1225282
ZnNiBiP2O9,0.0,-2.043651692091837,mp-1325511
Na4W4O15,0.3737,-2.043602173065967,mp-1191377
MnV2Pb2O9,0.9759,-2.04355938520936,mp-731713
ScMn3(BiO3)4,0.796299999999999,-2.043532781939656,mp-1219320
Sr9(NiO3)7,1.3374,-2.043437981891891,mp-759887
Na6V2As(CO4)4,0.000399999999999,-2.043279393819857,mp-850910
K2Zn2(MoO4)3,3.6629,-2.043182530236842,mp-12194
Li5Fe(CO3)4,1.9253,-2.043168958257576,mp-765153
Sr2MgNiRuO6,0.0,-2.043056004090909,mp-2223673
Li4Cr3Co2Sb3O16,0.6456000000000001,-2.042945505119048,mp-764773
Ce4FeSe6O,0.0795,-2.042847684505208,mp-579188
ZnCoPHO5,0.165999999999999,-2.042817192321427,mp-561632
V2Zn3(GeO4)3,1.0263,-2.042719812749999,mp-1325621
TlNi4(PO4)3,2.4213,-2.042607548863095,mp-705059
KMoO3,0.0,-2.04255605245,mp-1040469
MgMn2(SO5)2,0.6512,-2.042440231057472,mp-2215822
Li4Nb2Fe3Te3O16,2.143599999999999,-2.042420992261905,mp-753159
Li9Y(NiO4)2,2.7949,-2.0424171165,mp-776467
LiFeP2(HO3)2,2.7734,-2.042332612093254,mp-1195117
Ba2Mn3O8,0.0,-2.042186511830238,mp-1048172
Li5FeO4,3.0845,-2.042025744666667,mp-19511
CrNi2BO5,2.7366,-2.041855450185186,mp-1213761
Li2Mo4O13,2.4329,-2.041816249736842,mp-557229
Li6Mn5FeO12,0.0,-2.041748611652298,mp-765561
Na3Cr2(AsO4)3,2.7029,-2.041517589581897,mp-16383
Li6Mn5CoO12,0.7201000000000001,-2.041456841235633,mp-861128
Li6Ni2P(CO4)4,0.0,-2.041340426366996,mp-770626
Li4Mn3Nb2Cu3O16,0.018199999999999,-2.041322726325944,mp-770974
MgMo3O8,1.264799999999999,-2.041131569583334,mp-1046644
V3(HO4)2,0.7530000000000001,-2.041118675,mp-626872
Mn2O3F,0.0,-2.041098524310344,mp-1176477
Ba2Mo3O7,0.0,-2.040998407916667,mp-1048510
RbWO3,0.0,-2.0409458445,mp-975138
LiCr2(SO4)3,0.7267,-2.040897018379629,mp-770490
Li9Mn20O40,0.4996,-2.040790375777113,mp-690161
Ca2Mn(AsO5)2,0.0697,-2.040534030195402,mp-731668
Rb2Zn2(MoO4)3,3.5953,-2.040496877894737,mp-1209660
Mg(MoO3)4,0.9870999999999992,-2.040433482058823,mp-2229132
Sr2AlCu2NiO7,0.111499999999999,-2.040384213076923,mp-1043524
Li3Mn2SbO6,0.2923,-2.040365336321839,mp-1177635
MnNbH8(OF)5,2.1845,-2.040223945396552,mp-1221895
LaCrCoO6,0.9386999999999992,-2.039968874444445,mp-1040836
K4CoMo4O15,0.0,-2.039909089958333,mp-562390
CaHo(NiO3)2,0.0,-2.039905500499999,mp-1041234
CsFe3P3O14,0.1848,-2.039865639932558,mp-729483
RbSbMoO6,2.4282,-2.039864508055555,mp-1219606
Na2VO4,0.4121,-2.039799353965517,mp-1194140
Li4Mn5SnO12,0.032799999999999,-2.039768433544932,mp-756595
Li2V(CO3)3,2.3592,-2.039725492111111,mp-758564
KBa3Y2(Co3O8)2,0.0,-2.039632562044642,mp-1223593
FeNiAg2F7,0.7212000000000001,-2.03957492621212,mp-1212687
Ba2TlMo2O7,0.0,-2.039571744027779,mp-1048444
Ba3Mn4PtO12,0.0682,-2.039568073086207,mp-1228618
Li2Zn2(MoO4)3,3.1374,-2.039395784298245,mp-1210963
MnV2HPb2O9,1.133499999999999,-2.039293944945403,mp-1192704
V4CuNiO12,0.557499999999999,-2.039255946666666,mp-756167
Li3NiO2F,2.7694,-2.039136784999999,mp-753400
Ba2TlW2O7,0.0,-2.03907697486111,mp-1046350
PrMgCr4O12,0.0,-2.039035212037038,mp-1522964
LiFe2SiO4,0.0,-2.038943503541666,mp-1211190
Li11Cr3Fe3O16,0.0,-2.038542399595959,mp-759872
Li8Mn5O10,0.4868,-2.038509285927037,mp-764701
VZnBiO5,2.9983,-2.038393132499999,mp-1044197
NaIn(MoO4)2,3.626499999999999,-2.038271371295498,mp-651301
LiV3Fe2CuO12,0.7355,-2.038248302280701,mp-766078
Na4Mg(MoO4)2,1.6668,-2.038156710034483,mp-2228694
BaMn8O16,0.772899999999999,-2.038069592537961,mp-1228782
Cr9O13,0.7342000000000001,-2.038002178409091,mp-1045826
Mn7Zn4Si2(AsO12)2,0.2096,-2.037539623731211,mp-1196244
Al4(NiO4)3,0.0,-2.037278010263156,mp-1248275
Li4Mn3FeO8,0.145999999999999,-2.037263722945402,mp-756625
Cr2Cu5(P2O9)2,0.0,-2.037198523054188,mp-1194161
BaNaSrMnO6,0.0,-2.037039118931035,mp-1522792
K3NaMgCr2O8,1.3315,-2.037005973208621,mp-2228762
K3Na5V3(MoO4)5,0.0575,-2.036939268087405,mp-1076888
Li2MnFeO4,1.209299999999999,-2.036794229324712,mp-1177898
CsNaMo3O10,3.2507,-2.036703792568965,mp-1213570
CuWO3F2,0.0,-2.036153685714285,mp-555219
Ti3Mn2Co3O16,0.038899999999999,-2.036080600244253,mp-757180
Li3FeAsCO7,2.7162,-2.036051671346153,mp-770939
CoBi6P2(O7F)2,1.703999999999999,-2.03604008077143,mp-1213921
LaMgFeAgO6,0.1197,-2.035993704916666,mp-1043932
Na3CrAsCO7,1.7920999999999991,-2.035967971664456,mp-771038
Mg3Fe3(AsO4)4,2.0922,-2.035919061730769,mp-1041600
Sr4Cu3NiO8,0.0,-2.035834488750001,mp-1218506
KLi4CrO5,1.0596,-2.035796954371212,mp-756262
Rb3NaMg(WO4)2,1.384799999999999,-2.03552832925862,mp-2226963
Co(ReO4)2,0.0,-2.035404187727273,mp-31516
Ba3Sr(CoO3)4,1.062199999999999,-2.0353396325,mp-1642439
YMn3Se2ClO8,1.8113,-2.035307214565373,mp-1048385
CsMgFe(MoO4)2,1.6018,-2.035172396511937,mp-2219036
LiVPH4O7,2.559999999999999,-2.035024844141156,mp-1203841
Ca(MoO2)4,0.0,-2.034961632307693,mp-1044218
TaMnNO2,0.8600000000000001,-2.034891296052873,mp-1217938
BaSrMg(FeO2)4,1.4692999999999992,-2.034727375666666,mp-2232095
MgIn6WO12,0.0,-2.03469516025,mp-2230025
Ca3Ni2O7,0.0,-2.034510629583333,mp-1370002
NaLiV4O12,0.0,-2.034465028595148,mp-1519923
Nb2(CoO3)3,0.0,-2.0344399925,mp-1341677
LiNi5P3O13,2.670899999999999,-2.034432661239178,mp-861148
CaCuW2O7,0.363999999999999,-2.034394212575757,mp-1041880
Li3Mn2FeO6,0.3992,-2.034383114655172,mp-777446
BaTlV2O6,0.0,-2.034377786333335,mp-1046784
NaMgCr3O8,0.7893000000000001,-2.03427452587533,mp-2227683
Tl4V5CdClO15,2.1519999999999992,-2.034218570320514,mp-560760
CaCr2CoO7,0.693499999999999,-2.034146704545453,mp-1042603
MnV4CuO12,0.0,-2.034003206551724,mp-754799
LaMoO2,0.0,-2.033963838125002,mp-1211406
Sr12Y4Fe8Co8O43,0.0,-2.033780191933333,mp-1173376
LiCo2P2O9,0.0684,-2.033778094294218,mp-1013953
TiMn5O12,1.4294,-2.033745003499362,mp-757064
K2CrSO7,2.4957000000000003,-2.033662543818181,mp-561541
Sr4Fe2CoNiO12,0.0,-2.033558936,mp-1218583
Cs2Mo5O16,3.0849,-2.033470621491755,mp-1200365
Li4V3Fe3(TeO8)2,1.363999999999999,-2.03335777202381,mp-767773
Rb4WO5,2.9242,-2.033217402166666,mp-1209481
Li8Mn15NiO32,0.5663,-2.033168815636289,mp-772976
FeSb4C6(O3F11)2,4.5119,-2.033068701666667,mp-19590
Ni3Sb4(OF)6,3.04,-2.032984044999999,mp-1105117
Ga2(MoO4)3,3.6554,-2.032749425,mp-1213624
Li3Mn5O10,0.610399999999999,-2.032748503314176,mp-753084
Li2Ni(SO4)2,4.045400000000001,-2.032585724455128,mp-560212
CaFeMoO6,0.0,-2.032575820555555,mp-1368738
MnO,1.310499999999999,-2.032569766465519,mp-1232659
VZn2WO6,1.7396999999999991,-2.032559744000001,mp-1275144
Li5Mn2CoO8,1.3569,-2.032553867658047,mp-1174385
BaNaCaMnO6,0.0,-2.032388149931035,mp-1517699
NaV3Fe2CuO12,0.682199999999999,-2.032373284809438,mp-1173562
Sr2Ca6Fe3Co5O24,0.0,-2.032236383249999,mp-1099890
Mn7O7F,0.0,-2.032214755701147,mp-753904
Na3MgVO4,0.3563,-2.032086464348659,mp-2217388
MgMn4Cr2O12,1.3549,-2.032060227722322,mp-2230828
Li3Mn7O12,0.0318,-2.03200070600836,mp-1177687
MgMoH2O5,4.0949,-2.031782246944444,mp-24620
Na3Mn2SbO6,0.8500000000000001,-2.0315296425,mp-985626
CrB3(HO3)3,2.1533,-2.031499308828125,mp-778931
Li3TiCo3O8,0.6404999999999991,-2.031468432888888,mp-761172
LiMn3O5,0.0,-2.031354083847382,mp-770511
Li4Ti2Fe3Co3O16,0.0,-2.031318176785714,mp-759038
V12Ag5O32,0.4155,-2.03131813547619,mp-1216989
Li4Ti2Ni5O12,0.253099999999999,-2.031293306304348,mp-759757
Sr2MgMoO4,0.0,-2.031173549375,mp-2226766
Li4Cr3Ni2Sb3O16,0.577599999999999,-2.031028864047619,mp-756608
Na6Mo11O36,2.6103,-2.030994723175017,mp-581919
Ba5Co4PtClO13,0.0,-2.030954588333335,mp-1228254
LiCrP2H5O9,3.045299999999999,-2.030892398270502,mp-780488
CrNiP2O9,0.0,-2.030839365906593,mp-1044071
Mn3V2Cr3O16,0.7050000000000001,-2.030839188491379,mp-773144
YCr4(CuO4)3,0.1077,-2.0308343435,mp-1045767
MgPb2(WO4)2,2.0652,-2.030783834230768,mp-2227115
CaFe(MoO3)2,0.0,-2.030630834,mp-1214052
Li11Mn13O32,0.0,-2.030552595353038,mp-531021
Ni5(PO4)4,0.0,-2.030412795742858,mp-26922
Li5V2Fe5O12,1.1101,-2.030398202777778,mp-770493
Li4Ti3(CoO3)6,0.0,-2.03038879688172,mp-769541
KV3Cd4O12,2.3764,-2.0302765458625,mp-560167
TiNi5(BO5)2,0.0,-2.030250150370372,mp-1217013
Li4Cr5Fe3O16,0.0,-2.030241009047619,mp-773204
K2Mo7O20,0.0,-2.030170302741378,mp-557167
CaNiAs2O7,2.7064,-2.030143152727272,mp-1042887
K8UCr4(NO12)2,2.102,-2.030012070205127,mp-561037
CaCrH2O5,2.9489,-2.029913406666667,mp-24125
NaVCSO7,2.1092,-2.029554273989028,mp-772183
KNa(MoO3)2,0.0,-2.029428370862931,mp-1076831
KCr20O40,0.0,-2.029405661430328,mp-1224192
Li3Cr2(GeO4)3,0.0,-2.029334015999999,mp-1012879
Sr2VFeAsO3,0.0,-2.0293223184375,mp-1106248
Ba2W3O7,0.0,-2.029148091249999,mp-1048501
BaV4As4O19,1.5368,-2.029001886160714,mp-560714
MgFe2W2(ClO4)2,3.2892,-2.028919469,mp-2228678
MnZn5(BO5)2,0.0,-2.028834185070242,mp-1221663
MgV2(CuO4)2,0.1774,-2.028509108076923,mp-560291
MgCr3(SO4)6,0.1778,-2.028446122941176,mp-771674
LiV2(CO3)4,0.7913000000000001,-2.02839307622807,mp-752532
Li2CrCoO4,0.665,-2.028385343333333,mp-1275616
Rb3NaMg(MoO4)2,1.5515999999999992,-2.028312602591954,mp-2232370
NaSr2MnO6,0.0,-2.028282391931034,mp-1522511
EuZnBiWO6,0.0,-2.028231260500001,mp-1521380
Bi2W2O9,2.020299999999999,-2.028216003653846,mp-29782
V16Ag7O40,0.4256,-2.027801640820106,mp-1100952
KNaV4O12,0.0,-2.02770779881274,mp-1520241
Li2FeCSO7,4.353099999999999,-2.027604755555555,mp-1579553
Co2BP3(H3O7)2,3.0194,-2.027591654830586,mp-1214582
Ge3(WO6)2,2.899899999999999,-2.027191629411764,mp-1325965
P(W3O10)4,0.0014,-2.027105573200808,mp-728875
LaMgMnO3,0.0,-2.027068627155172,mp-2222907
HoMg(NiO3)2,0.0,-2.0270060385,mp-1041116
Sr6Ca2Co5Cu3O20,0.0,-2.0269124125,mp-1076678
MnFe2Pb2(OF4)3,0.0,-2.026902526146551,mp-1221960
CrFeO3,0.0,-2.026850883,mp-1078458
MgV4Cu3O14,0.348099999999999,-2.026821811590909,mp-1222158
Li7Mn16O32,0.2915,-2.026796113095089,mp-694974
BaSr3(CoO3)4,0.0437,-2.0267502425,mp-1227831
Li2Fe2(MoO4)3,2.656399999999999,-2.026668560614035,mp-21778
CuNi2(PO4)2,0.0,-2.026643345329671,mp-510642
Li7Mn11O24,0.8300000000000001,-2.026578636918446,mp-690435
VB(PbO2)4,2.9657,-2.026531270654761,mp-1201529
Li4Mn3CoO8,0.0,-2.026520520757903,mp-1297796
LiMnHSO5,3.4935,-2.026381588890485,mp-943469
Li8NiO5F,2.0814,-2.026317759777778,mp-764727
Li12Mn2O9,0.9428,-2.026240232646177,mp-753075
ZnCr4O8,0.0,-2.026081265384615,mp-1384392
Li2ZnCr3(SO4)6,0.7195,-2.025954631712962,mp-772839
Li2NiGeO4,2.9925,-2.025950692708334,mp-1210913
Li15Mn2O12,0.0,-2.025938532615934,mp-758672
Li7Nb2Fe3O16,0.0,-2.025914533690476,mp-769877
Li3Mn5FeO12,0.2721,-2.025890164031199,mp-774685
Li3VFe3O8,1.333999999999999,-2.025869882666667,mp-757069
Li2FeBAsO7,0.2979,-2.025728766111111,mp-1177952
NaMnO2,1.222999999999999,-2.025652015452586,mp-18957
Mn5Pb(SO4)6,4.1724,-2.025453528740422,mp-558292
Li6Mn3Cr2Fe3O16,0.372299999999999,-2.025368942126436,mp-861553
MgVCl2O,2.1164,-2.02526877,mp-2227244
Mn11ZnO16,0.661,-2.024981503115764,mp-861549
Fe3NF9,1.6916,-2.024801286153846,mp-1212814
CsFe(MoO4)2,2.3737,-2.024767683304598,mp-1104989
Li9Mn2(CO3)8,0.0,-2.024734613740979,mp-780774
Li5Mn5(FeO6)2,0.670099999999999,-2.024731683180077,mp-753750
Na3Zn2(WO4)3,1.846499999999999,-2.024652352206896,mp-1210410
Mo2P3Pb2BrO15,0.0,-2.02462849386646,mp-705127
VBP2NO9,1.3636,-2.024479879353741,mp-1207936
Cr13Si2(SbO14)2,0.186599999999999,-2.024270314444445,mp-1044615
V2SO8,1.5981,-2.024265612045455,mp-768637
Na6Mo10O33,3.087399999999999,-2.024236461291344,mp-648992
BaCo2Sn4O11,0.0,-2.024231411111111,mp-1228162
Li3Mn(CO3)3,0.7254,-2.02419298018319,mp-758341
KV2P2H4O13,0.0,-2.024108514842531,mp-643841
RbV3Cd4O12,2.3178,-2.024042778375,mp-1219122
CsBi(MoO4)2,2.8514,-2.023952513721266,mp-1213697
FeNi3(PO4)4,0.0,-2.023845094107143,mp-755553
Li3Mn4FeO8,0.0,-2.02380738198276,mp-756377
MgMo2HO6,0.907099999999999,-2.023781443625,mp-2222875
Li4Mn3NiO8,0.219599999999999,-2.023593851070402,mp-760206
VBiPbO5,2.9255,-2.02351889125,mp-560699
Mn23FeO32,0.657299999999999,-2.0234891870073892,mp-757698
Li4Cr2Fe3Sn3O16,0.0,-2.02338876529762,mp-777903
Sr2V3Se5O18,2.564899999999999,-2.023330669079242,mp-1197632
Ni5Te(PO4)6,0.0,-2.023284495125661,mp-850365
Mn2InSbO6,0.486299999999999,-2.0231560457528732,mp-1222032
MgSn2WO6,1.978399999999999,-2.023034342499999,mp-1519158
NaMoO3,0.0,-2.023017042275861,mp-998627
TaAgWO7,0.0,-2.022998656399999,mp-1218048
MgMn2Cr2O8,0.3406,-2.022886614681696,mp-2218507
Na4Co(MoO4)3,2.6495,-2.022854952525863,mp-1221245
FeWO4,2.401,-2.022696756666667,mp-19421
LiVAsCO7,1.9901,-2.022574075075758,mp-756295
Ga2CoO4,1.7927,-2.022551330357143,mp-765466
Li7Fe7SiO16,2.0109,-2.022437162043009,mp-756994
Na6Fe2C4SO16,0.0,-2.022411827440546,mp-21590
Cr2TeO6,1.4893,-2.022343471296295,mp-21355
MgW2O5,0.0,-2.022251835625001,mp-1399005
Li2MnO2,2.4263,-2.02211192691954,mp-19279
NaMnAsO4,2.0178,-2.022084184901477,mp-17876
Na2Ni3P2(HO5)2,3.9136,-2.02200359339707,mp-1190479
KFeSn3O8,1.4194,-2.02192704401923,mp-1223574
Li13Mn2O9,0.0,-2.021926420174808,mp-764770
LiMn3CrO8,1.2014,-2.021911351317418,mp-756504
Co3P3O11,0.0,-2.02184852052521,mp-25878
Mn5(PO5)4,0.3747,-2.021717297697469,mp-1197349
LaCrMoO6,0.336599999999999,-2.021697605000001,mp-1040803
Ca2Fe3O8,0.013099999999999,-2.021611271153845,mp-1304288
MgMnZn2WO6,1.5308000000000002,-2.021555486630093,mp-2217882
MoO2,0.0,-2.021555188333332,mp-510536
LiNiBP2H6O11,0.0,-2.021527043982683,mp-1212004
VFeMoO7,2.0434,-2.0215053575,mp-19180
Ti3Ni3(TeO8)2,0.2915,-2.021471573055555,mp-771243
MnP3(HO2)6,1.8167,-2.021452291107254,mp-1201303
Li8Mn13Fe3O32,0.38,-2.021447039103038,mp-771651
Mn3V2O10,0.339299999999999,-2.021412516252874,mp-772119
VSb2O5,0.0,-2.021339812500001,mp-19243
Mn5O7F,0.0,-2.02128923458886,mp-753608
LiMn5O8,0.0,-2.02116634949918,mp-770866
Li2NiAgF6,0.0,-2.021007083083335,mp-1111146
Re2NiO8,3.963199999999999,-2.020867966136364,mp-32311
MgTi2(CoO2)4,0.0,-2.020847538777778,mp-2232269
Fe7(SiO6)2,1.151,-2.020683488333333,mp-763339
In6WO12,1.7679999999999991,-2.020597898947368,mp-20099
BaMg(FeO2)4,1.6589,-2.020576196785713,mp-1044425
Sr18Ni13O42,0.008099999999999,-2.020376594520548,mp-685197
Li3Mn3TeO8,0.668199999999999,-2.020221888697317,mp-1302799
SnWO4,0.9171,-2.020210412916667,mp-17700
NaCrCSO7,2.3931,-2.020191328534483,mp-770829
LiFe2O3F,1.6312,-2.019954299761905,mp-776573
Li6Co2C4SO16,0.0,-2.019847462844828,mp-780426
MgCr7(SO4)12,0.0,-2.019812322132352,mp-775414
Na6Fe2P(CO4)4,0.0,-2.019794996824783,mp-780786
Li2Mn2C2O7,2.3358,-2.019777194617595,mp-760097
Li5V2Co3O10,0.0449,-2.019772702333334,mp-755050
Li2Cr3NiO8,0.371699999999999,-2.019459474047618,mp-771776
Al4Si2Ni13(SbO14)2,2.347699999999999,-2.019428692448979,mp-1044564
MgMnCoO4,1.2622,-2.019348650418719,mp-2225374
Li2Co2SiO6,0.7258999999999991,-2.019283939242423,mp-752511
Ca4Si6W5O17,0.342699999999999,-2.019096961093749,mp-1214164
Cr4CdCuO8,0.0,-2.019009702857143,mp-1226224
Li9Mn14O32,0.0,-2.018742169109718,mp-766830
Li2FeSnO4,1.7179000000000002,-2.018632114895833,mp-1177968
KBaSrMnO6,0.0,-2.018560950018103,mp-1517145
Ba6V4S11O5,1.9839,-2.018314079711538,mp-556461
RbBi(MoO4)2,3.0808,-2.018268085625001,mp-558816
Na2CoAuF6,0.9908,-2.018158489275862,mp-1111141
Li2Mn3ZnO8,1.5525,-2.018102850389983,mp-704943
Li5NiO3F,0.0,-2.018101708166667,mp-758448
SrNiO2,0.0,-2.01787988125,mp-19190
Mn7(PO8)2,0.0,-2.017612240792118,mp-1180377
LiMn2(SO4)3,0.280499999999999,-2.017549905233079,mp-768898
MgCr3O7,0.0,-2.01754639590909,mp-1044315
Li4VCr(TeO6)2,0.8382000000000001,-2.017524436833334,mp-754916
BaV2Ni3(HO5)2,2.5875999999999992,-2.017501866250001,mp-1205427
Li(MoO3)3,0.217299999999999,-2.017413549198718,mp-29508
Li5Mn7O15,0.0,-2.017356086191996,mp-774493
Li2Fe2(SO4)3,4.1485,-2.016949885877193,mp-777573
NaSrCaMnO6,0.0,-2.016780199931034,mp-1517363
Li6Ni2C4SO16,3.682,-2.016693692844828,mp-776423
Sr24Ni19O54,0.4546,-2.01661176742268,mp-675428
Cr(ReO3)2,0.0,-2.016462426944445,mp-1226109
Li13Mn8O24,0.0,-2.016300131706257,mp-758228
Mn5V2Pb3O16,0.607699999999999,-2.016048719602122,mp-631631
Li4Cr2Fe3O10,0.9489,-2.01571577491228,mp-780315
Li4Mn3Fe3(SbO8)2,0.0,-2.015645833468801,mp-775013
Li9Al(NiO4)2,2.9469000000000003,-2.01564538625,mp-770517
Y(WO2)2,0.0,-2.015576445714285,mp-1389093
Na4V2O5,0.522899999999999,-2.015437966865204,mp-775962
Li2TeMoO6,3.0987,-2.015242366333333,mp-1203622
MnVHPbO5,1.8768,-2.015212976297892,mp-757573
Li3Y(NiO3)2,0.7283000000000001,-2.015152814166666,mp-1309972
RbFe(MoO4)2,2.3779,-2.015124586458334,mp-18868
Fe3Ag7(P2O7)4,1.3194,-2.015074258669771,mp-1204059
VCr3O8,0.310199999999999,-2.014983926666666,mp-1246941
Fe2CuH4(OF4)2,1.0783,-2.014881557058824,mp-644277
Li7Mn8O20,0.0,-2.014819921908045,mp-767763
CaCuMo2O7,0.0,-2.014777731515152,mp-1042213
V2ZnCoO7,1.959499999999999,-2.014740191818181,mp-1338846
Sr2Ca2Fe(CoO4)3,0.0,-2.014725622999999,mp-1099605
CaTiFe5O8,2.0571,-2.014490026888888,mp-1234086
Li3Fe3(WO6)2,2.298,-2.014379472749999,mp-780661
LiFeWClO4,3.167599999999999,-2.014328414166666,mp-1210860
Cr2(SO4)3,0.0,-2.014279678382353,mp-19361
BaSr7Co5Cu3O20,0.0,-2.014222325000001,mp-1100068
K2Ni(MoO4)2,3.4841,-2.014170456307692,mp-554864
Li5Nb2Ni5O12,0.0,-2.014140755277778,mp-771156
Li2MnAsCO7,0.8344,-2.014125467674809,mp-771151
BaCr4O8,0.0,-2.014097705384615,mp-1041288
Li2Mn2(CO3)3,4.1677,-2.014038978283047,mp-752466
Mn2O3,0.0721,-2.013919843547413,mp-1172875
Sr2VCu2O7,0.0,-2.013763190833332,mp-1043859
RbMgMn4O8,0.0,-2.013560603158868,mp-2227254