formula,bg,formation_energy,mp-id
CaFe4(PO4)4,1.6928,-2.449308269142857,mp-1234291
Ba2NiMoO6,2.3514,-2.44925213,mp-552567
Li2VCrO4,0.9832,-2.449152683333334,mp-755540
Li4MnSn3(PO4)4,3.0184,-2.449124310886993,mp-772661
Eu2Mo(WO6)2,0.0,-2.449092020588235,mp-1225913
Gd2Mn3Sb3O14,0.8407,-2.449043679717868,mp-1225126
SrNbFeSnO6,1.796999999999999,-2.4489484315,mp-1518938
MgMnVP2(HO5)2,0.888799999999999,-2.448884710277455,mp-1233018
La4Sm4Co7CuO24,0.0,-2.448884304500001,mp-1076219
NbFe5(PO4)6,2.1485,-2.4488419393849212,mp-771326
SrCrO4,2.8575999999999993,-2.448814325416667,mp-510607
Li3CrP2O9,0.0,-2.4486394536190472,mp-504343
Li5Mn2Fe(BO3)4,0.0,-2.448579925799809,mp-766508
Ba2V2CuClO8,0.0,-2.448424235714285,mp-1195300
Mg2CrSbO6,2.485,-2.448321578499998,mp-1275594
SrCo(PO4)2,0.0386,-2.448244272857142,mp-1046454
Li4Fe3Ni(PO4)4,3.0636,-2.448218444353742,mp-771063
Sr4MgFe2(ClO3)2,0.0,-2.448193334999999,mp-2228702
Na3Cr(BO3)2,2.7307,-2.4481649833309382,mp-773526
Li2Co2Si2O7,2.8478,-2.448092957051282,mp-758338
MnNb2ZnO8,1.208199999999999,-2.447972801910919,mp-1368842
Rb2CuNiF6,0.0,-2.4479118664999993,mp-1113474
CaMn2O4,2.0103,-2.4479014340517242,mp-18844
CaMn(GeO3)2,1.7943000000000002,-2.447887774293105,mp-1043484
Li4CrFe3Sn2(PO4)6,1.8994,-2.447887531279761,mp-1177657
Ba2CoReO6,0.198199999999999,-2.4478527995,mp-545792
Li4V5Cr3O16,1.111899999999999,-2.447822132976191,mp-777002
Nd2Mn3Sb3O14,1.1513,-2.447819605399685,mp-1220485
CaMn3V4O12,0.5004999999999991,-2.447468526939655,mp-1272308
Sr2TbNiO6,0.0,-2.447216226666667,mp-1521426
Tl3CrF6,3.2437,-2.447200462000004,mp-1205742
Li10Fe(SiO5)2,1.8235,-2.4470902807971022,mp-758900
HfMg6WO8,0.253299999999999,-2.446966606249999,mp-1033268
Li5Fe4P4O16F,3.932,-2.446962612007936,mp-759015
NbCr2Fe3(PO4)6,0.0,-2.446779686329366,mp-793763
AlMoO3,1.4177,-2.4467161835,mp-1373731
V3FeNi2(PO4)6,0.0,-2.4466918266071422,mp-1101188
Li2Ta2W2O13,0.358199999999999,-2.44617683454386,mp-1223123
KPrZnWO6,3.106,-2.446087947891667,mp-1517800
Li3Ti2Mn5O12,0.6082999999999991,-2.446046844681294,mp-758512
NpMn(OF2)3,0.0,-2.446043395607368,mp-1212257
Li5Mn8(BO3)8,0.238499999999999,-2.4458796098544062,mp-777359
Li4Ti2Fe3O10,1.4303,-2.445688105526316,mp-759041
Ca2FeP2(H2O5)2,4.408200000000001,-2.4455825696992473,mp-1214156
SrMn(GeO3)2,1.5991,-2.445525668793104,mp-1208680
Na3EuV2O8,0.0,-2.445496984938425,mp-1210604
K2V3O8,2.0466,-2.445476564961539,mp-16787
MgCrNiP2O9,0.487,-2.445292865663265,mp-1333330
V2Zn(PO5)2,1.6925,-2.44527640895238,mp-1043831
Ca6V3Fe7O24,1.940099999999999,-2.445214190874999,mp-1227714
Mo2(PO4)3,1.0492,-2.445183153760503,mp-32077
CrSn(PO4)2,0.6181000000000001,-2.44514537577381,mp-772100
CsZnNiF6,0.0,-2.445062929961686,mp-1228774
Li6Fe3P8O29,0.0,-2.445059165698756,mp-26221
Li4Ti3V2(Fe2O9)2,1.5484,-2.44505788123656,mp-768109
MgV5CrO12,1.0249,-2.445012234999999,mp-2230483
LiCrBO3,1.4909,-2.444927581250001,mp-754133
SrLaMgMnRuO6,0.0,-2.44478604708464,mp-2217312
Ba2CuWO6,0.0,-2.4447410720000002,mp-505618
Li3Ti2(CoO4)2,0.681,-2.444674881111112,mp-781664
Pr10Ni5O22,0.4491,-2.444659159099099,mp-1173634
U2Tl2Mo3O16,2.325,-2.444509421811594,mp-641191
CaV2CoO7,2.0284,-2.4443254863636352,mp-14382
Ba3Fe2Br2O5,2.4063,-2.444294398749999,mp-556428
Li5MnO3F2,1.4369,-2.444193094281608,mp-753558
Li2MnCuF6,0.0,-2.44417678745977,mp-1111263
Li17V16O32,0.6469,-2.444152372871796,mp-761629
Fe5OF11,1.2588,-2.444104868823529,mp-1178251
Ba3V2Ni6(PO6)4,3.127399999999999,-2.443979860732602,mp-1228520
Rb2MnAuF6,0.0,-2.443899928293103,mp-1110588
CeBiW2O9,0.147699999999999,-2.443704648076923,mp-1204806
Eu2Mn(GeO3)4,0.0,-2.443693034891107,mp-1226301
Na2V13O22,0.0,-2.443629951290773,mp-760967
BaNdMnCoO6,0.0,-2.443626125043103,mp-1227874
Fe2(PO3)5,1.3358,-2.443614894918831,mp-1172918
Li2FeP4O13,0.0418,-2.443449731011905,mp-759091
Li4Mn(OF)2,1.5468000000000002,-2.443405189029374,mp-753522
Cs3K5Mo8(P2O11)4,1.9145999999999992,-2.443378866799388,mp-1227037
CaU(MoO4)4,2.0852,-2.443331495227258,mp-556730
La3Mn8BiO20,1.097999999999999,-2.4432829290140092,mp-1223206
K4NbFe3(PO4)6,2.3259,-2.4431578167594,mp-726116
La2Mn3Sb3O14,1.5179,-2.443096662217867,mp-1223293
VCrO3,1.613299999999999,-2.443056250999997,mp-1216392
CsCoF4,0.3388,-2.442887959609196,mp-1202342
Ba2ScFeAsO3,0.0,-2.442726025624999,mp-862301
LiV4O8,0.0,-2.442680137948718,mp-1210897
LiFe4OF7,2.7408,-2.442679449102564,mp-776991
Gd2MgTl2(WO4)4,1.794999999999999,-2.442604340066666,mp-1233756
Li3FeP2HO8,4.241299999999999,-2.44258809070238,mp-755383
Li3V3CrO8,0.908999999999999,-2.442379760999999,mp-769596
KCoF3,0.0,-2.44229455445,mp-559946
Na2MnCdFe(PO4)3,1.2365,-2.442200649480912,mp-1173728
Li2Mg11(WO4)12,3.429299999999999,-2.442048085228311,mp-764817
Li7Mn7(P4O17)2,1.026199999999999,-2.441962941178453,mp-757472
Ba2ReNiO6,0.0,-2.44190680425,mp-20286
NaMo2P3O13,2.2668,-2.441780106068837,mp-559036
Li4Mn5Nb3O16,0.0,-2.441750757249589,mp-772148
Na4Cr2P4O15,0.563099999999999,-2.441746881963546,mp-1199320
Li19V12O32,0.6928999999999991,-2.44165074941799,mp-1223171
V3Fe2Co(PO4)6,0.0,-2.441566429662698,mp-768464
LiMo2P2O9,1.8104,-2.441558773937076,mp-1012668
Li8Mn5Fe3(BO3)8,3.072899999999999,-2.441535863951149,mp-778302
Na7Fe7P6(O8F)3,3.089,-2.441518790053453,mp-1221052
KPrGdFeO6,0.0783,-2.441419959891666,mp-1521264
Li2VCu(PO4)2,0.0,-2.441380532568028,mp-757133
MgMnV5O12,1.0446,-2.441287683312161,mp-2230930
Ca(WO3)2,1.2297,-2.44123913388889,mp-1045717
Li4Ti3Co2Sn3O16,1.939099999999999,-2.441213014583333,mp-1661766
Na7Fe4(PO4)6,0.0,-2.441209892744202,mp-554409
MgNiSnP2O9,3.0377,-2.441193670306123,mp-1043215
LaZnCrMoO6,0.0,-2.440984663000001,mp-1049240
Mn6O5F7,0.0,-2.4408804537547892,mp-754872
Rb2Mo2P2O11,2.4189,-2.440788813928571,mp-1219951
CaMn2(PO5)2,0.0,-2.440768016009852,mp-1044192
LaZnCrWO6,1.9409,-2.4406944184999992,mp-1049246
Li7Fe3Co(PO4)6,0.0,-2.44061630246806,mp-775102
MgFe2P2O9,2.0533,-2.440606171556122,mp-1041009
Na3LiMnBPO7,2.6676,-2.440436320657987,mp-759559
Sr3Fe2O5,0.644899999999999,-2.440301786499999,mp-19218
Li3Fe2P4HO14,4.084799999999999,-2.440290853742558,mp-753272
Li6Fe3Sb(PO4)6,1.3332000000000002,-2.440151067446428,mp-757289
Y(FeO2)2,1.6711999999999991,-2.440143290714285,mp-1280748
Li3Fe(PO3)8,0.0,-2.440136949087302,mp-26049
Na4Fe2(PO4)3,0.1451,-2.4397790466402762,mp-18493
NaNdV4O12,0.1284,-2.4397732793821842,mp-1520875
Sr3La7Ga(Co3O10)3,0.0,-2.4397616501500012,mp-1173241
KFePO4,3.3116,-2.439603845627551,mp-561267
NaDySnWO6,2.561099999999999,-2.439539054804598,mp-1521862
Li7Mn(OF)3,3.081899999999999,-2.4395052372331683,mp-760307
DyMgCu(WO4)2,1.679199999999999,-2.4394666528205122,mp-2219016
LiVSO4F3,1.2039,-2.439441812333333,mp-769603
Mn2Nb2Zn2O9,1.7456,-2.439375908057472,mp-554400
LiFe2(PO3)5,0.5324000000000001,-2.439310804632505,mp-1176742
LiEuYFeO6,0.0,-2.439296235833333,mp-1519180
LiTiCoO4,0.629,-2.439223495238095,mp-1176576
Li2V5O12,0.0,-2.43917377745614,mp-776130
LiCo2(PO3)5,3.1948,-2.439145017893373,mp-1101526
Li4Mn5Cu(PO4)6,0.241899999999999,-2.43906891552114,mp-1177362
Li4Fe5(P3O11)2,3.4113,-2.43904789570785,mp-26471
Ba2MnP4(H3O8)2,4.523899999999999,-2.439029281344912,mp-1201808
NaPrYFeO6,0.3532,-2.438942968304597,mp-1522734
VZn2P2O9,2.6012999999999993,-2.438928385306122,mp-556898
Mg3V2(GeO4)3,0.0,-2.438870851874999,mp-1327460
Ba3CoO5,0.422099999999999,-2.438738281388889,mp-1214566
LiFe3(P3O10)2,2.4449,-2.438690611373015,mp-25883
CaAl2V4O8,0.3196,-2.438684386666667,mp-1234955
Ba10Y5(Fe5O12)3,0.621699999999999,-2.43866193378788,mp-1229144
K2Mo2P2O11,2.4334,-2.438645181252102,mp-1224145
Li3FePO5,3.1798,-2.438612460964285,mp-765579
SrU(MoO4)4,2.093499999999999,-2.438480872727273,mp-1208685
NaSmV4O12,0.133,-2.438386833687741,mp-1523362
NaUVO7,0.338499999999999,-2.43833714088793,mp-1221190
LiMo2P3O13,2.3002,-2.438327234987469,mp-26193
MgFe2Si2SbO9,1.8731,-2.438311982666667,mp-2242239
CrFe(PO4)2,2.1953,-2.438307827440476,mp-861612
Li3Ni2(PO3)7,4.0723,-2.438254788560606,mp-859106
LiCrPHO5,0.066799999999999,-2.438222418247354,mp-753051
NaPrV4O12,0.131599999999999,-2.438158975724778,mp-1517117
Li6Fe5(P2O7)4,0.0,-2.43804865174772,mp-705431
Li10Ti3Mn5O16,0.895699999999999,-2.438016854499662,mp-761137
MoP3Pb2O11,3.5617,-2.437991963613444,mp-554832
Cs2CrH4F10,1.9123,-2.437889239959432,mp-1204482
Li7Ho3(MoO4)8,3.3789,-2.437884138966666,mp-1222932
Na3Fe3(PO4)4,1.7179000000000002,-2.437781256642667,mp-556540
Sr3CoSb2O9,0.6048,-2.437723356666666,mp-1218557
Li2Ni(PO3)5,0.0,-2.43748463434265,mp-540011
Li4VCo3(PO4)4,1.1076,-2.437448980782311,mp-1177182
Li2MnV3O8,1.5865,-2.437405645685549,mp-775327
RbNa2Fe3P4ClO14,3.894599999999999,-2.437391117553202,mp-1195661
Sr21Fe14O47,0.0,-2.437322983841462,mp-772462
Sr3Ca5Mn4(FeO5)4,0.0,-2.437138558172892,mp-1076450
Li4Mn3CrCo2(PO4)6,0.393999999999999,-2.437080907374589,mp-758445
Pr2Mn3Sb3O14,1.059299999999999,-2.437056792596655,mp-1219879
CsNa2Fe3P4ClO14,3.3634,-2.436982821239407,mp-1194719
Li5V4O12F,2.5098000000000003,-2.436955837121211,mp-759940
Rb5ErHf(MoO4)6,3.8577,-2.4369254460135132,mp-557014
TaVZn2O6,0.010699999999999,-2.436844664733334,mp-1366504
Sr2MgCuMoO6,1.482899999999999,-2.4367437904545453,mp-2240053
Li4Ti3Mn2Fe3O16,0.6542999999999991,-2.436691187828407,mp-770371
Al2Fe3(PO5)3,1.432599999999999,-2.436679843322981,mp-1259854
MgMnV4O12,2.1181,-2.436575329607294,mp-2232942
Li4TiFe2Ni3(PO4)6,2.401099999999999,-2.436557999613094,mp-1177299
MgMnZnSiO6,1.0094,-2.436551599793104,mp-1210711
SrPrEuNiO6,0.0,-2.436458395666667,mp-1520445
KAlSi3Ni3(HO6)2,0.0,-2.436392992261362,mp-1223621
Ba3CoSb2O9,0.0,-2.436329391833334,mp-19337
Pr(MoO3)2,0.580399999999999,-2.436316929074073,mp-1044744
Li4Fe(BO3)2,3.9646999999999992,-2.43625138724359,mp-1650315
Li6Fe(BO3)3,2.0986,-2.436248122368422,mp-772525
AlFe2BO5,2.8114,-2.4362381237962962,mp-1096865
LiLuZnFeO4,1.205699999999999,-2.436186583749999,mp-1235383
Mn3(BO3)2,2.0333,-2.436177715193313,mp-19185
Tl2CrF6,0.0,-2.436103412962965,mp-1208169
Mg2FeWO6,2.943,-2.436051941000001,mp-1047202
BaNaCeFeO6,0.0,-2.436025611137931,mp-1519179
Li4NbCr5O12,0.9781999999999992,-2.436006451515151,mp-756524
MgTi2Mn4O12,1.0689,-2.435965561231095,mp-2231338
AlCr(WO4)2,0.0,-2.435889494583334,mp-1041805
NaSrCeFeO6,0.0,-2.435874235137931,mp-1522517
Ba2YMo3O8,0.0,-2.435857132857143,mp-1048190
Sr3La(NiO4)2,0.0,-2.4358173625000012,mp-1218450
Li2Si3Ni3O10,3.7241,-2.43581092925926,mp-861061
Mn4P7O24,0.0288,-2.435702052263546,mp-540414
Nd2Mo(SeO5)2,3.3219,-2.4355731113125,mp-560590
Li8Fe7Sb(PO4)12,0.0,-2.435565862268169,mp-776746
K4Fe4(PO4)5,0.004399999999999,-2.435552281733767,mp-1200063
VP2Pb2O9,2.314,-2.435503677627551,mp-645799
Li3VCr2O6,1.9274,-2.435478421666667,mp-754615
Li4MnCo3(PO4)4,2.409499999999999,-2.435412322494135,mp-757104
Sr5Ca3Mn4(FeO5)4,0.0,-2.435237771089559,mp-1076141
Li4MnCr2Fe3(PO4)6,1.1511,-2.435153299978038,mp-779026
K2HgMoF6,0.0,-2.4351286777,mp-1112152
Mg5Mn3Zn4(SiO6)4,0.0,-2.435088941219828,mp-1222211
Li3V8ZnO16,0.0,-2.434748070357144,mp-1222531
KMnBP2H2O9,4.6073,-2.434629455070838,mp-1197780
YSb(WO4)2,0.0,-2.434418105833332,mp-1041730
LiNbCoO4,2.266499999999999,-2.43439199904762,mp-777452
Li4V9O18,1.0621,-2.4343826894623652,mp-1177174
Li2Fe4O3F8,1.9451,-2.434375198921568,mp-755479
LiV2O5F,2.1494,-2.434343463148149,mp-765596
Li2Mg2(WO4)3,4.2352,-2.434332988771929,mp-774895
MnFeSiO4,2.330699999999999,-2.434292013275862,mp-1221755
Li4Mn2Fe3Sn(PO4)6,2.4669,-2.434291942051312,mp-1177457
KMg6FeO8,1.5281,-2.434222485453124,mp-1032519
Li9Mn7(PO4)12,0.0,-2.434190039095152,mp-778041
K3Mn4P5H3O20,0.8538000000000001,-2.43414055929824,mp-1224486
Li2MnFe2(PO4)3,0.0,-2.433967139676313,mp-767440
Li4Mn8O9F7,0.5307000000000001,-2.433901796670772,mp-765998
Cr4Co3(PO4)6,2.2862,-2.4338500134556,mp-17223
K3Fe5(PO4)6,1.833,-2.433813966042292,mp-566670
Li2Mn2P2O9,0.6065,-2.43381159278763,mp-867571
Ti3Fe5O12,0.1989,-2.4337888755,mp-698576
Ti(WO4)2,2.4069,-2.433770533484848,mp-1041486
Li4Mn2NbNi3(PO4)6,0.4912,-2.433757865176313,mp-776611
KSmSnWO6,2.0587,-2.433707769224999,mp-1521946
Ba2AlCr3O8,0.0,-2.433640662142856,mp-1048171
Na6Li3Fe6(PO4)8,1.4336,-2.433602145916704,mp-1101725
EuNbFeSnO6,0.0,-2.433550817,mp-1517512
V2GaO5,0.4596,-2.433464518854167,mp-757877
Ce2Mn2Se2O3,0.0,-2.433319412838839,mp-1078566
CoAs4F18,3.4419,-2.433222992391305,mp-29758
Li2Mn(BO3)2,2.0819,-2.433216292993731,mp-776779
Li4Mn3Fe3(PO4)6,0.488499999999999,-2.433167434624589,mp-1177464
Mn3VSn2(PO4)6,0.005799999999999,-2.4330791828236182,mp-861181
Sr12Fe8O27,0.0,-2.432952483510637,mp-758049
K2UCoP2O11,0.0,-2.432932897869746,mp-1205017
Li8Fe7Sn(PO4)12,0.0,-2.432886229570803,mp-777579
Sr2V3Bi3O14,2.9555,-2.432863025681817,mp-1218693
Cs3La(MoO4)3,3.7278,-2.432833100735027,mp-1214521
Cs3Fe4(PO4)5,2.4999,-2.432821307021243,mp-581532
K2CoP2WO10,2.685399999999999,-2.432804767892857,mp-645301
LiMn2P2HO8,3.6242,-2.432800044623651,mp-755339
Li5Mn3Nb2O10,0.242999999999999,-2.4327229772729893,mp-755123
K2VPCO7,1.683799999999999,-2.432625717220238,mp-754947
Li6VO5F,2.268799999999999,-2.432587234230771,mp-765511
NaCo(PO3)3,0.0,-2.432584757879134,mp-1210393
V3Cd5P6O25,1.937,-2.432544761739925,mp-558711
LiV5O10,0.5175000000000001,-2.432542963333333,mp-1222710
KAlCo3Si3(HO6)2,2.6524,-2.432456038170453,mp-1223622
Li8Mn7Ni(PO4)12,0.0,-2.4323805682618183,mp-776162
Li8Mn7Co(PO4)12,0.0196,-2.43222415549866,mp-758412
CaCrO4,2.3714,-2.43201730833334,mp-19215
Na2MnAgF6,0.0,-2.432016140235632,mp-1111324
LiMn2(BO3)2,0.4846,-2.431989755411703,mp-780663
Li4Ti3Fe3(SbO8)2,0.1614,-2.4319691526190472,mp-865132
Li4Mn2Fe3P6WO24,2.1317,-2.431952302426312,mp-770860
Na2VPCO7,2.152199999999999,-2.431764256033456,mp-770717
Li4Ti3Ni3(WO8)2,1.1067,-2.431726111547618,mp-769613
Mn2VFe3(PO4)6,1.067999999999999,-2.431726041492199,mp-767701
Mg6NiSnO8,0.024399999999999,-2.4316822178125,mp-1031822
Li3VPCO7,3.020399999999999,-2.431616682087913,mp-25463
K7Bi2P6(W2O17)2,0.2834,-2.431596407709567,mp-1212704
P3W2O13,1.8082,-2.431593655496031,mp-757302
LiP5W3O19,1.0239,-2.431489804340986,mp-763535
CoP6(WO8)3,0.0,-2.431482152584033,mp-774466
Mn3(OF3)2,0.8081,-2.431303156708465,mp-1639489
Ba2Nd2Mg(Fe2O5)2,1.563499999999999,-2.431236559473684,mp-2230169
Mn2Zn(PO4)2,2.6031,-2.431135604626753,mp-1040884
Ti3Mn2Cr3O16,0.9039,-2.431120013994254,mp-776119
YSn(WO4)2,0.0,-2.431070379166666,mp-1042152
Li3Ti2Fe3O10,1.680399999999999,-2.431070082592593,mp-762694
YCrO2,0.0,-2.430948761249999,mp-1207648
Ba2LiY2(Fe2O5)2,1.7834,-2.430945058596491,mp-1235532
Ca3Fe2(ReO6)2,1.3365,-2.430837287105263,mp-1366463
Sr4Fe3ClO8,0.2749,-2.430725191875,mp-1147563
Sr7CaMn4(FeO5)4,0.0,-2.430721331922891,mp-1099692
Cs3Mo2(O2F)3,3.9977,-2.430609173140396,mp-562523
Li3V7O12,1.1031,-2.430557024090909,mp-752640
K2NiP2WO10,3.4701,-2.430548347111607,mp-556502
Li4NbFe5(PO4)6,0.5354999999999991,-2.43052806252976,mp-759245
Li2Mo(PO3)8,0.045499999999999,-2.430333706394559,mp-687229
Li3MnSiCO7,1.0362999999999989,-2.430324807533157,mp-772668
NbTlV2O8,2.452,-2.430259835277778,mp-1194961
MgNb2(CoO4)2,1.7564000000000002,-2.430182587307692,mp-2219413
K2MnAuF6,0.0,-2.430091991243102,mp-1112261
Sr2CrSO3,0.0,-2.430052570357144,mp-1046654
BaLa4(CoO3)5,0.2804,-2.430043463400001,mp-1228419
ZnNi(PO3)4,0.3511,-2.430006319920634,mp-540948
Li2V3O7,2.4638,-2.429857301666667,mp-772164
K4Th(MoO4)4,4.0216,-2.429724222360001,mp-555417
Li2CrPCO7,3.029299999999999,-2.429644498234127,mp-776285
SrEuFeSnO6,0.0,-2.429639649,mp-1522302
Li2Mn3(PO4)4,0.0,-2.429619398361247,mp-758818
Sr4Fe3MoO12,0.029399999999999,-2.4295859634999992,mp-1218549
K5LuHf(MoO4)6,3.8503,-2.429561427916667,mp-1224538
Li4VNi3(PO4)4,1.525799999999999,-2.429504070782312,mp-757423
V2Zn(PO4)2,1.4466,-2.429473843983515,mp-1041035
Mo2P4O15,2.6659,-2.429425850408163,mp-1221698
NaPWO6,3.723499999999999,-2.429373616641351,mp-21913
AlFe3(SiO4)3,1.977,-2.429344390131579,mp-1250723
YMgCu(WO4)2,1.6853,-2.429325895769231,mp-2233909
Li7Ni2P7O24,0.0,-2.429297383145832,mp-867543
TiMn3Te2(PO4)6,1.3624,-2.4292951096754702,mp-758912
YW3O8,1.553799999999999,-2.429232969166666,mp-1042613
Li2V3SnO8,1.2894,-2.429232301190476,mp-776870
Li4Cr2P4H3O16,0.9278999999999992,-2.4291759246777502,mp-756092
CoP4O11,3.364999999999999,-2.429095702254464,mp-562669
Pr(WO4)2,0.053,-2.429071281969696,mp-25198
K3V3O8,1.8564,-2.428991238339287,mp-18761
CaFeNiP2O9,0.1203,-2.428921200306123,mp-1043130
LiCo(PO3)4,1.3617,-2.428703609133598,mp-26997
Sr2La(FeO3)3,0.0,-2.428633384,mp-1218808
BaCaMnSnO6,0.0,-2.428504817293105,mp-1518884
SrMgInWO6,0.0,-2.4284691051666663,mp-1522468
KHfMnSbO6,0.8812000000000001,-2.428444011518103,mp-1522497
NaV2O4,0.487299999999999,-2.428390768768473,mp-1296331
LiNd2Tl(MoO4)4,3.0065,-2.428362841319445,mp-630880
Na2MnHgF6,0.0,-2.428299653318966,mp-1111165
LiMnP3HO10,1.6683,-2.428137754933933,mp-849312
Mn5Cr(PO4)6,0.0,-2.428088025208675,mp-771695
Mn2Fe3P6WO24,0.0,-2.4280078439922,mp-757052
LiVO3,3.0342,-2.427956693666675,mp-19373
Li4Ti3(CoO4)3,0.9952,-2.427889249469696,mp-1642451
Li5Mn2Co2(PO4)4,0.046499999999999,-2.427802100037938,mp-1177107
Li6Mn3Cu(PO4)6,0.188399999999999,-2.427732596541256,mp-757599
NaAl5FeP4(H5O12)2,4.577999999999999,-2.427631383387793,mp-1210323
SrEuCrInO6,0.0,-2.427563387166667,mp-1518655
Ba3Mn2O8,1.6908999999999992,-2.427450099297096,mp-19188
NiP6(WO8)3,1.9379,-2.4273773558193272,mp-850286
SbP6(WO8)3,0.0,-2.427338771995798,mp-775007
Li7Mn3(SiO6)2,1.335999999999999,-2.427310479463601,mp-767011
Li3Co5OF11,2.6076,-2.427307759,mp-754832
Li2V6O13,0.0,-2.42729923531746,mp-555660
Ca3LaMn2(IrO6)2,0.0,-2.427286103543104,mp-1227846
LaFeReO6,0.0,-2.427076379166666,mp-1043955
SrNdMnCoO6,0.0,-2.4270500055431032,mp-1218143
Li4V5O12,0.7449999999999991,-2.426929847539682,mp-851075
Sr16Fe6Co2Mo8O45,0.630899999999999,-2.426838183051948,mp-703320
EuFeO3,0.0,-2.426775158000002,mp-504703
KLaFeWO6,0.0,-2.426766052225001,mp-1523210
U3W2O17F2,0.0,-2.4267264156249992,mp-1195380
Li4Nb3V2Fe3O16,0.4249,-2.426666282976189,mp-776847
Mn11Fe(PO4)12,0.438799999999999,-2.426654255596607,mp-849792
V2WO6,0.0,-2.426564660555556,mp-20312
Mn9(PO4)8,0.244,-2.426548707724942,mp-704227
K5NaNi5(P2O7)4,3.9214,-2.426516016910045,mp-1224256
Cs2Mg2(WO4)3,4.659,-2.426476608121597,mp-1195571
LaVZnFeO6,1.565999999999999,-2.4264667495,mp-1044032
Mn3Cr2Sn(PO4)6,0.0,-2.426308800740285,mp-1176479
Li4MnNi3(PO4)4,3.029099999999999,-2.426224341065563,mp-757099
MgV8O16,0.9959999999999992,-2.426218595800001,mp-2216842
Na2VHgF6,0.001599999999999,-2.425940995749997,mp-1111409
Li10Co(SiO5)2,1.9515,-2.425933910797102,mp-763575
Sr3Ca5Mn3(FeO4)5,0.0,-2.4258546525359193,mp-1076482
Mg4(MoO4)3,1.3511,-2.425814970000001,mp-1211208
Li7Mn11(Si3O16)2,0.2855,-2.425796171438835,mp-757389
Li2Si4Ni4O13,3.4563,-2.425794646594203,mp-757413
NiP4O11,5.039099999999999,-2.425757827410713,mp-28957
Li4VCr3O8,1.907499999999999,-2.425752464583333,mp-776618
Li4Mn3Nb3(SnO8)2,0.0,-2.425669672040229,mp-760145
Li3Mo2P3O14,1.2828,-2.425664089553571,mp-699602
Li5Mn3O5F3,0.6905,-2.425636418778736,mp-759593
Ba3Ti3Fe3(BiO9)2,0.0,-2.425628873793104,mp-1228452
MnV2Fe3(PO4)6,0.5415000000000001,-2.42554027293856,mp-766226
Nb2Zn2FeO8,2.411,-2.425479831538461,mp-1046751
CaP3W3O13,0.9698,-2.425453621696428,mp-1047875
Ba2AlTlV2O7,0.0,-2.425441646025641,mp-1265780
Cr3Co(PO4)4,0.6985,-2.425380527440477,mp-774666
Ba3NiSb2O9,0.0,-2.425335596166667,mp-17269
NdNiO3,0.0,-2.425266711,mp-22106
NaYSnWO6,2.544699999999999,-2.425240351637931,mp-1517501
Li2V3CoO8,0.0,-2.425220934047618,mp-1291671
MgV2ZnO6,2.0656,-2.4251186015,mp-2217478
Ca9(WO3)20,0.3628,-2.4249554241573033,mp-1178586
Li2Ti2Mn5O12,0.774099999999999,-2.424784506808977,mp-758979
Li3Mo4P5O24,2.5369,-2.424595469950397,mp-705470
Ta2Zn2WO8,0.5225000000000001,-2.424497761128205,mp-1046251
Sr2Mn3(BO5)2,0.008299999999999,-2.424479820125084,mp-1218788
LiCrP2HO7,3.1235,-2.424457104489086,mp-755270
Li4V11O22,0.8909,-2.424377827657657,mp-758647
MnV3Co2(PO4)6,0.0,-2.424360743771894,mp-1176460
Li2V3WO8,1.6544999999999992,-2.424273058690477,mp-1309047
LiV2H4(OF5)2,1.0144,-2.424191990438597,mp-753201
Nd5Mn8(PbO8)3,0.0,-2.424077767023706,mp-1210163
Li3FeSiBO7,0.0,-2.424018424551282,mp-771289
Li12MnV3P4(CO7)4,1.4911,-2.423955877432739,mp-861267