formula,bg,formation_energy,mp-id
NiOF2,0.7987000000000001,-1.5840307412499999,mp-767981
TlV3Cu5O13,0.184099999999999,-1.583983975378788,mp-21728
Li5Fe2Ni5O12,0.0,-1.583746454861111,mp-771319
MoPCl5O3,2.374399999999999,-1.583622983339285,mp-553968
Zn3Fe12(CoO12)2,0.0,-1.583548434878049,mp-1216048
Li3MnNi3O8,0.0,-1.583539662528735,mp-753219
Cr3(AsO4)4,0.681,-1.583342085652174,mp-1041638
Fe5(O4F)2,0.0,-1.583116242666668,mp-1178299
Ca2CrH3(IO5)2,1.5036,-1.582977899374999,mp-1214456
Ba3(Mo9O14)2,0.7694000000000001,-1.582890668571429,mp-530107
Cr2Bi3O11,0.0,-1.582733727187499,mp-1196207
Li4Co3Ni3(SnO8)2,0.0,-1.582334216547618,mp-849378
K2Mo(SO)2,2.2395,-1.582253514214284,mp-1104357
Co(Bi3O5)4,1.1879,-1.582195239696968,mp-677295
Ba(MoO2)4,0.0,-1.58211160076923,mp-1047842
LiMn4(CoO6)2,0.0,-1.582034045003025,mp-1235264
Cr3Se2ClO8,0.4265,-1.581897012834822,mp-1048591
Co2Sb2O7,0.770999999999999,-1.581761497272727,mp-1192102
Li3(CoO2)4,0.0,-1.5816086400000011,mp-759191
KMnH4Cl3O2,4.1752,-1.581524176607366,mp-743617
NaZn2(MoO5)2,0.0,-1.5814117007586221,mp-1104572
RbMnH4Cl3O2,2.375,-1.581327482311913,mp-23928
FeP2NO7,0.1441,-1.5811318137987,mp-1200863
Li4Mn3Co3(NiO8)2,0.899,-1.580879527754516,mp-758046
NaV5H18N2O19,2.4451,-1.580829454975095,mp-1198514
Li4MnCu3O8,0.0,-1.5808196675790231,mp-756491
Li2Mn2CoO8,0.0032,-1.5804527348099031,mp-1222848
Co29Ge13O56,0.005499999999999,-1.5804295284183671,mp-764992
Mn7Fe3O20,0.0,-1.5802633710172411,mp-777317
K2WC2O9,2.8001,-1.5802317305,mp-556573
LiCo2(CO3)4,0.302799999999999,-1.580106595964913,mp-753292
Na5MoNO4,2.8972,-1.579880492445141,mp-554966
Li3V(H4O3)4,4.085100000000001,-1.579868709062499,mp-1201415
Mn9(Cu3O10)2,0.0,-1.579756746325123,mp-685488
Li5Cr2Cu3O10,0.180299999999999,-1.579612999333333,mp-755623
Li4Fe3TeO12,0.0,-1.579284039499999,mp-755294
V6Cu11O26,0.2561,-1.579165843488373,mp-29507
Rb2CoH12(SO7)2,3.3173999999999992,-1.579162687419354,mp-24111
SrGd(CoO3)2,0.0,-1.578925825999999,mp-1218287
MnTeO4,0.0,-1.5788072640996171,mp-755237
MgMo2H4(Cl2O3)2,0.0,-1.578756784117647,mp-2240875
Y(NiO2)3,0.0,-1.57856882675,mp-1045129
V2Co(H4O5)2,2.2427,-1.577676992380952,mp-1179723
Pr(CoO3)2,0.0,-1.577527210740741,mp-1376950
CuMoO4,0.440699999999999,-1.5773445200000011,mp-619545
Na6Mg(CoO3)2,0.9051,-1.577159278885057,mp-2233259
V5NiH20NO22,2.5253,-1.5770436529591831,mp-1199406
NiSb2H8(O3F4)2,0.0,-1.577028477,mp-1180862
Li5Fe2Cu3O10,0.0,-1.576931387833334,mp-771233
MgFe4(HO2)4,1.3886,-1.57686285235294,mp-2229655
Li4Co5Te3O16,0.0,-1.5767786329761901,mp-781593
MgMnCd6O8,0.0,-1.5766021445581881,mp-2232822
VH12C2S2(O2F)6,2.422599999999999,-1.5765326674285711,mp-699429
V4Bi23O44,0.676,-1.576470658309859,mp-1100982
RbNa3Mo2H18O17,4.584300000000001,-1.576442667539949,mp-735488
MnH5SO7,2.2188,-1.576092673691502,mp-728374
LiFeCoO4,0.7167,-1.576017184047618,mp-850214
Ca2Ni3O8,0.9173999999999992,-1.5759408007692302,mp-1387694
KVHO3,2.9702,-1.575889043083333,mp-1211305
V2Se2O11,2.1812,-1.575888708979166,mp-972384
Rb5Fe3(SO5)6,0.1034,-1.575666437329545,mp-863290
NaCoH2C3O7,2.6116,-1.5756030293842371,mp-758128
BaMo4O15,1.2307,-1.575583413875,mp-729474
Li3Fe(CoO2)4,0.0,-1.57555478375,mp-1177773
Ca(Fe9O13)2,0.9447,-1.5754943902222232,mp-1365538
K6Cr2O9,0.522899999999999,-1.575412637558823,mp-755102
Mn2Cd3O5,0.0,-1.5753388840862061,mp-760391
Li12MnCo(Ni5O12)2,0.0,-1.575299944331896,mp-1120802
Cs2Cr4Cu(HO4)4,0.8804000000000001,-1.575264359418901,mp-603257
Li5Fe(Ni2O5)2,0.0,-1.575147343333333,mp-753971
ZnW2O5,0.498499999999999,-1.575032855625,mp-1043251
Li4Mn3Co2Ni3O16,0.0,-1.574867297040231,mp-867541
Li9Co9O17,0.8649,-1.5747454575714281,mp-728514
Fe5(BiO4)3,1.7527,-1.574656109375,mp-531715
Co(GeO3)2,0.0,-1.574413920555555,mp-1043245
LiFeP(H6O5)2,4.0501,-1.574298170519048,mp-782655
Li3Co(NiO3)2,0.0,-1.5740996858333332,mp-754316
V2Ni3Te3O16,0.0,-1.574075602083334,mp-770963
MgCd2(FeO2)4,0.7641,-1.573523284999999,mp-2232135
Li3Fe2(NiO4)2,0.0,-1.573516122,mp-767955
Rb2Cr4Cu(HO4)4,0.7878000000000001,-1.5734113525925921,mp-603245
Fe2CoO4,1.5511,-1.5725015085714271,mp-753222
LaNiAsO,0.0,-1.572277686875001,mp-1079362
Li4(FeO2)9,0.0,-1.5722452917204301,mp-771396
YMn2AsO4,0.0,-1.5719703426077591,mp-1208646
Mn2FeO6,0.0,-1.57185590954023,mp-754962
K2VH4C4O9,2.9211,-1.5717647304125,mp-601242
Li4Co3Ni3(TeO8)2,0.0,-1.571733301309523,mp-757279
MgTl4(WO4)2,0.6381,-1.571624724555557,mp-2232187
Cr3AuO8,1.1076,-1.571547349999999,mp-641367
Mn5(TeO6)3,0.1575,-1.571480415371352,mp-1046509
Nb3VF6,0.0,-1.5714491703,mp-1210404
Fe41O56,0.0,-1.571110422886596,mp-757565
Li2(CoO2)3,1.1551999999999991,-1.570815814696969,mp-758725
ZnCu2(MoO4)2,0.9738,-1.570572925192307,mp-1041415
ZnCr2O6,0.0,-1.570351122222222,mp-1045720
Be2Ni(NF7)2,1.0334,-1.570195767631578,mp-1215141
RbMgV5(H8O11)2,1.3558,-1.56987914461111,mp-744816
LaEu3(NiO3)4,0.0,-1.569793720000002,mp-1223280
KFe(SeO3)2,2.2925,-1.56972896944375,mp-654225
Fe(PO4)3,0.0,-1.569527499933036,mp-1204434
MnCo2TeO6,1.4605,-1.568870556959769,mp-1221785
Li2Fe3NiO8,0.0,-1.568677991190476,mp-776112
Li3Co4TeO8,0.0,-1.568578554791667,mp-756161
BaSr3Co2Cu4(SO)4,0.0,-1.5684210666666671,mp-1227981
Ni2(SO4)3,0.0,-1.5683437807352931,mp-768504
Co3P2(HO)16,2.3677,-1.568116719980694,mp-1202701
MgFePbO3,1.101299999999999,-1.567698448333332,mp-2215808
Ni3P2(HO)16,3.8665,-1.56758384592664,mp-1198584
SrTbEuCoO6,0.059099999999999,-1.567572304416667,mp-1518694
Li2Co4O7F,0.0,-1.567276254761903,mp-780622
Na9Fe2O7,1.6267,-1.567115631800765,mp-16398
Na2CoH8(CO5)2,2.9669,-1.567000708380811,mp-735556
NaMgNiIO6,2.1715,-1.566670387137931,mp-2223065
Ti6Fe(BiO3)9,0.0,-1.566593552441861,mp-1217937
V3Co5O16,0.0,-1.566449687916667,mp-867562
K3(FeO2)2,0.0,-1.566424215749999,mp-18865
Fe7Sb10(Br4O9)2,2.4551,-1.566406442790697,mp-1203691
MgFe5CuO8,0.7279,-1.566362956999999,mp-2232938
Fe2(TeO3)3,1.9127,-1.5662709866071431,mp-605856
Li5Mn2Cu5O12,0.0,-1.566203557188697,mp-764735
Li3Fe(CuO3)2,0.098599999999999,-1.566039994166667,mp-755201
Na4NiH38(W3O20)2,3.8222,-1.566037135651878,mp-1202939
Li2FeH12(SO7)2,4.1187,-1.565790206344085,mp-770572
Na2NiH12(SO7)2,4.9138,-1.565576955572858,mp-542864
Na4MnO3,0.7397,-1.5653953807435341,mp-774812
CrCoO4,0.506,-1.565389313333333,mp-18788
Li9Cr2(H9O7)3,3.8432,-1.5646347188771181,mp-778388
MgV2Ag2(HgO4)2,1.6348,-1.564582594888889,mp-2232484
Ag2Te3Mo3O16,2.020299999999999,-1.5645405863888882,mp-1190916
Co2As2O7,1.7498999999999991,-1.5642302336363652,mp-1204772
ZnMo4O9,1.5196,-1.56414785607143,mp-1047822
Rb2NiH8(CO5)2,3.0871,-1.564111735,mp-24623
MnTe6O13,2.3901,-1.564019507896553,mp-1201691
Fe3(TeO3)4,1.7774,-1.564010085219297,mp-561343
Li2Co3BiO8,1.1113,-1.563510446190476,mp-756423
Mg(NiO2)2,0.0,-1.563390702857143,mp-755557
MgCo4(O3F)2,0.430699999999999,-1.563266532692308,mp-2219975
V9O20,1.2888,-1.563205460689656,mp-1100929
CdFe4NiO8,1.055899999999999,-1.563054494285713,mp-1226789
K2CoH8(CO5)2,1.7805,-1.5629499323695661,mp-24350
KV2PO11,0.0,-1.562821777292857,mp-1195351
Rb4MgMo2(SO)4,1.3291,-1.562639917666666,mp-2228726
Na3CoO3,0.8294,-1.5625870084482751,mp-31126
MnZnBiO5,0.8458000000000001,-1.56246736786638,mp-1044195
Li2FeCo3O8,0.0,-1.562395027261905,mp-861570
Tl2Cr2O7,2.2892,-1.562378462424243,mp-31230
Zn3Fe16Ni5O32,1.0755,-1.562256121964287,mp-1199236
MgFe(CoO3)2,0.0,-1.5621230215000002,mp-2240242
Cr3Co3(TeO8)2,0.0,-1.561875765972222,mp-757983
Co2(SO4)3,0.1395,-1.561643072647058,mp-1178458
Li2NiH8(CO5)2,4.422000000000001,-1.561618557681159,mp-771916
Li5Co3(NiO5)2,0.5467999999999991,-1.5614795628333331,mp-755076
VPO7,1.3569,-1.561351912182539,mp-1203184
CrH6SO7,0.1732,-1.5605834049999991,mp-734839
MgNi2(BiO3)2,1.8305999999999991,-1.560491593181818,mp-2217787
Li2NiH12(SO7)2,4.845099999999999,-1.560249456344086,mp-771658
CrCuAsPb2O9,0.6524000000000001,-1.560037010535713,mp-1213944
Ba(FeO2)4,0.0,-1.560009504615385,mp-1412406
CeNiAsO,0.0,-1.5599558243749991,mp-1079455
BiMoO5,0.0,-1.559886544285715,mp-1044194
Fe5HO8,1.103899999999999,-1.559502952946429,mp-1193306
Li2Co3TeO8,0.028299999999999,-1.559501833095238,mp-1178026
Cs2CrH8Cl5O4,3.1383,-1.559388274465517,mp-1202581
Rb2CoH8(CO5)2,1.8421999999999992,-1.559357923695651,mp-24624
Tl3(MoO4)2,0.0,-1.55915288923077,mp-25272
MgMn(CoO2)4,0.0,-1.559099607352217,mp-2226835
Na2MnO4,0.0,-1.559046347955664,mp-28186
Fe23O32,0.67,-1.559012010545455,mp-776135
Na2MnNiO4,0.0,-1.558911040086206,mp-1221327
K2Be2Ni(O3F4)2,0.5479,-1.5588787807631581,mp-1200199
NdDy(CoO3)4,0.0,-1.5584581310648131,mp-1516702
Li13Mg(Ni6O13)2,0.0,-1.558443698429486,mp-769522
Hg2Mo2O7,2.198899999999999,-1.558184639545455,mp-554533
Fe3Te3ClO10,1.9995999999999992,-1.558137695882353,mp-1200464
IrWO6,0.0,-1.558045056249999,mp-1047152
Li3Co2CuO6,0.0,-1.5579558391666661,mp-754066
ZnCr2CuO7,0.2288,-1.5579233446969691,mp-1041817
Li4CoNi3O8,0.072799999999999,-1.5577227014583341,mp-867640
RbCrO3,0.0,-1.5577121245,mp-1076360
Li4FeCo5O12,0.0,-1.557692159696969,mp-756543
Mn5CuO12,0.0,-1.557574036091954,mp-756191
NaCoO2,2.245199999999999,-1.557503675344833,mp-18921
Mn(HO)2,1.9589,-1.5574441130862071,mp-23789
K3(FeO2)4,0.0769,-1.557380778116666,mp-1224086
Fe2P3O13,0.0,-1.557358493829366,mp-697819
EuFe4(CuO4)3,0.0,-1.557005599749999,mp-1190091
Li2CoCuO4,0.0,-1.556975962083333,mp-753366
Na3MgNi2SbO6,2.2935,-1.5567935222413791,mp-2227506
VH3O4,0.0,-1.55632651921875,mp-1216479
MgMoOs(PbO3)2,0.3928,-1.556242818636363,mp-2218000
TeWNCl4F5,2.2532,-1.556219200972221,mp-557736
AlCu3(MoO3)4,0.0,-1.556199553999999,mp-1045851
VCu6AgMo5O24,0.121199999999999,-1.555826803558558,mp-1100940
NaMg(CoO2)3,0.8651000000000001,-1.555767706034483,mp-2225037
Na2V9MoH35(N2O19)2,0.8195999999999991,-1.555708276252906,mp-1173851
BaMn2O8,1.8724,-1.555597785532916,mp-27681
Mn3Co3(SbO8)2,0.5298,-1.5555690489080451,mp-863857
Rb17Fe5O16,1.978899999999999,-1.555261184144735,mp-768716
Fe13(NiO10)2,0.0,-1.555027266142857,mp-757258
CaFe3O7,0.0,-1.554685799318181,mp-1044389
Na5MnHO4,0.0499,-1.554679548961599,mp-759434
Li9FeCo12(PO4)12,0.028,-1.55465552543554,mp-744651
NiSn2(OF)6,1.829,-1.554592991333333,mp-1210687
Mn3Cu2NiO8,0.0,-1.55448934455665,mp-1221799
VBiO5,0.0,-1.554036183214285,mp-1372756
BaWO2,0.0,-1.553673471874999,mp-1214266
Li2Ni3SbO8,0.6613,-1.553617382976191,mp-1303958
Fe2Te4O11,1.4736999999999991,-1.5533205870098041,mp-30995
Rb5(FeO2)3,0.0,-1.553092329464285,mp-1193332
Mn5Fe3O16,0.0,-1.552759837902298,mp-773198
Co3(AsO4)2,1.958699999999999,-1.5521458273076931,mp-562111
FePH4NO4F,2.396,-1.551726947157738,mp-541423
KAlCr2O10,0.0,-1.551409781946429,mp-1104925
MnZn2IrO6,0.0,-1.551182317293103,mp-1047090
Fe3P2PbO14,0.0,-1.5511454899642851,mp-1188752
V(HO)2,1.4013,-1.5510046505,mp-32493
Li5Co5(NiO6)2,0.045599999999999,-1.550779824027777,mp-765645
Ni3Te2MoO10,2.9872,-1.5507354220833331,mp-1198070
Ca(CoO2)4,0.0,-1.550700241538461,mp-1385949
AlCu3(WO3)4,0.0,-1.5506729815,mp-1045892
NaMgFe(SeO4)2,0.169699999999999,-1.550374600082061,mp-2218799
Mn5Cu3(Te2O5)8,0.4852,-1.550147666348777,mp-1222077
Mn(CoO2)2,0.4821,-1.549466782918719,mp-767807
Ag2Mo3SeO12,1.7276999999999991,-1.549436900454281,mp-556429
ZnCu3(MoO3)4,0.1406,-1.549206299,mp-1043065
Zn4Co5(TeO6)3,0.9073,-1.5492037505,mp-1046528
FeHO2,0.0,-1.5491195084374991,mp-605437
Na4CrO3,0.0,-1.548893628814655,mp-849604
SrNd3Fe4(AsO)4,0.0,-1.54887222765625,mp-1218216
BaFe15O23,0.0,-1.54843708551282,mp-705834
Rb4Mg(CoO3)2,1.3476,-1.548436896538461,mp-2233465
Li2Fe2CuO6,0.0,-1.548110614242423,mp-849448
MgNi(TeO3)4,1.5113999999999992,-1.547715426203703,mp-2229023
K5FeO4,2.298899999999999,-1.5476510366249991,mp-12040
Cs3FeO3,2.1129,-1.547254847352217,mp-1193066
CrGeO3,0.0,-1.547161351999999,mp-1183712
Ca(Co2O3)2,0.263799999999999,-1.5467561627272721,mp-1043610
Na6MnO4,0.7683,-1.546469678746081,mp-774338
Li4Mn(Ni2O5)2,0.0,-1.546402325856019,mp-758663
VAgSeO5,0.9513,-1.546204202688799,mp-557135
NaFe(SeO3)2,2.278299999999999,-1.545775797106681,mp-880385
K12Mo4S11Cl4O5,2.3966,-1.545740604291666,mp-1224205
Na14Mn2O9,0.5456000000000001,-1.5456692728068961,mp-27569
Li4Mn2Fe3Cu3O16,0.0,-1.545371491756979,mp-774612
AgMoAsO6,2.019,-1.545089119629629,mp-1229143
ZnCu3(WO3)4,0.0,-1.5448030165,mp-1043315
Mn3Co3(SnO8)2,0.0,-1.544738684324713,mp-770554
Nb2Co3(PO7)4,0.0,-1.544722886718145,mp-1199515
Li3MgNi3O8,0.256499999999999,-1.544558984666667,mp-772324
Fe21HO32,1.3254,-1.54452463548611,mp-705638
RbVH6SeO9,2.723799999999999,-1.543930020130208,mp-1199880
Mn2Cr3Co3O16,0.6543999999999991,-1.5439163464942531,mp-1176520
W(BrO)2,0.7636000000000001,-1.5436722950000001,mp-2459381
ZnCoTe3O8,2.8426,-1.543669575192307,mp-1215732
Rb2Be2Ni(O3F4)2,0.2432,-1.543640769736841,mp-1209878
Na3FeO4,0.3186,-1.543383047079741,mp-764457
VH10SO10,3.0782,-1.54325867715909,mp-721365
Ba2Tl2Zn2Co3O10,0.0,-1.543201972982458,mp-1046507
Mn4Cu3BiO12,0.0,-1.542829750586207,mp-1210616
AlCrMo6(H19O20)2,3.412,-1.542792952180233,mp-1201081
LiNi4O4F,2.4951,-1.542769567833333,mp-753307
Fe2AsSO9,0.052699999999999,-1.542743548461537,mp-1224760
MgCo4(SbO6)2,0.8664000000000001,-1.54251263868421,mp-2231381
Fe3H9S2O15,1.955299999999999,-1.542498014181034,mp-1224975
MgFeBiO3,0.0,-1.542377415,mp-2225597
Co10Ge3O16,1.442299999999999,-1.542332138448275,mp-28961
VAg(HO2)2,2.0853,-1.542220900520833,mp-24576
CaFe2CoO7,0.0093,-1.542058967045454,mp-1338518
NaMg2Fe3P4(H9O13)2,0.7998000000000001,-1.5420182053231621,mp-1173652
FeH12C2S2(O2F)6,4.3131,-1.5418566079999991,mp-743577
Na2CoH12(SO7)2,2.127199999999999,-1.541728514927696,mp-1203216
KVH6SeO9,2.7192,-1.5413614415052082,mp-1201848
Li5(CoO2)8,0.431,-1.541109236609196,mp-766589
FeMo2H7O11,2.6523,-1.541024084226189,mp-1567719
ZnCoSn2O7,0.1659,-1.540946656136363,mp-1334806
VSb(SeO3)4,1.5958,-1.540754288576389,mp-1216305
Li2Fe3CuO8,0.0639,-1.540407883511903,mp-775479
Na7(FeO4)2,0.0,-1.54027340189148,mp-779838
LiFe8(O7F)2,0.0,-1.540257696133333,mp-1235069
Na3FeH10C6O17,2.6301,-1.540198879571296,mp-1201957
HgMoO4,2.2557,-1.5400649545833351,mp-19363
Mn2CoO6,1.335,-1.5399096939846741,mp-761501
MnCuO2,0.178699999999999,-1.539728060732759,mp-510589
SrNiRu5O11,0.0,-1.539672099097221,mp-1198840
Li2CoH12(SO7)2,3.3291,-1.539531480537633,mp-770638
Fe3Co(BiO3)4,0.7248000000000001,-1.5393829725000001,mp-1181596
Ni2As2O7,0.1813,-1.539293493636364,mp-1199861
Ni3(AsO4)2,2.1524,-1.539186062307693,mp-504969
Cr3HO8,0.0,-1.539094940104166,mp-602355
Na2MnCoNiO6,0.0,-1.538817075517241,mp-1221339
NaFe6H12S4O29,0.0,-1.5388116698342171,mp-1221452
Cr(FeO2)3,1.0932,-1.538731719375,mp-1245256
NaCoPH10CO10,3.3235,-1.5385512695217571,mp-1197566
V(TeO3)4,1.0937,-1.538538349803922,mp-762679
MgNiBiO5,0.7227,-1.5385012590625,mp-1044415
Al(NiO2)3,0.0,-1.53839788525,mp-1045119
CoSbO4,2.114,-1.5383490141666671,mp-758123
K2MgFe4O7,1.2704,-1.538321791749999,mp-2228468
UCr(HO3)2,1.8085,-1.538246307749999,mp-1208618
ZnFe4CuO8,0.0,-1.53802864142857,mp-1215656
K5Te2Mo6H18NO36,0.199599999999999,-1.537996037677696,mp-1228356
K3FeO4,0.243299999999999,-1.5379639333437491,mp-28696
Na2MnH4(SeO5)2,2.38,-1.5378633273882711,mp-1201159
Li2(FeO2)5,0.0,-1.537668195098039,mp-762529
Na3Ni2(GeO4)3,0.0,-1.537532181081896,mp-1013808
Mn2Sb3I3O5,2.017899999999999,-1.537437366604774,mp-1192820
Fe3Pb4ClO8,1.120499999999999,-1.537336499374999,mp-630866
CrNiO4,0.0,-1.5371248025,mp-18726
FeSO5,0.2321,-1.5371178560714291,mp-1104530
Ni(AsO2)2,2.7724,-1.536824326785712,mp-1096784
Li17Ni11O28,0.4874,-1.536720598869047,mp-757655
ZrMo2O11,0.0812,-1.5362385096428561,mp-1204294
Ba2Tl2Zn2Ni3O10,0.0,-1.536110251403509,mp-1046545
FeSb2WC8Se2(O2F3)4,2.2834,-1.5357899016819851,mp-651106
NdSm(CoO3)4,0.0,-1.535742385694443,mp-1517706
KFe6H12S4O29,0.0,-1.53560007033173,mp-1224576
Li10Co3Ni7O20,0.0,-1.535362475583333,mp-769555
Na5CrHO4,0.068699999999999,-1.535309631081504,mp-758584
Sr3Co2O9,0.0,-1.535303919642857,mp-1208785
Cr4AgBiO14,1.6986,-1.535249863083333,mp-23565
CaEu(FeO3)4,0.0,-1.535102543055555,mp-1517148
Li8MgCo13O28,1.0704,-1.535040768033334,mp-777406
Na2FeO2,0.0,-1.5349039035517251,mp-1176388
Mn2ZnO5,0.0,-1.534771013232759,mp-1043246
Rb2Mo(CO4)2,0.8773000000000001,-1.5347607621153831,mp-1202471
MoPO7,0.391499999999999,-1.5347348871825401,mp-726717
Ba2VI5O17,2.8537,-1.5346910215,mp-581324
Li7Ni5O12,0.5358,-1.534455715555555,mp-755638
SrV3O11,0.0,-1.534323595666666,mp-1193514
Mn4Al(CuO4)3,0.0,-1.534255570086208,mp-1045744
Mn2Ni6Te3PbO18,1.8113,-1.533292138695403,mp-560090
Li7MgNi7O16,0.453,-1.5331933254301071,mp-771050
Ag3Mo3AsO13,1.7696,-1.533126685625,mp-1214986
InCoO3,0.0,-1.533098974333332,mp-755167
CaMnCu3(RuO4)3,0.0,-1.532994115396551,mp-1227254
K2Mo(CO4)2,0.9431,-1.532895092846154,mp-1199178
MgCo2(BiO4)2,1.115199999999999,-1.532881402692309,mp-2227590
MoOs(PbO3)2,0.0,-1.5327349709999991,mp-1080023
K8Li3(FeO4)4,0.0642,-1.532048470580645,mp-758545
Li10FeNi9O20,0.0,-1.5320347100833331,mp-769545
Fe5Te6(ClO9)2,0.021499999999999,-1.53193740483871,mp-645953
CrXeF10,1.5292,-1.531852312083333,mp-1204829
KGd(FeO3)2,0.0,-1.531661651224999,mp-1522629
MgWO6,1.2868,-1.5316205715625,mp-1202763
MgFe4(CoO4)2,0.6072000000000001,-1.531436886999999,mp-2224776
Fe3CoBi4(AsO6)4,0.0,-1.531405708055556,mp-1225696
ScFe3O8,0.0,-1.53137416375,mp-1219340
Na2Cr(HO)8,3.2117,-1.5311508205399271,mp-734454
Li3Cr(CuO2)4,0.0,-1.530870865625,mp-756800
LiCoH8(SO6)2,1.0268,-1.530752427013889,mp-780159
NaMgCoO2,0.0,-1.530744699275862,mp-2228265
Fe3O5F,0.0,-1.5306618005555541,mp-755958
MgCo3TeO8,0.5341,-1.530420894743588,mp-2218474
MgHg4(WO4)2,1.3495,-1.530240159000001,mp-2232580
MgCr2(AgO4)2,1.4135,-1.530008158333332,mp-2219218
MnH4(CO3)2,2.0943,-1.529960874840848,mp-23821
MgCrH10O9,3.0727,-1.52989548202381,mp-1199101
ZnNiTe3O8,3.239999999999999,-1.5296279400000001,mp-1215818
Li2Ni3TeO8,0.207799999999999,-1.5295413745238091,mp-1280510
MnNiO2,0.0,-1.5294303494827581,mp-752562
Na5FeHO4,1.5199,-1.528958671876959,mp-758930
Ni(Bi3O5)4,0.0,-1.52895501909091,mp-1209935
Co7(SbO6)2,0.8058999999999991,-1.5288507985714281,mp-685142
Rb7(FeO4)2,0.0,-1.528815732647058,mp-31512
MgMo2(RhO3)4,0.2918,-1.528752698157895,mp-2230489
Fe5NiO8,0.0,-1.5285248985714301,mp-1225019
K6Co2O7,0.8768,-1.5283027065666681,mp-19141
Mn13Cu11O32,0.0,-1.5282738721982752,mp-759736
Na4CrH8SO7,2.418599999999999,-1.527640686453201,mp-775341
ZnFe8Ni3O16,1.0206,-1.527566547857143,mp-1203466
Li2Fe2NiO6,0.0,-1.527476226060606,mp-777153
Na8Co2O7,1.412399999999999,-1.5272474905020281,mp-778231
Na2V(SO6)2,0.0,-1.5272442469269771,mp-1210593
Na8FeO6,0.022399999999999,-1.5271764094023,mp-764501
Li13Ni9O22,0.0,-1.52708872621212,mp-769473
KVH4O7,2.8415,-1.526889194403846,mp-1181165
Rb4FeO4,0.581499999999999,-1.526746542222222,mp-828605
Li3Fe(NiO2)4,0.0,-1.526706275624999,mp-757010
BaNiIO6,0.0,-1.526703367222232,mp-1147557
CrSO6,0.0,-1.5265578384375011,mp-1198864
MnTlO3,0.0,-1.526403397252875,mp-768374
Zn(Fe2O3)2,0.8089000000000001,-1.526379410454544,mp-1043611
Li4Fe2Ni3O10,0.0,-1.526230439649122,mp-754035
MoCl2O,0.0,-1.52618219375,mp-1221455
BaMg(WO2)4,0.0,-1.526007281071428,mp-1044474
Fe7O7F,0.0,-1.525927571333332,mp-1178254
BaCa(NiO2)4,0.0,-1.5258034307142851,mp-1044567
MnSeO4,1.5031999999999992,-1.525787816712464,mp-22579
Na4FeO3,1.1884,-1.5256757725646541,mp-1195898
BaEu(FeO3)4,0.0,-1.525653123055555,mp-1518402
KCr3BiO12,0.475,-1.525326084838235,mp-1196860
VFe(CuO2)2,0.0,-1.5252759012500001,mp-1216360
V2Cd(PO7)2,0.0,-1.524857266278195,mp-1105353
Li4Fe3Co5O16,0.0,-1.5248217140476181,mp-753106
Rb8Fe2O7,1.6086999999999991,-1.524184723529411,mp-561139
Zn2Fe9O13,0.7964999999999991,-1.5241370464583341,mp-1045954
Zn2NiSbO6,0.222699999999999,-1.523950066499999,mp-1339909
NiP2(H7O6)2,5.3033,-1.523609591096059,mp-1200445
Na6TeMo6(H22O23)2,3.3242,-1.523472889902354,mp-1200032
BaZn(MoO2)4,0.0,-1.523203352142858,mp-1044491
MoP(Cl3O)2,2.6537,-1.522937784214286,mp-555695
Li3Mn2Ni5O12,0.3239,-1.522864650721003,mp-758846
MnH8(NF3)2,3.3058,-1.522863210466532,mp-759690
Ca2Co9O13,0.0,-1.5226154127083331,mp-1370001
Co(AsO2)2,1.4247,-1.522453137500001,mp-1096874
CsVH12(C2O7)2,0.0359,-1.522289728582975,mp-698264
LiFeH12(SO7)2,2.3529,-1.522254188944444,mp-780157
SiNiO4,0.0,-1.522093008333333,mp-1364379
U2Mn(PO11)2,0.0,-1.522055285452472,mp-1193764
ZnFe5O7,1.1696,-1.521944227692306,mp-1046059