formula,bg,formation_energy,mp-id
CoSb2S2(OF3)4,3.1386,-2.298663042857144,mp-562774
V6PbO15,0.6193000000000001,-2.298649182272727,mp-766653
Na4U(MoO4)4,0.0,-2.29850603922069,mp-558443
V3ZnO7,2.126299999999999,-2.298497134318182,mp-1044293
Cs2CoSiO4,2.8661000000000003,-2.298495789288794,mp-542168
Ba2Dy2Co4O11,0.0,-2.298432949385965,mp-1214700
NaSrLaMnO6,0.0,-2.298355674431035,mp-1520704
Li3LaNiO4,2.6223,-2.298148036388889,mp-768238
Y2Mn2S2O5,0.0,-2.298145410532916,mp-656880
Li7Cr5O12,0.0,-2.2980387297222222,mp-757087
Li4Cr(WO4)3,1.7875,-2.298027052666666,mp-778824
Ca2MnIrO6,0.0,-2.298020989293104,mp-39440
Sm2Fe2Se2O3,0.0,-2.29789733329861,mp-1079176
Ca3CoO6,0.206699999999999,-2.29788946575,mp-1666748
LiNiP2O7,0.0336,-2.297861584329004,mp-26449
Ba3NiSbRuO9,0.5658000000000001,-2.297858505666667,mp-1228276
CaW2O7,4.2755,-2.297822475499998,mp-1042313
LiCo6P7O24,0.0,-2.297685592390349,mp-31557
BaYCr4O7,0.139699999999999,-2.297651808076923,mp-1048386
Er2CoTe2(SO7)2,1.8416,-2.297615561825396,mp-1190196
Mg3Ge3(MoO6)2,2.2601,-2.297397349124999,mp-1363886
Ca2V3Ni2AgO12,2.0567,-2.297323727083334,mp-705890
FeP2HO7,2.6776,-2.297300560503246,mp-558841
Sr21Co14O43,0.0,-2.297277216858974,mp-758139
Li24TiCr11O36,0.9405,-2.297207443518518,mp-779077
MgVAsO5,1.792,-2.2971142090625,mp-1047070
ZnCrSF5,1.245499999999999,-2.297015787812499,mp-1046709
MgMn2(PO5)2,0.0,-2.296974677343186,mp-1044068
Ba2Pr2Co4O11,0.0,-2.296939540964913,mp-1228571
Sr2CrCuSO3,0.9866,-2.2969254753125,mp-505311
Na2Nb2W2O13,0.2081,-2.296912323566243,mp-1221360
Co2BiB(PO5)2,2.016499999999999,-2.296825226778274,mp-1201553
Mn6Cr9O20,0.0,-2.296772954788178,mp-757545
Sr2GaW2O7,1.0119,-2.296736736041667,mp-1046767
NbNi2BO6,2.7318,-2.2966882569166662,mp-21600
P2W7O25,0.0,-2.296643930861343,mp-29182
CoP2WO8,2.0195,-2.296515399107142,mp-757476
TiZn2WO6,0.0,-2.296455748333334,mp-1047266
Li4Ti3Co3(TeO8)2,1.1118,-2.296384598095239,mp-753426
Ca(MoO2)2,2.3071,-2.296375504285713,mp-1042046
LiMnP2(HO4)2,1.17,-2.296222867182149,mp-755468
Sr18Co12O35,0.035299999999999,-2.2960764651538472,mp-758069
Fe3(PO4)2,0.8948,-2.295905708021976,mp-19346
KLaTbNiO6,0.0,-2.295794629891666,mp-1522770
Mn4Be3Ge3SeO12,2.5408,-2.2957888793073,mp-21535
Sr4Fe4O11,0.0,-2.295680029210527,mp-21059
SrCa4(FeO2)5,0.0381,-2.2956454115000002,mp-1218122
Li3CoPCO7,2.7757,-2.295613358434066,mp-25458
Li4Co(OF)2,1.8632,-2.295598717037037,mp-850355
Li2VGa3O8,2.2817,-2.295448383511905,mp-755571
GdCrO5,0.133,-2.295425780357143,mp-1198487
MnSb3(PO4)4,0.0,-2.295421877770936,mp-754886
LiNi(PO3)5,0.0,-2.295359183252164,mp-1101517
NdV2IO9,2.5118,-2.295312510384616,mp-1196001
Li4V2Cr3Sn3O16,1.2408,-2.29530597279762,mp-774669
SmV2IO9,2.4889,-2.295206316153846,mp-1196559
Rb3Li2Al(MoO4)4,4.2892,-2.295159761314103,mp-1209431
VWO4,0.264799999999999,-2.295116215833333,mp-770868
Mn3Co(PO4)4,0.0,-2.295070602598521,mp-757412
Li2FePCO7,2.3388,-2.294970380109127,mp-753770
Li5Mn3V2O10,0.8298999999999991,-2.294880365772989,mp-756863
Rb8Zr(MoO4)6,3.8611,-2.294839558974359,mp-1197988
V5(PbO6)2,1.840999999999999,-2.294812011052631,mp-22296
Mn5Cu(PO4)6,0.0,-2.294776599375342,mp-773506
Li6MnAlO6,1.0451,-2.294734384852217,mp-770706
LiV18O44,0.0,-2.29458869941799,mp-774591
Li6CoNiP2(CO7)2,2.848799999999999,-2.294567717087912,mp-756691
Li3V3FeO8,0.6469,-2.294518612666668,mp-755957
Sr3CoRuO7,0.0,-2.294482123749999,mp-1218485
Sr4MgFe4O11,1.7432,-2.294466452999999,mp-2231293
MgV28O70,1.2612,-2.294357921060607,mp-2237148
TiNi3(PO4)4,0.0,-2.294297536746032,mp-774679
Mn7Nb(PO4)12,0.0,-2.294218154135757,mp-776750
Na2MoH2O3F4,3.654099999999999,-2.293932572938218,mp-1201525
NaNiP2HO7,4.2632,-2.293797268354029,mp-726198
PrV2IO9,2.5277000000000003,-2.293765612820527,mp-1198275
V25O32,0.232699999999999,-2.293715779649123,mp-685164
Li2V3BiO8,0.9173,-2.293635327976191,mp-771389
K4Mn3P6(HO3)8,3.7533,-2.293570487458895,mp-1201463
Li3V2(GeO5)2,0.0,-2.293530913823528,mp-25277
MgFe3Ni2Sb(PO4)6,1.5014,-2.293478815752896,mp-1233991
CaFe5P5O22,0.6665999999999991,-2.293469929188311,mp-818432
MgV2NiO6,0.0,-2.2934237385,mp-2217145
Al2Cr2O7,0.0925,-2.293376494999999,mp-1262197
Li3NiPCO7,4.0808,-2.293316524395604,mp-25446
Li2V2P4H6O17,2.1062,-2.293245311862519,mp-1177876
Li4Cr3FeO8,2.3536,-2.293218064583333,mp-755721
Sr3NiRhO6,0.0,-2.293177183181817,mp-510070
Li8TiMn3O12,1.3652,-2.292883116616378,mp-767679
Li2PWO4F,2.2203,-2.29287212903439,mp-25399
MgCr(WO4)2,2.0177,-2.292736947916667,mp-2218121
Mn2Si2Pb2O9,1.3527,-2.292640229390805,mp-557611
Ba2Ho2Co4O11,0.0,-2.292536771315788,mp-25731
Na3FeSiCO7,2.764699999999999,-2.292454339164456,mp-771204
SrCr2BiO6,0.073399999999999,-2.292413808,mp-1218365
Li5V3CrO8,0.7462999999999991,-2.292208458921568,mp-764013
Sr10Fe10O27,0.0,-2.292196078404256,mp-1094099
PaCoO3,0.0,-2.292076873,mp-1186400
Ba4La4Co8O23,0.0,-2.291990741923076,mp-1228530
BaNaBiWO6,2.427499999999999,-2.291984825137932,mp-1516254
CrNiPO5,0.0,-2.291926426830386,mp-1226272
Mg3MoO4,0.0,-2.291883581875,mp-1099250
Sr4Mn2Bi4O13,0.0,-2.291821052646177,mp-1205023
Li4MnCu3(PO4)4,0.0,-2.291769255351278,mp-753744
Mn9Zn6Si4(SbO14)2,1.0069,-2.291742062068965,mp-850230
Na5Mn3S4(O4F)4,1.7777,-2.291687584709052,mp-1194736
SrFeO2,0.0,-2.291567745,mp-21145
KLaCuWO6,0.0,-2.2915268112250002,mp-1522686
Sr2FeRuO6,0.0,-2.291433211,mp-1218831
Fe3P3PbO13,0.5588000000000001,-2.291405899446429,mp-1198984
LiTiCrSO8,0.9273,-2.291365708125001,mp-766410
Sr3NiIrO6,0.0,-2.291196596818181,mp-18982
KMo3(PO7)2,2.1257,-2.291183801076785,mp-17306
Li5Fe8(BO3)8,1.4214,-2.291156960888888,mp-761198
Li3AlFeO5,0.244699999999999,-2.291145247999999,mp-770691
MgV2In2O8,1.602899999999999,-2.291110976794872,mp-2218306
MgFeNiP2O9,0.216899999999999,-2.291104995484693,mp-1043103
Li2Ni3P9O28,0.0,-2.291076328772675,mp-867594
SrCa2(FeO2)3,0.0,-2.291032122499999,mp-1218406
Ti2Cr3O12,0.7843,-2.291028517156864,mp-772950
Ni3P4PbO14,4.184699999999999,-2.290910959025973,mp-651726
TaMnZn2O6,0.6467,-2.290894993026437,mp-1346860
Cr3CoTe2(PO4)6,0.0,-2.290858050588625,mp-757755
Eu2Mn3Sb3O14,0.0,-2.290854570626958,mp-1225901
RbMo3(PO7)2,2.1328,-2.290742746089285,mp-1209435
ScMo3O8,1.0602,-2.290613417083334,mp-2214451
LiV(GeO3)2,2.114599999999999,-2.290570136083333,mp-559680
Cr2Fe3Cu(PO4)6,0.5381,-2.290529923551586,mp-776010
Na2LiFePCO7,1.4357,-2.290484872171908,mp-1176392
Li2Cr3P4(HO4)4,2.848199999999999,-2.290420843973727,mp-774386
Sr2MnBiPbO6,0.0,-2.290264262766458,mp-1173263
Li5Nb2Fe3O10,0.2852,-2.290213828333333,mp-754582
Li4Ni3O3F4,2.168199999999999,-2.290109064166667,mp-753092
Li6VO4F,2.3528,-2.2900719825,mp-757210
LiV3P2(HO3)4,2.0421,-2.290024178187229,mp-759104
MnFe5(PO4)6,0.0,-2.289984350160781,mp-771311
Li10V5Cr3O16,1.1357,-2.289932280980392,mp-760983
Sr3Sc2Fe2As2O5,0.0,-2.289870317142856,mp-1103895
Cs2NaVO4,3.9493,-2.289819043836207,mp-19447
Li12Co3NiP4(CO7)4,2.84,-2.289665167664834,mp-766567
Sr3Co2Cl2O5,0.0,-2.289628187083333,mp-23593
Li2V3NiO8,1.6477,-2.289423585476191,mp-777896
Nb2Zn2WO8,0.2294,-2.289380753076923,mp-1047052
Li4CrGa3O8,1.4031,-2.289252391927084,mp-756775
LiVZnO4,3.35,-2.289123346190476,mp-1222477
Li2MnV4FeO12,1.395299999999999,-2.289026891729884,mp-755976
V2O5,2.161,-2.2890218171428582,mp-25279
Cr3NiTe2(PO4)6,0.0,-2.288936694755291,mp-759830
YV(TeO4)2,1.5133,-2.288922011111111,mp-1194912
K2FeOF5,0.9737,-2.28887450161111,mp-727423
Rb2MnV2(ClO3)2,1.9437,-2.288841165225463,mp-1219796
MnCr3(PO4)6,0.0,-2.288828273405534,mp-774419
Sr4Ca(FeO2)5,0.3503,-2.28853004725,mp-1218462
Sr4Co3ReO12,0.2418,-2.288483668624999,mp-1218565
Li2Fe2SiO6,2.5634,-2.288455406060606,mp-753647
Sr2Mn2GaO7,0.0,-2.288432125696838,mp-1047085
Fe4(PO4)3,1.579899999999999,-2.288405915206767,mp-31780
Mn3CrCo2(PO4)6,0.0,-2.288319643379173,mp-757284
Sr2GaMo2O7,0.0,-2.288193432291665,mp-1046487
Gd2CoTe2(SO7)2,2.163399999999999,-2.288152659920634,mp-1190470
NiSn3(PO4)4,0.7363000000000001,-2.2881495255654762,mp-756765
Ba2TlV2O7,0.0,-2.288148867361112,mp-1046359
Li2V5CoO12,0.0,-2.288137659333333,mp-755221
MnBP(HO3)2,4.1606,-2.288084367355202,mp-1200751
Mg2Mo3O8,0.0021,-2.288069626923077,mp-19139
Ba3Fe2BrO5,0.0,-2.287973905454547,mp-1147585
Li2VCO5,1.6756000000000002,-2.2877858840740752,mp-1177806
MgCr(GeO3)2,0.4642,-2.287763303499999,mp-1273498
Li4Ti2Mn3Fe3O16,0.690199999999999,-2.287612019778326,mp-770495
Na3VO4,4.0626,-2.28759552426724,mp-755436
Li4Ti2Mn7O18,0.0,-2.287592126952168,mp-769508
LaCrSnO6,0.312199999999999,-2.287562054444444,mp-1040852
BaMn9V6(HO13)2,2.1098,-2.28748378156544,mp-1194843
Na6Mn2V4O15,2.3606,-2.287313549227331,mp-1203333
Li4Ti3Ni3(TeO8)2,1.4504,-2.287136176130953,mp-763178
Mn3Cu(PO4)4,0.0,-2.287113597181856,mp-756349
Ca5Mn2(NiO6)2,0.0,-2.28711076504105,mp-1329093
MnZnPO5,2.3352,-2.287088834071736,mp-1046651
Li3V5O14,2.3936,-2.287017241818182,mp-755775
Li3Ni(BO3)2,0.0612,-2.286983851111111,mp-770786
CeV2IO9,0.0,-2.28695300326923,mp-1201268
BaV2(CoO4)2,0.0,-2.2868378326923082,mp-19504
La(WO3)11,0.0,-2.286780572,mp-675527
NdCrO5,0.5064000000000001,-2.2867431762500012,mp-1203182
SrLaCoRuO6,0.0,-2.286725569500001,mp-1218222
Ti13(Fe5O14)3,1.4752,-2.286673804761904,mp-757320
Ba4Ga2Fe(S3F2)2,2.4483,-2.286659933823529,mp-1204862
Nd2Fe2Se2O3,0.0,-2.286560063854166,mp-1078182
LiFe2P2HO8,3.7997,-2.286485725990645,mp-753451
Mn5V4O12,0.0199,-2.286467758078851,mp-1221657
Ba2SrFeO6,0.0,-2.286436081999999,mp-1516973
Ba2YW3O8,0.0,-2.286321872142856,mp-1048138
BaV2(AsO5)2,2.166299999999999,-2.286222223833333,mp-1227827
Li4V3CoO8,0.0,-2.286211557708333,mp-771356
TiMn2O6,1.442,-2.2861204965772672,mp-775831
LaZnCrFeO6,0.868599999999999,-2.2860955825000002,mp-1044021
Li4Cr5SbO12,1.417199999999999,-2.28601378060606,mp-775869
Mn2BeO4,0.0,-2.285951375123153,mp-770881
Mn3Ag(PO4)3,0.0,-2.285945361283597,mp-1222017
Li2TiCo3(PO4)6,0.0,-2.285754399107142,mp-770585
BaMn4AlO7,0.0,-2.285699286671086,mp-1048458
Li4Co7O3F13,0.223299999999999,-2.285537745679013,mp-752818
Co(PO3)2,2.6019,-2.285493845476191,mp-541790
LiMn2PO6,0.6415000000000001,-2.285413725883826,mp-849221
K3FePCO7,3.658399999999999,-2.285411855491757,mp-1575580
Na3VBAsO7,2.2697,-2.285387788523431,mp-755361
EuWO5,0.0,-2.285345788928572,mp-1212796
MnP2H2O7,3.8366,-2.285267629768062,mp-865024
NaSrNdMnO6,0.0,-2.285210521681034,mp-1517834
Sr3Ca5Mn3Fe5O24,0.0,-2.285091022844827,mp-1076854
Mn2BiPO6,1.998099999999999,-2.285013969050493,mp-554449
Eu2Co2O5,0.0,-2.285013030555558,mp-1076123
V5FeO12,0.040899999999999,-2.284867542777778,mp-2215234
CsMnGa2P3(H2O7)2,3.3475,-2.28486705226059,mp-1204881
Fe2B2O5,3.2492,-2.284821307037037,mp-19333
MnVO3,0.3157,-2.284756146086208,mp-1106224
V5FePbO11,0.7157999999999991,-2.284723480277779,mp-1217230
Mn2NbFeO6,1.506,-2.284717352586207,mp-1221840
CaBiMoO5,1.6711,-2.28469794671875,mp-1851458
BaSr7Fe6(CoO10)2,0.0,-2.284640144652778,mp-1099862
MgCr8Fe3O16,2.6259,-2.284633478035714,mp-1222099
NaFe2P2HO8,3.554499999999999,-2.284492311208214,mp-1287635
AlSn(WO4)2,0.1697,-2.284469296249999,mp-1042285
Mn3Ni2Sb(PO4)6,0.0,-2.284436602545839,mp-774940
NiP2WO9,2.279,-2.28442717532967,mp-1043389
NaPrCuWO6,0.0,-2.284303716804598,mp-1516899
Ti3Fe3(SbO8)2,0.0,-2.284287986666667,mp-753029
NdNiO2,0.0,-2.284283436874999,mp-31063
BaVInWO6,0.0,-2.284228544666668,mp-1518364
Fe7O3F13,1.2861,-2.284137505217391,mp-754593
KRbMn2Ga4P6(H2O7)4,3.3545,-2.284121680169383,mp-1223701
Na5LiFe2P2(CO7)2,3.7977,-2.284078314981368,mp-755968
KFeCu(PO4)2,0.6213000000000001,-2.284025564733515,mp-1199970
Li4V3NiO8,0.046499999999999,-2.283963239583333,mp-772714
K2W2O7,2.4361,-2.2839396722272722,mp-19037
AlFe(WO4)2,1.4742,-2.2839244916666672,mp-1043216
MnAlBiO5,0.269499999999999,-2.283884504428879,mp-1210873
FeSb(PO4)2,0.0,-2.283807832857141,mp-861596
Ba4La4Co8O17,0.0,-2.283805000303031,mp-1229302
Ca2FeCoO5,0.0,-2.283790955833333,mp-1203339
Li5Co2Cu2(PO4)4,0.0,-2.283767983628899,mp-764926
P(W2O7)2,0.0,-2.283761908270676,mp-557415
V12O29,0.5418000000000001,-2.283690791829268,mp-773019
VFe3Co2(PO4)6,0.0,-2.283628673551588,mp-774343
VCr2Ni3(PO4)6,0.0,-2.283318948829363,mp-780465
Fe(PO3)5,0.5524,-2.283289912057823,mp-540145
NaMoO3F,3.226099999999999,-2.283062166896552,mp-1209982
KMnGa2P3(H2O7)2,3.3886,-2.283056657164384,mp-1203519
RbFeCu(PO4)2,0.0,-2.283027867637362,mp-1197774
K4Mg(MoO4)3,4.3065,-2.28297853945,mp-1211857
TiMn7(PO4)12,0.0,-2.282941399478896,mp-778073
Sr2YCoCu2O7,0.0,-2.282733135384615,mp-542434
V5O7,0.5427000000000001,-2.2826896766666662,mp-1046039
V8Ni2O15,0.0423,-2.282607042599999,mp-36484
ScMn(BiO3)2,1.7565,-2.282597779793104,mp-1219299
LiMo8(P2O11)4,0.3876,-2.282518147220921,mp-26051
Sr4MgFe2(BrO3)2,0.5238,-2.282257702333333,mp-2228735
Na2MnSiCO7,1.0701,-2.2821763973491382,mp-770912
Li4Co4(OF3)3,0.4,-2.282163501166667,mp-755532
CaV(Si2O7)2,0.3478,-2.2820056474999992,mp-1202545
Li6Nb3Fe3O16,0.0,-2.281966808214285,mp-771042
Sr3Ca5Fe5Co3O20,0.0,-2.281830828333334,mp-1076614
NaSrSnWO6,0.0,-2.28161892963793,mp-1521207
Mg6VCO8,1.011899999999999,-2.2815759428125,mp-1031455
Li2W2O7,3.7425,-2.28143384151515,mp-27130
P3RhW2O15,1.552299999999999,-2.281421520425169,mp-1194839
Li3Al(FeO3)2,2.1557,-2.281375065,mp-1177725
Ca2Mo2O5,0.880599999999999,-2.281321001111112,mp-1367743
CaCo(GeO3)2,1.2006,-2.2812540775,mp-1043203
V12PbO30,0.8546,-2.281128586976744,mp-760020
Na3NiBPO7,0.2117,-2.281062783303649,mp-768540
Mg(WO3)2,1.107299999999999,-2.281041155555555,mp-1045742
CrWO4,0.0,-2.281001475000003,mp-18785
MnZnSiO5,0.6890000000000001,-2.280953402866379,mp-1252337
Li2Mn2P4H3O16,0.880899999999999,-2.280859207587043,mp-1664329
Mn3V2O8,1.853799999999999,-2.280837626445622,mp-17899
Ba2MgCuWO6,0.8853999999999991,-2.280799592272727,mp-2234096
Li8Mn(O2F)2,2.7709,-2.28077370797318,mp-763440
Fe3NiSn2(PO4)6,0.057799999999999,-2.280631920218255,mp-776178
CsCoCuF6,0.0,-2.280394028295019,mp-1225979
Li5V2Cr2O8,0.7816000000000001,-2.2803750409803922,mp-752568
YTe(WO4)2,0.158999999999999,-2.280309915972223,mp-1043665
Ba2Y2Co4O11,0.0,-2.280249277105264,mp-1214560
Li5Ti2Fe5O12,1.5550000000000002,-2.280244897638888,mp-756825
MgV2CoO7,2.1116,-2.280237803977272,mp-1042542
Li3SiNiO5,0.995,-2.28008985675,mp-766472
Mn3AlO6,0.0,-2.280084986129311,mp-1045021
Li3Cr3GaO8,0.764,-2.280059100833333,mp-768641
BaYMgFeCuO5,0.7742999999999991,-2.27998182,mp-2222927
MgMoWO6,1.0505,-2.279918928333332,mp-2217505
BaVCu4P4O17,0.012399999999999,-2.27980861031746,mp-559899
Li2V5CuO12,0.7572999999999991,-2.279794307333333,mp-1570811
Li3Fe4O3F5,2.0659,-2.279617246666667,mp-849305
LiCrSnO4,2.847299999999999,-2.279595191904762,mp-756864
TbCu(MoO4)2,1.9353999999999991,-2.279479599722222,mp-14948
LiFe2(BO3)2,1.9847,-2.27945724310606,mp-764904
Mg2SbWO6,1.673,-2.279452549,mp-1344776
ScV(TeO4)2,2.9711,-2.27943895298611,mp-1197295
Sr2CoO3,1.4024,-2.2792741075,mp-2615276
VNi3Sn2(PO4)6,1.4986000000000002,-2.279166229662697,mp-775213
Mg3Fe2(GeO4)3,2.4642,-2.279042498125,mp-1324648
PmWO3,0.0,-2.2790038265,mp-1186669
LiNi6P7O24,4.0414,-2.278997002127193,mp-504371
Cs2FeHF5,3.355099999999999,-2.278995950062262,mp-1213721
MgFe3Co2Sb(PO4)6,1.686499999999999,-2.278859246833976,mp-2216303
LiCr2P3O13,1.1477,-2.278648884592732,mp-705400
KNi3P3O11,4.159700000000001,-2.278635688815476,mp-1198941
LiAlFeO4,0.091499999999999,-2.278529001904762,mp-1253150
Sr16Fe16O43,0.0,-2.2785212946,mp-1173632
V3CdO7,2.2235,-2.2784302675,mp-541360
ThMoO3,0.0,-2.278413519,mp-1187460
Zn3Si4(NiO7)2,0.0,-2.278411486304346,mp-1266176
VSnO4,1.6557,-2.278321618333331,mp-752504
K3VO4,4.0392,-2.27827762240625,mp-560869
DyCu(MoO4)2,2.0132,-2.278202888993056,mp-15481
Ni2BiB(PO5)2,3.5479000000000003,-2.278201335528273,mp-1196616
Co3(BO3)2,0.0,-2.278189580757578,mp-22632
Mg4V5(TeO6)3,0.261099999999999,-2.278164804833334,mp-1046569
Tl3FeF6,2.6238,-2.278096453,mp-1205667
Li4CrCo2Ni3(PO4)6,0.0,-2.277932980529762,mp-776777
V9PO25,0.9124999999999992,-2.277825972561226,mp-769551
CaBiWO5,1.5783,-2.277822098125,mp-1042689
Li12MnCo3P4(CO7)4,2.0062,-2.277755156471201,mp-766814
Li4Ni3Sb(PO4)4,0.8942000000000001,-2.277689328639456,mp-756181
Sr14Fe14O39,0.0,-2.277515534104477,mp-698670
BaYZn3CoO7,0.0,-2.277275303461538,mp-1227396
ZnCr2O4,0.0,-2.277238717857142,mp-19410
BaCaCrBiO6,0.1804,-2.277217755,mp-1517595
Ba2NiTeO6,0.0,-2.277184675666666,mp-19011
CaMn3O4,0.7771999999999991,-2.277054964224138,mp-759804
HoCu(MoO4)2,1.922099999999999,-2.276958293125,mp-558437
TiFe2Ni3(PO4)6,0.014699999999999,-2.276909493088625,mp-776008
Sr7CaMn2(FeO4)6,0.0,-2.276893203396551,mp-1076597
CrCo(PO4)2,0.0,-2.276781196190475,mp-1178412
CaMn3O6,0.0,-2.27668158700431,mp-560083
Rb2W2O7,2.4023,-2.27656303590909,mp-19144
Sr4Y2Fe2Cu4O15,0.0,-2.276390513148147,mp-1218585
LiMn3(O2F)2,0.0088,-2.276388248712644,mp-759049
KEuBiWO6,0.101899999999999,-2.276175160725001,mp-1517596
LiNi2P5O16,0.0,-2.276122712772818,mp-26192
CaMn2P2(H2O5)2,3.3107,-2.276119610534094,mp-1233173
CaNi(GeO3)2,2.7331000000000003,-2.2760526775,mp-1043165
MgFePO4,0.0135,-2.276049229948979,mp-2210710
Ba2CaCu2MoO8,0.0,-2.276012237142858,mp-1232340
Na3FePCO7,1.8038,-2.275798284521598,mp-22135
V9O13,0.0,-2.275753317045455,mp-1045898
Sr2V4Te2H2O17,2.6086,-2.275724653549383,mp-1199642
Li5V5(FeO6)2,1.355,-2.275561112777778,mp-772522
V3ZnO8,1.933,-2.2755488437499998,mp-27284
Li4Ni5Sn(PO4)6,1.713299999999999,-2.275501178404762,mp-758677
CoSb3(PO4)6,1.626,-2.27542429170168,mp-775217
BaNaPrMnO6,0.0,-2.275352404847702,mp-1518813
Mo3P3O16,0.0,-2.275306460405844,mp-25359
V4ZnO9,2.0275,-2.275278689285714,mp-1041384
Li4Nb3Fe5O16,1.142599999999999,-2.275150793690476,mp-768591
V2P4H3O16,1.2128,-2.275097747292857,mp-755425
Mn2Fe3Co(PO4)6,0.0,-2.275041906492199,mp-758084
TaZn2MoO6,1.740499999999999,-2.274960562733333,mp-1377229
Mn3BO5,0.0,-2.274932117551085,mp-505442
LiCoCuF6,0.062,-2.27483603037037,mp-1222564
Li8VO5F,2.1378,-2.274817870944444,mp-752889
Li2CoCu(PO4)2,0.0,-2.274752868639456,mp-756337
KSrSbWO6,1.1933999999999991,-2.274731191474999,mp-1517737
LiMn(PO4)2,0.0,-2.274725986712507,mp-867825
Pr2Fe2Se2O3,1.308399999999999,-2.274702211446759,mp-1080777
Na3MnS2(O4F)2,1.418,-2.27466579762931,mp-1195590
Li6Co3Ni(PO4)6,0.0,-2.274481988696428,mp-1177049
SrPrFeRuO6,0.0,-2.274469017666666,mp-1218067
MgV4(PbO6)2,1.541099999999999,-2.274450323421053,mp-2230576
Li4Fe2SiO7,1.854499999999999,-2.274393964166666,mp-753109
LiMo2PO8,1.126799999999999,-2.274279622123015,mp-32123
V3Cr3(WO8)2,1.065299999999999,-2.274211439583334,mp-775969
Sr3NiPtO6,0.0,-2.27420212340909,mp-19166
Fe3Sb(PO4)4,0.0,-2.274197614523809,mp-1178297
LiCr(WO4)2,2.4172,-2.274192492361109,mp-1191127
Ca2Cr9O13,0.394599999999999,-2.274117973124999,mp-1045913
K2Mn3V2CO11,2.1887,-2.274091620699637,mp-1195006
Rb2CoHgF6,0.0,-2.273958027750001,mp-1112406
Li4Mn3V2Cr3O16,0.6713,-2.273844357397373,mp-770036
Li6Fe2B4SO16,0.0,-2.273828399454022,mp-770526
Sr2YTlCo2O7,0.0,-2.273781652948718,mp-1048300
Mg2FeSbO6,1.5606,-2.2737219595,mp-1369579
BaNaFe4P6H3O25,0.259799999999999,-2.273693595199662,mp-735783
P2W9O31,0.0,-2.273688882125851,mp-628817
SmCu(MoO4)2,2.0075,-2.2736425013541672,mp-554075
Mn3P3O13,0.0,-2.273623583037982,mp-1047928
HoFeGe2O7,1.2691,-2.273557900454544,mp-1212190
HoZn(WO3)2,0.9625,-2.273552041499999,mp-1041307
Li5Fe2(BO4)2,2.1105,-2.273533304705882,mp-760269
Sr4Fe3O10,0.216299999999999,-2.273482406764706,mp-1173217
Na2V16Mo2O45,0.777,-2.273422835657825,mp-1221666
PrCr2O6,0.2376,-2.273360226296296,mp-1342382
Sr5Fe5O14,0.0,-2.273265949166667,mp-1094111
Li3Ni2(PO4)3,0.1063,-2.273124091446428,mp-26275
MgV12Zn6O24,0.9427,-2.273067047093023,mp-1233628
Li2MoO4,4.1184,-2.273066940238093,mp-18050
K4V5CuClO15,0.2673,-2.273027291692309,mp-560551
SrCo(GeO3)2,2.269,-2.273026966000001,mp-1208672
Li4Mn3V3(SnO8)2,0.7889,-2.273013485968802,mp-775771
MgMnV4CoO12,1.281799999999999,-2.272990954364791,mp-2230757
V4ZnO10,1.0536,-2.2728291880000002,mp-1305834
Li3AlCoO4,1.9572,-2.272821155555556,mp-771900
MgMn12(O7F5)2,0.0,-2.272730634869525,mp-2220229
Mn2O2F3,0.5283,-2.272551451551723,mp-2223159
V9O22,0.0,-2.27245270483871,mp-849581
Na6Fe2B4PO16,0.0,-2.272439572916737,mp-772422
NaV5MoO15,0.5666,-2.272294117108151,mp-1220962
Ba2Mn3AlO7,0.0,-2.272259519907161,mp-1048319
Li2MnCrO4,1.167399999999999,-2.2721526218247132,mp-755443