formula,bg,formation_energy,mp-id
K2LiVO4,3.976099999999999,-2.376295727229166,mp-558369
Li4CoSn3(PO4)4,1.9623,-2.376283097389456,mp-758057
Ba2MgCrMoO6,1.398699999999999,-2.376240380454544,mp-2242301
MgMnV3O8,1.203799999999999,-2.376161091763925,mp-2219052
RbNa3Fe7(PO4)6,3.1491,-2.376098710841344,mp-1209473
Na5LiV6O18,3.1909,-2.376005872507663,mp-774894
KNa7V8O24,3.2404,-2.37596958792263,mp-1223519
MnAg(PO3)3,3.0005,-2.3758461765018772,mp-16552
Li4V5Cr4O18,1.379099999999999,-2.375834840268818,mp-1177172
Li4MnFe3(BO3)4,0.0,-2.375821851997126,mp-1177332
NbTlWO6,2.931599999999999,-2.375812148148149,mp-1220301
Ca2AgWO6,0.0,-2.375763975666666,mp-1369774
MgTi2(NiO3)2,0.3351,-2.375760345606061,mp-2217827
NaVO3,3.2386,-2.375747678275863,mp-19083
LuAg(WO4)2,3.171799999999999,-2.375720084027777,mp-1210947
Mn3FeSn2(PO4)6,0.0,-2.3756234372680622,mp-776118
V3Cu2Sb(PO4)6,0.0,-2.375604631607143,mp-759729
Li2Mn4O5F3,0.349499999999999,-2.3755909984564862,mp-754142
Mn2Zn3(SiO4)3,1.255,-2.375581695793104,mp-1264019
Ba2La(FeO3)3,0.0,-2.3755606993333322,mp-1228521
LaVFeO6,0.0,-2.3755486294444452,mp-1043966
LiTiV2CrO10,0.6066,-2.375540340444445,mp-1236317
RbMg6MnO8,0.308799999999999,-2.375501639714439,mp-1032501
Mn2Fe3(SiO4)3,1.1566,-2.375403176793102,mp-1249697
Ba4Pr4Fe4Cu4O21,0.0724,-2.375400651396396,mp-1228619
Li2NiP3O10,0.0,-2.375348690974702,mp-759146
SrEuNiO4,0.0,-2.375336447857144,mp-1218281
MgV2(Ga2O5)2,1.8675,-2.375315535,mp-2229821
CsV3O8,2.070599999999999,-2.375250615387931,mp-651814
ZnCr2(PO4)2,2.0659,-2.3752308049450552,mp-1040837
Li2Fe3(PO4)3,1.482999999999999,-2.375061644529762,mp-771770
SmSbMo2O9,3.2386,-2.375019206730769,mp-554052
Na4Ni3P4O15,3.8566,-2.374958929003409,mp-560780
Sr2MgCoWO6,1.5653,-2.374947674999998,mp-2215968
CaNi2(P2O7)2,0.0,-2.374944264693876,mp-1340075
BaEuFeSnO6,0.0,-2.374925717000001,mp-1521180
FeSn(PO4)2,1.6008,-2.374878884940475,mp-1178211
Nb2Zn2CoO8,2.6737,-2.374739018461539,mp-1046861
LiMnH2OF4,1.951099999999999,-2.37470997458493,mp-1197533
Ca2Mn2Si4H8O17,1.2933,-2.374654509117032,mp-1195231
Li4Nb2Cr3Fe3O16,1.800999999999999,-2.374551134761904,mp-755224
Cs2Zr2Mn(MoO4)6,2.5195,-2.374388342778325,mp-1226277
MgMnNiP2O9,0.026899999999999,-2.374261912301196,mp-1043098
Mn2CrFe3(PO4)6,0.0,-2.374237633436645,mp-851117
NaEu(WO3)2,0.0,-2.3741524426379312,mp-1519258
Rb2V2Cu(PO6)2,0.947399999999999,-2.374126140225564,mp-556946
Li32Ti3Cr13O48,0.9914,-2.3740362102777772,mp-777558
CaFeClO2,0.6341,-2.374016877,mp-549711
KBaLaMnO6,0.0,-2.374000890018105,mp-1522815
Ba5Eu5(Fe5O13)2,0.038499999999999,-2.373983734673915,mp-1228898
Li12Cr3FeP4(CO7)4,2.5199,-2.373983722664835,mp-766533
Na6Cr2B4SO16,0.0,-2.373895713704914,mp-850803
Li3V12O29,0.0,-2.373684585340908,mp-772492
KAl2NiP3O14,0.023999999999999,-2.37348578910374,mp-1211858
La4Sm4Co7AgO24,0.0,-2.373474636791667,mp-1099698
YMgMo(WO4)2,1.8378,-2.373362296538462,mp-2219053
RbAl(MoO4)2,3.8624,-2.373306999791667,mp-1209248
Li4NbFe(WO6)2,2.2991,-2.3732628551666672,mp-755203
MgWO3,2.438,-2.3731898510000002,mp-1326513
Li4Ni2(PO4)3,0.0,-2.373135896298186,mp-772620
Li4Ti3(NiO4)3,0.0257,-2.373114702878787,mp-752963
Li4Fe5P6WO24,2.0987,-2.373108686029761,mp-774930
P4WO13,2.3556,-2.37304279172619,mp-766131
Y2Cr3O12,2.0049,-2.373003384411765,mp-1362204
Eu2(MoO4)3,0.0,-2.372890854705882,mp-542905
Na3CaFe(SiO3)8,0.0,-2.37286322416589,mp-1221288
LaMg(FeO3)2,0.0,-2.372836907000001,mp-1043839
BaLaNiRuO6,0.0,-2.372736589499999,mp-622618
ErMn2O3,0.0,-2.372693940560343,mp-1213099
K3MnPCO7,3.5748,-2.372661536101838,mp-1178149
CsVGa(PO5)2,0.675399999999999,-2.372653807262727,mp-863295
LiMn2(PO4)3,1.221,-2.372617994617999,mp-26061
Li4Ti3Cr2Co3O16,0.0,-2.372612505476191,mp-770505
Ta2Fe4O9,2.6582,-2.372603865644443,mp-1208436
Fe2P2O7,0.7385,-2.372593638571427,mp-1102399
Na2Mg5(MoO4)6,3.7513,-2.372518834263747,mp-1221409
YCu(WO4)2,1.496999999999999,-2.372273168333333,mp-504864
MgNi2(PO4)2,2.5757,-2.372208453214286,mp-1041075
Li5Co4(SiO4)4,0.4256,-2.372150283505747,mp-758904
Li5Fe3Ni2(PO4)6,2.3974,-2.372101318113094,mp-776686
Na6Mn2B4PO16,0.0,-2.372086030705083,mp-780414
Be3Fe4Si3SeO12,3.1008,-2.372041555319293,mp-704536
Li4Ti2V3Ni3O16,1.356999999999999,-2.37190459,mp-768714
V2Co(PO4)3,0.0,-2.3718706482738092,mp-771692
LiMnVO4,1.857499999999999,-2.371862765180622,mp-19107
LiFe3P3O11,3.5021,-2.371854590958994,mp-705089
RbV2CrO7,1.8638,-2.371721081590908,mp-557660
NdSbMo2O9,3.2603,-2.371680794423077,mp-556535
Sr2Fe2O5,0.8054999999999991,-2.371617867499999,mp-1205087
NaSrYMnO6,0.0,-2.371562926931035,mp-1521870
K5Na3Nb6(WO10)2,0.0,-2.371544867510775,mp-1099913
KMg6CoO8,0.3028,-2.371383631703124,mp-1032284
Ba3NiO4,2.329499999999999,-2.371338410625,mp-27957
V5BiO10,0.5003000000000001,-2.371336566093751,mp-768045
SrCaCrBiO6,0.7929,-2.371309719,mp-1520712
Li4Mn2CrNi3(PO4)6,0.0,-2.371292841926313,mp-775171
YMn3O6,0.0,-2.37110215087931,mp-1045064
K4V2O7,3.4405,-2.371041250307691,mp-557105
Li6CrCo3(PO4)6,0.8405,-2.370979738446429,mp-766501
Mn2P3O11,0.0,-2.3708808293619152,mp-25830
K2MoAuF6,1.4368,-2.3708560474500002,mp-1112260
Pr5Te7MoCl3O23,2.6886,-2.370805832179486,mp-1173622
Na5V7O14,0.220799999999999,-2.370742519111405,mp-765656
Li4WO5,3.8894,-2.370661098833333,mp-555377
SmTl(MoO4)2,3.5068,-2.370648509444445,mp-19480
CrP3(HO5)2,3.2984,-2.370586892745535,mp-605503
Li4Ti2Mn4Cr3O18,0.0,-2.370533139087876,mp-774617
Mo2P3O13,0.8492000000000001,-2.370450197579366,mp-585184
V2Zn3(P2O9)2,1.3392,-2.370440005873016,mp-1371973
Tl3VF6,0.0,-2.370383564999997,mp-1205535
Li2Si5Ni5O16,2.982999999999999,-2.370267103809523,mp-756771
HoMn2ZnO6,0.0,-2.370221672086207,mp-1041113
BaEuFe2O5,0.0,-2.370123225555556,mp-656144
Ti7Fe13O30,1.015299999999999,-2.3700788062666662,mp-1101107
CsFeAgF6,0.0,-2.370037151257982,mp-1196464
Ba3Eu3(Fe3O8)2,0.0,-2.369822834821428,mp-1229152
Li2V6O15,0.0,-2.369821123985507,mp-27751
P2W3O13,0.1452,-2.369710164126985,mp-27738
MgNi3(P2O7)2,4.1792,-2.369689106298701,mp-1043448
Li16V3Ga13O32,1.748,-2.369667935950521,mp-774850
KAl(MoO4)2,3.8895,-2.369613685604167,mp-19352
KV2CrO7,1.8417,-2.369557447022726,mp-557215
CaLaMnRuO6,0.0,-2.369455040793103,mp-690556
Li2VFeP2(HO5)2,1.758299999999999,-2.369444006580688,mp-1177767
TiNiP2O9,0.0,-2.369307808663004,mp-1043495
Na5LiMn2P2(CO7)2,3.678599999999999,-2.369287569052987,mp-754568
V5CrO12,1.1348,-2.369230467222222,mp-754350
V3Cu(PO4)6,0.545099999999999,-2.369211261995797,mp-774423
Li2CoNi(PO4)2,2.584799999999999,-2.369179571853742,mp-757611
Li4Mn3Nb3(FeO8)2,0.352299999999999,-2.369134891325945,mp-762415
Cr3Cu(PO4)4,0.0,-2.369026299940477,mp-756357
Na3WO4F,4.4655000000000005,-2.368873922126437,mp-555842
Li4Mn3Nb2Sn3O16,1.047399999999999,-2.368863157218802,mp-758581
RbV3O8,2.0696,-2.368860058541667,mp-16864
Li9Fe7(PO4)12,0.0,-2.368837931917292,mp-777004
Sr2CrInO6,0.0,-2.368671232666666,mp-1517551
K2FeAuF6,1.0919,-2.368636214449999,mp-1111959
MnV2O4,0.1326,-2.368602888811577,mp-531268
ZnCr2F12,1.303799999999999,-2.368553822666666,mp-1785896
Li8Fe7Ni(PO4)12,0.0,-2.368536380294486,mp-780776
Fe3(P3O10)2,0.1071,-2.368433502857142,mp-25884
MgMoO3,0.067899999999999,-2.368318689999999,mp-1342607
LaZnFeWO6,0.423299999999999,-2.3682712905,mp-1044069
Li9Si2NiO10,0.0,-2.368136234090909,mp-1176868
CaVSi4H8O15,3.177899999999999,-2.3681261911206892,mp-1198008
Na3VPCO7,1.0198,-2.368112139906214,mp-769592
NaCdFe(PO4)2,1.8944,-2.368088862358847,mp-1173827
Li4NiSn3(PO4)4,2.2398,-2.368082288103741,mp-776070
Mn3NbCo2(PO4)6,0.0,-2.3680681550458402,mp-757439
LiCr(PO4)2,1.2457,-2.3680530508432542,mp-697692
Na5V2(PO5)3,0.0,-2.368040028633004,mp-1191760
SmAg(WO4)2,3.139,-2.368025070138888,mp-1208979
Sr2CoSbO6,0.647,-2.3680093485,mp-1218837
BaSr7MnFe7O20,0.0,-2.367917162859195,mp-1076473
Sr2Pr2MgFe2(RuO6)2,0.0,-2.367863097539683,mp-1233527
Li3MnV2O6,0.3577,-2.367837964410919,mp-773501
KLi2MnPCO7,3.2428,-2.367799767037735,mp-761146
PrSbMo2O9,3.2644,-2.367742396858975,mp-1199237
YbAg(MoO4)2,0.0,-2.367716986666664,mp-1215591
Li4VGa3O8,1.8708,-2.367655643177083,mp-771646
Li5V18O44,0.0,-2.367651672039801,mp-773027
Y2Te3MoO12,2.983599999999999,-2.367595069027778,mp-1201916
YSbMo2O9,3.2075,-2.367581718653845,mp-560652
MgP2W2O9,1.869799999999999,-2.367450279770408,mp-1041003
Rb2LiVO4,3.965,-2.367439304166667,mp-19123
VFe5(PO4)6,1.3101,-2.367439047996032,mp-782634
LaZnCrSnO6,0.0,-2.367423190999999,mp-1049202
ThTe2WO9,3.1343,-2.367260936794871,mp-1194639
Nb2Zn2NiO8,0.0,-2.367255105769231,mp-1046973
Ti(FeO2)2,1.9887,-2.367246567976191,mp-780585
Na4Co3P4O15,2.266,-2.367245939291872,mp-562546
Li4Ni(BO3)2,3.5073,-2.367213206474358,mp-775949
KBaV3Cd2O11,3.066,-2.367167949430555,mp-1223694
MgV4O6,0.0,-2.367133311363636,mp-1042943
Co(BO2)2,2.069399999999999,-2.366990306190476,mp-1104788
Ba2Ca3Tl2V4O12,0.0,-2.3669791742029,mp-1048633
CsV2CrO7,2.1697,-2.366951099514105,mp-1191871
Li4NbFe3Cu2(PO4)6,0.1427,-2.366866301529762,mp-777855
SrNi(PO4)2,0.0,-2.366804814107143,mp-1658552
CsCoW(OF)3,1.7871,-2.366778818295019,mp-694946
VZnP2PbO9,0.046499999999999,-2.366746454323979,mp-1198645
Li6CrFeP2(CO7)2,2.4855,-2.366654113818682,mp-756846
Ca3CoRhO6,0.024499999999999,-2.366588375909091,mp-1666380
Cr2O3,0.0,-2.366587769,mp-19399
RbVGa(PO5)2,0.6491,-2.36634515895238,mp-863294
Ti3Mn5O16,1.2668,-2.366318885402299,mp-1101292
Rb4MgV4Cu2(PO6)4,0.0,-2.366177598296703,mp-1234713
Li4Co7(OF7)2,2.0357,-2.36615128345679,mp-752803
Sr2LiPr2Fe2(RuO6)2,0.0,-2.365969483174602,mp-1235879
Sr2CaPr2Fe2(RuO6)2,0.0022,-2.365954353015872,mp-1234301
Rb5Er(MoO4)4,4.061100000000001,-2.365945834326924,mp-1199670
YTl(MoO4)2,3.9713,-2.365936122361111,mp-1207730
MgV8O20,0.6721,-2.365876722931035,mp-2223715
Ba2LiMn2O6,0.7942,-2.365845859926854,mp-1235162
MgMnO3,0.0,-2.365742391586207,mp-770618
GdSbMo2O9,2.7112,-2.36572649923077,mp-1203539
SmCu(WO4)2,1.4017,-2.36571629875,mp-17982
MnOF,0.008,-2.365682966810344,mp-755209
Fe2PO4F,0.2855,-2.365666674642858,mp-18121
VPHO5,1.4516,-2.365602972924161,mp-1101197
Cs2LiVO4,3.9955,-2.365512989705459,mp-541190
Mg2Cr3O8,0.9761,-2.365315469999999,mp-1042695
Na8Fe7(PO4)8,0.008399999999999,-2.365197036875951,mp-760263
NaVSiCO7,1.8429,-2.365184250579937,mp-772044
Li3V5O8,0.7822,-2.36510658875,mp-755272
LiNiPO4,3.4237,-2.365048147210884,mp-22417
YAg(WO4)2,3.157599999999999,-2.364985081388889,mp-1207659
Li4Fe7(PO4)6,3.2706,-2.364926051004645,mp-758774
KP4(WO4)8,1.246599999999999,-2.364912453684921,mp-1223454
LaNiO2,0.0,-2.364897973749999,mp-20392
Rb2MnP2H3(O4F)2,1.9783,-2.364837960609263,mp-1220230
SiMoO4,1.610599999999999,-2.36472392375,mp-1142857
MgCo2P2(O4F)2,0.431099999999999,-2.364617992952381,mp-2232474
Li6AlCrO6,2.999,-2.3644736185714272,mp-770562
MgCr8(PO5)4,0.426299999999999,-2.364423193441559,mp-1233814
BaV2CuO7,0.8088000000000001,-2.364414597045455,mp-541824
Li7VGeO8,3.5121,-2.36430672607843,mp-769539
Fe4P7O24,0.0,-2.364192177357142,mp-26756
LiFeP2HO7,4.449999999999999,-2.36418065157242,mp-781683
Li4Fe3Sb(PO4)4,0.346499999999999,-2.364140086496597,mp-1177409
ThCd(MoO4)3,3.5168,-2.364138134705882,mp-561023
Li3V4SnO12,1.3659,-2.364018471250001,mp-754315
BaNd3(CoO3)4,0.0,-2.363990042625,mp-1227932
Mo2P2O9,1.6233,-2.363916358214286,mp-1040930
SrCa7Mn6(FeO12)2,0.0,-2.363829552439654,mp-1077667
Li4Co3Ni(PO4)4,2.5875,-2.363727572210885,mp-770952
Na2Cd2Fe(PO4)3,1.089899999999999,-2.36372375333436,mp-1221478
Li4Mn3Ni3(PO4)6,0.5872,-2.363641837374589,mp-775926
Li3MnP2H2O9,0.8971,-2.36358490851275,mp-780319
Na3V3O8,0.0,-2.363579932795566,mp-1176342
CsCoPO4,3.146,-2.363301693828284,mp-1213696
Li7VO5F,1.7332,-2.363139469166667,mp-761099
LiMnF6,0.0,-2.363049628908046,mp-752752
K2MoO2F5,0.0,-2.36296840645,mp-1188508
Li7MnNi3(PO4)6,0.0,-2.36295527071028,mp-780131
Li2CoSn(PO4)2,2.3415,-2.362921119532313,mp-1662777
Li6VCoP2(CO7)2,0.907799999999999,-2.362911470357143,mp-757109
Ba3Mn2RuO9,0.198499999999999,-2.3629006387241382,mp-1228085
NaFe9Si6B3H3O31,0.02,-2.3628705807099872,mp-1210493
Ba2MgFeWO6,1.9499,-2.362551027727272,mp-2223651
Li12Cr3NiP4(CO7)4,2.378099999999999,-2.362541504972528,mp-1178088
Li4Fe3(BO3)4,2.020299999999999,-2.36251449173913,mp-766514
LiFe3(SiO4)2,0.6455000000000001,-2.362510824761903,mp-780681
Li4Ti3Cr3(CuO8)2,0.0,-2.362457721904761,mp-756425
Al2W2O7,1.033399999999999,-2.362451891818182,mp-1266390
CaV2CuO7,0.478099999999999,-2.362450883939394,mp-557595
Li4CoNi3(PO4)4,2.6828000000000003,-2.362365258639456,mp-850408
Ni(BO2)2,0.0,-2.362354955833333,mp-555102
K2U(MoO4)3,0.026699999999999,-2.362341616361111,mp-1211904
ZnCoF4,3.1002,-2.362316342499999,mp-1392127
CrSb3(PO4)6,1.3604,-2.362304837584033,mp-775202
Li5Mn3Cu2(PO4)6,0.4498,-2.3622199412079232,mp-777701
HoZn(MoO3)2,1.2034,-2.362216990499999,mp-1040974
BaPrMgMn2O5,0.0,-2.362198615752874,mp-2240112
GdTl(MoO4)2,2.9359,-2.362179484652779,mp-1212617
CaFe3P3H2O13,1.651199999999999,-2.362171675917208,mp-1197792
NaSrGdMnO6,0.0,-2.362148782931035,mp-1518489
Na6Ni3B9P6H3O38,0.7654000000000001,-2.362093896113585,mp-1205268
Ni3B7IO13,2.4228,-2.36208757642361,mp-504714
Sr2CuMoO6,0.0,-2.362045463,mp-1079351
Li4Ti2V3Co3O16,1.3546,-2.362030467499999,mp-1177275
KV3O8,2.0933,-2.361849654770832,mp-19172
CaFeO2,2.5069,-2.361847578124999,mp-1048244
EuVO2,0.0,-2.361798295625002,mp-1213429
TiFeSbO6,1.395899999999999,-2.361769379814815,mp-1216868
V4Cr2O13,2.3584,-2.361630009605264,mp-1200219
Li2Fe2P2O9F,0.006099999999999,-2.361518422247023,mp-1222971
LaMgCrCoO6,0.117899999999999,-2.3614374395,mp-1047796
Ca3Co2(WO6)2,0.9476,-2.361369367368421,mp-1374973
BaYCo2O5,0.0,-2.361324847777777,mp-1182125
Li12Cr3CoP4(CO7)4,1.5513,-2.361278949010989,mp-1178129
Na2CrAuF6,1.1718,-2.361215615275862,mp-1111086
Li9Mn5(SiO8)2,1.1513,-2.361179051239224,mp-859122
BaPrMg(CoO3)2,0.0,-2.361174207878788,mp-2222923
Eu2MgVO4,0.0,-2.361121291875001,mp-2242214
Mn3P4H2(PbO8)2,3.4619,-2.361025251846835,mp-1196132
Na2VAuF6,0.0,-2.36089223875,mp-1111085
LiV8O16,0.0,-2.360773857333334,mp-1235320
NdAg(WO4)2,3.143499999999999,-2.360732066180555,mp-1210051
TiCr2Ni3(PO4)6,0.0,-2.360684617533069,mp-776057
MgU(MoO4)4,1.8038,-2.360560008863637,mp-1210945
NaCo2P3O10,2.3732,-2.360503471269242,mp-759675
GdAg(WO4)2,2.8117,-2.360401465555556,mp-1212867
Cr2Fe3P6WO24,0.0,-2.36034642188492,mp-774903
Sr2YCr(CuO4)2,0.0,-2.360295351428572,mp-1218600
NdCu(WO4)2,1.5763,-2.360119415624999,mp-504997
NaV3O6,0.0,-2.360081612137931,mp-753365
Ti3Fe(BiO3)5,2.0168,-2.360028226666667,mp-1217452
KV4O10,0.0,-2.36001610115,mp-541253
Li5V12O32,0.0,-2.360002473605443,mp-766385
Na3MnPCO7,2.079099999999999,-2.3599898335932172,mp-19261
Ca4Mn6Si5O28,0.0,-2.359921532502005,mp-1227666
Li2Mn3NbO8,0.7197999999999991,-2.35975752610427,mp-756486
Cd5Fe2(P2O7)4,1.5868000000000002,-2.359721515398671,mp-1214030
Ho2MgAg2(WO4)4,2.2055,-2.359663203533332,mp-1233371
Li12VFe3P4(CO7)4,2.642,-2.359581385549451,mp-766566
Y2Si3(WO4)3,1.121999999999999,-2.359491849499999,mp-1157227
Ca6Co3RhO12,0.1344,-2.3593877404545442,mp-1227118
Sr3Y2FeCu3BiO12,0.0,-2.359301352272727,mp-1218551
RbV4O10,0.0,-2.359200614500001,mp-753320
P(WO4)2,1.3013,-2.359123784740259,mp-28000
KCaInWO6,3.432,-2.359078096391665,mp-1519052
Sr2MnRuO6,0.0,-2.359067221793104,mp-1218769
MgV5FeO12,0.6494999999999991,-2.359003810263157,mp-2230433
Eu2Fe2O5,0.0,-2.358959756111113,mp-861621
Mn2BO4,0.5381,-2.358904995718389,mp-28943
FeP2WO8,0.0,-2.358768012440476,mp-756346
Ti3Bi6WO18,2.2298,-2.358468660714287,mp-1217217
Na6Fe2P4HO17,0.3326,-2.358457848103243,mp-1220899
NaVPCO7,1.5078,-2.358420120774742,mp-769564
Dy(FeO2)2,0.0,-2.358419984523808,mp-756971
La2MgFe2(TeO6)2,1.3233,-2.358315841491228,mp-1234219
Sr2GdCr(CuO4)2,0.0,-2.358294982857143,mp-1218882
Fe5P6WO24,2.3383000000000003,-2.358283379940477,mp-780405
PrTl(MoO4)2,3.4692,-2.358237235000002,mp-19490
VSb3(PO4)4,0.444799999999999,-2.358205351607143,mp-754190
Li8Fe7Cu(PO4)12,0.0,-2.358172422926065,mp-1177097
CuMoF6,0.0,-2.35789001625,mp-19859
RbMoPClO5,2.0175,-2.357882179126985,mp-555152
Li2MnPHO5,3.3958,-2.357810007799055,mp-754995
TiFeO4,0.0,-2.3577933930555552,mp-754900
VAgOF4,1.9517,-2.357788767738095,mp-1194388
K2Mg2(MoO4)3,3.8881,-2.357767030763158,mp-1212049
LiMo2P2O11,1.089799999999999,-2.35772351906994,mp-26009
BaLa3(CoO3)4,0.0,-2.35771106925,mp-1227929
Sr3Co2WO9,0.0,-2.357699917333334,mp-1218612
Li2MnV5O12,0.0,-2.357592380729886,mp-776140
Li4Fe3P4(HO8)2,3.976599999999999,-2.357536800841543,mp-780175
Li7Mn3P3(CO7)3,0.377799999999999,-2.357525866379864,mp-1176894
Li4Fe(OF)2,3.006,-2.357492731203704,mp-752518
Ca2TbNiO6,0.0,-2.357294276666667,mp-1520076
Sr6Ca2Mn5(FeO8)3,0.0,-2.357224488241379,mp-1077671
Li6MnFe5(BO3)6,2.8379000000000003,-2.3569861411925292,mp-779627
MgCrFeO4,1.7536,-2.356955722142856,mp-1222047
KFeCo(PO4)2,2.1638,-2.3569526514642862,mp-1194524
NdTl(MoO4)2,3.5665,-2.3568102771527792,mp-560630
K2MoHOF5,3.275299999999999,-2.356799902574999,mp-1211865
Sr3Co2(ClO2)2,0.0,-2.356794768181818,mp-1101806
MnFe2(PO4)3,1.110199999999999,-2.356632579825533,mp-1221992
Rb2CoAgF6,2.009299999999999,-2.356622655666667,mp-1110611
Cs3Mo5P7O24,1.3486,-2.356573683755525,mp-572886
GdCu(WO4)2,0.141499999999999,-2.356497663749999,mp-505194
Li3Co(BO3)2,1.189099999999999,-2.356452307361111,mp-756335
LiP(WO4)2,1.8857,-2.356339737539682,mp-757610
KSrSmMnO6,0.0,-2.356213903018104,mp-1520878
Li4Ti4Mn(Co2O9)2,0.113199999999999,-2.356179599180571,mp-767219
TlMo2P3O13,2.0776,-2.356162778934846,mp-1217181
Li4Ti3Fe3(TeO8)2,1.1434,-2.356162594166666,mp-762517
Na12Mn3S6(O3F)8,0.5619000000000001,-2.35604400387443,mp-1194939
Li3CrBO5,2.0301,-2.3559718276666652,mp-768521
Li4Nb3V2Ni3O16,0.3624,-2.355932552261904,mp-1177484
Li12MnFe3P4(CO7)4,3.639999999999999,-2.355787432240432,mp-766510
TiFe2O5,1.34,-2.355785092916666,mp-753157
BaVP2(H2O5)2,2.5492,-2.355643614265873,mp-24598
Mo3P5Pb3O23,2.5385,-2.355462252815125,mp-704436
SrCaMnRuO6,0.039099999999999,-2.355366048793103,mp-1218544
Eu5V3S6O7,0.0,-2.3553073283333332,mp-1202464
VFe3Sb2(PO4)6,0.0,-2.355269034384921,mp-752811
AgMo5P8O33,2.5162,-2.355236106570415,mp-1229264
Na2Hf(MoO4)3,2.8868,-2.35520882098659,mp-1210635
Mn3CrFe2(PO4)6,0.0792,-2.35516243754584,mp-774916
Rb2MgMo2P2(ClO5)2,0.8871000000000001,-2.355035466278195,mp-2231186
Li4Fe5Sb(PO4)6,1.3065,-2.354988559279762,mp-776398
VCrO4,1.9112,-2.354943370833332,mp-19418
Mn9(P2O7)8,0.0,-2.354918323279814,mp-504117
K2BiPWO8,4.0734,-2.354910759164835,mp-561230
Li5Ti2Co3O10,0.887799999999999,-2.354767733666667,mp-761142
Ca2CoTeO6,1.6102999999999992,-2.354738702166666,mp-552051
NaCaTiFe3O8,1.9018,-2.354717354979473,mp-1173807
MgV(GeO3)2,0.0498,-2.354714586,mp-1043213
V3Fe2Cu(PO4)6,0.0,-2.354684144107143,mp-774830
BaSr7(Fe2O5)4,0.7341000000000001,-2.354682297777777,mp-1076090
PrAg(WO4)2,3.095799999999999,-2.354619601111112,mp-1209684
Mg2MnSbO6,1.4181,-2.354586001793104,mp-1275484
Li6Co3Sb(PO4)6,0.016799999999999,-2.354534641196429,mp-774592
PrCu(WO4)2,1.470899999999999,-2.354457971805556,mp-1209632
Li5V5Cr2O12,0.2824,-2.354410735694443,mp-773065
Li6MnCoP2(CO7)2,2.118,-2.354231615662182,mp-757178
Mn3(OF)2,0.8096000000000001,-2.3541157791133,mp-756945
Li2V3P4H4O19,1.7901999999999991,-2.35410563219494,mp-850740
KLaCr2O8,2.669699999999999,-2.354078324354174,mp-541211
Li4V3Cr3(SbO8)2,1.3902,-2.354061978690477,mp-776595
LaMgFeMoO6,1.3267,-2.353988540999999,mp-1044001
Li8MnFe7(BO3)8,3.299,-2.353925090165228,mp-1176839
RbNa2NiF6,0.0,-2.353891747025862,mp-1110622
CrFe3Sb2(PO4)6,2.3015,-2.353848586607143,mp-775989
Nd2Te3MoO12,3.0617,-2.353775973194444,mp-558484
NaMo3P3O16,1.7809,-2.353771609143821,mp-505102
Lu2CoTe2(SO7)2,3.098,-2.353736057698412,mp-1190475
CaVSi4(H2O5)3,0.696099999999999,-2.353710264166666,mp-1201439
Na5V12O32,0.0,-2.3536996846305422,mp-759073
LaFeTeO6,2.478199999999999,-2.35369469712963,mp-1297758
Li4Fe5Ni(PO4)6,1.5729000000000002,-2.353667263029762,mp-760788
Sr2MgCdWO6,0.7561,-2.353603884090909,mp-2215923
P8W3O29,1.9218,-2.353570460928571,mp-776468
Ba2MgCoWO6,1.7935,-2.353538745000001,mp-2218102
Na6V2B4AsO16,0.0,-2.353369157842845,mp-850371
Li5Co7O3F13,1.976,-2.353306485595238,mp-849472
Cs2Mg2(MoO4)3,4.2715,-2.35330618035844,mp-1213820
BaSrCaFeO6,0.0,-2.353275510999999,mp-1521728
Rb2BiPWO8,4.0107,-2.35318953478022,mp-1196931