formula,bg,formation_energy,mp-id
YCo4(CuO4)3,0.0,-1.459902555,mp-1045774
LiCo2O3,0.0,-1.459817004722221,mp-1222543
Na4Mg(NiO3)2,0.7806000000000001,-1.459747370039787,mp-2224805
Rb2CoO3,0.575299999999999,-1.4596734441666661,mp-1277299
NbWNO6,0.0,-1.4593727594444441,mp-1220562
NiPH15O11,5.0997,-1.459361150478317,mp-1204322
Li2CuNiO4,0.0,-1.459353232708333,mp-754716
CsMnH24(SO10)2,1.8193,-1.459329036720545,mp-729644
MgCo2(BiO3)4,0.0,-1.4592764823684221,mp-2230473
Li9Co15O28,0.5489,-1.459107258653845,mp-758799
Mn4Zn(CuO4)3,0.0,-1.459055547086207,mp-1043063
CoBiO3,0.0,-1.4589127130000001,mp-545522
Li4Cu3Ni3(TeO8)2,0.0,-1.458797000595238,mp-757744
Zn3Fe2(SeO3)6,2.470799999999999,-1.458660788243535,mp-555802
Bi2WO8,0.4817,-1.458629158181818,mp-2633954
RbNa7(CoO3)2,0.2889,-1.458611765447198,mp-550300
Co2(CO3)3,0.8501000000000001,-1.4585345425,mp-752772
NiPH6NO5,4.3435,-1.458528785510205,mp-735535
Cr3(CoO6)2,0.8752000000000001,-1.4584385347058821,mp-861261
Zn2FeIrO6,0.0,-1.458106601499999,mp-1301773
Fe3H10S2NO14,1.9047,-1.458063358416666,mp-40778
KMnIO6,1.9674,-1.458062471686781,mp-1205906
MnH2SeO5,1.9027,-1.457937488363865,mp-643412
Na2Mn3P2H2(C4O9)2,0.4316,-1.457830910238213,mp-1197360
Li11Ni13O24,0.0,-1.457736674305555,mp-758517
Na11(CoO2)13,0.0,-1.457676540103448,mp-1211117
Mg2Co9O13,0.0,-1.457484843541667,mp-1045937
MgWBr4O,2.1868,-1.456945034285714,mp-2227750
MgAg4Te8(MoO12)2,1.863499999999999,-1.456836810128204,mp-1234308
Li3Co4NiO8,0.0,-1.456441670624999,mp-754464
Mo12PO46,0.1343,-1.456430536265133,mp-733678
LaVH2I4O15,2.8357,-1.456395037065217,mp-1201992
MnH8SN2O4F3,1.5799999999999992,-1.456262002785843,mp-1203692
Rb4Fe8CuH6(Se8O25)2,1.0194,-1.456121522058823,mp-1202454
KLiNiO2,2.026,-1.455943221116666,mp-774921
K2Rb4Fe2O5,0.980399999999999,-1.455434631115384,mp-1211726
FeH4(CO3)2,3.324599999999999,-1.455252819807692,mp-698316
K5Mo6IO29,0.228999999999999,-1.455116595884146,mp-1181060
Li4Co2Ni3O10,0.0,-1.4550442454385961,mp-779900
Ba(WO2)4,0.0,-1.454954547692306,mp-1041454
Li6MnNi7O16,0.179399999999999,-1.454927544264367,mp-758650
Li3Fe5O12,0.0,-1.4549057217499999,mp-759319
U(MoO6)2,1.2727,-1.454809177999999,mp-818573
Na3Fe(SO5)3,0.4824,-1.45464912037748,mp-1202597
FeTe2BrO5,1.8634,-1.4546138848148151,mp-554007
Na4(CoO2)7,0.0,-1.454568885420689,mp-18846
Rb2FeH2Cl5O,2.2501,-1.454564026136363,mp-735545
V3NO8,0.0,-1.454471714166666,mp-1190909
CrHSe3O8,3.000299999999999,-1.45425028890625,mp-1182406
Rb2MnH12(SeO7)2,2.6843,-1.45393466556834,mp-1198390
Mg2MnH24(ClO2)6,4.1517,-1.453731464176245,mp-729389
KMnO4,2.081099999999999,-1.453729503780173,mp-19046
MnCd6O8,0.1735,-1.453637311528734,mp-752683
Li6MgNi7O16,0.4775,-1.453635973833333,mp-769569
ZnNiAsO5,0.309299999999999,-1.4536337750000001,mp-1339646
Li4Fe2Cu3O10,0.0,-1.453578767543859,mp-849416
Li5Co7O12,0.0,-1.453554391944444,mp-756433
NiTe2O5,2.505999999999999,-1.453449466666666,mp-504692
BaSr(FeO3)4,0.0,-1.453418451111111,mp-1518522
Ni(GeO3)2,0.0,-1.452844103333333,mp-1043444
Cs2MnH12(SeO7)2,2.775299999999999,-1.452761203126737,mp-1214073
MgFeHO2,0.0,-1.45270129525,mp-2225281
CoHCO4,0.166899999999999,-1.4526549108928561,mp-1022803
K(CoO2)2,0.2643,-1.452539285321428,mp-752629
Fe13O14,0.0,-1.45207582148148,mp-705414
Li4Co5O12,0.0,-1.45202229611111,mp-759802
VPH7N2O5,2.8255,-1.451865133962053,mp-758131
Mn3Co3(TeO8)2,0.007,-1.451856102380269,mp-772448
Na6FeO4,0.9684,-1.45180559734326,mp-755280
Ba4Fe3(Se3F2)2,0.0,-1.451543361856618,mp-1195190
MgFe6Sb10(IO3)6,1.3236,-1.45151653109756,mp-1233906
Li4Ni5O9,0.0,-1.451383831851852,mp-766892
K2Na4Co2O5,0.0758,-1.451275195770557,mp-1223676
CsFeH24(SO10)2,2.8673,-1.4511506937428151,mp-746702
LiCoH8(CO5)2,0.7181000000000001,-1.450901137878787,mp-759255
Na3MoH6(CO2)6,3.8945,-1.45086426291564,mp-558939
ZnCr2(CuO4)2,0.274,-1.4507405,mp-1041447
Mn3Sb2(IO)4,1.6919,-1.450644659522546,mp-1193915
V3NiH48(SO10)4,2.0718,-1.450576111770832,mp-1217614
Ni(AuF4)2,0.0,-1.450527636818182,mp-22552
ZnMo3O7,0.7544999999999991,-1.450501722954544,mp-1044405
Fe4CuNiO8,0.1676,-1.450369271428572,mp-1225235
VFe3(CuO2)4,0.7823000000000001,-1.450328525625,mp-1216372
Na6MgV2(S3O)2,1.2152,-1.450190929310344,mp-2229140
SmEu(CoO3)4,0.0,-1.4500930261111111,mp-1521244
Cs5FeO4,1.3283,-1.449985525077586,mp-1201412
CoTeO4,0.0,-1.449877877361117,mp-1226075
Ni(SO4)2,0.0,-1.44985851590909,mp-772505
Zn5Co19O32,0.0,-1.449441651071429,mp-861852
MgFe3O7,0.0,-1.449420020227272,mp-1044387
Li3Cr4PO19,0.6109999999999991,-1.449355835542327,mp-729255
Ni2Te3O8,3.0277,-1.4493011565384621,mp-17360
Li2Fe3(CoO4)3,0.0,-1.449137816833332,mp-752595
Sr2Mn2Cu(AsO)2,0.0,-1.448966391206897,mp-1218747
Hg2WO4,1.9051999999999991,-1.448770275000004,mp-29894
Ni17(As3O16)2,2.484999999999999,-1.4486515688181691,mp-705872
Mg(Co2O3)2,0.298899999999999,-1.448538970454545,mp-1043200
Li2MnNi3O8,0.2074,-1.4484255656855491,mp-774906
Cu2WO4,1.3177,-1.448381621785714,mp-505402
MgFeH4S2NO8,0.0,-1.448372321764705,mp-2229742
Li2Fe3O4,1.936499999999999,-1.448315838518518,mp-1222957
LiNiH12(SO7)2,0.5038,-1.447925924777777,mp-781684
Li5Cu2Ni3O10,0.0,-1.447779704833332,mp-756021
MgTl6WO12,0.345899999999999,-1.447737265250002,mp-2230104
K2CoH12(C2O7)2,1.2163,-1.447624652560606,mp-1196673
MgZn(CoO2)4,0.6014,-1.447523179642857,mp-2215820
K3(Mo7O11)2,0.0358,-1.44734302799359,mp-29053
LiCo7O7F,0.0,-1.447255622083333,mp-759978
Cu3MoSO9,0.0,-1.447196947321429,mp-1213388
MgHg4(MoO4)2,1.2414,-1.446742025000002,mp-2232513
VH14SO11,2.299,-1.446476843888888,mp-541434
K2Cr4CdO16,0.7229,-1.446262528021738,mp-1191337
MgMn2(CuO4)2,0.0516,-1.44615300525862,mp-1041410
Rb2Mn(Cl2O)2,0.3581,-1.445645838103448,mp-1078743
Co8Te(AsO8)2,0.8668,-1.444955019691358,mp-562450
MoH6NO3F2,2.7809,-1.444730550961538,mp-728891
MnBe2Fe2(P2O11)2,0.0088,-1.444627570532337,mp-1195414
Mn4ZnO9,0.0,-1.44452850226601,mp-1047863
MoH2Cl2O3,2.6314,-1.4444693621875,mp-731671
Rb(WO4)8,0.0,-1.444346551890243,mp-1198691
Co2H2CO5,2.365199999999999,-1.4443361265,mp-1202876
MgCo2NiO6,0.7882,-1.444283384499999,mp-2217107
Mo4H8N2O13,3.1654,-1.44423050962963,mp-728126
Fe12O13,0.0,-1.444204812199998,mp-764326
Fe3TeO8,0.0,-1.444183070972221,mp-1178313
Sr6V9(S11O)2,0.0,-1.443846922179487,mp-558774
BaCa(FeO3)4,0.0,-1.443547737777777,mp-1519251
FeH4C3O8,1.0787,-1.4435038282812491,mp-1194642
CaFe12(PO6)8,0.0247,-1.443347780683229,mp-1228870
FeH10N2OF5,3.7672,-1.443161746578947,mp-24619
CaFe4O9,0.0,-1.4430623067857131,mp-1048015
Zr2Cr2F3,0.0,-1.442854,mp-1100804
K4W11O35,0.0,-1.44263955968,mp-698623
Li7Ni9O16,0.0,-1.442575931354166,mp-768059
Tl2CoH12(SO7)2,1.9805,-1.442247966182795,mp-1196372
Na(CoO2)2,0.0,-1.442184006268473,mp-22474
Cr3H4NO8,1.9566,-1.442062093593749,mp-1196094
Fe15O16,1.188899999999999,-1.441563290645162,mp-705551
Li4Fe5Cu3O16,0.0,-1.441424980119048,mp-756606
Na14Co2O9,0.8925000000000001,-1.4414015273724141,mp-849362
Li11(NiO2)12,0.0,-1.4409607546099281,mp-38676
Li3Cu(NiO3)2,0.0,-1.4408710833333331,mp-754458
Na2NiH4(SeO5)2,3.1791,-1.440821779602427,mp-1189952
MgCo4(Te2O5)4,1.395299999999999,-1.440338364191919,mp-1234724
MgCr2(HgO4)2,0.1491,-1.44030541923077,mp-2218914
Co8As3O16,0.0,-1.440288552314815,mp-699375
K2Mo2H8O15,2.4398,-1.440042720537037,mp-557442
Li9(NiO2)10,0.3611,-1.439750425897435,mp-769454
Na(Mo2O3)2,0.0,-1.439486606034483,mp-1191832
LiNi6O6F,2.2607,-1.4394247305952381,mp-758667
Cd2Ni6Te3PbO18,1.583599999999999,-1.4391976543333331,mp-1194532
Li5Fe2Cu5O12,0.0,-1.439193129444444,mp-771192
BaMo4O7,0.0195,-1.439127018749999,mp-1048520
Cs2FeO4,0.0,-1.439120684187192,mp-17443
MgFe3Pb4ClO8,0.0,-1.439046680294117,mp-2228968
Cu3Mo2(HO5)2,0.0,-1.439042861029411,mp-696778
AlNi3Se2ClO8,1.5065,-1.438663141312499,mp-1045571
Li2Fe(NiO3)2,0.0,-1.438371808787878,mp-758983
Rb2MoSO4,0.454999999999999,-1.4380277684375011,mp-1106055
FeBi(SeO3)3,2.6249,-1.437865976573661,mp-1197024
CrBiO5,0.098,-1.437625788392857,mp-728712
BaLaFe2Cu2O11,0.0,-1.4374023035294121,mp-705604
MgFe7(Ni3O8)2,1.308799999999999,-1.437292851833333,mp-1233210
BaEuCr4O12,0.0,-1.4372054919444441,mp-1522661
NaCo2O3,0.7090000000000001,-1.437157760229884,mp-1283194
SrMg(NiO2)4,0.0,-1.437133464642857,mp-2228500
UMnS2O15,0.238199999999999,-1.4371226525226861,mp-1202469
Fe25O32,0.0,-1.436958434385965,mp-1194978
Mg2Ni3O8,1.197399999999999,-1.4369340392307681,mp-1394387
LiFe2Rh3O8,0.8435,-1.436815397380952,mp-1222530
NaCo2HSe2O7,2.7735000000000003,-1.436791033255149,mp-697551
Fe2Pb(SeO3)4,1.8645,-1.436703488388157,mp-1224708
Ca3MnS2O17,0.0,-1.4366882394752631,mp-1182615
LiFeNiO4,0.0,-1.436421586190476,mp-755275
Li5Ni7O12,0.0,-1.436192312361112,mp-756931
AlMo3Se2ClO8,0.197,-1.436079465645833,mp-1266944
MnFeO2,0.0,-1.435801359482759,mp-1221648
Rb2Na4Co2O5,1.3561,-1.435745639270557,mp-18151
Tl2Cr3O12,1.7286,-1.435697931421568,mp-9754
MoIrO6,0.0,-1.435075251874999,mp-1047086
Li4Co3(NiO4)3,0.0,-1.4346076924242421,mp-777850
Na6CoO4,0.7895999999999991,-1.434513429615987,mp-759174
K3Co(C3O7)2,0.046899999999999,-1.434407429517361,mp-1204325
Cu12Mo3S5O36,0.0,-1.434039426562501,mp-1226426
Co2C2O7,0.7283000000000001,-1.433997167424242,mp-1178537
Li4Fe3Co3(CuO8)2,0.0,-1.433941277619047,mp-776391
Li2Co3NiO8,0.9352,-1.433889075119048,mp-756196
LiFeO3,0.3066,-1.433588804333332,mp-760833
LiCo5SbO8,0.9046,-1.433451930222222,mp-1236250
FeH12(SO7)2,0.0,-1.433253262931033,mp-770576
Cs2FeCl5O,0.229399999999999,-1.433154087701149,mp-1188475
CsCoO2,0.4868,-1.433014544913794,mp-1189724
LiMn3H6(SeO3)8,1.613099999999999,-1.432949485318487,mp-1196748
Ce2W4S3O14,0.0026,-1.432663565978259,mp-1215148
V3O10,0.0,-1.432554382692308,mp-818205
Ba2CoAg2(SeO)2,0.0,-1.432481649780092,mp-1078198
FeCuBi2(AsO6)2,0.0,-1.432446741944444,mp-1225164
Na4CoAuO5,0.8874000000000001,-1.4323775468652031,mp-561744
Fe2CoAs2(H5O7)2,1.6683,-1.431944164568965,mp-510532
MnAgO2,0.289499999999999,-1.431450102399425,mp-996995
Rb2FeO4,1.7002000000000002,-1.43114921142857,mp-1101471
K2CoO3,0.125199999999999,-1.430972190333333,mp-1212013
K4Mo2S4BrO20,0.0,-1.430909550612903,mp-1199707
KMgNi2H3(SeO5)2,1.6715,-1.430826868983552,mp-1233156
In2Co2O7,0.0,-1.430360848030302,mp-772352
CsFe(SeO4)2,2.2281,-1.430309583695223,mp-1213156
MgNiHO2,0.658799999999999,-1.430137769249999,mp-2242025
Li4Fe3Co7O20,0.0,-1.429574536862744,mp-759773
Na(Mo2O7)2,0.0,-1.429543193756805,mp-1221810
FeTe3O8,0.0,-1.4294238675,mp-1212714
CoAs2S6(NF3)6,1.9483,-1.428879252424242,mp-1203902
K2FeO4,1.6183,-1.428852621357141,mp-19320
Sn2MoOsO6,0.0,-1.428745165,mp-1080738
ZnCoO2,1.0065,-1.428705194375,mp-754633
Li4Ni5SnO12,0.5617999999999991,-1.42853525310606,mp-755672
CoP2H18(NF2)6,2.6175,-1.4282163610714291,mp-694992
Zn2Fe3O8,0.0,-1.428014313846153,mp-1042894
Mn(SeO3)2,1.5967,-1.427935919179836,mp-28669
FeP2O9,0.0684,-1.427834935079366,mp-1205225
Li4FeCo9O20,0.0049,-1.427536636568628,mp-759547
MnH4(ClO)2,3.9217,-1.427089060325671,mp-504548
MnCuO3,0.0,-1.426801526586206,mp-1176440
RbFe(SeO4)2,2.2159,-1.426532142473957,mp-22038
Fe2H10S2O11,4.3362,-1.426297970599998,mp-1196332
Li3CoNi3O8,0.094899999999999,-1.426063192444444,mp-774300
LiFe(Se2O5)2,2.0499,-1.426054625481771,mp-887746
NaMnIO6,2.0015,-1.426030546034483,mp-1205831
CrH5O4,2.6506,-1.425992954624999,mp-1226463
Co6Te5O16,2.1733,-1.425609342808641,mp-562042
Fe38O39,1.3910999999999991,-1.425269673181818,mp-705753
Ca2Ni9O13,0.0,-1.425149786875,mp-1045953
TlMo2Cl7O2,2.4184,-1.424975279444445,mp-572192
Na3VS3O,2.0204,-1.424822942704741,mp-19422
Zn2Fe(PO6)2,0.0,-1.42461464907563,mp-1197187
BaAlW4O7,0.0,-1.4243715892307671,mp-1048423
K2FeCl5O,0.361,-1.424296037444444,mp-1196996
Fe3Sb2(BrO)4,2.3936,-1.423973968461538,mp-1194355
K2CoO2,0.1699,-1.4238854814,mp-28890
Li2Co2NiO6,0.0,-1.423847032424242,mp-754376
Li4Mn3Co3(CuO8)2,0.0,-1.423419782754515,mp-771073
Rb6Fe2O5,1.2235,-1.42341422153846,mp-33816
Fe9O13,0.0,-1.42339639159091,mp-1342828
Fe8Cu3Te12(Cl5O16)2,0.0,-1.423161949076923,mp-1226154
NiAs2S6(NF3)6,2.435,-1.423103998333332,mp-558770
Na4Mg(NiO2)5,0.5004000000000001,-1.423085587025862,mp-2230006
KAlCr2(HO4)2,1.2993,-1.422755177124999,mp-1211751
NaFe(SeO4)2,1.9104,-1.422741652172234,mp-561519
Li5Cu2Ni5O12,0.2376,-1.422397356111111,mp-754449
Co(CO3)2,0.5075000000000001,-1.422257097777778,mp-752886
Co2AsO5,0.2017,-1.4221918550000001,mp-1203275
Li4Fe2Co3Ni3O16,0.0,-1.422112001190476,mp-774891
ZnNiO2,0.0,-1.42118067,mp-1215685
FeH8S2NO10,2.221,-1.4208196463636371,mp-1225445
Co6Te3(ClO6)2,2.2763,-1.420483641739128,mp-562912
Ni2P4C11S2(OF8)3,2.5717,-1.420298055566771,mp-705014
V3(NO4)2,0.404499999999999,-1.420215366923077,mp-1193517
NdP2H2(WO3)2,0.0,-1.420195742637361,mp-1211570
MgMn(Ni3O4)2,1.5885999999999991,-1.419731113933189,mp-2233064
Fe2AsH19SO18,2.7292,-1.419601548140244,mp-1199640
Fe(CoO2)2,0.270599999999999,-1.419559434285716,mp-753348
Li3Cr4PH3O16,2.5845,-1.419484638829364,mp-1210973
Na2WO6,1.2701,-1.4194431823898461,mp-729044
BaAl2Si3(W2O5)2,0.0,-1.419227915,mp-1214647
Li8FeNi9O20,0.0,-1.41912103491228,mp-759197
Fe9Cu3O16,0.0,-1.419058577857142,mp-705842
Fe8H10O17,1.4497,-1.418127035499999,mp-1182671
KLa(FeO3)4,0.0,-1.417944788458333,mp-1520555
Cs4Rb2Fe2O5,1.4865,-1.417694804893899,mp-1213695
Co3TeO6,1.0654,-1.417656873666668,mp-645717
Rb2Mo3(As2O11)2,2.0986,-1.417575654516128,mp-818272
Li4MnNi5O12,0.503899999999999,-1.417562047784743,mp-779228
Sr2Mn3(AsO)2,0.0,-1.417517160977012,mp-19060
Mn3Ni3(TeO8)2,0.0,-1.4171345782136011,mp-756438
Li4Fe5Ni3O16,0.0,-1.4168798815476191,mp-756815
MnPH5CO4,3.585999999999999,-1.416675253443658,mp-725508
MnCoO4,0.0,-1.416557935488506,mp-756184
Mn5(SeO3)8,0.6155,-1.41652732874068,mp-776755
Li7(NiO2)8,0.0,-1.4164625781720421,mp-690528
CrH20N2O6F5,4.1752,-1.416447215147059,mp-1203990
Mn(PO5)2,0.0,-1.416313685170518,mp-1211068
Na5NiO4,1.8963,-1.415608920064655,mp-21996
Li4Ni7O11,0.0,-1.415114648560605,mp-768091
MgCrCo5O12,0.9051999999999992,-1.415028093421052,mp-2230698
Fe3(AsO4)2,1.7859,-1.414850181153845,mp-1212748
LaVI5O16,2.3631,-1.414569243804348,mp-1202389
Mo4H12N2O15,3.2002,-1.414301863636364,mp-1194636
Mg(CoO2)4,0.0,-1.414228155,mp-1385133
K10Co4O9,0.3409,-1.4142037742391291,mp-690511
Co2TeSO8,0.021999999999999,-1.4139849082638891,mp-1195741
K4Mo2S4ClO20,0.062599999999999,-1.4139232422258061,mp-1202298
FeH10S2NO11,2.4313,-1.4135860645,mp-1205475
V10As2O35,0.7205,-1.413266774397163,mp-818713
Rb2FeH2Br5O,1.3559,-1.41283912840909,mp-1209552
LiFe(CoO3)2,0.356599999999999,-1.412752742333333,mp-763429
MgCrH22O15,3.138,-1.412649538397436,mp-1197420
Li4Co2Ni5O12,0.004599999999999,-1.412631172318841,mp-1177650
FeCu2SbO6,0.357,-1.412616166249999,mp-1225111
Mn4(CuO4)3,0.0,-1.412599461143376,mp-1275750
Na3CrH14(C3O8)2,3.597,-1.412147612290948,mp-726543
MnH2(CO2)2,2.4292,-1.411699862825671,mp-558013
MnCdO3,0.0,-1.411691312586207,mp-1016854
NiTeO4,0.2761,-1.411543647777782,mp-1220014
TiCo5O12,0.0,-1.411462097407407,mp-756754
K3Na(FeO4)2,1.4664,-1.411235263080664,mp-18730
Zn(CoO2)2,0.0,-1.410660542857143,mp-753489
NaVH2I2O9,3.0634,-1.410558748925287,mp-1193007
Mn2NiO6,1.0781,-1.4104075945402301,mp-25285
Li2MgNi3O8,0.847,-1.410199516547619,mp-756920
Zn(FeO2)4,0.0,-1.410079019999998,mp-1045634
Co3WO8,0.0,-1.409688999583333,mp-753391
Na5NiHO4,1.494299999999999,-1.409635776422413,mp-759009
Ag2Te4MoO12,2.1281,-1.409304284736841,mp-1197464
KCo3Cu(AsO4)3,0.108999999999999,-1.4089886779875,mp-1211719
CrP2H14(NO3)3,3.7499,-1.408661044027093,mp-720256
Ag6Te4W3O20,2.4678,-1.408657404595959,mp-1204185
Sn(Mo2O3)2,0.0,-1.407954074090908,mp-505802
Fe13Cu5O24,0.0,-1.407926506428571,mp-763652
Li4Mn2Co3Cu3O16,0.0,-1.4075657899712641,mp-758211
CoH4(CO3)2,1.96,-1.4072362575,mp-24296
Fe2CuO4,0.0,-1.407231362142857,mp-770107
Ca3Si6W7O15,0.0,-1.406488038225806,mp-1214353
Na8Co5O14,0.4634,-1.4063836233716471,mp-774400
MoCl3O,2.4544,-1.4063811715,mp-23528
BiMoO3,0.0,-1.406245923000001,mp-1183479
Fe7(Ni3O8)2,0.932999999999999,-1.406190524827585,mp-754651
MgCo2O5,0.021099999999999,-1.406154004375,mp-1384826
K6Co2O5,0.6965999999999991,-1.405986150653846,mp-510366
LiLa(FeO3)4,0.0,-1.405921035462963,mp-1520090
VPbO2,0.049599999999999,-1.4056645075,mp-1208173
MgFe2(NiO2)4,1.875099999999999,-1.4055380156666661,mp-2232243
Cr2CuO7,0.0,-1.405511147333333,mp-1041777
VAgHgO4,1.2204,-1.405343847738096,mp-18901
Na4Mg(Ni2O5)2,0.466499999999999,-1.405257102658801,mp-2231875
V3Se2NO12,0.0,-1.40497846859375,mp-1200850
Fe7O9,1.138699999999999,-1.404771015937501,mp-705558
BaYW4O7,0.0,-1.4046964388461531,mp-1048425
Na2Co2O3,0.0,-1.404653371108373,mp-774332
FeH6SO6,1.4491,-1.404542327142856,mp-744930
V2Cu5(HO3)4,0.002099999999999,-1.404490512391304,mp-556753
LiMnO4,1.5169,-1.4041257793773951,mp-19438
Li6Co3Ni5O16,0.0,-1.403894358333333,mp-760934
WCl4O,2.333199999999999,-1.4038312974999991,mp-27754
LiFeCuO4,0.0,-1.403321443333332,mp-775462
LiNi2O3,0.0,-1.4028505926388881,mp-757063
MnCd9O10,0.0,-1.40266510789655,mp-757244
SrNd(CoO3)4,0.0,-1.40261820486111,mp-1521245
Cs6Fe2O5,0.0,-1.402424795225465,mp-505147
SrSm(CoO3)4,0.0,-1.401873728611111,mp-1521847
Sr3Mn2O12,0.0,-1.401622483874238,mp-1208580
Rb2NiH12(SeO7)2,3.665899999999999,-1.401544077086693,mp-24755
SrFe2Se2O,0.0,-1.401487739947916,mp-1095252
MnFeH14O7F5,0.0,-1.401134578765394,mp-744767
VXe2F17,2.4443,-1.4008346705,mp-29759
CrTcO3,0.0,-1.40032656,mp-1183695
FeAs2Pb4(ClO2)4,0.0,-1.400304662894736,mp-1181479
CoTeO3,0.0,-1.4002619573333321,mp-19113
Co5Te4(ClO6)2,2.3649,-1.400075675724637,mp-561564
CoP2H10(NO4)2,3.4061,-1.39989149779503,mp-1196775
MnTeC5O6F5,2.1624,-1.399438789005428,mp-650943
CrP2H16N3O10,3.8385,-1.3993471277901781,mp-1182808
MgMnCo5O12,0.9618,-1.399172048575316,mp-2231719
Li8CoNi9O20,0.0,-1.399081425175438,mp-1176867
KSm(FeO3)4,0.0,-1.398967681791666,mp-1519502
MgFe4(CuO4)3,0.0,-1.39895055325,mp-1043062
Fe6O11F,0.0,-1.398891488333332,mp-754460
LiCo3O4,0.0,-1.3988828904166661,mp-755398
Co5Te4Cl4O11,1.8011,-1.398851575277777,mp-562327
Na2Mg(NiO2)2,0.0,-1.3987657108620681,mp-2223893
K2NiH12(SeO7)2,3.6116,-1.398518016909273,mp-1202063
K2CoH12(SeO7)2,2.9128,-1.398038761102821,mp-1196625
KTb(FeO3)4,0.0,-1.397983701328703,mp-1522788
Rb2CoH12(SeO7)2,2.8485,-1.3977849970866931,mp-542284
NaNd(FeO3)4,0.0,-1.3973722071599621,mp-1521193
NaSm(FeO3)4,0.0,-1.397017275909962,mp-1516706
CsMoH2C2SO7,0.0176,-1.396972920332511,mp-1238260
CaDy(CoO3)4,0.0,-1.396833901203703,mp-1522144
K4Rb2Co2O5,1.0943,-1.396593309923077,mp-17522
Rb5Mo2Br9O,0.6714,-1.3964154316176471,mp-1209819
AgBi2WO8,0.1379,-1.396247751805556,mp-1215004
Cu3(MoO5)2,0.0,-1.396173429,mp-1192830
Fe(TeO3)2,0.3005,-1.396129417453704,mp-818655
KNd(FeO3)4,0.0,-1.396096307486111,mp-1517987
MgAg6Mo2ClO7F3,0.0,-1.39601088625,mp-2231172
SrDy(CoO3)4,0.0,-1.39597915787037,mp-1523033
Co3C2(SeO5)2,2.1831,-1.395957874393383,mp-552260
V2Ag4O7,1.206499999999999,-1.3957250020993581,mp-1197838
Li5(NiO2)6,0.201399999999999,-1.39571041289855,mp-690572
W5O14,0.0,-1.395467416578946,mp-705284
Fe4P2N3O8F9,0.0,-1.395219385549451,mp-1196342
Li6Co5Ni3O16,0.0,-1.395052845666666,mp-759805
NaPr(FeO3)4,0.0,-1.394989082946999,mp-1522287
MgCo5SbO8,0.0,-1.394845602999999,mp-1233784
MgTl2(CoO3)2,0.0,-1.394697077424243,mp-2217280
Be2CoH6(NF4)2,1.883099999999999,-1.394640996710526,mp-1214769
Ba2Mn3(AsO)2,0.0,-1.393995162088123,mp-18963
Fe2Te4HClO12,0.1149,-1.393532989895833,mp-1212800
MgFe4(HgO4)2,0.0,-1.393481869333333,mp-2232261
NiH12SO10,4.9946,-1.3934437021875001,mp-559054
Zn2Mo2O5,0.0,-1.393425374999999,mp-1346849
CoNiH24(SO10)2,3.219799999999999,-1.393152052499999,mp-510223
CsCoH24(SO10)2,0.0,-1.392797805565732,mp-849751
Mo(BrO)2,1.4684,-1.392631681999999,mp-1080460
NaLa(FeO3)4,0.0,-1.392342090354405,mp-1523161
KPr(FeO3)4,0.0,-1.392244217162037,mp-1520747
CoH12SO10,2.6715,-1.392206910416667,mp-695883
KFe3(SO7)2,0.0,-1.392178692112499,mp-1180949
MnP2H6O5,4.1776,-1.3919372381940531,mp-1210970
Li2Fe2Co3O10,0.0,-1.391923047156862,mp-759569
Mg(Ni2O3)2,0.0,-1.391512318181818,mp-1043361
Na14Ni2O9,1.632399999999999,-1.391473318972413,mp-764496
Fe13O19,0.0,-1.391026822031249,mp-1195927
CaNd(CoO3)4,0.0,-1.390947832638889,mp-1519063
NaCo2Se2O7,0.6525000000000001,-1.390876512588901,mp-1210198
Li3Fe(CuO2)4,0.0,-1.390509073749999,mp-1177754
Mn2Co3Te3O16,0.043399999999999,-1.390211058577586,mp-755888