formula,bg,formation_energy,mp-id
Li5Cr2Co5O12,0.0,-1.637882660277778,mp-756713
Nd4FeCo3(AsO)4,0.0,-1.637717360624999,mp-1220228
Na2Cr2H4O9,2.7618,-1.6372784106034481,mp-1199268
Li5Fe2Co5O12,0.0,-1.637267254027778,mp-753569
V2Cu3Pb(ClO4)2,0.0,-1.637256122499999,mp-972470
Li4V2Co3Cu3O16,0.0,-1.637218852976191,mp-758266
Mg(FeO2)4,0.0,-1.637045844230768,mp-2219269
Ce2MnN3F,0.0,-1.63703701684729,mp-1226975
Li6(CoO2)5,0.0,-1.6369400619047612,mp-761027
RbMoIO6,2.6081,-1.6369211283333331,mp-554787
Li3FeCo3O8,0.1623,-1.636657191333333,mp-752570
BaSr7Fe7CoO20,0.0,-1.636646467291667,mp-1076892
RbMgFe(SeO4)2,2.324799999999999,-1.636282334399038,mp-2218548
Na4(Fe2O3)5,1.3345,-1.636051642086802,mp-1221268
Mn3H24(O3F2)4,0.9821,-1.635742305187087,mp-743588
TlCr2FeO8,1.858899999999999,-1.635725313611112,mp-1208083
MgTl4V2O7,0.0,-1.635637960238097,mp-2228511
LiV(TeO4)3,1.6644,-1.635604707843137,mp-764607
KNdMn4O12,0.0,-1.635585162026342,mp-1516684
Mg2Ni2O5,0.0,-1.635348241111111,mp-1394172
NaMnO3F4,0.242599999999999,-1.635140909645594,mp-1197317
MgFe8(O7F)2,0.032499999999999,-1.634914621399999,mp-1233175
Li3Fe5(CoO6)2,0.6123000000000001,-1.6348295354545461,mp-756115
LiNi3O3F,2.3555,-1.634742359166666,mp-758954
K3FeO3,0.0,-1.634728775964275,mp-504570
Fe2MoO4,0.0,-1.6347223207142851,mp-33537
Zn9Fe21O40,0.0,-1.634599173,mp-776633
Na2Fe4O7,1.4146,-1.6340472513660471,mp-1120771
Be2CoH20N2(O3F4)2,3.3104,-1.633876217435897,mp-24347
MgFe2(NiO3)2,1.851999999999999,-1.633852250454544,mp-2223661
Ni(WO4)2,0.0,-1.633832571818181,mp-25292
SmFePO,0.0,-1.6337652349107141,mp-505259
Li2Fe4O7,1.319999999999999,-1.633704040897435,mp-1120820
KMoH8(NF3)2,3.263499999999999,-1.633674532625,mp-1211490
Li3Fe(NiO3)2,0.0,-1.633632855,mp-773709
K2FeH2Cl5O,2.2787,-1.633592597681818,mp-24008
K7Mo12H29Pt2O59,0.070299999999999,-1.633532436073394,mp-1226142
KMoIO6,2.9911000000000003,-1.633520034694444,mp-556136
Na5WNO4,3.0457,-1.6330794024451412,mp-558401
ZnCoAs2O7,1.4904,-1.6329826236363632,mp-1042775
Mn3Se3O10,0.0,-1.6326893403640341,mp-28915
Mn5Te3O16,0.0,-1.632656368318965,mp-771044
LiMnCuO4,0.0,-1.632520183752053,mp-773500
MgMn4O9,0.0,-1.632445323694581,mp-1047828
Ni3P4(NO8)2,0.5793,-1.632444604342857,mp-1204236
K2Co(SO5)2,0.7162000000000001,-1.632247538966666,mp-1181029
Re2Ni(H2O3)4,3.6943,-1.632070904130434,mp-24635
LuFe4(CuO4)3,0.0,-1.6320094758333321,mp-1188625
VP2H8(NO4)2,0.0,-1.631743525204081,mp-765665
CrCdO4,2.2913,-1.631303849999999,mp-18781
Zn2CrIrO6,0.0,-1.63127749,mp-1047076
Li4Fe2Ni3Te3O16,1.122499999999999,-1.631269754761905,mp-779164
Na4MgV10(H11O13)4,1.0425,-1.631226744013669,mp-1221556
MnCo(BiO3)2,0.0,-1.631063862293103,mp-545769
Cr8Bi4O29,1.6625,-1.630922127560976,mp-744682
ZnCr4(CuO4)3,0.0,-1.6309150124999992,mp-1043069
Na3MnCoNiO6,0.202999999999999,-1.630569634339079,mp-1221227
KCu3Ag(MoO4)4,0.4969,-1.630486525556666,mp-699550
Li3Mn(NiO2)4,0.0,-1.63044363612069,mp-756870
Na5FeO4,2.1683,-1.6303946556896551,mp-760318
CrFeO4,0.7708,-1.630391092916666,mp-754792
RbLiMoHO4,2.660199999999999,-1.6302618769791661,mp-1209550
Na8Mg(CoO4)2,1.4058,-1.6300652397912891,mp-2231061
V7Sb4(NO11)2,0.7904,-1.6299793887857141,mp-1205274
NiGe3O8,1.9267,-1.629780885416667,mp-543103
Fe3O4,0.0,-1.6295829685714271,mp-19306
BaDy(FeO3)4,0.0,-1.629581174537037,mp-1522063
Li3Ni3SbO8,0.0,-1.6295691739999991,mp-772016
MnFeNiO4,0.0,-1.629450094704433,mp-1221897
Ba2Mg3Tl2(NiO3)4,0.0,-1.629199142681159,mp-1813181
ZnNiAs2O7,2.065699999999999,-1.629026573636363,mp-1042795
CaFeAsF,0.0,-1.629015594374999,mp-1079859
FeCu2BO5,0.050899999999999,-1.62897110712963,mp-1225359
Na10Mn2O9,0.9707999999999992,-1.6289592206978651,mp-778825
NaCr2In(H2O5)2,2.6817,-1.628825907391443,mp-1105721
Li2Ni2SnO6,0.6301999999999991,-1.62863126560606,mp-774781
CoAgF3,0.0,-1.6283116813333331,mp-1206910
KFe11O17,1.1288,-1.6281598904224142,mp-1178195
Fe2As2H2PbO10,1.6533,-1.628038261029411,mp-1212702
Na4MnO5,0.2646,-1.6280259720948271,mp-1210615
Ga2CoP3NO14,0.169699999999999,-1.6277824416156461,mp-1200913
NaCr4O12,0.0327,-1.627743441551724,mp-850999
Na2W3SeO14,0.023499999999999,-1.627587859255118,mp-1221359
Mn15O32,0.0,-1.627586665722671,mp-867971
MnH2SO4,3.380899999999999,-1.627467641928879,mp-635322
Zn(Fe2O3)4,0.363699999999999,-1.62710895515873,mp-1100888
Fe6H12Pb(SO7)4,1.2239,-1.627071034607842,mp-743742
ZnFe4NiO8,0.0,-1.626805588571429,mp-1215616
FeAs2Pb2O9,0.0,-1.626798227499999,mp-1212794
Co(SbO2)2,0.0,-1.626759076428572,mp-1193389
Ag6Mo10O33,1.8778,-1.626707688265305,mp-1205440
KCo2(MoO5)2,0.0,-1.6266836311500001,mp-1103899
Na4Li3(FeO4)2,0.0,-1.626666615030426,mp-768415
Li5Fe(Co2O5)2,0.0,-1.6262903973333331,mp-1222680
MgTl4(MoO4)2,1.0447,-1.626023009222225,mp-2228615
LiFe7O7F,0.0,-1.625911282083333,mp-1176712
Li4Mn2Ni5O12,0.0,-1.625801607573713,mp-758487
Na4FeO4,1.763199999999999,-1.625666475613027,mp-19022
ReNi(PbO3)2,0.0,-1.625657261249999,mp-1205510
Zn2TeWO6,0.434999999999999,-1.6253852731666671,mp-1373817
CoRe2(H2O3)4,2.987199999999999,-1.6253829954347832,mp-753358
MnAsH3O5,2.1119,-1.625316857168104,mp-695994
Co5P4H12(O8F)2,2.0431,-1.6253034421428572,mp-1199673
V2PH10NO11,2.1215,-1.6252159855857151,mp-759514
KCr(CO2)4,0.5839999999999991,-1.625125908017857,mp-1211853
Zn3Co3(AsO4)4,1.8437,-1.6249671267307702,mp-1047787
KNa4FeO4,2.0784,-1.624358551776732,mp-1205067
Li4CrCu3O8,0.0,-1.624257412708334,mp-755699
LaNi4(BiO4)3,0.434099999999999,-1.624147331249999,mp-1222967
Mo3O10,0.0,-1.6241278503846162,mp-1180348
Na3Mn2CuH10S4O17,3.905599999999999,-1.623960138445945,mp-1221479
VCo5AsO10,1.317,-1.623792046029412,mp-1216818
VH2SeO5,0.0,-1.62368805220486,mp-697501
Li10Fe3Ni7O20,0.2056,-1.623315378833333,mp-771052
Ni(SbO2)2,2.0339,-1.623124937499998,mp-21275
Li4Cu3Ni3(WO8)2,0.0,-1.623098902976189,mp-773508
Ba2Mg3Tl2(WO3)4,0.0,-1.622974695724638,mp-1340768
Cs2FeH12(SO7)2,4.1905,-1.622970657397107,mp-24220
Li2Cr3(CuO6)2,0.2216,-1.622792000745614,mp-1178040
CrAuO2,1.266,-1.6227390800000001,mp-996996
ZrW2O11,0.004,-1.622552671785714,mp-1207524
Co(PO2)2,1.7124,-1.6224904048979591,mp-1213752
VH10C2S2(O2F)6,3.2553,-1.622479699772727,mp-1200671
K3Cr(HO)6,3.2374,-1.622254304953124,mp-504994
Li4Mn2Cu3O10,0.0,-1.622025959431337,mp-849495
MgZn4(Fe2O5)2,0.0,-1.621892782894736,mp-2230844
Na2Mg(CoO2)2,1.327999999999999,-1.621792720862068,mp-2217480
BaMg(CoO2)4,0.0,-1.621672821071429,mp-1044533
Mn(ReO5)2,0.0,-1.6214535386870021,mp-1103967
CaMn2Cu3(RuO6)2,0.0,-1.6214159822931031,mp-1227234
Rb2FeH12(SO7)2,4.0478,-1.621283702419354,mp-1198856
V2Cu3NiO6,0.5053999999999991,-1.6212210912499991,mp-1275560
MnAl2P2(H5O4)4,4.649999999999999,-1.621071543956505,mp-1212408
LiMnP(H6O5)2,4.1674,-1.621044520236289,mp-850407
MnNi(BiO3)2,0.0,-1.621011599793104,mp-555839
MnAg4P6(HO3)6,0.0,-1.620905316570137,mp-1212305
Na8Te4W7O36,0.9336999999999992,-1.620840789503657,mp-1212664
VCl3O,2.8945,-1.620749174,mp-22938
Mn(Bi3O5)4,0.0,-1.620599381452456,mp-505201
Co(AsO3)2,2.065699999999999,-1.620584872222222,mp-19292
FeCSO7,0.8654000000000001,-1.620566087749999,mp-1178258
KCaCrH10C6O17,3.3606,-1.620434781520833,mp-735489
MoAsO5,1.787,-1.62034475892857,mp-1367924
Li2CoNiO4,0.0,-1.620289180208333,mp-753536
Co8Cu7(MoO4)12,0.0,-1.6201891476,mp-1228013
Fe3(PO6)2,0.0,-1.6199415114285711,mp-1181366
KMgNiIO6,2.3441,-1.6198481817250001,mp-2222843
Li4Mn3Fe2Cu3O16,0.0,-1.619800402754515,mp-779210
Li4Fe3Cu3(TeO8)2,0.0,-1.61967952345238,mp-777916
Li13Co15O28,0.037999999999999,-1.61955005845238,mp-766887
Zn3Ni2(GeO4)3,0.0817,-1.6195214977499999,mp-1325795
Fe3P2(HO)16,2.0659,-1.619417345926641,mp-742859
K17Fe5O16,2.1335,-1.6193211666644711,mp-558482
Cr3Co3(SbO8)2,0.0,-1.6192948725,mp-757879
MnNiO3,0.0,-1.619272340586208,mp-19331
Dy2Mo8O33,0.0236,-1.61917940635659,mp-1198422
Mo2H2O7,2.2613,-1.619173293863637,mp-626813
FeBi25O39,2.2279,-1.619026768692307,mp-757766
Mn3Fe3(TeO8)2,0.325,-1.6190008523802681,mp-775968
Mn3V2Co3O16,0.162199999999999,-1.618990201824711,mp-768525
VCoH14(O2F)4,1.9759,-1.61872935,mp-1204593
ZnCr2CoO7,0.0,-1.618704897954545,mp-1042883
LiFe23O32,0.8563000000000001,-1.6186948348809531,mp-773010
VNiH14(O2F)4,2.6441,-1.6186863716071431,mp-1199615
NiAs2S6N4(OF2)8,3.0622,-1.618485758513513,mp-560084
Mn(Bi5O8)5,1.388499999999999,-1.6184349434535021,mp-757801
TiCo3O8,0.9972,-1.618431934444444,mp-1101280
YCo3Se2ClO8,1.668,-1.618236214312501,mp-1048555
Cr2As6O19,0.0,-1.618189847777778,mp-732343
Cs4Fe2O5,0.523299999999999,-1.617868950329153,mp-1191216
VPb2Se3O10,2.375999999999999,-1.617859728564452,mp-1195841
Mn5Cu(Te2O5)6,0.371799999999999,-1.617741552909482,mp-1224824
K2CrMo6H23O32,3.1246,-1.617692664582032,mp-1196504
MgTiCo5O12,0.6403000000000001,-1.617295659912281,mp-2230350
Ce2TeMo6(H6O7)6,0.218299999999999,-1.617288811168583,mp-1201322
V(SeO3)2,2.051,-1.617126915243063,mp-557295
Cd(FeO2)2,1.8272,-1.617050185714285,mp-21333
MgMn3Cu3O8,0.0,-1.61704582591954,mp-2232653
FeP3O11,1.5453,-1.616743398928571,mp-1181396
Mn11Cu7O24,0.0,-1.6167339908867,mp-765492
Mo(HO2)2,3.1832,-1.616673973214285,mp-626540
Na2MgFe4O7,1.3317,-1.616647589482758,mp-2227250
NaCo3As3(HO6)2,0.0,-1.616384839827586,mp-505247
Cu3NiF6,0.0,-1.6163586620000001,mp-1238911
Na2Co3H10(SO6)3,2.9265,-1.6163271695210721,mp-1211357
Li4Cu2Ni3Sb3O16,0.099899999999999,-1.616225494047618,mp-754442
Li4Fe3Cu3(SnO8)2,0.0,-1.616184848333333,mp-775631
MnFe5O8,0.0,-1.616134753423645,mp-1221814
Ba2Mg3Tl2(CoO3)4,0.0,-1.615805362681159,mp-1046344
KCr2AgO7,1.6974,-1.6157626619469692,mp-559172
Ca3Co2(RhO6)2,0.0801,-1.615749112631578,mp-1378332
K2Mg(CoO2)2,1.6760000000000002,-1.615334617722222,mp-2240424
Li4Ni3BiO8,0.3278,-1.615302088958333,mp-1290471
LiMnH8(SO6)2,1.1821,-1.615106927344349,mp-831237
K14Fe4O13,2.250499999999999,-1.614902561822581,mp-14679
Li2Fe(CoO3)2,0.5655,-1.614878022878788,mp-1640067
LiFe2(ClO)2,1.7514,-1.614860779523809,mp-778496
VH17C4S4(O5F3)4,2.8513,-1.614757568124999,mp-1197884
ZnFe8Co3O16,1.5578,-1.614646970357142,mp-1215842
Ca2CrO8,0.0,-1.614589803636364,mp-795621
Mg3(Fe11O18)2,1.0484,-1.614565021557377,mp-531264
LiZn2(FeO2)4,1.2061,-1.614469969555554,mp-1235023
MnFe2O3,0.0,-1.6141878063218391,mp-761716
MgCrCo3O8,0.0,-1.614105725,mp-2226873
Cu4Mo5O17,0.771,-1.613789706923076,mp-650741
Li4Ti(Co4O9)2,0.2275,-1.613745919247312,mp-774904
Na5NiCO5,1.6222,-1.613660890366379,mp-1220779
NaFeH8(NF3)2,4.2486999999999995,-1.613370578409961,mp-1105542
ZnCoSb2O7,0.526899999999999,-1.613297654090909,mp-1042576
Na2Fe(SO5)2,0.443899999999999,-1.613044631183908,mp-1196862
ZnCu2(WO4)2,1.2035,-1.6126012723076921,mp-1041432
Li2CoH8(SO6)2,2.6701,-1.612558675266667,mp-770611
Fe3P2H3O8,0.5528000000000001,-1.612552245658482,mp-1213504
Sr3MgFe2Cu2Se2O5,0.214299999999999,-1.612458753645833,mp-2227600
Ba2TlCo2O7,0.0,-1.6122301781944441,mp-1046346
Li4Fe3(NiO5)2,0.239799999999999,-1.612077328070175,mp-752964
MgFe2CuAs2(HO5)2,0.438499999999999,-1.611759479583333,mp-2228370
Mn2Cu3H24(OF)12,0.6733,-1.611703360299285,mp-505404
LiCr4O12,0.037799999999999,-1.611579832696077,mp-773174
Ni2Mo3O8,0.102199999999999,-1.611567981538462,mp-1209899
MgMn2(AgO3)2,0.9213,-1.611514377654127,mp-2223323
Mn2HgO4,0.5427999999999991,-1.611381873337439,mp-1176488
Li5FeNi3O8,0.0,-1.61118840362745,mp-759765
W3NO9,1.229099999999999,-1.610782646153845,mp-1207745
MgMn2(SeO3)4,1.073,-1.6107683163282671,mp-2231769
Na3MoNO3,3.5662000000000003,-1.610738803642241,mp-19105
LiCr(CoO3)2,0.0,-1.610460323333333,mp-756072
NdFeAsO,0.0,-1.610240133749999,mp-622621
NaFe11O17,1.263299999999999,-1.610168881254459,mp-1101699
CaVSi4H12O11,0.0357,-1.610056807413793,mp-1214832
Mg2Co7O12,0.0,-1.609704524047619,mp-757414
Li3CrNi3O8,0.0,-1.609356977333333,mp-755220
Mn3(SO6)2,0.1289,-1.609228200811359,mp-1211119
CoPH3O4,2.9478,-1.609206018849206,mp-721058
Mn5H4(SO5)3,0.0,-1.6091474115613031,mp-1200131
MgMn4(CuO4)3,0.0,-1.608809191336207,mp-1043121
CaCo2O5,0.0,-1.608722593125,mp-1389398
Ni3Mo2SeO11,2.364399999999999,-1.608647453961397,mp-560757
Cs2Mo(SO)2,2.342,-1.608473800615764,mp-1193654
TlCr4BiO14,2.0832,-1.608283539166667,mp-616232
Zn2AgWO6,0.037499999999999,-1.608238444166665,mp-2216574
Mn3Cr3(CoO8)2,0.0,-1.608057781824713,mp-780886
ZnTcNiO4,0.0,-1.607959395714285,mp-1216043
NbCo3O8,0.0,-1.607891401666666,mp-761589
K2Co(SeO3)2,0.0,-1.607684705380681,mp-19189
VBr2O,0.415399999999999,-1.6076457237500001,mp-27713
CoH2SO5,1.172,-1.607606811944444,mp-643547
MgMo2(Cl4O)2,2.0948,-1.607169549615385,mp-2219271
CaV2O8,0.696099999999999,-1.6070469645454541,mp-1191309
CaV8O24,0.3682,-1.606821824545454,mp-1227738
Na(FeO2)2,0.0,-1.606661026982757,mp-759691
Li4Co2Cu3Sb3O16,0.0,-1.606659457619047,mp-756991
Nd2TeMo6H38O43,3.3103,-1.6066501358240741,mp-1173529
Rb3Cr(HO)6,2.9455,-1.6063255506249992,mp-1200241
MgMn2CoO7,0.0,-1.6062815712147331,mp-1365713
Sr8Fe7CoO20,0.0,-1.606247267361111,mp-1076165
NaFe2O3,1.424499999999999,-1.606165311896551,mp-675397
Li3Fe5(NiO6)2,0.2358,-1.6061447018181811,mp-753185
Fe2Te2(PbO4)3,1.754,-1.606144394649122,mp-1225390
Li4CrH8SO7,2.5375,-1.606123862182538,mp-770612
Li4Co3CuO8,0.0,-1.605996868333332,mp-753919
Zn3Ni3(AsO4)4,2.1145,-1.6055884480769231,mp-1041620
Ce8Fe8As8O7F,0.0,-1.605584167187498,mp-684894
V2Ni(H4O5)2,2.8013,-1.6054301692857131,mp-1179599
NaCo2(MoO5)2,0.0,-1.6054046127586221,mp-1103911
BiWO5,0.170699999999999,-1.6053643725,mp-1044227
MgGaMo4O7,0.0,-1.605335292115384,mp-560305
Li7Mn10O20,0.269299999999999,-1.6051396619633431,mp-675075
Mo3PW9N3O40,0.1712,-1.6049913112436232,mp-729848
Li3Fe3O8,0.1694,-1.604641878214284,mp-1299455
K4Mo6PtO26,0.310799999999999,-1.6044536120000001,mp-1204212
CoOF,0.0,-1.6043594194444442,mp-760931
Rb2NiH12(SO7)2,4.8683,-1.604172858387096,mp-24688
MgCr2(ClO)4,1.5604,-1.604027829545454,mp-2222928
SrNd7Fe8(AsO)8,0.0,-1.603555455078125,mp-684784
MgMo2(BrO)4,0.0,-1.603517001363636,mp-2217595
Fe(Bi5O8)5,0.767999999999999,-1.603436871969698,mp-759730
V2Pb4(Se2O7)3,2.3938,-1.603352400880682,mp-1203641
K2NiH12(SO7)2,4.9007000000000005,-1.6031730262741921,mp-24133
Zn2IrWO6,0.9592,-1.6031525725,mp-1375228
Cs2NiH12(SO7)2,4.956300000000001,-1.60286292384872,mp-542420
Mn7Cr12O48,0.189699999999999,-1.6028257502316001,mp-773028
V2Cd6Se5O21,2.3771,-1.602691440859374,mp-561273
NaMgFeO2,0.0,-1.602513965275861,mp-2224450
Mo3As2O15,1.1219,-1.602470372,mp-1221944
Li6TiNi7O16,0.375999999999999,-1.602061093111111,mp-758326
Fe2TeO5,1.8884999999999992,-1.601952902083333,mp-560112
Li4FeNi3O8,0.0,-1.601898152083333,mp-765712
Na(Fe2O3)4,0.290599999999999,-1.601650034351395,mp-766058
Cs2CoH12(SO7)2,2.8743,-1.60162157368743,mp-863299
KMo2Cl7O2,2.645699999999999,-1.601497468520833,mp-558030
Fe12PbO19,1.1208,-1.60139915515625,mp-555778
MnV5H20NO22,1.9797,-1.6013958399577761,mp-1199603
RbSi2Mo3P6O25,0.3667,-1.601329046496138,mp-705894
Li8(NiO2)5,0.016699999999999,-1.60110672289855,mp-755081
InFe11O16,0.0,-1.6006680698809521,mp-759922
Ni(AsO3)2,0.0,-1.600634289444444,mp-19384
BaCa(WO2)4,0.0,-1.600491646428569,mp-1048070
K2CoH12(SO7)2,3.134,-1.6004277645,mp-542902
CsFeP(H6O5)2,4.6479,-1.60041453397192,mp-1192997
Co2P2H12O13,3.0964,-1.600350573768472,mp-782822
TlVH6SO9,2.7893,-1.6003362199074072,mp-558147
Mn2BrO3,0.0,-1.600250110977011,mp-1190924
LiMn2(CoO4)2,0.2606,-1.600199540707338,mp-778584
InFe29O40,0.3408,-1.600050942666666,mp-760104
Fe9PO12,0.0,-1.59942467702922,mp-1225104
Mn3Zn2(AsO6)2,0.0,-1.599405836778584,mp-1210774
NiH2SO5,0.0,-1.599307243888888,mp-643570
Li5Ni5O9F,0.063899999999999,-1.599274961833332,mp-764733
VCu2BiO6,0.0,-1.599227990416667,mp-699707
WN3F5,3.2908,-1.599216209166666,mp-29290
MnAgH8(OF)4,0.302099999999999,-1.599134833866538,mp-744084
K3Mn2O8,0.126399999999999,-1.599039684431697,mp-1194415
FeMoHSeO7,1.663599999999999,-1.598932178735795,mp-1202896
NaCoAsCO7,0.0,-1.598876988079937,mp-772152
KFeP4(HO3)4,0.039199999999999,-1.598861024355519,mp-1200689
V2PH8(NO4)2,2.3106,-1.598850185459183,mp-1216864
K2Fe9H18S6O43,0.0,-1.598840837782052,mp-1224807
Fe3P8H26NO36,1.3934,-1.598523914387066,mp-743549
NbV3F6,0.0,-1.598486909500002,mp-1210162
Mn3CoO8,0.0,-1.598440778649427,mp-771970
Li8MnNi7O16,0.100699999999999,-1.598419378268677,mp-761013
Li5Co2Ni3O10,0.2273,-1.598409200333333,mp-755607
Zn(WO2)2,0.089699999999999,-1.597949237142856,mp-2371615
Li4Fe3(CoO4)3,0.0322,-1.597932755606059,mp-881189
Mn5NiO12,1.144,-1.597888842758619,mp-755683
Li4Cu3Ni2Sb3O16,0.0,-1.597724420833333,mp-774887
CrPb5O8,1.943899999999999,-1.59761015580357,mp-705034
FeBP2O11,0.0,-1.597192549785714,mp-1213402
FeF6,0.5263,-1.5970489985714291,mp-1213622
Zn2Fe2O5,1.850199999999999,-1.5967252061111121,mp-1377137
MnAg4(PO4)6,0.0,-1.596129774641567,mp-1180483
K2NiH8(CO5)2,4.4558,-1.59603296823913,mp-24573
CoRe(PbO3)2,0.0,-1.5959179782500001,mp-1205702
Li6Fe3Co7O20,0.0,-1.595796041666665,mp-759810
Li5Co4NiO10,0.0,-1.595230234333333,mp-1222861
MgCo6(O2F)4,0.1082,-1.595077062894736,mp-2231930
VAg2O3F,1.683399999999999,-1.5950548569047611,mp-704944
V2Co3Te3O16,0.169799999999999,-1.594945595833333,mp-756211
Li4Co3Ni3(SbO8)2,0.0,-1.594874268333333,mp-757843
LiFe(SeO3)2,2.6596,-1.594728772802084,mp-558555
Mn3H2Se3O10,0.181599999999999,-1.594668360740243,mp-24178
CsMnH4Cl3O2,3.9422,-1.594443959326024,mp-1202031
Li2Mn(NiO3)2,0.5479,-1.594435484054336,mp-762624
Mo6NO18,1.8247,-1.5938699042,mp-1221507
Li3Fe2Co3O10,0.0,-1.593818591944445,mp-759196
Mn5(SO5)3,0.0739,-1.593526975311093,mp-1211070
Mn3Cu(Te2O5)4,0.707499999999999,-1.5934812516289512,mp-1221994
CrAs2O7,0.8405,-1.593456358,mp-1042757
NaCuMoO5,0.0,-1.5931854639224141,mp-1200315
FeAs2PbO8,0.0008,-1.593152074375,mp-818283
RbFe5O8,1.4357,-1.5930232991071431,mp-768895
Rb2Mo(SO)2,2.3431,-1.5927814264285711,mp-1104440
MgMnCo3O8,0.7315,-1.592778203302388,mp-2219372
SmEuMn4O12,0.0,-1.5924850823180081,mp-1518627
CaFe8(O7F)2,0.0,-1.5924294859999981,mp-1233028
CeCr2O10,0.0,-1.592197779230768,mp-818536
PrFePO,0.0,-1.592157412827381,mp-22034
ThMo2O11,0.3668,-1.591803177499999,mp-1202366
InFe17O24,0.213899999999999,-1.591784446825397,mp-768276
UCu4(MoO8)2,0.0,-1.591669642608696,mp-1191505
NaSrCoBiO6,0.0,-1.591536635137931,mp-1519070
NaMo3O11,0.4365,-1.591436547925287,mp-1204318
MgMnAgO2,0.0,-1.59128216091954,mp-2210750
LiFeH8(SO6)2,2.3339,-1.591101032222222,mp-781672
Fe2NiO4,1.361599999999999,-1.591041269285713,mp-35596
MgCo3SbO8,0.5688000000000001,-1.59096496653846,mp-2233628
Li3CrH12(CO3)6,3.3681,-1.59096036775,mp-774905
Li2CoH8(CO5)2,2.08,-1.590939380724637,mp-770598
ZnMo2O5,0.0,-1.5907123225,mp-1043221
Fe4Co(BiO3)5,1.081999999999999,-1.5903786766,mp-1225360
NaFe12O19,0.0,-1.590262992699353,mp-1101695
NaFeRuO4,0.0,-1.5902362005541861,mp-1221054
Li4Fe5Co3O16,0.0,-1.590227401547619,mp-772179
Mg3Fe4(BiO4)6,0.0,-1.589298598243243,mp-1043056
NaEuMn4O12,0.0,-1.58907177822797,mp-1519587
MnFe4CuO8,0.0,-1.589032732709359,mp-1221688
YFe2Bi2(SeO2)2,0.0,-1.588042840426136,mp-1022730
Na8Fe5O14,0.0703,-1.58784536170498,mp-759731
ZnFeAs4(Pb2O9)2,0.0,-1.5877251775,mp-1215919
Li3Ni2(GeO4)3,0.0,-1.587711953749999,mp-1013796
Mn20O43,0.052,-1.587591254501915,mp-1222372
Na3CrH10C6O17,3.2292,-1.587520903084809,mp-698352
V2FeAg3O8,1.6188,-1.587404762857142,mp-1192650
Rb3FeO3,0.4919,-1.587311184285714,mp-555287
MnH4(SO5)2,0.0,-1.587162565760648,mp-772662
Cr4(CuO4)3,0.0,-1.587150263684211,mp-1043136
NiAg4P6(HO3)6,0.0,-1.587136401486394,mp-1210391
SrNd5Fe6(AsO)6,0.0,-1.5870818515624991,mp-694989
Zn2CoSbO6,0.0,-1.587027162999999,mp-1370378
Fe43O64,0.773099999999999,-1.586765549626167,mp-530050
AlFe3Se2ClO8,2.3164,-1.586237281645832,mp-1045601
ZnCr2O7,2.4233,-1.585691002499999,mp-1341886
MnPH6NO5,3.073699999999999,-1.585664146255279,mp-732315
Rb8Mg(FeO4)2,1.832,-1.585626064473683,mp-2230085
TaWNO6,0.0,-1.585335944148148,mp-1217852
Sr4MgMn2Cu3(SO)4,0.0,-1.5852407317145591,mp-1233888
FePH5NO4F,3.7068,-1.585069596991757,mp-1225015
Li4Mn2Fe3Ni3O16,0.0,-1.585045744971264,mp-765636
Li2NiO3,1.3307,-1.5850437602777832,mp-556550
Na4V10Co(H11O13)4,0.081799999999999,-1.5848890895542092,mp-1224720
Zn4Te3W5O18,0.295399999999999,-1.5847859855,mp-1046655
LiV5H18N2O19,2.4645,-1.5844634147962962,mp-729119
KLiCoO2,1.6575000000000002,-1.584380029116667,mp-753408
Co(Bi5O8)5,0.4478,-1.5841721696464661,mp-686514
Fe(CO3)2,0.0,-1.584043908888888,mp-752929