formula,bg,formation_energy,mp-id
Co3Sb4(OF)6,2.343,-2.013515287894737,mp-1105290
MgMn2Zn2O6,0.6231,-2.013393565532915,mp-2217339
MgCuW2O7,0.011,-2.013348204090908,mp-1041919
Na4MoO5,2.9246,-2.013313437051724,mp-29984
LiFeSnO4,1.7377,-2.013281224404761,mp-756311
ZnP4W3O14,1.5008,-2.013176138344154,mp-1040898
Li13Mn21O48,0.0,-2.013090367315672,mp-530398
AlNiO3,0.0,-2.013076565499999,mp-1376903
MnCO3,3.2291,-2.012984636586208,mp-18814
ZnCrFeO4,1.3234,-2.012926087142856,mp-1215793
K2Na2NbW3O10,0.120399999999999,-2.012919590194923,mp-1076206
Li4Cr3(FeO4)3,0.120899999999999,-2.012850951060607,mp-755679
V2NiP2H6O13,1.9135,-2.012604418928572,mp-1179562
KIn(WO3)4,0.320199999999999,-2.012550225773148,mp-1522089
Li4NbFe5O12,0.5329,-2.012510244242424,mp-756145
Al(FeO2)3,1.3122999999999991,-2.012492827499999,mp-1048821
K8Li3Cr4O16,0.0,-2.012457104129032,mp-782640
Li4Mn3Fe2Sn3O16,0.5829999999999991,-2.012399996504516,mp-777053
Li3Mn(SbO3)4,0.0,-2.012358247396553,mp-757166
Sr5Ca3Fe2(CoO4)6,0.0,-2.012281078,mp-1076260
Ca6Mg2Co(AsO5)6,0.476299999999999,-2.012207903444444,mp-1227904
KCaEuFeO6,0.0,-2.012089856225,mp-1519702
CrCu3(PO4)4,0.0,-2.01205066202381,mp-756462
Li4Cr3Co3(SbO8)2,0.0,-2.011850058333333,mp-758153
Li2Mn3O7,1.416199999999999,-2.011608467954981,mp-770534
K5Mo3H2S4O2F11,0.1027,-2.011448875879629,mp-1196293
MgFeAsO5,2.0052,-2.01138336625,mp-1047268
MgMn6O11F,0.0,-2.01124798855717,mp-2231437
FeCoPO5,0.1222,-2.011240842142856,mp-542157
LiVTe(WO6)2,1.793899999999999,-2.011237426470588,mp-753012
K2U2Cr2H2O17,0.1291,-2.011221722779999,mp-1181919
Y4Si2Ni13(SbO14)2,2.133599999999999,-2.011184559591836,mp-1044649
Li4Cr2Fe3Sb3O16,0.9222,-2.010789234761904,mp-774252
Zn3Cr2(GeO4)3,1.940799999999999,-2.010698294000001,mp-1328221
Li4Mn13O24,0.0,-2.010638674303336,mp-698705
LiV4(NiO6)2,0.111099999999999,-2.010479784912279,mp-1235775
MnZnGeO4,0.8407999999999991,-2.010442540775863,mp-1193910
Ga2NiO4,1.2806,-2.010357559999998,mp-35236
Li5Mn12O24,0.0,-2.010304827687134,mp-705961
KCoPH2O5,1.6258,-2.010240645439286,mp-643954
Rb3(MoO3)10,0.029399999999999,-2.010186109593023,mp-1202770
Li3Mn2(CO3)4,0.5761000000000001,-2.010090058850575,mp-752801
V2Zn3TeO10,2.8675,-2.010074728072917,mp-554700
MgMn2FeWO6,1.246799999999999,-2.00998853007837,mp-2217875
Ge2WO6,0.3037,-2.00990686,mp-1043268
LiMn2P2H5O11,0.8279000000000001,-2.009887304034814,mp-780864
MgZn2(MoO4)2,1.207399999999999,-2.009839246538462,mp-2233950
MgFeO3,0.2,-2.0097763885,mp-1279364
Zn2CrWO6,1.682799999999999,-2.009660486499999,mp-1041661
KNiPH2O5,3.3402,-2.009573537439285,mp-644129
NaSbMoO5,3.3686,-2.009563161422413,mp-557087
Ni7(PO4)6,0.0,-2.009561998861003,mp-771985
Li14Mn2O9,2.5922,-2.00955945110115,mp-770530
Na3CoBAsO7,0.491199999999999,-2.009385663715738,mp-771066
Co3Ni(PO4)4,0.0,-2.009345230773809,mp-775307
SrLi4NiO4,2.7264,-2.009212756208333,mp-776394
LiV3CoO10,0.6737000000000001,-2.009057018222223,mp-754313
Li4Mn3V3(CuO8)2,0.0,-2.009036653111658,mp-1177424
RbLiBi2(MoO4)4,3.054599999999999,-2.00898332982639,mp-650024
BaSr(CoO3)2,0.0,-2.00877147,mp-1205807
TlVO3,2.9763,-2.008665790166668,mp-22330
LiZnCr3(SO4)6,0.0,-2.008505540809523,mp-532759
Na4Co12P8H4O37,0.0491,-2.008452446810154,mp-1221695
KFe(MoO4)2,2.4118,-2.008169349354169,mp-19362
K2UMo(IO6)2,2.2171,-2.008158812888888,mp-556764
LiMn2Cr2O8,0.6418,-2.008132852053492,mp-780849
Na2MnPO5F2,0.1841,-2.00813260684841,mp-1210636
KMgMn4O8,0.0394,-2.008103511712439,mp-2228567
Li2Fe(CO3)2,4.1307,-2.007990744242425,mp-759605
MnV2O7,0.5048,-2.007953910293102,mp-1189063
SrEuNiBiO6,0.0,-2.0075490435,mp-1519106
NaFeP3H7O13,2.6593,-2.007476200362315,mp-707911
MgVCuO3,1.489599999999999,-2.007361598333334,mp-2223050
Cs5Mo8P(H3O16)2,3.5554,-2.007062321161898,mp-1199240
Na4Mn2P(CO4)4,0.0,-2.007023509297118,mp-782649
Fe2P2O9,0.0,-2.007021734752748,mp-1041062
BaAlFeCuO5,0.0,-2.006972187222222,mp-1042464
K3(MoO3)10,0.0,-2.006804716087208,mp-541614
Li3Ni4O4F3,2.241,-2.006737931071428,mp-752750
Fe7Sb3P3(ClO6)3,0.0,-2.006358232468486,mp-1200389
Na4MgCr2O8,1.0291,-2.006238348034483,mp-2232352
ZnCr(GeO3)2,0.5417000000000001,-2.00587142725,mp-1648759
MgFe4(O3F)2,1.6989,-2.005824895,mp-2224795
Ca3Co2(TeO6)2,0.7887999999999991,-2.005776489649123,mp-1369415
Mg(MoO2)4,0.5366000000000001,-2.005649442692309,mp-2227581
Na2NiP2(HO3)2,4.3873,-2.005641500541871,mp-1200779
Ca3Fe4(SbO4)6,1.6167,-2.005526130000001,mp-1042781
GaNi2BO5,3.072799999999999,-2.005459676296302,mp-505076
Li2Ti(NiO3)2,0.3679,-2.005218391212121,mp-758759
MnTl2P4(HO2)8,4.0683,-2.005189706553843,mp-1201959
Na6Co2P(CO4)4,0.0,-2.00518248941099,mp-770874
Mn3ReO6,0.0,-2.005031953129311,mp-1105243
KSb(MoO4)2,2.5382,-2.004925024770833,mp-618807
Li2Mn7O12,0.7027999999999991,-2.004863608913519,mp-758656
YbWO3,0.0,-2.004820586249999,mp-1187485
LaCrCuO6,0.607,-2.004698488333334,mp-1040880
Li6FeO5F,0.0,-2.004531053076924,mp-757357
Li9Mg12Fe(PO4)12,0.0,-2.004279707996516,mp-745203
EuV(SeO4)2,0.0,-2.004119640598959,mp-1198609
MgV2(CuO3)2,0.5349,-2.004063396818182,mp-2224170
Li5Mn2Fe3O10,0.1872,-2.004060544626438,mp-755514
V2Pb4O9,2.912899999999999,-2.004045117333333,mp-647385
Li2Mn3FeO8,0.8879999999999991,-2.004034529675697,mp-777396
Li3Mn4NiO8,0.0,-2.003871953232759,mp-756351
Mn3Fe2(GeO4)3,2.0808,-2.003658180439655,mp-1201980
MgVZn2WO6,1.491699999999999,-2.003361465,mp-2217674
BaFe4Sn2O11,1.646099999999999,-2.003327790555555,mp-1228094
Li3Mn4CoO8,0.0,-2.003303070732759,mp-755577
NiTeP2O9,1.0418,-2.00330243584249,mp-1352495
Mn7SbAsO12,0.0,-2.0031418089532,mp-699691
V4CoCuO12,0.0,-2.003005224444445,mp-1101361
VTeO4,0.102899999999999,-2.002969940277779,mp-30525
Ba2Sr6Co5Cu3O20,0.002699999999999,-2.002691699583333,mp-1076893
Sr8Co8O23,0.0,-2.002559162435897,mp-565434
Mn2FeWO6,0.0,-2.002447205586207,mp-1078277
Ba2MgAl2(Fe4O7)2,1.554199999999999,-2.00234575685185,mp-1234545
Li4Mn5(FeO6)2,0.9478,-2.002121055999501,mp-759127
Li4Mn3Sn3(TeO8)2,0.4713,-2.002063173230706,mp-774292
Cs(MoO3)3,0.0,-2.00205659458886,mp-17022
ZnFeH4O2F5,1.7907000000000002,-2.002051572692308,mp-763244
Li5CoO3F,0.1718,-2.002049005666666,mp-760036
KW5O13,0.0,-2.001989658539473,mp-685308
TaZn2NiO6,0.0,-2.001932570233333,mp-1372315
V2Cd3(GeO4)3,0.0,-2.00184389025,mp-1207985
Li4V2Cr3Co3O16,0.0,-2.001832311190476,mp-753635
CaCr2O7,2.6242,-2.001828125999999,mp-1042375
MgAs2WO7,2.7749,-2.001801235454545,mp-1042867
NaVAsCO7,2.0175,-2.001775274443573,mp-774241
Li8Mn2O7,0.960299999999999,-2.001510569119337,mp-770513
Na6Ni2P(CO4)4,0.0,-2.001414461307542,mp-780894
Cs2Te(MoO4)3,2.575599999999999,-2.001408935887612,mp-562767
Li3Mn2CoO6,0.9128,-2.001385837155173,mp-1304294
Li4Mn2TeWO12,1.1397,-2.001304961293104,mp-753980
MgCo2(PO5)2,0.059499999999999,-2.001303121619047,mp-1044011
V2S2O11,2.3616,-2.0011645385,mp-28207
Li2V(FeO3)2,1.4874,-2.001143914242424,mp-759143
Mn3NbF6,0.0,-2.00111929737931,mp-1238929
Li4Mn2C4SO16,0.7903000000000001,-2.001106191914646,mp-776358
Ni3OF5,0.844299999999999,-2.001044869444444,mp-763299
Li5Fe3(SnO5)2,1.5529000000000002,-2.000839798333333,mp-756675
FeAs2S4(O2F3)4,3.2335,-2.000691819629629,mp-1204738
V3(Bi3O8)2,2.2173,-2.000582200400001,mp-29058
V3HPb5O13,2.8288,-2.000520792784091,mp-729185
CaFe3O5,1.3614,-2.000408386111111,mp-19193
Na3VSO3,3.149,-2.000201474579742,mp-559500
LiMnP2H5O9,3.446499999999999,-2.000126458988893,mp-778069
VCoO3,0.1143,-2.000081474,mp-1206118
RbCrO2,2.7996,-2.000040384375,mp-771648
Cs2Mo7O22,2.8656,-1.9997086061067861,mp-1200748
W3O7,0.0,-1.9994787519999981,mp-1044534
Ba2Ca2Tl2W3O10,0.0,-1.9992973661403521,mp-1046558
K(MoO3)3,0.0,-1.9992788067115381,mp-16909
RbMgCr3O8,1.0082,-1.99922163403846,mp-2219751
Ba2Ca2Zn5Fe3O14,0.2356,-1.9991172801923072,mp-694875
CsFe(SO4)2,2.3514,-1.999110723929597,mp-560628
Li2Mn3TeO8,0.140299999999999,-1.999073188723317,mp-753235
Al2Fe3(BiO4)3,1.781699999999999,-1.999028312,mp-1229137
SrMn(SeO3)2,3.4451,-1.998965398261854,mp-559818
Ca3Cr6(FeO6)4,0.5525999999999991,-1.998860174864864,mp-1357678
Y2(Mo2O7)3,0.0,-1.9988088896551741,mp-1364503
Li21(FeO4)4,1.425499999999999,-1.9987800448780482,mp-769519
Cs3FeMo4O15,2.3633,-1.998776619846327,mp-1199975
VCdClO3,2.698299999999999,-1.998744465833333,mp-555114
Ge2MoO6,1.5908,-1.998700590000001,mp-1043238
Li2Cr3Ni(SO4)6,0.523299999999999,-1.9985507694907412,mp-772134
CaMn8O16,0.124499999999999,-1.998544058937931,mp-1003319
Li4V2Ni3Sn3O16,1.450799999999999,-1.998482238154762,mp-774900
Li4TiNi3O8,0.5063,-1.998446786979166,mp-1277563
ZnCoPO5,0.1137,-1.9983827030803571,mp-2234517
CoAs2S4(O2F3)4,2.5374,-1.9982147867592581,mp-1198499
Cr(WO4)2,0.0,-1.9979559686363622,mp-1041693
NaBi(MoO4)2,2.8545,-1.997930923448276,mp-1210092
MgV2(BiO5)2,0.0,-1.997851989333333,mp-1377306
MnGaFeO4,1.5104000000000002,-1.997825486490147,mp-1221831
Mo2P3O14,1.083899999999999,-1.997710201259399,mp-1221571
Mg2TePb4WO12,2.9206000000000003,-1.9976979443333331,mp-1222496
NiP2O7,0.1355,-1.9976011531785711,mp-26212
Mg2FeIrO6,0.0,-1.997453159000001,mp-1289222
V2CuO6,0.523699999999999,-1.9970684222222221,mp-2234110
V3Pb5O12,0.0,-1.9970041694999991,mp-1208438
MgMn2(SbO3)4,0.9661999999999992,-1.996936134782214,mp-2230027
MnIn2O4,0.8588000000000001,-1.9968813580377651,mp-35162
Li4Fe3Sn3(SbO8)2,0.281,-1.9968310683333321,mp-754898
Na2In2Mo5O16,1.5639999999999992,-1.996828840643678,mp-1221585
Fe3PO7,2.1744,-1.996787724512985,mp-18775
MgMn3Zn2O8,0.4769,-1.99677531705665,mp-2226552
KEuFeSnO6,0.0,-1.9967367857250011,mp-1520482
Na3LiMn5O9,0.5897,-1.996529123451469,mp-762649
BaCr4O7,0.9646,-1.9964581687499992,mp-1048371
Na2FeCSO7,3.6176999999999992,-1.9960400650215502,mp-771138
Mn3Nb2Fe3O16,0.0,-1.995889347241379,mp-755993
MgCrTe(WO6)2,0.579499999999999,-1.99575536362745,mp-2228921
K4MoO5,3.1685,-1.995610981233334,mp-1211821
VP2H4NO7,1.9755,-1.995584901952381,mp-1197105
SrMoO2,0.418,-1.9955461268749999,mp-1208650
Cr3Si3Pb10(ClO12)2,1.4457,-1.995441140714286,mp-1226647
Li15Mn21O43,0.0,-1.995394927487998,mp-698703
TiFe2Bi2PbO9,2.1131,-1.995355853555556,mp-1216934
Fe2H4O2F5,1.587,-1.995273671923077,mp-758075
Li14Mn22Cr3Cu3O56,0.0,-1.995195968787238,mp-735790
Li2Fe3(BO3)3,0.5669000000000001,-1.995088699068628,mp-759292
KLiH2WO5,5.1568,-1.995080728808333,mp-760342
CaCr2O6,0.275399999999999,-1.994758331666665,mp-1375444
MgV(SbO3)4,0.0,-1.994750660833333,mp-2233299
Li5Mn5CoO12,0.1109,-1.9946332662168922,mp-760336
Li6CrO6,0.5276000000000001,-1.994271676923077,mp-753796
LiMn(SO4)2,0.6519,-1.9941205205220291,mp-774465
Cr3Sn2Sb3O16,0.3996,-1.9939905058333331,mp-772926
Li3Mn(FeO3)2,0.6671,-1.993968498994252,mp-757072
VP(H2O3)2,1.9898,-1.993693849136904,mp-695981
Na6Cr2As(CO4)4,0.0,-1.993497601750892,mp-770747
Cs2Cd2(MoO4)3,4.1415,-1.9934673166742292,mp-1200495
KFe(SO4)2,2.1783,-1.993438723729166,mp-20968
K4Mg(WO4)2,1.3497,-1.993334986933333,mp-2241494
CaCoWO6,0.0,-1.9933265299999992,mp-1372511
Mg3Co2O7,0.268599999999999,-1.993128327916666,mp-1651567
Cr6Cd(CuO6)2,0.0,-1.9931261742857151,mp-1226244
TlCoF3,0.0,-1.993014821666668,mp-998160
CrBiO3,1.790499999999999,-1.992954802000002,mp-559851
BaLi4NiO4,2.689299999999999,-1.9929300850833331,mp-776559
Li4TiMn4(Fe2O9)2,0.4363,-1.9929223572061552,mp-768043
Ca3As4W3O16,0.502599999999999,-1.992861444038461,mp-1041855
MnFeH4NF6,2.147,-1.9928143750331562,mp-1182519
K2MgMo2(H2O5)2,4.347,-1.992467306026316,mp-1181784
V2Co2O7,1.8533,-1.992428717045453,mp-27156
KFe2P2H5O11,2.5089,-1.992350725608843,mp-735566
Mn21Sn9O40,0.0,-1.992186497165024,mp-767308
Na2FeBAsO7,0.6697000000000001,-1.9921455987021062,mp-756330
B2Pb6WO12,2.56,-1.9919247153968231,mp-1198358
Al4Fe13Si2(SbO14)2,0.305099999999999,-1.9918556795918372,mp-1133344
Ca2MnNiO6,0.0,-1.991806332293104,mp-1326305
CaCoAsHO5,1.9298,-1.991736076805555,mp-23815
NaCo3P3O13,0.0,-1.991508315515394,mp-1013830
LiNbTe2WO12,1.9943,-1.991402705686274,mp-752611
Sr2Co(SeO3)3,2.9627,-1.991365023135417,mp-17540
Li4NbNi3O8,0.0,-1.991280587083333,mp-754424
Cr5Sb3O16,0.273499999999999,-1.9912340733333331,mp-771316
Li4V2Fe5O12,0.945,-1.9912139992753621,mp-758608
Fe2P2H4O9,3.901,-1.991200773193277,mp-541954
Ba4Cu3MoO12,0.0,-1.9910682555,mp-1232318
Sr2FeCu(PbO3)2,0.944199999999999,-1.9910295112499992,mp-1191264
LiFe(MoO4)2,2.0562,-1.9909764569444461,mp-561087
In2(MoO4)3,3.7398,-1.9906693901225492,mp-705134
SrFe5P5O22,0.9821999999999992,-1.990661479642857,mp-1197366
Na2CeFeO6,0.0,-1.990470062275861,mp-1522277
V2Bi4O11,2.354899999999999,-1.9904402094117661,mp-757152
MgMn3HO6,0.9603,-1.990184070003919,mp-2218039
CaMo3O7,0.9531,-1.990179940227273,mp-1044292
SrCa7Fe2(CoO4)6,0.0,-1.990063214499999,mp-1076829
Li5Mn7Fe3O20,0.0,-1.989925085633826,mp-779755
Sr5Ca3FeCo7O24,0.0,-1.9898772674999992,mp-1076107
Li4TiFe5O12,0.343099999999999,-1.989714283939394,mp-755645
Li2CoHgF6,0.0,-1.9896839149166672,mp-1111351
K(MoO2)4,0.3487,-1.9896013620961541,mp-504907
LiNiPHO5,0.006199999999999,-1.9895928360251312,mp-754131
Mn9Zn3O16,0.758999999999999,-1.989420115049261,mp-1221877
NaCo2P2O9,0.0,-1.989291226297502,mp-1094138
Li4Fe3WO8,2.197799999999999,-1.9892737145833321,mp-756528
MnPb(SO4)2,3.434,-1.989263127952586,mp-1210715
MnV2P2(H4O7)2,2.199899999999999,-1.9892597417487692,mp-1221778
Li4Mn3Fe2Sb3O16,0.548999999999999,-1.989238926683088,mp-774490
Li4WO6,0.0,-1.9891940121212122,mp-1222509
Mg(Mo2O5)2,0.0,-1.989188496333333,mp-2232112
Na3Ni2P2(CO7)2,0.011699999999999,-1.9889855488445052,mp-1176369
Na2MnAsCO7,0.7056,-1.988914695682471,mp-773119
Rb2Mn2(MoO4)3,2.1965,-1.9887627595190571,mp-1196652
Li2VFe3O8,1.3598,-1.9886443879761901,mp-772953
VBrO,1.491099999999999,-1.9885223116666662,mp-27841
Li4Cr3Co2Sn3O16,0.2288,-1.9885207160119052,mp-775520
FePH2O5,2.0601,-1.98837572079365,mp-1188668
Li4V2Ni3Sb3O16,0.581199999999999,-1.988310506190476,mp-774610
MgV4(CuO4)3,0.0,-1.98828314425,mp-1043180
Cr3Sn3(SbO8)2,0.6955,-1.9879677056249991,mp-771431
Mn2FeP2O11,0.236399999999999,-1.987966880634236,mp-1199538
Mn11In25O48,0.0,-1.987850810403666,mp-758347
CaU2V2O17,0.9609999999999992,-1.987849190681817,mp-1196876
Li10Mn5Fe3O16,0.748899999999999,-1.98777485214672,mp-759959
MnV4Fe(Pb2O9)2,0.3325,-1.987665615997537,mp-1221864
Li6CrO4,2.1739,-1.98759437090909,mp-772552
VZn2BiO6,2.7248,-1.9875375465,mp-1105584
V2GePb5O12,2.7314,-1.9874401827500001,mp-1217012
Fe3BO6,1.1726,-1.9873974904166671,mp-22774
LiCr4In4O12,0.0,-1.987390464285713,mp-1236597
CaCoSb2O7,0.8295999999999991,-1.987308288863635,mp-1042450
Li2Cr5O12,0.6007,-1.987307701403509,mp-772650
Li10Cr3Fe3(NiO8)2,1.7259000000000002,-1.987283055980392,mp-1178099
KPrFeBiO6,0.3772,-1.9872505188916672,mp-1518082
Li5MnO5,0.0,-1.987118803599791,mp-770101
Li2FeWO6,0.0,-1.987055392666666,mp-774932
KMo5O13,0.2692,-1.986944908802631,mp-505783
NaCaEuFeO6,0.0,-1.986794306637931,mp-1517224
Na6Mn2As(CO4)4,0.0,-1.986789513159928,mp-850884
Li4Mn3Cr2Fe3O16,0.0,-1.986768636683087,mp-849471
Li4CoTeO6,2.3692,-1.9867556625000011,mp-1222462
Li3Mn3FeO8,0.2117,-1.986580084252874,mp-863869
Co3AgP3(HO6)2,0.0,-1.9865283087188201,mp-24706
Cs4Mg(WO4)2,1.5228000000000002,-1.986470666908045,mp-2232192
Mn4GeP4(H6O11)2,3.3033,-1.986405739309198,mp-1201485
Li3Mn4(FeO6)2,0.4091,-1.98630908412972,mp-769530
Li7Mn10O24,0.0,-1.986158178357164,mp-675534
MgMn4FeO8,0.0,-1.986089833337439,mp-2226478
Li4MnFe3O8,1.0974,-1.986057234454023,mp-763910
CrHO2,3.155799999999999,-1.9860185846875,mp-23910
Ca5Si6W5O17,0.0784,-1.985950246515151,mp-1214286
CdWO4,3.262699999999999,-1.985844491666664,mp-19387
Mn5SnO8,0.4004,-1.9858434467610842,mp-1297694
KVBiWO6,0.0,-1.985765601725,mp-1520212
Na5ErH6WO10,3.9271,-1.9856686787781102,mp-1195392
CsVSeO5,3.0977,-1.9856416221248652,mp-1201217
Na2Mg(MoO3)2,1.4402,-1.985632308887147,mp-2217629
MnCu3(PO4)4,0.0,-1.985597141104269,mp-775168
Li3Mn8O16,0.0,-1.9855160356832702,mp-531365
Na3WO4,1.1392,-1.98548962739224,mp-1210212
NaMo6O17,0.5921999999999991,-1.9853730473491231,mp-1210358
FeSO4F,2.0446,-1.9853002978571421,mp-1103970
Li3NiAsCO7,3.5416,-1.985235249423076,mp-771015
SrTiFe4Bi4O15,1.8761,-1.985095523533334,mp-1217795
Mn4CrO8,0.0,-1.9849899924403192,mp-754200
V2ZnCuO7,0.0,-1.984982716818181,mp-1216520
MgCd2(WO4)2,1.6108,-1.9849494773076901,mp-2219635
MgFe2O3,2.77,-1.984920704166666,mp-1221998
MgFeAs2O7,1.911499999999999,-1.9848618138636351,mp-1042809
NdMoO2,0.0,-1.984852184375,mp-1209996
KCoP2H5O9,3.4371,-1.984713495571428,mp-1223680
FeCoBO4,0.2672,-1.9845970884523811,mp-504583
MgMn6O12,0.342299999999999,-1.9845634559255911,mp-1003771
CrCu(WO4)2,0.431299999999999,-1.984436133333332,mp-1213744
Ba2CaAl2(Fe4O7)2,1.2034,-1.984268626666666,mp-1234250
LiMn(CO3)2,0.904999999999999,-1.984233065876438,mp-1295192
RbV3(SeO6)2,2.3219,-1.983994094010417,mp-16917
Li4Mn2Cr3Fe3O16,0.0,-1.9838816042569791,mp-754045
LiFeP2H5O9,3.58,-1.983768348964946,mp-779003
Mn5V2(HO3)4,1.7086,-1.983742084115442,mp-1210639
Sr2Ni(SeO3)3,3.0767,-1.9837368911354172,mp-1194096
Ca3Co4O9,0.0,-1.983693090729166,mp-1096877
Na4Cu(MoO4)3,0.2423,-1.983658005525863,mp-556252
NaMn3O4,0.045399999999999,-1.983499410021551,mp-752601
YV3Se2ClO8,1.097299999999999,-1.9834005903125012,mp-1048592
Na2CrO4,2.8731,-1.9831485689655162,mp-18779
MgMn3TeO8,0.9034,-1.983129455035366,mp-2218964
Mn3V3(AgO6)2,0.0,-1.982843567106322,mp-1194640
MnZn2WO6,2.0924,-1.9827600887931032,mp-1047316
U4Co2S2O27,0.0,-1.982752853142856,mp-1209466
Li8Mn2O9,0.0,-1.98265745408046,mp-773132
LiCr3Ni(SO4)6,2.3309,-1.982609278238095,mp-766088
AlCoP2NO8,1.0388,-1.982441474368132,mp-1229214
Cr2HO4,0.000199999999999,-1.9823997158928561,mp-675581
CrSO4,2.4446,-1.982383248333333,mp-1178406
Mn2ZnO4,0.728699999999999,-1.9823252001231522,mp-18751
EuMoO2,0.0,-1.982288645625001,mp-1213225
Ba10Co7(IrO10)3,0.0,-1.9822176388000001,mp-1229198
Li5Ni3O5F3,0.405199999999999,-1.982216847916666,mp-759011
K3Cr2(AsO4)3,2.338,-1.9820825440875,mp-1211915
MgV2Bi4O11,1.656,-1.982045582222222,mp-2229643
LiCrFeO4,0.169599999999999,-1.981970361190476,mp-754600
AlV4(CuO4)3,0.3937,-1.9817258185000002,mp-1264182
MnPH2CO6,2.8021000000000003,-1.9817108995521722,mp-760042
SrCoO3,0.0,-1.981533223,mp-1283849
Li3MnO4,0.0,-1.98141602849138,mp-764778
Li3Fe(CO3)3,2.3924,-1.9811638321875011,mp-765096
Li4Mn3(FeO5)2,0.413799999999999,-1.981151318269813,mp-753645
AgMoPO6,2.1219,-1.98110573542328,mp-14029
Li4Cr3Fe3(TeO8)2,0.0,-1.9809879416666671,mp-773518
LiMnCSO7,1.3295,-1.980966008978579,mp-754499
RbMn4(AsO4)3,1.723,-1.980940143836209,mp-15282
Cr3SbO8,0.0352,-1.980909446249999,mp-773170
Li4Nb2Fe3Ni3O16,0.0,-1.9808559726190471,mp-752655
Na2Li4Co2C4SO16,2.5437000000000003,-1.980689436503172,mp-760207
MgZn2(MoO3)4,0.9895,-1.9804297134210511,mp-2230322
Li2CoCSO7,2.5176,-1.9803651505555562,mp-771972
Li4Cr3Ni2Sn3O16,0.8408999999999991,-1.9803483924404761,mp-774861
VZnAsO5,1.7277,-1.9803461059375,mp-1355262
LiMnP3H8O13,3.9443,-1.980339243853574,mp-780729
Na3Zn2(MoO4)3,1.469599999999999,-1.980249881956896,mp-1210389
CaNiAsO5,0.0,-1.980232353124999,mp-1344634
Co3P2H2O9,2.6113,-1.9802178272991071,mp-562339
Sr2CoBiO6,0.0,-1.980132194,mp-1519628
Li4V2Co3Sn3O16,1.2571,-1.980107967083333,mp-778338
Fe2O2F3,0.0,-1.98008921142857,mp-755377
LiZn2CrO4,1.4076,-1.9798702229166671,mp-1222371
LiMn3O6,0.5949,-1.979643219712643,mp-1176672
Li5Mn2NiO8,0.5983,-1.9794864135955461,mp-1222526
K2Mn3(AsO4)3,0.615699999999999,-1.979423776289654,mp-1195778
MgV2(Cl2O)2,0.0,-1.979170642777778,mp-2223059
TlBi(WO4)2,2.7891999999999992,-1.9791282619444441,mp-1208096
Mn(SbO3)2,0.512,-1.97909186810345,mp-22576
Ba2Fe6O11,1.6653,-1.978964641710526,mp-652683
Li16Mn15(CuO12)3,0.3626,-1.9788665590328411,mp-760337
LiFe(WO4)2,1.7127,-1.9787619011111102,mp-16933
MnTlOF4,0.0,-1.978743613752053,mp-1192864
Na2Li4Ni2C4SO16,3.5983,-1.978551447710067,mp-758866
Na4Mn2C4SO16,0.233,-1.9785432903288631,mp-777623
Ba2Ca2Tl2Co3O10,0.0,-1.978502224035088,mp-1046474
Ca2Fe(PO6)2,0.0,-1.978476910546218,mp-1188376
NaMn2O4,0.4046,-1.978162147820196,mp-542710
LiNi2(PO4)3,0.012699999999999,-1.9780552441534391,mp-26438
BaW6O19,0.0,-1.9778528301923062,mp-675198
Y(NiO2)2,0.0,-1.977708699999999,mp-1398595
Na5Cr2As(CO4)4,0.2379,-1.9777055431927342,mp-769542
MgV2Bi2(PbO5)2,1.474999999999999,-1.977703152058824,mp-2220546
RbVSeO5,3.1068,-1.977680997167969,mp-1209169
BaSr7Co4(CuO5)4,0.0,-1.977423176388889,mp-1099990