formula,bg,formation_energy,mp-id
CaFe3Si2HO9,1.3944,-2.4717262869531242,mp-721924
MgMnV2O6,1.642799999999999,-2.471717752293103,mp-2217275
MgMn2Fe2(PO4)4,0.0149,-2.47171751197734,mp-1234401
Cs2V4O9,0.097099999999999,-2.471568887620692,mp-560444
CaMnBe2Si5O17,0.022599999999999,-2.4715356835742712,mp-1182751
Ti11Fe17O42,1.0425,-2.47145578495238,mp-757435
Li5Mn2Fe3(PO4)6,2.186,-2.471445055009646,mp-757441
Na6Mn3(PO4)4,2.3479,-2.471333386401393,mp-778858
Cr3BO6,0.1785,-2.471287666166667,mp-18551
LiMoPO5,1.3971,-2.471247537247024,mp-504194
Sr2La6FeCu7O20,0.0,-2.4711768277777773,mp-1173271
Li4TiNi3Sn2(PO4)6,2.3485,-2.471109463363094,mp-778249
Li4Cr7(PO4)6,2.2498,-2.4710938202729382,mp-777610
BaSrCaMnO6,0.0,-2.4710590607931042,mp-1517356
Sr2CoReO6,0.0,-2.47099482525,mp-561870
Si2WO7,0.6284000000000001,-2.4709514475,mp-1379381
Y3HoFe4(Ge2O7)4,2.643199999999999,-2.470907364204545,mp-1216291
Li2V3O6,1.1285,-2.470883965151516,mp-752965
CaNiSbP2O9,0.0,-2.4708727501275503,mp-1043551
CaVO2,0.0,-2.470800616250001,mp-1046296
NaMo(PO4)2,2.5224,-2.470794032555419,mp-622295
NaCeMnWO6,0.139899999999999,-2.470723776931033,mp-1516942
Sr3Fe2(ClO2)2,0.0,-2.470694951818182,mp-1103214
Sr2ScFeAsO3,0.0,-2.4706302778125,mp-1105960
Li2Mn2(PO4)3,0.8459,-2.470617193760912,mp-759308
MgCo2(PO4)2,0.0,-2.470564518791209,mp-1222089
Mg2V2CoO8,2.5147,-2.470540413461539,mp-1222196
Fe(PO3)2,2.3833,-2.470533366309521,mp-649683
Li2Mn2Si2O9,0.8902000000000001,-2.470491611001916,mp-779016
V9O17,0.5838999999999991,-2.4704152125,mp-716723
Li2TiMn2O6,1.5596,-2.470376443260187,mp-776053
Ba2MgMn2O6,1.8439,-2.470349089169279,mp-2215870
Li2Fe5(Si2O7)2,2.8575,-2.470122319466666,mp-757408
Li2Cr5B3O13,1.3098,-2.470098337355071,mp-772573
Li2CrCuF6,0.5853,-2.470096772666667,mp-1111900
Li2Fe3P9O28,2.6563,-2.469901318296484,mp-758205
NaSr9Fe5(MoO6)5,0.6118,-2.4698859176275842,mp-706231
LiEu(WO4)2,0.0,-2.4697984423611112,mp-1212166
K3Np(MoO5)2,0.0,-2.469684920031251,mp-558722
FeAs4F18,3.118299999999999,-2.469623418913043,mp-29757
BaCaCrSnO6,0.0,-2.469591363499999,mp-1517268
K2TlNiF6,0.0,-2.469518316783334,mp-1111264
NaV6O11,0.0,-2.469372304243293,mp-557578
Li8VNi3(PO4)6,1.587899999999999,-2.469369439155328,mp-760785
Ca4MnFe11Si8(HO9)4,0.5691,-2.469365890358297,mp-1227550
U(WO4)2,0.181599999999999,-2.469348226931818,mp-704795
Ba2CdMoO6,2.5376000000000003,-2.469319745,mp-1207118
K3V14O28,0.0,-2.469300894705556,mp-774428
RbMo2P3O13,2.2787,-2.469273522048873,mp-15405
Mn7Si3O14,0.032599999999999,-2.469183668146552,mp-1222225
BaNd2Cu(MoO4)4,0.037999999999999,-2.469173629375001,mp-1214581
Cr4(PO4)3,0.0,-2.469171940469925,mp-26840
Li4Ti3V2Co3O16,0.0,-2.469104426190477,mp-770621
K2FeH2OF5,2.7881,-2.469089462227273,mp-696335
CsMo2P3O13,2.2729,-2.4690161743991452,mp-1199248
V2Cd5(P2O7)4,2.1237,-2.468999548538206,mp-1217403
MgNb4(NiO6)2,0.0,-2.468997122368421,mp-2230342
Li3V5O10,1.1968,-2.468908802777778,mp-762265
Mn7(PO4)6,0.0,-2.468798889820931,mp-770696
V3Fe2Ni(PO4)6,0.0,-2.468694351607143,mp-774828
Li4TiCr2Ni3(PO4)6,1.3658,-2.468675048113095,mp-1177293
YFe(WO4)2,1.792699999999999,-2.468656441666667,mp-1042339
Sr2Cr2O7,0.9242999999999992,-2.468616637954545,mp-886160
CaV(GeO3)2,0.0,-2.468609756,mp-1043355
Li5Ti2Mn5O12,0.128199999999999,-2.468359278457855,mp-771262
YFeGe2O7,0.0,-2.468353752727271,mp-767438
Rb2TlNiF6,0.0,-2.468352045833334,mp-1113635
EuNbCrBiO6,0.0,-2.4683205475,mp-1522051
Ca6MnSi6Pb2(SO16)2,0.0,-2.4683057923047143,mp-1203019
Y2Mn3Sb3O14,1.1622,-2.46827457403605,mp-1216129
Li4Mn3Nb2Cr3O16,0.7219000000000001,-2.468195998468801,mp-756399
Mo(PO3)4,1.8206,-2.46815858697479,mp-25988
BaSr3Mn4O12,0.8782000000000001,-2.468077104086207,mp-1227712
Rb9Fe7(PO4)10,2.397999999999999,-2.468016808620129,mp-1205160
V2Ni(PO5)2,1.569799999999999,-2.467898457285715,mp-554784
LiFe3(OF3)2,2.014599999999999,-2.467869310277777,mp-754427
RbFeBP2HO9,2.7445,-2.467841640146825,mp-24648
V3BO5,0.0194,-2.467808791296295,mp-1207931
Ba2FeBrO3,1.4511,-2.467496335714286,mp-1214726
Li4V3CrO8,1.9358,-2.467459280520833,mp-769611
K2CoF6,1.1713,-2.467351918277778,mp-1206883
Li2VCrP2(HO5)2,2.134899999999999,-2.46725768380291,mp-753660
V4P9O32,0.0,-2.4672550471507932,mp-705008
Mg6CoBO8,1.8597,-2.466948079322916,mp-1032067
CsFeBP2HO9,2.7398,-2.466938592790505,mp-757463
MnAlB2(PbO4)2,0.2911,-2.46693785866174,mp-1221830
LiCe(MoO4)2,0.0,-2.466903007777778,mp-1222481
Zn3Si4(MoO7)2,0.9254,-2.466882238695652,mp-1047015
LiCr2(PO4)3,0.100599999999999,-2.466843056236772,mp-1101532
Sr4Ca4Mn5Fe3O20,0.0,-2.466675892907087,mp-1076190
Pr2NiPtO6,1.8264,-2.466633758333333,mp-1209764
Li3V4O8,1.0954,-2.466462916666666,mp-1302334
Na2CoP2O7,3.3221,-2.466434055066194,mp-562194
Mn3VCr2(PO4)6,0.019399999999999,-2.466427721990284,mp-2214625
CeTl(WO4)2,0.0,-2.466321212361111,mp-1213822
Cs2NiF6,2.4357,-2.466306513333333,mp-689925
Rb3NiF7,0.8613000000000001,-2.466235441136362,mp-17362
Zr(MoO4)2,3.1883,-2.466229184545452,mp-1095622
KNbW2O9,1.7707000000000002,-2.466136721198718,mp-1223705
MgV6O11F,0.8228000000000001,-2.466106037631579,mp-1233721
Na7Mn5P3H6O15F13,1.2885,-2.466045009147732,mp-1205264
Eu2Hf2(MoO4)7,0.3594,-2.465989782692307,mp-1213558
Al4V13Si2(SbO14)2,0.5661,-2.465976968163264,mp-1256235
Rb7GdFe6(P4O17)2,2.4818,-2.465941340707908,mp-1201490
Ce2Fe(SeO)2,0.0,-2.465926162098213,mp-1078159
Na2TbWO6,0.0,-2.465841334942527,mp-1518133
Cr9(PO4)8,0.0,-2.465759808309037,mp-26164
YNiO3,0.0,-2.465712242,mp-19242
Li7Fe3Sb(PO4)6,0.0,-2.465454050029036,mp-1176924
Li3P7W5O29,2.211699999999999,-2.465424308806817,mp-851107
Ca3Mn2(GaO5)2,0.1267,-2.465408913580122,mp-1395621
Li4Mn5Co(PO4)6,0.495,-2.465398316521142,mp-760813
MgP4WO12,1.9157,-2.465395261309523,mp-1045917
Li5V5O9F,1.1042,-2.465280980833334,mp-761283
Na3Sc2(WO4)3,2.1122,-2.465278456956896,mp-1210424
Li4Ti2Cr3Sn3O16,0.0,-2.465153735535715,mp-776772
Mn3Cr(PO4)4,0.3441,-2.4649156505151892,mp-774508
KMo2P3O13,2.6781,-2.46487879137782,mp-558283
Sr2Gd2TlNi2O9,0.0,-2.464839597395835,mp-1218819
CsMnMo(OF)3,0.018799999999999,-2.4648248897318,mp-699398
LiMn5(P2O7)4,0.0009,-2.464747055717414,mp-540517
KFeBP2HO9,2.8184,-2.464610480630159,mp-1204854
Na3MnSiBO7,1.3618,-2.46449920663351,mp-772970
CsKMo4(P3O13)2,2.337,-2.464476342691114,mp-699557
Mn3NbFe2(PO4)6,0.0,-2.464461403656952,mp-776208
Li4Ti2V3Fe3O16,0.8507,-2.464251461428572,mp-776663
Ca8Mn6Cr2O23,0.0,-2.464156244168877,mp-1247648
Li4Mn5Ni(PO4)6,0.464599999999999,-2.464115681021141,mp-867956
Li3V2CrO6,1.888199999999999,-2.464114564166667,mp-757208
BaMgVO3,0.9272,-2.464062018333334,mp-2226159
Li2V2P7HO24,1.5311,-2.464040349872685,mp-778184
VSb(PO4)2,1.927099999999999,-2.463971219107142,mp-755953
MgAl2(CoO3)2,2.4641,-2.463928974090909,mp-2218061
Li4Mn3P4(HO8)2,3.6982,-2.463912333213721,mp-779055
Na2MnP2O7F3,0.325999999999999,-2.463806377998358,mp-1104356
Sr6Ca2Mn5Fe3O20,0.0,-2.463775788115421,mp-1076182
BaWO3,0.0,-2.463760293,mp-1183395
Sr2YMo2O7,0.0,-2.463729237916668,mp-1047328
Li8Fe7P12WO48,0.0343,-2.463712781741855,mp-1176835
CrPO4F,0.083199999999999,-2.463712235484694,mp-770697
La5Sm3Co7CuO24,0.0,-2.463621831750001,mp-1076171
KLaSmFeO6,0.2865,-2.463537461725001,mp-1518226
Sr5Nd5Cu(NiO5)4,0.0,-2.463527875928571,mp-694919
Sr2CaMnO6,0.0,-2.463524308793103,mp-1521761
LiMn6O5F7,0.0,-2.463481898469449,mp-1235315
Li4Mn3Fe(BO3)4,3.0412,-2.463470762241378,mp-755967
Na3V2PO9,2.9184,-2.463411805752053,mp-1221289
SmFeGe2O7,1.1254,-2.46333323090909,mp-1195316
Ba2CoMoO6,0.0,-2.463285518,mp-18967
CsK2Fe3P4ClO14,3.7684,-2.463171433309063,mp-1190639
HoCrO2,0.0,-2.463089745624999,mp-1212114
LiMn5P3O13,2.3593,-2.463054147132595,mp-759188
BaYFeCuO5,0.0,-2.463047101666666,mp-505589
V3Fe2Sb(PO4)6,0.0,-2.463032318829366,mp-774608
Li2MnP2HO8,1.1983,-2.462987212866672,mp-779443
Li6Mn3Co(PO4)6,0.6188,-2.462854416041255,mp-1177025
MgCr2Sb2(PO4)4,2.7741,-2.462853427742857,mp-1233592
MgMn6(PO4)6,0.5002,-2.462843133525495,mp-1234163
ZnCrP2O7,3.019499999999999,-2.462701210844153,mp-1042062
MnV3Ni2(PO4)6,0.106499999999999,-2.462592384605228,mp-757080
Li2Mn3(BO3)3,0.0942,-2.462590013703516,mp-780102
TiFe3Sn2(PO4)6,0.096,-2.462561439755292,mp-777557
LiVP2HO7,2.9194,-2.462304573655753,mp-753865
Li4Fe3(SiO4)3,1.7632999999999992,-2.462228747765151,mp-1177429
Li6NbNi3(PO4)6,0.0,-2.462213710946427,mp-1176954
KSrCeFeO6,0.0,-2.462169611724999,mp-1517776
Na4Th(WO4)4,4.685300000000001,-2.461930786820689,mp-1200418
V3P4Pb2O17,2.0313,-2.461826518021977,mp-683863
Cr2PO5,0.6496000000000001,-2.4617742530803572,mp-756420
SmMoO5,2.2979,-2.461695590714286,mp-1209026
PWO5,1.8574,-2.461611074591843,mp-29366
Li8Mn7Fe(PO4)12,0.0,-2.461569071946029,mp-776668
Li8Fe7(PO4)8,0.0311,-2.461550309341991,mp-774835
Li2CrCo(PO4)2,1.079199999999999,-2.461492747568027,mp-757895
Li8V11O22,0.8258000000000001,-2.461485562845529,mp-768084
BaCrO4,2.9695,-2.46133507083334,mp-18571
LiMn2P2(O4F)2,0.0,-2.461281937065408,mp-759719
La3Cd(FeO3)4,0.0,-2.461221113750001,mp-1223213
Mg3Cr2(GeO4)3,2.9909,-2.461214513124999,mp-1327259
NbCr3(PO4)6,0.0,-2.461159978466386,mp-780614
CrSbF10,1.2929,-2.461112771458333,mp-557145
Na2CoPO4F,2.3128,-2.461070810822386,mp-10537
BaSrPrCoO6,0.105799999999999,-2.460992674666667,mp-1522515
La4MnS6O,2.3212,-2.460904144827586,mp-18292
Cr3Sb(PO4)4,1.0055,-2.46086593952381,mp-754056
CaV5O7,0.438299999999999,-2.460849925769231,mp-1323814
Ba3FeGe5O14,1.597,-2.4607162315217392,mp-1214741
Li2CrNi(PO4)2,1.7859999999999991,-2.460693473282313,mp-757714
Li2Cr4P4O15,2.0709,-2.460669297309523,mp-759225
Ca3FeRhO6,0.8859,-2.460654356818181,mp-18843
MgTi3Pb5WO15,1.685299999999999,-2.460648421999999,mp-694933
Li3V8O16,1.0935,-2.46058285962963,mp-1177934
VSiO4,0.8833000000000001,-2.460497487777778,mp-1143876
Sr2MgMnSbO6,0.0,-2.460407159357367,mp-2234081
Fe3B7IO13,3.0026,-2.460293898715276,mp-1194881
Sr2Nd2TlNi2O9,0.0,-2.460256165833334,mp-1218767
LiVCrO4,0.0,-2.460201116904763,mp-756218
TiCr7O12,0.0,-2.460197728166668,mp-753458
Li6Mn3Ni(PO4)6,0.4042,-2.460194687041256,mp-769093
Li3V5O12,1.5843,-2.460184568375,mp-776224
MgV5O12,1.1131,-2.4601829597222222,mp-2228915
VO2F,3.0505,-2.460168215,mp-753014
Li4Nb3V3(CoO8)2,0.0,-2.46016004547619,mp-763698
AlVMoO7,2.3841,-2.4600990815,mp-20014
Lu(FeO2)2,0.0,-2.460051321666666,mp-1196239
Na2CrHgF6,0.0,-2.460015896525862,mp-1111186
La4Sm4Ni7AgO20,0.0,-2.459980685462963,mp-1076765
Mn2VPO7,1.598199999999999,-2.459959881409539,mp-1210613
NaPrDyFeO6,0.340399999999999,-2.459909492471264,mp-1522047
Li3Mn5(PO4)6,0.280899999999999,-2.459863457697691,mp-1177609
Li5TiV3O8,0.0,-2.459819640588235,mp-753058
Li2CrSn(PO4)2,2.1271,-2.459803939710884,mp-752553
LiMn(PO3)5,0.004,-2.4596806789535752,mp-1101538
MgMn6(OF)6,0.0,-2.459564602767696,mp-2231262
Li2Ti4Co(AsO5)4,2.7336,-2.459493442741936,mp-732284
Li10Cr(SiO5)2,0.6955,-2.45949133731884,mp-1263657
DyMgMn2O4,0.0,-2.459464157816092,mp-2227904
SrCaMn2O6,0.0,-2.459427463086206,mp-1218366
La7SmCo5(CuO8)3,0.0,-2.459401428750001,mp-1075961
BaLa(FeO3)2,0.0,-2.459371650500001,mp-1227910
Sr2Ca6Mn5Fe3O20,0.0,-2.459353368393198,mp-1076862
Mg6CoSnO8,0.5827999999999991,-2.459205008437499,mp-1032342
Li2MnSiO5,0.557399999999999,-2.459204168288633,mp-755733
Li6V5O12,0.695399999999999,-2.45906167,mp-764771
Ba3La7Mn2(Co4O15)2,0.0,-2.459043673817242,mp-694945
BaMg6FeO8,3.4644,-2.458981288749999,mp-1032152
Li2MnBPO7,0.8465,-2.458822004867269,mp-771706
Lu2Mn3Sb3O14,1.0309,-2.458818227596657,mp-1222433
V3Fe2Te(PO4)6,0.0108,-2.458721070681216,mp-776747
Li7Fe3Ni(PO4)6,2.4261,-2.458717846858304,mp-775193
Mn5(SiO5)2,0.9584,-2.458598246156188,mp-1198989
Li2Si4(NiO4)3,0.0,-2.458541820198411,mp-849759
Rb2V4O9,0.0957,-2.458521752333333,mp-505219
La5Mn7Co(PbO8)3,0.0,-2.458433042012932,mp-705288
Sr3CaMn2S2O5,0.0,-2.458415245835543,mp-1048631
TiFe5(PO4)6,1.365399999999999,-2.4583846939219582,mp-773598
Li3Fe3(PO4)4,2.0208,-2.458380373406592,mp-26077
Sr4Y2(Fe2O5)3,0.0,-2.458365117962963,mp-1218642
MnSi6Pb8O21,3.2475,-2.458247506609195,mp-699587
Sr2LaCoO6,0.0,-2.4582152535,mp-1080670
NaHfSnWO6,0.0,-2.458149052637929,mp-1519177
Sr3Ca5Mn8O24,0.1912,-2.458125084961207,mp-1247636
Mo2P3O11,1.1251,-2.458101059308036,mp-32108
Li4Nb3V3Cr2O16,0.206199999999999,-2.45802000047619,mp-757154
CsEu(WO4)2,0.0,-2.457900823721265,mp-1213312
CsMo4(PO4)7,2.5434,-2.4578897663038792,mp-558321
LiFeB2O5,2.8042,-2.457870005740741,mp-774231
Ca3Mg2Fe(CO3)6,4.030200000000001,-2.457845642000001,mp-1227854
NdFeGe2O7,2.813,-2.457798409545454,mp-1210319
MgTi2(CoO3)2,0.8216999999999991,-2.457778336515152,mp-2217318
Pr2Mn2Se2O3,0.556499999999999,-2.457776933209211,mp-1078664
Mn5V(PO4)6,0.0,-2.457723720208676,mp-772144
Li3MnAlO4,0.9114,-2.457687406714559,mp-770591
Mn8Si6O25,0.008699999999999,-2.457672668165341,mp-1180962
Li4Ti2Mn5O12,0.411599999999999,-2.4576451745502252,mp-759589
Li7Ti5Mn12O32,0.0,-2.457616077235222,mp-771056
Li2Mn2Fe(PO4)3,0.8241,-2.457613428322866,mp-776051
Li4Ti3Cr3(CoO8)2,0.2543,-2.4575958894047623,mp-756278
Li4V5O10,1.239199999999999,-2.45755789754386,mp-762292
Si3(MoO6)2,2.1461,-2.4575558225,mp-1143651
Ba2Mn(AsO4)2,2.7135,-2.457532997148542,mp-558651
Mn3Nb2O9,0.5042999999999991,-2.457464201699507,mp-1377939
Li5Ni2(PO4)3,3.819099999999999,-2.457303110027056,mp-777338
Ba2Y2Mg(Fe2O5)2,0.9007000000000001,-2.457243235526316,mp-1233074
LaMn3Cr4O12,1.6430999999999991,-2.4571780159396552,mp-1211359
Na2NiPO4F,4.3816,-2.45697685721127,mp-1203157
Li14Ni9(P2O7)8,3.9337,-2.456856541062656,mp-540237
Fe(BO2)2,4.099600000000001,-2.456805614761903,mp-1279062
VSnPO5,0.0,-2.456772835892857,mp-558344
Pr2CoRuO6,0.0,-2.456772334833334,mp-1209770
Mn8Si6ClO24,0.4704,-2.456715909703803,mp-1200010
Na2Th(MoO4)3,3.5214,-2.45649984098659,mp-1221303
Li3Co(PO4)2,0.817299999999999,-2.456484207984694,mp-25996
Ho2Mn3Sb3O14,1.020299999999999,-2.456394734717868,mp-1224132
Li2V5O10,1.1581,-2.456311346568626,mp-1297854
Cr3P4O15,0.0,-2.456305520389609,mp-759101
KAl2NiP3(H2O7)2,1.5108,-2.456250234047142,mp-720723
CrP2O7,0.5948999999999991,-2.456210341428571,mp-26974
Ca2Fe2O5,0.8630999999999991,-2.456190248055555,mp-22113
Sr3MgCr2S2O5,1.3352,-2.456174241153846,mp-1048636
Mn5(P3O11)2,0.0,-2.456161912348858,mp-31954
Li4NbCr(WO6)2,1.9210999999999991,-2.455900816166667,mp-755680
Mn4P2O9,2.5275,-2.45586463023399,mp-770499
Li4Mn3Fe2Sn(PO4)6,2.024599999999999,-2.455728617249589,mp-1177412
SrWO3,0.0,-2.455699439000001,mp-1186764
Li5VO4F,1.5311,-2.455651893787879,mp-759609
Sr8Fe2Ru2O13,0.0,-2.4556513894,mp-1218567
RbMgV4O10,1.2989,-2.45552782765625,mp-2233083
AcNiO3,0.0,-2.455476575499998,mp-1183139
LiFeF5,0.5301,-2.455247463333334,mp-755653
BaVAsO6,2.6697,-2.455192690277778,mp-17264
V3P4WO20,0.007299999999999,-2.455163073520407,mp-1216492
K5Na3Nb7WO20,0.0,-2.455160753344109,mp-1076894
BaEu(WO3)2,0.0,-2.455125704250001,mp-1516425
V3Cr2Cu(PO4)6,0.0,-2.455098472162698,mp-1101254
ZnCr3P3O13,1.444599999999999,-2.455078625696428,mp-1041468
Na2VSiCO7,1.9359,-2.455030448979885,mp-772154
Dy2Mn3Sb3O14,1.1330999999999989,-2.454995740778475,mp-1225368
SrEu3(NiO4)2,0.0,-2.454945598214286,mp-1218566
Li4V3O8,1.4273,-2.454901193555556,mp-28699
Mg6MnBO8,1.194499999999999,-2.454866034193606,mp-1032694
Ca6Fe(CoO4)3,0.2065,-2.4546325347727262,mp-1227494
KV4O8,0.0,-2.454622719019231,mp-29230
CsV2O5,0.089399999999999,-2.454590289956897,mp-540690
Cs3Mo5P6O25,0.220099999999999,-2.45454290466212,mp-560938
DyCrO2,0.0,-2.454506310416666,mp-1212873
Li3VP2H2O9,2.428899999999999,-2.454468876281512,mp-774317
NaSmMnWO6,0.9514,-2.454467606431033,mp-1516729
Li4TiCr5O12,0.128499999999999,-2.4544307695454552,mp-759597
Ba2Mn2O5,0.0,-2.454368419540229,mp-1099904
Ba2MnSnO6,0.0,-2.454336809293104,mp-1520156
Ca2W3O8,2.7879,-2.454305197307692,mp-1042920
NdEuNiSbO6,0.0,-2.454249361249999,mp-1521899
LiV2O5,1.7026,-2.454240711041668,mp-777667
Li5Ti2Fe3O10,1.7744,-2.454141510166667,mp-1177123
LiCoNiF6,1.713899999999999,-2.4540637392592592,mp-1222369
Li2Co(PO3)5,0.9501,-2.454015545429607,mp-705362
Li32Ti5Cr11O48,0.7584999999999991,-2.453995502430556,mp-777532
Ca3V2(BiO6)2,0.5543,-2.45397317631579,mp-1343410
Mn3Al2(GeO4)3,2.3798,-2.453935854689654,mp-1211470
Li4Ti3Mn3(TeO8)2,0.2594,-2.453921045373563,mp-758152
RbCoNiF6,0.9368999999999992,-2.4539128647222213,mp-1219591
BaYMn4O7,0.0,-2.453895325132626,mp-1048366
Li8Fe3Sn(PO4)6,2.2619,-2.453829089274375,mp-775125
V3CoSn2(PO4)6,0.0,-2.453822850773809,mp-774765
Li6Ca3MnC6(O9F)2,4.701300000000001,-2.453709478831418,mp-766468
Li8VFe7(PO4)12,0.0,-2.453703816083958,mp-758577
Mn5P6WO24,0.0583,-2.453638045486453,mp-771764
Mn2P5O16,0.123199999999999,-2.453572990177233,mp-27026
YBi(WO4)2,1.7894,-2.453547619166666,mp-1041757
Mg6FeSnO8,2.242,-2.4533116509374993,mp-1032824
Li9Mn4(BO3)8,0.7028999999999991,-2.453038443667944,mp-759917
PrFeGe2O7,2.7903,-2.453033067196969,mp-22208
SmNiO3,0.0,-2.4529482349999983,mp-22495
Li6TiNi3(PO4)6,0.0,-2.452863179529761,mp-850943
BaSmFeCuO5,0.0,-2.452790783333333,mp-1214324
Np(WO4)2,0.459299999999999,-2.452776213863636,mp-1210384
KPrYFeO6,0.274099999999999,-2.452759325891667,mp-1518428
Na3VP3NO9,0.0001,-2.452747964739206,mp-1204704
LaZnCr2O6,0.0,-2.4526125945,mp-1049221
Cs2V3O8,2.1336,-2.452522793793103,mp-1192739
Na3Sc2(MoO4)3,1.406899999999999,-2.452436959206896,mp-1210415
Ca5Mn8O13,0.6032000000000001,-2.452383908017242,mp-753586
Ca3LaFe2(MoO6)2,0.7500999999999991,-2.452379652749999,mp-1228602
Li4Ti3Cr3(NiO8)2,0.9152,-2.452314701904762,mp-782652
LiMnP2HO7,4.0681,-2.452173040566673,mp-754235
TiMn3Fe2(PO4)6,0.0,-2.452167695416211,mp-1101300
Zn3Fe2(Si2O7)2,2.0757,-2.4520906428260862,mp-1262781
Li5V5O12,0.9266,-2.452033081439394,mp-758739
Rb2V3O8,2.0914,-2.452017968076925,mp-510519
Mn3Sn(PO4)4,0.1341,-2.452014197390189,mp-756099
Li5Mg11(WO4)12,1.804599999999999,-2.451907320416666,mp-1177113
Li4FeP2O9,0.0,-2.451864786413691,mp-26901
Ba3MgMn3O9,1.067899999999999,-2.451848225862069,mp-2224748
Li6Fe(OF)3,3.031799999999999,-2.451843423653846,mp-780876
Ba2Eu3Mn2(CuO6)2,0.0,-2.4517698205172422,mp-557447
MnP2WO8,2.327399999999999,-2.451694534768062,mp-754986
Li4Nb3V3(NiO8)2,0.0,-2.451665423333334,mp-770999
NaMo2P2O9,1.8076,-2.451610620047502,mp-1013843
TiFe3Sb2(PO4)6,0.0,-2.451427675033067,mp-776046
LiCrPO5,0.1793,-2.451405901622022,mp-540292
V3CrCo2(PO4)6,0.0,-2.451378611884921,mp-774885
Li3Mn2Fe(BO3)3,2.976099999999999,-2.451327890186782,mp-754791
Nb2MoO8,1.7552,-2.451293767727272,mp-1046942
Li6MnSb3(PO4)6,0.2319,-2.451271397144705,mp-1176991
ZnCr2P2O9,2.1697,-2.451265515841837,mp-1040893
V3FeSb2(PO4)6,0.0,-2.45110499549603,mp-757725
KGdSnWO6,2.0455,-2.451092032225,mp-1522247
Li14Co9(P2O7)8,2.1437,-2.45107139590476,mp-504263
TiCr3(PO4)6,0.0,-2.451067660623249,mp-773127
BaTi2Fe4O11,1.6364,-2.451012954537036,mp-1227638
Li2SiNiO4,3.344699999999999,-2.450973456145833,mp-756200
Na7Mn4Fe8(PO4)12,0.0236,-2.450929517051817,mp-1221002
Ca2Mo3O8,1.6928,-2.4509123742307692,mp-1042855
Mn3Nb6O11,0.240599999999999,-2.450766437689654,mp-31908
Na3Fe2(PO4)3,1.5777,-2.450721417403324,mp-556984
NaVZnP2O9,0.8985999999999991,-2.450676232726072,mp-1199770
MgCr2(SiO4)3,0.0,-2.4506176730555542,mp-1157835
V3Bi2(PO4)6,0.9742999999999992,-2.450539382510205,mp-772437
CoSiO3,2.614699999999999,-2.45051476425,mp-699575
Lu2Co2O7,0.0,-2.450503338030305,mp-771384
V2Cu(PO4)3,0.019299999999999,-2.450501182996032,mp-757397
LiEr2Tl2(WO4)4,1.9454,-2.4504957864,mp-1235802
Ba2CaY2(Fe2O5)2,1.226199999999999,-2.450414802631579,mp-1233104
Li4NbV3O8,0.0,-2.450287233958334,mp-769928
Li5Co2(PO4)3,2.7403999999999993,-2.450207194231602,mp-780435
SrSmEuNiO6,0.0,-2.450110960000001,mp-1521513
Li5Cr2Fe3(PO4)6,1.1066,-2.450009098363095,mp-758409
Li4Fe3Co(PO4)4,1.6186,-2.4499876761394552,mp-758853
Cr4(P2O7)3,2.8209,-2.449970817350231,mp-1214408
SrMo3(PO7)2,1.6176,-2.449919862964285,mp-505189
MgV4ZnO10,2.1797,-2.4498865665625003,mp-2224252
Sr10Cu5Mo(W2O15)2,0.0,-2.449832394,mp-1218927
Li6Co5(P2O7)4,2.9697999999999993,-2.4497078599392093,mp-769575
Li4Ti3Mn6O18,0.591299999999999,-2.449630743900631,mp-769513
Sr2Pr2TlNi2O9,0.0,-2.449613268854167,mp-1218716
Li3Mn4(P2O7)4,0.0,-2.449604469043418,mp-1177764
GdNiO3,0.0,-2.449596327999998,mp-505604
Na3VSiCO7,1.9010999999999991,-2.449534453972149,mp-770947
Cr(PO3)4,0.2983,-2.449520646386555,mp-540424