formula,bg,formation_energy,mp-id
Mg4Co5(TeO6)3,1.4502000000000002,-1.9021889325,mp-1046497
Ga(W3O10)4,0.117599999999999,-1.901984853349056,mp-727445
MnGa2P3H4NO14,1.2659,-1.901978106674383,mp-1200042
K4Na4VMo7O20,0.604499999999999,-1.90172197311159,mp-1076509
Li2Mn4O9,0.2736,-1.9016174852260541,mp-770527
Mn2As2O7,0.0,-1.901438464623832,mp-1221906
Mn2FeO4,0.0,-1.901438424408868,mp-754642
CaAl2Si3W3O10,0.175699999999999,-1.9013006855263161,mp-1214322
NaLaCr4O12,0.0,-1.9012952342432952,mp-1518020
Cr3Ni(SO4)6,0.0,-1.9012723263235292,mp-774914
Li4Cr3Co3(TeO8)2,0.0,-1.90125259095238,mp-775136
Li4Mn3Co3(SnO8)2,0.313099999999999,-1.9012417422188022,mp-777041
SrMoAsH3O8,2.9344,-1.901177105267858,mp-735578
MgMn4(HO4)2,0.0,-1.9010360592816091,mp-2232183
MgV2Fe2(H2O5)2,2.3616,-1.9010185199999992,mp-2231841
TlIn(MoO4)2,3.6347,-1.9009215875000012,mp-605771
CaMo4O9,1.032899999999999,-1.900669456071429,mp-1048023
SrCaNiBiO6,0.0,-1.900612383999999,mp-1518274
V6H2Pb4Se3O26,2.2265,-1.900558507427591,mp-1196049
TlMo6O17,0.0,-1.900545658263888,mp-28484
Li2CrCuO4,0.0,-1.9004155083333332,mp-754778
BaAlCo4O7,0.187699999999999,-1.900414839615385,mp-1048382
Mn2In2O7,1.048599999999999,-1.9003598490177631,mp-505751
ZnWF4,0.036999999999999,-1.900350416666666,mp-1828501
Li4Fe5Sb3O16,1.0338,-1.900214839761904,mp-768602
NiWO4,2.8991,-1.900100025833332,mp-21179
KCr3H6(SO7)2,2.7365,-1.899850706913462,mp-24009
CaSmMn4O12,0.0,-1.899780724262454,mp-1522802
KMn8O16,0.0,-1.899648894427931,mp-1223635
K2Ni2(SO4)3,3.8852,-1.899630662999999,mp-15598
Li3V(FeO2)4,0.189799999999999,-1.8996306487499999,mp-756824
Li5Al(Co2O5)2,0.0,-1.899586408333334,mp-1222628
Sr4Mn2Cu3(SO)4,0.0,-1.8995158553448281,mp-555856
KMnBiWO6,0.0,-1.899153369518102,mp-1522301
Na4CrO4,0.0,-1.8990317633908032,mp-18884
Mn3Cr2Sb3O16,0.329599999999999,-1.899025422658045,mp-754681
Li3Mn2CuO6,0.0,-1.898898684238506,mp-757232
BaAlCoCuO5,0.0,-1.898859220555555,mp-1042494
Li4Ti2Fe3Cu3O16,0.0,-1.898722929999999,mp-757134
CoCu3(PO4)4,0.0,-1.898489949940475,mp-775137
Mg2Fe7O12,1.064,-1.898301182142857,mp-1222550
NaNi3P4H8NO16,4.3795,-1.898265835756082,mp-757387
Na2CoP4(H2O3)6,2.8605,-1.89820698909,mp-1203473
Li3Mn2(CO5)2,0.0,-1.8979677834330642,mp-758407
Li4Co3WO8,1.9361,-1.8978794352083341,mp-754232
Sr3CaCo3CuO12,0.0,-1.8977733792499991,mp-1076688
SrMgMoO3,0.0,-1.897651591666666,mp-2239917
Li2FeCO5,0.032699999999999,-1.89753752324074,mp-757693
Fe2(MoO4)3,2.6649000000000003,-1.897518330441178,mp-21925
Li4Mn3Cr2Co3O16,0.0,-1.897322538111658,mp-769581
KMgV3Cu4O13,0.0,-1.897210823738636,mp-505094
Bi2(MoO4)3,2.717,-1.8971883242647092,mp-23388
MgV2(H2O3)2,0.9842999999999992,-1.897066986923077,mp-2219795
BaCaCr4O12,0.0,-1.896970925,mp-1518431
TlV2AgO6,2.153299999999999,-1.896817975,mp-18853
MnCr3O8,0.6653999999999991,-1.8967146314942531,mp-760027
VGa(TeO4)2,2.8924000000000003,-1.8966831986111101,mp-1195697
LiMn2(SO5)2,0.0,-1.896611140279693,mp-1235338
BaLiV2Ni3(HO5)2,1.5942,-1.896609647149122,mp-1235580
V4ZnCu3O14,0.3258,-1.8965712686363632,mp-1216485
Li5V2Ni5O12,1.2516999999999991,-1.896376363611111,mp-756881
MgVRhO4,0.8327,-1.8963112192857141,mp-2226547
MnCrCoO4,0.171699999999999,-1.89630451041872,mp-1221841
Li4Fe3Sn3(TeO8)2,1.346199999999999,-1.8962624532738102,mp-755218
Li4Fe5Sn3O16,0.0,-1.8962276849404751,mp-1177407
Mn2FeReO6,0.0,-1.896154997836208,mp-1105179
Li4Mn2Cr3Co3O16,0.0,-1.896101060328407,mp-758129
MoPH3O7,3.1912,-1.8960413998660701,mp-723781
Ni2Hg2OF6,0.996,-1.895994507727273,mp-504704
BaSr7Co6(CuO12)2,0.0,-1.895994339749999,mp-1076681
KMgMn16O32,0.0,-1.895868547582931,mp-2216883
Li6Mn(FeO3)2,2.7963999999999993,-1.895856261528736,mp-760214
Li7Fe5O12,0.049799999999999,-1.895819119305556,mp-756862
Na2Li3FeO4,3.032299999999999,-1.8958083285258611,mp-540965
Na2MoSeO6,3.6578,-1.895722917510237,mp-557923
Ti2Mn3Co3O16,0.0,-1.895652168769158,mp-771910
ZrMn2Ag4(MoO4)6,2.1388,-1.89557797270348,mp-558201
ZnCrAsO5,1.9526999999999992,-1.895506082812499,mp-1346852
Ba2Mg(FeO2)4,0.0,-1.895480438999999,mp-2232179
MgCu2(WO4)2,1.6003,-1.895378828846153,mp-2218547
CaMnFeO5,0.0,-1.8952850838038782,mp-1355282
Li4Ni3Sn2Sb3O16,0.0,-1.8952297965476181,mp-776462
LiFeCSO7,1.9035,-1.895208633712119,mp-770901
MgTe2(WO6)2,1.1124,-1.8950324310784301,mp-2229662
Mg(Mo3O8)2,1.1803,-1.8949065393478262,mp-1233165
CaCr4(CuO4)3,0.0,-1.89484731,mp-1043224
Ca3Fe2(SeO3)6,1.9936,-1.8948348877262942,mp-560990
Mn9FeO10,0.1508,-1.8947880305689662,mp-753618
MgFeCoO4,1.4403,-1.894536355,mp-2222938
Li2Mn(FeO3)2,0.871799999999999,-1.894502361630094,mp-759297
K2Co2(MoO4)3,2.1587,-1.894351141881579,mp-705159
LiTiFe5O8,1.0894,-1.894349652444444,mp-1235025
MgMn4(FeO4)2,0.8669000000000001,-1.8943392751149422,mp-2232171
ZnNi3P3O13,0.0,-1.894294278946428,mp-1048030
Li4Cr3Fe5O16,0.0,-1.894285055476189,mp-772464
VHg4P2O9,1.6181,-1.894136397611609,mp-555798
MgCr6O16,1.6709,-1.894030818913043,mp-2234316
LiCoSbO4,1.358699999999999,-1.893827387976191,mp-773085
Li8Cr(FeO4)3,0.0,-1.893730285694444,mp-767681
SrV12O30,0.361499999999999,-1.893623923139535,mp-1179552
Mg3Cr6(FeO6)4,0.448399999999999,-1.893417391486486,mp-1360929
FePHO5,0.0,-1.8931483413616061,mp-757067
Ba3SrCoCu3O10,0.0,-1.8930662438888881,mp-1100085
VBi2O5,0.338199999999999,-1.893040367708334,mp-561165
Li21(CoO4)4,0.617799999999999,-1.892616659756098,mp-850954
Na6MgV2(SO3)2,1.6011000000000002,-1.892616064604462,mp-2240862
TaNi11(BO5)4,0.0,-1.892517518305554,mp-1208716
Na4Mn5O12,0.7189000000000001,-1.892449336198686,mp-759800
Zn3Mo2O9,3.1649,-1.892342381785715,mp-29461
Fe2WO6,0.0,-1.892219712777778,mp-22124
ZnW2O7,4.1933,-1.8920842635000001,mp-1042302
Li4Mn5CuO12,0.3311,-1.892036264681296,mp-753851
VPH5O7,2.0147,-1.891973512206631,mp-1195952
Ca(Fe2O3)2,0.0,-1.8916754649999992,mp-27491
Li6MnO6,0.0,-1.891577938302388,mp-752842
K3VO5,0.6883,-1.891557204222221,mp-734854
NaZnMoHO5,3.3523,-1.891309105292146,mp-504495
Zn11Cu(MoO4)12,0.9283,-1.891289962777779,mp-1216412
Li10Mn21O48,0.0,-1.891214795694748,mp-530628
Ba2Tl2Zn2Cr3O10,0.0,-1.891175406666667,mp-1046610
Li4Cr3Ni3(TeO8)2,0.0,-1.8911254355952372,mp-757190
LaZnFeNiO6,0.0,-1.890760947000001,mp-1044026
Li4Mn3Co3(SbO8)2,0.0,-1.890523922754516,mp-758093
Mn4O7F,0.0,-1.8904691180603441,mp-779274
MgVPbO3,0.0,-1.8903679233333321,mp-2240536
BaCaNiBiO6,0.0,-1.890207293999999,mp-1517136
K2MnH4(SO5)2,3.846899999999999,-1.8901742398647912,mp-697984
MgMn5FeO12,0.8632000000000001,-1.889944238666062,mp-2230001
Li2VP4(H4O5)4,2.6643,-1.8898401837264671,mp-758903
Li4MgCo3O8,0.0,-1.8898118992708322,mp-754576
MgMn3Cd2O8,0.0,-1.8897066827709361,mp-2228528
RbNaCr2O7,2.6704,-1.889608905579937,mp-704546
Li4Mn3Fe3(TeO8)2,0.1232,-1.889544721444992,mp-757691
Li4Cr(TeO4)3,0.0,-1.889486811166666,mp-1177448
KMgFe(SO4)2,0.027299999999999,-1.8894384028653841,mp-2218440
VH6(OF)3,0.0,-1.889429382307692,mp-1187773
CeMnAsO,0.0,-1.889391043857759,mp-1078286
Mn3Cr3(SnO8)2,0.8681999999999991,-1.889329389324712,mp-771095
Li3Fe2SbO6,0.0,-1.889236343333333,mp-778012
Li3Cr2(CoO4)2,0.6496999999999991,-1.8891418193333331,mp-1308819
LiNi5O3F5,2.6608,-1.8891311970238092,mp-758931
NiBiP2O9,0.127699999999999,-1.8887121447527482,mp-1043741
Mo2O5,0.7552000000000001,-1.888680784285714,mp-1412716
Sr2Ca2Co3CuO12,0.0,-1.8886465735,mp-1099844
K2MoSO3,3.1004,-1.8884051731428562,mp-1104220
MgFe6(O3F)3,0.0,-1.888303972894737,mp-2230258
NaMoO2,2.380499999999999,-1.888169442844827,mp-578610
CaMn12O24,0.0826,-1.888165529328984,mp-1080217
H2W2O7,2.0689,-1.88802101840909,mp-625525
SrCrBi12(Mo2O17)2,2.6491,-1.887968818076924,mp-642974
KSrMnBiO6,0.0,-1.887934083518104,mp-1518490
Li3TiNi3O8,0.4628,-1.887888818222222,mp-1303223
V6Zn(FeO6)4,0.0,-1.887828693714286,mp-1362067
Zn2MoWO6,1.6835,-1.88765235,mp-1784691
Li6NiO4,3.462099999999999,-1.8873770504545462,mp-756411
Li9Mn12Cu3O32,0.0,-1.886956794735221,mp-769514
Mn7CdO12,0.0,-1.8868625002758599,mp-1105241
Cr3O5,0.698399999999999,-1.8868032293750001,mp-1096920
Bi2Mo2O9,2.88,-1.8867083211538471,mp-556586
Fe6O7F6,0.0,-1.886679431842104,mp-779899
Li3Mn7O16,0.0,-1.886640759058356,mp-770710
CrSiH12(OF)6,2.8104,-1.8864816690384612,mp-1255651
V3As2H4O13,1.4995,-1.8863693925000011,mp-1204387
Na5Mn7O15,0.4331,-1.8861584654597692,mp-1247933
Li2MnP4(H4O5)4,4.3228,-1.8861513976318391,mp-759299
Mn3Nb2Co3O16,0.0,-1.886089394741379,mp-850531
Cr2HgO4,1.2575,-1.886074827500002,mp-21074
MnV4(CuO4)3,0.0,-1.8858556213965512,mp-1105842
Li4Mn5Te3O16,0.0,-1.885605225821018,mp-773469
LiPWO4,0.0,-1.885543636853741,mp-504105
Li4Mn3Cr3(CuO8)2,0.0,-1.8855426545402292,mp-757000
Mn2BiO5,0.416199999999999,-1.885386032295258,mp-504697
Na3Fe2(AsO4)3,2.2743,-1.885105158081896,mp-556723
NaMn3O6,0.7029999999999991,-1.885040796517241,mp-766558
MgCo2(MoO4)2,1.6702,-1.8847163134615381,mp-2220006
CaCrBi12(Mo2O17)2,2.5855,-1.884606478750002,mp-1201096
BaNdMn4O12,0.0,-1.884521350512452,mp-1517187
MgZn(FeO2)4,1.7325,-1.884332203928571,mp-1221978
MnVAgO4,1.7464,-1.8842987613711,mp-542979
CeMn4(CuO4)3,0.0,-1.8842828910862062,mp-1106150
Li2Fe2(CO3)3,3.9898,-1.884219249791667,mp-1178002
MgMn2CoO6,0.7966000000000001,-1.884180567086208,mp-2217277
Zn3Fe4(WO4)6,1.5262,-1.884164367837837,mp-1043064
Fe2AsO4F,1.9063999999999992,-1.884080579375,mp-1224755
YCu3(MoO3)4,0.3667,-1.8837956219999992,mp-1045838
Ba14U2Fe4S25O,0.4905,-1.8837078962499991,mp-1229282
MgU2Cr2O16,0.0952,-1.883481243571428,mp-1198086
Li4Fe3CoO8,1.8037,-1.8834275164583332,mp-752777
LiCr2(CO3)4,0.6712,-1.883301271754385,mp-753855
Mn3Co2(PO5)4,0.446399999999999,-1.8832586512884322,mp-1211298
Li5Mn(CoO4)2,0.8935000000000001,-1.8829622709123561,mp-1174000
Li2Mn2CoO6,1.0907,-1.8829525284117041,mp-754926
VAs2Pb2O9,1.684499999999999,-1.882877724464286,mp-1208082
Rb2BeNi2F14,0.0,-1.8828640152631582,mp-1212801
Cr5O7,0.7753000000000001,-1.882818874999999,mp-1046050
Ba2MgMn3Tl2Zn2O10,0.0,-1.882421559772989,mp-2230022
LiCrCoO4,0.0,-1.882250444047618,mp-762011
LiNiSbO4,1.920199999999999,-1.8821763740476192,mp-756254
Mn9CdO10,0.0,-1.882052173568965,mp-756679
MnV8O24,0.44,-1.8820015622100321,mp-1211891
Cs2LiMnO4,1.818,-1.88183337694684,mp-18722
Li4FeSb(TeO6)2,1.7911,-1.8818121688333331,mp-755913
K2Li3MnO4,0.8759000000000001,-1.8817559944931022,mp-773015
CaCr2Cu3(SbO6)2,0.7672999999999991,-1.8817545677499992,mp-21539
Ca(WO2)4,0.160899999999999,-1.881554758461537,mp-1045231
NaCr2BiO6,0.0916,-1.881498348137931,mp-1120815
Nb2Co2O9,0.0,-1.881488692692308,mp-1332980
Nd(MoO2)6,0.0,-1.881461396447369,mp-558827
CaFeSeO,1.917199999999999,-1.881196795585936,mp-1104614
Mn2(SO4)3,0.6835,-1.880867041374239,mp-768472
Li8Mn(FeO4)3,0.0,-1.8808038793582371,mp-766973
Rb5(W4O15)2,0.0,-1.88077905238372,mp-674969
Mn4ZnO6,0.0,-1.8807325010658311,mp-1042996
Na2Mo2O5,0.555099999999999,-1.880717815306514,mp-1099875
BaDyMn4O12,0.0,-1.8806895946328221,mp-1517693
Ca2Co(AsO5)2,0.0,-1.8803657550000001,mp-1103860
Li4MnCo2O7,0.9939999999999992,-1.88035325116174,mp-1174786
Li4Cr3Ni3(SnO8)2,0.0,-1.880198333690475,mp-774864
Li2Mn2NiO6,0.457399999999999,-1.88013132568443,mp-758510
Mn26As18CO57,0.0,-1.8800519839334011,mp-1223358
Mn3Cr5O16,0.0,-1.880051518074713,mp-756938
NaMgCo2(MoO5)2,1.1013,-1.8796897147737062,mp-2233264
LaMnSbO,0.0,-1.879559361982758,mp-18745
Li2Cr2O7,2.3955,-1.879422356515151,mp-754365
Li10Cr2Fe3Co3O16,0.0,-1.8794074209803922,mp-774310
K2Mn3H6S3O16,3.3084,-1.879365915776437,mp-1197395
MnB2P3H10N2ClO13,4.4006,-1.879331148990403,mp-1195729
HoZn(CoO3)2,0.074899999999999,-1.879291302499999,mp-1347018
Mg2W2O5,1.0991,-1.878862908333333,mp-1366998
BaU3W3(SeO7)2,0.0,-1.878613242377716,mp-1214976
Ca(CoO2)2,1.6139,-1.878585158214284,mp-17544
Li4V3Cu3(TeO8)2,0.0234,-1.878152336309524,mp-775183
Li2FeO2,1.8966,-1.877975758333332,mp-755094
Li2FeO3,0.091399999999999,-1.877959272777777,mp-774155
ZnCo(GeO3)2,1.767199999999999,-1.877849663499999,mp-1043317
Na2MgMn2O4,0.3483,-1.8778097381800771,mp-2217453
K2Li3FeO4,3.0917,-1.8775089627000001,mp-16955
Na4Mn2O5,0.0,-1.87743784648903,mp-18869
LaCrAgO6,0.832399999999999,-1.8774336140740742,mp-1040828
Na7Fe4(AsO4)6,0.5758000000000001,-1.877384474381834,mp-1195747
Mg3Fe4(SbO4)6,1.734699999999999,-1.8772992482432431,mp-1042658
Li5MnHO4,1.0695,-1.877231487349791,mp-759487
Fe2PH2CO7,1.2395,-1.877216895741757,mp-510517
NaMnBiWO6,0.0,-1.8770781539310342,mp-1520467
CrGaO4,0.0,-1.8769375645833342,mp-756183
Li4AlNi3O8,0.0,-1.876845110208333,mp-1222534
YCu3(WO4)6,0.0,-1.876730294852941,mp-1329989
K2Fe2As2O9,1.8765,-1.876597094133334,mp-619092
SrWNO2,0.0,-1.876473239,mp-1217767
Mg2CoIrO6,0.0,-1.8763223420000001,mp-1374810
NaMn8O16,0.0,-1.876281424993103,mp-1003638
Mn2AsHO5,0.0,-1.876243214401341,mp-1202591
VAg2PO6,1.835,-1.876219641797618,mp-558255
Na3Mn8O16,0.0,-1.8760705967624531,mp-766059
LiCrAsCO7,1.0084,-1.875922662348485,mp-768612
Fe3P4(H3O5)4,2.4005,-1.875884422014652,mp-1203127
V3Cd5O12,0.0,-1.8758423144999992,mp-1207892
Li7FeO6,0.3274,-1.875766648809523,mp-752471
Li2CrP4(H4O5)4,2.711999999999999,-1.875647157214838,mp-759552
Li4Fe3Co3(WO8)2,0.5899999999999991,-1.875398349047618,mp-776860
K2MoHO3F4,0.056899999999999,-1.875279145977273,mp-1212078
VNi5(BO5)2,0.0,-1.87524697962963,mp-1216406
NaWO4,0.7245,-1.875199534813218,mp-1192304
FeMoO4,2.037,-1.875182581666667,mp-505526
Pb2WO5,3.0894,-1.8750328356249981,mp-22681
ZnCu(WO4)2,0.312199999999999,-1.8749777399999992,mp-1215706
Li4FeO4,0.304299999999999,-1.8746695767592592,mp-755232
VPbO4,0.0,-1.8745454695833341,mp-1207871
Ba2Mg3Tl2(FeO3)4,0.0,-1.874541301376812,mp-1811371
Li4TiCo5O12,1.2388,-1.874517272348484,mp-1645230
ZnNi(GeO3)2,0.241099999999999,-1.8743939525,mp-1043166
Li2MnH4(SO5)2,4.4361999999999995,-1.874092138399879,mp-772240
Np2Co(O4F5)2,0.0,-1.873988046309523,mp-1201801
YNiSO7,0.027,-1.873980499249999,mp-1201284
TeMo5O16,1.1411,-1.873891724962122,mp-27531
Tl5V3O10,2.594999999999999,-1.87385383689815,mp-1208305
Li4Mn3Cu3(WO8)2,0.0,-1.8738018338259441,mp-851095
BaSmMn4O12,0.0,-1.8737358620402311,mp-1521849
Li4Mn3Ni3(SbO8)2,0.0,-1.87360682204023,mp-770685
CrSb3Pb4O13,1.1067,-1.873557977142856,mp-1226278
Pr2Mo15O28,0.796099999999999,-1.873455119851852,mp-33652
Mg4Ni5(TeO6)3,1.8977,-1.873198462333333,mp-1046508
Mg5Fe19O32,0.0,-1.8731107129464282,mp-764436
Li5Co3(SnO5)2,0.342299999999999,-1.873031306333333,mp-757112
K8Li9Mn4O16,0.436899999999999,-1.8729941421547072,mp-757769
Ga2Te2MoO10,3.2165,-1.872631752555556,mp-558386
K2MgCr2(H2O5)2,2.868699999999999,-1.872521814973684,mp-24835
NaPrCr4O12,0.0,-1.8724919801692201,mp-1521300
Zn2CrFe3O8,1.6213000000000002,-1.87231917,mp-1215777
MnSO3,4.1546,-1.8722175445862062,mp-27818
MgMn4Cd2O8,0.0,-1.8721015724482761,mp-2241364
KMgCr2FeO8,0.7602,-1.872101134788461,mp-2228148
Ge3(MoO6)2,2.1691,-1.871993721617647,mp-1364316
BaMgCoO3,0.0,-1.871987663333333,mp-2210607
MnBiAsO5,1.9431999999999992,-1.87188020599138,mp-554839
V2Ni3O8,0.0,-1.8717996761538451,mp-542151
CaFeSbAs2O7,1.523699999999999,-1.871780772499999,mp-557398
NaW(ClO)2,0.0,-1.87173531189655,mp-1220687
NdMnPO,0.0,-1.8716869025184721,mp-19826
Fe3P2H6O11,3.5808,-1.871660419967531,mp-1182551
Rb2Fe2As2O9,1.6391,-1.871612807166666,mp-1200007
RbLiMn3O4,0.7229999999999991,-1.871483890514048,mp-1101431
VCl2O,1.804,-1.871469999375,mp-1216404
Co3(OF2)2,1.1594,-1.871440364444445,mp-759628
LiMn2(CO4)2,0.5196000000000001,-1.871373336861186,mp-759008
Fe4O5F3,0.0,-1.871309699999999,mp-758735
Zn2FeWO6,2.8349,-1.8712016285000002,mp-1047414
Mn2Cd3(GeO4)3,0.0,-1.871118589793103,mp-1212395
Li4Cr3Cu3(SbO8)2,0.0,-1.871071641190476,mp-783908
Sr6Ca2Co5(CuO8)3,0.0,-1.871011173999999,mp-1075901
Na2BiWO6,0.0,-1.8708178172758612,mp-1522988
Ca3(Fe3O5)5,0.0,-1.870807336976743,mp-1215136
LiMnAsO5,0.2731,-1.870807047970546,mp-1105934
LaCrAsO,0.0,-1.870600628750001,mp-1079055
Mn5VO12,1.1038,-1.870388304980843,mp-1176451
Li4CoRuO6,0.6254999999999991,-1.8703688319444451,mp-1222544
VInCuO5,0.206999999999999,-1.8702195338020842,mp-640894
MgMn2O5,0.0,-1.870180653857759,mp-1043161
K3V5Te4(HO3)8,2.2523,-1.869793514282197,mp-1197782
Fe(SbO3)2,0.5366000000000001,-1.869531875277777,mp-505009
Li5Cr2Ni3O10,0.0,-1.869464598833332,mp-756855
LiMn6O12,0.375299999999999,-1.869355390223836,mp-1176651
Mo12PO40,0.208999999999999,-1.869303642257412,mp-734713
LaFe5Bi4O15,1.7804000000000002,-1.8692691476,mp-1223162
Na2CoBAsO7,0.3313,-1.869215051618773,mp-771767
NaSrMnBiO6,0.0,-1.869005865931034,mp-1517402
V2Co3O8,0.0,-1.8689020957692302,mp-540833
Li11(FeO3)4,0.0,-1.868822404691358,mp-849463
MgWO5,0.8542000000000001,-1.868622653571427,mp-1210762
MgNi2(PO5)2,0.0,-1.868591190619047,mp-1044099
K2Be2NiH6F8,2.1842,-1.8684953474736832,mp-1238483
Mg2Mo2O5,0.0,-1.8684143850000001,mp-1347236
Li3NbNi3O8,0.309,-1.868316017333332,mp-757382
NaMgFe(SO4)2,0.3253,-1.8680705031830231,mp-2219139
Ca7MgFeCo7O24,0.0,-1.8679918768750001,mp-1076139
MnCrO4,0.0,-1.8679178104885061,mp-754276
MnTeMoO6,1.721099999999999,-1.8678464282886331,mp-19090
Fe31Si5O48,1.120499999999999,-1.8678163863095252,mp-760116
Sr2CrCu2O7,0.0,-1.8678046883333321,mp-1043413
Li4Ti2Co3Ni3O16,0.0,-1.867746863214286,mp-759505
BaMnSbF,0.0,-1.867510974482758,mp-1078949
Li5Ni3(SnO5)2,0.619499999999999,-1.867497023083333,mp-1312304
Mn7O12,0.0,-1.867478388185118,mp-754430
Co3P2(H2O5)2,0.0,-1.867409593646617,mp-505087
CuBi(WO4)2,1.2814,-1.867399923333334,mp-556640
Na3Fe2P(CO4)4,0.046999999999999,-1.8673795130300301,mp-769570
Li3Fe2CoO6,2.1016,-1.867370908333333,mp-1222513
Ca2MnAs2(HO4)2,0.1769,-1.867012362028736,mp-1214256
LiMn8O16,0.0,-1.866812898671264,mp-1016165
Li3Mn5(NiO6)2,0.504999999999999,-1.8667747893782651,mp-758709
DyFe5Bi4O15,1.793,-1.8667489324666662,mp-1226261
Fe3(GeO4)2,0.0,-1.8667473642307681,mp-651997
Mg2NiIrO6,0.0,-1.866736595,mp-1345538
ZnCuNiP2O9,0.0,-1.866463810841837,mp-1043491
NaFeCSO7,1.7758,-1.8663697612617551,mp-768661
Ba6Sr2CoCu7O20,0.0,-1.866239636527778,mp-1076296
CoAgPO4,1.7129,-1.866099493044218,mp-505353
Li3Cr(FeO2)4,0.0,-1.8660853362499998,mp-754129
Nd4Mo31O56,0.8903999999999991,-1.8660096443956051,mp-705665
Li4Ni3WO8,2.085,-1.8659939045833331,mp-756537
Tl3(MoO3)10,0.0,-1.865853503255815,mp-557297
Li6Fe5CoO12,1.5574,-1.865802877916667,mp-763920
BaGdFeCuO5,0.0,-1.8657010961111111,mp-1206575
Li2Fe2C2O7,3.3943,-1.865567437243589,mp-759155
Mn2Zn3(GeO4)3,0.137099999999999,-1.865301701543103,mp-1363500
La(Mo4O7)2,0.8643000000000001,-1.8652046611413051,mp-1199742
Ba4Fe9O20,0.0,-1.865094342727273,mp-1182448
MgZn2Cr2O8,0.8887,-1.864901672692307,mp-2219303
Li11Mn11O26,0.0,-1.864849904456418,mp-674422
As2W2O11,3.336,-1.864841947499998,mp-504532
CrBiTeO6,0.0,-1.864559151296296,mp-1226306
Li6Mn5Ni3O16,0.258699999999999,-1.864447180321838,mp-760956
Na2MnH4(SO5)2,4.2231,-1.86434568345735,mp-1196197
MnH4(OF2)2,2.5561,-1.86431511299373,mp-772667
TlV3(SeO6)2,2.304599999999999,-1.8642452621122692,mp-645272
Li4Ni3Sn5O16,0.8671000000000001,-1.8638340552976191,mp-768603
Mo4O9,0.0,-1.8638069403846151,mp-1047895
BaCuWO5,0.0,-1.863508000624999,mp-1042556
MgGe2(WO4)2,1.793499999999999,-1.863434160384615,mp-2218480
Sr2GdCoCu2O7,0.0,-1.863403503461539,mp-560285
K4MgMn4O8,0.0,-1.863251407983773,mp-2221154
Li5Mn2Co(NiO5)2,1.0403,-1.863169863126437,mp-1222667
KIn(WO3)2,0.0,-1.863094942391666,mp-1522151
YCu3(WO3)4,0.0,-1.8629881635,mp-1045900
Sr6Fe5Ag3(Se2O5)2,0.0,-1.862952648013392,mp-1218625
NaEuNiGeO6,0.0,-1.862870898887931,mp-1520407
Na5WO5,0.0,-1.862863137899686,mp-764782
V2Bi7O15,1.247399999999999,-1.8627530746354182,mp-647265
Zn2Mo3O8,0.0944,-1.862553625,mp-19216
Li47(NiO4)8,1.067,-1.862523262950191,mp-850945
K3Mo4H6O16F,3.3179,-1.862435110474999,mp-744188
VIn(TeO4)2,2.9841,-1.862377806041666,mp-1200957
Mn2CdO4,0.0,-1.862363835123151,mp-18720
Sr4Fe4Bi5PbO18,0.0,-1.8623272065625,mp-1218774
K2CaV4H14O19,3.0279,-1.862293641675,mp-1204321
Ca2FeRhO6,0.0,-1.862237863999999,mp-1375556
Na11Mn13O32,0.0,-1.861939444969211,mp-760843
YFeCl2O3,0.0,-1.861901992857143,mp-1104229
BaSr7Co5(CuO8)3,0.0,-1.86180515925,mp-1075982
Tl2Mo7O22,2.7925,-1.8617279706989251,mp-704535
Li5Mn6O16,0.0,-1.8616880520093662,mp-758809
CrAg3F6,0.2042,-1.861633889499999,mp-1206806
NbNi11(BO5)4,0.0,-1.861617907685184,mp-1211101
Mn17Fe13O40,0.7313000000000001,-1.861521329640394,mp-532236
V2S3O14,0.0,-1.861500770657894,mp-818487