formula,bg,formation_energy,mp-id
Li4Mn2(PO4)3,0.254799999999999,-2.597144554910666,mp-772945
Li4Ti2Mn3O10,0.563499999999999,-2.5971276612522702,mp-752796
Li4Al3Cr3(SbO8)2,2.647,-2.597113029761904,mp-770625
Ba3V4CoO14,0.0,-2.597111119772726,mp-1194945
LiCr2P3O11,2.2218,-2.597094434838935,mp-25817
CsSc(WO4)2,4.1422,-2.597089624554597,mp-1213157
MgMnNbO4,0.0,-2.597044523275862,mp-2228271
SrMoO3,1.3088,-2.596938715999999,mp-1542758
Li19Mn4P8O35F,0.480099999999999,-2.596899521674633,mp-1178065
Sr3Mn2O7,0.0,-2.596824480905171,mp-19070
NaCoF3,2.9522,-2.596814546275862,mp-21404
Sr4MgMn2(GaO5)2,0.0,-2.596804962413792,mp-1233475
CsK2Mn3P4ClO14,3.61,-2.596746646860787,mp-1195628
TiNiO3,0.0,-2.5967176666666663,mp-18732
Li4Mn2Nb3V3O16,0.0,-2.596680391756978,mp-762830
PrEuMnWO6,0.0,-2.59667588745977,mp-1518265
Al2Si3(NiO4)3,3.560799999999999,-2.5965353739999992,mp-1157674
Li6MnCr3(PO4)6,1.054199999999999,-2.596498261394704,mp-767775
CaEuCrSbO6,0.0,-2.596469224499999,mp-1521154
Na5FeP2(O4F)2,2.4251,-2.596433554544848,mp-1198461
Mn7(OF3)3,0.5702,-2.596415802395643,mp-861565
LiNiF3,5.245,-2.596345113333333,mp-758501
Li3V2P5O18,1.1034,-2.596221737257653,mp-697772
Mg6NbCrO8,1.1836,-2.596196746875,mp-1033427
CrPO4,2.4649,-2.59617238077381,mp-19401
Li3Fe5OF11,0.0,-2.596078717,mp-779353
YWO5,0.001699999999999,-2.596063781428571,mp-1207657
MnTlF3,2.6304,-2.5959912892528743,mp-998762
SmWO5,0.2851,-2.595847186785714,mp-1209012
LiV6P7O24,2.4016,-2.595842518048245,mp-26765
KEuHfFeO6,0.0,-2.595830415225001,mp-1521506
PrMn2O5,0.0,-2.595781837503592,mp-22802
Li4V8O13F3,0.960399999999999,-2.595743238690477,mp-767820
CsMg14FeO16,0.0461,-2.595664989364223,mp-1035604
TmMoBrO4,1.9246,-2.595650299285715,mp-1194343
TbMoBrO4,1.8562999999999992,-2.595382681309524,mp-1193567
V3(PO4)4,1.174499999999999,-2.595341590590062,mp-26588
Mn(PO3)2,2.304,-2.595336400246305,mp-542139
Li4Mn5(P3O11)2,3.101199999999999,-2.595323976914746,mp-25857
KRb2NiF6,0.0,-2.595287777225,mp-555464
NaLiMnP2O7,4.090400000000001,-2.595279361827449,mp-775876
BaSmV4O12,0.0,-2.595193575277778,mp-1521047
NaLiCeWO6,1.8641,-2.594952043471264,mp-1517519
RbNbV2O8,2.5161,-2.594877660208334,mp-1195415
Li2Ti2MnNiO8,1.0697,-2.5948171279474552,mp-1222689
LiMnV(P2O7)2,1.369399999999999,-2.594715559515989,mp-759232
Sr2NiO3F,0.0,-2.5946052,mp-1218709
Li3Mo(PO4)2,4.0179,-2.594568106377551,mp-26347
Li4Ti3V3(NiO8)2,1.13,-2.594553920833333,mp-1177257
BaYMnCoO5,0.1871,-2.594455076992337,mp-1277516
Zn3Cr2(Si2O7)2,2.061999999999999,-2.594441004782608,mp-1262777
Mn2SiO4,1.988499999999999,-2.594300529408867,mp-18928
TiZnP3WO12,0.8302,-2.594298223458994,mp-1044397
LiCr4P7O24,2.169099999999999,-2.594289262800925,mp-1101527
KRb2W(OF)3,3.5105999999999993,-2.594251217224999,mp-1223393
Mg3NiO4,3.2945,-2.594193788125,mp-1099253
Mg6CrCdO8,1.7518,-2.5940571218749993,mp-1033407
FeB4O7,2.679799999999999,-2.5940361665972222,mp-1191380
Fe7(SiO3)8,0.341799999999999,-2.594023614358973,mp-1212736
EuNbCrSnO6,0.0,-2.593792475999999,mp-1520105
NaEuHfFeO6,0.0,-2.593736892637932,mp-1516948
Ca8Fe5(WO8)3,0.0891,-2.593736447249999,mp-1227452
Ca2Fe3Sb(PO4)6,2.1868,-2.593674678829364,mp-695492
KMnPO4,1.3002,-2.593508513189127,mp-555605
Na2LiMn(PO3)5,3.4085,-2.593429649676553,mp-760056
Ba10Ru3W(Cl2O9)2,0.060599999999999,-2.593378885277777,mp-1228911
Mg6VSiO8,3.1366,-2.593335614375,mp-1031682
Li9V6(P8O29)2,0.248,-2.593304350497592,mp-1176978
Li7TiFe3(PO4)6,1.0661,-2.5932990735249692,mp-760106
Sr2YGaFe2O7,0.605899999999999,-2.5932469117307693,mp-1042559
ErMoBrO4,1.9042,-2.593221584999999,mp-1194158
Li3CoF6,2.9404,-2.593125365999999,mp-1111290
Ba4NbCo2MoO12,0.0,-2.5931028175,mp-1228169
DyMoBrO4,1.8414,-2.592985715595237,mp-1192462
Li2Mn3(SiO4)2,2.2669,-2.592964925141763,mp-849556
Li4Mn3Fe(PO4)4,3.565699999999999,-2.592942260382067,mp-849356
Li2P2WO8,3.0779,-2.592941126227105,mp-753190
Ca16Mn14Al2O45,0.0,-2.592905008260189,mp-1247668
Li4Co2Si3O10,2.8895,-2.592852572807016,mp-757921
Na4VP2O9,1.766599999999999,-2.592804351550184,mp-705037
CsMoP2O7,3.822199999999999,-2.5927879296764442,mp-18496
Li3TiCr3O8,2.3617,-2.592767026222222,mp-754193
Ba2VFeO6,1.0389,-2.592685414,mp-1096782
Li2Cr2Si2O7,1.1063,-2.5925507008974362,mp-758171
SrCaNiWO6,2.9899,-2.592528748,mp-1218491
Li3V2BP4H2O17,2.237,-2.592495497077176,mp-1200046
Li5Mn4P4O16F,3.7058,-2.592438457398741,mp-759154
NaMn6P7O24,3.2825,-2.592420122143829,mp-16381
Gd2W4O15,3.4916,-2.592401870952381,mp-771090
BaMgMnO3,0.8426,-2.592390752988505,mp-2239860
LuMoBrO4,1.9634,-2.592389038809524,mp-1194285
Sr3CaNi2(WO6)2,0.0,-2.5923672465,mp-1218601
SrEu(WO3)2,0.0378,-2.592223686000001,mp-1516642
RbMnPO4,0.0,-2.5921419175105562,mp-556338
Li3Mn4F19,1.4055,-2.5921331350663133,mp-777320
V5Sn(PO4)6,0.0393,-2.592033532301588,mp-790062
Y2MgCr3O9,0.0,-2.591997611333333,mp-2232778
Li2MoP4O13,1.8745999999999992,-2.591928890261905,mp-1101555
CsVP3HO10,0.0,-2.591905020145859,mp-1197494
BaV10O17,1.017899999999999,-2.591884928750001,mp-766481
K2MnAgF6,0.0,-2.5918495084097692,mp-1112281
GdMn2O4,0.0,-2.591793263694581,mp-1238790
NaNd(WO4)2,4.1887,-2.591754704906609,mp-1220977
RbV(PO4)2,2.1013,-2.591635470565476,mp-559279
MgFe3OF7,0.9061,-2.591620598750001,mp-2218104
Cs2CrHgF6,0.0,-2.591535147181035,mp-1112592
NbV3Fe2(PO4)6,0.0,-2.591398513273811,mp-1101685
HoMoBrO4,1.8564,-2.591267165714285,mp-1193901
Rb2LiNd2(WO4)4,2.056899999999999,-2.591263523333333,mp-1235477
YCoO3,0.0,-2.591207236500001,mp-22668
Ba4Sr2Dy2Co4O15,1.351899999999999,-2.5910786769753082,mp-1228722
Li2Mn7(P2O7)4,3.529,-2.590912410096149,mp-780778
Li6TiFe3(PO4)6,1.3866,-2.590617163279761,mp-758142
Rb2AgMoF6,2.6738,-2.5906074216666672,mp-1110784
FeF2,1.6921,-2.590574678333332,mp-556911
GdWO5,0.084999999999999,-2.590571221071429,mp-1212606
Li8Ti7Fe9(PO4)24,0.0,-2.590532281676588,mp-1177305
Li9Nb7V12O48,1.3957000000000002,-2.590264958026316,mp-849386
V2P2O7,2.989,-2.590186098571428,mp-753985
Cs2CaTm2(WO4)4,2.0277,-2.590103537172414,mp-1233239
La4Sm4Co7CuO20,0.0,-2.590046626597223,mp-1076483
Li7Cr7P6(O8F)3,1.5399,-2.589878075663628,mp-759336
Mg6ZnCoO8,2.684,-2.5897776125,mp-1032604
Cs2LiTm2(WO4)4,2.2391,-2.589749374905748,mp-1235075
Ca3Mn2(WO6)2,1.735,-2.589670860308528,mp-1275109
Li14Cr9(P2O7)8,2.7124,-2.589670307273182,mp-759443
Ta2Zn2FeO8,3.4513,-2.589419343051282,mp-1046115
SmMoBrO4,2.0128,-2.589357923928572,mp-1194049
Sr2AlCr2GaO7,1.1496,-2.588966092115384,mp-1046566
Li4Co(PO4)2,3.306,-2.588927636341269,mp-25995
Li4Ti3Mn3(WO8)2,0.5324,-2.58889101454023,mp-756380
La2Mn2Se2O3,0.619799999999999,-2.58885284172773,mp-1079069
Li3MnB4O9,0.8096000000000001,-2.588792471446923,mp-768410
Mn3Nb(PO4)4,0.129199999999999,-2.5887252067651882,mp-775197
Rb2Nd2Mg(WO4)4,1.980499999999999,-2.588629187,mp-1233448
NdWO5,0.0,-2.588587209642856,mp-728450
CsMn2(PO3)6,0.0,-2.588563839384236,mp-1226351
Dy2Hf2(MoO4)7,3.2263,-2.588494643931624,mp-555720
Ba3V2P6(HO4)6,1.823299999999999,-2.588361329642856,mp-758920
CaFe3(P2O7)2,4.0021,-2.58792971538961,mp-1040883
Tb2Hf2(MoO4)7,3.2106,-2.587879192521367,mp-1208737
Ca4Mg4V3AsO20,0.712699999999999,-2.587730388046875,mp-1227792
Li4Ti3Mn3(SnO8)2,0.406299999999999,-2.587722428468801,mp-1177280
MgMn4(O2F3)2,0.2559,-2.587665151781609,mp-2226985
LiV2(PO3)5,0.0,-2.58757578876294,mp-756890
Ba2YTlV2O7,0.0,-2.58755415448718,mp-1405850
Ba4Sr2La2Co4O15,1.4232,-2.587311778703704,mp-1228696
NdEuMnFeO6,0.0,-2.587278050043105,mp-1520563
La6Sm2Co7AgO20,0.0,-2.587266563310186,mp-1076492
Sr2MnSbO6,0.8793000000000001,-2.587189905793104,mp-1218763
Li4V2SiO8,1.871699999999999,-2.5871648253888893,mp-766040
BaSrCaCrO6,0.5585,-2.5871239040000003,mp-1519678
Na2LiNiF6,0.0,-2.586728331000009,mp-1114109
TiTlWO5F,2.755499999999999,-2.586697433518519,mp-690560
CaCrNiP2O9,0.646799999999999,-2.586677785484693,mp-1327705
SrCrO3,0.7210000000000001,-2.586664808,mp-761337
NbV2O7,0.0,-2.586424955000001,mp-773430
Sr2Ca14Mn14Al2O45,0.0,-2.586315688844605,mp-1247722
CsLu(MoO4)2,3.6904,-2.58630772802682,mp-1213076
NaMg2V3O10,2.8352999999999993,-2.586257790398706,mp-555794
Ca3V10O25,0.9242,-2.586048148684211,mp-758028
Ho2Hf2(MoO4)7,3.1817,-2.586019559487179,mp-1212595
K5Na3Nb5(WO8)3,0.0,-2.585916285259698,mp-1076481
LaFe3(BO3)4,2.3045,-2.585897103583333,mp-22252
ScFe2BO5,3.198899999999999,-2.585870041851852,mp-1094074
NdMoBrO4,2.0897,-2.585778148214286,mp-1193284
Ba2ZnCuNi2F14,0.0,-2.585690638749999,mp-1357049
Mg3Mn5(BO4)4,0.8500000000000001,-2.585630404332922,mp-770722
Li6Cr3Fe(PO4)6,2.3775999999999993,-2.5854492424464293,mp-770489
Li7Cr3Fe(PO4)6,1.5423999999999989,-2.5854111224680603,mp-780107
Li2Cr2SiO6,2.8542,-2.585395034242425,mp-758734
Li6Mn3(PO4)4,3.3653,-2.585389280426364,mp-780723
Ba6Y2Co4O15,1.209299999999999,-2.585296590185184,mp-1196872
MgTiMnV4O12,1.1576,-2.585247596645493,mp-2231994
Li2VP2HO8,2.129299999999999,-2.5852213492644562,mp-754990
MgV4(PO5)4,1.251,-2.585176595295566,mp-1233511
Na3VBPO7,1.053999999999999,-2.585094013495957,mp-756707
Na4Mn3P4O15,3.295799999999999,-2.585034710976221,mp-578949
Sr8Nd2Fe5(MoO6)5,0.0,-2.585018410599999,mp-695057
Ca3Mn2(GeO4)3,1.017,-2.584876549293104,mp-744259
Sm2Hf2(MoO4)7,3.2931,-2.584654069487179,mp-1209249
MnV(PO4)2,0.107,-2.584639201434728,mp-768621
Sr4Mn3O10,1.195399999999999,-2.5845362531642992,mp-18998
Ba4Sr2Sm2Co4O15,1.3519,-2.584264977407408,mp-1228582
Li9P8W3O29,3.6745,-2.584244107084548,mp-776590
Rb2LiPr2(WO4)4,2.0641,-2.584136799266666,mp-1235138
CsAlV(PO5)2,0.607399999999999,-2.584115604762726,mp-1204757
Sr4CeY3Fe2(Cu2O9)2,0.0,-2.583972424374999,mp-1218645
KNbV2O8,2.4054,-2.583956453937499,mp-1194929
Li2Fe(PO3)4,4.189999999999999,-2.583792996065161,mp-26125
Y2Fe2O7,0.0,-2.583788470454546,mp-1379819
Li7Mn2P7O24,1.2326,-2.5837040584173843,mp-757328
NaLa2Mn3O9,0.0,-2.583652221011495,mp-1220767
BaNaCeMnO6,0.0,-2.583574797931034,mp-1519131
BaDyV4O12,0.0,-2.58351216787037,mp-1520124
Li5Ni2O2F5,2.1942,-2.583416931190477,mp-765310
Sr2NdFeO6,0.2372,-2.583409728750001,mp-1519522
MnTlF4,1.917,-2.5831384993773923,mp-1102938
Na2SrV3O9,2.251,-2.5831035758505743,mp-557927
Li4V3P8O29,1.124199999999999,-2.582964993192641,mp-1177550
Cr3(P2O7)2,1.4113,-2.582934238741497,mp-559970
Na22CaFe6P12(O8F)6,2.4256,-2.582907516484832,mp-1221829
LiCoF3,2.833,-2.582907345666667,mp-759500
Mg5V2(MoO8)2,2.8273,-2.5828453295333342,mp-646182
Tb2Mg(NiO3)2,2.504199999999999,-2.5827694789393942,mp-2217728
Li2Cr3P9O28,3.002599999999999,-2.582762879010769,mp-778498
NaCaMg3Fe6(PO4)9,2.1426,-2.582589787288661,mp-1173842
Ba4MgCo(ReO6)2,0.0,-2.5825823395,mp-2230422
Li4Ti2Nb3Co3O16,0.8127000000000001,-2.582566828928572,mp-767657
Ca11Cr7O28,0.8546,-2.582558280652172,mp-677284
CeMoBrO4,0.286,-2.582461057142858,mp-1194116
CsThMo2ClO8,3.2972,-2.582426421896551,mp-1200592
Rb6U2W4O21,2.1665,-2.582166238106061,mp-645942
Sr4LaMn5O15,0.293499999999999,-2.582165211586208,mp-1218611
Na4NiP2O7F2,4.258,-2.582121299987684,mp-1194870
BaFeO2F,0.4455,-2.582065353,mp-1227945
Li4MnCr3(PO4)4,2.0571,-2.582051234636992,mp-768041
Ce2(MoO4)3,0.0129,-2.582049544117648,mp-1227172
Rb2Pr2Mg(WO4)4,2.0536,-2.581930958933333,mp-1234646
MnV5(PO4)6,0.0339,-2.581703935438561,mp-771878
Li9V2P4HO18,0.4068,-2.581699100288866,mp-849392
RbMnP2O7,1.1481,-2.581696668837886,mp-1203377
Ca2MoO5,0.0,-2.58167192625,mp-1391765
Mn2P2O7,2.2949,-2.581613194104342,mp-18721
BaCaCeNiO6,1.255999999999999,-2.581559159999999,mp-1518826
La16(Mo3O8)7,0.598499999999999,-2.5812097097849462,mp-1197618
PrMoBrO4,2.1545,-2.581199796309524,mp-1192793
Li9V5(SiO8)2,1.6425,-2.5811801059375,mp-767624
Sr2Ca2NdMn5O15,0.0,-2.581082921286207,mp-1219128
Ba3Y4(CoO5)3,0.0,-2.5810427165,mp-1366002
Sr2AlV2GaO7,0.431499999999999,-2.5809490763461542,mp-1046771
Li12Mn7V(PO4)12,0.6222000000000001,-2.580944757015393,mp-1178090
LiMn2(PO3)5,4.428199999999999,-2.5808895511917243,mp-31961
MgMn2(BO3)2,2.4787999999999992,-2.5807686926541282,mp-2240029
Sr3MnBiO6,0.0,-2.580736265039185,mp-1208471
CaFe2P2O9,2.0735,-2.580595041556122,mp-1040941
Li4Nb5Cr3O16,0.0449,-2.580554018690477,mp-771179
Sr4MgCr2(SO3)2,2.068199999999999,-2.580354239333333,mp-1048620
TiV3Sb2(PO4)6,0.019,-2.5803313069775142,mp-1101307
Ca16Mn14Al2O47,0.2641,-2.580258014063726,mp-1247697
Li3FeB4O9,3.1077999999999992,-2.579986830980392,mp-752621
Sr5Ca3TiMn7O24,0.0,-2.579888220221264,mp-1075976
Li3Ti2Mn3O10,0.9607,-2.579832453081098,mp-753035
TbFe3(BO3)4,2.3324,-2.579783632999999,mp-18979
Na2Mn(PO3)5,1.3872,-2.579750365387128,mp-553997
Ho2CoPtO6,1.7584,-2.5796776335000002,mp-1212356
Li3CrSiBO7,1.218,-2.579653332243589,mp-773206
LiV3O5F,1.220199999999999,-2.5796379063333332,mp-752985
Nd2NiRuO6,0.0,-2.579572834499998,mp-1209990
Y2Hf2(MoO4)7,3.2042,-2.579568744999997,mp-1207897
K3Mo2O4F5,2.5171,-2.579541284946429,mp-1196835
Mn2V3Sn(PO4)6,0.0,-2.579504587186644,mp-1176486
NbP6(WO8)3,1.034399999999999,-2.579455039642857,mp-867642
Ti7(Fe3O8)3,0.3273,-2.579420908583333,mp-1101106
Sr3CaNdMn5O15,0.0,-2.579407048686207,mp-1218772
La3NiW(SO2)3,0.0,-2.5793888276785712,mp-1193278
PrMgMn2O6,0.0,-2.579369401252873,mp-1044531
Li6P8W3O29,2.88,-2.579305248742236,mp-1176966
Rb3LiErV2O8,1.1197,-2.5792755990555563,mp-1235632
Li4CrP2O9,0.175899999999999,-2.57913299985119,mp-26911
V3P6WO24,1.1734,-2.579009747584033,mp-775437
Gd2Hf2(MoO4)7,3.094,-2.5788518344871783,mp-1213333
Li2TiV5O12,1.051699999999999,-2.578851184749999,mp-1573040
DyFe3(BO3)4,2.2942,-2.578697133583333,mp-1199045
Sr4Fe2MoWO12,1.0308,-2.57859377,mp-1218626
RbAlV(PO5)2,0.555199999999999,-2.578451161952379,mp-1203689
Li4Fe(PO3)6,4.6312,-2.578374428661741,mp-758649
LiNbCrO4,1.158599999999999,-2.578371745833333,mp-771962
CaNiF6,2.1462,-2.578357005,mp-1323553
BaCaSnWO6,1.931599999999999,-2.5783467350000002,mp-1518423
GdMoBrO4,0.0,-2.578320057142857,mp-1193134
Ca2TbFeO6,0.3616,-2.5781541606666663,mp-1517296
Mg6MnSiO8,3.489200000000001,-2.578083433620689,mp-1032437
LiMo(PO3)4,4.4002,-2.577959808300264,mp-25987
NaSrCeMnO6,0.0,-2.5779381019310352,mp-1516683
Li3V3(BO5)2,1.350499999999999,-2.577923281018519,mp-770155
Ba2MnO4,0.0,-2.577918592561575,mp-753330
BaFe3Si4SO11,1.262699999999999,-2.577869148125001,mp-1214792
HoFe3(BO3)4,2.3798,-2.57781505175,mp-1212174
Li5Ti2V5O12,0.2308,-2.577770292222222,mp-754301
CaP2(WO5)2,1.8945999999999992,-2.577625835285713,mp-1044163
KPrVWO6,0.4008,-2.577525444891667,mp-1519436
FeSiO3,2.7758,-2.577487781124999,mp-21939
CaNiSnP2O9,2.8949,-2.577476221556121,mp-1043455
Mn12O7F17,0.2845,-2.577370814310344,mp-850942
ErFe3(BO3)4,2.4089,-2.577337549333333,mp-1189650
CsEr(MoO4)2,4.012399999999999,-2.577325750804598,mp-1213682
Li10Cr3P6(O4F)6,0.0,-2.577104091452867,mp-760793
Li4Ti3V2Sn3O16,0.0,-2.577100225297619,mp-776175
ZnFeF5,2.3487,-2.576979199285715,mp-1387950
V2P2O9,1.3672,-2.576943749175824,mp-628951
TiV15O24,0.2542,-2.576924830583332,mp-760220
Cr3B7IO13,2.026499999999999,-2.576920988923611,mp-558442
V4(PO4)3,0.0,-2.576903486785715,mp-883520
La4Co3ReO12,0.0,-2.576883965625,mp-1223183
PrWO5,0.5372,-2.576855095238095,mp-1209417
Eu2CoO4,0.0,-2.576738082857143,mp-754928
BaNb2Fe2O9,1.083899999999999,-2.5765479075,mp-1022731
Ca2Mn2O5,0.182099999999999,-2.576240548984673,mp-20443
Li4Ni2OF7,0.6723,-2.57623189845238,mp-753213
Rb2TiFe(PO4)3,2.419,-2.576175425250626,mp-532655
CaCr3F6,0.4825,-2.576175268999999,mp-1214943
Ba2CoWO6,0.0,-2.5761506235000002,mp-22112
Sr2CaCrO6,0.4963,-2.576121714,mp-1520339
Ba2YTlCr2O7,0.0,-2.575966221410257,mp-1046345
Li4Ti3Cr3(FeO8)2,0.751799999999999,-2.575889314047619,mp-776639
NdReMoO8,3.3573,-2.575887152727272,mp-687204
V9(P2O7)8,0.000299999999999,-2.575865568818342,mp-1101365
K6V6P6O31,0.0392,-2.575802458293003,mp-1224907
La4Sm4Co7AgO20,0.0,-2.5757048983101862,mp-1076724
BaSrCoWO6,0.0,-2.575675568,mp-1227676
Li7Cr3(SiO6)2,3.344,-2.575592460138888,mp-752502
KMgMn2AlGe3(O5F)2,1.9956,-2.575523750655603,mp-1223590
Sr13Mn8O30,0.0,-2.5754630300676142,mp-1173350
Dy2CoPtO6,1.767599999999999,-2.5754287548333332,mp-1213101
Li2Mo(PO3)5,3.5063,-2.575388232168737,mp-540310
Li6Cr3P6WO24,1.5999,-2.575366141446429,mp-758279
YV3O9,1.3534,-2.5753199125,mp-1350084
Ca3MnNiO6,0.0,-2.575261859357367,mp-22533
Ba5Mn3O12F,1.8397,-2.575233092799672,mp-1214575
EuHfFeBiO6,0.0,-2.575150718499999,mp-1522041
NaLiFePO4F,4.3042,-2.575147609789501,mp-1198378
Ba4Sr2Gd2Co4O15,0.6201999999999991,-2.575120676851852,mp-1229271
MgSi2WO6,1.1673,-2.5750252963749998,mp-1041873
LiMn(PO3)4,1.3434,-2.5749866137408772,mp-26983
CaCoSi2O7,0.0,-2.574886789090908,mp-1262309
Sr4Ca4TiMn7O24,0.0,-2.574826259221263,mp-1076561
Ca3Ge3(MoO6)2,1.8503,-2.574664514875,mp-1332615
V4Zn3(PO4)6,1.7203,-2.574614389671814,mp-18097
K2Cr2(PO4)3,0.0,-2.574504511890976,mp-1212179
KV3O7,1.549899999999999,-2.574159026363636,mp-1211528
Li4Mn3NbV2(PO4)6,0.476,-2.573948305124589,mp-770640
V5P6WO24,0.0,-2.573909157162698,mp-778258
CaNiMoP2O9,1.6824,-2.573872554948979,mp-1043759
Cs2NaNiF6,0.0,-2.573864586068965,mp-1111951
LiCr3P4O15,2.2298,-2.573797012039337,mp-775294
Li11Ti8Fe5O32,0.152399999999999,-2.573792318630952,mp-769463
BaMo2P3O14,1.869699999999999,-2.573749861446427,mp-555195
Zr(WO4)2,3.1993,-2.573634890757575,mp-556713
La2Mn3PbO9,0.0,-2.573619525252873,mp-690564
Mg6NbCoO8,0.655099999999999,-2.573553696875,mp-1031981
V5Fe(PO4)6,0.0,-2.573528024384922,mp-829947
Li3V2H4(OF5)2,0.7545000000000001,-2.573509116666666,mp-758217
Ce(WO4)2,1.642199999999999,-2.573420193636362,mp-778675
La2MgFe2(WO6)2,1.4957,-2.573395695526315,mp-2230665
CsNa2Mn3P4ClO14,2.5772999999999993,-2.5731908377911332,mp-1195634
Li5Fe5Si7O24,2.4003,-2.5731153611382123,mp-767328
Li4Ti2Nb3Ni3O16,0.0,-2.572792166428571,mp-774751
K3NiF6,0.0,-2.572764307175,mp-1111140
La2CoNiO6,0.9971999999999992,-2.572758715,mp-1223259
Li6Cr5(P2O7)4,2.284,-2.572642459513677,mp-758905
NdFe3(BO3)4,2.3304,-2.572513753208332,mp-18936
RbNa2Mn3P4ClO14,3.6209,-2.572509073504925,mp-1194649
Y2Mg(CoO3)2,0.360199999999999,-2.57249686590909,mp-2217541
YFe3(BO3)4,2.3577999999999992,-2.5724328955,mp-1207649
Rb3LiTbV2O8,1.127599999999999,-2.572285030833333,mp-1235065
Li2V2Cr(PO4)3,0.663099999999999,-2.572237618779762,mp-1177840
La2NiRhO6,0.0,-2.5721824465,mp-1223214
Li2VPO6,3.1546,-2.572074944630952,mp-616566
NaMnPO4,3.2555,-2.572038827350458,mp-775855
Li2Mn(PO3)5,1.633399999999999,-2.571954043817913,mp-705355
La4Mo7O27,3.1163,-2.571879639539474,mp-647867
K2VPO6,3.3687,-2.571835727414285,mp-558956
Sr2YCoO6,0.0,-2.57161409725,mp-1080434
Li2MnAlO4,1.1656,-2.5715715643247132,mp-770551
Sr3Ca5TiMn7O24,0.0,-2.571507104221264,mp-1076217
Ca2VP3H4O13,2.076,-2.571491697344721,mp-1200888
V3O5F3,0.0,-2.5714358236363632,mp-759530
GdFe3(BO3)4,2.291499999999999,-2.571434543333333,mp-560751
Cr4(OF3)3,0.7197,-2.571429689999999,mp-756902
Mn2V3P6WO24,0.0,-2.571346093714423,mp-769629
Rb2V3P4O17,0.0,-2.571335690521977,mp-1220097
Sr2Mn2O5,0.0,-2.571303136206898,mp-18798
Li4Ti2V3Cr4O18,1.5763,-2.571267269193549,mp-774596
TiCrSbO6,1.6451,-2.571235284537036,mp-1216859
V5(BO5)2,0.452399999999999,-2.5710847278431372,mp-771822
Li4V2SiGeO10,2.2163,-2.571074576018517,mp-772830
LiNbWO6,0.000199999999999,-2.5708851625925933,mp-1222358
SrCo2(PO4)2,3.0601,-2.570866743406594,mp-18659
Sr4ZnCu(WO6)2,0.0,-2.570866036500001,mp-1218483
Rb2LiV(PO4)2,2.136199999999999,-2.570803415365646,mp-759578
Li2Co2(SiO3)3,2.6904,-2.570756024322917,mp-758212
Tb2CoPtO6,0.0,-2.570667225333333,mp-1208543
Li4AlCr3O8,3.2285,-2.570609750520833,mp-755500
Li2FeP2O7,4.144699999999999,-2.570515454246031,mp-779056
Na3Fe2P2O8F3,2.3434,-2.5704263724818692,mp-556871
Li2TiFeO4,1.347999999999999,-2.5702414612499997,mp-1306478
Li3Co(BO2)5,3.0462,-2.57016183372807,mp-768669
Rb2CrHgF6,0.0,-2.57008291875,mp-1112407
NaCaMn2P3(HO6)2,3.505899999999999,-2.569774191365236,mp-1204868
Sr2Ca14Mn14Al2O47,0.1623,-2.569568167228284,mp-1247597
NaLaFeWO6,2.2965,-2.569487316137931,mp-1105823
MgCr3(P2O7)2,2.1465,-2.569354466525974,mp-1043704
Ba4Sr2Nd2Co4O15,1.3891,-2.569197499074073,mp-1228541
Li3TiCr2O6,0.1105,-2.569035525277778,mp-1306033
KCeVWO6,0.0,-2.569032572725001,mp-1519397
Mg7Mn5O12,1.4032,-2.5690311222772992,mp-764245
EuMnNbSnO6,0.0,-2.569007454293105,mp-1516338
Li4Ti3V3(TeO8)2,0.6137,-2.568949824523809,mp-754525
Li2NbCr3O8,1.9444,-2.568839499761904,mp-758202