formula,bg,formation_energy,mp-id
MgAlCu(WO4)2,1.4539,-2.271926831923076,mp-2233446
V2ZnO5,2.0258,-2.271895320625,mp-1043287
Ni(PO3)3,0.0,-2.271856976263735,mp-759840
K5HfIn(MoO4)6,3.7205,-2.271835126835586,mp-695069
Sr16Fe16O45,0.0,-2.271738116428571,mp-530473
BaV2(NiO4)2,0.016199999999999,-2.271684773846154,mp-18723
Li4MnV(WO6)2,0.9527,-2.271665628563218,mp-752544
Li12CoNi3P4(CO7)4,2.9723,-2.271467010934065,mp-766547
MgMn4(OF2)4,0.0,-2.271400029807302,mp-2240925
KEu(WO3)4,0.0,-2.271351537347223,mp-1517934
NaLi2CoPCO7,2.9478,-2.271172551168372,mp-760344
BaSr7Mn2(FeO4)6,0.0,-2.2709699461465522,mp-1076408
Na2MnInSi2O9,0.069899999999999,-2.270837548490422,mp-1180382
Sr4CaCo2(SO3)2,0.0,-2.270819703,mp-1048650
Li2CuNi(PO4)2,0.0,-2.270798574353741,mp-767151
Li10Mn2V3Cr3O16,1.8381999999999992,-2.2707784590939832,mp-760787
K3V3(BiO6)2,2.9426,-2.270633770337499,mp-560736
Mn2Ni(PO4)3,0.0,-2.270627003043924,mp-759483
NaLaCoWO6,2.284699999999999,-2.270608946637931,mp-697828
Al3Cr3(SbO8)2,0.2837,-2.27057403,mp-756662
Li9V12Cr7O48,0.0158,-2.270571927894737,mp-772575
Li4Ti3Fe2Co3O16,0.2192,-2.270514088690475,mp-758015
Li4Mn3Nb2Fe3O16,0.7841,-2.2705079813259452,mp-770941
UTl2(MoO5)2,2.2304,-2.27044913836111,mp-641097
FeBO3,1.4815999999999991,-2.270362331833334,mp-19097
NdCu(MoO4)2,1.9650999999999992,-2.270357469791667,mp-554492
Al2VO7,0.0,-2.2703472975,mp-1106178
Li2Fe2B2O7,2.1551,-2.270297020576922,mp-779057
Li4Co3O3F4,0.0,-2.270118624880953,mp-759580
Ca4Cr5(TeO6)3,1.105899999999999,-2.270004218833334,mp-1046653
Ba2Ca2Tl2Cr3O10,0.0,-2.26995324877193,mp-1046503
Ba2AlFe3O7,1.2784,-2.269929637307692,mp-1253719
Li4Nb2Fe3Sn3O16,1.6189999999999989,-2.269829564940476,mp-770744
Ba3V2S4O3,0.4239,-2.269824494166666,mp-18000
Sr6Ca2Fe5Co3O20,0.0,-2.269821940833333,mp-1076769
NaLi2NiPCO7,4.0105,-2.269664982322217,mp-760210
Li2Fe2Si2O9,0.0317,-2.269639876944444,mp-1262173
Li3V3CoO8,0.8990999999999991,-2.269510057999999,mp-1177534
KNa7V7MoO20,0.067699999999999,-2.269470942552922,mp-1099669
TiV2CrO10,1.3891,-2.269430502380953,mp-773510
KNa7V7CrO20,0.5669000000000001,-2.269295352205698,mp-1076821
TaBi(WO5)2,0.0,-2.269241227666666,mp-1217993
Li2Co(PO4)2,0.0968,-2.269183883534798,mp-583967
Mg4Mn9O13,0.5563,-2.269170354091512,mp-766029
Fe3Co2P6WO24,0.0077,-2.269151468829364,mp-769471
FeP3(HO5)2,2.9572000000000003,-2.269088724151786,mp-735042
Fe3Ni2Sb(PO4)6,2.3815,-2.26907066577381,mp-774339
LiNd9Mo16O35,0.9081,-2.269067367308745,mp-866741
Al2W5O16,0.0,-2.268952497826087,mp-561337
MgFe3(OF)3,1.8725,-2.268949763499999,mp-2217159
Li4V3Cr3(FeO8)2,0.9559,-2.268905821904762,mp-772532
Ti3Fe7O15,9.999999999976696e-05,-2.2686965468,mp-34287
Ca(MoO3)2,0.0,-2.268658478888889,mp-1774805
Na3Mg4(MoO4)6,0.0084,-2.268640379030754,mp-1210397
Rb2Ce2Fe4O9,0.0,-2.268622786470588,mp-1094097
Ni2(PO3)5,0.0,-2.268514453555194,mp-704988
CaHo(CoO3)2,0.0,-2.268512034499998,mp-1041207
Na2V2ZnO7,3.2743,-2.268499522729885,mp-557323
Li3Fe2(PO5)2,0.0,-2.268469202899159,mp-766138
MgV3CoO8,1.025,-2.268465634230768,mp-2219453
PW5O17,0.0,-2.268443580636647,mp-29926
Li2V3TeO8,0.0,-2.2682616105952382,mp-780808
Li2Cr3SnO8,0.9501,-2.268205161011905,mp-774276
EuFeGe2O7,0.0,-2.268146896136356,mp-1213269
Li4CrNi5(PO4)6,0.0,-2.26808150577976,mp-759831
YbNiO3,0.0,-2.267912244249999,mp-1187595
P4H3(WO8)2,2.468499999999999,-2.267903499292857,mp-756783
Li7Fe(O2F)2,2.6388,-2.2675687852380952,mp-850795
BaSrV4(NiO4)4,2.933199999999999,-2.267442980961537,mp-1227604
ZnMo3P3O13,0.397699999999999,-2.267438117696429,mp-1041428
Li2MnGeO4,2.0368,-2.2674054683872122,mp-1210796
Rb4Mo5(PO11)2,3.3712,-2.267381667251082,mp-1199088
BaMn2O3,0.0,-2.267367855143677,mp-27323
LaW9O28,0.0,-2.267363013552631,mp-766003
BaTeW2O9,3.4154,-2.267331930128205,mp-18311
Li3Mn2P2(CO7)2,0.6622,-2.267304410875991,mp-1177646
K2CoHgF6,0.0,-2.267127319700001,mp-1112236
ThMo2O9,0.8298000000000001,-2.266935193541666,mp-1195429
LiFeP3(HO5)2,3.725,-2.266896393662465,mp-781053
Ba2Nd2Fe(CoO4)3,0.0,-2.26666741775,mp-1228516
PrCu(MoO4)2,1.9748,-2.266644913055556,mp-555912
MgV5CuO12,0.5601,-2.266557368157895,mp-2230742
Mg6CrCO8,1.341,-2.2664240053125,mp-1033328
YCu(MoO4)2,2.0016,-2.266380460729168,mp-559028
Na2TlNiF6,0.0,-2.266361824550009,mp-1110616
Mg6MnCO8,2.522,-2.266239073308189,mp-1032752
Ba2Gd2Co4O11,0.0,-2.266226319210527,mp-1189405
ZnFe2(PO4)2,3.0221,-2.265990556675822,mp-1353483
Li4Ti2V3Cu3O16,0.0,-2.265666790714287,mp-777897
Li3Cr4P5O24,0.9424,-2.265457664950397,mp-1177807
Li4V5(FeO6)2,1.3975,-2.265391205579711,mp-850103
Ca3Ni2(GeO4)3,0.2915,-2.265335012375,mp-1327823
Na2MnAuF6,0.0,-2.265300433068965,mp-1111303
Mn7P12WO48,0.0,-2.265076218547522,mp-780613
MnFeCo(PO4)3,0.6409,-2.265005688158867,mp-1176492
Rb7VSiO8,2.4409,-2.265004729411764,mp-1219828
Sr2Mg(MoO3)2,1.7832,-2.264922268636363,mp-2217968
LaCu(MoO4)2,1.4535,-2.264901558854166,mp-1212602
Mn2P2O7F2,0.9245,-2.264842490203676,mp-770557
FeCoPO4F,2.4339,-2.264819514642857,mp-572292
PWO4,3.1622,-2.264803736190476,mp-25431
Li4Nb3Ni3(SnO8)2,0.314,-2.264739787261905,mp-774703
MgNiBiP2O9,0.0,-2.2647244844132652,mp-1043481
Na3Mg2(MoO4)3,1.171599999999999,-2.264692165706896,mp-1210518
Fe2Si2SbO9,0.0116,-2.264676385357142,mp-1103957
RbFeP2(HO4)2,2.755,-2.264655879234694,mp-744814
GdCu(MoO4)2,0.0823,-2.264521184270833,mp-560018
Mo2P2O11,2.0302,-2.264520319285714,mp-504196
LiVGeO5,2.3129,-2.264307974791666,mp-850438
K2V2CoO7,2.582,-2.264214984541665,mp-1190373
Li6WO6,3.6768,-2.264166848461538,mp-754634
Li3VFeP2(HO5)2,0.0,-2.264115273778194,mp-759083
Ca3Mn2(FeO5)2,0.0,-2.263982702991887,mp-1358203
Rb2TeMo2(PO7)2,3.0151,-2.263805293378684,mp-10447
MnVH4O2F5,2.2136,-2.263791131763926,mp-505254
Mn3FeNi2(PO4)6,0.0,-2.26374072365695,mp-756802
Li6CoCu3(PO4)4,0.0,-2.263704558285714,mp-775260
Ca10V5Fe15(BiO24)2,1.0947,-2.263689434875,mp-697835
AlMo(WO4)2,1.4383,-2.26362660625,mp-1041813
Fe4Co3(PO4)6,1.837,-2.263583499131273,mp-18085
NaMo3(PO7)2,2.1258,-2.26341120278325,mp-1210232
Li4Ti2Fe5O12,1.5208,-2.263140436086956,mp-758960
RbMg6WO8,3.5322,-2.263100421093749,mp-1033623
LiVWO6,2.8759,-2.26299334037037,mp-754143
Li4Mn(WO4)3,1.9685,-2.262974589563218,mp-755247
Sr7CaFe5Co3O20,0.0,-2.262954629097223,mp-1076758
V2Ge2O7,1.9264,-2.262856224090909,mp-752409
NiP2(PbO4)2,3.682,-2.262851917637363,mp-1202326
Li9Cr5O12,1.4392,-2.262724667692307,mp-761270
SrV2(NiO4)2,2.8083,-2.262711218653846,mp-541734
Mn3Co2Sn(PO4)6,0.0,-2.262633208240286,mp-758322
Li2FePHO5,3.7864,-2.262600500755952,mp-1638898
Sr8Fe8O23,0.0,-2.262595125512822,mp-19004
Fe3P4O15,0.0,-2.262534388116883,mp-1101558
AgMo2P3O13,2.024299999999999,-2.26242919858396,mp-14973
Na4V3O8,1.858099999999999,-2.262387023701149,mp-765721
MnV4FeO12,2.0082,-2.262248219329502,mp-1176412
Fe3P6WO24,0.078699999999999,-2.262247221701681,mp-775004
BaMnSnWO6,1.6954,-2.262229163293103,mp-1518034
Ba3Nd3Co6O17,0.0,-2.262222792327587,mp-1228468
FeSb3(PO4)4,1.3695,-2.262068606607142,mp-755192
FeP2O7,0.0,-2.262016306178572,mp-766012
K3ReMoO8,2.7906,-2.261960089557692,mp-1224026
Li4MoO5,2.8472,-2.261947287833334,mp-19117
NdSmCr4O12,0.0,-2.2619104512500012,mp-1516638
NaV(GeO3)2,0.0,-2.2618929796379312,mp-558048
CaAsWO5,2.213,-2.2618786684375,mp-1360721
Ce2Fe2Se2O3,0.0,-2.261740903298609,mp-1078283
Li3MnO2F,0.613599999999999,-2.26168898934729,mp-756674
K2TeMo2(PO7)2,2.9747,-2.261668612402494,mp-1211929
V9Sb7O32,0.6152999999999991,-2.261631456875,mp-767873
Li3V4FeO8,0.0,-2.26161091125,mp-755085
Na2VO3,2.411499999999999,-2.261551797543104,mp-754331
NaMg3In(MoO4)5,2.962799999999999,-2.261465118101533,mp-1221106
VCrP2(HO5)2,0.6735000000000001,-2.261449771674107,mp-753596
LaAg(MoO4)2,2.5972,-2.261418322222167,mp-1223057
V3(WO6)2,0.0343,-2.2613906148529392,mp-772655
NaSrPrMnO6,0.0,-2.261358919097701,mp-1521790
Fe3Ni2Sn(PO4)6,0.0,-2.261307348968254,mp-775990
Cr14MoO24,0.421899999999999,-2.261197896666665,mp-674480
NaFe3P3O13,0.0,-2.261184048015394,mp-1040459
Al2Fe2Bi2O9,2.32,-2.26110121,mp-1229026
Ti9Fe11O30,1.3133,-2.260989212399999,mp-685183
CaVSnWO6,0.457999999999999,-2.260939558500001,mp-1517951
CaNi2P2O9,0.0,-2.260839949948979,mp-1043475
Li2TiMn2NiO8,0.7694000000000001,-2.260828330418719,mp-1222732
Mn2Fe3Ni(PO4)6,0.0,-2.260754367881089,mp-764918
Li4Mn2V3Sn3O16,1.047199999999999,-2.260707690864121,mp-777427
Na4Fe3P4O15,0.0977,-2.260659387272641,mp-1203835
Eu2MgAg2(WO4)4,0.1795,-2.260637902733334,mp-1234531
Na4Co7(PO4)6,2.3694,-2.260560870814009,mp-18012
V5W3O20,1.231899999999999,-2.260509666249999,mp-757241
NbCoO4,1.5819,-2.260482805000001,mp-31518
Sr2AlCrCu2O7,0.0,-2.260464093076923,mp-1043752
KFeP4(H2O7)2,3.0795,-2.260410076909226,mp-758349
VCrSbO6,0.0,-2.260406213888888,mp-1216355
CsLiMoO4,4.4239999999999995,-2.260392497569788,mp-551629
Na5Fe2P2(CO7)2,1.2347,-2.2603907144472912,mp-777585
BaYCuNiO5,0.0,-2.260251551666666,mp-1404372
K4MgV2O7,1.3264,-2.260068977071429,mp-2241486
TmMg(FeO2)2,0.0,-2.260058850625,mp-2227656
Na8Hf(MoO4)6,4.0704,-2.259928600923961,mp-558067
LuCu(MoO4)2,0.6925,-2.259901183055556,mp-1211083
SrLaNiRuO6,0.4131,-2.259729206999999,mp-694873
Cr3Fe(PO4)6,0.0,-2.259469276995799,mp-775201
Li4Mn3O6F,0.0,-2.259444314437601,mp-753146
RbVH4(OF2)2,2.6044,-2.259430649375001,mp-728493
Li2Ni4P4O15,3.3233,-2.259311689009523,mp-705401
K2Fe2(PO4)3,0.2243,-2.259282295706767,mp-1212103
KCo2(PO4)2,0.0,-2.259204796464285,mp-1211872
SrV2(CoO4)2,2.1884,-2.259052480576923,mp-1195702
V2SnO7,2.6767,-2.259000095750001,mp-773455
SrMnSnWO6,1.4639,-2.258981318293102,mp-1519598
LiFe3P3O13,0.0,-2.258844148113096,mp-1013899
Sr2Ca2Mn(FeO4)3,0.0,-2.258822814146552,mp-1076410
K2Fe2B2O7,2.4615,-2.258636461115384,mp-1195799
Ba2MgFeReO6,0.8922999999999991,-2.258594430681818,mp-2217890
CaCo3P3O13,0.440099999999999,-2.258527522446429,mp-1047893
Sr5Ni2BiO10,0.0,-2.258483000555555,mp-1189753
BaEuFeCuO5,0.0,-2.258450407777778,mp-1228144
LiCr2O4,0.6332,-2.258351875476191,mp-774032
Li3Co3(PO4)4,0.9617,-2.258349140714286,mp-31614
Mn3VCu2(PO4)6,0.0,-2.258302291156949,mp-1176676
Ca2NiOsO6,0.0,-2.258249558499999,mp-22020
NdMnFeBiO6,0.8844000000000001,-2.258236074043103,mp-1237102
Li4V3(FeO6)2,1.8134,-2.258228061468254,mp-760208
K2W3O10,1.7366,-2.2581741993,mp-772962
KPWCO7,2.864,-2.258123517444805,mp-755603
Na3Co6Ag(P2O7)4,2.75,-2.257784185064075,mp-1221297
Mg2W3O8,0.0,-2.257712782307692,mp-1042810
RbLiMoO4,4.5325,-2.257652557261905,mp-556209
TmCu(MoO4)2,0.689499999999999,-2.257434179583335,mp-1208120
Mn7V5O16,0.253099999999999,-2.257402914482758,mp-532522
Li2MnV4CoO12,1.433599999999999,-2.257338180229885,mp-1177907
ZnMo2P2O9,1.2143,-2.257001605663265,mp-1041036
Mn2ZnP2H2O9,2.9569,-2.256929683915487,mp-1194855
CrNi(PO4)2,0.0,-2.256860874107142,mp-775333
Mg2FeO4,0.0,-2.256815799285714,mp-768465
Mn2Nb2O9,1.0695,-2.256780347374006,mp-1369222
Mn2Ni3P6WO24,0.040999999999999,-2.256657990658866,mp-757935
Na3CoSiBO7,0.036199999999999,-2.256621879484969,mp-756360
CaFeReO6,0.685099999999999,-2.256602484722222,mp-1343817
Ca3Ni2(WO6)2,0.0,-2.256559194210525,mp-1341945
LiNi3P3O11,3.719099999999999,-2.256494008458994,mp-25879
K2WO4,4.3858,-2.256356684214285,mp-18780
LaMnZnFeO6,1.3325,-2.256264304793103,mp-1043865
BaSr4(FeO2)5,0.005799999999999,-2.256234988749999,mp-1227721
BaLaCoIrO6,0.0,-2.256188090500001,mp-1228112
Li5VCr3O8,1.2556,-2.256098526862745,mp-760333
Ba2Ca3Mn4Tl2O12,0.0,-2.256045356451774,mp-1048549
Li4Fe2Ni3Te(PO4)6,2.8717,-2.256037545696428,mp-1177446
KZrMnBiO6,1.1158,-2.256004151518105,mp-1521496
Li4Co2Ni3Sn(PO4)6,2.5939,-2.25581433465476,mp-776757
NaCrO2,2.891,-2.255811479719828,mp-578604
Li4Mn3V3(SbO8)2,0.367,-2.255539260254516,mp-776978
Li3Fe8(BO3)8,1.634399999999999,-2.255467921472869,mp-849619
P(W3O10)2,0.0,-2.255421323134921,mp-652282
LiMnP4(H2O7)2,1.5432,-2.255128458534825,mp-780204
Rb2UMo2O11,0.856399999999999,-2.255076335624999,mp-1198786
Mn2Al2O7,1.585799999999999,-2.254900836896551,mp-1255912
Sr18Fe18O47,0.0,-2.25484324427711,mp-685527
BaCaCr4O8,0.0,-2.254842323571428,mp-1044468
Sr8MnFe7O24,0.0,-2.254760052448274,mp-1076445
Li2V4CrCuO12,0.648,-2.254647004333333,mp-1570812
Li6Co6O5F11,0.2401,-2.2546054225,mp-850986
AlBi(WO4)2,2.3077,-2.254597890833333,mp-1042146
Cr3(OF)2,1.5592,-2.254557591428571,mp-753311
La2MgCr2(CoO6)2,0.4194,-2.254548232894736,mp-2231116
LiCoBO3,2.6482,-2.254535249166666,mp-756840
Mg2CuWO6,0.2642,-2.2545116655,mp-1333042
Mn3Cr3O8,0.621699999999999,-2.254467164199506,mp-1290512
Li2Cr3O6,0.5722,-2.254454252878788,mp-758744
Li2Fe5O5F7,1.6766,-2.254199760350877,mp-755119
SrCrInWO6,0.2952,-2.254128255666665,mp-1519512
AlCo(WO4)2,1.6189999999999989,-2.254103944999999,mp-1252502
Ca2NiSbO6,0.0,-2.2539713955,mp-1373974
NiSb3(PO4)6,0.0,-2.253757417289915,mp-775231
V14Fe5O32,0.0,-2.253701856078432,mp-1101241
Nd4FeS6O,2.2232,-2.253597353333332,mp-1190394
LaMn7O12,0.0,-2.253550999525861,mp-1189182
LiFe2F9,1.1771,-2.253413413194444,mp-776050
Na2FePCO7,2.373199999999999,-2.253276604783455,mp-1176399
LiFe7(OF3)3,2.3048,-2.253194045666667,mp-754332
LiTiMn3O8,0.626899999999999,-2.253139008496906,mp-759309
SrPr(CoO3)2,0.0,-2.252979476666665,mp-1218091
Cs2WO4,4.544799999999999,-2.252970350258624,mp-1193656
Zn3Si3(WO6)2,0.798099999999999,-2.252824044875,mp-1163950
Na3Mn2V3O12,0.0,-2.252679676249999,mp-1210577
Ba2YTlCo2O7,0.0,-2.252665167179487,mp-1298647
EuV4SnO12,0.0,-2.252630972222222,mp-1521493
La7SmNi6(AgO12)2,0.0,-2.252523785333333,mp-1076723
Li3Mn2VO6,0.688099999999999,-2.25247923007184,mp-755092
SrPrCoRuO6,0.0,-2.252347118666667,mp-1218107
Li11V12(CoO8)4,1.033,-2.2522038226553662,mp-761141
MgMn5O7F,0.440599999999999,-2.251839088189655,mp-2226474
Co2P3O10,0.508899999999999,-2.251799367595238,mp-540204
K2W4O13,1.9062,-2.251699962605264,mp-757860
Li11Fe(WO4)7,2.8156,-2.251534366312056,mp-769470
Na3CrBAsO7,2.5311,-2.251448545061891,mp-771974
Te4W(OF4)5,3.0745,-2.251378753888888,mp-558136
Li4MnO3F,1.1002,-2.251277361529374,mp-753101
MgCr4O8,0.6042999999999991,-2.251240931153845,mp-2218817
KLiMoO4,4.481,-2.251139869726191,mp-1199453
Fe5Te(PO4)6,0.7236,-2.250767098458993,mp-768376
Fe3NiSb2(PO4)6,0.0,-2.2507666052182542,mp-1178301
Sr2MnAlCu2O7,0.0,-2.250720403302387,mp-1262567
Ba2YMgCo3O8,0.0,-2.250711732999999,mp-2228739
Li10V3Cr5O16,0.474899999999999,-2.250688830098038,mp-761047
Co2P2O7,2.0784,-2.250671190616882,mp-550468
V7(WO5)6,0.3477,-2.250670727906975,mp-773080
Fe9(PO4)8,1.6058,-2.250618148513119,mp-704206
YCo3F15,0.6741,-2.250593735263158,mp-1359624
Sr6Co4O13,0.0,-2.250554416739131,mp-1218543
K2FePCO7,1.1862,-2.250526834511904,mp-773453
KFeCo3(PO4)3,2.3595,-2.250505898558928,mp-641497
CsV2SbO8,2.7044,-2.250436025179598,mp-1196047
LuFeCuO4,0.0,-2.250434189523809,mp-1222330
Ba4Mg(Fe2O5)2,0.3003,-2.250430775,mp-2230883
K2V2O5,1.116799999999999,-2.250389128833335,mp-1099837
Li2Co2OF6,1.0269,-2.250279444242424,mp-756031
LiMn2V4O8,1.2514,-2.250262507279693,mp-1235517
Sr10Fe10O29,0.0,-2.2502026578571432,mp-1094087
Ba4MnIn2(S3F2)2,2.0034,-2.250185304633198,mp-1204819
LaCrS2O,1.0281,-2.2501489395,mp-18885
Ba2W3O8,0.0,-2.250089955384615,mp-1048194
Cr2PBrO4,2.2655,-2.250070627767856,mp-556473
Li3V4CuO12,1.0834,-2.249886024000001,mp-756355
Li2MnV4NiO12,1.364,-2.249862913229885,mp-862462
BaNaSbWO6,1.394299999999999,-2.24982658413793,mp-1517995
Sr3Ca5Fe4(CoO5)4,0.0068,-2.249760793263888,mp-1099708
CrFe3Ni2(PO4)6,0.0,-2.249742611051587,mp-850902
MgMn3V2O10,0.8710999999999991,-2.249675741174568,mp-2232992
LiFe2(PO4)3,0.0,-2.249609763181217,mp-1101593
Li4Ti2Fe3Sb3O16,1.016299999999999,-2.24960826142857,mp-1662795
RbMg6CoO8,0.048799999999999,-2.24947677796875,mp-1032333
BaV(AsO4)2,2.4757,-2.249424214374999,mp-557424
MgV2Cr4O12,0.4767,-2.249407578684211,mp-2230584
KCrPCO7,0.8471000000000001,-2.249386081990259,mp-1178159
LiFe3P3(HO6)2,3.4902,-2.249249006893424,mp-780853
Li3Ni(OF)2,0.5296000000000001,-2.249181244687499,mp-761272
Mn3Nb2Cr3O16,0.7195,-2.249142898074712,mp-771853
Li4FeCu3(PO4)4,0.0,-2.2490715072108842,mp-1177402
Li2Cr2SnO6,3.171599999999999,-2.248986266969697,mp-756493
Li2CrO3,1.7756999999999992,-2.248970232777778,mp-755795
SrV4SnO12,0.0,-2.248926520277778,mp-1519181
Mn4(P2O7)3,0.9227,-2.248814829421976,mp-779338
VP3(Pb3O8)2,3.2285999999999992,-2.248770474766483,mp-1216403
Rb2WO4,4.511,-2.248733529999998,mp-18864
NaSrDyFeO6,0.0,-2.248559018304597,mp-1518306
MgV4Zn2O12,1.155799999999999,-2.248396860263158,mp-2228788
Sr7CaMnFe7O24,0.0,-2.248350854198274,mp-1099701
NaFeBP2H3O10,1.9647,-2.248301606032316,mp-505478
AlNi(WO4)2,1.9588,-2.248289101249999,mp-1254576
Mo2P2PbO12,2.7571,-2.248211523781512,mp-556276
Li8MnCo7(PO4)12,0.0,-2.248093494872526,mp-758579
Fe3CoSb2(PO4)6,1.607199999999999,-2.248092414662698,mp-829913
Ca2CrOsO6,0.172499999999999,-2.248063635499999,mp-1105518
Li3AlNiO4,2.4355,-2.247820456388888,mp-770491
Li3Cr2FeO6,1.8965,-2.247820170833333,mp-755051
Li2MnCr3O8,0.9677999999999992,-2.247750001578407,mp-1177916
Li4CrSb(WO6)2,1.6873,-2.247668473666666,mp-752957
MgNiPO5,0.0487,-2.247665795580356,mp-1046740
Na4Pu(MoO4)4,0.159099999999999,-2.24760286217069,mp-641281
Li2CuNiF6,0.0,-2.247561114333334,mp-1111560
LiFeOF,1.7099000000000002,-2.2474106708333332,mp-1272771
CaVAs2O7,2.394999999999999,-2.247324812272728,mp-1042925
MgCo5(P2O7)4,0.473999999999999,-2.2471412560034,mp-1235010
Fe3Co2Sn(PO4)6,0.0,-2.247070272857143,mp-758618
K4Na4NbW7O24,0.0,-2.246943295612932,mp-1076751
Li6V3Sb3O16,0.0,-2.246898491071429,mp-775699
Na3Mn2P2(CO7)2,0.864599999999999,-2.246883065621118,mp-774454
Li6Ni9(PO4)8,2.5805,-2.246728377220779,mp-765947
Na4MgV4O10,0.9535,-2.246693073185117,mp-2230535
Mn7V(PO4)12,0.0,-2.246639703547522,mp-772136
K2UMo2O11,0.6880000000000001,-2.246566655749999,mp-1198457
MgV4As2O13,1.2666,-2.246542428250001,mp-2230087
Eu2MgFe2O5,0.0,-2.246399782000002,mp-2223114
Fe2Si2BiO9,0.3387,-2.246264646071428,mp-2214664
KMgSc(MoO4)2,0.0123,-2.246040064403847,mp-2218308
Mg2Mn3O8,1.399499999999999,-2.246023489522547,mp-770423
Li4TiFe3O8,0.679999999999999,-2.246014116666666,mp-769962
Li4MnNi5(PO4)6,0.4596,-2.245949750228038,mp-1177336
EuCu(WO4)2,0.0,-2.2458249966666672,mp-1213368
Li10Mn3V5O16,0.228599999999999,-2.245441601091954,mp-764265
LiCo2(PO4)2,0.6804,-2.245308665393773,mp-766523
Fe4Ni3(PO4)6,1.4701,-2.245307393996138,mp-17258
Li2V3CuO8,0.7109999999999991,-2.245298681904763,mp-773650
Rb3NaV4H2O13,3.0182,-2.24524044005997,mp-764629
NaCr(WO4)2,2.2669,-2.245235919698275,mp-18851
Sr6Nd4Mn3(RhO10)2,0.0,-2.245170259251231,mp-1173199
Li9V3(WO4)7,1.5507,-2.24515610212766,mp-777624
Cs(WO3)3,0.0,-2.245138814973477,mp-753119
Li3Fe3P8O29,0.0,-2.245106545631227,mp-705437
Na9Sc(MoO4)6,4.2232,-2.244983833935344,mp-1201917
V4CrFeO12,0.029599999999999,-2.244955217777778,mp-1101192
V3Zn2O8,1.455899999999999,-2.244911628461538,mp-1042834
Sr16Fe16O41,0.0,-2.244884844589042,mp-698682
KTaWO7,0.9989999999999992,-2.244669890458332,mp-1223034
MgV4(FeO6)2,1.3899,-2.244597197631579,mp-2230701
Li4Nb2Cr3Co3O16,0.7872999999999991,-2.244344231904762,mp-765095
Sr3Fe2RuO9,0.0,-2.244272596333334,mp-1218474
NaSrTbFeO6,0.0,-2.244266951804597,mp-1517684
Y2Mo(SeO4)3,2.9162,-2.244226930390623,mp-1204562
Rb2Fe2(PO4)3,0.3904,-2.244211147312029,mp-1209586
Li4Mn3Cr3(WO8)2,0.0,-2.244149849183087,mp-776267
Li6AlFeO6,2.6897,-2.244142782321428,mp-777878
Sr2MgCrSbO6,0.7321000000000001,-2.244076544090908,mp-2225317
LiCo3(P3O10)2,0.9597,-2.244073058873016,mp-26567
K3MgV3O8,1.309599999999999,-2.24402987645,mp-2232219
Co6P7O24,0.0,-2.243929121689188,mp-705347
MgCr2(GeO3)4,1.804,-2.243815145,mp-2231345
KWNClF5,3.5158,-2.243745467194444,mp-558352
Li2Ni3OF6,3.6759999999999993,-2.243742010555555,mp-753448
Li3V8O11,0.2095,-2.243433882954547,mp-1177632
Li4V5Fe3O16,0.659199999999999,-2.243385264404761,mp-776768
V5CoO12,1.0072,-2.243378097777778,mp-2236422
KEuSbWO6,0.266699999999999,-2.243359538225001,mp-1517569
Li4MnCrO6,1.0548,-2.243357170522031,mp-768712
ScZnMo3O8,0.0,-2.2432700153846152,mp-18282
Mn5(PO6)2,0.0,-2.243217219286362,mp-1201965
Fe3OF9,0.794899999999999,-2.243188886538461,mp-818581
RbLi2Co2(BO3)3,1.1656,-2.243068196862745,mp-770633
MgV4Zn2O10,1.5314,-2.243042449117648,mp-2229119
Li4TiV4(Fe2O9)2,1.4623,-2.242974695376345,mp-1177277
Li4V5Sb3O16,0.7074,-2.242861684761905,mp-775960
Ba3FeRu2O9,0.0,-2.242693849999999,mp-1214638