formula,bg,formation_energy,mp-id
Li4FeCo2Ni3(PO4)6,0.0,-2.210123744279762,mp-1177467
Ni6P7O24,0.0,-2.210057838175675,mp-504372
Li5W2O7,2.1295,-2.210054734404761,mp-1192707
Cs2Cu3NiF10,0.6046,-2.209980202285152,mp-1226365
Li4Nb3Ni3(SbO8)2,0.0,-2.20997668154762,mp-764765
Rb(WO3)2,0.0,-2.209892131388888,mp-752845
BaCaMn4O8,0.0,-2.209659800837439,mp-1044544
Ba2LaCoCu2O7,0.0,-2.209517288461538,mp-1214652
BaSr7(FeO3)8,0.0,-2.209420429,mp-1099685
LiCo3OF5,2.4933,-2.209381962333334,mp-760399
Ba2GdCoCu2O7,0.0,-2.20933424576923,mp-1214814
Li8VO6,1.7598,-2.209285109111111,mp-756255
KGa2NiP3(H2O7)2,4.1711,-2.209189322847143,mp-1197280
V3CoO8,1.8485,-2.209181619583333,mp-861528
LiFe8(BO3)8,1.728599999999999,-2.20917172308943,mp-849747
BaSrFeBiO6,0.0837,-2.209131879,mp-1522159
K2NiAuF6,0.0,-2.20911092745,mp-1111941
KLi(WO3)3,1.0924,-2.208757912184524,mp-1178148
Ba3Fe2TeO5,0.0,-2.208744559242424,mp-1147669
Ba2SmCoCu2O7,0.0,-2.208653907692307,mp-1214586
CaMoAsO5,1.3669,-2.2086510946875,mp-1047199
Li5Nb2Ni3O10,0.4238,-2.208629679833334,mp-755736
Li4Mn3Cr3(SnO8)2,0.0,-2.208629169183087,mp-776096
CaEuInFeO6,0.0,-2.208624451166666,mp-1519852
LiFe3O3F4,2.4502,-2.208522442575757,mp-831271
MnNi(PO4)2,0.284999999999999,-2.208509382268062,mp-771700
V2FeO4,1.2226,-2.208468487142857,mp-1274785
Sr4MgCo2(SO3)2,0.0,-2.208432149999999,mp-1048717
SrInGaWO6,0.9516999999999992,-2.2083153714166652,mp-1520202
EuCoO3,0.0,-2.20830555899994,mp-1212757
CaCo6(OF5)2,2.3183,-2.208209176842106,mp-1234115
NaCr(GeO3)2,2.8468,-2.208124001137931,mp-21213
Li6Fe2O5F2,1.9472,-2.208099643666667,mp-776572
CrCu(PO4)2,0.0,-2.207990337440476,mp-867746
Sr6Ca2Fe3(CoO4)5,0.0,-2.207947944097223,mp-1076488
Li8MnO5F,1.997599999999999,-2.207908867139847,mp-753625
NbFe7(PO4)12,0.0,-2.207867726554622,mp-1101729
Mn(ReO4)2,3.141,-2.207803734357368,mp-627380
KCaBiWO6,2.135299999999999,-2.207533469725001,mp-1516386
Na3Fe2P2O10F,0.0,-2.207504076162424,mp-1221362
Ba2MgNiMoO6,1.3583999999999992,-2.207504001363635,mp-2218092
Mn2Hg2SF6,0.0,-2.207428643487462,mp-17745
SrCa7Fe2(Co3O10)2,0.0,-2.207408410972223,mp-1099745
Na2MgW4O13,0.0,-2.20737476413793,mp-2230091
K2MoH(OF2)2,3.4815,-2.207352585825,mp-1211983
Na3V2(GeO4)3,0.7941,-2.207107278331896,mp-1012686
La4(MoO4)9,0.1577,-2.206962376326532,mp-1212125
BaAlVCuO5,0.0,-2.206785785,mp-1042520
NaFeBO3,1.9134,-2.20668484967433,mp-1101655
Li4Ti2Co3Sn3O16,0.702399999999999,-2.2066427373214292,mp-774845
Ba2AlMo3O8,0.0,-2.2065837864285722,mp-1048236
Li2CrWO6,0.0,-2.206562858166665,mp-754450
Li3(WO3)8,0.0,-2.206382801428572,mp-1222771
K(WO3)9,0.0,-2.2063421926959452,mp-685441
V11Sb9O40,0.0,-2.206182076499999,mp-1100948
MgFe4(OF)4,1.7426,-2.20609311576923,mp-2218769
LiMnPH2O5,3.715899999999999,-2.206006765340722,mp-758824
MgCo4(P2O7)4,0.052499999999999,-2.205956915174215,mp-1233561
Co6OF11,0.8186,-2.205787613888889,mp-754817
NiMoP2O9,1.4081,-2.205641923791208,mp-1043472
LiIn(WO4)2,3.345999999999999,-2.205425817083333,mp-1190195
Na2MnBSO7,1.368,-2.20533741269636,mp-771142
LiCo3(SiO4)2,0.0052,-2.205320383095239,mp-849520
Li4V5CuClO15,0.603699999999999,-2.20505072801282,mp-756583
BaSr4(FeO3)5,0.0,-2.204770580600001,mp-1227739
BaLaMgNiRuO6,0.0095,-2.204698412727272,mp-2217872
AgMo3P3O16,1.6215000000000002,-2.204619052199791,mp-19467
Cs3V4Te2ClO14,2.2975,-2.204577854679119,mp-624117
FeTe(PO4)2,3.3436999999999992,-2.204570599871032,mp-1645036
BaHoMg(CoO3)2,0.0,-2.204517322727272,mp-2217714
Ca2Mn9O13,0.0,-2.204478888182473,mp-1045861
K4Zn(WO4)3,4.31,-2.2044483937,mp-559362
K5Mo4O14F,3.658699999999999,-2.20444649984375,mp-1195555
Li4Nb3Fe3(NiO8)2,0.5187,-2.204339345476191,mp-754367
Li4Cr3Sn5O16,0.0,-2.204320371726191,mp-773182
V3Zn2GaO11,2.6398,-2.204319336617646,mp-1216516
Li4V3Fe3(WO8)2,1.087899999999999,-2.204269110833333,mp-770521
CaFeAsO5,1.746099999999999,-2.2042568634375,mp-1325009
K2MoO4,4.3175,-2.204234955642857,mp-18914
CaV4(AgO6)2,1.9174,-2.204038629912281,mp-16967
Sr4LaFe2(CoO5)3,0.0,-2.204016162,mp-1218676
Fe3Ni2Te(PO4)6,0.074999999999999,-2.203983788736772,mp-774923
Ti3Fe2(BiO3)6,1.577,-2.203980591034484,mp-1217427
Cs2MoO4,4.6118,-2.203920136687191,mp-1194312
RbCoCuF6,0.0,-2.203727652499999,mp-1219629
Li2MnV4CuO12,0.0,-2.203644991729883,mp-774824
Tl2V8O21,1.299399999999999,-2.203579532311826,mp-583506
NaVZnO4,3.3769,-2.20354042513752,mp-1096979
Fe7(OF3)3,0.0025,-2.2035014152631582,mp-781010
LiNbCo3(PO4)6,0.0761,-2.203350199176871,mp-1176608
Li2CoPHO5,2.8555,-2.2033065795,mp-943466
NaNbInWO6,0.0,-2.203251612804597,mp-1521298
KCaTbFeO6,0.0,-2.203236278391666,mp-1519793
AlTl(MoO4)2,3.8702,-2.203208559444446,mp-18733
V4CrCoO12,0.091999999999999,-2.203079149999999,mp-755778
ZnFe(PO4)2,0.0,-2.203075981190475,mp-1101161
NaCaDyFeO6,0.0,-2.203062968304597,mp-1519514
Mn3CoNi2(PO4)6,0.0,-2.203042930879173,mp-1176478
ZnNiP2WO9,1.5939,-2.203033669948979,mp-1044171
Sr2AlFeCu2O7,0.416299999999999,-2.202765583461537,mp-1042742
Li4Mn3CrO8,0.9579,-2.202754494820402,mp-1177394
Mn2Cu(PO4)3,0.0,-2.202584269155035,mp-2215927
ZnCr4CoO8,2.7994,-2.202175859285713,mp-1215697
Fe2Ni3P6WO24,0.9977999999999992,-2.2020977349404762,mp-771051
Mn2P2O9,0.009,-2.201911198665215,mp-1040954
BaNaLaFeO6,0.0,-2.201908446637931,mp-1520093
RbVSO6,1.8148,-2.201899256388889,mp-642398
FeNi3Sn2(PO4)6,0.0,-2.201821571329364,mp-849278
Li3Ti(CoO3)2,0.0,-2.201780326944444,mp-771220
YV4(CuO4)3,0.0,-2.2016435705,mp-1045778
Li24Mn7Cr5O36,1.0745,-2.201594126465517,mp-777641
Li4Mn3Cr5O16,0.240199999999999,-2.201561506683088,mp-771148
MgMo(WO4)2,2.604399999999999,-2.201521076249998,mp-2218257
Fe5Cu(PO4)6,0.5035000000000001,-2.201516816329364,mp-771903
NaEuBiWO6,0.629699999999999,-2.201507767637931,mp-1517500
CaV4(CoO4)3,0.0,-2.201506104500001,mp-1189284
Co2BP4H2Pb4ClO18,3.019399999999999,-2.20148969078869,mp-1199458
Li2VFeO4,1.215099999999999,-2.201452557083332,mp-756969
MnVO2F5,0.589399999999999,-2.201367638659004,mp-1210967
Li4FeP6(H4O11)2,4.0633,-2.201292920029035,mp-1177403
LaMgCrCuO6,0.0,-2.201216096,mp-1048850
CaMnAs2O7,1.5963,-2.201135154584639,mp-1042777
MgV2Te2O7F2,1.389299999999999,-2.201084704523809,mp-2227262
TaZn2WO6,1.3028,-2.200857218233333,mp-1369089
V2AsO6,1.4248,-2.20083250277778,mp-1200118
V3Pb2O9,1.7264000000000002,-2.20054111267857,mp-1101267
Li4Nb2Cr3Ni3O16,0.0,-2.200476171904761,mp-779200
Cr3Co(PO4)6,0.0,-2.200467634642857,mp-757861
K2Al4Fe5Si5(HO6)4,1.054199999999999,-2.200435917261363,mp-685130
Ba2NiOsO6,0.0,-2.200199516333333,mp-504568
Mn2VO4,0.0696,-2.200187375123153,mp-531700
Ca3Fe3(AsO4)4,2.3749,-2.200034051538462,mp-1047531
KMnPCO7,1.0272,-2.200009907256718,mp-773432
Li2Ni(PO4)2,0.0,-2.1996992673809532,mp-26692
Rb2MoO4,4.5041,-2.1996417928571432,mp-19212
BaLuFe4O7,0.0,-2.199277469358974,mp-1103986
Li2Fe(WO4)2,3.349999999999999,-2.199146546666667,mp-1210849
Rb2V2O5,0.0,-2.19911841888889,mp-1076354
NaTaWO7,0.0,-2.199008231371264,mp-1220910
MgV2(FeO4)2,2.0903,-2.198918346538462,mp-2227701
ZnCrNiP2O9,0.230199999999999,-2.19890513119898,mp-1043482
Zn3Co2(SiO4)3,2.365999999999999,-2.198904756,mp-1327416
Fe2Ni(PO4)3,0.0,-2.198867691051587,mp-774420
Ba4Fe3(S3F2)2,1.2306,-2.198835968382352,mp-557161
Fe5Cu2(PO4)6,0.0,-2.1988294112934352,mp-558889
CaMnSnWO6,1.329799999999999,-2.198747393293102,mp-1516574
Li3Mn2Cr2O8,0.0,-2.1987456578908042,mp-780408
V6CuO15,0.3368,-2.198725165454546,mp-1216902
Li4MnV3O12,0.318899999999999,-2.198678462063218,mp-756559
Fe2Co(PO4)3,0.0504,-2.198540516329364,mp-757261
V2CrO7,0.6825000000000001,-2.198481662249999,mp-773503
MgZn2Co2(PO5)2,2.4667,-2.198246627310924,mp-2229646
KFeSO4F,3.925,-2.198035304500001,mp-1194644
KVSO6,1.8687,-2.198026088583333,mp-554334
BaGdFe4O7,1.657499999999999,-2.197967803461537,mp-1193020
Mn7Cr(PO4)12,0.0,-2.197917841635758,mp-778074
MnPtF6,1.8416,-2.197825053491379,mp-557668
Pr4(MoO2)9,0.0156,-2.197779397118281,mp-1221435
BaYFe4O7,1.5768,-2.19772502576923,mp-1048387
Li5V3(FeO5)2,0.007699999999999,-2.197700025833333,mp-755172
Fe14Cu7(PO4)18,0.0827,-2.197613766788931,mp-1226029
V2ZnO6,2.4226,-2.19748324111111,mp-540969
Li2FeSiCO7,0.0,-2.197448208055555,mp-772072
Fe3(OF2)2,1.2338,-2.197414601111111,mp-754278
Li5V5(CoO6)2,1.33,-2.1972857161111112,mp-755938
Li7Co(O2F)2,1.2277,-2.197197502738094,mp-849470
Pu(MoO4)2,0.3953,-2.197123069886363,mp-1210278
Mn4V4O13,1.5289,-2.197098050558292,mp-531419
V2FeO6,1.923,-2.196907958333336,mp-1312206
Na3LiWO5,3.8186,-2.196850389747126,mp-557309
Sr2MgCo2O5,1.4838,-2.196804392000001,mp-2217124
Ba4CaGd3(Co4O11)2,0.0,-2.196765745000001,mp-1229195
Na(WO3)9,0.0,-2.196742630712954,mp-756681
Li9Mn2AlO8,2.3726000000000003,-2.196633055418103,mp-770680
Fe5P3O13,1.4931,-2.196447655901361,mp-763767
BaMn3O6,0.0,-2.196269830379312,mp-30153
VFe2Ni3(PO4)6,0.0,-2.196162607996031,mp-764497
MgFe2S2(O4F)2,3.803099999999999,-2.196106457333333,mp-2232096
Li4Ti3Mn2Cu3O16,0.0,-2.196001852114121,mp-752500
P4W3O14,1.635,-2.195933610408161,mp-1041213
Li5MnO3F,1.8139999999999992,-2.19585499320977,mp-759969
CeCrS2O,0.0,-2.195788184999998,mp-551214
Ba6Y3Co3(Cu3O11)2,0.0,-2.19577363675,mp-1228789
Na3SmMn3(AsO5)3,1.3801,-2.195744226017241,mp-1201950
Fe4O3F5,1.7259,-2.195661587083334,mp-753020
Cs3Li2Ga(MoO4)4,4.0491,-2.195581127043546,mp-573196
V4CrNiO12,0.0,-2.1955461250000012,mp-1101260
NaSrSmFeO6,0.0,-2.195486132637931,mp-1517805
Li32Mn11Cr5O48,1.1768,-2.195408482644875,mp-1177917
SrVCuHO5,0.5335000000000001,-2.195368502916666,mp-1195252
Mg6FeCO8,2.5572,-2.1952937490625,mp-1032137
Nd4MnSe6O,0.0,-2.195277286832793,mp-17340
Li3FeSiCO7,2.6143,-2.195243866923076,mp-770822
Tl2Mo2P2O11,2.296699999999999,-2.195239186232494,mp-1217035
SrMgCrO3,0.0,-2.195136605,mp-2225366
Ba2Cr3O8,0.0,-2.19507139,mp-1048124
KCaLaFeO6,0.0,-2.194949242224999,mp-1521616
Na2V2CoH4(OF)6,2.1708,-2.194911569893268,mp-1204582
Ba2NdCoCu2O7,0.0,-2.194819214038461,mp-1214600
VClO,1.674,-2.194772937500001,mp-23061
Li4MnSb(WO6)2,0.28,-2.194766270063218,mp-755688
ZnNiMoP2O9,1.436499999999999,-2.194736298520408,mp-1043107
Li4V2Cr3Sb3O16,0.6353,-2.19466843297619,mp-774622
Li4V3Cr2Fe3O16,1.0431,-2.194666305119047,mp-778220
MgV2Zn2O7,1.273299999999999,-2.194247685,mp-2218175
Li6MnO4F,1.2866,-2.194183801702587,mp-767576
BaNd(CoO3)2,0.0,-2.19416080075,mp-555635
SrMnInWO6,0.0,-2.19414132845977,mp-1522574
KSrNdFeO6,0.0,-2.194048922475,mp-1516478
MnCr2Ni3(PO4)6,0.0,-2.194043427660782,mp-777895
KVMoO6,2.9033,-2.194033659972222,mp-1211463
Li2Mn(SO4)2,3.5794,-2.193901709969054,mp-1193172
Fe25Si11O48,0.043599999999999,-2.1938314875,mp-764962
BaMgMn4O8,0.7542999999999991,-2.193819269051725,mp-2226546
Ca3Fe2(SbO6)2,0.0,-2.193806067368421,mp-1368120
SrLa(CoO3)2,0.0,-2.1937484525,mp-1218224
Na3(WO3)10,0.0,-2.193637999165997,mp-36529
BaSm(CoO3)2,0.0,-2.193289359499999,mp-1205695
BaErFe4O7,0.0,-2.193267218076923,mp-1104205
Sr12Co10O27,0.1976,-2.193160198469389,mp-698692
Cr2XeF10,1.2797,-2.193137961538462,mp-1200076
CrNiAg2F7,1.657399999999999,-2.192959935757575,mp-1213740
FeAgP2O7,1.8448,-2.192921456904761,mp-1202376
LiV2FeO6,0.9647999999999992,-2.192838418833334,mp-755983
Na(WO3)10,0.0,-2.19270253296047,mp-757607
Sr2Ca2FeCo3O10,0.0,-2.192679666666667,mp-1099665
Mn2Ni3Sb(PO4)6,0.0,-2.192678847325533,mp-776222
BaTmFe4O7,0.0,-2.192663219615385,mp-1103591
KLi(WO3)6,0.0,-2.19243271963782,mp-775511
MgV3NiO8,0.0,-2.192178055,mp-2224276
Ba3V2(SeO4)4,2.6965,-2.192149724575,mp-1200758
MgCrAsO5,1.609,-2.192062404374999,mp-1340889
BaMnInWO6,0.0,-2.191957331459769,mp-1523111
Na2(WO3)17,0.0,-2.191943910110839,mp-530781
V16FeO41,0.5244,-2.1919237775,mp-867706
VCrMoO7,2.2432,-2.1917928620000002,mp-19015
Li3CrO3,1.1223,-2.191607945714286,mp-770755
TlV3O8,2.002999999999999,-2.191476307361112,mp-18996
MgCu2W2(O3F2)2,0.675199999999999,-2.191449979666666,mp-2232212
Li6Cr5CuO12,0.415599999999999,-2.191443976666667,mp-765577
CsV(SO4)2,0.0,-2.1913238158045982,mp-559316
BaPr(CoO3)2,0.0,-2.191215208166666,mp-2222270
NaEuSbWO6,0.5583,-2.191172520637931,mp-1521999
Sr8Mn6Cu4S4O15,0.0,-2.191123311150978,mp-1218690
Li2V(SO4)2,3.567199999999999,-2.191077170705128,mp-759347
Na5(WO3)14,0.0,-2.191068709129451,mp-757695
Li4FeO3F,2.8051,-2.190993407037038,mp-780154
Li(WO3)2,0.0,-2.19092567537037,mp-756203
Na(WO3)3,0.0,-2.190923142798406,mp-1221403
WO3,1.358499999999999,-2.190860606562499,mp-2383161
LaMgFeNiO6,0.0,-2.190779936,mp-1043870
EuAg(WO4)2,0.0,-2.190667383055556,mp-1213000
Sr2YCu2NiO7,0.0,-2.190567669230769,mp-1042702
CrSiO4,0.734,-2.190525891666666,mp-1143241
Li3Ni3(PO4)4,0.026,-2.190491702060439,mp-26525
K3Na(MoO4)2,4.4704,-2.190331413794951,mp-557669
Li3V3(FeO5)2,1.4302,-2.190287529444444,mp-753182
EuMoO5,0.0,-2.190111534285715,mp-1212798
Ni2P3O10,0.0,-2.190082507928571,mp-25269
Co2PO4F,2.9575,-2.190040609955358,mp-1213796
LiMnPCO7,1.0531,-2.190026883264293,mp-756529
Li5Mn5O9F,0.7369000000000001,-2.190026427816092,mp-753735
Li4VTe(WO6)2,1.678099999999999,-2.1899885537499992,mp-775927
CaP4W3O14,1.381999999999999,-2.189825225844153,mp-1048126
Sr4CaYCo2(Cu2O7)2,0.0,-2.189794717692308,mp-1173231
MgCr4O6,0.0,-2.189782561363635,mp-1042710
Ga2WO6,2.8214,-2.189594627222222,mp-770692
Mn2CrO4,0.638,-2.189480853694581,mp-34139
AlCo3(SiO4)3,0.4352,-2.189463841578946,mp-1163946
LuZn4FeO7,0.7772000000000001,-2.189462340512821,mp-1222463
KCaGdFeO6,0.0,-2.189446868725,mp-1521656
Li2Mn3VO8,1.0272,-2.18942661110427,mp-1177922
La5Sm3Ni7AgO20,0.0,-2.189416497060185,mp-1076656
Na6V2P(CO4)4,0.0,-2.189372201824784,mp-778480
Li2Mn2P4H6O17,0.9678,-2.18936479285807,mp-780897
Li32Mn13Cr3O48,1.2401,-2.189361775830939,mp-777884
Fe7(PO4)8,0.0,-2.189341627598784,mp-1178257
Li3Cr3FeO8,0.770799999999999,-2.189332134,mp-755458
LiFe7(O3F5)2,1.5401999999999991,-2.189282106805555,mp-777195
Li5Mn2CrO8,0.6608,-2.189281721408046,mp-1222520
Li5TiMn9O20,0.0,-2.189138509182266,mp-778500
LiMn6PO12,1.0005,-2.189099651528122,mp-26065
Li4V3Fe3(SnO8)2,1.0099,-2.189015332619048,mp-776806
K5AlCr4(MoO4)10,2.756,-2.188899904604166,mp-1224806
Li3V2(CO5)2,0.1773,-2.188867332205883,mp-758380
Mg3V2(BiO6)2,0.0,-2.188821659210527,mp-1377991
KNa7V6(MoO12)2,0.0,-2.188791768172628,mp-1076351
KVPbO4,3.3834,-2.188754628178571,mp-541508
MgAlTe(WO4)2,1.4968,-2.188726798589743,mp-2228209
CaMn5O7,0.0,-2.188709907665782,mp-1046067
Rb3Na(MoO4)2,4.5827,-2.188677270991379,mp-1104938
MgBi(WO4)2,2.3339,-2.188413657916665,mp-2218109
Na5(WO3)13,0.0,-2.188296217928008,mp-760087
EuTl(MoO4)2,0.0,-2.188151242152779,mp-602551
Sc2CrReO6,0.0,-2.18807847825,mp-1205485
Mg7VFeMo15O56,2.0652,-2.1879912938125,mp-695554
Li2Ni5(PO4)4,3.6441,-2.187937985749559,mp-26921
Rb4MgV4O10,0.758599999999999,-2.187916578684211,mp-2230736
TiMn3O8,1.372099999999999,-2.187828246427204,mp-755307
LaFeSbO6,0.0,-2.187706751111111,mp-1043995
LiCr2O3,1.6572,-2.1876209163888882,mp-1272833
Na3MnBAsO7,1.5191,-2.187534427787356,mp-770765
Li4V3Sn3(SbO8)2,0.9334,-2.18747070029762,mp-776849
Ba2YTlW2O7,0.0,-2.187452943717948,mp-1046386
Sr5Ca3Fe2(Co3O10)2,0.0,-2.187436062916667,mp-1099798
Li4MnSn(WO6)2,1.1143,-2.187274011813217,mp-775961
Fe2P4Pb3O17,0.133,-2.1872542548489022,mp-1225206
Li2Cr2FeSbO8,1.891,-2.187217519047619,mp-1222836
Mg4Cr5(TeO6)3,0.255199999999999,-2.187107300166665,mp-1046557
LiFeSO4F,1.3691,-2.187057849166667,mp-943492
LiMgIn(MoO4)3,3.2154,-2.187027366944445,mp-558897
ZnNi3(B2O5)2,4.0858,-2.186826588148147,mp-1215679
LiMn2(PO5)2,0.051199999999999,-2.186798764565408,mp-766128
KNi4(PO4)3,3.5552,-2.186760459058926,mp-21957
Na4(WO3)9,0.0,-2.18668593951293,mp-766216
FePO4F,0.0,-2.186657573520409,mp-25382
Li4Ti2Co3Sb3O16,0.0,-2.186654531071429,mp-774789
Fe3Cu2Sb(PO4)6,0.0,-2.186573832440476,mp-776055
Cr3Ni(PO4)6,0.0,-2.186557868760504,mp-774406
SrZnSnWO6,2.9475,-2.1864815515,mp-1517877
Ba3NiRu2O9,0.0,-2.186366352333339,mp-22363
Li4Ti2Mn4(FeO6)3,0.0,-2.186201501829811,mp-774494
Sr2YTlW2O7,0.0,-2.185972802179487,mp-1045991
MnV2TeO7,0.0,-2.185949551781608,mp-559026
Ni(PO3)4,0.0,-2.185853909915965,mp-26686
Na2CoAgF6,1.4033,-2.185827259442528,mp-1111334
UMn(MoO4)4,0.8658,-2.185777817633228,mp-1208064
Li4Cr3NiO8,0.3216,-2.185652997083333,mp-755661
Li5Cr3FeO8,2.405399999999999,-2.185640795392157,mp-759913
Mg2Fe2O5,0.1531,-2.185614972222221,mp-685434
Na7(WO3)13,0.0,-2.18553367329924,mp-761117
Sr4Mn5O15,0.0,-2.185519024777299,mp-1218691
MgCrO4,2.3991,-2.185497340833333,mp-19120
KMnPH2O5,2.838799999999999,-2.185186568482389,mp-23973
SrV4(Bi3O10)2,2.891999999999999,-2.185147325483872,mp-553895
Sr4Fe6O13,0.057999999999999,-2.185085911521739,mp-505440
Li8MnNi7(PO4)12,0.0,-2.184913232372526,mp-777316
Sr3Co2TeO9,0.0,-2.184869441444445,mp-1218444
Ca2Co2O5,0.0,-2.184804022499999,mp-1195269
BaMgCr4O8,0.0,-2.1847883575,mp-1044283
Li10Mn3Cr5O16,0.176799999999999,-2.184654287562542,mp-760073
Li4V3Fe2Sn3O16,1.453,-2.184517941726191,mp-779746
Na5(W7O22)2,0.0,-2.184480114871374,mp-29697
Li4Ti2Ni3Sb3O16,0.0,-2.184462313035714,mp-850289
Rb4V2S4O19,2.0238,-2.184415428620689,mp-1198857
Mn5Ni(BO5)2,0.1013,-2.18435702266603,mp-1221544
Ba2PrCoCu2O7,0.0,-2.184156434358974,mp-1214590
Mo2PO8,0.0,-2.18411558974026,mp-25922
Li24Mn11CrO36,1.2493,-2.184056704267242,mp-770492
NaCaTbFeO6,0.0,-2.184043235804597,mp-1521864
Ba4Mn2Ag2As4O17,0.0,-2.183985031179151,mp-1228293
Ba2Nd2MgCo4O11,0.0,-2.18393915275,mp-2230098
NaNbSnWO6,0.0,-2.183934782637931,mp-1519843
Li4Ti4Co5O18,0.0,-2.183861749892474,mp-774513
LiVAsO5,1.6489,-2.1838366897916672,mp-17387
Li5Ni9(P2O7)8,0.0039,-2.183784074545958,mp-27049
NaCaYFeO6,0.0,-2.18364969913793,mp-1521624
NdCrS2O,0.0,-2.183485904499999,mp-546561
LiNi2OF3,2.931,-2.183381122619047,mp-765582
MgCoNiP2O9,0.0,-2.183140277448979,mp-1043158
CaLa(CoO3)2,0.0,-2.1831188215,mp-1227082
Fe3Cu2Sn(PO4)6,0.0,-2.182999239523809,mp-775221
ZnFePO5,1.922,-2.182978319720983,mp-1207884
NiSb(PO4)2,0.0,-2.182853807440477,mp-754291
LiMn7(O3F)3,0.0981,-2.182817185442528,mp-759358
Li10Ti2Mn3Ni3O16,0.428799999999999,-2.182809819523326,mp-777402
MgV2CuO6,0.186399999999999,-2.1827921695,mp-2240255
V4Fe2O13,2.3115,-2.182783057105263,mp-558525
Li8Co(O2F)2,2.4905,-2.182718196277777,mp-759827
Li2NbFe3O8,1.8022,-2.182662671190475,mp-775011
Sr7CaFe7CoO24,0.0,-2.182616462499999,mp-1076858
KV(SO4)2,2.139199999999999,-2.182600994770833,mp-545469
Fe3(OF3)2,0.1785,-2.182594620454545,mp-777811
Li4VAs2O9,2.9741,-2.1825237019270842,mp-1177164
MnGaH4O2F5,3.0199,-2.182507244648541,mp-510638
NbNi5(PO4)6,0.0,-2.182493227162697,mp-772023
Li3FeO2F,2.812299999999999,-2.182421496785714,mp-761233
Y2Cu3(WO4)6,0.269299999999999,-2.1823504298571432,mp-1330191
Li2VFeO5,2.0048,-2.182334191851852,mp-753930
LiFeF6,1.2569,-2.182294252916662,mp-1222351
Li4CoNi5(PO4)6,0.0,-2.182255317279761,mp-774312
Na7(WO3)9,1.0388,-2.182249405922213,mp-763805
CrPO5,1.7458,-2.182157174948979,mp-756450
LiFeCO3F2,2.1908,-2.181964331354166,mp-766495
Sr6Co4Bi2O15,0.0,-2.1819117526851852,mp-704097
VGeO4,1.004899999999999,-2.181868655,mp-756717
MgZn2Co2(SiO5)2,1.0573,-2.181834199705882,mp-2229044
CaVCuHO5,0.5316000000000001,-2.181649259027778,mp-1213971
UNi(OF2)3,0.0,-2.18158635090909,mp-1191770
K4Mn(MoO4)3,3.0225,-2.181457497596552,mp-558825
Ba5Fe5O14,0.0,-2.181284587708333,mp-542530
BaSr(FeO3)2,0.0,-2.181284272,mp-1227735
K2Na6V5Mo3O20,0.0,-2.181278452577106,mp-1076545
V17Fe7(PbO11)4,0.1913,-2.181269155694443,mp-1217554
GdFe2BiO6,1.317599999999999,-2.181158674000001,mp-1224629
Li8Cr3SbO12,0.8148000000000001,-2.18113268611111,mp-1176846
Li15Mn15SiO32,0.2196,-2.181127022523263,mp-867892
CaP2(WO4)2,0.6354999999999991,-2.181061523983516,mp-1041040
Y2Ni2O7,0.0,-2.181000003636363,mp-1346622
Zn3P2Pb3WO14,3.526399999999999,-2.180976206925466,mp-1190321
TbV(SeO4)2,2.0322,-2.18090161094618,mp-1197743
V2CdO6,2.2611,-2.180888695555554,mp-540685
NaIn(WO4)2,3.4845,-2.180769027337163,mp-20678
Co3(P2O7)2,0.0361,-2.180758221836734,mp-27010
NaCr2O4,0.0,-2.180644371982758,mp-759090
Ba2YCo3O7,0.0,-2.180642969615384,mp-1048316
Na(WO3)2,0.0,-2.18062019848659,mp-1221440
SrCa7FeCo7O20,0.0,-2.180569837291666,mp-1099847
Sr8Fe7CoO24,0.0,-2.18056368325,mp-1077660
MnVO4,1.189099999999999,-2.180544084655173,mp-1280622
Cs3Mo4P3O16,0.0879,-2.180528770880543,mp-557524
CaMo2O5,0.8702000000000001,-2.180512885624999,mp-1045279
LaP3H3WO9,3.3974,-2.180419757510504,mp-1212220
Cr2FeO4,0.0,-2.180387279285714,mp-1104680