formula,bg,formation_energy,mp-id
MnFe2Ag2(PO4)3,0.243999999999999,-2.115866138009647,mp-1210836
Ca4Fe9O17,0.1614,-2.115603673499999,mp-28009
SrDyCr4O12,0.0,-2.115455433425925,mp-1519508
Na3FeBAsO7,2.0654,-2.115342865061891,mp-771393
Li3Ti(FeO2)4,0.8568000000000001,-2.115317930208333,mp-755734
V2NiO6,2.1245,-2.115222795000001,mp-28162
Cs4Fe(MoO4)3,3.0126,-2.115080500931035,mp-1226269
Li10Ti2Fe3Co3O16,1.5034,-2.115063275588235,mp-778830
SrMnV2(AgO4)2,1.366,-2.115032828661741,mp-541777
NaMgFe(SO4)3,1.87,-2.114986096604406,mp-1173576
Mn2GeO4,1.0831,-2.114749792623151,mp-20223
LaZnFeBiO6,0.0,-2.114657572,mp-1044058
VPbO3,1.3715,-2.114616589,mp-20032
KV2(PO5)3,0.0,-2.114601869698979,mp-1204086
CaV2(CuO4)2,0.2166,-2.114510688653846,mp-1041444
Li2NiGe3O8,3.291899999999999,-2.114492098869047,mp-21650
Na3SiNiCO7,0.0,-2.114349157241378,mp-771030
CsMnH4(OF2)2,2.1071,-2.114343025007184,mp-758775
V4Fe2HO12,1.3134,-2.114177282434211,mp-1217004
Si(NiO2)2,0.0,-2.114110612142857,mp-19072
Ti3Fe3(BiO3)7,1.6491999999999991,-2.113902347205883,mp-1217638
Ca7Mg(Co2O5)4,0.005399999999999,-2.113814816458333,mp-1076526
UTl2Cr2O10,1.997199999999999,-2.113641937861111,mp-641100
LiNbWO7,0.1581,-2.113617273833333,mp-1222567
LaMgCrNiO6,0.0,-2.113614515500001,mp-1048931
FeOF,0.0,-2.1133172625,mp-1178215
Ni3P3O11,0.043299999999999,-2.113312895672268,mp-585392
Li5Cr(CO3)4,2.0518,-2.113228977007576,mp-1177153
SrTiFe3(BiO4)3,2.0819,-2.113115530666667,mp-1217793
Li6TiFe5O12,1.5724,-2.113099674722222,mp-861187
Sr6Ca2Fe5(CoO8)3,0.0,-2.11307442825,mp-1076457
Mn3Co(PO4)6,0.0,-2.113040036225007,mp-757859
Mg3Fe4(WO4)6,1.9052,-2.113012711486486,mp-1042815
Ni3Sn(PO4)4,0.0,-2.112861002232142,mp-774257
Cs2W3SeO12,3.2939,-2.112789730925227,mp-18371
KNaV4H4O11,2.4342,-2.112719051601396,mp-1195575
Fe6O5F7,1.2309,-2.112249932777777,mp-1178314
Li2Mn3SbO8,1.0917,-2.11220821003284,mp-763186
V4CoNiO12,2.153899999999999,-2.112175354444446,mp-755989
CaMn7O8,0.513899999999999,-2.112171955969827,mp-753132
Fe3Co2Cu(PO4)6,0.163999999999999,-2.112161059662698,mp-757692
Fe3Co2Ni(PO4)6,0.0,-2.112044560218254,mp-758190
Na6V2C4SO16,2.7061,-2.111933511923306,mp-850796
Li11Mn6O16,0.476,-2.111922040431905,mp-779771
NaV3(PbO3)4,2.8762,-2.111837853568964,mp-1221016
Li4V2CrTeO12,0.8199000000000001,-2.111716636499999,mp-774827
AlAg(WO4)2,1.5659,-2.111626893888888,mp-1047674
Sr2Ca6Co7CuO20,0.0,-2.111510172499999,mp-1076470
LiSbWO6,2.3233,-2.111403034259259,mp-17290
Ni3(PO4)2,3.7408,-2.111297404560441,mp-22697
NdCoSbPbO6,1.2922,-2.11128433225,mp-1220261
Li13Mn3(SbO8)2,1.182899999999999,-2.11120616285666,mp-760049
MgCoO2,1.6075,-2.11113065625,mp-1445397
Sr8Co6Cl4O15,0.0,-2.111114522272726,mp-1218637
VP2H4O9,2.6685,-2.111109339642857,mp-504754
LiVNiO4,2.6681,-2.111040339761905,mp-756943
Rb2U2Cr2O15F2,1.4068,-2.110998317826086,mp-1196718
NaCoBO3,1.4057,-2.110921161340996,mp-1101692
Fe3P3O13,0.027199999999999,-2.110856143890978,mp-1356526
LaMn4(BiO4)3,1.346099999999999,-2.110835781836208,mp-1222881
V3Bi(PbO4)3,2.6886,-2.110750352631578,mp-1216962
K10CoMo7O27,2.401,-2.110428491055555,mp-1212168
BaNaEuMnO6,0.0,-2.110339325431036,mp-1519543
Rb2W3SeO12,3.0758,-2.110305304019096,mp-1209461
SrNdCr4O12,0.0,-2.110259414861111,mp-1521039
Li3MnAsCO7,2.5495,-2.110132246571619,mp-771034
MgCr2(SbO4)2,1.8748,-2.110107039615383,mp-2218283
Li21Mo11O32,0.012699999999999,-2.11004925421875,mp-530102
CrGeSbO6,1.7907000000000002,-2.110030223055556,mp-1226344
Li5Mn6O12,1.2066,-2.110002701054474,mp-1638896
Li4CrFe(WO6)2,0.7280999999999991,-2.110001612666666,mp-754685
Li2Ti(CoO3)2,0.9104,-2.109930225454545,mp-753110
Li2Mn3O4F3,1.070199999999999,-2.109911734204981,mp-767162
Li4Mn3SbO8,0.78,-2.109833880757902,mp-1290409
Li10Ti2Fe3Ni3O16,1.5521999999999991,-2.1096567491176472,mp-774319
TlNiF3,3.4347,-2.109648550000003,mp-998761
Ba3NiIrRuO9,0.0,-2.109620580666667,mp-1228389
Li5Mn5(SnO6)2,0.0986,-2.109538362346743,mp-771140
InNiAg2F7,1.4768,-2.109511752727272,mp-1212006
FeB2P2(HO4)3,2.3365,-2.109502606568453,mp-1202257
MgTeWO6,0.0,-2.109451957962962,mp-2223111
Ba2LiSmCoCu2O7,0.0,-2.109309978095238,mp-1235043
Rb2Mo3O10,3.3978,-2.109251237,mp-541075
Li3Mn5Cr2O12,0.053599999999999,-2.108988809075235,mp-850947
MgVFeMo3O14,2.374,-2.1089558975,mp-705896
Fe2P4PbO14,0.0,-2.108867022789116,mp-22806
Li6Fe2P(CO4)4,1.3255,-2.108806774298028,mp-771083
Na6Co(SO4)4,3.1435,-2.108791234750958,mp-1210308
Na3CoBSO7,2.122099999999999,-2.108678455638815,mp-770831
Fe3CuNi2(PO4)6,0.0,-2.10848392827381,mp-767442
CsCrO3F,2.8472,-2.108343284109196,mp-1225991
FeP4O13,0.1028,-2.108310276031746,mp-1101552
MgMn2V2(BiO5)2,1.2545,-2.108241384756593,mp-2228987
Sr2Mg2V3O14,0.763799999999999,-2.108196404404762,mp-734298
Ba2Mg(CoO3)2,1.049799999999999,-2.108117575909089,mp-2227473
BaSrV4(CuO4)4,0.3759,-2.108016911538461,mp-1227667
CaFe8(OF)8,1.767599999999999,-2.107976666,mp-1233554
LiLa2Co2Sb2(PbO6)2,0.0,-2.107762310634921,mp-1235261
Mn5CrO8,0.3824,-2.107726380689656,mp-1221988
BaAlCr4O7,0.0,-2.107621928076923,mp-1048544
Li3Cr2NiO6,0.0,-2.107362721666666,mp-756842
Li5Ti2Co5O12,0.6289,-2.107153793055555,mp-763447
NaWO3,0.0,-2.106962365275861,mp-19328
Li8Mn3CrO12,0.9293,-2.10680795335249,mp-765119
NaFe(WO4)2,1.9174,-2.106803241364943,mp-22076
Sr2FeBiPbO6,0.0,-2.10671405,mp-1218840
CoSb3XeF23,0.9364999999999992,-2.106697256339285,mp-1195576
FeCo3(PO4)4,0.6416000000000001,-2.106664246190476,mp-771952
Li4Cr3Fe2Sn3O16,0.7382999999999991,-2.106622021011904,mp-775748
Yb2WN2O3,0.0,-2.106365081718749,mp-1215791
NaMn(GeO3)2,0.9476999999999992,-2.106359941431034,mp-1105628
Fe7Te(PO4)12,0.0,-2.106335450770307,mp-777003
VNi5(PO4)6,0.0,-2.106247837996032,mp-768351
BaCa(FeO2)4,0.0,-2.106169527857143,mp-18950
MgFe4O5F3,1.5643999999999991,-2.106026641153845,mp-2241182
Na3(W3O8)4,0.0,-2.105966799875275,mp-780475
V6H4O13,0.0,-2.105899947391306,mp-626561
LiMgCr3(SO4)6,2.4919,-2.105833382095238,mp-694995
Cs2MgMnV2(BrO3)2,0.9732,-2.10555126158867,mp-2226719
Li2CoGe3O8,2.765399999999999,-2.105510020654762,mp-769597
BaCr2O7,2.6252,-2.105444868875,mp-572430
Li3Co13O5F19,2.2427,-2.105384060000001,mp-761039
MgTe(WO4)3,2.0,-2.105263127156863,mp-2229902
Li3Ni8(OF3)4,0.0,-2.105173477407406,mp-759452
MgMn3O6,0.0,-2.105152610879311,mp-1016144
CaV4Co(CuO6)2,0.0,-2.104995042000001,mp-1227505
Ba2AlTlFe2O7,0.0,-2.104918593717948,mp-1256846
K3Mo2BrO7,3.089099999999999,-2.104648582057692,mp-557902
Na2Mo2O7,3.2222,-2.104612824341707,mp-19760
PrCoSbPbO6,1.2137,-2.104514894666667,mp-1219903
MgZn2(WO4)2,2.4623,-2.104454531153846,mp-2218543
Li4Mn3Cr2Sb3O16,0.074099999999999,-2.104411153825944,mp-761171
NaCr4O8,0.0,-2.10426133856764,mp-760012
CsRbMo3O10,3.3547,-2.104211814477012,mp-1213122
CaNdCr4O12,0.0,-2.104133538194444,mp-1518380
Na6Ni(SO4)4,4.1393,-2.104065848084291,mp-1210276
Zn3Si3(NiO6)2,0.009999999999999,-2.10398845425,mp-1257835
Cr(PO4)2,0.3393,-2.103953685389611,mp-697815
Ni3Sb(PO4)4,0.0209,-2.103946525773809,mp-775544
SrLa4Mn3(CuO9)2,0.0,-2.10382411656404,mp-1209217
CaFeAs2O7,2.085499999999999,-2.103659425909091,mp-1042824
Ca3Ni3(AsO4)4,3.0233,-2.103658805384616,mp-1047505
Na3Li(MoO4)2,4.306900000000001,-2.103628945176519,mp-1210927
K10MnMo7O27,2.963399999999999,-2.103373845120691,mp-554698
Li2MnSn3O8,1.158499999999999,-2.103372739852217,mp-566593
Co3P6WO24,0.1344,-2.103372088466385,mp-774637
EuCrHO5,0.0004,-2.10323979015625,mp-1204938
Li2Mn(CO3)2,3.4212,-2.103223128145246,mp-765973
V8Cd3CuO24,0.306999999999999,-2.103165018611113,mp-1216476
Li17(WO3)19,0.274099999999999,-2.103150165824373,mp-685395
Li3CoO2F,1.3669,-2.103135235357143,mp-760920
Li7Mn3(WO8)2,0.1005,-2.103113212754515,mp-771313
Mg2Mn9O13,0.0,-2.10298422609914,mp-1045866
LiMn3O5F,0.0,-2.102825717712643,mp-752468
LaCrFeO6,0.5343,-2.102783358888888,mp-1378182
Sr4Ca4Co7CuO20,0.0,-2.102748167916666,mp-1076175
Na3NiBSO7,2.7836,-2.102747079677276,mp-771143
Li2V4CuNiO12,0.0258,-2.102731415333334,mp-1177805
Li11Nb4(Ni3O8)3,1.239099999999999,-2.102686992638889,mp-769524
LaZnFeSbO6,1.167099999999999,-2.102518478500001,mp-1044018
Ca2FeBiO6,0.4893,-2.102233132,mp-1517097
ZnCoF6,0.6667999999999991,-2.1022106062500012,mp-1392030
CaNiO2,2.166899999999999,-2.102208429374998,mp-1046307
NaSbWO6,2.7990999999999993,-2.102163375153256,mp-1221059
TlVPO6,0.294699999999999,-2.102036179358467,mp-1198231
Li2Mn3SnO8,0.7118000000000001,-2.101952575747126,mp-772578
LiNiOF2,2.7106,-2.101807207166666,mp-761152
Li9Mn10O20,0.403299999999999,-2.101805974597701,mp-780186
Li6Mn5O12,0.7128000000000001,-2.10174843541979,mp-779719
Tl2CoF4,0.0,-2.1017444209523832,mp-1206757
SrV2P2(H4O7)2,2.3395,-2.101709144417989,mp-728720
Na2Li4Mn2C4SO16,3.9371,-2.101562545670828,mp-759748
Li6Mo2O7,1.113299999999999,-2.101306844333332,mp-690581
Ba2Mg2Mn3Tl2O10,0.0,-2.101232773708409,mp-1046498
V3ZnFe2O11,1.3171,-2.101035259117646,mp-1208114
Li3MnO3,1.5521,-2.100974783990147,mp-756408
Li9V12Te7O48,1.7585000000000002,-2.100947018903509,mp-780621
Cs7Mo8AsO30,2.9731,-2.100908170817091,mp-1204347
LiCo3(OF3)2,0.187199999999999,-2.100724536111111,mp-850982
Mg3MnNi3O8,0.0,-2.1006743348620702,mp-1222170
CsRb3(Mo3O10)2,3.3657,-2.100567248071839,mp-1226235
Li2Fe(SO4)2,4.2848,-2.100553473205127,mp-1193501
K2Na2Mo3WO12,0.5184000000000001,-2.100243410362931,mp-1076836
K2Mo3O10,3.3529,-2.100159429299999,mp-540788
CaV2P2(H4O7)2,2.3443,-2.100159357380952,mp-1182089
Li4V3(CO3)6,0.0,-2.100148351075269,mp-758087
CaMn2O5,0.0,-2.100146293857759,mp-1444407
Li4Mn3(SnO5)2,0.4567,-2.100086434059286,mp-758340
Sm4FeSe6O,1.8356,-2.100080539921876,mp-17271
MgMn2(WO4)2,1.5824999999999991,-2.100044560835543,mp-2226704
LiCo2(BO3)2,0.9083999999999992,-2.100014051060606,mp-763318
Li3V2Fe3O10,1.347999999999999,-2.099959742777778,mp-753077
MgMn5O9F,0.956199999999999,-2.099953802165948,mp-2232792
K2CoPCO7,0.9361,-2.099865582011904,mp-773463
Ba2CoRuO6,0.0,-2.099805032666666,mp-1228653
SmMnSe2ClO6,2.6978,-2.099794565692593,mp-559195
LiMnSbO4,2.014,-2.099758429109196,mp-755701
Na2VCSO7,3.061099999999999,-2.099568635646552,mp-771954
Na4V2C4SO16,1.581799999999999,-2.099363962148786,mp-850995
Rb2Cr2As2O9,2.2216,-2.0992869275,mp-622624
BaSr(FeO2)4,1.6339,-2.099132440357142,mp-1228024
CsCr(SO4)2,2.7386,-2.098931997887931,mp-1213684
Li4V3Sn3(TeO8)2,1.0821,-2.098813247916667,mp-1662514
Mg2V6Cu4O21,0.2722,-2.09863951030303,mp-1223612
Co5(P2O7)4,0.0,-2.098611341149825,mp-1178442
Na6Mn2C4SO16,3.8956,-2.09854036953924,mp-770525
PuMoBrO5,0.097499999999999,-2.098452422343749,mp-1195343
LiFe8F33,0.000599999999999,-2.098359441150793,mp-849574
Li5CrO4,1.5836,-2.098356880291667,mp-772671
Ge(WO3)6,0.0,-2.098331608466666,mp-694895
VSO5,1.5119999999999991,-2.098150829285713,mp-22092
Nb2Co4O9,0.0,-2.097964480333333,mp-31513
LiCr2(MoO4)3,0.7350000000000001,-2.097961947962964,mp-1211202
Rb3LiZn2(MoO4)4,4.0274,-2.097951424647436,mp-697222
Li4Mo5O17,3.070599999999999,-2.097885207820513,mp-541578
V2Cr3Sb3O16,1.4371,-2.097748622083335,mp-772143
Ca2MnAs2(H2O5)2,2.276,-2.097711290417423,mp-23716
KNa7V6Cr2O24,0.0,-2.097614841422628,mp-1099932
Na9Fe(MoO4)6,2.9776,-2.097595926935345,mp-1196505
Mn2VHO5,1.541799999999999,-2.09748632954023,mp-1199415
Sr3Ca5Fe5(CoO8)3,0.0,-2.097182527,mp-1076802
Li3Ge3(MoO6)2,0.0,-2.096992368250001,mp-1013795
K3Rb5(Mo3O10)4,3.3587,-2.096963062487499,mp-1224465
Li3PWCO7,0.9578999999999992,-2.096901154972527,mp-25404
CaW2O5,0.0,-2.0968822725,mp-1394549
PrMn2O6,0.0,-2.096833773058749,mp-1366800
CaPr(NiO3)2,0.0,-2.096811694166668,mp-1044733
AgMo3(PO7)2,1.9584,-2.096760121047618,mp-17427
KVFeP2H5O11,1.781,-2.096702027513606,mp-1224302
CaMnFeBiO6,0.7048999999999991,-2.096556755793103,mp-1227209
Na2Ti3Mn(Si2O11)2,0.8174,-2.096552815646551,mp-1238298
KFePCO7,0.0,-2.096512411535714,mp-769579
Li4V3Cr3(CuO8)2,0.0,-2.096511060476191,mp-778230
Ba2Ca3Tl2(FeO3)4,0.0,-2.0964328320289862,mp-1841520
SrFeSnWO6,0.0,-2.096364521499999,mp-1520229
La2Te6WO18,2.6468,-2.096294097592592,mp-1223414
KAsW2O9,2.3938,-2.095903530365385,mp-1198481
Li3Mn4O8,0.76,-2.095760793114943,mp-753674
BaBi2(MoO4)4,3.0997,-2.095644275217392,mp-642792
K2MnV14O40,0.0,-2.095583089340896,mp-1195076
MgAsWO5,2.0233,-2.095575829375,mp-1047240
Na2CoPCO7,0.8442000000000001,-2.095554418533456,mp-770988
Sr16La3Co11(Cu4O23)2,0.0,-2.095431054464286,mp-1100841
LiCoSO4F,0.0,-2.095388746041666,mp-942701
Li2Mn2SnO6,1.295799999999999,-2.095242284320794,mp-754419
Li3Cr(FeO3)2,1.717299999999999,-2.094991399166666,mp-756692
Li8CoO5F,1.7086,-2.094970036444444,mp-1176847
Li4V3Sb5O16,1.2744,-2.0949589540476192,mp-773139
CsLiCrO4,3.0669,-2.0949266768555,mp-561778
CsCuNiF6,0.0,-2.094899824166641,mp-1228931
ZrMnH10O5F6,4.3982,-2.094880482627437,mp-729543
SrSmCr4O12,0.0,-2.094816370277777,mp-1521525
LaZn(FeO3)2,0.0,-2.0947431885,mp-1043921
Li4Mn3O8,1.7479,-2.094726110475096,mp-779008
RbV3Cd3O11,3.009099999999999,-2.094711863194443,mp-558909
K4Mg(MoO4)2,1.463,-2.094703618933333,mp-2232235
Li6CrNiP2(CO7)2,1.860899999999999,-2.09469863151099,mp-757267
Li7FeO5F,0.2303,-2.094607326130953,mp-759661
LiGa(MoO4)2,3.5664,-2.094604356319445,mp-557676
Ca2NiIrO6,0.0,-2.094400157,mp-1047142
Ca2W2O5,0.0,-2.094381511111111,mp-1341052
Li2VP4(HO2)8,2.9231,-2.094224572104455,mp-778891
Li4Mn3Sn3(SbO8)2,0.0,-2.094195003647372,mp-1177363
Sr6Y2Co3(Cu2O7)3,0.0,-2.094117923947369,mp-1845875
K4Co(MoO4)3,2.2285,-2.094058563200001,mp-1211822
Li2CrAsCO7,3.1376,-2.094026570347222,mp-773176
Li10Mn3Cr3(FeO8)2,1.048699999999999,-2.094024031091954,mp-777063
CaV2(BiO5)2,0.5859000000000001,-2.093910090166666,mp-1325619
Cr2(MoO4)3,2.3556,-2.09364696382353,mp-647862
Ba2YMgNi3O8,0.0,-2.093602715,mp-2232202
Li2Fe2(WO4)3,3.4384,-2.093523409429824,mp-1211052
V3CrO10,0.0,-2.093440165714287,mp-755604
SrCr2O7,2.5156,-2.093333399125001,mp-557093
Li4CoO3F,1.9598,-2.093306115925926,mp-755064
LiCr(CO3)2,3.1692,-2.093175777333333,mp-770839
Li2Fe5B3O13,1.577099999999999,-2.093130383442029,mp-772565
MgFe12(OF)12,1.125,-2.093080020135134,mp-2220201
ThWO3,0.0,-2.093059474999999,mp-1187448
BaLuCo4O7,0.8084,-2.093047877243591,mp-1200479
BaTiFe3(BiO4)3,2.064299999999999,-2.092950813166666,mp-1227513
Li11Ti4Fe9O32,0.0,-2.092889603928572,mp-771347
Ba2CoSe2(ClO3)2,1.448,-2.092805625360578,mp-562762
NpMoO3,0.0,-2.092779536750001,mp-1186334
Li4V3Co3(SbO8)2,0.3469,-2.092747947619048,mp-765171
Na4MoS3O14,2.7865,-2.092612203432601,mp-559561
Ni4P7O24,0.0,-2.092600730214286,mp-26384
MgMn4ZnO8,0.0,-2.092587902623153,mp-2228466
Li3Cr(CO3)3,2.2292,-2.0924981225,mp-765400
ZnFeSiO5,0.0,-2.092396290625001,mp-1255391
VCo3(PO4)4,0.0,-2.092325381190476,mp-757057
Sr4La(CoO3)5,0.0,-2.0922221828,mp-1218687
MgFe(SiO2)2,1.7073,-2.0922146075,mp-1222202
Sb3(WO3)20,0.0,-2.092155122048193,mp-765569
ZrMn2H12(O3F4)2,3.6889,-2.091929311926278,mp-1205027
CrP2Pb5O13,2.1886,-2.091851693061223,mp-554745
LiFePH2O5,3.5129,-2.091851440547619,mp-780206
NaNiBO3,3.302899999999999,-2.091828397590995,mp-755942
MnV2(PbO4)2,1.646,-2.091753955610079,mp-818591
CaMoO2,0.0,-2.09146664625,mp-1214054
Li9V12Fe7O48,0.0,-2.091375859736843,mp-850893
KV2AgO6,2.1316,-2.091293911891667,mp-1211316
Fe4P3(HO5)3,1.452799999999999,-2.091288250307142,mp-24470
RbCrO3F,2.897,-2.091242206666666,mp-1219634
Sr2FeCoO6,0.0,-2.091232943,mp-1094054
Li5Cr2Fe3O10,1.0861,-2.091160693833333,mp-765750
MgTeMoO6,3.1735,-2.091089785185185,mp-1210722
MnPHO3,4.2461,-2.090856610012315,mp-1198455
Li4Mn3V3(NiO8)2,1.037799999999999,-2.09068015954023,mp-774572
RbLiCrO4,2.9916,-2.090644955833333,mp-18741
LiVCo3(PO4)6,0.0,-2.090617244891156,mp-768928
Li3V2(CO3)4,0.4979,-2.090589887142857,mp-1644899
LiV2CoO6,0.8946000000000001,-2.090533908333333,mp-761801
KLaNiSbO6,0.0,-2.090490447225,mp-1517441
Li2CoGeO4,2.6944,-2.090388155833333,mp-756582
Fe3P2(HO5)2,1.7308,-2.090372608928571,mp-1199228
VO,0.9700999999999992,-2.09028776,mp-19184
V4CuO11,0.3697,-2.0902311809375,mp-1207908
SrCrHO2,0.5556000000000001,-2.09021523425,mp-1218324
Li3Cr3NiO8,0.369399999999999,-2.090166976,mp-756615
Li4MnSb2WO12,1.1757,-2.090114732313218,mp-752920
CoAg(PO3)3,0.011699999999999,-2.090044187988945,mp-1213893
MnFeH4O2F5,1.9689,-2.089966180610081,mp-504945
Li4Ti3Co5O16,0.3752,-2.089896214047619,mp-756331
V6Zn3(FeO6)4,1.390399999999999,-2.0898772435135142,mp-542803
BaYMgCuNiO5,0.0,-2.089842912,mp-2226976
V4FeCuO12,0.392399999999999,-2.089834510555556,mp-1101238
Ca4Te3W5O18,0.8018999999999991,-2.0898344888333322,mp-1046672
Ba8(CoO3)7,0.158499999999999,-2.089558520833334,mp-30201
MgCrBiO5,0.7631999999999991,-2.08948384375,mp-1044166
BaInFeWO6,0.0,-2.089323707666666,mp-1522067
MnVPbO5,1.178799999999999,-2.089242353178878,mp-818571
Li2CrO2,1.014,-2.0891893708333322,mp-1178001
Ba(FeO2)2,1.7417999999999991,-2.089097835714285,mp-19154
Mg3CoB8P8(H8O13)4,3.5011,-2.089019276206502,mp-1223058
Rb2LiFe(MoO4)3,2.6718,-2.088642553070176,mp-1198160
Li3Fe10O7F9,1.9136,-2.088504366551723,mp-761203
MgZr3Tl10(MoO4)12,3.032,-2.088383034707208,mp-726071
Na2MnCSO7,3.3996,-2.088369901515805,mp-771824
VCo2BO5,1.5536,-2.088319086851852,mp-1207853
Li2CrO4,2.9665,-2.088274171904762,mp-17159
Li2TeWO6,3.640099999999999,-2.088061287333333,mp-1196881
Mn5P4(H3O10)2,0.2578,-2.088059298592188,mp-1195975
LiMn5O5F,0.0,-2.087996429415709,mp-760368
MnPH2O5,2.4307,-2.087878301397099,mp-23895
Li5Mn7O12,0.0,-2.087851223007663,mp-754393
V2(SO4)3,1.9278,-2.087847507352941,mp-770389
V4Ge13O36,1.0084,-2.08783959726415,mp-1100933
Li4V3Co2Sb3O16,0.059099999999999,-2.087832082976191,mp-770636
Ba2MgMn3Tl2O10,0.0,-2.087776776414432,mp-2228435
Fe2(PO4)3,0.0,-2.087407932878151,mp-26582
Li4NbFe(TeO6)2,1.8764,-2.087391199833332,mp-774933
Li3Fe(MoO4)3,2.304,-2.087210471973685,mp-1222986
Rb2CoP4(HO2)8,3.483,-2.086862407211982,mp-975505
Li2Cr2(SO4)3,2.4379,-2.086830598377193,mp-770410
PrMg(CoO3)2,0.0,-2.086676601666667,mp-1044571
CoP2H2O7,0.272599999999999,-2.08650815483631,mp-1201746
K2NiPCO7,0.0,-2.086495191595238,mp-773431
SmFe3(BO3)4,1.375799999999999,-2.086454915583334,mp-1190829
FeCu(PO4)2,0.0,-2.086375916190475,mp-775167
KCrO3F,2.687599999999999,-2.086373934541666,mp-1223546
MgFe10O9F11,0.9923,-2.086350556935484,mp-1233959
Fe10O9F11,1.2038,-2.086308832333334,mp-780760
Mn2Zn(PO5)2,0.0,-2.086137005009853,mp-1043935
LiNiSO4F,4.2066,-2.086013345729165,mp-942700
NaV2Bi3O10,2.8908,-2.085931198211207,mp-1220913
Li8Cr2O9,0.6961,-2.085889620219298,mp-770861
FeBPbO4,2.1228,-2.08582655488095,mp-20028
K2CoP4(HO2)8,3.4852,-2.085670972357142,mp-1195899
Fe3(PO5)2,0.179599999999999,-2.085623588952381,mp-1194229
Na6W6Se2O25,2.7351,-2.085460343281112,mp-1196529
Li4FeP6(HO2)12,4.1488,-2.085268689918947,mp-1177405
K3Na5V2(MoO4)6,0.0,-2.084849425966164,mp-1076484
Ca7MgCo7CuO20,0.0,-2.084839194305555,mp-1099952
CrNi3(PO4)4,0.0,-2.084695618690476,mp-754644
Rb2NiP4(HO2)8,5.172599999999999,-2.084475933986175,mp-1198723
Li4V3Ni2Sb3O16,0.0106,-2.084454353333334,mp-1177235
KLiCrO4,2.8721,-2.084404166333332,mp-555206
LiV4CuO12,0.3866,-2.08436254074074,mp-756257
Li2CoAgF6,1.7043,-2.084272759833332,mp-1111099
Li4Cr3Fe2Sb3O16,0.683199999999999,-2.084171141190476,mp-772506
Na2NiPCO7,0.0,-2.084152623950122,mp-774783
Mn4P3NO12,0.0,-2.084108692157636,mp-727750
MnSnO3,0.877599999999999,-2.083893312586208,mp-20569
MgGe2WO6,1.5806999999999989,-2.083861997749999,mp-1043309
Li3Mn4SnO8,0.0,-2.083846611982759,mp-1290720
K2NiP4(HO2)8,4.5444,-2.083773260260369,mp-761179
MnMoO4,1.409699999999999,-2.083752250488489,mp-19455
CaCr6(OF)4,0.1387,-2.083680962666667,mp-1233859
LiMnCr2O6,0.300699999999999,-2.083604468126437,mp-850948
ZnFeBO4,1.103599999999999,-2.083584753809523,mp-1215822
Mn4SiTeBr2O7,2.694899999999999,-2.08337115689272,mp-1193463
Fe2OF2,2.1602,-2.083283962999999,mp-1178466
FeSiO4,0.605699999999999,-2.083260607083333,mp-1191756
Li7Mn4CoO12,0.7709,-2.083168348335727,mp-1667041
MgMnAs2O7,1.4717,-2.083152737311912,mp-1042773
Sr2MgFeOsO6,0.041999999999999,-2.083116230454545,mp-2241076
BaTmCo4O7,0.1187,-2.083048736923077,mp-1192892
Ti3Co3(SbO8)2,0.113399999999999,-2.083002485833333,mp-762505
NaCr(SO4)2,2.7232000000000003,-2.0829856746982762,mp-1210195
Na4Cr2P(CO4)4,0.0,-2.082850940376301,mp-782637
MgMn5Cr2O12,0.0453,-2.082761772232758,mp-2230064
Li6Mn5O10,0.7515000000000001,-2.082754044745484,mp-753134
CsFeP2H3CO10,2.6647,-2.082714789038382,mp-1199835