formula,bg,formation_energy,mp-id
Sr2ZrCrO6,0.0,-3.11760866075,mp-1080742
BaEuDyVO6,0.0907,-3.117460697666667,mp-1516727
SrLa3Ti2(CoO6)2,0.0,-3.117353510583334,mp-1218234
MnB2F8,6.615,-3.117123908978579,mp-17727
BaTb2NiO5,0.0,-3.117015718703704,mp-19312
SmEuHfFeO6,0.0,-3.116883010000001,mp-1517536
La3SmV3CrO12,0.8113,-3.116852795249999,mp-1076338
K2NaCrF6,4.2057,-3.116832699587931,mp-554252
Ce2MgV2O8,0.5493,-3.116668888076922,mp-2227597
BaYb2NiO5,0.0,-3.116472022083337,mp-18752
Ba6Lu2(WO6)3,2.9903,-3.116453225632183,mp-16928
Rb2NaCrF6,4.1608,-3.116374354637931,mp-560936
Ba2SmVO6,1.6332,-3.1162895735,mp-1517570
LiLa8V8O32,1.175999999999999,-3.116218820068027,mp-769499
U2MoO8,0.026299999999999,-3.116026406590906,mp-683675
Ba2YbMoO6,2.2435,-3.115867185750002,mp-1205934
Ca2NbCrO6,2.7637,-3.115843763499999,mp-1214115
CeEu2VO6,0.0,-3.115097511,mp-1518892
Ba2CaV2(Si2O7)2,2.0222,-3.114831572608696,mp-1233385
BaZnFeF7,3.4151,-3.11474576125,mp-554362
Cs2LiCrF6,4.3359,-3.114727902264368,mp-1206440
MgCrF6,1.614099999999999,-3.114523169375,mp-554955
LaTi4Mn3O12,0.0,-3.114453935356322,mp-1211393
CsTiCoOF5,2.3885,-3.114244638109834,mp-40502
Cs2KCrF6,4.287,-3.113987139656035,mp-560956
BaTbEuWO6,0.146799999999999,-3.113751713666667,mp-1519421
Sr2ErMoO6,1.2643,-3.113661218499999,mp-18744
K2U3MnO11,1.479,-3.113651785731235,mp-1195145
Ca2TaMnO6,0.0,-3.113065680526438,mp-558810
Na3Li3Cr2F12,4.1042,-3.1130103960818962,mp-14458
CaMn(SiO3)2,2.8319,-3.112735602793104,mp-19446
BaLaTiFeO6,1.783799999999999,-3.112630032333333,mp-1227842
SrPrZrMnO6,0.0,-3.11257298595977,mp-1519076
Nd3W(ClO2)3,3.5002,-3.111938710576923,mp-1209888
Rb6U5V2O23,1.7881,-3.111838479930556,mp-554617
Cs2LiCr3F12,3.1832,-3.11173661403576,mp-1226357
Ca4ZnCo(Si2O7)2,3.1546,-3.111526386979166,mp-1227034
Ba2AlW2F11,1.4113,-3.1112445446875,mp-1044860
Li2V2F7,0.2643,-3.111171092424243,mp-760262
La2MgWO6,2.215399999999999,-3.111161335500001,mp-1404626
Li2Ti3VO8,0.6239,-3.111089365297619,mp-775161
BaEuYWO6,0.149499999999999,-3.111030098500001,mp-1520469
Sm3Sc2(FeO4)3,2.1481,-3.110911003500001,mp-1209643
Sm3W(ClO2)3,3.454,-3.110908441538461,mp-1208868
CsTiNiOF5,3.1176,-3.110899164498724,mp-41473
Sr2GdVO6,1.4759,-3.110878473999999,mp-1520195
AlNiF5,1.9441,-3.110630491428572,mp-1263325
LuMnO3,0.0,-3.11040649758621,mp-18808
Gd2V2O7,0.9818,-3.110372110454546,mp-773164
CaCe3V4O16,0.0,-3.109792424999999,mp-1227464
Ba2UFeO6,0.5156000000000001,-3.109767488999999,mp-504699
Sr2UMnO6,0.669999999999999,-3.108657218293103,mp-554843
Mg2Al16Fe6Si20O73,0.044399999999999,-3.108028392350428,mp-1223304
La6Sm2V5Cr3O24,0.9385,-3.107902019250001,mp-1076253
SrLa3MnO8,0.0,-3.107615424456234,mp-753578
Mg2Ta2VO8,1.1544,-3.107296158243589,mp-1046091
K2CrF5,3.8102,-3.107266392281249,mp-1212394
Pr3W(ClO2)3,3.5317,-3.107063265,mp-555930
Ba2Ni2ClF7,3.984499999999999,-3.105863594166667,mp-556292
Nd2MoO6,2.6647,-3.105778840833333,mp-18494
Ti4VO8,0.0,-3.105722684102564,mp-768727
Ca2Ta2FeO8,3.6611,-3.105227743051282,mp-1046246
CaVSiO5,1.1317,-3.1051841578125,mp-1213869
Ca2Al2FeSi4BHO16,1.7853,-3.105086537608023,mp-24392
KRb2CrF6,4.1522,-3.105047248825,mp-1203661
Dy2MgV2O8,1.7447,-3.104709300641026,mp-2218388
Al4Fe2Si5O18,3.862699999999999,-3.104646853103449,mp-1204107
Cs3VF6,3.1001,-3.104529692,mp-1206041
Sm2V2O7,0.9596,-3.104152318636363,mp-779427
Sr2NbCrO6,2.2687,-3.10404197775,mp-1205690
Sr2TaMnO6,0.001599999999999,-3.103931391526438,mp-1284552
SrCe3V4O16,0.0,-3.103668890833333,mp-1218593
HfCrO3,1.7873,-3.103459338499999,mp-756322
Ba4Nb2WO12,2.7361,-3.103403415789473,mp-1228131
BaSr2Mn2(Si2O7)2,0.0,-3.103148711994003,mp-19122
BaFe(Si2O5)2,3.8792,-3.102870680937501,mp-19165
Tb2MnCrO6,0.9641999999999992,-3.102837643126437,mp-1217727
LaMgTiCrO6,0.0,-3.102801884833333,mp-1044883
SrTbEuWO6,0.0,-3.102716760666668,mp-1518567
Sr2HoMoO6,1.331999999999999,-3.102579541999998,mp-1105394
BaFe2F7,1.811699999999999,-3.102310879750001,mp-1214474
KCrF4,2.9232,-3.101955748291666,mp-5053
Rb2CrF5,3.4227,-3.1019547465625,mp-27154
LiTi3VO8,1.6197,-3.101722933141026,mp-753531
SrCaNbCrO6,2.083999999999999,-3.101288030499999,mp-1218539
MgFeF5,3.6151,-3.101007768571429,mp-1444570
CeCrO3,0.0,-3.100860515,mp-780712
Ca3Mn2(Si2O7)2,1.9055,-3.100779451341829,mp-557275
Ca8Cr(PO4)7,0.0035,-3.100745873465909,mp-1334592
BaCaDyVO6,1.6048,-3.100416336166667,mp-1519032
SrCaDyVO6,1.6157,-3.100331614166666,mp-1517733
Sr2GdWO6,2.1165,-3.100240127499999,mp-1522359
Li3VF7,1.9212,-3.099581992272727,mp-759421
La2MgV2O8,1.741099999999999,-3.099365045769231,mp-2233751
La3SmV2Cr2O12,0.7499,-3.0992700815,mp-1076218
BaSrMn2Al9PbO20,1.233,-3.09875275958418,mp-1227545
Ca11YAl15Cr4SiO48,0.0,-3.098710709374999,mp-697210
La4NiO8,0.7965,-3.098433913846155,mp-510747
TmMnO3,0.0,-3.098161968586209,mp-554211
PrEuZrMnO6,0.0,-3.098142623459771,mp-1522055
NbVF6,0.0,-3.0980898775,mp-557023
Mg7Fe(SiO4)4,4.1577,-3.097839281249999,mp-1094131
Ba2Co2ClF7,2.632599999999999,-3.097569244999999,mp-556007
Ta2MnO6,2.0483,-3.097177090844208,mp-540716
Rb2U3MnO11,0.0,-3.096823823995941,mp-1195672
Cs2NaCrF6,4.2707,-3.096754161568966,mp-557047
MgV3OF11,0.792,-3.0966032859375,mp-2224794
CePrV2O6,0.0,-3.096542748166668,mp-1521168
Mg2Ta2MnO8,2.731499999999999,-3.096388229045977,mp-1046101
CaFe(Si2O5)2,3.8674,-3.096016039218749,mp-1043643
MgSc2V2O8,1.6143,-3.095948964230769,mp-2218897
BaY2NiO5,2.300299999999999,-3.095363232777777,mp-19325
SrLiLa3FeO8,0.9895,-3.095308892023809,mp-766044
La6Sm2V3Cr5O24,0.966299999999999,-3.095291638500001,mp-1076584
SrCaTiMnO5,0.8357999999999991,-3.094835633612706,mp-1099877
KCaFe2F9,3.3095,-3.094810605814102,mp-1212124
Li3V2F8,0.475,-3.094772386538462,mp-752901
CsCrF4,2.8606000000000003,-3.094748532720306,mp-27149
BaSrSmVO6,1.6407,-3.0945519385,mp-1517230
Li4VF8,1.950699999999999,-3.094535737179487,mp-753340
Rb2LiVF6,0.0,-3.094341530833333,mp-1113694
Sr2FeCO3F5,1.8412,-3.094187293541666,mp-766474
Nd3Sc2(FeO4)3,2.394,-3.094105913125,mp-1210576
Pr2MoO6,2.327099999999999,-3.093956566759262,mp-1209740
SrEuNbVO6,0.0,-3.093793812500001,mp-1521910
Li4Zr8V3(P3O16)3,3.1339,-3.093563358126653,mp-1223569
Na2AlNiF7,4.5085,-3.093076317727273,mp-554507
Ba2LaVO6,1.714,-3.0930034655,mp-1517555
Y2MnCrO6,0.0,-3.092993584793103,mp-1189214
Sr2DyMoO6,1.344,-3.092955365166665,mp-1105402
Sr2CoSi2O7,3.4006,-3.092014428541667,mp-1208846
Ti2CrO5,0.2987,-3.091858370520834,mp-19369
CaLa2Ti2Mn2O12,0.0,-3.091782781448881,mp-1280567
Li2Ti3MnO8,2.4041,-3.090340075328408,mp-775865
BaSrCeWO6,0.624799999999999,-3.090258999,mp-1517687
YWF5,1.9491,-3.090115633571428,mp-1403507
CaEuDyVO6,9.999999999976696e-05,-3.089918915666667,mp-1520954
Ca2TiCrO6,1.1492,-3.089886917833333,mp-1227758
BaSrSmWO6,2.003399999999999,-3.089476061499999,mp-1520675
Rb2Be3Ni2F12,6.149,-3.089417545657895,mp-1209719
Ba2SmNb4FeO15,0.0,-3.089065989999999,mp-1228654
V3F10,0.0,-3.088922595384615,mp-1101191
Lu2MgV2O8,1.6928,-3.088900986794872,mp-2227827
Ca8ZnCo3(Si2O7)4,3.1325,-3.088509426874999,mp-1227193
Ba6Mn4Si12Cl3O34,0.009799999999999,-3.08828748969024,mp-1228733
CaEuZrCrO6,0.0,-3.088078552499999,mp-1519369
BaHo2CoO5,1.270699999999999,-3.087878961111109,mp-505037
BaSmEuVO6,0.0,-3.087707772000001,mp-1516301
Cs2NaVF6,0.0,-3.087504034568966,mp-561500
Ca2MnAl2Si4BO15,1.1151,-3.087395360083908,mp-727393
BaSrLaVO6,1.8488,-3.087338975,mp-1520602
Ba3SrEr2(MoO6)2,0.9889,-3.087167533499999,mp-1228234
BaGd2CoO5,0.0,-3.086305426111112,mp-505313
BaCeEuWO6,0.057,-3.0862584675,mp-1518915
Ba2SmWO6,1.7704,-3.086228743,mp-1517191
BaNaFe2F9,3.7419,-3.086046867413792,mp-554149
Ho2Ni(B2O5)2,3.531799999999999,-3.085675563627449,mp-16779
CaNdTiMnO6,0.0,-3.084976431876437,mp-41742
Na3VF6,0.0099,-3.084973801000001,mp-556633
Er2MgV2O8,1.677099999999999,-3.084867696538461,mp-2218493
KBaNa2Ti3Fe(Si2O9)2,2.650699999999999,-3.084584238666954,mp-1223630
BaCaYVO6,1.620299999999999,-3.084479229,mp-1517517
Ba2UNiO6,1.6246,-3.084455379999998,mp-19093
LiTiFeF6,0.081799999999999,-3.084182655555555,mp-1211292
SrCaTbVO6,1.616699999999999,-3.084015487666667,mp-1517712
Sr3CaTi2Mn2O10,0.7831,-3.083949012918263,mp-1076875
Ca2TaMoO6,1.4283,-3.083761082733332,mp-1366540
MgV2(OF3)2,1.6087,-3.083544205000001,mp-2217755
La2MnCrO6,0.9733,-3.083515488293105,mp-1666963
SrCaYVO6,1.6094,-3.083408752000001,mp-1520379
K2Be3Ni2F12,6.1124,-3.083208955236843,mp-1212188
Y2MgV2O8,1.7686000000000002,-3.083192293461538,mp-2218585
Ho2MgV2O7,1.4803000000000002,-3.083101567499999,mp-2218211
Gd3W(ClO2)3,2.5504,-3.083050970384614,mp-1212679
ErMnO3,0.0,-3.082495226252873,mp-19217
La7SmTi3V5O20,0.0,-3.082454085069445,mp-1076885
Zr4Ni(PO4)6,3.2858,-3.082192998081633,mp-1215801
La2CoO4,0.3608,-3.082190103214286,mp-27494
Ca2TiWO6,0.3989,-3.082048991833333,mp-1367801
Ba2NdVO6,1.6381,-3.081399561749999,mp-1520908
Ba2DyWO6,0.0,-3.081254584166666,mp-1518430
Ba2LuMoO6,0.0,-3.081216235666667,mp-1205836
Ca3WO6,3.706,-3.081071199499997,mp-781505
CsMnCrF6,1.595799999999999,-3.080869609731801,mp-1228863
BaNdEuVO6,0.0,-3.080847058750001,mp-1522737
Na2MnVF7,2.0226,-3.080830740062696,mp-1221472
Eu2VO4,0.0,-3.080261765714289,mp-19815
K3CrF6,4.3858,-3.080177567174998,mp-1111695
Tm2MgV2O8,1.6629,-3.079847703461539,mp-2227841
Pr3Sc2(FeO4)3,2.384299999999999,-3.07964313975,mp-1209949
Ca2Al2FeSi3HO13,2.569499999999999,-3.079444635511364,mp-696825
Li3V2OF7,2.1966,-3.079325135,mp-752612
Tb2VFeO6,1.3995,-3.079295732833334,mp-1217726
Sr2SmWO6,2.0057,-3.079033571250001,mp-1517397
Tb2MgV2O8,1.6209,-3.078932351410256,mp-2220009
Sr2TiMnO5,1.0056,-3.078760217362707,mp-1076627
Sr2SmVO6,1.6372,-3.078556790500001,mp-1521309
LiTiNiF6,0.2452,-3.078456746666666,mp-1210957
NaCaAlFe(SiO3)4,3.4003,-3.078405545568965,mp-1173823
LiCaCoF6,0.0,-3.078052191481481,mp-555143
Ba2VP2O9,2.5501,-3.077986980663265,mp-554810
MgFeF4,0.129799999999999,-3.077072115833333,mp-1778883
BaSm2CoO5,1.4676,-3.076737321666666,mp-19248
Li2VF4,2.8901,-3.076503752380954,mp-775776
Ho2MgV2O8,1.5759,-3.076217136538461,mp-2227384
Sr9LuV7O28,3.6878,-3.076192084925926,mp-555068
Ca2Al2FeSi3O13,0.0,-3.076116905476191,mp-1196208
La3MnO7,0.0,-3.07607955208464,mp-1178204
Ba6Na2Ta2V2O17,3.053899999999999,-3.075677158187079,mp-1214664
Ba2MnSi2ClO7,1.4732999999999992,-3.075644051956232,mp-558848
Sr2ZrMnO6,1.506,-3.075611313793104,mp-1080730
Ba6Nb9CoO30,0.0,-3.075496367826086,mp-1228527
La2VZnO6,1.701799999999999,-3.075442359000001,mp-1405776
Dy2MgV2O7,1.465999999999999,-3.07523934111111,mp-2218240
Li2U3V2O15,2.2782,-3.07520563462121,mp-554685
Li4MnF6,4.9148000000000005,-3.075165761630094,mp-831158
Er2VFeO6,1.4206,-3.07514729,mp-1225732
Li6VF8,3.5191,-3.075085634666667,mp-765804
Ca3Nd4Nb6(FeO14)2,0.0,-3.0749006586046512,mp-1365096
Eu2HfWO6,0.0,-3.074313930000001,mp-1518017
Sr9TmV7O28,3.6894,-3.074298946777778,mp-555221
KLaZrVO6,0.0,-3.074095344225,mp-1520546
CaEuYVO6,0.0,-3.074093435499999,mp-1517862
Lu4V4O13,0.3429,-3.074044396507937,mp-34645
BaSrLaWO6,2.254299999999999,-3.0740205875,mp-1517703
BaCdFeF7,3.796599999999999,-3.073525824,mp-1214477
Mn2Be3Tl2F12,4.1194,-3.073468338817302,mp-1210699
Rb3CrF6,4.3963,-3.073445499249997,mp-1113631
Sr2VP2O9,1.5748000000000002,-3.073160467806122,mp-1218530
SrLaMnO4F,0.0,-3.072911303803879,mp-1218175
Ta8Cr3O24,0.0,-3.072838929961905,mp-1173149
Ba2TaMnO6,1.1694,-3.071425021026436,mp-1309882
PrEuNbVO6,0.0,-3.071161479666668,mp-1516611
CaTbEuVO6,0.0181,-3.070965423166667,mp-1521501
Ca5MnO6,2.9678,-3.070912754827587,mp-753361
Na8Zr3Ti3Mn2Si8(O17F)2,1.2426,-3.07078258228161,mp-1220956
SrEuNbCrO6,0.0,-3.0703298965,mp-1518389
La5Sm3V2Cr6O24,0.9265,-3.070278395500001,mp-1099675
Li2V2OF6,1.6348,-3.069434096515151,mp-753637
BaGd2NiO5,0.94,-3.069349602777778,mp-19332
Eu2HfFeO6,0.0,-3.06860048,mp-1518318
Ba2TmMoO6,0.0,-3.068558652,mp-1205595
BaSrNdVO6,1.6697000000000002,-3.06840303025,mp-1516350
La2NiO4,0.0,-3.068392679285714,mp-21874
Li5Ti6FeO16,2.7030000000000003,-3.06833766970238,mp-769637
Ca3Mn2(SiO4)3,1.106799999999999,-3.068277864418105,mp-1265277
Mn3Al2F15,1.460699999999999,-3.067788531689655,mp-1265053
Ho2VFeO6,0.0,-3.067664408499999,mp-1224186
NaU4V3O20,1.8662,-3.067211158263545,mp-1221127
SrEuZrMnO6,0.0,-3.066992060293105,mp-1521062
Ca2CoSi2O7,3.056,-3.066876938958333,mp-18786
CaCr(SiO3)2,0.0,-3.066810878749999,mp-1157256
BaLaNbCrO6,0.0,-3.0665843775,mp-1227851
NaCrF4,3.2336,-3.066476791896551,mp-17523
BaSmEuWO6,0.0483,-3.0662759705,mp-1517108
Ca3Si3(MoO6)2,3.077000000000001,-3.06620171425,mp-1170750
LiTiCoF6,0.002899999999999,-3.066152468518518,mp-1211111
Sr2ZrMoO6,0.0,-3.066131268000001,mp-1218217
LiLa2MoO6,1.6083999999999992,-3.065384506333333,mp-19377
LiTi2VO6,1.825,-3.065384292000001,mp-774505
La2NbNiO6,0.207600000000001,-3.065186532,mp-1211522
Sr4TaFeO8,1.773,-3.065108938380952,mp-1218412
Ba2Mn(PO4)2,3.922,-3.064983261324365,mp-19487
Ba2LaWO6,1.9219,-3.064883092000001,mp-1522426
BaCaVP2O9,2.5735,-3.064525238877551,mp-558004
Li2Ti3CrO8,0.0,-3.064382459404762,mp-756280
NaLaZrVO6,0.0,-3.064359477637931,mp-1521458
Ce2VFeO6,0.0,-3.064291228,mp-1227428
Li3La7(FeO8)2,0.998499999999999,-3.064262541607143,mp-756753
Mg2Ta2CrO8,1.7933,-3.063837166897436,mp-1663786
La2VFeO6,0.0,-3.063804908000001,mp-1223233
Sm2MgV2O8,1.7258,-3.063641148846153,mp-2218939
MgV6(OF5)3,0.2148,-3.0634940362,mp-1234209
Li4VF6,3.387499999999999,-3.063459420757576,mp-857358
Ba2CuMo2F14,1.4195,-3.063350777631579,mp-1045817
Na6U5V2O23,1.8105,-3.063350262521551,mp-700033
La5Sm3VCr7O24,1.2135999999999991,-3.063324328499999,mp-1099724
Ba2MgV2(Si2O7)2,1.5277,-3.063230918043478,mp-1234882
BaZnWF7,3.207,-3.063105736,mp-1047930
Al9Fe2Si4HO24,0.3811,-3.06298690228125,mp-744386
LiV2OF5,1.8025,-3.062512554259259,mp-753339
YCr(BO3)2,3.2276,-3.062510550833333,mp-1232521
UVO5,0.3766,-3.062419927142857,mp-20179
CaZrNbFeO7,2.227299999999999,-3.062313407954545,mp-1227538
Na3CrF6,3.8005,-3.062070502913792,mp-560929
LiCrF4,3.0313,-3.061923703680555,mp-759949
Dy2VFeO6,1.3296,-3.061456642833332,mp-1225428
BaY2CoO5,1.8813,-3.061319460833334,mp-541574
CaLaVCrO6,1.5655,-3.060737934499999,mp-1048855
Ba2Ni3F10,5.1596,-3.060660682666666,mp-27680
SrSmEuVO6,0.054399999999999,-3.060647759000001,mp-1519755
LiSm4V4O12,0.9364999999999992,-3.060358061587302,mp-1236252
SrCaHfWO6,0.0,-3.060122713999999,mp-1522396
CaNd2Ti2Mn2O12,1.3218,-3.059772932501513,mp-1367209
Ba3CaZrWO9,0.0,-3.059721445777777,mp-736122
BaSrNdWO6,2.0977,-3.05956385025,mp-1523102
Er2CrSbO7,2.1271,-3.059424667727272,mp-1225159
Ba2CoSi2O7,3.138099999999999,-3.05940255,mp-510015
NbCrF6,0.0,-3.0588873375,mp-28907
Ba2PrVO6,1.6605,-3.058658729166667,mp-1519938
Sr3La7Ti2Mn8O30,0.0,-3.058594086902299,mp-694976
Li2MnF4,4.173,-3.058420835299671,mp-777589
ZrMnO3,2.5635,-3.058372138586206,mp-754513
SrCaNbVO6,0.0,-3.058273209,mp-1516876
Na5Cr3F14,2.98,-3.057455153949842,mp-561252
DyMnO3,0.0,-3.057447258586204,mp-542479
Li3VF5,2.5096,-3.056889675,mp-860790
SrCaMn(PO4)2,3.920099999999999,-3.056636314016672,mp-1046441
SrCaV(PO4)2,2.6569000000000003,-3.056483598021977,mp-1046434
Ba2ErMoO6,0.0,-3.0564830020000002,mp-1205628
Ba2NbCrO6,1.582399999999999,-3.056199825000012,mp-31627
Li6MnF8,4.5324,-3.056144775862068,mp-759844
BaCaHfWO6,0.0,-3.056130819,mp-1521252
Ba2TiMn2Si2PO13,0.0,-3.055706251611346,mp-1214713
Sr2GdMoO6,1.3501,-3.055254508000001,mp-1105454
La5Sm3Cr8O24,2.0817,-3.05513007725,mp-1076603
CaPrV2O6,0.0,-3.055043548166668,mp-1044725
Eu8Mn3Nb5O28,0.0,-3.054712265768025,mp-1229284
CaMnSiO4,2.5993999999999993,-3.054609996490149,mp-1213991
Ba2ZrWO6,0.0,-3.054233885,mp-1228086
Y2MgV2O7,1.429999999999999,-3.053985510833333,mp-2218245
Gd2MgV2O8,1.4005,-3.053918301153845,mp-2218343
KTh2V3O12,3.300899999999999,-3.053849811513888,mp-16814
Li5V2OF11,1.4843000000000002,-3.053614274824561,mp-760197
CaLaNbCoO6,0.713499999999999,-3.053297722000001,mp-1227224
Ca3Nb2CoO9,2.1471,-3.053244660166666,mp-561965
Rb2Cr5F17,2.5291,-3.053145324583333,mp-559386
Ba2CeWO6,0.0,-3.0530593495,mp-1517855
Sr5V3ClO12,3.945299999999999,-3.052969022857143,mp-556224
Li10Mn3F16,3.3847,-3.052621003349187,mp-777562
Ba2NdWO6,1.7938,-3.052404307750001,mp-1519207
BaSrPrVO6,1.8192,-3.052105692666667,mp-1521162
SrLiCoF6,2.2144,-3.052000652592593,mp-554131
Li3MnF5,4.053,-3.051908349214559,mp-759420
Sr2VClO4,3.7633,-3.051905209374999,mp-558952
Ba3DyUFeO9,1.477,-3.05187425611111,mp-706328
LiV3(OF3)2,1.4936,-3.051723843194445,mp-867665
Li2V(Si2O5)3,1.9546,-3.051494560173611,mp-775292
MgCr(Si2O5)2,3.6053,-3.051494175,mp-1043526
Sr2TaFeO6,1.5015,-3.051403054733333,mp-31760
Ta6Mn2FeO18,2.292699999999999,-3.051265765735633,mp-1218233
Na4Ca7MnSi12(HO9)4,4.1171,-3.051187761382004,mp-1221263
SrLaTaCoO6,0.0,-3.050700594566666,mp-1173186
Na4Al3Fe(SiO3)8,3.023,-3.050296715137932,mp-1221226
Y2VFeO6,0.0,-3.0497095005,mp-1216130
Ba2GdWO6,0.0,-3.04947457975,mp-1519934
CeEu2CrO6,0.0,-3.0493593,mp-1516700
LaMgTaFeO6,3.121099999999999,-3.049295320733333,mp-1043991
Li6Ti15Co3O32,0.0,-3.049225491964286,mp-772994
Sr2CaWO6,3.5269,-3.049108923,mp-1105247
NaMnCrF6,2.2911,-3.049081169923372,mp-18641
Dy2CrSbO7,1.894299999999999,-3.048827102575755,mp-1225509
Na6Al4Fe(Si4O13)2,3.202499999999999,-3.048477230850574,mp-42298
Zr8MnCu2(PO4)12,2.1231,-3.048232040755567,mp-1100802
Ba8Y4Cu(WO8)3,0.1585,-3.04800620575,mp-1228285
MnAl2O4,2.6578,-3.047750007561575,mp-755882
Sr2TiMoO6,0.0,-3.047674962333333,mp-1078580
Ca4MgSi8(NiO8)3,4.7986,-3.047445939624999,mp-1227573
K3VF6,0.0,-3.047231967175,mp-1111308
Na2LiCrF6,4.323,-3.046895989609195,mp-1114241
Ca2Ta2CoO8,2.2899000000000003,-3.046887092282051,mp-1046181
MgWF5,3.263,-3.046826014999999,mp-1387656
V2OF5,1.3457,-3.046730802916667,mp-1648259
PrEuZrFeO6,0.0,-3.046496074666668,mp-1521598
LiVF3,2.654699999999999,-3.046416666666668,mp-752764
SmEu2VO6,0.0,-3.046094209500002,mp-1520494
Ba2HoMoO6,0.0,-3.046044359499999,mp-1205837
Li2ScFe(SiO3)4,2.9551,-3.045946540583334,mp-771836
Rb2V2Si8O21,2.913299999999999,-3.045565881818182,mp-1219801
Ba5V3ClO12,4.0709,-3.045460437142857,mp-23094
MgMn(Si2O5)2,3.0903,-3.04488733518319,mp-1043525
Ta2CrO6,0.0861,-3.044736343851851,mp-31629
LiV(Si3O7)2,2.2459,-3.044445384810606,mp-774422
Tb2CrSbO7,2.1144,-3.044271386666665,mp-1217731
Pr2B2MoO9,3.3843,-3.044116537619047,mp-556474
Sr3LaV3O12,3.2467,-3.043995866578947,mp-1218724
NaCa3AlFe3(SiO3)8,3.3489,-3.043609692284484,mp-1221133
Dy2CrFeO6,2.224199999999999,-3.04355459483333,mp-1232352
Li3V2F12,0.246599999999999,-3.043323754852941,mp-760783
CaMn2Be3(SiO4)3,4.1417,-3.04316790158867,mp-15539
CaPrNbVO6,0.0,-3.043155794166666,mp-1522827
CaTi8Mn(PO4)12,2.6538,-3.043039888290171,mp-1227585
BaNdEuWO6,0.198999999999999,-3.042953516750001,mp-1522345
DyYMn2O6,0.0,-3.042663056752874,mp-1225181
NdEuZrFeO6,0.0,-3.042082952250001,mp-1518988
Li3VOF5,2.1558,-3.04199630225,mp-760816
ScVO4,2.6851,-3.041869945833333,mp-19247
CaCo(Si2O5)2,2.858199999999999,-3.041851847812499,mp-1043607
La2MnGaO6,1.5555,-3.041545490043104,mp-1223352
Rb3VF6,0.0,-3.04110724524999,mp-1113821
Pr2MgV2O8,1.75,-3.041077486794873,mp-2219431
CaEuHfWO6,0.0,-3.0406115275,mp-1522800
Ba2GdMoO6,0.9083,-3.040581021999999,mp-1079839
NaMg2Al6VSi6B3H3O31,5.0784,-3.040559052596779,mp-1221055
Ca2TiMnO6,1.947,-3.040507400126437,mp-1227706
SmEuNbVO6,0.0,-3.040261787000001,mp-1522475
BaSrPrWO6,2.106299999999999,-3.040154876166667,mp-1518103
CrF3,3.0453,-3.04001977,mp-560338
Ba2Cr2CuF14,0.4807,-3.039957675789474,mp-1379023
K2RbCrF6,4.5029,-3.0395630662,mp-1111217
SrLa3Cr4O12,0.7477,-3.03949065825,mp-1647269
TaVO4,1.8279,-3.039436780388889,mp-755190
KVF3,2.075899999999999,-3.03907132245,mp-557257
SrCaZrCrO6,0.0,-3.039029287999999,mp-1522114
Sr2DyWO6,0.0,-3.037937008166666,mp-1519670
VF4,2.2417,-3.037462301,mp-554799
NaCaMgFe(SiO3)4,2.9279,-3.037103931693965,mp-1221075
BaMnP(O2F)2,0.9484,-3.03700868361932,mp-1195656
Sr2UNiO6,1.545799999999999,-3.036749226499998,mp-560410
Ba2DyMoO6,0.0,-3.036579568166666,mp-1206026
Ba4CaFe4Cu2F28,0.084299999999999,-3.036485640769231,mp-1358947
Sr2ZrWO6,0.0,-3.036268159,mp-1522533
Ba2VCu2F12,0.6976000000000001,-3.036037740588236,mp-1214695
Ca2TaFeO6,1.2064,-3.035638443733334,mp-1341944
La4Mn5(Si2O11)2,1.0118,-3.035376521418719,mp-541464
SrNdDyMnO6,2.2836,-3.03520879670977,mp-1520503
Gd2VFeO6,1.6075,-3.0350072365,mp-1225231