formula,bg,formation_energy,mp-id
La4Ga3FeO12,2.529000000000001,-3.034970015250001,mp-1223050
Ca2Ta2NiO8,1.4678,-3.034880936512821,mp-1046168
LiV(Si2O5)3,2.0883,-3.034693407210145,mp-775301
RbVF3,2.2325,-3.0345876665,mp-556424
Ca2MnNb2O8,2.462,-3.034467063687002,mp-1047534
Ca2TaWO6,2.1053,-3.034219709733332,mp-1367958
SrCaCr(PO4)2,3.247299999999999,-3.034198913791208,mp-1046446
Sr5V3H6(O3F8)2,2.9173,-3.033934275,mp-1198080
Sr2LiV2(Si2O7)2,0.6894,-3.033790610144927,mp-1235062
K2Na4Li2Ti4Mn3Fe(SiO3)16,1.7582,-3.033449140297629,mp-1224604
NaLa5Mg4(WO6)4,3.3623,-3.03323918727314,mp-1173608
Sm2VFeO6,1.2635,-3.033228952500001,mp-1219215
Ba2CaWO6,3.2912,-3.032736570999999,mp-19098
CsVZnF6,2.296599999999999,-3.032418923850575,mp-1225824
La24Ni12O49,0.0,-3.032415715470588,mp-759094
CaCeAlFe2Si3O13,0.3082,-3.032245942619048,mp-1214122
BaSm2NiO5,2.2387,-3.032236172777778,mp-19199
Nd2MnCrO6,0.7902,-3.032181974293102,mp-1220516
SrCeEuCrO6,0.0,-3.0321401315,mp-1516260
Li2VOF4,1.6382999999999992,-3.032055145208333,mp-780857
BaLiCoF6,2.284399999999999,-3.031501658981482,mp-17034
Sr2NdVO6,1.6477,-3.03149778275,mp-1522778
Ca2VP3O11,2.2803,-3.031470509936974,mp-1202810
SrPr3CrNiO8,2.2087,-3.031365601071429,mp-1218011
Ba2PrWO6,1.8049,-3.031186916416666,mp-1519439
LiMnGaF6,3.7821,-3.030762117270114,mp-504460
Ba2LiV2(Si2O7)2,0.2716,-3.03065506057971,mp-1235709
Ca5V3ClO12,3.7998,-3.030644825476177,mp-1202595
TbMnO3,0.4016,-3.03061692641954,mp-22055
La3Mg2(WO6)2,0.0,-3.030239099736842,mp-1223130
Na2MnCrF7,2.4576,-3.030118618850574,mp-14718
TiVO3,0.0,-3.029616557666668,mp-1216763
Li4CrF6,3.0173,-3.029012711666666,mp-753824
Ba3LaV3O12,3.2286,-3.029003599210525,mp-1228930
CaCeV2O8,1.5741,-3.028649919166666,mp-1227255
Ba2CeCrO6,0.0,-3.028614512,mp-1519270
SrEuHfFeO6,0.0,-3.0283897865,mp-1521050
SrLaMnO4,0.0,-3.028337633275861,mp-1218156
SrCeVO4,0.0,-3.028302295714285,mp-1218325
CaPrZrFeO6,1.9476,-3.0282782331666662,mp-1521801
Li3MnF6,1.7214,-3.028254398293103,mp-760028
LaMgTiFeO6,2.5232,-3.028232238583333,mp-1043786
Li5MnF8,1.9837,-3.028195271042694,mp-1177082
Zr2P2WO12,3.7154,-3.027998928781511,mp-15093
Sr2TiMnO6,0.9884,-3.027922375126438,mp-1206645
SrTbPrMnO6,2.2916,-3.027835131626437,mp-1519326
Li4MnF7,1.9226,-3.027567125105363,mp-755600
BaNd2CoO5,1.405899999999999,-3.027558883333338,mp-19118
Li3V(Si2O5)3,2.3996999999999993,-3.027517810399999,mp-1265172
YMnO3,0.0,-3.027483251919541,mp-19385
Li11La12Fe3O28,0.098199999999999,-3.027454034567901,mp-554531
Ba2CaCo2CuF14,0.3508,-3.0268118375,mp-1354389
BaSrCaWO6,3.404999999999999,-3.026779163999999,mp-1227701
SrPrYMnO6,2.2802,-3.02671119195977,mp-1523331
BaCeEuCrO6,0.0,-3.026705817499999,mp-1517518
Ca4Zn3Fe(SiO3)8,3.0625,-3.026572536499999,mp-1227080
Ba2TbMoO6,0.0,-3.026519996666666,mp-1205597
Rb2U2WO10,1.9222,-3.026190428499999,mp-704467
Ca2MnAlO5,0.0,-3.025843104770115,mp-18907
K2U2WO10,1.9063999999999992,-3.025775993049999,mp-561009
K2NaVOF5,2.842199999999999,-3.025599436087931,mp-39843
CaEuZrMnO6,0.0,-3.025417653293105,mp-1521618
Y2CrSbO7,1.894,-3.025394579090922,mp-1216201
KNa2LiTi2MnFe(SiO3)8,2.1473,-3.025248564698491,mp-1223707
CaCr2(Si2O5)4,1.557799999999999,-3.025219747258065,mp-1329473
SrLa4Cr5O15,0.4964,-3.025218932999999,mp-1650920
Ba2Mn2ZnCuF14,0.0733,-3.024730312043103,mp-1045867
LiMnF3,3.7031,-3.024716084002874,mp-777355
LaTaCrO6,0.1808,-3.024570256925924,mp-1040853
Ba3SrCa2(WO6)2,3.328,-3.024318170000001,mp-1228115
La2CrO6,2.1672,-3.024001106666667,mp-556104
KNa2Li3Cr2(Si2O5)6,3.8492,-3.023571502200172,mp-16282
Ca8ScFe7(SiO3)20,1.146599999999999,-3.023347110260417,mp-1228814
Ca3ScCoO6,2.6504,-3.023198859090909,mp-561991
MgSc2V2O7,1.287699999999999,-3.023105921666667,mp-2218145
V3OF7,1.3813,-3.023001219545455,mp-1567687
Li14Mn5F24,3.5262,-3.022541639681903,mp-764848
BaPrEuWO6,0.235599999999999,-3.022443909166668,mp-1519531
Sr2YWO6,0.0,-3.022396386000001,mp-1523213
Sr3TaFeO7,0.0,-3.02220285936111,mp-1218521
Ba2YMoO6,0.0,-3.021668231999999,mp-1205669
Sr5V3BrO12,3.7925,-3.021515788809523,mp-1195674
Ca2ZnFe(SiO3)4,3.2058,-3.021150068749999,mp-1227662
La16Ni8O33,0.0,-3.020805007105264,mp-867595
Ti2FeO5,1.518999999999999,-3.020799182708333,mp-28231
Ca2YMnO5,0.0,-3.020662470881226,mp-1047494
SrCaTiMnO6,1.536,-3.020582440626438,mp-1218391
Ba3HoUFeO9,1.4128999999999992,-3.020517503333332,mp-694975
Na8Ti3Fe(Si4O11)4,1.0806,-3.020453605847702,mp-1221107
MgV(Si2O5)2,1.880599999999999,-3.020343634218751,mp-1043519
Y4ZrMn5O15,0.0,-3.020267235386206,mp-1216458
La2CrFeO6,0.3097,-3.019859422499999,mp-1223369
Ba3Nb2CoO9,0.0,-3.019709090999999,mp-31514
BaNdDyMnO6,2.0617,-3.01951728170977,mp-1518593
SrLiTi3Cr2O11,0.2061,-3.019325906851852,mp-1208707
Li4Mn3F10,3.323,-3.01919104688979,mp-759565
Ta9V2O25,0.2027,-3.019161848638889,mp-1208695
MgV4(OF6)2,1.229099999999999,-3.019062360263158,mp-2230997
Ba3V2O8,3.7465,-3.018909883076909,mp-19365
Ca10V6O25,2.3495,-3.018827914756098,mp-891956
Sr2HfMgCrO6,2.5216000000000003,-3.018762971363635,mp-2226857
NaVF3,2.020699999999999,-3.017998288,mp-1120756
Ba2SmMoO6,0.9085,-3.0179772245,mp-1095110
Sr3V2O8,3.676,-3.01776698923077,mp-19386
LiV2F9,1.7635,-3.017490097361111,mp-1176613
Nd4(WO5)3,3.260199999999999,-3.017412358522727,mp-1220965
CaCr2F10,2.412899999999999,-3.017364530769231,mp-1385157
Li2VSi7O16,1.2348,-3.017334845064103,mp-757841
Ba5Lu8Ni4O21,1.4777,-3.016728679166666,mp-1214642
VF2,0.0,-3.016645405,mp-555934
Li4Y3VO8,2.207,-3.016320093958333,mp-1290983
KMnF3,2.4058,-3.016103159036205,mp-1205353
Ba2LaV3O11,3.5103,-3.015995105882353,mp-1214937
Ca3Fe2(SiO4)3,2.6416999999999993,-3.015575760875001,mp-6672
Na2LiVF6,0.0,-3.015468999609195,mp-1114229
Y2CrFeO6,0.426899999999999,-3.015071830999999,mp-1216153
Ca5V3O12,0.0,-3.014934521999999,mp-1214210
CsVFeF6,1.814,-3.014621490517241,mp-1228886
Ca4ZnFe3(SiO3)8,3.1671,-3.0144740885,mp-1227136
Li3Mn2F7,3.6102,-3.014349321738505,mp-764189
Rb2MnSi5O12,3.1728,-3.014348673084052,mp-1195883
BaSrCeCrO6,0.0,-3.014313949999999,mp-1516756
La5MnRe3O16,0.0,-3.014136212417241,mp-743906
BaTb2Mn2O7,0.6727999999999991,-3.013942816182949,mp-554136
SrLa9Mg2Ga6(FeO14)2,0.9001999999999991,-3.013871276666667,mp-684845
MgMnF6,2.8029,-3.013671432866378,mp-1391800
La5Sm3Cr7FeO24,2.133199999999999,-3.013574311000001,mp-1075954
RbMnF3,2.943699999999999,-3.013482878086206,mp-558749
KLaHfCrO6,0.0,-3.013004265224999,mp-1522697
SrSmDyMnO6,2.277699999999999,-3.012987572459771,mp-1523010
Nd5Mo3O16,0.0,-3.0127984146875,mp-558671
Ba8SrCa3(WO6)4,3.366199999999999,-3.012676367750001,mp-1228251
Y2Mn3(SiO4)3,3.0614,-3.012546228814654,mp-1154524
Ba3Nb2NiO9,2.680799999999999,-3.012424455833333,mp-1214516
Ba6Na2Nb2V2O17,2.88,-3.012082031646849,mp-1228103
MgMn(SiO3)2,3.101,-3.011844112668105,mp-1041845
K2VOF4,2.7902,-3.0117675868125,mp-1224276
Li2CrSi7O16,2.2089,-3.011661767948719,mp-752731
CaFe(SiO3)2,3.6902,-3.01130371225,mp-18890
UV2O6,0.0,-3.011178127777776,mp-22544
CeEu2WO6,0.0,-3.010968487250002,mp-1520203
Ca3V2O8,3.5793,-3.010771011208791,mp-532028
Li3V4F19,1.3963,-3.010585777307692,mp-776128
Li4V2OF7,1.015799999999999,-3.010449754880952,mp-765046
CsTaCo(OF2)2,2.4567,-3.010235552443168,mp-684727
MgV(SiO3)2,2.3372,-3.010163520250001,mp-1041866
Ca3Si4(MoO7)2,0.5236000000000001,-3.010128225652173,mp-1266531
BaNd2NiO5,1.9985,-3.010076863333333,mp-18763
Sr3WO6,3.4987,-3.009926146499997,mp-755326
LaMnO3,0.0,-3.009731305586207,mp-17554
Ca2VClO4,3.4639,-3.009406187812499,mp-557276
CaCeMnO4,0.0,-3.009171259347289,mp-1227511
CaLa2FeO6,0.5577000000000001,-3.00907254825,mp-1272475
Ba6Nd2Y(MoO6)3,1.1591,-3.0089145455,mp-1228132
Ba2SrV2O8,3.7201,-3.008776175384615,mp-1228399
Li8Zr7Fe(PO4)12,0.0,-3.007569422399749,mp-1176803
Ca2Nb2CrO8,1.669899999999999,-3.007563570769231,mp-1047030
Ca3Fe2(Si2O7)2,2.2344,-3.007258125869565,mp-1254209
Sr2UCoO6,0.0,-3.006939564499999,mp-22415
La4CuNiO8,0.0,-3.006924345357144,mp-1223008
Sr2CeCrO6,0.0,-3.006877589999999,mp-1520688
Gd2CrSbO7,1.9649,-3.006558049545453,mp-1224730
La2CrMoO6,0.0,-3.006532805000001,mp-1223257
Mg2Ta2FeO8,3.667,-3.006367800743589,mp-1046118
Nd2VFeO6,0.7975000000000001,-3.0063176375,mp-1220528
Ba2TaFeO6,1.862299999999999,-3.006213886233333,mp-1205671
TmMoO4F,3.7173,-3.006063736785715,mp-557086
K2RbVF6,0.0,-3.0060214212,mp-1111380
SrPrMnNbO6,0.7382999999999991,-3.00598780395977,mp-1522937
Ba2TbV3O11,3.4739,-3.005782029803921,mp-1214852
Ba2ErV3O11,3.4323,-3.005672768823529,mp-1215102
BaCaEuWO6,0.1995,-3.005478443500001,mp-1520996
Na3CaMgCr3(SiO3)8,3.1858,-3.005437608728448,mp-1221259
KCr2PbF9,3.139599999999999,-3.005327416519231,mp-554377
Li2Zr7Fe(PO4)12,0.0,-3.0046915157483,mp-759723
La12Ni6O25,0.0,-3.004552855232558,mp-37843
Li6Ti8Ni(PO5)8,3.022299999999999,-3.004299587996977,mp-731452
Ba2HoV3O11,3.4518,-3.004121803676471,mp-1214969
Ba2DyV3O11,3.4698,-3.004104715980392,mp-1214963
Ba10Nd4Y(MoO6)5,0.0,-3.0039359792,mp-1228897
Ba2UCoO6,0.0,-3.003749728999999,mp-20966
Li2Mn3F8,3.139799999999999,-3.003115642343059,mp-1177965
Sr2PrVO6,1.658399999999999,-3.002961331166667,mp-1517869
NaAl6Fe3Si6B3O30F,2.5620000000000003,-3.002951568077586,mp-18401
Li2V4OF12,1.7229,-3.001945568508772,mp-757416
Sr3CaTi2Mn2O12,0.0,-3.001871007126437,mp-1076138
La2MgFeO6,0.5422,-3.00154486,mp-1272866
CaMg30VO32,2.0036,-3.00151527046875,mp-1038136
ErMoO4F,3.7331,-3.001477765,mp-556766
K3Mn2F7,0.7123,-3.001450548551007,mp-554144
KNa2LiTi2Fe2(SiO3)8,2.0557,-3.001443728000215,mp-510635
LuWO4,1.9631,-3.00140826027778,mp-754111
Sr2MgV2(Si2O7)2,2.3901,-3.001389160652174,mp-1233213
Li4Ti5V3O16,0.6383999999999991,-3.001360933571429,mp-774230
Ba2SmV3O11,3.501,-3.001296089558824,mp-1214884
Ca2MnNbO6,0.0,-3.001140919793104,mp-1227519
K2RbMn2F7,2.6186,-3.000733195238506,mp-558227
Li3Cr(Si2O5)3,3.5858,-3.000462662899999,mp-765207
Li2Ti3FeO8,1.9638,-3.000462087797619,mp-775306
K4Hf3Mn(PO4)6,3.778299999999999,-3.000134102889163,mp-697304
Eu3V2O7,0.0,-3.000047516666667,mp-1212877
Li4Ti5VO12,0.0,-2.9998074996969692,mp-760000
Mg3V2(Si2O7)2,2.0513,-2.999751579999999,mp-1250648
CsRb2VF6,0.0,-2.999623885465518,mp-1111390
LiLa2TiCrO6,0.2176,-2.999418871515151,mp-1236061
MnCrF5,2.2668,-2.99918572899015,mp-555156
Zr2Mo(PO6)2,3.1721,-2.999141319222689,mp-12540
Ba3NdV3O12,3.248199999999999,-2.99912062986842,mp-1228766
LiCa2Mn2Si5HO15,3.4069000000000003,-2.999119769055606,mp-1202461
SrLa2Mn2O7,0.0,-2.9990426946551723,mp-1218243
Sr6La14Ti3Mn17O60,0.0,-2.998763587248275,mp-1173230
Ca3CrF6,0.0624,-2.998172983999999,mp-1205573
Ba2YV3O11,3.4645,-2.998095617499999,mp-1214954
HoMoO4F,3.7444,-2.998061516785714,mp-559838
DyMoO4F,3.7538,-2.9978638091666663,mp-554213
TbMoO4F,3.7732,-2.99779725702381,mp-561387
Li11V6O5F19,1.027399999999999,-2.997220757723577,mp-849591
Ba2GdV3O11,3.143,-2.997164150294117,mp-1215029
Mg3V2(SiO4)3,0.0,-2.997128344875,mp-14043
PrEuNbCrO6,0.0,-2.997073832666666,mp-1517625
Ba2NdV3O11,3.492499999999999,-2.996975628235294,mp-1214860
KTi3FeO8,2.3423,-2.996779545942307,mp-1223303
Li2MnF5,0.0,-2.9967452349497132,mp-556229
V5F11,0.6265000000000001,-2.9966478801562473,mp-760030
Nd2MnGaO6,1.2114,-2.996612798543103,mp-1220573
CaMg30MnO32,2.9903,-2.9962732051239223,mp-1037768
K2LiMoF6,4.4161,-2.996193935783333,mp-1110837
LiMg30CrO32,3.8003,-2.995778138489583,mp-1040079
Eu2CoSi3O10,0.041399999999999,-2.9955398639062523,mp-1199416
Cs3V2O2F7,2.8433,-2.995534360640394,mp-1226167
Pr5Mo3O16,0.0,-2.9951815867013902,mp-1202854
Sr2MnNbO6,1.202,-2.994861893793104,mp-1285223
La16Mn15O48,0.0,-2.994838509480577,mp-863425
Ba4ScReWO12,1.8841,-2.994646916710525,mp-1228167
Ca3V2O7,0.9998,-2.994618132083334,mp-1370470
La3NdMn4O12,0.0,-2.9944712192112073,mp-1223156
Mg5Al4Fe(SiO4)6,3.171899999999999,-2.9944558516249993,mp-1249333
BaLiCaVP2O9,2.02,-2.993959981341269,mp-759611
SrEuYWO6,0.0,-2.993868995500001,mp-1522166
Ba3V2(PO5)3,1.5997,-2.99330578310559,mp-558477
Ba2PrV3O11,3.4927,-2.993212700980393,mp-1214859
CaCoF5,1.3636,-2.993190625714286,mp-1398579
Ca2MgWO6,3.6923,-2.9928794245,mp-19324
Li5FeF8,3.8678999999999992,-2.99276931547619,mp-776687
Na2MnGaF7,2.7144,-2.992714120289968,mp-21762
La12Mn11O36,0.041599999999999,-2.992629364021042,mp-530455
Y3Cr2(GaO4)3,3.2335,-2.9926090252499993,mp-1207967
LiScVO4,1.4197,-2.992170904047618,mp-754728
Ti4Mn(PO4)6,2.4649,-2.991900896832042,mp-19383
NaTi3FeO8,2.0839,-2.991848263952254,mp-1220877
CaTiV(PO4)3,1.3726,-2.991754182070105,mp-1044237
SmMnO3,0.2744,-2.991211237586206,mp-22203
La14Mn13O42,0.0,-2.991185659030485,mp-867658
ZrCrO3,1.5603,-2.9911010485,mp-755055
K2MnF4,2.807,-2.990939026061577,mp-557610
Li2Cr(Si2O5)3,1.3259,-2.9908373997569453,mp-775349
Sr2EuWO6,0.008399999999999,-2.9907515225,mp-1519604
Ca3Si3(WO6)2,2.481199999999999,-2.99070719425,mp-1154711
SrLa3MnCuO8,0.0,-2.990591434137932,mp-1218246
RbTi3FeO8,2.2955,-2.990403979038461,mp-1219542
SrLiNiF6,0.0,-2.990113115925926,mp-559663
CaMg30CrO32,1.711799999999999,-2.98986778203125,mp-1037960
KCa10V7O28,3.8048,-2.989825265048913,mp-555127
Ca5Co3(SiO4)4,2.702999999999999,-2.9897360635714283,mp-1227139
Er8Mn3Mo5O28,0.666,-2.989450483949843,mp-1225972
Rb2LiMoF6,4.622999999999999,-2.9892687018333333,mp-1110654
K2Be3Co2F12,0.0088,-2.98828413931579,mp-1213397
TiNbCrO6,1.6732,-2.988187130092593,mp-1216808
Y2V3O9,0.9405,-2.98816146375,mp-1331382
KUVO6,1.9806,-2.987966934138888,mp-541148
Li2VOF3,2.3687,-2.987914051666667,mp-765507
CsMnF3,3.4556,-2.987847402850575,mp-558702
Li5Sc2Fe3(SiO3)10,2.7961,-2.9876240383333332,mp-775172
Pr2VFeO6,1.113499999999999,-2.987337114833333,mp-1219885
La10Mn9O30,0.0,-2.986974477579169,mp-757943
CaTiCr(PO4)3,2.4130000000000003,-2.986791975681216,mp-1044314
V6F13,0.074799999999999,-2.986752309736842,mp-760168
Sr3LaTa2(CoO6)2,0.0,-2.986595018733334,mp-1173242
SrCoF5,0.7891,-2.9864417367857152,mp-1208712
CaEuHfFeO6,0.0,-2.986229727499999,mp-1517115
NbFeF6,0.0892,-2.9860387975,mp-541138
LiV8F33,1.1614,-2.985874394603175,mp-781739
Rb2NaMnF6,1.6786,-2.9853094724310343,mp-558050
BaPrTaCoO6,1.685299999999999,-2.985226682399999,mp-1227898
Sr2MgWO6,3.4311,-2.985156883499999,mp-19420
Cs2KMoF6,4.1117,-2.985054783656035,mp-557133
LiVSi3O8,2.9766,-2.985023533141025,mp-765984
LiMn2F5,2.8109,-2.9849194123994263,mp-779085
Rb2Be3Co2F12,0.000199999999999,-2.9848240521052642,mp-1210314
Li4Y3CrO8,3.3026,-2.984623385052083,mp-756514
Rb2MnF4,3.0201,-2.984600183275862,mp-1206523
Sr2YAlCr2O7,1.6052,-2.984573137692308,mp-1046696
La3PrMn4O12,0.0,-2.98455551691954,mp-1223133
Ba2CaEr3(NiO5)2,0.285999999999999,-2.98453298611111,mp-1228555
TaMnNbO6,2.569,-2.984529658918264,mp-1217948
Mg3Fe(SiO4)2,3.8682,-2.9844644692857143,mp-1222201
Eu2ZrWO6,0.0,-2.984259763000001,mp-1520588
LiCaNiF6,0.0,-2.984132797592592,mp-559584
La8Mn7O24,0.0,-2.983956423731212,mp-531566
SrEuDyWO6,0.0,-2.983872457666667,mp-1521152
Li3FeF6,3.9858,-2.9838630828333232,mp-776627
Ti3MnO8,1.8237,-2.9836072214942533,mp-782664
ScMnO3,0.0,-2.983540803252874,mp-18954
K2NaMnF6,1.5314,-2.983474632381034,mp-1079339
Cs2KMnF6,1.7435,-2.983461569449137,mp-560861
CaMg30FeO32,3.262499999999999,-2.98332462109375,mp-1038045
Ba2NdMoO6,0.0,-2.982738908749999,mp-19389
Li2Ti3CoO8,2.4572,-2.982573306904761,mp-768110
MgTi2NiO6,0.0,-2.9824915104166663,mp-1221952
DyWO4,1.9468,-2.9821638769444423,mp-755673
GdMnO3,0.404099999999999,-2.98195311758613,mp-510575
Ca3TiNiO6,3.1552,-2.9818401284848473,mp-997184
PrEuMnNbO6,0.1095,-2.98178562545977,mp-1520922
HoMgV2O6,1.0003,-2.9816648690000003,mp-1041108
Al8Zn3CoO16,3.3987,-2.98165895625,mp-1228970
Ca9LaTi4Mn6O30,0.0,-2.98163358991839,mp-744380
LaCeMn2O6,0.0,-2.981461745086207,mp-1222969
MgFe(Si2O5)2,3.9083,-2.981407432031249,mp-1043548
BaPr2NiO5,2.167399999999999,-2.98089192425926,mp-18802
MgV2(OF2)2,1.3992,-2.980755077222223,mp-2227100
SmMoO4F,3.8342,-2.980700866785715,mp-558638
Mg2TaVO6,1.525999999999999,-2.9803983817333353,mp-1348043
Sr4Li4Nb5FeO20,1.344999999999999,-2.9803173689215683,mp-772076
Al4Fe(SiO6)2,0.0,-2.9802000421052632,mp-1197460
Ba8Sr3Ca(WO6)4,3.434,-2.9801745892500002,mp-1228515
SrNdMnO4,0.0,-2.98013788934729,mp-1217982
LaNdMn2O6,0.0,-2.9800901233362063,mp-1222928
Rb2NaMoF6,4.1434,-2.980085377637931,mp-560963
LiV3OF11,1.4645,-2.979902225520833,mp-777269
Sr2Fe2H2OF10,3.548499999999999,-2.979767527647059,mp-735131
BaCaZrWO6,0.0,-2.979708477,mp-1519763
LiMg30MnO32,1.5303,-2.979540721582255,mp-1038038
K4Mn3F12,0.84,-2.979317092515415,mp-561377
Sr2Y2Cr2O7,0.0,-2.979280948461538,mp-1047092
Nd2NiO4,0.0,-2.97884393,mp-505052
KVOF3,0.018299999999999,-2.978570293708334,mp-1192089
NaMg30CrO32,3.7638,-2.978457580959051,mp-1039737
MgCr(SiO3)2,2.372,-2.978110237999999,mp-1041862
Sr2VBrO4,3.2847,-2.9779222721875,mp-1208766
LiVOF3,1.5838,-2.977853840555556,mp-765230
V3(OF3)2,0.0,-2.977695617272727,mp-1568809
HfCrO4,1.1371,-2.97761368375,mp-1980701
BaGd2Mn2O7,0.0,-2.977401411946841,mp-510248
U2V2O11,1.9082,-2.976898371999998,mp-505253
CaMg30NiO32,4.0235,-2.9767168290624992,mp-1038123
Mg30AlCoO32,1.3438,-2.976618446875,mp-1038344
Cs2MnF5,1.3155,-2.9765578840301723,mp-555223
Ta2FeO6,2.7333,-2.976409758851888,mp-31755
Li3V4(OF3)3,1.896599999999999,-2.976272701052632,mp-753498
LiV2F5,2.3324,-2.976270379166667,mp-758252
LiVCdF6,2.571799999999999,-2.9762121275925733,mp-1210866
Sr2HfFeO6,0.0,-2.9756634325,mp-1078912
Sr16V8O31,0.464299999999999,-2.975661722272724,mp-767432
K2LiFeF6,3.9473,-2.975417636783333,mp-1112185
YMoO4F,3.7464,-2.975229910357143,mp-555913
RbVOF3,2.7001,-2.975115630416667,mp-559739
CsVOF3,2.7058,-2.975021502859196,mp-557931
Eu2ZrFeO6,0.0,-2.974647611000001,mp-1519374
V4OF12,0.0,-2.974598109117646,mp-758958
CaLaPrMnO6,2.698,-2.97455164745977,mp-1522145
LiV(SiO3)2,2.1872,-2.974445269708334,mp-765346
La5Sm3Cr6(FeO12)2,1.9061,-2.974390286,mp-1076580
Eu2DyWO6,0.0,-2.974335327166666,mp-1518182
SrCaFe(PO4)2,3.991399999999999,-2.97432898686813,mp-1046496
Mg30TiVO32,0.0,-2.974279532395833,mp-1036804
YMg30VO32,0.0,-2.9741449785937513,mp-1037737
YMg30CoO32,1.0697,-2.9739356809375,mp-1037750
AcMnO3,0.0,-2.9736300230862063,mp-864911
Sr5La3Mn8(O2F)8,0.0,-2.973383405211206,mp-694947
Ca4MnFe3(SiO3)10,0.0,-2.973231989956895,mp-1227749
LaNd3Mn4O12,0.721699999999999,-2.973206793961206,mp-1222962
SrPrMnO4,0.0,-2.972998172799671,mp-1217972
La8Ni4O17,0.0,-2.9728455825862072,mp-556203
Li3Nd3(WO6)2,3.7084,-2.972712194625,mp-557717
La2GaFeO6,2.307899999999999,-2.972531340000001,mp-1223350
La6Mn5O18,0.0,-2.9724645934363862,mp-531111
MgTi2V2O8,1.5279999999999991,-2.9724210316666673,mp-2227435
LaMgTaCrO6,2.2249,-2.972347464733332,mp-1049266
MgV2(SiO3)4,0.0,-2.972220134473685,mp-2230687
KRb2MnF6,1.704699999999999,-2.972165431018103,mp-1205717
NaVF6,3.2498,-2.9721625540625,mp-1120731
K2LiMnF6,0.0,-2.972153750576436,mp-1111670
Rb2MnF5,1.5873,-2.972131870991379,mp-555014
MgV2Pb(OF4)2,2.9101999999999992,-2.972085404642857,mp-2226519
Ba2ZnFe2CuF14,0.9167,-2.972084659250001,mp-1045827
LiTi4Mn(PO4)6,0.0,-2.972066451734856,mp-704600
SrLa2CeMn2Cr2O12,0.1641,-2.971871034793103,mp-1218309
Mg30AlNiO32,1.7857,-2.971837685156249,mp-1038314
Ba2TiMnO6,1.158799999999999,-2.971727702376438,mp-1228358
K2U2MoO10,1.7367,-2.971562837633332,mp-704306
Cs2NaMoF6,4.3824,-2.971331244068967,mp-1110968
Mg30MnVO32,1.9997,-2.971317237623922,mp-1038167
Sr3MnF12,0.0,-2.9711750523706892,mp-1208713
ThV2O6,1.498199999999999,-2.971173456666667,mp-1208215
SrMg30VO32,1.8598,-2.9711245765625,mp-1036758
Nb9VO25,2.0136,-2.970839276999999,mp-774246
Mg30AlVO32,0.0,-2.97082391296875,mp-1038339
Al4Co(BO5)2,1.7495,-2.970759331078431,mp-19348
Mg30AlCrO32,0.0,-2.9706377106249993,mp-1038272
LiVF6,3.0939,-2.9705122079166673,mp-2710677
YMg30MnO32,0.0,-2.969918358248922,mp-1037959
Sm4MgV4O12,1.125599999999999,-2.969496090714286,mp-1233706
Cs2CrF6,0.0,-2.9694858632567063,mp-557324
SrEuZrFeO6,0.0,-2.9694834675000013,mp-1520461
Mg11AlFeSi11O36,2.7518,-2.9694714162499998,mp-695082
SrLa3Mn2Cr2O12,0.4274,-2.9694355790431053,mp-1218286
K2Sc2P2WO12,3.721799999999999,-2.96927733980451,mp-1224963
Ba2PuMnO6,0.0,-2.969255502668103,mp-1205598
SrMgV(PO4)2,2.459399999999999,-2.969183408021977,mp-1046410
Mg30TiMnO32,0.0,-2.969158904863505,mp-1038112
CaZrV2O8,2.525,-2.969095396666667,mp-1226968
BaFeP(O2F)2,2.2199,-2.968971071349206,mp-1214449
LaPrMn2O6,0.0,-2.9687474292528733,mp-1222975