formula,bg,formation_energy,mp-id
Na2GdMnAs2O9,1.257,-2.326703064045977,mp-1204299
Li4TiCu2Ni3(PO4)6,0.050899999999999,-2.326652072113094,mp-776613
BaMo4(PO8)2,1.7387,-2.326639888664596,mp-557147
Na2CrSiCO7,0.9031,-2.326602592313218,mp-772121
Li12Fe3CoP4(CO7)4,2.171699999999999,-2.326530082857143,mp-1178117
Na2Fe7(PO4)6,0.5197,-2.326503787964507,mp-1221450
Al2Mo2O7,0.5063000000000001,-2.326478674545453,mp-1262001
LiMnSO4F,4.1107,-2.326407494845546,mp-942702
MnPO4F,0.0,-2.326389481081985,mp-25426
Y2Co2O5,0.0,-2.326374695,mp-1187759
LiFe2O2F3,1.5841,-2.326345968541666,mp-755438
NaLi5Fe2P2(CO7)2,3.6574,-2.326326305666603,mp-1101478
Y2CoTe2(SO7)2,3.0587,-2.326268848730158,mp-1190505
Sr5Ca3Mn4(FeO6)4,0.0,-2.326245681043102,mp-1076796
BaCr10O15,0.0,-2.326235645384616,mp-19500
Ca2Mn3P3H6O17,0.8662000000000001,-2.326150167103924,mp-1182836
Li4CrFe2Ni3(PO4)6,1.427699999999999,-2.326144626779762,mp-776753
Mg6FeBiO8,0.6280999999999991,-2.326085679374999,mp-1032215
Li2Cr3SbO8,2.9106,-2.32606837297619,mp-775393
MnFe7(PO4)8,1.440899999999999,-2.325978583022374,mp-766418
NaP(WO4)2,0.0,-2.3259336363351792,mp-555944
BaNdCo2O5,0.0,-2.325878256944446,mp-24853
MgV4SnO12,1.4647,-2.325838688333333,mp-2233097
DyCrO5,0.5577,-2.325755222202379,mp-1213391
Li2Mn3P4(HO4)4,3.7852,-2.3257532996217662,mp-778123
Li3Nb2Fe3O10,1.626399999999999,-2.325701104444445,mp-753638
Mn3Ni2P6WO24,0.040699999999999,-2.325642961156952,mp-757043
Li6V5SbO12,0.8348999999999991,-2.325557530416667,mp-765677
K2Na2Nb(WO4)3,0.0,-2.325379436362931,mp-1076812
Na5Gd(MoO4)4,3.3922,-2.325360294303714,mp-556070
K2BiMoPO8,3.584799999999999,-2.325122204934065,mp-556606
MgMn4Cu2(PO4)6,0.373599999999999,-2.325029689853548,mp-1234087
Fe5(P2O7)4,0.0,-2.325013454564459,mp-705433
LiCr3P3(HO6)2,1.9549999999999992,-2.324846425464853,mp-778901
Fe7(SiO4)4,1.925999999999999,-2.324843376666666,mp-1197365
Mg2Cr2O5,0.5762,-2.324679928333332,mp-1326573
Li6Co3P8O29,0.0,-2.324632977981366,mp-705373
Li3Co(OF)2,1.2846,-2.324610656875,mp-754312
Na6U(Mo2O9)2,2.2362,-2.324456541492271,mp-561342
Li2MnSiCO7,1.3485,-2.324438292049809,mp-768606
Li3Cr2P2(CO7)2,0.0911,-2.324397854751551,mp-763241
MgFe2BO5,1.468,-2.3242609279629622,mp-1196909
NiP5O14,0.248,-2.324211207160712,mp-818273
Ca3Mn3(AsO4)4,2.0539,-2.324098579376658,mp-1047495
Eu2NiRuO6,0.0,-2.323986671499997,mp-1213246
Nd2CoTe2(SO7)2,3.1295,-2.323884202063491,mp-1190341
Rb2BiMoPO8,3.523,-2.323859505549451,mp-1197894
Li12VNi3P4(CO7)4,1.5977,-2.323820032087912,mp-766677
Li2Nb2W2O13,0.3811,-2.323819299035089,mp-1222998
Cr4Cu3(PO4)6,0.2974,-2.323718528320463,mp-17570
Na2U(MoO4)3,0.0,-2.323714841542145,mp-1221309
LiVP4(H2O7)2,2.262299999999999,-2.323706724871031,mp-755618
Li5TiMn3O8,0.2561,-2.323607316693712,mp-761048
Na3MoO4F,4.5355,-2.323430885181992,mp-1194849
Li2Ti(FeO3)2,1.817699999999999,-2.32336962030303,mp-758964
Li3Mn3SiO8,1.1074,-2.323324132586207,mp-761765
Li12Fe3NiP4(CO7)4,3.159,-2.32328385978022,mp-766564
LiEu(MoO4)2,0.0,-2.323269312777778,mp-1212253
ThV2H4O9,3.1451,-2.323252834062499,mp-1195998
TbCrO5,0.5141,-2.3231866698809522,mp-1201824
K8Hf(MoO4)6,4.0372,-2.323178935846153,mp-555607
MgTlV4O10,1.341099999999999,-2.323105237395833,mp-2240865
Li5Mn2V3O10,0.8444,-2.323020288126437,mp-754473
Rb2FeOF5,0.0,-2.322998488888888,mp-731573
NaSrSmMnO6,0.0,-2.322993727431035,mp-1519593
LaV2IO9,2.51,-2.3229724725,mp-1196184
TiNi3Sb2(PO4)6,0.6416000000000001,-2.322971010588625,mp-775992
Li4Ti2Cr3Fe3O16,0.0,-2.322920464642856,mp-770520
Cr2P2O9,0.048699999999999,-2.322736318021978,mp-1040982
Mn4SiO7,0.0,-2.322728055143677,mp-18442
Li4Ti3Mn2(Fe2O9)2,1.1509,-2.3227114630385612,mp-1177270
NaLi2FePCO7,4.1429,-2.322678406168371,mp-756248
Sr2PrNiO6,0.0,-2.322613431166666,mp-1518098
Li3Fe4P9O32,0.5851000000000001,-2.322519145453868,mp-705390
K2MnPCO7,1.1157,-2.322483721839491,mp-769604
ZnNiP2O7,3.4975,-2.322479808571428,mp-1048278
KMnVO4,2.579399999999999,-2.322389123061576,mp-556213
CaAlFe3O7,1.8298,-2.3222562578124992,mp-1214299
Li5Ti2Mn8O20,0.0,-2.322254698622333,mp-771355
LiV(WO4)2,1.8383,-2.322173241111111,mp-1210933
Ti3Mn3(TeO8)2,0.2444,-2.322096805296935,mp-756447
La7SmNi6(AgO10)2,0.0,-2.322039261064814,mp-1099871
Rb5LiSi2NiO8,2.6710000000000003,-2.32191129122549,mp-559477
Li3Ti(FeO3)2,0.0316,-2.321905860277777,mp-774498
Li2Ni4OF8,3.3502,-2.321904841111111,mp-765224
Pr2Fe2S2O3,0.0,-2.321706072592592,mp-1079573
MgNiSbP2O9,0.0,-2.3216903706632652,mp-1043176
Li12VCo3P4(CO7)4,0.7799,-2.32150045978022,mp-766565
Fe2OF3,1.6847,-2.321488981666667,mp-758397
Li2FeCu(PO4)2,0.0,-2.3214841189965982,mp-758722
Cr2Fe3Co(PO4)6,1.7118,-2.3214506499404752,mp-776058
CsLiWO4,4.4294,-2.321442898998358,mp-1178391
Li9Fe4(SiO5)4,0.0,-2.321320915945945,mp-759075
K2V3(PO5)4,0.0213,-2.321259768209359,mp-1200624
Ti2ZnCoO7,0.317999999999999,-2.321244953674242,mp-1042595
Rb2Ce2Fe4O11,0.170399999999999,-2.321242692105263,mp-1094081
Ca7MgMn7FeO24,0.0,-2.321222350012931,mp-1076214
K2MnP2H2(O4F)2,1.4885000000000002,-2.3211734467186322,mp-1199919
MnB12(H5O12)2,4.6582,-2.321113506285767,mp-1194831
Fe5Sb(PO4)6,2.194,-2.3210340229960322,mp-771885
Nb3ZnFe3(O6F)2,1.7527,-2.320623135238096,mp-698668
Li13Mn3Nb2O16,1.074799999999999,-2.320507379621366,mp-764234
Li2Fe2P2O9,1.7498,-2.3205006457301582,mp-765643
CoSn(PO4)2,1.903899999999999,-2.320477810773809,mp-863354
SrMgCoO3,1.633499999999999,-2.320442119999999,mp-2228095
Mn2NbNi3(PO4)6,0.0,-2.320438919547755,mp-1176556
CsV3B2P4(H4O11)2,0.0,-2.320343315663998,mp-1200471
NaV6O15,0.0,-2.320302052108151,mp-757364
Rb2MgNi2W2(OF)6,2.1395,-2.320213093157894,mp-2230239
V5O12,1.0797,-2.320203241176472,mp-778252
ZnSi2WO6,0.0,-2.320195995,mp-1163919
AlNi2BO5,3.621100000000001,-2.320189297407406,mp-1214877
Mn2V2O7,1.204,-2.32008509916928,mp-19142
WO2F,1.6465,-2.32005222,mp-2675517
Li3CrBAsO7,3.0655,-2.319998335705127,mp-754292
LiV3Zn2O8,1.377499999999999,-2.31999644952381,mp-1280709
Fe7(PO4)6,0.0464,-2.319908275347489,mp-510351
CoBP2HPbO9,3.2483,-2.319881564313492,mp-1193243
EuCrTeO6,0.0,-2.319867631296298,mp-1189915
KCrNiOF6,0.4728,-2.319781162225,mp-1223657
MgMn2O3,1.112499999999999,-2.319748100977011,mp-1221950
Mg2SbMoO6,0.7279,-2.319727882999999,mp-1373183
Li4Fe2Ni3Sn(PO4)6,3.0536,-2.319630161404761,mp-780843
UVH3O7,2.095799999999999,-2.319607172604166,mp-1194810
Li2CrPO6,0.8508,-2.319461249630952,mp-778669
Li12MnNi3P4(CO7)4,2.735999999999999,-2.319415826086585,mp-766513
NbFe3(PO4)6,0.0,-2.319238302289916,mp-775868
Li6V3W3O16,1.3779,-2.319179365714286,mp-771515
LiMnPHO5,1.4454,-2.319095617739691,mp-755477
Li7Fe8(BO3)8,1.8478,-2.318966639716311,mp-1176890
Mg3V6(FeO6)4,2.2325,-2.31892518554054,mp-19067
Cs2CoAgF6,1.8768,-2.318850262097701,mp-1113539
NdWNO3,3.013,-2.318555237083333,mp-1220201
Li11Fe12(BO3)12,1.0187,-2.3183690820657272,mp-766960
CaCoNiP2O9,0.1526,-2.318235769056122,mp-1043153
Mg3Mn2(GeO4)3,0.167399999999999,-2.318154776293104,mp-1327961
Sr12Zn2Co6O25,0.036,-2.318124754555555,mp-1218902
LiMn2O3F,1.1405,-2.318097760599344,mp-753835
Li3MnV4O8,0.802299999999999,-2.31807446424569,mp-755305
Li4VCr(WO6)2,1.4106,-2.318009224666666,mp-757863
CaCr2O5,0.5819999999999991,-2.317883438125,mp-1394047
Li3Fe3(BO3)4,1.827299999999999,-2.317873538030303,mp-766497
YNi(WO4)2,0.9116,-2.317790333333333,mp-1041783
KEu(WO3)2,0.0,-2.317785544224999,mp-1517967
Li5Ti2Ni3O10,0.5196000000000001,-2.317704219166665,mp-755014
Li4V3FeO10,1.2339,-2.317688475740741,mp-754700
NaFe3(PO4)3,0.0817,-2.317678571595151,mp-556692
Zn3Fe2(SiO4)3,2.4973,-2.317652705125,mp-1258162
Na3CoBPO7,0.3966,-2.3175673586882652,mp-756305
V3SnO8,0.8160000000000001,-2.317558144583333,mp-778681
MgV3FeO8,1.0783,-2.317459627307693,mp-2218985
Co(PO3)3,1.612199999999999,-2.317413669532967,mp-584429
V4ZnO8,0.0,-2.317225680769231,mp-1408935
Ba2MnRuO6,0.0,-2.317134364793104,mp-1228678
Na5V36O88,0.0,-2.31704451912323,mp-761084
Ba2Ca3Tl2Cr4O12,0.0,-2.317023345072464,mp-1838903
CsMgV2O5,1.1202,-2.317019782183907,mp-2223641
LiV2S2(O4F3)2,1.1574,-2.316865887017543,mp-769600
KNa7V8O20,0.8614,-2.316837562136255,mp-1076630
Na4V2O7,3.3364,-2.316589102251327,mp-648893
KNiPO4,3.272099999999999,-2.316560863484693,mp-22655
YRe(WO4)2,0.0,-2.316537380625,mp-1043439
BaV4ZnO8,0.9247,-2.316492755714286,mp-1044331
Pb5W3O9F10,0.0,-2.31645144648148,mp-1221334
Li4Ti2Co3O10,0.0,-2.316347254736841,mp-775264
Li6MnCo3(PO4)6,0.4883,-2.316340015394704,mp-759177
SrCr10O15,0.0,-2.316224642115383,mp-19505
Na2CoSiO4,2.2415,-2.316091047219828,mp-1210475
Li3Fe4F19,0.0,-2.316051387692308,mp-849302
Sr2Cr2GaO7,0.0,-2.316047616875,mp-1046770
Sr3(CoO3)2,1.3059,-2.316033964545454,mp-1192011
BaP4(W2O7)8,0.0,-2.315977108812616,mp-578781
BaV2SeO8,2.0881,-2.315907809570312,mp-1200210
Sr3Ca5Mn4(FeO6)4,0.0,-2.315868448043103,mp-1075968
Sr2Ca2Fe3CoO10,0.0,-2.315763352222223,mp-1076147
Li3Cr4O8,0.748499999999999,-2.31575317,mp-768634
K5U4VS4O33,0.3546,-2.315744923749998,mp-1197655
Li12CrCo3P4(CO7)4,1.2044,-2.3152753484340662,mp-766700
CaCr4O6,0.2576,-2.315274481818181,mp-1043430
Mo4P5O24,1.4836,-2.315242966612555,mp-705562
Li6FeNiP2(CO7)2,3.175599999999999,-2.315178422280219,mp-753528
Mn3Ni(PO4)4,0.0,-2.314926792598522,mp-756391
Li4CuNi3(PO4)4,0.1027,-2.314919111139456,mp-753889
Sr2NiTeO6,0.0,-2.314806014666666,mp-18908
Li5Fe2P2(CO7)2,1.624699999999999,-2.314682503038095,mp-1177151
Cr2(PO4)3,0.0,-2.314525626407562,mp-26610
LiNiRhF6,1.6961,-2.314478848703703,mp-1222366
TiMn2Ni3(PO4)6,0.0,-2.314437059918125,mp-776680
AlFe3F15,0.0,-2.314354470526315,mp-1041859
Sr6Fe2Ru2O11,0.0,-2.314328644999999,mp-1218553
Li2Fe(BO3)2,0.0,-2.31413772590909,mp-1177982
Ca3Ga2(FeO5)2,0.0798,-2.3141162835294122,mp-1362071
Li6MnO3F2,2.48,-2.314051957744253,mp-758808
Li3Mn3P8O29,0.0,-2.314023674091534,mp-1177655
Na2FeBPO7,0.5201,-2.314007649714012,mp-756481
SrVSnWO6,0.4945,-2.3139778385,mp-1521404
Cs3Mn3V4O16,0.889699999999999,-2.313976777029178,mp-648179
Li3V2FeO6,1.0744999999999991,-2.313883282500001,mp-757121
Na3Mg2(WO4)3,1.987099999999999,-2.313746582956896,mp-1210564
Li2FeBO4,2.4266,-2.313577470416666,mp-771016
BaNb2(FeO3)4,1.7345000000000002,-2.313539385789473,mp-1021950
CaMnWO6,0.855699999999999,-2.313512528659004,mp-1290713
Li12CrNi3P4(CO7)4,1.6346,-2.31334234978022,mp-1178083
Sr4FeRh2O9,0.0,-2.313339266562499,mp-1208805
Mn3Ag2(P2O7)2,1.7732,-2.313328752639036,mp-542161
NbFe3Cu2(PO4)6,0.0,-2.313281258273809,mp-776142
Li4Ti2Fe3Sn3O16,1.398299999999999,-2.313245089464286,mp-775705
MnV3O8,0.0,-2.312740945660918,mp-756087
Na2MgV4O10,0.532099999999999,-2.312636541044625,mp-2228976
Rb8Hf(MoO4)6,3.9993,-2.312537084615384,mp-1209493
LaMn2CdO6,0.0,-2.312514868086208,mp-1222846
LaZnFeMoO6,1.703199999999999,-2.312481552,mp-1044082
SrMn2(SiO5)2,0.0,-2.312443744057471,mp-1218300
Li2MnVO4,0.0,-2.312365460574712,mp-754402
Li4Ti3Mn3(CuO8)2,0.104699999999999,-2.312349553468802,mp-781494
Li4Mn3CoCu2(PO4)6,0.0,-2.3123462336245892,mp-1177395
CaLaFeCuO6,0.0,-2.3123060945000002,mp-1043903
NaP4(W3O11)4,0.2105,-2.312223147048371,mp-1221142
NaEuDyFeO6,0.0,-2.311965865804597,mp-1523129
MgMn6(O2F)4,0.479099999999999,-2.311862219609801,mp-2231791
VFe3Ni2(PO4)6,1.2105,-2.311803783273809,mp-758851
MnFe3Sb2(PO4)6,0.0,-2.311761579883005,mp-1176436
KP2(W3O11)2,0.0,-2.3114953811785712,mp-1223403
Rb7Fe7P8(HO9)4,2.2818,-2.311486694429723,mp-1205043
Cs2FeOF5,0.0,-2.311418956590039,mp-1189477
LaMo2O5,0.7131999999999991,-2.311332252083333,mp-560684
TiFe3Cu2(PO4)6,0.0,-2.311330954755291,mp-775996
Na2MnPCO7,0.6287,-2.311302962111043,mp-780530
Ba2Y2Co4O9,0.0,-2.311293959705883,mp-1228471
MnV4CrO12,0.2117,-2.311231840440611,mp-756885
Ce2Fe2S2O3,0.0,-2.311227995555555,mp-1078984
Cs3Li2Al(MoO4)4,4.2898,-2.311197851178162,mp-1213966
Al4(FeO4)3,0.0,-2.311031379999999,mp-1360989
NiSn(PO4)2,2.8697,-2.311008009732143,mp-757910
CaCd(WO4)2,3.1642,-2.310962862499998,mp-1227264
PrZn(MoO3)2,1.2831,-2.310961422166666,mp-1044778
NaV8O20,0.690099999999999,-2.310940236484344,mp-861842
Ba3Nd3(Co3O8)2,0.0,-2.310912558303571,mp-1228415
LiTiFe2O5,1.4659,-2.310862949074075,mp-753225
BaV4O7,1.2406,-2.3108065379166662,mp-1376683
Sr5Mn(Fe2O5)2,0.27,-2.310765782646553,mp-1315609
Mn3CrTe2(PO4)6,0.0,-2.310754350971767,mp-766852
LiLa2Fe2(TeO6)2,0.8026999999999991,-2.310705384035087,mp-1236767
Li4CrFe3Cu2(PO4)6,0.357999999999999,-2.310603819779762,mp-1177494
La7SmCo6(CuO10)2,0.0,-2.310536186666667,mp-1076871
Na3Fe(BO3)2,1.4589,-2.310522661247605,mp-772223
LiFe4(PO4)3,2.077699999999999,-2.310427394113095,mp-25825
Mg2BiWO6,1.9292999999999991,-2.310273343000001,mp-1343439
Li6W2O9,2.678,-2.31024284617647,mp-766827
Ba2La2Fe2Cu2O11,0.0,-2.310242369999999,mp-706229
Fe2Sb(PO4)3,2.2426,-2.310054099940476,mp-849513
ZnCoF5,1.5869,-2.310039565714285,mvc-14327
Li2FeSiO5,0.0,-2.310007001296296,mp-1304562
EuTl(WO4)2,0.0,-2.309999132361112,mp-1212775
AlCoO3,2.5603,-2.309915378999999,mp-1178576
CrF5,1.4475,-2.309802503333333,mp-639662
VGaO3,1.605299999999999,-2.309716111000001,mp-755580
NaMn3V4O12,0.4016,-2.309675483758621,mp-1302702
Li5Fe6(BO3)6,1.6058,-2.309635864190476,mp-766637
La5Sm3Ni7AgO24,0.0,-2.309614046541666,mp-1076249
LiMg2Mn3O8,0.0,-2.309574234794746,mp-756823
MgV2(GeO3)4,2.0233,-2.309570527631579,mp-2231362
Sr2YCu2MoO7,0.0,-2.309563151153845,mp-1043436
Li2MnP4H3O14,0.0,-2.309339470079963,mp-780330
Li7FeCo3(PO4)6,0.0,-2.309101976614402,mp-780179
NaCoBP2H2O9,3.3144,-2.309087102958231,mp-562382
K10Zr3Cd(MoO4)12,3.3373,-2.308949837601352,mp-699558
CsVWO6,1.787,-2.308930576628352,mp-1225856
Li4V3Cr2Sn3O16,1.340899999999999,-2.308877662797619,mp-777461
Cr2Fe3Ni(PO4)6,0.0,-2.308824654940477,mp-776011
NaMnVO4,2.3623,-2.308823436687192,mp-1193468
Li2Co3(SiO4)2,2.4703,-2.308821110888888,mp-758078
V3Cu2Te(PO4)6,0.072999999999999,-2.308814013458994,mp-760018
ThTe2MoO9,3.346499999999999,-2.308725281410256,mp-1195554
LiV9O22,0.0,-2.308598890885416,mp-767268
CrHgF6,0.0,-2.308362642812519,mp-558864
KLiWO4,4.8086,-2.308324216392856,mp-1212005
Mn3V(PO4)6,0.0,-2.307736045342653,mp-774638
LiCoB2O5,1.1837,-2.307684915740739,mp-770781
Li6MnNi3(PO4)6,0.0,-2.307643090644704,mp-766375
VCu(PO4)2,0.5038,-2.307575525357143,mp-755025
KSrPrMnO6,0.0,-2.307525675184771,mp-1519762
Mn3CrNi2(PO4)6,0.0,-2.307522991712507,mp-758927
LiMnCO3F2,1.654599999999999,-2.307444772345546,mp-766498
Na2FeNi2(PO4)3,0.0,-2.307405503584358,mp-1197871
LiHo2Ag2(WO4)4,0.0046,-2.307253790666666,mp-1235646
Li4Mn3V3(WO8)2,0.8176999999999991,-2.307249125611659,mp-753065
Li2Nb2Fe3O10,1.5532,-2.307226756862745,mp-753897
Ba3Co2WO9,0.0,-2.3071981186666672,mp-1228027
ZnNiF4,1.422,-2.307173309999999,mp-1407045
Li2Mn2P3(HO4)3,4.0012,-2.3071658870548792,mp-1177930
BaNaNdMnO6,0.0,-2.307121411681036,mp-1517829
Li2MnAgF6,0.0,-2.307116700626436,mp-1111362
Mn4Be3Ge3SO12,2.4229,-2.307096809966268,mp-21616
Li3FeP2O9,0.0279,-2.306978270285715,mp-26902
Li3MnCr3O8,1.7173,-2.306694291195402,mp-1177618
Mg2NiWO6,2.5452,-2.306627134499999,mp-1372490
Na2FePO5,0.0,-2.306577281239053,mp-818654
CaFe2(PO5)2,0.0,-2.306483458952381,mp-1044202
PW3O11,0.0,-2.3064757154761892,mp-29318
ZnP4WO12,0.0,-2.306471409920633,mp-1045883
CsMn2V2ClO7,1.894899999999999,-2.306442939655173,mp-561100
Li5Fe3Cu2(PO4)6,0.133199999999999,-2.306376931613093,mp-776209
Sr7CaMn3Fe5O24,0.0,-2.306349909844827,mp-1076651
LiCr2(PO5)2,0.0625,-2.30629965284127,mp-766397
MoP4O13,1.5786,-2.306278060337302,mp-26402
Na2FeHgF6,0.0,-2.306277580525862,mp-1111180
Fe3Ni2P6WO24,2.5303,-2.306211953551587,mp-850533
Ba3Mn2IrO9,0.0,-2.306169035390805,mp-1228074
RbMg6FeO8,0.5487000000000001,-2.30613903109375,mp-1032412
LiMnBO4,1.0745,-2.3059453822044342,mp-1176642
NaNiPO4,3.3393,-2.305945144074595,mp-776388
YCrO5,0.556,-2.305943738928572,mp-1204332
Na4Zr(MoO4)4,3.6364,-2.305778072420689,mp-561158
K8Zr(MoO4)6,3.8834,-2.305712260076923,mp-560406
BaCo2P2H2O9,1.2309,-2.305696692611608,mp-644003
Mn2ZnP2O9,0.0,-2.305568008760556,mp-1041017
Na2CaV12O32,0.0784,-2.305562298569332,mp-1222059
LiW3O9F,2.5627,-2.305504829523809,mp-1222570
Ba2Nd2Co4O11,0.3629,-2.305471633157894,mp-1228483
Li3Fe4(PO4)6,0.0,-2.305362579131274,mp-766373
Li3Fe4(BO3)4,1.894499999999999,-2.305332130942029,mp-764459
KSrBiWO6,2.1867,-2.305324143475,mp-1518786
Cr2WO6,1.609599999999999,-2.305236911666666,mp-19894
Sr2AlTlV2O7,0.0,-2.305202554487181,mp-1046035
Ca2Mn2Si4O17,0.0,-2.305174795234482,mp-1191515
V17Pb3O32,0.9697,-2.30508385173077,mp-1100950
Fe9Si6O25,1.2425,-2.305025752812498,mp-818295
VGa2O5,1.666199999999999,-2.304976676875,mp-756465
Ba2YTlFe2O7,0.0,-2.304899101410257,mp-1046351
Mg2Mn3O7,0.486699999999999,-2.304856968232757,mp-770496
NaV6O14,0.2033,-2.3047352491133,mp-1220930
LiFeP4O13,0.0059,-2.304659040758145,mp-1101540
Co3P4PbO14,3.0652,-2.304656201753247,mp-562742
Li3Mn2V3O12,1.055499999999999,-2.304638568918103,mp-774814
Na3Li3Fe2P2(CO7)2,3.8891,-2.30453262667014,mp-1176351
Fe5(PO4)4,0.5714,-2.3045168623428562,mp-26858
Ca3V3(AsO4)4,1.0605,-2.304464553076923,mp-1041545
Mn3Cr2Cu(PO4)6,0.0,-2.304383790601396,mp-776120
Ba4Fe2MoWO12,1.280599999999999,-2.304363829499999,mp-1228108
TiCo3(BO4)2,1.4874,-2.3043244229761912,mp-1217061
MgMn4(O3F)2,0.455999999999999,-2.304323315901858,mp-2226745
LiFe5(OF2)4,1.6382,-2.30427253462963,mp-1176720
MgNi(PO3)3,0.0,-2.303740008852041,mp-2227278
Li6FeCo3(PO4)6,0.8137999999999991,-2.303501184946429,mp-768625
Li2V2SnO6,1.8277,-2.303399334242424,mp-754074
BaMn9V6O26,0.0079,-2.303330483723318,mp-1196033
Eu2InFeO6,0.0,-2.303239613666668,mp-1518585
Sr7CaFe6(CoO10)2,0.0,-2.303141564652778,mp-1076631
MgCoSiO5,0.021399999999999,-2.303139795,mp-1267366
Fe2Sn(PO4)3,0.066199999999999,-2.303122327162698,mp-774807
Li3MnCr2O6,0.6075,-2.30310641566092,mp-774249
BaAlV4O7,0.400999999999999,-2.30299611923077,mp-1048345
Zn3Fe9(PO4)8,3.3155,-2.302737440521979,mp-1216151
FeSn3(PO4)6,0.0,-2.3027214847899162,mp-772015
LiVFeP2(HO5)2,1.7801,-2.302566429418767,mp-765988
LiV24O58,0.0806,-2.302563854738955,mp-760797
Cr4P9O32,0.0,-2.302497460706349,mp-504406
Ba2Tb2Co4O11,0.0,-2.302270957807017,mp-22456
AlW3O8,1.5411,-2.302265464583333,mp-1042107
MgFe2(BO3)2,2.6138,-2.302154484848484,mp-2240895
KP2W7O25,0.5797,-2.30208368290102,mp-1223452
NaCoP2HO7,0.004199999999999,-2.302038590992918,mp-1221116
VZn6P3O16,3.5098000000000003,-2.301695747074176,mp-1216343
Mn(PO3)5,0.0,-2.301673885292634,mp-849736
MgCo4OF11,0.479799999999999,-2.301659680294118,mp-2229305
Ti5Fe11O24,1.1662,-2.3015886219166672,mp-694952
Ca3Cr3(AsO4)4,1.8614,-2.301503766923077,mp-1047487
Li3Si2(NiO4)2,1.0158,-2.301493217999999,mp-777771
Li4Nb3Fe3(SbO8)2,1.0861,-2.3013972904761912,mp-861480
V3O7F,1.387,-2.3013574443181812,mp-759631
Fe2SiO4,3.6769,-2.301357292142856,mp-20313
Ba(WO3)6,0.0,-2.3013182605999982,mp-867545
Li2V5NiO12,0.8277999999999991,-2.301106314833333,mp-776323
TiFe3(PO4)6,0.0,-2.301048377093837,mp-775272
SrGdFeCoO6,0.0,-2.300909812999999,mp-1218267
Li2Si4Ni5O14,2.5810999999999993,-2.300815369666667,mp-1651525
PrMn2ZnO6,0.0,-2.300638172752873,mp-1044765
Li4Co3Sn(PO4)4,1.602399999999999,-2.300636453460885,mp-757004
Li12FeNi3P4(CO7)4,3.0772,-2.300224954587912,mp-766539
MgP3W3O13,0.9504,-2.3002247621964282,mp-1047801
Na2TlCoF6,2.2651,-2.300214458609196,mp-1110620
Sr6Ca2Mn3Fe5O24,0.0,-2.3002022563448272,mp-1077670
Cs8Zr(MoO4)6,3.8513,-2.300200675057473,mp-1197180
Sr4Mg(Fe2O5)2,0.7330999999999991,-2.300020998157895,mp-2228813
LiMo4(P2O11)2,0.219899999999999,-2.300017984900153,mp-585261
Li4Mn3V3Cr2O16,0.3668,-2.299913633825944,mp-770524
Cs2MnV2(ClO3)2,2.0974,-2.299812097095492,mp-573229
SrNbFeO6,0.0,-2.299798863333333,mp-39995
La5Sm3Co7CuO20,0.0,-2.299798638541667,mp-1076874
NbNi3(PO4)4,0.0009,-2.299778542440477,mp-775713
NaV24O58,0.0574,-2.299582378570835,mp-760173
NaP2W7O25,0.9610999999999992,-2.29957594159043,mp-1220992
Li3V3SbO8,0.7570999999999991,-2.299501262,mp-1177488
Cr2Fe3Te(PO4)6,0.0,-2.299496415958994,mp-775014
CoSn3(PO4)4,0.8635,-2.299318725982142,mp-757548
Li4Cr5WO12,1.4398,-2.299218670151514,mp-756151
La2(WO3)19,0.0,-2.299115866730769,mp-685542
P3RuW2O15,0.1199,-2.299114368341837,mp-1194833
Li5Fe6P5O24,1.410399999999999,-2.299066209997023,mp-1177129
Li5MnV3O8,1.7945000000000002,-2.298915189241041,mp-764142
Mg2Mn3O6,0.1394,-2.298740515799374,mp-1003485
LiScMo3O8,0.0,-2.298702755256411,mp-19433