formula,bg,formation_energy,mp-id
CaSm(CoO3)4,0.0,-1.390185191388888,mp-1522014
NaCo2(SO4)2,0.229,-1.389970340875332,mp-1193451
TlV2I3O13,1.848799999999999,-1.389782752017545,mp-1198439
Mn5(AsO8)2,0.0,-1.3894087680284861,mp-1205143
Ni7Te6(ClO9)2,2.7053000000000003,-1.3893078248484851,mp-555442
Li3Fe2Ni3O10,0.0,-1.389203593333333,mp-752981
Fe11(NiO3)8,0.0,-1.38919845627907,mp-36806
V2CuO8,0.404299999999999,-1.389107243636363,mp-1192382
CrWO3,0.8863000000000001,-1.388721044999999,mp-1226283
FeP3(HO)6,2.8556,-1.388649687901786,mp-1200394
Ca2CoC(NO)2,0.0,-1.388483438125,mp-1147777
Co3(O2F)2,0.0,-1.3875967550000001,mp-753302
CuMo3O11,0.0,-1.387505667,mp-1198174
Li5Cu3(NiO5)2,0.0,-1.387457697333333,mp-773166
V2CuP2O15,0.1459,-1.386989626214286,mp-1178904
CsMoS(ClO)2,0.3979,-1.386841898343596,mp-1204852
CaCo3O7,0.2475,-1.386732321590908,mp-1042545
NaDy(FeO3)4,0.0,-1.386732112946998,mp-1521034
Na3NiO3,0.0,-1.386525704876846,mp-755725
K4Fe2O7,0.0,-1.386479383128205,mp-765192
KCo2H3(SeO5)2,0.0,-1.38641459670486,mp-1223548
Fe2H2Se3O10,2.3287,-1.385543542325367,mp-1213486
Na2MoO6,0.5598000000000001,-1.38536278322318,mp-1199694
MnH6SO7,3.7859,-1.384884218362068,mp-1204295
CsFe(OF2)2,0.0,-1.3846135030818971,mp-1213406
MgCoBiO3,0.0,-1.3845462516666671,mp-2240517
NaMnO4,1.912399999999999,-1.3841486590517251,mp-759794
Ba2Tl2Zn3(CoO3)4,0.0,-1.384000390289855,mp-1048339
CaMn2(H2O3)4,2.1103,-1.383934069167917,mp-1205048
Mg(FeO2)8,0.0,-1.3836966545999991,mp-2220458
NaFeO3,0.0,-1.383083283275861,mp-754915
Mo8P6O49,0.014899999999999,-1.383014710521542,mp-818409
Cr2HgO7,1.9827,-1.382997421083334,mp-559125
Rb2Te(MoO5)3,1.8704,-1.3827193560317461,mp-818535
Ni3TeO6,0.0,-1.382643370166666,mp-19448
Li4(NiO2)5,0.5285000000000001,-1.38220612122807,mp-763578
Li5Co2Cu5O12,0.0,-1.3821921923611111,mp-771177
NaY(FeO3)4,0.0,-1.3820497784099621,mp-1517827
MgCo6(O5F)2,0.0,-1.38186939868421,mp-2230256
GdFe4(CuO4)3,0.0,-1.3816251465,mp-1188097
MgCo4NiO8,0.1713,-1.3816163725,mp-2241254
Fe(ReO5)3,0.0,-1.381493488289473,mp-1199365
Zn3Fe4(BiO4)6,0.0,-1.381336785405406,mp-1043115
K2CoH2(SeO5)2,1.0581,-1.3808708900992641,mp-690515
NiH14SO11,5.328,-1.3806923134259261,mp-23877
MgCo2(HO2)2,1.564,-1.380333144166666,mp-2217537
CoH8SO8,3.2666,-1.380123101388888,mp-728646
LaMoI4O15,0.036599999999999,-1.380110144523809,mp-1199585
MgCo3NiO8,0.9265999999999992,-1.3800813580769231,mp-2219051
Na6NiO4,1.293599999999999,-1.379768950752351,mp-779898
MgCr4Hg4(H2O9)2,0.5141,-1.379750780967742,mp-1233221
BaMg(NiO2)4,0.0,-1.379032315357142,mp-2228542
SrCo2H2(SeO3)4,2.629,-1.379030557708333,mp-735600
LiNd(FeO3)4,0.0,-1.378800087824074,mp-1520442
LiSm(FeO3)4,0.0,-1.378727869907408,mp-1517740
MgFe2CoO7,0.0,-1.378584388295454,mp-1042681
Fe3Pb(SO7)2,0.0,-1.378266124249999,mp-1189324
RbMnO3,0.0,-1.378088158086207,mp-975346
LiNi7O7F,2.456299999999999,-1.377967004583331,mp-765469
Ni2Sb2O7,1.025299999999999,-1.377274126363636,mp-1190650
Mn(RhO2)2,0.9305,-1.377220136133004,mp-554354
Li9Mg(Ni6O13)2,0.386399999999999,-1.377051973020833,mp-759044
Ni12C8O31,0.0,-1.376933942058822,mp-1195870
Li3Cu(NiO2)4,0.0,-1.376834824999999,mp-756169
Ba2Mn3(SbO)2,0.0,-1.375203465421455,mp-18787
MnAuO2,0.0,-1.375097408232759,mp-997183
KNi2H3(SeO5)2,2.6967,-1.3749369792048611,mp-1223496
V2PH10C2N2O8F,2.7743,-1.37435873787088,mp-728749
MgZn2(NiO2)4,0.0,-1.374161312333332,mp-2226868
MgFeAgO2,0.0,-1.374158557333333,mp-2210754
K2Te(MoO5)3,1.4054,-1.37397106981746,mp-1213449
CoSb2O7,0.6868000000000001,-1.3737814502499999,mp-1042609
VCo3O8,0.0,-1.373698434583333,mp-752604
Cs2CoO3,0.4238,-1.3731041444683911,mp-540730
CoAsO4,0.0,-1.37299685625,mp-1213775
NaAlCr2(HO4)2,2.2186,-1.3726475092056651,mp-1210245
Ni5Te4(ClO6)2,3.039999999999999,-1.37247895289855,mp-555161
CrH8C4NO10,3.2492,-1.372313776875,mp-1226401
K2Cr2NiO10,0.178799999999999,-1.3722657803,mp-1103927
NiTeO3,2.5735,-1.372126153333333,mp-1209810
BaSm(CoO3)4,0.0,-1.3719754569444451,mp-1516805
Zn2Ni3O5,0.0,-1.371956057499999,mp-759178
BaNd(CoO3)4,0.0,-1.371710177083333,mp-1523095
Mo2O7,0.035999999999999,-1.371603178888888,mp-1180296
Na2Li(NiO2)3,0.2254,-1.371226447174329,mp-1290445
NaCo2H3(SeO5)2,2.3657,-1.371223808600933,mp-1173735
Cs4FeO3,0.390299999999999,-1.370976541077587,mp-1205381
Fe3(AsO4)4,0.0,-1.37062999847826,mp-1331355
Mg2Ni9O13,0.0,-1.370362697708333,mp-1045897
K9(FeO4)2,0.0082,-1.370205651855262,mp-1196507
Na8NiO6,0.0,-1.370119996068965,mp-849670
LiCoNiO4,0.0,-1.370053134047619,mp-754509
Li4(CoO2)7,0.0,-1.369912495333333,mp-699137
NdMoI4O15,0.121999999999999,-1.369493060119048,mp-1201702
MgCoH16(ClO2)4,3.171999999999999,-1.369186343166667,mp-697924
Co3Ag(AsO4)3,0.0,-1.36905366495614,mp-1203651
SmMoI4O15,0.066099999999999,-1.368719618333333,mp-1203712
VH12(ClO2)3,2.2597,-1.3684778579545451,mp-23749
NiP(H4O3)3,4.135400000000001,-1.368256259169254,mp-849788
Li4Fe2Co3Cu3O16,0.0,-1.3680755526190471,mp-754017
NiPH16NO10,4.9634,-1.367780262746305,mp-505449
Co3As2(HO)16,2.8832,-1.367692757972972,mp-1213858
VCo2P2H3NO9,1.5049,-1.367346543224206,mp-1208085
V4Cu13(O13F2)2,0.0,-1.367331641489362,mp-1195387
Li(CoO2)3,0.0,-1.367264734333333,mp-752635
Li3Mn2(NiO4)2,0.0,-1.367121767057472,mp-763752
BaDy(CoO3)4,0.0,-1.367047880092593,mp-1521027
CoH8(SO6)2,0.022199999999999,-1.366906422391304,mp-1178433
Li7(NiO2)9,0.3552,-1.366852738921567,mp-757736
Ca3MnH3(SO7)2,0.0,-1.3664687102904791,mp-1214341
Li4Fe3Co2Cu3O16,0.0,-1.365954698690476,mp-758365
Ba2Tl2Co3O10,0.0,-1.365889762156864,mp-1046501
Co3CuH56(SO11)4,1.0868,-1.365792348981481,mp-1229150
Na2(CoO2)3,0.0129,-1.365701744000783,mp-1203207
Mo4H14N2O17,2.4321,-1.365175969324324,mp-1197337
KCoH3(CO2)3,2.9178,-1.3651126057857141,mp-1193315
K7Fe5O16,0.044699999999999,-1.365109821098214,mp-1224740
Mo12PH24C6N3O40,2.341,-1.36427253336794,mp-720800
MnV2O10,0.4029,-1.364158538687003,mp-1211166
MgCo5SbO12,0.5405000000000001,-1.363991521315789,mp-2230310
Na(CoO2)3,0.0,-1.363847183137929,mp-1221438
Li3Fe2Ni5O12,0.0,-1.363819294696969,mp-759182
MgFeAuO2,0.0,-1.363684186999999,mp-2227022
NaNi2H3(SeO5)2,2.7127,-1.3633158227676,mp-1221027
MgNi2(BiO3)4,0.0,-1.36317676763158,mp-2230926
Li4Co7O16,0.0399,-1.363077550864197,mp-771197
Co5Te4(BrO6)2,2.2652,-1.362891933550725,mp-581171
Fe2HgO4,1.1461,-1.362688660357143,mp-754491
V2NiO8,0.0,-1.362552032272726,mp-1208147
Fe3Co3(SbO8)2,0.0,-1.36231523,mp-757039
Li2Ni3BiO8,0.7894999999999991,-1.362129081547619,mp-1275701
Cs2Mg(MoO6)2,0.5464,-1.36199061025355,mp-1203205
NiF4,0.8967,-1.3618308325,mp-1406123
CoP3H16N4O11,3.3103,-1.361718850112245,mp-1197638
MnNi3O4,0.9829999999999992,-1.361572037241379,mp-759859
Li2Ni5O7,0.0,-1.36155974154762,mp-754083
Mn(Ni3O4)2,1.4245,-1.361432144528734,mp-19442
NiP4H18C2N2O15,4.560899999999999,-1.360620051335034,mp-1197228
CaAl2Si2(WO2)4,0.052799999999999,-1.360400835294117,mp-1215045
CrH10SNO10,2.2834,-1.360313007934782,mp-721082
Fe2(AsO4)3,0.0,-1.360287838529412,mp-543107
VH4C4O6F,1.6558000000000002,-1.360194960625,mp-1207872
Fe(HO)2,2.4707,-1.360181359499999,mp-626680
NiH12(SO7)2,0.233499999999999,-1.359868867413792,mp-1101430
V2NiH6(NO3)2,2.2609,-1.358850101323529,mp-758378
Ag6Mo2ClO7F3,1.5871,-1.358812299473683,mp-553919
SrCo12O19,0.0,-1.358681409375001,mp-562506
MnH6(CO3)2,3.5612,-1.358429877028736,mp-24476
W2NO6,0.0,-1.3582582194444441,mp-724876
MoPCl8O,1.493099999999999,-1.358216875422078,mp-560214
Cr3(NiO6)2,0.0108,-1.358177252794117,mp-776211
Cu3WO6,0.0001,-1.35775522925,mp-560273
Li3(NiO2)4,0.2522,-1.35772729,mp-755972
V4CoH4C4(NO5)2,0.8250000000000001,-1.3576080908000001,mp-1201407
V2Ag6As2O13,0.9909,-1.35738644021739,mp-1204976
U2Co(PO11)2,0.0,-1.357361173492063,mp-1196790
LiCo5O8,0.0,-1.357271103452382,mp-759353
Hg2MoO4,1.8942,-1.357248065000004,mp-558802
Cu2MoSeO7,0.0,-1.356836467713068,mp-1200069
FePbO3,0.0,-1.356685948999998,mp-973579
CsCrH24(SeO10)2,3.985299999999999,-1.356619700246722,mp-1202355
TlFeO3,0.7036999999999991,-1.356483360166667,mp-505819
MgVAg3O4,0.0,-1.3564215277777771,mp-2217232
NiPO5,0.0,-1.356085564234693,mp-1209842
K2MoC2O9,2.7355,-1.355511428892857,mp-559331
Fe2Te3O10,0.404699999999999,-1.3552295566666661,mp-1194329
Li3Co(CuO2)4,0.0,-1.355125085624999,mp-754273
NiBiO3,0.0,-1.354572157000002,mp-998527
CoH8(CO4)2,2.2106,-1.354440835614034,mp-1204386
Co2P3H11N2O9,0.0,-1.354256253247355,mp-1226671
VH4NO3,3.1275,-1.354165544999999,mp-726626
LiFeCo3O8,0.3771,-1.3539666264102561,mp-752999
Mn4Se4O15,0.417,-1.353936735917354,mp-1199155
MgZn4(Co3O8)2,0.084999999999999,-1.353732884259259,mp-1234102
LiFe2(CoO4)2,0.0,-1.352837395641026,mp-1176746
Ba2TlNi2O7,0.0,-1.352819269861111,mp-1411498
Fe4As3O16,0.2465,-1.3526239761956511,mp-818569
MnH8(ClO2)2,4.0365,-1.3526152266954021,mp-24385
MgCo5SnO12,0.3725,-1.352533800526315,mp-2231056
Li2MnCu3O8,0.0,-1.352370296756978,mp-754267
Na3Mg(NiO2)5,0.263399999999999,-1.3522200857441011,mp-2231103
Na2CoH4(CO2)4,2.4491,-1.352041088039927,mp-1203350
MgFe2(CoO3)4,0.882599999999999,-1.3518917686842111,mp-2231797
CrCuO4,0.160199999999999,-1.351861724166666,mp-504927
NaMo3NO10,0.0,-1.351410013425287,mp-1210425
Li9Ni23O32,0.0,-1.351206059062499,mp-531942
Mn2PC5NO11,0.0,-1.351082675525245,mp-1180719
FeBN3O3F4,1.989399999999999,-1.350902293263889,mp-631397
Li3Co13O16,0.0,-1.350832270625,mp-867584
CoCuH28(SO11)2,0.7518,-1.350806480185184,mp-1215088
Cr3Co5O16,0.2155,-1.350732449166667,mp-756555
NaWO2,1.267599999999999,-1.350405172844826,mp-1210088
Fe10O19F,0.0,-1.350064125333332,mp-776957
NaCo3O4,0.0,-1.349856573922413,mp-752749
Co2SbO6,0.0,-1.3495963433333331,mp-859114
MgCd2(CoO2)4,0.408699999999999,-1.349324692333333,mp-2232561
Ag2WO4,2.0439,-1.348469886904761,mp-504466
Ni3(BiO2)10,0.0,-1.348405020000001,mp-675540
CaV2O10,0.5708,-1.347736493461539,mp-1182413
Na2Fe3P2H2(C4O9)2,0.2988,-1.347556863844124,mp-1196129
MnCu4H14(SO9)2,0.0,-1.347378600139257,mp-766680
CoH8(CO5)2,0.5759999999999991,-1.347317503571428,mp-772431
MgFe4O9,0.0,-1.347309048571427,mp-1048047
FeP4(C2O5)2,3.2042,-1.347236515977442,mp-1200792
Li2Co(NiO3)2,0.306999999999999,-1.347039314242424,mp-757774
VPH6C2N3O7,1.7746,-1.346909123357143,mp-698293
Mn3Fe3(CoO8)2,0.0,-1.346727419324712,mp-768595
Li4(CoO2)9,0.0,-1.346355424946237,mp-850020
K4Co2O5,0.8574,-1.346338280818181,mp-770883
NaCoH3(CO2)3,2.9427000000000003,-1.346336879652093,mp-1221138
MgFe4(CoO6)2,0.0362,-1.345920024473684,mp-2230234
Fe2H6(SeO4)3,0.0,-1.345835206066575,mp-1178328
VTeO3,0.0,-1.345835018333333,mp-1100777
Li(FeO2)8,0.0,-1.345711989733333,mp-1236025
Na2FeO4,1.142,-1.345641306108374,mp-19044
Al2Cr4O19,0.133399999999999,-1.3456281894,mp-1205208
BaCaCo4O7,0.8428,-1.345560727307692,mp-562177
Co4SbO8,0.0,-1.344388553846153,mp-1226060
CrH12(ClO2)3,3.197,-1.343920983181817,mp-734815
Fe2Co3H4(Se3O10)2,1.746,-1.343779091973214,mp-1212758
CrP3H17N3O13,2.7258,-1.343390895072394,mp-558884
Cu2NiSnO4,0.0,-1.343353608749999,mp-1225946
CaFe2(CuO4)2,0.0,-1.342881780961538,mp-1041467
KLiNi2H3(SeO5)2,0.0,-1.342867321527411,mp-1235304
CoSO5,0.0,-1.342851173214286,mp-1103845
Ni4(BiO2)9,0.0,-1.342160395806452,mp-690570
Mo3Se2ClO8,1.3434,-1.341345009620537,mp-1045211
K2MgMnH4(I2O7)2,2.0208,-1.3409072108627331,mp-1233498
Li2Fe(CuO3)2,0.0,-1.3407449742424251,mp-756110
FeSeO4,0.9489,-1.340701675807292,mp-754639
Mn3Fe2Co3O16,0.0,-1.340404621824712,mp-1176503
MgCr2(IrO6)2,0.0,-1.339985829117648,mp-2228995
Co4(MoO4)3,0.0,-1.339829797894737,mp-1213876
MnAgF3,0.0,-1.339749738919539,mp-1206344
K2MnH4(SeO5)2,2.3002,-1.33970091905887,mp-542385
MnH8N2(OF2)2,3.4884,-1.339353233995943,mp-1194998
VZn2P4N3O16,0.0,-1.339099823406593,mp-735194
Ni4Mo4O19,0.205,-1.338731528333334,mp-1220121
CoPH16NO10,3.2515,-1.338534033953202,mp-758833
Fe2Ni3H4(Se3O10)2,2.0918,-1.337865173973214,mp-1212753
MgZn2Ni3O8,0.0998,-1.337125880357142,mp-2228510
Zn2NiIrO6,0.0,-1.3365544205,mp-1047130
Sr2Mn3(SbO)2,0.0,-1.3364525148659,mp-19246
Co(BiO3)2,0.0,-1.335887067407408,mp-765403
PH30W12C9N3O40,3.3257,-1.335382447654136,mp-1196729
Li3FeCu3O8,0.0,-1.3352620880000001,mp-771350
SiMo12H24C6N3O40,2.4079,-1.335188354127907,mp-729152
FeCuAs2PbO10,0.0,-1.334808718333334,mp-1104343
FeS2O9,0.0,-1.3346470075,mp-1102979
FeH14SO11,4.3717,-1.334429844074073,mp-1198559
Ni5Te4(BrO6)2,0.0,-1.33437666789855,mp-704879
CoSeO4,1.3657,-1.333769276640624,mp-551407
Fe4H14O13,0.0,-1.333627648145161,mp-626855
FePH4(NO2)2,2.227699999999999,-1.333379707678571,mp-1194931
Co20(As4O19)3,0.0932,-1.3332205761235951,mp-1229319
NaNiO2,0.4204,-1.333131863469827,mp-19149
CrH12N3(OF2)3,4.1373,-1.332468087399999,mp-1182011
VNO3,0.0,-1.332170090000001,mp-1178820
Na4NiO4,0.789,-1.332105811168582,mp-752478
Ni3P4H48(NO15)2,5.046699999999999,-1.332080011937602,mp-1203628
Na3V(H14O11)2,1.7959,-1.331957762761814,mp-1221471
Al2Fe(PO8)2,0.3354,-1.331407750442177,mp-1197991
K4(CoO2)7,0.0,-1.33119371056,mp-562471
Li4FeNi5O12,0.0,-1.331145341969697,mp-771207
Li3Co2Ni3O10,0.0,-1.330457736388889,mp-1177722
Fe2Te4ClO12,0.0,-1.33044103245614,mp-1188722
Li4Ni7O12,0.0249,-1.329846255942029,mp-758275
Li8(NiO2)11,0.1948,-1.3296680117479671,mp-758772
LiCo4O5,0.0,-1.329591373833334,mp-1222581
VH20S2(NO7)2,2.5397,-1.328885310384614,mp-24377
ZnCoBiO5,0.1045,-1.3288091171875,mp-1044295
Mn3Cu3(TeO8)2,0.0,-1.327962687796935,mp-758477
MnCu(SeO3)2,0.145499999999999,-1.327960414261853,mp-1221686
K2VO6,0.0233,-1.32783754925,mp-1201198
Na2Mo3O13,0.0,-1.327628483764368,mp-1237504
KV4Ag11O16,0.9235,-1.327608614236978,mp-553910
Mo2H12C4N2O15,2.9085,-1.326850387285714,mp-1181352
MnP3H10C3NO9,4.7284,-1.326500338031837,mp-729136
Co5(Bi2O5)4,0.0395,-1.326164798181818,mp-674502
ZnCoO3,0.213499999999999,-1.326151463,mp-753026
Li2FeNi3O8,0.08,-1.326066680297618,mp-776318
Fe14Ni11O32,0.0,-1.32562531614035,mp-685456
Rb2Co2O3,0.0,-1.325418458571426,mp-542299
Fe3Co3(TeO8)2,0.0,-1.325348116388889,mp-761932
FePH5CO4,3.8726,-1.325231659657738,mp-1273841
NiH12SO9,4.1294,-1.3251404725,mp-756977
Zn3Co2O7,0.026299999999999,-1.324590331249999,mp-1376556
CaCo4(CuO4)3,0.0,-1.32432780525,mp-1043073
Fe3P3H12C2N2O13F2,0.2509,-1.323304107673745,mp-1201707
Li4Ni5BiO12,0.0,-1.322988802424243,mp-756733
MnH20S2(NO7)2,4.0467,-1.322709253023872,mp-1210871
Zn3Ni7O10,1.7526000000000002,-1.322677733999999,mp-754030
LiMnH6O7,2.1661,-1.3219330789176251,mp-23785
K2Mo3O13,1.1937,-1.321815639416666,mp-733689
Zn2CoIrO6,0.0,-1.321583835999999,mp-1370320
RbCoO2,0.5426,-1.32147187515625,mp-704992
FeCuO2,0.8043999999999991,-1.3211116262499991,mp-510281
AlFe4(CuO4)3,0.0,-1.320949402,mp-1045728
CsFeH24(SeO10)2,2.9156999999999993,-1.320825544830055,mp-721077
Li3CuNi3O8,0.0,-1.3207777786666661,mp-861850
K2Mo2H12C4N(OF3)3,0.0,-1.320752695287879,mp-744190
MgZn(NiO2)4,0.427099999999999,-1.320530480357142,mp-2228001
YCr2O2,0.0,-1.3205090255,mp-1208171
Cd(CoO2)2,1.9265999999999992,-1.319261409285712,mp-756301
SrU2Cr2O22,0.0,-1.319082141296295,mp-1179407
Li4Cu2Ni5O12,0.1051,-1.318829488188406,mp-849405
Ni3SnH12(OF)6,0.7037000000000001,-1.318801939642857,mp-1213529
Fe2P2N2Cl2(O2F)3,0.0,-1.3178889746638651,mp-1202069
Ba2Tl2Zn3(WO3)4,0.0,-1.317876036376812,mp-1842679
NaW2(Br3O)2,0.0,-1.317857627398118,mp-557030
MnSe3O8,0.9701,-1.317815093330191,mp-734053
WBrCl3O,1.9672,-1.3169207866666661,mp-1216192
VCu3O4,0.1102,-1.31639714625,mp-510657
TaMn2O3,0.0,-1.316361393032567,mp-31900
CdFeO3,0.0,-1.316018186,mp-776476
Tl6WO12,0.127899999999999,-1.315919165789475,mp-754164
BaZn(WO2)4,0.0,-1.315483089999999,mp-1044892
LiNi4O5,0.0,-1.315415985833333,mp-677318
MnP2H9C2NO7,4.3048,-1.315221066521215,mp-1204234
Cr(CoO3)2,0.0,-1.314804237777778,mp-752462
Cs2WO8,2.9976000000000003,-1.314754897664576,mp-1213748
V2CuH6(NO3)2,0.6950000000000001,-1.314490267205881,mp-729018
Co3P4H48(NO15)2,2.7396000000000003,-1.314140001592774,mp-1200029
Cr2(Se2O5)3,0.018,-1.31387704517663,mp-562099
CrH20S2(NO7)2,2.8716,-1.313660945384614,mp-728691
Fe2C4Cl2O9,0.024599999999999,-1.312402528823529,mp-1181787
K2Mn7H18(C9O20)2,0.0,-1.311687235911968,mp-746793
Cd4NiH20(ClO)10,4.061199999999999,-1.311496168444444,mp-734433
Li3Cu4NiO8,0.0,-1.310991449375,mp-756343
Ni(TeO3)4,0.2681,-1.310935274803921,mp-757194
Li4CoNi5O12,0.176099999999999,-1.310841614696968,mp-772703
CoSeO3,0.0,-1.31058676809375,mp-562826
MnP2H4O5,0.445999999999999,-1.310301571018062,mp-743651
LiMoH6NO5,2.900699999999999,-1.310208551577381,mp-728669
Li7(NiO2)10,0.0,-1.310089346036036,mp-766574
U4Ni3(O13F7)2,0.0,-1.3099866071276591,mp-1205292
K2WO8,2.6972,-1.309973076621212,mp-29347
AgMoO4,0.0,-1.309937523611111,mp-1214906
MnH4(BrO)2,3.3813,-1.309259315881226,mp-24129
Zn2Co2O5,0.6007,-1.309207618333333,mp-1348293
UVCuO10,0.0005,-1.30892434826923,mp-1196587
CoSiN5ClF6,0.0,-1.308867939642856,mp-1193831
Li4Co5Ni3O16,0.0,-1.308706739404762,mp-772632
Fe(NiO2)2,0.0,-1.308646009285712,mp-640147
Li2Fe3Co5O16,0.0,-1.308442652179488,mp-752817
MgCo(NiO2)4,0.148899999999999,-1.308265415357142,mp-2226480
Co5RuO8,0.0,-1.308138256428572,mp-35690
Co3H2Se3O10,0.0,-1.307907693029514,mp-505097
Na16W3(NO3)4,0.0643,-1.307860236059113,mp-1221537
MnH2(SeO4)2,2.2486,-1.307663429239887,mp-731052
Co2O3F,0.0,-1.306400923333332,mp-850970
Na13Ni11O24,0.0,-1.306389125165229,mp-768107
V3P2H12C3N2O15,0.0,-1.306206437480695,mp-735553
Na4Ni2O5,0.8644000000000001,-1.306033652319748,mp-780118
Na2Co3O4,0.9356,-1.305703960306513,mp-1176407
FeH4(ClO)2,3.851899999999999,-1.305381452777777,mp-23880
Li3Fe(Ni2O5)2,0.0,-1.3050065341666661,mp-757287
KNa2(NiO2)2,1.058499999999999,-1.304955964445401,mp-1204380
Na2Mo(H2O3)4,1.9423,-1.304862215228636,mp-1202861
Na9Ni11O20,0.0,-1.303324140560343,mp-760849
YCu3(NiO3)4,0.0,-1.3031359134999991,mp-1045844
FeH12(NF2)3,4.1489,-1.303088939772727,mp-699478
NaV(NF3)2,1.6235,-1.302733654137931,mp-1079436
Na3CoO2,1.3483,-1.302684139022988,mp-28824
MgFeCo5O12,0.2743,-1.302243429736842,mp-2230269
Cu6Te2Mo2H2Cl4O15,0.0,-1.302225830026881,mp-1226362
CoHO2,0.0,-1.3021709928125,mp-27913
Co4TeO8,0.7538,-1.30216642974359,mp-1287666
FePH6(NO2)2,2.6803,-1.301990898545917,mp-1181488
SmDy(NiO3)4,0.0,-1.301881620925925,mp-1521868
Na2NiO2,2.6055,-1.301619782051723,mp-778404
CrP2H17N4O9,3.9867,-1.301323264410173,mp-735484
PrMg(CoO3)4,0.0,-1.301206962592592,mp-1517171
Fe3Se3O10,1.1118,-1.300584310439453,mp-1201589
BaCo4O7,0.0,-1.3005096999999999,mp-1345066
Cs2MoS3O,2.1503,-1.300489904544333,mp-1194448
Li12Ni11O28,0.8900999999999991,-1.299669440980391,mp-759703
CrHgO4,1.931,-1.299659134583334,mp-19155
Li4Co15O28,0.028599999999999,-1.298558346666666,mp-758387
Co5Se4(ClO6)2,2.5561,-1.29809770736413,mp-572877
Li4Co3Ni5O16,0.672299999999999,-1.297888950119047,mp-772319
Na2H8WO12,2.943699999999999,-1.297845875989504,mp-1201382
NaPH12(W3O10)4,0.0078,-1.29769581895488,mp-1213507
VH8C2N2O6F,3.136199999999999,-1.297634396999998,mp-720829
Li4Fe3Ni5O16,0.0,-1.297305146190476,mp-772168
CrP3H16C3NO12,2.7993,-1.296823168720239,mp-1196509
FeH20S2(NO7)2,4.006,-1.29646824576923,mp-540715
Mn(CoO2)4,0.0,-1.296383139071617,mp-757157
Co4Se3Cl2O9,2.4618,-1.296382262473958,mp-1195181
Li(CoO2)4,0.0,-1.296119834871794,mp-780322
VH5Se2NO7,2.127,-1.295972250058593,mp-698100
Sr10Mn5Zn9(AsO)10,0.014899999999999,-1.295885668742163,mp-698622
Mn2Co5O12,0.0,-1.295789990834846,mp-757022
Zn2Co3O8,0.0,-1.295767322307692,mp-1042827
NaMnP2NO10,0.7464000000000001,-1.295589627906405,mp-1193615
Co2P2O11,0.0,-1.295571911785714,mp-1198807
Zn3CrH80S8(NO7)8,2.8637,-1.295358114551281,mp-1216219
Na9Ni7O16,0.105799999999999,-1.295351784450431,mp-760860
Li2(NiO2)3,0.3386,-1.295270281060606,mp-758095
K2Mn(SO6)2,0.0,-1.2951899822018251,mp-1204866
V3H8C2NO7,0.0,-1.29446623952381,mp-560592
Mn(CoO3)2,0.0,-1.294407125881226,mp-759777
Pr(NiO3)2,0.0,-1.29429502074074,mp-1378393
MgFeCuO2,0.0,-1.293015358999999,mp-2222917
NpCrH8C2(NO2)4,0.3299,-1.29288164578125,mp-1205162
Co2Hg2H2S2O11,1.650799999999999,-1.292491763684211,mp-510344
NiH8(CO5)2,0.2902,-1.2920359242857131,mp-772564
Na4Ni3O7,0.0,-1.291160317179802,mp-753027
ZnNi4O5,0.0,-1.2908290455,mp-1215716
Co21Cu3O32,0.017,-1.290592405535713,mp-757299
Li2CoNi3O8,0.0618,-1.290557177797619,mp-1178037
U2Co(AsO10)2,0.0119,-1.2905473966,mp-1204256
Mn3Co5O16,0.7024,-1.290462056824713,mp-756736
Co3O4,0.0,-1.290338224285714,mp-1271793
Ni3H2Se3O10,2.9775,-1.290308527751735,mp-24540