formula,bg,formation_energy,mp-id
CaCo2(PO4)2,2.5259,-2.519168275714286,mp-1333984
Sr2La3Fe4CoO15,0.0,-2.5191231612,mp-1218784
KEuZrFeO6,0.0,-2.519119702225,mp-1522589
Li3NbV3O8,0.7227,-2.519113172,mp-769967
CaV6O11F,1.017599999999999,-2.519038496315789,mp-1233816
LiPWO4F,3.2932,-2.518941813497023,mp-25416
CsZnCoF6,1.6216,-2.51893058329502,mp-1225874
SrFeBP2(HO5)2,2.445599999999999,-2.5188990329972,mp-1202358
Mn2NbFe3(PO4)6,2.3071,-2.518850434269977,mp-775988
ScMn2SbO6,1.9542,-2.518829429086206,mp-1219325
LiFeOF2,2.469499999999999,-2.518768028666667,mp-849274
Mg6CoSiO8,0.8366999999999991,-2.518662201249999,mp-1032193
RbLi2Cr2(BO3)3,2.0594,-2.518617068039216,mp-770630
Na2VPO6,3.294499999999999,-2.518586562990147,mp-559869
BaTlVO4,3.5439,-2.518580615119048,mp-541006
KRb2Mo(OF)3,2.7955,-2.518523311225,mp-1223386
Li7Fe4P9O32,2.6079,-2.518418691156135,mp-27081
Li4Mn3Cu(PO4)4,0.0,-2.518219476274924,mp-757721
Li3Fe2(P2O7)2,1.0356,-2.518181311133539,mp-849506
Sr3Nd(CoO4)2,0.0,-2.518122355535715,mp-1218466
SrTbEuNiO6,0.0,-2.518103324166667,mp-1517629
Cr5(PO4)4,1.6227999999999991,-2.518048095142857,mp-504336
K2FeSn(PO4)3,2.7055,-2.517995697154135,mp-532656
Mg6CoNiO8,2.7108,-2.517796915625,mp-1032269
LiCr2P2O9,0.6726000000000001,-2.517752778937073,mp-1013922
MgTiV2CrO10,1.2762,-2.517692975888889,mp-2215811
NaLaDyFeO6,0.3405,-2.5176853148045972,mp-1518772
Li2Fe2OF4,2.5631999999999993,-2.517625881296296,mp-752505
ErNiO3,0.0,-2.5175578599999993,mp-18983
KNi(PO3)3,5.2401,-2.517476101512755,mp-557878
BaSrCrSnO6,0.0,-2.517431947499999,mp-1516623
Ca2MnFeO5,0.0,-2.517415762547893,mp-505314
CsMo(PO4)2,2.4808,-2.517353575120074,mp-541428
Cs4BaV6O18,3.0382,-2.517293388745541,mp-1198646
Sr2MnCrO6,0.0,-2.5172899022931032,mp-1218765
KLiNd2(MoO4)4,3.4444,-2.517242559399307,mp-581225
Li4Ti2V3Sn3O16,0.0,-2.517220891250001,mp-757929
KPrV4O12,0.4873,-2.517211751606483,mp-1522087
LiP5WO15,2.8415,-2.517189992343073,mp-772973
Li4VFe3(PO4)4,2.726599999999999,-2.517141590068028,mp-1222547
Li6VFe3(PO4)6,1.7539,-2.517102067196428,mp-757753
V2P2PbO10,2.080399999999999,-2.517060544619047,mp-562239
CaFeBP2(HO5)2,1.592,-2.517027578585434,mp-1199046
VZnSF5,0.0,-2.516933640312499,mp-1369435
Li4Fe2(PO4)3,1.5499,-2.516925804155328,mp-772975
BaMoO3,0.0,-2.5167960949999992,mp-19322
TaTlWO6,3.2355,-2.516774327296297,mp-1217830
K2NaNb2Fe7Si8H4O31,0.1119,-2.516754933379623,mp-743972
Li3MnSiO5,0.234899999999999,-2.5167105697931023,mp-778997
Sm3Fe5O12,1.894499999999999,-2.516663638875,mp-14139
Li2FeP3O10,2.7898,-2.516642209412202,mp-859112
Li2TiCoO4,1.0566,-2.516620695,mp-1177858
Sm2NiPtO6,1.668099999999999,-2.5164866745,mp-1208922
LaVZnCrO6,1.4535,-2.5164239515,mp-1044931
LiP2WO7,3.934,-2.516418642965368,mp-752528
SrFe3P3O13,0.5195000000000001,-2.516399376696429,mp-557942
Li4TiCr3O8,0.0,-2.516389854791666,mp-765747
Sr10Mn(RuO5)4,0.0,-2.516372804798029,mp-1218911
Li3Mo4P9O32,1.8339,-2.516339798891368,mp-705341
Eu2NiWO6,0.442999999999999,-2.516327713,mp-1516887
CsFe2P5O16,0.510599999999999,-2.51631894511956,mp-19476
BaLaCoSbO6,0.0,-2.5162983835,mp-1227876
Li4MnFe3(PO4)4,3.8643,-2.516236326601278,mp-783919
MnBePO5,2.0764,-2.516235321884236,mp-1197976
Na2MnTlF6,0.0,-2.516186545402299,mp-1110617
KLiY2(MoO4)4,3.2822,-2.516057845649307,mp-1211586
MnNb2Zn2O8,2.0203,-2.515929143687003,mp-17561
K2MnH2OF5,1.338499999999999,-2.515914316357367,mp-696630
Ca8Mn7CrO23,0.0,-2.515898832128647,mp-1268193
Li3MoP2O9,1.4696,-2.515760208285715,mp-25974
Mg6SiNiO8,0.7695999999999981,-2.515497496875,mp-1031808
Sr4CeMn4CoO15,0.0,-2.515468199468965,mp-1218667
Li4Mn5P6WO24,2.505,-2.515359106771142,mp-771110
Li2V2P2O11,2.0486,-2.515288298585435,mp-726294
Co2Si(P2O7)2,0.0,-2.515171201836734,mp-17775
VBO4,2.6245,-2.5151507398611113,mp-754594
Li4Mn3Nb2V3O16,0.5613,-2.515133485968801,mp-775656
Li4Mn5Sn(PO4)6,2.1051,-2.51510176914614,mp-850367
Li4Cr3Co(PO4)4,0.6574,-2.514839845068028,mp-757602
Sr2YGaCo2O7,0.1203,-2.514824027884615,mp-1046565
Sr3(FeO3)2,0.3201,-2.514771984545455,mp-18924
Li2CoP2O7,2.6793,-2.5147525269543642,mp-26089
MgFePO5,1.8649,-2.514721018705357,mp-1445676
MgCr4(PO4)4,0.7650999999999991,-2.514679492542857,mp-1233391
Be3Fe4Si3SO12,1.375599999999999,-2.5146479774999992,mp-627398
NdCrTeO6,2.7114000000000003,-2.514529912685184,mp-1189585
Mn2Fe5Si8(HO12)2,2.8509,-2.514432849472246,mp-1211939
LiMnBO3,2.563599999999999,-2.514293998405173,mp-19131
MgV3O8,1.876199999999999,-2.514167326250001,mp-37961
SrCa7Mn8O21,0.0,-2.514157360228333,mp-1247723
Gd2NiPtO6,0.0,-2.514124334999999,mp-1212708
K2RbGdMgV2O8,1.3347,-2.514046222466667,mp-2228050
RbLiNd2(MoO4)4,3.435599999999999,-2.514043368993056,mp-630867
Rb2MnH2OF5,0.9953,-2.5139747232210032,mp-24036
Li6MnSn3(PO4)6,2.6121,-2.513795895019704,mp-771360
MgV2P2(HO5)2,1.3596,-2.513794679810924,mp-2228946
LiP2WO8,3.3799,-2.513751785426587,mp-758239
KLiGd2(MoO4)4,2.9099,-2.513669500024306,mp-1211850
KSc(MoO4)2,3.6159999999999983,-2.513649340187501,mp-18837
Mn(PO3)3,1.310199999999999,-2.513638303860996,mp-771905
Li4Ti3Cr3(TeO8)2,0.3299,-2.513536416666666,mp-761028
Li5Mn9(P2O7)8,0.486299999999999,-2.513484001073624,mp-540023
LiDy2Mn4O8,0.5287000000000001,-2.513482705892721,mp-1235635
Li7Fe6(SiO4)6,1.9923,-2.5133383900775192,mp-1176885
Sm2CoRuO6,0.0,-2.513297777000001,mp-1208928
MnP2PbO7,3.8098,-2.513227360883339,mp-541468
Mg3Cr8FeO16,0.0,-2.513190454464286,mp-1222216
Ca3V3(CuO6)2,0.0,-2.513120131749998,mp-1214197
Li2NiPO4F,3.7462,-2.513087213062169,mp-554446
Li3MnP2HO8,4.3354,-2.513076170397783,mp-775205
Ca3Fe2(WO6)2,0.0,-2.513053843157894,mp-1275790
Li6V2B4SO16,1.9211,-2.512980432902299,mp-772590
Sr3Fe2Cl2O5,0.9792999999999992,-2.512875464583333,mp-23081
Li3Cr4(PO4)6,0.0,-2.512855505482624,mp-766571
Li6Mn(OF)3,2.1633,-2.512803458879311,mp-753452
Be3Si3(NiO6)2,0.0,-2.512778453374999,mp-1048097
Li6VSn3(PO4)6,1.5387,-2.512749390821427,mp-775752
Ca3Fe2Cl2O5,0.0,-2.5127019133333333,mp-555981
Li4V5O9F,1.3433000000000002,-2.5126743385964923,mp-765807
Cs2MnSO4F3,0.0,-2.512663316112853,mp-1199926
Rb2MnSO4F3,1.746999999999999,-2.512518440493731,mp-19488
Li5Mn3Cr(PO4)4,0.4939,-2.512404395139006,mp-764909
Li7V4O11F,1.5892,-2.512304160579709,mp-758444
Sr10Fe4Co(MoO6)5,0.227999999999999,-2.512302680599998,mp-720106
K2MnSO4F3,1.5234,-2.512292868175549,mp-18838
SrV10O15,0.9045,-2.512259845961538,mp-19509
TmTl(WO4)2,2.731099999999999,-2.5121712036111132,mp-1207739
RbLiVPO5,2.3554,-2.51211034005291,mp-758914
U(MoO4)2,0.0,-2.512090697727272,mp-504890
Mg6FeSiO8,2.8207999999999993,-2.512044828125,mp-1032523
TiMn2Fe3(PO4)6,0.0,-2.511822717418125,mp-775993
MgNb2(FeO4)2,1.2234,-2.511814231923077,mp-2219822
Sr2FeO4,0.0,-2.51180644,mp-19102
Sr2MnTeO6,1.4722,-2.511738971959771,mp-1208762
Sr2ScCoPO3,0.0,-2.5116350430803562,mp-1188768
NaEr(MoO4)2,3.202099999999999,-2.5115786884482763,mp-1221047
Rb4BaV6O18,3.0652,-2.5115133236206892,mp-1196343
V5Co(PO4)6,0.0,-2.511485572440474,mp-790064
Sr2Co(ClO)2,0.5379,-2.51143146,mp-23130
Li4Cr3Ni(PO4)4,1.563099999999999,-2.511375196853741,mp-757193
SrCaV4O12,0.153299999999999,-2.511313941666666,mp-1523281
Sr2CoGe2O7,2.15,-2.511154295833333,mp-1191317
Li2CoSiO4,2.996299999999999,-2.511143563333333,mp-753732
KPrMnWO6,1.322299999999999,-2.511125722684769,mp-1522610
KNd(MoO4)2,3.3362,-2.511124669979168,mp-1211396
Ba6Pr2Co4O15,1.4233,-2.51111738882716,mp-1228751
Na7Fe4P9O32,2.6487,-2.5110835471430932,mp-1220949
BaEuV4O12,0.0,-2.510999096388889,mp-1521286
K2LiVPO6,2.4206,-2.510997295225108,mp-761139
ZrCrCu2(PO4)3,0.995499999999999,-2.510842703101504,mp-726391
YbGaCoO4,0.0,-2.510830498571429,mp-1215744
BaMo2(PO6)2,3.0078,-2.510484298193277,mp-555338
Li2CrFe(PO4)2,2.2877,-2.5104806214966002,mp-861527
NaLaV4O12,0.5880000000000001,-2.510451607021074,mp-1522693
Sr2VAs2O9,1.858299999999999,-2.510259067499999,mp-1218545
SrCo3(P2O7)2,3.081699999999999,-2.51015336538961,mp-1196626
Li4Ti3Mn4Cr2O18,0.4319,-2.5101456362921772,mp-768100
LiV5O7F,0.812199999999999,-2.510042373095238,mp-753402
Pr2Mg(MoO3)4,1.2114,-2.510028959385964,mp-2230300
KMg6MnO8,0.8576,-2.510003533448815,mp-1031885
Li5Mn5(PO4)6,0.560399999999999,-2.509940189354473,mp-773009
LiFe2Si2O7,2.013,-2.509797227152777,mp-780866
Li7CrFe3(PO4)6,1.1078,-2.509794000272938,mp-760796
BaSr(MoO3)2,0.0,-2.509711093,mp-1227741
V3P2O11,1.3295,-2.509552978861608,mp-775997
Li6Mn3P8O29,0.6261999999999991,-2.50950257143339,mp-776277
Lu4Mg(CoO3)4,1.150699999999999,-2.50944909484127,mp-2220356
MgVCrP2(HO5)2,2.056399999999999,-2.509230251575629,mp-2229489
Nd3Y3(Fe5O12)2,1.988999999999999,-2.509230242562499,mp-1220842
Li6Cr3Cu(PO4)6,0.000299999999999,-2.509142135446429,mp-774262
Li4Mn3NbFe2(PO4)6,0.5375999999999991,-2.50908834937459,mp-1177427
LuTl(WO4)2,2.775,-2.509048591666667,mp-1210736
LiMo(PO3)5,1.6246,-2.508782130297619,mp-695791
CoP4F12,1.283999999999999,-2.508763833445378,mp-1203442
Cs2Co(PO3)4,2.5682,-2.508761783967462,mp-643125
Mg6CuNiO8,0.006,-2.508583026875,mp-1032112
UW3O11,0.0,-2.508515598666666,mp-644303
Sr4Mn2CoO9,0.0,-2.508363065053879,mp-562909
Cr2P3O11,0.0,-2.508338919308034,mp-25818
CaLaCrCoO6,0.0,-2.508303185,mp-1048899
V3CrSb2(PO4)6,0.0,-2.50817961188492,mp-759710
NaNd(MoO4)2,3.4059,-2.50792963740661,mp-1220980
ErTl(WO4)2,2.9076999999999993,-2.5078555927777773,mp-1213014
LiV2O4,0.6926000000000001,-2.507835831904763,mp-1288227
P3(WO6)2,2.0967,-2.507801902584033,mp-780572
Li2NiP2O7,4.3398,-2.50775682424603,mp-779070
YMnFeO5,1.1209,-2.507691700366379,mp-1207651
Y2Mo4O15,3.3185,-2.507684173809523,mp-1203448
La2Mo4O15,3.2612,-2.507653918571429,mp-30163
Sr2Ca6Mn8O21,0.0,-2.507605185701305,mp-1247589
Li3V2S2(O4F3)2,1.0429,-2.507583578809523,mp-769588
SrCa7Mn7CrO23,0.0,-2.507458948667109,mp-1247601
Sr2MnSnO6,0.0,-2.507411429293104,mp-1523324
Th2Te3MoO13,3.4705,-2.507404374868421,mp-1194895
Li9V21O40,0.653999999999999,-2.507324756571427,mp-766679
HoNiO3,0.0,-2.507236383999999,mp-18974
Cr2SiO4,1.9961,-2.507166292857142,mp-18800
Cs2Ti(WO4)3,2.8344,-2.5071201268135392,mp-1226157
SrCa7Mn6Cr2O24,0.2,-2.5070862056896552,mp-1247710
LiMo2(PO4)3,1.3835,-2.507082738458994,mp-585265
PrCrTeO6,2.734099999999999,-2.507075172592591,mp-1190273
CaMnNiP2O9,0.026199999999999,-2.5070634767654822,mp-1043125
V5Te(PO4)6,0.010599999999999,-2.507042281514551,mp-768349
Li2Mn3P9O28,1.0749,-2.507015331005844,mp-758207
MgAlCr3FeO8,0.0,-2.507011203214285,mp-1222061
CaPr(FeO3)2,0.0,-2.506947514166667,mp-1044754
Li3Mo3(PO4)4,3.445599999999999,-2.50686125782967,mp-26351
Li3Fe2(PO4)3,2.6074,-2.506846264196427,mp-25993
TiMnV4O12,0.736,-2.506827467848021,mp-755152
BaFeP3H2O11,2.617099999999999,-2.506787597023809,mp-1228444
KLaZnWO6,2.773999999999999,-2.506611432225,mp-1518811
LiAlFeO3,2.4018,-2.506567632638889,mp-756015
MoP2O7,1.9637,-2.50622534217857,mp-26616
Li2TiNiO4,1.7574,-2.506217914375,mp-755096
DyTl(WO4)2,2.917099999999999,-2.506151887499999,mp-1212931
HoTl(WO4)2,2.9276,-2.506112064027777,mp-1212131
LiSi2NiO6,1.4438,-2.505998672083334,mp-753300
MgFe4(PO3)12,0.8642999999999991,-2.505885956805929,mp-2234300
Sr2YAlW2O7,0.0,-2.50586832076923,mp-1046811
CsFeSiO4,3.0852,-2.50584825387931,mp-644325
ErMnFeO4,0.0,-2.505821025418718,mp-1225495
NaLiNiPO4F,4.5594,-2.505778035206166,mp-1200250
CaPr2Mn3O9,0.313599999999999,-2.505776736141763,mp-1147781
SrCa7Mn8O22,0.0,-2.50575132943285,mp-1268192
MoOF4,4.1826,-2.505726884791667,mp-27511
TbTl(WO4)2,2.9699,-2.505724759583334,mp-1208360
TiCr2Fe3(PO4)6,0.0,-2.505687070033069,mp-1101312
AlCr2O4,2.0559,-2.505557187857142,mp-1393022
BaCaPrFeO6,0.219199999999999,-2.505544629166666,mp-1520023
Ti4FeBiPb4O15,2.0657,-2.505430643533333,mp-1217456
VZnP2O7,1.999299999999999,-2.505406533571428,mp-1048243
Mg6CrBO8,0.0,-2.505372218697917,mp-1099233
CaFe2(PO4)3,0.0,-2.505202056607143,mp-1214178
Li5Fe7O3F13,2.4995,-2.505193891309524,mp-780457
Sr3Ca5Mn8O20,0.0313,-2.505091928012453,mp-1247665
SiNi2(P2O7)2,4.3415,-2.504867028265305,mp-554616
NdY3(Mo4O15)2,3.3356,-2.504863707797618,mp-1220215
Li3Nb2CrO6,0.394199999999999,-2.504859032083332,mp-755780
Li7Mn3Fe(PO4)6,0.018899999999999,-2.504684580365453,mp-829746
Sm2Mo4O15,2.5504,-2.504615074365078,mp-16679
LiV2P2HO9,1.1631,-2.504535369924603,mp-778168
Y4Mn13Si2(SbO14)2,0.9658,-2.5045280967980292,mp-1044607
ZrMoWO8,2.9640999999999993,-2.504505649090909,mp-1215303
Li8Mn7V(PO4)12,0.0132,-2.504426465235502,mp-780716
SrCa3Mn4O11,0.0,-2.504356370880219,mp-1247640
KPr(MoO4)2,3.343799999999999,-2.504279572409723,mp-1211391
CaNi2(PO4)2,3.1073,-2.503994431098902,mp-1040914
KFeF3,0.0,-2.50385350045,mp-556891
Mn2P3O10,0.1442,-2.503840145652709,mp-26978
Li9Cr4(BO3)8,0.5127,-2.503735233185185,mp-759279
EuCrO4,0.0,-2.5037239083333342,mp-22586
NbV3Cu2(PO4)6,0.0,-2.503698217996032,mp-766010
YVO2,0.0,-2.503656476874999,mp-1207729
RbMo2(PO4)3,0.8925999999999991,-2.503606212023809,mp-14530
LiMnV(PO4)3,0.9615,-2.503544866955162,mp-768544
Ba2CrSnO6,0.0,-2.503437152499999,mp-1521461
LiCr(PO3)5,0.1909,-2.503408444502164,mp-705315
Li4MnNb2WO12,1.3856000000000002,-2.503374487063219,mp-757199
Ca2MnP2(H2O5)2,4.1295,-2.5033709611693022,mp-23718
Mn6AgP7O24,2.309199999999999,-2.503213723993497,mp-16185
Na2Mn2Fe(PO4)3,1.1065,-2.503159484627464,mp-1173719
NaFeP2O7,2.5578000000000003,-2.5031523532422733,mp-752506
Cs2TlCoF6,2.9239,-2.50312712826437,mp-1112565
Ca8Mn7CrO24,0.297099999999999,-2.50307562213793,mp-1247675
Li7Fe4(PO4)6,1.6567,-2.5030024968583042,mp-1177121
MgMo2(PO5)2,1.297599999999999,-2.5029965749523813,mp-2228683
Mn2(PO3)5,0.0132,-2.502973336321651,mp-882498
Li6CrFe3(PO4)6,2.3887,-2.502929920696427,mp-766014
KCo(PO3)3,0.0,-2.502796225084183,mp-1192408
MnInF3,0.001,-2.50279309391954,mp-1099572
La3Co2CuO9,0.044999999999999,-2.502769931666667,mp-1223344
K2MoP2O9,3.0368,-2.502757418306124,mp-542210
Li3VO4,4.0337,-2.502745246250001,mp-19219
Rb2FeHgF6,0.0,-2.50263420675,mp-1113778
SrCa7Mn6(FeO10)2,0.0,-2.502615706946839,mp-1077691
Sr2YGaNi2O7,0.4386,-2.5024638928846152,mp-1046143
SrMgSnWO6,2.887199999999999,-2.502269565,mp-1520140
LiMo(PO4)2,2.986,-2.50222500375992,mp-25983
Li3VBO5,1.8927,-2.502129693416668,mp-768849
LiCo(PO3)3,0.0,-2.502126885518707,mp-26015
K3MgScV2O8,1.556099999999999,-2.502102618783333,mp-2227375
Sr4MgMn4O10,0.0,-2.502088260880218,mp-2228369
NaY(MoO4)2,3.2744,-2.502047439281609,mp-1220703
Rb2MoP2O9,3.0281,-2.501914244948981,mp-1209627
Li8Ti6Mn7O30,0.9131,-2.501904418670272,mp-772622
Cr2Fe3(SiO4)3,3.1738,-2.501840143874999,mp-6670
LiY(MoO4)2,3.3563,-2.5017876352777773,mp-557310
VPO5,2.270299999999999,-2.501775414234691,mp-763482
CsNpMoO7,1.3526,-2.501750919340517,mp-1201281
Li2AlCr2SbO8,2.1334,-2.501683679047619,mp-1222901
Li3Co3OF7,2.772199999999999,-2.501663428928573,mp-761096
Mg6CrSnO8,1.395,-2.5016109403125,mp-1031623
K4BaV6O18,3.0658,-2.501586180482759,mp-1203528
Sr3Ca5Mn8O21,0.0,-2.501532741039143,mp-1247709
NaLi2CoF6,3.085,-2.501523124804598,mp-1111550
MgTi2(FeO3)2,0.290599999999999,-2.5014842356060623,mp-2227414
V3CrNi2(PO4)6,0.1225,-2.501466825218252,mp-766813
CaFe3P3O13,0.717299999999999,-2.501463665696429,mp-560784
K2Co(PO3)4,2.7457000000000003,-2.50146304305639,mp-540548
KLiMnP3HO10,3.7716,-2.501449701099584,mp-759967
Zn3Cr2(SiO4)3,2.681999999999999,-2.501444753249999,mp-1253507
GdMoO5,0.035699999999999,-2.5014416292857162,mp-1212636
Na2U(MoO5)2,2.2616,-2.501336907183907,mp-555784
CaLaFeBiO6,0.0,-2.5012266765,mp-1043887
ZnFeF4,0.0,-2.501203004166667,mp-1390771
CsFeCuF6,0.0,-2.5011727871839082,mp-1228920
Ba2FeMoO6,0.9037,-2.501110608,mp-1288978
DyNiO3,0.0,-2.501074798833333,mp-19265
Ba2YMn2TlO7,0.0,-2.500973254168876,mp-1048447
NdMn3V4O12,0.0,-2.500968434064655,mp-1105305
CaMnO3,0.468599999999999,-2.500438064086206,mp-19201
Li5Mn3Cu(PO4)4,1.4238,-2.500294795483834,mp-1177150
LiMn3(PO4)3,0.115699999999999,-2.500253562160789,mp-768446
V2Sb(PO4)3,0.0,-2.500192797440476,mp-772810
Li5Nb2V3O10,0.2252,-2.500127862833332,mp-754421
Ca8Mn8O23,0.0,-2.500125801434571,mp-1247706
V2AgP3O11,1.7981,-2.500062344446779,mp-1216770
Ti3Co2P6WO24,0.3561,-2.499991721607143,mp-867764
La4Mn5Co(PbO9)2,0.0,-2.499977553988505,mp-743770
Rb7EuFe6(P4O17)2,0.006899999999999,-2.4999693484757652,mp-1198666
ZnMoF5,2.6912,-2.499880723571428,mp-1404453
Nd2Mo4O15,2.5839,-2.499877768253968,mp-16678
LiLaV4O12,1.042399999999999,-2.499849938796297,mp-1520845
HoZnCr2O6,0.0,-2.4997952895,mp-1041120
Eu2Mn2O7,0.0,-2.499772190532917,mp-761284
NaLi2Mo2P3O14,2.455899999999999,-2.4995791038397512,mp-559443
Ca3Ge3(WO6)2,2.0729,-2.499558590124999,mp-1331549
UMn(OF2)3,0.6489,-2.499500133902821,mp-1208585
Fe3B7BrO13,3.676799999999999,-2.499475033298611,mp-1181439
Sr2MgCuWO6,2.2006,-2.499470907727273,mp-2217957
V3Cr2Ni(PO4)6,0.0,-2.499363939662698,mp-774829
Li4Ti3Fe3(SnO8)2,1.1995999999999991,-2.499353323333333,mp-756308
MnZnP2O7,3.15,-2.499341746110613,mp-1048260
BaEuInWO6,0.0,-2.499286957166666,mp-1516957
SrMnO3,0.0,-2.499284377086207,mp-559975
Ca8Mo7O20,1.145799999999999,-2.499268123999999,mp-1214022
MnV(P2O7)2,1.0769,-2.499232703825122,mp-774043
Ba3Co3Te(PO7)2,2.5517000000000003,-2.499213797432712,mp-1228226
Li2Cr5(PO4)4,2.5833999999999993,-2.499005116490298,mp-1101544
MnSn(BO3)2,2.5711,-2.498980624126437,mp-22213
Li3CrSiCO7,3.1997,-2.498921508269231,mp-774236
Ta3ZnFe3(O6F)2,0.4022,-2.498860245809524,mp-1173129
TiZnCo(PO4)3,1.4250999999999991,-2.498834501236772,mp-1044256
LiCr4(PO4)3,2.642899999999999,-2.498655774988095,mp-26967
Li3Fe4(OF3)3,1.9674,-2.498645742631579,mp-754277
BaCaFeWO6,0.0,-2.498643676,mp-1521698
Li6CrSn3(PO4)6,1.977899999999999,-2.498614229571429,mp-771364
SrNi3(P2O7)2,4.020099999999999,-2.498386486071429,mp-19211
KMnAs3F18,3.2695,-2.498322191638305,mp-1195473
K2VAuF6,0.0,-2.49830392445,mp-1112253
VFe(PO4)2,0.0,-2.498284732996031,mp-770962
Li4Fe(SiO4)2,0.2196,-2.498267425222222,mp-752650
MgV4O9,2.424399999999999,-2.498227642142858,mp-1041375
Li2VNi(PO4)2,1.6593,-2.498223306496598,mp-752716
Li3FeSiO5,2.3424,-2.4981904615,mp-764341
Na3CrSiBO7,0.698199999999999,-2.49814735102343,mp-771269
LiVSn3(PO4)6,1.365,-2.498098317891155,mp-770969
Li2VSiCO7,1.8798,-2.497984139722222,mp-770348
Li3P3(WO6)2,3.7635,-2.497922331696429,mp-777465
CaFe2P3HO12,1.2309,-2.497864244351503,mp-728240
Li6Mn3Fe(PO4)6,0.884599999999999,-2.497806696041256,mp-1176969
Mn3Fe2(SiO4)3,2.364,-2.497749834939655,mp-6239
NaLiCoPO4F,0.0,-2.497722196733945,mp-1204228
LiNi(PO3)3,4.7526,-2.497688596947279,mp-26001
Li8NbFe7(PO4)12,0.0,-2.4974732963471182,mp-776163
PrCoO3,0.0,-2.497417969333276,mp-20090
Li2MnCo(PO4)2,2.4961,-2.497405752420244,mp-755452
Li8MnFe7(PO4)8,3.8807,-2.497370901995367,mp-861717
Li4Nb3V3(SnO8)2,0.122899999999999,-2.497259108690476,mp-757062
V2Ni(PO4)3,0.0,-2.49717771327381,mp-772873
MgFe2(PO4)2,3.6256,-2.497156927637362,mp-1041045
Ti4(Fe2O5)3,1.3816,-2.496962872733332,mp-759740
MnCr(PO4)2,0.8088999999999991,-2.496907458934727,mp-775016
V5O9,0.5147,-2.496833639107143,mp-542334
Li3Co2P5O16,3.281999999999999,-2.496773487623627,mp-26203
Li3Cr2P4HO14,3.2829,-2.496698871659225,mp-753859
Nd3Fe5O12,1.833099999999999,-2.496524885625,mp-1201849
Li4Nb3V3(FeO8)2,0.2265,-2.496437984404763,mp-1177356
Li3Co2OF5,1.5334,-2.496394127272727,mp-849429
Li2AlFeO4,3.1948,-2.496377974583333,mp-772267
Li4Ti4Cr(Fe2O9)2,0.663899999999999,-2.496197868924732,mp-769457
NaCeV4O12,0.0,-2.496148788965517,mp-1523217
Sr4Mn2CuO9,0.6674000000000001,-2.496094741512214,mp-1218681
LiFe2P5O16,2.5853,-2.49606889360615,mp-26184
BaEuVBiO6,0.133599999999999,-2.496060778500001,mp-1521044
NaLaVSbO6,0.0,-2.496047611637931,mp-1519706
Y4V13Si2(SbO14)2,0.300099999999999,-2.496044163061225,mp-1044661
CsCoF3,0.0,-2.496041867597702,mp-556943
Li5Mn3(BO3)4,0.0,-2.496018831546934,mp-766500
Ba5Mn3ClO12,1.7323,-2.49599062684729,mp-560883
SrEuInWO6,0.0,-2.4959193371666673,mp-1519289
BaMg6CrO8,2.1705,-2.49589074375,mp-1033461
Sr2YVCu2O7,0.0,-2.495855529615383,mp-1360171
Li2Mn(PO4)2,1.1087,-2.495829342221801,mp-753291
Mg2VSbO6,1.186,-2.495816925000001,mp-1345395
Ba4MnGa2(S3F2)2,2.9405,-2.495784271937119,mp-1197784
LiNbFeO4,2.2421,-2.495743894047618,mp-756415
Li3NbV2O6,0.216699999999999,-2.495687532083334,mp-1295016
SrPr(FeO3)2,0.0,-2.495576067666667,mp-1218069
BaFePHO5,2.984999999999999,-2.495505406765872,mp-1195793
MgMnO2,1.9842,-2.495455750732759,mp-1080243