formula,bg,formation_energy,mp-id
Na7La2Sc2SiP5O24,4.11,-3.031204880964296,mp-2715755
LiYMg30O32,4.311299999999999,-3.031171421145833,mp-1037661
KLiTi2(PO5)2,3.1902,-3.031087416658482,mp-776444
K2TiTlF6,0.0,-3.031086850116667,mp-1111414
Er2Sn2O7,2.6825,-3.030940987272725,mp-3688
Na14Sc4Ta4Si11SO48,3.4374,-3.030826048408256,mp-2714578
BaLa2PtO5,2.4067,-3.030775586666667,mp-8809
Na4Hf2Nb2Si5SO24,2.4899,-3.030740935167121,mp-2715119
CaPbF6,3.455899999999999,-3.030607506249999,mp-20463
BaPbF6,2.8927,-3.030567061249998,mp-19799
Na5Ca4P4O16F,4.7165,-3.030539782015599,mp-556228
Na14La3Ta5(SiO4)12,2.9132,-3.030463237654192,mp-2713055
La3As2BrO7,3.1086,-3.030428158846154,mp-1203678
LiLa14(Cu3O14)2,0.0,-3.030424921496598,mp-774931
Li2CaSiO4,5.189699999999999,-3.030369032083332,mp-7610
KEuNb2O6,0.0,-3.030349726725,mp-1523241
Ba3CaTi3O8,0.0,-3.030319854,mp-1234083
K4U5Te2O21,1.769,-3.029818397729165,mp-556212
Li(SiO2)6,0.0,-3.029789802280702,mp-1235283
Zr2Ga(PO4)3,4.186999999999999,-3.029734488134921,mp-1020626
K4Al3(SiO4)3,0.0,-3.029408297909091,mp-1019788
LiEu3SiCl3O4,0.471,-3.029376486944446,mp-679929
Ti7Sn3O20,1.6804,-3.029333526277777,mp-761118
Na11Ti20O40,0.0,-3.029305880307593,mp-685431
LiLa2S2O8F3,6.6249,-3.029296072083333,mp-557969
Tb5Se2Cl3O10,3.7466,-3.029098746401041,mp-555909
LiYMg6O8,6.2437,-3.029045740208333,mp-1033703
K2Na2MgNb2(OF5)2,0.810999999999999,-3.028850190118874,mp-2230700
Er2Cu(B2O5)2,0.6619,-3.028765231568627,mp-17699
Ba3MgTi2O7,0.0,-3.028745158205128,mp-2218647
Na2Sm2MgTi2O8,0.0,-3.028660338295019,mp-2232341
K2LiNbF6,0.0,-3.028621898783333,mp-1111109
La2S2O,2.5455,-3.028526543500001,mp-755887
Ho2TeO6,3.0134,-3.028521803518517,mp-768762
BaZrTiInO6,0.0,-3.028436694,mp-1517256
Mg3(BO3)2,5.143,-3.028432701666668,mp-5005
Li2SnF6,5.0089,-3.028432519074074,mp-1205739
Ba2Tb2Ti2Cu2O11,0.0,-3.028400453947367,mp-505223
Na6Hf2Ti2Si5SO24,2.5584,-3.028384996311064,mp-2713974
Na4Al3Si3IO12,4.151299999999999,-3.02832147197901,mp-23655
Na7La4SiP5O24,3.751499999999999,-3.028290913322019,mp-2715788
HoSO,1.190999999999999,-3.028261964166665,mp-769118
K11Li4Ta15O45,2.0781,-3.028102298774443,mp-1225077
Tb2SbO2,0.0,-3.028075614666669,mp-755713
KNdZr4O12,0.0,-3.028071073041666,mp-1522378
BaLa2PdO5,2.3421,-3.027764744444446,mp-1105217
KRbTi4(PO4)6,2.5755,-3.027754263498346,mp-1223406
Li4Ti3O8,2.1744,-3.027623372888888,mp-755266
LiEr2S2O8F3,6.176,-3.027579923177083,mp-555002
Ca3NbGa3(SiO7)2,3.4364,-3.027572959673912,mp-1214038
Ho2Sn2O7,2.7013,-3.027425837727271,mp-3884
Na5Sc3NbSiP5O24,2.3081,-3.027381849276347,mp-2715994
Na5MgZr3SiP5O24,3.595499999999999,-3.027349610387457,mp-2716057
Dy2Sn2O7,2.7123,-3.027287646212119,mp-20845
RbBaPO4,4.995900000000001,-3.027209593163264,mp-17832
Na4ScTa3Si5SO24,3.005299999999999,-3.027196789825015,mp-2715039
NaHf2Ti2P5SO24,2.0477,-3.027180967488388,mp-2716231
NaMg3Si4HO12,4.1913,-3.027125870601396,mp-1221204
SrLaEuSbO6,0.086899999999999,-3.027072617500001,mp-1518162
Na2CaPO4F,4.7508,-3.027008469989053,mp-559376
Cs3GaF6,5.8579,-3.026964315646551,mp-1113117
Tb2Sn2O7,2.7218,-3.026676199848483,mp-4991
Na14Y4Ta4Si11SO48,3.3785,-3.026671181904191,mp-2714481
NaLaNb2O6,0.0,-3.026661746637931,mp-1520737
Rb2EuGa(SiO3)4,0.1812,-3.026660472625001,mp-684467
BaY2PdO5,1.787999999999999,-3.026492026666667,mp-9656
Sm2IO2,0.0,-3.026465084,mp-553121
CaEuZrGaO6,0.0,-3.026413273250001,mp-1522936
Ba2Sm2Ti2Cu2O11,0.0,-3.026394965877192,mp-1214615
Ba2YReO6,0.0,-3.026363982249999,mp-6430
Na5Hf2Al2SiP5O24,4.5474,-3.026327965131047,mp-2715904
SrDyO3,0.0,-3.026185685333332,mp-1187145
Eu2B5ClO9,0.759,-3.026125939754903,mp-553918
ErHO2,3.9885,-3.025769705312499,mp-504801
MgNb4(O2F)4,0.0,-3.025714972058822,mp-2229219
Lu2Sn2O7,2.618299999999999,-3.02570395439394,mp-15170
Na4YTa(SiO4)3,3.305399999999999,-3.025646144342091,mp-2716521
La5Dy3(CuO4)4,0.0,-3.025642332857142,mp-1223395
Ba3NbGa3(SiO7)2,3.2958,-3.025610904021738,mp-12881
Na5Sc2Ti2SiP5O24,2.2157,-3.025504205985748,mp-2714045
Na4LaZrSi2PO12,3.6239999999999983,-3.025452244610799,mp-2715586
Na8Hf2Sc2Si5SO24,4.083299999999999,-3.025438112187329,mp-2715651
Er(PO3)3,5.9041000000000015,-3.025386904725275,mp-27939
CaB4O7,5.7875,-3.025380696492995,mp-556214
Ba10Pr5Nb2(SnO10)3,0.0,-3.025350935066666,mp-1229129
Li9Ti7Nb5O30,0.0,-3.025251833594772,mp-767497
BaSrLaSbO6,3.688399999999999,-3.0252036165,mp-1518099
RbTi2(PO4)3,2.6058,-3.025165085449734,mp-6125
Na2ScTi(PO4)3,2.3077,-3.025161112720379,mp-2713567
SrLaNbZnO6,2.372899999999999,-3.025107013499999,mp-41918
Ti2P2O9,1.9409,-3.024769961419415,mp-1044823
CaF3,0.0,-3.024616813125,mp-1183590
Na6Sc3NbSi2(PO6)4,2.6599,-3.024342961171183,mp-2715236
BaCaGdSbO6,3.3061,-3.024235530000001,mp-1521197
CaNb2O4,1.2773,-3.024087829999995,mp-29792
Sm3NbS3O4,2.3887,-3.024022469545456,mp-16135
LiMg14AlO16,4.285999999999999,-3.023898988229166,mp-1036537
Na4LaYSi(PO6)2,3.7444,-3.023732840228712,mp-2714436
Ta3NO6,2.1157,-3.023652777033335,mp-1193678
Li2MgZrO4,0.000299999999999,-3.023588638958332,mp-1222626
Dy2TeO6,3.006599999999999,-3.023561665555556,mp-768313
BaGd2CuO5,0.377299999999999,-3.023537846388889,mp-1182677
Na10Hf5Mg3(PO4)12,4.2797,-3.023408027921035,mp-2713419
Mg9Si4(HO9)2,5.0615,-3.023366194469697,mp-1222597
Ca3Si4(SnO7)2,2.8973999999999993,-3.023269074999999,mp-1249213
Ca7Si6H4CO23,4.581099999999999,-3.023255006951219,mp-733443
Gd3NbS3O4,0.146599999999999,-3.023233335227273,mp-510057
Cs2MnSi5O12,2.4585,-3.023212777049569,mp-15126
Na14Zr4Ti4Si11SO48,2.7804,-3.023178923619639,mp-2714431
Na6MgZr3Si2(PO6)4,3.597399999999999,-3.023151183962849,mp-2715235
SmZrNO2,1.791,-3.023147554,mp-1219036
Na6CaZr(SiO3)6,4.314500000000001,-3.023134895414872,mp-695056
BaEuDySnO6,0.0,-3.023078161416667,mp-1521304
Na3ScSi2O7,4.0305,-3.023075551472148,mp-557463
Ho2Cu(B2O5)2,0.6646000000000001,-3.022947714509802,mp-18259
Rb2LiNbF6,0.0,-3.022893011833333,mp-1110630
Na2UO4,1.866,-3.022789054679803,mp-554191
NaTaTi3(PO4)6,2.3579,-3.022760592092471,mp-2713953
Na8Al6Si6O25,1.8468,-3.022759674578545,mp-1173749
BaB4O7,5.3277,-3.022734623993024,mp-27692
Na7Y2Ti2Si3(PO8)3,2.5991,-3.022693554884156,mp-2714730
Sm2U2Se3O4,0.0,-3.022615030184657,mp-1219211
MgTi(SiO3)2,0.0,-3.022462560333333,mp-1154515
Na7Sc2Ti2Si3(PO8)3,2.6256,-3.02236422821749,mp-2714906
Na4YTa3Si5SO24,2.891599999999999,-3.022316569605717,mp-2715112
Sr2La14Mg2Ga14O45,0.0,-3.022265284545454,mp-686382
Ba2Nd2Ti2Cu2O11,0.0,-3.022151842982454,mp-557043
Na6Y5Nb3(PO4)12,2.0862,-3.022106995008875,mp-2714916
Mg2TiNb2O8,0.0,-3.02203833025641,mp-1048076
LiMg30TiO32,0.466,-3.021911186354166,mp-1095705
Na3La2(BO3)3,3.790199999999999,-3.021893579213996,mp-560129
Na3Ti2Si2PO12,2.731099999999999,-3.021870058897373,mp-2713692
Na8CaZr3Si4(PO12)2,3.7482,-3.021833622547307,mp-2715685
Na3Hf3MgP5SO24,4.5133,-3.021808150176186,mp-2716009
SrLi2SiO4,4.6041,-3.02176319125,mp-1191141
KNaTi2(PO5)2,3.0614,-3.021760561848856,mp-1211611
Sr2La2MgRuO8,0.0,-3.021687624642857,mp-1173266
NaLaHfSnO6,2.6241000000000003,-3.021612577137931,mp-1521559
Na4La3Nb(PO4)6,2.4211,-3.02130756250108,mp-2713254
KNaTi4(PO4)6,2.4827,-3.021249765272771,mp-1223398
Cs2MgTi2Cu2(OF5)2,0.5483,-3.021204501104054,mp-2231705
Nb5O12F,0.0,-3.021156121944444,mp-759636
Na2Nd2MgTi2O8,0.0,-3.021126637961686,mp-2232578
Al2ZnO4,3.845999999999999,-3.021072628571429,mp-2908
CsNaSnF6,5.357,-3.021046195531609,mp-14380
PrO2,0.0,-3.020819083888888,mp-1302
Ba4Ce2In2O11,2.0237,-3.020804003070175,mp-1228307
NaTa4O8,0.0,-3.020694886977913,mp-1220959
TbEu2GeO6,0.0,-3.020643271166667,mp-1519127
Na8Y2Hf2Si5SO24,3.8485,-3.020531121393678,mp-2715760
K2LiInF6,5.2984,-3.02043609045,mp-1111671
Sr2YTi2TlO7,0.0,-3.020414195,mp-1045706
Ba2Ti3AlO8,0.0,-3.020404671428571,mp-1041926
PrIO,3.6584,-3.020284710555554,mp-29254
Na5Y2Ti2SiP5O24,2.1726,-3.020283292481475,mp-2715969
Na3ScTi3(PO4)6,2.254099999999999,-3.020172919558427,mp-2714805
NaTi2(PO4)3,2.4429,-3.020120663165252,mp-6761
Ca2GaSi2O7,0.194599999999999,-3.020102749374999,mp-1214106
Na7Hf2Al2Si3(PO8)3,4.425499999999999,-3.020073020981718,mp-2715171
NaSrPO4,4.5196000000000005,-3.020019666931738,mp-1210115
Dy(PO3)3,5.9047,-3.019989166391927,mp-771106
Na5Y4P5SO24,4.6177,-3.01993603053703,mp-2714931
Na2Ti2O5,3.8676,-3.019909160491699,mp-781948
Sm2CuO4,0.0,-3.019895257142858,mp-4210
Cs2KTiO2F3,3.84,-3.019816612765964,mp-1226274
Sr4Li2B12O23,4.877599999999999,-3.019715565528455,mp-1020725
Na8Al6Si6SO28,4.035900000000001,-3.019507004806913,mp-41734
Na10Ta6Al2Si11SO48,3.040599999999999,-3.019487546392647,mp-2716362
LiLa20Cu9O40,0.0,-3.019460539761906,mp-774722
Ba3Nb2CdO9,2.8138,-3.019409024333334,mp-1214502
Li2Ti6Zn3O16,2.8926,-3.01938519691358,mp-759849
Ba2Ca2TbTi3(CuO7)2,0.0,-3.019091488194444,mp-1214744
Na2Nb2(SiO4)3,3.0014,-3.019082362689051,mp-2714432
Na6Sc5Nb3(PO4)12,2.1214,-3.019052879941308,mp-2714746
Al11NO17,0.0,-3.01904848637931,mp-1214955
MgTi4O6,0.0,-3.018921448030303,mp-1046590
Na8Al6Si6CO27,3.365999999999999,-3.018920060021551,mp-39823
Cs2UO4,1.8211,-3.018815749901482,mp-2991
RbNaTi2(PO5)2,3.0461,-3.018798374364481,mp-1209409
Na30Ca4Ta20Si33(SO48)3,2.952399999999999,-3.018769248677548,mp-2716300
CsLiF2,6.2744,-3.018766748541665,mp-7594
LiTiPO4F,0.1648,-3.01871684516369,mp-25420
KNaCa3Mg10(SiO3)16,3.325599999999999,-3.018655759729485,mp-1224270
Pr5(RuO6)2,0.192199999999999,-3.018645168333337,mp-558974
Zr7(NO2)4,2.7753,-3.018584558421052,mp-561974
Rb6Si10O23,4.468400000000001,-3.018547375384607,mp-27376
Sr2HoReO6,0.0,-3.01842336775,mp-7888
Ba2La4CuPtO10,0.8681999999999991,-3.018366510555557,mp-1228518
K2SnF6,5.1508,-3.018336535499995,mp-1205971
Na9CaTa9TiO30,2.538699999999999,-3.018231577534941,mp-693144
Rb3Y2(BO3)3,4.1682,-3.018221083529412,mp-556206
LiTi2(PO4)3,2.4425,-3.018196908273809,mp-18640
LiYMg14O16,3.8415,-3.018014186354166,mp-1035901
Nd3Re2O9,0.163,-3.017871513750001,mp-1210151
Nd4Cu2O7,1.519199999999999,-3.017822813461537,mp-556595
CsLi2F3,7.1281,-3.017809790972222,mp-606604
LiLa2ReO6,0.0,-3.017752487583335,mp-1190023
KNaSnF6,5.1714,-3.017626465958811,mp-555076
Ba6Lu2Ga4O15,3.4879,-3.017422973271605,mp-1214574
NbF4,0.0,-3.017305205399998,mp-1416
Ba3ZnB5PO14,4.8405000000000005,-3.017289100228173,mp-1019525
La2Sn2O7,2.664499999999999,-3.0172737977272712,mp-4086
Ta3Al(PO4)6,2.4752,-3.017270685780112,mp-2713962
NaMg30AlO32,4.381299999999999,-3.017136293459051,mp-1038206
Na3HfAlSi(PO6)2,4.521100000000001,-3.016962368171183,mp-2715477
SrB4O7,7.119099999999999,-3.016896000138888,mp-5540
Li2GeF6,5.7409,-3.016499819629629,mp-7791
Sr2La14Mg4Ga12O43,0.0,-3.016481736866668,mp-1173283
Na2Zr2O5,2.0327,-3.016412266417625,mp-1186029
Na4LaScSi(PO6)2,3.9135,-3.016377754673158,mp-2714528
Na3ScTiSi(PO6)2,2.2291,-3.016195303254516,mp-2715337
La20Cu9O40,0.0,-3.016170005652176,mp-849992
Pr5Si2Se3O17F,3.9696,-3.016056508941592,mp-1194712
Na3Sc2(BO3)3,3.7232,-3.016048803331642,mp-561018
NaNb13O33,1.6963,-3.016015173752752,mp-672212
Na6Zr4Ta4Si9(SO16)3,3.157299999999999,-3.016001002253729,mp-2712856
Li2Si2O5,5.154,-3.015912327407407,mp-4117
Na4Ti2(SiO4)3,2.8399,-3.015865174151616,mp-2716309
Na5Ca4(SiO3)6,0.0,-3.015750381219087,mp-1210654
La7(RuO6)3,0.405199999999999,-3.015724585267859,mp-555890
Ta9Pb12O20F29,2.486799999999999,-3.015685291871428,mp-555105
Mg10TiSn(BO5)4,3.2487,-3.015660785277779,mp-1222637
Na14Ta5Al3(SiO4)12,3.390199999999999,-3.015563113609475,mp-2712974
BaAlGaO4,3.350099999999999,-3.015529935357142,mp-1227987
Na7La3TaSi3(PO8)3,3.203999999999999,-3.0154402381931,mp-2715190
Nb9PO25,2.1273,-3.015417046846941,mp-1220604
Na2LiGaF6,5.7453,-3.015398045359195,mp-1114242
HfZrP2SO12,4.281,-3.015321085595238,mp-2713342
Mg2B2O5,5.1706,-3.015306194537037,mp-18256
RbNaSnF6,5.148199999999999,-3.015227448764367,mp-8333
Na3Ti4SiP5O24,2.4488,-3.015209182811321,mp-2712831
BaGd2PdO5,0.0275,-3.015181963888906,mp-505438
Cs2Na2SnGeF12,5.0789,-3.015075687614942,mp-1227036
Y4Ti13Si2(SbO14)2,0.0,-3.015011600068026,mp-1257812
LiCeTi4O12,0.0,-3.014907637592594,mp-1520768
K2Ce(PO4)2,1.4179,-3.014878776060439,mp-1195550
Ba6Tb3Nb(SnO9)2,0.0,-3.014871498222222,mp-686370
SrLi2Nb2O7,1.6613,-3.014817200138888,mp-557857
SrCu(Si2O5)2,1.0593,-3.01476975453125,mp-14862
Ta4SnO12,2.8111,-3.01464046790196,mp-1173146
BaLi2Mg(PO4)2,5.638199999999999,-3.014410405782313,mp-1019547
Ba6Tm2Ga4O15,3.5153,-3.014309899999999,mp-1214558
Na7CaY3(PO4)6,4.2431,-3.014253566118188,mp-2714123
Ba17Tm16Zn8Pt4O57,2.2625,-3.014212638284315,mp-557741
K2Zr(PO4)2,4.4906,-3.014198637214285,mp-1223853
Na2Ti2Si(PO6)2,2.5551,-3.014165527563738,mp-2712538
Na3YTi3(PO4)6,2.2129,-3.014164502846714,mp-2714643
Rb2LiInF6,5.2622,-3.013948160499999,mp-1113733
Na3Ti2Nb2Si3(PO8)3,2.6679,-3.013941487605401,mp-2712999
Ba2B2AsH3F18,5.0476,-3.013855941714744,mp-1198263
BaZr4SnO12,0.0,-3.013800833611112,mp-1521719
Rb2Zr2O5,1.692,-3.013763015555556,mp-862664
La2Pd(OF)2,0.0,-3.013693792857144,mp-1147572
KTa5Pb2O15,2.4503999999999992,-3.013656517996376,mp-1223615
MgSbF6,0.0,-3.013647811875,mp-1397377
Na2Pr2MgTi2O8,0.0,-3.01364131251724,mp-2227303
BaGd2PtO5,2.2586,-3.013609235555555,mp-19750
La3TiGa5O14,3.123799999999999,-3.013489991557969,mp-1211258
CsTa(BO3)2,3.4027,-3.013451491032184,mp-9309
Ba2NdSbO6,3.7321,-3.01343531975,mp-6122
Na7Ti4Si5PO24,2.6959,-3.01341723506418,mp-2714527
NaYMg30O32,4.229699999999999,-3.013348956115301,mp-1037632
TiF2,0.436399999999999,-3.013348831111111,mp-282
Cs2NaSrF6,0.0,-3.013346729068966,mp-989574
SrTbEuSbO6,0.296,-3.013247925166668,mp-1516843
Na3Li3In2F12,5.382199999999999,-3.013227017373563,mp-6527
Na5Ti4Si3(PO8)3,2.5008,-3.013164137200645,mp-2714224
RbLiF2,6.1394,-3.013163148333333,mp-7593
BaCaSmSbO6,3.3996999999999993,-3.0130150755,mp-1517996
K4Ta3NbO12,1.935999999999999,-3.012996557549999,mp-1223769
NaCaGaSi2O7,4.1425,-3.012875022406609,mp-1221117
La2MgSbO6,0.0,-3.012830934499999,mp-1403741
Tb(PO3)3,5.6602,-3.012819646968865,mp-1196764
Na3Nb4Si5PO24,2.9222,-3.012624637084165,mp-2714321
BaCaAgF7,0.6397,-3.012488982916666,mp-1041316
CaPrO3,0.019499999999999,-3.012427107833333,mp-756708
LiSi6BiO14,3.9643,-3.012385302196969,mp-849779
BaCu(Si2O5)2,1.0532,-3.012247951718751,mp-6127
CaTa5(PO4)9,3.0697,-3.01214270938142,mp-2713900
NaNd(Si2O5)3,0.0,-3.012045515168665,mp-1198222
Na7Y3NbSi3(PO8)3,2.2394,-3.01200676512806,mp-2714710
RbYO2,3.6087,-3.011982739375,mp-14437
NaNb2Si2PO12,2.9683,-3.011956288297529,mp-2713518
La(PO3)3,4.6293,-3.011946069148352,mp-9646
LiCaBO3,5.039099999999999,-3.011904808333334,mp-561237
Na7Sc3NbSi3(PO8)3,2.1378,-3.011830469884156,mp-2715115
Na8Sc3NbSi4(PO12)2,2.3183,-3.011724504967941,mp-2715680
KNaSmNbO5,3.4945,-3.011719499292145,mp-556438
Y(PO3)3,5.6784,-3.011676397129108,mp-554423
CaCeEuGeO6,0.2682,-3.011537938000001,mp-1522640
Ca2Ta3CuBrO10,0.0,-3.011496670411764,mp-1182216
Sm2Ge2O7,3.6725,-3.011473042499999,mp-772840
Na3TiNb(SiO4)3,2.8065,-3.011356401540231,mp-2715478
Na6La3NbSi2(PO6)4,2.4475,-3.011348889962849,mp-2715294
Na2HfZrSi2SO12,4.1052,-3.011248311767998,mp-2712769
HoHO2,3.9486,-3.011219210312498,mp-626173
Na5TiNb3(SiO4)6,2.8114,-3.011138610860596,mp-2713212
CaNdEuSbO6,0.0,-3.01111793325,mp-1517143
SrNdEuSbO6,0.0,-3.01100591675,mp-1522789
CsU(PO4)2,0.6022000000000001,-3.010872630328406,mp-1229063
CsNa7Ta8O24,2.4505999999999992,-3.010786184199425,mp-997591
Na10ScNb7(SiO4)12,2.7549,-3.010760072420426,mp-2713359
BaCaO2,2.8163,-3.010709257499999,mp-756930
K2AlCuF6,1.1155,-3.010690930449999,mp-1112165
LiNd14(Cu3O14)2,0.0,-3.010613823435373,mp-766561
Na5Eu4Si4O16F,0.0,-3.010597769063218,mp-1192436
Cs3GeF7,4.3869,-3.010563244905957,mp-17973
BaTbEuSnO6,0.0,-3.010481254916667,mp-1522768
Na10Zr8Si9(SO16)3,3.9709,-3.010418398414015,mp-2714084
Na2HoNb5O15,1.9229999999999992,-3.010398228815592,mp-1210526
ErInO3,1.9651,-3.010210249000002,mp-772217
BaDyNbSnO6,1.7764000000000002,-3.010201608666666,mp-1516666
CsUVO6,1.946,-3.010109101628352,mp-562513
Mg(SiO2)6,3.2288,-3.010031725,mp-1233493
BaSrCeSbO6,0.1107,-3.010024907999999,mp-1518051
RbTa(BO3)2,3.4509,-3.009934251316667,mp-1209097
Na2Ta8Si9(SO16)3,3.1178,-3.00977907534179,mp-2714209
Na30Mg4Ta20Si33(SO48)3,3.032899999999999,-3.009697321711735,mp-2716319
Li2Zr2(PO4)3,0.0,-3.009539326873434,mp-773052
BaSm2PdO5,2.032,-3.009463532222222,mp-8515
ZrNb2ZnO8,3.086999999999999,-3.009404759166667,mp-1215249
La2HgO4,2.254099999999999,-3.009393516071427,mp-779287
Ba13B30(PbO30)2,4.0522,-3.009334206619047,mp-1229148
NaLaTa(PO4)3,3.0654999999999992,-3.0093085643134,mp-2713994
Rb2ScAuF6,1.6982,-3.009116091,mp-1110582
K8Gd3Si12ClO34,0.085099999999999,-3.008999102379311,mp-1225838
Na3Y3TaP5SO24,3.0491,-3.008988234383394,mp-2715940
Cs2KInF6,5.4629,-3.008938931322701,mp-989639
MgNbOF3,0.0,-3.008910915833333,mp-2223090
BaSm2PtO5,2.6307,-3.008846080000001,mp-9757
Na5Ga3F14,5.3979,-3.008649639063479,mp-558924
SrEuYSbO6,0.346199999999999,-3.008631091500001,mp-1520937
Sr2GaP2(O4F)2,0.099099999999999,-3.008618703285714,mp-1197925
Ba2GdReO6,0.0,-3.008614165249999,mp-1207285
Y2Al3Ga3(BO3)8,5.099299999999999,-3.008589225395833,mp-1216259
Ba6Er2Ga4O15,3.7436,-3.0085503674074072,mp-555481
Na14La4Ta4Si11SO48,3.389999999999999,-3.008498129505819,mp-2714405
Rb3GeF7,4.3549,-3.008474705227272,mp-1209273
LiNb13O33,1.7567,-3.008369918049646,mp-772535
NdZrNO2,2.0221,-3.008242452,mp-1220112
Na8Y3NbSi4(PO12)2,2.4175,-3.008049206118735,mp-2715752
Rb2NaNbF6,0.0,-3.008042601637931,mp-1113673
Ca2ZrSnO6,3.5577,-3.0079911025,mp-1518540
Ba2B5BrO9,5.3458,-3.007960057107843,mp-1214841
Ba2YTi2TlO7,0.0,-3.007942628846154,mp-1046020
Ba2ZnCuBi2F14,1.3302,-3.00780762375,mp-1359492
TiNbTl(O2F)2,2.6792,-3.00778477462963,mp-677378
Tb2MgTi2S2O5,0.0,-3.007768949583333,mp-2218189
Ba4Ti2PtO10,1.9973,-3.007728040980392,mp-558894
BaSrNdSbO6,3.6367,-3.007535548250001,mp-1522133
NaEuNb2O6,0.0,-3.007519069637931,mp-1519267
KAl3Si3(HO6)2,4.8237000000000005,-3.00742880677381,mp-1200795
Ca2B5BrO9,5.1916,-3.007398653578431,mp-554056
Na7Ti3Nb(SiO4)6,2.5152,-3.007345156820858,mp-2712886
Na2TiNbSi2PO12,2.743999999999999,-3.007276597056218,mp-2713031
CsNaEuNb5O15,0.0,-3.007262267653674,mp-1226662
Na8La3TaSi4(PO12)2,3.3467,-3.007025698555244,mp-2716163
Na5La3NbSiP5O24,2.2938,-3.006945349019936,mp-2715923
CaCu(Si2O5)2,1.0521,-3.006848306875,mp-6189
Na10YNb7(SiO4)12,2.7503,-3.006823506202476,mp-2713378
K2Si6GeO15,4.399699999999999,-3.006727164354167,mp-18460
KNaGdNbO5,2.7742,-3.006707322625479,mp-13170
Na5Ta3Si6SnO24,3.786799999999999,-3.006653220954613,mp-2713168
LaNdCuO4,0.0,-3.006572671785714,mp-1222802
Na7MgZr3Si3(PO8)3,3.9101,-3.006550213705295,mp-2714771
Na7CaTa3(SiO4)6,2.7784999999999993,-3.006544282316793,mp-2712891
Ba3RuF6,0.8278000000000001,-3.006529993,mp-1239116
KSmO2,3.8604,-3.006470040562499,mp-1178133
Na10Ca3Zr5(PO4)12,3.4054,-3.006463161788557,mp-2713521
CaEuTiSnO6,0.285899999999999,-3.006452671333334,mp-1522056
CaTaTi(PO4)3,0.0,-3.006395603033068,mp-1043751
Cs2UP2O9,2.1222,-3.006360517042576,mp-561356
Na4LaTa3Si5SO24,2.6946000000000003,-3.006218545351331,mp-2715005
La6B(NO2)3,1.0926,-3.006195688697919,mp-560824
Rb2U3P6O25,2.117099999999999,-3.006168716746032,mp-1204278
Li17La12Zr8O48,0.009399999999999,-3.006154989843137,mp-1120817
CsTi3P5O19,2.7906,-3.00614695635248,mp-561121
Na4ScTiSi2PO12,2.4101,-3.006093163737782,mp-2716142
Na4Ti6O13,0.0,-3.00607034523988,mp-1190468
Na4HfAlSi2PO12,4.203699999999999,-3.006059055960006,mp-2715690
BaSm2CuO5,0.0,-3.005647547777777,mp-21568
BaCaDySbO6,3.3728,-3.005607106166667,mp-1521128
Y2Sn2O7,2.7501,-3.005540767272727,mp-3370
Na2YTi(PO4)3,2.1217,-3.005437217457221,mp-2713541
Na4Hf3Zn(PO4)6,4.5255,-3.005428739299325,mp-2713266
KEuPO4,0.0,-3.005391152056123,mp-18045
Y2HgO4,2.1403,-3.005133088214286,mp-756103
SrCaPrSbO6,3.3749,-3.005121814666667,mp-1517320
Li4Ti2Si4O13,0.1646,-3.00509087673913,mp-765243
NaMg30TiO32,0.5575999999999991,-3.005080560854885,mp-1098352
Na6Hf8Si7S5O48,3.181,-3.004961992014989,mp-2712936
NaScNb(PO4)3,2.4092,-3.004738187702291,mp-2713866
NaTiNbSi(PO6)2,2.5741,-3.00470553411102,mp-2715783
Ti4Tl2O9,2.724499999999999,-3.004671247333335,mp-540598
KLaO2,3.8596,-3.0045629105625,mp-7958
LiMg14TiO16,0.3624,-3.004470225833333,mp-1034182
BaNaPO4,4.6009,-3.004402576574595,mp-1227883