formula,bg,formation_energy,mp-id
Na2Ca5Zr3(SO4)12,2.7269,-2.486790059896552,mp-2714775
Cs2RbSmCl6,4.8937,-2.486713688181034,mp-1112118
YbCl3,0.0,-2.486667944374998,mp-1025400
Na14Mg2Si9Sn6(SO16)3,1.9518,-2.48666506725785,mp-2714787
Mg6ZnSnO8,2.457099999999999,-2.486620793437499,mp-1032036
Mg3CdO4,1.8327,-2.486541740625,mp-1099255
LaSBr,2.790799999999999,-2.486468846249998,mp-1211452
TbSeClO3,4.386799999999999,-2.486382203168402,mp-554903
NaCaNbSi(SO6)2,0.7746999999999991,-2.486332420539592,mp-2712582
Ba2Eu2ZnPtO8,0.0,-2.486298564285715,mp-566287
BaGa4O7,2.5768,-2.48627306875,mp-769971
KEr2Cl7,4.7226,-2.486244251541669,mp-1211690
Na3SiGe4P5O24,3.1262,-2.486215855063573,mp-2712986
KMg6SiO8,0.7852,-2.486119954828125,mp-1031251
Li2Sn(PO3)6,2.3889,-2.486117642574956,mp-757479
Na2YGaSi(SO6)2,3.071399999999999,-2.486096295890804,mp-2713614
Li4Cu(PO4)2,0.069399999999999,-2.486084921674602,mp-26223
BaMg6ZnO8,4.0677,-2.485979838749999,mp-1032037
Al2Ge(HO3)2,3.8758,-2.485961266590909,mp-643346
UCu2(PO5)2,0.0,-2.485950907285713,mp-558650
Sr2In2O5,0.9973,-2.485892069814815,mp-22512
RbTa(GeO3)3,3.4846,-2.48581121677381,mp-540632
NbPHO5,0.1305,-2.485711221361607,mp-756508
Sr3InRhO6,1.5007,-2.485689400151514,mp-669389
Sn(PO3)4,3.6039,-2.485675747857143,mp-25908
Na6Ta3Ga5Si6(SO8)6,2.2326,-2.485670338460936,mp-2714822
CaSn3P3O13,0.0,-2.48566077419643,mp-1353875
Pr2Te2O7,1.5419,-2.485600841969696,mp-16152
Sr2YGaCu2O7,0.0,-2.485577612499999,mp-556575
RbHF2,6.450200000000001,-2.4853297609375,mp-29764
TiSb3(PO4)6,0.0,-2.485233960035013,mp-774803
Ca7Cu(PtO6)2,0.5033999999999991,-2.485199199545454,mp-560453
Cd2B6PbO12,3.5842,-2.485058669404762,mp-1194787
Cs2KPrCl6,4.9664,-2.484897917822701,mp-1112721
Ba3EuRu2O9,0.0215,-2.484864778333334,mp-556259
Na3GaGe3(PO4)6,2.705199999999999,-2.484850733995362,mp-2714818
Ta2Si3Sn2(SO8)3,1.3978000000000002,-2.484827378446078,mp-2713836
NaSiSbO5,3.1404,-2.4848078407974152,mp-14730
Ta3Zn2Bi3O14,2.6231,-2.484653124181817,mp-1218076
Ca3ZnGe5O14,2.4999,-2.48463556021739,mp-1019566
Mg2Nb4Si3(SO6)6,1.607899999999999,-2.484595216470589,mp-2713513
Cs2NaSmCl6,5.1745,-2.4845680815689652,mp-580541
Na6Ca6Ti2SiS11O48,1.5513,-2.484560246767242,mp-2713611
NaTi2Ga2P3(SO8)3,1.8737,-2.484552953508798,mp-2716436
KTm2Cl7,4.7734,-2.484546533125001,mp-1211484
Na3Mg2P(SO6)2,4.6807,-2.484481990105707,mp-2713990
MgTi3SiS5O24,1.6121,-2.484475679093138,mp-2712827
K2RhF6,0.0,-2.484325778277777,mp-8018
Ta3(Bi2O7)2,0.0,-2.484280436761904,mp-1200544
HgB4O7,2.7564,-2.484188484201388,mp-16585
K2Sm2IrO7,0.2757,-2.484167529541666,mp-555268
Ba4IrO6,0.0,-2.483818730454547,mp-754684
Na18Ca20Ta4Si3(S11O48)3,1.3128,-2.483805726223698,mp-2713705
Na10Ta2Ga6Si7S5O48,2.9958,-2.48352337877299,mp-2716052
Li2InP2HO8,3.921,-2.48351130777636,mp-1222810
Na6Ti4Ga4Si5S7O48,1.4804,-2.483446102442917,mp-2715953
Na5In2SiGe2P5O24,2.087799999999999,-2.483436301199424,mp-2715936
Dy3Se4O12F,3.741099999999999,-2.483394327718746,mp-555217
Ca4MgB4H6(CO9)2,4.3467,-2.4833668405476192,mp-697563
Na6Ca7Hf(SO4)12,4.2297,-2.483333135877602,mp-2715047
Mg6CdCuO8,0.146799999999999,-2.483307989374999,mp-1032271
Na9Mg5TaSi3(SO6)6,2.3581,-2.483153570079119,mp-2712551
Na3AlZnP2SO12,4.0962,-2.483102158046182,mp-2712812
Sr2YSb2O7,0.0,-2.483100484583333,mp-1048111
Na2Al(P2O7)2,0.2344,-2.483077067682382,mp-1191319
Na2Cd3Si3O10,2.453299999999999,-2.483071516264368,mp-6078
NaCa4Si8H16O28F,5.0629,-2.483068081747918,mp-722188
CeHSO5,0.0,-2.483031136718749,mp-510452
Ta2ZnCuO7,0.5494,-2.482969246939395,mp-1329950
B5Pb2IO9,3.3111,-2.482953740637255,mp-1200548
Na3B6NO13,3.323,-2.482855807679911,mp-558548
Cs2LiGdCl6,2.782,-2.482845278264368,mp-1112624
Na3InSiGe(PO6)2,2.108,-2.4828216592545163,mp-2715431
Na6ZnSi2Ge3(PO6)4,2.3499,-2.482680919296182,mp-2715511
K2AgSbF6,2.0454,-2.4826720756166663,mp-1110848
Cs2Np(SO5)2,0.213099999999999,-2.482589182204023,mp-573103
Na2La4Al4SiS11O48,3.036299999999999,-2.482541337598933,mp-2714147
Na2Nb2Al6Si3(S3O16)3,0.909999999999999,-2.482376062956076,mp-2716291
Na7Zn2SiSn2P5O24,1.9567,-2.48230799031389,mp-2715660
Ba4La(RuO4)3,0.0,-2.482295864416667,mp-1215053
Na10Zn3Sn5(PO4)12,2.2683,-2.4822375782629162,mp-2716279
NaYGaP(SO6)2,2.947899999999999,-2.482221821121602,mp-2714445
Na3MgAlSi(SO6)2,3.8284,-2.482220736873564,mp-2712593
MgNb2Cu2(O3F)2,1.235199999999999,-2.4821733950000002,mp-2233570
CeSbO3,0.0,-2.482143209999999,mp-38685
LuBi2ClO4,1.461799999999999,-2.481985219583334,mp-550805
CaZr(SO4)3,3.8219,-2.481973262500001,mp-2713932
Cs2LiYCl6,4.8986,-2.4818211412643683,mp-567652
Na10Al4Si7Ge4S5O48,1.9059,-2.481790522751622,mp-2715922
ZrCdO3,0.0,-2.481755602999999,mp-1016845
Ba4LiCu(CO5)2,0.5423,-2.48175173962963,mp-15472
Ta2Zn4O9,2.900299999999999,-2.481726668811112,mp-531119
Na8La2Zn2Si3(SO8)3,2.8977,-2.481702234052409,mp-2715186
Sr3Ca(PbO4)2,1.8662,-2.481514641428571,mp-1218395
TmBi2ClO4,1.4201,-2.481416511250001,mp-546082
Ba2SnS3F2,2.4412000000000003,-2.481345934375,mp-17918
BF2,4.8986,-2.481294308796297,mp-27864
Ba3In2Br2O5,1.2907,-2.481204487361111,mp-556004
Sr3CaRu2O9,0.0,-2.481131521500001,mp-557111
Li3Ti2(GeO4)3,0.0,-2.481120955458333,mp-1013749
Ho3Se4O12F,3.7121,-2.481115203718748,mp-561124
Ba3NdIr2O9,0.0,-2.481080116833333,mp-1214535
Li11Sc7Ti(PO4)12,2.5195,-2.481079706971067,mp-695286
Sr2LaGaCu2O7,0.0,-2.481028387884615,mp-541332
Li3Sb2P5O18,1.8144999999999991,-2.481027736721939,mp-26586
HfMg6SnO8,0.2731,-2.480984648437499,mp-1031469
PrRuO3,0.0,-2.480910365333333,mp-20186
CaAl2Si6(HO4)4,2.4811,-2.480625461034482,mp-1214101
K2Cu(PO3)4,0.8983000000000001,-2.480498010161653,mp-6598
Na6Mg5NbP3(SO6)6,2.2897,-2.480487265389552,mp-2713433
Pr2Ru2O7,0.0,-2.480425498484847,mp-3430
NaYInP(SO6)2,4.1742,-2.480419098853084,mp-2714426
Na2Mg4Zr4SiS11O48,2.235299999999999,-2.480316272551314,mp-2714080
Sr2InReO6,0.0,-2.480303762916667,mp-1205698
Ba2YSn3O8,0.0,-2.480296798214285,mp-1047749
Na4MgSi2SnSO12,1.774099999999999,-2.480216109588123,mp-2714600
KTa(GeO3)3,3.5181,-2.480198996041668,mp-540631
UNF5,0.4203,-2.4801663625,mp-1193953
GeP2O7,3.8284,-2.480163571928557,mp-28883
KGe2(PO4)3,3.6226,-2.480150478676586,mp-18203
Na4Ca3SnP2(SO6)4,1.7483,-2.47991912438078,mp-2713358
Na4HfMg3SiS5O24,3.7749,-2.479880615474138,mp-2713139
Na3NbZnSi2SO12,1.534,-2.479751795581897,mp-2714513
EuNbNO2,0.0,-2.479747630000001,mp-1225127
Na8Nb5O14,0.2576,-2.479611486149425,mp-762344
LuGaCuO4,0.0,-2.479566843452381,mp-1222317
Rb2IrF6,0.0,-2.479511632777776,mp-554337
Ba3La5Tl2(Cu2O9)2,0.0,-2.479503969427084,mp-1228600
HfGaP(SO6)2,3.6694,-2.479417317086834,mp-2712869
Li14Sn9(P2O7)8,2.9789000000000003,-2.47930012122055,mp-863364
La4As2S5O4,1.354,-2.479225460833333,mp-1223144
ZnP4O11,4.755800000000001,-2.479171899441964,mp-15438
MgSn2(PO4)2,2.7137,-2.479102365714285,mp-1044851
Ba5GaRu2O11,0.0642,-2.479075944210526,mp-1215133
LiSc2(AgO2)2,0.0,-2.478875571851851,mp-1235223
Cs3Ca2Cl7,5.174799999999999,-2.478872575624999,mp-1213703
Rb2CuSbF6,0.9861999999999992,-2.4788471875,mp-1110659
CsHF2,6.5123,-2.4787930714762942,mp-24668
Gd10S14O,1.346499999999999,-2.478789261999999,mp-556437
Sr2SmGaCu2O7,0.0,-2.47877228826923,mp-541330
K6Si2O7,3.5108,-2.478708671899999,mp-30990
LiGe2(PO4)3,3.442199999999999,-2.478640178181215,mp-541272
Na14Ca4Si7Ge4S5O48,1.2381,-2.4786073016684202,mp-2715762
Na8In2Si5Sn2SO24,2.6793,-2.478541617028599,mp-2716178
Cs2U(Br2O)2,1.9545,-2.47846627881226,mp-572551
Ti2CdO6,0.0,-2.47842472962963,mp-1079829
RbTlF3,2.0588,-2.478353961166667,mp-1113914
Na2ScGaSi(SO6)2,3.479899999999999,-2.478284721767998,mp-2713277
Na3Ca2Al2PS5O24,4.6512,-2.478080111431013,mp-2713561
Er2Pt2O7,1.4127,-2.478018743636361,mp-756440
Mg3C2O7,4.0313,-2.477940567916666,mp-1222237
Na2Al3Si3NO13,0.0,-2.477735451375393,mp-1203545
Ba3CaRu2O9,0.0,-2.477575224000001,mp-6443
SrNbNO2,0.0,-2.477501867000001,mp-1218149
NaGe2(PO4)3,3.9114,-2.477459963628215,mp-542919
SiGeO3,3.0391,-2.477396069875,mp-769171
Cs2RbNdCl6,4.8574,-2.477359040431034,mp-1112123
SrMg6BiO8,0.553499999999999,-2.47735703875,mp-1033410
Na6Ca7Zr(SO4)12,3.4129,-2.477336736688413,mp-2715120
K2Li4UO6,2.1501,-2.477332779064102,mp-559263
Nd7(S2Cl3)3,1.221199999999999,-2.477278018039769,mp-559337
KEuNbBiO6,0.0,-2.477178696725,mp-1521887
Na18Mg16Ta8Si9(S3O16)9,1.2122,-2.477106853630605,mp-2713845
Na2Ca3Zr(SO4)6,1.816399999999999,-2.477103736604407,mp-2714299
CsInCu(PO3)6,0.589799999999999,-2.477068066821443,mp-1226046
Na6Al2Ga2Si3(SO8)3,3.0915,-2.47705644672773,mp-2716230
BaTiAlCuO5,0.0,-2.477046089814815,mp-1446611
Cs2KCeCl6,4.0361,-2.477003932656034,mp-1112872
Na12Ta2Zn4Si6(SO12)3,2.5225,-2.476963229027277,mp-2714447
Ba2I2O,3.044099999999999,-2.476811028,mp-551835
Na3ZnSn(PO4)3,2.3868,-2.476684132069992,mp-2715492
Na2SiBSbO7,2.3277,-2.476656507243774,mp-771025
Cs2LiSmCl6,4.9508,-2.476640961764368,mp-1112671
Na2YInSi(SO6)2,2.7576,-2.476505532250454,mp-2713562
BaNbInSnO6,2.673,-2.476433066166667,mp-1520754
KCa4B22H18ClO46,5.5086,-2.476380496863224,mp-722344
Na6Y4Si5Ge4S7O48,1.2277,-2.476337541316792,mp-2715839
NaYMg(SO4)3,5.2252,-2.476238070030332,mp-2714077
Ca2Ta2SiS5O24,1.394299999999999,-2.476097307612745,mp-2713091
Na14Y4Zn4Si5S7O48,3.1737,-2.476052748030208,mp-2715889
Rb2HgSbF6,0.0,-2.47591655875,mp-1111947
Pr4AlSi5(NO)7,3.1192,-2.475858200277779,mp-1173412
NbInP2SO12,2.5341,-2.475830487948179,mp-2713354
Cs2NaNdCl6,4.9943,-2.475811504818966,mp-1111821
Na3P6(PbO9)2,0.597699999999999,-2.475808054551554,mp-1210446
Na2Al2Si3H6O13,4.4745,-2.475800012509947,mp-1199031
MgTi2Nb2(CuO4)3,0.0,-2.4757306875833343,mp-2230186
NaScGaP(SO6)2,3.6136,-2.47562001889938,mp-2715616
Ce4P5SO28,0.0836,-2.475595235281954,mp-1227491
Na2Ta4Ga4Si5S7O48,2.0945,-2.475594013446553,mp-2716150
ErBi2ClO4,1.3769,-2.475584263749999,mp-549709
Na6Si5Sn2Ge2SO24,2.6976,-2.475415066894397,mp-2713777
AcBO3,0.8071,-2.475389555333333,mp-1183052
K4NpS2ClO10,0.1226,-2.475344931819443,mp-553977
Pr7(S2Cl3)3,2.1879,-2.475318488172369,mp-1209710
KRe4O8F13,3.1423,-2.475308678163462,mp-774754
Pu2SiO10,0.7104,-2.475210009038462,mp-725556
Na5Mg3SnP3(SO8)3,2.1624,-2.475174166410046,mp-2714856
CaTcO3,0.0,-2.475116318499999,mp-1188853
K2LaCl5,4.1634,-2.474957406562501,mp-1201545
Y2Cu3(SiO4)3,0.123599999999999,-2.474899936250001,mp-1261874
Nb3Sb3O13,2.612,-2.474891653421053,mp-1220709
CaBi3P3O13,2.869,-2.47481880519643,mp-1041219
Ce3Se2NO,0.0,-2.474563706383927,mp-1227866
Ca(LaS2)2,2.3219,-2.474314733749998,mp-35421
NbHO3,2.6221,-2.474307036749999,mp-33932
Na2Zn3(SiO4)2,2.9909,-2.474306230628352,mp-555300
NbCu(PO4)2,0.3304,-2.4742552491071432,mp-774802
NdNpO3,0.0,-2.474213572249999,mp-1186312
Na14Sc4Zn4Si5S7O48,3.1829,-2.474113769859476,mp-2715935
Na14Ca6Si5Sn2S7O48,0.0,-2.474108798802566,mp-2715943
KGd2Cl7,2.5883000000000003,-2.474102409374998,mp-1211663
Na10Zr4Zn4Si5S7O48,2.9584,-2.474003614268715,mp-2715045
Ba4Nd(RuO4)3,0.0,-2.473973363875,mp-1214781
Na2Nb2Ga2Si3(SO8)3,0.7825000000000001,-2.473971318433111,mp-2713822
Na6Sc4Si5Ge4S7O48,1.4262,-2.473747806361837,mp-2716048
Na14Hf3Zn5Si6(SO8)6,3.28,-2.473626557776142,mp-2714196
SiP3RuO11,0.008,-2.473546784620535,mp-562501
KLi2Sb(PO4)2,3.4421,-2.473384109633503,mp-759715
Sr2MgIrO6,0.0,-2.473373895500001,mp-16307
NaZrInSi(SO6)2,3.328299999999999,-2.473363903039592,mp-2712568
Na14Ca5Si6Sn3(SO8)6,1.2198,-2.473338799991589,mp-2714093
Ba2NdMgRuO6,0.0,-2.473333459318181,mp-2217822
Gd2SCl4,1.7563,-2.473256206830358,mp-865182
Sn(PO3)3,2.4124,-2.473218926840659,mp-1101518
SmMgTiO3,0.0,-2.473156514722222,mp-2222762
Ti4Nb(BiO3)7,2.178899999999999,-2.473127291010102,mp-1217566
Na2LaGaSi(SO6)2,2.8757,-2.473009770627647,mp-2713608
Sr2RuO4,0.0,-2.472956615714286,mp-4596
KRb2LuCl6,4.9104,-2.472833003891666,mp-1114035
K2Ca2(CO3)3,4.8674,-2.47278012215625,mp-554591
Na3Sb(PO4)2,4.1286,-2.472749689262402,mp-776965
YMg6BiO8,0.1294,-2.47260415375,mp-1031997
Dy2(TeO3)3,3.2491,-2.472540679434524,mp-558224
KRb2TmCl6,4.871499999999999,-2.472512341225,mp-1114032
KOsF6,1.3498,-2.472495730906249,mp-7984
Bi2P4O13,4.5172,-2.472385317293247,mp-28541
Ca2Bi3(PO4)3,0.0,-2.472381140946429,mp-1214150
Rb4NpS2ClO10,0.1333,-2.472337950486111,mp-558745
Tl2B4O7,3.3162,-2.47233260923077,mp-16457
NaY2Ge2P3(SO8)3,1.7689,-2.4723066055564162,mp-2716284
Sm10S14O,1.902199999999999,-2.4722702253,mp-560711
KRb2LaCl6,4.7565,-2.472246867725,mp-1114123
Na6HfZn3P4(SO12)2,4.043500000000001,-2.472227174212849,mp-2712668
Na14Zn5Sn3(PO4)12,2.5652,-2.472118801707617,mp-2714146
Rb4Ga8P10O41,0.1577,-2.4720698398639462,mp-1219812
SrCaInSbO6,1.236799999999999,-2.472024451666667,mp-1520901
Na13Ca7S12Cl(O24F)2,5.1477,-2.472013194553385,mp-720360
Cs2AgBiF6,2.7645,-2.471992757000001,mp-1114309
KBa6Zn4(GaO3)7,2.457999999999999,-2.471919121916666,mp-677520
ErNbO2,0.0,-2.471891669375001,mp-1213215
Pb7(BrF6)2,4.063400000000001,-2.471866938095236,mp-29927
EuMgTiO3,0.0,-2.4718269480555572,mp-2210757
Ti4(CuO4)3,0.0,-2.471766613859649,mp-1345714
InPO4,2.3482,-2.471440718551586,mp-7566
Rb2HgBiF6,0.0,-2.471428389750001,mp-1112409
KRb2ErCl6,4.8731,-2.471317664225,mp-1114041
PrRhO3,0.6013000000000001,-2.47127042533334,mp-4789
SrEuBiSbO6,0.0,-2.471179959500001,mp-1516901
Cs2Nb3Cl7O5,2.3094,-2.47117046643002,mp-1201406
BP3(PbO4)3,3.9628,-2.471168561412906,mp-1203864
Na14Ca4Mg4Si3(S3O16)3,2.9267000000000003,-2.471132648375736,mp-2714555
Dy3S2Cl5,3.410799999999999,-2.47098077606249,mp-30157
Cs3Y2Cl9,4.8945,-2.47087584875,mp-1192829
Rb2LiLaCl6,4.5047,-2.470843930333333,mp-1113975
KB6P(H2O7)2,6.1480999999999995,-2.470841539015109,mp-758840
KLaAlBiO6,0.0,-2.470824054225001,mp-1518979
Sr3Se2(ClO3)2,4.2893,-2.470808039591345,mp-1218418
Na3Ti2(GeO4)3,0.0,-2.470779403915229,mp-1012670
Na3Mg3ZrPS5O24,3.3851,-2.470719786340923,mp-2713627
LaYbS3,0.0,-2.470636438687498,mp-8215
B5SbO10,2.2588999999999992,-2.470586570208334,mp-779174
K2IrF6,0.0,-2.470534487166664,mp-11174
NaLaInP(SO6)2,2.7296,-2.470529277741972,mp-2714524
Cs2RbPrCl6,4.8296,-2.4704653678477,mp-1112124
LiEu2RuO6,0.0,-2.4704307528333342,mp-1211562
NaCaZrBiO6,1.3637,-2.470377703137931,mp-1518586
Ti2Al2SiS5O24,2.204399999999999,-2.470284296887256,mp-2712949
Na5Ga4P5SO24,3.8086,-2.470232274639595,mp-2715010
BaLaZnRuO6,0.381199999999999,-2.4701412895,mp-39259
HoBi2ClO4,1.370999999999999,-2.470130923125,mp-549127
NdOsO4,0.0,-2.47005434583334,mp-621994
Ce4Cu3(SO)4,0.0,-2.469957549333332,mp-1226848
AgBF4,3.157,-2.469788318333332,mp-12021
Na2HfZnSi(SO6)2,3.7293,-2.469491829618875,mp-2713679
Na2MgSnP2SO12,2.1606,-2.469415457081281,mp-2713330
PuPbO3,0.0,-2.469338892749996,mp-1186799
Ca2Al4Si4O21,0.0,-2.469326496129032,mp-1182478
Na7Al3O8,2.7979000000000003,-2.469318016369729,mp-556168
Rb3Sc2(AsO4)3,3.8122,-2.469267704374999,mp-1205185
Na14Ca2Si9Ge6(SO16)3,1.6505,-2.4692206776237042,mp-2714674
Cs2NaPrCl6,4.9676,-2.469188892235632,mp-1111820
CsSb(PO4)2,2.958,-2.46918849241174,mp-554822
Ti2Zn(PO4)2,0.0,-2.469157614304029,mp-1044650
Ba6YBr15,3.872,-2.4691399145454542,mp-777731
ThH2SO6,5.080999999999999,-2.469107066249999,mp-1203348
BaNaNbBiO6,0.0,-2.468993319387932,mp-1516598
Sc14Cu14O37,0.0,-2.468931923307692,mp-685833
BaSrEuSeO6,0.0,-2.468921811734376,mp-1521369
K2RbIrF6,2.2706,-2.468909647199999,mp-1111440
Cs2Li2SiO4,3.8531,-2.468895151775222,mp-504849
Cs2LiNdCl6,4.8227,-2.468828824014367,mp-1111841
Li2AlGaSi2(H2O5)2,4.349,-2.468709302708332,mp-1222936
Ca3Sn2(GeO4)3,0.0,-2.46849116675,mp-1334680
Ba4Al(IrO5)2,0.0,-2.468470486764705,mp-1228412
Al2Ga2Bi2O9,2.7318,-2.468417401666667,mp-1214864
CaHo(BiO3)2,0.0,-2.468407058999999,mp-1049311
Na4MgZnP2SO12,4.1162,-2.468400313363633,mp-2712983
Cs3PdF5,2.0825,-2.468270962777776,mp-1213701
KBaAsO4,3.8409,-2.468250649607143,mp-1192590
La2ThS5,1.4485,-2.4682502723828073,mp-1195982
Na10Mg6Ti2Si3(S3O16)3,0.6856999999999991,-2.46824251164051,mp-2714795
Na2Ca4Ti4SiS11O48,1.273299999999999,-2.4681971442656,mp-2714024
K2Nd2IrO7,0.2913,-2.468049836208333,mp-555717
Ca4MgB4(CO9)2,0.0,-2.4680058586781612,mp-1193253
NaHF2,6.9678,-2.467991820657327,mp-27837
Na2Mg2Ti2SiS5O24,1.1267,-2.46788044769237,mp-2714609
Cs2UAs2O9,2.1136,-2.467757283700739,mp-1196336
La10(ErS3)9,0.0,-2.467735274836957,mp-669516
Ba4PtO6,1.8103999999999991,-2.467705925000003,mp-8727
Ba3La2Br12,3.2752,-2.467618043235294,mp-771951
Sr2SnS3F2,2.0801,-2.467599055312499,mp-17676
NaTi2In2P3(SO8)3,2.0322,-2.467538226508797,mp-2716533
YSn2BiO7,3.0192,-2.467461789545454,mp-1215975
Ti4Al(CuO4)3,0.0,-2.467450898166666,mp-1045600
BiSb3F20,2.1691,-2.467411369166666,mp-1227565
ThCuO3,0.0,-2.467409856999999,mp-1187487
CsRb2IrF6,2.3735,-2.467385547465517,mp-1111394
Na14La4Zn4Si5S7O48,3.258,-2.467344155713135,mp-2715941
Nb4O5,0.0,-2.4673370633333342,mp-28212
Na3SbP2O9,2.7687,-2.467269893561583,mp-560642
Na6Si5Ge4SO24,2.8337,-2.467243481227731,mp-2713951
Ta2Si3Ge2(SO8)3,1.370499999999999,-2.467201751191178,mp-2713784
NaLi2BO3,4.1479,-2.467089902994663,mp-560189
YSeClO3,4.3562,-2.46706872455729,mp-1207618
Rb2LiTmCl6,5.2728,-2.466921009833334,mp-1113971
KRb2DyCl6,4.8552,-2.466919112391666,mp-1114044
Rb2NaLaCl6,4.6431,-2.466887044137931,mp-1114018
DySCl,2.7618,-2.466786533437499,mp-561307
DyBi2ClO4,1.3739,-2.466786182708333,mp-552008
Ba3PrIr2O9,0.0,-2.466770013111112,mp-1214562
Li2Cu(PO3)4,1.0281,-2.466710169749375,mp-26261
Ho2Pt2O7,1.506899999999999,-2.466693449999999,mp-755635
NaSc2Ge2P3(SO8)3,2.0515,-2.466563688699273,mp-2716468
K2GaOF5,0.6926000000000001,-2.466488207444444,mp-1211997
Rb2LiLuCl6,5.2953,-2.4663826715,mp-1113976
BaTcO3,0.0,-2.4663650413333382,mp-555174
NbO3,0.0,-2.466314308749999,mp-1220361
Rb3Tm(SO4)3,5.3522,-2.4662460444736842,mp-1197082
Rb2LiErCl6,5.211499999999999,-2.466211088833333,mp-1113981
La9(SbO)5,0.0,-2.466183140789478,mp-542503
SrLaZnRuO6,0.4717,-2.4661474745,mp-1218204
Na2Ca2(SO4)3,4.972499999999999,-2.4661159779083492,mp-2714890
Rb2NaLuCl6,5.1975,-2.466079237304595,mp-1113966
Rb2NaTmCl6,5.0572,-2.466064262637931,mp-567498
Sr2PbO4,1.3966,-2.4660533835714302,mp-20944
K2ZnSiO4,3.7041,-2.466005657124999,mp-541537
U5(PbO11)2,0.190399999999999,-2.4659949018965492,mp-1203291
KGePO5,3.333299999999999,-2.4659948005491072,mp-14383
LiSn3Sb(PO4)6,2.712799999999999,-2.4659924801768702,mp-761694
Cs3PO4,3.572299999999999,-2.465980221076048,mp-559808
Na8Zn3Sn(PO4)6,2.053599999999999,-2.4659514954894832,mp-2715063
CsBa2Br5,4.668500000000001,-2.465913014956898,mp-541722
Th(TeO3)2,3.6142,-2.465903043425929,mp-541285
Li4Cu2Si3O10,0.368399999999999,-2.465885658859649,mp-757514
Mg6CuSnO8,0.204299999999999,-2.465873734062499,mp-1032122
Na6NbIn3Si4(SO12)2,2.138,-2.4658378992485632,mp-2714409
Na3Ti2Zn2P3(SO8)3,2.3372,-2.465727661546843,mp-2713812
Li3Bi(BO3)2,3.4538,-2.465725820902778,mp-768820
Li5LaO4,3.396599999999999,-2.4656317137916672,mp-780259
Rb2Sr2(CO3)3,4.6229,-2.4655386784375,mp-984332
ZrH3NF4,4.6904,-2.465403807916667,mp-24508
KRb2TbCl6,4.564500000000001,-2.4653886668916662,mp-1114034
BaCaInSbO6,0.9295,-2.465377789666667,mp-1520258
Sm2As4O9,3.3407,-2.465260411000001,mp-4794
Ba4Pr(RuO4)3,0.0,-2.46519881525,mp-915377
Ba2MgNbInO6,1.128199999999999,-2.465177273787878,mp-2218010
Sr2NdGaCu2O7,0.0,-2.4651680761538453,mp-541323
Na21Ta2Zn10P15(SO24)3,2.8657,-2.465152730453455,mp-2716008
Ta5Zn7O18,0.0,-2.465152305222223,mp-1208429
SiP4PdPbO14,1.8533,-2.465076886360542,mp-1194892
Rb2NaErCl6,5.1645,-2.465027089637931,mp-1114024
NaSr3IrO6,0.0,-2.4649874742163,mp-6662
K2Ca5S6O25,0.3947,-2.464932771960526,mp-1199173
Na2LaInSi(SO6)2,2.6525,-2.464913649618875,mp-2713257
LiSnPO4,3.5011,-2.464688698996598,mp-27017
Ba12SrCa3(Ru2O9)4,0.1854,-2.4646319715000002,mp-1229266
NaLaGaP(SO6)2,2.4535,-2.464630256769751,mp-2714517
SrCaCuO3,0.0,-2.464629555833333,mp-1218361
Si3(BiO3)4,3.897899999999999,-2.464400844999974,mp-23331
Na8ZnSi5Sn3SO24,1.557799999999999,-2.464391847623837,mp-2715753
Na9Mg5NbSi3(SO6)6,1.5553,-2.464388273623563,mp-2712587
BaMg6CdO8,3.526499999999999,-2.464339000624999,mp-1033419
Li2AgF3,2.0539,-2.464303996388886,mp-754466
Na2TaAuF6,1.189,-2.464241126243328,mp-1111549
Na2Zr4Si5Ge4S7O48,1.5996,-2.464206497503695,mp-2716153
Na6Ca3Si2Sn(SO6)4,1.6538,-2.464177938248563,mp-2712795
Li3Sb2(PO4)3,3.6037,-2.464137431696429,mp-684539
Sr3LaBr9,2.9842999999999993,-2.464118832884615,mp-771955