formula,bg,formation_energy,mp-id
Ba4InSbO8,2.3682,-2.679884023333332,mp-1228129
Mg14BiBO16,0.7229999999999991,-2.679843312786458,mp-1033747
NpTaO3,0.0,-2.679753408216668,mp-1186357
YTlO2,1.4729,-2.679657220833335,mp-755544
Na8Ca2Sc2Si3(SO8)3,2.395,-2.679596921036536,mp-2715035
Ta(PO4)2,0.0484,-2.679588525147185,mp-727908
Li4Nb(P2O7)2,0.8836,-2.679573565300206,mp-863382
KTbEuSbO6,0.0,-2.679527902891666,mp-1516383
Rb2Cd3(B4O7)4,4.5081,-2.679397539319727,mp-1200744
Y8MgCu7O20,0.3591,-2.679377262083333,mp-1216257
Sb2F7,3.8056,-2.679369363611093,mp-28062
Gd2Cu(GeO4)2,0.635699999999999,-2.679272920384615,mp-1212657
Na2GaCuF7,0.0,-2.679259795478056,mp-21552
TlB5O8,5.3567,-2.679194340744035,mp-680122
Ti3Cu2Sn(PO4)6,0.5650000000000001,-2.6791914225793643,mp-776125
BaCa(CO3)2,4.703,-2.6790947755,mp-6568
SbP(OF3)2,4.4149,-2.679027140464286,mp-554701
NaSi2O5,0.423,-2.6790129176724142,mp-1210523
CaAl2Si2HO9,0.149299999999999,-2.67893045175,mp-1214006
Ba3ZrRu2O9,0.0,-2.678928534000001,mp-561170
SrEuO3,0.0,-2.678894374000001,mp-1100775
Na10Ca4Zr4Si5S7O48,2.6572,-2.678802834610596,mp-2714997
Na4CaIn(PO4)3,3.137199999999999,-2.678792963306943,mp-2715182
Na5La3Si3Sn(SO8)3,1.8785,-2.678639721352048,mp-2713461
KSmEuSbO6,0.0,-2.678610639475001,mp-1520194
RbHo2Cl7,4.547099999999999,-2.678469236499999,mp-1209406
TiSb(PO4)3,2.2085,-2.6784421036624653,mp-1043703
Cs2TlSbF6,2.4839,-2.678376275264368,mp-1112551
Na9Ca5Ta7Si9(SO8)9,1.8739,-2.678233108569794,mp-2714911
Na5TaGa3SiP5O24,3.3363,-2.67818666085327,mp-2716077
Na3B(PO4)2,5.3156,-2.678094229470736,mp-559783
NaPr2OsO6,0.0,-2.678076901471263,mp-20009
Na3Sc2Ge2P5SO24,2.6369,-2.6779495516626732,mp-2715886
Na2ZrSi6(HO3)6,4.9411000000000005,-2.6777935726593523,mp-1194692
Na11U5O16,0.0,-2.677738941411636,mp-504540
NaB5PbO9,4.586,-2.677595987794541,mp-1199541
Cs2As2OF10,3.9471,-2.67757732962069,mp-557115
Na14Zr3Zn5(PO4)12,3.8025,-2.677563695142577,mp-2714267
K2PuO4,0.0,-2.6772297833214282,mp-1025158
NaLaTi8(CuO4)6,0.0646,-2.67709339082615,mp-1220839
HfMg14BiO16,0.034099999999998,-2.67705644625,mp-1033793
Na10Ca4Ta4Si7S5O48,1.6491,-2.676720026631963,mp-2715882
HfMg6ZnO8,0.2896,-2.676536242499999,mp-1032543
Na5Y3Si3Ge(SO8)3,2.1056,-2.67651381865974,mp-2713439
Rb2U3P4H4O19,1.6902,-2.6764293838616062,mp-1220504
KEuYSbO6,0.0,-2.676401294225,mp-1516537
Rb2TlBiF6,3.3382,-2.676157918833334,mp-1113927
NaMgTi3P3(SO8)3,2.194,-2.676112893604035,mp-2716543
Nb9P2O25,0.0,-2.6761103334523813,mp-1210146
Na14Ca4Sc4Si5S7O48,3.026499999999999,-2.676049765265979,mp-2715893
Na14Ti4Ga4Si9(SO16)3,2.0151,-2.676028879696875,mp-2715026
RbEr2Cl7,4.5826,-2.676007020000008,mp-1209372
Ba3SrMg2(TeO6)2,1.984999999999999,-2.675966339666665,mp-1228054
Tm2(SO4)3,5.866099999999999,-2.675830487647059,mp-1208214
EuGa3(BO3)4,0.0,-2.675757864208333,mp-1212739
U3S3O16,0.0,-2.6756948726136343,mp-1203801
Na3ZrGaSi2SO12,3.457999999999999,-2.675694081956897,mp-2714614
AlInO3,2.162,-2.675649130333332,mp-754157
RbPr2Cl7,4.367100000000001,-2.675574986583343,mp-1209859
BaSiP4(HO7)2,5.748299999999999,-2.675550258230518,mp-722278
Na2CaHfSi(SO6)2,3.412099999999999,-2.6754509615487,mp-2713222
Na7Sc2Zn2P5SO24,4.325699999999999,-2.675418295618767,mp-2716110
Na2AlAuF6,0.905099999999999,-2.675296087166669,mp-1111088
Sr7Ca(IrO6)2,0.0,-2.6752789454545463,mp-1218468
MgTa2CuO6,0.0,-2.675263095966666,mp-2217102
Ca4PdO6,1.822699999999999,-2.675235593636361,mp-10299
Na10Sc4Al4Si5S7O48,3.7006,-2.675176968414015,mp-2715150
Li6B4O9,4.8958,-2.675169603508771,mp-1020024
KPrGdGeO6,0.0,-2.675153778391667,mp-1517428
Na4TaAl3Si3(SO8)3,3.1533,-2.675129086193437,mp-2713545
Ba2NdNb(CuO4)2,0.0,-2.6750096048214282,mp-10062
K2Na2Pr2MgNb2O10,0.7528,-2.67498957818905,mp-2232079
Er3Sb5O12,3.1368,-2.674941201499999,mp-772087
Li4SiO4,4.7841000000000005,-2.674883012592591,mp-11737
Ti3N2O3,1.5473,-2.674874465625,mp-754790
Na2La4Y4SiS11O48,3.736399999999999,-2.674766003122743,mp-2714258
Na14Ca4Y4Si5S7O48,3.2353,-2.674764636810696,mp-2715853
Na6Ca4Hf4Si3(S3O16)3,3.241799999999999,-2.67469776246544,mp-2713995
Na2La2Sc2SiS5O24,2.1496,-2.67466281556274,mp-2715725
KAlGeO4,3.9375,-2.674596079547619,mp-651024
Na4Nb2Si5Ge2SO24,2.513,-2.674580761044314,mp-2715001
UCuO4,0.0,-2.674525173333331,mp-28073
KLaYBiO6,1.7059000000000002,-2.674490460975,mp-1519780
Mg3AlO4,0.0,-2.674385196875,mp-1024039
Cs2TaTlF6,0.0,-2.674347981733333,mp-1112483
U2O5F8,0.5118,-2.6742971431666662,mp-1179411
BaAlB4H3O10,5.3921,-2.67428859870614,mp-1195235
CsLaMg14O16,1.9892999999999992,-2.674176988895473,mp-1034853
NaTi2Al2P3(SO8)3,1.8803,-2.6741283694611773,mp-2716556
KNaNb4O12,0.0,-2.674014177701628,mp-1520807
CsPO3,5.422300000000001,-2.673982259359606,mp-1213226
Na42Ca16Ta8Si21(S5O48)3,1.6832,-2.673956090646739,mp-2715815
Li9Ga3P8O29,0.0,-2.673952342645772,mp-560058
Na4Be2Si6Sn(HO5)4,4.0735,-2.673892267986952,mp-706336
NaNd2RuO6,0.0,-2.673883322137931,mp-11892
Rb3Nb20O34,0.0,-2.673855415131578,mp-760837
BaMg14SnO16,2.5489,-2.673812036093749,mp-1034311
Na2Y8SiS11O48,3.6393999999999993,-2.673585303646552,mp-2714205
Na14Mg5Sn3(PO4)12,2.6693,-2.673470858557211,mp-2714058
EuCl2,1.214399999999999,-2.673461046666669,mp-22887
Na2ZrSi2SnSO12,2.7729,-2.673453923083788,mp-2712675
Zr2Sc2SiS5O24,3.710099999999999,-2.673428201789216,mp-2712940
Mg2TaBiO6,2.0892,-2.673244867233334,mp-1367618
SrLaCl5,3.7074,-2.673182654642851,mp-1101356
NaMg6SiO8,0.8289999999999991,-2.673128861336206,mp-1031074
CsCeMg14O16,0.322999999999999,-2.673045747801723,mp-1034728
Ba3Lu2Zn5O11,2.400299999999999,-2.672963449920634,mp-554066
LiTiPCO7,2.8436,-2.672862814209956,mp-25418
CaMg6SnO8,3.156600000000001,-2.672754822812499,mp-1032994
Na10Y4Al4Si5S7O48,3.8805,-2.672663115807177,mp-2715075
NaSc4PS5O24,3.3389,-2.672662873053014,mp-2714259
YbGaO3,0.0,-2.672650508250001,mp-1187561
Na2Sc4SiS5O24,2.405599999999999,-2.672494447692369,mp-2714423
Na5Ca3TiP3(SO8)3,1.6296,-2.67245147059808,mp-2714864
NaScP2(HO4)2,4.879499999999999,-2.672419542726073,mp-779682
Na2LaGe(PO4)3,0.9782,-2.672334105439677,mp-2713640
Na5ZrAl3Si3(SO8)3,3.2356,-2.672286668446066,mp-2713407
SrAl2(SiO5)2,0.0,-2.672255224000001,mp-1194392
Na10Ti4Si9Sn4(SO16)3,2.6094,-2.672165678200339,mp-2714232
RbY2Cl7,4.391500000000001,-2.672090031,mp-1209182
EuTaNO2,0.0,-2.672072329466668,mp-1225199
Ba2PrIrO6,0.0,-2.67204645016668,mp-6135
K3LiP2O7,5.0761,-2.671974138028388,mp-1019794
NaLi2NbF6,0.0,-2.671905884783334,mp-1111343
PaCl2O,0.0,-2.671728893958332,mp-608461
Na8Ca3HfSi3(SO8)3,3.1132,-2.671539067623837,mp-2715192
TiCdO3,2.9057,-2.671460970666666,mp-13641
La2Cd2O5,1.3022,-2.671380542500001,mp-770847
SrTiCuO4,0.0,-2.671298224047619,mp-1147546
AlO2,0.2939,-2.671232698333332,mp-1182858
NaTa2In2P5SO24,3.0136,-2.6710697340979133,mp-2716203
Na3CaSn(PO4)3,1.9677,-2.671066813153325,mp-2715243
Na4TaGa3(PO4)6,3.2895,-2.670913030435292,mp-2713656
TmBeNF6,0.118099999999999,-2.670832775555556,mp-1208069
Li2NbP4O13,0.400399999999999,-2.670722167761906,mp-673156
KU2(B5O12)2,0.195999999999999,-2.670686869700449,mp-1201877
Mg11Cu2O13,0.0,-2.6706276011538472,mp-1176511
Er2(SO4)3,5.7109,-2.6704993997058812,mp-9841
Eu2Sn2O7,0.0,-2.670488099545454,mp-505306
Sr2TcO4,0.0,-2.6704829564285713,mp-1077918
Na14Ca4La4Si5S7O48,3.278299999999999,-2.670429638111509,mp-2713086
Na10Hf4Mg4Si5S7O48,3.5687,-2.670392751490937,mp-2715024
Ba16S16O59,5.0191,-2.670350438076922,mp-760205
Li3NbP3O11,0.7053,-2.670342195218253,mp-757765
Ti2Zn3(SiO4)3,0.0,-2.670212824958334,mp-1254352
Na14Sc4Si9Ge4(SO16)3,2.6957999999999993,-2.669891087095249,mp-2714849
Na6Zr2Si4O17,0.0,-2.6697924970095133,mp-1220870
Li3GdO3,3.582999999999999,-2.6697603209523812,mp-1177660
Ba18In8(S7F6)3,2.290899999999999,-2.669711869935896,mp-1204693
HfAlP(SO6)2,4.9123,-2.669668372429972,mp-2713094
Cs2CeO3,2.2437,-2.669666480718389,mp-768223
Ca3Cd5(P2O7)4,3.4996,-2.669661291753246,mp-1227791
Mg2Al2SiH4O9,5.0585,-2.669438583611112,mp-1222973
Ba3CeRu2O9,0.0,-2.669351850666668,mp-6301
Na3Ti2In2P5SO24,2.4274,-2.6692585301311422,mp-2715883
Na14Al8Si7S5O48,3.8199,-2.6692273401643543,mp-2715647
Na12Mg4Ta2Si6(SO12)3,2.5664,-2.669095060217752,mp-2714480
Nd2Cu(GeO4)2,0.0,-2.669091326923076,mp-558708
EuAlGe2O7,0.0,-2.669063487045454,mp-1212768
CaSO4,5.9508,-2.668935733749998,mp-4406
K2TaTlF6,0.0,-2.668923663516667,mp-1111415
Ba3Sn2O7,1.820699999999999,-2.668888976666666,mp-770846
Na3Be3B3P6O25,1.008,-2.6688668583623762,mp-1211231
Ba2Pr4Mg(CuO5)2,0.1874,-2.668686993245614,mp-2231373
Na7Y2Zn2P5SO24,3.9926999999999992,-2.6686730043992553,mp-2715991
Ho3Sb5O12,3.1437,-2.668668721999999,mp-771762
Na7NbSi6(GeO8)3,2.5418000000000003,-2.668652213365574,mp-2712958
Ba2TbMgBiO6,2.6798,-2.668488830151515,mp-2217916
Na4CaGa(PO4)3,2.9087,-2.668475859933928,mp-2715081
Na6Mg3TiP4(SO12)2,2.226,-2.668470824171183,mp-2712653
Na7Ca2SiSn2P5O24,1.4356,-2.668335577468361,mp-2715532
CsK2AsF6,3.5457,-2.668328153165517,mp-1112326
Na7Ca3GeP5SO24,1.8682999999999992,-2.668324863708199,mp-2715880
Na8NbGa3Si4(PO12)2,2.4301999999999992,-2.668293775305243,mp-2716241
Ba2LuMgRuO6,0.2984,-2.6682210837878793,mp-2240300
K2SiO3,3.9353,-2.668055152833334,mp-15379
Na2MgNb2O6,0.9264,-2.667928967068965,mp-2218024
KTiPCO7,2.6473,-2.667902996838745,mp-772844
CaPr(SnO3)2,0.0,-2.667827116666667,mp-1044508
ErBeNF6,0.156299999999999,-2.667691802222222,mp-1213271
Na5Sc3Si3Ge(SO8)3,2.2695,-2.66750068271957,mp-2713516
CaLaO3,0.0,-2.667460735999999,mp-1183562
Na6Mg2Zr2Si3(SO8)3,1.81,-2.66731887860273,mp-2716268
La3TaSiS5O24,2.4827999999999992,-2.667263219014706,mp-2713036
Na6Nb2In2Si5SO24,2.3344,-2.66725246947773,mp-2713762
Sb4F15,3.7499,-2.667161305986842,mp-28180
ScTiP(SO6)2,2.142,-2.667110493704482,mp-2712939
Na14Ca5Ge3(PO4)12,1.5634,-2.666713762886479,mp-2714108
Ho2(SO4)3,5.9904,-2.66667841602941,mp-768978
LaP3O7,2.643199999999999,-2.6665385117207783,mp-1192037
NaCaNb3(BiO6)2,1.3275,-2.666496990072595,mp-1221100
BaLiLaTeO6,3.007399999999999,-2.6664141295,mp-40189
Na10Hf4Ga4Si7S5O48,3.2628999999999992,-2.666159437110595,mp-2714168
YSbO3,1.4667,-2.666128834666667,mp-1347073
Y3TaSiS5O24,2.1627,-2.666066770436275,mp-2712893
Ca2Nb10Si9(SO8)9,0.8517,-2.665954010563727,mp-2713824
Ba8Sc3(Pt2O9)2,0.0,-2.665770434999999,mp-1214448
Na4CaMgP2SO12,4.2381,-2.665752842252522,mp-2713117
Na5La2Mg2P3(SO8)3,4.212999999999999,-2.6657165371792773,mp-2714909
Li4CuF7,0.8628,-2.665654211527782,mp-759877
RbEu2Cl5,1.035899999999999,-2.665639798125003,mp-1209463
InPb2F7,4.3537,-2.665588593499998,mp-1212060
CsNb2BiO7,2.4818,-2.665469837695925,mp-562854
Mg2Nb2TeO8,1.1336,-2.665450969743589,mp-1046746
Na2TiSi4H4O13,4.1008,-2.6653750204621662,mp-1200866
Cs2U3P6(HO5)4,0.2355,-2.665206041204785,mp-1202678
USeO,0.0,-2.6651665891145853,mp-3217
Lu2Cu2O5,0.283999999999999,-2.66516158287037,mp-15335
SrGe2(BO4)2,3.813099999999999,-2.665151319102563,mp-1020611
Ca5As3HO13,3.9055,-2.665143488352273,mp-1227603
Na3ScSn3(PO4)6,2.696099999999999,-2.665130982125993,mp-2716550
Rb3TlF6,3.7795,-2.664944161583335,mp-1113916
Dy3Sb5O12,3.1684,-2.66473039075,mp-768638
Mg2Nb4P6(SO12)3,2.4307,-2.664578899124651,mp-2713164
Sr10Ti(RuO5)4,0.0,-2.664426302380953,mp-1218896
Na6Hf4Si7Sn4S5O48,2.2374,-2.6643915206636373,mp-2712864
NbGe(PO4)3,2.9752,-2.664323343466387,mp-2713887
Na2Hf3ZnSi2(SO6)4,3.064,-2.664182799335888,mp-2712592
Nd8AlSi3(NO5)3,1.062299999999999,-2.664040511333332,mp-1262187
Na14La4Si9Sn4(SO16)3,2.1707,-2.663756737176549,mp-2714878
Na3YSn3(PO4)6,2.4,-2.663697989648516,mp-2714678
ReSi2(PO5)3,2.1158,-2.663692031972789,mp-1197149
Li4Al3Ge3ClO12,4.1175,-2.663627579275362,mp-556886
SrRhF6,0.0,-2.66345302375,mp-9926
CaU2Si2(HO3)4,0.055699999999999,-2.663380483928571,mp-1215077
Na8TaIn3Si4(PO12)2,3.2511,-2.663368063594926,mp-2715648
Ca3TiBe2Si2(As3O10)2,2.1809,-2.6633438811274512,mp-558370
Na15Ca10Nb2P9(SO8)9,2.5264,-2.663334224786115,mp-2714803
Sr18ThCl40,2.2611,-2.6632597644067832,mp-676727
Na9Mg5TaP6(SO12)3,3.5568,-2.663150415585071,mp-2712736
Na10Ti6Zn2Si7S5O48,1.7805,-2.663108188777263,mp-2716019
K2LiRhF6,1.7665000000000002,-2.6630542147833323,mp-1111665
BaSrDySeO6,0.0,-2.663002070401041,mp-1520831
Mg2SnO4,2.7149,-2.662997602142856,mp-34022
La2ZnRhO6,0.0,-2.662992525999999,mp-10321
Na7Y3ZnSi3(SO8)3,3.4949,-2.662954230540371,mp-2714026
Na5ZrIn3(PO4)6,3.1631,-2.662933537814198,mp-2716317
Na6Ca2Ti6Si5S7O48,0.9416,-2.662917744064539,mp-2716037
Na7Ca4P3(SO8)3,4.2694,-2.662862863481717,mp-2714455
NaNb4Tl3P2O17,2.5448,-2.662858764839446,mp-556062
Na2Sc6Nb2Si3(S3O16)3,1.4525,-2.662729145051313,mp-2716311
Ba8Ho3(Pt2O9)2,0.0,-2.662510323484848,mp-1214459
NaCaNbP2SO12,1.8196999999999992,-2.6625054712869463,mp-2712763
Na7Nb2Zn2Si3(PO8)3,1.785,-2.662477445615864,mp-2714996
KTiO3,0.0,-2.662460197116666,mp-760376
LiLa2(AsO4)2,0.0,-2.662444316794871,mp-1235501
BaYMg6O8,0.223599999999999,-2.662373569999999,mp-1032663
Li2Cu2Si5O13,0.625,-2.662337041439395,mp-757404
RbNaMg14O15,3.279699999999999,-2.662314041738042,mp-1034563
PuB4ClO8,0.0,-2.662303932172617,mp-1192622
Na5La3Si3Ge(SO8)3,1.9675,-2.662302296138373,mp-2716455
K3ReClF6,1.8139999999999992,-2.6622017267499998,mp-557125
CsReOF6,2.9741,-2.662115719961686,mp-557451
SrBrCl,4.734,-2.661992020833333,mp-1208676
TiRe(PO4)3,0.0,-2.661596846456583,mp-1043756
Tl3SiF7,3.5757,-2.6615656709090922,mp-1133284
Sb11F43,3.623199999999999,-2.661460519722222,mp-28294
CeTl2(PO3)5,3.557899999999999,-2.6614069754296072,mp-1213909
Na3La2Ge2P5SO24,1.824799999999999,-2.6613936385095203,mp-2715958
NaLiNb4O12,0.0,-2.6613900013729253,mp-1516511
KMg6TiO8,0.9165,-2.6613831437864572,mp-1031348
Ta3GaSi3(SO8)3,2.2947,-2.661354014078432,mp-2713922
Na3ZrInSi2SO12,3.4746,-2.66134945716523,mp-2714567
LaF,0.0,-2.661229073333334,mp-1184996
Na18Mg8Nb16Si21(S5O48)3,1.0575,-2.661119837330305,mp-2713023
Dy2(SO4)3,5.8184000000000005,-2.661116232107843,mp-1213482
Ba3LuRu2O9,0.0,-2.6609747724444452,mp-555246
NaCdF3,3.482,-2.660950373275862,mp-4360
Na4ZnCd(SiO3)4,3.4754,-2.6608961638871462,mp-1221167
Na4CaSiSn(PO6)2,1.4493,-2.660816631101728,mp-2714465
Y2PdO4,0.0,-2.660719023571427,mp-1207846
Tb3Sb5O12,3.1414,-2.660699630999998,mp-1208503
SrPbF6,0.0,-2.660562916875005,mp-504677
Na3CaAlP2SO12,4.0061,-2.660502866546182,mp-2712549
NaZrGaP2SO12,3.603999999999999,-2.660487370685095,mp-2712584
Na7NbGa3Si3(PO8)3,2.4001,-2.660470700798791,mp-2715188
Ba10Re3O22,0.0,-2.660433894214285,mp-1203847
Sr2DySeO6,0.0,-2.660345174401041,mp-1517072
Na10Mg3Ti5Si6(SO8)6,1.2246,-2.660342856629827,mp-2716341
Na7Sc3ZnSi3(SO8)3,3.748,-2.660294481556631,mp-2714039
NaEuDySbO6,0.0,-2.660045719804598,mp-1517659
Na2Y4Ti4Si3(S3O16)3,1.2349,-2.659937589384647,mp-2716308
Mg2TaSbO6,1.106099999999999,-2.659767978233334,mp-1348334
Na2Ta2O5,0.0,-2.659746746380587,mp-1075952
CsBaSiHO4,4.1469,-2.659744588863146,mp-995225
EuTiAgO4,0.0,-2.659671293928572,mp-505238
NaCa2Ta2P3(SO8)3,2.0407,-2.659665269594511,mp-2716326
Na8Zr3Si16Sn(H4O13)4,4.433,-2.659619407771192,mp-1221041
Na14Y4Si9Ge4(SO16)3,2.3723,-2.6596076614041912,mp-2715002
Li2MgCu2(SiO3)4,0.6435999999999991,-2.659573449126984,mp-773087
Na8Ca3ZrSi3(SO8)3,3.0035,-2.659553041988916,mp-2714944
KEu2Cl5,1.1205,-2.65954288465625,mp-1211620
Na4Ga3Si3BrO12,4.2352,-2.659458528392054,mp-23659
Al2CuO4,0.0,-2.65944566125,mp-530977
Ba6Cu11F34,0.2531,-2.659405699215693,mp-15387
Mg4Ti5(TeO6)3,0.118599999999999,-2.659342391555556,mp-1046407
Ta2Sn2O7,1.4862,-2.659286476333332,mp-3593
Na2CaScP(SO6)2,3.6282,-2.659185908021131,mp-2713499
Na4NbZnSi2PO12,1.7691999999999992,-2.65899062588064,mp-2715754
CsZnB(PO4)2,4.9295,-2.658869724469812,mp-560244
Na3TiP8O23,0.0,-2.65884027570326,mp-16140
Na5TiGa3(PO4)6,2.2374,-2.658803198391121,mp-2716381
NaLaTiSi(SO6)2,1.471099999999999,-2.658711920724777,mp-2712642
SbF4,3.4513,-2.658436449250035,mp-556425
ErGeBiO5,3.5344,-2.65841232984375,mp-559109
Li3CuF5,0.6339,-2.658323517777777,mp-759433
Tb2(SO4)3,5.786399999999999,-2.6582047743137243,mp-1208801
NaSm2IrO6,0.0,-2.658174027637931,mp-12323
Na9Mg5Ta7Si9(SO8)9,2.1566,-2.658072011497722,mp-2716506
NaCaZrP(SO6)2,3.0695,-2.658003973575305,mp-2714464
K2GaCuF6,0.218799999999999,-2.6579901302,mp-1111940
Ba3Sc3In(CuO4)3,0.527899999999999,-2.657963933484848,mp-1228709
KMg14BO15,1.6036,-2.657959241013441,mp-1035836
KSrTbSbO6,0.0,-2.657941577141668,mp-1522221
Nb3AgO8,1.5603,-2.657896582222223,mp-16837
NaCaNb3Si3(SO8)3,0.9587999999999992,-2.6578889823965532,mp-2713806
CsAg2(B5O8)3,3.6769,-2.657623859594964,mp-679997
Pr2SiC(NO2)2,3.8967,-2.657481699833334,mp-1186715
Na10Ta4In4Si9(SO16)3,0.6686999999999991,-2.657419333020851,mp-2714202
MgU(PbO3)2,1.3407,-2.657400945499998,mp-1189016
Na4MgGa(PO4)3,3.6583,-2.657248963902183,mp-2715154
Na10La4Al4Si5S7O48,3.7935,-2.657160425636237,mp-2715096
Na2Nb5Al3Si6(SO8)6,1.4516,-2.657127079825124,mp-2713785
HfSnP2SO12,2.7902,-2.657066617752101,mp-2713473
K2MgTi2O5,0.0,-2.656986581116668,mp-2239919
Na2Tl2B10O17,4.1045,-2.656949914712644,mp-554657
KNb3CuO9,0.4316,-2.656935491053571,mp-1211979
SmCuO2,2.5136000000000003,-2.65674744375,mp-13695
Na3YC2(O3F)2,4.8938,-2.656645732616996,mp-1221283
ZnSiO3,3.571799999999999,-2.6564697375,mp-1178612
Rb2PuO4,0.0,-2.656469717678571,mp-1207217
SrCuP2O7,0.0,-2.656461126753246,mp-14931
NaTi2Sn2P5SO24,1.9641,-2.656460747678865,mp-2716215
HfMg6NbO8,0.177000000000001,-2.656440645,mp-1033389
Li4Zn(PO4)2,4.8068,-2.6564293300079362,mp-557756
Cs2GeB4O9,4.274900000000001,-2.6563783634985643,mp-1226455
Na2Ti(SiO4)2,0.021199999999999,-2.656310960276303,mp-1202699
La2(SO4)3,4.7165,-2.656236869362746,mp-2713773
K2TaAgF6,0.3159,-2.656148408349999,mp-1110857
RbDy(WO4)2,3.461799999999999,-2.656026314305555,mp-560148
Ba6Ca6Mg(CO3)13,4.5923,-2.655852454692308,mp-1228574
LiSc(GeO3)2,3.6059,-2.655826614333333,mp-1194740
Na6TaIn3Si2(PO6)4,1.0192,-2.655728069937849,mp-2715278
BaSrTbSeO6,0.0,-2.655639534901042,mp-1517448
Ca2Ga2Si(HO4)2,3.5382,-2.655437511166666,mp-760729
Rb2GeB4O9,4.2812,-2.655388389947917,mp-1020707
U2B9O22,0.072299999999999,-2.6553442940151513,mp-1217131
Na3Ti3GaSi3(SO8)3,2.2794,-2.6551944165983232,mp-2714628
Ba2LuMgBiO6,2.075399999999999,-2.655126721060607,mp-2223089
SrTiNb2Bi2PbO12,0.9508,-2.655057635438596,mp-1217801
Ca3Ga2(GeO4)3,3.172099999999999,-2.6550530695,mp-1019565
Pr2Cu(GeO4)2,0.6574,-2.654972089871794,mp-1209738
K2Ta2O5,0.0,-2.654932806018518,mp-1099764
Na3CaYSi(SO6)2,3.6247,-2.654904735623564,mp-2712743
Li2AlPCO7,5.732,-2.654816158859127,mp-767214
Na5TiAl3Si3(SO8)3,1.7417,-2.654751535198203,mp-2716559
Cs2GaP3O10,4.207000000000001,-2.654725820671182,mp-562504
TlPF6,6.3698,-2.654474766622025,mp-540850
Ba8Dy3(Pt2O9)2,0.0,-2.654353271060606,mp-1214436
BaNaNd(GeO3)3,3.7869,-2.654333084425288,mp-14353
Na4Ca3HfP2(SO6)4,4.0095,-2.654298674687798,mp-2713347
Na7TaIn3Si3(PO8)3,2.4663999999999993,-2.654251315144318,mp-2714960
NaZrAlSi(SO6)2,3.8914,-2.654249092854406,mp-2712687
Li2Al2(SiO4)3,0.5507000000000001,-2.654181839824561,mp-1196415
Hf3MgSiS5O24,3.2833,-2.65388208634804,mp-2713002
NaCaNbSnO6,3.2445,-2.653868718637931,mp-1522332
La2ZnIrO6,0.0,-2.653771361500001,mp-6152
Nb3AlSi3(SO8)3,1.6491999999999991,-2.653759209093138,mp-2713733
La3Zn3Ge2SbO14,2.9042000000000003,-2.653723902826086,mp-672262
BaEu2PtO5,0.0,-2.653670721111114,mp-1188181
Ca10Ge16(B2O17)3,3.0963,-2.6536628297590372,mp-1019569
DyBeNF6,0.3495,-2.6536438868518513,mp-1212971
Sr25Cl52,5.083,-2.653600156038964,mp-531572
CaGaBiB2O7,3.6637,-2.653597008402777,mp-1227107
Sr2EuTa(CuO4)2,0.0,-2.653560316595238,mp-1208877
KLiNb4O12,0.0,-2.653492055032408,mp-1522963
Ba2V3BiO11,3.0455,-2.653477465588236,mp-559941
NaHfMgP(SO6)2,4.1427,-2.653458680797529,mp-2714495
Na10Mg4Ta4Si7S5O48,1.8718,-2.653457845734528,mp-2716025
NaTaAl3P3(SO8)3,2.8124,-2.653425001480225,mp-2716483
SrLaGaCuO5,0.0,-2.653414310277778,mp-1173173
Li5TaO5,3.766199999999999,-2.653390367181819,mp-755013
Na3MgAlP2SO12,4.5554,-2.6533710662961822,mp-2712560
Nb13AgO33,1.79,-2.6533697681648922,mp-1210284
Na2ZrSi2GeSO12,2.631,-2.6533451011539633,mp-2712552
Li4Si4Bi2O13,3.916499999999999,-2.6532596059057982,mp-756672
Mg6TiCdO8,0.088999999999999,-2.653250865833333,mp-1031420
TiTl3F6,0.0,-2.653224633333335,mp-15635
Ba2Y2CuPtO8,0.2116,-2.653220258035713,mp-504966
Na8Ta2Zn2Si5SO24,2.3996999999999993,-2.653209083727012,mp-2715676