formula,bg,formation_energy,mp-id
Na3Ta3AlSi3(PO8)3,3.147799999999999,-3.061622084866662,mp-2712842
La5Ti2AgS5O7,1.5072,-3.061508407541667,mp-555253
Pr3OsO7,0.1244,-3.061463035909092,mp-31354
BaDy2PdO5,1.7855999999999992,-3.061456264814813,mp-9740
Na10Sc2Ta6Si11SO48,3.111499999999999,-3.06138481412769,mp-2716419
CeB2ClO4,0.1345,-3.061252073541665,mp-556519
RbNa10Al11Si13O48,2.4898,-3.061202826762567,mp-686588
LiSi2BO6,5.8434,-3.061145014375,mp-556531
Na3EuTi2Nb2O12,0.0,-3.06096829279023,mp-1221380
MgTiBO4,0.0,-3.060851486428571,mp-1222024
LiNd4Nb2In2O14,0.277999999999999,-3.060600888550724,mp-1235949
K2HoNb5O15,1.8644,-3.060483979108695,mp-1212050
Na2ZrNbSi2PO12,2.7008,-3.060393475389553,mp-2712826
Ba2ErReO6,0.0,-3.060387017249996,mp-1205977
Nd3Sm(GaO3)4,3.4522,-3.060264378375,mp-1220260
Mg(SiO2)8,2.322,-3.0602370198,mp-1233496
Na4Al3Si3BrO12,4.793100000000001,-3.060228327196402,mp-23147
CaAl2(Si8O19)2,0.6122000000000001,-3.060069858070174,mp-1229169
Na7Y4SiP5O24,4.0813,-3.059999426574052,mp-2715790
Eu2ZrSnO6,0.5011999999999991,-3.059958994500001,mp-1517132
K2UO4,1.9773,-3.059945037785713,mp-3808
NaTa2Ti2SiP5O24,2.558,-3.059915479502676,mp-2715677
Na14Y3Ta5(SiO4)12,3.287899999999999,-3.059838393690778,mp-2713027
Y2CuO4,0.0,-3.059798596428571,mp-755924
Na9CaTa5(SiO4)9,3.0784,-3.059722726456896,mp-2715480
Nb2O2F3,0.0,-3.059719897857142,mp-1103656
Er3SiSe2O10F,4.122,-3.059561982628675,mp-555942
NaZr2Nb2SiP5O24,2.5845,-3.059558867845532,mp-2715770
Na6Ta3Al(SiO4)6,3.526099999999999,-3.05950948859023,mp-2715437
Na4ZrTi(SiO4)3,2.8547,-3.059483910183361,mp-2716339
LiLa2SbO6,3.972500000000001,-3.059468489833334,mp-6674
NaSr3NbO6,3.2962,-3.059406635125391,mp-6361
Na5HfNb3(SiO4)6,2.912,-3.059357602399058,mp-2713403
Sr2NbGaO6,3.2457,-3.05934915075,mp-1205677
Dy2Ge2O7,3.7413,-3.059176502575755,mp-772793
Ce2MgNb2O8,0.0456,-3.059137788846153,mp-2219864
Gd2CuO4,0.0,-3.059107154285715,mp-4860
SmIO,3.6304,-3.059044779999999,mp-754217
Na4ZrScSi2PO12,4.1125,-3.059002906912386,mp-2715799
Ba6ZrO8,2.691799999999999,-3.0589600226666662,mp-755556
Li3Ti4O8,0.0,-3.058878384222223,mp-752879
La8Cu3O16,0.0,-3.058845543703703,mp-1178189
NaCeP2O7,0.0,-3.058782293469546,mp-21520
Ba2La2Ti2Cu2O11,0.0,-3.058660346403508,mp-1214655
TaTiGaO6,1.7455999999999992,-3.058558297574073,mp-1217916
Na2ScTaSi(PO6)2,2.9823,-3.058495782686544,mp-2712661
Zr3SO9,3.8071,-3.058422218653846,mp-28620
Sr2SmSbO6,3.6616,-3.0583942715,mp-972216
KSrPO4,5.0889,-3.0583612888418372,mp-17975
LiTiSiO4,0.0,-3.058360909523809,mp-753511
Na8Hf3MgSi4(PO12)2,4.062799999999999,-3.058296052586989,mp-2715596
SrEuDySbO6,0.0,-3.058281128166667,mp-1523028
Ca2Al3Si3O14,0.0,-3.058252558181817,mp-1214293
Nd3Cd2Si3O13,0.0,-3.058199890119049,mp-1210000
Mg3(PO4)2,5.0732,-3.058181146483516,mp-14396
HfGeO4,4.161099999999999,-3.05788336833334,mp-9755
Ce2B8O15,0.1048,-3.057709940933333,mp-1019592
Rb10Al24Cd7(SiO4)24,2.3071,-3.057677131335403,mp-707302
K2Ti2O5,3.2005999999999992,-3.057675286240742,mp-28075
Na3MgTa5Si3(PO6)6,3.3348,-3.057610549327071,mp-2715789
NaCa9ScZn9(SiO3)20,4.3544,-3.057379607663794,mp-720704
CaNb2P2O11,2.4743,-3.057174504955356,mp-557786
CsScAgF6,0.006699999999999,-3.057064507369093,mp-1225939
Ba2GdSbO6,3.4839,-3.056831461,mp-753668
La3Nd(CuO4)2,0.0,-3.056785756607141,mp-1223089
K2La2MgTi3O10,0.0,-3.056705966638889,mp-2233146
Na4Zr2Ta2Si5SO24,3.4443,-3.056591877658349,mp-2714989
Ba2B5ClO9,5.2433,-3.056584099460782,mp-555742
Na5Ta3AlSi5PO24,3.1862,-3.05647696607366,mp-2716390
Na10Ta7In(SiO4)12,3.5863,-3.056465061817861,mp-2713206
Na5Sc2Ta2Si3(PO8)3,3.061699999999999,-3.05644315432885,mp-2714186
Na10Y2Ta6Si11SO48,3.092599999999999,-3.056399834426835,mp-2716575
BaTb2PdO5,1.8352,-3.056340362592593,mp-9760
Li15Ti11Nb5O42,2.2729,-3.056304059817351,mp-767393
Na9Mg2Ta10Si9(PO8)9,3.0701,-3.056256709797593,mp-2713101
Cs2NaGaF6,5.9704,-3.056253279318965,mp-6163
NaYTa(PO4)3,3.2051,-3.056181818294882,mp-2713340
Hf2P2SO12,5.0061,-3.056154605595238,mp-2713179
Pr3Nb(Cl3O2)2,2.9226,-3.0560712075,mp-560873
KLaZr4O12,0.0,-3.056015867347222,mp-1521923
Na6Sc3TaSi2(PO6)4,3.324499999999999,-3.055946249979517,mp-2715380
Na4CaZr3(PO4)6,3.8079,-3.055900042983537,mp-2713661
Na2ScIn(SiO3)4,4.2568,-3.055760521221264,mp-1221317
Na4YZrSi2PO12,3.945599999999999,-3.055743730801275,mp-2715571
Li2Ti3ZnO8,3.1747,-3.055663913869047,mp-774797
K3Ta3(BO6)2,2.6703,-3.055646548604166,mp-9870
Ca10Si3S3(ClO12)2,4.4998000000000005,-3.055581608154761,mp-42163
NaPrNb4O12,1.335699999999999,-3.0555649646136662,mp-1522095
SrZr4SnO12,0.0,-3.055318376944444,mp-1519570
Ho2HgO4,2.096899999999999,-3.055237869642856,mp-11706
Ti17(NO4)6,0.1402,-3.055171652695036,mp-779107
Na10La7Ta(PO4)12,3.5187,-3.055171266348385,mp-2716499
Cs2RbGaF6,5.9411000000000005,-3.055141840431035,mp-989618
PrNdO2,0.0,-3.055129702291665,mp-867722
Na4Ta3AlSi4(PO12)2,3.184999999999999,-3.055106833775516,mp-2715140
Na2Ca29ZrSi16(O7F2)8,2.3007,-3.055040081689654,mp-735808
Ca8MgAl6Si5O28,2.9092,-3.054920174062498,mp-744914
Mg3SiO5F,0.786899999999999,-3.05491353325,mp-1222236
Yb2TiCuO6,0.0,-3.054746842916668,mp-1215851
TaO2,0.4284,-3.054668550569444,mp-510
UNb6O16,0.0,-3.054632434347826,mp-756770
Ba4Ti4O9,0.0,-3.054614318921568,mp-530879
Y2Ge2O7,3.1753,-3.054602234090915,mp-769396
K3GdSi2O7,3.1454,-3.054506292826924,mp-680437
TiTl2F6,3.8846,-3.054385301111113,mp-10402
Tb2Ge2O7,3.758099999999999,-3.054292356439399,mp-14649
Na3ScTaSi2PO12,3.2202,-3.054150766847374,mp-2715309
SrHoO3,0.0,-3.054025573999998,mp-971996
Tm2TeO6,3.1151,-3.053953418981482,mp-780172
MgTi(Si2O5)2,0.007699999999999,-3.053921933020834,mp-1043372
Ba2UGeO6,0.6334000000000001,-3.053736796499999,mp-1206032
NdGaO3,3.452499999999999,-3.053719460000001,mp-3196
Ti2Be3(SiO4)3,0.0091,-3.053701853208333,mp-1041165
LiNd6(CuO6)2,0.081399999999999,-3.053568413730159,mp-756531
Na7Y2Sc2SiP5O24,4.3819,-3.053549862996817,mp-2715598
CeTaO3,0.0,-3.053413314466667,mp-1183701
BaEuDySbO6,0.009699999999999,-3.053253014416667,mp-1520421
Na4LaHfSi2PO12,3.5598,-3.053062417864768,mp-2715756
Na5CaZr3SiP5O24,3.6222,-3.052955425729338,mp-2715897
Ba2ScReO6,0.0,-3.052916138749994,mp-1206861
Na6Zr7Zn(PO4)12,3.892599999999999,-3.052841861270138,mp-2714823
Sr3Li4Nb6O20,1.4521,-3.052834972222221,mp-766433
Na3HoSi2O7,3.969999999999999,-3.052820713908047,mp-1195700
Ba3Eu(BO2)9,0.0,-3.052816264112904,mp-1214649
CsSi2BO6,5.3918,-3.052513583007184,mp-1019719
UBeO3,0.0,-3.052382719999998,mp-1187752
Cs2GeF6,6.0336,-3.052358112701146,mp-8217
Na15Mg2Ta10Si15(PO24)3,3.3548,-3.052345485965399,mp-2716491
RbHoO2,3.625099999999999,-3.052321075624998,mp-6978
Na8Al6Si6IClO24,4.259200000000001,-3.052228109261619,mp-1220856
Rb2AlAgF6,3.2492,-3.052170508666666,mp-1110614
LaTa3(PO4)6,2.365599999999999,-3.052155011907563,mp-2713878
Er3S3OF,0.4717,-3.052151667812499,mp-1225522
Na3Hf3Ga(PO4)6,4.3724,-3.052113553950318,mp-2716566
Mg5Nb(BO4)3,3.018199999999999,-3.0520415190476182,mp-1196847
Ba2Mg(BO2)6,5.2119,-3.052026132380953,mp-1019528
Ba3ZrNb5O12,0.0,-3.051890876666666,mp-1228321
KSi2BO6,5.3233999999999995,-3.051882602891666,mp-1019889
Sr2GdSbO6,3.3665,-3.051663482249999,mp-1523375
Mg5(SiO3)6,0.128299999999999,-3.051653312068966,mp-1198184
LaSO,1.522899999999999,-3.05161248,mp-28626
Ba3LiTi3O8,0.0,-3.051553062888889,mp-1235029
LuHO2,4.0915,-3.051509620729167,mp-625367
BaPrDySnO6,2.8386,-3.051191850833333,mp-1518311
Cs2NaCaF6,0.0,-3.051177751068965,mp-989572
BaYbO3,0.0,-3.051083985250002,mp-1183406
Er2SbO2,0.0,-3.051055223999999,mp-1225518
Ba4Na(BO3)3,3.9753,-3.050984258095842,mp-6575
K3SmSi2O7,3.615299999999999,-3.050909106160257,mp-1195475
Na3Y2Zr2P5SO24,4.1247,-3.050764121842853,mp-2716063
Sr6La3Ti3Cu3O20,0.0,-3.050746223571429,mp-1173245
Na6MgTa5Si6(PO12)3,3.198099999999999,-3.050702571646862,mp-2715221
Na3Y2Ta2SiP5O24,2.9494,-3.050469524288799,mp-2713044
BaZnSnF7,0.0,-3.050463114,mp-1041328
Ba2HoReO6,0.0,-3.050409025749999,mp-13933
Na4ScTa(SiO4)3,3.4989,-3.050377723627805,mp-2716396
Na2MgSi5O12,5.018599999999999,-3.050280072137931,mp-560603
Na2YC(OF)3,5.4017,-3.050273570025862,mp-559833
BaTbEuSbO6,0.0097,-3.050115185166666,mp-1520921
Na6Hf4Ta4Si9(SO16)3,2.9524,-3.049914293379854,mp-2713095
Na10Ca3Hf5(PO4)12,4.2588,-3.049791871788557,mp-2713141
CaTi2Be3(SiO4)3,0.0005,-3.049631510198413,mp-1048301
SrEuTiSnO6,0.279,-3.049584787333335,mp-1517075
BaSrGdSbO6,3.4364,-3.04948501175,mp-1523308
Na3LaSc(PO4)3,4.369400000000001,-3.049461725236659,mp-2715272
SrHo31Al2Si14N13O59,1.857699999999999,-3.049412681708332,mp-1173187
NaTa3AlSiP5O24,3.0965,-3.049342034759817,mp-2715599
Na9MgTa5(SiO4)9,3.2278,-3.049279078359675,mp-2715390
Na4La3Ta(PO4)6,3.152399999999999,-3.049274295939677,mp-2713325
LuUO3,0.0,-3.049198040333332,mp-973536
CaTiGeO5,2.9495999999999993,-3.049192665416666,mp-17784
KTiPO5,3.059799999999999,-3.048965920184524,mp-6268
KLaNb2O6,0.0,-3.048935919224999,mp-1518664
LaPr3(GaO3)4,3.4274,-3.0489299015,mp-1222864
Na2La3Ta5(PO4)12,2.4994,-3.048870451763899,mp-2713957
CaTi5O7,0.0,-3.048828500897435,mp-1341727
Na3Ca2Ta10Si3(P5O24)3,2.8615999999999993,-3.048767634924897,mp-2715805
Sr2TmReO6,0.0,-3.048674391250002,mp-13940
Ba7GeB3BrO13,3.5639000000000003,-3.0486271926,mp-1194795
YIO,3.4078,-3.0485364666666652,mp-753712
Ca19Si6S6(ClO24)2,3.9739999999999993,-3.048514821419752,mp-695095
Rb2GeF6,5.807,-3.048175578888887,mp-7949
MgTi3Nb3O12,0.0,-3.048110823421054,mp-2228373
Nd2BeGa2O7,3.599,-3.047905932083332,mp-1210014
Na7Sc2Ta2Si5PO24,3.1704,-3.047744160543854,mp-2714439
K7RbTi8(PO5)8,3.0963,-3.04758549612593,mp-1223774
GdO,0.0,-3.047584887500001,mp-7870
BaY2CuO5,0.0,-3.047560420555555,mp-542733
Na7Y3TaSi3(PO8)3,3.2439,-3.047531943518303,mp-2714660
MgTi4(PO4)6,2.4111,-3.047504249034013,mp-1222070
KGaF4,5.4353,-3.047392630166667,mp-15408
La2MgTiZnO6,1.6889,-3.047154941666667,mp-2217823
Na5Y3Ti(PO4)6,1.9071,-3.046900321233001,mp-2713156
Ba3SrY8(CuO5)4,0.272,-3.0467929175,mp-1228408
TaNbSi(PO6)2,3.0095,-3.04658051607563,mp-2715709
Na6Zr4Si5SO24,4.1334,-3.046511445811064,mp-2713849
SrEuTi4O12,0.0,-3.046487198240741,mp-1519071
SrCaTi2(GeO5)2,2.8285,-3.046455474479167,mp-1218580
BaSrY4(CuO5)2,0.0,-3.046324297777778,mp-1227594
Na7Sc4SiP5O24,4.5512,-3.046217887468362,mp-2715658
LiTiPO5,3.1096,-3.046197983913691,mp-6668
Na6CaZr3Si2(PO6)4,3.6024000000000003,-3.046197748837849,mp-2715323
Ba5Zn2B4(O6F)2,3.6391,-3.046180561866667,mp-1195124
K2AlAgF6,3.0675,-3.045985775616666,mp-1111949
Al(SiO3)2,0.3647,-3.0458949702777782,mp-726892
Gd3BiO3,0.0,-3.045856744285714,mp-1103896
Na10Sc7Nb(PO4)12,2.6672,-3.045763877750095,mp-2716340
Na10La7Nb(PO4)12,2.6714,-3.045763075570608,mp-2713149
Na3LaZrSi(PO6)2,3.413699999999999,-3.045742396754517,mp-2715330
Sr4B14O25,5.205900000000001,-3.045655874961241,mp-559330
NaBOF2,6.3006,-3.045634597775861,mp-1194338
BaSrCe4O12,0.0,-3.045478876111111,mp-1519519
K2PrCuF6,0.315999999999999,-3.045364464616666,mp-1110840
Na7Sc3TaSi3(PO8)3,3.1148,-3.045361116160579,mp-2714735
KZrH2OF5,5.846299999999999,-3.045322368475,mp-555482
Na10Hf4Zr4Si9(SO16)3,4.1238,-3.045312492772989,mp-2714141
NaSmO2,3.6533,-3.045306601594827,mp-754027
Na6Ta4Nb4Si11SO48,2.8466,-3.045294020564539,mp-2714560
CaZr4(PbO4)3,3.246699999999999,-3.045282933999999,mp-1228065
LiCe2O3,0.0,-3.045277483055554,mp-1236294
Pr2AlNO3,0.7129000000000001,-3.045204071904761,mp-1025277
Li2La3Nd(SbO6)2,3.9249,-3.044937413458334,mp-1222859
Na20Zr11Si10(PO9)8,2.9772,-3.044858966650653,mp-677692
Na3Hf3In(PO4)6,4.4542,-3.044810141044911,mp-2714752
Sm3IrO7,0.0,-3.04480209,mp-15326
Sr3NbGa3(SiO7)2,3.4242,-3.04479787097826,mp-1208777
Pr3RuO7,0.0,-3.044785704090908,mp-5433
ZrNb(PO4)3,2.913599999999999,-3.044783814740897,mp-2713851
Sr2LaSbO6,3.4224,-3.044758090499999,mp-1189102
LaTiNO2,1.306999999999999,-3.044681616666667,mp-1222738
KAl3(SiO4)3,0.6673,-3.044453803714913,mp-1223770
SrTiGeO5,2.878599999999999,-3.044169573229167,mp-559957
Li5La3Nb14O42,0.0,-3.044120530026044,mp-768083
SrCaCeGeO6,2.0936,-3.0441066335,mp-1520006
Ti14O7F60,0.0,-3.044038044218106,mp-685511
Ca20Si3Ge9O44,3.8254,-3.043996181644735,mp-1227935
K3GaF6,5.7897,-3.043798041924998,mp-1111080
Li3Ce2(BO3)3,0.234499999999999,-3.043742056323529,mp-1211185
Na4Y3Nb(PO4)6,2.3417,-3.043726864211607,mp-2713634
Na2Hf2Si2SO12,4.4927,-3.043703745890805,mp-2712524
NaEuTi8(PO4)12,0.0,-3.043506945410861,mp-1223158
Tb2Th2O5,0.0,-3.043489628703702,mp-1187283
Rb2UO4,1.8996,-3.043360169285711,mp-7726
Hf3AgHg3F20,0.760899999999999,-3.043328345709878,mp-1212249
Ba2MgNb4O12,0.0,-3.043247091315789,mp-2230428
CaCuF4,0.7392000000000001,-3.043225753333333,mp-12266
Na3CaHf3P5SO24,4.2491,-3.0431665586897,mp-2715950
BaEuYSbO6,0.059899999999999,-3.043071945,mp-1518297
Eu5Si(Cl3O2)2,0.7899,-3.043048485312501,mp-669318
Ce2AlNO3,0.0,-3.042877807142855,mp-1025275
Cs2Ba3(P2O7)2,4.8929,-3.042783893820946,mp-1019605
CsAlCuF6,0.0,-3.042744035239463,mp-510370
NaZrSi2O7,0.0,-3.042402821943573,mp-725970
NaLi2TiF6,0.0,-3.04235333113793,mp-1111096
Ba2NdDyTi2Cu2O11,0.0,-3.0423254347807,mp-1214598
Na5Sc3Ti(PO4)6,2.122499999999999,-3.042318846403942,mp-2716412
KMg3(SiO3)4,1.134699999999999,-3.0422913541125,mp-1211275
KLaHfSnO6,1.9904,-3.042116660725,mp-1519213
La2CuO4,0.0,-3.042022152857141,mp-1077929
Ho2SbO2,0.0,-3.041918071999998,mp-1067935
Li19La12Zr8O48,0.011499999999999,-3.041729757969349,mp-1239180
K2TiHgF6,2.1789,-3.041700829033333,mp-1112360
Ba2DyReO6,0.0,-3.041650062416667,mp-13932
Cs2SnF6,5.3369,-3.041488856034478,mp-7297
Na8Sc3TaSi4(PO12)2,3.1696,-3.041431564586989,mp-2715678
Lu(PO3)3,5.7855,-3.04109520360348,mp-1198201
UNb4O12,0.0,-3.041031667647059,mp-1216718
Ba2UPbO6,1.194599999999999,-3.040996817999999,mp-1080842
Ca2B5ClO9,5.2728,-3.040975401372548,mp-1214176
MgSnF5,0.0,-3.040935720714286,mp-1369701
Ca(SiO2)8,0.5343,-3.0408535838,mp-1214355
Ca2Al2Si(HO4)2,4.731,-3.040782182833308,mp-1227593
Ba2SmSbO6,3.605399999999999,-3.0407220915,mp-6037
KBaPO4,4.950299999999999,-3.040540147413266,mp-6812
SrCaLaSbO6,3.4708,-3.040478428999999,mp-1520009
Ca2TaNb2O8,0.190299999999999,-3.040378035948718,mp-1043434
Na10La2Ta6Si11SO48,3.0152,-3.040346601307177,mp-2716512
KNaLaNbO5,3.6387,-3.040243175403257,mp-10942
Li2ZrO3,3.7336,-3.040215971111112,mp-4156
Na7TaTi3(SiO4)6,2.6317999999999993,-3.040210840495656,mp-2712878
Na2YTaSi(PO6)2,2.6586,-3.039923322423386,mp-2712613
K3NbHOF7,4.1033,-3.039829815615385,mp-696651
Sm3Re2O9,0.0589,-3.039753250357145,mp-541928
La3ZrGa5O14,3.6853,-3.039606042282608,mp-1211277
RbAlCuF6,0.0,-3.039467765,mp-1209376
BaCaCeGeO6,1.9787,-3.039447311499999,mp-1518962
RbDyO2,3.602,-3.039326717291665,mp-7476
SrSmEuSbO6,0.019299999999999,-3.0391394330000012,mp-1520883
Na16Al12Si12I3ClO48,4.234999999999999,-3.0391238577942272,mp-1221546
Na8Y3TaSi4(PO12)2,3.3631,-3.039064637404449,mp-2716169
PrO,0.0,-3.039014093333332,mp-11344
YB5O9,5.3194,-3.038968718555556,mp-768961
Na4Y2Si(PO6)2,3.8516,-3.038937600308078,mp-2714558
Na2Be2(SiO3)3,4.8522,-3.038928223453664,mp-555182
CeCO3F,0.079899999999999,-3.038902384444444,mp-20288
RbTiPO5,2.7021,-3.038539595684524,mp-6539
NdNb4O12,0.0,-3.0385026075,mp-1220017
Na5ZrNb3(SiO4)6,2.8926,-3.038459391373417,mp-2713520
TaTi(PO4)3,2.8478,-3.038387667623249,mp-1043735
MgO,4.4292,-3.03830917,mp-1265
NdIO,3.5729,-3.038137594166668,mp-755336
Ca7Si6CO23,0.0,-3.038121873243243,mp-1227284
Na10Ta4Ti4Si11SO48,2.4749,-3.03808617795675,mp-2716492
Ba3Na(SiO4)2,0.145499999999999,-3.038079821527093,mp-1182396
Sr2MgTi2O6,0.04,-3.037977381060606,mp-2217331
Na3YSi2O7,4.006699999999999,-3.037974428267021,mp-1221257
Er2TeO6,3.1806,-3.037896960462963,mp-774557
LiTi4O6,0.0,-3.037887050606061,mp-1235275
K3ScSi2O7,3.6378,-3.03779018975,mp-557577
HfMgO3,1.1738,-3.037705825999999,mp-1016825
La2SbO2,0.0,-3.037668634,mp-1223121
Ti3P3O13,0.0,-3.037647667838345,mp-1041196
Li2MgSi5O12,5.1591000000000005,-3.0375820362083332,mp-1222909
CsLi3F4,6.819999999999999,-3.0375792096875,mp-555439
Lu2Cu(B2O5)2,0.6675,-3.037570600588235,mp-17268
KGdO2,3.05,-3.0375402743125,mp-757021
K4Ho2MgNb10O30,0.0,-3.037524211361702,mp-1234572
Na5Y3NbSiP5O24,2.3647,-3.037305041712244,mp-2714107
Sr3TaHO6,3.542099999999999,-3.037301312598484,mp-1103663
PrNb4O12,0.0,-3.037236344803922,mp-1219754
RbAl3Cd(SiO4)3,2.7977,-3.037076059125,mp-1250508
Nd5Te2Cl3O10,3.3387,-3.036888929041666,mp-560170
K3Np3Si2O13,0.0,-3.036866436333334,mp-1224146
La2Ge2O7,3.7144,-3.036669459090908,mp-621945
BaSrSmSbO6,3.6073,-3.0364416545,mp-1522804
Si17CO34,2.4369,-3.036426163846154,mp-738361
SrLi4Ca(SiO4)2,5.0666,-3.036285777395833,mp-555089
Na6La3TaSi2(PO6)4,3.233399999999999,-3.036194531396182,mp-2715276
Na6Y3NbSi2(PO6)4,2.5572,-3.036156545921182,mp-2715451
RbNaCa2Nb4O13,1.4739,-3.036113194946634,mp-1219637
Na5Y2Ta2Si3(PO8)3,2.793199999999999,-3.036101766123722,mp-2714091
Na4Sc2Si(PO6)2,4.388,-3.036050016816014,mp-2714473
Na13Zr7Si5P7O48,3.7281,-3.035972955005388,mp-695390
Na4MgZr3(PO4)6,3.8058,-3.035828929255466,mp-2713688
NaLaO2,3.2411,-3.035822470344827,mp-755586
Rb3GaF6,5.6871,-3.035707203999998,mp-1113627
MgTi2(PO4)3,0.181,-3.035696571699736,mp-1043685
KLi3Si12(SnO15)2,4.4444,-3.035673169734375,mp-6844
CaEuTi4O12,0.0,-3.035628289907409,mp-1519411
Ta3InO9,2.952,-3.035498554128206,mp-770380
Na4YScSi(PO6)2,4.101999999999999,-3.035298580625537,mp-2714427
Dy2SbO2,0.0,-3.035161320666665,mp-1178366
Tm2Cu(B2O5)2,0.6744,-3.035146655392158,mp-18576
K3NdSi2O7,0.0,-3.035138234301282,mp-8614
NaMg3Al6Si6B3O31,0.097299999999999,-3.035102316777586,mp-728227
ScO2,0.5864,-3.035004163333332,mp-1179114
Ba2TbPrO6,0.0,-3.034941973583332,mp-1517475
RbNbSiO5,3.2531,-3.034918442291667,mp-557778
K2GeF6,5.799799999999999,-3.034860290499997,mp-7825
Ba6Mg(P2O7)3,1.5701,-3.034852451407563,mp-1233105
K3Al2Si4O13,1.1189,-3.034810817920456,mp-736542
Sr2YTi2GaO7,0.0,-3.03479592878205,mp-1048031
Rb2LaNb2ClO7,1.3266,-3.034584571153846,mp-1209483
Ba5Nb5O14,0.0,-3.034516175833333,mp-766302
LiEu3O4,0.0,-3.034272242916669,mp-1098000
Na3YTaSi2PO12,3.1691,-3.034256137305706,mp-2715381
Nb2O5,1.7731,-3.034205274693879,mp-581967
Cs2AlAgF6,3.4974,-3.0340755550977,mp-1113614
PrGaO3,3.3909,-3.034011709833333,mp-4535
Na4Sc3Nb(PO4)6,2.3799,-3.033984074080027,mp-2713248
K5Eu2Si4O13F,0.0,-3.033927540050001,mp-605935
BaCa2C2(O3F)2,4.7463999999999995,-3.033899704230769,mp-560303
LiMg30AlO32,4.475700000000001,-3.033880528177083,mp-1038204
Na3Mg2Ta10Si3(P5O24)3,2.8743,-3.033873950067755,mp-2715796
K6Na3Ti2Al2Si8Cl3O26,3.2034,-3.033737014486092,mp-1223736
TmHO2,4.5626999999999995,-3.033667235312501,mp-754004
KAlCuF6,0.0809,-3.033430691916666,mp-18124
Na10Zr4Nb4Si11SO48,2.8081,-3.033147107110596,mp-2716306
SrCuF4,0.8036000000000001,-3.033043213333332,mp-12265
CaZn(SiO3)2,4.056599999999999,-3.0329841,mp-6693
Tm2Sn2O7,2.6576,-3.032940869545466,mp-3334
KPrZr4O12,0.0,-3.032733871050925,mp-1518844
SrEuNbGaO6,0.3071,-3.03261825225,mp-1518126
Na(SiO2)6,0.198799999999999,-3.032583879283122,mp-1212197
Sr2B5BrO9,5.164300000000001,-3.032547558578433,mp-1209005
Na3CaAl3Si3SO16,4.1166,-3.032469270245848,mp-1252733
Ba2Li(BO2)5,5.1407,-3.032362909675926,mp-6075
Sr2ErReO6,0.0,-3.03235778425,mp-13939
RbTaO3,3.5412,-3.032331979466696,mp-3033
Ba4NaAl2B8(BrO6)3,3.8869,-3.032328896519797,mp-1197875
LiLaNdSbO6,4.026299999999999,-3.032313438083333,mp-776091
Ba2TbReO6,0.0,-3.032256561916638,mp-13931
Na2HfAl(PO4)3,4.952999999999999,-3.032242008860729,mp-2713315
KTi2(PO4)3,2.5455,-3.032237108769179,mp-541238
BaLu2NiO5,0.0,-3.032182209259259,mp-825626
NaCaPO4,5.0934,-3.032067102884119,mp-14401
Na6La5Ta3(PO4)12,2.8055000000000003,-3.032009153166534,mp-2714825
Na3Zr2Sc2P5SO24,4.110200000000001,-3.031940448869881,mp-2716115
U3P2(PbO8)2,1.8728999999999991,-3.031925149534161,mp-1209059
Ba2LaSbO6,3.8961,-3.0319059435,mp-551269
NaPrZr4O12,0.0,-3.031895672391442,mp-1520517
CaEuZrSnO6,0.375,-3.031866485999999,mp-1519892
Na7Y2Ta2Si5PO24,3.092,-3.031826783226781,mp-2714543
Na7CaZr3Si3(PO8)3,3.7584,-3.031701433339442,mp-2714697
SrAlO3,0.0,-3.031678721000001,mp-978862
K5Na3Ta7NbO24,1.96,-3.03162275229303,mp-1076413
Nb2O3F2,0.2096,-3.031614809285713,mp-753532
Rb2SnF6,5.1882,-3.031596841111105,mp-1206049
Na3La2Zr2P5SO24,3.980299999999999,-3.03150460895997,mp-2716050
NaSrNb2O6,0.0,-3.031476777137931,mp-1220869