formula,bg,formation_energy,mp-id
Sr2CeNbO6,0.0,-3.35855067675,mp-1522970
Ba2TbCeO6,0.0,-3.358507361166666,mp-1520056
KRb2ZrOF5,4.5842,-3.358261073225,mp-39542
Al9Si2BO19,4.973700000000001,-3.3576390623924732,mp-1229075
Na3Sm9B8O27,4.048399999999999,-3.357602372499388,mp-1210282
BaCaDyNbO6,2.856,-3.357578071166665,mp-1516601
Ca4Ce2TiSi4(BO6)4,1.2601,-3.357529777179488,mp-728512
NaSr3GdP3O12F,3.3081,-3.357251479300374,mp-1204493
K4Ti2PO4F9,3.061499999999999,-3.357076941640476,mp-554016
LuBrO,4.3956,-3.3570168455555542,mp-973981
Sr2EuTaO6,0.0,-3.356840924733335,mp-1209013
Sr2LaTi2Nb3O15,1.5888,-3.356631151159421,mp-1218793
Sr2NdNbO6,3.0047,-3.3565974245,mp-1521536
NaCeTiNbO6F,0.0346,-3.356587951564786,mp-43055
Ti11BeO20,0.0,-3.356509065364584,mp-780463
Sr3Y2(BO3)4,4.483,-3.356467191031745,mp-561157
Ba3TiF12,0.716499999999999,-3.356350756458333,mp-1215038
SrCaSmNbO6,3.0967,-3.35608993675,mp-1519851
KLi3Ca7Ti2Si12(O18F)2,3.5105,-3.356045146093916,mp-641919
Ba2PrHfO6,0.0,-3.355705937416667,mp-1521068
Ca6Mg5Al2Si11O36,5.1007,-3.355220556750001,mp-699405
Mg2Ti3O8,2.6527,-3.355213158846154,mp-1042395
Ce2SeO2,0.0,-3.354982122468743,mp-754640
ErBrO,4.3820000000000014,-3.3549093016666642,mp-1206859
CaEuYNbO6,0.063399999999999,-3.3548457975,mp-1516902
CsRb2AlF6,5.8323,-3.354795068465518,mp-1111045
Dy5(ReO6)2,0.0,-3.354670727017543,mp-1225661
KAl9O14,4.3523,-3.354464808010416,mp-1019803
Ba2PrNbO6,2.9791,-3.354416347166667,mp-10344
Sr3Sm2(BO3)4,4.5184999999999995,-3.3544146148412692,mp-1209534
Li3TiF6,0.162599999999999,-3.354392477166667,mp-21540
ScPO4,4.193899999999999,-3.354315457440459,mp-4200
BaLiMg2AlSi3(O5F)2,0.0,-3.354285396666667,mp-1227900
YbSc(BO3)2,0.0,-3.354262101750001,mp-1215572
NdSF,1.2363,-3.354096816770832,mp-5760
Ba4Li6Ti19O44,0.0,-3.353738138949771,mp-767511
Ti8O13,0.111399999999999,-3.353443061984128,mp-752989
BaNdEuNbO6,0.1223,-3.353430624750001,mp-1518460
Ba2LaPuO6,0.0,-3.353361090374999,mp-1207161
CsSr2Ta3O10,2.0452,-3.353239764478449,mp-7181
KLiBeF4,6.8529,-3.353237281511904,mp-6253
Gd4PdO7,1.04,-3.353109737083334,mp-1213473
U3NF13,0.0,-3.35309120117647,mp-1202871
Na2Sm2Ti3O10,1.7099000000000002,-3.353052555456389,mp-15155
BeAl2O4,6.117700000000001,-3.352918253928567,mp-3081
Na2Ca4ZrNbSi4(O8F)2,0.6702,-3.3528183159252882,mp-1210786
CsLiBeF4,7.0366,-3.352806364712644,mp-18704
NaGdTiO4,2.2462,-3.352549628887522,mp-541513
Al8SiO14,4.2639,-3.352404316956522,mp-772413
Cs2ScTlF6,5.2805,-3.352392971764368,mp-1112337
CaSnF4,3.498599999999999,-3.352256829166666,mp-1048327
MgSc2Ti2O7,0.0,-3.352256322222222,mp-2218179
La4PtO7,0.9892,-3.352182622083333,mp-1223078
Sm3SbO7,2.6738,-3.352076431363635,mp-1191139
EuTaO4,0.0,-3.351891591222222,mp-5957
Na2UF8,2.5956,-3.351888938636364,mp-1103472
BaSrPrNbO6,3.016699999999999,-3.351806183166667,mp-1519309
Ba2Ce2O5,0.0,-3.35177787111111,mp-769656
BaCaNdNbO6,2.9859,-3.3517735105,mp-1519641
CsTbF5,0.0,-3.351707979285714,mp-28449
Ca2Mg5Si8(O11F)2,5.1333,-3.351645355256411,mp-557662
HoBrO,4.5018,-3.351563836666667,mp-1178160
Sr4Al6TeO12,2.838,-3.351497833333332,mp-9392
Na2Ca3Ta2Ti3O15,2.5332,-3.350941987997012,mp-1173852
EuTa3O9,0.0,-3.350895101307694,mp-1225272
LiLa2TiO6,0.0,-3.350822536166667,mp-1210901
Nd3Ti3(SeO4)2,0.0,-3.350788909511718,mp-18647
LiAl5O8,5.5169000000000015,-3.350604872559511,mp-530399
BaHf(PO4)2,4.9273,-3.350602843273808,mp-545548
Eu2SiO4,0.288899999999999,-3.35055400071429,mp-554546
Na5Ti3F14,0.0,-3.350505534404388,mp-1120736
La3TiCl5O4,3.341999999999999,-3.350265015833334,mp-556659
La5Ti6S3(ClO5)3,1.7769,-3.350186000390626,mp-1223572
Ba5Ca2Ta3O15,0.0,-3.349706335679999,mp-1228312
BaNaNdSi2O7,4.6624,-3.349459029594108,mp-559384
KLaTaAlO6,1.7024,-3.349407165958332,mp-2647039
BaEuZrNbO6,0.0,-3.3493691235,mp-1523280
Sr3Ta2Ti6O21,0.0,-3.349300081395833,mp-1208814
LiTmO2,0.0001,-3.349264163958334,mp-1176564
Al22PbO34,3.6212,-3.349244203684211,mp-530984
LaSeF,1.726099999999999,-3.349131063020832,mp-7738
Ti11O18,0.0,-3.34912974091954,mp-760747
Sr3Gd2(BO3)4,2.5819,-3.349058801984127,mp-1211958
KNdTiO4,2.360699999999999,-3.349002095797618,mp-1211538
BaCaSiO4,4.367100000000001,-3.3489579875,mp-561050
NaSmTiO4,2.4179999999999993,-3.348860017101805,mp-9489
KNdZrTiO6,2.1104,-3.3487648258083342,mp-1523257
LiUO3,0.4431,-3.348508900666648,mp-8007
Mg7Al22O40,3.5233,-3.348124007608695,mp-530826
Ce4MgTi2O10,0.0,-3.347942043627451,mp-2229877
Sr2YTi2O7,0.0,-3.347775974722222,mp-1048233
K2ZrHF7,6.349600000000001,-3.347572917,mp-1196802
NaScTiO4,2.497499999999999,-3.347554984601806,mp-1220931
EuMgAl11O19,0.0,-3.347471657343749,mp-1227018
K2Ti6O13,2.7535,-3.347455425690477,mp-8065
Ba2NdAlO5,3.691299999999999,-3.3474437825,mp-555284
Sr3Nd2(BO3)4,4.6098,-3.347300548293651,mp-6249
Lu2WO6,3.1387,-3.347299822037035,mp-555747
NaCa3SmP3O12F,5.2867,-3.347200571919422,mp-693612
Rb4U5O17,1.5709,-3.347125572403845,mp-558239
BaCaCeNbO6,0.0,-3.34683887175,mp-1516489
Mg2Be3Tl2F12,5.670800000000001,-3.346727547324562,mp-1210925
K2Ca4U(SiO4)4,2.0773,-3.346679059425926,mp-1192578
Ta2O5,1.2267,-3.346563131380951,mp-10390
Li3YF6,5.3213,-3.346384613500001,mp-1110575
CaTi2O4,0.0,-3.34637865595238,mp-3463
LaGd(BrO)2,2.7531,-3.3462769475,mp-1222815
NaYSiO4,4.2796,-3.3462597766256152,mp-17891
Sr3Al2(SiO4)3,4.572,-3.3461130028749992,mp-14048
Eu3Al5O12,0.0,-3.346018073500003,mp-21757
TaO2F,1.5127,-3.345754058083332,mp-1217888
MgScBO4,3.3919,-3.345667958809523,mp-1221965
Sr4HfO6,3.846,-3.345469832727272,mp-779428
Tb5(ReO6)2,0.0,-3.345005715701756,mp-1208421
Ca4Al6TeO12,3.146499999999999,-3.344974588550724,mp-15312
Li2Ca3Be3Si3(O6F)2,5.8431000000000015,-3.344832116266667,mp-560036
LiScO2,3.904,-3.344621143333333,mp-5840
CsTh2(PO4)3,4.5121,-3.3441776829768752,mp-1198898
RbBaSc(SiO3)3,4.9748,-3.344169308333333,mp-1197457
Ba8Ta7O24,0.0,-3.344112180290599,mp-773073
Tb3ReO7,0.0,-3.344088259318181,mp-31102
BaPuO3,0.0,-3.34406189474999,mp-505025
Gd13Ge6O31F,0.6162000000000001,-3.343914370196078,mp-651087
CaMg(SiO3)2,4.9716000000000005,-3.343864678,mp-6766
Al10Si2O19,3.7364,-3.343859447580645,mp-1247887
BaCaTbNbO6,2.852999999999999,-3.343693335666666,mp-1520770
Pr2SeO2,2.1691,-3.343554011135414,mp-4764
NaPrZr2O6,2.578999999999999,-3.343553772304597,mp-1520589
Er6TeO12,2.8824,-3.3434992582456142,mp-1213679
PrSF,1.2541,-3.3434663914930542,mp-3992
Ba3LiTi5Nb3O21,2.1226,-3.343356402727274,mp-766208
Eu2TiNbO6,0.0,-3.343293049333334,mp-1521061
K2CeTa5O15,0.0481,-3.34321049287681,mp-21542
BaCaYNbO6,2.8545,-3.34302936,mp-1522202
KSr2Si4O10F,4.8589,-3.343021841375,mp-1211577
Ba3Ti3(BO6)2,2.1313,-3.342956696916667,mp-11772
SmEu2NbO6,0.0829,-3.342808789000001,mp-1516269
NdEu2TaO6,1.2522,-3.342785365483334,mp-1205599
Sr3Al2O6,4.2046,-3.342221047765152,mp-3393
Ba2NdPuO6,0.0,-3.342082354624998,mp-1205885
Eu2MgSi2O7,0.0118,-3.341890984583333,mp-982662
K3U3Si2O13,0.483599999999999,-3.341829393416667,mp-558320
Eu5P3O12F,0.390699999999999,-3.341644417329932,mp-1212781
Sm4PdO7,1.088499999999999,-3.34128856375,mp-1208908
KCeTi2O6,0.029399999999999,-3.341069330391666,mp-1223462
LiSc(SiO3)2,4.9634,-3.340805022583333,mp-6099
KNa2ScF6,5.0397,-3.340794464500861,mp-1111005
Ca3Ti2(Si2O7)2,0.0651,-3.340408718985506,mp-1267920
Eu3(SF2)2,0.0,-3.34014357888889,mp-1080739
KBaAl3Si5O16,4.7146,-3.340123225278845,mp-677121
Sr3Pr2(BO3)4,4.5764,-3.340008434285714,mp-6803
Sr6YSc(BO3)6,4.4887,-3.339772416562501,mp-18043
Ba3MgTaNbO9,2.8443,-3.33970034848889,mp-1228058
SrEuScO4,0.0,-3.339583158571429,mp-1218285
LiPaO3,3.1954,-3.339490445666668,mp-1185263
BaNaNd(SiO3)3,4.822299999999999,-3.339448230758621,mp-13791
Sr3SiO5,3.7632,-3.339431164444443,mp-5487
Ca4Ti3Si4SnO20,2.9791,-3.33933064953125,mp-1227165
Sr2Sc2B4O11,4.3474,-3.339275960614034,mp-556123
LiEr4Be4(SiO7)2,0.0,-3.339056526933333,mp-1236794
Rb2MgF4,6.2257,-3.33899116,mp-8861
PrB2HF10,7.7517,-3.338888834017857,mp-861500
NaTi8O16,0.0,-3.338881799521839,mp-761136
BaNaScSi2O7,4.5947,-3.338729840948275,mp-866298
Ti5O8,0.0,-3.338724498205128,mp-759920
Ba2LuB2ClO6,2.1046,-3.33855774375,mp-1228639
Nd3Ho2(GaO4)3,3.5775,-3.338534790249999,mp-1210498
Cs4U5O17,1.5681999999999992,-3.3384134026392562,mp-4393
Y2GeO5,3.5881,-3.338367075000007,mp-768814
Na3Nd9B8O27,3.9569,-3.338320248510026,mp-1210255
MgTi3O7,2.8332,-3.338316207727273,mp-1043866
Li2Ti6O13,2.8381,-3.338314180079365,mp-1190625
K6Ba2CaU6O24,2.0426,-3.338218396243588,mp-1224235
Ba8Ti3Nb4O24,1.9693,-3.337986506923076,mp-1228557
K2LiTiF6,0.0,-3.337603426116666,mp-1111107
NdB2HF10,7.7826,-3.337575044791667,mp-977417
Na2Ti9O19,2.1946,-3.3375732712586212,mp-650929
SrCaDyNbO6,2.8784,-3.337451016166666,mp-1523329
SrCa3Mg4(SiO3)8,4.9247,-3.337406446249999,mp-1218570
Er2TeO2,0.603499999999999,-3.3368576393333322,mp-1178355
Ta6Al8O27F,0.0,-3.336769284380953,mp-1218123
KUSi2O7,0.5523,-3.33671847156818,mp-560631
NaYPO4F,5.494400000000001,-3.33657183637777,mp-10804
Ba2PuTaO6,0.0,-3.3365669416083312,mp-1205514
UOF3,0.0,-3.336262721999998,mp-1216814
Ba2U(PO5)2,2.1977,-3.33624709795238,mp-1192547
BaCeEuNbO6,0.0,-3.336233135,mp-1522522
NaTh2(PO4)3,4.604,-3.336144477239326,mp-1220958
MgTi4O8,0.0,-3.336112619871795,mp-2219114
Sr7Al12O25,1.162299999999999,-3.336027221477273,mp-685242
HfNbO4,0.0,-3.3359946333333332,mp-850283
Li4TbF8,0.0,-3.335848798397434,mp-505089
NaNdTiO4,2.4465,-3.335226827458949,mp-20980
Ca4Nb2O9,3.3225,-3.3351709735000012,mp-31016
KUO3,0.4454,-3.335109890449998,mp-4126
KLuTa2O7,2.2807,-3.334864571689392,mp-1223508
SrCaTiNbO6,0.0,-3.334841268333333,mp-1516720
Ba7Ti2Nb4O21,2.5316,-3.334670470637256,mp-1228174
BaZr(BO3)2,4.1173,-3.334656806833334,mp-559348
SrAl2P2(O4F)2,5.4887,-3.334375912285714,mp-9512
CaSbF5,4.518700000000001,-3.334089297142857,mp-1347935
Ba3SnF6,0.0,-3.3337783395000002,mp-1206078
SrNdEuNbO6,0.096299999999999,-3.3334541735,mp-1519937
Na2Gd2Ti3O10,1.3916,-3.333433521926978,mp-20763
Eu2YNbO6,0.2671,-3.333186449000001,mp-1519983
NaTb(SiO3)2,4.3118,-3.333183514804591,mp-1193942
HoSF,1.299599999999999,-3.333161717604165,mp-10931
LiTi4O8,0.0,-3.333029768461538,mp-867613
Eu3NbO6,0.0,-3.333018813999996,mp-1188621
SrCeEuNbO6,0.0,-3.332908425,mp-1522289
KYTa2O7,2.2072,-3.3327571724469682,mp-1223270
Ba2EuTaO6,0.0,-3.332704743233333,mp-21348
MgTiF4,0.0,-3.332668993055556,mp-1410270
Na5Tm4Si4O16F,4.800599999999999,-3.332293287729886,mp-1192572
Ca2HfNbO6,0.0,-3.332170996,mp-1523252
Rb2Ti6O13,2.6235,-3.3320984680952392,mp-540784
YSF,1.3132,-3.332084884270834,mp-10086
LaGd3(BrO)4,2.8592,-3.33194087125,mp-1222951
Ca3Ti3Si2GeO15,2.8822,-3.331690765520834,mp-1229240
Al7Si3BO18,4.9414,-3.331376750488506,mp-1019381
Pr3GePO9,4.7801,-3.331268122653062,mp-14328
Ce3S2O3,0.0,-3.331260575312498,mp-510277
La2Pr2O7,0.0,-3.331233522575756,mp-755355
K5Li2NdF10,6.6389,-3.331231379467592,mp-557798
Mg5Si2(O4F)2,4.9129000000000005,-3.331173155588235,mp-1195642
SrLiY2(BO3)3,4.1234,-3.330961614114583,mp-1218231
Mg2Al4Si5O18,4.9555,-3.330954054137932,mp-6174
Sr5Ti5O13,0.0,-3.330731274855073,mp-675134
Ti19O30,0.0,-3.330664134761904,mp-760075
Sr5P3ClO12,5.077999999999999,-3.33052458090136,mp-23121
La2GeO5,4.021000000000001,-3.330141265312501,mp-638261
Sr20Ta8O39,0.0,-3.330132649308458,mp-674423
Ba2HoB2ClO6,4.0845,-3.329889633194444,mp-558195
Rb2LuSi4O10F,4.927899999999999,-3.32985431287037,mp-1196570
K3Al3OF12,0.0,-3.329606176671052,mp-1200456
CsRb2SiF7,5.4931,-3.329480579968652,mp-7380
Sr3Sc(BO3)3,4.6259999999999994,-3.329377847031251,mp-17562
Na2LiBe2F7,6.9483,-3.329258121757663,mp-12240
Ho2TeO2,0.7161999999999991,-3.32919161533333,mp-1178173
Ba6NaNd(SiO4)4,3.647599999999999,-3.329182422817118,mp-1214692
Sr3Y(BO3)3,4.4109,-3.32911240484375,mp-17025
BaMg2Al6(Si3O10)3,3.8662,-3.329089233125,mp-694056
Ca3Ti4PbO12,1.686499999999999,-3.328509340166667,mp-1227856
Na2Ti7O15,2.8813,-3.328409610878832,mp-759786
CaTb4(PO4)4,3.9311,-3.328345229809522,mp-1233984
Ba6Zn7F26,4.3667,-3.328125286923077,mp-31026
K3SiF7,5.9294,-3.327964832886364,mp-13859
Dy2TeO2,0.8027999999999991,-3.327902807999997,mp-16037
Nd4Ga2O9,3.817999999999999,-3.327851149166667,mp-559770
CaAl4Si2O11,5.104999999999999,-3.3277072958333322,mp-1226904
KEuHfZrO6,0.0,-3.327640105225,mp-1518234
Ca3YAl3B4O15,4.442,-3.327550050544871,mp-694012
Na2TiF5,0.187399999999999,-3.327463087948995,mp-1120794
Tb2TeO2,1.1715,-3.3274110779999972,mp-16036
K5Li2PrF10,6.4766,-3.327178052754629,mp-1196988
Rb3SiF7,5.646599999999999,-3.327109302499999,mp-12243
Cs2YTlF6,4.705399999999999,-3.327059235999999,mp-1112482
Na5Er4Si4O16F,4.7932999999999995,-3.3269326820632172,mp-1192584
NaCa2Si4O10F,4.9558,-3.326915223409961,mp-1210279
Al22CdO34,2.3255,-3.326903878070176,mp-674298
KRb2SiF7,5.7044,-3.326855958386363,mp-1223349
LaEu2NbO6,0.1855,-3.326676971749999,mp-1517202
Rb2ScTlF6,4.9059,-3.326228318333334,mp-1113855
Ca4P2O9,4.747400000000001,-3.3260632259523812,mp-5263
Eu3AlO5,0.0,-3.325880598333335,mp-1019729
NaTi3AlO8,2.5385,-3.3258188501061,mp-1220885
MgTa2O6,2.8397,-3.325803555518519,mp-9650
Ca3(PO4)2,4.9116,-3.325657296804029,mp-1197377
Al2Si2O7,5.266500000000001,-3.325532635909091,mp-755043
CsMgGaF6,5.6419,-3.325233388017241,mp-1225927
CaAl2Si3O10,4.541499999999999,-3.324810085625,mp-1195158
K2U2O7,1.6483,-3.324803091318179,mp-29361
BaBePO4F,6.051500000000001,-3.324733488080356,mp-754604
Ca3Er3Ge2BO13,3.8902,-3.324719248825758,mp-41109
CeB2O4F,0.2384,-3.324694501510415,mp-1199150
KTi3AlO8,2.5699,-3.32467413901923,mp-1223316
BaBeSiO4,4.6114,-3.3246150149999982,mp-550751
CsAlZnF6,5.4077,-3.32442471190613,mp-1213699
EuAlO3,0.0,-3.324379768500001,mp-21455
Sr5B3O9F,4.1747,-3.32431697,mp-560818
Ba10Mg3ZrTa6O30,0.0,-3.32405491468,mp-686330
ErSF,1.3243999999999991,-3.323758545381942,mp-10932
KMg3AlSi3(O5F)2,0.0,-3.323647632612499,mp-1223512
La4Si2S3O7,2.5019,-3.32357439640625,mp-15897
Ti3NbO8,0.0,-3.3235095175000002,mp-1217129
NaCa2Mg5AlSi7(O11F)2,4.6631,-3.323497476159482,mp-1221134
TiZnF6,4.1668,-3.323033731666666,mp-1403065
NaPrTiO4,2.470799999999999,-3.322996665197045,mp-1104533
Cs2RbSiF7,5.5149,-3.322881693346395,mp-1226147
Ba6Ti7Nb9O42,0.0,-3.3225880956770832,mp-773061
SrCaYNbO6,2.8753,-3.322495085999999,mp-1519736
CaAlBO4,4.6961,-3.322331291309524,mp-559759
Na5Ho4Si4O16F,4.7593,-3.3219412910632142,mp-1192403
LiErO2,4.110799999999999,-3.321671447083332,mp-10970
Ho3ReO8,1.7553,-3.321651627499998,mp-769345
Ba3Mg(SiO4)2,4.6934000000000005,-3.321365118452381,mp-556703
NaY(SiO3)2,4.709,-3.3212076011379312,mp-560039
Ba3Lu(BO3)3,3.8606,-3.32100134421875,mp-14386
La4Nd4S4O7,0.455199999999999,-3.320993736578947,mp-1223043
Cs2YInF6,4.0503,-3.320911532999997,mp-1113062
Rb2YTlF6,4.6661,-3.320889706833333,mp-1113925
Sr20P12Br(ClO16)3,5.0397,-3.3207810473894552,mp-1218923
Ba3HfNb4O15,2.2464,-3.320587975652173,mp-1228349
Na2ThTi3O9,1.860599999999999,-3.32055920451724,mp-1221270
Yb2TeO2,0.0,-3.320534887500002,mp-769277
SrCaTbNbO6,2.865,-3.3205194576666672,mp-1522128
Na2SiF6,6.9951,-3.320358588703704,mp-3775
Na3Li3Ti2F12,0.0,-3.32034199441523,mp-14457
SrMg2Al6(Si3O10)3,3.836999999999999,-3.32032745375,mp-677497
Rb8U9O31,1.594199999999999,-3.320268939791666,mp-683981
CaBePO4F,6.106999999999999,-3.319771316517857,mp-6899
NdEu2NbO6,0.077099999999999,-3.319762937000001,mp-1521018
CsK2AlF6,5.617900000000001,-3.319671709415517,mp-1112319
Na5Dy4Si4O16F,4.7514,-3.319408163952106,mp-1192543
Sr3(PO4)2,5.4064,-3.3192211222527472,mp-4632
NaLaSiO4,4.5657,-3.319185111268472,mp-1020648
CaLaMgAl2Si3HO13,4.446700000000001,-3.319122309602274,mp-1195311
K2NaTiOF5,3.964,-3.319039354921264,mp-42190
Ca10P6O25,3.1483,-3.318827082264808,mp-29760
Ba4Ti5PbO15,1.7552,-3.318825024466666,mp-1228218
CsCa2Ta3O10,2.1798,-3.318698403853449,mp-10347
La2Ti2O5,0.0,-3.318474161296297,mp-1097763
U12O19,0.0,-3.31833448693548,mp-684907
Sr20P12Br3O48F,4.9493,-3.318227706496599,mp-1219029
K2BeF4,6.8508,-3.318164689214286,mp-5185
Ti9SnO20,1.8492,-3.318146108166666,mp-761148
Ba2Sc2B4O11,3.3548,-3.318065699035087,mp-558688
NaSc(SiO3)2,4.950100000000001,-3.317827060137931,mp-7074
SmSF,1.2296999999999991,-3.317725045833334,mp-3931
Cs2ErSi4O10F,4.809,-3.317721275933908,mp-1196674
Na3TaF8,4.8651,-3.317658471027778,mp-17245
BaMgBO3F,4.1903,-3.317587492142857,mp-1198065
Rb2LiTiF6,0.0,-3.317555614166666,mp-1113704
BaSrTbTiO6,0.0,-3.317408493,mp-1522656
Sr10P6O25,2.6772,-3.317368760069687,mp-1218894
BaPrEuNbO6,0.0738,-3.317323411416667,mp-1521103
RbTi3AlO8,2.5876,-3.317280524423077,mp-1219548
Eu2ZrNbO6,0.0,-3.317280466000001,mp-1516495
MgBeAl4O8,5.5286,-3.317258059285714,mp-554364
Y5(ReO6)2,0.0,-3.317054344999999,mp-675733
CePr2O6,0.0,-3.316956717037037,mp-1226529
CaMg2Al6O12,3.278299999999999,-3.316888824285713,mp-1227128
Sr4Ta3PO14,1.7480000000000002,-3.316813557574674,mp-1250155
Na5Tb4Si4O16F,4.7059000000000015,-3.316587696952107,mp-1192492
Ca11Si4ClO18,0.0,-3.3164175605882362,mp-1214142
Ca2Al8PbO15,3.9161,-3.316381144711536,mp-1200432
Ba3Ti3O8,0.0,-3.316361045714285,mp-33339
Ba2YCu2F11,0.8427,-3.3162703536458342,mp-1044526
YBrO,4.4849,-3.316152355000001,mp-768906
CaAl2(Si3O8)2,4.5347,-3.315837871999999,mp-1233677
Ba4Ti6Si4O25,0.0,-3.315817898076923,mp-1214645
Ba3Tm(BO3)3,3.8436,-3.315729301302068,mp-14385
TaTiO4,0.0,-3.315690980944443,mp-760439
Sr5Ca5P6(ClO12)2,5.1742,-3.31549625637755,mp-1218624
RbCa2Ta3O10,2.202499999999999,-3.315439509968751,mp-6680
KCa2Ta3O10,2.179,-3.315227942453125,mp-1223520
Na2Ti6O13,2.916699999999999,-3.314977577512348,mp-5449
CaAl2F10,0.543099999999999,-3.314568282692306,mp-1227363
Na3Sr7Ti7Nb3O30,1.7471,-3.314539395849425,mp-677709
LiYbO2,0.0,-3.314437616041667,mp-8390
Ba2YB2ClO6,4.0621,-3.314055824444445,mp-866310
YbGd(PO4)2,0.0,-3.313969814246031,mp-1215693
SrTi2O5,2.006199999999999,-3.313949739270834,mp-572124
BaCaZrNbO6,0.0,-3.313915328,mp-1519061
Cs2KSiF7,5.4636,-3.313716270596396,mp-1229170
Nb2OF8,4.2124,-3.313627437045454,mp-758829
AlPbF5,5.2623,-3.313423510952373,mp-1214948
Sr10Al6O19,3.8941,-3.313190807785715,mp-680432
BaLaMgNbO6,2.792899999999999,-3.313065879,mp-39288
CaYNb2O7,0.0,-3.312727587272727,mp-1227108
Sr3Pr4O9,2.3402,-3.312569934479167,mp-686055
Ba2CaSi4(BO7)2,5.0218,-3.312407685579709,mp-1019518
RbBe3ZnF9,6.294399999999999,-3.312349087321429,mp-17229
GdBrO,0.081199999999999,-3.312317020000002,mp-29797
Ba3La2(BO3)4,4.0338,-3.312299555079365,mp-6446
GdTa4O12,0.0,-3.312049204666667,mp-1224653
Cs4Na2ScGaF12,6.314999999999999,-3.312048162693965,mp-1228955
Ca5P3ClO12,5.625299999999999,-3.312047423877551,mp-555164
Hf3Cd3AgF20,0.0,-3.311825106728395,mp-554342
KBe3ZnF9,6.245900000000001,-3.311582430160715,mp-18509
PmErO3,1.695799999999999,-3.311521140499999,mp-1186557
Ba3Y2O6,2.2132,-3.311430455454545,mp-1178535
Li2La3Ti2Nb2O13,0.0,-3.311369470151517,mp-776497
LiCa2Ta3O10,2.169699999999999,-3.311104155333334,mp-774479
KLaHfNbO6,0.0,-3.311095605225,mp-1520833
K5La4Si4O16F,4.6591000000000005,-3.311082736708333,mp-866662
SmBrO,4.5207,-3.310946965000001,mp-29327
SrCaZrNbO6,0.0,-3.310930716,mp-1521089
NaLiBeF4,7.676499999999999,-3.310794869958949,mp-1209980
Sr10P6BrClO24,4.995999999999999,-3.310713229115646,mp-1218891
Tb2Ti2S2O5,0.7039000000000001,-3.310635647272727,mp-10960
KNaCaTh(Si2O5)4,4.908,-3.310627612457165,mp-1223475
Ba5Ta2Cl2O9,3.5204,-3.310566914703704,mp-559378
Rb2NaTiF6,0.0,-3.310553707971265,mp-15626
Dy2NbGaO7,1.8804999999999992,-3.310342327803028,mp-1225329
PrTi2O6,0.0,-3.310298883703702,mp-1044451
NaTi6O12,0.0,-3.310094555072596,mp-760359
Al4Si2H(O3F)3,5.355500000000001,-3.309963715592105,mp-1247835
Eu3B2(O2F)3,0.0,-3.309609565238096,mp-1213384
CaNdNb2O7,0.0,-3.309244456590908,mp-1227105
KU11(GeO19)2,0.2987,-3.30906768312019,mp-1225115
Rb2BeF4,6.6773,-3.309062653214286,mp-3009
Nd13Mg2Si4B8O43,0.0,-3.3090221571547622,mp-1196647
Ba3Er(BO3)3,3.859899999999999,-3.308998504635416,mp-1214885
SrEuHf4O12,0.0,-3.3089312825,mp-1522408
Ce2SiSeO4,0.0,-3.308823604355468,mp-542664
Cs2KTiF6,0.0,-3.308803861989368,mp-6178
NdSmTi4O12,0.0,-3.308639339212964,mp-1523345
RbNaCaTh(Si2O5)4,4.934799999999999,-3.308542512933728,mp-1219651
Cs2Th(Si2O5)3,4.7695,-3.308357584554598,mp-1195679
Ba2Ti3O8,0.7315,-3.308228299230768,mp-1400415
RbBF4,7.737,-3.308195844444444,mp-3032
Al11TlO17,4.590300000000001,-3.308075045114943,mp-758571
Ca19Mg2(PO4)14,5.077,-3.308045512472524,mp-1228644