formula,bg,formation_energy,mp-id
Na3Gd(CO3)3,0.0,-2.371210424946121,mp-1194955
K2TlRhF6,1.9609,-2.3711958087833342,mp-1111368
BaReO3,0.0,-2.3711194475,mp-1183298
Ca2Ge7O16,2.948,-2.3710887062,mp-29273
Ca2H2S2O9,5.7578,-2.371007305944443,mp-698074
Ca(SbO3)2,2.6942999999999993,-2.370946821111111,mp-9125
HoMg(SbO3)2,0.0,-2.370946218,mp-1049228
Sn2P2O9,2.235699999999999,-2.3708633853296712,mp-1044829
Na10Mg3Si6Sn5(SO8)6,1.4715,-2.37086290314692,mp-2713345
AlSi5(CO6)2,0.0,-2.3708335455,mp-1228558
Bi3(B3O7)2,0.018299999999999,-2.3707743584782612,mp-1191820
Na2Sc2Ga2SiS5O24,1.7215,-2.370603019960888,mp-2715743
Na3CaInSi(SO6)2,0.0658,-2.370553242373564,mp-2712755
LaMgCuO3,0.946099999999999,-2.370473005833334,mp-2227268
Na4Mg3GeP2(SO6)4,1.6682,-2.370451388196569,mp-2713173
K3TmCl6,5.0684,-2.370408176124999,mp-1211949
K3ErCl6,5.196899999999999,-2.370378161208333,mp-30197
Ag9P14(OF)28,0.026499999999999,-2.370250809303797,mp-1195618
Nb2Bi2PbO9,2.297799999999999,-2.370231299285715,mp-583454
Ca(DyS2)2,2.1664,-2.370218469821424,mp-35787
Ba4Gd(CuO3)3,0.0,-2.370190314411765,mp-1214933
ZnSnP2O7,3.498099999999999,-2.370172388571427,mp-1376498
Ba10Ce(Bi3O10)3,0.0,-2.3700704958,mp-1228865
Cs2P2H2O7,5.2113,-2.369981892776619,mp-643074
Na4In2Si2SO12,2.9013,-2.36996180188971,mp-2714596
Dy9(SbO)5,0.0,-2.369895161315787,mp-556015
Na9Ta4Zn8P9(SO8)9,2.9406,-2.3698749060453412,mp-2713892
NaLiCu(PO3)3,1.4073,-2.369731837909415,mp-775900
K2RbNdCl6,4.359500000000001,-2.36959559595,mp-1110756
CsK2PdF6,0.0,-2.369593586415517,mp-1112304
Pr4(HoS2)11,0.0,-2.369543639309058,mp-1202975
Na9NbZn5P6(SO12)3,2.6048,-2.369430830629515,mp-2712679
LaGeP(SO6)2,1.82,-2.369405778410365,mp-2713047
Bi3B7O12,0.5857,-2.369380978143939,mp-768969
NaLuCl4,5.1598,-2.369259266527777,mp-29001
Sn2P2O7,3.590299999999999,-2.369121292207792,mp-554022
Ho5S7,0.0,-2.369066010390623,mp-1102510
Gd2NCl3,0.0,-2.369061423958333,mp-28279
Ba2PbO4,1.2232,-2.369039861428569,mp-20098
KCaGdSeO6,2.0096,-2.369022943959374,mp-1521341
Gd(LuS2)3,1.0029,-2.369015291000001,mp-22563
CeB5BrO11,0.147499999999999,-2.369003883657407,mp-1198521
Ce(ErS2)3,0.0,-2.368986080499998,mp-1189064
BaLaMgZnRuO6,0.055299999999999,-2.3689518636363642,mp-2226529
Nb3Tl3O10,0.271399999999999,-2.368894323281251,mp-759378
Na2La2In2SiS5O24,0.8971999999999991,-2.368700679544222,mp-2715715
Na6Ta2Ga6Si5S7O48,2.1233,-2.368678628339314,mp-2716114
SrCu2(PO4)2,0.0,-2.3686295810027462,mp-582585
Na15Nb5Zn7Si9(SO8)9,1.158299999999999,-2.36855358220675,mp-2716495
B9Pb8O21F,3.4333,-2.368508859807691,mp-1182634
Gd2As4O11,2.5323,-2.368476725294116,mp-767404
SrAl3(PO7)2,0.0067,-2.368454261464285,mp-1179134
BaYCuBiO5,0.0,-2.368437550555557,mp-1042214
Cs3DyCl6,4.745,-2.368201967999999,mp-1206092
Cs2LiCeCl6,0.3208,-2.368185770166666,mp-1113020
Sm2ZnTe2(SO7)2,4.0068,-2.368156016111111,mp-1190396
NaSrTbBiO6,0.0,-2.368149300804597,mp-1517259
NaHoCl4,4.8172,-2.368066645833333,mp-1209968
Ba2Y2Zn8O13,1.6886,-2.3680574742,mp-1228317
Ba10Li2Bi4O21,0.0,-2.368056011801802,mp-774832
Na3CaZnP(SO6)2,3.9527,-2.367961073439039,mp-2714561
TaZnBiO5,3.6178,-2.367767072479168,mp-1043680
Rb2Cu3P4(O3F)4,0.526799999999999,-2.3677273721428582,mp-1196467
NaNp(HO2)2,0.5518999999999991,-2.367697762203664,mp-1210355
Ba2ZnTeO6,0.444399999999999,-2.367489561666666,mp-1078410
K3NaP4(H2O7)2,5.2931,-2.367443954103874,mp-1224179
Na3ScSi3Ge3(SO8)3,1.939099999999999,-2.367257893873098,mp-2716574
Na10Mg8SiS11O48,4.2443,-2.367243614268715,mp-2713287
Na6Nb4Zn4Si5S7O48,1.1241,-2.367169006271745,mp-2715976
K3HoCl6,5.0202,-2.367143121625,mp-1211924
DySBr,2.8776,-2.367139953055552,mp-28928
BaYBr5,3.8373,-2.367110133214285,mp-778355
CaNbO2,0.0,-2.367053096249999,mp-1213992
Cs3YCl6,4.7509999999999994,-2.367006964249998,mp-1112341
Ba5MgBi3O11,0.0,-2.366920361,mp-2232039
HfHgO3,0.0,-2.3668584595,mp-1016841
Pr4(TmS2)11,0.0,-2.3668164617511382,mp-1203583
CdAs2HF13,4.0501,-2.36674013742647,mp-24302
Sm2S3,0.7441,-2.366729565,mp-1403
K3DyCl6,5.0577,-2.366597296374999,mp-1211897
Na6HfMg7(SO4)12,4.2652,-2.366559534683908,mp-2715166
CaEu2(CuO3)2,0.0,-2.366486377272728,mp-561024
Li3ZnPCO7,4.5649999999999995,-2.366443226510988,mp-772753
KSrPrSeO6,1.9789,-2.366415967126042,mp-1517350
Na6Mg16Ta8Si3(S11O48)3,0.4939,-2.366409971306869,mp-2714208
Sr4Se3S,2.241799999999999,-2.366406394999998,mp-1218389
Ba3LiOs2O9,0.0,-2.366355247888888,mp-542207
Er2S3,1.4691,-2.366189440687499,mp-2234
K3YCl6,5.0148,-2.366165276125,mp-1211952
Ce4(HoS2)11,0.0,-2.366135131882512,mp-1197418
NaTaSi3Sn3(SO8)3,1.4913999999999992,-2.366105873129885,mp-2714015
Ce4(ErS2)11,0.0,-2.366090722567565,mp-1213853
La4Mg(Cu2O5)2,0.0,-2.366083872894737,mp-2231500
K2Na2MgTi2O6,0.0,-2.365899746071176,mp-2218980
Ba2CuBrO2,2.307299999999999,-2.365879127499999,mp-552934
CsScAsO4F,2.3069,-2.365861866206897,mp-699401
KPr(SnO3)2,1.1534,-2.365792589891666,mp-1517594
Na2SiSnCO7,3.2969,-2.3657774873132182,mp-771774
Na2NbAgF6,0.0,-2.365670392166666,mp-1111091
Na5ZrZn3P3(SO8)3,3.1391,-2.365544133076713,mp-2714816
Sr2RhO4,0.0,-2.365510500357143,mp-757102
NaB5(H2O5)2,5.7346,-2.365504776235631,mp-721294
BaZnO2,2.2724,-2.3654240366666652,mp-4236
CsRb2ScCl6,4.083,-2.365392163965517,mp-1111707
Na6Ca2Si3Ge2(SO8)3,0.0,-2.36538454560273,mp-2716270
Pr2S3,0.7775000000000001,-2.365342227854165,mp-15179
Ba6Al2Rh4O15,0.0,-2.365290217222222,mp-1228417
TaHg3F6,0.0,-2.3652127719833342,mp-1207124
Sr2IrO4,0.0,-2.3651623007142852,mp-4998
TiSiSn(SO6)2,2.2136,-2.365084667352942,mp-2713338
CaZn(GeO3)2,2.4804,-2.3650328105,mp-12326
Eu(GdS2)2,0.241299999999999,-2.36498819875,mp-675143
Na6Mg2Si3Ge2(SO8)3,0.476,-2.3649369344360642,mp-2716146
Na10Mg2Si7Ge6S5O48,1.4089,-2.364917320914015,mp-2716087
Ce4(YS2)11,0.0,-2.364878609645246,mp-1199263
Nd4(ErS2)11,0.0,-2.3648608081699622,mp-1200469
Na3SiBiBO7,0.0,-2.36469199102343,mp-772711
AgPF6,3.2361,-2.364613824122023,mp-34418
NaLi2RhF6,1.9166,-2.364253213804597,mp-1111095
La4As2(S2O)3,1.912199999999999,-2.364171023,mp-1223194
Pr2NCl3,3.3939,-2.364161084930555,mp-28969
Nb16Tl16O53,0.0,-2.364159269509805,mp-863389
Na4Y2Zn2SiS5O24,3.4547,-2.3641241273601032,mp-2713447
NaNb2Bi2O9,0.0,-2.364019494027095,mp-1210214
Na2Sc2In2SiS5O24,1.9051,-2.363942527414592,mp-2714603
Pr4(ErS2)11,0.0,-2.363774924791629,mp-1196484
KSn4(PO4)3,3.764299999999999,-2.363744438558928,mp-6755
Ca2NbO6F,0.0,-2.3637042525,mp-1227502
Pr2ThS5,1.3807,-2.3636624093619822,mp-1202577
EuSi2(NO)2,0.5023,-2.363591008571429,mp-560341
NaLa2In2PS5O24,1.5582,-2.363581924576824,mp-2714133
NaHf2Zn2PS5O24,3.9809,-2.363568159624443,mp-2714197
Ba2Na2U(S2O)2,1.245299999999999,-2.36342373752351,mp-1102325
Y2Si3N4O3,3.024599999999999,-2.363416295416667,mp-6941
La3SiN3O2,1.6782,-2.363251942222222,mp-1223119
Na3La2Zn2PS5O24,4.0585,-2.363248830169751,mp-2713243
Rb2BiAuF6,1.3242999999999991,-2.3630892465,mp-1111403
Ba5Os3ClO15,0.6088,-2.363071434166666,mp-554501
Nd4(TmS2)11,0.0,-2.363052010377232,mp-1204447
Na10NbGa7Si6(SO8)6,2.1814,-2.362955612666151,mp-2713490
Mg2Sn3O8,1.9433999999999991,-2.362877446923077,mp-1042442
MgSiO4,0.0,-2.362847695833333,mp-1221972
Na3CaGaSi(SO6)2,1.761299999999999,-2.36281853116523,mp-2712580
KLaInSbO6,1.148399999999999,-2.362764016891667,mp-1516589
Li2P2H2O7,5.3519,-2.362636286291209,mp-733849
Ba4Ca(BiO4)3,0.0,-2.3625668665,mp-1147549
MgTi3(BiO3)4,0.0,-2.3625265837500002,mp-2230142
KCaPHO4,2.341,-2.362274454142857,mp-1211637
LaPdO3,0.0,-2.362232830999998,mp-16415
YGeP(SO6)2,1.5324,-2.3622271763515412,mp-2712830
La2Mg(CuO3)2,0.1471,-2.362037259545454,mp-2226421
Cs2TlAgF6,0.805299999999999,-2.362001250431035,mp-1113150
Ca(SmS2)2,2.2597,-2.361943987857144,mp-36100
K2RbPrCl6,4.349600000000001,-2.3619077303666662,mp-1110755
Sr(SmS2)2,2.2933,-2.361881084285712,mp-34508
Cs2SbAuF6,0.8002,-2.361835531931034,mp-1113146
Na3Mg2Ge2P3(SO8)3,2.683799999999999,-2.361791204069365,mp-2713737
KLiMg6O7,2.1585,-2.3617847677055552,mp-1031307
Rb2Na2Sb2O3F10,0.5428000000000001,-2.361777769092559,mp-732348
Sn2P3O10,0.0447,-2.361728837595238,mp-26944
Na2La2Ga2SiS5O24,1.5553,-2.3616773309794072,mp-2715577
Li2Bi2P2O9,3.5955999999999992,-2.36157962473016,mp-759784
Na14Mg4In4Si5S7O48,2.3865,-2.361530301078989,mp-2715918
Sr2InOsO6,0.472199999999999,-2.361496278666666,mp-1105283
Tb11S16,0.0,-2.3614440893518562,mp-530036
CaEuMgBiO6,0.0,-2.361361428000001,mp-1516567
TiGaP(SO6)2,2.355699999999999,-2.361329776106443,mp-2713054
Na2TiZn2GeO7,3.0984,-2.361211955083996,mp-14065
Na2Si2SnGeSO12,2.5301,-2.361020088259227,mp-2712707
Ga4P4O17,0.230199999999999,-2.360884246409523,mp-647209
Tm5S7,0.0,-2.36077898674479,mp-1216618
Na2La4Si3Sn4(S3O16)3,0.0,-2.360692834479886,mp-2716286
BaErAl3SiN4O3,2.611899999999999,-2.3606875869230772,mp-1214427
Sb2TeSeF10,1.5474,-2.360622376268601,mp-557635
Na18Ta4Zn8Si9(SO8)9,1.121299999999999,-2.360603148680509,mp-2716254
NaY2Ga2PS5O24,1.601499999999999,-2.3604562029101572,mp-2714291
NdBi2BrO4,1.219899999999999,-2.3604428240625,mp-553242
Ti(Sn2O5)2,1.6151,-2.360442101555556,mp-766391
Li5BO4,5.5644,-2.360440230708332,mp-768960
Na7CaIn3Si3(SO8)3,2.4413,-2.360389668670452,mp-2714260
Na6ZnSi4Sn3(SO12)2,1.7369999999999992,-2.360369599956897,mp-2714536
Na3GaP2H2O9,3.9887,-2.360196787848449,mp-733844
K2LiAuF6,0.449899999999999,-2.360179859783333,mp-1111111
Ba2Ti3Tl2Zn2O10,0.0,-2.360177174561404,mp-1046267
Sr3Ru2O7,0.0,-2.360164598750026,mp-559909
Ho2MgCuO4,0.0,-2.360107213124998,mp-2223095
Nd2ThS5,1.405199999999999,-2.360075100195313,mp-1198956
TaSnO3,0.0,-2.360063697466667,mp-8074
BiP3(PbO4)3,3.6994,-2.36002907836466,mp-1227709
Ta2TeO8,0.170399999999999,-2.359907766030302,mp-1046049
CsRuF6,1.235199999999999,-2.359593356875001,mp-8015
Na4NbIn3Si3(SO8)3,2.0736,-2.359584886175892,mp-2713597
Gd2ZnTe2(SO7)2,0.3121,-2.35949664563492,mp-1190458
NaMg6BO7,2.643199999999999,-2.359484913703064,mp-1030690
Na6Mg7Zr(SO4)12,3.3941,-2.359413914548772,mp-2715012
Rb3NaTiO4,3.2914,-2.359386815245849,mp-560476
NaLa2Ga2PS5O24,1.81,-2.35933064681492,mp-2714193
Sr2(BO2)11,0.0,-2.3593295157380942,mp-1198355
Na2CaSi10(H3O10)2,1.461399999999999,-2.359167410647657,mp-1210899
MgSb2P2O9,2.146499999999999,-2.359102545306123,mp-1044790
Li7ZrO6,0.0,-2.35906106452381,mp-937761
Sr(LaSe2)2,1.9718,-2.358940671607143,mp-33569
Na2CaGaP(SO6)2,2.1123,-2.3588841067492012,mp-2713124
EuNbZnBiO6,0.0,-2.3588720485,mp-1518228
AgSbF6,1.7739,-2.358844439270832,mp-3414
BaNaNdSeO6,1.8960999999999992,-2.358840957122306,mp-1520207
Cs2PtF6,2.6933,-2.358812694444446,mp-8191
CsTiO3,0.0,-2.358746077597701,mp-1183977
Li3ZrNb(TeO6)2,2.0336,-2.358603034385964,mp-754249
RbAsOF5,0.150799999999999,-2.35851352109375,mp-728313
MgSi(HO2)2,5.1541999999999994,-2.3584411196875,mp-1078877
CaZnSiO5,0.1781,-2.35835736875,mp-1105632
Rb2LiAuF6,0.4775,-2.358340762833333,mp-1113735
CsUPNO9,0.137799999999999,-2.358340108022926,mp-1194222
La3Br6N,3.139,-2.358272191625,mp-29197
Na4Sc2Zn2SiS5O24,3.7321,-2.358229964202208,mp-2713134
TiNb2Zn(PbO3)4,0.6086,-2.358109784666665,mp-684723
Ba3In2P6(HO3)6,4.711600000000001,-2.357999221105442,mp-1195167
NaScAs2O7,3.46,-2.357954287852664,mp-550925
Sm4Cl6O,0.0,-2.357926266363637,mp-28544
LiSi2(BiO3)3,3.1438,-2.357909829222223,mp-757781
Er5S7,0.0,-2.357647704696182,mp-1095508
Cs3H(SF6)2,4.4739,-2.357546413345306,mp-1226414
Na6Ca6SiSn2S11O48,0.966,-2.3575355636140882,mp-2713261
K2LiP3HO9,3.5018,-2.357456634250744,mp-1212200
Na2PHO4,4.7491,-2.357434544518935,mp-703305
NdSBr,2.6382,-2.357365391666667,mp-27180
EuSe,0.0,-2.357297482031249,mp-21009
Cs2Na6Al6Ge7O30,0.2764,-2.357296041423259,mp-1226410
Na2TiTeO6,2.4574,-2.357281466275862,mp-1221267
Na3Nd(AsO4)2,3.6022,-2.357277478420566,mp-1210809
U(SO4)2,0.145099999999999,-2.357250554999999,mp-1200785
P4O9,5.5902,-2.357238610274727,mp-541846
BaTeO3,2.7149,-2.357057434333336,mp-5431
Na2Ti4Ga4Si3(S3O16)3,1.283599999999999,-2.356941836194172,mp-2716463
Na4La2Zn2SiS5O24,3.4682999999999993,-2.356934148851332,mp-2713369
Ge3F8,4.2902000000000005,-2.356915264090908,mp-1190647
Na2InGaP2SO12,3.3295999999999992,-2.356829773002334,mp-2713286
MgReO4,0.1714,-2.35677928625,mp-1176493
YP(H2O3)2,5.7542,-2.3567484228869042,mp-1190484
Ca4Nb2(SO4)9,2.3518,-2.356629947107843,mp-2713764
CsBiF6,2.8234,-2.356596623125002,mp-27422
Na2LiCuP2O7,2.3243,-2.356556328490589,mp-1176382
Na3B3H2O7,4.7335,-2.356551098275861,mp-720583
Rb2ZrCl6,3.5620000000000003,-2.356486154999998,mp-27831
KCuF3,0.0,-2.35644909645,mp-669347
Li4Be3As3ClO12,4.4494,-2.356381743731884,mp-560072
LuSBr,2.9943,-2.356195756388887,mp-27246
KGe2BO6,3.498,-2.3561772501416662,mp-556463
LiSb3(P3O10)2,2.866499999999999,-2.356143440373015,mp-762248
NbIO2,1.0412,-2.356103289375,mp-557685
Tb4CeS7,0.0,-2.35605315545642,mp-1217639
ScH4NF4,6.0073,-2.35604100375,mp-1196584
Ba7Ru4Br2O15,0.0,-2.356020487678571,mp-556877
Sr3CdIrO6,0.0,-2.3557943700000012,mp-15269
Na3AlSi3Sn3(SO8)3,2.1767,-2.355783603647872,mp-2714779
Sc2Pt2O7,1.7836999999999992,-2.355756619090907,mp-778152
TaInSi(SO6)2,0.9441,-2.355725031607844,mp-2713531
Al3Si3(PbO8)2,0.2652,-2.355660196041666,mp-1229197
Sr2LiTa2(NO2)2,0.0,-2.3556200643636362,mp-1235451
NaNb2Zn2P3(SO8)3,1.3854,-2.355414388318321,mp-2716428
NaSn2Ge2P5SO24,2.5514,-2.355412780631246,mp-2716157
Na3YSi3Ge3(SO8)3,1.5178,-2.3553609725667912,mp-2714699
Ba4Sm(CuO3)3,0.0,-2.3553576002941172,mp-1214478
NaSc2Ga2PS5O24,2.3243,-2.355332227862539,mp-2714188
KZnP2O7,0.0,-2.355246673321428,mp-773901
LaCuSO,1.668499999999999,-2.355128379375,mp-6088
NaTi2(AsO4)3,2.378,-2.355089988641444,mp-1200852
CsReO4,4.2585,-2.3550851495258622,mp-17621
Nb4Tl4O13,0.0,-2.355071489444447,mp-753384
SbPO4,4.002099999999999,-2.355047281607143,mp-3439
NaZn2P2HO8,3.978,-2.354977655136786,mp-24001
Na3Sc2Zn2PS5O24,3.9657,-2.3549055163859682,mp-2713709
K2Nd2Mg(SO4)4,1.560099999999999,-2.35478895938,mp-1233514
NaHoBO5,0.0,-2.354720850693247,mp-1188943
SrIn2O4,1.807999999999999,-2.354714595476186,mp-540688
Sr2AlGaSn2O7,1.6077,-2.354686673653845,mp-1048033
Sr2YCu2SbO7,0.0,-2.354595901923077,mp-1046275
NaSiO3,0.0,-2.354524145275862,mp-1186167
KNd(SnO3)2,1.1914999999999991,-2.354517174475,mp-1519724
Na4Zr2Ge5O17,0.0,-2.354513604482758,mp-728013
RbReO4,3.7933,-2.3544667574999942,mp-4035
NpCl3,0.047299999999999,-2.3544468428125,mp-23278
BaGe4O9,3.0551,-2.3543098241666662,mp-3848
CaNd4(RhO3)4,0.0,-2.354241001904758,mp-1233484
BiSb3(PO4)6,2.2741,-2.354205033981092,mp-1237522
NaSc2In2PS5O24,3.0214,-2.354199360481586,mp-2714295
K2RbCeCl6,0.3325,-2.354184809199999,mp-1110758
PrSBr,2.842399999999999,-2.354078836388888,mp-1209293
Lu2S3,2.5664,-2.354043240354164,mp-2826
NdP2(HO2)3,6.028799999999999,-2.354012424002977,mp-1220628
Ca2Al4Si8O33,0.015,-2.353888055212765,mp-1200127
KCaSmSeO6,2.066599999999999,-2.353657891459375,mp-1523349
Sr2Bi2O5,2.4829,-2.353507547222223,mp-760510
Na2LiPdF6,0.0,-2.353466008083337,mp-1114237
NaGdCl4,0.0,-2.353419613333334,mp-28156
Pr4(LuS2)11,0.0,-2.353349240929062,mp-1196820
NaCaGdSeO6,2.1974,-2.353332896372305,mp-1522999
LiSn6P7O24,2.6795,-2.353332715416665,mp-684052
Mg6SiSnO8,2.532700000000001,-2.3533284796875,mp-1031493
Zr(SO4)2,3.5654999999999992,-2.353294295681817,mp-4325
Na8TiZn3Si3(SO8)3,1.7888000000000002,-2.353260939846059,mp-2715109
CeDy4S7,0.0,-2.353163881515475,mp-1226713
Na2Ca(CO3)2,4.4361999999999995,-2.3531554546826032,mp-1194807
Ce3S4,0.0,-2.353140328749999,mp-1382
SnPO4,2.544399999999999,-2.353118185982142,mp-27018
MgBi3P3O13,2.8369999999999997,-2.353066103946429,mp-1041145
Nb4Zn2Si3(SO6)6,1.7409,-2.352888780588236,mp-2713435
BaNaTbBiO6,0.0,-2.352888353804597,mp-1522715
HoGeO3,0.0,-2.3527581809999982,mp-982558
EuReO3,0.0,-2.352689648500002,mp-976320
Na4CaZnSi(SO6)2,3.1117,-2.3526867667706632,mp-2712867
Ti3O2,0.0,-2.352613252000002,mp-978968
SrSe,2.2313,-2.35255396453125,mp-2758
Na3Pr(AsO4)2,3.5708,-2.352472942646756,mp-1210670
K2MgGeO4,3.4802,-2.3523586186875,mp-1212053
Na2YHC2O7,4.7079,-2.352346438577586,mp-1202901
KZn2CdB2O6F,2.7164,-2.352167853121795,mp-1192840
Er2(SeO3)3,3.9484999999999992,-2.352124214430804,mp-31352
B4PF9,5.7654,-2.352066383605442,mp-27426
Rb2LiYbCl6,0.0,-2.352058086916666,mp-1205808
Na18Mg20Nb4Si3(S11O48)3,0.165,-2.351908899289764,mp-2712577
Ba3SrSi8(NO)8,3.9167,-2.351899157857143,mp-1228191
Sm32O21,0.0,-2.351892463301888,mp-579102
Li3GaGeO5,3.493299999999999,-2.35187583725,mp-17685
La3S3N,1.3375,-2.35185082924107,mp-555129
BaSn(GeO3)3,2.7866,-2.35182028357143,mp-540635
Sr2GaSb2O7,0.0,-2.351724532708332,mp-1048045
RbMg6SiO8,0.7384000000000001,-2.351619353593749,mp-1030853
Sr2EuGaCu2O7,0.0,-2.351575582884615,mp-662575
SrErAl3SiN4O3,2.2302,-2.351537198076923,mp-1208635
Eu2MgCuO4,0.0,-2.351492830625002,mp-2240373
Cs3P3HO9,2.9565,-2.351487855571506,mp-1213859
YbGaCuO4,0.0,-2.351465337142857,mp-1215588
Ce4(TmS2)11,0.0,-2.351437478980747,mp-1204968
Cd4B6O13,2.4314,-2.351378954782608,mp-755260
Ba8Bi4O17,1.0307,-2.351263315000001,mp-765612
Na10Mg6Si3Sn2(S3O16)3,1.5463,-2.351069818178971,mp-2714896
Pr5Cl12,0.0,-2.350916519901959,mp-32644
Ta2H4O7,3.1332,-2.350788297282051,mp-625957
SrNd5S8,0.0,-2.350759100357137,mp-34680
NaCaAl3(SO4)6,5.048399999999999,-2.350604455610837,mp-2714747
KTmO3,0.0,-2.350256552450001,mp-1184949
Ca2La5Sb5O14,0.0,-2.350252685576923,mp-1227578
P2IrClF6,1.0451,-2.350067352928572,mp-559182
Na2GaPCO7,3.9935,-2.349986483325122,mp-768120
Na2AlInSi(SO6)2,3.0957,-2.349964715408349,mp-2713569
SmSBr,2.9463,-2.3499272525,mp-1208844
Nd4(LuS2)11,0.0,-2.349918063113726,mp-1201342
KZrGeBiO6,1.3028,-2.349916942224999,mp-1518992
Li2AgF4,0.432799999999999,-2.349864717976193,mp-761269
Ca2TeO5,0.0207,-2.349808610208334,mp-1383358
BaGePbO4,3.4303,-2.349798765714287,mp-1192417
Ca3(SiO5)2,0.0,-2.3497472803333332,mp-1194249
Eu3Sb5O12,0.0,-2.349628303500001,mp-505043
Li4B8H5O18,0.9162,-2.349419179654763,mp-1223603
Zr2Sb2Pb4O13,1.8279,-2.349344332142856,mp-1215826
NaCaAl(SO4)3,4.5174,-2.349221695493296,mp-2714044
Cs3TbCl6,4.7635000000000005,-2.349155768499997,mp-1112345
KReO4,3.6923,-2.349105578291658,mp-4757
Cs2KAuF6,0.788,-2.349037818656034,mp-1112599
Mg2Nb2SiS5O24,0.7693000000000001,-2.3489197895343152,mp-2713053
K2P2H2O7,5.2404,-2.348626270291208,mp-721217
TlInF6,2.6572,-2.348622986249999,mp-1216588
Nd2Pt2O7,1.0795,-2.348622128181817,mp-9765
Li3Si2Bi3O10,3.2757,-2.348376563888889,mp-757200
Ho(SbO3)2,0.0,-2.348375686666666,mp-1040783
K2TlRuF6,0.0,-2.348355317783333,mp-1111417
Na21S7Cl(O14F3)2,4.9055,-2.348332293938605,mp-680169
CeY4S7,0.0,-2.348279565159103,mp-1226610
BaPb2C2(O3F)2,4.0572,-2.347954051538461,mp-560874
Na2CaGe3P4(SO12)2,1.1632,-2.347898970314724,mp-2712762
Sm2ThS5,1.4955999999999992,-2.347888605,mp-1203455
KCoPO4,0.7395,-2.347787071937073,mp-557981
Ho2(SeO3)3,3.9629,-2.347713149073661,mp-769014
GdSBr,1.6455,-2.3476690700000002,mp-1212521
LaSmS2,0.0,-2.347652558750001,mp-1222697
Dy11S16,0.0,-2.347540835277778,mp-531574
CsSrBr3,4.5563,-2.347495262931036,mp-1213104
CaAs2H6F18,5.0448,-2.347487917777778,mp-758814
K3PrCl6,4.95,-2.347481628041666,mp-1212054
KAsOF5,1.1259,-2.34747574059375,mp-734367
Na3ZnGe3P5SO24,1.8842,-2.3473362558518622,mp-2715903
NaSn4(PO4)3,3.7963,-2.347269966765393,mp-6226
HfP2O9,0.010499999999999,-2.347164988898811,mp-1202004
NaTaIn3P3(SO8)3,2.7546,-2.347129560527845,mp-2716280
KAlP2H4O9,5.3913,-2.347075085678572,mp-734394
Nb3Zn2Bi3O14,2.615899999999999,-2.3470490295454542,mp-1210326
K2HgAsF6,0.0,-2.34698811145,mp-1112207
GaP3(HO5)2,5.1828,-2.346926715870537,mp-24465
K4ZrO4,2.9118,-2.34680101211111,mp-1211624
Na5Zn2Ge2P5SO24,1.6577000000000002,-2.346777952844723,mp-2715008
BaIBr,3.542299999999999,-2.346634888333334,mp-1214491
K2AgF4,0.6126,-2.346519228023809,mp-1104293
HfO3F4,1.5811,-2.346499975624999,mp-1182271
Mg3BO6,0.0,-2.346346504916666,mp-1189526
Tm8S11,0.0,-2.346297461891448,mp-18680
K2CdSiO4,2.9406,-2.346261379781249,mp-541538
Mg3B11O24,0.0,-2.346164692587719,mp-1196889
YbDyS3,0.0,-2.3461414616875,mp-1215722
Na2Si2Ge2SO12,2.7706,-2.346120835803086,mp-2712759
Nd4Mg(RhO3)4,0.2298,-2.346106132142857,mp-1233249
BP2Pb2O9,0.023499999999999,-2.346038208460883,mp-1182507
CsMg6AlO8,2.0891,-2.346000824978448,mp-1033065
Na14Hf2Zn6Si5S7O48,2.7018999999999993,-2.345999126648094,mp-2715932
Rb2TlAgF6,0.5523,-2.345675436,mp-1110598