formula,bg,formation_energy,mp-id
La2S3,1.0358,-2.508305558187499,mp-7475
ScRhO3,1.119899999999999,-2.508281684249999,mp-1196890
ReSb(OF4)2,3.7699,-2.5082371270833352,mp-558576
Na5ZnSiSn3P5O24,2.425,-2.508230445430193,mp-2715892
Li2Sn(BO3)2,3.334399999999999,-2.508107606818181,mp-759667
Na9Ca10Nb2P3(S5O24)3,1.881,-2.507998690620202,mp-2713609
Na3Ca3La(SO4)6,4.2407,-2.5079014190307563,mp-2715078
Na3SiSn2Ge2P5O24,2.9593,-2.507896149117628,mp-2712964
CaGe2O5,2.696599999999999,-2.507824764062499,mp-4279
Na6ZnSn7(PO4)12,2.529,-2.50774622084221,mp-2714729
BaLiZrBiO6,1.0751,-2.507712236333334,mp-1517265
CsZnPO4,3.9671,-2.507635770435433,mp-557693
P2O2F3,5.310499999999999,-2.507621700136053,mp-565711
Na3Ca8Ta4P3(S5O24)3,2.9548,-2.50757784485619,mp-2714223
Li4Ti2Nb3Cu3O16,0.0,-2.507517216785714,mp-752651
Cs2KPdF6,0.387,-2.507412485656034,mp-1205635
GdHSO5,2.9383,-2.507300363593749,mp-1197842
Sm7Ti4(Se2O)6,0.0,-2.507290569188218,mp-1219125
Nd14Cl32O,0.4233,-2.507225987659574,mp-669495
Nd2Ru2O7,0.0,-2.507212133181818,mp-19930
Na8Ga2Si5Sn2SO24,2.9878,-2.507057143417487,mp-2716225
KTb2Cl7,4.6587,-2.507029382624998,mp-1211526
K3IrF6,2.566799999999999,-2.506927969175,mp-1111425
TaInO3,0.0,-2.506883887799999,mp-1187260
TmTlO3,0.7359999999999991,-2.50676366316667,mp-1101279
Rb3TmCl6,5.0013,-2.5067412935,mp-1209443
K2AgBiF6,2.3982,-2.506700962616666,mp-1110851
Ba20Ga5Ru7O44,0.0,-2.50663425167763,mp-1229333
HfNF4,2.8395,-2.506539035833333,mp-723625
Ba2As2O7,3.335,-2.506528066136352,mp-1194732
LiZr2(AsO4)3,3.8841,-2.506418453657408,mp-1202818
Rb3ErCl6,4.9926,-2.506352836749998,mp-1209416
GdCl3,2.0054,-2.506313930624998,mp-23265
Na2CaSnP2SO12,1.4886,-2.506295768484789,mp-2713327
LiScF2,0.052699999999999,-2.5062855950694463,mp-1211128
CaGa4O7,2.5387,-2.5061078379166672,mp-17914
Li5CuP3O11,0.5119,-2.5059327110297622,mp-761254
RbMg6TiO8,1.075899999999999,-2.505882419427083,mp-1031226
Na2Th(AsO4)2,3.6688,-2.505807026366047,mp-1192524
KCaZrBiO6,1.2018,-2.505783981725,mp-1523209
Ba3PtF12,1.5128,-2.505721788749999,mp-1214989
Na14Nb2In6Si9(SO16)3,1.839,-2.505683971851347,mp-2714761
Ba9La5Br33,2.7735,-2.5056712455319152,mp-851112
ZrZn3F6,0.0,-2.505644094750002,mp-1205730
Rb3IrF6,2.5271,-2.50563496325,mp-1113831
NbAl3P2(SO6)4,2.4094,-2.5055930189986,mp-2712914
Ca2AlAgO5,0.0,-2.50547175962963,mp-1258227
Sr2CuClO2,2.384299999999999,-2.505375169444444,mp-561243
SrBr2,4.498,-2.505356606166666,mp-32711
Cs2RbTmCl6,5.0734,-2.505352563681035,mp-1111479
K4Ga8P8O32F,0.0,-2.505321176530998,mp-1197093
NbGaP2SO12,2.6635,-2.505275785056024,mp-2713454
Na10Sc4In4Si5S7O48,2.943699999999999,-2.505197256576408,mp-2715003
Rb3LuCl6,1.3029,-2.505183397916666,mp-1209449
Na6Ca8Ta4Si3(S5O24)3,0.8245,-2.505133332408419,mp-2714487
Cs2RbLuCl6,5.0606,-2.505049063347701,mp-1112515
Cs3PrCl6,4.8950000000000005,-2.505005014063215,mp-1213891
NaHfInSi(SO6)2,3.2497,-2.504987842946999,mp-2712693
Ba2YMgRuO6,0.0,-2.504888363181818,mp-2240594
Na2SiGe2(PO6)2,3.136,-2.50485499344093,mp-2712760
Ca3Ga3Ge3O14,0.0,-2.504783290760869,mp-1214023
Sm6Mg(Sb5O12)2,0.4072,-2.504689481341462,mp-1234711
Na3NbO4,3.768899999999999,-2.504653314579741,mp-27247
Ba2CdGe2O7,2.9166,-2.504644183749999,mp-1214739
SrEuInSbO6,0.0,-2.504636793166666,mp-1520042
Cs2RbErCl6,5.067,-2.504624538681034,mp-1112127
Na42Mg20Nb4Si15(S7O48)3,1.3007,-2.504620990794435,mp-2716042
Na2Nb5In3Si6(SO8)6,1.314,-2.50459057149179,mp-2713748
Rb2NaPdF6,0.5886,-2.50453494663793,mp-1205865
Na4InSi2GePO12,2.0972,-2.504449978182227,mp-2715717
Na3MgGaP2SO12,3.3709,-2.504445115087849,mp-2712548
Rb2LiPdF6,0.0,-2.5043782728333333,mp-1113706
Sr6Zn(RuO6)2,0.064999999999999,-2.504355141428572,mp-1218524
Na8Sc2Zn2Si3(SO8)3,2.565299999999999,-2.504339353417489,mp-2715015
Yb2C(NO)2,0.0,-2.504269704999996,mp-13041
YbMgO3,0.0,-2.50425254525,mp-972160
LiAl(GeO3)2,3.5862,-2.504243655333333,mp-1020030
Sr2TmGaCu2O7,0.0,-2.5042268959615392,mp-1208765
SmClO2,3.484999999999999,-2.50418948125,mp-733415
Rb3HoCl6,4.9849,-2.5041882822499972,mp-1209492
Na7TiZn3P5SO24,2.250499999999999,-2.504059411309825,mp-2715975
Na4ZnGa(PO4)3,3.418199999999999,-2.503955974775198,mp-2714932
Ba3Pb(SO4)4,4.6277,-2.503904742083332,mp-1228136
Pr(ReO4)2,0.0,-2.50389236060606,mp-754632
CaNbNO2,0.0,-2.503536431999999,mp-1227146
Na4La2Si3Sn2(SO8)3,0.0,-2.5035285482811562,mp-2713616
Rb3DyCl6,5.0086,-2.5035206366666642,mp-1209428
Na2CaAlP(SO6)2,3.8617,-2.503491998722885,mp-2713155
Li6Tb2O7,0.0,-2.503490972222221,mp-562387
K3Bi2(PO4)3,3.8091,-2.503434737783928,mp-560420
LiSnP2O7,1.5996,-2.503388171147185,mp-766457
Nd2Pd2O5,1.080899999999999,-2.503353626666666,mp-1209848
KMg6BO8,5.1059,-2.503348479151041,mp-1031258
Zn3B7IO13,4.292999999999999,-2.503299783611112,mp-1207531
Na4CaSi2SnSO12,1.2406,-2.503273818556377,mp-2714382
Cs2HgBiF6,0.0,-2.503262835181035,mp-1113179
Na7ZnIn3(PO4)6,3.3449,-2.503220007825504,mp-2714301
KSnPO5,3.0231,-2.503160578205357,mp-541459
KAlCl2O,4.278799999999999,-2.50311299345,mp-1223704
Sr4Ca(SO4)4,0.3616,-2.5030519216,mp-1233446
Rb3TbCl6,4.9841999999999995,-2.503051173916665,mp-1209455
Ba3SmIr2O9,0.0,-2.502996392666668,mp-1205402
TaCuO3,1.5612,-2.502865663466667,mp-756050
Na10La4In4Si5S7O48,2.6951,-2.502786986191792,mp-2715011
Na6Y4Si5Sn4S7O48,1.102499999999999,-2.502701627893369,mp-2715838
LiTi3Nb(CuO4)3,0.0,-2.502685172166666,mp-849772
NaZr2(AsO4)3,3.7453,-2.502631145771073,mp-553912
Zn(PO3)2,4.6635,-2.502442132420636,mp-8230
KSm2Cl7,4.5743,-2.502349305125,mp-1211516
CaTiAs2O7,2.7133000000000003,-2.50232282030303,mp-1042508
CsMg6BO7,1.5829,-2.502292993588122,mp-1098281
BaCuPClO4,0.464999999999999,-2.502249712142857,mp-556604
SrGa4O7,2.434599999999999,-2.502236169583332,mp-18253
SnPO3F,3.6834,-2.502231003273809,mp-555838
MgTaP(SO6)2,2.7353,-2.5022214169789923,mp-2712926
AlP3O10,0.0,-2.502148061887756,mp-1203148
Sm2Mg(BiO4)2,0.7532000000000001,-2.502059086538461,mp-2224811
Na2Nd2PtO6,2.1448,-2.5020311702507843,mp-1221329
Ba3In2O6,0.598399999999999,-2.501897394848485,mp-20352
CaMg3(CO3)4,4.815300000000001,-2.5017533032499992,mp-6524
Na3B5(HO5)2,4.6581,-2.5017497147485632,mp-722369
LiPPbO4,3.6252,-2.501715246139455,mp-22694
Sr2ErGaCu2O7,0.0,-2.501707244807692,mp-541324
K2SnOF6,0.8873000000000001,-2.5016708607,mp-726643
LiSn(PO3)4,0.0,-2.5015613258002642,mp-25907
BaSbClO2,2.881,-2.501479447,mp-545500
Na6Mg3TiSi2(SO6)4,1.0137,-2.501461233581897,mp-2712530
NaLaTa2O9,0.0627,-2.501450374311229,mp-1220849
Cs5Si3AgO9,2.821499999999999,-2.501421636385697,mp-554842
NaMgAl5P4(H5O12)2,5.45,-2.50139737205446,mp-1210892
EuIO,0.0,-2.501281970000001,mp-600622
Na2GaGe(PO4)3,2.5752,-2.501270640834414,mp-2713255
PrMg(SnO3)2,0.0,-2.5012179391666662,mp-1044480
TiGeP2SO12,2.6428000000000003,-2.501183553536415,mp-2713175
Cs2KSmCl6,5.0573,-2.5011330661560343,mp-1079871
La3MgTi2N3O4,0.0,-2.5010933578205132,mp-2226952
Na6Sc4Si5Sn4S7O48,1.6603,-2.501082584830305,mp-2716035
KTeOF3,4.2547,-2.501048959819444,mp-559932
LiSn2(PO3)5,4.0844,-2.501042855719462,mp-26949
Na3Bi(PO4)2,4.2446,-2.50099527015526,mp-561083
Cs2RbDyCl6,5.059200000000001,-2.500930817847701,mp-1112130
NdClO2,3.468899999999999,-2.500910308124999,mp-1206067
Mg14BiCO16,1.689099999999999,-2.50090911921875,mp-1033751
Cs2Al2As2O7,3.662199999999999,-2.500848698408488,mp-554206
KDy2Cl7,4.6729,-2.500771986624999,mp-540942
MgTa4(AsO5)4,2.8470999999999993,-2.5006820342873572,mp-1234994
CsZn2B3O7,3.5131,-2.500648523499116,mp-1195000
KSrNbBiO6,0.0,-2.500636406475,mp-1517672
SrCaPbO4,1.897599999999999,-2.500598109285714,mp-1218368
Na14Ca2Si9Sn6(SO16)3,1.6790999999999991,-2.500586369778175,mp-2714635
Na8Y2Zn2Si3(SO8)3,2.7255000000000003,-2.500586000163519,mp-2715185
AlBiO3,2.977899999999999,-2.5005107850000012,mp-551918
Na6Nb8Zn4Si9(SO8)9,1.0029,-2.50049955931274,mp-2713843
NaTi3Nb(CuO4)3,0.0,-2.500493812568964,mp-1220892
Ce7Ti4(Se2O)6,0.0,-2.500462030395114,mp-1227542
Cs2NaTmCl6,5.4487,-2.500336801068966,mp-1112567
K2InAsF6,1.9966,-2.500278300866667,mp-1112186
Sm4(GeO5)3,0.0,-2.500265217045455,mp-1199094
UCd2O5,2.0853,-2.500243828124999,mp-1006058
NaCe(CO3)2,0.283999999999999,-2.50019209863793,mp-1210295
EuSbO4,0.0,-2.500180786666666,mp-510637
TmSeClO3,4.336799999999999,-2.500065102890626,mp-558516
CsEuCl3,0.0,-2.5000581545000022,mp-1213256
Na6La4Si5Sn4S7O48,1.5807,-2.500055982758232,mp-2716094
Cs2NaErCl6,5.3424,-2.500041670068965,mp-580589
Cs2CuF4,0.0,-2.500000421428573,mp-1025265
Rb3YCl6,5.0164,-2.499949001999998,mp-574571
Na4Y2Si3Ge2(SO8)3,0.6833,-2.499943219860103,mp-2713594
CeMg6BO8,0.5121,-2.499831871197916,mp-1031104
TlSbF4,3.864099999999999,-2.499807136388887,mp-29286
LuSeClO3,4.336399999999999,-2.499800050251736,mp-23096
Cs2RbTbCl6,4.923299999999999,-2.499792286347701,mp-1112115
Li6Cu(B2O5)2,1.0877,-2.499590466031746,mp-1191302
NaSr3BiO6,1.7087999999999992,-2.49956531830721,mp-555812
Y2Ir2O7,0.0,-2.499477690909091,mp-1191749
NaAlGeP2SO12,2.7243,-2.499443249435094,mp-2712618
SrU(SeO4)2,1.981399999999999,-2.499418134140624,mp-556481
TaHg2F6,0.0,-2.499335781833394,mp-675545
YSeO3,1.836899999999999,-2.499224003468748,mp-769404
Cs2NaLuCl6,5.494,-2.499181396735632,mp-1111824
Na6La4Mg4SiS11O48,4.3642,-2.499141386181656,mp-2712635
Na4Al3Ge3O13,0.9989,-2.499076439805098,mp-1221239
Sr2TlCl5,4.29,-2.499066477291666,mp-1208784
NaCaAsO4,3.5934,-2.498950798411329,mp-1193109
Rb3PdF5,2.3374,-2.498825820277778,mp-8201
Na6Mg5TaP3(SO6)6,2.973,-2.4987819663076802,mp-2713144
Sr2HoGaCu2O7,0.0,-2.498758068653845,mp-541325
Na6MgGe7(PO4)12,2.5522,-2.498710187351218,mp-2714897
Na6Mg4Sc4SiS11O48,3.8857,-2.498674078974449,mp-2713233
CaMg2(SO4)3,5.8318,-2.498601529166665,mp-1229186
Na6Si5Sn4SO24,2.7138,-2.4986011155610632,mp-2713875
Li15Zr7(Cu3O14)2,0.0533,-2.498599381785713,mp-774800
Li2SbP3O10,3.857199999999999,-2.4985453903497032,mp-759117
CsLi5(BO3)2,3.6328,-2.498521899618226,mp-555082
Mg2TaCuO6,0.0,-2.498479761233334,mp-1344257
CeSCl,0.1365,-2.498470744687502,mp-1213844
Na4Ti2In2Si3(SO8)3,1.3376,-2.4982426917022083,mp-2713697
Na13Ca7S12(O16F)3,5.244499999999999,-2.498197758107603,mp-532575
KLi4NbO5,3.7769999999999992,-2.4980947432348493,mp-556902
Na2P3HO9,5.2321,-2.498068406195813,mp-1193174
U4Te3O4,0.0,-2.498040118181815,mp-28939
Na2Ca3Hf(SO4)6,2.5699,-2.49802789456737,mp-2714171
Na6NbGa3Si4(SO12)2,2.2371,-2.497923392727729,mp-2714331
Na5La2Zn2P3(SO8)3,3.3195,-2.497921589401499,mp-2714872
Rb2Li2SiO4,3.8516,-2.497921002962963,mp-8449
ThSiO3,0.0,-2.497889904999998,mp-1187425
Eu4C2N4F5,0.162399999999999,-2.497867247583336,mp-1204426
Ho2C(NO)2,3.9966,-2.497832707857141,mp-20374
In4(P2O7)3,3.5933,-2.4978299786943152,mp-558065
Sc13Cu13O33,0.0,-2.497786070677966,mp-686085
MgAl2P3NO12,0.0,-2.497589914943609,mp-1222249
Cs2NaHoCl6,5.2906,-2.497521565568965,mp-542951
Na4CaMgSi(SO6)2,3.450699999999999,-2.49744861923098,mp-2713045
Na6Si2O7,3.5458,-2.49717382396839,mp-1020179
Cs2NaDyCl6,4.9885,-2.497153603235632,mp-1110563
Na2Ti2Si2O11,1.1615,-2.497149226436782,mp-1198063
Sr2DyGaCu2O7,0.0,-2.497128751858973,mp-653925
Na6CaGe7(PO4)12,2.3563,-2.497110137914282,mp-2714725
RbTlF4,2.7647,-2.497109427222223,mp-27210
Ta2Te2O9,3.2261,-2.497068913692307,mp-3180
Lu2Pt2O7,1.6572999999999989,-2.497053484848487,mp-753414
LiSbP2O7,4.0469,-2.497008056601731,mp-26341
KY2Cl7,4.5404,-2.496989918624999,mp-1211540
SrBi2B2O7,2.8040000000000003,-2.496932166805556,mp-558323
TiZn2O4,2.309699999999999,-2.496834717619047,mp-542737
CsK2RuF6,1.66,-2.496697623415516,mp-1112313
Li2ZrTeO6,2.7792,-2.496664910333334,mp-6782
Ba2Cu5F14,0.0,-2.496611849761905,mp-29457
NaCa3IrO6,0.0,-2.496500891943573,mp-14563
RbNb3(TeO6)2,2.403299999999999,-2.496477532407408,mp-1201687
Cs2NaTbCl6,5.2046,-2.496447220735632,mp-568670
Rb3PO4,3.664799999999999,-2.496436364642857,mp-558170
Sr4CeY3Cu4(RuO10)2,0.0,-2.496346877941176,mp-1218787
La2MgCuO4,0.0,-2.4963455043750002,mp-2227285
Na2Zr4Si5Sn4S7O48,1.249699999999999,-2.496344086503696,mp-2716232
NaInBP2HO9,4.1928,-2.4962681560166082,mp-1198616
Li5AlO4,4.662000000000001,-2.496202980041666,mp-15960
Na2Y4Al4SiS11O48,3.0801,-2.496163671075123,mp-2714273
Cs8Na4YHo3Cl24,5.1424,-2.4960599841939652,mp-1226101
K3Sn5Cl3F10,3.2314,-2.496019303892862,mp-557665
Sr2TbGaCu2O7,0.0,-2.495934459166666,mp-541327
UPBrO6,0.0,-2.495926927738095,mp-1217208
CsLu2Cl7,4.6579999999999995,-2.4959019255833312,mp-1213268
PuB7IO14,0.0,-2.495848471539853,mp-1196747
Ba2SrSeO6,2.3123,-2.495754386234375,mp-1523293
Na15Nb4Zn8P15(SO24)3,2.1257,-2.4956997275455772,mp-2715155
KNb3(TeO6)2,2.4149000000000003,-2.495599053643518,mp-1202170
Cs2RbYCl6,4.9337,-2.495544132681034,mp-1112114
Sb9S4F39,1.7301,-2.495519182019229,mp-14673
Ba3BPO3,1.4667,-2.495422235476191,mp-9712
Na4ZnSn3(PO4)6,2.476999999999999,-2.495372527676519,mp-2713256
BaNb4Bi4PbO18,1.856199999999999,-2.495371262857144,mp-1228636
Na3(PO3)4,0.0978,-2.495329807116281,mp-734797
ErSeClO3,4.3487,-2.495219490390624,mp-23086
NdRhO3,0.6487,-2.495162424000007,mp-4582
CaB3H3O7,5.9041,-2.495121676875,mp-722262
NaAlBP2H3O10,5.7883,-2.495116093532316,mp-24646
Na10Mg6Zr2Si3(S3O16)3,1.898499999999999,-2.495008905230253,mp-2714884
Ba6Pr2Mg(Ru2O9)2,0.0,-2.494907614139786,mp-1233334
Mg3CuO4,0.0,-2.494849629374999,mp-1099249
LiGeBO4,4.526400000000001,-2.494826821071428,mp-8873
K2NaPdF6,0.5740000000000001,-2.494741916587931,mp-1205681
Ba3LaIr2O9,0.0,-2.494737784000001,mp-561089
Zr3ZnSiS5O24,2.724,-2.494666368455883,mp-2712995
AcBr3,4.103299999999999,-2.494519163125,mp-27972
Cs2LaCl5,4.097300000000001,-2.494501427812499,mp-1213724
Ba2NdMgNb(CuO4)2,0.8019000000000001,-2.494438470166666,mp-2232363
MgTi(BiO3)2,2.7861,-2.494375604833333,mp-1222010
Na2MgAlP(SO6)2,4.5534,-2.494262717056219,mp-2713389
CaU(SeO4)2,1.9467999999999992,-2.494191232890623,mp-554227
Cs2RbGdCl6,3.235699999999999,-2.4941379476810353,mp-1112516
KTlF4,2.3226,-2.494076720374996,mp-27209
Li7TaO6,4.373399999999999,-2.494037494333333,mp-28891
Ba3Y2Cu2PtO10,0.0,-2.493999057222221,mp-6829
Ti5(TeO6)3,1.034099999999999,-2.493995370064103,mp-1046138
CaPdF6,2.1062,-2.493979944999999,mp-7922
La2CuRhO6,0.0,-2.49391497,mp-1223365
K2GaAuF6,0.6779000000000001,-2.4938974002,mp-1112264
Na3MgSn3P5SO24,2.3552,-2.493849896797808,mp-2715891
CaPr(SbO3)2,0.0,-2.493793462666666,mp-1044443
Na7ZnSi3Ge3(PO8)3,2.1439999999999992,-2.493671576876027,mp-2714988
Na2Mg4Ta4Si3(S3O16)3,1.0847,-2.493657739327504,mp-2716496
RbSc(SO4)2,4.2794,-2.493636796458332,mp-1209187
Sr2YGaSn2O7,1.2202,-2.4935054605769222,mp-1048016
Na3CaAlSi(SO6)2,3.0432,-2.493458464206897,mp-2712677
KNa2Zn3(PO4)3,3.8996,-2.493450898520818,mp-14536
Cs2Lu7CCl18,0.0,-2.493433478249179,mp-569387
KCa4Si8H16O28F,4.8743,-2.4933198284870692,mp-1196532
Na12Ca10Nb2Si3(S5O24)3,1.027,-2.493282086132033,mp-2713349
Na3TlF6,3.4532,-2.49314366825,mp-1111000
KHo2Cl7,4.7006,-2.4931012241249992,mp-1211594
Na14Ca4Si7Sn4S5O48,1.5903,-2.4930830558554122,mp-2715536
Ac2S3,2.2962,-2.4930635934375,mp-32800
La2SnS3O2,1.6742,-2.493058701250001,mp-560740
Cs8Na4Y3HoCl24,5.0565,-2.493003254443965,mp-1226675
HfMg6BO8,0.176300000000001,-2.492982581822915,mp-1033138
CaU4O17,0.0,-2.492921937727271,mp-1182619
Na8Ga2Si5Ge2SO24,2.9838999999999993,-2.492914923734949,mp-2715601
KHF2,6.9658,-2.492856250874999,mp-23846
MgSnO3,2.5629,-2.492748274,mp-1176491
Na6TaIn3Si4(SO12)2,2.6773,-2.492722654848563,mp-2714402
Li6PClO5,5.2407,-2.492681378434066,mp-1104386
Ti3O8,0.0,-2.492625366363636,mp-1217105
Mg2B(PO5)2,0.044499999999999,-2.492538769563491,mp-1193704
RbPHO3F,5.3777,-2.492374763341837,mp-774810
Na4CaSi2GeSO12,1.6831,-2.492325922048441,mp-2714568
Nb2Pb2O7,0.9375999999999992,-2.492317274545454,mp-754711
Sr9Zn4(CuO7)2,1.7851,-2.492094681034483,mp-555609
Na6Mg4Nb2Si3(SO6)6,2.0242,-2.492072413917121,mp-2713682
Sr(LaS2)2,2.0278,-2.492040600892857,mp-34141
Na10Ta4Zn4Si7S5O48,1.8701,-2.491941891717433,mp-2714127
Rb2RhF6,0.0,-2.491937804999998,mp-22214
Ba3ZnSb2O9,1.968499999999999,-2.491926767000001,mp-1214487
Gd2Cu(GeO3)4,0.6917,-2.491866265789473,mp-1212638
Cs2KNdCl6,5.1287,-2.491796695406035,mp-1112753
PrB5IO11,0.0,-2.491688283888888,mp-1201381
RbGaAgF6,0.090799999999999,-2.4916727293518512,mp-1209226
Cs2NaYCl6,5.0774,-2.491634642068965,mp-23120
Ca2B3H4ClO8,5.5358,-2.49147852375,mp-1204342
Cs2NaGdCl6,3.0186,-2.491442455068965,mp-1112657
MgTiAsO5,0.0,-2.491439076354167,mp-1358652
K2CuBiF6,0.8218000000000001,-2.49143177645,mp-1110841
NdGeO3,0.0,-2.4914131235,mp-975347
Na10Ca8SiS11O48,3.9207,-2.4913022343969202,mp-2713600
Na2Ti2Si3Ge2(SO8)3,1.505799999999999,-2.491263567460887,mp-2713413
Na14Al4In4Si7S5O48,0.7892999999999991,-2.491243958009883,mp-2715548
Na6Al8Si3(S3O16)3,3.4564999999999992,-2.4912328691771513,mp-2713850
Na2Nb4Si7Ge4S5O48,1.7325,-2.491159233908457,mp-2715773
Ba4Sm(RuO4)3,0.0,-2.491040874416668,mp-1196247
NaZrGaSi(SO6)2,3.4302,-2.4908707890118142,mp-2712609
SrCa3(CuO3)2,0.0,-2.490730375833333,mp-1218400
Na2TaGa3P4(SO12)2,2.9252,-2.490543328967502,mp-2712671
SrCa3(RuO4)2,0.0,-2.490489164642856,mp-1218458
CaNbP(SO6)2,1.9082999999999992,-2.4904621584103652,mp-2712989
Na5In3Ge(PO4)6,2.1472,-2.49010719512189,mp-2716278
Ba2InReO6,0.0,-2.490053615916666,mp-1205875
K3NaSi3(GeO6)2,2.409799999999999,-2.490000563006158,mp-2716368
Tm2Pt2O7,1.4709,-2.489978588181823,mp-1101257
Mg2TcO4,0.0,-2.489957487857143,mp-34433
LaMg6BO8,3.1942,-2.489937783385416,mp-1030977
CaNb2CuBrO7,0.0,-2.489917295833333,mp-1147663
HoSeClO3,4.357200000000001,-2.489870162473957,mp-23587
Li6Bi(BO3)3,4.2046,-2.489797311052632,mp-770280
CsPHO3F,5.1985,-2.489789687935433,mp-1229133
Li3Sn2(PO3)7,4.383100000000001,-2.489689631590908,mp-757560
Na3Ca3Sc(SO4)6,3.8406,-2.489669557679404,mp-2715060
Na3MgInP2SO12,1.1781,-2.489614869962849,mp-2712790
KLi6TaO6,4.3852,-2.489586058898809,mp-9059
Na2Sc4Al4SiS11O48,3.6603,-2.489502361027505,mp-2714241
BaNb3O6,0.0,-2.489484236,mp-1205727
RbGd2Cl7,2.6207000000000003,-2.489415729124999,mp-1209362
Cs2LiErCl6,5.1941,-2.489334767264368,mp-1111446
Ba2Sb2O5,2.5904,-2.4892227763888912,mp-765493
Na10Al4Si7Sn4S5O48,2.327,-2.489025529888374,mp-2716022
Lu2(TeO3)3,3.071399999999999,-2.488984792380952,mp-1202045
Dy2C(NO)2,3.9833,-2.488949032619046,mp-13038
NaSiPCO7,5.337000000000001,-2.488922635092923,mp-1101475
Na4ZnSiSn(PO6)2,1.947899999999999,-2.488787836895379,mp-2714367
Ti3Sn7O20,1.7439,-2.488671570166666,mp-765970
Na3Mg4Nb2P3(SO6)6,2.2897,-2.488665549316046,mp-2715812
KRb2PdF6,0.5057,-2.488656168224999,mp-1205859
KPHO3F,5.4015,-2.4885612897346943,mp-758619
K2Nb2O5,0.0,-2.488490598833334,mp-1076215
Sm2Mg(CuO3)2,0.5022000000000001,-2.488481284999999,mp-2217336
Mg3Cu9(SiO3)16,0.2151,-2.488460390328947,mp-766403
La3Bi3O11,0.0,-2.488440405882353,mp-772194
NaCa2Ti2PS5O24,1.7626,-2.488363921053015,mp-2714239
La2CuIrO6,0.0,-2.488256738,mp-1211597
BaYCuSnO5,0.0,-2.488210862222223,mp-1042137
Cs6Ti2O7,3.5237,-2.488192721973179,mp-770128
Ho11Te16ClO48,2.8672,-2.488153566074559,mp-557285
Li10Si2PbO10,2.984599999999999,-2.488128431014492,mp-553950
NaSnGe(PO4)3,2.805999999999999,-2.488099622609697,mp-2713457
DySeClO3,4.366899999999999,-2.488030186501735,mp-558257
Nd2Mg(BiO4)2,0.7783000000000001,-2.488023175384615,mp-2219353
MgTi2Zn2(PO5)2,0.0,-2.487971049467787,mp-1233970
Sr2CaPr3(CuO3)4,0.0,-2.487917811590909,mp-1218853
NaZnPO4,3.8335,-2.487791209788881,mp-558237
Bi(PO3)3,4.6172,-2.4877192139560442,mp-27135
Be(BO2)4,0.0,-2.4876999487820513,mp-727023
Ca2LaGaCu2O7,0.0,-2.4876962432692302,mp-1227699
Na2ZnSiO4,3.174299999999999,-2.4876300722198272,mp-6391
KCaCl3,5.5615,-2.48754682375,mp-1211643
Cs2RbPdF6,0.5693,-2.487529963681034,mp-1206231
Th2AsNO,0.8689999999999991,-2.487483489499999,mp-1217281
BiP5O14,5.0993,-2.487481326785715,mp-1214465
Na3HfMg3PS5O24,4.185899999999999,-2.487370367331914,mp-2712528
Na4ZnIn(PO4)3,3.415899999999999,-2.48736831981488,mp-2714986
CaZn2(SiO4)2,0.2294,-2.487365968846153,mp-1193195
Cs2LiDyCl6,5.0917,-2.4873172784310342,mp-1113018
Mg6NbCdO8,0.926099999999999,-2.4872770474999992,mp-1033344
Cs2LiLuCl6,5.3389,-2.487084079931035,mp-570379
Na2Ca4Nb4Si3(S3O16)3,0.7167999999999991,-2.4870803223370292,mp-2716422
Cs2LiTbCl6,5.0434,-2.487051111931034,mp-1112669
P2PbO6,4.566599999999999,-2.487034966170636,mp-3476
HfMg6SbO8,0.5014000000000001,-2.486925190624999,mp-1033278