formula,bg,formation_energy,mp-id
KEuHf2O6,0.0,-3.4136865142249992,mp-1519430
SrEuHfNbO6,0.0,-3.4135656565,mp-1519386
La3Mg2NbO9,3.086899999999999,-3.413475927333334,mp-1223356
K2TiOF4,3.031599999999999,-3.413155031291666,mp-556623
EuAl2O4,0.099199999999999,-3.413126838214287,mp-1019732
K8Ti5P2(O4F11)2,3.11,-3.413051621810053,mp-684010
Ba3MgTa2O9,3.2733,-3.413043947644446,mp-6325
La3Lu2(GaO4)3,3.285099999999999,-3.412848452916667,mp-1212454
Na2La2Ti3O10,1.7671,-3.412753374868154,mp-6144
YTa7O19,3.15,-3.412611482271605,mp-772036
Sr3Zr2Nb2O12,2.0602,-3.4124335447368432,mp-1218510
CeBO3,0.058699999999999,-3.412399983833333,mp-20882
K2SrTi10O22,2.6409,-3.411967056509522,mp-1224160
LaBrO,3.7256,-3.411858679999999,mp-23023
Ca2Al2O5,3.5662000000000003,-3.411476938333332,mp-10444
TaAlO4,3.282,-3.411296655805555,mp-8898
Gd3InO6,3.0601,-3.4112711201666652,mp-756715
Lu2GeO5,4.0765,-3.411126894166666,mp-768388
Ba6Li2Ta9Ti7O42,0.0,-3.410324074939395,mp-773118
Cs3PrF6,5.5517,-3.410153749166667,mp-1206084
Sr4NdNb2Al3O15,2.5131,-3.410130186900001,mp-677283
UTa2O7,0.150199999999999,-3.410023664966665,mp-675679
K3TaF8,3.8497,-3.40984638867361,mp-866663
NaLaScNbO6,2.9137999999999993,-3.409739154137931,mp-1220822
BaHf(BO3)2,4.7103,-3.4097011748333332,mp-1105495
Ca6Al7O16,0.0,-3.40961760413793,mp-721592
La3Ti5Al15O37,1.4069,-3.409431416027777,mp-555471
Lu2Nb2O7,0.0,-3.4094140421212122,mp-756724
Y3NF10,0.0,-3.409341324285715,mp-725512
SrLiTa2O6F,3.7399,-3.409202335272727,mp-39387
Eu2Ti2O7,0.0,-3.4091789260606062,mp-505801
NaCa4TaTi4(SiO5)5,2.8068,-3.40915579367615,mp-694049
Tb2SiSeO4,2.5839,-3.4091315291471362,mp-17913
Ba6Tb2Al4O15,3.9253,-3.408807617530864,mp-1214513
Mg3Si(O2F)2,5.1736,-3.408786739499999,mp-558458
Sc2SO2,2.0102,-3.4087673845,mp-7288
K4Hf5O12,3.273999999999999,-3.408737117571421,mp-974482
Tm2Nb2O7,0.0,-3.408607786818182,mp-756751
LuTa7O19,3.187999999999999,-3.408566041222223,mp-780049
Ti4O7,0.0,-3.408518691212121,mp-12205
Tm2GeO5,3.6166,-3.408265423750012,mp-770379
CaNd2Ti2ZnO9,2.4692,-3.408205343444444,mp-677231
PrMgTi2O6,0.0,-3.408052724333333,mp-1044092
LaAl12O19,0.0,-3.407997023124999,mp-765688
CaZnF4,5.1236,-3.407937449166665,mp-5104
Cs2NaAlF6,6.697,-3.407736822568965,mp-6528
Ca4MgAl2Si3O14,4.308999999999999,-3.407465906458332,mp-1227598
Sr2DyNbO6,2.8969,-3.407399090166666,mp-1517204
CsLa3O5,3.4872,-3.407227824128353,mp-771235
K3UO2F5,2.713899999999999,-3.407082027431817,mp-6785
La4Ga2O9,4.0623,-3.406997886833335,mp-769915
La9Lu11(GaO4)12,3.2578,-3.406927461854167,mp-1224763
Ba3Ti2O7,2.2712,-3.406048300972221,mp-770118
Li2SiF6,8.0844,-3.406037659629626,mp-1193269
TbEu2NbO6,0.0659,-3.406000175416667,mp-1519884
MgTi5O10,0.0,-3.405739620104166,mp-766437
NaNdTi2O6,2.14,-3.405671969554598,mp-1220984
LaB2O4F,4.9384,-3.405545940572916,mp-1198007
La8Te3SeO8,2.066199999999999,-3.405450820617188,mp-1223117
Dy2SiSeO4,2.5743,-3.405426772897135,mp-18219
CaSmMgNbO6,3.582,-3.405386239,mp-1227140
KBa7Al15Si17O64,4.1533,-3.405372870838942,mp-706815
KBeF3,7.061299999999999,-3.40532521745,mp-1211678
Na5Ca7Zr2Ti2Si8(O5F)6,0.003999999999999,-3.405169280726054,mp-1211060
CeClO,0.0,-3.405125033333334,mp-22952
Na7Sr6Nd7Ti20O60,0.0,-3.4049976626882192,mp-1173858
U2Ta6O19,0.0,-3.40484282385185,mp-16002
NaLaZrTiO6,2.2686,-3.404611897971264,mp-1521929
TaF5,5.5366,-3.404466658305554,mp-561197
Ba3SrTa2O9,4.0225,-3.4044608436444452,mp-540950
Ba6Y2Al4O15,3.9211,-3.404397987962963,mp-1214519
CsBeF3,6.644299999999999,-3.404085375431035,mp-12262
BaSiO3,4.6708,-3.404013206000001,mp-776084
Sr4Ti3Nb2O15,1.6529,-3.403740778125,mp-1218495
Ca12Al11Si3Cl5O32,4.3301,-3.403650273492063,mp-720971
CsNd2Ti2NbO10,1.5761999999999992,-3.403617111957615,mp-1228954
Er2SiSeO4,2.5586,-3.403370888730469,mp-17633
La2Ti2ZnO8,2.2095,-3.403120878205129,mp-1223056
Li2TbF6,0.0,-3.403096589814816,mp-1196923
SrLaEuNbO6,0.237499999999999,-3.402899652,mp-1519994
CaSnF6,5.418,-3.402839576875,mp-4782
LiYSiO4,5.274999999999999,-3.402774547261903,mp-558941
CsPr2Ti2NbO10,1.5705,-3.402494333728448,mp-1228959
Lu5(ReO6)2,0.023799999999999,-3.402487577280703,mp-1210574
Na3AlF6,6.7197000000000005,-3.4024626925,mp-3416
Ho2SiSeO4,2.5613,-3.401765284042968,mp-18584
K2RbCeF6,0.0,-3.4017468592,mp-1110674
Ba2PuTiO6,0.233399999999999,-3.401734061208331,mp-1206179
BaGeF6,5.6043,-3.401715624375,mp-14006
Zr7N2O11,3.1524,-3.40162491475,mp-675751
CaPr2Ti2ZnO9,2.505,-3.401542441500001,mp-686602
BaU11(GeO19)2,1.6020999999999992,-3.401486729230767,mp-1182767
NdSiBO5,5.213100000000001,-3.401257328541667,mp-1220077
LaTi2O6,0.0,-3.401140582407408,mp-1222717
Sr2LaTaO6,3.5116,-3.401131761233332,mp-1205692
BaCaGdNbO6,2.824299999999999,-3.4009097602500002,mp-1517031
BaMgSnF7,0.0,-3.400744739,mp-1041291
Pr7O12,0.0,-3.400514501140351,mp-22671
KSr6Sc(SiO4)4,4.2940000000000005,-3.4004144048125,mp-1211967
Sr20P12Cl(O16F)3,5.164,-3.40035958417517,mp-720255
Er2Nb2O7,0.0,-3.400324842272726,mp-756393
U4BiO10,0.0,-3.400297745333332,mp-753853
Cs2Np2PO4F7,0.078199999999999,-3.400279510090825,mp-572986
CsSm2Ti2NbO10,1.4476,-3.400208304145116,mp-1225973
La3Tm2(GaO4)3,3.691799999999999,-3.400094205625001,mp-1212025
Y4Ga2O9,3.7517,-3.4000874351666672,mp-769409
Sr3Ta2O8,4.082,-3.39926596305128,mp-769252
Ba2TiO4,4.144,-3.399091214047619,mp-3397
Sr2MgSi2O7,4.495900000000001,-3.398849896666666,mp-6564
Sr4U3ZnO12,0.0,-3.398762545999999,mp-1218588
La2TiZnO6,2.901799999999999,-3.398667952833334,mp-558528
K2RbPrF6,5.2136,-3.397970370366666,mp-1110672
Hf2P2O9,4.9045,-3.3978899164835172,mp-555344
Na3Ca7Ta3Ti7O30,2.3925,-3.397887312389425,mp-694044
NaPrTi2O6,2.118999999999999,-3.397803543971264,mp-1220924
Ca2TiSiO6,2.3708,-3.397758357333333,mp-9413
La5B3O13,0.0,-3.397070315833335,mp-1211502
NaLuTiO4,2.1995,-3.397059059839901,mp-1210307
LaAl22O34,0.0,-3.397020331578947,mp-532198
NaCeTi2O6,0.0,-3.396955705804598,mp-1221080
Ba2YTi3O8,0.0,-3.396952527142857,mp-1047361
BaSnF6,4.9883,-3.396749804374999,mp-8290
Na3Sr7Ta3Ti7O30,1.7944,-3.396741300589425,mp-40519
Ba2SmNbO6,2.907499999999999,-3.396624508250001,mp-1520939
LiCaTa2O6F,3.7839,-3.396609473454546,mp-39511
AcBrO,4.241,-3.396185964166668,mp-30274
SrTiSi2O7,3.608499999999999,-3.3957604439393942,mp-559208
Rb3AlF6,6.1238,-3.395627361249998,mp-1113633
CaU2(BO5)2,2.0258,-3.395426235888889,mp-1227453
BaSrSmNbO6,2.973799999999999,-3.3952798415,mp-1522073
BeAl6O10,5.4595,-3.395172896985295,mp-560974
NaLuSiO4,4.396599999999999,-3.395102296863725,mp-1210117
U11(PbO12)3,1.6609999999999991,-3.395031799899999,mp-1198411
Ti7Al2O15,0.0,-3.394625321180557,mp-15397
LiTi8O16,0.0,-3.3940175328,mp-1235333
Ba4Li4Ti19O44,2.3287,-3.393986905305164,mp-762032
Th4P6O23,4.2589999999999995,-3.393899319935062,mp-757224
Ca4ErB3O10,4.4289,-3.39381251486111,mp-1214050
Sm2SiSeO4,2.693,-3.393738472792969,mp-18610
LaCeSi2(BO5)2,0.3406,-3.393674040416666,mp-1223448
Tm5(ReO6)2,0.0,-3.39353643921053,mp-10094
KGdHfTiO6,0.8886000000000001,-3.393466040058333,mp-1521336
Eu3Ta5O15,0.0,-3.393379473768116,mp-1213410
SrLi2Ti6O14,2.951999999999999,-3.393170181050724,mp-16691
RbLi2Be2F7,7.2125,-3.393107236388889,mp-560518
KNaSiF6,6.9998000000000005,-3.392984663181034,mp-556934
SrBrF,5.0036,-3.392943195,mp-23024
BaLi2Ti6O14,2.9428,-3.392609160507246,mp-558083
Na2Ti12O25,2.8002,-3.39260867648099,mp-774527
KDyTiO4,2.268699999999999,-3.392538036035713,mp-1211619
BaTa4O11,3.4836,-3.392521305583331,mp-769399
Er2GeO5,3.8644,-3.39246240270834,mp-774547
GdAl22O34,0.0,-3.392428675964912,mp-530682
BaZnF4,4.5489,-3.392223955833333,mp-3881
TaTiAlO6,1.9264,-3.392110943962961,mp-1217913
Ca13Nb3(Si2O9)4,0.3756,-3.3918553375,mp-1228717
Sr3NdTaAl3O12,0.0,-3.391752126241667,mp-1232353
Ba2CuF6,0.8501000000000001,-3.391703464444444,mp-3879
CaLa4Ti3RuO15,0.0,-3.391557538541666,mp-1227252
Na2Gd2MgSi4(O6F)2,3.4316,-3.391383516424289,mp-557538
Y3SbO7,2.8091,-3.391358489545456,mp-981511
Sr20P12Br(O16F)3,5.1025,-3.39091482090136,mp-1218956
Ba6Gd2Al4O15,3.431899999999999,-3.39090210462963,mp-1214682
MgAl10O16,4.4934,-3.390900439444444,mp-757911
Cs3AlF6,6.2623,-3.390822127999999,mp-1113118
NdEu2BeO5,0.0,-3.3907701363888902,mp-1210044
PrAl22O34,0.126999999999998,-3.390416666345029,mp-1256766
KTi6O12,0.0,-3.390186621171052,mp-765472
Ca2BeSi2O7,4.9868,-3.39017086125,mp-6208
Gd5B3O13,0.0,-3.390067270119048,mp-1212669
Cs2SiF6,6.8901,-3.389468809444444,mp-4047
Ba5Li2U3O15,1.2725,-3.389303742866665,mp-1228411
Ca2MgAl2(SiO4)3,5.1099,-3.389171477250001,mp-677029
MgTi11O20,0.0,-3.389024161614584,mp-1222072
CaTi4O8,0.0,-3.388729337948717,mp-1387047
SmEu2TaO6,0.756,-3.388662624233333,mp-1207138
Gd3Lu2(GaO4)3,3.078999999999999,-3.388616952541667,mp-1213450
Ca3Ti2(SiO4)3,0.0693,-3.3885901424583342,mp-1154470
K3Zr4Ag2F23,0.7016999999999991,-3.388010796252604,mp-560729
Ba2LaNbO6,3.0639,-3.3879811675,mp-553281
Dy2Nb2O7,0.0,-3.387768535757574,mp-754120
Sr5Al10(Si7O24)2,4.2326999999999995,-3.387667153376623,mp-720112
Ba3Ta4NbO15,0.0,-3.387424732362319,mp-1096815
Na3La9B8O27,4.0102,-3.387306975265346,mp-6760
La2TeO2,2.028699999999999,-3.386965779333334,mp-4547
Ca5Si(PO6)2,4.7968,-3.386853927339285,mp-1227400
KLaTiO4,2.3399,-3.386128164369048,mp-1104930
SrCaMgSi2O7,4.504,-3.38609190125,mp-1218410
NaYTi2(SiO5)2,2.9705,-3.386013704877873,mp-1220706
LiLuO2,4.6174,-3.38577283375,mp-754605
Ba2Sm3Si3SeO12,0.0,-3.385657808444941,mp-1214802
SrCaHfNbO6,0.0,-3.385635119,mp-1517520
Zr3GeO8,3.9016,-3.385543667916665,mp-27888
Li2MgTi9O20,2.7058,-3.385399147864584,mp-1222757
BaTi(SiO3)3,3.0661,-3.385292812738096,mp-6661
NaZr2PdF11,1.331899999999999,-3.3847496590919532,mp-16291
Ba5P3O12F,5.064,-3.384426028520406,mp-1228113
BaSrTbZrO6,0.0,-3.384181638666666,mp-1517876
Tm4(B2O5)3,5.7326,-3.3841674426000012,mp-772919
Eu3Al2O7,0.0,-3.384109503333332,mp-1212916
Sr2CeSiO6,1.763,-3.383880043,mp-1521551
Ca11AlSi3ClO18,3.5848,-3.383825799117646,mp-677078
SrCaGdNbO6,2.6866,-3.3836881345,mp-1523005
BaBPF10,7.2843,-3.383666902600732,mp-1199844
Y14Ge4O29F5,0.0,-3.383650514615383,mp-1216315
Lu3B5O12,5.426500000000001,-3.383382150041666,mp-554282
KLaTa2O7,2.2635,-3.383187081083332,mp-1223498
CsTi6O12,0.0,-3.383147048929218,mp-867568
UNbO5,0.03,-3.383119099642858,mp-1100957
Ca4YB3O10,4.4498,-3.3830468215277762,mp-1214020
Mg3Al14O24,4.432200000000001,-3.382991400365854,mp-39003
Tb2Nb2O7,0.0,-3.382738889393939,mp-754174
BaCaSmNbO6,2.9882,-3.38270978625,mp-1522556
Lu4(B2O5)3,5.8758,-3.382234503066668,mp-771772
Ba2TbZrO6,0.0,-3.3821592199166672,mp-1520812
Ti3O5,0.0,-3.382133738125,mp-8057
Zr4CdO9,2.5075,-3.382120368928572,mp-676286
RbLaTa2O7,2.2853,-3.382045553833332,mp-541600
BaCa2Mg(SiO4)2,4.9651,-3.381912915357142,mp-1103554
MgTi8O16,0.0,-3.381712669266666,mp-2216790
Na2U2Si(O4F)2,2.07,-3.3816695285172402,mp-560638
K3Ba7Ti10(O9F)3,0.290999999999999,-3.381346201301667,mp-39699
Ca3Mg(SiO4)2,4.894299999999999,-3.381161893571428,mp-558209
La3Sc2(GaO4)3,3.798999999999999,-3.380959298750001,mp-1211869
BaCaHfNbO6,0.0,-3.380671266999999,mp-1521804
Ba6Sm2Al4O15,3.941899999999999,-3.38066064611111,mp-1214532
Nd2SiSeO4,2.6009,-3.380635908730468,mp-18466
Ca4Al6SO12,3.7247,-3.380591705543477,mp-8876
KAl11O17,4.6859,-3.380122822146524,mp-1252068
Ti13O22,0.0,-3.379983054809523,mp-656852
BaSrMgSi2O7,4.522600000000001,-3.379421794166667,mp-1227482
Ca5B3O9F,4.236800000000001,-3.37935388541667,mp-6632
Ca4LaB3O10,4.3032,-3.379169608472222,mp-6076
NaZr2AgF11,0.000799999999999,-3.379161184536398,mp-561400
K2Nd2Ti3O10,2.2681,-3.379147885264707,mp-1223975
Sr10P6ClO24F,5.093199999999999,-3.379017477568028,mp-705932
MgTi23O40,0.0,-3.379010275494792,mp-760088
Er4(B2O5)3,5.629899999999999,-3.378949036,mp-772497
Ba2CaGa2CuF14,0.9278,-3.378655308499961,mp-1214730
NaCa4Ti4Nb(SiO5)5,2.9213999999999993,-3.3786351206178162,mp-720204
Cs2KZrOF5,4.513,-3.378490365656034,mp-40143
KBaYSi2O7,4.6841,-3.378215464562499,mp-559670
Nd3Lu2(GaO4)3,3.1478,-3.378115003916667,mp-1210727
BaSnF4,3.6599,-3.3780807116666662,mp-1103397
Er5(ReO6)2,0.0117,-3.377986815526317,mp-1213202
CaMg2TiAl2SiO10,2.3238,-3.377986524313725,mp-534863
Ba2Si3O8,4.8327,-3.377933791730798,mp-29222
Pr3Si2Cl3O7,4.8482,-3.377773632333332,mp-559391
SrEuDyNbO6,0.310299999999999,-3.377732147666667,mp-1518315
BaTa6O16,2.1822,-3.377683681043479,mp-769349
Y3Sc2(GaO4)3,3.5945,-3.37764428225,mp-1207933
K3Al4P2O8F9,5.701499999999999,-3.377624184270604,mp-558240
BaSrZrNbO6,0.0,-3.377579682999999,mp-1521067
Ca4GdB3O10,3.3154,-3.377505096527777,mp-6943
Ba2TlF7,3.126,-3.377162033833335,mp-1214714
Sr2PrTaO6,3.37,-3.3771437089,mp-1207116
BaNpO3,0.0,-3.376933662750002,mp-8558
RbAl11O17,4.7302,-3.3769185659482472,mp-766387
Al2SiO5,5.403799999999999,-3.3768698634375,mp-5065
Ba2YZrO6,0.0,-3.3768292460000002,mp-1205685
BaSr2Mg(SiO4)2,4.759,-3.376693823214286,mp-1019558
NaCaAlOF6,1.491299999999999,-3.37660757438793,mp-1199631
Nd2SeO2,2.151099999999999,-3.376551367468747,mp-13971
Ba3Sr2Ca4Mg3(SiO4)6,4.8935,-3.376170139166666,mp-1228617
Tm3B5O12,5.3919,-3.376162679666668,mp-558534
KPrZr2O6,2.5349999999999993,-3.375919957891667,mp-1518622
Ba2YbNbO6,0.0,-3.3757481147500012,mp-19751
LiLaTa2O7,2.2515,-3.375590276181817,mp-1222361
Ba2CeNbO6,0.0,-3.375568956,mp-1079632
Sr3Mg(SiO4)2,4.7048,-3.375359663214285,mp-554641
Ca4SmB3O10,4.3982,-3.375311077916666,mp-6388
Ba4U8As2O33,1.5822999999999992,-3.37515313968085,mp-1229229
NdAl11O18,2.6431,-3.374913260583334,mp-757092
Ba2SrCa3Mg2(SiO4)4,4.8951,-3.374907258214285,mp-1228533
Sr4Al6SO12,3.3427,-3.374863685108694,mp-8877
Ho4(B2O5)3,5.578699999999999,-3.374814772999999,mp-17714
Ca2MgSi2O7,4.467700000000001,-3.374635929583332,mp-6094
BaSrLaNbO6,3.0144,-3.37448955025,mp-1521789
Ce3SnO8,1.5699,-3.374398032083332,mp-1226979
Ba2NdNbO6,2.987299999999999,-3.3743605727499992,mp-6167
Sr2TbZrO6,0.0,-3.374332641166667,mp-1521282
Ho3ReO7,0.0,-3.374211812954543,mp-558969
LiScSiO4,4.612299999999999,-3.373994456904761,mp-6224
GdYScSbO7,2.811699999999999,-3.37396265090909,mp-1224479
Y4Ti6Bi2O21,2.6999,-3.373620836515152,mp-1216208
Ta3O7F,2.2236,-3.37351299018182,mp-753747
CaLa2ZrO6,2.2496,-3.373393578000001,mp-1227065
Dy4(B2O5)3,5.4506,-3.373301508266665,mp-18108
La3Gd(BrO)4,2.5314,-3.37329829375,mp-1225825
Li2Hf2O5,4.346,-3.3732334079629642,mp-1177942
BaSbF5,4.752499999999999,-3.373108278928571,mp-18099
Sr3La2(BO3)4,4.1928,-3.373061714007936,mp-12295
MgAl6O10,3.4029,-3.372571268970587,mp-530216
K2Ti8O17,2.7826,-3.372458896524693,mp-762279
La4AsBrO8,4.0802,-3.372450035892857,mp-1211567
YbPO4,0.0,-3.372331683829365,mp-4179
NaLaTiO4,2.421499999999999,-3.372114857101807,mp-6514
CeMgTi2O6,0.0,-3.371978007166666,mp-2222802
Ti5NbO12,0.0,-3.371850255925927,mp-758848
Sr3Er2(BO3)4,4.666,-3.371833870912698,mp-13960
LiTi6O12,0.0,-3.3717571991228072,mp-757527
Ba2ScAlO5,1.997199999999999,-3.3716624259259262,mp-1228598
Ba3La9Mg7Nb5O36,3.0909,-3.371627847333334,mp-695278
BaSrNdNbO6,3.070299999999999,-3.37162564975,mp-1522395
La2TaCl3O4,3.8074,-3.371451709733334,mp-559822
Ca2YTiO5,0.0,-3.371449769814814,mp-1369394
La3SbO7,2.812900000000001,-3.37128890590909,mp-1211549
K2NbF7,4.5275,-3.3712123232,mp-4758
Sr4Al6SeO12,3.0557,-3.370967043580163,mp-1208447
Ba2Sr3CaMg2(SiO4)4,4.747299999999999,-3.370771094999999,mp-1228510
Sr2ZrNbO6,0.0,-3.370765247,mp-1521908
Ba4P3HF24,6.0339,-3.37069808734933,mp-1203328
Ba3SrMg2(Si2O7)2,4.4968,-3.370344185833332,mp-1228059
MgAl2O4,5.1095,-3.370001377142852,mp-3536
K3Na4Si3BF22,6.9785,-3.369803122922239,mp-581403
Ta3(OF)5,2.197,-3.3695761963076922,mp-756593
Gd2TiZnO6,2.7632000000000003,-3.369564110833333,mp-1105276
K2RbAlF6,5.946400000000001,-3.3692481742,mp-1111386
Y2TiSnO7,2.8832999999999993,-3.369183891666666,mp-1216104
NaLaTa2O7,2.3359,-3.368916266004178,mp-1220741
Mg3BeAl8O16,5.174899999999999,-3.368773322678571,mp-17313
Ba3Si5O13,4.742100000000001,-3.368732915833334,mp-29223
SrPrEuNbO6,0.1748,-3.368672098666667,mp-1519242
Ca4Ti4Si3GeO20,2.969999999999999,-3.368484574010416,mp-1227317
NaNdTiNbO6F,2.9335,-3.368476822473877,mp-43134
Ca11Si4SO18,3.5249,-3.368165604338234,mp-555508
Dy2GeO5,4.0049,-3.368152111354172,mp-28351
Sr3LaNb3O12,3.1136,-3.368132081842106,mp-1218518
La4(B2O5)3,4.555999999999999,-3.3678508392,mp-772771
K2MgF4,6.405900000000001,-3.367804555642856,mp-31212
Sr3Dy2(BO3)4,4.5247,-3.367470948809522,mp-1209630
BaSrPrHfO6,0.0,-3.367383072166667,mp-1522632
CeSiBO5,0.157499999999999,-3.367056123020832,mp-22225
Ba4LiTa3O12,3.113299999999999,-3.367030845016667,mp-16792
Rb5Nb3OF18,3.985299999999999,-3.367006931018519,mp-540995
BaSrTbCeO6,0.0,-3.366969469166666,mp-1520565
SrZnF4,5.0642,-3.366921715,mp-5078
Ba8Bi2F17,0.0,-3.366850455740742,mp-676105
Ba3Ta2Ti6O21,0.0,-3.366727406708335,mp-1214621
Sr2LaNbO6,3.0938,-3.3666940905000002,mp-1518670
Al5BO9,4.9384999999999994,-3.366610787277777,mp-3281
Sr2NbAlO6,2.8384,-3.366576727999999,mp-1206057
NaGdTiNbO6F,2.418299999999999,-3.366537321337513,mp-42981
NaYTiNbO6F,2.8506,-3.366515650201151,mp-42599
LiHo2Ta2O8,0.0,-3.366439820615383,mp-1236029
Ba2Ti13O22,0.0,-3.366161980765756,mp-28917
KSmTiO4,2.337099999999999,-3.366103771869047,mp-1211326
Eu2ScNbO7,0.0,-3.366034744545455,mp-1225538
Sr3Tb2(BO3)4,4.525600000000001,-3.365952749523809,mp-1209532
CaMgPO4F,0.0,-3.365623318080357,mp-1213968
K2LaTa5O15,2.5845,-3.365616652876812,mp-1204933
Na2CaZrSi2O7F2,4.6892,-3.365571821850574,mp-1210579
Sr3Ho2(BO3)4,4.5049,-3.365546100198411,mp-1209645
U8Bi2O19,0.0,-3.36547055051724,mp-677724
Li3Y3ZrO8,4.2644,-3.365374738,mp-755289
Ca4NdB3O10,4.3686,-3.365327721944445,mp-1214008
Eu2TiO5,0.0,-3.365269880416669,mp-1195915
BaSrCaMg(SiO4)2,4.7476,-3.3652290510714282,mp-1227705
Er3B5O12,5.3497,-3.365137111291666,mp-560278
SrSbF5,4.7617,-3.3650974460714282,mp-16903
Li2BeF4,7.7223000000000015,-3.364770863571428,mp-4622
RbNdTiNbO6F,1.8522999999999992,-3.364455222121212,mp-1219593
Ho5(ReO6)2,0.0,-3.364179312631576,mp-29937
KGdTiO4,2.1484,-3.364131046154763,mp-1211763
Pr3Lu2(GaO4)3,3.6264,-3.363975910541667,mp-1210514
CaAl12Si4O27,5.236199999999999,-3.36388194125,mp-560993
YbNdO3,0.0,-3.363809463749999,mp-1187576
Sr2LiSiO4F,4.7908,-3.363684869814814,mp-556066
Ba2MgSi2O7,4.4529,-3.363647231666667,mp-9338
K2TbF6,0.0,-3.363462804574074,mp-4377
NaTi2Al5O12,2.7190000000000003,-3.363461813402314,mp-560591
Y4Ge(O4F)2,0.4224,-3.363429801666667,mp-1216125
Ba4LaTiNb3O15,2.4743,-3.363385603888888,mp-1228208
Sm3Ti3(SeO4)2,0.0,-3.363153022792969,mp-18082
Nd3Tm2(GaO4)3,3.6506,-3.363100337750006,mp-1210408
Ca2TiAlO5,0.0,-3.363047490925927,mp-1253743
BaSrCeNbO6,0.0,-3.363041252499999,mp-1518497
MgTiO3,3.529499999999999,-3.362936645666665,mp-3771
SrEuYNbO6,0.3205,-3.362820496500001,mp-1521037
Ca10Mg7Al6Si17O60,4.3438,-3.362770839550001,mp-677026
Gd3SbO7,2.4705,-3.362648602727271,mp-1191117
NaPrTiNbO6F,2.9583,-3.362534379216301,mp-42897
Dy3ReO7,0.0,-3.362467477954543,mp-1191990
Na2Ca4ZrNbSi4O17F,4.0396,-3.362388403258619,mp-6903
NaErPO4F,5.5235,-3.362353660752771,mp-10935
KTh2(PO4)3,4.599,-3.362313743676586,mp-540876
Ba2La2O5,2.6628,-3.3623015144444452,mp-768263
KNdZr2O6,2.5109999999999992,-3.362208780474999,mp-1522387
Ba2SiO4,4.6319,-3.361976853214285,mp-17612
Sr10P6BrO24F,4.8552,-3.361213900068026,mp-534901
TmBrO,4.3478,-3.361061613333336,mp-754969
KNd2NbO6,3.6157,-3.361011512224999,mp-558128
CaMgSiO4,4.6294,-3.360924786785713,mp-6493
SrEuTiNbO6,0.0,-3.360843272833334,mp-1519324
BaSi2O5,4.7582,-3.360721377187507,mp-3031
NaYTiO4,2.3722,-3.360695499244663,mp-18005
La4PdO7,0.4523,-3.360691400416667,mp-31031
K2TiF5,0.0015,-3.360543962854167,mp-1197140
TbSF,1.2587,-3.360461024270833,mp-10930
Y4Si2NO8,0.0,-3.360424154,mp-1207840
NaAl11O17,4.491,-3.360404121944086,mp-3405
Rb2TbF6,0.036999999999999,-3.360321756296295,mp-3010
Ba6Nd2Al4O15,3.9421,-3.360271372962962,mp-1214526
Ca10P6ClO24F,5.4057,-3.359916427925169,mp-686571
Y3Mg2Si3O13,0.0,-3.359704694761906,mp-1207885
Ba4Ta2O9,3.9585,-3.359521691311111,mp-1196006
NaTi5O10,0.0,-3.359500017690374,mp-760024
Na2Nd2Ti3O10,1.711999999999999,-3.359358077515213,mp-6119
CaEuHfNbO6,0.0,-3.359240147499999,mp-1522808
Cs2RbZrOF5,4.7097999999999995,-3.359053138681035,mp-42022
RbTh2(PO4)3,4.5745000000000005,-3.358607930912697,mp-554280
KCeZr2O6,0.1488,-3.358587153724999,mp-1519548
Ca3Nb4(O6F)2,3.0054,-3.358564311547619,mp-554801