formula,bg,formation_energy,mp-id
NaZr2TiF11,0.0,-3.735522496647509,mp-15056
TbCe3O8,0.0,-3.735002988888887,mp-1217590
BaCaGaF7,6.0128,-3.73498281475,mp-8416
K2SmF5,6.7623,-3.7348699311875,mp-17434
SrDy2O4,3.694199999999999,-3.73484630333333,mp-556075
CsMgAlF6,6.8485,-3.734724373850574,mp-1225922
DyTaO4,4.0284,-3.7336660264999892,mp-7703
Ho2SeOF2,2.8657999999999992,-3.7330882806684,mp-1195358
Gd2SiO5,3.0808,-3.73295124156251,mp-542831
ZrU9O20,0.0,-3.7327682663333333,mp-766289
Sr4Hf3TiO12,2.5782,-3.731331069666666,mp-1218574
Ba2TbPaO6,3.464899999999999,-3.731127443666666,mp-1206245
Nd2Ti2O7,2.9631000000000003,-3.730971776515151,mp-12193
TbTaO4,4.0177,-3.73093175483333,mp-12932
Gd2Ti2O7,0.0,-3.73057191742424,mp-5302
Er3Si3O10F,5.271800000000001,-3.729584180147058,mp-542038
Dy4BClO7,4.7368999999999994,-3.729573685256408,mp-1201047
Cs2HfF6,7.2288,-3.7293915677777782,mp-13948
CaY2O4,4.1546,-3.729354905714285,mp-753815
Pr2O3,3.8059,-3.7292703694166662,mp-16705
Ba2YPaO6,3.491999999999999,-3.728716805,mp-1205895
Sr5U5O18,0.0057,-3.727729963214284,mp-675076
Sc2Ti2O7,3.5737,-3.72757864742424,mp-753802
La10(Si2O9)3,3.3817,-3.727459398139534,mp-531302
K2HfF6,6.4694,-3.727239514388886,mp-14128
Gd3B2(O2F)3,2.8409,-3.7272042273809523,mp-669375
ZrU4O10,0.0,-3.726961890666664,mp-1215267
Tb8O13,0.0,-3.7266960773015883,mp-684966
Sr2La18AlSi11O52,0.224099999999999,-3.726181933214287,mp-677529
Rb2Tb3AlF16,0.0,-3.726078045681818,mp-559737
SrLiTiF6,0.0,-3.7260772668518523,mp-1208599
CaLa4Si3O13,4.4836,-3.726068436904762,mp-1227220
SrLa4Si3O13,4.419399999999999,-3.7257383626190492,mp-1218249
HfTiO4,2.869999999999999,-3.725641982638888,mp-753197
Lu3Al5O12,5.1263,-3.725327474875,mp-14132
Sm2Ti2O7,2.7306,-3.725298062424243,mp-3335
RbMgAlF6,6.6897,-3.724744384722222,mp-1219581
Lu2Si2O7,4.8449,-3.72417785166666,mp-7193
Sc4Ti3O12,2.7659,-3.7241358615789473,mp-675128
Ba2SrTm6O12,2.4154,-3.7237142995238113,mp-1228529
La3NbO7,2.9341,-3.723637249772728,mp-560349
Gd6S3(OF4)2,1.521399999999999,-3.723395724342106,mp-1224731
Tb3PO7,4.525600000000001,-3.723364369361473,mp-1208687
Ba3TaOF9,0.0,-3.7229909398095242,mp-1228505
LaAlO3,3.7121,-3.722466562999999,mp-1080060
Ho3Si3O10F,5.2841000000000005,-3.7223536476470582,mp-16165
Tm2MgTiO6,3.246,-3.722284603833334,mp-1207960
K2GdF5,0.242399999999999,-3.7212974730625,mp-642655
KTb3F12,0.0,-3.721097026078125,mp-29788
RbEu3F10,0.0,-3.721084515178573,mp-504520
BaSrHo4O8,3.7376,-3.720580824642855,mp-1227777
EuDy2O4,0.0,-3.720438172619047,mp-1212735
Tb4BClO7,4.7323,-3.720197350064102,mp-1199026
EuHfO3,0.479599999999999,-3.7196661260000012,mp-753781
SrTb2Sc2O7,3.4884,-3.719662018194443,mp-1103380
KCaF3,6.6502,-3.719302234949998,mp-5926
Ce3TaO7,0.0,-3.719178240666666,mp-754141
Dy5Si2BO13,4.5395,-3.7188440825,mp-1225574
Dy3Si3O10F,5.2743,-3.718324769999999,mp-16164
La5Ti4O15,0.0,-3.717634444513889,mp-28801
RbCaF3,6.3971,-3.717050224499998,mp-3654
Ba2Zr7O16,3.7527,-3.717036954799999,mp-769802
BaLa4Ti4O15,2.8881,-3.71649078763889,mp-1228245
Sm2Zr8O19,2.4244,-3.716228387758621,mp-1173100
Nd4Al2O9,4.1884,-3.7161393765,mp-561084
Ba3ScCO3F7,4.9085,-3.715831228,mp-560519
CsCaF3,6.9005,-3.715830655999998,mp-7104
K2NdF5,6.675800000000001,-3.715621197125,mp-1211860
YZr4O9,0.0757,-3.7149481960714272,mp-758784
Sc11Nb3O24,3.076,-3.714919614605263,mp-676191
Tb5Si2BO13,4.4975000000000005,-3.714724967976191,mp-1217661
LiMgAlF6,7.5661,-3.714650802037037,mp-1193222
BaEr2O4,3.6265,-3.714617810714287,mp-1193827
SrTb2O4,3.6672,-3.714504916190475,mp-18042
Pr2Ti2O7,2.972899999999999,-3.71443919249999,mp-15201
Zr8Sc2O19,0.0,-3.714269015344826,mp-1100806
Sm2SeOF2,2.781,-3.71401423483507,mp-1194932
Sr4Hf3O10,4.1291,-3.713770158235295,mp-779001
La26B8O51,3.484399999999999,-3.713570698333335,mp-759763
Ca2Zr5Ti2O16,3.1694,-3.713301631816666,mp-667369
Tm2Si2O7,4.796699999999999,-3.7132802795454642,mp-1095467
LaTaO4,3.468,-3.71283354497224,mp-4421
Pr3TaO7,3.4185,-3.7124992820303,mp-14964
Er2MgTiO6,3.235299999999999,-3.712251910833333,mp-1212787
YAlO3,5.5402000000000005,-3.7122381155,mp-3792
Er3Al5O12,4.758,-3.71221693225,mp-3384
BaSrHfZrO6,3.533,-3.7119557505,mp-1520590
Y3BrO4,4.2046,-3.711852546875,mp-560029
Ce3NF6,0.0,-3.711166302499998,mp-675921
Nd2SiO5,4.7758,-3.710467645625,mp-560132
U3O8,0.045099999999999,-3.709680540454551,mp-560402
YTaO4,4.031499999999999,-3.707996333722221,mp-5377
Gd7Y5Nb4O28,2.4285,-3.707286918409089,mp-1224905
Zr3U7O20,0.0,-3.706569870666664,mp-766007
La5Si2BO13,4.153599999999999,-3.706233316626985,mp-1223205
Cs2Ca2Be3F12,7.2156,-3.705910838384755,mp-562057
EuY2O4,0.390299999999999,-3.704852089285718,mp-754557
Sr5U5O19,0.0,-3.704707342931033,mp-757372
ZrTiF6,0.0,-3.704137336666666,mp-16548
LiY3Si2(O4F)2,5.228199999999999,-3.704026231145833,mp-1202176
Ho2MgTiO6,3.226199999999999,-3.7038290858333323,mp-1212333
SrGd2Sc2O7,2.6316,-3.703664130416665,mp-1101990
Zr3TiO8,3.2762,-3.703486623611111,mp-1207388
Ho3Al5O12,4.753799999999999,-3.703416676499999,mp-14388
Ba2GdPaO6,3.1597,-3.703111186,mp-1205929
Sc2SiO5,4.471299999999999,-3.7030844584375,mp-1209079
YZr5O11,0.7553000000000001,-3.703035137941176,mp-753842
BaSrDy4O8,3.6976,-3.702935540119046,mp-1227771
Tb5Ti5O17,0.0,-3.702677214999999,mp-850834
YZr9O20,0.0,-3.701556768000001,mp-675470
Dy5Ti5O17,0.0,-3.7014821529629622,mp-778274
Dy2ScNbO7,2.2697,-3.701198258030301,mp-1225349
La3PO7,4.060799999999999,-3.701129963906929,mp-779590
Er2Si2O7,4.798599999999999,-3.700666997727278,mp-7064
NaSrTiF6,0.2774,-3.69994219385696,mp-1210124
Dy3NbO7,2.8339,-3.699847019090907,mp-676951
SmTaO4,3.9923,-3.699751929555555,mp-12931
Ho2ScNbO7,2.0336,-3.699699579999998,mp-1224028
Dy2MgTiO6,3.2053,-3.699462831166665,mp-1213085
U2O5,0.0,-3.699018884464284,mp-647814
Sm4U4O17,0.0,-3.698969960599998,mp-752785
SrY2O4,3.7035,-3.698782460357143,mp-17275
La7YAl8O24,3.635099999999999,-3.698075044375,mp-997586
Tm5Ti5O17,0.0,-3.697889414320989,mp-778664
SmAlO3,4.861399999999999,-3.697794770499969,mp-7405
Ho5Ti5O17,0.0,-3.6974962109876532,mp-1178188
Dy3Al5O12,4.6542,-3.697212915499997,mp-772195
Na2MgScF7,6.2972,-3.696861199796238,mp-1210466
Rb2Ca2Be3F12,6.822900000000001,-3.6956526100000002,mp-1209683
CaUO4,2.103899999999999,-3.695424939999997,mp-3960
Zr9ScO20,0.0,-3.695166541833335,mp-674976
BaHo2O4,3.2256,-3.6946238200000012,mp-17363
Tb2MgTiO6,3.2311,-3.694526558666666,mp-1208534
ZrUO4,0.0,-3.6940681849999972,mp-1215173
La3Ti4O12,0.0,-3.694065800964912,mp-754804
Nd2SeOF2,2.663299999999999,-3.693970125112846,mp-1194517
Y3Si3O10F,5.383500000000001,-3.693966157647059,mp-14630
Li2ZrF6,6.0884,-3.6935994325925923,mp-542219
Gd3NbO7,2.4755000000000003,-3.693314985454546,mp-752432
U13O34,0.0,-3.69301040680851,mp-642328
GdTaO4,3.3217,-3.693003387888868,mp-4875
Sr2HfZrO6,3.4242,-3.692944157999999,mp-1519753
Gd2SeOF2,1.348399999999999,-3.692913088168403,mp-1194754
LaZr9O20,0.0,-3.692420694166668,mp-675329
La3Nd11(Si3O13)3,4.1378,-3.692055623266128,mp-1224647
SmGd3Al4O12,3.249,-3.69164070025,mp-1219063
SrUO4,1.979499999999999,-3.690641247083333,mp-36329
GdAlO3,3.2382,-3.6904500495,mp-5223
NaHo9(Si3O13)2,4.3796,-3.6903508144376023,mp-1220852
Tb3Al5O12,4.559899999999999,-3.690335603625,mp-14387
AcAlO3,4.1024,-3.690019421500002,mp-1183115
Ce3PrO8,0.0,-3.689938340138887,mp-1226860
BaSc2O4,3.9283,-3.6896490030952362,mp-3564
NdZr9O20,0.0,-3.689353432583334,mp-674436
Ba2CaTi2CuF14,1.0044,-3.688344636833334,mp-1380678
Er3OF10,0.0,-3.688206189999999,mp-1212915
Y9Lu3Al20O48,4.5394,-3.686752151125,mp-1216268
Sr3Al2P(O2F5)2,0.0,-3.686294446607143,mp-1199626
TiF4,4.1709,-3.686185758666666,mp-28974
La2Ti3O9,1.987199999999999,-3.685967389642857,mp-758038
Na3CaMg3AlF14,6.852500000000001,-3.684409502233542,mp-1191931
Y9Er3Al20O48,4.5136,-3.684012552499999,mp-1216239
Sm3NbO7,2.843,-3.6839251963636332,mp-755512
BaLa2Ti3O10,1.9924,-3.6833114234375,mp-1200651
La2MgTiO6,3.064,-3.683122239833333,mp-6457
BaNaTiF6,0.2486,-3.6826893105236262,mp-1215092
BaCa2Y6O12,2.8906,-3.6826398838095242,mp-1228139
Ba5Nb3O3F20,0.7117,-3.682336164516129,mp-1228715
Sr2InF7,4.9452,-3.6819891924166632,mp-14283
Sm4ZrO8,2.6672,-3.681918409230769,mp-1173349
CaLa2TiO6,3.1705,-3.6816299793333322,mp-1445473
Ba2U2O7,0.5051,-3.681598229999999,mp-583034
Y3ErTi4(SiO9)2,3.1195,-3.681512814226191,mp-1216271
DyZr4O9,0.0,-3.681331659047619,mp-1178359
Tm6ReO12,0.064599999999999,-3.681282751710513,mp-10342
Y2BeO4,4.0945,-3.6812032614285712,mp-5905
Sr3Hf2O7,4.2495,-3.681184836666666,mp-752691
Nd2Zr8O19,2.328899999999999,-3.680982779310344,mp-675068
LiEr6Ta2O14,0.4304,-3.680762440347824,mp-1236590
SrCaU2O8,2.0454,-3.680588333333331,mp-1218353
Ba2SmPaO6,3.4592,-3.680276951499999,mp-1205602
Ba4Hf3O10,3.604,-3.679772133235295,mp-779519
Sm2ScNbO7,2.51,-3.6793936213636362,mp-1219154
BaDy2O4,3.5607,-3.6789843933333333,mp-1194284
La2Ti2SiO9,2.6015,-3.677706238333333,mp-559747
Ba2ErUO6,0.8790000000000001,-3.677274413999998,mp-1206292
SrLa4TiAl4O15,2.099999999999999,-3.6768689631333342,mp-39226
NdTaO4,3.9439,-3.676533317472242,mp-3203
Gd2ScNbO7,2.3666,-3.675871132727271,mp-1224704
Ba2ScUO6,0.8326000000000001,-3.6757578554999992,mp-1206763
Y3Al5O12,4.5762,-3.675374461249997,mp-3050
Ho2Si2O7,5.3233000000000015,-3.675094839090908,mp-18662
Eu2Hf2O7,0.0,-3.675034681363634,mp-1191195
Ba2La3Si3O12F,4.1088000000000005,-3.675006665119046,mp-686674
U(OF)2,2.1045,-3.674992431999997,mp-27980
LaHoSi2O7,4.9618,-3.674736055681818,mp-1222979
La2Si2O7,4.7992,-3.6739524936363632,mp-5732
Nd3Ti4O12,0.0,-3.672704620570175,mp-582794
Nd3GdAl4O12,2.9123,-3.672693714124999,mp-1220286
Er14Ti10O41,1.113,-3.672647751820512,mp-685945
NdAlO3,4.353999999999999,-3.672470181499999,mp-5899
LiPr2Pa2O8,0.0,-3.67193746128205,mp-1235298
BaSrCeHfO6,2.1941,-3.671768853999999,mp-1522455
CaGd2O4,3.26,-3.671435590000001,mp-752679
Ba2YbPaO6,0.0,-3.671142661750002,mp-1205639
Cs2ZrF6,6.697699999999999,-3.6710611049999993,mp-7903
Y2Si2O7,4.7121,-3.671023028712122,mp-581644
LaPr3Al4O12,3.907599999999999,-3.670800806499999,mp-1222844
SrNd4Si3O13,4.680400000000001,-3.670529781904762,mp-1218195
SrLaScO4,3.6344,-3.670400690714286,mp-1218207
CaZrO3,3.8263,-3.670175069499999,mp-4571
Ca2HfO4,3.840999999999999,-3.6698924778571422,mp-752413
ScAlO3,4.591900000000001,-3.669621607,mp-4471
SrU2O6,0.0,-3.669588367777775,mp-676249
TiF3,0.0,-3.669544359583334,mp-246
BaEuHfZrO6,0.426599999999999,-3.6694066805,mp-1517277
Y2MgTiO6,3.2132,-3.6688973028333343,mp-1207485
La4PClO8,4.295099999999999,-3.668646731045918,mp-1196615
La4Ti9O24,2.8512,-3.668481502837838,mp-560383
BaUO4,2.1144,-3.668090146249997,mp-5611
Sm3PO7,4.3882,-3.668078586482684,mp-1209446
BaSrY4O8,3.719299999999999,-3.668062507499999,mp-1227529
NaUF6,0.9529,-3.667918308124999,mp-1205997
Ba2CeHfO6,2.1719,-3.66725259025,mp-1518549
Sr2CeHfO6,2.331099999999999,-3.667068374499999,mp-1520500
MgTiF5,0.266399999999999,-3.666989048333334,mp-1443056
SmZr4O9,0.0,-3.6668318778571423,mp-760533
La5Si3O13,0.0,-3.666284126666667,mp-1211451
Ba2HoUO6,0.8731999999999991,-3.666247560499999,mp-1205585
Dy7BP2O17,4.799099999999999,-3.666242039263668,mp-1213462
LaCeAl2O6,0.024399999999999,-3.666197123499999,mp-1225482
YTiF5,0.0,-3.66595827547619,mp-1399262
Gd5Si2BO13,2.6556,-3.6657610961507943,mp-1225149
BaSr2Y6O12,2.6259,-3.664987270952381,mp-1227790
Sr3U11O36,1.7147,-3.664031773599999,mp-667349
YTi3F15,1.4202,-3.663601560263159,mp-1047530
Zr3Pb(O2F3)2,2.844999999999999,-3.663523270357143,mp-541097
TmTaTiO6,3.338799999999999,-3.663479445907408,mp-1216870
Sr2HfTiO6,2.480699999999999,-3.6633444343333332,mp-1218807
LuTaTiO6,3.3524,-3.662955973592592,mp-1222583
BaTb2O4,3.2062,-3.6629518301190482,mp-18258
SrEuHfZrO6,0.4306,-3.6628303195000003,mp-1519163
CeTaO4,0.0,-3.6628021208055532,mp-22074
Sm6Ta2Ti4O21,0.0,-3.662666607060607,mp-1219194
Ho9B4O19,0.265699999999999,-3.662647693333332,mp-757752
Cs2LiAl3F12,7.0872,-3.662050771257982,mp-13634
YbAlO3,0.0,-3.66203571625,mp-759116
SrZrO3,3.6122,-3.661658828500002,mp-4387
Gd4BClO7,3.0154,-3.661490686666666,mp-1201615
La4MgTi3O12,0.0,-3.66139217475,mp-2230488
Er10Ti6O27,1.776499999999999,-3.660454618953488,mp-37727
Ce2Ti2O7,0.0,-3.660334544696968,mp-755065
Sr2U2O7,0.0,-3.660240964090907,mp-1218482
LiY9(Si3O13)2,4.4329,-3.66020487984127,mp-1222506
Dy2Si2O7,4.9489,-3.660100550303029,mp-17062
SrNdHf2O6,0.0,-3.659627968749999,mp-1521236
Rb2ZrF6,6.6418,-3.6596197927777743,mp-13946
EuZr4O9,0.2057,-3.659407555,mp-755810
NaY9(Si3O13)2,4.4348,-3.659205958128079,mp-1220819
K2CeF6,2.1176,-3.659023169388887,mp-1206010
Ba2Ti2AlF11,0.3585,-3.658886314062499,mp-1044573
La3Si2ClO8,4.411700000000001,-3.658833646785714,mp-558985
Nd2ScNbO7,2.5738,-3.6587557963636352,mp-1220400
TbTaTiO6,3.153499999999999,-3.657415306092592,mp-1217522
Yb2MgTiO6,0.0,-3.657286335916666,mp-1207619
Tb2Si2O7,4.9475,-3.657226894848484,mp-17308
UOF4,2.4746,-3.657058043611109,mp-559734
La7BP2O17,4.416900000000001,-3.656684638646385,mp-1212336
BaNd2Ti3O10,2.254299999999999,-3.656562611874999,mp-6285
YbTi2O5F,0.0,-3.656449693009259,mp-1215761
Ba2DyUO6,0.8682999999999991,-3.656206646166667,mp-1205693
BaSm2Ti3O10,1.953,-3.6561050765625,mp-1197030
PrAlO3,4.1325,-3.655848326333328,mp-3466
K2ZrF6,5.5362,-3.655629739388885,mp-5450
HfSiO4,5.0221,-3.655536861666667,mp-4609
YZr5O12,0.0,-3.655512732777778,mp-676515
Y2Ti3O9,2.3114,-3.655366920714286,mp-1365383
HoTaTiO6,3.334,-3.655337607018518,mp-1224209
Nd2Ti4O11,3.0914,-3.655330315490194,mp-654139
LuTiO3,0.0,-3.654343693000001,mp-754231
LaTaTiO6,2.918799999999999,-3.65394793812965,mp-1222878
BaCaCeHfO6,2.1365,-3.6538054685,mp-1521543
Gd7Ti8O26,0.3123,-3.653333336504066,mp-685713
Cs2NaAl3F12,6.917499999999999,-3.653021051149425,mp-12309
La7ScAl8O24,2.534499999999999,-3.653001103500001,mp-997587
Nd10Ti9GaO34,0.0,-3.652708800601851,mp-1212345
TmTiO3,0.0,-3.652124086666668,mp-755525
BaEr4Si5O17,4.782,-3.651867641851852,mp-1195598
ScTaO4,4.027699999999999,-3.651721514555548,mp-558781
Lu6TeO12,2.8127,-3.651567454561405,mp-755804
Ba2LaPaO6,3.3736,-3.6514718885,mp-1205623
Er2U3O11,0.0,-3.651200057187496,mp-1225804
SrGd2O4,3.0774,-3.650157833571427,mp-3523
Gd3Al5O12,3.4609,-3.6496901,mp-14133
NaCaYCdF8,5.0311,-3.649454706781608,mp-1221079
LiLa3Ti2O9,2.7794,-3.64943582,mp-766995
LiLa4Ti3O12,0.0,-3.648766051166666,mp-756861
CeNdAl2O6,0.0,-3.64873811675,mp-1226589
Ba3Lu4O9,3.1681,-3.648600351354167,mp-542832
SrHo2Al2O7,4.0235,-3.648561199583332,mp-1208627
KAlF4,6.9087,-3.648254212874994,mp-561424
Y2Zr9O22,0.0,-3.647890807272726,mp-675231
Rb2NaAl3F12,7.1302,-3.6469072384099612,mp-542451
BaSr3Zr4O12,3.4848,-3.646644181,mp-1227775
Ca2La4Ti5O18,2.316099999999999,-3.64620037954023,mp-1227811
PrTaO4,3.5793999999999992,-3.645757438166669,mp-17722
YZrO3,0.427,-3.6453083495,mp-766243
Tb5Si3O13,0.0,-3.64523786968254,mp-1208437
ThTa2O7,2.656399999999999,-3.644535880466647,mp-28611
BaY2O4,3.2515,-3.644422620714285,mp-3952
ErTiO3,0.0,-3.644023935166667,mp-756296
Sm3Al5O12,4.1364,-3.6439628383749962,mp-780370
Np3OF12,0.0,-3.643860938828125,mp-1199332
BaLa3Sc4HO12,3.804499999999999,-3.643768943630953,mp-1228009
Ba2NdPaO6,3.4662,-3.643724666749999,mp-1205708
Nd3NbO7,2.873,-3.643603394090909,mp-557763
Ba3Hf2O7,3.5653,-3.6430178729166682,mp-754128
Ba2YUO6,0.8651999999999991,-3.642864564999999,mp-1205713
BaHo4Si5O17,4.770399999999999,-3.642563102962962,mp-1195686
U17O31,0.0,-3.642409971145831,mp-674332
Pr2ScNbO7,2.5497,-3.641652672121212,mp-1219870
BaPr2Ti3O10,1.947299999999999,-3.6416203386458332,mp-557074
SrEuHfTiO6,0.1183,-3.641549238833333,mp-1519425
K2NaAl3F12,6.8339,-3.64101468504885,mp-560176
Ba2CePaO6,0.016199999999999,-3.640372512,mp-1205643
EuZrO3,0.186599999999999,-3.640190886500001,mp-1106293
Na3Sm17Si12(O25F)2,4.657,-3.640011067727833,mp-677015
LaTiO3,0.0,-3.639685829666668,mp-22013
CsSrF3,6.1846,-3.639248854000001,mp-8397
BaZrO3,3.1163,-3.639240691,mp-1019544
CeTi2O6,1.8583999999999992,-3.639021277407409,mp-1079004
Sr2LuUO6,0.9942,-3.638653882666666,mp-1206223
BaU2O7,1.722699999999999,-3.638299954999999,mp-27649
LiLa5Ti8O24,2.106999999999999,-3.638279348552631,mp-560293
CsAlF4,6.977,-3.638168761111111,mp-554899
TbZr4O10,0.0,-3.638120211111109,mp-754182
Pr10Ti9GaO34,0.0,-3.637510189891975,mp-1211796
La5Ti4GaO17,2.4092,-3.6374645998456803,mp-1223729
Ho6ReO12,0.0359,-3.637388602236824,mp-753766
BaSr4U3O14,2.0784,-3.637355124545455,mp-559427
RbAlF4,6.9433,-3.637255926416667,mp-13997
Sm2Si2O7,5.321,-3.637195456136363,mp-17235
LiLa4Ho4O12,0.0,-3.637109597777776,mp-1235170
LiSm4Tm4O12,0.344599999999999,-3.637070782539683,mp-1235085
NaZr2ZnF11,5.7246,-3.63565080175862,mp-15141
HoTiO3,0.0,-3.635615666166665,mp-755236
LiTm6B3O14,4.8766,-3.635536231180557,mp-1211183
BaCaHfZrO6,3.3163,-3.635092758,mp-1516790
Na2ZrF6,6.2566,-3.6350707925,mp-27307
Ca3Zr17O37,0.0,-3.634425657631578,mp-674516
SmEuHf2O6,0.0,-3.633910399,mp-1517665
Ba4Lu6O13,2.8207,-3.633748113478261,mp-772740
Eu2HfZrO6,0.3481,-3.633371646000002,mp-1520691
NaNd9(Si3O13)2,4.4314,-3.6331015899733172,mp-1221031
BaLu2Si3O10,4.830500000000001,-3.632689089895833,mp-1194557
K2UF6,0.0,-3.632473544944441,mp-1224157
Sr2TmTaO6,3.8819,-3.632421270733334,mp-16605
DyTiO3,0.0,-3.632248170999999,mp-779599
Ca2UO5,2.1339,-3.631797415312498,mp-17956
SrCaHfZrO6,3.4147,-3.63169507,mp-1522984
YScSi2O7,4.536300000000001,-3.631461509999999,mp-1207607
YZr4O10,0.0,-3.631101740666666,mp-1215768
K3LuF6,6.722899999999999,-3.630852403841667,mp-1211665
Nd3PO7,4.2816,-3.630125993679653,mp-1203311
LiEr4Zr4O14,0.4645,-3.629994131014492,mp-1235758
Ca4Si2O7F2,4.8233,-3.629979529999999,mp-560163
La8MgAl7O24,0.0,-3.629783367625001,mp-997590
Gd2Si2O7,3.2104,-3.629723050909088,mp-13775
Sr5U3O14,2.0501,-3.629398166590907,mp-29743
La8Al7GaO24,3.6931,-3.629222635937501,mp-997585
Lu2SO2,3.0925,-3.6290922981666682,mp-12673
KNd9(Si3O13)2,4.454,-3.629071956065477,mp-1223480
Sr2U4O11,0.0,-3.628539606764703,mp-760440
Na2UF6,0.0,-3.6285364033333343,mp-558572
U5ClO12,0.0,-3.628420470277779,mp-1216990
Ca2ScTaO6,3.733799999999999,-3.628419579233333,mp-1214081
KPu2F9,0.308899999999999,-3.628292726229161,mp-1211482
Y3Si2ClO8,4.7028,-3.628211942678571,mp-558883
TbTiO3,0.0,-3.628116425500001,mp-768409
SmF2,0.0,-3.627615614444446,mp-1206711
CaSm2O4,3.8425,-3.627494344285714,mp-754240
SrSmScO4,3.7388,-3.627285303571427,mp-1217782
La3Si2BO10,4.438200000000001,-3.626559909791668,mp-773117
NdTaTiO6,3.0457,-3.62643061562963,mp-1220116
Ba2LuTaO6,3.408899999999999,-3.626409085399999,mp-1079705
PrYSi2O7,5.1978,-3.6261255762878792,mp-1201353
Rb2NaYbF6,0.0,-3.625714126750002,mp-1205802
Ba3Tm4O9,3.2767,-3.6254550540625012,mp-14322
Na5Hf2F13,6.6637,-3.6253580095,mp-1189018
Sr6La14Mg7Ti13O60,1.806499999999999,-3.625149851283334,mp-691028
La2ThTa(ClO2)3,4.0531,-3.625107752871795,mp-1223220
Sm3Si2ClO8,4.5816,-3.624159441071429,mp-23622
Zr6O11,0.371,-3.623043120294117,mp-761151
Ba2La4Ti5O18,2.3756,-3.622963055747126,mp-1228650
Tm2SO2,3.097399999999999,-3.622715177500004,mp-3556
BaSrZr2O6,3.123,-3.622634121999999,mp-1521140
BaSrGd4O8,3.0431,-3.622599526785714,mp-1228688
Ba2ZnF6,4.732399999999999,-3.622230392222222,mp-7739
Eu2HfTiO6,0.003499999999999,-3.622099957333334,mp-1521653
K3TmF6,6.7339,-3.622052274675001,mp-1211645
CaZrTi2O7,2.9332000000000003,-3.6219146856060602,mp-1227163
BaUTiO6,1.9643,-3.6218420828703692,mp-560110
HfTiF6,0.0,-3.621669591666666,mp-37737
LiCaF3,6.5153,-3.6214914873333313,mp-1017626
MgZr4O9,3.7393,-3.621422122500001,mp-674477
CaHoTi2O6,0.0,-3.621314977166666,mp-1049290
LiEr6B3O14,4.8612,-3.621263376701387,mp-1211593
Sr2ScTaO6,3.4213,-3.621000172733333,mp-1208776
Er3GaO6,3.5389999999999993,-3.620827871249997,mp-31115
SrLa2Al2O7,2.9162,-3.62055716875,mp-1218238
Ba2PrPaO6,3.4661,-3.620435965166667,mp-1206062
CeAlO3,0.0,-3.620338527999999,mp-19843
Sr2ErTaO6,3.874399999999999,-3.620099640233333,mp-1208927
Ca3UO6,2.260099999999999,-3.619776442499985,mp-14252
CaCeO3,2.2817,-3.619638707999998,mp-756365
Y2U3O11,0.0,-3.619597995312498,mp-39027
Ca6La14Mg7Ti13O60,1.1974,-3.6189598814833333,mp-720199
Sr4Zr3TiO12,2.604,-3.618757124666666,mp-1218572
Ba2GdUO6,0.8429000000000001,-3.618613175999999,mp-1205845
Ba2YbUO6,2.1684,-3.618445308250002,mp-1205759
SrNdScO4,3.7417,-3.618359108214285,mp-1218040