formula,bg,formation_energy,mp-id
SrCaYSbO6,3.3595,-2.97898889,mp-1519209
YbTmO3,0.0,-2.978987808250002,mp-972058
K3Ti3(PO4)5,2.6389,-2.978975377982719,mp-560239
Na2ScCuF6,0.106399999999999,-2.978915552250001,mp-1111065
Na4YTiSi2PO12,2.174,-2.978896680642545,mp-2715544
Sr2PrSbO6,3.4762999999999993,-2.978839951916666,mp-1519896
Na3Y3NbP5SO24,2.2801,-2.9788255758068183,mp-2715939
Na5Y2Nb2Si3(PO8)3,2.0857,-2.978793858910046,mp-2714116
Na15CaNb11(SiO4)18,2.4488,-2.978720330005895,mp-2713142
Na15Ca4Ta8Si9(PO8)9,2.8554,-2.978684626676428,mp-2714256
KMg30AlO32,4.2468,-2.97867816605078,mp-1098637
Na5Ta3GaSi5PO24,3.343499999999999,-2.978636937120669,mp-2716304
SrEuGdSbO6,0.4206,-2.978626051499999,mp-1518060
Rb2U2O5,0.0,-2.9785847222222213,mp-867940
Na8La3NbSi4(PO12)2,2.4671,-2.978582326475878,mp-2715620
Sr2CuSi2O7,0.0,-2.978508342916666,mp-15748
Na3Ti3Al(PO4)6,2.2934,-2.978340331585453,mp-2714793
Li6La3Nb2O12,0.0,-2.978340098913043,mp-778808
LuTa5Ag2O15,2.5698,-2.978307871159419,mp-1210770
Na14La4Hf4Si9(SO16)3,3.7413,-2.978298502786305,mp-2715213
Rb3Lu(PO4)2,4.6991,-2.9779045284608863,mp-1103735
Na5LaNb3Si5PO24,2.249399999999999,-2.977738114441182,mp-2716445
Pr4Se3(O5F3)2,4.005800000000001,-2.977718611247735,mp-560263
EuMg(BO2)5,0.011699999999999,-2.977649124607843,mp-1213294
Na2AlTlF6,4.067299999999999,-2.977590612499995,mp-1110621
Cs2LiTaF6,0.0,-2.9775422172566612,mp-1110970
Na3ZrAlSi(PO6)2,4.2663,-2.9774721459211833,mp-2715498
Na2YAgF6,1.658999999999999,-2.977369576000001,mp-1111092
Na21Ca4Ta8Si15(PO24)3,2.7807,-2.977301872939519,mp-2714498
Gd4Ti(SeO)4,0.3285,-2.977144272516025,mp-554519
Al11(PO4)12,0.0601,-2.977127406277665,mp-1183021
Ho3Ga5O12,3.535,-2.977123041749999,mp-15575
Ba3NaNbO6,3.0766,-2.9767851755799373,mp-8960
Na6Sc2Ta6Si9(SO16)3,2.7956000000000003,-2.9767839784879633,mp-2712848
K2Na4Ca5(Si6O17)2,0.0,-2.976772594912583,mp-1205191
Li4Ti5Nb3O16,0.0,-2.976760085714285,mp-772157
La2BiO2,0.0,-2.976757760000002,mp-1070601
SrYbO3,0.0,-2.976735248250003,mp-1186756
NdAl3(PbO4)2,3.1059,-2.976684114464278,mp-21618
Na15MgNb11(SiO4)18,2.6403,-2.976676171074271,mp-2713524
Sm2TeO6,3.1843,-2.976674183518519,mp-772900
CsScO2,2.9595,-2.976672738663793,mp-754826
Na3BeAl(SiO4)2,4.327500000000001,-2.976630451942528,mp-556258
YSO4F,5.851699999999999,-2.9764699232142853,mp-17769
Sm2HgO4,2.2249,-2.9764535267857153,mp-1208895
Ba3Be2B5HO13,3.6139,-2.976427974670139,mp-1228181
Na9Mg9Al(Si2O7)5,4.1184,-2.976379852381466,mp-1173784
MgNb2Al2O8,0.1905,-2.976336549615384,mp-2218439
Na2La2MgTi2O8,0.0,-2.976088602295019,mp-2226713
Na7MgSc3(PO4)6,4.3991,-2.976076168313309,mp-2714246
Na4TaAl(SiO4)3,3.5237,-2.976066660215107,mp-2716346
Nd2MgTi2S2O5,0.0,-2.9760246188888893,mp-2241459
NaMgTa3(PO4)6,1.7904,-2.976022865511518,mp-2713747
KLiSi2O5,4.7068,-2.9760130617314813,mp-558102
Tm2S2O,2.6958,-2.975967371000002,mp-8763
Mg30AlCuO32,1.228499999999999,-2.975877158906249,mp-1038308
K3NaTi2(SiO4)3,2.6024000000000003,-2.975829658085523,mp-2716502
Na4Ta3GaSi4(PO12)2,3.219299999999999,-2.975792312130779,mp-2715071
Na10Mg3Zr5(PO4)12,3.487299999999999,-2.9757830306133433,mp-2716528
KNaSrMg5(SiO3)8,3.354599999999999,-2.975741527090733,mp-1223601
Ba3IrF6,0.7308,-2.9755531840000002,mp-1206411
Pr3(ReO5)2,0.0,-2.975534523333332,mp-1209366
Na3YNbSi2PO12,2.360999999999999,-2.9755040148557073,mp-2713260
Ti4P6PbO24,2.7893,-2.9754567806054433,mp-554218
Rb2Na2Al3(SiO4)3,0.0,-2.975448708079936,mp-1209704
SmEu2SbO6,0.0,-2.975362039250001,mp-1517734
Rb3Ti4Tl(PO5)4,2.9233,-2.975287868991816,mp-1219659
Rb3Tm(PO4)2,4.6396,-2.975117652984694,mp-1209420
KEuNb4O12,0.0,-2.974987693458334,mp-1523239
Na2Si3O7,4.3057,-2.9749734106465513,mp-556198
Ca2Ga2SiO7,3.5592,-2.9749673087499993,mp-1227526
NdTaO3,0.0,-2.974960111966667,mp-1186324
Na3Ta3GaSi3(PO8)3,3.1069,-2.974939300114411,mp-2712863
BaPrO3,0.0,-2.974917451833333,mp-22705
Eu2YSbO6,0.253899999999999,-2.9749174170000012,mp-1517190
BaCeEuSbO6,0.0,-2.9748571205000003,mp-1522543
Ca8MgSi4(ClO8)2,0.746,-2.974837106935484,mp-686598
Na3ThP3O11,4.9779,-2.974830912114804,mp-558272
Ho2BiO2,0.0,-2.974778947999999,mp-1067937
Ce2SbO2,0.0,-2.974765033999993,mp-20356
Nd2Sn2O7,2.6738,-2.97475702772727,mp-17114
Li3AlSiO5,4.9447,-2.9747119095,mp-1020023
YbNdO2,0.0,-2.9746731099999972,mp-759367
Zr2P2SO12,4.2174,-2.9746696701050412,mp-1215926
Cs2Al2B2O7,4.249,-2.9746650486648982,mp-1019602
K2NaNb(OF2)2,2.4266,-2.974621289587931,mp-1173071
Na6Ca2Ta4Si3(PO6)6,2.685699999999999,-2.974604554569585,mp-2712705
Na6Nb8Si11SO48,2.8614,-2.974595553591567,mp-2714419
Rb3NaNb2O3F10,0.998699999999999,-2.9745898686252272,mp-1219762
MgNb3SiO10,0.0,-2.974535723666666,mp-2241183
Na7Ta2Al2Si5PO24,3.3879,-2.974496529243041,mp-2714583
Na2Zr2Si2SO12,4.1547,-2.974489909662735,mp-2712744
Rb2Be2Si2O7,4.3938,-2.974367648076923,mp-557027
BaNd2PtO5,2.5077,-2.974262720555556,mp-556525
YMg30TiO32,0.0,-2.974262237864583,mp-1037668
RbEuPO4,0.0,-2.974236417091837,mp-18169
Er2S2O,2.6476,-2.974195047499999,mp-8762
Na2Sr2Nb4O13,2.234899999999999,-2.974167288940886,mp-1221316
Ba6Gd2Ga4O15,3.398599999999999,-2.97412295074074,mp-1214608
La4MgTi4O10,0.0,-2.9738531499122822,mp-2231209
BaNd2PdO5,2.219099999999999,-2.973795253888888,mp-8514
NaNb14O36,0.0,-2.973788747674105,mp-707376
SrCaNdSbO6,3.389199999999999,-2.9737859852499993,mp-1518993
Mg30TiAlO32,0.0,-2.973780099739583,mp-1038237
Na10Ti4Nb4Si11SO48,2.4968,-2.973694225401194,mp-2716391
Na6MgTi7(PO4)12,2.1679,-2.9736622579593273,mp-2714651
Ca2Dy3Sb3O14,2.5795999999999992,-2.9736391149999992,mp-1227760
Na8BeAl4Si7(BrO12)2,3.883899999999999,-2.9735015216529233,mp-43188
CaTi2O6,0.0,-2.9734934899074092,mp-1181883
Na6Y2Ta6Si9(SO16)3,2.8003,-2.973479975695169,mp-2713097
Dy3Ga5O12,3.5134,-2.973477162499999,mp-15576
Na7Y2Nb2Si5PO24,2.2647,-2.973460965064179,mp-2714497
Na2TaAlSi(PO6)2,3.2314,-2.973408460142685,mp-2712599
K3Sm(PO4)2,5.0138,-2.97325888471683,mp-18019
NaMg30GaO32,4.1836,-2.973177542169989,mp-1039783
NdGeBO5,4.0084,-2.9731406542708343,mp-540996
Ca2ScReO6,0.0,-2.973097350249999,mp-1214154
Nb2Si(PO6)2,2.9216,-2.9730057629972,mp-2715728
LiMg3P3O11,5.3095,-2.972969114570104,mp-1020109
Na3TaAlSi2PO12,3.4289,-2.9729087091390403,mp-2713269
SrMg30AlO32,0.0,-2.972811240312499,mp-1037969
NaNb6O15F,1.565499999999999,-2.9727800891904033,mp-8084
Na3Y2Ti2P5SO24,2.4194,-2.972715389950962,mp-2716073
SrCaTi4O12,0.0,-2.972706127962962,mp-1518238
Ba2ZnCuSb2F14,0.972599999999999,-2.97266503675,mp-1045711
Sr2Cu(OF)2,0.0,-2.9726358285714283,mp-1025280
Gd2TeO6,0.0,-2.972620136574074,mp-17583
BaLaEuZnO5,0.0,-2.972506868333334,mp-1227966
LiSiBO4,6.4308,-2.972327560357141,mp-8874
RbTa2O6,0.0,-2.972321205796297,mp-1219577
KYMg30O32,4.0359,-2.97226880136328,mp-1037710
CaHfMg30O32,0.0,-2.972235060624999,mp-1037784
Nd2CuO4,0.0,-2.9721301721428572,mp-4158
BaNb7(P2O11)3,0.0,-2.97206294006079,mp-555620
SrYMg30O32,0.0,-2.9719069846874993,mp-1037103
Ba3In(BO3)3,3.493699999999999,-2.971885077135417,mp-866313
K2Na2Eu4Ta2O13,0.0059,-2.97178049356197,mp-1203993
Na12Mg2Ta10Si15(SO24)3,3.135799999999999,-2.9717641220384663,mp-2714999
K5Na3Ta5Nb3O24,1.6022,-2.971761670426365,mp-1075953
YMg30CuO32,1.0525,-2.97165829078125,mp-1037716
LaTa2CuClO7,0.0,-2.971487966222222,mp-1102721
Ce(PO3)3,0.222799999999999,-2.971486411071429,mp-5843
Ca(PO3)2,5.4963,-2.971411012281744,mp-5680
Na6Ta3In(SiO4)6,3.7659,-2.971368719548563,mp-2715346
EuTi4SnO12,0.0,-2.971287507962963,mp-1519079
Mg2Ta2SnO8,2.9612,-2.971287014589743,mp-1045918
Ba2ZnCuSn2F14,0.0,-2.97128607875,mp-1045777
Li2Ti2(PO4)3,0.0393,-2.9712381043295752,mp-1197890
Na2Ta3GaSi2(PO6)4,3.2121,-2.971145388448985,mp-2715606
Mg3Si4(HO6)2,5.1766,-2.971097704166667,mp-696497
Ca(B3O5)2,5.826,-2.970921704558823,mp-558358
Cs2LaNb2O7,0.0,-2.9708361974425292,mp-1213716
Na6Li2Y3Zr3P6(CO17)2,0.304699999999999,-2.970776420942851,mp-1202345
Na9Mg2Ta4Si6(PO12)3,2.912099999999999,-2.970764734455707,mp-2713225
Na5Ta2Al2Si3(PO8)3,3.2047,-2.970745251080987,mp-2714056
Rb3Er(PO4)2,4.6168,-2.9706023558418373,mp-1103762
Ba3UIn2O9,1.5562,-2.9705912688888882,mp-1228397
Li3Ti6Zn3O16,0.0,-2.970499039642856,mp-773081
ScHO2,4.4857,-2.9704737703124993,mp-625663
KNdHfSnO6,3.3158,-2.970457464975,mp-1516381
Na9Ca4Ta8Si3(P5O24)3,2.8829,-2.9703728324389482,mp-2713072
USb2F15,0.3167,-2.97027746,mp-1178972
CaAl4(SiO3)8,0.0,-2.970146521081081,mp-1227202
CsHoO2,2.8143,-2.970132069913791,mp-754154
Sr2La14Zn3Cu5O32,0.0,-2.969849130178572,mp-695252
Li2BeSiO4,6.0565,-2.969780010208333,mp-8070
MgTi2P2O9,0.0,-2.9696142645323143,mp-1044937
Na8La2Zr2Si5SO24,3.628,-2.969580704488917,mp-2715581
NpBeO3,0.0,-2.9694470777500013,mp-973930
Ce3NbS3O4,0.0,-2.969408060227271,mp-683997
Tb3Ga5O12,3.486199999999999,-2.9694034615000002,mp-5965
YInO3,2.051699999999999,-2.969400000333334,mp-504607
BaSrTi4O12,0.0,-2.969314715185185,mp-1520689
Ca2Ta2CuO8,0.6813,-2.969304496128205,mp-1337257
SrMg30TiO32,0.0,-2.9692949559895823,mp-1040356
Na6Hf4Zr4Si7S5O48,3.084699999999999,-2.969162206564539,mp-2713064
Pr3IrO7,0.0,-2.969154539090908,mp-5322
Cs2LiInF6,5.227,-2.969153529583319,mp-1113016
Gd2GaSbO7,2.377399999999999,-2.969041877954545,mp-1224682
Ba5La3(GaO4)4,0.0,-2.968811091964286,mp-1228223
Na3Ta10Zn2Si3(P5O24)3,2.8098,-2.968662731877278,mp-2715602
Dy2BiO2,0.0,-2.968465674666666,mp-1069561
CaMg3O4,3.9,-2.9683950543749993,mp-1024043
BaSr3O4,2.5199,-2.968374765,mp-984729
LiMg30SiO32,0.0,-2.9683186533333332,mp-1040157
Na14Y4Nb4Si11SO48,2.6026,-2.968309539188744,mp-2714446
BaCl2,5.4291,-2.96823858,mp-568662
Na2AlInF6,2.888,-2.968158859458332,mp-1111090
Ca3GeO4F,0.0,-2.968150066666666,mp-1214065
KCaTbNbO6,0.0,-2.968148873141666,mp-1522683
Li6Hf2O7,4.4978,-2.967999715666667,mp-772185
NaZrNb(PO4)3,0.0429,-2.967996331128215,mp-1220811
K3Nd(PO4)2,4.9309,-2.967787349538264,mp-17187
UPbO4,1.5098,-2.967640787499997,mp-504922
Ca2YSnO5,2.4941,-2.967521280555555,mp-1378984
Li11Y14Ti14(S2O5)7,0.0,-2.96751490185606,mp-774552
Rb2AlHgF6,0.0,-2.967438022750001,mp-1112411
Mg2TaNb2O8,0.171199999999999,-2.967383227487178,mp-1048419
Sr4Cl6O,4.558899999999999,-2.9671048659090933,mp-23321
Li7Eu8Si4Cl7O16,0.291399999999999,-2.967102360436509,mp-1223068
Y16Se16F15,0.1477,-2.967064785933786,mp-1216262
CaNb4O8,0.0,-2.9670089035897282,mp-1227240
Na3Hf2Al2P5SO24,4.7516,-2.966828769320331,mp-2715867
Dy2S2O,2.5624,-2.9667975996666662,mp-8324
Al11H2NO17,0.229299999999999,-2.96678178814516,mp-1229270
Na8Sc3TaSi5SO24,3.2907,-2.966780319306377,mp-2715633
CaMg30CdO32,3.9000999999999992,-2.966772023281249,mp-1037934
Eu2NbGaO7,0.0,-2.966763477954545,mp-1225682
CaTmO3,0.0,-2.966752421000001,mp-1183538
K3Gd(PO4)2,1.2922,-2.9667078090025423,mp-978099
Na2CaHf3P4(SO12)2,3.8407,-2.966687847027686,mp-2712718
Na14Sc4Nb4Si11SO48,2.4877,-2.9666098611399643,mp-2714378
NaLa2Ta2P5SO24,2.822899999999999,-2.966603145336008,mp-2716269
Cs2AlHgF6,0.0,-2.966533389181035,mp-1113101
Si12CO24,1.6378,-2.9665256787837833,mp-1219366
Tb2S2O,2.5126,-2.9665027011666663,mp-982366
Na4YNb(SiO4)3,2.519999999999999,-2.966381004230981,mp-2716355
Li7Ti5O12,0.0,-2.9663111137500002,mp-779455
Ba4Nd8Cu3PtO20,0.8457000000000001,-2.966289585277778,mp-1228282
K2Ti2(PO4)3,0.0,-2.966227941320802,mp-6696
Na5Ta3InSi5PO24,3.3076,-2.966006351372806,mp-2716281
NdPb4F11,4.447699999999999,-2.9658663331770962,mp-675342
Na4ZrAlSi2PO12,4.184699999999999,-2.965828903023497,mp-2716236
SrLaAlCuO5,0.0,-2.965721002500001,mp-1208690
Na2Hf4Si3(SO8)3,3.184299999999999,-2.9656010559794073,mp-2713424
GdSO4F,0.2226,-2.9655924146428583,mp-16801
K2YAuF6,1.3878,-2.965587578449999,mp-1112320
NaCeNb2O6,0.0,-2.9655522641379313,mp-1520338
KMg30TiO32,0.6947000000000001,-2.9654296190716143,mp-1098341
YHO2,4.0468,-2.9654263603124993,mp-626151
Mg30AlZnO32,0.726399999999999,-2.9652648412500002,mp-1038353
Rb3Ho(PO4)2,4.7154,-2.9652424747704083,mp-1209402
Na4CaHfSi(PO6)2,3.6472,-2.965221984435061,mp-2714339
NaMg14TiO16,0.4659,-2.9652116863972693,mp-1034101
BaNd2CuO5,0.5842,-2.9651516888888882,mp-6704
YMg30ZnO32,0.559499999999999,-2.9648550148437502,mp-1037725
BaCaPrSbO6,3.4194,-2.964631360166667,mp-1517150
BaPrEuSbO6,0.136499999999999,-2.9646086121666673,mp-1517334
TiNb(PO4)3,2.7411000000000003,-2.964467245427171,mp-1216943
Ti4Bi2O11,2.0972,-2.964461737843135,mp-559154
ZrGeO4,3.750099999999999,-2.964421039166666,mp-8042
KBaB(PO4)2,5.302799999999999,-2.96434354082326,mp-1223526
NaLiMgPO4F,5.1228,-2.964318382983944,mp-1196828
Na2La3Nb5(PO4)12,1.7280000000000002,-2.964153112763899,mp-2713915
K3Nb7O19,2.1521,-2.964123697560344,mp-650928
Rb3Dy(PO4)2,4.6484,-2.964077625960883,mp-1209375
MgSi4SnO10,2.4662,-2.96392378203125,mp-1043375
CsThO3,0.0,-2.963829882931033,mp-1183997
Na3MgZr3P5SO24,3.7498,-2.963647307743754,mp-2716069
Ba6Sm2Ga4O15,3.6226,-2.963562090185186,mp-1214554
Mg30TiCuO32,0.5640000000000001,-2.963554499895832,mp-1037311
NaCeO2,0.0,-2.963524934094827,mp-1101668
CaMg14TiO16,0.0,-2.9633266963541662,mp-1036369
YMg30AlO32,0.452799999999999,-2.963200480312499,mp-1038325
YbHO2,0.0,-2.9631524384375,mp-625103
Na3ScAl(PO4)3,4.5123,-2.963150448903325,mp-2715422
Zr3AgHg3F20,0.751699999999999,-2.9631473068209893,mp-1207441
Na4Ta3InSi4(PO12)2,3.1483,-2.962872678161483,mp-2715052
Na2SrMg(PO4)2,4.996499999999999,-2.962856147467452,mp-1197316
Na3HfMg(PO4)3,4.808,-2.962833313028325,mp-2715374
KNdNb2O6,0.0,-2.9626794144749993,mp-1518752
NaPrHfSnO6,3.4145,-2.9626468018045973,mp-1522088
Eu2TiInO6,0.0,-2.962615741000001,mp-1518128
Ba17Y16Zn8Pt4O57,2.223799999999999,-2.962589080147059,mp-560146
K3Pr(PO4)2,4.8643,-2.9625048259073132,mp-1192352
Mg30TiZnO32,0.0,-2.9623840534895822,mp-1037362
Na6Nb3Al(SiO4)6,2.6276,-2.96235234929023,mp-2715286
LiNb3O7F,0.0,-2.962288806944444,mp-1235339
KCeHfSnO6,0.171999999999999,-2.962232733224999,mp-1517939
Na10Sc2Nb6Si11SO48,2.1863,-2.9621955814695693,mp-2716318
Tb2BiO2,0.0,-2.96205582866667,mp-1068954
Na3Ta3InSi3(PO8)3,3.014799999999999,-2.961964034776573,mp-2713016
Na3CaZr(PO4)3,3.7859,-2.961908288069992,mp-2715471
NaSrTbNbO6,0.0,-2.9618387498045973,mp-1521856
Na10Y2Nb6Si11SO48,2.283,-2.961816596084955,mp-2716460
CaYMg14O16,0.0,-2.961681179374999,mp-1036378
Cs2Li3F5,5.701600000000001,-2.9616748535,mp-560088
YNb3(PO4)6,1.8132,-2.961662914152662,mp-2713827
Rb2U5(PO7)4,0.121,-2.961647804963368,mp-867996
Na6Si8O19,4.611,-2.96158073722048,mp-554033
Sr2GdReO6,0.0,-2.9614581922500003,mp-13936
Ba2LaReO6,0.0,-2.96140979275,mp-20958
Mg3(SiO3)4,0.0766,-2.961359535263158,mp-1200846
YNb2NO5,2.2861,-2.961319315000002,mp-849583
Na2Be(SiO3)2,4.7889,-2.961274072523512,mp-556013
BaLi2P2O7,5.3686,-2.961264845496031,mp-6175
Rb2Ti2(PO4)3,0.0179,-2.961221631741853,mp-1209633
TiP2O7,2.6682,-2.961131424511889,mp-761010
La16Cu8O31,0.246099999999999,-2.961070190090909,mp-758138
Cs2LiNbF6,0.0,-2.9609797047916673,mp-1112580
RbLaO2,3.522,-2.960912605625,mp-7972
Na3Sc2Ti2P5SO24,2.3798999999999992,-2.9608632118428533,mp-2716051
CsDyO2,2.835,-2.960836056580458,mp-754138
Na3YAl(PO4)3,4.6344,-2.960663290153325,mp-2715254
Mg2Ti2O5,0.0,-2.960633022962964,mp-1076652
NaF,6.204,-2.960572454999999,mp-682
Na15Mg4Ta8Si9(PO8)9,2.864199999999999,-2.960511504967026,mp-2714310
Ca2TiSbO6,0.0,-2.9601670018333333,mp-1346697
CaMg30NbO32,0.656099999999999,-2.96005657109375,mp-1037899
Li3Gd(BO3)2,3.1764,-2.960003497569446,mp-559706
Na14Ca5Hf3(PO4)12,4.4009,-2.9599914339637152,mp-2714051
Sm2SbO2,0.0,-2.9598467880000032,mp-1219180
Er2Pa2O5,0.0,-2.9598319961111113,mp-1184187
Na3Sc3NbP5SO24,2.3284,-2.959774822068078,mp-2716071
Ba2Zn7F18,4.050499999999999,-2.959749393333333,mp-541827
SrMg30ZnO32,3.6815,-2.959631764843749,mp-1037598
Li2LaNb6O18,0.0,-2.959585045617284,mp-1210870
Ba2NbInO6,3.3486,-2.959584960666666,mp-20620
Na6La2Ta6Si9(SO16)3,2.611799999999999,-2.959387247406882,mp-2713006
La2RuO5,0.0,-2.959352171875,mp-5299
Na5Nb3AlSi5PO24,2.457,-2.959320842689045,mp-2716481
Na9Ca2Nb10Si9(PO8)9,2.3739,-2.959203506344141,mp-2712917
NaZrTaSi2SO12,3.4013,-2.95914800793774,mp-2715547
Cs2NaMgF6,0.0,-2.959081592568965,mp-989568
BaLiBO3,4.489000000000001,-2.958859195833334,mp-6499
Li5Ti3O8,0.0,-2.958857431041666,mp-756645
Na3HfScSi2SO12,4.209799999999999,-2.958775720831896,mp-2714394
Na14Ca2Hf6Si9(SO16)3,3.4062,-2.958736822623703,mp-2714772
Na6Mg2Ta4Si3(PO6)6,2.764099999999999,-2.958708017288883,mp-2712562
Cs2KMn3F12,0.810199999999999,-2.958681821408525,mp-572298
KLaZrSnO6,2.5782,-2.9586744927249993,mp-1517312
NaYMg6O8,5.967699999999999,-2.9586628400862063,mp-1032845
NaNb3O8,2.4842,-2.958648691364942,mp-623854
KSrB(PO4)2,5.2873,-2.958638512746336,mp-1223450
NaLi3Ti2Al2(PO4)6,2.5346,-2.9586065193658713,mp-776523
HfSO,2.869099999999999,-2.958540832500001,mp-7787
CaMg30CuO32,0.364499999999999,-2.958489151406249,mp-1038089
Ca2Al3O8,0.7739,-2.958430313461538,mp-1214131
Ca2Pr2O5,1.3285999999999991,-2.958393450925925,mp-1183496
Na21Mg4Ta8Si15(PO24)3,2.7557,-2.9583784660289503,mp-2714368
Na6Ta4Ti4Si9(SO16)3,2.0349,-2.958370087749223,mp-2713018
LiCeMg14O16,0.5314999999999991,-2.9583593835416653,mp-1035550
EuHfNbSnO6,0.0,-2.958346192,mp-1517969
Eu(BO2)3,0.0,-2.958343775749999,mp-22248
KMg3Al(SiO4)3,0.0,-2.9583374851124993,mp-1223539
Ta2BiO6F,2.365199999999999,-2.9582727424666673,mp-1217779
NaMgAl3Si8(HO6)4,4.7203,-2.958265346375105,mp-1094103
Na14Y4Zr4Si9(SO16)3,3.6196,-2.958234369778175,mp-2714786
Na2Ta3InSi2(PO6)4,3.0301,-2.958170229073983,mp-2715679
NaCa2GeO4F,3.414399999999999,-2.9581203076532563,mp-1173783
Y6N2O5,0.0,-2.958092744999999,mp-780722
K3Nb8O21,0.0,-2.958041572242187,mp-5867
KHf2BiO6,0.861499999999999,-2.957856520725,mp-1520834
BaNa2Mg(PO4)2,5.0412,-2.95782266478888,mp-861906
Na3Ca2Ta4(PO4)9,2.6917,-2.957790122319575,mp-2713923
ScNb3(PO4)6,1.815999999999999,-2.957782706162465,mp-2713914
NaLiTiAl(PO4)3,2.574899999999999,-2.957641276156555,mp-776520
Na3Nb3AlSi3(PO8)3,2.4141,-2.957557030488284,mp-2712971
KSrB5O9,5.3727,-2.957514786598959,mp-556250
SrLaInO4,3.226099999999999,-2.957507341309524,mp-1218221
PrGeBO5,4.000100000000001,-2.95746886829861,mp-559590
Tb2GdGa5O12,3.5199,-2.957355247291667,mp-1217806
Ba2CuSi2O7,0.1831,-2.9573345916666662,mp-11613
Ca3Nd8(RuO6)4,0.0,-2.95727110025641,mp-1214498
RbBe4(BO3)3,5.1736,-2.957246211911764,mp-556393
Na4Al3Si3HO13,4.0558,-2.957191427573635,mp-39140
LiMg30BO32,4.2494,-2.957106668945312,mp-1040099
Na2ScAgF6,1.7086,-2.957031199833333,mp-1111316
Na6La2Ta2Si5SO24,2.9879,-2.956926818594397,mp-2713760
Ba3In(BO2)9,4.7536000000000005,-2.956924353360215,mp-556038
Na30Ta20Zn4Si33(SO48)3,2.8017000000000003,-2.956917459318573,mp-2716395
Rb2LiTaF6,0.0,-2.956910274566666,mp-1110650
CsK2GaF6,5.3211,-2.956793016165517,mp-1112316
LiLaMg14O16,5.289,-2.9566689296354163,mp-1035532
NaTa3GaSiP5O24,3.1473,-2.956638000783626,mp-2715807
KGdNb2O6,0.0,-2.956507740724999,mp-1520108
KMg3AlSi3(HO6)2,0.0,-2.956504424761362,mp-1223564
TiPO4,0.058199999999999,-2.956461151329365,mp-5839
Al24Tl10Cd7(SiO4)24,2.6717999999999993,-2.956410770766046,mp-697313
NaLaHfP2SO12,4.1715,-2.956373452305465,mp-2712541
Na2Mg5(PO4)4,4.9369,-2.956213745049261,mp-561486
MgNb3O7F,0.0,-2.956058087916666,mp-2218183
Na8Y3TaSi5SO24,3.183899999999999,-2.9560351425206632,mp-2715634
Cs2Nb4O11,3.0055,-2.955835613341785,mp-581217
Na12Ca2Ta4(SiO4)9,2.8449,-2.9558203135061123,mp-2716399
TmInO3,2.525899999999999,-2.955722868333334,mp-1101263
Na3La2Ti2P5SO24,2.3703,-2.955642045176186,mp-2716006
K2SrNb5O15,0.0,-2.9556372928043473,mp-1211970
Na2LaTi(PO4)3,1.9299,-2.955512954737923,mp-2713605
Na15Ca2Nb10Si15(PO24)3,2.6195,-2.955457299184771,mp-2716552
Ca2Al2Sn2O9,2.8373,-2.955365727833334,mp-1196891
Pr2Sn2O7,2.6358,-2.955287218030299,mp-4394
MgNb4O10,0.278999999999999,-2.9552704543333332,mp-2232190
LaEu2SbO6,0.032799999999999,-2.9552216555000013,mp-1516367
Eu3ReO7,0.0,-2.955182402499991,mp-581427
Na7Sc2Al2SiP5O24,4.5951,-2.955078727224458,mp-2715610
MgTa4O12,0.0,-2.955021527313726,mp-1234639
K2TaNbO6,1.7028,-2.954898269183333,mp-1207114
Na14La3Nb5(SiO4)12,2.1245,-2.9548875015566303,mp-2712988
NbBO4,2.458899999999999,-2.9548057465277773,mp-8615
CaSi2SnO6,3.3723,-2.9547958025,mp-1041529
Na6Ta3Al5(PO4)12,3.0561,-2.954761313369235,mp-2714836
Rb3NbF6,0.0,-2.95474255725,mp-1113826
Eu3GaO6,0.0,-2.95472423825,mp-1184814
Rb3InF6,5.1243,-2.954672109916665,mp-1113830