formula,bg,formation_energy,mp-id
Na30Ta8Zn16Si15(S7O48)3,2.2704,-2.34567331191259,mp-2714984
TiZnAg(PO4)3,0.2983,-2.345600785496031,mp-1043771
Pr30Ti24Se58I8O25,0.1791,-2.345480533040947,mp-556938
ScGeP(SO6)2,1.7542,-2.345448784880952,mp-2712908
Na2In2P2SO12,3.1849,-2.345356531467246,mp-2713294
Ba3P2(SeO)4,1.3262,-2.345350810281593,mp-1192881
NbHg2F6,0.0,-2.345333691759385,mp-675723
Na3Ca3In(SO4)6,0.384399999999999,-2.345311861418143,mp-2715051
Si3O7,0.204999999999999,-2.345288176999999,mp-1250755
KLiPH2O4F,5.138,-2.345249437522619,mp-690708
NaLi2RuF6,0.0,-2.34505622395833,mp-1111341
Na3InSi2GeSO12,1.7953,-2.3449465958318982,mp-2714343
NaTiZnP(SO6)2,1.7425000000000002,-2.344928320334565,mp-2714585
Ba2OsO4,0.0,-2.344879587142856,mp-1147775
Cs2TlHgF6,0.0,-2.344871768514369,mp-1113141
Pr2C(NO)2,3.716999999999999,-2.344858268333333,mp-9497
Sm4(ErS2)11,0.0,-2.34482145635135,mp-1203078
Li3Cu(PO4)2,0.031,-2.344803872091836,mp-504348
Cs3GdCl6,3.1365,-2.344684011749998,mp-1112364
Na2MgGe3P4(SO12)2,1.517399999999999,-2.344682178879538,mp-2712676
NdBrO2,3.1288,-2.344556456875,mp-1025511
Na4Zr2Ge5HO16,2.4674,-2.344474440955972,mp-1210330
PuCl3,0.0,-2.3443700303125,mp-22918
LiGdCl4,0.9064999999999992,-2.3443368752777762,mp-28122
BaCa2In6O12,1.9489,-2.344332168095238,mp-1228325
CaCdO2,0.375499999999999,-2.3443179474999982,mp-753287
SrEuGaBiO6,0.0,-2.344270700250001,mp-1520538
RbLi2B3Sb2O9,2.6702,-2.343964623333334,mp-769329
Na2Zr2Zn2SiS5O24,2.4994,-2.343945227229406,mp-2714615
K3GdCl6,2.852999999999999,-2.343868613374999,mp-1211966
TlSnF7,1.8333,-2.343756699444444,mp-17649
Np3SeO13,0.064799999999999,-2.343735066387869,mp-1196690
Li2CuSiO4,0.0,-2.343638917708333,mp-758311
Sr5(AuO4)2,1.1214,-2.343511762000006,mp-28796
Ca(GdS2)2,1.4034,-2.343501229464284,mp-36358
PrBi2BrO4,1.2269,-2.343494804583335,mp-551900
Na7TaZn3Si3(SO8)3,1.5454,-2.343435089987526,mp-2714282
BTe3(OF5)3,3.7899,-2.343432184280303,mp-561226
CeErS3,0.0,-2.343123268249997,mp-1202288
Na10Ca3Si6Ge5(SO8)6,0.236,-2.343110125561451,mp-2713125
K3Al2(AsO4)3,3.2748,-2.3430949453375,mp-1197125
K2LiBO3,3.5825,-2.343015470999999,mp-557632
ScCl3,3.8723,-2.343001440624999,mp-23309
NaAlInP(SO6)2,3.6385,-2.342969394223454,mp-2714370
Dy5Bi11O24,2.6641999999999992,-2.342733042083334,mp-757587
UCd(PbO3)2,1.6502999999999992,-2.3427030044999992,mp-972600
Na3P3O10,0.9844,-2.342638726754156,mp-1197951
LiCu(PO3)4,0.6922,-2.342573588716932,mp-26262
BaNaPrSeO6,1.9163,-2.342545628538972,mp-1520242
BaP3NO11,2.4885,-2.342527926808036,mp-1202402
Ca2SiO6,0.0,-2.342372442222222,mp-1205089
La2Se3,1.58,-2.342295032187499,mp-32798
K2RbScCl6,4.0698,-2.3422498927,mp-1111207
Sm3Eu3S8,0.0,-2.342188863571428,mp-675396
Na14In4Ga4Si7S5O48,2.065299999999999,-2.342131176424517,mp-2715595
BaClO,0.413099999999999,-2.34191983,mp-1214435
Na3MgGaSi(SO6)2,2.7683,-2.341796032498564,mp-2712641
CuSnF6,0.099499999999999,-2.34176580625,mp-4701
Rb2NaAuF6,0.591,-2.341675199637931,mp-1113688
NaGaSnP2SO12,2.9705,-2.341583002536947,mp-2712699
NaTaZnSi(SO6)2,1.7472999999999992,-2.341456093632185,mp-2712612
K2Ba6Yb3Bi5O24,0.0,-2.341419123937504,mp-684786
La2(SeO3)3,3.606699999999999,-2.3413267883593822,mp-4350
La4Cu4SeS3O4,1.6142999999999992,-2.3413110421777352,mp-1223082
KZn2(PO4)2,0.028599999999999,-2.341197496656592,mp-1194488
Zr2Ga2SiS5O24,2.904499999999999,-2.341175158504902,mp-2712895
BaSi2(NO)2,3.0102,-2.341155775714285,mp-6764
Sr4Cu2O7,0.7570999999999991,-2.341121934615382,mp-766217
Ca2(BO2)11,0.0,-2.341032974023809,mp-1197224
TaIn3O7,1.3617,-2.340925937939393,mp-1101705
Rb2SbAuF6,0.7453999999999991,-2.3409232105,mp-1111402
Sm4(TmS2)11,0.0,-2.340901972837839,mp-1208949
SnAsF7,3.3038,-2.340877144166668,mp-27405
Cd2P2O7,2.713899999999999,-2.340521466753244,mp-27686
Ba3CuSb2O9,0.0,-2.340475947,mp-17145
Na6Ti4Zn4Si3(S3O16)3,1.4096,-2.340465565213188,mp-2713926
B8PbO15,0.0,-2.340410253993055,mp-1201012
Na3B5H4O11,4.831799999999999,-2.340274945107444,mp-720296
ZnBP2PbO9,0.3284,-2.340207384532313,mp-1192901
Mg2BP3(H3O7)2,5.3457,-2.340186558772894,mp-553891
RbTmO3,0.0,-2.340062960500002,mp-981550
Na2Mg3Ti(SO4)6,0.328899999999999,-2.340059317947,mp-2714037
Zr2In2SiS5O24,2.1781,-2.339997111985294,mp-2712839
K2GaPCO7,3.853,-2.3399928188869032,mp-772857
P3(PbO5)2,0.0,-2.3399907189285702,mp-729974
PrBrO2,3.1552,-2.339951915416666,mp-1025461
K5Ce2H2S6O25,0.5116,-2.339948261468749,mp-710070
Na7MgIn3Si3(SO8)3,0.1034,-2.3399040985485,mp-2714115
Sr9Zn2(CuO7)2,0.0,-2.339837582592593,mp-1377393
KU3AsO15,0.0,-2.3397484824875,mp-1224052
AlP2H4O8F,5.4863,-2.339717536361606,mp-1247815
Rb6Na2U2C6O23,0.175099999999999,-2.339708810327143,mp-1219749
Na6Nb2Ga6Si5S7O48,1.3509,-2.3396132932762512,mp-2715987
Na6Mg7Ti(SO4)12,1.8918,-2.33957412666589,mp-2714978
Ca3Ge3(RhO6)2,1.5931000000000002,-2.339499759124999,mp-1214274
Mg6SiBO8,0.7093,-2.339467914947916,mp-1030869
Na10TaIn7Si6(SO8)6,2.5692,-2.339352609693929,mp-2713172
HoZn(SnO3)2,0.0,-2.339320041499999,mp-1048854
Bi5O4F7,3.0651,-2.339283810625001,mp-760230
Cs2NaAuF6,0.6262,-2.339185635068966,mp-1113077
BaSrSi4(NO)4,3.5329,-2.3391754075,mp-1227610
Lu3Bi(Ru2O7)2,0.0,-2.339031412272726,mp-1222434
SrEuSe2,0.0,-2.338927008281249,mp-1218279
KNaP2H2O7,5.4362,-2.338919022531925,mp-504943
SrGe4O9,3.0685,-2.338752899642857,mp-9380
Na2P2H2O7,5.215,-2.338663634964948,mp-698063
ZnCu(PO3)4,0.0146,-2.3385369890873,mp-1359749
Si6Bi9O26,0.0,-2.338519968780489,mp-1266421
PrMg(SbO3)2,0.0,-2.338440109666666,mp-1044416
K2MgZn2(PO3)6,0.8884999999999991,-2.338379823357143,mp-1233329
Sr3CdPtO6,2.0334,-2.338376244999998,mp-10392
Na2Mg5Ti3(SO4)12,1.5367000000000002,-2.338243520444171,mp-2714656
Na2P2PdO7,1.6031,-2.338201858503694,mp-8989
Na10Ga4Si7Sn4S5O48,2.1873,-2.338183828734528,mp-2715938
Li4B4Sb2SO16,2.588199999999999,-2.337999399907407,mp-768968
NaNbGa3P3(SO8)3,2.1227,-2.3379397701992732,mp-2716430
TmMgSb(PbO3)2,2.6933,-2.337852358636363,mp-2223632
Sn3P3O13,0.0,-2.337786284680452,mp-1041231
Na2Be3Si3O8,0.0552,-2.337763281109914,mp-1221869
Zr2N2O,1.6503,-2.337749208249997,mp-675993
Na4P3H3O11,4.9963000000000015,-2.337717104318848,mp-774455
NaTaSi3Ge3(SO8)3,1.989399999999999,-2.337655117891789,mp-2713765
Na2MgGaP(SO6)2,3.2524,-2.337648140082534,mp-2713468
K4Ba2B14H16O33,4.9133,-2.337593354743961,mp-1199499
SrEu4Se5,0.0,-2.337416025531252,mp-1218290
KAlH6(OF3)2,7.1417,-2.337382004046875,mp-723378
B10Pb4O21,0.1058,-2.337348091476191,mp-1203744
Na15S5Cl(O5F)4,4.9473,-2.337288606478288,mp-554285
RbCuF3,0.0,-2.337212868500001,mp-8858
NaZnSiHO4,3.4269,-2.337114669391163,mp-699219
SrBiBrO2,3.1643,-2.337092985000001,mp-552234
Sr(GdS2)2,1.338199999999999,-2.337075338035719,mp-37183
CaBi2(PO5)2,0.0,-2.337000679619047,mp-1043585
LiBP2Pb4O11,2.589899999999999,-2.3369858204229312,mp-1203380
Pr9(SbO)5,0.0,-2.3368891931578952,mp-555896
SrGa12O19,1.8571,-2.3367242425,mp-863423
TmBi2IO4,1.425899999999999,-2.336686201875002,mp-552738
KNa2Tb(SiO3)8,0.0593,-2.336665016018758,mp-1198876
CeHo4S7,0.0,-2.336650722149843,mp-1226677
KScO3,0.0,-2.33650292545,mp-973960
Cs3ScCl6,3.984,-2.336381622249999,mp-1203917
Li2SnBO4,1.395299999999999,-2.336329271666666,mp-770833
Li2CuB4(PbO5)2,0.9895,-2.336317672280689,mp-1202669
LiMgAl3(SO4)6,5.8981,-2.3362951593809522,mp-1265272
TaTl(GeO3)3,3.6578,-2.336258460047633,mp-540634
SrIn2(PO4)4,0.0,-2.336233149213249,mp-1201013
TbSBr,2.927699999999999,-2.336142777222209,mp-1208299
Na10Mg4Si5Sn4S7O48,0.9577,-2.336117412046493,mp-2715113
Ta3Bi7O18,2.6388,-2.335898079714286,mp-1196419
NaNbSi3Sn3(SO8)3,1.6004,-2.335830718444171,mp-2713975
Sr2AlGaCu2O7,0.0,-2.335305610961537,mp-1048042
BaGa12O19,1.9266,-2.335301744687499,mp-850536
Na3Ca3Ga(SO4)6,2.8594,-2.335296121080305,mp-2714942
Ba3Al4(Sb2O7)3,0.0,-2.335284351029411,mp-1358157
NaSrPrSeO6,2.1145,-2.335145902538973,mp-1521459
Ba2YSb3O8,0.0,-2.335081553571428,mp-1395169
P2Pb3O8,3.3803,-2.334980531098899,mp-505799
Al2(SO4)3,6.0272,-2.3349570783823532,mp-4417
Gd2S3,0.5267000000000001,-2.334843926187497,mp-669509
Ta3Te4ClO15,2.5158,-2.3347117352681432,mp-1208669
Ba3Bi2TeO9,2.1188,-2.334691380444445,mp-556407
Na5TiZn3P3(SO8)3,1.5127000000000002,-2.33458761034167,mp-2714682
Li3SiBiCO7,3.579099999999999,-2.334406669230769,mp-768609
LuBi2IO4,1.4425,-2.334368720208334,mp-550635
Na10Mg6Si3Ge2(S3O16)3,1.2253,-2.334288955401194,mp-2714861
Na2CaSiSn(SO6)2,0.789,-2.334245148127646,mp-2713701
CeCuO3,0.0,-2.334185237,mp-977389
Ca2Sb2O5,1.5487,-2.334118824444444,mp-1344288
NaSr2OsO6,0.0,-2.334082770137931,mp-1205676
NaGe4P5SO24,2.2664,-2.334009262821722,mp-2716261
Rb2Li14Tb3O14,0.0,-2.3339671818686862,mp-556675
Na3IrF6,2.0362,-2.333949917999999,mp-1110568
LiPr2(BrO2)2,0.8480999999999991,-2.333881082962962,mp-1235538
Li2Bi(BO3)2,0.0389,-2.333873465454545,mp-768437
NaMgAl(SO4)3,5.0139,-2.333801029196999,mp-2714149
Cs4HfO4,2.7399,-2.333387039291186,mp-771139
Ba3NaOs2O9,0.0,-2.33338267875862,mp-542208
Pm2S3,2.4211,-2.3333599866874972,mp-863259
UPClO6,0.157,-2.333299512738095,mp-1217036
Li14Cu9(P2O7)8,0.394099999999999,-2.333269034115288,mp-762439
La2Cu2SeSO2,1.6117,-2.333242023730468,mp-1223243
SbOF3,2.6517,-2.333216601,mp-757111
Al5(CuO4)3,0.0,-2.3329679725,mp-1362276
TiSiGe(SO6)2,2.5644,-2.332957388921569,mp-2713169
Sr7Cu2HgBiSbO15,0.0,-2.332822416018518,mp-1218732
Rb2Na2MgTi2O6,0.038799999999999,-2.332731118417329,mp-2218753
Li4Be3As3BrO12,3.8547,-2.33271130655797,mp-1211214
Cs7Np3(Cl2O)6,0.371299999999999,-2.332693585494151,mp-585476
Na2Mg2(SO4)3,5.2388,-2.332602224662736,mp-2714819
Sm39S56,0.0,-2.332588432578946,mp-684860
MgBi2F12,1.8808,-2.332517159,mp-1210707
Sm(GdS2)2,0.0,-2.332450028571427,mp-676424
Mg2Be3(NF6)2,0.0,-2.332433575263158,mp-1211021
Cs2TlCuF6,0.0,-2.332421550263185,mp-1112637
NdNbO2,0.0,-2.332329495625,mp-1210033
NpCO4,0.450499999999999,-2.332236571041667,mp-1191563
ErBi2IO4,1.375,-2.332201546875,mp-551250
Hf3ZnF6,0.0,-2.3322006650208382,mp-1206063
LaBrO2,3.300799999999999,-2.332198826250001,mp-1206208
EuMg(ReO4)2,0.0,-2.332160087083334,mp-2218108
TiInP(SO6)2,2.1946,-2.332152183018208,mp-2712944
Sm4(LuS2)11,0.0,-2.332148060765765,mp-1201126
Rb2EuCl5,0.0114,-2.332081015000001,mp-1209650
Ba2YSn3O7,0.0,-2.331947125384615,mp-1048035
Na3Mg3Al(SO4)6,4.789,-2.331932017769494,mp-2715023
NaHoIrO4,0.0,-2.331923119482757,mp-1220804
Ca2SnIrO6,0.0,-2.331815417,mp-1345396
BaAl2O6,0.7308,-2.331769617222222,mp-1251718
NaMgAl3(SO4)6,5.2574,-2.3316617503251242,mp-2714755
Na10Ca4In4Si3(S3O16)3,0.0,-2.331577764119142,mp-2714913
Na2PdF4,1.2356,-2.331523762142857,mp-3622
NaAlSiSn(SO6)2,2.607199999999999,-2.331508542391444,mp-2712782
LaTlO3,0.349699999999999,-2.331392621666668,mp-29257
Ba9(LaS6)2,2.379,-2.331263360434782,mp-675219
U12Cd4H6C4O51,0.0,-2.331234730681818,mp-1217885
BaEuInBiO6,0.0,-2.331222296666667,mp-1523047
TiP2H4O9,2.9959,-2.3311336128199422,mp-707483
Na2Sc4Si3Ge4(S3O16)3,1.206199999999999,-2.331099905432266,mp-2716443
Ba5In5O12,0.0,-2.331098504242424,mp-753422
Cs2Li14Tb3O14,0.0,-2.3310820583629392,mp-8711
Nd4Mg(Cu2O5)2,0.0,-2.331022414999999,mp-2228412
La2Br5,0.0,-2.330986979285713,mp-28571
Na4CaSi3Sn3(SO8)3,0.0,-2.330861044728524,mp-2713675
Li3SiSbCO7,3.6281,-2.330644334230768,mp-771304
Ba9Ge23O57,0.0,-2.330543492359551,mp-1202498
Ba2YTlSn2O7,0.0,-2.330456114487179,mp-1409888
RbNbAsClO5,3.1146,-2.330440385555556,mp-556645
KAg(PO3)2,2.9041,-2.330342446070238,mp-557874
U2Ag(GeO6)2,0.0,-2.33030369862745,mp-1201239
Sr2CePrCu3(PbO5)2,0.0,-2.330169242192983,mp-1218877
Na4ZnSi2SnSO12,1.3491,-2.330152090778599,mp-2714570
Gd3Te2NO,0.844499999999999,-2.33012935404762,mp-1194646
SmEuS2,0.0,-2.330073638750001,mp-1219053
Be2BH3O5,5.6261,-2.3300706152651522,mp-1227442
BaMg6BiO8,0.539099999999999,-2.330030460624999,mp-1033406
LiSbPO5,1.6401,-2.330028612247024,mp-775867
Cs2LiAuF6,0.529799999999999,-2.330019072264368,mp-1112579
Rb2Na2SiO4,3.2566,-2.329949241139846,mp-559711
CuP4O11,0.6119999999999991,-2.3299170672544642,mp-505436
La3Pt3O11,0.0,-2.329891153676469,mp-768523
Ce10US16,0.0,-2.329884735740746,mp-676880
Cs3SmCl6,4.7485,-2.329584442500001,mp-1112348
BaS,2.1488,-2.329565223749999,mp-1500
Na10Mg3Si6Ge5(SO8)6,0.7746999999999991,-2.329479809599912,mp-2716567
Ce4(LuS2)11,0.0,-2.3294362009901772,mp-680039
ZrP2CO6,1.5871,-2.329400336928572,mp-725603
Na9Mg11Ta(SO4)18,1.6744999999999992,-2.329325734952677,mp-2715156
NbGaSi(SO6)2,2.1567,-2.329291826617646,mp-2713498
SrLaCuRuO6,0.0,-2.329233926928572,mp-677659
La4Os6O19,0.0,-2.329128395689655,mp-541612
RbAg(PO3)2,2.9292,-2.3290688688452392,mp-1209385
Na2Be(GeO3)2,3.4171,-2.329063383129568,mp-554828
Sr(La2Se3)4,0.0,-2.329037291607154,mp-34412
K2PO4,3.2014,-2.328952516306122,mp-555840
USeO6,2.0194,-2.328941733105469,mp-562338
Na3Mg5Ta(SO4)9,2.1882,-2.328940055258728,mp-2714027
NaCaPrSeO6,2.721199999999999,-2.328876272538972,mp-1519049
Sr6Te6O17,1.782499999999999,-2.328850911982758,mp-706599
Li2Sn4P4O15,2.9278,-2.328705005809523,mp-765351
Sn3BrF5,3.088,-2.328645228055555,mp-23452
Ce2C(NO)2,0.0,-2.328577454999999,mp-1025352
CsCOF3,6.1248,-2.3285741220258642,mp-14734
La5S8,0.0,-2.328549440312499,mp-32640
Na2Zr(MoO4)3,2.7872,-2.328343660708812,mp-18492
Na7TiNb2Si4P2O29F,0.2798,-2.32833659526683,mp-1200090
Na3AlSi3Ge3(SO8)3,2.2239,-2.328295514638863,mp-2714904
BaH6F8,7.571899999999999,-2.328292768499996,mp-557810
SmB7IO15,0.5477000000000001,-2.328236730069444,mp-1203095
Na3ZnGaP2SO12,2.8625,-2.3282311305045162,mp-2712652
Na14Zr2Zn6Si5S7O48,2.4916,-2.3281206094123212,mp-2716091
TlZnF3,3.9179,-2.328041165000002,mp-998745
Ba3SrIr2O9,0.0,-2.328023163,mp-554266
Rb2PuCl5,0.154399999999999,-2.327985807343752,mp-29333
Mg5Pb(SO4)6,5.0961,-2.327926294351852,mp-1211946
Nb2Zn4O9,2.5331,-2.327878003666667,mp-17808
Pb3BrF5,2.9997000000000003,-2.32785943111111,mp-1220836
Cs2RbAuF6,0.7939,-2.3278374656810352,mp-1111977
Ce(NdS2)2,0.0,-2.327747947678576,mp-37199
Na6ZnSi4Ge3(SO12)2,1.2574,-2.327682180873564,mp-2714516
HoBi2IO4,1.391099999999999,-2.32765876125,mp-551101
CaSnO2,0.0,-2.327607082499999,mp-1379010
Dy3Bi(Ru2O7)2,0.0,-2.327571992499999,mp-1225336
NaDyIrO4,0.0,-2.327569479482758,mp-1221061
Na18Nb4Zn8Si9(SO8)9,0.54,-2.327488557519396,mp-2716209
Sr2GaBiO6,0.0,-2.32745525075,mp-1523254
RbZn4(BO3)3,2.7811999999999992,-2.327454889411765,mp-542143
Na2Y4Si3Ge4(S3O16)3,0.4364,-2.327446180289409,mp-2716484
SiSnO4,1.233399999999999,-2.32737861125,mp-1142770
LiSn4(PO4)3,3.7798,-2.327332105863095,mp-673024
KCaTbBiO6,0.0,-2.327247026641667,mp-1516612
Rb2TlHgF6,0.0,-2.327202730083335,mp-1113908
CsZn4(BO3)3,2.825999999999999,-2.327153736303246,mp-1019723
Y2SiSn2S5O24,1.3956,-2.327102009240196,mp-2712902
Na9Nb4Zn8P9(SO8)9,2.1109,-2.327057124249546,mp-2713977
Li2PtF6,2.4964,-2.3270446503703712,mp-13986
Na2Y4In4SiS11O48,0.667999999999999,-2.326941095598932,mp-2714095
Na24Ta2Zn10Si9(SO8)9,2.5298,-2.326870136946588,mp-2715037
LuP2H4NO7,5.068300000000001,-2.326774665730158,mp-601348
RbLiMg6O7,0.0,-2.326762586388888,mp-1031127
Zr3ZnF6,0.0,-2.326734642000002,mp-1206842
Yb3Sb5O12,0.0,-2.326643973,mp-22019
NaCu(PO3)4,0.7094,-2.326563028330596,mp-776597
Mg6CdBiO8,0.000899999999999,-2.3264775206249992,mp-1033256
NdP4NO12,0.0,-2.326074810615079,mp-1209939
Sc2Cu2Ge4O13,0.190999999999999,-2.326044577380953,mp-19949
BaBiBrO2,3.069099999999999,-2.326006932000001,mp-1206552
Sc4NCl6,0.0,-2.32578594,mp-23414
NaSnPHO4F,3.7328,-2.325784416641352,mp-1203874
K2BiAuF6,1.0663,-2.325779534449999,mp-1112330
Na10NbIn7Si6(SO8)6,0.052699999999999,-2.325776108916152,mp-2713351
DyBi2IO4,1.3667999999999991,-2.325755380833334,mp-546266
Eu(LuS2)2,0.383899999999999,-2.325516188511914,mp-34255
Na6Y4Zn4SiS11O48,3.797899999999999,-2.325492173839314,mp-2713653
KErO3,0.0,-2.325421858449998,mp-973830
Na6Ta2In6Si5S7O48,1.271,-2.32519661723571,mp-2715864
Cs2PdF6,2.306499999999999,-2.32513731888889,mp-504729
Na2GaAuF6,0.306,-2.325130192025862,mp-1111305
KZn4(BO3)3,2.8200000000000003,-2.324909601161765,mp-6652
NpIO,0.0,-2.324902197916666,mp-556939
Ba2Zr6BCl17,1.0883,-2.324829702660257,mp-568105
Sb3(BrF8)2,0.062699999999999,-2.324827283809524,mp-27318
CsLiMg6O7,0.0,-2.3248214178658992,mp-1099243
Na14In8Si7S5O48,2.386199999999999,-2.3248213314651682,mp-2715669
KAl(SO4)2,5.540900000000001,-2.324786537687498,mp-7645
Na6Ga4Si3(SO8)3,2.5334000000000003,-2.324707018436064,mp-2716196
MgSb2(O2F)2,2.4868,-2.324663188333333,mp-2240002
ErH(SO4)2,5.7564,-2.324336424062499,mp-860971
KLa5(CCl5)2,1.954099999999999,-2.324297411097223,mp-571240
Na6Mg16Nb8Si3(S11O48)3,0.0,-2.324205519360838,mp-2714265
MgTi(SO4)3,2.2063,-2.324109869852942,mp-2713802
K2NaAuF6,0.5742,-2.32410380858793,mp-1111920
Na2MgInP(SO6)2,3.2079,-2.324089593196569,mp-2713129
Nd4(SBr2)3,2.809599999999999,-2.324033690961537,mp-555088
NaCaSnP(SO6)2,1.053699999999999,-2.323996733297528,mp-2714604
LiSb2P5O18,0.0392,-2.3239686594826012,mp-673090
Ca2Cu2Si3(HO3)4,0.5920000000000001,-2.323958644347825,mp-1182601
NdTeBrO3,0.342699999999999,-2.3238339965277772,mp-556060
RePO5,0.0,-2.323798486020409,mp-867296
Na3ZnInP2SO12,3.272,-2.3237590812128492,mp-2712712
BaP2(HO2)4,5.801,-2.323708426285713,mp-706400
GdB(SO4)3,2.6591,-2.323621034656863,mp-1194925
KLaPdO3,0.4392,-2.323481649541666,mp-556475
Ba(PrS2)2,2.1235,-2.323321349047618,mp-36223
Na3AlZnSi(SO6)2,3.584199999999999,-2.32330460879023,mp-2712811
Cs3NaLi2(BO3)2,3.6137,-2.323294394667487,mp-607931
TbBi2IO4,1.326699999999999,-2.323286912708334,mp-552857
Li6Cu5F14,0.0,-2.323160888599999,mp-760015
RbMgNbO3,1.9038,-2.32315563125,mp-2227220
Na4B4Sb2SO16,1.9099,-2.323136091469774,mp-769713
KRb2AuF6,0.7444000000000001,-2.3230942082249992,mp-1113893
PrP4NO12,0.0,-2.3230130650132272,mp-1200419
Li5Ga(GeO4)2,3.0043,-2.322935971822916,mp-1222561
Bi6O5F8,3.090799999999999,-2.3228886615789492,mp-760370
Ca2Eu(CuO3)2,0.0,-2.322864548181818,mp-1228042
KBaPrBiO6,0.0,-2.322641931891667,mp-1516591
K6Be4C6O19,4.8084,-2.322617156528572,mp-555866
K2EuCl5,0.0,-2.3226067624375,mp-1212510
NaTbIrO4,0.0,-2.322461999720853,mp-1220923
TmSb(PbO3)2,2.5853,-2.3224190385,mp-865526
HgSb4C2(OF11)2,4.3387,-2.322365716693549,mp-556903
Li2GeO3,3.568,-2.322120966111109,mp-15349
Na6Al4Ga4Si3(S3O16)3,2.6364,-2.322109011789765,mp-2713796
Nd2Tl(MoO4)4,0.0,-2.321998445797103,mp-543110
RbSF5,4.7124,-2.3218621600000002,mp-28555
Ce(PrS2)2,0.0,-2.321770512261896,mp-1226961
La4Cu4Se3SO4,1.5626,-2.321739771533203,mp-1223088
Th3Se3O16,0.0105,-2.321724118501419,mp-1195308
KNa2IrF6,1.497199999999999,-2.321667562000861,mp-1111012
BaYMgCuBiO5,0.0,-2.321633030000001,mp-2242083
CaHf8(N2O)4,0.2834,-2.321558593809522,mp-1233057
BaSrGaBiO6,0.0,-2.32152102575,mp-1521803
Na5(SiO3)6,0.0,-2.321475123686088,mp-945194
Cs2Zr2ZnH12(OF2)6,4.2309,-2.32136887226601,mp-697946
YP4NO12,0.0,-2.321322884503969,mp-1200252
Sc7NCl12,0.0,-2.3213078785,mp-29579
Ba3MgIr2O9,0.0,-2.321280814333334,mp-554909
SrHBrO,4.3214,-2.3211875803125,mp-1080045
K2Eu2O3,0.0,-2.320944256357143,mp-755649
BaLa2Te5O14,3.2436,-2.320939061060606,mp-559703
NaGaBP2H3O10,4.9585,-2.320842966448982,mp-1199672
Zn2Si3Pb4SO15,3.6073,-2.320722304299999,mp-559184
Sr5Zn(PbO4)3,1.197,-2.320608102380953,mp-1218569
Ca3Zn3(TeO6)2,2.3035,-2.320574276791666,mp-14778
K3Np(HO3)2,1.1955,-2.320540587541666,mp-1195299
Sb2Os(OF7)2,1.3859,-2.320517336315789,mp-1201470
LaBiO4,0.8831999999999991,-2.320500991666666,mp-770464
Na6Ca4Si3Sn4(S3O16)3,1.173299999999999,-2.320492536023999,mp-2713758
RbAl(SO4)2,5.4928,-2.320185810208333,mp-1209303
Rb4TiO4,3.0341,-2.320139532314814,mp-771127
Nb2Zn2BiO8,0.0,-2.320092744999999,mp-1045676
Li2Sn5(PO4)4,2.511,-2.319808908156966,mp-757282
Ba2InOsO6,0.4224,-2.319753972666666,mp-1207040
Sr6CaY2TiCu6(HgO10)2,0.0,-2.319615710482456,mp-1218668
Cd2PO4F,2.3713,-2.319555828705356,mp-557910
La2SiSn2S5O24,1.160899999999999,-2.319540240612746,mp-2712941
BaMg3O4,0.776899999999999,-2.319510490625,mp-1024040
NaAlSiGe(SO6)2,2.0735,-2.319390753595148,mp-2712595
RbCOF3,6.3606,-2.319355627916666,mp-1209379
Zn7Cd2(PO4)6,3.0079,-2.319350872957875,mp-1217216
Li4Sn2P4H3O16,0.265,-2.319329579850163,mp-777312
Na2Hf4Zn4SiS11O48,3.083,-2.319307059932266,mp-2714085
Zn3BPO7,3.071399999999999,-2.319237533511904,mp-1178725
SrP2(XeF6)3,2.6253,-2.319229918928571,mp-560352
Ba3Al2(Sb2O7)3,1.358,-2.31914127734375,mp-1252320