formula,bg,formation_energy,mp-id
YbF3,0.0,-4.524319791875001,mp-22072
LaF3,6.042899999999999,-4.508268510833333,mp-905
TbF3,7.7552,-4.50274268625,mp-11347
DyF3,7.7755,-4.499622082499998,mp-1212843
ErF3,7.6163,-4.498629927083332,mp-9371
HoF3,7.7482,-4.4940336612500005,mp-561877
YF3,7.545699999999999,-4.469034024375,mp-2416
SmF3,7.7298,-4.468310304375,mp-7384
AcF3,6.0693,-4.467987469375,mp-985278
BaYb2F8,0.0,-4.452467351363636,mp-1206981
NdF3,7.6164,-4.452365858958333,mp-254
LuF3,7.689900000000001,-4.449161288749998,mp-1210818
SrLa5F17,6.0367,-4.44630321130435,mp-675492
PrF3,7.5968,-4.436969277916666,mp-2651
BaTm2F8,7.2347,-4.428986136363634,mp-7693
BaLu2F8,7.3128,-4.426521470757575,mp-1214962
ThF4,6.529,-4.425086677666665,mp-31034
YbGd3F12,0.0,-4.4229015834375,mp-1215594
BaEr2F8,7.215,-4.418706838181815,mp-12803
KTh6F25,6.4565,-4.413282832570312,mp-27185
Lu3O2F5,5.602399999999999,-4.402869626500001,mp-17673
Sr4Lu3F17,6.6819,-4.392000015208334,mp-35769
Er3O2F5,5.6188,-4.383207447000001,mp-560114
BaY2F8,7.1307,-4.375317280909102,mp-768240
BaCaLu2F10,6.809,-4.374406041666667,mp-1228137
LaCeF6,0.144099999999999,-4.370659118124999,mp-1223016
ThO2,4.4187,-4.36779017333333,mp-643
RbTh3F13,6.4486,-4.349201232205882,mp-555463
KYb3F10,0.0,-4.349048140625001,mp-640562
BaY3F11,7.1448,-4.344770196666666,mp-752674
LuOF,5.0135,-4.342925019722225,mp-1210775
Ba4Er3F17,6.4907,-4.338340205208333,mp-675681
BaYF5,7.2652,-4.33565048357143,mp-752675
TmOF,4.8429,-4.330688134166668,mp-1207669
CeTh9O20,2.0082,-4.321498688333333,mp-760080
RbLu3F10,6.909699999999999,-4.321325706607143,mp-558186
Ba4Y3F17,6.6616,-4.317373688541667,mp-34578
Ba4Nd3F17,6.3996,-4.316492313854167,mp-35986
CsTh3F13,6.4017,-4.316008765588231,mp-1198377
Sr7Y6OF30,5.0529,-4.315672524659092,mp-1218554
CsLu4F13,5.959,-4.315537935185186,mp-1226963
KLu3F10,7.123200000000001,-4.312424401946429,mp-1211423
CsLu3F10,6.7414,-4.310711813571428,mp-1213386
KEr3F10,7.0218,-4.3033513065,mp-683945
RbEr3F10,7.2806,-4.300691814107142,mp-555932
Ca20Er10F69,0.609799999999999,-4.298855355056117,mp-532089
Na3Th10BeF45,6.2138,-4.296476693671829,mp-1197527
KHo3F10,7.085,-4.295575641232142,mp-1211478
KTh2F9,6.4422,-4.294207528729155,mp-1211350
KDy3F10,6.988300000000001,-4.293645817303569,mp-1211612
KTb3F10,6.9502,-4.291982605160713,mp-17838
RbTb3F10,7.0894,-4.291934229464286,mp-1209091
RbTh2F9,6.3567,-4.2887562091666664,mp-1196714
ErOF,5.1794,-4.288221441666665,mp-1072193
Ba3Y2F12,7.1869,-4.288024061470588,mp-752420
Nd6F17,0.697499999999999,-4.286477665386473,mp-531687
PmF3,4.774199999999999,-4.2860255518749995,mp-862901
BaThF6,5.077199999999999,-4.28468884375,mp-1227374
Th5OF19,0.7837000000000001,-4.284045014399998,mp-1208339
Ba2YF7,7.167499999999999,-4.283659783000002,mp-777744
Ba2Y5F19,6.262600000000001,-4.282181089230769,mp-778072
TmHfF7,6.8844,-4.281529448888891,mp-1207968
CeTh4O10,1.433499999999999,-4.279213001333335,mp-1226577
LuHfF7,6.9578,-4.27695964962963,mp-1210837
HoOF,5.089399999999999,-4.275245123333333,mp-1072114
Th6OF24,1.372199999999999,-4.274158312096774,mp-727776
ErHfF7,6.858599999999999,-4.272220548148147,mp-1213061
TbHfF7,6.855499999999999,-4.270755038333334,mp-1208332
DyHfF7,6.8513,-4.270699748888887,mp-1212842
HoHfF7,6.8874,-4.269731335555556,mp-1212129
DyOF,5.020200000000001,-4.268987023888888,mp-1072208
SrThF6,5.1442,-4.26680758854167,mp-1173137
Ca13Y6F43,0.5768000000000001,-4.264451184713261,mp-531213
CeHfF7,0.3565,-4.264207262777769,mp-1213837
Y5O4F7,5.2436,-4.263526695,mp-766345
TbOF,4.9318,-4.262664965555556,mp-14093
LaHfF7,6.2752,-4.2618683183333355,mp-1211388
RbSm3F10,6.906499999999999,-4.261201100178572,mp-1209116
La2Th8O19,3.0896,-4.26082310327586,mp-675564
ThZrF8,5.6923,-4.2599274105,mp-29063
YHfF7,6.792499999999999,-4.259065213888888,mp-1207615
LaOF,4.204999999999999,-4.2567084316666675,mp-8111
Y6O5F8,5.1736,-4.256258331973684,mp-757483
Y2Th8O19,3.017699999999999,-4.254853682931033,mp-675118
Ca2LaF7,5.7899,-4.253408028000001,mp-676459
CeTh3O8,2.121699999999999,-4.253337351666668,mp-1226598
KY3F10,6.9409,-4.253252260160714,mp-2943
SmHfF7,6.830299999999999,-4.250952736666668,mp-1208876
Y7(O2F3)3,4.868799999999999,-4.250199704318182,mp-1216198
Sr2ScF7,6.369300000000001,-4.241399934749999,mp-14926
YTh9O20,0.0,-4.241234010333334,mp-676264
Nd2Th8O19,2.9541999999999993,-4.241046604137929,mp-676552
NdHfF7,6.8273,-4.240553623055555,mp-1209889
NdTh9O20,0.0,-4.238587321250001,mp-676564
Sm2Th8O19,2.7779000000000003,-4.237734716724137,mp-676629
La3O2F5,3.582899999999999,-4.234271073500001,mp-675834
LuZrF7,5.8374,-4.232078621851843,mp-1210678
Ce6Th4O19,0.102799999999999,-4.231695849827586,mp-676287
PrHfF7,6.8266,-4.231187414074075,mp-1209572
KTm2F7,7.0594,-4.229770696975015,mp-1211506
YbZrF7,1.1181,-4.2295595950000004,mp-1207497
CeHf2F11,0.1023,-4.2256855225,mp-1213799
KEr2F7,7.250500000000001,-4.2256183490999994,mp-27925
TmZrF7,5.8705,-4.225493081111111,mp-1207980
RbGd3F10,4.3883,-4.224621559464286,mp-1209289
CaF2,7.1157,-4.22225448,mp-2741
GdHfF7,4.4446,-4.221664682777777,mp-1212387
NaTh3F13,2.582,-4.220813885637249,mp-1200327
Sm3Th5F27,0.0,-4.219795771428572,mp-1173469
Na2Ca9NdY5HoF41,6.107699999999999,-4.2180058785310734,mp-720432
ScF3,6.105700000000001,-4.217866632500001,mp-1078300
NaTh2F9,5.9514000000000005,-4.21724276625,mp-3269
ErZrF7,5.8927,-4.216252513148147,mp-1212965
LaHf2F11,6.609199999999999,-4.215849033928571,mp-1211227
Ba2PrF7,6.2167,-4.215402317666666,mp-676002
CeTh2O6,1.835099999999999,-4.215373725555555,mp-752798
KHo2F7,6.9847,-4.215229009974999,mp-31030
Ba5Y3F19,6.5926,-4.215059607962963,mp-778387
DyZrF7,5.9275,-4.214727647222222,mp-1212860
TbZrF7,5.9384,-4.214717442777778,mp-1208269
YOF,4.9203,-4.214092868333336,mp-3637
LaTh4OF19,1.154,-4.213862737199999,mp-1223007
HoZrF7,5.857200000000001,-4.2135028511111114,mp-1212068
La2Th5O13,2.425199999999999,-4.21308501175,mp-756142
Sr2LaF7,4.2539,-4.212864514000001,mp-675758
KTb2F7,6.8138,-4.211747999558333,mp-1211521
YZrF7,5.9222,-4.211328811111106,mp-1207624
BaHfF6,7.123200000000001,-4.210183255625,mp-1214420
SrF2,6.7674,-4.20881278,mp-981
Y2Th5O13,2.7207,-4.207758563249999,mp-757205
LaZrF7,6.031,-4.205594739999999,mp-1211385
TmPaO4,2.434,-4.201934376666671,mp-1216536
NdHf2F11,6.5541,-4.201867995535715,mp-1209873
LuPaO4,2.4908,-4.201163364444445,mp-1222263
SmZrF7,6.050800000000001,-4.200733338055556,mp-18506
SmOF,4.6648,-4.200559043333337,mp-9488
GdZrF7,4.4744,-4.19869627277777,mp-1212520
PrHf2F11,6.5539,-4.196558104047619,mp-1209557
ErPaO4,2.4341,-4.194246933333335,mp-1225447
PuF3,0.0,-4.190149390937499,mp-8033
HoPaO4,2.4203,-4.187053019166665,mp-1223799
Ba3YF9,6.3872,-4.184544535192308,mp-777258
GdOF,3.3747,-4.18451751,mp-753721
NdZrF7,5.9106,-4.184370040833333,mp-1209895
Ba3PrF9,5.8738,-4.18362401897436,mp-675426
DyPaO4,2.400399999999999,-4.182926425277777,mp-1225510
La2Th11O26,0.0,-4.182643999743592,mp-766253
TmF3,5.3798,-4.181989037499999,mp-865194
TbPaO4,2.786,-4.179962538611112,mp-1173104
Ca4ThF12,5.5356,-4.1784943504902055,mp-676893
CeZrF7,0.029399999999999,-4.176784459999995,mp-22724
KY2F7,6.7942,-4.176087540224999,mp-1211492
PrZrF7,5.943,-4.175093544074073,mp-1209283
ThZr2F12,5.5089,-4.175013110999999,mp-29062
Ce3Th4O14,1.9313,-4.172632269999997,mp-766570
Th3TlF13,5.7133,-4.169862054117643,mp-1194755
La2Th3O9,2.548199999999999,-4.168961438214284,mp-673677
Sr5Zr3F22,5.3672,-4.167500046999999,mp-29085
BaF2,6.6029,-4.162401843333335,mp-1029
Ba2ZrF8,5.9376,-4.161155802954545,mp-5900
Ba3ZrF10,5.7721,-4.160981510714286,mp-1214503
AcOF,4.256600000000001,-4.159415700833336,mp-36526
Ca3NdF9,6.136,-4.159132382371798,mp-673801
NdOF,4.5028,-4.1572077274999995,mp-5634
YPaO4,2.7864,-4.157152601666667,mp-1100867
NaY2F7,7.0369,-4.156960444499999,mp-675778
GdF3,2.862199999999999,-4.1566355175,mp-972965
LaZr2F11,5.7551,-4.154077068214286,mp-1192580
Ca2NdF7,5.2602,-4.153204206416666,mp-675896
Ca9PrF20,0.0,-4.144729332703704,mp-531110
GdPaO4,0.0,-4.141709236666668,mp-37014
SrZrF6,6.1738,-4.141602573125,mp-1208602
Ca5ThF14,4.8369,-4.140358005416674,mp-675846
CeThO4,1.6536,-4.140328989999998,mp-36734
NdZr2F11,5.7504,-4.139201722678571,mp-1209872
SmPaO4,2.758199999999999,-4.139033795,mp-1173297
BaZrF6,6.3299,-4.1375930259375,mp-556738
PrZr2F11,5.7611,-4.134151529761906,mp-554610
Tb3TlF10,5.8541,-4.134146750952381,mp-1208522
LaPaO4,2.329699999999999,-4.134119007499997,mp-1222782
NaY3F10,5.6276,-4.132753042500001,mp-676023
PmPaO4,2.780699999999999,-4.129576366249999,mp-1173352
Sm2Th3O9,2.6126,-4.128825371785715,mp-675813
Ca2HoF7,3.251299999999999,-4.126202660500001,mp-676867
LaTh4O10,0.0,-4.126057385666665,mp-756428
ScOF,4.4798,-4.125764553333335,mp-4661
PrOF,4.437099999999999,-4.12563557388889,mp-769173
Lu2O3,4.021100000000001,-4.123783570916665,mp-1427
CeZr2F11,0.3153,-4.123051020357143,mp-1213767
Ce3Th3O11,0.272199999999999,-4.120083553235292,mp-754176
NaHo2F7,6.6014,-4.120058317000003,mp-1173720
LuZr3F15,5.5385,-4.119150342061405,mp-531792
SmTh4O10,0.0,-4.117497835666666,mp-752473
YTh4O10,0.0,-4.116839210666666,mp-772510
Sr5Al2F16,6.9361999999999995,-4.116544838478261,mp-29978
RbSc3F10,5.407,-4.116232890178572,mp-1209235
Y3TlF10,5.8088,-4.115191565178573,mp-1207844
CePaO4,0.0,-4.114417969166666,mp-686050
YZr3F15,5.53,-4.107844359473685,mp-530429
Nd2Th3O9,2.4834,-4.107406755714286,mp-1173423
PrZr3F15,0.0,-4.106514681535087,mp-530217
NdPaO4,2.7599,-4.10603690375,mp-1173377
NdZr3F15,5.7436,-4.103935088552633,mp-1209866
La6Zr8F47,0.0,-4.10342093199798,mp-531991
Sr10Al2ClF25,6.4743,-4.103373948026316,mp-555507
HfF4,5.4058,-4.101514556333337,mp-31033
BaCaAlF7,7.1873000000000005,-4.1013565515,mp-18065
GdZr3F15,4.4577,-4.100263805131579,mp-530695
Ca5Zr3F22,5.3031,-4.098236494750011,mp-1203446
Ba3AlF9,6.7594,-4.097918263846154,mp-556863
EuZrF6,0.5628000000000001,-4.097677883750002,mp-1212698
YbPaO4,0.0,-4.097001039999999,mp-676985
LiLuF4,7.754200000000001,-4.095328204722222,mp-561430
LiThF5,6.5143,-4.094244219345238,mp-1196169
EuF2,0.0,-4.093513655,mp-504731
BaZr2F10,5.756399999999999,-4.093492791923077,mp-505400
Nd3O2F5,3.8537,-4.093184895249999,mp-1101619
Tm2O3,3.6932,-4.090072903500003,mp-1767
Lu4Hf3O12,4.7135,-4.089766204298246,mp-676653
CsSc3F10,5.3828,-4.089457220714284,mp-1213153
CaZrF6,6.653799999999999,-4.088790178125,mp-1025456
K7Th6F31,5.8527000000000005,-4.0881759035397724,mp-676801
La2Th2O7,2.9227,-4.08610926681818,mp-753156
YTh9MgO20,0.5968,-4.084920968225806,mp-1233234
CeOF,0.0,-4.084567068333334,mp-755074
Na3Th6ZnF29,5.1856,-4.082516662948688,mp-1221381
PrPaO4,2.7176,-4.081951017777776,mp-1173356
Ce3Th2O9,0.0,-4.077922799642856,mp-754058
Ca2AlF7,7.1413,-4.076032328999999,mp-29221
Ba3Al2F12,6.7238,-4.072744122794116,mp-3361
Ba5Al3F19,6.9003,-4.071338076481481,mp-1197073
Ce2ThO6,1.9619,-4.068490727777777,mp-1226807
Sr5Al3F19,6.8557999999999995,-4.066676867407407,mp-1208679
Lu6UO12,1.9232,-4.065957644210526,mp-20402
Tb3SOF5,3.587999999999999,-4.06552017075,mp-1217635
Dy3SOF5,3.6130999999999993,-4.062375264249998,mp-1225346
NaCaLaF6,6.3624,-4.061911528148148,mp-1246093
Ho3SOF5,3.6385,-4.058883701249998,mp-1224058
K10Gd22F79,0.0,-4.058271284211712,mp-1213565
CeF4,2.1473,-4.057656529333332,mp-542001
Er2O3,3.9629,-4.057094096999998,mp-679
KSc2F7,5.7069,-4.056580013224997,mp-28439
NaLiLu2F8,7.2608,-4.055417749999999,mp-1209991
LiYF4,7.8341,-4.055315924444444,mp-3700
Yb2O3,0.0,-4.052655219750003,mp-2814
Ce2Th2O7,0.0,-4.051168095909089,mp-759386
Tm5B2(O2F3)3,6.0317,-4.045778714924244,mp-1199949
ScPaO4,2.493500000000001,-4.045086822500001,mp-1219240
Y5Tm11O24,4.1471,-4.044683666250002,mp-759638
BaAlF5,7.2887,-4.044061821071429,mp-4376
SrAlF5,7.1404,-4.043781519285714,mp-1200608
KTmF4,6.8499,-4.04314094676389,mp-1202753
La2Hf2O7,4.2879,-4.042177013636373,mp-12533
Ba2CaMgAl2F14,7.2303,-4.041768984500001,mp-540862
KLaF4,6.1827,-4.04171923579166,mp-1211260
NaLiTm2F8,7.552,-4.039499500809388,mp-1210006
Sm3SOF5,3.504099999999999,-4.03930446275,mp-1219205
Er5B2(O2F3)3,5.9864,-4.037555718333333,mp-1199169
Nd2Th2O7,2.8992,-4.032699879090908,mp-676227
Dy5B2(O2F3)3,5.960999999999999,-4.032430413939393,mp-1203431
Ho5B2(O2F3)3,6.0236,-4.032061431287878,mp-1203766
Nd4O3F7,0.0,-4.030064715,mp-753772
RbCaHfF7,6.5402000000000005,-4.029572006249987,mp-1209253
NaLiEr2F8,7.4719,-4.029100699142719,mp-1209986
UF4,0.0,-4.028010356333334,mp-287
ZrF4,5.3453,-4.027976308499999,mp-1105223
Ho2O3,3.945799999999999,-4.027559444749998,mp-812
Sm4Th3O12,2.4431,-4.024059354210526,mp-1101415
Na3Li4Th6F31,6.308400000000001,-4.02399438795457,mp-558769
NaYbF4,0.0,-4.023917340833333,mp-1220684
NaLiY2F8,7.302799999999999,-4.023631057222222,mp-558597
Li2Th5OF22,1.3857,-4.023247099888889,mp-726654
PaO2,0.0,-4.02262173,mp-2364
NaLiHo2F8,7.5674,-4.022063373726053,mp-1210003
HfO2,4.0165,-4.019811040833332,mp-352
Nd3SOF5,3.427499999999999,-4.0189622465,mp-1220289
YTmO3,4.1556,-4.018697117750002,mp-766256
Ho3ScO6,4.423,-4.018259092499997,mp-13840
Y3SOF5,3.5401,-4.01566512325,mp-1216106
Dy2Hf2O7,3.2281,-4.012424123030301,mp-3611
NpF4,0.0,-4.010959970083332,mp-504787
ThUO4,0.0,-4.010769561666664,mp-760382
Ce4ThO10,1.6261,-4.010598389333333,mp-1226874
Er2Hf2O7,3.1401,-4.01010348590909,mp-557890
CaAlF5,7.1538,-4.010018601428571,mp-8836
Ho2Hf2O7,3.1157,-4.009504141363635,mp-554082
NpF3,0.0,-4.007879197187499,mp-14107
Ce4UO10,0.0,-4.007362578666666,mp-1226869
LuScO3,3.0848,-4.006214216666667,mp-772180
NaErF4,6.854,-4.005070588055555,mp-674459
Dy2O3,3.925499999999999,-4.005045779666665,mp-2345
Sm6Th4O17,1.922699999999999,-4.004702174999999,mp-675749
Gd3SOF5,1.9623,-4.003937893250002,mp-1224717
Sr2PrF6,0.0,-4.003404411790127,mp-1218713
RbLaF4,6.0875,-4.002432104583328,mp-1190838
CaUF6,0.0,-4.002024404374975,mp-1227064
NaYF4,7.2052,-4.001291743333334,mp-1220768
Ce4ThO9,0.0,-4.001051861785712,mp-753456
NaHoF4,6.8743,-4.000236969166667,mp-675798
Dy29Y3O48,4.1221,-4.000052685354165,mp-774100
Gd2Hf2O7,2.8263,-3.999542177272729,mp-1190245
ErLuO3,4.524999999999999,-3.999055284333333,mp-778151
Sm2Hf2O7,3.8433,-3.997781267272727,mp-35249
Y13Ho19O48,4.182600000000001,-3.9973242730624983,mp-758033
EuHfF7,0.1365,-3.995370638333335,mp-1212722
SrMgF4,6.6872,-3.9946967733333323,mp-561022
Y11Tm5O24,4.227600000000001,-3.993491290500002,mp-766009
HoLuO3,4.9114,-3.993262638833333,mp-770472
KYF4,6.9712,-3.993005433060185,mp-28726
UF3,0.2155,-3.992617684583336,mp-18299
Lu4Zr3O12,4.1179,-3.991836509824567,mp-1222825
NaSmF4,0.0,-3.9918334588888893,mp-1220915
EuZr3F15,3.953,-3.9901726643421123,mp-532491
NaLaF4,6.105700000000001,-3.989606001388889,mp-1220826
Y2Hf2O7,3.4628,-3.989558998636363,mp-561442
Th2ZrUO8,0.0,-3.989159204999998,mp-1217355
DyLuO3,4.967,-3.989102142666665,mp-756469
Dy11Y5O24,3.963199999999999,-3.9886371067083313,mp-766279
KSmF4,7.211699999999999,-3.988549810791662,mp-17697
LaLuO3,4.452500000000001,-3.988481201333332,mp-22220
Ba2TiOF6,3.9,-3.988466961833334,mp-561256
TbLuO3,4.9973,-3.986720298666666,mp-754145
BaMgF4,6.800499999999999,-3.986340862499998,mp-14568
Ba3SrMg4F16,6.687799999999999,-3.986037988333333,mp-1228153
MgZrF6,6.5306999999999995,-3.984790553124999,mp-1025460
Ba7(ClF6)2,6.0482,-3.9843349766666663,mp-23547
Tm4Zr3O12,4.1281,-3.982846345789477,mp-1216821
Tb2O3,3.9006,-3.9821810734166663,mp-1056
Nd2Hf2O7,4.0703,-3.98081208681819,mp-1190845
TmScO3,4.4168,-3.980072895500001,mp-1207696
Sm4(OF2)3,2.8324000000000003,-3.9788607984615383,mp-1173604
KNdF4,7.126,-3.9776507503749983,mp-1211343
Y2HfO5,4.3829,-3.977348098750001,mp-755537
BaLiZr2F11,5.7585,-3.9773184472222223,mp-555845
Y13Tm3O24,4.1484,-3.977264023500001,mp-766258
Hf3Sc4O12,4.2033,-3.976916652105265,mp-766090
BaTiF6,4.3236,-3.974811880416666,mp-8291
Na2Sr7Al6F34,6.957199999999999,-3.9737082610767063,mp-555865
Dy3Y5O12,4.1693,-3.973016534250001,mp-752458
Ba2SrMg4F14,6.6106,-3.9723460679761913,mp-1198727
NaNdF4,7.0629,-3.9721478168055553,mp-1220999
ErScO3,4.4171,-3.972024329499999,mp-1212985
EuAlF5,0.7047999999999991,-3.971933438482144,mp-1202507
Er2ThOF10,0.9685,-3.971769347499999,mp-1225774
CaTiF6,4.5826,-3.971624565416666,mp-27315
GdErO3,3.2641,-3.971349480249999,mp-766236
Y7TmO12,4.2212,-3.968920960499999,mp-766267
Sc2O3,3.8235,-3.968732640749999,mp-216
KPrF4,7.1334,-3.9681586006527763,mp-18040
Ba6Mg7F26,6.8522,-3.968096017564103,mp-18549
Er4Zr3O12,4.1461,-3.966801711578951,mp-1225650
Y13Ho3O24,4.164899999999999,-3.966479024625,mp-765476
La2HfO5,4.304399999999999,-3.966440516875002,mp-768234
La2PbF8,5.3332,-3.9664301354545453,mp-676816
DyY3O6,4.0217,-3.966317363416665,mp-757197
YLuO3,3.3403,-3.965580118333333,mp-754226
Ba6Eu(ClF6)2,0.0,-3.965430515476189,mp-556702
HoScO3,4.476,-3.965070402999999,mp-31121
Rb2Hf3OF12,6.2789,-3.9629965722222202,mp-17256
HoTmO3,4.4948,-3.962808583,mp-1178178
Y7HoO12,4.208,-3.9621956832500023,mp-762307
BaNaZr2F11,5.699199999999999,-3.962168267591953,mp-561234
LaTmO3,4.414,-3.9616170855000012,mp-13374
DyScO3,4.459799999999999,-3.9610557008333322,mp-31120
Y15TmO24,4.1426,-3.96091708125,mp-757001
DyY7O12,4.1886,-3.959664393333334,mp-766292
DyTmO3,4.8481000000000005,-3.959497251833333,mp-752435
Ba7BrClF12,5.6222,-3.957589365,mp-1214422
Ce5O9,0.0,-3.9571209660714253,mp-32613
TbScO3,4.4378,-3.957052406333332,mp-31119
TbTmO3,4.568899999999999,-3.956368470833335,mp-756762
RbCaZrF7,5.856199999999999,-3.95563210225,mp-1209261
Ho4Zr3O12,4.132,-3.955569812631579,mp-1224122
Y6UO12,1.9558,-3.955267867894736,mp-27698
RbNdF4,6.8626000000000005,-3.9551193525,mp-1209225
NaPrF4,0.0,-3.954448028611111,mp-1220948
GdLuO3,3.1346,-3.954000719333332,mp-756424
Y2O3,4.097300000000001,-3.953871922749999,mp-2652
KGdF4,4.3628,-3.953526257041667,mp-1211415
SmLuO3,4.7782,-3.953322614833333,mp-1101371
LaScO3,3.8973,-3.950563377999999,mp-31116
Ba2Mg3F10,6.9595,-3.9497896729999993,mp-541162
HoErO3,3.0794,-3.9493829286666653,mp-770415
NaGdF4,4.4911,-3.948421923333332,mp-1221034
Yb4Zr3O12,0.0,-3.9470799563157892,mp-1215736
DyErO3,3.0953,-3.946876731666664,mp-772188
RbPrF4,6.8588000000000005,-3.946650394861105,mp-1209185
SmY15O24,4.112399999999999,-3.946509419625,mp-757791
Gd3Y13O24,3.4815,-3.941990615999999,mp-1224723
YScO3,3.1392,-3.941366084666667,mp-769007
KCeF4,0.04,-3.940926392458333,mp-504644
Ce11O20,0.0,-3.939762349032259,mp-505619
La6UO12,1.9728,-3.939659098421054,mp-19992
Sr15Al6(OF24)2,1.0832,-3.939479865422535,mp-1218962
EuZrF7,0.139199999999999,-3.939335979444444,mp-1212789
BaCaTiF7,0.252799999999999,-3.9389559223333332,mp-1041344
CaHf4O9,4.4894,-3.9387402284821422,mp-558164
LaErO3,4.4376,-3.938616242,mp-7538
Ca2Hf7O16,4.3048,-3.938458758399999,mp-27221
Gd2HfO5,3.202299999999999,-3.938316614375001,mp-754041
La3YSc4O12,3.950799999999999,-3.938207599750001,mp-1223134
Ba6Mg11F34,6.6579,-3.9371352810784312,mp-30942
Lu3AlO6,4.5825000000000005,-3.936922857,mp-756742
Ce3UO8,0.0,-3.9366790949999992,mp-1226924
PuF4,0.0,-3.936220456416667,mp-1209625
Ce17O32,0.0,-3.934802147755101,mp-673643
Sr2Hf7O16,4.4407,-3.934111165199997,mp-757149
Ce13O24,0.0,-3.933344505135134,mp-684627
Ce2UO6,0.0,-3.932237947777777,mp-1226776
TbErO3,4.5065,-3.931199176833332,mp-756048
Gd3Y5O12,3.2729,-3.931125835499999,mp-757331
LaY3Sc4O12,4.214599999999999,-3.93066852925,mp-1222847
Y4TiSi2(O3F2)3,2.716699999999999,-3.9306460942424253,mp-554376
NdLuO3,4.8869,-3.9299927298333333,mp-1209937
BaBeF4,7.5555,-3.929139663333339,mp-12431
BaTiOF4,3.34,-3.9288870872619053,mp-16915
CeO2,1.8647,-3.9271761966666663,mp-20194
BaNaZrF7,6.0616,-3.9262212668879313,mp-560732
DyHoO3,3.0556,-3.926198935666664,mp-768145
CeHfO4,1.8084,-3.926053372916666,mp-770372
SmY3O6,3.9935,-3.924957691999997,mp-861109
GdTmO3,3.159,-3.924894951000001,mp-756030
SmTmO3,4.9205000000000005,-3.924406718000002,mp-776439
Y5U2O12,0.1154,-3.923434423157822,mp-760098
Ce6Y26O51,1.4873,-3.923153282831325,mp-530883
K2ThF6,6.3807,-3.921642413833328,mp-14193
SmScO3,4.366899999999999,-3.9212644594999992,mp-31118
GdScO3,3.1418,-3.920327644499998,mp-5690
Ce10Y22O53,1.8209,-3.919867537117645,mp-531564
Eu7(ClF6)2,0.5699000000000001,-3.919676888095239,mp-1190780
SrBeF4,7.523999999999999,-3.9188805175,mp-9726
Lu2TiO5,3.3452,-3.918367325520833,mp-771031
LaUO4,0.0,-3.9177180308333632,mp-1222723