formula,bg,formation_energy,mp-id
NaYZrP2SO12,3.7018,-2.954588925638799,mp-2712737
Sc2Ge2O7,3.7047,-2.9545466199999972,mp-757450
Na4Nb3AlSi4(PO12)2,2.4063,-2.9544660655649913,mp-2715097
CsAl3(SiO4)3,3.0296,-2.954391576560799,mp-1226735
Na3La(PO4)2,4.621600000000001,-2.954381042744545,mp-1210985
Na9Mg4Ta8Si3(P5O24)3,2.9492000000000003,-2.954350310727237,mp-2713110
USb2OF14,2.3951,-2.954347876388888,mp-1217426
YSn3F15,2.341999999999999,-2.954345905263158,mp-1047586
Li2Al2Si4O13,0.3016,-2.9542591105555562,mp-1222886
CsBe4(BO3)3,5.4195,-2.954244681303245,mp-1019718
Li4ScIn3(SiO3)8,3.9221,-2.954179862708334,mp-1222575
Na14Zr4Sc4Si9(SO16)3,3.623099999999999,-2.9541359140464682,mp-2714677
CsTa(PO4)2,3.3857,-2.9540270646895173,mp-559118
Na6CaNb5Si6(PO12)3,2.5035,-2.9538890811790273,mp-2715218
Cs2NaTaF6,0.0,-2.953787457802299,mp-1114087
Na2Nb3AlSi2(PO6)4,2.2658,-2.953776937907317,mp-2715720
K3NaTh2O6,3.6675,-2.9537472777607743,mp-17850
SrCeEuSbO6,0.0,-2.953744338,mp-1519227
Na7Y2Al2SiP5O24,4.3683,-2.953465256411451,mp-2715626
Na3YHfSi2SO12,3.936,-2.9534154825818972,mp-2714540
Na4CaY(PO4)3,4.2254,-2.95310751417996,mp-2715036
NaZrScP2SO12,3.9534,-2.953095766379538,mp-2712634
Na2UP2O9,2.2471,-2.9530600590745952,mp-15385
NaMg30SiO32,0.0,-2.952888636584051,mp-1039915
Ca3Al2(GeO4)3,3.5021,-2.95279270175,mp-1214222
HfMg30TiO32,0.0,-2.952756931302082,mp-1040299
Na3La3NbP5SO24,2.2912,-2.9527372585545653,mp-2716012
K3NbF6,0.0,-2.952687989174999,mp-1111115
RbSmO2,3.4884,-2.952667840624999,mp-7974
Y3Ga5O12,3.5498000000000003,-2.952501735625001,mp-5444
Na6CaTi3Si2(PO6)4,2.548599999999999,-2.952473356546181,mp-2715370
Na2HfTiSi2SO12,2.5602,-2.952310428610104,mp-2712682
Na2Y2P2SO12,4.7215,-2.95224478471286,mp-2713275
BaCaTi4O12,0.0,-2.952187581851852,mp-1523145
Si6BiO14,0.004899999999999,-2.9521033450000003,mp-850220
Sr3TiSi4O15,0.4074,-2.9520986851449282,mp-1204561
Li2MgSiO4,4.7615,-2.952021454583333,mp-11189
TaTiSbO6,2.457299999999999,-2.951929362296296,mp-1217838
Na3CaNb5Si3(PO6)6,2.4049,-2.951823684851762,mp-2715590
NaNdHfSnO6,3.3638,-2.951744668387931,mp-1518358
Na10Zr4Ti4Si9(SO16)3,2.4398,-2.951713419012306,mp-2714129
Na7Hf2Mg2SiP5O24,4.2249,-2.951642033972426,mp-2715556
MgTi3P3O13,0.0,-2.951602913946429,mp-1041140
NaPrNb2O6,0.0,-2.9515006523045972,mp-1522162
MgTiPO5,0.158499999999999,-2.9514069691220253,mp-1046541
MgTi2Be3(SiO4)3,0.003099999999999,-2.951337406150793,mp-1047872
LaTa2CuBrO7,0.0,-2.951244598305555,mp-1211313
Na7Ca2Zr2SiP5O24,3.3927,-2.9510684433220202,mp-2715635
Na3LaTiSi(PO6)2,1.8729,-2.951060322837849,mp-2715357
LiZrO2,0.0,-2.951050153333334,mp-755253
Li5La3Ta2O12,4.007300000000001,-2.950927121310606,mp-559776
CaTiO2,0.0204,-2.950766035833333,mp-1045983
BeAlSiO5,0.424799999999999,-2.95067214125,mp-727932
Ba2TaBiO6,2.5363,-2.950626889733333,mp-545544
Ba2NdReO6,0.0,-2.950607196999999,mp-1205556
LaTiAgO4,1.4657,-2.950561660714286,mp-22621
AlSi3AgO8,3.0442,-2.950511368205127,mp-1228941
Sr2EuBeO5,0.0,-2.9504919308333353,mp-1209112
Li5Ti7In(PO4)12,2.48,-2.9503784040052192,mp-683616
YSiNO2,4.216200000000001,-2.950284482333335,mp-559569
Mg2Ti5(PO4)6,0.0,-2.950247724176319,mp-1210944
Sr2B5HO10,4.7715,-2.950241698032408,mp-1202819
K2AlHgF6,0.0,-2.9501835187000003,mp-1112209
KNdO2,3.7088,-2.950170463687499,mp-754158
Na9CaNb5(SiO4)9,2.1444,-2.950149380484674,mp-2715274
NaPrO2,3.1965,-2.950143315761493,mp-8470
Li3Sc(BO3)2,4.5226,-2.950063116944445,mp-557012
Na2Ca2P2O7F2,3.2883,-2.9500585756362883,mp-1173838
Na2CaMg(PO4)2,5.336,-2.9500439683603092,mp-556232
Ca2Nb2SnO8,2.2628,-2.949951252307692,mp-1042909
CaMg30SiO32,1.8760999999999992,-2.949925207343749,mp-1038016
Na6Zr4Nb4Si9(SO16)3,2.3618,-2.9499065144249,mp-2712972
K3Ce(PO4)2,0.0495,-2.949903627216836,mp-17189
Na10Nb7Ga(SiO4)12,2.743,-2.949823157367006,mp-2713337
Na15Nb11Zn(SiO4)18,2.5636,-2.949734516501622,mp-2713356
SrLa7ZnCu3O16,0.049299999999999,-2.9494840866071432,mp-1173179
Na5CaTi3SiP5O24,1.9465,-2.949417962396005,mp-2715849
RbSr2MgNb3O10,0.0,-2.949355967794118,mp-2229307
BeAlSiHO5,5.3797000000000015,-2.949310692638889,mp-759686
Cs3Y(PO4)2,4.588900000000001,-2.949137237553659,mp-1019614
Sc6TeO12,2.456699999999999,-2.949128294035087,mp-1211026
RbMg30AlO32,3.951600000000001,-2.949030494804687,mp-1038203
BaInCuF7,1.3409,-2.949014915666667,mp-1228148
CaMg14AlO16,0.0,-2.9489935750000003,mp-1036688
HfMg30CuO32,0.012399999999999,-2.948991554999999,mp-1037139
Na5HfAl3(PO4)6,4.4779,-2.948980874993684,mp-2716421
Cs2KTaF6,0.0,-2.948754121389368,mp-1110984
Ta2Hg2F11,1.0553,-2.948731622811112,mp-581413
Na7Al10Si14(AgO16)3,2.3001,-2.9486297460323803,mp-690987
BaCaMg30O32,4.0442,-2.948618925468749,mp-1037905
Rb3Y(PO4)2,4.705,-2.948579585841836,mp-1209357
NaSrB5O9,5.4486,-2.94855788310704,mp-561514
Li3UO4,0.378,-2.948547609999998,mp-551675
CaTbEuSbO6,0.1396,-2.948490992166666,mp-1519014
Be3Tl2Zn2F12,5.4725,-2.948231829035088,mp-1214313
LiHfMg30O31,0.484499999999998,-2.948227192354497,mp-1040044
Li2Ti3SnO8,1.218599999999999,-2.94809631547619,mp-779116
NaTa3InSiP5O24,1.0145,-2.948083500283627,mp-2715749
GdInO3,1.7714,-2.948039821,mp-1212640
KBaB5O9,5.0637,-2.947935847536458,mp-557420
Na14La4Nb4Si11SO48,2.5147,-2.9479262226440293,mp-2714526
LiTa2O6,0.0,-2.947900449777777,mp-1222341
Na8CaZr3Si5SO24,3.618799999999999,-2.94790004282225,mp-2716243
Nd2TeO6,2.9846,-2.947875512407409,mp-31318
Eu2Nb4O13,0.0,-2.947774230789475,mp-674312
BaPr2PdO5,2.138899999999999,-2.947633575370384,mp-9759
Sr8MgP4(IO4)4,1.6882,-2.9475434158658023,mp-1233937
Na3Er(PO4)2,4.9742,-2.947532270512403,mp-1211481
K3Sc(PO4)2,4.2962,-2.947518911383502,mp-17035
Pr6Ti2S7O6,1.3441,-2.947296141150792,mp-556737
Na4Zr3Zn(PO4)6,3.8156,-2.947244463948449,mp-2713552
Mg30AlCdO32,0.7916000000000001,-2.9471705926562493,mp-1037998
Na3Tb(PO4)2,4.954,-2.947164855095735,mp-1211011
Rb2CdSi5O12,4.1094,-2.947160866937499,mp-15125
Th2P3O13,0.2167,-2.947159628551587,mp-1202168
Ta2Si2SO12,3.8431,-2.9467840182647063,mp-2715681
Na3Mg2Ta4(PO4)9,2.8096,-2.9467828481529073,mp-2713881
CsSr2MgNb3O10,0.0,-2.946734280273835,mp-2229536
Na2Al2B2O7,4.3384,-2.946624387391688,mp-554041
LiMgPO4,5.4297,-2.946585101496598,mp-9625
Cs4Li2(Si2O5)3,4.59,-2.946351956862494,mp-562394
KTa2O6,0.0,-2.9462573063240742,mp-1223256
ZrAlO3,0.0,-2.946253523,mp-972066
Na3Dy(PO4)2,4.9519,-2.94623971250645,mp-1211075
Na3GaF6,5.3573,-2.9462004831637922,mp-1110570
Na2Hf4Ta4Si7S5O48,2.2451,-2.946158592898934,mp-2715674
Ho2Cu(BO2)8,1.05,-2.9461180473456783,mp-554184
K2Zn(Si2O5)2,4.2665,-2.946104038647059,mp-555568
K2ThO3,3.7257,-2.946080960333331,mp-1211547
KCeMg30O32,0.0,-2.946065197457031,mp-1040240
K2ScSi2O7,0.4707,-2.946059520895833,mp-728491
Na4ScAlSi(PO6)2,4.3398,-2.945850343800141,mp-2714619
SrCaMg14O16,2.827,-2.945842985937499,mp-1036311
LaHO2,3.839,-2.9457934328125,mp-626724
KMg6P7O24,5.1735,-2.9457871322302642,mp-1019806
YMg30CdO32,0.615499999999999,-2.945620019843749,mp-1037428
Li4Ca3Nb6O20,1.325999999999999,-2.945617543737374,mp-1222663
KSmHfSnO6,3.250899999999999,-2.945533642724999,mp-1520310
Dy2Cu(BO2)8,1.0486,-2.945495197469135,mp-557935
SrCaGdSbO6,3.1028,-2.9454707769999993,mp-1521218
TbGd2Ga5O12,3.4534,-2.945351901333333,mp-1217722
Na12Mg2Ta4(SiO4)9,2.9629000000000003,-2.945272498268018,mp-2716369
Ho8Mg(Ge2O7)4,1.1276,-2.945256662777776,mp-1234469
Na3Ho(PO4)2,4.9965,-2.945205605423116,mp-1211201
RbTa(PO4)2,3.3485,-2.945203001176587,mp-554412
Na3Mg5Si8(HO12)2,0.0,-2.945103220872331,mp-1211019
Ti2Al2O7,0.6019999999999991,-2.944998300151514,mp-1261252
Ba3AlO4,0.0,-2.944955424687499,mp-1199363
CaEuYSbO6,0.152,-2.9449118155000003,mp-1517247
La8Ru4O21,0.0,-2.944872946212122,mp-559854
Na14Ta4Al4Si11SO48,3.1816,-2.944795407513948,mp-2714338
Tb2Cu(BO2)8,1.0489,-2.9447367739506163,mp-559927
KLaMg30O32,3.9396999999999993,-2.944734693160156,mp-1040324
Mg(SiO2)5,2.313799999999999,-2.9446913453125,mp-1233794
Na2La2P2SO12,4.5601,-2.944643760677772,mp-2713716
BaLi(B3O5)3,5.7835,-2.944493483878204,mp-17672
SrHfMg30O32,0.0,-2.944490539375,mp-1098545
BaB8O13,5.7813,-2.9443231607196982,mp-27794
Sr3ScRhO6,2.258099999999999,-2.944295234090908,mp-18247
Na5Zr3ZnSiP5O24,3.6747,-2.944250188037031,mp-2715954
Na5Ti2Si2PO13,2.5298,-2.9440710005741773,mp-18271
Ba5Si(Br3O2)2,4.3819,-2.944056344374999,mp-553884
Na2Hf3MgP4(SO12)2,3.939,-2.944030411148057,mp-2712589
Na2Gd2MgTi2O8,0.0,-2.944029000295019,mp-2232182
Na6Ti4Si5SO24,2.615,-2.943943989644397,mp-2713908
SrLiAlO3,3.0271,-2.943875554722222,mp-1235552
NdSO,1.6345,-2.943758944166666,mp-1209906
BaPb2BrF5,3.2598000000000003,-2.943708106111111,mp-554116
BaEuO2,0.0,-2.9436855212500013,mp-754392
Na9Mg2Nb10Si9(PO8)9,2.3019,-2.943685318686482,mp-2712885
Ba6Nd2Ga4O15,3.649499999999999,-2.9436760922222223,mp-1214555
Sr3ErRhO6,2.192,-2.943544625454544,mp-17149
Na18Ca4Ta20Si27(SO16)9,2.1667,-2.943538373734209,mp-2713034
BaSrNbInO6,3.3943,-2.943396109666666,mp-1516590
LaMgO3,0.0,-2.943346983,mp-1184964
Ba7SiB3NO13,0.6212,-2.9433119635000002,mp-1256464
KZrTl2OF5,3.1083,-2.943272496391668,mp-40204
KHfO3,0.0,-2.943229516449999,mp-998227
La2MgRhO6,0.0,-2.943168876,mp-10320
CsK2Sc(PO4)2,4.0983,-2.943092079888634,mp-8564
TbCd2F8,0.0,-2.943036061515151,mp-29201
Rb2NaTaF6,0.0,-2.942962404371264,mp-1110644
Ba4ZrNb9O18,0.0,-2.942862634999999,mp-1228044
LaNb3(PO4)6,1.8144,-2.942812141260505,mp-2713998
Na6Zr3ZnSi2(PO6)4,3.7194,-2.942802350504516,mp-2715277
K4Nb8Si(P2O17)2,1.933199999999999,-2.942717447011205,mp-14873
Na10La2Nb6Si11SO48,2.2082,-2.942698585358458,mp-2716313
Na15Mg2Nb10Si15(PO24)3,2.5405,-2.942612696535199,mp-2716510
Na7CaTi3Si3(PO8)3,2.034,-2.942509723989848,mp-2714908
Sr3Nb2CuO9,0.2284,-2.942502097666667,mp-1218633
Hf2Bi2O7,2.936799999999999,-2.9424936049999912,mp-35799
LiLa(PO3)4,5.2206,-2.9424519467724872,mp-560866
Ta2CdO6,4.0196,-2.942445414685185,mp-1208442
Na9MgNb5(SiO4)9,2.4084,-2.942438880373564,mp-2715265
Na4Mg11AlSi12(HO10)4,0.0,-2.942412127715517,mp-1221236
Na4CaTi3(PO4)6,2.1487,-2.942383245176519,mp-2713565
Ti5(B6O13)2,0.0,-2.9423649796317832,mp-684065
Na6MgNb5Si6(PO12)3,2.4552,-2.9422810127579733,mp-2715130
Na14La4Zr4Si9(SO16)3,3.6389,-2.942241365022077,mp-2715173
Ti2CdO5,2.5113,-2.942224596458333,mp-849246
NaEuP2O7,0.0,-2.942191504378638,mp-6272
YHfMg30O32,0.0,-2.94213907984375,mp-1037203
CsUGa(PO5)2,2.311,-2.942107755762725,mp-559852
Na3La2Nb2SiP5O24,2.090999999999999,-2.942077636955465,mp-2712840
NaTi3F7,0.0,-2.942042925579937,mp-1120764
BaZnSiO4,3.5863,-2.942027309761905,mp-561305
K5Na3Ta4Nb4O24,1.607099999999999,-2.941930257493032,mp-1076095
NdEu2SbO6,0.0007,-2.9417901885,mp-1517926
Na10Nb7In(SiO4)12,2.7269,-2.941768770604185,mp-2713494
Gd2S2O,1.7211,-2.941708022999998,mp-561849
Na10Ta6Ga2Si11SO48,3.1072,-2.9416093993627332,mp-2716479
NaNdNb2O6,0.0,-2.941559484887931,mp-1519126
K2Si5BO12,0.0,-2.941442501433334,mp-1211911
NaMg30BO32,4.107099999999999,-2.94139078032103,mp-1039794
Na14Hf6Mg2Si9(SO16)3,3.6345,-2.941091626119638,mp-2715169
RbYMg30O32,3.7403,-2.940786358085937,mp-1037624
HfMg30ZnO32,0.6385000000000001,-2.940666471718749,mp-1037149
Ba6La2Ga4O15,3.421399999999999,-2.940639550740741,mp-1228569
Na2LaNbSi(PO6)2,1.8202,-2.940538952563737,mp-2712710
KLiAl2Si4(O5F)2,0.0,-2.940533649529168,mp-1211355
BaTi4AlO7,0.2764,-2.940419334871794,mp-1048108
Na8Sc2Ti2Si5SO24,2.792799999999999,-2.940351414092091,mp-2715758
KNdZrGeO6,3.2514,-2.940322291975,mp-1520012
NaNb3AlSiP5O24,2.2127,-2.940273098797913,mp-2715624
Na2TiAl(PO4)3,2.5387999999999993,-2.9402230519309063,mp-2713563
Ba7In2(Se3F4)2,1.198799999999999,-2.940161132060688,mp-1192196
Na2LaYP2SO12,4.4981,-2.939945175239176,mp-2713218
La2MgIrO6,0.0,-2.939900697000001,mp-6732
Mg30TiCdO32,0.0,-2.939892580052083,mp-1040321
Na3LaAl(PO4)3,4.4038,-2.939878183319993,mp-2715298
Li9Mg3P4O16F3,5.5656,-2.939823909673469,mp-1203004
CsBaLiP2O7,5.0427,-2.939747212689518,mp-1019708
Li(SiO2)5,0.0,-2.9396816958333343,mp-1235571
Ti3TlSi2P6O25,0.017599999999999,-2.939680088275419,mp-1208411
Ti6In2Si2P12O49,2.6336999999999993,-2.939626018789403,mp-560564
Na5Y3Sn(PO4)6,2.3847,-2.9393234368312933,mp-2716547
CsLa(PO3)4,5.0449,-2.939190691568145,mp-559234
Ba2CeMgNbO6,0.0,-2.939155816818181,mp-2217812
Na3Sm(PO4)2,4.9207,-2.939153928280259,mp-1210769
Na8CaTi3Si4(PO12)2,2.179799999999999,-2.938991640483814,mp-2715573
Nd3Ga5SiO14,3.5227,-2.938829264347825,mp-1220307
UTlO3,0.2736,-2.9387770976667262,mp-865322
Ca4Si2H2CO11,4.8124,-2.938727908999999,mp-604909
HfMg30AlO32,0.0,-2.938663677031249,mp-1037722
Na5Ti2Al2SiP5O24,2.4021,-2.938626573165236,mp-2716044
Ta9P2O25,0.0,-2.93854094834127,mp-1208647
CaMg30SnO32,1.8848,-2.938496060703125,mp-1037834
Sr3Li6Ta2O11,4.125599999999999,-2.938368584984847,mp-1208758
Na4LaTiSi2PO12,1.8904,-2.9383373255631793,mp-2715727
Na2Ta4Nb4Si9(SO16)3,2.3648,-2.938331062017981,mp-2714266
Na3MgNb5Si3(PO6)6,2.4848,-2.9382852572591682,mp-2715554
NaLaNb(PO4)3,2.214099999999999,-2.938282992794884,mp-2713958
Na4HfMgSi(PO6)2,3.9059,-2.938220684514426,mp-2714592
Na14Nb5Al3(SiO4)12,2.4725,-2.9381655223493133,mp-2712833
SrB8O13,5.7481,-2.937962776458333,mp-684018
TiZnSiO5,3.0316,-2.937937828541668,mp-1046592
Cs3Li2F5,5.7273,-2.937810100833334,mp-558728
Ba2Ca2EuTi3(CuO7)2,0.0,-2.937795665625,mp-1214800
K3Al2(PO4)3,4.6074,-2.937700390033927,mp-560629
Na6Ca3U2O12,1.8352,-2.9376652394902543,mp-1220825
Cs3Gd(PO4)2,3.1528,-2.937660921303659,mp-1194926
Ba2PuInO6,0.0,-2.937614710541669,mp-1205697
K2MgCuF6,0.0,-2.9375311049499992,mp-1223639
K4SnSb2F14,4.0907,-2.9374359997142863,mp-558309
LiMg14GaO16,5.0984,-2.937413278776041,mp-1035108
Pr2MgTi2S2O5,0.0,-2.937360660416667,mp-2226531
Na5La2Nb2Si3(PO8)3,1.8062,-2.937337974551072,mp-2714066
CaMg14ZnO16,3.523499999999999,-2.937331084374999,mp-1036412
Pr2CuO4,0.0,-2.937306323333335,mp-4181
Cs2U2O5,0.0,-2.937240151590038,mp-1183901
Ba6Ho2Al2Rh2O15,0.0,-2.937138739074074,mp-1228344
Na2ScTa3Si4(SO12)2,2.3967,-2.936983624298851,mp-2715666
Na7Ti2Al2Si3(PO8)3,2.6592,-2.936914676103668,mp-2714623
CaSiSnO5,3.2313,-2.9369122868749993,mp-6809
NaHfNbSi2SO12,2.6159,-2.936845433456258,mp-2715722
GdHO2,3.0714,-2.936812904062501,mp-625147
Na2Y3TaP4(SO12)2,2.9861,-2.9368008454721313,mp-2712598
Na3Y(PO4)2,4.964,-2.9367755986374022,mp-1210758
CaZrSi6H4O17,4.8014,-2.936744717241379,mp-1194879
Na4YAlSi(PO6)2,4.0335,-2.936742171816014,mp-2714545
SrMg30CdO32,3.7709,-2.93670491703125,mp-1038630
BaPr2CuO5,0.4272,-2.9366641414814803,mp-20212
Na8Hf2Al2Si5SO24,4.0054,-2.936639117742884,mp-2715719
BaNaB5O9,5.1816,-2.936620327638291,mp-1019554
Na3TiAlSi(PO6)2,2.5235000000000003,-2.936559151504516,mp-2715405
Na5Ca2Hf2P5SO24,4.149599999999999,-2.9364793013062602,mp-2715021
Na6MgTi3Si2(PO6)4,2.1506,-2.936470217129516,mp-2715397
Al3Bi(BO3)4,9.999999999976696e-05,-2.936361278833333,mp-1214839
SrCaSn(PO4)2,3.5866,-2.936250925714285,mp-1046242
Na3Gd(PO4)2,3.035999999999999,-2.9361952097683552,mp-1203147
Pu2SO2,0.0,-2.935936388999995,mp-21421
Rb2NaNb6(PO8)3,2.2481,-2.93584741028633,mp-677731
KLaCeGeO6,2.0494,-2.935823412725,mp-1520142
La12Cu6O25,0.0,-2.93571850011628,mp-757399
HfCdO3,0.0,-2.935717661999999,mp-1212404
Na10Sc4Ta4Si9(SO16)3,2.8025,-2.9356653692174333,mp-2714150
Rb8Ta6O19,3.4925,-2.9356604487575773,mp-1209439
Ca2TaBiO6,1.7981999999999991,-2.935634391733333,mp-1372882
LaZn(BO2)5,4.731199999999999,-2.935606226078432,mp-1019968
NaEuZr4O12,0.0,-2.935601472021073,mp-1520648
Na6Zr8Si7S5O48,2.658699999999999,-2.9353815638618372,mp-2713014
Na2AlSi3HO9,4.671099999999999,-2.9352379393130392,mp-706617
BaAl4(SbO6)2,3.249899999999999,-2.935126067631578,mp-1196877
KAlP2O7,5.2966,-2.935011804912336,mp-17031
Cs2TiOF5,0.044599999999999,-2.934998694738186,mp-1188571
KMg30GaO32,4.0443,-2.934869651949218,mp-1040209
Sr3HoRhO6,2.160199999999999,-2.934729701818182,mp-18652
Y2S2O,2.556399999999999,-2.934728989499999,mp-8869
K4BaNb5O15,0.0,-2.93462329656,mp-1224039
Rb2LiBiF6,4.9741,-2.934599426833333,mp-1110656
YMg30NbO32,0.0,-2.9345932775,mp-1037209
CsYO2,2.8461,-2.9344893899137943,mp-541044
Ca2DySbO6,3.1986,-2.934467936166666,mp-1516398
CaZrSi6O17,0.8641000000000001,-2.9342100462,mp-1204163
BaNa(B3O5)3,5.6048,-2.9340917418799752,mp-17864
AlCuF5,0.0,-2.934049361428572,mp-1251392
Na8Y2Ti2Si5SO24,2.6679,-2.934036861711139,mp-2716166
Na4Ti2Nb2Si5SO24,2.4744,-2.933977194465366,mp-2715093
Na8Sc3NbSi5SO24,2.3014,-2.933957661909551,mp-2715699
Ba2YbReO6,0.0,-2.933922713000001,mp-13935
Na2YTa3Si4(SO12)2,2.4583,-2.933868562771073,mp-2715609
LiInF4,4.0149,-2.933849961111111,mp-8892
La3TaGa5O14,0.0,-2.933837149123188,mp-1211938
Nd2HgO4,2.2099,-2.933779668928569,mp-11691
Sr3La21Zn2(Cu5O24)2,0.0,-2.933674733869047,mp-532700
K2BiF5,4.7686,-2.9336584202500022,mp-561290
K4In2Si8O21,3.8373,-2.933491108495237,mp-553982
KLaTi4O12,0.0,-2.933335299199074,mp-1516714
Na4TiAlSi2PO12,2.582099999999999,-2.933237269213973,mp-2715724
NaLiMg30O31,2.542399999999999,-2.933193537455757,mp-1040085
LiMg30SbO32,2.6566,-2.9331593064583332,mp-1040012
BaLa2In2O7,2.7356,-2.933075050902777,mp-21699
Sm3Ga5O12,3.359599999999999,-2.9330634632500012,mp-5800
Na14Ca5Zr3(PO4)12,3.786299999999999,-2.933035546158837,mp-2714194
Cs8Ta6O19,3.4757,-2.932882073522466,mp-542069
SrLiAl2B2O7,0.0,-2.932774057435897,mp-1235374
Na3InF6,5.1364,-2.932756415,mp-1210420
Zr2ZnAg2F14,0.3058,-2.9326552932894843,mp-977584
Rb3Al2(PO4)3,4.4183,-2.9326435888214273,mp-560459
Na8Y3NbSi5SO24,2.6197,-2.932620075917488,mp-2716264
Mg30TiNbO32,0.298799999999999,-2.9326132845833333,mp-1040382
Na7MgTi3Si3(PO8)3,2.2218,-2.932571492648384,mp-2714633
Al2Ga(PO4)3,0.0,-2.932562292857142,mp-1228998
CaSiBHO5,5.390499999999999,-2.932558775601852,mp-554371
Ta5Zn(PO4)9,3.1569,-2.932553191048087,mp-2713985
Cs2KBiF6,4.9469,-2.932455240656035,mp-573204
NaLaZrSnO6,2.633099999999999,-2.932350431137931,mp-1521181
Na8Al11Si13(AgO16)3,2.1602,-2.9322906420004142,mp-677572
Ba2EuMgNbO6,0.043,-2.932225472727273,mp-2240659
Na5Sc3Sn(PO4)6,2.8935,-2.93221481114753,mp-2716433
Ca3Si4(BiO7)2,2.8719,-2.932122488913043,mp-1264770
TbInO3,2.911199999999999,-2.9320331816666663,mp-769263
Na4CaZrSi(PO6)2,3.2605,-2.932004929990618,mp-2714488
Na42Ca8Ta16Si33(SO48)3,2.8327,-2.932003548242945,mp-2714422
Na3Al3Si3AgBrO12,3.3352999999999993,-2.931985140034982,mp-43068
Nb18P3O50,0.0,-2.9319598052666,mp-772038
NaAl3(SiO4)3,2.9953000000000003,-2.931882703756807,mp-1220946
KTa(PO4)2,3.3393,-2.93183137032242,mp-1211285
Mg30NbAlO32,0.0,-2.931817104218749,mp-1038214
Na5MgTi3SiP5O24,1.9647,-2.931797405943013,mp-2714047
Na7La2Nb2Si5PO24,2.0097,-2.9317497244137742,mp-2714602
BaZnBO3F,3.6218,-2.9317474341666663,mp-1077866
CaYMg6O8,0.1218,-2.931711135624999,mp-1032908
RbAl3(P3O10)2,5.4386,-2.931556924678571,mp-555621
Cs2TaAuF6,1.1619,-2.931536520543312,mp-1113212
Na6Ta6Al2Si9(SO16)3,2.791699999999999,-2.931491088487963,mp-2712979
Sm3B(SO)3,1.5301,-2.9314827041666662,mp-1105337
Na2YScP2SO12,4.2782,-2.931388305502334,mp-2713240
Na6CaHf3Si4(SO12)2,3.8306,-2.9313835757485642,mp-2714416
Ba6Pr2Ga4O15,3.657999999999999,-2.9313484045679012,mp-1214591
HfTiP2SO12,2.6443,-2.9313381832422962,mp-2713475
CaTi2(HO3)2,3.1485,-2.931290467310606,mp-709021
Na18Mg4Ta20Si27(SO16)9,2.1966,-2.931287812382857,mp-2712953
NaHfMg30O31,0.5456000000000001,-2.931224510259989,mp-1039713
Na7La2Al2SiP5O24,4.2125,-2.9311972060862472,mp-2715632
Na3LaNbSi2PO12,1.9971,-2.93115855018904,mp-2715495
Ca3Si3(BiO6)2,3.2982,-2.931089537375,mp-1163927
Na2Nb4Si5SO24,2.2074,-2.931077873896074,mp-2713479
Na4TaAl3(PO4)6,3.561899999999999,-2.931043694229151,mp-1221172
Ba2B5HO10,4.787400000000001,-2.930648694560185,mp-1198110
SrMg30CuO32,0.572099999999999,-2.9306075412499992,mp-1037249
Ce3As2ClO7,0.0,-2.9305912105769223,mp-1200622
K2CaP2O7,4.8873,-2.9305614923988093,mp-555914
Cs3InF6,5.3129,-2.930455700999999,mp-1112970
Ca2TaSbO6,0.8163,-2.9304265817333333,mp-1343823
BaMg30AlO32,0.0,-2.9304101403125,mp-1037958
Ba3Bi(BO2)9,4.286300000000001,-2.930397744758065,mp-1200141
KLa(PO3)4,4.8558,-2.930340037545635,mp-540962
NaMg3(SiO3)4,3.265599999999999,-2.9301440346939662,mp-1221159
SmHO2,3.9025,-2.9301160928125,mp-1101397
LiTb(PO3)4,6.0116,-2.930098251865078,mp-18194
Ba6Nb2Ir(ClO6)2,0.0,-2.930064240869566,mp-558113
Na4MgTi3(PO4)6,2.1973,-2.930048080746695,mp-2713271