formula,bg,formation_energy,mp-id
K5Na3Ta2Nb6O24,1.4727,-2.882566073876364,mp-1099712
KEuZr4O12,0.0,-2.882555260680555,mp-1522855
K2Si3SnO9,4.0129,-2.8825441013,mp-556797
BaMg30NbO32,0.1082,-2.8825332942187503,mp-1038676
K4Ba(SiO3)3,4.2288,-2.882499321705883,mp-558347
GdSiO3,0.0,-2.882494295,mp-1184484
Ba3B6H2O13,5.0891,-2.8824488884375,mp-1199009
Ca2AlSnO5,1.6406,-2.88240697,mp-1251151
Li3Ti3(PO4)4,0.0,-2.882397983406593,mp-758035
Mg30AlCO32,1.8304,-2.882352444296874,mp-1038189
Na6Y4Ta4Si7S5O48,2.4522,-2.882349165519495,mp-2712948
Na3Y4P3(SO8)3,4.6775,-2.882144736952248,mp-2713871
RbP(OF)2,5.2038,-2.8821263666071433,mp-558162
HfMg30SnO32,0.0,-2.882084192734374,mp-1098345
Nd12Cu6O25,0.0,-2.881803220813953,mp-662567
RbBePO4,4.9629,-2.881756237806122,mp-1209324
KNaMg30O31,2.6365,-2.8816378960893543,mp-1040313
LaNb7O12,0.416299999999999,-2.8816067825,mp-29183
K3U2O6F7,0.2027,-2.881584269541665,mp-1212160
Na4Ta3InSi5SO24,0.5346000000000001,-2.8815550825881733,mp-2715103
Na5La3Ge(PO4)6,1.444699999999999,-2.881525846190266,mp-2716397
Na10Zr4Sc4Si7S5O48,3.256,-2.881481426939656,mp-2715961
Sr2TmBiO6,1.9455,-2.881461053000001,mp-1208751
NaSrBO3,3.8575,-2.881395506757662,mp-556695
Na6CaZr3Si4(SO12)2,3.3846,-2.881270101498564,mp-2714323
Rb4Nb35Al2O70,0.0,-2.8812530336936932,mp-560765
Na2AlAgF6,2.2358,-2.8812404791249993,mp-1111337
La6Sb4(SO4)3,1.957899999999999,-2.8812366177000013,mp-1223262
Na5Nb3GaSi5PO24,2.5545,-2.881049067154857,mp-2716516
K3SnHF8,5.1576,-2.880980994846154,mp-696683
Li3Nb7O19,2.0571,-2.880962148275862,mp-772176
Na14Ta5In3(SiO4)12,3.2013,-2.880860275113541,mp-2712898
Eu4Cl6O,0.9888,-2.880816175454547,mp-28546
Na12Ca4Ta2Si3(PO6)6,3.158899999999999,-2.880801593715485,mp-2714341
La2MgTi3(AgO5)2,0.0,-2.880713748796296,mp-2229472
Ba2ScOsO6,0.0,-2.880641899500007,mp-1205674
Na8Al3Ga3Si6(ClO12)2,4.3862,-2.880626328337707,mp-1220864
HfMg30BO31,0.849499999999999,-2.880617195939153,mp-1038485
Na6Sc2Nb6Si9(SO16)3,2.119,-2.880582624244719,mp-2713059
Na4Nb3AlSi5SO24,2.2748,-2.880521461658349,mp-2715122
Na2Sc2Ta6Si7S5O48,2.5195,-2.880341553203694,mp-2715524
Li2U2O5,0.0,-2.880079015740738,mp-1185149
Na2MgTa(PO4)3,3.152599999999999,-2.88005741722915,mp-2713270
Nb3Pb2O7F5,0.0,-2.880022334117648,mp-1220840
KZrP2HO8,4.1806,-2.880001730021978,mp-541071
Ba2ScCuO4,2.0282,-2.879962554375,mp-1228350
Na7Ca3Ta(PO4)6,2.9823999999999993,-2.879883179386479,mp-2714059
Na10Sc4Nb4Si9(SO16)3,2.0777,-2.879865102388373,mp-2714169
Sr2LiSiO4,0.0,-2.879677572916666,mp-1209083
Sr3SmRhO6,2.0124,-2.879632841363637,mp-17829
CaTi6(H2O7)2,0.0,-2.8795451226,mp-1233761
K2AlSO4F3,5.7847,-2.87943363904546,mp-1203080
LaAlGe2O7,3.5206,-2.879396329772726,mp-1211910
Ba3La2Cl12,3.6567,-2.8793371073529412,mp-771914
Na4Y2Hf2Si3(SO8)3,3.3567,-2.879135643807471,mp-2713558
Mg30CdSnO32,1.641499999999998,-2.879129550546874,mp-1095703
CaMg5P3CO16,0.5948,-2.879117235920329,mp-733871
Na10La4Ta4Si9(SO16)3,2.5593,-2.879065671311449,mp-2714105
ErSbO4,2.382399999999999,-2.879032631666668,mp-1213308
CsTa2P5O18,2.9928,-2.878914936059083,mp-557186
BaPb2IF5,2.8346,-2.878751976666666,mp-554245
Na3Al2(PO4)3,5.04,-2.878710459069992,mp-2715262
Na18Mg4Ta8Si15(SO24)3,2.5393,-2.878705683466619,mp-2713986
Na6La3TaSi4(SO12)2,3.0347,-2.878672367473564,mp-2714413
CaMg14CuO16,0.0,-2.878403843124999,mp-1036393
NaTa3Zn(PO4)6,1.8746,-2.878397028987708,mp-2713983
BaNb6HO16,1.4865,-2.878347282135417,mp-1214450
MgNb5(PO4)9,2.3163,-2.8782125245448182,mp-2713885
Na7Y2P7O24,5.0633,-2.878189060053878,mp-559103
NaHoGeO4,3.6138,-2.878158338768471,mp-18334
KTiP2O7,0.1442,-2.878113699079004,mp-17234
RbTiP2O7,0.1089,-2.878090893419913,mp-17495
Li3Ti2(PO4)3,0.1295,-2.8780484617797613,mp-25839
Na6Y2Nb6Si9(SO16)3,2.081899999999999,-2.878043105596071,mp-2712899
Na21Mg4Nb8Si15(PO24)3,1.979,-2.877997141974749,mp-2714327
TaNbSi2SO12,3.105,-2.877992151754902,mp-2715710
K2NbO3F,1.2576,-2.8779088363571432,mp-1223800
Na2Be4B4O11,5.170599999999999,-2.8778800128297752,mp-1020144
K2AlOF5,1.1958,-2.877748093277777,mp-731701
Li6CuF8,0.0,-2.877715247333333,mp-753139
NaY2Zr2P3(SO8)3,3.3811,-2.877695222604035,mp-2716561
Na7Mg2Ta2Si3(PO8)3,2.6798,-2.877676253615864,mp-2714700
CeAlO2,0.0,-2.877587447499999,mp-1226604
K3Nb3(BO6)2,2.3377,-2.8775654310041943,mp-558828
Na4Y2Si2SO12,3.7148,-2.877539848080186,mp-2714374
Na3YZr3Si3(SO8)3,3.5101,-2.8775153104496742,mp-2714641
Na4Sc2Si2SO12,4.057,-2.877491411334154,mp-2714335
Sr2ErRuO6,0.0,-2.877480758499999,mp-6294
Na7Ca2Sc2P5SO24,4.2597000000000005,-2.8774064083016953,mp-2715952
Na3Zr3ScSi3(SO8)3,3.608599999999999,-2.877401786801025,mp-2714666
KLaTbSbO6,2.3726000000000003,-2.877274273891667,mp-1519655
Ce(PO3)4,1.2397,-2.877267321165965,mp-1019593
LiTi3O4,0.0,-2.8771096466666672,mp-1235293
LiLa2OsO6,0.3355,-2.8770802708333343,mp-12451
NaLi3Ga4(SiO3)8,4.2953,-2.877053568784483,mp-1220817
CaMg14NbO16,0.0,-2.877046910624999,mp-1036325
Na3MgTa5Si6(SO12)3,2.442599999999999,-2.877040516172308,mp-2715705
Na12Ca2Nb10Si15(SO24)3,2.4235,-2.877032151307472,mp-2715094
NaHfAlP2SO12,4.9521,-2.8769940556387983,mp-2712765
LiAlPdF6,1.0557,-2.876894756697527,mp-9055
KHf4BiO12,0.0,-2.876875459847222,mp-1520905
Na15Mg4Nb8Si9(PO8)9,2.057299999999999,-2.876718773354491,mp-2714153
Na10Hf6Mg2Si7S5O48,3.7219,-2.8766504277088862,mp-2714131
Ba2TmRuO6,0.0645,-2.876566269,mp-12729
BaCaNbInO6,3.4029,-2.876486857666667,mp-1518821
BaCeC2O6F,0.197799999999999,-2.876480440909091,mp-541482
Ba6Gd(ReO6)3,1.938899999999999,-2.8764253966964293,mp-1229259
Eu2Ge(BO4)2,0.0,-2.876367211602565,mp-1019739
ScP2O7,0.0,-2.87628966092857,mp-773030
Cs2LiSbF6,4.1258,-2.876263361264368,mp-1110971
BaSr3Lu2(BiO6)2,1.829399999999999,-2.8762623806666663,mp-1227748
Pr2SbO2,0.0,-2.876212252666666,mp-1173341
YMg14AlO16,0.0,-2.876087932499999,mp-1036690
Ba2Nb5O9,0.0,-2.8760714015625,mp-19796
LiScGeO4,4.0333,-2.876009241904761,mp-504948
Ca4Si3(BO4)5,0.137,-2.876007476119791,mp-1227192
KCePrGeO6,1.9978,-2.875996143391667,mp-1522582
Na3Ca2TaO6,4.2075,-2.8759330605392712,mp-18480
Na5Mg2Ta2SiP5O24,2.5156,-2.875902418584039,mp-2715881
LaTaP2SO12,3.1557,-2.8758478624971993,mp-2713215
Mg30GaBO32,2.1608,-2.875723640885416,mp-1038427
Na14Mg5Zr3(PO4)12,3.9179999999999993,-2.875676281301114,mp-2714192
ScTaP2SO12,3.2143,-2.875591664457984,mp-2713481
CaH2F4,7.6467,-2.875533860357142,mp-1104135
Pr2S2O,2.4857,-2.875478446666665,mp-753879
CsAlPdF6,0.0,-2.875400613981485,mp-17033
Hf2Ta2Si3(SO8)3,1.6296,-2.875348520504903,mp-2713757
Na6Zr4Ti4Si7S5O48,1.345899999999999,-2.875347358456431,mp-2712907
NaCe(PO3)4,0.3187,-2.875321853052819,mp-561049
Na2Hf4Zr4Si5S7O48,2.7742999999999993,-2.875293303313219,mp-2716265
Na3Ti3In(PO4)6,2.3127,-2.8751571014052733,mp-2714745
TbAlGe2O7,3.679699999999999,-2.87509967810606,mp-1208364
BaPr2In2O7,2.3815,-2.875070732013888,mp-1203636
Na2SbF5,4.8247,-2.875063982219829,mp-27936
Li12Nb14ZnO42,3.262499999999999,-2.87503791710145,mp-767604
NaAl3Tl2(SiO4)3,2.9247,-2.874994992883142,mp-677233
K2U3(TeO7)2,1.8600999999999992,-2.874956071325395,mp-11887
KSi5BO13,0.3198,-2.8749007728208342,mp-1223419
LaNbTeO6,3.297799999999999,-2.8748838976851863,mp-557784
Na3MgTaSi(PO6)2,2.7617000000000003,-2.874850431621183,mp-2715476
KZr(PO4)2,0.0019,-2.874850160961308,mp-726320
Na3Nb5ZnSi3(PO6)6,2.3769,-2.874803198092502,mp-2715615
Na4Nb3GaSi4(PO12)2,2.512299999999999,-2.874769656113236,mp-2714976
Sr5(ReO6)2,2.0795,-2.874758189122808,mp-555428
Ba2Cu(PO4)2,0.258499999999999,-2.8747372184065942,mp-9372
LiMg14BO16,5.672799999999999,-2.874700265703124,mp-1035346
BaCaTbSnO6,0.0,-2.874660422166667,mp-1519927
NaEuHfSbO6,0.0,-2.874577934637931,mp-1518599
Na3La2Y2P3(SO8)3,4.5247,-2.874548703889185,mp-2713897
Na6Nb3In(SiO4)6,2.8804,-2.8745227957485633,mp-2715367
KScBP2HO9,4.8467,-2.874520034130158,mp-23808
Na6Sc4Ta4Si7S5O48,2.3399,-2.8745146139879623,mp-2712911
DyAlGe2O7,3.6402,-2.874474663106059,mp-1213060
NdSeO,0.337099999999999,-2.874359508281248,mp-755364
Rb2AlOF5,0.8528000000000001,-2.874313272222222,mp-1189074
Na6La4Ta4Si7S5O48,2.6413,-2.874284546060034,mp-2712845
KMg30SbO32,2.624,-2.874273754175781,mp-1040167
Al2Si2Pb2O9,2.824899999999999,-2.874237976666667,mp-561246
Na4HfSi3GeO12,3.2503,-2.874199161294472,mp-2716509
KP(OF)2,5.236499999999999,-2.874157661565477,mp-559062
Na5Y2Al2P5SO24,4.4855,-2.8741391809643813,mp-2715125
Na3Hf3AlSi3(SO8)3,4.3584,-2.8740737448640883,mp-2714644
Na7Hf2Ga2Si3(PO8)3,3.9446,-2.8739837837052953,mp-2714684
RbIn3F10,3.4583999999999993,-2.873881656964286,mp-1179709
Ba2CePbO6,2.3054,-2.873834082999999,mp-1228392
Na4CaTaSi2PO12,2.5673,-2.873831552499687,mp-2715712
Na4YScSi2SO12,3.8502,-2.8738141548262193,mp-2714507
Mg30SiBO32,0.7318,-2.873800718893228,mp-1039876
CsBa2MgNb3O10,0.0,-2.873795227920893,mp-2229490
K3AlB8O15,5.217,-2.873760734354937,mp-561447
YMg30BiO32,0.0,-2.8737341046875002,mp-1037247
Ba2TbCl7,4.8529,-2.873686735916663,mp-1214626
HfMg14TiO16,0.145100000000001,-2.873664312604166,mp-1034006
Ca2Al3H3O8,4.488300000000001,-2.873662701328125,mp-1198782
Na7Al4SiP5O24,4.7116,-2.873455969256978,mp-2715583
GdBeO3,0.0,-2.8734107680000003,mp-1184468
RbF,5.5244,-2.87335177125,mp-11718
KLaYSbO6,2.4149000000000003,-2.873320821224999,mp-1516392
NaPrHfGaO6,0.0,-2.873243091054598,mp-1522723
Na2La2Ta6Si7S5O48,2.5212,-2.873221283251314,mp-2715667
RbScBP2HO9,4.806,-2.873099768813494,mp-23809
NdInO3,2.6533,-2.873084320333331,mp-755138
Ba2AlInO5,2.0183,-2.872980514907408,mp-556282
Na2Hf2Ti2Si3(SO8)3,2.4391,-2.872957998294221,mp-2713805
Cs2TaAgF6,0.2824,-2.872888780253322,mp-1114070
NaPrZrSnO6,3.279699999999999,-2.872871959804597,mp-1517426
UGeO4,0.0,-2.872734061666664,mp-7567
Na4Sr(SiO3)3,4.2471,-2.872665538265721,mp-559773
Na3La4P3(SO8)3,4.4666,-2.872659316591888,mp-2714014
Ba2GdCl7,1.561499999999999,-2.872607037499999,mp-29084
BaMg30SiO32,1.6209,-2.87259671015625,mp-1039822
Li15Nb16O48,0.0,-2.872560712911392,mp-530846
Rb2U3(TeO7)2,1.851299999999999,-2.872551534206348,mp-542501
Li25Ca5La7Nb8O48,3.3864,-2.872470256433691,mp-695291
Mg30TiBiO32,0.0,-2.872412494583333,mp-1040359
Cs2Na2Sr(B3O5)6,5.7745,-2.872368412680547,mp-1019611
KSbF4,4.439,-2.872325874124999,mp-5079
Cs2RbSbF6,4.0614,-2.872137725681034,mp-1112513
BaNb10SiO19,0.0,-2.872024411290288,mp-555764
Mg30NbSnO32,0.695299999999999,-2.8719954621093753,mp-1095702
Sr2YOsO6,0.173,-2.871980555999999,mp-1105147
Na6Mg2Nb4Si3(PO6)6,1.965999999999999,-2.871875582914614,mp-2712711
SrCaNbInO6,3.4575,-2.871862377666666,mp-1522466
Sr2ErBiO6,1.9513,-2.871816628499999,mp-1208875
La3In2(GaO4)3,3.3646000000000003,-2.871792972541667,mp-1211871
Si5P6O25,5.6022,-2.8717827075793663,mp-3273
KCaHfSbO6,3.3114,-2.871750287724999,mp-1519658
KHfZrBiO6,0.802,-2.8716593867249998,mp-1521210
Na2Lu2B2TeO10,2.9727,-2.87153977418188,mp-1195028
CsCeMg30O32,0.0,-2.871420210775861,mp-1039964
CsTiP2O7,0.166399999999999,-2.87141152793402,mp-17359
Hf3Ti2(PbO3)5,2.673199999999999,-2.871380471266666,mp-1224603
Na3Nb3GaSi3(PO8)3,2.3784,-2.871376091952248,mp-2712959
CsK2InF6,4.7905,-2.8712173220821833,mp-1112317
Na3Ca2Nb4(PO4)9,2.0337,-2.870788989368957,mp-2713891
Rb2NpO4,0.271799999999999,-2.870747190535717,mp-1025179
Na2Nb8Si9(SO16)3,2.3977,-2.870679718932266,mp-2714227
BaTbCuBO5,0.0,-2.8706002467592593,mp-1214316
Na6Nb8(PO7)5,0.038199999999999,-2.8705786356757432,mp-553959
Na4Al2Si(PO6)2,4.5372,-2.87050337800649,mp-2714518
Na14Ca5Ti3(PO4)12,2.0475,-2.870503275223878,mp-2714298
Na2HfGa(PO4)3,4.023,-2.870488120308099,mp-2713307
Cs2U3(TeO7)2,1.8635,-2.870472926792555,mp-562366
NaSr(PO3)3,5.4112,-2.870435700736278,mp-1020657
Ba2DyCl7,4.8933,-2.870415304166666,mp-1214746
NdBeO3,0.0,-2.870313715499999,mp-975579
Li4Be3P3ClO12,6.4154,-2.870299692707039,mp-560894
CsK2NbF6,0.0,-2.8702571534155172,mp-1111974
Na18Ta20Zn4Si27(SO16)9,1.968,-2.8702552068423173,mp-2713065
NdTeF,0.418099999999999,-2.8701288531481453,mp-12621
CsLaMg30O32,2.8641,-2.870103725853986,mp-1039992
Sr5Li25La7Nb8O48,3.2119,-2.870092610412186,mp-686239
Cs2Si3SnO9,3.9233,-2.869980218954023,mp-554359
Ce2BiO2,0.0,-2.869922813999996,mp-23003
SrMg14ZnO16,4.9841,-2.869875491875,mp-1034944
SrMg30BiO32,0.167699999999999,-2.8698362081249993,mp-1038678
Na7Hf2Si5Ge2PO24,3.4854,-2.869784489942229,mp-2714515
NaZr3TaSi3(SO8)3,2.5445,-2.869723956891791,mp-2714019
HoSbO4,2.3323,-2.869708189583331,mp-1212288
Li9Al3P8O29,5.3587,-2.8696699927988343,mp-560209
NaMgNb3(PO4)6,1.1571999999999991,-2.8696087028829482,mp-2713814
Eu3SbO7,0.0,-2.869598592727273,mp-1190831
Na14La6Nb2Si9(SO16)3,1.984,-2.8695628813228913,mp-2714935
SrAl7Tl5Si5O24,1.7681,-2.86954890670635,mp-1173192
CaMg30CO32,3.130899999999999,-2.869488344296875,mp-1037944
K5Nb4O12F,3.4339999999999993,-2.869486210284089,mp-6245
LaTi3(BiO4)3,2.253599999999999,-2.8694494234210532,mp-1211635
Gd3(BiO4)2,0.0,-2.869384636923077,mp-1178246
Ba4NaGa2B8(BrO6)3,3.4734,-2.8693337056864623,mp-1195423
KNa2GaF6,4.9498,-2.869326611750861,mp-1111013
KMg30BiO32,3.252399999999999,-2.869309539644531,mp-1040233
CsU(OF)3,0.200999999999999,-2.869278281206895,mp-1197993
Li9Ti5(SiO8)2,0.0,-2.869277054895833,mp-766170
Na14Hf6Zn2Si9(SO16)3,3.5194,-2.8690584125424032,mp-2714799
NaScTiP2SO12,2.1132,-2.86888155786102,mp-2712781
Cs2SiB4O9,4.7924,-2.868871022561063,mp-1226151
Rb3BiF6,4.494400000000001,-2.868821066250001,mp-1113922
CsBePO4,5.1939,-2.868731574542575,mp-15395
Cs2Cu2Si8O19,0.7552000000000001,-2.868689805622913,mp-556177
Na3HfSi2GePO12,3.3438,-2.868598890814039,mp-2715497
Na3Zr3ZnP5SO24,3.6401,-2.868485393194205,mp-2715913
Na3CaTi3P5SO24,1.8819,-2.868458741572583,mp-2716000
Na3ScTiSi2SO12,2.4676,-2.868418132581898,mp-2714366
Na5Hf2Ga2SiP5O24,3.8214,-2.868403638934466,mp-2716053
LiSbF6,4.933400000000001,-2.8683524941666683,mp-3980
Ba5Sr2Nd8(CuO5)5,0.0,-2.8683313913333333,mp-532816
NaCeMg6O8,0.405099999999999,-2.868259033211206,mp-1030999
AcSiO3,0.0,-2.8682463835,mp-1183150
Mg30CuBiO32,1.254399999999999,-2.868149521249999,mp-1037183
NaLa2Zr2P3(SO8)3,3.2452,-2.868138287270702,mp-2716403
Na6Y3NbSi4(SO12)2,2.1202,-2.868135278581897,mp-2714420
KMg14TiO16,0.7464000000000001,-2.868070436893229,mp-1034191
Y3In2(GaO4)3,2.719099999999999,-2.867926784166667,mp-1207946
NaLiGa2(SiO3)4,4.2668,-2.8678321534856313,mp-1220982
Na2Tm2B2TeO10,3.1794,-2.867805426044626,mp-1195532
NaMgPO4,5.1057,-2.867772388598404,mp-6699
RbPrO2,3.3978,-2.8677276547916652,mp-1101401
BaNa(PO3)3,5.6086,-2.867709152700563,mp-13755
Sr2MgReO6,0.0,-2.86752002375,mp-1078868
Li6Ti3P8O29,2.359,-2.867435775481366,mp-778149
Mg30BiBO32,1.877699999999999,-2.867351188580729,mp-1098202
Na8CaTi3Si5SO24,2.0907,-2.867208602980981,mp-2716191
ZrBeO3,0.6259,-2.867200542,mp-1188011
CeBeSiHO5,0.112099999999999,-2.867193184583333,mp-686671
CaMgGeO4,4.024299999999999,-2.867154420714285,mp-558362
SmAlGe2O7,3.6256,-2.867144943636364,mp-1208925
Na3CaTi(PO4)3,2.0545,-2.867118922319991,mp-2715415
Ca2MgReO6,0.0,-2.86709453425,mp-1227487
Ba2HoCl7,4.9186,-2.8670745845,mp-1214684
Cs2CuSi5O12,0.1916,-2.867034138028017,mp-1196579
Sr2HoRuO6,0.0,-2.866980289999999,mp-6676
DySbO4,2.3553,-2.866834643194442,mp-1213234
YMg30CO32,0.0,-2.8668168577343742,mp-1037229
Ti2ZnO4,0.0,-2.8667582152380953,mp-1047249
HfMg30CO32,0.7456,-2.8666934617968742,mp-1038368
Na4MgTaSi2PO12,2.7792000000000003,-2.866673623293338,mp-2715694
Na2Nb3GaSi2(PO6)4,2.3144,-2.866669083208242,mp-2715733
Na3HfGaSi(PO6)2,3.932299999999999,-2.86664593946285,mp-2715402
CaCeC2O6F,0.2519,-2.8665968037878793,mp-662583
Na4LaMg(PO4)3,4.1242,-2.866548172116467,mp-2714928
Li2Sc(PO4)2,0.2571,-2.866282442765567,mp-1193287
NaTbGeO4,3.598799999999999,-2.866214607935139,mp-16927
Na4HfGaSi2PO12,3.8025,-2.8662112421107993,mp-2716258
Na2ZrO3,4.350999999999999,-2.866204437126436,mp-990440
Na5Nb3InSi5PO24,2.4029,-2.866184163800157,mp-2716535
BaCu(SiO3)2,0.6395000000000001,-2.866174638375001,mp-1197716
Sr2TiRuO6,0.0,-2.866145533333333,mp-1218387
Na10Y4Nb4Si9(SO16)3,1.997,-2.866133267345638,mp-2714235
RbBe2P3O10,5.6347000000000005,-2.866107189464286,mp-557673
Ba2InO3F,2.046699999999999,-2.866102289523809,mp-19956
Ta3Sb(PO4)6,2.2733,-2.866042717054636,mp-1218132
Na9Mg4Nb8Si3(P5O24)3,2.1736,-2.865929204973483,mp-2713109
BaSrLuBiO6,1.728799999999999,-2.865843139666667,mp-1227532
Mg30TiCO32,0.300899999999999,-2.8657862677864583,mp-1040333
CsSbF4,4.4026,-2.865629507859187,mp-29296
Na9Ta4Zn2Si6(PO12)3,2.849299999999999,-2.865605345372372,mp-2713268
Nd5As4(ClO4)3,3.7175,-2.865603284270832,mp-556908
Ba2ErRuO6,0.0716,-2.865575251999999,mp-6621
CsRb2TaF6,0.0,-2.86556561319885,mp-1111452
Pr2MgIrO6,0.0,-2.865563944333333,mp-1188397
Rb2Si3SnO9,3.8147,-2.86547719,mp-17382
Na3LaZr3Si3(SO8)3,3.4771,-2.865451264368593,mp-2714917
Li6Zr2O7,4.0047,-2.865416462333333,mp-5418
Ba2ErCl7,4.9505,-2.865382417500001,mp-651358
Na12Mg2Nb10Si15(SO24)3,2.3273,-2.86535463016712,mp-2715102
K6Al4Si6BH4ClO24,4.5193,-2.865287828427535,mp-1199737
BaSrPd(OF)2,0.0,-2.8652305985714293,mp-1227333
Li2Ti3BiO8,0.0,-2.8652215583333343,mp-754723
TiNbHO5,2.820599999999999,-2.865200347447918,mp-1216937
Na3Ti2Al2P5SO24,2.443399999999999,-2.865180575176186,mp-2715959
Na14Zr4Al4Si9(SO16)3,3.3091,-2.865061138883866,mp-2714690
LiTb2RuO6,0.0814,-2.864963510666666,mp-1210924
LiB6O9F,6.4556,-2.86485175622549,mp-558105
Ba2MgO3,3.6313,-2.864761999583333,mp-779511
Ba2YCl7,4.729,-2.864741821250001,mp-768954
HfMg14CuO16,0.099399999999999,-2.8645869046875,mp-1035299
Na12Mg2Nb4(SiO4)9,2.1545,-2.864493552802409,mp-2716414
Rb2AlAuF6,1.4095,-2.8644463885,mp-1110596
NaLaMg6O8,5.4148,-2.8644436966487072,mp-1031108
SrPdF4,1.3251,-2.864338633333332,mp-12622
Ba2LuBiO6,1.4518,-2.8643274956666662,mp-1078394
Cs2TaHgF6,0.0,-2.864282693914369,mp-1112610
Na12Ca5Ta(PO4)9,3.0438,-2.864258061042393,mp-2715174
Na3Pr14(RuO6)6,0.0,-2.864089647923243,mp-554060
TiZn(Si2O5)2,0.0,-2.863984644583334,mp-1043408
Na2Ti2Si2SO12,2.6351,-2.863966416329401,mp-2712636
Na10Y6Ta2Si7S5O48,2.8846,-2.863923299520851,mp-2715822
Mg30ZnBiO32,0.0,-2.863848273749999,mp-1037110
Rb2Cu2Si8O19,0.6588,-2.86375621516129,mp-14885
TiNbTlO5,2.4489,-2.863743589895834,mp-1216909
Na3YTiSi2SO12,2.4153,-2.863734388415229,mp-2714410
Ba2PuZnO6,0.6585000000000001,-2.863711808874998,mp-1207069
LaAsO3,2.692999999999999,-2.8636921025000013,mp-1079050
Ca2YBiO5,2.392299999999999,-2.863662839444443,mp-1347575
La2Nb2N2O5,1.605299999999999,-2.863633418181818,mp-778375
BaNb8O14,0.325099999999999,-2.863603719130435,mp-757688
Ba4Sr2Lu3(BiO6)3,1.0072,-2.8635424936666682,mp-1228201
K3Li2Nb5O15,2.695999999999999,-2.863510178936667,mp-766938
Na4Nb3InSi4(PO12)2,2.4156,-2.863459160038675,mp-2713061
K2RbTaF6,0.0,-2.863375206933333,mp-1110665
Na6La2Nb6Si9(SO16)3,1.9425,-2.863273396677152,mp-2713082
CsMg30GaO32,3.082,-2.863238375268049,mp-1038710
SrCaTbGeO6,0.0,-2.863238301166666,mp-1518246
CaTiSn(PO4)3,0.0,-2.863078966792327,mp-1043709
Al5Cu3Si6(O7F2)3,0.195999999999999,-2.862987054512195,mp-1256333
Eu2NbZnO6,0.0,-2.862984771000001,mp-1516191
K2NaSbF6,3.9986,-2.86293187858793,mp-1110829
Ca2Al11Si13Ag7O48,1.7280000000000002,-2.862925160144032,mp-706809
Na6Hf7ZnSi6(SO8)6,3.6929,-2.8629202173866113,mp-2714727
Na2YTaSi2SO12,2.7117,-2.8628965944346643,mp-2712647
NaSbF6,4.8892,-2.8628846801724133,mp-5955
Sr2HoBiO6,1.826799999999999,-2.862831637999999,mp-1208845
Na2Ta5Ga3(PO4)12,2.6188,-2.8628110759662793,mp-2713989
BaLaCuBO5,0.0,-2.862746425462963,mp-14970
Ba2YOsO6,0.055099999999999,-2.8627057039999992,mp-1078303
LiTiP2O7,0.169599999999999,-2.8626729246320353,mp-26629
Na2LiNbF6,0.0,-2.862566670041668,mp-1110637
BaMg30SnO32,1.647100000000001,-2.862507249609375,mp-1095706
Eu(PO3)3,0.0,-2.862485250302213,mp-1213012
Li2ScP2HO8,4.7658000000000005,-2.862429570157312,mp-1222849
LiLa2RuO6,0.293899999999999,-2.862336244833334,mp-6644
Na3LiGa4(SiO3)8,4.225899999999999,-2.862283781436782,mp-1221279
CaNb2(P2O7)3,2.3764,-2.862265606261902,mp-555424
Na7Ca2Ti2SiP5O24,1.7605,-2.862228231939905,mp-2715607
CaTiNbInO6,0.0,-2.862220598999999,mp-1520239
Eu2TiSbO6,0.0,-2.8621603043333352,mp-1520000
Sr2Nb5O9,0.0,-2.8621010984375,mp-22772
Na5Hf2Si3Ge2(PO8)3,3.2333,-2.862029195576713,mp-2714271
LuSeO3F,3.8707,-2.862012023168403,mp-1095437
Na8Ti2Al2Si5SO24,2.7262999999999993,-2.8619951037746323,mp-2715665
Na3TaSi3SnO12,3.714,-2.861945368823563,mp-2715282