formula,bg,formation_energy,mp-id
Ca2AlBiO5,2.405299999999999,-2.777608289444445,mp-1251079
Na3TiGaSi(PO6)2,2.4316,-2.77757944071285,mp-2715505
Rb2ReF6,1.7687,-2.777542114166664,mp-1205863
Li3Er3(TeO6)2,3.5823,-2.777452725791666,mp-1210989
YGa3(BO3)4,4.720099999999999,-2.777444456458333,mp-1207603
Na6Y5Nb3Si6(SO8)6,1.3921,-2.777310307071296,mp-2714870
Na5Pr4Ge4O16F,3.6885,-2.777117020952107,mp-1192433
Na6Sc5Nb3Si6(SO8)6,1.5246,-2.777091735156881,mp-2714681
Ba2LaTa(CuO4)2,0.0,-2.7770781808809533,mp-615682
Sr3LiSbO6,3.1732,-2.777010612121212,mp-1190151
Rb18Mg6B29O58F,3.7864999999999993,-2.776975914248511,mp-1200013
K2YPCO7,4.6021,-2.776696912011904,mp-756647
Mg14TiBO16,0.463499999999999,-2.776693871328125,mp-1034026
Mg3NF3,3.5818,-2.7766350564285682,mp-7604
Ca5(GeO5)2,0.0,-2.776613473529412,mp-1197278
Na6Zr2Si5Sn2SO24,3.0236,-2.776549631894397,mp-2713804
Nd3Ti12Bi13O48,2.2099,-2.776512731217106,mp-1220794
CaEuNbZnO6,0.0,-2.776450067499999,mp-1519259
Na3Ti2SiSn2P5O24,2.5118,-2.7764194507392492,mp-2712985
CaU(PbO3)2,1.680399999999999,-2.7763100709999993,mp-1105730
Na2Ti4Si3(SO8)3,1.495,-2.776296096349777,mp-2713431
Na2AlHgF6,0.0,-2.776269223874999,mp-1111253
K2Ti(OF2)2,0.9757,-2.77619640587037,mp-721856
Na6Hf2Si5Ge2SO24,2.4801,-2.776195546894397,mp-2713919
Ta2Ti2Si3(SO8)3,1.7852,-2.7761640809950983,mp-2713782
Na6Ca3ZrP4(SO12)2,3.8268999999999993,-2.776141607212849,mp-2712654
Na10La4Sc4Si5S7O48,3.6633,-2.7760769048242713,mp-2715184
CsTaO3,1.8626999999999991,-2.7759975843977003,mp-1185552
Cs3BiF6,4.5888,-2.775970918499999,mp-1112606
Na2NbSi2SnPO12,2.816099999999999,-2.77587362942464,mp-2715108
GdGa3(BO3)4,2.6825,-2.775825204958332,mp-1212375
Na7La2In2SiP5O24,3.4081,-2.775775236167548,mp-2715761
Na2MgTi3P4(SO12)2,1.8607,-2.775733135499909,mp-2712753
SrAgB7O12,3.0004,-2.775671727896826,mp-554259
Na8Hf2In2Si5SO24,2.9279,-2.775490438695265,mp-2716252
Na6Y6Ta2Si5S7O48,1.522599999999999,-2.77546847178526,mp-2715960
KHfNbInO6,0.0,-2.775466161391666,mp-1516503
Na2MgZrP2SO12,3.7359,-2.775391709361983,mp-2713618
NaLaScP(SO6)2,3.94,-2.775384133945676,mp-2714400
NaTi2O3,0.0,-2.775375980507663,mp-754375
Na6Ta4Al4Si7S5O48,2.2836,-2.77533497646544,mp-2713028
Sr2NdTa(CuO4)2,0.0,-2.775255376059524,mp-1173255
KLa7(CuO4)4,0.0,-2.775255038294643,mp-1223525
SrNdMgRuO6,0.361899999999999,-2.77524732075,mp-1218129
Na3Nb2Si3Sn2(PO8)3,2.8802000000000003,-2.775091213821617,mp-2712996
Na2Y2Si(SO6)2,4.1875,-2.775081860934664,mp-2713538
SrLaMgRuO6,0.0503,-2.775059609,mp-1218208
Na7Y2Si3Ge2(PO8)3,3.011299999999999,-2.775030816103669,mp-2714788
Zr2P3H3O13,4.263599999999999,-2.775022956318027,mp-1216369
Na21Nb8Zn4Si15(PO24)3,1.761,-2.774959392950359,mp-2714325
LiLa2IrO6,0.0,-2.774933723833334,mp-11992
Ta2CuO6,0.197899999999999,-2.774847067601851,mp-530850
NaZrScSi(SO6)2,3.5185,-2.774703466743296,mp-2712623
Mg3Si4(SnO7)2,1.551299999999999,-2.774695615869565,mp-1248487
NaEu(PO3)4,0.0,-2.774528094302818,mp-642234
SmP4HO12,5.7384,-2.774493913045633,mp-542237
Sr2TiBiO6,0.0,-2.774480701333334,mp-1520382
Rb3B7O12,4.3578,-2.774428751439394,mp-30127
BaNdEuBiO6,0.0,-2.7742664512500013,mp-1520138
LiAlSi2O7,0.0,-2.774243257121212,mp-1190355
TaP2O7,0.0,-2.774222282911902,mp-1208592
Cs2KPbF6,0.0,-2.774147984656034,mp-989585
Sr5Re3ClO15,2.3602,-2.774143396458334,mp-667283
Na5Ta2In2Si3(PO8)3,2.9272,-2.774122906722012,mp-2714305
Na8Ca2Nb2Si5SO24,1.8646999999999991,-2.774005859806378,mp-2716171
NdGa3(BO3)4,4.338999999999999,-2.773980556833334,mp-561187
La2Zn(SeO)2,2.4958,-2.773947109776785,mp-1196943
Na2La2Si(SO6)2,4.0896,-2.773777764180279,mp-2713667
La2CuSnO6,0.0,-2.773569056,mp-14735
Nb3Pb2(O2F)4,0.0,-2.773504577647059,mp-1210028
Na3NbSi3GeO12,2.9431000000000003,-2.773393099831897,mp-2715378
Na2Nb5Ga3(PO4)12,1.8765,-2.773378975585328,mp-2713924
SrMg14SnO16,2.7164,-2.773373412968749,mp-1034297
BaEuO3,0.0,-2.773289008,mp-1183310
BaP4O11,5.3808,-2.773254469285713,mp-779518
TaAlP2SO12,3.448299999999999,-2.773249399359945,mp-2713423
Li3Ho3(TeO6)2,3.5705,-2.773237558166665,mp-1211542
Zr2Bi2O7,3.1127,-2.773154263636363,mp-769650
Na14Ta4In4Si11SO48,3.4037,-2.773145641172484,mp-2714364
Ba5Re3BrO15,2.54,-2.773144637604167,mp-556721
Na11TiNb2Si4(PO13)2,0.6257,-2.7731299608215543,mp-1221506
Na5La2SiSn2P5O24,1.8409,-2.7728706672678,mp-2716081
NdTiCdSbO7,2.6491,-2.772856553939394,mp-39419
Ca2B5H2ClO10,5.0182,-2.772819533916666,mp-24595
NaNb3Zn(PO4)6,1.251599999999999,-2.772782337025804,mp-2713883
Na10Zr4Al4Si7S5O48,3.386999999999999,-2.772753033948203,mp-2716099
Sr2TbIrO6,0.0,-2.772697121166666,mp-6362
Na5Ti2Ga2SiP5O24,2.2998,-2.772647144319083,mp-2716018
Si4O9,0.0,-2.772619895192309,mp-1179275
SrTiZn(PO4)2,0.0,-2.772615362509157,mp-1046114
Na2LaYSi(SO6)2,4.1481,-2.772581326899577,mp-2713253
Na2TaInSi(PO6)2,3.001299999999999,-2.7725274262830353,mp-2712650
KMg14SiO16,0.6040999999999991,-2.772416322101562,mp-1033928
TaSn(PO4)3,3.7518,-2.772396966740897,mp-2714000
Na12Mg5Nb(PO4)9,1.869,-2.772350634259325,mp-2715219
EuCd(BO2)5,0.0,-2.772334212696078,mp-541157
Ba2Br2O,3.2683,-2.772258122000001,mp-1079891
LaMgNb2CuClO7,0.0,-2.7721906180769222,mp-2228066
SrMg6TiO8,0.097299999999999,-2.772135908958333,mp-1031365
RbNaTiO3,3.462499999999999,-2.7720598537021073,mp-556185
KMg14BO16,2.5345,-2.771996892388021,mp-1035823
Na2Zr4Ti4Si5S7O48,1.2709,-2.771983620932267,mp-2716185
K2TaHgF6,0.0,-2.771948624433334,mp-1112194
HfTi4(PbO3)5,2.077699999999999,-2.771920271933333,mp-1224605
NaTa2SiGe2P5O24,3.1304,-2.77191926074077,mp-2715729
NaMg14BiO16,4.4664,-2.771769728480603,mp-1034355
Li3Dy3(TeO6)2,3.547699999999999,-2.7717576051666653,mp-1210935
K2B4O7,4.821,-2.771660704320512,mp-17166
TaTiZn(PO4)3,0.433799999999999,-2.77161102525529,mp-1043827
BaLiCeSbO6,1.9094,-2.7715650603333333,mp-1516690
KLaNbInO6,2.5501,-2.771489885891667,mp-1523298
Na3B6PO13,4.9559999999999995,-2.771391324294805,mp-556801
BaTb4DyO12,0.0,-2.771374181018518,mp-1520558
BaIrF6,0.0,-2.771339213750001,mp-13545
Zr2Nb2Si3(SO8)3,1.0904,-2.7712908825245113,mp-2714012
LiAlSi2H2O7,4.858,-2.77117283852564,mp-24104
Li3NbF6,0.2191,-2.771129195599999,mp-1211885
Na2TmPCO7,4.6011,-2.7709158989501232,mp-767566
KNb5Pb2O15,1.907499999999999,-2.770796058793478,mp-1223583
Ca3Sn2O7,2.5854,-2.770713552916666,mp-1374018
Na18Ta8Zn4Si15(SO24)3,2.3846,-2.7706768398832873,mp-2713898
Sr2GdTa(CuO4)2,0.0,-2.770659741238094,mp-1209256
Na2LaNbSi2SO12,1.8621999999999992,-2.770542093697823,mp-2712700
Ba2TbIrO6,0.0,-2.770439125666666,mp-12410
Mg2PHO5,5.0696,-2.770332250932541,mp-23740
RbCeMg14O16,0.0,-2.770063202109374,mp-1034869
Li3Tb3(TeO6)2,3.5219,-2.769936556916666,mp-1211213
Nd4Au2O9,2.0717,-2.769899473833338,mp-3374
NaTiSn(PO4)3,2.5067,-2.7697305713133993,mp-1220927
Na14Ti4Si11Sn4SO48,2.756999999999999,-2.769715986383867,mp-2714336
Cs2NaPbF6,0.0,-2.769691429068965,mp-989556
Sr2LiB10H3O19,5.3061,-2.7696664898214842,mp-1218822
Na2Nb2(P2O7)3,2.6478,-2.769588801310186,mp-1203771
Na2TiGa(PO4)3,2.4577,-2.769368228378274,mp-2713227
SrGa2B2O7,3.9722,-2.769148537777777,mp-556046
Na3MgNb5Si6(SO12)3,1.8665,-2.769092359104406,mp-2715664
BaAl2Sb2O7,3.4109,-2.768880493749999,mp-12885
NaSc2P(SO6)2,4.2349,-2.76878495653827,mp-2714375
Na4NbGa(SiO4)3,2.653,-2.768741752048441,mp-2716409
Ca2TaCuO6,0.0,-2.768661806733333,mp-1346599
Mg6AlCuO8,2.340799999999999,-2.768593286875,mp-1033139
SrLi2Al4(PO5)4,0.0,-2.768558283072197,mp-1203266
Na4ScSi2GePO12,2.3719,-2.7685234213568313,mp-2715597
KNa2NbF6,0.0,-2.768514966000862,mp-1111009
Ca2Ga2O5,2.1705,-2.7683882716666672,mp-16433
Cs2(B2O3)9,5.0938,-2.768377437325752,mp-1178471
Na3Mg4Nb8P15(SO24)3,1.9629,-2.76830560044077,mp-2716204
MgTi2Zn2(SiO5)2,0.0,-2.7682792359803923,mp-2228927
Th2P3NO12,0.0,-2.768199882162698,mp-1199076
Na15Nb8Zn4Si9(PO8)9,2.0837,-2.7681730378844063,mp-2714284
UP2(PbO5)2,1.766599999999999,-2.768167373285713,mp-22551
LiTa2CuO6,1.1642,-2.768063167799999,mp-1222423
K2TiGe(PO5)2,3.228399999999999,-2.767886820601191,mp-1211716
Na3Ta2In2SiP5O24,3.0201,-2.767734168703213,mp-2713093
Na2Y4Hf4Si3(S3O16)3,2.8929,-2.76761515324179,mp-2716323
RbLaMg14O16,3.594999999999999,-2.767446621953125,mp-1035054
TiSnO4,1.5783,-2.767403298055555,mp-1216649
Na2Y4Ta4Si5S7O48,1.8764,-2.767402625208457,mp-2716130
Li2YPCO7,5.024,-2.767394573859126,mp-768220
CaAl2(SiO4)3,0.442299999999999,-2.767253435277778,mp-1214062
Sr2PrBiO6,1.7451,-2.7672128346666662,mp-1516990
Na6Sc6Ta2Si5S7O48,1.5492,-2.767202213587063,mp-2715983
Na3LaTi3Si3(SO8)3,2.0824,-2.767178727341566,mp-2714891
Na2Pr4Cl9O2,0.5886,-2.767083719966193,mp-555829
Ca2YAs(WO6)2,3.691899999999999,-2.767006752916666,mp-17019
BaCaSmBiO6,1.6736,-2.7669957750000003,mp-1516788
KCePCO7,1.1836,-2.766994709262986,mp-756880
RbMg30CO32,0.397899999999999,-2.766920286445312,mp-1039667
K9Li3Nd3(BO3)7,3.7614,-2.766882402718993,mp-1195894
KCaCeSbO6,1.987299999999999,-2.7668668397249983,mp-1517767
Na10Hf5Mg3Si6(SO8)6,3.3443,-2.766723088552903,mp-2716504
Ti(PO3)3,0.0,-2.766643395045787,mp-505199
Li5CuF8,0.7653000000000001,-2.766525747380952,mp-753202
NaHf2Sn2P5SO24,2.0104,-2.7664052902502942,mp-2716220
Nb2P4O15,3.322199999999999,-2.766302109455783,mp-504946
Ba2Ti3Tl2O10,0.753599999999999,-2.766299969215687,mp-1046312
CsAsF6,5.2216,-2.766216157144395,mp-9820
Na7Mg3ZrP5SO24,3.6374999999999993,-2.766196176065922,mp-2715852
K2PO3F,4.4668,-2.766180891663265,mp-6441
LiTiSn(PO4)3,2.5122,-2.766100674477513,mp-1222491
La3TaP2(SO6)4,3.0242,-2.766075191028012,mp-2712913
Na3TaF6,0.0,-2.765995334840002,mp-1111519
Sr2YIrO6,0.0,-2.765954254999999,mp-15887
Na12Nb4Zn2(SiO4)9,2.003,-2.765930212961139,mp-2716563
K4Ti2H2O5F8,2.6604,-2.765905523246032,mp-703589
SrPrMgRuO6,0.3557,-2.765895238666667,mp-1218058
Na14Mg4Ta4Si9(SO16)3,1.984999999999999,-2.765857842005818,mp-2715179
Na4Ta2Si5Sn2SO24,3.0341,-2.765768363184666,mp-2715139
Cs4Sr3(PO3)12,0.0,-2.765649664442454,mp-1203903
ScTa(PbO3)2,2.5824,-2.765637124233333,mp-550579
K2ReF6,1.6997,-2.765490939666662,mp-7824
Ba3B3Pb2ClO9,3.365199999999999,-2.76546137375,mp-1195317
KAlBP2O9,0.2061,-2.7654341954073143,mp-1204336
Na7Ti2In2Si3(PO8)3,2.6207000000000003,-2.765346122689035,mp-2714995
Li2SbP(OF3)2,3.7853,-2.765340173025793,mp-776357
Na5Sc2SiGe2P5O24,2.2429,-2.765324738549851,mp-2714170
CaNb2(PO5)2,0.0996,-2.765218283952381,mp-1234946
CaGe(PO4)2,3.9027,-2.765207121190475,mp-1191974
Na14Nb2Al6Si9(SO16)3,1.7485,-2.765034264127769,mp-2714887
Na3Ti3ZnP5SO24,2.023799999999999,-2.764921820131142,mp-2715915
Na10Ca2Ti6Si7S5O48,1.8249,-2.7649173067259802,mp-2715855
Nb2ZnO6,3.2845,-2.764786504722221,mp-17177
YBiO3,3.0748,-2.764777345,mp-768221
RbAlBP2HO9,5.4081,-2.764767015646826,mp-542130
CaMg6CdO8,5.047499999999999,-2.764743389374999,mp-1031707
Nb8Cu2O21,0.8345,-2.7647111887096782,mp-2646914
ScSiO3,0.0,-2.764408986,mp-1186993
Na2ErPCO7,4.5857,-2.7643219043667893,mp-767573
Na6Y4Ti4Si5S7O48,1.4201,-2.7642990921276023,mp-2715901
Ba2SmMgSbO6,2.8417000000000003,-2.764285228181819,mp-2217779
BPO4,7.2565,-2.76428254563492,mp-3589
Mg30BiCO32,0.0,-2.764205765234375,mp-1038425
Na18Ca8Ta16Si21(S5O48)3,1.6303,-2.7640105371831583,mp-2712868
Na2Sc4Ta4Si5S7O48,1.8518,-2.763973147160838,mp-2716160
MgTiSn(PO4)3,0.0,-2.763942950681216,mp-1043727
Ba2NdBiO6,1.683,-2.763932660750001,mp-546321
K2SmPCO7,4.4936,-2.763886619095238,mp-772845
Zr2Ti3(PbO3)5,2.2361,-2.763876234199999,mp-1216039
Na4LaGaSi(PO6)2,2.932699999999999,-2.7638274775699823,mp-2714466
MgTa4(CuO6)2,1.074399999999999,-2.763779763385964,mp-2230737
Na2HoPCO7,4.7278,-2.763710073950122,mp-768129
Na6Ta20Zn4Si21(S5O48)3,1.9467,-2.763673719749726,mp-2715737
BaGa2B2O7,3.984199999999999,-2.763670269861109,mp-560870
MgAgF3,2.1901,-2.763583444333332,mp-998418
BaMg14ZnO16,4.367100000000001,-2.7635238734375003,mp-1034964
Ba4Ga2O7,3.4462,-2.763311765641025,mp-30198
Na18Nb20Zn4Si27(SO16)9,1.367,-2.763300224154628,mp-2713037
K2Bi3F11,3.8285,-2.76328955496875,mp-675978
CsAlBP2HO9,5.393000000000001,-2.763287353290504,mp-542129
Na10Ti5Zn3(PO4)12,1.7349,-2.763268330848385,mp-2713421
Na3YMgP2SO12,4.3849,-2.763262734046182,mp-2712556
InF3,4.0226,-2.763129218749999,mp-6949
BaSrNdBiO6,1.7161,-2.763111185750001,mp-1519269
Na10Ca3Zr5Si6(SO8)6,2.3756,-2.762976112078544,mp-2713375
Na3B7O12,4.9219,-2.76291957946839,mp-31073
KBa2Zn3B9O19,3.6287,-2.762903461316177,mp-1223606
Li20Nb19O60,0.0,-2.762758292592592,mp-686230
Na3MgScP2SO12,4.417199999999999,-2.76272698446285,mp-2712784
Na2TaAl3P4(SO12)2,2.7516,-2.762537938620279,mp-2712536
Si4BiO10,0.0826,-2.762499807833334,mp-1043424
CaMg14BiO16,0.0,-2.762471084374999,mp-1036258
TiPHO5,2.85,-2.762470305840774,mp-554704
K3LiNb6O15,0.0,-2.7623239830033333,mp-773049
Ba3CaSb2O9,3.1711,-2.762295101333334,mp-554817
Na6La6Ta2Si5S7O48,1.6904,-2.762212578451927,mp-2716047
Na2La4Hf4Si3(S3O16)3,3.1907,-2.762106392717981,mp-2716380
Ba2BeS(OF)4,3.816,-2.762040329375,mp-679630
La2Ga4O9,2.970799999999999,-2.7620092776666683,mp-771697
Na7Nb2Ga2Si5PO24,2.5867,-2.761990586974749,mp-2714371
BaMgTi(BO3)2,0.0,-2.761841532424242,mp-2217557
Mg3Nb6O11,0.2437,-2.7617290999999993,mp-505365
Ba2NdRuO6,0.1501,-2.76169770475,mp-6200
Na5Ti2Si3Ge2(PO8)3,2.6449,-2.761689526516884,mp-2714257
TiZnF4,0.0,-2.761654537222222,mp-1407835
Ba2YIrO6,0.0,-2.761594729999999,mp-15888
Na3ScSiGe(PO6)2,2.285199999999999,-2.761578382587849,mp-2715285
Ba3MgNb2O8,0.0,-2.761535415357142,mp-2226883
Rb2Bi3F11,3.8514,-2.761533809375,mp-675214
Na2DyPCO7,4.5321,-2.761483374922345,mp-768141
NaTaIn(PO4)3,3.2408,-2.761419235702291,mp-2713165
K2TiO3,3.4121,-2.761319902138887,mp-13133
KNb8O14,0.0,-2.761231749010886,mp-22826
ZrScP(SO6)2,3.9052,-2.76120780527311,mp-2712853
TbCO3,4.0554000000000014,-2.7611939808333332,mp-755605
LiNbPO5,0.0,-2.761183432872023,mp-774859
Na15Mg8Ta4P15(SO24)3,3.040299999999999,-2.761126606941589,mp-2715143
K7Be12(PO4)12,0.0,-2.761035300081826,mp-1224221
KNbPO5,0.0,-2.7610230503928572,mp-1211814
RbMgBO3,4.3738,-2.761020107777777,mp-1020633
Na5Ca2Y2P3(SO8)3,4.3309,-2.76094854982885,mp-2714850
Na4Al3Si3NO12,0.0,-2.760837660457271,mp-1210341
TmTlO2,1.3066,-2.760831665833336,mp-754541
Ca5(Ga3O7)2,3.3099,-2.760807544999999,mp-3080
Mg2Ta4P6(SO12)3,3.204799999999999,-2.76075655146452,mp-2713530
Al13Si5H14Cl(O17F2)2,3.921999999999999,-2.760704525598591,mp-534982
Rb2NaPbF6,0.0,-2.76065953163793,mp-989569
Na3ZrZn(PO4)3,3.914,-2.760511356486659,mp-2715256
Ba3AlHO4,4.0379,-2.760497843194445,mp-707218
Ba4NbP4(O9F)2,0.0,-2.7603735809852212,mp-695140
Na7Al3Zn(PO4)6,4.486099999999999,-2.760095875549082,mp-2714268
KLaTbGeO6,0.0,-2.760022864391666,mp-1522529
Li3Nb4ZnO12,0.0,-2.760017798499999,mp-756376
Li4HfO4,4.4815,-2.760008337592592,mp-756299
Na7CaY3Si3(SO8)3,3.4553000000000003,-2.759970368426549,mp-2714206
Ba6Ti7(Sb3O14)3,0.0,-2.759917369739583,mp-773058
Mg2Ta10Si9(SO8)9,1.3602,-2.759843269321895,mp-2713808
CaAl2(OF)4,0.662999999999999,-2.759794697272727,mp-1191489
KZrPCO7,3.9048,-2.759730607899349,mp-757002
Rb2B4O7,4.7246,-2.75967813128205,mp-16980
PaO,0.0,-2.7596726025000002,mp-2735
Na4LaInSi(PO6)2,2.9857,-2.75964564300649,mp-2714521
Na5Nb2Si5Ge2PO24,2.5115,-2.759611383714686,mp-2716534
Na10Hf4Si9Sn4(SO16)3,2.8327,-2.759562996661877,mp-2714160
Mg14ZnSnO16,2.7099,-2.759511867031249,mp-1035213
BaCaAl3P2(HO7)2,0.117299999999999,-2.759302755295031,mp-1233113
Mg6TiAlO8,0.067399999999999,-2.759277975208333,mp-1033087
Mg14NbCdO16,0.612499999999998,-2.7591800846875,mp-1033880
Li2SmPCO7,4.8407,-2.759119096359126,mp-768193
K3NaP2(O3F)2,4.5042,-2.759114648029644,mp-7257
LiTaGeO5,3.7826,-2.759043833520833,mp-560104
RbSi2O5,1.1371,-2.7589414296875,mp-1201483
Mg14CdCuO16,0.381199999999999,-2.758906656562499,mp-1035261
SnPOF7,4.4429,-2.758897411339286,mp-1008228
Na9Ca5TaP6(SO12)3,3.6067,-2.758847527418405,mp-2712581
LiNb(PO4)2,2.2693,-2.75884310563492,mp-673070
CaBHO3,4.963699999999999,-2.758793667569444,mp-1192226
Na2TiSiGe(PO6)2,2.508199999999999,-2.758763527388299,mp-2712542
Nb2SeF14,4.8456,-2.758624896709558,mp-27312
Na8Zr2Ga2Si5SO24,3.6518,-2.758574544052408,mp-2715654
Na14Hf4Mg4Si7S5O48,3.3705,-2.758546922115572,mp-2715781
Rb2TlInF6,3.6593,-2.7585047335,mp-989532
Sr3Ti3(Ga2O5)4,0.0,-2.75841901617647,mp-1208750
HfMg14SiO16,0.040499999999999,-2.758391591249999,mp-1034573
Na2Y3TaSi2(SO6)4,2.5001,-2.758286386854406,mp-2712689
Mg7P6(HO6)4,5.1294,-2.758254600923345,mp-1197123
Y3TaP2(SO6)4,2.9572000000000003,-2.758232360880953,mp-2712973
Na30Mg8Nb16Si27(SO16)9,1.5224,-2.758191001234527,mp-2714199
Sr8La3(RuO7)3,0.0,-2.758142048285715,mp-684802
Ti4ZnO6,0.0,-2.758111400757576,mp-1046715
Gd5(RuO7)2,0.0,-2.758058599999999,mp-673761
LiMg14BO15,2.8804,-2.758048147338709,mp-1035344
TaTl(PO4)2,3.139,-2.758035863329365,mp-1103621
Rb2Pu2O5,0.0,-2.757883087500002,mp-862724
Na2Hf4Sc4Si3(S3O16)3,3.2054,-2.757821869289409,mp-2716386
Na2LaSn(PO4)3,1.7092,-2.7577015917554673,mp-2713557
ZrTi2(PbO3)3,2.0831,-2.757677962777777,mp-1215409
Nb3Sb(PO4)6,1.6892,-2.757431493907562,mp-1220893
Sr5As3ClO12,3.8284,-2.757308327976191,mp-559965
TbMgO3,0.0,-2.757292313333333,mp-1187347
Na2TbPCO7,4.7137,-2.7572855382556782,mp-767529
Na3CaAl3Si3CO15,1.8002,-2.757258111505305,mp-1253229
Na2YScSi(SO6)2,3.7763,-2.75720038777677,mp-2713328
Na5Ca2La2P3(SO8)3,4.2679,-2.7571849819656022,mp-2714765
Na8Ca3Sn(PO4)6,1.4769,-2.75713609231488,mp-2715088
Rb2PO3F,4.3183,-2.7571042467346922,mp-6160
Na6Ca2Zr6Si5S7O48,2.262699999999999,-2.757042117938414,mp-2716004
Na2ScAuF6,0.6933,-2.756968707444449,mp-1111084
Rb2NbTlF6,0.0,-2.756959360833334,mp-1113860
Na3LaSiSn(PO6)2,1.9805,-2.756949564296182,mp-2715260
NaHf3ZnP3(SO8)3,4.4543,-2.756863064889749,mp-2716520
Na14Hf4Ga4Si9(SO16)3,3.5317,-2.75674047823346,mp-2714713
NaLaZrSi(SO6)2,2.8665000000000003,-2.756672229243295,mp-2712741
Mg2BO4,0.2659,-2.756641154166666,mp-1210705
U2Bi2O7,0.0,-2.756628453181817,mp-676230
Sr5Re3BrO15,2.3998,-2.7565855901041663,mp-1208774
K3B6ClO10,5.3729,-2.7564541383375,mp-1189091
SrTi4Bi4O15,1.7965,-2.756441758472222,mp-1217847
Cs2Li2B2P4O15,5.601,-2.756388813915271,mp-1019606
BaLaMgRuO6,0.300899999999999,-2.756379858,mp-39249
CaMg6NbO8,1.571899999999999,-2.756323063124999,mp-1031860
Na4LaAlSi2SO12,3.538699999999999,-2.756318046334155,mp-2714322
GdAsO3,2.1719,-2.756159134500001,mp-753953
Ta32Cu17O96,0.0066,-2.756157602997702,mp-531656
LiBO2,7.2811,-2.75615453875,mp-14232
Li2AlAgF6,2.0864,-2.756073626722224,mp-1111366
NaNbSiSn(PO6)2,2.5558,-2.75594636087028,mp-2715563
Na3NbGaSi2PO12,2.575599999999999,-2.755748865897374,mp-2715500
Na2Hf3MgSi2(SO6)4,2.986899999999999,-2.7557035970673702,mp-2712724
Na6La4Ti4Si5S7O48,1.5485,-2.755674000641116,mp-2715862
TiZn(SiO3)2,0.0,-2.755577244833333,mp-1263932
HoCuO2,2.5344,-2.755550464999999,mp-1178161
LiAlSi2HO7,0.2941,-2.7555376403819443,mp-1191292
Na14Sc4Al4Si7S5O48,3.565699999999999,-2.755270830489557,mp-2715763
Na9Ta7Zn5(PO4)18,2.3047,-2.755193235110978,mp-2716415
Eu4PdO7,0.0,-2.755100913333335,mp-1213439
Li4B7ClO12,5.8739,-2.755066576979167,mp-1222565
LiTi(PO3)4,0.2986,-2.75505324098545,mp-26113
MgNb2O5,0.0,-2.755044040000001,mp-2217095
Nb8P15O56,0.0,-2.755030334679022,mp-686088
NaZnF3,3.7676,-2.755012105000001,mp-3795
Na6Sc4Ti4Si5S7O48,1.4635,-2.754995227262737,mp-2715949
KSb4F13,4.4007,-2.754908910680554,mp-27211
Na6La5Nb3Si6(SO8)6,1.4431,-2.754891838039765,mp-2714829
Na6CaTi7Si6(SO8)6,1.702399999999999,-2.754831449503729,mp-2714789
Na3Mg(BO2)5,4.8134,-2.754812489143224,mp-683990
Na6TaAl3Si4(SO12)2,2.8966000000000003,-2.754804908848563,mp-2714369
Na8Si6SnO18,3.8106,-2.754670289576803,mp-560597
LiMg6SiO8,0.8042,-2.754662588333333,mp-1030909
TiSnO3,1.1086,-2.754611473666665,mp-754246
Na2LaPCO7,4.0871,-2.754552451450122,mp-767533
Ta3AlSi3(SO8)3,2.2664,-2.754475627191176,mp-2713779
Na6Nb4Zn2Si3(PO6)6,1.9036,-2.754437174230404,mp-2712666
HfTiSi(SO6)2,2.238699999999999,-2.754268448921569,mp-2713426
KBe(PO3)3,5.8102,-2.754230771869899,mp-560431
Li3Ti(BO3)2,0.1673,-2.754197971180555,mp-770194
K4Nb11Al2O20F,0.6848999999999991,-2.754130073263158,mp-557200
K2ScPCO7,4.3736,-2.754025027011904,mp-772763
Na2Nb5In3(PO4)12,1.9594,-2.753808714311518,mp-2713942
LiZrPCO7,4.169399999999999,-2.753800556634198,mp-753649
RbAsF6,5.068799999999999,-2.753796494375002,mp-9819
Na4ZrZnSi(PO6)2,3.611499999999999,-2.75376277237157,mp-2714361