formula,bg,formation_energy,mp-id
Mg3Cu2(Si2O7)2,0.2818,-2.6290491426086953,mp-1254120
HfMg3O4,0.0,-2.629010076874999,mp-1099258
Na6Nb4Si9Ge4(SO16)3,2.2201,-2.6289046256411153,mp-2713114
Mg3Ti2(GeO4)3,0.0,-2.628828930583334,mp-1325638
NaScSnP2SO12,2.4616,-2.628693413786945,mp-2712674
ZrAlP(SO6)2,4.167,-2.628576453018208,mp-2712960
Na10Ca4Y4Si3(S3O16)3,3.5288,-2.628535053435382,mp-2714780
Na2LaAlSi(SO6)2,4.0824,-2.6284494856715073,mp-2713643
CsRb2TlF6,3.6496,-2.628411509798851,mp-1111451
SrSb(PO4)2,1.6474000000000002,-2.628400550357142,mp-1046188
Na8TaGa3Si5SO24,3.1655,-2.628388191786536,mp-2715663
NaLi3SiO4,4.5993,-2.628363219319923,mp-559904
Na14Mg5Zr3Si6(SO8)6,2.9141,-2.628297637837119,mp-2714159
Sr2AlBiO6,0.0,-2.628096826999999,mp-1518543
Li8Nb2O9,3.2086,-2.627819660219297,mp-28030
Li4CaB10(HO5)4,4.884799999999999,-2.627765837051282,mp-1202263
BaEu2PdO5,0.0,-2.6277652216666683,mp-1182243
NaNb2Ga2P5SO24,2.4629,-2.627674404202675,mp-2716123
Na10Ca4La4Si3(S3O16)3,3.5476,-2.627660218478117,mp-2714832
NaYSnP2SO12,1.7948,-2.627614001472131,mp-2712801
LiSm4(HO2)4,0.0,-2.6275756140196083,mp-1235405
Er2Cu2O5,0.313,-2.627509326944443,mp-21160
Na3Ca2La2PS5O24,4.3194,-2.627501256836418,mp-2713650
ScNbSi(SO6)2,1.9035,-2.627479079411765,mp-2713368
Ba4GaB10H7O24,4.3361,-2.627447568541667,mp-1195660
Na2Hf4Al4Si3(S3O16)3,3.2251,-2.6273673566703613,mp-2716437
Eu2MgIrO6,0.0,-2.627190519,mp-1188494
Ba3Zn6Si4TeO20,2.6456,-2.6270777434313732,mp-543034
LaNbSi(SO6)2,1.6939000000000002,-2.626984615686275,mp-2713430
KLaEuSbO6,0.0,-2.626976996725,mp-1517640
YMg6SiO8,0.7674000000000001,-2.626933211874999,mp-1032906
Cs2GaHgF6,0.0,-2.626930773931035,mp-1113098
K2TeClF5,4.4879999999999995,-2.626809354574074,mp-554532
Ba3TbRu2O9,0.0,-2.626808572111111,mp-6345
Bi2B8O15,4.3605,-2.626744704333334,mp-542931
Na5TiIn3(PO4)6,2.0686,-2.626674907557787,mp-2713515
Na2Ca2Hf2SiS5O24,2.8211,-2.626513211581259,mp-2714353
Na7NbIn3Si3(PO8)3,2.3845,-2.6264837382174893,mp-2714923
AlGa2Bi(BO3)4,3.9445,-2.626392900583334,mp-1228994
Cs2KRuF6,0.0,-2.6263731556560352,mp-1112583
Rb2NaRuF6,0.0,-2.62628438263793,mp-1113668
Na18Ca8Ta4Si9(SO8)9,1.2493,-2.626276199347175,mp-2716141
TlSbF6,4.3334,-2.626026584166668,mp-8348
Na4Hf2Ga2Si3(SO8)3,2.8263,-2.625973865517998,mp-2713610
Mg14NbBiO16,0.127399999999999,-2.625932110312499,mp-1033832
Na4Be2Si6SnO20,0.3294,-2.625926497439917,mp-1196126
Al2Tl3(PO4)3,3.4362999999999992,-2.62586793782143,mp-1199100
Mg17(As3O16)2,3.347199999999999,-2.625848648545453,mp-531778
BaBAsO5,3.543599999999999,-2.625826847291667,mp-9784
NaMgTi2BiO6,1.3329,-2.625721308458725,mp-2240138
Ba2Mg2Ti3Tl2O10,0.0,-2.6255883377192992,mp-1046139
Ti3Cu2Sb(PO4)6,0.0379,-2.625377506051587,mp-776173
Na4AlP2HO9,4.6898,-2.625367002782527,mp-741045
KRb2RhF6,2.1662,-2.625337121225,mp-14036
Na18Ta16Zn8Si21(S5O48)3,1.5634,-2.625336529795771,mp-2712961
LiNbP2O7,0.237,-2.625276852056276,mp-863403
Na2Sc8SiS11O48,3.146899999999999,-2.625243618122743,mp-2714043
Sr2EuBiO6,0.0,-2.625174678000001,mp-1208871
BaAg(PO3)3,3.243999999999999,-2.6251055987925183,mp-10070
KAs2F7,4.7762,-2.625070612975001,mp-28085
Mg5(HO3)2,3.8683,-2.624813478269231,mp-30241
Sr3CdO4,0.5407000000000001,-2.62474909625,mp-981103
Na7Ca2Ga2P5SO24,3.6075,-2.62466119590332,mp-2715900
Na3AlP3NO9,5.1524,-2.624547281945088,mp-6860
Na2TiZn2SiO7,3.0239,-2.624441073737841,mp-13810
Na4Ga3Si3IO12,3.6096999999999992,-2.624423672522488,mp-40226
Na6NbIn3Si2(PO6)4,2.6252,-2.624419533921183,mp-2715469
K3CaPCO7,4.4795,-2.6244087097225273,mp-756968
NdTi12(Bi5O16)3,2.248,-2.624334760493422,mp-1220421
KTe2F9,4.5077,-2.624232532548604,mp-29144
Na24Ca10Nb2Si9(SO8)9,1.6198,-2.624191003020662,mp-2715114
CsB2P2HO9,5.827,-2.6241792060682823,mp-1198124
Nd8Re11O38,0.0,-2.624161798991227,mp-1173646
ScAgO2,2.1264,-2.624149660416652,mp-11022
BaTi2TlO6,0.0,-2.624118098000001,mp-1048072
MgNb4(SnO6)2,0.0,-2.624116273947367,mp-2230905
KCuSb3F18,0.2823,-2.62400225575,mp-1195095
RbMg14SbO16,3.599699999999999,-2.623983811171875,mp-1034079
NaTi2Ge2P5SO24,2.1424,-2.623957035678865,mp-2716128
CeMg3O4,0.0,-2.6238804818749992,mp-1024038
MgTiCu(PO4)3,0.0,-2.6238444945701063,mp-1043770
Ba2EuRuO6,0.0,-2.6238421995,mp-1205665
Ti2Sn3O10,1.8751,-2.623838555111111,mp-757375
Sr3MgPtO6,2.6841,-2.623797067727272,mp-6064
Sr4PtO6,2.1959,-2.623776220454545,mp-4598
Na10Zr4Ga4Si7S5O48,3.0919,-2.623732229247347,mp-2716014
RbNa3Li12(SiO4)4,4.8031,-2.6236429144899422,mp-17240
Rb2GaHgF6,0.0,-2.623641556500001,mp-1113779
Na2TlGaF6,3.4599,-2.6236183693591952,mp-1110618
NbInO4,3.0277,-2.623428141944451,mp-9595
HfMg6GaO8,0.140399999999999,-2.623389132968749,mp-1033203
LiMgSO4F,5.9657,-2.623291837604167,mp-1222350
NaEuO2,0.0,-2.6232619803448283,mp-1101654
Na14Mg4Sc4Si5S7O48,3.2136,-2.623196678802565,mp-2715942
CaAl2Si(HO2)4,4.359999999999999,-2.6231631634375,mp-643941
GdSClO4,1.9163,-2.623044390714286,mp-558122
Na8La2Mg2Si3(SO8)3,3.0396,-2.622822400401615,mp-2715209
K3Nb3Ge2O13,2.3211,-2.622575167702382,mp-541626
Hf3TePb4O13,1.7083,-2.622522618650793,mp-1224517
Na5Mg3ZrP3(SO8)3,3.0717,-2.622512580384405,mp-2714712
K2SnHOF6,5.2938,-2.6224585377954552,mp-1224808
Na8Nb4Si16O53,0.0055,-2.622434257975735,mp-1221183
Na10Ca4Nb4Si7S5O48,1.068499999999999,-2.622425719119143,mp-2715847
Na4Mg2P2SO12,4.4221,-2.622421926062046,mp-2712981
NaCa2Hf2PS5O24,3.6435999999999993,-2.622308855148253,mp-2714057
Nd4Ga2S5O4,2.9949,-2.6222761888333332,mp-558333
Na14Ta4Zn4Si9(SO16)3,2.1195,-2.622258279770045,mp-2714773
RbBO2,3.9289,-2.622254900833333,mp-31358
Sm2(SO4)3,5.5195,-2.6222452636764713,mp-1208980
Ta4Zn2P6(SO12)3,3.2531,-2.622090687052754,mp-2713434
EuCO3,0.429299999999999,-2.6219654300000013,mp-554518
Na7CaSi3Sn3(PO8)3,2.1672,-2.621964164680905,mp-2715170
Na21Ta4Zn8Si3(P5O24)3,2.6296,-2.621873811527982,mp-2715744
K2RbTlF6,3.7342,-2.621871095533333,mp-1111582
Ca19Mg(AsO4)14,0.001599999999999,-2.621815265333333,mp-1228780
Na2TiSi2SnSO12,2.5382,-2.621801675803087,mp-2712715
Rb2InAgF6,1.8555,-2.621729162333333,mp-1110608
Ba3YRu2O9,0.0,-2.621688098,mp-18701
BiF3,4.6808,-2.6215259225000023,mp-23237
SrAl2SiN2O3,3.7236,-2.621499915277779,mp-554390
Ca8P6H12O29,4.9093,-2.621495437233766,mp-1229154
KBP2PbO8,4.5984,-2.62135429159249,mp-1223679
BaLaMgBiO6,1.4504,-2.621314345,mp-41414
NaNd2IrO6,0.0,-2.621297260137931,mp-11912
Na2TiSi4H2O13,0.346799999999999,-2.6212637869814532,mp-1205145
Na4ScInSi2SO12,3.2088,-2.621153700619868,mp-2714461
Ca2MgP2(H2O5)2,5.3863,-2.621099851541352,mp-23717
NaPr2IrO6,0.0,-2.621027141971264,mp-11913
Ca3Cu3(PO4)4,0.6475000000000001,-2.6209999849450543,mp-6118
Na3Zn(BO2)5,4.2437000000000005,-2.620949977498515,mp-560158
Na3Al2Sn2P5SO24,3.312299999999999,-2.6208412011221323,mp-2715843
Na9Ta2Zn4(PO4)9,2.6294,-2.620743566786657,mp-2715473
SmTlO2,1.7431,-2.620571869583335,mp-755128
Na6CaSi2Sn3(PO6)4,2.0405,-2.620476665796182,mp-2715348
Na2Al2(SiO4)3,0.5721,-2.620473579618875,mp-1196695
Rb2NbAgF6,0.0,-2.620458913666666,mp-1110605
Li3Nb6O11,0.0,-2.620458544249999,mp-756137
Na6Ca3HfSi2(SO6)4,3.1606,-2.62039602579023,mp-2712735
Na3ScSi2GeSO12,2.0906,-2.620337741998563,mp-2714525
Nd2(SO4)3,5.4404,-2.620333949852941,mp-29265
Cs2NaRhF6,1.9082,-2.620182286068965,mp-1111979
Na4YInSi2SO12,2.9899,-2.620040793556376,mp-2714566
Ti5Pb5O14,0.405399999999999,-2.6199267773611092,mp-757480
BaNaHfBiO6,1.0663,-2.619870952137931,mp-1516939
Na14Y4Mg4Si5S7O48,3.292399999999999,-2.619807113558663,mp-2715876
Sr2MgZn2Sn2(PO4)4,2.0226,-2.6197120456878302,mp-1233344
K2NaRuF6,0.0,-2.619698995587931,mp-1111874
CaTiAg(PO4)3,0.255499999999999,-2.619693126051586,mp-1043747
Na2YMgP(SO6)2,4.5446,-2.619464739161482,mp-2713360
Sr2GdMgRuO6,0.081199999999999,-2.619438957727273,mp-2217680
BaCeInSbO6,0.310499999999999,-2.619405720666665,mp-1520190
Cs3Nb9(TeO8)4,1.4336,-2.619390226054837,mp-1201443
Na2LiAsF6,4.3114,-2.619168398416666,mp-1110998
BaZr(AsO4)2,3.5173,-2.6190874962499993,mp-1214231
CaSi(HO2)2,5.1408,-2.61903438,mp-1199682
K3P2H(O3F)2,4.9846,-2.619014835163265,mp-684767
Pu2TeO2,0.0,-2.61899688283333,mp-1206890
Na4Al3Si3H3O14,0.9357,-2.618984051639527,mp-1173789
NaNbAl3P3(SO8)3,2.0304,-2.618975035175464,mp-2716377
TaF3,0.0,-2.618961568975002,mp-8338
RbB2P2HO9,6.0197,-2.618908958424603,mp-758281
YBeNF6,0.2153,-2.618863258333333,mp-1207645
Ba2ZnCu3F14,0.0,-2.61880406475,mp-1045620
KPrPCO7,0.1119,-2.6185334803235922,mp-755031
Ca4Sm2Cu3(ClO2)4,0.0,-2.618477574285714,mp-1214003
Lu2Ru2O7,0.0,-2.61845676530303,mp-557903
K5Na3Ta4Nb4O20,0.0,-2.6183286890200352,mp-1099857
Na6Mg4Nb8Si9(SO8)9,0.9539,-2.618250724312739,mp-2713484
BiB2O4F,4.1919,-2.618158252499999,mp-558753
LiAlSiH2O5,4.8099,-2.618136637333333,mp-697020
SrLaNd(CuO3)2,0.0,-2.618122335681818,mp-1218164
Na42Mg16Ta8Si21(S5O48)3,1.374299999999999,-2.618075263939422,mp-2715535
Na2TiAuF6,0.0,-2.618074477609195,mp-1111293
CaAs2F12,4.8214000000000015,-2.618063421,mp-1213993
Na8MgSi4Sn3(PO12)2,2.5246,-2.618038594531433,mp-2715774
Ba2Mg3Ti4Tl2O12,0.0,-2.617932873695653,mp-1342134
LiGa(PO3)4,5.0646,-2.617891444272486,mp-1211020
NaMg2Ta2P3(SO8)3,2.104,-2.617868254356416,mp-2716454
BaYSnSbO6,2.4839,-2.61780412075,mp-1523133
Li6CaCeO6,2.4211,-2.617518213571428,mp-556301
CsKNa2Li12(SiO4)4,4.872199999999999,-2.617462862212883,mp-17718
KSr2Cl5,5.2363,-2.61741081765625,mp-1211382
Na4Al3Ge3ClO12,4.0831,-2.6173744024137933,mp-559286
U2SiO10,0.0,-2.617348890384616,mp-1192867
Mg45Si32(H29O69)2,4.3207,-2.617225413873627,mp-1204533
Ti2Nb2Sb3O14,0.0,-2.6170598241269842,mp-1208396
Nd4Re6O19,0.033999999999999,-2.61698150724138,mp-1209945
SrPrGaCuO5,0.159099999999999,-2.6167283449074072,mp-1173145
Ce2Zn(SeO)2,0.0,-2.6167273755267852,mp-1195151
ZrSnP2SO12,2.8504,-2.616709950693278,mp-2713140
Pr2(SO4)3,5.4024,-2.616705518578431,mp-1209756
RbAlCu(PO4)2,0.7723,-2.616661427445054,mp-1194729
Na5Ti2Zn2P5SO24,1.7887,-2.616349927631048,mp-2714975
Ba3LuIrRuO9,0.0,-2.616161725777778,mp-1228300
Na6Zr4Si7Sn4S5O48,1.5304000000000002,-2.616155379807783,mp-2712859
RbNaLi6(SiO4)2,4.7495,-2.61614442604885,mp-560653
Li2B5SbO10,3.4622,-2.615977039583334,mp-769374
Rb2InSbF6,2.231999999999999,-2.615952154166666,mp-1113930
Na7CaGa3(PO4)6,3.3068,-2.615828743089732,mp-2714243
LiMg6BiO8,4.6418,-2.615822649583333,mp-1031076
Na6Ta2Al6Si5S7O48,1.7469,-2.615799435974448,mp-2716095
Na2Cd(SiO3)2,3.0701,-2.615739305099268,mp-555363
Na4Ti3ZnSi3(SO8)3,1.134399999999999,-2.61573407275484,mp-2713322
KGa(PO3)4,4.5523,-2.6157164804623,mp-555554
Na5NbIn3SiP5O24,2.4489,-2.615599492310535,mp-2714320
NaMgZrP(SO6)2,3.4429,-2.615537858297528,mp-2714350
RbMg14BiO16,3.5302,-2.615524481484374,mp-1034096
Li4Al3Ge3IO12,3.306,-2.615438569710145,mp-557456
NaMg14CO16,0.810399999999999,-2.615430442074353,mp-1034419
Sr2YTaCu2O7,0.0,-2.615382315564102,mp-1046305
Na8HfZn3(PO4)6,3.5581,-2.61534620370377,mp-2714951
SrTl2(PO3)4,4.453600000000001,-2.615299761854649,mp-1208595
TiNb2Zn2O8,0.0,-2.615275395641025,mp-1046752
Mg48Si34H62O147,4.2757,-2.6152720984278353,mp-1205288
Pr4Re6O19,0.0346,-2.615262899885058,mp-1209407
Na6Mg2Ti2Si3(SO8)3,0.3361,-2.615256190769396,mp-2716140
Na5P3O10,4.5352,-2.615129535045853,mp-3928
CsMg14SiO16,0.316,-2.615109546864223,mp-1034837
Na4Mg2Ta2Si3(SO8)3,1.0795,-2.615041313140804,mp-2713549
Na9Mg8Ta4P9(SO8)9,2.9880999999999993,-2.614977453702998,mp-2713745
Na2BSO4F3,5.7661999999999995,-2.614826038129571,mp-1191673
LiNbGeO5,3.4577,-2.614636739479166,mp-6456
SnB4O7,3.571999999999999,-2.614625811805556,mp-13252
Na3AlSn3(PO4)6,2.9366000000000003,-2.614618481990858,mp-2714696
Li3Sn(BO2)5,3.826699999999999,-2.614443671885965,mp-768284
Mg14BCO16,1.9781,-2.614272116692708,mp-1033731
Na2MgScP(SO6)2,4.1662,-2.614207058722885,mp-2713444
Hf8PbO24,0.0,-2.613930104848484,mp-676713
CsGa2P5O16,4.418200000000001,-2.613922915536227,mp-555006
BaMg14BiO16,0.016,-2.613905601874999,mp-1033835
PaTaO3,0.0,-2.613868040466667,mp-1186403
LaClO2,3.622099999999999,-2.61382933125,mp-1207170
KPrEuSbO6,0.0,-2.613738906641666,mp-1519948
YTi3Se2ClO8,1.1446,-2.613675697979167,mp-1048604
Li3LaO3,3.8716,-2.613643069999999,mp-780226
Na3Ta2Zn2P5SO24,2.7835,-2.613536189536546,mp-2715885
Y2Ti2SiS5O24,2.0003,-2.6135142194362753,mp-2713019
Na2TiGeO5,3.2391,-2.61335156734355,mp-6228
LiRe(OF2)2,3.1439,-2.613271225104167,mp-554108
RbCaCl3,5.3844,-2.6132349214999993,mp-998324
Na6Ca4Ta2Si3(SO6)6,2.8079,-2.61310594057794,mp-2713671
KLi3SiO4,4.875699999999999,-2.613072448583333,mp-1211498
Ba(GaO2)2,3.022,-2.61306689,mp-1228877
KLiZnP2O7,4.5237,-2.61301376269742,mp-554164
Si2Ge3P6O25,3.7805,-2.612948956329365,mp-555982
Na4Ca2Y2SiS5O24,3.5424,-2.612947314465366,mp-2713192
LaGaGe2O7,3.1959,-2.612929012954545,mp-1212633
Na7Mg3GeP5SO24,2.475,-2.612904455700069,mp-2716100
ZrBrO,0.0,-2.61289921,mp-754503
RbMg14BO15,1.3139,-2.612828750698924,mp-1034284
LiTi2P4H3O16,2.6125,-2.612677450858516,mp-753653
Mg6TiSiO8,0.062999999999998,-2.612638478333333,mp-1031157
Na2Hf6Zn2Si3(S3O16)3,3.129,-2.612613693337028,mp-2716424
Na7Ca2In2P5SO24,1.946,-2.612507128220393,mp-2715830
Rb2NbAuF6,0.1361,-2.6124163255,mp-1111465
HfGeP2SO12,2.3482,-2.612336445105042,mp-2713183
LiPrPCO7,0.3297,-2.612315641331168,mp-768250
Mg2Nb2AgO8,0.075399999999999,-2.612120112820513,mp-1046755
Na10Mg3Sn5(PO4)12,2.4292,-2.6121192295663342,mp-2713363
Na9Ca5Nb7Si9(SO8)9,1.235,-2.612066038647873,mp-2714714
Na14Hf4Zn4Si7S5O48,3.134699999999999,-2.612049407156224,mp-2715576
LuRhO3,1.0887,-2.612046788833334,mp-1205366
Na4Si5Sn2O17,0.3552,-2.6119706387684722,mp-1221161
Cs2TeOF4,5.0319,-2.611909921997126,mp-561647
RbInP2O7,3.8119,-2.611717892586579,mp-557952
Na2MgTi3Si2(SO6)4,1.103899999999999,-2.611663136604406,mp-2712683
KInP2O7,3.9987,-2.6116539071093072,mp-17966
LaCuO2F,0.0,-2.611624725999999,mp-1097048
Mg3Si3(BiO6)2,3.465300000000001,-2.6114724865,mp-1328117
K2Al2Si3(HO5)2,3.2234,-2.611430327736842,mp-1212051
Na4Ca2La2SiS5O24,3.492099999999999,-2.611361575079401,mp-2713372
Li2Bi(BO2)5,3.6369,-2.611356733055556,mp-768756
Al2Si2H4O9,4.9329,-2.611352560588236,mp-721216
Na4Si3(SnO6)2,3.174299999999999,-2.611213505500822,mp-554853
Na42Ca20Ta4Si15(S7O48)3,2.2131,-2.611188552011237,mp-2716083
Na4Al3Si7(HO3)8,0.0,-2.611113988598201,mp-1221340
BaBiBO4,3.5528,-2.6110974963095233,mp-559186
BaB4(SbO6)2,3.3759,-2.611067719824562,mp-1195214
Ba2LiHoRuO6,0.0,-2.6110179625757572,mp-1235690
NaSrHfBiO6,1.3445,-2.6109401661379312,mp-1518106
Na10Zr4In4Si7S5O48,2.9468,-2.6109270087772622,mp-2715874
Ho2Cu2O5,0.140899999999999,-2.610879746944443,mp-5029
NdCuO2,2.411499999999999,-2.610852319374999,mp-4886
CeAl3(PO7)2,0.0,-2.610833068964285,mp-1181915
NaTiAlSi(SO6)2,2.169899999999999,-2.610722885076629,mp-2712764
Na10TaGa7(PO4)12,3.3305,-2.610694899991549,mp-2713509
Na6Nb4Zn2Si6(SO12)3,1.811299999999999,-2.610638870364489,mp-2712752
BaP2PdO7,0.7159999999999991,-2.610544601071427,mp-1214414
RbGa2P5O16,4.4174,-2.610522609613095,mp-558390
BaLiPrTeO6,3.2392,-2.610438096166666,mp-41219
Tm2Ru2O7,0.0,-2.6104198963636382,mp-555716
Na15Ca7Nb5Si9(SO8)9,1.2811,-2.610250641779399,mp-2716283
Na2LuC2O6F,4.8126999999999995,-2.610203116202102,mp-1194897
K2NbO3F5,0.9031,-2.610180643136364,mp-1180911
Na4Zr2(GeO4)3,3.807,-2.61009372454844,mp-557109
Na6Ta4Ga4Si7S5O48,2.2295,-2.609987357276251,mp-2712966
Na3YSi2GeSO12,1.8075,-2.609965107248564,mp-2714398
K2InBiF6,2.3638,-2.609944202116666,mp-1112359
KRb2RuF6,0.0,-2.609928074225,mp-1113753
Si2P3RhO13,2.0386,-2.609816336522557,mp-1219334
ZrBiO4,1.0659,-2.6097999625,mp-752685
LaB5IO11,1.2036,-2.609748445046296,mp-1205267
Ce4Re6O19,0.0,-2.609743795172414,mp-1213901
Cs2NaRuF6,0.0,-2.609729962068965,mp-1112013
Ba2MgCuAg2F14,0.1195,-2.609720167166666,mp-1045802
K3SrPCO7,4.3094,-2.609685090876373,mp-772777
Na14La4Mg4Si5S7O48,3.320299999999999,-2.6096452049407772,mp-2713040
K4Eu2U(GeO4)4,0.0,-2.609611466629629,mp-1194519
Sr2CaZn2Sn2(PO4)4,0.582499999999999,-2.609530854021163,mp-1233087
BaZn2(BO3)2,3.2287,-2.609507023257576,mp-557974
Na6Hf4Mg4Si3(S3O16)3,3.099599999999999,-2.609404120483458,mp-2713860
Na2Ta5Ga3Si6(SO8)6,2.2121,-2.609343876194172,mp-2713934
Ca2SiB5H5O14,5.7666,-2.609343011095679,mp-850516
BaB8H4O15,5.6377,-2.609277360565475,mp-1202880
Eu3IrO7,0.0,-2.609165982727275,mp-17981
EuSO4,1.0685,-2.609153254166668,mp-616175
BaSr2(SnO3)3,1.359999999999999,-2.609071709,mp-1227830
Na2Zr3ZnSi2(SO6)4,2.2676,-2.608792701095147,mp-2712596
KNb4O5F,0.0,-2.6087625215681842,mp-549490
Na5CaSiSn3P5O24,2.102699999999999,-2.6087496284216463,mp-2716096
Na14Sc4Ga4Si7S5O48,3.2713,-2.608716914351346,mp-2715723
Na10Zr5Zn3Si6(SO8)6,2.7121,-2.608613893275126,mp-2716523
RbMgCO3F,4.6839,-2.608526768214286,mp-1190296
NaGaP2O7,4.265000000000001,-2.608508598242274,mp-1210133
UO,0.0,-2.608501917499996,mp-7830
NaLaMgTeO6,2.5432,-2.6082844158045972,mp-9239
Na7MgGa3(PO4)6,3.624,-2.60828130288648,mp-2714033
Li3Ga(BO3)2,4.1682,-2.608244741319444,mp-556014
Nb8Pb6O25,0.4474,-2.608209020641024,mp-1173563
K2Na2Eu2MgNb2O10,0.0,-2.6079800038030863,mp-2230626
Na3ScGe3(PO4)6,2.3653,-2.6079473805043722,mp-2716307
TmRhO3,0.9564999999999992,-2.6079338800000023,mp-1207705
Ba3TmIrRuO9,0.0,-2.607930883666667,mp-1227963
NaBO2,4.1041,-2.607822887636494,mp-3889
LiCuSi2O5,2.0917,-2.607716072037037,mp-756392
La8Cu7O19,0.0,-2.6076076595588242,mp-1181551
NaNbSn3(PO4)6,2.6827,-2.607450897644852,mp-2713799
Na7Ca3NbSi3(SO8)3,0.6636000000000001,-2.607339295743622,mp-2714097
Sr5CeNd3Cu4PbO18,0.0,-2.607201490703125,mp-1218731
Na4NbIn3(PO4)6,2.4399,-2.607200755702835,mp-2713551
Na3LaSi2SnSO12,1.3023,-2.607191573248564,mp-2714469
Rb2LaCl5,4.1379,-2.6071771240625012,mp-1209610
Li4Ga4P4O17F3,0.084999999999999,-2.607063370372024,mp-1222599
Na7MgSi3Sn3(PO8)3,2.4775,-2.607018502526432,mp-2714709
Pr4Mg(CuO4)2,0.0,-2.606976642777776,mp-2232413
Li3CuF6,1.0976,-2.606958706,mp-759234
Li2NbO3,0.0,-2.6069078619444452,mp-781626
Sn3SbF9,3.695,-2.606867681730767,mp-1201723
NaAlAsO4F,3.4772,-2.606811734234914,mp-14395
Er2Ru2O7,0.0,-2.606790154090907,mp-30902
Dy2Cu2O5,0.072099999999999,-2.6065004437037023,mp-771141
Na6Ca3ZrSi2(SO6)4,2.333,-2.606489084873564,mp-2712803
NaHfMg6O7,0.446899999999999,-2.60645565975862,mp-1033590
Nd3Sb5O12,3.1547,-2.606330456875,mp-3782
K3Cd(BO2)5,3.817999999999999,-2.606309932899123,mp-1204785
Na2Hf2Si3Sn2(SO8)3,2.0223,-2.606288898757185,mp-2713196
CsInP2O7,3.7897,-2.60621246323705,mp-1200734
SrP2PdO7,0.5015000000000001,-2.606022524253245,mp-1208663
KBCF6,7.109199999999999,-2.606009514879629,mp-559721
YSc(SO4)3,4.2927,-2.6059976986764712,mp-2714007
Nb(PO3)4,0.1629,-2.605993987268907,mp-26550
Li5Bi(P2O7)2,4.1825,-2.60597167938492,mp-1177146
Na8HfMg3Si3(SO8)3,3.3244,-2.605936331790504,mp-2714948
Cs2RbRuF6,0.0,-2.605896715681034,mp-1112166
Na3Ca2Sc2PS5O24,3.9138,-2.605814423773355,mp-2713279
SrZnSn(PO4)2,3.238699999999999,-2.6057906660989,mp-1046206
La2Ti2SiS5O24,2.0577,-2.605716603161766,mp-2712851
Sm4Mg(HO2)4,0.6774,-2.605586334705882,mp-1233577
Sm2ZnPtO6,1.7044,-2.6055048565,mp-1208902
Cs2SiO3,3.6834,-2.605466210162837,mp-505734
Na6Y4Al4Si3(S3O16)3,3.7756,-2.605416215033007,mp-2713954
Na6Ca5TaP3(SO6)6,3.0194,-2.605362145342768,mp-2713506
Na15Mg7Ta5Si9(SO8)9,1.8711,-2.60522336726373,mp-2716569
Na4MgSiGe(PO6)2,1.7059000000000002,-2.605215106736649,mp-2714594
Na14Ca6Ti2Si5S7O48,1.221299999999999,-2.605204162867606,mp-2715906
Y4Mg(BiO3)4,1.489799999999999,-2.605161456428571,mp-1233781
K4P2O7,3.7435,-2.6051445840989,mp-1019796
HfNF5,2.5976,-2.605102758928571,mp-1212491
Na6Ca3GeP4(SO12)2,1.9217,-2.605060400254516,mp-2712706
Na3Sm7Cl24,4.3094,-2.605041213209939,mp-673807
TbGaGe2O7,3.2982,-2.60497488901515,mp-1208375
Na15Nb5Zn7(PO4)18,1.9789999999999992,-2.604906837728727,mp-2713203
Cs2NbAuF6,0.1377,-2.604898890000007,mp-1112641
Na14Y4Ga4Si7S5O48,2.9959,-2.6047491539854932,mp-2715817
K2LiCuF6,0.9248,-2.604690493783333,mp-1207213
Na6MgSi2Sn3(PO6)4,2.364999999999999,-2.604663785754516,mp-2715344
Ce4Ga2S5O4,0.030599999999999,-2.604435853499998,mp-1227560
Na2Cu2(B4O7)3,0.6782,-2.604301021290773,mp-1203872
Li2CaGeO4,4.1135,-2.604269733958333,mp-7611
Na2TiSi2GeSO12,2.733499999999999,-2.604094426767997,mp-2712667
RbGa3(P3O10)2,4.5915,-2.6040896172619052,mp-560761
Na2AlPCO7,5.0719,-2.6040750947834552,mp-768146
DyGaGe2O7,3.3061,-2.604064475833333,mp-1213126