formula,bg,formation_energy,mp-id
Sr3CuIrO6,0.0,-2.265716756818182,mp-504867
Na2GdCl5,2.608399999999999,-2.265676057187498,mp-1210500
Li3Ag2F5,1.6273,-2.265562801749996,mp-759449
Cs3ScO3,3.0416,-2.26553958913793,mp-768976
Na5In3Si3Sn(SO8)3,2.107599999999999,-2.2653540813947832,mp-2713198
BaLaCuRuO6,0.0,-2.2653514965,mp-41057
Ca5Bi6(Cl3O2)4,3.113499999999999,-2.265344113870968,mp-1227157
Rb3LuO3,2.5103,-2.265284001309523,mp-772821
Dy2Nb2S7O30,0.1207,-2.265190911239836,mp-1204935
Na3SiSbCO7,3.1628,-2.265190834549071,mp-772713
DyCuSeO,1.1846,-2.265136002252602,mp-9304
Rb2SO4,4.9943,-2.265059515357137,mp-3372
Na14Mg4Zn4Si3(S3O16)3,2.9391,-2.265035135326956,mp-2714554
Pr2Te4O11,3.3043,-2.264977823235281,mp-2980
LiMg4SnO8,0.0,-2.2649355195238092,mp-1210941
Pr2Nb2S7O30,0.127699999999999,-2.264895117703252,mp-1198513
PuBO3,0.0,-2.26484911258333,mp-975564
Ce9(SbO)5,0.0,-2.264776872368419,mp-1197286
Na4Ga2Si3Ge2(SO8)3,0.7994999999999991,-2.264733626307472,mp-2713706
Ta5Pb11O26,0.0,-2.264690025873015,mp-761132
NaLaZn(SO4)3,3.6309,-2.264612986974777,mp-2714237
Rb2AgRhF6,1.390499999999999,-2.264492504666665,mp-1110602
PbF3,1.9078,-2.26442824375,mp-20652
Li6NbO6,0.0615,-2.264422071538461,mp-1213311
Na6Ca4Ga4SiS11O48,2.6676,-2.264359606947422,mp-2712702
Ti2Sb2Pb4O13,1.624699999999999,-2.264346311984127,mp-1217219
Na3SiSnCO7,0.0,-2.264262104933686,mp-771250
Na10Hf2Zn6Si3(S3O16)3,3.094,-2.264250264674698,mp-2714760
Ca2NF,1.1658,-2.264231005729166,mp-685352
CaBiO3,0.665299999999999,-2.264222731499998,mp-755893
K2Mg2O3,3.078899999999999,-2.264156577785714,mp-753662
Cs3B12AsF18,2.384,-2.264106828204868,mp-1203209
PO2,4.5183,-2.264104192380951,mp-562065
TaNO,1.933799999999999,-2.264103647444444,mp-4165
LaSe,0.0,-2.263983257031249,mp-1161
Na3In2Ga2P3(SO8)3,1.166,-2.263973567988284,mp-2713940
Ca5As3O14,0.0,-2.263920141477272,mp-1214218
Na6Ca4In4SiS11O48,2.1439,-2.2638414217672422,mp-2713288
ThBrN,2.639599999999999,-2.263707746666666,mp-28066
Sn3IF5,2.917599999999999,-2.263700232500001,mp-1209028
NaGdH2S2O9,2.922399999999999,-2.263647988925287,mp-559407
NaCeS2O9,0.530799999999999,-2.263616154721485,mp-1203888
Sm2Nb2S7O30,0.117299999999999,-2.263603196158536,mp-1201050
Li4Cu3F12,0.0251,-2.263539274780705,mp-1177454
Na6TiZn3Si2(SO6)4,1.2711,-2.263474169456897,mp-2712791
Er2Nb2S7O30,0.1438,-2.263468185914635,mp-1202070
HfP2(H3O5)2,5.2369,-2.263450094304512,mp-697913
Ho2Nb2S7O30,0.135799999999999,-2.263432884207318,mp-1196010
PrMg(BiO3)2,0.0,-2.263368519166667,mp-1044422
BaThBr6,2.183799999999999,-2.2633236162499992,mp-570615
Sc2SiGe2S5O24,1.7158,-2.263298311004903,mp-2713011
K2Mg(CO3)2,4.048599999999999,-2.263282359954545,mp-8127
Na6Bi2B4SO16,0.1874,-2.263250876808362,mp-779289
Ti2In2SiS5O24,2.1422,-2.263233080220588,mp-2712950
Nb2Zn(PbO3)3,2.436899999999999,-2.263213024999999,mp-1173489
BaAgSeF,1.269299999999999,-2.263063682252604,mp-1079647
Na2Al2Ga2SiS5O24,1.7165,-2.262865076072,mp-2714575
PrP3(HO2)6,5.1934000000000005,-2.262862091958874,mp-556063
MgTi2Zn4O8,0.0,-2.26283751211111,mp-2228634
RbSO3F,5.1068,-2.262800277916667,mp-1219578
GdScS3,1.1773999999999991,-2.262785510687499,mp-510490
EuHSO5,0.0,-2.26271869390625,mp-560128
BaY3Br11,2.5652,-2.262479380333332,mp-753942
Na6Mg(SO4)4,5.3855,-2.262396720491697,mp-558427
NpBO3,0.0,-2.262327972583333,mp-977058
K2TlPdF6,0.0,-2.2623155237833332,mp-1111369
Ba2YBi3O8,0.088,-2.262298276428571,mp-1443145
La2Au5F21,1.7131,-2.262270037232142,mp-3817
PmBr3,2.8814,-2.262261105625,mp-862986
Sm3HoS4,0.0,-2.262240289999998,mp-1219190
Sr(DySe2)2,1.3579,-2.26222997910714,mp-862729
BaCaGaBiO6,0.0373,-2.26221530575,mp-1519159
Cs2HfCl6,4.2277000000000005,-2.262170020555553,mp-1120741
Gd3S4,0.0,-2.262120790892855,mp-20036
Te7OsO5F32,1.2372,-2.262041290148147,mp-1205467
CaCu2F8,1.2139,-2.261940485454545,mp-1404968
Ba3InRu2O9,0.0,-2.261919185444445,mp-22352
LiGdO3,0.0,-2.261904235666667,mp-1185401
AgSb3IF24,0.289399999999999,-2.261820224712643,mp-1199846
CeBr3,0.0,-2.261770134999998,mp-569850
AgP(OF)2,1.9686,-2.26173536438492,mp-1194585
AlHSO5,5.6906,-2.26148272546875,mp-1105277
K3Er7S12,1.8393,-2.261442356287876,mp-1224251
KAl2P2H8O12F,5.1432,-2.26136757294368,mp-698033
Ba4Na(RuO4)3,0.0,-2.261358031568965,mp-542286
Na2BiPCO7,3.6596,-2.261253049783456,mp-768140
Sr2HoCu2RuO8,0.0,-2.261148191785712,mp-1218811
NdCuSO,1.617999999999999,-2.261039174999999,mp-542314
BaCuSF,1.6223,-2.261026764375,mp-1080650
PrBi2IO4,1.2196999999999991,-2.260997688333334,mp-545728
Sb2I2F11,0.0,-2.260893332999998,mp-27236
Na6Mg4Si3Sn4(S3O16)3,1.242499999999999,-2.260818433726702,mp-2713833
U2Ga2O5,0.0,-2.26079746222222,mp-971864
Na6CaSi6Ge7(SO8)6,1.124699999999999,-2.260727080787512,mp-2714629
LaIO3,0.7893000000000001,-2.260693368999999,mp-1080184
Rb2UCl5,0.105799999999999,-2.2606476771875,mp-28881
LuGeO3,0.0,-2.260620259333334,mp-1185514
SrBiO3,0.3106,-2.260618635000001,mp-29164
K2Ba(Ge4O9)2,2.997,-2.260515498258621,mp-662803
Li8NbO6,0.0,-2.260507721111111,mp-774697
CaB2(H2O3)2,5.5553,-2.260502938717948,mp-696618
YbSm3S4,0.0,-2.260349227031252,mp-1215523
CsSO3F,5.164499999999999,-2.260244409109196,mp-622195
BaP2(HO4)2,0.4731,-2.260209488791207,mp-707120
Ca2Cu(BrO)2,0.0,-2.260203145714285,mp-545481
NdP3(HO2)6,5.2016,-2.260147847678571,mp-1191473
KIn(PO4)2,0.2893,-2.259956771308531,mp-1196864
Sr3CuRhO6,0.0,-2.259917213636363,mp-18444
Nd4Os6O19,0.0,-2.259843389137937,mp-541640
LiTi(SO4)2,0.1903,-2.259794660868055,mp-1176809
Sc2(SeO3)3,3.8037,-2.259779550502238,mp-31065
MgCu2(PO4)2,0.309199999999999,-2.259736336483516,mp-1222038
KPrPdO3,0.597799999999999,-2.259648028986111,mp-560569
RbIn(PO4)2,0.2757,-2.259643713829363,mp-1203914
Na42Nb4Zn20Si15(S7O48)3,1.4618,-2.259593095591183,mp-2712897
Mg4Nb2(SO4)9,2.333799999999999,-2.259558321519608,mp-2713744
SbSO2F7,3.4888,-2.259452741136363,mp-1197121
Rb5H5(OF3)2,5.3491,-2.259433708263888,mp-555178
Rb4MgCuSi2O7,0.0,-2.259384182666666,mp-2232098
KNa2PdF6,0.0,-2.259310108000861,mp-1111008
K4P4(H2O5)3,5.2047,-2.259307832416255,mp-721958
Ba2IrO4,0.0,-2.259269779999999,mp-755117
La2SiGe2S5O24,0.583299999999999,-2.259110020514706,mp-2712884
Li3PdF6,0.0,-2.259064185624999,mp-1111069
Ba4LiY2Cu5O14,0.0,-2.258967747435897,mp-757073
LiSnPCO7,3.3671,-2.258965851179653,mp-775916
NaLi2IrF6,1.8335,-2.2588901159416612,mp-1111346
RbYO3,0.0,-2.258841818500001,mp-975173
KYO3,0.0,-2.258839532449999,mp-1184945
Na3BO3,2.9485,-2.258836155472085,mp-30975
K3NbAs2O9,3.1385,-2.258836051283334,mp-560208
Na3Eu(CO3)3,0.0,-2.258814115258621,mp-555099
Rb2YTlCl6,4.1524,-2.258796112833334,mp-1114000
EuAsO3,0.0,-2.258794933500001,mp-983564
UP2H2CO7,1.7621,-2.2587221704258242,mp-1197788
LiSiSbCO7,3.2375,-2.258663302121211,mp-771979
Li2Cu2F7,0.0,-2.258602400303042,mp-758696
Sm3DyS4,0.0,-2.258529258333333,mp-1219136
K2Pr2H3(S2O9)2,0.1872,-2.258516567640804,mp-707986
Sn2P2SO12,2.6233,-2.258408084516807,mp-2713448
LaGa(SO4)3,3.0307,-2.258383560588236,mp-2713847
Na6MgSi6Ge7(SO8)6,1.3737,-2.258311874999224,mp-2714893
Sm3MgBi(Ru2O7)2,0.195899999999999,-2.258299965652174,mp-1234253
MgNb4(IO2)4,0.0,-2.258255377352942,mp-2229040
Sb3C2N(OF8)2,4.0241,-2.258248968020833,mp-566334
HfSO6,2.8728,-2.258224398749999,mp-725917
BHO2,6.2786,-2.258127566145833,mp-1198592
NaLiSO4,5.5384,-2.258071561506567,mp-6783
Na3CdPCO7,3.1961,-2.257984603367752,mp-767430
Cs2SO4,5.0111,-2.257878981687191,mp-505782
Na6Nb2Zn4Si3(SO6)6,1.9403,-2.257870107250454,mp-2713655
Nb6(Pb2O5)5,0.685999999999999,-2.257840133536585,mp-675506
LiDyO3,0.0,-2.257823717999998,mp-1185308
TlPO3,3.6726,-2.257728706095238,mp-27144
Sm3YS4,0.0,-2.257655539375001,mp-1219140
K3SnPCO7,3.5454,-2.25746416279945,mp-754251
Na2ZnPHO5,3.6144,-2.257447842865148,mp-758238
Li4Sb2H6O3F10,4.6480000000000015,-2.257404444233334,mp-769122
LiP4(RuO7)2,0.030999999999999,-2.257291626757368,mp-1211129
KNa2BO3,2.7985,-2.2572514841678992,mp-8263
K3AlO3,2.8977,-2.257201830250001,mp-9157
SbPO5,2.5585,-2.257082364234693,mp-9750
KEuAlBiO6,0.0,-2.256885840225,mp-1521352
NaZnBP2O9,0.1026,-2.2568087778451202,mp-1210507
CaPH4O5F,4.978400000000001,-2.256773609136905,mp-721347
SbSO2F5,3.4487,-2.256727848055555,mp-560066
Bi6P4PbO20,3.333199999999999,-2.256616235437789,mp-505697
K7Nb(SO4)6,2.8444000000000003,-2.256590812782895,mp-17499
Rb2AsAuF6,0.8073,-2.2565488442499992,mp-1110595
Na2Ca2SiSn2S5O24,0.0,-2.256511536859036,mp-2714334
Li2BiBO4,2.5838,-2.256451331354166,mp-778115
UTe2PbO8,1.9725,-2.256445499236097,mp-555259
Ba5Ru2O11,0.0,-2.256200781111109,mp-867790
MgAl2(CuO3)2,0.0,-2.256160088636365,mp-2215789
Sr2TiCu2O7,0.0,-2.256074350277777,mp-1046189
SrMgTiO3,0.0,-2.256031023888889,mp-2210739
KU(TeO4)2,0.2629,-2.256007802965277,mp-1191957
CsRb2AuF6,0.660799999999999,-2.255948434465517,mp-1111462
Na6Mg2Si5Sn6S7O48,0.771799999999999,-2.255933648253727,mp-2715842
Rb5Si2NiO8,0.002,-2.25588240171875,mp-543079
Na4Mg2Ga2SiS5O24,2.3016,-2.255761983719752,mp-2713346
BaAsHO4,3.929999999999999,-2.255684732946428,mp-23810
Gd2Nb2S7O30,0.029799999999999,-2.255677599695121,mp-1201421
Na2Si3SnO11,0.142699999999999,-2.255676536926977,mp-1203979
Sb2XeF12,2.7297,-2.255613694333317,mp-1193829
K3Na(SO4)2,5.2996,-2.25555073343781,mp-22457
Nb2TeO8,0.975399999999999,-2.255534999696969,mp-1045679
Zn2B2PbO6,3.473299999999999,-2.255461469848484,mp-560471
MgCl2,5.6168000000000005,-2.255449848333333,mp-23210
Eu(YSe2)2,0.124399999999999,-2.2554064762499992,mp-1193787
La4Ti5(S6O)2,0.0,-2.255401349855072,mp-1223604
Sr3Te4O11,3.180799999999999,-2.2553537839814832,mp-30026
Cs2ScTlCl6,3.5792,-2.255239010764369,mp-1112000
BaRe2H2O9,3.9278999999999993,-2.255222034642858,mp-695984
Na3InSi3Sn3(SO8)3,1.8754,-2.255145179413638,mp-2716373
Ba3NaRu2O9,0.0,-2.254982630091955,mp-542123
La7(IO6)3,0.0,-2.254958280357144,mp-1180878
Rb2Li14Pr3O14,0.0,-2.25488288111111,mp-17971
NaInGeP2SO12,1.6619000000000002,-2.254805850546205,mp-2712578
Sr4Li(RuO4)3,0.0,-2.254725459666667,mp-1218614
Na4Sr(Ge2O5)3,2.7036,-2.25456694117374,mp-1210405
Ba2TaCu2Pb2ClO8,0.0,-2.254352243583333,mp-1228449
MgTi2(Bi2O5)2,1.0396,-2.254275718333334,mp-2229590
Ge7F16,4.4142,-2.25422968,mp-29500
TiTl2O3,2.0959,-2.254204047916664,mp-17986
Ba(GdSe2)2,1.225499999999999,-2.254198865624996,mp-1194410
LiSm3Bi(Ru2O7)2,0.0,-2.254156639492753,mp-1236198
ZrH6O3F4,5.2923,-2.254128121428571,mp-1201375
LiCeS2O9,0.358899999999999,-2.25407463948718,mp-1198410
K2LaBr5,3.3763,-2.254064136187501,mp-1212029
Tm(HO)3,4.3024,-2.254020837321428,mp-780425
CaSnAsO5,1.746799999999999,-2.2537490375,mp-1380645
CaZn(CO3)2,3.9421,-2.253446365999999,mp-1078391
KSO3F,5.117199999999999,-2.253433919541666,mp-1223405
Mg6SiBiO8,0.214299999999999,-2.253416475,mp-1030926
Ca3PCl3,1.8419,-2.253346153639455,mp-29342
Rb2BaBr4,4.2176,-2.253214423571429,mp-1219768
TbBr3,2.8564,-2.253170766666668,mp-863746
Ca(CO2)2,3.1204,-2.253022317857142,mp-558543
Ca3AsCl3,1.8439,-2.252943995714286,mp-28069
NaZrP2O9,1.132499999999999,-2.252880196781925,mp-1180130
TiBi6(PO8)2,2.591199999999999,-2.252744042104763,mp-1208225
Sm3B13O29,0.0171,-2.252637663037036,mp-1203984
Na2MgSiGe(SO6)2,0.7902999999999991,-2.252590632250454,mp-2713695
Rb4B2S4O17,5.291,-2.252540229382715,mp-1020662
Pr2EuSe4,0.5078,-2.252477564940473,mp-1173369
K2MgCl4,4.7652,-2.252388238499999,mp-27207
Ba14LiY7(Cu10O21)2,0.0,-2.252379541230159,mp-774711
Ge(SF6)2,4.9704999999999995,-2.252315123333333,mp-28291
Ca(ScS2)2,1.2862999999999989,-2.252192421964285,mp-17597
Pb5(IF4)2,2.9619,-2.252169605333333,mp-540938
NaSrSnSbO6,0.0043,-2.25215979763793,mp-1519946
Na3Mg2Ga2PS5O24,3.448399999999999,-2.252090405349931,mp-2712655
Nb2TlO7,0.0,-2.252054367833333,mp-1220680
Li5Cu6(P2O7)4,0.0,-2.252028148378925,mp-772084
Na14Al4O13,2.5926,-2.251951860784205,mp-31008
Ca2B5O13,0.2428,-2.251932356166667,mp-1202231
Na2NbIn3Si2(SO6)4,0.9225999999999992,-2.251851096095147,mp-2712725
Na5In3Si3Ge(SO8)3,1.8462,-2.251712705497347,mp-2713154
RbNaMg6O7,0.0,-2.251709008925287,mp-1030980
Cs2BaBr4,4.1619,-2.251703622044335,mp-1226237
RbSrP3(HO2)6,5.519299999999999,-2.251698166040372,mp-734123
Na3Mg3In(SO4)6,3.7666,-2.251669716643367,mp-532701
InP3(HO5)2,3.8706,-2.251583048630952,mp-606312
Na8Zn2In2Si3(SO8)3,0.032799999999999,-2.251509817544472,mp-2714934
Ce2(SeO3)3,0.0,-2.251483732823661,mp-638687
KGePCO7,3.5665,-2.251475690172077,mp-754175
KGaGeO4,3.1871,-2.251453324607143,mp-1213396
SrThBr6,2.1387,-2.251402414999999,mp-29016
Mg6SnBiO8,0.344499999999999,-2.2513644565625,mp-1031414
TbCuO3,0.0,-2.251320996333332,mp-1187321
ZnSn2(PO4)2,2.5269,-2.251071238406592,mp-1044764
Sc5IrCl9,0.218099999999999,-2.251002730666667,mp-1203297
Mg6SiCO8,1.598700000000001,-2.2508472709375,mp-1030861
Sr(ErSe2)2,1.4083,-2.250829536488091,mp-1193520
K2RbAuF6,0.757799999999999,-2.250814167199999,mp-1111442
EuSeO3,0.086599999999999,-2.250813653468751,mp-755177
Eu(DySe2)2,0.1657,-2.2508127051785722,mp-645690
Pr3Bi(Ru2O7)2,0.0,-2.250791438863636,mp-1219861
ZnPbF6,1.6928,-2.250629001874999,mp-13610
Nd14Cl33,0.0,-2.250578581117019,mp-1221177
KMgCl3,4.4851,-2.25049811795,mp-27865
Nd2EuSe4,0.490699999999999,-2.2504451180357132,mp-36407
TiHgO3,1.0936,-2.250372007166668,mp-7607
DyBr3,3.0029,-2.250253531666665,mp-864982
CeCuSO,0.0,-2.250206888124999,mp-635469
BaTeO4,2.1894,-2.25012785236111,mp-754967
BaAgSF,1.4324,-2.250060911041666,mp-1086652
La3ZnCuRh2PbO12,0.0,-2.249769505249999,mp-1223691
TlCu(PO3)3,0.9173,-2.2497031989115652,mp-1208325
Cs3Tb2Br9,3.859,-2.24947857230706,mp-669304
Ba2Sb3O8,0.0,-2.249451882307691,mp-1042189
K3Mg2Cl7,4.5973,-2.2494179326458332,mp-1211609
Na6Mg2C4SO16,4.584300000000001,-2.249393921061242,mp-6892
La5Se6N,1.588099999999999,-2.249373512526041,mp-1224631
Rb2HgRuF6,0.0,-2.24933268075,mp-1113936
K2Sr(Ge4O9)2,2.9798,-2.249245267281608,mp-1212505
Na3In4P3(SO8)3,0.771699999999999,-2.249113977672968,mp-2713933
EuCuSF,0.0733,-2.249085525625,mp-21354
Na2Mg(CO3)2,4.4192,-2.248876110705329,mp-6026
NaSiSbCO7,3.0031,-2.248858872852663,mp-772595
NaEuSnSbO6,0.0,-2.24881504813793,mp-1519546
Na(La2Se3)4,0.0,-2.248723237595443,mp-37312
Rb2Ba(Ge4O9)2,2.9384,-2.2486109194252872,mp-1210469
Na2Si3Sn4(SO8)3,1.022999999999999,-2.248586453479407,mp-2713485
SnHgF6,2.431,-2.2485275246875,mp-36508
Na2ZnGe3P4(SO12)2,1.5063,-2.248486059573983,mp-2712673
BiB2O5,0.0,-2.248477877604166,mp-768314
Sr2YCu2BiPbO8,0.0,-2.248471217666666,mp-1219942
Cs3Er2Br9,4.2885,-2.248421280997534,mp-1193312
Cu3B7IO13,0.0,-2.248403250381944,mp-651682
SmYS2,0.0,-2.2483487075,mp-1218975
Rb3TmO3,2.1734,-2.248256205357143,mp-752406
Ba2Lu(CuO2)3,0.0,-2.247971449722222,mp-21868
DyS,0.0,-2.247902868906248,mp-2470
Er(HO)3,3.7325999999999993,-2.247883594821428,mp-24645
Sm3ErS4,0.0,-2.247815896874998,mp-1219178
NaAl2Ga2PS5O24,2.9887,-2.2478020157673,mp-2714049
Ba3Cu2(ClO2)2,0.1749,-2.247765554545455,mp-559757
Li2CO3,5.057399999999999,-2.247751566111111,mp-3054
Rb4SiO4,2.7076,-2.247742056944444,mp-768813
Sr2Ca2Ga(CuO3)3,0.0,-2.2475835048529422,mp-1209020
TcSbH2(OF5)2,2.8702,-2.2475348584374992,mp-1201290
TiP2H2O9,0.0,-2.247526177151361,mp-1197096
B2TeO5,3.333399999999999,-2.247413569375,mp-768235
P3IrO9,2.244099999999999,-2.247317921456041,mp-560585
Sr(ReO3)3,0.0,-2.247270794230771,mp-531197
Cs3Ho2Br9,3.9708,-2.247176577783249,mp-1192709
Na2SbPCO7,4.019,-2.247123653950123,mp-768144
HfZn(SO4)3,4.8209,-2.247044126029412,mp-2713876
BaU2I2O13,0.511,-2.246950903194445,mp-1197781
CsHgF3,0.7228,-2.246846599431038,mp-561947
CsTbO3,0.0,-2.246749296264368,mp-1185551
Ce11MnS16,0.0,-2.24673475046182,mp-675160
K2AgRhF6,1.4182,-2.246720276616666,mp-1111950
ScGa(SO4)3,3.8455,-2.246705246960785,mp-2713794
HoTe2ClO5,2.9145000000000003,-2.246676288703702,mp-558875
ZrZnO3,0.0,-2.246558206999999,mp-1016883
NaCaGeP(SO6)2,0.6363999999999991,-2.246557719964195,mp-2715530
GdCuO3,0.0,-2.246362585,mp-1184481
NaCeH2S2O9,0.205799999999999,-2.246314680703066,mp-684828
InAsF6,3.3845,-2.2462814828125,mp-22604
BaTlP3O11,0.6827000000000001,-2.246237692328869,mp-727096
Na10Ca4Zn4SiS11O48,3.391199999999999,-2.246216147388374,mp-2713613
Cs3LaBr6,3.9286,-2.246180659146548,mp-1213905
Sr(PrSe2)2,1.9019,-2.246160954226188,mp-37859
HoZn(SbO3)2,1.5293,-2.246099211999998,mp-1049305
Na3Al(AsO4)2,3.3791,-2.246037998866995,mp-1197957
RbNa2BO3,2.9274999999999993,-2.245913919203612,mp-8872
CsNaMg6O7,0.0,-2.245863521068965,mp-1098107
TaGa3P2(SO6)4,3.1792,-2.24581475252311,mp-2712931
Ba14Y7(Cu10O21)2,0.0,-2.245775004216868,mp-774710
Na10Zr2Zn6Si3(S3O16)3,2.6875,-2.245714933563587,mp-2714824
NaB6NO10,0.0,-2.245646928965518,mp-1201362
Li2CuSb(PO4)2,1.1931,-2.245474240068026,mp-772561
Y4S3N2,0.0,-2.245456909548611,mp-1246909
Na10Zn3Si6Sn5(SO8)6,1.384799999999999,-2.245441108852048,mp-2716367
Li2Ge2O5,3.3005,-2.245412622962963,mp-7998
Eu2ZnPtO6,0.0,-2.245385045000001,mp-1212992
Nb2Zn2TeO8,1.0583,-2.2453090482051272,mp-1047331
NaSnPCO7,3.2917,-2.2452468841838322,mp-768209
CsRbSO4,4.8535,-2.245072960665024,mp-1213079
NaScCl4,3.8115,-2.244927959166666,mp-29432
Na2Nb4Se4O19,2.3695,-2.244913105073573,mp-1192640
RbCl,4.8388,-2.24486944375,mp-23295
La3Zr2Cu7O12,1.124,-2.244796718125,mp-1097057
Al6CuP4(H4O7)4,1.1467,-2.244785902701298,mp-1202099
Na6Mg6SiGe2S11O48,1.1863,-2.244683193298773,mp-2712534
Na4Al2Zn2SiS5O24,3.6881999999999993,-2.24466184543028,mp-2713200
La5S7,0.0,-2.244597854973953,mp-1223399
Na6ZnSi6Sn7(SO8)6,1.3114,-2.244591391823548,mp-2714688
Y4H9NO13,3.3405,-2.244570618564815,mp-707981
LiHoO3,0.0,-2.244521940666665,mp-973818
Cs3Y2Br9,4.0683,-2.244489987426106,mp-568937
Sr2YTlCu2O7,0.0,-2.244482196025641,mp-1218486
Li2Cu2Si2O7,0.186299999999999,-2.244345291089743,mp-759054
Na3Mg3Ga(SO4)6,3.5492,-2.244319155179405,mp-2715079
Ho(HO)3,3.6657,-2.244273694107142,mp-24075
Na4TiZn3P2(SO6)4,1.699,-2.244249274512359,mp-2713151
Na2Al4Si3Sn4(S3O16)3,1.5271,-2.244175647003695,mp-2716439
BaSi2(H3O4)2,5.0579,-2.244087048088235,mp-721586
SmSO4,0.0,-2.24404516,mp-1208974
Dy(HO)3,3.7109,-2.24380406363095,mp-24074
Sm4GdS5,0.0,-2.2436222027499992,mp-1219448
NaTi2Zn2PS5O24,1.7855,-2.243620452386348,mp-2714252
Na5Zn2Ga2P3(SO8)3,3.1086,-2.243609177136543,mp-2714758
Cd3(PO4)2,2.5482,-2.2433336802655672,mp-680761
KRbCl2,4.9089,-2.2433230486875,mp-1223311
AlGeP(SO6)2,2.5239000000000003,-2.243263307135854,mp-2712854
CuP2PbO7,0.8003,-2.2432138512987,mp-21533
Na8Zn3Si3Sn(SO8)3,1.8354,-2.24316771266352,mp-2715050
Nd10Si10N17ClO9,3.1041,-2.243158480851064,mp-686617
Rb2AgRuF6,0.0,-2.243152053666666,mp-1110601
GdCuSeO,0.0,-2.243116855585937,mp-505262
Cs2UCl6,0.0,-2.243108233333332,mp-23077
ScIn(SO4)3,3.8507,-2.243095538186275,mp-2713963
CaTiH6(OF3)2,0.367399999999999,-2.243049566302083,mp-1233812
Tb(HO)3,3.584,-2.243024384345239,mp-24121
Ba2Ho(CuO2)3,0.0,-2.243011351249999,mp-616166
Na3Mg2In2PS5O24,1.4211,-2.242997541611193,mp-2712779
Sn4(PO4)3,0.0,-2.242944623627819,mp-26446
Ce2Te4O11,0.0,-2.242841178921568,mp-31248
Rb3Er7S12,1.94,-2.242840693977274,mp-1219776
Sr(NdSe2)2,1.7524,-2.242733372321428,mp-39033
Na10In4Ga4Si5S7O48,2.7511,-2.242714924097775,mp-2715129
Li2Cu4Si4O13,0.1069,-2.242526327028986,mp-766013
YS,0.0,-2.24246193140625,mp-1534
Sr3Se3(ClO4)2,3.4263,-2.242436686220703,mp-554805
Na3Al2Zn2PS5O24,4.3545,-2.2424011832328152,mp-2712681
Na3TmCl6,5.609400000000001,-2.242224645999999,mp-1210289
Na3GaSi3Ge3(SO8)3,2.1595,-2.242028607183908,mp-2714796
Cs3Zr7BCl20,1.1888,-2.241879189939748,mp-567781
CeS,0.0,-2.24176775140625,mp-1096
SrU2I2O13,0.351899999999999,-2.2417264725,mp-1197845
Na14Zn4Ga4Si5S7O48,2.8776,-2.241576716607444,mp-2715963
Mg6ZnCO8,3.6001000000000003,-2.2415028459375,mp-1032475
Na2Nb4Zn4Si3(S3O16)3,0.9095,-2.241482796194171,mp-2716320
RbHoHS2O9,0.2177,-2.241467738839286,mp-761809
Cs2NaUCl6,0.5004000000000001,-2.241433994068965,mp-23108
Hf8Mg(N2O)4,0.173199999999999,-2.241250617857141,mp-1233149
KCuB7O13,0.051199999999999,-2.241224594609848,mp-1199109
ZnSb2P2O9,3.721299999999999,-2.241176755663266,mp-1044935
Cs2ZrCl6,3.6531,-2.241028756666665,mp-638729
Na4Mg2In2SiS5O24,2.243,-2.241027416132033,mp-2713418
Na2Cu2Si4H4O13,0.185699999999999,-2.240989840910345,mp-555953
Nb2Pb3O8,0.046199999999999,-2.240965848717949,mp-676573
PrCuSO,1.641599999999999,-2.240809981041666,mp-6166
Ba3LiIrRuO9,0.0,-2.240789611888889,mp-1228318