formula,bg,formation_energy,mp-id
SrMg30NbO32,0.268399999999999,-2.9300252598437493,mp-1038705
Na8MgTi3Si4(PO12)2,2.2329,-2.929997843063179,mp-2716213
Na3Ca2Nb10Si3(P5O24)3,2.1247,-2.929938270512198,mp-2715808
Na3MgZr(PO4)3,3.9455,-2.929810543986659,mp-690382
Na8Zr3ZnSi4(PO12)2,3.5845,-2.9297386852457192,mp-2716176
NbPO5,2.2614,-2.9297376160204083,mp-556918
Na6Sc2Nb2Si5SO24,2.232299999999999,-2.9297237476443962,mp-2714010
La6TaGa11O28,3.4452,-2.929610374778986,mp-1223200
Na7Zr3ZnSi3(PO8)3,3.8736,-2.9295800519573283,mp-2714954
Mg30ZnCdO32,3.690599999999999,-2.929576829218749,mp-1037464
Hf4Ti(PbO3)5,2.8592,-2.9294113643333333,mp-1224767
ZrTiCuO5,0.0,-2.9293967397916663,mp-1197943
K2Mg2Si2O7,4.9573,-2.92937610226923,mp-1019779
Na5ZrAl3(PO4)6,3.9668,-2.929351841745821,mp-2713465
Rb2TiAgF6,0.0,-2.929266637,mp-1110599
Na3Pr(PO4)2,4.9068000000000005,-2.929234880988592,mp-1210844
NaAlO2,3.7968,-2.929171832219827,mp-9212
HfMg30GaO32,0.0,-2.929066824023436,mp-1038444
K2NaTaF6,0.0,-2.9289763153212642,mp-1110828
CsAl3(P3O10)2,5.432,-2.92896469425041,mp-558602
LiDy(PO3)4,5.9658000000000015,-2.9289450921428553,mp-6413
Ba3Sr4O7,2.4311,-2.9288347089285702,mp-760515
Ba3In2(PO4)4,3.7254,-2.92877177267619,mp-1200796
Na3Mg5Si8(HO8)3,3.8525,-2.9287432913074722,mp-1221605
MgAl2(PO4)3,0.0,-2.928723082162698,mp-1222232
SrLi(B3O5)3,5.7528,-2.928699249070513,mp-18495
Na2Hf2Zr2Si3(SO8)3,3.2172,-2.92862584718311,mp-2713182
Na4CaLa(PO4)3,4.0172,-2.928587609338689,mp-2715090
Na3YZrSi2SO12,3.9238,-2.92858637741523,mp-2714324
Mg30AlSiO32,0.3338,-2.928456867343749,mp-1038247
TbZn(BO2)5,5.227,-2.928356961911765,mp-15520
LaInO3,2.7507,-2.9282917013333343,mp-11623
Mg16Si7HO32,0.0,-2.928222198950892,mp-707534
Ba2Ca2NdTi2(CuO6)2,0.0,-2.928130257341271,mp-1214747
CaZrNbInO6,0.5202,-2.928022710666666,mp-1517467
Cs2NaBiF6,5.021000000000001,-2.9280084390689662,mp-560790
Ca9Nb2Ga10(SiO7)6,0.044999999999999,-2.927926188768116,mp-1228104
Na3Hf3ZnP5SO24,4.391599999999999,-2.92789920877979,mp-2716078
Sm2S2O,2.4909,-2.927853433499998,mp-8993
CsTiCuOF5,0.0,-2.927818403109834,mp-677489
MgB4O7,5.9382,-2.927714725451389,mp-14234
Na3LaHfSi2SO12,3.841,-2.927687464331897,mp-2714491
LiEr(PO3)4,5.9556,-2.927661526494708,mp-555065
BF3,8.1347,-2.927657615937501,mp-27896
LiHo(PO3)4,6.0045,-2.9275779262169292,mp-555366
Na4LaNb(SiO4)3,2.286699999999999,-2.927481890342091,mp-2716462
Sr2AlSbO6,1.8987,-2.927464959999999,mp-1208835
La2BiO5,0.9257,-2.927419057500001,mp-773100
LiMg30BiO32,3.282199999999999,-2.9273437827083333,mp-1040014
Na10Ta6In2Si11SO48,0.8586,-2.927322518785809,mp-2716408
Na4CaSc(PO4)3,4.2468,-2.927315516957737,mp-2715098
Sr3DyRhO6,2.1335,-2.92729821469697,mp-18651
K2LiNb6(PO8)3,2.295,-2.927287174771164,mp-695505
LiSm(PO3)4,6.0068,-2.927127276216931,mp-1199215
Ba3B(BrO)3,3.7561,-2.926992053416666,mp-1200496
Cs2RbTaF6,0.0,-2.926966403414368,mp-1112511
Na4ScNb3Si5SO24,2.0781,-2.926961147667121,mp-2715086
BaYMg30O32,0.0,-2.92692792078125,mp-1037184
Pr2TeO6,2.933099999999999,-2.926918404444445,mp-1209377
BaTi4ZnO8,0.0,-2.926744168809523,mp-1046922
Ti3TeO8,3.156999999999999,-2.926663778055555,mp-774922
RbMg30TiO32,0.0,-2.92648379391927,mp-1098349
Na4ScIn3(SiO3)8,3.8,-2.926477416762931,mp-1221158
Na6Ti7Zn(PO4)12,2.1462,-2.926436852125993,mp-2714706
CsNd(PO3)4,5.5905000000000005,-2.926252741429255,mp-1226879
Na4YNb3Si5SO24,1.9944,-2.9260573912197523,mp-2715183
Li2Al2P2O9F,0.3527,-2.926043697872024,mp-1222822
PrNbO3,0.0,-2.9259439773333322,mp-975913
NaBeSi3HO8,5.2827,-2.925861073223522,mp-556001
LiNd(PO3)4,5.9792000000000005,-2.92579070246693,mp-18711
Sc2TeO6,2.897,-2.9257413325925943,mp-557773
TiNbGaO6,0.0,-2.92560960787037,mp-1216751
Ba11B26P2(H3O29)2,4.492699999999999,-2.925588109321544,mp-1195112
Na4Al2GaSi3BrO12,4.3744,-2.925580733174662,mp-1221240
AcO,0.0,-2.92545982375,mp-1183172
Mg7Si4(HO8)2,4.2259,-2.925440170431033,mp-722896
Na3Zr2Al2P5SO24,3.9535,-2.925430304905917,mp-2715989
NaY2Nb2P5SO24,2.1422,-2.925262027393151,mp-2716263
Na3YHf3Si3(SO8)3,4.2455,-2.925248141981205,mp-2714719
KEr(PO3)4,5.5675,-2.9251457596289683,mp-554615
CsSm(PO3)4,5.6019,-2.9251298096237,mp-1226438
Li5Al(SiO4)2,4.5604,-2.925101434791666,mp-1222486
CsTb(PO3)4,5.3063,-2.925055746660736,mp-17128
LiCeMg6O8,0.463799999999999,-2.924871413958332,mp-1030934
Na6Y2Nb2Si5SO24,2.2492,-2.924643977644397,mp-2713982
Rb3Nb5P2O19,2.8451999999999993,-2.924486491440886,mp-667344
K2LiBiF6,4.8822,-2.924433109783333,mp-1110838
Na14Y6Ta2Si9(SO16)3,2.7157,-2.924366180729395,mp-2714764
NaLaZrP2SO12,3.4686,-2.924357846379539,mp-2712656
Rb2NaAl2(PO4)3,4.815799999999999,-2.9243520747653933,mp-559610
Na14Sc6Ta2Si9(SO16)3,2.6999,-2.9243428974367123,mp-2715175
BaLaTiCuO6,0.0,-2.924288131333333,mp-695277
Ba2Zn(BO2)6,4.2768999999999995,-2.924281693809524,mp-558680
KF,5.949400000000001,-2.924248431124999,mp-463
Na8MgZr3Si5SO24,3.3272,-2.924199591353996,mp-2715534
NaLiAl4(SiO6)2,3.1323,-2.9240967989856332,mp-1221039
Ti7O8,0.0,-2.924000725555555,mp-779692
Na3ZrScSi2SO12,4.0225,-2.923753865748565,mp-2714535
RbNa2Al3Si3O13,0.188299999999999,-2.923735129784483,mp-1219624
Na3Hf3ScSi3(SO8)3,4.2711,-2.9236640140082333,mp-2714790
Y2Mg3(GeO4)3,3.879399999999999,-2.92360559925,mp-1216309
K2LiLa4O7,0.0,-2.923462435916667,mp-1235048
Na5Ca2Al(PO4)4,4.8096,-2.9234620803738562,mp-559777
BaSrO2,2.567199999999999,-2.923456599999999,mp-1227311
Na10Nb6Al2Si11SO48,2.2349,-2.923407719802904,mp-2716473
Ca3ReO6,0.0,-2.923372625249997,mp-9457
Ca3Si4(SbO7)2,2.3761,-2.923361202826086,mp-1250828
NaLaTi4O12,0.0,-2.923333312206258,mp-1519680
GdB2HO5,3.1258,-2.9232913249537043,mp-1225228
NaCeMg14O16,0.5366000000000001,-2.923274593480603,mp-1034906
NaHf3TaSi3(SO8)3,2.3338,-2.9230922327013142,mp-2713832
La3Ga5O12,2.8686,-2.923090592,mp-780561
RbNd(PO3)4,5.4935,-2.923082503994709,mp-1219990
Mg30NbZnO32,0.301099999999999,-2.92297475890625,mp-1037462
K4Nb6O17,2.6581,-2.9229413715370383,mp-560692
LiPF6,7.5394,-2.922815228080357,mp-9143
Li4ZnIn2F12,4.2884,-2.92274580377193,mp-1222552
NaBeSi3O8,0.190799999999999,-2.9227184341445622,mp-1202648
Sm3P3O14,0.2864,-2.922707839321428,mp-1194682
RbTb(PO3)4,5.5062000000000015,-2.9226304737632263,mp-555727
Mg30TiSiO32,0.1644,-2.922516118177083,mp-1098353
NaErCu2F8,0.7312000000000001,-2.922484891781609,mp-1210068
HfMg30CdO32,0.558999999999999,-2.922465372499999,mp-1038443
Na2La3TaP4(SO12)2,2.9356,-2.922459536722132,mp-2712643
CsSbF6,5.0381,-2.922387598706896,mp-9636
Rb2TiOF5,0.0,-2.922204498148148,mp-1106402
Mg7TiAl6Si8(H4O19)2,2.570599999999999,-2.9220774376225482,mp-1222471
KPuO3,0.0,-2.921963576199996,mp-863708
Na5TaAl3SiP5O24,3.1995,-2.92183503309686,mp-2715905
NaCa2LuSi2O7F2,1.2056,-2.9217838675363983,mp-720948
BaMg30TiO32,0.0,-2.921751209739582,mp-1040392
PrEu2SbO6,0.0108,-2.921698009166667,mp-1517311
NaLaMg14O16,5.1019,-2.921677486761853,mp-1035030
Sm3NbSe3O4,1.801499999999999,-2.921611879730114,mp-555559
Nb6O15F,0.0,-2.921534411136363,mp-734322
RbTm(PO3)4,5.4711,-2.92147121561508,mp-541168
Sr3TiRuO7,0.0,-2.921411239027777,mp-1218471
Ba5Nb2O11,2.4160999999999992,-2.921361891388888,mp-1228322
Na10Y4Ta4Si9(SO16)3,2.7204,-2.921268972807177,mp-2714110
YMg30SiO32,0.0,-2.921265972343749,mp-1037665
Ca3Ge(ClO2)2,4.1976,-2.92123895125,mp-555273
LiY(PO3)4,6.026999999999999,-2.921166557883598,mp-556861
Na2Ce2TiSi(CO6)2,0.0,-2.9210268508045982,mp-558297
Na6TaAl3Si2(PO6)4,3.1924,-2.920759557771183,mp-2715312
NdZn(BO2)5,5.162999999999999,-2.920638476960784,mp-15519
BaSrYbReO6,0.0,-2.920624487500001,mp-1227369
Ca3Si3(SnO6)2,0.0,-2.9205548273749993,mp-1330803
Sr2CaReO6,0.0,-2.920525596750001,mp-1188807
RbHo(PO3)4,5.5048,-2.9205228513095243,mp-541167
CsPr(PO3)4,5.2958,-2.920340307771848,mp-17770
Ca2YSbO5,2.9151,-2.9200001283333332,mp-1345959
SmTi4ZnO12,0.0,-2.91995105212963,mp-1518323
SrMg30SiO32,1.7525,-2.9199443545312502,mp-1039906
NaSc2Nb2P5SO24,2.3373,-2.919897654916961,mp-2716216
K2SrP2O7,4.8616,-2.919873771357142,mp-557747
Na5La3Sn(PO4)6,2.245,-2.919835963369754,mp-2713188
NaTiF3,0.0,-2.919718483942529,mp-1120777
LaBeO3,0.0,-2.9196465550000013,mp-981934
LiGd(PO3)4,3.4752,-2.91949997510582,mp-6248
BaSrMg30O32,3.5639000000000003,-2.91947029921875,mp-1038708
Sr3TbRhO6,2.1142,-2.919433923333332,mp-18705
Na9Ca5Ta7(PO4)18,2.407,-2.919421222047915,mp-2714657
KDy(PO3)4,5.4708,-2.919262523749338,mp-543036
Mg30AlBO32,2.470799999999999,-2.919215064205728,mp-1037955
K2SbF5,4.6217,-2.9191867193125023,mp-1205394
Ca2TbSbO6,3.175799999999999,-2.9191821536666662,mp-1516823
Si17O37,0.0905,-2.91909292074074,mp-1194828
LiTiNbO4,0.0,-2.919071198095237,mp-774908
CsEr(PO3)4,5.548,-2.919002533512589,mp-561712
Pr2SO6,5.1158,-2.9188715004050922,mp-1209354
Na2Sc3TaP4(SO12)2,2.9951,-2.918775612370279,mp-2712738
Na3B2PO5F4,5.6152999999999995,-2.918757017807607,mp-1197849
Mg30ZnCuO32,0.0,-2.918746302656249,mp-1037204
Ca(SiO2)5,0.9177,-2.918721804375001,mp-1233759
KTb(PO3)4,5.33,-2.918663932916004,mp-16773
Al6B5O18,0.4632,-2.918646865890805,mp-1214854
NaY2Hf2P3(SO8)3,4.1691,-2.918627103746893,mp-2716546
Ta3Ga(PO4)6,2.5732,-2.918549285314426,mp-2713800
Ba3SrMgNb2O9,0.9994,-2.9184297056250013,mp-2232695
NaLa(PO3)4,5.095599999999999,-2.9184079093028172,mp-6741
Ba3LaCl9,3.7986,-2.918367773461538,mp-771948
TiNb2ZnO8,2.4241,-2.9183172786111102,mp-1216787
KNaEuTaO5,0.018499999999999,-2.918107767884739,mp-1190133
PrSO,1.409,-2.918105473888887,mp-774472
Na2LaTa3Si4(SO12)2,2.396099999999999,-2.917998940872925,mp-2715806
Na8TaAl3Si4(PO12)2,3.177899999999999,-2.917977980420322,mp-2716147
KMg30SiO32,0.0,-2.917970751675781,mp-1040245
RbSm(PO3)4,5.2964,-2.917901648392856,mp-18255
Ba4NaGa2B8(ClO6)3,4.4113,-2.91785510485313,mp-1195176
LiLaMg6O8,5.6156,-2.917850889270833,mp-1030894
Na7TaAl3Si3(PO8)3,3.0503,-2.917847487339441,mp-2715208
CeHfMg30O32,0.0,-2.91780858015625,mp-1039949
Na12Ta10Zn2Si15(SO24)3,3.0984,-2.917776033880572,mp-2715062
BaZr2Ti3Pb4O15,2.240399999999999,-2.917692798599999,mp-1227980
Na3LaHf3Si3(SO8)3,4.1396,-2.91758294004427,mp-2714723
Ba4TiNb9O18,0.0,-2.9175820510416672,mp-1228214
Sr2TbGeO6,0.0,-2.917450849166666,mp-1520630
Rb2NaBiF6,4.9249,-2.9172050726379313,mp-560037
Mg30CuSiO32,0.484,-2.91705311078125,mp-1037328
Na2ZrTiSi2SO12,2.6344000000000003,-2.916930489750454,mp-2712525
KBa2(PO3)5,5.32,-2.916897261107143,mp-560320
Na7Mg2Zr2SiP5O24,3.7122,-2.916894900232589,mp-2715543
Na6CaHf7Si6(SO8)6,3.5544,-2.916835158557782,mp-2714874
Na10Hf4Sc4Si7S5O48,3.8409999999999993,-2.916794344717433,mp-2715836
Na2Sc2P2SO12,4.3895,-2.91667274471286,mp-2713295
La6Ti2S8O5,1.4046,-2.916625972698413,mp-554286
NaNbAl(PO4)3,2.6148,-2.9166183972393283,mp-2713177
Ba10Pr5Sn2(SbO10)3,0.0,-2.916594065366667,mp-1247909
Y2BiO2,0.0,-2.916590982000001,mp-1070510
KSm(PO3)4,5.2969,-2.916498931156746,mp-17439
KHo(PO3)4,5.3316,-2.9164901039345232,mp-554505
Mg3B7ClO13,5.7052,-2.9163460149652782,mp-23087
CsRb2InF6,4.8289,-2.916283768132184,mp-989595
Al2B3HO8,5.5664,-2.916216542232143,mp-1199198
Rb2In3F11,3.867,-2.916212411406249,mp-554576
Ba2LaCl7,4.1475,-2.916086672499999,mp-772955
LaHfMg30O32,0.0569,-2.915986516328124,mp-1039918
Na2MgPO4F,4.736000000000001,-2.915963730544608,mp-11165
Na3Mg2Nb10Si3(P5O24)3,2.1371,-2.915800734988389,mp-2715707
Sr2YbReO6,0.0,-2.915716727,mp-13941
Ba2CaReO6,0.0,-2.915715638250001,mp-12417
Cs2SbF5,4.7187,-2.915712686788796,mp-1214796
YMg30BO32,2.0667,-2.9156363187369783,mp-1037198
Na4NbAl(SiO4)3,2.6686,-2.91562779891352,mp-2716384
Na2LaScP2SO12,4.0006,-2.915419644888298,mp-2713223
Rb2SrP2O7,4.712999999999999,-2.915331958690475,mp-14354
CsRb2NbF6,0.0,-2.915322040465517,mp-1111043
KLaTiSnO6,2.674,-2.915216722058333,mp-1520157
KSrPrNbO6,0.0,-2.9152144168916663,mp-1519509
Ba9La5Cl33,3.4436,-2.9152080664893623,mp-781880
Gd2BiO2,0.0,-2.915198079999997,mp-1070662
Ca2ScOsO6,0.0,-2.915159888999999,mp-1105395
RbCeMg30O32,0.0,-2.9151561355859372,mp-1039966
NaMg30SbO32,2.812299999999999,-2.9149210884590513,mp-1039675
K2RbInF6,5.1078,-2.914890396866666,mp-1111441
Na7Ta3Zn(SiO4)6,2.3779999999999992,-2.9148729317476882,mp-2712904
YMg14TiO16,0.0,-2.914868506041666,mp-1035993
Gd2InSbO7,2.3762,-2.914811062878797,mp-1225008
SmPtF7,2.3817,-2.914746472500001,mp-17569
KUP3O11,2.323,-2.9145926099955353,mp-557505
Sr2CeBiO6,0.0,-2.9145640724999993,mp-1516784
Na10Y4Hf4Si7S5O48,3.6306,-2.91443262698239,mp-2716090
CsLaO2,2.9322,-2.914428993663793,mp-1178449
KNd(PO3)4,5.3535,-2.9144241204622743,mp-6433
K3Mg4(Si2O7)2,0.0,-2.91441090047,mp-1224150
Ba10Pr5Nb(Sn2O15)2,0.0,-2.914328864366666,mp-691043
LiLaTi4O12,0.0,-2.914281117314814,mp-1523191
Mg30ZnSiO32,1.9527,-2.91412392953125,mp-1037343
NaTaTiSi2SO12,3.2534,-2.9140565796969993,mp-2715603
K2RbNbF6,0.0,-2.914047165199999,mp-1111116
CsBa(BO2)3,4.0415,-2.913815317317138,mp-556936
RbLaMg30O32,3.5797,-2.913797100351562,mp-1040029
Mg30NbCuO32,0.357399999999999,-2.9137970542187492,mp-1037239
RbY(PO3)4,5.4849,-2.913778739503968,mp-1020656
KPrO2,3.6626,-2.913740302229166,mp-4519
Mg30AlSnO32,0.0,-2.913738909765624,mp-1038258
Ti3O7,0.158699999999999,-2.913736122499999,mp-1179358
NaCa6Ti(Si2O9)2,0.2619,-2.913728046823754,mp-1210346
TaAgF6,3.554999999999999,-2.913713846541668,mp-29993
CsEuPO4,1.0284,-2.913644204899719,mp-1213376
K6Nb11O30,0.0,-2.913624826138298,mp-863370
Cs3LiF4,5.7232,-2.913594249583333,mp-559766
Rb3MgNb5O15,2.006599999999999,-2.913582537812499,mp-1220125
Sr2TiSbO6,0.0,-2.913536672333333,mp-1520180
Na8Ca3Hf(PO4)6,3.5940000000000003,-2.913531495370436,mp-2714953
Na42Mg8Ta16Si33(SO48)3,2.7953,-2.9134497466575793,mp-2714379
BaMg30ZnO32,3.2977,-2.913395161249999,mp-1037611
Nb3Al(PO4)6,2.7708999999999993,-2.9133888902310923,mp-1220763
NaTi4P5SO24,2.0155,-2.913380679012199,mp-2716170
Na2Nb5Al3(PO4)12,1.8635,-2.913368330835328,mp-2713754
CsUP3O11,2.3621,-2.913354760848983,mp-572741
Li2Nb4O11,2.5678,-2.913297645980392,mp-772073
Ca5TiSn4(BO3)10,3.091999999999999,-2.9132177983,mp-1227225
Gd2MgIrO6,0.0,-2.913214504,mp-1188236
Na2SnF6,4.9677,-2.913188685555555,mp-8081
SmGaO3,2.872,-2.912901177499999,mp-978504
Sr3YRhO6,2.1512,-2.9128829527272733,mp-18498
Na7CaNb3(SiO4)6,1.9058,-2.912831513650126,mp-2712957
UCdO4,1.9644,-2.9127084716666642,mp-545598
Na4LaAlSi(PO6)2,3.8947,-2.912567448403315,mp-2714351
Li2AlBO4,5.0344,-2.912557411354166,mp-556655
Nb14AgO36,0.229199999999999,-2.9124057884640533,mp-1210596
Sr3GeO5,2.698599999999999,-2.912376178888889,mp-1101351
SrPrInO4,3.2238,-2.912373404047618,mp-1218169
K5Na3Ta3Nb5O24,1.4641,-2.912188565309698,mp-1076512
CsY(PO3)4,5.5193,-2.9121688374014782,mp-1019725
Na6Hf4Ti4Si7S5O48,1.734999999999999,-2.912125664717693,mp-2712849
CsBe4Al4(B3O7)4,0.0,-2.91210030468684,mp-540725
HfMg30NbO32,0.0,-2.911997226874999,mp-1038548
KMg30BO32,4.0212,-2.91193930353776,mp-1040205
NaSiBO4,5.7780000000000005,-2.911890841506568,mp-558181
La2MgTi2(AgO4)2,0.0,-2.911888947,mp-2232516
BaMgAgF7,0.4246,-2.911876106166666,mp-1041232
YMg30SnO32,0.0,-2.911872908828125,mp-1037731
Ca2MgAl2Si3O14,0.006399999999999,-2.911845012045453,mp-1214260
Nd2SbO2,0.0,-2.911819500999996,mp-1220313
Sr2GeO4,3.6821,-2.911548753571428,mp-557311
KPr(PO3)4,5.3956,-2.911510364304894,mp-1200142
CaHfMg14O16,0.0,-2.911492839999999,mp-1036329
CaEuGdSbO6,0.210599999999999,-2.9114742825000013,mp-1516953
SrEuTiInO6,0.0,-2.9113597855,mp-1519580
Sm2MgIrO6,0.0,-2.9113213140000003,mp-980108
CsGdO2,2.4891,-2.911224106163794,mp-755651
Na2Hf8Si5S7O48,3.0906,-2.9111455087894083,mp-2716151
Mg30TiSnO32,0.093499999999998,-2.9110441707552073,mp-1036721
RbGd(PO3)4,3.4649,-2.911017439642857,mp-561138
Na7Y3Zn(PO4)6,4.2018,-2.910969974329569,mp-2714292
Na2CaZr3P4(SO12)2,3.0657,-2.91092298860176,mp-2712703
Ca5Ge3O11,3.3456,-2.910897137631578,mp-774105
Na7Nb2Al2Si5PO24,2.5489,-2.91088167205605,mp-2714444
K4U(PO5)2,1.7849,-2.910843327252099,mp-559639
Na5Ca2Ta2SiP5O24,2.4264,-2.910802839267799,mp-2715971
Na9Ca2Nb4Si6(PO12)3,1.9659,-2.9105674590501502,mp-2715273
Na14Ca2Zr6Si9(SO16)3,3.1703,-2.91056333331476,mp-2714653
Na3Nb12O31,0.0,-2.910537854111695,mp-1221379
Ba8ZrNb19O36,0.0,-2.91033916,mp-1228755
K4Na2(Si2O5)3,4.1851,-2.910333968583653,mp-542686
BaEuNbInO6,0.681,-2.910310048166667,mp-1521186
AlTl2F5,4.0476,-2.910299935624998,mp-1539038
Na3NbAlSi2PO12,2.318599999999999,-2.9101680425223733,mp-2715510
Ba2ZrInO6,0.0,-2.910161960666667,mp-1228073
Cs2RbBiF6,4.7749,-2.9101303966810352,mp-559695
Na2Nb4O11,2.661299999999999,-2.910097219868153,mp-1202153
NaCaBO3,3.8471,-2.910027832590996,mp-1221129
CsGd(PO3)4,3.418299999999999,-2.9099685518459233,mp-573001
K2TiAgF6,0.0,-2.909961143949999,mp-1112274
Na2GeF6,5.7875,-2.9099138262962962,mp-17297
Na3Nb2Al2SiP5O24,2.4755000000000003,-2.909785035243754,mp-2712955
Ti3H2O7,2.8727,-2.909775419791665,mp-626550
Ti2(PO4)3,0.0,-2.909770673270307,mp-774537
Mg14AlCuO16,0.6041000000000001,-2.9097517825,mp-1036652
Na4LaNb3Si5SO24,1.9459,-2.9097233337197532,mp-2715126
Cs3Ba4C3O9F5,4.7611,-2.909678706206897,mp-1181689
NaMg30BiO32,3.4241,-2.909673009084051,mp-1039742
Na30Ca4Nb20Si33(SO48)3,2.15,-2.909643133221707,mp-2716571
CsAlAgF6,0.0,-2.909561039591315,mp-561999
CaMg6TiO8,0.124199999999999,-2.9095582820833332,mp-1032964
KY(PO3)4,5.3607,-2.909517903101189,mp-541495
Na5Li3Ti5O14,3.1413,-2.909459797539378,mp-774609
Na8Be3Si9(ClO12)2,3.9839,-2.909454006435532,mp-40201
KAlO2,3.999399999999999,-2.909401789781249,mp-5525
Na7Ca2Ta2Si3(PO8)3,2.6769,-2.909382959550823,mp-2714858
CaGaBO4,3.9612,-2.909375737738095,mp-557855
Na5Y3Ge(PO4)6,1.795799999999999,-2.9092896371731722,mp-2713532
KMgPO4,4.7791000000000015,-2.909216694198978,mp-558795
Na9Mg5Ta7(PO4)18,2.4042,-2.909182818759628,mp-2714647
Li2Al(BO2)5,5.6317,-2.909059632222222,mp-557177
SrMg30SnO32,1.7466,-2.908932506640624,mp-1036672
NaLa2Hf2P3(SO8)3,3.7713,-2.90889439231832,mp-2716536
Na8Hf3ZnSi5SO24,3.5263,-2.908881506314313,mp-2715639
KNdTi4O12,0.0,-2.908848321004631,mp-1522391
Cs2LiF3,5.71,-2.9086487948611133,mp-553988
LiCe(PO3)4,0.3603,-2.908629536216931,mp-1205078
LaCd(BO2)5,4.4529,-2.9086101959313733,mp-14555
ZrOF4,0.223999999999999,-2.908557012499999,mp-728474
Na5Nb2Al2Si3(PO8)3,2.4279,-2.908507907542525,mp-2714054
Na2NbAlSi(PO6)2,2.4298,-2.908425427300579,mp-2712583
KPrTi4O12,0.0,-2.908299736791666,mp-1517120
KGd(PO3)4,3.482599999999999,-2.9082961110178562,mp-559799
MgBiF6,0.0,-2.9082805181249998,mp-1383723
NaTi2(P2O7)2,0.0,-2.908262931743685,mp-1220935
Na8La2Ti2Si5SO24,2.3899,-2.908234405203203,mp-2716273
Ba2Na7Ti16Bi7O48,2.4513,-2.9081286101623562,mp-720079
TiO,0.0,-2.907956279166666,mp-1071163
RbSbF6,4.8849,-2.907923034687501,mp-9821
La2ZnSnO6,2.9267000000000003,-2.907802132499999,mp-1408168
ScInO3,2.1982,-2.907754082333332,mp-768358
NaSmCu2F8,0.7743,-2.907717778864942,mp-1209940
NaPF6,7.0251,-2.9074881047470242,mp-10474
BaTe2F10,4.8686,-2.907432135641024,mp-29177
La3NbGa5O14,0.0,-2.907260194021739,mp-1211276
KSmTi4O12,0.0,-2.907077365310185,mp-1522449
Mg14TiAlO16,0.0,-2.907061824479166,mp-1036557
Na3Ce(PO4)2,3.5264,-2.906862519798116,mp-556334
NaSrHfSbO6,3.2996,-2.90684989713793,mp-1518616
Y4GeO10,0.0,-2.906843370333334,mp-1216141
Nb3ClO7,2.0588,-2.9067661865909122,mp-29698
CsMgPO4,4.4168,-2.906715185971147,mp-18329
CsMg30AlO32,3.166799999999999,-2.906620597025861,mp-1038225
TiNb3(PO4)6,0.0,-2.906519749740896,mp-774535
Ba2Zn(BO3)2,3.332799999999999,-2.90650200871212,mp-559138
Na5Sc3Ge(PO4)6,2.3099,-2.906498331745822,mp-2716456
Na2Zr4Ta4Si7S5O48,2.4188,-2.906420828946552,mp-2715688
KNaSi2O5,4.5364,-2.906399697347701,mp-557679
Ca11(ReO6)4,0.0,-2.90627010025641,mp-29532
Mg30TiBO32,0.5093000000000001,-2.906259279257812,mp-1040308
Na14Sc4Ti4Si9(SO16)3,2.0795,-2.90613849416842,mp-2715142
Sr3Ge2(B3O8)2,4.4323999999999995,-2.9060177020370372,mp-1020650
Nb9AsO25,2.2043,-2.906015046071429,mp-1220584
Na14Hf3Mg5(PO4)12,4.5385,-2.9059745070734713,mp-2714180
BaSmC2O6F,4.295999999999999,-2.90590646818182,mp-15073
Ba3Zn2B3O9F,3.381099999999999,-2.9058945880555562,mp-1195688
NaTb(PO3)4,5.8442,-2.905890864673188,mp-1200709
SrEuZrSbO6,0.0,-2.905880922499999,mp-1518145
NaUO4,0.0,-2.905835145229883,mp-1077494
CsSi3HO7,5.0187,-2.905829124033764,mp-758180
Tb2RuO5,0.113599999999999,-2.905700483541666,mp-1208606
Ba4La2SbRuO12,0.7580999999999991,-2.9055721340000003,mp-1228220
Nd3Ga5O12,3.259,-2.9055332575,mp-15239