formula,bg,formation_energy,mp-id
Ti2AgBiO6,1.412,-2.464096025833334,mp-1217194
Ce3NCl6,0.0,-2.4640615686249983,mp-667362
NaMgNbSi(SO6)2,1.0228,-2.463951118132184,mp-2712606
Na2ScInSi(SO6)2,3.2112,-2.463893558215366,mp-2713221
CaZnSiH2O5,3.639999999999999,-2.46385951625,mp-696853
Na4Ca2Al2SiS5O24,3.234099999999999,-2.463852035079401,mp-2713422
Ba9(AuO6)2,1.8544,-2.463638764021739,mp-28788
Ba4In2O7,1.4717,-2.46355127025641,mp-757745
Na18Ca20Nb4Si3(S11O48)3,0.5562,-2.46351213951499,mp-2713586
LaYS3,0.7897999999999991,-2.4634352734375,mp-1200447
Na14Mg2Si9Ge6(SO16)3,1.955099999999999,-2.463413647623704,mp-2714621
Na4Mg3ZrSiS5O24,3.066099999999999,-2.463408979596945,mp-2713459
NaCa2B9(H2O5)4,5.342700000000001,-2.463367042971983,mp-722342
GeF4,5.500500000000001,-2.463361219999999,mp-9816
Rb2LiHoCl6,5.1901,-2.463324960333332,mp-1205883
Ba2Sb2O7,1.291199999999999,-2.463259181363635,mp-752404
K2CuSbF6,0.8543000000000001,-2.46324798345,mp-1110839
KB2SbO6,2.9208,-2.4632320875583322,mp-1105367
HfInP(SO6)2,3.845099999999999,-2.463097239978991,mp-2712923
LiBiF5,0.0,-2.462966716309531,mp-752483
K4UC3O11,2.0892,-2.462947380210524,mp-6194
SmSeClO3,4.4293,-2.462941755390624,mp-554063
Sr8SnPb3O16,1.4655,-2.462909186607142,mp-1218629
Li4Ti3Sn5O16,0.5830000000000001,-2.4629035938690462,mp-754822
TbBi2ClO4,1.3439,-2.462889460833334,mp-547125
NaHfZnP(SO6)2,4.207999999999999,-2.462888411075305,mp-2714586
Li8ZrO6,4.7984,-2.46284939711111,mp-755225
Na5Ca2In2P3(SO8)3,2.6471,-2.462826616410046,mp-2714662
NaScInP(SO6)2,3.5723000000000003,-2.4627820563530842,mp-2714607
Li2Bi3P9O28,4.024,-2.462716638772675,mp-759696
KSiO3,0.0,-2.462709077199999,mp-1199261
Cs2LiPrCl6,4.7971,-2.462699099431034,mp-1111836
Na4MgSi2GeSO12,1.5535,-2.462688753318282,mp-2714387
Rb2LiDyCl6,5.1062,-2.462603035999999,mp-1113980
Sr2Nb2Bi3BrO11,0.0,-2.462570227894738,mp-1218780
EuS,0.0,-2.46256579390625,mp-20587
Rb2B10H6O19,5.7894000000000005,-2.462523540382882,mp-698164
SrLaTa2(NO)3,1.1562,-2.462502115966667,mp-694929
NaB10Pb4Cl2O19,1.2992,-2.46249988994572,mp-1221108
CsAlH4(OF2)2,6.321099999999999,-2.462488051637931,mp-1191186
Cs2RbCeCl6,4.1198,-2.462440544681034,mp-1112520
Na2Ca2(CO3)3,4.788699999999999,-2.462403052047414,mp-557391
K2LiTi2(AsO5)2,0.0,-2.462361621735294,mp-772826
Na3Ca8Nb4P3(S5O24)3,2.1927,-2.462355842481586,mp-2714279
AlTl2OF5,0.0,-2.46234092851852,mp-1182863
Sr4MgIn2(SbO6)2,2.1995,-2.462328699444445,mp-2220769
Ba2PrMgRuO6,0.0,-2.46231077969697,mp-2217289
Ba2CdReO6,0.0,-2.46229983225,mp-551702
NaMgSc(SO4)3,4.288799999999999,-2.462255777159962,mp-2714261
Li6B3SbO9,3.6337,-2.462217343947369,mp-769411
LaLuS3,2.232199999999999,-2.46214010452083,mp-1106374
Na5HfGa3Si3(SO8)3,2.9983,-2.462136655775125,mp-2716432
K3Er(SO4)3,5.3384,-2.462116730749999,mp-1205074
Al12Si12Ag16S5O48,0.0,-2.462017470905016,mp-1248193
LaHoS3,0.758799999999999,-2.4620139324375,mp-1200097
K2B10H6O19,5.7646,-2.461983183612612,mp-1205077
KSbP(O2F)2,0.053099999999999,-2.4617329127103162,mp-730422
Cs2NaCeCl6,0.3601,-2.461676563068965,mp-1079458
Rb2Li4UO6,2.1266,-2.4616499721794862,mp-1209477
Rb2LiTbCl6,5.0624,-2.4614929005,mp-1113974
ZrSnH4NF7,4.034,-2.461433975178571,mp-1203170
Na2LiCu(PO3)4,2.2133,-2.461377702233169,mp-1176393
TiNF,0.6598,-2.461360877777778,mp-1071956
NaLa2Ge2P3(SO8)3,1.4174,-2.461319318889749,mp-2716508
Mg6CdSiO8,3.5345,-2.461233490624999,mp-1030825
HfSiSn(SO6)2,2.3525,-2.461208021470589,mp-2713420
Rb2Nb3Cl7O5,2.2762,-2.460980845294118,mp-558393
Na5Ca2Mg2PS5O24,4.5131,-2.460969856300156,mp-2713584
Na3RhF6,2.0631,-2.460931077,mp-1114259
Rb2NaDyCl6,5.1403,-2.4609179838045923,mp-1114023
HfP2H4O9,5.4914000000000005,-2.460893436674107,mp-697652
K4US3O14,1.8491,-2.460849010806817,mp-653182
BaP2O5,0.780899999999999,-2.460707464285714,mp-1214387
Na6Ti4In4Si5S7O48,1.128,-2.460696561812286,mp-2715992
Sr6Bi2O11,1.1426,-2.460687109736842,mp-675103
Na3Al2Ga2P3(SO8)3,4.1326,-2.460650565195491,mp-2713852
YbNb(PbO3)2,0.0,-2.46058168175,mp-1215661
NaB2HO4,5.2923,-2.460541837385954,mp-706489
Na5ZnSiGe3P5O24,2.0946,-2.4604724285071162,mp-2715997
TiOF5,1.5871,-2.460329842261905,mp-731850
YCO4,0.0,-2.460221440833333,mp-726614
Na6Ca8Nb4Si3(S5O24)3,0.0342,-2.460113620284962,mp-2714329
CaTa2Ga2(CuO4)3,0.480299999999999,-2.460019221108334,mp-694913
Cs2Sr2(CO3)3,4.6235,-2.459752843394398,mp-866617
PrMg(ReO4)2,0.0,-2.459746820138888,mp-2240858
Ba4NaCu(CO5)2,0.6334999999999991,-2.459740442854406,mp-6841
La3S4,0.0,-2.459690917321428,mp-567
Si2As2O7,4.5533,-2.459652085,mp-770811
La6Cu6O17,0.0,-2.459550606034483,mp-772159
Rb2NaTbCl6,5.1216,-2.459523704304597,mp-1114015
Ba3Li(AsO4)2,0.0,-2.459523221309524,mp-1235212
Na6Ca7Ti(SO4)12,1.9961,-2.459471703129854,mp-2714925
Na10Ca4Al4Si3(S3O16)3,2.9801,-2.45915505070034,mp-2714883
KRb2GdCl6,3.253,-2.459143542224999,mp-1114037
Na8Mg3Si3Sn(SO8)3,1.701899999999999,-2.459139544449235,mp-2714921
LaTmS3,0.7541000000000001,-2.459111309437497,mp-1199053
YAl(SO4)3,5.0684,-2.4590641644607842,mp-2713858
Ti3ZnP2(SO6)4,2.1418,-2.459033060567228,mp-2713111
Sr4La13Cu17O35F16,0.0,-2.458975183176471,mp-1173243
Li2Hg(PO3)4,3.3346,-2.458917780275689,mp-559070
SmGeO3,0.0,-2.458910103,mp-978926
KYP2H4O9,5.018,-2.458884927443278,mp-1211914
MgAlO2F5,0.395899999999999,-2.458742468888888,mp-1189240
B10(Pb2O7)3,3.259,-2.458742290180167,mp-27184
Nb2Cd2O7,1.9353999999999991,-2.458725366363637,mp-560530
Tb2MgCu(GeO3)4,0.0,-2.458704513416665,mp-2230010
Sr4Mg(SO4)4,1.3292000000000002,-2.458696559399999,mp-1233978
GdSeClO3,2.993,-2.458681240390625,mp-556551
Na6Ti2Zn2Si3(SO8)3,0.289899999999999,-2.45867592160273,mp-2716250
InBO3,2.6556,-2.458591821166667,mp-7027
KLi2BO3,4.004,-2.458561459011904,mp-558628
Na4La2Si3Ge2(SO8)3,0.0,-2.458555119596945,mp-2713321
SrHClO,4.9798,-2.458535836562499,mp-24066
Li2In(PO4)2,0.135599999999999,-2.4585332809706952,mp-1210850
Sr5As5HO18,3.262,-2.458472760905173,mp-709350
BaGe2O5,2.7735,-2.458447519375,mp-558184
Dy2Pt2O7,1.5345,-2.4584393239393942,mp-1178365
Na3InGe3(PO4)6,2.426799999999999,-2.458360172801669,mp-2714774
Sr2B11HO21,0.0,-2.4583551282023812,mp-1209355
Li3Sn3(PO4)4,0.2619,-2.458342993598901,mp-757551
NaCdIn2(PO4)3,3.0268,-2.458226465981116,mp-1173705
K3Bi5(PO4)6,4.0925,-2.458142991305451,mp-565692
MgTa2(CuO4)2,0.3933,-2.45806495651282,mp-1040927
Li3Sn(BO3)2,1.7877,-2.458044073611111,mp-770286
Na8In2Si5Ge2SO24,2.6036,-2.457970516234948,mp-2715779
Na14Ga4Si9Sn4(SO16)3,2.517999999999999,-2.457966215062728,mp-2715181
Ca2PrGaCu2O7,0.0,-2.457869006858973,mp-1214167
NaLaMg(SO4)3,4.9301,-2.457848156697,mp-2714164
Na10Nb2Ga6Si7S5O48,2.3735,-2.457820660337092,mp-2716002
ErSCl,2.9329,-2.457800981215276,mp-27616
KCaPO5,0.0,-2.457791800861607,mp-1106014
Mg3(AsO4)2,3.0315,-2.457776142692307,mp-758196
Ba5Ru2Br2O9,0.4718,-2.457761265555556,mp-558725
Na2Cu(PO3)4,0.8701999999999991,-2.4577612008594762,mp-557171
HfMg(SO4)3,4.8165,-2.457742962990197,mp-2713884
Li6Sn5(P2O7)4,2.6782,-2.45773508855623,mp-765227
Ca3Ge3(BiO6)2,2.981499999999999,-2.4576771651250002,mp-1338560
CdF2,2.8977,-2.457565739999999,mp-241
Ti3Nb(CuO4)3,0.0,-2.457461196842105,mp-757045
MgNb2(PbO3)3,2.2264,-2.457446984666667,mp-2665147
Sm4Mg(Cu2O5)2,0.0,-2.457431749210527,mp-2230645
Rb4UC3O11,2.167799999999999,-2.457306784736841,mp-1209486
Na2Ti6Zn2Si3(S3O16)3,1.4079000000000002,-2.457258833717981,mp-2716558
Al2GeO6,0.0,-2.4571536438888892,mp-1197018
KSb(PO4)2,2.955899999999999,-2.456911683044642,mp-554155
Na2LiIrF6,2.1677,-2.4568463185666682,mp-1114239
Ca2ZnP2(H2O5)2,4.6954,-2.456841777593985,mp-1214144
Rb2LiYCl6,4.9273,-2.456822779833333,mp-1110679
Nd3NCl6,3.445,-2.456779562374993,mp-570061
Mg3Si2O9,0.0,-2.45668859125,mp-1210918
Na5Mg3GeP3(SO8)3,1.7695,-2.4566862857262852,mp-2714720
Nb2Sn2O7,0.9544,-2.456659464090909,mp-556524
Ba2SrIrO6,0.0,-2.4566585610000002,mp-9115
NaNbZnP2SO12,1.950199999999999,-2.456638984064725,mp-2712539
BaGa2(GeO4)2,3.246499999999999,-2.456564405961537,mp-540585
Na2TaIn3P4(SO12)2,1.898,-2.456479901675835,mp-2712649
Gd3Se4O12F,2.7821,-2.4563521654687492,mp-559447
MgTi2(GeO3)2,0.0,-2.456341210151516,mp-2217298
CeNbO2,0.0,-2.456131698124999,mp-1213786
Rb2LiGdCl6,2.8184,-2.4561255718333332,mp-1113979
CuB4O7,0.1935,-2.456103448888888,mp-555093
AlAsO4,3.865,-2.456086594583332,mp-5189
K3NaNp4H4(S2O13)2,0.4573,-2.456045820669747,mp-1199989
K3Cu2F7,0.0,-2.455987015562499,mp-20982
U3O11,0.0,-2.455983108571426,mp-1193479
CdP4O11,4.470400000000001,-2.4558672525669643,mp-772228
Ti4Cd(CuO4)3,0.0,-2.455855152166667,mp-504862
ScTlO3,1.2891,-2.455815971666668,mp-752429
Ba6Na2As2Ru2O17,0.353,-2.455788770612366,mp-554687
MgNb2In2O8,0.9346999999999992,-2.455611246794871,mp-2218691
SnP4O11,4.5708,-2.455569728191964,mp-767114
Li2PrO3,0.0,-2.455528212222222,mp-5446
NaY3Zn(SO4)6,4.670599999999999,-2.455432480563219,mp-2714889
InSb(P2O7)2,2.9879,-2.455405933011904,mp-1196350
SrAl3P2(HO2)7,5.0763,-2.455293489556877,mp-42458
Rb2NaYCl6,5.1042,-2.45517472363793,mp-1110696
Na2NbGa3P4(SO12)2,2.0211,-2.455141394319354,mp-2712809
Sr2PrGaCu2O7,0.0,-2.4550767803205122,mp-541331
SrTcO3,0.0,-2.454968539500001,mp-1188414
Cs2YbCl5,0.0,-2.454932038124999,mp-1213746
Ca3TlO5,0.0,-2.4548152564814822,mp-1214010
CaZn2Si2HO7,2.064,-2.454597664711538,mp-1213903
Rb3LaCl6,4.5141,-2.45459618775,mp-1114627
Nb2P4H3O16,0.0,-2.454533122492856,mp-770824
K2SbSO4F3,4.932799999999999,-2.45447916790909,mp-554643
CaHClO,5.3294999999999995,-2.4544680165624992,mp-642725
Cs2TmCl5,5.0095,-2.454417691562499,mp-1213743
Nd2Cu2O5,0.0,-2.454337211666667,mp-21025
ZrTlO3,0.0,-2.454293249666669,mp-1183044
In4P6Pb2O23,3.7106,-2.454213285129251,mp-1224124
CaAl2Si4O15,0.1402,-2.454156967954545,mp-1227551
Na4LuC3O9F,4.511100000000001,-2.45413275428799,mp-1194756
La2P3(HO2)5,4.496,-2.454081355508928,mp-1196855
EuAsO4,0.0,-2.453927178750007,mp-13576
KCaPrSbO6,0.0,-2.453891457891666,mp-1520016
BaSrBiSbO6,1.781899999999999,-2.453847309500001,mp-1518348
NaLa3Zn(SO4)6,4.235,-2.453804436896552,mp-2714703
Na9Ca11Ta(SO4)18,2.032,-2.453759644817542,mp-2715202
SrGa2(GeO4)2,3.0761,-2.453666516153845,mp-540621
Na6Ca3Si2Ge(SO6)4,1.714,-2.4536582734985632,mp-2712601
Ba2Sb4P2O17,2.0667,-2.453637317571428,mp-554481
Al2P2NO8,3.667,-2.4535991360989002,mp-1214928
K3NaUC3O11,2.1483,-2.4535804580594363,mp-557407
Cs2Ba2(CO3)3,4.3381,-2.453567828394397,mp-558539
Rb2NaGdCl6,2.7110000000000003,-2.453550768637931,mp-1114019
Na6CaSi4Sn3(SO12)2,1.2063,-2.45347615979023,mp-2714433
Li6PBrO5,5.1094,-2.453378781895604,mp-1103940
Cs4UC3O11,2.0837,-2.4533525801905602,mp-573096
SrNdZnRuO6,0.0,-2.453259790249999,mp-1218066
Na2Hf4Ga4Si3(S3O16)3,2.2875,-2.453252199289409,mp-2716555
USiO3,0.0,-2.453244832999998,mp-1187767
RbRuF6,1.1801,-2.4532000946875,mp-8014
NbTlO3,0.955,-2.453145602916668,mp-757636
Na6Ta2Zn4P6(SO12)3,2.978,-2.453126344707013,mp-2713304
Na6Ca16Ta8Si3(S11O48)3,0.6617000000000001,-2.453056250925917,mp-2714203
Ba2BiSbO6,1.6958000000000002,-2.453007172999998,mp-23127
RbBa2Br5,4.364,-2.452842688125,mp-1209437
CsBPb(IF2)2,2.7223,-2.452744493202427,mp-1004530
KGdP2H4O9,3.2745,-2.452588589649159,mp-24277
Nd2As4O9,3.342099999999999,-2.452501396333333,mp-555063
Na6ZnGe7(PO4)12,2.582,-2.452393150076443,mp-2716522
Cs2CuBiF6,1.162299999999999,-2.4522597508750072,mp-1110978
Cs2KScCl6,3.7113,-2.452173358156034,mp-571124
Na3Pr5Cl18,4.411,-2.452118016666667,mp-676095
Na30Mg20Ta4Si9(S3O16)9,2.2993,-2.4520529405692852,mp-2714650
Na14Ca5Si6Ge3(SO8)6,1.1176,-2.45193633804037,mp-2714079
Mg2Si2O5,1.653399999999999,-2.451927216111112,mp-1185778
Mg6AlBiO8,1.337199999999999,-2.45187369875,mp-1033073
Cs2DyCl5,4.8906,-2.451739208125001,mp-540695
Cd2P6O17,4.4138,-2.451668246914286,mp-29276
Na3Ca2Sn2P3(SO8)3,2.4409,-2.451660114069365,mp-2713939
Na4Ta2Zn2Si3(SO8)3,1.1923,-2.451421514982911,mp-2713702
La3Ir3O11,0.0,-2.451199532794116,mp-9612
Cs2ErCl5,4.9539,-2.451185341979165,mp-1214000
Na4Mg2Si(SO6)2,3.6343,-2.451185190024631,mp-2713104
Li3CuB3O7,0.435399999999999,-2.451169335535713,mp-1194301
Th2SbNO,0.220699999999999,-2.450983603999998,mp-1217259
KHfSnSbO6,2.857999999999999,-2.450963136224999,mp-1522710
Li2CuP2O7,0.0,-2.450907211746031,mp-6412
Na14Ca6Si5Ge2S7O48,0.0,-2.4507959233960612,mp-2715854
KRb2SmCl6,4.796,-2.450773727725,mp-1114033
NaSrTiBiO6,0.6261000000000001,-2.450685473471265,mp-1522682
Sr2TaAlCu2O7,0.0,-2.450535957102563,mp-1046620
Na6ZrZn3P4(SO12)2,3.897199999999999,-2.450330463212849,mp-2712810
Ti2Nb2(CuO4)3,0.0,-2.450323868245615,mp-756799
K2UAs2O9,2.4207,-2.4502032006785712,mp-558707
Cs2YCl5,4.701499999999999,-2.4500347315625,mp-1213783
Sr4Ru2O9,0.0,-2.449992044333344,mp-36836
BaCuCO3F2,0.4303,-2.449935235624999,mp-556030
CaAgF5,0.0,-2.449929219523806,mp-1777514
Ba2CuClO2,2.3029,-2.449774615,mp-551456
Li3Cu2F7,0.615,-2.449759603333332,mp-760002
Tb2Pt2O7,1.3579,-2.449571400757576,mp-754768
Na4Ca3GeP2(SO6)4,1.2253,-2.4493398007842893,mp-2713529
Ba2YBr7,3.8664,-2.449319338,mp-752620
SnP2PbO8,3.769999999999999,-2.449247168482141,mp-22821
Na8Mg3Si3Ge(SO8)3,1.36,-2.449241600242885,mp-2715151
Nd(BO2)9,0.0251,-2.449157482410715,mp-1200214
P2O5,4.8374,-2.449045707040817,mp-2173
InP3Pb2O11,4.0204,-2.44898358547619,mp-1203117
BaNbNO2,0.0,-2.448951493,mp-1227828
Al2P3(HO3)3,6.2699,-2.448946845745798,mp-23995
Li6Bi3P8O29,0.0,-2.448919025046584,mp-26327
YBi2ClO4,1.3088,-2.448777372500001,mp-552604
Na4ZnSiGe(PO6)2,1.334,-2.4487369009429982,mp-2714417
KTiSi3O11,0.5903,-2.448725673317708,mp-1211776
Na9Ca11Nb(SO4)18,1.4388,-2.44871574898571,mp-2714973
BaNp(HO2)3,1.458699999999999,-2.448658155681818,mp-1190517
UPdO3,0.6282000000000001,-2.448655744999997,mp-1187714
Na10Ta2In6Si7S5O48,2.1113,-2.4485957179396562,mp-2715895
B8H4PbO15,4.763299999999999,-2.448575631101189,mp-1200630
Na9Nb7Zn5Si9(SO8)9,1.4506,-2.44854426603526,mp-2714671
Y2C(NO)2,3.9661,-2.4484711107142862,mp-546864
KNbPCO7,0.4349,-2.448467077444805,mp-767415
Nb2ReO8,0.0256,-2.448407934318182,mp-1048542
KNaAl2As2O9,3.4455,-2.448242912741954,mp-1203514
Sr2Cu(ClO)2,0.0,-2.448147261428572,mp-23102
LaErS3,1.135899999999999,-2.448090529833332,mp-558977
Na5NpO6,1.4031,-2.448083608803877,mp-1095270
Na2InGe(PO4)3,1.8907,-2.4480622534221332,mp-2713554
Rb2LiSmCl6,4.918699999999999,-2.4479876173333333,mp-1113973
CdSb5OF28,0.0242,-2.44791595742857,mp-1198900
Na8Zn3Ge(PO4)6,1.552599999999999,-2.447803513743451,mp-2714983
NaYSiSn(SO6)2,1.1598,-2.447784405261814,mp-2712545
LaSnO3,0.0,-2.447777261000001,mp-1185122
Sr2Ti2Sb2OF2,0.0,-2.447743253518519,mp-1079717
Bi3O2F5,3.2849999999999993,-2.44773530625,mp-759405
Mg3NbO4,0.0,-2.447695585624999,mp-1023920
Ba4CaCu2CO9,0.134799999999999,-2.447661500000001,mp-1228203
TiZnO2,0.0,-2.447648077708333,mp-1048253
KEu(GeO3)2,0.0,-2.447549360225001,mp-1097997
Na14Mg4Si7Sn4S5O48,1.6863,-2.447332416058663,mp-2715757
CaEuInSbO6,0.0,-2.447297563166667,mp-1522875
Li10Sn(PO6)2,3.272599999999999,-2.447264314704762,mp-721238
Zn2SiO4,2.7537000000000003,-2.44712343857143,mp-3789
NbSi4O13,0.149599999999999,-2.4471152825,mp-1196756
Na21Nb2Zn10P15(SO24)3,2.1892,-2.446984782691938,mp-2715951
Na2YZnP(SO6)2,3.7691,-2.446963358810604,mp-2713456
K3BePCO7,4.0032,-2.44688432779945,mp-772780
Rb3PdF6,0.0,-2.446851288249999,mp-1113827
Na3Nd5Cl18,4.3701,-2.446822063942309,mp-675555
Ba5Ru2ClO9,0.0,-2.446722835882353,mp-561481
Li3Eu3(TeO6)2,0.0836,-2.446698585166667,mp-1211152
Na6Ta3In5Si6(SO8)6,2.0237,-2.446664752728954,mp-2716329
Na6Al2In2Si3(SO8)3,2.2778,-2.446619335186064,mp-2716129
Sr2SmMgTa(CuO4)2,0.0,-2.446582755822222,mp-2232379
NaMg3O4,0.0,-2.446547097047413,mp-1024037
Na8Ca2Ga2Si3(SO8)3,1.9727,-2.446397850520663,mp-2714959
Ti2P2O11,0.0,-2.446387160730159,mp-1193635
Li7Cu(SiO4)2,1.1318,-2.4463451954629623,mp-860886
K2Nb3Cl7O5,2.3144,-2.4463073990882362,mp-559790
Na3YSi3(HO2)6,4.9797,-2.446149798865517,mp-1210458
Li6Sn2B4SO16,3.512799999999999,-2.446102053764368,mp-769001
Na2Y3Te4(ClO4)3,3.6276,-2.446068535184388,mp-1197762
Eu2HgO4,0.0,-2.446053944642859,mp-1212953
Li3IrF6,2.0124,-2.446010453024999,mp-1237975
BaLaBr5,2.888,-2.44594314,mp-754494
ZnSnF5,0.0,-2.445867169821405,mp-1402445
Li2ZrCuO4,0.0,-2.445841007083332,mp-754213
ScP2NO8,1.7395,-2.445811504732142,mp-1197327
LiSn2P5O16,0.0,-2.44570885048115,mp-673029
LaAl(SO4)3,4.566000000000001,-2.445689396911766,mp-2713959
Na2Ta4In4Si5S7O48,1.8052,-2.445680452017981,mp-2716212
Li8TiO6,3.9847,-2.445641585,mp-772521
LiBiB2O5,3.352,-2.445634085740741,mp-768795
Mg3(HO2)2,3.7698,-2.445613569166666,mp-30243
Sr3Ca(CuO3)2,0.0,-2.445590899166667,mp-1218473
Na3Ca5Ta(SO4)9,2.3959,-2.445507701740208,mp-2714200
SrEuSnSbO6,0.0,-2.445501523,mp-1521767
Ba3NaRuO6,0.528099999999999,-2.445419504216302,mp-9745
Sr2BiSbO6,1.9364,-2.44537260275,mp-1518287
CsTmSeCl2O3,4.3242,-2.445299673062367,mp-556414
LiGaPdF6,0.0,-2.445179319969131,mp-9245
Rb2NaSmCl6,5.0726,-2.44517877713793,mp-1114014
Sm3Bi5O12,2.5898,-2.445157855,mp-757507
K3PdF6,0.0,-2.445116740175,mp-1111081
P4Pb3O13,4.0793,-2.44510131242857,mp-18022
Na7Ca2Zn2P3(SO8)3,3.8057,-2.445064388522369,mp-2714463
PuAsO4,0.059999999999999,-2.444841808541664,mp-1209622
Sm10As8Au3O10,0.0,-2.444783416451613,mp-1194552
Al2PO7,0.0,-2.444716837464285,mp-1105677
MgTi2(HgO3)2,1.6097,-2.44468645878788,mp-2226831
Na2SnBPO7,1.859199999999999,-2.444654029714011,mp-768592
Ba4Ce(CuO3)3,0.6774999999999991,-2.444313205294118,mp-1096779
Na6Hf2Mg6SiS11O48,3.452099999999999,-2.444221458298773,mp-2713686
Sr2I2O,3.2812,-2.4442030669999992,mp-551203
NaScSiSn(SO6)2,1.77,-2.44417974831737,mp-2712559
Na5ZrGa3Si3(SO8)3,3.049699999999999,-2.444024804493074,mp-2716485
Na14Zr3Zn5Si6(SO8)6,3.0736,-2.443965903345248,mp-2714068
Na2Zr(WO4)3,2.8712,-2.443864616819922,mp-558710
Cd(BO2)2,3.6166,-2.443860448511903,mp-778103
Na4Al2Si3Sn2(SO8)3,1.5698,-2.443823953193437,mp-2713666
Eu2P3(HO3)3,0.1379,-2.443783634863447,mp-1226428
NaEuTi4O12,0.0,-2.443710891650703,mp-1516933
Li3Bi5(PO4)6,3.985499999999999,-2.443650985733083,mp-26835
NaMg2Ti2PS5O24,1.7855999999999992,-2.443532864862539,mp-2714226
BaLa4Cu5O12,0.0,-2.443297786363636,mp-558557
LiErTlO2,0.0,-2.443245007333334,mp-1236123
Na4P4H2O13,5.139299999999999,-2.443166918764725,mp-707200
Na5In2Ga2P5SO24,3.3467,-2.4429960201524152,mp-2715124
Na8ZnSi5Ge3SO24,1.6362,-2.442934043496853,mp-2715656
Na2TaAgF6,0.2407,-2.44288677695333,mp-1111551
NbSb3(PO4)6,0.0,-2.442743795231092,mp-774502
KNaCa2(SiO3)8,0.4556,-2.4426958056563692,mp-1226150
Sr2LiOsO6,0.0,-2.442533314333333,mp-1205568
Ba2CaBiO6,0.0,-2.4425179470000002,mp-1214698
Li2Ti(OF3)2,0.7093,-2.442516605454545,mp-726110
KAlP4(H2O7)2,5.662599999999999,-2.442506395867559,mp-722684
Sr(TmS2)2,1.8199,-2.442503043035716,mp-1194307
Nb2Zn3O8,2.9666,-2.442323447307691,mp-18575
Li3B2SbO6,2.9436,-2.442311603611111,mp-770402
Cs2RhF6,0.0,-2.442304976666667,mp-1206623
Cs2Cu3SnF12,0.7047,-2.442241901350574,mp-1194546
MgCO3,4.9603,-2.442030674999999,mp-5348
Ba2LiOsO6,0.0,-2.442012323333333,mp-10584
Sr10Cu(RuO5)4,0.0,-2.441998443714285,mp-1173638
Na6Ca2Mg2SiS5O24,3.6799,-2.441954193394397,mp-2713935
KDyP2H4O9,4.6561,-2.441834574011904,mp-1197219
KLiSb(PO4)2,0.2719,-2.441815417169413,mp-761143
Na10Si9Sn8(SO16)3,2.611099999999999,-2.441772556106323,mp-2714078
Ba5(RuO5)2,0.228099999999999,-2.441765696764707,mp-28908
Ca2Sn2O5,1.158499999999999,-2.441735780555555,mp-1377677
Mg6NbSiO8,1.4015,-2.441713479375,mp-1030823
Na3Ga2Sn2P5SO24,3.072599999999999,-2.4416251845906,mp-2716085
Rb2Ti(GeO3)3,3.0665,-2.441583086111111,mp-555252
Cs2Li4UO6,2.119599999999999,-2.4415738494341293,mp-1213708
Na6Nb16Zn8Si15(S7O48)3,1.4487,-2.441459212217981,mp-2716253
Na2TbO3,0.0,-2.441350567820881,mp-28430
Sr6Pr3Cu6O17,0.0,-2.4413290265625,mp-1218599
NdBr2Cl,3.4716,-2.441320194375,mp-1220195
Ba5Li2(TeO5)3,1.211199999999999,-2.441261726666666,mp-1228258
HfZnO3,0.0,-2.441217454999999,mp-1016819
Na5Ca2Ga2P3(SO8)3,2.3074,-2.4412088629485083,mp-2714632
USiPbO7,1.810799999999999,-2.441203550249999,mp-728246
ScAl(SO4)3,4.274199999999999,-2.4411008778921572,mp-2713743
Ga4B2O9,2.6451,-2.441062345222223,mp-1224948
PrSCl,2.6929,-2.441018495937543,mp-1210046
Zr2P4O17,0.0,-2.441005772763975,mp-1215996
Na12Nb2Zn4Si6(SO12)3,1.7861999999999991,-2.440952872524631,mp-2714365
Na18Mg16Nb8Si9(S3O16)9,0.5153000000000001,-2.440881050843819,mp-2713810