formula,bg,formation_energy,mp-id
K2RbYF6,5.6436,-3.474911209199999,mp-1110670
Li2Ta2(OF2)3,3.8411,-3.47457102125641,mp-561011
Na7La7Th2Ti18O54,1.9245,-3.474116140166536,mp-1173844
Ca2YNbO6,3.3203,-3.4739181465,mp-1214116
BaTi6O12,0.0,-3.473723413947367,mp-757206
NaGdHf2O6,0.7399999999999991,-3.473625989137931,mp-1520861
CeNbO4,0.0,-3.473460117499996,mp-7550
Ca3Ta2O8,4.1391,-3.473256686128205,mp-769266
Ba2PrTaO6,3.4861,-3.473158075900001,mp-1205686
TiAlF5,0.1642,-3.472955818333333,mp-1254289
EuTa2O6,0.0,-3.472808839685183,mp-505434
BaPr2O4,3.0759,-3.472732953333333,mp-17412
Nd2EuBeO5,0.3672,-3.472573916944446,mp-1220624
Eu2DyTaO6,0.0,-3.472434145900001,mp-1205520
YSc(BO3)2,4.452,-3.4722385793333332,mp-1215941
TbTa3O9,2.2515,-3.47212694374359,mp-1101372
Sr2Al2SiO7,4.2023,-3.472123711666666,mp-1218879
Sr3Ta4Ti4O21,2.3331,-3.472092738364585,mp-1218665
BaSrLa4Be2O10,3.538100000000001,-3.472087754166667,mp-1227956
LaSc3(BO3)4,4.2334,-3.472035604583332,mp-6217
BaTb2SmO6,0.0,-3.471946065333333,mp-1518764
Yb5Si3SO12,0.093299999999999,-3.471755115372023,mp-17648
K2U7O22,1.4317,-3.471736228532255,mp-540610
NdClO,4.766400000000001,-3.471199014166668,mp-23058
Eu2Ta2O7,0.0,-3.470849617242424,mp-1191288
K3Hf4Ag2F23,0.6645,-3.470602332815104,mp-1211819
HoMgTi2O6,0.0,-3.4705857271666662,mp-1044908
Sr2LiLaTi4O12,1.837099999999999,-3.470441762583333,mp-1218768
CsBe2F5,7.180899999999999,-3.470375476831902,mp-27192
CeTa3O9,0.0,-3.470269011307691,mp-505070
SrNd2BeO5,3.8313,-3.470162010833333,mp-1218200
Cs2KCeF6,0.418699999999999,-3.470062639656034,mp-1110986
SrLiGaF6,0.0,-3.469972376203703,mp-1208619
NaSr2NdTi4O12,1.8533,-3.4696914617773,mp-695514
Lu3SbO7,3.114699999999999,-3.4696719399999982,mp-1210508
SmPO4,5.8081,-3.46913106660713,mp-1102486
Ba2HoNbO6,2.8516,-3.4687507135,mp-12641
Ba3NaNd3(Si3O10)2,4.6986,-3.46867952708725,mp-559502
Sr4Ti5(Si2O11)2,1.9364,-3.4684068836190463,mp-558553
Cs2CaF4,6.091,-3.4682948657142862,mp-15157
Ca10TaTi8Al(SiO5)10,2.7784,-3.468271934925,mp-1173088
Tb5O9,0.0,-3.467706582738095,mp-780625
La4GdSc15(BO3)20,2.1905,-3.467570915783334,mp-1223571
KTbF5,0.014899999999999,-3.4675650574642862,mp-623088
NaZr2CuF11,0.8712000000000001,-3.467506669091953,mp-559126
TbGd3(PO4)4,3.293199999999999,-3.467426573968254,mp-1217571
BaLa7Mg5Nb3O24,3.1131,-3.467146676250001,mp-695250
Sr3Ta4TiO15,2.470099999999999,-3.467046486202899,mp-1218658
LaMgAl11O19,4.212899999999999,-3.467031464687499,mp-1223152
NdBO3,4.6987,-3.466906322333334,mp-7238
Ca8Si5O18,4.7787,-3.466854439516129,mp-1019570
CaTbEuNbO6,0.1824,-3.466817037666666,mp-1522124
TbBO3,4.4297,-3.466789145166666,mp-1217607
Sr2YNbO6,3.2249,-3.46656378,mp-6019
ScNbO4,3.3026,-3.466261806666667,mp-553961
Ba3LaTa3O12,3.181,-3.466104160894736,mp-1228180
LiPr6B3O14,4.3181,-3.465967741284721,mp-1211486
SrTi3Al8O19,2.6519,-3.465720377580646,mp-1217828
Ba6Li2Ti16O39,2.315,-3.465604477698412,mp-775484
KPrHfZrO6,2.662699999999999,-3.465254990891666,mp-1518487
BaNpO4,0.510799999999999,-3.465243820208333,mp-1214391
Ca5TaTi3Al(SiO5)5,2.8624,-3.465145833308333,mp-720394
K2NaPrF6,5.9483,-3.465068962754597,mp-1110830
Ba4La2Ti3Nb2O18,2.1891,-3.46496732310345,mp-684815
LiNdTi2O6,3.090099999999999,-3.464602147250001,mp-1105497
K2LiAlF6,7.2688,-3.464421298116666,mp-556996
BaZr(SiO3)3,4.6556,-3.464303285,mp-1214228
SrAl4O7,3.7508,-3.4642884175,mp-3788
BaTb2DyO6,0.0,-3.464246642,mp-1520584
CaClF,5.6701999999999995,-3.464229859166666,mp-27546
Ca2Al2SiO7,4.3406,-3.464139528749999,mp-1227499
CaAl4O7,3.9994,-3.463972205833334,mp-4867
La3Si2Cl3O7,3.8686,-3.463876167000001,mp-555191
Ba5Y2ZrAl2O13,2.6225,-3.463636371304349,mp-1214494
SrSmZrTiO6,0.0,-3.462816922833333,mp-1516441
NdEuZrTiO6,0.0,-3.4627427075833332,mp-1516183
TiOF,0.0,-3.462545334444444,mp-753657
BaEu2Sc2O7,0.0,-3.462434517083333,mp-1200958
Np3HF12,0.079299999999999,-3.4624288432812502,mp-1210023
Ca3Si2O7,4.659,-3.462348215,mp-585516
Rb4LiZr3H2F19,6.1904,-3.462286996235632,mp-557793
LiCaGaF6,6.4003,-3.462266970092592,mp-12829
Ti15NbO32,0.0,-3.461866468749999,mp-1099073
Na3UF8,0.0,-3.461805859583334,mp-864913
Rb3NdF6,5.576700000000001,-3.461755927,mp-1206106
Er3NF10,0.0,-3.461655575714285,mp-1181827
EuClF,0.115499999999999,-3.461556127500001,mp-556382
Cs3CeF6,0.0,-3.461380038896552,mp-632715
Sr4Al14O25,4.157500000000001,-3.461146685581395,mp-5512
CePrO4,0.0,-3.461063896944444,mp-1226481
BaTi14O28,0.0,-3.460968946899224,mp-773131
Li3La5Ti6Nb2O26,2.0484,-3.460742364404762,mp-761156
NaSrCrF6,2.0585,-3.460536837375479,mp-17259
Er2SiSO4,2.811400000000001,-3.460493296562498,mp-555990
Ba3Ta4TiO15,2.3532,-3.460472078594203,mp-1228225
Ba3La2Ti2Nb2O15,2.3876,-3.460355204236111,mp-1228337
PmTiO3,0.0,-3.460296333166667,mp-2647018
Ba2TbHfO6,0.0,-3.460192446916667,mp-1521114
Sr5Ti9O23,1.8845,-3.459892435270269,mp-1197010
Na3Li3Al2F12,7.194699999999999,-3.4596479185,mp-6711
Sr2ZrO4,2.7749,-3.4596454871428572,mp-1025349
K2NaCeF6,0.230199999999999,-3.459384251587931,mp-1112864
RbLa2Ti2NbO10,1.6672,-3.459167585885417,mp-1219633
ThBeO3,2.696799999999999,-3.458890785999999,mp-1187421
CsLa2Ti2NbO10,1.5818999999999992,-3.458847388520116,mp-1225974
SrAl2O4,4.141999999999999,-3.458835004642857,mp-3094
Ba2DyNbO6,2.8514,-3.458601736166666,mp-12640
Na3Sr4Nd3Ti10O30,1.964,-3.458237928599425,mp-686697
BaSrTbHfO6,0.0,-3.457829558416667,mp-1522244
Sr2Al6O11,4.2458,-3.457627543421051,mp-30906
CsPaO3,2.972999999999999,-3.457622890931035,mp-1183920
MgUO4,1.6809,-3.457339777499998,mp-2271432
Ba2MgUO6,2.0335,-3.457244664499998,mp-13811
TbEu2TaO6,0.780999999999999,-3.4571722674,mp-1205605
GdPO4,3.291099999999999,-3.457152366607125,mp-1103324
Eu2YTaO6,0.5364,-3.457112330733333,mp-1206828
ZrZnF6,6.0953,-3.45703982625,mp-1025509
NaCa8SmTi10(SiO5)10,2.9163,-3.456979112246409,mp-705853
Ba2LiTi11O24,0.0,-3.456971630789473,mp-767384
Sr3Nd4O9,3.977499999999999,-3.45691211625,mp-1218602
Li6ZrBeF12,6.1894,-3.455651388249999,mp-559708
LiTaF6,5.9035,-3.455313644249999,mp-1080679
La4Br3ClO4,3.7675,-3.455201617083334,mp-1223049
Sr2NdUO6,0.515699999999999,-3.4551336937499992,mp-1205651
Tb11O20,0.0,-3.455036693333331,mp-556069
La2SiSeO4,2.2089,-3.4545496999804692,mp-17834
Eu2TiO4,0.0,-3.454467420476194,mp-1025200
USiO4,0.0,-3.4544520449999983,mp-4169
CaAl2O4,4.5893999999999995,-3.454407959880952,mp-2963
BaAl2(SiO4)2,4.819699999999999,-3.454300557692307,mp-6091
BaSrDyNbO6,3.0423,-3.454179356666666,mp-1518454
CsTi2(OF)3,2.8299000000000003,-3.454162931257983,mp-1225859
Ce3Ta(ClO2)3,0.0,-3.454019440948717,mp-558609
Nd4CdSi3O13,3.4103,-3.453624959761905,mp-1220265
PrClO,4.7029,-3.453472725555557,mp-27984
Ca10Ta3Ti4Al3(SiO5)10,2.843199999999999,-3.453196465191667,mp-534838
PrSc3(BO3)4,4.389200000000001,-3.453176868916666,mp-18677
Sr2TmNbO6,2.8569999999999993,-3.453018481500001,mp-557387
Ba3CaTa2O9,3.1979,-3.453017960644445,mp-1228141
Sr2TbHfO6,0.0,-3.452969735166667,mp-1523019
LaSF,1.488099999999999,-3.452929627604165,mp-5394
Ca10Ti8NbAl(SiO5)10,2.8619,-3.4528573833333343,mp-693409
RbTbF5,0.0,-3.452643963452381,mp-1209681
BaU(SiO4)2,2.3906,-3.452390772916666,mp-555561
Ho2SiSO4,2.6279,-3.452076566249998,mp-17366
BaUPO6F,2.1124,-3.451930976214284,mp-1203857
Nd2SO2,2.8667,-3.451803776499999,mp-3211
LiLaTiO4,2.263699999999999,-3.451740582380953,mp-6521
KNdHfZrO6,2.6382000000000003,-3.451703276475,mp-1521021
Sr7Zr(Si2O7)3,4.4323999999999995,-3.451624391285715,mp-555314
Ba2TbNbO6,2.9923,-3.451506916666666,mp-6254
Nd3GaO6,3.6505,-3.4508841035,mp-11773
Ba3TiAl10O20,3.2524,-3.450860982450979,mp-1228063
NaCa4TaTi4O15,2.3114999999999988,-3.450855194181839,mp-1173857
Ba3LiTa3Ti5O21,2.264999999999999,-3.450418100515152,mp-677212
Na2SrLa2Ti5O15,2.0161,-3.4504039335770122,mp-695243
KThTi2O6,0.0,-3.450109428391667,mp-1211240
K3NdF6,5.614,-3.449900987924999,mp-1110853
NaEuHf2O6,0.0,-3.449870143637931,mp-1520427
TbSc3(BO3)4,4.0709,-3.449859446916666,mp-1217508
NdPO4,5.678800000000001,-3.4498277028571422,mp-3584
Ca2Ta2O6F,0.0,-3.449717791787879,mp-14560
Sr5Ti7O19,1.820799999999999,-3.449630858333333,mp-1202132
La5Ta22O62,0.0,-3.449439456026217,mp-757779
Ca2Zr(SiO3)4,4.8495,-3.449158389210526,mp-560339
NaTmTi2O6,2.4036,-3.449023275304598,mp-1220905
NaZrScO4,3.662499999999999,-3.448860639839901,mp-1220772
NaTiF4,0.201099999999999,-3.448850022452101,mp-27264
Ca2TiO4,1.5722999999999991,-3.448543979047618,mp-1096860
Ti9O17,0.0,-3.448527105384616,mp-27273
Np2O5,0.0,-3.448520474642858,mp-554714
LaTi6O12,0.0,-3.448372656052631,mp-757394
NaLuTi2O6,1.8433,-3.448370448971264,mp-1221004
Y5(SiO4)3,0.0,-3.44835634075,mp-1208172
Ba17U11O42,0.0,-3.448332408571428,mp-759291
BaAl2O4,4.1027,-3.448150932499999,mp-4202
CaSiO3,4.8413,-3.4480482148333342,mp-4429
Ba7Al64O103,4.252400000000001,-3.447888620201149,mp-667379
LiDy2(OF)2,0.0,-3.447886305238094,mp-1235112
Sr6Y2Al4O15,3.9869,-3.447766316481481,mp-1020715
Ca11Al14O32,3.4332000000000003,-3.4477328635088242,mp-33318
KCeHfZrO6,0.150899999999999,-3.447668915725,mp-1522421
Rb3CeF6,0.0,-3.447577348249999,mp-1078913
Ba2NaLaTi4O12,1.78,-3.447405203985631,mp-1228472
GdSnF7,4.4342000000000015,-3.447328515555556,mp-15059
BaAl4O7,3.6891,-3.4471662206249998,mp-1019534
TaOF3,2.7903,-3.447142061466665,mp-1101316
BaCaBO3F,3.867999999999999,-3.447079753214285,mp-694911
CaZrAl9BO18,4.8793,-3.447073039638889,mp-559642
PrBO3,4.6526,-3.446497388666666,mp-861504
Rb3Sc2Si4(O2F)5,5.195399999999999,-3.446416112291666,mp-1196025
Ca6Al7ClO16,3.8007,-3.446164730833333,mp-1227232
SrLiLaTi3O9,1.8409,-3.446122692888889,mp-1218165
Sr2CaAlO4F,4.4684,-3.446018824444444,mp-1218862
BaMgSbF7,4.8293,-3.445976425250001,mp-1041269
Ca2TaTiO6,0.0,-3.445841080066666,mp-1373655
NaLiLa2Ti4O12,2.1597,-3.445699688402298,mp-677430
Ca3Al2(SiO4)3,5.1373,-3.445631944374999,mp-6008
Ti8O15,0.0,-3.445266917898551,mp-565700
Eu2O3,0.0,-3.4451725570000002,mp-1017564
Th4Ta18O53,1.6122,-3.444971993293334,mp-758289
NaErTi2O6,0.0001,-3.444843737804598,mp-1221068
Ca18Nd2Si3P9(O16F)3,4.345000000000001,-3.444827183635972,mp-534782
Rb3PrF6,5.5085,-3.444810941416666,mp-1205725
Ba2YNbO6,2.8514,-3.444694518,mp-7251
Ba9Sc2(SiO4)6,4.3422,-3.444504484390243,mp-558428
YbEu2TaO6,0.0,-3.444488859483334,mp-1206702
Ca2NdNbO6,3.5065,-3.444371812749999,mp-1227471
K5U2O4F9,2.6418,-3.4441966828124992,mp-557888
Ba9Y2(SiO4)6,4.5982,-3.444188032439024,mp-1019533
Sr3LiTa4(O6F)2,0.0,-3.4439089828484852,mp-756170
Ba2Ti(SiO4)2,3.7274,-3.44362643102564,mp-6081
PrPO4,5.651599999999999,-3.443447114384918,mp-4589
Sr2TiO4,1.914199999999999,-3.443433267619047,mp-5532
Sm2Ta2Cl2O7,3.1249,-3.443359100743589,mp-554623
K2NaAlF6,6.8580000000000005,-3.44334859958793,mp-6586
Na9Sr2La9Ti20O60,1.9492,-3.443327226640805,mp-695213
TbF4,0.0,-3.443243420999999,mp-1208439
SrAl2(SiO4)2,4.7024,-3.442896293461538,mp-1218484
Eu2TaAlO6,0.3394,-3.442870456733334,mp-1205947
CeSc3(BO3)4,0.2621,-3.442636500083332,mp-16097
NaCa9TaTi9(SiO5)10,2.9149000000000003,-3.442608122858908,mp-705502
Sr2TbNbO6,3.105399999999999,-3.4424167514166673,mp-1516557
BaSrTbNbO6,2.982599999999999,-3.442391359666666,mp-1522360
KZrSnF7,4.0133,-3.442278692225,mp-556631
Y2SeO2,2.1613,-3.44194683646875,mp-752658
TiAl2O5,2.9434,-3.441487001041667,mp-4930
Na2LiLa3Ti6O18,1.9543,-3.441455824703065,mp-676447
Sr2HfNbO6,0.0,-3.441441281,mp-1518847
NaHoTi2O6,2.3878,-3.441307371304597,mp-1220792
BaSrHfNbO6,0.0,-3.441295514,mp-1518868
CsK2ScF6,5.6381,-3.441292583915518,mp-1110639
Ba2CePuO6,0.219199999999999,-3.441262821874998,mp-1205973
SrSiO3,4.6251,-3.441226473,mp-3978
BaSrYNbO6,3.0516,-3.441127099,mp-1519152
Ca5Al6O14,4.441899999999999,-3.441095487399999,mp-17694
Ti7O13,0.0,-3.4410717961666673,mp-556724
NaPaO3,2.952,-3.440691451275864,mp-865120
LiTmSiO4,4.8668,-3.440315098690477,mp-15066
LaSiBO5,4.297999999999999,-3.440273789479167,mp-1222841
Dy5B3O13,0.0,-3.440238323849206,mp-1212938
Ba5Gd2ZrAl2O13,2.4626,-3.440172720217391,mp-1214525
Ba2Ta2O7,2.9471,-3.439801008605799,mp-770239
LiLaTi2O6,1.8552,-3.439722850000001,mp-767402
NaDyTi2O6,2.3542,-3.439443815971264,mp-1221056
La3NbSe2(O2F)2,1.458599999999999,-3.439358182265625,mp-558478
Ba5Ta4O15,3.0865,-3.439217441430571,mp-504554
La2MgNbO6,0.2118,-3.4389927145,mp-1211365
KLaZr2O6,2.2916,-3.4388478282249992,mp-1521888
Sm3Ta17O47,2.460299999999999,-3.43856321230842,mp-765640
K2EuF5,0.1588,-3.438427809000001,mp-1212263
SrAl12O19,4.4592,-3.43836354,mp-1218531
Ti6O11,0.0,-3.438300099411763,mp-559964
NaPrHfTiO6,2.2549,-3.438231605637931,mp-1522207
NaTbTi2O6,2.307,-3.437854374471263,mp-1220906
Cs2LiAlF6,6.8832,-3.4377826902643682,mp-1206808
NaPrHfZrO6,2.7095,-3.437486248304598,mp-1518751
Ca4Al6O13,3.941799999999999,-3.437075475869565,mp-7531
NaLi2La3Ti6O18,1.9547999999999992,-3.4369442967682,mp-694955
ScBO3,4.118,-3.436941156833332,mp-8697
BaNd2BeO5,3.875499999999999,-3.436739420555556,mp-17836
Ca12Al14O33,2.1738,-3.43658640059322,mp-532016
BaCaCeTiO6,2.1876,-3.4365726583333323,mp-1521898
KNdHfTiO6,2.2033,-3.436459322808333,mp-1516600
NaLaTi2O6,2.0801,-3.436417339804598,mp-1220785
Ba6Lu2Al4O15,3.8537999999999992,-3.436350634567901,mp-1214530
Nd2Ta2Cl2O7,3.0833,-3.436312331128205,mp-559243
SrSm2Nb2O9,2.1183,-3.436162488214287,mp-510544
Sr7Ca2Al3(O4F)3,4.1698,-3.435849286851852,mp-1218613
Gd2SeO2,1.3547,-3.435754594468753,mp-13973
Ca9Si4O17F,0.7206,-3.4357023320967732,mp-1227767
SrNdHf4O12,0.0,-3.435673644305554,mp-1521073
NdTa2O6,0.0,-3.435342228018517,mp-1205976
CaTi4O9,2.6041,-3.435326306309524,mp-1040874
Na2SrNd2Ti5O15,2.1166,-3.435018943277011,mp-532802
Ho3SbO7,2.7558,-3.434945239545452,mp-1212301
K2Na2NdF7,6.1175,-3.434905274146551,mp-1211978
BaLaMgTaO6,2.9706,-3.4347767967333342,mp-40251
PrEuDySiO6,0.0638,-3.434746769833333,mp-1519673
Ba2EuTa3Ti2O15,0.0,-3.434330735594203,mp-1228610
Ca5Ta4O15,3.2814,-3.4342318383055552,mp-769610
K10LiZr6H4O2F35,5.3659,-3.433945015531609,mp-1196541
La2Ti3ZnO10,1.733299999999999,-3.433637573750001,mp-1223063
LaTa7O19,3.1119,-3.433544945234568,mp-14485
Ba3Ta5O15,0.0,-3.43277349637681,mp-15021
Na9Sr2Nd9Ti20O60,2.152199999999999,-3.432563550165805,mp-694961
BaInF5,4.7954,-3.432420088630947,mp-1214395
CePO4,0.0,-3.432404492301593,mp-4136
CsK2YF6,5.2336,-3.432307082415517,mp-1112240
Rb2SiF6,6.9955,-3.432261107222219,mp-10492
K3PrF6,5.521100000000001,-3.432067384341666,mp-1110852
K2La2Ti3O10,1.733499999999999,-3.431758464970588,mp-6548
Ca2Th(Si2O5)4,4.986599999999999,-3.431682531935484,mp-555528
Ba4Ti3O10,2.2132,-3.431557339411766,mp-771189
Sr5CaAl2(O4F)2,4.369,-3.4315412877777782,mp-1218422
NaSrGaF6,5.9984,-3.431438998208811,mp-1210031
Ba3Ta6(Si2O13)2,3.0288,-3.43141231548718,mp-6169
SrTa4O11,3.5232,-3.431262843708332,mp-541462
Ba2ZrO4,2.9787999999999992,-3.430814742857144,mp-8335
SrCaSiO4,4.6805,-3.430644291547618,mp-554006
SrB2F8,8.3012,-3.430601943863636,mp-556106
Rb2NaAlF6,6.791,-3.430538285637931,mp-1079583
ThSO,1.114499999999999,-3.430461137499998,mp-8136
Ca5Ti3NbAl(SiO5)5,2.9144,-3.430454232625,mp-720340
BaBClF4,5.9817,-3.430444624166667,mp-1103527
Sr3MgTa2O9,3.2619,-3.430443482311112,mp-1103508
Na2LiAlF6,7.166499999999999,-3.4304397095,mp-6604
Ba6Tm2Al4O15,3.888499999999999,-3.430331428703704,mp-1214515
NaThTi2O6,0.0,-3.429878776804598,mp-1209938
NaNdHfTiO6,2.2438,-3.429838310221265,mp-1516737
Ce2SO2,0.0,-3.429321157499999,mp-3972
Sr5P3O12F,5.2118,-3.429256185663264,mp-6669
Sr3Ta5O15,0.0,-3.429105505507246,mp-1208813
CaAl12O19,4.345099999999999,-3.429087312968749,mp-1227489
SrTi11O20,0.0,-3.428457587864583,mp-28740
Sr2Ti5Al17O38,0.0,-3.428430958978495,mp-1208847
K2SiF6,7.1895,-3.428395247722219,mp-13002
CaAl2SiO6,4.605699999999999,-3.4282547425,mp-1019584
LaZrO3,0.0,-3.428166948,mp-1185065
Pr2Ta2Cl2O7,3.0662,-3.427969009461539,mp-559702
EuAl12O19,0.169599999999999,-3.42796631156253,mp-1212749
BaCa2(SiO3)3,4.5847,-3.427818641,mp-18216
CsMgF3,6.7028,-3.427780151749997,mp-8401
U3O5,0.0,-3.427771539374998,mp-752998
NaCa9Ti9Nb(SiO5)10,2.841599999999999,-3.427623457517241,mp-534850
K5Ti3F14,0.0,-3.426690428011362,mp-8447
Al2O3,5.853700000000001,-3.426551008,mp-1143
CaTa4O11,3.543799999999999,-3.426525166208333,mp-3079
CaAl2(SiO4)2,4.729699999999999,-3.426420772692307,mp-1227323
Li4La5Ti6Nb2O26,0.0,-3.4264083555426352,mp-766091
YbBO3,0.0,-3.42637511375,mp-5364
Dy3SbO7,2.7960000000000003,-3.426120689545452,mp-1212841
KRb2AlF6,6.4284,-3.425986403225,mp-1113768
Sr2SmNbO6,3.1716,-3.4257397005,mp-8496
Cs4Mg3F10,6.371700000000001,-3.4256525094117642,mp-5476
SrCaCeTiO6,2.307,-3.425544091333333,mp-1522825
Ca3La3(BO3)5,4.1362,-3.425501466570513,mp-6709
Ti5O9,0.0,-3.425320040833333,mp-748
Al23O17F35,0.0,-3.4250182276,mp-1247830
Sr4Ta2O9,4.1943,-3.424987994977778,mp-769271
KLa2NbO6,3.7476,-3.424929380225,mp-554034
KSmHfZrO6,2.6097,-3.424779771225,mp-1521990
KTi16O32,0.0,-3.424676279195578,mp-757418
Sr2Ti(SiO4)2,3.8662,-3.424073574102564,mp-1192641
Ba2GdNbO6,2.71,-3.423956167000001,mp-22531
Cs2KAlF6,6.6738,-3.423887091656034,mp-1113092
BaNdHf4O12,0.0,-3.42375560875,mp-1520155
Rb2LiAlF6,7.248,-3.423521409833333,mp-1113747
Cs3TiF7,2.9901,-3.423382921118078,mp-12244
NaYTi2O6,2.3484,-3.423329342804597,mp-1220744
RbZrCdF7,5.1067,-3.423179316249999,mp-558514
BaSmHf4O12,0.0,-3.4231411252777773,mp-1519335
BaBrF,4.8824,-3.422976659999997,mp-23070
Sr2CuF6,1.0895,-3.42283717888889,mp-557552
BaTh(PO4)2,5.0577,-3.422828911190476,mp-1192105
MgTi2O5,2.7175,-3.422544152083334,mp-28232
Sr2SiO4,4.4605,-3.422024718214281,mp-18510
YbNbO4,0.0,-3.421342985,mp-5466
BaNaGaF6,6.093,-3.421223163208807,mp-1214538
Ca2AlH2OF7,6.5056,-3.421209987115384,mp-1194400
Sm2SeO2,2.1358,-3.421144282468751,mp-13972
SrAl22O34,4.699400000000001,-3.421004158947369,mp-531590
Eu5Ta4O15,0.0,-3.420848036222223,mp-1192440
Ba3Sr9Al4(O4F)4,4.2829999999999995,-3.420801768611111,mp-1228149
Mg5Ti13O30,0.0,-3.4207673035069472,mp-759796
Ca5P3O12F,5.5148,-3.4206839073299062,mp-6473
Tb6O11,0.0047,-3.420675259558822,mp-16302
K3AlF6,6.431000000000001,-3.420461138174996,mp-1201513
CaTh(PO4)2,4.628500000000001,-3.4200235145238223,mp-1227211
Sr3AlO4F,4.048999999999999,-3.419933012777777,mp-15736
LaAl33O51,2.736999999999999,-3.419918198588236,mp-1178196
NaCeHfZrO6,0.1458,-3.419813327137931,mp-1518617
BaSr11Al4(O4F)4,4.0628,-3.419791733888888,mp-1227818
Sr3Ca2P3O12F,5.3141,-3.419758420901359,mp-1218615
Sr6Al7ClO16,4.0463,-3.419737000333333,mp-1218648
Eu2GdTaO6,0.6783,-3.419323127733334,mp-1206027
Eu2ZrO4,0.1058,-3.419125524285717,mp-1206153
EuNpO3,0.0,-3.419096551250001,mp-1213363
BaSrGdNbO6,2.7823,-3.419076794,mp-1522883
Np(OF)2,0.0,-3.418890235749999,mp-27986
Ba4MgTa10O30,2.4682,-3.418838103962962,mp-1228584
NdTa7O19,3.1613,-3.418825040697567,mp-14676
SrSmEuNbO6,0.149099999999999,-3.418692991,mp-1523233
KLaZrTiO6,2.2346999999999992,-3.4186307805583342,mp-1520792
Ca3SiO5,3.985099999999999,-3.418580365987654,mp-641754
Mg3Ti9O20,0.0,-3.418253189531251,mp-762447
Rb3TiF7,3.037,-3.417879753257577,mp-12245
CaGdTh(PO4)3,2.609099999999999,-3.4175498320238082,mp-695308
DyTa7O19,3.2175,-3.417534262333331,mp-15492
SrCa4P3O12F,5.4986000000000015,-3.417529170187073,mp-1208696
KBa4Ti5O14F,1.1399,-3.417522567156666,mp-40677
Ba2CaCr2CuF14,0.0,-3.417455777250023,mp-582663
NaGdTi2O6,2.318,-3.417433623804598,mp-1221012
Tb3SbO7,2.752,-3.417252454999999,mp-1191378
LiNdTiO4,2.2825,-3.417164427738094,mp-10520
PrTa7O19,3.1645,-3.416889415481481,mp-1209566
Na11La7Th2Ti20O60,1.8209,-3.4166427002683912,mp-686371
Na3YF6,4.8054000000000014,-3.416323306500001,mp-1114251
Na2LaCeTi4O12,0.019899999999999,-3.415820786054598,mp-1221390
HoTa7O19,3.1601,-3.4154884372716032,mp-850779
K2RbNdF6,5.2708,-3.415484198949999,mp-1110673
Sr3LaTaAl3O12,0.0,-3.415466272116666,mp-1232343
Pr3GaO6,3.8735,-3.415209581750001,mp-753821
Pr2SO2,2.859999999999999,-3.415153002166668,mp-3236
GdTa7O19,2.6916,-3.415069960419754,mp-770124
Mg2Ti7O15,0.0,-3.41487485513889,mp-759694
Mg3B(OF)3,5.4158,-3.414764612416667,mp-554542
Sr3Ta6(Si2O13)2,3.085499999999999,-3.414611924205128,mp-17103
Ca3SnF6,0.0,-3.4145960425,mp-1214347
ErTa7O19,3.169799999999999,-3.414568334864197,mp-773103
ThB2O5,4.8178,-3.414352945104166,mp-28641
KNbF6,5.1434,-3.414340102781249,mp-7571
Sr2GdNbO6,2.8344,-3.413976458500001,mp-1518774
Ba6Dy2Al4O15,3.928,-3.41384142345679,mp-1214541
CaB2F8,8.4551,-3.413795922272727,mp-12146