formula,bg,formation_energy,mp-id
ZrNbO4,0.0,-3.253571734166666,mp-756426
Tm4Si2S3O7,2.748999999999999,-3.25350235765625,mp-16591
Ba2LaNb5O15,0.0,-3.253384114782608,mp-1228649
Mg3Al2(SiO4)3,5.1184,-3.253374418499999,mp-6073
La2Ta3(SO4)2,0.796899999999999,-3.253327440466667,mp-14880
Ca18Eu2P12(SO16)3,0.0608,-3.253276386364027,mp-677016
Ca10P6CO27,5.137399999999999,-3.253250209496753,mp-1195864
CsTiNb(O2F)2,2.5366,-3.253095403109833,mp-684745
Ca2ZrNbO6,0.0,-3.253079747000001,mp-1517008
TmAl3(BO3)4,5.6716,-3.253034671833333,mp-13516
SrCaZr8(PO4)12,4.2404,-3.252799431367346,mp-1218248
Ti3AlO6,0.0,-3.25269935175,mp-1048819
LiDy2Nb2O8,0.429799999999999,-3.25243210051282,mp-1235384
Ca5(PO4)3,0.0,-3.252426863696429,mp-1182052
BaCaZr8(PO4)12,4.215,-3.252306480795916,mp-1228692
BaAl2B2O7,4.6477,-3.252279562777777,mp-9844
ErAl3(BO3)4,5.616599999999999,-3.252176363833332,mp-1106277
Ce3B2(ClO2)3,0.0,-3.251897071666665,mp-680695
Na2CaMg5Si8(O11F)2,4.5395,-3.2518051221939652,mp-1221470
K2YInF6,3.3664,-3.251672525116666,mp-1111119
LiPr2Ta2Cl2O7,0.0,-3.251661357595238,mp-1235470
LiTa3O8,3.4495,-3.251229771277778,mp-7638
Gd2Be2GeO7,3.2809,-3.251185185416666,mp-650715
HoAl3(BO3)4,5.5914,-3.251167033583333,mp-1212105
YScO2,0.0,-3.25110059125,mp-754671
DyAl3(BO3)4,5.543100000000001,-3.250951523916666,mp-1212827
BaTb2ZnO5,3.050599999999999,-3.25075140037037,mp-18084
TbAl3(BO3)4,5.5144,-3.250620470666665,mp-1208321
CaZr4(PO4)6,4.172099999999999,-3.250465469367347,mp-556440
SrCa3Zr16(PO4)24,4.201300000000001,-3.250443177081633,mp-1218319
Ba2CaCuBi2F14,1.3081,-3.25022223075,mp-1045638
Eu5Nb4O15,0.0,-3.2502140275,mp-1185383
Li5Nb3OF18,3.980399999999999,-3.2500841396913582,mp-769316
NaHf2(PO4)3,5.029999999999999,-3.250018321128214,mp-40161
Ca4Mg4P4O17F3,0.8282,-3.250008408080357,mp-1227623
K6Al32O51,2.822399999999999,-3.249958889983145,mp-863387
Sr4CaSm2Ta2O12,0.379699999999999,-3.249818336412698,mp-1233600
CsMgInF6,4.5677,-3.249697409035759,mp-1225951
Na5Ti16O32,0.0,-3.249687450759053,mp-757229
Eu5P3ClO12,0.6537000000000001,-3.249664401139456,mp-647532
KCaNd(PO4)2,4.7425000000000015,-3.249645219284798,mp-676934
Sr6B(PO4)5,4.8124,-3.249417187886905,mp-6044
Na3Ca2Ta3Ti2O15,2.4216,-3.249350074312183,mp-677743
Pr2Ta2O9,0.277399999999999,-3.249341197153848,mp-1330400
Cs2Zr(Si2O5)3,4.975199999999999,-3.249186521568485,mp-581877
Ca4Be2Al2Si9O28,0.5991000000000001,-3.249094270444444,mp-1214270
Li8Ti15O32,0.0,-3.248932438484849,mp-759713
BaCa3Zr16(PO4)24,4.178100000000001,-3.248659502653062,mp-1229190
SmEuTiNbO6,0.0,-3.248522409333334,mp-1522188
CaLa2SnO6,3.892799999999999,-3.2484680825,mp-1396276
Ba2Sn2F11,0.0763,-3.248372233444444,mp-1044595
Al11AgO17,3.020899999999999,-3.248198066264368,mp-766293
Sr5Al11TlSi13O48,3.1064,-3.248165132222222,mp-1249531
NaCaMgAl(SiO3)4,5.0296,-3.248137427318965,mp-1221089
YErAl6(BO3)8,5.398100000000001,-3.247983375833333,mp-1216022
Ba8Al10B12O41,4.4373000000000005,-3.24796155359155,mp-1019529
Ba5Dy8Zn4O21,3.3654,-3.24790919127193,mp-18296
Ca2Ta2TiO8,0.0,-3.247892160230769,mp-1045947
Al11NO15,4.052600000000001,-3.247849188518518,mp-675682
La2ZnO4,3.2744,-3.247844016071429,mp-756599
NdNb3O9,2.82,-3.247823742115385,mp-1210059
Ca9Mg(PO4)7,0.0,-3.247539829944443,mp-728486
LiYO2,4.389699999999999,-3.247456247708332,mp-7020
Ca2SiB2O7,5.6806,-3.24741895236111,mp-752851
Eu5B3O9F,0.109499999999999,-3.247264087361114,mp-1196201
Tb2Y2O5,0.0,-3.246901876481481,mp-1187277
Th10N9F13,2.0872,-3.246713024687499,mp-677238
Nd4Si2S3O7,2.593499999999999,-3.246241883125,mp-14835
LiTi2O4,0.0,-3.246210392142857,mp-5670
Nd2NbGaO7,2.2756,-3.24613836840909,mp-1220395
Ca6Si6H2O19,4.4792,-3.245904816287879,mp-1183664
Na3CaSc3Zn(SiO3)8,4.7697,-3.245689009728448,mp-1221261
Sr5P3O13,0.4068,-3.245583698044218,mp-1208610
NaTi8O13,0.0,-3.245529319683909,mp-28649
MgTi5NbO12,0.0,-3.245428915350876,mp-2231449
NaCaHfNbO6,2.4099999999999993,-3.245402275137931,mp-1521141
K3EuF6,0.0,-3.245343899675001,mp-1205962
Nd3Al3Si3(NO6)2,3.8758,-3.245123312282608,mp-695170
KAlSi3O8,4.9243000000000015,-3.244951727480768,mp-697670
Na2Ca3(Si3O8)2,4.3043,-3.244864030287356,mp-558087
Sr3(BO3)2,4.3980000000000015,-3.24476437712121,mp-16432
LaNb3O9,1.7846,-3.244713615,mp-757457
RbAlSi3O8,4.9009,-3.244703725961538,mp-1219605
BaCaTbTiO6,0.0,-3.244659401,mp-1521723
Na3Mg4ScSi8(O11F)2,4.553699999999999,-3.244437245728448,mp-1173812
YTi2O4,0.0,-3.244196510238094,mp-1409276
LuO2,0.0,-3.244072048888888,mp-1206244
KNa2AlF6,5.1973,-3.244064075000862,mp-1111019
YAl3(BO3)4,5.359,-3.244045756333333,mp-6062
CaMg7(SiO3)8,4.6611,-3.243774927625,mp-1227274
LiAl(Si2O5)2,5.4223,-3.243759347395833,mp-6442
Sr2YTi2AlO7,0.0,-3.243584902435896,mp-1048068
Ca5P3O13,0.4885,-3.243580392806123,mp-1195767
BaTi4O8,0.0,-3.243506611794871,mp-1047421
Ba3Nb6(Si2O13)2,2.281,-3.243477344102567,mp-6101
PrNb3O9,2.848499999999999,-3.243315032435897,mp-558373
K3LiTi7O16,2.9242,-3.243218656237653,mp-755707
Ba2AlCu2F11,0.843399999999999,-3.243204630729166,mp-561318
Gd4Si2S3O7,1.186599999999999,-3.243118321093749,mp-1204595
BaCaHf4O12,0.0,-3.243007375555555,mp-1518468
Nd2TeO2,1.271499999999999,-3.242909266333329,mp-5459
Ca2B2O5,4.7075000000000005,-3.242779313148148,mp-1019560
KEuZr2O6,0.0,-3.242493447225001,mp-1522904
La2Ti2CuO8,0.0,-3.24223670128205,mp-1223151
SmAl3(BO3)4,5.3057,-3.242215852583333,mp-1208886
LiCa9Mg(PO4)7,4.7063,-3.242132811268114,mp-686484
Ba10Pr5Nb4SnO30,0.0,-3.242102779466667,mp-1228934
ThNb4O12,1.9393,-3.242060130196078,mp-862893
Na4Ca4Be4AlSi7(O6F)4,0.0,-3.2420165376149432,mp-1210262
Sm2MgTi2(ClO3)2,0.0,-3.241959776282051,mp-2233743
YbScO3,0.0,-3.241935407249999,mp-1187493
Na2Ca5TiSi4(O8F)2,0.0,-3.241887587869731,mp-1210589
Sr9In(PO4)7,4.0448,-3.241845377092592,mp-1218791
CsAlSi5O12,4.5621,-3.241749217876588,mp-1226440
KLaDyNbO6,2.1462,-3.241734600391666,mp-1516195
CsAl(SiO3)2,4.8796,-3.241411223965518,mp-562920
Mg5Al7O16,0.0,-3.24122944267857,mp-1222118
K4BaTa6(Si2O13)2,2.8428,-3.2410763569024392,mp-677011
Ba16Tb8Nb5(SnO16)3,0.0,-3.240821496354166,mp-677468
CaBiF5,3.9514,-3.240805360714288,mp-1407843
U7Cd3O20,0.0,-3.240723539999998,mp-686037
NaLiZr(Si2O5)3,5.2494,-3.240721280196361,mp-15543
Ho2Cu(SiO3)4,0.7784000000000001,-3.240708382631579,mp-1212369
YTi3O6,0.0,-3.24069781525,mp-1045032
NaLuO2,4.061,-3.240658954511494,mp-755311
Dy2MgNb2O8,0.5032000000000001,-3.240651612179486,mp-2226786
Sm2Ti2O5,0.0,-3.240589912962963,mp-1099757
Sr4MgTi3O10,0.0,-3.240515753611112,mp-2229402
ScO,0.0,-3.240489735,mp-644481
Dy2Y2O5,0.0,-3.24035507648148,mp-1184129
Mg4Ta2O9,4.2018,-3.240302830644448,mp-17481
Mg3Ti2O7,2.8411999999999993,-3.240279457222222,mp-1326389
Na2MgGaF7,5.8978,-3.240176965023511,mp-1210433
HoZr6(PO4)9,3.7431,-3.23989304522665,mp-1213237
GdAl3(BO3)4,2.8774,-3.239803282333334,mp-15359
TbZr6(PO4)9,3.7259,-3.239782134777932,mp-1208780
RbYbF3,6.5181,-3.239705441250001,mp-6952
DyZr6(PO4)9,3.6918,-3.239680189297161,mp-1213567
NdZr6(PO4)9,3.6888,-3.239258979505495,mp-1210885
PrZr6(PO4)9,3.7127,-3.2391660540087,mp-1210300
KLaTiNbO6,0.0,-3.239127471558333,mp-1521711
Tm2MgNb2O8,0.2175,-3.23886803346154,mp-2219661
Nd3ReO7,0.0,-3.238833638181817,mp-17451
LuZr6(PO4)9,3.7405,-3.238757210451008,mp-1212494
TmZr6(PO4)9,3.7137,-3.238629021380495,mp-1208527
Li2Ti13O22,0.0,-3.238565259864863,mp-772150
Li13Ti22O48,0.0,-3.238429192248996,mp-530165
Nd2Be2GeO7,4.3178,-3.2384237737499992,mp-1209882
Mg4Al9Cu(SiO4)9,1.9894999999999992,-3.238361179322034,mp-695202
BaHfZrSnO6,2.6096999999999992,-3.2382949985,mp-1522542
Ba3SiO5,3.242199999999999,-3.238230593333332,mp-7765
SmZr6(PO4)9,3.7105,-3.238199491188187,mp-1209733
ErZr6(PO4)9,3.6848,-3.238150440707417,mp-1213575
KLaZrNbO6,0.0,-3.238007250225,mp-1522104
La3Ta(ClO2)3,0.0,-3.2379324124871802,mp-1194221
Ba8Ca3Nb5O24,0.0,-3.2377493855,mp-1228256
SrNb2O6,2.9977,-3.237719354444443,mp-4591
YZr6(PO4)9,3.6646,-3.237692065034341,mp-1208165
Li3Mg3Ti6O16,0.0,-3.237680050892857,mp-773055
Cs2KU2(Si2O7)2,0.0,-3.237675478111318,mp-862811
Cs2PrF6,0.0,-3.237667507962961,mp-1207345
Li2Ca2Si5O13,4.9381,-3.237581568484849,mp-560247
CaNb2O6,3.6052,-3.237535069722227,mp-17101
Mg3Al7(Si2O11)2,0.0156,-3.237399271666665,mp-1222670
Ba3Sr5Ti8O20,0.0,-3.237217688518519,mp-1099792
KTaTiO5,3.019,-3.237144989739583,mp-1223394
Dy2Cu(SiO3)4,1.1438,-3.236967285438596,mp-1213119
KCa12Si4S2O26F,4.2813,-3.236927001896739,mp-557227
Ca10Nb5InO24,2.7595,-3.236922844916666,mp-1227820
UNb2O7,0.0,-3.236827266499999,mp-29393
Y4Si2S3O7,2.4972,-3.236794268124999,mp-1020598
KLi3Ca7Ti2(Si6O19)2,0.0121,-3.236774455458994,mp-1197175
U2P2O9,0.0,-3.236731307252748,mp-4049
Li2MgTi3O8,3.3209,-3.236714967440475,mp-774752
Pr6O11,0.0,-3.236619709558822,mp-559771
UAlO3,0.0,-3.236607310999998,mp-972367
CeZr6(PO4)9,0.3357,-3.236440418207418,mp-555444
GdZr6(PO4)9,2.0873,-3.236379497918957,mp-1213641
Sr2P2O7,5.3704,-3.236136655616882,mp-5616
K2TiHF7,4.7659,-3.236035972643939,mp-1191204
NaAlCdF6,4.608499999999999,-3.236002949597701,mp-555048
Eu3TaO6,0.0,-3.235992456233334,mp-21406
NdAl3(BO3)4,5.1342,-3.235679775958333,mp-6535
CePr3O8,0.0,-3.235669708749999,mp-1226562
SrPuO3,0.0,-3.235445856749998,mp-1207172
Rb2NbF6,0.228299999999999,-3.235412826111109,mp-8994
CsUNbO6,2.1589,-3.235346197183908,mp-541096
Ca2CO3F2,5.1573,-3.2351668303125,mp-6246
K2Ce(Si2O5)3,2.187,-3.2351516241458342,mp-557649
K2Be2PbF8,5.547,-3.235091948807692,mp-7385
Pr4Si2S3O7,2.5994,-3.235089366666666,mp-16159
EuLuO3,0.0,-3.235025997333335,mp-1184309
CaZr2PbO6,3.131399999999999,-3.2348443912500002,mp-1227884
Ba6Ti5PtO18,2.0101,-3.234794147555556,mp-1228124
Ca4Be2Al2Si9(HO14)2,4.933,-3.234690236010637,mp-1214670
EuNb2O6,0.155199999999999,-3.234421745000001,mp-1201130
RbTaTiO5,3.0092,-3.234394786645834,mp-1219631
CeSF,0.0,-3.234072194166664,mp-4973
Ba2NbP2O9F,2.9846999999999992,-3.234071463619047,mp-1228528
La3Ta(Cl3O2)2,3.5677,-3.234032179809524,mp-1211290
Ba3Ce2O6,0.0,-3.233961353636363,mp-1178568
La2MgZr2O8,1.8305999999999991,-3.233899217307692,mp-1223309
NaAl3Si3O11,3.5332999999999988,-3.233641933132183,mp-1220919
Sr2SiCl2O3,5.1218,-3.233585709062501,mp-557304
Li2Y14Ti14(S2O5)7,0.0,-3.233333792447256,mp-774554
Ta2TiO6,0.0,-3.232986774777776,mp-1218045
Pr2SbO5F,3.5176,-3.232925002037037,mp-554138
NaSr2Ta3O9,0.0,-3.23257577255862,mp-1220872
Na3Hf4SiP5O24,5.071199999999999,-3.232537692631142,mp-2712934
CeO,0.0,-3.232231492499998,mp-10688
ZrPb2F8,5.28,-3.232141201818122,mp-541593
MgAl2(Si3O8)2,4.4704999999999995,-3.232082622199999,mp-1233307
SrCaTbTiO6,0.0,-3.231998538,mp-1522242
Na2LiTiF6,0.0,-3.231862227942528,mp-1113901
Tb3Si2Cl5O6,4.689599999999999,-3.231703675,mp-555097
CaU(PO4)2,0.141299999999999,-3.231684344523808,mp-9360
Cs2Ti4O9,3.0106,-3.231590101176247,mp-1213715
Ba2Zn3F10,4.2996,-3.231544782666666,mp-1214592
Al5O8,0.0,-3.231499842307692,mp-1182893
Cs2RbAlF6,8.3194,-3.231497278681034,mp-1113048
CsLi2Gd4(BO3)5,2.6009,-3.231391376653894,mp-1197930
CaMg3Si3O10,3.532199999999999,-3.231355348970588,mp-541026
TiSiO4,2.5681,-3.230934103888889,mp-1101756
NaCaAl3(SiO4)3,3.477299999999999,-3.230799311943965,mp-677223
Ba2Mg(PO4)2,4.8917,-3.230716365906592,mp-14558
Ba2UBeO6,1.7398999999999991,-3.230522032499999,mp-1205751
PrAl3(BO3)4,5.076200000000001,-3.230309770166666,mp-556804
Ca5Si2SO12,4.5199,-3.2301142225,mp-6607
Er2Sc2O5,0.0,-3.230066974999999,mp-1184138
Li2Ti3O7,2.9823,-3.229605154722221,mp-1190132
Zr3Cd3AgF20,0.0,-3.229559668024691,mp-555315
LiU4P3O20,1.838899999999999,-3.229446636955781,mp-555232
La4B10O21,4.139400000000001,-3.2294259009047632,mp-1019894
NdSeF,0.9158,-3.229419413854167,mp-12620
K3BeF5,6.0122,-3.229222521305556,mp-17895
Dy3Si2Cl5O6,4.7463999999999995,-3.229060918124998,mp-560593
Er2MgNb2O8,0.0502,-3.228935143461538,mp-2219651
Ti5PO11,0.0,-3.228700607135853,mp-767002
Sr4Nb3PO14,1.915999999999999,-3.228491788847402,mp-1249497
Sr3B6O11F2,5.3908000000000005,-3.228435161590909,mp-1202821
Nd5As2ClO10,3.2983,-3.22806242625,mp-558340
CeBrO,0.0,-3.227982858333332,mp-754112
Nd3TiCl5O4,3.546299999999999,-3.227981648525641,mp-1210034
SrAlBO4,4.5234000000000005,-3.227932575416666,mp-21563
Li7Ti12NbO30,2.6204,-3.227854914866666,mp-767146
NaLi2AlF6,5.8337,-3.227846432611113,mp-1111553
K4BaU3O12,2.069899999999999,-3.227797274949999,mp-1223997
Li7Ti11O24,0.0,-3.227670473333347,mp-766823
Ca9In(PO4)7,4.337099999999999,-3.227572116092591,mp-555661
LiAl(SiO3)2,4.9935,-3.227567057333333,mp-1222469
NaCeHfNbO6,0.0,-3.227528410137931,mp-1522830
Ca6Si3O13,0.339299999999999,-3.227319914772728,mp-734368
K2RbTiF6,0.0,-3.227283342533334,mp-1111427
Na2AlZnF7,4.8226,-3.227245769204545,mp-559982
LiTiAlO4,2.4977,-3.227161415952381,mp-1222338
KLaYNbO6,2.1338,-3.227024238225,mp-1516868
Pr3TiCl5O4,3.5656,-3.226706660641025,mp-1209739
Ca16Zr9Ta7N7O41,2.1683,-3.2265243563916672,mp-677269
BaY2ZnO5,3.0989,-3.226324356388889,mp-6121
NbAlO4,3.3835,-3.226094881666666,mp-27927
NaEuTi2O6,0.0,-3.225804675804598,mp-1221064
MgTi2Al4O10,0.0,-3.22550789127451,mp-2229104
LiTi8O13,0.0,-3.2254420693181842,mp-755797
Sr3Ta2ZnO9,3.4116,-3.225355410644444,mp-1103389
Sr4Sm2MgTa2O12,0.6167,-3.225242478555555,mp-1233834
KUNbO6,2.0161,-3.225167476916665,mp-554887
MgSnF6,4.9612,-3.22494402875,mp-1397451
Li2U3P2O15,2.2567,-3.224857878679661,mp-559539
Pr3ReO8,1.8179999999999992,-3.224797653750008,mp-16163
Sm2NbInO7,2.651399999999999,-3.224710367424242,mp-1219224
Ba2Ca(BO3)2,4.080500000000001,-3.224687858030303,mp-549737
TmO2,0.0,-3.224511891666669,mp-1206313
Ba3Yb2TeO5,0.0,-3.224398532613636,mp-1102819
NpPO4F,0.0,-3.224106013341837,mp-18560
CaLaGaO4,3.4555,-3.223998694642857,mp-559969
PuTiO3,0.0,-3.223825307416663,mp-1186812
BaTi(BO3)2,2.387699999999999,-3.223730964166665,mp-11659
Ba4Nb2O9,3.5089,-3.223448198000007,mp-1193166
MgSiO3,4.7797,-3.223359357250002,mp-3470
Li3U7(PO7)5,1.95,-3.223266602664285,mp-557826
Li2Zr2O5,3.934999999999999,-3.223184514074075,mp-772105
Ba2P2O7,5.3745,-3.223110419025973,mp-1019530
Rb2U(SiO3)4,2.4493,-3.222836115526316,mp-555974
Ca5P3HO13,5.1992,-3.222599094099027,mp-41472
KLaHf4O12,0.0,-3.222532139569445,mp-1520545
Pr2Be2GeO7,4.273899999999999,-3.222494771527778,mp-14415
La2MgSnO6,3.852900000000001,-3.222362244999999,mp-1211868
Sr5B3ClO9,3.9640999999999993,-3.222358900416667,mp-555203
CsRb2TiF6,0.0,-3.222323495798851,mp-1111392
Cs2Zr(SiO3)3,4.789899999999999,-3.222271184287356,mp-6694
EuSnF7,0.0,-3.2220897544444442,mp-21580
Li5MgTi12O24,0.0,-3.221978065992064,mp-767086
Li14Ti21O48,0.0,-3.221947902610442,mp-530600
Th4Mg(B2O5)4,1.2878999999999992,-3.221860481767676,mp-1233955
NaCa2TiSi2O8F,3.676199999999999,-3.221428657480842,mp-1263670
Sm3Si2Cl5O6,4.6078,-3.2213490909375,mp-556820
TaCdBF10,5.531,-3.221294619153846,mp-1198141
Nd5(BO3)4,0.257399999999999,-3.221195134246031,mp-1211058
K2Zr(SiO3)3,4.813,-3.221192822633334,mp-6600
Cs2U(Si2O5)3,0.270799999999999,-3.220900585804598,mp-1197866
Tb2MgNb2O8,0.737799999999999,-3.22082867602564,mp-2219376
KNaMg2Si4(O5F)2,5.2111,-3.220701618931466,mp-561491
KAl(SiO3)2,4.852099999999999,-3.220683370725,mp-554433
Na3CaAl4Si8ClO24,4.8258,-3.220490091076535,mp-684921
Ca5(SiO3)6,0.0,-3.220369612758622,mp-1227183
Ca10Ag(PO4)7,3.7416,-3.2201642245471,mp-1202534
Gd2NbInO7,2.4048,-3.220160537424242,mp-1224935
UPO5,0.019199999999999,-3.220146757806124,mp-505225
K3Ta8O21,0.0,-3.220135257981763,mp-757546
CsTiAlO4,3.8816,-3.219980293998358,mp-1225829
Li6Ti9O20,0.0,-3.219943830857143,mp-768114
LuGaO3,2.8917,-3.219932291166668,mp-768505
Na2Hf2Si(PO6)2,4.9143,-3.219848268265492,mp-2712619
EuDyTi4O12,0.0,-3.219138943888889,mp-1516639
Ba2EuNbO6,0.0,-3.2191303125,mp-13323
Eu3O4,0.0,-3.219082761428573,mp-1182716
BaNa2Ti2(Si2O7)2,3.3673,-3.218951309105447,mp-561352
Ho2B3O8,0.1139,-3.218674908653845,mp-1198383
NaSrZrNbO6,2.2647999999999993,-3.218598854137931,mp-1518090
Ca2YBeO5,0.0,-3.2182876,mp-1214112
Ba2CaCuSn2F14,0.0,-3.21821492675,mp-1361075
KNa2LiZr2(Si2O5)6,4.7585,-3.21811263486129,mp-851118
Ba2PrTiO6,0.0,-3.218090049499999,mp-1520146
NaMgTi3O7F,2.5349,-3.218012955490716,mp-1173615
NaPrHfNbO6,0.0,-3.217899045304598,mp-1522403
BaSrPrTiO6,0.0,-3.217729029999999,mp-1517332
Na2Ca3Si3O10,4.375500000000001,-3.2176857076532572,mp-556679
Ba2CaCuSb2F14,1.029999999999999,-3.2174847855,mp-1045646
Sr4Nb5O15,0.0,-3.217466105208333,mp-1218550
Na5U5O18,0.0,-3.217357688996305,mp-1197398
SrSi2O5,4.0548,-3.217079569374999,mp-560886
KSrCeNbO6,2.0721,-3.216986133474999,mp-1519196
MgTi2O4,0.0,-3.216973033809524,mp-27872
CsUO3,0.4571,-3.216834692931034,mp-865424
Dy2B3O8,0.117099999999999,-3.216313358141024,mp-1200687
Ba5Yb8Zn4O21,0.0,-3.216298012861844,mp-18204
Ba6Na2Si4O15,4.4294,-3.216130917879948,mp-560889
Ba3Ta2ZnO9,3.348799999999999,-3.216124539311112,mp-1214475
BaNb2O6,2.6146,-3.216098964999999,mp-28150
NaEuTiNbO6F,0.0,-3.215985867246605,mp-43048
BaCaP2O7,5.525,-3.215947813344155,mp-1019543
Ca5Al11TlSi13O48,2.5951,-3.215754748760684,mp-1254519
Na3HfF8,0.0,-3.215724050208333,mp-864765
Ba5Y8Zn4O21,3.409499999999999,-3.215541759342106,mp-1214479
Pr2TeO2,1.655599999999999,-3.215270251999999,mp-16032
LiUNbO6,1.8096,-3.215188622592592,mp-17807
BaSrEuNbO6,0.0,-3.2150346425,mp-1516637
NaMg3Si4O11F,4.4609,-3.214747376068965,mp-1173560
Eu3BeO5,0.0,-3.214733006666667,mp-579259
Gd3Si2Cl5O6,2.531,-3.214715929687502,mp-560513
Ba3Nb2(OF3)4,0.2686,-3.214557804999999,mp-733796
SrLaDySnO6,3.2292,-3.214551690166666,mp-1521737
Sr6Nb2O11,3.1919,-3.214226843947367,mp-686028
Be12Al8Si24O73,0.4887,-3.214127621752136,mp-1227693
Li2LaTa2O7,0.0,-3.214000063444443,mp-15901
Ba4HfO6,3.1648,-3.213950358181818,mp-756014
NaTmO2,4.0377,-3.213913110344829,mp-754796
LiGdO2,3.280399999999999,-3.213841752708333,mp-21332
Ca2AlSi2O7,0.0,-3.213836197916665,mp-1214098
Ca2BClO3,4.576599999999999,-3.213737082380951,mp-554263
HoSeF,2.8304,-3.213586852187499,mp-1095263
Eu2Be2SiO7,0.006099999999999,-3.213536435833334,mp-1212955
HfTlCdF7,4.9416,-3.213438970500001,mp-1212147
Ca2P2O7,5.734199999999999,-3.213395772435064,mp-17922
Sm4Ti4S4O9,0.0,-3.213340336111111,mp-1219148
Ba5Ca2Nb3O15,0.0,-3.2132903128,mp-1228343
Mg2PO4F,5.1652000000000005,-3.213282907611607,mp-6095
Mg2SiO4,4.6395,-3.213125702857142,mp-2895
BaNaEu(SiO3)3,0.0,-3.213023907425289,mp-1019735
NdSiO4,0.0,-3.212814813749999,mp-1101436
Sr14Nb6O29,3.0694,-3.212556973367347,mp-1173595
Ca4Be4P4O17F3,0.7892999999999991,-3.212437585267857,mp-1227653
NaAlSi3O8,4.8862000000000005,-3.21218744587533,mp-721988
Mg2BO3F,4.4508,-3.212177184880952,mp-7995
KTaSi2O7,3.5987,-3.211990915189393,mp-1223321
LiAlSi3O8,5.4216,-3.211568511025641,mp-1222571
CsBF4,7.6306,-3.211410478749999,mp-4057
Li5La4TiNb7O28,0.774899999999999,-3.211297158222222,mp-781824
Li3Ti6O13,0.0,-3.211134186136365,mp-754801
Y3Si2Cl5O6,4.5564,-3.211072767812501,mp-557092
Li4Sc3In(SiO3)8,4.7120999999999995,-3.210916266125,mp-1222563
Ba3BPO7,3.3373,-3.210525371984126,mp-554479
LiAlSiO4,5.2489,-3.210481965714286,mp-18220
Na2Zr(Si2O5)3,4.8774,-3.21046014209411,mp-1221344
Sr3Nd2Nb10O30,0.0,-3.210196111222222,mp-1218643
Ca8Be5Al3(Si9O28)2,0.0196,-3.210040931611111,mp-1227789
Na2Ti4O9,2.4709,-3.20994828040613,mp-849718
SrLi2Ta2O7,2.2704,-3.209786325944443,mp-558054
NaLaZrNbO6,0.0,-3.209760540637931,mp-1520149
Li3MgTi8O16,0.0,-3.209320799702381,mp-1177654
Sr6Nb7O21,0.0,-3.209138147205883,mp-1173080
Ce2TeO2,0.0,-3.209099825333325,mp-4873
Pr3ReO7,0.0,-3.209051400681818,mp-11207
EuZr6(PO4)9,0.0,-3.209011240322803,mp-582856
Na3Hf2Si2PO12,4.6472999999999995,-3.208672257064039,mp-2713249
KCaCeNbO6,2.0677,-3.208623010975,mp-1518415
Li2CaTa2O7,2.8142,-3.208296514277779,mp-1194523
SrCa3O4,3.3723,-3.208266763749999,mp-978844
Li2Ca2Ta3O10,0.0,-3.208209978745099,mp-15902
Cs2Al2Si3O10,4.5001,-3.207796784371195,mp-1201495
Cs2YAgF6,3.3465,-3.207796222097701,mp-1110987
Na5Hf4Si3(PO8)3,4.6967,-3.207764201730559,mp-2714052
Ca3Si2GeO9,4.3629999999999995,-3.207664781,mp-1227800
Ba2Ta15O32,0.0,-3.20763455,mp-28457
Sr2B2O5,4.283,-3.207617671759231,mp-5401
Ba3B6O11F2,5.2435,-3.207418152727272,mp-1195844
SrSi2(BO4)2,5.68,-3.207356374102564,mp-6032
NaCa2ZrSi2O9,0.137999999999999,-3.207294604758621,mp-1210586
Tb2Ge(BO4)2,4.6023,-3.207283677243589,mp-1204495
Sr2EuNbO6,0.0,-3.207159169500001,mp-1520209