formula,bg,formation_energy,mp-id
K2Zn3(P2O7)2,4.207899999999999,-2.5314932842639752,mp-560668
Rb2InAsF6,2.0591,-2.531457232916666,mp-1113906
NaTi2TlO6,0.0,-2.531405672137932,mp-1220881
SrB8O15,0.0,-2.531349616180556,mp-1196359
Na3Mg4Ta2P3(SO6)6,3.0439,-2.531281467920985,mp-2714414
Na4Cd2Si3O10,2.750499999999999,-2.5312733016061713,mp-556413
Er(PO2)3,2.7034,-2.531238225892856,mp-726097
Ba3NaSr(SbO4)3,1.5696999999999992,-2.531210567568965,mp-1228279
Ba2Ga2O5,0.0,-2.531156824444445,mp-862682
MgBO3,0.188799999999999,-2.531132217583333,mp-1199652
RbEuO2,0.0,-2.531090263125001,mp-20277
K2Th(AsO4)2,3.890099999999999,-2.531051792076922,mp-1195548
Na3Zr2Zn2P3(SO8)3,4.083699999999999,-2.530974285600897,mp-2713991
Ca8P6O29,0.0,-2.530917987275747,mp-1204649
SrCaEuSeO6,0.0,-2.530855032734375,mp-1517490
Na4CaGe3(PO4)6,1.924999999999999,-2.530744974694063,mp-2713698
Na5Al3Si3Ge(SO8)3,2.5681000000000003,-2.5306722731896563,mp-2713525
Na7ZnSi3Sn3(PO8)3,2.3817999999999993,-2.5306575541931,mp-2715044
CsY2Cl7,4.4204,-2.530575375250001,mp-1213252
Na6TaGa3Si4(SO12)2,3.002,-2.530536810411064,mp-2714358
Na7ZnGa3(PO4)6,3.679699999999999,-2.530452665040952,mp-2714162
Na2GaCuF6,0.0,-2.5303710120258622,mp-1111277
Na4MgGe3(PO4)6,2.397999999999999,-2.530284368246694,mp-2713678
RbBiF6,2.6387,-2.530267789687501,mp-27421
Li3B8O15,0.022799999999999,-2.530201468974359,mp-1203033
Er2Cu(GeO3)4,0.7189000000000001,-2.530019172105263,mp-16057
Y2Bi2O7,0.0,-2.5299941572727263,mp-772305
Na2B3HO6,4.8035,-2.529860725854885,mp-706631
Rb2CeCl5,0.1385,-2.5298595321875,mp-1210098
MgTi3Nb(CuO4)3,0.0,-2.52985683975,mp-2231811
EuMgO3,0.0,-2.529818963000001,mp-972931
GaBO3,3.8638999999999992,-2.529754526333334,mp-1078259
Na14Mg4Al4Si5S7O48,3.5076,-2.5297264108757362,mp-2715869
Cs2AgSbF6,2.3185,-2.529717503097701,mp-1113227
Na4Mg2Sc2SiS5O24,3.1141,-2.529692309465366,mp-2713171
Cs2CdP2O7,3.3607,-2.529674210924671,mp-1195999
TlBi3F10,4.4399999999999995,-2.529673092499998,mp-1208058
Na6Ta16Zn8Si15(S7O48)3,2.1271,-2.529561070776711,mp-2716207
Al3Si3Ag4IO12,2.364,-2.5295411824637672,mp-1214863
Eu2MgPtO6,0.0,-2.529529814000001,mp-1213021
Nb2CuO6,0.0,-2.529519172777778,mp-1204490
Na6Mg4Nb4Si5S7O48,0.7597,-2.529507661677152,mp-2715972
Li3In(BO3)2,3.5761000000000003,-2.52946278625,mp-556799
Ba2ErMgRuO6,0.0,-2.5293800413636363,mp-2217885
Rb2BaCl4,5.0665,-2.529308972857143,mp-1219789
Na18Mg8Nb4Si9(SO8)9,0.3054,-2.529245286436063,mp-2716184
Li2SiBSbO7,2.8440000000000003,-2.529241510902777,mp-772132
NaSn2(PO4)3,3.3552,-2.529182972794856,mp-6525
Ba4Er(RuO4)3,0.0,-2.5291382745,mp-984788
K2LiPdF6,0.3787,-2.529128587783332,mp-1205646
K2Ca2(SO4)3,5.6275,-2.529100358789472,mp-15600
Ba3NdIrRuO9,0.0009,-2.529088223500001,mp-1228241
LiSn2(PO4)3,3.4851,-2.528996888181216,mp-554917
Li3BePCO7,5.4524,-2.528939619587912,mp-771341
SmRhO3,0.7331000000000001,-2.528890301999999,mp-3317
Na5In2SiSn2P5O24,2.611799999999999,-2.528781585729338,mp-2716003
LiPr(SO4)2,5.3953,-2.528643631666666,mp-559719
Ba2Ga6O11,2.937399999999999,-2.52860963868421,mp-778485
Th2PNO,1.3129,-2.5286091569285722,mp-1217271
Ca2CuO3,0.0,-2.5285758308333333,mp-5869
MgCu(PO3)4,0.295199999999999,-2.528450964087301,mp-1045729
Ba3Ga2(Ge2O7)2,2.258999999999999,-2.528351630217391,mp-554139
LuTlO3,1.0776,-2.528349047500002,mp-754597
DyCO4,0.1064,-2.528252140833334,mp-1200026
Y2Pb2O7,0.998699999999999,-2.52819351772727,mp-752849
NaHfGaSi(SO6)2,3.448899999999999,-2.528162345956258,mp-2712690
Na5Zr2Si12O37,0.0,-2.528144522533866,mp-1221060
CaHo(SbO3)2,0.0,-2.5281438224999992,mp-1049288
Na6Nb4In4Si7S5O48,1.8127,-2.5281204385465212,mp-2713003
Sr3NdCuRuO8,0.0,-2.528084927678571,mp-1218490
Na10La4Si7Ge4S5O48,1.1153,-2.527966893178972,mp-2714174
Na4In2Si(PO6)2,3.1895,-2.527965774673157,mp-2714510
CaSiO4,0.0,-2.527914951666666,mp-1191741
Zr2Al2SiS5O24,3.4535,-2.527900512279412,mp-2713096
Na30Mg16Nb8Si15(S7O48)3,1.245,-2.527900254354186,mp-2715198
SrLaCuSbO6,0.368299999999999,-2.527859491000001,mp-1218225
Rb2Al2Sb2O7,3.5936,-2.527796269230769,mp-556275
Na14Mg6Ti2Si5S7O48,0.8538999999999991,-2.5277737501033792,mp-2716101
Cs3HoCl6,5.1094,-2.527698744896551,mp-1214360
Na5Ga3Ge(PO4)6,2.617899999999999,-2.527651802280009,mp-2713511
Na3MgPCO7,4.5243,-2.527641944136984,mp-768154
CsMg14BO15,0.085399999999999,-2.527621758510382,mp-1099260
Mg3Si4(AgO7)2,0.6494000000000001,-2.527609586231883,mp-1260237
DyCl3,3.8954,-2.527565295624999,mp-28448
Na6Ca6Zr2SiS11O48,2.8169999999999993,-2.527563016451926,mp-2712716
Na3GaSn3(PO4)6,2.846,-2.52733045057194,mp-2714781
Ba3YIr2O9,0.0,-2.527327743333334,mp-1205382
AlSbO3,3.9107,-2.527291851499999,mp-1261047
BaSrInSbO6,0.7664000000000001,-2.5272681256666663,mp-1519864
K3Li3P6O19,0.000299999999999,-2.527187851277649,mp-1197664
BaHfMg6O8,0.2202,-2.527097362499999,mp-1033337
Na2TiZnP2SO12,2.0055,-2.527087144888298,mp-2713247
BaTi(AsO4)2,2.4211,-2.527016124861111,mp-1214314
Cs2Li2TiO4,3.955399999999999,-2.526923392701148,mp-8294
NaLaGeP2SO12,1.5206,-2.526858680083243,mp-2712754
Na3CuF6,1.2227,-2.5268329995,mp-1210463
Tm2C(NO)2,4.0331,-2.526824120714288,mp-13039
Mg6TiBO8,0.092999999999999,-2.52681432703125,mp-1031319
Nb4Zn2P6(SO12)3,2.4386,-2.526777520987395,mp-2713213
Sr4LiCu(CO5)2,0.9619,-2.526757375185186,mp-753353
Ba3LaBr9,3.0509,-2.526689624615384,mp-772024
SnP2O7,4.0847,-2.52654159542857,mp-757192
Sr3LiBiO6,2.1229,-2.526498112121212,mp-1218428
Nb4Ag2O11,2.342799999999999,-2.526391012549018,mp-1199011
Na2Nb5Ga3Si6(SO8)6,1.581,-2.526352050146552,mp-2714013
ErCO4,0.1383,-2.526348090000001,mp-1196391
Na2InGaF6,1.861899999999999,-2.526253784692528,mp-1111022
HoCO4,0.1253,-2.526162929537037,mp-1200004
CsMg14SbO16,1.964999999999999,-2.526122384364224,mp-1035313
YHSO5,5.5269,-2.525894708125,mp-707095
Mg3Sn2O7,2.2473,-2.52589346625,mp-1374431
SrLiEuTeO6,0.0,-2.525880272,mp-676932
CsGaP3HO10,4.8914,-2.52582192045836,mp-1200666
K2Ga2B2O7,3.7999,-2.525803064064103,mp-561525
Li3SiO4,0.0,-2.525796783125,mp-1211198
Na7In4SiP5O24,3.2279,-2.5257789017773042,mp-2715638
Na9Ca10Ta2P3(S5O24)3,2.6988000000000003,-2.525721991653235,mp-2712686
Eu(ReO4)2,0.2764,-2.5257097918181812,mp-2929310
Li5Cu(PO4)2,1.886,-2.5257030972470242,mp-755821
MgTi2(Ga2O5)2,0.0,-2.52566449009804,mp-2224755
NaP3PbO9,4.7838,-2.525624825200563,mp-1210272
K2Sb2S(O2F3)2,0.0,-2.525605557966666,mp-557470
Na14Ca8Si3(S3O16)3,2.889199999999999,-2.525455575408257,mp-2714411
NaNdB6O13,0.0,-2.525449264708539,mp-1198569
KBiF6,2.7061,-2.525346131843749,mp-504669
Na7In2Si3Ge2(PO8)3,3.004499999999999,-2.5253457274857842,mp-2714776
Cs2NbCuF6,0.0,-2.525266929000003,mp-1113104
LiSiBiO4,3.455699999999999,-2.52526634547619,mp-753327
NpSiO3,0.0,-2.5252317567500002,mp-1186349
DySeO3,1.8154,-2.525142906302083,mp-769393
Sr3U(Te2O7)2,1.9479,-2.525099917348484,mp-555451
Na5Y2Zn2P3(SO8)3,3.815,-2.525093437606628,mp-2714907
Li3Sn2P5O16,4.0919,-2.524975561662088,mp-684470
Na3CaGaP2SO12,2.6008,-2.524969013671182,mp-2712590
Na4La2Mg2SiS5O24,3.5053,-2.524966704202208,mp-2713374
MgTiAg(PO4)3,0.0,-2.524876952718253,mp-1043707
Na14Si11Ge8SO48,3.0327,-2.524851794066794,mp-2714501
Ho2Cu(GeO3)4,0.7174,-2.524809020526315,mp-16056
BaScZn3GaO7,2.312,-2.524743170192308,mp-1192501
UTl2O4,1.511299999999999,-2.5246934652380952,mp-1025154
Na8Ca3Si3Sn(SO8)3,1.5146000000000002,-2.524502266393679,mp-2715168
SrCa3(PbO4)2,1.9231,-2.524493525714284,mp-1218448
K3B5PH2O13,0.0901,-2.524466790405258,mp-1224640
Li2MgGeO4,3.7673,-2.524434063333333,mp-1210797
Na4Ca3TiSiS5O24,1.5790000000000002,-2.524353779377647,mp-2713352
TaAsO5,3.0581,-2.524299438904761,mp-1208608
Ba4Ho(RuO4)3,0.0,-2.5242508937499992,mp-560380
Na8CaSi5Ge3SO24,1.6537000000000002,-2.524129954449234,mp-2716272
Ti(GeO3)2,3.1302,-2.5240666781481482,mp-1042864
NaEuTiBiO6,0.0,-2.524028654471266,mp-1521547
Ba3YRuPtO9,0.2155,-2.524015475333334,mp-1228242
Ba11(OsO6)4,0.0,-2.523989859615384,mp-559484
K2TlAsF6,2.726,-2.523982153533333,mp-1111426
CsK2PdF5,1.866099999999999,-2.523919631572797,mp-8959
SmHSO5,5.6617,-2.5238831414062513,mp-1005754
YbTaO3,0.0,-2.523844561716669,mp-1187479
NaTiAsO5,2.9036,-2.523824578089081,mp-1201259
NaMg2Zr2PS5O24,3.2805,-2.523789807910158,mp-2714060
Na10Y4Ga4Si5S7O48,2.9609,-2.523779177602049,mp-2715204
Li2BiP3O10,2.7205,-2.523466715349703,mp-759915
BSF7,4.9968,-2.523463705740736,mp-27349
Cr2P2O7,0.657,-2.52345086948052,mp-554453
BaMg14CO16,2.009,-2.52338194046875,mp-1033873
NaNd(CO3)2,4.6697,-2.523357108387931,mp-1210138
Ba2HoMgRuO6,0.0,-2.523314379999999,mp-2215955
Sm4B18Cl3O38,0.0,-2.523236101111111,mp-1202477
NbSbO4,2.4311,-2.523132912916659,mp-3491
Ba2LiLaIrO6,0.0,-2.5230691962121212,mp-1235355
KZr2(AsO4)3,3.996,-2.523060768041666,mp-541282
K2TiZnO4,3.6582,-2.522992791916666,mp-1211941
NaNbO2,1.378099999999999,-2.522986689094827,mp-3744
Ti2P2H4O11,2.7606,-2.5229611500501252,mp-703342
Na3Ca3TiPS5O24,1.8986,-2.522949843052635,mp-2713683
Ti2ZnSn2O7,2.874399999999999,-2.522947715138889,mp-1120808
NaY2Sn2P3(SO8)3,1.7546,-2.522900841175464,mp-2716294
Na6ZnSi2Sn3(PO6)4,2.417499999999999,-2.522897122546183,mp-2715400
Ca2P2H4O9,5.0576,-2.522842363487395,mp-706426
LaZnO3,0.0,-2.522841183999999,mp-1184965
NdHSO5,5.5634,-2.5227817498437513,mp-23831
Na10Sc4Ga4Si5S7O48,3.3498,-2.52277615431145,mp-2715000
K2InHgF6,0.0,-2.522760323366667,mp-1112199
Ca2Nb4Si3(SO6)6,1.6964,-2.522717230098039,mp-2713449
Na3RuF6,0.0,-2.522667442375003,mp-1114133
Rb2Ga2B2O7,3.8892,-2.522656442179486,mp-560010
BaGaB4H3O10,4.976,-2.522508563311403,mp-1194652
Na2AlInP2SO12,3.814899999999999,-2.52247039094093,mp-2713612
CaHf(SO4)3,4.6781,-2.5223335425,mp-2713912
Na6Mg3ZrSi2(SO6)4,2.373,-2.522186822331897,mp-2712628
Na2SiSnGe(PO6)2,2.8829,-2.522098470458474,mp-2712730
SrZnCu(PO4)2,0.8401000000000001,-2.52207390032967,mp-1046155
Li2Sb(PO3)5,3.967399999999999,-2.522012335429607,mp-684477
Li3Sb(PO4)2,3.242899999999999,-2.522000160663265,mp-774714
KInBP2HO9,4.1152,-2.521956283241271,mp-1193408
AlB2Pb6(OF)7,2.963,-2.521819902318839,mp-1229224
Na2GaAgF6,1.5786,-2.521764819192527,mp-1111329
NaPr(CO3)2,0.0003,-2.5217468303045982,mp-1210097
RbZr2(AsO4)3,4.1924,-2.5217329800000012,mp-1194730
Ca3Si2(H3O5)2,4.7397,-2.521615371309523,mp-696156
NaSm(CO3)2,4.6763,-2.521353930137932,mp-1210126
Dy2Cu(GeO3)4,0.720299999999999,-2.5213368922807002,mp-22196
NaTaZnP2SO12,2.7079999999999993,-2.521325086601761,mp-2712717
K2USO7F2,0.152999999999999,-2.521229281692306,mp-863004
NbBiO4,2.938799999999999,-2.521130047083335,mp-23413
Rb2Na2Al3(GeO4)3,0.0,-2.5211253928526642,mp-1209752
LaSO5,0.7914000000000001,-2.520979494642858,mp-1193569
BaCaEuSeO6,0.0,-2.5209609027343762,mp-1516685
Nd3S2Cl5,3.2203,-2.520952851312498,mp-556023
Na2P2PbO7,4.2908,-2.520906898087027,mp-555933
CaB8O15,0.0,-2.520806615347222,mp-1200314
Na42Mg20Ta4Si15(S7O48)3,1.9158,-2.520779668555953,mp-2715931
ZnBiF5,4.0915,-2.520686305357145,mp-1371936
Na5Si3Ge4(PO8)3,3.149,-2.520682490448508,mp-2714023
LiSn(PO3)3,4.1152,-2.520665561232993,mp-504211
Zr3TePb4O13,1.812599999999999,-2.520654756746032,mp-1215669
TiBi(PO4)3,0.2153,-2.520460233956581,mp-1043764
Ca2RuO4,0.0,-2.520399839285713,mp-21466
KSiHO3,5.0573999999999995,-2.5203610678749993,mp-707195
NpB8O17,0.1041,-2.5203422716185893,mp-1197731
SrNb2CuClO7,0.0,-2.520188404583333,mp-1232359
K2CdP2O7,3.779499999999999,-2.520177943648808,mp-554382
CsMg14BiO16,1.9598,-2.520174896239224,mp-1035309
Na2UO3,0.0,-2.520093079626435,mp-1173743
Ba3Er2Cu2PtO10,0.0,-2.519987186666666,mp-8837
NaCd2(SiO3)3,0.219,-2.519888704091954,mp-1193671
Li4Si2O7,0.0,-2.519877382179486,mp-1193913
NaNd(SO4)2,5.5386,-2.519789294906608,mp-6455
RbInBP2HO9,4.0472,-2.519782575257936,mp-766175
Rb2Th(AsO4)2,3.9186,-2.519719306538459,mp-1195622
TlSb3F18,2.2817,-2.51956744219697,mp-1199017
YNb(TeO4)2,2.4013,-2.519453453402777,mp-1194612
Li10Ge(PO6)2,4.4932,-2.519420708904761,mp-632815
CdB2XeF10,2.8874,-2.519370684880952,mp-559282
BaCu2Si2O7,0.0,-2.519344026666667,mp-22407
Na14Al4Ga4Si7S5O48,3.2196,-2.519087100245655,mp-2715613
LiSb(PO3)4,4.6713000000000005,-2.519053130661376,mp-504353
Cs2KLuCl6,5.2423,-2.518982010322701,mp-1112760
CaPrMgBiO6,1.6036,-2.518909539666666,mp-1522801
NaMgTaSi(SO6)2,1.5418,-2.518906142521073,mp-2712720
Na3Nb6Bi5O24,1.8875,-2.518849020635209,mp-1221291
PuTlO3,0.0,-2.518833282916666,mp-2647162
Sc(ReO3)2,0.0,-2.518813405000001,mp-558610
CsEr2Cl7,4.5883,-2.518702832916665,mp-1213445
CsSiSbO5,2.191699999999999,-2.5186570155818973,mp-1226548
Na2Nb4Si7Sn4S5O48,1.6261,-2.5185961789560762,mp-2715537
NaCd(PO3)3,4.706399999999999,-2.518585510914848,mp-15250
CaBiCO4F,2.2248,-2.518562926875001,mp-556666
Na5Ga2SiGe2P5O24,2.614299999999999,-2.518561318421645,mp-2715877
Na3NbIn3P5SO24,2.3787000000000003,-2.518493235356366,mp-2715967
NaAlSnP2SO12,3.191999999999999,-2.518383795546205,mp-2712615
Na7Al3ZnSi3(SO8)3,3.671099999999999,-2.518354633629802,mp-2714185
NaTi8Cu6BiO24,0.0479,-2.5183309204511493,mp-1210081
Tb2Cu(GeO3)4,0.7162000000000001,-2.518235522807017,mp-10966
Li3Sn2(PO4)3,2.5065,-2.518207703196427,mp-26701
Li2Bi(PO3)5,4.3678,-2.518122031733955,mp-759735
UH2C(OF)3,0.1751,-2.5180648755000012,mp-1200440
Na3PO4,3.9187,-2.518010732972598,mp-674333
BaAl3P2(HO7)2,0.0,-2.517980785990258,mp-696776
Na5Sc2Zn2P3(SO8)3,4.0581,-2.517956578546798,mp-2714826
Eu2CuO4,0.0,-2.517811431428571,mp-22306
NbAlSi(SO6)2,2.1362,-2.517594647156863,mp-2713477
LaSeCl,1.336,-2.517520758020834,mp-1102246
RbNa2AsF6,2.6812,-2.517516174775862,mp-1111406
NaTi4(CuO4)3,0.0,-2.517509082235631,mp-1210001
Li3Sn(PO3)6,0.2218,-2.5174814418877562,mp-673096
Na2UTeO7,1.880799999999999,-2.517456909947752,mp-1190512
Na2Hf4Mg4SiS11O48,2.8941,-2.517445846408457,mp-2714219
Cs2NpO3,0.0,-2.517444898010058,mp-754973
Na2Ca2Ti2SiS5O24,1.2486,-2.517421639266444,mp-2714520
Ca2Sn2F3,0.0,-2.517381592857142,mp-674232
PrHSO5,5.622,-2.517369346927084,mp-1203810
Na6Mg4Ti4Si3(S3O16)3,1.174099999999999,-2.516961320438413,mp-2714002
Na6Ca4SiS5O24,3.5223,-2.51679011047773,mp-2714549
RbSm2Cl7,4.4664,-2.516778912124999,mp-1209170
Cs2BaCl4,4.9334,-2.516765029187193,mp-1229192
Na5Mg2Ge2P5SO24,1.676699999999999,-2.516724339596859,mp-2715032
MgTiNb2(PbO3)4,2.3747,-2.516721744416666,mp-686836
Cs2Th(AsO4)2,3.6164,-2.51670343571618,mp-1192509
Al2Si2O9,0.0,-2.516657111923078,mp-1103547
CsTm2Cl7,4.6387,-2.516597611500001,mp-1213262
Na9Ta7Zn5Si9(SO8)9,2.1744,-2.516522809470696,mp-2714738
NaEuNbSbO6,0.0,-2.516454434637931,mp-1520089
Rb2TaCuF6,0.0,-2.516365576233333,mp-1113790
Na3InSn3(PO4)6,0.5745,-2.5161692616304983,mp-2716519
K2RbPdF5,2.2313,-2.516116336888889,mp-14334
Sm2Cu2O5,0.5265000000000001,-2.516066302777778,mp-768866
Rb2Yb2O5,0.0,-2.5160349862499998,mp-980056
Cs2KHoCl6,5.2294,-2.516008354156034,mp-1207104
Na2Ti3ZnSi2(SO6)4,1.1356,-2.515931263965518,mp-2712684
Na5In3Sn(PO4)6,2.4491,-2.515812093839839,mp-2713505
KCe(SO4)2,0.339599999999999,-2.5156903197708322,mp-1211829
LiTi2Zn2(PO5)2,0.0,-2.515639486428572,mp-1235872
Ca5Te3O14,1.8605,-2.515575597499999,mp-559210
Nb2Hg3S(O2F5)2,2.3509,-2.51551965075,mp-541093
Na2Ca5Hf3(SO4)12,3.4362999999999992,-2.5152134146108382,mp-2714915
Ba2YCuO5,0.0,-2.515164109444444,mp-1214594
Na8MgSi5Ge3SO24,1.5748000000000002,-2.515105559171457,mp-2715713
NaSi2BH2O7,3.9917,-2.515085125234305,mp-862999
CsRe3(O3F5)2,3.0473,-2.514888288607758,mp-541867
CaAl2H4Pb2(O2F3)2,1.1089,-2.51484894236842,mp-1233986
Ba3PrIrRuO9,0.0,-2.514812713777778,mp-1228216
Ba4Tb(RuO4)3,0.0,-2.514739077833333,mp-6049
NaMgSc3(SO4)6,3.994499999999999,-2.5146566402775052,mp-2714852
Cs2Ga2B2O7,4.0051,-2.514526220011051,mp-556330
Ba3Ho2Cu2PtO10,0.0,-2.514514268333333,mp-558231
Na10Y4In4Si5S7O48,2.6696,-2.514369102901194,mp-2715165
Na6Zr2Zn2Si3(SO8)3,1.8169,-2.514368926436064,mp-2716274
CsRb2PdF5,2.3387,-2.514136872739464,mp-8202
Na6Zr4In4Si5S7O48,1.331699999999999,-2.514112096181656,mp-2715956
Cs2KTbCl6,5.0878,-2.514091067322701,mp-580631
Na12NbZn5(PO4)9,2.100399999999999,-2.514000257116466,mp-2715054
KZnPO4,3.888,-2.513886915925169,mp-653973
Li2Sn(PO3)5,0.1125,-2.513773720864388,mp-757947
CsLu(SO4)2,5.3528,-2.513759525110153,mp-1213663
LaNb2HO7,0.0,-2.513518780113636,mp-1205881
RbZnPO4,3.7149,-2.513455971734693,mp-18463
Na10La4Ga4Si5S7O48,2.8849,-2.5134101764909382,mp-2715206
Na2CuF4,0.9147,-2.513408554285714,mp-3237
Cs2Al2Sb2O7,3.6378,-2.513358363408488,mp-557359
Na2Ta2Al6Si3(S3O16)3,1.662999999999999,-2.51329331868941,mp-2716282
KSiPCO7,5.33,-2.513290767444805,mp-772843
Rb2AgSbF6,2.168,-2.513192742666666,mp-1110787
Cs2HgSbF6,0.0,-2.513057586181035,mp-1112957
CsSc(SO4)2,4.1888,-2.51303084913793,mp-1213159
Na3Ca3Y(SO4)6,4.8298000000000005,-2.51288865835508,mp-2714937
Rb2CuBiF6,0.9599,-2.5127164175,mp-1113817
CaSb2P2O9,2.2615,-2.512682471556122,mp-1044815
Na2Ti2Si3Sn2(SO8)3,1.4854,-2.5126688547757032,mp-2713400
TmCl3,4.918,-2.512653630624999,mp-28044
ReSbOF9,0.9941,-2.512612063333333,mp-541654
Na18Ca16Nb8Si9(S3O16)9,0.5582,-2.512587791519494,mp-2713788
Li3Bi2(PO4)3,4.0294,-2.512523591821428,mp-684504
Na8Ca3Si3Ge(SO8)3,1.486899999999999,-2.51249468329844,mp-2715061
NaSc2Sn2P3(SO8)3,2.2335,-2.512329474699273,mp-2716351
Na3Al4O8,0.0,-2.512257606942528,mp-1210303
NaTeF5,5.2511,-2.512249105714286,mp-29355
Na4Sc2Si3Ge2(SO8)3,0.748599999999999,-2.512206566614489,mp-2713721
Na4Mg3TiP2(SO6)4,1.6748,-2.512043082275517,mp-2713136
Li8HfO6,5.4201,-2.512032497111112,mp-752922
CaLa2Cu2O7,0.0,-2.511980738749999,mp-1213978
NaLa2Sn2P3(SO8)3,1.6198,-2.511970096032607,mp-2716337
SrLaTl(AsO4)2,3.5498000000000003,-2.511914951025641,mp-685195
Er2C(NO)2,4.0097,-2.511802817857142,mp-6574
ZrNF5,1.972,-2.511784413571429,mp-732208
Cs3NdCl6,5.0145,-2.511718898646552,mp-582081
Li4Cu(PO3)6,1.1395,-2.511693298316914,mp-760683
Na10Hf2Mg6Si3(S3O16)3,2.9427000000000003,-2.511692055016579,mp-2714914
Zn4B6O13,3.4134,-2.5115879147826092,mp-4812
Rb2GaAuF6,0.7904,-2.511523400249999,mp-1110591
RbSbBrF3,3.7548,-2.511351812916666,mp-555234
RbMg14CO16,0.0,-2.511134900703124,mp-1034162
La5Cu5O13,0.0,-2.511112312608697,mp-753437
CaBi2B2O7,3.1706,-2.511083403819443,mp-557371
Rb2CuF4,0.0,-2.511020542142858,mp-1025177
Sr3LiIrO6,0.0,-2.511016590757576,mp-6071
Na8ZnSi4Ge3(PO12)2,1.987299999999999,-2.511002564015561,mp-2715549
Sr4BiO7,0.1803,-2.5109672195833332,mp-1191534
Sr2SO,2.1896,-2.510918483124999,mp-1018030
Ag2B8O13,3.4397,-2.510655715724636,mp-554873
Na10Hf4Zn4Si5S7O48,3.568699999999999,-2.510495117943929,mp-2715049
Cs2RbLaCl6,4.4364,-2.510476549181034,mp-1112126
NaEu2Cl6,0.0,-2.510327679412515,mp-676909
Na2InSn(PO4)3,2.5843,-2.510323269387045,mp-2713574
Mg7Cu2O9,0.0,-2.510196606111111,mp-760490
LaHO,2.431499999999999,-2.510143050416665,mp-28255
Na4SrSi8O23,0.1118,-2.51008885598659,mp-1201366
Na5Sr2B10(CO13)2,0.0,-2.510079756079184,mp-1210602
MgCuP2O7,0.3723,-2.510072194935064,mp-1041741
Na4CaZnP2SO12,3.885,-2.510070067331887,mp-2712977
NaCaSc(SO4)3,3.8249,-2.509898507159961,mp-2714142
TiZnP2O7,0.0,-2.509878132283549,mp-1044096
Mg3Cu2(SiO4)3,0.3795,-2.509870518124999,mp-1265011
La2NCl3,3.4216,-2.5098067960416652,mp-1103604
CaSn3(P2O7)2,2.5976,-2.509746150389609,mp-1047074
Cs2KYCl6,5.1935,-2.509723881656034,mp-1112690
Ca2As2O7,3.3366,-2.509705237272775,mp-6929
LiSiPCO7,5.9178,-2.509500469816017,mp-768161
CaTi3SiS5O24,1.615999999999999,-2.509471423651961,mp-2713108
KUPO7F,0.1532,-2.509388504035713,mp-1204594
Ba5Ru2Cl2O9,0.0,-2.509366172777778,mp-556443
Na2Hf4Si5Ge4S7O48,1.6584999999999992,-2.509249594217982,mp-2716152
Be(GaO2)2,2.8899,-2.50923507595238,mp-757917
Rb6Ti2O7,3.4079,-2.509190043444444,mp-770408
KSc(SO4)2,4.2783,-2.5091029481041662,mp-1211342
CsGaAgF6,0.3707,-2.508966887369093,mp-1213239
Cs2GaAuF6,0.9632,-2.508960635681034,mp-1112947
MgCuF5,0.0,-2.508810295,mp-1404142
Na3CaSn3P5SO24,1.7912,-2.508734425221231,mp-2715934
ZrTiZn4O8,1.7809,-2.508724112380952,mp-1215235
Sb9Se4F39,1.9538,-2.508615804939903,mp-15380
Na6Y4Mg4SiS11O48,4.3589,-2.508613208298773,mp-2713632
CsGd2Cl7,2.621299999999999,-2.508595772500001,mp-1213349
K3Si5H2O11,0.000699999999999,-2.508556156630951,mp-1212247
TaTi9Al3Zn23O48,1.653299999999999,-2.508509041634921,mp-695545
Na12Ca10Ta2Si3(S5O24)3,1.7088,-2.508487414857179,mp-2713517
Ti12Cu9(BiO18)2,0.0659,-2.508431548305085,mp-1217434
Li2SnBPO7,2.908299999999999,-2.508353388789681,mp-771707