formula,bg,formation_energy,mp-id
Na2TaSi2SnPO12,3.637,-2.84021462410885,mp-2715149
KLaPrSbO6,2.8163,-2.840144074141666,mp-1519857
Pr2MgPtO6,2.0522,-2.8401390708333323,mp-1209742
Na2TiHgF6,1.8645,-2.840118243859196,mp-1111410
K3Zn2F7,4.0269,-2.840116175562499,mp-3125
BaNdCuBO5,0.0,-2.840101411296296,mp-10350
LaTiNbBi2O9,1.7236,-2.8400828741666673,mp-636654
NaTiP2O7,0.077499999999999,-2.840055451045305,mp-17461
SrNb3NO7,1.5964,-2.840044517500001,mp-775922
Sr5P3O14,0.124699999999999,-2.839996267451297,mp-1208724
Na2YNb3Si4(SO12)2,1.917,-2.8399705959562582,mp-2715697
Na10Y6Nb2Si7S5O48,2.1673,-2.839914067751621,mp-2716109
Rb2ZnF4,4.3870000000000005,-2.839872417857142,mp-1025286
LaP5O14,5.0007,-2.839770411660713,mp-1204624
Cs2Sb2OF10,3.8868,-2.8397373359540232,mp-572332
Ca3La2Sb3O14,0.0,-2.839409467272727,mp-1214026
Sr2LiLa2RuO8,0.7240000000000001,-2.839391256845237,mp-1173277
Na4Mg3P4O15,4.9429,-2.8393778234264873,mp-1020162
SrMg30CO32,3.0427,-2.839307070859374,mp-1038644
K2ZnSi3O8,3.2442,-2.839284471035714,mp-1224204
HfTi(PbO3)2,2.2028,-2.839151304333333,mp-1224442
Sr4CeNd3Nb2(CuO5)4,0.0,-2.839071058897058,mp-1218607
Ca2B8O15,0.192299999999999,-2.839066655533332,mp-1214238
Ba2Ca3Ti4Tl2O12,0.0,-2.8390612352173923,mp-1047819
RbNbO3,3.3093,-2.8390510185,mp-3283
Ba2YMgNbO6,0.0,-2.839006473181818,mp-2217320
Na5La3HfSi3(SO8)3,3.5504,-2.838952764642647,mp-2713176
NaNb3InSiP5O24,2.356999999999999,-2.838943774607436,mp-2715811
Na30Mg8Ta16Si27(SO16)9,2.067999999999999,-2.8389300220350973,mp-2714251
Tm2Sb2O7,2.1311,-2.838892175757577,mp-777990
KAl2Si4(HO6)2,0.0,-2.8386810930833333,mp-1211839
Sr3Li6Nb2O11,3.3726000000000003,-2.838646036363636,mp-1208770
Sm3B3O7,0.8086000000000001,-2.838613515192307,mp-1173570
Li3U7(AsO7)5,1.7877,-2.83852460705,mp-1223319
Ca2Nb2SbO8,0.0,-2.838502103461537,mp-1043626
Na3TaSi3GeO12,3.4343,-2.838445282823563,mp-2715458
RbMg30BiO32,3.1355,-2.8382877635546873,mp-1039634
NaZr3NbSi3(SO8)3,1.7636,-2.838165873348933,mp-2713813
Ca(BO2)3,0.5526,-2.838158158,mp-729083
CaEr2(GeO3)4,3.1907,-2.838122920263158,mp-1227561
SrCaCu(PO4)2,0.8914999999999991,-2.837925794175823,mp-1046249
K2Sr(PO3)4,5.6094,-2.837911568582707,mp-558990
SrTa2Bi2O9,2.514199999999999,-2.837897215333334,mp-23089
BaZnP2O7,4.3419,-2.837881770389609,mp-14345
Ce2S2O,0.0,-2.8378332749999973,mp-755777
SrCaYBiO6,1.8269,-2.837715795500001,mp-1521109
K2GdNb5O15,1.8773,-2.837629815413043,mp-1212097
CsRb2Sb4F15,4.0177,-2.837549139984326,mp-1196297
Na18Ca4Nb20Si27(SO16)9,1.5579,-2.837501286992466,mp-2712918
RbPrP3HO10,5.4516,-2.837486184646577,mp-1186971
CaSn(BO3)2,3.7069,-2.837426864333333,mp-14398
Na2Zr8Si5S7O48,2.3912,-2.8373852272656,mp-2716122
Ba3In2O5F2,1.5869,-2.837274984027777,mp-21445
K3Al(PO4)2,4.521,-2.837004077335883,mp-1197607
Na6Nb6Al2Si9(SO16)3,2.0453,-2.8369369191996743,mp-2712990
CaMg6ZnO8,5.409700000000001,-2.836855728124999,mp-1032894
SrF,0.0,-2.836851411666666,mp-1187162
Ba2MgReO6,0.0,-2.836681418749999,mp-22441
KCeMg14O16,0.487899999999999,-2.836633139289062,mp-1034018
U(PO3)4,0.0139,-2.836625027783613,mp-1202567
Na21Mg8Ta4Si3(P5O24)3,2.602999999999999,-2.836595316812534,mp-2715786
Rb4U3(AsO8)2,1.9191999999999991,-2.8365866923999983,mp-1195470
Na2ZrSi3O10,0.5121,-2.836488563297414,mp-1180329
SmSiO3,0.0,-2.8364629000000012,mp-978506
Na12Mg4Ta2Si3(PO6)6,3.1773,-2.836440641493262,mp-2714588
TiAgF6,0.1936,-2.836437708124999,mp-10810
LaTiTeO6,0.0,-2.836414147222222,mp-1211288
Tl2SiF6,4.976,-2.836305280555557,mp-5033
Na42Mg8Nb16Si33(SO48)3,2.0995,-2.836251222765979,mp-2714393
Na2EuC(OF)3,0.0246,-2.836207078775864,mp-556836
MgTa2Zn2O8,3.8137,-2.836145986128204,mp-1210631
Ba2NbBiO6,2.058599999999999,-2.8360725860000002,mp-1147642
MgZrO3,1.0257,-2.835932366,mp-1017000
Na2LaSiO5,0.0,-2.835924037528736,mp-724857
TmBiO3,3.1128,-2.835879719000002,mp-754323
K2NaNb3O9,1.9676,-2.835873128391955,mp-1224011
Na15Ca7Nb5(PO4)18,1.9294,-2.835846814993684,mp-2713476
MgSbOF3,3.175599999999999,-2.835691470833332,mp-2225583
Na2ScSiO5,0.0,-2.835659041834292,mp-1194817
Rb3SbF6,3.7868,-2.835641546249999,mp-1113923
K3Tb(BO3)2,3.2054,-2.835531331395833,mp-1211631
Li17Nb20O60,0.0,-2.835461855635739,mp-686160
Ca3Al2H6S(OF)8,5.8611,-2.835444810178571,mp-23872
NaMg4(SiO3)6,0.182399999999999,-2.8354117117717013,mp-1199476
KLaMg14O16,4.3806,-2.835362560070312,mp-1033981
Ca2B8H2O15,5.6576,-2.835319010771605,mp-706291
TiSn6F16,2.7165,-2.83530745557971,mp-505113
RbScAsO4F,4.0481,-2.8352790687500002,mp-15865
Rb2TlGaF6,4.4038,-2.835232728583334,mp-989565
Na7Zr2Ga2Si3(PO8)3,3.9461,-2.835221771591474,mp-2715028
BaTbEuBiO6,0.0,-2.835189437166667,mp-1520324
RbB5O8,6.1992,-2.835142179523795,mp-561814
Rb2Sr(PO3)4,5.437200000000001,-2.835119066503753,mp-1209338
KAl(SiO3)3,0.0,-2.835061419446429,mp-1223586
Na5Y3ZrSi3(SO8)3,3.0902,-2.835037660497348,mp-2716312
K2Al2Si2O9,0.5306000000000001,-2.834913102966667,mp-1198051
Na7Zr2Si5Ge2PO24,3.6102,-2.834854371974749,mp-2714347
NaGdGeO4,3.3011,-2.83483895091133,mp-18547
SrSmGa3O7,3.215899999999999,-2.834816558125,mp-1217789
Na14La8Si7S5O48,3.4959,-2.834743040896061,mp-2715740
KEuHfSnO6,0.0,-2.8347343067249993,mp-1518654
K2TiSi3(HO5)2,3.1248,-2.834718550574074,mp-758597
Ba13Dy8Zn4Pt4O37,2.1902,-2.83470902891414,mp-555356
Mg14TiNbO16,0.0835,-2.834659427604166,mp-1034139
Na4ZrSi3GeO12,3.295899999999999,-2.8345776128024083,mp-2716573
Na4LiNb5O15,2.843099999999999,-2.834527822754023,mp-1221192
Be4Si2O9,0.269,-2.834135363000001,mp-1192679
CsB5O8,6.1873,-2.83408785467775,mp-581194
Na2Y2B2TeO10,2.9002,-2.8340713207505073,mp-1194587
Ca2Nb2BiO8,0.0,-2.834024171923076,mp-1042164
Na9Mg5Nb7(PO4)18,1.684499999999999,-2.8339794344232923,mp-2714768
BaBiF7,0.3525,-2.8339506477777783,mp-1041349
K2TcF6,1.7181,-2.83393911883333,mp-1091363
Rb2UO3F4,2.0856,-2.833796253624999,mp-728402
CaMg14SnO16,0.2886,-2.83378906703125,mp-1036389
Na9Ta8Zn4Si3(P5O24)3,2.8053,-2.8336019980245353,mp-2712823
CaHo2(GeO3)4,3.19,-2.833574651842104,mp-1227515
Zr2Ta2Si3(SO8)3,1.6095000000000002,-2.83354745344608,mp-2713734
Mg30ZnCO32,2.895299999999999,-2.833410278359374,mp-1037463
Na6Hf3ZnSi4(SO12)2,3.8946,-2.8333623777485633,mp-2714613
CsF,5.2626,-2.833271874999999,mp-1784
NdMgO3,0.0,-2.8331640494999992,mp-975521
Ca2SiO5,0.0,-2.833047859375,mp-1182405
ScTl3F6,3.6697,-2.833019396,mp-1208995
NaLi2GaF6,5.3441,-2.832968978554597,mp-1111142
Rb2Sb2OF10,3.7721,-2.8329147113333333,mp-560504
SrSn(BO3)2,3.617799999999999,-2.832876895333332,mp-8000
CsRb2BiF6,4.1231,-2.832653291465517,mp-1111460
Ba2LaMgSbO6,2.923599999999999,-2.832640019090909,mp-2217548
Ca5As3O12F,3.9518,-2.832639119642856,mp-557482
Na7Mg2Sc2P5SO24,4.4151,-2.832561490659418,mp-2715998
Na4Y3TaSi3(SO8)3,2.9676,-2.8324615432987,mp-2713559
Mg30NbBiO32,0.0799,-2.83232170359375,mp-1038568
La3Ga5SnO14,3.311399999999999,-2.832190112065217,mp-6788
Na2ZnSi3O8,3.9475,-2.832151200554187,mp-6481
Na14Mg5Ti3(PO4)12,2.1988,-2.832148578862088,mp-2714071
CsK2TaF6,0.0,-2.83214702514885,mp-1112268
K5B19O31,5.4738,-2.832103523916668,mp-554996
SrCaDyBiO6,1.6487,-2.832090672166666,mp-1520532
Na3Nb34Al2O64,0.0,-2.832085878001338,mp-578650
TmP5O14,5.4384000000000015,-2.832076116785713,mp-15382
Na10Sc6Nb2Si7S5O48,2.2033,-2.832069100315724,mp-2715879
CsNbO3,3.3517,-2.832048803681034,mp-27556
Na2CaNb(PO4)3,2.1134,-2.831901022281783,mp-2713297
NaSrZrSbO6,3.1782,-2.831858720137931,mp-1518455
GaPbF5,4.7215,-2.831702077678572,mp-1212935
ErP5O14,5.4363,-2.831699211910713,mp-4871
TiNbSbO6,2.2347,-2.831692349259259,mp-1216833
DyP5O14,5.4471,-2.8316344516190473,mp-554583
Na7Y2Mg2P5SO24,4.2691,-2.8315510093586043,mp-2715999
SrYMg6O8,0.195399999999999,-2.831489836875,mp-1032600
Rb2USi2O9,0.6575000000000001,-2.831489741339286,mp-1204174
SrNdGa3O7,3.208599999999999,-2.831369091249999,mp-1218128
NaZrAlP2SO12,4.2113,-2.831357881009169,mp-2712804
Na14Ca2Ti6Si9(SO16)3,1.602899999999999,-2.831347736566793,mp-2714815
HoP5O14,5.436,-2.831336060660713,mp-12237
Ca3CdO4,2.52,-2.831232277499999,mp-755287
Na14La4Sc4Si7S5O48,3.4764,-2.831184672115573,mp-2715721
Ba4Sm4Zn3PtO15,2.4891,-2.831183797037037,mp-9737
NaZr(PO4)2,0.013199999999999,-2.831170268180418,mp-733652
Li3TiSiO5,0.0,-2.831167206333334,mp-766449
CaAl2(Si2O7)2,0.1641,-2.831129899642857,mp-1227927
Ba2YRuO6,0.0903,-2.831114415,mp-6428
BaEuTiBiO6,0.0,-2.8310187003333342,mp-1518512
Na3CaNbSi(PO6)2,1.7041,-2.830996889587849,mp-2715291
NaTi2BiO6,2.7382,-2.8309337488045982,mp-39681
Sr2TaNO3,0.706199999999999,-2.830905566761905,mp-1218704
KNaNb2O6,1.982099999999999,-2.8308690588629313,mp-1223364
Na14Hf4Si11Ge4SO48,3.2326,-2.8308515939854932,mp-2714598
Ba6YCl15,4.6937,-2.83077659090909,mp-777883
Na8Ca2Ta2Si5SO24,2.681599999999999,-2.830684787060346,mp-2715745
Na10Nb6In2Si11SO48,2.3342,-2.8306229667687153,mp-2716477
Cs2AlAuF6,1.5293,-2.830555843222217,mp-1113113
PaAgO3,0.915,-2.8303952513333472,mp-977455
Na4Hf3MgSi3(SO8)3,3.0499,-2.8303799864829102,mp-2713326
Na3CaYP2SO12,4.3769,-2.830371537962849,mp-2712625
Er2Sb2O7,1.7511,-2.830319283181817,mp-772137
Na2Zr2Ti2Si3(SO8)3,1.2392,-2.83019129005348,mp-2713397
Cs2LiNd(BO3)2,4.476199999999999,-2.830112944039751,mp-1194993
BaSn(PO4)2,3.703499999999999,-2.829990827857143,mp-1102308
K3Eu(PO4)2,0.0,-2.829903004716836,mp-17089
Na6Ta6In2Si9(SO16)3,1.5234,-2.82988793686634,mp-2712825
NaSmGeO4,3.6029,-2.829869232339901,mp-555904
NaSbF4,4.3132,-2.829796081479885,mp-29269
La4S4Cl2O,2.7466,-2.829730734090909,mp-1223145
KNaTi4(BiO6)2,2.3362,-2.829707446098132,mp-1223389
Cs2NaAl(PO4)2,4.604299999999999,-2.829497928480383,mp-581862
NaPrMgNbO6,0.0,-2.829461891804597,mp-1516482
Ti11H7O24,0.0,-2.829444979890872,mp-757493
CaDy2(GeO3)4,3.179699999999999,-2.8294352575438593,mp-1227805
K4Gd2C3O9F4,2.7175,-2.829421522000001,mp-42089
Na2ScNbSi2SO12,2.2407,-2.829339859575016,mp-2712604
Sc2(PO4)3,0.0,-2.8292958659663863,mp-775184
CsB9O14,5.4514,-2.8292497808189663,mp-680683
SrTa2O7,0.0,-2.8292497529666663,mp-1091368
LiSm2RuO6,0.3999,-2.829137265333334,mp-1210954
Ca2NdRuO6,0.499299999999999,-2.829084382249999,mp-1227481
K2Nb6Ag(PO8)3,1.7961,-2.828975649724867,mp-686747
Na4TaGa(SiO4)3,3.5328,-2.828942487000822,mp-2716303
Na3ZrGaSi(PO6)2,3.7636,-2.828941048546182,mp-2715464
Na8Mg3Zr(PO4)6,2.8577,-2.8289158289815473,mp-2715092
Na5Zr2Ga2SiP5O24,3.641899999999999,-2.828905321754979,mp-2715929
Na10La4Nb4Si9(SO16)3,1.8748,-2.828878728841365,mp-2714214
Sm3GeO8,0.0,-2.828851189166667,mp-1179445
CeSnO4,1.688099999999999,-2.828796127499998,mp-1226511
Eu2Nb5O9,0.0,-2.8287707165625062,mp-1213102
K3SbF6,3.8417,-2.828718994174999,mp-1110845
MgAl2SiO7,0.0282,-2.82871182590909,mp-1210628
YMg14NbO16,0.0,-2.8286936,mp-1035920
Rb5B19O31,5.2852,-2.828643229939395,mp-553925
Li5Nb6O18,0.0,-2.828623132126438,mp-531722
Na10Mg2Zr6Si7S5O48,3.1051,-2.8286160143328183,mp-2716102
Ca4Si3B5(HO4)5,5.4639,-2.8286129189752263,mp-1227188
Mg10(SiO6)3,0.0331,-2.828578526129033,mp-1180416
Sr4CePr3Nb2(CuO5)4,0.0,-2.828499873382352,mp-1218619
Sr12Ti4Si16O61,0.0,-2.828480728476703,mp-1219453
NaPuO3,0.0,-2.82845516902586,mp-976952
LuP5O14,5.2656,-2.828423386369046,mp-554113
KPrDySbO6,3.2328,-2.828419917058332,mp-1519438
SrYGa3O7,3.1775,-2.828390638958333,mp-1217786
Sr2GdRuO6,0.253699999999999,-2.828292794,mp-16796
Ti2Nb(PO4)3,0.0,-2.828291664199734,mp-777181
AlSiHO4,5.571899999999999,-2.82826644017857,mp-643829
K3Y(BO3)2,3.1826,-2.8282604820902773,mp-555495
La5S4NO2,1.374299999999999,-2.82820472125,mp-1019896
Na2LaNb3Si4(SO12)2,1.9583,-2.828017323409962,mp-2715600
Na2ZrGa(PO4)3,3.7979,-2.827998079957221,mp-2713615
BaP2PbO7,4.3622,-2.827917035844154,mp-505234
Na4ZrGaSi2PO12,3.7298,-2.8279113744917512,mp-2716125
KSmTiSnO6,2.8282,-2.827884178058333,mp-1521521
Na2Zr4As3(PO8)3,3.8206,-2.827871996088532,mp-1221302
Ba2DyBiO6,1.733099999999999,-2.827802711166666,mp-1516815
Na3LaTiSi2SO12,2.305,-2.82771615391523,mp-2714579
MgTi4Zn2O10,0.0,-2.8275317722549023,mp-2229330
Ca2Si3Pb3O11,3.2434,-2.827529244649123,mp-1214269
Na6Y4Zr4Si5S7O48,2.8142,-2.82748212041589,mp-2715925
LiIn(SiO3)2,3.6357,-2.8274130645,mp-6240
SrPrGa3O7,3.2388,-2.8274062003472222,mp-1218050
Sr5Cd5P6(O12F)2,2.869099999999999,-2.827364163520406,mp-1218628
Na2Ta6Al2Si7S5O48,2.5425999999999993,-2.8273208902513143,mp-2715813
Na16Ti7(SiO5)8,0.0378,-2.827308839935242,mp-1222203
Na5ZrSc3Si3(SO8)3,3.2624,-2.827227363446066,mp-2713432
Na3ZrSi2GePO12,3.1765,-2.827219171189041,mp-2713664
BaEuYBiO6,0.0,-2.827208074500001,mp-1522506
Sr2LuIrO6,0.0,-2.827100211166667,mp-22726
Na3Y(BO3)2,3.777,-2.826943906039272,mp-556039
Sr2GdBiO6,1.5339,-2.8268595050000003,mp-1208851
Na3MgTi2P2O10F,0.3077,-2.82676606526791,mp-2230710
Si4H2O9,5.1538,-2.826755404500001,mp-627632
BaCaEuSbO6,0.0,-2.826719530500001,mp-1520835
Li2Zr4As3(PO8)3,3.9866,-2.826711365780424,mp-1223743
Na2CeO3,2.294599999999999,-2.8266003417097663,mp-1221453
Ba2TbBiO6,1.7302,-2.826584474666666,mp-552191
TmSeO3F,4.3012,-2.826438744557293,mp-557457
SrMg14CdO16,4.7897,-2.826400232187499,mp-1034491
NaMg30CO32,0.4779,-2.826282021818426,mp-1039719
Ba2LuMgSbO6,2.7537000000000003,-2.826172442878787,mp-2227020
NaHfNbSnO6,2.475799999999999,-2.826043672637931,mp-1519487
BaSrDyBiO6,1.803,-2.826014188416667,mp-1516677
Na10Sc4Ti4Si7S5O48,1.7392,-2.826000976597775,mp-2715832
Na4Sc3TaSi3(SO8)3,3.1893,-2.8259443319390503,mp-2713234
Rb2LaNb2O8,0.0513,-2.8259033284615382,mp-1103803
BaMg30BiO32,0.0,-2.825840186249999,mp-1038632
Na14Ti4Al4Si9(SO16)3,1.961,-2.8255401936399642,mp-2715107
Na11Ti8(PO4)12,0.0,-2.82550602667789,mp-761068
Ho2Sb2O7,1.8314,-2.825480507575756,mp-780448
La2(GeO3)3,3.091,-2.825423223928571,mp-703350
BaSrNbBiO6,2.1204,-2.825339307000001,mp-1520985
Li6Tm(BO3)3,4.8029,-2.8252910592105263,mp-1211340
Na14Nb5Ga3(SiO4)12,2.524599999999999,-2.825277734656224,mp-2712861
Mg30BCO32,1.8056,-2.825253256940104,mp-1038482
SmSbO4,2.2974,-2.825157747500001,mp-13196
Ba3CCl4O3,4.6687,-2.825066540909091,mp-1201184
Na10La7TaSi6(SO8)6,3.2291,-2.8250186264246993,mp-2716356
Na5La3ZrSi3(SO8)3,3.2276,-2.825007710625553,mp-2713438
CaB3HO6,5.8113,-2.8249733817045453,mp-1194867
Eu2SO2,0.0,-2.824861879499994,mp-21071
Na5Ta2Si5Ge2PO24,2.9768,-2.82483340964631,mp-2716542
Na(SiO2)3,0.0,-2.8248067527629313,mp-1210861
BaPO4,0.0,-2.824798310357143,mp-733580
Cs2TiP4O13,2.691,-2.824654427310756,mp-1203715
SrBO3,0.452399999999999,-2.824387097333333,mp-1189840
LiMg6GaO8,4.433800000000001,-2.824346687552083,mp-1031142
Na6Y4Si3(SO8)3,3.3857,-2.824319515352729,mp-2716149
Ba2SmOsO6,0.0705,-2.8243193915,mp-1080470
NaTaSiSn(PO6)2,3.3753,-2.824246248962873,mp-2715612
RbNb(PO4)2,3.1584,-2.8242378316071433,mp-17679
Na3Li2Al(SiO4)2,4.051,-2.8242175870815363,mp-1020163
K5Na3Nb8O24,1.4558,-2.8241443412596983,mp-1076335
LiMg14SbO16,3.629599999999999,-2.824119725104166,mp-1035164
MgTiO2,0.206599999999999,-2.824119149583333,mp-1045938
Na10Y7NbSi6(SO8)6,2.355,-2.824084476907605,mp-2713384
YP5O14,5.4476,-2.8240077880357153,mp-556335
Na7Nb3Zn(SiO4)6,1.7911,-2.82389961495094,mp-2712832
Na6Ca2Ta4Si6(SO12)3,2.5301,-2.8238963311422682,mp-2712645
Na2LaTaSi2SO12,2.4837,-2.823705284171508,mp-2712808
K2RbBiF6,4.215899999999999,-2.823674599199999,mp-1110675
Dy2Tc2O7,0.0,-2.823644789848484,mp-558960
BaO,2.0906,-2.8236427075,mp-1342
Na3CaLaP2SO12,4.3041,-2.823550260379516,mp-2712662
Rb2TiSi3O10,0.897899999999999,-2.823458807864584,mp-1209611
HfZrSi(SO6)2,3.9253,-2.8233940739215693,mp-2713208
SmP5O14,5.5883,-2.823380161535714,mp-13753
NaCaZr3P3(SO8)3,3.6033,-2.823343958032607,mp-2716354
Cs2HfO3,3.8149,-2.8232959390517243,mp-1178405
NdP5O14,5.5926,-2.823288783535714,mp-560681
CsHfMg30O31,0.0,-2.823245752296114,mp-1040411
Na4La2Zr2Si3(SO8)3,2.6012,-2.823185234421507,mp-2713647
Li6Er(BO3)3,4.7625,-2.82316728868421,mp-1211468
Na7Ta2Ga2Si5PO24,3.3745000000000003,-2.823160223592634,mp-2714571
Pr2BiO2,0.0,-2.823068512666667,mp-545539
YNbP2SO12,2.394,-2.822990090693279,mp-2713357
Ba2Pd(OF)2,0.0,-2.822891184285714,mp-6123
TbP5O14,5.572999999999999,-2.822881313869047,mp-30537
Ba2LaMgNbO6,0.0,-2.8227559099999993,mp-2217682
Ba2GaP4HO14,5.0374,-2.822706717150973,mp-758662
Li6Ho(BO3)3,4.7449,-2.822621197631578,mp-12160
Nd2RuO5,0.0182,-2.8225510634375,mp-1210187
Ba2MgTiO4,0.0,-2.8224961435416662,mp-2240575
SrCaEuSbO6,0.0,-2.8224710715,mp-1518710
Ca2Nb2CuO8,0.6392000000000001,-2.822431173846153,mp-1043833
Na6Mg4Ta20Si21(S5O48)3,1.795399999999999,-2.8223498116544903,mp-2715797
Na6Y4Nb4Si7S5O48,1.763,-2.822268808005981,mp-2713032
Dy2Sb2O7,1.8990999999999991,-2.822237103636361,mp-769138
PrP5O14,5.5951,-2.822225985119046,mp-14817
Li4Ti3NbO8,0.0,-2.822163981458333,mp-756660
Na2Y3Ta5Si6(SO8)6,1.926,-2.822143995158457,mp-2713943
MgTiNbO4,0.0,-2.822125219761905,mp-2225834
CaYO3,0.0,-2.822118803,mp-1183544
Na10Sc7TaSi6(SO8)6,2.9898,-2.821946944330682,mp-2716405
SrCaGdBiO6,1.5225,-2.82190444,mp-1520732
Na6La2Y2Si3(SO8)3,3.520099999999999,-2.8218381859360653,mp-2716131
Mg14AlSiO16,0.0,-2.821791022812499,mp-1036604
LiNd2HO3,1.8718999999999992,-2.821771360654762,mp-24150
Na3Ta5ZnSi6(SO12)3,2.5272,-2.821760903764901,mp-2715711
Eu2GeO5,0.0,-2.821733982500001,mp-648448
Na6Sc5Ta3Si6(SO8)6,2.353099999999999,-2.821686143427151,mp-2714672
UCO5,2.2864,-2.821639237142857,mp-29761
Na6Y5Ta3Si6(SO8)6,2.2446,-2.821606683629854,mp-2714749
DyPaO3,0.0,-2.821412929333332,mp-1183790
Sr4La2Mg(RuO6)2,0.0,-2.821209005952382,mp-1173214
CaTiAsO5,1.7906,-2.821140971041666,mp-1359041
KNb(PO4)2,3.1705,-2.821042000336309,mp-17377
Na15Ca8Ta4P15(SO24)3,2.9881,-2.8209571120697943,mp-2714950
Na4CaNbSi2PO12,1.8018,-2.8209458379441332,mp-2716257
PmMgO3,0.0,-2.8209067274999993,mp-1186600
Na18Mg4Nb20Si27(SO16)9,1.3578,-2.820840131226702,mp-2712852
CsLiMg30O31,1.9439,-2.820771726793469,mp-1098505
YSb3F15,0.0,-2.8206756147368433,mp-1047553
YAsO4,3.659799999999999,-2.820636907916674,mp-8058
SrMgSn(PO4)2,3.4384,-2.820549444560439,mp-1046151
HfMg14GaO16,0.199200000000001,-2.820483651484374,mp-1033706
Na5Ca2Ti2P5SO24,1.8587,-2.820471468742158,mp-2714956
Na7Zr2In2Si3(PO8)3,3.6683,-2.820457328623994,mp-2715121
Sr10Ga6O19,3.223099999999999,-2.820452242714286,mp-680384
ErSeO3F,4.3039,-2.820451809973958,mp-556999
Na2Sc3Ta5Si6(SO8)6,2.014399999999999,-2.8204223669441713,mp-2713846
Al2CdO4,2.676,-2.820343855714285,mp-36866
AlGaO3,3.5313,-2.8201032385,mp-772898
TmCu(BO2)5,0.5997,-2.820029439460785,mp-17395
BaEuNbBiO6,0.089199999999999,-2.81991733,mp-1518395
Na6La4Zr4Si5S7O48,2.923599999999999,-2.819908242352827,mp-2715851
NaSc3TaP3(SO8)3,2.8737,-2.819893758099273,mp-2716568
Na6Ti8Si7S5O48,1.5515999999999992,-2.819870301429405,mp-2712866
K2LiAsF6,4.5591,-2.819868697533333,mp-1111928
Mg14NbAlO16,0.0,-2.819798330312499,mp-1036525
Sr2Ti2AlGaO7,0.0,-2.8197578826282053,mp-1048054
CaNdGa3O7,3.231,-2.8197093329166663,mp-1227170
Na6Y2Sc2Si3(SO8)3,3.5915,-2.819643114686064,mp-2716222
Li3SbF6,3.664,-2.819594649,mp-1237474
KMg3GaSi3(HO6)2,0.0,-2.819486682829546,mp-1223547
RbMg14AlO16,0.6901,-2.8193062855468742,mp-1036574
BaNaCeSbO6,1.879499999999999,-2.819125720637931,mp-1520946
KNb2O5,0.0,-2.819112873614583,mp-773070
Na2CaZrP2SO12,3.4746,-2.819107843572509,mp-2713258
Ga12OF36,1.0889,-2.819076905816326,mp-1224934
Na3Zr3AlSi3(SO8)3,3.6371,-2.8189391956748993,mp-2714766
LaSeO3F,3.806,-2.818932557751738,mp-555955
NaCaSiO4,0.106999999999999,-2.8189035294827582,mp-1104298
CeAsO3,0.286099999999999,-2.818903420749999,mp-1195015
Gd2Nb2N2O5,1.593,-2.818878517727272,mp-782011
KHfPCO7,4.6102,-2.818826496535714,mp-772778
SmAsO4,3.689199999999999,-2.81880786375,mp-12929
Sr2NbBiO6,2.0916,-2.818763432750001,mp-1518801
CaSmGa3O7,3.1912,-2.818748948124999,mp-1227208
Ta4Cu2O11,1.2731,-2.818716448490194,mp-676563
Na10La6Nb2Si7S5O48,2.1063,-2.818674239802904,mp-2715973
Ba2CeC3O9F,0.0766,-2.8186706456249992,mp-6850
SrSn(PO4)2,3.5533,-2.818662848690475,mp-862718
LiNd2OsO6,0.0,-2.8186549128333342,mp-12450
Nd7Se4Cl3O17,3.794399999999999,-2.818625967802419,mp-1197266
ErBiO3,3.1136,-2.818545103999999,mp-754943
TbPtF7,2.1737,-2.8184733074999992,mp-1208369
Ca2AlSbO5,2.545,-2.818395305555555,mp-1253097
Na14Mg2Ti6Si9(SO16)3,1.7771999999999992,-2.818383083761916,mp-2714646
LuPtF7,2.2198,-2.818214611296295,mp-1211006
Na7Mg2Nb2Si3(PO8)3,1.8189,-2.8181453694370022,mp-2714801
Ba2GdRuO6,0.1467,-2.818141672,mp-2646935