formula,bg,formation_energy,mp-id
BaNaCeBiO6,1.5674,-2.579513456887931,mp-1519525
Sc2(SO4)3,4.3752,-2.579507954558823,mp-16800
Na10Mg4Ti4Si5S7O48,1.310099999999999,-2.579488939824271,mp-2715152
NaTa4Bi5O18,2.9309000000000003,-2.579425329311167,mp-1220909
Na14Zr4Zn4Si7S5O48,2.9175,-2.5794073115058183,mp-2715661
Mg14CuCO16,0.0124,-2.579368798593749,mp-1035244
BaNb7O9,0.0,-2.5791628367647053,mp-505078
K2InSbF6,2.1143,-2.579122219116666,mp-1112181
Ba3In2Cl2O5,1.4236,-2.5790751206944442,mp-559933
Na3TaGa3P5SO24,3.1817,-2.579052109045556,mp-2715902
Cs3P7Pb2O21,4.9376,-2.578890915195924,mp-572271
LaSCl,2.558799999999999,-2.5788198526041572,mp-772534
HfMg6SiO8,0.2255,-2.578708895,mp-1030814
KCaHfBiO6,1.289499999999999,-2.5786616267249998,mp-1520522
NaNbGeO5,3.0795999999999992,-2.578586651109914,mp-17164
Be3Cd4Si3SeO12,2.499399999999999,-2.5785859440149452,mp-16793
Na3LaGe3(PO4)6,2.0713,-2.578517044017886,mp-2714762
Rb3RuF6,0.0,-2.578471849249998,mp-1113825
NaTi3ZnP3(SO8)3,2.19,-2.578411701556416,mp-2716446
Na10TaIn7(PO4)12,3.1182,-2.5781503774381282,mp-2716470
Nd2ZnPtO6,1.7003,-2.578072024,mp-1209914
KTm(CO3)2,9.9999999999989e-05,-2.578029219225,mp-1211338
Na3SrPCO7,4.2419,-2.577993957598521,mp-767431
Ba3ZrIr2O9,0.0,-2.577919387000001,mp-1214509
Sr2TiAlCu2O7,0.0,-2.577688186410256,mp-1249417
RbAlP2(HO4)2,5.3382,-2.57748812840136,mp-1199312
Na4Si3(GeO6)2,3.3375999999999992,-2.5773418947071702,mp-2716361
Na4GaSi2SnPO12,3.0958,-2.577191875523498,mp-2715772
K2NaCuF6,0.7248,-2.577095479587931,mp-13797
Na3AlGe3(PO4)6,2.8166,-2.577087005684552,mp-2714683
SbP2AuF12,3.948299999999999,-2.577052034017857,mp-1198127
Sr5(Br4Cl)2,4.443899999999999,-2.5770318246666672,mp-28021
U(SbO3)2,1.2887,-2.576791013333332,mp-31256
Na14Ca4Al4Si5S7O48,3.583999999999999,-2.57676052920907,mp-2715873
Na6Ca3TiSi2(SO6)4,1.0678,-2.57657756329023,mp-2712659
Ba3YIrRuO9,0.0,-2.576369705333334,mp-1228020
Na2Zn2Si2O7,3.323,-2.576323540596816,mp-6507
Na6Ca4Ti4Si3(S3O16)3,1.2118,-2.576242463276251,mp-2713886
U(HO2)2,2.258,-2.576122922142855,mp-510128
Na14Ta2Ga6Si9(SO16)3,2.7423,-2.576079687213134,mp-2714846
Nb9As2O25,0.0,-2.576075217500001,mp-1210182
Ca3Si3(AgO6)2,0.1654,-2.576056236416666,mp-1157153
BaLiHfBiO6,1.1166,-2.576008539333334,mp-1518397
LiTmF2,0.0,-2.5759295221527743,mp-1210968
Li7V3Ni(PO4)6,0.0,-2.575854323931475,mp-760800
Ca2Mg(PO5)2,0.7141000000000001,-2.575819617619047,mp-1214202
TbRhO3,0.8749000000000001,-2.575770184833334,mp-5692
MgTi(GeO3)2,1.831999999999999,-2.575637560583334,mp-1042831
La4ZnCu(RhO6)2,0.0,-2.5756132635,mp-1223163
Na2TaAl3Si2(SO6)4,2.2805,-2.575576012965518,mp-2712733
Na7TaZn3(PO4)6,2.789899999999999,-2.575529962150707,mp-2714250
Na8Ca2Al2Si3(SO8)3,2.9616,-2.575344722623838,mp-2715007
K5Na3Ta2Nb6O20,0.0,-2.575334381112628,mp-1076895
Na2Ca2Ti6Si3(S3O16)3,1.3918,-2.575318046622743,mp-2716475
Y2Cu2O5,0.091,-2.575295285277777,mp-510475
Mg2ZnO3,0.0,-2.5751674474999993,mp-1222123
Ba6Y2Ru3PtO18,0.0,-2.575113708666667,mp-1228458
CsMn(PO3)4,0.9425,-2.575042285619867,mp-560117
KEr(CO3)2,4.4873,-2.574837789225,mp-1211628
Na4Ca3HfSiS5O24,3.7372,-2.574822715342559,mp-2713428
SrZr4(AsO4)6,4.0082,-2.574786395285715,mp-1202083
K2LiIrF6,2.083199999999999,-2.574690587783333,mp-1111926
SrCuOF2,0.0,-2.574675468999999,mp-1147566
KHo(CO3)2,4.2739,-2.574629427225001,mp-9804
TaGaP2SO12,3.443,-2.5746155851932793,mp-2713526
Li7Bi2P7O24,4.5359,-2.574608329020834,mp-759424
Na7Si5Sn2Ge2PO24,3.0814,-2.574403154576375,mp-2714475
KDy(CO3)2,4.2456,-2.574390435391666,mp-9807
NaNb2AsO8,2.700199999999999,-2.5742503603232763,mp-560032
Ba3NdRu2O9,0.0,-2.573923947166667,mp-6018
Na3LaSi2GeSO12,1.662399999999999,-2.573919950998564,mp-2714425
KLu(CO3)2,4.5532,-2.573716466391666,mp-1211517
Na6Ca4Nb2Si3(SO6)6,2.0164,-2.573587356987296,mp-2713284
ZnSbF6,0.0,-2.573416563749999,mp-1400400
Ba10Re6CO30,0.0,-2.573378435319149,mp-1228940
SbF5,3.6765,-2.57333251625,mp-1341935
Rb2NaCuF6,0.7354,-2.573304985637931,mp-1206176
Li2TiPCO7,0.251199999999999,-2.573216753303571,mp-25400
Na7CaSi3Ge3(PO8)3,1.9216,-2.573017265006108,mp-2715030
Cs2HoCl5,4.9039,-2.5730091511638,mp-1213722
Ca3Sb2O7,0.0,-2.572980549166666,mp-1341647
Na8TiZn3(PO4)6,1.6831,-2.572962414894245,mp-2715200
Ba3(SbO3)2,2.9311000000000003,-2.57293931060607,mp-31238
ZrGeP2SO12,2.7413,-2.572918069418768,mp-2713497
KNb2InO6,0.0,-2.572885525391666,mp-1522233
Sr18La2MgRu9O40,0.0,-2.5727319627857153,mp-1173635
Na3LaZnP2SO12,3.5204,-2.5726324782128502,mp-2712565
Na7MgSi3Ge3(PO8)3,2.2678000000000003,-2.572619709274401,mp-2714827
Nb2O3,0.0,-2.5725724889999992,mp-1095187
KSbClF3,4.4891,-2.5725671887083332,mp-23634
KTb(CO3)2,4.4195,-2.5724752823916672,mp-1211249
Be4TeO7,1.280699999999999,-2.572461434305555,mp-27608
GdIO,0.252299999999999,-2.572313260833334,mp-752520
Na6Mg4Zr4Si3(S3O16)3,2.3022,-2.572309395933908,mp-2713997
Na4Ga2Si(PO6)2,3.804099999999999,-2.572206546181094,mp-2714538
La2Pd2O5,1.179,-2.572202741111114,mp-560340
Na7Ga2Si3Sn2(PO8)3,3.2501,-2.572142322810986,mp-2714733
CaP4(HO6)2,5.6369,-2.572141027951114,mp-697657
Na3Hf2Zn2P3(SO8)3,4.6276,-2.572103954790086,mp-2713988
Na9Mg8Nb4P9(SO8)9,2.1944,-2.571984231817113,mp-2713993
ZrP2HO7,0.0,-2.571976295957791,mp-1207391
RbSbClF3,4.429799999999999,-2.571958006875,mp-1209287
Sb2TeF14,3.965099999999999,-2.571859397745132,mp-27473
Ta2Ti2(CuO4)3,0.080099999999999,-2.571660571649123,mp-1218005
Li3B5(HO5)2,5.833799999999999,-2.571589393666667,mp-1199091
SnF4,3.114999999999999,-2.571479623999999,mp-2706
CsTeF5,4.6339,-2.571475782857143,mp-541628
LiB5H2O9,6.249600000000001,-2.571287556862746,mp-740714
Li5Si2BiO8,2.7609,-2.571285841041666,mp-859129
Na3Y2Ga2P3(SO8)3,3.1419,-2.571103328618915,mp-2713928
EuInO3,0.0,-2.571072765333334,mp-1212980
Na6Hf4Ga4Si5S7O48,2.5189999999999992,-2.570980877127602,mp-2716028
Ba2LaMgTa(CuO4)2,0.6784999999999991,-2.570920597155555,mp-2232472
Nd2PdO4,0.0,-2.570911439285713,mp-1025319
Cs2KCuF6,0.8990999999999991,-2.570865261656034,mp-6968
Li2Cd(PO3)4,4.7218,-2.570812091854635,mp-559715
Ba2InGaO5,1.414499999999999,-2.570699569351852,mp-1106089
Na4Al3Si3B(HO3)4,4.9487000000000005,-2.570640312951254,mp-694981
Cs2InCuF6,0.091699999999999,-2.570623657597701,mp-1113106
Ba2B11H7O22,5.657,-2.570561496537697,mp-1196038
Na5Mg2Al2P3(SO8)3,4.3891,-2.570383230939961,mp-2714625
LiErF2,0.0,-2.570318711736108,mp-1211287
Na7Mg2In2P5SO24,1.8484,-2.570285139033402,mp-2715962
Mg6NbCuO8,0.0,-2.570122193125,mp-1099236
Sr2Sb2O7,1.370399999999999,-2.570062335909088,mp-4103
TiP2(HO4)2,2.7135,-2.57002451135531,mp-1195807
K2Li14Zr3O14,4.356,-2.569991883671717,mp-17208
SrCaB11H7O22,5.8782,-2.569889163442459,mp-1208782
Cs2InHgF6,0.0,-2.569598613847701,mp-1113143
KLa(SO4)2,4.3089,-2.569563999354166,mp-1211400
Mg2Ta4Si3(SO6)6,2.239,-2.569546056457516,mp-2713181
Na2Zr2Si3Sn2(SO8)3,1.1321,-2.569545429497925,mp-2713412
NaScGeP2SO12,1.7791,-2.569531784064724,mp-2712572
Si2H2O5,5.5156,-2.569457766944444,mp-626037
Li5Sn(P2O7)2,0.0985,-2.569423752093252,mp-757844
Ca3Ga2(Ge2O7)2,3.0145,-2.5693881367391302,mp-1227716
NaCa3RuO6,0.439,-2.569328564216301,mp-6281
Na3Ca3ZrPS5O24,3.3634,-2.5692118808904723,mp-2713571
Na14La4In4Si7S5O48,2.5672,-2.5691480009367123,mp-2715818
Na2Hf2Mg2SiS5O24,2.9264,-2.569085478988666,mp-2715558
NaNbSi2GeSO12,2.8213,-2.569059282067368,mp-2715734
Mg6NbZnO8,0.8593000000000011,-2.568999191249999,mp-1032050
LiY4(BiO3)4,0.2446,-2.568917148253968,mp-1236137
Cs2SiP4(HO7)2,5.1816,-2.568855413060076,mp-697078
CaMg(CO3)2,5.0091,-2.5687827805,mp-6459
Li9Bi3P8O29,4.1824,-2.568742424227404,mp-585305
Na2ZrGe2O7,3.6953,-2.56855023939655,mp-561166
In2B(PO4)3,3.8934,-2.568537076746031,mp-1198577
Na6Sc2Ga2Si3(SO8)3,2.963599999999999,-2.568427633727731,mp-2716180
LaAgO2,2.826699999999999,-2.568305550416656,mp-753260
Na2Al2Si3(HO5)2,2.5502,-2.568087737118875,mp-1210489
Hf2Al2SiS5O24,4.236,-2.5680372366911772,mp-2712951
CsAs4F13,4.981,-2.5679592741475092,mp-30927
Na3LaMgSi(SO6)2,3.5956,-2.56780387429023,mp-2712802
Eu4Br6O,0.8538000000000001,-2.567701471363641,mp-559031
Li4CuSi2O7,0.6827999999999991,-2.567689882023809,mp-756422
Na8Mg3TiSi3(SO8)3,1.4535999999999991,-2.5676817386159,mp-2715016
Si2BiO6,0.0,-2.5675406033333332,mp-1172399
BaSi(HO2)2,4.3506,-2.567467476562499,mp-1236963
Na3TiP3NO9,0.0,-2.567419595670578,mp-21703
Na6Y2Ga2Si3(SO8)3,2.6845,-2.56730638247773,mp-2716266
Si2Sn2O7,2.5807,-2.567252973863636,mp-769046
CePbO3,0.7348999999999991,-2.567250476499998,mp-1214439
NaSr4(SbO4)3,2.3127,-2.567240230568964,mp-17433
Lu2Ga2O5,0.0,-2.567138194814815,mp-1185464
Ga(PO3)3,4.9919,-2.5671381584432362,mp-15560
CeCl3,0.011099999999999,-2.567102358125,mp-582011
YbPuO3,0.0,-2.567013733999998,mp-1187542
Na4Zr2In2Si3(SO8)3,2.1131,-2.566872006088174,mp-2713553
Na6Mg3B9P6H3O38,0.0,-2.566792882036662,mp-1198429
Mg10Ge3(H2O9)2,3.8947,-2.5667187670000002,mp-560872
PuO,0.0,-2.566606411874994,mp-806
BaTa4O14,0.0,-2.566411439964911,mp-1189316
CsInCuF6,0.0,-2.566403055702426,mp-1225976
K8Mg(SiO3)8,0.010099999999999,-2.566360615195122,mp-1234313
Ba3Ge2B7H3O20,0.0,-2.566196639940475,mp-1202293
Ca6Mg2ZnP6(H2O5)6,5.033,-2.566139742155388,mp-1227427
CsHfMg6O7,0.0,-2.566137473643678,mp-1033715
Na7Ga4SiP5O24,3.871,-2.566086140069987,mp-2715706
K3In(PO4)2,3.398,-2.566085401621591,mp-1224542
Na14Hf2Mg6Si5S7O48,2.984,-2.565884574412321,mp-2716076
Li4Sn(PO4)2,3.2058,-2.565827098841269,mp-774623
CsKMg14O15,2.1985,-2.5657895358679093,mp-1035964
Na4AlGaSi2SO12,3.7159,-2.565768052881774,mp-2714424
Na6Ti4Si7Sn4S5O48,1.6859000000000002,-2.565733839492467,mp-2712930
Ca2ZnGe2O7,3.0488,-2.565611808749999,mp-18596
EuBeO3,0.0,-2.565422535,mp-1184325
Ba3LuIr2O9,0.0,-2.565391483444447,mp-556674
CaBi2P2O9,2.7154,-2.565352904056123,mp-1044825
Zn3B7ClO13,4.5795,-2.565348350590278,mp-23609
Na3Sc2Ga2P3(SO8)3,3.6588,-2.565236681772067,mp-2713736
Na5Si3Sn4(PO8)3,2.926199999999999,-2.565231866089534,mp-2714269
Na6MgSi2Ge3(PO6)4,2.2966,-2.565142146921183,mp-2715306
Ba3Cd(GeO4)2,2.8589,-2.565127515714284,mp-1214603
Rb3B2P3H2O13,5.2981,-2.565107675641822,mp-1199257
LiBi(PO3)4,5.1324,-2.565099889272486,mp-504354
USeO5,1.732899999999999,-2.564888471049104,mp-27723
Na6CaSi2Ge3(PO6)4,2.133899999999999,-2.564865377671181,mp-2715304
Na18Mg8Ta4Si9(SO8)9,1.0701,-2.564836639847175,mp-2716214
Na15Mg10Nb2P9(SO8)9,2.5349,-2.564703439743379,mp-2714859
KNa2AsF6,3.0404,-2.564639682750862,mp-1111018
KSrPrSbO6,0.0,-2.564562514391666,mp-1521724
Ba4Eu4Zn3PtO15,0.061199999999999,-2.564559670185186,mp-560660
YAuO2,2.686199999999999,-2.564518633749998,mp-30251
Sc3Al3C2O5,0.425799999999999,-2.564503754999999,mp-1005666
KRb2CuF6,0.8802000000000001,-2.564464233225,mp-1206427
Na3Y2In2P3(SO8)3,3.0806,-2.564456050015311,mp-2713791
NaSn2F5,3.7838,-2.564370442500001,mp-13599
Na30Mg16Ta8Si15(S7O48)3,2.0453,-2.564321082297205,mp-2715025
B5Pb2ClO9,3.4978,-2.564297677107843,mp-557103
K2NbAuF6,0.136299999999999,-2.564217577449999,mp-1112494
K2Si3SnO10,0.9085,-2.5641169954375,mp-1195099
Na4HfMg3P2(SO6)4,3.9745,-2.564050798328148,mp-2713483
MgRhF6,0.0,-2.563968675625,mp-9927
Na6Mg8Nb16Si15(S7O48)3,1.1738,-2.563896589456076,mp-2716224
Na2Cu2Si4O11,0.0952,-2.5638947588294,mp-559415
Na9Ca5NbSi3(SO6)6,1.6536,-2.5637701396235633,mp-2712768
ScAuO2,1.7796,-2.563697553749998,mp-11023
Na2LiAlP2H2O9,5.1452,-2.5636317382575102,mp-556641
UB8O17,0.3199,-2.563464555897435,mp-1200475
Na6Ca4Sc4SiS11O48,3.5919,-2.563400246677151,mp-2712814
MgTi3P2(SO6)4,2.152199999999999,-2.563393438459385,mp-2713070
RbLu(SO4)2,5.8838,-2.563378531597221,mp-554774
Li3Bi(PO4)2,3.8058,-2.563301716853741,mp-1101536
Na10Sc4Si7Ge4S5O48,1.6853,-2.563258274375553,mp-2715919
LaAuO2,2.7167,-2.5632492350000002,mp-997003
KZnAs3F18,4.3172,-2.563196828467391,mp-1194994
ZnSi2SnO6,3.0614,-2.5630098935,mp-1046967
Na10Ca3Ge5(PO4)12,1.5379,-2.563006895442403,mp-2713405
Na4NpO5,0.6496000000000001,-2.562992238926725,mp-754019
MgPO4,1.0886999999999991,-2.5628944409821433,mp-727162
Li2Cu(SiO3)2,0.112999999999999,-2.562822862424242,mp-757685
KTiAsO5,3.083599999999999,-2.562784567572917,mp-6488
Na4Al3Ge3IO12,3.5794,-2.562604692196403,mp-23651
Na10NbIn7(PO4)12,2.5847,-2.562558549352658,mp-2716382
Sc2Cu2O5,0.0,-2.562479393333333,mp-15336
KEuNbInO6,0.0,-2.562364598891667,mp-1518309
CaAl2Si6H10O21,5.137799999999999,-2.562285500437501,mp-1214127
HoMg(SnO3)2,0.0,-2.562192504499999,mp-1049287
NaHf2Mg2PS5O24,3.938799999999999,-2.5621720967673,mp-2714236
Y2Ru2O7,0.0,-2.561902583636363,mp-20643
Na4Ca3ZrSiS5O24,3.004099999999999,-2.5618942146408052,mp-2713376
NaLa(CO3)2,3.858499999999999,-2.561858840137931,mp-559868
Ba2CaP4(H3O8)2,5.683400000000001,-2.56185141986453,mp-758007
Na2CaTiSi(SO6)2,1.196699999999999,-2.5618380414609803,mp-2713689
Tb3Se2NO,2.0437,-2.561791932098213,mp-1104046
BaNaZrBiO6,1.0379,-2.561719870637931,mp-1520791
Na5Bi(P2O7)2,4.2843,-2.561572092727832,mp-560624
NaCaTiP(SO6)2,1.649299999999999,-2.5615151188530842,mp-2714565
ZnF2,3.4592,-2.561514461666667,mp-1873
Cs2PrCl5,4.7712,-2.561434005434635,mp-1213713
Ca3Ga3(SnO6)2,0.0,-2.561414243874998,mp-1214159
Ba2InBrO3,1.8236999999999992,-2.561333907380952,mp-555212
TaReO6,0.8500000000000001,-2.561158158729167,mp-1410067
MgTi6(N2O3)2,0.0,-2.561076694411764,mp-2229721
Na10Mg3Ge5(PO4)12,1.9964,-2.560960117557787,mp-2713199
Na6CaSn7(PO4)12,2.3998,-2.560927138139507,mp-2714767
Na7Si5Ge4PO24,3.201,-2.560902622462555,mp-2714618
EuNbGaSnO6,0.1559,-2.56089215675,mp-1516880
Rb4Ge3B6O17,3.855599999999999,-2.560774063166666,mp-1020896
Th2N2O,1.9719,-2.5607627569999982,mp-1206128
Mg4Sb2O9,2.4289,-2.560751251666667,mp-676305
Na4Mg2Nb2Si3(SO8)3,0.4065,-2.56073448775484,mp-2713564
Na14Nb4Zn4Si9(SO16)3,1.3415,-2.560715657379801,mp-2714739
Al13Si5ClO38,0.0,-2.5606904533333332,mp-1198152
TaNb2Zn2O8,0.0381,-2.560668572487178,mp-1040794
BaZnAgF7,0.3827,-2.5606568721666663,mp-1041309
TiZnBi(PO4)3,1.8892,-2.560653827070106,mp-1043818
Li2Sn(PO3)4,4.0851,-2.560618886986215,mp-26271
YBi3F15,0.9819,-2.5605244171052592,mp-1047565
Nb3GaSi3(SO8)3,1.7675,-2.560483083235295,mp-2713840
Na5Ca3SnP3(SO8)3,1.777499999999999,-2.560424208162183,mp-2714894
KSm(CO3)2,4.3453,-2.560363227724999,mp-1211301
KZn(PO3)3,4.4907,-2.560348814012755,mp-1211332
Na2LiRuF6,0.0,-2.560326733958335,mp-1110634
Na10Y4Mg4Si3(S3O16)3,3.6074,-2.56030141646957,mp-2714693
NaMg6BiO8,4.596000000000001,-2.560300863211206,mp-1030676
Ba4Zr(RuO4)3,0.0,-2.5601894235000002,mp-6716
Na15Mg7Nb5Si9(SO8)9,1.1027,-2.560112939428972,mp-2713388
LaRuO3,0.0,-2.5601037775,mp-20472
Ba3PrRu2O9,0.0,-2.559985890111112,mp-16821
Li2RuF6,0.0398,-2.559949863703704,mp-976955
NaZn(PO3)3,4.8199000000000005,-2.559930456004135,mp-560174
ZrO,0.0,-2.559904767500001,mp-10197
Li3ZrO3,0.0,-2.559844061071428,mp-772899
Na3Ca4Nb2P3(SO6)6,2.274899999999999,-2.55980150440864,mp-2714541
Ba2PrPtO6,0.0,-2.559795649166667,mp-9319
Rb2LiIrF6,2.024,-2.559748569833333,mp-1113710
Na7Mg3TaSi3(SO8)3,1.2995,-2.559717223686712,mp-2714234
LiAsF6,5.1404,-2.559708187395833,mp-9144
CaSn2P2O9,1.1252,-2.559687949591837,mp-1049213
KMg14CO16,0.0,-2.559650796632812,mp-1035674
Rb2TlAsF6,2.7163,-2.559564940583333,mp-1113873
K2RbRhF6,2.2056,-2.559545177199999,mp-1111432
KB5H2O9,5.7166999999999994,-2.559452982534314,mp-1197999
MgTi3Nb2(PbO3)6,1.9854,-2.559447301166666,mp-677094
Ba3GdIrRuO9,0.0,-2.559445923333334,mp-1228796
Rb2Ta2O5,0.0,-2.55931995274074,mp-1076737
Na5Mg2Sn2P5SO24,2.2393,-2.559291074383184,mp-2715080
Cd2Si(P2O7)2,4.145,-2.559254113027209,mp-541108
LiTiAsO5,3.222699999999999,-2.559215438333333,mp-6113
Ba5Re3NO18,2.306499999999999,-2.55915809101852,mp-555095
Sr4SnPbO8,1.859299999999999,-2.559094895357142,mp-1208734
K4B10H4O19,5.1195,-2.559081467855856,mp-1197401
Na5Li(PO4)2,4.5193,-2.558976996219725,mp-559452
Na24Mg10Ta2Si9(SO8)9,1.973999999999999,-2.558953456867224,mp-2715164
BaMg(CO3)2,4.1931,-2.5589007980000003,mp-1205395
Na3Ga2(PO4)3,3.897999999999999,-2.5588730866533242,mp-2715228
NaCaCeBiO6,1.8000999999999991,-2.558830684637931,mp-1516618
Be3Cd4Si3TeO12,3.125,-2.558801447681159,mp-17167
Pr2ZnPtO6,0.0,-2.5587680008333322,mp-1209351
Sr2ZnReO6,0.0,-2.55876761175,mp-559614
KY(CO3)2,4.3035,-2.558728772225,mp-1211274
Na3Si2SnGePO12,2.9739,-2.5585801938557062,mp-2715385
Ba2PrPbO6,0.0,-2.558548934166666,mp-1228494
Na4GaSi2GePO12,2.845399999999999,-2.558512694967941,mp-2715732
TiAlP(SO6)2,2.433099999999999,-2.558465458606443,mp-2712829
Li3BiB4O9,3.9625,-2.558428576568628,mp-768715
CaTaP(SO6)2,2.6216,-2.5584022059986,mp-2712956
HoInGe2O7,2.6521,-2.558318047424241,mp-1224322
K2TiPCO7,0.135299999999999,-2.558234092706348,mp-755542
KTbEuGeO6,0.0,-2.558160411391667,mp-1521042
Na3La2Ga2P3(SO8)3,2.8627,-2.5581511942045,mp-2713864
Mg2Nb3Bi3O14,2.5981,-2.558064196818182,mp-1222190
RbTiAsO5,3.077099999999999,-2.5580478983854182,mp-6394
Ta2Zn2SnO8,2.488099999999999,-2.5580072157435882,mp-1045939
TiZnSb(PO4)3,1.228399999999999,-2.557963428458993,mp-1043880
Na6Ti6Zn2Si5S7O48,1.0886,-2.557857668163638,mp-2716011
RbP3PbO9,4.6086,-2.557594302334184,mp-557256
ZrIn2O5,1.5216999999999992,-2.557573074791666,mp-1094015
Na3GaSiSn(PO6)2,3.117,-2.557557317712849,mp-2715486
LiP3PbO9,4.759799999999999,-2.557531381232994,mp-559627
SiPHO5,5.373000000000001,-2.557380680736607,mp-1202714
YbSiO3,4.068899999999999,-2.5573448272500032,mp-1187516
Ti2Zn3O7,2.2433,-2.557326850555554,mp-1324916
Na3Y2Mg2PS5O24,4.7491,-2.5573020476472292,mp-2713708
Ba4Li(SbO4)3,1.454399999999999,-2.557289012666666,mp-7971
Al5Sb3O16,0.0,-2.557244235,mp-1214826
MgNb2(GaO4)2,0.433999999999999,-2.557113826923076,mp-2218975
CsRb2RhF6,2.2145,-2.557088107465516,mp-1111393
Na2Ta4Si7Ge4S5O48,2.174699999999999,-2.5570790699941712,mp-2715708
Na3La2In2P3(SO8)3,2.8756999999999993,-2.557037797853149,mp-2713913
NaCa2Nb8(BiO4)9,9.999999999976696e-05,-2.556957360738903,mp-1221182
Na2La2PtO6,2.095899999999999,-2.556851717978056,mp-1221367
Na2Zr6Zn2Si3(S3O16)3,2.4879,-2.556811496813219,mp-2716363
Sr3LaCuRuO8,0.0,-2.5566959225,mp-1218344
BaMg6TiO8,0.204099999999999,-2.556551547708333,mp-1031397
Na7AlSn11(PO4)18,3.319,-2.556444295121345,mp-686729
ZnPb2F6,3.922799999999999,-2.556406605,mp-20006
Ba(BO2)5,0.6024,-2.556361644114583,mp-1204604
NaTiInP2SO12,2.0907,-2.55625940286102,mp-2712817
CaMg6BiO8,0.0007,-2.556248723125,mp-1031768
Na2ZrSi3O11,0.1708,-2.556230359868154,mp-1200500
MgTi2Nb2(PbO3)5,2.151499999999999,-2.556202561066666,mp-1222255
Na2Ti2Si2H2O9,2.4419,-2.556190225848546,mp-1211212
NaZr2Ga2P3(SO8)3,3.2018,-2.556153158080226,mp-2716331
RbSm(CO3)2,4.197599999999999,-2.55599182175,mp-9842
CsNaB10(H2O9)2,5.7673000000000005,-2.5558952394912122,mp-1226923
CdBiBF10,2.0295,-2.55577192301282,mp-1196929
SbAsF8,3.8741,-2.5556112302500003,mp-27317
Li3BO3,5.1473,-2.555442086309523,mp-27275
KUHSO7,2.1222,-2.555387129181817,mp-1205215
NaLiMg6O7,2.1669,-2.555371983980842,mp-1030910
Er4(GeO5)3,0.0,-2.555348711363637,mp-1204871
Na2TaHgF6,0.0,-2.555270270786664,mp-1111478
Li3Sn(PO4)2,0.226399999999999,-2.555210150782313,mp-758002
Na6La2Ga2Si3(SO8)3,2.6708,-2.555193904644396,mp-2716200
Na14Si11Sn8SO48,2.880499999999999,-2.555010455570858,mp-2714337
NaAl2P(SO6)2,5.2041,-2.554980401630862,mp-2714395
Li5Sb2P5O18,3.5619,-2.554948122329365,mp-26585
Li2SnP2O7,3.9316,-2.5549176209126983,mp-27033
Cs2RbCuF6,0.8744000000000001,-2.554806225681035,mp-1206535
Na8CaSi5Sn3SO24,1.614599999999999,-2.554801447465106,mp-2715611
Na3AsF6,3.8054,-2.55475783375,mp-1110574
BaB2H2O5,4.7844,-2.554731680083334,mp-757727
TbInGe2O7,2.7325,-2.554677998030302,mp-1217549
K2SnH2OF6,3.9197,-2.554668974541667,mp-41634
NaNbGe3(PO4)6,2.7907,-2.5546585584067563,mp-2713906
Ca2Sn3O8,2.431899999999999,-2.554531388846151,mp-1386610
KNaTiH2O3F4,2.6546000000000003,-2.554518929330221,mp-1212264
Na6Mg3SnP4(SO12)2,2.846199999999999,-2.554491282046183,mp-2712617
Na8NbIn3Si5SO24,2.286699999999999,-2.554449325282568,mp-2716177
NaCaLa(SO4)3,4.8129,-2.554408951696999,mp-2714231
NaY3Mg(SO4)6,5.284800000000001,-2.554397803848933,mp-2714834
K2TaCuF6,0.3302,-2.5542946851833332,mp-1112878
Na4TiZnSi2SO12,1.8464,-2.554275426492885,mp-2714597
Rb2PrCl5,4.8692,-2.554213675208335,mp-28275
Na2LiTlF6,3.372,-2.554093055916669,mp-1110629
Ti5ZnBi2(Pb2O9)2,1.9482,-2.554041921555555,mp-695325
Na10Mg4Sc4Si3(S3O16)3,3.1704,-2.554039437495211,mp-2714821