formula,bg,formation_energy,mp-id
K2LiNb2P2(CO7)2,0.0291,-2.418299979439957,mp-1235953
Na8Mg2Ga2Si3(SO8)3,2.088799999999999,-2.418298615123837,mp-2715104
Li2TiTeO6,2.4255,-2.418253728166667,mp-756117
La(LuS2)3,1.0627,-2.418229514687496,mp-1106254
Ca2InSbO6,1.4198,-2.418137422666666,mp-1516764
Li3RuF6,0.0,-2.418111476374999,mp-1111685
Na13Ca7S12(ClO16)3,5.0397,-2.4180919452762772,mp-721012
AlBi3F15,0.0209,-2.418079153421048,mp-1047502
La4(YS2)11,0.0,-2.418010962111505,mp-1195795
PClOF2,5.4542,-2.417952761678572,mp-558681
Na3Ca3Al(SO4)6,4.5451999999999995,-2.417674514030755,mp-2714987
AlCuO2,1.8148,-2.417624361249986,mp-3098
Na3LaZnSi(SO6)2,3.1156,-2.417538891956897,mp-2712692
LiZnP2HO7,4.4957,-2.417495878343253,mp-1211621
Li3Sb5(PO4)6,3.9611,-2.417317315733081,mp-26281
P2Pb2O7,3.7752,-2.417288511298698,mp-22325
SrEuInSnO6,0.0,-2.417278251666667,mp-1522043
NaSb2H2OF7,4.5128,-2.417231138183024,mp-1201921
Sm2C(NO)2,3.9197,-2.417075170714286,mp-9499
Ge5P6O25,3.5718,-2.416966496051587,mp-18049
Na6CaSi4Ge3(SO12)2,1.0271,-2.41673858779023,mp-2714564
SrBiClO2,3.3015,-2.416585643,mp-547244
KCaTiBiO6,0.6149,-2.416488118058333,mp-1521577
Na6Sn2B4SO16,3.4335,-2.416467001980776,mp-780239
Na10Nb2In6Si7S5O48,2.1976,-2.416329946469571,mp-2715865
Na10Ca4Mg4SiS11O48,3.9598999999999993,-2.416300476319997,mp-2713319
CsRb2GdCl6,3.2239,-2.416271157465517,mp-1111780
Cs3ErCl6,5.0846,-2.416236267083332,mp-1213797
Sr9Zn3(CuO7)2,0.0,-2.416175767857143,mp-1344825
Na10Ti4Zn4Si5S7O48,1.3997,-2.416137669012305,mp-2715076
Ca2Nb2SiS5O24,0.8953000000000001,-2.4159796121813732,mp-2713035
Na2Zr4Ga4Si3(S3O16)3,2.3904,-2.415943751051314,mp-2716420
NaCa3Ta(SO4)6,0.8877,-2.415886537248933,mp-2714770
Ba(LuS2)2,1.7477,-2.415832439761902,mp-984052
Li2RhF6,0.0,-2.415816682592591,mp-7661
Na3LiSbP2O9,0.0009,-2.4157931155785612,mp-761144
Sn3(P2O7)2,2.899199999999999,-2.415777515408163,mp-1047057
DyBi2BrO4,1.329,-2.415745113333333,mp-552992
Er(ReO4)3,3.8254,-2.41569748515625,mp-772838
Na14Mg8Si3(S3O16)3,2.87,-2.415687889554598,mp-2714523
K4MgTi2O6,0.604699999999999,-2.415682423897436,mp-2218877
YNbO2,0.0,-2.415543313125,mp-1207699
RbYSeCl2O3,4.313,-2.415441979980468,mp-1209082
LiB2SbO5,2.9318,-2.415428627685186,mp-770808
Si2Pb3O7,2.642199999999999,-2.415327059444444,mp-21767
TbEu4S5,0.0,-2.415321333406245,mp-1217604
Ce10S14O,0.0,-2.415226474499998,mp-579209
YSnP(SO6)2,1.6224,-2.415199377135855,mp-2712935
Ba(YS2)2,1.7564000000000002,-2.4151363792857152,mp-29036
Na3SiBSbO7,0.0,-2.415099216408045,mp-770708
Na5ZrIn3Si3(SO8)3,0.8790999999999991,-2.415094474770852,mp-2713469
SrEuMgBiO6,0.0,-2.41499012,mp-1521845
LiSn4P7O24,0.3184,-2.414981431967593,mp-757967
Na2CaSn3P4(SO12)2,1.3010000000000002,-2.414952110036946,mp-2712669
KPrAlBiO6,0.0,-2.414907063891667,mp-1522018
Rb3PrCl6,4.5158000000000005,-2.4148858664166672,mp-1114630
K3SO4F,5.2302,-2.4147752738055552,mp-557035
KNa2RhF6,2.23,-2.414702676000861,mp-1111007
Sn5P6O25,2.5557,-2.414696242996032,mp-769187
TlTeF5,4.4542,-2.414693193928571,mp-29903
NaEuDySeO6,0.0,-2.414606664038973,mp-1522079
Nd4S3NCl3,3.0831,-2.414506331590908,mp-559514
TlZn(PO3)3,4.670599999999999,-2.414439971590136,mp-557589
K2HoCl5,4.9925999999999995,-2.4143879346875,mp-1212046
BiPO4,3.7758,-2.414275679107143,mp-1190564
SrLaBr5,3.063799999999999,-2.414229094285713,mp-756437
Cs2LiPdF6,0.0,-2.414089176541671,mp-1112572
LiZnBO3,3.5248,-2.414061129583333,mp-1222376
SrLa3(Cu2O5)2,0.0,-2.414049009722223,mp-1218269
KNb3(SeO6)2,2.3298,-2.41398403760764,mp-1202434
Na6Sc4In4Si3(S3O16)3,2.428499999999999,-2.4139476152131882,mp-2713823
Sr3CaS4,2.4485,-2.413889143906251,mp-1218367
Li3SiBiBO7,0.0,-2.413697305705128,mp-771028
NaSc3Zn(SO4)6,3.9473,-2.413626605753695,mp-2714885
SrNd10Se12(Cl2O9)4,3.833,-2.413526224972015,mp-1218343
La4(HoS2)11,0.0,-2.413471055176172,mp-1199201
K2PdF4,1.8732,-2.413465222071428,mp-28163
Na2Ca5Ti3(SO4)12,1.6555,-2.413380128896552,mp-2714711
Na3Ga2Ge2P5SO24,2.8352,-2.413358195221231,mp-2715834
Na2InCuF6,0.0,-2.413345171430557,mp-1111083
Na10Ca2Si7Sn6S5O48,1.2955,-2.413201366255895,mp-2716029
KAl2P2H5O11,5.390700000000001,-2.413148885846938,mp-541870
K3La(AsO4)2,3.882099999999999,-2.413142842982143,mp-975577
Na14Zn2Si9Sn6(SO16)3,1.8577,-2.413092106363541,mp-2714918
Na15Ta5Zn7Si9(SO8)9,1.8525,-2.413088394485951,mp-2713491
Na3BiBPO7,3.721199999999999,-2.413081627534419,mp-768582
Mg3SiO4,0.8046999999999981,-2.413047461875,mp-1024036
Rb2B7H5O14,5.1122,-2.413025882514881,mp-1197195
Na6Ca16Nb8Si3(S11O48)3,0.282,-2.412956577265599,mp-2714081
Sr2GaOsO6,0.2073,-2.412834986749999,mp-1207126
KNb4Bi5O18,2.6414,-2.412500272758929,mp-1223445
BaAl2Si3O14,0.538,-2.412429104999999,mp-1228625
Cs2KLaCl6,4.842,-2.412412663874998,mp-1113044
Cs2GaP4H3O14,4.9195,-2.412375312672157,mp-1200899
Na14Mg5Si6Ge3(SO8)6,1.63,-2.412265898141996,mp-2714156
EuNbInSnO6,0.064899999999999,-2.412239213666666,mp-1519602
Ho2Mg(SbO3)4,1.693299999999999,-2.412175315526315,mp-2230915
TbBi2BrO4,1.2946,-2.412139328958334,mp-549475
Sn3PO4F3,3.784299999999999,-2.412105847694805,mp-546757
SmCuO3,0.121799999999999,-2.4121013065,mp-770767
CsRb2PdF6,0.0,-2.412090709465516,mp-1111455
Na3Ce5Cl18,0.023699999999999,-2.412028637692305,mp-675238
Na14In4Si9Ge4(SO16)3,2.4142,-2.412015554331021,mp-2715199
Sr16Cu8BC7O40,0.0,-2.411980010891204,mp-686590
MgBi2P2O9,2.3591,-2.411884900306124,mp-1327704
Na6MgSi4Ge3(SO12)2,1.4352,-2.411752097248564,mp-2714478
Na2Nb4Ga4Si5S7O48,1.4857,-2.411623526646552,mp-2716179
Ca4Tl2CO9,1.3965,-2.411610125416667,mp-1227293
MgAl2H4Pb2(O2F3)2,1.0779,-2.4115538426315792,mp-1234634
BaTaCuO5,0.0,-2.411436601541667,mp-1042208
Mg2Ta2SiS5O24,1.2905,-2.411327467416667,mp-2713083
KMg6SbO8,3.9587,-2.411287267328124,mp-1030963
Li9Cu3P8O29,0.5526000000000001,-2.41127180494169,mp-776035
KB3(HO3)2,5.1004,-2.411243223677083,mp-605642
CsNpCl2O3,1.4092,-2.411233652272168,mp-1193524
Sr2CuBrO2,2.3439,-2.411228150833334,mp-552537
La2CeS4,0.0,-2.411186601428558,mp-1223418
Mg2TaAgO6,0.4176,-2.411180924399999,mp-1376543
CaZnO2,1.5973,-2.411118379999999,mp-1227007
Na5Mg4PS5O24,4.7146,-2.41108768980443,mp-2713265
K4HfO4,2.8827000000000003,-2.411071972666666,mp-1211649
Y3(ClO3)2,0.0,-2.41106761590909,mp-732177
Li4NbO4,0.0,-2.411031073703703,mp-755298
UTe6(OF5)6,2.2523,-2.411009155581395,mp-560028
BiP4HO12,4.9887,-2.410865821656745,mp-24348
KSrLaSeO6,2.1093,-2.410850605459376,mp-1520117
LiZnRhF6,1.5896,-2.410847439259258,mp-1222336
Na14Ti3Zn5Si6(SO8)6,1.6435,-2.410827314808663,mp-2714198
Na6Nb2Zn4P6(SO12)3,2.1612,-2.410650117783035,mp-2713537
Na2NdGeO5,0.4837,-2.410584326695402,mp-1194762
Na6Ca2Si3Sn2(SO8)3,0.0,-2.410540746686063,mp-2716248
Ba2La2TlCu2O9,0.0,-2.410498034270834,mp-1214673
MgSn3P3O13,0.1002,-2.410417427696428,mp-1041181
KLi4AlO4,4.149,-2.410383530683333,mp-557268
KSrSmSeO6,1.9386,-2.410330781459374,mp-1516725
NaMg4(AsO4)3,3.197899999999999,-2.4102989541939652,mp-17771
Ba9Pr6Br34,0.0,-2.410153595306123,mp-1205126
NpSeO,0.0,-2.41014346703125,mp-1018828
SrCaBiSbO6,2.0045,-2.41013225825,mp-1517174
Na14Ca4In4Si5S7O48,2.4298,-2.410106850957037,mp-2716119
Li7NbO6,3.5376,-2.4100714059523822,mp-37399
Na2Ti4Si5Ge4S7O48,1.5138,-2.409967590408457,mp-2716158
Eu2Cu(GeO4)2,0.0,-2.409798263461539,mp-1213273
Nd10As8Au3O10,0.0,-2.409683300806451,mp-1194538
K2RbPdF6,0.0,-2.4096543641999992,mp-1111117
Cs2HgAsF6,0.0,-2.409626451931035,mp-1112603
K3CuB2P4H3O17,0.8481000000000001,-2.409463520996826,mp-773133
Ce2S3,0.0,-2.409448382687498,mp-20973
Cs2InAuF6,0.6895,-2.409391365000002,mp-1112611
Ca(TmS2)2,1.567899999999999,-2.409249856607143,mp-1194132
KRb2ScCl6,4.0163,-2.409211286725,mp-1114036
SrAl2(Si2O7)3,0.2584,-2.409176816,mp-1218866
NaU(B2O5)3,0.2873,-2.409133278538231,mp-1201797
KEuDyBiO6,0.0,-2.409058104141666,mp-1519698
BaBiClO2,3.177399999999999,-2.409013681000001,mp-552806
BP5(Pb3O10)2,3.7876,-2.4089581535119042,mp-1228851
LiTmU2S3O2,0.0,-2.40895645509259,mp-1235285
Na2Ga2Si3(HO3)4,3.6402,-2.408921720011244,mp-1173829
Na10Si9Ge8(SO16)3,2.8133,-2.408904651319997,mp-2714137
BaEuSnBiO6,0.0,-2.408897752750001,mp-1520933
NdBiO4,0.579699999999999,-2.408715061249998,mp-756400
SmH2ClO2,4.722399999999999,-2.408652389166666,mp-757145
Na8Al2Zn2Si3(SO8)3,2.9637,-2.4086417851635202,mp-2715095
NbAsO4,2.6353,-2.408638266249999,mp-770219
K2CuP2O7,0.0,-2.408616286148808,mp-1190935
Na2ZrSi6O19,0.0,-2.40858781991995,mp-1210412
KMg6BiO8,4.386900000000001,-2.408582422328124,mp-1030940
Sc2Cd3(GeO4)3,2.4981,-2.4085454906250012,mp-13771
Cs4Cu3F10,0.123,-2.408485024705883,mp-505031
K2Zr2ZnH12(OF2)6,5.1227,-2.408274746842842,mp-707219
SmTlO3,1.166699999999999,-2.408038135166669,mp-754787
Na5Mg2In2P3(SO8)3,3.2744,-2.407997044786115,mp-2714802
K2Nb2As2O11,2.9930000000000003,-2.407951699088234,mp-1224597
Cs2KYbCl6,0.0,-2.407882218374999,mp-1206442
La4Cu3TeO12,0.0,-2.407845207333333,mp-1147683
AsPbF7,4.0652,-2.40769107972222,mp-29992
Ca2Cu(ClO)2,0.0,-2.407438672857143,mp-23143
LiAcO3,0.0,-2.407406714166667,mp-1185297
La10US16,0.0,-2.407361903379629,mp-675741
Na3U2O10F7,0.3209,-2.407340523142632,mp-1191243
Ba6Ca2Ir3RuO18,0.0,-2.407141747666667,mp-1228306
Nd2EuS4,0.3825,-2.407110763035713,mp-37693
Li5Sn5(PO4)6,0.256499999999999,-2.407106244988095,mp-775971
K2Si3PbO10,0.8807,-2.40706133684375,mp-728972
Na2Mg4Ti4SiS11O48,1.2327,-2.4070564313132192,mp-2714088
Ca(YS2)2,1.5361,-2.407047725892858,mp-18642
Cs2ThCl6,4.6873000000000005,-2.407044542777776,mp-27501
ZnSn(PO3)4,3.5656,-2.407036655753967,mp-1045577
Rb3CeCl6,4.1027,-2.40703029325,mp-1110733
K2InAuF6,0.3609,-2.4069415771166662,mp-1111944
Na7Zn2In2P5SO24,3.4372,-2.40690824683828,mp-2715863
CaBeAsO5,0.6178,-2.406895010000001,mp-1196768
Na12Mg10Ta2Si3(S5O24)3,1.757299999999999,-2.406884041523846,mp-2713355
NdBi2ClO4,1.1973999999999991,-2.4068132021875,mp-545529
BaHClO,4.8576,-2.4067877540625,mp-24565
Ba8In6O17,0.720699999999999,-2.40650261048387,mp-758269
Ca(HoS2)2,1.552699999999999,-2.406478716964284,mp-1194276
Ta2Bi4O11,2.7997,-2.406476838215685,mp-29680
NaLa(SnO3)2,0.0,-2.406475525637931,mp-1521749
Cs2KTmCl6,5.2319,-2.406428275874998,mp-1112689
K2AgAsF6,2.2292,-2.406359153366666,mp-1112290
K2GdCl5,2.5725,-2.40632775125,mp-1212034
Cs2CuP2O7,0.0,-2.406190851966337,mp-1191467
Na10Ca6Si3Ge2(S3O16)3,0.006399999999999,-2.406182646341365,mp-2714620
Na3ScSi3Sn3(SO8)3,1.9944,-2.4061187565758,mp-2716407
Rb3NbF12,0.0,-2.40600966015625,mp-1212541
CsCeMg6O8,0.120099999999999,-2.405962385603447,mp-1031196
Na3Ca3SnPS5O24,1.8127,-2.405738218593175,mp-2712723
Sr3ZnRhO6,0.0,-2.405707892727271,mp-18330
Na14Mg6Si5Sn2S7O48,0.6936,-2.405703946932647,mp-2713068
TaAgO3,1.9156,-2.405688931799999,mp-9890
Sr3ZnIrO6,0.0,-2.405621740454546,mp-6723
Yb2PrDyS6,1.271199999999999,-2.405467888854167,mp-561096
Sr8RuRh3O16,0.0,-2.405361412142857,mp-1218503
Na2Zr4In4Si3(S3O16)3,2.0447,-2.405288912051314,mp-2716501
Cs3AlGe2O7,3.447199999999999,-2.405274430305039,mp-561315
K2GaP2H3(O4F)2,4.9272,-2.405246178057539,mp-1224478
Na4Ca3SiSnS5O24,1.5037,-2.405217212667121,mp-2713339
Na6Nb3In5Si6(SO8)6,1.445399999999999,-2.405103227341566,mp-2714670
NbAl3SiS5O24,1.4425,-2.405066493946079,mp-2712850
CaSn2O5,1.5078999999999991,-2.404876614374999,mp-2654140
Ca3Ru2O7,0.0,-2.404844892916665,mp-3258
Li10Cu(SiO5)2,0.3449,-2.40484273231884,mp-1266446
Cs2TlRuF6,0.5579000000000001,-2.4047394292643682,mp-1112339
Li3CuP2O7,1.200699999999999,-2.404669163406593,mp-781753
La3Se4Cl,1.207799999999999,-2.404603173281248,mp-1223184
Na2Be2O3,4.267200000000001,-2.404590689679803,mp-754663
NbBi2O5F,2.3744,-2.404542809166668,mp-1198057
Na3BSbPO7,3.6499,-2.404447517919034,mp-768556
HfMg6BiO8,0.422199999999999,-2.404375670625,mp-1033246
Pr2Ir2O7,0.0,-2.404353863939392,mp-558448
Ca(ErS2)2,1.5692,-2.40433364077381,mp-1194059
Cs3CeCl6,0.460399999999999,-2.40432392925,mp-1214351
Bi2PbF8,3.6843,-2.4043003390909052,mp-1229287
Na2SmCl5,4.7031,-2.404292806282327,mp-1210374
CeDyS3,0.0,-2.4042347131875,mp-20775
Pr4S3NCl3,3.0308,-2.404059984469697,mp-558143
K2RbLuCl6,4.5442,-2.404058914866666,mp-1111209
Nb2Si3Ge2(SO8)3,1.529399999999999,-2.403985450563726,mp-2713904
Ta2Bi2O9,0.0,-2.403751906128207,mp-1345265
Ca2Si3O11,0.0,-2.4037383425,mp-1204013
Na7Bi3P12(Pb5O24)2,3.4189,-2.403696582817117,mp-686311
Na3YSi3Sn3(SO8)3,1.7445,-2.403572438602828,mp-2714731
NaScSiGe(SO6)2,1.3878,-2.403559065817369,mp-2712555
Sn4OF6,3.2029,-2.403453935227274,mp-28932
PrBiO4,0.9319,-2.403409196111112,mp-756241
Nb8Tl8O25,0.0,-2.403346426138214,mp-758350
K2RbTmCl6,4.516199999999999,-2.4033324822,mp-1111204
CsNaF3,0.029499999999999,-2.403227270206896,mp-998609
Sb3O2F5,3.777699999999999,-2.403214531999999,mp-541240
RbMg6BO8,1.7283,-2.403174752291666,mp-1033557
Na2SbSO4F3,4.4339,-2.403104645705329,mp-557006
KCaDySeO6,2.0625,-2.40307084312604,mp-1521578
BaLiNbBiO6,0.0,-2.402924606333333,mp-1522600
Na3Ca2Ge2P3(SO8)3,2.265399999999999,-2.40290460938468,mp-2713945
LiCu(PO3)3,0.7209000000000001,-2.402899126232993,mp-12185
Na3YMg3(SO4)6,4.7532,-2.402883462454179,mp-2715070
Cs2KErCl6,5.2229,-2.402852274208334,mp-1113058
BaTiCu4P4O17,0.2743,-2.402838482848324,mp-1195143
Ce4Si4N6O5,0.073799999999999,-2.402815457105263,mp-1228410
Rb2TlRhF6,1.9393,-2.402731809833334,mp-1113861
LiTb(SO4)2,5.6184,-2.402702175416665,mp-1210998
La4Cu3SeO12,0.0,-2.402573929117187,mp-1147534
LiB3P(HO3)3,5.9877,-2.402489649880952,mp-850414
CaBr2,4.5304,-2.402401639999999,mp-22888
SrBi6(PO5)4,3.508399999999999,-2.4023497528571442,mp-561005
LiB2SbO6,3.2633,-2.402341693666667,mp-761862
Ba2EuMgSbO6,0.0,-2.402290958181818,mp-2217343
ReO2F3,3.4309,-2.402220216875,mp-556419
K2NaSmCl6,4.8597,-2.402175737087931,mp-1111223
MgSO4,5.4889,-2.402174846249999,mp-7572
Y2NCl3,2.0584,-2.402162087708333,mp-28580
MgBPO6,0.0,-2.402094971904762,mp-1202864
TcSb(OF4)2,2.8238000000000003,-2.402040733124999,mp-555059
Na3ZnSn3P5SO24,2.2982,-2.401978008374385,mp-2716041
Li4TiCu3(PO4)4,0.011099999999999,-2.401965505544217,mp-1177279
La4(TmS2)11,0.0,-2.401920832494342,mp-1204597
Na2PrGeO5,0.5208,-2.401911984936142,mp-727909
K2RbErCl6,4.5391,-2.401909932199999,mp-1111216
Na10Y4Zn4Si3(S3O16)3,3.3019,-2.401905754973843,mp-2714835
K2Ge3(BO5)2,3.868299999999999,-2.401851138401962,mp-560019
Pr2EuS4,0.472799999999999,-2.401814077083332,mp-34309
Fe3P4PbO14,0.0,-2.401629832435063,mp-1204465
Rb2NaScCl6,3.9108,-2.401621242137931,mp-1113963
TlGaF6,2.7277,-2.401600207499999,mp-1216587
NaAl2Sn2P3(SO8)3,2.3537,-2.401574028889749,mp-2716322
Bi4(B2O5)3,3.4311,-2.4015546122,mp-768923
Li8B2O7,5.6223,-2.401549138235293,mp-768921
CaSi2(NO)2,4.369099999999999,-2.401526043095239,mp-556884
Na14Mg6Si5Ge2S7O48,0.5415999999999991,-2.401507005957037,mp-2716074
Cs2KDyCl6,5.1988,-2.401450988375001,mp-1112785
Rb2PdF6,2.2306,-2.401405657222222,mp-14088
Sr4SeS3,2.375099999999999,-2.401386972187499,mp-1218371
Na4NbGa3Si3(SO8)3,2.4228,-2.4013393410662442,mp-2713672
TbGeO3,0.0,-2.401135169333333,mp-981132
Eu2BiSbO6,0.0,-2.4011155895,mp-1517831
SrCaS2,2.423199999999999,-2.401079551406249,mp-1218330
Na9Mg10Nb2P3(S5O24)3,2.1245,-2.4010268740436262,mp-2713648
AgB3O5,2.3274,-2.4009590843518502,mp-1194753
Zn3GaB6PO12,4.2006,-2.400930309875776,mp-39215
K2SrCl4,5.2349,-2.400892061428568,mp-674465
Rb2LiScCl6,3.7539,-2.400856649333332,mp-1113928
NdH2ClO2,4.8694,-2.400852244166666,mp-24124
Na6Zr4Zn4Si3(S3O16)3,2.5749,-2.400851667195169,mp-2713759
KBaTbBiO6,0.0,-2.400836511391666,mp-1518830
NaB3SeO7,4.4681,-2.400813502810254,mp-1202375
Ca(LuS2)2,1.5804,-2.40069353529762,mp-505362
Ba2ZrO6,0.0,-2.400618612222222,mp-1228078
Pr(YS2)3,1.043799999999999,-2.400588398854165,mp-1188199
Cs2NaYbCl6,0.0,-2.400583374999999,mp-567172
Na3Ce4Ti2(SiO12)2,0.304,-2.400503818880131,mp-1211173
SrICl,3.7669,-2.400487101666667,mp-1208666
In2Si2Pb2O9,3.445799999999999,-2.400471791555555,mp-542840
LiDy(SO4)2,5.7301,-2.400394452499998,mp-1211153
RbCu(PO3)3,0.8580999999999991,-2.400382944566327,mp-1209760
Na2Mg5Zr3(SO4)12,2.849199999999999,-2.4003818601584572,mp-2714886
Na5Al2Zn2P3(SO8)3,4.2959,-2.4002526802562,mp-2714900
LiSm(SO4)2,5.4634,-2.400219252777777,mp-1210992
Nd(YS2)3,1.0532,-2.4001071289375,mp-1188689
CaBi6(PO5)4,3.528699999999999,-2.399999724792627,mp-556615
Li5Bi2(BO3)4,0.0,-2.399995397536233,mp-768452
SrReO3,0.0,-2.3999262475,mp-1187226
Nb2Zn2SnO8,1.9789,-2.39990686653846,mp-1042811
Na4U3Te5O21,1.9654,-2.399891657465168,mp-1223772
Li4SiGe3O10,0.000299999999999,-2.39980577712963,mp-1222533
Zn3Si4(BiO7)2,2.4696,-2.399651391521739,mp-1260235
UTeO,0.0,-2.399632922222223,mp-3037
ScSnP(SO6)2,2.2843,-2.3995930247829143,mp-2713043
Ba4Ti(CuO3)3,0.2848,-2.39949921637255,mp-1147699
Mg(ReO4)2,3.9756,-2.399451724545452,mp-1541458
Na3Mg2Sn2P3(SO8)3,2.822,-2.399451203889184,mp-2713830
Cs2NaLaCl6,4.6183,-2.399424666499999,mp-1080017
Sr2Ge2O5,0.0,-2.399371943888889,mp-1187076
LiNd(SO4)2,5.3668,-2.399247307569444,mp-1211135
EuGaGe2O7,0.0,-2.399004742727272,mp-1213196
B12Pb6O25,1.4325,-2.398929618488373,mp-1200351
Li3Cu2F8,0.0004,-2.398615668461561,mp-761910
Ca4Ta2(SO4)9,3.1155,-2.398613763964052,mp-2713941
Pr(HoS2)3,1.021,-2.398605138354165,mp-1188730
Nd(HoS2)3,1.0278,-2.398549836937499,mp-1189307
YbNdS3,0.0,-2.398504084187499,mp-560374
Ce(YS2)3,0.0,-2.3984050541875,mp-1006324
BeZnO2,2.6575,-2.398314915,mp-550433
YBi2BrO4,1.339999999999999,-2.398279179375002,mp-553243
Nd2MgCuO4,0.0,-2.398247412499999,mp-2227604
Na2HfMg3(SO4)6,2.7772,-2.398130125354406,mp-2714036
PHF4,7.5478,-2.398073845148818,mp-29514
Y2MgCuO4,0.0,-2.397989175625,mp-2225369
CaZr(SiO3)6,0.0,-2.397929450192308,mp-1214457
K2SbPO6,2.6336999999999993,-2.397861930414285,mp-560240
Ba(SmS2)2,1.759,-2.397762902500001,mp-1194376
Ca2Al4Si8O31,0.059299999999999,-2.397745811444444,mp-1228237
Eu(HoS2)2,0.0,-2.397463759999997,mp-1193160
SrCa2(TeO3)3,3.384899999999999,-2.397443645,mp-1208684
LiHo(SO4)2,5.7722,-2.397288475694443,mp-1210949
Na10Al4In4Si5S7O48,2.8257,-2.397245777858459,mp-2715196
Rb3TaF12,0.9304,-2.397186020614583,mp-1210283
NaCaTiBiO6,0.7563999999999991,-2.397164929471265,mp-1520137
K2RbDyCl6,4.5105,-2.397108685366666,mp-1111215
Nd(TmS2)3,1.0206,-2.396928890937499,mp-1209868
Cs3PdF6,0.0,-2.396905287500002,mp-1113156
Rb4CuSi2O7,0.7041000000000001,-2.3968598675,mp-557618
LiEr(SO4)2,5.759799999999999,-2.396858697777778,mp-1211171
Na10Mg2Si7Sn6S5O48,1.6776,-2.396797182281536,mp-2716017
CeGaO2,0.0,-2.396664444374999,mp-1226543
YbPrS3,0.0,-2.396641787020832,mp-1079995
Cs2IrF6,0.077699999999999,-2.396600496666666,mp-572797
Ce(HoS2)3,0.0,-2.396533220187495,mp-1189290
Ti3TePb4O13,1.5694,-2.39652619531746,mp-1217292
KCaLaSeO6,2.2661,-2.396523217459376,mp-1516282
KNa2RuF6,0.0,-2.396515021000862,mp-1111006
KCaNbBiO6,0.0,-2.396354770725,mp-1517626
Pr(TmS2)3,1.0193,-2.396307627354167,mp-1105931
Na2CaMg(SO4)3,5.0629,-2.3961619938732612,mp-2714724
Na6Mg6Ti2SiS11O48,1.474,-2.396127371947422,mp-2713230
NbCuO3F,0.182199999999999,-2.39608348,mp-545525
Na10Ca3Si6Sn5(SO8)6,0.9053999999999992,-2.39596486107427,mp-2716554
Li2GaCuF6,0.0,-2.395960645111111,mp-1111358
La4(ErS2)11,0.0,-2.395942695540538,mp-1199854
La2SmS4,0.0,-2.395920842142857,mp-37386
Cs2KAgF6,0.637099999999999,-2.3958961098227,mp-13687
ZrSiGe(SO6)2,2.2648,-2.395819719117648,mp-2713452
Na4B2O5,3.6854,-2.395543281259143,mp-27564
Sr2LiTeO6,0.0,-2.395523745,mp-1208808
K2RbTbCl6,4.2001,-2.395406265866666,mp-1111205
K7P6H2NO22,3.6047,-2.3953959722659772,mp-707334
RbMg6GaO8,3.255299999999999,-2.3953844334375,mp-1033551
Na6B4Sb2PO16,0.0,-2.395374068951219,mp-780399
RbNb(GeO3)3,3.1728,-2.39532423375,mp-540633
CsNa3TiO4,3.4808,-2.395163036069604,mp-18182
Ba4Ho(CuO3)3,0.0,-2.395158187647059,mp-1214501
Li4Sn(BO3)2,2.6689,-2.394956696666667,mp-756045
Na2MgSn3P4(SO12)2,1.6731,-2.394907658416576,mp-2714297
Eu2I2O,0.048,-2.394903188999999,mp-558258
Ba2Tm2Zn8O13,1.621299999999999,-2.394862740600001,mp-1228595
K2TbO3,0.0,-2.394832200194443,mp-755592
La3GaS5O,1.196499999999999,-2.394744360999999,mp-561076
Rb2CuAsF6,1.0685,-2.394712896249999,mp-1113309
Ba3Y2Br12,3.5457,-2.394658194117647,mp-768402
Ce(TmS2)3,0.0,-2.394614313687498,mp-1188911
U(PbO2)3,1.611,-2.394609075874998,mp-650598
Na8Mg2In2Si3(SO8)3,2.030599999999999,-2.394527555242885,mp-2715216
BaMg6CuO8,0.005199999999999,-2.394508982499999,mp-1032324