formula,bg,formation_energy,mp-id
Na6Mg2Zr6Si5S7O48,2.1587,-2.728472258118594,mp-2715878
Ba6Na2P2Ru2O17,0.3806,-2.7284084055877362,mp-774691
RbNa2B6ClO10,5.1287,-2.7282600162629302,mp-1194580
Li2Ti3(GaO4)3,0.0,-2.728217190708334,mp-1222887
NaNbSiGe(PO6)2,2.7659,-2.7282060509628723,mp-2715738
BaNb4O6,0.0,-2.728184333636361,mp-505517
Li5La3(SbO6)2,3.1905,-2.728038602007576,mp-775628
KZr4BiO12,0.0,-2.728004237069445,mp-1516882
SrZnF2,2.609,-2.727970035624999,mp-1208622
K2LiTlF6,3.5058,-2.727947001116667,mp-1111658
NaMgTa3Si3(SO8)3,1.5814,-2.727913851072742,mp-2713965
Na2NbAl3P4(SO12)2,2.0691,-2.7278587805462062,mp-2712780
Na10Mg3Zr5Si6(SO8)6,2.6507,-2.7278503231682882,mp-2713472
Na5Ca3HfP3(SO8)3,3.9816,-2.727720338803208,mp-2714837
NaTaGeO5,3.3561,-2.72766144233908,mp-6066
Na3Y2Sn2P5SO24,2.670499999999999,-2.727656582473483,mp-2716093
SrZn2(PO4)2,4.1385,-2.727579975137362,mp-8810
Na3BiF6,4.365600000000001,-2.727570453999999,mp-1238101
Na14La4Al4Si7S5O48,3.2347,-2.727384353904191,mp-2715631
Li4Nd3SbTeO12,3.007799999999999,-2.727341062738094,mp-677490
KMgAs3F18,4.6981,-2.7272360736847823,mp-1195089
Na2Y3NbSi2(SO6)4,1.4457,-2.7271375659099633,mp-2712761
Na3Zr3InSi3(SO8)3,3.3716,-2.727060082431657,mp-2714806
Eu2SO6,0.0,-2.727015809722224,mp-542297
LiSbP(OF3)2,2.1513,-2.726943667997835,mp-1176602
Na6NbAl3Si4(SO12)2,2.090799999999999,-2.726919521081897,mp-2714415
PF5,7.1089,-2.726831949662697,mp-8511
Na3Nb4Zn2(PO4)9,2.0209,-2.7268281815911792,mp-2713371
Ba9In4(SF)10,2.250299999999999,-2.7267408510353532,mp-1204134
Na2Nb6Al2Si7S5O48,1.8355,-2.7267289488608393,mp-2715801
KPrHfInO6,0.0,-2.726627014558333,mp-1522099
Ba2NdMgNbO6,0.0,-2.7266153811363623,mp-2240134
Ba2NdMgBiO6,2.9568000000000003,-2.726427295681818,mp-2226695
NaMg14BO15,2.918499999999999,-2.726315935662773,mp-1034618
KHfNbBiO6,0.0,-2.726267619725,mp-1522209
NaEuZrSnO6,0.0,-2.7262304791379313,mp-1520916
Na2Ta6In2Si7S5O48,2.3824,-2.726079088775123,mp-2715527
Sr4Tb2Mg(RuO6)2,0.0,-2.7260473756349213,mp-1233668
Li9Nd6Sb3TeO24,3.261799999999999,-2.725992318294574,mp-690979
BaCaPrBiO6,1.6029,-2.7259380801666673,mp-1523003
Sr3LaCl9,3.7384,-2.725930406538459,mp-771883
Na6Ta2In2Si5SO24,3.009299999999999,-2.7257637400110633,mp-2713735
MgTi(PO3)4,0.207399999999999,-2.725434473439153,mp-1045598
MgSb2F12,4.2356,-2.725351277666667,mp-1210686
K2Al11Si13(Ag3O16)3,1.376199999999999,-2.725265376018072,mp-1248874
Ba2SnO4,2.442199999999999,-2.7252446964285713,mp-3359
Na2CaNb4Bi2O15,2.1858,-2.725029319698276,mp-1223383
Cs2KTlF6,3.605,-2.724906554989368,mp-989526
ScCuO2,2.3309,-2.724876606249999,mp-3642
CsSb3F16,3.9634,-2.724867584170258,mp-683925
Na6Ti2Si5Sn2SO24,2.655599999999999,-2.724762156061063,mp-2713907
Sr5(Ga3O7)2,3.151799999999999,-2.724728475199999,mp-1020709
Ta2Pb2O7,2.820099999999999,-2.724673954060605,mp-755663
La2SiC(NO2)2,3.7006,-2.724474133,mp-1204122
NaCaTaP2SO12,2.5994,-2.724420203823982,mp-2712658
NbGaO4,3.4012,-2.724292765416665,mp-7601
Mg14NbSiO16,1.576299999999999,-2.724268769062499,mp-1034765
NaY4PS5O24,4.4559,-2.724201073053015,mp-2714315
Na5Hf2Zn2P5SO24,4.0267,-2.72416827087891,mp-2715059
CsLi4(BO2)5,4.6613,-2.724123129191092,mp-1019716
LiCaPrTeO6,3.4532,-2.724112551166666,mp-40186
Sr2Pr2PtO6,0.819299999999999,-2.724112004848484,mp-1218742
Na8Y2Si5Sn2SO24,2.7003,-2.72411183218733,mp-2715689
Ba6Ca2Ta(RuO6)3,0.0,-2.724074563577778,mp-1228145
YMg6NbO8,0.414099999999999,-2.7240717343750003,mp-1031866
Ba3SrSb2O9,3.1456,-2.724019093666667,mp-555078
Na4YSi2GePO12,1.6323999999999992,-2.723909236991751,mp-2715522
Na2BeB2O5,4.7156,-2.723872338609195,mp-16737
Sr3RhF12,0.0,-2.7238224365624992,mp-1237311
CaCuF5,0.0,-2.723776985357143,mp-1337320
Na14Mg4Zr4Si7S5O48,2.6644,-2.723664211424517,mp-2715575
Ca3Cu2(SiO4)3,0.385799999999999,-2.723545364874999,mp-1163936
Na2La3NbSi2(SO6)4,1.7794,-2.723527849196999,mp-2712664
Ba10Pr5Ir(Ru2O15)2,0.0,-2.723267455566667,mp-1228864
YMg14BiO16,0.0,-2.7232421806250002,mp-1035862
NaHf2Ge2P5SO24,1.7271,-2.7230595136788662,mp-2716239
LiTm2(ClO)2,0.0,-2.722946161904764,mp-1236076
Na14Ca4Ti4Si7S5O48,1.4925000000000002,-2.722913195489558,mp-2715657
CaZr3P2(SO6)4,3.254699999999999,-2.722878854684874,mp-2712978
HoTlO2,1.4262,-2.722815777083333,mp-754555
Na10Zr4Si9Sn4(SO16)3,2.8438,-2.722803416405467,mp-2714128
Li3Nb4CuO12,1.067599999999999,-2.7227905485000012,mp-1222641
Sc3TaP2(SO6)4,3.1339,-2.722762511420168,mp-2712903
Sr4CaY2(RuO6)2,0.0,-2.722753718095237,mp-1234402
CeNb2InO6,0.0,-2.722724851666666,mp-1521419
Na2Zr4Sc4Si3(S3O16)3,2.5995,-2.722717826575124,mp-2716392
Na3NbInSi2PO12,2.3234,-2.722633350355706,mp-2713305
Li3Nd3(TeO6)2,3.2189,-2.722538399666666,mp-677627
Na6Mg2Nb4Si6(SO12)3,1.8846,-2.722523810803085,mp-2712657
Tm2Cu(GeO4)2,0.6673,-2.722467856538462,mp-1208044
PuClO,0.0,-2.72245754458333,mp-27981
Na4AlGaSi(PO6)2,4.0387,-2.722450041220775,mp-2714550
CaMg6CuO8,0.0059,-2.722430875624999,mp-1032922
Sr3Sc2Cu2S2O5,1.2847,-2.722424895,mp-15900
Na7Al2Si3Sn2(PO8)3,3.4368,-2.7223951978922862,mp-2714794
Na2CaTi2(GeO4)3,2.6301,-2.722326167471263,mp-695511
Na6La4Sc4Si3(S3O16)3,3.2071,-2.7223096685465222,mp-2713763
Sr3Ga4O9,2.8947,-2.722258815937498,mp-30158
Na7Ta2Zn2Si3(PO8)3,2.6365,-2.722233316867896,mp-2715117
SrHfMg6O8,0.0135,-2.722126034999999,mp-1033367
Ba3Bi(ClO)3,3.628699999999999,-2.7221205962500012,mp-556855
Ba6Li2Ti7(Sb3O14)3,0.0,-2.722113884999999,mp-772829
Na12Ca4Ta2Si6(SO12)3,2.5972,-2.721797364424102,mp-2714553
Na15Mg8Nb4P15(SO24)3,2.1783,-2.721700916861817,mp-2715187
Nd2CuSnO6,0.0,-2.721422250499999,mp-1209839
Na2YGe(PO4)3,1.5775,-2.721394509737924,mp-2713285
Na2Y6Ta2Si3(S3O16)3,1.7872,-2.72139063468941,mp-2716459
BaMg14CdO16,3.9751,-2.721211047499999,mp-1033825
K2TlInF6,3.6161,-2.7211256534499992,mp-1111423
HfTi(SnO3)2,1.8075,-2.721022644333333,mp-1520521
KHfMg14O15,0.8674000000000001,-2.720996721040322,mp-1035753
La7Ti27Al5(CuO4)24,0.0,-2.720968036509435,mp-697332
Na3SbF6,3.6583,-2.7208094204137923,mp-1237388
Sr3Sn2O7,2.1652,-2.720771853333333,mp-17743
NaEuCu2F8,0.0,-2.720747916364943,mp-1210237
Na4AlSi2SnPO12,3.383399999999999,-2.720644195960005,mp-2716193
CsMg14AlO16,0.0,-2.720543489989223,mp-1036504
BaTl(PO3)3,4.8597,-2.720317251411566,mp-1214441
Sn5BF13,4.1741,-2.720310189298246,mp-28271
AlBPbO4,2.940799999999999,-2.720201696845237,mp-558137
Na3LiTi2Si4(HO4)4,3.5603,-2.720117881137931,mp-1205129
BaTi4SnO12,0.0,-2.7200258576851852,mp-1521740
K3CaP2HO8,4.9617,-2.720008220819047,mp-696878
Be2BHO4,6.1491,-2.719959714270833,mp-23883
Na2La6Ta2Si3(S3O16)3,1.986899999999999,-2.719895832832267,mp-2716514
Sr6La4Mg2Ru3O20,0.0,-2.719839009428572,mp-677385
CsYMg14O16,0.0,-2.719806035926723,mp-1035953
Sm2Ti12(CuO4)9,0.0735,-2.719798642881357,mp-1219316
Dy2Ti12(CuO4)9,0.0872,-2.719789795480226,mp-1225647
K3ZrHS(OF)5,0.9258,-2.719772605187501,mp-707845
EuBrO,0.0,-2.7197500433333333,mp-504727
NaLa2Y2PS5O24,4.2993,-2.71973288781492,mp-2714094
Na10Ta2Al6Si7S5O48,2.9483,-2.71963191644393,mp-2716112
MgTiSnO4,1.5509,-2.7196302190476183,mp-2240245
NbAgF6,2.8973,-2.719586547499998,mp-997394
HfBiO4,1.0512,-2.719543018333333,mp-756683
Sr4Y2Mg(RuO6)2,0.0,-2.719415458809524,mp-1234008
Na2Al2P2SO12,5.0501,-2.719333332958474,mp-2713603
Eu2TeO2,0.0,-2.719127551333334,mp-19897
Na4CaTiSi2SO12,1.9929,-2.7189812957785993,mp-2714360
Ti3CuO8,0.0,-2.7189777024999993,mp-1103016
Na8Ti2Ga2Si5SO24,2.8173999999999992,-2.718954646988917,mp-2716256
LiNb8O14,0.0,-2.7188851707971002,mp-772216
CaTi(GeO3)2,2.1605,-2.7188364963333322,mp-1042982
CsAsF4,4.6128,-2.718765889525862,mp-5707
Na5Sc2Ga2P5SO24,3.5824,-2.7187324322891673,mp-2714961
Na11B21(ClO18)2,4.6281,-2.718717655323892,mp-1222188
SrCa3IrO6,0.0,-2.718715102272726,mp-1218449
RbSrSiHO4,4.0584,-2.7186143454687492,mp-995216
Na4Zr(SiO3)6,0.1176,-2.718613331828181,mp-728912
Na14Zr4Ga4Si9(SO16)3,3.4715,-2.7185390046968743,mp-2715055
Er2Cu(GeO4)2,0.6651,-2.718419099230768,mp-1213038
Na3Sc2Sn2P5SO24,2.924499999999999,-2.718401294275285,mp-2715990
Ba10Ta10(N3O7)3,0.0,-2.718391446666666,mp-40160
K2NbTlF6,0.0,-2.718334455783333,mp-1111198
Na7Al2Ga2SiP5O24,4.0809,-2.718231678565923,mp-2715525
YTaBi2O7,2.3581,-2.718164489757576,mp-1216041
Cs2NaTlF6,3.6228,-2.718130387402299,mp-13800
Ho2Ti12(CuO4)9,0.0765,-2.7180944230508493,mp-1224439
KPrDyGeO6,0.0,-2.718067988558333,mp-1522774
Na3AlGa(PO4)3,4.3385,-2.718025436611659,mp-2715331
SrLaMgNbZnO6,1.775999999999999,-2.718022770909091,mp-2240064
KLaMg6O8,4.5898,-2.717927803265625,mp-1031347
RbMg14BO16,4.278799999999999,-2.717923006145833,mp-1034231
YbBeO3,0.0,-2.717871336749999,mp-1187905
Sr3CaAl8(SiO5)8,0.2195,-2.7178594365,mp-1218616
CaSmCuClO3,0.0,-2.717758603571428,mp-620364
Si5O8,3.4528,-2.7177123315384613,mp-1179651
NaLiSiB3HO8,5.445699999999999,-2.717652434564175,mp-558267
Na14Ca5Sn3(PO4)12,2.1563,-2.717608106707618,mp-2714041
Sr4CaCl10,5.1811,-2.717574591000002,mp-1218427
Er2Ti12(CuO4)9,0.079299999999999,-2.71751210101695,mp-1225949
Li3NbHO2F7,2.5761000000000003,-2.717511363125,mp-777766
Na6Sc2Al2Si3(SO8)3,3.1518,-2.717510823269397,mp-2716137
Na3La2Al2P3(SO8)3,4.2257,-2.717427881907204,mp-2713862
LiNd2IrO6,0.0,-2.7173155838333343,mp-11905
Na4TaZnSi2PO12,2.6805000000000003,-2.717304518055243,mp-2715542
BaCd(PO3)4,4.5835,-2.71729884686508,mp-540736
K3EuSi3(HO5)2,0.085999999999999,-2.717298684434211,mp-758551
Na4Ca2P2SO12,4.0729,-2.71729132550649,mp-2713026
LiSm2SO2,0.0,-2.7172168584722223,mp-1235642
KGaPO4F,4.2307,-2.717120060861606,mp-9332
Na6Ta4Si9Sn4(SO16)3,2.4835000000000003,-2.7171098081095852,mp-2712900
Li3NbO4,3.8385,-2.717096784687499,mp-31488
CeCdO3,1.544699999999999,-2.716939539499999,mp-1213812
LiNb2O4,0.0,-2.716891397619047,mp-758673
Na5Ti3O8,0.0,-2.716890297931034,mp-759473
Na4CaTi3Si3(SO8)3,1.0988,-2.716857296351332,mp-2713228
Mg2Nb2BiO8,0.0,-2.71675010076923,mp-1048411
Li4CuF5,1.208999999999999,-2.716604668166664,mp-752773
Na2CaTiP2SO12,1.7982,-2.716511765414614,mp-2713239
Li7Nb12O24,0.0,-2.716443507984496,mp-766084
LaTaBi2O7,1.9634,-2.716377552939393,mp-1222976
Nd2Ti12(CuO4)9,0.0898,-2.716349748559323,mp-1220529
Sr2MgTeO6,0.0,-2.716259643166666,mp-1078995
Si3Sb2O9,4.1492,-2.716238573214287,mp-769028
Ba3(Br2Cl)2,4.379700000000001,-2.71620308111111,mp-1228327
Na6Sc8Si3(S3O16)3,3.239199999999999,-2.715957719357332,mp-2714021
Li2TiGeO5,3.4593,-2.715895492777778,mp-13182
Na6HfMg3P4(SO12)2,4.5179,-2.715841599587849,mp-2712607
HfMg6CuO8,0.180800000000001,-2.7158204593749993,mp-1032239
Tm2Ti12(CuO4)9,0.0757,-2.715718284406779,mp-1216965
Ba4Nd2Cu2O9,0.0,-2.71570175882353,mp-560766
LuSiO3,0.0,-2.715639010333333,mp-973655
Na2CePCO7,0.2139,-2.715527651866788,mp-1176428
K2Na2La2MgNb2O10,0.0,-2.715460558539928,mp-2230339
Li4Ga3Si3BrO12,4.1359,-2.715361149601443,mp-556649
YNb3Si3(SO8)3,1.6027,-2.715254878210786,mp-2713971
Mg14CdSnO16,2.3563,-2.715150485781249,mp-1034307
Na2LiBiF6,4.3529,-2.71512521066667,mp-1110905
Sr5Re3IO15,0.7471999999999991,-2.715030643854167,mp-1209401
YMg6CdO8,0.2839,-2.714796772499999,mp-1031915
BiBOF4,3.202499999999999,-2.71463632702381,mp-1147533
Gd2Ti12(CuO4)9,0.082899999999999,-2.714581798644068,mp-1226218
EuTiNbBi2O9,0.0,-2.714533714880953,mp-1225394
Na2ZrSi4H4O13,4.9217,-2.714522347614943,mp-1210375
Rb2NaTlF6,3.6281,-2.714412728971265,mp-989548
Na5Nb2In2Si3(PO8)3,2.158,-2.714387604038251,mp-2714140
ZrTiSi(SO6)2,2.3847,-2.7143660203921582,mp-2713214
NaMg3P3(HO6)2,5.2188,-2.714224203467042,mp-1195665
Sr3Ta7Si(BiO4)9,2.3719,-2.7140583939523832,mp-1202933
Ho2Cu(GeO4)2,0.6806000000000001,-2.714034473076922,mp-1212393
Na5Y2Ga2P5SO24,3.0336,-2.714004221007117,mp-2715189
ScNb3Si3(SO8)3,1.686799999999999,-2.7139360404166673,mp-2713929
GdSbO4,1.636199999999999,-2.713932377499999,mp-1213602
LiAlGeO4,3.8893999999999993,-2.71391904690476,mp-1222525
SrCa2Al6(SiO5)6,0.0137,-2.713871325333333,mp-1218728
Mg2TaSnO6,0.0,-2.713810181233333,mp-1331701
Na6Y2Al2Si3(SO8)3,3.427699999999999,-2.7137844660193973,mp-2716205
NaAlSi2H2O7,4.7537,-2.713585609817639,mp-676991
Y2Ti12(CuO4)9,0.0757,-2.713519772881356,mp-1216233
Na14Nb4In4Si11SO48,2.5938,-2.713417572318826,mp-2714589
Na2La4SiS5O24,2.7461,-2.713412095099777,mp-2714332
Na5Sc2In2P5SO24,0.9415999999999992,-2.713279853613954,mp-2715141
Na3Mg2Zr2P3(SO8)3,3.9665999999999992,-2.713159125420716,mp-2713727
K2RbAsF6,3.8905,-2.713085384949999,mp-1111443
LaB4ClO8,0.0,-2.713032661547618,mp-1194424
SrCa3Al8(SiO5)8,0.026899999999999,-2.712969184166668,mp-1218635
KCeMg6O8,0.396999999999999,-2.712930684203124,mp-1031413
Nd4MgSi4(C2O11)2,0.658199999999999,-2.71287584742857,mp-1211102
Na2HfSi2SnSO12,2.9808,-2.712845088960981,mp-2712532
NaMgTaP2SO12,2.8298,-2.712804224194352,mp-2712640
BaMgTiO3,0.6172000000000001,-2.712712627222222,mp-2210610
BaMg14CuO16,0.9077,-2.71266189125,mp-1035297
K3Be3B3P6O25,0.002199999999999,-2.712644538427678,mp-1212145
Na2Zn(SiO3)2,3.8766,-2.712629385705328,mp-6675
Mg14GaBO16,2.351099999999999,-2.712593556145832,mp-1033774
YCuO2,2.647,-2.712541574999999,mp-2918
Na2Sc3NbSi2(SO6)4,1.7181000000000002,-2.712507024474777,mp-2712531
Dy2Cu(GeO4)2,0.680099999999999,-2.712502619871794,mp-1213218
Nb2CdO6,3.4237,-2.71249014527778,mp-781861
SrCd(PO3)4,4.4041,-2.712450513670635,mp-541367
Al6Cd4SO12,2.7127,-2.712313162499998,mp-9203
Sr3CaIrO6,0.0,-2.712270573636364,mp-559635
Na7La3MgSi3(SO8)3,3.2707,-2.712242328751753,mp-2714286
CsRb2AsF6,3.8491,-2.712054949215517,mp-1111463
MgSn(BO3)2,3.622999999999999,-2.712048039833334,mp-11715
RbSc(PO4)2,0.0048,-2.7120185988988093,mp-1196883
Na8Sc2Si5Ge2SO24,2.8388,-2.711925647584155,mp-2716244
Na4LaZn(PO4)3,3.5667,-2.711915335767262,mp-2715172
Ba2LaIrO6,0.0,-2.7118537085,mp-15889
Na10Be4Si4O17,3.9432,-2.711822081108374,mp-555606
Na3B6ClO10,5.1851,-2.711778290081896,mp-1195615
BaIn2(P2O7)2,4.004799999999999,-2.711770589614512,mp-1205018
KBaSiHO4,4.112999999999999,-2.7117696435625,mp-995194
Na5La2SiGe2P5O24,1.0245,-2.7116570426524143,mp-2715824
Hf2Sc2SiS5O24,3.927,-2.711621605514706,mp-2712847
Ca4PtO6,2.3407,-2.711582475909091,mp-8568
Na4Al2Si2SO12,4.1433,-2.711576382683362,mp-2714483
LiMg6BO8,5.7719000000000005,-2.711563033906249,mp-1031151
NdAg(PO3)4,3.857,-2.711514133902115,mp-541041
Lu2Ti12(CuO4)9,0.074899999999999,-2.7114665409039542,mp-1222714
CaTiBiO5,0.0,-2.711436888541667,mp-1043855
KSn2F5,3.0803,-2.711320516114588,mp-686016
Na6Nb4Al4Si7S5O48,1.5265,-2.7112719619249,mp-2712938
Na3TaZnSi(PO6)2,2.596999999999999,-2.711249729121183,mp-2715447
Zr2PbO6,0.1055,-2.711222780555556,mp-1100808
NaPr2RuO6,0.4715,-2.711197672471264,mp-542512
Sr2B5H3O11,5.1638,-2.711193324742062,mp-1201098
Na3La2Sn2P5SO24,2.3807,-2.71110736823925,mp-2716113
Tb2Cu(GeO4)2,0.0,-2.711039288717948,mp-1208539
Na2La2Y2SiS5O24,3.4777,-2.710999377970147,mp-2714442
CaHo(SnO3)2,0.0,-2.710857858499999,mp-1048836
Sr2Ca2IrO6,0.0,-2.710755106818181,mp-1218864
Si3Bi2O9,3.5103,-2.710729046428571,mp-558672
Ta2InBiO8,2.8546,-2.710622545944443,mp-1218166
Na4AlSi2GePO12,3.0837,-2.710617702309211,mp-2716223
KLaCO4,3.724199999999999,-2.710583218178572,mp-1223532
Mg2BiPO6,3.816699999999999,-2.710524105714286,mp-558660
Na3Nb5ZnSi6(SO12)3,1.8297,-2.710514353271073,mp-2715703
NaGaSiO4,3.8225,-2.710485432220855,mp-560632
Cs2Li5(BO2)7,4.534599999999999,-2.710408573040845,mp-1019607
ScSeO3F,3.6881,-2.710342881223958,mp-1102514
Mg3BH2O5F,3.8004,-2.710326439305555,mp-1222264
Na6Mg4Nb20Si21(S5O48)3,1.1081,-2.710178207194171,mp-2715809
Na2Ti8Si5S7O48,1.3434,-2.710172639598933,mp-2716144
Na21Mg10Nb2P15(SO24)3,1.945599999999999,-2.710093733992752,mp-2715978
Ca2P3Pb3ClO12,4.071099999999999,-2.7100666309013612,mp-1214153
Rb2Li5(BO2)7,4.6297000000000015,-2.710037167172619,mp-1020664
Na3HfGaSi2SO12,3.518099999999999,-2.709903590206897,mp-2714485
NaBe4SbO7,3.385899999999999,-2.709880308567638,mp-8075
NaScTiSi(SO6)2,1.9652999999999992,-2.7098354087803322,mp-2712602
DyTlO2,1.482399999999999,-2.70983181875,mp-755183
AlH2Pb3OF9,4.6703,-2.70977708078125,mp-1195722
Ti2Nb2Si3(SO8)3,1.4484,-2.709741790465687,mp-2713861
Na3AlSiSn(PO6)2,3.365999999999999,-2.709731162087849,mp-2715388
Ta4InBi3O16,2.820899999999999,-2.709500348166666,mp-1218158
BaZnCO3F2,4.7744,-2.709447530625,mp-11166
Na5Ca3ZrP3(SO8)3,3.0656,-2.709447175640816,mp-2714912
Ba3U2As4O19,2.363,-2.7091939857142853,mp-1199328
LiUAsO6,2.2759,-2.709139970648147,mp-558943
SrLa7Cu4(SnO6)4,0.0,-2.709066436125,mp-694970
Na14Mg4Nb4Si9(SO16)3,1.2887,-2.709026172989558,mp-2714807
Li6Eu(BO3)3,0.1316,-2.708959493421052,mp-1211786
LuAgO2,2.153,-2.7088829570833313,mp-1018025
LiTi(PO3)5,1.4696,-2.708730081585497,mp-684119
Na2Ta2Al2Si3(SO8)3,1.2679,-2.708702079997925,mp-2713976
Ba2B5O11,0.0119,-2.7085117121296283,mp-1198603
Na3NbHO2F7,2.7564,-2.708472258866994,mp-1200790
CaAl2(SiO5)2,0.0,-2.708402973333334,mp-1194309
Na5HfGa3(PO4)6,3.5477,-2.708378799673172,mp-2716333
Na2Y4SiS5O24,3.1185,-2.708358938340518,mp-2714548
BaY3Cl11,3.8318,-2.708353833333334,mp-769003
CaMg6SiO8,3.648199999999999,-2.708353568749999,mp-1032982
Ba2Lu2CuPtO8,0.282299999999999,-2.708278585238095,mp-1214855
Ca6Si2O13,0.2308,-2.708269333333334,mp-1214120
Ba4Ce2BiO12,0.0,-2.7081041710526312,mp-1228252
CaTiCu(PO4)3,0.0,-2.708056747625661,mp-1043730
Ba3Ga2B10H4O23,4.7953,-2.707842681230158,mp-1229265
Na6Ca4Nb2P6(SO12)3,2.0434,-2.707841890590053,mp-2713267
LaTi6Bi7O24,2.4667,-2.707786648815789,mp-1223128
Na5Ta2Zn2SiP5O24,2.5731,-2.7077450743105342,mp-2716070
Zr2Ag3F14,0.205599999999999,-2.707728659736842,mp-1207387
Na6Ca2Zr2Si3(SO8)3,1.7255,-2.707612212602729,mp-2716154
Li6Nd6Sb(TeO8)3,3.133099999999999,-2.7075753735,mp-532789
Li4TiO4,4.5573,-2.707544761296296,mp-9172
Ti3Sb2(PO4)6,2.1559,-2.707436092224489,mp-774763
Na6Ti2Si5Ge2SO24,2.717,-2.707414345394397,mp-2713937
KPrNbInO6,3.018,-2.707404843558333,mp-1523059
Li6Nb3P8O29,0.064899999999999,-2.707364884285714,mp-778109
SrTi(OF3)2,0.4866,-2.707322187333333,mp-1196423
Rb2CeO3,2.409999999999999,-2.707191813333332,mp-676666
BaSO4,5.950699999999999,-2.7071125895833332,mp-3164
Na11B21(BrO18)2,4.5093,-2.707069295038176,mp-1196557
TaSbO4,2.9929,-2.707046960388896,mp-1205391
HfMg6AlO8,0.0,-2.7070466881249993,mp-1032931
Na2MgTiP2SO12,2.1068,-2.707031190502333,mp-2713320
Li2Ti(PO3)5,0.160199999999999,-2.706944250574534,mp-684066
Li3Pr3(TeO6)2,3.128099999999999,-2.706880546291668,mp-1211386
RbNa2B6BrO10,5.010599999999999,-2.7068680281379303,mp-1195617
Na2Nb3GaSi4(SO12)2,1.9403,-2.706860824405333,mp-2715698
NaSrNbSnO6,3.2357,-2.706804176637931,mp-1520904
K3SiN(OF2)3,3.38,-2.706687907625,mp-6872
Mg14TiBiO16,0.0876,-2.706681060729167,mp-1034059
Li2TiPO4F,0.0097,-2.706664232738096,mp-25401
Sr2Y2Cu2O7,0.0,-2.706615954615384,mp-1048239
NaCa3C2O7F3,0.6346,-2.706591252586206,mp-1210550
BaMg14NbO16,0.9713,-2.7064310178125,mp-1034395
RbMg14SiO16,0.5214000000000001,-2.706373235859375,mp-1034675
KBaIn2(PO4)3,3.593499999999999,-2.706149211619048,mp-695157
ZnCu(Si2O5)2,0.9117,-2.7061276209375,mp-1043369
SrNb4O6,0.0,-2.706064196363636,mp-617266
Na7Al2Si3Ge2(PO8)3,3.5325,-2.7059328729329373,mp-2714634
Na6Mg4Ta8Si9(SO8)9,1.8098,-2.705843839763357,mp-2713128
TaBi(P2O7)2,3.0778,-2.705841241545221,mp-1218131
SrMg14BiO16,0.061099999999999,-2.70571075125,mp-1034358
K5Nb16(O5F2)4,0.0,-2.705676020535714,mp-1224281
Na5Al2SiSn2P5O24,3.211699999999999,-2.70564433837891,mp-2716034
CaSiH4(OF3)2,6.5428999999999995,-2.705608399285714,mp-1198120
CaZn2(PO4)2,3.787199999999999,-2.705513512252746,mp-18308
Li7La3(SnO6)2,3.8804,-2.705486955555555,mp-1200057
Na2Y4Nb4Si5S7O48,1.1332,-2.70544255921798,mp-2716164
LiYb(PO3)4,0.003599999999999,-2.705428796587302,mp-561390
LaHfMg6O8,0.1463,-2.7054213465625,mp-1030988
YMg14CO16,0.0,-2.70538628609375,mp-1035896
Sr2SmNb(CuO4)2,0.0,-2.705323408214286,mp-18490
Ba2Si3Ge5O18,3.2348,-2.7052119141071422,mp-1228626
K3TlF6,3.8026,-2.705112238258334,mp-27525
Sr4SO3,2.672899999999999,-2.7050071078125,mp-1079788
TaBiO4,2.9755000000000003,-2.704939912888891,mp-30900
Ba2Y5Cl19,4.3589,-2.704866088653847,mp-768958
Na2NbInSi(PO6)2,2.1667,-2.704794140546194,mp-2712807
Na2Hf6Mg2Si3(S3O16)3,2.9265,-2.704678355717981,mp-2716292
CsInF3,3.060899999999999,-2.704585844999999,mp-1112960
Na10Ca4Hf4Si5S7O48,3.3506,-2.704493676063587,mp-2715085
GdAg(PO3)4,2.3239,-2.704469561957672,mp-558152