formula,bg,formation_energy,mp-id
Cs2DyAgCl6,3.8171,-2.213275522264363,mp-1113610
Li8PrO6,0.0,-2.213111641888888,mp-8424
Ca2MgAs2(H2O5)2,3.856,-2.213057013157895,mp-1214276
RbHoS2O9,0.6467,-2.213051498269231,mp-733988
RbCu3P3(O4F3)2,0.1238,-2.21301967197279,mp-1199313
Pm2Se3,0.4855,-2.213014863437499,mp-1232181
NaGa2Sn2P3(SO8)3,2.066,-2.212909369508797,mp-2716358
Cs2TbAgCl6,3.8150999999999993,-2.212887619764369,mp-1112937
Cs5Bi(MoO4)4,3.5355,-2.212840091730769,mp-573429
Rb3DyO3,2.4322,-2.2127921884523802,mp-778968
Sr3Rh2O7,0.0,-2.212790678333333,mp-753070
Na2SnPCO7,0.0,-2.212731690200122,mp-768137
KAcO3,0.0,-2.212632814949999,mp-1185008
Th2S3,0.0,-2.212631071687497,mp-20163
KTbS2O9,1.225299999999999,-2.212611099147437,mp-1205216
Rb3LaBr6,3.8525,-2.2125770442499992,mp-1209702
NbRhO4,0.8726,-2.212486449166667,mp-756638
Ba10Cu5O17,0.0,-2.212478942968749,mp-766417
KSmS2O9,0.839299999999999,-2.212429253442309,mp-1211703
Ba4LiBi3O11,0.0,-2.212391477280702,mp-775429
K3GePCO7,3.8133,-2.212364896260989,mp-756801
K3B(SO4)3,5.2917,-2.2123619032061392,mp-1019789
Li2Cu3(P2O7)2,0.1731,-2.212279401749481,mp-26823
Ba2YTlCu2O7,0.0,-2.21219812525641,mp-654374
LiCu2P3O10,0.043399999999999,-2.212194657641369,mp-26531
KZn2BCl2O3,3.708199999999999,-2.212177890157408,mp-1078186
LaSI,2.1752,-2.21214162666667,mp-1211464
Rb2TiCl6,2.1471,-2.212134663148147,mp-27827
Na6ZnSi6Ge7(SO8)6,1.3557,-2.212097570382107,mp-2716474
Li5Ti2Cu3O10,0.174399999999999,-2.212030808166667,mp-780243
SmEuSe2,0.0,-2.211856643281251,mp-1219049
B2PdO4,0.7786000000000001,-2.211823168095238,mp-540900
Sr2CuTeO6,0.2198,-2.211730652666666,mp-6252
Na6Mg4Ga4SiS11O48,3.168,-2.211624630911386,mp-2713684
Al3P3H7CNO13,5.2435,-2.21151084067602,mp-1202100
Sr2YMgCu3O7,0.0,-2.211494766428571,mp-2241019
BaSrErCu3O7,0.0,-2.211466648846153,mp-1227765
RbY(SeO3)2,4.2881,-2.211355717468751,mp-1195500
Ce5S8,0.0,-2.211355457499997,mp-1226916
Na14Zn4In4Si5S7O48,2.1127,-2.211344746485492,mp-2713066
Na5Cu3(PO4)4,0.0026,-2.211317801980998,mp-1193249
NbGa3P2(SO6)4,2.5113,-2.21128871897409,mp-2712924
Ba3InIrRuO9,0.0,-2.211254367777778,mp-1228718
Ba2Nd(CuO2)3,0.0,-2.211208898958333,mp-614981
NaTl2RhF6,1.7848000000000002,-2.211141618804599,mp-14037
Na2Si3Ge4(SO8)3,1.2182,-2.211109503201629,mp-2713185
LiCuP2O7,0.6839000000000001,-2.211050051147185,mp-684120
CaBiSbO5,2.3491,-2.21094628734375,mp-1042360
CdP6Pb9O26,0.0,-2.210830486853742,mp-1227639
TiZn(BiO3)2,1.3495,-2.210799909333334,mp-1084840
SrCa3(RuO3)4,0.0,-2.2107397065,mp-1218465
NdCl2,0.0,-2.210736965277777,mp-973953
KLaS2O9,0.400099999999999,-2.210728174275641,mp-1211548
Na2MgSi2Sn3(SO6)4,0.395299999999999,-2.210692780539592,mp-2712569
UCl3,0.0,-2.210535621874999,mp-23208
Al2P2H4O11,0.3152,-2.210444462067669,mp-706302
Sc2Te(SeO5)2,3.493899999999999,-2.21041651892361,mp-1195246
Na3GePCO7,4.187900000000001,-2.210290680290829,mp-756494
KPHO3,5.309799999999999,-2.210218060107143,mp-1211912
Ca(HoSe2)2,1.1428,-2.210126742321429,mp-675701
Tb6CoCl10,0.0,-2.210081001176471,mp-1105586
Ba2Sr2Y2Cu6O13,0.0,-2.209992073000001,mp-1228545
CsK2AuF6,0.696199999999999,-2.209982249415517,mp-1112322
Ba(AuF4)2,2.4882,-2.209939348181815,mp-28719
Sr3Ir2O7,0.0,-2.209847710833334,mp-753375
KNaSi5SnO16,0.0,-2.209842730567887,mp-1201904
Gd(HO)3,0.2498,-2.209807160535715,mp-24073
La2Ag2O5,0.0,-2.209745321481481,mp-1076119
Sb2IBr2F11,1.708899999999999,-2.209712475859374,mp-560928
Cs2GdAgCl6,0.0,-2.209648464097701,mp-1113592
Nd(HO)3,3.5877,-2.2095045073214292,mp-625403
EuTlO2,0.0,-2.209416787083336,mp-754253
Ce2S4O17,0.145499999999999,-2.209403391956521,mp-1190870
NaU(TeO4)2,0.0,-2.20936412914272,mp-1190490
CsNa3P4(H2O5)3,5.0753,-2.209351473443605,mp-1198312
CsScCl3,0.0,-2.2092879565,mp-27359
NdReO3,0.0,-2.2092666850000002,mp-1186326
Na10Zn3Si6Ge5(SO8)6,0.8570000000000001,-2.209230159364869,mp-2713496
KDyS2O9,0.8396999999999991,-2.209177416262821,mp-1211962
ZrZn(SO4)3,4.0034,-2.209176872892158,mp-2713859
NaGePCO7,3.2699,-2.209002242820196,mp-768143
Na2Ti4Zn4SiS11O48,1.4221,-2.208980536598934,mp-2714022
Ta2Zn2SiS5O24,1.5815,-2.208979991044117,mp-2713051
Na2Nb2Ga6Si3(S3O16)3,1.3615,-2.208774065170362,mp-2716476
Na6TaZn5P3(SO6)6,3.124,-2.208743401921715,mp-2713160
Rb2ScTlCl6,3.4475,-2.208681938333334,mp-1114003
NbHg3F6,0.0,-2.208588492250001,mp-28357
Ti7P12C6(NO24)2,0.0,-2.208568154120635,mp-1217444
LiBi2P5O18,0.0,-2.20856517044414,mp-672993
Cs2CaSnCl6,3.6131,-2.208531221431035,mp-989570
ZnSn2(PO5)2,1.8832,-2.208525322619047,mp-1043492
Ba2HfS4,0.8648,-2.208330561428571,mp-9321
P2Pb4SO12,3.8556,-2.208265631936089,mp-1220066
Ba2NaIO6,2.2417,-2.207977574637931,mp-1091394
Cs2YAgCl6,3.8705,-2.207876866097701,mp-1112288
ZnBi2B2O7,2.6853,-2.207865110486111,mp-555880
Ce2HfS5,0.0,-2.207799110820314,mp-985298
Sm2HfS5,1.1083,-2.207648429375,mp-1202520
CaY4(AgO3)4,0.123199999999999,-2.207493006984127,mp-1233425
Rb2SmBr5,4.032599999999999,-2.207441431875002,mp-1209518
Li3CuPCO7,0.313599999999999,-2.207437915357142,mp-25460
KMgP2H5O9,5.0563,-2.207385923904762,mp-1224014
KCa2P4H11O18,5.2791000000000015,-2.207184061099206,mp-697128
Cs3HoO3,2.3008,-2.207143953423646,mp-768211
ScPO6,1.613,-2.207016223080357,mp-1209605
Na6Ga4Si5Ge4S7O48,1.74,-2.207001126767242,mp-2715924
Ba10Ho5(Cu5O11)3,0.0,-2.206998949047619,mp-1229045
Pb2OF2,2.851099999999999,-2.206819075,mp-27355
Lu2Te5O13,3.0656,-2.206744143333347,mp-557829
Zr5N5O2,0.0,-2.206670072083334,mp-776331
CaO2,2.7345,-2.206560153333333,mp-634859
Ho2Mg(BiO3)4,0.804099999999999,-2.206526083947369,mp-2228418
Ba3NaIrRuO9,0.0,-2.206382111425288,mp-1228273
Ba2C4O9,2.4048,-2.206248259333334,mp-1215131
ZnCuP2O7,0.3405,-2.2061608012987,mp-1041698
CsZr6CCl15,1.1421,-2.20603080368066,mp-1213455
Sb2SNF11,3.5694,-2.205997224,mp-560450
Ba10Y5Cu15O32,0.0,-2.205913781612903,mp-1229067
EuRhO3,0.0,-2.205840328500002,mp-19801
Na6In4Si5Sn4S7O48,1.3295,-2.205791673343818,mp-2715898
Pr2US5,0.0,-2.205784919674478,mp-1196472
LiTiH6(OF3)2,0.027199999999999,-2.205768829635416,mp-1235748
Ba2Sr2La2Cu6O13,0.0,-2.205696558200001,mp-1228705
La10S19,0.442199999999999,-2.205681217877154,mp-558229
Mg6NbCO8,0.4706,-2.2056754790625,mp-1033383
AlP3(HO2)6,5.7133,-2.205651715746752,mp-556596
NaCaSnSbO6,0.252099999999999,-2.20560596763793,mp-1522379
Tm2Te5O13,3.0101,-2.205418816916668,mp-555236
Sr2CuSbO6,0.0,-2.205284823,mp-1517843
Sn2OF2,2.6708,-2.205263268999999,mp-27480
Sm3S3N,1.3713,-2.205252602499998,mp-4038
ZnSn3P3O13,0.0,-2.205214955446429,mp-1041233
Na2SO4,4.9903,-2.205164865751231,mp-4770
NaSrEuSeO6,0.0,-2.205103040872306,mp-1518459
Cs2PuCl6,0.365,-2.205074282638886,mp-571448
PuTeSO7,0.298799999999999,-2.205029352541665,mp-1197213
Zr2Te4Cl2O11,3.163999999999999,-2.20500934114035,mp-1202980
Sn4P2O9,3.1685,-2.204915951619048,mp-561545
Nd2US5,0.0,-2.204897187382808,mp-1200551
CaThBr6,2.0535,-2.204842008124998,mp-29015
ZnB3H3O7,4.6777000000000015,-2.204841262589284,mp-1196460
Rb2LiPu(Cl2O)2,0.3533,-2.204770063708332,mp-1235786
BaNaEuSeO6,0.0,-2.204705889872307,mp-1521429
RbZr6CCl15,1.2072,-2.204675973043478,mp-567966
KPr5(CCl5)2,2.1273,-2.204583875310185,mp-1223605
Te5(O2F11)2,2.8675,-2.204554360591398,mp-27575
SrO2,2.8495,-2.204479133333331,mp-2697
Ba10Er5Cu15O34,0.0,-2.204404043437501,mp-1229210
La2MgS4,2.885299999999999,-2.203979872142857,mp-1232227
Er(BiO2)3,2.1356,-2.203960773,mp-754989
Li2CuP3(HO5)2,1.6359,-2.203941636560846,mp-849277
ErCuO3,0.0,-2.203922848999999,mp-1184157
Na10Mg4Zn4SiS11O48,3.9819999999999993,-2.203757559396921,mp-2713246
Na6Zn2Si3Ge2(SO8)3,0.176499999999999,-2.203503100936064,mp-2716219
Eu2As2O5,0.0,-2.20346672888889,mp-1183928
Na18Nb8Zn16Si9(S3O16)9,0.9697,-2.203378427510485,mp-2713828
Cs4SiO4,2.8227,-2.203128711235632,mp-771255
Ce3AsS3,0.0,-2.203072986919648,mp-675514
Sr2PrTlCu2O7,0.0,-2.202962546923077,mp-1208792
Ba4Y2Cu6O13,0.0,-2.2029181126,mp-20897
Li2AsPCO7,4.4156,-2.20287460281746,mp-768153
Li8GeO6,3.483399999999999,-2.202733876111111,mp-28548
MgAl4Tl4O12,1.0541,-2.202714224682541,mp-1234785
NbGa(PbO3)2,2.6941,-2.20270858575,mp-1206729
Na2MgB12(H4O7)4,4.9665,-2.202668111995908,mp-1221910
Ba4Bi3PbO12,0.0,-2.2025714405,mp-1228338
Sr3LaCu2HgBiO10,0.0,-2.20235133263889,mp-1173247
ZnBi3P3O13,2.38,-2.2023090384464292,mp-1041188
Ca4AlSiH24SO16F13,5.5254,-2.202298913875,mp-1228916
Sr3La(CuO2)4,0.0,-2.202052722499999,mp-1218623
Ba3CaLa2Cu6O13,0.0,-2.201973229000001,mp-1228590
Ba4Y2Cu5O14,0.0,-2.2017784328,mp-772817
Na5Mg5In3(SO4)12,3.6932,-2.201767682697212,mp-677416
AgAsF6,1.6805999999999992,-2.201692029895833,mp-37153
EuCuSeF,0.030499999999999,-2.201644781835938,mp-21356
Y4Mg(AgO3)4,0.0,-2.20164123579365,mp-1233046
Nd2ZrS5,1.0438,-2.201563932812502,mp-1196300
Na3SmCl6,3.9141,-2.201461635913792,mp-1113506
AlTeO4,0.0,-2.2014409748611112,mp-752394
Na2Mg2SiSn2S5O24,0.4292,-2.201373624173851,mp-2714391
KCuPO4,0.1287,-2.20136994937755,mp-649472
Ba4Pb3O10,0.0,-2.201131159411764,mp-752906
Er2Te5O13,3.012599999999999,-2.201092570666678,mp-559304
CsCdBO3,1.646199999999999,-2.201031716470306,mp-1191636
LiZnSO4F,4.2073,-2.200974691041666,mp-1203440
Sr4CuIr2O9,0.2241,-2.200795143229166,mp-1218745
YClO2,0.0,-2.20074788375,mp-1079548
CsRbZr6BCl15,1.0453,-2.200714720471743,mp-1213588
Na9NbZn5Si3(SO6)6,1.728299999999999,-2.20064317854023,mp-2712600
Ba3BiRu2O9,0.0,-2.200640857333334,mp-556602
SbOF,3.322699999999999,-2.200502247916667,mp-561533
Na4P4(H2O5)3,4.9445,-2.200483281089265,mp-740750
Na4ZnSi3Ge3(SO8)3,0.029599999999999,-2.200431412710981,mp-2713596
Na6Mg4In4SiS11O48,2.9473000000000003,-2.200122234109584,mp-2713606
K2PuCl6,0.3467,-2.200004475916665,mp-505397
LiBi2PO6,2.891,-2.19998325554762,mp-759653
SrCa(RuO3)2,0.0,-2.199978838,mp-1218505
KNa3Al12H24(SO7)8,5.8109,-2.19993202664796,mp-1224323
BaSrNdTlCu2O7,0.0,-2.199928214294871,mp-1227445
CaSbAsO5,3.1845,-2.199877751562501,mp-1047058
Sm2ZrS5,1.142799999999999,-2.199853141875003,mp-1196148
Sr2MgCuTeO6,0.0,-2.199713191969697,mp-2226152
Ba6Bi6O17,0.0,-2.199679351896553,mp-758088
Mg2Al3(SiO3)6,0.0,-2.199560477068966,mp-1210996
KMgIn(MoO4)3,3.487,-2.199471038828704,mp-698655
NaLi2AsO4,3.8891,-2.199363304443247,mp-9066
K2PrBr5,4.068799999999999,-2.199331474520835,mp-28276
Tb2CuH4(SO6)2,0.6404000000000001,-2.1992453942063492,mp-1195153
Np2H2SeO10,0.242,-2.199186956822917,mp-1201754
Y2Se3,1.315799999999999,-2.1991457209375,mp-1105821
Si2TeO7,0.077799999999999,-2.199143875666666,mp-1250558
Mg2PbO4,1.3291,-2.199130932857142,mp-859874
Ba5Os3NO18,0.6002999999999991,-2.199069989074075,mp-628618
Ba2Pr(CuO2)3,0.0,-2.198976620138889,mp-1214585
AsPO4,4.5760000000000005,-2.198969101190476,mp-8140
Na6Zn3P4H6O19,3.9851,-2.198912545377559,mp-24507
K5BrCl4,4.5107,-2.198903494124999,mp-1223752
Pr(HO)3,3.745299999999999,-2.198772377202387,mp-625447
Na3NpO6,0.0097,-2.198706270788792,mp-1180326
Li2Cu3F8,0.1523,-2.198646626410255,mp-753572
Hg(PO3)2,2.5782,-2.198609597837295,mp-15994
Al2Si3H8(NO5)2,4.9127,-2.198597497500001,mp-706243
KHgF3,0.6082000000000001,-2.198555532950001,mp-7483
CdAs2S2(OF3)4,3.4985,-2.198542333333333,mp-558288
Ba4La2Cu6O13,0.0,-2.198501341000001,mp-1228239
KZr6CCl15,1.1945,-2.198330729445653,mp-570066
Na4ZrZn3SiS5O24,3.2895,-2.198233295605717,mp-2713161
YbPrSe3,0.0,-2.198210112770835,mp-11786
Li5SbO5,2.914,-2.198206253787879,mp-29364
RbSmO3,0.0,-2.1981835435000012,mp-975207
Na2In2P4H6O17,3.8087,-2.198112046198818,mp-762594
Na2Ca2SiGe2S5O24,0.0,-2.198085671025703,mp-2714421
Gd2ZrS5,0.0,-2.198077516875003,mp-1200036
Sm2Se3,0.373699999999999,-2.198047837437499,mp-15081
Ba3Tl2Cl2O5,0.0,-2.1979132751388892,mp-557692
Ho2Te5O13,3.0121,-2.197887281166678,mp-5572
Sb4PtC4(O2F11)2,3.5545,-2.197733829785714,mp-559420
Na5Zn3GeP3(SO8)3,1.63,-2.197635970127995,mp-2714658
K2NdBr5,3.9512,-2.197570700875002,mp-1211863
CdPbF6,2.3364,-2.197492193750001,mp-37216
Na6Al4Zn4SiS11O48,3.945999999999999,-2.197393672217693,mp-2712630
AlH4NF4,6.8114,-2.19714858625,mp-696815
Rb3YO3,2.2045,-2.197020348928572,mp-756474
SbCSF11,4.478,-2.196961363392856,mp-558893
NbCu3(PO4)4,0.0,-2.196926841190476,mp-772046
KCaEuSeO6,0.0,-2.196841280459375,mp-1519932
SrBiIO2,2.864299999999999,-2.196828430000001,mp-552547
Ba4AgAuO6,1.8623,-2.196761526805555,mp-556896
KAlH2CO5,5.0845,-2.196757940475,mp-644285
Bi6As9Se4S10(O4F13)5,2.0161,-2.196588894095394,mp-556278
LiCuPO4,0.5457000000000001,-2.196569655068026,mp-504264
NaMg6CO8,1.0282,-2.196490487273707,mp-1030675
SmB7H7O17,0.1217,-2.196479338841146,mp-1219420
Pr2ZrS5,1.0437,-2.19645111104167,mp-1202195
Sb2SeI2F11,1.4139,-2.196415890927734,mp-558073
Tb2EuSe4,0.1933,-2.196415628601191,mp-646337
Na2AlGe7O16,0.0,-2.196356539529177,mp-1221447
Ba4Li(BiO4)3,0.5661,-2.196125535666667,mp-1214461
Cs2Sr2O3,2.394599999999999,-2.196080097758621,mp-753801
Na3ZrZn3PS5O24,3.5157,-2.196014411521103,mp-2712665
CsY(SeO3)2,4.102,-2.195988674184268,mp-1195090
Na3PSO3,4.2539,-2.195930683910098,mp-542136
Ba2LuCu3O7,0.0,-2.195898728589743,mp-20324
Ba2TmCu3O7,0.0,-2.1958138603846162,mp-622108
Dy2Te5O13,2.985999999999999,-2.195683625083332,mp-555940
EuBi2ClO4,0.0,-2.195646299375002,mp-550566
Na2Ga11O17,0.0,-2.1956423465086212,mp-762052
AlP2H5O9,5.5286,-2.195596504884454,mp-721876
YbNdSe3,0.0,-2.195413191937501,mp-11787
La3ScBeS7,0.9344,-2.195395254375,mp-866696
Gd2Br3N,1.8727,-2.195261450833333,mp-505435
NaTl3F6,3.6256,-2.195089750000002,mp-1206562
ErS,0.0,-2.195086368072914,mp-1623
Nb2S3O14,2.8957,-2.195046368552632,mp-1203143
Ba2LaTlCu2O7,0.0,-2.194981044102564,mp-1228434
Rb2CeBr5,0.319799999999999,-2.194873702500001,mp-1209654
LiP(HO2)2,5.8553999999999995,-2.194765020684523,mp-24610
Ba3Bi2PbO9,0.0,-2.194730287333334,mp-1228435
CaCuP4(RuO7)2,0.004,-2.194725158116882,mp-1233208
Cs2KAlCl6,4.6198,-2.194529311656035,mp-1113059
NaAlAs2O7,2.7304,-2.194514815352665,mp-560921
NdO3,2.1102,-2.194506223125,mp-1173028
KSnSO4F,3.8899,-2.194504198718749,mp-557399
SrIBr,3.9499,-2.194443480833333,mp-1218278
Zn2Cd(BO3)2,2.4333,-2.19436090030303,mp-1215713
BaNb2Xe5F22,2.6409,-2.194228877666667,mp-1192672
CsKZr6BCl15,1.009799999999999,-2.194195297440493,mp-1213422
Gd3TiS6,0.0,-2.194150452583332,mp-1212783
Cu(PO3)3,0.312899999999999,-2.193952568956044,mp-540496
Cs2NdAgCl6,3.8207,-2.193925534847708,mp-1112945
TlBO2,2.8659,-2.193856436875002,mp-28244
Ce2Br5,0.0,-2.19362999428571,mp-1104603
TaZn2SnO6,0.0,-2.193625756233332,mp-1368521
Ge2P2SO12,2.8058,-2.193597954320728,mp-2713503
Ba10Y5(Cu5O11)3,0.0,-2.193309195,mp-1229106
Ba2ErCu3O7,0.0,-2.19325951576923,mp-622110
Rb2HgRhF6,0.0,-2.19323471075,mp-1111016
Na2Al4Ga4SiS11O48,1.8764,-2.193178223789409,mp-2714255
Rb3AlO3,2.651399999999999,-2.192958231785712,mp-14951
Na3MgC2BrO6,3.828299999999999,-2.192936837433687,mp-646116
K2AsPCO7,4.0808,-2.19283586930357,mp-1178156
Sr4(RuO4)3,0.0,-2.1927890763157882,mp-766284
Rb4HfS4O17,0.359699999999999,-2.192710084134615,mp-1198468
CaSn3O7,1.1138,-2.192631527272726,mp-1044042
K2ZnCu3P3O12F,0.0,-2.192421146746728,mp-556333
ZrHgO3,0.0,-2.192400905500001,mp-1016871
LiLuO3,0.0,-2.192363090999999,mp-976331
Na14Zn6Si5Sn2S7O48,1.230699999999999,-2.192223352542404,mp-2716020
Ba8Y4(Cu4O9)3,0.0,-2.19210558127451,mp-1228425
NaIn2Sn2P3(SO8)3,1.6465,-2.192092475842131,mp-2716352
Na2Al3Si3HNO12,0.186,-2.192031952114028,mp-1211222
K2SmBr5,4.0333,-2.192009798062502,mp-1211730
Ba2BiRuO6,0.0,-2.191964763499999,mp-561147
Mg6BCO8,2.0327,-2.191915510885416,mp-1033291
La5Cu4P4(ClO2)2,0.0,-2.191816937030075,mp-1105348
Zn3Si3(SnO6)2,0.0,-2.191773413750001,mp-1364038
Eu(HoSe2)2,0.1142,-2.191607405982142,mp-1193885
Mg6BSbO8,2.907800000000001,-2.191571426822916,mp-1033199
B5H4NO8,5.7298,-2.191549731851852,mp-1196660
KMg3Cu(AsO4)3,0.7082,-2.191541717487498,mp-1211416
Ti3P4(NO8)2,0.2651,-2.1914869663428562,mp-1201867
Pr16Si16N27Cl3O14,2.2332,-2.191414984429823,mp-686466
AlPbO3,0.0,-2.191318702999999,mp-1183154
Pr3S3N,1.1501,-2.191269211026782,mp-558940
La3LuBeS7,1.4881,-2.191238019097222,mp-1190796
NbIn3P2(SO6)4,2.320599999999999,-2.191181128214286,mp-2712877
Cs3DyO3,2.0884,-2.191096457590311,mp-1178583
Nd6MnS10,1.2959,-2.191083810300457,mp-685265
Nd2Se3,1.4781,-2.191013233687499,mp-32688
Na2InGaSi(SO6)2,2.9248000000000003,-2.19095269282063,mp-2713657
Na2TlCuF6,0.0,-2.190846248812511,mp-1111265
Ba(PrSe2)2,1.619,-2.190798565386904,mp-33606
Pr2Se3,1.475099999999999,-2.190777713854166,mp-32689
Cs2SeClF6,0.0,-2.190747526165409,mp-989544
KLaS2,2.7005,-2.19070340609375,mp-15781
Ba13Ru10BrO36,0.0,-2.190696430333333,mp-695535
SrRuO3,0.0,-2.190611637000002,mp-22390
Na5UH3S4O19,1.887399999999999,-2.190498555645204,mp-1195125
Cs4Sc6CCl13,0.0,-2.190213643067528,mp-568135
Ba2HoCu3O7,0.0,-2.190162129230768,mp-6616
BaRuO3,0.0,-2.1901550725,mp-3597
Na3Si2PO8,3.0387,-2.190131831520056,mp-1180369
CePN(O2F)2,0.005,-2.190047461626982,mp-1189908
Cs2NaLaBr6,3.8470999999999993,-2.190014560568966,mp-1079096
Na6NbZn5P3(SO6)6,2.373599999999999,-2.189904031003586,mp-2713159
PrLuSe3,0.4935,-2.189735595104165,mp-13326
Pr27Se40,0.0,-2.189709400708956,mp-684619
TiAs2O7,2.7625,-2.189625841083333,mp-17196
P2PdPbO7,0.3293,-2.18961626220779,mp-1195693
Ba3Bi2I2O5,0.9866,-2.189614349583333,mp-1214589
Tb(BiO2)3,2.664399999999999,-2.189612262416668,mp-757715
Bi3NF6,2.971399999999999,-2.189558164250001,mp-28946
Na2Ca4SiSn4S11O48,0.482299999999999,-2.189508150170362,mp-2714106
KLiCO3,4.5495,-2.189372252597222,mp-562137
Tb2ZrS5,1.134999999999999,-2.189312639791669,mp-1197252
NaB3H4O7,5.429,-2.189306755591953,mp-720642
Ba6Y3Cu9O20,0.0,-2.189296283947368,mp-1228278
Mg3Sn2(GeO4)3,0.0791,-2.189287800624999,mp-1329748
SrGe(HO2)2,4.1282,-2.189245472187499,mp-23884
ZrSO6,2.1577,-2.189171884062499,mp-1197006
YbCeSe3,0.0,-2.189161334437503,mp-20764
Ba(AsO3)2,2.7763,-2.188986189444444,mp-1105233
Bi5(PO4)6,0.0,-2.188971658510204,mp-673116
Ca2P2H8O11,4.9617,-2.18891290529503,mp-554174
K2P3H5O11,5.124700000000001,-2.188737341056121,mp-721562
SbF6,0.0,-2.188722635714286,mp-734819
Li10Mg7Cl24,4.5584,-2.188582393373984,mp-530738
Sb2P2O9,0.9173,-2.188577220714287,mp-1044841
KNa22C2S9ClO42,4.3533,-2.188466980260973,mp-23660
KH3F4,7.3743,-2.188447753875,mp-29331
Ba2DyCu3O7,0.0,-2.188257008974358,mp-622105
NaGa2P(SO6)2,3.5855,-2.188240506445677,mp-2715562
AlTlO3,1.208199999999999,-2.188174606166668,mp-768539
RbP(HO2)2,5.2369,-2.188166296205357,mp-23667
RbLiCl2,5.1482,-2.188110091458334,mp-28243
KP(HO2)2,5.4325,-2.188077962424106,mp-23959
Dy(BiO2)3,2.0037,-2.187891912166667,mp-769364
Ba2InIrO6,0.0,-2.187871523333334,mp-638553
Rb2LaAgCl6,3.573,-2.187830372166666,mp-1111727
Na2ZnPO5,0.2072,-2.187826759433497,mp-731669
Ba10Y5Cu15O34,0.0,-2.187772456875,mp-1228903
Cs2P4Pd3O14,1.3628,-2.1877706472992062,mp-1199678
CsHf6CCl15,1.2179,-2.187715915637181,mp-1213477
Cs2PrAgCl6,3.825999999999999,-2.187607407264367,mp-1113236
CeThUS5,0.0,-2.187576166601552,mp-1227587
Rb14Si10O17,1.4904,-2.187558969207317,mp-680306
NaCaGa(SO4)3,2.3782,-2.187519511002554,mp-2714132
KRbMg6O7,0.0,-2.187481870649999,mp-1031270
KGaO2,3.0499,-2.187477020718749,mp-4066
PHOF2,7.051,-2.187462387428571,mp-698060
NaSO3F,5.0584,-2.187399852313218,mp-1220908
Be2P3NO10,0.0,-2.187379128683035,mp-1197425
Mg(BO2)12,0.0,-2.187367517972973,mp-1201208
Nd2HfS5,1.0171,-2.1872877936328092,mp-1196123
Yb4SmS5,0.0,-2.187283115406253,mp-1215512
Mg2BiSbO6,1.3876,-2.187213325,mp-1374534
Y4Si2Sn13(SbO14)2,1.5179,-2.187149556020407,mp-1044157
AlBP2H5NO9,5.4268,-2.187111668931705,mp-24757
NdLuSe3,0.4956,-2.18705656127083,mp-13327
Ba3CuP2Br3O7,2.9335,-2.187041110892856,mp-703291
Na2Mg3Ge(SO4)6,0.080899999999999,-2.187025243085887,mp-2714148
RbSO2F,4.1099,-2.187014182999999,mp-6384
Ba3LiIr2O9,0.0,-2.186956230222224,mp-554837
SrBeO3,0.0,-2.186857816,mp-1187143
CsAcO3,0.0,-2.186816213431034,mp-1183923
RbLi2CdC2O6F,3.2753,-2.18672969724359,mp-1192391
Ba10Sm5(Cu5O11)3,0.0,-2.186716563333333,mp-1229115
Nb3Te4ClO15,2.3912,-2.186684046920291,mp-1199992
Tl5SnF9,2.9221,-2.186670182333341,mp-674395
KGaGe3O8,3.0684,-2.186463851134621,mp-1223555
CsSmO3,0.0,-2.186409559931035,mp-1184022
Na2Nb2In6Si3(S3O16)3,1.0276,-2.186351965908456,mp-2716488
Ba3Sr(CO2)8,3.3897999999999993,-2.186250693571428,mp-1228375
Mg3B11(H3O8)3,3.878,-2.186247365257091,mp-733898
PmRuO3,0.0,-2.186149372499999,mp-983513
ReO3F,3.009,-2.1859928445,mp-573051