formula,bg,formation_energy,mp-id
Ba(YSe2)2,1.4872,-2.240760022410714,mp-1193099
Cs2Cu3(P2O7)2,0.7549,-2.240625920777468,mp-638252
K2H5F7,7.3004,-2.240582421660713,mp-29330
Rb2PuCl6,0.1311,-2.240550919861112,mp-29336
Ca9(Si3O16)2,0.0317,-2.240506360425531,mp-1182427
Na2CaSi2Sn3(SO6)4,0.345699999999999,-2.240382698085888,mp-2712819
Eu(ErSe2)2,0.1678,-2.240364022202381,mp-1193984
LiNbCuO4,0.248,-2.240341774047619,mp-776319
K2NaScCl6,3.9133,-2.240232137666674,mp-1111621
Sb2Te(SeF5)2,1.7292,-2.240224275881945,mp-6407
LiSnPHO5,2.3396,-2.240177631580688,mp-753239
Na2HgSbF6,0.0,-2.240170674525862,mp-1111411
CaTeCO5,3.8714,-2.240124346770834,mp-559128
Li4Cu3Bi(PO4)4,0.100299999999999,-2.240111540068027,mp-765628
RbSb2C2O4F5,3.111999999999999,-2.2400413550000002,mp-560900
Na18Ta8Zn16Si9(S3O16)9,1.553999999999999,-2.240003431423398,mp-2713831
Li4Cu3Sn(PO4)4,0.0,-2.239970735603741,mp-849752
Ba(DySe2)2,1.3765,-2.239951934672619,mp-1193797
Na3LuCl6,5.624099999999999,-2.239837143166666,mp-1210445
Na2Cu2Si5(H3O8)2,0.657199999999999,-2.239827272266407,mp-1221671
Sm3TmS4,0.0,-2.239537793125,mp-1219179
Ca3Cu2(GeO4)3,0.5154000000000001,-2.239515165375,mp-1329647
Na3MgC2ClO6,4.2341,-2.239514329356765,mp-23653
TiH6(OF3)2,4.4992,-2.239493396055556,mp-1208179
Na2Ta2Ga6Si3(S3O16)3,2.0152,-2.239492212856076,mp-2716464
SrBNO,3.596799999999999,-2.239459326875001,mp-554759
CaAl6H12(SO7)4,5.5902,-2.239315578921568,mp-1194752
Na3HoCl6,5.2296,-2.239178432999999,mp-29836
Na3ErCl6,5.228,-2.239124308833334,mp-28542
Na3DyCl6,5.218699999999999,-2.239024880000001,mp-982980
Na2ZnGeP2SO12,1.2947,-2.239004456905842,mp-2713677
HoClO2,0.0,-2.238983506249998,mp-1025493
NaMgAl3Si3O16,0.2646,-2.238961782140804,mp-1221208
Ca2P4PdO8,1.7339,-2.238935758571427,mp-1214415
LiGePCO7,3.8967,-2.23886654845238,mp-768164
Ca4Bi6O13,1.7193,-2.238789148478262,mp-757343
Ca8(DySe4)3,0.0,-2.238674047191998,mp-1227090
Na3YCl6,5.1827,-2.2386238704999992,mp-31362
K2LiEuCl6,0.0,-2.238325599283334,mp-1111273
Sb6O5F8,3.4235,-2.238221645526315,mp-753233
BaCuSeF,1.4265,-2.238203543085938,mp-9195
NaEuCl4,0.0,-2.238086135229887,mp-1210621
K2LiScCl6,3.741399999999999,-2.23790182833333,mp-1111932
Na5Mg2Zn2PS5O24,4.2441,-2.237781700744601,mp-2713244
DyP2(HO2)5,5.614400000000001,-2.237755534289021,mp-1226255
NaMg2(SO4)3,0.000399999999999,-2.237654484382185,mp-1210333
Sb2C3OF18,2.1709,-2.237652962083334,mp-1199341
Cs2CaBr4,4.0811,-2.237610422758619,mp-1025267
LiAlAsO4,0.0,-2.237526955833333,mp-1235027
U(RhO3)2,0.428899999999999,-2.237327120555554,mp-13836
Ca2Os2O7,0.0,-2.237136337727267,mp-2923
Sr3CuPtO6,0.0,-2.237133783636364,mp-6595
BaYCu2O5,0.0,-2.237075460555556,mp-1042162
AcPdO3,0.0,-2.236955405499998,mp-1183145
Ba(ErSe2)2,1.3665,-2.236903161696428,mp-1192805
Na6Mg2Zn2SiS5O24,3.4029,-2.23689807322773,mp-2713829
Na2PdF6,2.0894,-2.2368059,mp-1210356
Ca2H2S2O7,5.119499999999999,-2.236790758461537,mp-696490
HoBr3,2.8409,-2.23673703375,mp-977375
Rb4Zr6CCl18,1.265199999999999,-2.2366962805172412,mp-862605
CaB5H4O9,1.9247,-2.236545230570174,mp-1214219
SmCuSeO,1.286499999999999,-2.236524274335937,mp-9194
La(HO)3,3.7163999999999993,-2.236421412678574,mp-625394
Ba(SmSe2)2,1.4344,-2.236313439196427,mp-1193757
Na6Ca2Si5Ge6S7O48,0.7882,-2.236304264830305,mp-2715995
Na15Y2C9SClO30F,1.096099999999999,-2.2361816570879602,mp-1222063
Er9MnS14,0.0,-2.236135572940914,mp-1225712
Na4ZnSi3Sn3(SO8)3,0.262599999999999,-2.236124760517998,mp-2713604
Na14Zn5Si6Sn3(SO8)6,1.6577000000000002,-2.235991884585086,mp-2714158
K2CaH2S2O9,5.3835999999999995,-2.235975780125,mp-23723
Rb2Cu3(P2O7)2,0.607,-2.2359671899378872,mp-1198918
LiErO3,0.0,-2.235956587666665,mp-1185310
CuSb3(PO4)6,0.494,-2.235613433466387,mp-773874
Na5Zn2In2P3(SO8)3,3.2649,-2.235573222392952,mp-2714759
Ba3Te4O11,3.2501,-2.235506496759258,mp-28102
Na8Zn3Si3Ge(SO8)3,1.8147,-2.235462105203203,mp-2714955
NbCl2O,0.9093,-2.235416225,mp-1025567
RbUH2SeO7F,2.2095,-2.235395449026442,mp-1196487
YbSmS2,0.0,-2.23518534515625,mp-1215454
Ba2LiIO6,0.0,-2.235183333833333,mp-1207120
NaMgGeP(SO6)2,1.3332000000000002,-2.235182445427158,mp-2714377
K2CeH2S3O13,1.017299999999999,-2.235027551880952,mp-1204865
Sr(LuSe2)2,1.431,-2.235004940654761,mp-1194337
CsU2H3(C2O7)2,2.1084,-2.234983745558548,mp-605374
LiSn10(PO4)7,2.8418,-2.234913158278985,mp-765193
Rb2Ga2Ge3O10,3.2697,-2.23488885,mp-1186921
KLi3GeO4,4.0529,-2.234858861361111,mp-18002
Nd10Si10BrN17O9,3.112199999999999,-2.23479351723404,mp-677195
Rb3ErO3,2.4688,-2.234606177142856,mp-756812
Na2SiSbCO7,0.0,-2.234586721896551,mp-770978
BaNa2(Ge4O9)2,3.0309,-2.234537174290527,mp-1215058
Tb2Au5F21,1.6596,-2.234468999583334,mp-541348
K3Na3TeP6(HO4)6,4.0096,-2.234206355532831,mp-720804
B17F27,2.5882,-2.234148541079545,mp-30935
Sb7(O2F3)3,2.7586999999999993,-2.234122542272727,mp-759728
KCaPO4,0.075299999999999,-2.233956031698979,mp-1224557
Na7Zn4P3(SO8)3,3.8121,-2.233919021286595,mp-2714606
Ba3ZnRu2O9,0.0,-2.233870685333334,mp-17137
Ce2US5,0.0,-2.233854403945312,mp-985558
Ti3(HO2)4,2.4851,-2.233836057666666,mp-1193009
Na3Nd5Cl15,0.0,-2.23382812173913,mp-674645
LiZr3H18N4F19,6.0222,-2.233801358074074,mp-601344
GdS,0.0,-2.233706316406248,mp-510402
ReTe7O7F32,0.558999999999999,-2.233607991046099,mp-649107
Nd2Au5F21,1.6499,-2.233580988303571,mp-14716
Th2SeN2,1.359199999999999,-2.2334680133125002,mp-7768
BaBiO3,0.0,-2.233427010999999,mp-559051
Cd2B2O5,2.4657,-2.233278833703705,mp-7210
NaNb3(TeO4)4,2.1321,-2.233152925543582,mp-559336
K2UCl5,0.119899999999999,-2.233121899375001,mp-28496
TiSn9O20,1.126299999999999,-2.233100057611111,mp-766163
Ba3Nd3(Cu3O7)2,0.0,-2.23299144701923,mp-1228353
TiZnBiO5,0.0,-2.232880211979167,mp-1042447
Ca2Sb3O8,0.0,-2.232864787692307,mp-1402760
Dy2H4(SO4)3,5.2172,-2.232858969325396,mp-1199848
NaAl3Zn(SO4)6,5.081099999999999,-2.232857107039409,mp-2714707
DyCuO3,0.0,-2.2328292113333332,mp-1183771
Sm2EuSe4,0.5113000000000001,-2.232783345178571,mp-1173299
Sr2GaBi2O7,0.0,-2.232590856458333,mp-1048048
Cu(PO3)2,0.0,-2.232536408253967,mp-17224
Ga4GeO8,2.056899999999999,-2.232362397307692,mp-29455
Na6Zn2Si3Sn2(SO8)3,0.5407000000000001,-2.232348079686064,mp-2716120
Rb2PrO3,0.0,-2.232344107777777,mp-770322
K3NaU(CO4)3,0.455199999999999,-2.232268738906465,mp-1224280
Y(SnO2)2,0.0,-2.2322188735714272,mp-1407867
Li10Zn3(GeO4)4,3.3757,-2.232187988282828,mp-768947
La2Cu(NF)2,0.0,-2.23205089,mp-1147760
MgZr2H12(OF3)4,0.0,-2.23202437516129,mp-1234193
Pr2Au5F21,1.6510999999999991,-2.232017286815476,mp-14715
HoP2(HO2)5,2.1728,-2.231960043640872,mp-1225006
NaLi3GeO4,3.7766,-2.231948850708812,mp-561254
SrEuInBiO6,0.0,-2.231814591166667,mp-1518471
KSrEuSeO6,0.0,-2.2316822094593762,mp-1522736
Na4Ga3Si3B(HO3)4,4.2524,-2.231634270266071,mp-534870
Sr2MgCuO3,0.0,-2.231598217142857,mp-2242277
PaBO3,0.0,-2.231474644833333,mp-973877
CaBeO3,0.0,-2.23146697,mp-984632
K3NaRe2O9,1.823099999999999,-2.231462536541954,mp-541393
LiBi(BO3)2,1.364199999999999,-2.231416213166666,mp-1176797
Na3Nb2Zn4P3(SO6)6,2.3169,-2.231166561630862,mp-2715777
K5B(SO4)4,5.436299999999999,-2.231098432227563,mp-1019797
Cs3TmO3,2.6196,-2.231061925566504,mp-756459
K2Sr2O3,2.1927,-2.230971624928571,mp-756334
Ba2CuIO2,2.2608,-2.230958756666665,mp-561179
SnPHO5,3.037599999999999,-2.230909291361608,mp-775543
LiSb3(PO5)2,2.9565,-2.23087349203869,mp-758492
Be3Ag4P3BrO12,2.4553000000000003,-2.230840535460662,mp-1214242
Zn4Si2H2O9,3.115,-2.230838627500001,mp-1215671
KCaP3(HO2)6,5.483,-2.230837368746893,mp-733862
Si3(TeO6)2,2.438,-2.230763610637255,mp-1143703
Al3P2(H4O7)2,0.0131,-2.230497879232803,mp-1196246
Na2AgAsF6,1.940599999999999,-2.230443554192528,mp-1111093
TlCdF3,3.9371,-2.230411701,mp-998759
U3P2Pb2O21,0.090999999999999,-2.23036578015306,mp-1198284
P3Pb5O12,0.0,-2.230355220946428,mp-1210217
Dy4MgS7,1.063799999999999,-2.230348510347223,mp-1225333
K2AsAuF6,0.7657,-2.230307611199999,mp-1112267
Sr(AsO3)2,3.258099999999999,-2.230286086666667,mp-983061
K2SnPCO7,0.0,-2.230248906595237,mp-772799
NaCaGe3P3(SO8)3,2.103399999999999,-2.230241114746892,mp-2716507
NaCuP2O7,0.7036,-2.230210036424092,mp-755492
UPCl5O2,0.419899999999999,-2.230208122876984,mp-1195022
Sb3P3O13,1.0494,-2.229897118364661,mp-1041240
TmBr3,2.9866,-2.229875896250003,mp-865301
LiCuF2,1.8941,-2.229860786666666,mp-753098
RbHgF3,0.6454000000000001,-2.229765481,mp-7482
SrMg6CO8,3.4633000000000003,-2.2297378246875,mp-1033488
Rb3NaRe2O9,1.7859,-2.229593914591955,mp-1209462
K2MgZn4P4(HO8)2,0.873499999999999,-2.229583089330049,mp-1233082
Ba(TmSe2)2,1.380399999999999,-2.229560272410717,mp-1193169
Rb2LiNb2(TeO6)2,0.0,-2.229538955350877,mp-1235064
Ba2Y(CuO2)3,0.0,-2.229420791666667,mp-22215
AsF3,5.359999999999999,-2.229369302499999,mp-28027
Er4MgS7,0.0,-2.229164520624998,mp-1225593
Ho2Au5F21,1.6192,-2.229087597499999,mp-541349
LiYO3,0.0,-2.229059917666667,mp-976283
NbZnP(SO6)2,1.9888,-2.228973175371148,mp-2713073
Na5NbO5,2.637499999999999,-2.228964725172415,mp-5477
NaCa2Sn2PS5O24,0.6792,-2.228942943433968,mp-2714143
La4S3N2,1.1943,-2.228839775104164,mp-556958
Na2Sr(Ge4O9)2,2.9682,-2.228827332911217,mp-1212069
Na2TlAsF6,2.0624,-2.228802435250003,mp-1111404
K8TeP8(H5O16)2,3.7884,-2.228797296852703,mp-1238531
Ce2Te4Cl2O11,1.4548,-2.228753902719308,mp-1195865
TiCuO3,0.0,-2.2287045096666662,mp-1147748
CaMgO3,0.0,-2.228589692,mp-1183532
La4S7,0.0,-2.2285731159375,mp-1223154
CeAsO5F,0.0,-2.2283392215625,mp-1201951
La5AgS8,1.6741,-2.22829787172618,mp-37478
Na2Al2In2SiS5O24,0.2309,-2.228291709173851,mp-2715540
HgAs2HF13,3.0664,-2.228176595220588,mp-1194683
SmTmS2,0.0,-2.228142130000002,mp-1218978
Er2Au5F21,1.5935,-2.228142117142857,mp-541347
UC2O7,0.4747,-2.2281050309999992,mp-1179589
Rb2CuRuF6,0.0,-2.228017409499999,mp-1113795
Na3SnPCO7,3.247,-2.227848228367752,mp-757172
BaBe2(BO2)2,0.230799999999999,-2.227748060925926,mp-1214878
BSbO3,3.7211,-2.227707467333334,mp-755829
Na6Ga4Si5Sn4S7O48,1.83,-2.227670547127602,mp-2716103
Na6Mg4Si3Ge4(S3O16)3,0.9988999999999992,-2.227667169267242,mp-2713855
Ca(AsO3)2,3.3115,-2.227475808333333,mp-4555
Sr2MgCuO4,0.0,-2.227425233124999,mp-2226548
BaMgTe2O7,1.849399999999999,-2.227401601212121,mp-865532
Si2O5,3.0491,-2.227385363571429,mp-862998
CsLaZr6FeCl18,1.2433,-2.227350657579821,mp-569543
CePRuO,0.0,-2.227316696160712,mp-21372
LaGaS2O,1.9299,-2.227314547499999,mp-7018
Ho4MgS7,1.0734,-2.227312380624996,mp-1223962
Ta2Zn(CuO4)2,0.366,-2.227221631320512,mp-1040945
TiCu3(PO4)4,0.0,-2.227194775079364,mp-1101275
Sr2AlCu2SnO7,0.0,-2.227023638076922,mp-1046452
Al4Zn4P8H13N3O32,4.306999999999999,-2.226994237474889,mp-693340
RbAcO3,0.0,-2.226777475,mp-975463
CaRuO3,0.0,-2.226688614499999,mp-20947
NaSr7Cu8(SF)8,0.0,-2.226603432855603,mp-603276
Pr2Br5,0.281699999999999,-2.226460709047617,mp-23169
Na2Al4Si3Ge4(S3O16)3,1.2641,-2.226426057146552,mp-2716388
Rb2CuPdF6,0.0,-2.2264177105,mp-1111483
Na10In8Si5S7O48,2.3139,-2.2261881938841,mp-2714947
Sc(HO)3,4.8709,-2.226094033035714,mp-626194
CaTlCl3,4.2088,-2.225906207666676,mp-998787
MgSb2P2(HO5)2,3.795899999999999,-2.225799473928571,mp-2228948
YbBi2BrO4,0.0,-2.225699840937501,mp-552016
Li2ZnGeO4,3.1053,-2.225629343333333,mp-8184
Li4Cu3Sb(PO4)4,0.0,-2.225625571853741,mp-762224
ZrPCN(OF)3,0.0,-2.225456403464285,mp-1105376
Eu(LuSe2)2,0.1428,-2.225436789583333,mp-645692
SrCuSeF,1.1989,-2.225306626953122,mp-21228
Si2Ag2O5,1.2165,-2.225290058981481,mp-1208960
BiPPbO5,3.3519,-2.225278606205357,mp-556878
Y2InCl7,4.0295,-2.22526791425,mp-29304
Ba2InCuO4,1.110799999999999,-2.225249320833332,mp-1228360
Rb2Sb2SO5F6,0.0423,-2.22520777140625,mp-1200466
TlZnPO4,3.8996,-2.22510710185374,mp-18168
Sm2Au5F21,1.630099999999999,-2.225081326875,mp-8778
BaSrSm(CuO2)3,0.0,-2.22503092375,mp-1227431
CaAl2(Si2O7)3,0.384,-2.224936042166666,mp-1203968
Ba32Sb7Pb25O96,0.0,-2.224756636312499,mp-686499
CsLaO3,0.0,-2.224715933931035,mp-1183918
Li2SnO3,3.1283,-2.224686791527778,mp-3540
AlAuO2,0.5888,-2.224651209999999,mp-16613
ThP2O9,0.0,-2.224558336294643,mp-1196694
BaNaP3(HO2)6,5.2771,-2.224542835556864,mp-695982
TaIn3P2(SO6)4,2.4426,-2.224241438920168,mp-2712841
Ca2GaBiO6,0.0,-2.224239615749999,mp-1520655
CeGeO2,0.0,-2.224212696874999,mp-1213932
Y4US7,0.0,-2.224209143353592,mp-1216101
Lu(BiO2)3,2.0936,-2.224196386666668,mp-754693
K3Nb(SO4)4,2.9664,-2.224065158927082,mp-559516
KNaSO4,4.9724,-2.224053861589901,mp-558632
LiSO3F,5.7916,-2.224047807638889,mp-7744
CsNa2BO3,3.2483,-2.224025207368637,mp-8871
Tm4MgS7,1.101899999999999,-2.223962235625001,mp-1216547
LiTmO3,0.0,-2.223948161666668,mp-1185236
Mg(SbO3)2,1.037499999999999,-2.223938991666667,mp-3653
Li4Ge5O12,3.0198,-2.223718369682539,mp-28623
Cs2Sb2SO5F6,0.3019,-2.223666431519397,mp-1213742
Sm(HO)3,3.7105,-2.223578186964287,mp-625402
Sr3Tl2O6,1.1758,-2.223529870378789,mp-31355
Li17Ag12F29,1.4076,-2.223470288333332,mp-849476
ZrP2(H3O5)2,4.4371,-2.223465519041353,mp-697914
Ce2ThS3,0.0,-2.223442493072914,mp-1226812
CsNa3Li12(GeO4)4,3.9307,-2.223422387883142,mp-17125
Ba2La(CuO2)3,0.0,-2.223393775416667,mp-1228413
NaCa2IO6,2.6721999999999992,-2.223389057637931,mp-1189407
CsSb2PO8,1.9806,-2.223383279524836,mp-1197959
CuSn(PO4)2,0.399999999999999,-2.223373917023809,mp-758849
NaGaGeO4,3.121699999999999,-2.223321698292282,mp-1210845
Sr(SmSe2)2,1.9221,-2.223309766607144,mp-38152
Ba2CdOsO6,0.0,-2.223147162,mp-1206134
Sr2AlCu2SbO7,0.149,-2.223111456153845,mp-1046341
Ba3SrSm2(CuO2)6,0.0,-2.223057615833333,mp-1228212
Na2LiAuF6,0.4175,-2.223027951609195,mp-1110991
AlRhO3,1.7659,-2.223008536,mp-1178547
Y(HO)3,3.751,-2.223002106964286,mp-24076
K2NaEuCl6,0.0,-2.222996841087931,mp-1111646
Rb3HoO3,2.1344,-2.22297009392857,mp-779144
K2AgRuF6,0.0,-2.222506260616666,mp-1112276
Ba2Sm(CuO2)3,0.0,-2.22244960375,mp-622576
P2Pb4O9,3.2986,-2.2223636539523812,mp-31068
BaSrYTlCu2O7,0.0,-2.222204291410257,mp-1227606
KZr6NCl15,0.0,-2.222136511945652,mp-1211782
ReTe5O6F25,2.1693,-2.221833516171171,mp-649177
Na4In2Si3Ge2(SO8)3,0.9449,-2.221832432579401,mp-2713543
P3Pb5O13,0.0,-2.221813069948979,mp-1210036
SrAgSF,1.253299999999999,-2.221776139453126,mp-1078562
Na2LiSmCl6,4.055099999999999,-2.221644845109196,mp-1113741
UBO3,0.0,-2.221621748833331,mp-1187784
Ba4Nd5Cu9O22,0.0,-2.221558339687499,mp-1228592
CsHIF7,4.6043,-2.221551738090517,mp-699173
Cs2TlPdF6,0.0,-2.221543550500001,mp-1112343
CaCd(CO3)2,3.336299999999999,-2.221535567000001,mp-1227329
Na10Ti2Zn6Si3(S3O16)3,1.2942,-2.221503588606322,mp-2714664
Cs2B2S3O13,6.0916999999999994,-2.221461940257184,mp-1019604
Ca3Bi2(AsO6)2,0.199,-2.221459446052633,mp-1343204
LiCu2P5O16,0.0,-2.221381058189483,mp-585339
Li2MgB12(H4O7)4,5.849600000000001,-2.221135107316383,mp-1195467
Rb2U2Cl4O7,1.1873,-2.220917482333332,mp-1203457
Na14Zn5Si6Ge3(SO8)6,1.5091,-2.220740157796468,mp-2714242
HoS,0.0,-2.220644193906249,mp-1240
Ba4Tm2Cu6O13,0.0,-2.220641519800001,mp-1228146
Y4MgS7,1.064,-2.220610141458332,mp-1216098
ZnBP(HO3)2,4.7538,-2.220371031482683,mp-1198157
CaNb2Ga2(CuO4)3,0.392799999999999,-2.220370070499999,mp-686705
Cd5Si(PO6)2,2.0401,-2.220261511589285,mp-1227191
Na9TaZn5Si3(SO6)6,2.5331,-2.22017736582912,mp-2712561
Mg3(SO5)2,0.843399999999999,-2.220072171833334,mp-1201747
Na2Ga2Si(SO6)2,3.3775,-2.2200298690048412,mp-2713580
Ba5Bi5O13,0.0,-2.219999531086958,mp-674987
ZrSiO3,0.0,-2.219989547,mp-1183043
NaAl2In2PS5O24,3.1773,-2.219969885338729,mp-2714083
Sr6Mg(Te4O11)2,1.6761,-2.219964907252252,mp-1233312
Sr2NdTlCu2O7,0.0,-2.219826564294872,mp-1218759
Na2CaZn(SO4)3,4.3783,-2.21980375527677,mp-2714882
Na2Si3Sn2Ge2(SO8)3,0.7146,-2.219661441720148,mp-2713815
Ba3Bi2RuO9,0.4466,-2.219612243666668,mp-1228299
LiBSbO3,1.0561,-2.21955773375,mp-756853
Sr5Ir3O11,0.0,-2.219392781842105,mp-1218480
K2ScSn(AsO4)3,2.5709,-2.219373938657894,mp-1212024
ZnSn2P2O9,1.556299999999999,-2.2192203295918382,mp-1040851
NaCaB5H8O13,5.1542,-2.219159465971881,mp-705528
NaMgGe3P3(SO8)3,2.353799999999999,-2.219151893461178,mp-2716441
RbSb2PO8,2.266299999999999,-2.219145515803571,mp-1209255
Na3NbAs2O9,3.1544,-2.219057565442554,mp-1200323
KMg6BO7,2.8417000000000003,-2.218910214761111,mp-1031257
La6S4BrN3,1.4091,-2.2189041489285732,mp-559994
KSb2PO8,2.3727,-2.218783014741071,mp-556756
SnGeP2SO12,2.5034,-2.218766057850141,mp-2713462
Ba3As4(HO7)2,3.5121,-2.2186979490217382,mp-1195773
YPO6,1.7266,-2.218660239955356,mp-1207740
P3Pb5IO12,2.396499999999999,-2.21865077732993,mp-1195929
KAlAs2O7,3.042799999999999,-2.218596720204545,mp-9230
Nd3S3N,1.1935,-2.2185709581696402,mp-554001
LiNd2O6,0.0,-2.218410687592592,mp-1235641
Cs3ErO3,2.2999,-2.218391568780788,mp-1178430
NaSr2IO6,2.563,-2.21836309013794,mp-1106050
TaCl4F,3.0944,-2.218254436222221,mp-27854
Na5Zn3SnP3(SO8)3,2.152599999999999,-2.218185777649363,mp-2714831
Na3CuBPO7,0.0,-2.218105001380572,mp-756517
Ce10Se14O,0.0079,-2.218067459012498,mp-1198305
K3EuCl6,0.0,-2.218030902675,mp-1111492
Rb14Si6Ge4O17,1.342799999999999,-2.2179951873780492,mp-680314
La6S4N3Cl,1.295,-2.217761339166661,mp-555012
RbTmS2O9,1.0316,-2.217719830192308,mp-1209451
Ti2P3H7NO13,0.010099999999999,-2.217574712474817,mp-1205176
SrLiSnSbO6,0.113999999999999,-2.217492775833333,mp-1522292
Ba(LuSe2)2,1.3795,-2.217454517529764,mp-1192674
Na2Ca5Sn3(SO4)12,0.8434,-2.217093082063218,mp-2714830
Na4HfZn3SiS5O24,3.620399999999999,-2.216792246307472,mp-2713353
Li3ErCl6,5.209899999999999,-2.216732821833333,mp-676361
Na3GdCl6,3.0237,-2.216722670499999,mp-33554
NaGaO2,2.8582,-2.216683605344827,mp-3338
Ca3Cu2(BrO2)2,0.0,-2.21662937090909,mp-545706
Cs3AuF6,0.9832,-2.216576375500003,mp-1206693
Rb2YInCl6,3.3242000000000003,-2.216510208166666,mp-1114045
Li5GaO4,3.763,-2.216491645416666,mp-4657
Cs2MgP4(HO2)8,5.3758,-2.216463746867153,mp-866620
MgZrP2(H2O3)4,4.218100000000001,-2.216385905803571,mp-1196928
LiTePO5,3.523599999999999,-2.216372410580357,mp-782065
RbLaZr6FeCl18,1.6184,-2.21636127361111,mp-1209639
TeF4,4.0186,-2.216336207,mp-561664
RbTbS2O9,1.1795,-2.216101855897436,mp-1209445
Ca3Cu6(PO4)8,0.041399999999999,-2.216097518513119,mp-1350627
TlSnF3,2.8207,-2.216028051500001,mp-676130
Na3InSi3Ge3(SO8)3,0.085699999999999,-2.216025790764989,mp-2714811
KY(SeO3)2,4.2541,-2.21601721569375,mp-1194569
Na3Zn2Sn2P3(SO8)3,2.7931,-2.215933592537834,mp-2713807
Na6Mg2Si5Ge6S7O48,0.5468000000000001,-2.215753922262737,mp-2716089
LuN,0.233099999999999,-2.215705882708334,mp-1102
Rb2PrBr5,3.991799999999999,-2.215620833958334,mp-1209488
Cs2ErAgCl6,3.4947,-2.215589757097692,mp-1113595
SmCl2,0.0,-2.2155727731111132,mp-29453
LaTaN2O,0.671299999999999,-2.215536883466666,mp-550514
Na2Ta2In6Si3(S3O16)3,1.1438,-2.215518321784647,mp-2716315
Ba(CO2)2,3.2678,-2.215492625357142,mp-1194021
LaThUS5,0.0,-2.215444934570307,mp-1223001
Sr(TbSe2)2,1.4432,-2.215435640744049,mp-1193917
Cs2EuCl5,0.0,-2.215431865937502,mp-1214346
KU2SO12,0.0,-2.215368307640624,mp-1225225
NaCaIn(SO4)3,0.9159,-2.215279921697,mp-2714098
Cd2SiO4,1.462999999999999,-2.215267584285709,mp-4530
LiBi(PO4)2,0.183099999999999,-2.215205947718254,mp-1101543
Li5B(SO4)4,6.2314,-2.215199862339743,mp-1020018
Ti4Si2O17,0.0,-2.215149524166667,mp-1217602
RbLuS2O9,1.013299999999999,-2.215119485897437,mp-1210108
Ti(SO4)2,2.2283,-2.215100651363648,mp-775149
Gd4P6H16O23,2.7504,-2.215004260364431,mp-605707
KAl2P2O11,0.4393,-2.214947087127231,mp-1212272
Rb2MgP4(HO2)8,5.3627,-2.214868413179724,mp-863025
K2MgP4(HO2)8,5.368099999999999,-2.214848072518433,mp-1204159
LuBr3,3.0669,-2.214739524166667,mp-866214
RbDyS2O9,0.9818,-2.214353264358974,mp-1209636
HoCuO3,0.0,-2.214273023999998,mp-1184736
Ho4US7,0.0,-2.214231463335096,mp-1224008
LiAlAs2O7,3.049699999999999,-2.214197438484848,mp-547017
Tl4B8O17,0.467099999999999,-2.214047627126438,mp-1179277
Cs2LuAgCl6,3.7052,-2.213980608764367,mp-1113542
Rb2NdBr5,4.0291,-2.213959484062501,mp-1209500
Eu2Ir2O7,0.0,-2.2139155763636382,mp-641683
RbErS2O9,0.851699999999999,-2.213851417307693,mp-1209674
Li3SbO4,3.056,-2.213717543749994,mp-5769
Rb3B(SO4)3,5.1563,-2.213627486929824,mp-1020716
Sr2YCu3O7,0.0,-2.213596892692307,mp-985569
RbAlAs2O7,3.0281,-2.213547571590915,mp-556630
MgSbO3,1.997199999999999,-2.213517803499999,mp-1347225
Na3HfZn3PS5O24,3.928999999999999,-2.213486800800383,mp-2712701
Pr7(IO6)3,1.1706,-2.213441796488095,mp-1210994
Na2Mg3Sn(SO4)6,0.419699999999999,-2.213435170771073,mp-2714248