formula,bg,formation_energy,mp-id
Na3Ta4Zn2(PO4)9,2.7217,-2.8180074371343893,mp-2713201
Rb2TaHgF6,0.0,-2.8179590194833333,mp-1113934
Na3Ca2Hf2P3(SO8)3,4.6995000000000005,-2.8177697892044993,mp-2713739
NaY3NbP3(SO8)3,2.137499999999999,-2.817760012413558,mp-2716472
NaHfMg14O15,0.6945,-2.817606251496106,mp-1034229
Li3B11O18,5.6786,-2.817591519401042,mp-1020014
CaBO3,0.3587,-2.817581743833332,mp-1084760
LaNb2CuClO7,0.308399999999999,-2.81757049875,mp-1198693
Mg14ZnCdO16,2.7199,-2.817537044687499,mp-1035754
RbNa2GaF6,4.693,-2.8175082957758613,mp-1110623
Na3Ta2Si3Ge2(PO8)3,3.4389,-2.817451154037833,mp-2712882
Eu2NbSnO6,0.0,-2.817335934499999,mp-1518546
Ba2Ti5(Bi2O9)2,1.355299999999999,-2.8172561422988522,mp-1228482
DyPtF7,2.3154,-2.817237958055554,mp-17160
BaSrTbBiO6,1.8169,-2.817214855916667,mp-1518219
Li3B7O12,5.7047,-2.817122843371212,mp-16828
Na18Ca4Nb8Si15(SO24)3,1.6189,-2.817085524477731,mp-2714006
NaLaTiP2SO12,1.9884,-2.817020077953614,mp-2712747
Sr3(GaO3)2,3.5262,-2.8170152589015163,mp-4446
Na3TaGaSi2PO12,3.1258,-2.816880521180707,mp-2715324
Mg30BSbO32,2.2125999999999992,-2.8167938124869782,mp-1038429
Na2ZrIn(PO4)3,4.0751,-2.816764972018624,mp-2713704
NaNb2Al2P5SO24,2.3299,-2.8167310555836282,mp-2716202
Ba2LuIrO6,0.0,-2.816694966666667,mp-22594
Na3MgNbSi(PO6)2,1.9965,-2.816680628921183,mp-2715386
Na3ZrInSi(PO6)2,2.887,-2.816632500421182,mp-2715227
LiU4As3O20,1.8788,-2.816627484494046,mp-1223108
Na2TaSi2GePO12,3.3161,-2.816626515600079,mp-2715133
ErPtF7,2.2785,-2.816598800925924,mp-18341
CaY2(GeO3)4,3.2152,-2.816571123157895,mp-1227308
Sm2MgTi3(BiO6)2,0.0,-2.81650464875,mp-2230016
Ba2ErMgNbO6,0.0,-2.8164471577272723,mp-2234097
RbYMg14O16,0.441599999999999,-2.8164339205468742,mp-1035948
Na7La2Mg2P5SO24,4.1104,-2.8163608146431582,mp-2716055
Ba3CaO4,2.11,-2.8163555687499993,mp-1078915
SrPHO4,5.387399999999999,-2.816329743520408,mp-735022
Na3Ti2(PO4)3,0.006799999999999,-2.816328668986659,mp-761046
Na10Ta4Si11Sn4SO48,3.2592,-2.816282981631963,mp-2716493
SrLa3(CuO4)2,0.0,-2.816280235357144,mp-1218244
Na3ZrAlSi2SO12,3.9878,-2.816221173165231,mp-2714373
HoSeO3F,4.2961,-2.816129303723958,mp-558538
Mg2Nb2SnO8,2.2686,-2.81607235153846,mp-1046735
Na7Mg3Ta(PO4)6,2.7783,-2.815906674549082,mp-2714309
YHfP(SO6)2,4.3029,-2.815834741057423,mp-2713004
Zr4Ti(PbO3)5,2.9608,-2.8158194423333343,mp-1215653
Na21Ca10Ta2P15(SO24)3,3.301599999999999,-2.8158153252502043,mp-2715861
Ba5B3CNO9,3.3351,-2.815766851710528,mp-560326
Na2MgNb(PO4)3,2.2842,-2.815749943422133,mp-2713556
Ti9O10,0.0,-2.815676357368421,mp-32813
TbSiO3,0.0,-2.815659758333333,mp-1187364
LiBiF4,4.8473,-2.815617924444446,mp-28567
Na5Mg2Nb2SiP5O24,1.722799999999999,-2.8155926422250652,mp-2715858
Na42Ta16Zn8Si33(SO48)3,2.7493,-2.815587652795791,mp-2714406
Ba2Cd(BO3)2,2.821899999999999,-2.815587358030302,mp-1102943
Si2SnO6,3.0294,-2.8155255994444452,mp-1142992
Na10Y4Ti4Si7S5O48,1.533599999999999,-2.81550984655504,mp-2715888
Ba2LiTbSnO6,3.396,-2.8154284340909093,mp-1235139
Na14Zr4Si11Sn4SO48,3.454299999999999,-2.815384897115574,mp-2714326
Tb3Se2ClO8,4.086,-2.815241285870535,mp-558490
Ca2SiH2O5,4.8219,-2.81514745425,mp-541431
Sr3Ga2Cl2O5,3.5201,-2.815143378750001,mp-1208802
HoPtF7,2.3045,-2.815040818611111,mp-17651
KNdDySbO6,3.1776,-2.814972496641665,mp-1517680
Na3La(BO3)2,3.7247999999999992,-2.814952371455938,mp-1210472
Na8Y3(SiO3)12,0.0,-2.814928010187025,mp-1202365
CaAl(OF2)2,0.252,-2.814882054374999,mp-1182082
Na10Hf4Al4Si7S5O48,3.901,-2.814858317452476,mp-2715970
Np2SO2,0.0,-2.814839732999999,mp-1207029
LiSi3BiO8,3.5803000000000003,-2.814813376794872,mp-757082
Ba2TaTlO6,2.241,-2.814804107066668,mp-1205650
Ba2CdP3O11,0.0,-2.8147968393487393,mp-1188260
La4Ti2Se5O4,0.0,-2.8147508525590292,mp-1223562
K3Li5Al6Si10(O5F)6,0.0,-2.814698507473611,mp-735910
Na14Zr6Zn2Si9(SO16)3,3.2115,-2.814589990916387,mp-2714844
Mg10Si3(H2O9)2,5.281600000000001,-2.814538871857144,mp-695890
KTbPrSbO6,3.1998,-2.814534210558333,mp-1520075
Na6La4Nb4Si7S5O48,1.9393,-2.814445961294269,mp-2713048
LuCu(BO2)5,0.7753999999999991,-2.81441601367647,mp-18595
Si18O29,0.092599999999999,-2.814363742765957,mp-1199711
Ga3Pb5F19,4.7152,-2.814266428981481,mp-556117
CsMg30BO31,1.4778000000000011,-2.81422843593368,mp-1098613
Nb3SiO10,0.0,-2.8142038264285723,mp-1040512
Na4La3TaSi3(SO8)3,3.1666,-2.8141919307109813,mp-2713642
NaLiMg14O15,1.75,-2.8141476141842783,mp-1035393
RbBiF4,2.8776,-2.8141357929166673,mp-615746
Li6Y(BO3)3,4.9703,-2.814071734342105,mp-14704
YSeO3F,3.8843,-2.8140178078906253,mp-1101793
GdP5O14,3.180799999999999,-2.814009589410713,mp-558487
BaGdCl5,1.9979,-2.8139301407142843,mp-29538
NaCa2Al2P2H5O11F4,5.634799999999999,-2.8138217643301853,mp-707176
KRbMg30O31,2.689299999999999,-2.81374706888492,mp-1040362
Mg30NbCO32,0.0,-2.813655143984374,mp-1038575
SrMg14CuO16,0.7036999999999991,-2.8136144440625,mp-1035243
K3Sm(BO3)2,3.5401,-2.813610893965278,mp-559574
Li3BiF6,4.3416999999999994,-2.813557790000004,mp-1237871
Mg14TiSiO16,0.1363,-2.813554781979166,mp-1034194
Eu2MgTiO4,0.0,-2.8135096772916692,mp-2241580
Ba2ErMgSbO6,2.778699999999999,-2.8134906531818182,mp-2241358
Na2Hf4Ti4Si5S7O48,1.383099999999999,-2.813434768360838,mp-2716234
Na6Sc4Si3(SO8)3,3.0473,-2.813321032852729,mp-2716242
Na10La7NbSi6(SO8)6,2.4335,-2.81329535496316,mp-2713486
NaY2P(SO6)2,4.947,-2.8131094976493802,mp-2714544
Na5Zr2In2SiP5O24,3.608799999999999,-2.813109065814808,mp-2715979
SrAlHOF4,0.0,-2.81302839296875,mp-1208739
Na2ZrSiGe(PO6)2,3.058099999999999,-2.813013006423387,mp-2712729
CaTi2(PO4)2,0.0,-2.813008504111721,mp-1044634
Ca2B5ClO10,2.8906,-2.812967135879629,mp-1182326
K3Zr2S(O2F3)3,0.353499999999999,-2.812899549011904,mp-1211985
NaNb4(PO4)6,0.0,-2.812892898549613,mp-1221022
Na2YNbSi2SO12,2.0773,-2.812878325101331,mp-2712774
Ca3Ga2Si(SnO6)2,3.092399999999999,-2.812846452875,mp-695070
NaEuHfSnO6,0.0,-2.8128377651379313,mp-1522824
CaTiBi(PO4)3,1.1153,-2.812786353736773,mp-1043757
CaYGa3O7,3.1464,-2.812737839375,mp-1227159
NdPb7F17,4.4429,-2.812732084033346,mp-674506
Al3(SiO5)2,0.0,-2.812717536,mp-1193561
K2Cu(Si2O5)2,2.686699999999999,-2.812701526294119,mp-558998
K3Gd(BO3)2,2.6966,-2.812669496881944,mp-1211764
Li2TiNb3O8,0.0,-2.812574609642857,mp-772710
K3YSi3O10,0.0,-2.8124983793676472,mp-737385
RbSb2F7,4.2672,-2.812468973000009,mp-557260
Na5Ta2Ga2Si3(PO8)3,3.2451,-2.812436346080986,mp-2714306
CaAl2Si3(HO3)4,4.8957000000000015,-2.8124279811363633,mp-1194858
Na6Zr4Sc4Si5S7O48,2.8017000000000003,-2.812389582307783,mp-2715894
KZnF3,3.6954,-2.8123817304500003,mp-5878
YTa3Si3(SO8)3,2.1207,-2.81236494807353,mp-2713865
La3BN2O3,1.211400000000001,-2.81222376212963,mp-1019895
Ca2Nb3CuBrO10,0.0,-2.812130469705881,mp-1182284
Ca3TeO6,3.2598,-2.812126670666663,mp-5279
Na3Zr2SiGe2P5O24,3.4082,-2.81197761073925,mp-2713029
Zr3Ti(PbO3)4,3.219,-2.811972047166667,mp-1215936
Na6Sc4Nb4Si7S5O48,1.6260999999999992,-2.8119291252582332,mp-2713062
Ti3(P2O7)2,0.014199999999999,-2.811918910884352,mp-1047047
Ca2TiIrO6,0.0,-2.811912284333333,mp-1340170
KB3O5,5.2255,-2.8118024836759252,mp-559636
SrMg14NbO16,1.2103,-2.811768868125,mp-1034479
NaLa2OsO6,0.518699999999999,-2.811734130637931,mp-12337
LaNbP2SO12,2.433799999999999,-2.811713916967787,mp-2713436
Li2Nb4ZnO12,2.9399,-2.811698610877192,mp-756793
Ba2U(AsO5)2,2.2615,-2.811611801916667,mp-1196334
ScTa3Si3(SO8)3,2.3037,-2.811489965867648,mp-2713978
CeP5O14,0.677099999999999,-2.811459265910714,mp-504897
Na3NbAl3P5SO24,2.3292,-2.811442386257267,mp-2715835
Ba2Tb2MgTi2Cu2O11,0.0,-2.8113342844999982,mp-2230196
Ba4Nb14O23,0.0,-2.811276072805006,mp-4564
LaHfP(SO6)2,4.2216000000000005,-2.811236961743698,mp-2713009
Na3Ca2Ta2P5SO24,2.69,-2.811127990617628,mp-2715871
Sr2SmBiO6,1.8088,-2.811095234000001,mp-1208755
K8Zr3Si12SnO40,0.8252,-2.811060214734375,mp-1224617
Na5TiP2O9F,3.1385,-2.811044955389755,mp-559314
Ca3Nd2Sb3O14,0.0,-2.811031070227271,mp-1214040
KPrYSbO6,3.2201,-2.810903721891666,mp-1517276
Ba2YBiO6,1.758499999999999,-2.8108761275000003,mp-1523166
Na3Sc(BO3)2,3.6398,-2.810874867705938,mp-1191513
Sr2MgGe2O7,3.6039,-2.8108475683333323,mp-972387
LiB3O5,6.484299999999999,-2.810832107592593,mp-3660
Na4ZrInSi2PO12,2.4837,-2.8108244031822283,mp-2715791
Na4MgNbSi2PO12,2.0213,-2.810780224690163,mp-2715764
Na7Sc2Si3Sn2(PO8)3,3.3054,-2.81077171821749,mp-2714968
Na3Ca(BO2)5,4.556699999999999,-2.810742140393224,mp-542719
Hf2Nb2Si3(SO8)3,0.8844999999999991,-2.810702945171569,mp-2713868
Na2YAlP2SO12,4.6377,-2.810600428309352,mp-2713630
Na8NbAl3Si5SO24,2.173999999999999,-2.810532280917488,mp-2715803
Mg30SnBiO32,0.067899999999999,-2.810450510234375,mp-1098347
Al2SiO6,0.0,-2.810445010555556,mp-1196880
Ca3Cu2(Si2O7)2,0.094299999999999,-2.810327077826086,mp-1264728
Li3Ti(PO4)2,0.152399999999999,-2.810185670901361,mp-757905
Ba4Nd4Zn3PtO15,2.380099999999999,-2.810163555740741,mp-9837
Mg30CdCO32,2.6238,-2.8101604344531252,mp-1038496
K2InSi4HO11,4.2809,-2.810062062232456,mp-775466
K5In3(SiO3)7,3.6681,-2.8100615634375,mp-557237
Na2ScAlP2SO12,4.4031,-2.8100578232216322,mp-2713296
La3Ti2N3O4,1.0174,-2.809993341388889,mp-754172
Nb5Zn(PO4)9,2.3561,-2.80993992062325,mp-2713821
K2Be2Zn2Si3O11,3.504699999999999,-2.809918850974998,mp-557516
CsB3O5,5.304,-2.809898508850575,mp-3977
NaYHfSi(SO6)2,3.7611,-2.8098177494284813,mp-2714281
K2Pr4Cl9O2,0.4195,-2.809752698598039,mp-558801
KNaEuNbO5,0.0,-2.8095931026254792,mp-20737
Sr2NbSnO6,0.0,-2.809514884500001,mp-1521167
Na4TiSi3SnO12,2.8585000000000003,-2.809461886770663,mp-2716530
NaHfScSi(SO6)2,4.084899999999999,-2.809441146465518,mp-2712608
Si4SbO10,0.277599999999999,-2.809432354333334,mp-1043416
Na2Sr(PO3)4,5.3329,-2.809370941122633,mp-540951
Na8Si7O18,4.4437,-2.809347975182863,mp-29176
BaCaDyBiO6,1.7884000000000002,-2.809270969666667,mp-1520670
Ba4Sc2Cu2O9,0.5834,-2.80926711264706,mp-1228084
BaSrYBiO6,1.7909000000000002,-2.8092072,mp-1516562
SrNdO3,0.0,-2.8092064345,mp-1101333
Eu2TiCuO6,0.0,-2.809159832833334,mp-1225669
Ca4Nb6O21,0.0,-2.809154640161291,mp-1227135
Na2HfMgP2SO12,4.5333,-2.809117077607597,mp-2713290
K3Na9Sr4(BO2)20,4.4954,-2.809081294967067,mp-1224320
TaInO4,3.5727,-2.8090756256666682,mp-8979
Na10Sc7NbSi6(SO8)6,2.2734,-2.808898134749484,mp-2716434
LiHfPCO7,4.8683,-2.808854473906925,mp-754075
Ti2P2SO12,2.5547,-2.8087443045168072,mp-2713207
Rb2LiAsF6,4.5851,-2.808733546583333,mp-1113748
NaLa2P(SO6)2,4.6447,-2.808658660056787,mp-2715580
Na12Nb10Zn2Si15(SO24)3,2.2854,-2.808577762886419,mp-2714943
TiP2PbO8,2.5872,-2.808509416051586,mp-1191155
Li6Sm(BO3)3,4.6432,-2.80843387986842,mp-1211541
BaYMg14O16,0.0,-2.8082984365624992,mp-1035885
NaLa3NbP3(SO8)3,2.1578,-2.808237836746892,mp-2716348
LiMg14BiO16,4.2669999999999995,-2.808233150416666,mp-1035156
Li6Gd(BO3)3,0.129899999999999,-2.807994058947367,mp-16699
YMg14SiO16,0.0,-2.8079830140625,mp-1035937
Na14Mg9(P2O7)8,4.725199999999999,-2.807961344195747,mp-1222228
Sr2La6Cu3IrO16,0.0,-2.807783269285715,mp-1218814
Na2La3Ta5Si6(SO8)6,1.986899999999999,-2.807770412753695,mp-2713818
K2TiAuF6,0.0,-2.807723693783332,mp-1111957
CsPuO3,0.0,-2.807718800681032,mp-2647156
ScNbP2SO12,2.4514,-2.8077115665756303,mp-2713415
NbF3,0.0,-2.807684579749999,mp-1795
Na14Ca4Hf4Si7S5O48,3.2961,-2.80764749683102,mp-2715686
LiEu(PO3)4,0.0,-2.8076464034391533,mp-555486
KMg14GaO16,4.330100000000001,-2.807576761085937,mp-1035614
BaSrPrSnO6,0.0,-2.8074862266666663,mp-1522690
Na4ScSi2SnPO12,2.8185,-2.807471845642545,mp-2716168
HfMg14CdO16,0.0663,-2.807454665625,mp-1033680
Na3ScGa(PO4)3,4.1266,-2.807397276528325,mp-2715490
Li3Ti2NbO6,0.0,-2.807325545555556,mp-1177566
Nb3Ga(PO4)6,1.7787000000000002,-2.807233810255603,mp-2714005
USbO5,0.1367,-2.807220893571428,mp-28779
LiSiPO5,4.9408,-2.8071508166220243,mp-1232382
Sr2YBiO6,1.972399999999999,-2.807098618250001,mp-1522480
Nb2Si2SO12,3.0617,-2.807076236127452,mp-2715784
Na2BeSiO4,4.5475,-2.806945222532327,mp-17183
Na3ScSiSn(PO6)2,2.7076,-2.806904403337849,mp-2715501
NaLaYP(SO6)2,4.448499999999999,-2.806898541445676,mp-2714582
Na7Y2Si3Sn2(PO8)3,3.0995,-2.806884371632124,mp-2714649
KNaTiSi3(HO5)2,3.3986,-2.806830661914591,mp-1212364
CsSb2F7,4.3035,-2.8067705894655273,mp-556583
Na4CaHfSi2SO12,3.3384,-2.8067081699055842,mp-2714569
Li4Be3P3IO12,5.3771,-2.806647161620082,mp-1211168
Na6La2Sc2Si3(SO8)3,3.4977,-2.806646889769396,mp-2716201
Na6Mg2Ta4Si6(SO12)3,2.455,-2.806522595440512,mp-2712731
Li10Ti4O13,3.9675,-2.806436942654322,mp-772260
Ti2Zn(PO5)2,2.3994,-2.806364078730159,mp-1043451
Sr2LaBiO6,1.734099999999999,-2.8063323015000012,mp-1518084
NaTa2SiSn2P5O24,3.3306,-2.806327952074104,mp-2715552
Mg14ZnCuO16,0.0,-2.8063066271875,mp-1035833
SrCaSmBiO6,1.7071,-2.806261998,mp-1523104
Na3Sr(BO2)5,4.5614,-2.806260767366908,mp-6775
NaLaGdSbO6,2.2363,-2.806181082637931,mp-1517067
K2Na(B3O5)3,5.3035,-2.806180666328862,mp-558293
CsMg(PO3)3,4.8472,-2.806180560196458,mp-1229321
K2TlGaF6,4.1618,-2.806150681533334,mp-1111372
Na5Zr2Si3Ge2(PO8)3,2.839,-2.806133306602355,mp-2714102
KSb2F7,4.1611,-2.806088612725,mp-27389
Si8BNO18,0.0,-2.806072154077381,mp-728690
Sr2ScIrO6,0.0,-2.806069953499994,mp-10301
Na4CaZr3Si3(SO8)3,2.3886000000000003,-2.8059948395092262,mp-2713291
Li6Ti2O7,2.975,-2.805912543777776,mp-772055
Ti2Cu(PO4)3,0.5627,-2.805604998088624,mp-772797
GdAsO4,3.4222,-2.8055586137499993,mp-776200
RbB3O5,5.3514,-2.805547446388888,mp-561055
BaCaP2(HO4)2,5.327,-2.8055404440561222,mp-733968
TbCu(BO2)5,0.7428,-2.80553174632353,mp-17323
MgTi4Cd2O10,0.0,-2.805521550490195,mp-2229747
NdAsO4,3.766,-2.8055118241666652,mp-1095216
Ba2NdMgSbO6,2.8438,-2.805431952045455,mp-2239904
K3Na(B3O5)4,5.300899999999999,-2.805412341661,mp-1224582
Na14Nb5In3(SiO4)12,2.4949,-2.805321574666386,mp-2713071
Na3YGa(PO4)3,3.787,-2.805282593528325,mp-2715363
Sr2PrGeO6,0.0,-2.805281211916666,mp-1521453
Ba2HoMgSbO6,2.795,-2.805269964545453,mp-2240487
BaPHO4,5.6463,-2.805244756318027,mp-698163
Na2Ta3GaSi4(SO12)2,2.6096,-2.805217272423851,mp-2715649
Na2TaGaSi(PO6)2,3.165999999999999,-2.805104861590053,mp-2712796
YPtF7,2.1468,-2.805092973611112,mp-1207656
KMg3AlGe3(O5F)2,2.9396999999999993,-2.8050888828625,mp-1223527
Li2B4O7,5.8119,-2.8050073281410253,mp-4779
Na3Ta2Ga2SiP5O24,3.2369,-2.804981874333844,mp-2712937
Na5Sc2SiSn2P5O24,2.7169,-2.804960930857543,mp-2715828
Na2PrSiO5,0.5707000000000001,-2.804834358825031,mp-1210331
CaCu(SiO3)2,0.4828,-2.8047561182500003,mp-1041594
Mg3TiO4,1.398800000000001,-2.804578714791667,mp-1030636
Na5Y2SiSn2P5O24,2.21,-2.804547364361816,mp-2715916
Na7Ti2Si5Sn2PO24,2.8225,-2.804500306527595,mp-2714345
LiNd2RuO6,0.4246,-2.8044745583333333,mp-1211080
AlPb3OF9,1.604099999999999,-2.8044517414285712,mp-727215
Na3YIn(PO4)3,3.6227,-2.8044211260699923,mp-2715289
Na6Hf2Si5Sn2SO24,2.7721,-2.804359676311064,mp-2713969
Ti3ZnP3O13,0.0,-2.804300559696429,mp-1041160
Na3TiSi2SnPO12,2.8699000000000003,-2.804197641730707,mp-2713300
SrTiH4(OF3)2,3.934199999999999,-2.803975110238096,mp-849433
Na5Y3TiSi3(SO8)3,1.6523,-2.803943360326408,mp-2713411
CeReO4,0.0,-2.803903588333332,mp-769239
YMg6CuO8,2.5234,-2.803874974374999,mp-1032744
Na2B8O13,5.555,-2.803870102438781,mp-542300
Gd4Au2O9,1.9649,-2.803804601666671,mp-623092
Sr2CaTeO6,3.2142,-2.803740488666666,mp-11982
Sm4Au2O9,2.1008,-2.803641438500004,mp-16160
Na2TaAlSi2SO12,3.138099999999999,-2.803558654873261,mp-2712553
Na7Ca3TiP5SO24,2.162899999999999,-2.803551970090313,mp-2716082
Na15Mg7Nb5(PO4)18,1.9355,-2.803527068284283,mp-2713202
Mg30CuCO32,0.0,-2.803510046171874,mp-1037135
BaSrGdBiO6,1.4773,-2.803458484,mp-1518043
Ca4Si6Pb6Cl2O21,3.386,-2.803339358205128,mp-558268
CeHfMg14O16,0.0243,-2.8032380621875,mp-1034733
Ba9Sm6Cl34,0.0,-2.80317716877551,mp-567646
Mg14NbZnO16,1.037799999999999,-2.803132729999999,mp-1035709
K2LuPCO7,4.6732,-2.803132408817459,mp-772832
CaGd2(GeO3)4,3.1596,-2.8030612957894743,mp-1227314
Na8Mg3Ti(PO4)6,1.1698,-2.803054788346627,mp-2715144
LaHfMg14O16,0.059599999999999,-2.803014343281249,mp-1034891
HoBiO3,3.1343,-2.8029883289999993,mp-1178162
BaCaTbBiO6,1.721299999999999,-2.802971251666666,mp-1518633
Ca3Pr2Sb3O14,0.0,-2.802791467424242,mp-1214039
Sr2NbSbO6,1.144899999999999,-2.80272625725,mp-1520815
SrCdP2O7,3.9048,-2.802720797662336,mp-17693
Rb2InGaF6,3.2609,-2.802686308916666,mp-989566
CaTiSb(PO4)3,0.192199999999999,-2.8026595140145503,mp-1043769
KMg(PO3)3,4.951799999999999,-2.802440528655613,mp-14058
Na6Ca2Hf6Si5S7O48,2.8437,-2.802340019154629,mp-2716060
Ba17SrSm12Cl68,0.006199999999999,-2.80191239744898,mp-1229199
NaTaGa(PO4)3,3.3677,-2.801652685285623,mp-2713205
EuZn(BO2)5,0.0,-2.801632591225491,mp-1019730
Zr2Ti(PbO3)3,2.9685,-2.801615003222222,mp-1215944
Na8Mg2Ta2Si5SO24,2.5772999999999993,-2.8016097107905042,mp-2715618
Na5Al4P5SO24,5.0197,-2.801360742246432,mp-2715004
Na4ScGaSi(PO6)2,3.8308,-2.8013256626493472,mp-2714472
Na2Sc2Ta2Si3(SO8)3,1.3672,-2.801318320553481,mp-2713443
CaF,0.0,-2.8012375125,mp-1183545
CsNaMg30O31,1.7947000000000002,-2.801098971841817,mp-1039864
Na2ScSn(PO4)3,2.738299999999999,-2.800994066492308,mp-2713665
NaTaSiGe(PO6)2,3.227699999999999,-2.800981805444354,mp-2715671
Na4CaAl(PO4)3,4.1093,-2.8009306498148803,mp-2715214
LiNb(BO3)2,3.017,-2.800929619666667,mp-761857
KTbNdSbO6,3.1416,-2.800884641141665,mp-1522631
CeCO4,1.2835,-2.800867669907408,mp-1195398
Na4Y3NbSi3(SO8)3,1.9043,-2.800858248017999,mp-2713691
LiPr2OsO6,0.0,-2.800856855666667,mp-12449
LaTa3Si3(SO8)3,2.1926,-2.8008376164558832,mp-2713882
Na14Ca4Ta4Si9(SO16)3,2.0873,-2.8008023563147613,mp-2714877
Na3CaScP2SO12,3.9949,-2.800587353046183,mp-2712818
Ba2CePtO6,1.420399999999999,-2.800542076999999,mp-21879
Na7Y2Ga2SiP5O24,3.7698,-2.8005176455577923,mp-2715570
K3Nd(BO3)2,3.3697,-2.8005122927152772,mp-1211700
Na4Nb3GaSi5SO24,2.2537000000000003,-2.800497925452209,mp-2714926
NpB3O8,0.5495,-2.800497673020833,mp-1199282
Na7Sc2Ga2SiP5O24,4.0235,-2.800430778809825,mp-2715739
Cs2KAsF6,4.6474,-2.800384116406034,mp-1113137
Na9Mg4Nb2(PO4)9,1.6935,-2.800373103847769,mp-2715301
LiAl(PO3)4,5.7440999999999995,-2.800282252883598,mp-559987
CaTi(PO3)4,0.175499999999999,-2.8002536695502642,mp-1045626
Ba3Y2Cl12,4.3578,-2.8002191649999992,mp-768979
Na2LaAlP2SO12,4.5344999999999995,-2.800192462783035,mp-2713263
NaEuZrSbO6,0.0907,-2.800069968637931,mp-1523171
Eu2ReO5,0.0,-2.8000572118750022,mp-20209
Na6La4Si3(SO8)3,3.0007,-2.799981464769396,mp-2716262
BaGe(PO4)2,4.1615,-2.799973547857142,mp-1095485
Ba2DyMgSbO6,2.806499999999999,-2.7999618087878773,mp-2240337
Na4MgAl(PO4)3,4.6042000000000005,-2.79993940465615,mp-2715031
LiNdBO4,0.206499999999999,-2.799937002142855,mp-1104249
CaPHO4,5.4321,-2.799886724056121,mp-24390
Gd2Se2O,1.4185,-2.7998750604375,mp-669388
Y2Sb2O7,1.9165,-2.799831344393939,mp-777749
Na2Ca(PO3)4,5.3703,-2.799806669280529,mp-541522
Li6Nd(BO3)3,4.5791,-2.799694764473684,mp-1198049
Na4Sc3NbSi3(SO8)3,2.215899999999999,-2.7996896940267693,mp-2713659
K2TmPCO7,4.6173,-2.799619853261904,mp-772802
BaEuNbSnO6,0.0,-2.7996192197500003,mp-1517743
Na3Nd(BO3)2,3.9757,-2.799580951455938,mp-558805
NdTl(PO3)4,5.2631,-2.79956995760582,mp-540742
Ca8Zn4Si3Ge5O28,3.2833,-2.799552498645833,mp-1227205
KNaCu(Si2O5)2,0.819399999999999,-2.799468314919371,mp-543047
PaHgO3,0.0,-2.799456755500001,mp-1186395
Na3Ca4Nb8P15(SO24)3,1.999499999999999,-2.799393117774104,mp-2716210
Li2Ti2AsPO10,3.139,-2.799276135654762,mp-1222715
CaPdF4,1.1613,-2.79919496,mp-8161
YMg3O4,0.0,-2.799160816874999,mp-1024046
NdSbO4,2.240399999999999,-2.799145137916666,mp-13195
CsMg30SbO32,2.389,-2.799120849682111,mp-1038732
Ti2Cu(PO5)2,0.5832,-2.7990293697301603,mp-6815
HfScP(SO6)2,4.4756,-2.799001819292717,mp-2712968
Rb2LaMgNb2O8,0.0,-2.798982508214285,mp-2228906
Na5Sc3TiSi3(SO8)3,1.8636,-2.798874400198202,mp-2713487
Na2YSn(PO4)3,2.1965,-2.798870852895818,mp-2713595
Ba2PrSnO6,0.0,-2.798870572666666,mp-1228394
Na2MgSiO4,3.7488,-2.7987684303448273,mp-6406
Ba2MgTi3Tl2O10,1.4596,-2.798657563425926,mp-2228865
CsRb2SbF6,3.3907,-2.798610963465517,mp-1111454
SrMg3O4,0.0,-2.798580238125,mp-1218196
NaZrGe(PO4)3,2.7293000000000003,-2.7984754780726613,mp-2713383
Rb2NaAsF6,4.543,-2.798271798387934,mp-989523
MgAl2(PO5)2,0.1615,-2.798243217952382,mp-1194286
NaSrCeSbO6,1.974399999999999,-2.79820146913793,mp-1519609
Na10Ca3Hf5Si6(SO8)6,3.0184,-2.798127288873416,mp-2713500
B2O3,6.3017,-2.798056310000001,mp-306