formula,bg,formation_energy,mp-id
Li2ScPCO7,4.4658,-2.753752843859127,mp-767341
Ta24Cu13O72,0.0,-2.753752039412845,mp-530658
Ba2LiB10O19,0.0363,-2.7537332575,mp-1200459
Er2Tc2O7,0.0,-2.753700506363636,mp-557806
Al2Cd3(SiO4)3,3.1407,-2.75354748925,mp-14047
Mg6TiZnO8,0.0415,-2.753501077708333,mp-1032012
KEuZrSnO6,0.0,-2.753489768724999,mp-1520642
KCaSiHO4,4.3515,-2.753456617937499,mp-995190
Na7Zr2Zn2SiP5O24,3.5313,-2.75333336933828,mp-2715731
K2NdPCO7,4.328699999999999,-2.75328594305357,mp-772835
Pr(BO2)5,0.0,-2.7532565323437512,mp-1204691
Ca2AsClO4,3.808899999999999,-2.75325286625,mp-560595
NdPb8F19,3.4975,-2.753249138601197,mp-675152
Li3PO4,5.818099999999999,-2.753226182455357,mp-13725
Na6Ta2Ga2Si5SO24,3.0787,-2.75313335955273,mp-2713793
Li5Sm3(SbO6)2,3.4534,-2.7529798599621222,mp-774794
Sr2Y2Sn2O7,0.2621,-2.7528577257692293,mp-1046778
Na3Ca2Nb2P5SO24,1.9803,-2.7528557823833952,mp-2715981
MgTa2CuO7,0.6687000000000001,-2.75265897330303,mp-1327669
Na7La2Si3Ge2(PO8)3,2.8146,-2.752656774071148,mp-2714797
Sr7Re4O19,0.0,-2.752647109833335,mp-30165
Na2LiSbF6,3.6063,-2.7526208476091942,mp-1110657
Cs2RbPbF6,0.0,-2.752321537681034,mp-989525
Na7CaSc3Si3(SO8)3,3.7742,-2.75220165147533,mp-2714165
BaTb4SmO12,0.0,-2.7521144350925932,mp-1518589
KNa2TaF6,0.0,-2.7521096497341953,mp-1111004
Hf2Ag3F14,0.1563,-2.752063400263158,mp-28550
Na6Nb6Ga2Si9(SO16)3,2.2314,-2.7519237199879623,mp-2713115
KPrSmSbO6,3.056899999999999,-2.7518875053916663,mp-1519274
CaSb2H2F14,4.6983999999999995,-2.751835914473684,mp-780667
Rb2TaAuF6,1.164,-2.751740552233333,mp-1111046
Th4P5O23,1.0967,-2.751724030569196,mp-1101137
NaSb3F10,4.968,-2.751694213669951,mp-27573
Rb2Ta2P7O24,0.0,-2.751682389061904,mp-734428
Ba3(BrO)2,2.5698,-2.751662989285714,mp-752648
CsK2SbF6,3.1372,-2.751660770415517,mp-1112270
CsSbOF4,3.5747,-2.751530689236454,mp-667360
Na3Hf2Mg2P3(SO8)3,4.8465,-2.75149737929459,mp-2713740
Na2La2Ta2Si3(SO8)3,1.8535,-2.751409097497925,mp-2713502
Rb2TiO3,3.864,-2.751183317222221,mp-5403
Na14Ti4Si11Ge4SO48,2.5959000000000003,-2.7511081470749232,mp-2714388
TiTeO3F2,2.7386,-2.751074262142857,mp-1216939
Li3Y3(TeO6)2,3.2397,-2.751055489791666,mp-1211226
Pr2Se2O,2.062399999999999,-2.750774976104165,mp-10925
Rb3AsF6,4.2827,-2.750770718999998,mp-1113850
K3AsF6,4.3402,-2.750747019925,mp-1111501
Na2YPCO7,4.7715,-2.750636495616789,mp-767462
CaTaNO2,1.6554000000000002,-2.750553648966665,mp-556340
Rb2ZrO3,3.538599999999999,-2.750551932916666,mp-1101461
NaCaTa3Si3(SO8)3,1.4136,-2.750491573882266,mp-2713867
Na5Y2SiGe2P5O24,1.7875,-2.750479923678056,mp-2715974
Ba4Zn4B14Pb2O31,3.6828,-2.750471961454546,mp-1195127
Cs3AsF6,4.3032,-2.750464199646551,mp-1113159
Na2La4Ta4Si5S7O48,2.0341,-2.750434528256077,mp-2716276
Na3Zr2Ga2P5SO24,3.984,-2.7504204350410513,mp-2716031
SrTaNO2,1.116899999999999,-2.750392794466667,mp-2583419
MgZr2(BiO4)2,3.002299999999999,-2.750336865769231,mp-2227657
Na2Zr(SiO4)2,0.626599999999999,-2.750263416366047,mp-1221466
Cs2PO3F,4.402,-2.75026178877903,mp-6557
Na2LaScSi(SO6)2,3.7167,-2.750151135583788,mp-2713581
Sr2YMgSbO6,2.7933000000000003,-2.750102888636364,mp-2224243
SrCl2,5.5675,-2.750093178333335,mp-23209
CaGeO3,3.481299999999999,-2.749981945333333,mp-17761
Na10Nb4Si11Sn4SO48,2.7262999999999993,-2.749941770956749,mp-2716553
BaHfMg14O16,0.0396,-2.749880540625,mp-1033883
NdNb2CuClO7,0.0,-2.749878845208332,mp-1209879
Na3Ti2SiGe2P5O24,2.531099999999999,-2.7498377043428532,mp-2713112
Sr2Ga2O5,3.1468,-2.749741818333333,mp-1020723
Na4Hf3ZnSi3(SO8)3,2.9484,-2.749621160123261,mp-2713669
Sr2LiReO6,1.8423999999999991,-2.749342723583333,mp-1080625
Na4LaSi2SnPO12,1.697299999999999,-2.749264152626672,mp-2715643
HfMg14BO16,2.9669,-2.749247124661457,mp-1033686
Hf3MgP2(SO6)4,4.148899999999999,-2.7488768636554632,mp-2712881
Na11Ti10O21,0.0,-2.7488428468691852,mp-532249
Na2La3TaSi2(SO6)4,2.497899999999999,-2.748839059956257,mp-2712523
SrMgCu(PO4)2,0.879799999999999,-2.748734684945055,mp-1046153
Sr3TeO6,3.2095,-2.7485819631666653,mp-768941
Na4TiInSi2PO12,2.383199999999999,-2.748478978658418,mp-2716227
Na6Zr2Si5Ge2SO24,2.7475,-2.748463936061064,mp-2713899
KTaGeO5,3.9472,-2.7484462021354172,mp-14377
Ti2ZnP2O9,0.0,-2.748401043460885,mp-1049239
Na6La8Si3(S3O16)3,3.7701,-2.748241121384359,mp-2713961
Na5Ti2In2SiP5O24,2.2293,-2.748203643592586,mp-2716033
Na6Y6Nb2Si5S7O48,0.6076,-2.748160667127602,mp-2716001
NaScSnO4,2.6174,-2.748143868411329,mp-1220936
Na2ScGe(PO4)3,2.1101,-2.747974322018624,mp-2713312
Na2TiAgF6,0.0,-2.747848715775861,mp-1111315
Li2TiP3O10,0.148899999999999,-2.747393434308036,mp-757305
Na2Sc2Si(SO6)2,4.0563,-2.747289290145191,mp-2713687
Na6Ca4Ta2P6(SO12)3,2.8701,-2.7472599449701702,mp-2713566
Na3Nb2Si3Ge2(PO8)3,2.7674000000000003,-2.747250930488285,mp-2712843
Ba8Ta2Ru3(BrO9)2,0.037999999999999,-2.747154983777778,mp-1228432
Na14Y4Al4Si7S5O48,3.2931,-2.7470494974814272,mp-2715604
Na2NbSi2GePO12,2.9165,-2.746841009950956,mp-2715158
Ba3Sr2As3ClO12,3.9136,-2.7466681220238103,mp-1214567
Na2Eu2Ti2O9,0.0,-2.746485917628354,mp-1221612
Na5Nb2Ga2Si3(PO8)3,2.3757,-2.746464432542525,mp-2714318
CaAl2Si2(ClO4)2,0.0,-2.746442369999999,mp-1227373
NaNd2OsO6,0.543,-2.74630087513793,mp-22329
Na14Ti6Zn2Si9(SO16)3,1.718699999999999,-2.746246290022077,mp-2714717
La2ZnSbO6,0.0,-2.7462189230000003,mp-1403373
Ti3NbCu2(PO4)6,0.008299999999999,-2.7461910138293653,mp-776025
Nb2SnO6,1.7399,-2.7461501200000322,mp-3324
Na4ScZn(PO4)3,4.1625,-2.74603309933869,mp-2715019
Ba2PrBiO6,1.759999999999999,-2.746031445166667,mp-1214573
Na8Mg2Nb2Si5SO24,1.7772,-2.74587775718733,mp-2715716
Li2Nb(PO4)2,0.092,-2.745848653534797,mp-26721
Ba3Si6N4O9,4.372,-2.7458346243181833,mp-554885
Rb16Sn16F47,0.9131999999999992,-2.745764419556961,mp-530885
Ce2(GeO3)3,0.0,-2.745754115357143,mp-697672
Li3Nb3P8O29,2.4823,-2.745694252491693,mp-777751
NaMgBO3,3.5852,-2.7456657742576622,mp-561536
Na14Ca4Nb4Si9(SO16)3,1.3514,-2.745558346932647,mp-2714905
KCeNbSnO6,1.6239,-2.745545489725,mp-1520451
Nd2Tc2O7,0.0,-2.745416420909092,mp-1191821
Li8Be6P7O29,0.1894,-2.745375387083333,mp-1201314
Na4Ca(PO3)6,5.196999999999999,-2.74536523287503,mp-542280
Ti9Zn2O13,0.0,-2.745342895208335,mp-1045652
MgGaBO4,3.112,-2.745339111666666,mp-1210623
ZrNF,2.0644,-2.745236624166667,mp-1207386
CsMgBO3,3.3364000000000003,-2.7452137115744732,mp-1019721
Li2NdPCO7,4.7267,-2.744965630317459,mp-753626
Na4MgZrSi2SO12,3.548499999999999,-2.7448511066516152,mp-2714412
Nb2PbO6,2.6492,-2.744779823333332,mp-1192336
Li3B(PO4)2,6.1272,-2.744765001675169,mp-1020022
Li14Be6(BO3)9,0.0084,-2.7447428519494053,mp-1210986
NaTi3NbSi3(SO8)3,1.747799999999999,-2.744640647920362,mp-2713767
Li10B14Cl2O25,6.4018999999999995,-2.744636391503268,mp-23122
Na4Ta2Si5Ge2SO24,2.949,-2.744531405289928,mp-2715053
KNb4InO12,1.7758,-2.744449267439814,mp-1522445
BaZnCuF7,0.7594000000000001,-2.74429844375,mp-1041302
NaZrNbSnO6,2.349599999999999,-2.744293399637931,mp-1517464
Cs3Mg3In(PO3)12,4.665699999999999,-2.744289017024482,mp-720658
Li3Sm3(TeO6)2,3.4655,-2.744250561166666,mp-1211256
Na10Mg2Ti6Si7S5O48,1.6672,-2.7441642727516222,mp-2715928
LiEuO2,0.0,-2.7441637020833363,mp-1019724
K2AlSn(PO4)3,3.6794,-2.74411425149624,mp-1224126
Mg6AlZnO8,0.398900000000001,-2.7441043475,mp-1033130
Ti(PO3)4,2.7969,-2.743912591876752,mp-26114
Cs2ZrCu3F12,0.0,-2.743874588572797,mp-1201167
K3MgCu2F9,0.0,-2.743810196116666,mp-1223920
Ba2In2(PO4)3,0.0,-2.743759896303258,mp-1215000
LuBeNF6,1.894,-2.743583676851852,mp-1211031
Li4P2O7,5.6108,-2.7435226032783873,mp-28450
Na3TiInSi(PO6)2,2.2454,-2.7435205450878493,mp-2715332
Na6Y8Si3(S3O16)3,3.5499,-2.743491641114088,mp-2713947
AlSb3F15,0.0,-2.7434882073684213,mp-1047485
RbTaGeO5,3.6393,-2.743487765187499,mp-1209926
Na9Nb8Zn4Si3(P5O24)3,2.0689,-2.743375837045555,mp-2713033
CaHf4(PbO3)4,0.3485,-2.743338379523808,mp-1233772
Na6MgTi7Si6(SO8)6,1.6643999999999992,-2.743330600472197,mp-2714718
Na10Zr6Zn2Si7S5O48,3.09,-2.7431605101447842,mp-2715930
Na7Mg2Al2P5SO24,4.7203,-2.743137924480557,mp-2715909
SrGeO3,3.4179,-2.743115335333333,mp-17464
Na2Y3Nb5Si6(SO8)6,1.267399999999999,-2.743112915825123,mp-2713857
Li6Si2O7,4.995699999999999,-2.742996080333333,mp-27767
BaNbTePO8,2.8368,-2.742984132088293,mp-560794
Ca3Al2S(OF)8,0.6910000000000001,-2.742922414204545,mp-1198254
Na6Ca2Nb4Si6(SO12)3,1.8487,-2.742913352206595,mp-2712758
Ba2PuPbO6,0.437999999999999,-2.742584272874998,mp-1207268
Cs2NbTlF6,0.0,-2.742581756333334,mp-1111976
Ca2AsH4F13,4.8857,-2.7424328865,mp-1203188
Ca3Cu5Si9O26,0.0689,-2.742382492325582,mp-722867
CeHfMg6O8,0.144999999999999,-2.742332559999999,mp-1031136
BaCaNdBiO6,1.626599999999999,-2.74218508375,mp-1522982
Na2Sc2Nb2Si3(SO8)3,0.6163000000000001,-2.742184472275702,mp-2713905
Sr4LiTb2(RuO6)2,0.0,-2.7421823422222222,mp-1235116
LiSm2IrO6,0.0,-2.742124424333332,mp-11904
K3Ca(PO4)2,0.019699999999999,-2.7420949557882652,mp-1104232
Na2NbAlSi2SO12,2.3891,-2.742057635978525,mp-2712776
CsNaTiO3,3.361799999999999,-2.7420402407279703,mp-560791
Na6La4Y4Si3(S3O16)3,3.6229,-2.741936453141116,mp-2713854
Na2SmPCO7,4.6385000000000005,-2.741884984783455,mp-767523
Ta16(Cu3O16)3,0.0,-2.741855248045662,mp-531291
Mg14CdSiO16,2.6151,-2.741768243437499,mp-1034777
Na8Zr3Si12SnO40,1.13,-2.741653956188039,mp-1221150
Ba2LiReO6,1.8198,-2.741621015583333,mp-6270
La3CuS3O2,0.967,-2.74157057611111,mp-555681
NaLaNbInO6,2.6066000000000003,-2.741544098304596,mp-1519810
Na2Ta6Ga2Si7S5O48,2.629,-2.741525915894171,mp-2715776
Na6Sc6Nb2Si5S7O48,0.9951,-2.741516306542017,mp-2715937
ErTlO2,1.371499999999999,-2.741395368333334,mp-754823
Ba2PrRuO6,0.1636,-2.7413908821666673,mp-6183
NaZr2Al2P3(SO8)3,3.1224,-2.74122610488975,mp-2716385
Ti3Bi2(PO4)6,2.343,-2.741198451081632,mp-768296
Mg14CuSnO16,0.3327,-2.741179566718749,mp-1035350
Na4YZn(PO4)3,3.8856,-2.741093777830753,mp-2715137
Cs2InGaF6,3.3133,-2.741083707347701,mp-1113099
Mg2GeO4,3.0734,-2.7410589342857152,mp-3904
Na3Y2Al2P3(SO8)3,4.668,-2.741057514609906,mp-2713775
Na2B4O7,4.7673,-2.740920742648098,mp-17941
Ba2ReO5,0.0,-2.740826081562503,mp-505390
KAsF6,4.9494,-2.740819834343749,mp-4266
Ba5As3ClO12,3.995999999999999,-2.740808625595239,mp-556761
NaMg6GaO8,4.2373,-2.740787579929956,mp-1030655
Sr3Bi(ClO)3,4.035299999999999,-2.74067482675,mp-558642
Sr2CaSbO6,0.0,-2.740657546,mp-1208881
K2Li3B(P2O7)2,5.590599999999999,-2.740575714364087,mp-1019778
Na6Ca3TiP4(SO12)2,2.2019,-2.740436089712849,mp-2712597
Ca6Si2H6O13,3.4958,-2.7403063049074072,mp-697022
Ca5As3ClO12,3.5157,-2.7402895789285773,mp-1227203
Na3Zr2In2P5SO24,3.4762,-2.740233062743754,mp-2715890
Na2NbGaSi(PO6)2,2.3899,-2.74021361094093,mp-2712547
ZrTi4(PbO3)5,2.0719,-2.740167682733332,mp-1215414
HoBeNF6,1.9256,-2.740143259444443,mp-1212242
Na2TiO3,3.204999999999999,-2.739983500598658,mp-752423
RbSr2Cl5,5.2035,-2.739873020000002,mp-1209161
Na2Sc3TaSi2(SO6)4,2.411299999999999,-2.739815735234036,mp-2712527
MgTiBi(PO4)3,1.8678,-2.739739190681217,mp-1043828
Na2Y4Zr4Si3(S3O16)3,2.3808,-2.739696932479886,mp-2716310
NaTiGe(PO4)3,2.569899999999999,-2.739685529183772,mp-2713361
Na4La2Ti2Si3(SO8)3,1.3294,-2.739678462140806,mp-2713592
Na18Mg8Ta16Si21(S5O48)3,1.6553,-2.739660851687662,mp-2712984
K2LiB(PO4)2,5.5562000000000005,-2.739611065448979,mp-1019782
Cs2ReF6,1.8006,-2.739566618055556,mp-1205774
Na7Mg3TiP5SO24,2.083199999999999,-2.739432174521207,mp-2713030
Na2Ta5Al3Si6(SO8)6,2.0987,-2.739425234634647,mp-2713946
UP3HO11,2.5051,-2.739392914308034,mp-703348
Ba2Ti2AlTlO7,0.0,-2.739371498076923,mp-1249385
Ba2Cu(PO3)6,1.1062,-2.739329850383598,mp-558012
Na2Ca2Hf6Si3(S3O16)3,2.928099999999999,-2.73929560771798,mp-2716338
K2PrPCO7,4.4138,-2.739271542567459,mp-772765
Na2Sc3Nb5Si6(SO8)6,1.294699999999999,-2.739228537087028,mp-2713987
Li2Ti3P9O28,0.0,-2.739197645915532,mp-758037
Na3YSiGe(PO6)2,2.332,-2.739103708546183,mp-2715295
Na10Hf4Si9Ge4(SO16)3,2.7270000000000003,-2.7390404214482023,mp-2714183
Be3Si3(BiO6)2,3.3355,-2.739009410625,mp-1041202
Li3Gd3(TeO6)2,2.8187,-2.738937225416667,mp-1212457
LuU4S5O4,0.0,-2.738926260297616,mp-556671
Ca3Ga4O9,2.639299999999999,-2.738889307395833,mp-29226
Sr2YTiCu2O7,0.0,-2.738802013717948,mp-1046088
Y2AlSiNO5,0.0,-2.738710989,mp-1100918
Ta2TiZn2O8,0.0,-2.7386462436923082,mp-1045921
Na8Zr2In2Si5SO24,3.378199999999999,-2.738644916314313,mp-2716195
Rb2Li3B(P2O7)2,5.5554,-2.738594326780752,mp-1020705
La2Nb4Cu(ClO7)2,0.0,-2.7384559752173923,mp-1147590
TaGe(PO4)3,3.260199999999999,-2.738399181936975,mp-2714008
Na2ScPCO7,4.351,-2.7383891927001223,mp-767518
Na10Ti4Al4Si7S5O48,1.874,-2.738383299290082,mp-2715846
Sr3EuRhO6,0.0,-2.738322050909091,mp-505615
Na3Nb2Ga2SiP5O24,2.4617,-2.7382703935770882,mp-2712994
Na4Zr2Al2Si3(SO8)3,3.0794,-2.738173914246068,mp-2713576
YMg6AlO8,1.9342,-2.7381422662499992,mp-1033127
Ba5Re3IO15,1.9989,-2.738128853020833,mp-1214601
Na3Ti3AlSi3(SO8)3,2.2333,-2.73808780702625,mp-2714673
MgTaBiO5,3.681899999999999,-2.7378440118541683,mp-1043608
NbSn6OF15,2.739899999999999,-2.737790518478259,mp-1220683
NbSeOF7,4.5144,-2.737582058484375,mp-17921
Mg14AlBiO16,0.115999999999999,-2.737568795312499,mp-1036469
Na3Zr3GaSi3(SO8)3,3.7119,-2.737562112364089,mp-2714778
Na6Nb6In2Si9(SO16)3,2.1002,-2.737423378118593,mp-2712980
Li6UO6,2.1685,-2.73728111,mp-8609
P2O3F4,5.7922,-2.7372636221428572,mp-1200699
SrTi4SnO12,0.0,-2.737034062685185,mp-1516251
Ba4Sm2Cu2O9,0.0,-2.737019890000001,mp-636383
Na9Ca5NbP6(SO12)3,2.7960000000000003,-2.737010103212849,mp-2712799
Ba2Cu(BO3)2,0.0,-2.736989142348484,mp-559180
Y3Sn4BiO14,3.156799999999999,-2.73682892590909,mp-1216099
CsBe2P2HO8,5.5956,-2.736826344656491,mp-1201252
BaLiZrO3,0.0,-2.736766543055555,mp-1236336
NaLi2B(PO4)2,5.8332999999999995,-2.736737692964168,mp-1020646
Ca4IrO6,0.0,-2.736608389999999,mp-4100
Na3Mg2Nb2P5SO24,2.1343,-2.736508672113124,mp-2716107
USO6,1.9501,-2.7364963206249993,mp-17637
Rb2SiP4O13,5.3551,-2.736484309428571,mp-557355
Na3Sc2Al2P3(SO8)3,4.384,-2.736424535510807,mp-2713776
Ba3B3Pb2BrO9,3.2581,-2.73635357125,mp-1194742
Nb4Pb3(O6F)2,2.7985,-2.736320866785715,mp-1220828
Na4NbIn(SiO4)3,2.5044999999999993,-2.736316542167488,mp-2716423
RbMg14GaO16,3.5837,-2.736218515468749,mp-1034094
Ti5ZnO7,0.0,-2.736197490128205,mp-1045822
RbHfMg14O15,0.5447999999999991,-2.736158766532258,mp-1034945
MgTiSb(PO4)3,1.2099,-2.736100590403438,mp-1043837
Cs2UMoO7,1.9356,-2.7359571487251833,mp-581443
Sr4LiY2(RuO6)2,0.0,-2.735819362063492,mp-1235258
CaAl2Si4(ClO4)3,0.0783,-2.735797303863637,mp-1227752
Ti2Sb(PO4)3,0.0,-2.735729106421958,mp-773711
Na6La6Nb2Si5S7O48,0.7060999999999991,-2.735719291587061,mp-2715914
RbTeF5,4.8863,-2.735651612559523,mp-556785
LiAlPHO5,5.728999999999999,-2.735646848802909,mp-644409
LiCePCO7,1.206,-2.735582779816016,mp-768198
NaEuYSbO6,0.0,-2.735573465637931,mp-1523342
K3B6BrO10,5.212000000000001,-2.735504874587499,mp-23612
NaNbO2F,0.0,-2.735472987275861,mp-557590
Na8Ca3Ge(PO4)6,1.2926,-2.735441008902182,mp-2715043
Na14Nb4Ga4Si11SO48,2.5597000000000003,-2.735313659473297,mp-2714418
Li4Ga3Si3ClO12,4.5903,-2.735295863949276,mp-554203
LiSi2BiO6,3.7375,-2.735161069833334,mp-759680
Be3Si3(SnO6)2,2.3258,-2.735158417875,mp-1267034
Li7Ti2P7O24,0.224899999999999,-2.735079755812501,mp-757327
CsRbMg30O31,1.763599999999999,-2.7350218687643673,mp-1040252
Li2Al2Si4HO14,0.7394000000000001,-2.73495010164855,mp-1190535
Y2Hf2SiS5O24,4.1576,-2.734833284436275,mp-2713021
Na14Hf4In4Si9(SO16)3,2.990199999999999,-2.7347775171358992,mp-2714654
NaSr3SbO6,2.9095,-2.734771699216301,mp-10461
K2NbHgF6,0.0,-2.7347258017000002,mp-1112365
NbP2O7,0.0,-2.73458002892857,mp-33528
NaNb2SiSn2P5O24,2.5869,-2.734573314036009,mp-2715645
Mg6TiCuO8,0.0,-2.734470371458333,mp-1099237
K2Zn(SiO3)2,3.9235,-2.734427540409092,mp-555318
KTeF5,5.2046,-2.734220906988093,mp-4648
SbPOF8,4.769299999999999,-2.734204389740261,mp-560310
Ce6Ge9(BO15)2,0.1823,-2.734203353156028,mp-683922
CeAsO4,0.084,-2.734135432499999,mp-10772
CeMg14BO16,0.5203000000000001,-2.734092111536457,mp-1034664
NaZr2Sn2P5SO24,2.9901,-2.734060036345532,mp-2716249
La3GaGe5O16,3.2526,-2.734014037899999,mp-652961
K3ZrH2S(OF)5,5.0454,-2.733963419661766,mp-696078
Na3LaMgP2SO12,4.1684,-2.733926638796183,mp-2712573
Na2TiIn(PO4)3,2.2759,-2.733836165264239,mp-2713273
LaBiO3,3.069999999999999,-2.733831392,mp-768310
Ca2YBiO6,1.742399999999999,-2.7337731925,mp-1518059
HfMg14SnO16,0.091600000000001,-2.73372778078125,mp-1034209
BaSrPrBiO6,1.7972,-2.7335901749166682,mp-1519048
Sr4CaTb2(RuO6)2,0.0,-2.733536743492063,mp-1234335
Ti2Te2(OF)5,0.0,-2.733386236964286,mp-1208334
Na7Nb2In2Si5PO24,2.4335,-2.733268848397513,mp-2714381
Ba2NbRhO6,0.8889,-2.733223787000001,mp-1205833
LaMg14BO16,2.914599999999999,-2.733103875755207,mp-1034856
K22Nb13In11(PO5)24,2.5818,-2.733057060601378,mp-695298
NaZrPCO7,4.0085,-2.733000059638378,mp-768152
Na3Ta8Zn4P15(SO24)3,2.7382,-2.732810242428071,mp-2716124
Na2La4Zr4Si3(S3O16)3,2.43,-2.732701796241791,mp-2716448
Na6Ca2Hf2Si3(SO8)3,2.6026,-2.732664172436064,mp-2716198
Na6Hf4Al4Si5S7O48,3.3282,-2.732570701406881,mp-2716016
La2Hf2SiS5O24,4.1625,-2.732424367279412,mp-2713099
Na42Nb16Zn8Si33(SO48)3,1.8167,-2.732389662806631,mp-2714509
Na6Ta3Ga5(PO4)12,3.08,-2.73238069446158,mp-2714715
GdNb5Ag2O15,1.9167,-2.732323519927536,mp-1212605
MgCu(SiO3)2,0.3771,-2.732313234875,mp-1041479
SrMg6AlO8,0.0249,-2.732144519375,mp-1033028
NaCePCO7,1.1947,-2.7321256682747412,mp-767538
Na7Y3MgSi3(SO8)3,3.4751,-2.732122297572891,mp-2714072
CeB4ClO8,0.0,-2.732090382619048,mp-1193133
Ta2TlO6,0.0,-2.732068210333335,mp-38212
MgCuF4,1.0769,-2.731924700000002,mp-1412709
Na2Y2Nb2Si3(SO8)3,0.748,-2.731848997275702,mp-2713501
Ca4Al2P2H10O13F8,5.421900000000001,-2.73170999260989,mp-1204548
Na2La3Nb5Si6(SO8)6,1.4009,-2.731602138182266,mp-2713869
NaNbGa(PO4)3,2.5568,-2.731499839600439,mp-2713768
Mg3Si4(SbO7)2,1.9461,-2.731484702173912,mp-1249986
KTi2BiO6,1.377,-2.7314645183916673,mp-1223218
Na3UO4,0.1241,-2.73135845926724,mp-34842
Na7MgSc3Si3(SO8)3,3.8061,-2.731352777288338,mp-2714190
CsLiTa(PO4)2,0.0956,-2.731144745354426,mp-1235123
Rb2LiTlF6,3.4666,-2.730992243166667,mp-1113693
RbInF3,2.4848,-2.730951067833332,mp-1110662
Na5Ca2Sc2P3(SO8)3,3.6361,-2.730752265127994,mp-2714777
TiPbO3,1.812999999999999,-2.730589785666664,mp-20459
KNa2Ga3(SiO4)3,3.963199999999999,-2.730581326309935,mp-1211711
KNb13O33,1.5036,-2.7305647187765962,mp-1211721
Na6Ca4Nb20Si21(S5O48)3,1.259999999999999,-2.730564536717981,mp-2715662
Na8Sc2Si5Sn2SO24,2.9492000000000003,-2.7305000691714563,mp-2715578
CsSi2SbO7,3.401799999999999,-2.730482914211076,mp-581955
K6Ta3O8F13,0.0,-2.730479728349999,mp-1205026
Ba2SrTeO6,3.129199999999999,-2.730477315666667,mp-13356
YO2F,0.0,-2.7303877649999992,mp-1215963
KLiMg14O15,2.6100000000000003,-2.730287503405914,mp-1034028
TiClO,0.0,-2.730120467777778,mp-22992
La2Cd(SeO)2,1.9843,-2.730072754955357,mp-1211284
Na30Ta16Zn8Si27(SO16)9,1.9532,-2.730032609770139,mp-2714222
Mg14AlCO16,0.417099999999999,-2.73002129703125,mp-1036461
Y3NbP2(SO6)4,2.3222,-2.73000903517507,mp-2713121
SrCdB2O5,3.530599999999999,-2.72994762870371,mp-1195626
Na10Nb4Si11Ge4SO48,2.5239000000000003,-2.7297869024952113,mp-2716411
Na2NdPCO7,4.5702,-2.729715381241789,mp-767606
Ba2Nd4Mg(CuO5)2,0.5174000000000001,-2.72957244868421,mp-2231603
CsHfMg14O15,0.1408,-2.729511297246941,mp-1098087
Na2CaZr3Si2(SO6)4,1.9857,-2.729484333965518,mp-2712626
CaZnF2,2.1738,-2.729452889374999,mp-1214021
ZrTiO3,0.0,-2.729424507666666,mp-1183045
NaCaCeSbO6,2.0266,-2.72941293413793,mp-1521478
Na7TaSi6(SnO8)3,2.9212,-2.729325516471265,mp-2713052
Mg3Si4(BiO7)2,2.6188,-2.729298733260869,mp-1264854
Cs2ZrO3,3.8566,-2.729279389051728,mp-8759
BaZn2(PO4)2,4.0373,-2.729195811098901,mp-6089
Na21Mg10Ta2P15(SO24)3,2.7995,-2.729179611429065,mp-2716092
La3NbP2(SO6)4,2.3312,-2.729041297086835,mp-2713076
K2CePCO7,0.135599999999999,-2.72886538742857,mp-772782
Eu3OsO7,0.0,-2.728843356363639,mp-561983
Na6Ca4Ta8Si9(SO8)9,1.7194999999999991,-2.728813902263357,mp-2713442
LiAlPO5,0.290799999999999,-2.728732819747024,mp-1211159
Na5Y2In2P5SO24,3.4166,-2.728567017460107,mp-2714967
LaAg(PO3)4,3.7647999999999993,-2.728553837374338,mp-558465
CaAl2Si2(H2O5)2,5.187200000000001,-2.728540174736842,mp-24603
Na6Y4Sc4Si3(S3O16)3,3.1008,-2.728513210078053,mp-2713911
NaLa4PS5O24,3.4331,-2.728512628767301,mp-2714253