formula,bg,formation_energy,mp-id
TaGaSi(SO6)2,2.8792,-2.3945025460686282,mp-2713344
Sr2PdO3,0.2353,-2.394458980833334,mp-4359
Na6Mg4SiS5O24,3.6976999999999993,-2.394277695561064,mp-2713967
NaTiInSi(SO6)2,1.6137,-2.394268863780332,mp-2712697
LiSiO3,0.0,-2.394241709666666,mp-1185414
GdH2ClO2,3.0368,-2.39419823375,mp-1101836
Mg3Bi2(PO6)2,0.0,-2.394119167330828,mp-1380389
Ba5LiGaN3F5,1.3588,-2.394112819722222,mp-1199258
TlBiF4,2.2336,-2.3940643525,mp-674849
CsLa2Br7,3.4023,-2.394039300965521,mp-1213600
Ba2CdP4(H3O8)2,4.4355,-2.394019431416255,mp-1199629
Nd(ErS2)3,1.024799999999999,-2.394001295437499,mp-1189069
LiCa2TeO6,0.0,-2.393955148,mp-1211115
SrTiCu4P4O17,0.0,-2.393835467292769,mp-1195138
NdLuS3,0.805199999999999,-2.393805068520831,mp-1080801
MgTiAs2O7,3.111499999999999,-2.393779653257576,mp-1042457
Pr(ErS2)3,1.014399999999999,-2.393720722354166,mp-1105696
NaCaDySeO6,2.246199999999999,-2.393694771538972,mp-1522311
RbSr2Br5,4.279,-2.393687145000002,mp-1209189
La20Ti11(S22O3)2,0.285099999999999,-2.39365276909465,mp-662600
Na4Nb2Zn2Si3(SO8)3,0.434199999999999,-2.393621189333787,mp-2713316
HgSb3XeF17,2.5858,-2.393317384090909,mp-559509
Na3Mg3Sc(SO4)6,3.889199999999999,-2.393248557904629,mp-2715018
Na7Zn3SnP5SO24,2.7558,-2.393147157448036,mp-2716010
EuBr2,1.045799999999999,-2.393062800000004,mp-23311
NaCa(PO2)3,3.000099999999999,-2.393012763209806,mp-727391
Na4Mg3SnP2(SO6)4,2.2344,-2.392847426266744,mp-2713187
Na6Ca7Sn(SO4)12,2.2256,-2.392792015089314,mp-2715074
Na7Mg2Zn2P3(SO8)3,3.982199999999999,-2.392791015595539,mp-2714610
Sm2Pt2O7,1.047599999999999,-2.3927093822727272,mp-756148
CaIn2O4,2.020799999999999,-2.392656165476187,mp-22766
Pb7(ClF6)2,4.2229,-2.392628339761905,mp-27581
CaTi2(CuO4)2,0.5975,-2.392578074166666,mp-1040989
In2P6O19,0.4106,-2.39250797893298,mp-726514
Tb2EuS4,0.455,-2.392403860178571,mp-1173110
Mg6NbSnO8,1.6159,-2.392361992812499,mp-1031492
K2Sn2OF6,0.0,-2.392216663136364,mp-732277
NaSn4P5SO24,2.0967,-2.392065865583626,mp-2716260
Ca2Bi2O5,2.516,-2.391840418518519,mp-28848
PaSiO3,0.0,-2.391746251,mp-1186401
PrLuS3,0.784999999999999,-2.391663875354166,mp-1078537
K2RbYCl6,4.4925,-2.3916110282,mp-1110714
Na4InGaSi2SO12,3.1024,-2.3915517756595532,mp-2714529
Sm9(SbO)5,0.0,-2.391459268684212,mp-561233
Na3GaSi2SnSO12,2.460999999999999,-2.391448087373564,mp-2714340
Sr2CuGe2O7,0.0,-2.391299852083332,mp-17265
Ba2RuO4,0.0,-2.391290938571427,mp-1025237
TmAu2F9,1.8684,-2.391115420208333,mp-14761
K2CuAsF6,0.978,-2.3910848862,mp-1112251
Na9TaZn5P6(SO12)3,3.484199999999999,-2.391054593085071,mp-2712694
SbPH2F10,5.2435,-2.390997800510205,mp-1198502
Cs2BiAuF6,1.236899999999999,-2.390757534931035,mp-1113148
Sr4CaYGa2(Cu2O7)2,0.0,-2.390712942884614,mp-1218546
Tb2S3,0.579299999999999,-2.3906826406875012,mp-9323
Na6Al4Si5Sn4S7O48,1.8384,-2.390676356001476,mp-2715986
Rb3ScCl6,4.080999999999999,-2.390593515749992,mp-1110692
YbCeS3,0.0973,-2.3905657686875,mp-1079021
KCd6P7O24,3.072,-2.390468040914473,mp-16382
K2PHO4,4.6712,-2.39040702088244,mp-733468
K8Li31Al8O32,0.0,-2.390397095586497,mp-1185277
LiGd(SO4)2,2.6325000000000003,-2.390302931527777,mp-1211108
LiLu(SO4)2,5.7573,-2.390283287916666,mp-1245342
Ba4Dy(CuO3)3,0.0,-2.39018233333338,mp-1214524
Si9C4NO18,1.5669,-2.390059846718751,mp-727207
Na42Nb8Zn16Si21(S5O48)3,0.9252,-2.390051428985493,mp-2715798
Sc2(TeO3)3,3.4061,-2.389889576250001,mp-1195567
BaBi6(PO5)4,3.427599999999999,-2.389789524470047,mp-554084
Tl2SbF5,3.6463,-2.389703741458336,mp-1208164
K2Ca(CO3)2,4.353400000000001,-2.389662173136364,mp-6494
Mg6CuBiO8,2.144100000000001,-2.38964873375,mp-1032201
Rb7Nd11Te12(Br4O9)4,3.1077,-2.389606656402438,mp-1195449
Sr(NdS2)2,2.2662,-2.389421105892856,mp-37108
Na5Zn2Sn2P5SO24,2.1997,-2.389360773870364,mp-2715146
ThBO3,0.0,-2.389358026833333,mp-1187416
Rb2TlCuF6,0.0,-2.389293845833334,mp-1113791
Na14Zn2Si9Ge6(SO16)3,1.8193,-2.38923755424972,mp-2714860
Ce2ThS5,0.0,-2.389223496757807,mp-1201912
Zn3Si4(SbO7)2,1.7516999999999991,-2.38915353847826,mp-1254678
Sr(CeS2)2,0.0,-2.389062606607146,mp-33392
RbScAs2O7,3.5429,-2.389020301590909,mp-554223
Mg6GaBO8,1.841199999999999,-2.389015734791666,mp-1033258
Na8HfZn3Si3(SO8)3,3.168199999999999,-2.3890026165920912,mp-2715033
Ga10Si2O19,2.2561,-2.388993646129031,mp-768931
PrBi2ClO4,1.1244,-2.388985133958334,mp-553082
K2RbGdCl6,3.2314,-2.388967057199999,mp-1111214
BaNaLaSeO6,2.0473,-2.388825491872306,mp-1517423
NaCdPO4,2.9173,-2.38876374228888,mp-6684
Sb2P5O16,0.105599999999999,-2.3887565094875782,mp-25946
Na3LaMg3(SO4)6,4.4478,-2.388752737273999,mp-2714929
LiNb8O10,0.0,-2.388641615175439,mp-772215
Na10Sc4Zn4Si3(S3O16)3,3.2155,-2.388539863050766,mp-2714808
Na6Mg8Nb4Si3(S5O24)3,0.0,-2.3884722475071842,mp-2714430
Nb13(Pb3O10)5,0.0,-2.388449496153846,mp-1211606
Al4Cu2O7,0.0,-2.388443480384614,mp-29225
Na6Mg2Si3Sn2(SO8)3,0.7509999999999991,-2.388397398269397,mp-2716259
Na12Mg10Nb2Si3(S5O24)3,1.066599999999999,-2.388394342974138,mp-2713377
TiSF,0.0,-2.388366879166666,mp-1013939
NdTmS3,0.638999999999999,-2.388258648937497,mp-1197152
Ba2ErZn2CuO7,0.0,-2.3882173080769222,mp-1214708
Ba3Te2O9,2.381599999999999,-2.3881671898809542,mp-17009
BH2OF3,7.567699999999999,-2.387841855952381,mp-707009
AgSb2F12,0.5397999999999991,-2.3875121401111112,mp-14653
TaRhO4,0.9714,-2.387292706222222,mp-760402
CeTmS3,0.0,-2.3872500379374992,mp-541836
SbP2O7,2.2876,-2.387248134428595,mp-541668
Ba7Ru4Cl2O15,0.0,-2.387151570178571,mp-554143
Sr3ZnPtO6,2.566099999999999,-2.387038907272727,mp-6730
Sb2IF15,3.907,-2.387006293472254,mp-27212
CaEuZnSbO6,0.0,-2.3869973705,mp-1519008
Y2Hg2O5,1.0656,-2.386983860277778,mp-769289
Ti2Zn2O5,0.0,-2.3869786896296312,mp-1374093
Eu2SeS,0.0,-2.386894502968751,mp-1225299
NaSrSmSeO6,2.0883,-2.386717983872306,mp-1517453
Tb5S7,0.0,-2.386663819973959,mp-1095641
Li3Cu2P5O16,0.300899999999999,-2.386644062815933,mp-25871
CaTi(SO4)3,2.2441,-2.386480012009804,mp-2713742
KHfSnBiO6,1.003299999999999,-2.386427592225,mp-1518906
Ca2InOsO6,0.169499999999999,-2.386334243166666,mp-1188515
Cs2LiTmCl6,5.2527,-2.386300208166665,mp-1112998
Sr(SbO3)2,2.7881,-2.3862711166666672,mp-9126
Ba2NaOsO6,0.0,-2.386168429137932,mp-22442
Sr(PrS2)2,2.257199999999999,-2.3860417106547622,mp-38240
PrTmS3,0.648099999999999,-2.386009392020832,mp-1201800
Na14Al4Zn4Si5S7O48,3.308299999999999,-2.385976755672485,mp-2715848
LuAu2F9,1.9441,-2.385973198819444,mp-14802
Na14Mg4Ga4Si5S7O48,2.7202,-2.385965176851346,mp-2716068
Ba2NaMgReO6,0.0,-2.385960863534483,mp-2217618
Na4TaIn3Si3(SO8)3,2.761199999999999,-2.385800302596945,mp-2713617
K5NaP3(HO4)3,4.7866,-2.385648334908662,mp-707453
KHg(PO3)3,3.204399999999999,-2.38562078329847,mp-14469
BaMg6SiO8,3.537699999999999,-2.385510597499999,mp-1030830
CeLuS3,0.0,-2.3854741760208302,mp-1092225
NaCa3Nb(SO4)6,0.204999999999999,-2.385367607801314,mp-2714853
Na7CaGa3Si3(SO8)3,2.587499999999999,-2.385321362227362,mp-2714210
Nd2NCl3,3.3441,-2.385288347708332,mp-28970
Na2NbAsO6,3.1214,-2.385238387025862,mp-559968
GdBi2BrO4,1.023199999999999,-2.385056775625001,mp-562809
Na6Mg3Si2Sn(SO6)4,1.908799999999999,-2.38496090504023,mp-2712579
Ca(CeS2)2,0.0,-2.384885335178574,mp-33560
LiNd4(RhO3)4,0.0,-2.384885138253967,mp-1235273
Na3LaSi3Sn3(SO8)3,1.4485,-2.3848791349541782,mp-2714637
CsUP2(HO4)2,0.147,-2.384761917245776,mp-1199474
Na3In2Ge2P5SO24,0.5778000000000001,-2.384736727608619,mp-2715980
Li2TiCuO4,0.107899999999999,-2.384689698750001,mp-754664
Li2Cu(PO3)3,1.170499999999999,-2.384631119539683,mp-849327
KCaYSeO6,2.0489,-2.384621285959375,mp-1517045
Mg6TiCO8,0.153999999999999,-2.384580153020833,mp-1031354
KCa4Si8O28F,0.2732,-2.384455678982143,mp-1181193
Ba2CuGe2O7,0.196299999999999,-2.384455024999999,mp-22067
Pr2MgCuO4,0.0,-2.384438464791666,mp-2222855
PrErS3,0.6393,-2.384397188187498,mp-1199144
MgZnO2,0.0,-2.3843073212499992,mp-1221905
GdP4H4NO12,3.467199999999999,-2.384276064594155,mp-560412
Sr6Ir2RuO12,0.0,-2.384233316666666,mp-1218532
NaCaLaSeO6,2.403299999999999,-2.384227164872306,mp-1521407
Ba6Ru2Pt(ClO6)2,0.122799999999999,-2.3841813169565222,mp-554949
KSrNdSeO6,1.9635,-2.384047295709374,mp-1517988
LiSi6Bi9O26,3.119099999999999,-2.383979102817461,mp-772721
Sr2CuCO5,0.0,-2.383950875000001,mp-1198030
Na5HfZn3P3(SO8)3,3.807399999999999,-2.383943382820302,mp-2714701
Na5TiIn3Si3(SO8)3,1.8518,-2.383934555027263,mp-2716327
Bi(PO3)4,0.0,-2.383835097268907,mp-504355
Cs2LiLaCl6,4.4927,-2.383809663916666,mp-1112681
Eu(YS2)2,0.453599999999999,-2.383789080178537,mp-38971
LiLaO3,0.0,-2.383744674666666,mp-1185357
NaCaTbSeO6,2.236399999999999,-2.383711501038972,mp-1516455
Li2SiSnCO7,3.4792,-2.383577570138888,mp-770647
SmBi2BrO4,1.278299999999999,-2.383572875,mp-550111
Nd(LuS2)3,1.034799999999999,-2.383524901437496,mp-1189434
SrGePbO4,3.4863,-2.383506149999999,mp-1192743
Na2Al8SiS11O48,3.2132,-2.383370304456076,mp-2714245
NdCuO3,0.122999999999999,-2.383346918999999,mp-1173386
KSr2Br5,4.233,-2.383279981531249,mp-1211375
KCaP3H4O11,5.4102000000000015,-2.383245658683928,mp-706367
BaTh2S5,1.735999999999999,-2.383212996562498,mp-1195483
Na2Nb4In4Si5S7O48,1.214799999999999,-2.383147826789409,mp-2716165
Hf2Ga2SiS5O24,2.9724,-2.383101554877452,mp-2713105
NaYSiGe(SO6)2,0.544299999999999,-2.383097266650704,mp-2712557
Na2CuP2O7,0.4979,-2.383092748087028,mp-6467
MgF3,0.0,-2.3830391356250002,mp-1185862
Rb3P3O10,0.9204,-2.382940656964286,mp-1204746
Cs6Si2O7,3.162099999999999,-2.382873220862069,mp-18315
Na3GaSi2GeSO12,2.147999999999999,-2.382872256956897,mp-2714437
Sr2SeS,2.2889,-2.382859880468748,mp-1218707
Ca2B5H7O13,5.7199,-2.382833873317901,mp-1197116
Ba2LiTeO6,0.0,-2.382827871,mp-1214633
RbEu(SO4)2,0.0,-2.382658171875,mp-556821
Y2S3,1.5992,-2.382647370687501,mp-541289
Ba5Y3Br19,3.4194,-2.38264081537037,mp-861730
NaSi2(HO2)3,5.1897,-2.382633038969109,mp-697027
BaAl2Si3(NO)4,3.5521000000000003,-2.3824693942857142,mp-1019531
Rb2Te2O2F7,0.5386000000000001,-2.382367942948718,mp-728416
Na10La4Zn4Si3(S3O16)3,2.948,-2.382344844546493,mp-2714667
KZrSnSbO6,2.7769,-2.382344117225,mp-1516231
KErP2O9,0.018199999999999,-2.382332886848901,mp-1203958
Pr(LuS2)3,1.019299999999999,-2.382202535854165,mp-1189644
BaNaSmSeO6,1.8646,-2.382095805872306,mp-1517581
P2RhClF6,1.440899999999999,-2.3820174943035712,mp-559115
K3Ce(AsO4)2,0.368499999999999,-2.381903766196429,mp-1211778
LaNbO2,0.0,-2.3818824687499998,mp-1211479
K2PdF6,2.0399,-2.381861047166666,mp-7979
Rb2TlRuF6,0.0,-2.3817422508333332,mp-1113854
HfMg6BO7,0.3348,-2.381739400944444,mp-1033374
Na4SiO4,3.2221,-2.381574120057471,mp-7500
Mg3Ti3(AsO4)4,0.2153,-2.381570689423077,mp-1350689
SrEuSeS,0.0,-2.381548441718749,mp-1218270
Rb2HgAsF6,0.0,-2.381527555500001,mp-1112408
Sr5(BiO4)3,0.0,-2.3815041635,mp-33444
CsReF8,1.7181,-2.381502616749999,mp-29842
K2Mg2(SO4)3,5.6845,-2.381485589710526,mp-6299
Nd4CuTe5(ClO5)3,1.4914,-2.381394771011904,mp-683957
CdB10H6O19,4.497,-2.381356746296296,mp-1195283
Na6Mg4Al4SiS11O48,4.3498,-2.381292920190666,mp-2713714
K2LiP3O10,0.5922000000000001,-2.381223760578869,mp-1200222
Na2Y2In2SiS5O24,0.6079,-2.381220568618295,mp-2714359
Sr4Tl2CO9,1.347299999999999,-2.381200595416668,mp-1218552
Tl2InGaF6,2.3602,-2.381190492083334,mp-989555
Na2InAgF6,1.0817,-2.38118393333333,mp-1111326
Sr2YBi2O7,0.0,-2.381165786666667,mp-1048315
ZnSiPbO4,3.1964,-2.381144441607142,mp-21724
Tm2S3,2.3929,-2.3810565144375,mp-18529
Rb6LiNd11Se12(Cl4O9)4,3.113299999999999,-2.381037219560466,mp-607785
SrTeO3,3.6116,-2.381025315,mp-972117
Ce(LuS2)3,0.0,-2.380998213687499,mp-1105574
Na2Si2Sn2SO12,2.603799999999999,-2.380851151855717,mp-2712631
Ca(TbS2)2,2.1434,-2.38068118482143,mp-38327
Ca(NdS2)2,2.235,-2.380678228035713,mp-35876
Li3Bi2(BO3)3,3.478899999999999,-2.380669070441177,mp-768798
Ti3ZnSiS5O24,1.7451,-2.380618832181373,mp-2713008
Sm(ErS2)3,1.0887,-2.380271892999999,mp-13283
LaMg2TiO6,0.0,-2.3801777908333333,mp-1206537
KSrTbBiO6,0.0,-2.380144693891667,mp-1521832
NaTbCl4,4.7179,-2.380106362500001,mp-1209961
Na4Ca3SiGeS5O24,1.3732,-2.380050301175893,mp-2713145
Li2Mg2(SO4)3,5.873299999999999,-2.3799753090350872,mp-14646
K2Be2O3,3.2855,-2.3798153499285712,mp-754587
Na10TaGa7Si6(SO8)6,3.069,-2.379790211093501,mp-2716450
Ba3CaIr2O9,0.0,-2.379766347999997,mp-17448
Dy2S3,0.593799999999999,-2.379733143187499,mp-1270
Na2Mg3Zr(SO4)6,2.0692,-2.379699564891444,mp-2714179
Ba10Ge3C3O26,0.0,-2.379685521428572,mp-1229247
HfMg6CO8,0.5888,-2.379556366562499,mp-1033280
LiSb2(PO4)3,2.104899999999999,-2.379534400403438,mp-684508
Ba4Y(CuO3)3,0.0,-2.379512943235294,mp-643409
Na3Mg8Nb4P3(S5O24)3,2.1887,-2.379483754195872,mp-2714308
VPPbO6,2.2898,-2.379480915515872,mp-505688
NpHgO3,0.0,-2.379468141250002,mp-1186320
La2Bi4O9,1.739099999999999,-2.379448334333334,mp-753102
Dy5S7,0.0,-2.379324841223957,mp-1103125
TiF6,2.9814000000000003,-2.379295843333333,mp-1209717
Ba6Bi2(TeO6)3,2.0681,-2.379262576206897,mp-1228122
Na2Hf2Zn2SiS5O24,3.0217,-2.379242994081258,mp-2715569
Rb2Mg2(SO4)3,5.6159,-2.379198236447368,mp-1209620
CsTlF4,2.7921,-2.379133330416664,mp-1541564
KLuO3,0.0,-2.379096527783333,mp-1184941
Na2AlGaSi(SO6)2,3.7463,-2.3790669940487,mp-2713544
SrLa(RuO3)2,0.0,-2.378971543,mp-1218253
Na3La(AsO4)2,3.6521,-2.378914804759851,mp-1211118
RbTeHOF4,4.8825,-2.378894717864583,mp-698479
LiGaO2,3.1981,-2.378874777083333,mp-5854
Na2Y4Si3Sn4(S3O16)3,0.4687,-2.3788086519084573,mp-2716366
SmGdS3,0.6825000000000001,-2.378693279499997,mp-1219055
LiMgAsO4,3.552599999999999,-2.378664632619047,mp-8870
AlZnH4O2F5,5.0839,-2.378578509615384,mp-23768
Y5S7,0.0,-2.3785692108072922,mp-15670
InSb3(PO4)6,2.5289,-2.3784556442507,mp-1224667
LiSb2P3O11,3.4862,-2.378404791603641,mp-759444
TePbF6,4.6038000000000014,-2.3783610934375012,mp-29178
Sr3CaIr2O9,0.0,-2.378208411333334,mp-1195131
Na8ZrZn3Si3(SO8)3,3.056899999999999,-2.378155258734949,mp-2715211
Cs3Sc2Cl9,3.9353,-2.377844639107142,mp-637194
NaY2In2PS5O24,2.7157,-2.377823289053014,mp-2714035
MgAs2S2(OF3)4,3.5869,-2.377822858452381,mp-555121
NaAlSiO5,0.0,-2.377814288297414,mp-1210055
Li6Ag3F10,0.0935,-2.377792166447371,mp-760133
Rb2Be2O3,2.455,-2.377723397857143,mp-755752
K4TiO4,3.1454,-2.377695598037035,mp-756510
BeAgPO4,2.8716,-2.377695446496598,mp-15919
In2P2O7,3.6658,-2.3776922391017252,mp-17100
Cs4CuSi2O7,0.5831000000000001,-2.377665138830027,mp-561495
K2Ti(GeO3)3,2.8409,-2.377613964855555,mp-680158
Ca2B3ClO8,0.0913,-2.377465828928571,mp-1214203
Na2CaInP(SO6)2,0.498,-2.37742130047727,mp-2713362
Er2ZnTe2(SO7)2,3.9585999999999992,-2.377382144206348,mp-1190377
K2TlCuF6,0.0,-2.377329549783334,mp-1112168
Cr2Fe3Sn(PO4)6,0.029199999999999,-2.377302975079365,mp-1178427
Hf5N5O2,0.0,-2.37717903875,mp-761032
NaLaSiGe(SO6)2,0.8395,-2.377045552576629,mp-2712688
NaSrLaSeO6,2.234899999999999,-2.377003094872307,mp-1522549
Li4Cu3F10,0.187899999999999,-2.376950572156861,mp-758101
Mg2P2H4O9,5.2013,-2.376919200693278,mp-1211337
Ba(SbO3)2,2.8606000000000003,-2.376879317777779,mp-9127
Na2Ga2P2SO12,3.7335,-2.3768583053268952,mp-2713575
Cs2KGdCl6,3.2188,-2.376788072874999,mp-1113049
Pr4(YS2)11,0.0,-2.37676545590658,mp-1197117
Hf2In2SiS5O24,2.230299999999999,-2.376749849142157,mp-2712889
MgTiPbO3,0.0,-2.376655937222221,mp-2227436
KNaP6(PbO3)8,3.3234,-2.376625910662161,mp-1223429
Nd2S3,0.759599999999999,-2.376582331687498,mp-438
Na10Ca4Si5Sn4S7O48,0.5012999999999991,-2.376567874995212,mp-2715136
Sb(PO3)4,1.6871,-2.3765327496218482,mp-1045606
Na6Ca7Ge(SO4)12,2.1405,-2.376525970990215,mp-2714981
Na10Ca2Si7Ge6S5O48,1.2321,-2.376464412495212,mp-2715912
Ho2S3,1.461299999999999,-2.376410549020833,mp-878
SmNbO2,0.0,-2.37635133375,mp-1208971
Dy2ZnTe2(SO7)2,3.9594,-2.376287267698412,mp-1190527
Ba8In8O19,1.455,-2.376217413666667,mp-757574
CeB7IO15,0.2577,-2.376168655173611,mp-1200378
Mg6ZnBiO8,0.3975,-2.376152199999999,mp-1032565
Li2P2PdO7,1.188799999999999,-2.376041610079364,mp-616572
Li4ZrNb(TeO6)2,0.0,-2.375988595333333,mp-756177
SnF2,3.2704,-2.375956695416668,mp-2843
Sr3Ca3(Ru2O7)2,0.0,-2.375824036249999,mp-1218638
Ho2ZnTe2(SO7)2,3.9851,-2.375763820396824,mp-1190350
KZn2P2HO8,3.9897,-2.37575792162755,mp-1193724
Ba2Ga11BiO20,2.986999999999999,-2.375724742132354,mp-1228575
Na3InSi2SnSO12,2.040399999999999,-2.375723540248564,mp-2714449
InOF,1.330699999999999,-2.375712292222223,mp-27175
Cs7Cu6F19,0.516999999999999,-2.375711369999999,mp-573073
Ba(NdS2)2,1.6426,-2.375684078571425,mp-866306
Np3Se3O13,0.0,-2.375638064120068,mp-680712
Sm2EuS4,0.4663,-2.375634292857145,mp-675037
SrSbO3,0.0,-2.375606296999999,mp-1187192
NpSeO5,0.1876,-2.375592801584823,mp-1103836
Rb6LiPr11Se12(Cl4O9)4,3.073399999999999,-2.3754562717047762,mp-645405
RbZn2P2HO8,3.9293,-2.37537065057398,mp-24683
KAl2P2H4O11,0.5065000000000001,-2.375107204826785,mp-1256014
Sr5Li25La7(BiO6)8,1.9255,-2.375102076218639,mp-686736
Sr2YCu2SnO7,0.0,-2.375008713076922,mp-1046186
Ba2Er2Zn8O13,1.392,-2.3750034018,mp-1228586
BaAl3(PO7)2,0.024299999999999,-2.375000770964285,mp-1214480
Ba3MgIrRuO9,0.0,-2.374777702000001,mp-1228263
NaDyCl4,4.7644,-2.374734739999999,mp-1210040
LaScS3,1.6446,-2.3746394016875,mp-1190131
KB5(H2O5)2,6.1032,-2.374437974529166,mp-1199251
LiSb4P7O24,3.384799999999999,-2.3743836087731482,mp-759607
Ca5(Si3O11)2,0.274999999999999,-2.374325061515152,mp-1199479
Nd2C(NO)2,3.7725,-2.374288112857143,mp-9498
NaCaYSeO6,2.229,-2.374238006372306,mp-1518247
Na7MgGa3Si3(SO8)3,2.9585999999999992,-2.374084930723298,mp-2714249
NaTmCl4,5.089399999999999,-2.3740253675,mp-1209998
KEu(CO3)2,0.0,-2.373958430724998,mp-1211491
Ba3NaIrO6,0.0,-2.373929211943573,mp-9746
Na18Mg20Ta4Si3(S11O48)3,1.053599999999999,-2.373900055367842,mp-2713636
Rb2CaNb2(TeO6)2,2.4418,-2.373870545701754,mp-1233618
NaCu(PO3)3,0.6456000000000001,-2.37384241734342,mp-761042
LiSb(PO4)2,1.918699999999999,-2.37364516563492,mp-774064
MgCuPO4,0.7896999999999991,-2.3736336028061222,mp-2225309
Na2MgGeO4,3.2678000000000003,-2.373618289094827,mp-1210431
Na7Zn3GeP5SO24,2.2888,-2.373479972651288,mp-2716056
AlPO5,0.065699999999999,-2.373477924948979,mp-1193321
NaP3(PbO3)4,3.306499999999999,-2.373474719015393,mp-690977
YSi2Ag3O7,1.3627999999999991,-2.3734600212820522,mp-1207721
Na3Ca3GePS5O24,1.4217,-2.373399566160742,mp-2713224
BaCu2(PO4)2,0.3255,-2.373385887060439,mp-654359
Na3Y(CO3)3,5.0193,-2.373256216821118,mp-1194479
Na2TiZnSi(SO6)2,1.5062000000000002,-2.373248909267998,mp-2713578
K2P2PdO7,1.1969,-2.373244744273808,mp-1224154
ZrH6(OF3)2,6.0184,-2.3732011365,mp-1192835
Zn3(PO4)2,3.4214,-2.373133279945054,mp-557920
Na2BeGeO4,3.7058,-2.373014318469827,mp-18197
Li2SbSO4F3,4.4629,-2.37296680560606,mp-769153
CsZn2P2HO8,3.9656,-2.372955266442205,mp-699213
Ca(PrS2)2,2.057,-2.372946218511903,mp-34185
P3Pb5O12F,3.7236,-2.372924274948979,mp-21554
Na2Sc4Si3Sn4(S3O16)3,1.2476,-2.372908762003696,mp-2716562
LiScAs2O7,3.451899999999999,-2.372905768939393,mp-552663
MgSb2(PO5)2,2.2659,-2.372765404285715,mp-2228722
Na2Y2Ga2SiS5O24,1.387,-2.372718744868296,mp-2715585
Cs3TmCl6,4.7921,-2.372692741249997,mp-1112342
SmB7(HO2)8,5.7436,-2.372665259505208,mp-1199202
Sr2MgCu(OF)2,0.0,-2.372563876875,mp-2228288
BaYCuSbO5,0.0,-2.372467702777778,mp-1042151
Sr2MgGaSbO6,0.070399999999999,-2.3724391256818183,mp-2222770
NaZnP2HO7,4.495,-2.372426702659584,mp-23799
Na3SO4F,5.3459,-2.372412250922732,mp-560222
Ba3Na3(CO3)5,0.007099999999999,-2.372395486697613,mp-1214668
Na6Al4Si5Ge4S7O48,1.4261,-2.372229738929404,mp-2715944
Na6Mg3Si2Ge(SO6)4,1.7103000000000002,-2.372207995206897,mp-2712786
CaMg6CO8,3.7311,-2.372120526562499,mp-1031708
Na14Ga8Si7S5O48,2.8537,-2.372093051952972,mp-2715795
CaSi3SnO11,1.0011,-2.371948639218749,mp-1182049
Na3Bi(P2O7)2,0.0,-2.371938219441334,mp-759684
MgAlSbO4,0.3162,-2.371845797857143,mp-2226774
NaAl2Ge2P3(SO8)3,2.3507,-2.371834713365939,mp-2716431
NaYCl4,4.6098,-2.371705340833333,mp-1209960
TiBi2O5,2.736,-2.371655990416668,mp-752676
KTeHOF4,5.0324,-2.371652221895833,mp-555202
La2Pt2O7,0.8203,-2.371595123181819,mp-755026
Ba4Nd(IrO4)3,0.0,-2.371594289374999,mp-1214660
Na3Y2Zn2PS5O24,4.1456,-2.371570521340923,mp-2713626
NaTaGa3P3(SO8)3,2.8189,-2.371566196504035,mp-2716410
NaAlGaP(SO6)2,4.1605,-2.371541880010491,mp-2715765
NaErCl4,4.9964,-2.371451195555556,mp-29083
K2MgNb2P2(CO7)2,0.0474,-2.371334016903726,mp-1234075
Sr2GaSn2O7,0.2338,-2.371302992291666,mp-1048064