formula,bg,formation_energy,mp-id
Na3Y2Sc2P3(SO8)3,4.1445,-2.86189885875405,mp-2713970
TbSbO4,2.3405,-2.861850808611112,mp-1208460
Na10La4Zr4Si7S5O48,2.7817,-2.861836906683246,mp-2716065
NaZr2Sc2P3(SO8)3,3.3873,-2.861731575842131,mp-2716288
SmTiNbBi2O9,2.722,-2.86172069809524,mp-1219101
Na7Ca3HfP5SO24,4.2465,-2.8616538424480362,mp-2716075
Ba4B10Cl2O19,0.0,-2.861611105761904,mp-1194958
NaBePO4,5.8139,-2.861572749074596,mp-6392
Ba2TmCl7,4.9744,-2.861532144499999,mp-1214625
Na3Mg4Ta8P15(SO24)3,2.6704,-2.861397513189976,mp-2716238
Mg30SiSnO32,1.7932,-2.861254151953124,mp-1036665
Na6Sc3NbSi4(SO12)2,2.2025,-2.861222178706897,mp-2714476
Ba5La2Cl16,4.2391,-2.861193770869565,mp-772019
RbAlO2,3.3716,-2.861165701874999,mp-14070
SrPO4,0.0,-2.861060395357142,mp-732156
RbNaMg30O31,3.0227,-2.861030197204433,mp-1039846
GdTiNbBi2O9,2.6544,-2.860998744880954,mp-1224654
HfMg30SbO32,0.0,-2.86098179171875,mp-1038355
Na2Er2B2TeO10,2.9645,-2.860859714868154,mp-1195435
Y2Si3(SnO4)3,2.2625,-2.8608498553749993,mp-1154662
KMg30BO31,1.9818,-2.860800436212963,mp-1040287
Na8Ca3Ti(PO4)6,1.3776,-2.860745894021229,mp-2715058
CaMg14SiO16,0.7162000000000001,-2.860677337499999,mp-1036298
Hf2Si(SO6)2,4.5141,-2.860605034607843,mp-2713341
Rb2Ti3(P2O9)2,0.0,-2.860581750502647,mp-1199924
NaMg14SiO16,0.642699999999999,-2.860526129418103,mp-1034646
Ca2LaRuO6,0.428499999999999,-2.8604681265,mp-1227569
Na4LaYSi2SO12,3.531799999999999,-2.860222112127806,mp-2714384
SrLaGa3O7,3.2781,-2.8601308252083313,mp-1218197
Nb5P7O30,2.585,-2.86010181577381,mp-654301
Na10Sc6Ta2Si7S5O48,2.9659,-2.8599841622558952,mp-2714100
RbUSO6F,2.2159,-2.85996105125,mp-560102
NdAlGe2O7,3.5773,-2.859952355909091,mp-6016
CsMg30BO32,3.376399999999999,-2.859895494200341,mp-1039625
Na30Ca8Ta16Si27(SO16)9,2.123599999999999,-2.859803651009456,mp-2714201
K3ErSi3(HO5)2,4.9166,-2.859767565355263,mp-758527
Na3Nb3InSi3(PO8)3,2.3436,-2.8596535984162132,mp-2712871
Na8Ti5O14,3.5058,-2.859622532877819,mp-28017
La2AuO4,0.0,-2.8594359000000003,mp-1232326
Na3MgTi(PO4)3,2.2633,-2.8593887004449923,mp-2715434
Y2US3O2,0.0,-2.859158207812497,mp-1216075
Nd2MgPtO6,2.0683,-2.8591508755,mp-1209786
Na6CaZr7Si6(SO8)6,2.9533,-2.859132152386611,mp-2714675
GaF3,4.7051,-2.85906879875,mp-588
CaTiNbSnO6,0.0,-2.859068260833333,mp-1516396
Ba2Nb2TeO10,3.0541,-2.85901075161111,mp-557108
Nb6CdO16,1.7228,-2.858967111521739,mp-773090
RbHfMg30O31,0.5844,-2.858905435119048,mp-1039666
K2NaMgTiOF5,0.2716,-2.85888118311024,mp-2240162
Li3TaF6,0.5994,-2.85880676664,mp-1211531
BaLa2Cl8,3.6845,-2.858755094545455,mp-771973
Na6Y4Hf4Si5S7O48,3.5018,-2.85871551415463,mp-2715844
TmAsO4,3.5505,-2.858623212916666,mp-771977
Li13Nb14ZnO42,0.0,-2.858486885476192,mp-768142
CaTa2CuO7,0.8367,-2.8584375239090902,mp-1041633
LiBeBO3,6.0842,-2.85832689125,mp-1020026
Li2ScCuF6,0.0,-2.85829859238888,mp-1111353
LiNdGeO4,4.0681,-2.8582829144047612,mp-556814
Na9Ca4Nb2(PO4)9,1.658599999999999,-2.858255549431102,mp-2715365
MgSi2SnO6,3.1324,-2.8582496336250003,mp-1041480
Ba2LaC3O9F,3.9314,-2.8582493196875,mp-18111
YMg14CdO16,0.0,-2.858181116874999,mp-1035839
NaCa(PO3)3,5.4489,-2.858141192521992,mp-1020683
K2Nd(PO3)5,5.4769,-2.858089534574534,mp-559732
K2ZnF4,4.3016,-2.858067956357142,mp-9583
Na4CaTiSi(PO6)2,1.7569,-2.857954193879506,mp-2714438
K3BiF6,4.5618,-2.857933783175,mp-1110846
Al4Bi2O9,2.800199999999999,-2.857885393999998,mp-23426
NaGa(SiO3)2,4.1707,-2.857824663387931,mp-6822
Na3MgTi3P5SO24,2.1078,-2.85777384287889,mp-2715866
Na4ZrSi3SnO12,3.312599999999999,-2.8577342233579652,mp-2716539
Na11TiNb2Si4P2(O12F)2,0.0,-2.8576183436476392,mp-1210688
SrAl(OF2)2,0.079999999999999,-2.857396199375,mp-1199082
SrMgO2,3.4141999999999992,-2.857377783749999,mp-1218182
Li4Ti3Nb5O16,0.0,-2.857377640833333,mp-770800
K3Li2Nb6(PO8)3,0.0,-2.857350029535402,mp-773089
Sr2DyRuO6,0.2518,-2.857345851166667,mp-1188108
Cs2TcF6,1.8113,-2.857333918888888,mp-1079364
KSi4O9,0.5781000000000001,-2.857326509446429,mp-1211221
Na3Ca3Zr2Si4(O5F)3,3.0164,-2.857311164471264,mp-1248208
GdAlGe2O7,0.3146,-2.857296123863635,mp-1212574
Na3HfAlSi2SO12,4.1007,-2.857070811831896,mp-2714534
TaGaO4,3.2819,-2.8569991833055552,mp-753378
Na7Hf2In2Si3(PO8)3,3.2096,-2.856989737729684,mp-2714876
YHfMg14O16,0.0,-2.856898720625,mp-1035835
Na3La2Sc2P3(SO8)3,4.0104,-2.8567348428981942,mp-2713826
Ca2Ti5(Bi2O9)2,2.2698,-2.856713074022989,mp-1227907
Ba2GeO4,3.7979,-2.856575843809524,mp-780263
Ca4Ti5(TeO6)3,0.0468,-2.8565283552222223,mp-1046360
Li7Ti3(SiO6)2,0.0,-2.856422413472222,mp-766202
K3Lu(BO3)2,3.2674,-2.856418880979168,mp-1211659
Ti2Zn(PO4)3,0.181299999999999,-2.856413724477514,mp-1043719
LuAsO4,3.5572999999999992,-2.856376180694452,mp-7644
NaYTiP2SO12,2.0159,-2.856371071472131,mp-2712605
PrInO3,2.633599999999999,-2.856272560166665,mp-1105130
Sm2RuO5,0.1082,-2.8562330440625012,mp-1209143
YMg6TiO8,0.657,-2.856212945833333,mp-1032741
Na5Mg2Zr2P5SO24,3.5424,-2.856202132075493,mp-2715029
Na4LaScSi2SO12,3.5796,-2.856179966651615,mp-2714590
Ti10O11,0.0,-2.856115498968253,mp-684733
Sr2DyBiO6,1.884199999999999,-2.8561096071666663,mp-1208858
BaZn2Si2O7,3.3014,-2.856035180833333,mp-560441
Ba2HoRuO6,0.076,-2.8559745354999992,mp-6609
Ca2P6O17,5.5089,-2.8559254763142863,mp-758337
Na2ScHgF6,0.0,-2.855925310583337,mp-1111062
Na21Ta8Zn4Si15(PO24)3,2.4389,-2.855919205541144,mp-2714512
LiHfMg14O15,0.5879000000000001,-2.8558254238172043,mp-1035011
LiTi2P3O11,0.077599999999999,-2.855753049348739,mp-762500
Na8MgTi3Si5SO24,2.1194,-2.855716525719076,mp-2715623
Na3Mg2Nb4(PO4)9,2.0086,-2.855555520017104,mp-2713366
Na7Ti3ZnSi3(PO8)3,2.224199999999999,-2.855535636754076,mp-2714842
Si48O107,0.030199999999999,-2.855462928161291,mp-1221354
Y3B3O7,0.869499999999999,-2.855394645576922,mp-1100889
Ba6MgNb2Ir(ClO6)2,0.056299999999999,-2.8553475552083323,mp-2220391
La2Zn2O5,1.854099999999999,-2.855302755,mp-772609
Na15Mg7Ta5(PO4)18,2.7942,-2.8552856221019463,mp-2713146
Na2HfIn(PO4)3,3.9944,-2.855185014562485,mp-2713660
LuBiO3,3.1586,-2.855013119333334,mp-1176501
Na6La4Hf4Si5S7O48,3.391299999999999,-2.8548908157312063,mp-2715850
NaYGeO4,3.647,-2.8548585309113292,mp-17394
Mg14AlCdO16,0.0,-2.8548329428125,mp-1036395
Na2Ho2B2TeO10,2.9344,-2.854732783691683,mp-1194989
Na6Ti3ZnSi2(PO6)4,2.129499999999999,-2.8547140635045163,mp-2715325
Na7Zr2Si5Sn2PO24,3.5476,-2.854658903600765,mp-2714389
Na5La2Al2P5SO24,4.239800000000001,-2.854594246263526,mp-2715073
Na10Ta4Al4Si9(SO16)3,2.9337,-2.854585184431108,mp-2714313
Al3NO3,4.410799999999999,-2.854581422142857,mp-675601
Al2CuSi2O8F,0.302,-2.85457408125,mp-1229226
Na4CaHf3Si3(SO8)3,2.987599999999999,-2.854536444421507,mp-2713219
Ba2TeP2O9,3.4372,-2.854489903282313,mp-560742
Na11TiNb2Si4P2O25F,2.5924,-2.854483076256336,mp-1221508
Rb2SbF5,3.573399999999999,-2.8543856196875,mp-1209567
Zr2SO3,1.0071,-2.854348773750001,mp-1215422
NdTiNbBi2O9,2.5968,-2.85432833077381,mp-1220179
Ti2Sn(PO4)3,0.0,-2.854290868088624,mp-773911
Na8Ti3ZnSi4(PO12)2,2.0905,-2.8542760754838152,mp-2715700
HfMg30BiO32,0.0,-2.854243905624999,mp-1038357
Ba2Li3(PO3)7,5.652100000000001,-2.85420125090909,mp-555958
SrNb8O14,0.2536,-2.854191453043479,mp-3790
Cs2AlP3O10,4.6788,-2.8541277425461833,mp-542656
Na15Ta8Zn4Si9(PO8)9,2.939199999999999,-2.854041418300359,mp-2714184
Na3ZrSi2SnPO12,3.3591,-2.854008697814039,mp-2713601
BaSmCuBO5,0.0,-2.853969338240741,mp-1214336
MgPbF6,3.0406,-2.853937199374999,mp-19734
Ba2Eu2Ti2Cu2O11,0.0,-2.8539367442982453,mp-616471
SrEuNbBiO6,0.045399999999999,-2.8539125345000023,mp-1518541
Na8Zr3ZnSi5SO24,3.3378,-2.853676816234948,mp-2715771
Na7Mg2Ti2SiP5O24,2.0159,-2.853562420313889,mp-2715593
Ba3GeO5,3.2649,-2.85352409027778,mp-778602
Mg2Ta2CuO8,0.178999999999999,-2.853492659205128,mp-1045955
Na4Y2Zr2Si3(SO8)3,2.7178,-2.853386196965366,mp-2713236
K5Na3TaNb7O24,1.473599999999999,-2.853261976693031,mp-1076363
PrBeO3,0.0,-2.853243746333333,mp-1186742
K2AlAuF6,1.3271,-2.853184825449999,mp-1112269
Na4Al3Si3NO14,2.798899999999999,-2.85314203982069,mp-1173714
KSrCeSbO6,1.9095,-2.853109766975,mp-1522321
Na14Hf4Si11Sn4SO48,3.2511,-2.853066013294436,mp-2714572
Na5Hf2In2SiP5O24,3.605699999999999,-2.8530534453019882,mp-2715907
Na7Ca2Nb2Si3(PO8)3,1.851399999999999,-2.8528908448841572,mp-2714740
Y3GeO8,0.0,-2.8527954920833323,mp-1207832
Na5Ca2Nb2SiP5O24,1.7545000000000002,-2.852785149575492,mp-2715920
PrAlGe2O7,3.575,-2.852746820378787,mp-1209642
ErAsO4,3.5786,-2.852667687083339,mp-772156
Na42Ca8Nb16Si33(SO48)3,2.029,-2.852542195611509,mp-2714459
Na2Nb3InSi2(PO6)4,2.3707000000000003,-2.8524884553147243,mp-2715557
LaAsO4,4.002499999999999,-2.8524170354166682,mp-4917
CsMg30SiO32,0.0,-2.852293134057111,mp-1039950
Ca9La5Cl33,3.6782,-2.852228367765957,mp-782047
Li3Al3P3H2O14F,5.7714,-2.8522159410164822,mp-695635
K3TaO2F7,0.0524,-2.852131253583333,mp-734845
KNbO3,2.2934,-2.852127680450001,mp-7375
Na4La2Si2SO12,3.4671,-2.851878555064314,mp-2714486
Ba4Pr3BiO12,0.0,-2.85183876775,mp-1228380
BaPdF4,1.4527,-2.851794986666661,mp-12623
Ba2EuSbO6,0.0,-2.8517456435,mp-21370
BaNaBO3,3.6487,-2.851670440090996,mp-6660
Na7Al11Si13(AgO12)4,0.5585,-2.851644918027973,mp-686232
Na4MgTiSi(PO6)2,2.0323,-2.85160941173665,mp-2714354
Na2Ta2(P2O7)3,3.5105,-2.851602710492981,mp-1200120
RbLa9(IrO6)4,0.0,-2.851549956644737,mp-560657
Na4Zr2Sc2Si3(SO8)3,2.8649,-2.851530137228525,mp-2713631
Cs2TlGaF6,4.763400000000001,-2.851459309014368,mp-989558
Ba2Nb6Te2O21,2.1563,-2.85137372155914,mp-16998
Sr4CeSm3Nb2(CuO5)4,0.0,-2.851372314558824,mp-1218622
Na4Al3Si3SO16,0.0,-2.851285614185823,mp-1210353
Na6MgZr3Si4(SO12)2,3.2148,-2.851267840373563,mp-2714454
Sr4Ga2O7,2.9805,-2.851244091778845,mp-1204230
Na3HfInSi(PO6)2,3.7828,-2.851171469504515,mp-2715238
Na7Ca3Nb(PO4)6,2.014599999999999,-2.8510713079881063,mp-2714076
Na5Ta2Si5Sn2PO24,3.1268,-2.851063827253148,mp-2716449
Na7Al4P9O32,4.9808,-2.8510504322392483,mp-1020724
K3TbSi3(HO5)2,4.8809000000000005,-2.850949327811403,mp-759928
Sr5As3O12F,3.9029,-2.850925213928571,mp-17777
NaHf3MgP3(SO8)3,4.4106,-2.8508483976992722,mp-2716357
Rb3U2Ge2O11,0.194599999999999,-2.850831323611109,mp-558697
Ta8Pb6O25,0.3699,-2.850816496247865,mp-676937
Na10Ca2Zr6Si7S5O48,3.0462,-2.850756863478118,mp-2716097
Na2Dy2B2TeO10,2.8880999999999992,-2.850698097417173,mp-1194796
Na8HfMg3(PO4)6,3.741099999999999,-2.850652360568848,mp-2715210
Na4La2Hf2Si3(SO8)3,3.5473,-2.8506069417899282,mp-2713238
Na3Si3SnO9F,3.839199999999999,-2.8504845114198782,mp-560937
Sr2P6O17,5.5563,-2.8504518415142712,mp-27583
Nd2BiO2,0.0,-2.850434975000001,mp-973451
Rb2LiNd(BO3)2,4.255299999999999,-2.850369563888888,mp-1195542
ZrPbO3,2.7752,-2.850313608,mp-542903
AlGa(PO4)2,4.8451,-2.850289424732143,mp-1228948
Na3Nb10Zn2Si3(P5O24)3,2.1155,-2.8502735335598173,mp-2715636
Zr(PO3)4,4.1128,-2.85015022572479,mp-557909
Na6Hf4Sc4Si5S7O48,2.8493,-2.85013738879427,mp-2716049
Na2HfSiGe(PO6)2,2.8409,-2.850105412037421,mp-2712719
LaSbO4,3.009,-2.850073524999999,mp-1190427
Ba3Ti4Sb4O21,2.4014,-2.850029601979166,mp-1228624
LiSbF4,5.135,-2.850026090972222,mp-1190441
Li3TaO4,4.585,-2.849972012479166,mp-3151
Ba3SrO4,2.1745,-2.849843436249999,mp-1079882
Na10Zr5Zn3(PO4)12,3.5336,-2.849834191617616,mp-2716290
Na6Ta6Ga2Si9(SO16)3,2.8022,-2.849821558285259,mp-2713120
LiTa4O12,0.0,-2.849610501921569,mp-1236149
SmPuO3,0.0,-2.849570497749998,mp-981250
SrTa2H2O7,2.2398,-2.8495650510138892,mp-990430
NaY3TaP3(SO8)3,2.7473,-2.849506808051654,mp-2716572
KBiF4,3.2321,-2.849412673708334,mp-581857
Na10La6Ta2Si7S5O48,2.9565,-2.84938278221316,mp-2716104
Na5Ti3ZnSiP5O24,1.951,-2.849359281626773,mp-2716098
Na30Nb20Zn4Si33(SO48)3,1.984,-2.849286153990937,mp-2716457
Na21Ca8Nb4Si3(P5O24)3,1.8301999999999992,-2.8492080635659223,mp-2715746
Ba2SmMgNbO6,0.0,-2.8492023,mp-2222862
KNdTiSnO6,2.8321,-2.8491207853083322,mp-1522241
KSmP3HO10,5.4649,-2.849101748589285,mp-542266
CaPO4,0.0,-2.849100536190475,mp-726661
Na12Ca4Nb2Si3(PO6)6,2.3096,-2.849098416498553,mp-2714542
SrHfMg14O16,0.042999999999999,-2.8490967874999993,mp-1034376
EuAl3(PbO4)2,0.078399999999999,-2.849076464464297,mp-1196233
Na2Hf3ZnP4(SO12)2,4.0169,-2.849004888323984,mp-2712546
Na9Ca5Nb7(PO4)18,1.7249999999999992,-2.848984870684553,mp-2714812
Na5Y3HfSi3(SO8)3,3.5455,-2.848967395198202,mp-2713162
Ba3SrLu2(BiO6)2,1.563099999999999,-2.848819314166667,mp-1228053
Ba2PrMgNbO6,0.0,-2.8487779778787883,mp-2224757
NdPb6F15,4.41,-2.8485724109469572,mp-676572
CaTa2Bi2O9,2.9261,-2.848434713190477,mp-556697
Nb2(PO4)3,0.0,-2.8483732011134433,mp-540332
Li3Al(BO3)2,4.8248,-2.848371881527777,mp-6097
BaLaCl5,3.4327,-2.848364710178572,mp-772035
Mg30SiCO32,1.037699999999999,-2.848256845078125,mp-1039816
Sr3La3Zn2RuO12,0.4832,-2.848246662619048,mp-1173238
Sr2TbRuO6,0.187899999999999,-2.848211676666666,mp-6068
BaGdCuBO5,0.0,-2.848131011018518,mp-1214529
Mg2(SiO3)3,0.0176,-2.848093756071429,mp-1203861
HfMg14ZnO16,0.049799999999999,-2.847963958749999,mp-1035739
CaLu2(GeO3)4,3.1276,-2.847852077280702,mp-1227583
CsNb(PO4)2,2.5389,-2.847851053245074,mp-555286
NaHfGe(PO4)3,2.928499999999999,-2.847588939924513,mp-2713163
HoAsO4,3.609,-2.847563612916665,mp-12944
Na6La3NbSi4(SO12)2,2.3158,-2.847513946873563,mp-2714506
Sn2BF7,4.370999999999999,-2.847382213166667,mp-27430
LiTi3Sb(PO4)6,2.488699999999999,-2.847361820891157,mp-766098
NaNb3GaSiP5O24,2.301199999999999,-2.847300048345532,mp-2715546
Be4Si2H2O9,5.739199999999999,-2.847125684558824,mp-707304
ZrSO,2.4195,-2.847103474999998,mp-3519
Na3Sc4P3(SO8)3,4.2853,-2.8470941677630592,mp-2713936
Mg(PO3)2,5.6024,-2.847031572420635,mp-18620
Rb2TiAuF6,0.029,-2.846980579833333,mp-1111401
Na12Ca5Nb(PO4)9,2.136599999999999,-2.846812375846626,mp-2714965
Ba2DyMgNbO6,0.0,-2.846686045151514,mp-2217995
Ba3Al2B10H4O23,4.970899999999999,-2.846680474087301,mp-1201953
CsAlO2,4.273499999999999,-2.846654709913793,mp-14069
CsNdO2,2.9366,-2.846563108038792,mp-553308
MgAl2SiHO7,0.355099999999999,-2.846523528229166,mp-1210694
Na3Hf2SiGe2P5O24,3.1494,-2.846417664883393,mp-2713015
Li7Nb8O24,0.0,-2.8463377471367513,mp-531409
Ba2P6O17,5.4647,-2.846314749714285,mp-772748
Na4Ti3O8,2.157,-2.846263075034483,mp-754638
Na12Ta4Zn2(SiO4)9,2.7812,-2.846146922633096,mp-2716505
NaTiNbSi2SO12,2.7588,-2.846086555585888,mp-2715810
Na3Zr2SiSn2P5O24,3.5449,-2.8460620139824933,mp-2712998
Li2BiF5,4.0596,-2.846042060416668,mp-760419
TiNbBiO6,2.3865,-2.8459842381481493,mp-1216838
DyAsO4,3.6275,-2.8459666998611173,mp-5632
Nd4Mg(CuO4)2,1.1545,-2.845946872333332,mp-2226846
Na2ZrSiSn(PO6)2,3.1744,-2.845933543967247,mp-2712558
Na14Y8Si7S5O48,3.248199999999999,-2.845842123091184,mp-2715533
SrZnP2O7,4.4557,-2.845789504935064,mp-558616
Si4SnO10,2.968,-2.845776680666667,mp-1043403
Li4Be3P3BrO12,6.0638,-2.845733534880951,mp-554560
Mg30SiBiO32,0.098399999999999,-2.845722814687499,mp-1039843
Na5AlP2(O4F)2,4.6651,-2.845706435528643,mp-555488
K2HfO2F5,0.1251,-2.845619394699999,mp-1204887
Na2CaHfP2SO12,4.2675,-2.8455256733093512,mp-2713699
Ba6LiNb2Ir(ClO6)2,1.688199999999999,-2.845406273472222,mp-1235210
RbBi3F10,4.3868,-2.8453146055357172,mp-1209295
Cs3U2Ge2O11,0.194299999999999,-2.8452722349425272,mp-557858
Na7CaAl3(PO4)6,4.5817,-2.845229798394609,mp-2714070
BaLaGa3O7,3.3009,-2.8452221235416673,mp-1227901
TmB2HO5,4.6471,-2.845210811620371,mp-1201207
Na4HfInSi2PO12,3.6615,-2.845089476674291,mp-2716235
Na3Ta2Si3Sn2(PO8)3,3.507899999999999,-2.84504287052432,mp-2712954
BaNaLi3(BO2)6,5.3099,-2.844957427668665,mp-1019555
NaNbO3,2.5048,-2.844822765275861,mp-4514
BaSrNbSbO6,2.194499999999999,-2.84477740125,mp-1520345
CaTm2(GeO3)4,3.1273,-2.844765386052633,mp-1227267
Ba2HoMgNbO6,0.0,-2.844757603636363,mp-2217913
Rb11Al14Si10(AgO16)3,0.000799999999999,-2.8447549812500013,mp-1251571
Na5Zr2Si3Sn2(PO8)3,3.1635,-2.844731499679277,mp-2714225
Na3TaAl3P5SO24,3.1602,-2.844676774203214,mp-2715921
Na14Y4Sc4Si7S5O48,3.5231,-2.844512864676549,mp-2715816
SrCaTbBiO6,1.7765,-2.844511043666667,mp-1520398
USb3O2F17,2.4533,-2.8444691560869573,mp-561241
Mg14TiCdO16,0.4129,-2.844468488229166,mp-1034035
K4U3(AsO8)2,1.8696,-2.844375022559999,mp-1194764
K3HoSi3O10,0.1269,-2.844342954514706,mp-726420
TbAsO4,3.6466,-2.844339936527786,mp-3248
CaLaGa3O7,3.2684,-2.844303683541666,mp-1227153
Rb2Np2O5,0.0,-2.844228067500001,mp-1186829
LiTi2BiO6,2.7097,-2.844193647999999,mp-1120796
BaSrEuSbO6,0.0,-2.844142136,mp-1519221
NaMg6Al3Si6(BO10)3,0.0,-2.844099041201618,mp-1221241
CaHfMg6O8,0.092499999999999,-2.844082855624999,mp-1031754
Gd3GeO8,0.0,-2.844040512083333,mp-1191917
Na2Ta4Ti4Si7S5O48,2.012499999999999,-2.84401601804179,mp-2715622
CaMg6AlO8,0.0098,-2.843927999374999,mp-1033062
Na2Zr4Nb4Si7S5O48,1.6432000000000002,-2.8438830193370292,mp-2715589
Na4Al3Si3CNO13,4.369400000000001,-2.8438506594206903,mp-1173717
Ba2TmMgNbO6,0.0,-2.84374158409091,mp-2240398
EuNb8O14,0.0,-2.843731083260869,mp-21593
Cs2NpO4,0.2765,-2.843703246865768,mp-1025274
YSbO4,2.3634,-2.843681377083333,mp-1207765
Na6Ta4Zn2Si3(PO6)6,2.7038,-2.843503078867831,mp-2712611
CeAsO4F,1.495499999999999,-2.843470298214286,mp-1193745
Na7Ca3ZrP5SO24,3.7251,-2.843455117244784,mp-2716024
K2HfO3,3.9952,-2.8434267957499992,mp-1211999
Na2Ta5In3(PO4)12,0.1476,-2.84340532674009,mp-2713732
NaBe2Tl3F8,4.376,-2.843264356527095,mp-1210101
RbMg30SbO32,2.518,-2.843137923242187,mp-1039609
Na14Sc8Si7S5O48,3.6807,-2.843081339351346,mp-2715766
BaNb3NO7,1.2765,-2.842961962499998,mp-776461
NaNd3PtO7,2.4214,-2.842951298656608,mp-1221028
LiSm2OsO6,0.396099999999999,-2.8429345188333333,mp-12448
Sr2EuSbO6,0.0,-2.84292174,mp-1522409
LiMg30CO32,0.461,-2.842915830442708,mp-1040064
Cs3SbF6,3.8678999999999992,-2.842907090896552,mp-1112602
Ba3Ce2C5O15F2,0.3173,-2.8428357961111113,mp-581090
Na4Ti3Zn(PO4)6,2.0623,-2.842813469474765,mp-2713298
Na2Eu2B2O7,0.0037,-2.842747273353227,mp-1210559
Na5HfSc3Si3(SO8)3,3.742099999999999,-2.842522212591365,mp-2716334
Mg30CdBiO32,0.2262,-2.8424538209375,mp-1038488
KB5O8,5.4892,-2.842433144505952,mp-12183
Na10Nb6Ga2Si11SO48,2.2354,-2.842423942986664,mp-2716383
Na6Nb2Al2Si5SO24,2.296899999999999,-2.842384669644397,mp-2713952
Li5Ti(SiO4)2,0.553499999999999,-2.8423674162499992,mp-760462
PmEuO3,0.0,-2.8423352195000002,mp-1186571
Sr2YRuO6,0.0,-2.842278018,mp-14430
NaMg14BO16,5.540199999999999,-2.842088932517061,mp-1034626
MgUO3,0.0,-2.842065497999999,mp-1185614
KLaGdSbO6,2.2343,-2.8418386982249992,mp-1520259
CaCu2(Si2O5)4,1.2839,-2.841824415161291,mp-1330795
Na6MgZr7Si6(SO8)6,3.0108,-2.841798360922647,mp-2714695
NaLaYSbO6,2.468999999999999,-2.841724432637931,mp-1518530
KBi3F10,4.4569,-2.841616061946428,mp-1211670
CsLi(B3O5)2,5.2081,-2.841563735999361,mp-1019715
Ti2Be3Zn(SiO4)3,0.0,-2.841555986626984,mp-1047879
Mg3Al(SiO4)3,0.0,-2.841523934210526,mp-1222440
Cs2LiBiF6,4.8946000000000005,-2.841523651291669,mp-1110976
Sr2CeIrO6,0.0,-2.841448410500001,mp-6603
Na7MgAl3(PO4)6,4.7417,-2.841436347703553,mp-2714118
K6Al11Si13Ag5O48,1.7062,-2.841348297371486,mp-1248154
NaLa3TaP3(SO8)3,2.9412000000000003,-2.841324247337369,mp-2716372
MgTi6(H2O7)2,0.0,-2.8412808828,mp-2216788
NaBe(BO2)3,5.5885,-2.841275167170846,mp-1020624
SrCaLaBiO6,2.0516,-2.841161119,mp-1519157
Al(PO3)3,5.9631,-2.841152989725275,mp-1019377
La4Au2O9,1.892299999999999,-2.8411514525,mp-9160
RbMg30BO31,1.7878999999999992,-2.841097602248678,mp-1039725
Na14La4Y4Si7S5O48,3.39,-2.841094109554598,mp-2715750
K4NaNb5O15,2.0385,-2.841031131015172,mp-1224551
Li11Nb12O36,0.0,-2.841015550282486,mp-676591
HfMg14AlO16,0.0,-2.84100152125,mp-1036470
Na9Mg4Ta2(PO4)9,2.5305,-2.840989160703325,mp-2715338
NaZrSn(PO4)3,3.0362,-2.840935175294883,mp-2713512
Ta9As2O25,0.0,-2.8409248235,mp-1208659
Na8TaAl3Si5SO24,2.9061,-2.840882836965107,mp-2715652
Na6Ca4Ta20Si21(S5O48)3,1.885099999999999,-2.840860347892583,mp-2715644
Ba2LuMgNbO6,0.0,-2.84082896469697,mp-2217600
MgTi4Bi2O11,0.0,-2.8408120746296293,mp-2229201
Li3Ta5Cu2O15,1.271299999999999,-2.840781232866667,mp-767456
Na10Y7TaSi6(SO8)6,3.261399999999999,-2.8406609810187162,mp-2716406
Na5Li4Ti5O14,0.0415,-2.8406343702463053,mp-775424
Lu2Sb2O7,2.0983,-2.840538141666667,mp-772486
ScTeO3F,3.2415,-2.840448436319445,mp-13551
BaCaMg14O16,0.8754000000000001,-2.840387342187499,mp-1036305
Na2ScNb3Si4(SO12)2,1.8431,-2.840335379150702,mp-2715541
Na2Li4Ti3Al(PO4)6,0.0,-2.840335312848728,mp-769069