formula,bg,formation_energy,mp-id
MgGeO3,2.5261,-2.554010083,mp-4819
CsReF6,0.0,-2.5539297140625012,mp-9632
RbDy(SO4)2,5.719399999999999,-2.553862191805554,mp-18109
Mg4H2O5,4.0052,-2.553808647954545,mp-30242
KEr(SO4)2,6.016299999999999,-2.553738105812499,mp-18555
Ba5AlIr2O11,0.0,-2.553505045263157,mp-21742
Rb2NdCl5,4.796,-2.553502742187501,mp-1209524
MgCu2(SiO3)4,0.7968000000000001,-2.55345584131579,mp-756830
KCd(BO2)3,3.7384,-2.553410675659089,mp-1196758
Na30Ca20Ta4Si9(S3O16)9,2.3696,-2.5532851465949262,mp-2714845
Rb3In(PO4)2,3.4028,-2.553281954978739,mp-557875
KMgSb(PO4)2,3.870999999999999,-2.553120830887362,mp-2228147
KGd(CO3)2,2.7427,-2.553087157225,mp-9806
K5Li3Ti8(AsO5)8,3.056899999999999,-2.552959109420573,mp-766047
Na10Y4Si7Ge4S5O48,1.5987999999999989,-2.552956948905468,mp-2715884
U(BiO3)2,1.3499,-2.552848464444443,mp-27775
Na10La4Si7Sn4S5O48,0.945,-2.552810214546493,mp-2715926
Rb2InHgF6,0.0,-2.5527608854166672,mp-1112225
LaCO4,0.040599999999999,-2.552757269074076,mp-1202759
CeRhO3,0.0,-2.552756445499999,mp-1213826
Mg6AlBO8,2.198699999999999,-2.552697453072916,mp-1032987
K5Na3TaNb7O20,0.0,-2.552636560492257,mp-1076887
NaYGeP2SO12,1.3392,-2.552620140638798,mp-2714155
Na10Ca6Ti2Si3(S3O16)3,0.9272,-2.552305400059314,mp-2714702
RbGaBP2HO9,4.8043,-2.552223135146852,mp-24761
BaMg6AlO8,0.000799999999999,-2.55204061875,mp-1033059
Na3TaIn3P5SO24,3.184,-2.552040428887898,mp-2715825
Dy6Mg(Sb5O12)2,0.5928,-2.551993414999999,mp-1234228
Na7Ga2Si3Ge2(PO8)3,3.207499999999999,-2.551958751591473,mp-2715162
RbCd(BO2)3,3.8078,-2.551939412272726,mp-1197285
NaMg2Nb2P3(SO8)3,1.456299999999999,-2.551834035270702,mp-2716532
Na2Mg2Ti6Si3(S3O16)3,1.245399999999999,-2.551763977194171,mp-2716402
Na2LiRhF6,1.843799999999999,-2.551669323609194,mp-1114234
K2U3H4(O3F4)2,2.1424,-2.5516228978043483,mp-1212194
Mg3GaO4,0.0,-2.5515448128125002,mp-1099251
Na7HfZn3P5SO24,3.92,-2.551533359683808,mp-2715860
Ca2Al2Si6SnO22,0.0,-2.551519462424242,mp-863005
Rb2NaIrF6,2.3345,-2.55136360963793,mp-1113675
Na2ZnP2O7,4.0115,-2.55136103704536,mp-40963
Na8Mg2Al2Si3(SO8)3,2.921299999999999,-2.551331766036535,mp-2715201
Na7Mg4P3(SO8)3,4.4082,-2.551276868603668,mp-2714493
AlH2PbO2F3,4.496700000000001,-2.551256586388889,mp-643387
Na14Mg6Zr2Si5S7O48,2.3399,-2.5512227143716713,mp-2715985
Mg3Cu2(PO4)3,0.0,-2.551128611446429,mp-1210907
Ba3SmIrRuO9,0.0,-2.551108316666665,mp-1228168
Ca2PbO4,1.4813,-2.551106224285708,mp-21137
Na6MgSn7(PO4)12,2.4955,-2.551101494107976,mp-2714638
Cs2InAsF6,2.1016,-2.551056492347701,mp-1113140
Na2Ca4Zr4SiS11O48,2.285,-2.551022228122742,mp-2714296
NaCaY(SO4)3,5.1953,-2.551006631141444,mp-2714189
Tb2Pb2O7,1.1856,-2.550893196212119,mp-769211
NaAsF6,4.8294,-2.550874650312499,mp-1079088
Ti(GaO2)4,2.361199999999999,-2.55084869948718,mp-553991
Ba4Ce(RuO4)3,0.0,-2.550727824833333,mp-1214942
Rb2SmCl5,4.8542000000000005,-2.550689838750001,mp-1209521
BaNa3PCO7,3.992,-2.5506868395215982,mp-771331
Na2SiSn2(PO6)2,2.9417,-2.550478913440929,mp-2712646
KSm(SO4)2,5.6574,-2.5503554022708332,mp-1211618
KBaP3O10,0.7098,-2.550264039245239,mp-734006
Na3Nb2Zn2P5SO24,2.0004,-2.550187352293304,mp-2716106
Ce3S3O16,0.0,-2.550017029659089,mp-1202383
Na4InSi2SnPO12,2.652699999999999,-2.549953926594925,mp-2715794
Mg14SnCO16,1.025099999999999,-2.549920994687498,mp-1034352
Hf3ZnSiS5O24,3.1986,-2.549857063946079,mp-2713116
CsRbMg14O15,1.9776,-2.549829772650167,mp-1099231
Ba2CaSeO6,2.01,-2.549794024234375,mp-1520564
Na18Ca16Ta8Si9(S3O16)9,1.2085,-2.549731584531506,mp-2713722
NaLa3Mg(SO4)6,4.3222000000000005,-2.549633601801314,mp-2714736
CsGaBP2HO9,4.6544,-2.54955072495717,mp-1201408
Na5CaSiGe3P5O24,1.8726999999999991,-2.5494115784216462,mp-2716026
Gd2Ru2O7,0.0,-2.549214757272727,mp-505216
KNd(SO4)2,5.6701,-2.5491363847708333,mp-14665
SmHCO4,5.2934,-2.549074660178572,mp-1219040
KBi(PO3)4,4.896000000000001,-2.54906419435119,mp-559020
NaCaSc3(SO4)6,3.9627,-2.548880434325124,mp-2714630
Mg6ZnSiO8,2.9215,-2.548876583124999,mp-1032002
Na2Ca(PO4)2,0.0,-2.548873150157255,mp-1193943
CsPr(SO4)2,5.4295,-2.548828366776819,mp-540686
Ti3(BiO3)4,2.3715,-2.548817583157894,mp-723064
Dy2Pb2O7,1.1816,-2.5488151693939383,mp-769222
Na6Ti2O7,3.5301,-2.548764408662833,mp-778364
NaY2Al2PS5O24,3.6839,-2.548634033719682,mp-2714064
Na6Hf4In4Si5S7O48,1.2711,-2.548483353523999,mp-2716118
Na6Nb4Ga4Si7S5O48,1.8005,-2.548469771879855,mp-2712952
Mg6TiSnO8,0.116800000000001,-2.548458843645832,mp-1031502
Na4Ca2Si(SO6)2,3.2975,-2.548447887802409,mp-2712933
Na2AlGaP2SO12,4.125500000000001,-2.548254320633912,mp-2713329
In(PO3)3,4.44,-2.54823836030221,mp-14535
KRe2O4F7,3.0333,-2.548195079089286,mp-555490
Na6Hf2Zn2Si3(SO8)3,2.500099999999999,-2.548187982519397,mp-2716251
TiIn2O5,1.9707,-2.548111676770833,mp-505177
Mg2Al2SiO9,0.0,-2.548030591785715,mp-1222223
Na6Y2In2Si3(SO8)3,2.0053,-2.547961621686064,mp-2716229
La3Ru3O11,0.0,-2.54792911617647,mp-5032
BaSrCaSeO6,2.1937,-2.5479187562343752,mp-1522463
Na7In2Si3Sn2(PO8)3,2.9648,-2.547909106347572,mp-2714848
AlP3(HO5)2,5.9782,-2.547849365401785,mp-722269
K3In3(PO4)4,3.232199999999999,-2.547847222993131,mp-554506
RbEuCl3,0.454199999999999,-2.547815950500001,mp-1206801
NaEuGeO4,0.0,-2.547677559839901,mp-1019727
NaCaHfBiO6,1.4638,-2.54767169313793,mp-1519024
Er2Pb2O7,1.16,-2.547577461818181,mp-755723
BaNaSr3(SbO4)3,1.9361,-2.5474415140689652,mp-1227913
NdEuTi4O12,0.0,-2.547124371435186,mp-1519303
KSn2(PO4)3,3.449899999999999,-2.547108168121032,mp-1180718
Na3In(PO4)2,3.267699999999999,-2.547104268577879,mp-6017
LiLuF2,0.0,-2.547093742222221,mp-1211015
Na6Be8O11,3.6417,-2.5470905917310342,mp-28559
YRhO3,9.999999999976698e-05,-2.547069844999999,mp-1207629
Na2TiPCO7,0.1996,-2.5469447367279,mp-767550
Tm2Pb2O7,1.1489,-2.546940055,mp-752411
Nb3InSi3(SO8)3,1.6277,-2.546908525759804,mp-2713920
Sr2LaGa11O20,2.6569000000000003,-2.5468658493382352,mp-1218805
Ba4Li(GeO3)4,0.0,-2.54685805063492,mp-1235550
TmHSO5,5.6387,-2.546857334062501,mp-1198446
Rb2GdCl5,2.4944,-2.546784238125002,mp-1209447
Na3NbGa3P5SO24,2.3334,-2.546652036775286,mp-2716061
BPPbO5,4.2593,-2.546615575267857,mp-21266
Na3Si2Ge2PO12,3.1536,-2.5465389640640392,mp-2715261
Na10Ti4In4Si7S5O48,1.5112,-2.546450026725981,mp-2715957
KUSiO7,0.536,-2.546423193224998,mp-1189398
KNd(CO3)2,4.4267,-2.546365839725,mp-557940
Ho2Pb2O7,1.1706,-2.5463481468181812,mp-1178175
B6Pb3O11F2,3.025399999999999,-2.54624055840909,mp-1197284
Al2PH3O7,5.2448,-2.546159664876373,mp-1193864
Sr2Ti2As2OF2,0.0,-2.546133841851851,mp-1079747
LiZnPO4,4.3045,-2.546068404710883,mp-559934
Na3La2Mg2PS5O24,4.3003,-2.546043497737319,mp-2712734
Na14Nb2Ga6Si9(SO16)3,1.8582,-2.545953252034272,mp-2714750
Na4Sc2Si3Sn2(SO8)3,0.9502,-2.545940121614489,mp-2713649
K2SnP2O7,4.1651,-2.545925729482141,mp-554825
Na18Nb16Zn8Si21(S5O48)3,1.003,-2.545804682870845,mp-2712997
Sr2CaIrO6,0.0,-2.5457749655,mp-15002
Na4InGaSi(PO6)2,3.3778,-2.545759306379506,mp-2714556
Na2NbAl3Si2(SO6)4,1.427299999999999,-2.545522750909962,mp-2712714
NaZr2In2P3(SO8)3,3.1551,-2.545515400032607,mp-2716494
Na3Sc2In2P3(SO8)3,3.4329,-2.545446076862157,mp-2713877
Na6Sc2In2Si3(SO8)3,2.0716,-2.545322188602731,mp-2716194
SrCaEuBiO6,0.0,-2.54526396275,mp-1521970
LiCeO3,0.0,-2.5452602596666662,mp-973613
K3NaSi6(SnO10)2,0.26,-2.545252559316541,mp-1224587
Rb2Nb2Si2O11,0.5739000000000001,-2.545242829852941,mp-1202769
NaPH2OF6,6.3269,-2.545200571683833,mp-767419
LaRhO3,0.5939999999999991,-2.545009926000001,mp-5163
TiSO5,2.574599999999999,-2.5450024420833333,mp-505270
Li2P5WO15,1.509,-2.54498483782091,mp-758370
CaTa4O14,0.0,-2.544849719964912,mp-1227122
Na10B18H6O35,4.6812000000000005,-2.544841659439004,mp-1221784
Ti2Zn2SnO7,2.860299999999999,-2.5448167226388883,mp-1120807
Na7NbZn3(PO4)6,1.956,-2.544709398557211,mp-2714134
TiBi2(O2F)2,1.104899999999999,-2.544692121481481,mp-1217030
Rb3Ca2Cl7,4.9291,-2.544633045208333,mp-1209277
RbNa5Be8O11,3.8053,-2.544481581175861,mp-560092
Na4Mg3ZrP2(SO6)4,3.086099999999999,-2.544331380784288,mp-2713350
NpO,0.0,-2.544315116875001,mp-6927
Na2Ca4Ta4Si3(S3O16)3,1.2858,-2.544313646089409,mp-2716296
Li2Si4O7,3.0641,-2.544304068205128,mp-985637
Er2Bi2O7,0.373,-2.5442208986363632,mp-772991
ErHSO5,5.6272,-2.544181365000001,mp-1198224
CsKNaLi13(SiO4)4,4.0858,-2.544144062961606,mp-720245
Sr2CeYCu2RuO10,0.0,-2.544132465882352,mp-1218854
La12Cu10O31,0.0,-2.544077274056603,mp-675164
Na3In2(PO4)3,3.226,-2.544070799319991,mp-17349
CaAl2Si3O13,0.5198,-2.544023431052632,mp-1202493
PbF2,4.3938,-2.544010303333332,mp-315
K6Ti2O7,3.4474,-2.5439347390111102,mp-5455
Na5MgSiGe3P5O24,2.093099999999999,-2.5439026536780562,mp-2714109
Mg2TiIrO6,0.0,-2.543847211333333,mp-1342933
Na6Ti4Si7Ge4S5O48,1.7962,-2.543824499537512,mp-2713088
LuSeO3,1.704999999999999,-2.5436778743020843,mp-768293
NaSrPrSbO6,0.0,-2.543591947804597,mp-1521671
TaInP2SO12,1.0588,-2.543562494359944,mp-2713416
Ti8BiO7,0.0,-2.543513257604166,mp-1105121
K2NaIrF6,2.3848000000000003,-2.54349559758793,mp-1111884
Gd3Se2NO,1.754,-2.543475174955359,mp-1104036
AlSbO4,1.6178,-2.5433669,mp-676861
NaSrNbSbO6,0.0,-2.54334363413793,mp-1522961
Na5Ga2SiSn2P5O24,2.9552,-2.54331744295156,mp-2716007
DyHSO5,5.5844000000000005,-2.543283218020833,mp-1196991
Na5Ga3Sn(PO4)6,3.0602,-2.5431498855278742,mp-2713216
Er(ReO4)2,0.0,-2.543080508636363,mp-755194
Li3CuOF3,0.0,-2.543069295,mp-1147575
CaAlCuSi2O9,0.0,-2.542940884642858,mp-1192520
EuSnO3,0.0,-2.542926983000001,mp-862606
Rb2TmCl5,4.9769000000000005,-2.542893917187499,mp-1209452
NbSeF9,5.0491,-2.542818262642045,mp-27313
CsCd(PO3)3,4.57,-2.5427293532916972,mp-13738
TmSeO3,1.819,-2.542680966468751,mp-768396
ThTeSO7,4.226799999999999,-2.542572022916665,mp-1195677
HoHSO5,5.7946,-2.542566203281249,mp-1201273
TaClF8,3.122,-2.542517350233333,mp-28185
Rb2ErCl5,4.6263000000000005,-2.542468952812499,mp-1209626
Sm2Ru2O7,0.0,-2.54245442181818,mp-17113
Al2HgO4,1.346099999999999,-2.5423616575,mp-756317
Li2Th(AsO4)2,3.9494,-2.542340858589743,mp-1194965
K4Ge2B8H2O19,4.1044,-2.542303594566666,mp-1203238
Zn3B7BrO13,4.4924,-2.5422953063194442,mp-1179542
TbHSO5,5.530200000000001,-2.542281665364584,mp-1203039
Li5NbO5,2.9815,-2.542197748333332,mp-770649
PaBr3O,1.749,-2.542195351999999,mp-540540
Rb2LuCl5,5.0297,-2.542095440520832,mp-1209613
Rb2AgBiF6,2.5561,-2.542093180666666,mp-1110790
RbMg6AlO8,3.665199999999999,-2.5420215492187492,mp-1031545
Na6Ca6Hf2SiS11O48,3.529499999999999,-2.541963145866341,mp-2713715
SrSiH2F6,3.8116,-2.541798675,mp-1208705
Cs3In3(PO4)4,3.1055,-2.5417850045206523,mp-1232408
NdHCO4,5.268899999999999,-2.541773099107142,mp-1220134
K2RbRuF6,0.0,-2.541730785199999,mp-1111431
NaLa(SO4)2,4.1818,-2.541620686364942,mp-557840
Ca2SnSbO6,0.0,-2.5415757125000003,mp-1344994
Na5Ca4PS5O24,4.504099999999999,-2.541558169035199,mp-2713690
NaTi8(Bi3O10)3,1.8506,-2.541537538084292,mp-1221823
Na2MgTiSi(SO6)2,1.4069,-2.541523653390805,mp-2713623
Tb2Bi2O7,0.0,-2.541341383030303,mp-769673
Na8ZnSi4Sn3(PO12)2,2.1359999999999992,-2.541215990920323,mp-2716155
Ca5S3O12F,0.2906,-2.541199799642856,mp-1214204
Ta4Mn11O21,0.996,-2.541198387265966,mp-29747
KMg6GaO8,3.7645,-2.541195065921874,mp-1031256
K2LiNbO4,4.0545,-2.541161011916666,mp-759900
TaAl3P2(SO6)4,3.0801,-2.54112769382213,mp-2713092
Na3AlP2H2O9,4.4885,-2.541043597407274,mp-707530
TmCO4,0.4881,-2.541007492291667,mp-1200742
Li9Sb3P8O29,3.8272999999999993,-2.540990692084547,mp-776589
Na3Mg2Sc2PS5O24,4.073499999999999,-2.540938069629211,mp-2713711
Li9Sn3P8O29,0.0,-2.540923514329445,mp-779010
Ba3LaIrRuO9,0.0,-2.5408981253333343,mp-1228246
Na24Mg10Nb2Si9(SO8)9,1.2034999999999991,-2.5408675571476462,mp-2714970
CsTb2Cl7,4.5419,-2.540729749499999,mp-1213261
K2CaPrO4,0.0,-2.5406521970208322,mp-1223663
CsSrCl3,5.3123000000000005,-2.540642339499999,mp-1213084
NaSr11(PtO6)3,0.0,-2.540639099890259,mp-1221072
Na7In2Ga2SiP5O24,3.4394,-2.540638073037467,mp-2715768
Na2Al2Si(SO6)2,4.4728,-2.5405308473381742,mp-2713629
Eu3AuO6,0.0,-2.540529372500005,mp-21389
LiAl4Zn2O8,0.0,-2.540515866222222,mp-1235363
Ba2LiTbIrO6,0.0,-2.540442701818182,mp-1236116
NaNb3ZnSi3(SO8)3,1.073599999999999,-2.540416372872742,mp-2713738
Ca2BiAsO6,3.2393,-2.54039071275,mp-557070
Li3RhF6,1.9018,-2.540376600999999,mp-1237062
KCd(PO3)3,4.1305,-2.540190971869898,mp-1211746
RbSn2(PO4)3,3.3458,-2.540144043412685,mp-1179711
CsTiAsO5,3.0409,-2.540109706623564,mp-541956
Na2Ti4Al4Si3(S3O16)3,1.286699999999999,-2.540064860860838,mp-2716285
MgAg(PO3)3,3.4943,-2.540037104774659,mp-15728
K2Li2TiO4,4.2118,-2.540023648833333,mp-762240
Ba2TmMgRuO6,0.0,-2.5400172731818182,mp-2218068
SmAgO2,2.5292,-2.539877864166665,mp-753226
Mg3TeO6,2.9101,-2.539839539666666,mp-3118
RbHfC(OF)4,2.193,-2.539728187954546,mp-1204072
CaPtF6,2.643,-2.5396984625,mp-8255
MgZrTi(PbO3)2,0.004999999999999,-2.539664801666667,mp-2222785
Na3AlSi2GeSO12,2.2743,-2.539651278081896,mp-2714333
Ba4Na(SbO4)3,1.5158,-2.539544967568964,mp-6273
NaMgTiP(SO6)2,1.826999999999999,-2.539440503760491,mp-2714346
TbCl3,3.7966,-2.539397689374999,mp-23293
Rb2HoCl5,4.8867,-2.539304762187498,mp-1209512
Na10Ti5Zn3Si6(SO8)6,1.2545,-2.539081755796493,mp-2713180
BaNaPrSbO6,0.0,-2.539010650554599,mp-1521782
BaSiO4,0.0,-2.53897719625,mp-1191804
Na3AlSi2SnSO12,2.5934,-2.53887520141523,mp-2714562
LiHF2,8.0448,-2.538795086145833,mp-24199
K2CuF4,0.382399999999999,-2.538780793499999,mp-8388
Na15Ta4Zn8P15(SO24)3,3.0553,-2.538753635232187,mp-2714941
Na2Hf4Si5Sn4S7O48,1.7367,-2.5387330835989332,mp-2716199
Ca2In2O5,1.3036,-2.538643234259259,mp-769778
Na6HfMg3Si2(SO6)4,3.0787,-2.538505629248563,mp-2712732
LiP5Pb2O15,4.6531,-2.538434123110764,mp-1222447
Ba2NaSr2(SbO4)3,1.858299999999999,-2.538400447068966,mp-1228553
LiAlSiO5,0.0015,-2.538204936041666,mp-1198062
Na2Zr2Si3Ge2(SO8)3,1.0164,-2.538184083016443,mp-2713816
TiTe(PO4)3,0.0236,-2.538180725525211,mp-1043738
TiBrO,0.0,-2.538047887777776,mp-23002
Sn3F8,3.1684,-2.537928646818182,mp-1443
CaTa2(CuO4)2,0.4855,-2.537921995166665,mp-1041087
LiTi2NbCu2O9,0.0392,-2.5379206313333342,mp-694971
NaBi(PO3)4,4.7395,-2.537877772358374,mp-23621
Na2Sc2Al2SiS5O24,2.956299999999999,-2.5378605845442213,mp-2714380
BePO4,0.0,-2.537836516607143,mp-760410
Mg6CuSiO8,0.683099999999999,-2.537777658125,mp-1032102
UO4,0.0,-2.537767715999997,mp-1178842
La2Cu2O5,0.0,-2.537762702222222,mp-1147637
Na8MgSi5Sn3SO24,1.633299999999999,-2.5377003717905042,mp-2716197
NaSrZrBiO6,1.2369,-2.537648231137931,mp-1519218
CsMgSb(PO4)2,3.723,-2.53762899568776,mp-2218629
Na3SiSnBO7,2.9085,-2.53759817102343,mp-772986
Na4Y2Mg2SiS5O24,3.5654,-2.537593483500453,mp-2713425
Ba2Ca(PO4)4,0.0124,-2.537529329720496,mp-1203389
Li7Sb2P7O24,4.1158,-2.537470959270833,mp-762329
KSiSbO5,2.8079,-2.53744202090625,mp-14721
Ba2CaIrO6,0.0,-2.537359926,mp-20841
MgAlO3,0.0,-2.537314224,mp-1185841
NaTm(SO4)2,5.7586,-2.537216195948275,mp-7719
LiTiNF6,2.7812,-2.53720674449074,mp-1211870
Dy2Bi2O7,0.0,-2.5372041775757572,mp-769189
CaSm4(HO2)4,0.0,-2.537105137941176,mp-1234002
Lu2Cu(GeO3)4,0.6467,-2.537087097017544,mp-1210874
Na2Y2Al2SiS5O24,2.7718,-2.5370472564886652,mp-2714547
Na3Nb6O11,0.0,-2.537033020456896,mp-779654
CsSm2Cl7,4.4861,-2.536938557249999,mp-1213272
Ca5Si2HO9F,2.7934,-2.536930102847222,mp-1251187
NaSr3RuO6,0.5002,-2.536848641943573,mp-6233
Na3La5Cl18,3.677399999999999,-2.536847835384617,mp-1173723
KRb2IrF6,2.5351,-2.536821479225,mp-1113764
Na3B5SO8,4.122,-2.536758188233602,mp-560266
NaCa2Mg2(AsO4)3,3.1301,-2.536743130443965,mp-677573
Na6Mg3GeP4(SO12)2,2.3388,-2.536530075379516,mp-2712793
Na30Ca20Nb4Si9(S3O16)9,1.5385,-2.5365237177943563,mp-2714668
Na14Ti4Zn4Si7S5O48,1.5274,-2.536429974757851,mp-2715759
Na10La4Mg4Si3(S3O16)3,3.4733,-2.53641652689692,mp-2714708
BaSr2Y2Cu2PtO10,0.5624,-2.536334781111111,mp-1227763
Cs2NaIrF6,2.2607,-2.536311646068965,mp-1112014
Li2Be2H4NF7,6.791,-2.536309043385417,mp-1197133
Na3InGa(PO4)3,3.5624,-2.536303425986658,mp-2715396
Ti(PO4)2,0.0621,-2.536294297510822,mp-1208291
Lu2Pb2O7,1.1221,-2.536276895303029,mp-755375
CsPr(CO3)2,4.6025,-2.536249298382184,mp-18698
Na3CaInP2SO12,2.831,-2.53621411846285,mp-2712775
Na6La2In2Si3(SO8)3,2.3836999999999993,-2.53619156885273,mp-2716159
K3MgPCO7,4.6361,-2.536158554337911,mp-768670
B5Pb2BrO9,3.4116,-2.536091862401961,mp-23623
ReSbOF10,2.0016,-2.536002920961539,mp-554432
Na14Ta2In6Si9(SO16)3,0.225,-2.5359772778432172,mp-2715203
Na3SiSn4P5O24,2.9057,-2.5359471933518622,mp-2712846
KPr(SO4)2,5.5778,-2.535914334909721,mp-554057
Na2SrV4O12,2.8729999999999993,-2.535827691987297,mp-18975
CsGd(CO3)2,2.7456,-2.535793588965517,mp-541789
LiBiP2O7,4.1127,-2.535780595465368,mp-26129
Ba2InSbO6,0.523999999999999,-2.5357393936666672,mp-1206536
Na4Ti2Ga2Si3(SO8)3,1.4536,-2.535697063237296,mp-2713696
RbBiF3,1.3584,-2.5356505525,mp-677028
CdSiO3,2.8901,-2.5356085155,mp-560560
Rb2Zn3(P2O7)2,4.1684,-2.5355911273291922,mp-557089
Na2La2Al2SiS5O24,3.3385,-2.53558704519237,mp-2714376
Na4AlInSi2SO12,3.2256,-2.535530260937329,mp-2714511
Na4Y2Si3Sn2(SO8)3,0.169899999999999,-2.535446870210981,mp-2713646
TiSnP2SO12,2.5601000000000003,-2.535306267261905,mp-2713343
NaEr(SO4)2,5.7302,-2.535232650114942,mp-10476
Na12TaZn5(PO4)9,3.0004,-2.535057792629695,mp-2714966
NaSc2Al2PS5O24,3.9297,-2.535024391624443,mp-2714187
Na14Si11Sn4Ge4SO48,2.8832,-2.534996811831021,mp-2714448
Cs2Ca2(SO4)3,5.6575,-2.534985093516333,mp-1213739
Na2NbInSi2SO12,2.1455,-2.534900955627648,mp-2712563
Na5Ca2Ge2P5SO24,1.0194,-2.534870354981475,mp-2715118
Na5Al3Si3Sn(SO8)3,2.6298,-2.534791169941793,mp-2716565
Ca2YAgO5,0.0,-2.534706953518518,mvc-5327
Na3TaZnSi2SO12,2.2546,-2.53442275161523,mp-2714468
CsCaCl3,5.2834,-2.5344200994999992,mp-1206863
Na6Zr4Ga4Si5S7O48,2.5392,-2.534363051271746,mp-2716111
Ba2ZnO3,2.6704,-2.534313652916667,mp-17911
Tm2Cu(GeO3)4,0.0316,-2.5342835194736852,mp-1208000
BiPbF5,4.297000000000001,-2.534223714285713,mp-35795
Ba2SrY2Cu2PtO10,0.585399999999999,-2.534219222222221,mp-1214627
Bi2OF4,3.9632,-2.534155300000002,mp-753309
BaSr2In2O6,1.0175,-2.534151714848485,mp-1227817
CsDy2Cl7,4.5573999999999995,-2.5340730967500003,mp-1213680
Na2GaSn(PO4)3,3.1883,-2.533977066974766,mp-2713694
NaCaTaSi(SO6)2,1.2621,-2.533904483261813,mp-2712757
Rb2CdP2O7,3.485099999999999,-2.533896077232141,mp-1194560
Ba2ZnReO6,0.0,-2.533858086249999,mp-549970
Rb2Ca2(SO4)3,5.5135000000000005,-2.533825876052631,mp-558752
Na5Si3Sn2Ge2(PO8)3,2.7912,-2.533810905149363,mp-2714074
SnF3,2.7195,-2.533785512499999,mp-8289
Na3InSiSn(PO6)2,2.4968,-2.533781855671182,mp-2715433
Na2Ta2Ga2Si3(SO8)3,1.1188999999999991,-2.533765297266444,mp-2713370
BaYZn3GaO7,2.2037,-2.533679460192307,mp-1192369
Na7ZrZn3P5SO24,3.9103,-2.533671682366735,mp-2715977
Cs2RbIrF6,2.5113,-2.533594465681035,mp-1111965
Hf2N2O,1.9895,-2.53354139875,mp-780075
UBiO5,0.0,-2.53340596642857,mp-1192909
Na2Mg2Zr2SiS5O24,2.2587,-2.533332828618296,mp-2715735
Na5Ca3GeP3(SO8)3,1.2671,-2.533209310811755,mp-2714898
Mg(GaO2)2,2.6624,-2.533066767857139,mp-38951
Ba3BAsO3,1.523299999999999,-2.533021692708333,mp-9793
NaLa2Al2PS5O24,3.3922,-2.533015540862539,mp-2714089
Na6Mg4Ta2Si3(SO6)6,2.8274,-2.532979644525308,mp-2713242
SnPO4F,2.9746,-2.532968440306123,mp-1007694
K2Al2Sb2O7,3.5034,-2.53295952226923,mp-554959
Ba2Nd2MgCu2(BO5)2,0.1035,-2.532936753070174,mp-2231110
Li2CdSiO4,3.0934,-2.532890937395833,mp-557293
Ca3Ti3(AsO4)4,0.1413,-2.532890874615385,mp-1351337
Ho2Bi2O7,0.0,-2.532796064090908,mp-769229
Mg7(SiO7)2,0.190099999999999,-2.532617416521739,mp-1196427
Na7Mg3NbSi3(SO8)3,0.6248,-2.532570511963135,mp-2714181
Rb2YCl5,4.6578,-2.532508435937499,mp-1209433
ZrP2(HO3)2,4.1162,-2.53249874288961,mp-24030
Mg6AlSnO8,0.5936,-2.532442225937499,mp-1033157
La4S3NCl3,2.9165,-2.5323820695170443,mp-559256
K3PO4,3.9991,-2.5323197845491072,mp-557753
Gd3As5O12,2.387,-2.532309885124998,mp-768273
Bi2Pb3F12,4.4214,-2.532261220000006,mp-675831
Na3CaMgP(SO6)2,4.3617,-2.532205651855706,mp-2713780
SmB9(HO3)6,5.2966,-2.532028527279411,mp-1201785
NaEuNbInO6,0.0,-2.531893711304598,mp-1520667
GdHCO4,2.8483,-2.531789161250001,mp-1224646
Sc5Cu5O13,0.0,-2.531762431304348,mp-752959
Na3GaSiGe(PO6)2,2.6199,-2.53164795646285,mp-2715401
YCl3,4.9300999999999995,-2.531578373124999,mp-27455
LiAl4Cd2O8,0.0,-2.531562624222222,mp-1235830
Na3Ce2C4O12F,0.125999999999999,-2.53150096223354,mp-556236