formula,bg,formation_energy,mp-id
K2NaCeCl6,0.320099999999999,-2.29402059975,mp-1110895
K3ScCl6,3.9539,-2.2939857898750002,mp-1196072
Ba4Cu2IBrO4,2.2079,-2.293949675,mp-1228061
Rb2TbO3,0.0,-2.293594549444444,mp-13735
K3GdGe3(HO5)2,3.8274,-2.293487410355262,mp-1195258
Li5Zn4(BO3)4,0.0,-2.293455157733333,mp-756306
K2NaGdCl6,3.1345,-2.293374322250001,mp-1111234
TaZnP(SO6)2,2.6967,-2.293344613743698,mp-2713050
K2B5H5O11,4.8985,-2.293330449851448,mp-707775
K2LiGdCl6,2.8434,-2.293317335666667,mp-1111673
Ba6Sm3Al(Cu2O5)4,0.0,-2.293286507236843,mp-1228395
Sc3Bi3O11,0.0,-2.293267796176471,mp-769111
Rb2SbCl3F2,3.0086,-2.293246118125,mp-554605
Sb4Xe2F19,0.0317,-2.2931951094,mp-1196261
ZnBiF6,0.0,-2.29314638125,mp-1446593
NaSb3(PO5)2,3.878399999999999,-2.29303750261969,mp-561062
Sm4EuS5,0.0,-2.29289747925,mp-1219173
Rb3AuF6,1.0184,-2.292897381249999,mp-1206834
NbInSi(SO6)2,1.7456,-2.2928863404901962,mp-2713193
NaLaH2S2O9,4.4962,-2.29281760325862,mp-557508
Cu(BO2)2,0.0,-2.292747814523806,mp-4870
P3RuO9,0.0,-2.292726193763733,mp-558870
MgSb3P3O13,2.2438,-2.292652267196429,mp-1041149
Na2MgSiSn(SO6)2,1.3113,-2.292614619180279,mp-2713293
Na10In4Si7Ge4S5O48,2.050799999999999,-2.292612031597775,mp-2715837
Nb2Zn2SbO8,0.0,-2.29256865576923,mp-1046429
La2ZrS5,1.0739,-2.292480710937502,mp-1198687
Y2OF,0.0,-2.2924589025,mp-1206733
KDyH2S2O9,5.4769,-2.292393118761111,mp-1237296
K3SmCl6,4.6072,-2.292235718125005,mp-1110878
Ca2CuCO5,0.0,-2.29217682,mp-1227430
LiSn2P4H3O16,3.4964,-2.292165630602106,mp-759095
Na10Mg4Ga4Si3(S3O16)3,2.1275,-2.292136966127689,mp-2714804
Na5Ga3Si3Ge(SO8)3,2.455,-2.292073722569998,mp-2716287
Pr2SmS4,0.0,-2.292050788333332,mp-37070
CsBeAsO4,3.8814,-2.2920412385221662,mp-9113
Sr2GdCu2IrO8,0.0,-2.291955524285714,mp-1218849
Na2ZnSnP2SO12,2.0133,-2.291880640414615,mp-2713252
CsEuBr3,0.9373999999999992,-2.291877774931035,mp-638685
PrZn(SnO3)2,0.0,-2.291776015666665,mp-1044499
Er3Sc2S7,0.0,-2.291735904973956,mp-1225608
SrCu2(BO3)2,0.0,-2.291657395757575,mp-1191148
Nd10US16,0.0,-2.29160745203703,mp-685926
Na6Si7Sn4Ge4S5O48,1.296199999999999,-2.291500085438413,mp-2712946
SbAsAuF9,3.0581,-2.291482606875,mp-758923
CeP2H2CO6,1.3065,-2.291401904732142,mp-1190805
KNdInSbO6,1.2359,-2.291316744141665,mp-1522255
Sr2Ti2Bi2OF2,0.0,-2.291211857962963,mp-1078216
Na6MgSi6Sn7(SO8)6,1.357,-2.291110359683908,mp-2716360
Na4CaSi3Ge3(SO8)3,0.0,-2.291107012623261,mp-2713539
K3LuCl6,4.6928,-2.291047965291666,mp-1111421
NaMgSnP(SO6)2,1.953199999999999,-2.290995250982713,mp-2714330
Ba2YCu3O6F,0.0,-2.290814147307692,mp-1214572
Na4Mg3SiGeS5O24,1.5028,-2.290783269114489,mp-2713133
Rb2TlPdF6,0.0,-2.290726270833333,mp-1113632
LiSmO3,0.0,-2.290626914666666,mp-973136
Lu3S4,0.0,-2.290574807321422,mp-1222266
BiBO3,3.0096,-2.290466749833336,mp-31250
K3CeCl6,0.359199999999999,-2.290435123125,mp-1111177
Ba4Ru3O10,0.0,-2.290307375588237,mp-17304
NaBiF6,2.7315,-2.290271666875,mp-27420
KEu(SnO3)2,0.0,-2.290207433725,mp-1518112
P6(Pb2O5)5,2.776399999999999,-2.290011239094076,mp-1220209
MgSbN(OF3)2,0.7621,-2.289859960909091,mp-2224723
Mg3SnO4,0.025599999999998,-2.2897819237499992,mp-1024033
Na6Zn3GeP4(SO12)2,2.337199999999999,-2.289779920004515,mp-2712529
KDyO3,0.0,-2.289703654783333,mp-1184954
SrLaTlCuO5,0.0,-2.289667675925927,mp-1218170
NaCd4(PO4)3,2.7575000000000003,-2.289490023515393,mp-13718
K4Cd(P3O10)2,0.215,-2.289187216672811,mp-1202998
Nd2(SeO3)3,3.4891,-2.289094444073668,mp-1210071
Ba3(P3O11)2,0.2006,-2.289032107027649,mp-1228675
RbSbS(O2F)2,4.6867,-2.288881598333332,mp-554732
K2RbCO3F,3.8124,-2.2888350315,mp-1223949
K3P4H5O14,5.4137,-2.2887069919835152,mp-707172
YSb(PbO3)2,2.7691,-2.288495032499999,mp-1105409
Ba2Bi2O5,2.012899999999999,-2.288425597777783,mp-28670
MgAgF5,0.0,-2.288201064523809,mp-1401831
RbNbTeO6,2.274499999999999,-2.288146800462963,mp-1219576
CsSbS(O2F)2,4.6564,-2.288091154683907,mp-1213195
TaNb(AgO3)2,1.7114,-2.2880789280666662,mp-1217947
B2Pb2O5,2.719,-2.287972996296294,mp-1192421
Li6Bi2B4SO16,0.1341,-2.28796901979885,mp-779482
Na14Zn4Si7Ge4S5O48,1.530999999999999,-2.2877535580098822,mp-2715672
NbO,0.0,-2.287660930833333,mp-2311
KSmH2S2O9,5.5172,-2.287653049983333,mp-1203240
Pr2(SeO3)3,3.6805,-2.287634213716518,mp-683974
Ge5F12,4.3594,-2.287584770882353,mp-27342
CaAl3PSO14,0.0,-2.287321638107143,mp-1226903
BaCaInBiO6,0.8218999999999991,-2.287276573666666,mp-1518025
CaNb4O14,0.0,-2.287260858947368,mp-1227103
ZrP2O9,0.0,-2.287177985565477,mp-1197919
Ba3Te3(BrO4)2,3.2962,-2.2871031142187492,mp-1198919
TiNF5,0.147899999999999,-2.2870317859226192,mp-1179426
Cs2LaBr5,3.3266,-2.286944189913801,mp-1213736
Ba3Zr6BeCl18,1.0135,-2.286920782857142,mp-569563
Sm2Te4O11,3.2872,-2.28689454715686,mp-3073
ScP3(HO2)6,5.306699999999999,-2.28667560211039,mp-696457
LiCu2(PO3)5,0.103299999999999,-2.286647822458591,mp-760165
Na3Ga4P3(SO8)3,3.5469,-2.286617238033329,mp-2713917
Sr2Cu(BrO)2,0.0,-2.286592217142856,mp-546898
U(PO2)4,0.1003,-2.286452403351647,mp-1197391
Y2Te4O11,3.270199999999999,-2.286451440098038,mp-684017
K7Ta(SO4)6,3.6742,-2.286447423502192,mp-17455
CsSbTe6(OF5)6,2.6359,-2.28634875163989,mp-680235
Ba2CuO3,0.0,-2.286241100833322,mp-8790
Tb2SmS4,0.0,-2.285963022619046,mp-38931
BH3OF4,7.657299999999999,-2.285948338657407,mp-696379
Li2PdF6,1.8867,-2.285658211481482,mp-13985
RbDyO3,0.0,-2.285551702833332,mp-975386
KNaLi2(SO4)2,5.4134,-2.285478503056854,mp-14484
EuCuO2,0.0,-2.285445806249987,mp-13696
Ba2InBiO6,0.208,-2.285416509166667,mp-1523085
Tm2CuTe2(SO7)2,0.875599999999999,-2.285341291825396,mp-1190351
BaNaPrBiO6,0.0,-2.285320735804597,mp-1522899
Sr8Y4Cu11CO28,0.0,-2.285250132788461,mp-1173193
Ba4CeEu3Tl2(Cu2O9)2,0.0,-2.285222013177084,mp-1228697
KNaMg6O7,1.8916,-2.28515230690862,mp-1031296
Na3Mg3GePS5O24,1.8063,-2.285090102061644,mp-2713281
Na4Ga2Si3Sn2(SO8)3,1.218,-2.285050905167121,mp-2713593
ErZnO3,0.0,-2.285035998999999,mp-1184207
Ce20Ti11(S22O3)2,0.0,-2.284931675637859,mp-651710
ThS2,1.033599999999999,-2.284807075208329,mp-1146
Na15Nb2Zn10P9(SO8)9,2.4288,-2.2847868582049182,mp-2714813
Na2HF4,1.3565,-2.284757249144089,mp-37458
UTe(PbO4)2,1.745,-2.284696672638887,mp-1191464
CeSm3S4,0.0,-2.2846903343749982,mp-1226571
TbScS3,1.7696,-2.2846173261874982,mp-1188262
Na3Np(HO3)2,1.4886,-2.284571239198994,mp-1180577
Ba3Ge9O22,0.147599999999999,-2.284524254264706,mp-1204343
K2NaNdCl6,4.8337,-2.284371111250003,mp-1110893
K2LiNdCl6,4.8605,-2.284230588666671,mp-1110867
Na6ZrZn3Si2(SO6)4,2.6644,-2.284213469040231,mp-2712789
RbCaBr3,4.2996,-2.2842032740000002,mp-998536
Na6S2ClO8F,4.774199999999999,-2.284168629904214,mp-23657
Tb2CuTe2(SO7)2,0.8842999999999991,-2.283999654365079,mp-1190474
Li3Bi3P8O29,0.5346000000000001,-2.283946875863786,mp-778111
BaEuS2,0.0335,-2.283927877500001,mp-1228016
Er2CuTe2(SO7)2,0.8785000000000001,-2.283921263730158,mp-1190344
Na5Ca2Zn2PS5O24,3.7276,-2.283918582795882,mp-2713625
KCa2P4H9O17,5.5297,-2.283900358774892,mp-706303
KNdH2S2O9,5.3773,-2.283803648816666,mp-1203714
BaSe,1.948799999999999,-2.283761781171875,mp-1253
NaYZn(SO4)3,4.1296,-2.283653276048852,mp-2714136
Na3PdF6,0.0,-2.283543096416668,mp-1114262
Dy2CuTe2(SO7)2,0.878699999999999,-2.283538695793649,mp-1190393
NaGe4(PO4)3,4.428100000000001,-2.283527078765393,mp-558862
PrS,0.0,-2.28349878723958,mp-2495
Na2Zr4Zn4SiS11O48,2.504099999999999,-2.283435944551315,mp-2714173
Eu2Cu(GeO3)4,0.1997,-2.283422741578948,mp-1213059
Na3SiBiCO7,3.4077,-2.283334479549071,mp-768663
Cd4OF6,1.8997,-2.283292852727279,mp-28855
RbMg6BiO8,3.8549,-2.28328381734375,mp-1033513
NaPrInSbO6,1.4201,-2.283235541971264,mp-1520014
NaNbZnSi(SO6)2,1.1353,-2.283179370076629,mp-2712749
MgSO3,5.009399999999999,-2.2831668565,mp-769397
La2P3H7O11,4.5575,-2.283129577725154,mp-1180966
Ba2InRuO6,0.3628,-2.283057114333334,mp-616601
Dy2Ge2O5,0.0,-2.282943559814814,mp-1184160
Na4MgSi3Ge3(SO8)3,0.0583,-2.2829246602987,mp-2713278
Ce2B12Br2O27,0.0,-2.282914176046511,mp-1228669
Sr(ScS2)2,1.356999999999999,-2.282851445535714,mp-17678
Na2TaIn3Si2(SO6)4,1.955999999999999,-2.2826923233358882,mp-2712554
Na4ZrZn3P2(SO6)4,3.3321,-2.2826651124070962,mp-2713367
Ca2CuSbO6,0.343199999999999,-2.282519315499999,mp-1372293
Sb2AsAuXeF14,3.2728,-2.282482570263159,mp-1201608
Ho2CuTe2(SO7)2,0.8660000000000001,-2.282444884206348,mp-1190440
Sr2CaCu6(BO3)6,0.4482,-2.282377914848485,mp-1218946
LiPrNdO2,0.0,-2.2822433265,mp-1236395
TaCl3O,3.0691,-2.282241472466665,mp-1208583
SmP3H5NO10,5.369999999999999,-2.282181278258927,mp-697974
BaSr3Cu8(BO3)8,0.0,-2.282027969166666,mp-1228284
Ba2PdO3,0.0,-2.2819422708333352,mp-29352
Bi2B3HO8,3.225199999999999,-2.281887564910714,mp-1200581
In2PO5,2.073399999999999,-2.281866629122024,mp-31232
Li2BiPCO7,3.8369,-2.281816184692459,mp-768216
Na6Ca4Si3Ge4(S3O16)3,1.3011,-2.281806583861837,mp-2713992
K2BiPCO7,3.8382,-2.281651434095237,mp-772808
Na2NbGa3Si2(SO6)4,1.735599999999999,-2.281526302275703,mp-2712620
Cs2TbO3,0.0,-2.281446337662835,mp-1213718
Ho2Ge2O5,0.0,-2.281445611666665,mp-973592
Ba2TlSbO6,0.0,-2.281407364333334,mp-1228332
NaZnSiO4,0.362199999999999,-2.281276830197043,mp-1194369
K3NdCl6,4.5581,-2.281193550624999,mp-1110882
K4Ba(GeO3)3,3.2348,-2.281119610529412,mp-557584
Pr10US16,0.0,-2.281087523719133,mp-675336
SiBi2O5,2.7077,-2.280801145625002,mp-28144
KGdH2S2O9,2.7706,-2.280752725816667,mp-1198535
Na6Ca2Si5Sn6S7O48,0.9316,-2.280534213929404,mp-2716084
Ba5Na2Ru3O14,0.1436,-2.280405142406608,mp-1229142
Cs3Mg2Cl7,4.3797999999999995,-2.280204703247127,mp-568137
K2CaAs2O7,3.513,-2.280172803499999,mp-557367
Zn3(BO3)2,2.7833,-2.280094912575757,mp-557683
RbGdH2S2O9,2.6941,-2.280083629666668,mp-24617
Na6Si7Ge8S5O48,1.5122,-2.280029532960936,mp-2713022
BaCaO3,0.0,-2.279992301,mp-1183285
SrCuSF,1.5126,-2.279969743203125,mp-12444
K3P3H4O11,5.412800000000001,-2.279909065925169,mp-707908
Gd2Te4O11,0.248,-2.279731501274494,mp-542515
Na10Zn2Si7Ge6S5O48,1.4039,-2.279723297879826,mp-2714167
Li2Cu2F5,0.0,-2.279606559814814,mp-762259
P3RhO9,1.691799999999999,-2.279308427994506,mp-14935
Na10Mg4In4Si3(S3O16)3,2.2766,-2.278994706341364,mp-2714726
BaY2Br8,4.096,-2.278853251363636,mp-754116
LiMg6CO8,0.9525,-2.278792699895833,mp-1031146
Ba2Cu2Te2P2O13,0.0,-2.2786792841723362,mp-1194948
Na2Ti2Zn2SiS5O24,1.2535,-2.27866732519237,mp-2714612
Ba(CeS2)2,0.0,-2.278637804285712,mp-38417
Ti3AlSe2ClO8,0.395799999999999,-2.2786275463125,mp-1048587
HgSb2F13,0.201899999999999,-2.278618883125001,mp-1199212
Li8TbO6,0.0,-2.278508137555555,mp-8425
Na3Ca2BiO6,1.5495,-2.278402140344827,mp-557506
K2Nd4Ge4O17,0.0,-2.278391252018517,mp-1212472
Na2P2O7,0.0,-2.278369266094938,mp-735132
KRb2CO3F,3.647,-2.27831643278125,mp-1223355
Mg2H2O3,3.5665,-2.278286676785714,mp-30244
Na5P3H2O11,0.3449,-2.278065357777386,mp-722904
Ti2(SO4)3,0.0,-2.278015067598038,mp-768516
Mg2SnSbO6,0.0,-2.277932152499999,mp-1366935
BiB4(HO3)3,4.233,-2.277855222377451,mp-1202291
BaMg(SbO3)2,2.724199999999999,-2.277826141500001,mp-2224172
Ba4Yb(CuO3)3,0.0,-2.277796831985293,mp-653337
CaMgBiSbO6,1.4974999999999992,-2.277626647500001,mp-1521764
Na2Ca3Ge(SO4)6,0.0464,-2.277591304335888,mp-2714244
LaP3(HO2)6,4.8393,-2.27755838801948,mp-1191281
MgSc2(AgO3)2,0.0,-2.277347102575757,mp-2222788
CsB(CF4)2,6.4977,-2.277315798235153,mp-505375
Gd3Sc2S7,0.0,-2.277265811640622,mp-1224776
SrB6(H4O7)2,5.4172,-2.277245756465515,mp-721618
Ti2Ga2SiS5O24,2.1948,-2.2772075931127462,mp-2713020
RbMgCl3,4.7503,-2.277182414499999,mp-27208
Ce3S3N,0.0,-2.277140687812497,mp-543033
LiEu(SO4)2,0.0,-2.277028959444445,mp-621928
NaMg3Nb(SO4)6,0.200499999999999,-2.276996926896553,mp-2714626
Cu3B7BrO13,0.0,-2.276922489548611,mp-554590
Cs2CeCl6,1.823599999999999,-2.276860933888886,mp-1101094
SbIF5,0.5646,-2.276703292499999,mp-23403
LaYbSe3,0.0,-2.276646920437497,mp-11784
KNdPdO3,0.6506000000000001,-2.2765922624583332,mp-558831
PrClO2,0.0,-2.276532652916666,mp-1179810
CsNbS2O9,2.7579,-2.276473293050399,mp-1196826
AgBF5,0.0,-2.276470174642857,mp-5160
NdBi2IO4,1.265399999999999,-2.2763558465625002,mp-549333
DyScS3,1.773699999999999,-2.276298546687499,mp-1184176
GdClO2,0.0,-2.27625798,mp-1079326
Mg2As2O7,3.0403,-2.276241102727271,mp-5618
SbHSF10,4.819100000000001,-2.27621725875,mp-1196491
Na3Ta2Zn4P3(SO6)6,3.1554,-2.2761994524580222,mp-2714401
SnSb3(PO4)4,0.0,-2.276197720148809,mp-772045
B5H2Pb2O11,0.1591,-2.276078349291666,mp-707942
Mg6NbBiO8,0.088599999999999,-2.276050105,mp-1033359
K2In2P2HO10,0.1349,-2.275937950639356,mp-733854
Rb2CuF6,0.0,-2.275893610555554,mp-1206438
Na6Mg7Sn(SO4)12,2.7289000000000003,-2.275660020382107,mp-2715091
NaLiSi2H4O7,4.8696,-2.275643727647508,mp-1192726
Na42Ta4Zn20Si15(S7O48)3,2.1416,-2.275572757336441,mp-2716015
KUH3SO8,2.165499999999999,-2.275513088107142,mp-1204032
Na2B5H5O11,4.9655000000000005,-2.275494170319214,mp-720593
La2HfS5,1.0901,-2.275452682695313,mp-1197947
Li2Ti3(BiO3)4,0.0,-2.2754499567460322,mp-630234
RbTeOF4,0.0,-2.275399114523809,mp-1193891
K2TlIrF6,2.2493,-2.275359082783333,mp-1111422
YScS3,1.7758,-2.275333159687498,mp-7792
K2NaPrCl6,4.7855,-2.275252412916669,mp-1110892
Na6Ca2Zn2SiS5O24,3.1338,-2.275214512144397,mp-2713723
Ba3LaY2(Cu3O7)2,0.0,-2.275214167115384,mp-1228381
Cd2Sb5O2F31,0.0,-2.27517516075,mp-1199437
LiBePO5,0.0,-2.275170436309524,mp-1204508
SbIF10,4.0684,-2.275143939583333,mp-30214
NaTbH2S2O9,5.736199999999999,-2.27514387625862,mp-1195192
Sm2CuTe2(SO7)2,0.8773000000000001,-2.275050749920634,mp-1190446
K2LiPrCl6,4.8264,-2.275048830333337,mp-1110866
CsMg6BO8,0.6152999999999991,-2.275014024926364,mp-1099263
Li2CuBi(PO4)2,0.7576,-2.274928490068027,mp-778969
ScP2H5O9,4.8909,-2.274896055619749,mp-1209257
RhPb2F7,1.7702,-2.274882263499998,mp-14276
RbMg6SbO8,3.6432,-2.274850039843749,mp-1033567
Sb5(PO4)6,0.3398,-2.274785141367346,mp-1101576
Zn3Cu2(Si2O7)2,0.2433,-2.274659114347825,mp-1250217
Nd2Te4O11,3.292,-2.274413674803908,mp-5121
Eu2Ru2O7,0.0,-2.274394330909098,mp-637431
Rb2LiEuCl6,0.0,-2.274363513333333,mp-1113978
Na6In4Si3(SO8)3,0.0562,-2.274131209769397,mp-2716126
CaSn(GeO3)2,1.8707,-2.274042678749999,mp-1043030
SrCaGaBiO6,0.0,-2.27395230075,mp-1516278
Rb2MgCl4,0.0009,-2.273943634285713,mp-1025227
LiAl2(HO2)2,0.0,-2.273904241759259,mp-1236333
SmS,0.0,-2.27385046625,mp-1269
Sm(DyS2)2,0.0,-2.273820828333332,mp-34987
SnBO3,2.417099999999999,-2.273767179333333,mp-772724
NaMgSn3P3(SO8)3,2.373,-2.273738399270702,mp-2716444
SrAsO3,0.0,-2.2736955725,mp-978851
PrSm3S4,0.0,-2.273576948333332,mp-1219738
Si(PbO2)2,2.6620999999999992,-2.273504348035712,mp-555786
SrTeO4,2.2486,-2.273476966527777,mp-4274
Na2PtF6,2.7424,-2.273279053703704,mp-1192379
InAgP2O7,2.4499,-2.273233377056276,mp-1204248
SrGeTeO6,2.9532,-2.273197172407407,mp-10341
Cs4ZrO4,2.7365,-2.273180096235632,mp-28543
Nb2Zn2CuO8,0.065499999999999,-2.2731216034615382,mp-1046840
NaNdH2S2O9,5.748,-2.2730853972030642,mp-560799
KSnPCO7,2.6819,-2.272960458353894,mp-772809
KTbO3,0.0,-2.272926431783332,mp-981313
YIn(SO4)3,3.0773,-2.272772765441177,mp-2713725
CuSiO3,0.0,-2.272638924666667,mp-556982
Na3GaSi3Sn3(SO8)3,2.142,-2.272513322138863,mp-2716524
Ba4NaMgCu(CO5)2,0.5224000000000001,-2.2724839319147,mp-2232061
Th7S12,0.0,-2.272468649144738,mp-1217388
La2ThSe5,1.118199999999999,-2.272254670664061,mp-1198974
Pr6IrCl11,0.6397,-2.272252630972221,mp-975605
Rb3CO3F,3.4607,-2.2722239040625,mp-8774
BaU3O14,0.0,-2.272160981388888,mp-1203939
Na10Al4Zn4Si3(S3O16)3,3.3529,-2.272088624161878,mp-2714817
Na2SiBiBO7,0.073499999999999,-2.272033874743773,mp-772999
Ba4I6O,3.9787,-2.271982365909091,mp-29909
TaSb3O8,2.3703,-2.27191142936111,mp-1217944
Al2Cd3(GeO4)3,2.9874,-2.271887525875,mp-1214967
YbBi2ClO4,0.0,-2.271845920312504,mp-561808
Sr(AlCl4)2,5.8210999999999995,-2.27181765215909,mp-30024
Ba2Ti4Tl2Zn3O12,0.0,-2.271791479130435,mp-1047851
K2SO4,5.2168,-2.271758034928568,mp-4529
TbS,0.0,-2.27145201640625,mp-1610
Na3Sb3(PO7)2,2.1435,-2.271439127655618,mp-1210360
Rb2LaBr5,3.4819,-2.271334185000001,mp-1209612
Li2SbPCO7,4.0421,-2.27128870844246,mp-1177866
UH2Cl2O3,1.9788,-2.271238936562499,mp-1217058
RbTbO3,0.0,-2.271124349833333,mp-980058
MgIn2O4,1.5693,-2.271007043333332,mp-676338
CaB3H5O8,5.7001,-2.270877465514705,mp-560899
UCd3O6,1.7871,-2.270865616499999,mp-754725
Na2AgF4,0.561299999999999,-2.270849716428571,mp-1104717
LiGaGeO4,2.9044,-2.270792243214286,mp-8702
Na8Zn2Ga2Si3(SO8)3,2.0592,-2.27075862750479,mp-2715163
ScSnO3,0.0,-2.270678536999999,mp-981376
Y2CuTe2(SO7)2,0.879,-2.270457513730158,mp-1190208
CeSBr,0.0,-2.270448176249998,mp-1213818
AlIO,1.6572,-2.270353821666667,mp-1214837
NaDyH2S2O9,5.5663,-2.270056760814176,mp-1195286
Na2CuBiF6,0.4491,-2.269895509750001,mp-1111279
ThGeO2,0.0,-2.269826208749998,mp-1208213
CaTeO4,2.2712,-2.269806247777776,mp-12221
La5TlS8,1.5612,-2.269697551309522,mp-35714
Sr2YCu2PbO7,0.0,-2.269653318846153,mp-1208525
CaB6(H4O7)2,5.1002,-2.269433535862068,mp-1198301
Cs4K2Cu(SiO4)2,0.3176,-2.269421870477687,mp-628617
KCaBr3,4.4047,-2.269419568450001,mp-998599
CaAl4Tl4O12,0.8502999999999991,-2.269417090634922,mp-1233248
Na2CaSiGe(SO6)2,0.0,-2.269402652952209,mp-2713323
Pr3SiN3O2,1.578699999999999,-2.269371483333332,mp-1219842
BiP3Pb4O13,3.3716,-2.269370257925171,mp-559583
Ba3La3(Cu3O7)2,0.0,-2.2693484501923082,mp-1228365
RbNbS2O9,2.7814,-2.269225859038462,mp-562977
TcF4,1.3061,-2.269207849999999,mp-1203061
CaCuSiH2O5,0.121999999999999,-2.269173210749999,mp-703515
La14Sb8CO7,0.0,-2.2690859551666662,mp-1200169
Li3AsO4,4.1268,-2.2690334671875,mp-9197
Cs3Tb10C4Cl21,0.6759000000000001,-2.269019501595584,mp-571397
Ga2O3,2.007799999999999,-2.268996668999999,mp-886
ScSb(PbO3)2,2.7561,-2.2689200305,mp-1219286
TaInBi2O7,2.322599999999999,-2.268673407181817,mp-1217945
Pr20AlSi19N33Cl2O19,3.0125,-2.2686555628014182,mp-721011
LaIn(SO4)3,3.1025,-2.2686420409313732,mp-2713996
Y2SiGe2S5O24,0.8733000000000001,-2.268567115220589,mp-2713100
Nd2CuTe2(SO7)2,0.8712000000000001,-2.268548014444443,mp-1190435
YGa(SO4)3,3.506,-2.268453992549021,mp-2713903
Sr2GdCu2RuO8,0.0,-2.268234198214285,mp-1194240
KCeH2S2O9,0.013799999999999,-2.268196608816666,mp-510463
NaP4(RuO7)2,0.0097,-2.268163073330987,mp-1220996
BaZnCl4,4.6302,-2.268066550833335,mp-23373
NaScZn(SO4)3,4.271000000000001,-2.26806407706737,mp-2714151
La(BiO2)2,0.0,-2.268005356428572,mp-753380
Pr(SnO3)2,0.0,-2.267976904629629,mp-1044492
KRb2EuCl6,0.0,-2.267908983725,mp-1114042
AlSnP(SO6)2,3.1267,-2.267850087429973,mp-2712928
P3Pb5BrO12,3.2342,-2.267795019234693,mp-1220062
MnAs2S2(OF3)4,1.801699999999999,-2.267552622758621,mp-542064
SrP2(HO4)2,0.0,-2.267423657445055,mp-1192599
Sr(YSe2)2,1.4587,-2.267338949107142,mp-1193100
LaB5H5NO14,3.4857,-2.2672571466185882,mp-1202407
Cs2PbClF6,0.098999999999999,-2.267163648931034,mp-989549
Na7ZnIn3Si3(SO8)3,2.6498,-2.26710021444281,mp-2714121
Zr3CuF6,0.0,-2.267027206,mp-1207697
Ca2La3Cu4AgO12,0.0,-2.2669641303030312,mp-1227548
Na2Ca(Ge3O7)2,2.7066,-2.266959179250374,mp-1221459
Ba2CoCl6,0.245999999999999,-2.2668844977777782,mp-29812
BPb2O3F,3.1984,-2.266858759642855,mp-1202733
Na10Ga8Si5S7O48,2.9758,-2.266856953841365,mp-2715069
LiBC2(O2F)2,3.750099999999999,-2.26682300375,mp-1105683
Tb2Nb2S7O30,0.1275,-2.266696030630081,mp-1204213
Li5Cu3F14,0.4547,-2.266574487090905,mp-760811
Nd3Bi(Ru2O7)2,0.0,-2.266565662840909,mp-1220276
Na6Mg6SiSn2S11O48,1.6741,-2.266556096677151,mp-2713622
MgTi2Si2(Ag2O5)2,1.0574,-2.266433355701753,mp-2232007
CsZn3(PO4)3,0.0,-2.266381536504408,mp-726272
Gd2CuTe2(SO7)2,0.0112,-2.266357448492062,mp-1190515
CsGdO3,0.0,-2.266336368931034,mp-984082
RbCeH2S2O9,0.041199999999999,-2.266334815,mp-504990
Ba7Li3(RuO5)4,0.0,-2.266288590882353,mp-1228662
YbSm4S5,0.0,-2.26623924090625,mp-1215576
Cs2AsAuF6,0.856499999999999,-2.266177911681034,mp-1113149
NaReO4,3.615199999999999,-2.266176710646551,mp-5558
Ca2S2O7,0.186599999999999,-2.266167237045453,mp-1198348
Rb2NaEuCl6,0.0,-2.266146713137931,mp-1114020
Na17Al5O16,2.4421,-2.266138905880217,mp-559916
Na6Mg7Ge(SO4)12,2.5984,-2.266095839030755,mp-2714979
Li2Bi2B2O7,3.0042,-2.266088386666667,mp-768821
K2SbPCO7,3.833299999999999,-2.266041721595237,mp-756981
Nd2Nb2S7O30,0.1134,-2.266001889939023,mp-1202258
Sm2TmS4,0.0,-2.265985883571429,mp-36150
SrPrZnBiO6,0.0,-2.265966943166667,mp-1522142
Na2InAsF6,1.609899999999999,-2.265938955416666,mp-1111075