formula,bg,formation_energy,mp-id
Ti3Pb5F19,0.028599999999999,-3.093142687592592,mp-1208830
KScO2,3.624099999999999,-3.093135745562499,mp-8188
Ca2Al2SiO8,0.0,-3.093015568076922,mp-1227478
NaYP2O7,5.2806,-3.09300787369682,mp-9427
PrMg(BO2)5,5.9464999999999995,-3.093005201029412,mp-1209670
La2BeGa2O7,3.7895,-3.092897074583332,mp-1211518
PrSmO2,0.0,-3.092887266666666,mp-867735
K3LuSi2O7,3.6132,-3.092836822570512,mp-557543
BaSi3SnO9,3.7306,-3.092743077142858,mp-18502
Nb20(O13F7)3,0.0,-3.092693960749999,mp-685445
Ba6HfO8,2.5859,-3.092502083333333,mp-755610
HoIO,3.4546,-3.092498383333333,mp-753173
BaCaCeSnO6,2.0629,-3.092412343249999,mp-1521220
Ba2DySbO6,3.4688,-3.092258773166665,mp-6192
Na17Zr7Sc5Si6(PO6)12,4.1506,-3.09206374516103,mp-693746
Ba6Nb3HO14,3.4195,-3.092055730677083,mp-1204543
NaNdNb4O12,1.3404,-3.09200294604885,mp-1220993
KEuTiO4,0.0,-3.091904857583334,mp-1211712
Nd3OsO7,0.0,-3.091886021136346,mp-17666
Mg4Nb2O9,3.4212,-3.091869043333334,mp-17841
SrEuZrSnO6,0.6193000000000001,-3.091793732,mp-1519044
Ca3Be2Si3(HO6)2,5.168799999999999,-3.091552772840909,mp-699464
Na5Zr2Sc2SiP5O24,3.9705,-3.091530023336175,mp-2716040
Pr2Y2O5,0.0,-3.091418369814814,mp-1186702
K3TmSi2O7,3.755499999999999,-3.091405516416668,mp-16598
Cs3Eu(Si2O5)3,0.6834,-3.091351737458621,mp-1229260
PrB2ClO4,5.0695,-3.091260808124999,mp-556450
CaBe3O4,3.911499999999999,-3.091127485625,mp-754739
Ti4O5,0.0,-3.091059832037038,mp-10734
HfNb(PO4)3,2.9362,-3.090933334838936,mp-2713909
YBe2B5O11,5.3906,-3.090871714517543,mp-1020740
NaLaTa3SiP5O24,3.120199999999999,-3.090641400807437,mp-2715545
K2Mg3Zn2(Si2O5)6,4.388999999999999,-3.090634864479592,mp-1224589
Lu2Ge2O7,3.7065,-3.090631562803037,mp-8346
BaSrZr4O12,0.0,-3.090525266111111,mp-1521222
SrEu2BeO5,0.0,-3.090513773888891,mp-1218318
Ca2ZrTi(GeO5)2,3.0146,-3.090354977083333,mp-1227737
LiTb2(PO4)2,0.3314,-3.090329278919413,mp-1232986
Rb2Y2(PO4)3,0.0303,-3.090327935864662,mp-1209577
K4Nb2Si8O23,3.793999999999999,-3.090289875783783,mp-542100
La10Mg(Ga3O10)3,0.0,-3.09015334285,mp-695030
Ba4NaB10Cl(O9F)2,5.2856,-3.090065891751277,mp-1199057
Rb2LiGaF6,6.1124,-3.089955832083333,mp-14638
Gd3AuO6,1.5063,-3.089925464999999,mp-10559
LaO2,0.0,-3.089907305,mp-1206559
Rb8BaNaAl11Si13O48,2.0499,-3.0897046402607242,mp-695608
NaBe3Al2Si6O19,0.7872,-3.089673408431591,mp-1210148
Rb2NdCuF6,0.691199999999999,-3.08967114525,mp-1110660
NaCaBe2B2O6F,5.0458,-3.089655617670204,mp-1193627
LiCeO2,0.0,-3.089388760208332,mp-8412
NaYCO3F2,5.2481,-3.089105007359913,mp-558160
Si17NO34,3.4089,-3.089055224423077,mp-726849
Sr2Li2Nb4O13,1.424799999999999,-3.089025292936508,mp-753864
Li3Nd2(BO3)3,4.7893,-3.088789137941177,mp-15362
HfTaNO3,2.8895,-3.088787772888887,mp-1103592
SrNb6O16,1.6323,-3.088678538695652,mp-14482
K2YTi(PO4)3,2.5593,-3.088377105882204,mp-686482
Nd5Ge3O13,0.0,-3.088222007976191,mp-1210026
Ho2Ge2O7,3.252,-3.088216099090916,mp-753692
KPF6,7.036799999999999,-3.088211671486607,mp-4608
Na2LaTa3Si2(PO6)4,2.9492000000000003,-3.088171618194353,mp-2715617
Al2CuSi2O7F2,0.9716,-3.088115564285714,mp-557084
Li7Nd3Zr2O12,4.2749,-3.088062591180554,mp-1198740
Y2TiCuO6,0.0,-3.087970947333333,mp-1216142
Ba2CaNbO6,0.0,-3.087818578,mp-1214679
Sr2GdGaO5,2.339299999999999,-3.087806906944446,mp-1218806
KBOF2,6.059799999999999,-3.087792037616666,mp-1195407
KNa2TiF6,0.0,-3.087698711334195,mp-1111003
Ba5Cu4ClF17,0.106199999999999,-3.08755935462963,mp-559141
Gd2CdO4,0.0,-3.087541293571429,mp-754093
KY2Ti2S2O5,0.0,-3.087450326993055,mp-6847
GdBe2B5O11,0.3102,-3.087406972543859,mp-1195691
RbTmO2,3.663599999999999,-3.087397629375002,mp-7478
Li3Y2(BO3)3,4.7924,-3.087396399264705,mp-1211286
RbNaMg3Zn2(Si2O5)6,4.2766,-3.087274988446516,mp-1219802
LiNbF5,0.051399999999999,-3.087235142095238,mp-761164
KU2P3O14,2.346199999999999,-3.086994967808926,mp-606691
Mg2TiBO5,0.0,-3.086934842222223,mp-1210684
Rb2YTi(PO4)3,2.5494,-3.086774677487468,mp-697317
LiLa2Nb8O24,0.0,-3.086758046380953,mp-1222446
La2Nb3(SO4)2,0.368699999999999,-3.086689911833333,mp-1211629
Rb2CeCuF6,0.0,-3.086550719499999,mp-1113307
Ti3ZnO7,2.9105,-3.086527976363635,mp-1043918
KNaMg3Zn2(Si2O5)6,4.285,-3.086494195074068,mp-1223684
CaNdGaO4,3.8581,-3.08640253,mp-1227100
K3ErSi2O7,3.7371,-3.086262415262821,mp-16597
Na7Zr3Nb(SiO4)6,2.7923,-3.086092286333053,mp-2713025
Rb2TiHgF6,2.3262,-3.086033571083334,mp-1113935
CaBPO5,5.3231,-3.086029206517857,mp-6667
CaAlSiHO5,5.2447,-3.085990001805555,mp-24402
Y4Cu2O7,1.567899999999999,-3.085859221923076,mp-755210
Ca2Ti9O13,0.0,-3.085822926875001,mp-1045642
SrCaTi(PO4)2,0.3346,-3.085739913663003,mp-1046217
Na3Y2(PO4)3,4.6651,-3.085729576528325,mp-2715359
CsZrOF5,1.136399999999999,-3.085708479331896,mp-1189092
LaTa2AgO7,1.5627,-3.085698859666666,mp-1222747
BaZnSbF7,4.3858,-3.08558458925,mp-1041326
SrDy2CuO5,0.0,-3.085557710092592,mp-17687
Na4YHfSi2PO12,3.8566,-3.08545489008699,mp-2716132
K2CeNb5O15,0.0,-3.085411991065217,mp-21546
Tm2Ge2O7,3.725,-3.085245870681825,mp-14708
Sr2LiBeB3O8,4.9369,-3.085197766055542,mp-1020647
BaSrDySbO6,3.549699999999999,-3.085056982666665,mp-1518907
Ca2AlP2O9,0.0,-3.085039444234694,mp-1193850
Na3ZrScSi(PO6)2,4.0744,-3.084951495171181,mp-2715472
Na2TaNb(SiO4)3,3.1327,-3.084798133952208,mp-2714408
Na3LaTa3Si3(PO8)3,2.9848,-3.084722107073871,mp-2712906
La3Nd(GaO3)4,3.4201,-3.084561725125,mp-1223104
MgTi2P2(O4F)2,0.1269,-3.084489598063493,mp-2226777
Na5Hf3MgSiP5O24,4.2736,-3.084280239019936,mp-2715887
Li2U3(PO5)4,2.1734,-3.084229603628899,mp-558910
Na3Y2Hf2P5SO24,4.8835,-3.084110302743754,mp-2716005
Ba2TbSbO6,3.507199999999999,-3.084002428666667,mp-6265
Sr2Li2Nb3O10,0.0,-3.083964506862746,mp-756684
Sr2La6TiCu3O16,0.044599999999999,-3.083868887619048,mp-684769
Ca13Si10(O17F5)2,0.0581,-3.083843169701492,mp-1182805
SrErO3,0.0,-3.083582123,mp-1187147
Na7CaHf3Si3(PO8)3,4.0112,-3.083525118380092,mp-2714940
Li3Ti(Si2O5)3,0.323099999999999,-3.083487563033334,mp-772545
Al4(B2O5)3,5.8172999999999995,-3.0834730528,mp-31408
Rb16Er7Ti9(PO4)24,2.588899999999999,-3.083462628035713,mp-686635
Na6Hf2Zr2Si5SO24,4.1906,-3.083459138144397,mp-2713809
Na3Ta2Nb2Si5PO24,2.956,-3.08339953495804,mp-2714577
NaAlPO4F,5.4354,-3.083286763252771,mp-8678
K9U6BiO24,1.7081,-3.083181360881249,mp-558206
LiScP2O7,4.7646,-3.083152960692639,mp-10517
NaZrTi(PO4)3,2.424299999999999,-3.08310371844303,mp-2713217
BaDy2CuO5,0.0,-3.083058379537037,mp-22550
Sr2LiLaTaO6,0.0,-3.0829150823333342,mp-1235205
Ba2LuReO6,0.0,-3.082907085916667,mp-1214813
LaB5O9,4.4998000000000005,-3.082861426555554,mp-30926
Li2Ti3NbO8,0.0,-3.082769079226191,mp-776215
Na3YZrSi(PO6)2,3.9834,-3.082646720546182,mp-2715417
Be3Al2Si6HO18,4.806900000000001,-3.082550168541667,mp-1214221
Ti5O7,0.0,-3.08251806847222,mp-1045759
La4Bi2O9,2.5957,-3.082437583666668,mp-753883
Na10Hf8Si9(SO16)3,4.363099999999999,-3.082408240807177,mp-2714028
BaEu2O4,0.0,-3.082200369285715,mp-1019738
AlTlSi3O8,4.586,-3.082131854102565,mp-1228177
La2Nd(GaO3)3,3.4333,-3.081888960166668,mp-1223331
SrEuO2,0.0,-3.081852313750001,mp-755714
Sr2LiTi6N2O11,0.0,-3.081819471287879,mp-1235147
Cs4KLiGa2F12,6.0451,-3.081775397710201,mp-15079
Ca3TaGa3(SiO7)2,3.9122,-3.081639833036231,mp-6853
K2PrNb5O15,1.8979,-3.081600760268117,mp-1211647
K3HoSi2O7,3.721599999999999,-3.081576141160257,mp-16596
Li3Zr4(PO4)6,0.0466,-3.081503326428571,mp-771710
Na4Al3Si3ClO12,4.697500000000001,-3.081129688500749,mp-23145
PaO3,0.0,-3.081037021250002,mp-861975
KThP3O10,5.0116,-3.081015655578571,mp-559645
Li7Ti7Nb5O30,2.1219,-3.08095637197279,mp-767392
Na3Zr2Ti2SiP5O24,2.5574,-3.080951584973484,mp-2713060
Na10Y7Ta(PO4)12,3.4385,-3.0808473583355642,mp-2713510
Na3Ta2Ti2Si3(PO8)3,2.6811,-3.080822898362158,mp-2713089
Li3Pr2(BO3)3,4.7562,-3.08077181740196,mp-13772
Ba4NaAl2B8(ClO6)3,4.673,-3.080735715408685,mp-1204585
K2NdNb5O15,1.8534,-3.080683697260869,mp-1211895
Sr2TbSbO6,3.5439,-3.080657464916666,mp-1517293
Na6LaTa3(SiO4)6,3.7086,-3.080631883131896,mp-2715322
NaTaNbSi2PO12,3.0128,-3.080444596945677,mp-2713379
La3Al2Ga3SnO14,3.6378,-3.080299642717392,mp-1223112
Eu2BrO2,0.0,-3.080129076000003,mp-605786
K2Y2(PO4)3,0.031099999999999,-3.080057542680451,mp-1211807
MgTi2ZnO6,3.187699999999999,-3.079953116166667,mp-1221954
NaEuTiO4,0.0,-3.079937876030378,mp-21307
SrLiPO4,4.4543,-3.079934706853741,mp-1208633
Be3Al2Si6O19,0.8145,-3.079922909666666,mp-727940
Na14Zr8Si11SO48,4.1789,-3.07960952272533,mp-2714386
K2NaGaF6,5.952,-3.079559579337931,mp-1111106
K2YNb5O15,1.6128,-3.079514601717392,mp-558325
ThTl3F7,3.1788,-3.07901688522727,mp-29030
KPrNb4O12,1.6235,-3.078921073828703,mp-1519012
NaCaAlPHO5F2,5.373399999999999,-3.078918621856013,mp-1210199
Na3Zr2Nb2Si3(PO8)3,2.9288,-3.078862754722519,mp-2713098
Ca3Y2(GeO4)3,3.426599999999999,-3.078806506875,mp-669331
La5Ti2CuS5O7,1.2107,-3.078613080958334,mp-559474
Cs2LiGaF6,6.111499999999999,-3.078533694014368,mp-6654
Ti3PO7,0.0,-3.078507964512987,mp-867750
Na6Hf3MgSi2(PO6)4,4.2568,-3.078273517546183,mp-2715407
Sr2CaNbO6,0.0,-3.078248609250001,mp-1208975
CeMg(BO2)5,0.289999999999999,-3.078082982549019,mp-1213931
K3DySi2O7,3.7062,-3.078036326032047,mp-16595
Ba3NaTaO6,3.4044,-3.078000449882968,mp-8961
KNdNb4O12,1.5341,-3.077831287486112,mp-1518765
GdGaO3,3.3962,-3.0777339375,mp-18656
Na9U3Si4(O10F)2,0.0,-3.07768283874773,mp-1204232
Ce3Ta(Cl3O2)2,0.2115,-3.077668140523809,mp-1213823
BaSrTbSbO6,3.5885,-3.077656314166667,mp-1520523
La4Ti5(TeO8)3,1.589,-3.077641947407407,mp-1223346
Na2Sc3Ta5(PO4)12,2.6845,-3.077605275716279,mp-2713839
KNaCaMg5(SiO3)8,0.0007,-3.077604101840731,mp-1223552
CaEuMgNbO6,0.0,-3.077558317,mp-1520122
RbNpO3,0.0,-3.077545228250001,mp-975288
Sm3AuO6,1.7477,-3.077528223500002,mp-10560
La3IrO7,0.0,-3.077486343636363,mp-1191066
Na8CaHf3Si4(PO12)2,4.0714,-3.077397213817147,mp-2715718
BaNdGaO4,3.7355,-3.0773933725,mp-541281
Na4LaTa3Si4(PO12)2,3.051,-3.077280786450955,mp-2714933
Na4Y3Ta(PO4)6,3.2486,-3.077276524141432,mp-2713662
Li2Si3O7,5.3594,-3.077189366597222,mp-555899
Ca3Si3(HO5)2,4.745999999999999,-3.077182623194444,mp-1202207
BaCaZr4O12,0.0,-3.077109475555556,mp-1523340
Na5ZrSc3(PO4)6,3.8232,-3.077090741104796,mp-2713446
Nd2AlNO3,1.061999999999999,-3.077063477857142,mp-546679
MgSi2O5,5.310200000000001,-3.076902437187501,mp-1020114
Na3LaHfSi(PO6)2,3.94,-3.076874673421182,mp-2715408
Na2ZrTiSi(PO6)2,2.5986,-3.076822898090053,mp-2712751
CaAl4(SiO6)2,2.8867000000000003,-3.0768171855263162,mp-1226977
LaTiSbO6,2.7433,-3.076790906481482,mp-1222719
Na2Y3Ta5(PO4)12,2.5724,-3.076714237644851,mp-2713931
Ba2NaUO6,0.0,-3.076706050637931,mp-1214646
Tb2Pr2O5,0.0,-3.076682949074074,mp-1187273
K2SmNb5O15,1.8639,-3.076622190847827,mp-1211765
Na5LaTa3Si5PO24,3.1081,-3.076437894321524,mp-2716359
Na3TaTi(SiO4)3,3.0383,-3.076363538656898,mp-2715475
Ca3In2(SiO4)3,3.8105,-3.076163894166666,mp-14052
Na3MgAlSi7O18,4.9969,-3.076140813971264,mp-686601
Rb2NaGaF6,5.9026,-3.07613155538793,mp-989400
K2ScHgF6,0.0,-3.0760175672,mp-1111931
MgTlF3,4.487,-3.075989374666666,mp-998739
UP2O7,0.0929,-3.07597940842857,mp-1200695
Ba2YSbO6,3.5377,-3.075945864,mp-6492
BaMgTi4O8,0.0,-3.075879834880951,mp-1046916
Na5La2Zr2SiP5O24,3.694099999999999,-3.075870816840449,mp-2714114
KAl2Si4O11,0.0,-3.07575624234722,mp-1211755
Li4La3Nb12O36,0.0,-3.075709282515153,mp-762374
CaGd2Zr(GaO3)4,3.255599999999999,-3.07568079925,mp-686296
SrO,3.2748,-3.075623527499999,mp-2472
NaLi2Al3(SiO4)3,2.9545,-3.075616974787903,mp-693857
NaCa5ScZn5(SiO3)12,4.1363,-3.075535121272989,mp-705485
KYO2,3.973899999999999,-3.075378259312499,mp-8409
Sm8Sb3O8,0.0,-3.075316037894737,mp-1219096
Nd3RuO7,0.0,-3.075295264318181,mp-17753
Zr2(PO4)3,0.0,-3.075247171113444,mp-774483
K2PrAgF6,2.5361,-3.075195209783333,mp-1110849
K9Eu3Si12(O16F)2,0.0,-3.075156435693965,mp-555060
Na2ZrSiO5,4.0111,-3.075120935584291,mp-556709
Na7Zr2Sc2Si3(PO8)3,4.3622,-3.075091553583344,mp-2714899
NaTaTiSi(PO6)2,2.7369,-3.075079170999909,mp-2715682
Er2Ge2O7,3.7373,-3.07507118113637,mp-13643
Ba2TaInO6,3.945899999999999,-3.075058790399999,mp-1079630
Na2SrAl4(B2O7)2,2.4779,-3.07504025237701,mp-1221313
Na3Ca4TiSi4(O8F)2,0.0,-3.074844808582376,mp-1211154
Ba2MgZrTiO6,1.3124,-3.074792126212122,mp-2241013
Nb3O7F,2.3814,-3.074741299318181,mp-760188
NaGdO2,3.1172,-3.0746610415948292,mp-5088
La3As2ClO7,3.154099999999999,-3.074482101153847,mp-555073
Li7Ti7O16,0.0,-3.074287731555555,mp-34052
K3TbSi2O7,3.6879,-3.074247541929487,mp-16594
Nd2B8O15,5.2515,-3.074177363533333,mp-1194942
SmTi4SnO12,0.0,-3.074166462962963,mp-1518635
Sr3Sc2(GeO4)3,3.7912,-3.073998793375,mp-1208829
Ba2Ta6Te2O21,2.8259,-3.073914786849462,mp-6238
YO,0.0,-3.0737934675,mp-1187855
KCeNb4O12,0.0,-3.073785262624999,mp-1522565
Na3Al2P2O8F3,5.008800000000001,-3.073663639634647,mp-686540
AlSi3O8,0.0,-3.073645007499999,mp-1229057
Na7Y2Zr2Si3(PO8)3,4.112500000000001,-3.073538041469522,mp-2714743
NdO,0.0,-3.073332891249999,mp-754545
Na3Zr3Al(PO4)6,3.872699999999999,-3.0732645059998682,mp-2716513
Rb9Na2Al11Si13O48,2.456,-3.073222792051309,mp-720212
Ca6Al6Si3(HO12)2,0.011599999999999,-3.073136538231707,mp-1264155
Cs2KGaF6,6.0476,-3.073085906406034,mp-989531
Na2TaTiSi2PO12,2.8779,-3.07308078042464,mp-2714998
Na3ZrTiSi2PO12,2.747499999999999,-3.073014353105707,mp-2713585
Na2LaZr(PO4)3,3.7731,-3.0729405550888,mp-2713302
TbEu2SnO6,0.0,-3.072875552166667,mp-1520643
Rb2PrCuF6,0.6482999999999991,-3.072874017666666,mp-1113802
Sr3Y2(GeO4)3,3.2862,-3.0728215795,mp-15103
LiLa8Cu3O16,0.214599999999999,-3.072720760833334,mp-1222487
Zr32N17O39,0.0,-3.072702335681817,mp-765235
La3HfGa5O14,3.723099999999999,-3.072600498804348,mp-1211281
Na14Sc3Ta5(SiO4)12,3.3024,-3.07257267647533,mp-2713056
K2CeAgF6,0.0,-3.072455072616666,mp-1112335
Ba3Si6(NO6)2,4.6093,-3.072299916086957,mp-985697
Pr5Ge3O13,0.0,-3.072278008015879,mp-1209712
Na3Sc2(PO4)3,4.6584,-3.072143810403324,mp-16956
Sr2B5ClO9,5.336399999999999,-3.072055006960785,mp-557330
Sr2TiSnO6,2.985399999999999,-3.072028314833333,mp-1519075
Na3Hf2Sc2P5SO24,4.5689,-3.071985628059069,mp-2715993
Na5Ta2Ti2Si5PO24,2.412099999999999,-3.071956117680499,mp-2716500
NaScTa(PO4)3,3.2033,-3.071915492276364,mp-2713507
K6U4O15,1.4058,-3.071882489539998,mp-674522
CaSi4SnO10,3.3799,-3.07184876734375,mp-1043411
LiEu6B3O14,0.0018,-3.071739441284723,mp-1213345
Rb10NaAl11Si13O48,2.2161,-3.071719742968425,mp-705861
Ba2TmReO6,0.0,-3.07167965825,mp-13934
KTaO3,2.0995,-3.071587857916669,mp-3614
Ca13Si10H12(O17F5)2,5.0622,-3.071413105759493,mp-703370
Ba7GeB3ClO13,3.5944000000000003,-3.0713096577,mp-1194658
Ba3Nb2ZnO9,2.7287,-3.071309408333333,mp-7249
EuSiO3,0.0,-3.071255264,mp-866030
NaSi3BO8,5.3553,-3.071139196580459,mp-696416
CaLa2SbO6,0.0,-3.071033435000001,mp-1410589
Na2Mg3Zn2(Si2O5)6,4.1812,-3.07096433903589,mp-1221527
Na6Y5Ta3(PO4)12,2.949799999999999,-3.070772234315183,mp-2716345
Sr3Nb2ZnO9,2.6769,-3.070764791666668,mp-1218413
Eu(BO2)2,0.290299999999999,-3.070756872976189,mp-540879
KGdNb4O12,1.549799999999999,-3.070692612069445,mp-1520316
Na3LuSi2O7,3.9465,-3.070539563651635,mp-554463
Na15Ta11Zn(SiO4)18,3.3367,-3.07047415702014,mp-2713534
Na3YSc(PO4)3,4.5384,-3.070212515319992,mp-2715326
Mg17(SiO3)20,0.1309,-3.070104721494846,mp-1196569
CaScO3,0.0,-3.070074366,mp-1183534
Na2Al17Si11B7(H3O31)2,4.273,-3.070061787470717,mp-534773
K3Ba3Li2Al4B6O20F,4.1017,-3.070058654446633,mp-1195057
Na8Al6Si6BrClO24,4.6803,-3.069970506870315,mp-1220843
Ca4TiSi4Sn3O20,3.1716,-3.069688478385417,mp-1227137
Na2Ta4Si5SO24,2.8703000000000003,-3.069652387488666,mp-2713385
Sr8Si2PtO14,2.26,-3.0696272388,mp-561245
RbErO2,3.6429,-3.069514136875,mp-7477
YTa3(PO4)6,2.4233,-3.069451947250702,mp-2713925
Ba3SrY2(SbO6)2,3.5883000000000003,-3.069417276999999,mp-1228178
KZrPdF7,0.7773000000000001,-3.069404104975,mp-14985
BaSrYSbO6,3.4776,-3.069372467249999,mp-1521613
Ba3Cd(SiO4)2,3.565699999999999,-3.069354191428571,mp-1214580
Na6Sc5Ta3(PO4)12,2.9922,-3.0690696648332,mp-2714624
Sr2MgTi6N2O11,0.0,-3.069024673181818,mp-1233103
Na3LaY(PO4)3,4.495500000000001,-3.068918750028325,mp-2715412
NaZr4P5SO24,3.629,-3.068885809202675,mp-2716121
K2TbNb5O15,1.867,-3.068842768528986,mp-1211773
K2Be2(SiO3)3,5.035,-3.068816304031251,mp-557472
KBaY(BO2)6,5.3259,-3.068807444392857,mp-1223465
ScTlF6,3.9836,-3.068777654375001,mp-1219252
Dy4Mg(CuO4)2,2.0398,-3.068481374111109,mp-2232158
Sr2PrGaO5,3.4958,-3.068383713796296,mp-1218718
Na9Ca2Ta10Si9(PO8)9,3.027199999999999,-3.068303103761558,mp-2713075
ScTa3(PO4)6,2.4404,-3.068074893966387,mp-2713856
Na10Hf4Nb4Si11SO48,2.6997,-3.068040495999484,mp-2716299
Na3CaTa5Si3(PO6)6,3.2123,-3.067857652475218,mp-2715627
Ca4P6O19,5.3711,-3.067711224064038,mp-559537
Na5Zr2Ti2Si3(PO8)3,2.491,-3.06760378292714,mp-2714139
Na14Hf4Ti4Si11SO48,2.7982,-3.067593033131833,mp-2714456
Na3La2Hf2P5SO24,4.6960999999999995,-3.067541149950961,mp-2716030
Na5Y3TaSiP5O24,3.1993,-3.067380037626774,mp-2714042
Ca4ZrTi3(GeO5)4,2.8582,-3.067235874375001,mp-1227190
KTbEuNbO6,0.0,-3.067178054391667,mp-1522465
Ca2B6O11,5.639,-3.066904042236782,mp-27657
Sr2ScReO6,0.0,-3.06690173575,mp-1206178
Y2Ti3(SiO4)3,0.3182,-3.06669114375,mp-1163922
KRb2GaF6,5.8894,-3.066574973975,mp-13190
SrNdGaO4,3.2974,-3.066481519285713,mp-1218095
BaYTi4O7,0.0,-3.066422983717948,mp-1048118
BaHfNbInO6,0.622799999999999,-3.066334999666666,mp-1516647
Cs4MgZr3(PO4)6,3.7689,-3.066301630696785,mp-690929
Na10Ta7Ga(SiO4)12,3.652599999999999,-3.066299318794356,mp-2713458
BaHo2PdO5,1.943799999999999,-3.066203472777775,mp-9785
Ti3NO4,0.0,-3.066167786875001,mp-755920
Na3Sc2Ta2SiP5O24,3.1042,-3.0661580477122232,mp-2713058
NdTi4SnO12,0.0,-3.065887491435185,mp-1516411
Na6Y3TaSi2(PO6)4,3.4046,-3.065784415687849,mp-2715421
Na12Mg5Al2Si29O72,4.8614,-3.065595974179598,mp-1173868
Nd2SO6,5.1449,-3.065552504722224,mp-1078455
Na7Hf3MgSi3(PO8)3,4.0755,-3.065461379802856,mp-2714679
La3(ReO5)2,0.0,-3.065446080666686,mp-29326
Na4Sc3Ta(PO4)6,3.2201,-3.065239567694064,mp-2713292
Na3La2(PO4)3,4.467,-3.065168122403325,mp-2715259
Ba4Sr2Y3(SbO6)3,3.9096,-3.065154915,mp-1228243
Mg5Ti(BO5)2,0.454199999999999,-3.065148448425927,mp-1222168
Na7La2Zr2Si3(PO8)3,4.032500000000001,-3.065133579680905,mp-2715128
Na7Zr2Ti2Si5PO24,2.9164000000000003,-3.065101275226781,mp-2714616
Nd2CO5,3.9783999999999993,-3.064965959375001,mp-1173626
Na3TmSi2O7,3.96,-3.064922186856765,mp-555421
BaCaZrSnO6,3.7375,-3.0648371135,mp-1519645
K2CaMg5Si8(HO12)2,4.401999999999999,-3.064721921,mp-1223917
K2DyNb5O15,1.8612,-3.064716880050724,mp-1212064
SrHfNbInO6,0.5890000000000001,-3.064545019666666,mp-1519782
Na2USiO6,1.927899999999999,-3.06451681890086,mp-560004
SrLa9MgGa9O29,2.077899999999999,-3.064365844744897,mp-677649
K2Si4O9,4.4376,-3.064247861966668,mp-558603
NaZrNbSi(PO6)2,2.4983999999999993,-3.064204058462873,mp-2715582
CaTi3P3O13,0.0,-3.064105750946429,mp-1041164
SrCaZrSnO6,3.724,-3.0641044865000002,mp-1522650
Na10Sc7Ta(PO4)12,3.4634,-3.064025947929583,mp-2716490
K2YHgF6,0.0,-3.0640209197,mp-1112192
Sr2PrO4,0.0,-3.063741813095237,mp-19975
K2NdCuF6,0.358499999999999,-3.063690165199999,mp-1112246
La2Ti3(AgO5)2,1.6497000000000002,-3.063526957254903,mp-6000
Rb2TiTlF6,0.0,-3.063451584166667,mp-1113853
LaNd3(GaO3)4,3.4827,-3.063438263875,mp-1222894
AcGaO3,2.895900000000001,-3.063252617,mp-1183053
Na15Ca2Ta10Si15(PO24)3,3.409299999999999,-3.063178236563689,mp-2716325
Sm2BeGa2O7,3.5466,-3.063084180416666,mp-1209039
NaTaO3,2.6172,-3.062992296242529,mp-3858
LaZrNO2,1.7294,-3.062917028000001,mp-1222900
KEuHf4O12,0.0,-3.062832602347222,mp-1519413
Na5Sc3TaSiP5O24,3.2933,-3.062456805105406,mp-2715823
USiPbO6,1.785499999999999,-3.062456279999999,mp-726051
Na3ZrNb(SiO4)3,2.9646,-3.062394747331897,mp-2715349
Lu2TeO6,2.9817,-3.062371446666656,mp-755515
Na10Y7Nb(PO4)12,2.6057,-3.062315920079155,mp-2713514
SmO2,0.0,-3.062239176666666,mp-1077235
NaTa2Nb2Si3(PO8)3,2.846,-3.06221058523737,mp-2714262
Na6CaTa5Si6(PO12)3,3.2012,-3.062097160769668,mp-2715100
Ca(SiO2)6,2.7136,-3.062064001578948,mp-1233067
NaScP2O7,4.791499999999999,-3.062016326651366,mp-1200860
K5Na3Ta8O24,2.1513,-3.062006366976365,mp-1076510
Na2Ta3AlSi2(PO6)4,3.0599,-3.061894185185094,mp-2715584
Na5Zr2Nb2Si5PO24,2.510799999999999,-3.061674778159131,mp-2716529
RbYbO2,0.0,-3.061658408437502,mp-7479
Nd3Nb(ClO2)3,0.0,-3.061643442884615,mp-1209927