formula,bg,formation_energy,mp-id
Ba2CaTb2Ti3(CuO7)2,0.0,-3.127507638888888,mp-1228548
Ca2ScSbO6,3.6317999999999993,-3.1275018395,mp-1189528
Pr2MgNb2O8,0.6716000000000001,-3.127370921410256,mp-2219766
Na3Zr3Sc(PO4)6,3.8319,-3.127305916585453,mp-2714895
Mg3Ti(BO4)2,2.2988,-3.127266641190476,mp-1222241
AlPO4,5.6126000000000005,-3.12717220299603,mp-5331
Na10ScTa7(SiO4)12,3.5433,-3.127166558078545,mp-2713178
Na17Zr12Si11P7O72,4.1993,-3.127144227949145,mp-697308
CaMgB2O5,5.4435,-3.127073973564814,mp-6585
Ba2Mg(BO3)2,4.532399999999999,-3.127045616666666,mp-9259
CaMg2Al4SiO12,0.143299999999999,-3.1269903135,mp-1227133
NaTbO2,3.892299999999999,-3.126936168261493,mp-6964
Ta6TiTl2O18,2.9431000000000003,-3.126852769407409,mp-1218099
Ti9O13,0.0,-3.126782524772727,mp-1045643
Ba2Bi2F11,0.216899999999999,-3.126640139666667,mp-1044589
LiUPO6,2.0684,-3.126618595330688,mp-561098
Ba5B3BrO9,3.781399999999999,-3.126504320972222,mp-1199246
KYP2O7,5.065,-3.126331969230519,mp-554508
SrBeB2O5,5.681,-3.126296300092594,mp-1020654
Ca2Al2(SiO4)3,0.0,-3.126250246578947,mp-1227582
Mg3Ti2(SiO4)3,0.0,-3.126189272083333,mp-1262556
Na3LaTi2Nb2O12,1.951699999999999,-3.12611748179023,mp-695512
Sr3MgTi2O7,0.0,-3.125989042820513,mp-2219990
YGaO3,2.9043,-3.125843044833334,mp-17853
Ba5(Si2O7)2,0.308,-3.125835719782608,mp-1199927
LiAlPO4F,6.1023,-3.125710195372024,mp-41795
Na4SrTa5O15,0.0,-3.125601366487357,mp-1221175
TbGaO3,3.9217999999999993,-3.125525806333333,mp-756290
K2YCuF6,0.5981999999999991,-3.125481663449999,mp-1112242
LiTaO3,3.7003,-3.125358770133336,mp-3666
Ca4Si3H2O11,4.7044,-3.125093167125,mp-1197100
Na5Zr2Ta2Si5PO24,3.4234,-3.125075930415541,mp-2716324
Na3ZrTa(SiO4)3,3.790599999999999,-3.12498223399023,mp-2715268
Ca3Tm2(GeO4)3,3.259,-3.124911364375,mp-1214304
Cs2ScHgF6,0.0,-3.124770418681035,mp-1113142
Ti4(PO5)3,0.080499999999999,-3.124759740633116,mp-684056
Na6Hf7Zn(PO4)12,4.7273,-3.124625685729597,mp-2716458
Na2ScCuF7,0.0,-3.12456310674243,mp-21527
Ti4Pb2O9F2,2.3006,-3.124555092843137,mp-1105287
KSr2Nb5O15,2.2069,-3.124527012706522,mp-1223455
Sr2ZrSnO6,3.902,-3.1244928975,mp-1522474
Ce2Ta3(SeO4)2,0.0,-3.124354192112499,mp-1214188
BaTbO3,0.0,-3.124320660333333,mp-20129
Na3PrTi2Nb2O12,2.4518,-3.124206803373563,mp-1173713
Na3LiY3P3CO15F2,4.5183,-3.124129539782136,mp-1205167
Li7La3Zr2O12,4.168800000000001,-3.124116936388889,mp-942733
Lu2PdO4,0.5717999999999991,-3.123752209047618,mp-17662
KSr4(BO3)3,4.173,-3.123713807632353,mp-554346
Sm3RuO7,0.0,-3.123638040681819,mp-555525
Ca2TiNb2O8,0.0,-3.123602733333333,mp-1042259
EuO,0.0,-3.123422545000004,mp-21394
Na3Tm(SiO3)3,4.2135,-3.123328260375809,mp-1195518
Na2Ca3Ta2O9,3.7107,-3.123292970151581,mp-558033
CsTi2P3(O5F2)2,2.7218,-3.12325255226252,mp-1197745
Ba3Gd(BO2)9,3.6864,-3.123250769758064,mp-1214653
Sr(BO2)2,4.9456,-3.123118884404775,mp-9749
Na3LaZr3(PO4)6,4.0042,-3.123116021540408,mp-2716564
SrIF,4.3096,-3.123103805000002,mp-23046
Ba4Na2CaTi3Si4(SO13)2,2.1206,-3.123070114470443,mp-561052
BaAlPO5F,0.3407,-3.123066507460318,mp-1214467
K3Lu(SiO3)3,3.4819,-3.122942266151042,mp-653861
NaGd3Ti2(SbO7)2,2.1556,-3.122880093774817,mp-40451
Ta2Si(PO6)2,3.7852,-3.122860372389356,mp-2715695
Na2Mg2(Si2O5)3,4.703,-3.122745594510344,mp-12187
K4U5B2O21,0.146699999999999,-3.122745242885416,mp-1224701
Na2ZrTaSi2PO12,3.545,-3.122658875775517,mp-2715193
NaCa2(SiO3)3,0.2757,-3.122645448425288,mp-1193367
Na10YTa7(SiO4)12,3.5149,-3.122642367544356,mp-2713508
Ba2NaNb5O15,2.5069,-3.122631501636057,mp-1199624
K2LiTa6(PO8)3,3.0431,-3.122564722660053,mp-684817
Al4B2O9,4.357800000000001,-3.122525944249999,mp-1229135
BaTm2CuO5,0.0,-3.122397166111112,mp-22202
Ba3Nb2(P2O9)2,3.1376,-3.1223917955026472,mp-554886
Na3Hf2Ti2SiP5O24,2.5617,-3.122384848216728,mp-2713024
Na10Zr6Si7(PO18)2,3.9808,-3.122375706771784,mp-677336
Li4Al3Si3ClO12,5.453399999999999,-3.122293324927536,mp-23648
Ba3Sm(BO2)9,5.0836,-3.122232120725806,mp-1214584
BaCaNb4O12,1.3465,-3.122153541666666,mp-1521580
Np2O3,0.0,-3.121963102499999,mp-1186221
Zr12Si2Bi2P16PbO72,2.9575,-3.121776866517008,mp-693759
NaLaNb4O12,1.325799999999999,-3.121677585909962,mp-1220780
Ca2PrO4,0.0,-3.121676431666666,mp-755624
Sr3P4O13,5.2117,-3.121572848428571,mp-31127
CaEuHfGaO6,0.0,-3.12143121425,mp-1518409
SrBPO5,5.387399999999999,-3.121286575267857,mp-6486
Li3Sc2(PO4)3,4.7568,-3.121208874571429,mp-6565
Sm2Ti3(BiO6)2,1.4955,-3.120966273157895,mp-557438
Na3HfScSi(PO6)2,4.6269,-3.120855346087849,mp-2715409
KNa2Si12(BO10)3,5.136100000000001,-3.120783737552263,mp-15541
Na3TiF8,1.2639,-3.120741786039271,mp-732175
Na6Ti11O24,0.0,-3.120737226705915,mp-759774
BaBe2(BO3)2,5.3821,-3.120560616212121,mp-555070
Na6Hf4Si5SO24,4.3135,-3.120412812144397,mp-2713879
Li3La2(BO3)3,4.504899999999999,-3.120336955588234,mp-1211607
CaAl4Si2(HO6)2,4.5346,-3.120014275357142,mp-24469
KNaSmTaO5,3.6034,-3.119971354551405,mp-861957
Na2TiSi4O11,2.726199999999999,-3.119839093671773,mp-556283
SrTmO3,0.0,-3.119328557000001,mp-1186758
Na2CaZr2Si10O27,0.0,-3.119210201851396,mp-1197941
ZrTa(PO4)3,3.763899999999999,-3.119201225270309,mp-2713972
CaBe2(PO4)2,6.0097,-3.119148267637362,mp-6772
Na7Y2Hf2Si3(PO8)3,4.2706,-3.1187051876483842,mp-2715180
CaBeB2O5,5.6932,-3.118592970925926,mp-554315
KHoO2,3.9742,-3.118591663062497,mp-754883
Sr2HoSbO6,3.6445,-3.118504510499999,mp-558039
NaSm3Ti2(SbO7)2,2.3868,-3.118503749229363,mp-40685
SrMgP2O7,5.6299,-3.1184218451623362,mp-18469
AlBO3,5.8392,-3.118357856833333,mp-8110
Dy2TiCuO6,0.0,-3.118332957666665,mp-1225458
Rb2CeAgF6,0.0,-3.118304369666666,mp-1111844
CaEuHfSnO6,0.233999999999999,-3.118291994,mp-1518261
Ce3SiCl5O4,0.031399999999999,-3.118285181346153,mp-1229323
SrMgB2O5,4.9917,-3.118267839537037,mp-1020634
Na6MgAl4Si13O36,5.2194,-3.118233958554598,mp-677551
K2MgSi5O12,4.7841000000000005,-3.11806652385,mp-667292
Li2BF5,7.5351,-3.118009279895832,mp-1188485
Ca5Zr4Ti(GeO5)5,3.1128,-3.118003473208334,mp-1227668
CaTi2P2O9,0.0,-3.117991232746599,mp-1044885
Na7Zr3Ta(SiO4)6,3.619399999999999,-3.11794971195907,mp-2712824
Ba3Sc(BO2)9,5.2938,-3.117640967016128,mp-557994
BaDyO3,0.0,-3.117626003333332,mp-1183286
Ho2CuO4,0.0,-3.117483926428569,mp-754263
NaBe2BO3F2,5.939,-3.117336764782886,mp-556865
Sm2AlNO3,1.0053,-3.1173344100000002,mp-1025276
Na2HfTiSi(PO6)2,2.55,-3.11704877730058,mp-2712614
Na4Zr2(SiO4)3,4.321199999999999,-3.117013184310344,mp-6150
BaLaGaO4,3.9478,-3.116898823928572,mp-541280
BaBPO5,5.495,-3.116867103184523,mp-6040
KU2(PO4)3,0.0,-3.116832153954364,mp-560812
HoO,0.0,-3.116773602499997,mp-974336
Ba3Nd(BO2)9,5.1019,-3.116745395322581,mp-1214606
K3Ho(SiO3)3,4.0034,-3.116710351359375,mp-560105
K3NaZr2(SiO4)3,4.2941,-3.116691716736316,mp-2716298
Na3SrLaZnSi6O17,4.7991,-3.116521979280619,mp-13726
BaCe4EuO12,0.0,-3.116450393055555,mp-1521988
Na14Hf4Zr4Si11SO48,4.1249,-3.116419256709069,mp-2714342
Cs2ScCuF6,1.8308,-3.116287667041669,mp-1112591
La16Mg2Ga14O47,2.793699999999999,-3.116086801139241,mp-695096
Na4CaHf3(PO4)6,4.5208,-3.116080225702835,mp-2713602
Sr4BiP3O13,4.0924,-3.116010739710885,mp-1218632
BaDyTi4O12,0.0,-3.115931043611111,mp-1517360
Li10Ti11Nb6O42,2.1891,-3.115917543478262,mp-767498
Mg17(SiO3)16,0.317099999999999,-3.115859003765433,mp-757674
NaLaP2O7,4.4794,-3.115836445287728,mp-560939
NaYO2,4.1319,-3.115740750969827,mp-30980
Ba2CeSnO6,2.144399999999999,-3.1156891165,mp-1521094
CaSn2F6,3.4998,-3.114991059999999,mp-30146
Na10LaTa7(SiO4)12,3.534,-3.114942271497348,mp-2713335
KNaGdTaO5,2.7502,-3.114905780106975,mp-863031
TbPrO4,0.0,-3.114733618888888,mp-769938
Al17(NO7)3,4.199000000000001,-3.114723667804878,mp-675472
Na3Hf2Nb2Si3(PO8)3,2.8493,-3.114603549767564,mp-2713007
Na3YHfSi(PO6)2,4.2925,-3.114453704504515,mp-2715224
SrBe2(BO3)2,5.3456,-3.114337854166667,mp-558981
ScGaO3,3.1715,-3.114334094166667,mp-769079
Na7Hf2Sc2Si3(PO8)3,4.4629,-3.1142905491931,mp-2714639
Li2Ti3O6,0.0,-3.114150836969696,mp-758089
BaNa4Ti2(Si2O5)6,0.0,-3.114085159840488,mp-1214578
Ba2Ca(BO2)6,4.9616,-3.113965850714285,mp-8271
Na6Ta8Si11SO48,3.6789,-3.113950662222197,mp-2714581
Ba3P4O13,5.2043,-3.113780249428572,mp-30088
Sr2ScSbO6,3.5074,-3.113772652999999,mp-1106218
Rb2PrAgF6,2.6788,-3.113763317833332,mp-1110788
Li2Mg2Si4O11,5.1296,-3.113271014561402,mp-561336
Na3HfTiSi2PO12,2.8265,-3.113218985230706,mp-2715502
Ba3Pr(BO2)9,5.0748,-3.113095539166667,mp-1214611
KNpO3,0.0,-3.1130405402,mp-1185015
Sr2UInO6,1.0488,-3.113024176666666,mp-1206007
BaNb4O11,2.6601,-3.1130122103125,mp-1120749
BaMgP2O7,5.5594,-3.112968518116882,mp-18343
LaMg(BO2)5,4.7555,-3.11262242490196,mp-557758
Sr3GaO4F,3.6717999999999993,-3.112585204722221,mp-6509
YO2,0.0,-3.112538538333332,mp-1206610
SrBe3O4,4.1295,-3.112535916875,mp-27791
Na3Mg4InSi8(O11F)2,4.0872,-3.112397419020115,mp-1173861
Li4Y3ZrO8,0.0,-3.112334950208333,mp-1177138
NaHoP2O7,5.3517,-3.112327446878637,mp-1203462
K2Ba7(Si2O5)8,4.5136,-3.112106170192307,mp-1224055
Ca16MgAl14Si9O56,1.0384,-3.112088095364582,mp-686347
KGdCO3F2,0.4727,-3.112064615906249,mp-554005
Ca2TaInO6,0.0,-3.111972430399999,mp-1214135
Na5Ta3Ti(SiO4)6,3.038399999999999,-3.111669648946066,mp-2713408
KHfH2OF5,6.7626,-3.111656891725,mp-541298
NaNd9(Ge3O13)2,3.606099999999999,-3.111595416639984,mp-1221045
KNbSi2O7,3.5204,-3.111411346113635,mp-560407
Hf3N2O3,3.1348,-3.111325125,mp-761033
Sr3Tm2(GeO4)3,3.1627,-3.1112325325,mp-1209021
Ca3NbO6,0.0,-3.1110288485,mp-1214029
KNaSr8(BO3)6,3.7852,-3.110990393930274,mp-1223494
Ba2Ti3O7,0.0,-3.110985632083332,mp-1048209
CaZnSi3O8,4.3077,-3.110942861923076,mp-554905
SrZrTiSnO6,2.2854,-3.110940223833333,mp-1521811
NaHf2Zr2P5SO24,3.6239,-3.110863027488389,mp-2716186
Ce4Si2Se3O7,0.0,-3.110782490595702,mp-541460
Ce4Se3O4,0.0,-3.110755255184658,mp-552177
Rb14Na3Al17Si31O96,2.0645,-3.110719303907689,mp-721330
NpTl2F6,0.0,-3.110663093750001,mp-1209723
BaSrCeSnO6,2.177999999999999,-3.11062005875,mp-1518052
Na2ScTa3Si2(PO6)4,3.1125,-3.110343359583241,mp-2715646
Na5Hf2Ti2Si3(PO8)3,2.6414,-3.110254309422866,mp-2714287
NaHfNbSi(PO6)2,2.555999999999999,-3.11025126948139,mp-2715628
Sr2DySbO6,3.6641,-3.110212678666666,mp-561072
Sr2LaGaO5,3.596399999999999,-3.110187525277778,mp-1218758
Zr4Cd(PO4)6,3.7527,-3.1100284162244898,mp-541299
ThNF,2.259,-3.109788090000002,mp-8226
EuPO4,0.0,-3.109623819107143,mp-3219
Na2Nd2B2O7,4.421099999999999,-3.109349281237842,mp-1210464
Ca4Al11Si13(AgO16)3,2.4986,-3.1093470896835442,mp-686702
KNaNdTaO5,3.5147,-3.109234126495849,mp-861607
La4CuO8,0.0,-3.109178970769231,mp-772213
CeP2O7,1.3714,-3.109137874928571,mp-22524
Sr2CeSnO6,2.2874,-3.108887113999999,mp-1518971
U3(HO5)2,1.9927,-3.108884516166665,mp-626062
PuPO4,0.0,-3.108789552648796,mp-1190526
K2Na2Ca4Mg15(SiO3)24,0.116099999999999,-3.108747049598812,mp-1224991
Ba2ErSbO6,3.3776,-3.108728319000001,mp-6231
SrLaGaO4,3.0765,-3.108689003214286,mp-1218152
Ho2MgCu(SiO3)4,0.152099999999999,-3.10861001825,mp-1233437
BaEr2CuO5,0.0,-3.108483970833333,mp-505808
Na2YZr(PO4)3,4.0204,-3.108116102632659,mp-2713324
K6Ta11O30,0.0,-3.107877072003545,mp-1224166
Tb2TiCuO6,0.0,-3.1078424536666662,mp-1217747
TaPO5,2.932,-3.107759103496598,mp-541740
Mg16Si8HO32,1.903699999999999,-3.107696011951754,mp-1248719
KTiNbO5,2.7073,-3.107562951322917,mp-1223343
LuNpO3,0.049299999999999,-3.107431188083334,mp-1185498
SrF3,0.0,-3.10738709125,mp-727311
Na5Y3Hf(PO4)6,4.0798,-3.107380401062062,mp-2713334
K4Al3Si3ClO12,4.5823,-3.107361659304348,mp-23149
Na4Ti5O12,2.4744,-3.107293959151615,mp-555678
KLaNb4O12,1.612299999999999,-3.107286805125,mp-1518732
SmO,0.0,-3.107168025,mp-1611
Na6CaZr7(PO4)12,3.775499999999999,-3.106861532080948,mp-2714798
U2Nb6O21,1.517,-3.106807534827586,mp-1217425
Ba2PIO4,4.378,-3.106799326205358,mp-1205080
TbCdF6,0.0,-3.106738923958333,mp-22690
Rb2ScHgF6,0.0,-3.10664248325,mp-1111002
RbCa2Nb3O10,1.4777999999999991,-3.106621682968748,mp-20396
ZrP2O7,4.4725,-3.10660977567857,mp-5024
Dy2CuO4,0.0,-3.106562103333331,mp-752673
Ba2UCdO6,1.8464,-3.106356700999999,mp-1079615
Ca5Si2C2O13,4.9049,-3.106294844318182,mp-6753
Na3ScTa3Si3(PO8)3,3.0753,-3.106126034551348,mp-2712945
K2Er2(PO4)3,0.0349,-3.106017821759398,mp-1212140
UTiO3,0.0,-3.105869773666664,mp-1187736
La2B8O15,4.427700000000001,-3.105855060533333,mp-1019892
Ca2Be2P2O9F,0.7538,-3.105760103705357,mp-1227534
KAl2(SiO3)4,1.0188,-3.105510069592104,mp-1211834
Al2Si2PbO8,4.2562,-3.105306262596153,mp-1195073
Na2YTa3Si2(PO6)4,2.958799999999999,-3.105262088703613,mp-2715714
RbTiNbO5,2.6967,-3.105198752916667,mp-1219566
Ca3Sc2(GeO4)3,3.6138,-3.1051909685,mp-21989
RbLuO2,3.693099999999999,-3.105072738541667,mp-7480
Ba3SiF12,0.0,-3.105033466249999,mp-1214886
Na3HfNb(SiO4)3,2.9723,-3.104704974956897,mp-2715222
Pr4Se3O4,1.315,-3.104685029427083,mp-30192
Na2Nd2MgTi3O10,0.0,-3.104676796264368,mp-2228396
NaHf2Nb2SiP5O24,2.5741,-3.104617994512198,mp-2715748
K2LiGaF6,6.1271,-3.104614807533333,mp-1111112
LiLaNb4O12,1.3413,-3.104588537129629,mp-1222364
K8Nd3(Si4O11)3,0.9364999999999992,-3.104532008312499,mp-1224625
LiCaPO4,5.1798,-3.104518963044217,mp-16804
ZrPb3F10,4.674,-3.104492811428573,mp-29232
Na10Ta7Al(SiO4)12,3.5922,-3.104416384638373,mp-2713440
BaHfTiInO6,0.0,-3.104368333000001,mp-1522487
Rb2ErTi(PO4)3,2.5652,-3.104253134461153,mp-1220012
SrTi4(PO4)6,2.7819000000000003,-3.104235324319727,mp-17298
Na2HfNbSi2PO12,2.8016,-3.10418567819657,mp-2714938
NaYTa3SiP5O24,3.1691,-3.104131870759817,mp-2715693
TbMg(BO2)5,6.070600000000001,-3.104089416323529,mp-1208392
NaZr3Nb(PO4)6,2.6834,-3.103795832073423,mp-2713801
Na5CaHf3SiP5O24,4.283200000000001,-3.103651171370363,mp-2716117
Na4ScTa3Si4(PO12)2,3.197399999999999,-3.103593353994815,mp-2715006
NaCa3ScZn3(SiO3)8,4.3797999999999995,-3.103591203784482,mp-693463
K2LaNb5O15,1.8863,-3.103566881499999,mp-559549
NaCa2Si3HO9,4.848599999999999,-3.103527938914332,mp-23792
KDyO2,3.9736,-3.103410802229165,mp-1178141
Na2Sm2MgTi3O10,0.0,-3.103078017653257,mp-2228338
LiTiSi3O8,0.6163000000000001,-3.103055708974359,mp-766251
Al(Si2O5)2,0.0093,-3.102935936,mp-731836
DyMg(BO2)5,6.088900000000001,-3.102880855147058,mp-1212987
BeO,7.463900000000001,-3.102855802499999,mp-2542
Li2TiSiO5,3.215299999999999,-3.102775733333333,mp-6332
Mg5B3O9F,5.3181,-3.102743787777778,mp-560026
Sr2PIO4,4.2855,-3.102737244955357,mp-1202046
Na5ScTa3Si5PO24,3.215,-3.102721019962549,mp-2716404
Ta2Nb3O12,0.0,-3.102705318068627,mp-780456
GdO2,0.0,-3.102687444999999,mp-1181235
SrEu4O5,0.0,-3.1026560165000032,mp-769800
Sr3Er2(GeO4)3,3.693399999999999,-3.102611396874999,mp-1209197
KTa2PO8,3.0691,-3.102582549713293,mp-773066
TmIO,3.3943,-3.102426840000003,mp-27439
Ba2CaSm2Ti3(CuO7)2,0.0,-3.102377936249999,mp-1214757
Gd2AsO5,2.332799999999999,-3.102072022500001,mp-767401
NaSr4(BO3)3,3.969,-3.102003600375254,mp-560768
NaTi(SiO3)2,0.0,-3.101674979471265,mp-6465
Ho2Hf2O5,0.0,-3.101615611666665,mp-1184674
Rb2YHgF6,0.0,-3.10156680475,mp-1113905
Na3YTa3Si3(PO8)3,3.0157,-3.101524749731527,mp-2712967
Na7Hf2Ti2Si5PO24,2.7822,-3.101441184413774,mp-2714479
Na15CaTa11(SiO4)18,3.3339,-3.101342801635524,mp-2713394
Na5Hf2Nb2Si5PO24,2.5382,-3.101281642432634,mp-2716379
ErMg(BO2)5,6.1636,-3.100973659607842,mp-1213132
HoMg(BO2)5,6.137099999999999,-3.100897971666667,mp-1212152
Sr3LiNbO6,3.2076,-3.100887808030302,mp-1190404
Na2ZrSc(PO4)3,4.2043,-3.100746261316871,mp-2713317
Sr3Li2Nb4O13,0.0,-3.10072950598485,mp-756781
SmMg(BO2)5,6.005599999999999,-3.100581214019608,mp-1208862
Na2LaHf(PO4)3,4.5,-3.100477255965993,mp-2713313
Na6YTa3(SiO4)6,3.7813,-3.100350416756896,mp-2715275
Mg5Ta(BO4)3,3.8219,-3.100029404873016,mp-1196921
Na3Y(SiO3)3,4.2323,-3.099992937953933,mp-1203085
Na4YTa3Si4(PO12)2,3.16,-3.099959613512359,mp-2715064
Ca2LaSbO6,3.7082,-3.0998927565,mp-1227469
Ba2HoSbO6,3.4155,-3.099882216499999,mp-6687
NaScTa3SiP5O24,3.116799999999999,-3.099876600236008,mp-2715814
KNaPrTaO5,3.457899999999999,-3.099782156958812,mp-861944
Y3Al6Si6B3H3O31,0.0,-3.099765021274039,mp-1207887
Na10Zr4Ta4Si11SO48,3.6653,-3.099753839965297,mp-2716400
Sr2CeGeO6,2.0483,-3.0996312835,mp-1517419
Ba3P3BrO10,5.0533,-3.099620592731093,mp-1194785
Na6ScTa3(SiO4)6,3.7323,-3.099600657131896,mp-2715430
SrCaZr4O12,0.0,-3.099542831111111,mp-1519495
Sr2TaInO6,3.9813,-3.0995229389,mp-1190108
NaSr2Nb5O15,2.3621,-3.099425783103449,mp-1220952
Sr3CaO4,3.294499999999999,-3.099418741249999,mp-1079940
Na7Ti11O24,0.0,-3.099408363960044,mp-759333
CaTi4(PO4)6,2.7105,-3.099354685176871,mp-16831
SrLa11Mg3Ga9O34,1.4869,-3.099192539956897,mp-677725
BePbF4,5.4214,-3.099054792083333,mp-1182129
Sr3TaGa3(SiO7)2,3.8537999999999992,-3.098988449992753,mp-16136
KNa2Li3Zr2(Si2O5)6,0.0,-3.098906276400171,mp-851120
Na7La2Hf2Si3(PO8)3,4.073,-3.098881071550824,mp-2714728
K2Be(Si2O5)2,4.9140999999999995,-3.098725148794117,mp-557802
La5MgRe3O16,0.094199999999999,-3.0983716451,mp-699243
EuBO3,0.0,-3.098299251833332,mp-22030
Ti11O14,0.0,-3.098233683466666,mp-759754
MgNb2O6,3.456699999999999,-3.098160845555563,mp-17953
Ti4ZnO8,0.0,-3.09812853025641,mp-1392336
SrHo2CuO5,0.0,-3.098038093055554,mp-17734
Na5HfSc3(PO4)6,4.1826,-3.09798549580565,mp-2713195
Na6CaHf3Si2(PO6)4,4.2252,-3.097984127254516,mp-2715307
Ca2Ta2SnO8,2.892899999999999,-3.097962626897436,mp-1045940
LaGaO3,3.3483,-3.0979300295,mp-5837
Na5Y2Zr2SiP5O24,3.792399999999999,-3.097913722737885,mp-2715911
Ce4B14O27,0.051,-3.097894276074074,mp-1019597
Ca2HfSnO6,3.5477,-3.097831073499999,mp-1519136
Nb3(OF)5,1.5611000000000002,-3.097627397692309,mp-1220649
NdSmO2,0.0,-3.097525098124999,mp-755426
Na2Li2Al3Si3ClO12,4.6301,-3.097443346061968,mp-43030
Ba2CuSn2F14,1.3161,-3.097228690526316,mp-1358549
Li7Ca8Nb12O40,0.0,-3.097135598557213,mp-773078
Na15MgTa11(SiO4)18,3.479199999999999,-3.097075967832106,mp-2713381
LiAlO2,6.1183,-3.096943435208333,mp-8001
NaPr9(Ge3O13)2,3.6563,-3.096936838009032,mp-1221029
Ba(BO2)2,4.5867,-3.096925162619045,mp-540659
NdMg(BO2)5,5.9713,-3.096820669019608,mp-1210080
Cs4Nb2Si8O23,3.700199999999999,-3.096816118205963,mp-555696
Rb2LaNb5O15,1.8633,-3.096761244347826,mp-1209583
Sr2CaTi6N2O11,0.0,-3.096757538863636,mp-1233964
BaSrEu4O8,0.0,-3.096748631785716,mp-1227979
K2ErTi(PO4)3,2.5650999999999993,-3.096632968908521,mp-677014
Na4MgAl2(Si3O8)3,4.811299999999999,-3.096626491762932,mp-1173790
Na4Hf2Ta2Si5SO24,3.4169,-3.096558730202209,mp-2715178
Na4HfTi(SiO4)3,2.812999999999999,-3.096523987167489,mp-2716526
BaMgCuF7,0.2498,-3.0965032295,mp-1041212
Na2Th(PO4)2,4.9443,-3.096479676503409,mp-555861
Ba4Ti3PtO12,0.9918,-3.096477802666668,mp-1228478
Na5YTa3Si5PO24,3.278799999999999,-3.096448067184771,mp-2716316
Li3Sm2(BO3)3,4.832000000000001,-3.096265433676472,mp-1211228
Rb4Nb2Si8O23,3.7154,-3.096012737702703,mp-542121
Na6MgZr7(PO4)12,3.7628,-3.095937562103471,mp-2714873
NaEuHf4O12,0.0,-3.095923650909962,mp-1520397
KBa2Nb3O9,0.0,-3.095865489483334,mp-1223493
NaNd3Ti2(SbO7)2,2.272599999999999,-3.095819796388453,mp-40484
Sr2La14Mg4(Ga4O15)3,2.7118,-3.095677221363636,mp-686724
SrCa3La2(SbO6)2,3.6827,-3.095664919,mp-1218515
Rb2Ti4O9,3.0481,-3.095642074194444,mp-1209370
Na2CaZr2Si10HO26,1.5226000000000002,-3.095505100214491,mp-1212565
CaHo2Cu(SiO3)4,0.0,-3.095411892,mp-1234027
Na5Y3Zr(PO4)6,3.8299,-3.095321209694539,mp-2716511
Mg7(SiO3)8,0.2745,-3.095282077692307,mp-729062
Sr2YSbO6,3.707299999999999,-3.095266208000001,mp-12878
BaEuZrSnO6,0.7465,-3.095200495,mp-1516299
Na4HfScSi2PO12,4.1143,-3.095096679769529,mp-2715521
YbEuO3,0.0,-3.095093227249998,mp-1187715
Li5La3Nb2O12,3.5291,-3.0949245483712122,mp-761986
LiPrO2,3.533199999999999,-3.094627863749999,mp-10620
NaScB2O5,4.923599999999999,-3.094573522745849,mp-555447
Li3GaF6,6.364,-3.0944041655,mp-15558
Al4CdO7,3.0642,-3.094281680416666,mp-1190488
Ti4ZnO9,2.6974,-3.094254521666668,mp-1040892
Sm3SbO3,0.5489,-3.094074591428572,mp-983597
La3Re2O9,0.2055,-3.094035246428573,mp-540878
LaTi6(PO4)9,2.421299999999999,-3.09402606522665,mp-1223983
Na5La3Hf(PO4)6,4.0969,-3.093843797173172,mp-2713470
Na25Zr11Sc5Si12(PO8)12,3.9074,-3.093759046491906,mp-693682
Eu4BClO7,0.0,-3.093656465897437,mp-1199302
Na4Hf3Mg(PO4)6,4.6445,-3.093599659518624,mp-2713645
LiY2Ti2S2O5,0.0,-3.093542468333333,mp-644527
LuIO,3.2664,-3.093346765555553,mp-973585
BaHo2CuO5,0.0,-3.093318911388888,mp-17878
GdMg(BO2)5,2.2877,-3.0933012140196072,mp-556905
K2NdAgF6,2.4403,-3.093247290366665,mp-1110850