formula,bg,formation_energy,mp-id
SrEuZr2O6,0.0,-3.6182832985,mp-1516749
Sm5Si3O13,0.0,-3.617742581666668,mp-16981
Ba4CaZr5O15,3.1377,-3.6176320172,mp-1228424
GdTiO3,0.0,-3.617602678666666,mp-510278
BaEr2Si3O10,4.8347999999999995,-3.6174564834375,mp-1195744
SrSm2O4,3.8076,-3.61718043,mp-754942
BaY4Si5O17,4.9928,-3.6168604677777783,mp-1019546
La3YHf4O14,0.2984,-3.616403521136362,mp-1223169
KLaHf2O6,2.501499999999999,-3.616384047224998,mp-1520574
PrTaTiO6,2.9822,-3.6162270658148152,mp-1219788
RbU3F10,0.0,-3.616103860714285,mp-1209699
Ca2HoTaO6,4.054699999999999,-3.615605410733333,mp-1188447
BaCaZr2O6,3.5587,-3.6154813470000002,mp-1523158
CaCe4Si3O13,0.1608,-3.615002708809524,mp-1229253
La3Al5O12,3.7952,-3.614850969874999,mp-780432
SrCaHfTiO6,2.4601,-3.614766117333333,mp-1518656
Sr2UO5,2.1693,-3.6145626018750012,mp-18471
Mg2Zr5O12,3.899,-3.614299053421053,mp-675716
SrCeO3,2.2817,-3.614131642999999,mp-22428
ZrTiO4,2.8427,-3.613995620555555,mp-753891
KPr9(Si3O13)2,4.4388,-3.61371499767262,mp-1223421
Ba4Al3Cu2F21,0.6525000000000001,-3.613273952083333,mp-553943
Sm7BP2O17,4.9482,-3.613021536979718,mp-558842
Sm8MgTi4O20,0.0,-3.612951349646465,mp-1233894
Ba2TmTaO6,3.4065,-3.612670555733333,mp-1206029
U5O11,0.0,-3.612468664687497,mp-684934
UO3,1.6349999999999991,-3.6121793137499982,mp-375
SrGd2Al2O7,0.0331,-3.612123938749999,mp-545404
Nd9Ti10O30,0.0,-3.612080882772109,mp-532477
Ce2PrO6,0.0,-3.611853731296294,mp-1226790
CaSm4Tm4O12,0.5267000000000001,-3.611737708571429,mp-1234039
Ba7U7O24,0.3416,-3.611716558157893,mp-685632
Sc3TaO7,2.6639,-3.611415811575756,mp-674341
Zr3Tl2OF12,4.2570000000000014,-3.610966127870371,mp-17315
SrLa2Ti3O9,0.0,-3.610828147000001,mp-1218904
Yb2SO2,0.0,-3.610684296062501,mp-12672
K3ErF6,6.7433,-3.610596660675,mp-1211695
Nd12Zr12O37,0.1867,-3.610538892540983,mp-531163
SrPrScO4,3.6711,-3.610407810238094,mp-1218030
SrCaZr2O6,3.1592,-3.610185258,mp-1519527
Tb7O12,0.0,-3.609492971403508,mp-22083
Sr2HoTaO6,3.855199999999999,-3.609102822733333,mp-1189408
Nd2Si2O7,5.0173,-3.608985797500007,mp-15225
Na2CeF6,2.226,-3.608789430306512,mp-1205754
LiHo6B3O14,4.7947,-3.60867711315972,mp-1211170
LaYTi2O6,0.0,-3.608235801166667,mp-1222876
Lu3NbO7,2.1162,-3.60814389590909,mp-676725
Er2SO2,3.0733,-3.6080962354999992,mp-12671
La3U(ClO2)3,1.577199999999999,-3.608026729230769,mp-554303
NaAlF4,6.6773,-3.6078792125,mp-1102077
CaY3Ti4O12,0.0,-3.607787637166667,mp-1227117
AcTiO3,0.0,-3.60763573816667,mp-865927
Sc2Si2O7,4.2788,-3.607447267727273,mp-5594
Na3PaF8,4.2399,-3.6072790283333322,mp-27478
Ba4Tm6O13,2.566899999999999,-3.607066081521741,mp-772408
Ba2Ce3Si3O12F,0.2032,-3.606514152857142,mp-42307
YbLuSO2,0.0,-3.60639236839583,mp-1215567
BaLa2O4,3.1295,-3.606246316428572,mp-752656
Ca2La2MgTi3O12,2.0742,-3.60617163575,mp-1227473
CeTaTiO6,0.0,-3.606154339518517,mp-1226851
U6O11,0.0,-3.605931631470585,mp-761153
Pr2Si2O7,5.3706,-3.605886440757581,mp-5913
YTiO3,0.0,-3.605859811999999,mp-1342458
BaGd2O4,2.8146,-3.6056465425,mp-17143
YbTaO4,0.0,-3.605629401222221,mp-555296
Ba2La3Ti3NbO15,2.7971,-3.605261031041667,mp-1228754
CaYTi2O6,0.0,-3.6050859261666672,mp-1227099
Ba2HfUO6,0.187899999999999,-3.605063459,mp-1207009
LaClO,4.0688,-3.6045768816666692,mp-23025
Nd16Zr16O49,0.0,-3.60452540697531,mp-675021
BaDy2Si3O10,4.8053,-3.604172741770831,mp-1195063
Ce2U2O9,0.0,-3.60405853653846,mp-1226883
Cs2NaErF6,6.8647,-3.603906971068965,mp-13816
Na2Sr2Al2PO4F9,6.0015,-3.603889914745073,mp-558954
Ho3GaO6,3.5644,-3.603410627749996,mp-31114
Ce2Ti2SiO9,0.0,-3.603050980476188,mp-560000
Pr3NbO7,2.6597,-3.60297640590909,mp-14963
Y4AlSi2(O2F)5,0.0,-3.60291097159091,mp-1178743
Sr2LuTaO6,3.4874,-3.602819626399999,mp-1205553
BaSrCeZrO6,2.2322,-3.602682332,mp-1521105
Sr2ErUO6,0.9143999999999992,-3.602642082999998,mp-1207220
Rb2NaErF6,6.4981,-3.60256619763793,mp-13815
LiSmAlF6,0.0,-3.602553942438272,mp-8315
La2U3O11,0.0,-3.602431232812497,mp-1223142
K3HoF6,6.7356,-3.602297135674999,mp-1211714
Li3ScF6,6.6768,-3.602170455333333,mp-560890
LaY3Ti4O12,0.0,-3.602087057916667,mp-1222863
BaClF,5.4317,-3.6019593516666673,mp-23432
CaEuHfZrO6,0.3977,-3.6019453195,mp-1522072
Zr5Ti7O24,3.0776,-3.601691294537037,mp-761840
Nd3Si2ClO8,4.566699999999999,-3.601466856964285,mp-559764
NpO2,0.0,-3.601204179583336,mp-2616
Ba3Er4O9,3.2746,-3.600891522187499,mp-14853
LiDy6B3O14,4.7578,-3.600779786701386,mp-1211233
AlOF,5.2551,-3.600689776111111,mp-1247828
KEuF4,0.02,-3.600591342874999,mp-1211862
Ba2ErTaO6,3.393399999999999,-3.600573126733332,mp-1205803
Zr3TlF15,3.4505,-3.600437964254387,mp-530524
Sr2DyTaO6,3.849599999999999,-3.6002561944,mp-1208889
La3Mg2TaO9,3.6582999999999983,-3.600065690655556,mp-1223326
Sr2La2MgTi3O12,1.9196,-3.5991774852500003,mp-1218781
SrLa2O4,3.788,-3.598485091428571,mp-754211
SrCeScO4,0.061599999999999,-3.597987047142857,mp-1218453
Sr4HfTi3O12,0.0001,-3.5978766634999992,mp-1218423
Tm2Be2SiO7,5.3393,-3.597782614583334,mp-1207992
K2LiScF6,6.773300000000001,-3.597623383283333,mp-1111110
Nd5Ti4GaO17,2.7574,-3.597420561512346,mp-1221051
Er3S2OF3,1.745099999999999,-3.597352988333332,mp-1225708
CaEuHfTiO6,0.0,-3.597182150833333,mp-1519554
K3DyF6,6.6673,-3.597070297341666,mp-1211654
Ca3Sc2(SiO4)3,4.2109,-3.59683571325,mp-6255
Lu2Be2SiO7,5.2839,-3.596297815277777,mp-1210829
Rb2UF6,0.0,-3.5959559127777743,mp-13595
Ba5In3F19,4.7704,-3.595638088101852,mp-1201460
Ba2CeZrO6,2.2585,-3.595542718999999,mp-1519368
Sr2HfO4,3.905599999999999,-3.59542025607143,mp-754761
Ba2SmUO6,0.8488999999999991,-3.5953958395,mp-1207130
Ca3Ta4(O6F)2,3.8977,-3.595030047111112,mp-560378
LiNd6B3O13F2,4.4538,-3.595009685633333,mp-1185531
Rb2NaHoF6,6.5281,-3.59472864613793,mp-15318
BaCe2EuO6,0.236399999999999,-3.594417544,mp-1521886
BaEuZr2O6,0.3002,-3.59434354075,mp-1520848
Nd5Si3O13,0.0,-3.593851992738096,mp-1210042
Sr2CeZrO6,2.3352999999999993,-3.59379191675,mp-1519555
LiLa4AlO8,2.545000000000001,-3.593712637380953,mp-1222363
PuOF,0.0,-3.593356927916668,mp-20230
Ba2ScTaO6,3.0173,-3.5931783102333332,mp-1205823
Ca10La6Mg3Ti13O48,2.0398,-3.593129332229166,mp-695254
Ca3YTi4O12,0.0,-3.592974754666666,mp-1227620
K2SrBe2F8,7.162599999999999,-3.592963974961538,mp-12626
Sm3Si2BO10,4.912599999999999,-3.592923195338541,mp-13500
Ho2SO2,3.028299999999999,-3.592784443499997,mp-12670
LiTb6B3O14,4.7094000000000005,-3.592606311284721,mp-1211079
NaLaHf2O6,2.5748,-3.59259004263793,mp-1518369
Sc3NbO7,2.622,-3.592350681818181,mp-1173397
Ca2LaTaO6,4.0074,-3.592058270233335,mp-1227477
La4Al6O15,4.345299999999999,-3.5918759578,mp-1024042
Er2Be2SiO7,5.3446,-3.591676005833333,mp-1212878
SmTiO3,0.0,-3.591573494666667,mp-22416
Dy3GaO6,3.5913,-3.591464098749998,mp-31113
K3TbF6,6.6915,-3.591290042341666,mp-1211662
Ba5Ce4ZrO15,2.2572,-3.5912104756,mp-1228442
La8Ti2Ga2O19,2.6223,-3.59110047827957,mp-1223323
BaSrCe2O6,2.179699999999999,-3.590532670999999,mp-1519537
Sr2TbTaO6,3.8367,-3.5905146108999992,mp-1208756
Ba2HoTaO6,3.447999999999999,-3.5903397202333323,mp-13000
Ba3Sr(ClF)4,5.585100000000001,-3.590247025833334,mp-1228025
Sr4LaTi5O15,0.0,-3.5901033874666672,mp-1218562
Th2AuF11,2.3273,-3.590026694999995,mp-29890
Sr4Zr3O10,3.6046,-3.589991767058824,mp-1208748
BaCeO3,2.2207,-3.589836753000001,mp-3187
CaEuZr2O6,0.0,-3.5897776075,mp-1523074
Nd19Ti20O60,0.0,-3.589673219789563,mp-1173610
Sr2ZrTiO6,2.516,-3.589645374333334,mp-1080028
BaSrSm4O8,3.5735,-3.589509130714286,mp-1227501
La2EuO4,0.0,-3.589424430714286,mp-1178267
Sr2HoUO6,0.9093,-3.588477880499998,mp-1205846
BaY2Si3O10,4.8161000000000005,-3.588372896250001,mp-560478
Ba2ScO3F,3.5461,-3.588310730714287,mp-1228342
Nd11Ti16O48,0.0,-3.5881191590111112,mp-1173643
BaCaBiF7,5.0395,-3.587606749,mp-1041345
Na5Ca6Nd5Zr16O48,3.6731,-3.587309457429956,mp-695571
Ba4Zr3TiO12,1.7076,-3.587298165166667,mp-1228038
Ba2Ti2CuF14,1.3375,-3.586997253508772,mp-1045006
Sr2YTaO6,3.8491,-3.586965255233333,mp-12355
SrY2Si3O10,4.9314,-3.5867759590625,mp-1020706
Ho2Be2SiO7,5.0859,-3.586752802083332,mp-7013
Ba2MgTi2CuF14,0.069,-3.586525925583333,mp-1360674
AcClO,4.4451,-3.586422302500002,mp-30273
Sr14La6Mg3Ti17O60,1.8583999999999992,-3.586404329316667,mp-686467
Sr2La3Ti2O10,0.0,-3.586342256274509,mp-1208909
Er3Pb4F17,5.0743,-3.586204228750002,mp-34580
Yb2Si2O7,0.0,-3.58617321102273,mp-4300
Er6MgTa2O14,0.0,-3.586139691289854,mp-1233913
Ca14La6Mg3Ti17O60,2.1726,-3.586036154816666,mp-695227
CaScAlSiO6,4.921,-3.5854160185,mp-39167
NdTa2O6F,3.2486,-3.585390585716667,mp-1220087
EuDyTi2O7,0.000799999999999,-3.5853779730303033,mp-1225188
CaPrTi2O6,0.0,-3.585082267833333,mp-1044426
Dy2SO2,3.0076,-3.584364030166664,mp-12669
HfAl2O5,4.9993,-3.584016893125,mp-2647075
Dy2Be2SiO7,5.089600000000001,-3.58398220486111,mp-1213057
Rb2LiYF6,6.8909,-3.583960213833333,mp-1110649
LaZrTa3O11,3.3365,-3.583958507937499,mp-1222999
Cs2UF7,1.0356,-3.5839498321810352,mp-1213795
BaCaCeZrO6,2.1401,-3.583946601,mp-1517492
La4TiO8,2.4243,-3.583714175,mp-1212566
TmNbO4,3.428,-3.5836585325,mp-555109
Na3Li3Sc2F12,6.916,-3.583651707456896,mp-14023
Cs2NaTbF6,6.8618000000000015,-3.58348305773563,mp-1206873
Rb2LiScF6,6.7042,-3.583158809333333,mp-1113703
Ba6MgSc2C2(O3F7)2,4.0884,-3.583010073064516,mp-1234212
Ca3HfSi2O9,4.7635000000000005,-3.582640128499995,mp-15003
CaU3Ti8O24,0.0593,-3.58238166574074,mp-1227253
LuNbO4,3.3974,-3.582251921944446,mp-644492
TmClO,4.5304,-3.582121096666667,mp-772295
TbHfO4,0.0,-3.582074436111109,mp-1101350
K3YF6,6.459300000000001,-3.5818314501749993,mp-13230
SrLaAl3O7,4.415,-3.581151387083333,mp-1218220
Pr5Ti4GaO17,2.767499999999999,-3.581129524598765,mp-1220762
Tb2Be2SiO7,5.1182,-3.5810270248611102,mp-1208515
K2LiYF6,6.697100000000001,-3.580641826783333,mp-1110834
Eu2HoTaO6,0.0,-3.5805719417333353,mp-1181527
Lu4MgTi2O10,0.0,-3.580191189901961,mp-2241022
Cs2KYF6,6.464,-3.579909350656033,mp-6059
KRb2YF6,6.383,-3.579900120725,mp-7012
Na5Zr2F13,6.1043,-3.5798151235,mp-555272
Ba2DyTaO6,3.3837,-3.579592562899999,mp-1206435
BaSrLa4O8,3.1952,-3.579481161071429,mp-1227776
Tb3GaO6,3.605399999999999,-3.579312696749999,mp-31112
Ba3Ho4O9,3.2565,-3.5788942990624992,mp-14323
Pr3Si2ClO8,5.140499999999999,-3.578738700000001,mp-554826
Zr27O49,0.0,-3.578150040592106,mp-684977
CaSmAlO4,3.1214,-3.577859907857143,mp-1227060
La8Al7BO24,3.754699999999999,-3.577816958979166,mp-997588
Sr3Ta4(O6F)2,3.4334,-3.577772882349206,mp-756810
Rb2NaTbF6,6.4622,-3.577728421304597,mp-1205542
ErNbO4,3.4799,-3.577529446666666,mp-5370
Gd3Si2BO10,2.807,-3.576534094401042,mp-1198316
CaYAlO4,3.2897,-3.576451555714285,mp-1227044
Ca9LaTi10O30,0.0,-3.576365813566666,mp-686651
Y4Ti2Nb2O15,2.4457,-3.576364936159422,mp-1216114
Rb2Mg2Be3F12,7.1687,-3.576064883421053,mp-1209662
Rb3LuF6,5.977399999999999,-3.576023184916667,mp-1206967
Zr19O40,0.1026,-3.575846019152542,mp-685070
Tb2SO2,2.9772000000000003,-3.575732090166665,mp-12668
Sr2DyUO6,0.903,-3.575362912166666,mp-1205924
Cs2KScF6,6.8201,-3.5753267951560352,mp-1113131
Sr2CaUO6,2.2089,-3.575181262999999,mp-14551
BaSm2O4,3.184599999999999,-3.575071462499998,mp-17960
UTi2O6,0.0,-3.574691137407407,mp-9771
CaLaAl3O7,4.3945,-3.574616511249999,mp-1227186
Sr9LaTi10O30,0.0,-3.5745605439666672,mp-695042
Rb2NaScF6,6.9076,-3.57439819013793,mp-1113669
Sm4Tm4MgO12,0.657899999999999,-3.5743649269047633,mp-1233301
SrSc4Si5O17,4.3818,-3.573782004074075,mp-1198043
Na2MgAlF7,6.656,-3.573647912978056,mp-6319
CsEuF3,0.0,-3.573640819000002,mp-8396
Cs2NaYF6,6.863900000000001,-3.573435046068965,mp-13925
Nd4PClO8,4.4905,-3.5733391971173463,mp-1194344
Er4MgZr4O14,0.0,-3.573122541956521,mp-1234243
NdY3Zr4O14,0.6442,-3.573025275795454,mp-1220113
Tm4MgTi2O10,0.151799999999999,-3.572974870098042,mp-2229419
Ca2HfTiO6,2.4866,-3.572403279333333,mp-1516534
CaGdAlO4,2.3719,-3.572300950000001,mp-1227092
Ca2HfZrO6,3.4088000000000003,-3.572141054999998,mp-1522139
K2Mg2Be3F12,7.1325,-3.5719270564210532,mp-13613
Ca2GdTaO6,3.5954,-3.571846930233333,mp-1227496
HoNbO4,3.4844,-3.571697374166666,mp-3144
CeMgZr7O16,0.0,-3.571631905,mp-1233982
Th2BPO8,4.532800000000001,-3.571448373234126,mp-1204611
Ba2TbTaO6,3.512799999999999,-3.571236521399999,mp-1207064
Ba8CaY2U4O24,1.937,-3.570523737948716,mp-667498
Sr3ZrTi2O9,1.9425999999999992,-3.570296004777778,mp-1218576
La2Sc2O5,0.051400000000001,-3.56986779111111,mp-1097046
La4CeZr3O14,0.480599999999999,-3.569856522727272,mp-1223232
Ba3In2F12,4.5144,-3.569621799313725,mp-28274
BaAlCdF7,5.0553,-3.569504678,mp-1214458
DyNbO4,3.490199999999999,-3.569322741944445,mp-556639
LuBO3,5.3023,-3.5691515161666683,mp-7560
Rb2NaYF6,6.447599999999999,-3.56894743563793,mp-13926
KRb2ScF6,6.5991,-3.568843039225,mp-6500
TiOF2,2.054999999999999,-3.568734357083334,mp-1216625
La3Gd(ClO)4,3.1135,-3.568384095416667,mp-1223064
SrLa3MgAlO8,2.8049,-3.568084551428572,mp-1218241
BaGd2Si3O10,0.145799999999999,-3.5676785271875002,mp-1197749
Ba2LaUO6,0.8498000000000001,-3.567626822499999,mp-1205700
Ba2YTaO6,3.463899999999999,-3.567441034733332,mp-12385
La8Al7InO24,3.519400000000001,-3.567433432166666,mp-997589
CaY2BeO5,4.0274,-3.567416348333334,mp-1227185
ErBO3,5.6534,-3.567248622833331,mp-1194043
Ba2YSn2F11,3.2313,-3.567181662395832,mp-1044569
TbNbO4,3.512499999999999,-3.566975817777776,mp-12647
NdTiO3,0.0,-3.566930537166667,mp-3119
ScTiO3,0.0,-3.5668841296666662,mp-1101375
SrNdHfTiO6,0.0,-3.566660141083333,mp-1520248
EuGdTi2O7,0.0037,-3.566448391060606,mp-1225996
LiY6B3O14,4.6908,-3.566173542743055,mp-555489
SrCaDy4Be2O10,4.0655,-3.566148480925926,mp-1218527
K2NaScF6,6.749700000000001,-3.56599070808793,mp-6058
Ca3Y2(SiO4)3,3.800099999999999,-3.565784487875,mp-1214208
LiLa3Ti4O12,0.0,-3.5655037400833343,mp-752433
Ba3Yb4O9,0.0,-3.565495527734377,mp-8261
La2MgO4,3.426800000000001,-3.565424925,mp-755142
Rb3TmF6,5.9785,-3.56506299125,mp-1205998
Ba2La2MgTi3O12,1.9177,-3.564906104250001,mp-695403
BaPaO3,0.0,-3.563953094999999,mp-8557
Ca2NdTaO6,4.256600000000001,-3.563938800983333,mp-1227405
Ce2Si2O7,0.0701,-3.56381628431818,mp-662527
CeSiO4,1.447799999999999,-3.563593093333333,mp-10523
NdZrO3,0.0509,-3.5634469955,mp-756246
Sr2GdTaO6,3.557,-3.563219399233332,mp-1209102
Pr3Si2BO10,4.7116,-3.563024256354166,mp-1196034
Ca3Zr2O7,3.3234,-3.5628100291666662,mp-756052
BaSr3Zr2Ti2O12,2.211999999999999,-3.5624116213333332,mp-1227746
SmSnF7,4.9698,-3.562214694722223,mp-17418
NaTi3F10,0.0,-3.5621007104556672,mp-1120740
Y2Be2SiO7,5.1545,-3.561541379999999,mp-6655
Cs2LiYF6,7.266299999999999,-3.561357111833335,mp-1110969
Ba3Dy4O9,3.2313,-3.560952405729166,mp-8974
Ba2ZrTiO6,2.2161,-3.560917732333334,mp-1078457
CeEu2ZrO6,0.067699999999999,-3.560849031250001,mp-1521539
Cs2NaScF6,6.8065999999999995,-3.560766908568966,mp-6204
SrSmAl3O7,4.2408,-3.560721565833332,mp-1218016
Dy4B4O11F2,5.4755,-3.560679379920634,mp-1196433
TbCeO4,0.0,-3.56024185236111,mp-1101343
SmMgF4,0.0,-3.559118764999999,mp-9540
Ba2NdUO6,0.897999999999999,-3.558935959749999,mp-1205576
CaNdAlO4,2.8948,-3.5588587267857132,mp-1227041
Ba2Ti2Si2O9F2,3.3266,-3.558764211200981,mp-557968
ZrSiO4,4.1495,-3.55875977333333,mp-4820
EuTiO3,0.0,-3.558521973666669,mp-1079111
ZrTi2O6,2.652799999999999,-3.558512406018519,mp-757504
Eu2Sc2O5,0.0,-3.558378030555557,mp-1096978
La2SO2,3.064000000000001,-3.5583565615,mp-4511
LaNbO4,3.8042,-3.558192809166667,mp-542724
K3GdF6,4.6378,-3.558172364175,mp-13229
EuOF,0.0,-3.558056101666668,mp-22338
La2(SiO3)3,4.3297,-3.5578460950000013,mp-756888
Ca4Zr3TaO12,0.0,-3.557799488366666,mp-756837
Th2P2O9,5.073399999999999,-3.557437455329672,mp-556017
Sr2Ce2Ti5O15,0.2724,-3.5573350013194442,mp-1218863
SrCe2(SF2)2,0.0,-3.557242973888888,mp-1218416
Cs2RbYF6,6.1978,-3.557187892681034,mp-7886
SrYAl3O7,4.1991,-3.557073157083333,mp-1217784
HoBO3,5.4365,-3.557053922833332,mp-752713
Pr7BP2O17,4.7201,-3.557036568430334,mp-554964
Sr5ZrTi4O15,1.946699999999999,-3.556876057933333,mp-1218534
LiU3O8,0.049,-3.556688546111109,mp-760476
CaTiO3,2.3053,-3.556087157166666,mp-4019
Zr6Nb2O17,2.0519,-3.5560670402,mp-766207
Ca2Ti3O8,2.7744,-3.555911269999999,mp-1397126
Li3ThF7,5.682,-3.5558808719318162,mp-27761
Y4Ti3SnO14,2.9302,-3.555811256136364,mp-1216103
CaUTi2O7,0.0,-3.555797989696968,mp-1227094
SrEuZrTiO6,0.006499999999999,-3.555401641833333,mp-1518697
SrNdAl3O7,4.277299999999999,-3.555335341874999,mp-1218172
La4GeO8,3.8436999999999992,-3.555280567500015,mp-1211987
CaTiF4,0.0,-3.555190774722221,mp-1407767
Ce2Ta2O9,1.5320999999999991,-3.555139308820512,mp-1213882
Sr2LaTa3O11,3.0179,-3.55495382952941,mp-557028
Gd3Si2BrO8,2.1851,-3.554936807500001,mp-1224744
Ti3AlF15,2.8799,-3.5545270407894742,mp-1047451
Cs2RbScF6,6.6555,-3.554173583181034,mp-1111963
Er4MgTi2O10,0.1654,-3.553779139509803,mp-2229012
KPrHf2O6,2.814599999999999,-3.553620121891666,mp-1522216
CaSmAl3O7,4.2347,-3.553261429583333,mp-1227109
Cs2KLaF6,6.2199,-3.552912250156035,mp-1206736
KPaO3,3.0477,-3.552497714449997,mp-1206970
U3O7,0.0,-3.552164154499998,mp-1216910
La4BrCl3O4,3.9305,-3.552056619583334,mp-1223072
Nd10Ti12O39,0.8116999999999991,-3.551977940163934,mp-531661
CaYAl3O7,4.276199999999999,-3.551931291666666,mp-1227119
SrTiO3,1.848799999999999,-3.551662291666667,mp-4651
SrNd2Ti4O12,1.7245,-3.551595463070175,mp-1218162
Ca2CeO4,2.161,-3.551315842857142,mp-755597
Rb3ErF6,5.9394,-3.551303009249999,mp-1206448
Ba2AlCuF9,0.146199999999999,-3.551207455384615,mp-1228786
DyClO,4.349,-3.551133473888889,mp-1178362
BeF2,8.0368,-3.551075402222222,mp-561543
Sr4ZrTi3O12,1.980999999999999,-3.5509937615,mp-1218479
Ba2CaUO6,2.1948,-3.5504361099999993,mp-557448
SrPrAl3O7,4.2972,-3.550316002222221,mp-1218014
Cs2NaSmF6,6.924799999999999,-3.549816545568966,mp-1205868
Na3HfF7,5.5321,-3.549354462727273,mp-34579
SrLaAlO4,2.8439,-3.5491682278571433,mp-1218184
YSnF7,4.8779,-3.549092376388889,mp-18183
CaGd2BeO5,2.5808,-3.549080214444444,mp-1227214
Sm2Be2SiO7,5.1019,-3.548922657083334,mp-1208884
Pr4PClO8,4.4953,-3.548600195450681,mp-1194001
NaHfScO4,4.106,-3.548478344839901,mp-1220764
BaSc2Si3O10,4.758,-3.54833001625,mp-1194834
Y3GaO6,3.6846,-3.54831445175,mp-554722
Li4ZrF8,5.968,-3.548275181666667,mp-9308
Ca2La3Si3O13,0.0,-3.5481770530952392,mp-1214227
TmTiClO3,3.067299999999999,-3.548168928055557,mp-1207686
CaNdAl3O7,4.2799,-3.547924586458332,mp-1227115
K2NaYF6,6.2393,-3.547740040587931,mp-13799
SrNd2O4,3.6022,-3.547404760714285,mp-753418
LuTiClO3,3.0696,-3.5472499799999992,mp-1210698
ErZr11Si11PO48,4.0268,-3.546879104647817,mp-690951
SrSmHfTiO6,0.0,-3.546519014833333,mp-1520741
CaAlSiO4F,5.2089,-3.54634152625,mp-6873
Y7ReO14,1.0309,-3.546216060568181,mp-38807
La2Al4O9,3.8099,-3.545410585666667,mp-768382
SrCa3Ti4O12,2.17,-3.545401757666666,mp-1218476
Sr2SmTaO6,3.7716,-3.545386613233334,mp-1208761
NdEuHfTiO6,0.0,-3.545312715583333,mp-1521819
Sc6ReO12,0.0669,-3.545269936973685,mp-13191
Rb3ScF6,6.2397,-3.545157270749999,mp-1209282
CaLa2BeO5,3.936399999999999,-3.54466113638889,mp-1227216
YSnF5,2.948299999999999,-3.544262684285715,mp-1394400
Ca2Al3O6F,4.4961,-3.544253495833333,mp-1227590
Gd2Be2SiO7,3.314799999999999,-3.544126313333334,mp-1212449
CaTi2O5,2.9078,-3.543918041458333,mp-1403610
Ba2GdTaO6,3.307599999999999,-3.543877060733334,mp-1205549
Th2Ta6O19,3.239,-3.543811622740741,mp-9275
Sr2YbUO6,2.1809,-3.5437607132499997,mp-1206701
YNbO4,3.497499999999999,-3.543508845,mp-5387
Pr4B3O10F,4.5125,-3.543071638009258,mp-1219930
NaLaZr2O6,3.7171,-3.543043847637931,mp-1220787
CaPrAl3O7,4.2872,-3.543019718055555,mp-1227113
ErTiClO3,3.1421,-3.542939039722222,mp-1212930
Sr3CaTi4O12,1.9214,-3.542857729166667,mp-1218577
Sr7CaTi8O24,1.771399999999999,-3.5427999391666662,mp-1075922
Eu2LuTaO6,0.5686,-3.542649322400001,mp-1205856
BaB2F8,8.0511,-3.542616619848482,mp-558430
KNdHf2O6,2.7817,-3.542495173474999,mp-1522310
BaAlBO3F2,6.0642,-3.5424739598958332,mp-558491
Rb3YbF6,5.9958,-3.541985616874998,mp-1205752
DyZr9Si9PO40,3.9673,-3.541806379271825,mp-686636
La4Ti5(Si2O11)2,0.0,-3.541655396476189,mp-559176
MgSc2O4,3.7117,-3.541573628571428,mp-1222055
Cs2LiPrF6,6.9993,-3.541407002833341,mp-1110972
SrClF,5.937699999999999,-3.541261810833333,mp-22957
Sr2CaTi3O9,2.0672,-3.541167437833334,mp-1218872
Ce2MgTi4O12,0.0,-3.540542697807017,mp-2228372
Ba2ZrUO6,0.0,-3.5405289179999992,mp-1205832
SrCaTi2O6,2.0999,-3.540385165666666,mp-1218358
K3YbF6,6.0621,-3.5403399016250012,mp-1205753