formula,bg,formation_energy,mp-id
Na2Sc4Nb4Si5S7O48,1.3146,-2.704364591122743,mp-2716208
UTeO5,1.8368,-2.704336896309523,mp-3516
Ba4Br6O,4.1652,-2.70427720772727,mp-555218
HfMg14SbO16,0.0381,-2.7041281634375,mp-1033754
U2Cl5O2,0.0,-2.7038389922222192,mp-27661
KAl4(SiO6)2,0.496299999999999,-2.703804000118421,mp-727941
LiGaPO4F,0.0,-2.703791315684524,mp-1210869
Li3Nb4SnO12,0.0,-2.70369704225,mp-753319
SrLiPrTeO6,3.4614000000000003,-2.703693509166667,mp-39144
Sr2B5H2O11,0.9298,-2.703602989166666,mp-699248
Na4MgTiSi2SO12,2.1345,-2.703546141810345,mp-2714539
NaHfGaP2SO12,3.7575,-2.703347720777686,mp-2712792
K2TaAuF6,1.169,-2.703276743183333,mp-1112417
LaCl3,3.6454,-2.703267628124999,mp-22896
BeTl2F4,4.4341,-2.703259285595238,mp-3733
Cs2Na4Cu2Si12H4O31,1.1812,-2.703210352815048,mp-709921
AlSn3F15,2.7096,-2.703198596578947,mp-1047454
RbLiMg14O15,1.267399999999999,-2.703177118897849,mp-1035479
Mg14TiCO16,0.0742,-2.703174703697916,mp-1034112
Cs2U(PO5)2,0.0,-2.70314377857307,mp-1193333
HfMg14BO15,0.6125,-2.703067936263441,mp-1033729
Ba2Na2Zr2Si6O23,0.0,-2.703033864007388,mp-1229309
Cs2RbTlF6,3.7422,-2.702997824014368,mp-989567
Rb2TaTlF6,0.0,-2.702851017566667,mp-1113852
NbAlP2SO12,2.6439,-2.702849491869748,mp-2713365
LaNb3Si3(SO8)3,1.6302,-2.702849041004903,mp-2713910
Na14Hf3Zn5(PO4)12,4.0904,-2.702806389085666,mp-2714304
CaTi4(CuO4)3,0.0,-2.702762577666666,mp-22592
Sr2YAlSn2O7,1.171599999999999,-2.7027568173076912,mp-1048081
Na6Ti3ZnSi4(SO12)2,1.9495,-2.7027520248318972,mp-2714352
LiPO3,5.722,-2.702727293428572,mp-29195
LaSClO4,4.0939,-2.702717232142858,mp-559820
Na14Ca5Hf3Si6(SO8)6,3.2525,-2.702600852328988,mp-2714270
Na2PO3F,4.4907,-2.702446182128782,mp-12159
Y2MgBi2O7,2.6925,-2.702370999166667,mp-2218103
Al2Ge2O7,3.409799999999999,-2.702367327272727,mp-9751
Ba2YbBiO6,0.0,-2.702354031250002,mp-545436
Ba2Tm2CuPtO8,0.2841,-2.7022016816071432,mp-1214674
Eu3Si6N4O9,0.120199999999999,-2.70216389727273,mp-1213517
K2BaNa2Ti4(SiO4)8,0.5992000000000001,-2.702010396338611,mp-1200158
K2InGaF6,2.5562,-2.701918501866667,mp-1112221
Ti10Bi(Pb3O10)3,0.0,-2.701905165066666,mp-677372
TiSn(PO4)2,1.6846,-2.7018582481349203,mp-760599
Na4Nb2Si5Sn2SO24,2.621699999999999,-2.701856628149578,mp-2714939
Ba2EuCl7,0.0,-2.70182724825,mp-29550
Ca3(AsO4)2,3.6559,-2.701729207527472,mp-530449
Mg3SiO6,0.0961,-2.7017010565,mp-1210674
BaY2Cl8,4.8824,-2.701682225454545,mp-769044
Na6Ta3In5(PO4)12,2.8207999999999993,-2.701645460711578,mp-2714867
NaLa2IrO6,0.0,-2.7015885496379313,mp-11914
Sr9La5Cl33,3.6307,-2.701541652606378,mp-782053
Sr2LaCl7,4.0849,-2.701441859249999,mp-768633
CsBaIn2(PO4)3,3.5777,-2.7013992977324772,mp-532541
Na6La2Al2Si3(SO8)3,3.52,-2.701299881519397,mp-2716267
Na5La2In2P5SO24,3.0204,-2.70128528164814,mp-2714992
Na6Hf2Mg2Si3(SO8)3,2.5826,-2.701283077602731,mp-2716190
BaCaMg6O8,4.128299999999999,-2.701232804999999,mp-1031868
Na6Ti6O13,0.0,-2.701105116131035,mp-1190239
CaMg14CO16,1.068799999999999,-2.701015504531249,mp-1036231
KCdF3,3.3539,-2.700995697449999,mp-9628
La2Si2O5,0.0,-2.700842459444445,mp-1185023
Y2Zr2SiS5O24,3.4546,-2.700621132083334,mp-2712992
Al6Cd4TeO12,2.5652,-2.7006098537681162,mp-9535
Na4Al6ClO12,0.3719,-2.7005979428485762,mp-1210204
NaNb2SiGe2P5O24,2.6158,-2.700381875083627,mp-2715802
BaNaCe2C4O12F,0.2496,-2.7001993129228232,mp-542264
Na3CaTaSi2SO12,2.1137,-2.700185254281897,mp-2714580
KLi(PO3)2,5.493799999999999,-2.7001274273619043,mp-559142
Na7TaSi6(GeO8)3,3.0194,-2.70006805199972,mp-2713084
Na8La2Si5Sn2SO24,2.191,-2.699943325044473,mp-2715726
LaTaSi(SO6)2,2.4087,-2.699823363666667,mp-2713393
Na3Nb2In2SiP5O24,2.1687,-2.699747095243754,mp-2712905
Na14Zr4In4Si9(SO16)3,3.1859,-2.699731539615573,mp-2714946
Na7NbSi6(SnO8)3,2.772,-2.699693900113541,mp-2712879
Na6Ti7ZnSi6(SO8)6,1.7146,-2.699558533242466,mp-2714648
Na4Ti2Al2Si3(SO8)3,1.4926,-2.699517244421507,mp-2713582
SbPbF7,3.9678,-2.69948304722223,mp-1105453
LiPr2IrO6,0.0,-2.699372322166667,mp-11906
Ca2Nb4P6(SO12)3,2.467,-2.699345423242297,mp-2713504
Ba5Al2In2IrClO13,0.0,-2.699298291388888,mp-559534
Na6Mg3ZrP4(SO12)2,3.926699999999999,-2.699248952671183,mp-2712638
Rb2TaAgF6,0.286699999999999,-2.699211225399999,mp-1111828
Ti4Zn3SnO12,1.4189999999999992,-2.699205424916666,mp-1120724
SrMg6ZnO8,4.9199,-2.699190193124999,mp-1032034
Li7V4(PO4)6,0.0,-2.699123246614402,mp-760371
Na2La2Nb2Si3(SO8)3,0.9718,-2.6990964744979262,mp-2713390
Na8Mg3Sn(PO4)6,1.792199999999999,-2.6990917529101193,mp-2715027
LiNb7O12,0.0,-2.699049458166665,mp-772147
Na2MgZr3Si2(SO6)4,2.1289,-2.699023381696999,mp-2712543
SrNb2CuO7,0.0,-2.699013036818181,mp-1147552
NbSn(PO4)3,2.9196,-2.698969208662466,mp-2713956
Na3Ca2Ti2P3(SO8)3,2.1794,-2.698967249925221,mp-2713948
SrCO3,4.4416,-2.6989622775,mp-3822
Sr3(AsO4)2,3.785999999999999,-2.698925470384615,mp-755082
CsScP2(HO4)2,4.8671,-2.6988984922457773,mp-543046
Na6Zr4Al4Si5S7O48,2.599,-2.698887537172647,mp-2715840
KInF3,2.3697,-2.6988681597833333,mp-1112296
NaCaTi3P3(SO8)3,2.0862,-2.698802306889749,mp-2716370
La2Zr2SiS5O24,3.4591,-2.698731693553922,mp-2713106
Na10Zr4Si9Ge4(SO16)3,2.8409,-2.698710652901194,mp-2714211
Ba2CaCuAg2F14,0.0,-2.698657741166666,mp-1045649
Na8Y2Si5Ge2SO24,2.5296000000000003,-2.698500565203202,mp-2716161
NaTa2Ga2P5SO24,3.332099999999999,-2.698451565955055,mp-2716188
Sr15La2Cl36,2.5314,-2.698413749999999,mp-1173598
CsLi(PO3)2,5.2843,-2.6983586913524222,mp-560667
PuMgO3,0.0,-2.6982613957499972,mp-1186787
Na4MgTi3Si3(SO8)3,1.1112,-2.698206416570629,mp-2713589
HfMg14CO16,1.2385,-2.698168228906249,mp-1033660
Na2AlSn(PO4)3,3.5176,-2.698147002281782,mp-2713717
Ca3Si4(AgO7)2,0.7307,-2.698132041666666,mp-1248597
Ti3CuSn2(PO4)6,0.0,-2.69812474438492,mp-775589
Mg14NbSnO16,1.3943,-2.69811048890625,mp-1034304
Cs2U(Cl2O)2,2.3217,-2.698006853256704,mp-541275
YTaSi(SO6)2,2.2426,-2.698002280137256,mp-2713409
PHPb2F10,5.4789,-2.697820168278061,mp-865973
Mg3Si4O13,0.0,-2.697783993000001,mp-1189710
Mg14SiBO16,1.15,-2.697779149036458,mp-1034819
CsSrSiHO4,3.9473,-2.697648403238146,mp-1259697
BaMgAl3P2(HO7)2,0.029799999999999,-2.697600276381987,mp-1233827
Ba3MgSb2O9,2.6494,-2.697531417666667,mp-16978
Rb2GaAgF6,2.4254,-2.697439552416666,mp-1110609
MgP4O11,5.0898,-2.697408374598214,mp-15437
Na6Ta4Si9Ge4(SO16)3,2.6025,-2.6973520761726473,mp-2713049
Na4Zr3ZnSi3(SO8)3,2.4387,-2.6972460362636133,mp-2713652
Na7Ca3SnP5SO24,2.4332000000000003,-2.697106973708198,mp-2716080
Na2TaZn(PO4)3,2.782,-2.697073331264238,mp-2713668
Mg2TiSbO6,0.0,-2.697026075333333,mp-1342645
Nb3CuO8,0.7845000000000001,-2.697000756458333,mp-27383
MgHOF,4.7269000000000005,-2.6969234434375,mp-1189172
RbCdF3,3.1745,-2.696909542499998,mp-6951
NaV(OF)2,2.1974,-2.696898790229884,mp-18953
Na6Hf6Zn2Si5S7O48,3.1342,-2.696579896451926,mp-2715829
Na6Ta4Zn2Si6(SO12)3,2.4109,-2.6965114194756,mp-2712594
Mg6TiNbO8,0.038900000000001,-2.696372603958333,mp-1031396
Si2Cl2O3,5.6739999999999995,-2.6963053089285722,mp-28959
YB6(HO4)3,6.151999999999999,-2.696107852215909,mp-1178731
Na3Al3Si3O14,0.3687,-2.696096143223388,mp-1221765
BaGeO3,3.5519,-2.696001211500001,mp-13863
CsCdF3,3.2859,-2.695887164000001,mp-8399
MgTi2(PO4)2,0.006099999999999,-2.695860212957875,mp-1044655
Na3AlSiGe(PO6)2,2.912399999999999,-2.695768474087849,mp-2715233
Na8TaGa3Si4(PO12)2,3.1776,-2.6956909269877842,mp-2716255
NaZr3ZnP3(SO8)3,3.7254,-2.695617000794511,mp-2716548
CaAs2HF13,4.8391,-2.695540919044117,mp-778977
KRb2TlF6,3.855699999999999,-2.695476285558332,mp-1113872
Cs2TiCu3F12,0.3339,-2.6954516432024263,mp-1195388
Be2GeO4,4.2042,-2.695319498333333,mp-768285
Na5La2Ga2P5SO24,2.7981,-2.695196920921645,mp-2714974
Ba2LaNb(CuO4)2,0.236399999999999,-2.695172661785714,mp-1214654
Na8Ca2Y2Si3(SO8)3,2.7989,-2.6951705394492342,mp-2715101
MgAl2SiO5,0.004299999999999,-2.695030973888889,mp-1213240
Mg2Nb2CuO8,0.148099999999999,-2.694920496923077,mp-1048563
Ta10Zn2Si9(SO8)9,1.4951,-2.694844786674838,mp-2713771
NaYTiSi(SO6)2,1.5904,-2.694803772113667,mp-2712567
Na3HfInSi2SO12,3.4524,-2.69478146391523,mp-2714451
NaHfAlSi(SO6)2,4.5215,-2.694716487391443,mp-2714038
KMg14SbO16,3.7864999999999993,-2.694594100539062,mp-1035669
Ba3Nb16O23,0.0,-2.694584438928573,mp-5360
CaSnO3,2.3301,-2.694555046500007,mp-4438
Li4ZrO4,4.5396,-2.694441361481481,mp-756344
KMg6AlO8,4.412599999999999,-2.6943229979531242,mp-1033058
Sr2YAlCu2O7,0.0,-2.6943083796153853,mp-643741
Li3Eu2(BO3)3,0.0327,-2.694304949264705,mp-1098016
KNdNbInO6,2.99,-2.694240541141666,mp-1521418
NaCaHfP(SO6)2,3.8097,-2.694232350890121,mp-2715751
Na10Ta4Ga4Si9(SO16)3,2.8991,-2.694155769644783,mp-2714103
Na4MgTi3O8,0.0,-2.694069690032327,mp-2232918
Mg3ZnO4,2.8326,-2.693945698125,mp-1024045
NaNbIn(PO4)3,2.3857,-2.693881960572661,mp-2713817
Na7Al2In2SiP5O24,3.7613,-2.693802567956165,mp-2715687
RbBaSiHO4,4.0915,-2.69375097359375,mp-995192
TiGa2O5,2.9909,-2.693698897604167,mp-1101038
KNaMg14O15,2.653299999999999,-2.693692200439655,mp-1034015
Na6Ta3Al5Si6(SO8)6,2.0519,-2.693616118314538,mp-2714792
K2NaTlF6,3.6205,-2.6935687419212653,mp-13798
Na2CuSi3O8,0.922199999999999,-2.693563550911329,mp-557123
NaEuTiSnO6,0.0,-2.6935603474712653,mp-1521301
Mg2Nb2SbO8,0.0,-2.6935527469230762,mp-1048066
Ba2NdIrO6,0.0,-2.69351797275,mp-1079169
Cs3Li4(BO2)7,4.5305,-2.693396767611863,mp-1019615
Na4TiZnSi(PO6)2,1.6211000000000002,-2.693376000308077,mp-2714357
K2Na2Sm2MgNb2O10,0.8783000000000001,-2.693357413803085,mp-2231355
Na9ZrP4ClO16,3.9882,-2.69322296454791,mp-559150
Ba8Lu3(Pt2O9)2,0.0,-2.693198786969698,mp-1214446
ZrSeO,1.9570999999999992,-2.693179919947917,mp-756361
NaY2Sc2PS5O24,2.9797,-2.69300157133873,mp-2714086
CsMg14TiO16,0.9952999999999992,-2.69297481321839,mp-1034204
Na2SiO3,3.8657,-2.692845917126435,mp-4533
EuGaO3,0.0,-2.692836498500001,mp-1206706
TmU2S3O2,0.0,-2.692762486562498,mp-1025490
ErU2S3O2,0.0,-2.692752169062496,mp-552802
CeAg(PO3)4,0.344599999999999,-2.692738689874338,mp-1202277
Li2Nb2(PO4)3,0.0,-2.692719612399749,mp-776371
Ba2LaMgBiO6,2.4396,-2.692634605454546,mp-2240254
Ca2YCuO5,0.0,-2.692535792222221,mp-1337023
Ba2Er2CuPtO8,0.2711,-2.692528628749999,mp-1214824
MgAlNF6,2.9224,-2.692343139444444,mp-1222157
Na2TcF6,1.5541,-2.69218343,mp-1078535
Na2Sc6Ta2Si3(S3O16)3,1.9804,-2.6921393170227432,mp-2716452
Mg14CuBiO16,1.935799999999999,-2.692041879374999,mp-1035292
Eu2AlNO3,0.0,-2.69194624857143,mp-1025206
Nd4S4Cl2O,2.892599999999999,-2.691744341363634,mp-1220227
Ca3In2O6,2.238099999999999,-2.691589546212121,mp-757442
Na7TaGa3Si3(PO8)3,3.1526,-2.691509679514238,mp-2714833
LuU2S3O2,0.0,-2.69129127614583,mp-1025410
SrCaAl4(SiO5)4,0.0,-2.691284062666667,mp-1218507
SrTi4(CuO4)3,0.0,-2.691188633166666,mp-1208604
Na8Ti2In2Si5SO24,2.7047,-2.691176716552409,mp-2715561
CsHo2Cl7,4.571,-2.691054567215525,mp-1213367
Cs2Li3(BO2)5,4.5354,-2.691020628257185,mp-966802
Na2Nb3InSi4(SO12)2,1.9734,-2.690996790863666,mp-2715579
Be3Si3(SbO6)2,2.9598999999999993,-2.69094413175,mp-1041250
Na7Ti2Zn2SiP5O24,1.6666,-2.690793060476491,mp-2715630
Na2Y6Nb2Si3(S3O16)3,1.0758,-2.690761456670362,mp-2716364
Na3AlIn(PO4)3,3.8793,-2.690644939736659,mp-2715416
KLaDyBiO6,1.713099999999999,-2.690643671391666,mp-1522669
Na4MgTi2(SiO5)2,0.0,-2.690570319851784,mp-2230825
Na18Nb8Zn4Si15(SO24)3,1.6461,-2.690522548394397,mp-2713902
Sr2La2CuRuO8,0.0,-2.690403942142857,mp-1218695
Na4AlInSi(PO6)2,3.4806,-2.690381336974745,mp-2714470
Na2CaLaP(SO6)2,4.3134,-2.690332916442183,mp-2713460
Ba3(AsO4)2,3.906,-2.69028426346154,mp-9783
Na2La6Nb2Si3(S3O16)3,1.145199999999999,-2.6902157955751242,mp-2716398
Na5HfAl3Si3(SO8)3,3.7655,-2.69017156254863,mp-2716332
K3Nb8(O5F2)2,0.0,-2.69009030527,mp-1223692
Rb5Li6(BO2)11,4.5125,-2.690033145416666,mp-1020620
Be2BO4,0.1268,-2.6899915089880952,mp-736232
LiHfMg6O7,0.469199999999999,-2.689964163888889,mp-1031107
Na8Al12SO28,0.0,-2.689916677112948,mp-1210313
Na3TiZn(PO4)3,2.1174,-2.689902839444992,mp-2715428
Na3MgTaSi2SO12,2.325299999999999,-2.689897568531897,mp-2714546
Sr2NdNb(CuO4)2,0.0,-2.689857955178571,mp-1173261
RbTb2Cl7,4.6652000000000005,-2.689844908833332,mp-1209188
Na2HfSi2GeSO12,2.766499999999999,-2.6897320624697523,mp-2712698
Na6Nb2Ga2Si5SO24,2.2638,-2.689701474436064,mp-2713938
Na5Y2Mg2P3(SO8)3,4.3818,-2.689616547948508,mp-2714855
La2P3(HO3)3,4.5066,-2.6895395422163872,mp-1195921
Na2Ca2Zr6Si3(S3O16)3,2.3306,-2.6894551969084572,mp-2716486
MgZr3P2(SO6)4,3.4747,-2.689419268067228,mp-2713005
Sr3LaZnRuO8,0.508799999999999,-2.689399345357142,mp-1218437
MgTi3(P2O7)2,0.0758,-2.689347831753246,mp-1046926
Mg14ZnBiO16,0.0,-2.689312591875,mp-1035769
HoU2S3O2,0.0,-2.689289090937497,mp-1206006
LaCuO2,2.521599999999999,-2.689203321249986,mp-20072
NaLa2Sc2PS5O24,3.2645,-2.689128454672063,mp-2714138
MgTi2P2(HO5)2,0.0934,-2.68908564667367,mp-2229225
Be3Zn4Si3SO12,4.2033,-2.689035306630435,mp-6856
Na3B6BrO10,4.726299999999999,-2.688946925581895,mp-1197987
Na2CaYP(SO6)2,4.322900000000001,-2.688848051266744,mp-2713122
BaMg14SiO16,2.736699999999999,-2.68881581625,mp-1034729
Na8Ca2La2Si3(SO8)3,3.002399999999999,-2.6888022484174883,mp-2715135
Cs2GaAgF6,2.7308,-2.688667714847702,mp-1113583
Na10Nb2Al6Si7S5O48,2.144,-2.688570699503758,mp-2715965
Be3ZnO4,4.2643,-2.688549454374999,mp-1227338
Sc3NbP2(SO6)4,2.2919,-2.6885184073809523,mp-2712915
Na5Al2SiGe2P5O24,2.8755,-2.688496758977201,mp-2716105
MgTi3(SnO4)3,0.7645000000000001,-2.688387543684211,mp-2230911
Li3GaSiO5,3.8432999999999993,-2.688300978999999,mp-16996
Na3Ti2Ga2P5SO24,2.4078,-2.6882854820680793,mp-2716066
ScTaSi(SO6)2,2.5587,-2.688210636117647,mp-2713398
Ca2AlCuO5,0.0,-2.688202504444444,mp-1264781
Na14Sc4Si9Sn4(SO16)3,2.4644,-2.688183134900126,mp-2715111
Ba2NaReO6,1.8688,-2.688152365387931,mp-6798
K2Al2O2F9,0.189999999999999,-2.688113734966666,mp-1223763
Na5Y3Si3Sn(SO8)3,1.9404,-2.688086342933245,mp-2716447
CsPr2Cl7,4.3786,-2.688033882173851,mp-1213617
Rb2Ta2Si2O11,0.516699999999999,-2.688032389906862,mp-1211926
NaNb2O4,0.0,-2.687939693054188,mp-760991
Ba2YMgBiO6,2.883899999999999,-2.687908746818182,mp-2217325
Na5Zr2Zn2P5SO24,3.6102,-2.687887714383184,mp-2714962
Na5Mg2Sc2P3(SO8)3,4.025799999999999,-2.687820371281841,mp-2714692
Ba2Zn3(PO3)10,4.945,-2.687640255031746,mp-555980
CaCO3,4.999499999999999,-2.687544458,mp-3953
ZnB4O7,4.8477000000000015,-2.687527499618056,mp-12233
ZrP2(HO4)2,4.3746,-2.687463948406593,mp-707540
La6Ti3Se9O5,0.0,-2.687457624177989,mp-1172881
CaHf3SiS5O24,3.1879,-2.687456128946078,mp-2713012
Na4Sn3F10,3.5349,-2.687418471470587,mp-27310
Na3LaSiGe(PO6)2,1.4129,-2.687376414004516,mp-2715508
Li2MgZr2H4(OF3)4,0.6743,-2.6872884762666662,mp-1223295
DyU2S3O2,0.0,-2.68707550677083,mp-1206004
NdB4ClO8,0.0,-2.686991816726191,mp-1194357
Sr3La2Cl12,3.7187,-2.686981179999993,mp-768615
Sm2Cu(GeO4)2,0.6698000000000001,-2.686976771538461,mp-1208916
Li2Cu2(Si2O5)3,0.0,-2.686758524166667,mp-757870
CaTiCuO4,0.0,-2.6866674333333322,mp-1147567
Ba3Re2O9,0.0,-2.686587441428575,mp-38972
LiNbO2,1.579499999999999,-2.6863829308333362,mp-3924
PrB4ClO8,0.0,-2.686358820238095,mp-1193360
Lu2Ta2O5,0.0,-2.686337848111111,mp-973920
Na5ZrGa3(PO4)6,3.603399999999999,-2.68630306710907,mp-2716544
La4Re6O19,0.0,-2.686276199655174,mp-4802
Na18Ca8Nb16Si21(S5O48)3,1.045,-2.686231059942917,mp-2712860
Na3AlP8O23,5.2656,-2.686165786108023,mp-14389
Na2ZrGeO5,3.4539,-2.6861438785009573,mp-561346
SbF3,4.4396,-2.685827188749999,mp-1880
CsLiMg14O15,2.1666,-2.685793457999629,mp-1035562
NbTl(BO3)2,3.4093,-2.685720872166668,mp-559057
Na2La4Nb4Si5S7O48,1.2311,-2.685702437217981,mp-2716127
KPO3,5.1269,-2.68566805237857,mp-5039
Ba5Re3O16,0.5103,-2.685463896770834,mp-698206
AlSiAgO4,2.5438,-2.685406378095237,mp-1228164
U2Si(H2O5)2,1.896799999999999,-2.685311763823528,mp-23994
BaTi4Bi4O15,1.6025,-2.685265057430557,mp-1227554
YTiP(SO6)2,2.0499,-2.685221555763306,mp-2712963
NaZr2Ge2P5SO24,2.570699999999999,-2.6851927783455323,mp-2716181
Na2ZnB6O11,4.7511,-2.68501419838793,mp-1020181
Ba2MgCu(PO4)2,0.1389,-2.685000361020407,mp-2228499
Mg14SiSnO16,2.14,-2.684903548906249,mp-1034282
Ba2PrNb(CuO4)2,0.0,-2.684856453333332,mp-1228503
Sb2POF13,4.1483,-2.684802123067226,mp-561176
Na6Mg4Ta2P6(SO12)3,2.9212,-2.68473916128596,mp-2713587
Ba3Ga4O9,3.0829,-2.684727575937501,mp-771132
ScAsO4,3.5491,-2.6847117654166652,mp-546125
PrTi6Bi7O24,2.301199999999999,-2.6846286463596503,mp-1219886
Ba10MgAs6(ClO12)2,2.4739,-2.684628362325582,mp-1234135
RbDy2Cl7,4.5264,-2.684599881583341,mp-28094
MgNb2(BO4)2,0.356499999999999,-2.68459659025641,mp-2219183
Na2Al2Si3(HO3)4,4.538200000000001,-2.68454943838081,mp-1173798
YU2S3O2,0.0,-2.684541831562497,mp-1025436
KMg14BiO16,4.2977,-2.684473608976562,mp-1035670
ScTlO2,0.9718,-2.684361058333334,mp-754384
Cs2TiO3,3.3373,-2.684312073773946,mp-1178403
Na2La8SiS11O48,3.0744,-2.684178748837029,mp-2714126
SrCa(CO3)2,4.7863,-2.684146306499999,mp-559653
K2GaAgF6,2.243,-2.684092103366666,mp-1112284
TaTlO3,0.9801,-2.6840876338833373,mp-676262
Na2Y2Sc2SiS5O24,1.750699999999999,-2.684081202692369,mp-2714399
Na14Ca5Zr3Si6(SO8)6,2.8329,-2.6840164338737043,mp-2714130
Na6TaGa3Si2(PO6)4,3.3143,-2.683958620833683,mp-2715253
NaLi2PO4,5.3418,-2.683879766898603,mp-558045
In2Si2O7,2.7009,-2.683866170757575,mp-2874
BaNaY2(PO4)2,0.0,-2.683738362190359,mp-1214445
CaSn(PO3)4,4.084,-2.683737069920634,mp-1045579
Ba3SrNd2(IrO6)2,0.0,-2.683638905749999,mp-1228090
Ba2Ho2CuPtO8,0.2622,-2.68361437642857,mp-1214783
Lu3Sb5O12,3.1381,-2.683591084749999,mp-768483
Na5HfIn3(PO4)6,2.4365,-2.683362584908215,mp-2713131
Na12Ca4Nb2Si6(SO12)3,1.7527,-2.68329831720717,mp-2714532
Cs2Li3B3P6(PbO12)2,5.0959,-2.683245777116686,mp-1196318
Li4Ga3Si3IO12,3.6307,-2.683226942427535,mp-557112
Ca2TaAgO6,0.4497,-2.683182820399999,mp-1346992
Na4LaSi2GePO12,1.2857,-2.68317633476953,mp-2716182
Ca2Ga2GeO7,3.0602,-2.6831644929166663,mp-1227514
TiGeO3,1.134899999999999,-2.683055854666666,mp-780260
Na5B2P3O13,5.079,-2.682991618659063,mp-557836
Ba2Ti4O13,0.0,-2.682921277807018,mp-1228517
BaCO3,4.397399999999999,-2.682779261000001,mp-5504
Na6Nb3Ga5(PO4)12,2.2624,-2.682778624119237,mp-2716418
Na14Mg4Ti4Si7S5O48,1.5579,-2.6827781470749232,mp-2715560
CeB4H2ClO8,0.450299999999999,-2.682639853072916,mp-1203793
SrSO4,5.9178,-2.682634480833333,mp-5285
Ba2Y7Cl25,4.1748,-2.6825634525,mp-769023
Cs2InBiF6,2.2862,-2.682546414597701,mp-989538
Na8Mg3Ge(PO4)6,1.556,-2.682361699576784,mp-2715132
Na10Ca3Ti5Si6(SO8)6,1.038799999999999,-2.682354180027262,mp-2713148
Na4Ga3Si3ClO12,4.2889,-2.682350928174663,mp-23656
NaHfInP2SO12,3.9542,-2.682254843046205,mp-2712685
Ca2B5H3O11,5.5382,-2.682228152837299,mp-1194894
BaSrMgTeO6,0.0,-2.6822081271666662,mp-1227325
CsSb4F13,4.5492,-2.682143524703065,mp-1213089
Lu2(SO4)3,6.0358,-2.682120325049016,mp-768453
Na2AlGe(PO4)3,2.9602999999999993,-2.682005078158975,mp-2713680
K2Na2Nd2MgNb2O10,0.7835000000000001,-2.681946797750453,mp-2231287
Tm3Sb5O12,3.1331,-2.681940301249999,mp-768450
Na3Y2Ge2P5SO24,2.3883,-2.681901215986997,mp-2715868
Na9Ca8Ta4P9(SO8)9,2.8979,-2.6818272978471422,mp-2713795
KAlPO5,0.0,-2.681814821642858,mp-1200491
Na2Ti3ZnP4(SO12)2,1.8231,-2.6816721745276872,mp-2712748
Ba2CaOsO6,0.0,-2.6814129579999992,mp-6739
KTa3(TeO6)2,2.9431000000000003,-2.681342558337963,mp-1200554
Ta2Cd2O7,2.0269,-2.681269108606061,mp-5548
InBF4,4.5332,-2.6812385733333333,mp-8586
KLaTbBiO6,1.7048,-2.6812213148916673,mp-1520860
Cs2Cd3(B4O7)4,4.5525,-2.681176223795448,mp-1201213
RbPO3,5.1118999999999994,-2.68106058217857,mp-4135
Na14Y4Si9Sn4(SO16)3,2.272999999999999,-2.681046920835085,mp-2714769
RbTa3(TeO6)2,2.8998,-2.680893406546295,mp-1204836
Na2Mg2P3NO9,5.2409,-2.680814938334541,mp-1020147
Na15Ca10Ta2P9(SO8)9,3.3487,-2.680786180467026,mp-2714820
Na9Nb7Zn5(PO4)18,1.696899999999999,-2.680745175369236,mp-2716465
Na4Hf2(GeO4)3,3.746299999999999,-2.680678868834153,mp-14526
Na6Ca8Ta16Si15(S7O48)3,1.981999999999999,-2.680437485395759,mp-2716145
Na5Sc3Si3Sn(SO8)3,2.5133,-2.680379556480254,mp-2716541
SrNb2Bi2O9,2.5807,-2.680358172142857,mp-23614
LaTiP(SO6)2,2.0876,-2.680262175567227,mp-2712932
BaY4Cl14,4.144299999999999,-2.680226976184211,mp-769070
LiNbP4O13,2.2518,-2.680083917205514,mp-684534
Nd2O5,2.8438,-2.6800346042857153,mp-985608
Na4UO5,2.1446,-2.679983961051725,mp-5327
BaNa3(PO4)2,0.0,-2.67996650595883,mp-1214424
BaNaIn2(PO4)3,3.4793000000000003,-2.679913333875852,mp-677179