formula,bg,formation_energy,mp-id
LiCa3OsO6,0.216899999999999,-2.653183061212121,mp-1191787
Na10TaAl7Si6(SO8)6,2.8328,-2.653171438198202,mp-2713445
Ti2ZnSnO6,0.029899999999999,-2.6530652511666672,mp-1120801
K2LiRuF6,0.0,-2.653052497783333,mp-1111923
Na7La2Zn2P5SO24,3.8939999999999992,-2.653046449033401,mp-2715910
Li3BiB8O15,4.044,-2.652976614382716,mp-777730
Na15Ta5Zn7(PO4)18,2.6982,-2.652967243597674,mp-2713132
LiInSiO4,3.028699999999999,-2.652957972499999,mp-7205
Ba3TmRu2O9,0.0,-2.652875291999998,mp-1214484
Na6Nb3In5(PO4)12,2.1954,-2.65286209789176,mp-2716471
MgAlH4O2F5,5.837,-2.652837036923077,mp-24142
AlHO2,5.546000000000001,-2.6528255821875,mp-625152
Li9Nb3P8O29,0.1402,-2.652807665247813,mp-778150
Na6NbGa3Si2(PO6)4,2.551699999999999,-2.652727622150349,mp-2715354
Ca4Al3O10,0.0,-2.652592740294117,mp-675084
Mg6AlCdO8,0.25,-2.652592602499999,mp-1032988
KNaZrSi3H4O11,4.997400000000001,-2.652387126839463,mp-773906
Mg14SiCO16,1.4845000000000002,-2.65236542078125,mp-1034615
SrMg6CdO8,4.7345,-2.652344931874999,mp-1033462
LiMg14CO16,0.6995,-2.652322799947916,mp-1035124
Na6Nb4Si9Sn4(SO16)3,2.3019,-2.6522856786140903,mp-2712975
Na3NbZnSi(PO6)2,1.8371,-2.652261991337849,mp-2715454
NpSO,0.0,-2.652236148750001,mp-8137
Na2Ta4Al4Si5S7O48,1.9122,-2.652231905827505,mp-2716133
Na6Nb20Zn4Si21(S5O48)3,1.305,-2.652221966622743,mp-2715551
RbZnB(PO4)2,4.8807,-2.652137123919414,mp-557658
KZrNbBiO6,0.0,-2.652124309725001,mp-1518641
Mg14CdBiO16,0.024899999999998,-2.6520514578125,mp-1033762
SrCa3(SnO3)4,2.1647,-2.651755697,mp-1218487
Na2Nb3O6,0.0,-2.65169354297806,mp-867955
Eu2Ti12(CuO4)9,0.0262,-2.65164861881356,mp-1226871
Ta2Hg3S(O2F5)2,2.4645,-2.651575597483334,mp-541094
CsB9O13,3.1834,-2.651366314441529,mp-531006
Na10Ti4Si9Ge4(SO16)3,2.5642,-2.651191821918289,mp-2714221
KLi3TiO4,4.6824,-2.6511318892314812,mp-1211546
Na2Sc4Ti4Si3(S3O16)3,1.2288,-2.651091547194172,mp-2716440
Ho(BO2)6,0.129199999999999,-2.651005112631578,mp-1203590
SrLa2(CuO3)2,0.0,-2.650924237272727,mp-1218240
Na2Mg2Zr6Si3(S3O16)3,2.320699999999999,-2.650831505479886,mp-2716442
YbBiO3,0.0,-2.650819842250001,mp-1101165
Na14Ti4In4Si9(SO16)3,2.1679,-2.650688744005818,mp-2714631
MgSb2H2F14,4.5005,-2.650683591578948,mp-849311
Sr2TbSeO6,0.0,-2.65065377290104,mp-1520448
SrHfInSbO6,0.867,-2.650383332666666,mp-1522175
Na10Hf5Zn3Si6(SO8)6,3.409,-2.650231999215297,mp-2713153
Sr2P3Pb3O13,0.0,-2.65017089042517,mp-1209002
NaTl2GaF6,4.3908000000000005,-2.650154488554599,mp-989561
Ti8Pb8O23,0.0,-2.650114892094016,mp-1101432
Eu3RuO7,0.0,-2.650037126363637,mp-22365
CaLaGaCuO5,0.0,-2.6500340819444452,mp-1227198
NaYAlP(SO6)2,4.397200000000001,-2.65002312977901,mp-2714344
K5Na3Ta7NbO20,0.0,-2.650014971922812,mp-1100141
Sr4Br6O,4.2158,-2.649926838181826,mp-556049
Na6Mg8Ta16Si15(S7O48)3,1.8269,-2.649699311729092,mp-2716218
CdB4O7,4.1707,-2.649513388680555,mp-13603
TaHO3,2.9434,-2.649505566216666,mp-33753
Li3Ti2CuO6,0.2043,-2.649461859722222,mp-774874
Rb2InBiF6,2.5538,-2.649461270166667,mp-1113933
Na8Al2Si5Sn2SO24,3.1276,-2.6493475579016152,mp-2715529
Na3CaNbSi2SO12,1.408299999999999,-2.649323031581896,mp-2714453
Ba4Sb2O9,2.8294,-2.649286959666665,mp-801028
KNa2(PO3)3,5.058499999999999,-2.649284270595813,mp-17889
Na6Nb3Al5Si6(SO8)6,1.3889,-2.64919440148571,mp-2716557
Mg3ZrO4,0.454599999999999,-2.649099094375,mp-1030618
LiCa2ReO6,1.5831,-2.649083681583334,mp-1205694
NaScAlP(SO6)2,4.2359,-2.649067676538269,mp-2714595
KZnB(PO4)2,4.9062,-2.649027670054029,mp-554673
K3Zr4Si12HO44,0.0,-2.648971436453124,mp-1226025
Ba3NaSbO6,2.8068,-2.648861400579937,mp-1190024
Rb2GaCuF6,0.3578,-2.6488504642499993,mp-1111036
Na14Hf3Mg5Si6(SO8)6,3.3114,-2.648673367959069,mp-2714111
K3Zn(BO2)5,4.3815,-2.648206880135965,mp-1019786
Na2YGaP2SO12,3.4105,-2.648116739230404,mp-2713306
BaCuP2O7,0.0,-2.648014421753247,mp-8851
ZnSnF6,3.7147,-2.647906428125001,mp-13903
Na8Mg2Sc2Si3(SO8)3,2.616599999999999,-2.647869121195266,mp-2715038
Ba5(Ga3O7)2,3.0654,-2.6478407330000002,mp-771208
Ti3NbZnBi3O14,2.9545,-2.647831090000001,mp-1208391
LaY(SO4)3,4.6238,-2.6478218433823533,mp-2713819
Ba2S2O3F2,2.366999999999999,-2.647813294444445,mp-1228621
Na30Nb16Zn8Si27(SO16)9,1.433699999999999,-2.64776665914051,mp-2714307
Zr(PO4)2,0.0,-2.6477367067532462,mp-1201586
Na3CaLaSi(SO6)2,3.5438,-2.64771647004023,mp-2712588
NaNpCO5,0.0376,-2.647696009391165,mp-608031
NaMgNbP2SO12,2.0962,-2.647655676749909,mp-2712591
Na5TaIn3SiP5O24,0.7953999999999991,-2.647580479165236,mp-2716086
NbTl(PO4)2,2.8566000000000003,-2.647532850634921,mp-541436
Ho2Pa2O5,0.0,-2.64752144611111,mp-1184810
Na6Ca4Nb8Si9(SO8)9,1.2157,-2.647497980886814,mp-2713464
SrLa2Cl8,3.7177,-2.647464179999993,mp-753651
Li2AlHgF6,0.0,-2.647429631472228,mp-1111352
B4PbO7,4.208499999999999,-2.647339741388887,mp-9747
CaCl2,5.5987,-2.647301069166667,mp-571642
Be3SiO6,0.4385,-2.64719067525,mp-1202186
NaTaSi2SnSO12,3.309699999999999,-2.647102583678481,mp-2715528
Li4NbIn3(PO4)6,2.6886,-2.647087296741854,mp-781789
Na2MgTi2O5,0.0,-2.64702120694253,mp-2224464
Na2Ca2Al6Si9(H8O19)2,4.8355,-2.646713916818611,mp-1204300
Na8Y2Mg2Si3(SO8)3,2.9958,-2.646627980401614,mp-2715157
Li6La3(SbO6)2,0.1928,-2.646615062608696,mp-1212139
Gd3Sc2(GaO4)3,0.5743,-2.646554132875001,mp-555835
Li3CaPCO7,5.0338,-2.64650253381868,mp-768169
LiMg6SbO8,4.005999999999999,-2.6464713583333332,mp-1031070
Tm2Cu2O5,0.0,-2.646454218333334,mp-3120
Na4NbAl3Si3(SO8)3,2.2729,-2.6464521080179972,mp-2713713
Y2(SO4)3,5.6993,-2.646437855882351,mp-16025
CsMg14BO16,0.0,-2.646259462463182,mp-1099218
CsGeB3O7,4.667599999999999,-2.6462493043462643,mp-558804
Sc2P3(HO3)3,4.6108,-2.646220197804622,mp-24217
Ba2InClO3,1.914499999999999,-2.64616423095238,mp-558243
Na6Ti4Al4Si5S7O48,1.128299999999999,-2.646089066857332,mp-2716108
Na5Nb2Zn2SiP5O24,1.8101999999999991,-2.646085727866091,mp-2715870
Na2Nb2Al2Si3(SO8)3,0.583299999999999,-2.645961403849778,mp-2713417
LiTl2GaF6,4.3717,-2.645941066750001,mp-989577
Mg2Nb10Si9(SO8)9,0.8879,-2.645933735955883,mp-2713888
Na7La3ZnSi3(SO8)3,3.3324,-2.645909070581021,mp-2714316
BaNb2Bi2O9,2.2153,-2.645905604642859,mp-555867
Li7SiPO8,4.1742,-2.645849363998599,mp-1239225
Hf3ZnP2(SO6)4,4.2221,-2.6458090039986,mp-2712970
K2NaZn(BO2)5,4.2359,-2.645673866011192,mp-1019787
Na6Mg2Ti6Si5S7O48,1.132,-2.645643797893368,mp-2715948
Na2CaZrSi(SO6)2,2.609199999999999,-2.645632556460981,mp-2713259
Na2Si3(HO4)2,4.7601,-2.645625870850574,mp-698025
Na5NbGa3SiP5O24,2.4085,-2.645574596391731,mp-2714046
NaPO3,5.1185,-2.645570333871101,mp-864891
Li4Al3Ge3BrO12,3.6335,-2.645562806449274,mp-554733
Na10Hf4In4Si7S5O48,3.0218,-2.645470310999484,mp-2715826
Ti2Si(SO6)2,2.427499999999999,-2.645450403333335,mp-2713395
Al2Si3(SnO4)3,2.123899999999999,-2.645415585875,mp-1163929
Ba3ErRu2O9,0.0,-2.64537928,mp-541721
NaTbEuSbO6,0.0,-2.645355231304599,mp-1517762
Li3CuF4,0.855699999999999,-2.645253740624999,mp-758689
Rb2LiRhF6,1.7225,-2.645169458833333,mp-1113707
Na3Mg2Ti2P3(SO8)3,2.2884,-2.645156259474771,mp-2713960
Na6Zr6Zn2Si5S7O48,2.4076,-2.6451487635690443,mp-2716054
Na3MgSn(PO4)3,2.5606,-2.644980366403325,mp-2715479
Sb7F29,3.7106,-2.644929547430555,mp-29369
Na3Zr(SiO3)6,0.0961,-2.644916982647783,mp-1210380
Na3Ca2Mg10Si16(O11F)4,0.9215,-2.644904801065037,mp-1173853
NaMg6BO8,5.7154,-2.644878543159123,mp-1030730
Na4MgIn(PO4)3,3.5332,-2.644829792433928,mp-2715205
Cs2InSbF6,2.2146999999999992,-2.6448153635977,mp-1113091
MgSnP2O7,3.758899999999999,-2.644805453571427,mp-1044868
Na4ScGaSi2SO12,3.4973,-2.644720143596059,mp-2714460
K3PF6,3.4901,-2.6446578986392852,mp-1211896
Na15Ca7Ta5Si9(SO8)9,1.9957999999999991,-2.644654734998772,mp-2713147
KSrHfBiO6,1.1399,-2.644646899725,mp-1518644
Ta3InSi3(SO8)3,2.0289,-2.644526807191177,mp-2713797
Na2ScGaP2SO12,3.7830999999999992,-2.6444889618619842,mp-2713276
Rb2TlSbF6,2.807,-2.644443887833334,mp-1113924
Nb4Pb3O13,2.2052,-2.644328347249985,mp-1173546
Li2TiSn3(PO4)6,2.7489,-2.644312324801586,mp-769380
MgTa2(ReO6)2,0.0,-2.644157745568628,mp-2229205
UHgO3,0.0,-2.6441475635000002,mp-1187745
CeSiNO2,0.0,-2.644096589666668,mp-651175
KBO2,4.1255,-2.6440814391041663,mp-3919
K4MgCu3F12,0.0,-2.6440644967,mp-1223957
Y3Sb5O12,3.177499999999999,-2.6440452115,mp-1207793
ScNb(PbO3)2,2.574899999999999,-2.6439875104999992,mp-1219284
Na6Mg4Nb2P6(SO12)3,2.115199999999999,-2.6439842538356673,mp-2713250
Na3LaSn3(PO4)6,2.1816,-2.643775553927795,mp-2714698
NaZrInP2SO12,1.391,-2.643735035453613,mp-2712745
NaTaSn3(PO4)6,3.3537,-2.643721787187708,mp-2713980
Na2YInP2SO12,3.240299999999999,-2.6435507335725092,mp-2713274
Na9Mg5NbP6(SO12)3,2.6922,-2.643390064212849,mp-2712750
La3NbSiS5O24,1.7904,-2.643373928406863,mp-2713042
RbNa3Li12Ti4O16,4.4225,-2.643367490971423,mp-774749
BaHfInSbO6,0.7294,-2.6433599906666663,mp-1522084
Na14Mg5Ge3(PO4)12,2.3326,-2.643353324126317,mp-2714154
NaTaSi2GeSO12,3.2189,-2.643281109789591,mp-2715526
CsNaMg14O15,1.146799999999999,-2.643265539549499,mp-1034881
Na6Ca4Zr4Si3(S3O16)3,2.514599999999999,-2.643223541294269,mp-2714001
Na9Ca8Nb4P9(SO8)9,2.1148,-2.6432214342495453,mp-2713890
KNa3Al4(GeO4)4,3.7542,-2.643202964156711,mp-1205426
SrBi2(B2O5)2,3.6402,-2.643128214215686,mp-559364
NaLaAlP(SO6)2,4.0204,-2.642950349501232,mp-2714474
Na6Ca4Ta4Si5S7O48,1.4603000000000002,-2.642933455992467,mp-2716046
PrSClO4,4.705400000000001,-2.6429022852380952,mp-555237
LiTiPO4,0.0,-2.642901836258502,mp-504106
Na4AlZn(PO4)3,4.0748,-2.642901568783134,mp-2715013
Na42Ca16Nb8Si21(S5O48)3,1.0252,-2.64288988081476,mp-2715670
Na14Ca5Ti3Si6(SO8)6,1.5438,-2.642814689117607,mp-2714254
CaY4(BiO3)4,1.0593,-2.642765212857143,mp-1234001
Y(BO2)6,0.1572,-2.642711075526316,mp-1200404
Na7Mg2SiSn2P5O24,2.1847,-2.642585523647223,mp-2715793
Na4MgSiSn(PO6)2,2.2248,-2.642422734673156,mp-2714443
RbGeB3O7,4.5867,-2.642318686041665,mp-1199892
EuO2,0.0,-2.642187138333334,mp-1206506
Sr4IrO6,0.0,-2.6421329136363623,mp-9039
CsMg6SiO8,0.0,-2.642022144353448,mp-1257226
Na14Ca6Hf2Si5S7O48,2.8855,-2.641853169615573,mp-2716058
Na8Al2Si5Ge2SO24,3.1964,-2.64171795282225,mp-2715619
Li2ZnSiO4,4.022,-2.641684768020833,mp-17288
Sr4RhO6,0.0,-2.641628772727273,mp-557481
Na24Ca10Ta2Si9(SO8)9,2.500999999999999,-2.641618753137064,mp-2715197
K4TiSn3(PO5)4,3.3035,-2.641559012997024,mp-1224290
Al3(PO4)4,0.0,-2.641377338742236,mp-608080
CsMg14GaO16,0.0,-2.641194483036098,mp-1099214
BaSrMg6O8,3.9136,-2.641180481874999,mp-1033527
LiYF2,0.0,-2.641097094444443,mp-1211041
Gd(BO2)6,0.128,-2.640947852894736,mp-1202527
MgU2Si2(HO3)4,0.3374,-2.640913362857143,mp-1211032
KTl2GaF6,4.5515,-2.640834894141668,mp-1206641
BaTi(GeO3)3,2.9973,-2.640770230952382,mp-1214320
Sr4LaCl11,2.3139,-2.640736751093753,mp-677371
Li6Ti(BO3)3,0.0413,-2.640688813070176,mp-769458
Na2La4Ti4Si3(S3O16)3,1.4152999999999991,-2.640676342956077,mp-2716469
K2TiO3F4,0.129699999999999,-2.640622786033333,mp-726681
Sr2MgCu(PO4)2,0.0,-2.640556328877551,mp-2227424
Sm2SCl4,3.503699999999999,-2.640513156785713,mp-29880
Mg14SiBiO16,0.3718,-2.640333095624999,mp-1034633
Mg3Si3(SnO6)2,0.197099999999999,-2.640301966375,mp-1328703
RbSrCl3,5.318,-2.6402784644999993,mp-998755
Na5HfMg3P3(SO8)3,3.9095,-2.640253947222012,mp-2714645
Na2Y4Sc4SiS11O48,2.2936,-2.640112680217981,mp-2714229
Na3Al4P3(SO8)3,5.066699999999999,-2.63995609821351,mp-2713874
NaTiPCO7,2.6906,-2.639933244941409,mp-767556
KGaP2O7,4.4609,-2.6398838842305192,mp-18348
NaAlGeO4,3.9677,-2.639848478649424,mp-14511
K3Ca2Mg10Si16(HO12)4,0.977399999999999,-2.639832630322288,mp-1260618
NaTiO3,0.0,-2.639808749942529,mp-977123
La3Sb5O12,3.224299999999999,-2.6397755547500013,mp-1211710
Li2B8SeO15,4.8776,-2.639770570282452,mp-1198324
CaRhF6,0.0,-2.6397501387499998,mp-9928
K5Na3Ta6Nb2O20,0.0,-2.639739106996888,mp-1099903
Cs2KRhF6,2.101299999999999,-2.639720883656034,mp-561561
Mn6VSi5HO19,0.7677,-2.639695536057381,mp-729576
Na3LiP2O7,4.8511,-2.639629860135151,mp-1020164
LaMg3O4,0.4145,-2.639591887499999,mp-1030635
Na2Nb6Ga2Si7S5O48,1.9197,-2.639559048408457,mp-2715594
Ba2Zn2TeP2O11,4.1025,-2.639456902691799,mp-1195039
Li3AsF6,3.8182,-2.639325765749999,mp-1239084
Eu2Ga2O5,0.0,-2.639295552222224,mp-1184040
Na2TaGaSi2SO12,3.1696,-2.63921174746098,mp-2712621
Na6Hf4Si7Ge4S5O48,2.233,-2.639186859762738,mp-2712872
Ba4Sn3O10,1.284999999999999,-2.6391075661764702,mp-768510
Sr(GaO2)2,3.0697,-2.639062434821427,mp-4851
Cs2LiTlF6,3.4518,-2.639035254291661,mp-989562
K2Na3P3O10,4.3865,-2.638942295142583,mp-1019781
Na2Ca3B5H2S2ClO18,5.680899999999999,-2.638875461245211,mp-707645
Ba3HoRu2O9,0.0,-2.638737857666666,mp-1214536
SrEuAlBiO6,0.0,-2.6386764195,mp-1520853
La2AgO4,0.0,-2.6386737830952383,mp-1120758
Sr3MgIrO6,0.0,-2.638658644999999,mp-9454
Al6CO7,0.0,-2.638636529285714,mp-1228266
InSb3F18,3.4854,-2.638487873939393,mp-1200631
CsGaCuF6,0.0,-2.6384551924616853,mp-1225926
Ti2P2O10F,0.6719,-2.638444638563492,mp-1208380
Na3Ti3InSi3(SO8)3,2.1531,-2.638438677837061,mp-2714920
Na4NbGa3(PO4)6,2.4678,-2.638391136031782,mp-2713251
Rb2NaRhF6,1.957,-2.63831338763793,mp-14038
Na2Gd4NCl9O,2.1724,-2.638268960162273,mp-1173724
NaTa3ZnSi3(SO8)3,1.610599999999999,-2.638265824739409,mp-2714020
Na3GaB4O9,4.536899999999999,-2.638221717841447,mp-766463
Sr3MgRhO6,0.0,-2.638171944545454,mp-16984
Y3NbSiS5O24,1.6229,-2.638142011495098,mp-2712943
Sr3Zn3Te(PO7)2,2.9354,-2.63813170721532,mp-1190181
NaLi2TaF6,0.0,-2.638083053639998,mp-1111340
Rb3Zn(BO2)5,4.314,-2.638003073464913,mp-1020643
Na3YSi2SnSO12,1.866099999999999,-2.637997986748564,mp-2714584
Na10NbAl7Si6(SO8)6,2.016599999999999,-2.637846216352049,mp-2713455
Na4TaIn3(PO4)6,2.2479,-2.6377998386151162,mp-2713619
Y2U3S5O3,0.0,-2.637743303269228,mp-1207875
Na3Li3Rh2F12,1.9933,-2.637709231956896,mp-1210682
Na2ScAlSi(SO6)2,4.229699999999999,-2.637707441022384,mp-2713283
BaAl2(SiO5)2,1.285499999999999,-2.637705861916666,mp-1204499
Ta2Tl2P7HO24,3.1562,-2.637686060141204,mp-758895
Sr3Ca(SnO3)4,1.8808999999999991,-2.6376499150000012,mp-1218522
Ba3Y3Cu3O10,0.0,-2.6374801052631582,mp-1228773
SrSnO3,1.7365,-2.6373586375,mp-2879
Ba3Li2B10(H3O11)2,5.4423,-2.637173941182169,mp-1197500
K2Al2(SiO4)3,0.3867,-2.637075530499999,mp-1181274
Hf6PbO18,0.0,-2.637064605199999,mp-675600
Na2HfZnP2SO12,4.4174,-2.637062114800579,mp-2713674
Na6Ca2Ti2Si3(SO8)3,0.3746,-2.637053400769396,mp-2716221
Ba5As2(SO6)2,2.3937,-2.6369814685714292,mp-1228464
NaSc(GeO3)2,3.5612,-2.636928682137931,mp-8054
Na2YAlSi(SO6)2,4.1793,-2.636789907425893,mp-2713546
Na3ScSi2SnSO12,2.142299999999999,-2.636763777581896,mp-2714499
Na2NbZn(PO4)3,2.0647,-2.6366987478958173,mp-2713710
Ba2CuP2O9,0.0,-2.636698107091837,mp-1192522
LiMg3O4,0.0,-2.636561944791666,mp-1099259
Si2SbO6,0.0,-2.636511475,mp-1323719
Tl4Si5O12,3.1736,-2.636476214206347,mp-1201442
Ca(GaO2)2,3.0839,-2.63646675,mp-559849
Li3HfO3,0.0,-2.636423641071428,mp-757794
Rb2LiRuF6,0.0,-2.636409638833333,mp-1113705
Sr5La2Cl16,4.1172,-2.636356008478264,mp-771889
Na10Mg4Zr4Si5S7O48,2.8947000000000003,-2.636119441448202,mp-2714930
KNa2SbF6,2.654299999999999,-2.635762935000861,mp-1111407
TiZnPO5,0.0,-2.635697993497024,mp-1046561
Na4YGaSi2SO12,3.1839,-2.635696577802408,mp-2714617
Na3Nb8Zn4P15(SO24)3,1.9444,-2.635689986345532,mp-2716206
Li3Si2BiO7,3.7846,-2.635677491025641,mp-757466
Na2HfMgSi(SO6)2,3.6334,-2.635660436197822,mp-2713314
Na4Ca2Ta2Si3(SO8)3,1.0911,-2.635614958316243,mp-2713703
Sn2OF5,1.9107999999999992,-2.635444859375,mp-29590
Na3HfTa(GeO4)3,3.802699999999999,-2.635442228323563,mp-2713331
Ba5AlRu2O11,0.0786,-2.635391082894735,mp-1214930
AcCuO2F,0.0,-2.6348991565,mp-1232311
NaZn2CdF7,2.804599999999999,-2.634894780125392,mp-1220707
Sr2CaOsO6,0.0,-2.634856546999999,mp-1206283
Na10Nb4Ga4Si9(SO16)3,2.174,-2.634615218200339,mp-2714125
RbLi7(SiO4)2,4.8727,-2.634503632268519,mp-554752
La2ZnBiO6,0.0,-2.634472921,mp-1400776
Na2La4Sc4SiS11O48,2.536699999999999,-2.634366625598934,mp-2714152
BaCa(GaO2)4,3.0678,-2.634351782857142,mp-561446
Na2CaTi3Si2(SO6)4,1.356899999999999,-2.63428653118774,mp-2712680
Mg14ZnCO16,3.340799999999999,-2.634275827343749,mp-1035738
BaNa4Cu3F12,0.5710000000000001,-2.6341957474008613,mp-653631
Rb2SiO3,3.716299999999999,-2.634081507222222,mp-16194
CsNaSiO3,3.7895,-2.634071388783526,mp-1225970
RbYMg6O8,4.102499999999999,-2.6340179092187492,mp-1032574
YNbSi(SO6)2,1.593999999999999,-2.63391883382353,mp-2713406
Na5Al2Ga2P5SO24,4.2125,-2.6337114610925862,mp-2715048
SrCa4Al10(SiO5)10,0.0,-2.633702072866667,mp-1218540
CaZr3SiS5O24,2.4661,-2.633603233063726,mp-2712857
BaDySnSbO6,2.501299999999999,-2.633303187916666,mp-1519752
Sr2NbCuO6,0.0,-2.633297897,mp-1516290
Na30Ca16Ta8Si15(S7O48)3,1.8881,-2.63316466157071,mp-2715022
Na7Ca3TaSi3(SO8)3,1.4685,-2.633156810963135,mp-2714034
Li10Si(PO6)2,5.1063,-2.633106668904762,mp-721255
Na3TiGaSi2SO12,2.4925,-2.633105906123563,mp-2714482
Na4HfZnSi2SO12,3.172799999999999,-2.63308903141352,mp-2714462
Ba3DyRu2O9,0.0,-2.632982266444444,mp-541720
SrLaCuO4,0.0,-2.632974647857143,mp-1218202
Na14Ca6Zr2Si5S7O48,2.4875,-2.632959572420451,mp-2716072
KZn(BO2)3,4.4661,-2.63292252315909,mp-1191459
K2NaRhF6,2.000099999999999,-2.63281606158793,mp-14039
Cs2InAgF6,2.1888,-2.6328010377643682,mp-1113588
NaSr2ReO6,1.773,-2.63278524238793,mp-1206737
K2TlBiF6,3.1816,-2.632752007783334,mp-1111569
Na4Ca3ZrP2(SO6)4,3.073099999999999,-2.632702541091306,mp-2713126
Na8NbIn3Si4(PO12)2,2.5101,-2.6326935631822272,mp-2716246
Na2ScInP2SO12,3.5869,-2.632647170853211,mp-2713231
Na3MgNbSi2SO12,1.5936,-2.63254713566523,mp-2714404
Li3AlGeO5,4.196099999999999,-2.632445784,mp-6765
Na4Al3Si3ClO16,0.7576,-2.632374902796934,mp-1173771
La2MgZnSbO6,0.209099999999999,-2.6323693340909102,mp-2217314
SrMg14CO16,3.4282,-2.632292810781249,mp-1034502
KGaCuF6,0.0,-2.6322078583055553,mp-555120
Ta2Zn3O8,3.5117,-2.63218461228205,mp-28251
YGeBiO5,3.448,-2.6321241253125,mp-1207680
Ce4S4Cl2O,0.0,-2.6320103327272713,mp-1227009
CaCuP2O7,0.6887999999999991,-2.631960237889609,mp-14694
BaTaNO2,0.3398,-2.6317179504666672,mp-1227303
Na3CaScSi(SO6)2,3.1857,-2.631695224623564,mp-2712777
LiCa3RuO6,0.3111,-2.631571543030302,mp-6342
Ti2Sb2O7,2.0861,-2.631501136060605,mp-771652
Na2LaGaP2SO12,3.11,-2.631478849669001,mp-2713658
Sr2MgOsO6,0.0,-2.6314451725,mp-1078180
Na12Ta2Zn4Si3(PO6)6,2.931399999999999,-2.631344792921833,mp-2714611
Na10Ca3Sn5(PO4)12,1.8573,-2.6313314264253083,mp-2713528
Na7Mg3SnP5SO24,2.8881,-2.6312229552122632,mp-2715841
Na12Mg4Nb2Si6(SO12)3,1.655999999999999,-2.631139046175425,mp-2714363
Na2Nd4NCl9O,3.8236,-2.630998843985801,mp-1221346
Nb2SbO6,0.0,-2.630985755555555,mp-755840
KPuCO5,0.434299999999999,-2.630920438249997,mp-561433
Na8Ca3TiSi3(SO8)3,1.6197,-2.630852671433361,mp-2714952
BaBi2(B2O5)2,3.4493,-2.6307713699509803,mp-560550
Ca6Ga6Si3(HO12)2,0.0,-2.630743185304878,mp-686681
Mg6AlSiO8,0.9564,-2.6307293325,mp-1031567
Na14Ti3Zn5(PO4)12,1.891,-2.630642886443389,mp-2714157
Na8CaSi4Sn3(PO12)2,2.2285,-2.630623847666354,mp-2715800
NaMgNb3Si3(SO8)3,1.065299999999999,-2.630552797206076,mp-2713894
Na6Al4Si3(SO8)3,3.546599999999999,-2.630542719186063,mp-2716138
Ba2SmSeO6,0.0,-2.6304410517343753,mp-1518429
MgTi2(SnO3)2,0.0,-2.630434311060606,mp-2217895
Na2LaInP2SO12,3.097399999999999,-2.630314244361983,mp-2713624
NaTi2Ga5O12,2.447199999999999,-2.6302114412772992,mp-554441
K5Na3Ta5Nb3O20,0.0,-2.630030174084849,mp-1100247
BaSrSmSeO6,0.0,-2.629991332484375,mp-1516342
CaAl2Si3H6O13,5.1156,-2.6299011555,mp-707746
Ba2B6H4O13,5.2372,-2.629857066800001,mp-1199077
Sc3TaSiS5O24,2.2847,-2.629805096563727,mp-2713041
Sr2GaSbO6,1.291399999999999,-2.629734118749998,mp-6304
K4UO5,2.1712,-2.6296852469,mp-8794
Ba3Zn3Te(PO7)2,2.8907,-2.6296831402587992,mp-1190416
Cs2PuO4,0.0,-2.62964457258005,mp-1025208
Ba2GdMgSbO6,1.7200000000000002,-2.629576092272727,mp-2217708
Na2Nb6In2Si7S5O48,1.8697,-2.629484474527505,mp-2715782
SrMg6NbO8,1.5091,-2.6294635075,mp-1033433
Sm3Sb5O12,3.1427,-2.629460901000001,mp-3154
Ca2Al4Si4H10O21,4.9859,-2.629439063109757,mp-1197037
Na3Ca2Y2PS5O24,4.693099999999999,-2.62941963944903,mp-2712535
K3Ga2(PO4)3,3.768,-2.629345116408928,mp-6805
Sr3Cu3(PO4)4,0.5181,-2.629317884560439,mp-561012
TiTl5F9,2.8612,-2.6292623920000042,mp-1101020
BaEu2CuO5,0.0,-2.629250627500002,mp-1214737
Gd3Sb5O12,2.7225,-2.6291934942500013,mp-505046
Na6Ca3SnP4(SO12)2,2.3089,-2.629134362754516,mp-2712695