formula,bg,formation_energy,mp-id
Sr2CuO4,0.0,-2.185755024285735,mp-754322
Sr2AlCu2BiO7,0.0315,-2.185714136923076,mp-1046495
Nd4Si4N7ClO3,3.1856,-2.185695517105262,mp-677703
Rb3P3(HO3)4,1.0847,-2.185692697337662,mp-734561
RbB3Te2O9,3.4589,-2.18564286288889,mp-769383
Mg5(Si4O15)2,0.020599999999999,-2.185477834302326,mp-1197410
Ba(NdSe2)2,1.7515999999999992,-2.185455702053567,mp-36007
Sr4I6O,3.5855,-2.185332644090906,mp-29910
K3TiCl6,0.061699999999999,-2.18520330500834,mp-1205449
Sb3(PO4)4,0.036399999999999,-2.18507427979296,mp-1101490
Ho2Se3,1.315,-2.184930186937501,mp-9824
CsU2H(C2O7)2,0.5243,-2.1849079829956892,mp-1213514
RbAlCl4,5.2186,-2.184869732916666,mp-1209422
Cs2RbAlCl6,4.6551,-2.184768013681034,mp-1112525
Sr2TbCu2IrO8,0.0,-2.184737254761903,mp-1218764
Na2SiBiCO7,0.0,-2.184737200229885,mp-771168
Ti2Zn3(GeO4)3,0.0,-2.184575813083333,mp-1328181
RbGdS2O9,0.827499999999999,-2.184441951923077,mp-1211017
KUP(H2O3)3,2.4731,-2.184265213994047,mp-721081
KSm2Cl5,0.469,-2.184126936770825,mp-568044
BaBiIO2,2.947,-2.184123108,mp-551243
PmCl2,0.0,-2.184052750833333,mp-863657
Te7(OF5)6,2.3632,-2.183840624108527,mp-540553
Na2BHO3,3.810599999999999,-2.183539744025041,mp-556125
CsSO2F,4.4107,-2.183438854431034,mp-6368
BaAgTeF,1.510999999999999,-2.183376328333333,mp-16742
Ca2AgSbO6,0.535399999999999,-2.183374302666666,mp-1374044
BaSrSmCu3O7,0.0,-2.183113676153845,mp-1227474
CsP(HO2)2,5.201099999999999,-2.183059247412253,mp-1197651
Cs3YO3,2.3415999999999992,-2.182955728423644,mp-770815
Cs2LiLaBr6,3.7835,-2.182892615764368,mp-1245352
Ce10Si10BrN17O9,0.0,-2.182875731914893,mp-694972
Ba3Zn5In2O11,1.772599999999999,-2.182818506825396,mp-560544
SrCdO2,0.018199999999999,-2.182773819999999,mp-1018032
LaSb5O12,3.1365,-2.182705333611111,mp-31419
Na3Zn4P4H4NO16,4.0324,-2.182652426334667,mp-772852
Pr2HfS5,1.0277,-2.182488898424477,mp-1203224
Ba4Na(BiO4)3,0.2816,-2.182459268068965,mp-559352
Na6Ta4Zn8Si3(S5O24)3,1.255,-2.182408500926938,mp-2715702
Ca6Te5N2O21,2.715,-2.182268074656862,mp-1204949
Rb2TmAgCl6,3.4255,-2.182204191666667,mp-1111628
Y2Te5O13,3.0018,-2.182128275916679,mp-554852
YCdBiO4,2.0854,-2.1821172725,mp-1203156
NaLa(SeO3)2,3.6164,-2.182082805356657,mp-559903
Cs2CeAgCl6,2.9041,-2.1820707900977,mp-1113570
Ba8Gd4(Cu4O9)3,0.0,-2.182020990490195,mp-1229327
Sr2DyCu2(BiO4)2,0.0,-2.18199323911111,mp-1209149
Ba4Nd2Cu6O13,0.0,-2.181808916,mp-1228184
Rb2LuAgCl6,3.681,-2.181767257333333,mp-1111632
MgAs2(XeF8)2,3.016,-2.181501331190476,mp-556078
Rb2ErAgCl6,3.7293,-2.181475685666666,mp-1111636
CsTlCuF6,0.0,-2.181459000833276,mp-1228857
YbSmSe3,0.0,-2.1812732264375,mp-11788
KNaZr2Be(PO4)4,2.659399999999999,-2.181210981288029,mp-684950
Li2MgCl4,5.4766,-2.181143846666666,mp-38684
ThH2(SO4)3,4.4226,-2.181090498055555,mp-1204445
Na8Ga42O67,0.782799999999999,-2.181054532487474,mp-685217