formula,bg,formation_energy,mp-id
YbAgO2,0.0,-2.604032006874998,mp-13166
Sr3Ti(GaO2)10,2.6054,-2.603764999950981,mp-1218603
BaSr3(SnO3)4,1.228599999999999,-2.603740592999999,mp-1227795
K2TlSbF6,2.6523000000000003,-2.603626546783334,mp-1111125
Na7Ca2Mg2P3(SO8)3,4.2936,-2.6035171749451322,mp-2714599
Na4P2O7,4.63,-2.603446562100226,mp-27579
Na3MgP2HO8,4.863899999999999,-2.603280243311576,mp-643658
SnSb2As2F18,3.6166,-2.6032150765217392,mp-554260
Na10Ca4Sc4Si3(S3O16)3,2.6001000000000003,-2.6029565283926472,mp-2714676
Ca2Ta4Si3(SO6)6,2.2252,-2.602913454300655,mp-2713480
KSrCeBiO6,1.6021,-2.602906440974999,mp-1523185
Na2MgZrSi(SO6)2,2.9668,-2.602853907338173,mp-2713226
LiNb(PO3)4,0.0665,-2.602711184411375,mp-26549
LaSc(SO4)3,4.1043,-2.6025954412254912,mp-2713841
LiInP2O7,3.9726,-2.602587649025972,mp-8491
CaB8H4O15,5.5888,-2.602542357797618,mp-23701
SrNdGaCuO5,0.0,-2.60245074,mp-1218135
MgTi2Zn2O6,0.167199999999999,-2.602450664696969,mp-2218034
HoTeClO3,3.857299999999999,-2.602439169027776,mp-559805
Na7Mg2SiGe2P5O24,1.732199999999999,-2.602410468687873,mp-2715692
K2GaHgF6,0.0,-2.6023352234500012,mp-1112234
CsBO2,3.8457,-2.602319912205459,mp-561725
Na10Ca6Hf2Si3(S3O16)3,3.0997999999999992,-2.602314059931109,mp-2714880
Na3TiInSi2SO12,2.4455,-2.602281172998565,mp-2714450
NaNb2In2P5SO24,2.2939,-2.602202939202674,mp-2716277
Gd2ZnPtO6,0.0,-2.6020982924999982,mp-1212755
Na3Ca4Ta2P3(SO6)6,3.1169,-2.6019559285691343,mp-2714390
Na7CaIn3(PO4)6,3.2328,-2.601886268963716,mp-2714228
Na6Sc4Al4Si3(S3O16)3,3.2618,-2.6017680321050802,mp-2713834
Ho2CF2,1.1355,-2.601721242999998,mp-9006
K2TeOF4,4.8881,-2.601646165145834,mp-11014
BaSrEuBiO6,0.0,-2.601378554000001,mp-1522436
Cs3Np(Cl2O)2,0.2279,-2.601377421771553,mp-23636
YbTa(PbO3)2,0.0,-2.601193870483337,mp-1215690
Ti3Cu2Te(PO4)6,0.5289,-2.601190781514551,mp-777144
Na2InCuF7,0.0484,-2.6011755009343362,mp-21611
Zr2P3H4NO12,4.3079,-2.601160563814934,mp-39770
Na3CaPCO7,4.475,-2.601146720290829,mp-767552
Sr2ZnGe2O7,3.1157999999999992,-2.601126258333332,mp-17392
RbLi2Ga2(BO3)3,3.9306,-2.601094877745099,mp-16872
CdSnF6,3.8568,-2.601074608750001,mp-13907
MgZn2(PO4)2,3.964,-2.601062935714285,mp-1210603
KEuZrBiO6,0.0,-2.601031234725,mp-1516553
Na3YZnP2SO12,3.8143,-2.600969309796183,mp-2712742
Ba3ErIrRuO9,0.0,-2.6009462326666672,mp-1228390
Na5Al2In2P5SO24,3.9866,-2.600872747972928,mp-2714922
EuGeO3,0.0,-2.600853746999999,mp-865181
K2ZrGe2O7,3.9148,-2.6008527645416653,mp-16871
Li3SiSnBO7,3.7245,-2.600851788397435,mp-770756
Ca3Mg2(AsO4)3,0.0,-2.600834125,mp-1214140
Na14Al4Si9Sn4(SO16)3,2.446399999999999,-2.600790531729395,mp-2715127
Na4ZrZnSi2SO12,3.2025,-2.600703804032567,mp-2714435
YAgO2,2.4154,-2.600528935416664,mp-30250
NaAl3P2(HO3)4,5.8652999999999995,-2.600357126962047,mp-1220886
NaCaLa3(SO4)6,4.3025,-2.600347627753694,mp-2714869
Na10Ca4Ti4Si5S7O48,1.2164,-2.600076942174699,mp-2714964
PrBrCl2,3.8627,-2.599954732916666,mp-1219679
BaSO3,4.4264,-2.599932525499999,mp-768307
Ba2MgOsO6,0.0,-2.5998744305,mp-1206133
Na4CaSiGe(PO6)2,0.9436999999999992,-2.599861081339824,mp-2714587
CaIn2(PO4)3,0.0179,-2.599788658458993,mp-728740
Mg14BSbO16,2.2106,-2.599690420286458,mp-1033732
GaPO4,4.439100000000001,-2.59967003924603,mp-4122
Sc3NbSiS5O24,1.673,-2.599665690367647,mp-2712901
Na2ZrZnP2SO12,3.7179,-2.599652345677773,mp-2713262
Na4LaInSi2SO12,2.7323,-2.599541428715107,mp-2714484
NaLaSnP2SO12,1.678,-2.599356213231391,mp-2712708
Na7CaAl3Si3(SO8)3,3.562599999999999,-2.599332282654192,mp-2714191
Na3ScZnP2SO12,4.2364,-2.599252987296183,mp-2712709
LiNbSn3(PO4)6,2.7706,-2.599183586748299,mp-767091
K(SiO2)2,0.0,-2.5991824924642852,mp-1211961
KCaCeBiO6,1.606999999999999,-2.5991716014749993,mp-1518216
Na10Nb4In4Si9(SO16)3,2.0338,-2.599158157943929,mp-2714213
Ce2Cd(SeO)2,0.0,-2.599038255669641,mp-1103370
NaNdPCO7,0.1887,-2.598985001229286,mp-767688
NaHf2Ga2P3(SO8)3,3.692599999999999,-2.598891265032607,mp-2716416
Na2LaMgP(SO6)2,4.290900000000001,-2.598706263635166,mp-2713453
CaCu(PO3)4,0.173899999999999,-2.598692519365078,mp-1045680
CaTi4(PdO4)3,0.5335000000000001,-2.598600925166666,mp-1105917
BeTlPO4,4.0851,-2.5986004275680252,mp-1227516
Mg6NbAlO8,0.657999999999999,-2.598509493125,mp-1033032
Rb3Cd(BO2)5,3.7196,-2.598353043728071,mp-1200569
Na4Hf2In2Si3(SO8)3,2.591,-2.598284137316244,mp-2713685
Na8Nb2Zn2Si5SO24,1.709899999999999,-2.5982248055206623,mp-2716172
Ti5Sb5O17,0.0,-2.598169327098765,mp-771317
Na4CaSn3(PO4)6,2.2588,-2.598145710132659,mp-2713693
CsCaP3(HO5)2,5.1519,-2.598117844328455,mp-1195977
K2B6H2O11,5.5078,-2.598102580333333,mp-558951
TaTiZn2O6,0.0,-2.598040668066666,mp-1366740
MgZr3SiS5O24,2.5969,-2.597984755563725,mp-2713085
La2MgZnBiO6,0.3883,-2.59795904409091,mp-2217365
BaYMgTiCuO5,0.0,-2.597919226333333,mp-2240418
USiH2PbO7,1.8234,-2.597905871666665,mp-1202774
Al13Si5H18ClO38,4.3438,-2.597859470966665,mp-706657
Na3MgGe(PO4)3,2.043599999999999,-2.597759303403324,mp-2715513
Sc2Ti2SiS5O24,2.322,-2.597728224730393,mp-2713119
Mg3Si3(SbO6)2,2.9489,-2.5976929692499993,mp-1163940
SmGaGe2O7,3.272,-2.597354887727272,mp-1208678
Ba2EuBiO6,0.0,-2.59732632325,mp-1518502
K3RhF6,2.1828,-2.597276491174997,mp-1111856
Na10Mg4Nb4Si7S5O48,1.2703,-2.597144762580682,mp-2715875
Na3Ca2P(SO6)2,4.288200000000001,-2.597111702605707,mp-2713820
Na30Ca16Nb8Si15(S7O48)3,1.4123,-2.5970901371319632,mp-2715153
Li3PF6,3.259099999999999,-2.597040727811905,mp-1238766
Li8Mg3Cu9(SiO3)16,0.240199999999999,-2.5968464546626993,mp-774516
K5Na3Ta3Nb5O20,0.0,-2.596843077288554,mp-1077704
Ti5Bi4(PbO9)2,2.1665,-2.596820993678161,mp-1217792
Na6Ca8Nb16Si15(S7O48)3,1.2688,-2.596772374075123,mp-2716271
Cs2TlBiF6,3.093899999999999,-2.596629716500001,mp-557664
ErRhO3,0.9642,-2.596618729999998,mp-1213022
Ca2Mg(CO3)3,4.588900000000001,-2.596317932333333,mp-1193964
Na5Ca2Sn2P5SO24,1.551899999999999,-2.596302239511389,mp-2715083
KSrZrBiO6,1.0927,-2.596283416225,mp-1518634
LiLa(CO3)2,4.1747,-2.596225588833334,mp-1188898
CaSn2(PO5)2,2.4805,-2.596076468619047,mp-1043566
BaLiAl3P2(HO7)2,2.648399999999999,-2.596037357613871,mp-1235256
Th(SO4)2,4.5748,-2.595986794318181,mp-1202893
SiPbO3,3.1904999999999992,-2.5959264841666823,mp-21723
Na8ZrZn3(PO4)6,3.141399999999999,-2.595922260687896,mp-2714936
Dy2Ru2O7,0.0,-2.595822591666666,mp-14968
Ba3SmRu2O9,0.0,-2.595811925000001,mp-6077
Na4Al3Ge3BrO12,3.8809,-2.595800224587705,mp-559084
MgBHO3,5.5459,-2.595760374236111,mp-23748
Na10NbGa7(PO4)12,2.5789,-2.595728143145395,mp-2716293
La2Bi2O7,0.0,-2.595721497272728,mp-770462
NaTiGaP2SO12,2.2677,-2.595678145036946,mp-2712746
RbLaMg6O8,3.8649,-2.59540512140625,mp-1031004
Sr3Li3Cu3(PO4)4,1.398499999999999,-2.595393475812808,mp-780775
Cs3TlF6,3.6388,-2.595313336000001,mp-1113152
K2InAgF6,1.6678000000000002,-2.595298415283332,mp-1112283
K2ZnP2O7,4.129,-2.595199219273809,mp-16695
NaMgSO4F,5.611800000000001,-2.595141264859913,mp-864766
Sr2La2Mg(RuO4)3,0.0,-2.59513443225,mp-1218729
Na8NbGa3Si5SO24,2.216899999999999,-2.5950500894690762,mp-2715730
Na3Al2Ge2P5SO24,3.1514,-2.59501754914015,mp-2715827
Na18Ca8Nb4Si9(SO8)9,0.5322,-2.594955578186064,mp-2716275
Ta2O3,0.0,-2.594951290933333,mp-1079159
Na2TaInSi2SO12,0.7275,-2.594893043557472,mp-2712672
Rb3RhF6,2.182899999999999,-2.5948713592499972,mp-1113824
Na3CaGe(PO4)3,1.336,-2.5947915949033242,mp-2715394
NaCaY3(SO4)6,5.224399999999999,-2.5947487053251233,mp-2714757
Al4CO4,3.8232999999999993,-2.594719617222223,mp-13703
KRbMg14O15,1.950899999999999,-2.594648941282258,mp-1034150
Na6La4Al4Si3(S3O16)3,3.9,-2.594619294267242,mp-2713753
KHfMg6O7,0.9981,-2.594582108149999,mp-1031065
RbNbGeO5,3.075799999999999,-2.5945509478125,mp-1210256
CsSbClF3,3.6597,-2.594534383692528,mp-23576
K2B(PO4)2,0.0,-2.5945315448424893,mp-1211975
Na7Ca2SiGe2P5O24,0.748499999999999,-2.594529770882995,mp-2715653
Na4Ca3TiP2(SO6)4,1.7221000000000002,-2.594453076003587,mp-2713380
Ba3HoIrRuO9,0.0,-2.594449324666667,mp-1228398
Ca2Sb2O7,1.743399999999999,-2.594447968636359,mp-16280
NaTaGe3(PO4)6,3.1611,-2.5944065271877093,mp-2713726
Ba10Nb3Bi7O30,0.8441000000000001,-2.5943256522,mp-1228874
CaSn4(PO4)6,3.5904,-2.5942814607959193,mp-984716
Rb2U3(O5F4)2,0.1357,-2.59425110847826,mp-1200363
CaAl2Si4(H2O7)2,0.1251,-2.5941466886,mp-706640
Li2Nb(PO3)5,0.0647,-2.594114162386128,mp-863410
NaCa2Nb2P3(SO8)3,1.4333,-2.593870014223082,mp-2716375
Na4Ca2Sc2SiS5O24,3.155799999999999,-2.593854154202207,mp-2713466
Na7MgAl3Si3(SO8)3,3.869099999999999,-2.593748178467199,mp-2714099
Tb2Se2O7,3.3263,-2.593688187092802,mp-30313
Sr2GaReO6,0.0,-2.5935740039999993,mp-1206618
CaEuAlBiO6,0.0,-2.593253121499999,mp-1523034
Na42Ca20Nb4Si15(S7O48)3,1.451,-2.593170189371672,mp-2715896
LiTl2InF6,4.1011,-2.592978106666667,mp-989551
K2NbAgF6,0.0,-2.5928818616166662,mp-1112280
Ho2Ru2O7,0.0,-2.592798915909088,mp-30889
PrCl3,4.345400000000001,-2.592783406041665,mp-23211
Ca3In2(GeO4)3,2.6717999999999993,-2.592754080291666,mp-1214247
NaSi8H7O20,4.2768,-2.592693925836926,mp-1197746
K2Zn(PO3)4,4.849699999999999,-2.592679571214285,mp-1019791
LiHoF2,0.101599999999999,-2.592666624583332,mp-1211001
Na14Al4Si9Ge4(SO16)3,2.6234,-2.592538277420452,mp-2715195
Na12Nb2Zn4Si3(PO6)6,2.2008,-2.59239878157792,mp-2714490
LiTbF2,0.1581,-2.592366449791665,mp-1211007
Mg6ZnCdO8,4.6972000000000005,-2.592293559374999,mp-1032531
Na2Ca2Zr2SiS5O24,2.0468,-2.592281923803481,mp-2714489
Na14Mg5Ti3Si6(SO8)6,1.491699999999999,-2.5921818135688253,mp-2714178
K2P4PbO12,5.153300000000001,-2.5921798610827063,mp-667288
Mg14NbCO16,0.143099999999999,-2.59200858390625,mp-1033892
Na7Si5Sn4PO24,3.0206,-2.591961183682066,mp-2714591
NdGaGe2O7,3.2096,-2.591836002045454,mp-559748
Na5Mg3TiP3(SO8)3,1.4497,-2.591734464059619,mp-2714840
Na10Y4Si7Sn4S5O48,1.5014999999999992,-2.591635853264442,mp-2715968
MgTi2Cd2O6,0.447699999999999,-2.591566627424242,mp-2217854
Ti9O8,0.0,-2.591554100882353,mp-32544
Na3YGe3(PO4)6,2.0466,-2.591498013702569,mp-2714888
Na14La4Ga4Si7S5O48,2.969299999999999,-2.5911642358554112,mp-2715659
CsIn(PO3)4,4.3152,-2.591154096429256,mp-16464
TaAgP4O13,2.143,-2.591102061977443,mp-15750
Na9Mg5Nb7Si9(SO8)9,1.5009,-2.590869333647873,mp-2714705
NaPrPCO7,0.1606,-2.590824706153529,mp-767717
Na3GaP8O23,4.9996,-2.590812737679449,mp-14390
Li5AgF8,0.427699999999999,-2.590600095952382,mp-758251
Na4Zr2Ti(CO4)4,3.1741,-2.590579435142614,mp-560843
Ba2Ti2TlO7,0.131599999999999,-2.5905514829166663,mp-1046030
CaEu2(GeO3)4,0.0,-2.590493734473683,mp-1229313
BaCuB2O5,0.5047,-2.5904780203703712,mp-551135
Na10Sc4Si7Sn4S5O48,1.834099999999999,-2.590472354546494,mp-2715927
RbLi6B2O6F,4.3533,-2.590467596302084,mp-1195055
Na5MgSiSn3P5O24,2.4005,-2.590461251028484,mp-2715946
Cs2GeP4O13,4.236700000000001,-2.59037369514409,mp-560216
K2U3(O5F4)2,0.4157,-2.590244756934782,mp-1199421
RbHfMg6O7,1.064,-2.590107174166666,mp-1033667
Pr3Sb5O12,3.167999999999999,-2.589983342499998,mp-2973
Na8CaSi4Ge3(PO12)2,2.014199999999999,-2.58997764290445,mp-2716143
Na4P6PbO18,4.8952,-2.589976977702566,mp-1221184
Ti3Zn(P2O7)2,0.0,-2.589889297662337,mp-1047051
HfMg6CdO8,0.0504,-2.589819657499999,mp-1033269
Ca4Ge3O11,0.0,-2.589777186527778,mp-1203676
Na3MgScSi(SO6)2,3.7407999999999992,-2.589740710956897,mp-2712670
Tb2Ru2O7,0.0,-2.5896548243939392,mp-15161
Ta2Ge2O7,2.4021,-2.589611530424241,mp-1101376
Sr2YSn2O7,0.0,-2.589513540833332,mp-1048568
Ba2PrSeO6,0.0,-2.589507760401042,mp-1521257
K2TiH2O3F4,2.5197000000000003,-2.589494819819445,mp-703516
Zr2Pb2O5,0.257699999999999,-2.589469101944443,mp-1100817
Ba2Nb8O11,0.0,-2.589431844523809,mp-753689
Na7Mg2Ga2P5SO24,3.999099999999999,-2.589392936147223,mp-2716036
Rb2InCuF6,0.0,-2.589391039166666,mp-1113807
Cs2NbAgF6,0.0,-2.589333719666663,mp-1112950
K2ZrSi3O11,0.4676,-2.589225358205882,mp-1202728
Na2Zr4Al4Si3(S3O16)3,2.668999999999999,-2.589157501860838,mp-2716401
U2TeO2,0.0,-2.5891199013333233,mp-12625
Na14Y4In4Si7S5O48,2.8618,-2.589099664879801,mp-2715780
Sr3LaC2N4F5,3.689599999999999,-2.588865444000001,mp-1218488
SrNd2(CuO3)2,0.0,-2.588841362272727,mp-1218190
Na8Mg3ZrSi3(SO8)3,2.971,-2.588810753219075,mp-2714985
MgAl4(CuO4)2,0.893799999999999,-2.588786183666667,mp-2227038
Na3YMgSi(SO6)2,3.7228,-2.588729296373564,mp-2712800
Mg14SnBiO16,0.196699999999999,-2.588708630468748,mp-1034175
Li2CuF4,0.6242,-2.58869610047619,mp-753171
Na4Zr2Ga2Si3(SO8)3,2.8243,-2.5886180242899273,mp-2713272
Na2Hf2Si3Ge2(SO8)3,2.4177,-2.588588892646073,mp-2713204
Li4Nb3TeO12,0.0,-2.588588881499999,mp-755915
Si4Pb2O11,0.4272,-2.588530345147058,mp-1219427
Na6Zr4Si7Ge4S5O48,1.3867,-2.588360811023999,mp-2712912
BaSr(SnO3)2,0.7130999999999991,-2.588359532,mp-1227742
Li4P5HO15,5.9352,-2.588314757911904,mp-765567
Na6Mg4Ta4Si5S7O48,1.3683,-2.588309921082558,mp-2716062
TiCu(PO4)2,0.302,-2.5882730939682532,mp-755864
Li3MgPCO7,5.5024000000000015,-2.588202613049449,mp-768190
CaAl2(Si3O10)2,0.030499999999999,-2.588080817586207,mp-1197130
GdGaGe2O7,3.092399999999999,-2.587995915909092,mp-651847
Ba3DyIrRuO9,0.0,-2.587928129111111,mp-1228297
Li5Sb(P2O7)2,4.290500000000001,-2.587881458134919,mp-761952
Na6Ca4Nb4Si5S7O48,0.9314,-2.58781111014562,mp-2715955
ZnSbF5,3.7748,-2.5878108975,mp-1346333
Sr3BPO3,2.0101,-2.587786172976191,mp-9702
SrMg6CuO8,0.5745,-2.587745319999999,mp-1032276
Na8MgSi4Ge3(PO12)2,2.209199999999999,-2.587743261356831,mp-2715567
Na6Ta4In4Si7S5O48,2.4424,-2.587586262096071,mp-2713046
BaSnO3,0.372399999999999,-2.587468271999999,mp-3163
HoRhO3,0.9605999999999992,-2.587439951999997,mp-1212108
CsAsOF4,3.7471,-2.587420986022167,mp-562403
Na10Ca6Zr2Si3(S3O16)3,2.2717,-2.587386408862733,mp-2714901
Bi(BO2)3,3.858599999999999,-2.58729035375,mp-554718
Na6Nb2Al6Si5S7O48,1.1155,-2.587202602262737,mp-2715964
Na2Nb4Al4Si5S7O48,1.2587,-2.5871985989322672,mp-2716187
Na2Ca4Hf4SiS11O48,3.0209,-2.5870494010751233,mp-2714277
Sr2EuNb(CuO4)2,0.0,-2.586823074642858,mp-16786
K2AlPCO7,5.156000000000001,-2.586816962011905,mp-767417
TiZnSn(PO4)3,0.0,-2.586689245681216,mp-1043843
Na6Ca4La4SiS11O48,4.1289,-2.5866729473528283,mp-2712739
BaZrInSbO6,0.7056999999999991,-2.586593238666666,mp-1517982
Ca3Ga2(SnO4)3,2.7302,-2.586586002625,mp-1228716
Ba3Sr(SnO3)4,0.5104999999999991,-2.586531745999999,mp-1228079
Na9Zr8Si4(P4O23)2,1.3511,-2.586499539327421,mp-720989
Sr9ThCl22,1.9808,-2.586499161718752,mp-1173190
Ba4Sr(SnO3)5,0.4443,-2.586489571599999,mp-1228076
Na2Ta5In3Si6(SO8)6,1.1078,-2.586437137206076,mp-2713750
Na6Ta8Zn4Si9(SO8)9,1.7612,-2.586354775504098,mp-2713336
Li2Cu2Si4O11,0.6245,-2.586342292982456,mp-766023
YMg6BO8,3.3055,-2.586341380572916,mp-1031931
SiSnO3,2.6768,-2.5862830018333343,mp-776110
Li3In2(PO4)3,3.8434,-2.586236637863094,mp-6425
NaCa2Zr2PS5O24,2.9646,-2.586191569719682,mp-2714029
Sr10Nb5N5O14,0.0,-2.5861900269117633,mp-1218907
Na3Ca3HfPS5O24,4.283600000000001,-2.5861594467463282,mp-2713676
SrZrInSbO6,0.8413,-2.586108794666665,mp-1518482
Na4Si3SnGeO12,3.0664,-2.586089206294472,mp-2716376
Mg7Si2(H3O7)2,4.5577000000000005,-2.586066983189654,mp-1180494
Mg3Si2H4O9,4.2499,-2.5860022416666673,mp-24097
RbAsOF4,3.7404,-2.5859274457142862,mp-17337
NdCl3,4.299799999999999,-2.585905556250001,mp-23183
SrMg6SiO8,3.6434,-2.585773873749999,mp-1030826
Sr11(OsO6)4,0.0,-2.585758555641025,mp-556809
NaLiZnP2O7,4.237900000000001,-2.58565019241653,mp-676483
MgTi4(CuO4)3,0.0,-2.585640531916667,mp-1233258
Zr3ZnP2(SO6)4,3.4156,-2.5855040989986002,mp-2713039
Cs2TlAsF6,2.9734,-2.585479973014368,mp-1112503
Mg6ZnCuO8,0.0052,-2.585389678125,mp-1032598
RbCeMg6O8,0.371399999999999,-2.585249413593749,mp-1031089
TlB3O5,3.7297,-2.585224010648147,mp-1194874
Na6Ca5NbP3(SO6)6,2.1697,-2.585222888547446,mp-2713386
PrGaGe2O7,3.2204,-2.585206204924242,mp-1209621
Na6Ca4Y4SiS11O48,4.1588,-2.5851885834339092,mp-2712575
Na7MgIn3(PO4)6,3.3865,-2.585149764614121,mp-2714040
KEuO2,0.0,-2.585143340562501,mp-768949
Na15Mg10Ta2P9(SO8)9,3.2784,-2.585121618928565,mp-2714828
Ba3LaRu2O9,0.0,-2.5850700949998933,mp-558624
Na8TaIn3Si5SO24,2.9678999999999993,-2.584938207600028,mp-2716134
K3BaPCO7,4.0584,-2.584684096260988,mp-756876
Na9Ca5TaSi3(SO6)6,2.533,-2.584592865662453,mp-2712788
LiDyF2,0.0889,-2.584465499374998,mp-1211162
NaHf2In2P3(SO8)3,2.5813,-2.584394026508797,mp-2716289
Na10Al8Si5S7O48,4.1076,-2.584376083499484,mp-2714991
Tb2Cu2O5,0.672999999999999,-2.584350125092592,mp-1208537
Mg14CdCO16,2.949,-2.584147159843749,mp-1033748
Ca2SiB5O14,0.0296,-2.584130209469696,mp-867937
CaB5H3O10,5.1418,-2.584010340504386,mp-757666
Li6Sn3P8O29,3.1605,-2.583963461785713,mp-776484
Na7Al2Zn2P5SO24,4.297,-2.583832087326084,mp-2715845
K4Nb15O24,0.0,-2.58369804672093,mp-757862
Li4Sn(PO3)6,4.5504,-2.5836658422824312,mp-673092
TiAgPO5,2.4369,-2.583638071986606,mp-1208280
Rb2NbCuF6,0.0,-2.5835610415,mp-1111031
Na4Ca2Nb2Si3(SO8)3,0.3337,-2.583518620825016,mp-2713583
YMg6SnO8,0.037099999999998,-2.5834971965625,mp-1032806
LiBH2OF4,7.2957,-2.583374845694444,mp-730585
Na5Ca2Al2P3(SO8)3,3.9086,-2.583369628803208,mp-2714721
SrSi(OF3)2,0.6999000000000001,-2.583327984,mp-728573
CaP2PdO7,0.3569,-2.583296714935064,mp-1214043
PuGaO3,0.0,-2.583174226249997,mp-1186662
AlBrO,3.0144,-2.583134489166666,mp-1214833
Na3Si2Sn2PO12,2.9557,-2.58306704893904,mp-2715487
Ba5As3SO12,0.0,-2.582913382619049,mp-1214545
Ba4Mg(GeO3)4,2.3638,-2.582906832142857,mp-1233553
CsMgNb(PO4)2,0.0,-2.582889466456991,mp-2218770
LiMoP2O7,1.536099999999999,-2.582824036601731,mp-18987
Na42Mg16Nb8Si21(S5O48)3,0.651899999999999,-2.582766425652159,mp-2715792
CaTi3P2(SO6)4,2.0153,-2.582749950371148,mp-2712828
Na3Ga(PO4)2,4.183,-2.582654586137402,mp-561058
Na4MgSn3(PO4)6,2.6357,-2.582589702457221,mp-2713681
SrBi(PO4)2,0.0,-2.5825804382738102,mp-1046244
Li3Nb3TeO12,2.0597,-2.58256490245614,mp-754751
LiNb5O8,0.090199999999999,-2.582467811309523,mp-772212
NaSrCeBiO6,1.730299999999999,-2.58245325113793,mp-1519230
Ba3TbIrRuO9,0.0,-2.5823269487777782,mp-1228219
Gd2CF2,0.7328,-2.5823057239999962,mp-8301
Na21Nb4Zn8Si3(P5O24)3,1.8048,-2.5822647372244583,mp-2715775
Ba3CeIr2O9,0.0,-2.582166853333333,mp-1214640
EuBrCl,0.8183,-2.58214548166667,mp-1212756
NaMg6SbO8,4.0239,-2.582079133211206,mp-1030662
KNaZnP2O7,4.4030000000000005,-2.582073273784585,mp-554157
Be3Cd4Si3SO12,0.9984,-2.582043845326088,mp-17493
Li4B2O5,5.0323,-2.582003144696969,mp-768884
CaP2H2O7,5.7059999999999995,-2.581980973482142,mp-643898
Na7In4P9O32,3.6992,-2.581947146405914,mp-6702
Sr3Cu2(OF)4,0.0,-2.581902093846154,mp-1232334
BaLiTbSbO6,0.0,-2.581870762,mp-1521096
NaTl2InF6,4.274699999999999,-2.581778101471266,mp-989533
NaNbSi2SnSO12,2.6549,-2.581775769845148,mp-2715587
Sr2InSbO6,1.7824,-2.5817709486666662,mp-22355
Sr3LiRuO6,0.5632,-2.581730161212121,mp-6721
K3NaSi3(SnO6)2,2.6384,-2.581669574831554,mp-2716393
CaTi2Zn2(PO5)2,0.1104,-2.581662214467787,mp-1233023
Nb10Zn2Si9(SO8)9,1.0886,-2.581653290171569,mp-2713973
DyRhO3,0.8883000000000001,-2.581603258333331,mp-1212884
CsLa(SO4)2,4.3402,-2.581556988929597,mp-560260
Sr4PdO6,1.4647,-2.581484783181816,mp-29775
MgTiBiO5,0.0,-2.5814292110416672,mp-1043725
Na2Ta4Si7Sn4S5O48,2.203,-2.581357867946553,mp-2715553
Li5Bi2P5O18,3.913999999999999,-2.581246554996032,mp-26377
PrCuO2,2.3609,-2.581216355416654,mp-13694
Li3AgF4,2.7264999999999993,-2.581184765,mp-758861
TaAlSi(SO6)2,2.8258,-2.581003765627451,mp-2713135
K3RuF6,0.0,-2.580982623174999,mp-1111078
CsK2TlF6,3.583999999999999,-2.58093600174885,mp-1111971
NaInP2O7,3.8231,-2.580874244984698,mp-6290
Na9Nb2Zn4(PO4)9,1.8865,-2.580857390736657,mp-2715315
NaSi2BO7,0.7714000000000001,-2.58080305050418,mp-1191190
TaAsO4,2.856299999999999,-2.580765894555554,mp-770359
BaBr2,4.3731,-2.5807169366666702,mp-27456
SrMg6SnO8,3.1580999999999992,-2.5806915015625,mp-1031499
PuBrO,0.0,-2.580650867916665,mp-27982
Na14Sc4In4Si7S5O48,2.8424,-2.580457254107444,mp-2715641
CsSbPO4F3,1.6413,-2.580441019179803,mp-728910
BaCaEuBiO6,0.0,-2.580258534500001,mp-1516652
Ba2ZnGe2O7,3.1063,-2.580144032916666,mp-1190949
ZrO2F5,0.292199999999999,-2.580124613749999,mp-1215343
NdB5IO11,1.116299999999999,-2.5800468531018512,mp-1198400
Mg4CuO5,0.0,-2.5799940795,mp-1222162
Na10Ti4Ga4Si7S5O48,1.8131,-2.5799472663841,mp-2715831
CaSn2(PO4)2,2.4946,-2.5798214385989002,mp-1044660
LiNbZnO4,2.7777000000000003,-2.5797311494047612,mp-6146
KAsOF4,3.7394,-2.579728197821428,mp-17539
Na2NbGaSi2SO12,2.4126,-2.5795169383030863,mp-2712722