formula,bg,formation_energy,mp-id
Na6Hf7MgSi6(SO8)6,3.5897,-2.905480845562288,mp-2714851
PrPtF7,2.4352,-2.905339645462958,mp-17446
RbMg30GaO32,3.7897,-2.905337705390625,mp-1039624
La2Se2O,2.1379,-2.9053026669374993,mp-753822
NaSrPrNbO6,0.0,-2.9052868935545972,mp-1521505
Na5TiAl3(PO4)6,2.1527,-2.905228696446676,mp-2713184
Na5Ca2Zr2P5SO24,3.3931,-2.905130340024211,mp-2715138
CsNb3(PO5)3,0.0,-2.905110817776534,mp-1213520
CsNaSi2O5,4.7271,-2.905090861920498,mp-572951
SrTiNbSnO6,0.0,-2.905083342833333,mp-1517760
Na5Nb3Si6SnO24,2.849,-2.905060116971707,mp-2713210
KNb2PO8,2.279699999999999,-2.905036390991071,mp-773047
Ba2TbSnO6,0.0,-2.904990106166666,mp-1228305
RbMgPO4,4.6422,-2.904985484948979,mp-1020616
Na4MgZrSi(PO6)2,3.7154,-2.904975778879506,mp-2714407
KTa3CuO9,0.0,-2.904744851196429,mp-541373
Zr3N2O3,2.538599999999999,-2.9047023050000003,mp-1101160
Na14Y4Ti4Si9(SO16)3,2.1759,-2.904493720631833,mp-2714843
Ba2UHgO6,1.6345,-2.90438639525,mp-1205945
NaEr(PO3)4,5.7874,-2.904327990969484,mp-14691
Na10Ca3Ti5(PO4)12,1.8054,-2.9043258328569332,mp-2713414
K4Sr(SiO3)3,4.1609,-2.904279635823529,mp-560535
RbNaSi2O5,4.4435,-2.904253888208812,mp-557656
Be3Tl2Cd2F12,5.2994,-2.9041116416666672,mp-1214315
Na6Ta2Al2Si5SO24,3.0233,-2.904108304344397,mp-2713778
Na6Hf3MgSi4(SO12)2,3.494799999999999,-2.904106988706897,mp-2714531
CsCe(PO3)4,0.198199999999999,-2.904090450457032,mp-1213689
Na14Ta5Ga3(SiO4)12,3.4024,-2.904032224981427,mp-2712822
La6NbGa11O28,3.1489,-2.9039951157065222,mp-1223199
SrYMg14O16,0.0,-2.903981942499999,mp-1035900
NaMg6AlO8,5.330800000000001,-2.903835460086206,mp-1031510
LiMg30BO31,2.358799999999999,-2.903775236944445,mp-1040125
MgTi3CuO8,0.0,-2.903755640384616,mp-2218833
BaTiNbGaO6,0.6275000000000001,-2.9035526600833332,mp-1522797
TiNb3O6,0.520799999999999,-2.903543185833335,mp-29699
BaNaPrNbO6,0.0,-2.903522011554597,mp-1518832
NaHo(PO3)4,5.8251,-2.9035191138861522,mp-1195468
BaSr4Cl10,5.342899999999999,-2.9035078640000003,mp-1227722
CaLaEuSbO6,0.263,-2.903502259000001,mp-1522430
Ba2B6PbO12,4.233700000000001,-2.903474461666666,mp-1194549
NaSm(PO3)4,5.8294,-2.903423988052818,mp-1200123
NaNb2PO8,1.994399999999999,-2.903408520501847,mp-560016
Gd4Ge3O13,0.0137,-2.903357660250002,mp-1200081
Na7Al12Si12H6ClO48,3.6085,-2.903314608339013,mp-695601
MgTaTi(PO4)3,0.0,-2.9032705360886233,mp-1043750
NaLuGeO4,3.632,-2.903238962220854,mp-6712
NaNdTi4O12,0.0,-2.903219657900702,mp-1519054
Ta3In(PO4)6,1.786099999999999,-2.903209743035014,mp-2713746
NaPrTi4O12,0.0,-2.903155134798851,mp-1518075
BaSrCeBiO6,0.1074,-2.903019814999999,mp-1518927
Sr2LuRuO6,0.1147,-2.9030109491666662,mp-20687
BaNdInO4,2.5713,-2.90299272845238,mp-1192583
Na2Si2O5,4.4712,-2.902866989473182,mp-3193
AlAgF4,2.4951,-2.902761048750007,mp-1214923
KTbTi4O12,0.0,-2.902670355958333,mp-1518149
Na3Nb7P4O29,1.857399999999999,-2.9025923787839383,mp-1221330
Cs2SrP2O7,4.853499999999999,-2.902520475716338,mp-14355
Ca3Si3(SbO6)2,2.9629000000000003,-2.902492656374999,mp-1331145
Na2ZnGaF7,4.1437,-2.902433967523511,mp-15547
Na6Nb3Al5(PO4)12,2.1942,-2.9024058248286972,mp-2714737
NaLa2Nb2P5SO24,2.069099999999999,-2.902356746345531,mp-2716240
La2MgBiO6,0.0,-2.9023369595000013,mp-1393845
K2ZrSi3(HO5)2,4.9328,-2.9023196662222213,mp-720643
Mg30ZnSnO32,2.092199999999999,-2.902228524765624,mp-1037359
Na3LaZrSi2SO12,3.724599999999999,-2.902150406165231,mp-2714505
CsCa(PO3)3,5.3035,-2.902119883113125,mp-1201263
NaNd(PO3)4,5.8029,-2.902104047636124,mp-12226
K3Na3Nb8(PO7)5,0.0384,-2.902101006187078,mp-560541
NaGdCu2F8,1.0142,-2.902056730948276,mp-1210079
KNa6Al7Si9O32,3.8716,-2.902049742827743,mp-695648
Na2AlCuF6,0.237299999999999,-2.902017959604157,mp-1111082
Cs2Sr2Li3B3(PO4)6,5.6206,-2.901800295804187,mp-1019609
YMg14CuO16,0.2152,-2.9016862771875003,mp-1036013
MgTi3Zn2O8,0.0,-2.901678008214286,mp-2224234
RbNdO2,3.4259999999999993,-2.9016637562499983,mp-7973
Mg2Si4O11,0.0,-2.901594117941176,mp-1211034
Na2Y3NbP4(SO12)2,2.0343,-2.90138382212028,mp-2712767
Na30Mg4Nb20Si33(SO48)3,2.2629,-2.901382562281536,mp-2716517
Mg5Sn(BO5)2,3.8299,-2.901269854907406,mp-1198031
Na10Ti8Si9(SO16)3,2.5199,-2.901213671106322,mp-2714288
KBe2B3O7,5.5029,-2.9011979661346152,mp-1193116
Si6O13,0.008799999999999,-2.900884639210526,mp-731864
KIn2F7,3.6620999999999992,-2.900864153308333,mp-27599
Ba2B(PO4)2,0.0,-2.900818796804029,mp-1214745
AlTlSiO4,4.080999999999999,-2.90078734857143,mp-1228209
BaAl2(GeO4)2,4.0798,-2.900718550961538,mp-556178
K2Si2O5,4.4142,-2.900694892166667,mp-29825
Na10TaAl7(PO4)12,3.338199999999999,-2.900515014104796,mp-2713209
Sr3B6H2O13,5.3122,-2.900514172395834,mp-1201690
TbBeO3,0.0,-2.900455279333333,mp-1187310
SrGaBO4,3.7683,-2.900400161845237,mp-1197916
Rb2ZrSi3O10,0.8808,-2.90036847671875,mp-1199444
Na4MgSc(PO4)3,4.5314,-2.900364950687896,mp-2714963
Na14La6Ta2Si9(SO16)3,2.8276,-2.900343342477362,mp-2714980
Na10Ca2Hf6Si7S5O48,3.632799999999999,-2.900326609760168,mp-2715988
Mg30NbCdO32,0.1338,-2.900323793906249,mp-1038562
Ca3Ti2(GeO4)3,0.0072,-2.900256020833333,mp-1324516
KSbF6,4.9633,-2.90020621465625,mp-541908
NaSmTi4O12,0.0,-2.900073801650702,mp-1518343
Mg2Al2O5,1.2961999999999991,-2.899986565,mp-1185757
KLiMg30O31,2.6691000000000003,-2.899983455009259,mp-1040366
Na8La3NbSi5SO24,2.5338000000000003,-2.89985784032225,mp-2715637
Na15Ca4Nb8Si9(PO8)9,2.226499999999999,-2.899688596858765,mp-2714182
NaMg14GaO16,5.0262,-2.899684542464978,mp-1034608
Na9Ca4Ta2(PO4)9,2.3543,-2.899630338203325,mp-2715460
Li2B6O9F2,6.2705,-2.8996193187719292,mp-1200209
Na7Sc3Zn(PO4)6,4.402,-2.899615652093797,mp-2714172
LiNbO3,3.3358,-2.899517651666666,mp-3731
Cs2MgZr(PO4)3,0.0,-2.899493005828364,mp-1213730
Eu2MgTi2O6,0.0,-2.899450291969697,mp-2217983
Na14Hf4Al4Si9(SO16)3,3.7155,-2.899283424168418,mp-2714919
BaHfMg30O32,0.0,-2.899275989218749,mp-1038615
Na7MgNb3(SiO4)6,1.8983999999999992,-2.899275232715168,mp-2712873
Li2Ti(BO3)2,2.9516,-2.899257620075757,mp-759926
NaAlP2O7,5.2801,-2.899156918924092,mp-16777
NaHf2Sc2P3(SO8)3,3.7115,-2.899054480794511,mp-2716480
Tm3B3O7,0.9318999999999992,-2.898750873653847,mp-1100989
KDyTi4O12,0.0,-2.898749151236112,mp-1519790
MgAl2(OF4)2,0.7397,-2.898704291153846,mp-1104738
Na4Ta3GaSi5SO24,3.0084,-2.898581906382033,mp-2715042
Mg30CdCuO32,0.4237,-2.898542547656249,mp-1037248
BaAl2(PO5)2,0.0005,-2.898380499285714,mp-726645
KLaSmSbO6,2.971,-2.898339794225,mp-1523160
KRb2BiF6,4.7966999999999995,-2.8983316162249992,mp-554941
Na18Ca4Ta8Si15(SO24)3,2.3584,-2.898252226799952,mp-2713770
SrNb2CuO6F,0.0,-2.8982316404545463,mp-1232354
CaMg30BiO32,0.145099999999999,-2.89819962234375,mp-1037798
Rb2LiSbF6,4.2054,-2.898098412833333,mp-1110651
Na14Sc6Nb2Si9(SO16)3,1.8667,-2.8980283822172,mp-2714857
La2SbO6,0.079599999999999,-2.897980152777777,mp-756689
Na4Sc2(PO4)3,0.374899999999999,-2.897920312830752,mp-561458
CsNb(BO3)2,3.2987,-2.89789627879885,mp-6257
Na8Zr2Al2Si5SO24,3.9816,-2.897844424250822,mp-2715742
Li2Ti3SbO8,0.0,-2.897805184047619,mp-774449
Sr3MgO4,2.941299999999999,-2.897675411874999,mp-1218374
NbO2,0.2824,-2.897628194166666,mp-557057
SmInO3,2.9444,-2.8976168408333343,mp-752437
K2AlH2OF5,5.9924,-2.897516300181818,mp-24608
NaY(PO3)4,5.7942,-2.897459299441708,mp-555030
LiMg14SiO16,0.6695000000000001,-2.897378841041666,mp-1035536
Na6La2Nb2Si5SO24,2.1433,-2.89704829022773,mp-2713838
Na6Y3TaSi4(SO12)2,2.9292,-2.897039426265231,mp-2714533
Mg14AlZnO16,0.0,-2.8970391328125,mp-1036610
BaLaInO4,3.0545,-2.896999207380951,mp-1228083
BaSrTbSnO6,0.0,-2.896917427166667,mp-1522402
RbNb3(PO5)3,0.0,-2.896907866087662,mp-1219682
Sm2BiO2,0.0,-2.896740072000001,mp-1068843
Rb3TaF6,0.0,-2.8966706069833332,mp-1113823
Ba3Ti2(O3F5)2,0.7776000000000001,-2.896433868055556,mp-1199184
Ca4Cl6O,5.2239,-2.896422515454545,mp-23326
Na6Hf3MgGe2(PO6)4,4.205999999999999,-2.896418194421181,mp-2713635
Sr3GdRhO6,1.9628,-2.8963966077272802,mp-17355
Cs2Ti(PO4)2,3.4745,-2.896347842840722,mp-14864
RbAlAgF6,0.1874,-2.896297992962962,mp-1209335
CsYMg30O32,2.9483,-2.896286897182111,mp-1037012
RbAlPdF6,0.0,-2.896145690555555,mp-18453
YMg14ZnO16,0.0,-2.896063560312499,mp-1035986
Na10Hf5Zn3(PO4)12,4.1445,-2.8960191673441122,mp-2716540
Nb2F5,0.1513,-2.89589557238095,mp-466
NaTmGeO4,3.6137,-2.895737338054187,mp-18629
K2La2MgTi2O8,0.0,-2.8957192330777772,mp-2232184
Na14Y6Nb2Si9(SO16)3,1.9628,-2.89568670225785,mp-2714742
CaHoO3,0.0,-2.895609851999998,mp-1183539
Cs3KZr2(Si3O10)2,0.9832999999999992,-2.895607180037986,mp-1226678
NaGd(PO3)4,3.3984,-2.895489390691708,mp-561131
Ba2Cd(BO2)6,4.3316,-2.8954550954761893,mp-1190588
BaAlO3,0.0,-2.895402251,mp-1183283
Sr2LiIn(B2O5)2,3.765799999999999,-2.8953510199537043,mp-14854
CeZn(BO2)5,0.487499999999999,-2.895303922843137,mp-21667
Na6Ca2Nb4Si3(PO6)6,2.107,-2.895268507651457,mp-2712644
Na3HfSi2SnPO12,3.3857,-2.895146693814038,mp-2715231
Na4HfSi3SnO12,3.3857,-2.895098944151615,mp-2716570
Ba3MgNb2ZnO9,1.7966000000000002,-2.895056545000001,mp-2232814
K2LiSbF6,4.1086,-2.895017128783332,mp-1110835
Na8Ca3Zr(PO4)6,2.9103,-2.894992960052975,mp-2715046
Ta6Pb4O19,1.745299999999999,-2.894931043931035,mp-863066
CaTiP2O7,0.143399999999999,-2.894883685238094,mp-1041168
NaHf3NbSi3(SO8)3,1.6162,-2.894753795444171,mp-2714016
Ba18Pr9Sn4Sb5O54,0.0,-2.894730290499999,mp-695389
Na21Ca4Nb8Si15(PO24)3,1.942,-2.8947206479910093,mp-2714458
Ba2CeBiO6,0.0,-2.894714906,mp-1228427
Na6Sc3TaSi4(SO12)2,2.9568000000000003,-2.894606307640231,mp-2714576
Ba2Ti(GeO4)2,3.7129,-2.894512731410256,mp-6289
KCe(PO3)4,0.3409,-2.894500825462302,mp-540753
Na4YMg(PO4)3,4.2816,-2.89442521481488,mp-2715220
Ca2TmRuO6,0.0,-2.894377372000001,mp-1214117
La10Bi8O27,1.4298,-2.894281256777777,mp-758316
CaTaBiO5,3.5935,-2.894228631229166,mp-1042364
SrMg14TiO16,0.175699999999999,-2.894062314791666,mp-1034137
Sr2ScOsO6,0.0,-2.894027930499999,mp-1205575
LaNb2AgO7,1.154999999999999,-2.893975026515151,mp-1222828
Ti3(SnO5)2,1.7748,-2.893947579666667,mp-759737
RbUB5O11F,0.436799999999999,-2.893893505175438,mp-1204153
NaMg3Si3HO10,3.5623,-2.893871942923851,mp-1210338
Li4UO5,1.7311,-2.893856123833333,mp-7714
Na4NbAl3(PO4)6,2.3175,-2.893843632983537,mp-2713245
Al2PbO4,3.9425,-2.893783590000014,mp-21892
Li2Ti3Sn(PO4)6,2.5053,-2.893720924431216,mp-772416
Sr2TbSnO6,0.0,-2.893595585166667,mp-1517981
Cs2KSbF6,4.1778,-2.893585655656034,mp-1111020
K3TaF6,0.0,-2.8935074489083332,mp-1110844
Na5Hf2Mg2P5SO24,4.3229,-2.8934615242122432,mp-2714958
Na3CaTa5Si6(SO12)3,2.5999,-2.8934407410797163,mp-2715691
CaBePO5,0.5863,-2.8933326221428572,mp-1200025
KCa(PO3)3,5.0471,-2.893328516155612,mp-11625
CaNb5(PO4)9,2.4189,-2.893262479936975,mp-2713921
BaMgO2,3.1602,-2.893251054583333,mp-756018
RbNb(BO3)2,3.4532,-2.893123393783333,mp-556808
Na4Nb9(P2O13)3,0.0,-2.89292383669611,mp-554356
Na5Nb3Si6GeO24,2.7986,-2.8929134491939292,mp-2713174
Al6Cu2B4O17,0.488099999999999,-2.8928945890229882,mp-1228556
Na2LiInF6,4.8635,-2.8928523722758612,mp-1110904
MgCu(Si2O5)2,1.1248,-2.892777083749999,mp-1043306
Na7Hf2Si5Sn2PO24,3.4086,-2.892714506202391,mp-2714397
NaZrNbSi2SO12,2.588,-2.892705365863667,mp-2715804
Ca5P3CO12,0.6253000000000001,-2.8926569032823113,mp-1214051
Ba3Ge2(B3O8)2,4.1759,-2.892586929814815,mp-1194165
NaTbTi4O12,0.0,-2.892574592854406,mp-1516722
Na7Ca2Y2P5SO24,4.2774,-2.8924719787895,mp-2715917
NaCaNb3(PO4)6,1.2809,-2.892459992930565,mp-2713755
Sr3CePC3O13,0.053999999999999,-2.892381724982994,mp-561145
Y4US5O3,0.0,-2.892332211538459,mp-1216250
Mg14TiZnO16,0.136799999999999,-2.892115456041666,mp-1034882
Na15Nb10Zn2Si15(PO24)3,2.5488,-2.892026146620668,mp-2716527
SmClF,0.0,-2.892025943777783,mp-608254
KMg14AlO16,2.1653,-2.8918821111640622,mp-1036571
ScIO,1.9603,-2.8917588466666633,mp-559760
Mg2PClO4,5.2338000000000005,-2.891720634330357,mp-555396
LiYGeO4,3.817,-2.891697127619047,mp-1211012
Sr2LuBiO6,1.9188,-2.891695009166667,mp-23100
HfMg30SiO32,0.0,-2.8915827206249998,mp-1039844
Rb2BiF5,4.3349,-2.891484586875002,mp-1209655
SrMg14AlO16,0.0,-2.8914781171875,mp-1036505
SmCd(BO2)5,4.5946,-2.891336621225489,mp-14556
LuSbO4,2.343299999999999,-2.8913096627777772,mp-1237257
K2NaBiF6,4.8062000000000005,-2.891291591587931,mp-1110833
Na6Ti4Nb4Si9(SO16)3,2.0952,-2.891255292713188,mp-2712870
GdPtF7,2.3121,-2.891240942222216,mp-17500
Na2Ta3AlSi4(SO12)2,2.4518,-2.89123917017848,mp-2715696
Na10Mg3Ti5(PO4)12,1.9122999999999992,-2.8912378951859923,mp-2713478
CaMg14CdO16,3.330599999999999,-2.8912320003125,mp-1036216
Ba2CaCu3F14,0.0,-2.8912213805,mp-1045459
CaZrSi6H2O15,2.7453000000000003,-2.8911314508999992,mp-1214069
KNb3(PO5)3,0.0,-2.891114570053571,mp-1223540
Mg30CdSiO32,1.5483,-2.8910452415625,mp-1039856
Na2Zr4Si3(SO8)3,2.4979,-2.89100960931274,mp-2713427
RbMg30SiO32,0.0,-2.890997460117187,mp-1039945
K2ZrSi3O10,0.7432000000000001,-2.89096503746875,mp-729333
Ba3Bi2(PO4)4,3.8047,-2.890821084742856,mp-555231
CdB2F8,5.596299999999999,-2.890806871818182,mp-557364
RbBe2B3O7,5.0674,-2.890801567499999,mp-1020621
Na2CaTa(PO4)3,2.9017,-2.890788890036168,mp-2713633
KLaDySbO6,2.394,-2.890675486391666,mp-1522429
CaMg5P3HCO16,5.0362,-2.890649596488095,mp-1214060
Ti5Nb(PO4)6,0.003299999999999,-2.89062126901455,mp-774258
NaNb6O16,0.0,-2.8905599096251873,mp-729139
Mg30AlBiO32,0.292899999999999,-2.890488282187499,mp-1038205
KHfMg30O31,0.6113000000000001,-2.890467550829365,mp-1040164
CsMg30TiO32,0.434999999999999,-2.890402429109195,mp-1098350
Na5NbAl3SiP5O24,2.3454,-2.8903697759857483,mp-2714247
K2NpO4,0.2662,-2.890354923321427,mp-1025162
Na9Nb5Zn(SiO4)9,2.4046,-2.8902915226235653,mp-2715488
U(ClO)2,1.7799,-2.8901927329999952,mp-23013
CsSmO2,2.9281,-2.890176996163792,mp-7977
BaNd2In2O7,2.384599999999999,-2.8900168827777772,mp-1197371
RbMg30BO32,3.8516,-2.890015269479166,mp-1039672
Dy3GeO8,0.0,-2.889933489583332,mp-1191600
TiNb6Tl2O18,2.5982000000000003,-2.889843011851853,mp-1216944
Na3Ti3Ga(PO4)6,2.3792,-2.889751230887254,mp-2714663
K2TiCuF6,0.0,-2.889731656783333,mp-1112244
Al3Si3Pb2O13,0.064099999999999,-2.8896945548809523,mp-1200284
Cs2UH(OF2)2,2.5219,-2.889658128056034,mp-1215125
Ba2EuReO6,0.0,-2.889526185750001,mp-504674
Sr2TmRuO6,0.0,-2.8894845945,mp-542767
Rb2Si2O5,4.0396,-2.889471357500001,mp-28971
CaYP7O20,5.369,-2.88946361663793,mp-1227362
NdHO2,4.1593,-2.8894026521875,mp-625359
BaMg30CdO32,3.4322,-2.889373044374999,mp-1038611
LiGa(SiO3)2,4.4399999999999995,-2.889362718083334,mp-6241
LiLa2HO3,1.957799999999999,-2.889274411369049,mp-24148
Na15Ca7Ta5(PO4)18,2.8048,-2.8892531028284423,mp-2713190
Sr3NbO6,0.0,-2.889252344,mp-1208719
Na6NbAl3Si2(PO6)4,2.4101,-2.8892462357545172,mp-2715452
Ba3(ClO)2,2.4432,-2.889153341428571,mp-1178551
CsP(OF)2,5.1874,-2.8891138848830042,mp-1193041
CeMg30BO32,0.003200000000001,-2.8890978082682293,mp-1039958
Na14Mg2Zr6Si9(SO16)3,3.3146,-2.889076085835086,mp-2714734
NaMg30BO31,2.3338,-2.8890589810404133,mp-1039849
HfMg30BO32,0.0112,-2.889047241393228,mp-1038450
HoBeO3,0.0,-2.8888941549999982,mp-1184610
KBePO4,5.2634,-2.888861876698979,mp-7324
Na14La4Ti4Si9(SO16)3,2.2439,-2.888763952583054,mp-2714902
SrCaMg6O8,5.550600000000001,-2.888737130624999,mp-1031834
Cs2Si2O5,4.4604,-2.888705767978928,mp-562345
Ba3La2C5O15F2,3.906499999999999,-2.88870309537037,mp-581361
Sr2Ti5(Bi2O9)2,2.094299999999999,-2.888576598505748,mp-1218800
KYMg14O16,1.884199999999999,-2.888472338351562,mp-1035962
Na3Ca4Ta8P15(SO24)3,2.7291,-2.8884667718566432,mp-2716136
Ba2In2Si3SO10,2.892,-2.8884629843518512,mp-1194952
Ca2TiRuO6,0.0,-2.888462365833334,mp-1227718
TmSbO4,2.350899999999999,-2.888450341666665,mp-1207831
YTaP2SO12,3.1592,-2.888431324261905,mp-2713186
NaUP3O11,2.4628,-2.888372675175492,mp-1198126
CaBiF6,0.0372,-2.888242355625001,mp-1387328
Mg14TiCuO16,0.4635,-2.8879412029166662,mp-1035335
LaMg30BO32,1.9868,-2.887939517096353,mp-1039913
Na21Ca8Ta4Si3(P5O24)3,2.663899999999999,-2.887913370389771,mp-2715559
BaNb6O17,1.1974,-2.887741552708334,mp-1191444
Ba2LuRuO6,0.0556,-2.8877280816666673,mp-6145
ErBeO3,0.0,-2.887666327999999,mp-1184148
SmBeO3,0.0,-2.8876562590000012,mp-978503
Na5Hf2Si3Sn2(PO8)3,3.3461,-2.887643776773294,mp-2714289
Ba3Sc4(CuO4)3,0.5339,-2.887634432272727,mp-16435
K2Na2Eu4Nb2O13,0.0114,-2.887564515967768,mp-1205131
EuClO,0.0,-2.887552783333336,mp-542757
NaTa2Al2P5SO24,3.0669,-2.8874247266693422,mp-2716162
BaSr3Pd2(OF)4,0.0,-2.887423437857143,mp-1227694
Na6Nb5ZnSi6(PO12)3,2.4675,-2.887369755214114,mp-2714969
Na2Li3Ti3Al(PO4)6,0.069799999999999,-2.88720463155425,mp-769078
Na7NbAl3Si3(PO8)3,2.2193,-2.887104665453263,mp-2714800
HfBeO3,1.0495,-2.887019377999999,mp-1184563
CsU2(PO4)4,0.0172,-2.88686412253159,mp-1200035
Na3CaTaSi(PO6)2,2.4423,-2.886810654037849,mp-2715432
Na2CaP2O7,4.962,-2.88676357392036,mp-561260
NaMg6TiO8,0.1066,-2.8867532871695403,mp-1031198
Na3Nd14(RuO6)6,0.006,-2.8865765020192873,mp-555804
NaErGeO4,3.618299999999999,-2.886538843768471,mp-17487
BaMg30CuO32,0.7431999999999991,-2.886427099062499,mp-1037251
Na10La4Hf4Si7S5O48,3.4721,-2.886206997495211,mp-2715933
Na9Nb10Zn2Si9(PO8)9,2.4013,-2.886118720037834,mp-2712887
Na2YHgF6,0.0,-2.886115236750001,mp-1111061
Ca2SnO4,2.7198,-2.88604820642857,mp-4747
Sr3TiSi4H2O13,0.0,-2.885974773079711,mp-1208788
Sm2MgPtO6,2.0802,-2.885949879999999,mp-1208919
LaMgTa2CuClO7,0.0,-2.885920687666666,mp-2219163
Cs2NaSbF6,4.2317,-2.885768190068965,mp-1110979
Na2HfSiSn(PO6)2,3.2328,-2.885748201160228,mp-2712691
PmBeO3,0.0,-2.8857220415000002,mp-1186533
Na10Y4Zr4Si7S5O48,3.0187,-2.885695341725981,mp-2716023
Na9Mg2Nb4Si6(PO12)3,2.0305,-2.8856449132445943,mp-2713237
Cs2BaP2O7,4.8119,-2.8856225659246713,mp-1019603
Na8NbAl3Si4(PO12)2,2.1466,-2.885610209769529,mp-2716156
ZrTiP2SO12,2.5328,-2.885574782654063,mp-2713138
Na6Nb3Ga(SiO4)6,2.6135,-2.8855583437277312,mp-2715283
Cs2CaP2O7,4.9064,-2.8854408544663372,mp-1226202
RbPuO3,0.0,-2.885427986249996,mp-1186888
Ba6CaNb2Ir(ClO6)2,0.0213,-2.885404835833333,mp-1234974
Na2ScTaSi2SO12,2.9182,-2.885384385925893,mp-2712566
Mg3B7BrO13,5.9459,-2.885339148090278,mp-1210659
CaMgAsO4F,3.9326,-2.885291694687499,mp-7035
Ba2Nd2Al3(B4O9)3,0.0,-2.8851918180434772,mp-1202625
KNb(BO3)2,3.5488,-2.885048306183333,mp-1200391
NaHfSn(PO4)3,3.171799999999999,-2.884979231868957,mp-2713197
Na7La3Zn(PO4)6,3.9349,-2.88496281640274,mp-2714073
LiTi3Zn2O8,0.0,-2.884864128988094,mp-1211002
CsSi3O7,0.737599999999999,-2.884816093832289,mp-1202483
KNdZrSnO6,3.1768,-2.884811901975,mp-1521108
TmBeO3,0.0,-2.8847607240000013,mp-972395
RbLiMg30O31,3.046999999999999,-2.884734167076719,mp-1040170
Na4Hf2Sc2Si3(SO8)3,3.1062,-2.8847143542460683,mp-2713638
Na10NbAl7(PO4)12,2.510299999999999,-2.884581357173173,mp-2716336
Na2MgZr3P4(SO12)2,3.2937,-2.884553610777687,mp-2712564
CsNa2Be6(BO3)5,4.5106,-2.884511432180935,mp-866613
Mg30CuSnO32,0.0,-2.884455122109374,mp-1037360
BaEuTi4O12,0.0,-2.884442477685186,mp-1518538
CaSmEuSbO6,0.184899999999999,-2.884430379,mp-1518467
Na4Ce2(Si4O11)3,0.0397,-2.884284155304259,mp-1200345
LiNdTi4O12,0.0,-2.884254594120371,mp-1519505
Na14Nb4Al4Si11SO48,2.329,-2.8842479404082573,mp-2714559
Na2La3NbP4(SO12)2,2.1698,-2.884234987166577,mp-2714176
Er2US3O2,0.0,-2.884110462812497,mp-1225609
Ba6Y(ReO6)3,1.9671,-2.8840878568750012,mp-1228593
Nd2MgIrO6,0.0,-2.884055707999999,mp-1106213
EuTiNbSnO6,0.0,-2.883962620333334,mp-1521297
Na2Y2Ta6Si7S5O48,2.5092,-2.883936817251315,mp-2715605
Nb3O2F5,0.676299999999999,-2.88384777925,mp-760226
Sr2Cu(PO4)2,0.2216,-2.883831950714285,mp-10950
Na9Ca4Nb8Si3(P5O24)3,2.1134,-2.883823804523034,mp-2712991
Na2Hf4Nb4Si7S5O48,1.5441999999999991,-2.883648800146552,mp-2715614
Ta7Cu3O19,1.173899999999999,-2.883643432287355,mp-28752
Eu2NbInO6,0.3272,-2.8836420666666682,mp-1516804
Gd2MgPtO6,2.035799999999999,-2.883619893499998,mp-1212711
Na2Sc3NbP4(SO12)2,2.050599999999999,-2.883601621981391,mp-2712639
Ca3Al2(SiO6)2,0.0,-2.883534802368421,mp-1228003
Na12Ca2Nb4(SiO4)9,2.1468,-2.883518244707171,mp-2716498
Na7Ca2La2P5SO24,4.2258,-2.883512215781369,mp-2716032
Na3Hf2SiSn2P5O24,3.3073,-2.8834672311897,mp-2713087
Mg30NbSiO32,0.7725000000000001,-2.88335443015625,mp-1039821
Na5Sc2Al2P5SO24,4.5782,-2.883289827032757,mp-2715191
Rb2NaSbF6,4.124899999999999,-2.88326380363793,mp-989541
KGdTi4O12,0.0,-2.883047241699074,mp-1521350
Li2SiO3,5.0766,-2.882894919444446,mp-5012
NaCaHf3P3(SO8)3,4.433,-2.882575272508797,mp-2716425