formula,bg,formation_energy,mp-id
CaHfNbInO6,0.5366999999999991,-3.004229163666666,mp-1523377
K2RbGaF6,5.5929,-3.004221399949999,mp-1111144
Na2Ta5Al3(PO4)12,2.6079,-3.004203203692471,mp-2713872
Na6YNb3(SiO4)6,2.9127,-3.004172541831896,mp-2715223
Pr3Re2O9,0.1243,-3.004117926428572,mp-1209784
LiCeMg30O32,0.0,-3.004077141927083,mp-1040143
BaCa3O4,2.335099999999999,-3.003986249999999,mp-1019541
Na5Ti2Nb2Si5PO24,2.3748,-3.003964934227506,mp-2716518
Ba17Er16Zn8Pt4O57,2.249399999999999,-3.003902968480391,mp-561249
LaGeBO5,4.030800000000001,-3.003877321354167,mp-19957
Y16Ti16O35,0.0,-3.003708798184079,mp-685259
La2TeO6,2.9623999999999993,-3.003671611018521,mp-17350
Na5ScNb3Si5PO24,2.4175,-3.003560823586481,mp-2716487
Na3YNb3Si3(PO8)3,2.2787,-3.003334395172968,mp-2712921
Na4BeAlSi4ClO12,4.6344,-3.00330622176162,mp-23151
Na6ScNb3(SiO4)6,2.641,-3.00329830866523,mp-2715327
Ca24Mg8B16C8O73,0.1435,-3.003293766989663,mp-1228648
Na2YNb3Si2(PO6)4,2.263899999999999,-3.003001260685093,mp-2715778
BaLaEuSbO6,0.2517,-3.002975984500001,mp-1520390
LiLaMg30O32,4.229999999999999,-3.002951193880208,mp-1040140
BaSmEuSbO6,0.065299999999999,-3.002948004000001,mp-1516671
Rb2NaInF6,5.247199999999999,-3.002924792304597,mp-989578
CaY4Sb3O14,0.0,-3.002868651363636,mp-1213913
Na2Ta2Nb2Si5SO24,2.196799999999999,-3.00286649393311,mp-2713463
Na2ScNb3Si2(PO6)4,2.2569,-3.002864077212872,mp-2715736
Li2B3O4F3,6.573499999999999,-3.002820090763889,mp-1196457
Na2Eu2MgTi3O10,0.0,-3.002819109875481,mp-2229436
BaZr5Pb4O15,2.9226,-3.002726096999999,mp-1227880
Na3Sc2Nb2SiP5O24,2.3308,-3.00247750182033,mp-2713057
Na5Hf3ZnSiP5O24,4.2732,-3.002395443848997,mp-2715833
Na3ScNb3Si3(PO8)3,2.279099999999999,-3.002311249542338,mp-2713078
CsTi3Si2P6O25,0.0,-3.002185566824657,mp-541318
BaTbNbSnO6,1.7967,-3.002178214666666,mp-1517918
Na8La2Hf2Si5SO24,3.5991,-3.002113806711139,mp-2715572
KMg4(PO4)3,5.0625,-3.001999511058927,mp-557844
Ba6Ho2Ga4O15,3.553099999999999,-3.001995227962963,mp-1214596
BaNa2(SiO3)2,4.1731,-3.001983617068965,mp-556806
Na4ScNb3Si4(PO12)2,2.3838,-3.001933870608851,mp-2715040
KRb2InF6,5.5594,-3.001893541891666,mp-1211320
AcMgO3,0.0,-3.0018453265,mp-1183142
Na7La2Ti2Si3(PO8)3,2.5122,-3.001826864315051,mp-2714686
K5Na3Ta6Nb2O24,1.7476999999999991,-3.001785161359698,mp-1099860
Na4YNb3Si4(PO12)2,2.3904,-3.001751230126393,mp-2715177
BaCaLaSbO6,3.5067,-3.0016896475,mp-1522764
K3Lu(PO4)2,4.9407,-3.001526013407312,mp-18150
TbTa5Ag2O15,2.5293,-3.001481598550724,mp-1208376
KNaNdNbO5,3.443399999999999,-3.001472287347701,mp-558212
BaZrNbInO6,0.6060999999999991,-3.001397889666667,mp-1517252
KTa(BO3)2,3.6136,-3.001375388291666,mp-555150
Rb2LaNb2O7,0.0,-3.001334957083333,mp-1191145
Ca(Si9O19)2,0.0,-3.00128213991228,mp-1214452
NaHfTaSi2SO12,3.4118,-3.001224216734036,mp-2715650
Rb2YAuF6,1.5261,-3.001162570499999,mp-1111399
SrEuHfInO6,0.0,-3.001155709166667,mp-1521439
Sr7SiB3NO13,0.6242000000000001,-3.0010550175,mp-1256705
HoInO3,1.978,-3.001009271999999,mp-768267
BaLaSmCuO5,0.5899000000000001,-3.000971456111112,mp-1229306
Na5Ti7Al(PO4)12,2.441799999999999,-3.000955081588276,mp-677499
Li2La4O7,2.160599999999999,-3.000945850128206,mp-1120737
Na5La2Y2P5SO24,4.335199999999999,-3.000782541990022,mp-2714977
BaEuYSnO6,0.0,-3.000609284750001,mp-1518507
RbScO2,3.452399999999999,-3.000576440624999,mp-7650
BaTi4O7,0.0,-3.000506390277777,mp-1048199
TiBO3,0.0,-3.000503655499999,mp-9716
MgTa5(PO4)9,3.1127,-3.000461862322596,mp-2713741
Na7CaSc3(PO4)6,4.2199,-3.000328114776724,mp-2714055
CaYMg30O32,0.0,-3.000270192812499,mp-1038002
Na5Y2Sc2P5SO24,4.2575,-3.000132673870363,mp-2715020
K2Na5Al7Si5O24,2.2955,-3.000122484102245,mp-697305
KNb5O13,2.4171,-3.000114529986843,mp-554863
Sr2NdSbO6,3.507,-3.000048384999999,mp-1516795
BaCeNbInO6,0.4042,-2.999941960666665,mp-1519083
Na10LaNb7(SiO4)12,2.6808,-2.999641355753758,mp-2713533
Ti3Al2(SiO4)3,0.364899999999998,-2.9996412726250012,mp-1364639
Sr3UIn2O9,1.6343,-2.99953162788889,mp-1218755
Ba3Na7Ti3Nb7O30,1.1087,-2.9994930459931033,mp-676975
CaMg30TiO32,0.0,-2.999444523958333,mp-1037872
Sr2DyReO6,0.0,-2.999338294416667,mp-13938
K2U2O5,0.0,-2.99931104661111,mp-867366
SrLiBO3,4.3589,-2.999272073333333,mp-10814
CaMg30AlO32,0.0,-2.999171338124999,mp-1038346
Na15Ta10Zn2Si15(PO24)3,3.2902,-2.999140934341468,mp-2716387
Sm2Sn2O7,2.7353,-2.999128691818181,mp-2883
Na5YNb3Si5PO24,2.4655,-2.999072113372805,mp-2716335
K6U5As2O23,1.8012,-2.9990442977361083,mp-1194801
NaUHOF5,0.0,-2.998875001125478,mp-720703
NaCeTi4O12,0.0,-2.998830302484036,mp-1523025
Li2CeO3,2.3129,-2.998827910277773,mp-754534
Ta2PbO6,2.7625,-2.998794063574076,mp-771957
RbTi3Si2P6O25,0.0,-2.998718503658302,mp-1209312
Y3AgO5,1.2052,-2.998668174074074,mp-1094026
Rb3U3Ge2O13,0.472,-2.998623806071429,mp-557381
Na4Ta2Ti2Si5SO24,2.6292,-2.998475620289928,mp-2715161
Ta2AgF12,0.7160000000000001,-2.9984202086444443,mp-28375
Cs2ZnSi5O12,4.2057,-2.998382463715518,mp-1214991
Ca2EuBeO5,0.0,-2.998327483888889,mp-1214133
NaTiPO5,2.865999999999999,-2.998265826794437,mp-1220951
BaCuF4,0.0,-2.998206198333333,mp-12268
Na9Ta10Zn2Si9(PO8)9,3.121699999999999,-2.9981595521399362,mp-2712993
Na3La2Ta2SiP5O24,2.723,-2.99815898509961,mp-2712910
Ba2MgTi2O6,0.9963999999999992,-2.998128503787879,mp-2217552
Na6Ta5ZnSi6(PO12)3,3.2378,-2.998113200067915,mp-2714982
Ba2YbSbO6,0.0,-2.998014517750002,mp-14294
Na6Hf3ZnSi2(PO6)4,4.101500000000001,-2.997813131254516,mp-2715320
Ba6Dy2Ga4O15,3.5896,-2.997786968271605,mp-1214605
Na3LaTi3(PO4)6,2.2154,-2.997757947846714,mp-2714732
LiTi2P2O9,0.043499999999999,-2.9977018776275512,mp-1013762
BaYNbSnO6,1.780199999999999,-2.997665963999999,mp-1520896
DyTa5Ag2O15,2.5407,-2.997597712028984,mp-1212958
K3NaAl12Si12(HO6)8,4.803,-2.9973814618229673,mp-1203739
Li17Ti20O40,0.0,-2.9972514152380962,mp-677305
Na9Ta5Zn(SiO4)9,3.2198,-2.9971444876930082,mp-2715393
CsTmO2,2.776,-2.997090407413796,mp-753799
LiMg6Sc(SiO3)8,3.2098,-2.996980280333333,mp-695000
K2EuNb5O15,0.0,-2.99681933128261,mp-1199668
Cs2NaInF6,5.304,-2.996682126735633,mp-13898
Ba3PuO6,0.3789,-2.996677969874999,mp-1205571
SrCaSmSbO6,3.476,-2.996656710999999,mp-1523170
Na2ScNbSi(PO6)2,2.1904,-2.996654164405843,mp-2712586
Na8MgZr3Si4(PO12)2,3.5269999999999992,-2.996649084809212,mp-2716237
SrCaDySbO6,3.3225,-2.996550797166665,mp-1517046
Ca5Si3O13,0.0,-2.996493935714286,mp-1214077
Na3YTiSi(PO6)2,2.0505,-2.996451293171183,mp-2715267
NaCaTa3(PO4)6,1.8249,-2.99627003898771,mp-2714004
SrCaMg30O32,4.143899999999999,-2.996264370624999,mp-1038009
La4Zn3O9,2.0294,-2.996251845,mp-770296
Na4Al3(SiO4)3,0.0,-2.9962180268416923,mp-542090
CeGaO3,0.0,-2.996158735499999,mp-1019598
Na2LaTaSi(PO6)2,2.4577,-2.996153551107597,mp-2712816
Ba2La3Nd(CuO5)2,0.7635000000000001,-2.99609303625,mp-1228493
K3Li2Ta6(PO8)3,0.0,-2.996092008061716,mp-773101
SrPrO3,0.0,-2.996023107833333,mp-20464
KTi3Si2P6O25,0.0,-2.995894359462356,mp-541317
TiCuF6,0.2007,-2.995819661666666,mp-1025502
Na2Sr(SiO3)2,3.9888,-2.995787979038663,mp-1221321
Na14Sc3Nb5(SiO4)12,2.5198,-2.9957173134672,mp-2712987
Na2TiSiO5,2.9703,-2.9956953140102183,mp-6138
CsRb2GaF6,5.539300000000001,-2.9955569472155172,mp-989629
Na8CaHf3Si5SO24,3.4873,-2.995503641869869,mp-2716135
Na5Sc2Nb2Si3(PO8)3,2.2796,-2.9954724910467982,mp-2714053
Y2TeO6,3.0718,-2.995436384074074,mp-17066
DyInO3,1.987099999999999,-2.9952347806666673,mp-768149
NaYNb3SiP5O24,2.3909,-2.995231715750294,mp-2715555
Gd2Sn2O7,0.0,-2.9951852145454523,mp-17064
Gd2Ge2O7,2.7793,-2.995165451969698,mp-581229
TiSi5O13,0.0824,-2.995133895438598,mp-1199408
HfSnO3,2.3676,-2.995080958999999,mp-776083
NaPr2S2O8F3,6.1633,-2.99504651373204,mp-560673
ZrPdF6,0.9909,-2.9949714668750023,mp-9056
NaY2Ta2P5SO24,2.9072,-2.994943892193151,mp-2716228
KNaAl6Si6(HO6)4,4.736600000000001,-2.994890560086412,mp-1197973
Eu2B4O9,0.0,-2.994879976444445,mp-1213631
Y3Mg2(GeO4)3,0.0,-2.994872429125,mp-1207912
ThTeO,0.242399999999999,-2.994860575555552,mp-3718
BaNdO3,0.0,-2.994579430499999,mp-754307
Ti2ZnO5,2.8156,-2.994516180833333,mp-1042941
Na9Ca2Ta4Si6(PO12)3,2.7958,-2.994471853261262,mp-2715266
Ba2PrSbO6,3.712,-2.9944564471666673,mp-6692
Na5Lu(SiO3)4,3.8211,-2.994407140313479,mp-1133325
BaCaTbSbO6,3.337999999999999,-2.994353552666666,mp-1517107
Ba17Ho16Zn8Pt4O57,2.242199999999999,-2.994306925637253,mp-555188
Na3Ta5ZnSi3(PO6)6,3.274,-2.994244540530774,mp-2715588
TbHO2,3.9499,-2.993879853229166,mp-1079758
BaSb2F12,4.393800000000001,-2.993863724666665,mp-861962
Na3Sc3TaP5SO24,3.1532,-2.993661055059069,mp-2715859
NaYNb(PO4)3,2.4132,-2.993584664461549,mp-2713523
Ca2NbInO6,0.0,-2.993399012166667,mp-560645
Na14Y4Hf4Si9(SO16)3,3.9367,-2.993398392176549,mp-2714865
Sr3Be2B5HO13,3.6266,-2.9933959505034733,mp-1218394
Ba4Cl6O,4.3647,-2.993337676818182,mp-23063
Gd(PO3)3,3.4526,-2.993330437129121,mp-579125
Rb2AlCuF6,1.271299999999999,-2.9932984475,mp-1113818
Sr(PO3)2,5.4627,-2.993214043253968,mp-3765
HoTa5Ag2O15,2.5934,-2.993087641521738,mp-1212151
SrMgTi(PO4)2,0.5251,-2.993038152509157,mp-1046096
Na5Ta3Si6GeO24,3.648799999999999,-2.993011967535809,mp-2713392
K2NaNbF6,0.0,-2.99299688858793,mp-1111104
SrPrEuSbO6,0.0,-2.992893782166666,mp-1521602
ThO,0.0,-2.992862922499998,mp-1206987
Na3ScNbSi2PO12,2.3418,-2.992862878230707,mp-2713264
Na2Gd2MgTi3O10,0.0,-2.9927106220977002,mp-2229494
Na5La2Ti2SiP5O24,1.9645,-2.992599060686603,mp-2716079
Na7MgTa3(SiO4)6,2.8076,-2.992573208129801,mp-2712875
KNaPrNbO5,3.4049,-2.9925289778106663,mp-558317
SrZrNbInO6,0.5707000000000001,-2.992522484666666,mp-1521570
LiMg6AlO8,5.8199000000000005,-2.9925123258333333,mp-1031514
Eu2DySbO6,0.2193,-2.992347762166667,mp-1523259
K4Li5Ti8(PO5)8,0.0114,-2.9923168056842493,mp-766028
NaScNb3SiP5O24,2.2872,-2.992229207036008,mp-2715608
BaCa(PO3)4,5.7286,-2.9922180339484132,mp-556122
K2Zn2Si8O19,4.2227,-2.99216316966129,mp-559127
Ba6Tb2Ga4O15,3.5957,-2.992134606604938,mp-1214551
NaLaScSbO6,3.311199999999999,-2.992124237637931,mp-1220803
Ba8Ce3(SbO6)4,1.8772,-2.992093305641025,mp-561045
TaTiTlO5,2.5923,-2.9920090805000013,mp-1217858
NaYHfP2SO12,4.4556,-2.992004382120279,mp-2712787
Ta2ZnO6,3.0662,-2.9919900877407413,mp-17765
Mg3Ti4(PO4)6,0.0635,-2.991876554221363,mp-1222269
Na4Zr2Nb2Si5SO24,2.5691,-2.9918577563951922,mp-2715077
PrZrNO2,1.9717,-2.991841893333334,mp-1219791
Cs2Al2P2O9,4.899699999999999,-2.991625041573072,mp-560387
CaLa2BiO6,0.0,-2.9915695650000003,mp-1396966
Ca3YGa3B4O15,3.995599999999999,-2.9915490332371792,mp-695475
Na4ScNb(SiO4)3,2.5940000000000003,-2.991546583040504,mp-2716353
Sr2TbReO6,0.0,-2.9914924659166653,mp-13937
Th(PO3)4,5.202,-2.9913998994747892,mp-1195509
Na5Sc4P5SO24,4.3918,-2.991247213272073,mp-2715082
Na14Hf4Sc4Si9(SO16)3,3.920999999999999,-2.991228302989557,mp-2715084
Eu3BrO4,0.0,-2.991215663750001,mp-540915
ErTa5Ag2O15,2.508499999999999,-2.991201828478261,mp-1213131
Na3Ti2P2O10F,3.232,-2.991129180838349,mp-41191
K2Al2B2O7,4.5949,-2.991123102910255,mp-560217
Ba2B10O17,5.7815,-2.99083868178161,mp-1019522
NaHfScP2SO12,4.5822,-2.99068847387954,mp-2712627
Na10Hf4Ti4Si9(SO16)3,2.6141,-2.990497551319998,mp-2714065
HfPbO3,2.7161,-2.990494839249998,mp-22734
Li2Eu5O8,0.0,-2.990389482111111,mp-1098010
Eu2B5BrO9,0.799199999999999,-2.99033144534314,mp-558834
Na6Zr2Ti2Si5SO24,2.6081,-2.990315359477731,mp-2713889
Na2YCuF6,0.0,-2.9902990022500022,mp-1110996
K3La(PO4)2,4.662000000000001,-2.9902919022168373,mp-1019793
Ca2GeO4,3.6002,-2.990227975714284,mp-560647
Lu3Ga5O12,3.5330999999999992,-2.9901599767500002,mp-14134
Ba8Zr3(SbO6)4,3.0097,-2.990142667179486,mp-667372
Ba2Nb15O32,0.0,-2.99010620489796,mp-28675
Cs2RbNbF6,0.0,-2.990093562681034,mp-1111966
Sm(PO3)3,5.7294,-2.990044167994505,mp-1208698
Na5La2Ta2Si3(PO8)3,2.5366,-2.9900345558673123,mp-2714285
Ca2TaSnO6,0.0,-2.989977827233333,mp-1331696
LiMg30GaO32,4.239799999999999,-2.9899755914192703,mp-1040051
Na6LaNb3(SiO4)6,2.9042000000000003,-2.989885134206896,mp-2715389
Na3SrTiNb3O12,1.5664999999999991,-2.989740895123564,mp-677431
Na4Al3Si3B(O3F)4,0.532,-2.9896769259142193,mp-1173755
Na2Y3Nb5(PO4)12,1.9287,-2.989601217073423,mp-2713893
Na3Zr3Ga(PO4)6,4.0083,-2.989599928454822,mp-2716344
Na6Sc2Ta2Si5SO24,3.1013,-2.989599473844397,mp-2713870
CaMg30ZnO32,4.139600000000001,-2.989550505625,mp-1037964
K3InF6,5.3281,-2.9895219063416643,mp-27526
Nb5OF14,0.0,-2.98933270175,mp-756988
Ba2UCuO6,0.073099999999999,-2.989170562999999,mp-1205359
K2NaInF6,5.2445,-2.9891306462545972,mp-6686
NaNb4Si3(PO8)3,2.6558,-2.989108100056416,mp-2714175
NaTi3P3O13,0.0,-2.989070170015394,mp-1013874
Na7CaLa3(PO4)6,3.9768,-2.989067870305179,mp-2714135
Sr2YReO6,0.0,-2.9890336722499993,mp-7889
Na8BeAl4Si7(ClO12)2,3.9831,-2.989009533609445,mp-42583
Na6Hf4Nb4Si9(SO16)3,2.2883,-2.9889247040194933,mp-2713090
Na3Y2Nb2SiP5O24,2.2235,-2.988886746865376,mp-2712890
BaSrPrSbO6,3.6275,-2.988876333166666,mp-1519366
LiAlB2O5,5.5855000000000015,-2.988829571851851,mp-557104
Na2LiTi3Al(PO4)6,2.5293,-2.988804707133759,mp-769074
BaCaYSbO6,3.375,-2.9886775610000003,mp-1520388
Li8Ti7Nb6O30,0.0,-2.988644356470589,mp-772997
Ba2CaEu2Ti3(CuO7)2,0.0,-2.9885513925000002,mp-1228757
Na7Sc2Nb2Si5PO24,2.3499,-2.98839620904792,mp-2714355
KUSiHO6,2.168799999999999,-2.988341220849999,mp-1211875
Na8Y2Zr2Si5SO24,3.9137,-2.9882382703619332,mp-2715531
SrNb2O4,1.3932,-2.988177580714285,mp-768342
Na2Sc3Nb5(PO4)12,1.9543,-2.988177290906756,mp-2713761
U3Bi2O9,0.0,-2.988160796071428,mp-1100974
BaTi2(P2O7)2,0.0,-2.9881135562018133,mp-17997
Na3CaHf(PO4)3,4.503299999999999,-2.987979131903325,mp-2715493
NaNdO2,3.3353,-2.9878878134698272,mp-8128
CePuO3,0.0,-2.987861632749997,mp-1183759
Na7La3NbSi3(PO8)3,2.4829,-2.987858568827246,mp-2715072
K3Nb3Si2O13,2.1432,-2.987607624607143,mp-559346
TmTa5Ag2O15,2.5128,-2.9875856015217392,mp-1207743
Cs2RbInF6,5.3728,-2.987577245347701,mp-989605
SrGa2(SiO4)2,3.9438,-2.987542761153846,mp-14235
BaSr2ScInO6,1.6564,-2.9874235037878782,mp-1227696
Nd(PO3)3,5.4867,-2.987418768956045,mp-7264
LiTi3P3O13,0.0,-2.9874039133630963,mp-1012865
Na2Si4O9,4.637399999999999,-2.9873649715172412,mp-662605
KRb2NbF6,0.0,-2.987359461224999,mp-1113891
NaSc2Ta2P5SO24,3.147999999999999,-2.98731228124077,mp-2716189
Ba17Dy16Zn8Pt4O57,2.2327,-2.987297528937907,mp-556377
K3Ta4F15,0.0,-2.987281946412878,mp-680327
Sr2Ti2GaO7,0.152499999999999,-2.987262833680555,mp-1048055
Na3Eu9B8O27,0.0,-2.987191818669602,mp-1210643
Er2BiO2,0.0,-2.987057762,mp-1069613
Na7Y3Mg(PO4)6,4.3364,-2.987001356890544,mp-2714278
KNb3O8,2.4752,-2.986958873937498,mp-27998
Sr8Li2B22H2O43,4.6493,-2.986896070205628,mp-1199637
NaTaAl(PO4)3,3.476099999999999,-2.986864669591179,mp-2713437
Na3La3TaP5SO24,3.2116,-2.9868532181221332,mp-2716088
Ba6Y2Ga4O15,3.6041,-2.986573302037037,mp-1214542
NaCeMg30O32,0.0,-2.986550753146551,mp-1039936
KNa3Al12Si12(HO6)8,4.7097999999999995,-2.986505902695095,mp-1205072
Na14Y3Nb5(SiO4)12,2.4691,-2.986471472471265,mp-2712837
HoAl3(PbO4)2,3.117899999999999,-2.986323307857142,mp-8888
NaTi3Nb(PO4)6,2.3867000000000003,-2.9862578167400913,mp-2713786
NbOF2,0.0,-2.98614324875,mp-752474
Na10Nb7Al(SiO4)12,2.69,-2.986005415988801,mp-2713429
Na3CaZr3P5SO24,3.4052,-2.985979362203214,mp-2715908
MgTi4Pb2O9F2,0.0,-2.98597830462963,mp-2233030
Na8Zr2Sc2Si5SO24,4.0034,-2.985951956393678,mp-2716247
NaTi2Nb2SiP5O24,2.5046,-2.985895128036008,mp-2715767
Na7Hf3ZnSi3(PO8)3,3.9451,-2.985894627648384,mp-2714627
LaNb2O7,0.0,-2.985703907999999,mp-726245
CsK2Ho(PO4)2,4.8718,-2.9856876227457763,mp-573324
Sr2CeSbO6,0.0,-2.985677997499999,mp-1518851
Na3LaTaSi2PO12,3.105299999999999,-2.985616691764039,mp-2713235
Na2ZrAl(PO4)3,4.3789,-2.9855671409659923,mp-2713598
KCeNb2O6,0.0,-2.985560093724999,mp-1522773
NaMg14AlO16,4.059900000000001,-2.985548835980603,mp-1036532
Na3Zr3In(PO4)6,3.946,-2.985520512035903,mp-2716489
SrHfNbSnO6,0.0,-2.9855093475,mp-1519878
BaYTiCuO5,0.0,-2.985446222037036,mp-1389826
Na3LaNb3Si3(PO8)3,2.2383,-2.985417638731528,mp-2712929
Sr8Ce5Nd3(CuO12)2,0.2355,-2.985339086488095,mp-1173197
NaLaMg30O32,4.144500000000001,-2.985217457287176,mp-1039932
Na2YNbSi(PO6)2,2.0321,-2.985206153704088,mp-2712576
K2TiAl(PO4)3,2.9115,-2.985116810619047,mp-677733
Nd2Ge2O7,3.4278,-2.984836285,mp-581345
Li2EuSiO4,0.0433,-2.984761698958333,mp-14629
Na12Ca2Ta10Si15(SO24)3,3.1849,-2.9847148954595193,mp-2715009
MgNb2(O2F)2,0.0,-2.984655890555556,mp-2217155
NaLaNb3SiP5O24,2.263,-2.9845321040836272,mp-2715673
CsPF6,7.1409,-2.9845223859970242,mp-675011
Na5Zr2Al2SiP5O24,3.999,-2.984453122225064,mp-2714272
Pr(PO3)3,5.4848,-2.984249975815019,mp-30957
Na5La2Sc2P5SO24,4.1017,-2.984111728314808,mp-2714990
Na6Y2Ta2Si5SO24,2.9969,-2.98402698867773,mp-2713835
Na8Hf3ZnSi4(PO12)2,3.7019,-2.9839192161981,mp-2715550
Mg2Ti9O13,0.0,-2.983913486458334,mp-1045636
Mg7(SiO4)4,0.0,-2.9838265294444453,mp-1222121
NaAl3Si3(HO6)2,4.694100000000001,-2.9838035008990142,mp-1198448
Na4LaNb3Si4(PO12)2,2.260099999999999,-2.9837514998193773,mp-2714972
Er3Ga5O12,3.5384,-2.983602334249997,mp-12236
CsErO2,2.8015,-2.9835988224137933,mp-754055
Na2LaNb3Si2(PO6)4,2.1503,-2.983566643972131,mp-2715701
Na6La5Nb3(PO4)12,2.0095,-2.983468377238606,mp-2714814
Na7Zr2Al2Si3(PO8)3,4.0165,-2.9834364917134253,mp-2714994
Ta2SnO6,2.2854,-2.9833550249629632,mp-556489
Na7La2Ta2Si5PO24,2.8008,-2.983293070869058,mp-2714396
BaNdEuSbO6,0.150199999999999,-2.9830744687500013,mp-1518347
BaLi2SiO4,4.3955,-2.9828016685416663,mp-558310
BaCaNdSbO6,3.4966,-2.982774850249999,mp-1521785
SmAl3(PbO4)2,2.9907,-2.982744790178571,mp-21567
Gd2HgO4,1.9856,-2.982678915357146,mp-756040
SrCaTbSbO6,3.3076,-2.982662753666667,mp-1519047
La2PdO4,0.0,-2.98257549,mp-8672
K2ScAuF6,1.583699999999999,-2.982572055949999,mp-1112256
EuB4O7,2.1466,-2.982551635972221,mp-8109
Sr2NbInO6,3.3968,-2.982250818166667,mp-20222
Cs2ScAuF6,1.8594,-2.982187894666674,mp-1112595
K3Tm(PO4)2,5.1379,-2.982160333645408,mp-1192398
NaZr2Ti2P5SO24,2.3144,-2.982106714536008,mp-2716245
KPrHfSnO6,3.366699999999999,-2.982058603391665,mp-1518396
Na4Ta3AlSi5SO24,3.0966,-2.9819852251320342,mp-2715057
Y2MgTi2S2O5,0.0,-2.981963169305556,mp-2224274
Li2TiO3,3.0338,-2.9819544033333343,mp-2931
DyHO2,4.5215,-2.981936420104165,mp-755659
K2LiTaF6,0.307399999999999,-2.981909413516666,mp-1112863
CsNpO3,0.0,-2.981902242681035,mp-1183933
Na6Ta3Ga(SiO4)6,3.5318,-2.981850323111063,mp-2715427
Li3Y4Ti4(S2O5)2,0.0,-2.981827587333333,mp-1222559
K2Zr(BO3)2,3.4092,-2.9816018693484843,mp-8891
Rb3Ti3(PO4)5,2.5989999999999993,-2.981380438410138,mp-6390
La3Ga5SiO14,3.6931,-2.981256540108696,mp-1223148
KLaCeSnO6,2.2154,-2.9812468392250002,mp-1516631
K7Ti8(PO4)12,0.0,-2.981201487375078,mp-1223973
Li2LuSiO5,0.1114,-2.9811673825925933,mp-1189864
Rb2MgTi2Zn2(OF5)2,0.0,-2.981152837719298,mp-2230467
Na14Ti8Si11SO48,2.6275,-2.981132979310695,mp-2714563
Ba3LiTi5(SbO7)3,2.4353,-2.981115243636364,mp-766108
Na4LaTa(SiO4)3,3.0315,-2.98105571775479,mp-2716482
Ba(PO3)2,5.6525,-2.980959077976188,mp-559939
Na6CaTi7(PO4)12,2.1841,-2.98094886379266,mp-2716417
Na8Hf3MgSi5SO24,3.5798,-2.980866601274631,mp-2716226
LuAl3(PbO4)2,3.1113,-2.98086390797619,mp-14760
U(BO2)4,0.0,-2.980851654743588,mp-1194254
LiNb3O8,3.017,-2.980640704027777,mp-3368
NaYMg14O16,3.6304,-2.980625066605603,mp-1035917
K3Ho(PO4)2,5.0659,-2.980516285431121,mp-1192630
NaMg4(PO4)3,4.873,-2.9804673033903932,mp-560981
K5In3F14,4.6571,-2.9803082296022723,mp-1196816
LiMg6TiO8,0.08,-2.980264731666666,mp-1031344
LiTi3Nb(PO4)6,2.5218,-2.980011906891156,mp-757758
Ba2SmReO6,0.0,-2.979957276750001,mp-13929
NbSbF10,4.3644,-2.979953557083334,mp-27472
SrEuHfSbO6,0.0,-2.979932907500001,mp-1517552
Mg2P2O7,5.1351,-2.9798934531168833,mp-1195826
BaGa2(SiO4)2,4.1576,-2.979884517884614,mp-6759
K4MgNb4(Si2O7)4,0.0,-2.979874969644445,mp-2217038
RbGdO2,3.0036,-2.979642334375001,mp-7976
TbEu2SbO6,0.2205,-2.979610679666668,mp-1518951
Na3Ta2Al2SiP5O24,3.285699999999999,-2.9795697709554663,mp-2712919
GdAl3(PbO4)2,3.052499999999999,-2.979474422857141,mp-21706
Rb2Al2B2O7,4.1788,-2.9794121660256403,mp-559284
LiTiO2,0.0,-2.979356947916666,mp-38280
Na7Ca2Hf2SiP5O24,3.8648,-2.979200649500881,mp-2715640
Ti3Zn2O8,2.5854,-2.9791833144230773,mp-29104
BaGdNbSnO6,1.6839,-2.9791707725,mp-1521621
CaSiBO5,0.4043,-2.979097142708333,mp-732197
UTa2O8,1.2312,-2.979004525878787,mp-27862
Gd2SbO2,0.0,-2.979000602,mp-1224680