formula,bg,formation_energy,mp-id
Na2Hf2O5,1.9603,-3.165094377528736,mp-865500
CeSmO2,0.0,-3.165044858749999,mp-755070
Ba4TiSi12(SnO12)3,3.2599,-3.165014318184525,mp-1228270
Lu2MgNb2O8,0.0,-3.1649799029487182,mp-2240976
CaTi(Si2O5)2,0.0,-3.164759742552083,mp-1043438
HfTa(PO4)3,3.778,-3.164683436838936,mp-2713724
BaErO3,0.0,-3.164587624999998,mp-1183291
Ca2Mg5(SiO3)8,0.0173,-3.164561769871795,mp-1129406
BeAlBO3F2,5.5792,-3.164293077395832,mp-1247751
DyO2,0.0,-3.16420041722222,mp-1206731
Ti3O4,0.0,-3.16382181714286,mp-1217157
NaHoO2,4.004799999999999,-3.163776783469826,mp-755617
Li3Ta7O19,2.868299999999999,-3.163698085390804,mp-772220
CsTmP2O7,5.1972,-3.163660125130989,mp-1213300
SrEuNb4O12,0.0,-3.1636289775,mp-1516448
La2P4O13,4.923500000000001,-3.1636110951879712,mp-771240
Ca2Ti6N2O11,1.8182,-3.163588438333332,mp-776452
Ca10Si3S3(O12F)2,4.4312000000000005,-3.163507876249999,mp-1227873
BaGaBO3F2,4.9696,-3.1632819270833332,mp-10509
NaSr3TaO6,3.8787,-3.16318817761024,mp-13042
BaZr2SnO6,2.6872,-3.1631125245,mp-1521649
Na3Dy(Si2O5)3,4.77,-3.163040641932184,mp-555604
BaSbF7,2.6346,-3.162819074444444,mp-1041341
BaCaTi4O8,0.0,-3.162551934523809,mp-1046986
Ca2Si3PbO9,4.3821,-3.162365873666667,mp-504590
NdTi2CdO6F,1.396599999999999,-3.16231406628788,mp-677732
Sc20O19,0.0,-3.162139099615384,mp-684697
KLuP2O7,5.212099999999999,-3.161945163700215,mp-559395
Th(BO2)4,4.4289,-3.16157274128205,mp-1194365
BaHf4SnO12,0.0,-3.161536028055555,mp-1518088
Nd2Ho2O5,0.0,-3.161497377777777,mp-1186245
RbTmP2O7,5.028499999999999,-3.161324040162337,mp-1209196
MgSc2Nb2O8,0.6437,-3.16105658653846,mp-2241366
Rb3Ta5O14,3.7003,-3.160894352405302,mp-680298
Rb6NaU3Si4O20F,2.147399999999999,-3.160805641039408,mp-1197419
Na3Be3Pb2F13,5.3256,-3.160545298054187,mp-1221271
Na2Ti2Si2O9,2.9482,-3.160490493461686,mp-5996
Na2Ti3O7,2.9953000000000003,-3.160181039813217,mp-3488
Gd5(AsO6)2,0.0,-3.160114820263157,mp-757215
Na3ZrF8,0.0,-3.15998937625,mp-864745
Ba2CaCeGd2Ti2(CuO7)2,0.0,-3.159962158611109,mp-1229095
Sr2ZrGeO6,4.057499999999999,-3.1598895225,mp-1523090
Mg14Si5O24,4.949899999999999,-3.159876427906976,mp-28663
Nd2Ti3(BiO6)2,2.2573,-3.159857567894738,mp-1210188
KPrYNbO6,2.4244,-3.159667524891667,mp-1517759
NdO2,3.4112,-3.159657924166664,mp-31049
Nd2Pb5F16,4.1379,-3.159580999637685,mp-676275
Na5HfTa3(SiO4)6,3.8015,-3.159563828347774,mp-2713519
La4B14O27,4.1723,-3.159417003185186,mp-645962
NaCaZrNbO6,2.284,-3.159409084137931,mp-1518125
La3Nb(ClO2)3,0.0,-3.159282642307692,mp-1211272
CaTi(SiO3)2,0.0,-3.1592332528333342,mp-1157680
NaCa2SiO4F,3.0452,-3.159171851819923,mp-1173770
LiEuTiO4,0.0,-3.159035314166667,mp-619100
Ca2Al(SiO3)4,0.5954,-3.158942078684211,mp-1214160
Nd2Ta3(SeO4)2,0.969299999999999,-3.158932080945833,mp-1210064
NbF5,4.5694,-3.158893295833332,mp-18687
Al8(SiO6)3,1.5203,-3.158794070344829,mp-1247920
KTmO2,3.9715,-3.158537831812501,mp-753774
Ca2Al4Si4O17,0.3223,-3.158445702962963,mp-1203830
Pr(BO2)3,5.3984,-3.158382339916666,mp-11183
CsErP2O7,5.1312,-3.158335579221898,mp-1198204
Er2P4O13,5.598199999999999,-3.158290301635339,mp-772958
HfThO3,0.0,-3.158203890999999,mp-1184597
KTbPrNbO6,2.399899999999999,-3.157931810558332,mp-1522191
Na2Ca2(SiO3)3,4.4105,-3.157718207047414,mp-1221806
Ca2Mg5Si8(HO12)2,4.8269,-3.157632202134145,mp-1196550
BaNa4Ti2Si10(BO15)2,3.4488,-3.157506589806474,mp-1228057
Tm2CuO4,0.2054,-3.157202510714287,mp-1100986
BaNaSc(BO3)2,3.8127999999999993,-3.157152778155695,mp-1182298
SrCaNb4O12,1.693999999999999,-3.157136455,mp-1519971
Eu2SiCl2O3,0.642799999999999,-3.1570140675,mp-555322
CaNbO3,0.0,-3.157008141,mp-4957
Na7Hf2Zr2Si5PO24,4.382,-3.156822170267431,mp-2714508
Ca2ZnSi2O7,4.0553,-3.156415355,mp-6227
U(BO3)2,2.266,-3.156398850370367,mp-31013
KCa4(BO3)3,4.5893,-3.156328408514706,mp-555023
Tm2TiCuO6,0.0,-3.156286001333335,mp-1216796
BaZrTiPbO6,1.5482,-3.156169491333332,mp-1227484
Ce(BO2)3,0.0,-3.1561389044999992,mp-558621
U3O10,0.0,-3.155976276153844,mp-729279
Ba4ZrO6,3.2265,-3.155835242272728,mp-769391
Mg(SiO2)16,2.2877,-3.155811088061224,mp-1234904
Ba3Al2(SiO4)3,3.4204,-3.15571533125,mp-14049
Y2P4O13,5.6411,-3.15568769781955,mp-30321
Tm2Mg2O5,2.6224,-3.155564397222223,mp-971707
Na2Eu2Ti3O10,0.0,-3.155419635456389,mp-14996
CsCa2Nb3O10,2.0693,-3.155311811540949,mp-581330
K3Zr2NF12,5.1675,-3.155291144819444,mp-1212215
Na7Ti16O32,0.0,-3.155197294781608,mp-760172
KTmP2O7,4.9999,-3.155197207866883,mp-1211744
SrNdTi4O12,0.0,-3.155189486157408,mp-1519398
Li2NbF6,0.0735,-3.155059820148148,mp-2356674
DyGaO3,2.8765,-3.154929571166667,mp-769015
Sm2MgNb2O8,0.2328,-3.154919460384614,mp-2218336
K3Ta3Si2O13,2.9687,-3.154895519940477,mp-16855
RbErP2O7,5.0563,-3.1548688499350632,mp-1196892
Ta3O8,0.0,-3.154825579045454,mp-727194
KNa3Al4(SiO4)4,4.5058,-3.154789041299568,mp-559901
Rb2AlInF6,4.202100000000001,-3.154693985166666,mp-1113775
Sr2LaBeO5,0.0,-3.154625205555556,mp-1208818
CaEu2O3,0.0,-3.154596212500001,mp-756244
SrEuZr4O12,0.0,-3.154589640277779,mp-1516719
MgAlPO5,5.128,-3.154525512142857,mp-6596
K2YAgF6,2.6382,-3.154359353616666,mp-1110847
NaTa2Si2PO12,3.853,-3.154344903834565,mp-2713211
KNdZrNbO6,0.0,-3.154256782475001,mp-1517399
Pr2Ta3(SeO4)2,1.0019,-3.154219587834723,mp-6105
La3RuO7,0.0,-3.154186080454543,mp-3222
Cs2AlInF6,4.5643,-3.154129284048613,mp-1112586
Ca2PrBeO5,0.0,-3.153950414351851,mp-1214104
Na5Nd4Si4O17,0.054999999999999,-3.153908374729885,mp-1193130
NaUBO5,1.9304,-3.153883217568246,mp-557744
Y2MoO6,1.9796,-3.153788929999999,mp-31124
Na2Ta2(SiO4)3,3.9263999999999992,-3.15372629240835,mp-2714429
Ti6H2O13,2.8867000000000003,-3.153554724642858,mp-1191976
EuYO2,0.0,-3.153478651250002,mp-769167
Eu5B3ClO9,0.2876,-3.153474207361113,mp-1202692
KCa2Nb3O10,2.1761,-3.153392547484374,mp-557195
NaSrCeNbO6,2.1442,-3.15337605413793,mp-1517509
Ti3PbO7,1.9829,-3.153193498181819,mp-504427
Na4Sc2Si4O13,4.8179,-3.153178995022489,mp-555825
Cs2YCuF6,1.4267,-3.15294846552083,mp-1110977
CsSr2Nb3O10,1.4423,-3.152925964353448,mp-22264
Na14Hf8Si11SO48,4.181599999999999,-3.152837232400127,mp-2714502
Y(BO2)3,5.446999999999999,-3.152807728749999,mp-754903
Ca33In4P28Pb3O112,4.0615,-3.152482119759258,mp-1229316
LiLa4AuO8,1.6583,-3.152200023809523,mp-560605
LiHo2O3,0.0,-3.152198239722219,mp-1235976
Ba3Si2(B3O8)2,5.4031,-3.15190176574074,mp-1019526
Na3Ta4Si5PO24,3.7841,-3.151859661750833,mp-2714349
Li5Ti8O16,0.0,-3.151682846666666,mp-758044
BaNaY(BO3)2,3.335,-3.151498996337513,mp-1182342
Ba3Ta6Si4O23,0.0,-3.151371994694444,mp-559929
NaNb(OF)2,3.1273,-3.151360197313218,mp-555305
NaHf4P5SO24,4.2665,-3.151185453012199,mp-2716217
Rb2ScCuF6,1.479,-3.151056795999999,mp-1113796
Na9Ti20O40,0.0,-3.151029609406962,mp-761078
Ba3(BO3)2,4.4465,-3.150879008484848,mp-755417
SrCaHfSnO6,3.6634,-3.150870847499999,mp-1519132
Sr2UCdO6,1.964299999999999,-3.150806093499999,mp-1188876
Ba5B4O11,3.7594,-3.150799803208333,mp-3974
Li7Ti12O24,0.0,-3.150760669147287,mp-38468
Na3Zr4SiP5O24,4.2254,-3.150574781189701,mp-2712916
Mg2Ta2TiO8,0.037199999999999,-3.150392669846153,mp-1045930
Na4CaTa4TiO15,2.0898,-3.150301182227357,mp-720689
Ba5Nb2O10,2.368,-3.150172921176471,mp-758845
K3LiMg4(Si2O5)6,4.77,-3.150132958201667,mp-694935
Al3Pb5F19,5.1871,-3.150128730462936,mp-541732
PrNb5O14,2.0949,-3.150024095833332,mp-28707
Li4Zr3O8,3.784,-3.150020290888889,mp-765573
LiCa2Nb3O10,2.1782,-3.149551102552083,mp-766983
NaScTl2F6,4.5213,-3.149326909304599,mp-1205541
SrSmTi4O12,0.0,-3.149047070462963,mp-1522156
BaSrNb4O12,1.336,-3.148834860555556,mp-1519357
RbHoP2O7,4.9733,-3.148679183116881,mp-1209471
EuZr4SnO12,0.0,-3.148450718888888,mp-1518658
K2La2B2O7,4.2792,-3.1484122946410262,mp-1019777
RbSr2Nb3O10,1.4661,-3.14837259234375,mp-22720
MgSnF4,3.891499999999999,-3.148287700833332,mp-1411922
MgBiF5,4.579,-3.1480353039285722,mp-1323594
K3Y3(BO3)4,4.3171,-3.147924460268939,mp-642313
Y2(OF)3,1.1258,-3.14789798,mp-1216131
CaLa2B10O19,4.3132,-3.147361248020832,mp-560622
Sr2GdBeO5,0.0,-3.147357455000001,mp-1208913
NaCeZrNbO6,0.0,-3.14735298613793,mp-1521009
NaAlSiO4,4.7132000000000005,-3.14732338966133,mp-560334
MgTi2(PO5)2,3.1637,-3.147307040063492,mp-561065
UAl4B3O14,0.367999999999999,-3.14721707306818,mp-1202393
Na4HfZr(SiO4)3,4.1652000000000005,-3.147182888199234,mp-2716347
Cs2CeAgF6,0.0,-3.1471493390977012,mp-1113538
NaDy3Ti2(SbO7)2,2.5904,-3.147096488092998,mp-40478
Ba5Si(Cl3O2)2,4.6525,-3.147026776562501,mp-555087
K2ScCuF6,1.2408,-3.147014890949999,mp-1112245
Na4Al3Si9ClO24,4.5204,-3.146950736232127,mp-676431
Na2ZrSi2O7,4.5653,-3.146840108563217,mp-558191
BaIF,4.0263,-3.146598396666661,mp-22951
Sc16O15,0.0,-3.146574829516129,mp-759946
K2SrTa2O7,2.0748,-3.146543844513889,mp-7148
Ca4Si3O11,0.6341999999999991,-3.146532734999998,mp-1202749
KErP2O7,4.9409,-3.146333719003246,mp-1211811
KNaLaTaO5,3.715099999999999,-3.146247313440294,mp-861868
Ba2ZnSi2O7,4.0027,-3.146197094999999,mp-558629
NaCa4(BO3)3,4.0868,-3.146121006698783,mp-554240
CaSmTi4O12,0.0,-3.14606119212963,mp-1523037
NaDyO2,4.0314,-3.146016700761492,mp-752672
CaY3(PO4)3,0.0,-3.145972840206766,mp-1233576
CaHfTiSnO6,2.3192,-3.145945214833333,mp-1522722
PrTi2ZnO6,0.0,-3.145793748333334,mp-1044485
K2Be2(Si2O5)3,4.83,-3.145793632580015,mp-561549
Mg2TaTiO6,0.0,-3.145781374566667,mp-1369747
Na3Zr2Si2PO12,4.5392,-3.1456763299390382,mp-532695
SrTbO3,0.0,-3.145615410333333,mp-21898
K15Nd7Zr9(PO4)24,4.2042,-3.145461721408467,mp-686607
SrSm(ClF)2,0.0,-3.145461504722225,mp-1217969
Na2Y2B2O7,4.4190000000000005,-3.1453338904686112,mp-6331
RbPrNb2O7,1.3752,-3.14527639810606,mp-1190185
Nd2TiCuO6,0.0,-3.145141845833333,mp-1220432
Na3Zr2Ta2Si3(PO8)3,3.8162,-3.144932310704501,mp-2712834
Ta4PbO11,3.2066,-3.144907519020831,mp-1194594
Nd4Re2O11,0.4487,-3.144739127352939,mp-13758
Gd3OsO7,0.1301,-3.144721616022726,mp-567291
Rb2YCuF6,0.9337999999999992,-3.144641709499999,mp-1110658
RbDyP2O7,4.9848,-3.144552660313851,mp-1209529
TaNbO5,2.4952,-3.144502231404761,mp-756127
NpTiO3,0.0,-3.144405459416667,mp-977152
Ca4NbGaO8,3.282599999999999,-3.144404365178571,mp-1204714
K2NaCa2TiSi7O20,0.328,-3.144404161794323,mp-1202945
Cs2PrAgF6,3.2577,-3.144332087264368,mp-1113230
TiZnF5,0.1756,-3.1443095390476192,mp-1412039
CsTbP2O7,5.1362,-3.144256431646141,mp-1213302
Sr2SmBeO5,0.0,-3.144075671944444,mp-1208778
Pr2Nb11O30,0.0,-3.143996733565892,mp-557497
Gd4As2O9,2.243999999999999,-3.143852511333333,mp-1178271
TaBO4,3.4514,-3.143846406916657,mp-4624
KNa7Al8(SiO4)8,4.3764,-3.143718871373306,mp-1223470
KUClO3,1.758299999999999,-3.143716590374997,mp-1095429
EuNbO3,0.0,-3.143563456000004,mp-1078341
K2Nd4MgNb2O12,0.0914,-3.143558486642856,mp-1233026
LiTi(Si2O5)2,0.391899999999999,-3.143555529479166,mp-757716
Ba2MgCuSb2F14,1.076099999999999,-3.14349442925,mp-1045695
Zr6Ag7F31,2.9066,-3.143432856022727,mp-29934
LaB2ClO4,4.1541000000000015,-3.143332195416666,mp-559417
BaCaHfSnO6,3.618199999999999,-3.1432076715,mp-1520046
Li2UO4,2.0439,-3.143191401309523,mp-9607
NdYO2,0.0,-3.143132111875,mp-1101447
Na4Ti7O16,2.4322,-3.14308654217965,mp-760863
Na7Hf3Nb(SiO4)6,2.712,-3.1430220509672,mp-2712835
Y3Mg(PO4)3,1.3281,-3.142876635206766,mp-1233278
Eu2B2O5,0.0819,-3.142628444814783,mp-1212596
KTiO2F,0.8895000000000001,-3.142258649116666,mp-1223210
Na3Sr2Ti3(Si2O9)2,0.0909,-3.142219466471264,mp-1210298
K2Ti(SiO3)3,3.3817999999999993,-3.142049877188889,mp-556719
BaTeF6,4.851800000000001,-3.141994517083333,mp-556778
SrCaO2,3.32,-3.141961539999999,mp-1017988
Nd3Ta(ClO2)3,0.0,-3.141946144602564,mp-1209877
Li2Al2SiO6,4.6259000000000015,-3.141805308787879,mp-1222720
RbNdNb2O7,1.283599999999999,-3.141732758181817,mp-1205498
Rb2TbGa(SiO3)4,4.1811,-3.141671946583334,mp-558318
Er2TiCuO6,0.0,-3.141656281333333,mp-1225752
Ba2B2O5,4.2362,-3.141567448148147,mp-771158
Ca3Ga2(SiO4)3,4.4117999999999995,-3.141489018875,mp-14050
Na3TmTi2Nb2O12,2.1266,-3.14146571429023,mp-1173701
PrYO2,0.0,-3.141396790416667,mp-753298
Ba6Na2Nb2P2O17,3.0126,-3.141313740587736,mp-556637
Al2Cd(Si5O12)2,2.3959,-3.141233772162162,mp-686541
CaNdTi4O12,0.0,-3.141031143935185,mp-1516799
Eu2HfSnO6,0.2862,-3.141001103500001,mp-1517993
LiBF4,8.246,-3.140991253194444,mp-12403
Na3SrTa4O12,0.0,-3.140773404173553,mp-1221219
Ba3Lu(BO2)9,5.266500000000001,-3.140676443198924,mp-561253
Sr4Li(BO3)3,4.1806,-3.140659022990197,mp-554003
Na2Zr2Si(PO6)2,4.215299999999999,-3.140645247476017,mp-2712624
K2PrZr(PO4)3,4.4282,-3.140609015662908,mp-556867
MgTi2(SiO4)2,0.2338,-3.140570073205128,mp-2219468
LaTi2TlO6,0.237,-3.1405498425,mp-1222718
Sr7Mg8(P4O15)3,5.1094,-3.14046173063492,mp-1218826
K2Zr2O5,3.8226,-3.140452207722222,mp-27522
CaEu4O5,0.0,-3.140408546500002,mp-1178520
EuErO3,0.0,-3.140364764000001,mp-1183905
Na3ErTi2Nb2O12,2.0863,-3.14034659404023,mp-1173711
NaTa7O19,0.0,-3.140332459544913,mp-727520
Gd2P4O13,3.3033,-3.140331095977445,mp-772787
KHfPdF7,0.0,-3.140325744225001,mp-17429
Ba6Li2Si4ClO15,0.0,-3.14026099327381,mp-1198788
Na2HfSc(PO4)3,4.8286999999999995,-3.140208376580027,mp-2713637
NaZr3Ta(PO4)6,3.5942,-3.139988199901994,mp-2713728
Ba3P3ClO10,5.1465,-3.139954786113445,mp-1194911
Mg3Ti2(Si2O7)2,0.056,-3.139905829420289,mp-1250045
K2CaNd4Nb2O12,0.0,-3.139746991642856,mp-1233969
GdSiO4,0.0,-3.139723621666666,mp-1224635
CsB3PbF12,6.377800000000001,-3.139649260420892,mp-1004528
BaNd2ZnO5,2.8032999999999992,-3.139614177222223,mp-6468
RbTbP2O7,4.9608,-3.139545298722943,mp-1209260
EuAl3(BO3)4,0.0,-3.139404160583333,mp-1019731
SrPuO4,0.0,-3.139326443124989,mp-8146
Ba2ZrSnO6,3.6894,-3.1393160845,mp-1228067
Na3DyTi2Nb2O12,2.5852,-3.138795482623563,mp-689927
Na3TbTi2Nb2O12,2.5137,-3.138747965873563,mp-1173706
Ca3Lu2(GeO4)3,3.2916,-3.138622118791666,mp-1214423
Sr3Li4La5O12,0.0,-3.138616057013889,mp-756936
NaBF4,7.846299999999999,-3.138607858749999,mp-3521
CaZrGeO5,3.678,-3.138478141875,mp-644295
NaPrZrNbO6,0.0,-3.138438782304598,mp-1518785
Ba3Tm(BO2)9,5.2609,-3.13842977717742,mp-1214609
Al10Ge2O19,2.2265,-3.138372869193547,mp-28499
KErO2,3.9606,-3.138044281812497,mp-7959
Na3HoTi2Nb2O12,2.646599999999999,-3.138026117290229,mp-676988
GdThO3,0.0,-3.137951190999999,mp-1184491
MgSbF5,4.3034,-3.1379392525,mp-1373332
Cs2NdAgF6,3.308599999999999,-3.137904715750005,mp-1113229
Ba2LiUO6,0.0,-3.137867112833333,mp-1214701
Na5ZrTa3(SiO4)6,3.8009,-3.137853500399058,mp-2713527
BaNaTiNbO6,1.565099999999999,-3.137727508471265,mp-1227835
Ti10O13,0.0,-3.137637334710146,mp-753593
Gd3SbO3,0.249299999999999,-3.137536690000002,mp-1104777
Cs2MgSi5O12,4.9135,-3.137505602403017,mp-1019610
CsYP2O7,5.1175,-3.137389639221898,mp-541412
YBi(OF)2,2.1794,-3.1373429183333332,mp-1215909
Na5Ti12O24,0.0,-3.137328516753574,mp-760372
Rb2Hf2O5,1.9412,-3.137224715555555,mp-863749
Li3La14(CuO7)4,0.412999999999999,-3.137072320204081,mp-774918
Rb2Be3Cd2F12,5.3334,-3.136935197894735,mp-13614
NaTi2O4,0.0,-3.136928827577995,mp-29356
Sr2LiNb3O10,1.7653,-3.136871192083334,mp-756854
BaNdTi4O12,0.0,-3.136823985601852,mp-1518631
K2NaCa2TiSi7HO20,3.4517,-3.136823860013608,mp-720410
Na2YHf(PO4)3,4.8113,-3.13676870763266,mp-2713310
SrBe2(PO4)2,5.9252,-3.1366030735989,mp-1020606
Rb2YGa(SiO3)4,4.169399999999999,-3.136539828249999,mp-555230
KMg3AlSi3O11F,0.0018,-3.1364184021125,mp-1223599
Ba2Si3GeO10,4.1604,-3.136317816250001,mp-1228564
Ba3Er(BO2)9,5.217700000000001,-3.13621475298387,mp-1214718
Na3Hf3Al(PO4)6,4.738199999999999,-3.1360046484323,mp-2714868
LaNb7O19,2.0872,-3.135780563148148,mp-28200
NaTa4Si3(PO8)3,3.3015,-3.13577267641832,mp-2714161
Na10Hf4Ta4Si11SO48,3.5717,-3.135667806589228,mp-2716531
Cs3U2PO10,2.150299999999999,-3.135529211475521,mp-1201643
PaInO4,2.1708,-3.13543720194445,mp-1173345
Ti(Si2O5)2,2.401,-3.135141733722222,mp-1043406
Rb2Ti(SiO3)3,3.1316,-3.135008044222223,mp-17037
La3Re(ClO2)3,0.628,-3.134976180576923,mp-1211321
Nd4Se3O4,1.323299999999999,-3.134966523366476,mp-553278
K2AlInF6,3.8745,-3.1348810211166662,mp-1112188
Sm3OsO7,0.0,-3.134779229090907,mp-5447
Na11Zr8Si7P5O48,4.0624,-3.134642928840337,mp-1266342
KCeZr4O12,0.0,-3.134472950402778,mp-1519492
Er2CuO4,0.0,-3.134255980714284,mp-753901
KYbO2,0.0,-3.134193986562499,mp-755010
Ba3Ho(BO2)9,5.1913,-3.134128659435484,mp-1214639
LiTi(SiO3)2,0.0,-3.134037300666667,mp-11206
U2AuF11,0.0,-3.133972604285662,mp-561123
Na3SmTi2Nb2O12,2.460199999999999,-3.13359011129023,mp-1173732
RbYP2O7,5.1682,-3.133555994253246,mp-17897
SrHf4SnO12,0.0,-3.133446910277777,mp-1522741
Na3YZr3(PO4)6,4.0091,-3.133413376180048,mp-2714763
Ca2Y2Si4CO16,0.1594,-3.133364846899999,mp-1197862
Zr4N2O5,2.277,-3.133308358181817,mp-758272
Na4SrU3O12,2.0816,-3.133244290775862,mp-1210252
NaZr2Ta2SiP5O24,3.3841,-3.133173743978866,mp-2715704
CaTi2PbO6,2.2307,-3.132996232666667,mp-1228014
Na2Sm2B2O7,4.5183,-3.132956400853226,mp-1210364
LiSmEu2O4,0.1092,-3.132938409166668,mp-1201372
NaZrTaSi(PO6)2,3.326,-3.132927823407316,mp-2715568
Ti5(PO5)4,2.9311000000000003,-3.132662160525444,mp-559530
CaAlB3O7,5.376600000000001,-3.132661587708333,mp-556532
Ba3Dy(BO2)9,5.1786,-3.1326509764247312,mp-1214634
BaLu2CuO5,0.0,-3.1326184892592592,mp-505268
Na5Y2Hf2SiP5O24,4.337899999999999,-3.132581540002842,mp-2714204
HfNpO3,0.0,-3.132554204750001,mp-1184669
Rb3La3(BO3)4,3.8383,-3.132473333825757,mp-1209773
Na5Zr4Si3(PO8)3,4.1725,-3.132339601303208,mp-686583
Nd2(OF)3,0.7722,-3.132231036875,mp-1220291
LaCO3F,3.9263,-3.132186842222221,mp-638731
Ba4Nb3O12,0.0,-3.132123945263158,mp-774719
SrEuZrGeO6,0.7382999999999991,-3.132023687999999,mp-1518560
Rb2GdGa(SiO3)4,3.3463,-3.131916617875,mp-555485
Na5Hf2Sc2SiP5O24,4.2822,-3.131840722225064,mp-2714300
Al11O18,0.0,-3.131654437241379,mp-1229215
Na13Zr8Si9(PO16)3,4.415,-3.1315879434797482,mp-695515
Cs2YHgF6,0.0,-3.131471416181035,mp-1112607
BaSmTi4O12,0.0,-3.13146275712963,mp-1517119
Ba3Tb(BO2)9,5.161799999999999,-3.131123218521505,mp-1214548
Ca3Al4SiO12,0.0,-3.1311205,mp-1227806
Ca2Y2Si4H2CO16,5.429,-3.13110144824074,mp-720719
Rb2Ta15O32,0.0,-3.131064363163265,mp-28531
Na2Gd2B2O7,3.061,-3.130948937199381,mp-583646
Li8La4TiNb7O28,0.0,-3.130875999583333,mp-782001
Rb2NdAgF6,2.848,-3.130812890416666,mp-1110789
CsBa2Nb3O10,1.4077,-3.130751393103448,mp-505814
CaTi4O6,0.0,-3.130551191666667,mp-1046693
Nd3Ta(Cl3O2)2,3.5751,-3.130473386773809,mp-1209886
Gd3RuO7,0.1389,-3.130438856363636,mp-17237
K2Ta15O32,0.0,-3.130297347234694,mp-28530
Na2Ca2Ta3O10,0.0,-3.130192515574036,mp-20135
Sr3BeB6O13,5.0139,-3.130190325217392,mp-1020637
K2LuSi4O11,0.5249,-3.130142175759259,mp-734012
KScTl2F6,4.6231,-3.130082330891667,mp-1205684
BaBe2(PO4)2,5.1229,-3.129981198406593,mp-1227988
BaZnBiF7,5.1844,-3.1298456655,mp-1041314
Zr4N3OF5,2.3129,-3.129757613461538,mp-1207474
Sr2NdBeO5,0.0,-3.129707903055554,mp-1208779
LiLa7(CuO7)2,0.028899999999999,-3.129668005868056,mp-775959
NaLuP2O7,5.377800000000001,-3.129575432484698,mp-561535
Na2NbF6,0.296099999999999,-3.129514152777778,mp-9753
Na2La2MgTi3O10,0.0,-3.129273707097701,mp-2228932
BaLaTaZnO6,2.237699999999999,-3.129271671233333,mp-42054
LuSeF,1.907699999999999,-3.129201219502315,mp-1210620
CePrO2,0.0,-3.129183055416666,mp-1178453
BaEuZr4O12,0.0,-3.129088865277777,mp-1520926
LaTaO3,0.0,-3.129005053466667,mp-1239192
Ba3Y(BO2)9,5.187699999999999,-3.128973427822581,mp-559066
NaHfTi(PO4)3,2.4515,-3.128781798257846,mp-2713844
Na7Zr4Si5PO24,4.4483,-3.128607387665805,mp-677042
Ca(BO2)2,6.2272,-3.128601376547618,mp-8056
K4CaU(Si2O7)2,2.0738,-3.128585341624999,mp-1195727
Ba2LuSbO6,3.2383,-3.128525771666667,mp-1078185
Na3GdTi2Nb2O12,2.0309,-3.12852022129023,mp-1173782
Na3NdTi2Nb2O12,2.5085,-3.12847544816523,mp-1173718
Li2Ti2O5,3.7999,-3.128375366481481,mp-756294
Tb5(RuO6)2,0.0,-3.128271257017484,mp-677244
BaSrZrSnO6,3.9199,-3.1282320495000002,mp-1516294
LiNdO2,3.655,-3.1282301508333332,mp-1222355
Ho2TiCuO6,0.0,-3.128205833333331,mp-1224098
Rb2MgSi5O12,4.7822,-3.128192425124999,mp-1020860
Na2Al2Si3O10,4.4513,-3.128102243397567,mp-1020141
CaEu2BeO5,0.0,-3.128085320833334,mp-1227637
YbScO2,0.0,-3.128044478125002,mp-769119
Zr2AgPdF11,0.165,-3.127832708444444,mp-14651
Na3LiMg4(Si2O5)6,4.348699999999999,-3.127814670649425,mp-1221336
NaCa2ScZn2(SiO3)6,4.494099999999999,-3.127718875045978,mp-534778
Ba3U2(PO5)4,0.0597,-3.127713438399014,mp-726684
ErO,0.0,-3.127546397499999,mp-1184211
NaHo4Ge2O11,0.6633,-3.127543894382182,mp-867968