formula,bg,formation_energy,mp-id
Sr3LiTaO6,3.790999999999999,-3.207133913242424,mp-1190486
BaScO3,0.0,-3.207111031999999,mp-1183289
Y2ReO5,0.9651,-3.2070701975,mp-779456
NaNdHfNbO6,0.0,-3.207034072887931,mp-1522126
Ce2SiTeO4,0.0,-3.206987204583332,mp-542663
BaCaB2O5,4.4673,-3.206978065092593,mp-1019542
BaCdGaF7,4.4668,-3.20683579925,mp-621924
Ba4LiNb3O12,2.579799999999999,-3.206630116416666,mp-18274
LaNb2ClO6,2.5637,-3.20632168175,mp-554475
Sr2HfSnO6,3.7826999999999993,-3.206213897499999,mp-1520511
Eu3Si2BO10,0.0,-3.205948754869792,mp-1196416
Nd2NbInO7,2.680399999999999,-3.205902934242423,mp-1220555
Ba2Ti2O5,0.0,-3.205819072407408,mp-1076521
BaNa5Ca7P6(O8F)3,5.0573,-3.20575406412508,mp-693753
Ba8Nb7O24,0.0,-3.205701243333334,mp-780569
KSrNb2O6F,1.7845,-3.205688335659091,mp-579086
MgUB2O7,2.191099999999999,-3.205660014621211,mp-557384
CsTiZnOF5,3.1519,-3.205446717554279,mp-676448
LiGd6In2O12,0.0,-3.205412482222223,mp-1235435
Sr6Ta2O11,2.399899999999999,-3.205377071298245,mp-676378
NaLiTi3O7,2.781399999999999,-3.205351060601053,mp-555420
NaTa3O8,2.68,-3.205221514448276,mp-14532
CsYbF3,7.0604,-3.205172131,mp-8398
Li2Ti6PbO14,2.632399999999999,-3.205108132572463,mp-558619
Ba3Nb5O15,0.0,-3.205003528913044,mp-8846
NaHf3Ta(PO4)6,3.5646999999999993,-3.204908886663898,mp-2713916
Na3Ti8O16,0.0,-3.204743441511281,mp-1221222
RbLaNb2O7,1.7695,-3.204687685681818,mp-553965
Sm2ReO5,0.815299999999999,-3.2046630365625,mp-17741
CaSc4(Si2O7)2,0.498499999999999,-3.204661984782607,mp-1233919
K2Ca3Si3O10,4.1123,-3.204538754416666,mp-1019747
Ca2TiSi2SnO10,3.0821,-3.204366553020833,mp-1227786
Li3Y14Ti14(S2O5)7,0.0,-3.204359322583333,mp-774474
NaHfZr(PO4)3,4.3043,-3.204340966776364,mp-2713401
LaO,0.0,-3.204329645000001,mp-1206710
K2La4O7,2.7176,-3.204313267653845,mp-1120766
LaTa2NO5,2.5171,-3.204079402740742,mp-776407
K2YHf(PO4)3,4.7808,-3.204067813404136,mp-532704
K2Al2O3F2,4.0223,-3.204007266055555,mp-974451
K2Na2Gd4Nb2O13,3.0952,-3.203478996837332,mp-680381
ZrTlCdF7,4.9716000000000005,-3.203427413833334,mp-561423
TmGaO3,2.9311000000000003,-3.20338826316667,mp-768469
Li4Ti5O12,2.7202,-3.203121053333332,mp-685194
Cs3UF6,0.0,-3.203069021896552,mp-1205746
Eu3NbO7,0.0,-3.203014244545456,mp-510674
KTi2H2F11,4.4376,-3.203006429151042,mp-1203037
Sr22Nb10O47,2.361899999999999,-3.202888136139239,mp-677636
Pr5As2ClO10,3.2745,-3.20288766462963,mp-1105528
PaBeO3,0.0,-3.202705433999999,mp-1186392
TaPbF7,5.132499999999999,-3.202671064703701,mp-557163
Rb2U(Si2O5)3,0.569199999999999,-3.20258342,mp-1195621
Tm(BO2)3,5.8407,-3.2024767715625,mp-680717
BaSrHfSnO6,3.7375,-3.2023928925,mp-1520657
K2Na2Sm4Nb2O13,3.762,-3.202274927924288,mp-1200960
Ca3Al4Si8(ClO12)2,3.6088,-3.201704504634147,mp-677067
La2Ta3(SeO4)2,0.893799999999999,-3.201528155279167,mp-1211581
NaSmHf4O12,0.0,-3.201275946465516,mp-1519351
K2Ta4O11,3.3655,-3.200980261990259,mp-1195471
Cs2AlTlF6,5.6085,-3.200818633264369,mp-1111952
BaGd2ZnO5,2.6449,-3.200785198888888,mp-15904
Cs2CaAl4(SiO4)4,2.8994,-3.200582824665815,mp-1250398
Lu(BO2)3,5.9262999999999995,-3.200094161791666,mp-680724
Er(BO2)3,5.7486000000000015,-3.200022728999999,mp-680718
Cs2ScAgF6,3.651099999999999,-3.200004091597701,mp-1113115
Ba3CaCuSi6O17,1.1382,-3.199971707321429,mp-1214671
KZrCuF7,0.3759,-3.199783751225,mp-554117
ErO2,0.0,-3.199738946666665,mp-1206338
Er2MoO6,1.8785,-3.199730765555552,mp-31122
Rb2Al2Si3O10,4.6713000000000005,-3.199159940294118,mp-975622
EuHfZrSnO6,0.0,-3.199007758000001,mp-1518972
Ca3Si2SnO9,3.5852,-3.198871262,mp-15095
Pr3Nb(ClO2)3,0.0,-3.198844389615384,mp-1209779
SrNp(PO4)2,0.031499999999999,-3.198804514627975,mp-1200095
Na7Ca3Ta7Ti3O30,2.3227,-3.19876883161977,mp-695426
MgZr4(PO4)6,4.292,-3.198733590367347,mp-1222466
Sr2ScGaO5,2.765899999999999,-3.198679545277778,mp-1105158
KPrHf4O12,0.0,-3.198437591606481,mp-1522348
Cs2U(SiO4)2,2.2088,-3.198274611966179,mp-581584
La2SO6,4.688,-3.198148707500002,mp-4078
KNdHf4O12,0.0,-3.198105811374999,mp-1522437
Li3NbOF6,4.9604,-3.198078310681818,mp-769384
BaSi2(BO4)2,5.5233,-3.198053383333333,mp-555387
GdYO2,0.0,-3.1979247650000002,mp-754480
Dy(BO2)3,5.636699999999999,-3.197834694666666,mp-3261
Ba6Nb14Si4O47,0.0,-3.197763532253522,mp-560469
Be2TlF5,0.0,-3.197747547916668,mp-27187
Ba2Sb2F11,0.2933,-3.197717682555556,mp-1044608
BaCaCuF7,1.1322,-3.19770176125,mp-1044511
Ho(BO2)3,5.693099999999999,-3.197634458124999,mp-680713
Al5HO8,0.0306,-3.197593442946428,mp-626161
Ba3Na2Ti3Nb2O15,1.6432000000000002,-3.197571767510345,mp-40873
EuTiClO3,0.0,-3.197513430555556,mp-555860
Tb(BO2)3,5.582699999999999,-3.197270996666665,mp-683867
Ba9LiSi10C(ClO4)7,4.928,-3.197171184255952,mp-559419
PrSiO4,0.0,-3.197090425277776,mp-756013
MgTi2(SiO3)4,0.093899999999999,-3.196991804824562,mp-2230845
Na7U5(SiO6)4,0.101399999999999,-3.196519813491377,mp-1199161
CaEr15Si8Se11ClO28,2.575299999999999,-3.19648922055908,mp-720985
NaSr3CeP3O13,0.1657,-3.196457529300375,mp-1200716
BaCaEuNbO6,0.0,-3.19641509825,mp-1518007
NaNdHf4O12,0.0,-3.196405381048851,mp-1516679
Gd2ReO5,0.0,-3.196348361562499,mp-15922
KSmHf4O12,0.0,-3.196068626791666,mp-1518407
Cs2Ti(Si2O5)3,3.5085,-3.19604436552682,mp-6748
K9Y3Si12(O16F)2,4.995,-3.195879981124999,mp-1198649
NaEuZrTiO6,0.0,-3.195847522971264,mp-1517534
Sr2UZnO6,1.8031,-3.195823640999999,mp-554059
HoTi2ZnO6,0.0,-3.195797315666667,mp-1049276
YSeF,2.4302,-3.1956188755208332,mp-1187888
HfP2O7,5.5167,-3.195483319178573,mp-768745
ScBrO,3.236,-3.195286243333331,mp-546279
U3CuO10,0.3074,-3.195235199285712,mp-615420
Ba2YC2(O2F)3,5.2748,-3.195229471071428,mp-8985
Sm2Ta3(SO4)2,0.0,-3.195112352466667,mp-1219245
CsLaNb2O7,1.441399999999999,-3.194785346332288,mp-553248
Na3Hf2Zr2SiP5O24,4.2087,-3.194776364252763,mp-2713063
Rb2ScAgF6,3.2846,-3.194765403166666,mp-1110600
LiTaSiO5,3.7928,-3.194587247270834,mp-560297
CePr4O10,0.0,-3.19455024111111,mp-1226557
Ba2Ti6N2O11,1.9777,-3.194544857857142,mp-755526
K2U(Si2O5)3,0.016,-3.1945012614375,mp-1195515
Al24Zn3O40,0.0,-3.194382054179105,mp-531864
Na3YHf3(PO4)6,4.8202,-3.194376904107975,mp-2714655
CaSi2(BO4)2,5.6644000000000005,-3.194144759102563,mp-6419
Sr3Nb5O15,0.0,-3.194067421521739,mp-1208795
Ba5P3O13,0.209099999999999,-3.193997778996599,mp-1204451
Na7Hf4Si5PO24,4.3705,-3.193881032381253,mp-2714403
Li3Ta12O31,0.0,-3.193828621586956,mp-1222700
Na2ZrSi4O11,4.5794999999999995,-3.193821267375477,mp-6824
RbNaMg5(Si2O5)6,4.792400000000001,-3.193766454875089,mp-1173467
BaTmO3,0.0,-3.193704981000002,mp-1183394
K5Li2EuF10,0.1326,-3.193684272106482,mp-1203051
Rb2Ti(Si2O5)3,3.5096,-3.193642910138891,mp-18582
SrHfTiSnO6,2.2211,-3.193491268833334,mp-1520298
Rb3UF6,0.0,-3.1932046972499992,mp-1205621
BaF3,0.7896000000000001,-3.19318655375,mp-1080821
ErAlGeO5,3.7548,-3.193068186875,mp-1213112
La2TiCuO6,0.0,-3.193007655333333,mp-1223189
ZrB2O5,3.7962,-3.1929747007291662,mp-559571
TbCl2F,4.8614,-3.19292187375,mp-560119
Ba2Sr3Nb10O30,2.2048,-3.192735269333333,mp-1228768
Ca8Be5Al3Si18(HO14)4,0.4,-3.192705398191489,mp-1227798
Yb2Al2O5,2.1192,-3.192617111527778,mp-1187886
Li2Ca2Si2O7,4.7409,-3.192593183846154,mp-1020009
NaPrHf4O12,0.0,-3.192577119058109,mp-1518846
Ba9Nb10O30,0.0,-3.192552002653063,mp-33581
Gd6MgIn2O12,1.3417,-3.192455549920635,mp-1233377
SrLiNb2O6F,1.7655999999999992,-3.191955537121212,mp-753719
Sc6N2O5,0.0,-3.191871448846153,mp-755813
La2Si(IO2)2,3.264599999999999,-3.191667626527779,mp-1203654
LaMg2TaO6,2.6145,-3.191579540733333,mp-1223254
LaTiAlPbO6,1.8555,-3.191545713833334,mp-686726
Cs2NbF6,0.247799999999999,-3.191472776666665,mp-8995
La(BO2)3,4.5432000000000015,-3.191427007250001,mp-4658
NaYbO2,0.0,-3.191410233124999,mp-752924
YbPrO2,0.0,-3.191404323541665,mp-1101163
Ca6Si3H2O13,4.7197,-3.1913246046875,mp-554539
EuYAl6(BO3)8,0.0,-3.191239635458333,mp-1225326
Li5Ta12O32,0.0,-3.191225058870748,mp-1177079
Ba5Gd8Zn4O21,2.7487999999999992,-3.190955525131579,mp-16538
Sr14Nb19O57,0.0,-3.1909499025,mp-1173426
LiY4Ti4(S2O5)2,0.0,-3.190923624637682,mp-756557
RbTiZnOF5,3.1708,-3.190915187314814,mp-41837
LaTb2RuO7,0.0,-3.190906396666651,mp-1190489
Rb2AlTlF6,5.3013,-3.190875712833334,mp-1113654
KLaNb2O7,1.4938999999999991,-3.190779286113636,mp-1223501
NaScO2,3.979999999999999,-3.190776871594827,mp-7914
Y2MgNb2O8,0.269499999999999,-3.190663020384614,mp-2242160
K2Al2Si3O10,4.3747,-3.190578273205883,mp-1019744
BaNp(PO4)2,0.0,-3.190482628586309,mp-1191675
BaTi(PO4)2,2.592399999999999,-3.190398111051586,mp-1214296
BaLa2ZnO5,2.923999999999999,-3.190330179444444,mp-6793
Na3Hf3Sc(PO4)6,4.6939,-3.190323927486353,mp-2716438
Ca2SiCl2O3,5.1049,-3.190218975,mp-556364
Si16O32F,0.1894,-3.189843517755102,mp-1219433
Eu2Al3O8,0.2191,-3.1897769542307692,mp-1212582
KZr2(PO4)3,4.2822,-3.18968664089881,mp-540577
RbNa2AlF6,4.8591,-3.189408286025862,mp-1110627
Ba2GdC2(O2F)3,0.402599999999999,-3.189398846071429,mp-8986
SrZr2SnO6,2.360499999999999,-3.1892598055,mp-1519544
KNaMg5(Si2O5)6,4.748,-3.189225208543455,mp-690914
K2Ti(Si2O5)3,3.4389,-3.189101877201389,mp-557301
Ca3Mg3(PO4)4,5.1758,-3.18896666834249,mp-646967
LiF,8.7161,-3.188945303333333,mp-1138
La5Sb4(O4F)3,3.3095,-3.188700376562499,mp-559298
Tb3OsO7,0.0,-3.188683825454544,mp-1191300
EuNbO4,0.0,-3.188677660833333,mp-12646
UNb3O10,0.0,-3.188354872142856,mp-3696
KCaNb2O6F,2.8586,-3.188351695659091,mp-682067
Na4Ti11O24,2.2917,-3.188091248004716,mp-777965
K3UF6,0.0,-3.187829788174999,mp-1206061
KNa2Y(Si2O5)3,4.9016,-3.187745788600344,mp-555155
BaNaCeNbO6,2.016599999999999,-3.187673524887929,mp-1522146
K9Gd3Si12(O16F)2,3.7656,-3.187452364918101,mp-1211874
Al2Pb3F12,5.266,-3.187346978088234,mp-14941
Pr4B10O21,4.990399999999999,-3.187343080809523,mp-559104
BaSm2ZnO5,3.440299999999999,-3.187293293888888,mp-6452
CaTiPO5,0.088999999999999,-3.187188815997023,mp-1046492
TbO2,0.0,-3.187126932222221,mp-2458
Sr2Ti6N2O11,1.7769,-3.187122484999999,mp-755353
K2LuZr(PO4)3,4.3228,-3.186997959873433,mp-677250
Rb2YAgF6,2.8977,-3.186883124666669,mp-1110786
NaCaNb2O6F,2.9063,-3.186837066034483,mp-42255
Na4Sc3In(SiO3)8,4.5797,-3.186593750429598,mp-1221157
Ba4Al2O7,3.6788,-3.18657933576923,mp-560978
CsAlSiO4,4.466799999999999,-3.186565120307881,mp-1192933
SrScO3,0.0,-3.1865535720000002,mp-1187191
SmEuTi4O12,0.0,-3.18635426962963,mp-1523172
K9Sm3Si12(O16F)2,4.898499999999999,-3.186331584487068,mp-560235
KTi4O8,0.0,-3.186316111570512,mp-1211178
Sm4Si2Se3O7,2.3907,-3.186227192939452,mp-14837
K2ZrSi2O7,4.524699999999999,-3.186144017249999,mp-559489
KCaZrNbO6,2.243,-3.186071456725,mp-1520344
KAlSiO4,4.7001,-3.186058913535714,mp-680374
Pr9Be4O20,0.024299999999999,-3.186015578636364,mp-675648
CaSbF6,0.0,-3.185994047499999,mp-1445082
Ba4TiAl3P4(O5F)4,0.0,-3.185414177830688,mp-1228335
NaErO2,4.0544,-3.185389837219826,mp-5586
ErSeF,2.1822,-3.185331854687499,mp-27123
RbAlSiO4,4.3806,-3.185218679642857,mp-6434
Li7La3Hf2O12,4.3384,-3.185109127534721,mp-1198622
Y4TiSn3O14,2.844099999999999,-3.185061664469696,mp-1216093
Sr2Mg(BO3)2,4.579700000000001,-3.184874278484848,mp-13541
ErGaO3,2.9001,-3.184789955166667,mp-1213088
Na3Hf2Ta2Si3(PO8)3,3.7595,-3.184716888001797,mp-2712969
Na2LiY(Si2O5)3,4.7198,-3.184671181143677,mp-14030
Na2Ta4O11,3.4629,-3.184666606887761,mp-3285
CsNdNb2O7,2.392,-3.184580225650469,mp-554929
Sm2Ge(BO4)2,4.588999999999999,-3.1845003754487182,mp-1203325
Li2Ta4O11,3.4741,-3.184254699470586,mp-772938
AlSnF5,3.7554,-3.184224618392857,mp-1253073
Na4Hf2(SiO4)3,4.179699999999999,-3.184035271373837,mp-2716478
Eu3(BO3)2,0.4588,-3.184027536666667,mp-505346
Na2MgInF7,5.0348,-3.183989851084117,mp-10837
SmYO2,0.0,-3.183925708750001,mp-754502
Sm(BO2)3,5.3818,-3.183688243499999,mp-645338
Sr5Nb5O16,0.0,-3.183638306538462,mp-760083
Na3Ti6O13,0.0,-3.183446090415361,mp-1190392
Ca2LaBeO5,0.0,-3.183271189444445,mp-1214119
Ho3SbO3,0.374699999999999,-3.183069485714282,mp-1104812
K3NdSi7O17,4.721500000000001,-3.182962402205357,mp-559608
LaTi2GaO6,0.0734,-3.182953520916666,mp-1520332
Gd2Mg2O5,0.6021000000000001,-3.182432201666666,mp-1184317
Ta2BeO6,3.4918,-3.182057208851852,mp-772825
CaEuO2,0.0,-3.181973046250001,mp-755389
LiLaNb2O7,1.384999999999999,-3.181968495757575,mp-861268
Ca5(SiO5)2,0.5149,-3.181888625294117,mp-1197843
YCuF5,0.1891,-3.18143590857143,mp-1393470
Sr2ZnSi2O7,3.8987,-3.181093632083333,mp-1191240
LiLaO2,3.72,-3.181068658333333,mp-756544
Li9Ti12NbO30,0.0,-3.181004013461539,mp-767490
MgSc4(Si2O7)2,0.5823,-3.181003545434782,mp-1233228
Na6CaHf7(PO4)12,4.6754,-3.180905331135002,mp-2714863
CsK2TiF6,0.0,-3.18084495174885,mp-1112052
Ca12Be17O29,3.7478,-3.180722960862069,mp-27407
Na2Li5Al7Si29O72,3.2403,-3.180523235473265,mp-694958
SrNbO3,0.0,-3.180447969,mp-10339
KLuO2,3.940399999999999,-3.180326248479166,mp-1178135
K3NaHf2(SiO4)3,4.6992,-3.180259891656951,mp-2716365
Sr2La4Mg2RuO12,0.0,-3.180221284761905,mp-1173268
CsZr2(PO4)3,4.3061,-3.180056237421318,mp-560091
SrTi(PO4)2,2.6126,-3.180023392301587,mp-1191111
BaNa2Nd2Si4CO15,4.8226,-3.179911402910345,mp-559586
Na2HfZrSi(PO6)2,4.3133,-3.179809052826895,mp-2712783
K2LiNd4Nb2O12,0.0,-3.179808578944443,mp-1235034
Nd4Si2Se3O7,2.3918,-3.179634930908202,mp-15016
SrLa7TiGa7O24,2.5077,-3.179631894145834,mp-720505
LiUBO5,2.0538,-3.179332528124998,mp-556156
Sr2LiSc(B2O5)2,4.665100000000001,-3.179018926111111,mp-8796
Ta7InO19,2.0301,-3.179010143444444,mp-772869
Na2Mg5(Si2O5)6,4.6080000000000005,-3.178974496586911,mp-1221511
Ba2MgCuBi2F14,1.309999999999999,-3.17891657375,mp-1361554
Y2SiP4O15,5.7959,-3.17878928788961,mp-1020615
BaNbO3,0.0,-3.178754561000029,mp-3020
NaHfTaSi(PO6)2,3.3579,-3.178671713036947,mp-2715675
Be2BO3F,6.3476,-3.178649017738095,mp-554023
MgTi2(OF2)2,0.0,-3.178589957962963,mp-2217258
Tb3RuO7,0.0,-3.17857323772727,mp-1191047
HoO2,0.0,-3.17857298333333,mp-1206243
CeBeO3,0.809399999999999,-3.178541142,mp-1183685
LiTa6O15,0.0,-3.178500713515151,mp-1222573
Sr5B3BrO9,3.8991,-3.178342676527778,mp-560233
Ca5Al12Si12(AgO24)2,2.2072,-3.178303399789029,mp-677550
Na3LaHf3(PO4)6,4.7579,-3.178214119107976,mp-2714665
LiSmO2,3.733499999999999,-3.178103438958333,mp-7800
Rb2Be3Zn2F12,5.8392,-3.178051642894737,mp-1209690
LiY3(PO4)3,0.0,-3.177944673013784,mp-1235146
KBaY(BO3)2,3.9314,-3.177821095053031,mp-1223458
Na2Er2B2O7,4.35,-3.17771053046861,mp-555104
YTi2CdO6F,1.3491,-3.177678023333333,mp-686765
Na2Ti2Si4O13,3.5136000000000003,-3.177372535686919,mp-1200505
K2Na2Nd4Nb2O13,3.78,-3.177090875750381,mp-1201519
BaNdNb4O12,0.0,-3.176999682083333,mp-1518054
Ce4Si2S3O7,0.0,-3.176806382343748,mp-561726
Ba2YTi3O7,0.0,-3.176756771153845,mp-1047867
Ba2UZnO6,1.786299999999999,-3.176747228999998,mp-1078725
Be2SiO4,5.8262,-3.176623356904762,mp-3347
K2EuSi4O10F,0.098099999999999,-3.176592283305555,mp-1198799
NaHf2Ta2SiP5O24,3.4104,-3.176376495026484,mp-2715642
Sr2TaGaO6,4.0418,-3.176308581483305,mp-12427
Tm2P4O13,5.7551,-3.176265521503759,mp-772232
Ba3B(PO4)3,5.050000000000001,-3.176233078715539,mp-6578
ZrCuF6,0.113399999999999,-3.176136886249999,mp-2619703
Na4Ca4Ti4Si4O22F3,0.0,-3.175924233508551,mp-1210426
NaLa9(Ge3O13)2,3.808,-3.175751434913793,mp-1220900
NaAl(SiO3)2,4.6427,-3.175639370762931,mp-1020661
NaCaScZn(SiO3)4,4.729,-3.175454711568965,mp-684991
Nd(BO2)3,5.289899999999999,-3.1752694566875,mp-645340
Ba2ScTi2BiO9,2.1294,-3.175224510444445,mp-1228409
Gd2Ge(BO4)2,3.183799999999999,-3.175222310833333,mp-1196136
MgAlBO4,6.0077,-3.175152658452381,mp-8376
TiNbO4,0.0,-3.1747575938888892,mp-1216686
Nd2MgNb2O8,1.0297,-3.1747213023076912,mp-2219968
Ca2Al4(Si2O7)3,0.315299999999999,-3.174699068030303,mp-1194616
Gd4Si2Se3O7,1.0029,-3.174619841689453,mp-558965
KPrDyNbO6,2.4221,-3.1744916420583342,mp-1520047
Dy3SbO3,0.3776,-3.174487718571426,mp-1103799
NaLaNb2O7,1.4924,-3.1742668501253912,mp-1220731
Ba2UInO6,0.6779000000000001,-3.174252212666658,mp-1205569
Cs3Ta5O14,3.7913,-3.174210075369644,mp-562434
Ti4SnO10,1.833699999999999,-3.173813669888888,mp-766168
Ba8LiNb7O24,0.0,-3.173765336583332,mp-773072
CsScCuF6,0.0,-3.17359076069445,mp-1225961
Sr3Nb4O13,0.991,-3.173566756750001,mp-756435
Be6Al4Si12O37,0.782799999999999,-3.173269721949152,mp-1227528
CaTi2(PO5)2,2.5542,-3.1732045340634922,mp-1043473
UAgF6,0.9267,-3.173063796249998,mp-1207868
Na7Hf3Ta(SiO4)6,3.5546,-3.173004607324923,mp-2713077
Sm2TiCuO6,0.0,-3.172998904333333,mp-1219251
La3SbO3,0.7208999999999991,-3.172854074285704,mp-1104307
BaBAsF10,5.0288,-3.17275421724359,mp-1198994
Eu2MgTi2(ClO3)2,0.250399999999999,-3.172647440128206,mp-2224836
SrEuHfSnO6,0.3763,-3.17257457,mp-1518253
RbBe2BO3F2,5.9642,-3.172510633518518,mp-7323
Na3NbOF6,5.1009,-3.172353439921629,mp-561259
Al2Ge(O2F)2,4.0658,-3.1719766036111112,mp-561437
K2ScAgF6,3.0351,-3.171970405116666,mp-1112275
SrNd3AlCuO8,0.0,-3.171945591607142,mp-1218168
K2Be3Zn2F12,5.787,-3.171669690236842,mp-6372
K2YZr(PO4)3,4.5764,-3.171572701233083,mp-532727
Na3HfZrSi2PO12,4.5138,-3.171468183564039,mp-2715468
KBe2BO3F2,6.0524,-3.171410340157407,mp-6870
NaCaAlH2OF6,6.7783,-3.171325685531609,mp-697278
Lu2P4O13,5.6129,-3.171261369310777,mp-776491
GdTi2CdO6F,1.5985,-3.171233815606061,mp-695048
Ho2Mg2O5,0.0,-3.17121641611111,mp-1184645
La3OsO7,0.0,-3.17098687681818,mp-31353
LiZr2(PO4)3,4.253299999999999,-3.170948748458995,mp-10499
Ti2AlO4,0.0,-3.170859260238094,mp-1262424
CaAl2(SiO3)4,3.1603,-3.170725262105263,mp-1214005
SrLa7Ti4(Cu2O11)2,0.0,-3.170651066535087,mp-1173180
Ba4Ce2O7,0.0,-3.170560312692306,mp-770465
Pr4Si2Se3O7,2.3921,-3.170509341324869,mp-14836
Li2HfO3,4.0572,-3.170408328611111,mp-2724101
LiNb(OF)2,3.2222,-3.170344275972223,mp-769319
La2Ti3(BiO6)2,2.0874,-3.17031427,mp-1211253
CsLuP2O7,5.2702,-3.170149200964322,mp-554854
Li5Ca9B7O21F2,4.2,-3.170019526723484,mp-1197163
Sr2Be2B2O7,4.0798,-3.169924973333333,mp-556498
BaEuHfSnO6,0.4308,-3.169755354000001,mp-1522152
Na2HfTaSi2PO12,3.6194,-3.16968596033692,mp-2714945
LaIO,3.2887,-3.169535276666668,mp-30993
TiNb2O7,2.1357,-3.169513764833335,mp-759307
EuZr2SnO6,0.0009,-3.169501646000001,mp-1518757
CsZr2Al(PO4)4,4.3838,-3.169458895238608,mp-1019720
Li2Ti7Nb6O30,2.268899999999999,-3.169218702888888,mp-759382
NdMg2TaO6,2.6203000000000003,-3.169100013983333,mp-1220331
UBrO2,0.0,-3.16903279625,mp-27536
Ba4MgTi3O10,0.0,-3.169001369166666,mp-2228346
Ca14Al12Zn4O35,0.5589000000000001,-3.168846013,mp-1214214
CaAlSiO5,0.32,-3.168835553125,mp-1213985
Ho2P4O13,5.6319,-3.168548099135339,mp-779637
YAlGeO5,3.821099999999999,-3.168546244374999,mp-540905
NaHf3Nb(PO4)6,2.6397,-3.168513548454376,mp-2714017
HoGaO3,2.883999999999999,-3.168367698833334,mp-769045
Gd2TiCuO6,0.0,-3.168347529333333,mp-1224741
RbLuP2O7,5.1811,-3.168096079859306,mp-559383
K3Nd(Si2O5)3,4.3515000000000015,-3.167919819069999,mp-6453
ThPO5,3.8365,-3.167751421734694,mp-1194017
NbO2F,2.2079,-3.16759997625,mp-752467
SrCaZnSi2O7,4.0192,-3.167569670833332,mp-1218075
LiHo2Cu(SiO3)4,1.6564,-3.167528512666666,mp-1235332
Na5Hf2Zr2Si3(PO8)3,4.3155,-3.167505429593806,mp-2714218
Rb2Ca2(SiO3)3,4.133500000000001,-3.167380317812501,mp-1020641
LiLa4CuO8,0.7702,-3.167302960238095,mp-21496
PaTlO3,2.6427,-3.167280823666671,mp-862832
Na6Hf7Mg(PO4)12,4.537,-3.16726827530167,mp-2716537
Cs4K3U3Si4O20F,2.1139,-3.167152070010592,mp-1200353
Th2Cu(PO4)3,2.9463,-3.167140958551586,mp-6698
NaZr2(PO4)3,4.1967,-3.167063734183772,mp-6475
TmSeF,1.8704,-3.167045857187501,mp-1207668
Na3HfTa(SiO4)3,3.8515,-3.167039292323562,mp-2715297
TiPO4F,2.4692,-3.166999982568028,mp-1541018
Ba3Ta2CdO9,3.4856,-3.166950008644446,mp-554669
Ba4Y2O7,2.9327,-3.166927112179487,mp-779544
Dy2P4O13,5.7595,-3.166921059310775,mp-771147
Eu4B4O11F2,0.0,-3.166867070793651,mp-1199066
Nd2Ge(BO4)2,4.4952,-3.166842023141024,mp-1197137
LaNb5O14,2.190699999999999,-3.166535799124999,mp-28155
K2AlTlF6,4.7049,-3.1662907387833332,mp-1111379
Cs2ZrTlOF5,3.8902,-3.166270673264369,mp-42227
Lu2TiCuO6,0.0,-3.166263085666666,mp-1222460
Na5Hf2Ta2Si5PO24,3.407799999999999,-3.165968412210412,mp-2716426
Sm4Se3O4,1.289099999999999,-3.165801031548299,mp-550117
CsBe2BO3F2,5.8834,-3.165793868202426,mp-553342
Ba5B3ClO9,3.7311,-3.165783474027778,mp-1201345
KPrZrNbO6,0.0,-3.165764703891666,mp-1516970
Na3Y(Si2O5)3,4.609,-3.165751951165517,mp-1221246
Ho8Sb3O8,0.0,-3.165690938947365,mp-1223897
K5Y2Si4O13F,4.347499999999999,-3.165456940249999,mp-1195556
CaNp(PO4)2,0.480099999999999,-3.165228359836309,mp-1227243