formula,bg,formation_energy,mp-id
Th4P6PbO24,4.4866,-3.30804156565306,mp-1217448
Pr9O16,0.0,-3.308003488999999,mp-557002
Na2Ca17Al12O36,3.795499999999999,-3.307834084294905,mp-1222730
Ca2La2Ti3CuO12,0.0,-3.307551843000001,mp-1227406
Ba3UO6,2.157199999999999,-3.307360320999998,mp-1206273
YbSF,0.0,-3.307253192604165,mp-1207509
La2Ti3CuO10,0.0,-3.307084711250001,mp-1223172
MgAl3SiBO9,4.841799999999999,-3.307048322111113,mp-1210669
SiF4,7.7173,-3.306972093,mp-1818
La2Ti3AgO9,0.0,-3.306725961111111,mp-1223080
BaBe2Si2O7,5.5695,-3.30665925,mp-12797
K2NaTiF6,0.0,-3.306311992921264,mp-1111871
CaO,3.6301,-3.306019392499999,mp-2605
Ti(SiO3)2,3.331399999999999,-3.30585531037037,mp-25301
Ca3Mg5(SiO3)8,4.7346,-3.305739278875,mp-1227744
CsMg12Al25Si29O108,4.345099999999999,-3.305619005655173,mp-695172
NaCa2Ta3O10,1.8659999999999992,-3.305609941461206,mp-1221096
Cs2YSi4O10F,4.938700000000001,-3.30559459253113,mp-581114
K3NaBe2F8,6.6922,-3.305362259509237,mp-1211627
Ba3Ho(BO3)3,3.822199999999999,-3.305286329843749,mp-14384
SrEu2Al2O7,0.0,-3.305106604583334,mp-983228
Pu2O3,0.0,-3.305053022499996,mp-637224
KEu2Si4O10F,0.0,-3.304993036930555,mp-561529
Sc2GeO5,4.1263,-3.304898370833333,mp-27576
Nd3SbO7,2.5869,-3.304870114772725,mp-769366
RbUO3,0.4542,-3.304585120499998,mp-11775
K3Ti8O17,0.0,-3.304570325479166,mp-758970
Ba2Ti3Nb4O18,2.5979,-3.304524156666667,mp-1228588
LiLu2Al2O6,0.0,-3.304347972424243,mp-1236720
ThSeO,0.769,-3.304229294114581,mp-7950
CsBa2Zn2F9,4.8824000000000005,-3.304207758903941,mp-1225924
KGdZrTiO6,0.826299999999999,-3.304156682058334,mp-1521399
Rb2U2O7,1.6672,-3.304101588636362,mp-560458
Al12PbO19,4.519,-3.303875141406249,mp-757333
Li2Ca4Si4O13,4.6645,-3.303861107028985,mp-556137
La2Ta2O9,0.2052,-3.303465686128206,mp-1104362
LiHo3Ge2(O4F)2,4.252800000000001,-3.303458222083333,mp-561095
Ti2O3,0.0,-3.303439634333334,mp-458
RbLaTiNbO6F,1.0761,-3.303244765530304,mp-1219608
Ba3CaNb2O9,2.646,-3.3031831950000012,mp-1214569
Ba5P3ClO12,5.044399999999999,-3.303116248282312,mp-558349
Sr20P12Br3ClO48,4.9604,-3.30302203762755,mp-1218945
Sr3Al2Cl2O5,4.4213000000000005,-3.302407071875,mp-559224
Ba2GdB2ClO6,0.0,-3.302007611527778,mp-866304
Li4Ti11O24,2.569099999999999,-3.301994975641025,mp-766548
CsMg4Al9(SiO4)9,4.0434,-3.301908251350088,mp-695133
Cs2ErSi6O14F,4.6876999999999995,-3.3018472113254322,mp-1195142
Ti5Nb2O14,0.0,-3.301804646984126,mp-758324
Rb2Ti4H3F21,4.4228,-3.301298311069445,mp-1203838
NpF6,1.1546,-3.301225269821427,mp-1209816
Pr4Ga2O9,3.8475,-3.301147007444443,mp-15577
Ta9PO25,2.7108,-3.300723760161223,mp-770481
KBF4,7.9399,-3.300713755652777,mp-4929
Ba3Dy(BO3)3,3.8533,-3.300701822656249,mp-1214848
Li2Mg3Ti6O16,3.3317,-3.300521523765431,mp-758770
Al10ZnO16,4.326799999999999,-3.3005051366666662,mp-760795
Sr2Nb2O7,2.6843999999999992,-3.300364764999999,mp-3870
BaMgSiO4,4.1136,-3.300220161666667,mp-560186
La3ReO8,1.8714,-3.299915082291667,mp-504831
KCa5Mg5Al(SiO3)12,5.099399999999999,-3.299871274870833,mp-534793
MgAlF5,4.677,-3.2996673828571432,mp-1025166
Ba8LiTa7O24,0.0,-3.299643312116667,mp-772523
Sr10P6SO24,3.543899999999999,-3.299625168179442,mp-17447
Na5Y4Si4O16F,4.7696000000000005,-3.299521337729885,mp-557696
Rb3NaBe2F8,6.617800000000001,-3.299471241705665,mp-13630
Cs2BeF4,6.6981,-3.29938227275862,mp-5013
LiHoO2,4.3851,-3.299361123333331,mp-12645
NaSrHfNbO6,2.3776,-3.29932408813793,mp-1521941
Gd3ReO7,0.0,-3.299133534318182,mp-31101
Ba3LaNb3O12,2.6586,-3.299096265526316,mp-1228150
Zr2P2O9,4.1075,-3.299050528021978,mp-27132
TiAlO3,0.0,-3.298947951666666,mp-774520
Rb2Th(Si2O5)3,4.8855,-3.298846430208334,mp-1194623
Sr5Nb4O15,2.8004,-3.298532114583332,mp-761057
LiSc4(Si2O7)2,0.046599999999999,-3.298440050579709,mp-1235717
KRb2TiF6,0.0,-3.298384584558333,mp-6074
PrEu2NbO6,0.0975,-3.298153751166668,mp-1516421
Sr2TbTiO6,0.0,-3.298078454999999,mp-1519771
BaNa2Al4(SiO4)4,4.7346,-3.2979858201021712,mp-6875
Ca2Al3Si3O13,0.2732,-3.297947133333334,mp-732195
KMg4Al9(SiO4)9,3.949499999999999,-3.297848844529662,mp-686653
Li2Ti7O15,1.5360999999999991,-3.297761216458334,mp-756565
MgTi4O9,2.5453,-3.297616216666668,mp-1040872
Ca3Mg9Al8(SiO4)12,4.980499999999999,-3.2975936929375,mp-1227888
Ca2Nb2O7,3.011,-3.297524677045454,mp-13979
Mg4Sc3(SiO3)8,0.0,-3.297461804230769,mp-773046
NaCaTaTiO6,2.5592,-3.297078093704598,mp-39712
BaTm2ZnO5,3.0578,-3.296926820833334,mp-6250
BaSr2(PO4)2,5.3078,-3.296590899945054,mp-1227768
Nd6Al7Si5N3O25,3.378,-3.296465864673912,mp-42036
Sr4NbAlO8,2.962,-3.296228674107142,mp-558114
NaEuHfZrO6,0.0,-3.29621775163793,mp-1522962
NaTi4O8,0.0,-3.2961126332471262,mp-757433
Sr4LiSm2Ta2O12,0.0,-3.296030246571429,mp-1235143
La2B4O9,4.4924,-3.295950327777778,mp-752449
Ca4Al6SO16,4.6874,-3.295809557314814,mp-1019575
Cs2ScInF6,4.142200000000001,-3.295475260916672,mp-1113138
Tm2Be2GeO7,4.3832,-3.29546294375,mp-1208014
BaSrPdF6,1.4644,-3.295300649444444,mp-1227495
Gd2GeO5,0.0,-3.29522065937501,mp-561584
Na2SrAl4(SiO4)4,4.782599999999999,-3.295185041398465,mp-556356
Ca4UAl2(SiO5)3,0.0,-3.295131267799999,mp-1227091
Cs3SiF7,5.633800000000001,-3.294849489545454,mp-13748
BaMg2Si2O7,4.558,-3.294698232291667,mp-1019549
Ba2Sr(PO4)2,5.309799999999999,-3.294440574560439,mp-1228498
Ba3(PO4)2,5.1422,-3.294371403021977,mp-3857
Na4CaZr2TiSi4(O8F)2,3.3247,-3.294318548961685,mp-1210416
Sr5P3BrO12,4.9313,-3.294308662806123,mp-23141
Rb2ScInF6,3.844699999999999,-3.293990089666666,mp-1113896
Cs2NaTiF6,0.0,-3.293792025735632,mp-562050
Sm2Ti2S2O5,0.779899999999999,-3.293637026969698,mp-5999
KCa10(PO4)7,5.2646,-3.293435558798912,mp-6813
Ca2SiO4F,0.3509,-3.293297428749999,mp-1201156
Li4Ti15O32,1.9455,-3.293196668888888,mp-759678
Al11InO17,3.721,-3.293090156436781,mp-766248
Ba2PdF6,1.7554,-3.292978790000001,mp-29794
KEuHfTiO6,0.0,-3.292914888558333,mp-1521954
NbOF3,3.7013,-3.292822406999999,mp-760762
Ba3Y(BO3)3,3.815299999999999,-3.292742405572916,mp-6310
Eu2Ti2O5,0.0,-3.292736997962965,mp-1184430
GdSF,0.0,-3.292370790937499,mp-3799
Ba3NaEu3(Si3O10)2,0.0,-3.292202161405434,mp-1098017
CaAl2(OF3)2,0.5736,-3.292138899090909,mp-734097
Lu6Ge4O17,3.8214,-3.292027224629631,mp-28216
Er2Be2GeO7,4.4309,-3.291785429583333,mp-14420
K2ScSi4O10F,4.7453,-3.291773420249999,mp-557777
KTa5O13,3.1991,-3.291708990864036,mp-27169
LiTi3O6,0.0,-3.2915129273333332,mp-754937
KCeHf4O12,0.0,-3.291455355402778,mp-1516339
Lu2Be2GeO7,4.2438,-3.291327234444444,mp-1210839
Cs6Hf5(O2F13)2,0.0246,-3.2910829216568542,mp-1201448
NpAlO3,0.0,-3.2910525867500002,mp-1186110
La3B5O12,3.8487,-3.290878905666667,mp-779571
K2ScTlF6,4.6328,-3.290836186283334,mp-1111416
Ba4ScTi4BiO15,1.8951,-3.290712895333333,mp-1228157
NaSmSiO4,4.2786,-3.290342111625615,mp-17357
Al3(O2F)2,0.0,-3.290302959722222,mp-1214868
Ba3Y2(B2O5)3,4.5169,-3.290102363173076,mp-1019527
KCa2Be2Al(Si2O5)6,4.869,-3.290099668171875,mp-693620
LuSF,2.614099999999999,-3.289838426493053,mp-555850
Na5Sm4Si4O16F,4.6397,-3.289502165396551,mp-1192338
Rb2YInF6,3.673,-3.289476153166666,mp-1113931
LiDyO2,4.5644,-3.288713784999998,mp-976726
BaSi4O9,4.3452,-3.288611039285715,mp-9478
YbBrO,0.0,-3.288491298750003,mp-601693
Eu2Al42O65,0.248499999999999,-3.288463833073394,mp-685394
Er2B4O9,5.689200000000001,-3.288378234111112,mp-756914
Tb2Be2O5,2.1978,-3.288369552037036,mp-978920
Y2Ti2S2O5,0.7881,-3.288295090606061,mp-25305
Rb2ScSi4O10F,5.0158,-3.288188046805555,mp-1198458
Ca3(BO3)2,4.8224,-3.28817981121212,mp-3575
Dy2B4O9,5.6245,-3.288080790333332,mp-16600
Gd2TeO2,0.772899999999999,-3.287839963333331,mp-16035
NaGdSiO4,0.0,-3.287721429125616,mp-18515
NaNdSiO4,0.0,-3.287718564601777,mp-13774
K2Ca4Si8O21,4.594,-3.287697046557144,mp-1019746
BaZr(PO4)2,4.158799999999999,-3.287506394107157,mp-556139
Ba9La3Mg5Nb7O36,2.4954,-3.2874515795,mp-695214
Ho2Be2GeO7,4.4313,-3.287437647499999,mp-1212368
NaUO3,0.431,-3.287362495775843,mp-5788
Ba3ZrNb4O15,2.2437,-3.287299146956522,mp-1228352
Ca2Ti2O5,0.0,-3.287257276851851,mp-1096895
CaSi2O5,4.7791999999999994,-3.287025233125,mp-29755
NaLaHfNbO6,0.0,-3.287018346637931,mp-1517281
Ho2B4O9,5.6616,-3.286751686777776,mp-768301
Sr4Nb2O9,3.4162,-3.286674739666667,mp-28940
K6Ba3Ta12(Si2O13)4,2.7942,-3.286606347055556,mp-677080
Na5Ca2Ce3Ti8Nb2O30,0.0,-3.286530270471264,mp-721094
K2Na2Sm4Ta2O13,3.973799999999999,-3.286492741388056,mp-1198935
Nd2Ta6O19,0.0,-3.286486765148149,mp-1210137
Dy2Be2GeO7,4.4691,-3.2864306352777772,mp-20778
K2Hf2O5,4.4449,-3.2862341157777752,mp-1201301
NaSr3Be3B3O9F4,4.7554,-3.28618608603823,mp-1192032
Cs2U4Nb4O23,1.838499999999999,-3.286115133766979,mp-1228671
Na2GdTa5O15,2.2663,-3.285904485192403,mp-1210527
UTiNb2O10,1.9478,-3.2856651220238082,mp-556509
Sc3NF10,0.0,-3.285580646785714,mp-1209107
NaEuZr2O6,0.0,-3.285550050637931,mp-1520656
Li4Ti9O20,3.13,-3.285005818131313,mp-772090
CsNbF6,5.2004,-3.2849833050000012,mp-11980
Al2Si4O11,4.1738,-3.284969743235293,mp-707135
Tb2Be2GeO7,4.4749,-3.2849000519444442,mp-1208513
NaEuHfTiO6,0.0,-3.284820757971265,mp-1517978
BaSrPrZrO6,0.0,-3.284757232666666,mp-1521255
NaCa10(PO4)7,4.999499999999999,-3.2846538036712882,mp-1221168
Ba4Na3Nd3P6(O12F)2,4.8457,-3.284522886535595,mp-720230
BaPO3F,5.25,-3.284489056190476,mp-1197491
Nd4PdO7,0.958399999999999,-3.284427078333331,mp-29791
Li2Ti4O9,2.8917,-3.284199176666667,mp-772151
CaEuZrNbO6,0.0,-3.2841151115000002,mp-1519002
Na5Gd4Si4O16F,3.0854,-3.284080261729884,mp-1192390
Y2SiCO7,4.7935,-3.283968047272727,mp-556661
BaAl5O9,0.0,-3.28386064,mp-1193237
Ca10P6SO24,3.7477,-3.283828801228222,mp-686464
NdBrO,4.483099999999999,-3.28379890583333,mp-23068
Sr6Al12Bi2O27,3.5117000000000003,-3.283709219680849,mp-1218595
Sr2TiP2O9,2.8073,-3.283568783044219,mp-1218529
NaCaBeSi2O6F,5.510999999999999,-3.283559422823276,mp-560721
NaNd(Si3O7)2,4.843,-3.283489462449058,mp-560226
CsCa10(PO4)7,5.203,-3.283418606133807,mp-1019714
Mg7Si8(O11F)2,4.883,-3.283304499871795,mp-559177
Ca10P6SeO24,3.747499999999999,-3.2831326948829482,mp-17516
BaEr2ZnO5,3.0633,-3.283035360833333,mp-6495
Ba5Tm8Zn4O21,3.359,-3.282880889078951,mp-6054
Lu2B4O9,5.780299999999999,-3.282634584,mp-772781
Ba3Sc(BO3)3,3.4727,-3.282306826927083,mp-14972
Ba23U8O48,0.0,-3.281917527721518,mp-530905
Sr4Al6SO16,4.397,-3.281709876574073,mp-14161
Na3LiBe2F8,7.1459,-3.281460825176519,mp-556906
Ba2PrZrO6,0.0,-3.281356576166666,mp-1519538
Li3Ti8O16,0.0,-3.281229120432098,mp-531914
Ba5B4(O5F)2,4.6341,-3.281190380079366,mp-557176
Y3ReO8,1.7313,-3.281096695625,mp-13627
Ce4S3O4,0.0,-3.280934060681818,mp-19976
Ca3Si(ClO2)2,4.5029,-3.2808403755,mp-540868
Eu2Al4O9,0.0,-3.2808343620000002,mp-771815
Sr5Nb5O17,0.0,-3.280717725925927,mp-505228
Y6Ge2O13F3,0.7295,-3.280522725833334,mp-1216154
Sm3ReO7,0.0,-3.28051356840909,mp-15281
KBaLiZnF6,5.5617,-3.280478174058333,mp-1223441
GdZrO3,0.0,-3.280181134999999,mp-1184599
KCa3Mg3Al(SiO3)8,4.9526,-3.28011020630625,mp-1223597
Na2HoTa5O15,2.623599999999999,-3.279988160192403,mp-1210516
Sc3B5O12,3.727299999999999,-3.279701037541667,mp-1203138
MgZrSi2O7,2.763699999999999,-3.279390684999998,mp-1221993
K2YTlF6,4.3847000000000005,-3.279106814783334,mp-1111122
LaTmO2,0.0,-3.279041706250002,mp-753898
NaPr(Si3O7)2,4.8347000000000016,-3.279038575706635,mp-557126
SrTaO3,0.0,-3.278887796466667,mp-1186755
ScClO,3.9253,-3.2787202716666672,mp-989195
K2Ba5(Si2O5)6,4.71,-3.278696745602041,mp-1223764
Sm2TeO2,1.4893,-3.278480227333331,mp-16033
Pr3Ta(ClO2)3,0.0,-3.278478039794872,mp-1209663
ThP2O7,5.4109,-3.278453477178571,mp-5156
LiZr2O4,0.0,-3.278412598690475,mp-770731
NaEuHfNbO6,0.0038,-3.278236633637931,mp-1518553
KCa9Mg(PO4)7,5.3098,-3.277895412277173,mp-9468
CaZr(PO4)2,4.3919999999999995,-3.277844582440476,mp-554495
Y2WO6,3.179899999999999,-3.277808968055557,mp-559510
Ba2IBrF2,4.3552,-3.2777955,mp-1228367
La2CO5,4.020300000000001,-3.277591261458335,mp-555349
Sm2SiTeO4,2.0793,-3.277470313020834,mp-6055
Ca3SiO4F,0.0,-3.277447985555556,mp-1214083
TiCdF6,4.3774,-3.277109955416666,mp-623024
Na3Ca7Ti7Nb3O30,1.180499999999999,-3.276742368749425,mp-695506
Ba6Ti2Nb10Si8O51,2.6892,-3.276577290021646,mp-677246
Gd2NbGaO7,2.041899999999999,-3.276566341590908,mp-1225182
Sm3ReO8,1.7676,-3.276375058541674,mp-7423
Ca10Si5(ClO10)2,0.5481,-3.276314286486486,mp-1203161
Ba4Ta2TiZnO12,2.2281,-3.27615508615,mp-676665
Mg10Si3(O7F2)2,4.7366,-3.276063732741935,mp-1194872
Mg5Al34O56,0.0,-3.27577871468421,mp-530754
SrLiU2O6,0.0,-3.275752541333331,mp-1235318
Nd2Ti2S2O5,0.825299999999999,-3.275363665606061,mp-552028
SrCa3Al6Si6(HO13)2,4.9056,-3.275320132329545,mp-1218654
Sm2B4O9,5.427300000000001,-3.275193956444447,mp-768280
CsTi3AlO8,2.5328,-3.275140202281167,mp-1225908
Y2TeO2,0.7401,-3.275033299333331,mp-755756
Cs2U2O7,1.5078,-3.274979256755456,mp-548479
NaCa9Mg(PO4)7,5.1723,-3.274630549106071,mp-9467
KMg8Al17Si19O72,3.7898,-3.274515530061965,mp-720328
La3Nb8O24,0.0,-3.274476783571429,mp-850556
Na2U2O7,1.5582,-3.27422771752351,mp-1190548
K4CaU3O12,2.1025,-3.273651192449998,mp-16137
Sr3Li3La5O12,3.143599999999999,-3.273532843115943,mp-761869
K5Nb3O3F14,0.000199999999999,-3.27334903475,mp-1202095
Mg2TiO4,3.4044,-3.2730648479761912,mp-757031
Eu2Si2O7,0.0,-3.273013668409091,mp-21599
Eu2SiO5,0.0,-3.272983015000003,mp-867966
Ca2Al3Si3HO13,5.2562,-3.2729136826704552,mp-23915
Nd2SiTeO4,2.0477,-3.272833390208333,mp-18542
SiO2,5.719,-3.27283134388889,mp-7000
K3NpO2F5,0.317899999999999,-3.272654115727272,mp-9637
La2Be2GeO7,4.130699999999999,-3.272402461250001,mp-19926
Er2B2Cl2O5,5.0806,-3.272382053939393,mp-556986
Sr2Al3Si3HO13,5.127800000000001,-3.272362653125,mp-24802
Sr24Ta8O43,0.0,-3.2723543411155562,mp-675061
Al6B5(O5F)3,6.1148,-3.272279260545977,mp-6738
Sr4CePrO8,0.0,-3.272001529404761,mp-1218498
Ca5Mg5P5O21F4,0.8222,-3.271786113205356,mp-686434
Ba2CePrO6,0.0,-3.271712413416666,mp-1517039
Ba5Nb4O15,2.5999,-3.271554933958334,mp-3563
Tm2TeO2,0.442,-3.271226042333336,mp-1101266
LiTbO2,4.5467,-3.270821998749999,mp-7137
KTi3NbO9,2.5119,-3.270782737660715,mp-1223312
Ba7Na3Ti7Nb3O30,1.113999999999999,-3.270762661149425,mp-695409
Sr2Ti2O5,0.0,-3.270524962407409,mp-1097778
K3Gd5(PO4)6,2.7396000000000003,-3.270373851042293,mp-566293
Ba5P3BrO12,4.963699999999999,-3.270024877329931,mp-561125
CaMg3(SiO3)4,4.7023,-3.26999009925,mp-1227106
RbTi3NbO9,2.3867000000000003,-3.269866175178571,mp-1219552
BaHo2ZnO5,3.0589,-3.269829354722221,mp-6501
Ba5Er8Zn4O21,3.361799999999999,-3.269581095921052,mp-6416
Gd3ReO8,1.643199999999999,-3.269572775416667,mp-30137
BaTaO3,0.0,-3.269091094466667,mp-754678
Na5Nd4Si4O16F,4.518,-3.268735353063219,mp-1192521
Sr7Nb6O21,0.0,-3.268391995441207,mp-541049
Na2Ti2F7,0.0,-3.268130936879572,mp-1120828
MgTi3O6,0.0,-3.267980096499999,mp-2217122
Eu2Al2O5,0.0,-3.267851706111113,mp-861959
Li5Ti12O24,0.0,-3.267783990406505,mp-685809
Tb4Nb4O11,0.0,-3.26774425482456,mp-780453
Be3Al2(SiO3)6,5.3322,-3.267593778275862,mp-6030
Ba6Li2Ti7Nb9O42,0.0,-3.267548283636364,mp-773084
Ta3Al4O14,0.0,-3.267546114380951,mp-1190518
CaAl2B2O7,4.8228,-3.267489926111109,mp-557689
KHfCuF7,0.4453,-3.267212247725,mp-561312
K5Pr4Si4O16F,5.043299999999999,-3.267186189597221,mp-1192490
K3TiF6,0.0,-3.266874859508333,mp-1111692
Tb4Si2S3O7,2.6586,-3.266869941979166,mp-16590
Gd3AsO7,2.3774,-3.266242386363636,mp-768254
SrEuAlO4,0.0,-3.266193797857144,mp-1218276
CaYSiO5,0.0663,-3.266147397187501,mp-1213949
MgTiSiO5,2.892599999999999,-3.266128816666667,mp-1256211
Li3Ti7O14,0.0,-3.266100809722223,mp-1177528
Ba3MgNb2O9,2.647999999999999,-3.266047576,mp-6474
Pr4AsBrO8,3.9136,-3.265882283690477,mp-1201161
Sm2Ta2O9,0.2234,-3.265807510358974,mp-1208912
K2EuTa5O15,0.0,-3.265752783963768,mp-565929
Pr3SbO7,2.7314000000000003,-3.265689170000001,mp-5448
Ca7(Si2O5)8,0.7426,-3.265610745555555,mp-1203093
Sr7CaTi8O20,0.0,-3.265423468379629,mp-1076695
Ba3TiNb4O15,2.452,-3.265409376666666,mp-557072
Pr2SiTeO4,2.084399999999999,-3.2647732428125,mp-17750
Y2Be2GeO7,4.5479,-3.264689292916665,mp-541040
CaEuHf4O12,0.0,-3.264570811388888,mp-1520501
Sr2UO4,0.0,-3.264529845714285,mp-21020
Tb4Mg(PO4)4,3.0764,-3.264403118009523,mp-1233698
SrAl2B2O7,4.6876999999999995,-3.264373068194444,mp-558669
CsNaNbOF5,4.3489,-3.2641850706704982,mp-1213599
SrZr(PO4)2,4.112999999999999,-3.2639359582738092,mp-558625
La4Ti3(SO2)4,0.6467,-3.263928574210528,mp-1223217
CaTlF3,4.4565,-3.263874733000008,mp-1097061
Na2BeF4,6.6745,-3.2637287621798032,mp-3318
Li7Ti16O32,0.0,-3.263676677393939,mp-530141
Ba3SrNb2O9,3.0998,-3.263567879333334,mp-540949
BaSrHf4O12,0.0,-3.263347156111111,mp-1516483
CaTi8Zn2O19,2.6081000000000003,-3.263221765388889,mp-1227270
Nd2GeO5,3.8858,-3.263154346249999,mp-1205383
Ba3TiO5,2.483,-3.263125456481483,mp-1214495
Eu4Al2O9,0.0573,-3.263056390666669,mp-582606
K2ScInF6,3.5404,-3.262885409616666,mp-1112179
K4Zr5O12,3.19,-3.262750822809523,mp-27377
Ba2PaInO6,3.3095,-3.262637438666668,mp-1206075
Rb3TiF6,0.0,-3.262406702583329,mp-1113820
KNaNbOF5,4.3822,-3.262312550681034,mp-1198462
La4Si2Se3O7,2.2305,-3.262224171689453,mp-14912
Li4Ti7O16,2.918,-3.262198724506172,mp-531820
Gd2B4O9,2.8237,-3.262042608777776,mp-31369
Dy4Si2S3O7,2.68,-3.261879170885416,mp-16587
La2ReO5,0.7077,-3.26176853218751,mp-27539
Y2Mg3(SiO4)3,3.785399999999999,-3.26152362475,mp-1207890
KNaCaMg5Si8(O11F)2,4.6631,-3.261503409840732,mp-1223435
Ca3Al4ZnO10,3.544699999999999,-3.261105067916666,mp-557955
Gd2SiTeO4,0.0,-3.260868998020833,mp-16788
BaSrAl20(CuO17)2,0.0,-3.260788074482758,mp-1227989
BaDy2ZnO5,3.0569,-3.2605967625925922,mp-6643
Ba10P6SO24,3.1879,-3.260354025740417,mp-16990
K2CeAl(SiO3)4,0.170799999999999,-3.260349144725,mp-1019774
Li2NbOF5,0.0002,-3.260206015185185,mp-755505
BaZr4(PO4)6,4.3446,-3.260100587938776,mp-560308
Ca2PClO4,5.377099999999999,-3.260033313080356,mp-554081
Ca2Ti2SiGeO10,2.7324,-3.259998187604166,mp-1227370
Ba3Nb2O8,4.499700000000001,-3.259985623076924,mp-542201
Dy2CO5,4.4556,-3.259751936666667,mp-1225362
La2ZrCuO6,0.0,-3.25967698575,mp-1211456
Sm2Be2GeO7,4.4201999999999995,-3.259455037916666,mp-14416
Pr11O20,0.0,-3.259380655107526,mp-1209915
NaCaAlSi2O7,4.562,-3.259336173031608,mp-1221104
SrCaHf4O12,0.0,-3.2590921344444452,mp-1519143
Pr2Ti2S2O5,0.841499999999999,-3.2589800945454552,mp-552963
Cs3TiF6,0.0,-3.258918559229883,mp-1112963
SrCaLaNbO6,2.4044,-3.258833179499999,mp-1520944
Na2YF6,0.0,-3.258632527777778,mp-1210270
RbPrTiNbO6F,0.9506,-3.258588925227272,mp-1219604
SrZr4(PO4)6,4.3718,-3.258560177081631,mp-555580
Ca5Si2CO11,4.6831,-3.258557382105263,mp-6796
Nd2Ta2O9,0.2768,-3.258385230358975,mp-1377116
K2Ti4O9,3.0211,-3.258138655522222,mp-1194282
KLi3Zr2(Si2O5)6,5.1673,-3.257958072026041,mp-16055
Sr3TiNb4O15,2.0061,-3.257794921884058,mp-1218661
Li11Ti24O48,0.0,-3.257670747670683,mp-774528
Er2Si2PbO8,3.3232,-3.257661212051281,mp-1226117
Ba5Ho8Zn4O21,3.3644,-3.257222851184209,mp-6795
BaNdZr4O12,0.0,-3.256898668194444,mp-1521367
ThGeO4,3.8957,-3.256892782499999,mp-4790
Er4Si2S3O7,2.720799999999999,-3.256887676718749,mp-6316
Ho4Si2S3O7,2.7047,-3.256883127031249,mp-6757
HfB2O5,4.4146,-3.256827000104167,mp-559617
Cs4U3Si4O17,0.0235,-3.256705192629297,mp-1192638
Ca6Si6O19,0.5506,-3.256577618387097,mp-727278
Sm4Si2S3O7,2.6038,-3.2564560764062502,mp-6671
K4SrU3O12,2.0683,-3.256344931449999,mp-22634
Na3TiF6,0.154399999999999,-3.256312467747123,mp-1210257
BaSr7Ti8O20,0.0,-3.256056112337963,mp-1099682
La4Se3O4,1.3261,-3.256037440639207,mp-4412
Ba2Zn2ClF7,4.3544,-3.256032589583333,mp-555271
Sr2RhF7,1.85,-3.25599896425,mp-541114
CaScSi3HO9,5.101800000000001,-3.25580806975,mp-707027
Li13Ti28O56,0.0,-3.255802615429553,mp-774263
Zr2TiSnO8,2.825499999999999,-3.255777128194445,mp-1215607
CaSnF5,0.0,-3.255738549642857,mp-1373532
Rb3EuF6,3.952899999999999,-3.25554123175,mp-1205796
La2MgGeO6,4.205000000000001,-3.25551475,mp-11585
PrBrO,4.462199999999999,-3.255380888888891,mp-975666
Na5Ce3Ti6Nb2O24,0.0,-3.254709313172414,mp-1173764
LiNbF6,4.764299999999999,-3.2546171533333332,mp-1078799
Sm3B5O12,3.735099999999999,-3.254593785416665,mp-780265
Pr5O9,0.0,-3.254284596845239,mp-559956
Sr3CaZr16(PO4)24,4.1978,-3.254246265795918,mp-1218809
KNaHf4(PO4)6,5.000500000000001,-3.2542226801801792,mp-1223505
Ba3TaNb4O15,0.0,-3.254193587492754,mp-1096858
AlTlF4,4.433300000000001,-3.254028930000002,mp-3751
Sr2Y2Ti2O7,0.0,-3.253798047820512,mp-1048099
Na5Pr4Si4O16F,4.466,-3.253769356285441,mp-1192370