formula,bg,formation_energy,mp-id
Al2Cu3(SiO4)3,0.123499999999999,-2.440744174124999,mp-1154457
Rb3GdCl6,3.2771,-2.44069221425,mp-1114105
Na3MgGe3P5SO24,2.0694,-2.440688594815827,mp-2716027
NaAl4PS5O24,4.4521999999999995,-2.440647285433967,mp-2714293
Na6Y4Ga4Si3(S3O16)3,2.6966,-2.440485215978953,mp-2713848
Rb2PtF6,2.6581,-2.440364056111109,mp-8192
Na10Mg4Al4Si3(S3O16)3,3.486399999999999,-2.440242572922562,mp-2714685
Na14Ga4Si9Ge4(SO16)3,2.4454,-2.440114103802565,mp-2715194
Na4ZnGe3(PO4)6,2.170499999999999,-2.440082222413361,mp-2713542
Na2Hf4In4Si3(S3O16)3,2.0315,-2.440017213670362,mp-2716435
BaEuBiSbO6,0.0,-2.439922677000001,mp-1519816
Ca2BiSbO6,0.8357000000000001,-2.439885032,mp-1331730
Sr(YS2)2,1.8122,-2.439627174821428,mp-29035
Cs2HgF4,2.0818,-2.439617690258624,mp-8963
Sr3U6O28,0.0321,-2.439593973513511,mp-1218901
Na14Zn5Ge3(PO4)12,1.8496,-2.439536960122252,mp-2714119
Na2Al4SiS5O24,2.8706,-2.439494591859036,mp-2714362
B10Pb4Cl2O19,0.4469,-2.439487175476189,mp-1195990
Cd3(BO2)7,0.044599999999999,-2.43943354079861,mp-1198909
MgNbP(SO6)2,2.1123,-2.439418556155463,mp-2713113
Sr(HoS2)2,1.801899999999999,-2.439235399821427,mp-1194314
La(YS2)3,1.0838,-2.439135338687501,mp-1211293
Zn4B6SeO12,1.8571,-2.439133157710597,mp-14921
Na3CaGe3P5SO24,1.545599999999999,-2.439086569365376,mp-2715872
Sr(DyS2)2,1.787999999999999,-2.439082478392856,mp-980666
Na7Zn2SiGe2P5O24,1.321199999999999,-2.4390196290130772,mp-2715592
Ba2TeO,1.783,-2.4389198341666662,mp-1078191
LiBi3(P3O10)2,4.044700000000001,-2.438906812373015,mp-759396
Na3ScZnSi(SO6)2,3.7872,-2.438866886706896,mp-2712585
Na2Ti4Si5Sn4S7O48,1.316199999999999,-2.4388480672656,mp-2716183
K6Zr3H8(OF)12,3.3885,-2.438844547341463,mp-707782
Cs2RbScCl6,4.0707,-2.438831018181035,mp-1112120
Na10Nb4Zn4Si7S5O48,1.2808000000000002,-2.438765740743075,mp-2715945
KTlF3,1.9647,-2.438736394116667,mp-1111295
TiZnCu(PO4)3,0.0,-2.438622190681217,mp-1043819
Na8Ca2In2Si3(SO8)3,1.778,-2.438527241512726,mp-2715207
TaAl3SiS5O24,2.184199999999999,-2.438498692691177,mp-2713074
NaSrDySeO6,2.079799999999999,-2.438353831538973,mp-1521091
Rb2Nb2O5,0.0,-2.438243380000001,mp-1076323
Na2Ca3Ti(SO4)6,0.891899999999999,-2.438030710400702,mp-2714212
Rb2LiNdCl6,4.8504000000000005,-2.438023420583333,mp-1110682
KRuF6,1.1302,-2.437992797156249,mp-8013
Ba2ZnCuAg2F14,0.0381,-2.437900280666666,mp-1045718
SrPrZnRuO6,0.0,-2.437875147666666,mp-1218068
Na6Nb3Ga5Si6(SO8)6,1.5325,-2.437859534019494,mp-2714622
Na2ZrZnSi(SO6)2,3.0848,-2.437817097952209,mp-2713663
Na3YZnSi(SO6)2,3.4208,-2.43780941079023,mp-2712785
Ba2Pb(SO4)3,4.2393,-2.4377552269444442,mp-1229061
ZrGaP(SO6)2,3.569,-2.437483659439776,mp-2712821
BaCaBiSbO6,1.994099999999999,-2.43740373675,mp-1522525
Na3Al2In2P3(SO8)3,3.5747,-2.437389816051347,mp-2713966
Ba(GdS2)2,0.6887000000000001,-2.437353609285714,mp-1192904
Sr(ErS2)2,1.8009,-2.437206626488093,mp-1193662
LiCdPO4,3.4478,-2.437196035425169,mp-556786
Zn3Si4(SnO7)2,1.3686999999999991,-2.437145035,mp-1256934
Sr(TbS2)2,1.7925,-2.436977071964286,mp-1193989
K4ErP6H6ClO21,4.8696,-2.43695891857326,mp-698475
Na5In4P5SO24,3.2382,-2.436945983357543,mp-2715099
NaTiGaSi(SO6)2,2.1205,-2.436928047067371,mp-2712648
Ta4Zn2Si3(SO6)6,2.3306,-2.436826858222223,mp-2713482
CaSbO3,0.0,-2.4368179185,mp-1340624
CsYMg6O8,2.5252999999999988,-2.436776445603448,mp-1032629
HoCl3,3.7011,-2.436702259375,mp-864662
KZn4(PO4)3,3.4541,-2.4366458559339272,mp-560419
AlSnO3,0.0,-2.436627378,mp-1340379
Pr2Cu2O5,0.0,-2.436560420925926,mp-1188871
MgBi4(P2O7)4,0.0,-2.436526058344947,mp-1233703
Rb2InAuF6,0.5174000000000001,-2.436522168166667,mp-1110590
La(HoS2)3,1.0735,-2.436500602187496,mp-1188862
Na6MgSi4Sn3(SO12)2,1.625,-2.436498166498563,mp-2714471
Na6Sc4Ga4Si3(S3O16)3,3.0406,-2.436453019582557,mp-2713781
ZrCuF3,0.474099999999999,-2.4363949665,mp-677041
Sr2CuO3,0.0,-2.436278400833332,mp-5456
CeAl8O16,0.0,-2.4362751168,mp-676933
Na14Mg4Si7Ge4S5O48,1.2697999999999992,-2.436265730286306,mp-2715655
CaS,2.3819,-2.436088926406249,mp-1672
Ba3NaBiO6,1.7096,-2.435961351034482,mp-556316
Nd5Cu5O13,0.0,-2.435957004891304,mp-554231
LiAl2H4Pb2(O2F3)2,0.0,-2.435943360964911,mp-1236388
Cd(PO3)2,3.9273,-2.4358821139484,mp-4659
Cs2CaCl4,4.7867,-2.435854882857143,mp-1025185
PmInO3,1.6185,-2.435841807833333,mp-1186597
TmH2ClO2,5.0219,-2.435831701666668,mp-1190688
Na4MgTi2(GeO5)2,2.0152,-2.435768217746522,mp-2230827
Na2Mg4Nb4Si3(S3O16)3,0.6871,-2.435685198860838,mp-2716350
Ca2Y2Si4C3O23,0.0,-2.435473408235294,mp-1214510
K2LiLuCl6,5.0952,-2.43546777145,mp-1111126
Na30Mg20Nb4Si9(S3O16)9,1.6163,-2.435415051768716,mp-2714748
Bi3B5O12,3.3707000000000003,-2.435378658541668,mp-23549
Na4Mg3TiSiS5O24,1.5008,-2.435353056263611,mp-2713493
LiMg6BO7,2.3826,-2.435273040499999,mp-1031116
Na6La4Ga4Si3(S3O16)3,3.007,-2.435190531609584,mp-2713944
Ho2H4CO7,4.9922,-2.435094947857142,mp-697339
K2HgSbF6,0.0,-2.4350872687000003,mp-1112195
ThSO6,3.0912,-2.435070071875,mp-728468
Na3Mg3TiPS5O24,1.9732,-2.4350620736382202,mp-2712522
Sr4Te3(ClO2)4,3.3574,-2.435052639999999,mp-1218587
PrCO4,0.0,-2.435044144444442,mp-1191029
Li8SiO6,4.4509,-2.435039187444444,mp-28549
Ti4O3,0.0,-2.435004672619048,mp-1217135
Li3Sb3P8O29,2.6028,-2.43498642167774,mp-776510
ZnP2PbO7,4.224600000000001,-2.434977140616882,mp-17924
Na2Nb2In2Si3(SO8)3,0.5724,-2.434971662831258,mp-2713803
RbErSeCl2O3,4.3055,-2.434947848105468,mp-557019
Eu(DyS2)2,0.1116,-2.434872680535712,mp-1193960
K2Ca2Si8O23,1.1323,-2.434861681414285,mp-1197582
Na2GaHgF6,0.0,-2.434844721275862,mp-1111169
Sr(LuS2)2,1.8411,-2.434813495297616,mp-1192751
Rb2NaNdCl6,5.003,-2.43478969938793,mp-1110702
SrZnO2,2.0793,-2.43478201625,mp-5637
Li3Bi2P5O18,0.216599999999999,-2.434741948864796,mp-26245
K3TiO4F3,2.5471,-2.434443654098484,mp-6305
Li8CeO6,2.5162,-2.434416167777777,mp-8611
K5NaCe2(SO4)6,0.077199999999999,-2.434387508490245,mp-554603
CsPPb(IF3)2,1.791,-2.434337167663457,mp-1021466
Ce2NCl3,0.0,-2.434280765208333,mp-1101996
CeO3,0.0,-2.434195327499999,mp-1205900
LiSn3(P3O10)2,0.208299999999999,-2.433993185206349,mp-765222
Na4Al2Si3Ge2(SO8)3,1.0755,-2.433893236351331,mp-2713318
Ca3Ge3(SbO6)2,2.254799999999999,-2.433846695249999,mp-1337756
NdSeClO3,4.2031,-2.433827878515624,mp-555650
Eu(ErS2)2,0.0,-2.4338074325595223,mp-541052
GdBi2ClO4,0.8529,-2.4337813325,mp-549695
Cs2Ti(GeO3)3,2.9569,-2.433767227509579,mp-16805
ReOF4,0.9067,-2.433664536041666,mp-622116
Sm2Pb2O7,1.009199999999999,-2.433658827272727,mp-778141
Mg6AlCO8,1.979999999999999,-2.4336580178125002,mp-1032999
Ba(LaS2)2,2.068399999999999,-2.433655062142855,mp-33615
Li3TlF6,3.3885,-2.43361836425,mp-1110576
La4(DyS2)11,0.0,-2.433614040571917,mp-1197619
Mg6CdSnO8,2.956100000000001,-2.433560850937499,mp-1031523
K2CeCl5,0.3104,-2.433497969375,mp-1212138
Cs2AgAsF6,2.4428,-2.433482206847701,mp-1114305
LiEuYO2,0.0,-2.433455225666668,mp-1235030
Na2Zn5(PO4)4,3.7339,-2.433343929123335,mp-560934
La(TmS2)3,1.0688,-2.433248469187498,mp-1106294
Na13Ca7S12Cl2O48F,4.7708,-2.4331832335292902,mp-695559
Na4Li5(BO3)3,3.9373,-2.433157202603996,mp-558455
PmCl3,3.5137,-2.43315162875,mp-863658
ZrSiSn(SO6)2,2.4248,-2.43314386009804,mp-2713450
Na6Hf4Zn4Si3(S3O16)3,3.0506,-2.433116903636611,mp-2713901
Zn2P2O7,3.9692,-2.43280572232144,mp-559319
Na2ScZnP(SO6)2,4.0434,-2.43277538433692,mp-2713488
SmBiO4,0.6012000000000001,-2.432771191666665,mp-768383
Y2Pt2O7,1.421399999999999,-2.432750706363636,mp-756347
Tl2GeF6,4.7147000000000014,-2.432599606666665,mp-1208162
Na2B5H3O10,5.2457,-2.432582458304597,mp-720312
Ba3SrRu2O9,0.0,-2.432572327333333,mp-6641
Rb3SmCl6,4.5482,-2.432512823749999,mp-1110726
CaBiClO2,3.6238,-2.432455363,mp-553025
Sr2Zn3Te2(PO7)2,3.556899999999999,-2.432398993157349,mp-1194862
KEuDySeO6,0.0,-2.432366820626042,mp-1516648
P4PtF12,4.9313,-2.432313209523809,mp-555863
Nd2Ir2O7,0.0,-2.432281358636364,mp-1190299
LuH2ClO2,4.8109,-2.432238665277778,mp-976349
K2HgBiF6,0.0,-2.4322121227,mp-1112367
Ti(SnO2)2,1.077499999999999,-2.432151184404761,mp-18288
Ca2O3,0.196899999999999,-2.4321373745,mp-1120811
TiNb(BiO3)3,2.4233,-2.431936003095239,mp-1216863
Na5HfIn3Si3(SO8)3,0.7071000000000001,-2.431931881437519,mp-2713170
Na10Ca6Si3Sn2(S3O16)3,0.9283,-2.431927747708886,mp-2714785
ErCl3,3.7739,-2.431907822708332,mp-863029
SmBi2ClO4,1.217699999999999,-2.431803824375001,mp-546152
Ta2Zn2CuO8,0.1017,-2.431773333051281,mp-1045963
Nd2P3(HO2)5,5.6809,-2.431623399258929,mp-707307
Na2LaPS2O7,3.6466,-2.431488554415497,mp-640915
MgTi(GaO2)4,0.0,-2.431367307738095,mp-2228451
Ga4SiO8,2.425699999999999,-2.431330256923076,mp-755053
Sn(PO3)2,3.8768,-2.431295273253955,mp-766947
Li3Sb3(PO4)4,3.1104,-2.431276699304029,mp-27111
Na3Al3Si3O16,0.0,-2.4312463593655163,mp-1221304
Al2Si2PbO10,0.0,-2.431208374000001,mp-1200775
Pb4IF7,2.9103,-2.431199952083332,mp-28087
Tl2SnF6,4.2962,-2.4311313055555552,mp-10401
LiZr2(SeO)2,0.0,-2.431067791145832,mp-1235441
LiBi4P7O24,3.8273,-2.430999578356482,mp-759254
K3LiSiO4,3.674399999999999,-2.430990501398148,mp-561474
Rb2LiPrCl6,4.8241,-2.4306543869999993,mp-1110681
LiSb2P5O16,3.333,-2.430624879439483,mp-684104
ErH2ClO2,4.921099999999999,-2.43061497875,mp-1101811
MgSn3(P2O7)2,2.1066,-2.430559024707791,mp-1046958
KCa4Si8H16O29,0.9972,-2.430553362280172,mp-708991
KSr4Si8H17O29,4.2387,-2.430456442177965,mp-1224714
LaS,0.0,-2.43041202890625,mp-2350
Na6Ca4Al4SiS11O48,4.0274,-2.430331127848323,mp-2712721
Cs2NaScCl6,3.8894,-2.4301819705689662,mp-1111433
Ti4Zn(CuO4)3,0.0,-2.430172866666666,mp-1042621
NaSrTbSeO6,2.0783,-2.430124831038972,mp-1523004
CaPr(BiO3)2,0.0,-2.430054231166667,mp-1044460
LiNb3(Bi2O7)2,2.7191,-2.429904200833333,mp-559052
Rb8Ta6O23,0.075099999999999,-2.429873854297297,mp-1197311
Na10Zn3Ge5(PO4)12,1.577799999999999,-2.429771543818471,mp-2716343
Li2Sn3(P2O7)2,2.8283,-2.429755924358177,mp-26871
RbB2SbO6,2.3667,-2.4296422260833332,mp-1209317
BaMg6NbO8,1.3262,-2.429590070625,mp-1033386
Np2SeO9,0.0,-2.429506425820314,mp-1196536
TiZnSnO4,2.7485,-2.42945445547619,mp-1120798
Na2Hf3Mg5(SO4)12,3.493899999999999,-2.429446045253695,mp-2714716
AlTlO2,2.196999999999999,-2.429437737083335,mp-14105
Ca2La2Cu3O8,0.0,-2.429422213333333,mp-1214137
K2PtF6,2.5717,-2.429395779388886,mp-3821
Li8Ti2O7,0.767799999999999,-2.42939052240196,mp-772920
Rb2AgAsF6,2.3267,-2.429388063416666,mp-1110613
Li7Zr3Nb(TeO6)4,1.9009,-2.429331326923077,mp-695434
Ba3MgRu2O9,0.0,-2.429325057666667,mp-6520
CsRb2LuCl6,4.452,-2.429132134132184,mp-1111778
MgSn2P2O9,1.6116,-2.429093606020409,mp-1049302
Ga3PO7,3.1305,-2.429084078376625,mp-3107
Nb2Ge2O7,1.8955,-2.4290773370454533,mp-771194
NaZrZnP(SO6)2,3.5023,-2.429025796260491,mp-2715564
CsRb2TmCl6,4.4431,-2.4289428404655182,mp-1110814
NdHO,2.0008,-2.428892319583333,mp-1190994
Na6Mg8Ta4Si3(S5O24)3,0.4953,-2.428825804723234,mp-2714552
Na14Ca4Ga4Si5S7O48,2.6795,-2.428815649859475,mp-2715857
Ce(SO4)2,1.0168,-2.428795551931832,mp-21947
K3OsF6,0.313,-2.428779190174999,mp-1212076
Ba6Ru3(ClO6)2,0.0,-2.428693908695653,mp-558595
Al2Si3(HO4)3,0.0,-2.4286182105625,mp-734142
TmBi2BrO4,1.360199999999999,-2.4285416168750023,mp-546350
NaLi2AsF6,3.6191999999999993,-2.42848944608333,mp-1111350
Pr2P3(HO2)5,5.673599999999999,-2.428419155425595,mp-722780
Li3TiPCO7,0.1017,-2.428358849844322,mp-25462
HeSiO2,6.5469,-2.428324435625,mp-1019742
SmCl3,3.4912,-2.428301643125001,mp-863026
LuBi2BrO4,1.3984,-2.428291011458334,mp-545847
SnPbF4,3.3352,-2.428223845625003,mp-20815
In(BO2)5,0.0,-2.42805360140625,mp-1188835
Cs2NaLiF6,0.0,-2.4279958164022992,mp-989559
Na4TaGa3Si3(SO8)3,2.9892000000000003,-2.427972458890805,mp-2713555
Sr2CeEuCu2RuO10,0.0,-2.427922039705882,mp-1218883
Na6Mg6Zr2SiS11O48,2.7514000000000003,-2.427894475280756,mp-2712794
CsRb2ErCl6,4.4266,-2.427862759465517,mp-1111782
Rb2HgF4,1.9382,-2.427841051071428,mp-8962
Na3Mg2Al2PS5O24,4.909899999999999,-2.427825436746328,mp-2712533
TiNb(SnO3)2,0.0,-2.427762888333333,mp-1521905
KBaLaSeO6,1.9313999999999991,-2.427617799459375,mp-1521248
CsPPbO4,4.0581,-2.4275710377568602,mp-1192530
Na2LaZnP(SO6)2,3.3762,-2.427537000126395,mp-2713495
Ca3Be2P4(HO2)10,5.1849,-2.427528933489011,mp-707876
KTbP2H4O9,4.3835,-2.427466684747199,mp-1197975
CaSb2(PO5)2,0.0221,-2.427447880285713,mp-1043569
ZrInP(SO6)2,2.4598,-2.4274054773319342,mp-2713079
Li4Ca2B16(H2O5)7,5.1414,-2.427347861725352,mp-1195450
Na2CaGeP2SO12,0.946399999999999,-2.427338834976018,mp-2713241
MgPdF6,1.8285,-2.427327279375,mp-7921
CaEuS2,0.0,-2.427305252656252,mp-1227261
LaBi2ClO4,1.3154,-2.4272930293750012,mp-1205991
Na6La4In4Si3(S3O16)3,2.397599999999999,-2.4272730289068822,mp-2713853
Rb2NaPrCl6,4.9807000000000015,-2.427235913804597,mp-1110701
Cs2LiScCl6,3.8154,-2.427202017764368,mp-1189625
Sr9La5Br33,2.8873,-2.427094694680851,mp-851109
Na14In4Si9Sn4(SO16)3,2.196199999999999,-2.4270509778269562,mp-2714659
K2NaLuCl6,5.002499999999999,-2.426990218254597,mp-1111639
CaHF,4.674,-2.426918358749999,mp-1227052
Eu2TlCl5,0.6218,-2.4268468138541692,mp-1213054
HfSiGe(SO6)2,2.0002,-2.426829565196079,mp-2713402
LiSb(PO3)5,0.129799999999999,-2.426743794161255,mp-26652
Na3Ca5Nb(SO4)9,1.644,-2.426733566882184,mp-2714264
Gd2C(NO)2,2.4257,-2.4267114078571432,mp-1025163
BaZnGeO4,2.8955,-2.426658605238095,mp-757722
Gd3NCl6,1.9483,-2.426606997374997,mp-651160
Rb6Si2O7,3.139,-2.426575227999998,mp-18483
NaSrNbBiO6,0.0,-2.426573038137931,mp-1517893
K2NdCl5,4.7465,-2.4265632896875,mp-1211903
KB3SeO7,4.5432,-2.426515270174478,mp-1201786
LiSn2P3O10,3.7266,-2.426425320610119,mp-684493
Ba2SnSe3F2,2.0002,-2.426220983066406,mp-17805
LiEu2IrO6,0.0,-2.426162534333333,mp-11903
Na3ZnGe(PO4)3,1.7086,-2.426129452528324,mp-2715352
B10Pb3O20,0.2968,-2.425929469898988,mp-1182647
Na2NbIn3P4(SO12)2,2.0776,-2.425904063509169,mp-2712756
Sr6CaY2Ga3(Cu2O7)3,0.0,-2.425869422884616,mp-1218712
Na7Zn2Ga2P5SO24,3.627799999999999,-2.425858407204134,mp-2716043
Ga2B3O8,0.0,-2.425797115384614,mp-1195223
HoH2ClO2,4.7027,-2.425776653749999,mp-976713
Na2MgGeP2SO12,1.7694,-2.42576064348479,mp-2713620
Al10(Bi2O9)3,0.0,-2.425748600116279,mp-1334368
Mg7P2(HO2)8,5.121700000000001,-2.425599390584416,mp-699232
Cs3LaCl6,4.5801,-2.4254959104999982,mp-582080
BaNb6Bi6Pb2O27,0.9104,-2.425493880357144,mp-1228615
Bi7O5F11,3.9069,-2.425375946086959,mp-1190898
CsInAgF6,0.0,-2.425349598109834,mp-1225942
Sn2(PO3)5,0.0231,-2.425336844464285,mp-26950
BaLa2Br8,3.4905999999999993,-2.425248944545454,mp-771981
Ca2Mg2B4O13,0.0,-2.425194814722223,mp-1214382
ZnCu(SiO3)2,0.243,-2.4251888615,mp-1255465
Li9La12(SnO6)8,0.002,-2.425019624935065,mp-1223174
SrS,2.497,-2.42499030140625,mp-1087
K2SmCl5,4.779999999999999,-2.4249649378125,mp-1211774
K2TbCl5,4.9948,-2.424893526250001,mp-1211737
Na4Al3Ge3NO14,2.7976,-2.424855496420689,mp-720104
Ba(ErS2)2,1.721299999999999,-2.424812620714284,mp-1192439
Mg3B(HO2)3,3.4202,-2.424809097147436,mp-554719
Na6Y4In4Si3(S3O16)3,2.149,-2.424799566789764,mp-2713895
Cs2GdCl5,2.9185,-2.424784149062498,mp-1213731
CsK2IrF6,2.017699999999999,-2.424780316415517,mp-1112315
SrEuS2,0.0,-2.424662930156248,mp-1218296
K2PrCl5,4.8776,-2.424467699583335,mp-569967
KLa(SnO3)2,1.101,-2.424304004225,mp-1518996
Li4UC3O11,2.3004,-2.424256888991227,mp-935267
Sb2OF8,2.1494,-2.424074236136363,mp-758899
Rb2LiCeCl6,0.3224,-2.424015683833333,mp-1110683
TbH2ClO2,4.798500000000001,-2.423914251527777,mp-1102075
Tb9(SbO)5,0.0,-2.423901925526319,mp-556920
Li2CuF5,0.5496000000000001,-2.423879192291666,mp-762326
NaNb4Bi5O18,2.7554,-2.42387236290638,mp-1221019
LaCuO3,0.0,-2.4238557999999992,mp-3474
Na4Al3Si3NO15,0.379199999999999,-2.423809523096817,mp-1173748
CsLaMg6O8,2.427699999999999,-2.423796012790948,mp-1030982
ErBi2BrO4,1.357,-2.423718180625001,mp-546621
Na10Al4Ga4Si5S7O48,3.339899999999999,-2.42368801354222,mp-2715110
CsYSeCl2O3,4.4011,-2.423671558374865,mp-555160
EuTcO3,0.0,-2.423651901000001,mp-1184447
CsRb2DyCl6,4.4376,-2.423644735632183,mp-1113428
BiPb2F7,2.5946,-2.423558932000003,mp-1227492
Er2MgCu(GeO3)4,0.0,-2.42352377475,mp-2230096
Sr8CaCu4(ReO8)3,0.0,-2.4234768259375,mp-21652
NaSm2Cl6,0.0,-2.423434191264368,mp-676129
NaPOF6,0.4082,-2.423382928446908,mp-725680
Sr16Cu8O23,0.1691,-2.423118397127659,mp-759634
LaSnP(SO6)2,1.7712,-2.423080437331933,mp-2713103
LaBr3,2.9266,-2.423042803749999,mp-23263
Na14Mg5Si6Sn3(SO8)6,1.661499999999999,-2.423002266881834,mp-2714317
AcCuO3,0.0,-2.4228924235,mp-864606
LaEuS2,0.0,-2.4228392864062482,mp-1222958
Na3Mg8Ta4P3(S5O24)3,2.9417,-2.422773906570475,mp-2714283
Cs2TlRhF6,1.9056,-2.422730792264368,mp-1112340
MgSn2(PO5)2,2.548199999999999,-2.422655754285714,mp-1043442
Be3P2(H2O5)2,5.8582,-2.422602676015037,mp-24674
Ba2In2O5,0.919,-2.422391895925927,mp-20546
Na42Ta8Zn16Si21(S5O48)3,1.524899999999999,-2.422289389305275,mp-2715747
Ca3Bi2O7,0.0,-2.422252675833334,mp-1337097
Rb3NdCl6,4.5085,-2.422244261,mp-1110730
CsRb2TbCl6,4.4147,-2.422234976132183,mp-1110815
Li3Bi3(PO4)4,3.4719,-2.4221990730219782,mp-759263
Na6Zn3B9P6H3O38,0.0,-2.422164952728969,mp-1204092
Na3In2Sn2P5SO24,2.6829,-2.422143642113124,mp-2715982
Li3SiBiO5,3.2412,-2.422078969499999,mp-758245
As2HPbF13,4.6104,-2.4220691207352942,mp-758957
YbNbO3,0.0,-2.422019406250001,mp-1187578
Na2Cd3(P2O7)2,3.0538,-2.422010153101305,mp-555851
Nb2Si3Sn2(SO8)3,0.947099999999999,-2.4219237028186282,mp-2714018
Ba(TmS2)2,1.7438999999999991,-2.421872578928573,mp-1193579
Ba4PdO6,1.273,-2.421837189999999,mp-782050
Li2BPCO7,5.724900000000001,-2.421832775873016,mp-756641
Na4TiO4,3.3237,-2.4216694132056182,mp-14726
Mg6TiBiO8,0.105300000000001,-2.421606588333333,mp-1031351
K3Ti4Si3O20,0.0,-2.4215881601694442,mp-1194354
Na6TiZn3P4(SO12)2,2.229899999999999,-2.4215667671295162,mp-2712813
Na5TiGa3Si3(SO8)3,1.9246999999999992,-2.421513478681108,mp-2713489
Mg9Si10Pb8(CO16)3,0.0,-2.421479431923077,mp-1202494
Si6Cl10O7,5.6325,-2.421384107608696,mp-542214
Be3Cu2(SiO4)3,0.0,-2.4213157517500012,mp-1041184
NaLaSiSn(SO6)2,0.750799999999999,-2.421251839613666,mp-2712778
La(ErS2)3,1.060299999999999,-2.420968008,mp-973441
Ba(TbS2)2,1.7379,-2.42091323940476,mp-1193223
ThNCl,2.496299999999999,-2.420877790416663,mp-28065
La5SmS8,0.0,-2.420765690714286,mp-36088
LiTiRhO4,1.0782,-2.420648552380952,mp-1222352
Na2Ca(SO4)2,5.4849,-2.420641493289125,mp-6397
Ba(DyS2)2,1.7407,-2.4205534197619,mp-1193410
Ho2MgCu(GeO3)4,0.0,-2.42045605525,mp-2230345
LiBi2P3O11,3.5495,-2.420452006309524,mp-758810
Ba6Zn(InCl10)2,3.5151,-2.420263452011494,mp-569635
Na4Ga2Si2SO12,3.421299999999999,-2.420242330857964,mp-2714392
K2DyCl5,4.9233,-2.420241954687501,mp-1212062
Ba(HoS2)2,1.730699999999999,-2.420139293214281,mp-1193583
NaCa2Al2As2O11F4,0.0,-2.420130023017241,mp-1180232
Na5Mg2Ga2P3(SO8)3,3.2798,-2.4201008751707302,mp-2714809
Rb2NaCeCl6,3.9696,-2.42006482863793,mp-1110704
NaTa2Zn2P3(SO8)3,2.0073,-2.41999470111832,mp-2716467
Li2Bi(PO4)2,0.1674,-2.419988658919413,mp-25802
ThCl4,3.6452,-2.419985290999997,mp-567431
YMg6CO8,1.157599999999999,-2.4199077559375,mp-1031965
Sr4S3O,2.1115,-2.419770833437499,mp-1020578
Na2Cu3(SiO3)4,0.6186,-2.419738111440887,mp-649944
NaGa2P2O9,0.4061,-2.419577584690359,mp-1199836
Na10Si9Sn4Ge4(SO16)3,2.6039,-2.419574948157605,mp-2714032
YCuO3,0.005599999999999,-2.419534634000001,mp-1333124
CsTlF3,2.1858,-2.419469716,mp-1078203
Na6Ta4Zn4Si5S7O48,1.6033,-2.419408238875349,mp-2716067
MgZr(SO4)3,3.9888,-2.419400671715686,mp-2713981
NbTl2PO6,2.9021999999999992,-2.4192705497976212,mp-667345
Ca2IrO4,0.0,-2.4192389080952372,mp-540806
ZrP2H4O9,4.5283999999999995,-2.419237425111608,mp-1199622
Ce4S3NCl3,0.0,-2.419226975880669,mp-1191097
CaSb3P3O13,2.2614,-2.41911582344643,mp-1041203
Na4UC3O11,2.157,-2.419101136606168,mp-6046
Hf2Sb2Pb4O13,1.7838,-2.419035186428571,mp-1224490
Pr2PdO4,0.0,-2.418928786190476,mp-1209637
LaB5BrO11,0.009099999999999,-2.418854605879628,mp-1204863
Na9Mg10Ta2P3(S5O24)3,2.8124,-2.418840087599181,mp-2713229
Na4Mg2Al2SiS5O24,3.556499999999999,-2.418795090079401,mp-2713167
HoBi2BrO4,1.366499999999999,-2.418701072499999,mp-546625
K2YCl5,4.783200000000001,-2.41867705625,mp-1211533
LuCl3,3.8453,-2.418620403541664,mp-865324
Ba3CaBi2O9,0.250399999999999,-2.418579771666667,mp-1228277
K3BP3(HO4)3,4.8533,-2.418497385390692,mp-1202621
BaMg6SnO8,3.1129,-2.4184121903125,mp-1031535
CsRb2YCl6,4.422700000000001,-2.418319629465517,mp-1113327
CeP4NO12,0.0,-2.418304096587301,mp-1213804