formula,bg,formation_energy,mp-id
BaSr7Ti8O24,1.7462,-3.540151233916667,mp-1099778
Ba3La3Ti4NbO18,2.408299999999999,-3.539705683390805,mp-677222
MgSc4Ti2O10,0.0537,-3.53960803362745,mp-2229694
Y2BeAlBO7,4.9749,-3.539448107847221,mp-1216100
HoTiClO3,3.122999999999999,-3.539191923055554,mp-1212080
KLaCeHfO6,2.2193,-3.538930681475,mp-1523087
Rb2NaSmF6,6.3067,-3.538864388137931,mp-1206690
La3MgTi4O12,0.0,-3.5388488846666672,mp-2230892
Ca3ZrSi2O9,4.4939,-3.538771304166668,mp-15004
Ca2Y3Si3O13,0.0,-3.538746074761905,mp-732235
LiGd6B3O14,2.913999999999999,-3.538679029930556,mp-581285
PrHfO3,0.0,-3.538281837833332,mp-755462
DyTiClO3,3.1574,-3.538176204166665,mp-556108
LaPO4,4.486000000000001,-3.538097613829351,mp-3962
LiCa3Zr3TaO12,4.0214,-3.538013744533333,mp-677136
SmNbO4,3.5797,-3.5379609583333322,mp-14152
La4Ti9(Si2O15)2,0.0,-3.537716458510639,mp-562731
BaCaSbF7,4.5366,-3.537365607,mp-1041343
Eu2ZrTiO6,0.0034,-3.537095413333334,mp-1520462
KCeHf2O6,0.1491,-3.536659654724998,mp-1516402
CaEr4Zr4O14,0.0,-3.536556036521738,mp-1233281
TbTiClO3,3.155999999999999,-3.536463339999999,mp-1208319
Ba2HfO4,3.437,-3.536360435714286,mp-754363
Sr4Nd3Ta2Al5O21,3.194,-3.536336247490476,mp-1173209
MgU2O6,0.0,-3.536228935555554,mp-686040
KMgF3,6.953699999999999,-3.536225051449999,mp-3448
HfTlF5,4.7684,-3.535952055000002,mp-1212176
CaLaMgTaO6,4.185700000000001,-3.535297843233333,mp-684801
Rb3DyF6,5.906000000000001,-3.534895507416666,mp-1206146
LiSm6B3O14,4.5108000000000015,-3.534829584930555,mp-1211144
Ho4MgTi2O10,0.1138,-3.534712548333332,mp-2224439
K5Hf3OF17,0.807299999999999,-3.5344670562980762,mp-1203421
K2TiF6,4.7349,-3.534285907537046,mp-3970
NaSm9Si6(SO12)2,3.0002,-3.534186879318555,mp-1220974
BaSr4Ti5O15,1.804799999999999,-3.534173573266666,mp-1227710
EuTmO3,0.0,-3.5341094680000023,mp-1178346
Sr3UO6,2.213399999999999,-3.533912545000001,mp-3956
Ca6TiAl5Si6(O5F)5,2.863799999999999,-3.533616396319445,mp-695616
Sr6La2Ta3Al5O24,3.502600000000001,-3.5335284908,mp-676456
Y2SO2,2.9983,-3.5334685075,mp-12894
Ce2AlSi2O9,0.026399999999999,-3.533217721607143,mp-1202030
BaSr3Ti4O12,1.7434,-3.533106272666666,mp-1227688
KTi2F7,0.0,-3.532796269891666,mp-976271
SrCe2O4,0.0,-3.53247994142857,mp-770812
Y4AlSiNO8,3.9046,-3.532447881166666,mp-1020714
Y3Pb4F17,5.0725,-3.532225664375,mp-38916
BaTi2O5,2.8033,-3.532110458333396,mp-558159
LaGd(ClO)2,3.0539,-3.531898987500001,mp-1222800
Cs2LiScF6,6.6268,-3.531894355666664,mp-1113081
Y6TeO12,2.725399999999999,-3.531711268771929,mp-754359
NaPrHf2O6,2.8634999999999993,-3.531624702304597,mp-1518838
MgZr3U7O20,0.0,-3.531268589516127,mp-1234117
YZr5Si5PO24,3.9423,-3.531246652490079,mp-532768
Cs4NaHf3H2F19,6.8635,-3.531246392672413,mp-562542
Ba2Gd2Si4O13,0.122499999999999,-3.531209918333334,mp-1202971
RbPaO3,3.000999999999999,-3.5306131085,mp-1206844
SrLaMgTaO6,4.0756,-3.530157758733333,mp-1218203
SrSmAlO4,3.2398,-3.530090103571428,mp-1217962
Li2TiF6,4.3715,-3.530037228333332,mp-7603
ErClO,5.2575,-3.530002386666666,mp-755689
Rb2LiNdF6,6.6083,-3.529860740583333,mp-1110653
Eu2Zr2O7,0.0,-3.5298340995454542,mp-685944
Al2Si(O2F)2,5.6953,-3.5297768330555552,mp-6280
Ba6Y2Ti4O17,2.6243,-3.529738348735632,mp-16663
NaEuF4,0.374,-3.529517034396552,mp-1221406
GdNbO4,0.2072,-3.529169375833331,mp-19721
Nd4B4O11F2,5.1175,-3.529122400079364,mp-1202742
Ca2AlPbOF8,1.8579,-3.5288462249999992,mp-1227802
LaTiNbO6,2.7987,-3.528812414537038,mp-1222933
Ba3Y4O9,3.3201,-3.527433782187499,mp-15751
CaEr6Ta2O14,0.0,-3.5273606662898542,mp-1233755
PrTiO3,0.0,-3.5273397220000002,mp-753948
Ba3HfTa4O15,2.4646999999999992,-3.527083296492752,mp-1228378
Ca2Gd3Si3O13,0.0,-3.527054557619049,mp-1214310
Sr4Tm8MgO16,0.3681,-3.526929699137933,mp-1234297
Sm2EuBeO5,0.0,-3.52681868,mp-560512
Ba4Ti13O30,2.529499999999999,-3.526742619432624,mp-29298
K3ScF6,6.1606,-3.526572962674998,mp-1111079
SrCaZrTiO6,2.363999999999999,-3.526569539333333,mp-1520998
Nd4MgTa4Ti4O24,0.0,-3.526500644261261,mp-1234296
EuScO3,0.0,-3.525944883,mp-22487
Cs2NaNdF6,6.7399,-3.525873904818964,mp-1110981
Ba2La3Ti2Nb2O15,0.0,-3.525513741319445,mp-1214803
SmEuHfTiO6,0.0,-3.525504868333334,mp-1516992
Li2Lu5B3O13,4.4597,-3.525434384673912,mp-1210908
Y14Mg(ReO14)2,0.4357,-3.525405780666666,mp-1233722
Ca4Ti3O10,2.4425,-3.525216475588235,mp-15315
Sr3Zr2O7,3.0926,-3.525166010416666,mp-27690
CaNdHfTiO6,0.0,-3.524502328083332,mp-1521542
BaNdHfZrO6,0.0,-3.52449929975,mp-1516816
Dy4MgTi2O10,0.152199999999999,-3.5243326922549,mp-2229126
LaTa3O9,2.4693,-3.524297150153828,mp-757365
Hf3GeO8,4.55,-3.524203681249999,mp-1212158
DyBO3,5.3594,-3.524008406666664,mp-12315
Sr2LuNbO6,3.2094,-3.523785789166666,mp-1188959
Nd2Be2SiO7,5.0227,-3.523767822499999,mp-9077
CsLa2TaTi2O10,2.3295999999999992,-3.523692033978449,mp-1228957
NaSr8LaTi10O30,1.8021999999999991,-3.523510380394252,mp-695476
BaSrNd4O8,3.4682,-3.523416962142857,mp-1227531
SrLa2BeO5,3.830599999999999,-3.523112109722223,mp-1218277
Gd4B4O11F2,2.905,-3.522709323888887,mp-1203805
YBO3,5.1696,-3.5222596525,mp-29205
Ba7Sc6Al2O19,2.420699999999999,-3.522185413235294,mp-559325
U4O7,0.0,-3.52169336272727,mp-754893
Ba3Sr5Ti8O24,1.7531999999999992,-3.521579584416666,mp-1075943
La3GaO6,4.004399999999999,-3.521538328749999,mp-754150
RbLa2TaTi2O10,2.4697,-3.521493201968751,mp-1219619
LaBO3,4.500700000000001,-3.521145549833336,mp-8216
Ca3TiAl2Si3O13F2,3.1603,-3.521060034513889,mp-43114
BaGaF5,5.7568,-3.52080012857143,mp-541629
Eu2TmTaO6,0.0,-3.520545058733334,mp-1205480
NaNdHf2O6,2.8337,-3.52020239388793,mp-1516757
TmPO4,5.7221,-3.519950872440477,mp-5884
Lu2SeO2,2.0255,-3.519900169135417,mp-1206825
BaHf(SiO3)3,4.6887,-3.519879744642858,mp-1194160
CeTlF5,1.511,-3.519873931011908,mp-1213886
NaU3O8,0.0,-3.519768515948274,mp-1210061
LuPO4,5.9556,-3.519590600218253,mp-2940
Ba3Zr2O7,2.6976,-3.519513482083334,mp-755895
BaSrCeTiO6,2.1393,-3.519273123833334,mp-1522308
Gd2SO2,2.019399999999999,-3.519234681499997,mp-4805
Tm2SeO2,2.1129,-3.518511036468754,mp-753920
Rb3YF6,5.8525,-3.51837411625,mp-1113917
Ba2SmTaO6,3.3634,-3.518325293233334,mp-1214622
ErTa3O9,3.3727,-3.518206445538461,mp-756598
CaYBO4,4.3059,-3.517551614880951,mp-1213894
NdNbO4,3.6592,-3.517525249583331,mp-3901
SrNdAlO4,3.0255,-3.517478288214285,mp-1218150
HoTa3O9,3.3445,-3.517398720153846,mp-768585
Na5Al3F14,6.6649,-3.517319676590908,mp-4752
Ba5Lu2ZrAl2O13,2.5528999999999993,-3.517275125797103,mp-1214534
K2LiNdF6,6.379099999999999,-3.517252639533333,mp-1110836
BaLaAlO4,4.4355,-3.516998215357143,mp-16934
KSmHf2O6,2.7483,-3.516868117225,mp-1518329
YTiNbO6,3.167699999999999,-3.516640794537036,mp-1216120
Pr4B4O11F2,5.06,-3.5165279849206352,mp-1197562
Rb2LiCeF6,0.5522,-3.516280681833333,mp-1110655
Sr3La4O9,3.840699999999999,-3.516220070000002,mp-757624
CaThNb2O8,3.5626,-3.516040042499998,mp-1227121
Ca2ZrTi(SiO5)2,3.1228,-3.515864087083335,mp-1227799
Pr2MgTi4O12,3.0677,-3.515797810087718,mp-2231577
Hf3SnO8,3.5875,-3.5157363412500002,mp-761842
NaSr8NdTi10O30,1.7844000000000002,-3.515687375044253,mp-695470
Ba2Ti9O20,2.7396000000000003,-3.515651867903225,mp-560731
Ca2TiAlSi2O9F,3.2274,-3.515364937708334,mp-1227381
Cs2LiNdF6,7.055000000000001,-3.5153249379999982,mp-1110973
Cs3ScF6,6.2612,-3.515275244,mp-1214751
Y6Pb8OF32,4.0829,-3.514431159255318,mp-621825
Gd3GaO6,2.9661,-3.514320220749981,mp-3594
Sr2NdTaO6,3.700799999999999,-3.514202426983332,mp-1208759
LaAl3O6,4.1928,-3.5141365565,mp-1178115
LuTa3O9,3.302699999999999,-3.513836216820511,mp-756704
NaCeHf2O6,0.1448,-3.51365914813793,mp-1517130
BaTi4O9,2.7041999999999993,-3.5136086255952392,mp-3175
Sm3MgTi4O14,0.0,-3.513526241969697,mp-1219216
BaNd2O4,3.097299999999999,-3.513417046785715,mp-2892
BaSrTi2O6,1.7175,-3.513404691666667,mp-1227336
Na3Sr14La3Ti20O60,1.723199999999999,-3.5134036649580462,mp-1173878
BaTi5O11,2.6235,-3.513178326568626,mp-27790
Cs2NaCeF6,6.3611,-3.5131653070689652,mp-1110982
Cs2KPrF6,6.2956,-3.513127368822701,mp-1111021
La2MgZrO6,2.9647,-3.5129807365,mp-1223208
Rb2LiPrF6,6.547000000000001,-3.512924644999999,mp-1110652
YbTaTiO6,0.0,-3.512770012666667,mp-1215802
Ba2Nd2Si4O13,5.046200000000001,-3.512607946904762,mp-561462
Eu4Ti3O10,0.0,-3.512420362352943,mp-1212797
ErPO4,5.919600000000001,-3.512368879107143,mp-4006
Na2Ca4YZrSi4(O5F)3,4.6913,-3.512032591091954,mp-1210816
Ca2Nd3Si3O13,0.0,-3.5119923889285722,mp-1214181
Rb2NaNdF6,6.2143,-3.511915733387931,mp-1110646
Ca3Ti2O7,2.5302,-3.511848975138888,mp-4163
GdTiClO3,2.9895,-3.511843787222206,mp-1212518
YbTiO3,3.5867,-3.511420170583335,mp-753164
Cs2NaPrF6,6.6211,-3.511409330235632,mp-1110980
NaLa2TaTi2O10,2.3842,-3.511223246586206,mp-1220854
Cs3YF6,5.9892,-3.511185095999999,mp-1113151
NpF5,0.0,-3.5110735881250013,mp-1024969
K5ThF9,5.9691,-3.510994116083332,mp-27390
SmTiClO3,3.2107,-3.510568672222222,mp-555184
BaSr2UO6,2.2417,-3.510340954499999,mp-1227809
ZrPbF6,5.0238,-3.510055982500001,mp-7310
Cs2LiCeF6,0.529899999999999,-3.509958261264367,mp-1110975
U3H2OF12,0.025,-3.5097854454166653,mp-1202916
Ba2YbTaO6,0.0,-3.509662673483333,mp-7127
Sr3Ca(ClF)4,5.6609,-3.509411041250004,mp-1218392
K2AlF5,6.3239,-3.50936397743751,mp-9486
Ba2SrUO6,2.2855,-3.509292623,mp-14552
CaNd2BeO5,3.9495,-3.508804070277778,mp-1227167
Sr4Ti3O10,1.463099999999999,-3.508666600588235,mp-31213
YAl3O6,4.311599999999999,-3.5086665855,mp-768572
Cs3TbF6,5.745,-3.508558099000001,mp-696965
Ba2UTiO6,0.0,-3.508536928333332,mp-1205557
Ca2ScNbO6,3.1457,-3.508125961499999,mp-1214125
TiO2,2.0586,-3.5080554519444442,mp-390
HoClO,5.1804,-3.508023086666663,mp-29731
SmEuHf4O12,0.0,-3.507906706666666,mp-1517545
RbMgF3,6.9384000000000015,-3.507841387833333,mp-8402
CaEuZrTiO6,0.0,-3.5077811408333353,mp-1518717
Sm2Sc2O5,0.1795,-3.507752198333333,mp-1094091
K2TaF7,5.6081,-3.507735569683334,mp-3975
NdTa3O9,3.2129,-3.507712333807692,mp-28653
YClO,4.270700000000001,-3.507683659999999,mp-552120
Er2SeO2,2.1741,-3.507646208468746,mp-13975
Na3ZrF7,6.1421,-3.507537366818182,mp-36225
Ba2Sc2O5,2.851399999999999,-3.507443436666667,mp-755950
Ce3Si2BO10,0.0,-3.50728662440104,mp-558019
YTa3O9,3.3272,-3.507284730538463,mp-752515
CsU2O6,0.0,-3.507236939406129,mp-7322
BaCaSnF7,0.0,-3.5071795737500002,mp-1041385
NaMgF3,6.7529,-3.5070236325,mp-2955
Ba3Sr4B3O9F5,4.3528,-3.5069640359375,mp-1182538
Ba2LaTaO6,3.621299999999999,-3.506661578233334,mp-13055
Nd4Mg2Ti3(Si2O11)2,2.496,-3.506303025571427,mp-1173532
Ba2LuNbO6,2.847899999999999,-3.506273435666666,mp-12644
BaY6Si3B6(O12F)2,5.2315,-3.506243231547618,mp-554918
Ba2Sr2CaTi5O15,1.7732,-3.506235291266668,mp-1228440
NdEuHf4O12,0.0,-3.506148396250001,mp-1517911
Ba4Ti11O26,2.5309,-3.506091387479676,mp-1228496
HoPO4,5.9209,-3.5060350782738072,mp-4104
Ba4Ti12O27,0.0,-3.506029863139534,mp-15761
GdTa3O9,2.8954,-3.505951412076943,mp-770998
Na3ScF6,6.8442,-3.505929072,mp-4185
Yb2SeO2,0.0,-3.505927125312499,mp-13976
BaTi6O13,2.6401,-3.50576490425,mp-504457
Sr2AlCO3F5,5.4108,-3.505704666458333,mp-555467
Ba2PuPaO6,0.0,-3.505601646874999,mp-1205886
SrPrAlO4,2.9327,-3.505392873095238,mp-1217963
CaZrSi2O7,4.5532,-3.505057990454544,mp-7079
Ba5Tm2ZrAl2O13,2.493099999999999,-3.505004390434783,mp-1214492
NaCa9TaTi9O30,2.440699999999999,-3.504956888674252,mp-677027
Ba2SrTi3O9,1.8073,-3.504784299000001,mp-1228362
NaLa2TaO6,3.979199999999999,-3.504750970871265,mp-13019
Ca8Si4(O5F)3,0.1568,-3.5046839624999993,mp-1227334
Rb3HoF6,5.1981,-3.50467449775,mp-1206005
LaGd3(ClO)4,3.055299999999999,-3.5045051979166653,mp-1222917
BaBOF3,5.889299999999999,-3.504492372777778,mp-13680
Na3LiTi2F12,4.7751,-3.504474630507662,mp-1210400
SrZrSi2O7,4.7096,-3.504254258636362,mp-17468
KLaHfTiO6,2.3179,-3.503953114558334,mp-1516609
Ba4Bi3F17,5.0306,-3.503671891874996,mp-38357
LuSc(BO3)2,4.4627,-3.503524534,mp-1222283
NaPr9Si6(SO12)2,3.145599999999999,-3.503513225985223,mp-1221010
DyPO4,5.8933,-3.503172621884905,mp-5767
Sm3GaO6,3.6796,-3.503155579249986,mp-31110
Sr3LaTa3O12,3.247099999999999,-3.5031161008947382,mp-1218499
Rb2TaF7,5.6114999999999995,-3.5030581397333322,mp-1219778
PrNbO4,3.7546999999999993,-3.503020980277776,mp-4709
Sr5La6Nb4O24,2.9525,-3.50299420051282,mp-1218796
Sm2SO2,2.9166,-3.502992607500002,mp-5598
PrTa3O9,3.1742,-3.502792147974359,mp-558248
La2BrClO2,3.865100000000001,-3.502716710833333,mp-1223223
Na3Sr14Nd3Ti20O60,1.8384,-3.502696614333045,mp-695175
K3UF7,0.5994,-3.5025280962954533,mp-13897
Eu2ErTaO6,0.6359,-3.502433621733334,mp-1206839
BaCe2O4,0.0,-3.502290454642855,mp-778873
BaPrDyTiO6,2.639,-3.501999767666666,mp-1522037
Li4UF8,0.316199999999999,-3.501945456474365,mp-14169
NaSr3LaTi5O15,1.8593,-3.501803329321839,mp-40830
BaNdZr2O6,0.0,-3.501223184749999,mp-1521430
PrHfO4,0.1934,-3.5009848915277773,mp-778259
YbF2,6.7331,-3.500655691666665,mp-865934
Nd3GdZr4O14,0.0,-3.500378705113635,mp-1220577
TbPO4,5.8675,-3.500272270218253,mp-4340
Nd3U(ClO2)3,1.4161,-3.500149829423076,mp-558533
Sr2ScNbO6,2.9419999999999993,-3.500113502,mp-1208760
NaLaHfZrO6,2.4644,-3.4999847116379312,mp-1518151
Sr2Ta2O7,2.928,-3.499453334060604,mp-13664
Sr2SmUO6,0.6715999999999991,-3.499215577499998,mp-1206901
GdBO3,3.1001,-3.4990303481666643,mp-1194303
TmSc(BO3)2,4.434699999999999,-3.498891860333334,mp-1216586
Ca6Al7O16F,3.8751,-3.498796359666667,mp-1227337
KCa7Si3(O4F)3,4.7135,-3.498697325086538,mp-1202104
Nd2Ti3(ClO4)2,3.016,-3.498646601166666,mp-559560
Sr5Ti8O21,1.857899999999999,-3.498517601225491,mp-1202462
Pr3U(ClO2)3,1.423099999999999,-3.498356174615383,mp-556183
Ba5Sc6O14,3.8879,-3.498083378399999,mp-770836
LuSnF7,4.7352,-3.49806104324074,mp-1210917
Ca3Ti2AlSi3O14F,3.0113,-3.497703789027777,mp-43094
CeTiO3,0.0,-3.497674579666666,mp-754524
Sr25Ti39O103,1.9476,-3.497663491886227,mp-1198567
Rb2NaCeF6,0.280199999999999,-3.49756768263793,mp-1110664
Eu3Ti2O7,0.0,-3.49755177138889,mp-1212973
BaSm4Si3SeO12,2.540299999999999,-3.497301570111608,mp-39866
Sr4Zn3F14,4.784000000000001,-3.496607337857143,mp-28802
SrPr2O4,3.3444000000000003,-3.496288963333332,mp-29605
LaTi2Al9O19,2.9322,-3.496087226747312,mp-1197399
RbHfCdF7,4.9805,-3.496049352249999,mp-1209212
Na3CeF7,2.6973000000000003,-3.495887479012538,mp-38102
SrSm2BeO5,3.8531,-3.495696936111111,mp-1218081
KTiF4,0.0,-3.495621288222222,mp-21639
SmBeF4,0.0,-3.4954315966666663,mp-505432
NaSmHf2O6,2.7992,-3.495366459637931,mp-1519393
Sr3Ti5O13,1.8868,-3.495266166079365,mp-1197629
Lu3Mg2(SiO4)3,0.0,-3.49519016075,mp-1211091
CsY3O5,3.8051,-3.495141794406131,mp-771163
NaLaHfTiO6,2.359299999999999,-3.495079097971265,mp-1516496
Ho2SeO2,2.1517,-3.494920356468746,mp-13974
Ba2Zr2(SiO4)3,4.2351,-3.4948259459210522,mp-1214740
Rb2NaPrF6,6.1649,-3.494609592804598,mp-1110663
Ba5Ce4YO15,0.0,-3.4945763141999993,mp-1228532
SrGaF5,5.6513,-3.494510683035715,mp-1208823
Ba5Er2ZrAl2O13,2.5871,-3.494424863043479,mp-558566
Sr15Ti23O61,1.8133,-3.494360285521886,mp-1201432
Ca4ZrTi3(SiO5)4,3.0056,-3.494323240000001,mp-1227178
LiNd6B3O14,4.4113,-3.4942875499305552,mp-1211241
Ba2NdTaO6,3.4981,-3.493614462483332,mp-1205600
K2LiCeF6,0.5647999999999991,-3.4934336157833332,mp-1112201
Na2TiF6,4.1813,-3.493224182899106,mp-556024
PuO2,0.0,-3.493067072916661,mp-1959
Eu3Sc2Al3O12,0.172899999999999,-3.492927743375,mp-1213328
Eu5Si3O12F,0.0,-3.492860900952382,mp-558207
ErSc(BO3)2,4.449,-3.492578397333333,mp-1225475
Sr3Ti2O7,1.8404999999999991,-3.4925284151388603,mp-3349
Ba2TmNbO6,2.8502,-3.492432531000001,mp-12642
BaTiO3,2.292999999999999,-3.492277977666666,mp-5777
Ca4Ti3AlSi4O19F,2.975799999999999,-3.492195948906249,mp-534953
Sr2CeO4,2.2243,-3.49213323142857,mp-15743
Pr2Ti3(ClO4)2,3.037099999999999,-3.4920096560555582,mp-554363
La2Be2O5,3.9238,-3.491867624444444,mp-28072
Ba3Ta4Ti4O21,2.1932,-3.491660836802084,mp-1228489
Rb3TbF6,4.7825,-3.491526111916666,mp-1205915
Y3Si3O11,0.184899999999999,-3.49149591117647,mp-727913
La2SeO2,2.4067,-3.491444638468752,mp-7233
KNaMg2F6,6.3905,-3.49061268786293,mp-1223318
LaSnF7,5.2136000000000005,-3.4903794819444443,mp-18566
SrGd2BeO5,2.225899999999999,-3.490066594444444,mp-1218337
Sr2CeTiO6,2.2495,-3.490021248333333,mp-1522630
NaSr2LaTi4O12,1.8638999999999992,-3.489859179485633,mp-1220889
Rb3GdF6,4.569599999999999,-3.48973538425,mp-1205532
Ce4SnO10,1.8258,-3.489698109,mp-1226854
SmClO,4.876199999999999,-3.4895537783333332,mp-27823
Sm5Si3NO12,2.2611,-3.489409555476191,mp-1208747
Ba2Ti6O13,0.0,-3.489347677857143,mp-7733
Ba3NaY3(Si3O10)2,4.8815,-3.489300113072101,mp-1019523
Dy2SeO2,2.1479,-3.489225997135413,mp-769284
TmBO3,4.5062,-3.4889196768333353,mp-760484
ZrTlF5,4.8808,-3.488529985119052,mp-30997
Rb3SmF6,5.6869,-3.48842949875,mp-1205612
SmBO3,5.2713,-3.488289486333333,mp-8627
MgScAlO4,4.243,-3.488216215714285,mp-1221961
BaSrTa2O7,2.1929,-3.487807100424242,mp-559151
K2RbScF6,5.8541,-3.487620787699999,mp-1111114
SrTa2O6,3.2307,-3.487587180518501,mp-17715
BaLa2BeO5,3.887,-3.4875613502777782,mp-18414
Li3AlF6,7.7827,-3.487262210833333,mp-15254
BaTiZnF7,0.244299999999999,-3.487234883333333,mp-1041319
HoSc(BO3)2,4.4611,-3.487005784833333,mp-1223873
BaUO3,0.0,-3.486460204999997,mp-35730
Eu2Y2O5,0.0,-3.486352256666668,mp-771309
KNa3Mg4F12,6.57,-3.485649473069396,mp-1223410
CeTiNbO6,0.0,-3.485640598148148,mp-1227002
Ca6Ti5AlSi6O29F,2.4854000000000003,-3.485607767951389,mp-693358
Ba2Ti11O24,2.574,-3.485564316666666,mp-768357
Sr2TaAlO6,3.577,-3.485361415733332,mp-1205594
Ca4Ta2O9,3.983499999999999,-3.485215908977782,mp-769317
Ca4La2Zr4O15,3.0637,-3.485150941,mp-1227770
BaTi8O16,0.0,-3.4851504418666672,mp-759489
YbClO,0.0,-3.484970913749999,mp-546292
Ba3Al2Cu2F16,0.5940000000000001,-3.484928174130434,mp-556036
CsRb2ScF6,5.8718,-3.484884353965517,mp-1111453
Sr2Ti6O13,0.0,-3.484832575952382,mp-540640
La3Tb(PO4)4,4.7001,-3.484662606676586,mp-1223146
SrNdZrTiO6,0.0,-3.484470746083333,mp-1518683
NaSr3NdTi5O15,1.915699999999999,-3.48443669682184,mp-703275
Ba8Ce7YHO24,2.0421,-3.484313435884146,mp-695164
Ba5Ho2ZrAl2O13,2.5553,-3.484122804565217,mp-1214508
Ba2CeTaO6,0.0,-3.484094686733333,mp-1078874
CaTaAlO5,3.900699999999999,-3.484082552166667,mp-15733
K2NaNdF6,5.990500000000001,-3.48382779633793,mp-1110831
Tb2SeO2,2.1407,-3.483487203135416,mp-755340
Li3La5Ti8O24,0.0,-3.483377848291667,mp-1177671
Y3NbO7,2.2167,-3.483086835454544,mp-676261
RbLa2Ti3O9,0.0,-3.483021862833334,mp-1219600
BaMgBiF7,5.342099999999999,-3.48298598675,mp-1041248
Na2LiScF6,6.059800000000001,-3.482679924109195,mp-1113900
UF6,2.7943,-3.482456654642856,mp-2275
Ba3ZrTa4O15,2.4404,-3.482010709318841,mp-1228281
CsTiF4,0.0,-3.4819222892480792,mp-504701
Ba6Ta9Ti7O42,0.0,-3.481358380458333,mp-773060
La2Tb2O7,0.0,-3.481307855757575,mp-755226
Ba3NaSm3(Si3O10)2,4.63,-3.4812814080721,mp-1195058
SrGdZrTiO6,0.0,-3.481155856333333,mp-1523038
CaPr2BeO5,3.8285,-3.481037730648148,mp-1227164
CaTa2O6,3.473899999999999,-3.48066448774074,mp-18229
Li2La2Ti3O10,1.7706,-3.480496879215687,mp-9406
Ba3Ti20O40,0.0,-3.480469158201059,mp-531527
CsRb2YF6,5.4863,-3.480309745465517,mp-1113328
EuUO3,0.0,-3.4801527695,mp-1213318
Ca7NbSi4O17F,3.5509,-3.479967510333332,mp-542863
Ba2ErNbO6,2.854199999999999,-3.479930908,mp-6653
Na3UF7,0.0636,-3.479903446363616,mp-35589
K2Ta2(OF2)3,4.012,-3.479900063974358,mp-6651
Ca2ZrTiO6,2.393299999999999,-3.479441290333334,mp-1518628
Ba3NaGd3(Si3O10)2,3.3773,-3.479348232314525,mp-1194728
UTlF5,0.2663,-3.47908919017857,mp-27382
SrCeAlO4,0.0,-3.479069572857142,mp-1218323
Sr2MgUO6,2.1157,-3.478906272999999,mp-972112
Na3Sr4La3Ti10O30,1.9423999999999992,-3.478862383449426,mp-695582
Ba6Nd2Ti4O17,2.6869,-3.478709774942529,mp-16662
GdClO,3.0355,-3.478307646666665,mp-23050
K3SmF6,5.7545,-3.478113902674999,mp-1205731
TbGd(PO4)2,3.407299999999999,-3.477970189662697,mp-1217539
CaTi3O7,2.8507,-3.477893444318181,mp-1043835
Sr5Ta4O15,3.044399999999999,-3.477598544763891,mp-769582
YPO4,5.8009,-3.477044902440459,mp-5132
Ba4CaTi5O15,1.714699999999999,-3.4769844636666662,mp-1228091
Ba2ScNbO6,2.5719000000000003,-3.476908679499999,mp-1206644
Ca2SiO4,4.199400000000001,-3.476631411785713,mp-4481
Ba3Bi2F12,5.0986,-3.476529334705882,mp-675179
CaTiSiO5,2.985499999999999,-3.476201650416667,mp-6109
Na2LiYF6,5.4375,-3.476040767166667,mp-1110628
Ba2AlSn2F11,4.2139,-3.475678861354167,mp-1044546
Ca6HfO8,4.1479,-3.475491640666666,mp-755421
Eu4O3F7,0.0,-3.475199790000001,mp-753354
Nd4GeO8,3.6231,-3.475190156538476,mp-559014