formula,bg,formation_energy,mp-id
MgSn2O5,1.783299999999999,-2.319047336249999,mp-1042980
Na6P2H2O9,4.5958,-2.319024227108504,mp-722834
Na5TaO5,2.538,-2.318986056293624,mp-8957
Na4Al3Ge3NO15,0.0108,-2.318953557712201,mp-1265310
La39Se56,0.0,-2.318870057236841,mp-684726
Na3P3HO9,3.429999999999999,-2.318648640582282,mp-1210495
La4Ru6O19,0.0,-2.318610322931035,mp-541611
Na3MgInSi(SO6)2,2.143799999999999,-2.318609561873563,mp-2712571
RbErO3,0.0,-2.3186068585,mp-975361
Nd3S2Br5,2.849999999999999,-2.31846421375,mp-28297
NaPr2Cl6,0.0,-2.318369315679013,mp-1220950
GdBr3,2.2701,-2.3183582925,mp-27182
Cs2KEuCl6,0.0,-2.318157430156035,mp-579605
K3Cu2P4HO14,0.3251,-2.3181469421488092,mp-695887
BaSeO3,3.886599999999999,-2.3180791194687482,mp-6989
Ti5Zn4(TeO6)3,0.0,-2.318048835222222,mp-1046481
Sm2(SeO3)3,3.9313,-2.318048796216519,mp-559755
CaCu2(P2O7)2,0.5428000000000001,-2.318035064693876,mp-1359845
CaAl2(SiO6)2,0.631,-2.317959178088235,mp-1182213
Na10Ga4Si7Ge4S5O48,1.7498,-2.317850328050766,mp-2715947
NaInSnP2SO12,2.2761,-2.317781180916575,mp-2712772
TcOF4,0.9928999999999992,-2.317763470555554,mp-27477
Na10Ca4Ga4Si3(S3O16)3,1.357299999999999,-2.31772544189692,mp-2714784
Na2Lu3Te4(IO4)3,2.2596,-2.317717781851058,mp-1204668
Na4MgSi3Sn3(SO8)3,0.1937,-2.317703548456595,mp-2713670
Na2Y4Ga4SiS11O48,1.473,-2.317694982551314,mp-2714220
Na9Mg11Nb(SO4)18,0.888799999999999,-2.317358196598323,mp-2715089
K3LuB2(PO7)2,0.1966,-2.317328605274351,mp-1181370
SrMgO3,0.0,-2.317325252,mp-1187182
La3LuSe6,0.484499999999999,-2.317303534104167,mp-645695
Na6Ca6SiGe2S11O48,0.068899999999999,-2.317231472893367,mp-2712570
ScP(H2O3)2,4.9028,-2.317190386220238,mp-543042
KCu3P3(O4F3)2,0.096399999999999,-2.31710733767517,mp-1198047
KEu2Cl7,0.0,-2.317046840975001,mp-1211760
Na3MgZnP(SO6)2,4.2108,-2.317039215439039,mp-2713979
Mg3H2(SO5)2,5.571,-2.316994184852941,mp-1210916
Sr2YCu2BiO7,0.0,-2.316982402692308,mp-1046226
KGdO3,0.0,-2.31694479045,mp-1184987
Na14Ca4Zn4Si3(S3O16)3,2.536699999999999,-2.316911233131834,mp-2714428
K15P16Pd9O56,0.0072,-2.316542411594121,mp-1212473
Na10In4Si7Sn4S5O48,1.6843,-2.316499133990937,mp-2716039
Ca5As3CO12,0.7066,-2.316473752261904,mp-1214089
NaSbCO2F3,3.0893,-2.316412064547413,mp-554716
LaTmS2,0.0,-2.316397452656247,mp-1222701
K2NaDyCl6,4.9377,-2.316064322749999,mp-1111648
Ca9La5Br33,2.9637,-2.316049757553191,mp-782009
CaSe,2.0728,-2.315957819531251,mp-1415
Nd3S4,0.0,-2.315950556249999,mp-2656
Na2Pr4Br9NO,3.3379,-2.315867572319134,mp-684783
Li2B4H4O9,5.145,-2.3158437578070172,mp-604459
Na6La4Zn4SiS11O48,3.8256,-2.31572635951499,mp-2712806
SrSeO3,3.7027,-2.31565746346875,mp-3395
Na2AlZnP(SO6)2,4.310700000000001,-2.315609364512359,mp-2713471
K2TlAgF6,0.4485,-2.315529212949999,mp-1112272
Ca3Tl2O6,1.204699999999999,-2.315511137878787,mp-9216
Na7AlH2C4(O3F)4,4.805499999999999,-2.3155021367385062,mp-707443
BaB2S3O13,6.4104,-2.315444543201754,mp-1019539
K2LiDyCl6,5.0198,-2.315434673166665,mp-1111259
Cs4U(Ge2O5)4,0.012199999999999,-2.315359221321839,mp-1198094
CeScS3,0.0,-2.315307633187498,mp-20953
CaP2(HO2)4,5.6524,-2.315182552619047,mp-24361
Na6Sc4Zn4SiS11O48,3.9051,-2.314889897217693,mp-2712544
LaAuO3,1.797699999999999,-2.314873115500002,mp-28853
LiGaPO5,0.070799999999999,-2.314866909434523,mp-1210856
Ba4Mg(BiO4)3,0.0,-2.314841754749999,mp-1147558
Na2La4In4SiS11O48,1.1101,-2.314786729694172,mp-2714207
Mn2V(PO5)2,0.0,-2.314729307843186,mp-725694
K2NaYCl6,4.9526,-2.314701851499999,mp-1110860
Rb2MgNb2(TeO6)2,2.3688,-2.314617216491227,mp-1233161
CaU2Si2H12O17,1.9307,-2.314318699999999,mp-730691
Na7NbZn3Si3(SO8)3,0.8315999999999991,-2.31431368549972,mp-2714104
KCOF3,6.3741,-2.314146117875001,mp-1211696
LaCuSeO,1.5380999999999991,-2.314142779335937,mp-552488
Sr2SnSe3F2,1.447899999999999,-2.314096016210941,mp-17057
Pb3IF5,3.1169,-2.314065804999999,mp-1220040
K2LiYCl6,4.9248,-2.313966253916665,mp-1110863
CsK2ScCl6,4.0703,-2.313783583915517,mp-1112309
CsMgCl3,5.126099999999999,-2.313710576931034,mp-23004
Sb2(PO4)3,0.0,-2.313648000231092,mp-772303
LaTeCl,0.8821000000000001,-2.313628914722223,mp-1103189
Tl3GeF7,3.5864000000000003,-2.313548461363638,mp-1208140
NaNbIn3P3(SO8)3,1.561,-2.31352776784213,mp-2716429
Ti2Si(H2O3)3,2.8953,-2.313504962453704,mp-1203710
K2NaTmCl6,4.9718,-2.313449095083332,mp-1111615
Rb3EuCl6,0.3451,-2.31343439475,mp-1210383
K4SiO4,2.9391,-2.313345275166666,mp-18700
Ca3Cu2(ClO2)2,0.0,-2.313304971818181,mp-23095
EuMgBiSbO6,0.0,-2.313295919,mp-1523017
CeEr4S7,0.0,-2.313295308541664,mp-1226714
Er3ScS6,1.017099999999999,-2.313283950187499,mp-1225623
K2LiLaCl6,4.554,-2.313241128666663,mp-1111257
LiGa5O8,2.8766,-2.313177789702379,mp-28146
Mg3Si3(AgO6)2,0.125899999999999,-2.313168367166665,mp-1154476
Be3Si3(AgO6)2,0.0,-2.313130181791666,mp-1041173
K2NaLaCl6,4.6105,-2.313077244249997,mp-1111139
NaCuF3,0.080899999999999,-2.3130719495,mp-17869
Na2TaGa3Si2(SO6)4,2.1874,-2.313059539331259,mp-2712663
Tm2Te4O11,3.2247,-2.313014958627451,mp-557354
Cs2YAuF6,2.0605,-2.3129444361666742,mp-1113108
K2NaTbCl6,4.9113,-2.31291194625,mp-1111622
LiReO4,4.0299,-2.312902794305549,mp-540946
LiCu(PO3)2,2.391499999999999,-2.312853813761904,mp-25975
Er2CO7,0.0,-2.312847673249999,mp-1213505
Na2BiBPO7,0.0292,-2.312612494714011,mp-771773
HoMg(BiO3)2,0.0,-2.3125847475,mp-1049207
PrCuO3,0.0,-2.312583337333333,mp-1186515
MgTi2(CuO4)2,0.223499999999999,-2.312563503974359,mp-1040904
Ce2Nb2S7O30,0.6364000000000001,-2.312538049085366,mp-1199771
LiBiF6,2.5394,-2.312456967708334,mp-27419
K2LiTbCl6,4.9973,-2.312443396666667,mp-1110864
Rb2CdSiO4,2.4877,-2.312390830312499,mp-558568
Sc5NCl8,0.0,-2.312348066428572,mp-31025
BaNb4O14,0.0,-2.312319424210525,mp-1227948
TiBeO3,0.0,-2.312304958666666,mp-1187465
Sn6P7O24,0.0,-2.312303060608108,mp-684053
NaSb2(OF3)2,0.3018,-2.312080714443574,mp-1202286
Na4Zn2P2SO12,3.7121,-2.312022066617602,mp-2712922
Tl3GaF6,3.327699999999999,-2.311866914,mp-1205554
Na6Si7Sn8S5O48,1.241199999999999,-2.311859195708684,mp-2712888
Na2BeSi4(H4O7)2,5.3614999999999995,-2.311755324060642,mp-1198346
CaSm2S3,0.0,-2.311452210416664,mp-1227043
Lu2Te4O11,3.221199999999999,-2.31137674235294,mp-542676
Tm15S22,0.0,-2.31135916434122,mp-637631
La(SbO3)3,1.486399999999999,-2.311320759615384,mp-31418
Li2SO4,6.0132,-2.311269196666666,mp-4556
K6Cu(SiO4)2,0.5214999999999991,-2.311137563147058,mp-560675
RbSm2Cl5,0.4274,-2.311111634375001,mp-1209270
Ba2Li(CO3)2,0.5032000000000001,-2.311077935757575,mp-1235375
Ca(SnO2)2,1.659899999999999,-2.310803095714285,mp-1041556
Na2InPCO7,2.7683,-2.310784772005677,mp-767521
Na3Mg3SnPS5O24,2.3227,-2.310723696385968,mp-2712574
Ti3P4NO18,0.097999999999999,-2.310722531675825,mp-1193813
NaZn2(PO4)2,0.0,-2.310709000820386,mp-1210074
Na4ZnSi2GeSO12,1.157699999999999,-2.310689966810345,mp-2714530
CeTm4S7,0.0,-2.310629884626619,mp-1226595
KLi2AlSi4(O5F)2,0.8465,-2.310591513895833,mp-735824
NdBr3,2.9221,-2.310550521874999,mp-27975
Tb3Sc2S7,0.0,-2.310499528307291,mp-1217634
Nb3(BiO3)5,1.267199999999999,-2.310411621086957,mp-645592
Ba2MgBiSbO6,0.9859,-2.310331183181818,mp-2239985
Cs2YTlCl6,4.3248,-2.310220579264368,mp-1112103
K3LaCl6,4.5674,-2.310153578625005,mp-1111424
Sr2YTlSn2O7,0.0,-2.310093294487179,mp-1045690
K2PuCl5,0.060799999999999,-2.310087857906251,mp-29334
K2BeSi4O13,0.355,-2.310085956475001,mp-1202842
Sm2MgCuO4,0.0,-2.310085355624999,mp-2227895
CaGdS2,0.0,-2.309933796406248,mp-1227084
BaYMgCu2O5,0.0,-2.309898804999999,mp-2215844
Ba5Bi3O11,0.0,-2.309896726052632,mp-753124
Na10Ca4Si5Ge4S7O48,0.0,-2.309879688328544,mp-2715014
Na2La4Ga4SiS11O48,1.808,-2.309852075456076,mp-2714312
La3Se4,0.0,-2.309851330892854,mp-491
Na10Zn2Si7Sn6S5O48,1.6086,-2.3098444392046122,mp-2714061
ScTl(SO4)2,4.2982,-2.309728699444444,mp-1208994
Na14Ti2Zn6Si5S7O48,1.2427,-2.309677666119639,mp-2715996
Ba5Pt2O9,1.6295,-2.309565526354167,mp-29787
SrAl3PSO14,0.0,-2.309499231107141,mp-1218535
Er2Te4O11,3.2333,-2.309469661274509,mp-581795
CaP3NO9,2.0891,-2.309446667959184,mp-1182752
U2GeO10,0.0293,-2.309445687692307,mp-1193054
LiCuP4O11,0.3436,-2.309414955553221,mp-780764
K3TbCl6,4.6505,-2.309309644624997,mp-1110877
Na4Mg3SiSnS5O24,1.8956,-2.309283724816244,mp-2713364
TiTlAsO5,2.8120000000000003,-2.309175717552085,mp-1208295
Na2CaSn2(GeO4)3,2.495199999999999,-2.309094244262931,mp-677095
BaSr2In6O12,1.8143,-2.309081234761904,mp-1227894
Rb2TlIrF6,2.2131,-2.309065975833336,mp-1113862
K2LiTmCl6,5.0647,-2.309047029316664,mp-1111657
RbGdO3,0.0,-2.3090469385,mp-975308
Th(SeO3)2,3.936,-2.308958309687499,mp-1195659
K14P16Pd9O56,1.1907,-2.308884926376691,mp-1224722
Cs6Ho21S34Cl,1.9586,-2.308875774644053,mp-1199243
SrNb4O14,0.0,-2.3087917184210522,mp-1218198
YBi2IO4,1.3836,-2.308525149375,mp-551816
Na6Zn3SnP4(SO12)2,2.7135,-2.308498134754515,mp-2712805
Na3Mg5Nb(SO4)9,1.4450999999999992,-2.308404920585888,mp-2714163
Na2NbO3F5,0.379499999999999,-2.308354648887147,mp-1221347
Na4Ca2Ga2SiS5O24,1.8653,-2.308226446965366,mp-2713474
Pr3S4,0.0,-2.308158446607144,mp-1449
Sc2SiSn2S5O24,2.0276,-2.308120350220589,mp-2712844
Li5ReO6,2.158299999999999,-2.3080890799305562,mp-5061
PmS,0.0,-2.308025775156249,mp-1232235
Cs6Dy21S34Cl,1.9469,-2.307999552385983,mp-1197810
Na4MgZnSi(SO6)2,3.338199999999999,-2.307984283040503,mp-2713107
Sr4Ru3O10,0.0,-2.307923671470588,mp-680680
Na2PrO3,0.0,-2.307863043237547,mp-1221326
Ba3La3Pr3Cu9O22,0.0,-2.307833212249998,mp-1229252
K2SbAuF6,0.6938000000000001,-2.307818189449999,mp-1111960
Na30Nb8Zn16Si15(S7O48)3,1.5138999999999991,-2.307558636106322,mp-2715106
Na2Ca3Sn(SO4)6,0.027499999999999,-2.307417633965517,mp-2714031
Na4Ca2In2SiS5O24,1.877199999999999,-2.307401630605717,mp-2713130
Y3Bi(Ru2O7)2,0.0,-2.307355839999999,mp-1216097
LiRuF6,0.9999,-2.307306563958333,mp-1078834
Li3CuSiO4,0.8401000000000001,-2.307222163333333,mp-758844
NaMg3Ta(SO4)6,0.7876000000000001,-2.307181014344171,mp-2714783
NaGaGeP2SO12,2.297,-2.30714475624065,mp-2712637
CaSeO3,4.2602,-2.306927035968752,mp-557997
MgSb3XeF23,1.6103,-2.306906462946429,mp-1195096
Ce2SmS4,0.0,-2.306690040714284,mp-37045
Li2CuPO4,1.3886,-2.30660807422619,mp-26851
La2US5,0.0,-2.306597125820314,mp-1199162
ScB(PO5)2,0.282599999999999,-2.306497367865646,mp-1209202
Na2Sc4Ga4SiS11O48,2.0285,-2.3064488402656,mp-2714050
K3CO3F,3.8463,-2.3063843745937502,mp-8773
LiAsH2OF6,4.1762,-2.306358966666667,mp-697263
TmGeO3,0.0,-2.306310488000002,mp-1187655
Cs2NaEuCl6,0.0,-2.306261582568966,mp-1112989
PrBr3,3.429599999999999,-2.306216135416666,mp-23221
KHoO3,0.0,-2.306167295449999,mp-1184944
Ho2Te4O11,3.239499999999999,-2.3061196877450962,mp-542514
Nd2As6Xe5F46,2.7183,-2.305996859322033,mp-559792
Gd3ScS6,0.389599999999999,-2.305975704187497,mp-1213337
CsLaZr6CCl18,1.420399999999999,-2.305923738876117,mp-1213380
Na10Mg4Si5Ge4S7O48,0.7039999999999991,-2.305847098926835,mp-2714927
Mg2BiAsO6,3.342399999999999,-2.30577103775,mp-561518
Dy3Sc2S7,0.0,-2.305764987890624,mp-1095468
Gd6CoCl10,0.0748,-2.305758397058821,mp-1205464
NaAl(SO4)2,5.7223,-2.305674947198275,mp-1210191
KY(TeO3)2,3.1251,-2.3055569965583342,mp-1194980
EuSbO3,0.0,-2.305380654,mp-976284
YBr3,3.9764999999999993,-2.30537281125,mp-754815
Na3Ca2Ga2PS5O24,3.0541,-2.305337421476058,mp-2712770
NaCe5S8,0.0,-2.305294415178569,mp-37496
Na2InHgF6,0.0,-2.305226996083327,mp-1111168
NaYIrO4,0.0,-2.3052231640065672,mp-1220760
KCa2(SiO3)8,0.0,-2.305139551635713,mp-1224857
K2NaErCl6,4.9656,-2.305135810416666,mp-1111647
Ba4In6O13,0.4395,-2.305135242826086,mp-622930
LiBi3(PO5)2,3.4898,-2.305099428913691,mp-26173
Pr2B12Br2O27,0.3813,-2.305085453217054,mp-1220740
Mg3Sb2O7,0.1203,-2.305084731249999,mp-1366744
Nb4AgBi5O18,2.140799999999999,-2.305072142916668,mp-1220551
Dy2Te4O11,3.2417,-2.305057676470586,mp-510342
Re2P2O11,0.5705,-2.304902737285715,mp-647218
K3TbGe3(HO5)2,3.9615,-2.304897230969298,mp-1194662
ZnSn3(P2O7)2,2.299,-2.304894409480518,mp-1047501
AlAgO2,1.4090999999999991,-2.304877096666654,mp-9631
KLaH2S2O9,4.4236,-2.304812567872222,mp-1195845
Na2Ta4Zn4Si3(S3O16)3,1.444699999999999,-2.304666013803695,mp-2716451
Ho3Sc2S7,0.0,-2.304558512890624,mp-1224056
CeNdS2,0.0,-2.304540925781246,mp-1226502
KZrSnBiO6,0.9464,-2.304411266225,mp-1521463
Li2InCuF6,0.0,-2.304409231333333,mp-1111100
EuICl,0.9204999999999992,-2.304390005833335,mp-1212725
Li6Ge2O7,4.0291,-2.304357834999999,mp-27968
Na2Al2Si3O14,1.465799999999999,-2.304352385607552,mp-1204609
Ba(LaSe2)2,1.7602,-2.304316377767856,mp-37741
Na3Al2(AsO4)3,3.386,-2.304288524956897,mp-556676
BiP2O7,0.0,-2.304206742928571,mp-26210
Tb2Te4O11,3.2498,-2.30415422764707,mp-31245
KMgPO5,0.312899999999999,-2.304152933361607,mp-1189282
ZnAg(PO3)3,3.2081,-2.304116618435373,mp-14260
TiZn(GeO3)2,2.0297,-2.304061655583333,mp-1042969
CsCaBr3,4.3923,-2.304029258931034,mp-30056
LiCdBO3,2.115599999999999,-2.30400035625,mp-6126
Na6HfZn3Si2(SO6)4,3.04,-2.303989921956897,mp-2712740
K2LiErCl6,5.0496,-2.30397318025,mp-1111256
La2Te4O11,3.350099999999999,-2.3039301762745112,mp-31249
LiHf8(N2O)4,0.0,-2.303892015873015,mp-1235358
Na24Nb2Zn10Si9(SO8)9,1.4658,-2.303856110719076,mp-2715066
Cs2AgF4,0.185,-2.303777902142857,mp-510565
Na3Ca2In2PS5O24,2.9575,-2.303679482331913,mp-2712728
Sb(PO3)5,0.214399999999999,-2.303629957772108,mp-1101485
Na14Zn4Si7Sn4S5O48,1.756999999999999,-2.303588911302565,mp-2715625
Ca3CuRhO6,0.0,-2.303566461363636,mp-558434
Na6Bi2B4PO16,0.0,-2.3034910930891512,mp-780229
Cs2RbEuCl6,0.0,-2.303289740181035,mp-1112519
Cs2LiEuCl6,0.0,-2.303256872764368,mp-1113199
MgBi4(PO6)2,3.051299999999999,-2.30320741706767,mp-1199340
KPrInSbO6,1.190599999999999,-2.303195071558333,mp-1519279
TiSiAg2O5,1.334,-2.303131396296296,mp-1094028
Na6CaSi6Sn7(SO8)6,1.168499999999999,-2.30311187344517,mp-2714871
LaAgSO,1.3631,-2.303094082291666,mp-6625
Na6B4Sb2SO16,0.0,-2.303078135084224,mp-780353
Sr5(ReO3)12,0.0,-2.303030494905662,mp-758599
NaNbSi3Ge3(SO8)3,1.8353,-2.303026104253696,mp-2713842
Bi6B10O21,1.3126,-2.303020201531532,mp-768871
SmGdS2,0.0,-2.302930077500001,mp-1219007
Dy3S3N,1.3945,-2.302916352098212,mp-556247
Na2La4Si3Ge4(S3O16)3,0.0,-2.3029156757656,mp-2716378
CaClO,0.6506000000000001,-2.302852986666666,mp-726702
Sr4CaPr2Cu4HgO14,0.0,-2.302728830224358,mp-1218589
KLiSO4,5.3245000000000005,-2.302688434726189,mp-6800
RbScCl3,0.0,-2.302580952499998,mp-1206320
InP2PbO8,0.0,-2.302554845704364,mp-1204811
ZnB12(H5O12)2,5.783799999999999,-2.302546977393617,mp-1195627
BeSO4,6.9502,-2.302504960416666,mp-5046
Li2Cu2P4O13,0.2204,-2.302439253344672,mp-759704
Ba20Ru11PtO48,0.0,-2.302240578375,mp-1229136
Sr2InBiO6,0.6187,-2.302158729166667,mp-1518266
Tb3S3N,1.409399999999999,-2.302057476741069,mp-18164
Nb2Tl2O7,0.0,-2.302056036969698,mp-33658
RbY(TeO3)2,3.1745,-2.302052576083333,mp-1194706
BaHBrO,4.2077,-2.3018639871875,mp-643036
Na4TiAs2O9,3.0631,-2.301786870865662,mp-559519
BaPb(SO4)2,4.2418,-2.301764700833332,mp-1227878
LaBi2IO4,1.2225,-2.301724320000001,mp-546672
Na6Al4In4Si3(S3O16)3,0.382899999999999,-2.30167386728526,mp-2713774
K4Be3O5,3.2088,-2.301597747416666,mp-28158
Li2BSbO4,1.929799999999999,-2.301497014479165,mp-770654
Nd5ErS8,0.0,-2.301474526428571,mp-34913
CsLiSO4,5.378,-2.301333417212643,mp-6726
Bi4O3F7,0.156,-2.301318686428572,mp-753832
Th3O2,0.0,-2.301181843999998,mp-865439
Ce(SmS2)2,0.0,-2.30112171142857,mp-34009
HfH6O3F4,6.1892,-2.301051252321428,mp-1200257
Mg4Ta2(SO4)9,3.0302,-2.300943206316994,mp-2713918
Mg2AsO5,0.714599999999999,-2.300873521562501,mp-1199509
La5C2Cl9,1.6562,-2.3007736884375,mp-619791
Sc2NCl2,0.0,-2.300705814999999,mp-28480
RbLiSO4,5.3396,-2.30058688797619,mp-6211
RbHoO3,0.0,-2.300576585499999,mp-975296
Cu3B7ClO13,0.132399999999999,-2.300329190902778,mp-1213325
NaCdIn4(PO4)6,0.0,-2.300269069052864,mp-1173874
Lu(HO)3,5.024900000000001,-2.300206882559524,mp-625468
ZnCdB2O5,2.7413,-2.300204498148148,mp-1207444
RbInPHO5,3.6477,-2.300101081395502,mp-733729
Lu2CuTe2(SO7)2,0.6058,-2.300087497698412,mp-1190203
Na2CuSbF6,0.4668,-2.2998913342758622,mp-1111272
Pr8Br13N3O,3.133299999999999,-2.2998689095333322,mp-1219947
Na2Sc4In4SiS11O48,1.9868,-2.299759695551313,mp-2714217
Ca3CuIrO6,0.0,-2.2997311750000002,mp-505151
TaGaBi2O7,2.1677,-2.299685884530302,mp-1217939
LiOsF6,1.2041,-2.299681434583332,mp-1079181
NaCa2Al4H8C4ClO20,5.1823,-2.299679210409483,mp-698491
Na7ZnGa3Si3(SO8)3,2.842,-2.2996751651541922,mp-2714238
SrClO,0.7333000000000001,-2.299673764999999,mp-1206531
GaBPbO4,3.371399999999999,-2.299635754880952,mp-505743
Na3BP4PbO16,0.022299999999999,-2.299587756475039,mp-1221295
NbCuO3,0.959,-2.2995771384999992,mp-17272
LiBi2(PO4)3,0.5567000000000001,-2.299484700958995,mp-504151
Na2ZnSn3P4(SO12)2,1.7419,-2.299474207999909,mp-2712540
Na6Ta2Zn4Si3(SO6)6,2.7537000000000003,-2.299249949613027,mp-2713639
KGdPdO3,0.7150000000000001,-2.299209349541667,mp-555331
Na6In2Ga2Si3(SO8)3,2.1024,-2.299195411311063,mp-2716211
Na4HfZn3P2(SO6)4,3.6946,-2.299180331091306,mp-2713194
Ba5(IO6)2,2.4411,-2.299061808157895,mp-1194622
KMgNbO3,1.8119,-2.299019529541666,mp-2226778
Nd2SmS4,0.0,-2.298995194999999,mp-38901
K3AuF6,1.0341,-2.298890059175,mp-1206879
Ba3LiRu2O9,0.0,-2.298855071222223,mp-542122
SrMg(SbO3)2,2.6685,-2.2987462274999992,mp-2217402
Li7Bi(BO4)2,2.4225,-2.298734971203704,mp-768747
LiNdO3,0.0,-2.298714777166667,mp-1185387
Ba9(NdS6)2,2.301999999999999,-2.29871161021739,mp-673874
KSmPdO3,0.7336,-2.298623613708333,mp-557232
NaSrPrBiO6,0.0,-2.298584441054596,mp-1519121
P3(PbO3)4,0.0,-2.298538398364661,mp-1209812
SiCl2O,5.5626,-2.2985048831249992,mp-23079
Ba5NbIr4O15,0.0,-2.298482217600001,mp-1228736
Na15Ta2Zn10P9(SO8)9,3.159599999999999,-2.298347301578137,mp-2714669
LiPmO3,0.0,-2.298333461166667,mp-1185388
CeBi2SeO4,0.424199999999999,-2.298157951542968,mp-1025437
Na7SnS3(O4F)3,5.0262,-2.298124540852121,mp-554294
Li3CuPO5,0.250899999999999,-2.2980022469642862,mp-758891
Na2AgSbF6,1.666799999999999,-2.297960701442528,mp-1111317
CsH2F3,7.0151,-2.297916437650858,mp-1196282
Li4GeO4,4.0961,-2.297887119259258,mp-4558
SmScS3,1.8487,-2.297826114999998,mp-1188840
NaCaSn3P3(SO8)3,2.005,-2.297814434080225,mp-2716453
Na5Ga3Si3Sn(SO8)3,2.5191999999999988,-2.297741952142647,mp-2713348
Ba2Mg(BiO3)2,2.4616,-2.297705280454545,mp-2217712
KSrPrBiO6,0.0,-2.297660031891667,mp-1517051
Sm3S4,0.0,-2.297636622142854,mp-2038
Al10(Cu2O7)3,0.0,-2.297559487972973,mp-1358345
Ca4Te5O14,2.9383999999999992,-2.2974872332971,mp-680711
GdBi2IO4,1.3080999999999992,-2.297375686875001,mp-628631
LiPrO3,0.0,-2.297372440000001,mp-1185404
SmBi2IO4,1.3061,-2.297366305000001,mp-552292
Gd3(BrO3)2,0.0,-2.297222394545456,mp-1224782
P3Pb5ClO12,3.3891,-2.29718671494898,mp-504748
NdS,0.0,-2.2970675451562492,mp-1748
NdScS3,1.859299999999999,-2.296833537187498,mp-1105614
K3ZnPCO7,4.061,-2.296817968568681,mp-772848
Na6Nb2In6Si5S7O48,0.9978,-2.296806158614088,mp-2716064
CaCu3(P2O7)2,0.026799999999999,-2.296780668344155,mp-1047107
Th2SN2,1.424,-2.296756592062496,mp-7769
TlAsF6,4.606,-2.296651909062499,mp-555911
K2Na2Sb2H6O3F10,4.6516,-2.296612185590344,mp-698134
KCe5S8,0.0,-2.296424382589285,mp-38077
Sn3(PO4)2,3.5134,-2.296379006675823,mp-27493
Na5Y2(SiO4)6,0.8277000000000001,-2.296263920997204,mp-1221256
RbUC3O8,1.9272,-2.296074253653845,mp-1203924
Pr(SbO3)2,0.0,-2.296005004629629,mp-1044440
SmBr3,3.016,-2.2959937075,mp-27976
K2TlHgF6,0.0,-2.295710245033334,mp-1111956
Ba(AlCl4)2,5.3891,-2.295567081363635,mp-30023
PrScS3,1.8377,-2.2955367500208292,mp-1189962
K2LiSmCl6,4.9171,-2.295523696166666,mp-1111244
Na5Y(CO3)4,4.3339,-2.2953816122452992,mp-560919
Sm3Bi(Ru2O7)2,0.0,-2.295351373863636,mp-1219209
Sr2GaCuSO3,0.5552,-2.29533932625,mp-9425
In3(PO4)2,3.1319999999999992,-2.295268564945052,mp-28708
Ba2ZnOsO6,0.0,-2.295212536999999,mp-1205691
Ba25(Bi5O18)3,0.0,-2.295187534148936,mp-685509
TbClO2,0.0,-2.295176821666666,mp-1206816
Dy3S4,0.0,-2.295030429607144,mp-556095
MgBi8(PO4)8,0.8811,-2.294835901472303,mp-1234463
BaSrInBiO6,0.418699999999999,-2.294557865916667,mp-1516651
K2LiCeCl6,0.323099999999999,-2.294491287166666,mp-1111675
Cs2MgCl4,5.2402,-2.294411440615763,mp-568909
CsLiAcO3,0.0,-2.294326836748084,mp-1235446
Ce(TeO3)2,1.450799999999999,-2.294280745925925,mp-4599
Na3Bi(BO3)2,3.138099999999999,-2.294231230622605,mp-775830
Na3ZnPCO7,4.014699999999999,-2.294210762213906,mp-767545
Ca2S2O9,1.0726,-2.294183082307692,mp-1196095