formula,bg,formation_energy,mp-id
LaF3,10.0293,-4.508268510833333,mp-905
YF3,9.836409999999999,-4.469034024375,mp-2416
LaOF,6.0695500000000004,-4.256614436666667,mp-7100
CaF2,9.21541,-4.22225448,mp-2741
ScF3,8.90225,-4.21761559875,mp-10694
YOF,6.33786,-4.214092868333336,mp-3637
SrF2,9.00925,-4.20881278,mp-981
BaF2,8.86969,-4.162401843333335,mp-1029
ScOF,6.071359999999999,-4.125764553333335,mp-4661
HfF4,7.8729,-4.101514556333337,mp-31033
BaZr2F10,7.89842,-4.093492791923077,mp-505400
LiYF4,9.805040000000002,-4.055315924444444,mp-3700
La2Hf2O7,5.62816,-4.042177013636373,mp-12533
SrAlF5,9.490680000000001,-4.042098668035715,mp-16557
HfO2,5.443350000000001,-4.019811040833332,mp-352
CaAlF5,9.40619,-4.010018601428571,mp-8836
BaTiF6,6.05023,-3.974811880416666,mp-8291
Rb2Hf3OF12,8.11797,-3.9629965722222202,mp-17256
Ca2Hf7O16,5.49607,-3.938458758399999,mp-27221
BaTiOF4,4.57579,-3.9288870872619053,mp-16915
SrBeF4,9.86374,-3.9188805175,mp-9726
Li2CaHfF8,9.19316,-3.876617209444445,mp-16577
LiCaAlF6,9.76314,-3.870292022592592,mp-6134
AlF3,9.80678,-3.86576940625,mp-468
K2Zr3OF12,7.396229999999999,-3.860545978861111,mp-17888
Rb2Zr3OF12,7.273899999999999,-3.858001951666667,mp-17085
BaSiF6,9.605459999999999,-3.8392450499999993,mp-5588
NaCaAlF6,9.481639999999999,-3.830305885338441,mp-17944
ZrO2,4.96391,-3.813617754999999,mp-2858
SrHfO3,5.7403900000000005,-3.8123649239999993,mp-3378
Cs2HfF6,9.30291,-3.7293915677777782,mp-13948
K2HfF6,8.69608,-3.727239514388886,mp-14128
LaAlO3,5.311649999999999,-3.722193366,mp-2920
RbCaF3,8.74853,-3.717050224499998,mp-3654
CsCaF3,8.914950000000001,-3.715830655999998,mp-7104
YTaO4,5.21207,-3.707996333722221,mp-5377
Li2ZrF6,8.648909999999999,-3.689010635370369,mp-4002
Cs2ZrF6,8.73484,-3.6710611049999993,mp-7903
SrZrO3,5.15144,-3.661658828500002,mp-4387
Y2Si2O7,6.17751,-3.658035678636363,mp-5652
Y6WO12,3.5477800000000004,-3.6557847515789472,mp-19005
K2ZrF6,7.853800000000001,-3.655629739388885,mp-5450
HfSiO4,6.90352,-3.655536861666667,mp-4609
Cs2NaAl3F12,9.23135,-3.653021051149425,mp-12309
KAlF4,9.37212,-3.644089839958327,mp-2910
BaZrO3,4.61913,-3.639168969000001,mp-3834
NaZr2ZnF11,7.90424,-3.63565080175862,mp-15141
Zr3Tl2OF12,5.704770000000001,-3.610966127870371,mp-17315
Sc2Si2O7,6.19837,-3.607447267727273,mp-5594
LaClO,5.65586,-3.6045768816666692,mp-23025
BaClF,7.004569999999999,-3.6019593516666673,mp-23432
Ba3In2F12,6.324649999999999,-3.569621799313725,mp-28274
Ba2YTaO6,4.813899999999999,-3.567441034733332,mp-12385
ZrSiO4,6.18609,-3.55875977333333,mp-4820
La2SO2,3.9925900000000003,-3.5583565615,mp-4511
LaNbO4,5.02707,-3.557872843333335,mp-5295
SrTiO3,3.0676900000000002,-3.551662291666667,mp-4651
BeF2,10.4454,-3.550678696111111,mp-15951
YNbO4,4.58858,-3.543508845,mp-5387
LaPO4,7.555350000000001,-3.538097613829351,mp-3962
KMgF3,9.30419,-3.536225051449999,mp-3448
Y2SO2,4.15548,-3.5334685075,mp-12894
Li2TiF6,6.118270000000001,-3.530037228333332,mp-7603
ZrPbF6,6.1911000000000005,-3.510055982500001,mp-7310
K2AlF5,9.40236,-3.50936397743751,mp-9486
Sr4Ti3O10,3.2321999999999997,-3.508666600588235,mp-31213
TiO2,3.36291,-3.5080554519444442,mp-390
Ba2LaTaO6,4.77076,-3.506661578233334,mp-13055
Sr2Ta2O7,3.85005,-3.499442949515151,mp-12286
BaTiO3,3.6518699999999997,-3.492236987666666,mp-5020
La2SeO2,3.24871,-3.491444638468752,mp-7233
SrTa2O6,4.41922,-3.487587180518501,mp-17715
BaLa2BeO5,5.23231,-3.4875613502777782,mp-18414
CaTaAlO5,5.11766,-3.484082552166667,mp-15733
Ca2Ta2O7,3.45727,-3.482593376333331,mp-14026
YPO4,7.17816,-3.477044902440459,mp-5132
Cs2CaF4,8.342469999999999,-3.4682948657142862,mp-15157
Sr2YNbO6,4.41975,-3.46656378,mp-6019
CaAl4O7,5.429810000000001,-3.463972205833334,mp-4867
LiCaGaF6,8.21715,-3.462266970092592,mp-12829
LaSF,2.1167,-3.452929627604165,mp-5394
Ba2YNbO6,4.10426,-3.444694518,mp-7251
K2NaAlF6,9.40393,-3.44334859958793,mp-6586
ScBO3,6.1047,-3.436941156833332,mp-8697
Rb2SiF6,9.69388,-3.432261107222219,mp-10492
Al2O3,6.86703,-3.426551008,mp-1143
K2SiF6,9.86332,-3.425675350499996,mp-3042
BaBrF,6.1674,-3.422976659999997,mp-23070
MgTi2O5,3.9132,-3.422544152083334,mp-28232
Sr2SiO4,5.90064,-3.422024718214281,mp-18510
KNbF6,6.6538699999999995,-3.414340102781249,mp-7571
LaBrO,5.25014,-3.411858679999999,mp-23023
Sc2SO2,3.06527,-3.4087673845,mp-7288
Cs2NaAlF6,7.98524,-3.407736822568965,mp-6528
BaGeF6,7.30757,-3.401715624375,mp-14006
CaSnF6,7.29353,-3.401542958125,mp-8224
TaAlO4,5.17878,-3.400570372055554,mp-14333
Sr2MgSi2O7,6.07719,-3.398849896666666,mp-6564
BaSnF6,6.6376599999999994,-3.396749804374999,mp-8290
SrBrF,6.1172200000000005,-3.392943195,mp-23024
BaZnF4,6.1052100000000005,-3.392223955833333,mp-3881
Cs2SiF6,9.67896,-3.389468809444444,mp-4047
La2TeO2,2.5671399999999998,-3.386965779333334,mp-4547
BaSiO3,6.01029,-3.3819813555000002,mp-7339
Ca4LaB3O10,5.7185,-3.379169608472222,mp-6076
K2MgF4,9.0369,-3.367804555642856,mp-31212
SrZnF4,6.6014,-3.366921715,mp-5078
Ba2MgSi2O7,6.11344,-3.363647231666667,mp-9338
Ba2SiO4,6.08002,-3.361976853214285,mp-17612
ScPO4,6.44768,-3.354315457440459,mp-4200
BaHf(PO4)2,6.613569999999999,-3.350602843273808,mp-545548
LaSeF,2.51193,-3.349131063020832,mp-7738
Ta2O5,4.20079,-3.346563131380951,mp-10390
Ca4Al6TeO12,4.26441,-3.344974588550724,mp-15312
LiScO2,5.54009,-3.344621143333333,mp-5840
Rb2MgF4,8.78801,-3.33899116,mp-8861
YSF,2.11752,-3.332084884270834,mp-10086
Sr3Sc(BO3)3,6.263979999999999,-3.329377847031251,mp-17562
Na2LiBe2F7,9.7226,-3.329258121757663,mp-12240
BaBeSiO4,6.12012,-3.3246150149999982,mp-550751
Sr3(PO4)2,6.87063,-3.3192211222527472,mp-4632
Na3TaF8,6.56325,-3.317658471027778,mp-17245
KBe3ZnF9,8.0755,-3.311582430160715,mp-18509
SiF4,10.0707,-3.306972093,mp-1818
BaBe2Si2O7,6.78375,-3.30665925,mp-12797
CaO,5.3836,-3.306019392499999,mp-2605
Sr10P6SO24,5.1668400000000005,-3.299625168179442,mp-17447
Rb3NaBe2F8,9.19031,-3.299471241705665,mp-13630
Zr2P2O9,5.81388,-3.299050528021978,mp-27132
Ba3(PO4)2,6.87648,-3.294371403021977,mp-3857
CsNbF6,6.67166,-3.2849833050000012,mp-11980
SiO2,6.9974300000000005,-3.267460600833333,mp-6945
Y2Be2GeO7,5.78335,-3.264689292916665,mp-541040
SrAl2B2O7,6.32745,-3.263411640277777,mp-15939
K4Zr5O12,4.43614,-3.262750822809523,mp-27377
Ba10P6SO24,4.97678,-3.260354025740417,mp-16990
Ba3Nb2O8,5.70634,-3.259985623076924,mp-542201
La4Se3O4,1.94905,-3.256037440639207,mp-4412
La2MgGeO6,5.43222,-3.25551475,mp-11585
AlTlF4,5.21178,-3.254028930000002,mp-3751
BaAl2B2O7,6.15215,-3.252279562777777,mp-9844
LiTa3O8,4.54187,-3.251229771277778,mp-7638
LiYO2,5.18812,-3.247456247708332,mp-7020
YAl3(BO3)4,7.199520000000001,-3.244045756333333,mp-6062
Mg4Ta2O9,5.36825,-3.240302830644448,mp-17481
CaNb2O6,4.64928,-3.237535069722227,mp-17101
K2Be2PbF8,6.72412,-3.235091948807692,mp-7385
LaVO4,3.6379099999999998,-3.224557474166666,mp-19162
BaTi(BO3)2,3.71218,-3.223730964166665,mp-11659
BaNb2O6,3.71441,-3.216098964999999,mp-28150
Mg2BO3F,6.04601,-3.212177184880952,mp-7995
LiAlSiO4,6.294020000000001,-3.210481965714286,mp-18220
La2SO6,6.60597,-3.198148707500002,mp-4078
ScBrO,4.65049,-3.195286243333331,mp-546279
NaScO2,5.37019,-3.190776871594827,mp-7914
LiF,10.657200000000001,-3.188945303333333,mp-1138
KAlSiO4,6.04933,-3.184236963892856,mp-9480
KBe2BO3F2,7.96057,-3.171410340157407,mp-6870
CsBe2BO3F2,7.733029999999999,-3.165793868202426,mp-553342
NbF5,6.13738,-3.158893295833332,mp-18687
K3Ta3Si2O13,4.1536800000000005,-3.154895519940477,mp-16855
Li2NbF6,6.818770000000001,-3.149117154592593,mp-9752
BaIF,5.0336300000000005,-3.146598396666661,mp-22951
K2SrTa2O7,3.40455,-3.146543844513889,mp-7148
TaBO4,4.63641,-3.143846406916657,mp-4624
Ba2Mg(BO3)2,6.02135,-3.127045616666666,mp-9259
SrIF,5.1805200000000005,-3.123103805000002,mp-23046
SrBPO5,7.04471,-3.121286575267857,mp-6486
AlPO4,7.24896,-3.120438762440476,mp-7848
SrMgP2O7,6.77523,-3.1184218451623362,mp-18469
BaMgP2O7,6.82852,-3.112968518116882,mp-18343
Sr3GaO4F,4.92274,-3.112585204722221,mp-6509
SrBe3O4,5.50688,-3.112535916875,mp-27791
Zr4Cd(PO4)6,4.88688,-3.1100284162244898,mp-541299
Ca3Sc2(GeO4)3,4.75216,-3.1051909685,mp-21989
BeO,8.1622,-3.102855802499999,mp-2542
Sr2YSbO6,4.76974,-3.095266208000001,mp-12878
KScO2,5.438479999999999,-3.093135745562499,mp-8188
BaSi3SnO9,5.07355,-3.092743077142858,mp-18502
Rb2LiGaF6,5.965520000000001,-3.089955832083333,mp-14638
KPF6,9.385860000000001,-3.088211671486607,mp-4608
NaAlPO4F,6.95521,-3.083286763252771,mp-8678
LiAlO2,5.69178,-3.082882981458333,mp-3427
Ba3NaTaO6,4.9074,-3.078000449882968,mp-8961
SrO,4.96379,-3.075623527499999,mp-2472
KYO2,1.29088,-3.075378259312499,mp-8409
Na3Sc2(PO4)3,6.6551800000000005,-3.072143810403324,mp-16956
KTaO3,3.33643,-3.071587857916669,mp-3614
Ba3Nb2ZnO9,3.77035,-3.071309408333333,mp-7249
KRb2GaF6,8.09848,-3.066574973975,mp-13190
NaSr3NbO6,4.481979999999999,-3.059406635125391,mp-6361
KSrPO4,6.67102,-3.0583612888418372,mp-17975
Mg3(PO4)2,6.57326,-3.058181146483516,mp-14396
HfGeO4,5.01297,-3.05788336833334,mp-9755
K3Ta3(BO6)2,3.93215,-3.055646548604166,mp-9870
TiTl2F6,4.762770000000001,-3.054385301111113,mp-10402
Cs2GeF6,7.925890000000001,-3.052358112701146,mp-8217
LaSO,2.00408,-3.05161248,mp-28626
CaTiGeO5,4.10169,-3.049192665416666,mp-17784
Ta2CrO6,0.659929,-3.044736343851851,mp-31629
Rb2GeF6,7.88871,-3.043178331111109,mp-8812
ScVO4,3.30955,-3.041869945833333,mp-19247
Cs2SnF6,6.98405,-3.041488856034478,mp-7297
KNaLaNbO5,4.77513,-3.040243175403257,mp-10942
MgO,5.92558,-3.03830917,mp-1265
RbTaO3,4.66208,-3.032331979466696,mp-3033
K2GeF6,7.72342,-3.031289993277775,mp-14168
BaLa2PtO5,3.22717,-3.030775586666667,mp-8809
CaPbF6,4.882140000000001,-3.030607506249999,mp-20463
BaPbF6,4.159979999999999,-3.030567061249998,mp-19799
Li2CaSiO4,6.37772,-3.030369032083332,mp-7610
Ba2CaWO6,3.756,-3.030209073,mp-19182
Mg3(BO3)2,6.45745,-3.028432701666668,mp-5005
RbBaPO4,6.61325,-3.027209593163264,mp-17832
Nb2O5,3.31657,-3.026667726428572,mp-1595
Al2ZnO4,4.68114,-3.021072628571429,mp-2908
Ba3V2O8,4.30711,-3.018909883076909,mp-19365
Sr3V2O8,4.166060000000001,-3.01776698923077,mp-19386
La2Sn2O7,3.5888400000000003,-3.0172737977272712,mp-4086
SrB4O7,8.55524,-3.016896000138888,mp-5540
Li2GeF6,7.396850000000001,-3.016499819629629,mp-7791
Mg2B2O5,6.5227200000000005,-3.015306194537037,mp-18256
CsTa(BO3)2,4.63802,-3.013451491032184,mp-9309
Y2Sn2O7,3.70717,-3.005540767272727,mp-3370
KLaO2,4.98654,-3.0045629105625,mp-7958
LaGeBO5,5.129779999999999,-3.003877321354167,mp-19957
RbScO2,5.113659999999999,-3.000576440624999,mp-7650
SrLiBO3,5.83175,-2.999272073333333,mp-10814
Ta2ZnO6,4.26478,-2.9919900877407413,mp-17765
SrGa2(SiO4)2,5.20727,-2.987542761153846,mp-14235
Sr2MgWO6,3.7368200000000003,-2.985156883499999,mp-19420
K3Nb3Si2O13,3.31945,-2.9808321434166682,mp-17059
Sr2CaWO6,3.71911,-2.9806652965000002,mp-18742
Ta2FeO6,1.80891,-2.976409758851888,mp-31755
LiSiBO4,7.5361,-2.972327560357141,mp-8874
Li2BeSiO4,6.94738,-2.969780010208333,mp-8070
ZrGeO4,5.090949999999999,-2.964421039166666,mp-8042
BaCl2,6.4008400000000005,-2.9614528075,mp-23199
RbLaO2,4.9182,-2.960912605625,mp-7972
NaF,9.08939,-2.960572454999999,mp-682
Ba2Zn7F18,5.50733,-2.959749393333333,mp-541827
BaLiBO3,6.11955,-2.958859195833334,mp-6499
HfSO,3.67273,-2.958540832500001,mp-7787
NbBO4,3.56713,-2.9548057465277773,mp-8615
K3Sc(PO4)2,6.24475,-2.947518911383502,mp-17035
Sr3ScRhO6,2.7938,-2.944295234090908,mp-18247
CsK2Sc(PO4)2,6.0410699999999995,-2.943092079888634,mp-8564
LiInF4,5.75942,-2.933849961111111,mp-8892
NaAlO2,5.3558900000000005,-2.929171832219827,mp-9212
KF,8.684040000000001,-2.924248431124999,mp-463
LiPF6,9.711969999999999,-2.922815228080357,mp-9143
CsSbF6,6.681430000000001,-2.922387598706896,mp-9636
Rb2SrP2O7,6.44658,-2.915331958690475,mp-14354
TaAgF6,4.87559,-2.913713846541668,mp-29993
RbSbF6,6.59975,-2.907923034687501,mp-9821
NaPF6,9.771780000000001,-2.9074881047470242,mp-10474
CsMgPO4,6.1079799999999995,-2.906715185971147,mp-18329
TiNb3O6,0.893809,-2.903543185833335,mp-29699
Cs2SrP2O7,6.52816,-2.902520475716338,mp-14355
Ba2CaMoO6,2.85109,-2.9021457209999992,mp-19403
LiNbO3,4.4036800000000005,-2.899517651666666,mp-3731
NaAlP2O7,6.82203,-2.899156918924092,mp-16777
Ca4Cl6O,6.509270000000001,-2.896422515454545,mp-23326
Ca2SnO4,3.77346,-2.88604820642857,mp-4747
CaMgAsO4F,5.1493,-2.885291694687499,mp-7035
Li2SiO3,6.27959,-2.882894919444446,mp-5012
Na3Ca2TaO6,5.46992,-2.8759330605392712,mp-18480
K3Nb3(BO6)2,3.1253800000000003,-2.873965536004166,mp-15248
RbF,8.08099,-2.87335177125,mp-11718
CaCrP2O7,0.5046080000000001,-2.871509720616883,mp-19134
CsBePO4,6.80729,-2.868731574542575,mp-15395
Ba2InO3F,2.95279,-2.866102289523809,mp-19956
Rb2Si3SnO9,5.08071,-2.86547719,mp-17382
SrPdF4,1.93533,-2.864338633333332,mp-12622
RbAlO2,5.06006,-2.861165701874999,mp-14070
GaF3,6.57466,-2.85906879875,mp-588
Ba2LaC3O9F,6.03104,-2.8582493196875,mp-18111
K2ZnF4,6.12648,-2.858067956357142,mp-9583
MgPbF6,4.4088,-2.853937199374999,mp-19734
LaAsO4,5.30436,-2.8524170354166682,mp-4917
BaPdF4,2.14923,-2.851794986666661,mp-12623
Ba2Nb6Te2O21,3.31729,-2.85137372155914,mp-16998
ZrSO,3.31262,-2.847103474999998,mp-3519
Mg(PO3)2,6.9181099999999995,-2.847031572420635,mp-18620
CsAlO2,5.71208,-2.846654709913793,mp-14069
NaNbO3,3.80423,-2.844822765275861,mp-4514
RbNbO3,4.39355,-2.8390510185,mp-3283
Tl2SiF6,5.99284,-2.836305280555557,mp-5033
CsF,7.55738,-2.833271874999999,mp-1784
SrSn(BO3)2,4.7059,-2.832876895333332,mp-8000
La3Ga5SnO14,4.4326099999999995,-2.832190112065217,mp-6788
NaSbF4,5.288279999999999,-2.829796081479885,mp-29269
BaO,3.47354,-2.8236427075,mp-1342
YAsO4,4.8393500000000005,-2.820636907916674,mp-8058
Li3B7O12,7.19694,-2.817122843371212,mp-16828
TaInO4,4.54164,-2.8090756256666682,mp-8979
Ba2YBiO6,2.70912,-2.8078685930000002,mp-23137
SrCdP2O7,4.7239700000000004,-2.802720797662336,mp-17693
Na2Ca(PO3)4,6.82029,-2.799806669280529,mp-541522
CaPdF4,1.74194,-2.79919496,mp-8161
Na2MgSiO4,5.40224,-2.7987684303448273,mp-6406
B2O3,7.959779999999999,-2.798056310000001,mp-306
KCaCO3F,6.481739999999999,-2.790271634607143,mp-6867
LiGaSiO4,5.2225,-2.785973274166667,mp-18147
AlClO,6.72949,-2.785187891666666,mp-27863
CsPbF3,4.49411,-2.781618631931033,mp-20282
K2ZrO3,5.29633,-2.7781002186666672,mp-18449
Mg3NF3,4.998189999999999,-2.7766350564285682,mp-7604
NaCaVO4,4.217899999999999,-2.7691338459113313,mp-19302
BaAl2Sb2O7,3.8552199999999996,-2.768880493749999,mp-12885
BPO4,8.44935,-2.76428254563492,mp-3589
InF3,5.60087,-2.763129218749999,mp-6949
K2TiO3,4.604970000000001,-2.761319902138887,mp-13133
Rb2B4O7,6.67091,-2.75967813128205,mp-16980
NaZnF3,5.4551099999999995,-2.755012105000001,mp-3795
Li3PO4,7.0877799999999995,-2.753226182455357,mp-13725
Rb2TiO3,5.05757,-2.751183317222221,mp-5403
SrCl2,6.4779,-2.750093178333335,mp-23209
CaGeO3,4.63347,-2.749981945333333,mp-17761
Nb2SnO6,1.96933,-2.7461501200000322,mp-3324
SrWO4,4.917470000000001,-2.745727157499999,mp-19163
SrGeO3,4.5857,-2.743115335333333,mp-17464
Na2B4O7,6.685560000000001,-2.740920742648098,mp-17941
KAsF6,6.41916,-2.73981554059375,mp-7569
Sr2LiReO6,2.47128,-2.738560688583334,mp-12525
LiBO2,6.56678,-2.73799054125,mp-3635
Cs2ZrO3,5.3148,-2.729279389051728,mp-8759
BaWO4,5.2071499999999995,-2.729128477500001,mp-19048
SrZn2(PO4)2,5.18275,-2.727579975137362,mp-8810
PF5,9.41276,-2.726831949662697,mp-8511
Ba2SnO4,3.43188,-2.7252446964285713,mp-3359
ScCuO2,3.11382,-2.724876606249999,mp-3642
Na2BeB2O5,6.484319999999999,-2.723872338609195,mp-16737
Sr3Ga4O9,4.10864,-2.722258815937498,mp-30158
CsAsF4,5.477390000000001,-2.718765889525862,mp-5707
Li2TiGeO5,4.820819999999999,-2.715895492777778,mp-13182
MgSn(BO3)2,4.63615,-2.712048039833334,mp-11715
CaZn2(PO4)2,4.89823,-2.705513512252746,mp-18308
TaBiO4,4.1711,-2.704939912888891,mp-30900
LaCl3,5.539560000000001,-2.703267628124999,mp-22896
SrTaNO2,1.72841,-2.701130137466667,mp-552454
KCdF3,4.74119,-2.700995697449999,mp-9628
VPO4,0.17077,-2.70069467577381,mp-18835
Al6Cd4TeO12,3.4412800000000003,-2.7006098537681162,mp-9535
SrCO3,5.8715399999999995,-2.6989622775,mp-3822
MgP4O11,6.60311,-2.697408374598214,mp-15437
NaV(OF)2,2.6751199999999997,-2.696898790229884,mp-18953
BaGeO3,4.769729999999999,-2.696001211500001,mp-13863
CsCdF3,4.63501,-2.695887164000001,mp-8399
K2NaTlF6,4.7914200000000005,-2.6935687419212653,mp-13798
Na2SiO3,5.63527,-2.692845917126435,mp-4533
Ba3(AsO4)2,5.19088,-2.69028426346154,mp-9783
LaCuO2,3.49248,-2.689203321249986,mp-20072
CaCO3,6.36725,-2.687544458,mp-3953
LiAlGeO4,4.40871,-2.687367997142856,mp-16947
SbF3,5.107,-2.685827188749999,mp-1880
ScAsO4,4.6319799999999995,-2.6847117654166652,mp-546125
SrSO4,7.38954,-2.682634480833333,mp-5285
InBF4,5.12963,-2.6812385733333333,mp-8586
RbPO3,6.82052,-2.68106058217857,mp-4135
Na4Hf2(GeO4)3,5.13974,-2.680678868834153,mp-14526
Ca4PdO6,2.32546,-2.675235593636361,mp-10299
Li4SiO4,6.04883,-2.674883012592591,mp-11737
TiCdO3,3.74835,-2.671460970666666,mp-13641
CaSO4,7.416399999999999,-2.668935733749998,mp-4406
SrMoO4,4.2492600000000005,-2.664873142499999,mp-18834
Sr2ZnWO6,3.6887800000000004,-2.663847809000001,mp-19282
Sr2FeWO6,1.5059,-2.663015328,mp-19266
NaCdF3,4.93414,-2.660950373275862,mp-4360
BaMoO4,4.55001,-2.654552259166666,mp-19276
WOF4,3.37765,-2.65028594,mp-540636
KNa2(PO3)3,6.78803,-2.649284270595813,mp-17889
ZnSnF6,5.26572,-2.647906428125001,mp-13903
CaCl2,6.677,-2.645431978333333,mp-22904
Li2ZnSiO4,4.72875,-2.641684768020833,mp-17288
CaMoO4,3.90723,-2.639627267500002,mp-19330
Rb2NaRhF6,2.80952,-2.63831338763793,mp-14038
SrSnO3,2.58464,-2.6373586375,mp-2879
NaSc(GeO3)2,4.70848,-2.636928682137931,mp-8054
Sn2OF5,2.30779,-2.635444859375,mp-29590
K2NaRhF6,2.84685,-2.63281606158793,mp-14039
Ta2Zn3O8,4.36038,-2.63218461228205,mp-28251
Ba3Zn6Si4TeO20,3.64716,-2.6270777434313732,mp-543034
TlSbF6,5.0118100000000005,-2.626026584166668,mp-8348
BaBAsO5,4.8771700000000004,-2.625826847291667,mp-9784
ScAgO2,2.58054,-2.624149660416652,mp-11022
RbNa3Li12(SiO4)4,6.1145,-2.6236429144899422,mp-17240
NbInO4,4.0724,-2.623428141944451,mp-9595
BiF3,5.68065,-2.6215259225000023,mp-23237
Sr2CdWO6,3.73817,-2.618560415,mp-19014
CsKNa2Li12(SiO4)4,6.15629,-2.617462862212883,mp-17718
SnB4O7,4.235729999999999,-2.614625811805556,mp-13252
NaBO2,5.88593,-2.607822887636494,mp-3889
Li2CaGeO4,5.15925,-2.604269733958333,mp-7611
LiInP2O7,5.19597,-2.602587649025972,mp-8491
Sr2ZnGe2O7,4.21378,-2.601126258333332,mp-17392
CdSnF6,5.31337,-2.601074608750001,mp-13907
K2ZrGe2O7,5.16105,-2.6008527645416653,mp-16871
CsSbClF3,4.35125,-2.594534383692528,mp-23576
Sr3BPO3,2.79779,-2.587786172976191,mp-9702
BaSnO3,1.71258,-2.587468271999999,mp-3163
BaBr2,5.44702,-2.5807169366666702,mp-27456
KAsOF4,5.13699,-2.579728197821428,mp-17539
Sc2(SO4)3,6.38003,-2.579507954558823,mp-16800
Be4TeO7,2.52981,-2.572461434305555,mp-27608
SnF4,4.8773100000000005,-2.571479623999999,mp-2706
Sr2Sb2O7,2.55035,-2.570062335909088,mp-4103
K2Li14Zr3O14,5.78862,-2.569991883671717,mp-17208
CaMg(CO3)2,6.4348,-2.5687827805,mp-6459
MgWO4,3.93267,-2.562331308333333,mp-18875
Na3Mo(OF)3,4.503,-2.561763619413791,mp-18753
ZnF2,4.90853,-2.561514461666667,mp-1873
Ba4Li(SbO4)3,2.6385300000000003,-2.557289012666666,mp-7971
MgGeO3,3.7558200000000004,-2.554010083,mp-4819
Ca2PbO4,2.0481,-2.551106224285708,mp-21137
LaRhO3,0.883969,-2.545009926000001,mp-5163
TiSO5,3.8416900000000003,-2.5450024420833333,mp-505270
Na3In2(PO4)3,4.44359,-2.544070799319991,mp-17349
PbF2,5.43627,-2.544010303333332,mp-315
Mg3TeO6,4.00436,-2.539839539666666,mp-3118
CaPtF6,3.23775,-2.5396984625,mp-8255
Ba2ZnO3,3.77042,-2.534313652916667,mp-17911
SnF3,3.36944,-2.533785512499999,mp-8289
Ba3BAsO3,2.37396,-2.533021692708333,mp-9793
YCl3,6.26098,-2.531578373124999,mp-27455
La2CoIrO6,0.648239,-2.5306732215,mp-18862
Cs2Li2TiO4,5.38333,-2.526923392701148,mp-8294
MgV2O6,3.2043000000000004,-2.526702651666667,mp-504510
NaNbO2,1.70555,-2.522986689094827,mp-3744
NbBiO4,3.86264,-2.521130047083335,mp-23413
CsRb2PdF5,2.82734,-2.514136872739464,mp-8202
RbZnPO4,5.07128,-2.513455971734693,mp-18463
NaTeF5,6.13784,-2.512249105714286,mp-29355
Zn4B6O13,4.47262,-2.5115879147826092,mp-4812
La2S3,1.52335,-2.508305558187499,mp-7475
KZnPO4,5.29613,-2.50704106562755,mp-18591
Na3NbO4,4.86925,-2.504653314579741,mp-27247