formula,bg,formation_energy,mp-id
Sr2Pb,0.11622299999999999,-0.6891520008333311,mp-30828
HgBr,2.51943,-0.689096676250002,mp-23177
RuS2,1.20451,-0.687351060208333,mp-2030
Ga2TeS2,2.56326,-0.686490629125,mp-27255
NaSe2,1.5238399999999999,-0.6857838314583321,mp-15514
NO2,3.34259,-0.685685905,mp-2789
NaPt2Se3,1.3018599999999998,-0.685094324947916,mp-28987
SnGeS3,1.90229,-0.684868667,mp-5045
ZnTe,1.29849,-0.6841630333333321,mp-2176
ReTeS,0.32606799999999997,-0.6838039330555581,mp-5222
HgCl2,3.58335,-0.683485675,mp-22855
RbTeAu,1.72428,-0.683386598055555,mp-9008
HfCu2Te3,0.285767,-0.682466131666661,mp-3650
KPSe6,2.21398,-0.681722183556918,mp-18625
AgNO3,2.6357199999999996,-0.6806635453333341,mp-552185
LaP5,0.2021,-0.678575252480158,mp-1864
PBr2N,3.8627,-0.67721951407738,mp-23457
InSe,1.3021099999999999,-0.6763020120312461,mp-22691
Tl5Se2Br,0.848185,-0.676213200169275,mp-28921
BaCaSn,0.550145,-0.676116901666669,mp-11265
SrCaSn,0.564234,-0.6744703091666651,mp-20726
TlInSe2,1.4086800000000002,-0.6729150770312481,mp-22232
Tl3B3S10,2.43156,-0.6727081101562501,mp-17823
YB4Mo,0.42782299999999995,-0.6713338599999991,mp-7691
Al2Os,0.5157930000000001,-0.670291663333335,mp-7188
FeSe2,0.7113039999999999,-0.669716959895831,mp-760
GaCuI4,2.38122,-0.6676176529166651,mp-29403
CaH2,4.13369,-0.6668815449999991,mp-23713
BaP3,1.05046,-0.66459478973214,mp-7808
ICl3,2.37141,-0.66435476,mp-27729
Sr(ZnAs)2,0.360762,-0.6637263550000001,mp-7770
Li10BrN3,2.05492,-0.6631821730952381,mp-28989
GeS2,2.84965,-0.6599310905555551,mp-542613
AgBr,1.28212,-0.6596210383333321,mp-23231
TiCoSb,1.01071,-0.658718782222221,mp-5967
PtBr3,1.23857,-0.6577550981249981,mp-23165
Ba(As3Pt2)2,0.48165399999999997,-0.657548921818193,mp-14501
Ba3(Si2P3)2,1.01892,-0.6559744659890101,mp-27887
BiTeCl,1.83772,-0.655658539166665,mp-28944
Ca(ZnAs)2,0.5178680000000001,-0.6555636290000011,mp-9571
SiRu,0.254393,-0.6545326474999981,mp-189
InI,1.90987,-0.6524206583333321,mp-23202
TeRhCl,1.1635199999999999,-0.6520302558333331,mp-22945
CdCu2GeS4,1.0766300000000002,-0.6501249718749991,mp-13982
Ba(ZnP)2,0.23866300000000001,-0.6491009618571401,mp-7426
Na3AlP2,2.26117,-0.648331853492063,mp-5122
Mg3P2,1.99577,-0.647706519857142,mp-2514
SrH2,4.28899,-0.647579579999999,mp-23714
PCl5,2.59945,-0.646873145496031,mp-23228
BPS4,2.96223,-0.645372425634919,mp-27724
Cu2O,0.742232,-0.6445054383333331,mp-361
SbI3,2.4213,-0.643452289999999,mp-23281
KSb(PSe3)2,2.2599699999999996,-0.6419720235598211,mp-7123
TlTe3Pt2,0.255786,-0.640955723055553,mp-9251
YP5,0.46241000000000004,-0.6391986149801591,mp-9854
BiTeI,1.5716199999999998,-0.637094973888891,mp-22965
HgO,1.7122899999999999,-0.635057482500004,mp-1224
P2Pd3S8,1.93775,-0.634964529175822,mp-3006
K2LiAlP2,2.6946,-0.633230926186506,mp-6450
Li3Bi,0.796828,-0.6278293687499991,mp-23222
AlAs,1.78103,-0.6270427762499999,mp-2172
TaTe4I,0.568525,-0.626391921499993,mp-28691
Zn(GaTe2)2,1.21503,-0.6253114245238071,mp-15777
TlI3,2.00006,-0.624703427083337,mp-28329
IrCl3,2.32805,-0.623958485624999,mp-27666
Sc4C3,0.8208179999999999,-0.6238872749999991,mp-15661
HgCl,3.0780100000000004,-0.621251812500002,mp-22897
Sr2Ge,0.74878,-0.6204755550000011,mp-2576
Ga2TeSe2,1.9884000000000002,-0.6201830866250021,mp-28423
Si3Ru2,0.44073399999999996,-0.6193566795000011,mp-22192
NaAuSe2,1.126,-0.6177059851562521,mp-29139
Tl2Sn2S3,1.2154800000000001,-0.617530947738095,mp-28011
LiP,1.22498,-0.616667199821428,mp-9588
Cs(SbS2)2,1.88646,-0.615817549464286,mp-8890
K2CN2,4.64797,-0.615292346999999,mp-10408
RbCu3S2,1.22772,-0.615274059583332,mp-10985
Ba(CdAs)2,0.442565,-0.614831377000001,mp-8281
Zn(InTe2)2,1.0591,-0.61450366857143,mp-20832
Hg3(TeBr)2,2.02223,-0.612633355119052,mp-27853
CsCu3S2,2.68043,-0.6124818376041661,mp-7786
CoPSe,0.6748869999999999,-0.6121159002455361,mp-10368
Tl2GeSe3,1.4756099999999999,-0.611030478949656,mp-14242
Rh2S3,0.14281,-0.610465406187501,mp-17173
RbAu3Se2,2.4444899999999996,-0.6087765286979101,mp-9385
Na2CN2,4.53515,-0.607621109499999,mp-541989
P2Os,1.0091,-0.607371185317461,mp-2319
SbSI,2.01245,-0.605854298333329,mp-23041
Sr(CdAs)2,0.460741,-0.604969456999997,mp-7771
BaH2,3.98941,-0.6047468716666671,mp-23715
Tl2PAuS4,1.9078199999999998,-0.604043033288692,mp-9510
WSe2,1.50855,-0.603619506041667,mp-1821
SbSeI,1.7133800000000001,-0.60188073578125,mp-22996
Cs(SbSe2)2,1.4396600000000002,-0.6016597880357121,mp-3312
Ga2HgSe4,1.1768699999999999,-0.600496146250001,mp-4730
K2SiP2,1.9525,-0.600256117690476,mp-8235
Na3InAs2,0.733559,-0.6001142727083331,mp-21622
Cd4P6SN12,3.5920199999999998,-0.5997514267546581,mp-8921
K2Ag4S3,0.564275,-0.599046196770831,mp-7494
AuClO,1.2220499999999999,-0.598648675555555,mp-27265
Cs2SiP2,2.04665,-0.5966127281904761,mp-8932
Na2AsAu,1.14518,-0.596101208124999,mp-7773
NbCu3Se4,1.75159,-0.596006779531249,mp-4043
K2PAu,1.6063800000000001,-0.595615487619046,mp-9687
SiTePt,0.774841,-0.5956044437500001,mp-29397
SbIrS,1.5036500000000002,-0.5933227426041671,mp-8630
FeSbS,0.8039980000000001,-0.5932567766666671,mp-27904
CuBS2,2.26841,-0.592209918541666,mp-12954
Ba(MgBi)2,0.890054,-0.5920732000000011,mp-29209
LiAs,0.732285,-0.588209097083334,mp-7943
In2HgSe4,0.922891,-0.587147221964284,mp-20731
PdCl2,1.9554500000000001,-0.5866676483333321,mp-29487
Cs2P3,1.2848199999999999,-0.585892831785713,mp-14652
CuSe2Br,1.35549,-0.584083218046874,mp-29567
BaCaGe,0.564805,-0.5828065666666661,mp-16252
CsAg3Se2,0.647418,-0.58239625405711,mp-16234
Al2CdTe4,1.92114,-0.582113531428575,mp-7909
TlSbS2,1.90202,-0.5820723845833351,mp-28230
KLi2As,1.3951900000000002,-0.581931216604166,mp-28994
SrCaPb,0.490373,-0.58163957583333,mp-21166
Nb2Se9,1.0634700000000001,-0.581150554232953,mp-541106
LiBeP,1.57157,-0.581053935992063,mp-9915
Tl(MoSe)3,0.668283,-0.580913359598217,mp-3411
Cs6GaSb3,1.61922,-0.578140799999999,mp-9697
KZnP,1.43175,-0.576517767242063,mp-7437
BaSnHg,0.16806200000000002,-0.574680997500001,mp-11819
Ag2PdCl4,1.49824,-0.5746215314285701,mp-28557
Tl2Sn(AsS3)2,1.41678,-0.5746093356060611,mp-6023
Cu2GeS3,0.159021,-0.573292520416664,mp-15252
K2LiGaAs2,1.85419,-0.5732784683888881,mp-9703
As2Rh,0.24408000000000002,-0.5725928316666651,mp-15954
Sr(CdP)2,1.0957999999999999,-0.5721131518571381,mp-8277
VCu3Se4,1.16086,-0.5719401107812501,mp-21855
KSb,1.17885,-0.571137408125,mp-1536
As2Ir,0.862307,-0.571072849166668,mp-15649
TlInTe2,0.929978,-0.570600623333335,mp-22791
BeTe,2.20502,-0.570361940833332,mp-252
Na3Sb,1.1396700000000002,-0.5695521887499999,mp-7956
Ca(CdAs)2,0.534175,-0.569298998999997,mp-7067
K2Se5,1.27748,-0.569201022674107,mp-18609
CsAu3S2,3.30098,-0.5690842609375011,mp-9384
AgCl,1.63934,-0.568439933749999,mp-22922
Ba2ZnN2,1.35891,-0.567185527999998,mp-9307
KAg3Se2,0.463036,-0.566161854489581,mp-9782
Ba(CdP)2,0.9365220000000001,-0.5651984778571381,mp-8279
HgI2,1.6419000000000001,-0.564617394374998,mp-23192
CdTe,0.860726,-0.5607400050000031,mp-406
InAgS2,0.983595,-0.5596083526562491,mp-19833
Na5SiAs3,1.5812599999999999,-0.5586413491666681,mp-18139
K3Al2As3,2.08237,-0.5576802861562501,mp-28347
SrLi4N2,1.51009,-0.5568225598809531,mp-15845
K2NaAlAs2,1.93858,-0.554715968479885,mp-9069
K3Sb2Au3,1.5241500000000001,-0.5525112789062511,mp-9273
K2LiInAs2,1.23845,-0.5508561190833331,mp-505431
K2P3,1.31835,-0.549950390285712,mp-8262
Na2SbAu,0.95073,-0.549332992499998,mp-7774
Na2LiGaAs2,1.97302,-0.5484412151819931,mp-9722
CuTe2Br,1.12999,-0.547720050208331,mp-31036
Ca(CdP)2,1.21248,-0.5474108918571421,mp-9570
Na6P4W,1.6341400000000001,-0.544517753809524,mp-9007
PPdSe,1.40191,-0.5401804127455351,mp-3123
CsAu3Se2,2.90467,-0.540020384687499,mp-9386
GaAgSe2,0.6311530000000001,-0.5399828320312511,mp-5518
K3BP2,2.5545,-0.539756795783729,mp-9664
Rb2Te5,0.604443,-0.539628082619048,mp-31002
KP,1.5288,-0.536587557113094,mp-7441
BrNO3,2.80465,-0.5361104965000001,mp-29526
FeP2,0.7517619999999999,-0.53530951642857,mp-20027
KCSN,4.80915,-0.5351224188281231,mp-6511
PtS,0.871418,-0.5334567439062461,mp-288
Ca2Si,0.640002,-0.5331682466666681,mp-2517
CdAg4Ge2S7,1.19606,-0.5322799706547601,mp-542200
Na3MoN3,2.02482,-0.531690018091132,mp-541291
BaGe2,1.2863099999999998,-0.5302564979166671,mp-2139
TlPt2Se3,0.699905,-0.5280740395312521,mp-541487
CdPS3,2.3279699999999997,-0.5271939382827381,mp-5328
SiSbPt,0.46966,-0.527014355833335,mp-11152
Na5GeAs3,1.12808,-0.52681698,mp-16861
RbAg3Te2,0.693587,-0.526338080972218,mp-10481
SrCaSi,0.798404,-0.526279950833333,mp-7084
SrMgGe,0.10637,-0.524246304999999,mp-15643
RuSe2,0.795661,-0.523511360208331,mp-1922
Tl3AsS3,1.76328,-0.522284857321434,mp-9791
InSbS3,1.87171,-0.522175905687501,mp-21365
TlBiTe2,0.682526,-0.520886999166666,mp-27438
NaZnP,0.931228,-0.518619665992063,mp-4824
Li2AgSb,0.176788,-0.5181467695833331,mp-16238
Ca(CdSb)2,0.193267,-0.517741565999997,mp-7430
CuBr,1.42825,-0.517612222499999,mp-22913
Cu2SiSe3,0.7715069999999999,-0.5171899661718741,mp-15896
Ca(MgBi)2,0.8465130000000001,-0.516634074000004,mp-29208
NbSbRu,0.831789,-0.515632994999999,mp-505297
RbSb,0.9071119999999999,-0.5141176712499981,mp-7444
Hg3(SeCl)2,2.23369,-0.5136008886607121,mp-27851
K4ZnP2,1.92525,-0.513500549421768,mp-11719
Ba(TeP2)2,1.3973900000000001,-0.5134393967006781,mp-31275
TlBiSe2,0.58211,-0.5126263132812451,mp-29662
Ag2HgI4,1.55581,-0.512362546547618,mp-23485
KZnSb,0.596176,-0.5108005562499991,mp-7438
GaP,1.84124,-0.508916133988096,mp-2490
SiSe2,2.90573,-0.507960916041665,mp-22142
GaPS4,2.9918400000000003,-0.506497706954365,mp-30979
CoP2,0.459688,-0.506288872817461,mp-14285
K2As2Pd,1.2349,-0.5044637069000001,mp-8147
TePb,1.16258,-0.503829899999999,mp-19717
Cs2As2Pd,1.2333900000000002,-0.503128553862067,mp-8857
PdI2,1.1102400000000001,-0.503004289999998,mp-27747
K2AgSb,1.7490299999999999,-0.5024591443749991,mp-7643
Hg2GeSe4,0.675289,-0.502389455625003,mp-3167
GeS,1.49696,-0.50118695875,mp-2242
Sc(AlC)3,0.6074189999999999,-0.500998362857142,mp-4798
Cs3Sb,1.55503,-0.500301612499999,mp-10378
NaP,1.39483,-0.49986311961309404,mp-7440
Si2Os,1.2313900000000002,-0.49835368250000006,mp-17123
Ba(GeAs)2,0.46653500000000003,-0.49725449949999906,mp-27810
K5P2Au,1.46274,-0.491352169337798,mp-14624
Hg2P2S7,2.23174,-0.490929933344155,mp-27171
AuSeBr,0.652439,-0.490861640364582,mp-27199
Na5SnP3,1.70079,-0.49068822988095206,mp-18317
K2NaGaAs2,1.56789,-0.48646579889655206,mp-9676
AsCl5,2.17847,-0.48620065583333305,mp-30106
HgPS3,2.16411,-0.485285830928573,mp-27178
InPS4,2.87875,-0.48460511487103003,mp-20790
CuCl,1.67855,-0.48419320125000104,mp-22914
OsS2,0.387307,-0.484088481041671,mp-20905
Tl4Te3Pb,0.165212,-0.48408583479166906,mp-20740
BP,1.35107,-0.48330429523809504,mp-1479
Rb2As2Pt,1.3083099999999999,-0.482807899999998,mp-13445
Li3N,1.5423399999999998,-0.48250142218750003,mp-2251
AsI3,2.4613,-0.47864313937499803,mp-23218
LiBeAs,1.4458199999999999,-0.47837898361111103,mp-9562
Al2HgTe4,1.32941,-0.47700404821428505,mp-7910
K4HgP2,1.84769,-0.47685704692176906,mp-8753
Na2AgAs,1.43092,-0.476849584375001,mp-8411
FeSi,0.274855,-0.47597936624999904,mp-871
PtCl2,2.29165,-0.47506400999999804,mp-23290
TaCu3Te4,1.4936099999999999,-0.47451112924999705,mp-9295
SnS2,1.9236,-0.473969728541665,mp-1170
CoAsS,0.884993,-0.473926144270831,mp-4627
K2NaInAs2,1.3519700000000001,-0.473017237090997,mp-21510
SnS,1.11679,-0.47208111515625006,mp-2231
Na2CuAs,1.38196,-0.46944853812500004,mp-15685
Bi4RuBr2,0.764532,-0.46931114928571505,mp-541772
Cd(GaTe2)2,1.25105,-0.46911883428571505,mp-13949
Si3Os2,0.810486,-0.46815938425000303,mp-16608
Ag2GeS3,0.976092,-0.46699392263888906,mp-9900
AgI,1.7254,-0.46535334333333106,mp-22925
KZnAs,0.633297,-0.465293413249998,mp-7421
PtSe2,0.673018,-0.46391612604166704,mp-1115
Na2CuP,1.40338,-0.46383814949404706,mp-7639
ReSe2,1.1961300000000001,-0.46316581770832904,mp-541582
Rb3Sb2Au3,1.69746,-0.46199760906249904,mp-9274
Na3P,1.3243399999999999,-0.46160422324404704,mp-1598
NaCSN,4.86402,-0.46063793226562405,mp-6633
TaSbRu,1.1142400000000001,-0.46037054744444106,mp-31454
Tl2TeS3,1.6365,-0.45917710055555705,mp-17172
Na4HgP2,1.61524,-0.458930900493198,mp-28591
TlPd2Se3,0.561453,-0.458453154531251,mp-7038
Au2O3,1.3698,-0.45785339499999805,mp-27253
K4CdP2,1.75281,-0.45758189013605205,mp-28302
As2Ru,0.529818,-0.45673630666666704,mp-766
Si3P2Pt,0.643236,-0.45572319515873205,mp-29157
Al2(FeSi)3,0.347352,-0.45394824187499905,mp-29110
SnSe,0.876575,-0.45354630828125003,mp-691
NaAg3S2,1.6193499999999998,-0.45348791052083,mp-16992
K3Na2SnAs3,1.2946,-0.452824543556513,mp-18447
Sb2Ir,0.343928,-0.45282265916666603,mp-1247
GeSe,1.15332,-0.451703091171873,mp-700
LiZnSb,0.47422000000000003,-0.45140820888888705,mp-9919
AsSeI,1.5760699999999999,-0.45124700661458106,mp-505373
NaSb,0.821329,-0.448723322499999,mp-7944
Na2AgSb,1.25215,-0.44746044374999905,mp-7392
GaAs,0.43188499999999996,-0.44627705624999997,mp-2534
K7TaAs4,1.95475,-0.44525819609027706,mp-18073
Tl2Te3,0.918566,-0.44422730733333504,mp-29711
HgI,1.9561,-0.443566703750002,mp-22859
K2NaGaP2,2.06809,-0.44336723544416906,mp-9666
GaTe,1.4303299999999999,-0.44299320083333205,mp-542812
K2SiAs2,1.7000899999999999,-0.440748686900001,mp-6984
MgB9N,2.05525,-0.440278225568182,mp-30091
PtS2,1.5549300000000001,-0.440054991874996,mp-762
AlAgTe2,1.49665,-0.43926148875000204,mp-14092
K2AgP,1.9183599999999998,-0.43898535886904705,mp-9778
NClO6,2.89437,-0.4386477025,mp-27774
Rb2SiAs2,1.72967,-0.435768260000001,mp-6960
Tl3GeTe3,0.8694270000000001,-0.43467413857143505,mp-17217
Sr2Si,0.787864,-0.433073036666667,mp-1106
Rb2P3,1.32843,-0.43127663878571404,mp-2079
PtI3,0.710193,-0.431066994375,mp-28268
Ca(BC)2,1.05175,-0.42951374900000105,mp-10289
AlVFe2,0.382731,-0.42876261999999904,mp-5778
P2Pd,0.6415639999999999,-0.42824703142857,mp-28266
K2CuP,1.8841400000000001,-0.42659016261904803,mp-8446
AgHgSI,1.83963,-0.426432127916667,mp-23140
CuTe2I,1.23671,-0.42627028770833103,mp-31037
AlCuTe2,1.62124,-0.42519420625000104,mp-8017
K5As2Au,1.18979,-0.42455722140625,mp-8683
SnSe2,0.953976,-0.42389676937500004,mp-665
LiZnN,0.953316,-0.42346953347222105,mp-7575
K4HgAs2,1.47928,-0.423216713785715,mp-29484
Cs2SnAs2,1.57363,-0.42306429686207003,mp-8934
Mg3Sb2,0.714949,-0.421186031,mp-2646
RbAs,1.0379500000000002,-0.41755719312500006,mp-10802
PtI2,1.5258900000000002,-0.41580178833333703,mp-28319
Bi2S3,1.8524500000000002,-0.414615469187504,mp-22856
K2AgBi,1.3000099999999999,-0.414086274374998,mp-27549
AgClO4,3.64867,-0.414067270277776,mp-22993
ZrCoBi,0.9842690000000001,-0.41261500666666906,mp-31451
PPbSe3,2.1023400000000003,-0.411696905532741,mp-20316
MgSiP2,1.64148,-0.411262341071428,mp-2961
Ga7Te10,1.25152,-0.41019046411764704,mp-18388
Tl2Au4S3,1.70543,-0.40882017379629804,mp-29898
Pd(SeCl3)2,1.9574,-0.408247119236109,mp-28175
K3Cu3P2,2.06352,-0.407285519650297,mp-7439
Rb2SnAs2,1.50038,-0.407228313,mp-8931
Rb2As3,0.870263,-0.40697164749999903,mp-15556
K2NiAs2,1.026,-0.406948084900001,mp-9673
Te2Ru,0.364555,-0.406118763333338,mp-267
In2HgTe4,0.730773,-0.404802539642856,mp-19765
Na4ReN3,3.0628,-0.40465959225215503,mp-10419
K2NaInP2,1.8928099999999999,-0.40402125863861404,mp-21511
K4CdAs2,1.37883,-0.403009840571427,mp-29585
AuBr,2.1611599999999997,-0.40299109374999903,mp-505366
NClO,2.65958,-0.40282748583333305,mp-505727
NbFeSb,1.00924,-0.402070886666668,mp-9437
Al2Te5,1.45592,-0.40193999714285505,mp-9254
Si4P4Ru,1.7608499999999998,-0.401065874100529,mp-14983
Tl3BSe3,1.62011,-0.400568664241071,mp-28490
Rb3Sb,1.0542799999999999,-0.395674879375,mp-16319
FeSi2,1.0976400000000002,-0.395635093333333,mp-1714
K4BeAs2,1.81594,-0.39376619128571105,mp-29584
BaCaSi,0.56645,-0.393707309166668,mp-16253
ZnSiP2,1.60616,-0.39165684148809604,mp-4763
KSb2,0.547256,-0.39162036458333205,mp-29055
KNa4GeAs3,1.0791400000000002,-0.39157129919636,mp-16921
P3N5,3.6520300000000003,-0.391365922834822,mp-1954
KSnSb,0.555855,-0.39128040074999704,mp-3486
K2GeAs2,1.36187,-0.386287133900002,mp-8930
KSnAs,0.6939679999999999,-0.385741971583333,mp-3481
Rb5SiAs3,1.21695,-0.385169219166666,mp-17490
NaSnP,1.00092,-0.38346825099206205,mp-29529
NaGe2N3,2.97065,-0.383335662729884,mp-14433
NaBeAs,1.793,-0.37968383295977004,mp-9573
InAgTe2,0.168439,-0.37611397750000103,mp-22386
LiBC,1.4656099999999999,-0.37430803916666705,mp-9244
Rb3BP2,2.65318,-0.37385382349206303,mp-9720
TlSe,0.728856,-0.37315311578124905,mp-1836
Cs3Na2SnP3,1.87276,-0.37096819451696705,mp-17707
Pt(SCl4)2,2.36132,-0.37016734187499906,mp-28721
Ga2HgTe4,0.837044,-0.368972043928571,mp-16337
AgHgAsS3,1.48516,-0.36442808402777704,mp-6215
Cu3PS4,1.68759,-0.36257831302827204,mp-3934
KPb,0.8560099999999999,-0.362189247187497,mp-21526
CsAu,2.37819,-0.360558844999999,mp-2667
K4BeP2,2.1984299999999997,-0.36003767618367205,mp-9872
ZnGeN2,2.0668,-0.35987193624999997,mp-2979
MnP4,0.75333,-0.35863017630049104,mp-487
SrMgSi,0.125268,-0.358533394166666,mp-15642
InP,0.84168,-0.358273598988095,mp-20351
K3InP2,1.79321,-0.357505529617063,mp-20256
SeBr,2.16061,-0.357321793046875,mp-540943
IBr,1.8724,-0.35388224499999904,mp-27639
ClO2,1.06246,-0.352869884583334,mp-23207
K3Ag3As2,1.8389000000000002,-0.350068366468748,mp-14206
CuBiS2,1.02221,-0.347393063281248,mp-22982
BI3,3.21183,-0.347344851041667,mp-23189
Te4MoBr,1.0436400000000001,-0.34709146027777604,mp-29190
GaCuTe2,0.543702,-0.34634194499999804,mp-3839
Te2Br,1.00239,-0.345932209861111,mp-27648
KMgH3,4.38363,-0.34565612720000005,mp-23737
K2NaAlH6,4.0794,-0.34407027,mp-24412
Mg2Ge,0.379899,-0.34389672666666704,mp-408
GaAgTe2,0.446175,-0.34213799249999904,mp-4899
PI3,2.6472800000000003,-0.341758141160712,mp-27529
K2SnBi,0.7831950000000001,-0.34150255362500104,mp-31486
ClF,2.99884,-0.34096421624999995,mp-29504
PdS2,0.911077,-0.338315096875,mp-13682
Rb3Sn4Au,1.0203,-0.33685004843750005,mp-17401
CuSe2Cl,1.3251300000000001,-0.336460636406249,mp-31038
K2CuAs,1.88553,-0.3349658455,mp-15684
Pd(SCl3)2,2.17699,-0.33480553895833304,mp-28174
Te3Cl2,1.54907,-0.33295714550000005,mp-27628
CuTe2Cl,0.927246,-0.331452256250003,mp-30971
Na10SrSn12,0.964524,-0.32745206173913105,mp-30253
B6P,2.71353,-0.326223649710885,mp-28395
PdSe2,0.697851,-0.32612803020833003,mp-2418
RbMgH3,4.2614600000000005,-0.325598489916666,mp-23738
Rb3BAs2,2.31013,-0.32505594944444305,mp-9718
AuCl3,1.8204500000000001,-0.323221143125,mp-27647
Li2ZnGe,0.17519800000000002,-0.322400300416666,mp-12411
Bi4RuI2,0.675258,-0.32209606642856503,mp-541771
BeP2,1.00162,-0.319383066011903,mp-27148
CsMgH3,4.33126,-0.318075596681035,mp-23751
AuCl2,1.24603,-0.31720318750000104,mp-541656
PI2,2.37998,-0.313406983214285,mp-29443
TlAgSe,0.959589,-0.312412854687498,mp-29238
SBr,2.65586,-0.31156847874999904,mp-28099
Rb5GeP3,1.43724,-0.307582743214285,mp-17978
Te2Mo,1.02948,-0.30737176666666705,mp-602
SiC,2.4555100000000003,-0.305938795833333,mp-7631
Rb3Bi,0.884222,-0.305715446875001,mp-23304
MgAs4,1.08531,-0.304894355,mp-7623
CuSbS2,1.35702,-0.30456723890624904,mp-4468
As2Os,0.854585,-0.303892785000002,mp-2455
K3As,1.1033199999999999,-0.30332327731249903,mp-14018
TeAuBr8,1.2194,-0.301280221666667,mp-541134
Ga2Te5,1.1785999999999999,-0.298831161428572,mp-2371
MgP4,0.848259,-0.298333085714285,mp-384
K3Cu3As2,1.9513399999999999,-0.29791358959375003,mp-14205
NaMgH3,4.632560000000001,-0.29704166152586103,mp-23730
LiAlGe,0.256115,-0.291353459444444,mp-5920
CoAs2,0.09908320000000001,-0.290117705833334,mp-2715
Sb2Ru,0.18497999999999998,-0.28897595333333403,mp-20928
Tl(TeMo)3,0.551832,-0.287510241190479,mp-16096
Tl2B2Se7,1.67976,-0.28725675440341003,mp-16183
Sb2S3,1.65299,-0.287243025187498,mp-2809
Si3NiP4,0.590409,-0.286266877113094,mp-8311
Sb2Se3,1.0863800000000001,-0.28449458793750104,mp-2160
Fe(SiP)4,1.4082000000000001,-0.281895123174603,mp-9198
CsIn3,0.152535,-0.280249818333331,mp-542339
ZnGeP2,1.4206800000000002,-0.275104891488094,mp-4524
RbAu,1.9059000000000001,-0.27381589375000004,mp-30373
CdSiP2,1.67199,-0.272582178988093,mp-4666
Na3AlH6,4.57596,-0.271020285249999,mp-23705
Cs3Ge4Au,1.3328900000000001,-0.26901937737068904,mp-510341
Rb3Ge4Au,1.27749,-0.26604828406250003,mp-17830
AuI,2.46813,-0.265866406249999,mp-27725
SnTe,0.536519,-0.265049880000002,mp-1883
TeI,1.29935,-0.264790724583333,mp-23273
SrN6,4.370310000000001,-0.257930001785715,mp-2131
FeAs2,0.482465,-0.256783608333336,mp-2008