formula,bg,formation_energy,mp-id
Ag3PS4,1.52803,-0.256124809903273,mp-12459
Na10CaSn12,0.956851,-0.254896576251873,mp-30252
AlSb,1.41007,-0.252975485,mp-2624
Cd2As3I,0.944385,-0.252506879583335,mp-27577
AgSbS2,1.80571,-0.250111398906248,mp-3922
CuSbSe2,1.01525,-0.248575811406251,mp-20331
Hg2P3Cl,1.32478,-0.24673058523809702,mp-28875
CaN6,4.09604,-0.23335801964285802,mp-676
Be2C,1.48929,-0.23053140166666702,mp-1569
Hg2P3Br,1.52379,-0.224946760238096,mp-28874
Hg2As3Br,1.0323099999999998,-0.22273587291667002,mp-28899
KN3,4.97249,-0.22111233375000103,mp-827
RbPb,0.862655,-0.217142026562501,mp-21525
P2S5,3.2185799999999998,-0.21566022750212602,mp-541788
NaGe,1.16494,-0.21452557437499903,mp-29657
PAuS4,1.6524100000000002,-0.21174080820436303,mp-30938
B6As,2.78187,-0.20918894107142802,mp-624
LiN3,4.19419,-0.205821525729167,mp-2659
Ag3SbS3,1.45968,-0.19799694549107003,mp-4515
Ge3N4,2.4796199999999997,-0.192389701428573,mp-13852
ZnSiAs2,1.18126,-0.1912955775,mp-3595
LiAlSi,0.296569,-0.19126816777777703,mp-3161
LiAlB14,1.74352,-0.191039559791667,mp-8204
Te2I,0.872866,-0.18489281527777301,mp-27655
BaN6,4.62238,-0.182876322857144,mp-1707
HgPSe3,1.5178900000000002,-0.18159127153273802,mp-7293
CdP2,1.72258,-0.181319395734126,mp-913
MgB4,0.38470499999999996,-0.1727923235,mp-365
KGa3,0.535146,-0.1726160249375,mp-181
SiP,2.03771,-0.169962202321427,mp-2798
RbGa3,0.42173700000000003,-0.16880684916666602,mp-31493
Mg2Sn,0.37973700000000005,-0.167098778333331,mp-2343
ZnCN2,4.13153,-0.166211495624999,mp-29826
NaN3,4.84209,-0.1652483190625,mp-22003
P3Au2,0.527618,-0.16322673278571,mp-27258
LiSi,0.270198,-0.162072771041666,mp-795
CsSrN9,4.5745,-0.16103413443181402,mp-29228
AsS,2.21553,-0.159580558906249,mp-542810
K2CdPb,0.353647,-0.157758239874998,mp-504498
AgAsS2,1.96773,-0.157485410156247,mp-13740
Ag3AsS3,1.62748,-0.156706858705354,mp-4431
CuP2,1.06092,-0.156310461150794,mp-927
CdGeP2,0.94017,-0.15083163273809402,mp-3668
P10Au7I,0.9221670000000001,-0.14371069952380802,mp-27370
Ge19(PI)4,1.38029,-0.143230757724867,mp-23420
SiP2,1.694,-0.14239073156745902,mp-9996
AuSe,0.45090399999999997,-0.14021907453124502,mp-2793
RbN3,5.06524,-0.140204309375,mp-743
As2Se3,1.7590299999999999,-0.139482853937499,mp-909
BeAlH5,4.43935,-0.134761895892857,mp-23719
Si3Ag3(SnP3)2,0.453304,-0.12519537877550801,mp-18310
CdP4,0.7608210000000001,-0.120742532380951,mp-7904
SiAs,1.74026,-0.11968439208333301,mp-1863
Au2S,2.41124,-0.118341825937501,mp-947
SCl2,2.8274299999999997,-0.11561584347222101,mp-28128
Tl2(CdSb)3,0.6503490000000001,-0.11461817125000001,mp-29741
Ag2S,1.84017,-0.11352241760416601,mp-31053
Mg2Si,0.437415,-0.10859876333333301,mp-1367
CdSiAs2,0.701646,-0.10667615875000001,mp-3078
Ag3Te2Au,0.5548759999999999,-0.10585073750000101,mp-5710
CdSb,0.13595,-0.09586984937499901,mp-1321
Sb2Os,0.440988,-0.08399437833333401,mp-2695
NaSi,1.69407,-0.069361268125,mp-2402
PbAu2,0.16093700000000002,-0.065584006666663,mp-19871
GeAs2,0.941228,-0.06242388249999901,mp-17524
CdAs2,0.33590699999999996,-0.06123098999999901,mp-471
Rb2PtC2,1.99006,-0.061142019000000006,mp-10919
GeAs,0.790913,-0.060294584583334004,mp-9548
Cs2PtC2,2.15146,-0.05227855586207,mp-505825
TlP5,1.70147,-0.044324999146825,mp-27411
Ag3Ge5P6,0.7329690000000001,-0.041898267346937,mp-17862
GeTe,0.744649,-0.035467995000001,mp-938
CdCN2,2.9949,-0.027482624374998002,mp-10969
SiH4,7.4246099999999995,-0.008217420500000001,mp-23739
Te3As2,0.687804,-0.001508734,mp-484
B,1.39114,0.0,mp-160
Si,0.752349,0.0,mp-149
O2,1.4624300000000001,0.0,mp-12957
Sb,0.139434,0.0,mp-104
Cl2,3.27725,0.0,mp-22848
Te,0.530833,0.0,mp-19
I,1.30683,0.0,mp-23153
Br,1.86005,0.0,mp-23154
C,0.28787599999999997,0.003121854999999,mp-48
P,0.397024,0.020214559523809003,mp-157
PbCN2,2.5195,0.037617892499998,mp-19727
V4As2O13,0.107207,,mp-32447
Cs2K4Fe2O5,0.113901,,mp-541234
WBr6,1.2814,,mp-504993
KBi(WO4)2,2.59296,,mp-510667
Hg3(TeCl)2,2.22293,,mp-504706
PbO,2.2697,,mp-20442
Sb2WO6,0.870305,,mp-541435
Cd4OF6,2.9274,,mp-505174
Li4GeS4,2.96547,,mp-510033
VHgO3,2.22043,,mp-541588
CsAgO,2.4611300000000003,,mp-14579
Tl3BS3,1.8904,,mp-505399
KCuO,2.41431,,mp-14296
KAgO,2.4598899999999997,,mp-8660
Li4TaN3,3.33854,,mp-505795
GaCuCl4,3.19595,,mp-505410
Mg(AuF4)2,2.66909,,mp-17555
RhBr3,1.59709,,mp-504719
InBrO,2.57032,,mp-504656
BaP10,1.50236,,mp-504809
K2Zn3O4,2.54806,,mp-504936
V2Zn2O7,3.07006,,mp-19707
Sr4PdO6,2.1023,,mp-505606
CsBr3,2.60839,,mp-504635
GaN,2.17457,,mp-805
BaCuN,1.08246,,mp-505338
MoPbO4,3.0770500000000003,,mp-25054
Ba(PdS2)2,1.18979,,mp-505230
Rb2Cr2O7,3.01289,,mp-19658
InGaO3,2.3161,,mp-22606
BaCrO4,3.1220100000000004,,mp-19662
CaInBr3,3.5929699999999998,,mp-505024
LiBiF4,5.85941,,mp-505032
LiAuI4,0.735494,,mp-505462
CsAl(MoO4)2,4.300800000000001,,mp-542116
NOF,4.06032,,mp-505726
RbLa(MoO4)2,4.37018,,mp-19687
SnClF,3.97384,,mp-504519
RbMgCl3,6.30764,,mp-504459
Cs2PdI6,0.9047970000000001,,mp-505635
LaSiBO5,6.7824,,mp-7051
Na2SnF6,6.92856,,mp-8811
Ba2FeMoO6,1.18397,,mp-510675
TlBF4,6.8884799999999995,,mp-510136
BeSO4,8.30804,,mp-505568
RbMnBr3,0.108441,,mp-505596
P4Ru,1.39165,,mp-504443
Cs6Fe2O5,0.19775,,mp-541385
Na2In,0.197452,,mp-510678
FeTe2,0.293488,,mp-20653
FeMoO4,1.42371,,mp-541843
NaYGeO4,4.95622,,mp-17543
Co(ClO4)2,1.58206,,mp-31621
Pb3O4,1.48727,,mp-542494
Na4CoO4,0.165268,,mp-31593
NaCuO,2.2374899999999998,,mp-14580
Cr2Ag2O7,1.62969,,mp-504441
RbLiCl2,6.47212,,mp-504888
KNaS,3.92652,,mp-504938
KPt2S3,1.5732899999999999,,mp-510130
InTeI,1.98831,,mp-505356
CsMgI3,4.097729999999999,,mp-505586
Ba(AlCl4)2,6.6854,,mp-505755
GaAgS2,1.54578,,mp-5343
InI2,2.29205,,mp-505387
Na3BO3,4.90903,,mp-510256
LaBN2,3.01904,,mp-505493
CsAuO,2.3972399999999996,,mp-10548
GeAsSe,2.05301,,mp-505360
TaPCl10,3.6038200000000002,,mp-504684
Al4(B2O5)3,7.15567,,mp-510509
CsI2Br,2.3296799999999998,,mp-504641
Tl2PtCl6,2.13381,,mp-504695
SCl,3.3613299999999997,,mp-504824
K3BrO,3.0604699999999996,,mp-504857
PbSO4,5.178529999999999,,mp-22298
RbCuO,2.36447,,mp-8665
Hg2P2O7,2.45242,,mp-504981
RbCdBr3,3.34897,,mp-504529
RbSbS2,2.4082399999999997,,mp-15366
Be2Te7Cl6,1.4952999999999999,,mp-505788
Ba2PdF6,2.35379,,mp-505621
K2PdF4,2.66948,,mp-504853
V2CdO6,2.64433,,mp-550436
GeI2,2.32008,,mp-504756
RbLa(WO4)2,4.12884,,mp-19680
LaAs2,0.779432,,mp-505640
TlBr2,2.27679,,mp-504527
PbWO4,2.99161,,mp-540719
K3V5O14,2.74836,,mp-540787
Ba(BrO3)2,5.16587,,mp-505008
Sr(ClO3)2,6.05791,,mp-504991
Ca3V2O8,3.96377,,mp-542076
SrLaI4,0.860706,,mp-505793
YClO,6.088439999999999,,mp-504786
K2TeSe3,2.32152,,mp-504959
Sb(IF3)2,0.88486,,mp-504965
Rb2CdCl4,3.84809,,mp-505668
PbSe,0.946387,,mp-20667
Hg2WO4,2.01995,,mp-32542
Li2O,6.0585,,mp-553090
CaV2O6,3.35724,,mp-32526
Rb2ZnI4,3.51714,,mp-505748
MoS2Cl3,1.78515,,mp-504716
Cl2O,1.91283,,mp-505466
VCl3O,3.18473,,mp-504820
VBiO4,2.92985,,mp-613172
CaWO4,4.58615,,mp-510563
Rb2Zn3O4,2.52925,,mp-505501
SrLiBi,1.00209,,mp-510112
RbAuBr4,1.7431800000000002,,mp-510267
mp-3518,5.7256800000000005,,mp-3518
La3TaO7,4.25287,,mp-510513
YAgO2,2.92498,,mp-510034
TeAuI,1.13137,,mp-504668
InS,1.76055,,mp-20094
K2TeS3,2.88784,,mp-505556
Na2CO3,6.0885299999999996,,mp-22381
CdIn2O4,1.75362,,mp-21047
NaGaBr4,4.21797,,mp-505084
Ca3AsBr3,3.01567,,mp-504488
SrCrO4,3.02109,,mp-542885
MgCO3,6.29783,,mp-5349
Al2PdCl8,2.16211,,mp-504547
Na5InS4,2.96579,,mp-505414
LiBiO2,2.75431,,mp-504893
Cs2Pd3Se4,1.2710599999999999,,mp-504855
VInO4,3.5854899999999996,,mp-25113
MgF2,9.07161,,mp-1810
V2O5,2.6147,,mp-510583
Mg2V2O7,3.19995,,mp-32500
Tl3SbS4,2.1179099999999997,,mp-15360
RbBiS2,1.92757,,mp-505761
Tl3VO4,3.1555500000000003,,mp-32479