formula,bg,formation_energy,mp-id
Na2Pd3O4,0.6757580000000001,-1.141165042528733,mp-27562
Ba(AlTe2)2,1.9958099999999999,-1.140490400238092,mp-28505
NaTaN2,1.17922,-1.139296941208332,mp-5475
Rb2SnSe3,2.30658,-1.137568621171873,mp-9145
K2VCuSe4,1.30656,-1.136528660484375,mp-15220
SrLiP,1.97628,-1.134869963214286,mp-13276
GaBr2,3.4379899999999997,-1.13377497625,mp-28384
CuSe2O5,0.15713,-1.133686287460938,mp-3199
CsMnI3,0.107063,-1.133208356517244,mp-540609
RbBS2,3.4528499999999998,-1.132632064583333,mp-15013
Sr3As4,0.947769,-1.1324619135714291,mp-15339
Rb2O,3.3602600000000002,-1.129998786666666,mp-1394
TaTeBr9,2.53215,-1.12973077627273,mp-29716
NaLiTe,3.18723,-1.129250698793103,mp-8754
Ca(MgAs)2,1.80942,-1.129124516999999,mp-9564
K3AuSe2,2.88936,-1.129119164406249,mp-15571
AgF3,0.596441,-1.128947433749999,mp-18536
KGaI4,3.0242600000000004,-1.128624944541663,mp-29402
SrPSe3,2.61671,-1.128138445532738,mp-7198
Na2Te,2.933,-1.127802620000001,mp-2784
K3AlTe3,2.86496,-1.127586541607144,mp-18378
YAgTe2,1.1613499999999999,-1.125885941249998,mp-12903
KBS2,3.3624899999999998,-1.125855964937499,mp-15012
AgF,0.74701,-1.122615552499999,mp-7592
Na4SnSe4,2.20744,-1.120886811099137,mp-28768
Na3PS4,2.93883,-1.119841152347598,mp-28782
K2SnSe3,2.21472,-1.119194034421874,mp-9693
K2MnSe2,0.0865415,-1.118830064423706,mp-8716
CsI3,2.23894,-1.113519470538793,mp-22876
K3AsSe3,2.52756,-1.110978559111606,mp-18594
K2PtS2,1.7730899999999998,-1.110685690624998,mp-7928
Rb2GeSe3,2.11171,-1.110592218671873,mp-9794
Ba(BeN)2,2.2103,-1.107963756,mp-12927
CsS,2.7510700000000003,-1.107907756406248,mp-29266
Sr3P4,1.24722,-1.107893037414965,mp-14288
Al2HgS4,2.46297,-1.106310683214292,mp-7906
Mg2PN3,4.27285,-1.105098610773809,mp-3933
Rb2VAgSe4,1.39474,-1.103068673880207,mp-14635
AuF3,2.16421,-1.101981742499999,mp-942
Ga2PdBr8,2.02584,-1.101282322272727,mp-30945
Rb2PtS2,1.77364,-1.100870729999997,mp-7929
Al2ZnSe4,2.5813699999999997,-1.100773949910713,mp-7907
Mg(InS2)2,2.25505,-1.100294376547618,mp-20493
KS,2.30497,-1.099480114947915,mp-1287
KAuBr4,1.4043800000000002,-1.097771732458332,mp-29694
CsCu2Cl3,3.1298000000000004,-1.097189427916667,mp-23065
K2GeSe3,2.24742,-1.096713106088544,mp-9692
RbClO4,7.27338,-1.09439221125,mp-28433
ZrTlCuSe3,0.774616,-1.092194374227433,mp-7050
NaInS2,2.45751,-1.090385381406248,mp-20289
Ag2CO3,0.9519930000000001,-1.089499118055555,mp-4691
K2PtSe2,1.4308699999999999,-1.088003907837501,mp-8621
HfTlCuSe3,0.934366,-1.08691476172743,mp-9397
Rb2S3,2.0177899999999998,-1.086621892499998,mp-7446
TaTlS3,0.826442,-1.086338705633336,mp-10795
Sr5Mo2N7,1.6767,-1.086088278214286,mp-31231
Hf(Te2Cl3)2,1.3660999999999999,-1.083728778636363,mp-29419
KClO4,7.26996,-1.083206086625002,mp-23526
NaAuO2,1.9189,-1.081343630344827,mp-20343
K2WSe4,1.45984,-1.078622331625001,mp-18138
Cd(PtO2)3,0.465015,-1.076017277999997,mp-8212
Al2CdSe4,2.40769,-1.075488398482142,mp-3159
ScPS4,2.48922,-1.074563742371031,mp-6999
RbI3,2.19226,-1.074112831874999,mp-28328
K2Se3,1.03348,-1.073890771306249,mp-7670
SCl2O,4.240939999999999,-1.072571903124999,mp-28406
MgTe,3.03883,-1.071546200833333,mp-1039
Cs2PtI6,0.935063,-1.070568932145593,mp-23060
Cs2TeI6,1.78182,-1.070394815108554,mp-540957
CsGeI3,1.59275,-1.069608593931036,mp-28377
KV(CuS2)2,1.42216,-1.068431111531248,mp-6376
RbAuO,2.42949,-1.067955709166669,mp-10547
TaCuS3,0.716238,-1.065123988466663,mp-3102
CsTe,1.46277,-1.0644603675,mp-8361
Ba(AgS)2,1.46731,-1.063721045666665,mp-8579
CsCu2Br3,2.74417,-1.063013854942529,mp-23017
Li2GePbS4,2.78246,-1.061876898958332,mp-19896
Na3GeSe3,2.2583200000000003,-1.060587030167025,mp-18411
CsBrO3,4.93459,-1.058973331931034,mp-28873
ZnO2,3.0591399999999997,-1.058444209166666,mp-8484
Zn(IO3)2,3.89674,-1.057101210555555,mp-23360
Li16Ta2N8O,4.0827,-1.056979827888888,mp-14871
LiInSe2,1.9877799999999999,-1.056964433697915,mp-20187
K3SbS4,2.86417,-1.0566366803125,mp-9781
Rb3AsSe4,1.72607,-1.055199600546873,mp-18305
SnCl2,3.70432,-1.055039141666666,mp-29179
KAg(NO3)2,3.38816,-1.053053297391665,mp-18429
RbBrO3,4.76575,-1.052957117499999,mp-28872
BaCu2SnS4,1.453,-1.052913258541665,mp-17954
CaPSe3,2.5543299999999998,-1.051984898032739,mp-11007
RbTe,1.1664400000000001,-1.048316926249999,mp-9064
KBrO3,4.56599,-1.044634649449999,mp-22958
BiCl3,4.08939,-1.044261659374999,mp-22908
SrCu2GeS4,1.9672100000000001,-1.043014072708333,mp-18685
BCl3,5.66083,-1.0426612775,mp-23184
Li3LaSb2,0.16141999999999998,-1.041515827499999,mp-8405
CaCN2,4.72291,-1.040555056874998,mp-4124
NaAgO,1.97901,-1.036896748515321,mp-6983
K2ZnTe2,2.35989,-1.035780234566666,mp-12535
Ba3(AlN2)2,2.55594,-1.033622193333334,mp-17133
PdSeO3,1.60169,-1.032893985468749,mp-545482
TiI4,1.4438499999999999,-1.031189425666664,mp-541013
Rb2TeI6,1.91987,-1.029657680185183,mp-28070
BeSe,3.0292399999999997,-1.029387863671874,mp-1541
Na2PtS2,1.7041099999999998,-1.028636579124997,mp-10246
Sr3SbN,1.07602,-1.027945077000001,mp-7752
K2HgS2,3.06318,-1.0272830079,mp-28859
CdHgO2,1.0513299999999999,-1.024806805625,mp-9146
Na3AgS2,3.07422,-1.024525277604166,mp-9634
Sr(PIr)2,0.41706299999999996,-1.02326143052381,mp-15074
Cd(IO3)2,4.0142,-1.023053216388888,mp-27640
Hg3(SF)2,2.44196,-1.022654033928574,mp-7580
Rb(MoS)3,1.04812,-1.020204569285711,mp-8117
P4N3Cl11,3.91471,-1.018900212976191,mp-28792
SrLiSb,1.14608,-1.018784152777778,mp-7756
Li4NCl,0.9243150000000001,-1.018106857986112,mp-29149
BaAg2GeS4,1.10823,-1.017806503541665,mp-7394
Ba(InTe2)2,1.24402,-1.017688293571426,mp-21183
Ca(PIr)2,0.475293,-1.017184773190479,mp-11168
KTe,1.10501,-1.013552613124998,mp-2072
Na3AsS3,2.99357,-1.010759029419643,mp-5830
K2PAuS4,2.26771,-1.010385426142856,mp-9509
Ba5P4,1.59346,-1.010239834841253,mp-17566
NaInSe2,1.59777,-1.009197114531248,mp-22473
BaLiSb,1.1641700000000001,-1.008913952777778,mp-10485
Al2Se3,2.5370999999999997,-1.0088235364375011,mp-11674
LiClO4,7.2505299999999995,-1.008014841805556,mp-30301
Li3BN2,4.13524,-1.006785902916667,mp-5001
LiGaI3,2.55891,-1.006771274666666,mp-29345
CaPAu,0.21665299999999998,-1.006515299325395,mp-10677
LiCaSb,1.12098,-1.006045865277776,mp-16264
K2TeI6,1.9946400000000002,-1.006003727907404,mp-27688
AgHg3SbO6,1.5135399999999999,-1.005880865833335,mp-12362
Ca4GeN4,2.27133,-1.005702749166666,mp-29808
CoAgO2,1.06292,-1.005616199166666,mp-19178
NaClO4,7.30823,-1.004299429396551,mp-22968
SbBr3,3.84367,-1.002810886249999,mp-27399
Sr2LiReN4,2.49079,-1.002574297604167,mp-10556
NaSe,1.04294,-1.000117890781251,mp-15668
LiInI4,2.66508,-0.9999549629166661,mp-541001
MoCl3,0.179824,-0.9998242821875001,mp-22853
RbAgO,2.4480500000000003,-0.9997084205555551,mp-8603
NaBrO3,5.31254,-0.9990614762758611,mp-23339
CaAsAu,0.177517,-0.9990167908333321,mp-3927
NaNb(CuS2)2,2.2349,-0.9970451157974121,mp-6181
CaMg2N2,2.71083,-0.9967938875000001,mp-5795
TlAuCl4,1.9818,-0.99616455138889,mp-28368
RbIn3S5,1.69113,-0.9947991457407391,mp-542654
Zr(PS3)2,2.1365100000000004,-0.9943187860317441,mp-8203
LiBeN,3.6255100000000002,-0.9938989936111111,mp-29463
Na2PdS2,1.40632,-0.9922091081249981,mp-10223
SrCN2,4.512689999999999,-0.9915116593750011,mp-12317
Na2Si2Se5,3.2429,-0.989946137164152,mp-18562
TlNO3,3.74194,-0.9875068636666691,mp-5915
Sr3(SiAs2)2,1.3908800000000001,-0.9870344161111101,mp-11677
RbTa(CuSe2)2,2.12107,-0.986762766776041,mp-11925
Ca6GaN5,1.57017,-0.9844566178125,mp-17875
K3SiTe3,2.30756,-0.9843654023214291,mp-7657
Cs2Se3,1.25445,-0.9840312844375001,mp-7449
K2Sn2Se5,1.18071,-0.982770607913194,mp-8966
K2In3AgSe6,1.60603,-0.9816662723107631,mp-21705
Tl2TeBr6,2.49791,-0.981408941481483,mp-31076
Cu2PbO2,1.82549,-0.9810454259999981,mp-29396
CaCuP,0.48719799999999996,-0.9806242109920641,mp-8432
MoBr3,0.145013,-0.9782778575000001,mp-23312
PICl6,2.85909,-0.9774495118303571,mp-27824
BaCu2SnSe4,1.00937,-0.9756099205468741,mp-12364
Na2PtSe2,1.32552,-0.9740806616249981,mp-14588
K2Mg(PSe3)2,2.3657600000000003,-0.9733716048043821,mp-11643
K2B2S7,3.1025,-0.9724350941212101,mp-4351
CsCu3O2,2.2296799999999997,-0.9694350532758621,mp-553303
TlIO3,3.48369,-0.968889334666667,mp-22981
KTa(CuSe2)2,2.0554200000000002,-0.968526246744791,mp-6013
ZrP2S7,2.25841,-0.96832660617857,mp-31014
Sr(InTe2)2,1.20571,-0.966013380000003,mp-20397
KNb(CuSe2)2,1.77489,-0.9648636458281241,mp-6599
Cs2Ni3S4,1.36572,-0.9642947071455931,mp-28486
PNCl2,5.12932,-0.9641799751190481,mp-23375
K2Te2Pt,1.04598,-0.9639222794999991,mp-8623
KAlTe2,2.51708,-0.963640327187501,mp-18347
NaSrP,1.9904600000000001,-0.963640314880952,mp-13275
ScNiSb,0.13845,-0.9635939116666631,mp-3432
Ba2LiReN4,2.5830100000000003,-0.963360580104167,mp-10555
AlCuS2,2.69017,-0.963132853906248,mp-4979
ZnS,2.58289,-0.9625521039062511,mp-10695
CuRhO2,1.30836,-0.9612006149999991,mp-14116
Rb2Te3,1.0629600000000001,-0.9586328204999991,mp-2095
KPS3,2.36931,-0.957297178878565,mp-8267
Na3AsSe3,2.37437,-0.956518379955357,mp-8686
TaAgS3,0.100123,-0.9555403932999991,mp-5821
Rb2S5,2.5010700000000003,-0.9552900410714281,mp-16911
AlI3,4.03842,-0.9552141906250001,mp-30930
Ba(AgTe)2,1.00924,-0.952725886833328,mp-18501
Li6WN4,3.7570900000000003,-0.952176872727273,mp-3503
ZnSe,1.51425,-0.9515610311718761,mp-1190
VS4,1.02272,-0.9510626574999991,mp-541155
CuBiSeO,1.10137,-0.950861200585937,mp-23116
YNiSb,0.15378899999999998,-0.9493987499999981,mp-11520
Ba3P4,0.8279930000000001,-0.948490984081629,mp-14289
Ba3GaP3,1.17925,-0.94679452734694,mp-541715
LiZnPS4,3.3106799999999996,-0.9466399625680261,mp-11175
CsAuI3,0.910917,-0.94590951493103,mp-28453
Ca2Sb,0.510827,-0.9454077566666661,mp-9925
Sr3(GeAs2)2,1.12537,-0.9451046286111091,mp-17504
K2Ni3S4,1.18632,-0.9446758993888861,mp-17228
SbCl3,4.248270000000001,-0.9443040312500001,mp-22872
TlPd3O4,1.41837,-0.9432176497916661,mp-5478
CaCuAs,0.566702,-0.9415454925000001,mp-4120
BaLiAs,1.18835,-0.9396946902777781,mp-10616
TiSnPt,0.871192,-0.938612322222217,mp-30847
Rb2Pt3S4,1.912,-0.9379258116666631,mp-4030
Y3Sb4Au3,0.609082,-0.9369433720000071,mp-13654
RbIn5S8,1.8584100000000001,-0.936158507202379,mp-20938
InBr,1.63736,-0.934811325833333,mp-22870
K(MoS)3,1.0240799999999999,-0.9324394060267871,mp-8116
TaTl3S4,3.2141100000000002,-0.9307974334166691,mp-7562
Rb2Pd3Se4,1.1045,-0.930349548263888,mp-14340
Ba(MgAs)2,1.54535,-0.9285784290000021,mp-8280
Ca3(GeAs2)2,0.978293,-0.9285455169444431,mp-18504
RbAuS,2.89829,-0.927596775,mp-9010
BBr3,4.64106,-0.927507426041666,mp-23225
PtO2,0.814699,-0.9266031233333341,mp-1285
LiAlTe2,2.70704,-0.925174646666666,mp-4586
Na3SbS4,2.58502,-0.9230619964062501,mp-10167
KCuS,2.90447,-0.921985167416667,mp-28270
PbI2,2.89373,-0.9208407083333321,mp-22883
Sr3(GeP2)2,1.38369,-0.9205362554894181,mp-18351
Ti(PS3)2,1.8985,-0.9187834819576711,mp-13666
Ba(MgP)2,1.63891,-0.9180718758571421,mp-8278
Ag2BiO3,0.735476,-0.9173112705555521,mp-23558
BaCN2,4.369470000000001,-0.9171462654166661,mp-28898
K2Pd3Se4,0.9680059999999999,-0.9122132659861111,mp-14339
CsNbN2,2.2294,-0.9110458324137941,mp-8978
RbInTe2,1.4984300000000002,-0.9108616893749981,mp-22255
BaLiP,1.5726099999999998,-0.9094072093253971,mp-13277
Ba3CrN3,0.187548,-0.9083864385714261,mp-12905
RbAuSe,2.49631,-0.9068824016145831,mp-9731
AlAgS2,2.58243,-0.904003048906249,mp-5782
KGaTe2,1.6102,-0.903429579520833,mp-17965
KInTe2,1.4047100000000001,-0.9014764568124971,mp-19851
LiMgAs,1.75404,-0.8998631680555551,mp-12558
BaP3Pt2,0.406353,-0.8983299264880871,mp-28373
CaAgAs,0.15559299999999998,-0.8982986191666661,mp-5615
CsGaTe2,1.6926400000000001,-0.8982057531250011,mp-17688
Cs2AgSbS4,2.1679899999999996,-0.897385242622125,mp-510710
KAuSe,2.56617,-0.8961049631979161,mp-9881
TaTl(CuS2)2,2.33989,-0.8950080144583331,mp-9815
K2SnTe3,1.31399,-0.8917474640833291,mp-29835
AlTlSe2,1.29275,-0.8912764307812501,mp-9579
Ba2GeAs2,0.718144,-0.889334313500002,mp-8195
BiSBr,2.4983299999999997,-0.8865928066666711,mp-23324
Cd(GaSe2)2,1.66368,-0.8853534391964281,mp-3772
RbPt2Se3,1.1780899999999999,-0.884477465755207,mp-14797
Cs2Pd3S4,1.68586,-0.8843507479166671,mp-510268
Sr(GaTe2)2,0.697097,-0.884241162857145,mp-6987
NaNbN2,1.3788399999999998,-0.884141047844828,mp-7017
WS2,1.69121,-0.8835800085416661,mp-224
Na3SbSe4,1.5357,-0.8823437045312481,mp-8703
Cs2Pt3S4,2.09836,-0.882246507916666,mp-13992
MgPSe3,2.50184,-0.8816437593348211,mp-30943
KAuS,2.9907399999999997,-0.8778747771875001,mp-7077
SBr2O,3.26111,-0.877256578437499,mp-28407
CsIn5S8,1.82973,-0.8742669166071401,mp-22007
K(SnSe2)2,1.5454100000000002,-0.8701936988035711,mp-28769
Tl2ZnI4,3.2974,-0.8696858452380951,mp-30532
TaCu3S4,2.44692,-0.8680332296666661,mp-10748
VNCl4,1.75734,-0.8677314474999901,mp-27868
CsBiS2,2.0838400000000004,-0.8667762614062541,mp-541378
Cs2CoSe2,0.1661,-0.866066649783729,mp-8770
TlI,2.6050500000000003,-0.8653483916666691,mp-22858
RbCaSb,2.1982600000000003,-0.8635735924999991,mp-9846
Zn(InSe2)2,1.33381,-0.86116859752976,mp-22607
BiAuBr6,1.48771,-0.8604228800000001,mp-541774
AsBr3,3.58899,-0.860313386875,mp-23317
Li6MoN4,3.1046300000000002,-0.8591241350000001,mp-8804
CaAgP,0.0998112,-0.8588143732142851,mp-12277
VCu3S4,1.42476,-0.8562810200000001,mp-3762
Tl3VS4,2.27195,-0.855684195,mp-5513
Rb2Cd(PSe3)2,2.3428899999999997,-0.854305310758928,mp-541897
KSbS2,2.0468,-0.8528676698437501,mp-11703
NbSeI3,0.971418,-0.852683505468748,mp-541817
Ba2GeP2,0.789106,-0.8507398508571411,mp-8194
Ca2ZnN2,1.5438800000000001,-0.848958886000002,mp-8818
NbCu3S4,2.15154,-0.847748116249999,mp-5621
FeS2,1.33625,-0.8474769699999981,mp-1522
Na3SiTe3,2.44535,-0.8463417455911321,mp-17291
Tl2SiS3,2.83235,-0.8455239856944421,mp-8190
Rb2Ni3Se4,0.8781760000000001,-0.845413846041668,mp-18691
K2Te2As,1.36148,-0.8438403913166671,mp-29380
Li3As,1.1870999999999998,-0.841232569375,mp-757
CdO2,2.1253,-0.8412000416666661,mp-2310
RbCaAs,2.1341799999999997,-0.8403775799999991,mp-9845
Cs2Pt3Se4,1.75003,-0.838791477361111,mp-14338
LiInTe2,1.6890399999999999,-0.8370955545833321,mp-20782
CdSe,0.895428,-0.8370525111718741,mp-2691
Cd(InSe2)2,1.28515,-0.8343265846726181,mp-22304
Ba(MgSb)2,1.23712,-0.8334507839999981,mp-9567
CsPS3,2.60904,-0.833033696282736,mp-504838
K2Pd3S4,1.5088499999999998,-0.832547670972221,mp-9910
KCuSe,0.872462,-0.830537769864582,mp-7435
HgBr2,3.07826,-0.8287702491666711,mp-23292
SbI3Cl8,1.6671099999999999,-0.8271068245833321,mp-23536
CdI2,2.59644,-0.8269342623333321,mp-28248
SrMg2N2,2.4843800000000003,-0.826653964,mp-10550
Ga2HgS4,1.97717,-0.826619146785716,mp-4809
Cd(GaS2)2,2.62418,-0.8257759216071421,mp-4452
Al2HgSe4,1.73018,-0.825231304821429,mp-3038
Ag2SeO3,2.23156,-0.8250872030295131,mp-16913
NaAlTe2,2.0021400000000003,-0.823727190000003,mp-10163
CaGeN2,3.27461,-0.8207689481250011,mp-7801
Rb2B2Se7,2.19293,-0.8198785858854201,mp-16184
KInP2S7,2.58678,-0.819734610518397,mp-22583
GaTeCl,2.44178,-0.818999890833334,mp-27449
P2Ir,0.609711,-0.8183616969841261,mp-10155
Ge2N2O,3.26044,-0.817928909,mp-4187
Li5ReN4,3.26627,-0.8175017920833321,mp-3838
SrCuP,0.474651,-0.8173132265476171,mp-16321
KAuSe2,1.23481,-0.8170831492343761,mp-29138
Tl2O,1.15246,-0.814049282222227,mp-551470
KAgSe,1.21601,-0.811976038753471,mp-16236
Cd2GaAgS4,1.63309,-0.8115381298958321,mp-6356
Ge2S3Br2,3.19456,-0.8114880353571421,mp-540792
Sr(ZnP)2,0.985195,-0.810472131190476,mp-8276
Li3P,1.27675,-0.809360786994047,mp-736
K2B2Se7,2.10638,-0.8084964817490511,mp-542637
NaPN2,5.72596,-0.807427201505542,mp-10572
Sr3GaN3,1.4221199999999998,-0.8072489794642881,mp-7191
Si2CN4,5.25588,-0.807115940714284,mp-30161
B6O,2.06418,-0.8052726050000011,mp-1346
LiAg3O2,1.07206,-0.8048942663888881,mp-27227
Sr3(InP2)2,1.02352,-0.804655888544974,mp-28324
Li2CN2,5.06557,-0.8028615141666671,mp-9610
CaSbAu,0.117994,-0.8008058683333311,mp-16245
Hf(PS3)2,2.83908,-0.800161286980819,mp-14444
YIr,0.223633,-0.7990102449999991,mp-30746
KBiP2S7,2.95033,-0.7979409535487001,mp-23572
LiCaN,2.0472,-0.7978766309722221,mp-31468
Nb3I8,0.167019,-0.797843850000002,mp-27772
Sr3(GaN2)2,2.37295,-0.7975283000000011,mp-16945
Ga2S3,2.39877,-0.7975143386875001,mp-539
FeBr2,1.50838,-0.7966675133333341,mp-22880
NaSbS2,1.2682,-0.795515903906251,mp-5414
K2SnTe5,0.87402,-0.793495430354165,mp-28080
Cs2Au2Se3,1.90981,-0.7905192645982141,mp-29194
Bi(TeBr2)2,1.22194,-0.79017171547619,mp-29127
P2Pt,1.09351,-0.789592848650793,mp-730
SbSBr,2.17634,-0.7882413033333321,mp-22971
PBr3,3.86779,-0.7874999842857141,mp-27257
NaMgAs,1.83345,-0.7864752741666661,mp-5962
ZrSnTe,0.144396,-0.7862338950000001,mp-9289
Cr4InCuSe8,0.0867274,-0.7855761346726151,mp-20809
RhCl3,1.98698,-0.784634455624997,mp-27770
GaI3,2.85493,-0.7841287225000011,mp-30954
PbS,1.07862,-0.7840503037499971,mp-21276
HfSnPd,0.226056,-0.782001370000003,mp-11869
PBr5,2.2236,-0.7813882074404751,mp-22874
BaAs2,0.682868,-0.7792174177777801,mp-31243
TlInS2,1.0416400000000001,-0.7771798081250011,mp-20042
CdS,1.66727,-0.7766083889062491,mp-672
Ca(MgSb)2,1.25963,-0.77549995,mp-9565
Sr(As3Pt2)2,0.205846,-0.77549654818182,mp-14500
NaInTe2,1.18227,-0.7743100253448261,mp-22483
Cs2Ni3Se4,0.994198,-0.7741281118055571,mp-14336
Tl6SeI4,3.00938,-0.772034905667617,mp-28517
ReCl3,1.01559,-0.7714202237499991,mp-23174
NbTeI3,0.7563690000000001,-0.7703017873333311,mp-540924
Tl6SI4,3.10247,-0.76957963977273,mp-27938
Rb(SbSe2)2,1.37683,-0.767052543124999,mp-9798
RbHgSbSe3,1.7641600000000002,-0.7669543786718781,mp-6300
BiI3,2.90461,-0.7663869175000011,mp-22849
SrCuSb,0.331473,-0.7653390883333341,mp-10749
GaS,2.4896700000000003,-0.7642187451562491,mp-2507
MgGeN2,3.1615900000000003,-0.760936786249999,mp-7798
CaAgSb,0.31252800000000003,-0.757239733055554,mp-11214
I2O5,3.3380300000000003,-0.7564620653571411,mp-23261
AlCuSe2,1.66048,-0.7563341932812491,mp-8016
CdCu2SiS4,1.83877,-0.7558171031249981,mp-6449
AsCl3,4.52805,-0.755685861249999,mp-23280
BaNaBi,0.85409,-0.755547202681991,mp-31235
Tl4SiS4,2.46717,-0.7548987675925951,mp-8479
MoSe2,1.4312799999999999,-0.749936842708334,mp-1634
SiS2,3.8527600000000004,-0.7497998852083321,mp-1602
SnI2,2.16305,-0.7447498127777771,mp-27194
Li3Sb,1.10749,-0.744135469999999,mp-2074
In2S3,1.4381700000000002,-0.743551954687498,mp-22216
AlAgSe2,1.6604,-0.7432121020312501,mp-14091
Hg2NO4,2.03097,-0.739543580714287,mp-5824
Ta3I7,0.951337,-0.7386289999500051,mp-23238
AlP,1.92789,-0.737248783988095,mp-1550
BiSCl,2.46015,-0.7342089301041691,mp-23318
Zn4P6SN12,4.67699,-0.7335198824068311,mp-15833
In2HgS4,0.893977,-0.7316871015476181,mp-22356
NbI5,1.14194,-0.7311326595833311,mp-31487
PCl3,4.70096,-0.7302945176190471,mp-23230
Zr3Ni3Sb4,0.42397399999999996,-0.7275767780000011,mp-17926
Sr2Sn,0.192432,-0.727466508333333,mp-978
P2Rh,0.33743900000000004,-0.7267235144841251,mp-15953
KCuTe,1.15054,-0.7233970996388901,mp-7436
NaCuSe,0.138722,-0.7227659013541671,mp-7433
RbCuPdSe5,1.24334,-0.722680079277343,mp-11115
RbCuSe4,1.54504,-0.7226372223958291,mp-18365
RuS3Cl8,2.48442,-0.722147817708332,mp-29568
Sr2ZnN2,1.50295,-0.7217466805,mp-9306
KAg2PS4,1.77236,-0.7215486906532721,mp-12532
Na4Ge2Te5,1.40045,-0.720424225,mp-28107
SbCl5,2.70735,-0.7192302995833331,mp-23176
Tl2SiSe3,2.138,-0.7155503406163201,mp-14241
TaTl3Se4,2.76182,-0.714410679197918,mp-10644
Na2B2Se7,1.91013,-0.713530352954381,mp-5004
Ca2Ge,0.64277,-0.7131978508333331,mp-304
TlBS2,2.3772800000000003,-0.7129788381249981,mp-8946
Ga2PdI8,1.70281,-0.71264459227273,mp-30946
Ta2Pd3Se8,0.706568,-0.7112176590128191,mp-18010
IrBr3,1.93777,-0.708474681249999,mp-27397
GePtSe,0.411059,-0.7084225741145841,mp-20817
SrCaGe,0.781042,-0.708072101666665,mp-12418
NaAsS2,1.6313199999999999,-0.707556392656249,mp-5942
NaS2,2.4693,-0.705851476458332,mp-12180
NaAg3O2,1.0946099999999999,-0.7057765477298831,mp-27303
NaLi2Sb,1.43852,-0.7055747683333331,mp-5077
InGaSe3,1.69439,-0.7055558967708331,mp-504952
CuAgO2,0.114503,-0.7054287854166651,mp-7237
Al2ZnTe4,1.91669,-0.7049379838095231,mp-7908
Cs7Au5O2,2.1934,-0.7007308605418691,mp-510075
K2S5,2.42894,-0.700578589866071,mp-17146
Ca(ZnP)2,1.1384,-0.6998979558571421,mp-9569
TlClO4,6.1393699999999995,-0.6997980705555561,mp-30530
GaCuS2,1.47877,-0.6988556876562481,mp-5238
ZnCu2GeS4,0.992581,-0.6985897668749991,mp-6408
K2NaAlP2,2.54596,-0.69576564390873,mp-9068
RbPSe6,2.1927399999999997,-0.695075516400669,mp-17945
TlPt2S3,1.29219,-0.691701527638893,mp-9272
GaSe,1.61011,-0.6900082132812491,mp-1943