formula,bg,formation_energy,mp-id
Cr2Cu5P4O18,1.958184,,
Cr8F20,2.112799,,
Fe1Cr2K1O8,2.668225,,
Fe2Cr4O8,2.203028,,
Fe4Cr8O16,2.042906,,
Fe4Cr8O16,2.415743,,
Fe1Cr2S4,1.452728,,
Fe1Cr2Se4,0.510062,,
Hg4Cr4O18H4,3.475154,,
Na1In1Cr2O10H4,3.8558079999999992,,
K2Mg1Cr2O10H4,4.175217,,
Zn2K4Cr4O20H8,3.949803,,
Cr4Li4O18H8,3.831166,,
Cr4O14N4H16,3.978655,,
Hg2Cr4O8,2.496676,,
Hg3Cr6O21,3.102705,,
Hg24Cr8O40,2.30601,,
Hg24Cr8O36,2.638846,,
Cr8P4O16I4,2.739567,,
Cr8K8O28,3.965139,,
Cr8K8O28,3.982371,,
O8Cr2K3Na1,4.192764,,
Cr4K6Na2O16,4.181281999999999,,
Cr2N8O1Li14,3.341061,,
Sr6Cr2O1N8Li2,2.642755,,
Mg4Cr8O16,4.123637,,
Mg2Cr4O8,4.105304,,
Mg2Cr4O8,4.145391,,
Mg2Cr4O8,4.146006,,
Mn2Cr4O8,3.835415,,
Mn1Cr2S4,1.296421,,
Cr8Mo12O48,3.733653,,
Cr4O14Na4,3.911401,,
Cr8O28Na8,3.727543,,
Ni2Cr4O8,3.254948,,
Ni2Cr4S8,1.8657629999999992,,
Te8Cr4O22,3.338327,,
Cr8S12O48,4.371017,,
Cr4O6,4.172056,,
Cr4Si2O8,2.949342,,
Zn2Cr4O8,4.010749,,
Zn2Cr4O8,3.998875,,
Zn2Cr4O8,4.012216,,
Cr4Re2O12,1.2779,,
W2Cr4O12,2.773644,,
Rb8Cr8O28,4.028055,,
Rb8Cr8O28,4.005169,,
Rb4Cr4O14,3.858003,,
Sr8Cr16O56,3.621285,,
Tl4Cr4O14,2.381171,,
Cr4S6,1.092546,,
Zn2Cr4S8,1.745501,,
Zn2Cr4S8,1.750872999999999,,
Zn2Cr4S8,1.756256,,
Zn2Cr4Se8,1.007465,,
Cs12Cr18O60,3.292618,,
K1S2Cr3O14H6,3.868327,,
K2Cr6S10,1.910806,,
Li2Cr6O16,2.278084,,
Na2Cr6O16,2.790114,,
Rb16Cr24O80,3.269191,,
Tl8Cr12O48,2.619153,,
Cr24P16O64,3.280409,,
Rb2Cr6O16,2.707985,,
Tl2Cr6O16,2.630264,,
Rb2Cr6S10,1.90745,,
Cr6S8,1.436466,,
Tl2Cr6Se10,1.072689,,
Cs2Cu1Cr4O16H4,3.352568,,
Cr4Fe1Cu1S8,0.771585,,
Rb2Cu1Cr4O16H4,3.32283,,
In1Se8Cr4Cu1,0.558187,,
La2Cu6Cr8O24,1.824506,,
Y1Cu3Cr4O12,1.533022,,
Cu3Cr4P6O24,2.956832,,
K2Zn1Cr4O16H4,3.829295,,
K4Cr8O26,3.064545,,
In1Cr5Se8,0.573924,,
K1Cr5S8,1.394689,,
Rb1Cr5S8,1.397603,,
Rb2Cr10Se16,1.132953,,
Tl1Cr5S8,1.331359,,
Tl2Cr10Se16,1.028951,,
Cr6P8O28,2.064349,,
Cr14P12O48,1.472538,,
Cs2Mo6O18,1.22078,,
Tl24Cs40Sn4O12,0.343285,,
Cs2Cu2F8,3.837287,,
Cs2La4Cu2Se8,1.894127,,
Cs4Cu4O4,2.358994,,
Cs2Cu2O2,2.402479,,
Cs2Cu2O4,2.863171,,
Cs4Cu4S16,2.888506,,
Cs4Cu4S24,2.170747,,
Cs2Zr2Cu2Se6,1.120573,,
Cs4Cu4Se16,1.907919,,
Cs4Cu8F20,4.439746,,
Cs2Cu4I6,3.275442,,
Cs4Nb4Cu8Te16,1.700468,,
Cs1Cu2Sc3Te6,0.819708,,
Cs4Ta4Cu8Te16,1.921768,,
Cs2Cu6Lu4Se10,2.226293,,
Cs1Cu3O2,2.975278,,
Cs1Cu3S2,2.7977920000000003,,
Cs2Ti2Cu6Se8,2.240786,,
Cs2Cu10S6,1.275904,,
Cs4O4D4,5.168899,,
Cs3Mg3D9,3.719154,,
Cs6Mg6D18,3.962414,,
Cs1F1,7.076575,,
Cs1F1,7.864497,,
Cs4P4F8O8,7.039878,,
Cs1Hg1F3,2.406669,,
Cs2Mo2O4F6,4.635314,,
Cs1Pb1F3,4.005093,,
Cs1Sr1F3,8.198585,,
Cs2Tl2F6,3.185747,,
Cs2Mn2F8O4H8,3.613689,,
Cs4Mn4F16,3.374363,,
O20F8Cs2Ti4P6,4.115702,,
K4Cs2Pd2F10,4.503659,,
Os2Cs2F10N2O2,3.252179,,
Cs2Ni2Pd2F10,2.937924,,
Cs2Rb4Pd2F10,4.512686,,
Cs2Pd4F10,2.421816,,
Cs4Fe8F24,1.329327,,
Cs1Sb1S6F6O18,4.196756,,
Cs1Ru1F6,3.723032,,
Cs4Fe4I16,2.001236,,
Cs1Fe1Mo2O8,3.551906,,
Mo2Fe1Cs1O8,3.243519,,
Cs2Fe2O4,4.999271,,
Cs2Fe2S4O16,3.486345,,
Cs4Ga4S12,3.606102,,
Cs4Ga4Se12,2.649137,,
Cs8Ga8Te16,2.031557,,
Cs4Ga12S20,3.797142,,
Cs3Ga9,0.318127999999999,,
Ge1Cs1I3,1.340255,,
Cs2Ta2Ge2S10,1.649701,,
Ge16Cs8Na8,1.458069,,
Cs2V2P6O20H2,3.062715,,
Cs4O8H4S4,5.37586,,
Cs2S4O14H2,7.331619,,
Cs1H1,3.602544,,
Cs1H1,3.149353,,
Cs4S4O12N4H8,6.9642800000000005,,
Cs2P2O8H4,6.996327,,
Cs4P4O16H8,6.997562999999999,,
Cs4P4O16H8,6.9992290000000015,,
Cs4P8N4H12,2.541456,,
Cs3N6Li3H12,3.696728,,
Cs2Sb2O10H8,5.097507,,
Cs4N8H20,3.403021,,
Cs2Li4N6H12,1.590019,,
Hg2La2Cs2Se6,2.284762,,
Hg2Cs2Y2Se6,2.271762,,
Cs4Mo4I4O24,3.372328,,
Cs4I4O16,4.363029,,
Cs1I1,4.685534,,
Cs1I1,4.73557,,
Cs1I1,4.83487,,
I1Cs1,4.686614,,
Cs2Mn2I6,3.948685,,
V4I6Cs2O26,2.539009999999999,,
Cs4Pb4I12,3.554686,,
Cs1Pb1I3,1.94832,,
Cs4Sn4I12,3.098494,,
Cs1I3Sn1,0.76336,,
I6Sn2Cs2,0.984728,,
Cs4Sn4I12,0.985218,,
Cs2V2I6,3.62066,,
I12Cs4,2.713494,,
Cs4In4I16,3.017226,,
Cs4Tl4I16,1.7740509999999992,,
Ta2Cs2I12,1.715863999999999,,
Cs8In8S16,3.191308,,
In8Cs8Se16,2.522587,,
Cs8In8Te16,2.082983,,
Cs4In12O20,2.787691,,
In5S8Cs1,2.151942,,
Cs1K2Sb1,1.430175,,
Sn5Zn4S17Cs1K5,2.650871,,
La1Cs1Nb2O7,2.781219,,
Cs1La1S2,3.365069,,
Cs2La2Zn2Te6,2.314133,,
W4Lu2Cs2O16,4.638396999999999,,
Cs2Lu2S4,3.113149,,
Cs1Lu1S2,3.052284,,
Cs2Mn2P8O24,3.141378,,
Cs4Mn4O16,3.361577,,
Cs2Mo2O22N6,4.152655,,
Cs4Mo4P4O24,3.885842,,
Cs2Mo4P6O26,2.81187,,
Nb2Cs2N4,2.372353,,
Cs2N6,5.318157,,
S2Cs2Na2,3.488778,,
Se2Cs2Na2,3.004145,,
Na2Cs2Te2,2.745124,,
Pb4Cs4Na12O16,2.845243,,
Cs1Nb1P2O8,3.790645,,
Cs1Sr2Ta3O10,3.260711,,
Cs1Ta3Se2O12,3.919662,,
Cs2V6Se4O24,3.485362,,
Cs2V6Te4O24,3.570379,,
Cs1Ti3P5O19,4.184176,,
Cs4S4P4O8,5.352587,,
Cs2Sb2O4,3.399524,,
Cs2Y2O4,4.204511,,
Cs4O12,0.042338,,
Cs4V4P4O20,4.15628,,
Cs2Te4O12,1.426145,,
Cs1Sb1P2O8,4.74049,,
Cs2V2S4O16,3.222018,,
Cs4Sb4V8O32,4.010596,,
Cs2V6O16,3.022681,,
Pb4P4S16Cs4,3.293629,,
Pb4Cs4Se16P4,2.466024,,
Cs2P2S6,2.98374,,
Cs4Sn4P4S16,2.703338,,
Cs1P3Zn4,0.795743,,
Cs4P28,1.960299,,
Cs2Pt4Se6,1.6705100000000002,,
Cs4Sb4S8,2.571106,,
Cs2Sn2S6,2.660702,,
Cs2Sb4S8,1.878586,,
Cs4Sb4S24,1.299022,,
Sb8Cs8Se16,1.882998,,
Cs8Sb8,1.045362,,
Sb16Cs16,1.074472,,
Cs2Sb4Se8,1.5627749999999991,,
Cs2Sn2Se6,1.897916,,
Cs4Te4Se12,1.074981999999999,,
Cs2Se6Y2Zn2,3.102255,,
Cs4Si4Te12,1.7693329999999992,,
Cs2Y2Zn2Te6,2.173147,,
Cs4Te16,0.8338909999999999,,
Tl12Cs12,0.415634,,
Cs2K1Cu1F6,3.844207,,
Cs4Cu2Nb2Se8,2.581064,,
Cs4Cu2P4O14,3.813666,,
Sb4Cu4S10Cs4,2.13655,,
Cs4Sb4Cu4Se10,1.677768,,
Cs4Ti2Cu4Se8,2.317761,,
Cs2Cu3Ti1F12,4.5155720000000015,,
Cs4Cu6Ti2F24,4.177718,,
Cu6Zr2Cs4F24,4.157611,,
Cs2Mg1D4,3.924863,,
Cs4D8Pd2,4.177549,,
Hg1Cs2F4,3.79697,,
Cs2Tl1Fe1F6,3.605393,,
Cs2K1Mn1F6,3.139372,,
Cs2Nb1F6,2.275046,,
Pt1Cs2S6F6O18,3.610095,,
Cs2Pd1F6,4.367258,,
Cs2Pt1F6,4.702214,,
Pt1Cs2F6,4.77586,,
Tc1Cs2F6,4.445237,,
Fe4Cs8O16,3.312204999999999,,
Cs4K8Fe4O10,2.635836,,
Cs16Ga8Sb16,1.6059929999999991,,
Cs4Ge2S8,3.321253,,
Se6Ge2Cs4,2.538338,,
Cs4Ge2Se8,2.491387,,
Ge4Te16Cs8,0.940345,,
Cs8Ge8S20,3.47122,,
Cs8Ge8Se20,2.497337,,
Cs4Sn2Ge6O18,4.194183,,
Cs4Ti2Ge6O18,4.441362,,
Cs2Sn1N6H12,3.910212,,
Cs2Te3O16H12,2.702638,,
Hg3I8Cs2O1H2,2.507829,,
Te1Cs2S1O10H6,4.041413,,
Cs2Sn1O12H6,4.356935,,
Cs2Hf1I6,3.089765,,
Hf2Mo6Cs4O24,4.898011,,
Cs4Hg2I8,2.915166,,
Hg2I8Cs4,2.880564,,
Hg1Cs2O2,3.469507,,
Hg3I8Cs2,2.634427,,
Hg6Cs4S8,2.716515,,
Cs2Hg3Sn2S8,2.524218,,
Cs4Hg6Se8,2.039717,,
Hg12Cs4S14,1.413657,,
Cs4I8O22,4.035335,,
I6Cs2Zr1O18,4.583183,,
Pd1Cs2I6,1.412125,,
Cs2Pd1I6,0.7187819999999999,,
Cs2Pt1I6,1.393021,,
Sn1Cs2I6,0.936289,,
Cs2Te1I6,2.131113,,
Cs4I16,2.560606,,
In4Cs8Na12O16,3.444185,,
Cs4In6,0.154795,,
Ir2Cs4Na4O8,2.14307,,
Cs8Te4K8O20,3.584548,,
Mn2Cs4Li2O8,3.298854,,
Cs4Li2Nb2S8,3.393252,,
Cs4Li2V2S8,2.644415,,
Mn4Cs8O16,1.980298,,
Cs4Se12Mn2P4,2.54842,,
Cs4Mn2S4,3.616848,,
Cs4Te4Mn2S12,2.612198,,
Cs4Mn6Se8,2.484739,,
Cs4Mn6Te8,2.035392,,
Cs8Mo4S12O4,2.677042,,
Cs8Mo4S8O8,3.08872,,
Cs8Mo4S8O8,2.99737,,
Cs8Mo4S16,2.474312,,
Cs8Mo4Se16,1.769983,,
Cs4Mo4O22,3.587782,,
Cs4Mo6Se2O24,3.416766,,
Cs4Pd2N24,3.084892,,
Cs4Ni2N8O24,4.835663,,
Tl4Cs8Na12O16,2.636248,,
Cs4Ni2O4,4.023869,,
Cs4Ni2P4S12,2.753795,,
Cs4Ni2P4,1.613353999999999,,
Cs2Ni3S4,2.359349,,
Cs4Ni6S8,2.352896,,
Cs2Ni3Se4,1.923131,,
Cs4Sb8O22,3.40499,,
Cs4W6Se2O24,3.846386,,
Cs2Sr1V4O12,3.884904,,
Cs4Sr2V8O24,3.834667,,
W6Te2Cs4O24,3.791900999999999,,
Cs4Ti2P8O26,4.03468,,
Cs8V4S20O4,2.595287,,
Pb4Cs8O8,2.69176,,
Cs16Zn8O16,3.001064,,
Cs2O2,3.179453,,
Pb2Cs4O6,2.694189,,
Pb2Cs4O6,2.701461,,
Cs8Sn8O12,3.408305,,
Ru4Cs8O16,2.490396,,
Te4Cs8O16,4.615558,,
Cs8S16O32,3.800688,,
Cs4V6O16,3.083831,,
Cs4Se10P2,2.240781,,
Cs4Si2P4,2.039149,,
Cs4Pd2Sb4,1.359486,,
Pd3Cs2S4,2.411844,,
Cs2Pd3Se4,1.859319,,
Cs2Pd3Se4,1.839542999999999,,
Cs4Pt2Sb4,1.299241,,
Pt1Cs2Te2,1.7293759999999991,,
Pt2Cs4,1.846731,,
Cs2Pt3S4,2.641189,,
Cs2Pt3Se4,2.229297999999999,,
Sn6Sb4Cs4S20,2.463774,,
Cs8S4,3.090353,,
Cs8S4,3.091968,,
Cs4Te2S4,2.006284,,
Cs2S2,2.770729,,
Cs4Si2S6,4.023005,,
Cs4Ti2S6,1.987488,,
Cs4S6,2.41078,,
W4Cs8S16,2.949761,,
Cs4Zn6S8,4.035376,,
Cs8S20,2.758816,,
Cs4S12,2.56249,,
Cs4S12,2.569635,,
Cs6Ti6S27,2.018083,,
Cs4Se2,2.637608,,
Cs8Se4,2.706742,,
Cs4Sn2Se6,2.655796,,
Cs4Zr2Se6,2.119683,,
Cs4Se6,1.587471,,
Cs4Se8Si2,2.86661,,
Cs8W4Se16,2.22238,,
Cs8Se20Si8,3.398498,,
Cs8Se20,1.577658,,
Cs8Sn4Te16,1.088296,,
Cs8Te4,2.500349,,
Cs4Te4,1.780373,,
Cs4Te6,1.041492,,
Cs4Te10,0.8788300000000001,,
Cs6Cu2Hf4Te20,1.776418,,
Cs12Cu8I20,3.656035,,
Cs12Cu20O16,3.190352,,
Cs6Mg2D10,3.422066,,
Cs6Mn2D10,3.255317,,
Cs6D10Pd2,2.976261,,
Cs6Pt2D10,2.94171,,
Cs6Zn2D10,3.655046,,
Tl1Cs3F6,4.99362,,
Cs6Mn2F14,3.183555,,
Cs6Ti2F14,4.524902,,
Cs6Fe4F18,5.188649,,
Cs12Fe4Se12,1.883823,,
Cs12Se12Ga4,3.060461,,
Cs12Se12Ge4,2.189482,,
Ge4Te12Cs12,1.764808,,
Cs12Mg4H20,3.450784,,
Re6S8I8Cs6,3.341712,,
Cs6Mn2I10,4.286149,,
Cs6Sb4I18,2.434201,,
Cs3Sb2I9,1.974416,,
Cs6Y4I18,3.699243,,
Cs6Zr4I18,1.27619,,
Cs12In4O12,3.443748,,
Pb8Cs6Na2,0.6086659999999999,,
Na8Cs12Sn4P12,1.796626,,
Nb4Se16Cs12,2.951524,,
Ni2Cs6O4,2.406806,,
Sb4Cs12O16,4.367026,,
Se16P4Cs12,2.834632,,
Cs6Sn2Se14P2,2.294235,,
Cs12P28,3.076263,,
Cs12Sb4S12,3.45973,,
Cs12Sb4S16,3.259788,,
Cs12Ta4S16,3.90422,,
Cs12V4S16,2.840231,,
Se12Cs12Sb4,3.008256,,
Cs12Sb4Se16,2.370571,,
Cs3Sb1,1.221163,,
Cs12Ta4Se16,3.309902,,
Sn4Te12Cs12,1.743056,,
Cs8K4Cu2Si4O16,3.460103,,
Cs4Cu1Si2O7,3.412567,,
Cs4Cu3F10,3.644542,,
Cs8Pd2Mn4F24,3.233602,,
Fe2O6Cs8,2.022913,,
Cs16Fe4O16,2.051781,,
Cs8Ga4Se10,3.067514,,
In4S10Cs8,3.112528,,
Ir1Cs4O4,2.155507,,
Cs16Zn4O12,3.070178,,
Cs16Pb4O16,3.015829,,
Cs16Zr4O16,4.106921,,
Cs4Sb2O5,3.901629,,
O6Cs8,0.859571,,
Cs8Pd2Se16P4,2.320807,,
Cs8Se18P4,2.309761,,
Cs4P6,1.440115,,
Sb8Cs16,0.681233,,
Cs16Se64,1.634797,,
Cs4Sn3Se9Sr1,2.165451,,
Cs8Sn4Te14,1.836057,,
Cs10Ga6Se14,3.09212,,
Cs20Ge4P12,1.570916999999999,,
W8Cs10Na2N20,2.573593,,
Cs20Si4P12,1.464534,,
Te12Cs20,1.095039,,
Cs12Ga2Sb8K6,1.221324,,
Cs12Ga2Sb6,0.982781999999999,,
Cu2Si2F12O8D16,4.9846129999999995,,
Na1Cu1Zr2F11,4.860609,,
Cu2N6H12F2,2.023077,,
Na2Cu2S2O8F2,4.082307999999999,,
Nb4Cu4O12F4,3.814046,,
Sr2F2Cu2S2,2.830984,,
Sr2Cu2Se2F2,2.416809,,
Sr2F2Te2Cu2,2.585691,,
Xe4Sb2Cu1F20,4.188044,,
Cu1F2O2H4,4.128457,,
W4Cu4F8O12,4.12984,,
Cu4F8,4.601506,,
Cu4K4F12,4.7183,,
K4Cu4F12,4.198779,,
K1Cu1F3,2.089942,,
Na8Cu8F24,4.384326,,
Rb2Cu2F6,2.78534,,
Rb4Cu4F12,4.823457,,
Cu2F8N4O4H16,4.799292,,
K4Cu2F8,3.771124,,
Cu4K8F16,4.637786999999999,,
Cu4K8F16,4.6249769999999994,,
K4Cu2F8,4.59554,,
Cu4K8F16,3.612473,,
Cu2F8Na4,4.835847,,
Sr2Cu2F8,5.030977,,
K4Cu4Ga4F24,4.757011,,
Cu2Si2F12O8H16,4.986295,,
Zr2F12Cu2O8H16,4.866666,,
K2Na1Cu1F6,3.717858,,
Cu2Pt2F12,3.465392999999999,,
Cu1Sn1F6,4.131792,,
Sr4Cu2F12,5.294321,,
Cu1Zr1F6,4.220098,,
K4Cu4Zr4F28,4.905152,,
Cu2Fe4F16O4H8,4.505909,,
Cu2Fe2O4,1.766352,,
Cu4Fe4O8,1.935343,,
Fe2Cu2Sr4S2O6,1.468884,,
Cu4Fe4P4O20,3.462504,,
Cu2Pb4Sr4Fe2O12,1.315067999999999,,
Cu2Fe2S4,1.234744,,
Cu2S4Fe2,1.59657,,
Cu1Ga1I4,2.930444,,
Cu1Ga1O2,2.158588,,
Cu4Ga4O8,0.555895,,
Cu2Ga2O4,2.169586,,
Ga2Cu2Sr4S2O6,1.844906,,
Cu2Ga2S4,1.895106,,
Cu2Ga2Se4,1.076808,,
Cu2Ga2Te4,0.9639,,
La6Cu2Ge2S14,2.862289,,
La6Cu2Ge2Se14,2.085094,,
Ge4Cu4O12,4.05406,,
Cu4Ge4O12,3.61045,,
Cu4Ge4O12,4.047294,,
Y6Cu2Ge2S14,2.745174,,
Y6Cu2Ge2Se14,1.926861,,
Sr4Cu2Ge4O14,3.301274,,
Cu1I4N4H12,2.545191,,
Cu1O8N10H12,3.406308,,
Sn2Cu2O12N4H24,4.035268,,
Re2Cu1O8N4H12,3.800263,,
Cu1V2O10N6H18,3.730052,,
Cu4I4O16H4,3.881581,,
Cu4Pb4V4O20H4,3.460757,,
Tl2Cu2S2O10H2,3.642427,,
Tl4Cu4Se4O20H4,3.631822,,
Cu2H2,1.543349,,
Cu4K4P4O20H8,3.694056,,
Sr2Cu1Se4O12H2,3.797631,,
Cu2S2O10H4,3.624759,,
Cu2Se2O10H4,3.726362,,
Pb4Cu4S4O24H8,3.870298,,
Se4Cu2O12H4,3.638816,,
Cu2I4O16H8,3.558534,,
Cu2Na4S4O20H8,3.936919,,
Cu2P4H8O8,4.04845,,
Cu2P4H8O8,3.295021,,
Cu4P4O20N4H24,2.99635,,
V4Cu2O12N4H12,3.465542,,
Cu2N8O8H12,3.153209,,
Pb4Cu1S2O14H6,4.131455,,
Sr2Cu2O10H12,3.983241,,
Sr4Cu2O12H12,4.028371,,
Cu2Se4O16H12,3.553826,,
Re2Cu1O12H8,1.429185,,
Cu1P4O16H8Rb2,4.256429,,
K2Cu2Hf2S6,1.633703,,
Na4Cu4Hf4Se12,1.061766,,
Tl2Hf2Cu2S6,1.725443,,
Tl2Hf2Cu2Se6,1.237331,,
Na2Cu2Hf4Se10,1.272268,,
Cu4Hg4S4I4,1.449808,,
I4Cu4S12P16,2.727227,,
I4Se12Cu4P16,2.11175,,
I4Se16Cu4P16,2.587121,,
Cu6Se18I6,2.053343,,
Cu4Te8I4,1.652005,,
Cu2I2,0.970883,,
Cu2I2,2.931577,,
Cu2I2,2.3632519999999992,,
I2Cu2,2.604235,,
Cu6I6,2.949733,,
Cu1I1,2.562085,,
I2Cu2,2.948468,,
I4Cu2O12,3.28923,,
Cu2I4O12,3.300427,,
I6Cu2Na2O18,3.388601,,
Tl8I12Cu4,2.59211,,
La8Cu4In4Se20,1.297584,,
In2Mo4Cu2O16,1.042087,,
Cu1In1O2,1.40518,,
Cu2In2O4,1.462371,,
Cu4In4P4O20,3.83377,,
W8In4Cu4O32,1.341918,,
Cu2In2P4Se12,1.241102,,
Cu2In2S4,1.222086,,
Cu2In2Se4,0.590245,,
In2Se4Cu2,0.6002899999999991,,
Cu2In2Se4,0.735381,,
Cu2In2Te4,0.714298,,
Cu2K2Na2Si8O20,4.301683,,
Cu1K1Na2O2,3.201588,,
K1Cu1O1,0.828947,,
K4Cu4O4,2.906657,,
K4Cu4O4,2.900932,,
Cu4K4O4,2.896123,,
K2Cu2O4,2.807851,,
Se20Cu4K4P8,2.348114,,
Pd2Cu2Se10K2,1.8401,,
K4Cu4S4,3.113511,,
K2Cu2Zr2S6,1.569072,,
K2Y4Cu2S8,2.069657,,
K2Cu2Se2,1.265888,,
K2Cu2Zr2Se6,1.093544,,
K2Cu2Te2,1.499907,,
Cu1Sr1K2O12N6,2.564354,,
Nb2S8Cu2K4,2.974257,,
Nb2Cu2Se8K4,2.501961,,
Cu2K4P8O24,4.407613,,
K4Cu2P4O14,3.224156,,
K4Cu2P2,1.911743999999999,,
K8Cu4Sb4S12,1.930642,,
Cu2K4S8V2,2.260656,,
Cu2K4Sb2,1.804295,,
Ta2Se8Cu2K4,2.861708,,
K4Cu2V2Se8,1.898212,,
Cu8K24O16,3.197369,,
K5Cu1Sb2,1.301418,,
K6Cu1Si2O8,3.386042,,
La2Cu2S2O2,3.000441,,
La2Cu2Se2O2,2.834286,,
La2O2Cu2Te2,2.246626,,
Cu1La1O2,4.024591,,
La2W4Cu2O16,2.616941,,
La4Cu4S4Te4,1.106482,,
Cu4La4S8,2.323085,,
Cu4La4Se8,1.778101999999999,,
Cu4La8S16,2.590700000000001,,
La4Sb2Cu2S10,2.316763,,
La12Cu4S12O8,1.871609,,
La6Cu2Si2S14,2.772093,,
La6Cu2Sn2S14,2.748266,,
La6Cu2Si2Se14,2.419638,,
La6Cu2Sn2Se14,2.082286,,
La4Cu1Li1O8,2.444417,,
Li1Cu1O1,0.3815739999999999,,
Cu4Li4O4,2.740767,,
Cu4Li4O4,2.742022,,
Cu1Li1O2,2.154928,,
V2Cu2Li2O8,2.992615,,
Li4Cu2O4,3.098281,,
Cu2Li4O4,3.087720999999999,,
Cu2O14P4Li4,3.922121,,
W2Cu1O8Li2,3.204724,,
Cu2P2Li4,0.166236,,
Cu1Li2Sb1,0.984541,,
Cu4Li12O12,2.783801,,
Cu2W4Lu2O16,2.038487,,
Lu4Cu4Pb4Se12,2.090439,,
Cu4Lu4S8,2.780567,,
Cu4Lu4S8,2.761316,,
Lu1Cu1S2,2.53821,,
Lu2Sr2Cu2S6,2.335457,,
Sr2Cu2Lu2Se6,2.037139,,
Lu2Te2Cu1S2O14,3.99653,,
Cu2Mg2V2O8,2.368719,,
Mg4Cu4P4,0.5450849999999999,,
Cu2V4Mg4O16,3.320427,,
Mn4Cu4O8,1.475435,,
Cu2Mn2V2O8,2.22268,,
Cu4Mo4O16,3.1698519999999992,,
Mo6Cu6O24,3.526399,,
Mo2Cu2O8,2.947517,,
Sr2Cu1Mo1O6,2.032419,,
Sb4Mo8Cu4O32,1.27879,,
Mo16Y8Cu8O64,2.841732,,
Cu12Sr12N12,1.265639999999999,,
Cu2P2N4,3.277339999999999,,
Cu1Ta1N2,1.35528,,
Cu4N12,2.678238,,
Cu8N24,3.436854,,
Cu2N6,2.152837,,
Cu2Na4N8O24,3.745414,,
Cu1Pb1Rb2O12N6,1.821872,,
Na4Cu4O4,2.791855,,
Na1Cu1O1,0.071924,,
Cu4Na4O4,2.794336,,
Cu4Na4O4,2.796198,,
Na1Cu1O2,2.374716,,
Na1Cu1O2,2.398748,,
Na4Cu4P4O16,3.681272,,
Cu4Na4P4O16,3.379499,,
Na4Cu4Ti4S12,0.775273,,
Na2Cu2Zr2S6,1.460911,,
Na2Cu2Se2,1.189787,,
Na4Cu4Zr4Se12,0.995947,,
Na2Cu2Te2,1.541722,,
Na4Cu4Zr4Te12,0.447737,,
Cu4Si16O40Na8,4.404767,,
Cu2Na4P8O24,4.414219,,
Cu2P4Na4O14,4.134075,,
Na4Cu2P2,1.314057,,
Sb4Cu4S12Na8,2.032898,,
Na12Cu4Sn4Se16,1.655895,,
Cu1O2S1Na5,3.316046,,
Cu8Nb8O24,2.070205,,
Rb4Cu2Nb2S8,2.986016,,
Rb4Cu2Nb2Se8,2.53394,,
Cu4Nb8O24,3.593918,,
Nb12Cu4O32,1.709176,,
Sb4Cu4Ni4S12,1.550882,,
Cu2Ni4P4O16,3.418749,,
Ti4Cu2P4O20,3.638259,,
Rb4V4P4Cu2O24,3.454287,,
Y2Te2Cu1S2O14,3.881751,,
Sb6Cu1O16S2,2.692138,,
Rb4Cu4O4,2.758326,,
Rb1Cu1O1,0.906147,,
Cu4Rb4O4,2.759122,,
Cu4Rb4O4,2.760139,,
Cu4O4,1.940761,,
Cu2O2,1.944538,,
Rb2Cu2O4,2.855878,,
Rb12Cu4O8,3.013668,,
Rh1Cu1O2,2.222393,,
Cu2Sc2O4,3.932158,,
Cu1Sc1O2,3.657285,,
Cu2Y2O4,4.198785,,
Cu1Y1O2,4.134192,,
Cu4Se4O12,2.894107,,
Cu4Si4O12,4.414331,,
Cu2Ta2O6,1.934145,,
Cu4Te4O12,1.933841,,
Cu4Te4O12,2.808452,,
Cu2V2O6,1.383409,,
Rb4Cu4P4O16,3.098107,,
Tl4Cu4P4O16,3.299902,,
Re8Cu8O32,2.514657,,
Cu4S4O16,3.345453999999999,,
Cu4Sb8O16,3.408313,,
Cu2Se2O8,3.037058,,
Cu4W4O16,3.1197,,
Se4Cu2O10,2.861385,,
Cu4Zr4Ti4O20,3.444223,,
Pt2Cu2Sr6O12,2.878051,,
Tl2Cu1S2O6,2.32947,,
Cu4Sb8O24,1.80626,,
Sr4Cu4Se8O24,3.567555,,
Sr2Cu1Te1O6,2.819274,,
Sr2Cu1W1O6,2.558239,,
Ta8Cu4O24,2.482583,,
Tl16Te4Cu4O24,2.445974,,
Cu1V2O6,3.007805,,
Cu2V4O12,3.200875,,
Rb4Cu1Si2O7,3.487016,,
Sr4Cu2Si4O14,3.522896,,
Cu1Sr2P2O8,3.462063,,
W2Y1Cu1O8,2.172497,,
W4Y2Cu2O16,2.034484,,
Zn6O18Cu2P4,2.871413,,
Sr4Cu2Se6O18,3.370498,,
Tl4Cu4S12P4,2.995087999999999,,
S12Cu4P4,2.272213,,
Tl4Cu4P4Se12,2.213043,,
Cu2Sr2P2,0.602803,,
Cu4P8,1.593691,,
Pb4Sb4Cu4S12,1.609271,,
Y4Cu4Pb4S12,2.578279,,
Pd2Cu2Se10Rb2,1.823453,,
Pt8Cu4S16,0.891834,,
Rb4Cu4Se16,1.83859,,
Ta2Rb4S8Cu2,3.357602,,
Rb4Cu2V2S8,2.248141,,
Ta2Rb4Se8Cu2,2.8624549999999997,,
Cu4Sb4S8,1.627616,,
Sc1Cu1S2,1.966757,,
Cu2Tl2S4,0.038697999999999,,
Y4Cu4S8,2.767376,,
Cu4Y4S8,2.7622,,
Ta4Cu4S12,1.166006,,
Tl2Zr2Cu2S6,1.614419,,
Y6Cu2Si2S14,2.876417,,
Y6Cu2Sn2S14,2.421733,,
Cu4Sb4Se8,1.232714,,
Cu2Sr2Sb2,0.551276,,
Tl2Zr2Cu2Se6,1.119125,,
Y6Cu2Si2Se14,2.491347,,
Tl2Cu2Ti2Te6,0.4175029999999999,,
Cu16P8O32F8,3.810718,,
K6Cu4F14,3.29464,,
Cu2Fe1Ge1S4,1.625709,,
Fe1Ge1Cu2Se4,0.560453,,
Fe2Cu4Si2S8,2.225516,,
Cu2Fe1Sn1S4,1.224448,,
Cu2Fe1Sn1S4,0.895412,,
Fe1Si1Cu2Se4,1.727187,,
Cu2Fe1Sn1Se4,0.3528409999999999,,
Fe5Cu2P6O24,1.394737,,
Cu4Hg2Ge2S8,1.064876,,
Hg1Ge1Cu2S4,0.937127,,
Cu2Hg1Ge1Se4,0.279499,,
Mg2Cu4Ge2S8,1.953033,,
Cu4Mn2Ge2S8,1.731577,,
Cu4Mn2Ge2Se8,0.911338,,
Ge2Cu4O8,2.960639,,
Cu2Ge1S3,0.436903,,
Cu4Ge2S6,1.058395,,
Sr3Cu6Ge3S12,2.285691,,
Cu2Zn1Ge1S4,1.479334,,
Zn2Cu4Ge2S8,1.629635,,
Cu4Ge2Se6,0.357143999999999,,
Sr2Cu4Ge2Se8,1.6576300000000002,,
Ge1Zn1Cu2Se4,0.651609,,
Cu2Zn1Ge1Te4,0.298608,,
Cu2Zn1Ge1Te4,0.4240609999999999,,
Zn3Cu2S2O18H14,0.115214,,
K3Cu2P4O14H1,3.84158,,
Cu4N2O12H6,0.085909,,
Na2Cu2Si4O13H4,4.20298,,
Hf2Te6Cu4,0.736194,,
Tl2Hf3Cu2Se8,1.316088,,
Cu2Hg1I4,1.773704,,
Hg1Cu2I4,1.389727999999999,,
Si2Hg2Cu4S8,1.555019,,
Hg1Sn1Cu2S4,0.601263,,
Hg2Cu4Si2Se8,0.927045999999999,,
Hg1Sn1Cu2Se4,0.165034,,
Hg1Si1Cu2Te4,0.6153900000000001,,
Hg1Sn1Cu2Te4,0.2290829999999999,,
Rb4Cu8I12,3.388860999999999,,
Rb2Cu4I6,3.395874,,
Cu4In4Si2S12,1.615921,,
Cu4V6Mg4K2O24,2.991,,
Nb2Cu4S8K2,2.742609,,
Nb2Cu4Se8K2,2.262909,,
Sb4Cu8S12K4,1.896457,,
V2S8K2Cu4,2.027602,,
Cu4K2Se8Ta2,2.554927,,
V2Cu4Se8K2,1.687282,,
Cu4K6O8,1.568487,,
La2Cu4O8,1.73829,,
Cu16O16Li8,2.034411,,
Te2Cu4Li4O12,3.329184,,
Mg4Cu8O12,3.191553,,
Cu4Si2Mg2S8,2.986546999999999,,
Si2Cu4Mg2Se8,1.962412,,
Cu4Mn2Si2S8,2.546102,,
Cu2Mn1Sn1S4,1.049735,,
Si2Mn2Cu4Se8,1.72099,,
Cu2Mn1Sn1Se4,0.549045,,
Mn3Cu2O8,2.623861,,
Nb2Cu4S8Na2,2.693493,,
Cu8Na4O8,2.705537,,
Cu4Na4Si8O22,4.253607,,
Na2Cu2Zr1S4,0.880813,,
Cu4Sb2O12Na6,3.405559,,
Sr9Zn4Cu2O14,3.789873,,
Cu4O2,1.96662,,
Cu4O2,1.954995,,
Pb4Cu8O8,1.536476,,
Zn1Cu2Sr2S2O2,2.164224,,
Sr2Cu4O4,3.160535,,
Tl2Cu4O4,1.880478,,
Cu16P8O32,1.207108,,
Cu4S2O8,3.011069,,
Cu8O16Se4,3.245712,,
W4Cu8O16,2.255503,,
W4Cu8O16,2.250105,,
Sc2Cu2Sr3S2O5,3.073342,,
Y8Cu8O20,0.5346839999999999,,
Y8Cu8O20,3.440181,,
Cu2P2O7,3.73658,,
Cu4V4O14,3.178532,,
Cu4Te6O16,3.181907,,
Cu8P28,1.448609,,
Cu6Pb3Si3S12,2.25883,,
V2Cu4S8Rb2,2.054573,,
Ta2Se8Rb2Cu4,2.635927,,
Rb4Ta4Cu8Te16,1.880587,,
Sn2Rb4Cu4S8,2.055681,,
Rb4Ti2Cu4S8,2.631099,,
S4Cu8,1.504086,,
Cu2S1,0.6610159999999999,,
Cu4Si2S6,0.720407999999999,,
Cu4Si2S6,2.452137999999999,,
Cu4Si2S6,2.380937999999999,,
Sn2Cu4S6,0.5171990000000001,,
Cu4Zn2Si2S8,3.033853,,
Cu4Zn2Si2S8,2.650139,,
Sn3Sr3Cu6S12,1.58213,,
Sr3Cu6Sn3S12,1.572811,,
Tl4Cu4Sn2S8,1.111313,,
Cu2Zn1Sn1S4,1.08122,,
Cu4Zn2Sn2S8,1.154497,,
Cu2Sn1Zn1S4,1.244691,,
Tl2Cu4Ta2S8,2.749861,,
W1Cu2S4,2.274319,,
W1Cu2S4,2.443688,,
Cu4Si2Se6,1.292783,,
Cu8Se12Sn4,0.2359349999999999,,
Cu4Sn2Se6,0.145875999999999,,
Cu4Zn2Si2Se8,1.583669,,
Cu2Zn1Sn1Se4,0.520761,,
Cu2Sn1Zn1Se4,0.6488769999999999,,
Zn1Si1Cu2Te4,0.958785,,
Zn1Sn1Cu2Te4,0.379814,,
Cu4Ti2Te6,0.532391,,
Cu4Zr2Te6,0.567637,,
Cu6O4F8H4,4.388446,,
Na2Cu6F14,4.586878,,
La2Cu6Fe8O24,1.943087,,
Y2Cu6Fe8O24,1.968973,,
D10K6Pd2,4.058837,,
Cu6Fe8V12O48,2.84699,,
Ge2Cu6P4O20,3.815465,,
Ge8Cu6Na4O24,3.549538,,
K4Cu6Ge10O28,3.374917,,
Cu12Mo8O40H8,3.468281,,
Mo4Cu6O20H4,3.591924,,
Cu3V2O11H6,3.056614,,
K2Cu6S4,1.532588,,
K2Cu6Te4,1.267973,,
K4Cu6Se8O24,3.436554,,
Nb4Cu6K6S16,2.879227,,
Nb4Cu6K6Se16,2.449395,,
K3Cu3P2,2.08304,,