formula,bg,formation_energy,mp-id
Zn1In2Te4,1.510415,,
In12Na4S20,2.093529,,
Na14In6Se16,1.924405,,
Sb10In6O24,3.396219,,
In9S15Rb3,1.998303,,
Ru4In12,0.564726,,
In12Ru4,0.560098,,
Tl2In6S10,2.47174,,
Rb2In4O7,2.760276,,
In16Se12,0.525258,,
In16Te12,0.40363,,
In5S8K1,2.155182,,
In5S8Rb1,2.148959,,
Tl2In10S12,1.6854,,
In10Tl2S14,1.251326,,
Te1In6O12,2.32794,,
W1In6O12,3.492292,,
In12S14,0.724926,,
In12Se14,0.349555,,
In12Se14,0.328297,,
In14Te20,1.532801,,
Ir4K8Na8O16,2.256655,,
Ir2K6Li2O8,2.339819,,
Ir1K4O4,2.289401,,
La6Ir2O14,0.306738,,
Ir4N8,1.140953,,
Ir1Na3N6O12,4.35843,,
Ir2Na4O6,0.332489,,
Ir2Na8O8,2.371046,,
Sr4Ni2Ir2O12,1.562364,,
Ir4O8,0.436824,,
Ir2P6O18,4.187638,,
Ir4P4Se4,2.286362999999999,,
Ir8P8Te8,1.474899999999999,,
Ir4P8,1.169288,,
Ir4P12,0.729306,,
Ir4Sb4S4,2.205511,,
Ir4Sb4S4,1.746889,,
Ir8S16,1.091368,,
Ir4Sb4Se4,1.862001,,
Ir4Sb4Te4,1.256422,,
Ir4Sb8,0.8574229999999999,,
Ir4Sb12,0.612042,,
Ir8Se16,0.571564,,
Pb4Ir4O14,0.419873,,
Sr3Ir6P6,0.710402,,
Ir8S12,1.727784,,
Ir8Sn12Se12,0.977999,,
Ir8Se20Sn4,1.282172,,
Ir8Sn12Te12,0.9681,,
I4,1.785502,,
K11Mn4Li1O16,3.193698,,
La4Pd4K4O12,2.131373,,
K2La2Ti2O8,3.691809999999999,,
La4P8K4S24,3.953847,,
La4Se24P8K4,2.943114,,
S2La1K1,3.556247,,
K2La2Si2S8,3.478163,,
La2K2Si2S8,3.568604,,
La2K2Si2Se8,2.968557,,
K1La1Te2,2.314303,,
K4Li4Mn4O8,3.061015,,
K4O4Li4,3.666778,,
K2Li2Zn2O4,3.872103,,
K2Li2Se2,3.428923,,
K2Te2Li2,3.184106,,
Pb2K2Li6O8,2.753203,,
Lu1K1S2,3.354197,,
Mg2P2K2,2.440663,,
K2Mg2Sb2,1.874128,,
K4Na4Mn4O8,2.664956,,
K4Mn4O16,3.06658,,
K2Mn2Se4O16,2.726744,,
K2Mn2P2,2.063362,,
Mo4K4P4O24,3.993054,,
K4Mo4P8O28,3.77664,,
Mo4K2P6O26,3.227313,,
K2Sb2Mo4O16,3.020355,,
Mo6P4K2O28,1.681266,,
K2Mo6O18,1.200877,,
K1N1O2,3.993066,,
K1N1O2,4.430061,,
K4N4O8,4.438394,,
K4N4O12,4.910965,,
K1N1O3,4.987877,,
K8N8O24,4.92782,,
K4O12N4,4.956476,,
K4O16N12,4.411336,,
K2N6,5.531075,,
Na2K2O2,3.479197,,
K4Na4Zn4O8,3.351159,,
K2Na2V4O12,4.458353,,
V4K2Na2O12,4.455325,,
K4Na4S4,3.540228,,
K4Na4Se4,2.955867,,
K4Te4Na4,2.688324,,
Ni4K4Na8O8,2.997438,,
Na2K1Sb1,1.277168,,
K4Na16Sb12Sn4,0.872788,,
Nb1K1O3,3.281945,,
K1Nb1O3,2.631402,,
K1Nb1O3,2.72759,,
K1Nb1O3,3.494178,,
K2Nb2S4,1.294629,,
K2Nb2Se4,1.144427,,
Nb6K2O16,3.875435,,
Ni4S16P4K4,2.932902,,
K2V12O22,0.8681000000000001,,
K2V12O22,0.918202,,
Sb4K2S4P2O24,5.476047,,
Ti4K2P6O24,3.910543,,
Sb3Zn4K1O12,3.351088,,
K2V6Se4O24,3.517996,,
K2Tl2O2,1.895897,,
K2Sb2O4,2.845717,,
K1Tl1O2,1.841017,,
K4O8,0.954582,,
Pd4K2O6,1.727982,,
K2Sb2O6,4.186529,,
K4Sb4O12,2.467165,,
K1Ta1O3,3.32806,,
K4O12,0.511828,,
Ru2K2O8,1.22684,,
Sb8Si8K8O40,4.585945,,
Te4V4K4O20,4.254534,,
K4V4S4O24,2.743625,,
Te8K4O24,2.093824,,
Sb2Zn8K2O14,2.725595,,
Sb1K1P2O8,4.644082,,
K1V1S2O8,3.102703,,
K2V6O16,3.040603,,
K4Pb4P4S16,3.31471,,
Pd4S16P4K4,2.679237,,
K2P2S6,2.728154,,
Sn4K4P4S16,2.56853,,
K2Ti2P2S10,2.117337,,
Se18K6P6,2.220727,,
Se10Ti2K2P2,1.686717,,
Zr4Se24K4P4,0.064219,,
P4K4Se24,2.596353,,
K2Zn2P2,1.699441,,
K8P8,1.696084,,
Sb2K2P4S12,3.11326,,
K1V1P2S7,2.115012,,
Sb2Se12K2P4,2.460954,,
K4Y4P8Se24,2.737967,,
Te4K4P8,1.812073,,
K1Zn4P3,1.103076,,
K2Pt4S6,2.056869,,
K2Pt4Se6,1.568099,,
Rb4K4S4,3.111366,,
Sb2K2S4,2.205494,,
Y1K1S2,3.344225,,
Y2K2Si2S8,3.773383,,
K1V5S8,1.081492,,
Sb4Se8K4,2.080847,,
K4Sb4Se8,2.084908,,
K2Sn2Sb2,0.5841069999999999,,
K2Zn2Sb2,1.323095,,
K1Zn1Sb1,1.194702,,
K8Sb8,1.147005,,
Sb4Se8K2,1.648876,,
Sb8K4,0.507139,,
K2Sn4Se8,1.876288,,
K16Si16,1.678455,,
K16Sn16,1.091688,,
K1Y1Te2,2.090857,,
K2La2Ti3O10,3.231192,,
Pb3K2Li14O14,3.123873,,
K4Mg2P4Se12,2.805741,,
Mn4K8Na4O16,3.174812,,
Mn2V8K4O24,2.566802,,
K4Mn2V4O14,3.223525,,
K4Mn2P4S12,3.244769,,
Se12Mn2P4K4,2.467498,,
K4Mn2S4,3.433518,,
K4Mn2Se4,3.149064,,
Sn4Mn4Se16K8,2.005062,,
K4Mn2Te4,3.100112,,
K4Mn4O6,2.491786,,
K8Mo4S12O4,2.280671,,
K8Mo4S8O8,2.812229,,
K8Mo4S8O8,2.887828,,
K8Mo4S4O12,3.811461,,
K8Mo4S16,2.031145,,
O14K4S4N2,2.965037,,
Ni2K4O24N8,4.8595939999999995,,
Pd2K4N8O24,3.95116,,
Pd4K8N16O32,4.000714,,
Ni1Pb1K2O12N6,3.254489999999999,,
Ni1Sr1K2O12N6,3.805398,,
Tl4Na4K8O12,2.368907,,
Tl4K8Na12O16,2.5123,,
Na12K8Si4P12,1.517845,,
Nb5Y1K2O15,2.884832,,
Ni1K2O2,3.425274,,
K4Ni2P4,1.806203,,
K4Ni6S8,2.169986,,
K4Ni6Se8,1.650889,,
K4Sb8O22,3.455448,,
Ti6K2O13,4.035234,,
K2O1,2.8771839999999997,,
K2V8O21,1.999727,,
Pd1S8K2O26,3.643281,,
Pb4K8O8,2.73441,,
Pd1K2O2,3.236109,,
Zn2K4O4,3.515193,,
K4O4,3.818956,,
K4O4,3.89854,,
Pb4K8O12,2.143742,,
Pb2K4O6,2.536229,,
Pb4K8O12,2.498156,,
K4Pb4O6,2.303363,,
K8Sn4O12,3.592147,,
K6Sn6O9,1.933174,,
K2Sn2O3,1.763538,,
K4Sn4O6,2.003826,,
Pb8K8O16,2.237427,,
Ru4K8O16,2.592467,,
K4Zn6O8,3.051682,,
K4S4O10,1.660732,,
Sb4K8P4O24,4.159086,,
Se4S8O24K8,3.975108,,
Ta2Sr1K2O7,3.354712,,
W4K4O14,3.433221,,
Zn12K4O14,2.762743,,
K4V6O16,3.021335,,
Ti2Si6K4O18,4.841837,,
K4Zr2Si6O18,6.53438,,
Zr2K4Si6O18,6.534471,,
Zr2K4Si6O18,6.532386,,
Ti8K4O18,4.295638,,
K4Pd2P4,1.797221,,
K4Si2P4,1.974956,,
Pd1K2S2,2.218475,,
Pd1K2Se2,1.504118,,
Pd1K2Te2,1.165888,,
K4Pd6S8,2.284837,,
K4Pd6Se8,1.53054,,
Pt2K4S30,2.748644,,
Pt1K2S2,2.349555,,
K2Pt1Se2,1.92522,,
K2Pt1Te2,1.382158,,
Sn6Sb4K4S20,2.418201,,
S1K2,3.25143,,
K8S4,2.979915,,
K6S6,2.547581,,
Te4S12K8,0.635535,,
K4Ti2S6,1.857773,,
K4S6,2.334169,,
K4Sn4S10,2.237308,,
K8S20,2.711343,,
K8S24,2.553146,,
Sb8S14K4,2.043851,,
K2Se1,2.961627,,
Se1K2,2.96237,,
K4Se4,1.936409,,
K6Se6,1.501897,,
K4Sn2Se6,2.486134,,
K8Te4Se12,2.437533,,
K4Se6,1.381647,,
K8W4Se16,1.855119,,
K4Sn4Se10,1.543628,,
Se20K8,1.391958,,
Te12Sn4K8,1.613829,,
Te10Sn2K4,1.086652,,
Te1K2,2.856831,,
K2Te1,2.8521300000000003,,
Te4Zn2K4,2.947574,,
K4Te4,1.415006,,
K6Te6,0.979886,,
K8Zr4Te12,0.943109,,
K8Te12,1.426568,,
K6La2Te4O18,4.286974,,
Te2K6Na4Li2O12,3.758304,,
K12Si16Li4,2.093867,,
Lu1O8V2K3,4.633694,,
K12Mn4O12,3.185415,,
K3Mn1O4,3.502122,,
K6N2O6,1.165697,,
K3Na1Ru2O8,2.527887,,
W4K6Na2O16,6.364497,,
K6Na2Re4O18,3.112797,,
Sn6Se16K6Na2,2.299115,,
Na8K12Sn4P12,1.693956,,
Nb1K3O8,4.335562,,
Nb4K12S16,3.298023,,
Nb4K12Se16,2.664207,,
Ni4K12O8,3.013579,,
Ni2K6O4,2.716084,,
K6Ni4O8,0.126405,,
K3V5O14,3.249732,,
K12V4S8O8,3.311236,,
Sb2O8K6,3.249604,,
Ta1K3O8,5.25235,,
Y1V2O8K3,4.629576,,
K3V3O8,2.629242,,
Sb14K6S6O18,2.492766,,
K12P44,2.680529,,
P4S16K12,3.984589,,
K6Se32P2,1.873956,,
Se16K12P4,2.667471,,
K6P2,0.754267,,
Ru2Se20K6P10,1.691377,,
K12Sb4S12,3.515466,,
Sb2S8K6,3.271274,,
Sb1K3S4,3.235182,,
Ta4K12S16,3.713095,,
K12S16V4,2.531026,,
Se12K12Sb4,3.066807,,
K6Sb2Se8,2.29956,,
K12Sb4Te12,2.434103,,
K3Sb1,1.211373,,
Sb2K6,0.905791,,
Sn4Se12K12,2.406755,,
K6Si2Te6,2.501997,,
K12Sn4Te12,1.856137,,
K4Ni1N6O12,3.735505,,
Ru1K4N6O12,3.903003,,
Te2K8Na4O12,3.711862,,
Ni3K4O6,1.303767,,
Sb4K8O6,2.094164,,
Sn8K32O24,3.086247,,
K16Zn4O12,3.150447,,
Pb2K8O8,3.008101,,
Si4K16O16,4.356091,,
Sn2K8O8,3.757261,,
Pd1S8P2K4,2.882805,,
P2K4Zn1,1.611624,,
K4P6,1.316659,,
K8P12,1.666339,,
Ta4S22K8,2.51907,,
Sn4Te8Se8K16,2.337781,,
K16Sn4Se16,2.579761,,
Sn6Se16K8,2.302462,,
Sn4Sb12K20,1.029594,,
Te6K10,0.517405,,
K12Mg2O8,2.865808,,
K12Mn2S8,2.685137,,
K12Mn2Se8,2.389416,,
K12Mn2Te8,2.33925,,
W4K12O6N8,3.244397,,
Pb4K12O10,3.082326,,
Nb1K7S6O24,4.1529300000000005,,
K16Sn2Sb8,0.761721,,
Tl20Zn2K16,0.02945,,
Kr2,8.638966,,
La1P2Li3,1.028277,,
La1Sb2Li3,0.459140999999999,,
La4Lu4S12,3.429519,,
La2Na2Te2Mg2O12,4.096785,,
Na2La2Mn2W2O12,2.88212,,
La2Mn2Sb2O2,1.240174,,
La2Mn2O6,0.718741,,
La2Mn6V8O24,0.2296679999999999,,
La4N4O16,2.155588,,
La1N1,0.8139879999999999,,
La2N2,2.395475,,
Ta4La4N8O4,1.625889,,
La1O6N3,4.121284,,
La2Ti2Na2O8,3.822525,,
Se2La1Na1,2.8636939999999997,,
Nb4La2Rb2O14,3.220369,,
La2Ni2O4,2.561908,,
La2Zn2P2O2,1.364403,,
La2Zn2Sb2O2,0.605081,,
La4Rh4O12,2.031809,,
La4Ti4O12,0.944514,,
La2Tl2O6,1.075689,,
La4Sb4O16,4.644977,,
La2Sb2Sr4O12,5.200324,,
Rb1La1Ta2O7,3.642244,,
La2Sb6O18,3.299536,,
La2V6O18,3.789071,,
La8P8S8,0.852428,,
La1P1,0.152048,,
Tl4La4S24P8,3.650388,,
Tl4La2S14P4,3.068573,,
Tl4La4Se24P8,2.624976,,
La16P32,1.004797,,
La4P20,0.6600039999999999,,
La4P28,1.500317,,
Rb1La1S2,3.527517,,
Rb4La4Si4S16,3.626168,,
Se2La1Rb1,3.084558,,
La4S8,1.267197,,
La8S16,1.305186,,
La4Sc4S12,2.80212,,
La2Y6S12,1.898015,,
La4Se8,0.431685,,
La4Li2Ru2O12,2.252187,,
Li2La2Ti3O10,3.335929,,
La2Mn1Mg1O6,3.229018,,
La4Ni2Mn2O12,2.325633,,
La4Mn2V2O12,1.627192,,
La4Mo2O10,1.28477,,
La4Na2Os2O12,2.316158,,
La4Na2Ru2O12,2.429335,,
Na2La2Ti3O10,3.330096,,
La4Ni2O8,2.384591,,
La8Ni4O16,0.730271,,
La4Ni2O8,2.388861,,
La4Ni2O8,3.519491,,
La4Ni4O10,3.457142,,
La8Ni8O20,3.239986,,
La8S8O8,2.516469,,
La4S4O4,2.498909,,
La8Sn4O8S12,2.612393,,
La2Se1O2,3.666882,,
La2O2Te1,2.910867,,
La2O3,5.247587,,
La2O3,3.108751,,
La16O24,4.668656,,
La2O3,5.38132,,
La8Se4Si4O16,3.759372,,
La8Se4Si4O16,3.705673,,
La4Pd4O10,2.848744,,
Re2La4O10,2.133124,,
La8Ru4O20,1.013831,,
La4Zn2Ti2O12,4.231616,,
La4Sn4O14,4.11157,,
La4Ti4O14,4.075338,,
La4Zr4O14,0.431257,,
La4Ti4Si2O18,3.85108,,
La4W4O18,4.194871,,
La8S12,1.747765,,
La8Si4S20,3.371817,,
Si4La8S20,3.362519,,
La4Sn2S10,0.3903319999999999,,
La8Zr4S20,1.892429,,
La8Zr4Se20,1.454715,,
La12Lu4Se24,1.106423,,
La6W2Mn2S6O12,0.660156,,
Mn2Sb3La3O14,2.186179,,
La6Si12N22,4.352707,,
La12N4S12,2.150037,,
Nb2La6O14,4.106527,,
La12Sb4O12,1.301852,,
La6Sb2O14,4.405762,,
Re2La6O16,2.869448,,
La4Li1Ni1O8,3.224825,,
La8Mn2S14,3.073333,,
La8N4S6,1.982873,,
La8N4Se6,2.41837,,
La8Ni2S14,2.585011,,
La4Ti3O12,4.196705,,
La8Se6O8,1.042224,,
La4Pd1O7,2.147179,,
La5Re3Mg1O16,1.220274,,
La10Os6Mn2O32,1.51753,,
La10O4N2S8,2.279717,,
Re4La6O18,1.087259,,
Pb3Rb2Li14O14,3.103323,,
Li4Mg4N4,3.469027,,
Li1Mg1P1,0.515539,,
Li4Mn4O8,2.808951,,
Li4Mn4O8,3.066402,,
Li2Mn2V2O8,3.260655,,
Mn2Li2O8,2.463382,,
Mn2Li2P4O14,2.74558,,
Li2Mn2Sb2,1.477757,,
Mo4S8Li4,1.611909,,
Sb4Mo8O32Li4,2.570695,,
Li1Sc1Mo3O8,2.384486,,
Li1Y1Mo3O8,2.410179,,
Li2Mo6Se6,0.19262,,
Li2N2O6,5.014179,,
Sr2Li2N2,1.169924,,
N2Na5Li1,0.117432,,
Li2Si4N6,6.509345,,
Li2N6,5.006667,,
Li2Na2S2,4.217542,,
Li4Na4Se4,3.434165,,
Na4Te4Li4,3.029209,,
Li2Nb2O4,2.373726,,
Nb8O24Li8,4.596221,,
Nb2Li2O6,3.602255,,
Li4Zn4Nb4O16,4.325795,,
Zn4Li4Nb4O16,4.333161,,
Li2Nb2W2O12,3.623597,,
Rb8Li4Nb4S16,3.177852,,
Li2Nb2S4,1.178375,,
Li2Ni2O4,1.418183,,
Li2Ni2P2O8,4.732804,,
Li2Ti4P6O24,3.810221,,
Li2V6Te4O24,2.677135,,
V12O26Li2,0.982142,,
Rb4Li4O4,3.534147,,
Rh1Li1O2,3.27862,,
Rh4Li4O8,3.334884,,
Sb8O16Li8,3.527955,,
Li2Tl2O4,1.136389,,
Li1V1O2,1.233173,,
Rb4Zn8Li4O12,3.711327,,
Li4Sb4O12,3.780842,,
Li4Ta4O12,3.898281,,
Li4V4O12,3.778469,,
V4P4O20Li4,2.890298,,
Li4V4P4O20,2.909588,,
Li4V4Te4O20,3.537583,,
Li4O20V8,1.188081,,
Li4V8O20,2.112324,,
V4O10Li2,1.006856,,
V8O20Li4,2.428738,,
Sr6Li2Ru2O12,2.381691,,
Li4Sb4W4O24,3.921886,,
Ti4Si8Li4O24,2.224502,,
Li4V4Si8O24,3.009297,,
V2P4O14Li2,3.066321,,
Sb6O16Li2,2.497805,,
Li2V6O16,2.586888,,
Li1Zn1P1S4,3.843471,,
Li2Sr2P2,2.044546,,
Sr1Li1P1,1.459967,,
P8Li8,1.38858,,
Li4P20,1.880793,,
Li8P56,2.363283,,
Li2Rb2S2,3.797164,,
Rb2Li2Se2,3.250198,,
Rb8Li4Ta4S16,3.612111,,
Rb4Li2V2S8,2.664131,,
Sb6Li6S12,1.66614,,
Li1Sc1S2,2.504231,,
Li1Y1S2,2.807647,,
Sb4Sr4Li4,1.204561,,
Sb2Zn2Li2,0.987955,,
Li1Y1Se2,2.298269,,
Li8Si8,0.362517,,
Te36Li12,0.620833,,
Li8Mg4Si4,0.497073,,
Li4Mn2O4,4.299255,,
Mn2Li4O6,3.26493,,
Li8Mn4O12,3.245189,,
Sn2S8Mn2Li4,2.839749,,
Sn4S16Mn4Li8,2.875785,,
Ni2Mn4O12Li4,2.76187,,
Li4Sn2Mo6O16,1.722947,,
Na4N2Li2,1.537564,,
Th3N6Li6,3.230942,,
Zr1N2Li2,2.759975,,
O2N16Li4Sr8Si8,3.756374,,
Li2Na1Sb1,1.244633,,
Nb2Sr1O7Li2,2.686815,,
Li4Sr2Nb4O14,3.037373,,
Ni1Li2O2,4.787629,,
Ni2Li4O4,4.998578,,
Li8Ni4O12,2.773807,,
Li2Ti6O13,4.192218,,
V12O26Li4,1.437049,,
O1Li2,6.60542,,
Li2O1,6.604799,,
Pd1O2Li2,3.129996,,
Li16O16,3.753813,,
Li4O4,4.204641,,
Li4O4,4.336207,,
Pb2Li4O6,1.99057,,
Te4O16Li8,3.851024,,
Li4V2Si2O10,3.590594,,
Li4Te2Sn2O12,3.87359,,
Li2Zr1Te1O6,4.382302,,
Pd2P4Li4O14,3.029517,,
Ta2Sr1O7Li2,3.424395,,
Ta4Sr2O14Li4,3.6542,,
Ti6O14Li4,4.322204,,
Li2S1,4.354007,,
S4Li8,4.079667,,
S4Li8,4.902262,,
Li8Sn4S12,2.180878,,
Te4S12Li8,0.3820389999999999,,
Sn2Zn2Li4S8,3.268119,,
Li2Se1,3.848211,,
Sn2Se6Li4,2.08782,,
Li8Te4Se12,0.187082,,
Li2Te1,3.214822,,
Li3N1,2.067652,,
Li6N2,2.308309,,
N2Na3Li3,1.831357,,
N2Na3Li3,0.472603,,
Li12N16Sr8Nb4,3.114683,,
Li12N16Sr8Ta4,3.145308,,
Li12Na4Si24,0.514384,,
Na10Li6Ti4S16,3.293226,,
Sb1Ni2Li3O6,4.110841,,
V6O13Li3,0.8241219999999999,,
Sb1Zn2Li3O6,4.300736,,
Li6P2,1.319548,,
P28Li12,2.471589,,
Sb4S12Li12,3.057002,,
Sb2Li6,1.026896,,
Li3Sb1,1.239548,,
Se14Li8Sn4Mn2,2.369312,,
Mo2Li8O10,3.757493,,
Li2N1Na1,3.687496,,
Li2N1Na1,3.699214,,
Sr2Li8N4,1.827101,,
Ta4N12Li16,3.746719,,
Si2N6Sr3Li4,3.206716,,
Pb2Li8O8,2.722158,,
Se2Li8O10,4.347189,,
Te2Li8O10,4.312829,,
Li4Sr1P2,1.660941,,
Li16Sn4S16,3.318592,,
Sn4Se16Li16,2.439552,,
Li5Na1N2,3.955694,,
N2Na1Li5,1.39091,,
Sb1Li5O5,4.519483,,
Re3Li15O18,3.337748,,
Li5Re1O6,3.609245,,
W4O14Li10,1.1475,,
V2P4O18Li10,2.881189,,
Mo2N8Li12,3.937998,,
W2N8Li12,4.173398,,
Te3Li18O18,4.504824,,
Nb8N32Li56,4.387854,,
Li56P8N32,4.783134,,
Ta8N32Li56,4.402637,,
V2N8Li14,3.310758,,
Se2N4Li16,2.994971,,
Te2N4Li16,3.379276,,
Pb3O18Li24,3.682106,,
Pt1Li8O6,3.952403,,
Li9N1S3,3.498401,,
Lu6Mn6O18,1.024949,,
Lu4Mn4O12,1.574259,,
Lu4Mn8O20,2.183779,,
Lu1Na1Pd6O8,0.464258,,
Lu1Na1S2,3.316454,,
Sr4Lu2Nb2O12,4.599318,,
Lu4Ni4O12,0.7835719999999999,,
Lu1Ni1Sb1,0.35731,,
Lu4Rh4O12,2.660165,,
Lu2V2O8,4.093169,,
Lu2V2O8,4.030732,,
Lu2V2O8,3.721262999999999,,
Sr4Lu2Ru2O12,2.115185,,
Lu1P2O8Rb3,6.339071,,
Lu4S16P4,3.164112,,
Lu1P1,0.3087189999999999,,
Lu2P10,0.695538,,
Lu1Pt1Sb1,0.232019,,
Rb1Lu1S2,3.315142,,
Se2Lu1Rb1,2.914869,,
Lu1Tl1S2,1.822495,,
Lu1Tl1Se2,1.62946,,
Lu1Tl1Te2,1.192819,,
Mg2Lu4Se8,2.312051,,
Mn2Lu4S8,2.319239,,
Mn2Lu4Se8,2.257988,,
Lu8Pd4O16,2.055929,,
Lu4Sn4O14,4.072121,,
Lu4Ti4O14,3.954099,,
Lu4V4O14,1.878488,,
Pb4Lu8S16,2.887463,,
Pb4Lu8Se16,2.374295,,
Lu4S6,3.533126,,
Lu8S12,1.603308,,
Sr4Lu8S16,2.756651,,
Zn4Lu8S16,3.37763,,
Sr4Lu8Se16,2.28517,,
Mg2Mn4O8,2.7682029999999997,,
Mg2Mo2N4,1.466358,,
Sr2Mo1Mg1O6,3.162328,,
Sr2Mg1Mo1O6,3.119801,,
Na2Mg2Sb2,1.593008,,
Si4Mg4Na8O16,5.573228,,
Si2Mg2Na4O8,5.571454,,
Na4Mg2Sn2,0.2738319999999999,,
Se6Si2Mg1Na4,3.689336,,
Mg2Te12O26,4.141635000000001,,
Mg1O1,6.20401,,
Mg1O1,6.279011,,
Mg2O2,5.00278,,
Mg2O2,4.907628,,
Mg1O1,4.6276019999999995,,
Mg2O2,5.200547,,
Mg4O8,6.088811,,
Mg4P4O12,6.756458,,
Mg2V2O6,3.945068,,
Mg2Rh4O8,3.042557,,
Sb8Mg4O16,3.196397,,
Mg2Se2O8,4.817306,,
Mg4Te8O20,3.257887,,
Mg2Ti4O10,3.992478,,
Mg4V8O20,3.607768,,
O6Pb2Te1Mg1,3.714858,,
Pb8Mg4W4O24,3.338312,,
Pb2Mg1W1O6,3.363106,,
Sr6Mg2Pt2O12,4.342828,,
Mg1Pt3O6,1.171607,,
Mg2Sb4O12,2.621329,,
Sr2Mg1Te1O6,3.93404,,
Mg2Ta4O12,4.172218,,
Mg1V2O6,3.679003,,
Mg4V8O24,3.080123999999999,,
Mg2P2S6,3.895991,,
Mg2P2Se6,2.974351,,
Mg2Si2P4,1.967107,,
Mg2P8,1.175186,,
Mg1S1,4.486224,,
Mg1S1,3.782173,,
Mg2Sc4S8,2.631641,,
Mg2Sc4Se8,2.060833,,
Mg1Se1,2.627516,,
Mg2Se2,3.565122,,
Se8Mg4,2.581165,,
Mg2Y4Se8,2.193167,,
Mg4Sr4Si4,0.3579469999999999,,
Mg2Te2,3.141129,,
Mg4Te8,1.806046,,
Mo6Mg4O16,2.871742,,
Sr1Mg2N2,2.798415,,
V6Mg4Na2O20,4.003068,,
Mg8Si4O16,6.316534999999999,,
Mg8Si4O16,6.315094,,
Mg4V4O14,3.786535,,
Mg8Si4S16,4.032467,,
Mg8Sn4S16,3.125525,,
Sr1Mg2Sb2,1.549364,,
Mg8Si4Se16,3.069618,,
Mg8Sn4Se16,2.179561,,
Mg2Si1,0.592441,,
Mg2Sn1,0.092342,,
Mg24N16,2.694411,,
Nb6Mg3O11,1.253918,,
Pb3Te1Mg3P2O14,4.7446730000000015,,
Mg6Te2O12,4.524795,,
Mg6P4,1.763382,,
Mg24P16,2.251255,,
Mg3Sb2,0.668524,,
Mg6Mn1O8,3.607325,,
Si10Mg18,0.1915329999999999,,
Mn4Mo4O16,3.216656,,
Mo4Mn4O16,1.861852,,
Sr4Mn2Mo2O12,1.43646,,
Sr2Mn1Mo1O6,1.204262,,
Sr8Mn4Mo4O24,1.341894,,
Mn2Te2Mo2O12,3.140364,,
Mn2Te2Mo2O12,3.236954,,
Mn4N8O24,4.34002,,
Mn4Si4N8,3.647907,,
Na2Mn2O4,3.279603,,
Mn4Na4O8,2.816391999999999,,
Rb4Mn2Na2O8,3.292707,,
Na4Mn4V4O16,3.376611,,
O12Si4Mn2Na2,2.452812,,
Mn2P4Na2O14,2.029318,,
Mn12Na24O24,2.402347,,
Na10Mn2O8,2.783775,,
Na12Mn2O8,1.979967,,
Mn2Na12S8,2.878158,,
Na12Mn2Se8,2.366229,,
Na12Mn2Te8,2.27492,,
Mn4Nb8O24,3.524886,,
Nb4Zn4Mn2O16,3.582693,,
Ni2Mn2O6,2.599927,,
Mn2Ni2Sc4O12,2.51054,,
Y4Mn2Ni2O12,2.506446,,
Ni6Mn1O8,2.970055,,
Pb10Sb4Mn2O22,2.120443,,
Mn2Te12O26,3.24377,,
Mn2O2,0.569128,,
Mn2O2,2.851659,,
Ti4P6Mn1O24,3.758705,,
Rb12Mn12O24,3.801688,,
Mn4O8,2.570183,,
Mn4O8,3.088441,,
Mn4O8,2.248128,,
Mn2O4,0.140545,,
Rb12Mn4O12,3.015231,,
Mn4Sc4O12,2.089707,,
Mn8Si8O24,4.263624,,
Mn2Sn2O6,2.32921,,
Sr4Mn4O12,3.073732,,
Sr4Mn4O12,3.202388,,
Sr6Mn6O18,2.524242,,
Mn4Ti4O12,2.698112,,
Mn2Ti2O6,3.14211,,
Mn2Ti2O6,3.390162,,
Mn4V4O12,0.860211,,
Y4Mn4O12,1.552443,,
Y4Mn4O12,2.285651,,
Rb4Mn4P4O16,4.556368,,
Rb4Mn4O16,3.179248,,
Mn4Rb8O16,1.940112,,
Mn2Rh4O8,2.71553,,
Mn4Sb8O16,2.645922,,
Mn2Se2O8,3.434347,,
Mn4Se4O16,2.901589,,
Sr4Mn2O8,1.841862,,
Mn4W4O16,2.974116,,
Se4Mn2O10,3.746214,,
Mn8Te16O40,3.082464,,
Pb8W4Mn4O24,2.615316,,
Pb8Mn4W4O24,2.613885,,
Pb2Mn1W1O6,1.701967,,
Pb8W4Mn4O24,2.619685,,
Mn2Pt6O12,1.176823999999999,,
Sr2Sb1Mn1O6,1.201221,,
Sb4Mn4V4O24,1.927836,,
Mn2Sb4O12,2.798494,,
Mn2Se4O12,2.468768,,
Sr4Mn2W2O12,2.420924,,
Sr2Zr1Mn1O6,2.715318,,
Mn4Ta8O24,4.088919,,
Mn2V4O12,2.026331,,
Sr4Mn2Si4O14,4.132163,,
Te2Mn2V4O14,2.563973,,
Mn2P2Rb2,1.720865,,
Mn2P2S6,3.123575,,
Mn2P2Se6,2.53701,,
Rb4Mn2P4S12,3.336555,,
Mn2P8,1.504369,,
Mn4P16,1.778717,,
Pd2Mn2Te2,0.025209,,
Rb2Mn2Sb2,1.634095,,
Rb4Mn2S4,3.451689,,
Rb4Mn2Se4,3.037554,,
Rb4Mn2Te4,3.004409,,
Mn2S2,1.316587,,
Mn4S4,3.686163,,
Mn2S2,3.552612,,
Mn4S8,1.684289,,
Mn4S8,1.461596,,
Mn2S4,1.450758,,
Mn2Sc4S8,2.014539,,
Mn2Se2,1.147035,,
Mn2Se2,1.594994,,
Mn4Se4,3.111328,,
Mn2Se2,1.377496,,
Mn4Se8,1.37716,,
Mn2Sr2Sn2,0.0788089999999999,,
Tl2Mn1Sn1Te4,0.814597,,
Mn2Te2,1.473177999999999,,
Mn4Te4,1.454051,,
Mn4Te8,0.7665489999999999,,
Mo2Mn4P24,0.8460369999999999,,
Mn4Mo6O16,2.540056,,
Na14Mn2O9,2.082794,,
Na4Mn8O16,1.042497,,
Mn8Na8O12,2.144316,,
Na8Mn8S12,3.414373,,
Se12Mn8Na8,2.938651,,
Na8Mn4O10,3.203366,,
Nb4Zn4Mn4O18,2.737963,,
Sr8Se4Mn8O16,2.129326,,
Mn16Si8O32,3.799814,,
O32Ti8Mn16,2.753175,,
Zn2Mn4O8,2.619727,,
Pb8Mn8O20,0.3661379999999999,,
Sr8Mn8O20,2.775156,,
Sr8Mn8O20,2.890649,,
Y8Mn16O40,2.662854,,
Mn4Sb4O14,1.096711,,
Sc4Mn4O14,2.11713,,
Mn4Sr6O14,1.654599,,
Mn4V4O14,1.723188,,
Y4Mn4O14,1.892534,,
Te6Mn4O16,3.398127,,
Pb4Mn4Si4O18,2.348835,,
W2Mn4P24,0.558716,,
Sr2Mn4P4,1.632318,,
Mn8Si4S16,2.68221,,
Mn4Sn2S8,0.8905059999999999,,
Sn2Mn4S8,0.8435039999999999,,
Mn8Si4Se16,2.0742,,
Mn8Sn4Se16,1.320835,,
Na4Mn6O14,2.905996,,
Nb4Zn2Mn6O18,3.296116,,
Nb6Mn3O11,1.260406,,
Mn6Se6O20,1.101746,,
Sr8Mn6O20,2.59368,,
Pb2Mn6P6O24,1.265021,,
Sr4Mn12P12O48,1.199174,,
Pb3Te1Mn3P2O14,3.449574,,
Rb4Mn6O8,2.226237,,
Mn6O8,2.478832,,
Mn12O16,2.303584,,
Mn12Te4O24,2.246686,,
Mn12W4O24,2.848506,,
Mn6Zn2O14,2.758286,,
Mn6V4O16,2.827843,,
Rb4Mn6S8,2.675179,,
Rb4Mn6Se8,3.219769,,
Nb4Mn8O18,3.367452,,
Mn8Si2O14,2.180161,,
Mn8Ta4O18,4.139853,,
Sr10Mn10O26,1.899411,,
Pb3Mn5V2O16,1.281451,,
Mn10V2O16,1.593597,,
Mn5O8,1.427129,,
Mo2Na10O8N2,3.792601,,
Mo2Na8N4O4,3.569372,,
Mo4N12Na12,2.672415,,
Mo2Te8O24Na4,3.268796,,
Mo4O20Na16,4.001768,,
Ni4Mo4O16,2.8355,,
Sr2Ni1Mo1O6,2.710593,,
Sr2Ni1Mo1O6,2.67878,,
Mo2Y4Se6O24,3.838754,,
Rb8Mo4S12O4,2.431117,,
Rb8Mo4S8O8,2.945704,,
Rb8Mo4S8O8,2.893407,,
Mo4O12,2.932755,,
Mo8O24,2.16666,,
Mo2O6,2.926854,,
Pb2Mo2O8,3.197539,,
Tl4Mo2O8,3.241434,,
Tl4Mo2O8,3.618811,,
Mo2Zn2O8,3.044245,,
Mo4P4O20,3.098719,,
Pb4Mo2O10,3.239767,,
V2Mo2O10,3.130299,,
Mo4Rb4P4O24,3.958628,,
Tl4Mo4P4O24,3.50702,,
Pb4Mo4Se4O24,2.780396,,
Sb8Mo4O24,2.020098,,
Mo16Sb32O96,2.14437,,
Sr2Zn1Mo1O6,3.117727,,
Sr2Zn1Mo1O6,3.168274,,
Y8Mo4O24,3.055014,,
Te8Mo4O28,3.672854,,
Mo1V2O8,2.009036,,
Mo4P16,0.11953,,
Mo4S16Rb8,2.239219,,
Rb8Mo4Se16,1.59611,,
Mo1S2,1.662018,,
Mo2S4,1.731633,,
Mo2Se4,1.850707,,
Mo1Se2,1.806462,,
Mo2Te4,1.185445,,
Mo4Sr10N14,2.106951,,
Mo4P6Na2O26,2.939317,,
Na1Rb3Mo2O8,5.619596,,
Mo4Se4Na4O22,3.577102,,
Ni12Mo8Se4O44,3.406011,,
Ni6Mo4Te2O22,3.382625,,
Pb2Mo4Se4O22,3.054571,,
Mo4Sr2Se4O22,3.50343,,
Mo2Y5O12,1.238134,,
Mo2P4Si4O23,3.020522,,
Zr2Mo4O16,3.941334,,
Zr1Mo2O8,3.621623,,
Zr1Mo2O8,4.337002,,
Zn6Mo4O18,4.069884,,
Na2Te3Mo3O16,3.339493,,
Rb4Mo6Se2O24,3.422222,,
Tl4Mo6Se2O24,3.309717,,
Pb2Mo6P4O28,1.186041,,
Mo6P4Sr2O28,1.307176,,
Zn4Mo6O16,2.809457,,
Tl2Mo6O18,1.230448,,