formula,bg,formation_energy,mp-id
Sr4P12,0.4681389999999999,,
Tc4P12,1.038939,,
Re8P32,1.470128,,
Ru1P4Si4,2.192997,,
Ru3P12,2.057598,,
Ru2P8,1.495495,,
V4P8S26,2.190796,,
P16S12,3.631367,,
P8S10,3.356043,,
P64Se48,2.877707,,
Se16P16,3.083345,,
Se20P16,2.313265,,
Sr6P8,1.522519,,
Tc8P32,1.624704,,
Zn4P16,1.475706,,
Re8P20,1.11036,,
Tl4P20,1.742893,,
Y2P10,0.675493,,
Sr2Pt8P12,0.796349,,
Rb4P6,1.36133,,
Sr10Sn4P12,0.978995,,
Pb4P28,1.360736,,
Rb16Pb16,0.666227,,
Pb4S4,0.522393,,
Pb1S1,1.066003,,
Pb4S4,1.078478,,
Pb4S4,1.25305,,
Pb4S4,1.13084,,
Pb2S2,1.661678,,
Pb1S1,0.474914,,
Pb4S4,0.534092,,
S4Pb4,0.413055,,
Pb4Sn4S12,1.621463,,
Pb4Zr4S12,1.948112,,
Sc8Pb4S16,2.40895,,
Pb2Tl4Zr2S8,1.499543,,
Pb1Sb2Te4,0.533247,,
Sc8Pb4Se16,1.967941,,
Pb1Se1,0.358651,,
Pb2Se2,1.637562,,
Pb2Se4,0.074749,,
Tl16Pb4Se12,0.339273,,
Pb2Tl8Se6,0.290606,,
Pb2Tl4Zr2Se8,1.223403,,
Pb4Te4,1.184939,,
Pb1Te1,0.421069999999999,,
Pb4Te4,1.222732,,
Tl8Pb2Te6,0.227818,,
Pb8S16Si4,2.842563,,
Pb8Sb8S20,1.487595,,
Pb8Se16Si4,2.304697,,
Y4Pb6Sn6S24,1.373828999999999,,
Pb2Se2,1.24216,,
Pb4Se4,1.327395,,
Rb4Pd2Se32,1.519839,,
Pd1Rb2Se2,1.654981,,
Pd1Rb2Te2,0.922806,,
Pd8S8,0.852243,,
Ta2Pd1S6,0.260803,,
Sc1Pd1Sb1,0.480492,,
Pd24Se24,0.953772,,
Se8Pd4,0.42214,,
Pd1Sn1Zr1,0.297793,,
Tl2Pd4Se6,0.047493,,
Rb2Pd3S4,2.254317,,
Rb4Pd6S8,2.387133,,
Rb4Pd6Se8,1.685558,,
Ta4Pd6Se16,1.212639,,
Ta8Pd12Te20,0.107193,,
Pt1Rb2S2,2.351297,,
Rb2Pt1Se2,1.988885,,
Pt1Rb2Te2,1.563292,,
Pt8S8,1.165064,,
Pt1S2,1.376562,,
Pt1Sc1Sb1,0.934249,,
Pt8Sb8Si8,0.407973,,
Y1Pt1Sb1,0.676792,,
Pt4Si4Se4,1.199734,,
Pt8Si8Te8,0.6351100000000001,,
Pt1Sn1Ti1,1.31295,,
Rb2Pt4Se6,1.636463,,
Tl2Pt4S6,1.377456,,
Tl2Pt4Se6,0.936249,,
Tl2Pt4Te6,0.053227,,
Rb2Pt3S4,2.426874,,
Ta4Pt6S16,1.11777,,
Ta4Pt6Se16,1.224495,,
Tl4Pt10S12,1.647451,,
P16,3.54675,,
P84,2.115622,,
P4,0.5075109999999999,,
P42,2.463714,,
Sb4Rb4S8,2.669792,,
Sb4Rb4S8,2.668738,,
Y1Rb1S2,3.314208,,
Sb4Rb4Se8,2.12228,,
Rb8Sb8,1.023574,,
Rb2Sb4Se8,1.583674,,
Rb4Sb8,0.923578,,
Sb12Rb4Se20,1.691647,,
Rb4Sb12Se20,1.122155,,
Rb1Sc5Te8,1.105396,,
Rb16Si16,1.649427,,
Rb16Sn16,1.121672,,
Rb2Y2Te4,2.141978,,
Sn6Sb4Rb4S20,2.417953,,
Rb4S2,2.803009,,
Rb8S4,2.900208,,
Rb2S1,2.867654,,
Rb2S2,2.756268,,
Rb6S6,2.636373,,
Rb4S6Si2,3.890301,,
Rb4S6,2.365057,,
W4Rb8S16,2.72775,,
Rb4Zn6S8,3.839596,,
Rb8S20,2.754194,,
Rb4Sb8S14,2.461943,,
Sb8Rb4S14,1.815065,,
Rb2Se1,2.630857,,
Rb6Se6,1.803637,,
Sn2Se6Rb4,2.442259,,
Rb4Se6,1.473273,,
Rb2Te1Se4,1.64004,,
Rb8W4Se16,1.966594,,
Sn4Rb4Se10,1.540408,,
Rb8Se20,1.528001,,
Rb4Sn2Te10,1.168234,,
Rb2Te1,2.604895,,
Rb4Te2,2.073511,,
Rb4Te4,1.517404,,
Rb8Zr4Te12,0.143898,,
Rb8Te12,1.264049,,
Rb2Te5,0.7676769999999999,,
Rb12Sb4S12,3.512724,,
Sb4Rb12S16,3.1103,,
Ta4Rb12S16,3.810784,,
Rb12V4S16,2.651739,,
Se12Rb12Sb4,3.082769,,
Rb12Sb4Se16,2.182393,,
Rb6Sb2,0.545943,,
Sb8Rb8,1.129957,,
Re4S4Te4,0.524392,,
Re4S8,1.87744,,
Re8S16,1.880923,,
Re4Se8,1.753143,,
Re4Te8,0.682721,,
Re8Si14,0.532261,,
Sr4Re12S22,2.087572,,
Rh4Sb4S4,1.483703999999999,,
Rh4Sb4Se4,1.230692,,
Rh4Sb12,0.156275,,
Rh8Se16,0.158183,,
Rh8S12,1.100445,,
Ru4S4Sb4,1.741505,,
Ru4S8,1.580138,,
Ru4Se4Sb4,1.497062,,
Ta1Ru1Sb1,1.295818,,
Ru4Te4Sb4,1.109487,,
V1Ru1Sb1,1.127348,,
Ru2Sb4,0.53363,,
Ru4Se8,1.138644,,
Ru2Te4,1.132595,,
Ru4Te8,0.566638,,
Ru16Si24,1.05655,,
Tl8Ta4S22,0.7945329999999999,,
Sn4S4,1.249141,,
Sn1S1,0.528484,,
S1Sn1,0.328626,,
Sn2S2,0.706657,,
Sr1S1,2.721781,,
S1Sr1,3.458586,,
Tl4S4,1.005954,,
Tl18S9,1.24748,,
V4S4,2.59856,,
V4S4,2.60235,,
Zn8S8,3.483787,,
Zn8S8,3.664726,,
Zn14S14,3.461562,,
Zn20S20,3.472027,,
Zn1S1,3.466959,,
Zn10S10,3.474882,,
Zn8S8,3.4815,,
Zn14S14,3.464165,,
Zn6S6,3.493048,,
Zn10S10,3.47473,,
Zn1S1,3.622026,,
Zn2S2,3.550781,,
Zn2S2,3.545718,,
Zn3S3,3.514418,,
Zn4S4,3.501535,,
Zn16S16,3.462272999999999,,
Zn18S18,3.457168,,
Zn12S12,3.472578,,
Zn6S6,3.49415,,
Zn20S20,3.462404,,
Zn16S16,3.475931,,
Zn4S4,3.498734,,
Zn1S1,3.609357,,
Tl4Sb4S8,2.068318,,
Tl2Sc2S4,1.467553,,
Si2S4,3.921572,,
Si4S8,4.166398,,
Si12S24,3.760981,,
Si2S4,4.052531,,
Sn1S2,2.318139,,
Sn4S8,1.964143,,
S2Sn1,2.317514,,
Sn2S4,2.151515,,
Sr2S4,2.349565,,
Tc4S8,1.679112,,
Ti1S2,0.283644,,
Ti4S8,0.048,,
Ti2S4,0.2722549999999999,,
Y1Tl1S2,2.116999,,
Tl4S4,0.992001,,
Tl32S32,1.339841,,
V1S2,0.682094,,
V2S4,0.193664,,
W1S2,1.796403,,
S8Zn4,2.502034,,
Zr1S2,1.81672,,
Sb1Tl3S3,2.076617,,
Sb8S12,1.872658,,
Sb8S12,1.8758,,
Y4Sc4S12,2.766559,,
Sc8S12,2.399295,,
Tl4Si2S6,2.753993,,
Sn4Sr4S12,1.474454,,
Tl4Sn2S6,1.391171,,
Tl16Sn4S12,1.033071,,
Sn4Zr4S12,1.539954,,
Tl4Sn4S6,1.315201,,
Sn8S12,1.234822,,
Zr4Sr4S12,1.322692,,
Sr4Zr4S12,2.038612,,
Sr8Zn4S12,3.37825,,
Sr8Zn4S12,3.377838,,
Tl4Ta4S12,1.001557,,
Tl8Te4S12,1.883213,,
Ti2S6,0.980361,,
Tl4Zr2S6,1.452526,,
Tl8S12,1.240545,,
Tl16S12,1.271605,,
Tl16S8,0.914146,,
Y8S12,1.467515,,
Y12S18,2.399474,,
Tl6Sb2S8,2.122591,,
Tl6Sb2S8,2.127933,,
Sr4Sc8S16,2.356653,,
Zn2Sc4S8,1.548419,,
Sn8S16Si4,2.512903,,
Sr4Si2S8,3.937004,,
Tl8Si2S8,2.519755,,
Sn2Sr4S8,3.501886,,
Tl16Sn4S16,2.252647,,
Sr4Y8S16,2.753636,,
Tl3Ta1S4,3.274257,,
Tl16Ti4S16,3.111647,,
Tl3V1S4,2.700993,,
V4S16,1.59232,,
V6S8,0.952686,,
V20S16,1.537228,,
Zn2Y4S8,1.678379,,
Zn4Y8S16,3.390717,,
Sn8Sb8S20,1.088964,,
Tl4Sb12S20,2.029217,,
Tl4Sn4S10,2.180119,,
Tl8S20,2.404891,,
Y8Zr4S20,2.073217,,
Sn2Sb8S14,1.095421,,
Tl4V20S32,1.066882,,
Tl12Sb4Se12,1.613994,,
Sr4Sb2,0.1190659999999999,,
Tl1Sb1Te2,0.192649,,
V4Sb4,0.587757,,
Zn8Sb8,0.6295000000000001,,
Sb2Te2Se1,0.15417,,
Sb2Se2Te1,0.907544,,
Sb2Te1Se2,0.655064,,
Sb8Se12,1.035869,,
Sn1Sb2Te4,0.616703,,
Zn2Sn2Sb4,0.356555,,
Sr1Zn2Sb2,0.25871,,
Sb6Te6,0.014681,,
Te3Sb2,0.430479999999999,,
Te9Sb6,0.4285819999999999,,
Sr16Sb24,0.363157,,
Sb2Te3,0.4246959999999999,,
Sr4Sn12Sb16,0.034873,,
Tl1Sc1Se2,1.166394,,
Tl1Sc1Te2,0.700306,,
Sc8Se12,1.443925,,
Sr4Sc8Te16,1.177349,,
Sc8Te12,0.244831,,
Tl8Ta4Se22,0.086639,,
Se4Sn4,1.00631,,
Sn2Se2,0.565825,,
Sn2Se2,0.6403749999999999,,
Sn1Se1,0.117688,,
Sn2Se2,0.7983049999999999,,
Sr1Se1,3.097511,,
Tl4Se4,0.549693,,
V4Se4,2.403802,,
Zn2Se2,3.082164,,
Zn1Se1,2.535196,,
Zn2Se2,2.570554,,
Zn2Se2,2.587479,,
Si2Se4,2.631459,,
Si8Se16,3.229466,,
Tl16Sn8Se16,1.179156,,
Sn1Se2,1.26697,,
Ta13Se26,0.354255,,
Se2Y1Tl1,1.873221,,
W2Se4,1.89962,,
Se8Zn4,1.622463,,
Se2Zr1,0.154857,,
Tl4Si2Se6,2.220392,,
Tl16Sn8Se24,1.487797,,
Sn2Tl8Se6,0.26793,,
Sr4Zr4Se12,0.833704,,
Tl4Se6,1.277001,,
Y8Se12,2.093778,,
Se6Zr2,1.038285,,
Tl16Si4Se16,1.88184,,
Sr4Y8Se16,2.260672999999999,,
Ta1Tl3Se4,2.869544,,
Ti1Zr1Se4,0.189024,,
Tl3V1Se4,2.280706,,
V6Se8,0.724901,,
Zn2Y4Se8,1.092201,,
Se3,1.764976,,
Se32,2.403632,,
Se6,2.299414,,
Sr8Si4,0.745475,,
Tl12Si4Te12,1.594559,,
W3Si6,0.4611639999999999,,
Si8,0.189413,,
Si12,1.089877,,
Si2,1.188769,,
Si34,1.097999,,
Sn4Sr8,0.441863,,
Sn1Te1,0.3773709999999999,,
Sn1Te1,0.293539,,
Sn4Te4,0.728955,,
Sn2Tl8Te6,0.2190039999999999,,
Tl4Te10Sn2,0.4167119999999999,,
Sr1Te1,1.116099,,
Sr1Te1,2.449811,,
S72,3.378902,,
S80,3.608471,,
S28,3.496316,,
S18,2.841776,,
S24,3.369181,,
S9,3.307329,,
S6,3.375313,,
S40,3.067626,,
S32,3.441746,,
S28,3.323466,,
S48,3.601651,,
S36,3.444076,,
S88,3.15351,,
S32,3.557204,,
V2Te2,1.534496,,
Zn1Te1,2.192322,,
Zn3Te3,1.332268,,
Zn3Te3,2.1978,,
Te2Y1Tl1,1.213243,,
W2Te4,1.20931,,
Tl4Te6,1.020503,,
Y8Te12,1.199813,,
V10Te8,1.45452,,
Te3,0.694276,,