formula,bg,formation_energy,mp-id
Li4In4Ge4O16,3.730815,,
Li4In4Ge2S12,2.914969,,
Li4In4Ge2Se12,1.920339,,
Na4In4Ge2S12,3.231719,,
Na4In4Ge2Se12,2.172747,,
Ir1In7Ge1O8,1.276845,,
La2Ge2K2S8,3.178877,,
La2Ge2K2Se8,2.218364,,
K4Ge4O4N4,4.088644,,
K8Sb8Ge8O40,3.881749,,
Y2K2Ge2S8,3.297407,,
K16Ge16,1.32331,,
K4Ge2Se6,2.426518,,
Ge4Se16K8,2.653096,,
Te16Ge4K8,1.662465,,
K6Ge2S6,3.051653,,
K6Ge2Se6,2.650235,,
K12Ge4Te12,1.770712,,
Ge2K8O8,4.171386,,
K16Ge4O16,4.222956,,
La2Mg1Ge1O6,6.049494999999999,,
La8Ge4S20,2.869485,,
Ge4La8S20,1.306865,,
Te12Ge6Li6,0.902844,,
Li4Ge2Mo6O16,1.827652999999999,,
V4Ge4O20Li8,3.420665,,
Pb1Ge1S4Li2,3.088539,,
Ge1Zn1Li2,0.369788,,
Li16Ge4S16,3.457332,,
Mg4Ge4N8,4.041667,,
Sr12Ge4Mg4N16,2.514396,,
Ge2Mg2O6,4.022595,,
Mg4Ge4O12,4.042287,,
Mg2Ge2P4,2.115911,,
Mg4Sr4Ge4,0.3417469999999999,,
Ge2Mg4O8,4.701181,,
Mg8Ge4S16,3.333618,,
Se16Ge4Mg8,2.238979,,
Ge1Mg2,0.541955999999999,,
Mn4Ge4N8,2.448042,,
Mn2Ge2O6,3.183395,,
Mn4Ge4O12,2.296869,,
Zn4Mn4Ge4O16,2.672193,,
Tl2Mn1Ge1Te4,0.702295,,
Mn8Ge4O16,2.679043,,
Mn8Ge4O16,2.133118,,
Mn8Ge4S16,2.223896,,
Ge4Se16Mn8,1.404063,,
Sr8Ge4N8,0.1411629999999999,,
Sr16Ge8N16,0.3419109999999999,,
Y4Na4Ge4O16,5.258071,,
Na4Y4Ge4O16,5.265218,,
Na16Ge16,1.143825,,
Ge2Na4O6,4.539468,,
Zn2Ge2Na4O8,4.350956,,
Na4Ti2Ge2O10,4.935206999999999,,
Na4Ti2Ge2O10,4.935883,,
Na4Ge2Te2O12,4.28999,,
Na8Ge4S12,3.548805,,
Se12Ge4Na8,2.476668,,
Se12Ge4Na12,2.664817,,
Na12Ge4Te12,1.868645,,
Na8Ge2O8,4.43022,,
Ge4P12Na20,1.68005,,
Nb8Ge4Te16,0.273272,,
Ge2Ni4O8,3.353068,,
Sr12Ge4O4,0.81808,,
Ge2O4,2.806486,,
Ge2O4,2.821955,,
Ge3O6,4.776143,,
Ge4O8,4.818552,,
Ge4O8,3.033993,,
Ge4O8,2.132839,,
Ge3O6,4.828782,,
Pb6Ge6O18,3.763172,,
Pb1Ge1O3,0.793295,,
Sr1Ge1O3,1.080706,,
Zn2Ge2O6,4.018626,,
Rb16Ge4O16,3.91048,,
Ge6Zn12O24,3.899172,,
Pb6Ge2O10,2.958835,,
Pb3Ge1O5,2.581516,,
Sr4Ti4Ge4O20,4.016385,,
Se8Ge4O24,4.415756,,
Sr1Ge1Te1O6,4.560453,,
P2Ge2Rb6Se14,2.378306,,
Ge12P12,1.105876,,
Zn2Ge2P4,1.833909,,
Rb20Ge4P12,1.412092,,
Pb4Ge4S12,2.467713,,
Tl8Pb4Ge4S16,2.576267,,
Pb8Ge4S16,2.824546,,
Ge2Pd2S6,2.490855,,
Pt4Ge4S4,1.275804,,
Pt4Ge4Se4,0.7655679999999999,,
Ti1Ge1Pt1,1.6076700000000002,,
Rb2Ta2Ge2S10,1.650287,,
Rb16Ge16,1.324836,,
Rb4Ge2S6,3.290537,,
Rb4Ge2Se6,2.352711,,
Rh8Ge8Te8,0.709747,,
Ru4Ge4,0.578579,,
Ge4S4,1.765281,,
Ge2S2,0.907479,,
Tl8Ge8S16,2.354841,,
Ge2S4,3.458665,,
Ge16S32,3.329959,,
Ge6S12,3.384229,,
Ge2S4,2.129862,,
Ge12S24,3.374857,,
Ge16S32,3.306089,,
Sn4Ge4S12,1.94055,,
Ti4Ge4S12,0.811306,,
Tl4Ge2S6,2.29209,,
Sr4Ge2S8,3.195361,,
Tl8Ge2S8,2.471417,,
Ge2V8S16,1.035885,,
Ge1Te7Sb4,0.6247400000000001,,
Ge4Se4,1.257953,,
Ge1Se1,0.2590429999999999,,
Se32Ge16,2.302382,,
Ge2Se4,2.262624,,
Ge6Se12,2.296765,,
Ge2Se4,2.323774,,
Ge4Se8,2.306787,,
Tl4Ge2Se6,1.622514,,
Sr4Ge2Se8,2.587612,,
Tl16Se16Ge4,1.613044,,
Ge1Te1,0.856074,,
Te4Ge4,0.832384,,
Ge8Te8,0.8560500000000001,,
Ge4Te4,0.5683739999999999,,
Ge4Te4,0.883662,,
Ge1Te1,0.592233,,
Tl12Ge4Te12,1.122,,
Zr2Ge2Te8,0.8921979999999999,,
Tl8Te20Ge4,0.293456,,
Ti2Ge2Te12,0.382224,,
O16Na4Ge4Sn2H4,4.231725,,
Hg6Ge4K4S16,2.341502,,
Hg3Ge2S8K2,2.307583,,
Hg6Ge4Se16K4,1.737996,,
Ge8I8S12,3.213391,,
K2In2Ge4O12,3.755734,,
In4Ge8Sr8Li4,0.03817,,
Na2In2Ge4O12,3.802576,,
In4Ge4O14,2.476158,,
In2Ge2O7,3.494612,,
Pt1In6Ge2O9,2.393646,,
Ge4V6K2O18,2.742846,,
Zn2Ge4K4O12,4.427282,,
Pb2Ge4S12K4,2.919558,,
K8Ge8S20,3.347697,,
Se20Ge8K8,2.692996,,
Ge4K12O14,4.494221,,
La3Sb1Zn3Ge2O14,4.514265,,
Ge4Li2N6,3.931891,,
Ge8V4O24Li4,3.162003,,
S14Li8Ge4Mn2,3.278501,,
Sr3Ge2N6Li4,3.198679,,
Se6Ge2Mg1Na4,2.657952,,
Na2Mn2Ge4O12,2.234645,,
Sr4Mn2Ge4O14,3.17008,,
Ge4N4O2,4.005346,,
Na2Ge4N6,3.515186,,
Sr10Ge4N12,2.406583,,
Na2Ge4P6O24,5.67727,,
Ge4V2Na2O12,3.167561,,
Ge8S20Na8,3.49998,,
Na4Ge4Zn2S12,3.272574,,
Se20Ge8Na8,2.340977,,
Na8Ge8Se20,2.173515,,
Na4Ge4Zn2Se12,2.142119,,
Se10Ge4Na8,2.527019,,
Te10Ge4Na8,0.972803,,
Ge4S14Na12,3.544854,,
Na12Ge4Se14,2.491579,,
Ge4Rb12O14,4.487394,,
Os2Ge4,0.262971,,
Sr12Ge8P16,1.48758,,
Rb8Ge8S20,3.387251,,
Rb8Ge8Se20,2.409571,,
Tl8Ge8S20,2.799306,,
Ge2Te5Sb2,0.0918279999999999,,
Sr8Ge8Se20,1.827857,,
Tl8Ge8Se20,2.129129,,
Sr8Ge16,0.733377,,
Ir8Ge12Se12,1.242488,,
La8Ge6S24,2.920466,,
Ge12N16,2.567514,,
Ge6N8,3.263586,,
Ge12N16,3.387075,,
Ge6N8,3.195382,,
Na2Ge6P6,1.71611,,
Ge12Zn8O32,4.137579,,
O18Sb4Ge6,4.182847,,
Tl4Ti2Ge6O18,3.631555,,
Os16Ge24,1.281101,,
Rh8Ge12S12,1.118079,,
Rh8Se12Ge12,0.8843139999999999,,
Rh8Ge12Se12,0.8845689999999999,,
Ru16Ge24,0.7987339999999999,,
Ru8Ge12,0.651829,,
Sr3Ge12O27,4.642316,,
Ge16Se36,2.169188,,
Ir16Ge20,0.411554,,
Ge9Li4O20,4.382434,,
Ge34,1.207774,,
Ge12,0.78437,,
Ge2,0.153005,,
Ge2,0.137592,,
Ge4,0.089198,,
Li28N16H20,3.880477,,
Li6N4H6,3.433439,,
Zn7S2O18H10,5.115251000000001,,
Se2O16H20,3.717567,,
I4Sc2O12H22,4.733656,,
Mg1O6I8H12,2.211909,,
Sn1K2N6H12,3.78783,,
Te2N8H24Li2,2.25118,,
V1O10Li3H12,5.353499,,
Mg1O6N6H12,5.91089,,
Mg1S2O12H12,1.001465,,
Zn1Mn2O8N4H12,2.523326,,
Pd1O8N10H12,3.405577,,
Nb1O8N3H12,4.539136,,
Rb6N10H24,3.481815,,
Sn1Na2N6H12,1.902382,,
Ni1N6O4H12,1.611116,,
Rb2Sn1N6H12,3.821247,,
H18O12Se4Sn1Sr2,0.952906,,
Hg4O16N4H4,3.686936,,
Pb4I4O4H4,3.646994,,
Pb4I2O4H2,3.175821,,
I2Zn2O8H2,4.84814,,
In2O4H2,3.126592,,
In2O4H2,3.451175,,
In2O4H2,3.528905,,
In4O8H4,3.175336,,
In4O8H4,3.17249,,
In2O4H2,3.245862,,
Mn2P6K2O20H2,2.152829,,
Mn2K2P6O20H2,2.656236,,
Mn4K2P4O18H2,1.884577,,
K4Si8O20H4,6.911722,,
Se4V2K2O14H2,2.43976,,
K1H1,4.499724,,
K6Mo2S8O2H2,2.773133999999999,,
K6W2S8O2H2,3.278254999999999,,
La8O8H8,3.442448,,
La2O3Li1H1,3.216748,,
Li16N8H8,4.172506,,
Li8N4H4,3.732493,,
Li8N4H4,3.824397,,
Li8N2H2,2.988492,,
N2Li8H2,3.025591,,
Rb2Mn2P6O20H2,2.385273,,
Rb2Mn2P6O20H2,2.162761,,
Mn8O16H8,2.951965,,
Mn4O8H4,1.628888,,
Pb4Mn4V4O20H4,2.825804,,
Pb4Mn2V4O18H2,2.254243,,
Na8O16N8H8,4.395874,,
Zn4O16N4H4,3.656922,,
N2Zn4P4O16H2,3.744648,,
S24N8H8,3.843828,,
H4N4S28,3.841687,,
N4H4S32,2.9335400000000003,,
N20H20,5.571624,,
N16H16,5.466744,,
Pb4O18P2N4H2,5.059895000000001,,
P8N16H8,6.38152,,
Zn2N6O2H2,4.354353,,
N24H8,5.259836,,
Na4O4H4,3.426337,,
Na1H1,4.854205,,
O8H8,6.834356,,
Rb4S4O8H4,4.677011,,
Tl4P4O12H4,4.582641,,
Te8O24H8,3.431004,,
Ti4P4O20H4,4.151339,,
Zn8P4O20H4,5.175259,,
Zn8P4O20H4,5.176378,,
Pb4Zn4V4O20H4,3.841048,,
Rb10Si2O10H2,3.991565,,
Zn8Si4O20H4,4.068195999999999,,
Ti8V4O24H4,2.529354,,
Rb2Se4Zn4O14H2,5.604055,,
Sr4V6O18H2,3.035845,,
Rb1H1,3.883237,,
Y1Se1H1,2.278548,,
Si2H2,2.797096,,
Hg4I12K4O4H8,2.593345,,
Hg4Se4O20H8,3.03752,,
K4I4Se2O20H4,5.121913,,
K2I6O2H4,2.71521,,
Rb2I6O18H4,4.57275,,
S4N4O12K4H8,6.987208,,
K2N2H4,3.401245,,
Mn6V4K4O20H4,3.106925,,
Ru4K8O20H8,2.92772,,
N4O12Li4H8,4.50521,,
Li4Sr8H8N4,2.408727,,
H8Li4N4,4.962021,,
Mg2S4O16H4,5.28832,,
Mg2H4,4.838347,,
Mg4H8,4.704201,,
Mg4H8,2.806591,,
Mg4H8,3.290225,,
Mg8H16,3.078657,,
Mn2O4H4,3.178352,,
Mn2P2O10H4,2.938247,,
Mn2Se2O10H4,3.802944,,
Mn8S4O20H8,2.936696,,
Mn4S2O12H4,4.8947709999999995,,
Se12Mn12O40H8,3.998224,,
Na4N4H8,3.265329,,
Se6O24N6H12,3.632346,,
Sr4N8O20H8,4.111479,,
Ni6P4Na4O20H4,5.062004,,
Na6Os2O12H4,1.702603,,
Ni12Se12O40H8,4.468853,,
V4P4O22H4,2.787859,,
H2Ti6O13,4.08769,,
O12H24,7.275985,,
O12,3.185315,,
O10,0.138046,,
O12H24,7.310218,,
O2,0.019133,,
O4H8,6.8150509999999995,,
O12H24,7.365165,,
Pb4O8H8,3.527949,,
O8,0.024009,,
Se2O6H4,5.971007,,
Sr2O6H4,5.323964,,
V2O6H4,2.655158,,
Pb4Pd2O8H4,2.485969,,
Pb12O16H8,3.647071,,
Te4Sr4O16H8,5.251283,,
W4O16H8,1.679232,,
V4Se4O20H8,3.378842,,
Zn2Se2O10H4,4.614927,,
Zn8Si4O20H8,5.39204,,
O5V2H2,2.079879,,
Ti4S4O24H8,3.562981,,
H4Ti6O14,4.274611,,
Sn2P4O16H4,4.329352,,
Zn2Sr2P4O16H4,1.638165,,
Sr2P4O16H4,5.110356,,
Pb8S2O16H4,3.671211,,
Zn2Se4O16H4,4.684718,,
S8H16,4.554158,,
Si10H20,4.62111,,
Sr2H4,2.180285,,
Sr2H4,2.166843,,
Hg1I1O6H3,2.262554,,
I1Sr2H3,2.951741,,
I6N4H6,1.419238,,
K2Li4O6H6,4.579572,,
K1Mg1H3,3.496699,,
K4Si4H12,3.355669,,
La2P6O20H6,0.7908900000000001,,
La6V2O16H6,3.290699,,
P4N4O12Li4H12,6.275845,,
Li2O4H2,1.018738,,
Li1Sr1H3,2.646692,,
Lu6H18,0.347468,,
Sr2N1O6H3,4.600722,,
Pb4S8N12H12,2.693139,,
Y6H18,0.299315,,
Hg4P4O18H8,3.554693,,
Hg6S4O22H8,3.355377,,
I2O8N2H8,4.274342,,
I6O18N2H8,3.304714,,
Pb4I12N4H16,3.449756,,
I12N4H16,2.365233,,
K1V2P2O13H4,1.96276,,
V2K2O14H8,4.230575,,
K2Mn1Se2O10H4,1.575801,,
Mn3P4O12K2H4,5.652033,,
Os1K2O6H4,1.637119,,
Rb4Li4N8H16,3.663175,,
Mg8Ni4H16,2.483664,,
Mn2Na4S4O20H8,5.808194,,
Mn2Na4Se4O20H8,3.757296,,
V6O14N2H8,2.427024,,
V6O16N2H8,2.997811,,
S16N4H16,1.563968,,
Ni2N4O16H8,4.956644000000001,,
S8N12O2H8,3.149388,,
Ni1Na2Se2O10H4,1.741707,,
Na2Pt1H4,3.185769,,
Ti4P4O22H8,3.975522,,
H8Ti6O16,3.987621,,
Rh2P4O18H8,1.25986,,
Sb2K4O12H10,4.844933,,
O8N4H20,5.6828140000000005,,
Se2O6N2H10,5.815151999999999,,
V2Se4N2O14H10,2.473364,,
Hf1Na2O6H6,6.221697,,
Hg2I6N2H12O2,2.596929,,
I2O14Li2H12,0.5202829999999999,,
In2P4O12N2H12,5.474158,,
V2K2S2O18H12,4.188469,,
V2K2Se2O18H12,4.13278,,
Pb1K2O6H6,3.377501,,
Sc2K6O12H12,5.526069,,
La1P3O12H6,7.186293999999999,,
La2P6O12H12,7.026889,,
Li2Mn2O14H12,3.230619,,
Tc2O14Li2H12,5.041551,,
Li2Pt1O6H6,4.360514,,
Sn2O12Li4H12,2.432595,,
Pt1Li2H6,3.668216,,
H12Li8Os2,4.047019,,
H12Li8Ru2,3.911051,,
Se8Zn2N4H12,1.146119,,
Pd1N4H6O4,4.002078,,
Pt1N4H6O4,3.838888,,
Pd2N16H12,2.589829,,
Na2Pt1O6H6,4.347252,,
H12Na8Ru2,3.486448,,
V6O20H12,2.490021,,
O8,0.0608,,
V2P4O12H12,3.962531,,
Sr4Zn2O12H12,4.638295,,
V2Rb2S2O18H12,4.19264,,
V2Rb2Se2O18H12,4.133687,,
V2Tl2S2O18H12,3.756861,,
Os1Sr2H6,3.661344,,
H6Ru1Sr2,3.629575,,
Hg2Te2O14H14,3.538367,,
I2O20S2H14,4.282414,,
La2Ni10H14,0.922167,,
Sc2O20N4H14,2.9276,,
V2P2O10N4H14,3.915729,,
Re2I12N4H16,2.18695,,
K2N6H16,3.624445,,
Y2K2N8H16,4.249061,,
Zn2K4N8H16,3.366997,,
Zn1K2P4O15H8,2.674112,,
Na1Li3N4H8,3.157142,,
V4Mg1O14H8,3.220334,,
Sb8Mn4S16N16H32,2.205812,,
Tl2Mn1P4O16H8,5.386679,,
Mo2S4O4N4H16,2.894603,,
Zn1N10H8,5.306801,,
Rh1N8O12Na1H8,4.370029,,
Pt2N16H16O4,3.618958,,
Ni1P4O16H8Rb2,6.03496,,
Tl2Ni1P4O16H8,5.529896,,
Zn1P4O16H8Rb2,6.949019,,
Sr4Pt2O16H16,4.394793,,
Ne4He8,18.241823,,
He1,20.301832,,
He1,19.720338,,
Hf2I2N2,1.773484,,
Hf8I32,4.176141,,
Hf8I32,3.114761,,
Hf8I32,3.077503,,
La8Hf4S20,1.857254,,
La8Hf4Se20,1.448452,,
Hf2Mo4O16,4.018729,,
Hf1Ta1O3N1,2.908946,,
Hf2Ta2O6N2,3.990498,,
Sr1Hf1N2,1.17679,,
Hf2N4,1.469404,,
Hf4N8,2.227963,,
Hf4O4S4,3.925669,,
Hf4O8,5.474617,,
Hf8O16,5.759673,,
Hf2O4,6.117977,,
Hf1O2,5.236878,,
Hf4O8,4.813548,,
Pb1Hf1O3,3.53846,,
Pb8Hf8O24,3.842204,,
Pb8Hf8O24,3.764064,,
Hf4V8O28,3.735462,,
Hf2P4S12,3.249804,,
Pb4Hf4S12,2.032845,,
Tl4Pb2Hf2S8,1.4302039999999991,,
Pb2Tl4Hf2Se8,1.114778,,
Hf1Pd1Sn1,0.601437,,
Hf1S2,1.922823,,
Sn4Hf4S12,1.650854,,
Sr4Hf4S12,2.253613,,
Hf2S6,1.861348,,
Y8Hf4S20,2.054058,,
Hf1Se2,1.031217,,
Tl4Hf2Se6,1.082789,,
Hf2Se6,0.285387,,
Hf2Si2Te2,0.066712,,
Tl12Hf3Te12,0.7897400000000001,,
Hf2N2S1,3.12878,,
Hf2N2S1,1.722201,,
Hf6N8,1.976276,,
Hf6N8,1.981028,,
Hg4I4N4O12,3.489228,,
Hg2I4O12,4.038155,,
I16Hg8,1.811961,,
Hg2I4,1.541555,,
Hg8I16,1.821083,,
I32Hg16,1.912826,,
Tl8Hg2I12,1.943431,,
Tl8Hg2I12,1.933937,,
Tl4Hg4In4S12,2.171177,,
Hg2In4S8,1.268158,,
Hg1In2Se4,1.382639,,
Hg1In2Te4,1.117463,,
Hg4Sb4K4S12,2.402816,,
Hg1K2O2,3.436638,,
K8Hg4S8,3.105064,,
Hg1Sn1Se4K2,2.271235,,
P2K4Hg1,1.560765,,
Hg2S8K12,2.573333,,
K12Hg2Se8,2.153906,,
Hg2Mo2O8,3.096414,,
Hg4N4O8,3.121549,,
Hg8N8O24,4.152845,,
Hg4N24,3.181803,,
Hg4N24,3.515809,,
Hg2Na2P2O8,3.236768,,
Hg1Na2O2,3.161647,,
Na16Hg8S16,3.217809,,
P2Na4Hg1,1.586253,,
Hg1V2P4O14,2.255654,,
Hg4O4,2.376175,,
Hg3O3,2.473962,,
Hg8O8,2.386432,,
Hg3O3,2.448756,,
Hg1Rb2O2,3.460303,,
Hg1Sr1O2,3.788804,,
Hg3Sr3O6,3.787976,,
Hg4O8,1.753653,,
Hg1O2,1.487131,,
Hg4Se4O12,3.601682,,
Hg4Se4O12,2.929458,,
Hg4Se4O12,3.418463,,
Hg2Sn2O6,1.209426,,
Hg4Te4O12,3.255318,,
Hg2Ti2O6,2.745605,,
Hg2V2O6,2.824171,,
Hg4Re4O16,3.204516,,
Hg2S2O8,3.219226,,
Hg2S2O8,3.22648,,
Hg2Se2O8,2.466939,,
Hg2W2O8,3.439227,,
Hg4V8O24,2.912588,,
Hg2Pd2P4O14,3.367433,,
Hg4S8O28,4.335843,,
Hg2Pd4P4O16,2.478604,,
Hg2P2S6,2.762358,,
Hg4P4Se12,1.916191,,
Hg4Rb4Sb4Se12,1.788543,,
Hg1Te4Sn1Rb2,1.316132,,
Rb12Hg2S8,2.443026,,
Rb12Hg2Se8,2.08884,,
Hg1S1,0.313503,,
Hg3S3,2.479385,,
Hg3S3,2.485278,,
Tl2Hg1Si1Se4,1.518487,,
Tl2Hg1Sn1Se4,1.366624,,
Tl2Hg1Sn1Te4,0.57835,,
Hg3Te3,0.931215,,
Hg1Te1,0.133608,,
Hg6I3Na3O6,2.415537,,
Hg8I4O4,1.549273,,
Hg8Pb4I8S8,2.513756,,
Hg2I2,2.60976,,
Hg4I4,2.550404,,
Hg2I4,1.824321,,
Hg8Mo4O16,2.252265,,
Hg4Mo2O8,2.216197,,
Hg4Mo4O14,2.368939,,
Hg4Mo4O14,2.339056,,
Hg4Nb4O14,1.985513,,
Hg8Se4O12,2.809866,,
Hg8Se4O12,3.013414,,
Hg8Se4O12,3.008067,,
Hg4Te2O6,2.595047,,
Hg4S2O8,3.035179,,
Hg4Se2O8,2.265058,,
Hg4W2O8,2.438019,,
Hg8Re4O20,2.170193,,
Hg8Te4O20,1.589543,,
Hg4P4O14,3.054651,,
Hg4Ru4O14,0.091571,,
Hg4Sb4O14,1.241632,,
Hg2P2S7,2.789959,,
Hg2Sn1Se4,0.947482,,
Hg12I8S8,2.240367,,
Hg12I8Se8,2.023477,,
Hg12Se8I8,1.967167,,
Hg12I8Te8,2.079463,,
Hg6Sn4K4S16,2.179346,,
Na8Hg12S16,2.177525,,
Hg6Te4Se2O20,3.41312,,
Hg6Se6O20,3.461911,,
Hg6Se8O10,2.953693,,
Hg9S3O18,1.999941,,
Hg9S3O18,1.984547,,
Rb4Hg6Sn4S16,2.652063,,
Hg6Se8Rb4,2.043466,,
Hg12Te16Rb8,1.7884600000000002,,
Tl4Hg6S8,2.240844,,
Tl4Hg6Se8,1.85564,,
Hg8O16N4,2.522606,,
Hg8P4O14,2.619354,,
Hg8Si2S12,1.24905,,
Hg8Si2Se12,0.693068,,
Hg10Re4O20,2.353369,,
Hg6Si2O7,1.990584,,
Hg12P4O16,1.212545,,
Hg12P4O16,3.31207,,
Hg14P4O20,2.598621,,
H2,9.232045,,
I10Y6Ni1,0.946126,,
Pt1I10Y6,1.070098,,
W12I24,2.812467,,
Mo12I32,2.324943,,
Mo12I36,1.582768,,
In4Te4I4,2.480195,,
In2I2,1.90789,,
In12Te12I4,1.935302,,
K1Ni1I1O6,3.113573,,
K2I2O6,3.919394,,
I8K8O24,3.915396,,
K4I4O12,4.029463,,
K3I3O9,3.643067,,
I2K2O8,4.179447,,
K1I1,4.857818,,
K1I1,4.219684,,
I4K12O20,2.969304,,
La6I2Si4S16,3.586327,,
I2Mo2O12Li2,3.084951,,
Li2I2O6,0.018217,,
I2Zn2Li2O8,4.416437,,
I4O16Li4,3.927064,,
Li2I2,5.326637,,
Li1I1,5.25389,,
Li2I2,5.250297,,
Li12P2S10I2,3.346674,,
I4Sb4Se8Mn4,1.733776,,
Rb4Mo4I4O24,3.312067,,
Sr2N1I1,2.766638,,
Ti2N2I2,0.447187,,
I4Zn8N4,3.275114,,
Zr2I2N2,1.522307,,
Zr2N2I2,2.219979,,
Na1Ni1I1O6,3.062761,,
Na2I2O8,3.635324,,
Pb4I2Na2O12,3.917413,,
Pb2I1Na1O6,4.191582,,
Na2I2Sr4O12,4.305715,,
Na1I1,4.628271,,
Nb4O8I4,1.711057,,
Nb8Te24I4,1.03465,,
Rb18I6O6,1.640251,,
Sc4O4I4,3.149376,,
Tl3I3O9,3.589527,,
Pb8I4P4O16,3.779707,,
I2Rb2O8,4.29585,,
I2Tl2O8,2.996324,,
I4Rb12O20,3.630581,,
Rb2I2Pb2O12,2.721519,,
Rb2I2Sn2O12,3.827604,,
I2Sb10O14,3.321439,,
Zn4V2I2O14,3.813747,,
P12Se16I4,2.505195,,
I4Sr8P28,2.769442,,
Rb1I1,4.77049,,
Rb1I1,4.315356,,
Sb4S4I4,2.248861,,
Sb4S4I4,2.260185,,
Sb4S4I4,2.054866,,
Sb4Se4I4,1.986,,
Sb2Te2I2,1.236464,,
Sb2Te2I2,1.181683,,
I2Se4Tl10,1.218841,,
I4Tc12Se16,1.442841,,
Ta2Te8I2,0.4087849999999999,,
Te8I8,1.454209,,
Te8I8,1.411043,,
Te16I8,1.105272,,
Tl2I2,2.401583,,
I2Tl2,2.813869,,
Tl1I1,2.537098,,
Tl1I1,1.667114,,
Mo6Nb4I22O1,0.558538,,
K8I4O18,3.831403,,
La8I8Si4O16,4.601088,,
Mg1I2,4.5878309999999995,,
Mn4I8O24,3.506998,,
Mn1I2,3.315538,,
Mo12I24,2.584426,,
I8S4N8,2.5413,,
Na4O1I2,3.482649,,
Nb2O2I4,1.693433,,
Ni1I2,2.082508,,
I2S4O15,3.673653,,
Ta2I4O2,1.703729,,
Pb12O8I8,2.970735,,
I8O16,2.622872,,
I8O20,3.663802,,
Pb4I8O24,3.822206,,
Pb6Se4I4O12,3.619894,,
Pd4I8O24,2.835508,,
I4S2O12,3.044641,,
Ti2I4O14,3.438421,,
I4Rb2V2O16,3.892251,,
P16S12I8,2.727701,,
I8P16S12,3.07688,,
P16I8Se12,2.528835,,
Se12P16I8,2.806713,,
I6Pb3,3.154645,,
Pb5I10,3.15039,,
Pb7I14,3.146769,,
Pb10I20,3.141063,,
Pb2I4,3.179801,,
Pb3I6,3.152261,,
Pb4I8,2.456853,,
I30Pb15,2.452082,,
Pb1I2,2.469034,,
Pb1I2,2.301405,,
Pd2Te2I4,0.4760049999999999,,
Pd4I8,1.690469,,
Pt4I8,1.337213,,
Sn6I12,2.307698,,
Sr4I8,4.789167,,
Sr8I16,4.831567,,
V1I2,3.510757,,
I32Zn16,3.29829,,
Zn1I2,2.951653,,
Zn1I2,2.730087,,
Zr4I8,0.844541,,
I8Zr4,0.4478939999999999,,
Ir2Te12I6,1.329589,,
La2I6,2.95628,,
Tl4Mn4I12,3.08381,,
Mn4Sb6I6O10,2.767082,,
Mn6Sb10I6O18,3.160612,,
Nb2O2I6,1.362413,,
Nb4I12Se4,1.517944,,
I12Te4Nb4,1.269072,,
V4I6Rb2O26,2.526041,,
Tl2V4I6O26,2.376211,,
W4I12O4,0.777327,,
Tl2I6O18,3.095614,,
I6P2,3.098866,,
Rb4Pb4I12,3.575075,,
Tl2Pb2I6,2.874755,,
Pb8Sb4I12S8,2.483754,,
Sn4I12Rb4,3.060619,,
Rb6V6I18,3.701129,,
I12Rb4,2.609667,,
Rh2Te12I6,1.365976,,
Sb1I3S24,3.327303,,
Sn4Sb2S4I6,1.148424,,
Sb4I12,0.624879,,
Sb2I6,2.708569,,
Ti4I12,1.216448,,
I12Tl4,1.841403,,
I6Y2,4.027844,,
Li4In4I16,3.204895,,
Na4In4I16,3.339716,,
Rb6In6I24,3.488873,,
In8I16,2.406413,,
Mn6Sb4I8O8,2.944309,,
Nb4I16,1.115362,,
Nb8Te18I8O2,0.926915,,
I4O12,3.098903,,
Ta8I8Te18O2,1.025862,,
Ti8I8Te18O2,1.16085,,
P2I4,2.708614,,
Pt8I32,1.150805,,
Tl12I8S2,2.266902,,
Tl12I8Se2,2.214078,,
I32Si8,3.851037,,
Sn1I4,2.577358,,
Sn8I32,2.942779,,
Ta4I16,1.089517,,
Te8I32,2.533283,,
Te8I32,2.644924,,
Te8I8,1.409897,,
Ti4I16,1.944285,,
Tl4I8Zn2,3.735824,,
Zr4I16,2.561594,,
Zr6I24,2.620272,,
In2Pb4I10,2.520391,,
In2Sn4I10,2.083235,,
In12Sn4I20,2.603328,,
In12Sn4I20,2.678077,,
Ir2Te16I10,1.353583,,
K2Sn4I10,2.230023,,
Ru4I20K8N4O4,2.252748,,
La4I10,0.631294,,
Nb2I10,1.531528,,
Nb4I20,1.562408,,
Tl12Pb4I20,2.899436,,
Pb4Tl12I20,3.334275,,
Ta8I40,1.838115,,
Rb3In1I6O18,4.064329,,
In4I12,3.199548,,
K2I6Zr1O18,4.533508,,
Pt2I12K4,1.627948,,
Re2I12K4,2.242372,,
Tc2I12K4,1.875404,,
K4Te2I12,2.315011,,
Nb2Te8I12,1.465842,,
I6Rb2Zr1O18,4.526052,,
Tl4I6O18,2.565992,,
Tl8Pb2I12,3.017752,,
Pb5I6S2,2.470698,,
Rb8Pd4I24,1.622181,,
Pt1I6Rb2,1.237479,,
Pt8I24,0.8186800000000001,,
Sn1Rb2I6,0.7990769999999999,,
Rb4Te2I12,2.021512,,
Ru2Te14I12,1.417207,,
I12Sn8S2,1.876643,,
I6Si2,3.870406,,
I24Si8,3.77677,,
Tl4Te2I12,2.238679,,
Nb6Te2I14,1.264166,,
Nb3Te1I7,1.223386,,
Re6I14Te14,1.324712,,
Ta6Se2I14,1.246407,,
Ta6Te2I14,1.22306,,
Ta12I28,1.28502,,
Nb6I16,0.4924409999999999,,
Pt12I32,0.4410469999999999,,
Re6I18,1.296644,,
Pb6In10S21,1.60515,,
In1O2K1,3.438565,,
Te8In4K4O24,4.050979,,
K1In1P2S7,3.056974,,
K8In8S16,3.066471,,
In8Se16K8,2.381825,,
K2In2Te4,1.685757,,
In2P4K4Na2,1.766197,,
K8Na4In4Sb8,1.120002,,
In4Na12K8O16,3.339563,,
K4In2S14P4,2.947364,,
In4K12Na8O16,3.303822,,
K6In2P4,1.49515,,
O12In4La4,4.186304,,
La12In4S24,1.87253,,
In2Mo4Li2O16,3.876347,,
Li1In1Mo3O8,2.566813,,
In2Li2O4,3.200007,,
Li2In2Si4O12,5.211882,,
Li4In4S8,3.193232,,
In1Li1Se2,1.530664,,
In2Li2Se4,2.440582,,
In4Se8Li4,2.509652,,
Te4In2Li2,2.051972,,
Lu12In4S24,1.941781,,
In2Mn2O6,0.2454009999999999,,
In1N1Ni3,0.06091,,
In2N2,0.503533,,
In1N1,1.261036,,
In1N1,0.733057,,
In3Na3O6,3.359676,,
In1Na1S2,2.719779,,
In1Na1Se2,1.785538,,
Na2In2Te4,1.273205,,
In4Rb8Na12O16,3.314034,,
Na12In4S12,2.975243,,
In2Na10O8,3.200082,,
Na10In2S8,2.970545,,
Ni2In1Sb1O6,2.628873,,
In4Rh4O12,2.089507,,
Y6In6O18,3.285522,,
In2P2O8,3.920507,,
In4P4O16,4.344472,,
In2V2O8,4.243172,,
In2V2O8,2.655309,,
In4V4O16,4.074919,,
Sr4O12In2Os2,2.184183,,
Rh2Sr6In2O12,3.177291,,
Sb2In2Sr4O12,3.120456,,
Sr4In2Ta2O12,5.377624,,
In2Se4V2O16,2.891551,,
In1P1S4,3.291447,,
In1P1,1.116053,,
In2P2,1.192457,,
In1P1,1.116811,,
Tl2In2S12P4,2.421787,,
Tl2In2P4Se12,2.169105,,
Sr12In4P12,1.463006,,
Rb8In8S16,3.100748,,
Rb8In8Se16,2.418742,,
Te4In2Rb2,1.751417,,
Rb6In2S6,3.246685,,
In4S4,1.630529,,
In1Tl1S2,1.189845,,
Tl2In2S4,1.537139,,
Tl8In8S16,1.959128,,
In4Sb4S12,2.136958,,
Sc12In4S24,1.415684,,
Y12In4S24,1.919301,,
In1Sb1,0.012468,,
In2Sb2,0.021906,,
In4Se4,1.175394,,
In2Se2,1.037299,,
In4Se4,1.38066,,
In4Se4,1.094741,,
Se4In4,1.696787,,
Tl2In2Se4,1.266666,,
In2Si2Te6,1.061974,,
In4Te4,0.3181819999999999,,
Tl2In2Te4,1.096036,,
Li4In4Si2S12,3.087398,,
Li4In4Si2Se12,2.288208,,
Mg2In4S8,2.711211,,
Mn2Ni2In4O12,2.717298,,
In4Mn2S8,2.556762,,
In4Mn2Se8,0.21447,,
In2Mn1Te4,0.989026,,
In4Mn4O14,2.450996,,
Na4In4Si2S12,3.283771,,
In16O24,2.259514,,
In4O6,2.499135,,
In8O12,1.236996,,
O12In8,2.072202,,
In16O24,2.2649,,
O24In16,2.182356,,
Sr4In8O16,3.180887,,
In4P2O10,2.970201,,
Sr4In4O10,2.23332,,
In8Ti4O20,3.216998,,
In6Te3O18,2.493616,,
In4Si4O14,3.553181,,
In2Si2O7,4.277083,,
Sr2In4P4,0.872799,,
Sr6In4P8,1.253051,,
Pb4In8S16,2.096083,,
Rb8In4S10,3.001169,,
In4S6,1.179475,,
In16S24,1.883385,,
In2Zn1S4,0.956043,,
Zn2In4S8,2.174153,,
In4Zn2S8,0.909601,,
In4Zn2S8,0.927463,,
In2Zn1S4,0.921574,,
In4Zn4S10,0.726147,,
In2Zn2S5,0.726846,,
In2Zn3S6,0.656628,,
Sn6In4S14,0.989536,,
Sb12Sr10In4,0.5416529999999999,,
In2Se3,0.656955,,
In12Se18,1.185861,,
Zn1In2Se4,1.831105,,
Sr2In4Te8,1.53738,,