formula,bg,formation_energy,mp-id
Ag20F16C4,3.294992,,
Cs4Ag4Al4F24,2.143879,,
Ag2Al2O4,2.884742,,
Ag4Al4O8,2.390096,,
Al1Ag1S2,2.835937,,
Ag2Al2S4,3.055806,,
Ag2Al2Se4,2.166235999999999,,
Ag2Al2Te4,1.838293,,
Ba2Ag2As2,0.5201560000000001,,
Ca3Ag3As3,0.1618669999999999,,
Cs4As2Ag2S8,2.587537,,
As2Xe4Ag2F20,3.551059,,
Ag2Se6As2F12,2.687754,,
Ag2Hg2As2S6,1.97659,,
Hg8O16Ag4As4,1.692346,,
K4Ag2As2,1.734808,,
Na4Ag2As2,1.229253,,
As4Pb4Ag4S12,1.935167,,
Ag4As4S4,0.476823,,
Ag6As6S12,2.332249,,
Ag4As4Se4,0.077651,,
Ag1As1Se2,0.324715999999999,,
Sr2Ag2As2,0.350938,,
Ag2Cu8As6O24,3.04123,,
Ag2As6O18H4,2.250247,,
Au2Ag2Ba8O12,2.980427,,
Ag2Au2Cl8,2.014716,,
Au1Ag1Cs2Cl6,1.507505,,
Ag2Au2F8,2.520362,,
Au2Ag2Te8,0.021204,,
Ag2Au4F16,2.060208,,
Au6Ag2Rb4I16,1.360323,,
B12O20Ag4,3.945052,,
Ba2F2Se2Ag2,2.234553,,
Ag2Ba2F2Te2,2.348404,,
Ba2Ag2La2Se6,2.326826,,
Ba2Ag2P2,0.710516,,
Ba4Ag4Sb4S12,2.064838,,
Ba2Ag2Sb2,0.519553,,
Ag2Ba2Y2Se6,2.136067,,
Y2Ba2Ag2Te6,1.429816,,
Ba8In4Ag4S16,2.643217,,
Cs2Bi1Ag1Br6,2.162012,,
Ca2Ag2Bi2,0.236947,,
Bi2Ag2Cl4S2,1.995081,,
Cs2Bi1Ag1Cl6,2.849919,,
Ag1Bi1Cr2O8,2.357544,,
Ag1Bi1Cr4O14,3.013278,,
K4Ag2Bi2,1.203609,,
Bi4W8Ag4O32,3.797539,,
Bi2Ag2P4S12,1.97762,,
Bi2Se12P4Ag2,2.077407,,
Ag3Bi3S6,1.090961,,
Ag1Bi1Se2,0.427797,,
Bi4Ag2Cl2S6,1.484521,,
Bi4Ag2Cl2Se6,1.103107,,
Ag1Bi2F12,2.450174,,
Bi6Ag2S10,1.012792,,
Mo12Br26Ag2,3.111447999999999,,
Ag2Br2N2H6,3.95534,,
Hg4Ag4Br4S4,2.331397,,
Ag2Pb2O2Br2,1.068393,,
Ag1Br1,2.013035,,
Cs2Ag2Br4,3.329071999999999,,
Cs2Ag2Br4,3.096206,,
Cs8Ag4Br12,4.042447,,
Rb8Ag4Br12,3.950965,,
Pb4Br10Ag2,3.050442,,
Ag2S2O6F6C2,4.554208,,
Ag4C4N8H12,3.381309,,
K4C4O12Ag4,3.740377,,
Ag2C2N2O2,3.649499,,
Ag6C6N6O6,4.259021,,
Ag2N2C2O2,2.543806,,
Ag4S4N4C4,3.82678,,
Ag4S4C4N4,3.680051,,
Ag1C1N1,4.286318,,
C4O8N12Ag4,3.704054,,
Ag2N4C4Cl4Sb2F12,4.484769,,
Ag2Cs2C4,3.472215,,
Pb4Ag4S4C8N8O4H4,2.160618999999999,,
Ag1K1C2,3.371901,,
Ag1Li1C2,2.280355,,
Ag2Na2C4N4,3.766462,,
Ag8O16C16,2.428664999999999,,
Ag4Co4C16O16,3.537611,,
Ag2C8N6,4.67318,,
Ag2Cs4Zn2S10C10N10,4.333575,,
P3Ca3Ag3,0.191869999999999,,
Ag4Ca4Sb4,0.367644,,
Ag4V4Cd4O16,3.433337,,
Ag2Cd4Ga2S8,2.092385,,
Ag2Cl2O4,2.202747,,
Ag4Cl4O8,2.182708,,
Ag4Cl4O12,4.20993,,
Ag2Pb8O8Cl2,3.194673,,
Ag1Cl1O4,4.604647,,
Ag4Cl4O16,4.923812,,
Ag1Cl1O4,4.446148,,
Ag1Cl1,2.405207,,
Ag2Cl2,2.408414,,
Ag2Cl2,1.824397,,
Cs2Ag2Cl4,3.729877,,
Cs2Ag2Cl4,3.657946,,
Cs2Ag2Cl6,0.021304,,
Ag4Rb8Cl12,4.404322,,
Ag2Co2O4,1.440709,,
Ag8Co8P8O32,3.413494,,
Ag1Cr1O2,2.899923,,
S12P4Cr2Ag2,1.938362,,
Ag1Cr1S2,1.482975,,
Cr2Ag2Te4,0.193408999999999,,
Ag1Sc1Cr2O10H4,2.302291,,
Ag2Cr6O16,1.94489,,
Cs4Ag4O4,2.74904,,
Ag2Cs2N4O12,4.439147,,
Ag4Cs4O4,2.732304999999999,,
Ag4Cs4O4,2.745141,,
Cs4Ag4Se12P4,2.313418,,
Cs4Ag4Se16,2.052412,,
Ag2Cs4F8,2.345506,,
Cs2K1Ag1F6,2.764934,,
Cs8Ag4I12,3.746489,,
Cs4Ag2Nb2S8,3.142943,,
Cs4Ag2Nb2Se8,2.645324,,
Cs4Sb2Ag2S8,2.491449,,
Cs4Ag2Ta2S8,3.511571,,
Cs4Ag2V2S8,2.204025,,
Cs10Ag2Si6O18,4.322567,,
Ag8Cu8F24,3.753581999999999,,
Ag4Cu4P4O16,2.157499,,
Ag4Cu4V4O16,2.666034,,
Ag2Cu2S2,1.282232999999999,,
Ag2Cu2S2,1.251828,,
Ag4Cu4S4,1.399464,,
Ag2Cu4S8P2,2.390277,,
Xe4Ag2P2F20,2.044617,,
Na1Ag1Zr2F11,2.957515,,
Ag1Pd1Zr2F11,2.780484,,
Ag1Sb2F12,2.81117,,
Ag1Ta2F12,3.190341,,
Sr2F2S2Ag2,2.312078,,
Sr2F2Se2Ag2,2.039965,,
Sr2F2Te2Ag2,2.138427,,
Ag1F1,1.25455,,
Ag1Zn1F3,3.579519,,
Ag2Mn2F8O8H16,1.751207,,
K2Ag2F8,3.719233,,
K4Ag2F8,2.897303,,
Na2Ag2F8,3.337537,,
Ag4Na8F16,2.949394,,
Ag2Pd2F12,2.197446,,
Ag4Sb4F24,3.538918,,
Ag1Sn1F6,2.664888,,
Ag1Ti1F6,2.322284,,
Ag4Ir4F28,1.480644,,
Xe2F18Ag2,3.132798,,
Ag2Fe2O4,2.241361,,
Ag4Fe4O8,2.342042,,
Ag4Fe4O8,2.479446,,
Ag2Fe2O4,2.255681999999999,,
Ag4Fe4Se8O24,2.936438,,
Ag2V4Fe2O14,2.427155,,
Ag1Fe2Ga1Te4,1.991083,,
Ag4Fe8S12,0.6428459999999999,,
Ag4Fe8S12,2.184133,,
Ag4Ga4O8,1.653232,,
Ag2Ga2Se12P4,1.390136,,
Ag2Ga2S4,1.9857969999999991,,
Ag2Ga2S4,2.036564,,
Ag2Ga2Se4,1.236867999999999,,
Ag2Ga2Te4,0.904909,,
La6Ag2Ge2S14,2.888123,,
Ge4Ag2S14Na10,2.80012,,
Ag2Ge4P6O24,4.168306999999999,,
Ag4S8O16Na4H8,3.243006,,
Ag4V4O16H8,3.103427,,
Mo1Ag1S4N1H4,1.972149,,
W1Ag1S4N1H4,2.431259,,
Rb2Ag2Hf2Te6,0.744525,,
Hg4Ag4I4S4,2.157059,,
Hg4Ag4I4S4,2.291369,,
Hg4Ag4V4O16,2.638469,,
Ag4Hg8N4O20,1.844451,,
Hg8Ag4P4O16,2.229886,,
Ag2Hg6Sb2O12,1.863856,,
Ag8I8O24,3.691648,,
Ag8I8O24,3.214058,,
Ag2I2O8,1.011294,,
Se12I4Ag4,2.249577999999999,,
Te12I4Ag4,1.621149999999999,,
Ag1I1,2.488344,,
Ag4I4,2.510047,,
Ag2I2,2.456006,,
Ag1I1,0.98908,,
Ag2I2,1.808148,,
Ag1I1,1.81418,,
I2Ag2,2.524868,,
Tl2Ag2I4,2.249163,,
K8Ag4I12,3.666546,,
Ag2Pd2I6O18,2.804656,,
Rb8Ag4I12,3.666182,,
Ag3I9Tl6,3.189507,,
Tl12Ag4I20,1.798261,,
Ag3In3O6,1.407334,,
Ag2In2W4O16,2.118964,,
Ag2In2P4S12,2.088778,,
Ag2In2P4Se12,1.387156,,
Ag2In2S4,1.2639,,
In1Ag1S2,0.877934999999999,,
Ag4In4S8,1.433709,,
Ag2In2Se4,0.73799,,
Ag2In2Te4,0.7147069999999991,,
Ag1In5Se8,1.059729999999999,,
Ag1In5Te8,0.912684,,
Ag4K4N8O24,4.197526,,
K4Ag4O4,2.805628,,
K4Ag4O4,2.803897,,
K4Ag4O4,2.809626,,
Ag4K4P8O24,4.693617,,
Ag2K2Se2,1.368491,,
K4Ag2Nb2S8,3.03595,,
K4Ag2P2,1.845227,,
K8Ag4Sb4S16,2.074138,,
K4Ag2Ta2S8,3.379195,,
Ag2V2S8K4,2.279966,,
K4Ag2Sb2,1.732412999999999,,
K4Ag2V2Se8,1.874215,,
K6Se16Sn6Ag2,1.96219,,
La2O2S2Ag2,2.473914,,
Ag2La2Ti2O8,3.057938,,
La6Ag2S14Si2,2.875283,,
Ag1Li2Sb1,0.8709910000000001,,
La6Sn2Ag2S14,2.881473,,
La6Ag2Si2Se14,2.443941,,
La6Se14Ag2Si2,2.493373,,
La6Sn2Ag2Se14,2.04707,,
Ag1Lu1O2,3.50209,,
Ag4Lu4Se8,2.075283999999999,,
Ag4Mg4V4O16,3.551923,,
Mg8Ag8Sb8,0.360094999999999,,
Ag8Mn8P8O32,3.305978,,
Ag4Mn4V4O16,3.040452,,
Ag4Mn4O16,1.069216,,
Ag1N1O2,3.325447,,
Ag8N8O24,3.669108,,
Ag8N8O24,3.645899,,
Ag1O3N1,3.623656,,
Ag2O6N2,3.468997,,
Na2Ag2N4O8,4.027926,,
Ag4Rb4N8O24,4.247861,,
Ag2N6,2.713634,,
Ag2N6,2.775649,,
Ag4Na4O4,2.402114,,
Ag4Na4O4,2.354542,,
Ag4Na4S8O12,3.95316,,
Na4Ag2Sb2,1.108,,
Na6Ag2O4,2.306442,,
Na6Ag2S4,3.272071,,
Ag8Nb8O24,2.936949,,
Nb8Ag8O24,2.9403289999999997,,
Nb4Ag4O12,2.052807,,
Nb1Ag1O3,2.606289,,
Rb4Ag2Nb2S8,3.090945,,
Nb2Rb4Se8Ag2,2.57987,,
Ag2Nb6O16,2.848962,,
Ag4Rb4O4,2.71851,,
Ag4Rb4O4,2.715988,,
Ag8O8,0.856,,
Ag4O4,0.818282,,
Ag1Rh1O2,2.109262,,
Ag1Sc1O2,3.533055,,
Ag8P8O24,3.788802,,
Ag2Sb2O6,1.585515,,
Ag4Sb4O12,1.672013,,
Ag2Ta2O6,3.15123,,
Ag2Ta2O6,3.163197,,
Tl4Ag4Te4O12,3.362494,,
Ag8Te8O24,2.654460999999999,,
Ag8V8O24,2.984402,,
Ag8V8O24,2.386002,,
Ag4Zn4P4O16,3.558443,,
Re2Ag2O8,3.077374,,
Ag2Tc2O8,2.925856,,
Ag4Se4V4O20,1.564451,,
Te4Ag4V4O20,3.214169,,
Ag4Tl4V8O24,3.206957,,
Ag2P30,1.774323,,
Ag2Rb4S8P2,3.297518,,
Ag2S6P2,2.2778259999999992,,
Ag4Zn4P4S16,3.366781,,
Ag2Sr2P2,0.8444249999999991,,
Ag2Sc2P4S12,3.090082,,
Ag2Se12Sc2P4,2.492782,,
Se6Ag1V1P2,1.161688,,
Ag4P8,1.378546,,
Pb4Ag4Sb4S12,1.557504,,
Rb4Ag4Se16,1.949364,,
Rb8Ag4Sb4S16,2.45492,,
Rb4Ag2Ta2S8,3.462573,,
Ag2V2S8Rb4,2.296546,,
Rb4Ag2V2Se8,1.753126,,
Sn6Ag2Se16Rb6,2.013179,,
Tl4Ag4S4,0.5895619999999999,,
Ag4Sb4S8,2.070761999999999,,
Ag4Sb4S8,2.054733,,
Ag4Sb4S8,2.060182999999999,,
Ag2Ta2S6,0.415099,,
Ag2Ta2S6,0.416126,,
Tl8Ag4Ta4S16,2.736992,,
Sc1Ag1Se2,1.546012,,
Ag4Sc4Se8,1.678019,,
Tl4Ag4Se4,1.069677,,
Ag4Y4Se8,2.074443999999999,,
Ag4Tl4Te4,1.117518999999999,,
Tl12Ag4Te8,0.818936,,
Y2Ag2Te4,1.525024,,
Bi4Ag4S6Al4Cl16,2.785359,,
Cs4Ag8As4S12,2.533825,,
Ag2As1K1O4,1.711205,,
Ag4As2V2O12,2.385534,,
Ag16As8S16,1.314572,,
Ba2Ag4Cu2V4O16,2.851663,,
Ba1Ag2Ge1S4,1.633857,,
Ba1Ag2Ge1Se4,0.962017,,
Ba2Ag4Hg4O8,2.105166,,
Ag2Ba1Mn1V2O8,3.400922,,
Ba1Ag2S2,1.939344,,
Ba1Ag2Sn1S4,1.366827,,
Ba1Sn1Ag2Se4,0.8625689999999999,,
Ba4Ag8Te8,1.359283999999999,,
Cs4Bi4Ag8S12,1.683501,,
Ag8Bi4O12,1.129547,,
Ag8Bi4O12,1.186643,,
Bi8Ag8Cl8S12,2.501266,,
Ag8Br4N4O12,3.176511,,
Hg7Br6Ag2P8,1.445563,,
Ag8N8C4,2.184969,,
Ag4O6C2,1.957255,,
Ag12C6O18,2.225142,,
Ag4C4O8,3.823517,,
Ag4C4O8,3.865693,,
Ag4Cu2Cs2N8C8,3.606686,,
Ag4Cu2K2N8C8,3.363005,,
Ag4Cu2Rb2N8C8,3.600362,,
Ag4Fe2C10N12O2,2.767057,,
Ag4Ca2V8O24,2.8726,,
Ag4Cd2Ge2S8,1.578331,,
Ge4Cd4Ag8S16,1.824434,,
Ag2Cd1I4,2.886769,,
Ag8Cl4N4O12,3.296601,,
Pd2Ag4Cl8,2.4244,,
Ag8Cr4O16,2.153293,,
Ag4Cr4O14,2.263689,,
Cs4Ag8I12,3.314453,,
Cs4Ti2Ag4S8,2.204082,,
Cs2Ag2Zr1Te4,2.062371,,
Cs6Sb6Ag4S16,1.841762,,
Ag4Cu2N8O24,2.978371,,
Ag4Cu4O6,2.049534,,
Ag2Zn1Zr2F14,0.8572500000000001,,
Ag4I2F2O2H4,2.51476,,
Ag8P4O12F4,2.777439,,
Ag2K1Fe1V2O8,2.867273,,
Ag2Rb1Fe1V2O8,2.907763,,
Ag4Si2Fe2S8,2.655924,,
Ag4In4Ge2S12,1.936037,,
Ag4In4Ge2Se12,1.281025,,
Ge2Ag4K4S8,2.646125,,
Ge2Se8Ag4K4,1.880177,,
Ag8Ge4O12,1.239655,,
Ag4Zn2Ge2O8,1.825308,,
Pb2Ag4Ge2S8,2.282968,,
Ag4Ge2Rb4S8,2.954077,,
Ag4Ge2S6,1.402822,,
Ag6P3O12H3,2.874943,,
Ag4Li2P6O20H4,4.306001,,
Ag2I1O6H3,2.365721,,
Te2Ag4O12H8,2.127276,,
Pd2Ag4S4O12N4H12,3.173364,,
Hf4Ag8S12,1.9750549999999991,,
Hg2I4Ag4S2,2.213423,,
I4Hg1Ag2,2.153297,,
Hg1Ag2I4,1.999088,,
Hg4Ag8O8,1.309485,,
Hg2Ag4S4,1.336486999999999,,
Ag4Hg2Sn2Se8,0.533597,,
Hg4Te6Ag4O24,1.19755,,
Hg7I6Ag2P8,1.305034,,
Ag4Zn2I8,3.174983,,
Ag2Ti1I6O18,3.640956,,
Ag4In4Si2S12,1.996988,,
Ag4In4Si2Se12,1.353568,,
Ag4Nb2Se8K2,2.146425,,
Ag2K1P1S4,2.339999,,
Sb4Ag8S12K4,2.575568,,
K1Ag2Sb1S4,1.610489,,
Ta2Ag4Se8K2,2.454055,,
Ag4Sn2Se8K4,1.645592,,
Ag2La2Ti3O10,3.104871,,
Ag4Sr2Mn2V4O16,2.90992,,
Te8Ag4Mo2O24,2.915628,,
Mo2O8Ag4,3.490969,,
Mo4Ag4O14,2.591079,,
Ag2Mo3Te3O16,3.03254,,
Nb8Ag4O22,3.42029,,
Ag4Nb8O22,3.366296,,
Ag4Nb8O22,3.704959,,
Ag4Nb8O22,3.703001,,
Ag4Ta8O22,4.100783,,
Ag4Te8O22,1.870719,,
Ag4V8O22,1.585619,,
Ag4Sr2V8O24,3.045519,,
Ag4O2,1.121675,,
Ag8Pb4O8,2.102152,,
Pd1Ag2O2,1.145458,,
Ag4O4,0.7162400000000001,,
Ag4O4,0.846208,,
Ag8S4O12,3.5437,,
Ag8Se4O12,3.122742,,
Ag8Si4O12,2.182569,,
Te4Ag8O12,3.109046,,
Ag8Ti4O12,2.545708,,
Ag4O6,1.776609,,
Ag4S2O8,3.031638,,
Ag4Se2O8,1.84802,,
Ag4Zn2Si2O8,2.269231,,
Ag4V2P2O12,2.678355,,
Ag4Sb4O12,1.675186,,
Ag4Te4O12,2.494537,,
Ag8Te8O24,2.601691,,
Pb2Ag4P4O14,4.033985,,
Pd2Ag4P4O14,3.04552,,
Ag4S4O14,4.323809,,
Ag4Te4O14,0.28418,,
W4Ag4O14,2.614495,,
Rb3Ag6Sb3S12,1.640306,,
Ag8S4,2.04097,,
Ag8S4,0.245883,,
Ag8S4,1.96479,,
Ag8S4,2.197685,,
Ag4S2,1.677959,,
Ag8Si4S12,2.470208,,
Te2Ag4S6,2.131638,,
Ag4Si2Zn2S8,2.919359,,
Zn1Sn1Ag2S4,1.217172,,
Ag8Se4,0.180829,,
Ag8Se4,0.08121,,
As2Ag6O8,1.065766,,
As2Ag6S6,1.953894999999999,,
Ag12As4S12,2.530116999999999,,
As2Ag6S8,1.327752,,
Ag6As2Se6,1.433043999999999,,
K3Ag3As2,1.815478999999999,,
Ag12Au4Se8,0.8922460000000001,,
Ag12Au4Te8,0.6295589999999991,,
Ag12B4O12,2.194885,,
Ag12S4Br4,1.005146,,
Ag6S2O12N6C2,3.528516,,
Cd1Ag3Rb1N6C6,3.94695,,
Ag3Fe1C6N6,2.263035,,
Ag3Mn1K1N6C6,3.439095,,
Ag3C6N6K2Na1,3.829615,,
Ag3K2Na1C6N6,3.900177,,
Cs2Ag6S4,1.376493999999999,,
Ag6Cr2O8Cl2,2.181977,,
Sb3Co6Ag9O18,1.48577,,
Ag6Cs2Se4,1.024015,,
Ag12Cu4S8,1.02206,,
Ag12Cu4S8,1.946705,,
Ag6Hf4F28,0.8450500000000001,,
Ag3Na3W2O6F6,3.915562,,
Ag6F16,2.302602,,
Ag6Fe2V4O16,2.487261,,
Ag6Ge6Sn4P12,0.4882789999999999,,
Ag6Ge10P12,0.914798999999999,,
I1S1Ag3,1.518287999999999,,
S1I1Ag3,1.669996,,
In1Ag3P2O8,2.877482,,
In4P6O24Ag6,2.686521,,
Ag12K4S8,2.277803999999999,,
Ag6Se4K2,0.756635,,
K2Ag6Te4,0.886081,,
Ag6Nb4K6S16,2.837173,,
Ta4Ag6K6S16,3.194718,,
Ta4Ag6Se16K6,2.669727,,
Li2Ag6O4,1.841594,,
Ag12S4N4O12,2.461094,,
Ag6Se2N2O6,1.719867,,
Ag6N10O12,3.565115,,
Na2Ag6O4,1.799447,,
Ag12S8Na4,1.897288,,
Ag6Tl4P6O24,1.273395,,
Ag6P2O8,1.743059,,
Ag12Sb4O16,0.966061,,
Ag3V1O4,2.089914,,
Ag12V4O16,2.109137,,
Ag6P22,1.425984,,
Ag6P2S8,2.205975,,
Ag6P2Se8,1.312479999999999,,
Y2Ag6P4S16,2.985139,,
Ag6Sn4Si6P12,0.460209,,
Sn2Ag6P14,1.085343,,
Rb2Ag6S4,1.213491,,
Rb2Ag6Se4,0.841507,,
Rb2Te4Ag6,0.953419,,
Tl4Ag12S8,1.633434999999999,,
Sb2Ag6S6,1.716923,,
Sb4Ag12S12,2.233298999999999,,
Ag8Cd2Ge4S14,1.645217,,
Ag16Ge4O16,1.007318999999999,,
Ag8Hg2Ge4S14,1.404802,,
I4Ag16P4O16,1.837878,,
K4Ag8S6,0.9070299999999992,,
K4Ag8Se6,0.6850710000000001,,
Mn2Sb4Ag8S12,2.143973,,
Ag16S4O8N8,1.981923,,
Te4Ag16S4O16,1.672023,,
Ag8Si2O8,1.806865,,
Ag16Te4O20,0.805698999999999,,
Ag8P4S14,2.794485999999999,,
Rb4Ag8S6,0.954294,,
Ag10Cu2As6O22,1.923583,,
La1Ba2Ag5S6,2.328891,,
Y1Ba2Ag5S6,2.316321,,
Bi4Ag20O16,2.390619,,
Ag5P1S4Cl2,2.535568,,
Hg4Ag5P8Cl5,2.033874,,
Cs4Se12Ag20,0.53034,,
Cs4Te12Ag20,0.56511,,
Ag20Ge4O16,1.671092,,
Ag10Hg2Sb2O12,0.572211,,
I2Ag10O12,1.033536,,
Ag10O8P2Se2,1.367863,,
Ag10O8P2Te2,1.377387,,
Ag20Si4O16,1.451024,,
Sb2Ag10S8,1.5964809999999992,,
Ag6Mo2Cl1F3O7,3.122620999999999,,
Ag12Cr2Si2O16,0.737362,,
Ag12S2Ge2O16,0.698811,,
Ag6O2,0.1072539999999999,,
Ag12Si4O14,1.332624,,
Ag12S2Si2O16,1.03198,,
Ag7Zr6F31,4.836982,,
Ag14Ta2S12,1.687763,,
Ag16Ge2Se12,0.671720999999999,,
Ag16Sn2Se12,0.757444,,
Ag9I1Ge2O8,0.554334,,
B1Al3N4,4.636373,,
Ba10Al6F38,9.118025,,
Cu4Al4As4O20,4.159026,,
Al1As1,2.153336,,
Al1As1,2.153546,,
K4Na2Al2As4,1.773953,,
Mo2As2Al1Li3O14,4.00795,,
Na6Al2As4,1.593172999999999,,
Ba12Al4As12,1.248015,,
Ca12Al4As12,1.311858,,
As6S10Al2Cl8,3.248365,,
Sr12Al4As12,1.590066,,
Na6Ca6Al2As8,1.552175,,
Li2Al2B28,1.928283,,
Ba2Al2F4O6B2,7.924356,,
Ba2Al2F4B2O6,7.612058,,
Ba1Al1Ge1D1,1.132928,,
Ba1Al1Si1D1,1.134707,,
Ba4Al4D20,3.621291999999999,,
Ba8Al4D28,3.8889739999999993,,
In4Ba8Al4O20,3.35289,,
Ba12Al4P12,1.308713999999999,,
Ba12Sb12Al4,0.983476,,
La6Al2Be2S14,3.035312,,
Bi2Al2Br12,3.565077999999999,,
Bi4S4Cl16Al4,3.758032,,
Bi4Se4Cl16Al4,3.431199,,
Bi4Te4Cl16Al4,2.865216,,
Bi6Al6O18,3.959969,,
Bi4Br2Se4Al2Cl8,1.893011,,
Bi8Te8Br4Cl16Al4,1.516246,,
Te8Sb8Br4Cl16Al4,1.133175,,
Br2Al2O8H12,6.234452,,
Al4Br12S4N4,2.706231,,
Br12Se4Al4N4,2.645221,,
Al4Br12,5.270942,,
Cu2Al2Br8,3.820556,,
Se2Br14Al2,3.155131,,
Al2Nb2Br16,2.508346,,
Sc2Al2O2C2,1.229167,,
Sc2Al2O2C2,2.221806,,
Cl4Al2N2C6H16,6.598181,,
Ca1Al1Si1D1,0.829923,,
Ca4Al4N8Li4,4.019538,,
Al1Ca2S2F2Cl1O12H8,7.135643,,
Ca4Al2F14O2H4,8.893557999999999,,
Ca12Al4N12,3.558871,,
Na6Ca6Al2Sb8,1.002877,,
Sb12Ca12Al4,0.794598,,
Cd2Al2Cl8,3.382704,,
La6Cd2Al2S14,3.42489,,
Al2Ce2O6,3.307839,,
Ce2Al2O6,3.658954,,
Cl2Al2O8H12,6.964871,,
Al4Cl12,6.728762,,
Cu4Cl16Al4,4.527765,,
Cu2Al2Cl8,4.380047,,
S8N4Al4Cl16,3.119265,,
S8N8Al4Cl16,2.212489,,
Sb8Se8Al4Cl16,1.71287,,
Sb10Se10Al2Cl8,1.832722,,
I2Al2Cl12,3.452698,,
I12Cl24Al4,2.690537,,
N4S8Cl24Al4,2.883206,,
S2Cl14Al2,3.989362,,
Se2Cl14Al2,2.987178,,
Nb2Al2Cl16,3.208821,,
La6Cr2Al2S14,0.8583259999999999,,
Cs4Cu4Al4F24,4.479097,,
Al4D16Cs4,6.028108,,
Cs2Al2F8O4H8,8.472137,,
Cs4Pd4Al4F24,3.669237,,
Cs2Al2N8H16,4.57866,,
Te12Cs4Al4,2.067242,,
Al2Na2Cs4F12,8.961626,,
Te12Cs12Al4,2.921594,,
Cs12Al2Sb8K6,1.25775,,
Cs12Al2Sb6,1.044227,,
K4Cu4Al4F24,4.563502,,
Cu1Al1O2,3.355023,,
Cu2Al2O4,3.423551,,
Cu2Al2O4,3.502186,,
Cu2Al2S4,3.038984,,
Cu2Al2Se4,2.083205,,
Cu2Al2Te4,1.880803999999999,,
Sr1Al1Ge1D1,1.12663,,
Sr1Al1Si1D1,1.080394,,
Al4D12,4.214296,,
Li4Al4D16,5.312943,,
Na2Li1Al1D6,3.787144,,
Al1F3,9.697908,,
Al6F18,9.874797,,
Al3F9,9.7954,,
Al2F6,10.022585,,
Al2F6,10.05277,,
Al16F48,9.688452,,
Al10F30,9.75373,,
Mn4Al4F20,6.107873,,
Al4Mn4F20,6.13301,,
Al1Li1K2F6,9.646736,,
K2Al1F6Li1,9.644356,,
K2Al1Na1F6,9.111691,,
Na4K8Al4F24,9.147908,,
Li2Pd2Al2F12,3.994774,,
Rb4Pd4Al4F24,3.584157,,
Na4Mg2Al2F14,8.969127,,
Na4Mg2Al2F14,8.967614,,
Na4Mg2Al2F14,8.97024,,
Na4Mg2Al2F14,8.971328999999999,,
Pb6Al2F18O2H4,6.092047,,
Fe8Al8O24,3.615348,,
Y6Fe2Al2S14,3.137348,,
Al1V1Fe2,1.220552999999999,,
Li1Al1Ge1,0.464919,,
Si4Al2O14Li2H2,5.371637,,
Al2S2O10H2,7.727687,,
Al1Sr1H3,0.364076,,
Al2H6,3.579317,,
Al4Li4H16,5.572689,,
I2Al2O8H12,5.464676000000001,,
Li2Al2K4H12,3.612717,,
La1Al1H6,3.3587689999999992,,
Al2Na6H12,3.987738,,
K2Al2N8H16,4.540174,,
Al4I12,4.197041,,
Sb2Al2I12,2.916677,,
Te2I14Al2,2.587967,,
I32Al4P4,2.253915,,
Al6In6Se18,1.119626,,
Al4K4O8,5.287889,,
Al2K2O4,4.486168,,
K4Al4Sb16,0.8585179999999991,,
K2Al2Te4,2.483835,,
K4Li2Al2P4,2.684185,,
K4Na2Al2P4,2.329582,,
K6Al2O6,4.239724,,
K12Al4Se12,3.340181,,
K12Al4Te12,2.9016070000000003,,
K12Al2Sb8Na6,1.28874,,
La6Mg2Al2S14,3.415463,,
La6Mn2Al2S14,3.014137,,
La6Ni2Al2S14,2.536749,,
La6V2Al2S14,2.459211,,
La6Zn2Al2S14,3.461313,,
Na8Al4P8Li4,2.580638,,
Al2P4Li2S12,3.742507,,
Li1Al1Si1,0.519257999999999,,
Te4Al2Li2,3.130783,,
N16Al8Li24,4.147426,,
Y6Mn2Al2S14,3.042578,,
Mo4V4Al4O28,3.35424,,
Al1N1,5.959914,,
Al2N2,4.707983,,
Al2N2,4.691554,,
Al2N2,5.578156,,
Al1N1,4.553951,,
S12P4Al2Na2,3.720741,,
Na4Sr8Al4P12,0.964721,,
Na8Al8Se16,3.283779999999999,,
Na2Al2Se4,3.174374,,
Na2Al2Te4,1.93803,,
P4Al2Na6,2.211055,,
Al4S12Na12,4.2512240000000014,,
Na12Al4Se12,3.413674,,
Na12Al4Te12,2.852661999999999,,
Al1Nb1Ru2,0.226081,,
Y6Ni2Al2S14,2.811042,,
Al1O1,-0.054436,,
Tl6Al6O12,3.34681,,
Rb6Al2O6,4.017992,,
Al1P1O4,4.895862,,
Al1P1O4,0.862471,,
Al3P3O12,0.582433,,
Tl4Si4Al4O16,5.082682,,
Al2W2O8,2.290613,,
Al2P2S8,3.744152,,
P2S8Al2,4.024227,,
P1Al1S4,3.79419,,
Al1P1,2.326595,,
Al2P2,2.689678,,
Al1P1,2.327076,,
Al4Si4P12,0.861939999999999,,
Rb12Al2Sb6,0.772775999999999,,
Tl8Al8S16,2.601421,,
Al1Sb1,1.875019,,
Al4Sr12Sb12,1.066247999999999,,
Tl2Al2Se4,1.081251,,
Tl8Al8Se16,2.201911,,
Te6Al2Si2,1.83382,,
K6Al4As6,1.956969999999999,,
Ba12Al8As16,1.711641999999999,,
Ca6Al4As8,1.7126320000000002,,
Sr6Al4As8,1.788977,,
Sr1Al2B2O7,6.330872999999999,,
Ba4Al8Ge8,0.032765,,
Ba2Al4Te8,2.182369,,
Ba12Al8N16,2.529198,,
Ba12Al8P16,1.97345,,
Bi4Al8S16,3.352979999999999,,
Bi4Al8Se16,3.018357,,
Bi4Cu4S6Al4Cl16,2.400109,,
Ti2Al4Br16,2.869409,,
Mg1Al2C2,2.520752,,
Rh2C8O8Al4Cl14,3.470158,,
Ca2Al4Si4O20H8,7.005287,,
Ca8Al8Sn8O36,4.555531,,
Ge12Ca12Al8,0.054683999999999,,
Ca12Al8N16,3.379163,,
Ca6Al4N8,3.774883,,
Ca6Al4P8,1.9250999999999991,,
Ca10Al4Sb12,0.598217,,
Cd1Al2S4,3.857439,,
Cd2Al4S8,3.531374,,
Cd1Al2Se4,2.953237,,
Cd2Al4Se8,2.196484,,
Cd1Al2Te4,2.336457,,
Co2Al4Cl16,4.240625,,
Cu2Al4Cl16,2.760656,,
Ni2Al4Cl16,4.14391,,
Pd2Al4Cl16,3.244535,,
Ti2Al4Cl16,2.900937,,
V2Al4Cl16,4.408342,,
Nb11Al2K4O20F1,1.134931,,
Fe2Al4S8,1.875383999999999,,
Fe6Al4Si6,1.011507,,
Si4Al2O14Li2H1,3.298499,,
Si2Al2O9H4,6.847053000000001,,
Al4Si4O18H8,6.843156,,
Hg1Al2S4,3.130477,,
Hg2Al4S8,2.334486999999999,,
Hg1Al2Se4,2.291032,,
Hg2Al4Se8,1.232596999999999,,
Hg1Al2Te4,1.7462559999999991,,
Mg1Al2S4,3.073314,,
Mg1Al2S4,3.062862,,
Se4Al2Mg1,1.983487,,
Mg1Al2Se4,1.975335,,
Se5Mg2Al2,2.0295859999999992,,
Mn2Al4O8,4.486041999999999,,
Mn2Al4S8,3.148453,,
Al2Mn1Te4,1.632262,,
Sr12Al8N16,2.98568,,
Na14Al4Sb10,0.731206,,
Al4O6,7.731107,,
Al8O12,7.164394,,
O6Al4,6.710443,,
Al16O24,6.677213,,
O12Al8,0.715098,,
O6Al4,6.283692,,
Al4Ti2O10,4.320189,,
Al2Os1,0.9806,,
S18Al4P6,3.313121,,
Sr6P8Al4,1.964888999999999,,
Pb2Al4S8,3.520647,,
Ru1Al2,0.432674,,
Al4S6,3.379776,,
Al16S24,2.612279,,
Zn2Al4S8,3.395271,,
Al2Zn1S4,0.8730099999999991,,
Al8Se12,2.77101,,
Se8Sr2Al4,4.004557,,
Zn1Al2Se4,3.183437,,
Zn2Al4Se8,2.481795,,
Al16Te24,2.517248,,
Zn1Al2Te4,2.371072,,
Te10Al4,1.571439,,
Bi10Al6Br24,2.207224,,
Bi10Al6Cl24,2.393165,,
Sc6Al6O10C4,1.271108,,
Sc2Al6C6,0.7610479999999991,,
Sc2Al6C6,0.734638999999999,,
Y2Al6C6,0.619448999999999,,
Al6Si4O20H6,7.398759,,
Si4Al6O20H6,7.408268,,
Al12Te12I4,2.693465,,
Sr4Al12N16Li4,4.090283,,
Al12Mo4,0.090643,,
Ba2Al8Se14,3.379133,,
Bi4Al8O18,3.810564,,
Al4C3,2.1611,,
Al4C3,2.157612,,
Al8Si2C8,0.034969,,
Al10N2C6,1.620881,,
Na2Al10Ti4O24,4.086174,,
Al6N2C3,0.153668,,
Al6N2C3,0.352107,,
Al6O12Cd4S1,4.30166,,
Cd4Al6O12Te1,3.833607,,
Al12Ge10,0.8792979999999999,,
Al6O12Sr4Te1,3.813551,,
Te20Al14,2.059806,,
Al8Mo3,0.140491,,
Ar1,10.280692,,
Ar2,10.280159,,
Sr14Sn3As12,1.423423,,
Ba6As28,1.685786,,
Au2As2K4S8,1.621139,,
Na4Au2As2,0.757571,,
Au2As2O8,3.46267,,
Ba6As2O6B2,2.255554,,
As1B1,1.859541,,
As2B12,3.469607,,
Ba2F2As2Cd2,1.671993,,
Ba2Cu2As2,0.191836,,
Ba2Mn2As2F2,1.939071999999999,,
Ba2F2As2Zn2,0.961527,,
Ba4K4As4Se12,2.321607,,
Ba1Li1As1,1.194282999999999,,
Ba4As4V4O24,3.898394,,
Ba8Ga4As4Se20,2.503165,,
Li2Be2As2,1.599482,,
Na2Be2As2,1.99477,,
Bi2Cd4As2O12,3.425508,,
Bi4As4Co4O20,3.689544,,
Bi4Cu8As4O24,3.006038,,
Bi2Mn2As2O10,3.471094,,
As2Bi2O8,4.071243,,
Pb4Bi4As4O20,3.592789,,
Hg4Cd4Br4As4,1.725218,,
Hg12Br4As4O16,2.883472,,
Br2Hg6S8As2,2.337379,,
Br2Hg6Se8As2,2.017197,,
Ca3As1Br3,2.579041999999999,,
As2Br6F12,2.939668,,
As4Br12,2.118892,,
Br20As4F24,2.68916,,
Cs2As2Se4C4H12,3.278315,,
As2C6H12N2,5.471742,,
Ca4Co4As4O20H4,3.664036,,
Ca4Cu4As4O20H4,3.956969,,
Ca2Cu2As2,0.7525250000000001,,
Ca4Ni4As4O20H4,4.024344,,