formula,bg,formation_energy,mp-id
Te8Cu4Cl4,1.375618,,
Cu1Cl1,2.333013,,
Cu8Cl8,2.094411,,
Cu1Cl1,2.196336,,
Cu8Cl4O12H12,3.447005,,
Cu4Cl2O6H6,3.119182,,
Cu8Cl4O12H12,3.430605,,
Cu4O6Cl2H6,3.196072,,
Y2Cu6Se4Cl2O16,3.417652,,
Cu3Te1S3Cl1,1.810302,,
D2Cl2,7.402437,,
Sb4F40Cl4,4.408869,,
I8Cl8F8O8,3.249707,,
Pb4O2F2Cl2,3.530253,,
Pb4Ti2Se4Cl2O14F2,3.262495999999999,,
Cl4F4,3.940148,,
Cl4F12,4.720749,,
Cl8F24,4.02996,,
Cl2F8N2O2,3.469665,,
Ge4Cl4F20O8,3.603172,,
K6Cl2Re2F12,4.193285,,
Ru2Cl2F12O4,2.758178,,
Cl2O4Sb2F12,4.034702,,
Mo2Fe2Cl2O8Li2,2.27972,,
Mo2Fe2Cl2O8,2.749138,,
Fe2Cl2O6N6,1.793397,,
Fe4O4Cl4,3.280432,,
Fe4Sr8O12Cl4,4.019166,,
Fe2W2O8Cl2,3.087824,,
Te4Fe2Cl1O12H3,3.250069,,
Pb8Fe6O16Cl2,2.905594,,
Pb8Fe6O16Cl2,2.905032,,
Ga4Te4Cl4,2.936577,,
Pb2Cl2O2H2,3.747122,,
Pb12Cl4O12H4,3.064233,,
H1Cl1,4.080636,,
Hg2Cl2N2H4,3.8604,,
N2Cl2O4H8,4.896877,,
Cl2Na2O12H8,7.232065,,
Cl4N8H20,6.743755,,
Hf2Cl2N2,3.236764,,
Hg8O4Cl4,2.659531,,
Hg4Cl2P6,1.734953,,
Hg12S8I4Cl4,2.235412,,
Hg12Cl4P4O16,3.435056,,
Pb4Cl4I4,3.496210999999999,,
Sn4I4Cl4,3.127951,,
I8Cl8,0.943182,,
I8Cl8,2.785242,,
In2Te8K12Cl2,2.809098,,
In2O2Cl2,3.684339,,
In2Sb4S8Cl2,2.160552,,
In8Te8Cl8,2.441472,,
In2Cl2,1.87996,,
In2Cl2,1.878009,,
In32Cl32,2.783231,,
In10Cl2S10,1.90625,,
In10Se10Cl2,1.482139,,
Mo2Cl2P2K2O10,2.306264,,
K2Cl2O4,4.14024,,
K1Cl1,6.353322,,
K1Cl1,6.123215,,
K1Cl1,6.272954,,
W4S12O4K12Cl4,2.935484,,
K12O4Cl4,2.190715,,
La4Nb8Cl4O24,3.831859,,
Pb12La2Cl2O14,3.079428,,
La4Se4Cl4,2.135487,,
Te4La4Cl4,1.596256,,
Te2La2Cl2,1.232877,,
La6Cl2Si4S16,3.753288,,
Li4Cl4O8,4.446866,,
Li1Cl1,8.040785,,
N1Cl1Li4,2.850073,,
Lu2Cl2Mo2O8,3.876991,,
Lu2Cl2W2O8,4.634842,,
Mn2Cl2O6,2.9138159999999997,,
Y2Cl2Mo2O8,3.592327,,
Mo2Cl2P2Rb2O10,2.304898,,
Cl4N4O4,3.122478,,
Cl2N2O12,3.27793,,
S6Cl6N6,3.745995,,
Sr2N1Cl1,2.929077,,
Ti2N2Cl2,1.395464,,
Zn8Cl4N4,3.503294,,
Zr2Cl2N2,2.81371,,
Zr2N2Cl2,4.265675,,
Cl2S10O12N4,1.398037,,
S16N16Cl8,3.517189,,
S12Cl4N12O8,3.298524,,
Pt4Cl4S16N12,2.147008,,
Cl2N6,3.736844,,
Cl4S16N20,2.6769570000000003,,
Cl2S10N10,2.235011,,
Sb4Cl4N24,1.470953,,
O4Na2Cl2,4.264897,,
Cl4Na4O12,0.5632269999999999,,
Na4Cl4O12,3.995601,,
Na1Cl1,6.667959,,
Cl1Na1,5.340545,,
Pb4Nb2Se4Cl2O16,3.309028,,
V2Cl2O2,2.47121,,
Pb2Sb2Cl2O4,2.798801,,
Rb2Cl2O4,4.223608,,
Cl8O16,1.626686,,
Pb4V4O12Cl4,3.016146,,
Sr4V4Cl4O12,3.015993,,
Cl4O12,2.456975,,
Sn4P2O8Cl2,3.497868,,
Sb6Cl2O8,3.749941,,
Pb4V2Se4Cl2O16,2.054722,,
Re2O18Cl2S4,3.742058,,
Pd12S12Cl12,1.93201,,
Rb1Cl1,6.119191,,
Rb1Cl1,6.084636,,
Re12S16Cl4,2.440744,,
Re6Se8Cl2,1.721958,,
Rh2Te2Cl2,1.840131,,
Rh2Te2Cl2,1.822871,,
Tl20Cl4Se8,0.822573,,
Cl2Tl2,3.263714,,
Tl1Cl1,2.913083,,
Tl1Cl1,3.297923,,
Co4Cl8O4H8,3.929639,,
Se4Sr4Co2Cl4O12,4.636135,,
Co1Cl2O8,4.780447,,
Co1Cl2,4.167026,,
Te2Co4Cl4O6,3.969189,,
Se4Co3Cl2O10,4.074532,,
Cr1Cl2N4H12I1,3.619609999999999,,
Cr2Cl4O4,3.132229,,
Cr2Cl4,3.065528,,
Cr6K4Cl4F12,3.607413,,
Cs1I1Cl2,3.388355,,
Cs2Mn1V2O6Cl2,2.736988,,
Pb2Cs4Cl4N4O12,3.842528,,
Cu4Cl8H16O8,3.572484,,
Pb2Cu1Cl2O4H4,3.276783,,
Cu2Cl4N4H12,2.805369,,
Cu2Sr4Se4Cl4O12,3.160799,,
Cu1Cl2,2.265312,,
Cu4O2Cl4,2.673028,,
Te8Cu8Cl8O20,3.120172,,
Pb2Te4Cu4Cl4O12,3.016639,,
Sr4Cu8Se8Cl8O24,3.4411,,
Te4Sr2Cu4Cl4O12,3.083317,,
Mg1Cu3Cl2O6H6,3.619628,,
Ni1Cu3Cl2O6H6,3.258671,,
Cu3Zn1O6H6Cl2,3.613375,,
Zn1Cu3O6Cl2H6,3.351187,,
Cu12Se8O24Cl8,2.493201,,
Pb2Cu6V4Cl4O16,2.388003,,
Cu10Se4Cl4O16,3.197921,,
I4Sb4Cl8F24,3.203017,,
Te12Fe10Cl4O36,0.1004729999999999,,
Pt1Cl2N6O6H12,3.889863,,
Mo2Cl4O6H4,3.118274,,
Mg1Cl2O10H4,7.370875,,
O16Mg2Cl4H8,7.299636,,
Zn2Cl4O12H8,4.160859,,
Mn1Cl2N4H8,4.929333,,
Pt2Cl4O4N4H16,3.307957,,
Pt2Cl4O4N4H16,3.985456,,
Hg1Pb2O2Cl2,3.252347,,
Hg4Cl8,4.218474,,
Sr4Hg8Cl8O8,2.92368,,
Hg4Cl4P2,2.469567999999999,,
Hg2Cl2,3.590639,,
Hg6O4Cl4,1.176844,,
Hg6S4Cl4,3.011396,,
Hg6Se4Cl4,2.804841,,
Hg6Te4Cl4,2.817952,,
Hg8O4Cl4,2.831961,,
Hg8Cl4O4,2.606486,,
Hg10Cl4O8,1.270148,,
I8Cl16K8,3.506741,,
S16N12I4Cl8,2.571178,,
Ta2I4Cl4,2.051501,,
Pt2K4Cl4N8O16,3.317206,,
N1Cl2Li5,3.177907,,
Mg1Cl2,6.976449,,
Mg1Cl2,6.923513,,
Mg2Cl4,5.68062,,
Mg1Cl2,6.347457,,
Mg4Cl8,4.120136,,
Mg2Cl4,6.52608,,
Mn1Cl2,4.795309,,
Te4Cl8Mn16Si4O28,3.750072,,
Pb6Mo2O10Cl4,2.507015,,
Pd2Rb4Cl4N4O8,3.322969,,
Te4Cl8S8N8,2.510862,,
S6N4Cl4,2.419058,,
V2Cl4S4N6,1.519698,,
Nb2S4Cl4,2.457545,,
Nb2Se4Cl4,1.869682,,
Ni1Cl2,4.028421,,
Te12Cl4O22,4.035956,,
Te12Cl4O22,4.042344,,
Pd4Cl4O2,2.400325,,
V1O1Cl2,1.467579,,
O4Cl8,2.767403,,
Pb12Cl8O8,3.369719,,
W2O4Cl4,2.912373,,
Pb2Cl4O8,2.666821,,
Sr2Cl4O8,4.232135,,
Sb8Cl4O10,3.555796,,
Pb4Se4Pd2Cl4O12,3.001954,,
Pb6Te4Cl4O12,3.530408,,
Cl4O14,5.5172,,
Pb4Cl8,4.825731,,
Pb8Cl16,4.823049,,
Pd2Se12Cl4,2.159122,,
Pd6Cl12,2.851935,,
Pd2Cl4,2.519016,,
Pd2Cl4,2.460338,,
Pd2Cl4,2.278981,,
Pt6Cl12,3.128502,,
Pt2Cl4,2.456508,,
Re12S16Cl8Tl4,2.52884,,
Re6Se8Cl4Tl2,2.158459,,
Ru2Te16Cl4,0.356342,,
Te4Cl8S28,3.157015,,
Se8Cl8,2.914457,,
Si4Cl8,2.8762600000000003,,
Sn4Cl8,3.964134,,
Sn8Cl16,3.965936,,
Sr1Cl2,6.558758,,
Te12Cl8,1.939064,,
V2Cl4,4.070783,,
Zn4Cl8,5.887939,,
Zn2Cl4,5.609522,,
Zn12Cl24,5.625511,,
Zn2Cl4,5.789725,,
Zr1Cl2,1.475117,,
Co2Cs2Cl6,3.312479,,
Cr8Cl24O8,2.235119,,
Rb2Cr2Cl6,2.865627,,
Rb4Cr4Cl12,3.166402,,
Rb4Cr4Cl12,3.163889,,
Cr2Cl6,3.595258,,
Cr2Cl6,3.61735,,
Cr6Cl18,3.70006,,
Cs2Cu4Cl6,3.543021,,
Cs1Ge1Cl3,2.770637,,
Ge1Cs1Cl3,2.806025,,
Cs1Hg1Cl3,0.53268,,
Hg8Cs8Cl24,1.928113999999999,,
Cs3Mn3Cl9,4.899417,,
Mn3Cs3Cl9,4.863584,,
Cs2Ni2Cl6,4.343371,,
Cs1Pb1Cl3,2.866717,,
Cs1Pb1Cl3,2.864395,,
Cs4Pd4Cl12,3.123848,,
Cs4Sn4Cl12,3.166077,,
Cs1Sn1Cl3,1.42523,,
Re4Cs8Cl12O12,3.401093,,
Cu4Cl12K4,2.860764,,
K8Cu4Cl12,3.800184,,
Rb4Cu4Cl12,2.674275,,
Rb4Cu4Cl12,2.524075,,
Rb4Cu4Cl12,2.517894,,
Rb8Cu4Cl12,3.71424,,
Tl4Cu4Cl12,1.739226,,
Sb4Cl12F8,2.973497,,
Sb4Cl12F8,3.0699,,
Fe2Cl6,2.889304,,
Fe6Cl18,3.077884,,
Ga2Cl6,5.464939,,
Ga4Cl12,5.296158,,
Os1Cl3N5O1H12,3.761319,,
La2Cl6O18H12,4.454084,,
Rh2N6Cl6H18,4.298821,,
Hg4Cl12Na4,3.906731,,
Hg4Tl4Cl12,3.643399,,
Hg4K2S2O6Cl6,3.844161,,
V2Cl6I2N2,2.192033,,
Ir2Te12Cl6,1.634728,,
Ir4Cl12,3.273322,,
Ir4Cl12,3.377063,,
Mn4K4Cl12,4.028737,,
Mn4K4Cl12,4.970812,,
K6Ni6Cl18,4.310652,,
Tc4K4Cl12,3.125839,,
Os2K4Cl6N6O10,3.475205,,
Ru2K4Cl6N6O10,3.394706,,
Pt2Cl6K4N6O12,3.919042,,
La2Cl6,5.770922,,
La8N2S6Cl6,4.08514,,
Mn2Na2Cl6,5.255302,,
Tl1Mn1Cl3,3.678862999999999,,
Tl4Mn4Cl12,4.108679,,
Tl4Mn4Cl12,3.915628999999999,,
Mo4Cl12N4,2.569749,,
Mo4Cl12O4,2.755669,,
Mo4S8Cl12,2.237862,,
Mo4Cl12,3.084582,,
Mo4Cl12,3.190824,,
Se8Cl12N4,1.041642,,
W4Cl12N4,2.691257,,
Y4Cl6N2,3.130842,,
N12Cl36,3.570851,,
W4S8N12Cl12,1.54861,,
Ti2Cl6N6,3.364607,,
Na4Cl12,3.918435,,
Nb4Cl12O4,3.42595,,
Nb4Cl12O4,3.902963,,
Nb4Se4Cl12,1.799926,,
Ni2Rb2Cl6,4.2599,,
V4Cl12O4,3.745979,,
W4Cl12O4,0.97639,,
Re4Cl12O8,2.9409,,
Cl12P4,5.147225,,
Pt12Cl36,1.905097,,
Re6Cl18,1.579029,,
Re12Se16Cl6Tl2,2.051621,,
Rh2Te12Cl6,1.624205,,
Rh4Cl12,3.065685,,
Sb2Cl6S16,3.866079,,
Sb4Cl12,4.680362,,
Sc2Cl6,5.370616,,
Tc6Cl18,1.944513,,
Tc4Cl12,0.8000069999999999,,
Y4Cl12,5.964134,,
Y8Cl12,1.299074,,
Zr2Cl6,1.38411,,
Cs8Co4Cl16,4.552847,,
Li4Co2Cl8,4.261959,,
Na8Co4Cl16,4.477341,,
Co4Cl16Rb8,4.497935,,
Co4Cl16Rb8,4.497757,,
Cr1Cs2Cl4,1.064491,,
Li4Cr2Cl8,3.153772,,
Li4Cr2Cl8,3.299257,,
Cr4Na8Cl16,3.273438,,
Cr1Rb2Cl4,0.958278,,
Cs4Fe4Cl16,3.673034,,
Re4Cs4Cl16O8,2.502132,,
Cs6Re6Cl24,1.782228,,
Cs8Cu4Cl16,2.520105,,
Pd1Cs2Cl4I2,1.694476,,
Pd1I2Cl4Cs2,1.89159,,
Cs4Pd2Cl8,3.350394,,
Cs2Pd1Cl4,3.351976,,
Pt2Cl8Cs4,3.564446,,
Cs12Cl8O2,3.220244,,
Cl8Ga2Cu2,3.540877,,
Cu2K4O4Cl8H8,3.282731,,
Rb4Cu2Cl8O4H8,3.323429,,
Cu2Rb4Cl8,2.577998,,
Nb8F8Cl32,3.631973,,
Sb4Cl16F4,2.645361,,
W2Cl8N2Te2F10,3.130199,,
Fe4Cl16K4,3.625688,,
Fe4Na4Cl16,3.567155999999999,,
Fe4Cl16Rb4,3.633257,,
Hg2Ga2Cl8,2.152971,,
Ga8Cl16,4.783141,,
Ge4Cl16,5.457517,,
Hg4K8Cl16O4H8,4.071253,,
Re4Cl16N4O4H8,2.22537,,
Tl2Cl8N2H8,3.188517,,
Hf2Cl8,5.375209,,
Hg4K8Cl16,3.590975,,
Hg4S2Cl8K4O6,3.214244,,
Hg12Cl16O4,2.668748,,
Hg6Zn2S4Cl8,0.556047,,
K4I4Cl16,3.376175,,
Tl2Cl8K2,3.229042,,
Os1K2O2Cl4,3.096801,,
K2Pd1Cl4,3.155924,,
K2Pt1Cl4,3.363871,,
Pt1K2Cl4,3.332932,,
Mn4Na8Cl16,5.188885,,
Mn1Rb2Cl4,4.385596,,
Te8Mo4Cl16O4,0.461939,,
Mo2O2Cl8,2.196474,,
Re1Cl4N1,1.935561,,
V2N2Cl8,2.501075,,
Sb4Cl16N12,3.169685,,
Te2Cl8S8N8,2.679206,,
Na8Pd4Cl16,2.907423,,
Te16Nb4Cl16O4,0.847235,,
Nb4Cl16,2.019578,,
Os4O4Cl16,2.337935,,
Rb12Cl8O2,2.833433,,
W1Cl4O1,2.824832,,
Os4Se4S12Cl16,2.10258,,
Os2Sc8Cl8,1.429065,,
Os1Cl4,2.100267,,
Pb4Cl16,2.73893,,
Tl2Pd1Cl4,2.301811,,
Rb6Re6Cl24,1.639503,,
Re4S4Te4Cl16,3.270207,,
Re4Se4Te4Cl16,3.256689,,
Re4Te8Cl16,3.129293,,
Re4Cl16,2.542685,,
Tl12Cl8S2,2.417034,,
W2Cl8S2,2.843353,,
Si4Cl16,7.050979,,
Sn4Cl16,4.881136,,
Ta4Cl16,2.101705,,
Ti4Cl16,4.466968,,
Tl4Cl8,2.74845,,
W4Cl16,1.00169,,
Zr2Cl8,4.973311,,
Co2Cs6Cl10,4.580805,,
Tl6Co2Cl10,3.669795,,
Cs4Cr2Cl10O2H4,3.770489,,
Rb8Cr4O4Cl20,1.908735,,
Cs4Pd8Cl20,2.973515,,
Cs4Fe2Cl10O2H4,3.219527,,
Tl4Cs8Cl20,2.627971,,
Cs12Cu8Cl20,3.950881,,
Cs6Mn2Cl10,5.476952000000001,,
Cs6Ni2Cl10,3.66308,,
Fe2Cl10S8N8,2.355744,,
Tl6Fe2Cl10,3.507274,,
In2Hg14S12Cl10,2.452398,,
K8Mo4O4Cl20,2.864172,,
Ru4K8Cl20N4O4,3.268622,,
Ru4N4O4Cl20K8,3.271478,,
Os4N4Cl20K8,3.121607,,
K4Os2N2Cl10,3.098614,,
Re4K8Cl20O4,2.162994,,
Tc4Cl20K8O4,2.327159,,
Mo2Cl10S4N4,1.296975,,
Mo4Se4Cl20S8,2.891834,,
Mo2Cl10,0.8682759999999999,,
Mo8Cl40,1.461895,,
W4Cl20N4S4,1.814798,,
Na4Sn8Cl20,3.865097,,
Nb2Cl10P8S20,2.052058,,
Nb6Cl30,3.306048,,
Nb4Cl20,3.420896,,
Nb12Cl20O8,1.729191,,
Re4O8Cl10,0.290325,,
P4Cl20,3.221382,,
P3Cl15,2.963839,,
Ta2Cl10P8S8,2.71254,,
Ta2Cl10P8S10,2.988322,,
Ta2Cl10P8S12,3.108939,,
W4Se4Cl20S8,3.195613,,
Sb8Cl40,2.895172,,
Sb2Cl10,2.945794,,
Cl10V2,2.015298,,
W6Cl30,1.428604,,
Cl12Cr2Na6,3.951969,,
Cs2Sb2Cl12,3.226309,,
Cs2Ge1Cl6,3.434534,,
Cs2Hg1Pd1Cl6,2.629618,,
Pb1Cs2Cl6,2.366543,,
Pt1Cs2Cl6,3.401573,,
Re1Cs2Cl6,3.075111,,
Se1Cs2Cl6,3.444045,,
Sn1Cs2Cl6,3.913838,,
Te1Cs2Cl6,3.557729,,
Ti1Cs2Cl6,3.433878,,
Cs3V1Cl6O4H8,3.251252,,
Pt1Fe1Cl6O6H12,1.518193,,
Hf2Fe2Cl12,3.663709,,
Fe2K6Na2Cl12,3.749148,,
K3Na1Fe1Cl6,2.887638,,
Se8Cl24N4Fe4,2.346153,,
Zr2Fe2Cl12,3.285576,,
Se8Cl24N4Ga4,2.373464,,
Re4Cl24O8Ga4,3.110625,,
Rh1Cl6N5O3H16,3.451532,,
Sb2Cl12N2H8,3.164856,,
Sb2Cl12O4H10,3.153605,,
Pt1Cl6N2H8,3.020488,,
Re1N2Cl6H8,2.804766,,
Sn1Cl6N2H8,3.5246,,
Hg6Hf2Se4Cl12,3.774152,,
Hf1Te4Cl6,1.743223,,
Te16Hf2Cl12,1.31762,,
Hg6Zr2S4Cl12,3.860508,,
Hg6Zr2Se4Cl12,3.790852,,
P2I2Cl12,3.106631,,
I2Cl6,2.814538,,
Ir4Cl24K12,3.496267,,
K2Mn1Cl6,1.559884,,
Pd1K2Cl6,2.282797,,
Pt1K2Cl6,3.178887,,
K2Re1Cl6,2.893256,,
K2Sn1Cl6,3.685573,,
K4Sn2Cl12,3.90098,,
K4Sn2Cl12,4.072238,,
Tc1K2Cl6,3.173689,,
Te1K2Cl6,3.306642,,
K2Ti1Cl6,3.280382,,
K6Na2Mn2Cl12,5.20935,,
Rh4Cl24K12,3.422559,,
K12Sc4Cl24,5.6441,,
Mn1K4Cl6,4.744358,,
Rb2Mn1Cl6,1.68622,,
Mo2Cl12Na6,3.765039,,
Nb4N4S4Cl24,2.916014,,
Sb1Cl6S2N1,2.611402,,
V2Cl12O4N4,2.307318,,
Nb4Cl24Na4,3.357851,,
Sb2Cl12Na2,3.349793,,
Ta4Cl24Na4,4.036423,,
Ti4S4Cl24O4,3.750801,,
Ti2Cl12S2O2,3.697928,,
Ti4Cl24S4O4,3.801184,,
Sb4Cl24P4O8,3.567356,,
Pb1Rb2Cl6,2.240401,,
Pb4Pd2Cl12,2.93703,,
Pd1Rb2Cl6,2.399547,,
Pd1S2Cl6,2.995537,,
Pd2Se4Cl12,2.828734,,
Pt1Rb2Cl6,3.279196,,
Pt1S2Cl6,3.192664,,
Pt1Tl2Cl6,2.842368,,
Se1Rb2Cl6,3.308901,,
Sn1Rb2Cl6,3.785794,,
Te1Rb2Cl6,3.452851,,
Rb2Ti1Cl6,3.345185,,
Tl4Rb12Cl24,3.187443,,
W2Cl12S16,1.053804,,
Sn1Tl2Cl6,3.655,,
Ta2Te4Cl12,1.355817,,
Te1Tl2Cl6,3.356554,,
W1Cl6,2.636811,,
W3Cl18,2.536116,,
Cs2Cl14Ti4,2.102983,,
Cs2Ti4Cl14,2.776624,,
Nb6Cl14O10Cs4,3.501119,,
Rb6Cu4Cl14,1.805287,,
Fe2Se2Cl14,2.524651,,
Fe2Te2Cl14,0.74224,,
Ga12Cl28,4.931036,,
I4S4Cl28,2.864626,,
Ir2Te14Cl14,2.036809,,
Mo4Cl14O4K2,2.834046,,
Nb6Cl14O10K4,3.509846,,
K3Mn2Cl7,4.095724,,
Mn2Rb3Cl7,4.067247,,
Mo4S4Cl28O4,2.478302,,
Se2Mo2Cl14O2,2.630554,,
Te4Mo4Cl28O4,2.599971,,
Mo8Cl28N4,1.520894999999999,,
Tl2Mo4Cl14O4,2.0774,,
Tl2Mo4Cl14O4,2.528811,,
Sb2Se6Cl14N4,2.180579,,
Na1Cl7,1.219708,,
Nb6Rb4Cl14O10,3.523306,,
Nb6Se10Cl14,1.989968999999999,,
Nb6Te2Cl14,1.573274999999999,,
Nb12Cl28,1.429266,,
Ta4Cl28S4O4,3.959693,,
V2Cl14P4O8,2.92174,,
Rh4Se8Cl28,3.229453,,
Rh2Te14Cl14,2.02575,,
Li5Cr1Cl8,3.844192999999999,,
Cu2Ga4Cl16,2.874365,,
Fe4Cl32P4,3.709965,,
Ni2Ga4Cl16,4.220588,,
Hg6Pt2Cl16N4H12,3.421362,,
Rb2Hg2Pd1Cl8,3.41245,,
Tl2Hg2Pd1Cl8,3.038562,,
I4P4Cl32,2.643157,,
I4Sb4Cl32,2.698779,,
I3Sb1Cl8,2.198966,,
Ru2Te18In4Cl16,1.83859,,
Ir2Sn2Cl16K6,2.969648,,
V1Li6Cl8,4.284346,,
Na6Mn1Cl8,5.34558,,
Na2Mn3Cl8,5.203385,,
Na2Ti3Cl8,1.583856,,
Nb6Cl16,1.068641,,
Sn2Se4Cl16O4,4.022376,,
W4Te6Se8Cl16O4,1.35065,,
Re4Cl8O9,1.607532,,
Pt2S4Cl16,3.03237,,
Ru2Cl16S6,1.28056,,
Cs2Mn8Cl18,4.920362,,
W6Cl18Cs2,1.426879,,
Cs3Fe2Cl9,2.747141,,
Cs6Lu4Cl18,6.6833469999999995,,
Cs6Ru4Cl18,1.813118,,
Cs3Sb2Cl9,3.069085,,
Cs3Sb2Cl9,3.093443,,
Cs6Cl18Tl4,3.14158,,
Cs6W4Cl18,2.108383,,
Cs5Nb2Cl9S4,2.719309,,
Rb2Cu2Nb6Cl18,1.556086,,
Hg12In4P6Cl18,3.071602,,
Nb6In2Li2Cl18,1.496093,,
In4Ta6Cl18,1.805392,,
In10Cl18,3.765916,,
In28Cl36,2.884709,,
Nb6Cl18K4,1.588371,,
Ta6Cl18K4,1.944136,,
K6W4Cl18,2.209245,,
Te4Cl18N6S8,3.064109,,
Te2Nb2Cl18,2.858737,,
Tl5Nb2Cl9S4,2.537506,,
Re2Cl18P2,2.732173,,
Sn2Cl18P2,3.934612,,
Sn2P2Cl18,3.328553,,
P2Ti2Cl18,3.503625,,
V2P2Cl18,2.55742,,
Re6Cl18,1.571944,,
Sb2S2Cl18,2.925201,,
Sb2Cl18S2,2.761107,,
Te2Ta2Cl18,3.486108,,
Cl4,3.984723,,
Cl16,4.102159,,
Ge3Co10O16,2.580109,,
Co2Cr4O8,3.600225,,
Co2Cr4S8,1.775697,,
K2Co1Cr4O16H4,2.85338,,
Cs4Co4O8,2.233359,,
Cs2Co1F6,3.085033,,
Cs8Co4I16,3.111398,,
Cs4Co2Si2O8,4.201129,,
Cs12Co4I20,3.23007,,
Cu2Co2P4O14,2.361743,,
Ge1Cu2S4Co1,1.40768,,
Cu2Co1Si1S4,1.785025,,
Co2P2S6,2.392196999999999,,
Co1Sn1Cu2S4,1.167797,,
Cu2Co1Sn1Se4,0.602268,,
K2Co2P2O10D4,4.483896,,
Mg4Co2D10,1.289669,,
Co1F12Sb2O4S2,4.333621,,
Na2Co2F2S2O12H8,4.974672,,
Co4F8,4.82131,,
Na4Co4F12,4.6477070000000005,,
F6Na2Co2,4.812643,,
Co2F6,3.726601,,
Co2F8N4O4H16,5.091731,,
Li4Co4F16,4.102278,,
Pt1Co1F6,2.909619,,
Rb2Co1F6,3.020798,,
Co1Sn1F6,3.734789,,
La6Co2Fe2S14,1.94835,,
Co4Fe4P4O20,3.063242,,
La6Co2Ga2S14,2.419956,,
Co1Ga2S4,2.950071999999999,,
Co2Ge2Na4O8,3.12851,,
Na4Co2Ge2O8,2.795499,,
Co4Ge4O12,2.642721,,
Co8Ge8Te8,0.795510000000001,,
Sr4Co2Ge4O14,3.051347,,
K2Co1Se2O10H2,2.137635,,
Co4Se4O16H8,4.599855,,
Co4Se4O16H8,4.542307,,
Co2S2O10H4,4.753443,,
Co2Se2O10H4,4.036163,,
Co1K2Se2O10H4,4.132132,,
Co2N4O16H8,4.183933,,
Co1Na2Se2O10H4,4.305586,,
Co2P2N2H12O10,4.573357,,
Co1V2P2O14H8,3.439504,,
I10Y6Co1,0.7370540000000001,,
Sc7I12Co1,0.791434,,
I4Co4N8O8,2.507427,,
Co1I2,2.298287,,
Rb4Co2I8,3.061738,,
La6Co2In2S14,2.276464,,
Co2In4Se8,1.543688,,
Y16Co2In6,0.217074,,
Co4K4O8,3.17566,,
Co2P6O18K2,4.956381,,
K8Co4O8,3.483881,,
K4Co2V4O14,3.248549,,
K3Co1N6O12,4.293992,,
Co4K12O8,2.464197,,
K12Co2S8,2.788071,,
K12Co2Se8,2.45022,,
La4Co2O8,3.393606,,
La4Li1Co1O8,3.595597,,
Sr4Co2N4Li2,1.552585,,
Li1Co1O2,2.589467,,
Li3Co3O6,3.056883,,
Co4P4Li4O16,4.387958,,
Co4Si4Li8O16,4.721279,,
Co2Li4S4O16,4.847618,,
W4Co2O16Li4,3.808654,,
Co4Na8Li12O16,3.213345,,
Li24Co4O16,3.310395,,
Lu2Te2Co1S2O14,4.443372,,
Co2Mn2O6,1.625023,,
Co4Mo4O16,3.083891,,
Mo4Co4O16,2.424635,,
Sr2Co1Mo1O6,1.570637,,
Co2Te2Mo2O12,2.974329,,
Co4N8O24,3.825136,,
Co1Na3N6O12,4.009745,,
Co1Na3N6O12,3.995466,,
Na2Co2O4,2.118441,,
Na4Co4P4O16,5.14821,,
Na4Co4P4O16,4.791921,,
Na4Co2S4,3.208959,,
Co8Na24O16,2.692132,,
Co4Na12O12,3.596547,,
Na8Co2O6,2.69027,,
Na8Co2O6,2.693368,,
Na8Co2O8,3.151878,,
Co2O4S2Na10,2.779818,,
Na12Co2S8,3.078182,,
Na12Co2Se8,2.565617,,
Co2Nb2O8,2.444585,,
Co4Nb8O24,3.543648,,
Co2V4P4O20,2.561123,,
Co2V4P4O20,2.614429,,
Te2Y2Co1S2O14,4.435787,,
Co2O2,2.184023,,
Co2O2,1.634123,,
Co4O4,2.173429,,
Rb12Co4O8,2.224544,,
Co4O8,0.025574,,
Se4Co4O12,4.221394999999999,,
Sr2Co2O6,1.146312,,
Sr4Co2O6,3.310278,,
O6Co2Ti2,3.210605,,
Y4Co4O12,2.71319,,
Co2Rh4O8,2.387257,,
Co4S4O16,4.778579,,
Co4S4O16,4.134931,,
Co4Sb8O16,3.008082,,
Co2Se2O8,3.553213999999999,,
Co8Se8O32,3.647448,,
Co4Se8O20,3.68299,,
Pb2Co1Te1O6,2.76871,,
Pb4Co2Te2O12,3.086405,,
Pb2Co1Te1O6,2.896107,,
Pb2Co1W1O6,2.464149,,
Co2Pt6O12,1.193139,,
Co2Sb4O12,1.513729,,
Sr4Co2Te2O12,2.502542,,
W1Co1Sr2O6,2.364058,,
W2Co2Sr4O12,2.974336,,
Co4Ta8O24,4.011806,,
Co1V2O6,2.774215,,
Co2V4O12,2.926759,,
Sr4Co2Se6O18,4.362489,,
Co8P8Se8,1.394409,,
Co4P8,0.557685,,
Co4Si12P12,1.888729,,
Co4P12,0.110034999999999,,
Rb4Co2S4,3.72375,,
Co2Rh4S8,1.351471,,
Co8Sb8S8,1.234413,,
Co2Sb2S2,0.5659200000000001,,
Co4Sb4S4,1.345001,,
Ti1Co1Sb1,1.404118,,
Co4Sb12,0.7492209999999999,,
Ge2Co4O8,2.694215,,
Co8S12Ge12,1.151615,,
Co8Se12Ge12,1.137221,,
Co8Ge12Te12,1.028759,,
Co8P4O20H4,4.242916,,
Mo2Co2Na1O10H3,0.8297839999999991,,
Pb2Co4P4O20H8,4.755352,,
K4Na8Co4O10,3.356991,,
Co4Rb4K8O10,2.884149,,
Co4K12O10,2.816905,,
La8Co8O20,2.378818,,
Rb4Na8Co4O10,3.112332,,
Rb2Co4Na14O12,2.53816,,
Rb8Co8O12,2.777153,,
Rb10Co4O8,2.451262,,
Co4P4O14,4.548734,,
Co4Sb4O14,1.945716,,
Sr4Co8P8O32,4.745265,,
Co4Te6O16,3.656668,,
Co2Ta4Pd1Se12,0.0918939999999999,,
Co8Sn12Se12,0.919278,,
Co8Sn12Te12,1.033563,,
Co3Cr4P6O24,3.230614,,
Sb8Co6F12O12,3.325246,,
Co3P2O16H16,2.690477,,
In1Sn1Co3S2,0.73867,,
Co6O8,2.830857,,
Co6P4O16,4.606033,,
Co6V4O16,2.868457999999999,,
Rb4Co6S8,1.885104,,
Co6S8,1.601645,,
Co6Se8,1.200856,,
Sr6Co5O15,0.970782,,
K3Cr11S18,1.387761,,
Cs3Cr3F12,3.954999,,
Cr1O8Cs1N2H8,3.162046,,
Cs4Cr4I12,2.15955,,
Cs1Cr1P2S7,2.616896,,
Cs4Cr2F20H8,2.999931,,
Cs6Cr2F14,1.812012999999999,,
Cu1Cr1O2,2.690795,,
Cu2Cr2O4,3.009277,,
Cr2Cu2Sr4S2O6,2.266872,,
Cu2Cr2O8,2.892489,,
Cu4Cr4P8S24,2.03388,,
Cr1Cu1S2,0.883924,,
Cr4F8O8,3.570436,,
Cr2F4,3.465435,,
K4Cr4F12,3.936635,,
K4Cr4F12,3.691133,,
K2Cr2F6,1.804343,,
Cr4F12O4,3.539539,,
Cr2F6,4.132786,,
Na8Cr4F16,3.821802,,
Cr8F32,3.161052,,
Cr2Mn2F10,3.111449,,
Rb4Cr4F20,2.913994,,
Cr4F20,2.865657,,
Cr1K1F6,2.6266719999999992,,
Cr2Li4F12,3.211463,,
Cr2F12Li4,2.726948,,
Mg1Cr1F6,2.776307,,
Cr1Mo1F6,2.151951999999999,,
Cr4Na4F24,2.626493,,
Rb1Cr1F6,2.615988,,
Xe4Cr4F24,3.119165,,
Cr2K4F16H4,3.175385,,
Cr1Na2F8H2,3.083672,,
Cr2Fe2O6,2.824085,,
Fe4Cr4P4,0.513764,,
Ga4Cr4Se12,1.683081,,
Li2Cr2Ge4O12,4.124077,,
Li4Cr4Ge8O24,4.089615,,
Na2Cr2Ge4O12,3.966187,,
Cr1S2O8N4H10,3.925513,,
I7Cr1N6H18,2.543352,,
La4Cr4O20H4,3.648772,,
Cr2O4H2,3.58508,,
Cr2Rb6O12H12,4.682243,,
Cr2O8N4H16,4.15387,,
Hg2Cr2O8,2.477664,,
Hg4Cr4O16,2.758951,,
Hg2Pb4Cr2O12,2.471035,,
Hg12Cr4S8O16,2.9201479999999997,,
Hg10Cr2S4O10,2.628492,,
Hg10Cr2O12,1.676935,,
K4Cr4I4O24,3.936516,,
Cr2I4,2.05708,,
I8Cr4,2.543412,,
Rb4Cr4I12,2.196047,,
Cr2I6,1.664296,,
Cr2I6,1.752936,,
Tl8Cr2I12,2.175422,,
Tl8Cr2I12,1.865488,,
In4Cr4O12,2.92115,,
Cr1K1O2,4.087182,,
Cr2K2O4,4.279498,,
K2Cr2V4O14,3.098322,,
K1Cr1P2S7,2.605309,,
Cr1K1S2,2.153068,,
Mn1Cr1K3O8,1.790264,,
K3Cr1O4,1.865924,,
Cr1K3O8,3.474641,,
La4Cr4S8O4,1.935621,,
La2Cr2O6,3.659907,,
La4Cr4O12,4.138675,,
La2Cr2O6,4.236901,,
La4Cr4O16,1.879015,,
La2Cr2Te2O12,3.438317,,
La4Cr4S12,0.927787,,
La4Cr4Se12,0.505065,,
La8Cr4O24,2.984161,,
La6W2Cr2S6O12,2.348959,,
Mo4Cr2Li2O16,3.667825,,
Rb2Li2Cr2O8,4.129206,,
Rb2Li2Cr2O8,4.10367,,
Cr2P4O14Li2,4.150241,,
W4Cr2Li2O16,3.341587,,
Cr1Li1S2,1.942387,,
Lu2Cr2O8,1.204805,,
Mg8Cr8O32,3.511997,,
Mn2Cr2O8,1.765869,,
Y4Mn2Cr2O12,1.986472,,
Pb4Mn4Cr2O18,2.291386,,
Mo2Cr2V2O14,3.481383,,
Na2Cr2O4,4.493022,,
O12Si4Cr2Na2,4.327951,,
Cr1Na1S2,2.032200999999999,,
Cr1Na1Se2,1.138949,,
Na8Cr2O8,3.264679,,
Ni2Cr2O8,2.980814,,
Cr1O2,0.759888,,
Sc4Cr4O12,3.963926,,
Y4O12Cr4,4.021428,,
Y2Cr2O6,3.084581,,
Cr2O6,3.47649,,
Cr12P12O48,3.979219,,
Cr4P4O16,3.440903,,
Pb4Cr4O16,2.750172,,
Pb4Cr4O16,3.075594,,
Sr4Cr4O16,3.969478,,
Sr16Cr8O32,3.235485,,
Tl8Cr4O16,2.968998,,
Tl8Cr4O16,3.069774,,
Cr2V2O8,2.917102,,
Cr4V4O16,3.384772999999999,,
Cr4W4O16,1.665089,,
Y2Cr2O8,2.031604,,
Y2Cr2O8,2.048312,,
Sr4Cr2Sb2O12,2.749091,,
Sr2Cr1Ta1O6,3.796337,,
O24Ta8Cr4,0.850971,,
Ta8O24Cr4,1.626825,,
Y2Cr2Te2O12,4.05893,,
Rb2Cr2V4O14,3.095476,,
Cr2P2S8,1.905081,,
Cr2P2S8,1.909208999999999,,
Cr2P2Se6,1.95516,,
Cr1Rh2Se4,0.253898,,
Cr4S4,1.922324,,
Sb4S12Cr4,1.554822,,
Cr1V2S4,0.6304729999999991,,
Sb4Cr4Se12,1.142767,,
Te6Cr2Si2,0.753973999999999,,
Cr2Si2Te6,0.761748,,
Cr3Si6,1.340796000000001,,
Cr3Si6,1.341492,,
Cs6Cr4I18,1.754989,,
Cu2Cr4O8,2.234203,,
Cu2Cr4O8,2.038499,,