formula,bg,formation_energy,mp-id
Fe4O10B4,3.516822,,
N4B4Na2Li2H20,5.564237,,
Mg2B4H16,6.674404,,
Mn2B4H16,5.386055,,
Hg6B4O12,3.576992,,
K2Sb2B4O12,4.517202,,
Zr1K2O6B2,5.22988,,
S14K4B4,3.720739,,
Se14K4B4,2.6343829999999993,,
K3Nb3B2O12,3.211856,,
K3Nb3O12B2,3.640194,,
K3Ta3B2O12,3.998107,,
S10B4Li4,3.395574,,
Se10B4Li4,2.428754,,
Lu4Te2Na4O20B4,4.431595,,
O20Mg6Mn6B4,1.558339,,
Mn2Sn2B4O12,3.961015,,
Mn12B8O24,4.225276000000001,,
Y4Te2Na4O20B4,4.453641,,
S20Na8B8,3.645695999999999,,
Se14Na4B4,2.430042,,
Ni4O16B8,4.8681600000000005,,
Ni6O12B4,3.985909,,
O9B6,8.271057,,
B4O6,10.348116,,
B6O9,8.572686,,
Pb6B6O15,3.8281989999999992,,
Rb4Se14B4,2.7152689999999993,,
B16S24,3.317452,,
Sr3S12B6,3.942414,,
Sr4S16B8,3.82835,,
Sr6S12B4,3.311553,,
Tl4Se14B4,2.101559,,
Ba2S12B6Li2,3.852055,,
Na1Ba4N6B3,3.103493,,
Bi2Cd8O20B6,3.483629,,
Bi1B3O6,5.147045,,
B3Ca4N6Li1,3.291893,,
B3N3Cl6,4.2478,,
Cs2Sr2B6H24,7.223882,,
Cs2Zn8B6O18,4.965565,,
Cu4O28B12Li12,4.256836,,
Y2B6D24,5.864014000000001,,
N2B6H24,6.773887,,
B6H30N2Y2,5.929290999999999,,
Zn8B3O14H3,4.434277,,
B12H20,4.783506,,
Na2B6H16,6.963348,,
Na2B6H16,6.360742999999999,,
Zn8K2O18B6,4.87848,,
Li1Sr4N6B3,3.173982,,
Li2Sr2S12B6,3.938418,,
Na1Sr4B3N6,3.06186,,
Rb2Zn8B6O18,4.884085,,
Bi2O18B8H6,5.482347,,
Bi2Cu5B4O14,3.025051,,
B12C3,2.488397,,
B8Cl8,4.197987,,
Y4Cr4B16,0.606368999999999,,
Li8Pb8Cu4B16O40,3.947817,,
Cu2O20B8Li12,4.138991,,
Li6Cu1B4O10,4.032978,,
Cu2Lu4B8O20,3.680759,,
Zr1B4H16,6.301959,,
Hg2B8O14,3.556534,,
Mg4B16,0.706402,,
Y4Mo4B16,0.649371,,
Ni4O28B16,4.796073,,
W4Y4B16,0.457842,,
Cu2Lu2B10O20,4.196962,,
B5H9,6.718347,,
Ba1B6,0.3830329999999999,,
C2B12Li2,2.085419,,
Cs2B12I12N2C4H6,2.779872,,
Ca1B6,0.4487919999999999,,
Co4O13B6,4.819703,,
Cr1B6H16,3.109962,,
K4O4N2B12H10,2.441431,,
Si4Li4B24,2.414797999999999,,
B6O12Zn4Se1,6.274648,,
B12O2,2.796231,,
B12P2,3.448451,,
Si1B6,0.4349179999999999,,
Sr1B6,0.4733679999999999,,
Mg4B28,2.138374,,
B32Cl32,1.559609,,
S32B16,3.647721,,
Mg2N2B18,2.362456,,
Ba4Ru24O48,0.024505,,
Ba11Cd6Sb12,0.7040149999999991,,
Sb20Ba22,0.02219,,
Ba2N4Be4,2.302553,,
Ba2Si4Be4O14,7.412509000000001,,
Ba2Si4Be4O14,7.415525,,
Ba2Bi1Sb1O6,2.497435,,
Ba2Bi1Sb1O6,2.663224,,
Ba4Bi3Na1O12,1.584317,,
Ba2Bi2Cu2,0.136339,,
Ba2Mn2Bi2F2,1.405121,,
Ba2Bi2O4I2,3.946096,,
Bi3Ba3Na3,0.3402119999999999,,
Ba4Bi4O10,2.662596,,
Ba2Bi2O6,0.31847,,
Ba2Bi2O6,0.4875739999999999,,
Ba4Bi4O12,0.4049649999999999,,
Ba8Bi8Se24,1.110613,,
La4Bi8S24Ba4,1.181273,,
Bi8Ba4Mo16O64,3.876629,,
Ba2Bi4Nb4O18,3.435803,,
Ba1Bi2Ta2O9,3.364939,,
Ba2O14Br4H4,5.7457080000000005,,
Ba4Cl4S4O4C4N4H8,6.084986000000001,,
Ba4Cu4F8C4O12,3.477063,,
Ba6C6N12,3.254348,,
Ba2Ce2C4O12F2,4.54935,,
Ba2Mg2C4O8,2.219967,,
Ba1Mg1C2O6,5.970039,,
Ba2Mg2C4O12,6.29476,,
Ba1Mg1C2O6,6.060695,,
Ba8C16,3.846373,,
Ba1C2,2.556181,,
Ba1C2,2.806485,,
Ba4C8,3.266677,,
Ba2O14C8H12,4.104585,,
Ba2O8C8,4.121469,,
Pt2Ba1Rb2C8N8,2.785326,,
Ca2Ba2Fe8O14,1.619837,,
Ba1Ca1Fe4O8,4.691858,,
Ba4Ca4Ge4,0.716338,,
Ba4Ca4Pb4,0.274409,,
Ba4Ca4Si4,0.7295200000000001,,
Ba4Ca4Sn4,0.5895170000000001,,
Ba2F2P2Cd2,1.859553,,
Ba2Cd2Sb2F2,0.933666,,
Ba2Cd2Sb4K4,0.632722,,
Ba4Cd4O8,2.131317,,
Ba4Cd4S8,2.534237,,
Ba1Cd2P2,1.388541,,
Ba1Cd2Sb2,0.282739,,
Ba4Ce4O12,4.050097,,
Ba1Ce1O3,4.008526,,
Ba2Ce2O6,4.027403,,
Ba2Ce2O6,4.023862,,
Ba4Cu4P4Cl4O16,3.284089,,
Ba2Sb2Cl2O4,3.938162,,
Ba4V4Cl4O12,3.481099,,
Ba2Te4Cu4Cl4O12,3.113593,,
Ba4Hg8Cl8O8,2.840714,,
Ba3Cl6,5.821614,,
Ba1Cl2,6.723062,,
Ba4Cl8,6.37021,,
Ba8Cl16,6.432798,,
Ba4Pd4Cl16,3.115188,,
Ba4Co4F16,5.045875,,
Li4Ba4Co4F24,4.243961,,
Pb4Ba4Fe4Co4O20,1.463305,,
K2Ba1Co1N6O12,2.759491,,
Ba4Lu8Co4O20,3.372385,,
Ba2Co2S2O2,2.491271,,
Co6Ba6O12,2.76074,,
Ba4Y8Co4O20,3.367633,,
Ba1Co2P2O9H2,4.846946,,
Ba2Co4P4O16,4.87447,,
Ba1Co2P2O8,5.005382,,
Ba1Co2P2O8,3.869674,,
Ba1Co3V2O10H2,3.389587,,
Y2Ba2Co8O14,1.890119,,
Ba4Cr4O16,4.024749,,
Ba4Cr4O16,4.163529,,
Ba4Cr4S8,1.978851,,
O14P4Cr2Ba1,4.403192000000001,,
Ba4Cr8O16,3.688221,,
Ba4Cs4P4S16,3.42918,,
Ba4Cs4V4S16,2.319014,,
Ba2F2S2Cu2,2.845317,,
Ba2Cu2Se2F2,2.548129,,
Ba2Cu2Te2F2,1.967246,,
Ba4Fe4Cu4F28,3.937048,,
Lu2Ba2Fe2Cu2O10,2.537199,,
Y2Ba2Fe2Cu2O10,2.433533,,
Cu1Ba1K2O12N6,2.539409,,
La4Ba4Cu4S12,2.015278,,
La4Ba4Cu4Se12,1.752836,,
La4Ba4Cu4Se12,1.808821,,
La4Ba4Cu4Te12,1.457334,,
Ba4Lu8Cu4O20,2.802009,,
Ba6Cu6N6,0.6657879999999999,,
Na4Ba2Cu2V4O16,3.515819,,
Ba4Y8Cu4O20,2.938782,,
Ba4Cu4Se8O24,3.260206,,
Ba4Cu4Se8O24,3.520244,,
Ba2Cu2Si4O12,4.102127,,
Ba2Cu2Si4O12,4.089526,,
Ba2Cu2P4O14,3.706246,,
Ba2Cu2Te4O14,2.859941,,
Ba2Cu2Sc2S6,1.817709,,
Ba2Cu2Y2S6,2.174915,,
Ba2Cu2Sb2,0.216254,,
Ba2Cu2Y2Se6,1.885057,,
Y2Ba2Cu2Te6,1.279637,,
Ba3Cu6Ge3S12,2.235065,,
Ba3Se12Ge3Cu6,1.456631,,
Ba2Ge6Cu4O20H4,3.607403,,
Ba2Cu4O4,2.730083,,
Ba1Cu2S2,1.415122,,
Ba4Cu8S8,1.852776,,
Ba3Cu6Sn3S12,1.585383,,
Ba4Cu8Se8,1.5791110000000002,,
Ba1Cu2Se2,1.216819,,
Ba2Sn2Cu4Se8,1.4581,,
Ba4Cu8Te8,1.356329999999999,,
Ba1Cu3V2O10H2,3.315616,,
Cu3Ba1O4,1.441482999999999,,
Ba4S12Cu16,1.588301999999999,,
Ba2S6Cu8,1.234898,,
La4Ba1Cu5O12,2.156814,,
Ba1Ga1Ge1D1,0.4111869999999999,,
Ba1Ga1Sn1D1,0.649237,,
Ba2Mg2D8,3.133713,,
Ba1Mg2Fe1D8,3.497992,,
Ba2Mg4Os2D16,3.280273,,
Ba2Mg4Ru2D16,3.158131,,
Ba2Mn2Sb2F2,1.62641,,
Ba4Sb4Se8F4,1.777508,,
Ba1Xe5Nb2F22,4.354392,,
Ba1Xe5Ru2F22,3.569382,,
Ba1Xe5Sb2F22,4.353986,,
Ba4Mn4P4F8O16,2.707885,,
Ba1F2,8.548742,,
Ba4F8,8.860323,,
Ba1F2,8.965160000000001,,
Ba4F8,8.865744,,
Ba4F8,7.739469,,
Ba1Li1F3,8.627663,,
Ba4V4F16O4,3.878116,,
Ba2Pd2F8,3.616388,,
Pb4Ba2I2F10,3.80248,,
Ge1Ba1F6,7.79403,,
Ba2Ni2F12,3.395858,,
Pb1Ba1F6,4.916894,,
Ba1Si1F6,9.735936,,
Ba4Fe4Mn4F28,2.8607329999999997,,
K4Ba4Fe4O12,4.440336,,
Ba2Fe4Se8O24,3.235301,,
Ba1Fe2P4O14,3.98271,,
Ba4Fe8S8O4,2.809364,,
Ba8Fe16O32,4.598756,,
Ba2Fe4O8,4.6638459999999995,,
Ba2Y2Fe4O10,1.236991,,
Ba2Fe6P6O24,1.126695,,
Ba2Fe8O14,3.239828,,
Ba1Sr1Fe4O8,4.69034,,
Ba1Sr1Fe4O8,2.637153,,
Sc2Ba2Ga2Zn6O14,4.053545,,
Y2Ba2Ga2Zn6O14,3.918829,,
Ba4Ga8P8,1.838189999999999,,
Ba8Sb16Ga16,0.462276,,
Ba2Ga4Se8,2.728743,,
Ba2Ga8S14,3.438388,,
Ba2Ga8Se14,2.40517,,
Ge8S24Ba8,3.319794,,
Ba4Ge8O20,3.367216,,
Ba4Ge8P8,1.145791,,
Ba4Ge8S20,3.227556,,
Ba2Sn2Ge6O18,4.38803,,
Ba2H2I2,3.6393169999999992,,
Ni3Ba1V2O10H2,3.158244,,
Sn4Ba2O8H4,2.752483,,
Ba4H8,3.786666,,
Li1Ba1H3,3.144592,,
Ba2Pd2Na2H6,2.241207,,
Ba2O6H4,0.636103,,
Ba2Hf2N4,2.169353,,
Ba4Hf4S12,2.000369,,
Ba6Hg6O12,3.698758,,
Hg1Ba1O2,3.777862,,
Hg4Ba4S8,2.133733,,
Ba4I8,4.405084,,
Ba3I6,3.99261,,
Ba8I16,4.420592,,
Ba1Pd1I4O12,3.584594999999999,,
Ba4In8P8,0.8156349999999991,,
Ba2In4Te8,1.639885,,
Ba4K4Mn4O16,3.247557,,
Nb4Ba4K4S16,2.907466,,
Ba4K4P4S16,3.356883,,
Ba4K4P4Se16,1.94581,,
Ba4K4Sb4Se12,2.527399,,
Ba2K8V4S16,2.507448,,
La4Ba4Sb8Se24,1.13567,,
Ba2La4Mn2S10,2.037552,,
Ba2La4Ti6O20,3.253416,,
Ba2La4Ti6O20,3.250478,,
La4Ba2Pd2O10,4.216274,,
La4Ba2Pd2O10,4.216907,,
Ba2Pt2La4O10,3.744243,,
Ba2La4Zn2S10,2.368477,,
Li2Ba2P2,1.623441,,
Ba1Li1P1,1.330033,,
Ba2Sb2Li2,1.283973,,
Mn1V2O8Ba1Li2,3.417657,,
Ba4Ni4Lu8O20,3.0214,,
Ba4Lu8S16,2.606486,,
Ba4Lu8Se16,2.199,,
Ba4Lu8Te16,1.467814,,
Ba2Te4Mg2O14,3.301185,,
Ba1Mg2P2,1.772545,,
Ba1Mg2Sb2,1.406465999999999,,
Ba8Mn8O24,1.958445,,
O6Mn2Ba2,3.680355,,
Ba4Mn4O12,2.944704,,
Ba6Mn6O18,3.036633,,
Ba6Mn6O18,3.642477,,
Mn4Rb4Ba4O16,3.193,,
Ba1Sr2Mn2Si4O14,3.153453,,
Ba1Mn2O3,1.18254,,
Y4Ba4Mn8O24,0.332586,,
Y2Ba2Mn4O12,1.852574,,
Y2Ba2Mn4O12,1.32196,,
Ba2Mn4O16,2.903162,,
Ba1Mn2P2,1.164446,,
Ba1Mn2Sb2,0.8851079999999991,,
Ba4Mn12P12O48,0.994289,,
Ba4Mo4O16,0.3064179999999999,,
Ba2Mo4Se4O22,3.507531,,
Ba2Mo4P4O24,4.006198,,
Ba2Te2Mo4O18,3.697778,,
Ba1Mo4P2O16,3.058587,,
Ba1Ta1O2N1,1.449143,,
Ba4N8O16,4.310362,,
Ba4N8O24,5.606368,,
Ba4N8O24,5.611459,,
Ba4Si4N8,4.000655999999999,,
Ba2Zr2N4,2.011504,,
N12Ba2,4.998455,,
Na3Ba3P3,1.522375,,
Ba1Nb2V2O11,3.307008,,
Ba2Nb4O12,3.051995,,
Ba2Nb4O12,3.948421,,
Ba4Nb8O24,4.275379,,
Ni2Ba2O4,2.849834,,
Ba2Ni2O6,3.121861,,
Ba2Ni2O6,3.118025,,
Ba2Ni2S4,0.4104379999999999,,
Ba1V2Ni2O8,3.847709,,
Ni4O8Ba1,1.291685,,
Ba2Ti12O26,3.868306,,
Ba1V2P4O14,3.252728,,
Ba2Zn2S2O2,3.306205,,
O2Ba2,4.216795,,
Ba2O2,3.668389,,
Ba1O1,3.353773,,
Ba4S4O8,2.587788,,
Ba3Zn3O6,3.931931,,
Ba1O2,3.818634,,
Ba1O2,3.821415,,
Ba2Pb2O6,0.551307,,
Ba2Pb2O6,0.6676989999999999,,
Pb2Ba2O6,0.349271,,
Ba2Pb2O6,0.344873,,
Ba3Ru3O9,0.020503,,
Ba4Ru4O12,0.238111,,
Ba6Si6O18,3.880355,,
Ba1Sn1O3,1.884762,,
Ba6Tc6O18,0.874243,,
Ba2Te2O6,3.572265,,
Ba1Ti1O3,3.836902,,
Ba1Ti1O3,2.940708,,
Ba1Ti1O3,2.868956999999999,,
Ba1Ti1O3,1.881988,,
Ba6Ti6O18,2.991431,,
Ba1Ti1O3,3.007174,,
Ba6Ti6O18,3.18904,,
Ba4W4O16,4.238375,,
Ba2Pd2Y4O10,3.779314,,
Ba3Ti6O15,2.967104,,
Ba4Ti8O20,4.127639,,
Ba3Ti6O15,3.156708,,
Ba4V4P4O24,3.621056,,
Ba2Pd2Se4O12,3.398071,,
Ba1Sb2O6,4.472186,,
Ba12Ta24O72,3.532764,,
Te4Ba2O12,2.870829,,
Te4Ba2O12,2.843698999999999,,
Te4Ba2O12,2.894158,,
Ba3V6O18,4.004271,,
Ba2V2Si4O14,3.910094,,
Ba2V2Si4O14,3.887228,,
Ta4Ba2Sr2O14,3.499733,,
Ba2Te4Zn2O14,3.077881,,
Ba1Sn1P2O8,5.504449999999999,,
Ba2V6O16,2.76819,,
Ba2V6O16,2.894688,,
Ba2Ti8O18,3.993675,,
Ba4V16O36,2.420056,,
Ba2P20,1.890551,,
Ba4Rb4P4S16,3.340027,,
Ba4Se12P4,3.058269,,
Ba1Zn2P2,0.410171,,
Ba4Pt8P12,0.4965179999999999,,
Ba2P6,1.149461,,
Ba4P12,2.025793,,
Ba4Te8P16,1.764218999999999,,
Ba2P16,1.419515,,
Pd2Ba2S4,1.40462,,
Pd4Ba2S8,1.775619999999999,,
Pt8Ba4S12,2.057922,,
Ta4Ba4Rb4S16,3.335663,,
Ba4Rb4V4Se16,1.6770230000000002,,
Ba2Rh4Si18,0.435347999999999,,
Ba1S1,3.075817,,
Ba4Sn4S8,2.272984,,
Ba4S8,2.665156,,
Sn4Ba4S12,1.584559,,
Ba6Sn12S18,1.625737,,
Ba4Te4S12,2.667696,,
Ba2V2S6,0.743622999999999,,
Ba4V4S12,0.615266999999999,,
Ba4Zr4S12,1.8436549999999992,,
Ba4S12,1.939723,,
Ba2S6,2.433895,,
Ba4Y8S16,2.699425,,
Ba4Sn8S20,2.3996329999999992,,
Ba8Sb8Te24,0.6884089999999999,,
Ba4Zn8Sb8,0.404197999999999,,
Ba4Sc8Te16,1.157223,,
Ba1Se1,2.026515,,
Ba1Se1,2.781561,,
Ba4Se8,1.406809,,
Ba2Se6,1.846117,,
Ba4Y8Se16,2.218158,,
Ba8Si16,1.161325,,
Ba1Sn2,0.164492,,
Ba1Te1,2.326601,,
Ba1Te1,1.479534,,
Ba2Te4,0.986279,,
Ba2Te6,1.398796,,
Ba4Y8Te16,1.499468999999999,,
Ba8Bi4Fe4S20,1.988364,,
Ba8Bi4Ga4S20,3.015018,,
Ba8Bi4Ga4Se20,2.286056,,
Ba8Ga4Bi4Te20,1.605285,,
Ba4Bi2In2S10,2.166471,,
Bi2Ba4Se10In2,1.671039,,
Ba2La1Bi1O6,3.168754,,
Ba2Lu1Bi1O6,2.915971,,
Ba8Ru4Bi4O24,0.570269,,
Ba2Bi1Sb1O6,2.603709,,
Ba2Bi1Sb1O6,2.665808,,
Ba2Bi1Ta1O6,3.536689,,
Ba4Bi2Ta2O12,3.467661,,
Ba2Bi1Ta1O6,3.69967,,
Ba2Bi1Y1O6,3.33364,,
Ba8Mn8Bi8O4,1.082337,,
Se6Bi4O4Ba4,1.8545269999999991,,
Ba6Bi6O18,0.308893,,
Ba2Cu1Br1O2,3.883264,,
Br1Ba2H3,2.903121999999999,,
Ba4In2O6Br2,3.07181,,
Ba2N1Br1,1.959625999999999,,
Ba4Br2P14,2.281634,,
Ba2Ca1Mo1O6,3.092068,,
W4Ba8Ca4N16,2.759326,,
Ba4Pd6Ca2O12,3.00999,,
Ba2Ca1Te1O6,4.62327,,
Ba12Sn8P16,1.325772,,
Ba2Ca1W1O6,4.067704,,
Ba8Cd4S12,3.099256999999999,,
Ba8Cd4Se12,2.462939,,
Ba8Cd4Te12,2.116825,,
Ba8Sb12Cd8K4,0.7130500000000001,,
Ba4Cd4Sb6,0.487267999999999,,
Ba8Ce3Sb4O24,3.583574,,
Ba2Ce1Pt1O6,3.005965,,
Cs4Ba8Sn4S16Cl4,3.605466,,
Ba2Cu1Cl1O2,3.944477,,
Cl1Ba2H3,0.397053999999999,,
Ba4In2O6Cl2,3.201662,,
Ba4Mn2Si4Cl2O14,2.643673,,
Ba2N1Cl1,1.9465439999999992,,
Ba2P1Cl1,1.893812,,
Ba4P14Cl2,2.140451,,
Ba8Co4Cl24,4.285647,,
Co2Cu4Ba4S4O4,2.407132,,
Ba4Co2Ge4O14,3.281079,,
Ba8Co4O16,3.015257,,
Ba8Co4O16,2.896798,,
Ba4Co2Si4O14,4.470853,,
Ba4Co2Si4O14,4.91743,,
Ba8Cr4Nb4O24,2.639874,,
Ba8Cr4O16,3.267407,,
Cs1Ba2Nb3O10,2.569273,,
Ba4Cu2F12,4.707858,,
Ba4Cu2Ge4O14,3.373547,,
Ba8Cu4I4O8,3.852441,,
Te2Cu2Ba4O12,2.736893,,
Ba2Cu1Te1O6,1.965293,,
Ba2Cu1W1O6,2.702701,,
W1Cu1Ba2O6,2.700867,,
Ba4Cu2Si4O14,3.607881,,
Ba4Cu2Si4O14,3.351243,,
Ba2Cu1P2O8,3.435776,,
Ba4Cu6Li2O12,1.815415,,
Ba4Cu6S10Na2,1.741767,,
Ba4Cu6V2S12,1.670224,,
Ba8Pd4D16,2.321144,,
Mg1Ba2D6,3.806139,,
Os1Ba2D6,3.105257,,
Pt2Ba4D12,2.4258,,
Ru1Ba2D6,3.194025,,
O6F2Ba4In2,3.458318,,
Ba2N1F1,1.962762,,
Ba2F2Fe2S2O1,3.472429,,
Ba2Se2Fe2O1F2,3.441692,,
Ba2F2Mn2Se2O1,2.837282,,
Ba8Sn4F8S12,3.3258,,
Ba8Sn4F8Se12,2.603566,,
Ba4Pd2F12,3.933191,,
Ba2Zn1F6,7.310396,,
Ba4Fe2Ge4O14,2.030303,,
Ba4Fe2V4O18H2,3.802825,,
Ba2Fe1Mo1O6,1.885416,,
Ba8Fe4O16,2.133662,,
Ba2Fe1W1O6,1.816087999999999,,
Ba8Sb4Fe4S20,1.844974,,
Ba8Fe4Se12,2.282588999999999,,
Ba4Fe6P12O44H2,3.814869,,
Y2Ba4Fe6O16,2.411467,,
Ba4Ge2Ga2N2,0.371357999999999,,
Ba4In2Ga2O10,2.726677,,
Ba8Sb4Ga4S20,2.916802,,
Ba8Ga4Sb4Se20,2.223655,,
Ba8Ga4Sb4Te20,1.548416,,
Ba4Y2Ga2Se10,2.464762,,
Ba4Ga2Y2Te10,1.011054,,
Ba8Ga8S20,3.827609,,
Ba8Ge4P8,0.932087,,
Ba8Ge4S16,3.232473,,
Ba4Ge2Te4Se4,1.439642,,
Ba4Ge2Se8,2.201578,,
Ba8Ge4,0.454478,,
Ba4Zn2Ge4S12O2,3.177629,,
Ba8Ge8Se20,1.8261649999999992,,
Ba8Te20Ge8,1.125572,,
Ba4Ir8Ge10,0.487105999999999,,
Ba4Mn2V4O18H2,2.015776,,
Ba4V6P12O44H2,2.5653,,
Ba4V6O18H2,3.043289,,
I1Ba2H3,2.978640999999999,,
Ba4Tl2O14H14,3.702915,,
Ba2Hf1S4,1.595811,,
Ba8Hg4S12,2.302946,,
Hg4Ba8S20,2.683308,,
Ba2I1Na1O6,3.924027,,
Ba4I2P14,2.407877999999999,,
Ba4I4O2,4.07501,,
Ba6Ru3In3O18,2.382611,,
Ba8S16In4,2.943493999999999,,
Ba4Sb2In2Se10,1.390939,,
Ba8Sb4In4Te20,1.101429,,
Ba4In2Y2Se10,1.901715,,
Ba4In2Y2Te10,1.302361,,
Ba4In4O10,2.12527,,
Ba4La2Ru2O12,2.21815,,
Ba2La1Ru1O6,2.245301,,
Ba2La1Ru1O6,2.229281,,
La2Ba2Mn1W2O12,2.417233,,
Ba2Li1Re1O6,2.92142,,
Ba8Si12Li4,0.353848999999999,,
Nb2Ba4N8Li6,3.325352,,
Ta2Ba4N8Li6,3.382136,,
Ba2Lu1Ru1O6,2.072719,,
Ba2Mg1Te1O6,3.318005,,
Ba2Mn1Mo1O6,1.528237,,
Ba8Mn4O12,3.467338,,
Mn1Ba2Te1O6,1.780556,,
Ba2Mn1W1O6,2.501739,,
Ba8Mn4S12,2.699251,,
Ba12Sn4P12,1.358469999999999,,
Ba8Mn8Sb8O4,1.383378,,
Ba4Mn6Sb4O4,1.335622,,
Ba2Ni1Mo1O6,3.223687,,
Ba2Zn1N2,1.247396999999999,,
Ba8Nb4N12,2.8514489999999992,,
Ba8Ta4N12,2.933801,,
Ba8V4N12,2.249624,,
Ba4Si10N16,4.067399000000001,,
Ba2Na1Re1O6,2.987835,,
Ba2Y1Nb1O6,4.272385,,
Ba2Te2Nb6O21,3.482821,,
Ba4Te2Ni2O12,3.66465,,
Ba2Ru7O18,0.1013879999999999,,
Ba4Te2O2,2.592886,,
Ba2Te2Ta6O21,4.137619,,
Ba2Pd1O3,1.664447,,
Ba8Zn4O12,4.274529,,
Ba2Pb1O4,2.131659,,
Ba2Sn1O4,4.184926,,
Ba8V4O16,2.648443,,
Ba8Re4O20,0.135153,,
Ba8Tl8O20,0.316901,,
Ba8W4O20,4.032197,,
Ba2Y1Os1O6,1.904508,,
Ba2Y1Ru1O6,2.096706,,
Ba2Zn1Te1O6,2.052034,,
Ba2Ti1Zr1O6,3.575074,,
Ba4Si4V2O16,3.914627,,
Ba4V2P4O18,3.66062,,
Ba4V2P4O18,3.660796,,
Ba4V6O18,2.979878,,
Ba4Re12S22,2.033251,,
Ba8Zn4S12,2.926276,,
Ba8Zn4S12,3.017851999999999,,
Ba4S6,2.608657,,
Ba8Sn4S16,2.873422,,
Ba8Ti4S16,2.868585,,
Ba2Zr1S4,1.382358999999999,,
Ba4Sb4Zn2,0.7903310000000001,,
Ba16Sb24,0.365849,,
Ba8Zn4Se12,2.642089,,
Ba4Se8Si2,3.160398,,
Ba8Sn4Se16,2.009498,,
Ba8Sn4Se20,2.064662,,
Ba4Te8Si2,1.777488,,
Ba8Si4,0.4228579999999999,,
Sn4Te20Ba8,0.397611,,
Sn4Ba8,0.4266879999999999,,
Ba8Zn4Te12,1.9851489999999992,,
Ba6Bi2N2,1.29263,,
Bi2Ba6Na2O12,3.133697,,
Ba6Te2Bi4O18,2.97382,,
Ba12Br4Fe4S16,2.253771,,
Ba12Fe8Br8O20,4.430853,,
Ba3In2Br2O5,2.583724,,
Ba6Co2C6N6,1.284792,,
Ba6Ir2C6N6,1.239799,,
Ba6Rh2C6N6,1.051796,,
Ba6Ca2Ru4O18,2.646017,,
Ba6Ca4Si4N12,2.550641,,
Ba3Cd2Sb4,0.136241,,
Ba12Ga4Se16Cl4,3.592489,,
Ba6In2S8Cl2,3.782858,,
Ba6In2Se8Cl2,3.212567999999999,,
Ba6Cu4Cl4O8,2.788271,,
Ba12Fe8Cl8O20,4.476151,,
Ba3In2Cl2O5,2.731665,,
Tl2Ba3Cl2O5,0.07078,,
Ba6Co2Sb4O18,3.033237,,
Ba6Cr2O10,2.761462,,
Ba6Cr4Mo2O18,2.535845,,
Ba6Cr4W2O18,3.443403,,
Ba6Cr4S12,1.712328,,
Ba3Y2Pt1Cu2O10,3.15499,,
Ba3In2O5F2,3.029197,,
Ba3Nb1Fe3Si2O14,3.943544,,
Ba3Ta1Fe3Si2O14,4.042596,,
Ba12Ga4P12,1.203054,,
Ba3Ga2Ge4O14,3.808892,,
Ba12Ga8N16,2.497458,,
Ba6Ga4S12,3.6641269999999992,,
Ba12Ge4Mg4N16,2.269339,,
Ba12Ge4O4,0.740163,,
Ba12Ge4S20,3.047259,,
Ba12I8Si4,0.673096,,
Ba3In2O6,2.010255,,
Ba6In4P8,1.7349199999999991,,
Ba3Sb4Li4,0.072572,,
Ba3Mg1Nb2O9,4.004843,,
Ba6Mg2Ru4O18,1.663307,,
Ba6Mg2Sb4O18,4.344349,,
Mn1Nb2Ba3O9,2.644057,,
Ba12Mn4Sb8O36,2.613935,,
Ba3Mn2O8,3.208389,,
Ba6Sb2N2,1.371731,,
Ba3Zn1N2O1,1.195659,,
Na2Ba6Ru2O12,2.477532,,
Sb2Ba6Na2O12,4.386678,,
Ba3Sr1Nb2O9,4.209676,,
Ba3Zn1Nb2O9,4.051228,,
Ba3Nb6Si4O26,3.64162,,
Ni2O8Ba6,3.444255,,
Ba6Ru4Ni2O18,2.452151,,
Ba6Ni2Sb4O18,1.859282,,
Ba6Ni2Sb4O18,3.965599,,
Ba3Te1Zn3P2O14,4.682346,,
Ba12Sb8O4,0.7575940000000001,,
Ba3Zn6Si4Te1O20,4.413031,,
Ba6V4S8O6,2.04948,,
Ba6Se8P4O8,2.145506,,
Ba9Sb6O18,3.875721,,
Ba3W1O6,3.999236,,
Ba6Te4O18,3.994435999999999,,
Ba6P28,2.420279,,
Ba3P2S8,3.025725,,
Ba12P16Sn8,1.331125999999999,,
Ba6P8,1.104792,,
Ba6Si8P12,1.050732,,
Ba12Si4S20,3.786797999999999,,
Ba6Ti2S10,2.170885999999999,,
Ba6Zr4S14,1.261613,,
Ba3Zr2S7,1.246536,,
Ba9Ta6S24,1.266143999999999,,
Ba12Sn8,0.740207,,
Bi6Ba8K2O2,1.283169,,
Ba16Br8Si12,0.6891779999999991,,
Ba4Cu1Li1C2O10,2.417224,,
Ba4Cu1Na1C2O10,2.535799,,
Ba8Cd6P12Li4,1.08276,,
Ba4Ce1Mn3O12,3.347246,,
Ba8Na2Ge6S20Cl2,2.793652,,
W2Ba8Cl4N8,3.052054,,
Ba8Ga4Mn2S12F8,3.772492,,
Ba8Y4Fe4O22,1.592391,,
Ba8Se20Fe6,1.418013,,
Ba8Ga4S14,3.543697,,
Hf3Ba4S10,1.395581,,
Ba8In4Te4S10,2.798413,,
Ba8In4Te4Se10,2.566691,,
K2Ba8Sb6O2,1.647787,,
Ba8Nb6Li2O24,3.913264,,
Ba4Sb3Li1O12,2.993319,,
Ba8Ta6Li2O24,4.418531,,
Ba8Mg2Si4N12,2.51766,,
Ba8Mn6O20,2.301583,,
Ba4Na1Sb3O12,3.066388,,
Ba8Nb4O18,4.972639999999999,,
Pt2Ti4Ba8O20,3.422834,,
Ba8Ru6O20,1.057019,,
Ba8P4O2,1.658909,,
Rb2Ba8Sb6O2,1.438586,,
Ba4Sb2O1,1.15696,,
Ba8Pt2O12,3.316706,,
Ba32P24,1.354461,,
Ba8Sb4Si2Se22,1.653768,,
Ba10Ru4O18Br4,2.485171,,
Sb10Ba10Cd4F2,0.110964,,
Ba5Cd2Sb4O2,0.394866,,
Ba10Ta4Cl4O18,4.869798999999999,,
Ba10Cr2N10,0.460338,,
Ba10Ga12D4,0.858482,,
Ba10In4Sb12,0.4382379999999999,,
Y8Ba5Mn4O21,3.020748,,
Ba10Ti4N12,2.376368,,
Ba5Nb4O15,3.859655,,
Ba5Nb4O15,3.896832,,
Ba10Ru4O20,1.993773,,
Ba5V5O14,1.245215999999999,,
Ba20P16,1.52001,,
Ba10Sb8,0.6995939999999999,,
Ba20Sb16,0.736406,,
Ba6Ru2Pt1Cl2O12,2.535892,,
Ba6Mg7D26,3.921646,,
Rb4Ba12Sb10O2H2,1.482949,,
W3Lu2Ba6O18,3.794459,,
Ba6Ni5O15,2.365772,,
Ba7In2Se6F8,2.046032,,
Ba8Bi4O1H2,1.070364,,
Ba8Co1Nb6O24,2.841451,,
Ba1,0.0569169999999999,,
La6Bi2Be2S14,2.393182,,
Be24Cl48,7.966013,,
Be9Cl18,7.658965,,
Be12Cl24,7.960891,,
Be2Cl4,7.80522,,
Be16Cl32,7.891557,,
La6Cr2Be2S14,1.980339,,
Y6Cr2Be2S14,1.942104,,
Cr8Be4O16,3.815743,,
Be12F24,10.150669,,
Be12F24,10.202227,,
F6Be3,10.634692,,
Be3F6,10.323668,,
Rb4F12,3.79595,,
La6Ga2Be2S14,1.914405,,
Be6H12,6.545713,,
Be2I4,5.087285,,
Be16I32,5.176865,,
La6In2Be2S14,2.472746,,
K8Be4O8,4.318896,,
K4P2Be1,1.804255,,
La6Lu2Be2S14,2.31611,,
La6Sb2Be2S14,2.070018,,
La6Sc2Be2S14,1.925937,,
Li4Be4N4,3.871775,,
Li2Be2P2,1.802117,,
Li2Be2Sb2,1.389026,,
Na2Be2Sb2,1.532692,,
Na16O16Be8,4.401244,,
Be2O2,9.309576,,
Be1O1,8.61662,,
Be1O1,8.617914,,
Be1O1,10.114658,,
Be4O4,8.884406,,
Be1O1,10.121819,,
P16Be8,1.547868,,
Be1S1,4.087134,,
Be1S1,4.095618,,
Be1Se1,0.596229,,
Be1Se1,3.497602,,
Be1Te1,2.688552,,
C1Be2,1.912293,,
Be2C1,1.910955,,
P2Ca1Be2,1.400491,,
Te14Cl12Be4,1.904917,,
K4Na8Be4O10,4.002883,,
P2Mg1Be2,1.296660999999999,,
Sr2Be4N4,3.026602,,
Be3N2,4.027874,,
Be6N4,4.650154,,
Be24N16,4.55563,,
Be6P4,0.7755219999999999,,
Be48P32,0.72909,,
Be24P16,1.468813,,
Ca2Be4N4,3.728212,,
Te1Be4O7,2.892269,,
Pt1Be5,0.311739,,
Bi10Mo3O24,3.439148999999999,,
Pt1Bi12Cl12,1.356957,,
Bi12Ge1O20,3.435113999999999,,
Bi12Mn1O20,0.524542,,
Bi12Pb1O20,2.687305,,
Bi12Si1O20,3.440852,,
Bi12Ti1O20,3.340154999999999,,
Bi14Pd1Br16,1.375046,,
Bi2Cd2Br2S4,2.510693,,
Bi4Cd4Se8Br4,2.084981,,
Bi2Se4Cu6Br2O16,2.703912,,
Fe2Bi2S4Br2,2.492673,,
Bi4Mn4S8Br4,2.533085,,
Bi2O2Br2,3.089666999999999,,
Bi4S4Br4,2.654432,,
Bi4Se4Br4,2.217672,,
Bi8Br8,0.1179559999999999,,
Bi4Br12,3.63016,,
Bi2Br6,3.610234,,
Te4Bi2Br8,1.523487,,
Bi4Ca4F4O16C4,3.792248,,
Bi2S12N6H12C6,3.191043999999999,,
Bi2Rb2S8N8C8,3.514585,,
Bi1Cs2S6Na1N6C6,3.460107,,
Ca2Cu2Bi2,0.119835,,
Ca4Bi4Li4,1.042754,,
Bi4Ca4Li4,1.143645,,
Bi2Ca4Na6O12,3.005685,,
Bi1N1Ca3,1.019972,,
O4Cl2Cd2Bi2,4.025217,,
Bi4Cd4S8Cl4,2.728773,,
Bi2Cd2I2Se4,1.945783,,
Cs8Bi2Cl24Sb2,1.277137,,
Bi2Se4Cu6Cl2O16,3.042789,,
Bi2Cl2F16,3.883864,,
Bi8Mn8S16Cl8,2.781786,,
Bi2Cl2O2,3.545359,,
Pb2Bi2Cl2O4,3.014051,,
Bi4S4Cl4,2.703582,,
Bi4Se4Cl4,2.19718,,
Bi2Te2Cl2,1.843069999999999,,
Bi2Cu2Cl4S2,1.634333,,
Bi4Cl12,4.456338,,
S8N6Bi2Cl8,2.871467,,
Hg8Bi2S4Cl10,3.215368,,
Bi2Tl6Cl12,3.785939999999999,,
Bi2Co2O6,3.004816,,
Bi4Co4P4O20,4.198207,,
Zr1Co1Bi1,1.449725,,
Bi4Cr4O12,3.211623,,
Bi8Cr8O24,2.778594,,
Bi2Cr2O6,2.904385,,
Cs1Bi1F6,4.914777,,
Cs4Bi4Ge4S16,2.561091,,
Cs2Bi2Nb4O14,3.680538,,
Bi2Cs2O4,3.301995,,
Cs4Bi4S8,2.348586,,
Cs4Bi4Si4S16,3.13981,,