formula,bg,formation_energy,mp-id
Ta4Cu6K6S16,3.245207,,
Ta4Cu6K6Se16,2.777628,,
La6Cu6Sb8,0.56827,,
Cu6Mo4O18,3.058345,,
N1Cu3,0.8982300000000001,,
Sr12Cu6N10,1.477418,,
Na1Cu3Te2,0.949236,,
Nb1Cu3S4,2.643234,,
Nb1Se4Cu3,2.23017,,
Cu3Nb1Te4,1.622069999999999,,
Cu6Nb4O16,3.068925,,
Pb1Cu3Sn4O12,2.9403,,
Sr1Cu3Sn4O12,2.697548,,
Tl2Cu3Se6O18,2.50121,,
Cu6P2O8,1.994731,,
Cu3V1O4,1.787046,,
Te4Cu12O24,2.811916,,
Cu6P4O16,3.5663419999999992,,
Cu6V4O16,2.831926,,
Cu6V4O16,2.965922,,
Cu6P2S8,2.347933,,
Cu6P2Se8,0.994821,,
Rb2Cu6S4,1.535133999999999,,
Tl2Cu6S4,1.242963,,
Cu12Sb4S12,1.453064,,
Sb4S12Cu12,1.908431,,
Cu3Sb1S4,0.31537,,
Sb2Cu6S8,0.256838,,
Cu6Sb2S8,0.349505999999999,,
Cu3Ta1S4,2.935068,,
V1Cu3S4,1.982861,,
Ta2Cu3S8Tl3,2.82397,,
Sb4Cu12Se12,1.344112,,
Sb1Cu3Se4,0.1133209999999999,,
Y6Cu6Sb8,0.680335,,
Tl2Cu6Se4,1.006474,,
Cu3Ta1Se4,2.505716,,
Cu3V1Se4,1.698735,,
Ta1Cu3Te4,1.8420059999999991,,
V1Cu3Te4,1.212847999999999,,
Cu4Ni1Ge2S7,1.158871999999999,,
K2Cu8P6O24,3.561952,,
K2Y4Cu4Se9,1.766265,,
Na2Tl6Te4Cu8O24,3.014958,,
Na4Cu8S6,1.073056,,
Na4Cu8S6,1.076068,,
Cu4Ni1Si2S7,0.953617,,
Cu8O6,2.142684,,
Cu8P4O18,3.263284,,
Cu4P10Sn1,1.030086,,
Cu8Si2P16,1.905449,,
Cu16Sn4S16,0.681497,,
Cu4Ti1S4,2.400841,,
Cu10S4O36H28,3.597899,,
Cu5V2O12H4,3.39049,,
K12Cu20O16,3.011969,,
Cu5Si4Li2O14,3.727905,,
Tl2Cu5Lu3Se8,1.93922,,
Cu5Na2Si4O14,3.637525,,
Cu5Na8O10,1.304016,,
Cu10P4O20,3.270677,,
Rb12Cu20O16,2.928149,,
Tl4Cu20Se12,0.659046,,
Sn2Cu6Fe1S8,0.317631,,
Sn1Cu6Fe2S8,0.981016,,
W2Cu12Ge2S16,2.021256,,
Cu6Hg3Sb4S12,1.085934,,
La4Mn1Cu6S10,2.469059,,
Te12Cu14O36F4,3.159132999999999,,
Ge2Cu16S12,1.604709,,
Cu16Si2Se12,1.305908,,
Cu9P4O20H2,2.949285,,
C8,0.112731,,
C8,4.134729,,
C4,4.442174,,
C2,5.294442,,
C4,0.0152649999999999,,
C60,1.891645,,
Fe4O8D4,3.25656,,
Fe2O4D2,3.185508,,
Mg12D12N12,3.508497,,
Se4N4O16D4,4.372337,,
Sr4N4D4,3.239242,,
Sr2N1D1,2.665139,,
Sr6Mg7D26,3.902675,,
Rb4Ga4D8,2.047628,,
Rb2N2D4,3.285561,,
O4D8,7.210956,,
O4D8,7.321311,,
Sb2S2F12O8D6,4.9634540000000005,,
K4Mg4N8D12,3.032192,,
K4Mg4N8D12,3.003096,,
Rb6Mg6D18,3.60044,,
N4D12,5.836004,,
Na2Ga2D8,5.765114,,
Ge4D16,5.332278,,
Pd1K2D4,3.88054,,
Rh2Li6D8,1.086197,,
D16Mg4Ni4Sr4,2.806096,,
Sr2Mg2D8,3.595068,,
Mg4Ru2D8,1.547719,,
S4O16N4D16,5.875148,,
N4Sr2D8,3.809064,,
Sr4N8D16,3.749753,,
Pd1Na2D4,3.415095,,
Sr8Pd4D16,2.500052,,
Sn2D8,4.667528,,
Mn2K6D10,3.782667,,
Rb6Mn2D10,3.644892,,
D10Pd2Rb6,3.71103,,
Rb6Pt2D10,3.646294,,
Mg2Fe1D6,4.186952,,
K1S2Fe3O14D6,3.122214,,
D24Li12Rh4,3.419089,,
Sr2Mg1D6,3.711407,,
La4Mg8D28,3.599881,,
Mn2Mg6D14,3.509482,,
Mg6Re2D14,3.719093,,
Mg4D16Fe2Na4,4.035433999999999,,
Ru2Na4Mg4D16,4.214017,,
Pt4D18Li10,0.5722389999999999,,
Dy8O4S8,3.11119,,
Dy8O4S8,3.497856,,
Dy2O2Te1,1.713916,,
Hg2Te4F20O4,4.119496,,
Hg6Nb4S2F20O8,3.199201,,
Hg6Ta4S2F20O8,3.365381,,
Na2Mn6F20,1.814571,,
Sb4F22N2H6,6.323947,,
Sb2Kr6F22,3.268315,,
Na1V1Zr2F11,3.437478,,
Ge10F24,5.657986,,
Sb8F48,5.135398,,
Pt1O4H8Sb2F12,3.769553,,
I4Sb2F12,1.289653,,
K8Mn6F24,2.451962,,
Rb4Mn6Na2F24,3.278748,,
Sb4Te8F24,1.512143,,
Sb4Xe2F24,4.474412999999999,,
Xe4F26N2O4,4.121619,,
Na10Ga6F28,7.416172,,
Pb16I4F28,3.793371,,
Ti6K10F28,2.631499,,
Ni1N2F14,2.208729,,
Re4Xe3F14O10,2.987893,,
Os2Sb4F28O4,3.078886,,
Xe2Sb4F28,3.831,,
Sb8F28,5.108363,,
Zn6Sr8F28,7.315039,,
Xe4O2F30Sb2,2.709265,,
Xe2Sb4F32,3.90146,,
Sb16F64,4.728322,,
Tl2Sb6F36,3.918539,,
Na2Fe2S2O8F2,4.443832,,
Se4Fe4F4O12,3.643544,,
Sr8Fe4O12F4,4.023165,,
Te4Fe4F4O12,3.452388,,
Hg4O4F4H4,2.934012,,
Mg4F4O4H4,6.659919,,
Sn4P4Na4F4O16H4,4.486176,,
F4,5.51894,,
Mn2P2F2O10H8,5.599137,,
N4S4O12F4H16,6.919377,,
Na2Ni2F2S2O12H8,5.8481,,
P2F2O8Na2N2H12,6.661529,,
Hg8P4F4O12,2.540564,,
I4F4O8,4.159333,,
Pb2F2I2,2.928402,,
Pb2I2F2,2.290238,,
In4O4F4,2.72434,,
K2Sr2Nb4F2O12,3.183349,,
Te6K2O12F2,3.974083,,
K1F1,8.170745,,
K1F1,7.828571,,
La2S2F2,2.447385,,
Se2La2F2,2.661026,,
La12Si4F4N16,3.042609,,
V2P2O8F2Li2,3.053499,,
Li1F1,9.663986,,
Li1F1,12.495444,,
Lu2F2S2,3.665933,,
Mg4N2F2,3.385604,,
Sr2F2P2Mn2,2.053426,,
Sr2F2Sb2Mn2,1.527922,,
Mn8P4F4O16,4.676775,,
Xe4F4N4O12,3.946777,,
Ti2N2F2,1.528893,,
S16N8O12F4,1.802435,,
S16F4O8N12,3.033335,,
S16N20F4,3.565876,,
F1Na1,8.450592,,
Na3S1O4F1,6.25057,,
Re6O18F6,3.991617,,
Sc2F2Se2O6,5.036189999999999,,
Tc4F4O12,3.874629,,
V2P2F2O8,2.55959,,
Rb2F2S2O8,4.605653,,
Tc4O24S4F4,4.358105,,
Rb1F1,7.353515,,
Rb1F1,8.622986,,
Y2F2S2,2.236915,,
Y4F4S4,3.646403,,
Sr2Sb2Se4F2,0.294039,,
Sr2F2Sb2Zn2,0.586011,,
Y8Se8F8,3.115516,,
Y4Se4F4,2.529718,,
Tl1F1,3.115524,,
Tl2F2,3.985867,,
Tl4F4,3.866188,,
Tl4F4,3.999244,,
Tl1F1,3.09753,,
Pb16Fe6F48,1.498324,,
Sr4Fe4P4O16F8,3.543762,,
Fe2F4,3.628333,,
Fe2Sr2S2O1F2,3.462042,,
Sr2F2Fe2Se2O1,3.342045,,
Ga2N4F4H10,4.162508,,
Ge4V8F8O16,2.899101,,
Ge4F8,5.182213,,
Ge4F8,5.324555,,
Xe4F8N4O12H4,4.187266,,
O16F4H4P4K4Mn2,1.913541999999999,,
Sn2F4N4O6H4,2.791621,,
K6S4F4O16H6,2.849997,,
Te4F8O8N4H12,2.213225999999999,,
F2N2,1.382362,,
Mo2F4O10N4H16,3.669351,,
Hg4F8,2.597874,,
Hg1F2,2.857386,,
Hg2F2,2.550732,,
Hg6S4F4,3.155077,,
F8I4O8Rb4,5.793376999999999,,
Na1K3P2O6F2,6.29565,,
Kr2F4,4.711035,,
Kr1F2,4.836491,,
Mg4F8,9.062868,,
Mg2F4,9.168098,,
Mg2F4,9.179841,,
Mg4F8,9.037448,,
Mn4F8,5.310656,,
Mn2F4,4.893693,,
Mn4F8,4.943633,,
Mn12Si4O16F8,4.11944,,
Xe1F2O4N2,3.862115,,
S9P3N15F6,3.476539,,
Na2V2F4O4,3.15517,,
Ni2F4,5.349953,,
Ni2F4,5.791046,,
Y8F4Si6O22,6.788829,,
Pb8F8O4,3.803183,,
Pb8O4F8,1.695945,,
Xe2O4F4,3.308832,,
Os4F8O12,3.346886,,
Te2V2O7F2,3.557084,,
Pb2Ti4O9F2,3.497354,,
Pb4F8,5.700419,,
Pb1F2,5.768142,,
Pd4F8,3.013269,,
Sr8Sn4S12F8,3.055516,,
Sr8Sn4Se12F8,2.283209,,
Sn4F8,4.210249,,
Sn4F8,4.206596,,
Sn16F32,3.187007,,
Sr1F2,8.801276,,
Sr4F8,9.069159,,
Sr4F8,9.880963,,
Sr2F4,8.707246,,
Sr1F2,9.338907,,
Ti2F4,3.963946,,
V4F8,3.732527,,
Xe1F2,4.3373,,
Zn2F4,6.288218,,
Zn4F8,6.511167,,
Zn2F4,6.297909,,
Te7O6F30,4.040822,,
Te7O6F30,4.033572,,
Na4Fe2S2F6O8,3.749291,,
Fe2F6,5.32496,,
Fe4F12,4.01951,,
Fe6F18,5.302704,,
Ga2F6,6.9676219999999995,,
K8F24,3.624174,,
K4Hg4F12,2.28954,,
Rb1Hg1F3,2.333737,,
Sn4I2F6,3.119227,,
Sn4I2F6,3.117676,,
I4F12,3.610634,,
In2F6,5.98117,,
In2F6,5.994182,,
Ir2F6,2.986603,,
O12F12K4Mn4P4,3.063858,,
K2Mn2F6,5.196043,,
K2Mn2F6,5.206948,,
K4Mn4F12,5.245857,,
K4Mn4F12,5.151135999999999,,
K4Mn4F12,5.343882,,
V8K8F24O8,4.065817,,
K2V2F6,3.735231,,
V4K8O8F12,4.249673,,
Ti2K6F6O8,4.157121,,
La4F12,7.697114,,
La2F6,8.843397,,
La1F3,7.693435,,
La1F3,8.322937,,
La6F18,7.464139,,
La6F18,10.182404,,
La6F18,10.211139,,
La2F6,9.899426,,
La1F3,7.281386,,
Mn4Na4F12,5.091779,,
F6O14Na4Mn2P4,1.956456,,
Rb2Mn2F6,5.546527,,
Mn6F18,1.434047,,
Mo1Na3O3F3,5.077043,,
Mo2F6,3.615009,,
Mo2F6,3.444349,,
Na2V2F6,2.20936,,
F24Ni8,2.412104,,
Rb8V8F24O8,4.114803,,
Rb8V8F24O8,4.13119,,
F24Tc8O16,4.300206,,
Rb2V2F6,4.143595,,
Rh3F9,2.385292,,
Rh2F6,2.97816,,
Sb2F6,5.614783,,
Sc2F6,8.664811,,
Sc1F3,8.633286,,
Sc1F3,8.639701,,
Tl4F12,2.318842,,
V2F6,2.519931,,
Y3F9,7.869972,,
Y6F18,10.36124,,
Y4F12,9.915125,,
Rb4Fe4F16,4.578993,,
Rb2Fe2F8,4.613815,,
Fe4Rb4F16,4.584334,,
Rb2Fe2F8,4.643638,,
Rb4Fe4F16,4.502527,,
Sr6Fe4O8F8,3.351251,,
Ge1F4,7.471647,,
P4F16H4,9.583405,,
K4Mn4F16O4H8,3.348853,,
Mn4F16O4Li4H8,3.422408,,
Rb4Mn4F16O4H8,3.428396,,
Tl4Mn4F16O4H8,2.592299,,
V4Na4F16O8H8,4.621461,,
Rb2V2F8O4H8,3.504187,,
Mn2F8O4N4H16,6.03437,,
Zn2F8O4N4H16,7.074359,,
Hf6F24,7.451003,,
Hg1Rb2F4,3.614911,,
Mn4F16K4,3.352594,,
Na2K2Mo2O4F8,2.931723,,
Na2K2W2O4F8,3.727913999999999,,
K6Tl6F24,4.082862,,
K4Mn2F8,4.790096,,
K4Pd2F8,4.127504,,
Li2Mn2F8,3.357247,,
Y4Li4F16,10.119321,,
F8Li6Mn2P4O12,2.992938,,
Sr2Mg2F8,8.851422,,
Sr2Mg2F8,8.378982,,
Na2Mn2F8,3.54748,,
Rb4Mn4F16,3.441296,,
Mn2F8Tl2,3.120476,,
Mn8F32,3.300555,,
Na10O32Mn6S8F8,1.947889,,
Ti4Na4F16,2.951647,,
V4Na8F16O4,4.149922,,
Na4Pd2F8,3.440588,,
Os8O8F32,2.389947,,
Os4F16O4,2.246404,,
Ru8O8F32,2.345559,,
Ru4F16O4,2.829121,,
Tc6O6F24,3.419674,,
W4F16O4,3.701474,,
Sn4O2F4,3.37508,,
Tc8F16O20,3.376209,,
Pb2Pd2F8,3.011875,,
Pb1F4,3.371,,
Sr2Pd2F8,3.449936,,
Pd2F8,2.750163,,
Pt2F8,3.138205,,
Rb4Tl4F16,4.344721,,
W8S8F32,4.219567,,
S8F32,6.232741,,
Se4F16,5.537088,,
Si1F4,10.044108,,
Sn1F4,5.242883,,
Te4F16,5.203724,,
Ti12F48,5.822247,,
V2F8,3.798694,,
Xe2F8,4.555889,,
Zr6F24,6.951645,,
Zr8F32,7.310895,,
Mn2Fe2F10O4H8,2.541717,,
Fe4F10O4H8,1.361585,,
Ga2Mn2F10O4H8,4.591834,,
Mn2K4F10O2H4,3.428032,,
V2K4F10O2H4,3.358878,,
Rb4Mn2F10O2H4,3.399389,,
Tl4Mn2F10O2H4,2.183264,,
Te2F10N2H4,4.22785,,
K2F10,2.084507,,
I2F10N4O8,3.14947,,
Na2K2Nb2O2F10,6.058466,,
Rb2K4Pd2F10,4.505492,,
Mn2Li4F10,3.795963,,
Rb4Mn2F10,3.556437,,
Xe4F20O8N4,4.224434,,
Nb8F40,6.270125,,
Os4O4F20,2.712083,,
Os4O4F20,2.811655,,
Pb4V4F20O4,3.34085,,
Sn4F10O2,2.8101089999999997,,
Tc2Xe2F10O8,3.460303,,
Os8F40,2.939499,,
P2F10,9.59711,,
Rb6Pd2F10,4.544184,,
Rb2Pd4F10,2.613858,,
Ru8F40,2.862598,,
Ta8F40,7.265315,,
Fe1Sn1F6O6H12,2.259449,,
Fe1Na1F6N2H8,5.152263,,
Li3Mn3Fe3F18,3.066091,,
Fe1Zr1F6,3.659929,,
F12O16Fe4P6K2,3.574904,,
Li2Fe4F12,1.383542,,
Rb4Fe8F24,1.385808,,
Li2Pd2Ga2F12,3.838037,,
Mn1Ti1F6O6H12,2.806257,,
Zn1Sn2F6O6H12,5.380673,,
Sb2F12N6H4,2.409853,,
Hg4Ni4F12O2,1.958635,,
Hg4Ni4S2F12,2.980502,,
Hg4Zn4F12O2,2.544808,,
Hg3S2Si1F6,4.467262,,
Hg8O2F12,1.68698,,
I2Se12Sb2F12,2.277935,,
I8F24O12,3.950436,,
Sb3F18I15,1.83753,,
Ir4F24,2.851339,,
Tl2K1Mo1F6,2.3942,,
Rb2K1Ni1F6,1.231477,,
Os1K1F6,3.60045,,
P1K1F6,9.464837,,
Rb2K1Rh1F6,4.511219,,
K1Ru1F6,3.578557,,
K2Na1Mn1F6,3.079591,,
K2Na1Ni1F6,1.139779,,
K2Na1Rh1F6,4.3454369999999995,,
K2Ni1F6,4.362207,,
Pd1K2F6,4.1966,,
Pt1K2F6,4.60789,,
Re1K2F6,4.056726,,
Tc1K2F6,4.343631,,
Zr2K4F12,8.079976,,
K3Mo1F6,3.666112,,
K3W1F6,2.287972,,
Li3Mn3Ti3F18,3.136149,,
Mn2Li2V2F12,3.001478,,
Li2Sr2Ni2F12,3.550813,,
Li1Os1F6,3.505471,,
Li1Ru1F6,3.498357,,
Mn6F36Li12,4.699208,,
Li2Nb1F6,2.06033,,
Li4Pd2F12,4.03632,,
Pd2Li4F12,4.036319,,
Li4Pt2F12,4.545018,,
Pt2Li4F12,4.546321,,
Li4Ru2F12,2.475436,,
V2Li4F12,3.212698,,
V2Li4F12,3.232506,,
Pd1Mg1F6,3.945322,,
Rb2Na1Mn1F6,3.063908,,
Mn2Na6F12,3.183352,,
Pt1Mn1F6,3.281122,,
Mn2Rb4F12,5.091735,,
Mn1Sn1F6,3.800742999999999,,
Rb2Na1Mo1F6,4.52042,,
Mo1F6,5.417175,,
Re4F24N4,3.760384,,
Sb1S2F6N1,3.256124,,
Rb2Na1Rh1F6,4.297385,,
Tl2Na1Rh1F6,3.922599,,
Na4Nb2F12,2.367276,,
Pt3Na6F18,4.765459,,
Tc2F12Na4,4.33818,,
V2Na6F12,3.528669,,
Rb2Nb1F6,2.265239,,
Ni1Pb1F6,2.655236,,
Pt1Ni1F6,4.083953,,
Rb2Ni1F6,4.191814,,
Sn16F24O4,3.942683,,
Xe4F12O2,4.250318,,
Os2O8F12Xe2,3.798658,,
Os4F12O8,2.188404,,
Pb2Zr6O8F12,4.140702,,
Pt1Pb1F6,3.766518,,
Sr2Pb2F12,1.125768,,
Zn1Pb1F6,3.457668,,
Pb4F12,2.785979,,
Pd1Pt1F6,3.05665,,
Rb2Pd1F6,4.411084,,
Pd1Zn1F6,3.664095,,
Pd1Zr1F6,3.990673,,
Rb2Pt1F6,4.678713,,
Pt1Zn1F6,4.178331,,
Rb1Ru1F6,3.631154,,
Tc1F6Rb2,4.405632,,
S3F18,8.547205,,
S3F18,8.541847,,
Sn2F6,3.767847,,
Zr1V1F6,3.701888,,
W4F24,6.585766,,
Xe4F12,4.090776,,
Ni2Fe2Na4F14,3.474505,,
Na4Ni2Fe2F14,3.459508,,
I2N2O2F14H2,4.289862,,
Ti2K4F14H2,6.519522999999999,,
K4Pd4Hf4F28,3.569113,,
I2F14,3.685194,,
K4Pd4Zr4F28,3.570819,,
K4Zr4V4F28,3.77775,,
Mn4F14Rb2K4,5.101859,,
K6Mn4F14,4.985866,,
Sb2K3F7O6N2,4.811494,,
Sb4Kr4F28,4.551986,,
Rb6Mn2F14,3.272286,,
Os8O12F28,1.513323,,
Pb8Rh4F28,3.847252,,
Rb6Ti2F14,4.598932,,
Re4F28,3.5635,,
Tl4Sn4F28,3.403916,,
Fe3O2H4F8,1.212788,,
F16Ge6,5.392652,,
Pb5I2F8,3.804256,,
Re4K8F32,3.255119,,
Pb1V2F8O2,4.196439,,
Se4Nb4F36,6.556507,,
Fe1Ga2Se4,1.603922,,
Fe4Ga12,0.956934,,
Fe4Ga12,0.948479,,
Li4Fe2Ge2S8,2.711176,,
Ge8O24Fe4Li4,4.050249,,
Ge4O12Fe2Li2,3.807246,,
Na2Fe2Ge4O12,3.957967,,
Pb2Fe2Ge6O20H8,2.794186,,
Fe1S2O8N4H10,4.356528,,
Fe2P2O10H2Li2,3.628334,,
Fe4O8H4,2.740647,,
Fe4O8H4,3.251323,,
Fe4O8H4,3.159462,,
Fe2O4H2,3.188851,,
K2Fe2P4H4O12,3.321819999999999,,
K2Fe2S4O18H4,3.290137,,
Fe2P2O10H4,3.477694,,
Fe2V2O10H4,3.40725,,
Rb2Fe2P4O12H4,3.318671,,
Fe2P6O20N2H10,3.864832,,
Mg2Fe1H6,4.191875,,
Fe2P6O12H12,3.885731,,
Fe2P6O18H12,3.842929,,
Sr2Fe1H6,3.777331,,
Re2Fe1O12H8,1.598253999999999,,
Fe2I4,2.881398,,
Fe2I6O18,3.468695,,
Tl4Fe4I12,2.938039,,
In4Fe4O12,3.278478,,
Fe1Mo2K1O8,3.621278,,
K2Fe2Mo4O16,3.3043,,
K2Na2Fe2Si8O20,3.231618,,
Fe4K4Na8O12,4.107702,,
K4Fe4Se8O24,3.086854,,
Fe2K2S4O16,3.25723,,
Fe2K4Na2O6,3.921885,,
K8Fe4O16,3.249666,,
K4Fe2P4O14,4.044327,,
K4Fe2P4S12,2.99136,,
Se12Fe2P4K4,2.563486,,
Fe4K12O8,2.1653,,
K6Fe2O6,3.586176,,
Fe4K12O16,1.862136,,
K12Fe4Se12,2.399019,,
Na2La2Fe2W2O12,1.933341,,
La4Fe4O12,1.470034,,
La2Fe2O6,3.663584,,
La2Li1Fe1O6,2.014245,,
La2Se2Fe1O2,2.827567,,
La6Fe2Mn2S14,1.942612,,
La6Ni2Fe2S14,2.438181,,
La6W2Fe2S6O12,0.7929100000000001,,
La6Fe2O12,2.014422,,
La8Fe2S14,2.693485,,
Mo4Fe2Li2O16,3.683816,,
Li2Fe2Se8O20,2.656651,,
Fe4Li4O8,3.423559999999999,,
Li2Fe2O4,2.894940999999999,,
Li2Fe2Si2O8,4.29951,,
Li4Fe4Se8O24,3.632581,,
Li4Fe4Si8O24,4.00541,,
Li2Fe2Si4O12,4.069965,,
Li4Fe4P8O28,3.887658,,
W8Fe4Li4O32,3.458067,,
Fe4Li4P4,0.788065,,
Li8Fe4Si4O16,3.69041,,
Li4Fe2Sn2S8,2.697087,,
Fe4Na8O16Li12,4.280291,,
Fe2N4Li8,2.080558,,
Lu6Fe6O18,2.571187,,
Mn4Fe2Sb2O12,2.087835,,
Sr2Fe1Mo1O6,1.633189,,
Sr2Fe1Mo1O6,1.488217,,
Sr2Fe1Mo1O6,1.515227,,
Mo2Fe2V2O14,3.413017,,
Mo8Fe4Na4O32,3.350885,,
Rb1Fe1Mo2O8,3.622001,,
Rb1Fe1Mo2O8,3.478282,,
Mo8Fe4S16,0.7759079999999999,,
Fe2N2,0.888219,,
Fe4Na4O8,4.57745,,
Fe2Na2O4,2.997786,,
Fe4Na4O8,4.601071,,
Na4Fe4Se8O24,3.123676,,
O12Si4Fe2Na2,4.106262,,
Na2Fe2S4O16,2.990534,,
Na1Fe1Se2O8,3.087123,,
W8Fe4Na4O32,3.655155,,
Ni4Fe2P6Na4O24,2.509166,,
Na4Fe2O8,2.91511,,
Fe2S6Na6O24,3.353768,,
Fe4Na12O12,3.737425,,
Fe4Na12O12,3.793055,,
Fe2P4Na6O16,3.585817,,
Fe4S12Na12,2.753939,,
Fe4Se12Na12,2.278679,,
Na8Fe2O6,2.549717,,
Fe4Na16O16,2.103291,,
Fe4Nb4O16,3.664837999999999,,
Fe4Nb4O16,3.706515,,
Fe4Nb4O16,3.608131,,
Nb1Fe1Sb1,1.227824,,
Fe4Nb8O24,2.275378,,
Ni4Fe4P4O20,3.437509,,
Sr2Ni4Fe2P6O24,3.273853,,
Fe2Ti4P4O20,2.276279,,
Fe2Te12O26,2.45628,,
Fe1Ti4P6O24,2.623593,,
Sr2Fe2O4,2.144439,,
Tl2Fe2O4,1.701498999999999,,
Rb6Fe2O6,3.420015,,
Sr4Fe2O6,2.816618,,
Fe2Ti2O6,1.93644,,
Fe2Ti2O6,1.925958,,
Y4Fe4O12,3.592552999999999,,
Y4Fe4O12,3.591186,,
Fe8Zr8O24,3.019368,,
Fe4P4O16,3.745159,,
Fe4P4O16,3.25714,,
Fe6P6O24,4.107827,,
Fe6P6O24,4.018929,,
Fe4P4O16,4.037229,,
Fe4Sb8O16,0.338167,,
Fe6V6O24,3.348052,,
Fe2V2O8,3.520204,,
W4Fe4O16,2.110922,,
Fe2Ti4O10,1.616234,,
Sr4Fe2Ta2O12,2.906471,,
W1Fe1Sr2O6,2.430601999999999,,
Fe2Ta4O12,2.453532,,
Rb2Fe2Se4O14,3.348228,,
Fe1Ti3O7,0.8249989999999999,,
Rb1Fe1Se2O8,3.361175,,
Fe4P4S12,1.471473,,
Fe2P4,1.844685,,
Fe1P4Si4,1.870505,,
Fe2P8,1.827933,,
Rb2Fe2S4,2.4768,,
Fe2Rb2Se4,2.084309,,
Rb12Fe4S12,2.821240999999999,,
Rb12Fe4S12,2.202172,,
Fe2S2,1.194286,,
Fe4S4,2.412437,,
Fe2S2,2.625475,,
Fe8S8,1.854927,,
Fe2S4,0.942185,,
Fe4S8,1.900951,,
Fe4S8,1.19332,,
Fe2S4,0.9418859999999992,,
Fe1V2S4,0.448320999999999,,
Fe4Te4Sb4,0.8308230000000001,,
Fe2Se2,1.422059,,
Fe2Se2,1.151936,,
Fe2Se2,2.21432,,
Fe2Se4,1.777346,,
Se8Fe4,1.255595999999999,,
Fe4Te4,1.092152,,
Fe2Te4,1.144405,,
Fe2Te4,1.140036,,
Fe2Ga1V1,1.131827,,
Fe4Ga4S10,0.7878259999999999,,
Ge2Fe4O8,1.413311,,
Fe4P6O18H6,4.094632,,
K4Nb8Fe4O26,1.658465,,
O8Fe2K3Na1,3.16958,,
K8Fe4O10,4.148409,,
K6Fe2O5,2.640353,,
Li6Fe4P6O24,3.699959,,
Mg2Fe4O8,2.521001,,
Mn2Fe4O8,1.66233,,
Na2Fe2Se2O1,2.78873,,
Fe4O24P6Na6,3.760446,,
Fe16Ni8O32,2.222574,,
Fe4S6O24,3.537513,,
Fe4Zn2Se8O24,3.184919,,
Pb2Fe4P8O28,3.675504,,
Sr2Fe4P8O28,3.770958,,
Sr4Fe8Se8O4,2.851733,,
Fe16O24,2.283818,,
Fe4O6,3.374736,,
O24Fe16,2.399116,,
Fe4O6,2.399709,,
Fe8O12,3.161522,,
Fe8O12,2.831893,,
Fe8O16Si4,2.042772,,
Si2Fe4O8,3.106546,,
Zn2Fe4O8,2.864736,,
Fe8P4O20,1.907567,,
Fe4O10P2,0.5341859999999999,,
Sr8Fe8O20,3.375442,,
Sr6Fe4O10,2.316447,,
Fe8Ti4O20,3.490287999999999,,
Fe8Ti4O20,3.275243,,
Fe16Ti8O40,3.054467,,
Sr6Fe4O12,3.176485,,
Fe4Te2O12,2.991315,,
Fe8W4O24,2.534151,,
Rb16Fe4O14,2.66171,,
Rb2Fe4Te6,1.507939,,
Rb8Fe4S10,2.518705,,
Tl2Fe4S6,2.120148,,
Ta18Fe4S12,0.248333,,
Fe2Sn1Ti1,1.623335,,
K1S2Fe3O14H6,3.228518,,
Na1Fe3S2O14H6,3.23356,,
S2O15Fe3H9,3.380891,,
Fe6P6Na2O24,1.095114,,
Na2Fe6V6O24,1.16288,,
Fe12Na4O20,2.352697,,
Na28Fe12O32,3.713291,,
Sr2Fe6P6O24,1.163161,,
Fe6O8,1.300365,,
Fe24O32,1.185824,,
Fe24O32,1.156775,,
Fe6O8,0.3811739999999999,,
Fe12O16,0.388154,,
Fe6O8,1.208446,,
Rb10Fe6O12,2.7766800000000003,,
Fe12P4O28,3.670633,,
Fe3S4,0.969277,,
Mg3Fe4V6O24,3.418229,,
Fe8Mn6V12O48,2.217037,,
Ni6Fe8P12O48,3.396976,,
Sr8Fe8O22,1.282586,,
Zn3Fe4V6O24,3.297063,,
Fe8O10,0.555422,,
Na1Fe7P6O24,1.10919,,
F8,5.284921,,
F4,5.42837,,
Sr4Ge2Ga2N2,0.527229,,
Ga2Ge2Te2,0.647722,,
Na2Ga2Ge4O12,4.153417,,
Ge4Ga2Na10,0.309776,,
Se4Ga4O16H4,5.365842,,
Na2Ga2H8,5.7579899999999995,,
Ga1Rb3P6O18H6,1.10836,,
Ga2N8H16Li2,4.301982000000001,,
Ga4I12Li4,3.110327,,
Ga4I12,3.291338,,
K4Ga4I16,3.591219,,
Ga4I16Li4,3.467446,,
Tl4I16Ga4,3.51481,,
Ga2Te2I14,2.573567,,
In2Ga2O6,2.800899,,
In2Ga2Zn4O10,2.851566,,
In2Zn8Ga2O14,2.610548,,
In2Ga2S6,2.571172,,
In2Ga2Se4,0.261163,,
In2Ga2Te4,0.282387,,
K4Na8Ga4O12,4.012121,,
K8Ga8S16,3.664115,,
Ga8K8S16,3.662228,,
K4Ga4Sb16,0.621721,,
K8Ga8Se16,2.702737,,
Te16Ga8K8,2.013284,,
Ga2P4K4Na2,2.093011,,
K16Ga8P16,1.850281,,
Ga8K16Sb16,1.629272,,
K12Ga4S12,3.790501,,
K12Ga4Se12,3.060028,,
K12Ga4Te12,2.335446,,
K12Na6Ga2Sb8,1.218494,,
La4Ga4S8O4,3.135163,,
La4Se8Ga4O4,2.212985,,
La8Ga4N12,2.687503,,
La6Mn2Ga2S14,2.924203,,
La12Ga4S20O4,1.96856,,
Sr6Ga6N12Li6,2.9269700000000003,,
Li4Ga4S8,4.075446,,
Li4Ga4Se8,3.041588,,
Ga1Li1Si1,0.623308,,
Li2Ga2Te4,2.313335,,
Ga4Li20O8,0.75324,,
Sr4Mn2Ga2O10,2.350382,,
Ga2N2,2.9403479999999997,,
Ga1N1,2.731621,,
Ga1N1,1.672867,,
Sr6Ga2N6,1.405833,,
Ga1O14N5,3.255514,,
Ga1N5O14,3.216128,,
Sr12Ga2N10,1.157553,,
Na4Ga4O8,4.383232,,
Na2Ga2Te4,0.754238,,
Na6Sr6Ga2P8,1.388568,,
Na12Ga4S12,3.910961,,
Na12Ga4Se12,3.102034,,
Tl2Ga2O4,3.194661,,
Y6Ga6O18,4.40465,,
Sr4Sc2Ga2O10,4.19703,,
Sr2Ga1Sb1O6,2.723241,,
Sr2Ga1Sb1O6,2.282299,,
S16P4Ga4,3.36072,,
Ga2P2,2.045549,,
Ga1P1,2.428519,,
S16Ga8Rb8,3.602551,,
Sb16Ga8Rb16,1.536588,,
Ga4S4,2.553598,,
Ga2S2,2.459878,,
Tl8Ga8S16,2.420977,,
Y6Ga2S12,3.079975,,
Ga2V8S16,1.266793,,
Ga1Sb1,0.4073009999999999,,
Ga1Sb1,0.4011969999999999,,
Ga8Se8,1.669059,,
Se4Ga4,1.793989,,
Ga4Se4,1.664352,,
Ga4Se4,1.769253,,
Ga2Se2,1.661536,,
Tl2Ga2Se4,1.076758,,
Tl8Ga8Se16,2.080381,,
Tl8Ga8Se16,1.886302,,
Ga1V4Se8,0.6884779999999999,,
Ga4Te4,1.433252,,
Ga12Te12,1.875982,,
Tl2Ga2Te4,1.056088,,
La4Ge2Ga4S16,2.72239,,
Ga4Ge2S12Li4,3.545917,,
Ga4Ge2S12Na4,3.701778,,
Sn4Ga8Ge4S24,2.122641,,
Pb3Ga2Ge4O14,3.375099,,
Hg1Ga2S4,2.574687,,
Hg1Ga2Se4,1.71995,,
Ga2Hg1Te4,1.269376,,
Ga8I12,2.916242,,
Ga12I24,1.978163,,
Pd1I8Ga2,2.303506,,
Pt1In6Ga2O8,1.503397,,
K6Ga2O6,3.952234,,
La4Zn2Ga4S12O2,3.609401,,
Ga2Mn1S4,3.158145,,
Ga4Mn2S8,0.066026,,
Ga2Mn1Se4,2.332062,,
Ga2Mn1Se4,1.503428,,
Mn8Ga16Te32,0.8075,,
Mn4Ga4S10,1.011987,,
Sr12Ga8N16,2.647092,,
Ni2Ga4S8,1.816856,,
Ga4O6,3.537548,,
Ga4O6,4.011889,,
Pb2Ga4O8,4.491315,,
Pb2Ga4O8,4.493931,,
Zn2Ga4O8,4.134884,,
Rb6Ga2O6,3.717256,,
Te2Ga4O12,2.301586,,
Ga4Os2,1.285421,,
Sr6Ga4P8,1.722367,,
Pb2Ga4Se8,2.520907,,
Rh4Sr2Ga4,0.04187,,
Ru2Ga4,0.5880200000000001,,
Te2Ga4S4,2.918942,,
Ga8S12,2.828729,,
Sr2Ga4S8,3.740637,,
Zn1Ga2S4,3.31387,,
Zn1Ga2S4,3.005376,,
Sn8Ga8S20,2.185774,,
Ga4Se4Te2,2.47874,,
Se12Ga8,1.899787,,
Sr2Ga4Se8,2.675358,,
Zn1Ga2Se4,2.339165,,
Sr2Ga4Te8,1.090071,,
Ga2Zn1Te4,1.720997,,
Te5Ga2,1.518542,,
Se2Ga3K1O14H6,4.800452,,
Se2Ga3Na1O14H6,4.768834,,
Rb1Se2Ga3O14H6,4.776765,,
Ga12Te12I4,2.099611,,
Ga12Te12I4,2.098907,,
Ga12In4Te20,0.8222410000000001,,
Ir4Ga12,0.032062,,
Ga9K3,0.553,,
Sr6Ga6N10,2.383572,,
Sb12Ga12Na8,0.6622469999999999,,
Ga9O21P3,4.790117,,
Ga12Os4,1.173723,,
Rb4Ga12S20,3.606161,,
Ga9Rb3,0.486483,,
Ru4Ga12,0.8534900000000001,,
Ge1Ga4O8,3.900226,,
Ga8O14Sr2,3.978773,,
Sr6Ga8O18,4.296945,,
Ga24Se48,0.944493,,
Ga10O16H2,3.684332,,
Ga20Ir12,0.0230259999999999,,
Na2Ga10Ti4O24,4.142375,,
Ga14Te20,1.541823,,
Tl3Ga9S13O2,3.128848,,
Ge2S6O4H6K6,4.177635,,
Te8Ge2K8O4H8,1.216819,,
Hf2Ge2Te8,0.837689,,
Tl2Hg1Ge1Te4,0.582873,,
Hg4Ge2O8,1.823831,,
Hg2Ge1Se4,1.090014,,
Hg8Ge2S12,1.115788999999999,,
Rb1I1Ge1O6,4.195898,,
La2I2Ge1,0.7320700000000001,,
La2I2Ge1,0.7953809999999991,,
Ge3I6,2.696166,,
Ge1I2,2.558108,,
Ge1Rb1I3,0.8757400000000001,,
Ge4Rb4I12,3.162517,,
Tl4Ge4I12,2.525756,,
Ge8I32,2.924859,,