formula,bg,formation_energy,mp-id
Se12Cs12Bi4,2.774554,,
La8Bi4Cu4S20,1.811863,,
Bi2Se2Cu2O2,1.146679,,
Bi2Cu2O2Te2,0.445111,,
W2Bi1Cu1O8,2.125598,,
Bi2Se12Cu2P4,1.700107,,
Bi4Pb4Cu4S12,1.426064,,
Cu4Bi4S8,1.286150999999999,,
Bi2Cu2Sr2,0.125362,,
Bi4Cu8K4S12,1.459169,,
Bi4Cu8P4O24,3.157854,,
Bi2Se4Cu6I2O16,2.248689,,
Bi4Cu12S12,1.660155999999999,,
Bi4Pb4Fe4Cu16S24,1.494463,,
Sr2F2Bi2S4,1.310648,,
F12Bi4,5.649001,,
Bi1F3,5.651168,,
Bi4F12,6.066108,,
Bi2Li2F8,6.259502,,
Rb4Bi4F16,4.746774,,
Bi1F5,3.469263,,
K4Bi4F24,4.364782,,
K2Bi2F12,4.850821,,
Li1Bi1F6,4.495645,,
Na1Bi1F6,4.893337,,
Rb1Bi1F6,4.775102,,
Bi4F28Kr4,4.397582,,
Bi2Xe2F18,3.662897,,
Bi2Fe2O6,3.301963,,
Bi1Fe1O3,2.5929789999999993,,
Bi4Fe4O12,1.575066,,
Bi4Fe4O12,2.040434,,
Bi2Fe2O6,3.439828,,
Bi2Fe2O6,3.562312,,
Bi2Fe2O6,1.563118,,
Bi2Fe2O6,3.563223,,
Bi2Fe2O6,3.33341,,
Fe4Sb4Bi4S16,1.545627,,
Bi2In4Ga2S12,2.651886,,
Bi4Ga4O12,2.933422,,
Bi4Ga8S16,3.285082999999999,,
Bi4Ga8Se16,2.670893,,
K4Bi4Ge4S16,2.51622,,
Rb4Bi4Ge4S16,2.535538,,
Bi2Se4O12H2,4.708565,,
Na6Bi2O14H16,5.2021370000000005,,
Bi4I4In8Se16,2.151658,,
Bi4Mn4I4Se8,1.903913,,
Bi2O2I2,2.266272999999999,,
Bi2O2I2,2.255042,,
Sr2Bi2O4I2,3.849446,,
Bi4Te4O12I4,3.279487,,
Bi4Te4I4O12,0.198672,,
Bi4I4O16,3.503567,,
Bi4S4I4,2.550108,,
Bi4I4Se4,2.194526999999999,,
Bi1Te1I1,1.73876,,
Bi8I8,1.17188,,
Bi4I4,1.201153,,
Bi2I6,2.196133,,
Bi4Tl12I24,3.290331,,
Bi4In4O12,3.835014,,
Bi4In4O12,3.515762999999999,,
Ir4Bi4S4,1.340151,,
Ir4Bi4Se4,1.144628999999999,,
K1Bi1Li6O6,2.845057,,
Mn2Bi2K2,1.028505999999999,,
Bi2K2O4,2.762817,,
Bi2W4K2O16,3.820251,,
Bi2K2P4S12,3.013082,,
Bi4Se24K4P8,2.4542,,
Bi2Se12K2P4,2.503581,,
K4Bi4Si4S16,2.722089,,
Bi16K16,0.4884929999999999,,
Se12K8Rb4Bi4,2.979417,,
Bi4K12O12,3.987576,,
K6Bi2O8,2.5730299999999993,,
K12Bi4Se12,2.8787700000000003,,
K12Bi4Te12,2.191121,,
Bi2La2S4O2,1.314948,,
La2Bi2Se4O2,1.147781,,
Bi4O8Li4,2.937354,,
Bi8Li8O24,1.180852,,
Bi2Pd4O8Li2,1.691225,,
Bi4Li12O16,2.321545,,
Bi1Li5O5,2.686299,,
Sr4Lu2Bi2O12,3.132289,,
Bi4V4Mg8O24,4.380906,,
Bi8Mn8O24,1.603871,,
Bi4Mn4O12,1.241635999999999,,
Bi8Mn8O24,1.52603,,
Bi4Mn4O12,1.268357,,
Bi4Mn4O12,1.405119,,
Bi4Mn4O12,1.418219999999999,,
Bi4Mn4P4O20,4.177528,,
Bi2Mn2V2O10,2.753292,,
Bi4Mn8O20,1.433355,,
Bi4Mn8P4O24,3.358986,,
Bi4Te4N4O24,4.274408,,
Sr3Bi1N1,0.909018,,
Bi2Na2O4,1.548291,,
Na2Bi2O6,2.509147,,
Bi2Sr6Na2O12,3.181841,,
Na12Bi4O12,4.062076999999999,,
Bi2Na6O8,2.349611,,
Bi4Nb4O16,3.73552,,
Bi4Nb4O16,4.150261,,
Bi4Ni4O12,1.066464,,
Bi1Sc1Ni1,0.264493,,
Bi2Sr4V6O22,3.729025,,
Bi2Rb2O4,3.080276,,
Bi4Rh4O12,1.535863,,
Bi4Sc4O12,3.831214,,
Bi4Sc4O12,3.796755,,
Sr4Bi4O12,0.687133,,
Bi2P2O8,4.933305000000001,,
Bi2P2O8,4.996654,,
Bi2P2O8,5.012855999999999,,
Bi2Sb2O8,3.878955,,
Bi4Ta4O16,3.981277,,
Bi4Ta4O16,4.232497,,
Bi2V2O8,3.076262,,
Bi2V2O8,2.97728,,
Bi2V2O8,3.288694,,
Bi4V4O16,3.402258,,
Bi2Pb2V2O10,3.789049,,
Pb2Bi2V2O10,3.415477,,
Pb2Bi2V2O10,3.783908,,
Bi4Zn8P4O24,4.261441,,
Bi4Pb8V4O24,3.099857,,
Bi2Zn4V2O12,3.708214,,
Pb8Bi2P2O16,3.49239,,
Os4Se4Bi4,1.131399,,
Bi2Tl2S12P4,2.677788,,
Bi4Tl4Se24P8,2.106502,,
Bi1Rb1S2,2.029959,,
Rb4Bi4Si4S16,2.750903,,
Bi16Rb16,0.473757,,
Se12Rb12Bi4,2.889139,,
Rh4Bi4S4,0.776181,,
Rh4Bi4Se4,0.572089,,
Tl1Bi1S2,0.405207,,
Tl1Bi1Se2,0.1212409999999999,,
Bi4Se8,1.213493,,
Tl1Bi1Te2,0.6565759999999999,,
In2Bi4Se8Br2,1.765954,,
Bi2Lu1O4Br1,2.640467,,
Bi2Y1O4Br1,2.263029,,
Cs2Bi4Br14,3.708921,,
Rb2Bi4Br14,3.725895999999999,,
Bi2Cs3Br9,3.261566,,
Bi4Cs6Br18,3.278034,,
Bi2C1O5,2.547029,,
Ca1Bi2Ta2O9,0.324696,,
Ca2Bi4Ta4O18,4.008989,,
Ca4Bi2O1,1.393422,,
Cs8Bi8Cd4S20,2.423517,,
Bi8Cd4Ge4O24,2.968699,,
Bi8Cd4Ge4O24,2.955269,,
Bi16Cd8O32,3.898843,,
In1Bi2S4Cl1,2.2778,,
Bi2Lu1O4Cl1,2.594838,,
Bi2Y1O4Cl1,2.643055,,
Bi4Se4Fe2Cl6O14,3.042019,,
Bi2Hg3Cl8S2,3.940313,,
Hg6Bi4Te4Cl16,3.941479,,
Bi4Te14Cl16,0.616764,,
Cs2Bi4Cu2S8,1.050985,,
Cs8Bi8Mn4S20,2.235259,,
Cs4Ni2Bi4,0.789034,,
Cs4Pd2Bi4,0.7937700000000001,,
Cs4Pt2Bi4,0.863455,,
Cs8Bi8Zn4S20,2.37204,,
Cs8Bi8Zn4Se20,2.034061,,
Cs6Bi4I18,2.998293,,
Cs6Bi4I18,2.97118,,
Bi4Cu2K2S8,1.430705,,
Bi4Cu2Se8O24,3.621105,,
Bi4Cu2Se8O24,3.653391,,
Cu2Bi4O8,2.967461,,
Bi8Cu4O16,2.841183,,
Bi8Nb4O20F4,3.611687,,
Bi4Fe4Ga4O18,3.565717,,
Bi4Ga8O18,4.154771,,
Bi4Ge2O10,3.400742,,
Bi4Ge2O10,3.457296,,
Bi8Ge4O20,3.49165,,
Ge1Bi2Te4,1.163098,,
Bi4Ge6O18,4.221591,,
Hg2Bi4S8,1.766267,,
Bi2La1O4I1,2.023532,,
Bi2Lu1O4I1,2.264059,,
Bi2Y1O4I1,2.198565,,
Bi4In8S18,2.386478,,
Bi4V6K6O24,3.711241,,
Bi4K8O10,3.463465,,
Bi2Pd1O10Li8,2.057749,,
Mg2Bi4O12,0.938504,,
Bi4Ni2Mn2O12,1.7516500000000002,,
Bi4Ni2Mn2O12,1.493023,,
Bi8Mn4Se16,1.120782,,
Mn1Bi2Te4,0.197714,,
Sr4Mn6Bi4O4,1.135146,,
Bi8Mo4O24,2.9893989999999993,,
Bi8Mo4O24,0.811716,,
Mo2Bi4O12,0.634571,,
Bi4Mo4Se4O26,3.580804,,
Pb2Bi4Nb4O18,3.332522,,
Pb4Bi8Nb8O36,2.290455,,
Sr2Bi4Nb4O18,3.55252,,
W2Bi4Te4O20,3.927964,,
Bi4Ti8O22,3.301253,,
Bi2Ti4O11,3.231979,,
Bi4Pd2Se8O24,3.798381,,
Bi4S4O2,1.376836,,
Bi4O4S2,1.468964,,
Bi2O2Se1,1.018265,,
Se6Bi4O4Sr4,1.6810729999999992,,
Bi2Te1O2,0.280325,,
Bi8O12,3.079337,,
Bi8O12,2.407212,,
Bi16O24,3.27232,,
Bi2O3,1.963719,,
Bi8O12,1.932232,,
Bi8O12,3.275747,,
Bi8O12,1.250476,,
Bi12O18,2.514611,,
Bi8O12,2.283464,,
Bi8Pd4O16,1.577308,,
Bi4Sr2O8,3.61926,,
Bi4O8,1.818855,,
Bi8Se4O20,3.890006999999999,,
Bi4Si2O10,3.893749,,
Bi8Sr8O20,3.123458,,
Bi8Te4O20,3.265469,,
Bi4Te2O12,2.320432999999999,,
Bi4W2O12,3.14691,,
Bi4W2O12,2.983724,,
Bi8W4O24,3.070564,,
Bi4Pt4O14,2.027959,,
Bi4Pt4O14,2.049108,,
Bi4Sn4O14,3.816448,,
Bi4Sr2Ta4O18,3.572249,,
Sr2Bi4Ta4O18,3.519957,,
Sr1Bi2Ta2O9,3.306734,,
Bi8Pb4S16,1.527758,,
Bi2Pb1Te4,1.123987,,
Se5Bi2Pb2,1.143615,,
Bi4Pb6S12,0.572522,,
Pb12Bi4S18,0.4251649999999999,,
S1Bi2Te2,0.28903,,
Bi8S12,1.95083,,
Bi2Se1Te2,0.2248659999999999,,
Bi2Se2Te1,1.308821,,
Bi8Se12,1.418323,,
Bi2Se3,0.232891,,
Bi16Se24,1.110703,,
Te3Bi2,0.022645,,
Bi2Te3,0.0560629999999999,,
Bi12Br4O16,1.89042,,
Bi6Se8Br2,1.54619,,
Te4Bi6Cl20,1.784454,,
Bi6Cl2O8,3.333438,,
Bi3Te4Cl5O10,3.347724,,
Cs4Bi12S20,1.965392,,
Bi12Cs4Se20,1.491253,,
Bi6Pb2Cu2S12,1.397586,,
Bi12F24N4,3.895533,,
Bi6Fe2Mo4O24,3.376819,,
Bi6In10S24,2.023042,,
K20Sn4Bi12,0.056947,,
Bi3Mn4O15N1,2.00606,,
Bi3Na1V2O10,3.51774,,
Bi6Sb2O14,3.255704,,
Bi4Te2Br2O9,1.809351,,
Bi8Ru2Br4,1.156307,,
Ce6Pd6Bi8,0.6105,,
Ce6Pt6Bi8,0.696380999999999,,
Ta1Bi4Cl1O8,2.191785,,
Cs12Bi8O18,3.431421,,
Bi8Cu6V4O28,3.331792,,
Bi8Ru2I4,0.7728579999999999,,
Bi8Mn2S14,1.337257,,
Bi8Ta4O22,3.869899,,
Bi8Ti6O24,3.399445999999999,,
Bi8Ti6O24,3.389713,,
Bi8Ti6O24,3.670114,,
Bi4Ti3O12,2.658408,,
Bi4Ti3O12,2.634646,,
Bi8O14,1.769728,,
Bi4Pb7Se13,0.4813139999999999,,
Te3Bi4,0.09983,,
Bi10Ga6Cl24,2.382163,,
Bi10Ga6Cl24,2.379712999999999,,
Bi10Cs6Cu4S20,1.292867,,
K6Bi10Cu4S20,1.453617,,
Bi10Rb6Cu4S20,1.394133,,
Bi10I2O14,3.518401,,
Bi6Co1S2O16,3.187377,,
Bi12Cr4O30,3.089151,,
Bi6V4Sr1O20,3.780552,,
Cs3Bi7Se12,1.1934109999999991,,
Bi8Pb6Cu2S19,1.249988,,
K2Bi8Se13,1.302117,,
Bi18Rh4I6,0.551929,,
Y6Br10Co1,0.721744,,
Y6Br10Ni1,0.9325959999999992,,
Ta2Te4Br10O1,1.406765,,
Pd1Y6Br10,0.804233,,
Rb2Re6Br20,1.497202,,
Cs2Nb8Br22,1.130693,,
Nb8Br22Rb2,1.123122,,
Co1Br12Sc7,0.700051999999999,,
Os1Se2Br12,1.339505,,
Na2Mo12Br26,3.095751,,
Fe3N8C8Br16,2.444739,,
Zr6Br18K4C1,1.79176,,
Br4Cl4F4C4H12,4.045727,,
Br4Cu4C4N8H8,3.6593929999999992,,
K2Br2C2N4O8,2.589028,,
Cs2Ni2Br2N4C4,3.367751,,
Rb2Ni2Br2N4C4,3.274283,,
C6H20Br2N2,6.125501,,
Ca2Br1H3,2.507407,,
Ca2N1Br1,3.543661,,
Sb2Cd2Br2S4,2.269105,,
Cd4P6Br2,1.797724,,
Cd4P6Br2,1.800598,,
Br1P3Cl14,2.656414,,
Br2Cl2,3.040209,,
Cr2Br2O2,2.668873,,
Cr2S2Br2,1.374841,,
Cr8P4O16Br4,3.284625,,
Cs2Br2F8,5.007534,,
Cs4I8Br4,2.842939,,
Cs1Br1,5.63782,,
Cs1Br1,5.530318,,
Cs6Mo4O14Br2,3.764898,,
Br2Cu2N4H12,3.533932,,
Hg8Cu8S8Br8,1.789779,,
Hg4Cu4S4Br4,1.663937,,
Hg4Cu4Br4Se4,1.550904,,
Cu1Br1La1Nb2O7,0.727993,,
Cu4Br4S16N16,1.725427,,
Sr2Cu1Br1O2,4.093261,,
Br4Cu4S12P16,2.980069,,
Br4Cu4S12P16,2.812057,,
Br4Se8Cu4,1.793037,,
Se12Cu4Br4,1.817182,,
Cu4Br4Se12,1.791508,,
Cu1Br1,2.117997,,
Br2Cu2,2.033198999999999,,
Cu2Br2,2.609623,,
Cu8Br8,1.780071,,
Cu1Br1,1.860541,,
Cu12P2S10Br2,1.945795,,
Pb2Br2F2,3.594572,,
Br2F6,3.761772,,
Br4F16O8N4,4.070758,,
Te4Br4F20O12,4.037035,,
Br2F10,4.96649,,
Sb2F12Br2O4,3.774296,,
Fe2Sr4O6Br2,1.688029,,
H1Br1,2.279417,,
Li4Br4O20H8,5.708536,,
Na4Br4O20H8,4.651282,,
Br4N4O16H16,5.066666,,
H8N2Br2,5.531302,,
Br2Na2O10H12,1.013903,,
Hf2Br2N2,2.854772,,
Hf2N2Br2,3.152075,,
Hg2Br2I2,3.339371,,
Hg2Br2,3.136229,,
Hg8N4Br4,1.8446729999999991,,
Hg8Br4P12,1.612722,,
Hg12Te8I4Br4,2.285912,,
Pb4Br4I4,3.266368,,
I2Br2,2.209218,,
In2O2Br2,3.246533,,
In4Te4Br4O12,4.161419,,
In2Sb4S8Br2,2.126604,,
In2Sb4Se8Br2,1.517262,,
In4Te4Br4,2.441099,,
In2Br2,1.790754,,
In10Br2S10,1.651256999999999,,
In10Br2Se10,1.190207,,
K1Br1,5.595042,,
K1Br1,5.021406,,
La4Br4Mo4O16,2.561396,,
Pb12La2Br2O14,2.729345,,
La8Sb4Br4S20,1.914395,,
La6Br2Si4S16,3.689978,,
La12Te16Br4,0.479684,,
N3Br1Li10,2.454806,,
Li1Br1,6.159084,,
Lu4Br4Mo4O16,2.771136,,
Lu2Br2S2,3.885183999999999,,
Sb4Br4Mn4S8,2.31445,,
Sb8Br8Se16Mn8,1.794253,,
Mo4S4Br4,1.805005,,
Mo2Te8Br2,1.433762,,
Br4N4O12,3.830204,,
Sr2N1Br1,2.877611,,
Ti2N2Br2,1.39658,,
Zn8Br4N4,3.333275,,
Zr2Br2N2,2.4657199999999992,,
Zr2N2Br2,3.919569,,
Zr2N2Br2,2.873053,,
Br8N24,3.229206,,
Na1Br1,5.317755,,
Rb3Br1O1,1.390246,,
Tl4Br4O16,4.441692,,
Y4Br4W4O16,3.550914,,
Sr8Br4P28,2.773185,,
Rb1Br1,5.494126,,
Rb1Br1,5.200035,,
Re12S16Br4,2.375114,,
Sb4S4Br4,2.424438,,
Sb4S4Br4,2.452143,,
S4Br4,0.96367,,
Tl10Br2Se4,0.673265,,
Tl10Br2Te4,0.464591,,
Te16Br8,0.60128,,
Tl1Br1,2.670531,,
Tl1Br1,2.815663,,
Tc12Br25Na1,1.627744,,
Pb8Br8C4O12,3.770014,,
C4Se16Br8,2.144179,,
Ru2Br4C6O6,3.422576,,
Pt2Cs4Br4C8N8,3.452147,,
Pt2Br4K4C8N8,3.125002,,
Pt2C8N8Br4Rb4,3.180404,,
W2Br4C8O8,2.794236,,
Ca1Br2O6C6H24,6.641112,,
Ca1Br2O6H12,5.464886,,
Br8Ca12O16Si4,2.673518999999999,,
Cd2Sb4Se6Br4,1.647126,,
Cd2Br4,4.079963,,
Cd1Br2,4.059497,,
Cr1N6H18Cl2O8Br2Cs1,5.144037,,
Cu2Rb4Cl4Br4,2.340987,,
I3Br2Sb1Cl6,2.14603,,
Co1Br2O6H12,4.555485,,
Co2Br4O4H8,4.081756,,
Co2Br4O8H16,4.660723,,
Sb8Br8Co4O12,1.798449,,
Co2Br4,3.552701,,
Cr2Br4,3.021507,,
Cs1Br2F1,3.034481,,
Cs4Br8F28,4.327759,,
Re12Br8S16Cs4,2.569793,,
Re12Se16Br8Cs4,2.08875,,
Cs4Tc12Br8Se16,1.618931,,
Cs2Br2F2,3.815061,,
Hg4Cs4I8Br4O2H4,2.74566,,
Cs2Br2V2Mn1O6,2.360785,,
Cu2Br4O8H16,3.094251,,
Te4Cu4Br4O10,2.562379,,
Te2Sr4Br4Cu4O12,3.550751,,
Sr2Cu3O4Br2,2.269563,,
Te4Br4Cu6O12,2.75565,,
Ge2Br4F20,4.67602,,
Sr6Br4Fe4O10,3.48457,,
Ge8Br16,3.054048,,
Ge8S12Br8,3.543063999999999,,
Sc2Br4O12H22,5.701851,,
Br2Mg1O6H12,5.622251,,
Mn2Br4O4H8,4.8454559999999995,,
Hg2Br4K4N4O24,3.780097,,
Hg3Br6,2.641241,,
Hg2Br4,3.644991,,
Hg4Br4O12,4.066732,,
Hg8Sn4Br8S8,2.65285,,
Hg12Br8S8,2.538608,,
Hg12Se8Br8,2.382034,,
Hg6Zn2Se6Br4,0.248166,,
Hg6Te4Br4,2.557711,,
Hg10O8Br4,0.948088,,
K4O1Br2,2.0507,,
Mg1Br2,5.650826,,
Mn1Br2,4.324479,,
Mn1Br2,4.288202,,
Mn4Br8,4.146348,,
Te4Br8Mn16Si4O28,3.731699,,
Mo2Br4O4,1.314745,,
Mo12Br24,3.197112,,
Mo12Br12S6,1.770854,,
N8P8Br16,4.336784,,
V2Br4S4N6,1.5060900000000002,,
Nb2O2Br4,1.843987,,
Nb2Br4S4,2.479447,,
Nb2Br4S4,2.416449,,
Nb2Se4Br4,1.874327,,
Nb2Se4Br4,1.828294,,
Ni1Br2,3.228254,,
Te8Zr4Br4O22,3.739441,,
Te12Br4O22,3.581142,,
Rb4Br2O1,1.562655,,
Br16S8O8,3.763712,,
V1O1Br2,0.557554,,
Br8O4,2.509437,,
Pb12Br8O8,3.264473,,
Br16O24,3.276454,,
Sb8O10Br4,3.22824,,
Pb6Te4Br4O12,3.488013,,
P16Se12Br8,2.9081509999999993,,
Pb4Br8,3.948022,,
Pd1Se6Br2,1.795825,,
Pd8Br16,1.953901,,
Te4Br8S28,3.022929,,
Se8Br8,2.269744,,
Br24Si12,3.374948,,
Sn4Br8,3.278355,,
Sn6Br12,3.262866,,
Br8Sr4,5.616336,,
Sr10Br20,5.499852,,
Tl8Br16,2.414607,,
V2Br4,3.831564,,
W12Br24,3.567531,,
Zn1Br2,4.621053,,
Zn16Br32,4.926518,,
Hg2Br6N2C4H16,3.676446,,
Br6P2Cr2C10O10,3.227426,,
Cd2Cs2Br6,4.077014,,
Cs1Cd1Br3,1.854566,,
Cs2Cd2Br6,4.06832,,
Cd2Cs2Br6,4.076486,,
Cd4Br12N4H16,3.957097,,
In4Cd4Br12,3.10638,,
Rb4Cd4Br12,3.923859,,
Tl4Cd4Br12,3.808217,,
Hg12S8Cl2Br6,2.584285,,
Br6Cr2N6H18,3.14986,,
In4Cr4Br12,2.482376999999999,,
Cr6Br18,2.697476,,
Cs4Cu4Br12,0.492288,,
Cs2Cu4Br6,3.15534,,
Cs2Fe2Br6,3.625738,,
Ge1Cs1Br3,2.006761,,
Cs1Ge1Br3,1.168092999999999,,
Hg6Cs6Br18,2.705189,,
Mn2Cs2Br6,3.854599,,
Cs2Ni2Br6,3.471766,,
Cs1Pb1Br3,2.182216,,
Cs1Pb1Br3,2.356389999999999,,
Cs4Pb4Br12,3.899097,,
Cs4Pb4Br12,2.772917,,
Cs1Sn1Br3,1.002062999999999,,
Cs4Br12,3.225319,,
K8Cu4Br12,3.487905999999999,,
Rb8Cu4Br12,3.439788,,
Rb2Cu4Br6,3.202719,,
Fe4K4Br12,3.92056,,
Fe2Br6,2.363459,,
Ga4Br12Li4,3.952743,,
Ga4Br12,4.511178,,
Ge4Rb4Br12,2.508937,,
Hg8Te4Br12,2.771243,,
Hg12Tl4Sb8Br12,1.297701,,
K4In4Br12,3.170881999999999,,
In4Mg4Br12,2.765958999999999,,
In2Br6,3.600842,,
Ir2Te12Br6,1.738082,,
La2Br6,4.656768,,
Br3N1Li6,3.387161,,
N2Br6Li12,3.488773,,
Mn2Rb2Br6,4.619567,,
Rb6Mn6Br18,4.638877,,
Mo4Te24Br12,0.020622999999999,,
Mo4Br12,2.546739,,
Br12S16N12,2.793107,,
Nb4O4Br12,2.854437,,
Br12Se4Nb4,1.68641,,
Br12Te4Nb4,1.517889999999999,,
Rb2Ni2Br6,3.374182,,
P4Br12,4.247242,,
Rb2V2Br6,3.939011,,
V6Rb6Br18,3.946447,,
V6Rb6Br18,4.018645999999999,,
Rh2Te12Br6,1.745581999999999,,
Rh2Br6,2.589921,,
Ru4Br12,1.191474,,
Sb4Br12,2.582976,,
Sb4Br12,0.979291,,
Br6Si2,5.052813,,
Tc4Br12,1.288673,,
Br16S12N8C4,2.271872,,
Br4Fe1P1C4H12,3.170543,,
Cd4Br16Cs8,4.503569000000001,,
Cd4Cs8Br16,4.624708999999999,,
Cs8Cd4Br16,4.513606,,
Rb8Co4Br16,3.98073,,
Tl4Cs4Br16,2.792551,,
Hg4Br16Cs8,3.496664,,
Hg4Cs8Br16,3.697005,,
Pd1Cs2Br4I2,1.317878,,
Pd1Cs2Br4I2,0.8597779999999999,,
Cs8Mn4Br16,4.676778,,
Fe1Li2Br4,3.429566,,
Fe6Sb4Br8O8,2.664384,,
In4Ga4Br16,3.715528,,
Sn2Br8O10H20,3.307188,,
Pd1I2Rb2Br4,1.472312,,
In4K4Br16,3.970493,,
Na4In4Br16,3.950518,,
Tl4Br16K4,2.626213,,
Pd1K2Br4,2.543317,,
Pt1K2Br4,2.793699,,
Li4Mn2Br8,4.783265,,
Li4Mn2Br8,4.767447,,
Mn1Rb2Br4,3.668277,,
Tl1Br4Nb1O1,1.949592,,
Nb2Br8,1.816794,,
Rb12Br8O2,2.66493,,
W1O1Br4,1.719492,,
Y8Br8Os2,1.276417,,
Os8Br32,1.12313,,
Pd8Br8Te6,1.426239999999999,,
Re4Te8Br16,2.834694,,
Tl12Br8S2,2.438695,,
W4Br16S4,2.085391,,
Br8V8S18,1.742443,,
Si8Br32,5.370757,,
Sn4Br16,2.552391,,
Tc8Br32,2.4693,,
Ti4Br16,3.835825,,
Ti8Br32,3.840782,,
Ir4Br20K8O4C4,3.28379,,
Os4Br20K8O4C4,1.966557,,
La12Br20C4,3.053550999999999,,
Co2Cs6Br10,3.980844,,
Hg4Cs2Br10,3.192142,,
Cs2Sn4Br10,3.225594999999999,,
Cs12Cu8Br20,3.635434999999999,,
Cs6Fe2Br10,3.426741,,
Hg4Cs12Br20,3.61067,,
Cs6Mn2Br10,4.832348,,
Br20Sb4F24,2.670696,,
Tl2Hg12S8Br10,2.82041,,
Tl2Hg12Se8Br10,2.572854,,
In2Sn4Br10,3.072494,,
K2Sn4Br10,3.193243,,
Ru4Br20K8N4O4,3.103946,,
Nb4Br20,2.363096,,
Br20P4,2.650419,,
Tl12Pb4Br20,3.726576,,
Rb2Sn4Br10,3.134365,,
Re4Te12Br20,2.048154,,
Tl2Sn4Br10,3.182799,,
Zr2Te4Br10,1.307171,,
Pt1Cs2Br6,2.395219,,
Cs2Sn1Br6,2.421735,,
Cs2Te1Br6,2.799157,,
Re1Br6N2H8,2.665853,,
Tl8Hg2Br12,2.674694,,
Hg6Zr2Se4Br12,2.89722,,
Hg14Br12P8,2.127835,,
In4Zr2Br12,3.156092,,
K2Pt1Br6,2.111782,,
K2Re1Br6,2.6895629999999993,,
K2Se1Br6,2.547363,,
K2Sn1Br6,2.189989,,
Sn2K4Br12,2.584428,,
Sn2K4Br12,2.77362,,
Te2Br12K4,3.007893,,
Te2K4Br12,2.829933,,
Te1K2Br6,2.628055,,
K8Mn2Br12,4.532783,,
Pb4Pd2Br12,2.446968,,
Pb4Se1Br6,2.688722,,
Pd1Rb2Br6,1.389625,,
Pd1Br6Se2,2.382756,,
Rb2Sn1Br6,2.291142,,
Te1Rb2Br6,2.670229,,
Te1Rb2Br6,2.694983,,
Ta2Te4Br12,1.64154,,
Tl4Te2Br12,2.797777,,
W1Br6,1.721327,,
Fe2Se2Br14,2.62193,,
Ga2Se2Br14,3.150998,,
In8Br14,2.960186,,
Ir2Te14Br14,1.832035,,
Mn2Rb3Br7,3.126560999999999,,
Nb3Br7S1,1.578841,,
P4Br28,2.351911,,
Re6Te14Br14,1.851571,,
Ta3Br7S1,1.563451,,
Ta12Br28,1.650356,,
Pd1Br8Ga2,2.904127,,
Rb2Hg2Pd1Br8,2.864903,,
Nb6Br16,0.0593,,
Ta4S9Br8,1.851122,,
Cs3Sb2Br9,2.541135,,
Cs5Nb2Br9S4,2.758276,,
Ir2Se6Br18,2.549416,,
Nb6Br18K4,1.553583999999999,,
Rb6Nb4Br18,1.430588,,
Tl5Nb2Br9S4,2.606668,,
Nb6Tl4Br18,1.484279,,
Os4Rb6Br18,1.6432699999999991,,
Rb3Sb2Br9,2.464967,,
Ta2Te2Br18,3.000943,,
Br4,2.490226,,
B28,2.130256,,
B12,2.080279,,
B12,2.080083,,
Co1O2N8C10H14,3.926857,,
Hg1Mn2C10O10,3.262718,,
C22F14,2.983168,,
C11N4,3.855583,,
C11N4,0.631209,,
Os3Si2Cl6C12O12,3.484728,,
Se2F20C24,4.0852,,
Pt3Fe2N12C12,2.835365,,
Pt1Mn2C12O12,2.508661,,
Pt1Re2O12C12,2.567781,,
Cs3Ca3O9F3C3,6.376062,,
Ca2C2O6,6.711941,,
Ca4O12C4,6.935732000000001,,
Ca16N16C4,2.734333,,
K1Cd1C1F1O3,3.50739,,
I6Cd2N6H12C2,3.729819,,
Cd1C1N2,3.595187,,
Cd2C2O6,4.471867,,
Zr6Cl18Rb4C1,1.936964,,
Cl4Cu4C4N8H8,3.001456,,
Cu2Cl2C2O2,3.986035,,
I4Cl4F16C4,4.040473,,
Cl4S4O4C4H12,1.322642,,
Cl4O4N4C4H24,6.831446,,
C2N12H18Cl2,6.535755,,
Hg4Cl4S4N4C4,1.662728,,
La4Cl2N6C2,2.779237,,
S8Cl4O8N4C4,3.808706,,
Cl8S8N8C8,3.905113,,
S12Cl4N20C4,3.392524,,
Pb2Cl2O4C2,4.391544,,
Hg8Cl8N8C4,3.10341,,
Lu2Cl2C1,1.765325,,
S4C4Cl8,4.315183,,
Sc2Cl2C1,1.679545999999999,,
Cu2Cl6S2O2N8C2H18,2.807009,,
Te4Cl12C4H12,3.622728,,
C4Cl12N12S8,3.808764,,
Sb4Cl16O8C4,3.416072,,
Hg4Cl10C2N6H12,3.755435,,
Sb4Cl20N4C4,3.280984,,
Sb4Cl24N4C4,3.26757,,
Co2P2Na6C2O14,4.651224,,
Co2C2O6,4.342264,,
N8C4Cs4O8H4,2.770811,,
Cs4C4O12H4,6.742715,,
Cs4C4N12H16,5.088374,,
Cs2I18Zr7C1,0.416276,,
K4Cu4F4C4O12,3.487837,,
Cu4C4O20S4H4,5.151481,,
Cu4S8C4N4H8,2.8178229999999997,,
Cu8S8N8C8,3.747074,,
Cu2N2C2S2,3.560103,,
Cu2N2C2S2,3.345412,,
Cu2P2Na6C2O14,3.527581,,
Cu2C2O6,3.230794,,
Cu4O10C2H8,3.255494,,
C4D4,4.443274,,
Fe2P2O8C2D10,4.0746579999999994,,
K4F2O8H6C2,6.491887999999999,,
F4O8C4H12,7.42236,,
F1C1N1H6,7.874157,,
La2F2N4C2,3.960164,,
Sn4S4C4N4F4,3.717559,,
S10F2O6N10C2,2.547696,,
Tl6F2C2O6,3.696272,,
P4F8O8C4N4,7.745597999999999,,
C4I4F12,4.928959,,
C4F16,11.586529,,
C4F16,11.593242,,
S4F10N2C2,4.085741,,
P2F12C2N6H12,6.900018,,
S2F18O6H4C2Sb2,6.710834,,
Fe2P2O8C2H10,4.020256000000001,,
Ge4N4C4O4H12,6.2867169999999994,,
Ge1C1,2.394615,,
K4O8N8C4H4,2.604363,,
O6N6C6H6,6.545792,,
O4C4H4N12,5.117009,,
Mn2P2O12C2H4,4.65516,,
Hg4S4O12C4H12,4.119984,,
K4N4C4H12,5.227003,,
Si4N4C4O4H12,7.107604,,
Rb4C4N4H12,5.127205,,
Sb4S8N4C4H12,1.333156,,
P4S12C4H12,3.040524,,
Se8C8H24,3.072728,,
Te4C4H12,2.005367,,
In2Se2O14C2H8,5.07192,,
Li4S4C4N4O8H16,5.5519359999999995,,
Li4C4N12H16,5.579283,,
S4C4N8O8H16,4.403878,,
P4C2O18H8Na8,3.769436,,
Sn1I3N2H5C1,0.963839,,
C4N12H20,5.556273,,
Na2C2H10O8,6.990122,,
N4O3C1H6,0.908191,,
N12O10C2H12,3.671631,,
O6N10C2I2H16,3.338079,,
Na4S4C2N4O8H16,0.7039730000000001,,
N18H18C2,3.396612,,
Hg8C8N16,3.733007,,
Hg4N8C4,3.127479,,
I12Zr6C1,0.6707929999999991,,
Pt4I8O4C4,2.401774,,
C1I4,1.824437,,
La6I10C2,0.580205999999999,,
K4O16N8C4,3.100996,,
K2C2,2.744313,,
Mn6V4K4C2O22,3.168813,,
V1K3O8C1,3.709627,,
Li4S4C4N4,4.767354,,
C1N2Li2,4.99725,,
Mn2C2N4,3.124738,,
Mn2C2O6,5.527341,,
N8C8S16,4.205867,,
S24C8N8,3.870961,,
Se8N8C8,3.291324999999999,,
Pb4C4N8,2.486256,,
Pb4N8C4,2.487629,,
S16N16C8,0.7482489999999999,,
Sr3N6C3,4.383291,,
Tl6N6C3,2.512165,,
C2N4,6.278319,,
C2N4,2.497825,,
S12N16C4,2.567077,,
Sr16N16C4,2.053562,,
S6Na4C2,2.211626,,
C4O4,8.028059,,
C8O8,8.001821,,
C2O4,8.137184,,
C2O4,8.129306,,
C4O8,8.469341,,
C8O16,8.198204,,
C2O4,9.859671,,
C8O16,9.022588,,
C2O4,8.177132,,
C4O8,8.17671,,
C4O8,8.144529,,
Tl4C2O6,3.474453,,
Sn8P4O24C4,3.321436,,
Os1C1,0.770791,,
Ru1C1,1.472176,,
S14C1,3.560673,,
C2S4,4.261162,,
C2S6Tl4,2.5324359999999992,,
C2Se4,2.794525,,
Si5C5,2.663667,,
Si7C7,2.768068,,
Si6C6,2.941479,,
Si5C5,2.883087,,
Si2C2,3.199565,,
Si8C8,2.688467,,
Si9C9,2.941318,,
Si19C19,2.898092,,
Si14C14,2.728215,,
Si16C16,2.898365,,
C1Si1,2.258374,,
Sn1C1,1.408111,,
Ca2O10C4N8H16,6.301013,,
Ca1C2,2.780083,,
Ca8C16,3.320227,,
Ca4C8,2.753606,,
Ca1C2,2.591454,,
Ca4C8,3.217876,,
Ca4C8,3.566352,,
Ca8C16,3.469917,,
Cd2S4Cl4C4N8H16,4.411731,,
Cd1I2O2C2H6N2,3.963086,,
Cd2O14C4H12,5.432304,,
Cs2Ni2Cl2N4C4,3.7857499999999993,,
C4H12O6Cl2V2,4.247664,,
Cl2O8S2C4N8H14,4.586655,,
Rb2Ni2Cl2N4C4,3.650947,,
Hg1Cl2N4H4C2,3.740012,,
Pt4Cl8O8C8,4.517151,,
Ir2Cl6O6H20C4,3.630041,,
Pd2Cl6C4N2H16,3.18974,,
Cu2Cl8N4H20C4,2.622312,,
Ta2Se2Cl10C4H12,3.182603,,
Nb2Cl16C4N2,3.437896,,
La10Cl18C4,2.512085,,
Co2O12C4H8,3.892505,,
La2Co2C4,0.23842,,
Co1C2N2S2,2.969371,,
Sr24Co4N28C8,2.403329,,
Co6Se4O20C4,3.857095,,
Cs4O16C8H4,4.084744,,
Cs4K4C8,4.771103,,
Cs4N12C8,5.838137,,
Pt2F8O8C4Cs4,4.339037,,
Cs2Pd1C2,2.516951,,
Cs2Pt1C2,1.9905449999999991,,
Cs6C6,4.111363,,
Cs8C8,4.313794,,
Cu2S4O12C4F12,3.915959,,
V2Cu1F8O4N2H14C2,3.620775,,
Cu4C8H8O16,3.946006,,