formula,bg,formation_energy,mp-id
Sn4Mo20O32,0.4474059999999999,,
O1Zn4P6N12,4.812737,,
W2N36,2.37517,,
Na1N1O2,4.413895,,
Na2N2O6,4.982561,,
Sn2Na2N2,1.690123,,
Nb4O4N4,2.516827,,
S8N4O4,3.005967,,
Ta4O4N4,2.930298,,
Ta4O4N4,3.218523,,
Ta2Sr2N2O4,1.983797,,
Tl3N3O6,2.861712,,
S4N4,2.739213,,
Sr3Sb1N1,0.969834,,
Tc1N1,0.392521,,
Y12N4Te12,1.772865,,
Tl2N2,0.322523,,
V2N2,0.8271219999999999,,
Y1N1,3.084559,,
Y2N2,2.079137,,
Y2N2,1.828233,,
Y2N2,1.338158,,
Y1N1,1.099241,,
Nb1Na1N2,1.622383,,
Na1Ta1N2,2.092961,,
W2Na8N4O4,3.335254,,
Ni4N8O24,4.811738,,
Ni4N8O24,5.085172999999999,,
S6O28N4,3.407267,,
Pd1S8O28N2,2.084516,,
Se2S4O4N4,2.57216,,
S6N4O4,2.325451,,
O12N8,0.689735,,
N6O12,4.394878,,
N4O8,4.298106,,
S12O20N8,4.043686,,
N4O10,2.512686,,
Pd2O12N4,3.433736,,
Pb4Se2O16N4,4.042204,,
Pb4S8N8,1.962134,,
Pd4S24N8,1.915116,,
S1Zr2N2,1.434801,,
Zr4N4S2,1.464117,,
S4N4,3.831394,,
S16N8,0.481214,,
Zr4N4Se2,1.159275,,
Sr4Si4N8,4.053362,,
Sr2Ti2N4,1.749445,,
Sr1Zr1N2,1.176909,,
Sr2Zn1N2,1.715306,,
W1N2,1.857936,,
W2N4,2.145698,,
Zn24N16,1.220565,,
Rb4Na2N6O18,5.039921,,
Na1N3,5.044904,,
N3Na1,5.043561,,
W4N12Na12,2.994801,,
Re2Na8N6,3.692132,,
Nb4Sr8N12,3.244844,,
Zn4P2N6,4.360119,,
Rb1N3,4.956521,,
Rb2N6,5.448978,,
Sr8Ta4N12,3.463959,,
Tl2N6,1.988743,,
Pd2Na4N8O24,3.770695,,
Pd2Rb4O24N8,3.967777,,
Y4Si6O6N8,4.227345,,
Zr21N12O24,4.176096,,
S16N16,3.111326,,
S16N16,3.096755,,
Se8N8,2.581105,,
Se16N16,2.5809100000000003,,
Si12N16,5.074254,,
Si12N16,6.143074,,
Si6N8,5.74863,,
Si6N8,5.752798,,
Si18N24,4.442479,,
Si6N8,4.730475,,
Sn6N8,1.45835,,
Zr6N8,1.657314,,
Zr12N16,1.967163,,
Zr12N16,1.967589,,
Zr6N8,1.549379,,
P6N10,4.967159,,
P3N5,4.119561,,
Ta12N20,0.322839,,
Ta6N10,2.10297,,
Rh1Na3N6O12,4.349434,,
S14N12O16,3.401987,,
N12S10,3.092066,,
Sr2N12,4.874448,,
Zn4N24,4.481151,,
Zn6N36,4.816958,,
Zn4N24,4.400614,,
Y2Sr2Si8N14,4.071293,,
Sb2N18,3.006869,,
Sb2N18,3.444056,,
Sn12Na10Sr1,0.984767,,
Na2Nb2O4,2.27473,,
Nb4Na4O12,3.686072,,
Na8Nb8O24,3.709801,,
Na4Nb4O12,2.939153,,
Na1Nb1O3,2.80775,,
Nb8Na8O24,3.1135,,
Na2Nb2O6,2.885102,,
Nb4Na4O12,3.411349,,
Nb4Na4O12,3.935821,,
Nb4Na4O12,3.694668,,
Nb4Na4O12,3.789729,,
Na2Nb2O6,4.221467,,
Nb4Na4O12,3.039781,,
Na1Nb1O3,2.788355,,
Na1Nb1O3,2.833721,,
Na8Nb8O24,3.35408,,
Na8Nb8O24,3.399438,,
Na8Nb8O24,4.259869,,
Na2Nb2S4,1.127151,,
Nb2S12Na2,2.508886,,
Na2Nb2Se4,0.971952,,
Nb6Na2O16,3.941651,,
Nb6Na2O16,3.675403,,
Na2Ni2O4,2.100798,,
V12O22Na2,1.004522,,
Na2Sn4P6O24,4.919607,,
Na2Ti4P6O24,3.785821,,
Sr8Na2Sb6O24,3.592531,,
Na2Rb2O2,3.387262,,
Rh1Na1O2,3.198998,,
Na3Tl3O6,1.648988,,
Na2V2O4,2.057628,,
Na1V1O2,0.508026,,
Na2V2O4,2.548969,,
Na4Sb4O12,3.060387,,
Sb2Na2O6,4.565537,,
Na4Sb4O12,2.599313,,
Na4Ta4O12,3.97908,,
Na4Ta4O12,3.941088,,
Na1Ta1O3,3.528988,,
Na1Ta1O3,3.522053,,
Na4Ta4O12,3.676375,,
Na2Ta2O6,3.545208,,
Na1Ta1O3,3.529549,,
Ta4Na4O12,3.977051,,
V4Na4O12,4.452695999999999,,
Na4V4O12,4.457168,,
Na1O3,2.802337,,
Pb4Rb12Na4O16,2.932089,,
Na4Y4Ti4O16,3.770294,,
V16Na8O32,2.167175,,
V4O8Na2,1.09803,,
Na4V4P4O20,2.994485,,
Na4V4P4O20,2.908723,,
V8O20Na4,2.342212,,
V4O10Na2,1.150216,,
Na2V4O10,1.151921,,
Rb14Na2Zn4O12,2.786055,,
Na2Sr6Ru2O12,2.452275,,
Tl3Na1S2O6,3.877834,,
Sr6Na2Sb2O12,4.578878,,
Na2Ti2Si4O12,2.438963,,
Na4Ti4Si8O24,2.361703,,
Na4V4Si8O24,2.899053,,
Rb3Na1Ru2O8,2.57732,,
Na1Rb3W2O8,6.34302,,
V1Na1S2O8,2.602437,,
Na2Sb10O16,3.649706,,
Ta6Na2O16,4.03196,,
Na2P30,2.142175,,
Na2Pd2P2S8,2.198734,,
P4S12Na4,3.078076,,
Na2Sn2P2,1.021831,,
Na3Sr3P3,2.030213,,
Na2Zn2P2,1.740694,,
Na8P8,1.574765,,
Sb4Na4P8S24,2.768582,,
W2Na12P8,1.856023,,
Sb2Na2P4S12,2.933875,,
Na4P20,1.994311,,
P56Na8,2.442756,,
Na16Pb16,0.2288639999999999,,
Pt8Se12Na4,1.615226,,
Rb2Na2S2,3.32964,,
Na4S4,2.322736,,
Sb2S4Na2,1.071172,,
Sb2Na2S4,1.064225,,
Sb2S4Na2,0.682107,,
Sc1Na1S2,2.729339,,
Y1Na1S2,3.254137,,
Na2Y6Si2S14,3.237942,,
Sb8Na8,0.860856,,
Na1V1Se2,0.8717639999999991,,
Na2V2Se4,1.164856,,
Se2Y1Na1,2.733442,,
Na8Si8,1.689275,,
Sn16Na16,0.6198659999999999,,
Sn16Na8,0.117546,,
Te36Na12,0.892253,,
Nb8Na4O22,4.079689,,
Nb8Na4O22,3.960395,,
Na4Nb8O22,3.914277,,
Na2Nb4Se4O19,3.631818,,
Na4Ni2O4,3.86319,,
Ti2Na4Si8O22,4.045786,,
Na2Ti6O13,4.210761,,
W4O13Na2,2.518658,,
Na2Ti9O19,3.442733,,
Na8Ti4O4S8,3.521457,,
O1Na2,3.391681,,
Pb8Na16O16,3.328926,,
Na2Pt1O2,3.279452,,
Zn4Na8O8,3.237938,,
Na6O6,3.771928,,
Na6O6,3.920646,,
Na8Pt4O12,3.080642,,
Na8Pt4O12,3.115977,,
Na8Ru4O12,0.42973,,
Na4Zn4O6,2.7525239999999997,,
Zn8Na8O12,2.976191,,
Os3Na6O12,1.631521,,
Pd3Na2O4,1.951366,,
S4Na4O8,3.299174,,
Te4Na8O16,3.335066,,
Ti2Na4Si2O10,4.645248,,
Te8Na8O20,3.90606,,
Na4Sn2Te2O12,2.579238,,
Pd2P4Na4O14,3.611153,,
Na4Se4O14,4.679473,,
Na4Te4O14,2.139119,,
Na4Ti6O14,4.313983,,
W4Na4O14,3.407668,,
V2Na4P4O16,4.044376,,
Pd1Se2O8Na2,3.643128,,
Na4Zn4Te6O18,4.235667,,
Te8Na4O18,3.702733,,
P2S6Na4,3.76389,,
Se12P4Na8,2.725016,,
Na4Pd2S4,1.998986,,
Na4Pd2Se4,1.504533,,
Pt2Na4S4,2.22559,,
Na4Pt2Se4,1.775489,,
Na2S1,3.494743,,
S4Na8,3.176068,,
S2Na4,2.711852,,
Na4Zn2S4,3.577411,,
Na6S6,1.834517,,
Na4S4,2.325755,,
Na8Te4S12,2.183082,,
Na8S16,3.059396,,
Na8S20,2.754476,,
Sn4Zn2S12Na4,2.753277,,
Na2Se1,2.972606,,
Na4Se4,1.371964,,
Se12Sn4Na8,2.153488,,
Na8Te4Se12,1.666974,,
Na8Te4Se12,1.531078,,
Na4Zr2Se6,2.198258,,
Se16Na8,1.105765,,
Se20Si8Na8,3.415516,,
Na2Te1,2.806577,,
Te24Na24,0.957569,,
V2S6Na6O24,0.1672209999999999,,
Na6S6P2O2,4.160919,,
Na6V2S6O2,2.715184,,
V4S12O4Na12,2.709652,,
Tl4Na12O8,2.697259,,
Sn8Rb8Na24O32,3.840584,,
Ru4Na12O16,2.516003,,
Sb2Na6O8,3.823512,,
Na9Os3O15,1.69178,,
Re3Na9O15,3.736535,,
Na12P44,2.537937,,
Na6P2S8,3.291168,,
Se4Na3P1,2.07499,,
Na6P2,1.049096,,
Na12Sb4S12,3.11912,,
Sb4Se12Na12,2.615463,,
Na3Sb1Se4,1.809189,,
Sb4Te12Na12,2.017894,,
Sb2Na6,0.967728,,
Te12Si4Na12,2.633723,,
Ti5Na4O12,3.813596,,
Sn2Na8O6,2.676136,,
Pb2Na8O8,2.620437,,
Sn2O8Na8,3.660999,,
Se4O20Na16,3.109219,,
Te2Na8O10,3.601337,,
Na8Sn2S8,3.110429,,
Sn6Na8S16,2.673446,,
Na16Si4Se16,3.153892,,
Na8Sn2Se8,2.367136,,
Te16Sn4Na16,1.57358,,
Nb2Na10O10,4.254138,,
Ta2Na10O10,4.058076,,
Re1O6Na5,3.467592,,
Si4P12Na20,2.057257,,
Sn4P12Na20,1.674998,,
Tl4Sn12Na20,0.3047709999999999,,
Zn2O8Na12,3.222763,,
Pb1O5Na6,2.444038,,
Pb2Na12O10,2.535658,,
Pb3Na6S16P4,3.254924,,
Na12Zn2S8,3.2804,,
Sn4S14Na12,3.108551,,
Se14Si4Na12,3.152018,,
Se14Sn4Na12,2.279059,,
Na16Sb8Sn2,0.781563,,
Nb8O16,1.202988,,
Sb4Nb4O16,3.384119,,
Sb4Nb4O16,3.376026,,
Nb4P4O20,3.613636,,
Nb4P4O20,3.612592,,
Rb3Nb1O8,4.421017,,
Nb4Rb12S16,3.409682,,
Nb1Ru1Sb1,1.028657,,
Nb4S12,1.075885,,
Tl3Nb1S4,3.224964,,
Tl3Nb1Se4,2.711083,,
Ni16Nb8O36,3.574819,,
Te6Nb4O22,3.536008,,
Nb4Se8O26,3.573578,,
Nb4O10,3.784617,,
Nb2O5,3.611148,,
Nb2O5,3.12934,,
Pb3Nb6O18,3.901814,,
Pb3Nb6O18,3.746882,,
Sn2Nb4O12,2.306974,,
Nb8Sr4O24,4.322864,,
Sn4Nb4O14,1.459686,,
Sr4Nb4O14,4.071448,,
Zn6Nb4O16,4.451213,,
Zn8Nb4O18,4.073163,,
Rb2Nb4P2S20,2.488448,,
Nb4Se20Rb2P2,1.709614,,
Nb4Tl2P2S20,2.159402,,
Nb4Rb4S22P4,2.106312,,
Nb4Pd6Se16,0.993409,,
Tl8Nb4S22,0.770847,,
Tl8Nb4Se22,0.079318,,
Nb4Se18,1.332653,,
Nb8Si4Te16,0.4580289999999999,,
Rb1Sr2Nb3O10,2.697837,,
Nb6Ti2O12,1.520559,,
Nb6Te10Sb4,1.2556,,
Sr1Nb6O16,2.903403,,
P1Nb9O25,3.446564,,
Ne1,14.425131,,
Ne1,15.49553,,
Ne1,15.527824,,
Ni2Ti4P4O20,4.174727,,
Te2Ni1V2O10,2.613372,,
Ni8P32O88,5.622287,,
Ni2Te12O26,4.034867,,
Ni2O2,4.454755,,
Ni8O8,4.533037,,
Ni2Rb4O4,4.005094,,
Ni2Rb6O4,2.276769,,
Ni4Rb12O8,2.503952,,
Ni1O2,2.798005,,
Ni1O2,2.755727,,
Se4Ni4O12,4.259868,,
Ni2Ti2O6,3.973109,,
Tl4Ni4O12,1.048111,,
Ni4Sb8O16,2.767912,,
Ni2Se2O8,4.030512,,
Ni4W4O16,3.73488,,
Pb2Ni2Sr6O12,1.767481,,
Sr6Pt2Ni2O12,4.086368,,
Sr6Ni2Pt2O12,4.08449,,
Ni2Sb4O12,2.8562659999999997,,
Sr2Ni1Te1O6,3.016055,,
Ni4Ta8O24,4.143276,,
Ni3V6O18,2.873378,,
Ni1Re2O8,4.754414,,
Ni2P2S6,2.122605,,
Sc4Ni4P4,0.0423669999999999,,
Ni2P2Se6,1.673204,,
Ni2P4,1.378865,,
Ni1Si3P4,0.902012,,
Ni4Sb4S4,0.08682,,
Ni2S2,0.83408,,
Ni2S2,2.075513,,
Ni4S8,1.255728,,
Ta4Ni2S10,0.118392,,
Sc1Ni1Sb1,0.4045209999999999,,
Ni1Sb1Y1,0.4572029999999999,,
Ni2Se2,0.358878,,
Ni2Se2,1.402305,,
Ni4Se8,1.024489999999999,,
Ni1V2Se4,0.480888,,
Ta4Ni2Se10,0.4095669999999999,,
Ni2Sc1Sb1O6,3.837181999999999,,
Ni4Te6O16,4.193443,,
Ni3Te1O6,2.9724500000000003,,
Rb2Ni3S4,2.239208,,
Rb4Ni6Se8,1.788288,,
Ta4Ni6S16,0.969438,,
Zr6Ni6Sb8,0.6385219999999999,,
Ta4Ni6Se16,0.79886,,
Ni4O8Sr1,1.383627,,
N4,9.214831,,
N4,9.234795,,
N8,9.274506,,
N16,9.628086,,
Sn10P4O20,3.636501,,
Sr2V4P4O20,2.784606,,
P8O20,7.473315,,
Ru3Sr2O10,0.049967,,
Ti3O10Sr4,3.109696,,
Pt8Pb2Sr8O22,1.818923,,
Pb4V4Se4O22,3.30369,,
Se4V4O22,3.238905,,
Ti12O22,0.3112229999999999,,
V12O22,1.170159,,
Rb2Sb4S4P2O24,5.473510999999999,,
Rb2Ti4P6O24,3.979197,,
Rb2Ti4P6O24,3.912859,,
Rb2V6Se4O24,3.475582,,
Rb4Sr2V8O24,3.934042,,
Rb4Te2W6O24,3.801153,,
Re1Sc6O12,1.518209,,
S6Sc4O24,6.455749,,
Tl2V6Se4O24,3.484064,,
Se8O24,4.149874,,
Si12O24,7.549531,,
Te1Y6O12,4.258548,,
W1Y6O12,4.228881,,
Rb2Ti6O13,3.900765,,
Re4S4O26,3.700692,,
Re4Sb8O26,3.565004,,
Sc4Te10O26,4.146912,,
Y4Te10O26,4.157607,,
O26Te12Zn2,4.172314,,
Ti14O26,0.016135,,
V12O26,2.031584,,
V14O26,0.355803,,
Os3Sn15O14,2.324059,,
Sr3Zn3Te1P2O14,4.785627,,
Pb2V4P8O28,3.01933,,
Sr2V4P8O28,3.15315,,
Pb3Te1Zn3V2O14,4.28463,,
Pt1Sr8Si2O14,3.858115,,
Rb3V5O14,3.210461,,
Ru3Sn15O14,2.168468,,
Tl3V5O14,2.766019,,
Ti10O18,0.4498049999999999,,
Y2Zn2P2O2,2.061774,,
Sr4P2O1,1.905751,,
Sr3Pb1O1,0.186794,,
Pb4O4,0.373318,,
Pb2O2,2.169148,,
Pb4O4,2.697417,,
O4Pb4,0.352374,,
Pd2O2,0.8220900000000001,,
Pt2O2,1.149829,,
O1Rb2,2.376687,,
Rb2O1,2.448506,,
Zr4O4S4,3.553154,,
Zr2S2O2,1.565312,,
Sb16S16O8,1.76123,,
Sb8S8O4,1.877321,,
Sb64S64O32,1.894982,,
Sb8S8O4,1.939616,,
Y8O4S8,3.585359,,
S32O4,3.440001,,
Sr12Si4O4,0.8567239999999999,,
Sr3Sn1O1,0.205003,,
Sn2O2,0.5227539999999999,,
Sn2O2,1.89238,,
Sn4O4,2.518353,,
Sr1O1,4.770824,,
Tl4O2,1.158718,,
Tl4O2,1.289156,,
V2O2,2.598508,,
Zn2O2,2.657034,,
Zn1O1,1.206902,,
Zn1O1,2.481653,,
Zn1O1,2.991865,,
Zn1O1,2.996409,,
Zn1O1,2.994276,,
Zn1O1,1.205692,,
Zn1O1,2.995925,,
O1Zn1,2.481709,,
Sn10P4O20,3.646314,,
Tl2V8O21,1.940156,,
Sr4Ti5Si4O22,3.197498,,
Pb1Ti4P6O24,4.185134,,
Sr1Ti4P6O24,4.122965,,
Zn6V8P12O48,2.93206,,
Ta9V1O25,3.716186,,
Pd1S8Rb2O26,3.666611,,
Os2O4,0.6483,,
Pb2Pd2O4,0.8494389999999999,,
Pb2Pd2O4,1.013272,,
Pb4Rb8O8,2.714658,,
Pb2O4,0.6271559999999999,,
Pd2O4,0.7283649999999999,,
Pt1O2,2.956231,,
Pt2O4,1.940571,,
Pt2O4,3.010413,,
Pt4O8,1.114146,,
Pt2O4,1.17704,,
Rb2Sb2O4,3.203995,,
Rb1Tl1O2,1.770374,,
Rb8Sn4O8,3.143483,,
Rb16Zn8O16,2.738694,,
Rb2O2,3.421019,,
Rb2O2,3.271504,,
Rh4O8,0.164927,,
Ru1O2,2.355914,,
Sc4O4S2,3.300368,,
S3O6,3.042526,,
O16Sb8,2.897841,,
Se6Sb4O4Sr4,1.106603,,
Se8O16,4.658688,,
Se8O16,4.501738,,
Se4O8,4.798761,,
Se8O16,4.796394,,
Si3O6,7.630173,,
Si8O16,7.586683,,
Si2O4,7.112411,,
Si6O12,7.606742,,
Si4O8,7.416533,,
Si4O6,3.420308,,
Si4O8,7.393358,,
Si4O8,7.351537,,
Si3O6,7.530973,,
Si3O6,7.544496,,
Si3O6,7.523832,,
Si3O6,7.553812,,
Si3O6,7.548794,,
Si3O6,7.623206,,
Si3O6,2.089718,,
Si4O8,5.9646989999999995,,
Si4O8,7.294825,,
Si2O4,8.052941,,
Si12O24,7.351474,,
Si8O16,7.318527,,
Si6O12,7.467871,,
Si4O8,7.128796,,
Si3O6,7.538321,,
Si12O24,7.510421,,
Si8O16,7.497606,,
Si2O4,6.647183,,
Si4O8,7.264801,,
Si12O24,7.461337,,
Si2O4,7.106375,,
Si4O8,7.317356,,
Si4O8,7.408482,,
Si6O12,7.441236,,
Si8O16,7.399773,,
Si12O24,7.185471,,
O24Si12,7.222044,,
Si12O24,7.50025,,
Si12O24,7.499,,
Si3O6,7.373361,,
Si3O6,7.374638,,
Sn2O4,2.285662,,
Sn2O4,2.247895,,
Sn4O8,2.011987,,
Sn12O24,2.452821,,
Sr4Zn4O8,3.848728,,
Sr1O2,4.77055,,
Te4O8,3.935911,,
Te8O16,3.065087,,
Te4O8,3.915672,,
Te2O4,0.642214,,
Te4O8,3.991113,,
Te4O8,4.140983,,
Ti2O4,3.02186,,
Ti4O8,3.64088,,
Ti4O8,3.396366,,
Ti8O16,3.429925,,
Ti2O4,3.278111,,
Ti4O8,3.915086,,
O8Ti4,3.069426,,
Ti4O8,3.707684,,
Ti8O16,3.947669,,
V8O16,2.817488,,
V4O8,1.976376,,
V2O4,1.510221,,
V4O8,1.111761,,
V4O8,2.00973,,
V4O8,1.473815,,
V8O16,1.825952,,
V4O8,1.751987,,
V2O4,1.513875,,
W12O24,1.374001,,
Zn4O8,4.365551,,
Zr1O2,4.932145,,
Zr4O8,5.171846,,
Zr2O4,5.251351,,
Zr8O16,5.325113,,
Zr4O8,4.432727,,
Zr4O8,5.459707,,
Pb2Rb4O6,2.534362,,
Pb4Rb8O12,2.633998,,
Pb2Se2O6,3.962774,,
Sr4Pb4O12,1.330101,,
Pb4Te4O12,3.714481,,
Pb1Ti1O3,2.584444,,
Pb4Ti4O12,3.248311,,
Pb1Ti1O3,2.580037,,
Pb1Ti1O3,2.582881,,
Pb1Ti1O3,2.816176,,
Pb1V1O3,2.283045,,
Pb2Zn2O6,0.82674,,
Pb8Zr8O24,3.784199,,
Pb1Zr1O3,3.477219,,
Pb8Zr8O24,3.814632,,
Pb1Zr1O3,3.67666,,
Pb8O12,1.80607,,
Pb8O12,0.015323,,
O12Pb8,1.903206,,
Se2Pd2O6,2.684066,,
Pd2Se2O6,2.399963,,
Sr2Pd1O3,1.98848,,
Rb4Re4S4O12,3.748114,,
Rb4O12,2.30275,,
Rb2Sn2O3,1.742138,,
O12Rb8,1.297983,,
Sc8Rh8O24,2.904282,,
Sc4Rh4O12,2.764603,,
Rh4O6,2.475386,,
Rh4O6,2.444185,,
Rh8O12,2.461478,,
Rh8O12,1.942342,,
Rh8O12,2.460058,,
Rh16O24,2.387627,,
Sr4Ru4O12,0.401209,,
S12O36,7.106261,,
S4O12,7.090854,,
Tl4Sb4O12,3.304092,,
Tl4Sb4O12,3.3334,,
Tl2Sb2O6,3.375061,,
Sb8O12,3.119611,,
Sb8O12,4.199028,,
Sb16O24,3.2395,,
Sc2O3,5.118562,,
Sc6O9,5.186418,,
Sc16O24,5.72004,,
O24Sc16,5.635238,,
Sr1Si1O3,4.275697,,
Si4O6,3.401847,,
Sr4Sn4O12,3.056483,,
Sr2Sn2O6,3.326125,,
Sr2Sn2O6,3.324648,,
Sr1Sn1O3,2.577727,,
Sn1Ti1O3,1.899045,,
Tl8Sn4O12,1.941554,,
Zn2Sn2O6,2.730326,,
Zn2Sn2O6,3.085036,,
Sr4Tc4O12,2.615565,,
Sr2Ti2O6,3.205185,,
Sr1Ti1O3,3.094581,,
Te2O6,2.344779,,
Tl8Ti4O12,3.12575,,
Y4Ti4O12,0.704067,,
Ti2Zn2O6,4.408661,,
Ti8O12,0.7882739999999999,,
O18Ti12,0.0995959999999999,,
Tl4V4O12,3.831944,,
Tl16O24,1.408947,,
Tl8O6,1.165648,,
Y4V4O12,2.581692,,
Y4V4O12,2.723879,,
V8O12,2.099823,,
V16O24,1.994282,,
W1O3,1.420132,,
W8O24,2.371259,,
W8O24,2.470353,,
W2O6,1.441686,,
W4O12,2.275673,,
W3O9,1.463176,,
W4O12,2.372681,,
W8O24,2.309717,,
W4O12,1.75345,,
O24W8,2.223154,,
W4O12,2.611849,,
W4O12,2.646793,,
W4O12,2.217322,,
Xe4O12,2.837975,,
Y6O9,5.538678,,
Y16O24,5.6079229999999995,,
W16Sn10O44,2.327236,,
Si12O24,7.503491,,
Os2O8,4.529468,,
Os1O4,4.548798,,
Rh6P6O24,2.986167,,
Sb2P2O8,5.255107,,
Tl2P2O8,1.897664,,
Tl6P2O8,3.626665,,
V4P4O16,2.998589,,
Pb2Sr4O8,2.311968,,
Pb4W4O16,3.449759,,
W2Pb2O8,4.024318,,
Pb8Pt4O16,0.786542,,
Sn4Pb8O16,3.067772,,
Pb12O16,1.916113,,
Pb12O16,1.961482,,
Pb6O8,1.596743,,
Pd2S2O8,3.115511,,
Se2Pd2O8,3.06127,,
Sr2Pd6O8,0.2727219999999999,,
Tl2Pd6O8,2.635832,,
Ru4Rb8O16,2.461844,,
Rb8Zn12O16,3.239417,,
Sn2O8Rb8,3.551723,,
Zn2Rh4O8,2.869078,,
Ru8O32,3.755139,,
Ru2O8,3.739205,,
Sn4S4O16,3.858736,,
Sb4Ta4O16,3.949102,,
V2Sb2O8,1.654853,,
Zn4Sb8O16,3.461541,,
Sb8O16,2.911791,,
Sb8O16,3.14641,,
Sb4O8,2.765595,,
Sb4O8,3.116444,,
Sb8O16,1.142262,,
Sb8O16,2.892629,,
Sb4O8,2.98839,,
Sc2V2O8,3.806658,,
Te2Se2O8,4.044252999999999,,
Se8V8O32,3.362052,,
Si6Zn12O24,4.955299,,
Sn2Sr4O8,4.2655,,
Sn1Sr2O4,4.370724,,
Sr8Sn4O16,4.16267,,
Sr8Sn4O16,4.150921,,
Sn4W4O16,1.409277,,
Sn8Ti4O16,1.760334,,
Sn6O8,0.357775,,
Sr4Te4O16,3.777146,,
Tl8Sr4O16,1.030737,,
Ti1Sr2O4,3.226257,,
Y4Ta4O16,4.379073,,
Te4V4O16,2.278824,,
Zn8Ti4O16,3.664957,,
Tl4W2O8,3.655414,,
Tl3V1O4,3.30148,,
Y2V2O8,4.097016,,
Y2V2O8,3.947204,,
Rb4V4P4O20,4.08222,,
Sn2V2P2O10,1.668625,,
Ta2O10P2,5.308282,,
V2O10P2,2.78752,,
V4P4O20,2.881949,,
V2P2O10,2.861233,,
O10P2V2,2.89586,,
P8O20,6.796373,,
P8O20,7.473458,,
P4O10,7.182713,,
Pb4Te2O10,3.127649,,
Pb4Te2O10,3.128387,,
Pb4W2O10,3.750211,,
Pb6Se2O10,3.427566,,
Se4Pd2O10,2.688331,,
Ti4S4O20,3.80245,,
Ti4S4O20,3.159486,,
V4S4O20,2.740729,,
V2O10S2,3.081185,,
Sb8V4O20,3.788593,,
Sb4O10,1.75531,,
V5Sc10O25,0.323855,,
Se8Zn4O20,4.127111,,
Se8O20,4.191422,,
Ta4V4O20,3.192392,,
Ta4O10,1.349048,,
Ta4O10,4.446096,,
Ta4O10,4.114893,,
Tl4Te4V4O20,3.298248,,
Tl8Te8O20,3.618474,,
Te4O10,2.633501,,
Ti6O10,0.7125619999999999,,
Y8V4O20,2.760243,,
V4O10,2.5275600000000003,,
V4O10,2.161385,,
V4O10,2.874682,,
V4O10,2.227034,,
V8O20,3.232927,,
V6O10,1.459275,,
V12O20,0.899466,,
Sr4O12Y2Os2,2.001801,,
Sr4O12Y2Os2,2.01217,,
Pb4V4P4O24,3.316642,,
Sr4V4P4O24,3.595831,,
Pd2P4O12,3.851612,,
P8O12,5.008344,,
P8O12,5.170936,,
Pb1Sb2O6,3.109918,,
Pb2Se4O12,1.952078,,
Pb2V4O12,3.073272,,
Pb3V6O18,3.47445,,
Pb4V8O24,3.128426,,
Pb4Y2Sb2O12,3.881146,,
Pb4Y2Sb2O12,3.470478,,
Pb2Sc1Ta1O6,3.657253,,
Pb6S2O12,1.715161,,
Pb6S2O12,3.863811,,
Pb6S2O12,3.92422,,
Pb6S2O12,3.827344,,
Pb12W4O24,3.143024999999999,,
Sr8Pd2O12,3.212888,,
Sr6Zn2Pt2O12,4.270311,,
Sr8Pt2O12,3.795893,,
Zn1Pt3O6,1.194502,,
Rb4V4S4O24,2.687566,,
Rb2Se4Sc2O12,5.717555000000001,,
Rb8O12,0.6375149999999999,,
Rb12Tl4O12,2.655455,,
Rh2Sr6Sc2O12,4.18095,,
Rh2Sr6Y2O12,4.055655,,
Sr4Y2Ru2O12,2.13833,,
Sr4Ru2O12,1.326598,,
Sr1Ru2O6,0.429052,,
Sr4Sb2Sc2O12,5.22516,,
Sr1Sb2O6,4.441753,,
W2Sb4O12,1.877791,,
Zn2Sb4O12,2.572886,,
Sc6Te3O18,4.546622,,
Sn4Se8O24,4.14472,,
Se4Ti2O12,3.739278,,
Sn4Ta8O24,2.976862,,
W4Sn12O24,2.749322,,
Sr4V8O24,3.92129,,
Sr2Y1Ta1O6,4.896248,,
Sr2Ti1Zr1O6,3.896245,,
W2Zn2Sr4O12,4.268834,,
Sr4Zn2W2O12,4.3203,,
Sr8Zn4W4O24,4.331737,,
Ta8V4O24,1.612516,,
Tl6Te1O6,2.577009,,
Zn1V2O6,3.669964,,
Zn1V2O6,3.58294,,
Pd4P4O14,2.736757,,
Pt4P8O28,3.22478,,
Sn8P8O28,4.445105,,
Ti4P8O28,4.081153,,
V2P4O14,4.115804,,
V4P8O28,2.772979,,
Zr4P8O28,6.486496000000001,,
Zr4P8O28,6.484273,,
Pb2Ti6O14,2.902996,,
Pb4Sb4O14,2.82623,,
Pb8Rb4O14,1.727162,,
Pd4S8O28,3.102395,,
Tl4Pt4O14,1.659627,,
W4Rb4O14,3.590623,,
Te4S2O14,4.703003,,
Y6Sb2O14,4.445081,,
Sr4Sb4O14,2.878556,,
Sr2V2Si4O14,3.935336,,
Sr2V2Si4O14,3.935616,,
Tl12O14Si4,2.761722,,
Sn2Ta4O14,2.883884,,
Sr6Sn4O14,3.607856,,
Ta4Sn4O14,2.191559,,
Y4Sn4O14,4.270271,,
Sr2V6O14,3.683734,,
Sr4Ta4O14,4.250332,,
Sr4Ta4O14,4.218074,,
Sr6V4O14,1.9103329999999992,,
Tc8O28,4.243993,,
Tl4Te6O14,3.698343,,
Ti4Y4O14,4.0208,,
Ti8O14,0.1836539999999999,,
Tl4V2O7,3.377602,,
Zn2V2O7,3.363205,,
Zn8V8O28,3.534887,,
Zr4V8O28,3.707385,,
Pb2Ti2P4O16,3.768786,,
Sr2Ti2P4O16,4.088319,,
Ta1Tl1P2O8,4.3938999999999995,,
W2P4O16,3.283691,,
P8O16,6.00997,,
P8O16,6.006821,,
Pb6V4O16,3.802091,,
Rb1Tl1S2O8,2.990637,,
Rb2V6O16,3.037258,,
Rb4V6O16,3.064957,,
Ta1Rb3O8,5.184463,,
Sn4S8O16,3.248668,,
Te6Se2O16,4.03742,,
Y2Se4V2O16,2.223208,,
Sn12Si2O16,2.564567,,
Sr2Te6O16,3.255189,,
Tl2V6O16,2.495385,,
Zn6V4O16,3.857279,,
Sn16P8O36,3.960505,,
Zn4V2P4O18,3.933425,,
V2P6O18,3.192903,,
P16O36,7.116759,,
Rb4Ti2Si6O18,4.57614,,
Rb4V8O18,3.000838,,
Te4Rb12O18,2.414454,,
Re4V2O18,3.326853,,
S12O36,7.088848,,
Te4V4O18,3.188982,,
Ti6V4O18,2.271854,,
Ti10O18,0.4339559999999999,,
Zn16V8O36,3.550067,,
V10O18,1.085622,,
Os4S4P4,1.633581,,
Os4Se4P4,1.138614,,
Os2P4,1.439781,,
Os2P8,1.295504,,
Os3P12,2.065064,,
Os4S4Sb4,1.863550999999999,,
Os4Se4Sb4,1.850416,,
Os4Te4Sb4,1.462269,,
Os2Sb4,0.878733,,
Os4Se8,0.3863129999999999,,
Os8Si16,1.389095,,
Os2Si4,0.2713669999999999,,
O16,2.338902,,
O24,3.055153,,
Rb12P44,2.697475,,
Sr6P28,2.461494,,
Pb4P4S16Rb4,3.314714,,
Rb4Pb4P4S16,3.273768,,
Pb4P4S12,3.000806,,
Pb4P4S12,3.000624,,
Tl4Pb4P4S16,2.785899,,
Pb4P4Se12,2.392382,,
Pb4Se12P4,2.378745,,
Pd8P8S8,2.010455,,
Pd8Se8P8,1.894144,,
Rb2P2S6,2.859986,,
Rb6Se18P6,2.032271,,
Rb4P4Se24,2.601336,,
Rb12S16P4,3.961257,,
Rh4Se4P4,1.823527,,
Ru4S4P4,1.264102,,
Ru4Se4P4,0.840951,,
Y8P8S8,0.313307,,
P8S8,3.229103,,
Sn4P4S12,2.667198,,
Sn4P4S12,2.363515,,
Sn2P2S6,2.225448,,
Sn2P2S6,1.676782,,
Tl2P2S6,2.725726,,
V2P2S6,3.148249,,
Zn2P2S6,3.19681,,
Sc2P2S8,2.864676,,
Tl4Sn4P4S16,2.246539,,
Tl4Sr4P4S16,2.898086,,
Tl12S16P4,2.745135,,
Tl2Ti2P2S10,2.041791,,
Sc1P1,2.439626,,
Sn4P4Se12,2.067856,,
Sn4P4Se12,1.824344,,
Sr4Se12P4,3.032044,,
Tl12P4Se16,2.063691,,
Si12P12,2.070299,,
Sr6P6,1.152274,,
Y1P1,0.102215,,
Pb2Rb8Se16P4,2.6325,,
Pd4P8,1.031876,,
Pd4P8,1.011214,,
Pd3S8P2,2.678555,,
Pt8Si16P16,0.8936259999999999,,
Pt2Si6P4,1.135112,,
Pt4P8,1.610889,,
Rb8Se18P4,2.228501,,
Rh4P8,0.864879,,
Ru2P4,1.046072,,
P8S12,3.032826,,
P8S20,3.562051,,
Tl2Sb2S12P4,2.923197,,
Ti2P4S12,2.306603,,
Zr2P4S12,2.487922,,
Zr2S12P4,2.492975,,
Tl1Sc1S7P2,3.092664,,
Zr4S28P8,2.516073,,
P8S28,2.898073,,
P4S14,2.785556,,
Zn6P4S16,3.404611,,
Tl2Sb2Se12P4,2.120125,,
P8Se20,2.050843,,
Tl2Y2Se12P4,2.255428,,
Zn2Si2P4,1.923514,,
Si8P16,1.980578,,
Zn2Sn2P4,1.525822,,
Sr1Zn2P2,1.43732,,
Sr6P12,1.451195,,
Zn8P16,2.174319,,
Zn8P16,2.16693,,
P16Zn24,1.104809,,
P16Zn24,1.036116,,
Rb1Zn4P3,0.881126,,
P6Rb4,1.361874,,
Re4P12,0.632155,,
Ru4P12,2.034719,,
Zn4S18P6,2.895168,,
Sr8P24,0.856136,,