formula,bg,formation_energy,mp-id
K4Cu4C8N8,4.178517,,
K2Cu2C4,3.167162,,
K4Cu2C4O12,3.622005,,
Cu2Na4C4O12,3.537865,,
Rb1Cu1C2,3.039478,,
Rb2Cu2C4,3.150084,,
Cu12C8O32H8,3.265746,,
Cu8N10C4H6,3.349202,,
Cu5I4O4C2N2H8,1.125013,,
Te8C8F16,2.508598,,
Ti1F6N6C2H12,3.901584,,
Te6S4C4F12O12,2.615943,,
Te8C8F24,3.503721,,
Fe4C8N16H8,3.7374419999999993,,
Fe2C4O12H8,2.780737,,
Fe2O8N4H12C4,2.762702,,
Hg1S2O8C2H10,4.897547,,
Ni1S2C2N6H12,4.985602,,
K4O16C8H4,4.76252,,
C8O8H4,4.345133,,
Sn4O12C8H4,3.301565,,
C8O16H4Tl4,4.153487,,
Mo4O16C8H8,3.038764,,
Ni2N8C4H4,3.646985,,
Pb4O16C8H8,3.973568,,
Li1O5C2H3,5.113103000000001,,
I2Na2O4N4C4H8,5.555222,,
Mn2C4O12H8,3.726121,,
C4O4N2H8,4.414454,,
K2P2N6C4S4O6H10,4.650558999999999,,
K2P2N6C4S2O8H10,5.096874,,
Na2P2S2O8N6C4H10,4.436068,,
K2P2O8N8H12C4,6.872532,,
N4C8O4H24,4.484554,,
P2Na2O8N8C4H12,6.587174,,
P2Rb2O8N8H12C4,6.874682,,
S2O8C4H12,8.149604,,
S2O8C4H12,7.793159,,
Pd2S4O12C4H12,3.718328999999999,,
Hg2I2K2C4N4,3.653348,,
Hg2C4N4O4,4.889035,,
Hg1S2C2N2,3.58584,,
Hg2Se4C4N4,3.281032,,
Hg2C4O8,4.593288,,
Re3I6C6O6,1.765901,,
La10I18C4,2.080498,,
Li4In4N16C8,4.068814,,
C4O8K4,4.476369,,
K2Pd1C2,2.172774,,
K2Pt1C2,1.636404,,
K8C8,4.530586,,
Li2La2O12C4,6.791012999999999,,
La4Rh4C8,0.190846,,
La4O4C4,4.311566000000001,,
Y4N16C8Li4,4.934564,,
Li2C2,4.646745,,
Mg2C4,3.753536,,
Pb2N4C4S4,3.475728,,
Se4S8C8N8,3.401404,,
Sn2S4N4C4,3.18755,,
S12C8N8,3.847957,,
N4C4S18,3.536889,,
Se12C8N8,2.988181,,
C8N8,6.06442,,
Na4C8O8,4.034648,,
Pd1Na2C2,1.555126,,
Pt1Na2C2,0.891531,,
Na8C8,4.648739,,
Na2C2,4.759671,,
Pb2C4O8,4.192888,,
C4O8Rb4,4.6878969999999995,,
Sn2C4O8,3.561975,,
Tl4O8C4,3.634428,,
Rb2Pd1C2,2.324598,,
Rb2Pt1C2,1.798358,,
Rb8C8,4.838368,,
Sr1C2,2.925551,,
Sr4C8,3.474949,,
Ca4C6Li2H2,1.990268,,
Ca4K4O18C6,6.5484860000000005,,
Ca6Cl4C6,2.038807,,
Ce1Sr3P1C3O13,4.638679,,
Hg4Cl12N4C12H4,3.5830450000000003,,
Mo2Cl14O2S4C6,2.410561,,
Co2K2O12C6H6,4.483452,,
Co2N12C6H18,5.721308,,
Sr6Co2C6N6,1.739297,,
Cr2S12C6N6H12,3.324998,,
Cr2P6C6O6H18,4.098589,,
Cr4C6N12,2.6458500000000003,,
Pb4Cs6C6I2O18,4.241911,,
Cu4O12C12F12,4.492926,,
Na1La2C3O9F1,5.977449999999999,,
Na4Sn4F6C6O12,3.667793,,
F12C6,6.547825,,
Fe2O12C6H6,3.297546,,
Fe2C6O16H8,3.043383,,
Tl4Fe4N4O16C12,3.641315,,
Fe4S4O12C12,3.566535,,
K2N12C6H2,4.439515,,
Mn2Na2S6O6H12N6C6,4.178502,,
O2C6N4H16,5.507732,,
Hg2K2S6N6C6,3.133318,,
Os4I4C12O12,3.241331,,
Os2I4C6O6,2.91451,,
Mn4N12C12K4,1.97959,,
Lu4N12C6,5.400335,,
Mg4C6,2.416571,,
Mn4N12C12Rb4,1.911069,,
C12N8,4.684873,,
C12N8,5.360841,,
C6N8,1.948298,,
C3N4,2.652199,,
N8C6,4.886385,,
N8C6,4.88632,,
C6N8,4.836739,,
C3N4,4.048149,,
C3N4,2.961039,,
C6N8,4.885329,,
C3N4,4.034636,,
C6N8,2.888616,,
S14O2C6,2.870799,,
O16C24,4.893145,,
Ru4Se4C12O12,3.179814,,
Os8C12,0.4954269999999999,,
Os16C24,0.304817,,
S16C6,2.489682,,
Sc8C6,1.032729,,
Cu2Ca2O16C8H8,4.013249,,
Ca2O8C8,5.322544,,
Cd2Cl4N4C8H16,3.344906,,
Cd1F2N8C4H8O3,1.007687,,
Cd1S4N6H12C4O2,4.707344,,
Cd2S8C8O4H12,3.435811,,
Hg1Cd1S4N4C4,3.612542,,
Hg1Cd1Se4N4C4,3.264701,,
Cs4Pt2Cl4C8N8,4.123676,,
Pt2Cl4K4C8N8,3.983328,,
Pt2Rb4Cl4C8N8,3.960373,,
C8O8Cl4Os2,4.216027,,
Os2Cl4O8C8,3.675017,,
Te2Cl12N4C8H8,0.7172529999999999,,
Rh2C8O8Ga4Cl14,3.453089,,
Co2Na4O16C8H8,4.707739,,
Hg2S8C8N8Co2,3.500269,,
Hg1Se4Co1N4C4,3.09748,,
Cr1O10C4H4N1,2.578865,,
Cr2S8N12C8H16,3.598069,,
Cs1V1O14C4H12,3.58424,,
Cs2N6C8,5.09216,,
Pt2Cs4C8N8O4H4,2.489668,,
Pt2Cs4I4C8N8,2.369728,,
Cs2C4O4,4.248484,,
Cu2Na4O20C8H8,4.009864,,
Cu2Sr2O16C8H8,4.031634,,
C8N16H12Cu2,3.897715,,
Cu2N16C8H12,3.637978,,
Cu2C8O8,2.552491,,
Ge2H4F20C8,8.070251,,
P8C8F24,1.704999,,
Ru2O8F12C8,1.972045,,
Fe1S4C4O6H12,2.692264,,
Fe2O16H14C8,2.470649,,
Hg1Fe1S4C4N4,2.669432,,
Y4Fe2C8,0.102606999999999,,
Rb4O16H4C16,4.041032,,
Pt2K4C8N8O4H4,2.28985,,
Os2C8N8S2O6K6H4,3.251979,,
Mn2P2O8C8H4,4.168136,,
Pt2Rb4C8N8O4H4,2.464646,,
Sn4O12C16H8,1.55437,,
Zn2P4O16H6N2C8,3.325211,,
C8Na2O10H6,4.301609,,
Y1K1O9C4H4,5.843791,,
Pt2O4H8C8N8,4.849608,,
Hg2O4N8H12C8,5.570295,,
Pt2C8N8O6K2Na2H12,1.868612999999999,,
Sn2S4N4C8H12,5.042063,,
Na4O14C8H12,4.200204,,
Sr2O14C8H12,4.284822,,
V2O16C8H14,2.683472,,
Hg2Mn2S8C8N8,3.542461,,
Hg1Se4Mn1N4C4,3.185081,,
Hg1Zn1C4N4S4,3.649077,,
Hg1Se4Zn1N4C4,3.298834,,
Mo4I4C16O16,1.362515,,
Pt2I4K4C8N8,2.249331,,
Pt2I4Rb4C8N8,2.288679,,
Ru2C8O8I4,3.141352,,
K2Li2N12C8,5.736436,,
Pd2K4S8N8C8,2.785163,,
Re1C4N4O2K3,3.749801,,
K3Tc1O2N4C4,3.86084,,
Rb2Li2N12C8,5.623415,,
Li2C4O4,3.777188,,
Mn2C8N2O10,3.629114,,
Mn2C8N12,4.591785,,
Rb2N6C8,5.090555,,
Tl4Ni2C8N8,3.502572,,
C8N8Zn2Ni2,5.354734,,
Pd2Tl4C8N8,3.72717,,
C8N8Zn2Pd2,5.840326,,
Pt2Rb4C8N8,3.646907,,
Pt2Tl4N8C8,3.485523,,
Sn2Na4O16C8,3.961663,,
Se4O8C16,2.212300999999999,,
Pb2O8C8,4.370241,,
Rb2C4O4,4.2454979999999995,,
Ru2C8O8,2.931138,,
Tl4Fe2C10N12O2,3.508072,,
Fe2C10O10,4.951419,,
Lu1O8N2H9C5,6.285004000000001,,
I2Mn2C10O10,3.792661,,
I2Tc2O10C10,3.374215,,
Ir16C20,0.947422,,
C10N8,7.053225,,
W2S6P8O10C10,3.282485,,
Cd2Os1C6N6,3.703882,,
Cd2Ru1C6N6,3.994766,,
Fe3N6C6D6Cl8,3.595156,,
Cr1Co1N12C6H18,2.47883,,
Fe1N12C6Co1H18,2.543534,,
Co1O8N8C6H12,3.563458,,
Co1Mn1N12H18C6,1.834274,,
Lu2Co2C12N12,6.204630999999999,,
Cs1Mn1Cr1C6N6,3.134061,,
Cs1Ni1Cr1C6N6,4.574723,,
Cr2K2Cs4C12N12,5.012947,,
Cs2Li1Cr1C6N6,4.699677,,
Cs4Na2Cr2C12N12,4.918962,,
Rb4Na2Cr2C12N12,4.97849,,
Cs4Rh2K2N12C12,7.060601,,
K2Cu1Fe1C6N6,3.108285,,
Cu1O4N8C6H4,3.519938,,
C24F40,6.196707,,
C24F40,6.162108,,
Se2F10O6H6C12,4.609219,,
Fe1O8N8C6H12,2.580876,,
La2Fe2K2N12C12,5.205802,,
K2Ni1Fe1C6N6,5.076842,,
Mn2Fe1C6N6,4.965846,,
Tl8Fe2C12N12,4.078922,,
Ni1O10N6C6H12,0.694982,,
N8C6,1.694579,,
Na4C12O12,1.557967,,
Tl4C6O8,3.88826,,
Lu8C14,0.21528,,
Y16C28,1.189889,,
Ca2N12C16,4.289035,,
C8Cd1O12H10,4.171099,,
Cr2S4O4N4C16H24,3.0256,,
Cu1C8H16N8Ni1,3.868814,,
Cu2C16N12,2.550212,,
Cu6O32C16Na4H16,3.255191,,
Y2K2C16O16,3.700961,,
Nb1K5C8N8,2.613522,,
S8O16C32,1.529808,,
Ca1Cd2P2,1.563516,,
Ca1Cd2Sb2,0.7334900000000001,,
Fe4Ca4Cl4O8,3.641979,,
Ca4Fe4O8Cl4,3.659101,,
Ca2Cl4O8,4.4717,,
Ca2Cl4,7.054481,,
Ca2Cl4,6.984713,,
Ca2Cl4,6.931097,,
Ca4Cl8,7.059187,,
Ca4Cl8,7.056833,,
Ca2Co2S2O2,2.905624,,
Co2Ca2Si4O12,4.767754,,
Ca4Co4P8O28,4.875602,,
Ca2Cr2F10,4.278204,,
Ca1Cr1F6,2.912923,,
Ca4Cr4O12,1.46145,,
Ca2Cr2O8,3.67055,,
Ca2Cr2P4O14,4.209083,,
Ca2Cu6Sb4Cr4O24,3.468491,,
Ca8Cr16O32,4.431132,,
Cs1Ca1D3,4.219765,,
Cs4Ca4H12,4.027137,,
Cs1Ca1N3O6,4.634777,,
Ca2Cu2F8,5.007389,,
Ge4Cu4Ca4O20H8,3.190581,,
Ca4Cu4Ge8O24,3.904111,,
Ca2Cu2Ge4O12,3.354462,,
Ca4Cu4Si4O20H8,3.753307,,
Cu1Ca1K2O12N6,2.523335,,
Ca2Cu2P2,0.631087,,
Ca2Cu2Sb2,0.345671,,
Ca2Cu6Fe4Sb4O24,3.063189,,
Ca1Cu3Ge4O12,3.176526,,
Ca1Cu3Mn4O12,0.678954,,
Ca1Cu3Pt4O12,1.867873,,
Ca1Cu3Sn4O12,2.776862,,
Ca1Cu3Sn4O12,2.76702,,
Ca1Cu3Ti4O12,2.593069,,
Ca1Cu4Re3Sr8O24,1.858432,,
Ca4O8D8,6.118395,,
Ca4N8D16,4.162158,,
Ca1F2,9.409354,,
Ca1F2,7.421433,,
Ca2F4,8.449621,,
Ca1F2,9.226105,,
Ca4F8,9.700831,,
Ca2Pd2F8,3.287247,,
Ca2Ti2F10,3.191559,,
Li2Ca2Ni2F12,3.443332,,
Pd1Ca1F6,4.281731,,
Pt1Ca1F6,4.698907,,
Ca1Sn1F6,7.70229,,
Ca1Ti1F6,6.466951,,
Ca4Fe4Ge8O24,1.59421,,
Se4Fe4Ca4O4,3.112119,,
Ca2Fe2O4,2.242514,,
Ca4Fe4O8,2.981795,,
Ca4Fe4O12,0.7853490000000001,,
O24Si8Fe4Ca4,3.370124,,
Ca4Fe8O16,2.487394,,
Fe8Ca4O16,2.909874,,
Ca2Fe6Ti8O24,1.871834,,
Ca2Fe8O12,0.577886,,
Ga4Ca4Li4N8,3.246144,,
Ca4Ga8O16,4.590393,,
Ca2Ga4P4,0.7904479999999999,,
Ca2Ga4S8,3.602736999999999,,
Ca2Ga8O14,4.162305,,
Ca4Ge4Mg4,0.312143,,
Ca2Mn2Ge2,0.4702559999999999,,
Ca2Ge2N4,3.670477,,
Ca4Ge4O12,3.426463,,
Ca4Ti4Ge4O20,4.032143,,
Ca4Sr4Ge4,0.844255,,
Ca4Ge8O20,3.952566,,
Ca2Ge4O10,3.913603,,
Ge8Ca4O20,4.210288,,
Ge4Ca2O10,3.942023,,
Ca2Zn2Ge4O12,4.022476,,
Ca4Mn4Si4O20H4,3.160792,,
N4Ca2S4O18H4,4.62669,,
Ca4Si4O16H8,6.892951,,
Ca2Zn4Si4O16H4,5.561536,,
Ca2H4,1.448926,,
Ca4H8,3.773283,,
Ni4Ca4Mg4H16,2.86267,,
Ca2Rb2N6H12,3.374088,,
Ca1S4O16H6,6.600708,,
Ca4Hf4S12,2.261131,,
Hg1Ca1O2,3.720204,,
Ca1I2,4.914898,,
Ca2In4O8,3.406265,,
Ca2In4P4,1.093545,,
Ca3Ir6P6,0.800296999999999,,
Ca1K2O8N4,3.888468,,
K2Ca1Ni1N6O12,3.812865,,
Li4Ca4N4,2.402356,,
Ca4Sb4Li4,1.179548999999999,,
Ta2Ca1O7Li2,3.406,,
Ta4Ca2Li4O14,3.92393,,
Ca4Lu8S16,2.479867,,
Ca4Mg4Si4,0.300124,,
Ca1Mg2N2,3.130388,,
Ca1Mg2Sb2,1.370438,,
Ca4Mn4O12,1.096455999999999,,
O48Ca8Mn8Ti16,2.363068,,
Mn16Ca8O32,3.482074,,
Ca2Mo2O8,4.452292,,
Sr4Ca2Mo2O12,3.425209,,
Sr2Ca1Mo1O6,3.063111,,
Sr4Mo2Ca2O12,3.005574,,
Ca4Ta4O8N4,2.977833,,
Ca2N12,4.722587,,
Sn12Na10Ca1,0.987887,,
Na4Ca2V8O24,4.039417,,
Ca2Nb4P4O22,3.804182,,
Nb8Ca4O16,2.050521,,
Ni4O8Ca1,1.510097,,
Ca2V4P4O20,2.781792,,
Ca1Pd3Ti4O12,1.899661,,
Ca2O2,4.494041,,
Ca1O1,5.316624,,
Sn4P6O24Ca1,5.452784,,
Ca1Ti4P6O24,4.080989,,
Ca1O2,4.92134,,
Ca4Pb4O12,1.582336,,
Ca2Pt2O6,3.034723,,
Ca4Ru4O12,0.575651,,
Ca4Sn4O12,3.750773,,
Sn2Ca2O6,4.53243,,
Ca2Sn2O6,3.153604999999999,,
Ca4Tc4O12,0.416267,,
Ca8Te8O24,4.791418,,
Ca4Ti4O12,3.5106029999999993,,
Ca2Ti2O6,3.474207,,
Ca1Ti1O3,3.095334999999999,,
Ca4Ti4O12,3.507167,,
Ca4Ti4O12,3.507474999999999,,
Ca1Ti1O3,3.099049,,
Ca4V4O12,1.201251,,
O8Pd6Ca2,0.310548,,
Ca4Rh8O16,2.701806,,
Ca4Se4O16,5.386882999999999,,
Ca4Te4O16,3.788458,,
Tl4Ca2O8,0.826055,,
Ca2W2O8,5.375432,,
Ca4Ti4Si4O20,4.254985,,
Ca2Ti2Si2O10,4.266316,,
Ca4Ti4Si4O20,4.296779,,
V8Ca4O20,3.252845,,
Ca1Sb2O6,4.38836,,
W2Ca2Sr4O12,4.383913000000001,,
W2Ca2Sr4O12,4.046697999999999,,
Ca4Ta8O24,3.741579,,
V2O6Ca1,4.058394,,
Te6Ca2O16,2.975689,,
Ca4Pt4P4,0.177628,,
Ca4Se12P4,3.091786,,
Ca6P6,0.980343,,
Ca1Zn2P2,1.490326,,
Ca2P6,0.493747,,
Ca4Sr4Pb4,0.346964,,
Sb2Rb2Ca2,2.115389,,
Ca1S1,3.421917,,
Ca4Zr4S12,2.033227,,
Ca4Sc8S16,2.25428,,
Ca4Y8S16,2.500625999999999,,
Ca1Zn2Sb2,0.2088539999999999,,
Ca1Se1,3.028541,,
Ca4Sr4Si4,0.852255,,
Ca4Sr4Sn4,0.6357729999999999,,
Ca1Te1,2.379372,,
Ca1Te1,0.4742889999999999,,
Ca4Cd2P4,2.058244,,
Ca8Cd4Sb8,0.955245,,
Sb12Cd8Ca8K4,0.5837379999999991,,
Ca8Cr4Cl4O16,2.311092,,
Cu1Cl1Ca2Nb3O10,1.616853,,
Fe2Ca4Cl2O6,1.367623,,
Ca2N1Cl1,3.5237,,
Te4Cu1Ca2Cl2O10,3.457629,,
Ca4Co2O6,4.253944,,
Ca2Co1O3,3.442645,,
Ca4Co2Si4O14,4.262353,,
Co2Ca4Si4O14,4.257735999999999,,
Ca4O12Cr2Os2,1.777098,,
Ca4Cr2Sb2O12,3.241092,,
Ca4Cr4O10,1.788032,,
Cs1Ca2Ta3O10,3.427451,,
Ca4Fe2Cu2S2O6,1.403379,,
Ca4Cu2Zn4P6,0.928167,,
Ca2D6Fe1,3.891077,,
Ca2D6Os1,3.960766,,
Ca2F4,9.228291,,
Ca8Fe4Ga4O20,3.190942,,
Ca16Fe8Mn8O40,1.44305,,
Ca4Fe2Sb2O12,3.004148,,
Ca4Fe2W2O12,0.8597309999999999,,
Ca8Fe8O20,3.201259,,
Ca2Fe7O11,0.80078,,
Ca8Mn4Ga4O20,2.42057,,
Ga4Ca4O10,3.672541,,
Ca16Ge8N16,0.021761,,
Ge1Ca2O4,4.510566,,
Ca8Ge4S16,3.57961,,
Ca8Ge4,0.755618,,
In4Ge8Ca8Li4,0.35493,,
Ca8N4H4,2.376602,,
Ca2Mn2Si4O17H6,1.077963,,
Ca2Ru1H6,3.884479,,
Ca4N2I2,3.408036,,
Na2I2Ca4O12,4.472647,,
I1P1Ca2,2.427352999999999,,
Ca4In2Os2O12,1.941106,,
Ca4Mn2Sb2O12,1.732067,,
Ca4Mn2Ta2O12,1.483081,,
Ca2Ti1Mn1O6,2.239711,,
Ca4Mn2W2O12,2.478625,,
Ca8O20Mn8,3.183272,,
Ca2Mn3O8,2.90442,,
Zn1Ca2N2,1.721821,,
Ca8P4N12,3.874006999999999,,
V4Ca8N12,2.561744,,
Nb4Ca4O14,2.586698,,
Rb1Ca2Nb3O10,2.80661,,
Rb1Ca2Ta3O10,3.453158,,
Pb2Ca4O8,2.516177,,
Ca8Ru4O16,1.400396,,
Ca8Ru4O16,1.059666,,
Ca4Sn2O8,4.25704,,
Ca4Pd2W2O12,2.408534,,
Ca4Sb2Sc2O12,1.70799,,
Ca2Ti1Si1O6,3.67956,,
Ca4Sb4O14,3.293801,,
Ca4Sb4O14,1.283175,,
Ta4Ca4O14,3.46909,,
Pt3Ca2O8,2.751343,,
Ca6P6,1.008854,,
Ca8Si4S16,4.251786,,
Ca8Sn4S16,3.334048,,
Ca8Sb8S20,1.51962,,
Sb2Ca4,0.472998,,
Ca4Sb2,0.4748639999999999,,
Ca8Si4Se16,3.41151,,
Ca8Si4,0.638139,,
Ca8Sn4,0.375129,,
Ca6Fe4Cl4O10,3.605648,,
Ca3P1Cl3,2.821023,,
Ca6Co2Se8O24,4.609959,,
Ca6Co2Sc2O12,2.40141,,
Ca3Cu2Zn2P4,0.81469,,
Ca6Fe2Rh2O12,2.473517,,
Ca6Ga4N8,2.953411,,
Ca6Ga4P8,1.622325,,
Ge1Ca3O1,0.497532,,
Ca12Ge4O4,0.657832,,
Ca12Ge8P16,1.310286,,
Ca3Ge5Zn1O14,3.923859,,
Ca6Si6O20H4,6.498051,,
Sn2Ca6H4,0.56705,,
P4I12Ca12,2.99449,,
Ca12In4P12,1.70356,,
Os2Ca6O12Li2,2.021532,,
Ca6Li2Ru2O12,2.277703,,
Ca3Si2N6Li4,3.520048,,
Ca6O12Ni2Mn2,3.569388,,
Ca6O12Zn2Mn2,3.66961,,
Mn4Ca6O14,1.145253,,
Ca3N1P1,1.602128,,
Ca12N8,2.251554,,
Ca3N2,2.68985,,
Ca6N4,2.398508,,
Ca24N16,2.043033,,
Ca9N6,2.394829,,
Ca3N2,2.914634,,
Ca6N4,1.757514,,
V2Ca6N6,1.918448999999999,,
V2N6Ca6,1.918973,,
Ca6Na2Ru2O12,2.371747,,
Ca3Pb1O1,0.2346039999999999,,
Ca12Si4O4,0.581546,,
Ca3Sn1O1,0.38067,,
Ca6Re2O12,0.281283,,
Ca6Ti4O14,3.744895,,
Ca12P16Si8,1.513386,,
Ca8Cu6Zn4P10,0.739466,,
Ca4D22Fe3Mg4,3.913297,,
Ge4Ca16N16,2.368219,,
Ca8Ir2O12,1.15584,,
Ca8Mn4O14,3.637243,,
Ca16Si4N16,2.429762,,
Ti2Ca8N8,2.455902,,
Ca4P2O1,2.04445,,
Ca4Sb2O1,1.58956,,
Ca8Pd2O12,3.485708,,
Pt2Ca8O12,4.092656,,
Ca8O16Ru4,1.229358,,
Sb12Ca10Ga4,0.362187,,
Ca10P6H2,1.338754,,
Sb12Ca10In4,0.622096,,
W2Ca10N8O4,3.459493,,
Ca10P16,1.892188,,
Ca12Ga2N10,1.599472,,
Ca12Mn2N10,1.910307,,
Pt2Ca7Cu1O12,2.995861,,
Nb2Ca14Si4N18,3.164623,,
Cd2Cl2O2H2,3.969654,,
K4Cd1V5Cl1O15,3.31257,,
Cd1Rb4V5Cl1O15,3.28863,,
Cd1Tl4V5Cl1O15,2.711013,,
Cd4V4Cl4O12,3.817142,,
Cd4Mo4P4O24,2.759425,,
Sb4Cd4S8Cl4,2.373916,,
Pb2Cd1Cl2O2,3.454,,
Cd1Cl2,4.87382,,
Cs6Cd6Cl18,3.832972,,
Cs1Cd1Cl3,3.052211,,
Cd4Cl12O4H12,4.976059,,
Cs2Cd1Cl4,4.430842,,
Cd1Cl4Cu1O4H8,3.413385,,
Cd1Cr1F6,2.792591,,
Cd2Cr2O8,3.334809,,
Cd8Cr8O32,3.490276,,
Cd1Cr2O8N4H14,3.967016,,
Cd1Cr2O8N4H14,3.832342,,
Cd1K2Cr2O10H4,3.933555,,
Rb4Cd2Cr4O20H8,3.88137,,
Cd2Cr4O8,3.713295,,
Cd2Cr4S8,1.823787999999999,,
Cd2Cr4Se8,0.956582,,
Cs2Cd1Cr4O16H4,3.911642,,
Cs2La2Cd2Te6,2.454384,,
Cs2Lu2Cd2Te6,2.295615,,
Cs1Cd1N3O6,4.161466,,
Cs2Y2Cd2Se6,3.037386,,
Cs4I8Cd2,3.731563,,
Cs8Cd4I16,3.775366,,
Cs6Cd2D10,3.589355,,
Cs12Cd4I20,3.825283,,
Cd2Cu2F8,4.920096,,
V2Cd2Cu2O8,2.182335,,
Cd4Cu4Se8O24,3.817059,,
Cu4Cd2Ge2S8,1.519499,,
Cu2Cd1Ge1Se4,0.649161,,
Cu2Cd1Ge1Te4,0.493351,,
S8Cu4Cd2Si2,2.263188,,
Sn1S4Cd1Cu2,0.967183,,
Cu4Cd2Si2Se8,1.442417,,
Cd1Sn1Cu2Se4,0.49024,,
Cd1Si1Cu2Te4,1.064889,,
Cd1Sn1Cu2Te4,0.523149,,
Cd1Cu3Ti4O12,2.567754,,
Cd1F2,5.061095,,
Cd4F8,4.847299,,
K1Cd1F3,5.053308,,
Cd4Mn4F20,3.142891,,
Cd2Mn2F10,3.059871,,
Pd1Cd1F6,3.857043,,
Cd1Pt1F6,4.197803,,
Tl2Cd2Zr2F14,6.484299,,
Cd2Fe4O8,3.049424,,
Cd2In2Ga2S8,1.203293,,
Cd2Ga4O8,3.091139,,
Cd1Ga2S4,3.11664,,
Cd1Ga2Se4,2.222341,,
Cd1Ga2Te4,1.725978,,
Cd2Ge2Li4O8,3.984117,,
Cd2Ge2Li4S8,3.326303,,
Cd4Ge4O12,2.272021,,
Cd16Ge16O48,2.736814,,
Cd2Ge2O6,3.205519,,
Cd4Ge4O12,2.9561,,
P4Ge2Cd2,1.331124,,
Tl2Cd1Ge1Te4,0.6124700000000001,,
Na4Ge4Cd2S12,3.247651,,
Cd2Ge4O10,2.998451,,
Rb2Cd2I6O2H4,3.600067,,
Cd1O2H2,3.366307,,
Cd4Se4O20H8,4.348265,,
K4Cd2Se4O20H8,4.849168,,
Cd2Mg2N8O20H8,4.496462,,
Cd2Na4Se4O20H8,4.764146,,
Cd1Hg1O2,1.7925,,
Hg4Cd2S2O12,3.075651,,
Hg4Cd2Se2O12,2.620423,,
I10Cd5,3.356155,,
I12Cd6,3.366387,,
I16Cd8,3.330863,,
I10Cd5,3.123629,,
I14Cd7,3.354806,,
Cd9I18,3.339065,,
Cd3I6,3.336839,,
I24Cd12,3.341315,,
Cd2I4,3.336233,,
I24Cd12,3.080473,,
I6Cd3,3.351006,,
I8Cd4,3.333312,,
I12Cd6,3.348485,,
I18Cd9,3.335638,,
I4Cd2,3.357155,,
Cd1I2,3.39982,,
I16Cd8,3.334791,,
Tl4Cd4I12,3.076281,,
I4Sb6Cd1S8,2.092617,,
In8Cd2I12,1.978982,,
Tl8Cd2I12,2.752584,,
Cd2In4O8,2.448587,,
Cd2In4O8,2.430416,,
Cd2In4S8,1.98501,,
Cd1In2Se4,1.6672900000000002,,
Cd1In2Se4,1.766455,,
Cd1In2Se4,1.533822,,
Cd2In4Se8,0.84982,,
Cd1In2Te4,1.490081999999999,,
Cd1K1O6N3,4.122818,,
Cd1K2N12,4.103724,,
K8Cd4O8,2.575164,,
Cd4Sn4K8S16,2.445265,,
Sr2Cd2Sb4K4,0.8397089999999999,,
Sn1Se4Cd1K2,2.519223,,
Cd1K4P2,1.402886,,
K12Cd2O8,2.763932999999999,,
K12Cd2Te8,2.355397,,
Cd4Si4O16Li8,4.489124,,
Sn2Cd2S8Li4,2.964039,,
Cd2Lu4S8,2.16172,,
Cd2Lu4Se8,1.553144,,
Cd2Mn4O8,2.523309,,
Mo2Cd2O8,3.533356,,
Cd1Rb1O6N3,4.164554,,
Cd1Tl1O6N3,3.898748,,
Cd4Na4P4O16,4.728555,,
Cd4Na4P4O16,4.727176,,
Sb4Cd4S12Na4,1.73527,,
Na4Cd4Sb4,0.5291220000000001,,
Cd1Sn1Na2S4,2.936274,,
P2Na4Cd1,1.401404,,
Cd2V4P4O20,2.634345,,
Pb12Cd2Te2O20,2.930723,,
Cd2V4P8O28,2.53002,,
Cd2O2,1.093687,,
Cd1O1,0.763775,,
Rb8Cd4O8,2.610375,,
Cd4O8,3.17407,,
Cd4Sn4O12,2.156368,,
Cd2Sn2O6,2.502783,,
Cd4Tc4O12,2.557118,,
Cd2Ti2O6,4.408143,,
Ti4Cd4O12,3.496314,,
Cd4Ti4O12,3.454055,,
Cd4Ti4O12,3.467888,,
Cd4V4O12,2.078521,,
Cd4V4O12,2.580694,,
Cd2Pd6O8,0.3066859999999999,,
Cd2Rh4O8,2.750215,,
Cd2S2O8,4.755926,,
Cd2S2O8,3.402319,,
W2Cd2O8,4.236298,,
Cd2Se4O10,4.311693,,
Sr6Cd2Pt2O12,3.633943,,
Cd1Pt3O6,1.049499,,
Cd1Sb2O6,3.112633,,
W2Cd2Sr4O12,4.223892,,
Cd1V2O6,3.164899,,
Cd4V8O24,3.177714,,
Cd2P2S6,2.789118,,
Cd2P2S6,2.842682,,
Cd2P2Se6,2.015627,,
Cd2Rb4Se12P4,2.669572,,
Cd2Si2P4,1.992457,,
Cd2Sn2P4,0.9005719999999999,,
Cd8P16,2.168771,,
Cd8P16,2.167934,,
Cd4P8,2.160213,,
Cd2P8,0.991545,,
Cd2S2,2.381998,,
Cd1S1,2.102119,,
Cd1S1,1.219676,,
Cd2S2,1.210833,,
S8Cd4,2.218719,,
Cd2Sc4S8,1.988111,,
Cd2Y4S8,2.126354,,
Cd8Sb8,0.515836,,
Cd2Sc4Se8,1.400408,,
Cd1Se1,1.40393,,
Cd2Se2,1.474196,,
Cd1Se1,0.3512579999999999,,
Se8Cd4,1.44726,,
Cd2Y4Se8,1.515194,,
Tl2Cd1Sn1Te4,0.6136,,
Cd2Te2,1.672582,,
Cd3Te3,0.772988,,
Cd1Te1,1.632519,,
Cd1Tl2Te4,0.451262,,
Cd8Cl4O12H12,3.678122,,
Cd4P6Cl2,1.870575,,
Cd4P6Cl2,1.87903,,
Cd8Cl8P4,2.228082,,
Cu1Cd2P2O8,3.710696,,
Cd8P4O16F4,4.096468,,
Sb10Cd4Sr10F2,0.05226,,
Cd8Ge4O16,2.547799,,
Cd4S2O12H4,4.410453,,
Cd4O8H8,3.307414,,
Cd4P6I2,1.788951,,
Cd4P6I2,1.784152,,
Tl6Cd4I14,2.663258,,
Sb10Cd4K22,1.182328,,
Sb12Cd8Sr8K4,0.684164,,
K4Cd4O6,1.851237,,
Mn3Cd2O8,2.491574,,
Na14Cd2O9,2.837956,,
Cd4Si6Na8O20,4.3923119999999995,,
Nb4Cd4O14,3.404111,,
Cd4Nb4O14,3.455332,,
Cd4Si2O8,2.998266,,
Cd4Sn2O8,1.771079,,
Cd4P4O14,4.488681,,
Ru4Cd4O14,0.028872,,
Cd4Sb4O14,1.684874,,
Cd4Sb4O14,2.088748,,
Cd4Ta4O14,3.530034,,
Cd8Te8O28,3.090067,,
Cd2V2O7,3.6084259999999992,,
Cd8Te12O36,3.222064,,
Sr1Cd2P2,1.445073,,
Sr1Cd2Sb2,0.5112220000000001,,
Cd6Cl4O4,2.53366,,
Cd6P2Cl6,2.785976,,
Cs4K4Cd6O10,2.484803,,
Cd6Te8Cs4,2.288363,,
Cd12K8S16,2.76983,,
K8Cd12Se16,2.2727,,
Cd12K8Te16,2.190314,,
Cd6Si6Na4O20,4.120311,,
Cd6Si2O10,2.365732,,
Te2Cd6O12,1.99341,,
Cd24P16,0.647369,,
Cd24P16,0.7484839999999999,,
Cd12Rb8S16,2.754655999999999,,
Cd12Rb8Se16,2.2749379999999992,,
Tl4Cd6Sb6,0.382333,,
Cd8F12O2,3.562276,,
Cd8Ge2S12,2.362117,,
Cd8Ge2Se12,1.582547,,
K2Cd8V6O24,3.732149,,
K1Cd4P3,0.572788,,
Cd4Sn3Se13K6,1.930042,,
P6N12Cd4S1,4.386392,,
Cd8Si2S12,2.490296,,
Cd8Si2Se12,1.695774,,
Sb12Cd6Sr11,0.847792999999999,,
Cd14P20,1.733427,,
Ce1Na1Cs2Cl6,4.724906,,
Ce1Cs2Cl6,3.162277,,
Ce2Cu2Cs2S6,1.896248999999999,,
Cs1Ce1S2,2.787926999999999,,
Ce1Rb3F6,2.651607,,
Ce4Mn8Ge16O48,1.788357,,
Ce2K2P8O24,4.747029,,
Ce2Se8K2,1.476477,,
Ce2P4K4O16,2.98465,,
Ce2P4O16K6,4.715808,,
Ce1Li2N2,2.694266,,
Ce1Li8O6,4.453051,,
Ce2Lu2S6,1.397807,,
Sr1Ce1N2,2.159559,,
Ce2P10O28,4.649643,,
Ce1O2,3.356874,,
Sr4Ce4O12,4.044659,,
Ce6P6O24,4.683046,,
Ce6P6O24,4.6822420000000005,,
Ce2Si2O8,2.998973,,
Ce2Sr4O8,3.983069,,
Ce4Rh8O20,1.937822999999999,,
Ce4P8O28,3.30165,,
Ce2Pt4,0.164647,,
Ce1Ru4Sn6,0.274382,,
Ce4Te8Cl4O22,2.745499,,
Ce2Se1F4,3.643256,,
Ce6Pt6Sb8,0.802014999999999,,
Re2Cs3O1Cl10,0.881632,,
O2Cu8Cl20K8,2.873451,,
Re2K4Cl10O1,2.513345,,
O1K4Ru2Cl10,1.569812,,
W2K4Cl10O1,1.816167,,
Nb2Cl20P2,3.367105,,
Ta2Cl20P2,3.834702,,
Hg5Cs1Cl11,4.012357,,
Cs2Nb8Cl22,1.323772,,
Hg5Tl1Cl11,3.908494,,
Nb4K2Cl22,3.186382,,
N2S4Cl22Re4,1.885224,,
Cl11P4N3,4.139806,,
Nb8Rb2Cl22,1.319738999999999,,
W8Cl22P2,1.222042999999999,,
Sc7Co1Cl12,0.618727,,
Cs8Tl2Cl24Sb2,2.128254,,
Hf2Se4Cl24,3.977791,,
Mo2Se4Cl24,1.415386,,
Mo21Cl42,0.888528,,
Nb2Cl24P4N2,3.540149,,
Ta2Cl24P4N2,4.116833,,
Os2Se4Cl24,1.411825,,
Os1Te2Cl12,1.330575,,
Re2Se4Cl24,2.524261,,
Re1Te2Cl12,2.440919999999999,,
Re4Cl24S2,2.415841,,
Sc7Cl12,0.858945,,
Zr2Se4Cl24,4.00182,,
Mo12Cl26Li2,3.569277,,
Na2Mo12Cl26,3.547647,,
W6Sn4Cl28,1.372315,,
Zr6Cl15Co1,1.84717,,
Hg11Ga4P4Cl16,2.327821,,
Ge12Cl32,4.285217,,
Hg3Tl10Cl16,3.578817,,
Si12Cl32,5.910846,,
W6Cl17P1,0.311623,,
Pb1Nb6Cs2Cl18,1.5843,,
Ta6Cl18Pb1Cs2,1.973634,,
K2Mn1Nb6Cl18,1.501377,,
Nb6Tl2V1Cl18,1.29041,,
Cs4Cr4Cl4O12,4.099737,,
Cr4Cl4O12K4,4.092945,,
Cr2O2Cl2,2.940962,,
Rb4Cr4Cl4O12,4.127183,,
Mn4V4Cl2O14Cs2,2.498619,,
Cs4Tc4Cl4N4O16,4.014471,,
Cs2Cl2O4,4.119284,,
Cs1Cl1,6.109946,,
Cl1Cs1,6.346826,,
Cs12Cl4O4,2.667483,,
Ga22Cs16Cl2,1.28218,,
Cu4O4H4Cl4,3.050029,,
Cu4N4Cl4H12,3.596086,,
Zn2Cu2Cl2O6H6,4.074648,,
Hg8Cu8S8Cl8,1.934702,,
Cu4Hg4S4Cl4,1.828321,,
Hg4Se4Cu4Cl4,1.740209,,
K4Cu1V5Cl1O15,2.191081,,
Cu1Cl1La1Nb2O7,1.59061,,
Cu2Cl2La2Ta4O14,1.638648,,
Sr6Cu3Cl3O6,4.077158,,
Se12Cu4Cl4P16,2.525767,,
Cu4Cl4Se8,1.714731,,