formula,bg,formation_energy,mp-id
Si2In3Ho3Ir,0.0,-0.0383309,
B2Rh3Pu,0.0,-0.038330199999999995,
SiSe4HgTl2,0.6755,-0.0383301,
Zn3SmIr2,0.0,-0.0383299,
FeZr2Os,0.0,-0.0383297,
SiTe3Pr4,0.0,-0.0383295,
AgInPr2,0.0,-0.038329300000000004,
CSi2Sm2Os2,0.0,-0.0383291,
KTe3Au,0.2337,-0.0383287,
Ni2In3Th,0.0,-0.038328,
ScAgHg,0.0,-0.0383274,
MgSbIr,0.0,-0.0383266,
MgZnTh,0.0,-0.0383264,
AsAg2Pt,0.0,-0.038326,
AlRh2Lu2,0.0,-0.0383258,
SiTe3La4,0.0,-0.0383256,
CoPd2Pt,0.0,-0.038324199999999996,
ScMo2W,0.0,-0.0383238,
Ga3BaAu2,0.0,-0.038323300000000005,
Si3HfTh,0.0,-0.038322800000000004,
AgSb2Sm,0.0,-0.0383226,
SiInPt,0.0,-0.0383226,
Co2ZrHf2,0.0,-0.0383223,
H2Dy3Pb,0.0,-0.0383219,
CuAs2Hg2,0.0,-0.0383218,
Si2Dy2Pt,0.0,-0.0383218,
B2CGdIr2,0.0,-0.038320599999999996,
Ru2In3Sm3,0.0,-0.0383202,
KSb2Au,0.0,-0.0383198,
K2GaBi2,0.0,-0.0383198,
MnZr2Os,0.0,-0.038319000000000006,
Al2SnAu2,0.0,-0.0383185,
Na2CsTl2,0.0,-0.0383179,
PdSnLa,0.0,-0.0383176,
As2SbPb,0.0,-0.038317500000000004,
KSr2Hg2,0.0,-0.0383174,
Y3Hg,0.0,-0.0383168,
Ga2AgHf2,0.0,-0.038316499999999996,
MgCaHg2,0.0,-0.0383162,
AgTe2Pr,0.8105,-0.038315800000000004,
Ga2YAc,0.0,-0.0383145,
ZnInHg,0.0,-0.038314100000000004,
NSnTb3,0.0,-0.038314,
Pd2Tb,0.0,-0.0383139,
MgTePt,0.0,-0.0383133,
SiZrPt,0.0,-0.0383121,
NiGa2U,0.0,-0.038311700000000004,
Mg2AuTl,0.0,-0.0383112,
KGe2Tl2,0.0,-0.0383091,
Se2RuNd6,0.0,-0.0383091,
ZrSbCe,0.0,-0.0383087,
YNd2,0.0,-0.0383085,
Ga3U,0.0,-0.038308,
Fe2Tm3,0.0,-0.0383074,
SeTeCe2,0.0,-0.0383066,
LiAs2LaAu2,0.0,-0.0383064,
CoPdEr2,0.0,-0.038306,
CdBa2La,0.0,-0.0383058,
BGa2PrIr2,0.0,-0.038304200000000004,
Ga5Nd2Au3,0.0,-0.0383034,
CuRh2Pt,0.0,-0.0383029,
Co2CdHf2,0.0,-0.0383028,
Ga2ZrHf2,0.0,-0.038302100000000006,
CoAs2Tb6,0.0,-0.0383018,
CdInNd2,0.0,-0.0383008,
LiSb2Pb,0.0,-0.038299,
GePd3Eu2,0.0,-0.038298900000000004,
AsCeTb,0.0,-0.0382987,
LiBa2Ir,0.0,-0.038298200000000004,
GeSrPt,0.0,-0.0382976,
SrIn4Ir,0.0,-0.038297199999999997,
Se2RhNd6,0.0,-0.0382969,
ZnAg2Er3,0.0,-0.0382959,
SrIn4Pt,0.0,-0.038295699999999995,
SiTeTa,0.0,-0.038295699999999995,
AlRu2Lu2,0.0,-0.0382953,
Ru2Sb2Ce,0.0,-0.0382951,
Ru2InPr2,0.0,-0.038294600000000005,
ZnLa5,0.0,-0.038294400000000006,
Cu3PrAu2,0.0,-0.038292700000000006,
LiAs2PrAu2,0.0,-0.038292299999999994,
CAlTa2,0.0,-0.0382922,
Rh2InPr2,0.0,-0.0382917,
MgRb2SrBi2,0.0825,-0.0382913,
InBa3,0.0,-0.0382908,
CuY6Bi2,0.0,-0.0382906,
CZr2Bi,0.0,-0.0382901,
ZnYIr,0.0,-0.0382897,
CSi2Ce2Os2,0.0,-0.0382896,
CuRh2W,0.0,-0.0382895,
GaPdEr2,0.0,-0.0382895,
GeRh2Hf,0.0,-0.0382884,
CSbTb3,0.0,-0.0382883,
NiSbGd,0.0,-0.038286099999999997,
RbTe2Tm,1.1612,-0.038285400000000004,
HSnBaTl,0.1356,-0.038285,
GaGd,0.0,-0.0382847,
Ru2Sm,0.0,-0.0382845,
Ge2In3Pr3Au,0.0,-0.038284399999999996,
TiSb5Sm3,0.0,-0.0382822,
Na2CdPb2,0.0,-0.0382817,
HTe2Pb,0.0,-0.0382814,
ZnZr6Tl2,0.0,-0.038281100000000005,
C3Dy2W2,0.0,-0.0382804,
Zn2In2Th,0.0,-0.0382802,
LiZnHg2,0.0,-0.038279200000000006,
Ru2Sb2Sm,0.0,-0.038278799999999995,
SrIn4Tl,0.0,-0.0382762,
Se2BaHg,0.806,-0.0382756,
CuSnHf,0.0,-0.0382741,
CdSnTb,0.0,-0.0382735,
Pd7Pb,0.0,-0.0382725,
NiSb2Dy2,0.0,-0.0382725,
TiY6Bi2,0.0,-0.0382723,
BGa2LaIr2,0.0,-0.0382722,
SiPd2Lu2,0.0,-0.0382716,
CaTe4Ho2,0.3723,-0.038271099999999995,
NiRh2Tm2,0.0,-0.038269599999999994,
CrZr2Os,0.0,-0.038269399999999995,
Pd2SnDy,0.0,-0.038269,
Ge2SrAc,0.0,-0.0382689,
Si2In3Ho3Pt,0.0,-0.038268500000000004,
ScLa5,0.0,-0.038267499999999996,
MnCo2Pa,0.0,-0.0382674,
Fe2ZnU,0.0,-0.0382664,
ClTe2Au,0.0,-0.038266100000000004,
Se2Cs2Pt,0.9009,-0.038265799999999996,
Cu3LaAu2,0.0,-0.0382655,
Al3GdPt2,0.0,-0.038264400000000004,
O2RbPu,0.0,-0.0382641,
Ga5La2Au3,0.0,-0.0382641,
AsNdDy,0.0,-0.0382638,
CCdLu2,0.0,-0.038263399999999996,
Ag2CdGd,0.0,-0.038262500000000005,
As2CdCe6,0.0,-0.0382624,
K2NiBi2,0.0,-0.038262,
Rh3Pr2,0.0,-0.038262,
CaInAu,0.0,-0.0382618,
KI3Au,0.4892,-0.0382618,
Ga2Cd2Th,0.0,-0.038260800000000005,
Al2HfIr,0.0,-0.0382601,
Li2PdPb2,0.0,-0.038258099999999996,
Br4Np,0.0,-0.038258,
GeZrHf,0.0,-0.0382578,
Be2OsPt,0.0,-0.0382577,
Ge3RuTh,0.0,-0.038257,
Li2PtPb,0.0,-0.038256399999999996,
LiMgTl2,0.0,-0.038256399999999996,
NPdDy3,0.0,-0.0382556,
Al2TaAu,0.0,-0.0382555,
Cd4Au,0.0,-0.0382552,
Al3Ta2Re,0.0,-0.038255000000000004,
Ag2InLu,0.0,-0.0382535,
CuZrHg,0.0,-0.038253100000000005,
Fe2GaPa,0.0,-0.0382518,
Si2Rh3U,0.0,-0.038251600000000004,
NaSe2U,0.0,-0.038251600000000004,
AgSm,0.0,-0.0382513,
SbTe4Cs3,0.7165,-0.038250900000000004,
Cu2Pr2Tl,0.0,-0.0382505,
Rh5Gd,0.0,-0.0382503,
CoZr2Os,0.0,-0.038249000000000005,
LiI3Pb,1.1217,-0.0382487,
FCs3Hg,0.0,-0.038248199999999996,
ZnRu2Dy3,0.0,-0.038247500000000004,
AgCdTm,0.0,-0.038247300000000005,
Ni2AgHf2,0.0,-0.0382468,
GaYHg,0.0,-0.0382458,
BRh6Hf2,0.0,-0.038245600000000005,
AgBa5,0.0,-0.038245600000000005,
KSnAu,0.0,-0.0382452,
Ni2TbTl,0.0,-0.0382449,
Ge2In3La3Au,0.0,-0.038244799999999995,
AlMoRe,0.0,-0.0382446,
MnRu2Hf,0.0,-0.0382436,
Ni2GaU,0.0,-0.038243400000000004,
Zn2In5Lu4,0.0,-0.038243200000000005,
ClSb2Au,0.0,-0.0382426,
Ag3La4,0.0,-0.0382423,
GeI3La3,0.0,-0.0382422,
Ga2DyAu,0.0,-0.0382421,
Ga2Tm3,0.0,-0.038242,
TcAgLa2,0.0,-0.0382419,
SiSbTa,0.0,-0.0382418,
RhBa3,0.0,-0.038241500000000005,
Tc3La2,0.0,-0.0382405,
C2HfTa,0.0,-0.038239600000000006,
Zn3NdPt2,0.0,-0.038239600000000006,
O4IBi3,1.0336,-0.0382393,
SnI4Ba,2.123,-0.0382377,
AgInLa2,0.0,-0.038237299999999995,
Rh2InLa2,0.0,-0.038237,
NiAs2Tb6,0.0,-0.0382361,
GeCeHo,0.0,-0.0382358,
KInTl,0.0,-0.0382355,
ZnPdTm2,0.0,-0.038235399999999996,
CaSn2Au,0.0,-0.0382345,
Rh2Sb2Ce,0.0,-0.0382343,
NaTe2Tl,0.0,-0.0382334,
CSi2Sm2Ir2,0.0,-0.0382325,
N2In3Tb7,0.0,-0.038232300000000004,
Rh3La2,0.0,-0.0382316,
RhSbBa2,0.0,-0.038231499999999995,
Rh3SnNd2,0.0,-0.0382314,
Rb2AgBi,0.7825,-0.0382299,
CGe2Mo2Pu,0.0,-0.0382295,
Mn3Er2Os,0.0,-0.038228200000000004,
CoZr2Ir,0.0,-0.038227899999999995,
Al2In3Hf3,0.0,-0.0382276,
SiRu3Lu2,0.0,-0.0382272,
OInDy3,0.0,-0.0382272,
ZnRh2Dy3,0.0,-0.0382262,
TiMo2Ta,0.0,-0.0382257,
Pd2InEr,0.0,-0.0382256,
PdIn2Er,0.0,-0.038225499999999996,
AgSn2Dy,0.0,-0.0382243,
TiPd2Au,0.0,-0.038223999999999994,
NI2Er2,0.0,-0.0382239,
Zn2Tb2Hg,0.0,-0.038223799999999995,
GaI3Sm3,0.0,-0.0382222,
RuIn3Sn2Nd3,0.0,-0.0382218,
BAl2GdOs2,0.0,-0.038221200000000004,
Ti3PdOs2,0.0,-0.038221,
ZnRh2Ir,0.0,-0.0382206,
PZr6Pt2,0.0,-0.0382194,
ScZr2Pb,0.0,-0.0382187,
RhIn3Sn2Nd3,0.0,-0.0382187,
Ti2InHf2,0.0,-0.038218600000000005,
Si2Dy2Tl,0.0,-0.038218600000000005,
SeY2Pt,0.0,-0.0382176,
BePt,0.0,-0.038216599999999996,
Ru2InLa2,0.0,-0.0382156,
Rh2Sb2Sm,0.0,-0.0382139,
SeI2Sm2,0.0,-0.0382136,
Pd2In3Sm3,0.0,-0.0382132,
AlTe2Au,0.5806,-0.0382123,
CSi2Ce2Ir2,0.0,-0.0382123,
YSbTb,0.0,-0.038212,
GeSrIr,0.0,-0.0382112,
RhPd2Er,0.0,-0.0382091,
CoRu2Tb3,0.0,-0.0382079,
Zn3TbAu2,0.0,-0.038207500000000005,
CaAgTl,0.0,-0.0382045,
SeI2Ce2,0.0,-0.0382032,
SiTc2Ir,0.0,-0.0382023,
Li3HfBi2,0.0,-0.0382023,
In3Sn3Tb2,0.0,-0.038202,
Mg2PtAu,0.0,-0.0382007,
Li2InPb2,0.0,-0.0382006,
Ga3Tm2Ir,0.0,-0.038199,
Rb2Te2Pt,0.8672,-0.0381974,
S2RbNp,0.0,-0.0381972,
AsSmTb,0.0,-0.0381969,
Y2Cd2Tl,0.0,-0.0381966,
MoTe2Ba2,0.0,-0.0381947,
AsY2Tl,0.0,-0.0381941,
OI2Re,0.0,-0.038193,
MgTe2CsAu,1.9409,-0.038191699999999995,
RhCdLa2,0.0,-0.0381904,
Al2YIr2,0.0,-0.038188099999999996,
In7Tl,0.0,-0.0381866,
Rh3Ho,0.0,-0.0381862,
Zn3PrPt2,0.0,-0.0381858,
CaTe2Ta,0.0,-0.03818439999999999,
CdTe2La,0.0,-0.038182499999999994,
NaGe2Pu,0.0,-0.0381824,
NZnHf2,0.0,-0.0381819,
Cu2La2Tl,0.0,-0.0381819,
PdCdHo,0.0,-0.0381816,
Si2RuTa2,0.0,-0.0381813,
LiSr2Pt2,0.0,-0.0381811,
OI2Os,0.0,-0.0381794,
Mg2IrAu,0.0,-0.038178800000000006,
CaSn3Ir,0.0,-0.0381786,
OPdDy3,0.0,-0.0381779,
AsPrDy,0.0,-0.0381776,
NaRb2Tl2,0.0,-0.038177300000000004,
AsCsEu,0.0,-0.038177300000000004,
GeRhGd,0.0,-0.0381764,
Sr2InTl,0.0,-0.038176299999999996,
SrCd2Hg,0.0,-0.0381755,
CAl2Si2Pu2,0.0,-0.0381747,
ZnMo2W,0.0,-0.038174599999999996,
Ge2PdIn3Lu3,0.0,-0.0381741,
SiRu2Os,0.0,-0.038174,
Li2BaTl2,0.0,-0.0381725,
ZnCdEu2,0.0,-0.0381719,
NiIn2Au,0.0,-0.0381711,
Rh7Ta,0.0,-0.038170699999999995,
RuCdLa2,0.0,-0.038170699999999995,
Ga3Tm2Os,0.0,-0.0381706,
Rh2Sn2Dy,0.0,-0.0381702,
Sr2SnAu,0.0,-0.0381701,
Zn3NdIr2,0.0,-0.03816919999999999,
NaSr2Au2,0.0,-0.0381687,
AsI2Sm2,0.0,-0.0381683,
S2GdAu,0.52,-0.0381672,
RuSn2Nd,0.0,-0.0381669,
CMoW,0.0,-0.0381668,
SiRh3Lu2,0.0,-0.0381668,
CdInPr2,0.0,-0.0381664,
MnZr2Pt,0.0,-0.038162999999999996,
MnZr2Tl,0.0,-0.0381629,
TiSbGd,0.0,-0.0381628,
Zn2SrAu2,0.0,-0.038162100000000004,
Ge3GdIr,0.0,-0.038161299999999995,
ZnIHf,0.0732,-0.038161099999999996,
LiK2Au3,0.0,-0.0381606,
NaBa2Hg,0.0,-0.0381603,
Li2IrPb,0.0,-0.038158700000000004,
GePm3,0.0,-0.038158700000000004,
Zn2TmIr,0.0,-0.038158000000000004,
Ru2Sb2Nd,0.0,-0.0381576,
PZnHf2,0.0,-0.038156999999999996,
ZnAgAu,0.0,-0.038156100000000005,
PTc2Re,0.0,-0.038155299999999996,
O2PtHg,0.0,-0.038153799999999995,
FeZr2Pt,0.0,-0.038152900000000003,
SeY2Ir,0.0,-0.0381526,
Al2YPt2,0.0,-0.0381523,
MgAs2Tl2,0.0,-0.0381523,
Zn3LaPt2,0.0,-0.0381512,
CuRuEr2,0.0,-0.0381482,
CoSbDy2,0.0,-0.0381481,
OAgIPb,0.7683,-0.038147799999999996,
KGe2Ir2,0.0,-0.0381476,
Zn2Sm2Tl,0.0,-0.0381473,
Co2Nd2Hg,0.0,-0.038146700000000006,
NiRh2Ta,0.0,-0.038146700000000006,
ZnY6Bi2,0.0,-0.0381456,
Al2HfPt,0.0,-0.038145000000000005,
MnRu2Er2,0.0,-0.0381443,
ZnInTm2,0.0,-0.038144,
Co3Tm2Os,0.0,-0.0381438,
Cd2PrTb,0.0,-0.0381426,
Pd3Er,0.0,-0.0381423,
Ge3RhTh,0.0,-0.0381417,
Cu2InHf2,0.0,-0.0381414,
SbCs3,0.0758,-0.0381404,
CSi2Tb2W2,0.0,-0.0381404,
Rh2Ce,0.0,-0.0381402,
RhSn2Nd,0.0,-0.038140099999999996,
OZnAsNp,0.0,-0.03814,
PdAgLa2,0.0,-0.0381397,
ClRb2Hg2,0.0,-0.0381393,
Ag2CeSm,0.0,-0.038138599999999995,
Ru2CdCe2,0.0,-0.0381382,
GaCdTm2,0.0,-0.0381376,
Mg4As6Ir7,0.0,-0.0381374,
Rh2CdTm,0.0,-0.0381362,
Pd2InNd2,0.0,-0.0381357,
CuYAu,0.0,-0.0381354,
FePd2Hg,0.0,-0.038135300000000004,
Pd2In3Ce3,0.0,-0.0381342,
Zn2Nd3Hg,0.0,-0.0381342,
YPr2,0.0,-0.0381338,
GeTeLu,0.0,-0.038133299999999995,
CSnTm2,0.0,-0.038133099999999996,
AgSb2Nd,0.0,-0.0381329,
RuIn3Sn2Pr3,0.0,-0.0381328,
Ag5Tl,0.0,-0.038132599999999996,
ScGe6Ir4,0.0,-0.0381324,
Al2TaW,0.0,-0.038131399999999996,
NiRh2Au,0.0,-0.038131399999999996,
Se2RuPr6,0.0,-0.0381308,
CdBa5,0.0,-0.0381301,
AlRhPt,0.0,-0.0381301,
Si4Y3Os4,0.0,-0.0381299,
RhIn3Sn2Pr3,0.0,-0.038129800000000005,
As2PdLu2,0.0,-0.0381295,
Si2TcTa2,0.0,-0.0381269,
CdInHo,0.0,-0.0381265,
CaSn3Pt,0.0,-0.0381261,
Sr3I3Bi,1.0801,-0.0381257,
ScTc2Ta,0.0,-0.038125599999999996,
In3Er,0.0,-0.0381241,
LiBa2Au,0.0,-0.0381241,
N2Tb2Pt,0.0,-0.0381239,
CoGd,0.0,-0.0381238,
MgInPb,0.0,-0.038123699999999996,
Ga2CdHf2,0.0,-0.038123699999999996,
Ni3Ir2,0.0,-0.038122300000000005,
Rh2Sm,0.0,-0.03812189999999999,
Zn2TmPt,0.0,-0.0381218,
ZnGeGd2,0.0,-0.0381218,
Se2RhPr6,0.0,-0.0381212,
KSn2Pt,0.0,-0.0381211,
Rh3SnPr2,0.0,-0.038121,
AsI2Ce2,0.0,-0.038120600000000004,
Ag2CdDy2,0.0,-0.038119,
Ru2Sb2La,0.0,-0.0381187,
CuRhEr2,0.0,-0.0381186,
AlNbIr,0.0,-0.0381183,
SiZrRe,0.0,-0.038118200000000005,
MgSn2Lu2,0.0,-0.0381173,
ZrRh2Er,0.0,-0.0381172,
ZrSb2La,0.0,-0.0381172,
AgSbPr,0.0,-0.0381164,
Si2Ru2Th,0.0,-0.038116,
Fe3Er2Ir,0.0,-0.0381147,
AlNbOs,0.0,-0.038114600000000005,
H3AuPu,0.0,-0.0381141,
Rh2CdSm2,0.0,-0.038113999999999995,
RhIn2Ho,0.0,-0.0381135,
Ru2Sb2Pr,0.0,-0.0381132,
Zn3PrIr2,0.0,-0.0381132,
NiRu2Tb3,0.0,-0.0381128,
Cl2Nd2Bi,0.0,-0.0381122,
NiCd2Pb,0.0,-0.0381122,
Na2BaPt2,0.0,-0.0381117,
ScIn2Au,0.0,-0.0381115,
Sb4Cs5,0.0,-0.038111,
GeLu,0.0,-0.038110700000000004,
AsEu,0.0,-0.0381099,
CuPd2Dy3,0.0,-0.0381094,
GaPd2Tm2,0.0,-0.0381084,
Ge3GdOs,0.0,-0.0381072,
N2ZrTh,0.0,-0.038106499999999995,
B2TcW2,0.0,-0.038106,
Sc2NiPt2,0.0,-0.038105,
AgCe,0.0,-0.0381023,
CuRu2Tm2,0.0,-0.0381022,
AgSbLa,0.0,-0.0381017,
Ga3Sn2Dy3Ir,0.0,-0.0381014,
SiTc2Re,0.0,-0.038098599999999996,
FeZr2Tl,0.0,-0.0380983,
Ti2ZnPt2,0.0,-0.0380982,
ScCdHg,0.0,-0.0380978,
P2SrIr2,0.3939,-0.038097299999999994,
SiSe3Lu4,0.0,-0.038097299999999994,
YIn5Au,0.0,-0.038097099999999995,
Al3Ta2Au,0.0,-0.038096899999999996,
NiRh2Tb3,0.0,-0.0380968,
Fe5Ir3,0.0,-0.0380967,
PdIn3Sn2Nd3,0.0,-0.0380964,
Ni2CdHf2,0.0,-0.0380961,
RuSn2Pr,0.0,-0.038095500000000004,
N2CdPa,0.0,-0.038095500000000004,
Nb6PdPt,0.0,-0.038095399999999995,
B2Ru3Np,0.0,-0.038095399999999995,
Ga2RbHg2,0.0,-0.038095199999999996,
P2SrOs2,0.0,-0.0380951,
Ru2CdSm2,0.0,-0.0380946,
YIn2Lu,0.0,-0.038094,
GaPdHf,0.0,-0.038093800000000004,
HCsTl,0.0,-0.0380937,
Rh3SnLa2,0.0,-0.038093600000000005,
Ru2SbPm,0.0,-0.0380933,
NaRhPb,0.0,-0.0380932,
Mg2TmAc,0.0,-0.0380932,
N2SrNp,0.0,-0.038091900000000005,
KSn2Ir,0.0,-0.038091099999999996,
CI5Nd4,0.0,-0.0380897,
Ga2La2Hg,0.0,-0.0380891,
PRuTa,0.0,-0.0380883,
ZrSbNd,0.0,-0.0380879,
Zn3LaIr2,0.0,-0.0380874,
P2Rh2Th,0.0,-0.0380864,
KCs3Hg,0.0,-0.038086,
Fe2In3Lu3,0.0,-0.0380835,
GaCd2Pb,0.0,-0.0380835,
SiRu2Re,0.0,-0.0380833,
AgSb2La,0.0,-0.0380833,
NaCdBi,0.0,-0.0380832,
RhIn3Sn2La3,0.0,-0.0380831,
PAgEu2,0.0,-0.0380829,
ZnRh2Pt,0.0,-0.0380828,
SiTe2Hg,0.0,-0.038082700000000004,
RuIn2Ho,0.0,-0.0380818,
CAsTm3,0.0,-0.0380818,
B2MoW2,0.0,-0.038080800000000005,
ScZrHg,0.0,-0.038080199999999995,
Sr2Rh2Pb,0.0,-0.0380799,
Sr2Hg,0.0,-0.0380785,
Te5Cs2,0.0817,-0.0380777,
ClIHg,2.1421,-0.0380772,
MgTe2Pt,0.0,-0.0380771,
AgSb2Pr,0.0,-0.038076900000000004,
As2BaAu,0.0,-0.0380758,
RhCsBa3,0.0,-0.0380756,
MgRu2Er3,0.0,-0.0380746,
RbSbEu,0.105,-0.0380741,
NiSb4Dy2,0.0,-0.0380738,
Ni2ZrHf2,0.0,-0.038073,
RhSn2Pr,0.0,-0.038073,
Ag2Er,0.0,-0.0380722,
CdInLa2,0.0,-0.038072,
Si2MoTa2,0.0,-0.0380715,
NaTe2Ir,0.4887,-0.0380713,
Rh2Sb2Nd,0.0,-0.038071100000000004,
B2RuW2,0.0,-0.0380695,
ZnIn2Ir,0.0,-0.038068399999999995,
Zn2Ce2Tl,0.0,-0.0380683,
P2MnPu,0.0,-0.0380666,
Cl2La2Bi,0.0,-0.038066,
Se2RuLa6,0.0,-0.0380654,
Ni2La2Au,0.0,-0.0380649,
Co3Pa,0.0,-0.0380635,
SeITm,2.0153,-0.038063200000000005,
YSn2La2,0.0,-0.0380621,
MgSn2Pb,0.0,-0.0380616,
Si2Ru3Pa,0.0,-0.0380597,
NGaEu3,0.0,-0.0380591,
MgRh2Bi,0.0,-0.038057299999999995,
KCs2Hg,0.0,-0.038057099999999996,
CSi2Nd2Os2,0.0,-0.0380569,
ScRh2Hg,0.0,-0.0380565,
K2SnHg2,0.0,-0.0380551,
CoInHf,0.0,-0.0380543,
MnRh2Hf,0.0,-0.0380539,
Sr2RhTl,0.0,-0.0380539,
Ag2Sn2Eu,0.0,-0.038053199999999995,
AgInDy,0.0,-0.0380525,
LiNaTl2,0.0,-0.0380524,
Ni4Ta3,0.0,-0.0380522,
ScCd2Pb,0.0,-0.0380522,
SiI2Er2,0.0,-0.038051699999999994,
Se2RhLa6,0.0,-0.0380511,
MnGa2Pa,0.0,-0.0380499,
Si2RhTa2,0.0,-0.0380493,
Ga3Sn2Dy3Os,0.0,-0.0380493,
NaCaHg2,0.0,-0.0380491,
NbRu2Dy,0.0,-0.0380486,
Fe3Er2Pt,0.0,-0.0380481,
Br2Cs2Hg,3.5677,-0.0380478,
RhInSm,0.0,-0.038047199999999996,
LiMgPtTl,0.0,-0.0380462,
Rh2In3Nd3,0.0,-0.0380451,
Ru4LaCe,0.0,-0.0380449,
Se2NbPb,0.0,-0.03804419999999999,
CTeEr2,0.0,-0.0380439,
FeRu2Er2,0.0,-0.038043799999999996,
Si2Sb2Dy5,0.0,-0.0380434,
CuRu2Ta,0.0,-0.0380433,
Rh2PdLa2,0.0,-0.0380431,
Rh2Sb2La,0.0,-0.038042400000000004,
MgBaHg,0.0,-0.038042299999999994,
Si2PdTh,0.0,-0.0380422,
Zn2InAc,0.0,-0.0380416,
CoZr2Pt,0.0,-0.0380401,
Al3Tb2Ir2,0.0,-0.0380394,
PdSn2Sm,0.0,-0.0380394,
BeAlAu2,0.0,-0.0380391,
RhCdDy,0.0,-0.0380379,
AgCdSm2,0.0,-0.038036,
ScSrPb,0.0,-0.0380343,
ZnRh2W,0.0,-0.0380343,
Pd4Lu,0.0,-0.0380333,
Rh2Sb2Pr,0.0,-0.038032899999999994,
Li2LaAu2,0.0,-0.038032699999999996,
AsSbSm2,0.0,-0.0380321,
PI2Ho2,0.0,-0.0380316,
LiSiAu2,0.0,-0.0380301,
In8Pb,0.0,-0.0380301,
Rh2InDy,0.0,-0.038029200000000006,
ScPd2Au,0.0,-0.038028599999999996,
CInDy3,0.0,-0.0380283,
KPdTl,0.0,-0.0380274,
PdCsBa3,0.0,-0.0380274,
SAgTl,0.3771,-0.0380267,
BGa2LaRe2,0.0,-0.038026000000000004,
Cl2Pr2Bi,0.0,-0.0380251,
SiRu2Ir,0.0,-0.0380249,
ZnGa2Ir2,0.0,-0.0380247,
NiPd2Pt,0.0,-0.0380239,
PdSn2Ce,0.0,-0.038023,
K2InAu2,0.0,-0.0380224,
AlDy3,0.0,-0.038021700000000005,
Ga3Sn2Dy3Pt,0.0,-0.0380206,
TiSb5Nd3,0.0,-0.0380205,
Ag2NdSm,0.0,-0.038020000000000005,
Cd2InTb2,0.0,-0.0380193,
Sb2I9Cs3,1.5202,-0.0380187,
Fe2NiPa,0.0,-0.0380179,
Sc3Ir2,0.0,-0.0380174,
BCPdPa,0.0,-0.0380171,
Co2Pr2Hg,0.0,-0.038015900000000005,
CoZr2Tl,0.0,-0.0380146,
SrSbTm,0.0,-0.0380145,
MgRe,0.0,-0.0380141,
AgPm,0.0,-0.038014000000000006,
Rb2Sb2Tl,0.0,-0.0380135,
MgRh2Er3,0.0,-0.038013399999999996,
PdIn3Sn2Pr3,0.0,-0.038012300000000006,
Pd2InPr2,0.0,-0.038011899999999994,
SiNbW,0.0,-0.038011,
KSb2Hg,0.0,-0.0380106,
TiRu2Hf,0.0,-0.0380104,
Ge2RuSn3Tm3,0.0,-0.038009,
MgHo3,0.0,-0.0380078,
NGeTm3,0.0,-0.0380072,
RhSn5Er,0.0,-0.038007,
Pd2SnTb,0.0,-0.0380068,
LiI2Tl,2.5917,-0.0380055,
Co2Sn7Lu3,0.0,-0.0380038,
Pd2Sn2Ho,0.0,-0.0380037,
AsY2Ir,0.0,-0.038002299999999996,
Pd2In3Gd,0.0,-0.0380019,
YLa2,0.0,-0.0380011,
Na3LuBi2,0.0,-0.0380002,
ZrSbPr,0.0,-0.0379996,
Ga3IrHg,0.0,-0.0379996,
Y3Ru2Pt,0.0,-0.037998699999999996,
P2Pd2Pa,0.0,-0.037997,
ZrRu2Ho,0.0,-0.037996699999999994,
TiNb2W,0.0,-0.0379963,
Zn2SnHf2,0.0,-0.0379963,
Zn2Pr3Hg,0.0,-0.0379962,
AgCd2Gd,0.0,-0.0379953,
RhCd2Lu,0.0,-0.0379941,
AgBa4,0.0,-0.037993099999999995,
Ge3GdPt,0.0,-0.0379918,
NiZr2Ir,0.0,-0.0379917,
Ag2SnTm,0.0,-0.0379906,
Fe5Pt3,0.0,-0.0379904,
Ga2TbAu,0.0,-0.037988799999999996,
RhSn2La,0.0,-0.0379858,
CI5Pr4,0.0,-0.037985700000000004,
CCr2Ir2,0.0,-0.0379853,
Co2GaPa,0.0,-0.0379851,
CrGa2Pa,0.0,-0.0379843,
AgSnSm,0.0,-0.0379826,
LiBaPt,0.0,-0.0379807,
Co2In3Lu3,0.0,-0.037979900000000004,
Si2Tb2Ir,0.0,-0.0379797,
Ga3Pd2Pu,0.0,-0.0379793,
CuTe2Gd,0.3931,-0.037978700000000004,
FeGa2Pa,0.0,-0.037978000000000005,
CRu2Sn2Lu2,0.0,-0.0379776,
Rh2Sn2Tb,0.0,-0.0379773,
AgSn2Tb,0.0,-0.0379772,
RuInSm,0.0,-0.0379765,
Rb2Sb2BaHg,0.0,-0.0379752,
Y2Rh2Hf,0.0,-0.0379751,
GeRh2Ho2,0.0,-0.037974600000000004,
GeRu3Er2,0.0,-0.0379713,
GeCd2Ir,0.0,-0.0379713,
TiGe2Ta2,0.0,-0.0379699,
Mg2RbBi2,0.0,-0.0379697,
SI2Ho2,0.0,-0.037969,
Ni2Nd2Hg,0.0,-0.037969,
CI2Er2,0.2464,-0.037969,
Pd2InLa2,0.0,-0.0379684,
YTe2La,0.0,-0.0379684,
C3Tb2W2,0.0,-0.0379668,
Zn2Rh3Th,0.0,-0.037966099999999996,
TiSb5La3,0.0,-0.0379659,
Se2CsIr,1.0059,-0.0379659,
SbI6Cs2,0.0,-0.0379651,
Ca2YAu2,0.0,-0.0379639,
BNGdIr,0.0,-0.0379637,
FeZn2Np,0.0,-0.0379634,
ZnRbBi,0.0,-0.0379633,
CSi2Nd2Ir2,0.0,-0.0379631,
GaRh2Er2,0.0,-0.037963000000000004,
In2BaLa,0.0,-0.037962800000000005,
CSi2Pr2Os2,0.0,-0.0379619,
MgRuLu2,0.0,-0.037960900000000006,
Y3Ru2Ir,0.0,-0.0379607,
Na2LaHg2,0.0,-0.0379605,
CSi2Sm2Re2,0.0,-0.0379602,
BNRuTh,0.0,-0.03796,
Rb2I4Pt,1.3004,-0.0379599,
GaRu2Er2,0.0,-0.0379596,
SbTe2Cs,0.6922,-0.037959400000000004,
Na2SnTl2,0.0,-0.037958799999999994,
CoNiGd2,0.0,-0.0379573,
NEr2,0.0,-0.0379562,
Ge2RhSn3Tm3,0.0,-0.0379554,
Li2AuPb,0.0,-0.0379541,
Si2YAu2,0.0,-0.0379535,
As2Te4Pb,0.1817,-0.037953299999999995,
CaCdTl,0.0,-0.0379531,
InSn2Sm,0.0,-0.0379516,
HCs3Tl,0.0,-0.0379507,
Mn2As2Pu,0.0,-0.037949399999999994,
Cd4Hg,0.0,-0.0379489,
SMoTe3W,0.0,-0.037947499999999995,
OI2Ta,0.7752,-0.037947499999999995,
MnY6Pb2,0.0,-0.0379468,
TeI6Cs2,1.1363,-0.0379468,
Si2Ho2Hg,0.0,-0.037946,
Ag2PrSm,0.0,-0.037945,
AlNbPt,0.0,-0.0379444,
SrEu,0.0,-0.0379438,
ZrSbLa,0.0,-0.0379428,
TiSb5Pr3,0.0,-0.0379422,
Si2In3Dy3Ir,0.0,-0.0379412,
CaTe4Dy2,0.3635,-0.0379395,
AsSbCe2,0.0,-0.0379395,
Co2La2Hg,0.0,-0.0379392,
Pd2CdEu,0.0,-0.0379388,
Sc2CuPt2,0.0,-0.0379386,
NHf,0.0,-0.037938200000000005,
NiZr2Os,0.0,-0.0379354,
Si2Lu3,0.0,-0.0379351,
Cd2Tm,0.0,-0.0379343,
CuRh2Au,0.0,-0.037932499999999994,
Ag2SnCe2,0.0,-0.037932299999999995,
CoLa4,0.0,-0.0379322,
Sc3Pt2,0.0,-0.037931,
GaRuHo2,0.0,-0.037930900000000004,
Ga2SmIr,0.0,-0.037930700000000005,
KGe2Pt2,0.0,-0.0379305,
CuRu2Tb3,0.0,-0.0379298,
Sr2SnHg,0.2158,-0.0379285,
CuTcEr2,0.0,-0.0379283,
PHf,0.0,-0.0379279,
PFe2U,0.0,-0.0379279,
CSi2Ce2Re2,0.0,-0.0379274,
Pd3Nd2,0.0,-0.0379272,
AsNdTb,0.0,-0.037925400000000005,
Rh2In3Pr3,0.0,-0.037925400000000005,
Ru2SnCe,0.0,-0.0379252,
PMoTa,0.0,-0.0379247,
AgSnCe,0.0,-0.0379244,
Cd5Pb,0.0,-0.0379242,
RbTe2Er,1.1585,-0.0379233,
Cd3La4,0.0,-0.0379227,
BrLa3,0.0,-0.0379226,
Ru2Nd,0.0,-0.037921300000000005,
Li3GdBi2,0.0,-0.037920699999999995,
AlMn2Np,0.0,-0.037920499999999996,
B2RhW2,0.0,-0.03791919999999999,
ZnAg2Pb,0.0,-0.037918999999999994,
ONbI4Tl,0.3201,-0.0379187,
AgTeBa2,0.0,-0.0379183,
BrTe2La2,0.0,-0.037917299999999994,
Ga2SmPt,0.0,-0.037917,
GeRh3Er2,0.0,-0.0379164,
CSnTb3,0.0,-0.037916200000000004,
Rh8W,0.0,-0.0379156,
BrTeTm,1.0883,-0.0379144,
YRh2Eu,0.0,-0.0379133,
AlInPt,0.0,-0.0379122,
H3OsNp,0.0,-0.0379118,
Si2Ag2Np,0.0,-0.0379099,