formula,bg,formation_energy,mp-id
Li2Hg2Pb,0.0,-0.0437277,
CSiTmOs2,0.0,-0.0437277,
In4LuPt,0.0,-0.0437273,
Sc2LaIr2,0.0,-0.0437263,
NaInHg2,0.0,-0.043725900000000005,
ScNiPt2,0.0,-0.043725299999999995,
LiYPt2,0.0,-0.043725299999999995,
NiGaPt2,0.0,-0.043725,
I3Gd,1.3273,-0.043721499999999996,
Ga2LaAu2,0.0,-0.0437214,
ZnDyHg,0.0,-0.0437214,
As2RuTh,0.0,-0.0437209,
Rh2PdTm3,0.0,-0.0437207,
SiClPu,0.0,-0.0437206,
LaCe,0.0,-0.043719799999999996,
ZnRhHf2,0.0,-0.043719,
In4LuIr,0.0,-0.04371800000000001,
In3Sn2Dy3Ir,0.0,-0.043717799999999994,
SiHoAu,0.0,-0.0437155,
Si4Dy3Ir4,0.0,-0.0437136,
Sc3OsPt2,0.0,-0.043713,
Si2Hf2W,0.0,-0.0437112,
Te4Tb5,0.0,-0.0437112,
SiNiU,0.0,-0.0437108,
MgRh2Pa,0.0,-0.043710299999999994,
Si2TmPt2,0.0,-0.0437102,
TcRh2Os,0.0,-0.0437094,
Ru2DyLu,0.0,-0.0437085,
FeZnIr2,0.0,-0.043708199999999996,
CuNd2Os,0.0,-0.0437081,
CuLa2Pt,0.0,-0.0437072,
SrAgPb,0.0,-0.043706,
CuLaPt,0.0,-0.0437057,
GeNdTa,0.0,-0.0437018,
Ni2Sb2Pu,0.0,-0.043700899999999994,
Al2YPt3,0.0,-0.043700499999999996,
As2PdTl2,0.0,-0.043700499999999996,
B4Nd2Os5,0.0,-0.0437001,
CoZnPa,0.0,-0.0436978,
Sc2HgPb,0.0,-0.043696599999999995,
VW,0.0,-0.0436961,
SiTbPt,0.0,-0.0436958,
CuPm2Au,0.0,-0.0436946,
NFPr6Pb2,0.0,-0.0436945,
CuLa2Ir,0.0,-0.0436944,
Ca3Sn2PtTl3,0.0,-0.043692999999999996,
AlSrPt2,0.0,-0.043691600000000004,
CSm3Tl,0.0,-0.0436911,
YHo3,0.0,-0.0436901,
O4NpPu,0.0,-0.04369,
Br2Tb2Bi,0.0,-0.04369,
In2GdTb,0.0,-0.0436898,
Ge2RuPa,0.0,-0.0436883,
GaY2Os2,0.0,-0.0436876,
Al3Fe2Th3,0.0,-0.043687399999999994,
Ti2WPt,0.0,-0.0436867,
CoGaTh,0.0,-0.0436866,
SnTe3Dy4,0.0,-0.043685699999999994,
NiIr,0.0,-0.043683799999999995,
CSnHf2,0.0,-0.043683599999999996,
B2N4Pu3,0.0,-0.0436828,
Ag2GdTm,0.0,-0.0436828,
RhSnGd,0.0,-0.0436828,
Pd2GdTb,0.0,-0.043682000000000006,
Al3Au2Th,0.0,-0.043681899999999996,
FeAu,0.0,-0.0436816,
RuIn5U,0.0,-0.0436813,
SbLaDy,0.0,-0.0436811,
CaSn2Ac,0.0,-0.0436811,
SrSnIr,0.0,-0.0436804,
MnSn4Pt2,0.0,-0.0436802,
Si3Hf5,0.0,-0.0436785,
In2ErLu,0.0,-0.0436779,
ScPt,0.0,-0.0436774,
Te3Gd,0.0,-0.0436765,
AlLu3,0.0,-0.0436755,
Al3Mn2Th3,0.0,-0.043674700000000004,
Sc3Os2Ir,0.0,-0.0436734,
Nd3Pm,0.0,-0.0436732,
RhIn5U,0.0,-0.0436713,
ZnNdTl,0.0,-0.0436696,
Ru3Pt,0.0,-0.0436666,
Al3Si2NiPu3,0.0,-0.0436664,
Al3CoPu2,0.0,-0.0436661,
SiTbOs,0.0,-0.0436655,
N2Pu,0.0,-0.043665100000000005,
NCe2Tl,0.0,-0.0436649,
ZnCsBi,0.0,-0.043664,
Sc3Os2Pt,0.0,-0.0436639,
N2NdNp,0.0,-0.043661700000000005,
PSeTh,0.0,-0.0436607,
GaSb3Ta2,0.0,-0.0436591,
CLa3Pb,0.0,-0.0436577,
Pd4GdHg,0.0,-0.0436575,
NFSm6Tl2,0.0,-0.0436561,
Nb2TcOs,0.0,-0.043655099999999995,
In3Sn2Dy3Pt,0.0,-0.043654899999999996,
Ca2Pd2Tl3,0.0,-0.043654899999999996,
N2HoPa,0.0,-0.043654000000000005,
RuPdTm2,0.0,-0.0436539,
RbCdBi,0.0412,-0.0436535,
CoNiPt2,0.0,-0.0436535,
NFLa6Pb2,0.0,-0.043653199999999996,
Ga2PmTh,0.0,-0.0436531,
P2Cs3Pt3,0.0,-0.043653,
CaNdPb,0.0,-0.0436506,
NiRe,0.0,-0.0436504,
CdCs2Hg,0.0,-0.0436497,
NaSb2Au2,0.0,-0.0436492,
N2EuTh,0.0,-0.043649099999999996,
MnTe2Ho6,0.0,-0.043649099999999996,
Si2Pu,0.0,-0.0436472,
PMnPa,0.0,-0.0436463,
MoTc2W,0.0,-0.043646000000000004,
In2EuTm,0.0,-0.0436454,
LiEr2Au,0.0,-0.0436451,
Ni2Lu2Tl,0.0,-0.043645,
TcRh2Re,0.0,-0.0436445,
NaSi2Th2,0.0,-0.0436428,
MoRh2Ir,0.0,-0.043642,
Ge2Er2Pb,0.0,-0.043642,
BrBa2Pt,0.0,-0.0436417,
CoCuIr2,0.0,-0.0436414,
YTe2Hg,0.0725,-0.0436411,
ZnMoHf2,0.0,-0.0436411,
Br3Pu,0.0,-0.0436406,
Fe2TaPt,0.0,-0.0436395,
Mg2HoBi2,0.0,-0.0436379,
NiY2Ir2,0.0,-0.0436371,
CrZnPt2,0.0,-0.0436354,
Ru2RhIr,0.0,-0.0436352,
CaMn2Pt3,0.0,-0.0436336,
Cd4HgTl,0.0,-0.0436336,
CrSn4Pt2,0.0,-0.0436334,
B4Pr2Os5,0.0,-0.0436334,
Si2ErOs2,0.0,-0.043633200000000004,
Ga3Er3Pt2,0.0,-0.0436329,
Cd5Pu,0.0,-0.043632399999999995,
Na2Hg2Tl,0.0,-0.043632399999999995,
RuSn2Tb6,0.0,-0.0436323,
FeGe2Lu6,0.0,-0.0436316,
Pd2Hf,0.0,-0.043631500000000004,
Sc2LaPt2,0.0,-0.0436314,
CClPu,0.0,-0.0436314,
YSb2Au,0.0,-0.043630699999999994,
CdSb2Au,0.0,-0.0436303,
ZrAgHg,0.0,-0.04363,
PFePa,0.0,-0.043629600000000004,
P2Ho6Re,0.0,-0.0436279,
ScLaTl,0.0,-0.0436275,
Mo2TcW,0.0,-0.0436261,
SrSb2Pb,0.0,-0.0436259,
Sn2Sb2Tl,0.0,-0.0436259,
Ca2CsBi2,0.0,-0.043625500000000005,
PrPm,0.0,-0.043624699999999995,
RbInPb,0.0,-0.043624,
NbMo2Re,0.0,-0.0436239,
RhPdTm2,0.0,-0.0436229,
ScGeAu2,0.0,-0.0436222,
Li2Pt3,0.0,-0.043618899999999995,
CoCd2Th,0.0,-0.0436185,
PdTe6Ta2,0.0,-0.043616999999999996,
MoRh2Re,0.0,-0.043616,
CuLaIr,0.0,-0.043615900000000006,
ZrSnHf,0.0,-0.043614,
Ge2LaAc,0.0,-0.0436132,
As2CsAu2,0.0,-0.043611899999999995,
ZnPr2Tl,0.0,-0.0436109,
OSeAgPu,0.0,-0.0436093,
Ti2ReAu,0.0,-0.0436091,
Pd4CdTh,0.0,-0.0436082,
FeTe2Ho6,0.0,-0.0436082,
ZnPm2Os,0.0,-0.0436082,
MnI4Au2,0.6461,-0.0436081,
LiHo2Ir,0.0,-0.0436079,
Mn2YPu,0.0,-0.0436071,
TeI2Er2,0.0,-0.043606400000000003,
SbI2Er2,0.0,-0.043606099999999995,
B2Ta3,0.0,-0.043606,
RhSn2Tb6,0.0,-0.0436053,
CrTe2Ho6,0.0,-0.0436038,
Ru3W,0.0,-0.0436031,
Rh2AgPb,0.0,-0.0436029,
GeTe4Hg2,0.0,-0.0436025,
Rb3Sb2Au3,1.0289,-0.0436024,
Si2Hf2Au,0.0,-0.0436023,
AsAg2Ac,0.0,-0.043601999999999995,
Zn2ErTh,0.0,-0.0436017,
Ag2Hg,0.0,-0.0436013,
ZnSm2Au,0.0,-0.0436006,
RuIn6Bi2,0.0,-0.0436002,
MnSb2Ho6,0.0,-0.0435998,
Ga2Th,0.0,-0.0435993,
OAsRuNp,0.0,-0.0435989,
AlGeU,0.0,-0.0435983,
Sn2SmLu,0.0,-0.0435966,
Tc2RuW,0.0,-0.0435954,
GePrTa,0.0,-0.043595100000000005,
CdTe2Hg,0.0,-0.0435942,
Pr3Sm,0.0,-0.0435941,
KYHg2,0.0,-0.043593400000000004,
Nb2MoOs,0.0,-0.043593200000000006,
SAsTh,0.0,-0.0435929,
CoLa2Au,0.0,-0.0435925,
Al2LuPt2,0.0,-0.043592399999999996,
Mo3W,0.0,-0.0435921,
Rh2Sn3Lu3,0.0,-0.043591700000000004,
Ni2OsPt,0.0,-0.0435906,
S2Se2TaTl3,1.7121,-0.0435904,
Pd2SbDy5,0.0,-0.043590000000000004,
SiZnNp,0.0,-0.0435899,
In5BaAu2,0.0,-0.0435887,
Fe2RuU,0.0,-0.0435882,
CuSn5Pu,0.0,-0.0435879,
TcRu2W,0.0,-0.0435852,
ZnPrTl,0.0,-0.043585099999999995,
Sn2CeLu,0.0,-0.0435843,
Rh2SnPt,0.0,-0.043583,
Nd,0.0,-0.0435822,
As2PdTm6,0.0,-0.043582,
LiZrAu2,0.0,-0.0435812,
MgDy2Tl,0.0,-0.0435809,
ZrPd2Pb,0.0,-0.0435803,
CuGaIr2,0.0,-0.0435795,
PdInHf,0.0,-0.0435789,
GaNd2Hg,0.0,-0.0435779,
P2HoOs2,0.0,-0.04357780000000001,
CGe2Lu2Re2,0.0,-0.0435775,
NbRh2Ir,0.0,-0.0435767,
PSrAu2,0.0,-0.0435764,
O3Ac2,3.541,-0.0435742,
RuPd2Tm3,0.0,-0.0435736,
KIn2Pt2,0.0,-0.0435734,
CaPrPb,0.0,-0.0435731,
Ge2RhPa,0.0,-0.0435719,
Ga2HoAc,0.0,-0.0435708,
Be2HfIr2,0.0,-0.043569000000000004,
CaIn2Au2,0.0,-0.0435665,
NiY2Pt2,0.0,-0.043566299999999995,
Se3BaPu,0.0,-0.043566099999999996,
Sr2AgAu2,0.0,-0.043566,
SrTe3ErAu,0.4873,-0.0435654,
MnGaAu2,0.0,-0.0435648,
N2PrNp,0.0,-0.0435643,
TcRh2Ir,0.0,-0.0435623,
CePr3,0.0,-0.043562,
AgTe2Hg,0.0,-0.0435619,
MgTmTl,0.0,-0.0435601,
NaPdHg2,0.0,-0.0435591,
CrSb2Ho6,0.0,-0.043558799999999995,
Si3RhTh2,0.0,-0.043558599999999996,
YAgAu,0.0,-0.0435585,
As2RhTh,0.0,-0.0435565,
CoTe2Ho6,0.0,-0.0435565,
Be2HfOs2,0.0,-0.043555500000000004,
Cd2Au,0.0,-0.0435548,
Li2Au2Tl,0.0,-0.0435539,
In2TeAu,0.0,-0.043553800000000004,
As2Rh2Np,0.0,-0.0435531,
FeSn4Pt2,0.0,-0.0435526,
LiSn2Ir2,0.0,-0.0435525,
GeTe3Tm4,0.0,-0.0435496,
SBrTh,0.0,-0.0435489,
FeZnPt2,0.0,-0.0435484,
RhIn6Bi2,0.0,-0.0435484,
BeCdAu2,0.0,-0.0435466,
GeTbHf,0.0,-0.043546100000000004,
ZnBaPb,0.0,-0.043546,
FeSb2Ho6,0.0,-0.043545299999999995,
CuPr2Os,0.0,-0.0435446,
PdIn5U,0.0,-0.0435445,
SeYBi,0.0,-0.0435443,
Si4Dy3Os4,0.0,-0.0435435,
AsCsIr,0.0,-0.0435428,
ZnNd2Ir,0.0,-0.043542700000000004,
KAsTl2,0.0,-0.043539900000000006,
AlYHg2,0.0,-0.0435391,
Al3MnGe2U3,0.0,-0.043537,
CdSn2Tl,0.0,-0.043535899999999995,
AgI2Au,0.3233,-0.0435355,
Y3CdIr2,0.0,-0.0435353,
ZnLaTl,0.0,-0.043534500000000004,
GaAg2Au2,0.0,-0.043534500000000004,
CaBaBi,0.0,-0.043534199999999995,
NiLa2Au,0.0,-0.0435336,
LiErPb,0.0,-0.0435336,
CaZr2Ir2,0.0,-0.043532600000000005,
PdDy2,0.0,-0.0435322,
Sc3Ir2Au,0.0,-0.043531799999999995,
NaCdAu2,0.0,-0.0435313,
Se3Pu,0.0,-0.043531,
ZnNd2Pt,0.0,-0.043531,
CaLaPb,0.0,-0.0435295,
Zr3Sn3Ir2,0.0,-0.043527500000000004,
ZnLa2Tl,0.0,-0.0435271,
MgTmPt,0.0,-0.0435239,
Rh2ErTm,0.0,-0.043523400000000004,
ScOs,0.0,-0.0435233,
Mg2InCe3Au3,0.0,-0.0435219,
Ga2PdNp,0.0,-0.0435216,
Co2Th,0.0,-0.0435208,
OGaHf3,0.0,-0.0435208,
CuCd2Pt2,0.0,-0.0435208,
RuRh2Os,0.0,-0.0435203,
Rh5Ac,0.0,-0.0435196,
AsCd2Ac,0.0,-0.0435196,
ScY2Tl2,0.0,-0.043517,
AgCdLu2,0.0,-0.0435168,
Y3CdPt2,0.0,-0.0435168,
CdSn2Ir,0.0,-0.0435162,
Cd2BaTl,0.0,-0.043516,
Ni2Tm3Au,0.0,-0.0435156,
MgCaBi2,0.0,-0.0435156,
GeLaTa,0.0,-0.043515099999999994,
Mg3Tl4,0.0,-0.043514699999999996,
Al3FeGe2U3,0.0,-0.0435141,
Ge2Tm2Tl,0.0,-0.043512999999999996,
PRhHf2,0.0,-0.0435103,
CuGaPt2,0.0,-0.0435103,
PrNd3,0.0,-0.0435084,
ScLa2Tl,0.0,-0.043507699999999996,
CaSrAu2,0.0,-0.0435073,
Pd2HoLu,0.0,-0.043506500000000004,
LiHo2Tl,0.0,-0.043506300000000005,
ZnGeTh,0.0,-0.0435058,
SiDyRe,0.0,-0.0435053,
Br2Dy2Pb,0.0,-0.0435052,
Nb2TcRe,0.0,-0.0435048,
KSn2Hg2,0.0,-0.0435045,
Cd2LaHg,0.0,-0.0435042,
Al2GdAu2,0.0,-0.0435032,
AlHoOs,0.0,-0.0435032,
GaSb2Ho6,0.0,-0.0435029,
N2LaNp,0.0,-0.0435023,
B2YIr3,0.0,-0.0435016,
Zn2U,0.0,-0.0435013,
Si4Dy3Pt4,0.0,-0.0435008,
Ni2WOs,0.0,-0.043499899999999994,
NCuHf3,0.0,-0.0434974,
Be2Au3,0.0,-0.0434974,
C3Ta2W2,0.0,-0.043497,
Ni2WIr,0.0,-0.043496400000000005,
NiTe2Ho6,0.0,-0.0434957,
MgTmIr,0.0,-0.0434954,
Rh2CdPb,0.0,-0.04349,
Pd2SnLu2,0.0,-0.043488900000000004,
Cl2Gd2Pb,0.0,-0.0434879,
Sn2PmLu,0.0,-0.0434875,
ScCuPt2,0.0,-0.0434861,
Ge2LaTa2,0.0,-0.0434856,
MoRu2W,0.0,-0.0434854,
ZnNdPt,0.0,-0.0434852,
TiZnPt2,0.0,-0.0434848,
CaIn2Th,0.0,-0.0434844,
LiHo2Pt,0.0,-0.0434844,
Ca2LaPb2,0.0,-0.0434842,
Zn2LuAc,0.0,-0.0434827,
Rh4LuHg,0.0,-0.043482599999999996,
Ni2IrPt,0.0,-0.043482599999999996,
CoSb2Ho6,0.0,-0.0434816,
BeGeNp,0.0,-0.043481200000000005,
Si2SrIr3,0.0,-0.043481,
Pr3Pm,0.0,-0.043480200000000004,
AlErAu,0.0,-0.0434797,
RhAgEu2,0.0,-0.0434789,
CuLa2Os,0.0,-0.0434787,
Zr2Hg,0.0,-0.0434787,
Ru2ErTm,0.0,-0.043478499999999996,
SiCrOs2,0.0,-0.0434784,
Sb5Sm3Hf,0.0,-0.0434783,
Al3Si2CuPu3,0.0,-0.0434782,
Al3Si2RuU3,0.0,-0.0434781,
Te3Ho2,0.2414,-0.043477800000000004,
Al3CrGe2U3,0.0,-0.043477299999999997,
Co2Tm3Hg,0.0,-0.043476799999999996,
Si2HoIr2,0.0,-0.0434767,
B2YOs3,0.0,-0.0434766,
NTiHf3,0.0,-0.043475700000000006,
Ni2RePt,0.0,-0.0434747,
PCoPa,0.0,-0.0434731,
SbNdTb,0.0,-0.0434731,
Se2LuTl,0.9678,-0.0434727,
NiGaTh,0.0,-0.0434725,
MgP4Ir6,0.0,-0.0434721,
SrCdPb,0.0,-0.0434721,
NaCs2Hg2,0.0,-0.0434714,
RuRh2Re,0.0,-0.0434683,
Rh2TbLu,0.0,-0.0434679,
Rh2InTl,0.0,-0.0434677,
MnNiAu2,0.0,-0.0434672,
Tc2RhW,0.0,-0.0434669,
NSnLu3,0.0,-0.0434648,
Ag2BaPt,0.0,-0.0434646,
As2SrPb2,0.1313,-0.043463299999999996,
CuNd2Au,0.0,-0.043463299999999996,
CaPb,0.0,-0.0434625,
Sr2InHg2,0.0,-0.04346,
AgInEu2,0.0,-0.0434598,
YSn2Ir,0.0,-0.0434586,
Nb2RuOs,0.0,-0.0434577,
TeTb,0.0,-0.0434564,
SiMnOs2,0.0,-0.0434559,
NiZnPa,0.0,-0.0434558,
PrNd,0.0,-0.0434557,
Cu2LaPt2,0.0,-0.0434539,
NiLaAu,0.0,-0.0434538,
CTb2Hg,0.0,-0.0434533,
SrBa2Pt,0.0,-0.0434523,
Zr2Sb2Bi,0.0,-0.043452199999999996,
LaNd3,0.0,-0.0434499,
Zr2TcPb,0.0,-0.043448099999999996,
In2SbAu,0.0,-0.0434434,
ONd3Tl,0.0,-0.043443199999999994,
Ag2SnPb,0.0,-0.0434428,
PdIn6Bi2,0.0,-0.0434418,
Fe2RhU,0.0,-0.0434415,
RhTe2CsHg,0.0,-0.043441400000000005,
Nb2MoIr,0.0,-0.0434412,
N2TmTh,0.0,-0.0434406,
Co2TaIr,0.0,-0.0434404,
Y3Ac,0.0,-0.0434404,
Sr2CdAu2,0.0,-0.0434401,
In7LuPt2,0.0,-0.043439700000000005,
SiTmTa,0.0,-0.0434391,
Tc2SnTa,0.0,-0.043439,
GaPr2Hg,0.0,-0.043438000000000004,
S2CsPu,0.0,-0.0434364,
C4FeTh3,0.0,-0.043435499999999995,
CSiErOs2,0.0,-0.043435499999999995,
MgHf2,0.0,-0.0434354,
Ga2BaPt2,0.0,-0.0434341,
ZrDy3,0.0,-0.0434334,
AgSb2Hg,0.0,-0.0434331,
ZnCe2Au,0.0,-0.0434327,
PdSnGd,0.0,-0.0434326,
OAsRhNp,0.0,-0.0434321,
N3CrU2,0.0,-0.0434318,
GeBaAu,0.0,-0.0434317,
LiHo2Os,0.0,-0.0434306,
ZnRbAu2,0.0,-0.043430100000000006,
Si4Tb3Ir4,0.0,-0.0434298,
NbTc2W,0.0,-0.0434293,
BRu3U,0.0,-0.0434273,
Ru2TbLu,0.0,-0.043427,
PdI3Tl,0.0,-0.0434256,
MgDyPb,0.0,-0.0434249,
Fe2YPu,0.0,-0.0434246,
Si2ErPt2,0.0,-0.043424,
La3Sm,0.0,-0.043421799999999997,
SbTe3Tb4,0.0,-0.0434212,
ZnNdIr,0.0,-0.043421,
AsTeIr,0.7321,-0.0434207,
Ga2InPb2,0.0,-0.0434207,
MoRh2Pt,0.0,-0.0434204,
YRh2Pb,0.0,-0.0434195,
Ga2BaIr2,0.0,-0.0434188,
Co2RuU,0.0,-0.0434169,
Ga2CdPu,0.0,-0.043416699999999996,
Ru2RhPt,0.0,-0.0434164,
NiSb2Ho6,0.0,-0.043414499999999995,
YSbHf,0.0,-0.043414299999999996,
Y2TePb,0.0,-0.0434139,
Mg2DyBi2,0.0,-0.0434138,
Cd2SbPb,0.0,-0.043413200000000006,
CoCuPt2,0.0,-0.043412599999999996,
MgLuHg,0.0,-0.0434125,
Al3Si2RhU3,0.0,-0.0434124,
AgIn2Pb,0.0,-0.0434122,
MgSrTl2,0.0,-0.043411700000000004,
Ni2SbU,0.0,-0.0434105,
CuSb3Ta2,0.0,-0.0434096,
SbPrTb,0.0,-0.0434075,
Al4Ge2Np3,0.0,-0.0434075,
OBrTh,0.8006,-0.043407299999999996,
LiSi2Th2,0.0,-0.0434072,
ZnGaPa,0.0,-0.043406799999999995,
CuY2Pt2,0.0,-0.0434065,
BrBa2Ir,0.2399,-0.0434063,
KGe2Pt3,0.0,-0.043405,
Te2CsLu,1.1779,-0.043405,
RhTeLu,0.0,-0.0434041,
PRbPt2,0.0,-0.0434036,
AgHo2,0.0,-0.0434033,
AlMnU,0.0,-0.043402500000000004,
InDy2,0.0,-0.0434023,
CaLa2Pb,0.0,-0.0434014,
CoSn4Pt2,0.0,-0.0434014,
Ru2RhW,0.0,-0.043400799999999996,
NiSn4Ir2,0.0,-0.0433989,
ZnCd2Pt2,0.0,-0.0433973,
ZnGaIr2,0.0,-0.0433969,
PLa2Tl,0.0,-0.043396000000000004,
La3Ce,0.0,-0.043395699999999995,
NbRh2Pt,0.0,-0.0433953,
Zn2InBi2,0.0,-0.0433945,
RuRh2Ir,0.0,-0.0433933,
OFPu,0.0,-0.0433928,
LiAgAu2,0.0,-0.0433926,
AlTe2Er6,0.0,-0.043392200000000006,
Ru2SnTa,0.0,-0.0433915,
PdAgEu2,0.0,-0.0433893,
Al3Au4,0.0,-0.043388800000000005,
In3Sn2Tb3Ir,0.0,-0.043385599999999996,
AlZr2Ir2,0.0,-0.043384900000000004,
Sn2NdLu,0.0,-0.0433844,
Co2TaOs,0.0,-0.0433827,
FeI4Au2,0.0,-0.0433825,
K2InAu3,0.0,-0.043382399999999995,
Pr3Nd,0.0,-0.043380699999999994,
Cu2InPu,0.0,-0.0433803,
MgZrHg2,0.0,-0.04338,
Sc3Pt2Au,0.0,-0.0433798,
Si4Er3Au4,0.0,-0.0433793,
AsSbLu2,0.0,-0.043379100000000004,
CdI2Hg,1.9112,-0.0433783,
Sc3Os2Au,0.0,-0.0433774,
In2Hf,0.0,-0.043377200000000005,
ZnTbHg,0.0,-0.043375500000000004,
ZnPrPt,0.0,-0.043373800000000004,
NiPt,0.0,-0.0433735,
Al3Th2,0.0,-0.043373199999999994,
PCeIr,0.0,-0.0433715,
Al3Ge2RuTh3,0.0,-0.043371400000000004,
NaYAu2,0.0,-0.0433709,
FeTm3,0.0,-0.0433709,
P2Cs3Au3,1.18,-0.0433708,
ZnPr2Ir,0.0,-0.0433708,
AlDyIr,0.0,-0.043369700000000004,
PdTm,0.0,-0.043367800000000005,
Cu2Pa,0.0,-0.0433669,
ZnPr2Pt,0.0,-0.0433668,
AlPm2Pb,0.0,-0.0433663,
Si2HoOs2,0.0,-0.043366100000000005,
CuPr2Au,0.0,-0.0433656,
Rh2SnAu,0.0,-0.0433645,
YSn2Pt,0.0,-0.043364,
MgDy2Os,0.0,-0.0433637,
NiCuIr2,0.0,-0.0433635,
CaZr2Pt2,0.0,-0.0433627,
AlCuNp,0.0,-0.0433624,
SeSbIr,0.7779,-0.043361699999999996,
I3Er2,0.3752,-0.0433605,
Mn2Tm2Pb,0.0,-0.0433598,
ZnNd2Os,0.0,-0.0433591,
Te4Ta,0.0,-0.0433577,
Nb2RuRe,0.0,-0.0433574,
SrSnAu,0.0,-0.0433567,
Zn2SrAu3,0.0,-0.0433565,
LiAg2Pb2,0.0,-0.043356,
BSrPt2,0.0,-0.04335,
GaLa2Hg,0.0,-0.0433499,
PSmIr,0.0,-0.0433495,
SrTe3HoAu,0.4767,-0.0433495,
B2LuIr2,0.0,-0.0433494,
ZrCdHg,0.0,-0.0433494,
AlSb2Er6,0.0,-0.0433493,
YCdAu,0.0,-0.043349,
Mn2InU,0.0,-0.0433488,
ZnLa2Pt,0.0,-0.0433481,
S2Np,0.0,-0.043348,
Fe2Tm2Pb,0.0,-0.0433478,
ScIn2Ac,0.0,-0.043346800000000005,
Ga3Hf4,0.0,-0.0433463,
In2HoLu,0.0,-0.0433463,
TcRh2Pt,0.0,-0.0433462,
Pd2Sn3Lu3,0.0,-0.0433459,
NiSn4Pt2,0.0,-0.043345100000000004,
SiHoW,0.0,-0.043344499999999994,
ScY2Ir2,0.0,-0.0433439,
B2Hf2Os,0.0,-0.0433431,
KCd2IrPb,0.0,-0.043342900000000004,
SbLaTb,0.0,-0.043342900000000004,
N2DyPa,0.0,-0.043342799999999994,
NPr3Tl,0.0,-0.043342399999999996,
ZnLa2Ir,0.0,-0.0433422,
AlP3Ca2Pt7,0.0,-0.0433419,
Pd2Ho3,0.0,-0.043340000000000004,
P2DyOs2,0.0,-0.0433392,
Nb2MoRe,0.0,-0.043337400000000005,
AlFeU,0.0,-0.0433369,
ScY2Pt2,0.0,-0.0433367,
SiVOs2,0.0,-0.043335900000000004,
Na2Au2Hg,0.0,-0.043335900000000004,
LiRhHg2,0.0,-0.0433331,
Sn3LaHf,0.0,-0.0433328,
Ge2RuTm6,0.0,-0.0433326,
Ge2Pd2Pu,0.0,-0.0433317,
As2BaTa2,0.0,-0.0433304,
PVPa,0.0,-0.04333,
CuTe2Ho6,0.0,-0.0433281,
ZnLaPt,0.0,-0.043328000000000005,
Ru2AgTm3,0.0,-0.04332780000000001,
CoZnIr2,0.0,-0.043327199999999996,
Pd2AgPb,0.0,-0.043327199999999996,
GeI2Gd2,0.0,-0.0433268,
SiDyAu,0.0,-0.0433267,
NOPr6Tl2,0.0,-0.043326,
Pr,0.0,-0.0433259,
B2LuOs2,0.0,-0.043325699999999995,
In3Sn2Tb3Pt,0.0,-0.0433252,
CSiTmRe2,0.0,-0.0433251,
B2CdIr3,0.0,-0.0433245,
Co2Er3Pt,0.0,-0.0433244,
CoTm3,0.0,-0.0433243,
MgAgHg2,0.0,-0.0433237,
Rb2CsHg2,0.0,-0.0433237,
BrBa2Au,0.0,-0.0433215,
AlDyPt,0.0,-0.0433204,
SrSbHg,0.0,-0.043316099999999996,
Si3PdTh2,0.0,-0.043315,
CdInEu2,0.0,-0.0433148,
NaCaBi2,0.0,-0.0433143,
In2Sn2Bi,0.0,-0.043312199999999995,
SiSrAu2,0.0,-0.0433101,
NFPu,0.0,-0.043309,
La3Pm,0.0,-0.043308900000000004,
AgCdHg,0.0,-0.0433087,
Ag2GdEr,0.0,-0.0433081,
ZnInHf2,0.0,-0.0433078,
Y3CdOs2,0.0,-0.0433065,
Cr2TaW,0.0,-0.043306199999999996,
KPd3Pb2,0.0,-0.0433043,
Al3Ge2RhTh3,0.0,-0.0433035,
TcRh2W,0.0,-0.0433035,
B2Hf2Ir,0.0,-0.043302999999999994,
FeLa3Hg,0.0,-0.0433005,
ZnPrIr,0.0,-0.0433005,
BeHf2,0.0,-0.0432989,
C2Pu,0.0,-0.0432958,
Te2Tm,0.0,-0.043295499999999994,
LiRu2Pa,0.0,-0.0432948,
Si2Sm3Ir2,0.0,-0.043294,
NNd2Tl,0.0,-0.043293700000000004,
Ni2WRe,0.0,-0.043293,
CdLu,0.0,-0.0432926,
Ge2Ru2Np,0.0,-0.0432922,
Sc2IrAu,0.0,-0.0432916,
AgSnTm2,0.0,-0.0432911,
SrTe2Tl,0.0,-0.043290300000000004,
Co2TaPt,0.0,-0.043288,
Ge2RhTm6,0.0,-0.0432868,
NaRh2Tl2,0.0,-0.043284300000000005,
Ru2InLu2,0.0,-0.0432839,
Se2GdAu,0.1465,-0.043281999999999994,
As2PdTh,0.0,-0.043281599999999996,
Pd2SbAu,0.0,-0.043280900000000004,
In2EuEr,0.0,-0.0432796,
Ga2DyAc,0.0,-0.0432779,
GaCd2Au2,0.0,-0.0432775,
GeAg2Ac,0.0,-0.0432767,
SnHo,0.0,-0.043276,
ZnLaIr,0.0,-0.043276,
CoNiTh,0.0,-0.0432748,
Ag2BaAu,0.0,-0.043273200000000005,
Cd2GdTm,0.0,-0.0432729,
Sc2AuTl,0.0,-0.0432727,
Rh3Os,0.0,-0.0432716,
LiInHg2,0.0,-0.0432716,
InSn2Hg,0.0,-0.0432714,
OPr3Tl,0.0,-0.043271000000000004,
SPb,0.1546,-0.043270699999999995,
CuLa2Au,0.0,-0.0432697,
SiTiOs2,0.0,-0.0432696,
Al2Ta3,0.0,-0.0432692,
SrBa2Ir,0.0,-0.043269100000000005,
SRbPt2,0.0,-0.0432684,
Rh2InLu2,0.0,-0.0432681,
SePdPb,0.0,-0.0432677,
N2In3Lu7,0.0,-0.043267200000000006,
FeIn2Er6,0.0,-0.0432669,
Ca2TlBi,0.0,-0.043266,
RhSbLu,0.0,-0.0432659,
ZrRh2Tl,0.0,-0.043265500000000005,
NLa3Tl,0.0,-0.0432642,
Si4Tb3Os4,0.0,-0.043263800000000005,
Zn2HoTh,0.0,-0.0432619,
Sb2Ba6Pt,0.0,-0.0432617,
LaPr3,0.0,-0.043261299999999996,
Ni2WPt,0.0,-0.0432612,
AlPd2Th,0.0,-0.0432596,
SeCsAu,1.5994,-0.0432593,
SbTb,0.0,-0.0432592,
Sc2OsAu,0.0,-0.043258200000000004,
Rh2Ba2Hg,0.0,-0.043258000000000005,
CuSb2Ho6,0.0,-0.043258000000000005,
In2Ho3,0.0,-0.043257,
Tc2InW,0.0,-0.043256,
CoIn2Er6,0.0,-0.0432535,
OSNp,0.0,-0.043251399999999995,
ZrRu2Pt,0.0,-0.043251,
Se2RbNp,0.0,-0.043249699999999995,
PSmPt,0.0,-0.0432491,
SiMnIr2,0.0,-0.0432474,
CoLa2Hg,0.0,-0.0432473,
Co2RhU,0.0,-0.0432472,
SiSeTh,0.0,-0.043247,
PCePt,0.0,-0.0432458,
NbMo2W,0.0,-0.0432458,
NOLa6Tl2,0.0,-0.0432453,
SiCrIr2,0.0,-0.043244500000000005,
Be2Ta2Os,0.0,-0.0432444,
Sc3Ir2Hg,0.0,-0.043243000000000004,
AsI3Eu3,0.0,-0.0432423,
LiCdAu2,0.0,-0.043242199999999995,
MnCuAu2,0.0,-0.0432419,
CSm2Tl,0.0,-0.0432419,
Si2DyIr2,0.0,-0.043240600000000004,
SeI7Hf3,0.1309,-0.0432377,
Al2EuIr2,0.0,-0.0432372,
SbTeTm,0.0,-0.0432372,
Ga2Sr3Pt4,0.0,-0.0432355,
Fe2InU,0.0,-0.043235300000000004,
IDy,0.0,-0.04323490000000001,
Cd2BaPt,0.0,-0.0432339,
TiAu,0.0,-0.0432325,
ZnRh2Ac,0.0,-0.0432322,
MgNb2Ir2,0.0,-0.0432299,
ZnSmAu,0.0,-0.0432297,
LiPdHg2,0.0,-0.0432287,
CuSn4Ir2,0.0,-0.0432284,
Al3Si2PdU3,0.0,-0.0432248,
ZnY2Ir2,0.0,-0.0432248,
AsBa2Au,0.4364,-0.0432247,
Ge2BaHg2,0.0,-0.0432241,
MoRh2W,0.0,-0.043224,
Sc2PtAu,0.0,-0.043223700000000004,
CCe2Tl,0.0,-0.0432225,
Mg2TbBi2,0.0,-0.0432213,
Si4Tb3Pt4,0.0,-0.0432205,
Sb5Nd3Hf,0.0,-0.04322,
In2TeHg,0.0,-0.0432198,
CoLa3Hg,0.0,-0.0432198,
CaPd2Au2,0.0,-0.043219499999999994,
PdSnEr2,0.0,-0.0432166,
Be2Au2Hg,0.0,-0.0432152,
AsSbTl,0.0,-0.0432144,
RuRh2W,0.0,-0.0432139,
ScZnIr2,0.0,-0.0432139,
Co2Tm2Pb,0.0,-0.0432125,
Ni2Tm3Hg,0.0,-0.043211599999999996,
As2AgTl2,0.0,-0.0432111,
NaSrTl2,0.0,-0.043210500000000006,
Y2Tl,0.0,-0.043209899999999996,
La3Nd,0.0,-0.0432096,
K4Ge2Au7,0.0,-0.0432094,
Pd2CdPb,0.0,-0.0432087,
Li2PbAc,0.0,-0.0432081,
FBrTl2,1.7657,-0.0432055,
Sn2Tb3,0.0,-0.0432043,
Rh3Re,0.0,-0.043204,
RuTb2,0.0,-0.043203899999999996,
CSnLu3,0.0,-0.0432038,