formula,bg,formation_energy,mp-id
Sb2Te5Pb2,0.0,-0.0459952,
AlZrPt2,0.0,-0.0459946,
NaRh2Bi2,0.0,-0.045993400000000004,
Rh2Pr2Tl,0.0,-0.045993200000000005,
As2Ho6Pt,0.0,-0.0459923,
B2PrIr3,0.0,-0.0459922,
CeTb2,0.0,-0.0459922,
Al3FeSn2Pa3,0.0,-0.0459922,
Cd3PrAu2,0.0,-0.045991,
TiZrHg2,0.0,-0.045990699999999995,
As2Ho6Os,0.0,-0.0459895,
Cd3LaAu2,0.0,-0.0459869,
Ag2TmHg,0.0,-0.0459862,
As2RuNp,0.0,-0.0459861,
Ge2SrPt3,0.0,-0.0459852,
In2BaPb,0.0,-0.0459851,
KCdTl2,0.0,-0.0459844,
Rh2La2Tl,0.0,-0.0459844,
CoLu3,0.0,-0.0459834,
KNiHg3,0.0,-0.045981900000000006,
CdSnPt,0.0,-0.045981299999999996,
RbSn2Hg2,0.0,-0.045981,
ODy3Tl,0.0,-0.0459801,
NDy3Pt,0.0,-0.0459795,
AgTeAu,0.0,-0.0459783,
NGaPu,0.0,-0.0459775,
Y2AgAu2,0.0,-0.045977,
ZnTbPb,0.0,-0.0459766,
In2PrIr,0.0,-0.0459754,
BrLaPt,1.2204,-0.0459752,
BeMoIr2,0.0,-0.0459751,
B2LaIr3,0.0,-0.045974600000000004,
As2AgPu,0.0,-0.045973799999999995,
Pd2LaTl,0.0,-0.045972900000000004,
YSnPt,0.0,-0.045971899999999996,
PIHg2,0.4321,-0.0459713,
BeTa2,0.0,-0.0459707,
Ge2TbTh,0.0,-0.0459706,
Ga3Ge2PdTh3,0.0,-0.0459701,
MgMoIr2,0.0,-0.0459694,
OAgTeU,0.0,-0.0459692,
Ag2PmPb,0.0,-0.0459689,
SbDyEr,0.0,-0.0459683,
Ga2Hf2W,0.0,-0.0459677,
Te2Nd6Au,0.0,-0.0459664,
Ga2LuAu2,0.0,-0.0459656,
In2LaPt,0.0,-0.045964599999999994,
Ge4Dy3Au4,0.0,-0.0459645,
Sr2LaAu2,0.0,-0.0459638,
Ag2Sm2Pb,0.0,-0.0459629,
CdBa2Tl,0.0,-0.0459624,
YSnIr,0.0,-0.0459624,
Ru2La2Tl,0.0,-0.045961100000000005,
O2STh2,0.0474,-0.045960299999999996,
Sb3Tl,0.0,-0.045960299999999996,
SnTe4BaAu2,0.0,-0.045956699999999996,
B4Lu2Ir5,0.0,-0.045956000000000004,
NbMoW,0.0,-0.045956000000000004,
Si2HfIr2,0.0,-0.045954300000000003,
Ge2CeIr2,0.0,-0.0459539,
ZnAgAu2,0.0,-0.0459538,
KTe2Th,0.0,-0.0459523,
Te3Lu2,0.2773,-0.045952,
NdTb3,0.0,-0.0459489,
Cr3Ta4,0.0,-0.0459486,
SiRh2U,0.0,-0.0459481,
NTb2Pb,0.0,-0.0459479,
ZnHo2Au,0.0,-0.0459471,
ClTe2Tl2,0.0,-0.0459464,
BeTcIr2,0.0,-0.045946,
Na2Tl2Pb,0.0,-0.045945799999999995,
Ag5Pt3,0.0,-0.0459453,
Rh2Pt,0.0,-0.0459452,
As2NdPt2,0.0,-0.0459449,
NiDy2Au,0.0,-0.045943899999999996,
BrPrPt,1.0346,-0.0459437,
STeHg2,0.0576,-0.0459426,
CaSnHg2,0.0,-0.045942300000000005,
SbHo2,0.0,-0.045941899999999994,
MgTcIr2,0.0,-0.045941899999999994,
Se2PdLu6,0.0,-0.045941699999999995,
Te2La6Ir,0.0,-0.0459411,
Rh2Te2Er7,0.0,-0.0459405,
Rh2W,0.0,-0.0459405,
AsBaPb,0.0,-0.0459401,
CaSn6Au4,0.0,-0.0459394,
Te2Pr6Os,0.0,-0.045938099999999996,
CaCd2Bi2,0.0,-0.04593439999999999,
PdBa2Au,0.0,-0.045932600000000004,
Ti2Hf2Tl,0.0,-0.0459312,
Fe3Ta4,0.0,-0.0459305,
Pm3Tm,0.0,-0.0459303,
Te3BaTbAu,0.4154,-0.0459302,
Ge2SmIr2,0.0,-0.0459297,
RhSn4Pt2,0.0,-0.0459296,
CdSnIr,0.0,-0.0459296,
GeSmIr,0.0,-0.0459289,
ZnRu2Hf3,0.0,-0.0459285,
SiYPt2,0.0,-0.0459249,
LiP2Pt2Np,0.0,-0.0459244,
As2LaPt2,0.0,-0.045924,
NiTb2Ir,0.0,-0.045922199999999996,
RuSn4Pt2,0.0,-0.0459203,
Te2La6Pt,0.0,-0.0459202,
Si3Ta5,0.0,-0.0459193,
SrHg,0.0,-0.0459187,
InI2Gd2,0.0,-0.0459185,
TeHo2,0.0,-0.0459182,
Al3MnGe2Pu3,0.0,-0.0459178,
Te2Nd6Re,0.0,-0.045913800000000005,
Ge4Sm3Ir4,0.0,-0.045913499999999996,
Ru2Sm3Au,0.0,-0.0459132,
AlLuIr,0.0,-0.0459123,
Si2BaPt3,0.0,-0.0459123,
Ce3Er,0.0,-0.045911499999999994,
YLa2Hg,0.0,-0.0459105,
LiTe2U,0.0,-0.0459086,
N2TmNp,0.0,-0.0459082,
Si2ScRe4,0.0,-0.045908000000000004,
GeCeIr,0.0,-0.0459078,
CHf2,0.0,-0.0459071,
AlGePu,0.0,-0.0459068,
Ba4Ir,0.0,-0.0459065,
Ag3Cs3Bi2,1.0758,-0.0459064,
CuHoTl,0.0,-0.0459048,
SnTe2Tl,0.0,-0.045903799999999995,
As2PrPt2,0.0,-0.0459037,
GeSmPt,0.0,-0.045903599999999996,
Sm3Er,0.0,-0.045902700000000005,
Ga2ErIr2,0.0,-0.045902500000000006,
NCoTa3,0.0,-0.0459024,
CoGePa,0.0,-0.0459013,
SeLa2Pt,0.0,-0.045900500000000004,
InSn2Bi,0.0,-0.0459001,
Sb2Pr6Ir,0.0,-0.045898800000000003,
NiTe2Au2,0.0,-0.0458965,
Se2InNp,0.0,-0.045894599999999994,
SnSb3Hf2,0.0,-0.0458929,
BeMoOs2,0.0,-0.045892499999999996,
CaCuBi2,0.0,-0.0458922,
Sr2CdPb2,0.0,-0.0458921,
CdInGd2,0.0,-0.0458921,
SeLa2Ir,0.0,-0.0458917,
Sb2Pr6Pt,0.0,-0.0458915,
Co2Hf2Hg,0.0,-0.0458903,
Mg2Au2Bi,0.0,-0.0458899,
Rh2CeAu,0.0,-0.045889400000000004,
Se5Pb2Bi2,0.2374,-0.0458865,
SiEuIr,0.0,-0.0458857,
NaLa2Hg2,0.0,-0.045885300000000004,
GaRh2Th,0.0,-0.045883,
PrTb3,0.0,-0.045881500000000006,
PSbHg2,0.0,-0.045881500000000006,
BrBa2Bi,0.6525,-0.045880699999999996,
B4Lu2Os5,0.0,-0.0458802,
SSePb2,0.1498,-0.045879800000000005,
GaHoAu,0.0,-0.0458788,
ScRuTa2,0.0,-0.0458786,
NiPb,0.0,-0.0458784,
Ag2Ce2Pb,0.0,-0.0458782,
LiEu2Tl,0.0,-0.045878,
Ru2Ce3Au,0.0,-0.0458778,
GaRu2Th,0.0,-0.045877,
AlLuPt,0.0,-0.0458753,
NiTb2Pt,0.0,-0.0458747,
ZrTe2Pb,0.0,-0.0458724,
SrCd2Tl2,0.0,-0.045872100000000006,
Ag2NdPb,0.0,-0.045871699999999994,
Cu4Pt5,0.0,-0.0458712,
CaSb2Ir2,0.0,-0.0458712,
Y2CdAu2,0.0,-0.0458709,
ClCoPu,0.0,-0.0458708,
CaRu2U,0.0,-0.0458704,
Al3FeGe2Pu3,0.0,-0.045870100000000004,
Pd2Nd2Tl,0.0,-0.0458699,
BDy3Pb,0.0,-0.0458692,
SiHf2,0.0,-0.045868400000000004,
ZrSnAu,0.0,-0.045867,
Te2La6Os,0.0,-0.0458656,
KCsHg2,0.0,-0.0458651,
TeTm,0.0,-0.045865,
GeCePt,0.0,-0.045863999999999995,
PCuPu,0.0,-0.0458613,
HSnHf3,0.0,-0.0458609,
KCd4Bi3,0.0,-0.045859699999999996,
LiBaAu2,0.0,-0.0458595,
Ba5Pb,0.0,-0.0458586,
As2RhNp,0.0,-0.045858499999999996,
Pd2TbHg,0.0,-0.0458583,
CaErPb,0.0,-0.0458572,
CuMoTa2,0.0,-0.0458564,
KHoBi,0.0,-0.045856299999999996,
ZrInIr,0.0,-0.0458561,
I3CsPb,2.2374,-0.0458559,
PdSn4Ir2,0.0,-0.0458557,
AgCd2Ac,0.0,-0.045854799999999994,
B2CPt2Np,0.0,-0.045854799999999994,
ZnErPt,0.0,-0.0458542,
FSeNp,0.0,-0.0458535,
ScAgHg2,0.0,-0.045853200000000004,
MgGdTl,0.0,-0.0458518,
As2IPb2,0.0,-0.0458508,
ZnDy2Tl,0.0,-0.0458507,
CaPd2Pb2,0.0,-0.045849600000000004,
MgLuPb,0.0,-0.045848799999999995,
ZnRh2Pa,0.0,-0.0458461,
CoGaU,0.0,-0.045846,
BeSnTh,0.0,-0.045845199999999996,
SnTeHf,0.0,-0.0458451,
Ni2YPt3,0.0,-0.045844499999999996,
BC2Pa2,0.0,-0.0458426,
ZnErTl,0.0,-0.0458399,
RuHo3,0.0,-0.045839599999999994,
Ge2CeOs2,0.0,-0.045838000000000004,
SiNiPu,0.0,-0.0458378,
Al3CrGe2Pu3,0.0,-0.0458371,
Mn3GePa2,0.0,-0.0458359,
ScSrTl2,0.0,-0.0458357,
AsRh3Pb2,0.0,-0.045835,
Zn2Pu,0.0,-0.0458343,
SbNdEu,0.0,-0.045832099999999994,
BeRuOs2,0.0,-0.0458316,
ZnDy2Ir,0.0,-0.0458314,
CdSbAu,0.0,-0.0458311,
ZnErIr,0.0,-0.0458307,
Rh5U,0.0,-0.0458305,
PSm2Bi,0.0,-0.0458262,
YTm3,0.0,-0.0458245,
O2Au2Pb,0.5022,-0.0458234,
SbTe3Tm4,0.0,-0.0458224,
Sb2Pr6Os,0.0,-0.0458222,
CuHo2Hg,0.0,-0.0458219,
In2SmAu,0.0,-0.0458207,
AsLa2Tl,0.0,-0.045819200000000004,
LaTb3,0.0,-0.0458189,
Sc2BaBi2,0.0,-0.0458183,
MgInTl2,0.0,-0.045817500000000004,
CuSrTl2,0.0,-0.0458174,
SbTeTm2,0.0,-0.045817000000000004,
ZnCdAu2,0.0,-0.0458166,
N2Pr7Tl3,0.0,-0.045814999999999995,
Sb2La6Ir,0.0,-0.045814,
Fe2PrU,0.0,-0.045813400000000004,
Ga2ErPt2,0.0,-0.045812,
SiLuAu,0.0,-0.045811700000000004,
Ag2PrPb,0.0,-0.0458095,
Ge2SmOs2,0.0,-0.0458091,
Sb12BaOs4,0.0,-0.0458082,
SrPd3Pb2,0.0,-0.0458078,
P2EuPb2,0.0,-0.0458077,
ScZrHg2,0.0,-0.045807600000000004,
P3Sm2Pt4,0.0,-0.0458074,
PdSn4Pt2,0.0,-0.0458067,
KAg2Bi2,0.0,-0.045805900000000004,
Zr6IrPb2,0.0,-0.0458034,
Al2AuTh,0.0,-0.0458028,
As2Ho6Re,0.0,-0.0458011,
AgCdPb,0.0,-0.0458009,
Sb2La6Pt,0.0,-0.045800400000000005,
PTmIr,0.0,-0.0457995,
Cu2BaBi2,0.0,-0.0457981,
Y2InHg2,0.0,-0.0457974,
Te2Pr6Au,0.0,-0.045796500000000004,
HCuPt3,0.0,-0.0457956,
Al2FeHf6,0.0,-0.045794400000000006,
Al3Si2RuPu3,0.0,-0.045793799999999996,
KBa2Au2,0.0,-0.0457936,
ZnDy2Pt,0.0,-0.045792900000000004,
Li2PtPb2,0.0,-0.0457928,
ZrInPt,0.0,-0.0457925,
SiCdPt2,0.0,-0.0457922,
K2Au2Tl,0.0,-0.0457896,
Ag2LaPb,0.0,-0.0457891,
CaSb2Pt2,0.0,-0.045789,
Se2CsPa,0.0,-0.045788600000000006,
Pd2BaPb,0.0,-0.045788600000000006,
ClGaPu,0.0,-0.0457879,
CuRhTa2,0.0,-0.045787,
GeCeOs,0.0,-0.0457851,
SrEu3,0.0,-0.0457849,
ZrPdTl,0.0,-0.0457841,
ClSb2Tl2,0.0,-0.0457834,
YSbAu,0.0,-0.0457825,
Al2MnHf6,0.0,-0.0457818,
Sn2BaAu,0.0,-0.0457793,
RhHo3,0.0,-0.045778599999999996,
Rh2HoHf,0.0,-0.0457778,
Ga2CsBi2,0.0,-0.045777500000000006,
GaTbIr,0.0,-0.045773400000000006,
Mn2SrIr3,0.0,-0.0457729,
CuSmPb,0.0,-0.0457721,
NGaTa3,0.0,-0.04577150000000001,
Te2IPt,0.0,-0.0457701,
CdCs2Pb,0.2073,-0.0457698,
AlTcW2,0.0,-0.045768500000000004,
SiEuOs,0.0,-0.0457669,
InBa2Hg,0.0,-0.0457648,
Cd2HoPt,0.0,-0.045763899999999996,
MgEr2Pb,0.0,-0.0457633,
Ni5Pt6,0.0,-0.0457624,
Cd3Ac,0.0,-0.0457618,
Sb3Er4,0.0,-0.045761,
AsSmAu,0.0,-0.0457607,
SiGdTa,0.0,-0.045760300000000004,
CaPdAu2,0.0,-0.0457596,
In2Te5Bi2,0.0,-0.0457586,
HI2U,0.0,-0.045757599999999995,
LiSb2Pb2,0.0,-0.0457574,
Zr6OsPb2,0.0,-0.0457571,
Ge2NdIr2,0.0,-0.0457561,
GaTbPt,0.0,-0.0457551,
LiSbIr2,0.0,-0.0457547,
Ag2TbTl,0.0,-0.0457547,
Al2CoHf6,0.0,-0.045754399999999994,
ZnInHg2,0.0,-0.0457529,
KCuHg3,0.0,-0.0457527,
Si4Lu3Ir4,0.0,-0.0457524,
Al3Si2RhPu3,0.0,-0.0457519,
TiCdHg2,0.0,-0.0457503,
Pd2Pr2Tl,0.0,-0.0457496,
Te2BaTa,0.0,-0.0457494,
NiTb2Os,0.0,-0.0457489,
SiGaPu,0.0,-0.045748,
GeSmOs,0.0,-0.045748,
Zr6PtPb2,0.0,-0.0457461,
RuRh2Lu3,0.0,-0.045746,
MgBaHg2,0.0,-0.0457435,
ZnCs2Au2,0.0,-0.0457427,
Mn2SrPt3,0.0,-0.0457425,
RuRhLu2,0.0,-0.0457419,
SCeBi,0.0,-0.0457408,
Co2SmU,0.0,-0.0457401,
NaRhTl2,0.0,-0.045739400000000006,
AsCeAu,0.0,-0.045739400000000006,
Ge2CePt2,0.0,-0.0457378,
Sb2La6Os,0.0,-0.0457376,
PCe2Bi,0.0,-0.0457372,
P2Tm6Os,0.0,-0.0457367,
Pd2SbBi,0.0,-0.045736,
AgBa2Pt,0.0,-0.0457355,
PMnNp,0.0,-0.0457346,
BeRuIr2,0.0,-0.0457344,
MgRuIr2,0.0,-0.045733800000000005,
OHf2,0.0,-0.0457337,
Te2Gd,0.0,-0.045733199999999995,
MgMoPt2,0.0,-0.0457326,
Te2Pr6Re,0.0,-0.045732,
RhLu,0.0,-0.045731,
N2DyPu,0.0,-0.0457301,
NaIn2Bi2,0.0,-0.0457293,
S3Te3Bi4,0.3095,-0.0457273,
Ga2TlBi,0.0,-0.0457273,
Ru2RhLu3,0.0,-0.045723999999999994,
BHo3Tl,0.0,-0.0457232,
Ge2SmPt2,0.0,-0.0457232,
CaYPt2,0.0,-0.045722099999999995,
ZnYAu2,0.0,-0.0457218,
ZnTmAu,0.0,-0.0457204,
Ge2HoAu2,0.0,-0.0457162,
Ru2DyHf,0.0,-0.0457162,
AsRbPt2,0.0,-0.0457157,
SiEuPt,0.0,-0.0457154,
Pd2La2Tl,0.0,-0.0457149,
NaInTl2,0.0,-0.045714599999999994,
Al2CrHf6,0.0,-0.0457137,
PBrPb2,0.0,-0.0457136,
SSmBi,0.0,-0.0457119,
Pd2Te2Er7,0.0,-0.0457116,
SeBa2Bi,0.0,-0.045710799999999996,
I3Pr3Os,0.0046,-0.04571,
Ge2PdPu,0.0,-0.0457098,
Ag2Dy2Hg,0.0,-0.045708399999999996,
HTa2,0.0,-0.0457068,
B2Ca3Ir7,0.0,-0.0457064,
Sn3Pb,0.0,-0.0457062,
NiNdPb,0.0,-0.0457046,
AlP2Hf6,0.0,-0.0457032,
SbTm,0.0,-0.045703,
GaDy2Hg,0.0,-0.0457027,
Mg3Au5,0.0,-0.0457018,
ZnSn2Ir2,0.0,-0.0457006,
K2Pt3,0.0,-0.045699,
Ge2PrIr2,0.0,-0.0456969,
Cd2HoIr,0.0,-0.0456958,
BRu6Th2,0.0,-0.0456955,
La3Eu,0.0,-0.0456945,
GaCdHg2,0.0,-0.0456941,
CuDy2Au,0.0,-0.0456938,
MgNbOs2,0.0,-0.0456937,
Rh2Sm2Hg,0.0,-0.045692500000000004,
PTmPt,0.0,-0.0456894,
CsBa3Pt,0.0,-0.045689,
Ge2RuLu6,0.0,-0.045688200000000005,
Se2HfPb,0.0,-0.0456871,
Te3BaSmPt,0.0,-0.0456868,
ZnGaNp,0.0,-0.0456858,
Rh2Ce2Hg,0.0,-0.045683,
HZnPt3,0.0,-0.045682099999999996,
RuLu,0.0,-0.0456815,
MgNbIr2,0.0,-0.0456815,
BKPt3,0.0,-0.0456809,
In2La2Tl,0.0,-0.0456805,
Pd5PbBi,0.0,-0.045679000000000004,
Ge2LaIr2,0.0,-0.045678800000000006,
Ni2Hf2Hg,0.0,-0.045678199999999995,
RuEr2,0.0,-0.0456745,
Cd2ErAu,0.0,-0.0456738,
B2Ir2Pt,0.0,-0.0456727,
FeLa3Bi,0.0,-0.0456724,
KSb2Tl2,0.0,-0.0456699,
NdDy,0.0,-0.045669400000000006,
ZnDy2Os,0.0,-0.045668999999999994,
Sr2BaPt2,0.0,-0.045668999999999994,
CuTb2Pt,0.0,-0.045668799999999996,
Ge4Nd3Ir4,0.0,-0.045667900000000004,
AlAgPt2,0.0,-0.045661499999999994,
CuTb2Tl,0.0,-0.045659399999999996,
NiCdHg2,0.0,-0.0456592,
In2Au,0.0,-0.0456579,
MgBa2Pt2,0.0,-0.045657699999999996,
Al2NiHf6,0.0,-0.0456574,
NBrU,0.0,-0.0456573,
SnSbHf,0.0,-0.0456572,
CuTb2Ir,0.0,-0.045656999999999996,
Zr5Au3,0.0,-0.0456552,
GaSrPt2,0.0,-0.0456533,
Ru2Ta,0.0,-0.0456531,
NaPd2Bi2,0.0,-0.045653,
NFDy6Tl2,0.0,-0.0456526,
Te2La6Re,0.0,-0.045652200000000004,
PFeNp,0.0,-0.045652099999999994,
AlLuOs,0.0,-0.045652,
Mg2GdBi2,0.0,-0.045650500000000004,
CHo2Tl,0.0,-0.0456504,
SbTe3Bi,0.0422,-0.045650300000000005,
RbPt,0.0,-0.045649999999999996,
AlRu2U,0.0,-0.045649999999999996,
RbAg2Tl2,0.0,-0.0456474,
NaPdTl2,0.0,-0.0456468,
SbI3Eu3,0.0,-0.0456468,
BrLa2Ir,0.0,-0.045646700000000005,
ScCdHg2,0.0,-0.045646099999999995,
Se2AuTl,0.0,-0.0456451,
SbTeGd,0.0,-0.0456443,
SiNi3Np2,0.0,-0.0456436,
RhEr2,0.0,-0.045642800000000004,
RhBa2Hg,0.0,-0.0456421,
Ru2Sm3Hg,0.0,-0.0456395,
BrLa2Tl,0.0,-0.0456393,
Ga2HoIr2,0.0,-0.0456391,
LiBa2Tl2,0.0,-0.0456385,
Ge2NdOs2,0.0,-0.045635800000000004,
Mo2Ta,0.0,-0.0456354,
Fe3GePa2,0.0,-0.045634999999999995,
CoNb4Pt3,0.0,-0.0456338,
RuTe2Ho6,0.0,-0.045633099999999996,
ScPb,0.0,-0.0456299,
Te4Er5,0.0,-0.045628999999999996,
SbTbEr,0.0,-0.0456286,
KRh2Pb2,0.0,-0.0456263,
MgSn2Pb2,0.0,-0.0456258,
YAgPb,0.0,-0.0456245,
Al3TiGe2Pu3,0.0,-0.0456244,
Rh2Sm3Hg,0.0,-0.0456243,
MgRhTh,0.0,-0.045623800000000006,
NDy3Au,0.0,-0.0456231,
Ru2Nd3Pt,0.0,-0.0456226,
Ru2Ce3Hg,0.0,-0.0456205,
GaTb2Au,0.0,-0.0456202,
MgRuTh,0.0,-0.045619799999999995,
Nd3Tm,0.0,-0.0456192,
KYTl2,0.0,-0.045619,
In2NdAu,0.0,-0.0456181,
Ag2ErHg,0.0,-0.0456177,
Ag5Au3,0.0,-0.0456171,
RuSbHf,0.0,-0.0456154,
AlEr2Tl,0.0,-0.0456152,
LiI3Pu,0.0,-0.0456143,
AlZn2Th2,0.0,-0.0456137,
Sr3Sn4Ir4,0.0,-0.0456135,
CSi2W2U,0.0,-0.0456102,
NiDyPt,0.0,-0.0456101,
SnTe3Tm4,0.0,-0.0456095,
SnEu,0.0,-0.0456077,
RhTe2Ho6,0.0,-0.0456077,
I3Ba3Bi,0.5893,-0.0456074,
LiEu2Pt,0.0,-0.04560669999999999,
Pd2InHf2,0.0,-0.045606499999999994,
Cd5Pt3,0.0,-0.045604599999999995,
NiPrPb,0.0,-0.045603700000000004,
Al2Au2Tl,0.0,-0.0456023,
B2Ca3Pt7,0.0,-0.0456015,
Rh2CeHg,0.0,-0.045600999999999996,
PrTb2,0.0,-0.0456001,
HSePu,0.0,-0.045599600000000004,
ZnRh2Hf3,0.0,-0.0455991,
LiSbPt2,0.0,-0.045598999999999994,
Pd3Hf2,0.0,-0.0455983,
Rh2EuGd,0.0,-0.0455974,
RbIn6Au4,0.0,-0.0455965,
Sb2La6Au,0.0,-0.045596,
PSeU,0.0,-0.045595,
BRh6Th2,0.0,-0.045593600000000005,
As2AuTl,0.0,-0.0455932,
Al3Si2PdPu3,0.0,-0.0455927,
GeNdIr,0.0,-0.0455925,
GeSrAu2,0.0,-0.0455924,
CrTe4U,0.0,-0.0455923,
Ga2U,0.0,-0.045591099999999996,
Li3Bi2Np,0.0,-0.0455887,
CoLa3Bi,0.0,-0.0455882,
TcHo3,0.0,-0.0455872,
SiInAu2,0.0,-0.045587,
Rh2AgHf2,0.0,-0.0455867,
Ge4Pr3Ir4,0.0,-0.045584400000000004,
BeMoPt2,0.0,-0.0455841,
NaSn2Pb2,0.0,-0.0455828,
B2CIr2U,0.0,-0.0455826,
GeNdPt,0.0,-0.0455823,
SmTb,0.0,-0.0455804,
Sb3Ho5,0.0,-0.0455802,
Se3HfTl2,0.276,-0.045578,
Ge2PrOs2,0.0,-0.045578,
Ge3IrTh,0.0,-0.0455775,
NiGePa,0.0,-0.0455775,
Ru2PdLu3,0.0,-0.0455771,
NiGaU,0.0,-0.0455771,
In4HgTl,0.0,-0.0455764,
SAsU,0.0,-0.0455762,
RhTe2Tl,0.0,-0.0455743,
SiKAu3,0.0,-0.0455727,
SiTmIr,0.0,-0.0455713,
Co3Ta4,0.0,-0.045570700000000006,
MgIn2Pu,0.0,-0.045570599999999996,
Ce3Ho,0.0,-0.0455696,
FeSbHf2,0.0,-0.045568199999999996,
Ge3OsTh,0.0,-0.0455678,
Ge2NdPt2,0.0,-0.045567500000000004,
AgTe2Pb,0.0,-0.0455659,
NiLaPb,0.0,-0.045565100000000004,
RuSb2Ho6,0.0,-0.045565100000000004,
Sm3Ho,0.0,-0.045565100000000004,
Br2AuTl,2.1249,-0.0455645,
Ge6Ir4Th,0.0218,-0.045563,
MgCu2Th2,0.0,-0.0455628,
Ge2LaOs2,0.0,-0.0455616,
As2PdNp,0.0,-0.045561,
Pm3Er,0.0,-0.045560899999999994,
NTb3Tl,0.0,-0.0455594,
MgTm2Tl,0.0,-0.0455593,
BrLa2Pt,0.0,-0.045558999999999995,
ScTm5,0.0,-0.0455568,
MgTm2Ir,0.0,-0.0455565,
GeHoTa,0.0,-0.0455559,
In2PrAu,0.0,-0.045555399999999996,
Sr3Sn4Pt4,0.0,-0.045555,
CaBa2Hg2,0.0,-0.0455536,
Ga2HoPt2,0.0,-0.045549599999999996,
Li2AuPb2,0.0,-0.0455488,
GeZr2Ir2,0.0,-0.0455475,
LiLa2Hg2,0.0,-0.045545999999999996,
LiEu2Ir,0.0,-0.0455422,
BrTeBi,1.0817,-0.0455394,
MnTe3Pt2,0.0,-0.0455394,
KIn2Pb2,0.0,-0.0455357,
Si2Ta2Os,0.0,-0.045535,
Sb2La6Re,0.0,-0.0455349,
RhSb2Ho6,0.0,-0.045534599999999995,
SbDyHo,0.0,-0.0455342,
AgSn4Ir2,0.0,-0.0455338,
ScRu2Th,0.0,-0.0455331,
TiNbTa2,0.0,-0.045532699999999995,
I2Gd,0.0,-0.0455322,
CuTmHg,0.0,-0.0455309,
MgRu2Np,0.0,-0.04553,
MnTe2Tm6,0.0,-0.0455299,
PEuAu,0.0,-0.0455298,
LiP2Ir2U,0.0,-0.0455291,
PdBa2Hg,0.0,-0.045528799999999994,
SrIn2Hg2,0.0,-0.0455284,
CdIn2SnAu2,0.0,-0.0455282,
RbIn2Au2,0.0,-0.0455278,
SBrU,0.0,-0.045526899999999995,
Y2Bi,0.0,-0.0455259,
SePt,0.0,-0.0455248,
SbI2Lu2,0.0,-0.0455244,
CdTe2Pb,0.0,-0.0455208,
Cu2YPt3,0.0,-0.0455207,
Ca3Cd2Bi4,0.0,-0.0455205,
N2ErNp,0.0,-0.045520000000000005,
Ge2PrPt2,0.0,-0.0455187,
CdBa2Pt,0.0,-0.045518300000000005,
NDy2Tl,0.0,-0.045518300000000005,
Mg3Pb4,0.0,-0.0455179,
NaBaHg2,0.0,-0.0455173,
SrRhBi,0.0,-0.0455169,
PCl2Th2,0.0,-0.0455165,
SrLa2Tl,0.0,-0.0455164,
MgSbAu2,0.0,-0.0455149,
Zn3Au4,0.0,-0.045514000000000006,
Ag2Pr2Pb,0.0,-0.045513399999999996,
Ge2LaPt2,0.0,-0.045511699999999995,
Cd3Hg2,0.0,-0.0455113,
SiLuW,0.0,-0.0455105,
PdSb3Hf2,0.0,-0.0455102,
CuDyTl,0.0,-0.0455102,
Rh2Ce3Hg,0.0,-0.045509999999999995,
GeIr,0.0,-0.045507399999999996,
KCd2Bi2,0.0,-0.0455073,
Co2NdU,0.0,-0.045506300000000006,
MgRhIr2,0.0,-0.045506300000000006,
Ag4TlPb,0.0,-0.0455056,
ZnMoTa2,0.0,-0.0455054,
SeIBi,1.2453,-0.0455043,
Ge2DyAu2,0.0,-0.0455034,
TeI2Pt,0.0,-0.0455029,
TeI2Lu2,0.0,-0.0455029,
CaZnBi2,0.0,-0.0455024,
Al3Ge2RuU3,0.0,-0.045500900000000004,
FeZrTa2,0.0,-0.045500700000000005,
I3Ir,1.0911,-0.0455001,
Zr6AuPb2,0.0,-0.045498699999999996,
Rh2GdTm,0.0,-0.0454979,
NEuIr,0.0,-0.0454964,
CuTb2Os,0.0,-0.0454955,
SrLaAu,0.0,-0.0454942,
CaZrAu2,0.0,-0.045492199999999997,
MgBa2Ir2,0.0,-0.0454897,
NaTe2Pa,0.0,-0.045487,
GePrIr,0.0,-0.0454861,
MnSb2Tm6,0.0,-0.0454842,
ZnHo2Hg,0.0,-0.0454834,
AsNdAu,0.0,-0.0454828,
CTb2Pb,0.0,-0.0454823,
CuNdPb,0.0,-0.045482100000000004,
GaDyAu,0.0,-0.045482100000000004,
Ag7Pt4,0.0,-0.045482,
Cd2Pb,0.0,-0.045481900000000006,
CrTe2Tm6,0.0,-0.045481499999999994,
NSnGd3,0.0,-0.045481,
CoSbHf2,0.0,-0.0454809,
SnTbTm,0.0,-0.0454806,
SiRu2Pa,0.0,-0.045479599999999995,
AgBa2Au,0.0,-0.0454789,
AsTe3Lu4,0.0,-0.0454778,
GeLaIr,0.0,-0.0454766,
MgInPt2,0.0,-0.045474600000000004,
AsPdHf2,0.0,-0.045473599999999996,
InSb3Hf2,0.0,-0.0454731,
Se2TaTl,0.0,-0.0454726,
Mg2Tl3,0.0,-0.045472099999999994,
KDyBi,0.0,-0.045471899999999996,
SNdBi,0.0,-0.0454714,
AgSn4Pt2,0.0,-0.0454708,
FeTe2Tm6,0.0,-0.0454708,
GaIn2Tl2,0.0,-0.0454699,
BCdHf3,0.0,-0.0454694,
Cd2DyPt,0.0,-0.0454693,
AlTeHg2,0.0,-0.045468800000000004,
Co3GePa2,0.0,-0.0454674,
BMgIr3,0.0,-0.0454668,
SrIn2Ac,0.0,-0.0454653,
Ag2La2Pb,0.0,-0.045465200000000004,
SLaBi,0.0,-0.0454651,
InHo3,0.0,-0.045464199999999996,
MgInIr2,0.0,-0.045464,
RuPdLu2,0.0,-0.0454639,
GeLaPt,0.0,-0.0454637,
Ru2GdTm,0.0,-0.0454632,
PdTe2Ho6,0.0,-0.0454626,
GePrPt,0.0,-0.0454612,
TcSb2Tl,0.0,-0.0454598,
PdHo3,0.0,-0.0454589,
ZnGeU,0.0,-0.0454555,
SrLa2Ir,0.0,-0.045455300000000004,
YSnAu,0.0564,-0.0454532,
SeLa2Au,0.0,-0.045453099999999996,
N2TbPu,0.0,-0.0454519,
Rh2DyHf,0.0,-0.0454518,
As2BaTl2,0.0,-0.0454505,
GePm2Tl,0.0,-0.045448999999999996,
Al2CuHf6,0.0,-0.0454471,
InTe2Tl,0.2662,-0.0454467,
CsBa3Au,0.0,-0.045444200000000004,
Pd2ErHf,0.0,-0.0454437,
BSi2Hf6,0.0,-0.0454427,
CoTe2Tm6,0.0,-0.045442500000000004,
CrSb2Tm6,0.0,-0.0454418,
FeSb2Tm6,0.0,-0.0454404,
MgTm2Os,0.0,-0.045439,
KZnHg3,0.0,-0.045435699999999996,
PAsU,0.0,-0.0454353,
MgZrIr2,0.0,-0.0454324,
Al3Ge2RhU3,0.0,-0.045430700000000004,
B2Ir2Au,0.0,-0.04543,
CdSnAu,0.0,-0.0454289,
SiTmPt,0.0,-0.045425,
SbCeTm,0.0,-0.0454241,
Al2BaPt3,0.0,-0.045424,
Al3Si2IrTh3,0.0,-0.0454236,
Ru2TbHf,0.0,-0.0454236,
Ge2RbPt3,0.0,-0.0454235,
Pr3Tm,0.0,-0.045423200000000004,
GaIn2Ir2,0.0,-0.045423200000000004,
CuCdHg2,0.0,-0.045423200000000004,
AsRh2Ac,0.0,-0.0454226,
BeRhIr2,0.0,-0.0454225,
RhPdLu2,0.0,-0.045421500000000004,
SiFe3U2,0.0,-0.0454206,
ClAsPb2,0.0,-0.045420499999999996,
Al3Pt2U,0.0,-0.045420499999999996,
Ni2U,0.0,-0.0454201,
TeI2Eu2,0.0358,-0.045419600000000004,
SiTmOs,0.0,-0.0454181,
Cd2LaPb,0.0,-0.0454172,
LiSnIr2,0.0,-0.045416899999999996,
Rh2La2Au,0.0,-0.0454163,
ClCs2Au2,0.0,-0.045415,
AsRu2Ac,0.0,-0.0454149,
AlYPt2,0.0,-0.0454148,
SCl2Th2,0.0,-0.045413800000000004,
Pd2Sm2Hg,0.0,-0.0454132,
Na2Au2Bi,0.0,-0.0454091,
PCoNp,0.0,-0.045407699999999995,
Ga2Hf2Ta,0.0,-0.0454072,
Al3Si2OsTh3,0.0,-0.0454069,
Si2GdIr2,0.0,-0.0454069,
Ga2DyIr2,0.0,-0.045406300000000004,
ClBr3Tl4,1.564,-0.045406,
ZnHoTl,0.0,-0.045405799999999996,
NiTb2Au,0.0,-0.0454054,
SPrBi,0.0,-0.045405,
RbSnBi,0.1357,-0.045404200000000006,
Ge2SmTh,0.0,-0.045401699999999996,
SrPdBi,0.0,-0.0454014,
AlFePu,0.0,-0.0454008,
Rb2CdBaBi2,0.0,-0.0453994,
Cd2DyIr,0.0,-0.045398600000000004,
B2W2Os,0.0,-0.045396500000000006,
CaAgAu2,0.0,-0.045396399999999996,
LaDy,0.0,-0.045396299999999994,
Ru2Nd3Au,0.0,-0.0453946,