formula,bg,formation_energy,mp-id
GaITb,0.0,-0.034457,
TiGaAu,0.0,-0.0344565,
Al2CrU,0.0,-0.0344559,
Al2ScAu2,0.0,-0.0344557,
O2LaTl,1.949,-0.0344546,
CuAg3Dy2,0.0,-0.0344543,
Br6Cs2HgTl,0.0,-0.0344532,
S3TaTl,0.1918,-0.0344529,
LiInEr2,0.0,-0.0344527,
SrAg2La2,0.0,-0.0344526,
Sc2RhTl,0.0,-0.0344521,
AlY2Tl,0.0,-0.0344514,
Ti2RhAu,0.0,-0.0344511,
Rb2Cd2Au,0.0,-0.034451,
CBrTm2,0.0,-0.0344507,
Be2CrOs2,0.0,-0.034450499999999995,
Ti4CoBi2,0.0,-0.0344501,
GaRbI6Cs2,1.0132,-0.03445,
Ti2Pd2Tl,0.0,-0.0344498,
GaCdSm2,0.0,-0.0344491,
Zn2GdEr,0.0,-0.034448900000000005,
Pd8Sm,0.0,-0.034448,
ZnIEr,0.0,-0.0344476,
Zn3SrIr2,0.0,-0.0344474,
TiGeTa,0.0,-0.0344456,
KCd2Hg,0.0,-0.034445500000000004,
AlCdHo2,0.0,-0.0344454,
LiTe2Lu,0.8141,-0.034445,
P3W2,0.0,-0.0344427,
NCuDy3,0.0,-0.0344425,
O3BaTh,3.6034,-0.0344419,
Tc4Rh5,0.0,-0.0344419,
ZnPd2Lu,0.0,-0.034441400000000004,
ZnNb6Te8,0.0,-0.034441,
ZrPdSb,0.0,-0.0344402,
SiSe3Dy4,0.0,-0.034439,
HAlGeNp,0.0,-0.034438899999999995,
O5Ti2Te2Np2,0.0,-0.0344377,
NiSnHo,0.0,-0.034436999999999995,
Ga6AuNp,0.0,-0.034436999999999995,
RbMo3Te3,0.1554,-0.0344367,
ZnSe4Tl2,0.1245,-0.0344363,
CoSbTb,0.0,-0.0344359,
LiCdAu,0.0,-0.0344357,
LiGaGd2,0.0,-0.0344342,
Ni2Zr2Pb,0.0,-0.0344331,
Ca2Te2Tl,0.0,-0.0344324,
YSn3,0.0,-0.0344322,
Ge2Pr3,0.0,-0.0344317,
Co2IHo2,0.0,-0.0344315,
Zn3Th,0.0,-0.034429299999999996,
KSeTl,1.3838,-0.0344291,
HTeGd,0.2398,-0.034428400000000005,
Se3Mo3Tl,0.0,-0.0344283,
Nb3Te,0.0,-0.034428,
CBr5Lu4,0.0,-0.034428,
ZrTc2Sn,0.0,-0.0344277,
SiRu3Sm2,0.0,-0.034427599999999996,
Be2CrIr2,0.0,-0.0344275,
AgIn4Ba,0.0,-0.0344271,
HBr2Hf2,0.0,-0.0344261,
S3SnHo4,0.0,-0.034425199999999996,
SiRh3Ce2,0.0,-0.0344246,
AlY2Ir,0.0,-0.034424500000000004,
Zn2BaAu,0.0,-0.034424500000000004,
Pd2CdBa,0.0,-0.0344232,
Mg2AgTh,0.0,-0.034422600000000005,
O4WHg2,1.692,-0.0344215,
GaAgPm2,0.0,-0.0344212,
OZrLa3,0.0,-0.0344205,
CPHo3,0.0,-0.034419899999999996,
Sc2RhPt,0.0,-0.0344196,
MnSe3DyTl,0.0686,-0.0344183,
GaPd2Tm,0.0,-0.034418199999999996,
ScTe2La,0.0,-0.0344181,
MgRu2Nd3,0.0,-0.0344179,
ZrRh2Sn,0.0,-0.0344173,
Ni2RhOs,0.0,-0.0344173,
KCdTe3Ho,1.3148,-0.0344167,
Br2TeNd2,0.0,-0.0344161,
BNCeIr,0.0,-0.034415999999999995,
NiSrTe3Ho,0.0,-0.0344159,
Al2DyOs,0.0,-0.0344153,
CrAsHf,0.0,-0.034415100000000004,