formula,bg,formation_energy,mp-id
ZrRuInIr,0.0,-0.043203000000000005,
RbTeAu,0.0,-0.0432029,
Be3Os4,0.0,-0.043201500000000004,
RhTb2,0.0,-0.0432009,
OAsCdPu,0.0,-0.043198,
SnTe3Tb4,0.0,-0.043197200000000005,
Li4Dy3Bi4,0.0,-0.0431961,
CuLaAu,0.0,-0.0431959,
SrInTl,0.0,-0.0431941,
O4UPu,0.0,-0.043192999999999995,
OLa3Tl,0.0,-0.0431929,
AlRb2Au3,0.0,-0.0431925,
NPdHf2,0.0,-0.0431922,
InTm,0.0,-0.0431922,
OTiHf3,0.0,-0.043192,
OZnSbPu,0.0,-0.0431919,
SnI2Er2,0.0,-0.043191600000000004,
CoZnPt2,0.0,-0.0431906,
Ru2NdGd,0.0,-0.0431902,
NaIn2Tl2,0.0,-0.04319,
N2CeU,0.0,-0.0431893,
CaGePt2,0.0,-0.0431891,
NbSnGd,0.0,-0.043189,
ZnGaPt2,0.0,-0.0431875,
RuRh2Pt,0.0,-0.0431858,
OTeEuAu,0.0,-0.0431857,
ZnSnTe4Tl2,0.002,-0.043185499999999995,
Zn2Lu2Pb,0.0,-0.0431852,
CaGa2Ir3,0.0,-0.043184,
Be2Ta2Ir,0.0,-0.043182899999999996,
NSm3Hg,0.0,-0.0431819,
ScHo5,0.0,-0.043181399999999995,
N2SmU,0.0,-0.0431813,
InTe2Hf,0.0,-0.0431813,
CdIn2Pb,0.0,-0.0431806,
RhIn2Ir,0.0,-0.0431806,
Al2EuPt2,0.0,-0.0431806,
NZnHf3,0.0,-0.0431796,
SeBa2Hg,0.0,-0.0431791,
Si2Hf2Ta,0.0,-0.0431773,
Ru2CdTm3,0.0,-0.043175899999999996,
Nb3Ir,0.0,-0.0431758,
NiTm3,0.0,-0.0431755,
ZnSm2Hg,0.0,-0.043174300000000006,
PNiPa,0.0,-0.043174,
HSeU,0.0,-0.0431739,
Rh2Te2Tl,0.0,-0.0431736,
Pd9Tl2Pb,0.0,-0.0431734,
GeCdTe4Tl2,0.0121,-0.0431727,
NInHf2,0.0,-0.04317240000000001,
CSiHoOs2,0.0,-0.0431704,
Ge2PdPa,0.0,-0.0431704,
GePdGd2,0.0,-0.0431695,
FeNiAu2,0.0,-0.0431688,
ZnY2Pt2,0.0,-0.043168399999999996,
KAg2Tl2,0.0,-0.0431681,
CuSn4Pt2,0.0,-0.0431679,
Y2SbPb,0.0,-0.0431663,
In4TmPt,0.0,-0.0431652,
Rh2HoTm,0.0,-0.0431652,
Si2HoPt2,0.0,-0.043164799999999996,
ZrRh2Ir,0.0,-0.0431644,
SiTbRe,0.0,-0.0431635,
Cu2Sb2Pu,0.0,-0.043162799999999994,
ScZnPt2,0.0,-0.043162,
SiCuU,0.0,-0.0431614,
SrTe3DyAu,0.4657,-0.0431595,
SiMnPa,0.0,-0.0431583,
SrRhTl,0.0,-0.0431571,
Nb3Os,0.0,-0.043156599999999996,
MoTc2Ta,0.0,-0.0431562,
In4TmIr,0.0,-0.043156,
GeTa,0.0,-0.043154000000000005,
CaGa2Pt3,0.0,-0.0431522,
Co2YPu,0.0,-0.0431504,
MnSn2Ho6,0.0,-0.043150100000000004,
KSe2Au3,0.8012,-0.043149299999999995,
Si2SrPt3,0.0,-0.0431484,
ZnTe2Ho6,0.0,-0.043148000000000006,
La3Pr,0.0,-0.0431479,
NaAgHg2,0.0,-0.0431475,
Nb2SnAu,0.0,-0.0431468,
AlZr2Pt2,0.0,-0.0431468,
ZnCeAu,0.0,-0.0431467,
Pd2Ba2Hg,0.0,-0.043146500000000004,
Ga2CsTl2,0.0,-0.043145699999999995,
H2Pt2Au,0.0,-0.0431456,
RuRh2Er3,0.0,-0.0431454,
SiSc2Ir3,0.0,-0.0431453,
CaSr2Bi2,0.0,-0.0431447,
Sb5Pr3Hf,0.0,-0.0431437,
Se2RbPb2,0.0,-0.0431433,
Al3CuGe2U3,0.0,-0.0431432,
Ni2RuHf3,0.0,-0.0431426,
OCuHf3,0.0,-0.043141599999999995,
CdSn2Lu2,0.0,-0.0431412,
Sc4Co2Pb5,0.0,-0.043141,
HHf2,0.0,-0.0431396,
RuRhEr2,0.0,-0.043138800000000005,
CuCd2Th,0.0,-0.0431375,
MgY2Pb2,0.0,-0.0431367,
PTe2Hf2,0.0,-0.0431346,
NFNd6Tl2,0.0,-0.043134500000000006,
Mg2Hg3,0.0,-0.043134399999999996,
ZnNd2Au,0.0,-0.043134,
NSm2Au,0.0,-0.0431334,
RhEr,0.0,-0.04313259999999999,
RhIn2Pt,0.0,-0.043131300000000004,
ZnLa2Os,0.0,-0.0431312,
P2TbOs2,0.0,-0.043131100000000006,
NPr2Tl,0.0,-0.0431309,
Sb4BaHg,0.0,-0.043130800000000004,
CGe2Lu2W2,0.0,-0.0431299,
Rh3Ir,0.0,-0.0431298,
Si2DyOs2,0.0,-0.0431295,
Rh2CdTm3,0.0,-0.0431283,
Te5Tl,0.0,-0.0431276,
Ni2Th,0.0,-0.0431274,
SeTeIr,0.0,-0.0431271,
Sn4Ir,0.0,-0.0431267,
Ru2RhEr3,0.0,-0.0431259,
Al3Ge2PdTh3,0.0,-0.0431257,
Y2Ir,0.0,-0.043124,
Ge2Ho2Pb,0.0,-0.0431231,
Ge2PdTm6,0.0,-0.0431225,
Cu2Lu2Tl,0.0,-0.043122100000000003,
Te3Cs2Ta,0.0,-0.0431209,
Ru2HoTm,0.0,-0.0431208,
NiCuPt2,0.0,-0.043117800000000005,
Y2Pt,0.0,-0.0431167,
ZnAg2Th,0.0,-0.0431166,
I4Ta,0.3905,-0.0431164,
Ga3Ho3Pt2,0.0,-0.0431162,
TiGaAu2,0.0,-0.043115900000000006,
CuGeAu2,0.0,-0.0431157,
C3Mo2Pa2,0.0,-0.0431146,
NRhLu3,0.0,-0.043114,
Y2LaTl,0.0,-0.0431127,
Br2Tb2Pb,0.0,-0.043109699999999994,
CdHo2,0.0,-0.043108600000000004,
Zn2EuAc,0.0,-0.0431085,
MgIn2Ir2,0.0,-0.0431081,
Pd2InTl,0.0,-0.0431077,
FeSn2Ho6,0.0,-0.0431074,
YIn2Pb,0.0,-0.0431074,
Be2HfRe2,0.0,-0.0431063,
ZrRh2Pt,0.0,-0.043106,
AlBi,0.0,-0.0431055,
La,0.0,-0.043105,
Ge2CsAu2,0.0,-0.043104300000000005,
As3Pu,0.0,-0.0431041,
ClBa2Bi,0.5948,-0.0431027,
In7TmPt2,0.0,-0.0431017,
Ni2ReAu,0.0,-0.0431016,
SiFePa,0.0,-0.0431005,
MgScPb2,0.0,-0.0430997,
CuIr,0.0,-0.0430996,
MgCdHg2,0.0,-0.0430978,
TeI2Ho2,0.0,-0.043095999999999995,
CrTe2Bi,0.0,-0.0430959,
MgTbPb,0.0,-0.0430957,
N2BaPu,0.0,-0.043094900000000005,
LiHoPb,0.0,-0.043094299999999995,
InI2Tm2,0.0,-0.0430937,
AgI3Tl,0.0,-0.0430935,
Rh7Np,0.0,-0.043093000000000006,
SrPdTl,0.0,-0.0430916,
Ga3Tm2Ir2,0.0,-0.0430912,
ZnSb2Ho6,0.0,-0.0430911,
Ag3Bi,0.0,-0.0430906,
SiFeIr2,0.0,-0.0430905,
RuEr,0.0,-0.0430894,
SbI2Ho2,0.0,-0.0430892,
Ni2IrAu,0.0,-0.0430885,
AlDyOs,0.0,-0.0430884,
SrBa2Au,0.0,-0.0430878,
AlZrTa2,0.0,-0.0430875,
Sc3Pt2Hg,0.0,-0.0430873,
NaSn2Au2,0.0,-0.043087200000000006,
As2CdTl2,0.0,-0.0430867,
Ru2Gd,0.0,-0.0430867,
AsTe3Er4,0.0,-0.043085500000000006,
Si2EuAu2,0.0,-0.0430853,
Al2Hf2Pt,0.0,-0.0430841,
PRu2Ac,0.0,-0.0430818,
YPd2Pb,0.0,-0.0430808,
KIn2Au2,0.0,-0.04308,
NiNdHg,0.0,-0.0430784,
Sc3Os2Hg,0.0,-0.0430775,
NaPd2Tl2,0.0,-0.043077399999999995,
NScHf3,0.0,-0.0430769,
MgErTl,0.0,-0.0430768,
ScRhBi,0.0,-0.0430767,
NiLa2Hg,0.0,-0.043076500000000004,
SClNp,0.0,-0.0430759,
RhILu,0.0,-0.043075800000000004,
MgTb2Tl,0.0,-0.0430744,
Mo2TcTa,0.0,-0.043074100000000004,
CdTe2CsAu,1.6324,-0.0430736,
NiZnIr2,0.0,-0.0430726,
N2TbPa,0.0,-0.0430721,
In3Tl,0.0,-0.043072000000000006,
Al7Au2Np3,0.0,-0.0430709,
Nb3In3Ir2,0.0,-0.043069899999999994,
SGeTh,0.0,-0.043069,
In3Ir,0.0,-0.043067999999999995,
Cd2BaIr,0.0,-0.0430658,
Te5Ir,0.0,-0.0430657,
GaY2Au2,0.0,-0.043064,
SeTeRe,0.1465,-0.0430625,
NaNiPb2,0.0,-0.0430599,
Zn2LaPt2,0.0,-0.0430587,
C2SnTa3,0.0,-0.0430574,
N2ErTh,0.0,-0.0430571,
PdSbLu,0.1798,-0.0430568,
In2DyLu,0.0,-0.0430542,
CuSmHg,0.0,-0.043052,
GaAu,0.0,-0.043051900000000004,
SiMn3Th2,0.0,-0.043051900000000004,
Ni2Er3Pt,0.0,-0.0430517,
PNdIr,0.0,-0.0430503,
I2Tm,0.0,-0.0430503,
SbCeSm,0.0,-0.0430483,
CoAsTa2,0.0,-0.0430483,
Be2Ta2Pt,0.0,-0.0430482,
SiPm2Tl,0.0,-0.043046999999999995,
LiYAu2,0.0,-0.043045299999999995,
Rh2InPt,0.0,-0.0430443,
KTe3HfPt,0.0,-0.0430425,
Zn2LaIr2,0.0,-0.043042000000000004,
SiCrPa,0.0,-0.0430417,
CoSn2Ho6,0.0,-0.0430409,
CdSnTm2,0.0,-0.0430364,
SiTiIr2,0.0,-0.0430355,
ZnCe2Hg,0.0,-0.043035,
SeI6Tl2,0.3161,-0.0430347,
Si2TbIr2,0.0,-0.0430346,
CSiErRe2,0.0,-0.0430344,
Ba3Eu,0.0,-0.0430317,
ScGaAu2,0.0,-0.0430312,
Li2Hg2Tl,0.0,-0.043030299999999994,
Zn2RhPu,0.0,-0.0430298,
Zr2InPb,0.0,-0.0430298,
PRh2Ac,0.0,-0.043029200000000004,
Sn4Pt,0.0,-0.0430286,
AlHoAu,0.0,-0.0430269,
Si4Ho3Au4,0.0,-0.0430253,
Al3Si3Hf10,0.0,-0.0430248,
AsTePt,0.0,-0.043024599999999996,
SiMnPt2,0.0,-0.0430245,
Ga2TbAc,0.0,-0.0430239,
MgErPt,0.0,-0.043020499999999996,
CInHf2,0.0,-0.0430196,
In2SbHg,0.0,-0.0430178,
SeSbPt,0.0,-0.0430156,
S3TlPbBi,0.0872,-0.0430141,
Te3Dy2,0.2417,-0.0430141,
O2Np,0.0,-0.043013800000000005,
Ni2TaIr,0.0,-0.0430137,
NClNp,0.0,-0.043013199999999994,
Co2Er3Au,0.0,-0.0430129,
ZnY2Os2,0.0,-0.0430117,
GaBaPt,0.0,-0.043011,
In2PmGd,0.0,-0.043009,
Cd2Hg,0.0,-0.043007399999999994,
AlTbIr,0.0,-0.0430066,
Pd5Ac,0.0,-0.043006300000000004,
MoRh2Au,0.0,-0.043005499999999995,
SnBaTm,0.0,-0.0430048,
Ga2AgPb2,0.0,-0.0430026,
Ni2Sb2Np,0.0,-0.0430021,
Pd2SnAu,0.0,-0.0430013,
TcRh2Au,0.0,-0.0430006,
Rh3W,0.0,-0.0429973,
Ga2LaHg2,0.0,-0.0429972,
SrTe3TbAu,0.4571,-0.0429955,
As2Ce6Ir,0.0,-0.0429951,
Sn4Os,0.0,-0.0429946,
Rh2SnTa,0.0,-0.0429941,
BRh3U,0.0,-0.042992800000000005,
ZrLu,0.0,-0.0429923,
MgErIr,0.0,-0.0429912,
SeTePt,0.0,-0.042990900000000005,
Ru2PdEr3,0.0,-0.0429892,
SiTbAu,0.0,-0.0429891,
CBrTh,0.0,-0.0429878,
LiDy2Ir,0.0,-0.0429875,
I4CsAu,0.9927,-0.0429872,
As2YIr2,0.0,-0.042986699999999996,
KBaBi,0.1368,-0.0429866,
Ru3Ta,0.0,-0.0429854,
Ag7Pt3,0.0,-0.0429835,
SbSm2,0.0,-0.042983,
ZnPr2Au,0.0,-0.0429825,
In3Pt,0.0,-0.0429825,
Ni2TaOs,0.0,-0.0429824,
Ni2RuU,0.0,-0.042981200000000004,
Li2Au3,0.0,-0.0429802,
Zr3Bi,0.0,-0.0429797,
PPb,0.0,-0.0429789,
YAgHg,0.0,-0.0429779,
RbYBi,0.0,-0.0429777,
FeLu2,0.0,-0.0429775,
AlVOs2,0.0,-0.0429773,
NiSn2Ho6,0.0,-0.042976999999999994,
NInLu3,0.0,-0.0429763,
Ni2PtAu,0.0,-0.0429755,
NiPrHg,0.0,-0.042975099999999995,
Ni2Tm2Pb,0.0,-0.0429741,
In2Te2Tl,0.0,-0.0429728,
NaCdHg2,0.0,-0.0429726,
SiSmIr,0.0,-0.0429719,
Ga2Lu2Hg,0.0,-0.042969900000000005,
RuAgTm2,0.0,-0.042969900000000005,
NbTc2Ta,0.0,-0.0429696,
Ag2GdHo,0.0,-0.0429679,
ZrTc2W,0.0,-0.042967799999999993,
SnSbEu,0.0,-0.0429671,
NFPr6Tl2,0.0,-0.0429668,
N2Hf3,0.0,-0.0429661,
Cu2IrPt,0.0,-0.042965699999999996,
MgYHg2,0.0,-0.0429648,
SbCe2,0.0,-0.042964300000000004,
Nb2TcW,0.0,-0.0429642,
Sn2Lu,0.0,-0.042963999999999995,
Pd2ErTm,0.0,-0.042963999999999995,
SiBrTh,0.0,-0.0429635,
AlTbPt,0.0,-0.042962400000000005,
Zn2DyTh,0.0,-0.042961799999999994,
FeCuAu2,0.0,-0.0429596,
Ca4Rh2Tl5,0.0,-0.0429595,
In7ErPt2,0.0,-0.0429584,
LiHo2Au,0.0,-0.0429581,
B2EuIr2,0.0,-0.0429577,
PTiPa,0.0,-0.0429569,
PNdPt,0.0,-0.0429537,
Ge2RuTh,0.0,-0.0429533,
PdSb2Hf,0.0,-0.042953000000000005,
MgRu2Th,0.0,-0.042952,
LiRh2Tl2,0.0,-0.042952,
Mo3Ta,0.0,-0.0429501,
PPrIr,0.0,-0.0429497,
In2EuHo,0.0,-0.0429482,
Rh2PdEr3,0.0,-0.042948099999999996,
AlSrAu2,0.0,-0.0429478,
AlI3Gd3,0.0,-0.042947200000000005,
S2TlBi,0.1431,-0.0429456,
PNiTl2,0.0,-0.042945500000000005,
ZnPm2Hg,0.0,-0.042945300000000006,
C3Ta4,0.0,-0.0429448,
Mo2RuTa,0.0,-0.0429446,
Nb3Pt,0.0,-0.0429432,
CuGaTh,0.0,-0.0429432,
SiErTa,0.0,-0.042942799999999996,
Sc3Rh2Pb3,0.0,-0.042942,
PdIn2Ir,0.0,-0.0429416,
Ru2SbHf,0.0,-0.0429416,
P2BaPb2,0.0591,-0.0429413,
Cd2BaAu,0.0,-0.042938899999999995,
Ge2Er2Tl,0.0,-0.042938000000000004,
Tc2SbHf,0.0,-0.042937800000000005,
AgCs3Pt,0.2132,-0.0429377,
PClPb2,0.0,-0.042937399999999994,
AlMnIr2,0.0,-0.0429373,
PdIn2Pt,0.0,-0.0429368,
GeBaHg,0.0,-0.0429366,
Si2DyPt2,0.0,-0.0429362,
CSiDyOs2,0.0,-0.0429354,
CoLu2,0.0,-0.0429352,
Pd2SbTb5,0.0,-0.0429347,
CaIn2Hg2,0.0,-0.0429343,
Te5Pt,0.0,-0.0429328,
Rb2InAu2,0.0,-0.0429327,
Ag2BaHg,0.0,-0.0429321,
AlMnOs2,0.0,-0.042932000000000005,
Li4Tb3Bi4,0.0,-0.0429315,
OClNp,0.0,-0.0429309,
Sb2Te4Pb,0.0676,-0.0429306,
RhAgTm2,0.0,-0.04292990000000001,
N2NdU,0.0,-0.0429293,
SiMnRe2,0.0,-0.0429289,
Rh2InW,0.0,-0.0429288,
In4ErPt,0.0,-0.0429283,
NiLaHg,0.0,-0.0429274,
AlMnOsIr,0.0,-0.042926099999999995,
Pd2InLu2,0.0,-0.0429256,
RhIn6Pb2,0.0,-0.0429256,
ZnNdAu,0.0,-0.0429251,
CGe2Tm2Os2,0.0,-0.0429244,
Al3ZnGe2U3,0.0,-0.042924199999999996,
Si2TbOs2,0.0,-0.0429234,
Rh2Te3Pb,0.0,-0.0429232,
MgRh2Th,0.0,-0.042923,
PI2Hf2,0.0,-0.0429223,
HLa3Bi,0.0,-0.0429207,
In4ErIr,0.0,-0.042919,
CuSeHg2,0.0,-0.0429189,
LiDy2Tl,0.0,-0.042918,
BrTeIr,1.0395,-0.0429178,
Nb2Hf,0.0,-0.0429159,
PLaIr,0.0,-0.0429158,
Sr2YAu2,0.0,-0.0429155,
As2GdAu,0.0,-0.0429152,
GeTeIr,0.6158,-0.0429147,
S2TeBi2,1.0539,-0.0429144,
Sr2AgHg2,0.0,-0.042912900000000004,
Rh3Pt,0.0,-0.0429118,
MnZnAu2,0.0,-0.042911200000000004,
ZnLa2Au,0.0,-0.0429111,
ScLa2Au,0.0,-0.0429101,
NiZnPt2,0.0,-0.0429097,
Se3Dy4Bi,0.0,-0.042907200000000006,
Al2TmPt2,0.0,-0.0429067,
SnCe3,0.0,-0.0429064,
BrBa2Hg,0.0,-0.0429047,
Nb2RuW,0.0,-0.0429042,
Ag2InPb,0.0,-0.0429024,
Rh4TmHg,0.0,-0.0429021,
KCaPb2,0.0,-0.0429004,
CGd2,0.0,-0.0428979,
SiPm2Pt,0.0,-0.0428969,
MgTmAu,0.0,-0.0428963,
Ru2CeLu,0.0,-0.0428961,
KSrAu2,0.0,-0.0428953,
N2Np,0.0,-0.0428945,
Ge2RhTh,0.0,-0.0428934,
Ti2SnIr2,0.0,-0.0428925,
Sc2IrHg,0.0,-0.042892200000000005,
NFLa6Tl2,0.0,-0.042889699999999996,
ClLa2Ir,0.0,-0.0428895,
SiSmPt,0.0,-0.042889000000000004,
Rh2Gd,0.0,-0.0428886,
PRbAu2,0.6386,-0.0428884,
KTe6Hf3,0.0,-0.0428873,
SiCoPa,0.0,-0.042886600000000004,
Si3IrPu,0.0,-0.0428846,
Ag2TmLu,0.0,-0.042884399999999996,
NPdLu3,0.0,-0.042884099999999994,
Fe2Pd3Au3,0.0,-0.0428834,
KCd2Tl2,0.0,-0.0428821,
ClLa2Tl,0.0,-0.0428818,
In5GdIr,0.0,-0.042879600000000004,
RuPdEr2,0.0,-0.0428793,
MgSm2Pb,0.0,-0.0428792,
Ru2RhTa,0.0,-0.042879,
SiCeOs,0.0,-0.0428779,
I4Cs2Pt,1.447,-0.0428769,
AlCrOs2,0.0,-0.0428756,
Pd3Tl,0.0,-0.042875500000000004,
Cr7Ir6,0.0,-0.0428746,
SrInPt,0.0,-0.0428744,
TiW,0.0,-0.0428732,
Y2Os,0.0,-0.0428725,
NbRh2Au,0.0,-0.0428724,
SiSc2Pt3,0.0,-0.0428719,
Te4Hf,0.0,-0.0428713,
Co2InU,0.0,-0.0428707,
ScPdBi,0.2015,-0.0428698,
LiDy2Pt,0.0,-0.0428679,
I3Lu,2.9109,-0.04286740000000001,
AgEu,0.0,-0.04286740000000001,
Te2CsEu,0.0,-0.042867199999999994,
AlCrIr2,0.0,-0.0428664,
Ni2TaPt,0.0,-0.0428657,
NiW,0.0,-0.042865299999999995,
GaBaIr,0.0,-0.0428652,
I4Hf,2.0177,-0.0428649,
CuZnPa,0.0,-0.042861800000000005,
CaNiTl2,0.0,-0.0428616,
MnTe2Dy6,0.0,-0.0428605,
CuPt,0.0,-0.0428592,
AsSnTl,0.0,-0.0428587,
Sb2Tm,0.0,-0.0428585,
Se3BaNp,0.0,-0.0428577,
SiCePt,0.0,-0.0428564,
Nb3Re,0.0,-0.042856,
FeGa2Lu6,0.0,-0.042854500000000004,
PPrPt,0.0,-0.0428541,
RhPdEr2,0.0,-0.0428537,
Nb2RuAu,0.0,-0.0428517,
SiSmOs,0.0,-0.0428517,
Br2Ce2Bi,0.0,-0.0428502,
RuIn5Th,0.0,-0.0428491,
GaLu2,0.0,-0.0428477,
SrSnHg,0.0,-0.042847,
Rh2DyTm,0.0,-0.0428459,
NiAsTa2,0.0,-0.0428455,
Y2I2Bi,0.0,-0.042844499999999994,
SiCrRe2,0.0,-0.042844299999999995,
MgCe2Pb,0.0,-0.0428437,
Ru2InTa,0.0,-0.0428427,
AgSbTe3Pb,0.0,-0.042842,
MnRu2Lu3,0.0,-0.0428418,
N2PrU,0.0,-0.042840699999999995,
CaSeAu2,0.0,-0.0428403,
AsSe3Tl3,0.2264,-0.0428402,
Al2RhLu6,0.0,-0.0428399,
PLaPt,0.0,-0.0428396,
LiSrTl2,0.0,-0.042839100000000005,
AlLaPb,0.0,-0.0428389,
PdAgHf,0.0,-0.0428385,
SeIIr,0.0,-0.0428358,
Te3Cs2Hf,0.7625,-0.0428356,
NaCuPb2,0.0,-0.042835200000000004,
GeTe3Er4,0.0,-0.0428344,
SnSm3,0.0,-0.0428336,
Al3GeNp2,0.0,-0.042833500000000004,
O4IBi2Pu,0.0,-0.042833300000000005,
RhIn5Th,0.0,-0.0428329,
KTe3HfAu,0.0,-0.0428322,
CoGa2Lu6,0.0,-0.0428315,
CaCsBi,1.1052,-0.0428309,
Ga2CdPb2,0.0,-0.0428308,
I3Ho2,0.3686,-0.0428307,
SrCd3Pt2,0.0,-0.0428296,
Mg2CeBi2,0.0,-0.0428294,
GeTeOs,0.5692,-0.0428294,
SeCsHg,1.9564,-0.042828899999999996,
In7HoPt2,0.0,-0.0428284,
S2In2Pt3,0.0,-0.042828200000000004,
ScNiAu2,0.0,-0.042828200000000004,
Br2Sm2Bi,0.0,-0.0428281,
AlTiOsIr,0.0593,-0.0428279,
LiI2Hg2,0.0,-0.042827399999999995,
NaIn2Pt2,0.0,-0.0428267,
PdTb2,0.0,-0.0428266,
CLa3Tl,0.0,-0.0428262,
Te2Er,0.0,-0.0428261,
Se2EuTl,0.0,-0.042825499999999996,
SiPm2Ir,0.0,-0.0428251,
Sc2OsHg,0.0,-0.0428249,
Se4CdPb3,0.3146,-0.0428247,
ZnPrAu,0.0,-0.0428246,
Ga2BaAu2,0.0,-0.0428243,
AsBa2Hg,0.0,-0.0428229,
MgTb2Os,0.0,-0.0428227,
CPHf3,0.0,-0.0428226,
Ge2InPt2,0.0,-0.0428223,
KSr2Bi2,0.0,-0.04282,
AlSiPu,0.0,-0.0428187,
Pd3Lu2,0.0,-0.042818600000000005,
In2ErTm,0.0,-0.0428181,
RuRh2Au,0.0,-0.042817799999999996,
Sc2HgTl,0.0,-0.0428176,
CrTe2Dy6,0.0,-0.0428172,
FeTe2Dy6,0.0,-0.0428167,
Zr2RuOs,0.0,-0.042815399999999997,
Sb3Sm5,0.0,-0.0428127,
LiDy2Os,0.0,-0.0428125,
OZnHf3,0.0,-0.0428116,
MnSb2Dy6,0.0,-0.0428096,
CuTm3,0.0,-0.0428091,
O4PaPu,0.0,-0.042808,
Rh7U,0.0,-0.0428074,
Ti2SbPt2,0.0,-0.042807000000000005,
Sr2CdHg2,0.0,-0.0428056,
SrSb2Tl,0.0,-0.0428056,
Pd3SnGd2,0.0,-0.0428054,
CaNi2Ir3,0.0,-0.04280490000000001,
RuPd2Er3,0.0,-0.042803600000000004,
Ru2DyTm,0.0,-0.0428024,
Mg2SmBi2,0.0,-0.042802,
CuLa2Hg,0.0,-0.0428018,
In2TbLu,0.0,-0.0428007,
MnAs2Pu,0.0,-0.0428004,
CZnHf3,0.0,-0.0428001,
Si3OsPu,0.0,-0.0427997,
Sr3Tl2,0.0,-0.0427994,
Rh2SmLu,0.0,-0.042799,
Rh2Te2Pt,0.0,-0.042798699999999995,
Ca2BaPb2,0.0,-0.0427986,
ClLa2Pt,0.0,-0.042795299999999994,
Ru2SnHf,0.0,-0.0427946,
Co2PdU,0.0,-0.0427944,
YDy3,0.0,-0.0427941,
Sc2BaPt2,0.0,-0.042793399999999995,
Cd2Ba2Tl,0.0,-0.0427923,
SeSb2Pb,0.046,-0.0427922,
Zr2TcIr,0.0,-0.0427921,
B2EuOs2,0.0,-0.042791499999999996,
InTb2,0.0,-0.0427912,
SeTe2Pb,0.0,-0.0427906,
CuZnIr2,0.0,-0.0427894,
N2LaU,0.0,-0.0427891,
Pd2Te2Tl,0.0,-0.042787900000000004,
OAsRuU,0.0,-0.042787599999999995,
Sc2PtHg,0.0,-0.0427868,
Fe2YNp,0.0,-0.042784300000000004,
BrTePt,0.0,-0.0427829,
LiPd2Tl2,0.0,-0.042782600000000004,
As2RuEr6,0.0,-0.042782400000000005,
YCdHg,0.0,-0.0427817,
Nb2MoW,0.0,-0.0427817,
AlZnNp,0.0,-0.0427813,
TiCuAu2,0.0,-0.042781,
As2RbPb2,0.0,-0.042779899999999996,
RbI2Tl,2.6218,-0.0427789,
GeTePt,0.0686,-0.0427783,
Nb6OsAu,0.0,-0.0427776,
Rh2HoEr,0.0,-0.0427762,
Si4Sm3Ir4,0.0,-0.0427753,
OSbEuHg,0.0,-0.0427748,
ZnLaAu,0.0,-0.0427744,
CaSrHg2,0.0,-0.0427736,
CaPd2Hg2,0.0,-0.0427714,
SbCeNd,0.0,-0.0427711,
CSiHoRe2,0.0,-0.042770699999999995,
OPdLu3,0.0,-0.0427703,
FeGaHfIr,0.0,-0.042769,
CrSb2Dy6,0.0,-0.042768,
TcAgTm2,0.0,-0.042767400000000004,
RuRh2Ta,0.0,-0.0427667,
MgEr5,0.0,-0.0427665,
PSbEu3,0.0,-0.0427661,
NaIn2Ir2,0.0,-0.0427659,
ZnNb3Re2,0.0,-0.0427656,
ScAu,0.0,-0.042765500000000005,
CoTe2Dy6,0.0,-0.0427654,
LiNHf2Pt,0.0,-0.042765,
SrTe3SmPt,0.0,-0.042764899999999995,
SbTeEr,0.0,-0.042764899999999995,
PLa2Au,0.0,-0.042762999999999995,
Ru2SmLu,0.0,-0.0427627,
ZnCd2Th,0.0,-0.0427619,
RuSb2Gd,0.0,-0.0427615,
GeSmHf,0.0,-0.0427605,
Pd2Sb2Tl,0.0,-0.0427603,
TcRh2Ta,0.0,-0.0427601,
AlMnIrPt,0.0,-0.0427593,
Al3Ge2AgTh3,0.0,-0.0427564,
Ge2Tm2Hg,0.0,-0.0427564,
SiLa2Tl,0.0,-0.042756300000000004,
Zn2SnPb2,0.0,-0.0427562,
LiZrHg2,0.0,-0.0427533,
LiSn2Au2,0.0,-0.0427533,
LiAgHg2,0.0,-0.0427526,
Ni2Er3Au,0.0,-0.0427521,
CuNdHg,0.0,-0.042749699999999995,
FeSb2Dy6,0.0,-0.0427492,
Fe2Er2Pb,0.0,-0.0427472,
OI4TaTl,0.6165,-0.0427471,
Pd2CdTm3,0.0,-0.0427466,
Ni2WAu,0.0,-0.0427463,
LiSe6Th3,0.0,-0.042746099999999995,
GeEu2,0.0,-0.042743899999999994,
AlFeOs2,0.0,-0.0427436,
NiSn4Au2,0.0,-0.0427434,
SrBa2Hg,0.0,-0.04274240000000001,
CNd2Tl,0.0,-0.0427413,
GaSb3Hf2,0.0,-0.042741100000000004,
Al2LuAu2,0.0,-0.042741100000000004,
Sn2CeTm,0.0,-0.042741,
As2AgTh,0.0,-0.042740900000000005,
Si2TbPt2,0.0,-0.0427379,
AlFeIr2,0.0,-0.042737699999999997,
Rh2CeLu,0.0,-0.0427369,
MgLu3,0.0,-0.0427365,
Zr2TcOs,0.0,-0.0427355,
NSbEu3,0.0,-0.0427354,
ITb,0.0,-0.0427337,
Zr2RuIr,0.0,-0.0427331,
ZnNd2Hg,0.0,-0.042733,
Rh2SbHf,0.0,-0.0427327,
NiInBi,0.0,-0.042732599999999996,
Ru2HoEr,0.0,-0.0427325,
Si3AgTh2,0.0,-0.0427316,
B4Ba2Ir5,0.0,-0.042730699999999996,
CSiTbOs2,0.0,-0.0427305,
O7Th4,0.1515,-0.0427302,
SiCoIr2,0.0,-0.0427299,
MnTa,0.0,-0.0427277,
AlTiIr2,0.0,-0.0427264,
SiY2Ir2,0.0,-0.0427262,
SeSnPt,0.3605,-0.042726,
ZnCd2Au2,0.0,-0.0427246,
AlTbOs,0.0,-0.042724200000000004,
GaSb2Dy6,0.0,-0.0427224,
SrTe2Ir,0.0,-0.0427203,
Ca2AuBi,0.1399,-0.042719700000000006,
Co2Er3Hg,0.0,-0.0427178,
C2InTa3,0.0,-0.0427177,
TeLa7,0.0,-0.0427173,
Co2SnPa,0.0,-0.0427161,
GaAg2Ac,0.0,-0.042716000000000004,
NSiHf3,0.0,-0.042715,
In4HoPt,0.0,-0.0427149,
Ge2Ru2U,0.0,-0.0427145,
In7DyPt2,0.0,-0.042714,
SrSb2Ir,0.0,-0.0427139,
Si4Dy3Au4,0.0,-0.0427135,
AlSm2Tl,0.0,-0.0427134,
MgAl2Th2,0.0,-0.0427117,
N2HoTh,0.0,-0.0427091,
GeCeHf,0.0,-0.0427087,
Si3PtPu,0.0,-0.042708300000000005,
LiDyPb,0.0,-0.0427077,
Pd7Pu,0.0,-0.0427075,
ZrPd2Tl,0.0,-0.0427069,
Ag2Te2Pb,0.0,-0.0427065,
NiTe2Dy6,0.0,-0.0427062,
In4HoIr,0.0,-0.0427052,
SrInIr,0.0,-0.0427051,
Ni2RhU,0.0,-0.042704500000000006,
SiFePt2,0.0,-0.042704,
TiTe2Bi,0.0,-0.0427035,
RhSnLu,0.0,-0.0427035,
CrAs2Pu,0.0,-0.042702800000000006,
ZrIn2Tl,0.0,-0.042702199999999996,
AgSnGd,0.0,-0.042702199999999996,
SnDy,0.0,-0.042701,
Zn2TbTh,0.0,-0.042700800000000004,
SiTe4BaAu2,0.0,-0.0427003,
SiLa2Ir,0.0,-0.0426994,
Rh4LaPb,0.0,-0.0426979,
OInLu3,0.0,-0.0426975,
SbNdSm,0.0,-0.0426965,
InTe2Gd,0.0,-0.0426961,
Sc3Pd2Pb3,0.0,-0.0426958,
Zn2InPu,0.0,-0.0426957,
KAsPt2,0.0,-0.0426943,
MnSbIr,0.0,-0.0426941,
CoZrBi,1.0003,-0.042694,
Be3Pt4,0.0,-0.0426937,
AlTiOs2,0.0,-0.0426919,
Li2Au2Hg,0.0,-0.0426902,
P2CeIr2,0.0,-0.0426899,
CoRu2Lu3,0.0,-0.042689700000000004,
RhIn2Au,0.0,-0.0426885,
SiLa2Pt,0.0,-0.0426875,
Te3Lu,0.0,-0.0426865,
SiTiPt2,0.0,-0.0426864,
Fe2Sn5Hf4,0.0,-0.0426858,
SbCePr,0.0,-0.042685600000000004,
CoSb2Dy6,0.0,-0.042685499999999994,
K2CsBi2,0.0,-0.0426835,
CuZnPt2,0.0,-0.0426831,
Rh2InAu,0.0,-0.042683,
C3Hf2W2,0.0,-0.042682200000000003,
CuSbPb,0.0,-0.0426794,
SbLa7,0.0,-0.042679299999999996,
Fe2ZrU,0.0,-0.042679,
AlGaU,0.0,-0.0426789,
AlMnPt2,0.0,-0.0426785,
Pd2SnHg,0.0,-0.0426764,
H2Ta2Os,0.0,-0.0426749,
Ni2SrBi2,0.0,-0.042672800000000004,
Si2TmAu2,0.0,-0.042672400000000006,
SiNdIr,0.0,-0.0426717,
I4Cs2Au,0.0,-0.042671100000000003,
CI2Hf2,0.0,-0.0426705,
Ga3Ta2Ir,0.0,-0.0426705,
In3BaPt,0.0,-0.0426702,
CuSnGd2,0.0,-0.0426702,
SnI2Ho2,0.0,-0.042670099999999996,
P2CeOs2,0.0,-0.0426693,
Ag2GdDy,0.0,-0.0426671,
AlGePt2,0.0,-0.042667000000000004,
Ge2Dy2Pb,0.0,-0.0426669,