formula,bg,formation_energy,mp-id
SiAuTl2,0.0,-0.0559754,
GaGd2Os2,0.0,-0.0559738,
AlSbAu5,0.0,-0.055972499999999994,
CdLuHg2,0.0,-0.055972,
Ru2HoU,0.0,-0.0559715,
RhEuBi,0.0,-0.0559701,
Ru2LaPu,0.0,-0.0559698,
MgLaIr4,0.0,-0.0559685,
N2ThU,0.0,-0.055968000000000004,
Ru2Ho3Pb3,0.0,-0.0559674,
SbBaTl2,0.0,-0.0559671,
CdTmAu2,0.0,-0.0559645,
FeAsPt5,0.0,-0.0559624,
CuPt2Hg,0.0,-0.055961500000000004,
ClAuTl2,0.0,-0.055961199999999996,
Gd3Dy,0.0,-0.0559608,
ScHfIr2,0.0,-0.055959499999999995,
RhHf3,0.0,-0.0559591,
NaPtHg3,0.0,-0.055957599999999996,
Sn2Au3,0.0,-0.0559575,
SiRe3,0.0,-0.055954300000000005,
RhBaHg3,0.0,-0.055952100000000005,
In2EuBi2,0.0,-0.0559489,
YHoTl2,0.0,-0.055947699999999996,
PSmPu,0.0,-0.0559475,
Si2Ir3Th,0.0,-0.0559473,
SnPrPt2,0.0,-0.055946800000000005,
ScAsPt5,0.0,-0.055943,
SiAgAc2,0.0,-0.055943,
AlReOs2,0.0,-0.055942399999999996,
SnPmPt2,0.0,-0.0559418,
Cl2SbPu2,0.0,-0.0559348,
LaNdBi,0.0,-0.0559336,
YAuHg,0.0,-0.055933500000000004,
FeTa2Re,0.0,-0.055933300000000005,
MgNdPt4,0.0,-0.055932899999999994,
CaPt3,0.0,-0.0559269,
CHf3Bi,0.0,-0.0559259,
YTaIr,0.0,-0.055925199999999994,
La3OsPb,0.0,-0.0559245,
Ge2Pt5,0.0,-0.0559232,
Tb3Hg2,0.0,-0.0559215,
ScHfOs2,0.0,-0.0559212,
In2EuPt3,0.0,-0.0559196,
Pd2EuBi2,0.0,-0.055919199999999995,
GeIPu,0.0,-0.0559191,
Sm3Ac,0.0,-0.0559171,
Ag2Au2Bi,0.0,-0.0559157,
RhPrTl2,0.0,-0.0559137,
ZrHg2,0.0,-0.0559131,
Te2TlPb,0.0,-0.055910400000000006,
SnLaPt2,0.0,-0.0559091,
AlInAc2,0.0,-0.0559086,
ILa2Pb2,0.0,-0.0559056,
BSn2Pt6,0.0,-0.0559054,
Pr2Bi,0.0,-0.0559013,
CaHg2Pb,0.0,-0.055899700000000004,
CdHoPt2,0.0,-0.0558965,
ScZrOs4,0.0,-0.055894,
CaBaPt4,0.0,-0.055893,
GeHo2Pt3,0.0,-0.0558886,
Pd2GdAu3,0.0,-0.055887900000000004,
S3AsTh4,0.0,-0.0558797,
KAu2Pb,0.0,-0.0558797,
SiEu2Ir3,0.0,-0.055879,
Ru2TmPa,0.0,-0.0558788,
AgGdPb,0.0,-0.0558782,
SbHfTa,0.0,-0.0558776,
MgPrPt4,0.0,-0.0558754,
MgSnAc2,0.0,-0.055875100000000004,
PdSnTh,0.3505,-0.0558746,
PdEuBi,0.0,-0.0558734,
LiTl2Pb,0.0,-0.0558726,
TeTmPb,0.0,-0.055871699999999996,
NiHfPt2,0.0,-0.0558715,
ZnTaPt2,0.0,-0.0558711,
SnPmIr2,0.0,-0.0558705,
CoTa2Os,0.0,-0.0558697,
NiAu3,0.0,-0.0558684,
SrInAu4,0.0,-0.0558626,
CRe3,0.0,-0.055859900000000004,
RuTm6Pb2,0.0,-0.055859,
LaPrBi,0.0,-0.0558587,
Rh2NdPu,0.0,-0.0558563,
Zr2Pt2Tl,0.0,-0.0558559,
MgLaPt4,0.0,-0.0558553,
Zr2Ir3,0.0,-0.0558549,
Nb5Ir7,0.0,-0.0558528,
AgHg2,0.0,-0.055852,
Ge2In3OsTh3,0.0,-0.0558512,
In3Au5,0.0,-0.055851,
ZrTbIr2,0.0,-0.0558507,
Ba2AuTl,0.0,-0.0558502,
As2PtPu,0.0,-0.0558419,
NiPb2,0.0,-0.0558391,
RhLaTl2,0.0,-0.055838299999999993,
Ho2Hg,0.0,-0.0558289,
PdTmHg2,0.0,-0.0558283,
Fe2SnU2,0.0,-0.055827800000000004,
ScLuPb2,0.0,-0.0558276,
Co2Ho4Pb5,0.0,-0.0558269,
B2Ir3U,0.0,-0.0558245,
CdSnBi2,0.0,-0.055823300000000006,
InTmHg2,0.0,-0.0558214,
CdBaPb2,0.0,-0.055820999999999996,
RhTm6Pb2,0.0,-0.0558203,
La2Bi,0.0,-0.0558195,
Pd2Ho3Pb3,0.0,-0.0558171,
BaErPb,0.0,-0.055813,
Rh2Sm4Tl5,0.0,-0.0558128,
PdBaHg3,0.0,-0.055812600000000004,
KAuTl2,0.0,-0.0558121,
PdNdTl2,0.0,-0.055812,
InLaTl2,0.0,-0.055811599999999996,
SHgTl2,0.0,-0.0558095,
CoTa2Ir,0.0,-0.0558086,
PdHfAu,0.0,-0.055808300000000005,
ScZrIr4,0.0,-0.0558056,
RhDyAu2,0.0,-0.0558035,
SbTm5Pt2,0.0,-0.055802199999999996,
SePtPb,0.0,-0.0557988,
Ru2LuTh,0.0,-0.0557987,
PdGd2Au,0.0,-0.055797400000000004,
AlPdAc2,0.0,-0.0557968,
Dy2Au,0.0,-0.0557962,
SrEuTl2,0.0,-0.0557917,
AlU,0.0,-0.055791600000000004,
SbIHg3,0.0,-0.0557913,
SbCeAu2,0.0,-0.0557907,
ZnPt2Hg,0.0,-0.0557902,
Rh2PrPu,0.0,-0.0557867,
Ru2Sm4Tl5,0.0,-0.0557862,
AlIr3,0.0,-0.0557824,
SiEu2Pt3,0.0,-0.055782,
AgGd2Tl,0.0,-0.0557789,
NiDyBi2,0.0,-0.0557777,
CuHoBi2,0.0,-0.055775,
AgDyPt2,0.0,-0.0557716,
CoTa2Re,0.0,-0.0557709,
Tb2Ir,0.0,-0.05577,
VTa2Re,0.0,-0.0557697,
GaAsPt5,0.0,-0.0557694,
BaPt,0.0,-0.0557691,
RhCeIr2,0.0,-0.0557666,
AgEuHg2,0.0,-0.055763599999999997,
Sm6IrBi2,0.0,-0.0557624,
Tb2Tl,0.0,-0.055761899999999996,
ZnPtAu2,0.0,-0.0557616,
RhLuPb,0.0,-0.0557615,
Rh2LaPu,0.0,-0.055758699999999994,
FeTa2Pt,0.0,-0.0557582,
GaAu2Hg,0.0,-0.055755000000000006,
AlAu2Pb,0.0,-0.0557542,
PdPrTl2,0.0,-0.0557517,
InHfAu,0.371,-0.0557488,
Se2TlNp,0.0,-0.0557468,
SnDy2Ir2,0.0,-0.0557453,
AgErAu2,0.0,-0.055744999999999996,
AgSnPa,0.0,-0.055743499999999994,
SbLuPt,0.0,-0.055743,
Sm6PtBi2,0.0,-0.0557396,
PdLaTl2,0.0,-0.0557382,
CoAsPt5,0.0,-0.0557378,
CuRu2Th2,0.0,-0.0557376,
InDyAu2,0.0,-0.055735999999999994,
In2Hg2Pb,0.0,-0.0557345,
LiHgPb2,0.0,-0.0557331,
Nb2Pt2Au,0.0,-0.0557321,
PdInPa,0.0,-0.0557311,
Tb2Pt,0.0,-0.055729100000000004,
SiInAu5,0.0,-0.055728099999999996,
SnPb,0.0,-0.055727,
SrGdAu2,0.0,-0.0557217,
CuAu3,0.0,-0.0557188,
NRe3,0.0,-0.0557116,
Rh2Tm3Tl3,0.0,-0.055711500000000004,
SiPt3,0.0,-0.0557111,
GeGdPt2,0.0,-0.0557094,
SnDy2Pt2,0.0,-0.055701799999999996,
AlLu6Bi2,0.0,-0.0556995,
ClHgTl2,0.0,-0.055697699999999996,
Sm6OsBi2,0.0,-0.0556972,
Pd2Pa,0.0,-0.0556971,
RuCePt2,0.0,-0.0556971,
Sb3Pu,0.0,-0.055694600000000004,
AlWIr2,0.0,-0.0556939,
GeDy2Ir3,0.0,-0.055691899999999996,
MgSbAu5,0.0,-0.0556896,
K3Pt4Pb4,0.0,-0.055689300000000004,
ZnGaTh2,0.0,-0.0556889,
Mg2Bi2Pu,0.0,-0.055688800000000004,
Se2AuPu,0.0,-0.055688299999999996,
SiTm2Ir3,0.0,-0.055688,
In2Dy3Pt4,0.0,-0.0556875,
Te2CsNp,0.0,-0.055687,
SiCdAc2,0.0,-0.0556856,
CuTh,0.0,-0.0556839,
CaAu2Tl,0.0,-0.0556819,
SrPtTl,0.0,-0.0556811,
AlWOs2,0.0,-0.055677700000000004,
MgTeAu5,0.0,-0.055677199999999996,
TiHfRe2,0.0,-0.0556765,
AlRh2Pa2,0.0,-0.055674799999999997,
SnGdAu,0.0842,-0.0556746,
SbPmAu2,0.0,-0.0556732,
Ru2DyU,0.0,-0.0556729,
Tc2TmPa,0.0,-0.0556657,
In2Pt2Au,0.0,-0.055665599999999996,
ZnLu6Pb2,0.0,-0.0556629,
ScPb2,0.0,-0.0556614,
BaIr,0.0,-0.0556601,
InHo2Ir2,0.0,-0.0556594,
Cd2Au2Bi,0.0,-0.0556585,
Y3Au2Tl3,0.0,-0.0556582,
CaGdPb2,0.0,-0.0556576,
GaGePt5,0.0,-0.0556575,
Zr2Pt3,0.0,-0.0556536,
PdTm6Pb2,0.0,-0.0556516,
PNdPu,0.0,-0.05565,
Pd2Hg2Pb,0.0,-0.0556482,
RhTmBi,0.0,-0.055647300000000004,
InHo2Pt2,0.0,-0.055646299999999996,
RhCePt2,0.0,-0.055645400000000005,
Ru2Hf3Pt,0.0,-0.055645099999999996,
ScHfPt2,0.0,-0.0556441,
SbLuIr,0.0,-0.0556441,
In2Au2Tl,0.0,-0.0556387,
InSmPt2,0.0,-0.05563559999999999,
Ag3Pt5,0.0,-0.0556349,
Cd2Ba3Bi4,0.0,-0.0556347,
TiTa2Os,0.0,-0.055634300000000005,
AgGd2Ir,0.0,-0.0556336,
TeDyBi,0.0,-0.0556317,
Sb2TlPb,0.0,-0.0556262,
RhErHg2,0.0,-0.055621899999999995,
AlSb3Np2,0.0,-0.0556209,
Er3Re,0.0,-0.0556199,
MgHg4,0.0,-0.0556189,
NiTa2Os,0.0,-0.0556187,
Cd2Pt2Pb,0.0,-0.0556177,
CoTa2Pt,0.0,-0.0556163,
CdEuHg2,0.0,-0.0556154,
Y2Pt2Pb,0.0,-0.055615000000000005,
CdTm3Ir2,0.0,-0.0556135,
GeCeBi2,0.0,-0.0556134,
S3GeTh4,0.0,-0.0556105,
YLuHg2,0.0,-0.0556098,
InCePt2,0.0,-0.055609099999999995,
CaPdTl4,0.0,-0.055605600000000005,
AgGd2Pt,0.0,-0.0556044,
Cs2PtPb,0.0,-0.0556021,
CoTaAu2,0.0,-0.055601,
NiTa2Ir,0.0,-0.0556008,
Ag2HgAc,0.0,-0.055593899999999995,
In2SmPu,0.0,-0.0555926,
CdErAu2,0.0,-0.055591999999999996,
CuHfPt2,0.0,-0.0555909,
InHf3,0.0,-0.055589799999999995,
CoHf2Bi,0.0,-0.0555867,
Ba2OsIr,0.0,-0.0555835,
CdDyPt2,0.0,-0.0555833,
Rh2Dy3Pb3,0.0,-0.055582299999999994,
Ga3Ir2Th2,0.0,-0.0555803,
PdLu2Pb,0.0,-0.0555782,
CdHg2,0.0,-0.0555774,
AsRuPu,0.0,-0.0555765,
GaPd2Th2,0.0,-0.055576099999999996,
Te2AuBi,0.6162,-0.055575,
SbNdAu2,0.0,-0.0555699,
Al3Sn2IrPu3,0.0,-0.0555666,
RuEr3Pt2,0.0,-0.0555655,
Y2Au2Bi,0.0,-0.055564999999999996,
Sm2Pb,0.0,-0.055558100000000006,
SiTaOs2,0.0,-0.0555563,
Co2SnU2,0.0,-0.0555555,
MgTl3,0.0,-0.0555536,
PPrPu,0.0,-0.0555536,
NHf3Pb,0.0,-0.055549,
CdTm3Pt2,0.0,-0.0555479,
Cd4Pb5,0.0,-0.0555469,
Cd3Pt5,0.0,-0.0555453,
Ce2Pb,0.0,-0.055544699999999995,
HPt2Bi,0.0,-0.0555432,
RuEr6Bi2,0.0,-0.055543100000000005,
Ba2HgTl,0.0,-0.0555421,
CdEr2Ir2,0.0,-0.0555385,
NiAsPt5,0.0,-0.055536999999999996,
KBi2,0.0,-0.0555353,
GePd3Np2,0.0,-0.0555351,
Y3Pt5,0.0,-0.0555341,
NiTbBi2,0.0,-0.0555336,
SrAgAu4,0.0,-0.055532899999999996,
CdEr2Pt2,0.0,-0.0555326,
InEr2Au2,0.0,-0.055528100000000004,
SnSmAu2,0.0,-0.0555267,
RhTbAu2,0.0,-0.055526200000000005,
Al3Sn2OsPu3,0.0,-0.055525,
ScPtBi,0.0,-0.0555243,
Zr3Au5,0.0,-0.055523,
SeSbNp,0.0,-0.0555205,
Ru2SmNp,0.0,-0.05552,
Pd2SmPu,0.0,-0.0555195,
Sn2TlBi,0.0,-0.055518200000000004,
SiTaIr2,0.0,-0.0555169,
Ru2Dy3Pb3,0.0,-0.0555166,
ZrPdBi2,0.0,-0.0555141,
SnHo2Au2,0.0,-0.0555134,
SbLaAu2,0.0,-0.055512700000000005,
SbBa2Bi2,0.0,-0.055512700000000005,
GeLu2Ir2,0.0,-0.055512399999999996,
TiTaW2,0.0,-0.0555115,
SnIHg3,0.0,-0.055511200000000004,
Cd2Tl3,0.0,-0.0555078,
RhEr6Bi2,0.0,-0.0555074,
Al3Sn2PtPu3,0.0,-0.055506799999999995,
RhSmPt2,0.0,-0.0555067,
P2Os2Pu,0.0,-0.055506,
Sm6ReBi2,0.0,-0.0555047,
AlSiPt6,0.0,-0.0555047,
Tb2Os,0.0,-0.0555032,
SnEu2Pb,0.0,-0.0555013,
Pd2Tm3Tl3,0.0,-0.0554998,
Ru2ErPa,0.0,-0.0554996,
CuDyBi2,0.0,-0.0554972,
AgTbPt2,0.0,-0.0554927,
YBaPb2,0.0,-0.0554888,
SnCeAu2,0.0,-0.0554884,
PdTmBi,0.0,-0.055487699999999994,
KHgTl2,0.0,-0.0554863,
Rb3Pt7,0.0,-0.055485799999999995,
InSbPb2,0.0,-0.0554854,
GeDy2Pt3,0.0,-0.055483,
GeRu3U2,0.0,-0.0554829,
ZnHg2Tl,0.0,-0.055482500000000004,
Al2HgTh2,0.0,-0.055480600000000005,
InTbAu2,0.0,-0.055479,
In2PmPu,0.0,-0.055478900000000005,
SiTm2Os3,0.0,-0.055478299999999994,
AgGd2Os,0.0,-0.0554779,
H2SnTh3,0.0,-0.0554778,
Pd2CePu,0.0,-0.0554774,
PdLuPb,0.0,-0.055477200000000004,
AsBr2Np2,0.0,-0.055477200000000004,
ZnRu2Th2,0.0,-0.0554742,
Ba2PtAu,0.0,-0.055473,
RhCsHg3,0.0,-0.0554727,
Rh2PbBi,0.0,-0.05547,
ZnHfIr2,0.0,-0.0554698,
BIn2Pt6,0.0,-0.0554661,
PdErHg2,0.0,-0.055465,
InErHg2,0.0,-0.0554627,
Te5PbBi3,0.0,-0.0554613,
CdGdPb,0.0,-0.0554604,
LiLaIr4,0.0,-0.0554601,
InHo2Os2,0.0,-0.055459600000000005,
Ru2Nd4Tl5,0.0,-0.0554581,
ZrLuBi,0.0,-0.055456000000000005,
Zr2HfPb2,0.0,-0.055455199999999996,
InLu2Pb,0.0,-0.0554529,
SnBaTl2,0.0,-0.055451,
Sn3Hf3Ir2,0.0,-0.055450000000000006,
NaTl3,0.0,-0.055449899999999996,
CdTm2Au2,0.0,-0.0554497,
YDyIr2,0.0,-0.0554452,
BaNdHg2,0.0,-0.0554449,
InPmPt2,0.0,-0.0554434,
In2Pt2Hg,0.0,-0.055440199999999995,
Zr2Ir2Au,0.0,-0.0554395,
CGe2Os2Th2,0.0,-0.0554379,
As2AuPu,0.0,-0.0554375,
InGd2Hg,0.0,-0.055435200000000004,
PdCePt2,0.0,-0.055430799999999995,
MgHf2Ir2,0.0,-0.0554284,
SiTm2Pt3,0.0,-0.055426699999999995,
MnTa2W,0.0,-0.0554261,
ScIrBi,0.0,-0.0554238,
CdTm3Os2,0.0,-0.0554222,
PdEr3Ir2,0.0,-0.055419800000000005,
SiAgAu5,0.0,-0.0554149,
AsRhPu,0.0,-0.055413699999999996,
Ru2TbU,0.0,-0.0554134,
AgSmTl2,0.0,-0.055409999999999994,
AlPt3,0.0,-0.0554094,
BaLaHg2,0.0,-0.055406,
AgHoAu2,0.0,-0.0554047,
CuAu2Hg,0.0,-0.055404499999999995,
ZnAu3,0.0,-0.0554044,
NiTaAu2,0.0,-0.0554008,
CHf3Pb,0.0,-0.055400599999999994,
AlRe3,0.0,-0.055400399999999995,
ScAuHg2,0.0,-0.0554,
SrCdAu4,0.0,-0.0553988,
TeErPb,0.0,-0.055398499999999996,
LiLaPt4,0.0,-0.0553978,
Co2Dy4Pb5,0.0,-0.0553956,
NiTa2Pt,0.0,-0.055393,
BaPrHg2,0.0,-0.055392000000000004,
InNdPt2,0.0,-0.055391300000000004,
Si2Ir2Pu,0.0,-0.055391199999999995,
ZnRh2Th2,0.0,-0.0553903,
KBaPt4,0.0,-0.0553864,
PdSmPt2,0.0,-0.0553844,
NiPd2Th2,0.0,-0.0553832,
Ag2Au2Pb,0.0,-0.0553791,
SnHfTa,0.0,-0.0553728,
YHg2,0.0,-0.055372500000000005,
NbSnTh,0.0,-0.055371899999999995,
CdSnPa,0.0,-0.0553705,
ScYIr4,0.0,-0.055368600000000004,
PdEr3Pt2,0.0,-0.0553663,
PAu2Tl,0.0,-0.055362699999999994,
SnPmAu2,0.0,-0.0553621,
CrTa2W,0.0,-0.055361,
B2Ir3Pa,0.0,-0.0553602,
PdCsHg3,0.0,-0.05536,
Ru2Pr4Tl5,0.0,-0.0553583,
ScYOs4,0.0,-0.0553574,
PdEr6Bi2,0.0,-0.0553563,
ZrSbTh,0.0,-0.055354999999999994,
TiTa2Re,0.0,-0.055351399999999995,
GeAc,0.0,-0.0553501,
Ge2IrPu,0.0,-0.055345399999999996,
Lu,0.0,-0.0553444,
MnSbPu,0.0,-0.0553424,
YRhBi2,0.0,-0.055341999999999995,
ZnAsPt5,0.0,-0.0553373,
FeTa2W,0.0,-0.0553355,
InCsHg3,0.0,-0.0553347,
ScZrRe4,0.0,-0.0553324,
CdTbPt2,0.0,-0.055332099999999995,
GeTb2Ir3,0.0,-0.0553315,
Zr2Pt2Au,0.0,-0.055328,
KHg2Pb,0.0,-0.0553257,
SeTl2,0.0,-0.055324,
P2Ir2Pu,0.0,-0.0553236,
SnTb2Ir2,0.0,-0.0553231,
Rh2Th,0.0,-0.0553222,
CPa,0.0,-0.055319099999999996,
Fe2PdU2,0.0,-0.0553172,
AgTmHg2,0.0,-0.0553132,
TeTbBi,0.0,-0.0553127,
SnNdAu2,0.0,-0.055312,
Pd2Au2Tl,0.0,-0.0553088,
AlTaOs2,0.0,-0.05530789999999999,
Ru2Hf3Au,0.0,-0.0553059,
SrAuTl,0.0,-0.055305599999999996,
Fe2Tm4Tl5,0.0,-0.0553055,
InPrPt2,0.0,-0.0553052,
ZnGd2Os2,0.0,-0.055300400000000006,
Ru2NdNp,0.0,-0.055294800000000005,
SiPd3Pu2,0.0,-0.0552936,
MnLu6Tl2,0.0,-0.0552927,
RhHoHg2,0.0,-0.055291400000000004,
BTmIr3,0.0,-0.0552905,
La3IrTl,0.0,-0.0552853,
Fe2InU2,0.0,-0.0552851,
Nd3Ac,0.0,-0.055284999999999994,
FeIPu,0.0,-0.055283900000000004,
InPmIr2,0.0,-0.0552803,
SnTb2Pt2,0.0,-0.0552769,
Pd2NdPu,0.0,-0.0552768,
InLaPt2,0.0,-0.0552729,
FeLu6Tl2,0.0,-0.0552707,
Sn3Hf3Pt2,0.0,-0.055270200000000005,
MgHf2Pt2,0.0,-0.0552697,
Tc2ErPa,0.0,-0.055269599999999995,
K3Au4Pb4,0.0,-0.0552688,
Cs2HgPb,0.3125,-0.0552667,
AlAgAc2,0.0,-0.0552659,
BBaPt4,0.0,-0.0552642,
CuTbBi2,0.0,-0.0552581,
Ho3Ir,0.0,-0.0552579,
As4Pa3,0.0,-0.0552559,
CdHoAu2,0.0,-0.0552534,
RuSb2Pu,0.0,-0.0552498,
CoLu6Tl2,0.0,-0.055249099999999995,
Al3Sn2AuPu3,0.0,-0.0552483,
MgLu6Bi2,0.0,-0.0552479,
N2ThPa,0.0,-0.0552449,
SnPrAu2,0.0,-0.0552421,
AgEuBi,0.0,-0.0552385,
LiSnAc2,0.0,-0.055237900000000006,
Co2Tm4Tl5,0.0,-0.0552355,
CaTaIr2,0.0,-0.0552355,
YLa2Bi2,0.0,-0.055232500000000004,
Pd2PbBi,0.0,-0.0552266,
Dy3Pb,0.0,-0.0552263,
Ge2PtPu,0.0,-0.0552261,
CdCeTl2,0.0,-0.0552235,
MnLu2Ir2,0.0,-0.055222900000000005,
BaAu,0.0,-0.055222,
Al2Ir3Th,0.0,-0.0552198,
SnLaAu2,0.0,-0.0552194,
PCrIr5,0.0,-0.0552188,
ZnHfPt2,0.0,-0.0552179,
Te3Ir2Pb,0.0,-0.0552175,
RhInTh,0.0,-0.0552155,
PBr2Pu2,0.0,-0.055215,
Te5Pb2Bi2,0.0357,-0.0552145,
PdEr3Os2,0.0,-0.055213700000000004,
KInTl4,0.0,-0.0552128,
ITl,1.736,-0.055211199999999995,
SnBa2Bi2,0.0,-0.05521,
RuInTh,0.0,-0.0552098,
SrPt2,0.0,-0.0552098,
GeRh3U2,0.0,-0.055208799999999995,
CuZnTh2,0.0,-0.05520750000000001,
AgNdTl2,0.0,-0.0552072,
SeTe4Pb5,0.3708,-0.055205199999999996,
Tc3Ta5,0.0,-0.0552044,
CoSbPu,0.0,-0.0552024,
Sn2LaIr3,0.0,-0.0552017,
Sn2PrIr3,0.0,-0.0552014,
SrTmTl2,0.0,-0.0552014,
CoCeBi2,0.0,-0.0551995,
Rh2Tb3Pb3,0.0,-0.0551936,
Pd2PrPu,0.0,-0.0551918,
Y2Mg,0.0,-0.055189392499999004,mp-2019746
CaPtAu2,0.0,-0.0551888,
SrIr2,0.0,-0.0551877,
SiAu2Tl,0.0,-0.0551855,
Sb4BaAu6,0.0,-0.055184199999999996,
In2PbBi,0.0,-0.0551822,
Rh2DyIr3,0.0,-0.0551819,
BY2Ir6,0.0,-0.0551793,
AgGd2Au,0.0,-0.0551793,
MgInAc2,0.0,-0.055177300000000006,
YEuHg2,0.0,-0.055177,
SiEr2Ir3,0.0,-0.0551769,
I2Gd2Bi,0.0,-0.055176699999999995,
Nd6IrBi2,0.0,-0.0551761,
Ru2LaNp,0.0,-0.0551751,
AgLaTl2,0.0,-0.0551747,
AlWRe2,0.0,-0.0551744,
AlTaIr2,0.0,-0.0551721,
InDy2Ir2,0.0,-0.0551694,
LiHg4,0.0,-0.0551689,
Nd6PtBi2,0.0,-0.0551636,
YTbIr2,0.0,-0.0551633,
YTbPt2,0.0,-0.0551628,
Ho3Tl,0.0,-0.0551614,
MgRhAc2,0.0,-0.0551608,
InDy2Pt2,0.0,-0.0551595,
CuTaAu2,0.0,-0.0551594,
SiPa,0.0,-0.055158900000000004,
Te3Np,0.0,-0.0551583,
YPdBi2,0.0,-0.0551583,
Ru2HoPa,0.0,-0.0551547,
Te3Pt2Pb,0.0,-0.055152700000000006,
Pd2LaPu,0.0,-0.0551526,
K2Hg7,0.0,-0.0551522,
Rh2Er3Tl3,0.0,-0.0551522,
RhLaPt2,0.0,-0.0551516,
Zr2Ir2Hg,0.0,-0.0551514,
RhErBi,0.0,-0.0551513,
SrPmPb2,0.0,-0.0551465,
AsAuPb,0.0,-0.055146,
C2ThU,0.0,-0.055146,
ZrBi,0.0,-0.0551419,
Cd2Au2Pb,0.0,-0.055141300000000004,
Ni2Tm4Tl5,0.0,-0.055140999999999996,
MgAu2Pb,0.0,-0.055139299999999995,
InHoHg2,0.0,-0.055139099999999996,
CGe2Re2Th2,0.0,-0.055138599999999996,
PdHoHg2,0.0,-0.0551367,
N2TeNp2,0.0,-0.0551296,
GeTb2Pt3,0.0,-0.055128300000000005,
SnLuIr,0.0,-0.0551272,
Ru2Tb3Pb3,0.0,-0.055124200000000005,
Ho3Pt,0.0,-0.055123,
CdTmHg2,0.0,-0.055122500000000005,
AsHf2Pt,0.0,-0.0551165,
InSnPb2,0.0,-0.055112900000000006,
RuLu2Ir,0.0,-0.055111400000000005,
SbBaPt2,0.0,-0.0551112,
Er3Hg,0.0,-0.055104999999999994,
InTe2Pu,0.0,-0.0551049,
SnLuPt,0.0,-0.0551046,
Nd6OsBi2,0.0,-0.0551045,
Ge2Au2Th,0.0,-0.055103700000000005,
AgDyAu2,0.0,-0.0551032,
RhLu2Ir,0.0,-0.055103,
Te2Ta3,0.0,-0.0551023,
AsPdPu,0.0,-0.055102,
In2Au3,0.0,-0.055101199999999996,
Pr3Ac,0.0,-0.055097700000000006,
MgOs3,0.0,-0.055097099999999996,
PdNdPt2,0.0,-0.055097,
Ni2SnU2,0.0,-0.0550969,
In3Hg5,0.0,-0.0550948,
CeGd3,0.0,-0.055094000000000004,
Tb2Au,0.0,-0.0550934,
GaHg3,0.0,-0.055091299999999996,
Ba2PtHg,0.0,-0.0550891,
NHf3Ir,0.0,-0.0550889,
Ru2Er3Tl3,0.0,-0.0550883,
As2IrNp,0.0,-0.0550869,
La3Ir2,0.0,-0.0550866,
ZnAu2Hg,0.0,-0.0550835,
La3OsTl,0.0,-0.0550805,
Ho3Os,0.0,-0.055079300000000005,
Cd2Hg2Bi,0.0,-0.0550786,
Te4Bi3,0.0,-0.0550755,
In2Hg2Tl,0.0,-0.0550726,
Ru3Ta5,0.0,-0.0550726,
AlCdAc2,0.0,-0.055072,
NiPd2Pb4,0.0,-0.0550701,
SiRu3Np2,0.0,-0.055069099999999996,
Ag3Au5,0.0,-0.0550639,
SbCeHg2,0.0,-0.0550639,
Si2Pt2Pu,0.0,-0.0550622,
LiAu2Bi,0.0,-0.055061700000000005,
AlPd2Pa2,0.0,-0.0550596,
As2Hf6Ir,0.0,-0.0550535,
RuLu2Pt,0.0,-0.055053,
La3Pt2,0.0,-0.0550524,
Ga2Ir2Th,0.0,-0.0550522,
Zr2Pt2Hg,0.0,-0.0550512,
Rh2Hf2Bi,0.0,-0.0550503,
NiLu3Ir2,0.0,-0.055047,
Ru2PrNp,0.0,-0.055045000000000004,
CoIPu,0.0,-0.055044199999999995,
Sr2Pb3,0.0,-0.0550437,
Rh2NdNp,0.0,-0.055041,
GeRuPu,0.0,-0.0550403,
ScHg3,0.0,-0.0550396,
Pd2EuAu3,0.0,-0.0550381,
Pd2LuTh,0.0,-0.055035200000000006,
SnDy2Au2,0.0,-0.0550345,
Dy2Hg,0.0,-0.0550342,
MgRh2Pa2,0.0,-0.0550323,
LiPt2Pb,0.0,-0.0550322,
AgEu2Bi,0.0,-0.0550295,
GaGdPt2,0.0,-0.0550292,
ZrLaTl2,0.0,-0.055029,
MgHg2Bi,0.0,-0.0550263,
Ru4Ir5,0.0,-0.055025199999999996,
NHf3Os,0.0,-0.0550251,
NaPtTl2,0.0,-0.0550242,
CoTa2Au,0.0,-0.055023,
Co2Tb4Pb5,0.0,-0.055020000000000006,
CaHg2Tl,0.0,-0.0550191,
SrLaPb2,0.0,-0.0550184,
KAu2Tl,0.0,-0.0550166,
Rh2TbIr3,0.0,-0.055013599999999996,
TeLaHg2,0.0,-0.0550112,
PmGd3,0.0,-0.0550099,
RhLu2Pt,0.0,-0.0550073,
Rb3Au7,0.0,-0.0550045,
As2Hf6Os,0.0,-0.055004399999999995,
PdHfHg,0.0,-0.0550019,
SrEuPt2,0.0,-0.0550015,
PdErBi,0.0,-0.0550012,
CdLaTl2,0.0,-0.0550012,
RhDyHg2,0.0,-0.0550007,
Y2Au2Pb,0.0,-0.0549996,
NiCeBi2,0.0,-0.054999400000000004,
Pr6IrBi2,0.0,-0.0549962,
TeTl,0.0,-0.054995800000000004,
InLa2Pb2,0.0,-0.0549949,
AlW2Os,0.0,-0.054993600000000004,
NaHg2Bi,0.0,-0.0549916,
GaIPu,0.0,-0.0549912,
Pd2Tb3Pb3,0.0,-0.054990699999999997,
Pr6PtBi2,0.0,-0.0549884,
CuTa2Pt,0.0,-0.054988100000000005,
In4Tl5,0.0,-0.054986,
CdHo2Ir2,0.0,-0.054985599999999996,
B2Tb3Pt7,0.0,-0.054985599999999996,
PdPrPt2,0.0,-0.0549855,
Te2AuPb,0.0,-0.054985,
SrGdHg2,0.0,-0.0549849,
InHo2Au2,0.0,-0.0549847,
Ru2Hf3Hg,0.0,-0.0549844,
LiTl3,0.0,-0.0549836,
O2TeNp2,0.0,-0.054982100000000006,
NHf3Pt,0.0,-0.0549819,
CdHo2Pt2,0.0,-0.054981499999999996,
AlPt2Au,0.0,-0.0549811,
GaLu2Ir2,0.0,-0.054981,
BErIr3,0.0,-0.0549809,
Mn2Au5,0.0,-0.0549795,
RuTm6Tl2,0.0,-0.0549786,
ScTmPb2,0.0,-0.054977,
As2Hf6Pt,0.0,-0.054976500000000005,
SrInHg4,0.0,-0.054975,
CdITh,0.1612,-0.0549736,
Pd2Hg2Tl,0.0,-0.0549724,
Pd4CsTl6,0.0,-0.054972099999999996,
MgOsIr2,0.0,-0.054972,
TeHoPb,0.0,-0.054971400000000004,
CoNdBi2,0.0,-0.0549697,
SiEr2Os3,0.0,-0.0549658,
BeOsIr2,0.0,-0.0549636,
PdLaPt2,0.0,-0.0549611,
NiLu3Pt2,0.0,-0.054959400000000005,
GeLuIr2,0.0,-0.054959,
BeReOs2,0.0,-0.0549567,
Sb2AuPb,0.0,-0.0549545,
CdDyAu2,0.0,-0.0549536,
RhTm6Tl2,0.0,-0.0549505,
AgErHg2,0.0,-0.0549498,
MgReIr2,0.0,-0.054947699999999995,
SeSnNp,0.0,-0.054945999999999995,
Pd2Er3Tl3,0.0,-0.0549445,
BeReIr2,0.0,-0.054943,
Rh2EuTh,0.0,-0.0549401,
AlHg2Pb,0.0,-0.0549389,
GeLuPt2,0.0,-0.0549377,
CuPd2Pb4,0.0,-0.054936900000000004,
CaAu3,0.0,-0.0549341,
AgSbPb2,0.0,-0.0549314,
KPt3,0.0,-0.054926499999999996,
AsTl2,0.0,-0.0549263,
Al2Pt3Th,0.0,-0.0549249,
MnFe2Pu2,0.0,-0.054924799999999996,
Pr6OsBi2,0.0,-0.0549209,
SiEr2Pt3,0.0,-0.054920699999999996,
Ga2Pt2Th,0.0,-0.054919800000000005,
BY2Pt6,0.0,-0.054917299999999995,
AgLu2Pb,0.0,-0.0549161,
La6IrBi2,0.0,-0.0549132,
NdGd3,0.0,-0.054913,
C2GeTh3,0.0,-0.0549117,
As2PtNp,0.0,-0.054911,
Cd2Pt2Tl,0.0,-0.054909999999999994,
MgIr3,0.0,-0.0549076,
AgCsHg3,0.0,-0.0549055,
PScIr5,0.0,-0.0549039,
Tc2HoPa,0.0,-0.0549034,
NiSbPu,0.0,-0.054902700000000006,
Se2TlU,0.0,-0.054900700000000004,
RhLu2Os,0.0,-0.054900199999999996,
La6PtBi2,0.0,-0.0548992,
InSmAu2,0.0,-0.054896,
Sb4Au5,0.0,-0.054894799999999994,
Ru2TmTh,0.0,-0.0548914,
Ag2Hg2Pb,0.0,-0.054888,
Cu2Tm4Tl5,0.0,-0.0548876,
Pd2HoPt3,0.0,-0.0548866,
ZnPd2Th2,0.0,-0.0548859,
TiHf5,0.0,-0.0548856,
In2LuTh,0.0,-0.054885199999999995,
Rh4Os5,0.0,-0.0548811,
NaInAc2,0.0,-0.0548797,
PdSb2Pu,0.0,-0.0548789,
GeRhPu,0.0,-0.0548772,
Y2Pt2Tl,0.0,-0.0548769,