formula,bg,formation_energy,mp-id
CdI3Cs,1.8916,-0.0367682,
Be2SnAu2,0.0,-0.0367667,
CoPr3,0.0,-0.0367667,
NbTe4,0.0,-0.036766599999999997,
Se4TaW,0.0,-0.0367663,
NaIn2Pb,0.0,-0.036766,
ScSrTl,0.0682,-0.036765900000000004,
Ag2SnTb,0.0,-0.0367655,
ZnInHf,0.0,-0.036764899999999996,
CuI6Cs2Pr,1.8648,-0.036764000000000005,
GeTe4Ho,0.0,-0.0367639,
Rh3Sn2La,0.0,-0.0367635,
GaSrAu,0.0,-0.0367628,
Si2TmIr,0.0,-0.0367627,
Rh3Sn2Pr,0.0,-0.0367627,
PSbTb2,0.0,-0.0367613,
PY2Pb,0.0,-0.0367612,
Ru6Sb4La,0.0,-0.036761,
RhPd2Ce,0.0,-0.0367606,
MgSn2Tm2,0.0,-0.0367606,
Cu2GeTh,0.0,-0.036759099999999996,
Se2Ag2SbTe2Bi,0.0,-0.036758400000000004,
B3C2Np2,0.0,-0.036757399999999996,
RhCd2Er,0.0,-0.0367573,
Zn2RuTm3,0.0,-0.0367564,
OSnCe3,0.0,-0.0367564,
CZr2Tl,0.0,-0.0367556,
AsTeHo,0.2189,-0.0367554,
YIn2La2,0.0,-0.0367554,
CTeDy2,0.0,-0.0367552,
SrI4Cs2,3.6834,-0.0367547,
CoY2Tl,0.0,-0.036754600000000005,
AsPrNd,0.0,-0.036754600000000005,
NNb3Ir,0.0,-0.036753100000000004,
O4TaPu,0.0,-0.036753,
NiZr2Hg,0.0,-0.0367525,
Se4BrInBi2,0.9686,-0.0367522,
In2Sb2Ba,0.0535,-0.0367513,
PdSbCs2,0.0,-0.0367502,
Ga2RhPr6,0.0,-0.036748600000000006,
Si2SrAu2,0.0,-0.036748399999999994,
Rh3Pm,0.0,-0.0367483,
SiRh2Er2,0.0,-0.0367477,
MgRu2Dy3,0.0,-0.0367475,
ZnSb4Ce2,0.0,-0.0367474,
C3La2W2,0.0,-0.0367458,
ScMo4Ta,0.0,-0.0367453,
TiGa2Ta2,0.0,-0.0367452,
SeSnEr,0.0,-0.036745,
Ga4LuTa2,0.0,-0.036744,
O2SBi2,0.7513,-0.036743899999999996,
Zr6Sn2Au,0.0,-0.0367438,
Al3HoIr2,0.0,-0.0367437,
MgCdLu2,0.0,-0.0367437,
CuCd2Pt,0.0,-0.036743200000000004,
Rb2SnHg,0.1707,-0.0367431,
NiAgHo2,0.0,-0.036743000000000005,
GaIEu,0.0,-0.036743000000000005,
Zr2Ho,0.0,-0.0367423,
RhCdBa3,0.0,-0.036742199999999996,
In6Ba5,0.0,-0.0367414,
Rh3Te8,0.0,-0.036741300000000005,
Cu2PrTl,0.0,-0.036741300000000005,
I,0.9254,-0.036740499999999995,
RbCd3Pt,0.0,-0.0367402,
LiZrPb,0.0,-0.0367398,
SeIDy,2.0423,-0.0367383,
GaLa3,0.0,-0.0367375,
Ga2SnBi,0.0,-0.036737099999999995,
PCeTm,0.0,-0.036737,
LiBeAu2,0.0,-0.0367362,
OSnSm3,0.0,-0.0367357,
Zn2La2Hg,0.0,-0.036735300000000005,
GeRu3Tb2,0.0,-0.0367348,
GaY2Tl,0.0,-0.0367346,
Be2MoW2,0.0,-0.0367341,
CGeEr3,0.0,-0.0367335,
ZnInHo2,0.0,-0.036733400000000006,
GeCeSm,0.0,-0.036732999999999995,
MoTe2,0.6994,-0.036732799999999996,
NMo3Au,0.0,-0.0367327,
CSi2HoW2,0.0,-0.036732,
Se3InTb4,0.0,-0.036731900000000005,
Ni3YPt2,0.0,-0.0367315,
RuIn2Nd,0.0,-0.036730200000000005,
Sc3CdPt2,0.0,-0.03673,
CoAs2Sm6,0.0,-0.0367298,
Ni5Ir3,0.0,-0.036729700000000004,
Ca2SeAu2,0.0,-0.036729399999999995,
In3Sm,0.0,-0.036729,
AgICs2,1.9035,-0.0367283,
ZnRh2Ho2,0.0,-0.0367276,
PdBa,0.0,-0.036727499999999996,
Pd6Sb4Tm,0.0,-0.0367274,
Se2SmEu,0.0,-0.0367266,
AsLaNd,0.0,-0.0367263,
SiYAu,0.0,-0.0367258,
As2TeAu,0.0,-0.0367257,
GaCdHo2,0.0,-0.0367256,
Pd4Ho,0.0,-0.036725499999999994,
Na2CsHg2,0.0,-0.036725299999999995,
NiGe2Hf2,0.0,-0.036724400000000004,
CaRu2Ta,0.0,-0.036724,
Ge2RuIn3Er3,0.0,-0.036723799999999994,
B2Ru2Th,0.0,-0.0367232,
S3Cs2Np,0.0,-0.0367228,
Co3Dy2Os,0.0,-0.0367226,
Li3TmBi2,0.0,-0.0367224,
Pd2CdDy,0.0,-0.0367223,
Se6Ta2Ir,0.0,-0.0367222,
Ge4Pd4Hf3,0.0,-0.0367215,
Pd2InSm,0.0,-0.0367202,
ClHf,0.0,-0.0367196,
PdSn3Ba,0.0,-0.036719499999999995,
ZnSb4Sm2,0.0,-0.0367187,
YRu2Dy,0.0,-0.036718400000000005,
Sc3CdOs2,0.0,-0.036718,
GaIn2Hf,0.0,-0.0367179,
LiP2HoIr2,0.0,-0.0367174,
MgTi2Ir2,0.0,-0.03671629999999999,
Se6Ta2Pt,0.0,-0.03671629999999999,
Cu2Te2Bi,0.0,-0.0367162,
ZrTe5,0.0776,-0.0367157,
Ag3Tm,0.0,-0.0367157,
Ni2GaTh,0.0,-0.0367152,
Ge2RhIn3Er3,0.0,-0.036714399999999994,
BCo6Pu2,0.0,-0.0367141,
HRh3Bi,0.0,-0.0367138,
CoRhTb2,0.0,-0.0367129,
Sn4SbTe3,0.0,-0.0367124,
SrTe2Ba2,0.0,-0.0367115,
Cd5Hg,0.0,-0.0367115,
Li2HgTl,0.0,-0.0367112,
CuY6Tl2,0.0,-0.036711,
Ge2RuSn3Dy3,0.0,-0.036710599999999996,
AlSc2Pt2,0.0,-0.0367096,
AlYIr,0.0,-0.036709000000000006,
Nb2In4Lu,0.0,-0.0367089,
GaRuTb2,0.0,-0.0367089,
Rh2SbBa,0.0,-0.0367077,
AsRuTm,0.0,-0.0367069,
Rh4BaLa,0.0,-0.036706699999999995,
Tc4La,0.0,-0.0367066,
Ge2AgIn3Tm3,0.0,-0.0367062,
NaSe2Th,0.0,-0.0367062,
FeLu,0.0,-0.036705,
Rh4CdTm,0.0,-0.0367045,
NaSn4Ir,0.0,-0.0367042,
CoRuTb2,0.0,-0.036704099999999996,
Zn3Pt2,0.0,-0.036704,
Mg2YPt2,0.0,-0.0367031,
NiPd2Ho2,0.0,-0.036703,
RhSbTe,0.2053,-0.0367022,
Rh2InLa,0.0,-0.036701700000000004,
NaMgHg2,0.0,-0.036700899999999995,
Rh2InPr,0.0,-0.0367003,
HTeAu,0.0,-0.0366996,
AsPdEu,0.0,-0.0366996,
In3Ce,0.0,-0.0366994,
RhIn2Pr,0.0,-0.0366989,
Rh6Sb4Sm,0.0,-0.0366984,
LiAgPb,0.0,-0.036698,
Si2TmOs,0.0,-0.0366979,
SrAgTe3Tb,0.6105,-0.0366978,
Co2NiTh,0.0,-0.0366975,
B2CHoIr2,0.0,-0.0366963,
Ag2InHo,0.0,-0.0366962,
FeLa3,0.0,-0.0366961,
Sn3SbTe2,0.0,-0.0366958,
MgRh2Dy3,0.0,-0.0366943,
BS3Tl3,0.8665,-0.0366927,
CaSrPb,0.2303,-0.0366924,
AlCdEu2,0.0,-0.036692100000000005,
SrI4Ba,3.1414,-0.0366909,
ZnRu2Ho2,0.0,-0.036690600000000004,
ZnSnGd,0.0,-0.036690600000000004,
SAgIHg,1.1732,-0.0366903,
AlRh2Au,0.0,-0.0366897,
GaRhTb2,0.0,-0.036688000000000005,
Ni2ZnPa,0.0,-0.0366879,
GeRh3Tb2,0.0,-0.0366875,
OPZnPu,0.0,-0.0366853,
GeBr2Gd2,0.0,-0.0366835,
Ga2RuLa6,0.0,-0.0366829,
As2W,0.0,-0.0366817,
Ga3Sn2Nd3Ir,0.0,-0.0366816,
ZrRu2Sm,0.0,-0.0366815,
AgIn2Tb,0.0,-0.0366812,
MnCo2Lu3,0.0,-0.036681,
Na2SbHg2,0.0,-0.0366808,
Se2RhCsHg,0.0,-0.036680300000000006,
MnGeIr,0.0,-0.03668,
YSn2Pm,0.0,-0.0366799,
CaIn4Pb,0.0,-0.0366792,
AgI3Cs,0.0,-0.036678800000000004,
GeSm2,0.0,-0.036678600000000006,
NaPdTl,0.0,-0.0366772,
AlYPt,0.0,-0.0366768,
MnLu,0.0,-0.0366764,
CRh3Tl,0.0,-0.0366762,
AgSb2Cs2,0.0,-0.036676099999999996,
CuGe3Pu,0.0,-0.0366758,
CoSnLu,0.0,-0.0366753,
AsPr2,0.0,-0.0366734,
CSnHo2,0.0,-0.0366734,
AsInEu,0.0,-0.0366732,
Co2Sn3Ho3,0.0,-0.0366732,
TcSb3,0.0,-0.0366732,
Sr6RhBi2,0.0,-0.036672800000000005,
MnRh2Tb2,0.0,-0.036672699999999996,
Fe2In5Ho4,0.0,-0.0366724,
Ni2GaTa2,0.0,-0.0366723,
Zn2DyAu,0.0,-0.036671100000000005,
YPd2La2,0.0,-0.0366701,
TiGe2Hf2,0.0,-0.03667,
NiPr3,0.0,-0.0366697,
ZnDy2,0.0,-0.0366695,
Rh5Ho,0.0,-0.036669,
CdInSm,0.0,-0.0366689,
ScZr2Au,0.0,-0.0366685,
N2Nd2Pt,0.0,-0.0366682,
BeRhPt,0.0,-0.0366678,
O2BrU,0.0,-0.0366678,
NiRu2Dy2,0.0,-0.0366671,
Li2PtAu,0.0,-0.0366665,
AlInTm2,0.0,-0.0366659,
Se2YTl,0.9247,-0.036665300000000005,
LiRh2Pb,0.0,-0.0366651,
Ni2PdEr3,0.0,-0.0366639,
As2CdPb,0.0,-0.036662799999999995,
Co2In3Tm3,0.0,-0.0366603,
AlMoTa,0.0,-0.0366591,
Ge2RhSn3Dy3,0.0,-0.0366588,
ZnGa2Pa,0.0,-0.0366586,
RuIn2Pr,0.0,-0.0366585,
CaPd2Au,0.0,-0.0366581,
RhSb2,0.0434,-0.0366581,
Pd3Te4Cs2,0.5895,-0.0366573,
Al2Sm3Hg,0.0,-0.0366566,
Mg2SnHg2,0.0,-0.0366563,
Ga5IrPa,0.0,-0.036655700000000006,
Al3EuAu2,0.0,-0.0366555,
ZnRb4Bi2,0.4002,-0.0366554,
AgInNd,0.0,-0.036655299999999995,
NaRb2Hg2,0.0,-0.0366552,
SiZr2Ir,0.0,-0.036655,
GaSe3Pt2,0.0,-0.0366546,
CuRu2Sm3,0.0,-0.0366535,
SiI2Tb2,0.0,-0.0366521,
Al3HoPt2,0.0,-0.0366518,
RbCd3Ir,0.0,-0.0366518,
RbTe4Nd,0.0819,-0.0366518,
Ga3Ta2,0.0,-0.0366514,
Pd2InCe,0.0,-0.036651,
NaSn2Au,0.0,-0.0366507,
SiRhHf,0.0,-0.0366504,
CoY2Pt,0.0,-0.036650100000000005,
Co2SnLu2,0.0,-0.0366497,
H2Sm3Pb,0.0,-0.036648200000000006,
Cu2LaTl,0.0,-0.0366479,
Cd2In2Eu,0.0,-0.036647,
N2SrPa,0.0,-0.0366464,
Se5Sb2Pb2,0.0489,-0.036646200000000004,
PdCdSm,0.0,-0.036646099999999994,
Zn2YAc,0.0,-0.0366458,
Al2Lu3,0.0,-0.0366456,
O4IGdBi2,1.2174,-0.0366455,
Se2TeAu,0.0,-0.036645000000000004,
PSe3Tm4,0.0,-0.036645000000000004,
NZnTm3,0.0,-0.0366445,
Ge3TmOs,0.0,-0.036644199999999995,
SrBa5,0.0,-0.0366437,
AgI2Cs,1.9972,-0.0366434,
AgTe3Cs,0.0482,-0.0366431,
AlTc2Ta,0.0,-0.036642400000000006,
LiSn2Ir,0.0,-0.036642400000000006,
As2SbCe3,0.0,-0.0366414,
Al3Sn2Tm3Ir,0.0,-0.036639200000000004,
Se2PdTl,0.0,-0.036638399999999995,
CoLa3,0.0,-0.036638399999999995,
Ga2RhLa6,0.0,-0.036638199999999996,
Si2CuPu,0.0,-0.036637300000000005,
Na3TbBi2,0.0048,-0.0366369,
NiSe3HfPb,0.0,-0.036636800000000004,
Se4Sm2Pb,1.6735,-0.036636699999999994,
YTe2Cs,1.1634,-0.036636,
AsSeAu,0.0,-0.0366354,
Co2AsAc,0.0,-0.036634900000000005,
GaY2Ir,0.0,-0.036634599999999996,
Al5Ir2Np,0.0,-0.036634599999999996,
NiSb2Nd2,0.0,-0.0366342,
AsLaPr,0.0,-0.0366336,
Li2BaHg2,0.0,-0.0366335,
Sr6PdBi2,0.0,-0.0366334,
PITb2,0.0,-0.0366331,
Al3Ge2Th2,0.0,-0.0366331,
Se3RbHfAu,0.4074,-0.036632899999999996,
CoLu,0.0,-0.0366322,
As2InTl,0.0035,-0.0366321,
Ru2Sb2Cs,0.0,-0.036630699999999995,
Sr2CdAu,0.0,-0.0366301,
NNb3Pt,0.0,-0.0366261,
CaCdHg,0.0,-0.0366261,
GePd2Tb2,0.0,-0.0366256,
Sc3Cu2Tl3,0.0,-0.0366252,
In3Pm,0.0,-0.0366246,
P2NiNp,0.0,-0.036623800000000005,
CSeLu2,0.0,-0.0366237,
As2Au,0.0,-0.0366228,
Rh6Sb4Nd,0.0,-0.0366224,
BNNiPu,0.0,-0.036622100000000005,
GaY2Pt,0.0,-0.0366205,
Cd2Dy,0.0,-0.0366198,
NaPd2Pb,0.0,-0.0366193,
CaIn3Pt,0.0,-0.036617,
FeCo2Lu3,0.0,-0.0366167,
ClTeGd,0.2044,-0.0366165,
O2TeGd2,1.1144,-0.0366156,
Pd5Tm,0.0,-0.036615299999999996,
RbTe4Pr,0.1028,-0.036614600000000004,
HBr2Pa,0.0,-0.036614400000000005,
C2NiPu,0.0,-0.036613999999999994,
Ni2LaAu,0.0,-0.0366135,
B2SrIr2,0.0,-0.0366134,
AlZrPdIr,0.0,-0.0366132,
Sn3Sb4,0.0,-0.0366123,
PSe2Hf2,0.0,-0.0366108,
NiRh2Dy2,0.0,-0.0366107,
BeRu2Os,0.0,-0.0366106,
Si2TmPt,0.0,-0.036608199999999994,
Br2Pt,1.298,-0.0366079,
CoNi2Th,0.0,-0.0366077,
Li2SbAu2,0.0,-0.036606900000000005,
Pd5Eu,0.0,-0.036606099999999996,
PdIn4Er,0.0,-0.0366057,
SSeEu2,0.0,-0.0366055,
Fe2I8Pt,0.234,-0.0366029,
Ag4La3,0.0,-0.0366023,
Ag2Sn2Tb,0.0,-0.0366019,
GaTe2Tm,0.0,-0.036601,
Co2In5Ho4,0.0,-0.0366004,
Pd6Sb4Er,0.0,-0.0365999,
BrTeDy,1.1327,-0.0365987,
KSe2Ac,1.5654,-0.0365985,
GeCe2,0.0,-0.0365979,
Rh6Sb4Pr,0.0,-0.0365975,
Be2CdPt2,0.0,-0.036596899999999995,
CInEr2,0.0,-0.036596899999999995,
Ga5OsPa,0.0,-0.0365966,
CRu2Sn2Er2,0.0,-0.0365954,
Cu2As2Pu,0.0,-0.0365942,
Ag4Sb2Eu,0.0,-0.0365941,
AlPd2Pt,0.0,-0.0365933,
AsLa2,0.0,-0.036593200000000006,
Rh6Sb4La,0.0,-0.036593099999999996,
RhTe2,0.0,-0.0365925,
As2Pd2Pb,0.0,-0.0365924,
CrSb3Er,0.0,-0.036591700000000005,
Sc2I2Pb,0.0,-0.036591500000000006,
PdCd2Er,0.0,-0.036590899999999996,
NiCd2Au,0.0,-0.0365898,
SeI2Ba2,2.5605,-0.0365886,
Al2NbTa2,0.0,-0.0365884,
BAl2HoOs2,0.0,-0.0365875,
CuILu,0.0,-0.036587,
SrIn2Lu,0.0,-0.0365847,
Ni2In3Tm3,0.0,-0.0365841,
AlSc2Os2,0.0,-0.0365838,
GeAgTb2,0.0,-0.0365831,
Rh2Sb2Cs,0.0,-0.036583,
ScAg2Hg,0.0,-0.036583,
Cu2TbHg,0.0,-0.0365829,
ScCd2Au,0.0,-0.036581699999999995,
Al3Sn2Tm3Os,0.0,-0.036581,
Cd2InLa2,0.0,-0.0365806,
RuIn5Tm,0.0,-0.0365793,
Ge2Pt,0.0,-0.036579099999999996,
NSbNd3,0.0,-0.0365788,
P2ZrHf2,0.0,-0.036577399999999996,
Rb2I6Lu,0.0,-0.0365771,
GeNbLu,0.0,-0.036576500000000005,
AgCdTb,0.0,-0.0365762,
BRhTa,0.0,-0.036575699999999996,
AlI3Nd3,0.0,-0.0365754,
OAsLaAu,0.0,-0.0365754,
ZnY6Tl2,0.0,-0.0365752,
SnSb,0.0,-0.0365741,
RhIn5Tm,0.0,-0.0365739,
SiHo2,0.0,-0.0365737,
Rh4InDy,0.0,-0.0365735,
Ag2BaLa,0.0,-0.0365728,
F2La2Pb,0.0,-0.0365717,
Fe2Ho3,0.0,-0.0365717,
Pd8Hf,0.0,-0.036571599999999996,
Al7Ag2Np3,0.0,-0.0365714,
CuNd3,0.0,-0.0365713,
Ga5AuU,0.0,-0.0365711,
GeTe4Dy,0.0,-0.0365706,
Mg5Pb4,0.0,-0.036570500000000006,
AsPd5Pt,0.0,-0.036570399999999996,
LiI2Hg,0.0,-0.036570099999999994,
Ge2CsAu,0.0,-0.0365695,
Ga3Ge2Lu3Au,0.0,-0.0365685,
CaIn2Hg,0.0,-0.036568399999999994,
SiMoHf,0.0,-0.0365683,
Si2Nd2Tl,0.0,-0.036567999999999996,
FeSb2Tm,0.0,-0.0365676,
Pd3Sm,0.0,-0.036567100000000005,
PdIn2Nd,0.0,-0.036567100000000005,
P2ScOs2,0.0,-0.0365654,
RhCdNd,0.0,-0.0365653,
NbI5,0.5588,-0.0365651,
MnCuTe3Tl,0.0,-0.0365645,
AgInPr,0.0,-0.0365643,
Ni2Ge2Pu,0.0,-0.0365637,
CAlHf2,0.0,-0.0365637,
ZrTe4,0.0,-0.0365636,
TcSb2,0.0,-0.0365631,
Pd2InPm,0.0,-0.0365629,
LiP2HoPt2,0.0,-0.0365629,
SeTe2Tb,0.0,-0.0365626,
Ge2PdIn3Er3,0.0,-0.036562399999999995,
PdCdCe,0.0,-0.0365619,
Ge3EuAu,0.0,-0.0365618,
Zr5Ta,0.0,-0.0365616,
NbTe3,0.0,-0.0365612,
HI2Er2,0.0,-0.0365602,
Al2MnHo6,0.0,-0.0365593,
Ni5Pt3,0.0,-0.0365584,
FeZr2Ta,0.0,-0.0365576,
FeRu2Tb2,0.0,-0.036557400000000004,
In6LaCe,0.0,-0.0365568,
Pd3Ce,0.0,-0.036556399999999996,
NaYPb,0.0,-0.0365562,
Ca2MnPt2,0.0,-0.0365561,
ZrTc2Ce,0.0,-0.0365545,
Ag2CdTm,0.0,-0.0365544,
ZnGd,0.0,-0.0365539,
Rh2Te2Cs,0.0,-0.0365539,
Al3Sn2Tm3Pt,0.0,-0.0365537,
CdInCe,0.0,-0.0365535,
TiNiTe3Tl,0.0,-0.03655340000000001,
FeGe3Np,0.0,-0.0365525,
Cd3Eu,0.0,-0.036551600000000004,
CuPd2Hf,0.0,-0.036551099999999996,
GaLu,0.0,-0.036551099999999996,
FeY2Os,0.0,-0.0365506,
Al2FeHo6,0.0,-0.036550400000000004,
BRh6Lu2,0.0,-0.0365503,
Se2IAu,0.0,-0.036549399999999996,
NiSnLu,0.0,-0.0365492,
S3SnPb2,0.1971,-0.036548000000000004,
Ga5PtPa,0.0,-0.0365467,
AsRhTm,0.0,-0.036546100000000005,
SiPd5Bi,0.0,-0.03654569999999999,
Ga3Dy2Re,0.0,-0.0365456,
NiRuTb2,0.0,-0.036545,
CuIn3Er2,0.0,-0.0365442,
Al3DyIr2,0.0,-0.036543900000000004,
Ag2TeBa2,0.0,-0.0365437,
RhTe2I,0.0,-0.0365437,
CSi2Ba2Os2,0.0,-0.0365434,
BeRu2Ir,0.0,-0.0365432,
CSi2DyW2,0.0,-0.0365424,
NiY2Tl,0.0,-0.0365415,
MgSnTm2,0.0,-0.0365414,
ZnZr2Au,0.0,-0.0365411,
PdIn3Sn2Ba3,0.0,-0.036541,
YIn2Ho,0.0,-0.0365409,
NSnDy2,0.0,-0.0365389,
Ga2Ho3,0.0,-0.03653820000000001,
AgSbCs2,1.116,-0.036537999999999994,
Ge2Tb3,0.0,-0.0365375,
Co2NiLu3,0.0,-0.036536099999999995,
Cu2Ba2Tl,0.0,-0.036534199999999996,
CNb2Hg,0.0,-0.0365336,
KAgTe3Hf,0.0505,-0.0365332,
Si2In3Nd3Ir,0.0,-0.0365331,
S2DyTl,1.4287,-0.0365324,
NiRhTb2,0.0,-0.0365323,
Se3CsSmHg,1.3162,-0.0365313,
CuPdDy2,0.0,-0.0365312,
GeRuEu,0.0,-0.036530700000000006,
Br2SnEr2,0.0,-0.036530099999999996,
NaHg,0.0,-0.0365298,
OZnTm3,0.0,-0.0365297,
NaAs2Rh2U,0.0,-0.036529000000000006,
NiSb2Pr2,0.0,-0.0365285,
SiZr2Pt,0.0,-0.0365281,
GeI2Ba3,0.0,-0.0365279,
ScZn2Au2,0.0,-0.0365276,
Si2NbHf2,0.0,-0.036527500000000004,
SiRu2Hf,0.1955,-0.036527000000000004,
Se2SbHg,0.0,-0.0365268,
SiRu3Er2,0.0,-0.036526,
In3Nd,0.0,-0.0365257,
Al5Pt2Np,0.0,-0.0365247,
Al2LuIr,0.0,-0.0365244,
LiSiTh,0.0,-0.0365244,
Si2PdHf2,0.0,-0.036524299999999996,
LiP2DyIr2,0.0,-0.0365242,
Pd2Te3Cs,0.3168,-0.036524,
In6Eu,0.0,-0.0365237,
NY2Pb,0.0,-0.0365231,
As2Rh2Tl,0.0,-0.0365231,
ZrI4,1.6371,-0.036523,
Ge2PdSn3Dy3,0.0,-0.0365225,
RhAg2Dy,0.0,-0.036522,
CaRh2Ta,0.0,-0.0365219,
CI2Tb2,0.2168,-0.0365213,
MgGa2Ir2,0.0,-0.0365202,
NZr3Pb,0.0,-0.0365201,
Al2CoHo6,0.0,-0.0365199,
LiAs2Pd2Np,0.0,-0.036518999999999996,
OAsPrAu,0.0,-0.0365185,
Cu2LaPt,0.0,-0.0365185,
LiFeHf2,0.0,-0.036518300000000004,
CuAs2Sm6,0.0,-0.0365179,
CSbDy2,0.0,-0.036517600000000004,
Be2YIr2,0.0,-0.0365175,
YAgLa2,0.0,-0.036515900000000004,
Sr2AgHg,0.0,-0.0365156,
K2RbTl2,0.0,-0.036515500000000006,
ScPm3,0.0,-0.0365152,
SiZrTa,0.0,-0.0365152,
N2Pr2Pt,0.0,-0.036515099999999995,
N2ScNp,0.0,-0.036515099999999995,
RhSn5Ba,0.0,-0.0365135,
AgInLa,0.0,-0.0365135,
GeTeEr,0.0,-0.036513399999999994,
Ni2In5Ho4,0.0,-0.036513199999999996,
SeSbDy,0.0,-0.0365127,
Co2Sn7Ho3,0.0,-0.0365127,
AgTe2Cs,0.0,-0.0365126,
CoSb2Tm,0.0,-0.0365125,
CuPdInHf,0.0,-0.036511,
BeRu2Re,0.0,-0.0365104,
Sr2Pd2Au,0.0,-0.0365103,
ClIn2Au,0.0,-0.036510100000000004,
LiSn4Ir,0.0,-0.0365081,
Zn2GaAu2,0.0,-0.036507899999999996,
Br2I2Ta,0.8651,-0.0365078,
O2BrHgBi,1.7722,-0.036507399999999995,
RbTe2Sm,1.1035,-0.036507399999999995,
CoSn2Lu,0.0,-0.036507,
NiSb2La2,0.0,-0.0365064,
CMo2Sn2Er2,0.0,-0.0365062,
SeRhLa2,0.0,-0.03650610000000001,
PNbHf,0.0,-0.036505499999999996,
Si2MnNp,0.0,-0.0365051,
MgRh2Tl,0.0,-0.0365049,
B2CDyIr2,0.0,-0.0365041,
KCdPt,0.0,-0.0365039,
Se2Au,0.0,-0.0365013,
NGaEr3,0.0,-0.0365006,
ZnSrTl,0.0,-0.0364992,
PCu2Pt2,0.0,-0.0364991,
ZnSb4Nd2,0.0,-0.0364991,
CIDy2,0.0,-0.0364978,
N2La2Pt,0.0,-0.0364973,
Mo3Te4,0.0,-0.0364969,
O2Cl2HgPb2,2.2053,-0.0364959,
Se2TeHg,0.2108,-0.0364951,
BGa2Ru2Np,0.0,-0.036494700000000005,
Ga3Tb2Ir,0.0,-0.0364937,
Sn4Cs,0.0,-0.0364924,
HGaGeNp,0.0,-0.0364916,
N2Tm3,0.0,-0.0364914,
NbI4,0.2087,-0.0364901,
B2CHoPt2,0.0,-0.036489100000000003,
NiY2Pt,0.0,-0.0364889,
MnGePt,0.0,-0.0364889,
Ti6IrBi2,0.0,-0.036488799999999995,
SiCo2Pa,0.0,-0.0364887,
Cu2ZnAu2,0.0,-0.0364885,
Si2FeNp,0.0,-0.036487900000000004,
Pd2InNd,0.0,-0.0364878,
Y3In5Ir,0.0,-0.0364875,
ZnAg2Tb3,0.0,-0.0364859,
ZnAsPb,0.0,-0.0364859,
Pd6Sb4Ho,0.0,-0.0364851,
GaRh2Tb2,0.0,-0.036485,
Ca2MnIr2,0.0,-0.0364846,
Li3ErBi2,0.0,-0.036484499999999996,
CuSb2Eu,0.0,-0.036484499999999996,
Se6Ta2Au,0.0,-0.0364841,
AlI3Pr3,0.0,-0.036484,
Ni2SnLu2,0.0,-0.0364827,
Sc5Ir3,0.0,-0.036482,
GeSnPm2,0.0,-0.036481099999999995,
CuSrPt,0.0,-0.0364809,
BeAlTa2,0.0,-0.0364799,
CCdTm2,0.0,-0.0364799,
Ag2SnTe4Ba,0.0,-0.036479500000000005,
Sn4Sb3,0.0,-0.036479399999999995,
B2SrOs2,0.0,-0.0364789,
BrRuTm,0.0,-0.036477600000000006,
GaRu2Tb2,0.0,-0.036477499999999996,
Cu2RuEr3,0.0,-0.0364772,
NiY2Ir,0.0,-0.0364769,
Be2YPt2,0.0,-0.0364763,
Pd4Dy,0.0,-0.0364745,
GaPd2Dy2,0.0,-0.0364741,
In2SbBa,0.0,-0.0364733,
AlI3La3,0.0,-0.0364732,
Al2LuPt,0.0,-0.0364731,
Si4Pt3,0.0,-0.036473,
NaAg2Bi,0.0,-0.0364728,
Pd4Sn4Ba3,0.0,-0.0364726,
Ga2Sn2Bi,0.0,-0.036471899999999995,
MoSb2,0.0,-0.0364713,
SiRh3Er2,0.0,-0.0364705,
NAgEr2,0.0,-0.0364698,
Mg2AgAu2,0.0,-0.0364688,
Ag2Ba3,0.0,-0.036468099999999996,
Cl4Tl3,0.0,-0.036468099999999996,
ZrRh2Sm,0.0,-0.036466,
AlRh2Hg,0.0,-0.036465899999999996,
S2RbPa,0.0,-0.036465899999999996,
GeRh2Lu,0.0,-0.0364658,
O3Cs2Pb2,1.6151,-0.0364657,
Al2NiHo6,0.0,-0.0364653,
Ga3Tb2Os,0.0,-0.0364644,
CoY2Os,0.0,-0.0364639,
AlEr2,0.0,-0.0364635,
RhCdPr,0.0,-0.036462800000000004,
MgTi2Pt2,0.0,-0.036462299999999996,
Pd7Gd,0.0,-0.0364621,
P2La2Re,0.0,-0.0364621,
Si4Sr3Ir4,0.0,-0.0364619,
In3Pr,0.0,-0.0364619,
NiLa3,0.0,-0.0364606,
TiMo4Hf,0.0,-0.036460299999999994,
SeRuLa2,0.0,-0.0364597,
Si2Pr2Tl,0.0,-0.0364596,
Ga2BaIr,0.0,-0.0364593,
ZnAg2Au,0.0,-0.036459000000000005,
YCd2Lu,0.0,-0.0364588,
Ga2I8Pt,1.6626,-0.036458700000000004,
MnSb2Er,0.0,-0.036458599999999994,
PdIn2La,0.0,-0.0364583,
InSbTe2,0.0,-0.0364578,
NiSe3TaTl,0.0,-0.036456800000000004,
GaPdTb2,0.0,-0.036456699999999995,
ScPd2Hf,0.0,-0.036456699999999995,
Rh2Sn2Ba,0.0,-0.0364564,
Al3DyPt2,0.0,-0.036456,
GaRh2Gd,0.0,-0.036455100000000004,
Sc5Tl3,0.0,-0.0364547,
Rh4CdEr,0.0,-0.0364543,
CHo2,0.0,-0.036454,
Sr2Rh2Hg,0.0,-0.0364531,
Fe2ZnTh,0.0,-0.036453000000000006,
CuInDy2,0.0,-0.036452899999999996,
Ga2BaPt,0.0,-0.036452399999999996,
Sc3In3Pt2,0.0,-0.036452399999999996,
Sc3In3Ir2,0.0,-0.0364514,
PdIn2Pr,0.0,-0.0364512,
Rh5Dy,0.0,-0.0364511,
Pd2CdTb,0.0,-0.036450899999999994,
KIn2Au,0.0,-0.0364504,
ScSbLu,0.0,-0.0364502,
SeBrAu,1.1408,-0.0364485,
Pd2In7Pr3,0.0,-0.0364481,
NiSbEu,0.0,-0.0364473,
Zr7Pb,0.0,-0.0364468,
Al2YHg2,0.0,-0.0364465,
ZnRuDy2,0.0,-0.0364462,
Ga3RuSn2Lu3,0.0,-0.0364458,
Ti6OsBi2,0.0,-0.0364456,
CuRu2Dy2,0.0,-0.0364445,
Se2SnAu,0.0,-0.036443500000000004,
MgCd2Er3,0.0,-0.0364418,
GeCeNd,0.0,-0.0364418,
MnRbTe3Hf,0.0,-0.0364412,
ZnSb4La2,0.0,-0.0364404,
YRu2Tb,0.0,-0.0364401,
CuRh2Dy2,0.0,-0.0364398,
CaRbTe3Pt,0.0,-0.0364393,
CoPdTb2,0.0,-0.0364369,
Ge2Re,0.0,-0.036436,
GeNb6Pt,0.0,-0.0364356,
LiTe2Ta,0.5893,-0.0364356,
NaInPt,0.0,-0.0364354,
ScIn5Ir,0.0,-0.0364349,
Pd3Pm,0.0,-0.0364348,
Si2In3Pr3Ir,0.0,-0.0364337,
O4EuHg3,0.0,-0.0364334,
LiSb2Hg,0.0,-0.0364331,
AlRh2Ta,0.0,-0.0364329,
NiRbTe3Ta,0.0,-0.0364327,
BePdPt,0.0,-0.0364312,
NInHo2,0.0,-0.0364293,
FeGeIr,0.0,-0.0364293,
Si2ScIr2,0.0,-0.0364292,
ZnRhDy2,0.0,-0.036428800000000004,
Si2CoNp,0.0,-0.036428199999999994,
KCu2Sb2U,0.0,-0.0364276,
Se2Ta,0.0,-0.0364258,
RhCdLa,0.0,-0.0364257,
Al2Dy2Hg,0.0,-0.0364253,
FeSe3HfTl,0.0,-0.0364253,
AlAgAu,0.0,-0.0364251,
InTe3,0.0,-0.036425,
Ga2Pd4Tm3,0.0,-0.0364249,
S2NiTl2,0.0,-0.0364242,
Rh3SnBa2,0.0,-0.0364239,
MgInAu,0.0,-0.0364238,
Co2I8Pt,0.0,-0.0364233,
ZnRu2Sm3,0.0,-0.0364232,
RhCd2Ho,0.0,-0.0364226,
CuZr2Hg,0.0,-0.0364223,
O2La2Au,0.0,-0.0364223,
ZnRh2Sm3,0.0,-0.0364216,
ClIn3Pt,0.0058,-0.0364204,
Cu2CdTm3,0.0,-0.0364204,
Cu2Te3Pb,0.0,-0.0364201,
AlYOs,0.0,-0.0364198,
Be2TaW,0.0,-0.0364195,
Ti6PtBi2,0.0,-0.036418799999999994,
SGd,0.0,-0.0364181,
Na2InAu2,0.0,-0.0364179,
Se4Nd2Pb,1.6875,-0.0364171,
Se5In2Bi2,0.0,-0.036417000000000005,
Zn3Pd2Pu,0.0,-0.0364164,
O2ErTl,1.4088,-0.0364155,
GeRhEu,0.0,-0.0364148,
Br2SbHo2,0.0,-0.0364143,
BRh3Tl,0.0,-0.0364138,
Ag4Lu,0.0,-0.0364137,
InI3,1.3725,-0.036412999999999994,
Zn2TbAu,0.0,-0.036412599999999996,
ZnRu2Ce3,0.0,-0.036412,
In3La,0.0,-0.036411400000000003,
CaAg2Tl,0.0,-0.036411400000000003,
ClIn3Ir,0.0,-0.036411299999999994,
RbCd3Au,0.0,-0.0364107,
Pd4CdEu,0.0,-0.0364101,
B4Mg2Ir5,0.0,-0.0364099,
Pd2InPr,0.0,-0.0364097,