formula,bg,formation_energy,mp-id
AgTe4Au,0.0,-0.0416985,
Co2Dy3Au,0.0,-0.0416973,
CoGe2Pu,0.0,-0.0416969,
LiPr2Pb,0.0,-0.0416957,
BeSiPu,0.0,-0.0416956,
Be2Hf2Ir,0.0,-0.0416956,
AlPrIr,0.0,-0.0416946,
Sc2InPt2,0.0,-0.041694499999999995,
Te3Sm2,0.3163,-0.0416943,
Cd3Pb,0.0,-0.0416937,
LiPPu,0.0,-0.0416924,
ClMnTh,0.0,-0.0416924,
N2Lu2Pt,0.0,-0.0416922,
OClU,0.0,-0.0416916,
Rh4CeHg,0.0,-0.0416907,
MnTe2Tl,0.0,-0.0416901,
BeTiIr2,0.0,-0.0416892,
AlNiPa,0.0,-0.04168910000000001,
CuEr3,0.0,-0.0416865,
ZnTe2Tb6,0.0,-0.0416865,
Al2BaPb2,0.0,-0.0416863,
As2PdHo6,0.0,-0.041686,
SrRh2Pb,0.0,-0.041685400000000004,
AlCuPt2,0.0,-0.041685400000000004,
Sb2PrNd,0.0,-0.0416848,
Mn2HfTa,0.0,-0.0416841,
AlPrPt,0.0,-0.0416838,
AgInGd,0.0,-0.0416825,
MnGeTe4Tl2,0.0,-0.0416824,
AlSb2Dy6,0.0,-0.0416821,
NaPrPb,0.0,-0.041681800000000005,
Zn2Sb2Np,0.0,-0.041681600000000006,
Mo2Lu,0.0,-0.0416808,
Si2RhPu,0.0,-0.0416802,
ClFeTh,0.0,-0.041679900000000006,
OInEu3,0.0,-0.041679,
RuInLu,0.0,-0.0416787,
Pd4TbHg,0.0,-0.0416773,
N3WNp,0.0,-0.0416771,
AlZnU,0.0,-0.041677,
NiYBi,0.2085,-0.0416753,
MgZr2Au2,0.0,-0.0416751,
SSeHg2,0.0183,-0.0416739,
AsTeTa,0.0,-0.041673,
NiSe2Tm6,0.0,-0.0416723,
Cu2SnPa,0.0,-0.041671999999999994,
AsPdIr,0.0,-0.0416719,
PCsPb,0.6383,-0.041671799999999995,
CGeGd3,0.0,-0.0416708,
Ge2Rh3Np,0.0,-0.04167,
GeNbOs,0.0,-0.04167,
Zn2SrBi2,0.0,-0.0416684,
MnSn2Tb6,0.0,-0.0416672,
CaY2Au2,0.0,-0.0416662,
LiSn2Ac,0.0,-0.0416661,
YIn2Au,0.0,-0.041665799999999996,
NaLaPb,0.0,-0.0416633,
MgIn2Hg2,0.0,-0.041663200000000004,
MgFeIr2,0.0,-0.041662700000000004,
RuSbEr,0.0,-0.0416626,
AsSbTm2,0.0,-0.0416625,
Pd2Sn2Au,0.0,-0.041662399999999995,
CaCu2Au3,0.0,-0.0416617,
Rh2CdHo3,0.0,-0.0416613,
Ga5Pt2Np,0.0,-0.0416606,
AlFeTaIr,0.0,-0.0416597,
Rh2PrEu,0.0,-0.0416595,
YPdInAu,0.0,-0.0416594,
B2TbIr2,0.0,-0.041658900000000006,
Zn2Lu2Hg,0.0,-0.041658499999999994,
PdCd2Tl,0.0,-0.0416584,
ZnLu2,0.0,-0.041658099999999997,
Ge2Lu3,0.0,-0.0416558,
SiTe3Er4,0.0,-0.0416551,
MgGaU,0.0,-0.0416551,
PAsHg2,0.0,-0.0416537,
MgY2Tl2,0.0,-0.0416528,
ZnTcGd2,0.0,-0.0416517,
AlMnAu2,0.0,-0.0416515,
GaSn2Bi,0.0,-0.041651200000000006,
Sn2PmDy,0.0,-0.041650799999999995,
Al2SrAu3,0.0,-0.0416507,
RuSb2La6,0.0,-0.041650599999999996,
Ge2Ho2Hg,0.0,-0.0416501,
In5ErIr,0.0,-0.04164929999999999,
NaBaBi,0.3106,-0.0416488,
I3Er,2.8081,-0.041647399999999994,
Zr6CdBi2,0.0,-0.0416473,
Na2BaBi2,0.0,-0.041646999999999997,
CdSnHo2,0.0,-0.0416468,
Ag2EuHo,0.0,-0.0416467,
CdInEr2,0.0,-0.0416466,
MgHo5,0.0,-0.041645499999999995,
SiErHf,0.0,-0.0416454,
Ru2PdDy3,0.0,-0.0416452,
CaTl,0.0,-0.041644799999999996,
Pd8Pu,0.0,-0.0416442,
Ni2InPa,0.0,-0.041643900000000005,
AlLaIr,0.0,-0.0416434,
BeFeIr2,0.0,-0.0416425,
SbTeTb,0.0,-0.0416423,
ZrRu2Hf,0.0,-0.041640500000000004,
Pd7Pa,0.0,-0.0416396,
AgLa7,0.0,-0.0416392,
C2SnHf3,0.0,-0.0416387,
Rh4SmHg,0.0,-0.0416375,
Be2Hf2Os,0.0,-0.0416363,
BScPt2,0.0,-0.0416352,
Mn2InTh,0.0,-0.0416351,
ZrTe4Ta,0.0,-0.0416348,
BeMnPt2,0.0,-0.0416336,
SrIn2Pb,0.0,-0.041633,
PdTe2La6,0.0,-0.0416327,
Ni2Er2Tl,0.0,-0.0416326,
ZnBa2Tl,0.0,-0.041632300000000004,
KTe3LuHg,0.7478,-0.041631999999999995,
Zr2RuHg,0.0,-0.0416318,
I6Cs2Pt,0.3509,-0.0416315,
Zr6RuPb2,0.0,-0.0416312,
RhSb2La6,0.0,-0.0416307,
In2NdEu,0.0,-0.0416298,
Ag2ErTm,0.0,-0.041628399999999996,
CaTe3TmAu,0.4345,-0.041628,
Zr2TcHg,0.0,-0.0416276,
Ga3Hf2Ir,0.0,-0.0416275,
ZnInGd2,0.0,-0.0416274,
K2AuBi,0.9068,-0.0416272,
Ti2AgPt2,0.0,-0.04162660000000001,
B2TbOs2,0.0,-0.0416263,
Co2YU,0.0,-0.0416261,
Ga2AgTl2,0.0,-0.0416256,
NiAs2Tm6,0.0,-0.041624299999999996,
ZnSb2Tb6,0.0,-0.0416241,
SbPr,0.0,-0.0416239,
CdTb2,0.0,-0.0416228,
ISm,0.0,-0.0416215,
LiSmPb,0.0,-0.0416214,
ClBrAu2,0.0582,-0.0416203,
AlLaPt,0.0,-0.0416201,
GaCdGd2,0.0,-0.0416188,
FeSn2Tb6,0.0,-0.0416186,
Ca2HgPb,0.0945,-0.041618499999999996,
GeTe3Dy4,0.0,-0.041616999999999994,
GaCdBi,0.0,-0.0416169,
Se2DyTl,0.9147,-0.0416161,
Rh2NdTm,0.0,-0.041615400000000004,
Ga2HfAu,0.0,-0.041615200000000005,
SnTe3Pr4,0.0,-0.0416145,
Rh2PdDy3,0.0,-0.0416144,
Rh2SbGd,0.0,-0.0416134,
Zn2DyAc,0.0,-0.041613300000000006,
AlZnIr2,0.0,-0.041613199999999996,
LiLa2Pb,0.0,-0.0416131,
NiTa,0.0,-0.041613,
Ga3Tb2Ir2,0.0,-0.041612699999999996,
GeTm2,0.0,-0.0416125,
Sc4Fe2Tl5,0.0,-0.0416121,
S2CsU,0.0,-0.0416113,
Rh2CdTa,0.0,-0.0416111,
RhSbEr,0.0,-0.0416106,
Pd2CdAu,0.0,-0.0416105,
RhAg2Pt,0.0,-0.041609600000000004,
I6Cs2Ir,0.0,-0.0416094,
ZnAu,0.0,-0.041609,
NaIn2Hg2,0.0,-0.0416088,
Be2Hf2Pt,0.0,-0.0416073,
CdLa7,0.0,-0.0416072,
KRbHg2,0.0,-0.0416072,
SbLa,0.0,-0.0416069,
I6Cs2Re,0.5562,-0.0416068,
PdSb2Pr6,0.0,-0.0416061,
RuCe2,0.0,-0.0416051,
ZnIn5Pu,0.0,-0.041604999999999996,
RuNd3,0.0,-0.0416044,
GeHf,0.0,-0.041603900000000006,
SiZnPt2,0.0,-0.041603,
Se3BaPa,0.0,-0.0416027,
Y3In3Pt2,0.0,-0.0416025,
Ag2TbLu,0.0,-0.0416005,
N2BaU,0.0,-0.041600200000000004,
I6Cs2Os,0.0,-0.041600200000000004,
COU,0.0,-0.0415969,
Fe2HfTa,0.0,-0.0415965,
Ru2CeEr,0.0,-0.0415959,
AlLaTl,0.0,-0.041593899999999996,
CuBa2Pt,0.0,-0.0415935,
In5ErPt,0.0,-0.0415923,
PdSnEu,0.0,-0.0415907,
Ge6TmIr4,0.0,-0.0415903,
Cd2InTl,0.0,-0.0415899,
Ga2Tm2Hg,0.0,-0.0415895,
AgSbEu,0.0,-0.0415892,
BePPb2,0.0,-0.041588700000000006,
Pd2PmEu,0.0,-0.041588299999999995,
Co2Dy2Pb,0.0,-0.0415878,
Zr6RhPb2,0.0,-0.0415865,
Rh2PdHf,0.0,-0.0415858,
RhNd3,0.0,-0.0415856,
CoIn5Np,0.0,-0.0415856,
BrTe2Ir,0.0,-0.0415853,
Zr7Bi2,0.0,-0.0415851,
NOBa6Pb2,0.0,-0.041584,
Ag2Cs2Au,0.0,-0.041583100000000005,
Co2Tm2Hg,0.0,-0.0415825,
Ag2NdGd,0.0,-0.0415818,
Zn2TaIr,0.0,-0.0415803,
FeIn2Dy6,0.0,-0.0415796,
Zn2BaAu2,0.0,-0.041579099999999994,
P2BaOs2,0.0,-0.041579099999999994,
NI2Gd2,0.0,-0.041579,
YCd2Pb,0.0,-0.041578699999999996,
Al3Ta4,0.0,-0.0415783,
Te2CsDy,1.1347,-0.041578000000000004,
In2TbEr,0.0,-0.041577199999999995,
Cd2Sn2Pb,0.0,-0.0415742,
Sc3Rh2Tl3,0.0,-0.041572899999999996,
MgFePt2,0.0,-0.0415715,
Cu2CdHf3,0.0,-0.041571,
Sb2Dy,0.0,-0.0415691,
CoAs2Np,0.0,-0.0415689,
Ga3GdAu2,0.0,-0.0415688,
Se4Cs2Pt3,1.207,-0.0415684,
SnPr2,0.0,-0.041567799999999995,
Pd2AgAu,0.0,-0.0415675,
MgEu3,0.0,-0.0415674,
Fe2In5Hf4,0.0,-0.0415668,
In5ErOs,0.0,-0.0415664,
In2PrEu,0.0,-0.0415657,
Ga2RuEr6,0.0,-0.041565399999999995,
Fe2InTh,0.0,-0.0415646,
LiSrAu2,0.0,-0.0415636,
Zr2InAu,0.0,-0.0415631,
CPr2Hg,0.0,-0.0415627,
Zn2Er3Hg,0.0,-0.0415619,
Ge2Tb2Tl,0.0,-0.0415607,
SrAgAu,0.0,-0.0415605,
NInEu3,0.0,-0.0415602,
NaCu2LuBi2,0.0,-0.04156,
MgTcHf2,0.0,-0.0415569,
RuSm2,0.0,-0.041555999999999996,
LiPd2Th,0.0,-0.0415552,
H2Hf2Os,0.0,-0.0415552,
Mo3Te3Tl,0.0,-0.0415541,
Cd2Sb2Tl,0.0,-0.041552700000000005,
Ca2LaPt2,0.0,-0.0415514,
Zr2AgOs,0.0,-0.0415512,
Cd2SbHg,0.0,-0.0415505,
FeAsHf2,0.0,-0.0415501,
BrTe2Pt,0.0,-0.041549300000000004,
CdTm,0.0,-0.0415484,
Ge2Ru2Th,0.0,-0.041548299999999996,
Te4Nd3,0.0,-0.041548,
Ga2RhEr6,0.0,-0.0415475,
MgDyAu,0.0,-0.0415475,
HClPu,0.0,-0.0415472,
Ni2SnTh,0.0,-0.041546999999999994,
CoIn2Dy6,0.0,-0.0415469,
GePdLu2,0.0,-0.041545900000000004,
CoSn2Tb6,0.0,-0.041545,
Se2TmAu,0.2515,-0.041544899999999996,
RhLa4,0.0,-0.0415439,
Y3In3Ir2,0.0,-0.041541299999999996,
LiPd2Sb2U,0.0,-0.0415411,
Ge2YAu2,0.0,-0.041540999999999995,
C5Ta6,0.0,-0.041539700000000006,
AgIn2Hg,0.0,-0.0415396,
RuPdDy2,0.0,-0.0415396,
RhSnTm,0.0,-0.041539099999999995,
YRu2Ta,0.0,-0.0415383,
AsIn2Bi,0.0652,-0.041538200000000004,
AlBaPb,0.0,-0.041535499999999996,
InI2Dy2,0.0,-0.0415342,
Al2HoAu2,0.0,-0.041533900000000006,
ZnAs2Pu,0.0,-0.0415329,
Mn2In5Hf4,0.0,-0.0415327,
Ga2SnAu2,0.0,-0.0415315,
BeTcHf2,0.0,-0.0415282,
Zn2RuU,0.0,-0.0415279,
AlNdOs,0.0,-0.0415271,
RhPdDy2,0.0,-0.0415267,
AgI6Cs2Bi,0.7013,-0.041526200000000006,
AgCdHf,0.0,-0.041526099999999996,
Se2RbPa,0.0,-0.0415257,
NiAgGd2,0.0,-0.0415251,
SeAgTl,0.3727,-0.041525,
CoIn6Bi2,0.0,-0.041524900000000003,
Sc2SnAu2,0.0,-0.041523000000000004,
Ga2AgIr2,0.0,-0.041522500000000004,
RuIEr,0.0,-0.0415224,
Ag3Tl,0.0,-0.041520299999999996,
RuSnTm,0.0,-0.041519799999999996,
Zr5Th,0.0,-0.0415196,
PCuTh,0.0,-0.0415195,
Al3Si2MnU3,0.0,-0.041518700000000006,
Pd2InTm2,0.0,-0.0415185,
MgNd2Tl,0.0,-0.0415182,
CaScAu2,0.0,-0.0415174,
Sn2CeTb,0.0,-0.0415165,
RbI3Tl,0.0,-0.0415158,
Al3FeU2,0.0,-0.0415156,
As2SrPt2,0.0,-0.0415151,
Rh2SmEr,0.0,-0.041514699999999995,
Ge4Pt3,0.0,-0.0415139,
Ga2RuTh,0.0,-0.041512799999999996,
MgKPb2,0.0,-0.0415123,
PBaTl,1.1547,-0.0415113,
Sc4Co2Tl5,0.0,-0.041511000000000006,
PdSb2La6,0.0,-0.041510899999999996,
Rh2PrTm,0.0,-0.0415085,
Be2Hf2Tl,0.0,-0.0415085,
Ag2PrGd,0.0,-0.041507300000000004,
RuAgHo2,0.0,-0.0415066,
Zr2AgIr,0.0,-0.0415062,
Se4SnHgTl2,0.3472,-0.0415057,
ZnPd2Hf2,0.0,-0.041505,
Rh2TbDy,0.0,-0.0415046,
SrSn2Au,0.0,-0.0415042,
Te3Er,0.0,-0.0415041,
CGe2Tb2Os2,0.0,-0.041504,
Sb3Te6Bi,0.0662,-0.041503399999999996,
N2ZrPu,0.0,-0.0415033,
Zr2PdAu,0.0,-0.041503,
GeNbPt,0.0,-0.041501800000000005,
AgSnLu,0.0,-0.041501800000000005,
N2SmTh,0.0,-0.0414998,
Al3Si2FeU3,0.0,-0.041499499999999995,
In2DyHo,0.0,-0.0414994,
MgY2Ir2,0.0,-0.0414959,
ClCoTh,0.0,-0.041495699999999996,
AlGeTh,0.0,-0.0414951,
RhSm2,0.0,-0.0414948,
Pd2In5Th,0.0,-0.0414931,
N3Hf4,0.0,-0.0414923,
AlLa2Au,0.0,-0.041492100000000004,
CoAsHf2,0.0,-0.0414914,
NiIn2Dy6,0.0,-0.0414907,
HLa3Tl,0.0,-0.0414895,
Ge2La2Bi,0.0,-0.0414892,
Ti2CdPt2,0.0,-0.0414889,
NiSn2Tb6,0.0,-0.0414884,
Co2Sb2Th,0.0,-0.0414878,
ZnCs2Pb,0.4416,-0.0414875,
YRh2Hg,0.0,-0.0414872,
NiZrPb,0.3772,-0.041487,
N2CeTh,0.0,-0.041485999999999995,
AlPm2Hg,0.0,-0.0414857,
Pd2Sn3Er3,0.0,-0.041484499999999994,
Pd2SnEr2,0.0,-0.0414839,
SiNiTh,0.0,-0.0414809,
Co2In5Hf4,0.0,-0.0414801,
NiIn6Bi2,0.0,-0.041479300000000004,
SbINd2,0.0,-0.041479,
B2N4U3,0.0,-0.041478,
SrPd2Pb,0.0,-0.0414777,
RuPd2Dy3,0.0,-0.0414767,
Si3IrU,0.0,-0.0414762,
RhAgHo2,0.0,-0.0414734,
In5TmAu,0.0,-0.0414731,
GeInIr,0.0,-0.0414731,
Ru2SmEr,0.0,-0.041472999999999996,
AlSmAu,0.0,-0.041472499999999995,
Cr2In5Hf4,0.0,-0.0414713,
CuTe2Pb,0.0,-0.0414712,
MnSr2Pt2,0.0,-0.041470999999999994,
NaPd2Hg2,0.0,-0.041470599999999996,
RhCe2,0.0,-0.0414695,
RuSn2Nd6,0.0,-0.0414677,
AgTe3CsHf,0.158,-0.0414677,
In5HoIr,0.0,-0.0414676,
Rh4NdHg,0.0,-0.041467500000000004,
Cd2InPt,0.0,-0.0414665,
H2Hf2Ir,0.0,-0.0414644,
CGe2Dy2Re2,0.0,-0.0414643,
MgY2Pt2,0.0,-0.041463599999999996,
LiCaPb2,0.0,-0.041463299999999995,
Ti2YIr2,0.0,-0.0414629,
I2Tb,0.0,-0.0414626,
Mg2LaPb2,0.0,-0.0414623,
P2BaIr2,0.0,-0.0414608,
Cu2In2Pu,0.0,-0.0414603,
NaCd2Pt2,0.0,-0.041460000000000004,
Ru2TbDy,0.0,-0.041460000000000004,
CoZrPb,0.0,-0.0414594,
MgGePa,0.0,-0.0414579,
Ge6ErIr4,0.0,-0.0414576,
TcLa4,0.0,-0.0414571,
Se3SbLu4,0.0,-0.0414566,
SeEr2,0.0,-0.041455399999999996,
Rh2CeEr,0.0,-0.0414551,
Zr2AgTl,0.0,-0.041455,
K2TlPb,0.0,-0.041454099999999994,
NbMo2Hf,0.0,-0.041453699999999996,
CuBa2Ir,0.0,-0.0414525,
Ga2CdTl2,0.0,-0.041451999999999996,
YPd2Au,0.0,-0.041451,
Ag2LaGd,0.0,-0.0414502,
CAsTa2,0.0,-0.0414499,
SLu2,0.0,-0.0414482,
Cd2SmGd,0.0,-0.0414474,
Al2SmPt2,0.0,-0.041444800000000004,
AlCrW2,0.0,-0.0414442,
NiBa2Au,0.0,-0.0414437,
Si2Lu2Ir,0.0,-0.041442799999999995,
Ga2YIr2,0.0,-0.0414421,
Fe2Ho2Tl,0.0,-0.041440399999999995,
Ag2InAu,0.0,-0.041440399999999995,
RhIn3Tl,0.0,-0.0414383,
GaSnPt,0.0,-0.0414382,
CSi2Lu2Os2,0.0,-0.0414377,
NFBa6Pb2,0.0,-0.041437600000000005,
Ni2Dy3Au,0.0,-0.0414369,
NGaGd3,0.0,-0.041436799999999996,
Ga2AgPt2,0.0,-0.0414366,
BeFePt2,0.0,-0.0414366,
MgGaIr2,0.0,-0.0414365,
RhIEr,0.0,-0.0414363,
AlMnW2,0.0,-0.041436,
RbInAu,0.0,-0.0414358,
CrMoRe,0.0,-0.0414346,
Fe2GePu,0.0,-0.041434399999999996,
InNd3,0.0,-0.0414331,
Sc4Ni2Tl5,0.0,-0.041433,
TeILa2,0.0,-0.0414328,
Ca2InPb2,0.0,-0.041429900000000006,
Al3Si2CoU3,0.0,-0.0414297,
Pd2AgHg,0.0,-0.041427900000000004,
Cd2InIr,0.0,-0.0414261,
Zr3Ir,0.0,-0.041425699999999996,
MgSrHg2,0.0,-0.041424300000000004,
Zr6PdPb2,0.0,-0.0414232,
Cd5Th,0.0,-0.041422600000000004,
P2CeAu2,0.0,-0.0414217,
CClU,0.0,-0.041421599999999996,
Si3OsU,0.0,-0.041420900000000004,
PSe3Tl3,0.1851,-0.0414207,
RuSb2Eu,0.0,-0.0414204,
Zr2RhHg,0.0,-0.0414203,
RhCd2Pt,0.0,-0.0414197,
SiI2Gd2,0.0,-0.0414195,
Ge2RuHo6,0.0,-0.041417499999999996,
CdInGd,0.0,-0.0414167,
K3Sn4Pt4,0.0,-0.0414165,
I6W,0.0,-0.0414165,
Al2Ba3Pb2,0.0,-0.041415999999999994,
Al2CePt2,0.0,-0.0414157,
OCdLaBi,0.3971,-0.0414155,
Cd2DyLu,0.0,-0.041415,
K3Sn4Ir4,0.0,-0.0414145,
Si2CaIr3,0.0,-0.0414142,
GaBa2Hg,0.0,-0.041414,
Al3CoU2,0.0,-0.041414,
LiGeIr2,0.0,-0.041413,
OIBi,1.5325,-0.041412500000000005,
PdSbEr,0.2176,-0.0414112,
CGe2Tb2Ir2,0.0,-0.041411,
In5HoPt,0.0,-0.041410600000000006,
LiCdIHg2,0.0,-0.041410499999999996,
SiOs,0.0,-0.0414099,
Co2Dy3Hg,0.0,-0.041409100000000004,
TeI2Sm2,0.0,-0.04140870000000001,
AlPrOs,0.0,-0.0414076,
MgLa3Os,0.0,-0.0414062,
FeRuIr,0.0,-0.041405000000000004,
Rh4PrHg,0.0,-0.0414035,
SnLa2,0.0,-0.041403100000000005,
SrTe2Ta,0.0,-0.0414025,
Ag5Ac,0.0,-0.0414022,
MgTiPt2,0.0,-0.041402,
Zr2Sb2Hg,0.0,-0.0414018,
Sn2PmTb,0.0,-0.041400799999999995,
ClGaTh,0.0,-0.041400799999999995,
NBa3Pb,0.0,-0.0413994,
TcNd3,0.0,-0.0413992,
SiScAu2,0.0,-0.0413974,
PdInLu,0.0,-0.0413964,
Mg2CsBi2,0.0,-0.0413963,
Mg2SrPt3,0.0,-0.041396,
SrIn5Au2,0.0,-0.0413959,
GeInPt,0.0,-0.0413958,
Te5Dy2,0.0,-0.0413951,
Ni2Tm2Hg,0.0,-0.041394799999999995,
ZnBaAu,0.0,-0.0413919,
RuIn3Lu2,0.0,-0.041391800000000006,
Ru2SnGd,0.0,-0.041391599999999994,
LiMgBi2,0.0,-0.041391199999999996,
MgPr2Tl,0.0,-0.0413907,
OAsRuTh,0.0,-0.0413894,
Zr2MoHg,0.0,-0.0413891,
CaTe3ErAu,0.4222,-0.041389,
GeZrIr,0.0,-0.0413884,
Te3Nd2,0.3432,-0.041388,
CuAs2Pb2,0.0,-0.041387099999999996,
FeMoRe,0.0,-0.041386400000000004,
As2RbTl2,0.0,-0.041386200000000005,
Y2TeHg,0.0,-0.0413855,
AsTe3Tb4,0.0,-0.041385399999999996,
Pd3Tm2,0.0,-0.0413851,
In5HoOs,0.0,-0.041384500000000005,
ZrTc2Hf,0.0,-0.0413825,
PBaIr,0.0,-0.041381799999999996,
RuPr3,0.0,-0.0413812,
IPm,0.0,-0.0413788,
Ga2CdIr2,0.0,-0.0413786,
SeGd,0.0,-0.0413782,
Ge4Ir2Au,0.0,-0.0413767,
SbILa2,0.0,-0.0413763,
ScZnHg2,0.0,-0.0413759,
SbIPr2,0.0,-0.041375300000000004,
NaGaTl2,0.0,-0.041374499999999995,
RhPd2Hf,0.0,-0.041374499999999995,
Zr2CdOs,0.0,-0.0413742,
SbBaCe,0.0,-0.0413733,
NaY2Tl2,0.0,-0.041373,
Zr3Tl,0.0,-0.041372599999999995,
I6Cs2Au,0.0,-0.0413721,
Zr2Hf,0.0,-0.0413716,
Pd2LaEu,0.0,-0.0413715,
Ca2PdPb2,0.0,-0.0413715,
SbI2Sm2,0.0,-0.041371000000000005,
NSnTm3,0.0,-0.041370399999999995,
Al3MnGe2Th3,0.0,-0.0413703,
Al3FeGe2Th3,0.0,-0.041370199999999996,
SnTeDy,0.0,-0.0413697,
In2SmTm,0.0,-0.041369,
RhPr3,0.0,-0.0413681,
Zr3Os,0.0,-0.0413675,
ScSnIr,0.0,-0.041366799999999995,
AlLaOs,0.0,-0.0413667,
AlCeAu,0.0,-0.0413663,
OZnSbU,0.0,-0.0413655,
AlZnPt2,0.0,-0.0413643,
Sn2Er,0.0,-0.0413631,
Rh4LaHg,0.0,-0.0413624,
S2TaPb,0.0,-0.0413619,
Al3CrGe2Th3,0.0,-0.0413617,
Se2TbTl,0.8968,-0.0413607,
Cd2InLu2,0.0,-0.041359900000000005,
Rh4Os,0.0,-0.041359299999999995,
Zn2TbAc,0.0,-0.0413583,
OCdPrBi,0.2955,-0.0413575,
Ga2YPt2,0.0,-0.041357,
CaRhBi,0.0,-0.041356699999999996,
CaLa2Hg,0.0,-0.0413557,
SrCdAu,0.0,-0.0413537,
ClAsHg2,0.0,-0.0413526,
OSPa,0.0,-0.041352200000000006,
AlY2Au2,0.0,-0.041352200000000006,
Pd4Er3,0.0,-0.041351799999999994,
CSbTm3,0.0,-0.0413512,
CaCuAu2,0.0,-0.041350000000000005,
NLu2,0.0,-0.0413492,
Pd2CdHg,0.0,-0.0413486,
GeZrOs,0.0,-0.0413484,
CGe2Ho2W2,0.0,-0.041345999999999994,
Zn2TaPt,0.0,-0.041344099999999995,
Si2Lu2Pt,0.0,-0.0413438,
Mo4Ta,0.0,-0.041342500000000004,
LiNdPb,0.0,-0.041342500000000004,
Ni2Dy2Pb,0.0,-0.041342,
In2CeTm,0.0,-0.0413419,
Ga3EuPt2,0.0,-0.0413412,
Cu2Ho2Pb,0.0,-0.0413393,
B4Zr2Ir5,0.0,-0.0413392,
CuCdBi,0.0,-0.0413385,
Sc3Pd2Tl3,0.0,-0.0413382,
SiGaTh,0.0,-0.0413378,
Ge6HoIr4,0.0,-0.041337200000000004,
Ge2In3Tm3Ir,0.0,-0.0413359,
SiIr,0.0,-0.0413343,
Rh6Sb4Th,0.0,-0.041334,
MnGe2Tm6,0.0,-0.0413337,
MgScTl2,0.0,-0.0413333,
Mg3Hg4,0.0,-0.041333100000000005,
AlCd2Th,0.0,-0.0413326,
Y2AgPb,0.0,-0.0413325,
Sn2Nd3,0.0,-0.041332299999999995,
KAs2Bi2,0.0,-0.0413315,
O2Er2Bi,0.0,-0.0413309,
Sr2IBi,0.8669,-0.0413301,
Te2CsTb,1.129,-0.041329500000000005,
PdCd2Pt,0.0,-0.0413294,
BeGaIr2,0.0,-0.041329300000000006,
SbI2Ce2,0.0,-0.0413282,
AsEr2,0.0,-0.0413266,
Se3Sm4Bi,0.0,-0.0413265,
PdNd3,0.0,-0.0413247,
MgHoHg,0.0,-0.0413241,
Ge2Pd2Pa,0.0,-0.0413236,
Al3NiU2,0.0,-0.041322000000000005,
I6Cs2Ta,0.0,-0.0413217,
CuSn2Tb6,0.0,-0.0413191,
Ge2SrIr2,0.0,-0.0413188,
Zr2CdIr,0.0,-0.0413185,
K2AgBi2,0.0,-0.0413182,
ScSnPt,0.0,-0.0413181,
ScTb5,0.0,-0.0413177,
I3Ho,2.7589,-0.0413177,
RhSb2Eu,0.0,-0.0413175,
ZrSnLu,0.0,-0.0413172,
AsPd2Bi,0.0,-0.0413172,
Co2Ho2Tl,0.0,-0.0413167,
Al3CoGe2Th3,0.0,-0.0413153,
Ni2In5Hf4,0.0,-0.041314300000000005,
CaLaAu,0.0,-0.041311999999999995,
Si2BaIr2,0.0,-0.041311799999999996,
NiAsHf2,0.0,-0.0413107,
PdDy,0.0,-0.0413099,
Al3Si2RuTh3,0.0,-0.0413095,
KCd2Hg2,0.0,-0.041309399999999996,
PTl,0.0,-0.0413088,
AgSnDy2,0.0,-0.041308700000000004,
In5DyIr,0.0,-0.041308,
Al2DyAu2,0.0,-0.0413078,
Si2SmAu2,0.0,-0.04130639999999999,
FeGe2Tm6,0.0,-0.0413047,
MgGaPt2,0.0,-0.041304600000000004,
Se2BrTl2,0.0,-0.0413042,
CuBa2Au,0.0,-0.0413035,
Zr3Pt,0.0,-0.0413031,
RhTeHo,0.141,-0.0413028,
LiAsPt2,0.0,-0.041302399999999996,
CuSb2Pb,0.0,-0.0413017,
ZnEr3,0.0,-0.0413016,
Si3AuNp,0.0,-0.0413013,
Zr2CdTl,0.0,-0.0412999,
Pd2CdHo3,0.0,-0.0412997,
Si2CeAu2,0.0,-0.041298900000000006,
MgLa2Tl,0.0,-0.0412988,
Zn3HfPt2,0.0,-0.041298699999999994,
H2Hf2Pt,0.0,-0.0412986,
Pd4SmHg,0.0,-0.0412984,
S3Pt2Pb,0.0,-0.0412979,
Ru2SnHo2,0.0,-0.0412972,
TiTe2Tl,0.0,-0.041297,
PBaPt,0.0,-0.041297,
B4In2Ir5,0.0,-0.0412959,
ZnBa2Pt,0.0,-0.0412958,
ZrTe4Hf,0.0,-0.0412955,
Te3La2,1.5607,-0.0412953,
Pd4CeHg,0.0,-0.0412939,
Cd2Cs2Au,0.0,-0.0412937,
RbSrBi,0.6655,-0.041293300000000005,
CI5Tm4,0.0,-0.041293300000000005,
Al3SiNp2,0.0,-0.0412901,
Zn2Th,0.0,-0.0412901,
CdIn2Hg,0.0,-0.041289700000000006,
LiNaBi2,0.0,-0.041288,
Ag2HoTm,0.0,-0.0412869,
Pd2SbGd,0.0,-0.0412861,
K2CdBaBi2,0.0,-0.0412857,
In2Sn2Hg,0.0,-0.041285600000000006,
Ru4Ta,0.0,-0.0412847,
Ge2NbTa2,0.0,-0.0412843,
AlSb3Hf2,0.0,-0.041284,
RuSn2Pr6,0.0,-0.0412834,
Ga2CdPt2,0.0,-0.0412821,
As2Pd2Th,0.0,-0.041282,
SiZnPa,0.0,-0.041280700000000004,
C2U,0.0,-0.0412802,
ScTe2Tl,0.0,-0.0412788,
Y2RuTl,0.0,-0.041274,
GaSr2Pt2,0.0,-0.0412734,
Li4Sb4Th3,0.0,-0.041273000000000004,
BeCoIr2,0.0,-0.0412727,
S2Pa,0.0,-0.0412726,
In5ErAu,0.0,-0.041271999999999996,
Rh2SnHo2,0.0,-0.0412713,
O4Tl2U,1.4006,-0.0412701,
Ga3TmIr2,0.0,-0.04127,
Ga2Rh3Pu,0.0,-0.041267899999999996,
N3ReU,0.0,-0.0412676,
KSnBi,0.0876,-0.0412675,
Ge2In3Tm3Os,0.0,-0.0412675,
SiGaAu2,0.0,-0.0412667,
CI2Gd2,0.0,-0.0412661,
Ca2PtTl,0.0,-0.0412656,
SiClU,0.0,-0.041265300000000005,
Ge2In3Tm3Pt,0.0,-0.0412651,
Al2NdPt2,0.0,-0.0412643,
Ru2InEr2,0.0,-0.0412641,
Pd2In2Tl,0.0,-0.0412634,
Ti2InAu2,0.0,-0.0412632,
LiSm2Tl,0.0,-0.041261400000000004,
InSm2,0.0,-0.0412611,
Al3Rh2Th2,0.0,-0.0412594,
Pd8Np,0.0,-0.041258899999999994,
Si3PtU,0.0,-0.0412581,
In2PmTm,0.0,-0.0412574,
Zr2AgRe,0.0,-0.0412574,
LiPrPb,0.0,-0.0412572,
Rh4Ir,0.0,-0.0412571,
RuLa3,0.0,-0.041255099999999996,
FSU,0.0,-0.0412548,
Se3SnLu4,0.0,-0.0412547,
AgEr,0.0,-0.0412543,
As2RbIr2,0.0,-0.0412543,
HAg2Pt2,0.0,-0.041251600000000006,
NOSn2Tm6,0.0,-0.0412515,
In5DyPt,0.0,-0.0412511,
Rh2InEr2,0.0,-0.0412504,
Tc5Os,0.0,-0.0412504,
Al3Si2RhTh3,0.0,-0.0412494,
STl,0.207,-0.0412491,
Sb2Tb,0.0,-0.0412485,
CrRhIr,0.0,-0.0412483,
B4TmIr4,0.0,-0.0412481,
Ag2Sn2Tl,0.0,-0.0412472,
FeMoPt,0.0,-0.0412471,
S2AgPu,0.0,-0.0412468,
In2TbHo,0.0,-0.0412463,
HZnHf3,0.0,-0.0412463,
Pd2Cd2Bi,0.0,-0.041246200000000004,
TiTa,0.0,-0.0412446,
ClTl,2.0973,-0.041244300000000005,
N2NdTh,0.0,-0.041244300000000005,
Al3RhTm3Pb2,0.0,-0.0412442,
AgTe2Lu,0.7711,-0.0412438,
Si2RuTm6,0.0,-0.0412432,
Y2RhTl,0.0,-0.041242600000000004,
Tc5Ir,0.0,-0.0412425,
Zr2Pd2Pb,0.0,-0.0412423,
Y2SbHg,0.0,-0.041241,
Si2PdPu,0.0,-0.041240900000000004,
YIn2Hg,0.0,-0.0412408,
Rb2I6Th,2.9142,-0.0412392,
FeSr2Ir2,0.0,-0.041238500000000004,
AgLa5,0.0,-0.041238199999999996,
H2Hf2Re,0.0,-0.0412379,
Ru2CeHo,0.0,-0.0412369,
Ga2InAu2,0.0,-0.0412346,
InPr3,0.0,-0.0412345,
PTe3Ho4,0.0,-0.0412344,
Ge4Pt2Au,0.0,-0.041234299999999995,
CoGe2Tm6,0.0,-0.041234,
Zn2Er2Pb,0.0,-0.0412336,
ZnZr3Au2,0.0,-0.0412335,
I6Cs2Hf,2.0014,-0.0412332,
RuRh2Tb3,0.0,-0.041232399999999995,
Rh2NdEr,0.0,-0.041232,
GePdPt,0.0,-0.0412316,
Rh2In3Tm3,0.0,-0.0412313,
Ge6DyIr4,0.0,-0.0412309,