formula,bg,formation_energy,mp-id
FeIn2I8,0.6361,-0.0347697,
NiPdPm2,0.0,-0.0347696,
ZnAg2Hf,0.0,-0.0347694,
ZnSn2Tm,0.0,-0.034768900000000005,
CoRu2La2,0.0,-0.0347683,
Al3RuSn2Gd3,0.0,-0.0347682,
NbPdSb,0.0,-0.034768099999999996,
NbInSb,0.0,-0.0347676,
AlInI6Cs2,0.6942,-0.034767200000000005,
CaAg4Tl,0.0,-0.0347668,
Pd3In2Ba,0.0,-0.0347667,
Ni2CdDy3,0.0,-0.0347665,
OGaDy3,0.0,-0.0347665,
CaSrEu2,0.0,-0.0347663,
Ru2InSn,0.0,-0.034764899999999994,
ZnRu2Sm2,0.0,-0.0347645,
BrTe2Ba,0.0,-0.0347643,
CuGaTe3Hf,0.0122,-0.0347642,
GeAgLa2,0.0,-0.0347636,
Ni2SnPt,0.0,-0.0347636,
RhInSn,0.0,-0.0347631,
YSnTe,0.0,-0.0347624,
AlDy2,0.0,-0.0347623,
C2DyW,0.0,-0.0347622,
S4CrTl3,0.0,-0.0347617,
NiAs2Lu2,0.0,-0.0347607,
NaGa2Hg2,0.0,-0.0347605,
ZrRu2Sn,0.0,-0.0347605,
Si4CuHf4,0.0,-0.0347603,
Pd2Ag2La,0.0,-0.0347602,
Li2SrTl2,0.0,-0.03476,
NiSbDy,0.324,-0.0347599,
AlPd2Dy2,0.0,-0.0347587,
MoTc2Rh,0.0,-0.0347586,
NSnSm2,0.0,-0.0347586,
Si3Pt2,0.0,-0.034757800000000005,
CoIDy,0.0,-0.034757399999999994,
Si2CrPa,0.0,-0.0347571,
S3Tl2,0.0,-0.0347564,
CuRuPm2,0.0,-0.0347559,
CuRhPm2,0.0,-0.0347557,
Cu2TmLu,0.0,-0.034755299999999996,
ZnSnNd2,0.0,-0.0347549,
Ga6PtNp,0.0,-0.0347543,
Pd2Cd3Ho,0.0,-0.0347535,
Cd8Au,0.0,-0.0347535,
NiRhNd2,0.0,-0.0347531,
Ti3ZnIr2,0.0,-0.0347528,
Ge3PrRe,0.0,-0.0347524,
Ag3Ce,0.0,-0.034751800000000006,
Cu2In3Dy3,0.0,-0.034751800000000006,
Ge3LaRe,0.0,-0.034751800000000006,
Ni2ZnHf2,0.0,-0.034751399999999995,
Rh2In5Ba,0.0,-0.0347504,
Si2FeTa2,0.0,-0.03474989999999999,
Rb2Ag2Au,0.0,-0.03474989999999999,
BeZr2Pt,0.0,-0.03474989999999999,
MnGe3Th,0.0,-0.0347496,
CoSn5Ce,0.0,-0.0347482,
CaY2Tl,0.0,-0.034748100000000004,
Zn2BaIr,0.0,-0.0347477,
PRbOs,0.0,-0.0347473,
Se7Er5,0.0,-0.0347467,
GeSb2Te4,0.0949,-0.0347453,
O4INdBi2,1.2581,-0.034745,
Zn2Sn2Pb,0.0,-0.034745,
Pd2Sb,0.0,-0.0347447,
SrIn2Dy,0.0,-0.034744300000000006,
Al3RhSn2Gd3,0.0,-0.034744199999999996,
Pd3Cs2,0.0,-0.034744,
SPd5Hg,0.0,-0.034743699999999995,
Pd8Tb,0.0,-0.034743699999999995,
SiY2Au,0.0,-0.0347436,
In5Ba,0.0,-0.0347433,
MoRu7,0.0,-0.0347423,
Mg2LuPt,0.0,-0.034741799999999996,
CuInSm2,0.0,-0.034741799999999996,
CoSb2Sm,0.0,-0.0347417,
GePd2Er,0.0,-0.0347416,
FeGe3Th,0.0,-0.0347413,
Cd2InLa,0.0,-0.0347404,
Li2GaPb2,0.0,-0.034740299999999995,
Co2RhPt,0.0,-0.0347398,
Ag3Pm,0.0,-0.0347395,
CInTb2,0.0,-0.0347382,
Al5Au2Th,0.0,-0.034737699999999996,
Si2NdIr,0.0,-0.0347375,
C2VTa2,0.0,-0.0347374,
Zn2InLu2,0.0,-0.0347374,
Co2NiTm3,0.0,-0.0347372,
Al3In2Ho3Au,0.0,-0.034737000000000004,
O7La2Np2,0.0,-0.034736800000000005,
Co2TcW,0.0,-0.0347365,
O7Eu2Th2,0.0,-0.0347361,
SITm,2.4227,-0.0347361,
FeTcLa2,0.0,-0.0347352,
Se3SrTbAu,1.0129,-0.0347342,
Pd7Ce,0.0,-0.0347337,
S2Se2MoTe2W2,0.0952,-0.0347325,
N3MoNp,0.0,-0.0347322,
NiRuNd2,0.0,-0.0347321,
YAg2Tb,0.0,-0.034732,
CICe2,0.0,-0.0347318,
GeRuDy,0.0,-0.034731000000000005,
As2CdHg,0.0,-0.0347297,
GePdHo,0.0,-0.0347295,
MgRuHo2,0.0,-0.034728999999999996,
BCDyIr,0.0,-0.0347289,
Ge2Y2Pb,0.0,-0.0347289,
CZr3Hg,0.0,-0.0347283,
CoSn3Tb,0.0,-0.0347283,
K3As2Au3,0.7651,-0.0347282,
B5Sm2Os3,0.0,-0.0347277,
S2CsBi,1.2242,-0.0347275,
As2Cd2Tl,0.0,-0.034727400000000005,
Ti2NbIr,0.0,-0.034726999999999994,
As2Ag2Pt,0.0,-0.034726599999999996,
N2SeHf2,0.5276,-0.0347265,
Ni2TcIr,0.0,-0.034725900000000004,
Ge2SnDy2,0.0,-0.0347258,
BCo2Th,0.0,-0.034725700000000005,
Rh2Cd2La,0.0,-0.0347256,
NAgLa3,0.0,-0.034724200000000004,
Y2TeI2,0.0,-0.0347233,
ZnGaEu2,0.0,-0.0347222,
SeSr2Ir,0.0,-0.0347222,
N2Ho3,0.0,-0.0347221,
Co4Sn6Th,0.0,-0.0347213,
ZnSb2Cs4,0.8995,-0.034720799999999996,
Mg2LuIr,0.0,-0.0347207,
ZnGe2In3Tm3,0.0,-0.03472,
Ga2Pd4Tb3,0.0,-0.034719299999999995,
Br2TeSm2,0.0,-0.0347192,
ZnPdLu,0.0,-0.034719,
Al2HoOs,0.0,-0.0347188,
FeGe2In3Er3,0.0,-0.0347179,
CuIn2Lu,0.0,-0.0347178,
Co2SbTa,0.0,-0.0347147,
SiBa5,0.0,-0.034713799999999996,
CaLa3,0.0,-0.0347134,
HSbLa3,0.0,-0.0347129,
GaPd2Nd2,0.0,-0.034712200000000006,
Al2Nd2Hg,0.0,-0.0347119,
Y2SbI2,0.0,-0.034711599999999995,
BrRhTb,0.0,-0.0347115,
MnSe2Bi,0.0,-0.0347113,
Al3Lu2Re,0.0,-0.034711,
MgCdHg,0.0,-0.0347109,
NaCu2Sb2Th,0.0,-0.0347104,
CBr2Gd2,0.262,-0.034710200000000004,
CuIn5Gd,0.0,-0.034710200000000004,
Co2InTm2,0.0,-0.034710099999999994,
Fe2SnTa,0.0,-0.0347089,
BeZrHg,0.0,-0.0347087,
AlSnGd,0.0,-0.0347086,
Mn2IHo2,0.0,-0.0347085,
CoGa2Pr6,0.0,-0.0347079,
Se3BaTa,0.0,-0.0347076,
Ag2CdBa2,0.0,-0.034707299999999996,
NINd2,0.0,-0.0347072,
NiRu2Pr2,0.0,-0.034706400000000005,
CaCd4Pb,0.0,-0.034706,
Ge3CeAu,0.0,-0.034704900000000004,
RhIn5Ba,0.0,-0.034704700000000005,
BGa2SrIr2,0.0,-0.0347046,
Ag2CdSm,0.0,-0.034704399999999996,
CoGe2In3Er3,0.0,-0.0347043,
K3Ge4Au4,0.0,-0.0347042,
In2Sb,0.0,-0.0347037,
Si3RuNp,0.0,-0.0347034,
CrGe3Th,0.0,-0.034703200000000003,
NCdLa3,0.0,-0.0347025,
Ag2CdI4,1.6489,-0.0347025,
NAlEr3,0.0,-0.0347018,
S3Ir2,1.0797,-0.034701300000000004,
Rb2Ag3Tl,0.0,-0.034700800000000004,
MgMn2Lu3,0.0,-0.0347007,
Ge2Nb2Ta,0.0,-0.0347002,
O4ILaBi2,1.2157,-0.0347,
PRbIr,0.0,-0.0346988,
ZnAg2Pr3,0.0,-0.0346987,
LiSc2Au2,0.0,-0.0346985,
HZr3Pb,0.0,-0.0346982,
AlCa2Pt2,0.0,-0.0346977,
MgRb2Te4Pb,0.1923,-0.0346968,
Ge2InHo2,0.0,-0.0346965,
O4IPrBi2,1.2334,-0.0346965,
OAgLa3,0.0,-0.0346965,
GaLa2,0.0,-0.0346961,
BNMnPa,0.0,-0.0346961,
NbRhSn,0.0,-0.034694699999999995,
NaScCu2Bi2,0.0,-0.0346939,
NbMoTc2,0.0,-0.0346937,
Br2SbCe2,0.0,-0.0346932,
Br2SbSm2,0.0,-0.0346932,
GeAsHf,0.0,-0.0346932,
Ni2IEr2,0.0,-0.0346925,
ScSnTm,0.0,-0.0346922,
PSe3Dy4,0.0,-0.034692100000000003,
Cl3Tl2,1.4739,-0.0346917,
Cu2CdLu2,0.0,-0.0346915,
CuSe3ErPb,1.0411,-0.0346906,
Co2SnEr2,0.0,-0.0346901,
Ga2Ag2Bi,0.0,-0.0346896,
Si2CaRe2,0.0,-0.034687600000000006,
Ag5Er,0.0,-0.034686100000000004,
S2Cl2Hg3,1.9734,-0.0346858,
B2CoW2,0.0,-0.034685299999999995,
RbRhBa3,0.0,-0.0346845,
YPdSb2,0.0,-0.0346843,
GaPd2Eu,0.0,-0.034684,
Co4TaOs,0.0,-0.0346823,
S4MnTl3,0.0,-0.034681699999999996,
CoNiPt,0.0,-0.034681699999999996,
Si2NdOs,0.0,-0.034681699999999996,
Zn2RuDy3,0.0,-0.0346808,
NNiDy3,0.0,-0.0346806,
O6Bi2Pa,0.0,-0.0346805,
Fe2IHo2,0.0,-0.0346802,
Co2RuW,0.0,-0.0346798,
NbSn,0.0,-0.0346796,
AlAg2Hg,0.0,-0.0346794,
CoGe2Sn3Dy3,0.0,-0.0346794,
CaAgTe3Dy,0.5815,-0.0346789,
Ag4Tb,0.0,-0.034678600000000004,
Sr3Ir,0.0,-0.0346785,
AgIn3Ba,0.0,-0.0346781,
B2CuIr2,0.0,-0.0346771,
Ni4RbBi2,0.0,-0.0346763,
GaPdTm,0.0,-0.034676,
LiYTl,0.0,-0.034676,
Co4TaIr,0.0,-0.034675199999999996,
Se3Cs2Hf,1.4113,-0.034675199999999996,
AlInDy2,0.0,-0.034675,
SiTeLa2,0.0,-0.0346749,
Cu2GaAc,0.0,-0.0346744,
LiCdInPt,0.0,-0.0346739,
Si2TbAu,0.0,-0.0346739,
PFe2Ac,0.0,-0.0346739,
NaPd2Hg,0.0,-0.0346734,
AlSi2Pu,0.0,-0.0346725,
P2CuPa,0.0,-0.034671,
BCNiU,0.0,-0.034670900000000004,
PS3Lu4,0.0,-0.0346706,
Li3BaBi2,0.0,-0.034670099999999995,
ZrSn2,0.0,-0.03467,
Pd7Sm,0.0,-0.0346698,
Mo2RuRh,0.0,-0.0346698,
NSnCe2,0.0,-0.0346698,
Ga2InIr,0.0,-0.0346694,
SeZr3I7,0.2434,-0.0346677,
Sc6AuPb2,0.0,-0.0346676,
B2N3Ho3Ir2,0.0,-0.0346673,
MoRu2Rh,0.0,-0.0346672,
Ni2RuOs,0.0,-0.0346662,
Cu2Te2Hg,0.0,-0.0346662,
Ni2In3Tb3,0.0,-0.034664900000000005,
LiSbI6Cs2,1.6735,-0.0346644,
GeBaNd,0.0,-0.0346636,
LiAgAu,0.0,-0.034663400000000004,
Cd6Sn3La2,0.0,-0.0346631,
O4TmPu,0.0615,-0.0346629,
CY3Pb,0.0,-0.034662399999999996,
Mg3Bi2,0.0,-0.0346623,
OCdLa3,0.0,-0.0346623,
BeZr2Tl,0.0,-0.034662,
Li2SrCd2Pb2,0.0,-0.0346615,
Si2PrIr,0.0,-0.0346615,
FBrPb,2.5277,-0.0346613,
ZnRuSm2,0.0,-0.0346601,
As2PdHf,0.0,-0.0346598,
Co2Zr2Pb,0.0,-0.0346594,
Ge2PdIn3Sm3,0.0,-0.034658499999999995,
ZnRhSm2,0.0,-0.0346582,
CoAsHo2,0.0,-0.0346567,
MnSe3TbPb,0.0,-0.034656599999999996,
K2I6Ta,0.0,-0.034656599999999996,
Co2Nb2Ir,0.0,-0.034656,
Pd2AgSn4,0.0,-0.0346559,
SiNbGd,0.0,-0.0346558,
CrSe4U,0.0,-0.0346558,
Zr3Tb,0.0,-0.034655500000000006,
Al2ZrHf2,0.0,-0.034655500000000006,
GaAgSm2,0.0,-0.034655099999999994,
BrSr2Au,0.0,-0.0346547,
YIn4La,0.0,-0.0346539,
Pd2Te,0.0,-0.0346536,
Ni2TcRe,0.0,-0.0346529,
Si2CoTa2,0.0,-0.0346528,
AlAgHo2,0.0,-0.0346528,
Ca2Sb2Pb,0.0,-0.0346524,
Si2NiPa,0.0,-0.0346519,
Ru5Rh,0.0,-0.034651400000000006,
NbRh2Sn,0.0,-0.034651299999999996,
NiRh2Pr2,0.0,-0.0346512,
AlPr3,0.0,-0.0346509,
AlAsPb,0.0,-0.0346506,
TiTe3Ba,0.0,-0.0346505,
Ti2NbOs,0.0,-0.0346504,
CSi2Mo2Np,0.0,-0.0346494,
PLu,0.0,-0.0346494,
In8La,0.0,-0.034649099999999995,
Co2Sn3Nd3,0.0,-0.0346487,
RbPdBa3,0.0,-0.0346467,
CoGe3Th,0.0,-0.0346466,
Ge2CdEr2,0.0,-0.034646500000000004,
Fe2RuTa,0.0,-0.034644799999999996,
Mg2CaPb2,0.0,-0.0346446,
NiRu2La2,0.0,-0.0346445,
NiSn3Tb,0.0,-0.0346445,
TiRu2Er,0.0,-0.034643900000000005,
S3SbHo4,0.0,-0.0346435,
Si3Tm2Au,0.0,-0.034643,
K2CdTe4Pb,0.0,-0.034642200000000005,
ScNiTl,0.0,-0.034642200000000005,
Ga2Re,0.0,-0.034641899999999996,
CoRhLa2,0.0,-0.0346408,
B2N3Ho3Os2,0.0,-0.0346391,
ScIn2Lu,0.0,-0.034639,
O8SnTh3,2.7426,-0.034638800000000004,
Cu2Te3Hf,0.0,-0.0346386,
Ti2TcAu,0.0,-0.0346386,
Rh4Sb,0.0,-0.0346374,
NiSrTe3Er,0.0,-0.0346355,
YIn6Ce,0.0,-0.0346353,
S3SnPt2,0.0,-0.0346353,
Si2RhIn3Er3,0.0,-0.0346351,
H2La2Pb,0.0,-0.034635,
B4OsU,0.0,-0.034634700000000004,
Br6Cs2U,0.0,-0.0346344,
PPd5Hf,0.0,-0.034633699999999996,
RhIn3Cs,0.0,-0.0346336,
AlCu2Pa,0.0,-0.0346335,
SrRh6Sb4,0.0,-0.034632800000000005,
Ag3Nd,0.0,-0.0346327,
CuIn5Te8,0.1428,-0.034632500000000004,
TcRh,0.0,-0.0346321,
LiTcEr2,0.0,-0.0346319,
NiSn5Ce,0.0,-0.0346314,
GeZrTm,0.0,-0.0346314,
Ni2Ge2Pa,0.0,-0.034631100000000005,
CuRu2Nd2,0.0,-0.034630299999999996,
PSeIr,1.198,-0.0346302,
N2HoHf,0.0,-0.03463,
CuIn3Sm2,0.0,-0.0346299,
GaInLa2,0.0,-0.0346296,
Se2ILa2,0.0,-0.034629,
KAgTe3Er,0.0,-0.0346284,
HNb3Au,0.0,-0.0346283,
Co2MoW,0.0,-0.0346277,
NiGe2In3Er3,0.0,-0.0346274,
Ge2PmEu,0.0,-0.034627200000000004,
GeSnTb,0.0,-0.0346271,
HZn2Ir2,0.0,-0.0346266,
LiCdInIr,0.0,-0.0346248,
CuBr4Tl2,0.0,-0.034623600000000004,
Al2ErAu,0.0,-0.0346232,
Cd2In2La,0.0,-0.0346227,
Si2LaIr,0.0,-0.034622599999999996,
ZnSnPr2,0.0,-0.0346225,
Ga3Pd2Tm3,0.0,-0.0346224,
Si2NdPt,0.0,-0.0346215,
NAgTb2,0.0,-0.0346213,
SeSnNd,0.0,-0.0346197,
Ag2CdCe,0.0,-0.034619,
CoSn2Dy,0.0,-0.0346188,
Al2DyIr,0.0,-0.0346186,
Si3RhNp,0.0,-0.0346179,
SiSrAu,0.0,-0.034616999999999995,
GaTe2Pm,0.0,-0.0346169,
FeGa2La6,0.0,-0.0346164,
Ga2DyLu,0.0,-0.034616100000000004,
OGaI4Ta,0.5226,-0.0346156,
Ga3PdSn2Er3,0.0,-0.0346155,
BNFePa,0.0,-0.0346149,
MnSe3HoTl,0.068,-0.0346146,
LiPdInHg,0.0,-0.034613399999999996,
CdIn2Ba,0.0,-0.0346131,
Al3Sn2Tb3Au,0.0,-0.034612699999999996,
MnZnPt,0.0,-0.0346125,
NiRh2La2,0.0,-0.0346124,
Co2W,0.0,-0.0346117,
Cu2RuTb3,0.0,-0.034611499999999996,
CRu2Sn2La2,0.0,-0.0346105,
Ni2Os,0.0,-0.0346102,
Ni2MoRe,0.0,-0.03460969999999999,
Ni2As2Th,0.0,-0.034609499999999994,
GaCdLu,0.0,-0.0346094,
CaRh2Gd,0.0,-0.0346088,
GeRhDy,0.0,-0.034608,
MoTcRh2,0.0,-0.0346077,
Co2Nb2Os,0.0,-0.034607599999999995,
AlCa2Ir2,0.0,-0.034607,
MgCe3,0.0,-0.034606200000000004,
CoGa2La6,0.0,-0.0346061,
Ge2Nd3,0.0,-0.0346061,
Zn3Ru2Th,0.0,-0.0346054,
NSbLa2,0.6675,-0.0346054,
Li2CdHg2,0.0,-0.0346052,
As2Ru2Gd,0.0,-0.0346052,
MgCo2Ta2,0.0,-0.034605,
AsSr2Au,0.4502,-0.0346048,
Si2PrOs,0.0,-0.0346046,
NiRhLa2,0.0,-0.034604100000000006,
B2HoOs,0.0,-0.0346031,
SLu,0.0,-0.0346029,
Zn3Rh2Th,0.0,-0.0346015,
NiGe2Sn3Dy3,0.0,-0.0346015,
AlNi2Th,0.0,-0.0346013,
MnSe4U,0.0,-0.0346011,
CoNi2Tm3,0.0,-0.0346008,
SrSnNd,0.0,-0.0346004,
SrCd2Eu,0.0,-0.0346003,
NaSrPb,0.0,-0.034600099999999995,
Sc2RuIr,0.0,-0.034599,
ZnAg2La3,0.0,-0.0345988,
Ga2PdIr,0.0,-0.0345977,
Tc3Pd,0.0,-0.0345972,
FeLa2,0.0,-0.0345969,
B2TiW2,0.0,-0.034596800000000004,
Al2Pr2Hg,0.0,-0.034594700000000006,
MgY2Pb,0.0,-0.034594299999999994,
MgPd2Sm3,0.0,-0.0345939,
Ti2PdRe,0.0,-0.0345936,
SiRu3Ce2,0.0,-0.034593200000000005,
CoSnHo,0.0,-0.0345928,
Al3Lu2Au,0.0,-0.0345914,
Cd8Hg,0.0,-0.0345912,
Se2CsEu,0.0,-0.034590699999999995,
NbRu8,0.0,-0.0345897,
Ag2CdPm,0.0,-0.0345897,
N2CoPa,0.0,-0.034589,
CuEu,0.0,-0.0345885,
GeTeSm,0.0,-0.0345884,
BeRh2Hf,0.0,-0.0345884,
NiGaTm2,0.0,-0.034588299999999995,
CoPr2,0.0,-0.0345881,
C2InEr3,0.0,-0.0345881,
Al3PdSn2Gd3,0.0,-0.034588,
GaPd2Pr2,0.0,-0.0345878,
SiPd3Tb2,0.0,-0.0345878,
Zn5Au3,0.0,-0.0345875,
MgSm3,0.0,-0.0345873,
Ca2Sn2Bi,0.0,-0.0345863,
YPd6Sb4,0.0,-0.0345852,
OZr3Hg,0.0,-0.0345844,
LiZn2Pt2,0.0,-0.0345844,
P4Ni4Ta5,0.0,-0.0345842,
AsSeGd,0.0133,-0.0345829,
YCd2Dy,0.0,-0.0345825,
ClTeLa2,0.0,-0.0345818,
ZnInLu,0.0,-0.0345812,
Ru7Rh,0.0,-0.0345802,
MnITb,0.0,-0.0345802,
Nb2Ru2Sn,0.0,-0.0345801,
MgCd2Tl,0.0,-0.03458,
Si3Er2Pt,0.0,-0.0345787,
Ga3Ge2Ho3Re,0.0,-0.0345786,
PRhLu,0.0,-0.0345783,
GeBaPr,0.0,-0.0345781,
Al2DyPt,0.0,-0.0345779,
MgPd2Ho2,0.0,-0.0345779,
KTe4Nd,0.0689,-0.034577800000000006,
Rh2InSn,0.0,-0.0345777,
NiSb2Ce,0.0,-0.034577199999999995,
OIEu,0.0,-0.034577,
Co2In5Nd4,0.0,-0.0345769,
S2Mo2Te4W,0.0503,-0.0345766,
NiRhPr2,0.0,-0.0345765,
PdIn5Ba,0.0,-0.0345762,
TcRuRh,0.0,-0.0345746,
MgZr2Re,0.0,-0.0345742,
Ni2RuIr,0.0,-0.0345738,
Pd2In5Ba,0.0,-0.0345735,
Rh2CdBa,0.0,-0.0345734,
Tc5Rh4,0.0,-0.0345729,
O9TbBi5,1.6086,-0.0345725,
Al2MnU,0.0,-0.0345721,
Be2SbHf2,0.0,-0.0345721,
Ga2Rh2Pt,0.0,-0.034572000000000006,
LiPd2Au,0.0488,-0.034571199999999996,
FeITb,0.0,-0.0345708,
OTeEu,0.0,-0.0345704,
GeISm,0.0,-0.034569899999999994,
CaAsPt,0.0,-0.0345694,
CuSrTe3Er,0.4297,-0.0345693,
Mo2Rh,0.0,-0.0345685,
CoIn4Lu,0.0,-0.034568100000000004,
MgTcHo2,0.0,-0.034567999999999995,
P2KPt2,0.0,-0.0345677,
Sc2RuTl,0.0,-0.0345675,
Pd6SnTe2,0.0,-0.0345671,
HNbTa,0.0,-0.0345669,
O4BrGdBi2,0.8352,-0.0345667,
CoSn5La,0.0,-0.034566400000000004,
NIPr2,0.0,-0.0345663,
P2Ba2Hg,0.0,-0.034566099999999995,
O4HfTh,4.5457,-0.0345655,
KSe3HfAu,0.3582,-0.0345649,
Pd2Cd3Dy,0.0,-0.0345644,
Ag3Pr,0.0,-0.0345635,
SeSnLa,0.0,-0.034562800000000005,
Ru3Rh,0.0,-0.0345627,
Cu2As2Pa,0.0,-0.0345625,
NiAsHo2,0.0,-0.0345625,
Sc3MnPt2,0.0,-0.0345624,
Cu2SnTm2,0.0,-0.034562199999999994,
Sc2RhIr,0.0,-0.034561999999999996,
Ni2MoPt,0.0,-0.0345605,
K2I6Hf,1.8893,-0.0345605,
Ti2PdPt,0.0,-0.034560299999999995,
GeICe,0.0,-0.034560299999999995,
LiS2Pu,0.0,-0.0345597,
OAgTeLu,1.0253,-0.0345596,
CoLa2,0.0,-0.0345595,
NiRuSb6,0.0,-0.0345592,
K2GaAu2,0.0,-0.0345592,
Ni2RuRe,0.0,-0.0345583,
GaTe2La,0.156,-0.0345583,
PdIn6Ba,0.0,-0.0345581,
Si2LaOs,0.0,-0.0345576,
MgCo2Lu3,0.0,-0.0345574,
NiRuLa2,0.0,-0.0345537,
Ti2NbPt,0.0,-0.0345533,
Co2Nb2Pt,0.0,-0.0345533,
SiPd2Gd,0.0,-0.0345531,
Zn3SrPt2,0.0,-0.0345518,
Si2PrPt,0.0,-0.034551200000000004,
BRh6Tb2,0.0,-0.0345506,
FeIn5Lu,0.0,-0.0345499,
CaBa5,0.0,-0.034549100000000006,
Sc3FePt2,0.0,-0.0345489,
Cd5Eu,0.0,-0.0345486,
Ag3La,0.0,-0.0345482,
Nb3Sb,0.0,-0.0345482,
CrZnOs,0.0,-0.0345481,
Ni2NbIr,0.0,-0.034547800000000004,
CuSnEr,0.0,-0.0345475,
O2TbAu,2.6319,-0.0345473,
Co4TaPt,0.0,-0.0345471,
AsPdTb,0.0,-0.034546799999999996,
CaI4Ba,3.6356,-0.0345456,
ZnSnLa2,0.0,-0.034545400000000004,
Al2Tm3,0.0,-0.034544,
Rh3Sn,0.0,-0.034544,
B5Nd2Os3,0.0,-0.0345421,
HPd2Au,0.0,-0.0345419,
MgSc2Hg2,0.0,-0.034541499999999996,
MgFe2Lu3,0.0,-0.0345412,
SeSnPr,0.0,-0.0345406,
KTe4Pr,0.0895,-0.0345405,
AlSrTl,0.0,-0.034540100000000004,
Ga2InPt,0.0,-0.034539900000000005,
NiRuPr2,0.0,-0.0345398,
CaAsIr,0.0,-0.034539700000000007,
Zr5Te4,0.0,-0.034539499999999994,
TiSe2Bi,0.0,-0.034539099999999996,
MgAg2Au,0.0,-0.0345389,
Ni3Se2Pb2,0.0,-0.034538200000000005,
CTeNd2,0.0,-0.034537399999999996,
CoSb2Nd,0.0,-0.0345373,
CuTe2Sm,0.0,-0.0345369,
Cd3SbI3,0.7307,-0.034536700000000004,
LiIn2Hg,0.0,-0.0345362,
O3CsPa,3.0078,-0.034536000000000004,
BCZnNp,0.0,-0.0345356,
Co2Sn3La3,0.0,-0.0345348,
CGeTb3,0.0,-0.0345346,
NILa2,0.0,-0.0345345,
NbRu3,0.0,-0.034534300000000004,
N2MgPu,0.0,-0.034534,
SrAgBa3,0.0,-0.0345337,
Ge4Rh3La2Ir,0.0,-0.0345337,
Co2RhW,0.0,-0.034533499999999995,
HInCe3,0.0,-0.0345334,
Mn2Ta,0.0,-0.034533,
GaRuEr,0.0,-0.0345329,
Cr2Ta,0.0,-0.0345317,
Sc2RuPt,0.0,-0.0345317,
AsPd5Tm,0.0,-0.0345317,
MoRh,0.0,-0.0345314,
NLu,0.0623,-0.034530099999999994,
Pd7Nd,0.0,-0.034529899999999995,
CaY2Os,0.0,-0.0345298,
O4GdPa,3.0485,-0.0345293,
GaSb2Sm,0.0,-0.0345291,
ScRh2Tm,0.0,-0.034529000000000004,
Sc3NiIr2,0.0,-0.0345273,
Ge2Zr2W,0.0,-0.0345273,
GaRh2Er,0.0,-0.034526600000000005,
GaPd2La2,0.0,-0.034526299999999996,
Ru4Rh,0.0,-0.034524900000000004,
GeRh2Dy,0.0,-0.0345246,
NbMo3,0.0,-0.0345246,
N2TbTa,0.0,-0.034523899999999996,
Co2CuTm3,0.0,-0.0345235,
MgGa2Pa,0.0,-0.034523200000000004,
MnCuAu,0.0,-0.034523000000000005,
GeCdLa2,0.0,-0.0345225,
OITm,1.947,-0.034522199999999996,
Si2LaPt,0.0,-0.034521500000000004,
Pd8Ce,0.0,-0.034521,
CdIn3Ba,0.0,-0.034520800000000004,
RhIn3I,0.0,-0.034519799999999996,
ScRu2Tm,0.0,-0.0345193,
SiIEu,0.0,-0.0345193,
AlLa3,0.0,-0.034519100000000004,
Ti2Rh2Au,0.0,-0.034518900000000005,
Pd2Cd2La,0.0,-0.0345185,
InSn,0.0,-0.0345184,
TiGe3Th,0.0,-0.0345183,
N2Ga3Dy7,0.0,-0.034518,
CuSr6Bi2,0.0,-0.0345179,
NiTm,0.0,-0.0345173,
NiIDy,0.0,-0.0345163,
CuPdPm2,0.0,-0.034516,
SrSnPr,0.0,-0.0345156,
YPd4Sn6,0.0,-0.0345145,
ZnTcCe2,0.0,-0.0345143,
CaAgTe3Tb,0.5652,-0.0345142,
NbTc,0.0,-0.0345135,
STe2Ho,0.0,-0.0345134,
CuRhNd2,0.0,-0.034513100000000005,
Ge3LaAu,0.0,-0.0345127,
GaRhEr,0.0,-0.0345124,
AgCd2Sm,0.0,-0.0345108,
PSeOs,0.6171,-0.034510599999999995,
Si2TiTa2,0.0,-0.0345105,
Mo5Rh3,0.0,-0.0345101,
Ge2Zr2Au,0.0,-0.034508699999999996,
Si4Sc3Ir4,0.0,-0.0345085,
BY3Bi,0.0,-0.0345081,
Si2Ga3Lu3Au,0.0,-0.0345073,
CuRuNd2,0.0,-0.034507199999999995,
CuInPm2,0.0,-0.0345067,
AlSrPt,0.0,-0.0345049,
In4Cs,0.0,-0.0345049,
FePdSb6,0.2288,-0.0345045,
GaAgCe2,0.0,-0.0345045,
KTe2Ho,1.1087,-0.0345045,
OAlEr3,0.0,-0.0345042,
Al2FeU,0.0,-0.034503700000000005,
BNCoPa,0.0,-0.034503599999999995,
O2Br2CdPb2,2.1479,-0.0345034,
Co4TaRe,0.0,-0.034502200000000004,
Ti4CrBi2,0.0,-0.0345019,
NiSn2Dy,0.0,-0.034501800000000006,
SI2Ba2,2.5711,-0.0345016,
TiSbDy,0.0,-0.034501399999999995,
Ge2RhIn3Nd3,0.0,-0.034501,
CoInTm,0.0,-0.0345006,
Ge2RuIn3Nd3,0.0,-0.0345,
Co2CdTb3,0.0,-0.0344994,
Ga3Ge2Ho3Au,0.0,-0.0344992,
CuIHo,0.0,-0.0344984,
Be7Au6,0.0,-0.034498100000000004,
AgCs,0.0,-0.0344979,
CoRuEr,0.0,-0.0344979,
Ni2InTm2,0.0,-0.0344975,
CaSn2Eu,0.0,-0.0344963,
CuRu2Pr2,0.0,-0.034496200000000005,
ZnSb2Dy,0.0,-0.0344956,
Si2NiTa2,0.0,-0.0344953,
Zn2CdHo3,0.0,-0.0344953,
Ni2Re,0.0,-0.0344946,
BPd6Ho2,0.0,-0.0344941,
SrIn2Tb,0.0,-0.034494,
Rb3CsTl,0.0,-0.0344938,
GeMoDy,0.0,-0.034493699999999995,
SiRu2Lu,0.0,-0.0344934,
GaAs3Hf2,0.0,-0.034493,
PAsEr2,0.0,-0.0344927,
Ca3In3Pt2,0.0,-0.034492600000000005,
B2ZnIr2,0.0,-0.034490900000000005,
Ga2ZrIr,0.0,-0.0344896,
Se2InGd,0.0,-0.0344895,
CrSe3HoTl,0.0,-0.0344889,
BrTb,0.0,-0.034488500000000005,
SrCdSb2Cs2,0.4544,-0.0344883,
Ni2TcPt,0.0,-0.0344881,
MgZn2Au2,0.0,-0.0344879,
Rh5Sb,0.0,-0.0344876,
Li2KBi2,0.0,-0.0344873,
Ni2In5Nd4,0.0,-0.0344873,
Al2Ag3Th,0.0,-0.034486800000000005,
B2NiW2,0.0,-0.0344858,
Pd7La,0.0,-0.0344853,
PTe3Cs3,0.8601,-0.034485,
C2TbW,0.0,-0.0344848,
YIn6La,0.0,-0.0344839,
AlGa2Ce6,0.0,-0.0344838,
OI2Cs4,0.9044,-0.0344836,
Ti2NbTl,0.0,-0.034482599999999995,
Si2PdIn3Er3,0.0,-0.0344819,
MoRuRh2,0.0,-0.0344819,
MnRh2Ho,0.0,-0.0344815,
Ag2CdNd,0.0,-0.034480899999999995,
ZrRuSn,0.0,-0.0344808,
MgRh2Dy2,0.0,-0.0344806,
ClSbLa2,0.0,-0.034479300000000004,
LiAg2Tl,0.0,-0.0344792,
NiGe3Th,0.0,-0.034479100000000006,
N3Er4,0.0,-0.0344784,
ZnTcSm2,0.0,-0.0344775,
B5Pr2Os3,0.0,-0.0344771,
MgInHo2,0.0,-0.034476999999999994,
Ti2InRe,0.0,-0.0344761,
Pd7Pr,0.0,-0.0344753,
SrI3,1.4296,-0.0344753,
Si2SmRe,0.0,-0.0344748,
CoSb2Pr,0.0,-0.0344736,
GeNbHo,0.0,-0.034473500000000004,
CoIn5Lu,0.0,-0.034472499999999996,
Sr3Au,0.0,-0.034471299999999996,
Cu2I2Hg,1.5374,-0.034470799999999996,
Pd5SnI2,0.0,-0.0344707,
Ti2MoAu,0.0,-0.034469900000000005,
LiIn4Au,0.0,-0.034469,
CuSe3HoPb,1.067,-0.0344686,
P2CeAu,0.0,-0.034468000000000006,
Ag5Ho,0.0,-0.0344673,
In3Te,0.0,-0.034467199999999996,
Ni2SnEr2,0.0,-0.0344667,
Ti3ZnPt2,0.0,-0.0344667,
Ti3ZnRe2,0.0,-0.0344667,
LiPdEr2,0.0,-0.0344664,
Ru2Rh,0.0,-0.0344664,
CuGe2In3Er3,0.0,-0.0344654,
Br6Cs2AuTl,0.0,-0.0344652,
Tc2In,0.0,-0.034465,
PdInSn,0.0,-0.0344649,
Ga3Ge2Dy3Ir,0.0,-0.034463900000000006,
Ni2Ir,0.0,-0.034463900000000006,
CoSb2La,0.0,-0.0344637,
Co2ZrIr,0.0,-0.0344604,
ZnInSm2,0.0,-0.0344601,
O7BaBi4,2.5488,-0.0344594,
Se6SnSb2Tl2,0.0,-0.0344593,
MgCd2Pt,0.0,-0.0344592,
BeZr2Re,0.0,-0.0344588,
ZrInTe,0.0,-0.0344587,
Cu4SnPu,0.0,-0.0344585,
YAgTe2,0.8079,-0.0344579,
TiSe4U,0.0,-0.0344576,