formula,bg,formation_energy,mp-id
Sm2Pt2Tl,0.0,-0.0614709,
PIr2Ac,0.0,-0.0614672,
AlIrU,0.0,-0.061467100000000004,
SbHg2Tl,0.0,-0.0614637,
RuW2Os,0.0,-0.0614606,
Er3Pt2Au,0.0,-0.0614559,
SiIr2Ac,0.0,-0.0614555,
RuWPt2,0.0,-0.0614539,
SnHf2Pt2,0.0,-0.061452599999999996,
CrHf6Bi2,0.0,-0.0614496,
CuTlTh,0.0,-0.0614484,
SmAuHg,0.0,-0.061442500000000004,
LuHf5,0.0,-0.0614416,
InHoPt4,0.0,-0.0614394,
Co2TlPa2,0.0,-0.0614354,
ZnRe5,0.0,-0.0614333,
RhHg2Pb,0.0,-0.0614333,
YTa2Os2,0.0,-0.0614305,
RhTaIr2,0.0,-0.0614295,
NdDyPb2,0.0,-0.0614266,
CdTmPt4,0.0,-0.061423200000000004,
BLu2Ir6,0.0,-0.0614228,
NdLuTl2,0.0,-0.061422199999999996,
Pr3Au2Tl3,0.0,-0.0614218,
GaRu2Pu2,0.0,-0.0614214,
SmGdBi,0.0,-0.061421300000000005,
NbWRe2,0.0,-0.061420499999999996,
PdHgTl2,0.0,-0.061419600000000005,
CoAsU2,0.0,-0.0614164,
Ce2Pt2Tl,0.0,-0.061416,
Tm3Ac,0.0,-0.0614146,
CdPtTl2,0.0,-0.061414,
SrBaPb4,0.1967,-0.061414,
Rh2SnPa2,0.0,-0.061411299999999995,
Pd2BiPa,0.0,-0.0614106,
EuTbPt2,0.0,-0.061404600000000004,
SPu,0.0,-0.0614041,
SiPt2Ac,0.0,-0.0614037,
GaHf6Bi2,0.0,-0.061402500000000006,
NaTl2Th,0.0,-0.061392499999999996,
AlAu2Th,0.0,-0.0613887,
InPt3,0.0,-0.061387300000000006,
SmTbPb2,0.0,-0.061385800000000004,
MoPt2Au,0.0,-0.0613843,
Dy2Au2Hg,0.0,-0.0613825,
CeAuHg,0.0,-0.0613822,
MgTl2Bi2,0.0,-0.0613808,
NiHf6Bi2,0.0,-0.061379800000000005,
RhTaOs2,0.0,-0.0613791,
RhTa5,0.0,-0.061378100000000005,
RbPt2Tl2,0.0,-0.061375900000000004,
MoTa5,0.0,-0.0613753,
AgAu2Pb,0.0,-0.0613747,
Lu2Os,0.0,-0.0613739,
RuPt3,0.0,-0.0613711,
BaPtTl,0.0,-0.0613639,
InHg2Pb,0.0,-0.0613598,
MoW2Re,0.0,-0.0613593,
PPtPa,0.0,-0.0613593,
Tm2Bi,0.0,-0.061356900000000006,
TcW2Re,0.0,-0.061356299999999996,
PrDyPb2,0.0,-0.0613536,
VHf6Bi2,0.0,-0.0613514,
Lu2Tl,0.0,-0.061350299999999997,
MgAu7,0.0,-0.0613502,
AlHg8,0.0,-0.061349200000000007,
RhW2Ir,0.0,-0.0613487,
RhHg4,0.0,-0.0613468,
AgLuBi2,0.0,-0.0613461,
Er2AuTl,0.0,-0.0613454,
GaAuTh,0.0,-0.0613451,
TbTmTl2,0.0,-0.061341299999999994,
RhW2Os,0.0,-0.061339599999999994,
TcW2Pt,0.0,-0.061337699999999995,
RbAu5,0.0,-0.061333399999999996,
CdErIr4,0.0,-0.0613312,
LaDyPb2,0.0,-0.0613301,
RuW2Pt,0.0,-0.061325899999999996,
LaLuTl2,0.0,-0.0613256,
CeTbPb2,0.0,-0.061324399999999994,
Sm2Ir2Tl,0.0,-0.0613207,
Er2IrAu,0.0,-0.0613202,
CsAuPb,0.0,-0.0613191,
RhIrPt2,0.0,-0.061319000000000005,
CAlTh3,0.0,-0.061315100000000004,
Ce2Os2Tl,0.0,-0.0613079,
Er3Os2Au,0.0,-0.0613064,
TcPt2Au,0.0,-0.061305,
SrAuPb2,0.0,-0.0613028,
Er2PtAu,0.0,-0.0613016,
MgAu2Pa,0.0,-0.061298000000000005,
PPt2Ac,0.0,-0.0612973,
AlOs5,0.0,-0.061296300000000005,
PmTbPb2,0.0,-0.0612815,
CaAu4Bi,0.0,-0.0612812,
AgAuTl2,0.0,-0.061281100000000005,
NaTl2Bi2,0.0,-0.0612807,
PPu,0.0,-0.0612804,
RhTmBi2,0.0,-0.061279200000000006,
Sb2AuPa,0.0,-0.0612764,
Tb4Bi3,0.0,-0.061275199999999995,
NiPt5,0.0,-0.0612727,
CdHg2Bi,0.0,-0.0612718,
SiIrPa,0.0,-0.061271,
GaAu2Pb2,0.0,-0.0612687,
Sb3Pb5,0.0,-0.061265,
GaHg2Ac,0.0,-0.0612643,
RhWPt2,0.0,-0.061263599999999994,
CdAu2Pb,0.0,-0.0612629,
MgIrNp,0.0,-0.0612621,
RbTl2Bi,0.0,-0.0612505,
AlPtU,0.0,-0.061248399999999995,
KTl2Ac,0.0,-0.0612464,
Nd2Au2Pb,0.0,-0.0612453,
InDyPt4,0.0,-0.0612447,
SiOsPa,0.0,-0.0612411,
MnTa8,0.0,-0.0612306,
TbTmIr2,0.0,-0.061228700000000004,
DyErTl2,0.0,-0.0612286,
Pd2HgPu,0.0,-0.061223599999999996,
SbAu3,0.0,-0.0612214,
DyLuBi,0.0,-0.061218600000000005,
YAu2Pb,0.0,-0.0612158,
Er3Ir2Hg,0.0,-0.0612151,
AgAc,0.0,-0.061213500000000004,
ZnHg7,0.0,-0.0612104,
PdHg4,0.0,-0.0612044,
ErLuHg2,0.0,-0.0612037,
TcTaPt2,0.0,-0.061197600000000005,
HoTl,0.0,-0.0611971,
NiRu2Pu2,0.0,-0.0611971,
InHg4,0.0,-0.061195,
FeTa8,0.0,-0.0611945,
Rh2AuNp,0.0,-0.061193199999999996,
Sm2Pt3,0.0,-0.0611927,
PmEuTl2,0.0,-0.0611926,
ZnAuPa,0.0,-0.0611814,
CdErPt4,0.0,-0.0611811,
NdTbPb2,0.0,-0.061180700000000005,
CuHf6Bi2,0.0,-0.061180399999999996,
TiHf6Bi2,0.0,-0.0611667,
InAu2Tl,0.0,-0.0611632,
NdGdBi,0.0,-0.0611625,
RuTaPt2,0.0,-0.0611622,
Er3Pt2Hg,0.0,-0.0611588,
Er2OsAu,0.0,-0.0611581,
SiAu5Tl,0.0,-0.061157699999999995,
NdAuHg,0.0,-0.0611526,
MoTaRe2,0.0,-0.0611487,
SiAuU,0.0,-0.0611458,
MgTl5,0.0,-0.0611457,
SnI2Th2,0.0,-0.0611414,
Pr2Au2Pb,0.0,-0.061132599999999995,
CaPt4Tl,0.0,-0.061130899999999995,
Ho2HgPb,0.0,-0.061130699999999996,
EuTmHg2,0.0,-0.0611295,
PSbTh2,0.0,-0.061125599999999995,
CdAuTl2,0.0,-0.0611185,
CuPt5,0.0,-0.0611183,
CoTa8,0.0,-0.0611153,
MoTaPt2,0.0,-0.0611125,
HoPt,0.0,-0.061112099999999996,
InHf2Ir2,0.0,-0.0611117,
RhW2Pt,0.0,-0.0611113,
PrTbPb2,0.0,-0.0611068,
InTaOs2,0.0,-0.0611057,
CdHoIr4,0.0,-0.0611036,
La2Au2Pb,0.0,-0.061103000000000005,
Ag2TlPu,0.0,-0.0610998,
Nd2Pt2Tl,0.0,-0.0610989,
SrTl2Pb,0.0,-0.0610978,
RhPt3,0.0,-0.061095199999999995,
CrW5,0.0,-0.0610947,
MnU,0.0,-0.0610908,
HoIr,0.0,-0.0610886,
PrGdBi,0.0,-0.061088500000000004,
Sb2IrTh,0.0,-0.0610881,
LaTbPb2,0.0,-0.0610876,
InPtBi,0.0,-0.061087499999999996,
PrGdAu2,0.0,-0.0610799,
InTbPt4,0.0,-0.0610752,
EuTmPb,0.0,-0.0610747,
Ho3Ir2Pt,0.0,-0.0610732,
RuPt2Au,0.0,-0.0610664,
InPt2Au,0.0,-0.0610652,
Lu3Hg2,0.0,-0.0610642,
CaHg7,0.0,-0.0610606,
PrAuHg,0.0,-0.06106,
SnHg2Tl,0.0,-0.06106,
Ho2IrPt,0.0,-0.0610583,
Ni2TlPa2,0.0,-0.061058100000000004,
ZrPt2Au,0.0,-0.0610575,
RhAu2Tl,0.0,-0.061057299999999995,
CdOsIr2,0.0,-0.0610572,
KTl2Pb2,0.0,-0.0610559,
CsAuHg2,0.0,-0.0610503,
RhTePu,0.0,-0.0610502,
Cs2PtBi2,0.3792,-0.061049900000000004,
CdReIr2,0.0,-0.0610489,
KPt4Pb,0.0,-0.0610488,
Rh2PtU,0.0,-0.0610488,
SbDyTh,0.0,-0.0610454,
RhSb2Th2,0.0,-0.0610451,
KAu2Bi2,0.0,-0.0610408,
KHgTl4,0.0,-0.061036099999999996,
GeTaTh,0.0,-0.0610353,
BaAuTl,0.0,-0.0610353,
ZnIrTh,0.0,-0.0610289,
LaAuHg,0.0,-0.0610287,
NiRh2Pu2,0.0,-0.0610243,
Er3Os2Hg,0.0,-0.0610221,
ZrIrBi,0.4465,-0.0610206,
AgPt2Tl,0.0,-0.0610179,
YPt2Tl,0.0,-0.0610179,
YIr3,0.0,-0.0610162,
TcW3,0.0,-0.0610148,
NiTa8,0.0,-0.061013399999999995,
LiAu7,0.0,-0.061005000000000004,
SrHg2Tl2,0.0,-0.061003999999999996,
ZnHf6Bi2,0.0,-0.0610028,
Sb2PtTh,0.0,-0.0610024,
ZnPt5,0.0,-0.061000900000000004,
AgHgTl2,0.0,-0.0610005,
CaHg2Th,0.0,-0.061,
LiTl2Th,0.0,-0.060998,
ZrPb2,0.0,-0.060996299999999996,
Ru2HfPu,0.0,-0.060994799999999995,
Ru2InPa2,0.0,-0.0609947,
MoW3,0.0,-0.0609934,
AsTlPb2,0.0,-0.060993000000000006,
Tb2TlPb,0.0,-0.0609925,
SnHfOs2,0.2702,-0.0609875,
Te3Bi4,0.0994,-0.0609864,
CdHf3Os2,0.0,-0.060981499999999994,
RbAu2Tl2,0.0,-0.0609803,
RbPtPb2,0.0,-0.0609784,
TbErTl2,0.0,-0.0609778,
AlPt2Ac,0.0,-0.0609771,
Pr2Pt2Tl,0.0,-0.0609743,
SbAu2Hg,0.0,-0.060970199999999995,
SiPtPa,0.0,-0.0609694,
SrHgPb2,0.0,-0.0609687,
InHf2Pt2,0.0,-0.060968400000000006,
SbTeNp,0.0,-0.060967799999999996,
La2Pt2Tl,0.0,-0.0609673,
SiZnPu2,0.0,-0.060966700000000006,
Tb2Au2Hg,0.0,-0.060965899999999996,
CdHoPt4,0.0,-0.0609617,
RhSbPu,0.0,-0.060960900000000005,
Dy2AuPb,0.0,-0.060958,
RhTaPt2,0.0,-0.0609533,
TeTl2,0.2551,-0.0609506,
AgPb2,0.0,-0.0609458,
SnHfIr2,0.0,-0.060945099999999995,
TeAuPb,0.0,-0.0609448,
Mn2PbTh2,0.0,-0.0609413,
Nd2Ir2Tl,0.0,-0.0609402,
Fe2PbTh2,0.0,-0.0609393,
NbTaRe2,0.0,-0.0609385,
ZnPtTh,0.0,-0.0609364,
NPu,0.0,-0.060934199999999994,
LiTl2Bi2,0.0,-0.060926499999999995,
AsPa,0.0,-0.0609236,
SmPb,0.0,-0.0609226,
FeU,0.0,-0.0609218,
RhErBi2,0.0,-0.060918999999999994,
SnSbPt5,0.0,-0.0609116,
Te2Np,0.0,-0.0609114,
ErAu,0.0,-0.0609082,
AsAu5,0.0,-0.0609076,
Tm5Pt2Bi,0.0,-0.060905900000000006,
Er2HgTl,0.0,-0.060904200000000006,
DyHoTl2,0.0,-0.0608994,
SrHg5,0.0,-0.060897599999999996,
Nd2Ir3,0.0,-0.0608951,
TbLuBi,0.0,-0.060890099999999996,
MnAu5,0.0,-0.060887000000000004,
SmHg2,0.0,-0.0608855,
Pr2Ir2Tl,0.0,-0.060885100000000004,
ErTmBi,0.0,-0.0608788,
CeHg2,0.0,-0.0608783,
Lu2Au,0.0,-0.060874899999999996,
AlIr5,0.0,-0.0608744,
CsHg3,0.0,-0.0608726,
SbAuPb,0.0,-0.060872100000000005,
ZrHg2Pb,0.0,-0.060870600000000004,
HoLuHg2,0.0,-0.0608658,
BaPt2,0.0,-0.060865499999999996,
FeHf6Pb2,0.0,-0.0608596,
MnHf6Pb2,0.0,-0.0608575,
Sm2Au2Tl,0.0,-0.0608559,
ZnTlTh,0.0,-0.0608533,
SnAu3,0.0,-0.0608528,
CeSmPb2,0.0,-0.0608489,
AlIr2Ac,0.0,-0.0608487,
PdPt3,0.0,-0.0608458,
TmHf5,0.0,-0.0608442,
TbErIr2,0.0,-0.0608399,
PdSb2Th2,0.0,-0.0608356,
AgRePt2,0.0,-0.060829999999999995,
Rh2InPa2,0.0,-0.060827599999999996,
CePb,0.0,-0.060823300000000004,
CdAc,0.0,-0.060819899999999996,
GaPb3,0.0,-0.060819200000000004,
BaIr2,0.0,-0.0608191,
CoHf6Pb2,0.0,-0.060818199999999996,
BrAu2Tl2,0.0,-0.0608158,
Lu3Pb,0.0,-0.0608145,
Nd2Pt3,0.0,-0.0608084,
CdHgTl2,0.0,-0.0608061,
La2Ir2Tl,0.0,-0.0608003,
CrAu5,0.0,-0.0607985,
CaAu4Pb,0.0,-0.060798000000000005,
RhPt2Au,0.0,-0.060797199999999996,
Ho3Ir2Au,0.0,-0.0607967,
AgHg2Pb,0.0,-0.0607966,
ZrTaOs2,0.0,-0.060789,
ZnOsTh,0.0,-0.060786299999999995,
LiTl5,0.0,-0.060777700000000004,
CrIr4,0.0,-0.060774299999999996,
PClPu2,0.0,-0.060773,
ZrTaIr2,0.0,-0.060771,
MnIr4,0.0,-0.0607688,
SbTa4,0.0,-0.060768,
CdDyPt4,0.0,-0.060767600000000005,
SiAu6,0.0,-0.0607644,
Cs2AuBi2,0.0,-0.060763199999999996,
EuErHg2,0.0,-0.0607614,
Lu5Ir2,0.0,-0.060761,
Ho3Pt2Au,0.0,-0.0607594,
GeAu5,0.0,-0.0607592,
ZnRu2Pu2,0.0,-0.0607555,
Ge2Ir3Pu,0.0,-0.0607536,
CeTmTl2,0.0,-0.060750700000000005,
As2Pb2Pu,0.0,-0.0607493,
Sn2Pt5,0.0,-0.0607489,
Co2PbTh2,0.0,-0.0607404,
SnHfPt2,0.0,-0.0607397,
PmSmPb2,0.0,-0.060734,
GaHg2Pb2,0.0,-0.0607288,
CdTbIr4,0.0,-0.0607232,
NiHf6Pb2,0.0,-0.060720500000000004,
ZnAg2Th3,0.0,-0.0607177,
CaPt5,0.0,-0.0607158,
TeAuHg2,0.0,-0.0607147,
Pd2SnPa2,0.0,-0.060713500000000004,
YPt3,0.0,-0.0607134,
CePmPb2,0.0,-0.0607098,
BrPtPb2,0.0,-0.0607079,
AgHg4,0.0,-0.0607074,
Tm6IrBi2,0.0,-0.0607061,
SbTbTh,0.0,-0.0607056,
TmHg,0.0,-0.060703,
InCePt4,0.0,-0.0607019,
S3AsNp4,0.0,-0.0606968,
La2Ir3,0.0,-0.060695099999999995,
SbAuHg2,0.0,-0.0606924,
Pd2BiTh,0.0,-0.060692,
CdRePt2,0.0,-0.060691499999999995,
LiPt2Th,0.0,-0.060691499999999995,
InSmPt4,0.0,-0.060685899999999994,
Mn2ThPu,0.0,-0.060680700000000004,
PmEuPt2,0.0,-0.060680700000000004,
ClHg7,0.0,-0.0606806,
ZnTa8,0.0,-0.0606802,
InPtAu2,0.0,-0.060677,
Pr2Pt3,0.0,-0.060676499999999994,
Pd2AuNp,0.0,-0.0606729,
CTeTh2,0.0,-0.0606708,
PdBaTl4,0.0,-0.0606702,
Ho2AuTl,0.0,-0.0606689,
PmTmTl2,0.0,-0.0606687,
Sn2Pt3Bi,0.0,-0.060662999999999995,
Tm6OsBi2,0.0,-0.060659599999999994,
CdEuAu4,0.0,-0.0606587,
SbTl2,0.0,-0.0606576,
Tm6PtBi2,0.0,-0.060655099999999997,
PdSbPu,0.0,-0.060654400000000004,
Sm2Pt2Hg,0.0,-0.0606537,
TbHoTl2,0.0,-0.0606487,
Sb2Np,0.0,-0.0606485,
RhBaPb3,0.0,-0.0606438,
MgAu2Th,0.0,-0.0606429,
FeAu5,0.0,-0.0606395,
La2Pt3,0.0,-0.0606372,
CeNdPb2,0.0,-0.060637,
CdPb2,0.0,-0.0606342,
InSbPt5,0.0,-0.0606303,
FeIr4,0.0,-0.0606291,
BaHgTl,0.0,-0.0606251,
ScPb3,0.0,-0.060623399999999994,
AlRe5,0.0,-0.0606229,
Ho2IrAu,0.0,-0.0606216,
NdSmPb2,0.0,-0.0606201,
DyTl,0.0,-0.0606169,
SiRePa,0.0,-0.0606158,
RhTlPb,0.0,-0.060615,
RhCePt4,0.0,-0.0606096,
BTm2Ir6,0.0,-0.060608600000000006,
Ho2PtAu,0.0,-0.0606074,
CdHg2Pb,0.0,-0.0606064,
NdHg2,0.0,-0.0606059,
AgWPt2,0.0,-0.0606053,
NbW3,0.0,-0.060600499999999995,
RhHfIr2,0.0,-0.060599400000000005,
CdTbPt4,0.0,-0.060598799999999994,
Ho3Os2Au,0.0,-0.0605981,
ZnRh2Pu2,0.0,-0.0605979,
SmLuAu2,0.0,-0.060596699999999996,
YHgTl2,0.0,-0.0605962,
CoHgTh,0.0,-0.0605959,
RhHoBi2,0.0,-0.060593,
ErHf5,0.0,-0.060589399999999995,
CaAu2Ac,0.0,-0.0605881,
Sb2AuTh,0.0,-0.060583399999999996,
CoU,0.0,-0.0605829,
NClPu2,0.0,-0.060579999999999995,
CuTcTh2,0.0,-0.060577,
CdHg4,0.0,-0.060573300000000004,
CePrPb2,0.0,-0.0605713,
KHg2Bi2,0.0,-0.0605681,
DyLuHg2,0.0,-0.060567100000000006,
Cs3Pt7,0.0,-0.060560699999999995,
AlAuU,0.0,-0.0605594,
Pd2OsU,0.0,-0.0605593,
PmPb,0.0,-0.0605565,
TcTa2Os,0.0,-0.0605541,
PrSmPb2,0.0,-0.0605524,
ZrPtAu2,0.0,-0.0605522,
Dy2HgPb,0.0,-0.0605501,
GeHf2Ir3,0.0,-0.0605491,
NaPt2Bi2,0.0,-0.060548000000000005,
TiAu5,0.0,-0.0605476,
LaSmPb2,0.0,-0.060547,
AlIrPa,0.0,-0.060545699999999994,
RbHg2Tl2,0.0,-0.0605439,
CeTmIr2,0.0,-0.060540199999999995,
LaCePb2,0.0,-0.0605394,
Pd2IrU,0.0,-0.0605382,
TcTa4,0.0,-0.0605373,
Ga3Os2Th3,0.0,-0.060535,
NdPmPb2,0.0,-0.0605321,
InNdPt4,0.0,-0.0605319,
LiPtTl4,0.0,-0.060527500000000005,
Co2Hf4Pb5,0.0,-0.0605263,
PIrTh,0.0,-0.0605262,
Ni2PbTh2,0.0,-0.060524999999999995,
PdBaPb3,0.0,-0.0605245,
CuHf6Pb2,0.0,-0.0605222,
PrHg2,0.0,-0.0605218,
NdPb,0.0,-0.06052129999999999,
Cs2HgBi2,0.0,-0.0605208,
InTePt5,0.0,-0.060518999999999996,
CdHf3Re2,0.0,-0.060517600000000005,
AgTmBi2,0.0,-0.0605174,
RhPtAu2,0.0,-0.0605135,
Ho3Ir2Hg,0.0,-0.060512300000000005,
NiCeTl5,0.0,-0.0605119,
InHg2Tl,0.0,-0.0605085,
InLaIr4,0.0,-0.0605078,
ScAu5,0.0,-0.060502600000000004,
Nd2Au2Tl,0.0,-0.0605008,
RuTa4,0.0,-0.060500700000000004,
PrTmTl2,0.0,-0.0605001,
CdTlBi,0.0,-0.0605001,
DyPt,0.0,-0.06049860000000001,
LaHg2,0.0,-0.0604969,
CeLuAu2,0.0,-0.0604962,
NiHgTh,0.0,-0.0604926,
SeAuPb2,0.0,-0.0604902,
YHg2Pb,0.0,-0.060488,
AgPt3,0.0,-0.0604856,
TbHoIr2,0.0,-0.0604824,
MoTa2Os,0.0,-0.060481,
CaPt4Au,0.0,-0.0604803,
CdWPt2,0.0,-0.0604795,
InAuBi,0.0,-0.0604793,
MgTl2Ac,0.0,-0.0604788,
RuHfPt2,0.0,-0.0604786,
CoAu5,0.0,-0.0604781,
ZnHg2Ac,0.0,-0.0604771,
InPrPt4,0.0,-0.0604768,
Tm6ReBi2,0.0,-0.0604754,
InTlPb,0.0,-0.0604732,
SrBi2,0.0,-0.060472,
InLaPt4,0.0,-0.0604707,
Ba2Tl2Pb,0.0,-0.0604702,
PrPmPb2,0.0,-0.060468600000000004,
LaTmTl2,0.0,-0.0604679,
Ho3Pt2Hg,0.0,-0.060465200000000004,
PdTlPb,0.0,-0.0604651,
Rh2PbTh,0.0,-0.0604632,
PdCePt4,0.0,-0.060462,
PAu2Ac,0.0,-0.0604616,
PmGdHg2,0.0,-0.0604605,
TcTaW2,0.0,-0.0604581,
CdHf2Ir2,0.0,-0.060456899999999994,
Ho2OsAu,0.0,-0.060455100000000005,
SiPt5,0.0,-0.0604502,
Tb2AuPb,0.0,-0.060449199999999995,
CdPt3,0.0,-0.0604482,
YHg4,0.0,-0.0604479,
DyIr,0.0,-0.0604477,
HoTmBi,0.0,-0.0604462,
LaPmPb2,0.0,-0.0604407,
Dy3Ir2Pt,0.0,-0.060439799999999995,
Rh2AuU,0.0,-0.0604389,
KPt4Tl,0.0,-0.0604319,
Dy2IrPt,0.0,-0.0604293,
EuHoHg2,0.0,-0.060428800000000005,
NbHfOs2,0.0,-0.0604275,
FeRe4,0.0,-0.0604245,
AgHf2Pt2,0.0,-0.0604229,
InSnPt5,0.0,-0.0604193,
AlOsPa,0.0,-0.060417200000000004,
SmErTl2,0.0,-0.0604142,
Tm6AuBi2,0.0,-0.060412799999999996,
TcTa2Re,0.0,-0.060411700000000006,
SbHg3,0.0,-0.0604093,
YPb2,0.0,-0.0604086,
BaPtAu,0.0,-0.060407499999999996,
Er2AuHg,0.0,-0.060406,
PrPb,0.0,-0.0604022,
PdHoBi2,0.0,-0.0603985,
RhSnPu,0.0,-0.0603974,
Tm2Pb,0.0,-0.060395899999999995,
Er2Bi,0.0,-0.0603914,
CaPt4Hg,0.0,-0.060390700000000005,
RhHfPt2,0.0,-0.0603904,
ZrHf2Pt2,0.0,-0.060389000000000005,
AlHf6Bi2,0.0,-0.0603872,
Pr2Au2Tl,0.0,-0.0603869,
BrHg2Tl2,0.0,-0.0603866,
CeErTl2,0.0,-0.0603857,
Pd2PtU,0.0,-0.0603778,
Ho3Pb2,0.0,-0.0603756,
CSbTh2,0.0,-0.0603739,
PrNdPb2,0.0,-0.0603727,
La2Pt2Au,0.0,-0.0603716,
SnTeNp,0.0,-0.0603698,
La2Hg2Pb,0.0,-0.0603691,
Eu2Tl,0.0,-0.060368000000000005,
SrAu2Bi,0.0,-0.0603669,
CdAu2Tl,0.0,-0.0603668,
YPt2Au,0.0,-0.0603666,
InHfIr2,0.0,-0.0603658,
CdCeIr4,0.0,-0.060363599999999996,
Mn2Ir3Pu,0.0,-0.060363599999999996,
InAu3,0.0,-0.0603615,
TbDyTl2,0.0,-0.0603594,
ClPu,0.0,-0.060357799999999996,
RuTa2Os,0.0,-0.0603577,
CoIr4,0.0,-0.060357,
HoHf5,0.0,-0.0603558,
NdGdHg2,0.0,-0.0603549,
La2Au2Tl,0.0,-0.0603537,
PPtTh,0.0,-0.0603506,
NdLuAu2,0.0,-0.0603473,
LaNdPb2,0.0,-0.0603463,
ZnHf6Pb2,0.0,-0.060344,
MoTa4,0.0,-0.0603431,
MoTaW2,0.0,-0.0603365,
YAu2Tl,0.0,-0.060335900000000005,
ErTmHg2,0.0,-0.0603319,
LaPb,0.0,-0.060330100000000005,
AlPt5,0.0,-0.060327599999999995,
SbHgPb,0.0,-0.060326500000000005,
SrAu4,0.0,-0.0603244,
Ho3Os2Hg,0.0,-0.060317100000000005,
Br2SbPu2,0.0,-0.0603142,
CITh2,0.0,-0.060311300000000005,
RuTa2Ir,0.0,-0.0603101,
NaTl2Ac,0.0,-0.0603095,
CaAu2Pb2,0.0,-0.0603092,
SrPt2Hg2,0.0,-0.0603075,
TbLuHg2,0.0,-0.060307,
RhDyBi2,0.0,-0.0603062,
PmErTl2,0.0,-0.060305700000000004,
ZrTaRe2,0.0,-0.060305199999999996,
CdSmIr4,0.0,-0.0603027,
Er3Ac,0.0,-0.0603022,
MoTa2Ir,0.0,-0.0603022,
BTm2Pt6,0.0,-0.0602973,
PdPtAu2,0.0,-0.060296300000000004,
CdHf2Pt2,0.0,-0.060295900000000006,
KPt2Pb2,0.0,-0.0602933,
RhTa4,0.0,-0.0602902,
La3Au5,0.0,-0.060287999999999994,
NbAu3,0.0,-0.0602877,
KAu4Pb,0.0,-0.060285899999999996,
Ru2CdPa2,0.0,-0.0602835,
MgHg7,0.0,-0.0602823,
PdHfIr2,0.0,-0.0602817,
SiPu,0.0,-0.0602804,
Nd2Pt2Hg,0.0,-0.060277500000000005,
LaPrPb2,0.0,-0.0602752,
AlPtPa,0.0,-0.0602722,
NiAu5,0.0,-0.060271099999999994,
Sn2Pb2Bi,0.0,-0.0602674,
BEr2Ir6,0.0,-0.0602577,
AsAuPb2,0.0,-0.060257,
Te3Ac2,1.9574,-0.0602568,
NaAu2Th,0.0,-0.0602553,
RuTa2Re,0.0,-0.0602545,
NiHgTl3,0.0,-0.060249000000000004,
MgIr5,0.0,-0.0602443,
Cs3Au3Bi2,1.0258,-0.0602442,
YGdPb2,0.0,-0.0602437,
SnAuPb,0.0,-0.0602414,
PI2Np2,0.0,-0.060241100000000006,
Ge2HgTh2,0.0,-0.0602404,
Ho2HgTl,0.0,-0.0602376,
Mn2TlTh2,0.0,-0.0602368,
Nd2Ir2Hg,0.0,-0.0602357,
AgPt2Au,0.0,-0.0602277,
CdCePt4,0.0,-0.0602257,
HoAu,0.0,-0.060225,
ZnAuTh,0.0,-0.060224400000000004,
PdLaPt4,0.0,-0.060221,
CaAu4Tl,0.0,-0.0602133,
CdSmPt4,0.0,-0.060210900000000005,
SrTl3,0.0,-0.0602085,
NdErTl2,0.0,-0.0602036,
LaLuAu2,0.0,-0.0602005,
MoTa2Re,0.0,-0.0601999,
CuAu5,0.0,-0.060198,
Tm6WBi2,0.0,-0.0601937,
Ge2Ir3Np,0.0,-0.060185,
SrTa2Ir2,0.0,-0.0601826,
Fe2TlTh2,0.0,-0.0601779,
InPtPb,0.0,-0.060176600000000004,
MnPt4,0.0,-0.0601764,
BeIr5,0.0,-0.0601758,
RhTa2Ir,0.0,-0.0601748,
AsHg2Tl2,0.0,-0.0601721,
BaAu2,0.0,-0.0601714,
SiAuPa,0.0,-0.0601692,
Dy3Ir2Au,0.0,-0.0601692,
CdPt2Au,0.0,-0.0601691,
N3Th4,0.0,-0.060169,
Rh2Tm4Pb5,0.0,-0.0601678,
AgErBi2,0.0,-0.060167200000000004,
YPtBi,0.0,-0.0601637,
TbDyIr2,0.0,-0.0601632,
SeHg5,0.0,-0.0601632,
SmLuBi,0.0,-0.060162,
LiPt4Pb,0.0,-0.0601616,
SmErIr2,0.0,-0.06016,
ZrAu3,0.0,-0.0601599,
CeErIr2,0.0,-0.060155,
PdAu3,0.0,-0.0601549,
RuTa2Pt,0.0,-0.0601546,
RhTa2Os,0.0,-0.060152000000000004,
BrHg5,0.0,-0.0601512,
Pr2Pt2Hg,0.0,-0.0601509,
DyHf5,0.0,-0.0601485,
CeLuBi,0.0,-0.0601419,
Dy3Pt2Au,0.0,-0.060141599999999996,
La2Pt2Hg,0.0,-0.060140700000000005,
NaTl2Pb2,0.0,-0.0601372,
EuDyHg2,0.0,-0.0601361,
SAsU2,0.0,-0.060131,
AsTl2Pb,0.0,-0.0601282,
PdSnPu,0.0,-0.060126,
CdNdIr4,0.0,-0.0601237,
NiIr4,0.0,-0.0601228,
Pd2InPa2,0.0,-0.060121600000000004,
Cs3Au7,0.0,-0.060121600000000004,
ZrHfOs2,0.0,-0.0601169,
PdHfPt2,0.0,-0.060116100000000006,
PdDyBi2,0.0,-0.060116,
Ru2SnTh2,0.0,-0.0601143,
YLaIr4,0.0,-0.060113799999999995,
TbTl,0.0,-0.060113599999999996,
Rh2CdPa2,0.0,-0.0601116,
InIrPb,0.0,-0.060107799999999996,
InHfPt2,0.0,-0.0601058,
CdSbPt5,0.0,-0.0601045,
LaErTl2,0.0,-0.0601041,
RuTaAu2,0.0,-0.0601029,
GaRu2Np2,0.0,-0.0601004,
GaU,0.0,-0.0601002,
NaBi3,0.0,-0.060099400000000004,
NaAu2Bi2,0.0,-0.0600983,
SiIrTh,0.0,-0.0600962,
AlTa8,0.0,-0.060092799999999995,
AlAu2Ac,0.0,-0.0600899,
ZnPb3,0.0,-0.060084200000000004,
ZnPd2Pu2,0.0,-0.0600824,
Tm5Ir3,0.0,-0.0600814,
AgBaPb3,0.0,-0.0600786,
Dy2AuTl,0.0,-0.0600714,
Ba2Au2Bi,0.0,-0.060069000000000004,
NiU,0.0,-0.060067100000000005,
DyTmBi,0.0,-0.060066299999999996,
InAu2Hg,0.0,-0.0600661,
CrPt4,0.0,-0.0600633,
SbSmTh,0.0,-0.060062,
BaEuTl2,0.0,-0.0600587,
RhTbBi2,0.0,-0.0600584,
CdNdPt4,0.0,-0.0600577,
SbLaAu4,0.0,-0.0600551,
CeHoTl2,0.0,-0.0600549,
CdPrIr4,0.0,-0.0600535,
Lu2Hg,0.0,-0.060051499999999994,
Lu3Ir,0.0,-0.0600476,
PHg2Ac,0.0,-0.0600454,
CuHgTh,0.0,-0.0600443,
CaPt2Au3,0.0,-0.0600402,
InHf2Au2,0.0,-0.0600398,
BaBi,0.0,-0.0600391,
Tm6IrPb2,0.0,-0.0600379,
Tb2HgPb,0.0,-0.0600379,
AgLaPt4,0.0,-0.0600365,
CsAuTl,0.0,-0.060036099999999995,
Rh2SnTh2,0.0,-0.0600317,
CdTePt5,0.0,-0.060030900000000005,
Cs2Tl2Bi,0.0,-0.0600295,
CdLaIr4,0.0,-0.060027000000000004,
SiOsTh,0.0,-0.0600268,
Ge2AcPu,0.0,-0.060026,
SnEu2Ir3,0.0,-0.0600239,
Sm2Au2Hg,0.0,-0.0600227,
MoTa2Pt,0.0,-0.060022599999999995,
KPt5,0.0,-0.0600219,
MnHf6Tl2,0.0,-0.0600206,
FeHf6Tl2,0.0,-0.0600205,
SiPtTh,0.0,-0.0600185,
ZrHg2Tl,0.0,-0.0600163,
BaPtHg,0.0,-0.060015700000000005,
SnEu2Pt3,0.0,-0.0600144,
RhTa2Pt,0.0,-0.0600062,
CdPrPt4,0.0,-0.0600027,
Dy2IrAu,0.0,-0.060001,
CdTaPt2,0.0,-0.0600002,
NbHgBi,0.0,-0.059997,
HoTmHg2,0.0,-0.059994,
Co2TlTh2,0.0,-0.0599935,
Dy2PtAu,0.0,-0.059992,
CdLaPt4,0.0,-0.059989100000000004,
Tm6OsPb2,0.0,-0.059989,
ZnAu5,0.0,-0.0599889,
FePt4,0.0,-0.0599865,
YTaOs2,0.0,-0.0599859,
AgPtAu2,0.0,-0.0599827,
YPtAu2,0.0,-0.0599826,
SbCeTh,0.0,-0.0599825,
YIrBi,0.0,-0.0599791,
AsHgPb2,0.0,-0.0599786,
YTaIr2,0.0,-0.0599786,
PmHoTl2,0.0,-0.0599771,
Tm6PtPb2,0.0,-0.059974,
CoHf6Tl2,0.0,-0.0599718,
Pd2PbTh,0.0,-0.0599711,
YLaOs4,0.0,-0.0599698,
Dy3Os2Au,0.0,-0.059969499999999995,
Er5Pt2Bi,0.0,-0.059969299999999996,