formula,bg,formation_energy,mp-id
CoIn2Tm6,0.0,-0.0442498,
LiYTl2,0.0,-0.044249699999999996,
FeGaPt2,0.0,-0.0442492,
AlErIr,0.0,-0.044248800000000005,
BrHg,1.6486,-0.044248600000000006,
Se2RbPu,0.0,-0.044248600000000006,
CuPm2Tl,0.0,-0.0442462,
NbTe2Hg,0.0,-0.0442436,
YSb2Tl,0.0,-0.0442433,
MgAgTh,0.0,-0.0442424,
Ag2LaAu,0.0,-0.044241300000000004,
Be2TaOs2,0.0,-0.0442412,
InSn2Ir,0.0,-0.044239600000000004,
GeLaHg,0.0,-0.0442393,
MgErPb,0.0,-0.0442393,
Ti2LaPt2,0.0,-0.044238799999999995,
Pd2TmLu,0.0,-0.0442377,
YPdAu,0.0,-0.0442364,
SrCd2Hg2,0.0,-0.044236,
AgSnEu2,0.0,-0.044235,
MnGa3Ge2Th3,0.0,-0.0442349,
Al3PdU2,0.0,-0.0442346,
In2GdHo,0.0,-0.044234499999999996,
CaYHg2,0.0,-0.044234,
MgSn2Tl2,0.0,-0.044232999999999995,
Sr3Pd2Tl3,0.0,-0.0442329,
GaLaOs,0.0,-0.0442325,
Y3RuPt2,0.0,-0.0442323,
Cd2SmAu,0.0,-0.044232,
TcRu2Os,0.0,-0.0442315,
Fe2WIr,0.0,-0.0442309,
FeGa3Ge2Th3,0.0,-0.0442299,
RhIGd,0.0,-0.0442293,
CSm2Pb,0.0,-0.0442283,
Si4Er3Os4,0.0,-0.0442279,
ZrAgAu,0.0,-0.044227600000000006,
NONd6Pb2,0.0,-0.0442274,
NNd2Pb,0.0,-0.0442268,
ZnSrAu2,0.0,-0.0442265,
Sb3Tb5,0.0,-0.0442256,
Mg2BaPt3,0.0,-0.0442252,
CuSm2Os,0.0,-0.044223399999999996,
CuTe2Er6,0.0,-0.044222700000000004,
CLa3Bi,0.0,-0.044222700000000004,
Cd2IBi,0.0,-0.0442223,
KCs2Hg2,0.0,-0.0442206,
Y6WBi2,0.0,-0.044219499999999995,
CuGeIr2,0.0,-0.044218400000000005,
NdSm3,0.0,-0.0442163,
Co2ReIr,0.0,-0.0442156,
Ge2Tm2Pb,0.0,-0.0442148,
Ag4HgTl,0.0,-0.0442148,
In2TeTl,0.0,-0.0442143,
B2Ta2W,0.0,-0.0442132,
As2AgU,0.0,-0.044212,
Cd4HgPb,0.0,-0.0442108,
LiCdPtTl,0.0,-0.0442095,
Mg2Sr3Bi4,0.0,-0.044208599999999994,
TiGaPt2,0.0,-0.0442056,
MoTc2Ir,0.0,-0.0442035,
SiSPu,0.0,-0.0442035,
AgCs2Au,0.0,-0.044203400000000004,
ZrSbHf,0.0,-0.044203400000000004,
LiSbHg2,0.0,-0.0442018,
Ge4Ba3Ir4,0.0,-0.0442012,
Ge2CsTl2,0.0,-0.044201,
Ga3Tm3Pt2,0.0,-0.044198799999999996,
SiFeU,0.0,-0.0441978,
FeLa3Tl,0.0,-0.044195099999999994,
Sn2Gd,0.0,-0.044195,
CoIr,0.0,-0.0441948,
ScTiOs2,0.0,-0.0441941,
ScTiIr2,0.0,-0.0441939,
SePdBi,0.0,-0.044193199999999995,
O2Pu,0.0,-0.044193199999999995,
Be2TaIr2,0.0,-0.0441924,
KSrTl2,0.0,-0.044192300000000004,
AlErPt,0.0,-0.0441903,
CrNiRe2,0.0,-0.0441902,
GaRbAu2,0.0,-0.0441895,
NiIn2Tm6,0.0,-0.0441887,
PmSm,0.0,-0.044187699999999996,
NaSn2Tl2,0.0,-0.0441871,
CuDyHg,0.0,-0.044187,
Si4Er3Pt4,0.0,-0.0441867,
KAgHg2,0.0,-0.0441848,
Rh3Pb,0.0,-0.044183999999999994,
LiPd2Pb2,0.0,-0.044183799999999995,
MnAu,0.0,-0.0441833,
NiTbHg,0.0,-0.0441831,
Fe2WPt,0.0,-0.0441825,
LiEr2Pt,0.0,-0.044180199999999996,
SiDyIr,0.0,-0.044180199999999996,
Mg2TmBi2,0.0,-0.0441787,
SiSrPt2,0.0,-0.044177100000000004,
SbI2Tm2,0.0,-0.044177100000000004,
GaPm2Au,0.0,-0.044176900000000005,
ClAgHg2,0.1962,-0.0441762,
Pd2In3Th,0.0,-0.0441757,
HI2Th,0.0,-0.0441751,
RuIn5Np,0.0,-0.044175,
LiEr2Tl,0.0,-0.0441743,
Ni2SbNp,0.0,-0.0441729,
CCe2Pb,0.0,-0.0441727,
GePr2Hg,0.0,-0.044172499999999996,
Ni2RhPu,0.0,-0.0441723,
Ca2PbBi,0.0,-0.044170900000000006,
TeI2Tm2,0.0,-0.04417069999999999,
AgCdPt,0.0,-0.04417069999999999,
RbCs2Bi,0.0,-0.0441696,
Pd2Er3,0.0,-0.044167700000000004,
CdCs2Pt,0.0,-0.0441666,
CoGa3Ge2Th3,0.0,-0.0441661,
Rh2GdTb,0.0,-0.0441657,
GeAu,0.0,-0.044164999999999996,
MgHo2Tl,0.0,-0.0441648,
Mo3Os,0.0,-0.0441644,
SiErAu,0.0,-0.0441641,
PdSbGd,0.2807,-0.0441638,
CoLa3Tl,0.0,-0.044163400000000005,
Tc3Pt,0.0,-0.044162999999999994,
CoRe,0.0,-0.0441618,
Zn2SrPt3,0.0,-0.044161099999999995,
Sn2TbLu,0.0,-0.0441604,
ScFePt2,0.0,-0.0441591,
AsBrHg2,0.0,-0.0441589,
CoGaIr2,0.0,-0.0441583,
I2Eu,0.5559,-0.044155900000000005,
Si2Hf2Pt,0.0,-0.0441555,
ONd3Pb,0.0,-0.044155299999999995,
Sc2AuPb,0.0,-0.0441552,
CuRhHf2,0.0,-0.0441543,
Pr3Tb,0.0,-0.0441535,
AsHg,0.0,-0.044153399999999995,
Fe2PtAu,0.0,-0.044152000000000004,
RuTe2Tb6,0.0,-0.044151800000000005,
MnGeAu2,0.0,-0.0441516,
CaNb2Os2,0.0,-0.0441516,
PrSm3,0.0,-0.044151,
MnSe2Lu6,0.0,-0.0441508,
GaIr,0.0,-0.0441506,
CaGe2Ir3,0.0,-0.044149900000000006,
Na2Au2Tl,0.0,-0.044149799999999996,
Ag2SmHg,0.0,-0.0441487,
KTe3Pt2,0.4277,-0.044146200000000003,
OClPu,0.0,-0.044146099999999994,
Rh2CdBi,0.0,-0.0441454,
AlMoTa2,0.0,-0.0441453,
Mn2InNp,0.0,-0.0441445,
P2TmOs2,0.0,-0.0441433,
InEu,0.0,-0.0441428,
CrNiPt2,0.0,-0.0441408,
GaTl,0.0,-0.0441406,
NSPr6Pb2,0.0,-0.0441397,
CaIn2Ir2,0.0,-0.0441394,
MnAs2Lu6,0.0,-0.0441377,
SbNdHo,0.0,-0.0441364,
TcRu2Ir,0.0,-0.0441353,
CuPm2Ir,0.0,-0.044134900000000005,
I3Hf,0.0,-0.044134599999999996,
NiTeBi,0.0,-0.0441333,
MnY2Ir2,0.0,-0.0441323,
RhTe2Tb6,0.0,-0.0441308,
Si2EuOs2,0.0,-0.0441284,
RuTb3,0.0,-0.0441283,
LiEr2Os,0.0,-0.0441281,
FeNiRe2,0.0,-0.0441267,
KIn2Tl2,0.0,-0.0441265,
ScGaIr2,0.0,-0.044125700000000004,
SbCeDy,0.0,-0.0441254,
PTbIr,0.0,-0.044125,
In2CsPt,0.0,-0.044124899999999995,
NClPu,0.0,-0.0441223,
Si2GdAu2,0.0,-0.0441204,
CuPm2Pt,0.0,-0.0441203,
SbPrHo,0.0,-0.0441202,
ZnHoHg,0.0,-0.0441186,
ZnZr2Pt2,0.0,-0.0441168,
Tc2RhOs,0.0,-0.0441166,
ZrRh2Pb,0.0,-0.0441147,
As2SnTl2,0.0,-0.0441147,
MgEuTl,0.0,-0.0441143,
In2BaHg,0.0,-0.044114,
Be2W2Os,0.0,-0.044112,
CdInLu2,0.0,-0.0441114,
MoRu2Ir,0.0,-0.0441113,
LaCe3,0.0,-0.044111,
NiNd2Ir,0.0,-0.0441109,
ZrMoTa,0.0,-0.044109999999999996,
Mo2TcIr,0.0,-0.044109699999999995,
Rh2Ba2Tl,0.0,-0.044109699999999995,
FeSe2Lu6,0.0,-0.044108800000000004,
Mg2Au3,0.0,-0.044108800000000004,
PTe2Ta2,0.0,-0.044107799999999996,
CoPm2Au,0.0,-0.0441076,
FeAs2Lu6,0.0,-0.044106299999999994,
NSLa6Pb2,0.0,-0.0441054,
Mo2RuIr,0.0,-0.044104500000000005,
Ru3Os,0.0,-0.0441037,
MoRu2Os,0.0,-0.044102499999999996,
NSm3Tl,0.0,-0.0441021,
GeLa2Hg,0.0,-0.0441021,
In3Sn2Ho3Ir,0.0,-0.044101,
Pd6PbBi,0.0,-0.04410070000000001,
Ga3Lu2Ir2,0.0,-0.0441002,
As2PdPa,0.0,-0.044099200000000005,
RhEu,0.0,-0.044099,
Y2LaPb,0.0,-0.044096699999999996,
Ca2BaBi2,0.0,-0.0440959,
Mo3Ir,0.0,-0.0440955,
MgAgAu2,0.0,-0.0440952,
Zr2Au,0.0,-0.044094799999999996,
Co2Tm3Pt,0.0,-0.044091200000000004,
CuNdTl,0.0,-0.044091099999999994,
N2DyU,0.0,-0.044091,
Pd2Te2Dy7,0.0,-0.0440902,
NPr3Pb,0.0,-0.0440896,
Pm3Sm,0.0,-0.0440889,
RbTe2Bi,1.0544,-0.0440883,
NiLa2Tl,0.0,-0.0440881,
InTeGd,0.0,-0.0440875,
CTeHf2,0.0,-0.0440866,
Sr2InAu2,0.0,-0.0440863,
AsBaAu,0.0,-0.0440854,
Cl2Gd2Bi,0.0,-0.044083599999999994,
Pd2Te2Bi,0.0,-0.044083399999999995,
SbSmDy,0.0,-0.044082,
ZnTe4Tl2,0.0075,-0.044082,
Zn2SrIr3,0.0,-0.0440808,
Y3PdIr2,0.0,-0.0440803,
Br2Dy2Bi,0.0,-0.044079799999999995,
CdSnEu2,0.0,-0.0440797,
LaSm3,0.0,-0.044079,
NiGa3Ge2Th3,0.0,-0.044078400000000004,
Tc3Re,0.0,-0.0440762,
RhTb3,0.0,-0.0440758,
Ag2CeHg,0.0,-0.0440756,
CoSe2Lu6,0.0,-0.044074800000000004,
CuGeTh,0.0,-0.0440744,
YCdTl,0.0,-0.0440731,
Si2Hf2Re,0.0,-0.0440719,
Rh2HoLu,0.0,-0.0440714,
RuSb2Tb6,0.0,-0.0440714,
TiRe,0.0,-0.0440708,
Y3PdPt2,0.0,-0.0440706,
Co3GeTh2,0.0,-0.0440694,
Rh4CdTh,0.0,-0.044068500000000004,
Zn2Lu3Hg,0.0,-0.0440662,
I3CsHg,0.0,-0.0440651,
YZrIr,0.0,-0.044064900000000004,
GaCd2Ir2,0.0,-0.0440645,
CePm3,0.0,-0.0440629,
MgLuAu,0.0,-0.0440625,
CuAsPt2,0.0,-0.044062,
Ge2Ru2Pu,0.0,-0.0440618,
NiLaIr,0.0,-0.0440614,
Se2RhTl2,0.0,-0.044061,
Al3GePu2,0.0,-0.044061,
Mo2RuOs,0.0,-0.0440609,
SiTe3Lu4,0.0,-0.0440608,
In2Er3,0.0,-0.0440597,
ZnCe2Tl,0.0,-0.044059100000000004,
Mo5Ta2,0.0,-0.044058799999999995,
Tc2RhIr,0.0,-0.0440584,
In2SbTl,0.0,-0.044057,
KSb2Hg2,0.0,-0.044056899999999996,
TiNiPt2,0.0,-0.0440568,
NPr2Pb,0.0,-0.0440567,
Zn2BaPb2,0.0,-0.0440562,
PNiU,0.0,-0.0440559,
Sn2EuDy,0.0,-0.0440558,
NOSm6Tl2,0.0,-0.044055500000000004,
LiBa2Hg2,0.0,-0.0440546,
NOPr6Pb2,0.0,-0.0440546,
SiDyPt,0.0,-0.0440539,
NiPr2Pt,0.0,-0.0440537,
PdTe2Hg,0.0,-0.0440516,
YRh2Bi,0.0,-0.0440509,
TcRu2Re,0.0,-0.0440507,
FeNiPt2,0.0,-0.04405,
MnSn2Er6,0.0,-0.0440498,
MgRu2Pa,0.0,-0.0440481,
RhSb2Tb6,0.0,-0.0440462,
Al3ZnGe2Np3,0.0,-0.044046,
CoAs2Lu6,0.0,-0.0440447,
Pd2AgBi,0.0,-0.0440437,
GeBaPt,0.0,-0.044043,
In2TmLu,0.0,-0.0440428,
NLa3Pb,0.0,-0.0440424,
ZnSm2Ir,0.0,-0.0440411,
B2GdIr2,0.0,-0.0440397,
MoTc2Pt,0.0,-0.0440394,
SiCo3Pa2,0.0,-0.044039299999999997,
Ag2Au,0.0,-0.0440389,
Si4Ho3Ir4,0.0,-0.0440388,
CoLa2Ir,0.0,-0.0440385,
ZnTe2Er6,0.0,-0.044038400000000005,
NFeHf3,0.0,-0.0440375,
GaNdAu,0.0,-0.0440374,
Mn2TaOs,0.0,-0.044036700000000005,
Si2TmIr2,0.0,-0.0440366,
Cd2Pt,0.0,-0.0440363,
AgIn4Pt2,0.0,-0.044036,
NCe3Tl,0.0,-0.044035899999999996,
In3Sn2Ho3Pt,0.0,-0.0440358,
Rh2SbPt,0.0,-0.0440351,
Be2W2Re,0.0,-0.044032299999999996,
GaPt,0.0,-0.0440306,
In5BaPt2,0.0,-0.0440302,
CuNd2Tl,0.0,-0.04403,
ZrSb2Au,0.0,-0.0440295,
FeY2Ir2,0.0,-0.044029200000000004,
SiDyOs,0.0,-0.0440291,
KSn2Au2,0.0,-0.0440285,
CuMoHf2,0.0,-0.0440285,
CrW,0.0,-0.0440278,
Ru2HoLu,0.0,-0.044027500000000004,
ZnSnHf2,0.0,-0.044026499999999996,
CoLa2Pt,0.0,-0.0440264,
SiCoU,0.0,-0.0440263,
LiRu2U,0.0,-0.0440261,
NiLaPt,0.0,-0.0440259,
Be2Au2Tl,0.0,-0.0440246,
PTbPt,0.0,-0.0440245,
Cd2NdAu,0.0,-0.0440238,
NiPr2Ir,0.0,-0.0440229,
MnCuPt2,0.0,-0.0440222,
ZrTe2Hg,0.0,-0.0440218,
AlZrHg2,0.0,-0.0440212,
CTe2Ta2,0.0,-0.0440208,
Se2CsIrHg,0.4712,-0.0440208,
ZnTbAu,0.0,-0.0440203,
ClBrTl2,1.8806,-0.044019300000000004,
ZnSm2Pt,0.0,-0.0440191,
GaSm2Hg,0.0,-0.0440181,
LiTmPb,0.0,-0.0440181,
Te2Tb3,0.0,-0.0440168,
MgTb2Pb,0.0,-0.044015700000000005,
GeSmTa,0.0,-0.0440148,
Co2IrPt,0.0,-0.0440146,
Cd2InHf2,0.0,-0.0440144,
Mn2Lu2Tl,0.0,-0.0440142,
MgTm5,0.0,-0.0440139,
CuIn2Tm6,0.0,-0.0440136,
CdInHg,0.0,-0.0440133,
Fe2Lu2Tl,0.0,-0.0440116,
Ag2Nd2Hg,0.0,-0.044011299999999996,
Fe2InNp,0.0,-0.0440105,
CdEr2,0.0,-0.0440102,
NOLa6Pb2,0.0,-0.04401,
KScPb2,0.0,-0.0440089,
FeSn2Er6,0.0,-0.0440078,
LiInAu2,0.0,-0.044007399999999995,
AlSrTl2,0.0,-0.0440058,
N2ErPa,0.0,-0.0440053,
P2EuPt2,0.0,-0.044004800000000004,
Te3Er2,0.2464,-0.0440042,
Tc2RuPt,0.0,-0.044002400000000004,
B2GdOs2,0.0,-0.044000700000000004,
CSbHf2,0.0,-0.0440006,
Sr2SnHg2,0.0,-0.0439996,
Pd5Th,0.0,-0.0439987,
La3Tb,0.0,-0.043998600000000006,
NAlTa3,0.0,-0.0439979,
CoGaPt2,0.0,-0.043997100000000004,
SbLaHo,0.0,-0.0439952,
CuPrTl,0.0,-0.0439949,
CaSb12Os4,0.0,-0.0439948,
NMnHf3,0.0,-0.0439934,
Si2EuPt2,0.0,-0.0439934,
LiInPtHg,0.0,-0.043992199999999995,
CaZnPb2,0.0,-0.0439918,
RhInHf,0.0,-0.043991300000000004,
PdTe2Tb6,0.0,-0.043990900000000006,
In5BaIr2,0.0,-0.043990900000000006,
OPr3Pb,0.0,-0.043990699999999994,
CDy2Hg,0.0,-0.0439902,
CaRh3Pb2,0.0,-0.0439887,
TiCuIr2,0.0,-0.0439876,
KCdHg2,0.0,-0.0439875,
Co2Sb2Pu,0.0,-0.0439856,
Pm,0.0,-0.0439856,
Tc2RuRe,0.0,-0.0439839,
Ga2Ba3Pb2,0.0,-0.0439839,
GaPd2Ac,0.0,-0.0439839,
NiLa2Pt,0.0,-0.04398319999999999,
ZnGd2,0.0,-0.043982999999999994,
YRhHg,0.0,-0.0439823,
Pd2Ba2Tl,0.0,-0.043982,
SrSbAu,0.0,-0.0439817,
MgHo2Os,0.0,-0.043981400000000004,
P3Ca2ScPt7,0.0,-0.0439812,
CuSm2Au,0.0,-0.0439812,
Mo2TcPt,0.0,-0.0439804,
Ti3Os2Hg,0.0,-0.0439804,
NiLaOs,0.0,-0.043980200000000004,
ZnSb2Er6,0.0,-0.0439801,
CuGePt2,0.0,-0.0439787,
CoLa2Os,0.0,-0.0439783,
AlTmAu,0.0,-0.0439771,
B4Sm2Ir5,0.0,-0.0439764,
Zn2TmTh,0.0,-0.043975299999999995,
AlPd2Pa,0.0,-0.0439739,
RhPdEu2,0.0,-0.0439735,
NCoHf3,0.0,-0.0439733,
Mo2RhIr,0.0,-0.0439723,
OSm3Tl,0.0,-0.0439715,
Te2Eu,0.0,-0.043970300000000004,
AlErOs,0.0,-0.0439702,
Ru3Re,0.0,-0.0439702,
Li3Bi2Th,0.0,-0.043968400000000005,
NiLa2Ir,0.0,-0.043968200000000006,
PdEu,0.0,-0.0439674,
Cd2Ir,0.0,-0.0439666,
CaSrIr2,0.0,-0.043965000000000004,
I9Cs3Bi2,2.0006,-0.043963999999999996,
Rh2EuTm,0.0,-0.0439628,
Br2Ho2Pb,0.0,-0.0439628,
CuPm2Os,0.0,-0.043962400000000006,
HMgPt2Au,0.0,-0.043962,
Mo2RuPt,0.0,-0.043960900000000004,
MgGaPu,0.0,-0.043960099999999995,
Cd2PrAu,0.0,-0.043959200000000004,
AlZnPu,0.0,-0.0439588,
CuLaTl,0.0,-0.0439587,
Co2WIr,0.0,-0.043958199999999996,
Ru3Ir,0.0,-0.0439581,
AsTa,0.0158,-0.0439579,
CuNd2Pt,0.0,-0.0439554,
FeCuIr2,0.0,-0.043955100000000004,
ZnPm2Tl,0.0,-0.043955100000000004,
NLa2Pb,0.0,-0.0439548,
CuGaPa,0.0,-0.0439542,
YTe2Au,0.0,-0.0439537,
GaNd2Au,0.0,-0.043952399999999996,
OLa3Pb,0.0,-0.043951500000000004,
ScGaPt2,0.0,-0.043950899999999994,
ZrCdAu,0.0,-0.0439508,
GeCeTa,0.0,-0.0439496,
GeBaIr,0.0,-0.0439495,
Mn2Th,0.0,-0.0439485,
Mo2RhOs,0.0,-0.0439469,
MgCd2Pu,0.0,-0.0439465,
CoSn2Er6,0.0,-0.0439463,
GeGdTm,0.0,-0.043945700000000004,
CaSrPt2,0.0,-0.0439456,
CZrTa2,0.0,-0.04394530000000001,
ZnBrTh,0.1246,-0.043945,
ZnSmTl,0.0,-0.043944699999999996,
MgCdAu2,0.0,-0.0439445,
Mo2TcRe,0.0,-0.043944000000000004,
Co2WOs,0.0,-0.043943199999999995,
Mo3Re,0.0,-0.0439428,
In2GdDy,0.0,-0.0439428,
Mg2Hg2Tl,0.0,-0.0439411,
NiOs,0.0,-0.0439398,
LiRhAu2,0.0,-0.0439383,
GaCd2Pt2,0.0,-0.0439379,
CdCs2Au,0.0,-0.043937800000000006,
Cd2LaAu,0.0,-0.043937,
MgCdTh,0.0,-0.0439345,
GaPrAu,0.0,-0.043933599999999996,
SeTa,0.0,-0.0439321,
PdSnTm2,0.0,-0.0439312,
ZnCe2Ir,0.0,-0.0439307,
Ga2SmAu2,0.0,-0.0439301,
SnEr,0.0,-0.0439294,
Sr2CdPt2,0.0,-0.0439293,
N2SmNp,0.0,-0.0439285,
Ag2NdHg,0.0,-0.043928400000000006,
Si2TmOs2,0.0,-0.0439272,
CuNd2Ir,0.0,-0.0439268,
TeDy,0.0,-0.0439266,
Ga2CeAu2,0.0,-0.0439262,
SiHoRe,0.0,-0.0439259,
RuRh2Tm3,0.0,-0.0439257,
CoPt,0.0,-0.043925,
NaCs2Au2,0.0,-0.043925,
ScCoPt2,0.0,-0.0439249,
RuDy2,0.0,-0.0439239,
Ag2Ba2Pb,0.0,-0.043922800000000005,
NiPm2Au,0.0,-0.043922600000000006,
In3Pb,0.0,-0.0439223,
Ga2SnPb2,0.0,-0.043921100000000005,
ZnTcHf2,0.0,-0.043920900000000006,
Fe2Th,0.0,-0.0439199,
RuRhTm2,0.0,-0.0439199,
N2CeNp,0.0,-0.0439197,
CrCuPt2,0.0,-0.043916,
ScIr,0.0,-0.0439159,
MgTe2Tm6,0.0,-0.043915100000000006,
CaSmPb,0.0,-0.043914299999999996,
CoNiIr2,0.0,-0.0439141,
BrBa2Tl,0.0,-0.043914,
MgSi2Th2,0.0,-0.0439135,
KPd2Tl2,0.0,-0.043913200000000006,
CoNiRe2,0.0,-0.0439123,
RhTm,0.0,-0.0439121,
Sn3BaAu,0.0,-0.0439121,
RhDy2,0.0,-0.0439105,
GaY2Ir2,0.0,-0.0439093,
Be2TaPt2,0.0,-0.0439086,
Tc2SnW,0.0,-0.043908499999999996,
Fe2SnU,0.0,-0.043907800000000004,
SbTe3Dy4,0.0,-0.0439071,
KCuPb2,0.0,-0.0439061,
LiAgPt2,0.0,-0.043905299999999994,
PdSb2Tb6,0.0,-0.043905099999999996,
Ru2RhTm3,0.0,-0.043905099999999996,
Ga2ErAc,0.0,-0.0439035,
ZnGeIr2,0.0,-0.043901,
Ag2Pr2Hg,0.0,-0.0439009,
OCe3Tl,0.0,-0.0439004,
CGe2Lu2Os2,0.0,-0.043899799999999996,
Ag2BaTl,0.0,-0.0438988,
OSeTh,0.585,-0.043897599999999995,
GaCe2Hg,0.0,-0.0438966,
Mg2ErBi2,0.0,-0.0438942,
GeDyHf,0.0,-0.0438941,
MoRu2Pt,0.0,-0.0438936,
Ge2CeAc,0.0,-0.0438934,
Pd2CdBi,0.0,-0.043893,
NGaHf3,0.0,-0.0438928,
Ge2Rh2Pu,0.0,-0.043888500000000004,
TcTb3,0.0,-0.043888199999999995,
CuPr2Tl,0.0,-0.043887999999999996,
NiGaIr2,0.0,-0.0438871,
GaLaAu,0.0,-0.0438852,
MoRu2Re,0.0,-0.043884700000000006,
SeBaHg,1.5296,-0.043884700000000006,
B4Sm2Os5,0.0,-0.043881100000000006,
NiSn2Er6,0.0,-0.043880899999999994,
Ti3Ir2Hg,0.0,-0.043880699999999995,
Mo3Pt,0.0,-0.0438797,
Fe2TaOs,0.0,-0.0438795,
NdPm3,0.0,-0.0438743,
CdIn2Bi,0.0,-0.0438741,
CaGe2Pt3,0.0,-0.0438729,
In2Sb2Bi,0.0,-0.0438727,
Co2Lu2Tl,0.0,-0.0438726,
CrZnIr2,0.0,-0.0438707,
Ti2WIr,0.0,-0.043869,
SeI7Ta3,0.491,-0.0438688,
B2ZrIr3,0.0,-0.0438679,
RuTm,0.0,-0.043867199999999995,
MgSb2Tm6,0.0,-0.043867199999999995,
Cu2Lu2Pb,0.0,-0.0438666,
ScSrHg2,0.0,-0.043866100000000005,
ZnSm2Os,0.0,-0.0438652,
Si4Ho3Os4,0.0,-0.0438647,
YCdPt,0.0,-0.0438637,
Ge2BaAu2,0.0,-0.0438632,
KSeTl2,0.0,-0.0438628,
Al3Si2MnPu3,0.0,-0.0438623,
YInHg,0.0,-0.0438621,
MnZnIr2,0.0,-0.0438611,
Mg2Au2Hg,0.0,-0.0438609,
LiCdAuTl,0.0,-0.0438579,
AlTb2Tl,0.0,-0.0438572,
Ag2PrHg,0.0,-0.043856900000000004,
ZnCe2Os,0.0,-0.043855899999999996,
Pd2ErLu,0.0,-0.0438556,
AgCs2Hg,0.0,-0.0438553,
ZnCe2Pt,0.0,-0.043855200000000004,
NFNd6Pb2,0.0,-0.043854500000000005,
SeBa2Pt,1.3375,-0.0438529,
Ag2LaHg,0.0,-0.0438523,
PrSm,0.0,-0.0438517,
Zr5Pu,0.0,-0.0438499,
Sn5EuIr,0.0,-0.0438493,
PdTe2Ta,0.0,-0.043849,
ClBi,0.3171,-0.043848700000000004,
Ge2CsPt2,0.0,-0.0438476,
P2ErOs2,0.0,-0.0438472,
Al2YIr3,0.0,-0.0438437,
ZnCeTl,0.0,-0.0438437,
Sc2IrTl,0.0,-0.043843200000000006,
Ag2La2Hg,0.0,-0.0438429,
AlRh2Th,0.0,-0.043842599999999995,
SnTb2,0.0,-0.043841700000000004,
FeY2Os2,0.0,-0.0438416,
CoY2Ir2,0.0,-0.0438405,
CuTbHg,0.0,-0.0438404,
Ag2SbPb,0.0,-0.043839300000000005,
AgTe2Au,0.0,-0.0438387,
Mn2TaPt,0.0,-0.0438386,
MgInHg2,0.0,-0.0438375,
Ru2SnLu2,0.0,-0.043835099999999995,
As2RbBi2,0.0,-0.0438341,
KBi,0.0,-0.0438327,
Sb4BaTl,0.0,-0.0438314,
NNiHf3,0.0,-0.0438314,
ZnIn2Tm6,0.0,-0.043831,
I5Er4,0.0,-0.0438309,
SrBaHg,0.0,-0.043829099999999996,
CuSrHg2,0.0,-0.043829,
Rb2CsAu2,0.0,-0.0438267,
LiSnHg2,0.0,-0.043826500000000004,
Sc3Ir2Pt,0.0,-0.043826300000000006,
SiZr2Ir2,0.0,-0.0438252,
SbNdDy,0.0,-0.0438251,
GeTe4BaAu2,0.0,-0.0438245,
GaY2Pt2,0.0,-0.0438242,
NaSn2Ir2,0.0,-0.0438237,
Li3Hg5,0.0,-0.0438225,
Si4Ho3Pt4,0.0,-0.0438223,
Ca2Rh2Tl3,0.0,-0.043820700000000004,
TiCuPt2,0.0,-0.043820500000000005,
ZnSr2Bi2,0.0552,-0.0438196,
Ni2ReOs,0.0,-0.0438194,
Ni2Tm3Pt,0.0,-0.0438191,
N2TbU,0.0,-0.0438176,
Ni2OsIr,0.0,-0.0438175,
Rb3Sb2Pt3,0.0,-0.043817,
As2Pd2Pu,0.0,-0.0438168,
MnSnTe4Tl2,0.0,-0.0438167,
InTe2Ta,0.0,-0.0438161,
SiTbIr,0.0,-0.0438157,
Al3Si2FePu3,0.0,-0.0438153,
Se2RuTm6,0.0,-0.043815,
Ga2BaTl2,0.0,-0.043814599999999995,
Fe2TaIr,0.0,-0.0438133,
IHo,0.0,-0.0438133,
FeZnPa,0.0,-0.0438126,
Sn2Dy3,0.0,-0.0438123,
SiErW,0.0,-0.0438121,
FeCuPt2,0.0,-0.043811300000000004,
SrCd2Ac,0.0,-0.0438095,
PrPm3,0.0,-0.0438093,
ClSeTl2,0.0,-0.0438089,
FeGaTh,0.0,-0.0438082,
ZnSmPt,0.0,-0.0438081,
Se2HfHg,0.1289,-0.0438079,
SrSnPt,0.0,-0.0438076,
Ti2WOs,0.0,-0.043806,
MgHoPb,0.0,-0.0438058,
CuLa2Tl,0.0,-0.0438056,
PdSn2Au,0.0,-0.0438054,
InTb3,0.0,-0.0438048,
Tc2SbTa,0.0,-0.0438044,
Cl2Pu,0.0,-0.0438043,
SrTe3TmAu,0.497,-0.0438043,
Se3Bi2,0.1052,-0.0438035,
AgCdAu,0.0,-0.0438027,
Se3Er4Pb,0.0,-0.0438024,
GaPr2Au,0.0,-0.043801900000000005,
Cu2Hf3,0.0,-0.0438005,
LiCdPt2,0.0,-0.0438003,
B4Nd2Ir5,0.0,-0.0438002,
K2SnAu3,0.0,-0.043799399999999995,
SbCsEu,0.1164,-0.043798699999999996,
YPd2Bi,0.0,-0.043797600000000006,
AsTe3Tm4,0.0,-0.0437974,
Ge3HfTh,0.0,-0.0437966,
As2Ru2Np,0.0,-0.043796,
CuPr2Pt,0.0,-0.0437952,
TiZnIr2,0.0,-0.0437949,
Cu2SrAu3,0.0,-0.0437942,
SbCeTb,0.0,-0.043793599999999995,
SiPd2Th,0.0,-0.0437931,
In2CsAu,0.0,-0.0437931,
Pd2SnTl,0.0,-0.0437916,
Sc2OsTl,0.0,-0.0437914,
GaPm2Hg,0.0,-0.0437913,
Sc2IrPt,0.0,-0.0437909,
Rh2SnLu2,0.0,-0.0437897,
Pd3Pb,0.0,-0.0437897,
ZnPm2Ir,0.0,-0.043787599999999996,
Nd3Sm,0.0,-0.043786700000000005,
Sb3Tb4,0.0,-0.043786200000000004,
MnZnPt2,0.0,-0.0437849,
GaRe,0.0,-0.0437848,
Al3Si2CrPu3,0.0,-0.043784199999999995,
ScNiIr2,0.0,-0.043784199999999995,
Si2PmPu,0.0,-0.0437838,
Mo2RhPt,0.0,-0.0437836,
AlHoIr,0.0,-0.0437833,
YPdHg,0.0,-0.0437825,
As2RuTm6,0.0,-0.0437811,
Se2RhTm6,0.0,-0.043780900000000005,
As2IPt2,0.0,-0.0437806,
RbCd2Hg2,0.0,-0.0437793,
Ga2NdAu2,0.0,-0.043778199999999996,
TcRu2Pt,0.0,-0.0437778,
NSnHf2,0.0,-0.043777500000000004,
As2BaHg2,0.0,-0.043776800000000005,
Sn3Hg,0.0,-0.0437766,
Co2Tm3Au,0.0,-0.0437759,
SnTeLu,0.0,-0.0437747,
PdTb3,0.0,-0.0437712,
Si4Tm3Au4,0.0,-0.0437708,
NSm2Tl,0.0,-0.043770699999999996,
ZnPm2Pt,0.0,-0.0437694,
MgYAu2,0.0,-0.0437687,
YCdIr,0.0,-0.0437678,
SnI2Tm2,0.0,-0.0437675,
AgLu,0.0,-0.043766599999999996,
Sr2CdIr2,0.0,-0.0437658,
Ru2PdTm3,0.0,-0.0437648,
CuPr2Ir,0.0,-0.0437628,
GaIn2Hg2,0.0,-0.0437626,
Rb2BaHg2,0.0,-0.0437609,
Sc2OsIr,0.0,-0.0437601,
ZnSmIr,0.0,-0.043759700000000006,
NiLa2Os,0.0,-0.0437585,
Tc2RhPt,0.0,-0.0437577,
ZnCePt,0.0,-0.0437568,
PAsTl2,0.0,-0.0437567,
SbDy,0.0,-0.043756100000000006,
CeNd3,0.0,-0.043755699999999995,
NdPm,0.0,-0.0437556,
ScTl,0.0,-0.043753799999999995,
CdTe2Au,0.0,-0.0437513,
Co2WRe,0.0,-0.0437512,
Rh2DyLu,0.0,-0.0437509,
SrBa2Tl,0.0,-0.0437502,
Sc3IrPt2,0.0,-0.0437501,
NBrTh,2.3706,-0.0437498,
LaPm3,0.0,-0.043748600000000006,
Ga2CeTh,0.0,-0.043748600000000006,
Al3Si2CoPu3,0.0,-0.0437484,
Ru2RhOs,0.0,-0.043748300000000004,
ZnNd2Tl,0.0,-0.043746,
OCdEuBi,0.0,-0.0437458,
SbPrDy,0.0,-0.0437455,
AgSb2Au,0.0,-0.0437451,
TiSnBi,0.0,-0.0437446,
Sc2LaTl2,0.0,-0.0437442,
MnCo3Th2,0.0,-0.0437442,
BeAgAu2,0.0,-0.0437436,
Si2ErIr2,0.0,-0.0437433,
LiPdAu2,0.0,-0.043742199999999995,
As2RhTm6,0.0,-0.0437415,
PPd3Pb2,0.0,-0.0437408,
Co2WPt,0.0,-0.0437406,
MoRh2Os,0.0,-0.0437381,
Al3AgU2,0.0,-0.0437365,
B4Pr2Ir5,0.0,-0.0437363,
Ni2ReIr,0.0,-0.0437361,
ScGeTh,0.0,-0.0437349,
CuPdHf2,0.0,-0.0437335,
Ga2PrAu2,0.0,-0.043732999999999994,
FSPu,0.0,-0.0437317,
Ru2RhRe,0.0,-0.0437316,
Sc2PtTl,0.0,-0.043731,
AlHoPt,0.0,-0.0437294,
Sc2OsPt,0.0,-0.0437286,
NbRu2Pt,0.0,-0.0437281,