formula,bg,formation_energy,mp-id
GeMoHf,0.0,-0.0395148,
Pd2AgGd,0.0,-0.039514,
AsPrTm,0.0,-0.0395139,
SrTe2Eu,0.0,-0.0395134,
GaPd2Lu2,0.0,-0.0395131,
SSbPt,0.0,-0.0395126,
NbSnDy,0.0,-0.039512399999999996,
AsSe3Lu4,0.0,-0.039512,
MnZnHf2,0.0,-0.0395115,
Al2BaAu2,0.0,-0.0395113,
Tc7Re,0.0,-0.0395111,
CuTe2La6,0.0,-0.039510800000000006,
Co2Tb2Hg,0.0,-0.0395107,
Ca3PdSn2Tl3,0.0,-0.0395103,
Ge4Sr3Pt4,0.0,-0.0395094,
S2CsAuHg,1.5273,-0.0395086,
TcPdCe2,0.0,-0.0395076,
ZnSb2Nd6,0.0,-0.0395067,
P2SrPb2,0.0231,-0.039506,
Ru2CdDy2,0.0,-0.0395059,
Ni3DyAu2,0.0,-0.0395055,
Pd5Tl,0.0,-0.0395053,
Cu2Sm2Pb,0.0,-0.0395047,
LiY2Hg2,0.0,-0.0395046,
Ni3CePt2,0.0,-0.0395028,
MnRh2Ir,0.0,-0.039502499999999996,
Mg2SiIr3,0.0,-0.0395019,
RuSn2Ho,0.0,-0.039501800000000004,
SbBa,0.0,-0.0395002,
CoTb3,0.0,-0.0394993,
Co2GaNp,0.0,-0.039498899999999997,
I6Cs2Tb,0.0,-0.0394982,
BIr,0.0,-0.039498,
Zn2PdTh,0.0,-0.0394978,
Pd2InLu,0.0,-0.0394978,
HAlSnPu,0.0,-0.039497199999999996,
Mo6Ta,0.0,-0.039497,
Pd2In3Dy3,0.0,-0.0394966,
TiRuInIr,0.0,-0.0394966,
Mo2Ho,0.0,-0.039495800000000005,
KInPb,0.0,-0.0394943,
RhPd2Lu,0.0,-0.039494100000000004,
RhISm,0.0,-0.0394939,
FeGa2Er6,0.0,-0.0394927,
Ni4HgU,0.0,-0.039491700000000005,
Na2AuBi,0.2526,-0.0394903,
AlSb2Sm6,0.0,-0.039490000000000004,
AlSr2Ir2,0.0,-0.0394891,
BRh6Tl2,0.0,-0.039488999999999996,
Se3CsHfAu,0.4368,-0.039487299999999996,
Ag4Tl,0.0,-0.0394872,
CuSb2Pr6,0.0,-0.0394863,
TiMo2Re,0.0,-0.0394853,
Rb3Ag3Bi2,1.0226,-0.039485,
Zn2Dy2Tl,0.0,-0.0394843,
MgSbPb,0.0,-0.039484200000000004,
NaAg2Ac,0.0,-0.0394824,
CoMo2Pt,0.0,-0.0394822,
Al2RhEr6,0.0,-0.0394818,
LiSiIr2,0.0,-0.039481699999999995,
GaCdPt,0.0,-0.0394813,
BeSiRe2,0.0,-0.0394809,
ZnInIr,0.0,-0.039480400000000006,
LiPb,0.0,-0.0394799,
Sn2Sm,0.0,-0.0394796,
AgSbLa2,0.0,-0.0394796,
ClCs2Au,3.1841,-0.0394791,
GaYIr,0.0,-0.0394785,
C3Tm2W2,0.0,-0.039478400000000004,
SeLu,0.0,-0.039478,
FeSn2Nd6,0.0,-0.0394778,
GaYPt,0.0,-0.039477,
NiMo2Os,0.0,-0.0394766,
Ca2PdPt2,0.0,-0.0394756,
SeI2Dy2,0.0,-0.0394747,
NiCuHf2,0.0,-0.0394742,
CoGa2Er6,0.0,-0.0394741,
MgScHg2,0.0,-0.039473799999999996,
PdCe,0.1257,-0.0394728,
MgGaHg2,0.0,-0.039472099999999996,
MgAlPt2,0.0,-0.0394695,
Si2PdU,0.0,-0.0394688,
Pd2InTb2,0.0,-0.0394681,
Fe2YTa2,0.0,-0.039468,
GaTb3,0.0,-0.0394679,
MnRh2Re,0.0,-0.0394679,
InCe,0.0,-0.0394669,
Zn2BaAc,0.0,-0.039466799999999996,
ZrSbDy,0.0,-0.0394667,
Se3Ta2,0.0,-0.0394662,
LiAs2TbIr2,0.0,-0.0394649,
RhPdPm2,0.0,-0.0394638,
AsCeEr,0.0,-0.0394634,
Be2LaPt2,0.0,-0.039463200000000004,
CaAgPb,0.0,-0.0394626,
SiKAu2,0.0,-0.0394614,
Rh2Sn3Sm3,0.0,-0.0394614,
AsI2Dy2,0.0,-0.0394614,
BeSiPt2,0.0,-0.039461300000000005,
Al3GeTh2,0.0,-0.0394606,
TiTc2W,0.0,-0.0394572,
RhICe,0.0,-0.0394572,
Ru2NdPm,0.0,-0.039457,
NiMo2Ir,0.0,-0.0394561,
In2PmSm,0.0,-0.039455199999999996,
CaSb2Ir,0.0,-0.0394542,
Sr2Tl,0.0,-0.0394514,
LiLaPt,0.0,-0.0394512,
Mg2YBi2,0.0,-0.039451099999999996,
MgGaTh,0.0,-0.0394507,
AgSnHo,0.0,-0.039450000000000006,
BSnEr3,0.0,-0.0394488,
Ca2PdIr2,0.0,-0.0394486,
In6LaAu,0.0,-0.0394482,
Ga2ErIr,0.0,-0.0394481,
RhNd,0.0,-0.039447699999999995,
PTa,0.0,-0.0394474,
GaI6Cs2Tl,0.3603,-0.0394472,
RhTeNd,0.7584,-0.0394466,
RhSn2Ho,0.0,-0.0394465,
MgTe2Pb,0.1474,-0.0394464,
MgCoTh,0.0,-0.0394451,
KPt,0.0,-0.039445,
MgPrHg,0.0,-0.0394447,
TiRh2Ir,0.0,-0.0394445,
Ni2Pr2Pb,0.0,-0.039444400000000004,
CuI2Au,0.2343,-0.0394443,
PdIn2Lu,0.0,-0.0394436,
YPr3,0.0,-0.0394431,
Co2Sm2Tl,0.0,-0.0394424,
AgTb,0.0,-0.0394422,
RuPdPm2,0.0,-0.0394418,
AlZnTh,0.0,-0.0394418,
CuAs2Pa,0.0,-0.0394414,
MgBa2Tl,0.0,-0.039441000000000004,
Si2Sb2Er5,0.0,-0.039440600000000006,
ScAgPt,0.0,-0.0394397,
Cd2SnHo2,0.0,-0.0394389,
YRh2Gd,0.0,-0.0394382,
Sr2BaTl,0.0,-0.0394381,
AlSiW2,0.0,-0.0394379,
Si2Er2Ir,0.0,-0.0394375,
AgSnPm2,0.0,-0.0394374,
CdSnEr,0.0,-0.0394368,
Sn2Ce,0.0,-0.0394361,
NaAs2Pb2,0.0,-0.039435899999999996,
ZnLa7,0.0,-0.0394349,
PdSbSm,0.2798,-0.0394336,
CdSnSm2,0.0,-0.0394328,
PdIn3Sn2Dy3,0.0,-0.039432699999999994,
Si2Rh3Pu,0.0,-0.0394326,
Pd5SbTl,0.0,-0.0394324,
Te5Tb,0.0,-0.039432,
Ni4Pt3,0.0,-0.0394304,
Al2Eu2Tl,0.0,-0.0394296,
AsPdHf,0.0,-0.0394283,
Ru2SnEr,0.0,-0.039428,
FeRh2Os,0.0,-0.039428,
Pd4Hf,0.0,-0.0394278,
AgLa2,0.0,-0.0394274,
AlSiPa,0.0,-0.0394269,
Co2Ce2Tl,0.0,-0.0394268,
Ge6YIr4,0.0,-0.039425800000000004,
Mg2SiPt3,0.0,-0.0394257,
AlSb2Ce6,0.0,-0.0394255,
GeI2Ho2,0.0,-0.039424999999999995,
Cd4Pb,0.0,-0.039424,
CoSbEr2,0.0,-0.0394237,
AlGa2Tm6,0.0,-0.039423099999999996,
Ga3Sn2Tm3Ir,0.0,-0.0394226,
Ga2ErPt,0.0,-0.0394213,
Se3Hg2,0.7676,-0.0394205,
MgCd2Ac,0.0,-0.0394203,
CuPd2Er3,0.0,-0.0394201,
PMoOs,0.0,-0.039420000000000004,
Ge2Sn3Nd3Ir,0.0,-0.0394186,
Pd3Lu,0.0,-0.0394178,
I4Sm,0.0,-0.0394176,
MgBaTl,0.0,-0.039417299999999995,
RuNd,0.0,-0.039417,
Sc2SrPt2,0.0,-0.039417,
CaYBi,0.0,-0.0394163,
Cu3TbPt2,0.0,-0.039415900000000004,
As2CeAu,0.0,-0.0394151,
As6SrPt4,0.1606,-0.0394151,
Ga2SrAu2,0.0,-0.0394145,
CrMo2W,0.0,-0.0394143,
Ru2AgSm3,0.0,-0.0394141,
Y2AgHg,0.0,-0.0394136,
CoIHf,0.0,-0.0394128,
HCs3Bi,0.0,-0.0394127,
In2CePm,0.0,-0.0394125,
Ru2SnSm2,0.0,-0.0394116,
Rh2SnCe2,0.0,-0.039410400000000005,
N2Th,0.0479,-0.039410099999999997,
AgTe2Dy,0.7842,-0.0394095,
Rh2SnSm2,0.0,-0.0394088,
Sc3Pb2,0.0,-0.039407899999999996,
FTeBaAu,0.5681,-0.0394073,
NiGa2Er6,0.0,-0.039407,
CaAs2Tl2,0.0,-0.039406199999999995,
Sb2TeBa2,0.0,-0.0394061,
AsLu,0.0,-0.0394061,
Ag2SmHo,0.0,-0.0394058,
MgInGd2,0.0,-0.0394056,
CrRh2Re,0.0,-0.0394052,
PCs2Au,0.5945,-0.039405,
KTe2Tl,0.0,-0.0394042,
Ni2DyPb,0.0,-0.039402099999999995,
PdSb2Tb,0.0,-0.039401200000000004,
AgCdLu,0.0,-0.0394011,
Se4TeTm5,0.0,-0.039400700000000004,
LiAs2TbPt2,0.0,-0.0394005,
CuSb2Hg,0.0,-0.0393994,
Cd2InEr2,0.0,-0.039398499999999996,
Ru2INd2,0.0,-0.0393974,
Sn3Dy,0.0,-0.039397100000000004,
Al2WRe,0.0,-0.0393966,
VZrW,0.0,-0.0393965,
FeGe2Ho6,0.0,-0.039396099999999996,
Pd2Cd2Au,0.0,-0.039396,
CoSn2Nd6,0.0,-0.0393957,
Sb3La,0.0,-0.0393956,
MnRh2Pt,0.0,-0.039395200000000005,
CoRu2Ho3,0.0,-0.0393949,
Zn2CdAu2,0.0,-0.0393941,
Mg2HgBi,0.0,-0.039393700000000004,
Y2Rh2Au,0.0,-0.039391300000000004,
RhCdTm,0.0,-0.0393904,
Se4SnBi2,0.0818,-0.0393901,
CrNb2Os,0.0,-0.0393885,
MnGe2Pa,0.0,-0.039387700000000005,
CuSb2La6,0.0,-0.0393873,
GeSe4HgTl2,0.461,-0.0393866,
ScCe5,0.0,-0.0393862,
O4ClBi2Pu,0.0,-0.0393857,
Ni2La2Pb,0.0,-0.0393857,
NaGaHg2,0.0,-0.0393846,
YSbEr,0.0,-0.0393845,
Ge2In3Tb3Au,0.0,-0.0393844,
YRu2Gd,0.0,-0.0393841,
RuRh2Nd3,0.0,-0.0393841,
ScZrTl,0.0,-0.0393837,
AsSmEr,0.0,-0.0393837,
As2Rb3Au3,1.1356,-0.039383600000000005,
MgLaHg,0.0,-0.0393829,
MnMo2W,0.0,-0.0393828,
LiAs2ErAu2,0.0,-0.0393823,
SeIn2Au,0.0,-0.039381900000000004,
HMgHf3,0.0,-0.0393818,
Zn3ErPt2,0.0,-0.0393814,
Si2Ho2Pb,0.0,-0.0393811,
BeSiU,0.0,-0.0393804,
Ru2AgCe3,0.0,-0.039378,
MnPd2Tl,0.0,-0.039377499999999996,
AgInTm,0.0,-0.0393767,
Pd5TeTl,0.0,-0.0393755,
Na2TlPb,0.0,-0.0393748,
Ga3Sn2Tm3Os,0.0,-0.0393748,
S4Bi3,0.0,-0.039374,
AgSb2Ho,0.0,-0.0393733,
As2SmAu,0.0,-0.0393728,
InTeCe,0.0,-0.0393728,
GeTc2Ta,0.0,-0.0393721,
ZnTm2,0.0,-0.0393721,
CdTe3CsHo,1.3663,-0.0393714,
Ag2LaEr,0.0,-0.0393707,
Te2Ba,0.2694,-0.0393705,
ScSnTa,0.0,-0.0393678,
FeAs2Th,0.0,-0.0393676,
ZnTe2Hg,0.1484,-0.0393675,
Rh2Cd2Hg,0.0,-0.0393673,
Ga3Lu2Ir,0.0,-0.0393666,
Ge2CeIr,0.0,-0.0393659,
Mg2Sb2Pu,0.0,-0.0393659,
AgBaLa2,0.0,-0.0393656,
B5W2Ir3,0.0,-0.0393654,
I6Cs2Ce,0.8128,-0.0393654,
MgTcGd2,0.0,-0.0393647,
Al2ReAu,0.0,-0.0393644,
ZnSb2Au,0.0,-0.039364199999999995,
Rh2SnEr,0.0,-0.039364199999999995,
NaSbPb,0.0,-0.039363100000000005,
CoZnHf2,0.0,-0.0393624,
RuRhNd2,0.0,-0.039361400000000005,
Ge2SmIr,0.0,-0.0393613,
FeGe2Pa,0.0,-0.0393612,
CoRuTm2,0.0,-0.0393607,
P2YOs2,0.0,-0.0393604,
Li2TlBi,0.2743,-0.0393603,
CoGa2Np,0.0,-0.0393595,
BGa2HoOs2,0.0,-0.039358899999999995,
MgCs2Pb,0.0965,-0.039358699999999996,
InTeSm,0.0,-0.0393586,
PMoIr,0.0,-0.039356999999999996,
Zn2YAu2,0.0,-0.0393566,
Rh3SnTb2,0.0,-0.039356499999999996,
Y2Ag2Pb,0.0,-0.0393561,
Co3Lu2Os,0.0,-0.039356,
Ni2SnHf2,0.0,-0.0393557,
CrRh2Pt,0.0,-0.039355400000000006,
PdSbCe,0.0,-0.0393542,
MgPdBi,0.0,-0.039353900000000004,
Cu2CdTh,0.0,-0.0393536,
Li2InBi2,0.0,-0.0393535,
Be2Hf3,0.0,-0.039353400000000004,
Ni2ZnHf3,0.0,-0.039353299999999994,
N2ReHg,0.0,-0.039352899999999996,
In2NdSm,0.0,-0.0393528,
O4SeBi2Th,0.1524,-0.0393527,
Ge2La2Hg,0.0,-0.039352,
NFTh,2.243,-0.0393519,
PPd5Th,0.0,-0.039351,
AsZr2Ir,0.0,-0.0393504,
Si2Er2Pt,0.0,-0.0393501,
LiCuAu2,0.0,-0.03935,
CuZr6Pb2,0.0,-0.039349499999999996,
RhTeLa,0.0,-0.0393491,
AlCdGd2,0.0,-0.0393489,
As2Ba2Tl,0.0,-0.039348799999999996,
RhIn5Ho3,0.0,-0.039347700000000006,
CdSnCe2,0.0,-0.039347299999999995,
CClTh,0.0,-0.0393466,
Fe3U,0.0,-0.0393458,
InPm,0.0,-0.0393453,
RhSbNd,0.0,-0.0393451,
AgTe3CsHo,0.0,-0.0393449,
Sr2SbTl,0.0,-0.0393444,
Si2InPt2,0.0,-0.0393432,
FeRu2W,0.0,-0.0393432,
Se6InBi3,0.4618,-0.039343,
Zn2InTh,0.0,-0.039343,
TiRh2Pt,0.0,-0.0393429,
FeRh2Re,0.0,-0.0393426,
ZnRh2Pb,0.0,-0.0393426,
Ge3MoIr2,0.0,-0.0393422,
Pd2Sn2Lu,0.0,-0.039342,
FeRh2Ir,0.0,-0.0393412,
B4Sr2Pt5,0.0,-0.0393412,
CuRhEu2,0.0,-0.0393403,
SeY2Pb,0.0,-0.039340200000000006,
ZnSb2Pr6,0.0,-0.0393397,
Ga3Lu2Os,0.0,-0.0393384,
Ca2CdTl2,0.0,-0.0393373,
Zn3ErIr2,0.0,-0.0393372,
B2MgIr3,0.0,-0.0393366,
Mg2PPt3,0.0,-0.039336300000000005,
RhTePr,0.8055,-0.0393359,
NiTb3,0.0,-0.0393342,
Ni3TbAu2,0.0,-0.039333599999999996,
NiSbHf,0.0,-0.0393318,
Si2ZrPt2,0.0,-0.039331200000000004,
Ge2Sn3Pr3Ir,0.0,-0.0393301,
Y3Tl,0.0,-0.0393289,
I3CsBa,3.6413,-0.0393287,
SrSn5Ir,0.0,-0.039328,
N2WHg,0.0001,-0.0393278,
GaRuTm2,0.0,-0.0393275,
CI5Tb4,0.0,-0.039326599999999996,
GeTeGd,0.0,-0.0393264,
Ni2Tb2Hg,0.0,-0.0393262,
CdSbLa2,0.0,-0.039326099999999996,
NiEr2,0.0,-0.039325200000000005,
Cd2SmEr,0.0,-0.039324399999999995,
P2YIr2,0.0,-0.0393241,
ScIn7Pt2,0.0,-0.0393241,
CuI4Tl,0.3232,-0.039324,
SiTcOs,0.0,-0.0393228,
PdInHo,0.0,-0.0393216,
CaSr2Au2,0.0,-0.0393215,
FeMo2W,0.0,-0.0393214,
ZnAgLu2,0.0,-0.0393209,
RuIn3Ho2,0.0,-0.0393206,
Sr2AgBi,0.0381,-0.03932,
AsRbPb,0.4802,-0.0393198,
NiZrAu,0.0,-0.039319099999999996,
ZnRh2Lu2,0.0,-0.039317500000000005,
Si2RuPa,0.0,-0.039317300000000006,
FeIn2Sm6,0.0,-0.039317,
In3Lu,0.0,-0.039316899999999995,
Si2Ru2U,0.0,-0.0393165,
CuTe2Ta,0.0,-0.0393164,
Ru2LaPm,0.0,-0.0393143,
HBr2Pu,0.0,-0.0393129,
CSi2Mn2U2,0.0,-0.0393122,
TiMoTa,0.0,-0.0393096,
KTePt,0.0,-0.039309199999999996,
In2CeNd,0.0,-0.0393091,
CSi2Dy2Os2,0.0,-0.0393085,
MnNb2Os,0.0,-0.0393082,
Pd5Dy3,0.0,-0.0393074,
CuSrBi,0.0,-0.039306100000000004,
Rh2In3Tb3,0.0,-0.0393047,
Al3Si2CrTh3,0.0,-0.0393046,
Rh2PrNd,0.0,-0.0393041,
Al3Si2FeTh3,0.0,-0.039303899999999996,
FeNb2Os,0.0,-0.0393033,
NiRu2Ho3,0.0,-0.0393028,
TiHf,0.0,-0.0393024,
Zn3EuAu2,0.0,-0.0393011,
Al3Si2MnTh3,0.0,-0.0393011,
Ga2ErOs,0.0,-0.039300199999999993,
S2Rh3Pb2,0.0,-0.039299799999999996,
Ge2Sn3La3Ir,0.0,-0.0392997,
Rh7Bi,0.0,-0.0392992,
Rh2Dy,0.0,-0.0392988,
GaRhTm2,0.0,-0.0392985,
FeSn2Pr6,0.0,-0.039298400000000004,
Tc7W,0.0,-0.039298299999999994,
Mg2BaTl2,0.0,-0.0392982,
Al3MnTh2,0.0,-0.039298099999999996,
Ag2InHo2,0.0,-0.0392977,
Ca2SrPb2,0.0,-0.0392976,
Ni3NdPt2,0.0,-0.0392974,
Li4Hg5,0.0,-0.0392971,
RhLa,0.0,-0.0392947,
NiRhTa,0.0,-0.039294199999999994,
Ni2TmPt,0.0,-0.0392935,
GeRu2Ta,0.0,-0.0392932,
B2N4Th3,0.0,-0.03929270000000001,
ScCdTl,0.0,-0.039291200000000005,
MgSr2Tl2,0.0,-0.039290599999999995,
SiClTh,0.0,-0.0392901,
SSe2U,0.0,-0.0392899,
Rh2INd2,0.0,-0.0392881,
Ru7Ir,0.0,-0.0392875,
In6BaPt,0.0,-0.039286499999999995,
In2PrSm,0.0,-0.0392862,
CSi2Ho2Re2,0.0,-0.0392859,
RbPdTe3Ta,0.0,-0.0392858,
Sr2LaHg,0.0,-0.0392857,
S2TaHg,0.0,-0.039285600000000004,
GeTe4Ta,0.0,-0.0392841,
CoIn2Sm6,0.0,-0.039283900000000004,
CoAs2Th,0.0,-0.0392838,
GeIGd,0.0,-0.0392817,
NAsEu3,0.0,-0.0392817,
H2Pu,0.0,-0.0392817,
Pd2SnTm,0.0,-0.0392816,
CSnHo3,0.0,-0.0392816,
Pd3Tb2,0.0,-0.039281500000000004,
ZnRu2Lu2,0.0,-0.039281199999999995,
Rb2Sb2Bi,0.0,-0.0392811,
Mn2GaU,0.0,-0.039280999999999996,
RhPr,0.0,-0.0392805,
NiRh2Ho3,0.0,-0.039279,
MnTe4Ta,0.0,-0.0392789,
YLa3,0.0,-0.0392786,
CoGe2Pa,0.0,-0.039277900000000004,
AlZr6Bi2,0.0,-0.0392763,
HBa3Tl,0.0,-0.039276000000000005,
Cd2TbDy,0.0,-0.039275700000000004,
K2Te4HgPb,0.0,-0.039275,
K2RbBi2,0.0,-0.039275,
RhSn5Sm3,0.0,-0.0392749,
P2PdPa,0.0,-0.0392729,
Rh2SbHo,0.0,-0.0392716,
Cu2Dy2Hg,0.0,-0.039269899999999996,
GeSe3Lu4,0.0,-0.0392693,
ZnPdPt,0.0,-0.0392692,
Al3CrTh2,0.0,-0.0392682,
Si2YIr2,0.0,-0.039266800000000004,
AlCuHfAu,0.0,-0.0392656,
RuINd,0.0,-0.0392653,
Ge2SmOs,0.0,-0.0392653,
SiMoOs,0.0,-0.0392652,
Co5Ta4,0.0,-0.039265,
Ga2Ru3Th,0.0,-0.0392649,
RuLa,0.0,-0.039264600000000004,
O2CdI2Pb2,2.1237,-0.0392643,
CSi2Fe2U2,0.0,-0.039264099999999996,
SSnPt,0.609,-0.039264,
KSe2U,0.0,-0.0392635,
Ru2CdSm3,0.0,-0.0392634,
PSbTm2,0.0,-0.039262500000000006,
Y3Ir,0.0,-0.0392613,
NaAs2CePt2,0.0,-0.039260800000000005,
Ru2PdNd3,0.0,-0.0392606,
BeZnAu2,0.0,-0.0392595,
NiSb2Er2,0.0,-0.0392595,
ZnGa2Pu,0.0,-0.0392576,
Si2In3Tm3Ir,0.0,-0.039257,
InISm,0.0,-0.0392568,
I4Nd,0.0,-0.0392563,
Zn2GdAu,0.0,-0.0392556,
CSi2Cr2U2,0.0,-0.0392546,
KBa2Hg,0.0,-0.0392543,
Cu5Au4,0.0,-0.0392543,
GaTc2W,0.0,-0.039252499999999996,
Co2YTa2,0.0,-0.0392524,
NTa,0.0,-0.0392523,
Ru2ILa2,0.0,-0.039252,
Ge2SmPt,0.0,-0.0392519,
Al3Si2CoTh3,0.0,-0.039251600000000005,
KBa3Hg,0.0,-0.0392509,
PFeHf2,0.0,-0.039250799999999995,
ZnSb2La6,0.0,-0.0392501,
CuInEu2,0.0,-0.0392497,
Ru2CdCe3,0.0,-0.039249200000000005,
Rh2CdSm3,0.0,-0.0392482,
Y3Pt,0.0,-0.0392463,
Zn5Ir4,0.0,-0.0392461,
S2GdTl,0.7446,-0.0392459,
N2NbPa,0.0,-0.0392459,
Si2HfIr,0.0,-0.039245800000000004,
Cd2Sb2Gd,0.0,-0.039245600000000005,
RuPr,0.0,-0.039244100000000004,
RhIn3Sn2Tb3,0.0,-0.0392439,
In2NdPm,0.0,-0.0392437,
Ga2TcHf2,0.0,-0.039243,
Ga2RuHf2,0.0,-0.0392425,
I6Cs2Sm,0.0,-0.0392423,
AsZr2Pt,0.0,-0.039242,
Se2BaTl,0.0,-0.0392418,
NiMo2Pt,0.0,-0.0392416,
RhSbPr,0.0,-0.0392415,
In2CePr,0.0,-0.0392415,
PdPm,0.0,-0.0392412,
Zr4Ir,0.0,-0.0392411,
Pd2SbEr,0.0,-0.0392405,
In2LaSm,0.0,-0.0392405,
NiYTl,0.0,-0.0392394,
Zn2InHg2,0.0,-0.0392394,
PHg,0.0,-0.0392393,
Zr4Os,0.0,-0.0392384,
FeRh2Pt,0.0,-0.039237900000000006,
TiSbHf,0.0,-0.0392376,
Se3SnAu2,1.0064,-0.039237,
Ni3PrPt2,0.0,-0.0392368,
ZnZrIr,0.0,-0.0392367,
BRu6Ta2,0.0,-0.039236400000000005,
AlLa8,0.0,-0.039236,
S5SnPb4,0.1567,-0.0392357,
C2Tb3Tl,0.0,-0.0392349,
NaBa2Tl,0.0,-0.0392329,
CuPd2Pb,0.0,-0.039232300000000005,
CuPdEu2,0.0,-0.0392322,
Ga3CeAu2,0.0,-0.0392316,
CaI6Eu2,0.7771,-0.0392313,
K3Sb2Pt3,0.0,-0.0392299,
ScCdPt,0.0,-0.0392299,
SSnIr,0.0,-0.0392297,
KPdPb,0.0,-0.0392294,
AgSnNd2,0.0,-0.0392292,
Sr3Ac,0.0,-0.039228900000000004,
RuSb2Ce,0.0,-0.0392286,
Ru2In3Tb3,0.0,-0.0392282,
Ga2TmAu,0.0,-0.0392274,
Na3In4Ir4,0.0,-0.0392259,
RhAg2Gd,0.0,-0.0392256,
Ga3Np,0.0,-0.0392245,
ZrSnHo,0.0,-0.0392233,
Ni2PdLu3,0.0,-0.0392233,
LiPd2Hf2,0.0,-0.039222700000000006,
RuCdLa3,0.0,-0.039222700000000006,
NRuHo3,0.0,-0.0392215,
SCs2Hg,1.7147,-0.039221400000000003,
Ga3SmAu2,0.0,-0.03922,
CoSn2Pr6,0.0,-0.0392183,
STeW,0.0,-0.0392182,
Cl2Th,0.0,-0.0392182,
NiRuTm2,0.0,-0.0392181,
Fe2InHf2,0.0,-0.0392179,
NiMo2Re,0.0,-0.0392178,
SiFe2Pu,0.0,-0.0392177,
CdSnPm2,0.0,-0.0392167,
RhPdNd2,0.0,-0.0392165,
Mn2InHf2,0.0,-0.039216299999999996,
CaCdPb,0.0,-0.0392158,
Ga2Rh3Th,0.0,-0.039214799999999994,
InICe,0.0,-0.039214399999999996,
AgCdTb2,0.0,-0.0392142,
YIn4Ir,0.0,-0.0392138,
RuSb2Sm,0.0,-0.039213200000000004,
Si2FeTm6,0.0,-0.0392119,
Si2RhPa,0.0,-0.0392107,
RuSn2Dy,0.0,-0.0392105,
SeILu,2.0111,-0.0392101,
I4Pr,0.0,-0.0392091,
KSe2Tl2,0.0,-0.039209,
PRuIr,0.0,-0.039207,
PCoHf2,0.0,-0.0392065,
Sn2Nd,0.0,-0.0392057,
PdInPm2,0.0,-0.0392056,
NRhHo3,0.0,-0.0392051,
Y2CdHg,0.0,-0.0392044,
CSi2Dy2Ir2,0.0,-0.039204300000000004,
CAlGd3,0.0,-0.0392037,
RhINd,0.0,-0.039203,
Ag4BaAu,0.0,-0.039201599999999996,
Pd2Cd2Hg,0.0,-0.0392015,
SrIn3Pt,0.0,-0.0391993,
RhSbLa,0.0,-0.039197499999999996,
Pd2CdDy2,0.0,-0.039197499999999996,
ClTeIr,1.1806,-0.0391973,
N3Cs5Pt3,0.0,-0.0391971,
Mg2AuPb,0.0,-0.0391962,
Si2RuRhU,0.0,-0.039194,
CdBaLa2,0.0,-0.039193399999999996,
CdLa2,0.0,-0.0391933,
ZnZr6Pb2,0.0,-0.0391932,
In2LaCe,0.0,-0.0391932,
P2SnAu2,0.0,-0.0391929,
Al3FeTh2,0.0,-0.039192199999999996,
RhInDy,0.0,-0.039192,
FeSn2La6,0.0,-0.039191000000000004,
RuRh2Pr3,0.0,-0.0391909,
CoTe2Hf,0.0,-0.039190600000000006,
Ge2Ba2Pb,0.0,-0.0391901,
ScRh2Tl,0.0,-0.0391901,
BeAlPt2,0.0,-0.039188,
ZnPd2Er3,0.0,-0.0391875,
CaAs2Ir2,0.0,-0.0391865,
RuPdNd2,0.0,-0.0391862,
Mn2ZnNp,0.0,-0.0391861,
MgY3Ir2,0.0,-0.0391856,
P2Rh2U,0.0,-0.0391847,
NiRhTm2,0.0,-0.039184399999999994,
CoTc2W,0.0,-0.0391834,
Ga3Ba2Ir2,0.0,-0.039183100000000005,
Pd5SnTl,0.0,-0.0391829,
Tc2Tb,0.0,-0.0391817,
CdTe3CsDy,1.3653,-0.0391805,
PNbOs,0.0,-0.0391781,
In2PrPm,0.0,-0.0391776,
Si2Th,0.0,-0.039177,
Zr4Tl,0.0,-0.039176699999999995,
NiRu2Ir,0.0,-0.039175600000000005,
YSnTm,0.0,-0.039175600000000005,
AlCuTa2,0.0,-0.03917519999999999,
ScInHg,0.0,-0.03917519999999999,
AsSbTb2,0.0,-0.0391751,
S2RbPu,0.0,-0.039174799999999996,
Rh2LaPr,0.0,-0.0391741,
Se3InTm4,0.0,-0.0391732,
Ga2YTa2,0.0,-0.039172,
Br2Pb,3.0425,-0.0391711,
Rh2ILa2,0.0,-0.0391697,
NbSnTb,0.0,-0.0391697,
BGa2DyOs2,0.0,-0.039169600000000006,
GaAgEu2,0.0,-0.039169499999999996,
ZnZrPt,0.0,-0.0391693,
LiAs2HoAu2,0.0,-0.039168999999999995,
PdISm,0.511,-0.0391689,
SiRh3Gd2,0.0,-0.0391688,
As2NdAu,0.0,-0.0391676,
CPTa2,0.0,-0.039167499999999994,
Ru7Pt,0.0,-0.0391666,
InBa2La,0.0,-0.039166200000000005,
CSi2Er2W2,0.0,-0.039165,
GeCeTm,0.0,-0.0391638,
NbRu2Tm,0.0,-0.0391632,
NAl3Hf5,0.0,-0.039162999999999996,
CaSnAu,0.0,-0.0391625,
Ge2NdIr,0.0,-0.0391614,
KAu,0.0,-0.0391612,
RuPd2Nd3,0.0,-0.0391612,
Se2Ba2Hg,1.3729,-0.0391609,
MgBa3Pt,0.0,-0.039160400000000005,
NaSr2Tl2,0.0,-0.0391593,
RhSn2Dy,0.0,-0.0391591,
Zn3HoPt2,0.0,-0.0391583,
AgTe2Tb,0.7928,-0.039158200000000004,
SrCd2Tl,0.0,-0.0391575,
MgBa2Pt,0.0,-0.0391564,
Mg2LaAu2,0.0,-0.039156199999999995,
KTe2Ir,0.8143,-0.0391559,
Si2YOs2,0.0,-0.039154800000000003,
O4Pt3Tl,1.3599,-0.0391532,
Sn3Tb,0.0,-0.0391531,
Al3Si2NiTh3,0.0,-0.0391528,
Pd3Sb8Au,0.0,-0.039152700000000006,
Ga2RuTb6,0.0,-0.0391516,
MnRh2W,0.0,-0.0391513,
Ag2Cd2Tl,0.0,-0.039151200000000004,
SeEu,0.0,-0.0391509,
AgTe3CsDy,0.0,-0.0391505,
Ga2RhHf2,0.0,-0.0391486,
Ru2Tb,0.0,-0.0391486,
In2Ho,0.0,-0.0391481,
CGaLu3,0.0,-0.0391473,
AsY2Pb,0.0,-0.039147100000000004,
Si2CoTm6,0.0,-0.039146799999999995,
Ag4Pt,0.0,-0.039146799999999995,
ScTc2Re,0.0,-0.039146799999999995,
CInLu2,0.0,-0.0391465,
Rh2SbLa2,0.0,-0.039146299999999995,
InTe2Sm,0.0,-0.039146,
NInHo3,0.0,-0.0391458,
Ni2ErTl,0.0,-0.039145200000000005,
I6Cs2Nd,0.0,-0.039144399999999996,
Cu2Nd2Pb,0.0,-0.039144,
C2ZrU,0.0,-0.039143700000000003,
S4PbBi2,0.6172,-0.0391431,
RuILa,0.0,-0.0391428,
CdSb4Ce2,0.0,-0.039142699999999996,
As2LaAu,0.0,-0.0391419,
InNd,0.0,-0.039141800000000004,
Sr3In3Pt2,0.0,-0.0391407,
Ge3Au2,0.0,-0.0391397,
Ge2RuSn3Lu3,0.0,-0.0391395,
RbTe4Gd,0.0,-0.0391395,
MnNb2Re,0.0,-0.0391395,
PI2Tm2,0.0,-0.039139400000000005,
AlTe2Tl,0.3896,-0.0391384,
Rh2CdCe3,0.0,-0.039137700000000004,
Ag2CdEr2,0.0,-0.039137,
OPCdU,0.0,-0.039137,
RbTe2Lu,1.1963,-0.0391368,
Ga2RhTb6,0.0,-0.0391361,
PdSn2Ho,0.0,-0.0391351,
NaRhBi,0.0,-0.0391341,
ScMo2Os,0.0,-0.0391325,
CoSn2La6,0.0,-0.0391321,
SIPt,0.0,-0.039131900000000004,
In2LaPm,0.0,-0.039131900000000004,
ZrSbTb,0.0,-0.0391315,
Sr2BaPt,0.0,-0.039131,
GePd2Pt,0.0,-0.0391308,
KSbPt,0.0,-0.0391307,
Cd4BaTl,0.0,-0.0391306,
CrNb2Re,0.0,-0.0391306,
NaCd2Ac,0.0,-0.0391299,
RuInDy,0.0,-0.039129699999999996,
PdCdTm,0.0,-0.039129699999999996,
GeRh2Tm2,0.0,-0.0391288,
Fe2GaU,0.0,-0.039127699999999994,
LiKTl2,0.0,-0.039127499999999996,
Ga3BaIr2,0.0,-0.0391265,
PdSbNd,0.2953,-0.039126100000000004,
BPt,0.0,-0.039125599999999996,
Ag2Eu,0.0,-0.0391254,
I6Cs2La,0.0,-0.0391248,
SrIn3Ir,0.0,-0.0391247,
CoRh2Os,0.0,-0.0391237,
NiGa2Np,0.0,-0.0391229,
In5Hg,0.0,-0.0391229,
Rh5Hf,0.0,-0.0391221,
TiZrAu,0.0,-0.0391218,
Sn2Pr,0.0,-0.039121699999999995,
ScSrBi,0.0,-0.0391214,
Zn2Ho2Hg,0.0,-0.0391211,
CoRu2W,0.0,-0.039120300000000004,
CuHf,0.0,-0.0391173,
InSn2La2,0.0,-0.0391161,
Sc2YHg2,0.0,-0.039115699999999996,
ScPdHg,0.0,-0.0391155,
AlKAu2,0.0,-0.0391151,
Zn2SbAc,0.0,-0.0391147,
I6Cs2Pr,0.0,-0.0391135,
NaScHg2,0.0,-0.039113100000000005,