formula,bg,formation_energy,mp-id
Sb3Ba2,0.0,-0.039113,
LiAs2CeIr2,0.0,-0.0391128,
Zr4Pt,0.0,-0.039112,
BCRhU,0.0,-0.0391117,
Na2HgBi,0.0,-0.039111400000000004,
CdSb4Sm2,0.0,-0.039111,
FeCo2U,0.0,-0.0391105,
CN2O2Pu2,0.0,-0.0391105,
Si2CdIr2,0.0,-0.0391101,
TiTe4Ta,0.0,-0.03911,
RhIPr,0.0,-0.0391099,
Rh2Sn3Nd3,0.0,-0.0391098,
Zn3HoIr2,0.0,-0.0391098,
RhILa,0.0,-0.0391095,
Ag2InGd,0.0,-0.039109000000000005,
CuRu2Ho3,0.0,-0.0391083,
BeB2Mg2Ir5,0.0,-0.0391079,
MnAs2Dy6,0.0,-0.0391075,
Ga2HoIr,0.0,-0.0391068,
GePdHf,0.0,-0.0391063,
GaZrRuIr,0.0,-0.0391058,
Ag2SmDy,0.0,-0.039105400000000005,
Y3Os,0.0,-0.0391051,
Pd2In3Tb3,0.0,-0.039104799999999995,
CuRuTa,0.0,-0.0391047,
Cl2Dy2Pb,0.0,-0.039104599999999996,
AsNdEr,0.0,-0.0391041,
N2YU,0.0,-0.039104,
PdIn3Sn2Tb3,0.0,-0.039103900000000004,
Ru7W,0.0,-0.0391035,
Sr2InPb,0.0,-0.0391027,
Tc8Os,0.0,-0.0391017,
As2PrAu,0.0,-0.0391016,
AlBa2Hg,0.0,-0.039101500000000004,
TcLa,0.0,-0.0391006,
CSi2Co2U2,0.0,-0.0390987,
Rh2InTm,0.0,-0.0390986,
PRhIr,0.0,-0.0390985,
RuAgSm2,0.0,-0.0390985,
Ge2PrIr,0.0,-0.0390982,
K2InTl2,0.0,-0.039097900000000005,
MnRu2Ta,0.0,-0.03909749999999999,
RhSb2Ce,0.0,-0.0390972,
Ga3NdAu2,0.0,-0.0390965,
YSn2Eu,0.0,-0.0390944,
AgSb2Dy,0.0,-0.0390944,
Rh2CdTb2,0.0,-0.0390942,
AgSnPr2,0.0,-0.0390942,
CaZn2Bi2,0.0,-0.0390941,
LiAs2SmIr2,0.0,-0.0390933,
RhSb2Sm,0.0,-0.0390928,
NCs2Ir,0.0,-0.0390927,
Al3Er2Ir2,0.0,-0.039092100000000005,
FeSnHf,0.0,-0.0390916,
Y2Rh2Hg,0.0,-0.0390912,
Al2PmTh,0.0,-0.0390908,
GaRu2W,0.0,-0.0390907,
Rh2InEu,0.0,-0.039090400000000004,
SiTcRe,0.0,-0.039090200000000005,
In2SnTm,0.0,-0.0390892,
CaTe2Re,0.0,-0.0390892,
Y4Te3Bi,0.0,-0.0390871,
AlK2Au3,0.0,-0.0390868,
RhAgSm2,0.0,-0.0390864,
Ca2Sn3Ir2,0.0,-0.0390857,
MgInBi,0.0,-0.0390857,
SbCsBa,1.0267,-0.0390855,
Ag4SbTl,0.0,-0.039085,
AlPd2Gd2,0.0,-0.0390848,
SeI2Tb2,0.0,-0.0390848,
CdIn2Dy2,0.0,-0.0390847,
Ga2MoHf2,0.0,-0.039084600000000004,
Ge2LaIr,0.0,-0.0390839,
ClSe2Tl2,0.0,-0.039083799999999995,
Ga2HoPt,0.0,-0.0390831,
O5S2Hf2Pu2,0.0,-0.03908229999999999,
NaSe2Np,0.0,-0.03908229999999999,
YEr,0.0,-0.0390822,
PTe3Sm4,0.0,-0.039081899999999996,
Cd2Lu,0.0,-0.0390813,
LiSiPt2,0.0,-0.0390812,
Rb4CdBi2,0.3437,-0.0390812,
PdNd,0.0,-0.0390811,
Y2Pd2Au,0.0,-0.0390803,
CuRh2Ho3,0.0,-0.0390803,
N2ZrPa,0.0,-0.0390803,
TcCdLa3,0.0,-0.0390791,
NaBa3Pt,0.0,-0.0390789,
Cd2In2Hg,0.0,-0.039078600000000005,
Ru2CdTb2,0.0,-0.039078299999999996,
In2PrNd,0.0,-0.039077,
Al2TaIr,0.0,-0.0390763,
Ga3Ge2Hf3Ir,0.0,-0.039076099999999996,
Pd2SnSm2,0.0,-0.0390743,
Ru3Ce2,0.0,-0.0390743,
Zn2Tb2Tl,0.0,-0.039074199999999996,
CoPdTm2,0.0,-0.0390734,
Mg2InPb2,0.0,-0.039073000000000004,
CaPd2Bi,0.0,-0.039073000000000004,
RhSb2Ba6,0.0,-0.0390714,
Ca2InAu2,0.0,-0.0390712,
OZnAsPu,0.0,-0.039071100000000004,
Ru2PdPr3,0.0,-0.039070799999999996,
PdSn5Gd,0.0,-0.0390696,
NiAs2Th,0.0,-0.0390689,
MgCaAu2,0.0,-0.0390688,
PIn2Bi,0.073,-0.0390688,
CrRh2W,0.0,-0.0390686,
AlAu,0.0,-0.039068399999999996,
Si2HfPt,0.0,-0.0390678,
N2Ho2Pt,0.0,-0.039067700000000004,
ClTePt,0.0,-0.039067500000000005,
AsSrTl,0.0,-0.039067300000000006,
In6BaAu,0.0,-0.039067300000000006,
FeNb2Re,0.0,-0.039067199999999996,
KTeAu,0.0,-0.0390668,
Ru2SnHo,0.0,-0.0390666,
CoSnHf,0.0,-0.0390662,
SiNbIr,0.0,-0.0390657,
AgSnDy,0.0,-0.0390654,
Co2Nd2Tl,0.0,-0.0390642,
Ge2NdOs,0.0,-0.0390635,
CaTe4Tm2,0.3967,-0.039063099999999996,
Ge2NdPt,0.0,-0.0390627,
Ga3LaAu2,0.0,-0.0390625,
F2ITl2,0.0,-0.0390625,
Sr2CdBi,0.0,-0.0390623,
AsI2Tb2,0.0,-0.0390623,
BPd6Tl2,0.0,-0.039061900000000004,
Cu4Ir3,0.0,-0.0390618,
PRuPt,0.0,-0.039061,
SI2Tm2,0.0,-0.0390608,
Ga3PrAu2,0.0,-0.0390603,
FeRh2W,0.0,-0.039057800000000004,
SHg,1.0669,-0.039057800000000004,
Se3SbEr4,0.0,-0.039057699999999994,
NOIn2Ho6,0.0,-0.0390567,
BrTeLu,1.0789,-0.0390562,
MnCo2U,0.0,-0.0390548,
RuInLa2,0.0,-0.039051699999999995,
Sn2La,0.0,-0.039051499999999996,
Si3TaTh,0.0,-0.0390497,
SnBa2,0.0,-0.0390493,
ZnAg2Tm3,0.0,-0.039046199999999996,
LiZnAu2,0.0,-0.0390458,
GaPdTm2,0.0,-0.0390458,
As3IHg2,0.6989,-0.0390454,
RhPdPr2,0.0,-0.0390438,
CdInTm,0.0,-0.0390413,
Rh2CdLu,0.0,-0.0390411,
Ni4HgPa,0.0,-0.039041,
RhSnSm,0.0,-0.0390403,
PNbIr,0.0,-0.0390398,
NiYIr,0.0,-0.039039700000000004,
NiGe2Pa,0.0,-0.0390395,
C3Er2W2,0.0,-0.0390394,
YRh4Au,0.0,-0.0390374,
KCaHg2,0.0,-0.0390374,
C5Ta4W,0.0,-0.039037100000000005,
Cu2RuLu3,0.0,-0.0390362,
SeIn2Hg,0.0,-0.0390361,
Zn3TmAu2,0.0,-0.0390353,
Ag4InPb,0.0,-0.0390353,
Ni4TlTh,0.0,-0.039035200000000006,
PNiHf2,0.0,-0.039034799999999995,
GePdEr2,0.0,-0.0390345,
Mn2CdLu3,0.0,-0.0390342,
LiAs2CePt2,0.0,-0.0390334,
Si2Pd2Np,0.0,-0.0390328,
Ag2LaHo,0.0,-0.0390324,
In2LaNd,0.0,-0.039032,
Se4InBi2,0.0,-0.0390318,
LiAs2SmPt2,0.0,-0.0390287,
NaI6Cs2Bi,2.131,-0.0390285,
RuSnSm,0.0,-0.0390283,
FeAs2Dy6,0.0,-0.0390278,
Cu2Pr2Pb,0.0,-0.0390266,
Ru2SnNd2,0.0,-0.0390259,
Ag4BaHg,0.0,-0.0390255,
PTcPt,0.0,-0.0390246,
RhInLa2,0.0,-0.0390243,
AsCeHo,0.0,-0.039023499999999996,
CaSbHg,0.0,-0.0390231,
Co2Sn3Lu3,0.0,-0.0390226,
MgBaPt,0.0,-0.039022100000000004,
PdSbPr,0.2991,-0.039021099999999996,
CAl3Hf5,0.0,-0.0390207,
MgEr3,0.0,-0.03901979999999999,
AsPrEr,0.0,-0.039019599999999995,
ZnRhEu2,0.0,-0.039019399999999996,
PdSb2Ba6,0.0,-0.0390192,
Cu2Sm3Hg,0.0,-0.0390184,
Se3RhHfTl,0.0,-0.039018300000000006,
NiTc2W,0.0,-0.039018000000000004,
CdSnNd2,0.0,-0.0390167,
CdTb,0.0,-0.0390167,
MgBa2Ir,0.0,-0.039016100000000005,
CdTe3CsTb,1.358,-0.039015,
Ag2Sn2Gd,0.0,-0.0390148,
NiSnHf,0.4027,-0.0390146,
SiRuPt,0.0,-0.0390145,
CaRhTl,0.0,-0.0390138,
Ni2ZnPu,0.0,-0.0390133,
Sr2Pt,0.0,-0.0390132,
NCs2Pt,0.0,-0.0390129,
TiMo2W,0.0,-0.0390128,
Li2PtBi,0.0,-0.039012700000000004,
CSi2Tb2Os2,0.0,-0.039012500000000006,
InPr,0.0,-0.039012,
Co2InHf2,0.0,-0.039011899999999995,
Cu3SmPt2,0.0,-0.0390114,
CdSnHo,0.0,-0.0390113,
AgSnLa2,0.0,-0.039010500000000004,
Rh2SnNd2,0.0,-0.0390097,
Mn3Au2,0.0,-0.0390091,
KSb2Tl,0.0,-0.039008600000000004,
Tc8Re,0.0,-0.0390084,
InINd,0.0,-0.039008299999999996,
ZnInEu2,0.0,-0.0390077,
C2Th,0.0,-0.0390072,
Co2PdHf2,0.0,-0.039007,
FCs3Tl,0.0,-0.039007,
Rh2SnHo,0.0,-0.039006599999999995,
RhSn5Nd3,0.0,-0.0390065,
BGa2TbOs2,0.0,-0.039006,
Ge2PrPt,0.0,-0.039005899999999996,
RuSb2Nd,0.0,-0.039005000000000005,
RuPdPr2,0.0,-0.039004199999999996,
Ga3BaPt2,0.0,-0.039004,
CoRh2Ir,0.0,-0.0390032,
MgSiTe4Tl2,0.4983,-0.0390021,
NGaHf2,0.0,-0.0390018,
PdSbLa,0.0,-0.039001600000000004,
Ge2LaPt,0.0,-0.039001600000000004,
CGe2CeW2,0.0,-0.0390014,
SiRhIr,0.0,-0.0390004,
SiNbOs,0.0,-0.0389999,
Ge2PrOs,0.0,-0.038999200000000005,
NiSe2Dy6,0.0,-0.0389991,
NiRu2Pt,0.0,-0.038998,
CoAs2Dy6,0.0,-0.0389978,
Y6RuTl2,0.0,-0.0389963,
Zn2LuPt,0.0,-0.038995800000000004,
NPdHo3,0.0,-0.0389947,
ScAgAu,0.0,-0.0389947,
Ru2PdLa3,0.0,-0.0389946,
ICs,3.8355,-0.0389943,
Cu3CePt2,0.0,-0.0389942,
GaCdEu2,0.0,-0.038994100000000004,
CuTe4Au,0.0,-0.038993099999999996,
NiYPt,0.0,-0.0389927,
InTe2La,0.1854,-0.0389897,
Ag2CdHf,0.0,-0.0389894,
Si2Ru3Np,0.0,-0.0389894,
Al2TaOs,0.0,-0.038988,
Zn2LuIr,0.0,-0.038987299999999996,
Se2Pb,0.0,-0.0389871,
Cd2SmHo,0.0,-0.038987,
RuPd2Pr3,0.0,-0.0389867,
GeNbHf,0.0,-0.038986400000000004,
YIn2Gd,0.0,-0.0389858,
GaI6Cs2Au,0.0,-0.0389845,
MnPd2Pt,0.0,-0.0389844,
CuTb3,0.0,-0.0389839,
AgTe3CsTb,0.0,-0.0389819,
MgTe4Cs2Pb,0.2473,-0.0389814,
CaAs2Pt2,0.0,-0.038981299999999997,
LiAs2DyAu2,0.0,-0.0389812,
Ca2CdPt2,0.0,-0.0389788,
Ag4Au,0.0,-0.038978,
SiRhPt,0.0,-0.0389773,
Y6RhTl2,0.0,-0.0389769,
RhPdLa2,0.0,-0.0389769,
Cd2SnDy2,0.0,-0.0389768,
Fe2In5Lu4,0.0,-0.038976300000000005,
ZrMo4Hf,0.0,-0.0389757,
P2Ru2Pa,0.0,-0.038975499999999996,
GaPdTa,0.0,-0.0389752,
Br3IHg2,1.601,-0.0389752,
NTm2,0.0,-0.038974600000000005,
MnRh2Au,0.0,-0.038974299999999996,
Ca2AgPt2,0.0,-0.038972299999999994,
MgY3Os2,0.0,-0.0389718,
SrI4Eu,0.7332,-0.0389718,
Pd2TeLa2,0.0,-0.0389705,
N2Ga3Lu7,0.0,-0.0389699,
Si2YPt2,0.0,-0.038968699999999995,
CdSn2Sm2,0.0,-0.038968499999999996,
In2LaPr,0.0,-0.0389682,
LiGaHg2,0.0,-0.038966900000000006,
AsITb2,0.0,-0.038966,
CuAgPt,0.0,-0.038966,
Ag2Te2Eu,0.0,-0.038965200000000005,
SiSe7Bi4,0.2359,-0.0389647,
Ni2Ru3Th,0.0,-0.0389645,
YPd2Gd,0.0,-0.0389643,
Cu2La2Pb,0.0,-0.0389641,
ZnInAu,0.0,-0.0389633,
LiTiHg2,0.0,-0.0389633,
Li2LaTl2,0.0,-0.0389632,
CSiYOs2,0.0,-0.038962000000000004,
InTe2Pm,0.0,-0.038961300000000004,
Zn3DyPt2,0.0,-0.0389608,
FeSeBi,0.1226,-0.0389607,
K2PtHg,0.0,-0.038960299999999996,
Mg2LuAc,0.0,-0.0389602,
Ca2SnHg2,0.0,-0.0389601,
GeI2Dy2,0.0,-0.0389601,
Al3Si2CuTh3,0.0,-0.0389597,
SrCd2Pt,0.0,-0.038959,
K2PdTl2,0.0,-0.038958599999999996,
Ga2HoOs,0.0,-0.0389585,
CrRu2Ta,0.0,-0.0389581,
Rh2SbDy,0.0,-0.0389578,
RuSn2Tb,0.0,-0.0389574,
Ni2RhHf2,0.0,-0.03895729999999999,
O2AuTl,0.0,-0.0389551,
LiAs2NdIr2,0.0,-0.0389546,
SiMoPt,0.0,-0.0389527,
Ni2PmBi,0.0,-0.03894980000000001,
SrAg2Au,0.0,-0.0389497,
GaI6Cs2Hg,0.0,-0.038948300000000005,
AlSr2Au2,0.0,-0.038947699999999995,
LiRuGd2,0.0,-0.0389473,
InILa,0.0,-0.0389473,
Si3Sb3Tb10,0.0,-0.0389463,
FeRu2Ta,0.0,-0.038946100000000004,
LiMgPtPb,0.0,-0.0389454,
CSi2Dy2Re2,0.0,-0.0389452,
In3Eu,0.0,-0.0389449,
Ru3Sm2,0.0,-0.0389435,
K3Sb2Au3,0.7883,-0.0389435,
Rh2Tb,0.0,-0.0389432,
Pd2CdSm3,0.0,-0.038942199999999996,
Y2ZrHg,0.0,-0.038942199999999996,
Zr3Ru2Hg,0.0,-0.0389421,
NSnDy3,0.0,-0.0389414,
InTe2Nd,0.0,-0.0389413,
YSbHo,0.0,-0.038940800000000005,
N2Sn3Tb7,0.0,-0.038940600000000006,
Mo8Os,0.0,-0.0389405,
Rh3Tm,0.0,-0.0389399,
RuSb2Pr,0.0,-0.0389398,
InIPr,0.0,-0.038939,
Co2Pr2Tl,0.0,-0.038938600000000004,
Rh7Pb,0.0,-0.0389384,
Al2Ho3Hg,0.0,-0.0389376,
Cu2SbHf2,0.0,-0.0389366,
S2RbPb2,0.0,-0.0389363,
Ge2PdSn3Lu3,0.0,-0.0389361,
Ga3Sn2Er3Ir,0.0,-0.0389361,
AsSmHo,0.0,-0.0389356,
CaSb2Au,0.0,-0.0389352,
OInHo3,0.0,-0.0389349,
GeTe4Hf,0.1635,-0.038934800000000006,
Ru2InCe2,0.0,-0.0389334,
Co3U,0.0,-0.038932800000000004,
InLa,0.0,-0.038932,
CaInTl,0.0,-0.038932,
CTa,0.0,-0.0389318,
Ga2La2Tl,0.0,-0.0389318,
RuIn3Dy2,0.0,-0.038931600000000004,
RuSb2La,0.0,-0.0389312,
Sr2BaIr,0.0,-0.0389294,
NiAs2Dy6,0.0,-0.0389291,
Ge2In3Sm3Ir,0.0,-0.0389288,
RuPdLa2,0.0,-0.0389281,
Al3Sn2Gd3Ir,0.0,-0.0389268,
PdPr,0.0,-0.0389263,
NaBa3Ir,0.0,-0.038924799999999996,
PdInDy,0.0,-0.0389247,
MnRu2Dy3,0.0,-0.0389243,
RhSn5Pr3,0.0,-0.0389242,
LiLaAu,0.0,-0.0389235,
SrIn3Au,0.0,-0.0389227,
NiPd2Ho3,0.0,-0.0389223,
GeRh2Ta,0.0,-0.0389223,
AlSb2Nd6,0.0,-0.0389219,
Mo7Ta,0.0,-0.038921700000000004,
Si2Dy2Pb,0.0,-0.0389208,
RbIn9Ir2,0.0,-0.038920699999999996,
ScRh2Ir,0.0,-0.0389187,
NiRu2W,0.0,-0.0389182,
CSbDy3,0.0,-0.0389172,
SCl2Au2Hg,1.4321,-0.038917,
CuRuTm2,0.0,-0.038916200000000005,
Fe2NiU,0.0,-0.0389159,
B2Rh2Pu,0.0,-0.0389155,
Mn3RuPt2,0.0,-0.0389152,
LiAs2LaIr2,0.0,-0.038911799999999996,
H2Ho3Pb,0.0,-0.0389117,
OGeEu3,0.0,-0.0389116,
RuPd2La3,0.0,-0.038911299999999996,
Ni3CeAu2,0.0,-0.0389112,
RhSn3Er,0.0,-0.038911,
CaPdTl,0.0,-0.0389103,
CSi2Tb2Ir2,0.0,-0.0389103,
RhSn2Tb,0.0,-0.038910200000000006,
LiAs2PrIr2,0.0,-0.0389101,
HInTm3,0.0,-0.038909799999999994,
OPdHo3,0.0,-0.0389091,
Pd2SnEr,0.0,-0.0389089,
AgInSm2,0.0,-0.0389086,
Zn3DyIr2,0.0,-0.0389086,
Zn2Sm2Pb,0.0,-0.038908200000000004,
N2SrPu,0.0,-0.038906500000000004,
OCsPt,0.0,-0.038906199999999995,
Zr2Lu,0.0,-0.0389059,
ZnIn2Pb,0.0,-0.0389056,
AlCaHg2,0.0,-0.0389055,
Rh2In4Au,0.0,-0.0389042,
MgSr2Pt2,0.0,-0.0389024,
K2CsAu2,0.0,-0.0389016,
AlHo3,0.0,-0.0389015,
YRh4Hg,0.0,-0.0389014,
Pd5I2Tl,0.0,-0.0389013,
Pd2SbHo,0.0,-0.0388997,
Ga2PdHf2,0.0,-0.0388996,
MgSb2Pb,0.0321,-0.0388992,
Pd5Tb3,0.0,-0.0388991,
Ru2AgNd3,0.0,-0.038898800000000004,
PClHg2,0.6127,-0.0388986,
RhSn5La3,0.0,-0.0388982,
ZnPdEu2,0.0,-0.038898,
Ni2ErPt,0.0,-0.038898,
S2Pd3Pb2,0.0,-0.038896900000000005,
CYLa2Hg,0.0,-0.0388967,
CoNb2Re,0.0,-0.0388964,
RbPdTe3Hf,0.0,-0.0388957,
ZnRb2Au2,0.0,-0.0388955,
BeAlRe2,0.0,-0.0388955,
SeSbLu,0.0,-0.0388949,
CuYTl,0.0,-0.0388945,
LiRhGd2,0.0,-0.0388942,
Ru2SnPr2,0.0,-0.0388937,
CdSb4Nd2,0.0,-0.0388928,
RhCdEr,0.0,-0.0388921,
ScRh2Pt,0.0,-0.0388919,
Cu3TbAu2,0.0,-0.0388916,
KSr2Au2,0.0,-0.038891100000000005,
K2AuHg,0.0,-0.0388907,
Sn7Nd3,0.0,-0.0388902,
Na2PtPb,0.0,-0.0388899,
Cd2InHo2,0.0,-0.0388898,
Se2RuSm6,0.0,-0.0388898,
CdSnPr2,0.0,-0.038889400000000005,
LiAs2NdPt2,0.0,-0.038889400000000005,
Se3PdHfTl,0.0,-0.0388893,
RhSb2Nd,0.0,-0.0388889,
Si2Ho2Ir,0.0,-0.0388889,
PdINd,0.4268,-0.038888599999999995,
KAs2Tl2,0.0,-0.0388872,
AgInEr,0.0,-0.038887,
Cu4Pt3,0.0,-0.0388865,
Ga3Sn2Er3Os,0.0,-0.0388864,
NNiHf2,0.0,-0.0388864,
Co2In5Lu4,0.0,-0.0388863,
K2SnPt2,0.0,-0.0388862,
Co2CdLu3,0.0,-0.0388861,
CuRhTa,0.0,-0.0388859,
BrIn2Hg,0.0,-0.0388851,
In2IPr2,0.0,-0.0388847,
Pd2SbLa2,0.0,-0.038884,
CuRhTm2,0.0,-0.038884,
LiMgIrPb,0.0,-0.0388827,
KSb2Ir,0.0,-0.0388827,
O2Sm2Bi,0.0,-0.0388816,
InTe2Pr,0.0,-0.0388808,
YSb2La2,0.0,-0.0388807,
Ca2PdAu2,0.0,-0.0388806,
Ca2YTl2,0.0,-0.0388803,
Rh2SnPr2,0.0,-0.0388801,
GaRbBi,0.0,-0.0388799,
Mg2BaPt2,0.0,-0.0388799,
In2ILa2,0.0,-0.038879399999999995,
NaGa2Bi2,0.0,-0.0388788,
MnGa2U,0.0,-0.0388782,
Ge2In3Sm3Pt,0.0,-0.0388772,
O2Ce2Bi,0.0,-0.0388768,
GaYAu,0.0,-0.0388753,
KSb2Pt,0.0,-0.0388745,
ZnRu2Ho3,0.0,-0.0388737,
Br4Pu,0.0,-0.0388729,
MgLa8,0.0,-0.0388718,
GaCdAu,0.0,-0.0388713,
GaSn2Hg,0.0,-0.0388711,
Sc2GePt2,0.0,-0.0388699,
KYBi,0.0,-0.0388693,
SiTe3Tl,0.0,-0.0388688,
C2GeHf3,0.0,-0.0388687,
NaPdBi,0.0,-0.0388685,
Ga3Rh2Hf3,0.0,-0.0388677,
Al3Sn2Gd3Os,0.0,-0.0388675,
CuInHg,0.0,-0.0388669,
I3Ba,0.0,-0.038866700000000004,
CuZrAu,0.0,-0.0388659,
PdSb2Ce,0.0,-0.0388649,
Zn4RbBi3,0.0,-0.038864499999999996,
Co2La2Tl,0.0,-0.0388644,
Ga2ErAu,0.0,-0.0388639,
ZnPd2Lu2,0.0,-0.0388635,
Sr2SnTl,0.0,-0.0388594,
AlW,0.0,-0.0388585,
BW,0.0,-0.0388577,
PdSb2Sm,0.0,-0.0388566,
AsIn2Hg,0.0,-0.0388562,
AgCdEu,0.0,-0.0388561,
Al3Sn2Gd3Pt,0.0,-0.038856,
TcAgCe2,0.0,-0.0388553,
LiPPt2,0.0,-0.038855100000000004,
AgSb2Tb,0.0,-0.0388542,
BMgPt2,0.0,-0.038854,
ScMo2Re,0.0,-0.0388524,
Ge2In3Sm3Os,0.0,-0.0388523,
CaIn7Pt2,0.0,-0.0388519,
Br2SbLu2,0.0,-0.038851500000000004,
NiRh2Os,0.0,-0.038851,
PdLa,0.0,-0.0388508,
Cu3NdPt2,0.0,-0.0388507,
CoRh2Pt,0.0,-0.038850499999999996,
GaIn2Ir,0.3038,-0.038849800000000004,
Ga3Sn2Er3Pt,0.0,-0.038849800000000004,
ZnRh2Ho3,0.0,-0.0388497,
Ge6SrIr4,0.0,-0.038848999999999995,
Cu2Tb2Hg,0.0,-0.0388483,
Na2BaTl2,0.0,-0.038847700000000006,
PdSn2Dy,0.0,-0.03884749999999999,
NOSn2Dy6,0.0,-0.038847,
SiTe3Sm4,0.0,-0.0388466,
N2In3Dy7,0.0,-0.0388461,
LiAs2PrPt2,0.0,-0.038845599999999994,
RuAgPm2,0.0,-0.0388447,
Ca2RbPb2,0.0,-0.0388443,
LiAs2LaPt2,0.0,-0.0388443,
GaRu2Ta,0.0,-0.038843800000000005,
Ag2SmTb,0.0,-0.038843499999999996,
Na2InPb2,0.0,-0.0388434,
RhInTb,0.0,-0.0388434,
LiSiRe2,0.0,-0.0388434,
Cu2InAc,0.0,-0.0388433,
Se3SnEr4,0.0,-0.0388431,
MgRu2Tm3,0.0,-0.0388427,
Ag3La5,0.0,-0.0388425,
CuI6Cs2Au,0.6333,-0.0388397,
Ag2SnLu,0.0,-0.038839599999999995,
H5IrPu2,0.0,-0.0388392,
Co2Sn5Tm4,0.0,-0.038839,
O2SeBi2,0.4433,-0.0388386,
TiRh2Au,0.0,-0.038837899999999995,
RhAgPm2,0.0,-0.0388371,
Ca2CdIr2,0.0,-0.0388368,
Zn2Ce2Pb,0.0,-0.0388368,
SiCaTe4Au2,0.0,-0.0388367,
NiMo2W,0.0,-0.0388364,
Rh2SnLa2,0.0,-0.038834,
AgSn2Er,0.0,-0.0388339,
In2Sn2Eu,0.0,-0.0388335,
Ru7Ta,0.0,-0.03883229999999999,
B4HfIr3,0.0,-0.0388314,
Tc8W,0.0,-0.038830500000000004,
LiI6Cs2Bi,1.9333,-0.0388297,
CaSn2Ir,0.0,-0.0388292,
CdSb4Pr2,0.0,-0.0388289,
TiPd2Ir,0.0,-0.0388282,
ClAu,0.1997,-0.0388273,
AlTe2Pr6,0.0,-0.038826599999999996,
RhSb2Pr,0.0,-0.038826099999999995,
SrIn4Pb,0.0,-0.0388257,
Te3Ba,0.718,-0.0388256,
B2N3Co2Pa3,0.0,-0.0388249,
YInEu,0.0,-0.038824399999999995,
AsZrHf,0.0,-0.038824,
Ni2Nd2Tl,0.0,-0.0388236,
MgCuTh,0.0,-0.0388226,
Ag2InDy2,0.0,-0.0388216,
K2BaHg2,0.0,-0.0388213,
Pd5Ta,0.0,-0.038821,
LiAs2TbAu2,0.0,-0.0388195,
CSiTa2,0.0,-0.0388195,
Sb2Ba,0.0,-0.0388191,
TiTc2Ta,0.0,-0.038819,
Al2RbBi2,0.0,-0.038819,
CaGe2Ir2,0.0,-0.038817300000000006,
Zn2AgTh,0.0,-0.038815800000000004,
Rh2Sb2Dy,0.0,-0.038815300000000004,
Y2Pd2Hg,0.0,-0.038815300000000004,
ZnSnTm2,0.0,-0.0388144,
RhSb2La,0.0,-0.038814100000000004,
Ru2InSm2,0.0,-0.038813099999999996,
RhIn2Tm,0.0,-0.038813,
CdSnLa2,0.0,-0.0388121,
PdILa,0.5187,-0.038811700000000005,
LiScHg2,0.0,-0.0388107,
MgZnHg2,0.0,-0.0388103,
In6Ir,0.0,-0.0388103,
Al2CsAu2,0.0,-0.0388095,
TeCs2,1.8813,-0.038809199999999995,
Rh2InSm2,0.0,-0.0388091,
Ni2HoTl,0.0,-0.0388062,
CuEr2,0.0,-0.0388053,
CoRh2W,0.0,-0.0388048,
Si2Ho2Pt,0.0,-0.0388045,
Ga2DyIr,0.0,-0.038804200000000004,
CrRh2Au,0.0,-0.038802300000000005,
CrPd2Pt,0.0,-0.0388016,
SSbAu,0.0,-0.038801,
Sr2SbAu,0.5392,-0.0388007,
Ni4Au3,0.0,-0.0387993,
Sn7La3,0.0,-0.0387973,
MgSn2Bi,0.0,-0.0387967,
S2HfHg,0.0,-0.0387967,
Na2PdPb2,0.0,-0.0387963,
MgTl,0.0,-0.0387943,
AgInCe2,0.0,-0.038794199999999994,
CTeTm2,0.0,-0.038793999999999995,
Cu3PrPt2,0.0,-0.038793799999999996,
SrCd2Ir,0.0,-0.0387937,
Al2PdPt2,0.0,-0.0387936,
AsRhGd,0.0,-0.0387928,
AlSnPt,0.0,-0.038792700000000006,
Rh2InCe2,0.0,-0.0387926,
InSbPr,0.0,-0.038792,
Zn3ErAu2,0.0,-0.0387919,
NaBa3Au,0.0,-0.0387917,
LiBa2Tl,0.0,-0.038790599999999995,
CGaHf2,0.0,-0.0387898,
FeZr6Tl2,0.0,-0.0387897,
Sr2BaAu,0.0,-0.0387897,
AsTeLu,0.2556,-0.0387896,
ScTc2W,0.0,-0.0387892,
Zn3TbPt2,0.0,-0.0387889,
In6Pt,0.0,-0.038788800000000005,
CuCdPt,0.0,-0.0387879,
SrSn6Pt,0.0,-0.038787300000000004,
CoSeBi,0.0,-0.0387872,
Ni3NdAu2,0.0,-0.038787,
ScSbHf,0.0,-0.038786,
Ru2SnLa2,0.0,-0.0387853,
MnZr6Tl2,0.0,-0.0387851,
LiSr2Tl2,0.0,-0.0387843,
KSbAu,0.0,-0.0387839,
BRh6Ta2,0.0,-0.0387839,
Ga2DyPt,0.0,-0.0387834,
Co4Ga4Th3,0.0,-0.0387833,
LiAlPt2,0.0,-0.0387825,
NGeEu3,0.0,-0.038781300000000005,
LiAlIr2,0.0,-0.0387806,
CSi2Ho2W2,0.0,-0.0387799,
MgRh2Tm3,0.0,-0.0387791,
RuInTb,0.0,-0.0387789,
MgBa2Au,0.0,-0.038778599999999996,
Cu3LaPt2,0.0,-0.0387783,
Ru8Ir,0.0,-0.038778,
CGe2LaW2,0.0,-0.0387761,
NiRh2Re,0.0,-0.0387761,
SiRh2Lu2,0.0,-0.038775399999999995,
Pd2CdTb2,0.0,-0.0387753,
Al2BaHg2,0.0,-0.038775199999999996,
Cd4Te5Pb,1.2361,-0.038775,
As2Cs2Pb,0.5688,-0.0387747,
Si2In3Er3Ir,0.0,-0.038772,
Si4RbPt4,0.0,-0.038771900000000005,
AsSrPt,0.0,-0.0387715,
NZnLu3,0.0,-0.03876979999999999,
KAs2Ir2,0.0,-0.0387691,
Pd2InEu,0.0,-0.0387689,
GaIn2Tl,0.0,-0.0387686,
Y3Au,0.0,-0.0387682,
AlMn2Pu,0.0,-0.038768000000000004,
Pd5TeHg,0.0,-0.0387676,
FeGa2U,0.0,-0.0387669,
Nb6Te8Bi,0.0,-0.038766300000000004,
Co3Ir2,0.0,-0.038765799999999996,
GeRu3Eu2,0.0,-0.0387652,
GaCd2Bi,0.0,-0.0387649,
CoRu2Dy3,0.0,-0.0387632,
Ni2InHf2,0.0,-0.0387624,
In2Dy,0.0,-0.0387622,
Ga2NbHf2,0.0,-0.038762,
Ni2Sn5Tm4,0.0,-0.0387612,
Pd5Hg,0.0,-0.0387607,
Co2GaU,0.0,-0.0387604,
TiPd2Pt,0.0,-0.0387599,
NbRu2Er,0.0,-0.0387592,
CaSn2Pt,0.0,-0.0387589,
ZrRu2Tm,0.0,-0.038758600000000004,
CoLa5,0.0,-0.0387571,
PdSnSm,0.0,-0.0387561,
ZnMo2Ir,0.0,-0.0387558,
ZrPd2Lu,0.0,-0.0387553,
PRhPt,0.0,-0.038754399999999994,
Al3CuTh2,0.0,-0.0387532,
NaCaAu2,0.0,-0.038753100000000006,
ClTe2Pt,0.0,-0.038752699999999994,
AlTe2La6,0.0,-0.0387526,
Si2Ru2Pa,0.0,-0.0387507,
Rh2CdNd3,0.0,-0.0387496,
MgBaIr,0.0,-0.0387486,
P2Cd2Pu,0.0,-0.038746699999999995,
Si2PdPa,0.0,-0.038746499999999996,
Ru2CdNd3,0.0,-0.0387464,
P2InAu2,0.0,-0.0387457,
AlSb2Pr6,0.0,-0.038745600000000005,
Ru2SnDy,0.0,-0.0387447,
CoZr6Tl2,0.0,-0.0387446,
CoSbHo2,0.0,-0.0387436,
Mg2RuPu,0.0,-0.0387436,
LiSbPb,0.3641,-0.038743400000000004,
Si4Zr3Pt4,0.0,-0.038743299999999994,
CaInPt,0.0,-0.0387402,
Rh2PdTm,0.0,-0.0387401,
YRh2Lu,0.0,-0.038739800000000005,
CrMo2Ta,0.0,-0.0387384,
Mn3Tm2Os,0.0,-0.0387377,
TiRu2Ta,0.0,-0.038737299999999995,
Mg2HgPb,0.0,-0.0387368,
Sr2Ir,0.0,-0.038736400000000004,
In2SnEr,0.0,-0.0387358,
NiSb2Ho2,0.0,-0.0387348,
Ni3PrAu2,0.0,-0.0387341,
Cu2Sm2Tl,0.0,-0.0387341,
Ag2LaDy,0.0,-0.0387339,
LiTcGd2,0.0,-0.0387338,
Cd4Tl,0.0,-0.0387333,
Ge3Th,0.0,-0.038733199999999995,
Zn3TbIr2,0.0,-0.0387331,
CuSbHf,0.0,-0.0387324,
InSn2Dy,0.0,-0.0387324,
TiTe4Hf,0.0,-0.038732300000000004,
AgIn2Lu,0.0,-0.0387322,
AgSnTb,0.0,-0.038732,
Ni2Rh3Th,0.0,-0.038731699999999994,
RhSnNd,0.0,-0.0387314,
SiNbPt,0.0,-0.0387314,
CdInSm2,0.0,-0.0387311,
FeIn2Nd6,0.0,-0.038730400000000005,
CuAs2Th,0.0,-0.0387293,
MnPd2Au,0.0,-0.0387291,
Al3Si2ZnTh3,0.0,-0.0387285,
K2IHg2,0.0,-0.038728200000000004,
PZrOs,0.0,-0.0387275,
GeRh3Eu2,0.0,-0.0387268,
Li2CdBi2,0.0,-0.0387253,
CuPd2Ho3,0.0,-0.0387252,
Ti2GaPt2,0.0,-0.038724400000000006,
Y2In2Hg,0.0,-0.0387232,
FePd2Pt,0.0,-0.0387226,