formula,bg,formation_energy,mp-id
AlTb2Ir2,0.0,-0.049812600000000005,
ZnSnPa,0.0,-0.0498109,
OIPa,0.0,-0.049810099999999996,
K2Au3Tl,0.0,-0.0498092,
Ge2HoPu,0.0,-0.0498082,
S2TlU,0.0,-0.049806800000000005,
Mo4W3,0.0,-0.0498055,
Cd4Pb3,0.0,-0.049804299999999996,
SrSnAu2,0.0,-0.049804299999999996,
AgTb2Tl,0.0,-0.0498042,
Rh2Tm3Au,0.0,-0.0498036,
CaErHg2,0.0,-0.0498031,
Pd2AgPb2,0.0,-0.0498025,
SrPb,0.0,-0.0498024,
ZrHg,0.0,-0.049800699999999996,
ZnDy6Tl2,0.0,-0.0498005,
Te2Ho6Ir,0.0,-0.0498004,
ZnCeAu2,0.0,-0.049800199999999996,
Te2DyTl,0.2406,-0.0497999,
SrInPt2,0.0,-0.0497989,
SrPd2Au3,0.0,-0.049797600000000004,
MgHo3Ir2,0.0,-0.0497975,
ZnHfPt,0.0,-0.0497973,
ZnCe2Ir2,0.0,-0.0497961,
SBr2Th2,0.0,-0.0497961,
BaLa2Tl,0.0,-0.049796,
SeInTl2,0.0,-0.0497955,
GaLa2Pt2,0.0,-0.049794899999999996,
Ni2AuTh,0.0,-0.0497938,
SiRhU,0.0,-0.049793500000000004,
RbInTl2,0.0,-0.0497878,
MgHoPt2,0.0,-0.049787700000000004,
MgSm2Pb2,0.0,-0.0497863,
MgHgPb,0.0,-0.0497847,
NiNd2Ir2,0.0,-0.0497842,
Pd2TmBi,0.0,-0.0497834,
AgDy2Au,0.0,-0.0497831,
MgEr2Au2,0.0,-0.049783,
PTePb2,0.0,-0.0497827,
MgLuHg2,0.0,-0.0497808,
I2Tb2Pb,0.0,-0.0497806,
AlHoAu2,0.0,-0.0497796,
Co2BrTh2,0.0,-0.0497789,
ZrAgHg2,0.0,-0.0497774,
CaCdBi2,0.0,-0.049775599999999996,
LiBaHg3,0.0,-0.0497748,
AgCeTl,0.0,-0.049774099999999995,
Ge2SmPt3,0.0,-0.0497718,
ZnSm2Ir2,0.0,-0.049771,
CdI6Tl4,1.7404,-0.049770499999999995,
Ge2Au2Tl,0.0,-0.04977,
CdHoHg,0.0,-0.0497699,
SbBaAu,0.0,-0.0497699,
ZrRhTa2,0.0,-0.0497695,
MgTmAu2,0.0,-0.0497693,
NaEuAu2,0.0,-0.0497669,
RhSb2Lu6,0.0,-0.0497661,
Si3IrTh2,0.0,-0.0497658,
CaAuHg,0.0,-0.049762999999999995,
BaLa2Ir,0.0,-0.0497627,
RbPdTl2,0.0,-0.0497617,
Te2Ho6Pt,0.0,-0.0497609,
Ga2RuHf6,0.0,-0.0497583,
CoLuPb,0.0,-0.049757800000000005,
Si2GdIr3,0.0,-0.0497576,
CuEuBi,0.0,-0.0497568,
KBa2Bi2,0.0,-0.0497562,
NdTm3,0.0,-0.049756,
As2EuPb2,0.0,-0.0497517,
AlWRe,0.0,-0.0497517,
AgTe3PbBi,0.0,-0.049751199999999995,
Y2HgTl,0.0,-0.0497504,
SiTaPt,0.0,-0.0497492,
Rh4Ba3Tl4,0.0,-0.049747799999999995,
MgDyTl2,0.0,-0.049747599999999996,
YNdPb,0.0,-0.0497468,
InNd2Pb,0.0,-0.0497467,
RuLa2Pb,0.0,-0.0497448,
HTeNp,0.0,-0.0497444,
Mn2CeIr3,0.0,-0.0497442,
Sn4Ba3Au4,0.0,-0.049744100000000006,
Te2Ho6Os,0.0,-0.049743899999999994,
Pd2Tm3Pt,0.0,-0.0497425,
LiTmPt2,0.0,-0.0497408,
In2LaHg2,0.0,-0.0497403,
NW2,0.0,-0.0497403,
TiSnTh,0.0,-0.04974,
Mn2Pt2Au,0.0,-0.0497396,
CW2,0.0,-0.049739,
Sb2Ho6Ir,0.0,-0.0497379,
GaRuTh,0.0,-0.0497361,
SrRu2Np,0.0,-0.049735999999999995,
GaCeHg2,0.0,-0.0497359,
Ga2HoPt3,0.0,-0.0497358,
O2SNp2,0.0,-0.0497357,
La3Hg,0.0,-0.049734499999999994,
Al2PtPu,0.0,-0.0497344,
RhPd2Th,0.0,-0.0497336,
ONd4Bi2,0.0,-0.049732700000000005,
SiTaRe,0.0,-0.0497313,
NiNd2Pt2,0.0,-0.0497313,
Sn2Ho2Pb,0.0,-0.0497306,
ZnRuPa,0.0,-0.0497296,
Mn2SmIr3,0.0,-0.049728900000000006,
SnPm2Tl,0.0,-0.0497241,
In2BaAc,0.0,-0.0497234,
SiNdPt2,0.0,-0.0497229,
AgTb2Ir,0.0,-0.0497221,
ZrMoTa2,0.0,-0.0497205,
RuHf,0.0,-0.049718899999999996,
SrCdTl2,0.0,-0.0497187,
MgCsHg3,0.0,-0.0497178,
CoAsPu,0.0,-0.0497153,
RhLa2Pb,0.0,-0.0497144,
HInPt3,0.0,-0.049713900000000005,
Si3PtTh2,0.0,-0.049712200000000005,
Rh2ErBi,0.0,-0.049711599999999995,
In4Pt3,0.0,-0.0497092,
Pd2CsTl2,0.0,-0.0497091,
AgHg,0.0,-0.0497089,
Ga2RhHf6,0.0,-0.0497067,
Cu3Pt5,0.0,-0.0497058,
AlTb2Pt2,0.0,-0.0497057,
Ga2DyIr3,0.0,-0.0497057,
CdHo2Hg,0.0,-0.049703699999999996,
Cu2Ho3Tl3,0.0,-0.0497035,
GeRbAu3,0.0,-0.0497023,
CaTbAu2,0.0,-0.0497021,
DyEr3,0.0,-0.049700600000000004,
NiBaIr2,0.0,-0.0496993,
ZnLu2Ir,0.0,-0.0496991,
Ru2Er2Pb,0.0,-0.049698099999999995,
Cd2LaPt2,0.0,-0.049698099999999995,
Rh3LaPb2,0.0,-0.0496976,
In2SbTl2,0.0,-0.049696699999999996,
N2FeU2,0.0,-0.0496958,
SrBa2Tl2,0.0,-0.0496957,
BC2Pu2,0.0,-0.0496954,
Ho3Tm,0.0,-0.0496946,
GaPr2Os2,0.0,-0.0496942,
Sb2Ho6Pt,0.0,-0.049694,
SbTbHf,0.0,-0.0496921,
Mn2TmPu,0.0,-0.0496913,
SbGdEr,0.0,-0.049691200000000005,
PLaPt2,0.0,-0.0496902,
In5AuPu,0.0,-0.0496881,
PrTm3,0.0,-0.049687600000000005,
AgLa2Bi,0.0,-0.0496875,
Pd2CdPb2,0.0,-0.0496871,
AgTb2Pt,0.0,-0.0496869,
GeTe4Pb3,0.4633,-0.049686799999999996,
BMg2Ir6,0.0,-0.049686799999999996,
CaPmPt2,0.0,-0.0496862,
Sb2Ho6Os,0.0,-0.049683700000000004,
Dy3Lu,0.0,-0.0496797,
Sn3Tb3Pt2,0.0,-0.0496788,
RbTe2Pa,0.0,-0.0496767,
Cu3Pt2Pu,0.0,-0.049676000000000005,
PPmPt2,0.0,-0.049673499999999995,
GaRhTh,0.0,-0.0496719,
InNdAu,0.0,-0.0496713,
Rh2Er2Pb,0.0,-0.0496712,
CdBa2Hg2,0.0,-0.049670900000000004,
LiCaPt4,0.0,-0.049668300000000006,
YPrPb,0.0,-0.049666600000000005,
YAu,0.0,-0.0496662,
BaLa2Pt,0.0,-0.049665100000000004,
MnSm6Bi2,0.0,-0.0496648,
PdTe2Lu6,0.0,-0.0496631,
GeLuIr,0.0,-0.049663,
HoEr,0.0,-0.049662,
ZnPmAu2,0.0,-0.0496602,
SrPd2Bi2,0.0,-0.0496593,
ZnSm2Pt2,0.0,-0.0496584,
Ti2Pt3,0.0,-0.049656,
GeTe7Bi4,0.3822,-0.049656,
NiTmBi,0.1558,-0.049655200000000004,
Sn3Tb3Ir2,0.0,-0.0496545,
Rh2SbAc,0.0,-0.0496539,
NiLuPb,0.0,-0.049650799999999995,
Cd3Bi2,0.0,-0.0496494,
ClSbPb2,0.2068,-0.0496482,
KCaAu4,0.0,-0.0496457,
Ag2BaTl2,0.0,-0.0496454,
Cd2AuHg,0.0,-0.0496449,
ZnLu2Pt,0.0,-0.0496445,
GaGdPt,0.0,-0.049644,
GaSm2Au2,0.0,-0.0496427,
RhSnBi,0.0,-0.0496426,
NiPr2Ir2,0.0,-0.0496423,
GaGdIr,0.0,-0.04964180000000001,
ZnCe2Pt2,0.0,-0.0496415,
NBr2Th2,0.0,-0.0496401,
Ca2HgBi2,0.0,-0.0496389,
Zr2TaAu,0.0,-0.0496384,
Co2Dy3Tl3,0.0,-0.049632300000000004,
CdGd2,0.0,-0.0496319,
Ge2NdPt3,0.0,-0.0496307,
Ag2Eu2Pb,0.0,-0.0496294,
MoSb2Lu6,0.0,-0.0496293,
Y2IrHg,0.0,-0.0496291,
NiSb2Np,0.0,-0.049628399999999996,
SiPrPt2,0.0,-0.0496273,
PHoHg2,0.0,-0.0496273,
Al3Ge2IrU3,0.0,-0.0496258,
In2BaAu2,0.0,-0.049624499999999995,
ZnNdAu2,0.0,-0.0496242,
LaTm3,0.0,-0.0496242,
CrSm6Bi2,0.0,-0.049622900000000005,
CdTbAu,0.0,-0.0496221,
MgHo3Os2,0.0,-0.0496184,
RbCsAu2,0.4516,-0.0496175,
YLaPb,0.0,-0.0496171,
Rb4Sn2Au7,0.0,-0.0496164,
SnHf,0.0,-0.0496155,
TcRuHf2,0.0,-0.0496152,
GaLa2Os2,0.0,-0.0496145,
InTe4HgTl2,0.0,-0.049614,
Al3Ge2OsU3,0.0,-0.0496108,
As2Np,0.0,-0.0496104,
RbSnPt2,0.0,-0.04961,
SiTbAu2,0.0,-0.049608400000000004,
Fe2TmPu,0.0,-0.0496071,
NiLa2Ir2,0.0,-0.049605800000000005,
Ni2HoIr3,0.0,-0.0496052,
Ag2GdPb,0.0,-0.0496049,
PdSb2Lu6,0.0,-0.0496045,
MgInPu,0.0,-0.049604300000000004,
AsEuTl,0.0,-0.0496034,
BPt2,0.0,-0.0496011,
LiCuAc2,0.0,-0.0496005,
Al3Si2AuPu3,0.0,-0.0495998,
CdSmTl,0.0,-0.049598300000000005,
Sr2TlBi,0.0,-0.0495979,
SiLaPt2,0.0,-0.0495967,
P2AuNp,0.0,-0.0495965,
B6CrRe13,0.0,-0.0495955,
NiPr2Pt2,0.0,-0.0495952,
AgSm2Pb,0.0,-0.0495945,
BrTePt2,0.0,-0.0495942,
InLa2Pb,0.0,-0.0495925,
ZnCe2Os2,0.0,-0.0495899,
ZnRhPa,0.0,-0.0495896,
SeBi,0.0,-0.0495886,
P2Pb3,0.0,-0.0495886,
Ba2Hg,0.0,-0.049588299999999995,
ScZrPb2,0.0,-0.0495876,
NaDyTl2,0.0,-0.0495876,
FeSm6Bi2,0.0,-0.0495873,
AgDyHg,0.0,-0.049587000000000006,
NiBaPt2,0.0,-0.0495867,
ZnTbHg2,0.0,-0.0495861,
Ge2PrPt3,0.0,-0.0495853,
CdTb2Tl,0.0,-0.049584899999999994,
ScLa2Tl2,0.0,-0.049584,
Si2InTh2,0.0,-0.0495836,
OPr4Bi2,0.0,-0.0495835,
Y2PtHg,0.0,-0.0495822,
ZnLu2Tl,0.0,-0.0495808,
SnBaPt,0.0,-0.0495801,
Mn2NdIr3,0.0,-0.04957930000000001,
BeOs2,0.0,-0.0495788,
GeLuPt,0.0,-0.0495765,
RbBaHg2,0.0,-0.0495759,
InPrAu,0.0,-0.0495747,
Ge2LaPt3,0.0,-0.049573099999999995,
CuNd2Pt2,0.0,-0.0495727,
ZrCdHg2,0.0,-0.0495701,
MnTb6Tl2,0.0,-0.049567799999999995,
AlInBi2,0.0079,-0.0495667,
AgTb2Os,0.0,-0.0495666,
BLu3Tl,0.0,-0.049566200000000005,
Sb3Hg2,0.0,-0.049566200000000005,
In3Er3Au2,0.0,-0.0495658,
ZnSm2Os2,0.0,-0.049564300000000006,
PPdU,0.0,-0.049563699999999995,
TeGd,0.0,-0.0495616,
Ni2Dy3Tl3,0.0,-0.0495609,
ScAgPb2,0.0,-0.049560299999999995,
Ru2LaTa2,0.0,-0.0495598,
Te3Ho4Bi,0.0,-0.049559,
Cd2SnPb2,0.0,-0.0495589,
RhAgCsTl2,0.0,-0.049558,
ZnTb3Au2,0.0,-0.049558,
Rh2EuPb,0.0,-0.0495552,
BNIrNp,0.0,-0.0495533,
ZnPrAu2,0.0,-0.0495518,
OLa4Bi2,0.0,-0.0495515,
Ru2Tm2Tl,0.0,-0.049550699999999996,
Te2TbTl,0.2316,-0.04955,
Ru2Tm3Hg,0.0,-0.0495494,
ZnLu2Os,0.0,-0.0495494,
RbSb2Pb2,0.0,-0.049548699999999994,
Ga2DyPt3,0.0,-0.049547100000000004,
Te2Ho6Re,0.0,-0.049546999999999994,
Ga2Au2Pb,0.0,-0.049546,
MgBaPb2,0.0,-0.0495439,
SrCd2Pt3,0.0,-0.0495439,
Sb2TmAu,0.0,-0.0495436,
Ga2TbIr3,0.0,-0.0495412,
SrIn2Bi2,0.0,-0.0495392,
KRhHg3,0.0,-0.0495389,
SrLa2Hg2,0.0,-0.0495388,
Mn2SmPt3,0.0,-0.049537,
MnGePu,0.0,-0.0495366,
AgNdTl,0.0,-0.0495364,
AlTb2Os2,0.0,-0.0495353,
N2CoU2,0.0,-0.049533299999999995,
ZnLaAu2,0.0,-0.0495323,
SiAu2,0.0,-0.0495317,
Pd2InTh,0.0,-0.0495311,
CuLu2Au,0.0,-0.0495304,
InLaAu,0.0,-0.049530000000000005,
PFeTa4,0.0,-0.0495291,
BaLa2Os,0.0,-0.0495278,
Mn2PrIr3,0.0,-0.0495274,
Rh2Tm2Tl,0.0,-0.049527299999999996,
Ga2PdHf6,0.0,-0.0495272,
SnNd2Tl,0.0,-0.0495271,
Al3Ge2PtU3,0.0,-0.0495252,
Te2Ho6Au,0.0,-0.0495237,
Ti2Ir2Au,0.0,-0.0495231,
CoBrPu,0.0,-0.0495213,
FeTb6Tl2,0.0,-0.0495209,
GeLuOs,0.0,-0.04952,
In4Pt2Au,0.0,-0.049519799999999996,
CaLaPt2,0.0,-0.0495197,
SrSbHg2,0.0,-0.049518700000000006,
CoSm6Bi2,0.0,-0.0495174,
In3Ho3Pt2,0.0,-0.0495171,
N2SePa2,0.0,-0.049515300000000005,
I2Sm2Bi,0.0,-0.0495149,
MgSnBi2,0.0635,-0.0495139,
CuSnTh,0.0,-0.0495113,
KSbPb2,0.0,-0.049511,
TeLa2Au,0.0,-0.0495094,
CoTb6Tl2,0.0,-0.049509300000000006,
Pd3Th,0.0,-0.0495067,
Mn2LaIr3,0.0,-0.0495057,
Rh2Tm3Hg,0.0,-0.0495043,
N2HfPu,0.0,-0.049503399999999996,
Fe2CeIr3,0.0,-0.0495026,
ZnInPb2,0.0,-0.04950160000000001,
LiHoTl2,0.0,-0.0495007,
MgTbTl2,0.0,-0.049500100000000005,
LiAuPb,0.0,-0.049499699999999994,
AgCdHg2,0.0,-0.0494994,
ZnITh,0.0288,-0.049498600000000004,
AlSmPt2,0.0,-0.0494965,
CdCeTl,0.0,-0.0494963,
Sb2Ho6Re,0.0,-0.0494938,
CuBaIr2,0.0,-0.0494938,
RhSmHg,0.0,-0.0494931,
Y2OsHg,0.0,-0.0494916,
Rh2LuTl,0.0,-0.049488700000000004,
AgCe2Pb,0.0,-0.049488199999999996,
Ni2BrTh2,0.0,-0.049487699999999996,
I2Ce2Bi,0.0,-0.049487,
MgDy2Ir2,0.0,-0.049484499999999994,
Al3MnSn2Pu3,0.0,-0.0494833,
NRuTa3,0.0,-0.0494813,
N2Dy7Pb3,0.0,-0.0494797,
CaPrPt2,0.0,-0.0494787,
AlDyAu2,0.0,-0.0494777,
BMg2Pt6,0.0,-0.049477,
NiAsPu,0.0,-0.0494731,
CBr2Th2,0.0,-0.0494728,
In3Ho3Ir2,0.0,-0.0494717,
CaHoHg2,0.0,-0.0494713,
Te2ErAu,0.1318,-0.049470599999999997,
ScSn2Pu,0.0,-0.0494702,
MgDyPt2,0.0,-0.049469299999999994,
TcRhHf2,0.0,-0.049469,
Co2GeTh2,0.0,-0.0494677,
GaLaHg2,0.0,-0.0494673,
PCoTa4,0.0,-0.0494668,
AgSn2Tl2,0.0,-0.0494667,
Se2Au2Hg,0.7945,-0.0494664,
MgNd2Pb2,0.0,-0.0494664,
Sn6BaIr4,0.0,-0.0494654,
SiBr2Th2,0.0,-0.0494625,
RbSbAu2,0.0,-0.049462000000000006,
PTm2Bi,0.0,-0.0494617,
In4Ir2Au,0.0,-0.0494601,
SnPm2Pt,0.0,-0.0494598,
AlCePt2,0.0,-0.049456,
GaLu2Hg,0.0,-0.0494552,
NiTb6Tl2,0.0,-0.0494508,
GeSnPt2,0.0,-0.0494497,
NiNdHg2,0.0,-0.0494492,
AgPrTl,0.0,-0.049448900000000004,
Al3CrSn2Pu3,0.0,-0.0494483,
ZrTc2Th,0.0,-0.0494471,
SrZrIr2,0.0,-0.0494458,
Pd2Ho5Bi,0.0,-0.0494454,
AgBaPb,0.0,-0.0494449,
Rh2TmPb,0.0,-0.0494449,
GaBrPu,0.0,-0.0494442,
TcHf,0.0,-0.0494442,
CdTb2Ir,0.0,-0.049444,
Rh5Pb3,0.0,-0.0494435,
MgDy2Pt2,0.0,-0.0494434,
KLaTl2,0.0,-0.049443,
SrZrPt2,0.0,-0.0494402,
RuRhHf2,0.0,-0.0494388,
SAu2,1.9055,-0.0494375,
In3Th,0.0,-0.049436799999999996,
CuPr2Pt2,0.0,-0.0494367,
Sr2SnPt3,0.0,-0.049436,
Pd2Tm3Au,0.0,-0.0494356,
Al3FeSn2Pu3,0.0,-0.0494345,
AgLaTl,0.0,-0.0494345,
GaCdPb2,0.0,-0.0494322,
NaLuHg2,0.0,-0.0494315,
CuInPa,0.0,-0.0494305,
Tc3Re2,0.0,-0.0494303,
CuTa2,0.0,-0.049428400000000004,
MnSnIr2,0.0,-0.0494266,
InTb2Hg,0.0,-0.049425699999999996,
Zn3Pt5,0.0,-0.0494249,
AlTmHg2,0.0,-0.0494244,
SrSn2Pb2,0.0,-0.0494232,
BrBi,0.3992,-0.0494198,
Zn2EuPt3,0.0,-0.0494196,
Sc2Tl3,0.0,-0.049418,
InSn2Ac,0.0,-0.0494146,
Pd2ErBi,0.0,-0.0494136,
K3Pt3Bi2,0.0,-0.0494118,
Ni2DyIr3,0.0,-0.0494115,
KPdHg3,0.0,-0.0494114,
SnBaIr,0.0,-0.049409999999999996,
Ga3Au5,0.0,-0.049407400000000004,
In2SnTl2,0.0,-0.0494043,
SnPr2Tl,0.0,-0.0494029,
Mn2NdPt3,0.0,-0.0494019,
Sc2Au2Pb,0.0,-0.0494002,
Sn2TmIr,0.0,-0.0493986,
Cd2BaTl2,0.0,-0.0493977,
Ag2LaAu2,0.0,-0.0493932,
MgErAu2,0.0,-0.049392200000000004,
AsTb2Bi,0.0,-0.049391599999999994,
Ga3Pt2U,0.0,-0.0493877,
GeEu2Hg,0.0,-0.0493868,
SnPm2Ir,0.0,-0.049385599999999995,
Ga2TbPt3,0.0,-0.049383699999999996,
CdDyHg,0.0,-0.049380600000000004,
NiPrHg2,0.0,-0.0493802,
Sn2CsHg2,0.0,-0.0493802,
Pd2Er2Pb,0.0,-0.0493792,
RbRh2Bi2,0.0,-0.0493786,
RuSn2Lu6,0.0,-0.049378500000000006,
AgPm2Pb,0.0,-0.0493774,
SeTe2Pa,0.0,-0.0493767,
CuLa2Pt2,0.0,-0.0493757,
GeSeNp,0.0,-0.0493756,
CdSmPt,0.0,-0.049375300000000004,
Cu2PbAc,0.0,-0.049374299999999996,
BeReOs,0.0,-0.049373600000000004,
In5OsNp,0.0,-0.0493731,
MgPr2Pb2,0.0,-0.049371000000000005,
SnSm2Au,0.0,-0.0493692,
SiFeTa4,0.0,-0.0493682,
MgIr2,0.0,-0.0493681,
Sn3Au2,0.0,-0.049367400000000006,
Zn2BiAc,0.0,-0.0493672,
Ru2Er3Pt,0.0,-0.0493667,
NEu3Tl,0.0,-0.0493662,
Sc2Pt2Tl,0.0,-0.049365400000000004,
Rh2HoBi,0.0,-0.049364899999999996,
CdSm2Pb,0.0,-0.0493645,
SiMnTa4,0.0,-0.049364,
YAgHg2,0.0,-0.0493637,
RuRh2Hf3,0.0,-0.049363500000000005,
Co2La3Pb3,0.0,-0.049363199999999996,
ZnNd2Ir2,0.0,-0.049361600000000005,
AsHf2,0.0,-0.049360999999999995,
Pd2EuPb,0.0,-0.049360799999999996,
CuBaPt2,0.0,-0.049360100000000004,
Ru2SbAc,0.0,-0.0493594,
Mn2PrPt3,0.0,-0.049359099999999996,
MnRh2Pu,0.0,-0.0493569,
Sr2SnIr3,0.0,-0.049355699999999995,
Ga2Hg2Bi,0.0,-0.0493525,
SeHf2,0.0,-0.0493523,
LiErPt2,0.0,-0.0493515,
FeGePu,0.0,-0.0493513,
Mn2LaPt3,0.0,-0.049351,
CdCsBi,0.0,-0.0493503,
BIrAu,0.0,-0.0493486,
NaTmAu2,0.0,-0.0493484,
SnLa2Tl,0.0,-0.0493477,
Ru2Er3Ir,0.0,-0.0493461,
KTe2Pu,0.0,-0.0493438,
ScCdPb2,0.0,-0.0493423,
Ni2HoPt3,0.0,-0.0493421,
Cu2GaPa2,0.0,-0.049340600000000005,
CuLuPb,0.0,-0.0493392,
AlAc,0.0,-0.049338099999999996,
NaTbTl2,0.0,-0.049338,
NiSrBi2,0.0,-0.0493358,
AgDy2Hg,0.0,-0.0493357,
ZnNd2Pt2,0.0,-0.049335500000000004,
MgEuHg2,0.0,-0.049332799999999996,
Rh2Er3Pt,0.0,-0.0493324,
LiEuAu2,0.0,-0.049329,
CdNdTl,0.0,-0.049328699999999996,
GaRu2Pu,0.0,-0.0493276,
InCsPb,0.0,-0.0493268,
CuSb2Np,0.0,-0.0493266,
BGa2Os2Pu,0.0,-0.049326,
BrSb2Pb2,0.0,-0.0493259,
MgLa2Pb2,0.0,-0.0493243,
Si2CeAu4,0.0,-0.049323399999999996,
PHfOs,0.0,-0.049322899999999996,
CrGePu,0.0,-0.0493226,
Mg3Pb5,0.0,-0.0493219,
Ho3Er,0.0,-0.049321199999999996,
FeInTh,0.0,-0.0493207,
InSmHg,0.0,-0.0493199,
PRuPa,0.0,-0.0493184,
NRhTa3,0.0,-0.049318,
SiCoTa4,0.0,-0.049316200000000004,
NaBaPb2,0.0,-0.049316200000000004,
NTaW,0.0,-0.0493152,
NLu2Tl,0.0,-0.0493146,
Sn2TmOs,0.0,-0.0493144,
AsEuPt,0.0,-0.049313499999999996,
Mn2ErPu,0.0,-0.0493133,
CdCePt,0.0,-0.0493114,
Sn6TbAu4,0.0,-0.0493109,
BCeIr2,0.0,-0.0493097,
Sn2Ho6Ir,0.0,-0.049308199999999996,
NbSnBi,0.0,-0.0493053,
PNiTa4,0.0,-0.049302399999999996,
SbLa2Au,0.0,-0.049302,
ScLa2Pt2,0.0,-0.0493018,
CdHg,0.0,-0.0493004,
AsEuIr,0.0,-0.0492992,
GeAgTh,0.0,-0.049299,
NITh,2.5257,-0.0492982,
MgSnNp,0.0,-0.0492971,
NTm3Pb,0.0,-0.049295200000000004,
O3Np2,0.0,-0.0492936,
PdSmHg,0.0,-0.04929,
Si2BaRe4,0.0,-0.0492887,
CdSmIr,0.0,-0.0492852,
CaHg2,0.0,-0.0492849,
RbBa2Tl2,0.0,-0.0492849,
CuTb6Tl2,0.0,-0.049283499999999994,
AlTaOs,0.0,-0.0492827,
Sn2Dy2Pb,0.0,-0.0492813,
Si2IrU,0.0,-0.049281,
SrYTl2,0.0,-0.0492803,
CdCe2Pb,0.0,-0.0492802,
RhSm2Pt,0.0,-0.0492793,
RhSm2Ir,0.0,-0.0492784,
CdCeIr,0.0,-0.049275799999999995,
InSm2Tl,0.0,-0.0492751,
GaNd2Au2,0.0,-0.0492749,
KAu2,0.0,-0.049274500000000006,
Al2Ho3Pb3,0.0,-0.049271999999999996,
SiSm2Ir2,0.0,-0.049271,
ScSnTh,0.0,-0.049270800000000003,
CuSbTl2,0.0,-0.049270600000000005,
PHfIr,0.0,-0.0492705,
Ti2Pt2Au,0.0,-0.0492695,
CdLu3,0.0,-0.0492684,
SrCeBi,0.0,-0.0492678,
PdLaAu,0.0,-0.0492674,
Te2Ho6W,0.0,-0.0492658,
Ru2PdHf3,0.0,-0.0492632,
N2Ho7Tl3,0.0,-0.049262099999999996,
OTeTh,0.0021,-0.0492616,
Sn2Ho6Pt,0.0,-0.0492596,
Cu2Dy3Tl3,0.0,-0.049258899999999994,
SbGdHo,0.0,-0.049258699999999996,
CrTcIr2,0.0,-0.0492584,
Y2LaTl2,0.0,-0.049256999999999995,
Si3AuTh2,0.0,-0.049256799999999996,
AlTaIr,0.0,-0.049255099999999996,
CdBaPb,0.0,-0.049253500000000006,
In7Ir5,0.0,-0.049253,
SiCe2Ir2,0.0,-0.049252699999999996,
CaRhPb2,0.0,-0.049250999999999996,
MgPt2,0.0,-0.049250999999999996,
RhHf,0.0,-0.0492506,
Co2Tb3Tl3,0.0,-0.0492492,
BeIr2,0.0,-0.0492477,
CdPrTl,0.0,-0.049247,
Ru5Ta4,0.0,-0.049246899999999996,
AgTbHg,0.0,-0.0492468,
AlGd2Au,0.0,-0.0492466,
Mn2Au3,0.0,-0.0492466,
AlNdPt2,0.0,-0.0492458,
RuSm2Ir,0.0,-0.0492453,
SrRh6Bi4,0.0,-0.0492433,
Ni2TbIr3,0.0,-0.0492432,
RuSm2Pt,0.0,-0.0492427,
InCeHg,0.0,-0.049241999999999994,
SbGd,0.0,-0.049241999999999994,
RuLa3Bi,0.0,-0.0492417,
As2RbPt4,0.0,-0.049240900000000004,
GaAgPa,0.0,-0.0492406,
MnTcIr2,0.0,-0.0492398,
Te3TmBi,0.8748,-0.0492387,
Te3Ta2,0.0,-0.04923640000000001,
MgHo2Au2,0.0,-0.049235799999999996,
YZrHg2,0.0,-0.0492353,
Ni2GeTh2,0.0,-0.049234900000000005,
Si2OsU,0.0,-0.0492346,
LiCsHg3,0.0,-0.0492331,
Fe2ErPu,0.0,-0.0492331,
GaPdTh,0.0,-0.049233,
MnMoIr2,0.0,-0.0492312,
TiSnIr2,0.0,-0.0492306,
Pd2Tm2Tl,0.0,-0.049229100000000005,
Sn2LuHg,0.0,-0.0492287,
PCl2Np2,0.0,-0.049227,
KGdBi,0.0,-0.049225000000000005,
Rh2SnAc,0.0,-0.0492246,
PdCeHg,0.0,-0.049221600000000004,
LiTl2,0.0,-0.0492209,
Rh2AgTh,0.0,-0.0492202,
K2PtBi2,0.0,-0.0492202,
GeZrTh,0.0,-0.0492198,
NiBrPu,0.0,-0.049219,
MoRuHf2,0.0,-0.049218200000000004,
ZnPr2Ir2,0.0,-0.0492173,
CrMoIr2,0.0,-0.049217199999999996,
AlTbAu2,0.0,-0.049214,
Sb2Ho6W,0.0,-0.0492138,
CoInTh,0.0,-0.049213099999999996,
RbIn2Bi2,0.0,-0.049213099999999996,
BSmPt2,0.0,-0.0492124,
AlHf3,0.0,-0.0492107,
LiDyTl2,0.0,-0.049209699999999995,
GePd2Pu,0.0,-0.0492083,
SiPdU,0.0,-0.049207299999999995,
I2Nd2Bi,0.0,-0.0492071,
CdLaTl,0.0,-0.049204300000000006,
In4Ba3Pt4,0.0,-0.0492005,
ZnPr2Pt2,0.0,-0.0492002,
SrInAu2,0.0,-0.0491991,
CuNdHg2,0.0,-0.0491967,
N2TaNp,0.0,-0.0491967,
BCIrNp,0.0,-0.0491944,
SnCe2Au,0.0,-0.0491939,
Si2CeW4,0.0,-0.0491934,
Y2AuHg,0.0,-0.049192799999999995,
Sb2ErAu,0.0,-0.0491911,
RhNdHg,0.0,-0.049190399999999995,
MgSrTl3,0.0,-0.049190399999999995,
Rh2LuPt,0.0,-0.04919,
Zr2TaHg,0.0,-0.0491894,
In4Ba3Ir4,0.0,-0.0491888,
MgTbPt2,0.0,-0.049188699999999995,
PRhPa,0.0,-0.049186,
NaPtTl,0.0,-0.049182699999999996,
YCdHg2,0.0,-0.049182000000000003,
Ga2CeIr3,0.0,-0.049181199999999994,
InCe2Tl,0.0,-0.0491808,
CaDyHg2,0.0,-0.049179299999999995,
MnFe2Th2,0.0,-0.0491768,
MgRhBi2,0.0,-0.0491755,
AgNd2Pb,0.0,-0.0491736,
HYPt3,0.0,-0.0491731,
AlAu2,0.0,-0.0491711,
Ni2Tb3Tl3,0.0,-0.0491707,
BeRe2,0.0,-0.0491706,
Ga2SmIr3,0.0,-0.0491703,
ZnLa2Ir2,0.0,-0.0491697,
ZnNd2Os2,0.0,-0.049165999999999994,
AlPrPt2,0.0,-0.049165799999999996,
NOTm6Pb2,0.0,-0.0491654,
NiErBi,0.1771,-0.0491648,
SiNiTa4,0.0,-0.049159100000000004,
ZnLu2Au,0.0,-0.049159,
Si2LuIr3,0.0,-0.049157,
BW2,0.0,-0.0491567,
SeCeBi,0.0,-0.0491559,
SiHfIr,0.0,-0.0491556,
GaPr2Au2,0.0,-0.0491539,
Ni2DyPt3,0.0,-0.049152799999999996,
CdPm2Pb,0.0,-0.0491521,
AlLaPt2,0.0,-0.0491509,
CdCs2Au2,0.0,-0.0491504,
K3Au3Bi2,0.6344,-0.0491501,
MgSiAc2,0.0,-0.04915,
Sr2BaBi2,0.0,-0.0491481,
SnPm2Au,0.0,-0.0491466,
Cd2LaAu2,0.0,-0.0491464,
Zr3Pb2,0.0,-0.0491462,
SrSnHg2,0.0,-0.049145299999999996,
Ru2Te2Lu7,0.0,-0.049144,
Zn2IrTh,0.0,-0.049143,
Te2HoAu,0.1323,-0.049141800000000006,
Co2TmPu,0.0,-0.0491399,
GeRu2Np,0.0,-0.0491374,
BCePt2,0.0,-0.0491374,
ZnBaIr2,0.0,-0.0491369,
Sb2Te3Bi2,0.0,-0.0491341,
MoRhHf2,0.0,-0.049134,
Te4Cs2Pt3,0.9376,-0.049133899999999994,
SbBaHg,0.0,-0.0491336,
ZnLa2Pt2,0.0,-0.049131999999999995,
CuPrHg2,0.0,-0.0491305,
SeSmBi,0.0,-0.0491297,
AlTaPt,0.5509,-0.0491289,
I2La2Bi,0.0,-0.0491284,
Pd2Tm3Hg,0.0,-0.0491283,
Rh2Te2Lu7,0.0,-0.049127899999999995,
SiHfOs,0.0,-0.0491271,
Ge2Au3,0.0,-0.0491236,
Rh2Ho2Pb,0.0,-0.0491231,
Fe2NdPt3,0.0,-0.0491221,
I2Pr2Bi,0.0,-0.049118499999999995,
FeMoIr2,0.0,-0.049118,
CaSmAu2,0.0,-0.049116999999999994,
Sn6SmAu4,0.0,-0.0491157,
AlW2,0.0,-0.049114,
ZnTb6Tl2,0.0,-0.0491139,
GaLa2Au2,0.0,-0.0491126,
MgGd2Tl,0.0,-0.049109,
Zn2TmPt3,0.0,-0.0491085,
Mo5Ta4,0.0,-0.0491066,
CaBaTl2,0.0,-0.0491061,
In5AuNp,0.0,-0.049102,
LiLuHg2,0.0,-0.0491015,
MnCo2Th2,0.0,-0.0491013,
ScLaHg2,0.0,-0.049097299999999997,
CrRuIr2,0.0,-0.049097299999999997,
TeLa2Hg,0.0,-0.0490972,
Sc2Pt3,0.0,-0.049096400000000005,
Rh2GdHg,0.0,-0.0490963,
Rh2CdTh,0.0,-0.0490961,
Cd2NdAc,0.0,-0.0490959,
MnRuIr2,0.0,-0.049094299999999994,
SrBa2Pt2,0.0,-0.0490934,
TcCe2Os,0.0,-0.0490923,
ScYPb2,0.0,-0.0490916,
Te3CsPt2,0.633,-0.0490912,
ZnPdPa,0.0,-0.0490902,
SiTaW,0.0,-0.0490899,
RhPrHg,0.0,-0.0490897,
FeTcIr2,0.0,-0.0490885,
O2SePa2,0.0,-0.0490879,
MoTcHf2,0.0,-0.0490878,
SITh,0.0,-0.0490876,