formula,bg,formation_energy,mp-id
PdBi2Th,0.0,-0.0721129,
RhPtAc2,0.0,-0.07211029999999999,
AgBi2Pa,0.0,-0.0721006,
HgTlPb,0.0,-0.0720892,
NiGa2Pa6,0.0,-0.072075,
PrPb2Ac,0.0,-0.0720719,
AlOs2U2,0.0,-0.072063,
LaPb2Ac,0.0,-0.0720551,
BOs6U2,0.0,-0.0720483,
RuPdPu2,0.0,-0.0720312,
AlIr2U2,0.0,-0.0720263,
NiPa2,0.0,-0.07202410000000001,
GdHg2Ac,0.0,-0.07201940000000001,
RhIrAc2,0.0,-0.072019,
SiPt3U2,0.0,-0.07201869999999999,
PdPbNp,0.0,-0.0720186,
Au4Pb3,0.0,-0.0720025,
GaPa2,0.0,-0.0719995,
RuPtAc2,0.0,-0.0719889,
PtTl5,0.0,-0.0719796,
LaPb7,0.0,-0.0719691,
SbPtNp,0.0,-0.0719674,
GdPb3,0.0,-0.07196720000000001,
AuTl8,0.0,-0.0719589,
SnHgAc2,0.0,-0.07195789999999999,
PdPtAc2,0.0,-0.0719505,
AgSnPu2,0.0,-0.0719494,
HgPb,0.0,-0.0719447,
TcPdPu2,0.0,-0.0719423,
BaPb8,0.0,-0.0719337,
RhPdPu2,0.0,-0.0719219,
Hg2Tl2Bi,0.0,-0.07190970000000001,
PdIrAc2,0.0,-0.0719044,
CGePu3,0.0,-0.0718943,
AuTl7,0.0,-0.0718927,
RuIrAc2,0.0,-0.0718881,
Os,0.0,-0.07187980000000001,
ErTl2Ac,0.0,-0.07186759999999999,
GdAuBi2,0.0,-0.0718666,
SiRe3U2,0.0,-0.071866,
InPu,0.0,-0.0718626,
Au3Pb2,0.0,-0.0718601,
Ga2RuTh6,0.0,-0.07185989999999999,
Pd2Tl3Th3,0.0,-0.0718443,
CuGa2Pa6,0.0,-0.07184,
InPtPu,0.0,-0.0718335,
PdBiU,0.0,-0.0718305,
AuTl5,0.0,-0.071821,
Ga2RhTh6,0.0,-0.0718168,
ReOs5,0.0,-0.0718111,
PtTl3,0.0,-0.0718081,
HgTl7,0.0,-0.07180790000000001,
Hg2TlBi,0.0,-0.0717877,
SbAu2Pu,0.0,-0.0717797,
ReOs3,0.0,-0.0717774,
Os5Ir,0.0,-0.0717606,
Au2Tl2Pb,0.0,-0.0717601,
BIr6U2,0.0,-0.0717559,
PtTl2,0.0,-0.0717458,
AuTl4,0.0,-0.0717289,
PdPu,0.0,-0.0717265,
RhAuAc2,0.0,-0.0717259,
Os3Ir,0.0,-0.0716842,
Au2TlPb,0.0,-0.07167789999999999,
GeIr3Th2,0.0,-0.0716577,
RuAuAc2,0.0,-0.0716537,
HgTl5,0.0,-0.0716535,
ZnGa2Pa6,0.0,-0.07165049999999999,
CdSnPu2,0.0,-0.0716285,
AlU2,0.0,-0.07162529999999999,
Os2Ir,0.0,-0.0716186,
AgTlAc2,0.0,-0.071618,
SmTl2Th,0.0,-0.0716141,
SnIrNp,0.0,-0.0716098,
ReOs,0.0,-0.07160280000000001,
InAuAc2,0.0,-0.07160219999999999,
HfIrBi,0.0,-0.07159439999999999,
Pt4TlPb,0.0,-0.07158339999999999,
Pt3Pb,0.0,-0.07158329999999999,
CeTl2Th,0.0,-0.0715798,
AuTl3,0.0,-0.0715796,
NGaPu3,0.0,-0.0715689,
PdAuAc2,0.0,-0.0715678,
InPt2Pu,0.0,-0.0715667,
WOs5,0.0,-0.0715524,
Re2OsIr,0.0,-0.0715424,
HoTl2Ac,0.0,-0.0715395,
TeBiTh,0.0,-0.0715343,
Pt5Bi,0.0,-0.071529,
Os5Ir3,0.0,-0.0715282,
SnPtNp,0.0,-0.0715273,
Hg5Pb4,0.0,-0.0715172,
Os5Pt,0.0,-0.0715132,
HoBi3,0.0,-0.0715111,
AlRe2U2,0.0,-0.07150709999999999,
PmTl2Th,0.0,-0.0715054,
AgBi2Th,0.0,-0.071499,
Os5Ir4,0.0,-0.0714989,
HgTl4,0.0,-0.0714947,
Pt2Tl3,0.0,-0.0714919,
PtHgPb,0.0,-0.0714879,
OsIr,0.0,-0.07148439999999999,
TePb8,0.0,-0.0714812,
GePt2Th2,0.0,-0.0714735,
ReOsIr2,0.0,-0.0714704,
GeOs3Th2,0.0,-0.071463,
ReIr,0.0,-0.0714533,
BaPb7,0.0,-0.071452,
HfPb2,0.0,-0.0714519,
SnAu2Pu,0.0,-0.0714431,
Os4Ir5,0.0,-0.0714322,
RuBiPa,0.1263,-0.07143139999999999,
SiOs3Pa2,0.0,-0.07142659999999999,
Au3Bi,0.0,-0.0714239,
PdPt2Pu,0.0,-0.0714227,
Au2Pb,0.0,-0.0714116,
CdTlAc2,0.0,-0.0714097,
SnNp,0.0,-0.0714088,
NdTl2Th,0.0,-0.0714043,
WOs3,0.0,-0.0714041,
PtTl,0.0,-0.0714037,
Os3Pt,0.0,-0.0713935,
Hg4Pb3,0.0,-0.0713849,
SbAuNp,0.0,-0.0713848,
Re3Os,0.0,-0.0713703,
ReIr2,0.0,-0.071368,
OsIr2,0.0,-0.07136450000000001,
Os3Ir5,0.0,-0.07135989999999999,
AuTl2,0.0,-0.0713537,
AgPtAc2,0.0,-0.07135290000000001,
Re2Ir,0.0,-0.07134829999999999,
Pt2AuTl4,0.0,-0.07134829999999999,
PrTl2Th,0.0,-0.0713391,
PBiTh2,0.0,-0.0713377,
Re3Ir,0.0,-0.0713104,
HgTl3,0.0,-0.07130710000000001,
WOs2Ir,0.0,-0.07130500000000001,
AgIrAc2,0.0,-0.0713047,
Hg2Tl2Pb,0.0,-0.0713043,
LaTl2Th,0.0,-0.07129970000000001,
MgOs2U2,0.0,-0.0712967,
RhBiPa,0.0,-0.0712915,
OsIr3,0.0,-0.07128570000000001,
LuBi2,0.0,-0.0712724,
IrHgTl3,0.0,-0.0712709,
CHgU2,0.0,-0.0712688,
RhAgPu2,0.0,-0.07126099999999999,
ReIr3,0.0,-0.07125530000000001,
Re5Ir,0.0,-0.0712541,
CdTl2Pu,0.0,-0.0712535,
InAuPu,0.0,-0.0712518,
DyTl2Ac,0.0,-0.0712513,
OsIr4,0.0,-0.07124599999999999,
Os2Pt,0.0,-0.07124509999999999,
BPt6U2,0.0,-0.07124079999999999,
InHgAc2,0.0,-0.0712376,
TaOs7,0.0,-0.0712341,
WOsIr2,0.0,-0.0712307,
OsIr5,0.0,-0.0712282,
ReIr5,0.0,-0.0712247,
Re2OsPt,0.0,-0.071221,
ReIr4,0.0,-0.0712188,
BIr6Pa2,0.0,-0.0712076,
CGaPu3,0.0,-0.07119719999999999,
OsIr8,0.0,-0.0711944,
Os2IrPt,0.0,-0.0711877,
OsIr7,0.0,-0.0711811,
Hg3Pb2,0.0,-0.0711687,
ReIr7,0.0,-0.0711644,
PtHgTl3,0.0,-0.0711599,
Pt5Pb,0.0,-0.0711568,
Au3Tl5,0.0,-0.0711501,
Pt7Bi,0.0,-0.0711423,
WReIr2,0.0,-0.07114029999999999,
WOs2,0.0,-0.07113760000000001,
LuHg2Ac,0.0,-0.07113209999999999,
SbIrU,0.0,-0.0711316,
WIr8,0.0,-0.0711236,
RhIr2Np,0.0,-0.071119,
WReOs2,0.0,-0.071117,
Au2Tl3,0.0,-0.07111579999999999,
Hg2TlPb,0.0,-0.071102,
SbHg2Pu,0.0,-0.0711016,
TaOs5,0.0,-0.0711005,
Ir,0.0,-0.0710982,
Re,0.0,-0.0710976,
BaPb2Ac,0.0,-0.0710958,
Re2IrPt,0.0,-0.0710946,
Re5Pt,0.0,-0.0710928,
WIr3,0.0,-0.07109069999999999,
WIr7,0.0,-0.0710903,
AuHgPb,0.0,-0.0710898,
ReOsPt,0.0,-0.0710885,
CdIr4Pu,0.0,-0.0710862,
FeSe2Th6,0.0,-0.0710804,
MnSe2Th6,0.0,-0.0710655,
GaIr2Th2,0.0,-0.0710623,
AlGa2Pa6,0.0,-0.0710552,
OsIr2Pt,0.0,-0.0710546,
Os5Pt4,0.0,-0.0710518,
WOs2Pt,0.0,-0.07104819999999999,
CoSe2Th6,0.0,-0.0710411,
WIr2,0.0,-0.0710402,
CdIrAc2,0.0,-0.07103799999999999,
WIr5,0.0,-0.0710372,
WIr4,0.0,-0.07103570000000001,
FeAs2Th6,0.0,-0.0710322,
OsIrPt,0.0,-0.0710263,
MnAs2Th6,0.0,-0.07101600000000001,
ReIr2Pt,0.0,-0.07101529999999999,
PtAuTl2,0.0,-0.0710145,
TbBi3,0.0,-0.0710127,
TbTl2Ac,0.0,-0.0710021,
Au3Tl4,0.0,-0.0710011,
AgAuAc2,0.0,-0.0710003,
OsPt,0.0,-0.07099599999999999,
CoAs2Th6,0.0,-0.070995,
SnAuNp,0.0,-0.07098779999999999,
NiBi2Pu,0.0,-0.07098520000000001,
ReIrPt,0.0,-0.0709808,
EuBi2,0.0,-0.0709799,
Hg5Pb3,0.0,-0.0709736,
CdTlPu,0.0,-0.0709707,
RuNp,0.0,-0.0709704,
Ir8Pt,0.0,-0.07096680000000001,
HgTl2,0.0,-0.0709659,
LuPb3,0.0,-0.07095860000000001,
GaPt2Th2,0.0,-0.0709449,
Pt2Tl,0.0,-0.07093949999999999,
Ir7Pt,0.0,-0.07092409999999999,
ReOsPt2,0.0,-0.07090389999999999,
ZnPa2,0.0,-0.07090170000000001,
EuPtBi2,0.0,-0.0708995,
TaOs4,0.0,-0.07089870000000001,
NiAs2Th6,0.0,-0.07089820000000001,
LuAuBi2,0.0,-0.07089749999999999,
Pt4AuPb,0.0,-0.0708969,
Si2CoPa6,0.0,-0.07089490000000001,
WRe2Ir,0.0,-0.07089440000000001,
TaIr7,0.0,-0.0708939,
SbPtU,0.0,-0.0708775,
HfBi,0.0,-0.0708738,
GaOs2Th2,0.0,-0.0708723,
WRe8,0.0,-0.0708715,
EuPt2Bi2,0.0,-0.0708659,
CdPt4Pu,0.0,-0.07085939999999999,
Ir4Pt,0.0,-0.07085609999999999,
Ag2TlPu2,0.0,-0.0708532,
TaIr5,0.0,-0.0708523,
Os4Pt5,0.0,-0.0708503,
Pt7Pb,0.0,-0.07084439999999999,
EuHg2Ac,0.0,-0.0708432,
RhAu2Pu,0.0,-0.0708357,
OsIrPt2,0.0,-0.07083339999999999,
InAu2Pu,0.0,-0.0708326,
Au3Pb,0.0,-0.07083199999999999,
RhPt2Np,0.0,-0.07083199999999999,
Ir3Pt,0.0,-0.0708255,
AlIr2Pa2,0.0,-0.0708226,
AuTl,0.0,-0.0708099,
Pt4HgPb,0.0,-0.07080929999999999,
TaOsIr2,0.0,-0.0708082,
ReIrPt2,0.0,-0.07080289999999999,
TaIr3,0.0,-0.0708022,
EuPb3,0.0,-0.0707946,
SbAu2Np,0.0,-0.07079300000000001,
AgPb8,0.0,-0.0707902,
TaOs2Ir,0.0,-0.0707885,
Au4TlPb,0.0,-0.0707873,
RuIr2U,0.0,-0.0707859,
PtHgTl2,0.0,-0.0707856,
HoHg2Th,0.0,-0.0707821,
RePt,0.0,-0.07077649999999999,
InIr2Np,0.0,-0.0707679,
WIr,0.0,-0.0707584,
TaOs3,0.0,-0.07075060000000001,
W2OsIr,0.0,-0.0707481,
RhNp,0.0,-0.0707435,
Ir2Pt,0.0,-0.07073489999999999,
CuBi2Pu,0.0,-0.0707314,
PdBiPa,0.0,-0.0707286,
InPt2Np,0.0,-0.0707175,
WOs,0.0,-0.07071720000000001,
CdPb8,0.0,-0.0707158,
EuPtPb3,0.0,-0.0707141,
Hg3Bi,0.0,-0.07071129999999999,
Pt3Tl,0.0,-0.07070900000000001,
CuAs2Th6,0.0,-0.0706988,
IU,0.0,-0.0706909,
WRe2Pt,0.0,-0.0706855,
Hg2Tl3,0.0,-0.0706722,
LaPb5,0.0,-0.0706653,
Hg2Pb,0.0,-0.0706619,
RePt2,0.0,-0.07066,
WIrPt,0.0,-0.07065869999999999,
OsPt2,0.0,-0.07065250000000001,
Au5Bi,0.0,-0.0706459,
Au7Tl6,0.0,-0.0706354,
YIr2Pu,0.0,-0.07062890000000001,
CBiTh2,0.0,-0.0706258,
TaOs2Pt,0.0,-0.0706168,
IrPt,0.0,-0.0706146,
TePbTh,0.0,-0.07060229999999999,
Ir5Pt4,0.0,-0.0705958,
N2Pu3,0.0,-0.0705916,
Au2HgPb,0.0,-0.0705881,
CeBi3,0.0,-0.0705746,
TaReIr2,0.0,-0.070572,
RePt3,0.0,-0.0705673,
W2OsPt,0.0,-0.0705649,
Hg3Tl4,0.0,-0.0705617,
WIrPt2,0.0,-0.0705561,
YPt2Pu,0.0,-0.0705556,
OsPt3,0.0,-0.0705545,
RhIr2U,0.0,-0.0705485,
AuHgTl2,0.0,-0.070544,
PdPt2Np,0.0,-0.0705426,
SnIrU,0.0,-0.0705321,
W2IrPt,0.0,-0.0705258,
MnBi2Np,0.0,-0.0705246,
SmAu2Th,0.0,-0.07051879999999999,
Hf5Pu,0.0,-0.0705175,
SbU,0.0,-0.07051139999999999,
TaIr2Pt,0.0,-0.0705061,
HfIr7,0.0,-0.0705029,
SmBi3,0.0,-0.0705029,
Pt5Tl,0.0,-0.0704947,
Ir4Pt5,0.0,-0.0704935,
Au4Pb,0.0,-0.0704841,
Au4Tl3,0.0,-0.0704838,
HfIr8,0.0,-0.0704835,
AgPu,0.0,-0.07048180000000001,
RePt4,0.0,-0.0704815,
SnAu2Np,0.0,-0.0704645,
OsPt4,0.0,-0.07046240000000001,
SnPt2U,0.0,-0.0704597,
SmTl2Ac,0.0,-0.07044979999999999,
RhBiTh,0.5722,-0.07044199999999999,
Pt2AuTl,0.0,-0.0704393,
SeBiPu,0.0,-0.07043859999999999,
CeAu2Th,0.0,-0.0704369,
AlPt2Pa2,0.0,-0.0704289,
Au3Tl2,0.0,-0.0704229,
WPt2,0.0,-0.07042019999999999,
CeTl2Ac,0.0,-0.0704149,
SnPtU,0.0,-0.0704111,
RePt5,0.0,-0.070411,
PmBi3,0.0,-0.070411,
ZnIr2Th2,0.0,-0.0704095,
IrPt2,0.0,-0.0704051,
TaIr2,0.0,-0.07039480000000001,
WPt3,0.0,-0.0703802,
WPt4,0.0,-0.0703779,
SbHfPu,0.0,-0.0703653,
NSiPu3,0.0,-0.0703561,
RuPt2U,0.0,-0.0703471,
IrPt3,0.0,-0.0703466,
LaBi3,0.0,-0.0703312,
WPt8,0.0,-0.07032970000000001,
BIr6Th2,0.0,-0.0703239,
NdBi3,0.0,-0.0703217,
RePt8,0.0,-0.0703176,
TaOsPt2,0.0,-0.0703107,
AuHg2Pb,0.0,-0.0703092,
WPt5,0.0,-0.0703088,
ZnBi2Pu,0.0,-0.0703086,
W2RePt,0.0,-0.0703082,
Al2MnPa6,0.0,-0.0703042,
W2Ir,0.0,-0.0703022,
IrPt4,0.0,-0.0702938,
Al2FePa6,0.0,-0.07029200000000001,
Hf2HgBi2,0.0,-0.0702884,
OsPt8,0.0,-0.0702836,
RuBiTh,0.0,-0.0702829,
HfIr5,0.0,-0.070282,
NdAu2Th,0.0,-0.0702811,
PrBi3,0.0,-0.0702808,
ZnPt2Th2,0.0,-0.0702784,
HgTl,0.0,-0.07027660000000001,
TaOs2,0.0,-0.0702752,
OsPt7,0.0,-0.07026869999999999,
RePt2Au,0.0,-0.070267,
TmHg2Ac,0.0,-0.0702646,
WPt,0.0,-0.07026160000000001,
Au5Pb,0.0,-0.0702532,
NdTl2Ac,0.0,-0.0702509,
GdPtBi,0.0,-0.0702435,
CaAc3,0.0,-0.0702396,
SiIr3Th2,0.0,-0.07023839999999999,
TbHg2Th,0.0,-0.0702321,
TaPt8,0.0,-0.0702298,
GdIrBi,0.0,-0.07022880000000001,
SbAuU,0.0,-0.0702276,
IrPt7,0.0,-0.0702247,
TaIrPt2,0.0,-0.0702244,
Au7Bi,0.0,-0.0702222,
Ta3Os5,0.0,-0.07021859999999999,
Al2CoPa6,0.0,-0.0702175,
IrPt8,0.0,-0.07021590000000001,
Au2Tl,0.0,-0.0702149,
W3Os,0.0,-0.07020749999999999,
ZnOs2Th2,0.0,-0.0702031,
PrTl2Ac,0.0,-0.0701931,
Pt,0.0,-0.0701928,
CdPu,0.0,-0.07018940000000001,
AgAu2Pu,0.0,-0.0701874,
SbIrPa,0.0,-0.0701862,
CuIrTh2,0.0,-0.07017749999999999,
TaWIr2,0.0,-0.07017709999999999,
NPbTh2,0.0,-0.0701763,
LaTl2Ac,0.0,-0.0701677,
TaPt5,0.0,-0.0701677,
TmBi2,0.0,-0.0701648,
AgPb7,0.0,-0.0701566,
RhPt2U,0.0,-0.0701558,
LaAu2Th,0.0,-0.07015009999999999,
Ta3Ir5,0.0,-0.0701396,
W2Re,0.0,-0.0701373,
TmPb3,0.0,-0.0701301,
BaPb2Bi2,0.1929,-0.070112,
TaPt3,0.0,-0.0700959,
W5Pt4,0.0,-0.0700898,
SbOsPa,0.0,-0.0700882,
TaPt4,0.0,-0.07008450000000001,
InAuNp,0.0,-0.07008249999999999,
CdPb7,0.0,-0.07008249999999999,
InHg2Pu,0.0,-0.0700805,
Hg4TlPb,0.0,-0.0700696,
GaAu2Th2,0.0,-0.0700607,
TmAuBi2,0.0,-0.0700605,
Au2Hg2Pb,0.0,-0.07006019999999999,
Au4HgPb,0.0,-0.0700577,
SiPa2,0.0,-0.0700572,
MgPb2Th2,0.0,-0.0700514,
WPt2Au,0.0,-0.0700514,
CdAu2Pu,0.0,-0.0700513,
IrPt2Au,0.0,-0.0700511,
CuPtTh2,0.0,-0.0700511,
W5Pt3,0.0,-0.0700451,
BaPb5,0.0,-0.07004099999999999,
SiOs3Th2,0.0,-0.0700367,
Hg3Pb,0.0,-0.0700346,
W3Re,0.0,-0.0700318,
AsSbPu2,0.0,-0.0700167,
Pt8Au,0.0,-0.06999949999999999,
SrPb8,0.0,-0.069994,
Pt7Au,0.0,-0.06999169999999999,
Ta2Os3,0.0,-0.0699912,
CSiPu3,0.0,-0.06998480000000001,
FeTh2,0.0,-0.0699803,
BPt6Th2,0.0,-0.0699671,
HfIr3,0.0,-0.06996519999999999,
W4Re,0.0,-0.06995860000000001,
Ta2Ir3,0.0,-0.06995080000000001,
SbAu2U,0.0,-0.0699426,
HfPt8,0.0,-0.06993170000000001,
AuHgTl,0.0,-0.0699256,
CuOsTh2,0.0,-0.06992359999999999,
SbPtPa,0.0,-0.069915,
W5Re,0.0,-0.069914,
Ru2TlU2,0.0,-0.0699071,
Au7Pb,0.0,-0.06990389999999999,
Au3Tl,0.0,-0.06990099999999999,
Hg4Tl3,0.0,-0.0699004,
ErHg2Ac,0.0,-0.0698956,
SnPt2Pa,0.0,-0.069895,
Pt4Au,0.0,-0.06989440000000001,
PdBiTh,0.0,-0.06988670000000001,
Pt5Au,0.0,-0.0698865,
InPt2U,0.0,-0.0698853,
CPbTh2,0.0,-0.0698814,
RhAu2Np,0.0,-0.06987900000000001,
TaPt2,0.0,-0.06987829999999999,
TaWRe2,0.0,-0.069873,
Pt7Hg,0.0,-0.0698688,
CoTh2,0.0,-0.06986490000000001,
Pt3Au,0.0,-0.0698641,
FeGa2Th6,0.0,-0.0698574,
HfIr2Pt,0.0,-0.0698415,
MnGa2Th6,0.0,-0.0698344,
Au8Pb,0.0,-0.06983110000000001,
CoGa2Th6,0.0,-0.06982559999999999,
Ta4Os5,0.0,-0.0698203,
PdPt2U,0.0,-0.06981430000000001,
HfPt7,0.0,-0.0698022,
Ta4Ir5,0.0,-0.06980070000000001,
Hg5Bi,0.0,-0.0697981,
GaTh2,0.0,-0.06979489999999999,
Al2RhTh6,0.0,-0.0697942,
Au4Tl,0.0,-0.0697841,
ErPb3,0.0,-0.06978019999999999,
Pt2Au,0.0,-0.0697705,
Pt5Hg,0.0,-0.0697672,
HfPt5,0.0,-0.0697625,
SnAuU,0.0,-0.0697612,
CdPt4U,0.0,-0.0697518,
WPt2Hg,0.0,-0.0697409,
NiGa2Th6,0.0,-0.0697308,
SnU,0.0,-0.0697248,
CuBi2Np,0.0,-0.0697215,
Pt3Au2,0.0,-0.0697066,
ErAuBi2,0.0,-0.0697066,
ErBi2,0.0,-0.0696976,
Au2HgTl,0.0,-0.0696939,
SnAu2U,0.0,-0.0696939,
W,0.0,-0.0696878,
PdPbPa,0.0,-0.06967870000000001,
Pt4Hg,0.0,-0.0696735,
HfIrPt2,0.0,-0.0696711,
GdBi,0.0,-0.06966639999999999,
NiTl5Pu,0.0,-0.06966259999999999,
SnIrPa,0.0,-0.0696536,
Hg4Pb,0.0,-0.0696468,
Pt5Au4,0.0,-0.0696387,
GdAuBi,0.0,-0.0696382,
Au5Tl,0.0,-0.069633,
TaOs,0.0,-0.0696325,
SnOsPa,0.0,-0.0696262,
PtAu,0.0,-0.06961750000000001,
I2BiTh2,0.0,-0.0695965,
Pt3Hg,0.0,-0.069596,
TaPt2Au,0.0,-0.0695955,
TaIr,0.0,-0.0695896,
CsPb2Bi2,0.0,-0.0695891,
Hg2Tl,0.0,-0.0695854,
NiTh2,0.0,-0.0695773,
HoHg2Ac,0.0,-0.0695622,
Ta2OsIr,0.0,-0.0695557,
RhPt2Pa,0.0,-0.0695545,
GePbAc2,0.0,-0.06955320000000001,
HfPt3,0.0,-0.0695379,
Pt4Au5,0.0,-0.0695373,
InPtU,0.0,-0.06952509999999999,
Pt2Au3,0.0,-0.0695238,
AsPb8,0.0,-0.0695192,
Ta2ReOs,0.0,-0.0695179,
Au4HgTl,0.0,-0.0695032,
BaTlPb4,0.0,-0.0695011,
Pt3Au4,0.0,-0.0694946,
Au7Tl,0.0,-0.0694939,
LuIr7,0.0,-0.0694888,
TaW2Re,0.0,-0.0694669,
HoPb3,0.0,-0.06946559999999999,
AgHg2Pu,0.0,-0.0694528,
Au8Tl,0.0,-0.0694528,
AuHg2Tl,0.0,-0.0694501,
Ta2Ir2Au,0.0,-0.0694495,
Ta3Pt4,0.0,-0.0694489,
PtAu2,0.0,-0.0694411,
CAlPu3,0.0,-0.0694369,
RuU,0.0,-0.0694338,
SrTl2Pu,0.0,-0.0694311,
Ta2IrPt,0.0,-0.06942019999999999,
Pt2Hg,0.0,-0.0694106,
ZnAu2Th2,0.0,-0.0694058,
Ta2OsPt,0.0,-0.0694043,
AlIr2Th2,0.0,-0.06940210000000001,
Hg5Pb,0.0,-0.0694014,
TaRe,0.0,-0.06939060000000001,
TaIrAu,0.0,-0.06938979999999999,
HoAuBi2,0.0,-0.06938760000000001,
PtAu3,0.0,-0.06938620000000001,
Au2Hg2Tl,0.0,-0.06938330000000001,
CuAuTh2,0.0,-0.0693705,
SnPtPa,0.0,-0.069363,
BaBi3,0.0,-0.069341,
Pt2AuHg,0.0,-0.069334,
In3Ir2U3,0.0,-0.0693321,
CdPt4Pa,0.0,-0.0693197,
PtAu4,0.0,-0.0693183,
LaHg2Th,0.0,-0.0693147,
CdHg2Pu,0.0,-0.0693134,
SbPb5,0.0,-0.0693095,
RuPbTh,0.0,-0.0693009,
RhPbTh,0.0,-0.06929210000000001,
LuPtBi,0.0,-0.0692872,
PtAu5,0.0,-0.0692852,
SbPt2Bi3,0.0,-0.0692841,
InPt2Pa,0.0,-0.06928379999999999,
HoBi2,0.0,-0.0692762,
RhU,0.0,-0.0692753,
PtAu7,0.0,-0.0692691,
DyHg2Ac,0.0,-0.0692688,
GdPtPb,0.0,-0.06926399999999999,
Rh2PbPa2,0.0,-0.0692618,
LaTl8,0.0,-0.06926049999999999,
NTlTh2,0.0,-0.06925400000000001,
Hg3Tl,0.0,-0.0692436,
TaW5,0.0,-0.06924250000000001,
BaTl2Ac,0.0,-0.0692371,
AlPt2Th2,0.0,-0.0692298,
SnIr2Th,0.0,-0.06922320000000001,
IPb2Bi2,0.0,-0.069218,
SbIrTh,0.3872,-0.0692127,
Ru2ThPu,0.0,-0.0692106,
AlOs2Th2,0.0,-0.0692093,
TaPt,0.0,-0.0692069,
TaPtAu,0.0,-0.0691986,
DyPb3,0.0,-0.0691912,
NiBi2U,0.0,-0.0691769,
LuIrBi,0.0,-0.0691597,
Au,0.0,-0.0691568,
SnPt2Th,0.0,-0.06915130000000001,
TaW4,0.0,-0.0691484,
TcU,0.0,-0.0691365,
Ta4Ir3,0.0,-0.06913290000000001,
PtAu2Hg,0.0,-0.06913209999999999,
InHg2Np,0.0,-0.0691208,
SeBiNp,0.0,-0.0691181,
TaPtAu2,0.0,-0.0691148,
DyAuBi2,0.0,-0.0691079,
AlPa2,0.0,-0.0690998,
Ta2Pt2Au,0.0,-0.069093,
CdPt2U,0.0,-0.0690916,
Ta2WOs,0.0,-0.0690817,
CdAu2Np,0.0,-0.0690697,
LuPt8,0.0,-0.06906359999999999,
GdPt5,0.0,-0.0690592,
SnRePa,0.0,-0.06904640000000001,
YOs2U,0.0,-0.0690397,
PdPbTh,0.2667,-0.0690385,
ScPb8,0.0,-0.0690169,
TbHg2Ac,0.0,-0.06901439999999999,
TmIr7,0.0,-0.0690143,
CuTh2,0.0,-0.0690094,
TaW3,0.0,-0.0690082,
Au7Hg,0.0,-0.0690021,
SbPtTh,0.0,-0.0690011,
ZnAuTh2,0.0,-0.0689998,
Ta5Os3,0.0,-0.0689982,
HfWRe2,0.0,-0.06898850000000001,
Co2Pb3Th3,0.0,-0.068986,
TbPb3,0.0,-0.0689542,
CdIr4Th,0.0,-0.0689519,
Au5Hg,0.0,-0.0689439,
SbI3Pu3,0.0,-0.0689353,
CTlTh2,0.0,-0.0689292,
InAuU,0.0,-0.0689285,
SnAu2Pa,0.0,-0.06892780000000001,
EuTl2Pb,0.0,-0.06892749999999999,
GeSnPu2,0.0,-0.0689217,
Ta2WIr,0.0,-0.0689158,
LaTl7,0.0,-0.068915,
Au4Hg,0.0,-0.068908,
GdAu2Pb,0.0,-0.0689077,
DyBi2,0.0,-0.0689075,
LuIr5,0.0,-0.0689053,
LuPt7,0.0,-0.06890439999999999,
ErTlPb2,0.0,-0.06889830000000001,
PtHg2,0.0,-0.06888899999999999,
HfPt2,0.0,-0.0688877,
ZrBiTh,0.0,-0.0688845,
Hg5Tl,0.0,-0.0688842,
TbAuBi2,0.0,-0.0688672,
HfTaOs2,0.0,-0.0688653,
GaPbAc2,0.0,-0.0688643,
TaAu8,0.0,-0.0688622,
Au3Hg,0.0,-0.0688554,
Ta2IrAu,0.0,-0.0688347,
Ta2WRe,0.0,-0.0688323,
CdPt4Th,0.0,-0.0688283,
TaAu5,0.0,-0.0688245,
GdAuPb,0.0,-0.0688227,
ErIr7,0.0,-0.0688101,
Au2Hg,0.0,-0.0688058,
BaHgPb4,0.0,-0.0687817,
HfRe2,0.0,-0.06878000000000001,
TaW2,0.0,-0.0687758,
InIrPa,0.0,-0.0687696,
HfAu9,0.0,-0.0687575,
NAuTh2,0.0,-0.0687518,
AsPb7,0.0,-0.0687431,
Ta2Os,0.0,-0.0687307,
BaTl2Bi2,0.0,-0.0687287,
PtHg4,0.0,-0.06871139999999999,
Ta5Re3,0.0,-0.0687076,
MgIr2Th2,0.0,-0.0686995,
IrHg4,0.0,-0.0686992,
GeRuPu2,0.0,-0.068696,
InPb5,0.0,-0.0686954,
TaAu4,0.0,-0.0686922,
CoBi2Pa,0.0,-0.0686875,
CeIrBi2,0.0,-0.06868479999999999,
Ru2TlPa2,0.0,-0.06868300000000001,
AuHg,0.0,-0.06868170000000001,
CePtBi2,0.0,-0.0686779,
HfAu8,0.0,-0.0686693,
PtHg3,0.0,-0.068669,
Hf3Pt5,0.0,-0.0686664,
SnIrTh,0.0,-0.06866320000000001,
TaAu3,0.0,-0.068663,
TmPt8,0.0,-0.0686518,
RhIr2Th,0.0,-0.06864579999999999,
GeTlAc2,0.0,-0.0686368,
Ta3W5,0.0,-0.0686334,
MgPt2Th2,0.0,-0.0686315,
SnPtTh,0.6992,-0.0686287,
Ta2WPt,0.0,-0.068627,
ZnTh2,0.0,-0.06862120000000001,
Au4Hg3,0.0,-0.0686205,
HoIr7,0.0,-0.0686177,
Ta2PtAu,0.0,-0.0686077,
SnAuPa,0.0,-0.06860129999999999,
GeRhPu2,0.0,-0.0685993,
RhPt2Th,0.0,-0.0685935,
TbBi2,0.0,-0.0685906,
HoTlPb2,0.0,-0.0685817,
PdU,0.0,-0.0685758,
SbAu2Th,0.0,-0.0685659,
InPtPa,0.0,-0.0685582,
Ta5Pt3,0.0,-0.06853440000000001,
InPt2Th,0.0,-0.0685324,
CsPt4Tl6,0.0,-0.06853100000000001,
RbAu4Pb6,0.0,-0.0685261,
Ta2Re,0.0,-0.0685153,
InIr2Th,0.0,-0.0685149,
Rh2TlPa2,0.0,-0.06851349999999999,
LuPt5,0.0,-0.0685123,
Sn2AcPu,0.0,-0.0685087,
Hf2Pt3,0.0,-0.0685038,
CePb3,0.0,-0.0684983,
TaAu2,0.0,-0.0684816,
AuHg2,0.0,-0.06847539999999999,
SnOsTh,0.0,-0.0684742,
ErPt8,0.0,-0.0684739,
NiBi2Pa,0.0,-0.06846859999999999,
NdIrBi2,0.0,-0.0684639,
GePtAc2,0.0331,-0.06846250000000001,
NiBiPu,0.0,-0.0684561,
Au3Hg5,0.0,-0.0684549,
SmHg2Ac,0.0,-0.0684488,
TmPt7,0.0,-0.06844589999999999,
DyIr7,0.0,-0.068444,
Br2BiPu2,0.0,-0.0684411,
SmPb3,0.0,-0.06843980000000001,
HfAu5,0.0,-0.06842480000000001,
CdPt2Pa,0.0,-0.0684235,
Ru2ThNp,0.0,-0.06841209999999999,
CeHg2Ac,0.0,-0.0684097,
Sb2PtTh2,0.0,-0.06840260000000001,
GePdPu2,0.0,-0.06839740000000001,
PrIrBi2,0.0,-0.06839709999999999,
EuPtBi,0.0,-0.068397,
LaPtBi2,0.0,-0.0683957,
LaIrBi2,0.0,-0.0683923,
Ta4W5,0.0,-0.0683919,
HfAu4,0.0,-0.0683857,
Ta2Pt,0.0,-0.0683852,
HfTaRe2,0.0,-0.0683843,
MgOs2Th2,0.0,-0.06837739999999999,
PdPt2Th,0.0,-0.0683767,
CeAuBi2,0.0,-0.06837069999999999,
SbAuTh,0.1893,-0.0683665,
AlAu2Th2,0.0,-0.0683612,
CuPbAc2,0.0,-0.0683611,
MgPbTh2,0.0,-0.068361,
ClPb8,0.0,-0.0683579,
AuHg3,0.0,-0.0683571,
RhPt2Pb4,0.0,-0.0683488,
TaAu2Hg,0.0,-0.0683434,
InAu2Pa,0.0,-0.06834029999999999,
AgPb5,0.0,-0.068339,
Ta3Ir,0.0,-0.0683377,
SmAuBi2,0.0,-0.0683369,
LuTl3,0.0,-0.0683322,
Ta3Os,0.0,-0.0683296,
SnAu2Th,0.0,-0.06832869999999999,
AuHg4,0.0,-0.0683218,
InPb2Bi2,0.0,-0.0683156,
HoPt8,0.0,-0.0683087,
DyTlPb2,0.0,-0.0683047,
GeIrAc2,0.0,-0.0683042,
PmPb3,0.0,-0.0683015,
TbIr7,0.0,-0.0682868,
TmPb2,0.0,-0.0682868,
Hf2Ir2Au,0.0,-0.0682709,
PdPt2Pb4,0.0,-0.0682703,
NdPb3,0.0,-0.068263,
AuHg5,0.0,-0.06825830000000001,
GdTl2,0.0,-0.0682526,
TaW,0.0,-0.0682512,
ErPt7,0.0,-0.0682485,
NdHg2Ac,0.0,-0.0682432,
SbBi3,0.0,-0.0682411,
CdAu2U,0.0,-0.068238,
LaPb3,0.0,-0.0682284,
CsTl2Bi2,0.0,-0.068217,
Ta3Au4,0.0,-0.0682157,