formula,bg,formation_energy,mp-id
PrAu2Hg,0.0,-0.0631625,
CdPtPb2,0.0,-0.0631592,
LaTl2,0.0,-0.0631581,
SiAu2U,0.0,-0.06315570000000001,
TbTmPb2,0.0,-0.0631528,
Tb3Pt2Tl3,0.0,-0.0631525,
LaLuPb2,0.0,-0.0631515,
BHf2Ir6,0.0,-0.0631502,
LaAu2Hg,0.0,-0.06315,
ClAsPu2,0.0,-0.0631405,
FeIr2Ac,0.0,-0.0631368,
Er3Pt4,0.0,-0.0631364,
CeOsIr,0.0,-0.0631333,
PdSnAc2,0.0,-0.0631329,
RhCeTl5,0.0,-0.0631321,
SiPt5Bi,0.0,-0.0631301,
SmIr2,0.0,-0.0631261,
InHf6Bi2,0.0,-0.06312129999999999,
Pd2PbPu,0.0,-0.0631212,
RhTa8,0.0,-0.0631192,
GaHf2Bi3,0.0,-0.0631149,
RhSmTl5,0.0,-0.0631144,
RuPt4,0.0,-0.0631089,
BaAu2Tl,0.0,-0.0631073,
DyAu2,0.0,-0.0631044,
FePt2Ac,0.0,-0.0631033,
GdDyIr2,0.0,-0.0631009,
Dy3Au2Tl3,0.0,-0.0630998,
Te2TlU,0.0025,-0.0630981,
Rh2Pt3Th,0.0,-0.0630952,
LaPtHg2,0.0,-0.0630926,
Tb3Ir2Tl3,0.0,-0.0630911,
HoPb,0.0,-0.0630886,
CeOs2,0.0,-0.0630877,
CGaTh3,0.0,-0.06308760000000001,
NiPu,0.0,-0.0630846,
Er2Pt2Hg,0.0,-0.0630825,
Ho2Pt3,0.0,-0.063079,
GeIrTh,0.0,-0.0630787,
RbHg2Bi2,0.0,-0.0630777,
DyPtHg,0.0,-0.06307209999999999,
ErLuTl2,0.0,-0.06306819999999999,
LaHgPb,0.0,-0.0630651,
SrPtBi2,0.0,-0.06306490000000001,
GeAuPa,0.0,-0.0630646,
DyErPb2,0.0,-0.0630631,
GaPtPa,0.0,-0.06306110000000001,
MgHg2Pu,0.0,-0.0630527,
SmAuHg2,0.0,-0.0630511,
EuPt,0.0,-0.06304509999999999,
InPt4,0.0,-0.0630443,
ZnAu8,0.0,-0.0630429,
BePt8,0.0,-0.0630416,
NbHf6Bi2,0.0,-0.0630404,
Lu6IrBi2,0.0,-0.06304030000000001,
InAu4Hg,0.0,-0.0630313,
AgAuPb2,0.0,-0.0630263,
PmEuPb2,0.0,-0.0630204,
SmOs2,0.0,-0.0630149,
MgIr7,0.0,-0.0630148,
Tb2Ir2Pb,0.0,-0.0630146,
RhNdTl5,0.0,-0.063012,
SiPtNp,0.0,-0.0630103,
GePtTh,0.0,-0.06300889999999999,
NdPtTl,0.0,-0.063007,
Tm2Au2Hg,0.0,-0.0630011,
Lu6OsBi2,0.0,-0.062998,
Te2AuNp,0.0,-0.0629974,
SbBaPu,0.0,-0.0629943,
CeIrPt,0.0,-0.0629941,
InHg4Tl,0.0,-0.062994,
Fe2PtU2,0.0,-0.0629933,
Pd2Ir3Th,0.0,-0.0629913,
SrHg2Ac,0.0,-0.0629873,
TeHg5,0.0,-0.0629858,
CrOs5,0.0,-0.0629852,
RhPrTl5,0.0,-0.0629831,
SbHg5,0.0,-0.062983,
Lu6PtBi2,0.0,-0.0629825,
RhLaTl5,0.0,-0.0629813,
Gd2Au,0.0,-0.0629763,
ZrBi2,0.0,-0.062975,
MnOs5,0.0,-0.0629688,
In2BiNp,0.0,-0.0629622,
InBaPb4,0.0,-0.062958,
Tm2AuPb,0.0,-0.062949,
AsAu7,0.0,-0.0629478,
SbAu2Pb,0.0,-0.0629474,
Dy2Au2Pb,0.0,-0.06294530000000001,
HoAuHg,0.0,-0.0629422,
TeAu2Pb,0.0,-0.0629411,
CaPt7,0.0,-0.0629401,
SrAu2Pb2,0.0,-0.0629398,
GaPt2Ac,0.0,-0.062939,
AlPt5Bi,0.0,-0.0629359,
CoPtPa,0.0,-0.0629359,
CoIr2Ac,0.0,-0.0629345,
Pd2BiNp,0.0,-0.0629301,
GeOsTh,0.0,-0.062926,
CaTl2Th,0.0,-0.0629238,
CBrPu2,0.0,-0.0629221,
BaHg4,0.0,-0.0629171,
MnAu7,0.0,-0.0629166,
Lu2AuHg,0.0,-0.0629158,
BaPt2Au,0.0,-0.0629156,
Pd2PtPb4,0.0,-0.06291479999999999,
GdErAu2,0.0,-0.062912,
SrPb3,0.0,-0.0629102,
SrAu4Pb,0.0,-0.0629101,
EuIr,0.0,-0.0629093,
SbAuTl2,0.0,-0.06290899999999999,
PrPtTl,0.0,-0.06290899999999999,
NiBi3,0.0,-0.0629073,
NdIrTl,0.0,-0.0629041,
RhPt4,0.0,-0.0629014,
SbPb2,0.0,-0.0629012,
AgAu5,0.0,-0.0629002,
Rh2AuPb4,0.0,-0.0628998,
AgTl2Pb,0.0,-0.0628939,
AsAu2Ac,0.0,-0.0628932,
LaPtTl,0.0,-0.0628894,
AsPt5Hg,0.0,-0.0628857,
SmPt2,0.0,-0.0628854,
CsPtHg3,0.0,-0.062885,
LiIrPb4,0.0,-0.0628844,
AlAuPu,0.0,-0.0628829,
PdLaTl5,0.0,-0.06287910000000001,
Sb2AuNp,0.0,-0.0628778,
NdAuHg2,0.0,-0.0628724,
TbHgTl,0.0,-0.0628702,
PrEuPb2,0.0,-0.0628679,
CrAu7,0.0,-0.0628673,
LiPt8,0.0,-0.0628667,
PdGdBi2,0.0,-0.0628635,
GaIr2Ac,0.0,-0.0628548,
Dy2Pt2Tl,0.0,-0.062854,
LiPtPb4,0.0,-0.0628537,
GdHoBi,0.0,-0.0628499,
CePt2,0.0,-0.0628481,
BeIr7,0.0,-0.0628445,
CdAuPb2,0.0,-0.0628423,
YAu5,0.0,-0.0628269,
GdTbPt2,0.0,-0.0628269,
InPt2Pb,0.0,-0.0628264,
AsHfPt5,0.0,-0.0628257,
SrPt5,0.0,-0.0628251,
FeOs5,0.0,-0.0628238,
RuHf6Pb2,0.0,-0.0628227,
GdTbIr2,0.0,-0.0628212,
InHg2Tl2,0.0,-0.06281640000000001,
PrAuHg2,0.0,-0.0628136,
LaAuHg2,0.0,-0.0628135,
CdAu5,0.0,-0.06281199999999999,
Eu3Ac,0.0,-0.0628103,
Dy2Ir2Tl,0.0,-0.06280619999999999,
BrHg8,0.0,-0.06280530000000001,
PrIrTl,0.0,-0.0628007,
CuHf2Bi3,0.0,-0.0627978,
ErHg2,0.0,-0.0627967,
SiPt2Th,0.0,-0.0627943,
TbErPb2,0.0,-0.06279359999999999,
SiPt5Pb,0.0,-0.0627929,
ScTl2Ac,0.0,-0.0627894,
LaIrTl,0.0,-0.0627865,
RhPbBi,0.0,-0.062783,
NdIr2,0.0,-0.0627802,
SmAuTl,0.0,-0.06277920000000001,
RbPt2Pb2,0.0,-0.0627752,
Ru2SnU2,0.0,-0.062774,
RhHf6Pb2,0.0,-0.0627737,
AlAu2U,0.0,-0.0627711,
La2TlPb2,0.0,-0.0627664,
SmHg3,0.0,-0.0627641,
TcOs3,0.0,-0.0627633,
AlPt7,0.0,-0.0627588,
ScTl5,0.0,-0.0627545,
LaCeOs4,0.0,-0.0627489,
ZrHgPb2,0.0,-0.0627479,
TbAu2,0.0,-0.06274779999999999,
TcW4,0.0,-0.06274450000000001,
TeHgTl2,0.0,-0.0627436,
NaHg2Pu,0.0,-0.0627403,
HoLuTl2,0.0,-0.06273870000000001,
DyHoPb2,0.0,-0.0627357,
Lu6AuBi2,0.0,-0.0627312,
MoW4,0.0,-0.0627305,
CdHf6Bi2,0.0,-0.0627301,
EuErTl2,0.0,-0.06272950000000001,
NiPtPa,0.0,-0.06272509999999999,
CeHg3,0.0,-0.0627249,
TbPtHg,0.0,-0.0627248,
CdAu2Tl2,0.0,-0.0627243,
Er2TlPb,0.0,-0.0627222,
ZrTaW4,0.0,-0.0627182,
Tb3Au2Tl3,0.0,-0.06271600000000001,
CeAuTl,0.0,-0.06271209999999999,
AgHgPb2,0.0,-0.0627084,
SbAu4,0.0,-0.0627071,
CsAu2Hg2,0.0,-0.0627027,
InAu2Bi,0.0,-0.062699,
CoOs5,0.0,-0.0626989,
SrAuBi2,0.0,-0.06269720000000001,
Eu2PtAu,0.0,-0.06269279999999999,
RhTl3,0.0,-0.0626925,
RhAc,0.0,-0.0626916,
CdTl2Pb,0.0,-0.0626888,
Ho2Au2Tl,0.0,-0.06268610000000001,
EuTmPt2,0.0,-0.06268610000000001,
MoOs3,0.0,-0.0626804,
MoTa7,0.0,-0.0626749,
Hf,0.0,-0.06267260000000001,
MnNp,0.0,-0.06267110000000001,
AgAu4Hg,0.0,-0.06266870000000001,
Rh2PbNp,0.0,-0.0626662,
PPt5Pb,0.0,-0.0626642,
PmHg3,0.0,-0.0626623,
NaPb2Bi2,0.0,-0.0626582,
SrHg7,0.0,-0.0626558,
PrIr2,0.0,-0.062651,
BaPtPb,0.0,-0.06264600000000001,
GaRePa,0.0,-0.0626454,
Eu2HgTl,0.0,-0.0626452,
NdOs2,0.0,-0.0626379,
TeIrBi,0.4996,-0.06263389999999999,
RuOs3,0.0,-0.0626319,
Sn2Ir2Th,0.0,-0.06263,
NiIr2Ac,0.0,-0.0626293,
SrTl4,0.0,-0.0626248,
BaPt2Hg,0.0,-0.0626233,
BaPtAu2,0.0,-0.0626222,
SmTmPb2,0.0,-0.0626213,
ZnAu2Th,0.0,-0.0626203,
ZnGaPu2,0.0,-0.0626172,
YAu4Hg,0.0,-0.0626167,
CuPbTh,0.0,-0.0626158,
LaIr2,0.0,-0.062614,
LiIr7,0.0,-0.0626095,
Ba2Pb2Bi,0.0,-0.0626072,
SmBi,0.0,-0.0626021,
SnHg2Bi,0.0,-0.0626016,
AgSnAc2,0.0,-0.0626011,
TcReOs2,0.0,-0.0626009,
CeTmPb2,0.0,-0.0625979,
ZnAu5Bi,0.0,-0.0625971,
Dy2Pt3,0.0,-0.0625931,
InTl3,0.0,-0.0625917,
PdHf6Pb2,0.0,-0.0625913,
TmIr,0.0,-0.0625901,
Gd3Tl,0.0,-0.0625882,
RuRhAc2,0.0,-0.0625867,
MoOs2Ir,0.0,-0.06258659999999999,
TmTl,0.0,-0.062584,
GeAu2Ac,0.0,-0.0625834,
CdAu4Hg,0.0,-0.062581,
SnPt2Tl,0.0,-0.06258,
CsAuHg3,0.0,-0.0625763,
CdGdPt4,0.0,-0.062576,
GdHoAu2,0.0,-0.06257009999999999,
NdHg3,0.0,-0.0625665,
NdPt2,0.0,-0.0625651,
Tm3Ir2Pt,0.0,-0.0625637,
TmPt,0.0,-0.06256300000000001,
RhPdAc2,0.0,-0.0625621,
CeBi,0.0,-0.0625598,
BaHg2Tl,0.0,-0.0625581,
DyAuHg,0.0,-0.0625512,
Sn2Pt2Th,0.0,-0.0625458,
CrIr5,0.0,-0.062544,
AsSeU2,0.0,-0.0625439,
MgTlPu,0.0,-0.0625406,
Ho3Pt4,0.0,-0.0625404,
Tm2IrPt,0.0,-0.062539,
POsU,0.0,-0.06253790000000001,
MoOsIr2,0.0,-0.0625363,
SbHgTl2,0.0,-0.06253600000000001,
Ho2Pt2Hg,0.0,-0.0625333,
Tb2Au2Pb,0.0,-0.06253220000000001,
FeNp,0.0,-0.0625315,
PIrU,0.0,-0.0625313,
AlIrNp,0.0,-0.0625285,
NiOs5,0.0,-0.0625228,
Tm2HgPb,0.0,-0.0625188,
DyPb,0.0,-0.062517,
PmTmPb2,0.0,-0.062515,
TmLuAu2,0.0,-0.062515,
SrPt4Au,0.0,-0.0625137,
TmLuBi,0.0,-0.0625106,
MnIr5,0.0,-0.0625105,
RhPt2Pb,0.0,-0.0625101,
InAc,0.0,-0.0625081,
RuReOs2,0.0,-0.0625081,
PrHg3,0.0,-0.0625078,
SiAu8,0.0,-0.06250549999999999,
SnAu4,0.0,-0.0625034,
CdHgPb2,0.0,-0.0624986,
NdAuTl,0.0,-0.0624944,
PrOs2,0.0,-0.0624911,
YTl2Pb,0.0,-0.0624903,
TcOsIr2,0.0,-0.0624902,
MgPt5Bi,0.0,-0.062489800000000005,
LaHg3,0.0,-0.062488100000000005,
TbHoPb2,0.0,-0.0624855,
TiIr5,0.0,-0.062483899999999995,
CdTa8,0.0,-0.062481999999999996,
RuPdAc2,0.0,-0.0624777,
SbPtBi,0.0,-0.062476,
BrU,0.0,-0.0624749,
CdHg4Tl,0.0,-0.062472900000000005,
LaIrPt,0.0,-0.062472700000000006,
AlAu8,0.0,-0.062472299999999995,
GdDyBi,0.0,-0.0624715,
TcReIr2,0.0,-0.0624667,
NiAu7,0.0,-0.0624666,
MoReIr2,0.0,-0.0624587,
KPb4,0.0,-0.0624563,
TeHg2Pb,0.0,-0.062453299999999996,
PrPt2,0.0,-0.062451599999999996,
DyLuTl2,0.0,-0.0624489,
SrPt4Hg,0.0,-0.062447699999999995,
LuHg,0.0,-0.0624467,
LaOs2,0.0,-0.0624466,
SiTaPu,0.0,-0.062443399999999996,
SrPt3Au2,0.0,-0.0624407,
BaAu3,0.0,-0.0624363,
AsU,0.0,-0.0624332,
Tb2Pt2Tl,0.0,-0.0624324,
CdBaPb4,0.0,-0.0624295,
Gd2Hg,0.0,-0.0624222,
DyLuIr2,0.0,-0.062422,
TePtBi,0.0,-0.062422,
LaPt2,0.0,-0.0624216,
EuAu,0.0,-0.062421199999999996,
SrHgBi2,0.0,-0.0624197,
CuAu7,0.0,-0.062416400000000004,
Al2PbPu2,0.0,-0.0624159,
SrHg2Pb2,0.0,-0.0624152,
PrAuTl,0.0,-0.062404600000000005,
Er2Au2Hg,0.0,-0.0624039,
AgPt4,0.0,-0.0624013,
PPt3Pb2,0.0,-0.0623992,
AgHg2Tl2,0.0,-0.062397100000000004,
AlOsNp,0.0,-0.062397,
AlPt2Th,0.0,-0.0623925,
MgPt7,0.0,-0.062391100000000005,
MoIr3,0.0,-0.062389400000000005,
GeAu5Tl,0.0,-0.062389200000000006,
CdSnAc2,0.0,-0.0623856,
NdTmPb2,0.0,-0.0623837,
PdAc,0.0,-0.0623814,
Tb2Ir2Tl,0.0,-0.0623812,
Cd2BiPu,0.0,-0.0623804,
LaAuTl,0.0,-0.062373399999999996,
RbAu2Pb2,0.0,-0.0623718,
SbTmTh,0.0,-0.062369999999999995,
RuOs2Ir,0.0,-0.0623689,
YHgPb2,0.0,-0.0623679,
PdInAc2,0.0,-0.0623671,
Tm3Os2Pt,0.0,-0.0623605,
HoHg2,0.0,-0.062358199999999996,
FeIr5,0.0,-0.062357,
InHg5,0.0,-0.062355100000000004,
AlPtNp,0.0,-0.062351300000000005,
CPTh3,0.0,-0.0623464,
PdPt2Pb,0.0,-0.062345599999999994,
CdPt4,0.0,-0.0623417,
LiHg2Pu,0.0,-0.0623416,
AgGdBi2,0.0,-0.062339599999999995,
NbIr3,0.0,-0.062336300000000004,
RuRe2Os,0.0,-0.0623355,
RhOs3,0.0,-0.0623349,
SrAu4Tl,0.0,-0.0623297,
Tc2WPu,0.0,-0.0623217,
PrTmPb2,0.0,-0.0623195,
GeAuTh,0.0,-0.0623144,
ZnAuU,0.0,-0.0623132,
KTl4Pb,0.0,-0.0623122,
Rh2PtPu,0.0,-0.062307499999999995,
La2Pt2Bi,0.0,-0.0623045,
MgPt2Pa,0.0,-0.0623028,
YBi2,0.0,-0.0623005,
NbOs3,0.0,-0.0622986,
LaTmPb2,0.0,-0.0622983,
InTa2Ir2,0.0,-0.0622966,
TcIr3,0.0,-0.0622955,
RuRe2Ir,0.0,-0.0622928,
SiMnPu2,0.0,-0.0622899,
BaAuPb,0.0,-0.0622897,
SiPt5Tl,0.0,-0.0622851,
SbHg2Pb,0.0,-0.062282699999999996,
ScHg8,0.0,-0.0622822,
CsTlPb,0.0,-0.062279400000000006,
Tm3Ir2Au,0.0,-0.0622755,
SbTePu,0.0,-0.0622722,
SiAuNp,0.0,-0.062269399999999996,
GdDyAu2,0.0,-0.0622674,
Sm3Pt2Tl3,0.0,-0.062266800000000004,
ZnAu7,0.0,-0.062264400000000004,
SiOsU,0.0,-0.0622561,
AsHg2Ac,0.0,-0.062252499999999995,
Ce3Ir2Tl3,0.0,-0.062250599999999996,
KTl2Bi2,0.0,-0.062248899999999996,
MgAu8,0.0,-0.0622464,
RuOsIr2,0.0,-0.062243,
PPtU,0.0,-0.0622403,
CeErPb2,0.0,-0.062239199999999995,
RbPb3,0.0,-0.0622338,
Ce3Pt2Tl3,0.0,-0.062231,
Tm3Pt2Au,0.0,-0.06222,
BIr2Th,0.0,-0.0622119,
GaAuPa,0.0,-0.0622117,
ErTmTl2,0.0,-0.0622114,
MgPb2Ac,0.0,-0.062210999999999995,
TbAuHg,0.0,-0.0622109,
Dy2Au2Tl,0.0,-0.0622089,
Sm2Pt2Pb,0.0,-0.0622089,
Te2TlPa,0.0,-0.0622084,
PPt5Tl,0.0,-0.0622076,
NdBi,0.0,-0.0622061,
LiPt2U,0.0,-0.0622034,
CdHg2Tl2,0.0,-0.062203,
Ru2InU2,0.0,-0.0622025,
CoNp,0.0,-0.0622013,
TbLuTl2,0.0,-0.0621979,
Sm3Ir2Tl3,0.0,-0.0621901,
NiPbBi2,0.0,-0.0621852,
ZrHfW4,0.0,-0.062182699999999994,
SrPt2Au3,0.0,-0.062180799999999994,
FeRe5,0.0,-0.062179200000000004,
GaIrTh,0.0,-0.0621788,
RbTl4,0.0,-0.0621762,
I2Pu,0.0,-0.0621751,
RuReIr2,0.0,-0.0621751,
NbOs2Pt,0.0,-0.062169199999999994,
Tb2Pt3,0.0,-0.0621689,
TbDyPb2,0.0,-0.062168100000000004,
ZnIrPa,0.0,-0.062161799999999996,
Si2Th3,0.0,-0.0621574,
TcWIr2,0.0,-0.062153,
PmErPb2,0.0,-0.0621516,
IAuHg3,0.0,-0.0621509,
SmHgTl,0.0,-0.0621499,
SnHgTl2,0.0,-0.0621349,
TbLuIr2,0.0,-0.0621341,
RhRe2Os,0.0,-0.0621291,
BaAu2Hg,0.0,-0.0621264,
CoSbTh2,0.0,-0.0621236,
MoTa6,0.0,-0.0621231,
BePt7,0.0,-0.0621211,
TcWOs2,0.0,-0.0621202,
InAu4,0.0,-0.0621195,
CoIr5,0.0,-0.0621159,
RhOs2Ir,0.0,-0.0621145,
BaPtHg2,0.0,-0.0621136,
GaAu2Ac,0.0,-0.062112499999999994,
SbPt3,0.0,-0.0621074,
ScIr5,0.0,-0.062107100000000005,
CaTl5,0.0,-0.0621042,
CoRe5,0.0,-0.0621008,
RuRe3,0.0,-0.0620987,
NaPb2Ac,0.0,-0.0620982,
TcRe3,0.0,-0.0620955,
Te2AuU,0.0,-0.0620944,
Tm2AuTl,0.0,-0.0620907,
PrBi,0.0,-0.062089799999999994,
RuWOs2,0.0,-0.0620878,
RuIr3,0.0,-0.062087,
Tm2IrAu,0.0,-0.0620852,
MoWIr2,0.0,-0.062082700000000005,
Tm3Os2Au,0.0,-0.062079300000000004,
LaBi,0.0,-0.0620757,
SbAu2Tl,0.0,-0.0620734,
H2PbTh3,0.0,-0.062072699999999995,
SeTl4,0.0,-0.062072,
SrAuTl3,0.0,-0.06207,
Ho2TlPb,0.0,-0.062066699999999995,
NaPt7,0.0,-0.0620665,
NbAu4,0.0,-0.0620659,
Tm2PtAu,0.0,-0.0620637,
Pd2Au3Th,0.0,-0.062061500000000006,
SrHg4Pb,0.0,-0.062060000000000004,
RhRe2Ir,0.0,-0.0620578,
NbIr2Pt,0.0,-0.0620541,
GaPtTh,0.0,-0.0620503,
CaPt2Bi2,0.0,-0.062048400000000004,
Dy2Pt2Hg,0.0,-0.0620471,
Rh2AuPu,0.0,-0.0620445,
Ag2PbPu,0.0,-0.0620428,
Tm3Pb2,0.0,-0.0620401,
NdErPb2,0.0,-0.062035,
InAu2Pb,0.0,-0.0620334,
ErLuBi,0.0,-0.0620321,
CoTlTh,0.0,-0.0620293,
AlAu2Pa,0.0,-0.062028599999999996,
AgTl3,0.0,-0.062027299999999994,
TbPb,0.0,-0.062023,
ZrAu4,0.0,-0.0620226,
TcIr2Pt,0.0,-0.062019599999999994,
RuWIr2,0.0,-0.0620173,
Dy3Pt4,0.0,-0.0620116,
N2BiU2,0.0,-0.0620068,
RbPt5,0.0,-0.0620066,
InHg2Bi,0.0,-0.0620045,
GdTbAu2,0.0,-0.062003300000000004,
MoRe2Pt,0.0,-0.0620021,
SrTlPb2,0.0,-0.0620021,
ZrTl3,0.0,-0.0619943,
PrErPb2,0.0,-0.0619921,
LiPt7,0.0,-0.0619921,
CdLuPt4,0.0,-0.0619894,
As2IrTh2,0.0,-0.0619894,
La2Tl2Pb,0.0,-0.0619884,
RhAu4,0.0,-0.0619868,
Ba2Pb3,0.0,-0.061984000000000004,
BaTl2,0.0,-0.0619836,
Tm3Ir2Hg,0.0,-0.0619836,
ZnPtPa,0.0,-0.061981499999999995,
RuHf6Tl2,0.0,-0.0619797,
CaAu7,0.0,-0.0619792,
RhOsIr2,0.0,-0.061978200000000004,
RuRe2Pt,0.0,-0.061978,
SrPt2Tl2,0.0,-0.061975999999999996,
ZrHg5,0.0,-0.061975,
AsAu2Pb2,0.0,-0.061974600000000005,
NiRe5,0.0,-0.0619745,
AgHg5,0.0,-0.061974299999999996,
DyHg2,0.0,-0.0619718,
PHfIr5,0.0,-0.0619713,
GaOsTh,0.0,-0.061957099999999994,
CsHgBi,0.0,-0.0619545,
BPt2Th,0.0,-0.061952,
SnPt3,0.0,-0.0619512,
RhAgAc2,0.0,-0.0619495,
GdHf5,0.0,-0.061948,
La3Tl5,0.0,-0.0619471,
AsPt5,0.0,-0.0619427,
LaErPb2,0.0,-0.0619411,
SmPtHg,0.0,-0.061934600000000006,
MnPt5,0.0,-0.0619343,
CdEuAu5,0.0,-0.0619343,
TcOsPt2,0.0,-0.0619337,
EuTmAu2,0.0,-0.061932299999999996,
Sb2OsPa,0.0,-0.0619321,
RhReIr2,0.0,-0.0619288,
SmHoPb2,0.0,-0.061928699999999996,
SbErTh,0.0,-0.0619284,
CeHoPb2,0.0,-0.061928199999999996,
Nd3Pt2Tl3,0.0,-0.061927300000000005,
Tm2OsAu,0.0,-0.061927100000000006,
RbHg2Pb2,0.0,-0.0619257,
SmAu2,0.0,-0.061924999999999994,
RhHf6Tl2,0.0,-0.061922899999999996,
Tm3Pt2Hg,0.0,-0.0619201,
Dy2Ir2Hg,0.0,-0.06192,
As2PtTh2,0.0,-0.0619165,
SiPtU,0.0,-0.0619144,
InPt2Tl,0.0,-0.0619097,
SrLaPb4,0.0,-0.0619067,
ZrIr3,0.0,-0.061903599999999996,
RhWOs2,0.0,-0.0619033,
BaEuPb2,0.0,-0.061902500000000006,
RuAgAc2,0.0,-0.061900399999999994,
SnHg2Pb,0.0,-0.0618913,
RhOs2Pt,0.0,-0.061891,
CePtHg,0.0,-0.061890799999999996,
NdHgTl,0.0,-0.0618904,
YAu2Bi,0.0,-0.0618897,
RhRe3,0.0,-0.0618855,
CaHg8,0.0,-0.061883099999999996,
HoTmTl2,0.0,-0.061881900000000004,
Sb2Pu,0.0,-0.0618816,
SrAu5,0.0,-0.061878999999999997,
BaHgPb,0.0,-0.0618787,
NdGdIr2,0.0,-0.0618786,
LaPtAu,0.0,-0.0618746,
MoIrPt2,0.0,-0.061873399999999995,
InAuTl2,0.0,-0.061871499999999996,
BaAuHg2,0.0,-0.0618714,
NiIr5,0.0,-0.0618663,
AgInAc2,0.0,-0.0618659,
YPt2Pb,0.0,-0.0618645,
TiPt5,0.0,-0.0618639,
Ho2Au2Hg,0.0,-0.0618617,
Sb2IrPa,0.0,-0.061861,
SiGaPu2,0.0,-0.0618596,
ErTl,0.0,-0.061856499999999995,
CdHg5,0.0,-0.0618561,
LaHgTl,0.0,-0.0618547,
CaPtTl4,0.0,-0.0618533,
PI2Pu2,0.0,-0.061851300000000005,
Sm3Au2Tl3,0.0,-0.0618502,
BrPtTl3,0.0,-0.0618485,
CeAu2,0.0,-0.0618468,
RhPb2,0.0,-0.061843800000000004,
Nd3Ir2Tl3,0.0,-0.0618408,
CrPt5,0.0,-0.0618395,
CaAu2Th,0.0,-0.0618371,
Nd2Pt2Pb,0.0,-0.0618369,
TcIrPt2,0.0,-0.0618359,
CdTl3,0.0,-0.061830199999999995,
CaTl2Ac,0.0,-0.0618299,
Ni2PbPa2,0.0,-0.061825000000000005,
PmHoPb2,0.0,-0.0618222,
Br3SbPu3,0.0,-0.0618198,
AsPb3,0.0,-0.0618198,
Pr3Pt2Tl3,0.0,-0.0618161,
PrHgTl,0.0,-0.0618144,
RuIr2Pt,0.0,-0.0618116,
GePt5,0.0,-0.061808100000000005,
ErIr,0.0,-0.0618078,
TcRePt2,0.0,-0.0618072,
ErPt,0.0,-0.061804200000000004,
SbTlPb,0.0,-0.061798099999999995,
PrRe2,0.0,-0.0617949,
La3Pt2Tl3,0.0,-0.0617945,
Tb2Au2Tl,0.0,-0.061794400000000006,
CCdU2,0.0,-0.0617925,
RhIr3,0.0,-0.0617918,
Tm3Os2Hg,0.0,-0.0617915,
Er2HgPb,0.0,-0.061790700000000004,
HoLuAu2,0.0,-0.061790199999999997,
TeAuBi,0.0,-0.0617873,
RuOsPt2,0.0,-0.0617862,
Er3Ir2Pt,0.0,-0.0617858,
KTl5,0.0,-0.0617838,
ZrIr2Pt,0.0,-0.0617826,
PdAgAc2,0.0,-0.0617783,
SiPt5Au,0.0,-0.0617734,
YHg5,0.0,-0.0617724,
SbTa5,0.0,-0.0617672,
Er2IrPt,0.0,-0.061766,
SnAu2Tl,0.0,-0.0617628,
CaBi3,0.0,-0.0617626,
FePt5,0.0,-0.0617592,
SiAu2Th,0.0,-0.0617442,
RhPdPb4,0.0,-0.0617274,
RhWIr2,0.0,-0.0617273,
NdHoPb2,0.0,-0.0617245,
Pr3Ir2Tl3,0.0,-0.0617242,
Sb2PtPa,0.0,-0.061722099999999995,
Ge2PbTh2,0.0,-0.0617175,
Fe2TlPa2,0.0,-0.061715200000000005,
Pr2Pt2Pb,0.0,-0.0617121,
Cs2Hg7,0.0,-0.0617118,
RhRe2Pt,0.0,-0.061711300000000004,
La2Pt2Pb,0.0,-0.061710299999999996,
La3Ir2Tl3,0.0,-0.061709,
Mn2TlPa2,0.0,-0.0617068,
CuRe5,0.0,-0.0617024,
MoPt3,0.0,-0.061701099999999995,
La2Au2Bi,0.0,-0.061697699999999994,
RbPtTl3,0.0,-0.0616953,
RuRePt2,0.0,-0.0616949,
AlAuNp,0.0,-0.061692300000000005,
RhCdAc2,0.0,-0.061690800000000004,
PPt5Au,0.0,-0.0616827,
CaPt4Pb,0.0,-0.0616824,
NbPt3,0.0,-0.0616802,
CuIr5,0.0,-0.0616799,
SnTePu,0.0,-0.0616781,
SrPtPb2,0.0,-0.0616774,
ZnHg2Th,0.0,-0.061673099999999995,
CdInAc2,0.0,-0.0616717,
SiAu5Pb,0.0,-0.0616703,
CdTa2Ir2,0.0,-0.0616699,
SrAu4Hg,0.0,-0.061667099999999996,
Eu2Pb,0.0,-0.061665199999999996,
Ba2HgBi2,0.0,-0.0616633,
NiNp,0.0,-0.0616626,
TmAu,0.0,-0.061660200000000005,
InErPt4,0.0,-0.061659599999999995,
NAlTh3,0.0,-0.061659,
AlHf2Bi3,0.0,-0.061657899999999995,
SbHf2Pt2,0.0,-0.0616534,
ScPt5,0.0,-0.0616528,
PIrPa,0.0,-0.061650199999999995,
EuHg,0.0,-0.0616496,
AgAu4,0.0,-0.0616475,
LiPb2Ac,0.0,-0.0616448,
PrHoPb2,0.0,-0.061644399999999995,
SnHf2Ir2,0.0,-0.0616439,
CeDyPb2,0.0,-0.061643,
MgPb4,0.0,-0.0616415,
Tm2HgTl,0.0,-0.0616395,
TbHg2,0.0,-0.0616374,
LaHoPb2,0.0,-0.0616348,
PdPb2,0.0,-0.061633600000000004,
SmLuTl2,0.0,-0.0616335,
NdPtHg,0.0,-0.061631700000000005,
InPb2,0.0,-0.0616272,
MoWPt2,0.0,-0.0616265,
RuIrPt2,0.0,-0.061626,
ZrIrPt2,0.0,-0.0616247,
Tb2Pt2Hg,0.0,-0.0616228,
NiPtTh,0.0,-0.061622300000000005,
SmDyPb2,0.0,-0.0616202,
RhHgTl2,0.0,-0.0616166,
ZnPd2Th3,0.0,-0.0616136,
Lu2Ir,0.0,-0.0616111,
TcPt3,0.0,-0.061609699999999996,
AlAu7,0.0,-0.0616086,
YAu4,0.0,-0.061607999999999996,
NdAu2,0.0,-0.061607300000000004,
BaLaIr4,0.0,-0.0616044,
TcTaIr2,0.0,-0.0616035,
YTl3,0.0,-0.0616014,
Sm2Au2Pb,0.0,-0.0615981,
PdHf3Os2,0.0,-0.061593499999999995,
DyTmTl2,0.0,-0.0615922,
RuTaIr2,0.0,-0.0615882,
CdEuPt4,0.0,-0.0615839,
TcWPt2,0.0,-0.0615837,
MgTl2Th,0.0,-0.061583399999999996,
Ru2SnPa2,0.0,-0.0615826,
CdTmIr4,0.0,-0.061580300000000004,
PPt5Hg,0.0,-0.0615788,
TmLuHg2,0.0,-0.061576,
BaLaPt4,0.0,-0.0615715,
Pd2AuPu,0.0,-0.0615713,
MgAu5Bi,0.0,-0.061568399999999995,
PdEuBi2,0.0,-0.0615683,
InWIr2,0.0,-0.061561500000000005,
BaHg3,0.0,-0.0615601,
Lu2Pt,0.0,-0.0615531,
InHgTl2,0.0,-0.0615516,
RhIr2Pt,0.0,-0.0615491,
Tb3Pt4,0.0,-0.061548900000000004,
POsPa,0.0,-0.0615453,
TeI2Th2,0.0,-0.0615453,
CdAu4,0.0,-0.061542099999999995,
TcTa5,0.0,-0.061540399999999995,
La2Ir2Pb,0.0,-0.0615391,
CdPbBi,0.0,-0.0615391,
TePtPb,0.0,-0.0615384,
MgPt2Th,0.0,-0.0615382,
ZnIr5,0.0,-0.06153670000000001,
RuTa5,0.0,-0.0615357,
PrPtHg,0.0,-0.0615335,
PmDyPb2,0.0,-0.0615326,
SrAu2Tl2,0.0,-0.0615324,
Ag2Pt7,0.0,-0.0615321,
Te2TlTh,0.0,-0.0615309,
TeHg2Tl,0.0,-0.06153,
ZnInPa2,0.0,-0.061527099999999994,
KPt2Bi2,0.0,-0.0615259,
ScHg7,0.0,-0.0615247,
Nd3Au2Tl3,0.0,-0.0615246,
Lu3Bi,0.0,-0.061520000000000005,
HoErTl2,0.0,-0.0615182,
RhOsPt2,0.0,-0.0615176,
PrAu2,0.0,-0.0615171,
Se3SbTh4,0.0,-0.0615153,
SbI2Th2,0.0,-0.061515099999999996,
DyTmIr2,0.0,-0.0615147,
MnHf6Bi2,0.0,-0.061513899999999996,
LaPtHg,0.0,-0.0615138,
SrHg4Tl,0.0,-0.0615099,
MoTaIr2,0.0,-0.061509,
Ce2Ir2Tl,0.0,-0.0615082,
LiPt2Pa,0.0,-0.0615061,
ClPt2Bi2,0.0,-0.0615054,
Er3Ir2Au,0.0,-0.061503300000000004,
FeHf6Bi2,0.0,-0.0615032,
RuTaOs2,0.0,-0.0615028,
ZrPt3,0.0,-0.0615015,
CaAu2Bi2,0.0,-0.0614995,
YTa2Ir2,0.0,-0.061498199999999996,
RuW2Ir,0.0,-0.061497500000000004,
SbHoTh,0.0,-0.0614964,
LaAu2,0.0,-0.0614955,
GeU,0.0,-0.0614943,
PHfPt5,0.0,-0.061494,
CoPt5,0.0,-0.0614921,
Dy2TlPb,0.0,-0.0614908,
Tb2Ir2Hg,0.0,-0.061488799999999996,
RhRePt2,0.0,-0.0614734,
RhWRe2,0.0,-0.0614718,
CoHf6Bi2,0.0,-0.0614709,