formula,bg,formation_energy,mp-id
PrPb3,0.0,-0.06821469999999999,
CsAu4Tl6,0.0,-0.0682083,
FeRuPu2,0.0,-0.0681981,
CdPb5,0.0,-0.06819750000000001,
HfOs,0.0,-0.0681958,
LuPt4Hg,0.0,-0.0681897,
PrHg2Ac,0.0,-0.0681828,
ScPb7,0.0,-0.0681768,
LuPtPb,0.0,-0.0681712,
HfAu3,0.0,-0.0681669,
Hg,0.0,-0.06816589999999999,
DyPt8,0.0,-0.0681599,
LaHg2Ac,0.0,-0.0681567,
NdAuBi2,0.0,-0.068149,
CaPb2Pu,0.0,-0.0681487,
Hf2Bi,0.0,-0.0681445,
YPb2Ac,0.0,-0.068142,
TmPtBi,0.0,-0.06813549999999999,
FeTcPu2,0.0,-0.0681345,
AlPb8,0.0,-0.0681339,
Hf5Th,0.0,-0.0681336,
GePt2Pu,0.0,-0.0681304,
BaPt2Bi2,0.0,-0.0681272,
Ta2WAu,0.0,-0.06812220000000001,
YBiTh,0.0,-0.06811740000000001,
Hf2Pt2Au,0.0,-0.0681048,
LaAuBi2,0.0,-0.0681045,
GeAuAc2,0.0,-0.0681012,
PrAuBi2,0.0,-0.06809430000000001,
Ta4Au5,0.0,-0.0680933,
AsSbNp2,0.0,-0.0680867,
HfIr,0.0,-0.0680858,
EuTl3,0.0,-0.06807099999999999,
TaAu,0.0,-0.0680703,
TbTlPb2,0.0,-0.0680665,
HoPt7,0.0,-0.0680655,
ZnPbAc2,0.0,-0.0680626,
EuAuBi,0.0,-0.06804869999999999,
Hf2OsIr,0.0,-0.0680476,
YPb5,0.0,-0.0680468,
Ta3Pt,0.0,-0.0680453,
Ta3Re,0.0,-0.06802899999999999,
TbPt8,0.0,-0.06802710000000001,
Ta5W4,0.0,-0.068025,
RhTlTh,0.0,-0.0680247,
BaPtPb3,0.0,-0.0680216,
CuBiPu,0.0,-0.0680173,
AgPbTh,0.0,-0.068017,
SbPb4,0.0,-0.0680158,
GdPt2Au,0.0,-0.0680154,
Ru2PbTh2,0.0,-0.06801510000000001,
CeIr7,0.0,-0.068009,
BaPt2Tl5,0.0,-0.0680071,
InTl8,0.0,-0.06799939999999999,
CoRuPu2,0.0,-0.06799909999999999,
Ta4W3,0.0,-0.0679961,
BaIrPb3,0.0,-0.0679945,
GdPb,0.0,-0.0679944,
TmIrBi,0.0,-0.0679897,
ZnPt4Pu,0.0,-0.06798739999999999,
AgPt2Pb4,0.0,-0.0679837,
Hf3Os2Pt,0.0,-0.0679651,
CoBi2Th,0.0,-0.0679646,
GdAu5,0.0,-0.0679605,
Ta4Os,0.0,-0.0679454,
CeBi2,0.0,-0.0679442,
Rh2PbTh2,0.0,-0.0679435,
SeBiU,0.0,-0.06793890000000001,
Sn3Os2Th3,0.0,-0.0679333,
GaTlAc2,0.0,-0.06793210000000001,
MnIr2Pu,0.0,-0.0679249,
MgPb8,0.0,-0.0679222,
GdIr2,0.0,-0.0679054,
ZnPb7,0.0,-0.06790120000000001,
DyPt7,0.0,-0.06790120000000001,
CHgTh2,0.0,-0.0679007,
ITl2Bi2,0.0,-0.06790009999999999,
TmPt5,0.0,-0.0678996,
SmBi2,0.0,-0.0678957,
ErHgPb2,0.0,-0.067886,
RuPa,0.0,-0.06788129999999999,
LuIr3,0.0,-0.06787820000000001,
Ta4Ir,0.0,-0.0678678,
CuSnPu2,0.0,-0.0678618,
Ta3Au2,0.0,-0.067855,
Pd2TlPa2,0.0,-0.0678503,
CdAuU,0.0,-0.067839,
Hf2ReIr,0.0,-0.0678365,
HfPt,0.0,-0.0678356,
Al2FeTh6,0.0,-0.06783159999999999,
CoRhPu2,0.0,-0.0678245,
Ta5W3,0.0,-0.0678211,
Al2MnTh6,0.0,-0.0678195,
GdOs2,0.0,-0.0678165,
ErPb2,0.0,-0.06781369999999999,
SnPa,0.0,-0.0678113,
LuBi,0.0,-0.0678082,
Hf2Pt2Hg,0.0,-0.067805,
Al2CoTh6,0.0,-0.06779890000000001,
EuPt4Hg,0.0,-0.0677923,
MgAu2Th2,0.0,-0.06777630000000001,
NiBi2Th,0.0,-0.0677758,
Hf2ReOs,0.0,-0.06777549999999999,
SiTh2,0.0,-0.0677707,
InAuPa,0.0,-0.0677692,
SnAuTh,0.0,-0.0677657,
LuAu7,0.0,-0.0677638,
CePt8,0.0,-0.0677587,
HfAu2,0.0,-0.0677586,
TbPt7,0.0,-0.0677547,
GeAgPu2,0.0,-0.0677485,
LaTl5,0.0,-0.0677474,
LuIrPt2,0.0,-0.0677444,
Ta4Re,0.0,-0.0677383,
BaAuPb3,0.0,-0.06773749999999999,
Ta5Os,0.0,-0.06773520000000001,
GdAu4,0.0,-0.06773,
SnPt2Ac,0.0,-0.06772979999999999,
LuPt3,0.0,-0.06772750000000001,
AgTl8,0.0,-0.0677219,
CaPb7,0.0,-0.0677212,
NiRuPu2,0.0,-0.0677103,
Al2NiTh6,0.0,-0.0677062,
SnBi3,0.0,-0.0677057,
Ta2W,0.0,-0.0677047,
InIrTh,0.0,-0.06770140000000001,
TeTh,0.0,-0.0676951,
Ta5Ir,0.0,-0.06769370000000001,
Rh2HgPa2,0.0,-0.0676934,
LiPb8,0.0,-0.06769249999999999,
GaPtAc2,0.0,-0.0676823,
EuHg2Bi,0.0,-0.06768170000000001,
GeHgAc2,0.0,-0.06767329999999999,
BaTl4Pb,0.0,-0.0676668,
PdTlTh,0.0,-0.06766549999999999,
Ta4Pt,0.0,-0.06766330000000001,
LuAuPb,0.0,-0.0676605,
CdPt2Th,0.0,-0.06765819999999999,
CdTl8,0.0,-0.0676554,
InAu2Th,0.0,-0.06765449999999999,
NdBi2,0.0,-0.0676527,
ErPtBi,0.0,-0.067646,
GdPt2,0.0,-0.067641,
Hf6IrBi2,0.0,-0.0676404,
PIPu2,0.0,-0.06763899999999999,
BaAu2Bi2,0.0,-0.0676371,
Hf3Os2Au,0.0,-0.0676368,
InPtTh,0.0,-0.06763569999999999,
ErPt5,0.0,-0.0676354,
PdAuPb4,0.0,-0.0676345,
SnIr2Ac,0.0,-0.0676284,
TmPt4Hg,0.0,-0.0676269,
Ta2Au,0.0,-0.06761249999999999,
Co2Tl3Th3,0.0,-0.0676071,
GaIrAc2,0.0,-0.0676033,
LaBi2,0.0,-0.0675941,
Hf6OsBi2,0.0,-0.0675933,
TmAu8,0.0,-0.0675854,
PrBi2,0.0,-0.06758410000000001,
EuAu2Pb,0.0,-0.06758280000000001,
CSbTh3,0.0,-0.0675761,
CoIrAc2,0.0,-0.0675718,
HoHgPb2,0.0,-0.06756770000000001,
Hf6PtBi2,0.0,-0.0675652,
SbTe3Th4,0.0,-0.06755670000000001,
ZnAg2Pu3,0.0,-0.06755219999999999,
Hf2RePt,0.0,-0.0675475,
CdAu2Pa,0.0,-0.0675436,
Ta5Re,0.0,-0.0675407,
Ta5Pt,0.0,-0.0675232,
BaTl2Pb2,0.0,-0.0675181,
HfW2,0.0,-0.0675149,
ZnSnPu2,0.0,-0.067511,
GeIr2Np,0.0,-0.0675073,
InTl2Ac,0.0,-0.0675045,
TmTl3,0.0,-0.0674996,
CTh2,0.0,-0.0674953,
BaPtBi2,0.0,-0.0674943,
SbTh,0.0,-0.0674941,
RhPa,0.0566,-0.06749190000000001,
ErIrBi,0.0,-0.0674918,
YTl8,0.0,-0.0674846,
Pd2PbTh2,0.0,-0.0674777,
YTl2Th,0.0,-0.06747639999999999,
GaPt2Pu,0.0,-0.0674734,
BaIrBi2,0.0,-0.06747199999999999,
SnTl2Bi2,0.0,-0.06747,
RhBi3,0.0,-0.06746250000000001,
Hf3Au5,0.0,-0.0674607,
RhPb4,0.0,-0.0674569,
InTl7,0.0,-0.06745369999999999,
NSnTh3,0.0,-0.0674515,
GeCdPu2,0.0,-0.0674491,
InOsTh,0.0,-0.0674456,
NiPtAc2,0.0,-0.06743859999999999,
EuPt2Au3,0.0,-0.0674357,
CePt7,0.0,-0.06743510000000001,
CuBi2Th,0.0,-0.0674333,
KPb7,0.0,-0.06742719999999999,
Ta3W,0.0,-0.0674268,
CuTlAc2,0.0,-0.0674254,
ZnPt4Np,0.0,-0.06742400000000001,
CsPt2Bi2,0.0,-0.0674223,
HoPt5,0.0,-0.06741630000000001,
ErAu8,0.0,-0.067415,
CdPtPa,0.0,-0.0674147,
LaPt4Pb,0.0,-0.067408,
Hf6ReBi2,0.0,-0.0674075,
NiIrAc2,0.0,-0.06740399999999999,
KAu4Pb6,0.0,-0.0673988,
LuAu5,0.0,-0.0673964,
Ta3Au,0.0,-0.06738970000000001,
ErPt4Hg,0.0,-0.0673864,
HoPb2,0.0,-0.06738620000000001,
Te3Bi8,0.0,-0.06738290000000001,
NdTlPb2,0.0,-0.0673637,
LaTlPb2,0.0,-0.0673566,
LuPt2Au,0.0,-0.0673517,
Ta8Os,0.0,-0.06734780000000001,
GaAuAc2,0.0,-0.0673471,
NiPbPu,0.0,-0.0673399,
HfRe,0.0,-0.0673319,
CuTcPu2,0.0,-0.0673272,
Ta8Ir,0.0,-0.0673271,
SbAu2Ac,0.0,-0.0673195,
Hf3Os2Hg,0.0,-0.0673179,
PdPb4,0.0,-0.0673168,
GdAu3,0.0,-0.0673155,
NiBiNp,0.0,-0.0673058,
DyHgPb2,0.0,-0.0672889,
PdSnPa2,0.0,-0.0672826,
Hf6AuBi2,0.0,-0.0672811,
InPb4,0.0,-0.06727970000000001,
Hf2Au3,0.0,-0.0672749,
CuRhPu2,0.0,-0.0672716,
Ru2TlTh2,0.0,-0.06726860000000001,
GeIrPu,0.0,-0.0672624,
HoAu8,0.0,-0.0672595,
GeAu2Pu,0.0,-0.0672588,
MnIr2Np,0.0,-0.0672586,
Ta4W,0.0,-0.06725690000000001,
GdHg2Tl,0.0,-0.0672553,
MoIr8,0.0,-0.06725400000000001,
BaPb3,0.0,-0.0672457,
BaHg2Ac,0.0,-0.0672448,
NiPdPu2,0.0,-0.0672399,
CuPtAc2,0.0,-0.0672295,
InBi3,0.0,-0.0672295,
Ta8Pt,0.0,-0.06722929999999999,
Hf2Pb,0.0,-0.0672292,
DyPt5,0.0,-0.0672281,
GeOsPu,0.0,-0.067224,
TcIr8,0.0,-0.0672103,
GePt2Np,0.0,-0.0672079,
HoPtBi,0.0,-0.06719989999999999,
Rh2TlTh2,0.0,-0.0671981,
CuIrAc2,0.0,-0.06719549999999999,
NiPt4U,0.0,-0.0671861,
Ta4Au,0.0,-0.0671833,
Hf3Ir2Hg,0.0,-0.06718110000000001,
GePtPu,0.0,-0.06717659999999999,
HoPt2Pb,0.0,-0.0671759,
HoPt4Hg,0.0,-0.0671688,
AlPb7,0.0,-0.0671687,
TeI2Pu2,0.0,-0.0671522,
ErTl3,0.0,-0.06714700000000001,
SiPbAc2,0.0,-0.06714319999999999,
FeIr2Np,0.0,-0.0671412,
BaTl5,0.0,-0.0671411,
NbIr8,0.0,-0.0671403,
SrPb5,0.0,-0.0671398,
Ta5W,0.0,-0.06713809999999999,
HoAu2Bi,0.0,-0.0671375,
AgTl7,0.0,-0.0671373,
LuHg2Pb,0.0,-0.06713630000000001,
CSnTh3,0.0,-0.0671354,
LuAu4,0.0,-0.06712900000000001,
Hf6WBi2,0.0,-0.0671245,
ZnTlAc2,0.0,-0.0671234,
BaAuBi2,0.0,-0.0671222,
DyAu8,0.0,-0.067121,
EuAu5,0.0,-0.06710129999999999,
RuIr8,0.0,-0.06709709999999999,
CeIr5,0.0,-0.06709520000000001,
Ta5Au,0.0,-0.06709470000000001,
IPt2Bi2,0.0,-0.0670933,
InPt2Ac,0.0,-0.06708889999999999,
YPbTh,0.0,-0.0670668,
TbPt5,0.0,-0.0670657,
CdTl7,0.0,-0.067065,
In3Ir2Th3,0.0,-0.0670569,
MgIr4Pu,0.0,-0.0670508,
AsAuPu,0.0,-0.0670507,
TbHgPb2,0.0,-0.0670488,
TcRe8,0.0,-0.0670474,
SnPbBi2,0.0,-0.0670472,
CuPdPu2,0.0,-0.0670436,
NiAuAc2,0.0,-0.0670433,
HoIrBi,0.0,-0.0670363,
In2AcPu,0.0,-0.0670349,
CsTl2Pb2,0.0,-0.0670337,
As2PtPu2,0.0,-0.0670274,
RuRe8,0.0,-0.0670197,
CuPbPu,0.0,-0.06701779999999999,
Gd2TlPb,0.0,-0.06701309999999999,
GdAu2Hg,0.0,-0.0670128,
BaHg2Bi2,0.0,-0.0670116,
DyPb2,0.0,-0.067011,
LuTl2,0.0,-0.0670092,
TmIr3,0.0,-0.067008,
TmPtPb,0.0,-0.0670061,
RbPt4Tl6,0.0,-0.06700060000000001,
TbAu8,0.0,-0.06699909999999999,
CeIr3Pt2,0.0,-0.0669962,
EuHgTl2,0.0,-0.0669926,
InAuTh,0.0568,-0.06699190000000001,
Hf6IrPb2,0.0,-0.0669873,
LuTaOs2,0.0,-0.06698470000000001,
DyPt4Hg,0.0,-0.06697660000000001,
EuAuPb,0.0,-0.06697310000000001,
SbI2Pu2,0.0,-0.06697270000000001,
EuHg2Pb,0.0,-0.06696869999999999,
PrPtPb2,0.0,-0.06696769999999999,
Hf2ReAu,0.0,-0.0669665,
TmIrPb,0.0,-0.0669628,
RhIr8,0.0,-0.0669617,
In3Pt2Th3,0.0,-0.06696089999999999,
SnAu2Ac,0.0,-0.06695040000000001,
YTl7,0.0,-0.06694889999999999,
BaPt2Pb2,0.0,-0.06694370000000001,
GaHgAc2,0.0,-0.0669426,
MgPb7,0.0,-0.0669407,
RhEuPb5,0.0,-0.06693890000000001,
SmIr3Pt2,0.0,-0.0669337,
LuIrAu2,0.0,-0.0669333,
SbPt3Pb2,0.0,-0.0669293,
CsAu2Bi2,0.0,-0.06692730000000001,
InIr2Ac,0.0,-0.06691889999999999,
BaPtTl4,0.0,-0.066917,
PmIr5,0.0,-0.0669169,
Hf6PtPb2,0.0,-0.06691119999999999,
La2Tl3Pb3,0.0,-0.0669022,
LuIr2,0.0,-0.06690120000000001,
GdHg5,0.0,-0.066896,
Ru2ThPa,0.0,-0.0668938,
LaPt4Tl,0.0,-0.066893,
NInTh3,0.0,-0.066888,
ZrPb4,0.0,-0.0668844,
DyPt2Pb,0.0,-0.0668769,
CdAu2Th,0.0,-0.0668758,
In3Os2Th3,0.0,-0.0668749,
CuAuAc2,0.0,-0.06685250000000001,
DyAu2Bi,0.0,-0.0668519,
ZnIrAc2,0.0,-0.0668518,
SeBiPa,0.0,-0.066844,
NdIr5,0.0,-0.06684010000000001,
HoTl3,0.0,-0.0668306,
AgPb4,0.0,-0.06682940000000001,
TmIrPt2,0.0,-0.0668246,
TmPt3,0.0,-0.06681659999999999,
SrPb2Ac,0.0,-0.0668115,
TbPt4Hg,0.0,-0.0668097,
LaTl4,0.0,-0.0668096,
ZnInPu2,0.0,-0.066807,
DyPtBi,0.0,-0.0668054,
TmAu5,0.0,-0.0668049,
MnPt4Th,0.0,-0.0668048,
ErAu2Pb,0.0,-0.0667986,
NOIn2Th6,0.0,-0.06679349999999999,
NdIr3Pt2,0.0,-0.06678959999999999,
PrIr5,0.0,-0.0667856,
LaIr5,0.0,-0.06677509999999999,
BaHgBi2,0.0,-0.06677290000000001,
Hf3Bi,0.0,-0.0667633,
CdTl2Ac,0.0,-0.0667587,
AlTh2,0.0,-0.0667526,
MgPt4Pu,0.0,-0.0667503,
AgTlTh,0.0,-0.06674809999999999,
PrIr3Pt2,0.0,-0.0667403,
LaIr3Pt2,0.0,-0.06674,
MoIr7,0.0,-0.0667365,
InHg2Th,0.0,-0.06673319999999999,
CePt5,0.0,-0.06673180000000001,
Pd2TlTh2,0.0,-0.0667276,
ZnIr2Pu,0.0,-0.06672020000000001,
Ta8Hg,0.0,-0.06671890000000001,
SmPt5,0.0,-0.0667031,
EuAu2Tl,0.0,-0.06669199999999999,
LiPb7,0.0,-0.0666918,
TbPb2,0.0,-0.0666871,
TcIr7,0.0,-0.066684,
GdAu2,0.0,-0.066673,
PdPa,0.0,-0.066673,
CdPb4,0.0,-0.0666703,
NbIr7,0.0,-0.06666240000000001,
RbAu4Tl6,0.0,-0.0666558,
RhHgTh,0.0,-0.0666557,
EuTl2,0.0,-0.0666387,
Hf6AuPb2,0.0,-0.06663630000000001,
PmPt5,0.0,-0.06663580000000001,
ErIr3,0.0,-0.06663519999999999,
EuAu4,0.0,-0.0666328,
DyIrBi,0.0,-0.0666328,
HfAu,0.0,-0.0666297,
Lu2Pt2Pb,0.0,-0.0666251,
GaPt2Np,0.0,-0.0666229,
SbHg2Ac,0.0,-0.0666156,
AsIrNp,0.0,-0.0666143,
SrPb2Bi2,0.0,-0.06660859999999999,
TbAu2Bi,0.0,-0.066605,
RuIr7,0.0,-0.0665886,
GdAuHg2,0.0,-0.0665857,
Ta,0.0,-0.06658270000000001,
LuAu3,0.0,-0.0665817,
CInTh3,0.0,-0.0665765,
NdPt5,0.0,-0.0665704,
AgTl2Bi2,0.0,-0.06656959999999999,
GeAuPu,0.0,-0.0665675,
LaAuPb2,0.0,-0.0665645,
AlPbAc2,0.0,-0.0665621,
SrTlPb4,0.0,-0.0665612,
DyTl3,0.0,-0.066553,
TeTl5,0.0,-0.0665508,
ErAu5,0.0,-0.0665507,
GaAu2Pu,0.0,-0.0665496,
LaPt5,0.0,-0.0665463,
LuPt2,0.0,-0.0665454,
ZnAuAc2,0.0,-0.0665375,
PrPt5,0.0,-0.06652849999999999,
MnOs2U,0.0,-0.06652809999999999,
MnIr2U,0.0,-0.06652809999999999,
CsHg2Bi2,0.0,-0.06652559999999999,
CsPb3,0.0,-0.0665205,
TmAuPb,0.0,-0.0665203,
SbTl5,0.0,-0.0665171,
CrIr2U,0.0,-0.0665125,
SnTh,0.0,-0.0665107,
SePu,0.0,-0.0665106,
ErPtPb,0.0,-0.0665094,
ZnPbPu,0.0,-0.066506,
CdIrTh,0.0,-0.0665022,
SnPt8,0.0,-0.06649859999999999,
MgIr4Np,0.0,-0.06649200000000001,
CdPtTh,0.0,-0.0664907,
BaPt4Pb,0.0,-0.0664887,
TePt8,0.0,-0.0664733,
NbPt8,0.0,-0.06647320000000001,
LaAu4Pb,0.0,-0.06647249999999999,
HoAu2Pb,0.0,-0.0664712,
ErIrPb,0.0,-0.0664696,
PmPt2Bi,0.0,-0.06646859999999999,
BaAu2Pb2,0.0,-0.0664653,
ZrIr7,0.0,-0.06646429999999999,
InPbBi2,0.0,-0.0664631,
TbPtBi,0.0,-0.0664614,
FeIr2U,0.0,-0.0664611,
EuHgPb,0.0,-0.0664575,
MoPt8,0.0,-0.06645319999999999,
CuAgPu2,0.0,-0.0664504,
TmPt2Au,0.0,-0.0664483,
CePt4Hg,0.0,-0.0664476,
CdTlTh,0.0,-0.0664475,
LaTl2Pb,0.0,-0.06644710000000001,
RhIr7,0.0,-0.0664435,
Hf2Ir,0.0,-0.06643980000000001,
ErIrPt2,0.0,-0.0664288,
SmPt4Hg,0.0,-0.0664285,
AsPtNp,0.0,-0.0664284,
GePt2U,0.0,-0.0664281,
ErPt3,0.0,-0.0664241,
TmAu4,0.0,-0.0664236,
SbPt5Pb,0.0,-0.0664136,
CdTl2Bi2,0.0,-0.0664134,
BaHgTl4,0.0,-0.0664033,
In3Au2Th3,0.0,-0.06638920000000001,
Rh2HgTh2,0.0,-0.0663849,
NiPt2Np,0.0,-0.0663673,
Lu3Pt2Tl3,0.0,-0.06635819999999999,
InPt5Bi,0.0,-0.0663557,
ZrPt8,0.0,-0.06635509999999999,
Ru2HgTh2,0.0,-0.0663514,
InAu2Ac,0.0,-0.0663501,
TcPt8,0.0,-0.0663449,
InIr7,0.0,-0.06634369999999999,
BaTlPb2,0.0,-0.06633839999999999,
LuAuTl,0.0,-0.0663364,
PdHgTh,0.0,-0.06633270000000001,
NdHgPb2,0.0,-0.0663319,
HoAu5,0.0,-0.06632930000000001,
Lu3Ir2Tl3,0.0,-0.0663269,
CaTl2Pu,0.0,-0.0663265,
LaPt4Au,0.0,-0.0663231,
TbTl3,0.0,-0.0663143,
LaHgPb2,0.0,-0.066314,
Hf2Os,0.0,-0.0663107,
YTl2Ac,0.0,-0.06630710000000001,
GdHg3,0.0,-0.0662996,
HoIr3,0.0,-0.0662995,
YBi3,0.0,-0.06629850000000001,
TmHg2Pb,0.0,-0.06629550000000001,
LuHg2Tl,0.0,-0.06629460000000001,
BaBi2,0.0,-0.0662864,
Ag2PbTh2,0.0,-0.0662816,
Hf7Bi2,0.0,-0.0662814,
NdPt4Hg,0.0,-0.0662803,
TbIrBi,0.0,-0.06627930000000001,
GaPtPu,0.0,-0.0662791,
CoIr2U,0.0,-0.0662787,
LuHg5,0.0,-0.0662669,
GeAu2Np,0.0,-0.0662654,
InPt8,0.0,-0.0662479,
SnHg2Ac,0.0,-0.06624540000000001,
SiTlAc2,0.0,-0.0662295,
PrPt4Hg,0.0,-0.0662282,
Al3Pu4,0.0,-0.0662276,
LaPt4Hg,0.0,-0.0662252,
RuPt8,0.0,-0.0662203,
SmPt3Au2,0.0,-0.0662085,
InHgTh,0.0,-0.0662052,
SnAu2Bi2,0.0,-0.06619660000000001,
LuHfIr2,0.0,-0.0661871,
DyAu2Pb,0.0,-0.0661827,
MgPt4Np,0.0,-0.0661792,
Hf2Pt,0.0,-0.0661769,
AgHg2Th,0.0,-0.0661741,
SbAu3Pb2,0.0,-0.06617010000000001,
LuAu2Hg,0.0,-0.0661679,
BaTl2Bi,0.0,-0.06616280000000001,
MnPt2U,0.0,-0.0661555,
GeIrNp,0.0,-0.0661527,
LuPb,0.0,-0.0661525,
DyAu5,0.0,-0.0661379,
GdTl,0.0,-0.0661378,
BaTl4,0.0,-0.0661343,
GeOsNp,0.0,-0.0661268,
LuHfOs2,0.0,-0.06612399999999999,
RhPt8,0.0,-0.0661212,
SbPt7,0.0,-0.066121,
CsPt2Pb2,0.0,-0.06612090000000001,
ErAu4,0.0,-0.0661207,
TmBi,0.0,-0.0661167,
EuHg5,0.0,-0.06610890000000001,
SbPb3,0.0,-0.0661083,
Hf3Pb,0.0,-0.06609480000000001,
CePt2Au3,0.0,-0.066092,
ZnIr4Th,0.0,-0.0660896,
RbPb2Bi2,0.0,-0.0660886,
NdPt3Au2,0.0,-0.0660865,
EuHg2Tl,0.0,-0.0660792,
GaIr2U,0.0,-0.06607439999999999,
LaPt3Au2,0.0,-0.0660719,
SiPdPu2,0.0,-0.06607110000000001,
SiPtAc2,0.0534,-0.0660706,
Gd2HgPb,0.0,-0.0660657,
CeAu2Bi,0.0,-0.06606440000000001,
HoPt3,0.0,-0.0660626,
ErPt2Au,0.0,-0.06605899999999999,
HoPtPb,0.0,-0.0660568,
AsPu,0.0,-0.0660544,
SmAu2Bi,0.0,-0.0660541,
PrPt3Au2,0.0,-0.0660511,
Co2PbPu2,0.0,-0.0660477,
ErAuPb,0.0,-0.0660356,
SeBiTh,0.0,-0.0660325,
FePt2U,0.0,-0.0660232,
HoIrPb,0.0,-0.0660209,
CdPt2Ac,0.0,-0.06601789999999999,
SmPt2Pb,0.0,-0.066015,
GePtNp,0.0,-0.066003,
BaPtPb2,0.0,-0.0660029,
CdHg2Th,0.0,-0.0659996,
CePt2Pb,0.0,-0.0659988,
DyIr3,0.0,-0.0659935,
SiPt2Pu,0.0,-0.0659898,
Hf2Tl,0.0,-0.06598860000000001,
TbAu5,0.0,-0.0659733,
SmPb2,0.0,-0.0659679,
SiInPu2,0.0,-0.0659658,
ZnPt4Th,0.0,-0.0659619,
BaPt4Tl,0.0,-0.0659584,
BaHg2Pb2,0.0,-0.0659537,
SbPt5Tl,0.0,-0.0659516,
PmAu2Bi,0.0,-0.0659503,
RuTh,0.0,-0.0659476,
Lu2Au2Pb,0.0,-0.0659409,
ErHg2Pb,0.0,-0.0659397,
CePb2,0.0,-0.06593600000000001,
GeHgPu,0.0,-0.0659357,
EuAu3,0.0,-0.0659342,
TbAu2Pb,0.0,-0.0659328,
AgPbBi2,0.0,-0.0659281,
BaIrPb2,0.0,-0.0659268,
YPt8,0.0,-0.0659265,
SbHfTh,0.0,-0.0659044,
Pd2HgTh2,0.0,-0.0659041,
SiIrAc2,0.0,-0.0658983,
Lu2Pt2Tl,0.0,-0.0658934,
Lu3Au2Tl3,0.0,-0.0658916,
ScTl8,0.0,-0.0658902,
RhTh,0.0,-0.06588580000000001,
TmTl2,0.0,-0.06588290000000001,
LaAu4Tl,0.0,-0.0658826,
Ge2Th3,0.0,-0.0658788,
GdPt,0.0,-0.065878,
AsBrPu2,0.0,-0.06585550000000001,
NdAu2Bi,0.0,-0.06585200000000001,
NdPt2Au3,0.0,-0.06584780000000001,
Er3Pt2Pb3,0.0,-0.0658475,
BPt4U,0.0,-0.0658444,
HoAu4,0.0,-0.06584430000000001,
ZnPt2Np,0.0,-0.0658425,
CdPt8,0.0,-0.0658383,
CdPt5Bi,0.0,-0.0658378,
MgPbAc2,0.0,-0.0658363,
CuTlPu,0.0,-0.0658346,
CdAuTh,0.0,-0.0658319,
LaPt2Au3,0.0,-0.0658299,
CaPt2Pu,0.0,-0.06582640000000001,
TcW8,0.0,-0.0658254,
ZnAu2Pu,0.0,-0.06582009999999999,
TcOs5,0.0,-0.0658114,
PrPt2Au3,0.0,-0.06581050000000001,
EuPt2,0.0,-0.065807,
BaPtTl3,0.0,-0.0658064,
GaPt2U,0.0,-0.0658043,
LaAu2Bi,0.0,-0.0658027,
NiPt2Pb4,0.0,-0.0657945,
SmTl3,0.0,-0.06579009999999999,
PrAu2Bi,0.0,-0.0657894,
TcPt7,0.0,-0.06578919999999999,
CsAu2Pb2,0.0,-0.0657865,
Hf3Au2,0.0,-0.0657809,
ZrPt7,0.0,-0.06577889999999999,
NdPt2Pb,0.0,-0.0657776,
PmPt2Pb,0.0,-0.0657755,
Gd2IrPt,0.0,-0.0657737,
GdIr,0.0,-0.06576860000000001,
CeTl3,0.0,-0.0657684,
CoPt2U,0.0,-0.06576560000000001,
TbAu4Hg,0.0,-0.06576,
Hf2Re,0.0,-0.0657594,
MoOs5,0.0,-0.06575790000000001,
InPt7,0.0,-0.06575639999999999,
GePt2Pa,0.0,-0.06575109999999999,
InAu2Bi2,0.0,-0.0657393,
DyPt3,0.0,-0.0657389,
SbPt3Tl2,0.0,-0.0657387,
SnPb3,0.0,-0.0657364,
TmHgPb,0.0,-0.0657308,
TbIr3,0.0,-0.0657294,
RuW8,0.0,-0.0657291,
BaAu4Pb,0.0,-0.0657264,
NiPb5,0.0,-0.0657209,
TmIr2,0.0,-0.0657209,
RuOs5,0.0,-0.06571500000000001,
CdPbBi2,0.0,-0.0657108,
RuPt7,0.0,-0.0657095,
NdPb2,0.0,-0.0657076,
TmAu3,0.0,-0.065706,
TmHg5,0.0,-0.0657052,
GaAuPu,0.0,-0.0657049,
SiAuAc2,0.0,-0.06570229999999999,
HoPt2Au,0.0,-0.0657015,
AgAu2Ac,0.0,-0.0656996,
PmTl3,0.0,-0.065694,
LaPt2Pb,0.0,-0.0656925,
BaAuPb2,0.0,-0.06568739999999999,
Te2PbPu,0.0,-0.06567400000000001,
SmPtBi,0.0,-0.0656733,
EuAu2Hg,0.0,-0.06566570000000001,
CuPt2Pb4,0.0,-0.0656639,
TmOs2,0.0,-0.0656611,
LuAu2,0.0,-0.0656571,
LaHg8,0.0,-0.06565649999999999,
DyPtPb,0.0,-0.0656561,
TbAuBi,0.0,-0.0656527,
ScPb5,0.0,-0.0656482,
MgPt4U,0.0,-0.0656429,
AlTlAc2,0.0,-0.06563930000000001,
BaPt5,0.0,-0.0656328,
GdHg2,0.0,-0.0656302,
PrPb2,0.0,-0.06563,
InHg2Ac,0.0,-0.0656273,
DyIrPb,0.0,-0.0656241,
LaPb2,0.0,-0.0656221,
HoHg2Pb,0.0,-0.0656199,
RhPt7,0.0,-0.0656155,
HfHg,0.0,-0.0656143,
CePtBi,0.0,-0.06560980000000001,
SmAu5,0.0,-0.06560590000000001,
NdTl3,0.0,-0.0656058,
CsTl4,0.0,-0.06560540000000001,
BaAuTl3,0.0,-0.0656018,
DyAu4,0.0,-0.0655985,
HoAuPb,0.0,-0.065596,
AsIrU,0.0,-0.0655934,
CeAu5,0.0,-0.0655741,
CeIrBi,0.0,-0.0655636,
SbAu8,0.0,-0.06556010000000001,
LuPtHg,0.0,-0.0655552,
PrTl3,0.0,-0.0655532,
MnPt2Pa,0.0,-0.0655531,
FeBiPa,0.2161,-0.0655476,
GdOs,0.0,-0.0655465,
CdAu2Ac,0.0,-0.0655429,
TeAu8,0.0,-0.0655343,
LaRe4,0.0,-0.06553310000000001,
MgIr4Pa,0.0,-0.0655318,
LaTl3,0.0,-0.0655312,
AsTe3Th4,0.0,-0.0655298,
AlPt2Pu,0.0,-0.0655295,
KAu4Tl6,0.0,-0.0655228,
RhOs5,0.0,-0.0655171,
GdHoPb2,0.0,-0.0655089,
TeAu2Pb2,0.0,-0.06550700000000001,
Ag2TlTh2,0.0,-0.0655004,
GeTaPu,0.0,-0.0654926,
EuPb,0.0,-0.0654913,
SbAu5Pb,0.0,-0.0654893,
CsTl2Bi,0.0,-0.06548319999999999,
NdAu5,0.0,-0.0654703,
PmAu5,0.0,-0.0654675,
ErHg5,0.0,-0.065467,
SbAu2Pb2,0.0,-0.0654654,
AgHgTh,0.0,-0.0654631,
TmHg2Tl,0.0,-0.065455,
SrPb4,0.0,-0.0654529,
TbPt3,0.0,-0.06545229999999999,
BaTl2Pb,0.0,-0.06545010000000001,
AgTl5,0.0,-0.0654495,
SnAu8,0.0,-0.0654472,
SbTbPu,0.0,-0.0654431,
PrAu5,0.0,-0.06542690000000001,
LaAu5,0.0,-0.0654191,
GeAu2U,0.0,-0.06541519999999999,
BaPt2Tl2,0.0,-0.0654101,
Hf2Au,0.0,-0.06540689999999999,
ZrTl5,0.0,-0.0654059,
ErTl2,0.0,-0.0654052,
ErBi,0.0,-0.0654009,
SmAu4Hg,0.0,-0.06539619999999999,
GaIr2Pa,0.0,-0.0653945,
CeAu4Hg,0.0,-0.06538769999999999,
TmPt2,0.0,-0.0653862,
CoBiPa,0.0,-0.06538509999999999,
YPt7,0.0,-0.06538509999999999,
TbAu4,0.0,-0.0653832,
DyPt2Au,0.0,-0.0653819,
CrIr8,0.0,-0.0653818,
LaW2Os2,0.0,-0.0653787,
SmAu2Pb,0.0,-0.0653722,
Gd2PtAu,0.0,-0.0653715,
LuHg3,0.0,-0.0653711,
Gd2IrAu,0.0,-0.0653692,
MnIr8,0.0,-0.0653663,
NdPtBi,0.0,-0.0653656,
Rh2Ir3Pu,0.0,-0.0653601,
CsBi2,0.0,-0.06535880000000001,
CsHg2Pb2,0.0,-0.06535819999999999,
CeAu2Pb,0.0,-0.0653571,
CeHg2Bi,0.0,-0.0653463,
Ho3Pt2Pb3,0.0,-0.065344,
DyHg2Pb,0.0,-0.06534010000000001,
BaHgPb2,0.0,-0.06533929999999999,
Hf3Os,0.0,-0.0653387,
CdTl5,0.0,-0.0653334,
ErAu3,0.0,-0.0653308,
AlPtAc2,0.0,-0.0653306,
AsPtU,0.0,-0.0653302,
GeAuNp,0.0,-0.0653301,
PdPtBi2,0.0,-0.0653267,
ZnTlPu,0.0,-0.0653262,
AgPt7,0.0,-0.0653223,
SbPt5Hg,0.0,-0.0653209,