formula,bg,formation_energy,mp-id
Li2Cd2BaPb2,0.0,-0.037151,
MnGa2Tb6,0.0,-0.037149999999999996,
CdTe2Cs2,1.9703,-0.0371494,
Se2CsHg,0.0,-0.037149299999999996,
BCPdTh,0.0,-0.0371485,
AsPd6Bi,0.0,-0.037147599999999996,
Co3Ho2Os,0.0,-0.0371475,
BNLuIr,0.0,-0.0371472,
MgPd2Lu2,0.0,-0.0371471,
SbI,0.7586,-0.0371468,
YAg4Hg,0.0,-0.0371466,
CuPdHo2,0.0,-0.0371462,
Si2LuRe,0.0,-0.0371457,
ZrRh2Tb,0.0,-0.0371456,
Se3BaNdAu,1.0167,-0.0371452,
PRuHf,0.0,-0.037143999999999996,
Se2W,0.9915,-0.037143300000000004,
Ni2TeBi,0.0,-0.0371431,
Si2La2Pb,0.0,-0.0371429,
HI2Tm2,0.0,-0.0371422,
OS2Bi2,0.9368,-0.0371405,
BrSr2Bi,0.4977,-0.037140099999999995,
Rh3Ce,0.0,-0.037139899999999997,
Ni2As2Pu,0.0,-0.037137300000000005,
Rb2Au,0.0,-0.0371368,
Ge3EuIr,0.0,-0.037136,
CdSb2Cs4,0.7604,-0.0371357,
YInI6Cs2,2.1778,-0.0371352,
KSrBi,0.639,-0.037134799999999996,
ZnYHg,0.0,-0.0371343,
OZnPrBi,0.0688,-0.037132,
CSbHo2,0.0,-0.037131700000000004,
BeFeHf2,0.0,-0.037130899999999994,
SeIHo,2.0354,-0.0371295,
BRh3Pb,0.0,-0.0371294,
NMo3Pt,0.0,-0.0371286,
RhSn5Nd,0.0,-0.0371279,
PIDy2,0.0,-0.0371272,
Se3SnTb4,0.0,-0.037127099999999996,
GeSePt,0.6069,-0.0371266,
RhCd2Tm,0.0,-0.0371262,
RhSn5La,0.0,-0.037125399999999996,
NaSn2Ir,0.0,-0.0371247,
Ag3Eu,0.0,-0.0371243,
Rh2Sb2Ba,0.0,-0.037123399999999994,
N2Ce2Pt,0.0,-0.0371224,
FeTb2,0.0,-0.0371216,
GaTb2,0.0,-0.0371211,
MgCdPb,0.0,-0.037119900000000004,
CuGa2Pa,0.0,-0.0371191,
OInI4Ta,0.094,-0.0371187,
SI2Tb2,0.0,-0.0371187,
LiMgAu2,0.0,-0.0371186,
CdSnTe4Cs2,0.7964,-0.037117899999999995,
MnSb4La2,0.0,-0.0371166,
FHg,1.4594,-0.0371166,
Al3TmPt2,0.0,-0.037116500000000004,
NInEr2,0.0,-0.0371164,
NaSn2Pt,0.0,-0.037116300000000005,
MgDy3,0.0,-0.0371159,
CoIn3Hg,0.0,-0.0371154,
Ga2PrAu,0.0,-0.0371137,
Y3Pd2Hg,0.0,-0.0371128,
Al5Ir2Pu,0.0,-0.037112400000000004,
SiSc2Pt2,0.0,-0.0371113,
Cd4InHg,0.0,-0.0371099,
LiKHg2,0.0,-0.037109699999999995,
Se4RhU,0.0,-0.0371096,
CaRbBi,0.9243,-0.0371094,
Zn2DyPt,0.0,-0.0371091,
ZnZr2Pt,0.0,-0.0371087,
ZrPd2Ho,0.0,-0.037108600000000005,
NaAu,0.0,-0.037107999999999995,
ZnZr2Tl,0.0,-0.0371074,
C2CrPu,0.0,-0.037107,
Br2SnTm2,0.0,-0.037107,
Ni2LaIr,0.0,-0.0371064,
Si2NiPu,0.0,-0.0371041,
NiRh2Ho2,0.0,-0.0371038,
Co2CdTm3,0.0,-0.0371036,
Mg2DyAc,0.0,-0.037102800000000005,
ScCoBi,0.0,-0.0371026,
Ti2Bi,0.0,-0.0371025,
Ge2CsIr,0.5729,-0.0371022,
Se3BaPrAu,1.0236,-0.0371019,
AsSe3Er4,0.0,-0.0371017,
Co3Ta2,0.0,-0.0371016,
GeRu2Tb2,0.0,-0.0371012,
CuRh2Hf,0.0,-0.0371012,
Pd2Pr,0.0,-0.0371006,
Sn2Sb2Te5,0.0,-0.0371004,
CuTe4Nd2,0.0,-0.0371001,
NiRuDy2,0.0,-0.0370997,
CaIn2Au,0.0,-0.0370996,
NaRb2Au2,0.0,-0.0370995,
As2Rh2Pb,0.0,-0.037098799999999994,
BeAu,0.0,-0.0370975,
Y3In3Sn2Ir,0.0,-0.0370974,
RhSn5Pr,0.0,-0.0370973,
GeAgDy2,0.0,-0.0370963,
B2Ru3Pa,0.0,-0.0370959,
Co2ZnPa,0.0,-0.0370959,
GeRu3Dy2,0.0,-0.0370957,
Co2In5Er4,0.0,-0.0370952,
PdSn5Ce,0.0,-0.037094999999999996,
ScNiBi,0.1812,-0.0370948,
SiPdTa,0.0,-0.0370948,
Zn2DyIr,0.0,-0.0370947,
Ge2RuSn3Ho3,0.0,-0.0370939,
KCdTe2Au,1.2203,-0.0370929,
CoSn3Gd,0.0,-0.0370924,
Si2EuIr,0.0,-0.0370922,
Rh6Sb4Ho,0.0,-0.0370922,
Mg4CsBi3,0.5649,-0.0370921,
CIHo2,0.0,-0.037091500000000006,
Ga5IrU,0.0,-0.037090899999999996,
MnRu2Dy2,0.0,-0.0370907,
Rb2Te3Hf,0.7115,-0.0370907,
LiI4Pt,0.0,-0.0370906,
N2Sm2Pt,0.0,-0.037090200000000004,
CuDy2,0.0,-0.037090200000000004,
Se2AgPb,0.0,-0.0370899,
Pd2SnPr,0.0,-0.0370888,
Ge3Sm2Pt,0.0,-0.0370884,
ZrSb2Ba,0.0,-0.0370879,
CuTe3BaDy,0.3279,-0.037087499999999995,
Zr5Hg,0.0,-0.0370874,
MgCa2Bi2,0.0,-0.0370864,
SeEr,0.0,-0.037086100000000004,
CaI8Ba3,3.6423,-0.037086100000000004,
Sr2Pd3Pb,0.0,-0.037085,
Be2ZrOs2,0.0,-0.0370849,
ScTc2Hf,0.0,-0.0370843,
H3PtU,0.0,-0.0370843,
SrIn6Pt,0.0,-0.037084200000000005,
BNbAu,0.0,-0.03708379999999999,
CuPd2Er2,0.0,-0.03708379999999999,
Rh2InCe,0.0,-0.037082000000000004,
NiRhDy2,0.0,-0.0370814,
GaNd3,0.0,-0.0370812,
NiGe3Pu,0.0,-0.0370809,
ClSe3AgBi2,0.3949,-0.0370802,
FeSb4Nd2,0.0,-0.037079799999999996,
AgSnBa2,0.0,-0.0370795,
NaCs2Hg,0.0,-0.037078400000000004,
O4Pb3,0.9329,-0.037078099999999996,
Rh2InSm,0.0,-0.0370775,
AlCu2Pu,0.0,-0.037076,
Ga2LaAu,0.0,-0.0370755,
FeGa2Tb6,0.0,-0.0370751,
MgK2BaBi2,0.0976,-0.0370747,
LiIr,0.0,-0.0370741,
Sr2RhHg,0.0,-0.0370739,
Rh2CdDy,0.0,-0.0370738,
Be2PdPt2,0.0,-0.0370731,
FeSnLa3,0.0,-0.0370728,
C2FePu,0.0,-0.0370715,
TeI,0.6219,-0.0370706,
Se2InTl,0.4611,-0.0370705,
CSi2Pr2W2,0.0,-0.0370694,
AsPrSm,0.0,-0.0370679,
Al2RhTb6,0.0,-0.0370674,
OAsNdPt,0.0,-0.0370672,
MgTcRe,0.0,-0.037066499999999995,
YSbPr,0.0,-0.0370657,
Se3Cs3Bi,1.4294,-0.0370654,
Si2Tb2Hg,0.0,-0.0370652,
ZnRuHo2,0.0,-0.0370647,
Pd2La,0.0,-0.0370627,
CoGa2Tb6,0.0,-0.037060899999999994,
GeRh2Tb2,0.0,-0.0370608,
CuAg2Pt,0.0,-0.0370592,
RbTe2Tb,1.1129,-0.0370586,
Sc3Co2Tl3,0.0,-0.037058,
LiPd2Bi,0.0,-0.0370572,
SiI2Dy2,0.0,-0.0370565,
Mg2CsHg2,0.0,-0.0370558,
RuIn5Lu,0.0,-0.037055199999999996,
CuInHo2,0.0,-0.0370543,
Pd2SnLa,0.0,-0.0370543,
ScCd2Tl,0.0,-0.0370542,
P2RbPt2,0.0,-0.037053800000000005,
NTc3Pt,0.0,-0.037053800000000005,
BeRuRe,0.0,-0.0370529,
SrAgTe3Ho,0.6185,-0.0370529,
Zr6Sn2Ir,0.0,-0.037052,
Se2RhTl,0.0,-0.037051900000000006,
Al3Nd2Ir2,0.0,-0.037051600000000004,
Fe2Ge2Pu,0.0,-0.037051299999999995,
AlRh2Pt,0.0,-0.0370511,
SrI4Nd,0.0,-0.0370509,
RhIn5Lu,0.0,-0.03705,
CGe2Mo2U,0.0,-0.0370495,
Al3In2Lu3Os,0.0,-0.0370493,
O4SrI3Bi3,0.0,-0.037049,
GePd2Dy2,0.0,-0.0370486,
K2AgHg2,0.0,-0.0370485,
Ga5AuNp,0.0,-0.0370482,
Li2AuTl,0.0,-0.0370479,
B2RhTa2,0.0,-0.0370476,
GaAg2Au,0.0,-0.0370474,
GeMoLu,0.0,-0.0370465,
RhSnBa,0.0,-0.037046100000000005,
Sr2Ag2Pb,0.0,-0.03704590000000001,
Cu2SmTl,0.0,-0.0370458,
GeRh3Dy2,0.0,-0.0370458,
Al3Sn2Eu3Ir,0.0,-0.0370456,
GePd6Bi,0.0,-0.037045499999999995,
SePd6Bi,0.0,-0.0370448,
PdSn5Sm,0.0,-0.037044600000000004,
ZnIn2Hg,0.0,-0.0370445,
ZnRhHo2,0.0,-0.0370442,
S4SrPb3,0.7577,-0.0370442,
BAl2TmOs2,0.0,-0.037043799999999995,
Pd2Sn2Nd,0.0,-0.037042900000000004,
Ge2PdIn3Tm3,0.0,-0.037042900000000004,
CuAsPb,0.0,-0.0370428,
FeGa2Th,0.0,-0.037042200000000004,
Cu3Pd2Pu,0.0,-0.037042099999999994,
BeTe2Hg,1.1107,-0.0370418,
Ge2RhSn3Ho3,0.0,-0.0370414,
AgInI6Cs2,0.0,-0.0370412,
OAsLaPt,0.0,-0.037040500000000004,
InBa,0.0,-0.037040300000000005,
B4Ca2Pt5,0.0,-0.037040199999999995,
Si2EuOs,0.0,-0.0370396,
Li3EuBi2,0.0,-0.0370391,
Cd2InCe2,0.0,-0.037038400000000006,
In5SnBa5,0.0,-0.0370377,
TiRbTe3Au,0.0,-0.037036900000000005,
CoZr2Hg,0.0,-0.037036900000000005,
MgPd2Pb,0.0,-0.0370364,
SiRu3Tm2,0.0,-0.037036,
Ag4Gd,0.0,-0.037036,
P2RbRe2,0.0,-0.037034399999999995,
YRu2Ho,0.0,-0.037034399999999995,
Be2TeAu2,0.0,-0.0370337,
Ge3EuPt,0.0,-0.037032499999999996,
HPd2Bi,0.0,-0.037031999999999995,
Pd2CdHo,0.0,-0.0370319,
Ge3EuOs,0.0,-0.0370308,
AsPd5Tl,0.0,-0.0370299,
TiTe4Tm,0.0,-0.0370298,
BPd3Bi,0.0,-0.0370296,
Al5Pt2Pu,0.0,-0.0370291,
Ge2CsPt,0.0,-0.037028799999999994,
YRh2La2,0.0,-0.0370287,
Ag2InEr,0.0,-0.0370285,
NHo2,0.0,-0.0370274,
Li2IrPt,0.0,-0.0370268,
BNFePu,0.0,-0.0370259,
Ni2LaPt,0.0,-0.0370257,
BNMnPu,0.0,-0.0370252,
LiP2TmPt2,0.0,-0.0370247,
Sc3AgIr2,0.0,-0.0370246,
Fe2AsAc,0.0,-0.0370244,
Br4Pa,0.0,-0.037024299999999996,
MnY6Tl2,0.0,-0.0370241,
Be2SbAu2,0.0,-0.0370235,
NaCu2YBi2,0.0,-0.0370223,
ClInHg,0.0,-0.0370223,
Co2GaTa2,0.0,-0.037021700000000005,
Se6MoTe2W3,0.5565,-0.037021500000000006,
NiILu,0.0,-0.037020899999999995,
AlZrRuOs,0.0,-0.0370208,
YSbLa,0.0,-0.0370187,
NbRu2Sm,0.0,-0.0370185,
FIHg,1.1352,-0.037018,
SrI4Pr,0.0,-0.037017,
Sn2Sb2Cs,0.0,-0.0370161,
Ag2SnDy,0.0,-0.0370153,
MnNi2Th,0.0,-0.0370147,
AlFe2U,0.0,-0.037014200000000004,
CoTb2,0.0,-0.037013800000000006,
PMoHf,0.0,-0.0370135,
Br2TePt,0.3344,-0.037013399999999995,
KIn2Tl,0.0,-0.0370121,
N2Sn3Nd7,0.0,-0.0370113,
ZnAg2Dy3,0.0,-0.037011,
Mn2AsAc,0.0,-0.0370102,
Rh2Te2Ba,0.0,-0.0370099,
Be2TaRe,0.0,-0.037009799999999995,
Ag2InPr2,0.0,-0.037009099999999996,
PZrTa,0.0,-0.0370088,
Co2GaTh,0.0,-0.0370083,
Cd2Ho,0.0,-0.037008,
O2S3YU2,0.0,-0.0370077,
CRu2Sn2Tm2,0.0,-0.0370075,
Pd4Er,0.0,-0.037007399999999996,
Sn4Ba,0.0,-0.037006700000000003,
LiGe2Ir2,0.0,-0.0370064,
Pd2Sn2La,0.0,-0.0370045,
Pd2Sn2Pr,0.0,-0.0370039,
Zr6Sn2Os,0.0,-0.0370032,
AsBrPt,0.4297,-0.0370032,
PS3Tl3,0.4624,-0.037003100000000004,
NiGa2Tb6,0.0,-0.037003100000000004,
ScAs2Hf2,0.0,-0.037002400000000005,
ScAg2Au,0.0,-0.0370017,
AgBa2,0.0,-0.0370015,
Se2IPt,0.0,-0.0370002,
LiPdLu2,0.0,-0.0369996,
SeBrPt,0.0,-0.0369981,
RhSn2Ba,0.0,-0.0369976,
LiPt,0.0,-0.036997,
GeTeTm,0.0,-0.0369968,
Zr6Sn2Pt,0.0,-0.0369955,
CuCd2Tl,0.0,-0.0369952,
NiIn3Hg,0.0,-0.036994900000000004,
CSi2La2W2,0.0,-0.0369943,
OAsPrPt,0.0,-0.0369941,
PdI3Cs,0.0,-0.0369936,
CoSb4Nd2,0.0,-0.0369928,
CoSnLa3,0.0,-0.0369926,
FeRu2Dy2,0.0,-0.0369909,
OAs2BaHf2,0.0,-0.0369906,
SiRh2Hg,0.0,-0.0369901,
GaPdDy2,0.0,-0.0369897,
Ti3In3Ir2,0.0,-0.036988999999999994,
RhIn2Sm,0.0,-0.036988799999999995,
Rh6Sb4Dy,0.0,-0.0369887,
Co3Th,0.0,-0.0369884,
AsLaSm,0.0,-0.0369882,
Si2EuPt,0.0,-0.0369873,
SnTe3,0.0,-0.036986899999999996,
Zn2In5Tm4,0.0,-0.0369868,
BrTeHo,1.1117,-0.0369867,
Na3HoBi2,0.0,-0.0369861,
ScCd2Pt,0.0,-0.0369839,
BrTm,0.0,-0.0369839,
Ga3Sn2Sm3Ir,0.0,-0.036983800000000004,
CAl2Ge2Th2,0.0,-0.036983800000000004,
Mn3Tb2Os,0.0,-0.0369835,
HClTh,0.0,-0.036983199999999994,
GeTe4Er,0.0,-0.0369831,
CoNd3,0.0,-0.0369829,
NCoLa2Hg,0.0,-0.0369829,
Ag7La6,0.0,-0.036982100000000004,
AsCsEr,0.0,-0.036981499999999994,
CoPdDy2,0.0,-0.036981099999999996,
Se4MoTe2W2,0.6517,-0.03698,
S4Cs2Pt3,1.5556,-0.036979399999999996,
SiRh3Tm2,0.0,-0.0369792,
Y2La3,0.0,-0.0369784,
GaPd2Hf,0.0,-0.0369782,
LiTe2Au,0.0,-0.0369781,
ZnPdHf,0.0,-0.036976999999999996,
Li2RbBi2,0.0,-0.0369764,
Ga2RuNd6,0.0,-0.0369749,
B2Rh2Pa,0.0,-0.0369743,
Pd7Hf,0.0,-0.0369721,
P2NbHf2,0.0,-0.0369715,
PZr2Tl,0.0,-0.0369707,
LiNi2Sb2Pu,0.0,-0.0369706,
GaZr2Hg,0.0,-0.0369701,
Ga5PtU,0.0,-0.0369699,
PAsLu2,0.0,-0.0369699,
AlRh2W,0.0,-0.0369696,
GaAgHo2,0.0,-0.0369691,
Al3ErIr2,0.0,-0.0369689,
Cd5Au,0.0,-0.0369688,
Zn2HoAu,0.0,-0.0369682,
GaSb3Ce2,0.0,-0.0369668,
Se2ZrTl,0.0,-0.0369662,
P2CaPb2,0.0,-0.0369654,
FeY6Tl2,0.0,-0.036965200000000004,
PSrPb,0.0,-0.036965000000000005,
Al3Hf2Au,0.0,-0.0369638,
Br2InTl,1.2291,-0.0369632,
Si2RuHf2,0.0,-0.0369627,
KTe2Gd,0.7787,-0.0369616,
AlZrRhIr,0.0,-0.0369612,
Na2AgTl2,0.0,-0.0369591,
N2Y7Tl3,0.0,-0.036959000000000006,
GaPd2Ho2,0.0,-0.0369589,
CdSnBa2,0.0,-0.0369581,
PdCd2Tm,0.0,-0.0369574,
MgPr5,0.0,-0.036957000000000004,
PRhHf,0.0,-0.036956699999999995,
Ga3Ge2Lu3Ir,0.0,-0.0369559,
Al3Pr2Ir2,0.0,-0.036955800000000004,
Sr2CdPt,0.0,-0.0369557,
N2GdHf,0.0,-0.0369544,
TiSbLu,0.0,-0.036953400000000004,
AsEr,0.0,-0.0369533,
AgTeBa,0.0,-0.0369533,
GeZrGd,0.0,-0.0369525,
RhInBa2,0.0,-0.036952399999999996,
AlPd2Eu2,0.0,-0.0369518,
MgSbHg,0.0,-0.036951700000000004,
Sr2PdHg,0.0,-0.036950899999999995,
RuIn2Sm,0.0,-0.0369504,
Sc3RuAu2,0.0,-0.036949800000000005,
Sc3Ni2Tl3,0.0,-0.0369495,
Zn2AgHf2,0.0,-0.0369494,
MgInTl,0.0,-0.0369487,
Cd3Lu,0.0,-0.0369483,
Ga3Ho2Re,0.0,-0.0369478,
Ag2InLa2,0.0,-0.036947600000000004,
FeGe2Hf2,0.0,-0.0369472,
CSi2ErW2,0.0,-0.0369471,
ZrTe3Cs,0.0,-0.036945700000000005,
MgIn2Lu2,0.0,-0.036945099999999995,
AgInSm,0.0,-0.0369444,
CoGa2Th,0.0,-0.0369443,
MgPd2Ho3,0.0,-0.0369441,
AgSbBa,0.0,-0.0369441,
N6Mn2Pa3,0.0,-0.0369437,
MgInPt,0.0,-0.0369437,
RuSb2Te,0.0,-0.0369425,
CI2Dy2,0.2293,-0.036942300000000004,
NZr2Tl,0.0,-0.036941499999999995,
NiCd2Pt,0.0,-0.0369394,
N6Cr2Pa3,0.0,-0.0369393,
PZr2Ir,0.0,-0.0369391,
NMoHf,0.0,-0.036939,
Mg2InAu2,0.0,-0.036938200000000004,
P2Rb3Au3,1.2287,-0.0369376,
KRhTe3Hf,0.0,-0.0369376,
CuRu2Ho2,0.0,-0.036937399999999995,
NCdTb3,0.0,-0.036937199999999996,
Se5Sn2Bi2,0.0342,-0.0369371,
LiP2ErIr2,0.0,-0.0369364,
Y4Tl,0.0,-0.0369364,
AgSb2Ba,0.0,-0.036936,
CaRh4Pb,0.0,-0.036934800000000004,
Rh2InPm,0.0,-0.0369347,
Ga2RhNd6,0.0,-0.0369334,
Co2PdEr3,0.0,-0.0369329,
Br2SbEr2,0.0,-0.036932,
Ga3Sn2Sm3Os,0.0,-0.0369317,
PdSn5La,0.0,-0.0369311,
Rh3Sn2Sm,0.0,-0.0369308,
CrGe2Hf2,0.0,-0.0369298,
MgIn2Pb,0.0,-0.0369296,
Ge2PmHf,0.0,-0.0369294,
GeSe4Bi2,0.1924,-0.0369292,
PdSnBa,0.0,-0.0369291,
AlRu2Ta,0.0,-0.036928800000000005,
Ga6RbPt4,0.0,-0.036927999999999996,
ScRbTe3Au,0.0,-0.0369279,
Ag2CdEu,0.0,-0.0369274,
LiInLu2,0.0,-0.036927100000000004,
AgIn2Dy,0.0,-0.0369264,
CMo2Sn2Tm2,0.0,-0.036926299999999995,
As2RhTm2,0.0,-0.0369258,
CoSb2Eu,0.0,-0.036925400000000004,
K2CdHg2,0.0,-0.036924599999999995,
NaSbHg,0.0,-0.036924399999999996,
C3Nd2W2,0.0,-0.036924399999999996,
ScCe3,0.0,-0.036924,
CoY6Tl2,0.0,-0.0369232,
MgHg,0.0,-0.0369223,
Sc3Sn3Au2,0.0,-0.0369221,
NCuTm3,0.0,-0.0369216,
Si2TcHf2,0.0,-0.0369216,
Zn2Nd2Hg,0.0,-0.0369214,
CaCd2Pb,0.0,-0.036921300000000004,
CuTe3BaTb,0.327,-0.0369206,
SrBaLa2,0.0,-0.036919400000000005,
CoAgHo2,0.0,-0.0369184,
NaSnAu,0.0,-0.0369182,
AgCdDy,0.0,-0.0369178,
Cr2AsAc,0.0,-0.036917700000000005,
Se4CdSnTl2,0.4536,-0.0369175,
Y4Pt,0.0,-0.0369166,
GaRh2Dy2,0.0,-0.0369157,
Ca2GeIr2,0.0,-0.036914999999999996,
CoSb4La2,0.0,-0.036913800000000004,
B2CErIr2,0.0,-0.0369137,
NNb2Au,0.0,-0.036913299999999996,
Rh5Er,0.0,-0.036912799999999996,
Rh2PdCe,0.0,-0.036912799999999996,
LiSbAu,0.0,-0.0369118,
MgNbOs,0.0,-0.036911700000000006,
LiNa2Au3,0.0,-0.036911700000000006,
Se2MoTe2W,0.6291,-0.0369112,
AlTcTa,0.0,-0.0369103,
N2Ga3Tm7,0.0,-0.036910200000000004,
GaRu2Dy2,0.0,-0.0369098,
Si2Sm2Tl,0.0,-0.036909700000000004,
LiI4Au,0.565,-0.0369093,
Sr2AgAu,0.0,-0.036909,
Mg2CdPt2,0.0,-0.0369084,
P2PdHf2,0.0,-0.036907800000000004,
Al3La2Ir2,0.0,-0.0369076,
Ga3Ge2Lu3Os,0.0,-0.0369072,
CaSc2Pt2,0.0,-0.0369058,
Na2SnAu2,0.0,-0.0369057,
SnI2,1.6033,-0.036905,
AlTcTm2,0.0,-0.0369029,
Ge2PdSn3Ho3,0.0,-0.036902500000000005,
YAgI6Cs2,2.4633,-0.0369021,
HIPt,1.1469,-0.0369013,
Sc2ZnAu2,0.0,-0.036901,
ZnY2Pb,0.0,-0.036900100000000005,
AlI3Sm3,0.0,-0.036900100000000005,
Ca2GePt2,0.0,-0.0368999,
Cu2PmTl,0.0,-0.0368996,
AlRh2Tm2,0.0,-0.0368991,
Rh6Sb4Tb,0.0,-0.0368991,
Na2SrPb2,0.0,-0.0368979,
Be2ZrPt2,0.0,-0.036897799999999994,
Si3Tm5,0.0,-0.036896700000000004,
LiSnPt,0.0,-0.0368941,
PZr2Pt,0.0,-0.0368937,
RhSn3Ba,0.0,-0.0368934,
B2NbTa2,0.0,-0.0368931,
TeI2,0.6076,-0.036892299999999996,
NiTb2,0.0,-0.036892,
O4PbNp,0.0,-0.0368905,
CuZr2Au,0.0,-0.0368903,
ZnRh2Hf,0.0,-0.0368896,
CZr3Bi,0.0,-0.036888399999999995,
Al3LuAu2,0.0,-0.036887,
Ca3Cu2Zn2Bi4,0.0,-0.036886800000000004,
ZnZr2Re,0.0,-0.0368855,
ZnCe3,0.0,-0.036884900000000005,
NiSn6Dy2,0.0,-0.036884099999999996,
RuTe2,0.322,-0.036884,
C2AlHf3,0.0,-0.0368839,
Sc3CdIr2,0.0,-0.0368836,
Co2Ge2Pu,0.0,-0.0368814,
SnTe2,0.0,-0.036881300000000006,
NaCa2Bi2,0.0,-0.036880699999999995,
ZnTcHo2,0.0,-0.03688,
NSnCe3,0.0,-0.0368799,
NiNd3,0.0,-0.036879800000000004,
GaPr3,0.0,-0.0368794,
O2ZnI2Pb2,2.1305,-0.036878999999999995,
KInHg,0.0,-0.0368789,
PdIn5Lu,0.0,-0.0368787,
C2CoPu,0.0,-0.0368778,
LiAlHg2,0.0,-0.036877299999999995,
GaPdGd,0.0,-0.0368772,
ScZr2Re,0.0,-0.036877,
AlY6Pb2,0.0,-0.0368762,
Ni2RuEr3,0.0,-0.036875700000000004,
NaTe2Ta,0.4507,-0.036875399999999996,
RhSb3,0.0,-0.036875399999999996,
Ni2Te3Pb,0.0,-0.0368753,
RuSn3Ba,0.0,-0.036873600000000006,
SnI4,0.7261,-0.0368733,
Al3ErPt2,0.0,-0.0368729,
NSnSm3,0.0,-0.0368728,
SrAg4Tl,0.0,-0.0368726,
RhCdSm,0.0,-0.0368716,
Zn2TbIr,0.0,-0.0368705,
NiY6Tl2,0.0,-0.0368691,
AlRu2Tm2,0.0,-0.036868200000000004,
GeAsRe,0.0,-0.036868000000000005,
Al2SrIr2,0.0,-0.0368678,
Sc3AgPt2,0.0,-0.0368674,
CaAgHg,0.0,-0.036866,
FeNi2Th,0.0,-0.0368658,
Pd8Ta,0.0,-0.0368652,
RhBa,0.0,-0.0368649,
Mo6Te6Ba,0.0,-0.036862900000000004,
NSiEu3,0.0,-0.0368628,
SrAgTe3Dy,0.6141,-0.036862400000000003,
ScSm3,0.0,-0.0368617,
CaGa2Au2,0.0,-0.0368616,
CoGe2Hf2,0.0,-0.036861,
Al2SrPt2,0.0,-0.036859699999999995,
ZnPd5Bi,0.0,-0.036859,
Sc3AgOs2,0.0,-0.036858800000000004,
Ga3Ge2Lu3Pt,0.0,-0.036857999999999995,
KGa2Pt2,0.0,-0.0368579,
AsRhEu,0.0,-0.0368579,
N2TiNp,0.0,-0.0368577,
GePd5Tl,0.0,-0.0368576,
Se2IRe,0.0,-0.036856900000000005,
Zr3Lu,0.0,-0.0368568,
SrY2Hg,0.0,-0.0368567,
SiPd2Tm2,0.0,-0.0368566,
AgInCe,0.0,-0.036856299999999995,
Ag2Tb,0.0,-0.0368558,
SiRh2Ta,0.0,-0.0368557,
SePd5Tl,0.0,-0.0368539,
CSbSm3,0.0,-0.0368539,
AlSc2Ir2,0.0,-0.0368537,
Fe3Tb2Ir,0.0,-0.0368532,
Si2RhHf2,0.0,-0.036852499999999996,
TiAsIr,0.8889,-0.0368524,
AsNd2,0.0,-0.0368522,
RuSbTe,0.6669,-0.0368517,
NaCu2Sb2Pu,0.0,-0.0368512,
Mg2TbAc,0.0,-0.0368507,
RhIn5Eu,0.0,-0.0368496,
Ag7Pb,0.0,-0.036848799999999994,
SrIn6Au,0.0,-0.036848599999999995,
GeSe3Er4,0.0,-0.036848399999999996,
Ru3Te8,0.0,-0.036848,
Zn2TbPt,0.0,-0.0368471,
Fe2SnLu2,0.0,-0.0368454,
CuSb2Lu,0.0,-0.036844999999999996,
Sn3Te4,0.0,-0.0368448,
ZnPd2Er2,0.0,-0.0368447,
Ga3Dy2Ir,0.0,-0.0368447,
BeRhIr,0.0,-0.0368442,
InSb2Te4,0.0,-0.036843400000000005,
AsRbHg,0.0,-0.036843,
Se2Mo2Te4W,0.7688,-0.0368422,
Pd2Te2Ba,0.0,-0.0368421,
RuIn5Eu,0.0,-0.036841099999999995,
Zn3BaAu2,0.0,-0.036841099999999995,
K3Bi2,0.0,-0.036841,
PdIn4Tm,0.0,-0.0368408,
NiPd2Hf,0.0,-0.0368393,
SiRuHf,0.0,-0.036836799999999996,
CoSe2Sm6,0.0,-0.0368364,
MgInIr,0.0,-0.0368362,
LiI2Au,1.4605,-0.0368362,
RhAg2Ho,0.0,-0.036835599999999996,
SrSn2La2,0.0,-0.0368349,
OIGd,2.2674,-0.0368343,
OCuTm3,0.0,-0.0368343,
Ni2CdTm3,0.0,-0.036834000000000006,
GePdLu,0.0,-0.0368337,
Cu3Au2,0.0,-0.0368335,
N2Sn3Pr7,0.0,-0.0368331,
SnI3,0.0,-0.0368327,
Co2As2Np,0.0,-0.0368321,
Si2In3Sm3Ir,0.0,-0.036831499999999996,
S2HoTl,1.3985,-0.0368314,
S3BaNp,0.0,-0.0368311,
Rh7Lu,0.0,-0.0368302,
Si2MoHf2,0.0,-0.0368296,
Ge2Os,0.0,-0.0368287,
Rh3Pd3Ce2,0.0,-0.0368283,
Na2CdTl2,0.0,-0.0368281,
Se4CdTl2,0.0257,-0.0368278,
Co2Sn7Er3,0.0,-0.036827599999999995,
MgYPb,0.0,-0.036826300000000006,
SrCd4Pb,0.0,-0.036826300000000006,
Ga2SrAc,0.0,-0.036825899999999995,
Al3Sn2Eu3Au,0.0,-0.0368245,
N2In3Sm7,0.0,-0.036824300000000004,
KPdTe3Hf,0.0,-0.036824199999999994,
ZrTe2Cs,0.0,-0.0368225,
CY2Bi,0.0,-0.036822,
CaI4Eu,0.6195,-0.0368218,
CuRuDy2,0.0,-0.0368214,
CaYIr,0.0,-0.0368213,
Sn5Ba,0.0,-0.0368202,
Ge2In3Ba3Au,0.0,-0.0368194,
B2HfTa,0.0,-0.0368192,
S4NbTl3,2.1864,-0.0368185,
Pd2SnBa2,0.0,-0.0368177,
NOSn2Sm6,0.0,-0.0368162,
Ga3Dy2Os,0.0,-0.0368157,
CdSb2Ba,0.0,-0.036814900000000005,
Pd2Sb2Ba,0.0,-0.036814900000000005,
Ge3Nd2Pt,0.0,-0.0368135,
O2TmTl,1.349,-0.0368131,
C3Pr2W2,0.0,-0.036812899999999996,
LiSnIr,0.0,-0.0368127,
MnSb2Tm,0.0,-0.0368126,
Al3Si2Np2,0.0,-0.036809800000000004,
Al2PdTh,0.0,-0.0368094,
Zn2Pr2Hg,0.0,-0.0368094,
Se2I6Pt,0.5332,-0.0368092,
Ga3Th,0.0,-0.0368092,
Na2InPt2,0.0,-0.0368091,
LiTeAu,0.0,-0.0368087,
PdSn2Ba,0.0,-0.0368068,
ZnAgEr2,0.0,-0.0368066,
NI2Tb2,0.0,-0.0368048,
NbTe5,0.0,-0.036804699999999996,
BAl2ErOs2,0.0,-0.0368044,
P4Re3,0.0,-0.0368037,
MgInEu2,0.0,-0.036802100000000004,
Rh3Sn2Nd,0.0,-0.036801499999999994,
O3BaPu,0.0,-0.036801,
NAlHf2,0.0,-0.036801,
NaAs2Au2,0.0,-0.0368006,
Zn2ZrHf2,0.0,-0.0368005,
SeTe2Dy,0.0,-0.036800400000000004,
Na2AuHg,0.0,-0.0368001,
SiNi2U,0.0,-0.0368,
CuRhDy2,0.0,-0.0367989,
Na3DyBi2,0.0,-0.0367984,
YSn2Ce,0.0,-0.036797800000000006,
N2LuTa,0.0,-0.036797800000000006,
AlZrAu,0.0,-0.0367975,
NaRhTl,0.0,-0.0367973,
Be2TcW2,0.0,-0.0367973,
Si5Tb2Ir3,0.0,-0.0367971,
Li2InTl2,0.0,-0.036795299999999996,
KAgTe3Ta,0.0,-0.036794600000000004,
Rh2CdTb,0.0,-0.0367942,
Zn3Np,0.0,-0.0367929,
Zn2CdHf2,0.0,-0.0367924,
ZrPd2Dy,0.0,-0.0367921,
MgLa5,0.0,-0.0367916,
B2Ni7U3,0.0,-0.0367913,
Ti3In3Pt2,0.0,-0.0367912,
KIn2Pt,0.0,-0.0367912,
O2LuAu,2.3874,-0.036791,
Cu2GaPa,0.0,-0.0367907,
CdBa2,0.0,-0.0367899,
SnTe,0.1694,-0.0367897,
CuI6Cs2Nd,1.8782,-0.0367889,
Rh2InNd,0.0,-0.036788600000000005,
ZnPdHo2,0.0,-0.036788400000000006,
ScTiBi,0.0,-0.0367881,
GePd2Gd,0.0,-0.0367877,
Ge2Ir,0.0,-0.036786900000000004,
CuAg2Au,0.0,-0.036786900000000004,
NiGa2Th,0.0,-0.0367868,
Ga2RuPr6,0.0,-0.0367862,
SrTe2La,0.0,-0.036785899999999996,
Ga3Pd2U,0.0,-0.0367853,
Ca2SrAu2,0.0,-0.036784199999999996,
TcSb5,0.0,-0.0367839,
PdIn2Sm,0.0,-0.0367835,
LiP2ErPt2,0.0,-0.0367822,
Si2In3Sm3Pt,0.0,-0.036781999999999995,
FeAs2Sm6,0.0,-0.0367815,
NZr2Pt,0.0,-0.03678,
F2Se2Hg3,1.5433,-0.036779400000000004,
SiPd3Eu2,0.0,-0.036778399999999996,
Rh4InHo,0.0,-0.0367755,
As2SbAu,0.0,-0.0367749,
NiSrPt,0.0,-0.0367744,
RuSb2,0.0277,-0.0367722,
NiSb2Eu,0.0,-0.036770899999999995,
RhIn2Nd,0.0,-0.0367699,
OAs2Cs2Hf2,0.0,-0.0367694,
Ag2CdSm2,0.0,-0.0367686,
As2PdTm2,0.0,-0.0367684,