formula,bg,formation_energy,mp-id
PW,0.0,-0.040385,
MgRh2Hf2,0.0,-0.0403849,
NiPd2Tm3,0.0,-0.0403846,
In2SmDy,0.0,-0.0403841,
Co2GaPu,0.0,-0.0403839,
Sn2LaPr,0.0,-0.0403838,
CGe2La2Ir2,0.0,-0.0403836,
CuPdLu2,0.0,-0.040383499999999996,
Cu2Zn2Sr3Bi4,0.0,-0.0403829,
NGaTa2,0.0,-0.0403817,
In5NdAu,0.0,-0.0403808,
Ge2MoHf2,0.0,-0.040379399999999996,
GeTeHf,0.0,-0.040378300000000006,
InLa2,0.0,-0.040377899999999994,
P2ITl2,0.0,-0.040377699999999996,
Rh2In5Er4,0.0,-0.0403752,
Li2CsBi2,0.0,-0.0403734,
Pd2InHo2,0.0,-0.040372700000000004,
As2RuTb6,0.0,-0.040372,
NiRuPt,0.0,-0.0403697,
BGa2LuOs2,0.0,-0.0403686,
FClTl2,2.8503,-0.040368299999999996,
AgSnTm,0.0,-0.0403681,
Sn2Sb2Eu,0.0,-0.0403678,
LiIn2Ac,0.0,-0.040366900000000004,
NOSn2Er6,0.0,-0.0403646,
AlLaHg,0.0,-0.0403644,
InTeLa2,0.0,-0.040364,
Al3CoLu3Pb2,0.0,-0.0403639,
ScInIr,0.0,-0.0403636,
SiMo3Hf2,0.0,-0.040363500000000004,
Br2SbGd2,0.0,-0.040363500000000004,
CoTe2Au,0.0,-0.0403621,
Ga2InHg2,0.0,-0.0403618,
PCaAu2,0.0,-0.040360999999999994,
Rh2Sn3Tb3,0.0,-0.040360799999999995,
KTe3TbAu,0.0,-0.04036,
SrSn3Au,0.0,-0.0403596,
N2ReTl,0.0,-0.040359099999999995,
FeI3Tl,0.0,-0.0403569,
Sn3Tm,0.0,-0.0403561,
LiPr2Os,0.0,-0.0403554,
BeZnPt2,0.0,-0.0403542,
B4LaIr4,0.0,-0.0403534,
Si2PdNp,0.0,-0.0403527,
NbSnEr,0.0,-0.040352400000000004,
Ru3Dy2,0.0,-0.040352400000000004,
Ru2In5Er4,0.0,-0.0403518,
CSbLu2,0.0,-0.040351700000000004,
Co2PdTa2,0.0,-0.0403512,
ScTe2Au,0.1012,-0.0403511,
Al2Tm3Hg,0.0,-0.0403508,
In2CeDy,0.0,-0.0403505,
BSnTm3,0.0,-0.040349699999999995,
ZnRu2Tm3,0.0,-0.040349499999999996,
Ge2In3Ho3Pt,0.0,-0.0403482,
In5PrAu,0.0,-0.0403477,
Ni2TmPb,0.0,-0.0403467,
N2In3Er7,0.0,-0.0403465,
In2LaHo,0.0,-0.040345799999999994,
CaRb2CdBi2,0.0433,-0.0403457,
In5LaAu,0.0,-0.0403457,
Sc2CdAu2,0.0,-0.0403452,
RuAgTb2,0.0,-0.0403449,
In9CsIr2,0.0,-0.040344200000000004,
NiRhIr,0.0,-0.0403441,
As2RhTb6,0.0,-0.0403428,
Ge6BaIr4,0.0,-0.0403425,
Ge2Ru3Th,0.0,-0.0403417,
Ge2In3Ho3Os,0.0,-0.0403416,
Ga2Lu3,0.0,-0.0403413,
MnZr6Bi2,0.0,-0.0403408,
MgScAu2,0.0,-0.040340600000000004,
Ag2CdHg,0.0,-0.04034,
Ge2Nd2Tl,0.0,-0.0403399,
Te3Cs2Tb,0.0,-0.040339799999999995,
RuITb,0.0,-0.0403397,
SnTeCe,0.0,-0.0403394,
AlZnAu2,0.0,-0.0403392,
B2TcPu,0.0,-0.040339,
BRh6Pb2,0.0,-0.0403388,
FeIn5Th,0.0,-0.0403386,
RhBaLa2,0.0,-0.0403386,
SiBaAu,0.0,-0.0403384,
B2CaIr3,0.0,-0.0403384,
PdIn2Gd,0.0,-0.040338299999999994,
C2GeTa3,0.0,-0.0403374,
AgSm2,0.0,-0.0403359,
AgCdHo2,0.0,-0.0403357,
Ge2HoOs,0.0,-0.0403356,
B3ZnIr4,0.0,-0.0403353,
Ag4BaPb,0.0,-0.040333100000000004,
Mg2TlBi,0.0,-0.040332900000000005,
Sr2Sb2Bi,0.0,-0.0403324,
Sc2ZrAu2,0.0,-0.0403316,
Br3HgTl,0.0,-0.0403313,
Ge2RhHf2,0.0,-0.0403309,
NiTm2,0.0,-0.04033080000000001,
NaCu2DyBi2,0.0,-0.0403296,
Na3Sn4Ir4,0.0,-0.0403294,
CuTe2Sm6,0.0,-0.040329000000000004,
LiNiIr2,0.0,-0.040326799999999996,
Ca2LaHg2,0.0,-0.0403265,
SiNiTa2,0.0,-0.040325,
LiSr2Pb2,0.0,-0.0403248,
CaZrBi,0.0,-0.040324599999999995,
NAlInPb2,0.0,-0.0403242,
ZnRh2Tm3,0.0,-0.0403224,
CaTe3NdAu,0.383,-0.040321199999999995,
PBa2Hg,0.0,-0.0403204,
O4TaTl3,2.3235,-0.0403197,
RhAgTb2,0.0,-0.040319299999999995,
RuBaLa2,0.0,-0.0403188,
Rh2SnTb2,0.0,-0.0403184,
CuSb2Pt,0.0,-0.0403184,
MgCeAu,0.0,-0.0403183,
FeZr6Bi2,0.0,-0.0403163,
RuSbLa2,0.0,-0.040315800000000006,
H2Tm3Pb,0.0,-0.0403156,
SnTeSm,0.0,-0.0403146,
ScPd2Bi,0.0,-0.0403128,
Al3RhHo3Pb2,0.0,-0.0403128,
ZnRuLu2,0.0,-0.0403125,
RuSb2Ho,0.0,-0.0403123,
S2IrAu,0.9911,-0.0403117,
GaZrPt,0.0,-0.0403117,
CaCd3Au2,0.0,-0.040311599999999996,
Na3Sn4Pt4,0.0,-0.040311,
Te5Nd2,0.0,-0.0403108,
Pd2CdHf,0.0,-0.0403108,
CaSr2Tl2,0.0,-0.0403093,
KAs2Pb2,0.0,-0.0403086,
BCaPt2,0.0,-0.040308100000000006,
Co2InTa2,0.0,-0.040308100000000006,
GeCdPt,0.0,-0.040307699999999995,
CdSb2Eu,0.0,-0.0403073,
ScTa,0.0,-0.040306600000000005,
Br3Th,0.0,-0.0403063,
BNRuNp,0.0,-0.0403063,
FeGe2Er6,0.0,-0.0403061,
AgLa3,0.0,-0.040305799999999996,
LiGeAu2,0.0,-0.0403056,
Ge2HoPt,0.0,-0.0403054,
GaZr6Bi2,0.0,-0.0403042,
Ni5Pt4,0.0,-0.0403034,
AlBaTl,0.0,-0.0403023,
O2Th,4.4528,-0.040302199999999996,
Ru2SbTm,0.0,-0.040302,
N2Eu2Pt,0.0,-0.040301699999999996,
Se2TbAu,0.2695,-0.040301000000000003,
Cd2Gd,0.0,-0.0402998,
AlPrHg,0.0,-0.0402996,
ZrRu2Gd,0.0,-0.0402993,
LiBrHg2,1.2817,-0.040299100000000004,
AsTe3Sm4,0.0,-0.040299100000000004,
FeDy3,0.0,-0.040299,
Pd5Er3,0.0,-0.040298900000000006,
Rh2NdTb,0.0,-0.0402963,
LiMnAu2,0.0,-0.0402949,
Cr4W3,0.0,-0.040294800000000006,
O2Dy2Bi,0.0,-0.0402945,
Ga3TbPt2,0.0,-0.0402941,
PdLa2,0.0,-0.040293999999999996,
As2SrHg2,0.0,-0.0402939,
In5Ba5Tl,0.0,-0.0402936,
Y2RuHg,0.0,-0.040293100000000005,
CoDy3,0.0,-0.0402919,
ScMn2Pu,0.0,-0.040291600000000004,
ZrSbEr,0.0,-0.0402915,
PSTh,0.0,-0.0402911,
ScHo3,0.0,-0.0402896,
CoZr6Bi2,0.0,-0.0402893,
Co4Ir3,0.0,-0.040289200000000004,
CaRhPb,0.0,-0.040289099999999994,
CrZr6Bi2,0.0,-0.0402888,
Se2BaPb,1.1539,-0.0402884,
P2RhU,0.0,-0.0402877,
P2HgTl,0.0,-0.0402874,
Sr2LaTl,0.0,-0.0402852,
Si3IrTh,0.0,-0.0402845,
Fe2TmTl,0.0,-0.0402842,
Ga2SrTl2,0.0,-0.0402835,
MnNiHf2,0.0,-0.0402832,
InIDy,0.0,-0.040283099999999995,
Cd2TbTm,0.0,-0.0402828,
In4Hg,0.0,-0.0402824,
NaBa2Pb,0.0,-0.0402821,
Y2AgIr,0.0,-0.0402821,
Zr2CdHg,0.0,-0.0402821,
CaTe3PrAu,0.3821,-0.0402813,
ClZnTh,0.0864,-0.040281199999999996,
NSi3Hf5,0.0,-0.0402809,
ZnRhLu2,0.0,-0.0402808,
CuRh2Bi,0.0,-0.0402803,
PAsHf2,0.0,-0.040279800000000004,
Zn2Dy3Hg,0.0,-0.0402797,
Pd2InGd,0.0,-0.0402796,
GaZrOs,0.0,-0.040277900000000005,
CoGa2Pu,0.0,-0.0402778,
Fe2Ce2Pb,0.0,-0.0402776,
Pd8Th,0.0,-0.0402776,
As2ZrHf2,0.0,-0.0402774,
Al2BaTl2,0.0,-0.0402759,
In2PmDy,0.0,-0.0402757,
PdSnHo,0.0,-0.0402746,
CuSe2Tl2,0.0,-0.0402738,
NaPb,0.0,-0.0402726,
KBa2Tl,0.0,-0.040272100000000005,
CdPr3,0.0,-0.0402716,
PdCdLu,0.0,-0.040271,
YCe3,0.0,-0.0402709,
YSm3,0.0,-0.0402705,
GeYOs,0.0,-0.04027,
Sb2Nd,0.0,-0.0402694,
AsSbHo2,0.0,-0.0402688,
Cu3TmPt2,0.0,-0.040268700000000004,
GaTe2Au,0.0832,-0.0402686,
Cd3Au,0.0,-0.0402651,
CaBa2Pt,0.0,-0.0402651,
B2Mg2CoIr5,0.0,-0.0402649,
MgCaTl2,0.0,-0.0402649,
Y2AgPt,0.0,-0.0402647,
PdInTm,0.0,-0.040264600000000005,
Mo5Ta,0.0,-0.0402644,
MgLa2Hg,0.0,-0.040262900000000004,
MnRu2Er3,0.0,-0.0402616,
RhITb,0.0,-0.040260699999999996,
Mg4Hg5,0.0,-0.040260599999999994,
Zn2Tm2Hg,0.0,-0.04026,
NFPa,0.0627,-0.0402594,
AlPt,0.0,-0.0402592,
Te5Tm,0.0,-0.0402566,
GaIn2Bi,0.0,-0.0402564,
MgNiAu2,0.0,-0.0402563,
Si2Sb2Tm5,0.0,-0.0402562,
N2Tm2Pt,0.0,-0.0402558,
AsSrPb,0.0,-0.0402555,
KTe3TbHg,0.765,-0.040255400000000004,
FeNiHf2,0.0,-0.0402547,
Ni3HoPt2,0.0,-0.0402541,
S2AgNp,0.0,-0.0402526,
InI2Sm2,0.0,-0.0402523,
PdSb2Er,0.0,-0.0402519,
CuYPb,0.0,-0.040251800000000004,
Si3OsTh,0.0,-0.0402515,
Te5Pr2,0.0,-0.0402515,
SnBaPr,0.0,-0.040249299999999995,
Si2CsPt2,0.0,-0.0402492,
RuIn3Tm2,0.0,-0.0402479,
LiLa2Os,0.0,-0.040247399999999996,
Pd3Sn2Au,0.0,-0.0402473,
N2Sn3Ho7,0.0,-0.040247,
GaDy3,0.0,-0.040245800000000005,
CaZnHg2,0.0,-0.040245600000000006,
CdSn2Dy2,0.0,-0.040244999999999996,
PdIn3Sn2Er3,0.0,-0.0402448,
SrIn2Au,0.0,-0.040244300000000004,
Ag2PrEu,0.0,-0.0402431,
MnAs2Pa,0.0,-0.0402409,
CoIn5Th,0.0,-0.0402406,
Ca2PtHg,0.0,-0.0402404,
Ni2Ho2Hg,0.0,-0.0402401,
CoSnTa,1.0535,-0.040240000000000005,
InTe2Ho,0.0,-0.0402398,
Pd4W,0.0,-0.0402374,
CILu2,0.0,-0.0402373,
Ge2Pr2Tl,0.0,-0.0402372,
CuInLu2,0.0,-0.0402368,
I3Ce,0.0,-0.040236100000000004,
Ru5Ta,0.0,-0.040234099999999995,
Zn2Dy2Pb,0.0,-0.040233,
CGe2Nd2Re2,0.0,-0.0402314,
O5Se2Hf2Np2,0.0,-0.0402309,
Sb4PrNd,0.0,-0.040230600000000005,
ScMoRe,0.0,-0.040229999999999995,
Pd4Dy3,0.0,-0.0402299,
CuSb2Sm6,0.0,-0.0402297,
Pd2CdEr2,0.0,-0.0402296,
MnPd2Pb,0.0,-0.0402295,
Ca2SnPt2,0.0,-0.040228099999999996,
CuAs2U,0.0,-0.0402268,
Rh2Cd2Tl,0.0,-0.0402268,
Cu2Tb3Hg,0.0,-0.0402238,
Ru2InDy2,0.0,-0.0402237,
PdSbTb,0.2523,-0.040223,
FIPb,1.8035,-0.040223,
Cu2InTh,0.0,-0.040220399999999996,
Sn2Tb,0.0,-0.0402202,
LiAs2TmPt2,0.0,-0.0402164,
BeAsHg2,0.0,-0.040216,
I3Sm,2.6315,-0.0402157,
Ni2LuPt,0.0,-0.0402157,
PTeIr,0.6134,-0.0402153,
BeLaIr,0.0,-0.0402153,
PIEu2,0.0,-0.0402141,
Pd3Ho2,0.0,-0.0402132,
Rh2InDy2,0.0,-0.0402126,
NiZr6Bi2,0.0,-0.0402111,
CaSbPt,0.0,-0.0402107,
Mg2InBi2,0.0,-0.0402104,
CaIn5Pt2,0.0,-0.0402103,
Ga4AsBi3,0.0,-0.040209,
AgTe3BaEr,0.5424,-0.0402085,
Sc2InHg2,0.0,-0.040207900000000005,
C2Pa,0.0,-0.0402074,
Al2TbHg2,0.0,-0.0402066,
Al3SiU2,0.0,-0.0402063,
Ag2LaEu,0.0,-0.040205,
Y2RhHg,0.0,-0.0402046,
LiY2Au2,0.0,-0.0402038,
Ca2SnIr2,0.0,-0.0402029,
Al2BaPt2,0.0,-0.0402027,
Zn3LuPt2,0.0,-0.0402026,
Li2PbBi,0.0,-0.0402025,
YRh4Pb,0.0,-0.0402019,
GeSbHf,0.0,-0.0402001,
BNRhNp,0.0,-0.0401998,
Co2Sm2Pb,0.0,-0.0401993,
PCuTa2,0.0,-0.040197699999999996,
CuSnAu,0.0,-0.040196800000000005,
Na2TlBi,0.0605,-0.0401964,
RuSn2Tm,0.0,-0.040196199999999994,
Al4Ba3Pt4,0.0,-0.0401958,
CAsLu3,0.0,-0.0401954,
SiBa2Au,0.0,-0.0401948,
Rh2PrTb,0.0,-0.0401942,
Pd2In5Er4,0.0,-0.0401938,
Ca2BaAu2,0.0,-0.0401932,
GeAgTe3Bi,0.0,-0.0401932,
SeSbGd,0.0,-0.040192900000000004,
Sb2Pr,0.0,-0.040192,
SiCaAu2,0.0,-0.0401915,
Ge2La2Tl,0.0,-0.0401907,
Sb2La,0.0,-0.040190399999999994,
Zn3GdAu2,0.0,-0.0401897,
CI5Ho4,0.0,-0.0401897,
Y2CdTl,0.0,-0.0401894,
RhSnDy,0.0,-0.040188299999999996,
AlIn5Np,0.0,-0.040187,
Zr2Rh2Hg,0.0,-0.0401832,
Co7Ta6,0.0,-0.040183100000000006,
VZr6Bi2,0.0,-0.040183100000000006,
Ga2NbTa2,0.0,-0.0401826,
CuPd2Tm3,0.0,-0.040182,
AlBaPt,0.0,-0.040180999999999994,
HAlHf3,0.0,-0.040180999999999994,
RhSb2Ho,0.0,-0.0401805,
TiTe2Hg,0.0,-0.040179099999999995,
AlGe2Tm6,0.0,-0.0401788,
Ca2RbBi2,0.0,-0.0401782,
NiRuW,0.0,-0.0401779,
Ni2Rh3Np,0.0,-0.0401753,
PTe3Tb4,0.0,-0.040175199999999994,
Ga2Ru2Th,0.0,-0.0401744,
Ni2Tb2Tl,0.0,-0.0401743,
Co2Ce2Pb,0.0,-0.0401732,
Zn2AgPt2,0.0,-0.0401732,
InSbLa2,0.0,-0.0401729,
CdInLu,0.0,-0.0401726,
Cu2PdTh,0.0,-0.0401712,
RuSnDy,0.0,-0.0401711,
Cd2DyEr,0.0,-0.0401703,
KSe2Np,0.0,-0.0401699,
Zn3LuIr2,0.0,-0.0401699,
SiPW2,0.0,-0.0401695,
Cu2SnTe4Tl2,0.0,-0.040169199999999995,
In2NdDy,0.0,-0.0401689,
InSnCe2,0.0,-0.0401682,
CoSbTm2,0.0,-0.0401676,
P2Ru2Np,0.0,-0.0401669,
Co2GeNp,0.0,-0.040165799999999995,
Si3CuTh2,0.0,-0.040165599999999996,
LiNiPt2,0.0,-0.0401648,
ZnTe2Sm6,0.0,-0.0401645,
CSeHf2,0.0,-0.0401644,
Rh2Er,0.0,-0.040164,
MgPd2Lu3,0.0,-0.040163,
ZnSbAu,0.0,-0.0401626,
NaCu2TbBi2,0.0,-0.040162500000000004,
LiNd2Au,0.0,-0.040161999999999996,
As2DyAu,0.0,-0.040161499999999996,
NiIn5Th,0.0,-0.0401614,
ZrSnTm,0.0,-0.0401612,
Ag4Pb,0.0,-0.0401611,
BeLaPt,0.0,-0.0401607,
Zn2HfAu,0.0,-0.0401597,
CoNiHf2,0.0,-0.040158700000000006,
ZnTcOs,0.0,-0.0401577,
CSi2Cr2Np2,0.0,-0.0401577,
PPd5U,0.0,-0.0401577,
Te2Ba3,0.0,-0.0401574,
CaSbIr,0.0,-0.040157200000000004,
Pd2CdTb3,0.0,-0.0401566,
Pd2SnLu,0.0,-0.040156,
Rh2In3Ho3,0.0,-0.0401542,
GaAgLu2,0.0,-0.0401541,
AsRuHf,0.0,-0.040153,
Cd2SmEu,0.0,-0.0401519,
P2AgNp,0.0,-0.0401511,
Pd2Ag2Tl,0.0,-0.0401507,
SbTe3Dy,0.6119,-0.0401493,
Cd3CsPt,0.0,-0.0401486,
CaPdPb,0.0,-0.0401485,
AlInGd2,0.0,-0.0401484,
Ge2DyIr,0.0,-0.0401464,
Pd4BaHg,0.0,-0.040146299999999996,
Na2RhBi2,0.0,-0.0401457,
Pd3Gd,0.0,-0.040142899999999995,
Rh2LaTb,0.0,-0.040142899999999995,
Te3Sm,0.0,-0.0401423,
ScRu2Pb,0.0,-0.0401422,
CdLa3,0.0,-0.0401417,
Mg2CsPb2,0.0,-0.0401417,
MgZr3Re2,0.0,-0.0401413,
NRe,0.0,-0.0401406,
Ge2Rh3Th,0.0,-0.0401398,
ZnY3Au2,0.0,-0.0401392,
AgCe2,0.0,-0.040139,
CGe2Pr2Re2,0.0,-0.0401387,
GaHf,0.0,-0.0401384,
Si2BaAu2,0.0,-0.0401383,
ZrCd2Hg,0.0,-0.040136000000000005,
MgTm3,0.0,-0.0401346,
AlBaIr,0.0,-0.0401339,
RhSn2Tm,0.0,-0.0401326,
In2SmTb,0.0,-0.040132,
Ni2SnAc,0.0,-0.040131599999999996,
CdHo,0.0,-0.0401308,
Ga2Rh2Th,0.0,-0.0401308,
Ti2SrIr2,0.0,-0.040130400000000004,
Zn2In2Np,0.0,-0.040129399999999996,
NaSi2Ir3,0.0,-0.0401287,
CaBa2Ir,0.0,-0.040125,
ZnTcLu2,0.0,-0.0401249,
CaBa3Pt,0.0,-0.0401245,
Rh4Hf,0.0,-0.0401229,
NClTh,2.2669,-0.0401229,
Al4Ge2Th3,0.0,-0.0401229,
CoAs2Pa,0.0,-0.040121699999999996,
PTe2Pb,0.0,-0.0401215,
NiDy3,0.0,-0.0401211,
Ag2SmTm,0.0,-0.040120399999999994,
Si2SnIr2,0.0,-0.040120199999999995,
MgGeTe4Tl2,0.1162,-0.0401186,
Ru2Sb2Eu,0.0,-0.040116900000000004,
NiRhPt,0.0,-0.0401136,
Sr2LaPt,0.0,-0.0401134,
SSe2Np,0.0,-0.040113100000000006,
Al2PdPu,0.0,-0.040112699999999994,
NSiGd3,0.0,-0.040111400000000005,
Rh3SnHo2,0.0,-0.0401105,
Ga2Pd3Np,0.0,-0.0401102,
Co2Sn5Lu4,0.0,-0.0401097,
Y2AgOs,0.0,-0.0401082,
Pd5Pb,0.0,-0.040108,
I4Cs2Dy,0.0,-0.0401079,
CoTe2Hg,0.0,-0.0401068,
MgNdAu,0.0,-0.0401066,
ZnTa,0.0,-0.040106,
CoRu2Er3,0.0,-0.040105400000000006,
CSnEr3,0.0,-0.0401046,
AgCd2Hg,0.0,-0.0401044,
Ge2NbHf2,0.0,-0.0401032,
Cu2Dy2Tl,0.0,-0.0401024,
Ga2EuIr,0.0,-0.0401019,
MgSnGd2,0.0,-0.0401019,
Ga2SrIr2,0.0,-0.040101399999999995,
CaTe2Tl,0.0,-0.0401005,
In2PrDy,0.0,-0.0401004,
NbRu2Lu,0.0,-0.0400994,
MnCdPt,0.0,-0.0400991,
BRh2ErPt,0.0,-0.0400982,
Y2TcHg,0.0,-0.0400967,
HBa3Pb,0.0,-0.0400966,
In2CeTb,0.0,-0.040096400000000004,
FeGe2U,0.0,-0.040095399999999996,
Ge2In3Ho3Au,0.0,-0.0400946,
RuCe,0.0,-0.0400938,
CSi2Tm2Re2,0.0,-0.0400924,
YCd2Au,0.0,-0.040091999999999996,
PSb2Pb,0.0,-0.0400918,
SrIn7Pt2,0.0,-0.0400909,
RhSnPm2,0.0,-0.0400894,
CaNi2Bi2,0.0,-0.040089,
Cu2In3Hf3,0.0,-0.040086500000000004,
I3Pm,1.8738,-0.0400856,
CaBaAu,0.0,-0.0400853,
S2CsTh,0.0,-0.0400851,
BGa2EuOs2,0.0,-0.040084800000000004,
Rh5Os,0.0,-0.040084299999999996,
RuSnPm2,0.0,-0.040082099999999996,
MgY2Hg2,0.0,-0.0400819,
LiCuIr2,0.0,-0.0400817,
ScRh2Pb,0.0,-0.0400816,
Ru2In3Ho3,0.0,-0.0400815,
PdAgTb2,0.0,-0.0400811,
Ga2LuAu,0.0,-0.040080599999999994,
Ga2SrPt2,0.0,-0.040080599999999994,
AgInTb2,0.0,-0.040080199999999996,
NaSe2Pu,0.0,-0.040078499999999996,
Ga3Pu,0.0,-0.0400765,
RuCdTb2,0.0,-0.0400764,
Cd2CeEu,0.0,-0.040076,
S2HgTl,0.0,-0.0400732,
CoNi2Hf3,0.0,-0.040072699999999996,
MgLaOs,0.0,-0.0400725,
CdSm2,0.0,-0.0400717,
N2NbU,0.0,-0.0400709,
MnTe2Nd6,0.0,-0.0400695,
ZrRh2Gd,0.0,-0.040069099999999996,
In2Tm,0.0,-0.0400681,
TiInAu,0.4365,-0.0400671,
Ga3SmIr2,0.0,-0.040063800000000004,
NiTe2Au,0.0,-0.040063699999999994,
Rh2La3,0.0,-0.040063499999999995,
NRuEr3,0.0,-0.0400634,
I4Dy,0.0,-0.0400629,
NBa2Au,0.0,-0.0400591,
SiW,0.0,-0.040059,
S2Rh3Bi2,0.0,-0.0400588,
FeSn2Sm6,0.0,-0.0400586,
S5Pb2Bi2,0.6182,-0.040058300000000005,
Cd2Sn2Hg,0.0,-0.0400565,
In2LaDy,0.0,-0.0400559,
Sr2LaIr,0.0,-0.0400556,
NaCaTl2,0.0,-0.0400548,
Si3PtTh,0.0,-0.0400547,
Cd3CsIr,0.0,-0.0400547,
I6Cs2Tm,0.0,-0.0400546,
As3W2,0.0,-0.0400546,
Ge2DyOs,0.0,-0.0400533,
RbTe2Gd,0.853,-0.040052199999999996,
Zn2CdPt2,0.0,-0.0400519,
Ni3DyPt2,0.0,-0.040051699999999996,
NaCs2Bi,0.1773,-0.0400515,
FeTe2Ta,0.0,-0.0400513,
Al3Ir2Au,0.0,-0.0400512,
Si2RuU,0.0,-0.040050800000000004,
NiGa2Pu,0.0,-0.0400505,
P2Th,0.0,-0.0400494,
SnTeNd,0.0,-0.040048900000000005,
YAg2Hg,0.0,-0.040048499999999994,
AsZrTa,0.0,-0.040048499999999994,
In2Nd3,0.0,-0.040048099999999996,
MgCuAu2,0.0,-0.0400471,
CMn2Ge2Th2,0.0,-0.0400461,
ZnMoIr,0.0,-0.040045000000000004,
NRhEr3,0.0,-0.0400449,
SrCd2Pb,0.0,-0.0400443,
RhInEr,0.0,-0.0400438,
AgSb2Tm,0.0,-0.040042799999999996,
Cd2PmEu,0.0,-0.040042799999999996,
RuInLa3,0.0,-0.040042299999999996,
Y2InHg,0.0,-0.040041600000000004,
B2RhCeIr2,0.0,-0.040041200000000006,
O2AuPb,0.6774,-0.040040799999999994,
CaTe4Lu2,0.4257,-0.04004,
Si2Tm2Ir,0.0,-0.0400378,
LiAs2ErIr2,0.0,-0.0400377,
MgSiIr2,0.0,-0.040036999999999996,
GePd3Gd2,0.0,-0.0400358,
CGe2Sm2W2,0.0,-0.0400358,
LiMgPb2,0.0,-0.0400357,
Pd2SnTb2,0.0,-0.040034,
GeTe3Sm4,0.0,-0.040032899999999996,
LiCd2Hg2,0.0,-0.0400325,
AlCuHfIr,0.0,-0.0400323,
CuZr6Bi2,0.0,-0.0400323,
CSi2Er2Os2,0.0,-0.0400316,
SeIn2Tl,0.0,-0.040031399999999995,
Mn2ZnPu,0.0,-0.040031399999999995,
Mg2LaTl2,0.0,-0.0400311,
Mn2GaNp,0.0,-0.0400309,
ScSb2Au,0.0,-0.0400306,
NCdTm3,0.0,-0.0400293,
Br3SnGd3,0.0,-0.0400287,
AgTe2Er,0.7762,-0.040028100000000004,
Ge2In3Dy3Ir,0.0,-0.040027,
Al3Os2Au,0.0,-0.040026400000000004,
Na2PdBi2,0.0,-0.040026000000000006,
NiRhW,0.0,-0.040026000000000006,
KTeTl,1.4702,-0.040024500000000005,
Ge2DyPt,0.0,-0.0400244,
H2Hf2Ta,0.0,-0.0400238,
RuSb2Dy,0.0,-0.0400235,
Ge2PdHf2,0.0,-0.040021799999999996,
I3La,1.7672,-0.0400217,
CuSnEu2,0.0,-0.040021299999999996,
In2PmTb,0.0,-0.0400212,
SiSr2Pt2,0.0,-0.0400212,
Cu3ErPt2,0.0,-0.0400194,
TiZr6Bi2,0.0,-0.0400188,
I3Nd,1.6532,-0.0400167,
LiPr2Au,0.0,-0.0400166,
Y2CdIr,0.0,-0.040015999999999996,
Zn2YPt2,0.0,-0.040015999999999996,
ZnSr2Au2,0.0,-0.0400156,
Pd2Cd2Tl,0.0,-0.0400154,
NiRu2Er3,0.0,-0.0400152,
Te5Er,0.0,-0.040014299999999996,
Ge3RuNp,0.0,-0.040014,
SiSr2Ir2,0.0,-0.0400131,
P2Pd2Pu,0.0,-0.0400118,
GeNbTa,0.0,-0.0400118,
FeTe2Nd6,0.0,-0.0400101,
Rh2CdHo2,0.0,-0.0400097,
ZnPdLu2,0.0,-0.0400094,
MgPrAu,0.0,-0.0400082,
Rh2SbTm,0.0,-0.0400081,
Ru2La3,0.0,-0.040008,
S3Au2Tl,0.0,-0.0400079,
Rh2InLu,0.0,-0.040006599999999996,
CrMoTa,0.0,-0.0400065,
RhCe,0.0,-0.0400063,
SiI2Lu2,0.0,-0.0400055,
Ag2TbHo,0.0,-0.0400054,
Y2PdHg,0.0,-0.040005000000000006,
PCsPt,0.0,-0.040004399999999996,
Y2CdPt,0.0,-0.0400036,
Zr2Pd2Au,0.0,-0.040002699999999995,
Rh5Ir,0.0,-0.040002499999999996,
Sn3Er,0.0,-0.0400012,
As2Ba2Pb,0.0,-0.0400011,
Ge3RhNp,0.0,-0.0400006,
As2CeIr,0.0,-0.0399999,
NiHf,0.0,-0.039998399999999996,
B2U,0.0,-0.0399983,
BrCd2Bi,0.0,-0.039997700000000004,
InSnPm2,0.0,-0.039996699999999996,
In5BaIr,0.0,-0.0399962,
Ru2CdHo2,0.0,-0.0399949,
Ga2Dy2Hg,0.0,-0.0399948,
AsRhHf,0.0,-0.039994,
GaRh2Lu2,0.0,-0.0399937,
Al2Y3Tl3,0.0,-0.039993299999999996,
GaRu2Lu2,0.0,-0.0399923,
AgTe3BaHo,0.5399,-0.0399922,
CoTe2Ta,0.4752,-0.0399918,
RuInEr,0.0,-0.039991700000000005,
GaSe4Te4Ta4,0.0,-0.0399915,
Cu2Sn2Th,0.0,-0.039990000000000005,
O6TeTl6,1.3224,-0.0399899,
Ge2La2Ir,0.0,-0.039988100000000006,
AlCuTh,0.0,-0.0399876,
K2PtTl,0.0,-0.0399871,
AsY2Bi,0.0,-0.039986100000000004,
CoIn3Sn2Lu3,0.0,-0.0399857,
CuRhIr,0.0,-0.0399838,
In5BaPt,0.0,-0.0399837,
Cd2InTm2,0.0,-0.0399836,
Li4Au5,0.0,-0.0399834,
K5Bi4,0.0,-0.0399834,
Tc2Ho,0.0,-0.0399814,
CdCe2,0.0,-0.0399807,
Ga3CeIr2,0.0,-0.0399795,
CFe2Ge2Th2,0.0,-0.039979100000000004,
CoSn2Sm6,0.0,-0.0399785,
Ca2AuHg,0.0,-0.0399778,
CuAs2Tl2,0.0,-0.039977200000000004,
Zn2YIr2,0.0,-0.0399771,
GeAgEu2,0.0,-0.039977,
LiAs2ErPt2,0.0,-0.0399758,
Se3Cs2Au2,1.2533,-0.039975000000000004,
Cl2AuTl,3.1112,-0.0399737,
Zn2InAu2,0.0,-0.0399733,
CAsHf2,0.0,-0.0399722,
BeSiIr2,0.0,-0.0399719,
CoGe2U,0.0,-0.0399716,
Ni2ErPb,0.0,-0.0399713,
AlScHg2,0.0,-0.039971200000000005,
Zn2RbPb2,0.0,-0.0399701,
I4Cs2Tb,0.0,-0.0399701,
I3Pr,1.6605,-0.0399694,
SnTePr,0.0,-0.039968899999999995,
P2PdU,0.0,-0.0399686,
AgDy,0.0,-0.039968000000000004,
CW,0.0,-0.039967300000000004,
NInEr3,0.0,-0.039967300000000004,
Mo2Er,0.0,-0.039967100000000005,
Ni2La2Bi,0.0,-0.039967100000000005,
ZrSb5Sm3,0.0,-0.039966999999999996,
HLaPt,0.0,-0.0399662,
Pd2Sn2Gd,0.0,-0.0399659,
CI2Lu2,0.2839,-0.0399658,
ScSbTa,0.0,-0.0399657,
Ru2CeSm,0.0,-0.0399655,
SnTeLa,0.0,-0.039964799999999995,
Cd2SnEr2,0.0,-0.0399645,
PdSnPm2,0.0,-0.039963900000000004,
Ca2InTl2,0.0,-0.0399638,
Ge2In3Dy3Pt,0.0,-0.0399636,
CoTe2Nd6,0.0,-0.03996329999999999,
InITb,0.0,-0.0399621,
Ni2PdTa2,0.0,-0.039961500000000004,
Rb3Pd3Bi2,0.0,-0.03996,
RhIn3Sn2Ho3,0.0,-0.0399583,
BeSiOs2,0.0,-0.0399583,
C2GaTa3,0.0,-0.0399578,
Se2CsBi,1.011,-0.0399572,
Zn2Ho2Tl,0.0,-0.0399563,
Te3Nd,0.0,-0.039956200000000004,
BCRuNp,0.0,-0.0399557,
GaSb2Nd6,0.0,-0.039955599999999994,
VSe4Tl3,1.4897,-0.039954,
Ca3Ge2PtTl3,0.0,-0.0399539,
Ge2In3Dy3Os,0.0,-0.0399529,
GeI2Er2,0.0,-0.0399525,
InTe2Dy,0.0,-0.039951099999999996,
MgLaAu,0.0,-0.0399509,
PAu,0.0,-0.0399508,
Y2Ru2Tl,0.0,-0.039948300000000006,
MgRh4Th,0.0,-0.039948300000000006,
Ga2AgHg2,0.0,-0.039947899999999995,
AsCeTm,0.0,-0.0399475,
ZnPd2Tm3,0.0,-0.0399472,
Nb3Ru2Au,0.0,-0.0399471,
Pd2In3Ho3,0.0,-0.039946300000000004,
Si2Tm2Pt,0.0,-0.0399461,
CuIn5Th,0.0,-0.0399461,
OBa3Hg,0.0,-0.0399457,
NaSi2Pt3,0.0,-0.0399442,
KBa2Pt,0.0,-0.0399438,
LiLa2Au,0.0,-0.0399436,
Ag2I4Hg,1.0887,-0.0399432,
SiTe3Tb4,0.0,-0.0399428,
Rh5W,0.0,-0.039942700000000005,
SiTeIr,0.4966,-0.0399413,
CaI4Pb,2.6382,-0.03994060000000001,
Ru2RhCe3,0.0,-0.039939100000000005,
N3WTh,0.0,-0.039938499999999995,
Cu2SbAc,0.0,-0.039938499999999995,
Co2Dy2Hg,0.0,-0.039938,
Cd2In2Tl,0.0,-0.0399379,
RhSm,0.0,-0.0399362,
PSbPt,0.3849,-0.0399358,
SiZnTe4Tl2,0.2596,-0.0399351,
YPm3,0.0,-0.039934399999999995,
Ru2Ho,0.0,-0.039934199999999996,
TcSbLa2,0.0,-0.039934,