formula,bg,formation_energy,mp-id
LiDyHg2,0.0,-0.0472422,
Co2ErU,0.0,-0.047242,
In3Ce3Au2,0.0,-0.0472415,
Rh2InTa2,0.0,-0.047241399999999996,
ZnGa2Hf6,0.0,-0.0472391,
BNIrTh,0.0,-0.0472388,
SbTbLu,0.0,-0.0472385,
Li2Pb2Bi,0.0,-0.0472378,
YInBi,0.0,-0.0472357,
ZnSn2Pb2,0.0,-0.047233699999999997,
Ge2Hf2W,0.0,-0.0472331,
B2ErOs3,0.0,-0.047232300000000005,
ScYTl2,0.0,-0.0472316,
GaInAu2,0.0,-0.0472301,
AlBaAu2,0.0,-0.0472292,
Mn2HoU,0.0,-0.0472263,
MgCe3Os2,0.0,-0.047226199999999996,
BrCs2Hg2,0.0,-0.0472258,
LiHfPb,0.0,-0.0472257,
KGeAu3,0.0,-0.0472253,
GaHo2Ir,0.0,-0.047224800000000004,
MgLu2Os,0.0,-0.0472241,
RbCs2Au2,0.0,-0.0472239,
In2ErAu,0.0,-0.047223,
Ge2RhPr3Tl3,0.0,-0.0472228,
Sr2AuTl,0.0,-0.0472215,
ZnBa2Ir2,0.0,-0.04722,
NaPrAu2,0.0,-0.0472192,
In3Pr3Ir2,0.0,-0.0472161,
Rb2SnBi2,0.0,-0.047216,
NaTe2Np,0.0,-0.0472143,
KBaAu2,0.0,-0.047213099999999994,
Ge2PdNd3Tl3,0.0,-0.047213099999999994,
BC2U2,0.0,-0.047212000000000004,
GaLuHg,0.0,-0.0472114,
SnEr3,0.0,-0.0472095,
FePr6Tl2,0.0,-0.047209400000000006,
MnGeU,0.0,-0.0472066,
SrPt,0.0,-0.0472053,
MgPr2Os2,0.0,-0.0472034,
Si2PrIr3,0.0,-0.047202100000000004,
ORhHf3,0.0,-0.0472005,
ScBi,0.0,-0.047200000000000006,
Rh2DyPt,0.0,-0.0471997,
AgTeTl,0.4645,-0.047199599999999994,
Pd2SmPb,0.0,-0.047199599999999994,
NaLa2Pt2,0.0,-0.0471984,
NaLaAu2,0.0,-0.0471971,
Ge3PtNp,0.0,-0.047197,
P2Au2Pb,0.0,-0.0471964,
Ru2ErTa,0.0,-0.047195799999999996,
Y2InIr2,0.0,-0.0471946,
ZnZrPt2,0.0,-0.0471945,
S3Pa2,0.0,-0.0471931,
SiPdTh,0.0,-0.0471928,
Se2TeBi2,0.2176,-0.047191899999999995,
CdPm2Hg,0.0,-0.0471918,
Ge2RhLa3Tl3,0.0,-0.0471915,
NEr3Au,0.0,-0.0471913,
Ni2Ta2Au,0.0,-0.0471903,
Al2HoPt3,0.0,-0.047190199999999995,
Ru2Os,0.0,-0.0471899,
GaHo2Pt,0.0,-0.0471893,
AgCd2Th,0.0,-0.047189100000000005,
Cd4Au3,0.0,-0.0471889,
LiLa2Tl2,0.0,-0.047188299999999996,
Ru2Tb3Au,0.0,-0.0471879,
Pd2Tb2Tl,0.0,-0.0471875,
Rh2LaPb,0.0,-0.0471845,
AlTa2,0.0,-0.0471841,
SSe3Pb4,0.097,-0.0471838,
Ga2BaAu3,0.0,-0.047183,
AgNd2Hg,0.0,-0.0471824,
Y2InPt2,0.0,-0.0471818,
SnTm2,0.0,-0.0471803,
Pd2CdAc,0.0,-0.047178899999999996,
Cd2CsHg2,0.0,-0.0471781,
GaRuHfIr,0.0,-0.0471779,
In3La3Ir2,0.0,-0.0471776,
As2HoIr2,0.0,-0.0471771,
Ni2Hf2Pb,0.0,-0.047176,
CoPr6Tl2,0.0,-0.0471745,
SrSn2Au2,0.0,-0.047173400000000004,
I3Ce3Bi,0.0,-0.0471732,
GeYAu2,0.0,-0.0471728,
AsTbIr,0.0,-0.0471728,
GeAgAu2,0.0,-0.0471723,
Sb2Ta,0.0,-0.0471722,
Cd5Hg4,0.0,-0.0471691,
ZrPdPb,0.3845,-0.0471684,
AsTbPt,0.0,-0.0471666,
NaHg2,0.0,-0.047166,
Si2LaIr3,0.0,-0.0471657,
P2NiTh2,0.0,-0.0471655,
BGa2Os2Th,0.0,-0.0471644,
SiNbIr2,0.0,-0.0471635,
Sb2BaTl,0.0,-0.0471618,
In5Er4Ir2,0.0,-0.047161,
AgHf,0.0,-0.0471608,
Rh2Tb3Au,0.0,-0.0471595,
LiBaTl2,0.0,-0.0471585,
Ni3Pt4,0.0,-0.0471571,
Sb2LaHg,0.0,-0.0471567,
Pd2TmHg,0.0,-0.0471564,
ScSn6Ir4,0.0,-0.0471542,
Cd2SnAu2,0.0,-0.0471541,
CaBa2Tl2,0.0,-0.047154,
Ag2HoPb,0.0,-0.0471539,
C2HfU,0.0,-0.0471532,
Sm3Lu,0.0,-0.047151000000000005,
Pd2CePb,0.0,-0.047149500000000004,
O2SPa2,0.0,-0.0471494,
ZnEr2Ir,0.0,-0.0471484,
Pd2DyTl,0.0,-0.0471478,
HTiIr3,0.0,-0.047146099999999996,
ZnAgTh,0.0,-0.047144399999999996,
Ge4Ho3Ir4,0.0,-0.0471409,
CdLa2Au,0.0,-0.0471398,
Ga3Ge2RhPa3,0.0,-0.0471384,
NiCeBi,0.0,-0.0471378,
Mg2HgBi2,0.0,-0.047137700000000005,
B4Hf2Ir5,0.0,-0.047137,
AlCo2Th2,0.0,-0.047134999999999996,
NiDyPb,0.0,-0.0471342,
NInHf3,0.0,-0.0471337,
Ru5Ta3,0.0,-0.047133299999999996,
MnCdAu2,0.0,-0.0471326,
Mg3Tl5,0.0,-0.0471312,
Ge2PdPr3Tl3,0.0,-0.047130899999999996,
LiGe2Th2,0.0,-0.0471304,
Zn2Au3,0.0,-0.047128500000000004,
LiSmAu2,0.0,-0.047125799999999995,
FeGeU,0.2186,-0.047125799999999995,
In6CsAu4,0.0,-0.047124,
Mg2InTh2,0.0,-0.047120800000000004,
ScYIr2,0.0,-0.0471205,
Cd3Tl2,0.0,-0.0471188,
In2DyPt,0.0,-0.0471177,
Rh2PrPb,0.0,-0.0471165,
YBaTl,0.0,-0.0471163,
GeDyIr,0.0,-0.0471162,
PCaPt3,0.0,-0.047115699999999996,
Cd2SnAc,0.0,-0.0471154,
Te6LaU,0.0,-0.047115000000000004,
Zr2Bi,0.0,-0.0471143,
ZnErPb,0.0,-0.0471121,
ZnEr2Tl,0.0,-0.047110799999999994,
In2DyIr,0.0,-0.047110599999999996,
AlSi2U2,0.0,-0.0471104,
CTm2Tl,0.0,-0.0471096,
NiAsU,0.0,-0.0471093,
RuRhGd2,0.0,-0.0471084,
RhGd,0.0,-0.047108,
NiHo2Ir,0.0,-0.0471079,
Ge2TmPt2,0.0,-0.047106499999999996,
NbSnOs,0.0,-0.047104599999999996,
Ge2Hf2Au,0.0,-0.0471045,
NiAgPt2,0.0,-0.0471035,
ZnEr2Pt,0.0,-0.047102899999999996,
Se2AuBi,0.4568,-0.0471024,
CoSn3Pu,0.0,-0.0471023,
MgSmHg2,0.0,-0.047102200000000004,
SrSn6Au4,0.0,-0.047102,
RbSb2Au2,0.0,-0.047102,
SeLa2Pb,0.0,-0.0471018,
InSnIr,0.0,-0.0471016,
TiNbW2,0.0,-0.0471011,
Al3Ge2AuTh3,0.0,-0.0470995,
ScPdAu2,0.0,-0.047097700000000006,
InSnPt,0.0,-0.0470966,
Rh2ErHg,0.0,-0.0470965,
SrIr,0.0,-0.0470959,
Co4Ir5,0.0,-0.0470951,
Rh2Dy2Hg,0.0,-0.0470915,
Sn2Au,0.0,-0.047090400000000004,
LiRhPb2,0.0,-0.047089799999999994,
AgBa2Pb,0.0,-0.0470895,
FeLa6Tl2,0.0,-0.0470871,
PFeHf4,0.0,-0.047087000000000004,
SiHfTa,0.0,-0.0470868,
NHo2Pb,0.0,-0.0470865,
Ag3SbPb2,0.0,-0.0470855,
Y2SnAu2,0.0,-0.0470851,
N2HfPa,0.0,-0.0470845,
Sb2BaIr,0.0,-0.047083,
Co3W4,0.0,-0.0470828,
SbBa2Hg,0.0,-0.047082700000000005,
Pd2La2Bi,0.0,-0.0470815,
Tc2Re,0.0,-0.0470794,
Sc2Hg3,0.0,-0.047078499999999995,
BrTbPt,0.9527,-0.0470781,
MgZrPb2,0.0,-0.047078,
K2Au2Bi,0.0,-0.0470778,
TeI2Gd2,0.0,-0.0470773,
GaHo2Os,0.0,-0.047077100000000004,
NiCuBi2,0.0,-0.0470763,
CoLa6Tl2,0.0,-0.047075200000000005,
As2TlPb,0.0,-0.0470734,
SrSb2Hg2,0.0,-0.0470717,
Ag4Hg3,0.0,-0.0470713,
Pd2Dy3Hg,0.0,-0.0470703,
RuGd,0.0,-0.047069400000000004,
Ca2Pt3,0.0,-0.0470686,
AsTbOs,0.0,-0.0470678,
Ge2ErIr2,0.0,-0.047066000000000004,
GeDyPt,0.0,-0.0470653,
FSePu,0.0,-0.047063600000000004,
Ca2Ir2Pt,0.0,-0.0470634,
MgAgPb2,0.0,-0.0470634,
Te3Nd4Bi,0.0,-0.0470625,
CaLa2Hg2,0.0,-0.047061599999999995,
Te2BaIr,0.0,-0.0470605,
PdSbPt,0.0,-0.0470571,
MgCeHg2,0.0,-0.0470565,
ScZr2Bi2,0.0,-0.047056100000000003,
MnTcTa2,0.0,-0.0470552,
Ba3Hg,0.0,-0.047054200000000004,
Ca2Ir3,0.0,-0.0470524,
CaPd2Bi2,0.0,-0.0470521,
Pd2PmPb,0.0,-0.047051,
PSe3Pb4,0.0,-0.0470505,
Al2Tb3Tl3,0.0,-0.047049,
C2BrTh2,0.0,-0.047046,
NiHo2Pt,0.0,-0.047045699999999996,
LiCeAu2,0.0,-0.047044600000000006,
RbSn2Pt2,0.0,-0.047043100000000004,
CdBaAu,0.0,-0.047043,
NiInAu2,0.0,-0.047042900000000006,
SbI2Gd2,0.0,-0.047041200000000005,
SbTe2Pb,0.0,-0.0470411,
AgPr2Hg,0.0,-0.0470408,
Sb2BaPt,0.0,-0.04704,
KSb2Pb2,0.0,-0.0470393,
PCoHf4,0.0,-0.047038699999999996,
Co2NdPu,0.0,-0.047037999999999996,
ScYPt2,0.0,-0.047037300000000004,
Te3Pb,0.0,-0.047036299999999996,
CuHf2,0.0,-0.0470362,
RuSn2Tm6,0.0,-0.0470333,
RhIn3Nd3Pb2,0.0,-0.0470302,
GaSnHg2,0.0,-0.0470284,
CaBaHg2,0.0,-0.0470272,
SrCsBi,0.8327,-0.047026200000000004,
Zn2SmAu3,0.0,-0.047025700000000004,
In2Lu3,0.0,-0.047025,
InTe4NdTl2,0.4554,-0.0470241,
SiTcRe2,0.0,-0.047024,
CuTe2Tl2,0.0,-0.047023499999999996,
Tc2Pt,0.0,-0.0470228,
In2LaPb,0.0,-0.047021900000000005,
RbBaBi,0.4032,-0.0470212,
PdTePt,0.0,-0.0470208,
Mn3GeU2,0.0,-0.047020200000000005,
B2HoIr3,0.0,-0.047019899999999996,
In5Er4Os2,0.0,-0.0470176,
Na2HgBi2,0.0,-0.0470157,
Ag2Ho2Tl,0.0,-0.047015,
NiRhAu2,0.0,-0.0470138,
CuSb2Th,0.0,-0.0470132,
ZnPdPt2,0.0,-0.047013,
Cu2Hf2Bi,0.0,-0.047012500000000006,
AlMoIr2,0.0,-0.0470123,
RbCdHg2,0.0,-0.0470116,
Sb2TePb,0.0397,-0.0470114,
ZrSbPt,0.0,-0.0470072,
La3Gd,0.0,-0.0470058,
MgNd2Au2,0.0,-0.0470056,
LiPmAu2,0.0,-0.0470049,
Cd2EuTl,0.0,-0.0470038,
Tb3Dy,0.0,-0.0470036,
AlGa2Th2,0.0,-0.047003500000000004,
B2HoOs3,0.0,-0.047003100000000006,
GaErIr,0.0,-0.0470028,
LiInPb2,0.0,-0.0470015,
In3Nd3Au2,0.0,-0.0470003,
NiTmPt,0.0,-0.0469991,
Y2PdPt2,0.0,-0.0469988,
Al2DyPt3,0.0,-0.046998399999999996,
RhSn2Tm6,0.0,-0.0469976,
AsGd2,0.0,-0.046996899999999994,
InTe4PrTl2,0.3639,-0.046996899999999994,
CuEr2Au,0.0,-0.0469965,
Ag2Bi,0.0,-0.046996,
Ru2Ir,0.0,-0.0469951,
Sn2Nd2Tl,0.0,-0.0469947,
CaSbAu2,0.0,-0.0469945,
CrTcTa2,0.0,-0.0469942,
Ni2NdBi2,0.0,-0.046991500000000005,
MgPmHg2,0.0,-0.0469909,
Pd2Sm2Pb,0.0,-0.046990000000000004,
Ag2TmTl,0.0,-0.046987299999999996,
LiTbHg2,0.0,-0.046987299999999996,
PMnPu,0.0,-0.0469845,
CdNd2Hg,0.0,-0.0469843,
Zr4Hg3,0.0,-0.0469843,
Te2Tm3,0.0,-0.046984200000000004,
Te3La4Bi,0.0,-0.046982300000000005,
Ag2InAc,0.0,-0.0469816,
NiYPt2,0.0,-0.0469811,
NiCdPt2,0.0,-0.0469799,
Zn2BaPt3,0.0,-0.046979599999999996,
MgSnPa,0.0,-0.0469795,
SiPd2Pu,0.0,-0.046978099999999995,
Al2TbIr3,0.0,-0.0469768,
Ni2LaBi2,0.0,-0.0469766,
AlMoOs2,0.0,-0.046972900000000005,
CdBa2Pb,0.0,-0.0469728,
PTb2Bi,0.0,-0.046972299999999995,
GaEr2Hg,0.0,-0.0469722,
Pd2NdPb,0.0,-0.0469718,
Mn2YIr3,0.0,-0.0469705,
GaErPt,0.0,-0.0469695,
Cd3Th,0.0,-0.046969000000000004,
CrRuTa2,0.0,-0.0469686,
RuLa3Hg,0.0,-0.0469678,
N2Nd7Pb3,0.0,-0.0469647,
Ag2InAu2,0.0,-0.046962000000000004,
LiAuHg,0.0,-0.0469616,
Co2PrPu,0.0,-0.046960999999999996,
ZnEuTl,0.0,-0.046957299999999993,
AgLa2Hg,0.0,-0.046955399999999994,
Mo5Ta3,0.0,-0.046955399999999994,
Ni2PrBi2,0.0,-0.046955199999999996,
As2DyIr2,0.0,-0.0469541,
SrPd2Tl2,0.0,-0.0469541,
Te3Pr4Bi,0.0,-0.0469541,
PLuIr,0.0,-0.046953800000000004,
Ge2ErOs2,0.0,-0.0469534,
Zn3Ir2Th,0.0,-0.046953,
SiGdAu,0.0,-0.0469528,
BrAgHg2,0.3081,-0.0469513,
LiPdPb2,0.0,-0.0469507,
YLa2Tl,0.0,-0.0469499,
AlSnTh,0.0,-0.0469495,
AlRh2Pu,0.0,-0.046949199999999996,
FeTcTa2,0.0,-0.0469462,
RhIn3Pr3Pb2,0.0,-0.046945799999999996,
Mo2Re,0.0,-0.0469439,
SmDy3,0.0,-0.0469435,
Zn3Pt2Th,0.0,-0.046942700000000004,
AlZn2Pa2,0.0,-0.0469426,
Ag3Pt2,0.0,-0.0469416,
Na3Bi2Pu,0.0,-0.0469411,
Al3RhSn2Th3,0.0,-0.0469407,
ScCuBi2,0.0,-0.0469396,
CInHf3,0.0,-0.0469395,
NaAgPb2,0.0,-0.0469389,
NiHo2Os,0.0,-0.0469388,
AsSeTh,0.0,-0.046938299999999995,
BeTaAu,0.0,-0.046938099999999996,
GaZrAu2,0.0,-0.0469334,
Sr2HgTl,0.0,-0.046933300000000004,
Se2Er6Os,0.0,-0.0469332,
Ca2Hg2Pb,0.0,-0.0469332,
GaRu2Pa,0.0,-0.046933,
CeDy3,0.0,-0.046928899999999996,
Sr2PtAu,0.0,-0.0469283,
K2Tl3,0.0,-0.046923900000000004,
Mn2DyU,0.0,-0.0469223,
ZnRu2U,0.0,-0.0469219,
Ag4Pu,0.0,-0.0469197,
As2BaPb2,0.1642,-0.0469194,
NHo3Tl,0.0,-0.0469191,
GeDyOs,0.0,-0.0469183,
ZrSnPt,1.0102,-0.04691770000000001,
GeEuTa,0.0,-0.046917,
Co2LaPu,0.0,-0.0469157,
Rh2SbHf2,0.0,-0.0469151,
NNbHf3,0.0,-0.0469151,
Si2SrRe4,0.0,-0.0469143,
Rh2TbPt,0.0,-0.0469127,
PNiHf4,0.0,-0.0469124,
ZnTm2Hg,0.0,-0.0469117,
AlGdIr,0.0,-0.046911499999999995,
Cl2GeTh2,0.0,-0.0469108,
RhIn3La3Pb2,0.0,-0.0469097,
Ru2Tb3Hg,0.0,-0.046906199999999995,
Sn6Pr2Au3,0.0,-0.0469058,
Sn2Pr2Tl,0.0,-0.0469048,
Zn2NdAu3,0.0,-0.046903,
Co2HoU,0.0,-0.046901899999999996,
Cd2LuAu,0.0,-0.0469013,
As2Er6Os,0.0,-0.0469008,
MnRuTa2,0.0,-0.0469003,
In2HoAu,0.0,-0.0468996,
AgSbTl,0.0,-0.046899,
AlSnPt2,0.0,-0.0468987,
Co2Ga3Th3,0.0,-0.0468984,
KRh2Bi2,0.0,-0.0468975,
AlNi2Th2,0.0,-0.0468972,
As2Er6Pt,0.0,-0.046897,
Pd2PrPb,0.0,-0.046895400000000004,
OPdHf3,0.0,-0.046893500000000005,
Si2AuTh,0.0,-0.0468931,
KSbPt2,0.0,-0.0468924,
SiNbTh,0.0,-0.046891300000000004,
Fe2SmNp,0.0,-0.046890799999999996,
ZnLuAu,0.0,-0.04689,
In3Pr3Au2,0.0,-0.0468899,
LiLa2Pt2,0.0,-0.0468898,
Se2InPu,0.0,-0.046889,
Pd2TbTl,0.0,-0.046889,
LiNdAu2,0.0,-0.0468884,
Co2In3Th2,0.0,-0.0468883,
ZnCdTh,0.0,-0.04688730000000001,
Si2Pt3,0.0,-0.046886000000000004,
MgPr2Au2,0.0,-0.0468857,
MgNdHg2,0.0,-0.0468848,
RuPdGd2,0.0,-0.0468844,
Ag2Tb2Pb,0.0,-0.046884300000000004,
NiNdBi,0.3372,-0.0468825,
MgHfPt,0.0,-0.0468814,
MgCs2BaBi2,0.2423,-0.0468805,
RhPdGd2,0.0,-0.046880000000000005,
AlGdPt,0.0,-0.0468772,
SrSmTl,0.0,-0.0468769,
CuDyPb,0.0,-0.0468762,
NDy3Pb,0.0,-0.046876,
Ga2LuIr2,0.0,-0.0468759,
Rh2Nd2Pb,0.0,-0.0468753,
Sn2La2Tl,0.0,-0.0468736,
RuEr3,0.0,-0.0468736,
ZnGaPu,0.0,-0.0468732,
Rh2Tb3Hg,0.0,-0.046873,
Rb5Bi4,0.0,-0.0468709,
SeBrTh,0.0,-0.046869799999999996,
Pd2LaPb,0.0,-0.0468693,
Ag2DyPb,0.0,-0.0468688,
MgSn2Pu,0.0,-0.0468685,
AlRuTh,0.0,-0.046868299999999995,
BCIrTh,0.0,-0.046868299999999995,
Zn2PrAu3,0.0,-0.046868099999999996,
Mo2Pt,0.0,-0.0468666,
LiLaAu2,0.0,-0.0468663,
In2TbPt,0.0,-0.046864800000000005,
LiLu2Ir,0.0,-0.046864499999999996,
ZnBa2Au2,0.0,-0.0468638,
Zn2LaAu3,0.0,-0.046860900000000004,
CuAgPt2,0.0,-0.0468605,
Zn2Au2Hg,0.0,-0.0468605,
PFePu,0.0,-0.0468603,
SbHoTm,0.0,-0.0468586,
YIn2Ac,0.0,-0.046858,
P2FeHf6,0.0,-0.046856999999999996,
YLaHg,0.0,-0.0468559,
FeRuTa2,0.0,-0.04685520000000001,
In4TlPb,0.0,-0.0468544,
In2TbIr,0.0,-0.046854,
Al2Au2Bi,0.0,-0.046854,
P2MnHf6,0.0,-0.0468535,
Zn2BaIr3,0.0,-0.0468519,
Ag2LuHg,0.0,-0.0468518,
CdPr2Hg,0.0,-0.0468513,
Ga2Ta3,0.0,-0.0468501,
TiTc2Pa,0.0,-0.0468491,
SiFeHf4,0.0,-0.0468487,
CuInAu2,0.0,-0.0468487,
ZnYTl2,0.0,-0.046847700000000006,
SrSn2Ac,0.0,-0.0468476,
SiInIr2,0.0,-0.0468466,
CoGeU,0.0,-0.0468465,
CuTmTl,0.0,-0.0468434,
AsDyAu,0.0,-0.046842,
ZrSnIr,0.0,-0.0468416,
RbCd2Pb2,0.0,-0.046840400000000004,
SnTe2Pb,0.2225,-0.0468401,
Zn2HfPt2,0.0,-0.0468388,
InTeAu,0.0,-0.0468388,
In3La3Au2,0.0,-0.046838500000000005,
SiZrIr2,0.0,-0.046837699999999996,
TcRuPt,0.0,-0.0468364,
PdSn2Tm6,0.0,-0.0468354,
NEr3Hg,0.0,-0.046834400000000005,
MoRhIr,0.0,-0.046833799999999995,
N2CoTh2,0.0,-0.0468335,
PLuPt,0.0,-0.0468324,
AgBaHg,0.0,-0.046831899999999996,
Al2TbPt3,0.0,-0.0468318,
AlRbHg3,0.0,-0.0468315,
KBa2Tl2,0.0,-0.046830800000000006,
AgSnGd2,0.0,-0.046830500000000004,
Pd2Tb3Au,0.0,-0.0468296,
SbEr2,0.0,-0.046829300000000004,
CuHo2Ir,0.0,-0.0468292,
PmDy3,0.0,-0.0468279,
TcRhIr,0.0,-0.0468274,
MgLa2Au2,0.0,-0.0468265,
P2CoHf6,0.0,-0.0468262,
InTe2Bi,0.0,-0.0468255,
Te8Ir3,0.0,-0.0468253,
BGa2Re2Th,0.0,-0.046825200000000004,
NEr2Tl,0.0,-0.0468249,
AlNbOs2,0.0,-0.046824599999999994,
MgSb2Np,0.0,-0.046824599999999994,
STe2Pa,0.0,-0.0468241,
Ge2ErPt2,0.0,-0.046820799999999996,
GaTmAu,0.0,-0.0468204,
B2DyIr3,0.0,-0.046819200000000005,
Ru2HoTa,0.0,-0.0468182,
NiPdAu2,0.0,-0.0468181,
Si2Ir2Au,0.0,-0.046817199999999996,
As2IBi2,0.0,-0.046816899999999995,
AlRhTh,0.0,-0.0468163,
Te2BaAu,0.0,-0.0468155,
Ca2Au2Tl,0.0,-0.046814999999999996,
MgPrHg2,0.0,-0.0468146,
PdI4Tl2,0.3569,-0.0468146,
RuInGd2,0.0,-0.0468142,
Y2AgTl2,0.0,-0.0468134,
GaTc2Pa,0.0,-0.046813299999999995,
Zr2AgAu2,0.0,-0.046813099999999996,
Ru2TmHf,0.0,-0.0468112,
Ca3Hg5,0.0,-0.046811,
As2RhPu,0.0,-0.0468105,
CuHo2Pt,0.0,-0.0468105,
CuSb2Tl2,0.0,-0.0468096,
MoRuPt,0.0,-0.0468093,
RhEr3,0.0,-0.0468088,
LiPrAu2,0.0,-0.0468087,
Ge2HoIr2,0.0,-0.046806600000000004,
BrTl,1.8085,-0.0468064,
AsLa2Pb,0.0,-0.046804000000000005,
N2LuNp,0.0,-0.046803899999999996,
CaSn6Ir4,0.0,-0.046801499999999996,
TeEr2,0.0,-0.046801499999999996,
Co4Pt5,0.0,-0.0467997,
GeHoAu,0.0,-0.0467992,
B2DyOs3,0.0,-0.046799,
SiCoHf4,0.0,-0.046799,
Sc4Tl5,0.0,-0.046796500000000005,
HMnPt3,0.0,-0.0467947,
MgCdPb2,0.0,-0.0467937,
HScIr3,0.0,-0.0467936,
N2TmPu,0.0,-0.0467924,
AgCs2Bi,0.8931,-0.0467908,
Pd2Dy2Hg,0.0,-0.0467908,
N2Pr7Pb3,0.0,-0.046790700000000005,
NiTbPb,0.0,-0.04679,
CuRhAu2,0.0,-0.0467899,
Al3SnPu2,0.0,-0.0467898,
P2CuTh2,0.0,-0.046789700000000004,
Pd4Pa,0.0,-0.0467872,
NaSmHg2,0.0,-0.0467839,
BRu6Pa2,0.0,-0.0467834,
Ga2LuPt2,0.0,-0.0467822,
CDy2Bi,0.0,-0.046781500000000004,
CuHo2Tl,0.0,-0.0467799,
P2Pt3,0.0,-0.0467782,
Pd2ErHg,0.0,-0.0467782,
InBa2Tl,0.0,-0.0467772,
BCOsTh,0.0,-0.046777,
NiPrBi,0.3515,-0.0467768,
KTmBi,0.0,-0.046776200000000004,
Sn2NdAu,0.0,-0.0467744,
MnMoTa2,0.0,-0.0467741,
TiAgAu2,0.0,-0.0467737,
MgLaHg2,0.0,-0.046773499999999996,
NODy6Pb2,0.0,-0.046773,
Te2CsTl,0.4046,-0.046771599999999997,
CuYPt2,0.0,-0.0467703,
Y2NbOs2,0.0,-0.0467701,
Te2Sm6Ir,0.0,-0.046770000000000006,
Sn2PrAu,0.0,-0.0467691,
Te8Os3,0.0,-0.046768300000000006,
CoTcTa2,0.0,-0.0467682,
SiNi3Pu2,0.0,-0.0467676,
Ge4Dy3Ir4,0.0,-0.0467676,
KInTl2,0.0,-0.046767,
CdSbTl,0.0,-0.0467665,
CSi2W2Pu,0.0,-0.0467657,
CdLa2Hg,0.0,-0.0467648,
Sb2Ba2Pb,0.0,-0.0467638,
As2TbIr2,0.0,-0.046762099999999994,
RhBa3Bi,0.0,-0.0467618,
Tb,0.0,-0.0467615,
RuSbTa,0.6033,-0.0467614,
RuRhOs,0.0,-0.0467606,
N2GdU,0.0,-0.0467595,
SiLuIr,0.0,-0.046759300000000004,
I3La3Bi,0.0,-0.046758299999999996,
GeTbIr,0.0,-0.0467582,
MgHfTl,0.0,-0.0467575,
Cu3Pt4,0.0,-0.046756900000000004,
GaRh2Pa,0.0,-0.0467556,
B4In5Ir9,0.0,-0.0467556,
InSbAu,0.0,-0.046755000000000005,
AgCdBi,0.0,-0.0467549,
GaHo2Au,0.0,-0.046754399999999995,
SiRh2Np,0.0,-0.0467526,
CuCdPt2,0.0,-0.0467515,
KRhTl2,0.0,-0.0467499,
MgSrBi2,0.0,-0.0467499,
Rh2Pr2Pb,0.0,-0.046749200000000005,
NaCeHg2,0.0,-0.0467481,
Te2Sm6Pt,0.0,-0.0467472,
BSiCeIr3,0.0,-0.0467445,
Rh2HoHg,0.0,-0.0467435,
Rh2La2Pb,0.0,-0.046739600000000006,
Se2Er6Re,0.0,-0.0467388,
Te3BaTmAu,0.4406,-0.0467388,
NaSbTl2,0.0,-0.0467386,
P2GaHf6,0.0,-0.0467385,
SrNb2Ir2,0.0,-0.046738,
NiLaBi,0.4011,-0.046735599999999995,
CaAgTl2,0.0,-0.046735,
LiLa2Ir2,0.0,-0.0467329,
Rb2InBi2,0.0,-0.0467324,
Ge2Hf2Ta,0.0,-0.0467324,
Al3RuPu2,0.0,-0.0467305,
NaSn2Bi2,0.0,-0.0467303,
LiLu2Pt,0.0,-0.0467285,
P2NiHf6,0.0,-0.0467277,
Co2Hf2Ir,0.0,-0.0467257,
Y3Rh2Tl3,0.0,-0.0467247,
NdDy3,0.0,-0.046724400000000006,
Ag2Er2Hg,0.0,-0.0467242,
RbTe2Hg2,0.0,-0.0467236,
NHo3Pt,0.0,-0.0467224,
Pd3Te2Pb2,0.0,-0.046722299999999994,
FeAsPa,0.1993,-0.0467214,
LiTe2Np,0.0,-0.046720399999999995,
RbCs2Hg2,0.0,-0.0467201,
SiInPt2,0.0,-0.0467195,
ZrCdHf2,0.0,-0.0467192,
SrIn2Pt2,0.0,-0.0467165,
SBrNp,0.0,-0.046716299999999995,
Co2Hf2Tl,0.0,-0.046715400000000004,
Zn3Th2,0.0,-0.0467145,
As2Er6Re,0.0,-0.046714399999999996,
GeTbPt,0.0,-0.046714399999999996,
MgTe5Hg4,0.0,-0.0467138,
I2BaHg,2.0394,-0.046713500000000005,
Cd2InAu2,0.0,-0.0467131,
CrMoTa2,0.0,-0.0467105,
Zr2CdAu2,0.0,-0.0467097,
ScZrAu2,0.0,-0.046708799999999995,
Cu2Pu,0.0,-0.046707099999999994,
ClGePu,0.0,-0.0467049,
Te2Sm6Os,0.0,-0.0467029,
SiNbPt2,0.0,-0.0467027,
B2CIr2Pu,0.0,-0.046701700000000006,
PdGd,0.0,-0.0467015,
Rb2HgPb,0.1565,-0.0467012,
RhCdPb,0.0,-0.0467009,
MnAsPa,0.0,-0.0467004,
S3Tl3Bi,0.8956,-0.0467003,
Ga2Np,0.0,-0.0466999,
NaCdPb2,0.0,-0.0466991,
FeMoTa2,0.0,-0.0466989,
ZrSnOs,0.0,-0.0466986,
PZrTh,0.0,-0.046697,
Y2CdTl2,0.0,-0.0466955,
PSeNp,0.0,-0.0466926,
Ge2HoOs2,0.0,-0.0466921,
KIn2Bi2,0.0,-0.046692,
SrIn2Ir2,0.0,-0.0466907,
RuTm2,0.0,-0.046690600000000006,
Sc2HfAu2,0.0,-0.0466905,
SiTe4HgTl2,0.2352,-0.046688,
Co2Hf2Pt,0.0,-0.0466871,
InGd,0.0,-0.046686500000000006,
Se2CsU,0.0,-0.046686399999999996,
OHo3Tl,0.0,-0.0466858,
B2Ir2Pb,0.0,-0.0466843,
ZrSb2Hf2,0.0,-0.046683100000000005,
Ge2EuAu2,0.0,-0.046683,
CoDy2Ir,0.0,-0.0466826,
KPdTl2,0.0,-0.046682299999999996,
N2NiTh2,0.0,-0.0466821,
ZnHoPb,0.0,-0.0466817,
LiLu2Os,0.0,-0.0466793,
NaPmHg2,0.0,-0.046679000000000005,
CaSnAu2,0.0,-0.0466778,
SiNiHf4,0.0,-0.0466766,
CaInPt2,0.0,-0.0466762,
ZrHf,0.0,-0.046676,
Rh5Ta3,0.0,-0.0466752,
Ca2Pt2Au,0.0,-0.046674799999999995,
Sb2Sm6Ir,0.0,-0.0466741,
CuHo2Os,0.0,-0.0466706,
Rh5Pu,0.0,-0.0466703,
Ni4Re5,0.0,-0.04667,
AlTe2Lu6,0.0,-0.0466694,
SnSbTa,0.0,-0.046668999999999995,
Te4Cs2HgPb,0.0,-0.046668799999999996,
Rh2SnHf2,0.0,-0.0466668,
Rh2Tb2Hg,0.0,-0.0466665,
K2Hg2Bi,0.0,-0.0466659,
In5Ho4Ir2,0.0,-0.0466658,
In5Ho4Pt2,0.0,-0.046665399999999996,
FBrPu,0.0,-0.0466646,
CdHf,0.0,-0.0466632,
Mn2U,0.0,-0.046662100000000005,
CrRhTa2,0.0,-0.0466616,
As2Hf3,0.0,-0.0466612,
BCPtTh,0.0,-0.0466605,
AlNbIr2,0.0,-0.0466605,
SrAu,0.0,-0.046660400000000005,
Ti2Hf2Pb,0.0,-0.046658200000000004,
NBrNp,0.0,-0.046658099999999994,
CuPdAu2,0.0,-0.046657699999999996,
SiRhPt2,0.0,-0.046657699999999996,
Mn2TbU,0.0,-0.0466572,
PrDy3,0.0,-0.0466568,
Fe2NdNp,0.0,-0.046654600000000004,
ScAgAu2,0.0,-0.0466541,
Sb2Sm6Pt,0.0,-0.046652299999999994,
RhTm2,0.0,-0.0466518,
Ru2Pt,0.0,-0.0466503,
Se2Hf3,0.0,-0.04665,
Mg2EuPt3,0.0,-0.0466498,
Ga2Hf2Ir,0.0,-0.0466481,
Sn2SmHg,0.0,-0.0466479,
MoRhPt,0.0,-0.0466473,
Pd2CdHg2,0.0,-0.0466468,
PCl2Pa2,0.0,-0.0466468,
Y3Ru2Tl3,0.0,-0.0466456,
CaZrTl2,0.0,-0.0466455,
Zr3Au2,0.0,-0.0466451,
LiLu2Tl,0.0,-0.04664479999999999,
GeSr2Pt3,0.0,-0.046644599999999994,
CoSn2Th,0.0,-0.0466438,
BrLa2Pb,0.0,-0.0466437,
B2TbIr3,0.0,-0.0466434,
NAgHf3,0.0,-0.0466423,
AlGdOs,0.0,-0.0466397,
Sn2Ba2Bi,0.0,-0.0466395,
CHo2Pb,0.0,-0.0466383,
Y2AgPt2,0.0,-0.0466374,
YRhPb,0.0,-0.046637300000000007,
Ag2PmBi,0.0,-0.0466372,
PCuHf4,0.0,-0.046636899999999995,
Cu2BaAu3,0.0,-0.0466354,
AlSb2Lu6,0.0,-0.0466353,
ZnEr2Au,0.0,-0.0466346,
Li2Pb3,0.0,-0.0466345,
RhBa2Tl,0.0,-0.046633,
PCoPu,0.0,-0.0466323,
FeIn2Lu6,0.0,-0.046632,
MgYPb2,0.0,-0.0466308,
Cd3Pt2,0.0,-0.046630000000000005,
CoDy2Pt,0.0,-0.046630000000000005,