formula,bg,formation_energy,mp-id
KDy2F7,6.878299999999999,-4.2294692156250004,mp-2209593
KErF4,6.6748,-4.031674046300925,mp-1201270
KHoF4,6.754300000000001,-4.024990974449073,mp-1202279
Rb7Th6F32,0.9456,-3.996548054277777,mp-1179390
Ca6Hf19O44,4.0197,-3.915013209347825,mp-558489
KU6F25,0.007499999999999,-3.910395033039062,mp-1211824
RbU2F9,0.033199999999999,-3.839032960208332,mp-1195761
Ho4Al2O9,3.965899999999999,-3.8353084804999993,mp-1212327
CsCeF5,2.2534,-3.82972951762931,mp-1202824
Dy4Al2O9,4.005599999999999,-3.82728168861111,mp-1212993
Tb4Al2O9,4.0883,-3.818433524444445,mp-1200490
CeU4O10,0.0,-3.813342349333332,mp-1226587
La5Ti5O17,0.0,-3.7628271885801823,mp-558371
RbUF5,0.170399999999999,-3.757139160714285,mp-1194637
Tm3Al5O12,4.7315000000000005,-3.7212614525,mp-1208102
Sr9U9O34,0.0142,-3.710222280961538,mp-676411
Nd5Ti5O17,0.0,-3.705216757469136,mp-1210776
CsTi8F33,4.5689,-3.693783736579091,mp-1197107
La13(B2O13)2,0.0,-3.674490959224807,mp-1196229
Ce4Al2O9,0.014199999999999,-3.660819044499999,mp-1096905
Nd4Ti9O24,2.7998,-3.629477681959459,mp-557587
KTaF6,6.373699999999999,-3.595572352447917,mp-1540904
Rb2UF7,0.472499999999999,-3.59086492575,mp-2752754
Nd13(B2O13)2,0.0,-3.58974048870155,mp-1203797
Pr5Si3O13,0.0,-3.580733482063492,mp-1209689
Sr4U2O9,0.1871,-3.571192290666665,mp-1218792
Ba6Ti17O40,2.5972,-3.518597357407408,mp-556729
LaB3F12,5.3268,-3.503184440677083,mp-1223430
Ca2Ta2O7,3.3532,-3.483381799774892,mp-680380
BaTi7O14,0.0,-3.480667132196969,mp-757266
BaTi10O20,0.0,-3.47725806139785,mp-766314
Rb2EuF5,0.076899999999999,-3.4399635346875,mp-2749603
BaTa2O6,2.1161,-3.439499560055555,mp-561103
Mg11Ti25O60,0.0,-3.423100213107639,mp-757825
CeTa7O19,0.076899999999999,-3.409393056530863,mp-1213884
CsTi8O16,0.0,-3.4063096354528732,mp-867522
Sr12Al14O33,1.589999999999999,-3.403017828220338,mp-1094063
BaTi6O11,0.0,-3.402755226944443,mp-1227853
Ca3Al2O6,4.0091,-3.39813622378788,mp-12147
MgTi14O25,0.0,-3.381994761166667,mp-774738
LiTi11O20,0.0,-3.3719351871875,mp-772108
Gd4Ga2O9,3.085299999999999,-3.371509364833332,mp-1178283
Ba5Si8O21,4.3763,-3.368877553970587,mp-669333
Eu5P3O13,0.0,-3.317399985663267,mp-1212818
Eu3TaO7,0.0,-3.311953702939395,mp-1213095
Tb2B4O9,5.514400000000001,-3.276189129466666,mp-1208709
Ca5Nb5O17,0.0,-3.273679417314815,mp-555924
NaTi3O6,0.0,-3.243977648637931,mp-1221025
Li7Ta24O64,0.0,-3.223656045466666,mp-1223302
CeNb3O9,0.0,-3.219917170384616,mp-1227785
Ta7BiO19,3.0217,-3.195453658753087,mp-1195166
Na13Ti24O54,0.0,-3.191359322394847,mp-757603
Ba13Nb14O42,0.0,-3.188069149275364,mp-757571
Gd(BO2)3,2.692999999999999,-3.175375804062499,mp-1204314
Gd8Sb3O8,0.0,-3.110110309473685,mp-1224996
Na7Ti13O26,0.0,-3.089229602673664,mp-757308
Cs3Ga2F9,5.7462,-3.05401067385468,mp-556103
K9Ta10O30,0.0,-3.051104414869047,mp-36002
Nb12O29,0.0,-3.039089709756097,mp-1470
Tm(PO3)3,5.6236999999999995,-3.025946719917582,mp-1200186
La19(RuO6)8,0.027499999999999,-3.019516707666666,mp-766364
Ho(PO3)3,5.6162,-3.017863604853479,mp-1202425
K5Cr10F31,0.0,-3.007877560353261,mp-1182535
Nd3IrO7,0.0,-3.002844181136364,mp-1198129
Tm3Ga5O12,3.2434,-2.9897310967500013,mp-1208125
Sc(PO3)3,5.1657,-2.973967434532968,mp-5207
Ta3AgO8,1.7546,-2.944413424888887,mp-849326
Gd3Ga5O12,2.9042000000000003,-2.932829915875,mp-2921
Rb4Nb11O30,0.0,-2.928153638888889,mp-541806
Ta6Bi2O19,0.013199999999999,-2.927841561629629,mp-1208390
Pr3Ga5O12,2.9055,-2.884866288125001,mp-1210032
Ca5(ReO6)2,2.1283,-2.884835567719299,mp-558966
Li17Nb18O54,0.0,-2.875767675018727,mp-530514
Sr11(ReO6)4,0.0,-2.87557052,mp-29908
LaNb8O14,0.0,-2.868066922608696,mp-1211668
MnF3,0.0,-2.84332078299569,mp-2034494
AlV2O4,0.161999999999999,-2.835161980714285,mp-2767452
Be2P2O7,5.9358,-2.8202758373214283,mp-779108
Ba4Sm3Cl16,0.0,-2.7916524121739132,mp-1196927
LiMnF5,1.0109,-2.779969660878488,mp-2763329
Ba4Nb25O40,0.0,-2.776175385072464,mp-1229163
LiNb10O18,0.054499999999999,-2.76601849408046,mp-772085
Na12B26O45,4.5813000000000015,-2.743544192950421,mp-1180710
Sr7Nb34O52,0.0,-2.7332446406451623,mp-1101427
UP3O11,0.0494,-2.715741733761904,mp-1209045
Np2SO9,0.036499999999999,-2.711621508750001,mp-1200721
Rb10Si6O17,3.3796,-2.7031732942424243,mp-556390
EuP5O14,0.0,-2.695248182160714,mp-566534
Ti2Bi2O7,2.5208,-2.66828517401515,mp-1200889
Eu3Ga5O12,0.0,-2.641342044375,mp-1213411
La10S14O,1.9025999999999992,-2.609798111700001,mp-561194
CaAs3F15,4.8741,-2.580862052763158,mp-1227150
SrAs2F12,3.6245,-2.551660304833331,mp-1208728
La20S29O,1.881199999999999,-2.548416513949999,mp-1224734
Np2SO10,1.1161,-2.544507634615385,mp-1197301
TbCO4,9.9999999999989e-05,-2.530773610277779,mp-1199683
Al8(Pb3O7)3,2.8336,-2.521137595328947,mp-13875
Sr2As2O7,3.2477,-2.519734534318158,mp-1196745
SmCO4,0.0,-2.514909349166668,mp-1201399
NdCO4,0.0,-2.509034192916667,mp-1198371
GdCO4,0.0,-2.499893226944444,mp-1199796
Nd10S14O,1.8023,-2.4672929015999983,mp-560608
Sr15Pd5O24,0.684099999999999,-2.457921683181818,mp-1218885
Pr10S14O,1.811499999999999,-2.456435454266666,mp-556056
La10Se14O,1.523499999999999,-2.4387671424125,mp-558535
Nb10Pb14O39,1.7517999999999991,-2.412029320079364,mp-1101724
CaTeO3,2.895,-2.411071277933333,mp-1366217
Ag3Sb4F24,0.012499999999999,-2.392955916774192,mp-1195261
Ca5(IO6)2,2.5412999999999992,-2.35833214131579,mp-1196062
US2O9,2.2009,-2.3576608375,mp-1201369
Ca(La2Se3)4,0.0,-2.354881227291667,mp-674712
Sr5(IO6)2,2.3981,-2.348817630263159,mp-1195789
CsLu7S11,2.031799999999999,-2.327747773227465,mp-1202825
Eu4Au2O9,0.0,-2.308757797166669,mp-21787
Bi7(O2F3)3,2.8232,-2.30518166784091,mp-759798
Ba2Fe2O5,0.0,-2.299320453968254,mp-1196071
Nb8S8O45,0.0,-2.283535784180328,mp-1202537
Nd10Se14O,1.3835,-2.279683287112499,mp-1202414
Pr10Se14O,1.3981,-2.277658247079165,mp-560835
Ba8(Bi2O7)3,0.0,-2.275886582428572,mp-867542
RePO6,2.1592,-2.269866994017858,mp-1203700
HoScS3,1.593,-2.266674389187497,mp-2755772
Ba11(Bi3O10)3,0.0,-2.2631415642,mp-1228932
Sb7Se8F35,1.903,-2.262925375575,mp-28684
La6CoCl11,0.631699999999999,-2.262123819583334,mp-1200333
Ba13Bi11O36,0.0,-2.258663117000002,mp-758120
ErScS3,1.58,-2.256375844354167,mp-2763526
BaIn2O4,1.090599999999999,-2.255538429583333,mp-578629
Bi5(PO5)3,3.155899999999999,-2.252476989192547,mp-1228070
Mg6Te5O16,3.0835,-2.249453331604938,mp-1210955
Dy2Au5F21,1.5532,-2.231789578511904,mp-1213210
Gd2Au5F21,1.5508,-2.206013992499999,mp-557726
Ca11Tl9O24,0.0,-2.203855225568183,mp-765152
Sb24(Cl7F17)5,1.8188,-2.18919820892361,mp-532120
Ca(Nd2Se3)4,0.0,-2.172969645773819,mp-38586
Ca(Pr2Se3)4,0.0,-2.171423621619361,mp-38347
BaRe2O9,0.4154,-2.144437589583334,mp-1214641
U(TeO3)3,1.8411,-2.139227860576923,mp-554219
Tm23Se32,0.0,-2.139217665863639,mp-684691
La9Al5S21,2.175,-2.130723805642856,mp-1223592
Pm2MgS4,1.2669,-2.128847990178571,mp-1232275
La8Sb2S15,1.935799999999999,-2.112946303799999,mp-1195582
CsLu7Se11,1.510499999999999,-2.104970995373848,mp-1203743
Li(MoO2)2,0.6557000000000001,-2.09160650595238,mp-2764466
ReSF4,0.3651,-2.074894630763889,mp-560960
B2Pb4O7,2.454499999999999,-2.046420790641024,mp-1203040
Li95Mn16O64,0.0,-2.04597348419179,mp-1185524
Sr5(Sb11O19)2,2.5443,-2.044198520076922,mp-1197996
Y4Cu7O16,0.005799999999999,-2.039758807222222,mp-530641
KTi4Cl11,0.0057,-2.032570901598959,mp-1203502
LiCl,5.7373,-2.021952504583333,mp-1185319
SmBr2,0.0,-2.021075798333333,mp-1208711
Tb5IrBr9,0.6524999999999991,-2.013827666388888,mp-1197952
Si3Pb11O17,1.976,-2.006832421854838,mp-1198381
Ho5IrBr9,0.730599999999999,-2.004568929333329,mp-1202615
Y5IrBr9,0.6534,-2.002284616666666,mp-1201999
Rb2Th7Se15,1.344299999999999,-1.99923215000651,mp-1201494
Cs5(SO4)4,0.0,-1.9938242973310352,mp-1196118
Pr8Sb2S15,1.8139999999999992,-1.993167136533331,mp-554935
Tb5RhBr9,0.4516,-1.985387321555554,mp-1203586
Nd6Nb5S16,0.0,-1.984796931851851,mp-556107
Dy3InS6,0.8205,-1.970155549437498,mp-2755705
Y3InS6,0.867,-1.967382519687501,mp-2763227
Er9Al5S21,2.3135,-1.965137701139888,mp-1226348
Tb8Se15,0.251599999999999,-1.964843762832879,mp-1217676
Pu2IO10,0.054699999999999,-1.9634944432692292,mp-1205014
Np2Tc4O23,0.409699999999999,-1.9633514468103461,mp-1198315
Nd8Sb2S15,1.8313,-1.9627437182874992,mp-1195765
La9Ga5S21,1.6185,-1.919515567282769,mp-1224774
Er2PbS4,2.1115,-1.917510845714284,mp-1225956
Tm2PbS4,2.114,-1.916907493214286,mp-1217268
LiCu2F7,0.2837,-1.916863630666666,mp-2759992
Ho2PbS4,2.1222,-1.9115662044642832,mp-1224555
Ga8(Pb3O7)3,2.6544,-1.910077196315788,mp-14216
BaTe3O7,3.1953,-1.906813200909091,mp-1195118
La12Ge5S28,0.9878999999999992,-1.902834564777778,mp-1223620
La9In5S21,1.7648,-1.8864137583660652,mp-1224749
Ba12In4S19,1.978,-1.877775527119047,mp-1229044
Bi2XeF12,1.779199999999999,-1.8770243493333332,mp-1204919
Zr3S4,0.0,-1.86078058625,mp-684749
Th(Se2O5)2,3.5655,-1.8574293114583331,mp-1195373
Sr17(Ta5S21)2,1.7384000000000002,-1.8549436802656991,mp-532315
Bi2S2O9,3.5416,-1.853890268076924,mp-1197960
Sc4FeCl5,0.5076,-1.849052800499999,mp-1203959
La12Sn5S28,1.3636,-1.842010232027754,mp-1223580
Tb12Si5S28,1.654,-1.839385158379627,mp-1217871
Na7As11O31,2.1627,-1.819513673683438,mp-1173826
Tb9Ga5S21,1.554699999999999,-1.8169288585803471,mp-1217757
Dy12Si5S28,1.6467,-1.8164596059722171,mp-1225718
Mn9(PbO5)4,0.0,-1.8135062057993732,mp-1199449
BaPtO3,0.415899999999999,-1.806984020142856,mp-1214788
Ag3AsF12,0.099399999999999,-1.8012610570312502,mp-1229185
Sm9Al5Se21,1.643199999999999,-1.797530740263392,mp-1218878
Ce5C2Br9,0.0,-1.796351805781248,mp-623670
Mn6Te5O16,0.8991999999999991,-1.792328400589612,mp-1211172
Tb12Ge5S28,0.97,-1.7874183258888872,mp-1217873
Tb9Al5Se21,1.6628,-1.778903426549107,mp-1217771
Dy12Ge5S28,0.9731,-1.776804680999998,mp-1226206
La9Ga5Se21,0.768099999999999,-1.761685838098248,mp-1223537
La9In5Se21,1.0198,-1.76024460947915,mp-1227612
Li5V5Cl16,0.0,-1.757228955384608,mp-532443
Cs7Cd3Br13,2.8156,-1.756576808155922,mp-667295
Sr(AlS2)2,3.6396,-1.752220800714285,mp-14424
Rb(Nb2Cl5)3,0.966499999999999,-1.751426146136362,mp-1210315
Bi2Au5F21,1.2285,-1.7513867525,mp-557090
Bi15PO25,2.2372,-1.750546960662022,mp-685353
Zn2As2O7,2.0523,-1.7460570564772722,mp-779594
Gd4(SiS4)3,1.2438,-1.738336976315787,mp-1199792
Ba8Nb7S24,0.0,-1.7361079874358971,mp-531036
Dy9Al5Se21,1.5427,-1.734784775687545,mp-1226050
Ce(AlBr4)3,0.2026,-1.722208793124999,mp-1214275
Sc19(RuBr7)4,0.021199999999999,-1.71404881245098,mp-1219646
Ba2GaSe4,1.0042,-1.699913990803571,mp-1195574
Ca(AlS2)2,3.4146,-1.696253139642856,mp-14422
Rb2Bi4O7,2.5644,-1.692790581826923,mp-556735
Pr12Si5Se28,0.9289,-1.6927696967916661,mp-1220106
Nd12Si5Se28,0.9246,-1.6915159210138881,mp-1220668
LaTe2,0.0,-1.6826708548611111,mp-571576
Cs2Bi4O7,2.6314,-1.677617009946951,mp-555117
Ho4RuBr5,0.2507,-1.671786816874997,mp-1200540
Y4RuBr5,0.2208,-1.66784125375,mp-1196369
ReH3O5,3.9726,-1.662856899027779,mp-2766424
Nb6TlCl15,0.9461,-1.6624026384469701,mp-1210630
Bi15AsO25,2.2346,-1.661546209634148,mp-685318
Sr2Ga2S5,2.4036,-1.653663327222221,mp-14680
Nd9Ga5Se21,0.7149999999999991,-1.651925273026758,mp-1220629
Pr9Ga5Se21,0.7210000000000001,-1.644789706294633,mp-1220191
Nb6InCl15,0.8771,-1.640105183598485,mp-651907
Rb4Te8O23,1.1986,-1.6392390818095242,mp-1204243
SbXeF11,1.7571999999999992,-1.637765669615384,mp-1195229
K4Te8O23,1.2989,-1.6297149217809521,mp-1212432
AsXe2F9,1.596099999999999,-1.618047420208333,mp-1182721
Na26In4O19,1.221899999999999,-1.611360043418953,mp-532091
Sc13Os3Br16,0.0,-1.604301991874999,mp-1200815
U6Rh2S15,0.006599999999999,-1.5996928774999961,mp-1195848
Ce15B8N25,0.0,-1.5952484738194421,mp-28370
Ti2SCl12,1.9423,-1.584066879611111,mp-649080
Ba2In2S5,1.867899999999999,-1.582398072175922,mp-22841
Ba3Ta2Se9,1.202,-1.576411595947172,mp-1195068
Sb3Cl11F4,1.6636,-1.571324130416666,mp-1209457
TbAgS2,1.5681,-1.565494165833331,mp-1208370
CuAgF3,0.2559,-1.564538303999999,mp-2763763
YAgS2,1.7034,-1.5578638751041651,mp-1207671
Ba3Nb2Se9,1.0023,-1.5551058852566961,mp-1195033
Sc4FeBr5,0.479299999999999,-1.549090606125,mp-1204900
Nb3In2Cl9,0.9687,-1.542911562380952,mp-1210229
TmAgS2,1.6962000000000002,-1.537189252968751,mp-2755875
Na11(Ru4O9)4,0.0,-1.5321731327805141,mp-1223388
Cs2TlBr5,1.276,-1.53004701376796,mp-1199662
OsO4,3.1633,-1.529192906999997,mp-1524458
Ba3Sb2S7,1.902199999999999,-1.516091671041666,mp-1195624
Ba2In2Se5,1.281,-1.515504987089119,mp-573635
Cs(Nb2Cl5)3,0.967,-1.5114509703409091,mp-1214012
Rb3Sb2Br9,2.149,-1.508562501607142,mp-1194576
Ba3(RhO2)14,0.0,-1.501043311777776,mp-758025
La3C2Br3,0.0,-1.49651474140625,mp-29994
Eu(SeO4)2,0.0,-1.493921652017046,mp-1199825
Cs3IO5,1.4110999999999991,-1.487624494885058,mp-1213723
RbOs2O9,0.7619,-1.48632134375,mp-1205111
La(NO3)3,3.1374,-1.4825321872115391,mp-1205242
Ba6Sn6Se13,9.999999999976696e-05,-1.46789847151875,mp-1196224
NpI2O9,0.363,-1.465715358229167,mp-1204846
Np2Se3,0.0,-1.45855285665625,mp-684922
Sr(GaS2)2,2.797399999999999,-1.458343040535713,mp-14425
USe2,0.0,-1.451706699229167,mp-684555
Nd(NO3)3,3.1368,-1.451243474711539,mp-1199401
Pr(NO3)3,3.1349,-1.450472895512821,mp-1201377
S5(IO9)2,2.738,-1.4411972451000001,mp-1197503
Sm(NO3)3,3.1467,-1.43771401048077,mp-1203930
Sb2S19F12,1.9679,-1.419513633863635,mp-723419
Pr3CoBr3,0.0,-1.413563742499999,mp-1210173
Ca(GaS2)2,2.747099999999999,-1.404563764821427,mp-14423
Pt(SO4)2,0.000399999999999,-1.40323690090909,mp-1197023
Ta27S50,0.0,-1.394484447961036,mp-530018
La7Sb11Br4,0.014199999999999,-1.385783309772727,mp-570305
Na3TaS4,2.5894,-1.383992295808907,mp-1202226
CaUI6,0.1528,-1.379313655624999,mp-1213956
Na5(CuO2)3,0.0,-1.363781607635467,mp-1221729
CsW3Cl7,2.9160999999999992,-1.363157451332288,mp-1213572
Cs4Hf3Se14,1.6893999999999991,-1.35411212387777,mp-1200567
Ba6Sn7S20,1.3643,-1.347526221060605,mp-1204773
Eu(GaS2)2,0.2343,-1.338719969999999,mp-1181942
Na4TiSe4,1.6617,-1.335474887580619,mp-505798
Fe2(Se2O5)3,0.709399999999999,-1.314964074307065,mp-555589
Ba4Sb4Se11,1.138399999999999,-1.306427226488487,mp-28238
Bi4Au2O9,0.7795000000000001,-1.303107969833335,mp-559422
Ba(InSe2)2,1.572,-1.30214578860119,mp-21766
U6Cu2Se13,0.0,-1.291918225974699,mp-1197653
Ce7C3I10,0.0,-1.287155253499999,mp-568922
Zr6PI14,0.0,-1.286559924744898,mp-1207461
Ba(TaN2)2,2.658,-1.280363978880952,mp-1029616
K16Zr12Se61,1.3461,-1.277895571449087,mp-674338
Lu20Os5I24,0.016299999999999,-1.277004345578232,mp-1203152
Cs4Ta2S11,1.747999999999999,-1.276541384752197,mp-14578
K5GaSe4,1.8932,-1.270132140687499,mp-29377
Ga2Hg3Cl8,2.489,-1.267080934615386,mp-1203326
Cs4Nb2S11,1.4593,-1.248800376683569,mp-1200810
K12In2Se9,1.5563,-1.2474233211490031,mp-570411
SrSbSe3,0.358099999999999,-1.243481970156249,mp-1204655
K6Sn2S7,2.0416,-1.224611323566665,mp-1120789
KMo3Br7,2.3107,-1.223698784863636,mp-531064
Zr6GeI14,0.9028,-1.219898757857143,mp-1207495
Mo2NCl8,0.0,-1.213824680681819,mp-680309
Si3Cl8,4.6896,-1.212598841818181,mp-27189
GdPS4,1.4795,-1.210425760912699,mp-1196177
RbAgBr3,0.0,-1.209148418833332,mp-998212
Sr3GaAs3,0.7012,-1.202644050000001,mp-1194661
Rb(Zr3Te4)4,0.0,-1.193165686005747,mp-1006574
Bi(W2Cl5)3,1.9545,-1.190204796704546,mp-569822
Zr6FeI14,1.0127,-1.183110583809524,mp-1207511
Mo3N2Cl11,0.1158,-1.18107800078125,mp-680300
K3AgO2,1.751299999999999,-1.177506311194443,mp-572510
K3Nb2S11,1.3870999999999991,-1.169109509953124,mp-680410
Zr6CoI14,0.0062,-1.1584789457142861,mp-1207507
Rb6Ta4S25,1.4868,-1.143791942480951,mp-680284
Rb3AgO2,1.5162,-1.127836472881943,mp-553907
Na2Ti2Se9,0.7175,-1.12123889465531,mp-680191
Rb3Sb2I9,1.9237,-1.114254693392857,mp-1209693
Ba(VN2)2,1.5623999999999991,-1.113593344880951,mp-1029918
Pr14C14Cl9,0.0,-1.111724558738738,mp-1196687
Ti27CuP16,0.0,-1.107520555324675,mp-1217410
Tl4Pd3Cl10,1.11,-1.107223874313726,mp-574580
Ba(NbN2)2,2.1524,-1.104846896071428,mp-1029502
Cs9Fe2Se7,0.512999999999999,-1.103992413655712,mp-1201016
La4P9Rh8,0.0,-1.103189690323132,mp-1200868
Cs3Nb2Se11,0.8620999999999991,-1.101204967952922,mp-1197158
Pr8C8Cl5,0.0,-1.100837276111111,mp-1196511
Re(TeCl6)2,0.9304,-1.097119505055555,mp-581449
Ba6(BiSe2)13,0.0,-1.094036537131945,mp-1228368
Nb9TlSe12,0.0,-1.092800468248105,mp-1220574
Mo6PbBr14,2.2309,-1.092181490476191,mp-649327
Na4Zn3Se5,1.1282,-1.089018024769665,mp-1024048
LiCa11Sb9,0.725699999999999,-1.087613138373014,mp-1211639
Tl2(SeO4)3,1.4303,-1.086845915658701,mp-1208398
Ca21(Zn2As9)2,0.9742,-1.079816617906977,mp-1194550
Zr(TeCl)6,1.013199999999999,-1.077863917692307,mp-31304
Ca14AlSb11,0.5897,-1.075019589999998,mp-567799
In2Br3,2.0644,-1.068962764541666,mp-685014
Ba20As13,0.0,-1.0658504625,mp-685008
KW3Br7,2.617099999999999,-1.065319400545453,mp-531952
TlMo3Br7,2.1441,-1.06362278814394,mp-1217483
Cs2Re2S5,0.8506,-1.063615395941889,mp-653954
Ca14MnP11,0.0095,-1.053032518134708,mp-532160
Cs8(Re4S9)3,1.429799999999999,-1.048260928398753,mp-1229160
CsReS2,1.2522,-1.045500260122126,mp-1199798
Rb9Co2S7,0.000399999999999,-1.045153545277776,mp-1210027
Cs4SiTe4,1.7759,-1.042916461944442,mp-574224
K7(FeS2)5,0.0,-1.04154601503409,mp-1204678
H16Cl2O15,5.105399999999999,-1.031765067537878,mp-1197694
K4As2Se5,1.1592,-1.021338617338067,mp-1204061
Hf(TlS)4,1.4675,-1.017656272370373,mp-1198074
Cs3Ti3Te11,0.079,-1.014469894252873,mp-1203892
Ca21(Zn2Sb9)2,0.6327,-1.008986715232552,mp-1194667
Ba3GaAs3,0.6858000000000001,-1.00034337125,mp-1195592
Ce3(Al3Pt2)2,0.0,-0.97445844076923,mp-1199697
Tb(GePt)2,0.0,-0.9616008360000021,mp-2017836
LiSbS,0.385899999999999,-0.9534255986111101,mp-756006
Hf(TeCl)6,1.0069,-0.911166695641019,mp-31305
Ca7TlN4,0.0,-0.9005348266666661,mp-1227114
BaO6,0.0177,-0.8982260400000001,mp-2017611
La6MnSb15,0.0,-0.8696052292946721,mp-2212268
La6ZnSb15,0.0,-0.8626022431818171,mp-1223161
La6CuSb15,0.0,-0.856199762727272,mp-1223212
Y4UPd15,0.0,-0.8502800652500011,mp-1216177
Ca(GePt)2,0.0,-0.847230349,mp-2015893
Co(W3Cl7)2,0.3896,-0.8293063841666841,mp-1203320
Sn2(PCl8)3,0.0,-0.7964549722044411,mp-1209397
NpSi2Ni,0.0,-0.7635497021875001,mp-1206288
Te2MoCl12,0.0,-0.7505906092407411,mp-541756
HoCo5Si3,0.0,-0.5802979887037031,mp-1212707
DyCo5Si3,0.0,-0.5762335548148131,mp-1213253
Pr(In2Pd)2,0.0,-0.5652398206190461,mp-1200326
Gd2NiB10,0.0,-0.5282950358974341,mp-1212642
LaAlNi,0.0,-0.5250822229166681,mp-1211364
Ho3Ni7B2,0.0,-0.512078376527766,mp-1192069
Ga(SiNi3)2,0.0,-0.46892654805555706,mp-1225418
Ce(Al4Co)2,0.0,-0.46854093545454306,mp-1194542
Sm7Al7Co6,0.0,-0.41255328274999903,mp-1209190
Pu2B6Os,0.0,-0.38415841972221604,mp-1205010
CeGa2Co3,0.0,-0.37560250583332705,mp-1227509
U2Fe3Si,0.0,-0.37069824499999804,mp-1216783
Gd2Ni7,0.0,-0.36985672555555504,mp-669713
K2CdSn,0.0482,-0.291115413125,mp-2043826
Pd5Pb3,0.0,-0.27768595499999504,mp-2019077
BaCd3,0.0,-0.242133777499997,mp-2034418
UNiSn,0.0,-0.234013511666669,mp-2748558
CeInCu5,0.0,-0.21937157428571402,mp-1214036
ZrCu,0.0,-0.138376112500001,mp-2018976
Ag2Se,0.0,-0.13333801052083202,mp-2047939
Pu,0.0,-0.11014109999999999,
U,0.0,-0.10352679999999999,
PbPu3,0.0,-0.1014439,
TlPu3,0.0,-0.1004444,
Pa,0.0,-0.0996664,
Th,0.0,-0.09591859999999999,
TlNp2,0.0,-0.0953796,
OsNp2,0.0,-0.0952451,
IrNp2,0.0,-0.0952017,
PtNp2,0.0,-0.0950574,
AuNp2,0.0,-0.0944257,
PbU2,0.0,-0.09418349999999999,
IrU2,0.0,-0.09307689999999999,
OsU2,0.0,-0.0930523,
PtU2,0.0,-0.0928389,
PbTh5,0.0,-0.0926421,
SnPu3,0.0,-0.0915656,
AuPbPu2,0.0,-0.09149639999999999,
PbTh3,0.0,-0.0911331,
TlPu,0.0,-0.09109990000000001,
IrPu,0.0,-0.09104259999999999,
PtPu,0.0,-0.0908523,
IrPtPu2,0.0,-0.0908391,
IrPa2,0.0,-0.0907649,
OsPa2,0.0,-0.0907303,
BiTh2,0.0,-0.0905897,
PtPa2,0.0,-0.0905071,
IrAuPu2,0.0,-0.0904627,
Ac,0.0,-0.0904577,
PtAuPu2,0.0,-0.0903418,
OsTh3,0.0,-0.0902109,
HgTlPu2,0.0,-0.0902003,
TlTh3,0.0,-0.09016389999999999,
PtTh3,0.0,-0.0901501,
AuPu,0.0,-0.0899716,
IrBi2Th6,0.0,-0.08990630000000001,
OsBi2Th6,0.0,-0.08986809999999999,
HfU2,0.0,-0.089842,
PtBi2Th6,0.0,-0.0898369,
AuPa2,0.0,-0.0897272,
AuBi2Th6,0.0,-0.08957269999999999,
IrNp,0.0,-0.08942019999999999,
WBi2Th6,0.0,-0.0893925,
Bi2Pu,0.0,-0.0892835,
HgPu,0.0,-0.08919830000000001,
PtNp,0.0,-0.0891716,
IrTh2,0.0,-0.0884001,
Pb2AcPu,0.0,-0.0883816,
Pb2Th3,0.0,-0.0882947,
PtTh2,0.0,-0.0882477,
OsTh2,0.0,-0.0882327,
TlTh2,0.0,-0.08817359999999999,
IrU,0.0,-0.0879523,
Bi2Np,0.0,-0.08793720000000001,
OsU,0.0,-0.0878946,