formula,bg,formation_energy,mp-id
Al3Ge2RuPu3,0.0,-0.047851700000000004,
CdLaHg,0.0,-0.0478507,
CoHf2,0.0,-0.0478506,
As2CePb2,0.0,-0.0478501,
InNd2Hg,0.0,-0.0478489,
ZnTm2Tl,0.0,-0.047848,
ScSnAu2,0.0,-0.0478457,
AlPTa4,0.0,-0.0478445,
Fe2TmU,0.0,-0.0478443,
Ag2LuTl,0.0,-0.047841,
SrTe2Au2,0.0,-0.0478399,
SmHo3,0.0,-0.047839799999999995,
Sn2Pt,0.0,-0.0478394,
Zn3Au2Np,0.0,-0.047838700000000005,
HBr2Th2,0.0,-0.0478378,
SnEuTm,0.0,-0.0478376,
NiInPt2,0.0,-0.0478375,
Ag2TmPb,0.0,-0.047836500000000004,
CLu2Hg,0.0,-0.047836199999999995,
MnInAu2,0.0,-0.0478361,
GaPdPt2,0.0,-0.0478359,
Si2IrTh,0.0,-0.0478349,
RuLa3Tl,0.0,-0.0478335,
Zr4Au3,0.0,-0.0478325,
Te2LaAu,0.0723,-0.0478322,
AsNd2Bi,0.0,-0.047832,
CeHo3,0.0,-0.047830599999999994,
Ni2Pr3Tl3,0.0,-0.047830199999999996,
Ni2Ta2Ir,0.0,-0.047827800000000004,
Rb2AuBi,0.8791,-0.0478276,
Zn2NdIr3,0.0,-0.047825,
SrSn2Pt2,0.0,-0.047824399999999996,
ZnGePu,0.0,-0.047823700000000004,
AlSnPa,0.0,-0.0478221,
LiAgBi2,0.0,-0.0478219,
FeTe2Lu6,0.0,-0.0478215,
Pd2Er2Hg,0.0,-0.0478208,
CuNbPt2,0.0,-0.0478207,
Sb2SmAu,0.0,-0.0478197,
Ru3Ta2,0.0,-0.0478187,
NiCdTh,0.0,-0.0478185,
NiEr2Ir,0.0,-0.0478182,
MgAc,0.0,-0.047817700000000005,
NiZrPt2,0.0,-0.0478161,
CoEr2Os,0.0,-0.047815199999999995,
AgPr2Pt,0.0,-0.047815199999999995,
KSbTl2,0.0,-0.0478145,
MgCeAu2,0.0,-0.0478142,
Te2NdAu,0.1377,-0.0478134,
SrSn2Ir2,0.0,-0.0478131,
Nb3Au2,0.0,-0.0478124,
AlCe2Au2,0.0,-0.047811900000000004,
GeErOs,0.0,-0.047811900000000004,
BeAu2,0.0,-0.0478113,
Sn2Tb6Ir,0.0,-0.047811,
AgPm2Au,0.0,-0.047810200000000004,
GeTe4HgTl2,0.0,-0.0478089,
Pd2PmBi,0.0,-0.047807499999999996,
Zn2NdPt3,0.0,-0.0478072,
CdLa2Tl,0.0,-0.0478064,
NiGaPu,0.0,-0.0478064,
ClFe2Th2,0.0,-0.047806100000000004,
SbTm2,0.0,-0.0478059,
AgNd2Os,0.0,-0.0478047,
AgPr2Ir,0.0,-0.0478046,
SrPrPb,0.0,-0.0478032,
CrTe2Lu6,0.0,-0.047802,
GaEuPt,0.0,-0.0478016,
Ni2Ta2Os,0.0,-0.047799799999999996,
Te3SmBi,0.8906,-0.0477996,
CrAgPt2,0.0,-0.047798900000000005,
GaSn2Pb2,0.0,-0.0477982,
Dy,0.0,-0.0477962,
Zr3Ir2,0.0,-0.0477954,
AlAs2Hf6,0.0,-0.0477938,
Rh5Ir3,0.0,-0.047791,
AgLa2Ir,0.0,-0.047790799999999994,
RhLa2Hg,0.0,-0.047790599999999996,
NBrPu,0.0,-0.0477905,
Ge2Hf2Os,0.0,-0.0477898,
Pd2TbPb,0.0,-0.047789200000000004,
MnRh2U,0.0,-0.0477886,
Cd2BaHg2,0.0,-0.0477879,
Mn2SmPu,0.0,-0.047786499999999996,
CdSbPb,0.0,-0.047785600000000004,
AgLa2Pt,0.0,-0.0477853,
Cd5Au4,0.0,-0.0477852,
MgBaTl2,0.0,-0.0477825,
Pd2ErTl,0.0,-0.0477818,
MnPdAu2,0.0,-0.0477811,
MnGa2Hf6,0.0,-0.0477808,
InBa2Pb,0.0,-0.0477799,
ScAgTl2,0.0,-0.0477799,
RuLa2Hg,0.0,-0.047779800000000004,
Zn2PrIr3,0.0,-0.047779499999999996,
Te2Tb6W,0.0,-0.0477794,
Ge2LuPt2,0.0,-0.0477787,
Y2SnIr2,0.0,-0.0477784,
BCIrPa,0.0,-0.0477783,
OBrPu,0.0,-0.0477782,
SiRuTh,0.0,-0.047777700000000006,
Ge2Hf2Ir,0.0,-0.047777599999999996,
GaEr2Os,0.0,-0.0477775,
TeTm2,0.0,-0.0477768,
FeSb2Lu6,0.0,-0.0477766,
Zn2LaIr3,0.0,-0.0477763,
Te6Ta2Pt,0.0,-0.0477761,
CuRhIr2,0.0,-0.0477759,
BNPtPa,0.0,-0.0477757,
Si2TbIr3,0.0,-0.0477752,
NEr2Pb,0.0,-0.0477726,
ZnEu2Hg,0.0,-0.0477722,
La5Au,0.0,-0.047771999999999995,
Mo3Ta2,0.0,-0.047771299999999996,
Sn2Tb6Pt,0.0,-0.0477703,
CoTe2Lu6,0.0,-0.047769799999999994,
ScZrTl2,0.0,-0.047767899999999995,
Ag2Ho2Pb,0.0,-0.047766800000000005,
CrSb2Lu6,0.0,-0.0477665,
Al2RuHf6,0.0,-0.0477664,
Zn2PrPt3,0.0,-0.0477654,
In3Sm3Pt2,0.0,-0.047764600000000004,
CaBaAu2,0.0,-0.0477613,
Te3CsHfAu,0.0,-0.0477605,
Zn2LaPt3,0.0,-0.0477597,
Fe2Ta2Au,0.0,-0.047759300000000005,
ZnRuIr2,0.0,-0.047758499999999995,
Zr2AgIr2,0.0,-0.0477581,
CoRuW2,0.0,-0.0477576,
CuTm2Au,0.0,-0.0477553,
CoGa2Hf6,0.0,-0.047754899999999996,
Ge4Tm3Pt4,0.0,-0.047754399999999995,
In5AuTh,0.0,-0.047753500000000004,
In3Ce3Ir2,0.0,-0.0477524,
FeRhW2,0.0,-0.0477523,
MgLa2Tl2,0.0,-0.047751800000000004,
NiEr2Pt,0.0,-0.0477487,
LiCePt2,0.0,-0.047748399999999996,
TcTm3,0.0,-0.0477473,
Ba3Pt,0.0,-0.047747,
Te2PrAu,0.1396,-0.0477426,
MgPmAu2,0.0,-0.0477422,
MgSm2Os2,0.0,-0.047742,
NTm3Hg,0.0,-0.047741900000000004,
KCdPb2,0.0,-0.0477415,
FeAsU,0.0,-0.0477401,
In2ErIr,0.0,-0.0477399,
NEr3Tl,0.0,-0.0477399,
ZnPr3Au2,0.0,-0.047739699999999996,
In2ErPt,0.0,-0.047739199999999996,
GaEuIr,0.0,-0.0477391,
Ru2Dy3Au,0.0,-0.0477386,
OSePu,0.0,-0.0477385,
Sn2Nd2Pb,0.0,-0.0477357,
Ru2LuHf,0.0,-0.0477351,
Si2OsTh,0.0,-0.0477351,
Al3WTh2,0.0,-0.047734900000000004,
P3Eu2Pt4,0.0,-0.0477345,
LiTbAu2,0.0,-0.0477345,
LiTe2Pu,0.0,-0.0477343,
BScIr3,0.0,-0.0477338,
CoPdPt2,0.0,-0.0477333,
Fe2SmPu,0.0,-0.0477327,
Sr2InBi2,0.0,-0.0477326,
GeTmAu,0.0,-0.0477324,
ScZrPt2,0.0,-0.0477324,
LiSmPt2,0.0,-0.0477311,
ZnNbOs2,0.0,-0.047730800000000004,
NiRhPt2,0.0,-0.0477275,
CdBa2Bi,0.0,-0.0477273,
SiGdIr,0.0,-0.047727200000000004,
FeAgPt2,0.0,-0.0477266,
SrCdHg2,0.0,-0.0477265,
RbSb2Pt2,0.0,-0.0477258,
Y2SnPt2,0.0,-0.0477246,
CaLa2Au2,0.0,-0.0477244,
PmHo3,0.0,-0.0477242,
BCOsPa,0.0,-0.0477238,
Zn2Pt2Au,0.0,-0.0477236,
PdTeTl,0.0,-0.0477227,
CrGa2Hf6,0.0,-0.047721400000000004,
Zr3Os2,0.0,-0.047721400000000004,
NiGeNp,0.0,-0.0477179,
As4W5,0.0,-0.0477177,
As2Tm6Re,0.0,-0.0477167,
RhCdBi,0.0,-0.0477165,
Al2RhHf6,0.0,-0.0477165,
InPr2Hg,0.0,-0.047715200000000006,
SrSb2Au2,0.0,-0.047714599999999996,
In3Ce3Pt2,0.0,-0.0477145,
CoSb2Lu6,0.0,-0.047714,
GaTm2Hg,0.0,-0.047714,
Ga3Au2Th,0.0,-0.0477133,
GaCdTl2,0.0,-0.0477085,
CuErPb,0.0,-0.047707900000000004,
Rh2Dy3Au,0.0,-0.047706000000000005,
ZnMoPt2,0.0,-0.04770580000000001,
Se2IrBi,0.0,-0.0477046,
In2SnHg2,0.0,-0.0477044,
GaRu2U,0.0,-0.0477036,
GaHf2,0.0,-0.0477031,
Cd2InTl2,0.0,-0.0477029,
In5Tm4Ir2,0.0,-0.0477029,
In3Sm3Ir2,0.0,-0.047701799999999996,
Ag2GdHg,0.0,-0.0477013,
AsPr2Bi,0.0,-0.047699899999999996,
In5Tm4Pt2,0.0,-0.047699,
Fe2CePu,0.0,-0.047698500000000005,
NSnHf3,0.0,-0.0476982,
Zn2Au2Tl,0.0,-0.0476978,
MnAg2Pu,0.0,-0.0476965,
P3Pb4,0.0,-0.0476959,
AlSiTa4,0.0,-0.0476934,
Pd2NdBi,0.0,-0.0476931,
N2LuPu,0.0,-0.0476911,
SeRhHg2,0.0,-0.047690800000000005,
CuSb2Pa,0.0,-0.0476888,
CuRuPt2,0.0,-0.0476853,
Cd3EuAu2,0.0,-0.0476824,
Pd2Ho3Hg,0.0,-0.0476809,
SnTeAu,0.0,-0.047680799999999995,
RbBa2Hg2,0.0,-0.0476803,
GaSb2Lu6,0.0,-0.0476798,
CuZrIr2,0.0,-0.0476779,
Ni2Hf2Bi,0.0,-0.047677500000000005,
TiAgPt2,0.0,-0.047677300000000006,
MgTbHg2,0.0,-0.0476761,
Ag5Hg4,0.0,-0.0476747,
Pm3Gd,0.0,-0.0476729,
Ge2GdAu2,0.0,-0.0476719,
InBaHg,0.0,-0.0476696,
Cd2CsAu2,0.0,-0.047668,
AsLa2Bi,0.0,-0.0476671,
B2EuIr3,0.0,-0.0476669,
SeInHg2,0.0,-0.0476667,
Cu2Nd3Tl3,0.0,-0.0476653,
FAu2,0.0,-0.0476652,
NdTm,0.0,-0.0476638,
SbTe2Bi,0.1474,-0.0476633,
Pd2Dy3Pt,0.0,-0.0476612,
Ge2EuIr2,0.0,-0.0476611,
GeLuTa,0.0,-0.0476611,
Ag2SnAc,0.0,-0.0476603,
In6IrBi2,0.0,-0.0476602,
Sn2SmTl,0.0,-0.0476592,
CaGe2Re4,0.0,-0.0476575,
AgLu2,0.0,-0.0476571,
Sn2CeTl,0.0,-0.0476571,
ZnLa6Pb2,0.0,-0.0476563,
YRhBi,0.0,-0.047656199999999996,
ZnLa3Au2,0.0,-0.0476557,
LiAs2Ir2Th,0.0,-0.0476553,
NiGa2Hf6,0.0,-0.047654800000000004,
CuInPt2,0.0,-0.0476542,
CaPd2Au3,0.0,-0.047652,
Al3Ge2PdPu3,0.0,-0.047651200000000005,
Si2PtTh,0.0,-0.0476509,
MgNdAu2,0.0,-0.0476509,
Pd2TmAu,0.0,-0.0476502,
As2LaPb2,0.0,-0.0476501,
Sn2Pr2Pb,0.0,-0.047648499999999996,
Al2TmPt3,0.0,-0.0476483,
Ag2SbAu2,0.0,-0.047648,
MnYPt2,0.0,-0.0476478,
C2Hf3Tl,0.0,-0.0476476,
PPdTh,0.0,-0.0476474,
Cu2Au3,0.0,-0.0476467,
Ni2Ta2Pt,0.0,-0.0476453,
SiBaAu2,0.0,-0.047644,
Fe2ErU,0.0,-0.0476439,
ZnPd2Pu,0.0,-0.047643500000000005,
MgNd2Pt2,0.0,-0.0476416,
MgNd2Ir2,0.0,-0.0476415,
In6PtBi2,0.0,-0.0476399,
SrTbTl,0.0,-0.0476395,
GeEuHg,0.0,-0.0476392,
NiSb2Lu6,0.0,-0.0476381,
Tb3Er,0.0,-0.0476381,
Ca3Au5,0.0,-0.0476372,
AlITh,0.0,-0.047637099999999995,
Zr3Rh2Tl3,0.0,-0.047637099999999995,
Zr2AgPt2,0.0,-0.0476366,
FeCdPt2,0.0,-0.04763559999999999,
SiGdOs,0.0,-0.047631599999999996,
InLa2Hg,0.0,-0.0476309,
AgSm2Hg,0.0,-0.0476309,
AgPr2Os,0.0,-0.047629899999999996,
As2Pa,0.0,-0.047629399999999995,
ZnTcPt2,0.0,-0.0476289,
Sb2NdAu,0.0,-0.0476289,
Y2LaHg2,0.0,-0.0476287,
K2Tl2Pb,0.0,-0.0476272,
Zr2CdIr2,0.0,-0.0476267,
Sc2HfIr2,0.0,-0.0476265,
Cr3W4,0.0,-0.0476256,
SiY2Ir3,0.0,-0.0476242,
ZnRu2Np,0.0,-0.0476232,
Te2BaTl,0.0,-0.0476229,
TiMoW2,0.0,-0.0476216,
Sn2La2Pb,0.0,-0.0476205,
NdHo3,0.0,-0.04762039999999999,
MgGe2Th2,0.0,-0.0476173,
Co2TmU,0.0,-0.047616,
PdInPb,0.0,-0.0476143,
FeRhAu2,0.0,-0.0476139,
RbCdAu2,0.0,-0.0476136,
AlSmHg2,0.0,-0.0476134,
Pd2PrBi,0.0,-0.04761290000000001,
N2TaPa,0.0,-0.0476121,
RbSn2Tl2,0.0,-0.047611400000000005,
Cu3Pt2Th,0.0,-0.047611,
Sn2SmIr,0.0,-0.04761,
Si2AuPa,0.0,-0.0476097,
SiCo2Th2,0.0,-0.0476094,
Pd2Dy2Tl,0.0,-0.0476064,
SiGdPt,0.0,-0.047606,
PdTm3,0.0,-0.047605400000000006,
SInTh,0.0,-0.0476053,
Al3Si2IrU3,0.0,-0.0476052,
Te6DyU,0.0,-0.047604999999999995,
Zn3Nd4Au5,0.0,-0.047604799999999996,
AlCeHg2,0.0,-0.0476042,
NRuHf3,0.0,-0.047604,
Ru2TmTa,0.0,-0.0476027,
FeSb2Th,0.0,-0.047601700000000004,
CoRhW2,0.0,-0.0476016,
I3Bi,2.3269,-0.047599499999999996,
Ag4Au3,0.0,-0.0475993,
HI2Pu,0.0,-0.0475984,
KSn2Bi2,0.0,-0.0475972,
Mg2Pb3,0.0,-0.0475969,
TcLa3Tl,0.0,-0.0475963,
CrPdAu2,0.0,-0.047595799999999994,
AgLa2Os,0.0,-0.047595599999999995,
CaSb2Pb2,0.0,-0.0475945,
Tb5Tm,0.0,-0.0475936,
AlCu2Pa2,0.0,-0.0475935,
NHo3Pb,0.0,-0.0475928,
NaBa2Pb2,0.0,-0.047592300000000004,
PHfTa,0.0,-0.0475917,
LiAs2Pt2Th,0.0,-0.047591,
BrInHg2,0.0,-0.0475908,
NaDyHg2,0.0,-0.0475899,
ZnTmPb,0.0,-0.0475877,
ScCdTl2,0.0,-0.0475869,
NiRuW2,0.0,-0.0475868,
Mn3W4,0.0,-0.0475867,
Al3Si2OsU3,0.0,-0.047585999999999996,
NTm2Tl,0.0,-0.0475856,
AgNd2Au,0.0,-0.0475853,
Ge2Hf2Pt,0.0,-0.0475852,
Pd2LaBi,0.0,-0.0475844,
Ge2RhSm3Tl3,0.0,-0.0475841,
Si2WPa,0.0,-0.047584,
ScDyBi,0.0,-0.0475828,
KEuBi,0.0,-0.047582700000000006,
InTm3,0.0,-0.0475826,
Sb2LaAu,0.0,-0.047582099999999995,
In2TmAu,0.0,-0.047580800000000006,
Te2LaHg,0.0,-0.0475796,
Mn2ErU,0.0,-0.047579500000000004,
Rh2Ho2Hg,0.0,-0.0475792,
SbDyLu,0.0,-0.0475789,
In3Ce3Os2,0.0,-0.0475786,
MgPrAu2,0.0,-0.047578,
NaRhPb2,0.0,-0.0475763,
ZrSbIr,1.4305,-0.047576,
CuBa2Pt2,0.0,-0.047576,
Ni2BaIr3,0.0,-0.0475736,
Sb2PrAu,0.0,-0.0475725,
AlNd2Au2,0.0,-0.0475711,
SiRhTh,0.0,-0.0475699,
CoSb2Th,0.0,-0.0475692,
Zr3Tl2,0.0,-0.0475681,
Rh2AgAc,0.0877,-0.0475681,
Ba3Ir,0.0,-0.0475671,
CdLa2Ir,0.0,-0.0475664,
Co2Ta2Au,0.0,-0.047566000000000004,
Rh3Sn2Pu,0.0,-0.047566000000000004,
Cd2SbAc,0.0,-0.0475636,
In5Tm4Os2,0.0,-0.0475615,
NEr3Pt,0.0,-0.0475604,
CdLa2Pt,0.0,-0.047560200000000004,
Cu2Pr3Tl3,0.0,-0.047559199999999996,
I2Au,0.0,-0.047558500000000004,
InSbIr,0.0,-0.047558100000000006,
Ca2Au2Pb,0.0,-0.0475567,
BCPtPa,0.0,-0.0475562,
NiHf2,0.0,-0.047555799999999995,
Ag7Pt5,0.0,-0.0475552,
Ge2Hf2Re,0.0,-0.0475552,
CuZrPt2,0.0,-0.0475536,
K2BaHgBi2,0.0,-0.0475532,
PrHo3,0.0,-0.0475524,
Ag2Er2Tl,0.0,-0.047552300000000006,
MgLaAu2,0.0,-0.047550800000000004,
Pd3BaTl2,0.0,-0.0475507,
Mn2NdPu,0.0,-0.047549100000000004,
Rh2CePb,0.0,-0.0475484,
PdCdBi,0.0,-0.0475465,
CCl2U2,0.0,-0.047545000000000004,
MgInPb2,0.0,-0.047544800000000005,
TeBa2Ir,0.0,-0.0475434,
TeLu,0.0,-0.0475432,
Al2PdHf6,0.0,-0.047543,
Sb2Hg,0.0,-0.047542499999999994,
AgBaPt,0.0,-0.0475405,
CaAsPu,0.0,-0.0475404,
Rh2DyTl,0.0,-0.0475393,
ZnLuPt,0.0,-0.047539200000000004,
SCsPt2,0.0,-0.0475388,
OIAc,3.622,-0.047538,
YPdBi,0.045,-0.0475375,
AlGa3Ge2Pu3,0.0,-0.0475364,
CSnHf3,0.0,-0.0475361,
LiHoHg2,0.0,-0.047535600000000004,
Ni2BaPt3,0.0,-0.0475344,
NiHoPb,0.0,-0.047534,
Ag3Th,0.0,-0.0475336,
CuEr2Ir,0.0,-0.0475328,
Zr2CdPt2,0.0,-0.047531199999999996,
N2SPa2,0.0,-0.047531,
OBa4Bi2,0.4614,-0.047529800000000004,
CGe2W2Th,0.0,-0.0475252,
GeHoIr,0.0,-0.0475248,
Rh2HoPt,0.0,-0.0475231,
TiBi,0.0,-0.0475226,
NRhHf3,0.0,-0.0475225,
RuTe2Tm6,0.0,-0.0475224,
ZnLuIr,0.0,-0.047522100000000005,
Cu3GePu2,0.0,-0.0475201,
Sr4Rh2Tl5,0.0,-0.0475178,
NaBaTl2,0.0,-0.0475172,
La5Hg,0.0,-0.0475167,
Co3GeNp2,0.0,-0.0475161,
AsDyIr,0.0,-0.0475142,
Ca2Hg2Bi,0.0,-0.0475135,
H2CPu2,0.0,-0.0475135,
Se2CsNp,0.0,-0.0475103,
MgPr2Pt2,0.0,-0.0475101,
Al3Si2PtU3,0.0,-0.047509300000000004,
KTe2U,0.0,-0.047509300000000004,
Rb2InAu3,0.0,-0.0475087,
PdLa2Hg,0.0,-0.0475087,
ZnRhIr2,0.0,-0.0475086,
Ni3Au2Th,0.0,-0.047508299999999996,
KYPb2,0.0,-0.047508299999999996,
GaTmIr,0.0,-0.0475073,
NaSmAu2,0.0,-0.047506599999999996,
CaLuPb,0.0,-0.0475051,
Sn2SmPt,0.0,-0.0475034,
AlPmHg2,0.0,-0.047503100000000006,
CuEr2Pt,0.0,-0.0475017,
Fe2NdPu,0.0,-0.0475012,
AsDyPt,0.0,-0.0475009,
MgPr2Ir2,0.0,-0.0475003,
Ge3AuPu,0.0,-0.0475001,
Ge2Tm6Ir,0.0,-0.0475,
C3U2,0.0,-0.0474999,
SbTe3Lu4,0.0,-0.047498399999999996,
Rh2SmPb,0.0,-0.0474957,
Ru2Tb2Tl,0.0,-0.047494999999999996,
N2Sm7Pb3,0.0,-0.0474942,
B2TmIr3,0.0,-0.0474938,
RhTe2Tm6,0.0,-0.047493299999999995,
Na2PtBi2,0.0,-0.0474932,
Fe2TbNp,0.0,-0.047493,
LaHo3,0.0,-0.0474905,
Sc2HfPt2,0.0,-0.047490000000000004,
CoAsU,0.0,-0.0474891,
OEr3Tl,0.0,-0.0474874,
Te6TbU,0.0,-0.0474859,
B2TmOs3,0.0,-0.047483,
BRu6U2,0.0,-0.047482500000000004,
Rh2TmHg,0.0,-0.047481699999999995,
Ge2PdSm3Tl3,0.0,-0.0474812,
PDy2Bi,0.0,-0.047481,
I2Hg,1.0228,-0.0474803,
NOHo6Pb2,0.0,-0.0474799,
Sr2PtTl,0.0,-0.0474794,
KAs2Pt4,0.0,-0.0474782,
Ag2ErPb,0.0,-0.0474782,
LiLaPt2,0.0,-0.047476399999999995,
Al3Ge2IrTh3,0.0,-0.0474763,
P2Ir2Tl,0.0,-0.047476,
Se2TlPb,0.0,-0.0474759,
MgLa2Pt2,0.0,-0.0474754,
NbSnIr,0.6342,-0.047475,
NaLa2Tl2,0.0,-0.047475,
BBaPt2,0.0,-0.0474728,
CuRhPt2,0.0,-0.0474717,
Mn2PrPu,0.0,-0.0474711,
NaPdPb2,0.0,-0.047470799999999994,
GaTmPt,0.0,-0.0474701,
Al3Ge2OsTh3,0.0,-0.0474698,
Sn2NdTl,0.0,-0.0474677,
InSbPt,0.0,-0.0474672,
GeHoPt,0.0,-0.047466799999999996,
Rh2Tb2Tl,0.0,-0.0474667,
RuSb2Tm6,0.0,-0.047465600000000004,
SiCd2Pt3,0.0,-0.0474653,
PdBaHg,0.0,-0.047465200000000006,
SnBa2Tl,0.0,-0.0474639,
ZnLuTl,0.0,-0.0474636,
GaBi,0.0,-0.0474626,
ZnTe5Hg4,0.0,-0.0474623,
Ru2Tb3Pt,0.0,-0.047462000000000004,
Rh2CdAc,0.0,-0.0474619,
Rh5Pt3,0.0,-0.0474617,
AgCe2Hg,0.0,-0.047460999999999996,
Ge2Tm6Os,0.0,-0.0474582,
CuEr2Tl,0.0,-0.047458,
Rh2LuHf,0.0,-0.047458,
In2Pb,0.0,-0.0474564,
CoEr2Au,0.0,-0.047455199999999996,
AlPr2Au2,0.0,-0.047454500000000004,
Fe3W4,0.0,-0.0474542,
Ru2Dy3Hg,0.0,-0.0474536,
SiTcOs2,0.0,-0.047452100000000004,
SiMoOs2,0.0,-0.047451,
GePd2U,0.0,-0.0474473,
BTm3Tl,0.0,-0.0474462,
SbBa2Au,0.5499,-0.0474456,
Pd2HoTl,0.0,-0.0474452,
MgLa2Ir2,0.0,-0.0474435,
Te3Sm4Bi,0.0,-0.047441699999999996,
CuGa2Hf6,0.0,-0.0474412,
InTe3Au2,0.0,-0.0474409,
Co2Hf2Pb,0.0,-0.0474403,
Ge2Tm6Pt,0.0,-0.0474398,
GaEr2Au,0.0,-0.047439100000000005,
Ge3IrNp,0.0,-0.0474355,
Sn2DyHg,0.0,-0.0474346,
ClRuTh,0.0,-0.0474346,
AgPr2Au,0.0,-0.0474346,
BeSrAu3,0.0,-0.047433,
InTePt,0.0,-0.0474312,
LiLaOs2,0.0,-0.0474312,
HTePa,0.0,-0.0474307,
RhSb2Tm6,0.0,-0.0474302,
Ga2SbPt3,0.0,-0.047428899999999996,
NaCeAu2,0.0,-0.0474287,
Tc2Os,0.0,-0.0474282,
Si2Ir3,0.0,-0.0474269,
Zn2Hf3Hg,0.0,-0.0474259,
Ru2Tb3Ir,0.0,-0.047425800000000004,
ScAgPt2,0.0,-0.0474257,
Al2Dy3Tl3,0.0,-0.0474257,
Fe2PrPu,0.0,-0.0474245,
RbCd4Bi3,0.0,-0.0474242,
KLaHg2,0.0,-0.0474228,
Zr4W3,0.0,-0.0474222,
Mn2LaPu,0.0,-0.0474203,
CdBaPt,0.0,-0.0474184,
Co2Zr4Tl5,0.0,-0.047418,
CuGaPu,0.0,-0.0474177,
NaInPb2,0.0,-0.047417299999999996,
BEr3Pb,0.0,-0.0474165,
Rh2Dy3Hg,0.0,-0.0474163,
FITl2,1.6427,-0.047415900000000004,
Rh5W3,0.0,-0.047415599999999995,
La7Pb,0.0,-0.0474151,
Cd2SbAu2,0.0,-0.0474141,
YLaAu,0.0,-0.0474126,
In3Nd3Pt2,0.0,-0.0474124,
Ba3Au,0.0,-0.0474109,
In2HoPt,0.0,-0.047408900000000004,
RhSbPt,0.0,-0.0474083,
Ag2SnAu2,0.0,-0.0474082,
Al2ErPt3,0.0,-0.0474077,
Pd2Sn2Th,0.0,-0.0474075,
CaRhTl2,0.0,-0.047407,
SiY2Os3,0.0,-0.047407,
GaRh2U,0.0,-0.0474059,
In2HoIr,0.0,-0.0474056,
Si2CeIr3,0.0,-0.0474054,
Ge2EuPt2,0.0,-0.0474052,
Ag2EuTl,0.0,-0.0474034,
KSnTl2,0.0,-0.0474025,
NiPdPt2,0.0,-0.0474016,
LiAu2,0.0,-0.0474013,
ScRhAu2,0.0,-0.047401000000000006,
SbLu,0.0,-0.0474008,
BTa2,0.0,-0.047400700000000004,
SiY2Pt3,0.0,-0.0474005,
Cu2EuPb2,0.0,-0.047399500000000004,
Sn2NdIr,0.0,-0.0473989,
AgPm2Hg,0.0,-0.0473979,
AlNdHg2,0.0,-0.0473977,
NaPmAu2,0.0,-0.0473945,
ZnZrIr2,0.0,-0.0473941,
AlLaHg2,0.0,-0.0473938,
ZnNbPt2,0.0,-0.047392899999999995,
ZnInIr2,0.0,-0.047392699999999996,
Zn2GaTh2,0.0,-0.0473924,
CHo2Bi,0.0,-0.0473915,
Si2SmIr3,0.0,-0.0473915,
ZnTm2Au,0.0,-0.0473903,
FeNd6Tl2,0.0,-0.0473899,
KTe2Pb2,0.0,-0.047387399999999996,
CdInBi,0.0,-0.0473855,
Sn2LaTl,0.0,-0.0473846,
Al3Ge2PtTh3,0.0,-0.0473832,
AlLa2Au2,0.0,-0.0473826,
AgLa2Au,0.0,-0.0473825,
CuCdTh,0.0,-0.0473817,
NiSb2Th,0.0,-0.047377899999999994,
CuEr2Os,0.0,-0.047375799999999996,
ZnSbAu2,0.0,-0.047374400000000004,
MgSm2Au2,0.0,-0.0473729,
OCdSbPu,0.0,-0.047372199999999996,
Ni2Pu,0.0,-0.047371699999999996,
SiBrPu,0.0,-0.0473716,
ZrRhPb,0.0,-0.047370800000000005,
Fe2LaPu,0.0,-0.0473698,
Pd2EuHg,0.0,-0.0473696,
AlHfAu,0.0,-0.0473695,
CdLa2Os,0.0,-0.047368,
GaYPt2,0.0,-0.047368,
TiInAu2,0.0,-0.047367,
Pd2Dy3Au,0.0,-0.0473665,
NiRhW2,0.0,-0.0473657,
Zr2InAu2,0.0,-0.0473652,
AlPdPa,0.0,-0.0473635,
In3BaIr2,0.0,-0.0473585,
Si4Hf3Pt4,0.0,-0.0473581,
CoAgPt2,0.0,-0.0473564,
Tc2Ir,0.0,-0.0473562,
CoNd6Tl2,0.0,-0.0473543,
CeEr,0.0,-0.047353400000000004,
Ge2TmIr2,0.0,-0.0473532,
Cd5Pb3,0.0,-0.0473528,
InSnGd2,0.0,-0.0473513,
GaAgPt2,0.0,-0.0473508,
NiBi,0.0,-0.0473504,
Cu2Au2Hg,0.0,-0.0473484,
Sn2NdPt,0.0,-0.0473483,
Rh2PmPb,0.0,-0.0473482,
PdTe2Tm6,0.0,-0.0473428,
ZnInPt2,0.0,-0.0473428,
Te2Ta,0.0,-0.0473417,
MgNd2Os2,0.0,-0.0473414,
In3Nd3Ir2,0.0,-0.04734,
GeHoOs,0.0,-0.047339799999999994,
NaTbHg2,0.0,-0.047339599999999996,
AsSrTl2,0.0,-0.0473394,
ZnBa2Pt2,0.0,-0.0473393,
In3Sm3Au2,0.0,-0.0473392,
Ge2YIr3,0.0,-0.0473383,
CaSnPt2,0.0,-0.0473378,
Sn2PrIr,0.0,-0.0473364,
Ca2Pt2Tl,0.0,-0.047334,
Y2InTl2,0.0,-0.0473328,
Cl2AsTh2,0.0,-0.047332700000000005,
CEr2Pb,0.0,-0.047332700000000005,
Cd2LuPt,0.0,-0.0473316,
SnTe2Bi,0.0,-0.047330800000000006,
Si2ReTh,0.0,-0.0473299,
SGePu,0.0,-0.0473298,
Ga2Ta2W,0.0,-0.047328699999999994,
NInTh,0.0,-0.0473281,
AlPrHg2,0.0,-0.0473279,
SiMoIr2,0.0,-0.0473278,
Rh2La2Bi,0.0,-0.047326900000000005,
TeEu,0.0,-0.0473238,
MgHg2,0.0,-0.0473231,
Cu2ZnTh2,0.0,-0.0473207,
Sb2Ba2Bi,0.0,-0.0473206,
Ge3OsNp,0.0,-0.0473192,
Ag2Tm2Hg,0.0,-0.0473187,
SrYHg2,0.0,-0.047317500000000005,
Pd2Pb,0.0,-0.0473159,
CaRu2Pu,0.0,-0.0473151,
CoHo2Ir,0.0,-0.0473144,
AlRu2Pu,0.0,-0.047314100000000005,
AgBaAu,0.0,-0.047313499999999994,
Sb3Tm5,0.0,-0.047312,
SrCd2Pb2,0.0,-0.0473106,
Ge2RhNd3Tl3,0.0,-0.0473091,
CHo3Pb,0.0,-0.0473074,
NaEu2Pb,0.0,-0.0473051,
NiTe2Tl2,0.0,-0.0473041,
Cu2BaPt3,0.0,-0.0473036,
Sn2Sm2Tl,0.0,-0.0473036,
RhIn3Sm3Pb2,0.0,-0.0473029,
Fe2HoU,0.0,-0.047302300000000005,
CoCeBi,0.2914,-0.0473019,
P2FeTh2,0.0,-0.0473011,
Te3BaLuAu,0.4562,-0.0473011,
Tb3Ho,0.0,-0.047300800000000004,
Cl2SeTh2,0.0,-0.047300800000000004,
Al3Ge2AgPu3,0.0,-0.047299,
Sn2PrPt,0.0,-0.0472988,
In3Hg2,0.0,-0.0472978,
ScRu2U,0.0,-0.0472969,
Al3Ge2ReTh3,0.0,-0.0472961,
CaRh2Bi2,0.0,-0.0472956,
InLa3Os,0.0,-0.0472953,
SbErTm,0.0,-0.047294600000000006,
Ag2Dy2Pb,0.0,-0.0472944,
In3Pr3Pt2,0.0,-0.0472939,
SnTe3Lu4,0.0,-0.0472924,
CoRhAu2,0.0,-0.047290399999999996,
SiMoTh,0.0,-0.047289000000000005,
NaNdAu2,0.0,-0.0472888,
Zr3Pd2Tl3,0.0,-0.047288699999999996,
MnAgAu2,0.0,-0.0472877,
CoSn2Lu6,0.0,-0.0472853,
PdSbIr,0.0,-0.0472832,
LiPtHg,0.0,-0.0472832,
MgLu2Tl,0.0,-0.047283,
GaCdPt2,0.0,-0.0472826,
CaPdTl2,0.0,-0.0472807,
CdLu2,0.0,-0.047279299999999996,
CdCe2Hg,0.0,-0.0472785,
CBrPu,0.0,-0.047277,
Zn3Au2U,0.0,-0.047275,
Pd4U,0.0,-0.0472748,
Pd2Ho2Hg,0.0,-0.0472742,
CdIn2Au2,0.0,-0.0472742,
Cd2InPt2,0.0,-0.0472741,
I4EuPb,0.4979,-0.047273499999999996,
ZnRhPt2,0.0,-0.0472728,
AlEu2Tl,0.0,-0.0472708,
P2CoTh2,0.0,-0.0472703,
ScCdPt2,0.0,-0.0472703,
AlFe2Th2,0.0,-0.047269799999999994,
ScInAu2,0.0,-0.0472695,
Co2SmPu,0.0,-0.0472693,
CoCdPt2,0.0,-0.047268500000000005,
S2PtTl2,0.0,-0.047268500000000005,
CuHoPb,0.0,-0.0472659,
Rh2TbTl,0.0,-0.0472631,
AgCsTl,0.0,-0.0472626,
ScTcW2,0.0,-0.047262399999999996,
YIn2Au2,0.0,-0.047262,
Na2AuBi2,0.0,-0.047261899999999996,
CaInTl2,0.0,-0.0472614,
Se2Th,0.387,-0.0472591,
TiPdAu2,0.0,-0.047259,
Rh2NdPb,0.0,-0.0472584,
Si2NdIr3,0.0,-0.0472579,
CoHo2Pt,0.0,-0.0472574,
NiEr2Au,0.0,-0.0472557,
CoDyPb,0.0,-0.0472551,
CuGeNp,0.0,-0.0472545,
In3La3Pt2,0.0,-0.047252899999999994,
Rh2Sm2Pb,0.0,-0.0472517,
Sr2CdBi2,0.0866,-0.0472514,
B2ErIr3,0.0,-0.0472459,
GeErAu,0.0,-0.0472434,
NPdHf3,0.0,-0.0472425,
Ge2TmOs2,0.0,-0.0472423,