formula,bg,formation_energy,mp-id
Pd2SbAc,0.0,-0.0490875,
CaPdPb2,0.0,-0.0490867,
Ga2Ir2Au,0.0,-0.049086599999999994,
CuSrBi2,0.0,-0.0490837,
ZnBaPt2,0.0,-0.049082799999999996,
Si2PtU,0.0,-0.0490827,
Te2Tl,0.0,-0.0490808,
GaGdAu,0.0,-0.0490783,
PdSm2Pt,0.0,-0.0490774,
Fe2PrPt3,0.0,-0.0490768,
Pd2HoBi,0.0,-0.0490767,
RuLu2,0.0,-0.049075299999999995,
NaEuHg2,0.0,-0.0490752,
NbRuBi,0.3832,-0.049075099999999997,
Ru2Er3Au,0.0,-0.049074599999999996,
Ru2GdTa,0.0,-0.0490744,
ZnHfAu,0.0,-0.0490727,
Zn2PtTh,0.0,-0.049071399999999994,
TcLa3Bi,0.0,-0.0490713,
RbPd2Bi2,0.0,-0.04907,
SbTeIr,0.5628,-0.049069800000000004,
Cu3Pt2Np,0.0,-0.0490696,
Fe2LaPt3,0.0,-0.049069499999999995,
Al2Sm3Pt4,0.0,-0.049069499999999995,
Cd2InPb2,0.0,-0.0490672,
AsSrPb2,0.0,-0.049066000000000005,
CdNdPt,0.0,-0.0490646,
RhLaHg,0.0,-0.049064100000000006,
In3Dy3Pt2,0.0,-0.049063899999999994,
GaSnTl2,0.0,-0.0490636,
DyEr,0.0,-0.049063,
Rh2ErPb,0.0,-0.0490627,
CTaW,0.0,-0.0490617,
SiSm2Os2,0.0,-0.0490617,
LiHgPb,0.0,-0.0490615,
MnNbOs2,0.0,-0.0490607,
SnBaAu,0.0,-0.049060400000000004,
In3Ho3Au2,0.0,-0.0490599,
AlErHg2,0.0,-0.0490593,
Pd2TmPb,0.0,-0.0490586,
NaLa2Pb2,0.0,-0.049058,
Rh2DyBi,0.0,-0.0490572,
Sr2AuBi,0.3856,-0.0490571,
Co2SmIr3,0.0,-0.049056800000000005,
In2BaHg2,0.0,-0.0490561,
Ag2CsTl2,0.0,-0.0490538,
AsAgTl2,0.0,-0.0490536,
CaInPb2,0.0,-0.049053400000000004,
InNdHg,0.0,-0.0490516,
MgTb2Ir2,0.0,-0.0490511,
Zn3Pt2Pu,0.0,-0.0490503,
La4Pt,0.0,-0.0490497,
MgHoAu2,0.0,-0.0490486,
SnTe4Bi2,0.2602,-0.0490482,
Te2Lu3,0.0,-0.049047600000000004,
SrRu2U,0.0,-0.0490471,
RbTe2Th,0.0,-0.0490461,
CdTbHg,0.0,-0.0490426,
AgPr2Pb,0.0,-0.0490426,
SSbTh,0.0,-0.0490419,
Sn2ErIr,0.0,-0.0490367,
Cd2PrAc,0.0,-0.0490359,
Rh2Er3Au,0.0,-0.0490334,
CaCeAu2,0.0,-0.049032200000000005,
Fe2GaTh2,0.0,-0.049032200000000005,
YTeBi,0.0,-0.0490319,
Fe3GePu2,0.0,-0.0490317,
InPrHg,0.0,-0.049031599999999995,
ZnPr2Os2,0.0,-0.0490307,
CTm3Pb,0.0,-0.049030000000000004,
GeY2Ir3,0.0,-0.049030000000000004,
Ga2NdIr3,0.0,-0.0490298,
LiTmAu2,0.0,-0.0490292,
ZnAgPb2,0.0,-0.049028100000000005,
Sn6PrAu4,0.0,-0.0490279,
Ge2BaIr3,0.0,-0.049026400000000005,
Sb2Ir,0.5533,-0.049024099999999994,
RbSn2Pb2,0.0,-0.0490238,
RhLu2,0.0,-0.0490226,
Pd2LuTl,0.0,-0.0490221,
Sb2LaPb,0.0,-0.0490195,
RhPm2Pt,0.0,-0.0490194,
Ag6Pt5,0.0,-0.0490191,
RuPdHf2,0.0,-0.049018500000000007,
NPdTa3,0.0,-0.0490173,
Ga2SmPt3,0.0,-0.0490171,
FeCo2Th2,0.0,-0.049017000000000005,
In3Dy3Ir2,0.0,-0.049015,
SiSmAu2,0.0,-0.049014499999999996,
MgTb2Pt2,0.0,-0.0490142,
Rh3BaPb2,0.0,-0.0490141,
MnNbIr2,0.0,-0.0490135,
TcPdHf2,0.0,-0.0490123,
CoSb2U,0.0,-0.0490115,
SeSbAu2,0.0,-0.0490101,
PCuTa4,0.0,-0.0490086,
Te2Dy6Ir,0.0,-0.0490083,
RhPm2Ir,0.0,-0.049006999999999995,
Te2Os,0.5852,-0.0490069,
FeNd6Bi2,0.0,-0.0490069,
HCdPt3,0.0,-0.049006100000000004,
Y2LaPt2,0.0,-0.049006,
Sn2Ho2Tl,0.0,-0.0490052,
AsSbAu2,0.0,-0.0490031,
CaPmAu2,0.0,-0.0490024,
Se2U,0.0,-0.0490022,
NiInTh,0.0,-0.0490013,
Ca3Pt2Tl3,0.0,-0.0490011,
AsTeAu2,0.0,-0.0489994,
Cd2LaAc,0.0,-0.0489984,
Te3Dy4Bi,0.0,-0.048996899999999996,
Ga2CePt3,0.0,-0.0489956,
Te2SmTl,0.2241,-0.048995199999999996,
PdNdHg,0.0,-0.0489942,
MgDy3Os2,0.0,-0.0489932,
LiHoPt2,0.0,-0.0489927,
BCPtNp,0.0,-0.048991599999999996,
Ni2TbPt3,0.0,-0.0489891,
GaRh2Pu,0.0,-0.0489884,
Ti2Pt2Hg,0.0,-0.0489884,
Cd5Tl4,0.0,-0.048988199999999996,
Ho,0.0,-0.048987499999999996,
CrRhOs2,0.0,-0.0489865,
Co2Zr4Pb5,0.0,-0.048986299999999997,
SnSm2Hg,0.0,-0.0489859,
Cu3Au5,0.0,-0.0489847,
ZnSm2Au2,0.0,-0.0489845,
Ga2PrIr3,0.0,-0.0489835,
ZnCeHg2,0.0,-0.0489834,
SeTeAu2,0.0,-0.0489826,
SbTeOs,0.9138,-0.0489822,
Ga2Pt2Au,0.0,-0.0489816,
Zn2OsTh,0.0,-0.0489804,
LiBaPb2,0.0,-0.0489793,
Pd2Er3Pt,0.0,-0.0489778,
NaErAu2,0.0,-0.0489773,
ZnSnTh,0.0,-0.048976599999999995,
Ga2LaIr3,0.0,-0.0489742,
RuPm2Pt,0.0,-0.048973300000000004,
In2LuIr,0.0,-0.048972499999999995,
MgCeTl2,0.0,-0.0489717,
Te2Dy6Pt,0.0,-0.0489715,
RbCsHg2,0.0,-0.048971200000000006,
Ag2SnTh,0.0,-0.0489687,
Mn2HoPu,0.0,-0.0489687,
RuPm2Ir,0.0,-0.0489657,
AgLa2Pb,0.0,-0.0489647,
K2AuBi2,0.0,-0.048963099999999996,
TiRuIr2,0.0,-0.0489625,
In5IrU,0.0,-0.0489621,
CdPrPt,0.0,-0.0489607,
Te2CeTl,0.0,-0.0489606,
BNdPt2,0.0,-0.0489596,
In2LuPt,0.0,-0.048959499999999996,
InBaTl,0.0,-0.0489589,
SiRuPa,0.0,-0.0489582,
LiTbTl2,0.0,-0.0489576,
CdNd2Pb,0.0,-0.048956400000000004,
ZnLa2Os2,0.0,-0.0489563,
HAgPt3,0.0,-0.0489553,
Si2CdTh2,0.0,-0.0489553,
CdNdIr,0.0,-0.048954700000000004,
Te2Dy6Os,0.0,-0.04895,
SiCeAu2,0.0,-0.0489493,
MgSmTl2,0.0,-0.0489492,
Sn2ErOs,0.0,-0.048948900000000004,
S2TlPa,0.0,-0.048946800000000006,
LiKPt4,0.0,-0.0489461,
AsBrHg3,0.0,-0.0489457,
Te2Ir,0.0,-0.048945,
La4Os,0.0,-0.048940199999999996,
Br2Hg3,0.964,-0.048940199999999996,
MnAs2Hf6,0.0,-0.048940199999999996,
FeAs2Hf6,0.0,-0.0489401,
Sb2Dy6Ir,0.0,-0.0489398,
Ge2HfRe2,0.0,-0.048939100000000006,
CoNd6Bi2,0.0,-0.0489388,
Ru2Er2Tl,0.0,-0.048938499999999996,
PdPm2Tl,0.0,-0.048936799999999996,
Zr3Rh2Pb3,0.0,-0.0489362,
SnNd2Au,0.0,-0.048936,
Zn2Au2Bi,0.0,-0.0489326,
InLaHg,0.0,-0.048931800000000004,
GaTe2U,0.0,-0.0489313,
GaEu2Au,0.0,-0.048931199999999994,
Zr2SbPt2,0.0,-0.0489295,
CdLaPt,0.0,-0.0489292,
BePt2,0.0,-0.0489292,
TiSnPt2,0.0,-0.0489272,
MnMoPt2,0.0,-0.0489267,
Ni2CeOs3,0.0,-0.0489264,
CaTbHg2,0.0,-0.0489261,
Rh2Er2Tl,0.0,-0.0489245,
OITh,0.4795,-0.048922400000000005,
MgTmHg2,0.0,-0.0489213,
TeCsAu,1.0091,-0.0489207,
Ba2LaTl,0.0,-0.048917499999999996,
CoMoOs2,0.0,-0.048916400000000006,
Rh5Ta4,0.0,-0.048915999999999994,
Ni2CeIr3,0.0,-0.048912399999999995,
CoAs2Hf6,0.0,-0.0489116,
SbTmLu,0.0,-0.048909,
KAuHg,0.0,-0.048908599999999997,
ZnInPa,0.0,-0.0489073,
In5PtU,0.0,-0.048907200000000005,
I2Sm2Pb,0.0,-0.048906,
ZnTa2,0.0,-0.0489059,
FeRuIr2,0.0,-0.0489058,
Sb2Os,0.3732,-0.048905500000000005,
Co2NdIr3,0.0,-0.0489053,
SnCe2Hg,0.0,-0.0489042,
NaAuTl,0.0,-0.0489039,
ZnPmHg2,0.0,-0.0489034,
SbLa2Hg,0.0,-0.0489026,
Sb2Dy6Pt,0.0,-0.048899500000000005,
PdPrHg,0.0,-0.0488983,
Sb2Tl,0.0,-0.048896,
Fe2LuU,0.0,-0.0488947,
CaNdAu2,0.0,-0.0488944,
Sn2Tb2Pb,0.0,-0.0488941,
NiNd6Bi2,0.0,-0.048894,
AlFe2Pa2,0.0,-0.0488933,
Fe2HoPu,0.0,-0.048893,
CLu2Tl,0.0,-0.0488926,
Ag2Tm2Pb,0.0,-0.0488926,
ScRu2Pu,0.0,-0.0488906,
SeNdBi,0.0,-0.0488889,
In2CsAu2,0.0,-0.0488887,
NaSiAc2,0.0,-0.048887599999999996,
Nb2InIr2,0.0,-0.0488874,
Co2GaTh2,0.0,-0.048887099999999996,
Pd2Te2Lu7,0.0,-0.048887,
Se3Te3Bi4,0.1051,-0.0488863,
MnAsNp,0.0,-0.048885899999999996,
GaCdPa,0.0,-0.0488858,
Tb3Lu,0.0,-0.048885599999999994,
ZnSm3Pt2,0.0,-0.0488832,
Sb2Dy6Os,0.0,-0.0488831,
SiHfPt,0.0,-0.048881999999999995,
Ga2NdPt3,0.0,-0.048879399999999996,
GeLuAu,0.0,-0.0488793,
SeLaBi,0.0,-0.048877899999999995,
KSn2Pt3,0.0,-0.0488763,
N2Tb7Pb3,0.0,-0.0488752,
ScSnIr2,0.0,-0.048874299999999996,
Sb2HoAu,0.0,-0.048872700000000005,
Cu2Tb3Tl3,0.0,-0.0488725,
CrAs2Hf6,0.0,-0.0488721,
La5Pb,0.0,-0.048871899999999996,
ZnSm3Ir2,0.0,-0.0488714,
Sr2TlPb,0.0,-0.0488711,
Zn2ErPt3,0.0,-0.048870399999999994,
AsTmIr,0.0,-0.0488703,
BPrPt2,0.0,-0.0488675,
Ga2Ir2Hg,0.0,-0.0488672,
SiNd2Ir2,0.0,-0.0488669,
GeHf2,0.0,-0.048866599999999996,
FeSe2Hf6,0.0,-0.048866599999999996,
MnRhIr2,0.0,-0.048865900000000004,
In3IrTl,0.0,-0.0488655,
Sb2Pt,0.0,-0.0488646,
Pd2SnAc,0.0,-0.0488644,
PdLaHg,0.0,-0.0488636,
SeBrU,0.0,-0.0488623,
AlMn2Pa2,0.0,-0.0488606,
BTaPt,0.0,-0.0488605,
MnNi2Th2,0.0,-0.0488604,
RhSm2Au,0.0,-0.0488592,
InNd2Tl,0.0,-0.048858,
CoMoIr2,0.0,-0.0488571,
SmEr3,0.0,-0.048857,
SbCeHf,0.0,-0.048856699999999996,
GeInPt2,0.0,-0.0488563,
GeZrIr2,0.0,-0.0488546,
GaSnPt2,0.0,-0.0488526,
Co2PrIr3,0.0,-0.048852200000000005,
Te2DyAu,0.1313,-0.0488517,
Ga2Hg2Pb,0.0,-0.0488503,
GeRuPt2,0.0,-0.0488494,
CdPrIr,0.0,-0.0488484,
CdLaIr,0.0,-0.048848300000000004,
Al2Dy3Pb3,0.0,-0.0488474,
CdSmAu,0.0,-0.0488463,
CeEr3,0.0,-0.0488463,
RuPd2Hf3,0.0,-0.048845599999999996,
MgPmTl2,0.0,-0.048844900000000004,
Ag2CdPb2,0.0,-0.048842500000000004,
CrRhIr2,0.0,-0.048840600000000005,
RhBaTl,0.0,-0.0488404,
RuSm2Au,0.0,-0.04884,
GeY2Pt3,0.0,-0.0488394,
CrMoRe2,0.0,-0.048838900000000005,
MnRuRe2,0.0,-0.0488385,
Co2LaIr3,0.0,-0.0488377,
Ga2Au2Tl,0.0,-0.0488376,
TiRhIr2,0.0,-0.0488375,
Sc2Pt2Au,0.0,-0.0488374,
Ag2SbTl2,0.0,-0.048837000000000005,
RhInBi,0.0,-0.048836,
Pd2Ho2Pb,0.0,-0.0488359,
GeGdTa,0.0,-0.0488352,
Ga2PrPt3,0.0,-0.0488349,
Zr2SnIr2,0.0,-0.0488338,
CdPr2Pb,0.0,-0.0488337,
NaInBi2,0.0,-0.048833100000000004,
CTm2Bi,0.0,-0.048832900000000005,
PdPm2Ir,0.0,-0.0488325,
Ge4Lu3Ir4,0.0,-0.0488317,
ZnSb2Np,0.0,-0.048831200000000005,
SrAg2Bi2,0.0,-0.0488308,
Nb2HfTa,0.0,-0.0488305,
SiTe7Bi4,0.3537,-0.04883,
FePr6Bi2,0.0,-0.048829,
CoSe2Hf6,0.0,-0.0488272,
Rh3Re2,0.0,-0.0488266,
Cu2DyPt3,0.0,-0.0488265,
SiNi2Pa2,0.0,-0.0488257,
GaAs2Hf6,0.0,-0.048825600000000004,
PHg2,0.0,-0.0488244,
Ga2LaPt3,0.0,-0.0488243,
PdPm2Pt,0.0,-0.0488232,
SePrBi,0.0,-0.0488228,
CaPrAu2,0.0,-0.0488222,
YRu2Th,0.0,-0.0488221,
PdBaTl,0.0,-0.048820999999999996,
BLaPt2,0.0,-0.0488199,
Al2GdPt3,0.0,-0.0488194,
I2Ce2Pb,0.0,-0.0488168,
CoSm6Pb2,0.0,-0.0488156,
MnRu2Np,0.0,-0.0488144,
NiAs2Hf6,0.0,-0.048814100000000006,
Co3Th2,0.0,-0.048814,
AgTb2Hg,0.0,-0.0488129,
NiSb2U,0.0,-0.048811999999999994,
NiPdTh,0.0,-0.0488113,
Ge2CePu,0.0,-0.048810099999999995,
HRuTa2Pt,0.0,-0.0488098,
Pd2GdHg,0.0,-0.048808500000000005,
SrYPt2,0.0,-0.048806800000000004,
AsTmPt,0.0,-0.0488067,
Sn3Ce3Ir2,0.0,-0.048805,
NiGePu,0.0,-0.048804299999999995,
AlSm2Ir2,0.0,-0.0488006,
GeNbPt2,0.0,-0.048799999999999996,
In6DyPt4,0.0,-0.0487995,
SnPr2Au,0.0,-0.048799,
BrCs2Tl2,0.0,-0.0487984,
CoTm2Ir,0.0,-0.0487981,
Ru2AgHf3,0.0,-0.048798,
RhPdHf2,0.0,-0.0487977,
ZnNdHg2,0.0,-0.0487975,
AsEuAu,0.0,-0.0487958,
Rh2LuAu,0.0,-0.048795200000000004,
Ge2BaPt3,0.0,-0.0487945,
CaLaAu2,0.0,-0.0487944,
Cd2BaPt2,0.0,-0.048793300000000005,
MnLa6Bi2,0.0,-0.0487932,
TiNbOs2,0.0,-0.048792999999999996,
NEu3Au,0.0,-0.048792999999999996,
CuEu2Pt,0.0,-0.0487929,
BeWIr,0.0,-0.0487928,
AsYTl2,0.0,-0.0487926,
FeTcRe2,0.0,-0.0487921,
Si2EuIr3,0.0,-0.0487919,
KTe2Au3,0.5278,-0.0487915,
Te2NdTl,0.2434,-0.0487911,
BaLa2Hg,0.0,-0.0487885,
Rh2TbBi,0.0,-0.048787199999999996,
AgCs2Hg2,0.0,-0.048787,
In5Hg4,0.0,-0.0487867,
SeTe2Th,0.0,-0.0487854,
GeEuIr,0.0,-0.0487849,
Sn3Sm3Pt2,0.0,-0.048783700000000006,
Dy3Tm,0.0,-0.048783299999999995,
AlCe2Ir2,0.0,-0.048782400000000004,
RuLa2Tl,0.0,-0.048781,
YHg,0.0,-0.0487809,
LiLa2Pb2,0.0,-0.0487808,
FeMoPt2,0.0,-0.0487794,
SiNdAu2,0.0,-0.0487792,
Pd2DyBi,0.0,-0.0487788,
ScTmBi,0.0,-0.0487782,
Cd2CsTl2,0.0,-0.0487731,
Ni2Pt3,0.0,-0.0487709,
SnPm2Hg,0.0,-0.0487705,
NaCeTl2,0.0,-0.048770400000000005,
CdLa2Pb,0.0,-0.0487701,
RhLa2Tl,0.0,-0.04877,
CoTcIr2,0.0,-0.0487686,
ZnEu2Tl,0.0,-0.0487682,
RhNd2Pt,0.0,-0.048767200000000004,
CaBa2Pb2,0.0,-0.048764499999999995,
FeRuRe2,0.0,-0.0487628,
CoPr6Bi2,0.0,-0.0487628,
TiGePu,0.0,-0.0487622,
CdCeAu,0.0,-0.0487618,
Rb2SrHgBi2,0.0,-0.0487611,
Cu2HgTh,0.0,-0.048760599999999994,
FeIn2Pu,0.0,-0.0487576,
FeAsNp,0.0,-0.0487573,
Te2Pt,0.0,-0.048756100000000004,
In4Ba3Au4,0.0,-0.048755200000000005,
Te2LaTl,0.7694,-0.048755,
MoPdHf2,0.0,-0.048755,
K2HgBi2,0.0,-0.0487549,
ZnCdPb2,0.0,-0.048753700000000004,
Te2Dy6Re,0.0,-0.0487522,
MgDy2Au2,0.0,-0.048751800000000005,
P2RhHf6,0.0,-0.0487517,
Al2Nd3Pt4,0.0,-0.0487513,
SbTePt,0.0,-0.0487498,
NaPdBi2,0.0,-0.0487494,
MgNdTl2,0.0,-0.0487488,
MgGd2Os,0.0,-0.0487459,
MgDyAu2,0.0,-0.0487438,
LiCaAu4,0.0,-0.0487429,
PmEr3,0.0,-0.0487412,
MgTb2Os2,0.0,-0.0487408,
Ru3W2,0.0,-0.0487397,
Rh2Tm2Hg,0.0,-0.0487394,
RhNd2Ir,0.0,-0.0487391,
Pd2BaHg2,0.0,-0.0487391,
Ge2GdIr2,0.0,-0.048738,
Te2Dy6Au,0.0,-0.0487378,
In6DyIr4,0.0,-0.048737499999999996,
Rh2Er3Hg,0.0,-0.0487372,
Y2InPb2,0.0,-0.0487363,
CoTm2Pt,0.0,-0.048734900000000005,
AsSeU,0.0,-0.0487335,
SnLa2Au,0.0,-0.048732399999999995,
ScSnPt2,0.0,-0.048732199999999996,
PEr2Bi,0.0,-0.0487313,
Te2PrTl,0.2682,-0.048730800000000005,
InPr2Tl,0.0,-0.048730499999999996,
AlHoHg2,0.0,-0.0487286,
La4Au,0.0,-0.0487284,
ZnSrBi2,0.0,-0.048728299999999995,
SiPr2Ir2,0.0,-0.0487245,
BGa2Os2Np,0.0,-0.0487237,
NiSe2Hf6,0.0,-0.0487237,
Cs2Pt,1.3374,-0.048723100000000005,
Ag2GdTl,0.0,-0.0487229,
Zr4Tl3,0.0,-0.0487227,
AlSm2Pt2,0.0,-0.048721400000000005,
NiPr6Bi2,0.0,-0.0487211,
NiHoBi,0.1986,-0.048717300000000005,
CaLa2Tl2,0.0,-0.0487166,
MgLaTl2,0.0,-0.048715,
Ni2NdOs3,0.0,-0.048713099999999995,
BeYAu3,0.0,-0.048712899999999996,
Rh2HoPb,0.0,-0.0487124,
ZnTm2Pb,0.0,-0.048712000000000005,
FeTcPt2,0.0,-0.048712000000000005,
SiRhPa,0.0,-0.0487106,
ZnLuPb,0.0,-0.04871,
Ba2LaPt,0.0,-0.0487096,
Sn2HoIr,0.0,-0.048709,
B2Sr3Ir7,0.0,-0.0487089,
Al3Si2IrNp3,0.0,-0.048706400000000004,
Ni2NdIr3,0.0,-0.0487049,
YCsBi,0.0,-0.0487021,
InSn6Ir4,0.0,-0.0487017,
MnNbPt2,0.0,-0.0487015,
ZnLaHg2,0.0,-0.0487009,
LiPtTl,0.0,-0.048699599999999996,
CrRuPt2,0.0,-0.048699,
Co2NiTh2,0.0,-0.0486986,
SiPrAu2,0.0,-0.048698,
In3Pt2,0.0,-0.0486956,
GeRhPt2,0.0,-0.048695300000000004,
MnInPt2,0.0,-0.0486949,
Pd2Dy5Bi,0.0,-0.0486947,
SrSb2Tl2,0.0,-0.0486939,
Sc2Au2Tl,0.0,-0.048693,
InTe4Bi2,0.0,-0.048692599999999996,
CuEu2Ir,0.0,-0.048689100000000006,
FeRhIr2,0.0,-0.048688699999999994,
TiRuPt2,0.0,-0.048688499999999996,
MgPrTl2,0.0,-0.0486884,
ZnCe3Os2,0.0,-0.0486875,
GaLuIr,0.0,-0.048687100000000004,
GaTm2Ir,0.0,-0.0486864,
N2SU2,0.0,-0.0486863,
Pd2ErPb,0.0,-0.048685,
Te3HoBi,0.872,-0.0486839,
DyHo3,0.0,-0.0486828,
TiMoRe2,0.0,-0.048680100000000004,
Al3Si2OsNp3,0.0,-0.048679900000000005,
B2Sr3Pt7,0.0,-0.0486798,
SiLa2Ir2,0.0,-0.0486795,
NaPt2,0.0,-0.0486782,
Zn2GaPa2,0.0,-0.048678,
AlCo2Pa2,0.0,-0.0486779,
NaPmTl2,0.0,-0.0486778,
SrRh2Pb2,0.0,-0.0486756,
SrBa2Au2,0.0,-0.0486746,
CoLa6Bi2,0.0,-0.0486744,
Pd2Er3Au,0.0,-0.0486744,
Sr2CsBi2,0.0,-0.0486738,
Cu2Ir3,0.0,-0.0486736,
LiDyPt2,0.0,-0.048673,
Ge4Lu3Pt4,0.0,-0.0486727,
PBaPt2,0.0,-0.0486711,
In3Tb3Pt2,0.0,-0.0486687,
ZnLu2Hg,0.0,-0.0486654,
Cu2TbPt3,0.0,-0.048664700000000005,
Ba2LaIr,0.0,-0.048664400000000003,
GaNbOs2,0.0,-0.0486634,
Mn2DyPu,0.0,-0.048663200000000004,
Pd2CdTh,0.0,-0.0486605,
Ni2GaTh2,0.0,-0.048659799999999996,
SiLaAu2,0.0,-0.0486573,
RhLa2Pt,0.0,-0.048656700000000004,
Sr2HgBi,0.0,-0.048656,
Zn2HoPt3,0.0,-0.048656,
Ru2Ho3Pt,0.0,-0.0486537,
CdCs2Hg2,0.0,-0.0486522,
InLa2Tl,0.0,-0.0486521,
PdSm2Au,0.0,-0.0486516,
LiErAu2,0.0,-0.0486507,
Ni2PrIr3,0.0,-0.0486507,
Ni2PrOs3,0.0,-0.0486501,
CoNbIr2,0.0,-0.0486493,
In3Ir2,0.0,-0.0486457,
Ru2CdHf3,0.0,-0.0486451,
LiMgPt4,0.0,-0.0486445,
LiEuHg2,0.0,-0.0486441,
Al2Pr3Pt4,0.0,-0.048643700000000005,
GaTm2Pt,0.0,-0.0486436,
CuEuPb,0.0,-0.048642000000000005,
NaHoAu2,0.0,-0.048641,
NTm3Tl,0.0,-0.0486408,
AgSm2Tl,0.0,-0.0486404,
GaLuPt,0.0,-0.0486401,
Rh2Dy2Pb,0.0,-0.0486389,
GeZrPt2,0.0,-0.0486387,
NdEr3,0.0,-0.048637,
SbNdHf,0.0,-0.0486365,
NiRh2Pu,0.0,-0.0486365,
CrNbPt2,0.0,-0.0486358,
InSm2Au,0.0,-0.0486358,
Ni2LaIr3,0.0,-0.048635199999999996,
MnZrIr2,0.0,-0.048635,
Mo4Ta3,0.0,-0.0486325,
Pd2Er2Tl,0.0,-0.0486314,
Ru2Ho3Ir,0.0,-0.0486281,
MgHgTl,0.0,-0.0486278,
In5AuU,0.0,-0.0486278,
B2N3Ir2Th3,0.0,-0.0486278,
NiLa6Bi2,0.0,-0.0486273,
MnRhPt2,0.0,-0.0486267,
PdLu2,0.0,-0.048624099999999996,
Rh2Ho3Pt,0.0,-0.0486238,
ZnYPb2,0.0,-0.0486218,
N2PU2,0.0,-0.0486216,
Al3Si2PtNp3,0.0,-0.0486209,
Ag5Pt4,0.0,-0.0486195,
Sn2HoOs,0.0,-0.048617400000000005,
ZnNd2Au2,0.0,-0.0486164,
In3Tb3Ir2,0.0,-0.0486161,
B2GdIr3,0.0,-0.0486156,
N2HfNp,0.0,-0.0486151,
In3Dy3Au2,0.0,-0.048612699999999995,
SnBaHg,0.0,-0.0486117,
Te2BaPb,1.5597,-0.0486104,
RhPm2Au,0.0,-0.0486083,
Si2IrPa,0.0,-0.0486062,
P2PtPa,0.0,-0.048605600000000006,
AlSmAu2,0.0,-0.0486054,
KRhPb2,0.0,-0.0486053,
CuAs2Hf6,0.0,-0.0486043,
AlCe2Pt2,0.0,-0.0486042,
RuLa3Pb,0.0,-0.048603499999999994,
TiInIr2,0.0,-0.0486029,
MoInHf2,0.0,-0.0486028,
CrZrIr2,0.0,-0.0486018,
Ru2Sb2Th,0.0,-0.0486009,
SiZnTa4,0.0,-0.0486006,
Te2TbAu,0.1297,-0.0485998,
CoTmPb,0.0,-0.0485979,
ZnNd6Bi2,0.0,-0.0485976,
Zn2AuTh,0.0,-0.0485971,
Al2La3Pt4,0.0,-0.0485965,
ScLa2Au2,0.0,-0.0485954,
Ga3Ir2Th,0.0,-0.0485949,
Si2TmIr3,0.0,-0.048594200000000004,
CoRuIr2,0.0,-0.0485937,
Sb2DyAu,0.0,-0.0485933,
Sc2Hg2Pb,0.0,-0.0485932,
AsPdPt2,0.0,-0.048592199999999995,
SSnTh,0.0,-0.048592199999999995,
NiTm2Ir,0.0,-0.0485921,
Fe2DyPu,0.0,-0.0485921,
Rh2TmTl,0.0,-0.0485914,
SeTeHg2,0.0308,-0.0485905,
HTeU,0.0,-0.0485896,
RhPr2Pt,0.0,-0.048589,
AgLaAu,0.0,-0.0485877,
GaEu2Hg,0.0,-0.0485871,
I2Nd2Pb,0.0,-0.0485869,
TeIIr,0.4416,-0.048586700000000003,
SiZr2Ir3,0.0,-0.048586700000000003,
Mn3Ta5,0.0,-0.048586199999999996,
CoTm2Os,0.0,-0.0485857,
AlCe2Os2,0.0,-0.0485854,
SrAgAu2,0.0,-0.048585,
PPdPa,0.0,-0.048584499999999996,
RuPm2Au,0.0,-0.0485843,
Zn2EuAu3,0.0,-0.0485841,
MgAlAc2,0.0,-0.0485837,
NiMoIr2,0.0,-0.0485836,
CoRuRe2,0.0,-0.048583,
As2U,0.0,-0.048582299999999995,
NaNdTl2,0.0,-0.0485822,
MgSmPt2,0.0,-0.048580599999999995,
SiTeTh,0.0,-0.0485799,
PdNd2Pt,0.0,-0.0485792,
GaNbIr2,0.0,-0.0485783,
PdNd2Ir,0.0,-0.0485779,
KHg2,0.0,-0.0485779,
MgCePt2,0.0,-0.0485764,
RhLa2Ir,0.0,-0.0485755,
Pd4Pu,0.0,-0.0485739,
PNbPa,0.0,-0.0485738,
NaTmHg2,0.0,-0.0485734,
CoTcRe2,0.0,-0.048571399999999994,
SnNd2Hg,0.0,-0.0485706,
Ag2BaAu2,0.0,-0.0485706,
AlSm6Bi2,0.0,-0.048569499999999995,
MgCeIr2,0.0,-0.0485691,
PrEr3,0.0,-0.0485688,
ZrTa,0.0,-0.0485682,
PIn2Pt3,0.0,-0.0485661,
FeRuPt2,0.0,-0.0485649,
Cs2Au,0.0,-0.048564300000000005,
Sc2Pt2Hg,0.0,-0.048561799999999995,
P4Th3,0.1027,-0.048559899999999996,
RuLa2Pt,0.0,-0.048559399999999996,
N2Dy7Tl3,0.0,-0.0485587,
CuInTh,0.0,-0.048558,
Cu3Pt2U,0.0,-0.048556600000000005,
InBaPt,0.0,-0.048556300000000004,
Mn2BaPt3,0.0,-0.048556300000000004,
LiRhBi2,0.0,-0.0485553,
MgErHg2,0.0,-0.048555,
Sn2Dy2Tl,0.0,-0.048554099999999996,
PdInBi,0.0,-0.048554099999999996,
LiSiAc2,0.0,-0.0485526,
MgDy3Au2,0.0,-0.0485516,
CdNdAu,0.0,-0.0485514,
SiSrAu3,0.0,-0.0485514,
Pd2LuAu,0.0,-0.0485488,
CaIn2Pt3,0.0,-0.0485484,
GaGd3,0.0,-0.0485479,
RhPr2Ir,0.0,-0.0485465,
Ru2LuTa,0.0,-0.0485438,
SbPrHf,0.0,-0.0485423,
SbEuTm,0.0,-0.0485423,
GaTm2Os,0.0,-0.0485421,
In5IrPa,0.0,-0.0485396,
Al2InTh2,0.0,-0.0485387,
TiRhPt2,0.0,-0.0485374,
AlCeAu2,0.0,-0.0485327,
PTa2,0.0,-0.048531599999999994,
Al3Ge2IrPa3,0.0,-0.0485307,
ScEuPb,0.0,-0.048530000000000004,
Al3Ge2OsPa3,0.0,-0.0485288,
Ti2Au3,0.0,-0.0485285,
CrRhPt2,0.0,-0.0485275,
Cd2SbTl2,0.0,-0.0485269,
AlSm2Os2,0.0,-0.0485259,
NTm2Pb,0.0,-0.0485253,
MnGe2Hf6,0.0,-0.0485251,
SnTeIr,0.5119,-0.0485251,
FeGe2Hf6,0.0,-0.0485248,
KPdPb2,0.0,-0.048524,
NaPrTl2,0.0,-0.0485226,
Se2CsPu,0.0,-0.0485212,
SrCd2Bi2,0.0,-0.048519599999999996,
Pd2TbBi,0.0,-0.0485191,
SnTe3Pt2,0.0,-0.048519,
ZnBaAu2,0.0,-0.0485184,
NiTcIr2,0.0,-0.0485176,
NiTm2Pt,0.0,-0.0485174,
RhPdBi,0.0,-0.048517000000000005,
SiITh,0.0,-0.0485163,
PdHf,0.0,-0.0485155,
ZnRhTh,0.0,-0.0485152,
KBaTl2,0.0,-0.0485132,
Te3Tb4Bi,0.0,-0.0485125,
LiAs2Pt2U,0.0,-0.0485123,
TeCsHg,0.427,-0.048509300000000005,
Rh2CdTl2,0.0,-0.048508899999999994,
Sn2Dy6Ir,0.0,-0.0485079,
Si2OsPa,0.0,-0.0485077,
SrInHg2,0.0,-0.0485072,
LaEr3,0.0,-0.0485061,
SiPr2Os2,0.0,-0.048503700000000004,
Zn3Au5,0.0,-0.0485024,
GaRbHg3,0.0,-0.048499600000000004,
NaLaTl2,0.0,-0.0484994,
SePb,0.153,-0.0484981,
Cd3GdAu2,0.0,-0.048497900000000004,
CoMoRe2,0.0,-0.0484972,
SrRhHg2,0.0,-0.048497,
ZnPr2Au2,0.0,-0.0484955,
CITh,0.0,-0.0484953,
KInPb2,0.0,-0.0484949,
I2Pr2Pb,0.0,-0.048494,
Co2LuU,0.0,-0.0484932,
Cd2LaHg2,0.0,-0.0484927,
Cd3Pb2,0.0,-0.0484922,
YMo2Os2,0.0,-0.0484913,
TiPdIr2,0.0,-0.0484912,
CoGe2Hf6,0.0,-0.0484907,
Br2Gd2Bi,0.0,-0.0484901,
AgCe2Tl,0.0,-0.048489899999999996,
I2La2Pb,0.1799,-0.0484894,
MgSbPb2,0.0,-0.0484888,
Cr3Re4,0.0,-0.0484884,
ScLu5,0.0,-0.04848619999999999,
NiTmPb,0.0,-0.048484099999999995,
Ni2NdPt3,0.0,-0.048484,
AgSmHg,0.0,-0.0484813,
Al2Tb3Pb3,0.0,-0.048480800000000004,
STe2Bi2,0.0638,-0.048480499999999996,
NTm3Pt,0.0,-0.0484794,
CaAgPb2,0.0,-0.0484786,
ClHg2,0.2424,-0.0484779,
MgTbAu2,0.0,-0.0484777,
CuRh2Pu,0.0,-0.0484763,
Sn2SmPb,0.0,-0.0484752,
BCIrU,0.0,-0.0484748,
Ge2GdPt2,0.0,-0.048473300000000004,
GeTmIr,0.0,-0.048473100000000005,
GaPd2Pu,0.0,-0.048473100000000005,
AgSm2Ir,0.0,-0.0484721,
Rh2Sb2Th,0.0,-0.0484715,
CoAsNp,0.0,-0.048471400000000005,
Te2Dy6W,0.0,-0.048470599999999996,
Pd2EuTl,0.0,-0.0484701,
NTa2,0.0,-0.0484701,
Ge2PmPu,0.0,-0.048469,
Zn2DyPt3,0.0,-0.0484674,