formula,bg,formation_energy,mp-id
As2SnAu,0.0,-0.036409500000000004,
Ga3RhSn2Lu3,0.0,-0.0364086,
Br2TeHo2,0.0,-0.036408499999999996,
Ge3ErIr,0.0,-0.0364081,
Co2In4Tm3,0.0,-0.0364081,
InSb2Te,0.0,-0.0364072,
Si2La2Tl,0.0,-0.036406999999999995,
Fe5Ta3,0.0,-0.036406,
LiAu,0.0,-0.0364052,
CoRu2Tb2,0.0,-0.036405,
LiP2TmAu2,0.0,-0.0364049,
Pd2Cd3Gd,0.0,-0.0364048,
Cu3Pd2Np,0.0,-0.036404200000000005,
NaGe2Au2,0.0,-0.0364038,
FeInLa3,0.0,-0.0364037,
Se4La2Pb,1.8335,-0.0364032,
GeTe4Tb,0.0,-0.0364031,
Ag2InDy,0.0,-0.0364029,
LiCdPb,0.0,-0.0364027,
HMgAgPt2,0.0,-0.0364023,
AlSiHf2,0.0,-0.0364022,
PdIn5Tm,0.0,-0.0364019,
HYPb,0.0,-0.036401699999999995,
Si2ErIr,0.0,-0.0364004,
O3Cs2Pu,0.0055,-0.0364,
NZr2Au,0.0,-0.0363995,
NSbPr3,0.0,-0.0363994,
LiIn2Pb,0.0,-0.0363994,
SeITb,2.0659,-0.0363992,
AlPd2Tm2,0.0,-0.0363987,
CdInNd,0.0,-0.0363977,
NSbLa3,0.0,-0.0363975,
SiSe3Tm4,0.0,-0.0363971,
BAl2DyOs2,0.0,-0.036396200000000004,
Ni2As2Np,0.0,-0.0363951,
In2Te5,0.7211,-0.0363941,
PdIn4Ho,0.0,-0.036393999999999996,
ZrTe3,0.0,-0.0363939,
Na2RbPb2,0.0,-0.0363932,
CuTb2,0.0,-0.036392400000000005,
Ca2FePt2,0.0,-0.036392400000000005,
Na2SnHg2,0.0,-0.036392299999999995,
CuCd2Au,0.0,-0.036392,
MgAlTh,0.0,-0.0363908,
Mg2HfPt,0.0,-0.036390500000000006,
Sc3Hg2,0.0,-0.036390399999999996,
AsPd5Hg,0.0,-0.036389000000000005,
GeTm,0.0,-0.0363878,
PIn2Hg,0.0,-0.0363877,
TiCuTe3Tl,0.0,-0.0363853,
TiNiPb,0.3443,-0.0363853,
InSn2Te3,0.0,-0.036384599999999996,
Pd6Sb4Dy,0.0,-0.0363845,
CaPd2Hg,0.0,-0.0363844,
CZrTa,0.0,-0.0363843,
SrAg4Au,0.0,-0.0363842,
ZnCd2Pt,0.0,-0.036384,
Pd6LaCe,0.0,-0.0363838,
Ni3Th,0.0,-0.036382599999999994,
Nb3TeI7,0.4217,-0.0363814,
Cd2BaPm,0.0,-0.0363812,
In2Te2Cs,0.0,-0.036381000000000004,
MnGe2In3Lu3,0.0,-0.036380699999999995,
YAg2Eu,0.0,-0.036380499999999996,
Al3Ge2Hf3Ir,0.0,-0.0363797,
ScIn5Pt,0.0,-0.036379100000000004,
Ge2RuSn3Tb3,0.0,-0.0363786,
CSi2TbW2,0.0,-0.0363782,
RuIn5Er,0.0,-0.0363779,
CuGe2Hf2,0.0,-0.0363762,
NaGa2Tl2,0.0,-0.036376,
Be2NbW2,0.0,-0.0363759,
SBrBi,1.3644,-0.0363754,
Pd2InLa,0.0,-0.036374899999999995,
AsTeDy,0.2056,-0.036374699999999996,
BNEuPt,0.0,-0.036374000000000004,
CuRb2I6Bi,0.2917,-0.036373600000000006,
Se3CsLaHg,1.4024,-0.0363727,
RhIn5Er,0.0,-0.0363724,
Rh2SbTe2,0.0,-0.036371499999999994,
MgGa2Pt2,0.0,-0.0363703,
Fe4SnPu,0.0,-0.0363703,
OAlEu3,0.0,-0.0363701,
Al3TbIr2,0.0,-0.0363695,
LiP2DyPt2,0.0,-0.036369399999999996,
Co2ZnTa2,0.0,-0.0363693,
CuZrHf,0.0,-0.036368899999999996,
Ag2SbPm,0.0,-0.0363687,
Rh7Tm,0.0,-0.0363683,
GaAgDy2,0.0,-0.036367199999999995,
LiSn4Pt,0.0,-0.036366,
NiGaLu2,0.0,-0.036365699999999994,
Nb2Te2Cs,0.0,-0.036365299999999996,
Ge3ErOs,0.0,-0.036365299999999996,
Ni2AsAc,0.0,-0.0363626,
NbTe2,0.0,-0.036362200000000004,
Al3Ge2Hf3Os,0.0,-0.0363608,
Ga2Ge2Pu,0.0,-0.0363607,
Pd5Er,0.0,-0.0363587,
Rh2InBa2,0.0,-0.036357999999999994,
CAsHo3,0.0,-0.0363575,
LiP2TbIr2,0.0,-0.036357,
YSn6Pr,0.0,-0.036356900000000004,
LiPd2Pb,0.0,-0.036356900000000004,
HPd2Pb,0.0,-0.036354399999999995,
Ca2FeIr2,0.0,-0.036354199999999996,
Al2Pd2Th,0.0,-0.0363538,
Se4Pr2Pb,1.687,-0.0363537,
Cu2Cd3Th,0.0,-0.0363531,
Rh2Te3,0.0,-0.0363527,
Ca2GaPt2,0.0,-0.036352600000000006,
Si2EuAu,0.0,-0.0363524,
ScIn5Os,0.0,-0.0363517,
GeCePr,0.0,-0.0363488,
AlZn2Pu,0.0,-0.036348399999999996,
Co3Tb2Os,0.0,-0.036348399999999996,
HW,0.0,-0.0363482,
RuI3,0.0,-0.036348,
Sc2TePb,0.0,-0.0363476,
LiSnAu,0.0,-0.0363458,
Ag3La2,0.0,-0.0363452,
Co2CdEr3,0.0,-0.0363449,
Se4SnHg2,0.0777,-0.036344299999999996,
RhTeI,0.1769,-0.0363438,
FeGe2In3Lu3,0.0,-0.0363437,
CoInLa3,0.0,-0.0363435,
PdCdNd,0.0,-0.0363435,
MgTb3,0.0,-0.0363431,
PZr2Au,0.0,-0.036342799999999995,
Li4Sr3Bi4,0.0,-0.0363427,
LiMgHg2,0.0,-0.0363427,
Ag3Er,0.0,-0.0363416,
Mg2CdAu2,0.0,-0.0363408,
AgInBa2,0.0,-0.0363394,
CuPd2Sm3,0.0,-0.0363391,
Al3Sn2Tm3Re,0.0,-0.0363383,
Si2ErOs,0.0,-0.0363382,
As2RhEr2,0.0,-0.036337299999999996,
CoSn3Lu,0.0,-0.0363372,
B2CTbIr2,0.0,-0.0363371,
CaIn3Au,0.0,-0.03633550000000001,
KIn4Pb,0.0,-0.03633550000000001,
MgPd2Dy3,0.0,-0.036335099999999995,
Sr2Pd2Hg,0.0,-0.0363344,
MgRu2W,0.0,-0.0363341,
Al4Ge4Th3,0.0,-0.0363341,
Be2PdAu2,0.0,-0.036333700000000003,
Li2AgTl2,0.0,-0.036333599999999994,
NiSb2Tm,0.0,-0.036333199999999996,
Sr2CdHg,0.0,-0.0363326,
Al3TmAu2,0.0,-0.036332500000000004,
SrAgTe3Sm,0.6105,-0.0363324,
Zr2Dy,0.0,-0.0363307,
PPdHf,0.0,-0.0363302,
PGd,0.0,-0.0363288,
CZr3Pb,0.0,-0.0363285,
GeAsW,0.0,-0.0363283,
MgZrIr,0.0,-0.036328200000000005,
Ge2RhSn3Tb3,0.0,-0.0363277,
Be2InAu2,0.0,-0.0363269,
CaRh4Tl,0.0,-0.0363267,
YCdLa2,0.0,-0.0363261,
RhI3,0.8821,-0.036325699999999995,
NInSm3,0.0,-0.0363255,
Ni2Te3Tl,0.0,-0.0363251,
CoGe2In3Lu3,0.0,-0.036325,
Y2In8Ir,0.0,-0.036324800000000004,
FeCuTe3Tl,0.0,-0.0363247,
LiAs2Rh2U,0.0,-0.036323999999999995,
ZnSnTb2,0.0,-0.0363235,
Li2PtHg,0.0,-0.0363234,
C2MnNp,0.0,-0.0363233,
ScAsIr,0.0,-0.0363231,
Ga2I8Au,0.0,-0.036322600000000003,
Mn2Ir,0.0,-0.036322400000000005,
LiAs2YIr2,0.0,-0.0363223,
NiSn2Lu,0.0,-0.03632,
Al2LuOs,0.0,-0.0363195,
FeGe2Sm6,0.0,-0.036319000000000004,
Pd3Te8,0.0,-0.0363181,
CdInPr,0.0,-0.0363158,
SiPd3Tm2,0.0,-0.0363156,
NSnNd3,0.0,-0.0363155,
CuTe2Tm,0.0,-0.0363152,
Si2ScOs2,0.0,-0.0363144,
NbI3,0.0,-0.0363138,
Mo2Sb3,0.0,-0.036312399999999995,
LiRhTl,0.0,-0.036310699999999994,
Zn4Ta3,0.0,-0.0363101,
GeSeAu,0.0,-0.0363079,
CCo2Y2Pb2,0.0,-0.036306399999999996,
OSbLa3,0.0,-0.0363063,
MgGa2Np,0.0,-0.0363062,
RbTe2Nd,1.1144,-0.036305300000000006,
TiGeIr,0.0,-0.036305300000000006,
Sc2Bi,0.0,-0.0363046,
Br2AgTl,1.4744,-0.0363043,
Ag2CdPr2,0.0,-0.0363041,
NiLu,0.0,-0.036303400000000006,
Sr2YPt,0.0,-0.036303199999999994,
Pd3Nd,0.0,-0.0363015,
Zn2CeIr,0.0,-0.036300400000000003,
FeRbTe3Hf,0.0,-0.0362998,
B2CDyPt2,0.0,-0.0362992,
PdSn6Ba,0.0,-0.0362992,
AgCd2Tm,0.0,-0.0362988,
P2MnU,0.0,-0.0362986,
Pd6Sb4Tb,0.0,-0.0362981,
CSbNd3,0.0,-0.0362967,
ScGe2Hf2,0.0,-0.036296100000000005,
Si4Sr3Os4,0.0,-0.036296,
Al2MnPu,0.0,-0.03629569999999999,
ZnPd2Ho2,0.0,-0.0362946,
Si2TmRe,0.0,-0.0362946,
Ge4RhPt2,0.0,-0.036294,
YTe5,0.0,-0.0362937,
InSnI3,0.4404,-0.036293599999999995,
Se2SnTa,0.0,-0.0362928,
NITb2,0.0,-0.0362926,
Mg2SmAc,0.0,-0.0362923,
InSb3,0.0,-0.0362923,
LiLa5,0.0,-0.036292200000000004,
MgRh2Os,0.0,-0.0362914,
N2LuHf,0.0,-0.036290300000000004,
AlRh2Er2,0.0,-0.036289,
OGaEr3,0.0,-0.036287999999999994,
Al3Ge2Hf3Pt,0.0,-0.036287999999999994,
NOIn2Sm6,0.0,-0.036287799999999995,
AsHo,0.0,-0.0362875,
MnITm,0.0,-0.036286700000000005,
Si7Ru2Th3,0.0,-0.0362863,
O3Bi2,2.2907,-0.0362858,
Al3TbPt2,0.0,-0.0362857,
TiGeOs,0.0,-0.0362853,
MgZrPt,0.0,-0.036285200000000004,
Nb2PdTe6,0.0,-0.0362851,
Al5Ir2U,0.0,-0.036284500000000004,
SiNdEu,0.0,-0.0362839,
PBr2Hf2,0.0,-0.0362836,
Be2HfIr,0.0,-0.036283499999999996,
Ge2RuIn3Ho3,0.0,-0.036283,
BNTmIr,0.0,-0.0362824,
GeLaCe,0.0,-0.036282299999999996,
Ge2SnTm2,0.0,-0.036281999999999995,
Ga3Ru2Th,0.0,-0.036281799999999996,
CuIn3Sn2Sm3,0.0,-0.0362817,
Cd2Tb,0.0,-0.0362816,
NiGe3Np,0.0,-0.0362812,
LiSbHg,0.0,-0.036281,
S4Te2W3,0.1207,-0.036279000000000006,
N2In3Nd7,0.0,-0.0362783,
NiRu2Nd3,0.0,-0.0362778,
Ga3SrIr2,0.0,-0.0362776,
SeInLa2,0.0,-0.0362772,
NOSn2Nd6,0.0,-0.0362771,
Ge2TcIr,0.0,-0.0362764,
BeRh2Os,0.0,-0.0362764,
H2CdTl2,0.0,-0.0362758,
Ge2RhIn3Ho3,0.0,-0.0362757,
Ca2GaIr2,0.0,-0.0362752,
SrIn2Eu,0.0,-0.036275100000000005,
CuRuTb2,0.0,-0.036275100000000005,
NiY2Os,0.0,-0.036274900000000006,
Li2SrPb2,0.0,-0.0362746,
Sr2Ag2Tl,0.0,-0.0362738,
RbTe2La,1.538,-0.0362736,
BrI2Ba2,0.0,-0.0362735,
Si4Sr3Pt4,0.0,-0.0362735,
S2TbTl,1.3427,-0.036272399999999996,
Cu3YPt2,0.0,-0.036272399999999996,
O4ILuBi2,1.496,-0.0362723,
CaYAu,0.0,-0.036271500000000005,
S4SnHgTl2,0.6944,-0.0362713,
Rh5Tb,0.0,-0.036271099999999994,
Ti6ReBi2,0.0,-0.0362703,
Co2GeAc,0.0,-0.0362697,
NiPdTb2,0.0,-0.0362696,
Li3HoBi2,0.0,-0.0362694,
CdInLa,0.0,-0.036269300000000004,
P2CuNp,0.0,-0.0362687,
KCdAu,0.0,-0.0362686,
Ga6RbAu4,0.0,-0.0362675,
ZrI3,0.0,-0.0362672,
TiGePt,0.8813,-0.0362671,
NInCe3,0.0,-0.0362661,
Cu2In3Tm3,0.0,-0.036266,
BeRu2W,0.0,-0.0362658,
MgZrTl,0.0,-0.036265500000000006,
OAsLaHg,0.1168,-0.036265099999999995,
Al3Sn2Tm3Au,0.0,-0.0362643,
BrTeTb,1.1528,-0.0362625,
MgTm2,0.0,-0.0362625,
ZnTcDy2,0.0,-0.036262300000000004,
CuY2Tl,0.0,-0.036262,
CoSe2Nd6,0.0,-0.0362619,
LiAs2YPt2,0.0,-0.036261499999999995,
FeITm,0.0,-0.0362614,
Mn2InLu2,0.0,-0.0362609,
Si2RhIn3Lu3,0.0,-0.0362603,
GeSnTm,0.0,-0.0362598,
Fe2As2U,0.0,-0.036259599999999996,
Ca3Ge4Ir4,0.0,-0.0362593,
Zr6In2Pt,0.0,-0.0362593,
PdCd2Ho,0.0,-0.0362588,
NNiEr3,0.0,-0.0362587,
AlRu2Er2,0.0,-0.0362583,
Se3Lu2,0.9939,-0.0362578,
Se2SnHg,0.0389,-0.0362571,
PI2Sm2,0.0,-0.0362571,
Rh3Te4,0.0,-0.0362564,
CuRhTb2,0.0,-0.036256100000000006,
SeTeBa2,1.4514,-0.0362556,
Ga4TmTa2,0.0,-0.0362544,
Pd4Tb,0.0,-0.0362539,
SrCd4Tl,0.0,-0.0362529,
SiPd2Er2,0.0,-0.0362528,
NaTe2Hf,0.0,-0.0362528,
Se2Rh2Tl,0.0,-0.036252400000000004,
KGa2Au2,0.0,-0.036252400000000004,
As3BrHg2,0.8536,-0.0362516,
Se3SbSm4,0.0,-0.036251399999999996,
Ti3In3Au2,0.0,-0.036250500000000005,
PCeEr,0.0,-0.036250300000000006,
YIn2Dy,0.0,-0.0362498,
Se2NbAu,0.0,-0.0362496,
Ag8Pb,0.0,-0.0362494,
Fe2InLu2,0.0,-0.0362493,
Si2ErPt,0.0,-0.0362492,
BrEr,0.0,-0.0362478,
Cd2Sb2La,0.0,-0.0362475,
SiIGd,0.0,-0.0362473,
Ga3PdTa2,0.0,-0.0362467,
RbTe2Pr,1.1317,-0.036246600000000004,
Se2In2Tl,0.0,-0.036246600000000004,
PdCdPr,0.0,-0.036246600000000004,
RhAgBa2,0.0,-0.0362465,
Zn2SmPt,0.0,-0.0362464,
RhAg2Tb,0.0,-0.0362464,
O2ClPbBi,1.9091,-0.036246299999999995,
Xe,6.0781,-0.036246,
N2ZnPu,0.0,-0.036244900000000004,
B2LuOs,0.0,-0.036243899999999996,
NiGe2In3Lu3,0.0,-0.036243899999999996,
Pd2InBa2,0.0,-0.0362424,
NAlEu3,0.0,-0.036241999999999996,
K2CaCdBi2,0.0431,-0.0362419,
NiCd2Hg,0.0,-0.0362417,
Mn2Os,0.0,-0.0362406,
NNb3Au,0.0,-0.036240499999999995,
BPdTa,0.0,-0.036240499999999995,
Sc2LaTl,0.0,-0.0362399,
S4BrTlBi2,1.4174,-0.0362397,
SePd5Hg,0.0,-0.0362393,
AsPd5Ta,0.0,-0.036238799999999995,
GaTe2Er,0.0,-0.0362383,
Ag2CdLa2,0.0,-0.036238,
LiSe2Th,0.0,-0.0362379,
Ga3PdSn2Lu3,0.0,-0.0362377,
BrSr2Pb,0.0,-0.0362377,
Co2Sn7Dy3,0.0,-0.0362367,
ScZr2Hg,0.0,-0.0362361,
PdTe2I,0.0,-0.036235500000000004,
NiRu2Tb2,0.0,-0.036235300000000005,
Ag7Pt,0.0,-0.036234699999999995,
SrSb2Ba2,0.0,-0.0362346,
ZnRh2Dy2,0.0,-0.0362343,
SI2Sm2,0.0,-0.0362341,
Cd2BaLa,0.0,-0.036234,
RuSb,0.0,-0.036234,
LiInTl,0.0,-0.036234,
ScAsPt,0.0,-0.036232999999999994,
SSnGd,0.0,-0.0362322,
MgRh2Re,0.0,-0.036231299999999994,
Co2Sn3Dy3,0.0,-0.036231099999999995,
Si7Rh2Th3,0.0,-0.0362306,
Mg2CeAc,0.0,-0.0362303,
BAl2TbOs2,0.0,-0.036230200000000004,
AgTeCs,0.5436,-0.036230200000000004,
Cr2Os,0.0,-0.0362298,
AsBa4,0.0,-0.036229399999999995,
Nb2In4Tm,0.0,-0.036229,
Ge2AgIn3Er3,0.0,-0.036229,
Rh2SnBa,0.0,-0.0362281,
Co2PdHo3,0.0,-0.0362279,
Se5Pb2,0.0,-0.036227600000000006,
Sc2LaOs,0.0,-0.036227600000000006,
AsPdTm,0.0,-0.036227499999999996,
Ga3Rh2Th,0.0,-0.0362274,
CTeTb2,0.0,-0.0362267,
InTeI,1.0113,-0.0362265,
Pd4Sn6Tb,0.0,-0.036226,
GaCd2Hg,0.0,-0.036226,
Rh4CdHo,0.0,-0.0362258,
NaGa2Ir2,0.0,-0.0362254,
Zn2SmIr,0.0,-0.0362252,
AlMo2Ta,0.0,-0.0362245,
Ga3Y2Ir2,0.0,-0.0362243,
BrRhLa2,0.0,-0.036224,
S3BaU,0.0,-0.0362239,
ZnNd3,0.0,-0.0362237,
CaI6Ba2,2.3639,-0.0362235,
Ca2CoIr2,0.0,-0.0362224,
CRu2Sn2Ho2,0.0,-0.0362214,
OZr2Pt,0.0,-0.0362213,
CuY2Pt,0.0,-0.0362213,
Rh3Ba2,0.0,-0.0362175,
GaY2Au,0.0,-0.036217,
CaSbGd,0.0,-0.036216500000000006,
BrLa2,0.0,-0.036214300000000005,
Si2NiNp,0.0,-0.036213999999999996,
OSnNd3,0.0,-0.0362134,
OInSm3,0.0,-0.0362129,
CuInGd,0.0,-0.0362121,
BeRh2Re,0.0,-0.036212,
NiPd2Dy2,0.0,-0.0362111,
MgRh2Ir,0.0,-0.0362111,
H2Nd3Pb,0.0,-0.036211,
NDy2,0.0,-0.0362106,
SI2Ce2,0.0,-0.03621050000000001,
Br2SnHg,1.9123,-0.036210299999999994,
Al2FePu,0.0,-0.036209899999999996,
PdIn4Dy,0.0,-0.036208399999999995,
HPd3Bi,0.0,-0.0362079,
NiSe2Nd6,0.0,-0.0362079,
CuCdHf,0.0,-0.0362078,
CuY2Ir,0.0,-0.0362071,
AgSn3Ba,0.0,-0.0362071,
FeSb2Er,0.0,-0.0362064,
ScNd3,0.0,-0.0362058,
BNCuPu,0.0,-0.036204900000000005,
Li2SnAu2,0.0,-0.036204799999999995,
Ag2SnSm,0.0,-0.036204599999999997,
CBr2Hf2,0.0,-0.036204099999999996,
LiSn4Re,0.0,-0.0362036,
Ag2Sn2Sm,0.0,-0.0362035,
Ga3Rh2Lu3,0.0,-0.0362035,
Pd3Pr,0.0,-0.0362025,
Si3Lu2Pt,0.0,-0.036202399999999996,
PdCdLa,0.0,-0.0362018,
LiP2TbPt2,0.0,-0.0362018,
AgSnBa,0.0,-0.036201,
SrRu4Sb12,0.0,-0.036201,
CoY2Au,0.0,-0.036200899999999994,
AgSb5,0.0,-0.036200899999999994,
PdIn5Er,0.0,-0.0362002,
MgRu2Tb3,0.0,-0.0362002,
KIn3Ir,0.0,-0.0362001,
NBr2Hf2,0.0,-0.036199300000000004,
ZnTe3CsTb,1.2292,-0.0361979,
Li2CdTl2,0.0,-0.0361975,
Rh2CdCe,0.0,-0.0361973,
ZnRu2Dy2,0.0,-0.0361969,
AsBr3Eu3,0.0,-0.0361968,
CoIn3Sn2Nd3,0.0,-0.0361965,
Ge2Pd2Pb,0.0,-0.0361964,
NbSb2,0.0,-0.0361963,
RuIn5Ho,0.0,-0.0361954,
AsRbTa,0.0,-0.0361952,
GaRhLu,0.0,-0.036194899999999995,
SrAg4Hg,0.0,-0.0361948,
Ga3Tb2Re,0.0,-0.0361944,
BO3Tl3,1.2414,-0.036194000000000004,
Ge2PdSn3Tb3,0.0,-0.0361939,
SiRh2Ho2,0.0,-0.036193600000000006,
Rb2I6Tm,0.0,-0.036193399999999994,
B5Tm2Os3,0.0,-0.036192999999999996,
ClAgHg,0.0,-0.0361926,
CaI4Tm,0.0,-0.036191499999999995,
CBrLu2,0.0,-0.0361914,
Ag2Te2Ba,0.5497,-0.036191299999999996,
SeSbTb,0.0,-0.0361912,
CuSnLu,0.0,-0.036191,
AlSb2Ba6,0.0,-0.036191,
RhIn5Ho,0.0,-0.0361898,
CdInBa2,0.0,-0.0361894,
Ni3YAu2,0.0,-0.0361888,
As2PdEr2,0.0,-0.0361887,
Zn2CeOs,0.0,-0.036188200000000004,
InSnTe2,0.0,-0.036187399999999995,
Cr4OsIr,0.0,-0.0361873,
Ca2GeAu2,0.0,-0.036187199999999996,
Pd3La,0.0,-0.0361865,
MgSn2Er2,0.0,-0.036185499999999995,
Br2I2Hf,0.9283,-0.036184600000000004,
ZnPd2Hf,0.0,-0.0361845,
Ag2CdEr,0.0,-0.036184,
Mn2Pt,0.0,-0.0361823,
MgMn2U,0.0,-0.0361823,
NbSnTe2,0.0,-0.0361818,
ClSeBi,1.2677,-0.0361813,
CaIn4Ir,0.0,-0.0361812,
CuLa3,0.0,-0.036181,
NaAs2Pd2U,0.0,-0.0361809,
PdSbTe,0.0,-0.0361809,
MgRuTm2,0.0,-0.036180500000000004,
CoRbTe3Hf,0.0,-0.0361801,
NiRh2Tb2,0.0,-0.0361791,
GaRuLu,0.0,-0.036178800000000004,
Pd2Te2Cs,0.0,-0.0361787,
PdAgBa2,0.0,-0.036178400000000006,
CuRbTe3Ta,0.0,-0.036177999999999995,
BNMnNp,0.0,-0.0361773,
MgPd2Tl,0.0,-0.0361766,
SiPd5Pb,0.0,-0.036176299999999995,
CuSbEu,0.0,-0.036176,
PdSb2,0.0,-0.036175,
Cd2Ba3,0.0,-0.0361741,
BrRuLa2,0.0,-0.0361739,
Se2TcHg,0.0,-0.036173699999999996,
Al3Ge2Hf3Re,0.0,-0.0361735,
In2Sb2Cs,0.0,-0.0361732,
CaIn4Pt,0.0,-0.036172800000000005,
Pd3SnBa2,0.0,-0.0361727,
CAl2Si2U2,0.0,-0.036172499999999996,
Se2I2Hf,1.1531,-0.0361717,
Se2CdTl,0.0,-0.0361715,
Br2Zr2Pb,0.0,-0.0361715,
PI2Ce2,0.0,-0.03617069999999999,
Ag2SnCe,0.0,-0.03617069999999999,
Mg2InHg2,0.0,-0.0361699,
Sn3Sb,0.0,-0.0361698,
Pd2Sb2Cs,0.0,-0.036169400000000004,
Rh7Er,0.0,-0.0361692,
Ni2RuHo3,0.0,-0.0361691,
SrAg2Gd,0.0,-0.0361674,
Se2AgTl,0.0446,-0.036167000000000005,
SiPdHf,0.0,-0.036166,
LiP2ErAu2,0.0,-0.036165300000000004,
C2FeNp,0.0,-0.0361647,
As2Ta,0.0,-0.0361644,
InTe2,0.0,-0.0361637,
SiRh2Hf,0.0,-0.0361635,
O3BaNp,0.0,-0.0361635,
Co2In5Dy4,0.0,-0.0361633,
Na3NdBi2,0.2431,-0.0361627,
Rh2Te2I,0.0,-0.036162,
NaGa2Pt2,0.0,-0.036162,
BNFeNp,0.0,-0.0361614,
BeZrIr,0.0,-0.036161,
Zr3TeI7,0.1598,-0.0361603,
As2Hg,0.0,-0.0361601,
Ti2As4W3,0.0,-0.0361596,
Br2Y2Bi,0.0,-0.0361593,
CIGd,0.0,-0.0361588,
Ge3HoIr,0.0,-0.0361588,
Ti2Pb,0.0,-0.0361586,
O4TaNp,0.0,-0.0361586,
ZnSrPt,0.0,-0.036158499999999996,
PdTe2,0.0,-0.0361563,
Ti6AuBi2,0.0,-0.036156100000000004,
O4BrBi3,0.709,-0.0361556,
CoSb2Er,0.0,-0.036153599999999994,
ClIn2Hg,0.0,-0.0361521,
ZrRh2La,0.0,-0.036152000000000004,
Se2RhAu,0.1133,-0.0361519,
MgRh2Tb3,0.0,-0.036151699999999995,
Pd2Sn2Ba,0.0,-0.0361512,
CPTm3,0.0,-0.0361506,
LiRhEu2,0.0,-0.0361505,
Ga5IrTh,0.0,-0.03615,
Al3Sn2Er3Ir,0.0,-0.0361497,
Ag2InTb,0.0,-0.036148200000000005,
GaI6Cs3,1.2661,-0.0361481,
Br2Hg,2.0656,-0.0361477,
PPd5Pb,0.0,-0.0361472,
Na3LaBi2,0.5647,-0.036146500000000005,
Al5Pt2U,0.0,-0.036146500000000005,
Rh6Sb4Ba,0.0,-0.0361455,
HRh3Pb,0.0,-0.0361449,
CoSbTm,0.0,-0.0361436,
PdTeI2,0.0,-0.0361425,
Si4Pt2Au,0.0,-0.036141,
ZnInDy2,0.0,-0.0361406,
CuSeTl,0.0,-0.036140500000000006,
OInCe3,0.0,-0.036138800000000006,
CaZn2Pt2,0.0,-0.0361387,
NiIn3Sn2Nd3,0.0,-0.0361387,
CSi2Ba2Re2,0.0,-0.036138199999999995,
Fe3Hf2,0.0,-0.036138199999999995,
MnSb2Ho,0.0,-0.0361378,
CoAs2Nd6,0.0,-0.0361375,
Ca2SrHg2,0.0,-0.0361371,
Rh2CdSm,0.0,-0.0361371,
Se2CsGd,1.4833,-0.036136600000000005,
B2Rh3Th,0.0,-0.036136499999999995,
Ga3SrPt2,0.0,-0.0361357,
LiTi2Ir2,0.0,-0.0361357,
AgIn2Sm,0.0,-0.0361354,
MgRh2Tm2,0.0,-0.0361354,
AlCdAu,0.0,-0.0361353,
ScCd2Hg,0.0,-0.0361352,
B2CTbPt2,0.0,-0.036134599999999996,
ZrNbTe4,0.0,-0.036133200000000004,
CuRu2Nd3,0.0,-0.0361321,
GaCdDy2,0.0,-0.0361321,
As2SnHg,0.0854,-0.0361308,
SiCuGd2,0.0,-0.0361306,
Cl4PtTl2,1.1847,-0.0361306,
Si2Sm2Hg,0.0,-0.03613,
Ga5AuPa,0.0,-0.0361295,
NSnPr3,0.0,-0.0361286,
Sc2SbPb,0.0,-0.0361278,
RhCd2Dy,0.0,-0.0361275,
N2TiU,0.0,-0.036127,
Co2As2U,0.0,-0.0361265,
Ge2PdIn3Ho3,0.0,-0.036126399999999996,
O2La2Hg,0.0,-0.036125700000000004,
CaIn4Tl,0.0,-0.036125500000000005,
Ag7Au,0.0,-0.0361254,
Ge4PdPt2,0.0,-0.036125199999999996,
CMo2Sn2Ho2,0.0,-0.0361244,
ZnAgHo2,0.0,-0.0361235,
Al2SrAu2,0.0,-0.0361228,
Pd5Ho,0.0,-0.0361228,
Co2InLu2,0.0,-0.0361209,
Cr2Ir,0.0,-0.0361205,
ZnPd2Sm3,0.0,-0.0361195,
NSiTm3,0.0,-0.0361193,
NiRh2Pr3,0.0,-0.0361187,
Rh2In2Pr,0.0,-0.0361186,
NiSe3HfTl,0.0,-0.0361179,
GeRuTm,0.0,-0.0361177,
CaGa2Hg2,0.0,-0.0361177,
Rh2In2La,0.0,-0.0361167,
LiInEu2,0.0,-0.036116300000000004,
Se4EuTm2,0.0022,-0.036115499999999995,
CGe2Y2Os2,0.0,-0.0361152,
Ge3HoOs,0.0,-0.036114400000000005,
ZnZr2Hg,0.0,-0.0361142,
Co2ZnTh,0.0,-0.036113799999999995,
Br2Au,0.0,-0.0361135,
CMg2Ge2Th2,0.0,-0.0361133,
MgRh2Pt,0.0,-0.0361131,
GeRu2Sm2,0.0,-0.036113,
CSbPr3,0.0,-0.036112000000000005,
Co2Ge2Np,0.0,-0.0361118,
CoIn3Sn2Pr3,0.0,-0.0361113,
Se2InAu,1.471,-0.0361106,
CrSb3Dy,0.0,-0.036110500000000004,
NiSbTm,0.2615,-0.0361104,
Cu2LaAu,0.0,-0.0361098,
V2Os,0.0,-0.0361096,
CoCuLu2,0.0,-0.036109499999999996,
Ca3Ge4Os4,0.0,-0.0361092,
Pd6Sb4Sm,0.0,-0.0361085,
O8U3,0.001,-0.036107999999999994,
CrMnIr,0.0,-0.036107,
LiYPb,0.0,-0.0361068,
Y5Pb,0.0,-0.036105899999999996,
Pd7Lu,0.0,-0.036105899999999996,
CuIn3Ho2,0.0,-0.0361057,
Ga5OsTh,0.0,-0.036105,
N2NiNp,0.0,-0.0361049,
CoITm,0.0,-0.0361039,
CuSrAu,0.0,-0.0361037,
Nb2Ru2La,0.0,-0.0361036,
Sc3CdAu2,0.0,-0.0361034,
S2KPu,0.0,-0.0361017,
Si5Sm2Pt3,0.0,-0.036100900000000005,
ScRu2Gd,0.0,-0.036100299999999995,
NOSn2Pr6,0.0,-0.0360998,
MgCd2Bi,0.0,-0.0360996,
Si2PdIn3Lu3,0.0,-0.0360995,
BeRh2Ir,0.0,-0.0360993,
N2In3Pr7,0.0,-0.0360973,
Al3ErAu2,0.0,-0.036097000000000004,
Sr3Pb,0.0,-0.036097000000000004,
TcSb,0.0,-0.0360965,
Ag2SnPm,0.0,-0.0360964,
NaP2CePt2,0.0,-0.0360956,
RhSb,0.0,-0.036095100000000005,
Si2ScPt2,0.0,-0.036095,
CrMnOs,0.0,-0.0360944,
NiAs3W2,0.0,-0.0360938,
In2Ba,0.0,-0.0360936,
H3OsTh,0.0,-0.0360935,
Mg2NdAc,0.0,-0.0360922,
Al3Sn2Er3Os,0.0,-0.036089500000000004,
PdCs2,0.8128,-0.036089500000000004,
Si2Ag2Th,0.0,-0.0360894,
CoAsTm2,0.0,-0.036089300000000005,
NiAs2Nd6,0.0,-0.0360891,
Na2CdPt2,0.0,-0.0360875,
KAgHg,0.0,-0.036087299999999996,
NiRu2Pr3,0.0,-0.0360861,
CoSe2Pr6,0.0,-0.0360861,
Pd3Ba2,0.0,-0.036085099999999995,
LiNaHg2,0.0,-0.036084899999999996,
CGe2Mo2Th,0.0,-0.0360848,
SrLa2,0.0,-0.0360845,
GaPd2Gd,0.0,-0.0360845,
Mn2TcIr,0.0,-0.0360841,
Cd3Tm,0.0,-0.0360841,
O4HfNp,0.0,-0.0360837,
YI3,2.6811,-0.0360827,
Cr4ReOs,0.0,-0.0360823,
MgIn2Tl,0.0,-0.0360821,
OPdSm3,0.0,-0.036082,
GeRh2Sm2,0.0,-0.0360816,
AlAgTm2,0.0,-0.036081,
Li3DyBi2,0.0,-0.0360805,
Pd4InDy,0.0,-0.03608,
CuGaLu2,0.0,-0.036079599999999996,
H3IrTh,0.0,-0.0360789,
GaITm,0.0,-0.036078200000000005,
ScSb2La2,0.0,-0.0360781,
FeSn4Pr2,0.0,-0.0360771,
MgIn2Pt,0.0,-0.0360767,
S3AgPbBi,0.0398,-0.0360761,
Ni2In5Dy4,0.0,-0.036075899999999994,
Mg2YAu2,0.0,-0.0360758,
Nb2Te3,0.0,-0.036075499999999996,
NSnLa3,0.0,-0.036075499999999996,
CuGe2In3Lu3,0.0,-0.0360744,
Ni2CdEr3,0.0,-0.0360742,
Co2ZnLu3,0.0,-0.0360742,
GeTeHo,0.0,-0.036073999999999995,
ZnSb2Eu,0.0,-0.0360736,
CY2Pb,0.0,-0.0360736,
ZnILu,0.0,-0.0360729,
H2Pr3Pb,0.0,-0.0360729,
Ca3Ge4Pt4,0.0,-0.0360726,
Co2In3Er3,0.0,-0.0360723,
Si2HoIr,0.0,-0.0360723,
NaAgTl,0.0,-0.0360718,
ZnAg2Hg,0.0,-0.0360718,
Ag2Sn2Nd,0.0,-0.0360718,
CuIEu,0.0,-0.0360704,
Li2AuHg,0.0,-0.036068600000000006,
N2EuTa,0.0,-0.0360678,