formula,bg,formation_energy,mp-id
AlBa2Ir,0.0,-0.0399337,
Ti2SrPt2,0.0,-0.039933100000000006,
GePdTa,0.0,-0.0399319,
Y2CdOs,0.0,-0.0399318,
K2CsTl2,0.0,-0.039931600000000005,
Mn2ZnHf3,0.0,-0.0399314,
Ag4LaAu,0.0,-0.039930999999999994,
Te3La,0.0,-0.039930999999999994,
CuPd2Bi,0.0,-0.0399307,
As2TbAu,0.0,-0.0399304,
SiSTh,0.0,-0.0399293,
PdSb2Ho,0.0,-0.0399293,
InI2Nd2,0.0,-0.0399285,
Fe2ZnHf3,0.0,-0.0399281,
VRu2Ir,0.0,-0.0399278,
Al3Sn2Hf3Os,0.0,-0.0399269,
SeI2Ho2,0.0,-0.0399269,
Rh2CeSm,0.0,-0.0399266,
ScSn2Ir,0.0,-0.039926,
Mg2Ca3Bi4,0.0,-0.0399259,
Ru3Tb2,0.0,-0.0399259,
RuRh2Sm3,0.0,-0.0399255,
KSr2Tl2,0.0,-0.0399223,
AsI2Ho2,0.0,-0.0399221,
Ga3NdIr2,0.0,-0.0399218,
PdITb,0.4361,-0.0399215,
Al3RhDy3Pb2,0.0,-0.0399212,
CaBa2Au,0.0,-0.0399205,
LiCd2Th,0.0,-0.039919699999999995,
B2BaIr2,0.0,-0.0399186,
TeI2Ba2,2.4847,-0.039918,
In2NdTb,0.0,-0.0399174,
AlEr3,0.0,-0.0399168,
NiTe2Nd6,0.0,-0.0399165,
LiCuPt2,0.0,-0.039916,
CSnLu2,0.0,-0.039914700000000004,
SSbIr,1.3021,-0.0399144,
CrSe4Tl3,0.0,-0.0399144,
Fe2ErTl,0.0,-0.0399141,
ZnRuIr,0.0,-0.0399134,
AgInEu,0.0,-0.0399129,
FeSb2Nd6,0.0,-0.0399126,
Ga3SmPt2,0.0,-0.0399122,
CuTe4Eu2,0.0,-0.039911999999999996,
Cd2TbEr,0.0,-0.0399113,
ZnSb2Eu2,0.0,-0.0399107,
Ru2SbEr,0.0,-0.039909599999999996,
AlBa2Pt,0.0,-0.0399095,
FeCuHf2,0.0,-0.0399093,
Ge2RuTb6,0.0,-0.0399091,
RuRhSm2,0.0,-0.039908700000000005,
AsTe3Nd4,0.0,-0.039908,
Pd5SbPb,0.0,-0.039908,
Y2Rh2Tl,0.0,-0.0399068,
Co2TmTl,0.0,-0.0399063,
NbSnHo,0.0,-0.039906199999999996,
N2BaTh,0.2143,-0.0399057,
BOs,0.0,-0.0399049,
Ga3CePt2,0.0,-0.039904800000000004,
MnAs2Ho6,0.0,-0.039904,
ZnTcRe,0.0,-0.039904,
CrRu2Ir,0.0,-0.039904,
GaSn2Tl,0.0,-0.039904,
RuRhCe2,0.0,-0.0399037,
MnCuHf2,0.0,-0.0399037,
Ge2TbIr,0.0,-0.039903100000000004,
Te3Pr,0.0,-0.039903,
OPCdNp,0.0,-0.039903,
NW,0.0,-0.039902900000000005,
Ca2SbAu2,0.0,-0.039901200000000005,
YTe2Tm,0.0,-0.0399005,
Ni2CdTh,0.0,-0.0399005,
SBr6Pb4,2.0859,-0.0398989,
Rb2CsBi,0.3356,-0.039897100000000005,
BrAgHg,0.0,-0.0398962,
AlCuHfPt,0.0,-0.0398956,
MnTe2Pr6,0.0,-0.0398953,
TiTe3CsAu,0.0,-0.0398951,
RhSb2Dy,0.0,-0.0398941,
Ni2GaPu,0.0,-0.0398919,
Si2RhU,0.0,-0.0398911,
I6Cs2Er,0.0,-0.0398909,
SeBrBi,1.2252,-0.0398904,
Pd2InDy2,0.0,-0.039889400000000005,
Fe2GaNp,0.0,-0.0398888,
Si2Ru2Np,0.0,-0.0398876,
Y6RuPb2,0.0,-0.039887500000000006,
GeTc2W,0.0,-0.039886899999999996,
AgSnEr,0.0,-0.0398867,
CdSnTm,0.0,-0.0398864,
P2La6Pt,0.0,-0.0398847,
Cu2CdAu2,0.0,-0.039884,
Ga4Pt2Au,0.0,-0.039884,
OCsTl,1.3751,-0.039883699999999994,
TcRuCe2,0.0,-0.039883,
PSbTl,0.0,-0.0398822,
ZnInLu2,0.0,-0.0398822,
S2IrHg,0.0,-0.0398822,
O2IHgBi,1.6036,-0.039882100000000004,
RuSm,0.0,-0.039882,
B2CaPt3,0.0,-0.0398815,
CrRu2Os,0.0,-0.0398813,
Rh2In5Ho4,0.0,-0.039881,
ZnZr6Bi2,0.0,-0.039880200000000005,
PdSnDy,0.0,-0.039880000000000006,
GaNbAu,0.0,-0.0398798,
CdInTb2,0.0,-0.0398795,
Mg2Pu,0.0,-0.0398792,
Ge3Te6Bi2,0.0,-0.0398784,
MnAgAu,0.0,-0.0398782,
B3ReU,0.0,-0.0398778,
NaTe2Bi,1.0326,-0.0398776,
GaCdLu2,0.0,-0.0398771,
Ga3PrIr2,0.0,-0.0398769,
S2HfTl,0.0,-0.0398763,
AsSmTm,0.0,-0.0398756,
Ni3TbPt2,0.0,-0.0398746,
Mg2GdAc,0.0,-0.0398743,
Se3SnPt2,0.0,-0.0398737,
YSbTm,0.0,-0.0398722,
P2Rh2Np,0.0,-0.039872,
B2N3Mn2U3,0.0,-0.039871699999999996,
N2RePt,0.0,-0.0398713,
O2Tb2Bi,0.0,-0.0398707,
As3Au2,0.0,-0.0398699,
B2BaOs2,0.0,-0.0398699,
N2YNp,0.0,-0.0398698,
NOIn2Er6,0.0,-0.0398684,
NiTe2Hg,0.0,-0.039866700000000005,
RbIn2Pt,0.0,-0.0398638,
I4Tb,0.0,-0.0398628,
Ga3LaIr2,0.0,-0.0398628,
Cd3Hg,0.0,-0.0398621,
Zn2RuTh,0.0,-0.0398619,
N2ZrU,0.0,-0.039860799999999995,
LiNaPb2,0.0,-0.0398602,
GeGd,0.0,-0.0398601,
C2Tb3Pb,0.0,-0.039859900000000004,
KSb2Pb,0.0,-0.0398593,
Y6RhPb2,0.0,-0.039858899999999996,
MnSe4Tl3,0.0,-0.0398569,
MgSnBi,0.0,-0.039856499999999996,
KBa3Pt,0.0,-0.0398564,
Ru2In5Ho4,0.0,-0.039855600000000005,
Rh5Pt,0.0,-0.0398552,
PdTe3BaTb,0.0,-0.0398549,
BCRhNp,0.0,-0.0398535,
FeTeHf,1.0601,-0.0398535,
ZrSbHo,0.0,-0.039853,
Zr2AgTa,0.0,-0.039852200000000004,
Rh3Lu,0.0,-0.0398518,
CuI6Cs2Bi,0.3047,-0.039851399999999995,
Si2TaRe,0.0,-0.039851,
Ga2RuDy6,0.0,-0.0398508,
CdSn2Tb2,0.0,-0.0398506,
In2PrTb,0.0,-0.0398492,
Ba8La,0.0,-0.0398476,
Li2SnBi2,0.0,-0.039847499999999994,
CoSb2Nd6,0.0,-0.0398474,
RbZrTe3Pt,0.0,-0.039844700000000004,
MgPd2Hf2,0.0,-0.039843699999999996,
Cd2LaEu,0.0,-0.0398435,
Fe2ZnPu,0.0,-0.0398424,
HSU,0.0,-0.0398417,
Co2AsU,0.0,-0.0398409,
Y2AgAu,0.0,-0.0398407,
Pd5TePb,0.0,-0.0398391,
B2N3Fe2U3,0.0,-0.039838900000000003,
RhSnTb,0.0,-0.0398386,
H2SnBi2,0.0,-0.0398375,
NiSb2Tm2,0.0,-0.0398375,
Ag2InEr2,0.0,-0.0398369,
CaBa3Au,0.0,-0.0398366,
Zn3EuPt2,0.0,-0.0398356,
SbIBa2,0.8249,-0.0398356,
FeTe2Pr6,0.0,-0.0398352,
Ga2RhDy6,0.0,-0.039834800000000004,
Y2ZrOs,0.0,-0.039834299999999996,
I8BaNd2,2.0533,-0.0398342,
Cd3CsAu,0.0,-0.0398337,
CoTc2Os,0.0,-0.039832900000000004,
InI2Pr2,0.0,-0.0398328,
Fe3Lu2Ir,0.0,-0.0398326,
RuSn2Er,0.0,-0.039832099999999995,
O3HgPa,0.0,-0.0398316,
ZrNb2Hf,0.0,-0.0398314,
LiBaPb,0.0,-0.039830700000000004,
FeAs2Ho6,0.0,-0.039830399999999995,
N3ReTh,0.0,-0.0398301,
NbSb5Nd3,0.0,-0.0398301,
NPdEr3,0.0,-0.0398294,
Al2U,0.0,-0.0398292,
CdTe3CsTm,1.3629,-0.0398289,
Co2SbHf2,0.0,-0.0398283,
AlRe,0.0,-0.0398262,
Zn2Tb2Pb,0.0,-0.0398262,
K2AuTl,0.0,-0.0398238,
MgSmHg,0.0,-0.039823700000000004,
AsTe3La4,0.0,-0.0398232,
Co2Nd2Pb,0.0,-0.039823,
RuSnTb,0.0,-0.0398228,
In5Tl,0.0,-0.0398226,
Ga2TmIr,0.0,-0.0398221,
PdSn2Tm,0.0,-0.0398217,
Al3Eu2Ir2,0.0,-0.0398217,
LiAs2HoIr2,0.0,-0.039820799999999996,
Sc2YAu2,0.0,-0.0398206,
Ru2SnTm,0.0,-0.0398202,
LiBa2Pb,0.0,-0.039817500000000006,
GaInEu2,0.0,-0.0398173,
GaInAu,0.0,-0.039816000000000004,
Zn2GdPt,0.0,-0.039816000000000004,
CuRu2Er3,0.0,-0.03981560000000001,
KGa2Bi2,0.0,-0.0398138,
FeSbHf,0.0,-0.0398138,
NiSb2Hg,0.0,-0.0398136,
NEu2,0.0,-0.0398128,
PdIn3Sn2Ho3,0.0,-0.0398127,
Ge2Ba2Bi,0.0,-0.0398124,
Ca3Ge2AuTl3,0.0,-0.0398123,
BGa2TmOs2,0.0,-0.0398111,
Ge2TbOs,0.0,-0.0398096,
Se2Bi,0.5784,-0.039809,
NaY2Hg2,0.0,-0.0398086,
AgTe3CsTm,0.0,-0.039808500000000004,
TcInLa3,0.0,-0.0398084,
ScInAu,0.0,-0.0398082,
ScTcW,0.0,-0.0398082,
CuTm2,0.0,-0.03980789999999999,
Zn2RhTh,0.0,-0.03980789999999999,
Se3ZrPtTl,0.0,-0.0398068,
AlCaAu2,0.0,-0.0398067,
Si2Pd2Pu,0.0,-0.0398052,
In2LaTb,0.0,-0.039804099999999995,
As2CePt,0.0,-0.039804099999999995,
KI3Pb,1.1404,-0.0398037,
I8BaPr2,2.0772,-0.0398036,
SCsAu,1.6784,-0.0398033,
NiSb2Nd6,0.0,-0.0398032,
P2Te5Pb2,0.0,-0.0398024,
AgTe3BaDy,0.5367,-0.0398018,
Cu4HgPu,0.0,-0.0398009,
LiZnIr2,0.0,-0.0398003,
CuI3Tl,0.0,-0.039798900000000005,
C5Hf6,0.0,-0.039798099999999996,
SiBa2Hg,0.0,-0.0397978,
CoAs2Ho6,0.0,-0.0397978,
SiTePt,0.2671,-0.0397976,
Ru2InTb2,0.0,-0.0397963,
Ru2PdSm3,0.0,-0.0397954,
Al2OsAu,0.0,-0.0397949,
Rh2PmSm,0.0,-0.0397949,
CoTc2Ir,0.0,-0.0397943,
Te5Ho,0.0,-0.0397943,
CuTe2Au,0.0,-0.039794199999999995,
MgTb5,0.0,-0.039794199999999995,
AsTe3Pr4,0.0,-0.0397934,
InI2La2,0.0,-0.0397934,
MnMo2Pt,0.0,-0.039793100000000005,
TcRhCe2,0.0,-0.039793100000000005,
CrMo2Re,0.0,-0.0397928,
GeSe7Bi4,0.2721,-0.0397927,
Cu3HoPt2,0.0,-0.039792499999999995,
Ga2TmPt,0.0,-0.039792299999999996,
Sn7Tb3,0.0,-0.0397917,
CoTe2Pr6,0.0,-0.0397898,
N3OsTh,0.0,-0.0397891,
Fe2SnHf2,0.0,-0.0397891,
PI2Eu2,0.0,-0.0397891,
GeCdEu2,0.0,-0.039788899999999995,
LiTiAu2,0.0,-0.039788699999999996,
Rh2InTb2,0.0,-0.0397868,
AlLu2,0.0,-0.039786499999999995,
CuRh2Er3,0.0,-0.0397861,
GeYAu,0.0,-0.0397858,
GePdTm2,0.0,-0.0397853,
Mg2LaPt2,0.0,-0.0397847,
In2La3,0.0,-0.0397847,
ZnSnEu2,0.0,-0.0397842,
Ge2TbPt,0.0,-0.039783,
Pd5InBi,0.0,-0.0397824,
CaI3Tl,3.0833,-0.0397817,
FeTc2Re,0.0,-0.039781500000000004,
MgAg2Ac,0.0,-0.0397809,
CoCuHf2,0.0,-0.0397808,
CaSr2Pt2,0.0,-0.0397804,
CaGe2Pu,0.0,-0.0397801,
CCo2Ge2Th2,0.0,-0.039779800000000004,
MgSiPt2,0.0,-0.0397787,
Rh2SnEu,0.0,-0.039777900000000005,
ZnNbIr,0.0,-0.0397778,
Cu5Pt4,0.0,-0.0397774,
Ni2LuAu,0.0,-0.0397767,
C2Dy3Tl,0.0,-0.0397763,
NbSb5La3,0.0,-0.039775599999999994,
NaSnBi,0.0,-0.0397755,
CuGeAsU,0.0,-0.0397739,
RuSb2Tb,0.0,-0.039773699999999995,
Pd5Ho3,0.0,-0.0397736,
MnTe2La6,0.0,-0.039773499999999996,
ZnSnAu,0.0,-0.039773,
Se3SbTm4,0.0,-0.0397727,
RhSn2Er,0.0,-0.0397727,
PdInEr,0.0,-0.0397706,
B2Mg2SiIr5,0.0,-0.0397705,
BPd6Pb2,0.0,-0.039770200000000006,
Pd4Tb3,0.0,-0.0397691,
MnRh2Tl,0.0,-0.0397684,
CuTe2Nd6,0.0,-0.0397676,
TcCe,0.0,-0.039767000000000004,
NiGe2U,0.0,-0.039765999999999996,
CGe2Nd2W2,0.0,-0.0397658,
KCaAu2,0.0,-0.0397658,
ZrHo,0.0,-0.0397652,
Ga3NdPt2,0.0,-0.0397634,
Ga2CdHg2,0.0,-0.0397631,
RuIn3Er2,0.0,-0.0397618,
Co2ZnHf3,0.0,-0.0397618,
RhTeSm,0.6073,-0.039761200000000003,
SiBaHg,0.0,-0.0397611,
CGeLu3,0.0,-0.0397607,
Al2IrAu,0.0,-0.0397597,
Fe3Lu2Pt,0.0,-0.0397596,
LiLaTl,0.0,-0.0397596,
Ga2RbTl2,0.0,-0.039759300000000004,
OClTh,0.8875,-0.039759,
Li2BaPb2,0.0,-0.039758499999999995,
SbBa2,0.0,-0.039758499999999995,
FTl,2.7804,-0.039758299999999996,
LiAs2HoPt2,0.0,-0.0397581,
Ag2InHf,0.0,-0.039758,
K2I6Pu,0.0021,-0.0397575,
BeAsTa2,0.0,-0.0397572,
Rh3Tb2,0.0,-0.039756900000000005,
CuSb2Au,0.0,-0.039756799999999995,
Zn2Tb3Hg,0.0,-0.0397565,
Rh2SnTm,0.0,-0.039752899999999994,
Ni2Dy2Hg,0.0,-0.0397521,
SbI3Ba3,0.6484,-0.0397519,
OFPa,0.0,-0.0397519,
NbSb5Pr3,0.0,-0.039751600000000005,
PKAu2,0.4327,-0.0397515,
Ag2Lu,0.0,-0.0397509,
LiGaAu2,0.0,-0.0397506,
S2PdTl2,0.0,-0.0397504,
GaSb2Pr6,0.0,-0.0397496,
Zr2Sn2Hf,0.0,-0.0397492,
Ru2ISm2,0.0,-0.0397489,
B4Sr2Ir5,0.0,-0.039747500000000005,
Ag2SmEr,0.0,-0.0397459,
AgNd2,0.0,-0.0397446,
NiTe2Pr6,0.0,-0.0397442,
Ag2LaTm,0.0,-0.0397439,
I6Cs2Ho,0.0,-0.0397428,
FCs3Pb,0.0,-0.039739199999999995,
CuRhPt,0.0,-0.039739,
Ag2SnGd,0.0,-0.0397385,
S2PtHg,0.5246,-0.0397385,
OInEr3,0.0,-0.039738300000000004,
AgCdDy2,0.0,-0.0397361,
OPdEr3,0.0,-0.039736,
SITl,0.8972,-0.039735599999999996,
BPd4Th,0.0,-0.0397355,
GeRuHf,0.0,-0.039733199999999996,
MgCeHg,0.0,-0.039733,
Ag2CdTm2,0.0,-0.039732500000000004,
Ru2PmSm,0.0,-0.0397324,
FeTe2La6,0.0,-0.039732300000000005,
Ge2Ag2Th,0.0,-0.0397321,
GaRuTa,0.0,-0.039731999999999996,
ZnSn2Lu2,0.0,-0.0397318,
Rh2CdGd,0.0,-0.0397314,
FeSb2Pr6,0.0,-0.0397311,
SrIn2Hg,0.0,-0.039730600000000005,
Ag4LaHg,0.0,-0.0397291,
CI5Dy4,0.0,-0.0397273,
NiAs2Ho6,0.0,-0.0397263,
Te3Ba2,0.7986,-0.0397257,
As2LaIr,0.0,-0.0397244,
Se2SmAu,0.2885,-0.0397239,
LiZnPt2,0.0,-0.0397226,
RhPdSm2,0.0,-0.039721,
MgZnAu2,0.0,-0.0397201,
SiAu,0.0,-0.0397194,
Zr2Pd2Hg,0.0,-0.0397192,
Ge2SrHg2,0.0,-0.0397179,
Pd3Dy2,0.0,-0.0397166,
CrTe4Au,0.0,-0.0397147,
Ge2In3Dy3Au,0.0,-0.0397138,
B2N3Co2U3,0.0,-0.039713700000000005,
RhTeCe,0.0,-0.039713,
In5BaAu,0.0,-0.0397128,
Ga3PrPt2,0.0,-0.0397128,
NIEu2,0.0,-0.0397124,
MgKTl2,0.0,-0.0397109,
STeRe,0.1123,-0.039709600000000005,
Sr2Sb2Pb,0.0,-0.039709299999999996,
ZrSb5Nd3,0.0,-0.0397092,
Rh3SnDy2,0.0,-0.039707900000000004,
Ag4BaTl,0.0,-0.0397078,
CoTe2La6,0.0,-0.039707700000000005,
Si2ZrIr2,0.0,-0.0397064,
RuPdSm2,0.0,-0.039706000000000005,
Rh2Ho,0.0,-0.0397055,
In6LaPt,0.0,-0.0397051,
Ag2TbDy,0.0,-0.0397041,
Pd2In5Ho4,0.0,-0.039703,
Sr2Sn2Bi,0.0,-0.0397015,
InTe2Tb,0.0,-0.0397013,
Si2InIr2,0.0,-0.0397009,
Rh2In3Dy3,0.0,-0.039699899999999996,
MgPPt2,0.0,-0.0396997,
AgTe2Ho,0.7803,-0.0396993,
Sc2AgHg2,0.0,-0.0396988,
Co2Pr2Pb,0.0,-0.0396987,
CuGa2Pu,0.0,-0.0396978,
MnIHf,0.0,-0.039697699999999995,
Cd4BaPb,0.0,-0.0396975,
CaSbAu,0.0,-0.0396972,
CoZr2Bi,0.0,-0.0396972,
Ge2Sn3Sm3Ir,0.0,-0.0396966,
KBa2Ir,0.0,-0.0396962,
Ga2ZrTa2,0.0,-0.039695999999999995,
Cd2SmTm,0.0,-0.0396959,
Ga2La2Pb,0.0,-0.0396956,
MnSb2La6,0.0,-0.0396954,
LiNi2NdBi2,0.0,-0.0396954,
NiRh2Lu2,0.0,-0.0396952,
MgCaPt2,0.0,-0.039695,
MnGa2Np,0.0,-0.039694099999999996,
GeCdAu,0.0,-0.0396926,
S2KAu3,1.1289,-0.039692,
AgSb2Er,0.0,-0.0396912,
Ge2In3Tb3Ir,0.0,-0.039690800000000005,
KBa3Ir,0.0,-0.0396901,
Ga3LaPt2,0.0,-0.0396876,
TiTc2Re,0.0,-0.039687,
Cu2Tb2Tl,0.0,-0.039684199999999996,
AsSbDy2,0.0,-0.0396834,
Pd2CdHo2,0.0,-0.0396817,
As2Rb3Pt3,0.0,-0.0396815,
Ge2Sn3Sm3Os,0.0,-0.0396803,
Sn3Ho,0.0,-0.0396795,
ZrRu2Lu,0.0,-0.039679099999999995,
Sb3Ce,0.0,-0.0396787,
KGe2Pb2,0.0,-0.0396782,
FeSe4Tl3,0.0,-0.0396779,
CaSnPt,0.0,-0.0396778,
RhIn2Lu,0.0,-0.0396777,
MnTc2W,0.0,-0.039677300000000006,
Ru2CeNd,0.0,-0.0396761,
Rh5Ta,0.0,-0.039675600000000005,
Si2Rh2Np,0.0,-0.0396746,
Ga2TmOs,0.0,-0.0396744,
Ga2Pd2Th,0.0,-0.0396742,
Ge2RbAu2,0.0,-0.0396732,
NiTe2Ta,0.0,-0.0396729,
Ge3Pa,0.0,-0.0396718,
Sr2LaAu,0.0,-0.039671399999999996,
RuSbSm,0.0,-0.039671399999999996,
GeRbBi,0.0608,-0.0396713,
GaSb2La6,0.0,-0.039671,
CGe2Pr2W2,0.0,-0.039670699999999996,
Ca2InPt2,0.0,-0.0396703,
CSi2Er2Re2,0.0,-0.0396702,
Mg2TlPb,0.0,-0.039670000000000004,
RuPd2Sm3,0.0,-0.0396693,
InSnPr2,0.0,-0.039668999999999996,
O2Br2HgPb2,1.9456,-0.039668,
CoSb2Pr6,0.0,-0.0396676,
GeRu3Lu2,0.0,-0.0396644,
Zn2Er2Hg,0.0,-0.039663699999999996,
Y2Rh2Pt,0.0,-0.039663699999999996,
Al2In5Hf4,0.0,-0.0396634,
CoMo2Ir,0.0,-0.0396633,
I2Ba,3.1373,-0.039662300000000004,
Zn2Pd3Pu,0.0,-0.039662100000000006,
NSnHo3,0.0,-0.0396616,
Rh2NdSm,0.0,-0.0396611,
LiGeTh,0.0,-0.0396605,
RhPm,0.0,-0.0396601,
CuSb2Nd6,0.0,-0.0396594,
AgSnSm2,0.0,-0.039658299999999994,
KI2Tl,2.5567,-0.0396573,
Mg2LaIr2,0.0,-0.0396571,
Ag4SbPb,0.0,-0.0396568,
Na2PtBi,0.0,-0.039656199999999996,
NiTe2La6,0.0,-0.0396556,
LiCaTl2,0.0,-0.0396554,
LiNi2PrBi2,0.0,-0.0396552,
N2Cs2Pa,0.0,-0.0396551,
CrZrW,0.0,-0.039654299999999996,
RuIn2Lu,0.0,-0.0396528,
Zr2CdTa,0.0,-0.039652599999999996,
AsDy2,0.0,-0.0396508,
FeZr6Pb2,0.0,-0.039650399999999995,
CuZrTl,0.0,-0.0396488,
CSi2Ho2Os2,0.0,-0.0396482,
YCd2Hg,0.0,-0.0396467,
RhSb2Tb,0.0,-0.0396466,
Ge4Sr3Ir4,0.0,-0.0396462,
MnZr6Pb2,0.0,-0.0396458,
PdSb2Dy,0.0,-0.0396458,
YNd3,0.0,-0.039645200000000005,
Ge2ZrHf2,0.0,-0.039645,
Co2Sm3Hg,0.0,-0.039644799999999994,
NAlGd3,0.0,-0.0396445,
SiSmHf,0.0,-0.0396436,
CaHg,0.0,-0.0396421,
Ni4Ir3,0.0,-0.039641300000000004,
NiInAu,0.0,-0.039639299999999995,
CSbHo3,0.0,-0.0396389,
FeIHf,0.0,-0.0396385,
CoMo2Os,0.0,-0.0396381,
RbZrTe3Au,0.0,-0.0396378,
AgTe3BaTb,0.5345,-0.0396373,
SiTe3Pb,0.0,-0.0396372,
GeTe3Nd4,0.0,-0.0396366,
Y2Pd2Tl,0.0,-0.0396362,
CoSbHf,0.0,-0.039635,
N2Er2Pt,0.0,-0.0396339,
Pd2Sb2Eu,0.0,-0.0396334,
ZrSb5Pr3,0.0,-0.039633299999999996,
RuRhPm2,0.0,-0.039633299999999996,
MgAlIr2,0.0,-0.0396321,
FeMo2Pt,0.0,-0.0396314,
Na2AgBi2,0.0,-0.0396306,
Ge2In3Tb3Pt,0.0,-0.0396303,
LiAs2DyIr2,0.0,-0.039630000000000006,
NInLu2,0.0,-0.039629399999999995,
BeCuAu2,0.0,-0.0396293,
PCs2Pt,0.0,-0.0396288,
S2Pd3Bi2,0.0,-0.039628100000000006,
Zn3TmPt2,0.0,-0.039627,
RhSbCe,0.1751,-0.0396265,
NiSb2Pr6,0.0,-0.0396264,
Rh2ISm2,0.0,-0.039626100000000004,
Rh2CePr,0.0,-0.0396257,
Si2PdIr2,0.0,-0.0396255,
Ru2In3Dy3,0.0,-0.0396255,
Co2La2Pb,0.0,-0.0396243,
Rh2SbEr,0.0,-0.0396243,
ScAgTl,0.0,-0.039622500000000005,
FeSb2La6,0.0,-0.0396216,
Ru2CePr,0.0,-0.03962039999999999,
NiPd2Er3,0.0,-0.0396203,
NiTc2Os,0.0,-0.0396197,
CrGa2Np,0.0,-0.0396193,
Si2ZrOs2,0.0,-0.039618499999999994,
Tc7Os,0.0,-0.0396171,
CaBaHg,0.0,-0.0396165,
Ge2In3Tb3Os,0.0,-0.0396155,
Ca3Rh2Tl3,0.0,-0.039614699999999996,
Ca2SnAu2,0.0,-0.039614199999999995,
Tc7Ir,0.0,-0.0396135,
Pd2SbTm,0.0,-0.0396134,
Ni2SbHf2,0.0,-0.039613300000000004,
SiEu2,0.0,-0.0396132,
ZnTe2Nd6,0.0,-0.0396124,
CoZr6Pb2,0.0,-0.039612,
I6Cs2Dy,0.0,-0.0396119,
Rh2CeNd,0.0,-0.0396117,
C2NbU,0.0,-0.0396112,
CuRh2Pb,0.0,-0.039611,
Al2Er3Hg,0.0,-0.039611,
Ge2La2Au,0.0,-0.0396105,
InSnLa2,0.0,-0.0396102,
KBa2Au,0.0,-0.0396096,
YRh4Tl,0.0,-0.0396095,
Cl3Eu3Bi,0.0,-0.039609,
AlSr2Pt2,0.0,-0.039608,
Y2CdAu,0.0,-0.0396076,
ZnRb2SrBi2,0.0103,-0.039607500000000004,
MnRu2W,0.0,-0.039607500000000004,
S2TaAu,0.0,-0.039607300000000005,
ScPd2Pb,0.0,-0.039607300000000005,
SeSnGd,0.0,-0.039606499999999996,
Zn3LuAu2,0.0,-0.0396057,
KSbTl,0.0,-0.0396052,
CrZr6Pb2,0.0,-0.0396043,
Br3InGd3,0.0,-0.0396036,
CGe2La2W2,0.0,-0.0396024,
GeRh3Lu2,0.0,-0.0396023,
Al2PtAu,0.0,-0.0396021,
Te5Dy,0.0,-0.0396002,
LiScAu2,0.0,-0.0396,
CuTe2Pr6,0.0,-0.039599800000000004,
CuZrIr,0.0,-0.039598799999999997,
AlBaAu,0.0,-0.0395963,
Si2AgNp,0.0,-0.039596,
GeTe4Cs2Hg,0.421,-0.039596,
LiSe2Pu,0.0,-0.0395958,
AsNdTm,0.0,-0.0395957,
CaSb2Tl,0.0,-0.0395944,
AlNiTa2,0.0,-0.0395943,
KBa3Au,0.0,-0.0395943,
RuPm,0.0,-0.0395933,
ZnYPb,0.0,-0.0395929,
RhInHo,0.0,-0.0395919,
Cu3DyPt2,0.0,-0.0395914,
Rh2LaCe,0.0,-0.0395909,
GaIn2Pb,0.0,-0.039590600000000004,
CdTe3CsEr,1.3701,-0.039588700000000004,
CSi2Tm2W2,0.0,-0.039587899999999995,
GaZrAu,0.6188,-0.039587699999999997,
Zn3TmIr2,0.0,-0.0395864,
In2Er,0.0,-0.039585999999999996,
Co2SnHf2,0.0,-0.0395854,
FeEr2,0.0,-0.039584400000000006,
LiPTl2,0.0,-0.039584299999999996,
P2RhPa,0.0,-0.0395842,
O5Se2Hf2U2,0.0,-0.0395815,
CaSnIr,0.0,-0.0395807,
H2Er3Pb,0.0,-0.039580599999999994,
Al3RhTb3Pb2,0.0,-0.039580399999999995,
Ru2LaCe,0.0,-0.0395803,
Ca2RhPt2,0.0,-0.0395801,
ZnNbPt,0.0,-0.03958,
P2FeTm6,0.0,-0.0395794,
ZnRu2Er3,0.0,-0.0395794,
CoSb2La6,0.0,-0.0395786,
Si2KAu3,0.0,-0.0395779,
CaBa2Hg,0.0,-0.0395778,
Sc2CdHg2,0.0,-0.0395775,
Fe2HoTl,0.0,-0.039577100000000004,
S2SeBi2,0.6379,-0.0395762,
Be2LaIr2,0.0,-0.039576,
RhIn3Sn2Dy3,0.0,-0.0395755,
SrAg2Tl,0.0,-0.039574899999999996,
Cd2TbHo,0.0,-0.0395736,
BGa2ErOs2,0.0,-0.039573500000000005,
Ca2BaHg2,0.0,-0.039573,
Ca2RhIr2,0.0,-0.039572699999999995,
Ni2Nd2Pb,0.0,-0.0395719,
Ca2InIr2,0.0,-0.0395706,
TiRu2Pt,0.0,-0.0395704,
Mo3Te8W,0.7194,-0.0395704,
GeTcHf,0.0,-0.0395682,
Ge2Tm3,0.0,-0.0395681,
Mg2PtPb,0.0,-0.039567700000000004,
CuTe2Hg,0.0,-0.0395676,
B2Mg2AlIr5,0.0,-0.039567500000000005,
FeGa2Np,0.0,-0.0395674,
CrTc2W,0.0,-0.0395672,
BeAlIr2,0.0,-0.0395672,
InSm,0.0,-0.039567,
LiAs2DyPt2,0.0,-0.0395662,
Cu2SnAc,0.0,-0.0395655,
AgTe3CsEr,0.0,-0.0395653,
CuGaHf2,0.0,-0.0395645,
RuISm,0.0,-0.039564300000000004,
Se3SnTm4,0.0,-0.039563600000000004,
Rh2PrSm,0.0,-0.0395634,
AgPr2,0.0,-0.0395628,
NiTc2Ir,0.0,-0.0395582,
NOSn2Ho6,0.0,-0.039558,
LiLa2Hg,0.0,-0.03955789999999999,
PdSm,0.0,-0.0395572,
CoTc2Re,0.0,-0.0395567,
Tc2Dy,0.0,-0.0395565,
Fe2Sm2Tl,0.0,-0.0395551,
CoEr2,0.0,-0.0395547,
FeTe3Ta,0.0,-0.039554099999999995,
MnRu2Ho3,0.0,-0.0395535,
CuAs2Ho6,0.0,-0.039553,
Al2LaHg2,0.0,-0.0395529,
ZnRh2Er3,0.0,-0.0395526,
MgTiHg2,0.0,-0.0395505,
N2In3Ho7,0.0,-0.039550199999999994,
Al3Hf4,0.0,-0.039550199999999994,
Ba,0.0,-0.0395497,
SrLa5,0.0,-0.0395497,
N2Sn3Dy7,0.0,-0.0395487,
AsNbHf,0.0,-0.0395485,
CdIn2Ho2,0.0,-0.039548,
AgSnCe2,0.0,-0.0395454,
Ca3Pd2Tl3,0.0,-0.0395446,
CuZrPt,0.0,-0.039543999999999996,
Zn2AgAu2,0.0,-0.0395438,
P2CoTm6,0.0,-0.0395437,
Pd2SnEu,0.0,-0.0395433,
SAu,0.3096,-0.0395432,
AlTe2Sm6,0.0,-0.0395417,
CrRh2Os,0.0,-0.0395416,
ScIn2Pb,0.0,-0.0395413,
RhTe3BaSm,0.0,-0.039541200000000006,
Br3Ac,3.9643,-0.0395393,
ZnTe2Au,0.0,-0.0395391,
ClPt,1.1666,-0.039536999999999996,
MnGa2Er6,0.0,-0.0395366,
PdSnTb,0.0,-0.0395366,
GeZrTa,0.0,-0.039536299999999996,
FeTb3,0.0,-0.039536,
AlRh2Gd2,0.0,-0.0395357,
LiNiAu2,0.0,-0.039535400000000005,
CdDy,0.0,-0.0395351,
KCdBi,0.0055,-0.039534999999999994,
MgNdHg,0.0,-0.039534999999999994,
Pd2Er,0.0,-0.0395344,
BRe,0.0,-0.039533700000000005,
RhSbSm,0.0,-0.0395333,
In2Sb2Eu,0.0,-0.039533099999999995,
Mg2IrPb,0.0,-0.0395327,
Al2CaAu3,0.0,-0.0395326,
NiSn2Au,0.0,-0.0395323,
RuInHo,0.0,-0.0395316,
Fe2Ce2Tl,0.0,-0.0395314,
NiSb2La6,0.0,-0.0395313,
CGeHf2,0.0,-0.0395301,
BePRe2,0.0,-0.0395292,
ZnInPt,0.0,-0.0395291,
K2HgTl,0.0,-0.0395285,
SrRh2Ta,0.0,-0.0395282,
Se3InPt2,0.0,-0.039528,
NiZr6Pb2,0.0,-0.039527700000000006,
CuRu2Lu2,0.0,-0.0395274,
NGaLu3,0.0,-0.0395264,
AlBa2Au,0.0,-0.0395264,
GaRhTa,0.0,-0.0395255,
Fe2Ce2Pt,0.0,-0.0395251,
Ru2SnCe2,0.0,-0.039525,
Al3Tm2Ir2,0.0,-0.0395248,
Ge2Nd2Hg,0.0,-0.0395246,
In2CeSm,0.0,-0.0395239,
P2Ru2U,0.0,-0.039523499999999996,
RbIn2Au,0.0,-0.0395228,
K2CsPtTl,0.0,-0.0395217,
B2N3Ni2U3,0.0,-0.0395216,
CrRh2Ir,0.0,-0.0395214,
Rh2CdDy2,0.0,-0.0395212,
GeRhHf,0.0,-0.0395206,
OZnEuBi,0.0,-0.039520200000000005,
Al3RhHo3Tl2,0.0,-0.039520000000000007,
MgRhBi,0.0,-0.039519799999999994,
GeTe3Pr4,0.0,-0.039519799999999994,
Ge2Pd3Th,0.0,-0.0395192,
FeTc2W,0.0,-0.039518500000000005,
Rh2LaSm,0.0,-0.0395182,
GeTe3La4,0.0,-0.039517899999999995,
Ni2TmTl,0.0,-0.0395173,
MgRuGd2,0.0,-0.0395164,
Ru2Dy,0.0,-0.039516300000000004,
AlAgGd2,0.0,-0.0395152,
GaEr2,0.0,-0.039515,
Y2In2Tl,0.0,-0.0395148,