formula,bg,formation_energy,mp-id
Ga3GePt8,0.0,-0.0529848,
PdTb6Bi2,0.0,-0.0529823,
Rh2Hf2Hg,0.0,-0.0529823,
FeWRe,0.0,-0.0529818,
InTmIr,0.0,-0.052981600000000004,
Sr2Ir2Pb,0.0,-0.052981299999999995,
MoPt,0.0,-0.052980200000000005,
P2Os2Th,0.0,-0.0529791,
N2Lu7Tl3,0.0,-0.0529775,
GeRh3Th2,0.0,-0.0529769,
MgLu3Pt2,0.0,-0.052976,
InSnIr2,0.0,-0.0529757,
YErBi,0.0,-0.052975299999999996,
CuTm3Pt2,0.0,-0.052973799999999995,
La5Hg3,0.0,-0.0529729,
Al3IrPu2,0.0,-0.0529724,
La2Os,0.0,-0.0529716,
CdTb3Ir2,0.0,-0.0529708,
Pd2PtPb,0.0,-0.0529681,
NiReIr,0.0,-0.0529675,
CuInPu,0.0,-0.052964399999999995,
Si2Pt2Pa,0.0,-0.052964199999999996,
Rh3Ta4,0.0,-0.052962499999999996,
Rh2Gd2Pb,0.0,-0.052961799999999996,
Mo2RePt,0.0,-0.0529605,
Rh2NdPb2,0.0,-0.0529602,
Sb2SmIr2,0.0,-0.0529595,
Ni2In3Th3,0.0,-0.0529593,
PdTm2Pt,0.0,-0.052959200000000005,
SiPd3U2,0.0,-0.0529562,
P2Hf6Ir,0.0,-0.0529555,
IDyPt,0.7574,-0.0529541,
Te3Th,0.3387,-0.0529535,
MnTm6Tl2,0.0,-0.0529533,
SiGeAc2,0.0,-0.0529524,
Sn2TbAc,0.0,-0.0529489,
ZrRu2Pu,0.0,-0.0529461,
Sb3CsHg4,0.0,-0.0529458,
SiCe2Os3,0.0,-0.0529455,
GaEr2Ir2,0.0,-0.0529444,
CdTm2Pb,0.0,-0.0529436,
As2AuPa,0.0,-0.0529427,
GeHo2Ir2,0.0,-0.052942300000000005,
AgEu2Pt,0.0,-0.052942,
CdTb3Pt2,0.0,-0.0529416,
ZrSnOs2,0.3211,-0.052940600000000004,
Y2HfPt2,0.0,-0.0529393,
FeTm6Tl2,0.0,-0.0529392,
YSn2Pu,0.0,-0.052939,
P2Ir2Th,0.0,-0.0529385,
ScPrPb2,0.0,-0.0529381,
Ba4Au3,0.0,-0.052937899999999996,
ZrSnIr2,0.0,-0.0529369,
MgTm6Bi2,0.0,-0.0529366,
TcRhIr2,0.0,-0.0529352,
Tb3Au,0.0,-0.0529283,
MoTcPt2,0.0,-0.0529281,
RhTl,0.0,-0.0529274,
PdTm2Tl,0.0,-0.0529264,
CSi2Os2Th2,0.0,-0.052926,
RhTbPb,0.0,-0.0529248,
Rh2PdPu,0.0,-0.0529248,
GeRuU,0.0,-0.052923200000000004,
Rh2PrPb2,0.0,-0.052923000000000005,
YCdPb2,0.0,-0.0529215,
SnErAu,0.0374,-0.0529209,
CuAc,0.0,-0.052920499999999995,
AgLa2Tl2,0.0,-0.052917099999999995,
AlHfAu2,0.0,-0.052916,
ScLaPb2,0.0,-0.0529159,
PdLuHg,0.0,-0.0529147,
Al3PtPu2,0.0,-0.0529146,
Tc2WIr,0.0,-0.0529107,
CaDyPb2,0.0,-0.0529106,
Rh2Sm3Tl3,0.0,-0.0529103,
Ge2IrPa,0.0,-0.0529101,
KAgAu4,0.0,-0.052909700000000004,
ZnHf2Re,0.0,-0.052908000000000004,
Rh2Ce3Tl3,0.0,-0.0529072,
AgBaAu2,0.0,-0.0529066,
CdDy3Au2,0.0,-0.0529056,
Ru2OsPt,0.0,-0.0529055,
Ag4Pt5,0.0,-0.0529049,
AlTa2Au,0.0,-0.0529046,
CoTm6Tl2,0.0,-0.0529039,
SiIPu,0.0,-0.0529024,
Rh2SnNp,0.0,-0.0528995,
Nd2Au,0.0,-0.0528935,
CoEr2Ir2,0.0,-0.0528934,
Sn3Lu3Pt2,0.0,-0.052892299999999996,
MgLu3Os2,0.0,-0.0528919,
SSnPu,0.0,-0.0528895,
CoRePt,0.0,-0.0528893,
YSmHg2,0.0,-0.0528883,
FeEr2Os2,0.0,-0.0528866,
InEu2Hg,0.0,-0.0528863,
LiAu3,0.0,-0.0528859,
Cd2GdAc,0.0,-0.0528838,
ZnTm2Ir2,0.0,-0.0528827,
RhSnPt2,0.0,-0.052881300000000006,
MnEr6Pb2,0.0,-0.0528804,
CuTmPt2,0.0,-0.052878999999999995,
P2Hf6Pt,0.0,-0.0528788,
SbTbPt,0.3544,-0.0528786,
Tb3Re,0.0,-0.0528778,
TeHg,0.0,-0.052875700000000005,
InGd3,0.0,-0.052875700000000005,
SnTe5Pb4,0.4643,-0.0528748,
GaRe2,0.0,-0.0528747,
Ru2SmTh,0.0,-0.0528746,
InTm2Tl,0.0,-0.0528737,
Ga2Er3Pt4,0.0,-0.0528731,
InEuAu,0.0,-0.052871800000000004,
Cd2TlBi,0.0,-0.052871800000000004,
Ru3Np,0.0,-0.052871299999999996,
RuRhRe2,0.0,-0.0528687,
MoInIr2,0.0,-0.0528677,
CdLu2Hg,0.0,-0.0528667,
LiYPt4,0.0,-0.052866300000000005,
Ge2AuBi2,0.0,-0.052865999999999996,
SrErHg2,0.0,-0.0528631,
Cl2SePu2,0.0,-0.052862900000000004,
Si2Ir2Th,0.0,-0.0528622,
RhNdBi,0.0,-0.0528611,
C2AlTh3,0.0,-0.0528593,
ScPt2,0.0,-0.052855,
CoIrPt,0.0,-0.0528538,
GaRuNp,0.0,-0.0528533,
TcPt,0.0,-0.0528531,
SiSm2Pt3,0.0,-0.0528523,
Sn3U,0.0,-0.0528476,
RuTbPb,0.0,-0.0528449,
Rh2SmTh,0.0,-0.0528424,
Co2SnTh2,0.0,-0.0528421,
NiTm6Tl2,0.0,-0.052838,
InTl,0.0,-0.0528369,
RhErTl,0.0,-0.052836100000000004,
InBaHg2,0.0,-0.0528333,
FeEr6Pb2,0.0,-0.0528314,
B2Ba3Pt7,0.0,-0.052829799999999996,
Ru2WOs,0.0,-0.0528287,
GaEr2Pt2,0.0,-0.0528283,
Ru2WIr,0.0,-0.0528266,
CuTb4Pt3,0.0,-0.0528253,
BeAu2Hg,0.0,-0.052825000000000004,
CuTm3Os2,0.0,-0.0528249,
AgEu2Ir,0.0,-0.0528238,
RhOs,0.0,-0.0528236,
Ru2Sm3Tl3,0.0,-0.052822,
CdLa2Tl2,0.0,-0.0528208,
PdAgHf4,0.0,-0.0528208,
NiIr2,0.0,-0.0528197,
SiLuPt2,0.0,-0.052819000000000005,
SiCe2Pt3,0.0,-0.0528187,
KCdAu4,0.0,-0.052818199999999996,
In2BaAu3,0.0,-0.0528169,
Ce3Pb,0.0,-0.0528166,
ScErIr2,0.0,-0.0528162,
CTa3,0.0,-0.0528144,
Sb2NdIr2,0.0,-0.0528142,
NHf2Tl,0.0,-0.0528138,
Rh2CsBi2,0.0,-0.0528134,
NiZnAc2,0.0,-0.0528122,
PITl3,0.0,-0.0528084,
RuSb2Pa,0.0,-0.0528069,
InSmBi,0.0,-0.0528067,
Te2Er7Ir2,0.0,-0.0528053,
GaEuAu2,0.0,-0.0528018,
ZnTm3Ir2,0.0,-0.0528016,
GaPt2,0.0,-0.052801499999999994,
FeWPt,0.0,-0.0528014,
Sm2Hg,0.0,-0.052800400000000004,
ZnTm2Pt2,0.0,-0.0527988,
PTlPb,0.0,-0.0527986,
SeAu2,1.754,-0.0527981,
PHf2Pt,0.0,-0.0527981,
CsBaBi,0.7343,-0.0527978,
SbTbIr,0.0,-0.0527975,
ScErTl2,0.0,-0.052795299999999996,
CIPu,0.0,-0.0527942,
In2TmAc,0.0,-0.0527897,
Ge2SmRe4,0.0,-0.052788600000000005,
Pd2AuPb,0.0,-0.0527875,
AlTa2W,0.0,-0.052786299999999994,
Sb2LaIr2,0.0,-0.0527856,
RhBaHg2,0.0,-0.0527824,
PdSbPt2,0.0,-0.0527822,
Ru2RePt,0.0,-0.0527808,
Si2Os2Th,0.0,-0.0527797,
In2TbTh,0.0,-0.0527781,
NiRe2,0.0,-0.0527764,
SbDy5Au2,0.0,-0.0527756,
AsBr2Pa2,0.0,-0.0527752,
GaAgPu,0.0,-0.052775100000000005,
MoRhRe2,0.0,-0.0527725,
InNd2Au2,0.0,-0.0527718,
CdTb3Os2,0.0,-0.0527718,
Sb2PrIr2,0.0,-0.052771500000000006,
Si2Re2Pa,0.0,-0.052771099999999994,
RhPrBi,0.0,-0.0527669,
CoEr6Pb2,0.0,-0.0527667,
Pd2Hf2Au,0.0,-0.0527666,
PdNdBi,0.2047,-0.0527665,
NHf2Pt,0.0,-0.0527658,
MoRuPt2,0.0,-0.0527653,
NbIr,0.0,-0.052764899999999997,
LiLuPb2,0.0,-0.0527648,
GaRhNp,0.0,-0.0527647,
GeTbPt2,0.0,-0.052763199999999996,
I3Th,0.321,-0.052761,
Te2Er7Pt2,0.0,-0.0527587,
Cd4Pt5,0.0,-0.0527573,
Sm3Pb,0.0,-0.0527571,
GeErAu2,0.0,-0.0527564,
Tc2SbU,0.0,-0.0527556,
In3Pu,0.0,-0.0527547,
PdBaHg2,0.0,-0.0527536,
Ru2IrPt,0.0,-0.0527535,
AgCdTh,0.0,-0.052752400000000005,
RbAg4Tl6,0.0,-0.052752299999999995,
RuRhIr2,0.0,-0.0527514,
Ce2Hg,0.0,-0.0527508,
CdBaAu2,0.0,-0.0527495,
Zr2OsPb,0.0,-0.0527475,
ZnTm3Pt2,0.0,-0.0527428,
Cl2AsPu2,0.0,-0.0527426,
InLuHg,0.0,-0.0527418,
PdTl,0.0,-0.052737900000000004,
Tc2WPt,0.0,-0.0527364,
CaPtPb,0.0,-0.0527361,
NaTe6Th3,0.0,-0.0527334,
RuTm2Au,0.0,-0.052732100000000004,
CoPt2,0.0,-0.0527317,
Pd2Sm3Tl3,0.0,-0.0527306,
AsPdU,0.0,-0.0527291,
AlTm6Pb2,0.0,-0.0527272,
SnAu,0.0,-0.052725799999999996,
GaEr2Os2,0.0,-0.052725299999999996,
GeTaOs,0.0,-0.0527241,
N2TePa2,0.0,-0.052722200000000004,
NbRuPt2,0.0,-0.0527214,
NbOs,0.0,-0.0527193,
Zr2IrPb,0.0,-0.052719,
RhTm2Au,0.0,-0.0527171,
Cd3Au4,0.0,-0.052716400000000004,
SrPmPt2,0.0,-0.052716,
CdNd2Pt2,0.0,-0.0527119,
Sn2ErAu2,0.0,-0.052710599999999996,
Tm3Lu,0.0,-0.0527099,
MgBaTl3,0.0,-0.052709200000000005,
TcRuPt2,0.0,-0.052708599999999994,
Sb2IPb2,0.0,-0.052708599999999994,
Rh2ReOs,0.0,-0.052706899999999994,
NiErPt2,0.0,-0.0527055,
SiNd2Ir3,0.0,-0.0527044,
SbIHg2,0.0,-0.0527039,
RbHg2,0.0,-0.0527035,
SbHg,0.0,-0.0527018,
NiEr6Pb2,0.0,-0.0527016,
Sn2GdBi,0.0,-0.0527016,
Pr2Au,0.0,-0.052700899999999995,
CHf2Tl,0.0,-0.052700000000000004,
Pd2NdPb2,0.0,-0.0526993,
RhLaBi,0.0,-0.0526941,
InTm2Os,0.0,-0.052693,
NiEr2Ir2,0.0,-0.0526928,
NbMoRe2,0.0,-0.052691299999999996,
ZrTbBi,0.0,-0.052689900000000005,
SeTePb2,0.3924,-0.0526897,
GeRhU,0.0,-0.0526875,
NGd3Tl,0.0,-0.0526868,
Sb2LaPt2,0.0,-0.052686,
Sb2NdPt2,0.0,-0.0526858,
IHg,1.0834,-0.0526854,
CdNd2Ir2,0.0,-0.052681399999999996,
Ge2PtPa,0.0,-0.0526801,
Zr2TlPb,0.0,-0.0526764,
PdSnPt2,0.0,-0.0526737,
CaGdAu2,0.0,-0.052672,
MnHo6Bi2,0.0,-0.0526719,
Co3OsTh2,0.0,-0.0526717,
PdPrBi,0.2103,-0.05267,
Ni2CdPa2,0.0,-0.0526699,
AgLa2Pt2,0.0,-0.0526691,
CuSnNp,0.0,-0.0526678,
Pd2PrPb2,0.0,-0.0526673,
Ge2CdTh2,0.0,-0.0526648,
GaHoPt2,0.0,-0.0526641,
Pd2BaAu3,0.0,-0.052662999999999995,
In4Hg5,0.0,-0.0526626,
In2CsBi2,0.0,-0.0526615,
TiHfBi,0.0,-0.052661099999999995,
ZnTm2Os2,0.0,-0.052661,
CuTm6Tl2,0.0,-0.052660200000000004,
NaAuHg2,0.0,-0.0526593,
BSrIr4,0.0,-0.0526582,
LiCdPt4,0.0,-0.052657800000000005,
CaEuTl2,0.0,-0.0526576,
Sb2PrPt2,0.0,-0.0526541,
SrBa2Bi2,0.0148,-0.052654000000000006,
InPr2Au2,0.0,-0.0526531,
Mo2WRe,0.0,-0.0526526,
GaZr2Bi3,0.0,-0.0526511,
PdTbPb,0.0,-0.0526506,
CaTbPb2,0.0,-0.0526496,
GaTm2Au2,0.0,-0.052648,
RhRe,0.0,-0.0526473,
LiHfIr2,0.0,-0.052645899999999995,
CdSnTl2,0.0,-0.0526437,
CdErPb,0.0,-0.0526412,
PdLaBi,0.291,-0.0526394,
In2HgPb,0.0,-0.0526376,
CdEuTl,0.0,-0.0526355,
RhSb2Pa,0.0,-0.052632899999999996,
Rh2OsIr,0.0,-0.0526308,
MnAu2,0.0,-0.052628,
InTe5Pb4,0.0,-0.0526272,
AgEu2Au,0.0,-0.0526266,
CrHo6Bi2,0.0,-0.0526262,
Co2IrU,0.0,-0.0526227,
Ni2SnTh2,0.0,-0.0526224,
Nb2ReOs,0.0,-0.052621499999999995,
ZrRuIr2,0.0,-0.0526212,
MnHo2Ir2,0.0,-0.0526212,
BTi2Ir6,0.0,-0.0526207,
CSi2Re2Th2,0.0,-0.0526207,
FeHo6Bi2,0.0,-0.0526201,
ITbPt,0.7781,-0.052617,
Co2OsU,0.0,-0.0526166,
Ag2TlPb,0.0,-0.0526154,
Ru2WPt,0.0,-0.052615,
SmLu3,0.0,-0.0526118,
InLa2Au2,0.0,-0.0526092,
CeLu3,0.0,-0.052608800000000004,
AgTe2U,0.0,-0.05260840000000001,
AgHoPb,0.0,-0.0526083,
Sr2Hg2Bi,0.0,-0.052608199999999994,
SnDyIr,0.0,-0.0526064,
BMn2Ir6,0.0,-0.052605400000000004,
MgTm2Pb2,0.0,-0.0526041,
Sb3Pb2,0.0,-0.0526037,
NiEr2Pt2,0.0,-0.0526024,
ZrRh2Pu,0.0,-0.0526021,
Ni2GaNp2,0.0,-0.0525997,
BrLa2Pb2,0.0,-0.0525997,
SnDyPt,0.0,-0.0525987,
Mo4Ta5,0.0,-0.0525985,
Ru2WRe,0.0,-0.0525983,
SbTb5Pt2,0.0,-0.0525981,
CuZnAc2,0.0,-0.0525974,
BCr2Ir6,0.0,-0.0525973,
KSrPt4,0.0,-0.052593400000000005,
NiRePt,0.0,-0.052593,
PdErTl,0.0,-0.0525925,
SrLaPt2,0.0,-0.0525922,
ZnTm3Os2,0.0,-0.052589399999999994,
SnTm2Hg,0.0,-0.0525885,
C2RuU2,0.0,-0.0525885,
CoEr3Ir2,0.0,-0.0525863,
Ru2NdTh,0.0,-0.0525849,
Sr2Au2Pb,0.0,-0.0525845,
CdPr2Pt2,0.0,-0.0525831,
YPb,0.0,-0.0525828,
Te3Lu4Bi,0.0,-0.0525824,
ZnLuAu2,0.0,-0.0525807,
Pd3Pu,0.0,-0.0525783,
La2Au,0.0,-0.0525752,
MoRhPt2,0.0,-0.0525727,
SiGdAu2,0.0,-0.0525712,
ScRe2,0.0,-0.0525698,
Rh2Nd3Tl3,0.0,-0.0525679,
Cu2In3Th3,0.0,-0.0525666,
SiPr2Ir3,0.0,-0.0525662,
GaHo6Bi2,0.0,-0.0525661,
Rh2ReIr,0.0,-0.052564799999999995,
YLaHg2,0.0,-0.0525634,
Si2Pt2Th,0.0,-0.0525619,
CdLa2Pt2,0.0,-0.052561100000000006,
LiAu2Hg,0.0,-0.052559600000000005,
RuPt,0.0,-0.0525578,
Ba3Pt2,0.0,-0.0525543,
ZnGdHg2,0.0,-0.052554000000000003,
AlSb3Th2,0.0,-0.052553600000000006,
CoHo6Bi2,0.0,-0.0525527,
NiWIr,0.0,-0.0525522,
Rh2PrTh,0.0,-0.052552,
InNdBi,0.0,-0.052551099999999996,
SnTmHg,0.0,-0.052550400000000004,
BeTaAu2,0.0,-0.0525502,
Si2Hf6Pt,0.0,-0.0525483,
Co2Sm4Tl5,0.0,-0.052547199999999995,
Ru2InNp,0.0,-0.0525462,
CdPr2Ir2,0.0,-0.0525447,
Te2GdTl,0.0,-0.052542700000000005,
MnSb2Hf6,0.0,-0.0525411,
ZrRhIr2,0.0,-0.0525389,
LiTe6Th3,0.0,-0.0525368,
CrW2,0.0,-0.0525368,
YHoBi,0.0,-0.0525338,
FeSb2Hf6,0.0,-0.0525335,
SrHoHg2,0.0,-0.0525331,
CuEr6Pb2,0.0,-0.0525314,
Mo2WPt,0.0,-0.0525295,
ZnLaPb2,0.0,-0.0525273,
Pd2HgPb,0.0,-0.0525249,
SiLa2Ir3,0.0,-0.0525241,
LiPtHg2,0.0,-0.052524,
Zn2SnPa2,0.0,-0.0525239,
FeHo2Ir2,0.0,-0.052521,
Rh2LaTh,0.0,-0.0525194,
CSiOs2Th,0.0,-0.052518999999999996,
MgLu2Pt2,0.0,-0.0525179,
InErPt,0.0,-0.052517299999999996,
FeTe2Hf6,0.0,-0.0525161,
CoWPt,0.0,-0.052514899999999996,
Te2TaHg,0.0,-0.0525148,
NiIrPt,0.0,-0.0525139,
MgLu2Tl2,0.0,-0.0525139,
MgHg3,0.0,-0.052512,
NbRhPt2,0.0,-0.0525113,
MnTe2Hf6,0.0,-0.0525106,
Ag5Pt6,0.0,-0.052510100000000004,
SiNd2Pt3,0.0,-0.052509,
CoSb2Hf6,0.0,-0.0525064,
KInHg4,0.0,-0.052505,
RuEr2Ir,0.0,-0.0525019,
RhEr2Ir,0.0,-0.0525011,
Ru2CdPu,0.0,-0.052498800000000005,
ZnTmPt2,0.0,-0.0524987,
MgGdTl2,0.0,-0.052498399999999994,
Co2Tm3Pb3,0.0,-0.0524962,
PmLu3,0.0,-0.0524956,
GaTmAu2,0.0,-0.0524945,
TcRhPt2,0.0,-0.0524912,
AgSb2U,0.0,-0.05249,
Pd2CsBi2,0.0,-0.0524893,
NbRe,0.0,-0.0524885,
BSrPt4,0.0,-0.052487400000000003,
NiHo6Bi2,0.0,-0.052487099999999995,
CuErPt2,0.0,-0.052485,
SbLuHf,0.0,-0.0524841,
InErIr,0.0,-0.0524827,
GeTaPt,0.0,-0.052481900000000005,
CoTe2Hf6,0.0,-0.0524817,
GeAu2,0.0,-0.052479700000000004,
AlCo2Pu2,0.0,-0.0524792,
CdLa2Ir2,0.0,-0.0524782,
FTePu,0.0,-0.0524781,
PdTm2Au,0.0,-0.052477800000000005,
InPrBi,0.0,-0.052477499999999996,
NbPt,0.0,-0.0524773,
SnHoAu,0.0551,-0.0524751,
RhIr,0.0,-0.0524729,
Sn2CsPb2,0.0,-0.0524728,
LiHfPt2,0.0,-0.052472200000000004,
AgEr2Pb,0.0,-0.0524699,
Co2Lu3Tl3,0.0,-0.052469,
CrSb2Hf6,0.0,-0.0524688,
ScHoTl2,0.0,-0.0524655,
Ge2GdIr3,0.0,-0.0524649,
GeAgNp,0.0,-0.0524643,
RuTb6Pb2,0.0,-0.052464,
SeSbPb2,0.0,-0.052461799999999996,
ScHoIr2,0.0,-0.0524615,
Cd2Th,0.0,-0.0524574,
Pd2Hf2Hg,0.0,-0.0524568,
CdSm2Au2,0.0,-0.052456,
Rh2Pr3Tl3,0.0,-0.0524545,
CrTe2Hf6,0.0,-0.0524543,
RuEr2Pt,0.0,-0.0524536,
GeDy2Ir2,0.0,-0.0524528,
Rh2AgPu,0.0,-0.0524527,
CdLuAu,0.0,-0.0524523,
NiEr3Ir2,0.0,-0.0524514,
OZnBiNp,0.0,-0.052451300000000006,
Rh3Np,0.0,-0.0524512,
InSbAu2,0.0,-0.0524508,
ZnInPu,0.0,-0.0524503,
Rh2OsPt,0.0,-0.052449300000000004,
AsHfIr,0.0,-0.052449199999999994,
GaPdNp,0.0,-0.0524491,
KTlPb,0.0,-0.0524487,
Rh2WOs,0.0,-0.0524477,
Ga2Pb2Bi,0.0,-0.052446599999999996,
Ru2SnU,0.0,-0.0524429,
Sn2HoAu2,0.0,-0.0524429,
CuEr2Pt2,0.0,-0.052440600000000004,
InTeAu2,0.0,-0.0524378,
BrSbPb2,0.1077,-0.052437199999999996,
RhTb6Pb2,0.0,-0.052436100000000006,
RbTe2Pu,0.0,-0.052435699999999995,
SnLa2Hg2,0.0,-0.0524354,
NaHg3,0.0,-0.0524351,
GaSb2Hf6,0.0,-0.052432400000000004,
RhEr2Pt,0.0,-0.052432,
Ag4Au5,0.0,-0.0524311,
ZrRuPt2,0.0,-0.0524296,
SeSbTh,0.0,-0.0524293,
Fe2InTh2,0.0,-0.052429,
GaCdPu,0.0,-0.0524279,
Pm3Pb,0.0,-0.052426499999999994,
In2ErAc,0.0,-0.052426099999999996,
AlLuIr2,0.0,-0.0524259,
GeHoAu2,0.0,-0.0524252,
SrRhPb2,0.0,-0.052425,
KAuBi,0.0,-0.0524225,
MgTmPb2,0.0,-0.0524212,
Rh2La3Tl3,0.0,-0.052421100000000005,
Tb3Hg,0.0,-0.052420299999999996,
InTmAu,0.0,-0.052419600000000004,
FTeTl3,0.0,-0.0524176,
Ga2Ho3Pt4,0.0,-0.0524175,
Tm5Lu,0.0,-0.0524168,
Mn2InTh2,0.0,-0.0524166,
NiSb2Hf6,0.0,-0.052416,
Tc2SnU,0.0,-0.0524159,
Ga2AuNp,0.0,-0.0524152,
AlEr6Bi2,0.0,-0.0524147,
NiBaHg3,0.0,-0.0524116,
CuIr2,0.0,-0.052409199999999996,
Cd2BaPt3,0.0,-0.052406100000000004,
SeITh,0.0,-0.0524056,
RuSm3Pt2,0.0,-0.0524045,
Te4Tl3,0.0,-0.0524024,
InPt,0.0,-0.0524024,
Sn2CeAc,0.0,-0.0524021,
Rh4HgPu,0.0,-0.0524018,
Sn2SmAc,0.0,-0.052400300000000004,
NiEr3Pt2,0.0,-0.052397799999999994,
Pd2Nd3Tl3,0.0,-0.0523975,
ZnEr6Pb2,0.0,-0.052391,
NdLu3,0.0,-0.0523908,
RhHoTl,0.0,-0.0523871,
GaHo2Ir2,0.0,-0.0523864,
AsRuPa,0.0,-0.0523842,
NiTe2Hf6,0.0,-0.052384,
Pd2SnNp,0.0,-0.052383200000000005,
Ba2Pb,0.0347,-0.0523819,
YBaAu2,0.0,-0.0523797,
PdLa2Au2,0.0,-0.0523782,
BGd3Pb,0.0,-0.0523769,
PdSb2Pa,0.0,-0.0523767,
InTe2Pa,0.0,-0.0523743,
Sn2CeIr2,0.0,-0.0523706,
AgHf2,0.0,-0.0523695,
Rh2RePt,0.0,-0.052369399999999997,
PRuPu,0.0,-0.0523692,
InTm2Au,0.0,-0.052368899999999996,
NiPt2,0.0,-0.052365499999999995,
Ag2BaBi2,0.0,-0.0523652,
SiTm2Ir2,0.0,-0.0523624,
Rh2WIr,0.0,-0.0523613,
AsTePb2,0.0,-0.0523609,
Sn2Hf3,0.0,-0.0523596,
AsIHg3,0.0,-0.052359499999999996,
Al3Pt7,0.0,-0.0523589,
BrSbHg3,0.0,-0.052358400000000006,
KSb2Pt4,0.0,-0.0523573,
YLa2Tl2,0.0,-0.0523568,
AsTeTh,0.0,-0.052356099999999996,
GaDyPt2,0.0,-0.0523556,
GeIPa,0.0,-0.0523537,
TcW,0.0,-0.052352800000000005,
Sn2SmIr2,0.0,-0.0523512,
AgTm2Ir,0.0,-0.0523497,
ZrNbOs2,0.0,-0.052348799999999994,
NHf2Au,0.0,-0.0523461,
ZrRhPt2,0.0,-0.052342599999999996,
Co2PtU,0.0,-0.0523407,
NiHoPt2,0.0,-0.0523406,
ZrInIr2,0.0,-0.052338,
GeBr2Pa2,0.0,-0.052335700000000006,
CoHo2Ir2,0.0,-0.052334000000000006,
MoTcW2,0.0,-0.0523297,
AgTm2Tl,0.0,-0.0523292,
FeHo2Os2,0.0,-0.052328400000000004,
CuHo6Bi2,0.0,-0.0523277,
Zr3Hg4,0.0,-0.0523275,
GeDy2Pt2,0.0,-0.0523269,
PrLu3,0.0,-0.052325699999999996,
NaGdTl2,0.0,-0.0523214,
KPd4Tl6,0.0,-0.052320399999999996,
I3TlPb,1.9765,-0.052319899999999996,
Sr2Pt2Tl,0.0,-0.052319000000000004,
AlGeAc2,0.0,-0.052319000000000004,
NaTmPb2,0.0,-0.052318399999999994,
ScHfBi,0.0,-0.0523176,
TiHo6Bi2,0.0,-0.052317100000000005,
Ag3Hg4,0.0,-0.0523167,
CuZr2Bi3,0.0,-0.0523154,
FeW2,0.0,-0.0523145,
AlLuPt2,0.0,-0.0523129,
Sn2CePt2,0.0,-0.0523118,
InIr,0.0,-0.0523116,
SPtPb,0.0,-0.0523112,
Ru2TaIr,0.0,-0.0523081,
AgInTl2,0.0,-0.0523068,
Ru3U,0.0,-0.0523054,
CaAuPb,0.0,-0.0523046,
MgPb2,0.0,-0.0523027,
Rh2WRe,0.0,-0.052301600000000004,
I2Tm2Bi,0.0,-0.0523005,
Sn2SmPt2,0.0,-0.0522985,
MoW,0.0,-0.052297800000000005,
PRhPu,0.0,-0.0522962,
RhEr2Os,0.0,-0.0522949,
CGd3Tl,0.0,-0.052294,
RuRhPt2,0.0,-0.0522921,
AgTm2Pt,0.0,-0.0522912,
Nb3Os2Au,0.0,-0.0522902,
Pd2Pr3Tl3,0.0,-0.052289999999999996,
ZnAc,0.0,-0.052289,
BSc2Ir6,0.0,-0.0522855,
GaHo2Pt2,0.0,-0.0522787,
AsRhPa,0.0,-0.0522777,
BMn2Pt6,0.0,-0.0522772,
PdTb6Pb2,0.0,-0.0522772,
O2TePa2,0.0,-0.0522768,
ScPtAu,0.0,-0.052276699999999995,
NiWPt,0.0,-0.0522759,
Ag6Pt7,0.0,-0.0522744,
GePdU,0.0,-0.052273200000000006,
ZnEr2Ir2,0.0,-0.0522722,
Rh2InNp,0.0,-0.052272,
RuDy6Tl2,0.0,-0.052271700000000004,
Co2InTh2,0.0,-0.0522701,
AsAuHg,0.0,-0.0522684,
Rh2IrPt,0.0,-0.0522675,
MgHfAu2,0.0,-0.052265700000000005,
SrInPb2,0.0,-0.0522654,
PBr2U2,0.0,-0.052261,
CuEr3Ir2,0.0,-0.0522592,
LaLu3,0.0,-0.0522575,
PdEr2Ir,0.0,-0.052257,
AgBaHg2,0.0,-0.0522554,
SnTbIr,0.0,-0.052255,
Pd2La3Tl3,0.0,-0.0522533,
SnTbPt,0.0,-0.052251399999999996,
SrBaTl2,0.0,-0.0522506,
LiAuHg2,0.0,-0.052249899999999995,
Ru2TaOs,0.0,-0.0522468,
RhDy6Tl2,0.0,-0.0522459,
SiGaAc2,0.0,-0.0522457,
SrDyHg2,0.0,-0.052243200000000004,
SrPdPb2,0.0,-0.0522378,
Se2TlAc,0.974,-0.052237200000000004,
NiEr3Os2,0.0,-0.0522366,
AgEu2Hg,0.0,-0.0522361,
As2AuPb2,0.0,-0.052236,
Sn3Ce2Tl3,0.0,-0.0522357,
SBr2U2,0.0,-0.0522348,
Sb2BaTl2,0.0,-0.052234499999999996,
RhInPt2,0.0,-0.0522339,
NINp,0.0,-0.0522335,
AgTmTl,0.0,-0.0522316,
RbBa2Bi2,0.0,-0.052231099999999996,
LiTaAu2,0.0,-0.0522307,
Nd2Hg,0.0,-0.0522305,
AgDyPb,0.0,-0.0522282,
HHf3Hg,0.0,-0.052227499999999996,
MgSrIr4,0.0,-0.0522258,
ZrPdIr2,0.0,-0.0522252,
Co2Nd4Tl5,0.0,-0.052221699999999996,
ClRhTl3,0.0,-0.0522206,
CdEr2Pb,0.0,-0.0522174,
CdHoPb,0.0,-0.0522168,
RhCdTl2,0.0,-0.0522144,
CuSb2Hf6,0.0,-0.0522117,
Ge2IrTh,0.0,-0.0522116,
CuEr3Pt2,0.0,-0.0522088,
Sn2DyAu2,0.0,-0.0522071,
In2SmTh,0.0,-0.052204799999999996,
Sn2NdAc,0.0,-0.0522046,
Nb2WOs,0.0,-0.052201300000000006,
As2AuTh,0.0,-0.0522,
YSnPt2,0.0,-0.0521995,
Cd2TlPb,0.0,-0.0521994,
Sn2NdIr2,0.0,-0.0521991,
Zr2BaBi2,0.0,-0.0521972,
Sc2Pb2Bi,0.0,-0.052196599999999996,
SeHg2,0.0,-0.0521937,
PdEr2Pt,0.0,-0.0521928,
ZnEr2Pt2,0.0,-0.0521919,
FeAu2,0.0,-0.0521911,
FIPu,0.0,-0.0521875,
SiTm2Pt2,0.0,-0.0521873,
RuW,0.0,-0.052185699999999995,
NiBaPb2,0.0,-0.0521854,
Ru2RhU,0.0,-0.0521849,
CuTe2Hf6,0.0,-0.0521826,
TiSb2Hf6,0.0,-0.0521787,
Ru2TaPt,0.0,-0.0521781,
Sr2Ir2Tl,0.0,-0.0521775,
PdEr2Tl,0.0,-0.0521767,
In2SbAu3,0.0,-0.0521757,
ScDyTl2,0.0,-0.0521751,
In2CeTh,0.0,-0.0521736,
Ag2SnPu,0.0,-0.0521721,
SrSmAu2,0.0,-0.0521702,
GaHo2Os2,0.0,-0.0521679,
InSnAu2,0.0,-0.0521662,
AlGdAu2,0.0,-0.052165100000000006,
CoTaIr,0.0,-0.0521622,
Sn2NdPt2,0.0,-0.0521593,
ZrInPt2,0.0,-0.0521593,
ZnHo6Bi2,0.0,-0.0521582,
ScLuHg2,0.0,-0.052155900000000005,
Sn2LaIr2,0.0,-0.0521558,
SSbNp,0.0,-0.0521537,
Sn2PrIr2,0.0,-0.0521537,
Rh2SnU,0.0,-0.0521511,
LiBaTl3,0.0,-0.0521486,
PdHoTl,0.0,-0.0521475,
Se3Th2,0.0,-0.0521466,
MgTlBi,0.0,-0.052146500000000005,
YDyBi,0.0,-0.052146200000000004,
InEr2Tl,0.0,-0.052145699999999996,
In2AuTl,0.0,-0.0521438,
Cl2GePu2,0.0,-0.052141599999999996,
BrHg2,0.0,-0.0521413,
RhSmPb,0.0,-0.0521412,
MgSrPt4,0.0,-0.0521408,
FeSn2Hf6,0.0,-0.052140399999999996,
GeSmPt2,0.0,-0.0521391,
GeIHg3,0.0,-0.052138800000000006,
Fe2CoU2,0.0,-0.0521381,
ZnTm3Au2,0.0,-0.0521371,
Sn2LaAc,0.0,-0.052136,
AsSbPb2,0.0,-0.0521336,
GeDyAu2,0.0,-0.052132599999999994,
Sn2IPb2,0.0,-0.0521319,
ScDyIr2,0.0,-0.052131300000000005,
Sn2PrAc,0.0,-0.05213110000000001,
MnSn2Hf6,0.0,-0.0521303,
Nd3Pb,0.0,-0.0521303,
Rh2WPt,0.0,-0.0521278,
CoW2,0.0,-0.0521272,
CaScIr4,0.0,-0.0521263,
MnDy2Ir2,0.0,-0.0521245,
As2Tl2Pb,0.0,-0.0521244,
I4PtTl2,0.6934,-0.0521242,
MgGdPt2,0.0,-0.052123600000000006,
GaErAu2,0.0,-0.0521227,
AlTh,0.0,-0.0521226,
SbTb5Au2,0.0,-0.0521225,
Ni2Nd4Tl5,0.0,-0.0521214,
CuHoPt2,0.0,-0.0521214,
Ba3Au2,0.0,-0.052121299999999995,
AsHg2,0.0,-0.052121299999999995,
Sn2PrPt2,0.0,-0.0521211,
Sn2LaPt2,0.0,-0.0521188,
Rh2PdNp,0.0,-0.052116,
Co2Pr4Tl5,0.0,-0.0521158,
CaSmPb2,0.0,-0.052114400000000005,
CSiRe2Th,0.0,-0.0521135,
RuSmPb,0.0,-0.0521128,
Zr2AuPb,0.0,-0.0521123,
Rh2BaPb2,0.0,-0.0521117,
Pd2PtTl,0.0,-0.0521108,