formula,bg,formation_energy,mp-id
H3IrNp,0.0,-0.0379098,
Ni3Pt2,0.0,-0.0379083,
Zn2La3Hg,0.0,-0.037906,
CoIn3Tl,0.0,-0.0379057,
CuRh2Tb3,0.0,-0.0379052,
InBa2,0.0,-0.0379034,
I3Cs,1.5821,-0.0379031,
Ca2AgHg2,0.0,-0.037902700000000004,
Ni2In3Lu3,0.0,-0.037902200000000004,
CSi2La2Os2,0.0,-0.0379013,
SeI2Nd2,0.0,-0.0379007,
CuIn2Au,0.0,-0.037900300000000005,
Ga3Tm2Re,0.0,-0.037900300000000005,
NaPdPb,0.0,-0.037900199999999995,
Si2Tb2Pt,0.0,-0.0379001,
As2Cs2Pt,0.4911,-0.0378994,
NFIn2Dy6,0.0,-0.0378992,
RhIn5Hf,0.0,-0.037898600000000005,
BSnDy3,0.0,-0.0378975,
BNGdOs,0.0,-0.0378973,
KRb2Au2,0.0,-0.037896900000000004,
FeZr2Re,0.0,-0.0378964,
GaI3Nd3,0.0,-0.037896099999999995,
PdIn2Ho,0.0,-0.037896,
NiZr2Pt,0.0,-0.0378956,
Ti3Sn3Ir2,0.0,-0.0378949,
FeGe2Tb6,0.0,-0.0378937,
Sr2Pd2Pb,0.0,-0.0378937,
CuHo2,0.0,-0.037893300000000005,
ZnRh2Tm2,0.0,-0.0378929,
NiYHg,0.0,-0.0378923,
B2YIr2,0.0,-0.0378919,
Rh2SbPm,0.0,-0.0378915,
CdBaLa,0.0,-0.03789,
AgIn2Tm,0.0,-0.0378899,
BeMgRe2,0.0,-0.0378896,
Al3Si2Pu2,0.0,-0.0378896,
Ag2LaSm,0.0,-0.037889400000000004,
Cu2Sm2Hg,0.0,-0.0378881,
FeY6Pb2,0.0,-0.037886699999999995,
NIHf,1.5221,-0.0378861,
N2TeHf2,0.0,-0.0378856,
Rb2I2Hg,3.2557,-0.037885300000000004,
NbTe4Cs3,1.2603,-0.0378846,
Si2SrIr2,0.0,-0.0378844,
CoRuHo2,0.0,-0.0378827,
Rh4LaCe,0.0,-0.0378825,
Si2In3Dy3Pt,0.0,-0.0378814,
ZnPd2Dy3,0.0,-0.0378813,
GaRu2Hf,0.0,-0.0378813,
PCeLu,0.0,-0.0378808,
CaTe3Ta,0.0,-0.037880699999999996,
Pd2InHo,0.0,-0.037879399999999994,
NaSbIr,0.0,-0.0378793,
MgSnPt,0.0,-0.037879199999999995,
MgSm5,0.0,-0.0378787,
S2CdAu2,1.1152,-0.0378785,
AsISm2,0.0,-0.037878300000000004,
CuGe2Th,0.0,-0.037878,
KIn2Pb,0.0,-0.0378765,
GePdGd,0.0,-0.0378762,
RhTe2Ba,0.0,-0.0378761,
Rh2In3La3,0.0,-0.0378743,
Si2Rh2Th,0.0,-0.0378727,
BNRhTh,0.0,-0.0378725,
Si2Tc2Th,0.0,-0.0378724,
N2Y7Pb3,0.0,-0.0378724,
Ge2Ho3,0.0,-0.0378718,
NiSb2Tb2,0.0,-0.037871699999999994,
SrI4Ho,0.0,-0.0378708,
NInTm2,0.0,-0.0378703,
Be2IrAu,0.0,-0.0378702,
CSi2Pr2Ir2,0.0,-0.0378692,
SeTeLa2,0.0,-0.0378689,
Pd2In3Nd3,0.0,-0.0378689,
ZnRu2Ta,0.0,-0.0378688,
BrY2Ir,0.0,-0.0378666,
B2N3Mn2Th3,0.0,-0.037866500000000004,
S2Pd3Tl2,0.0,-0.037866300000000006,
NiPd2Tm2,0.0,-0.037865699999999995,
PdSn2Nd,0.0,-0.0378651,
Ge2BaIr,0.0,-0.0378649,
NiInHf,0.0,-0.037864600000000005,
SSe2Th,0.0,-0.037863999999999995,
ScRh2Ta,0.0,-0.0378639,
Rh3Dy,0.0,-0.0378637,
CBrGd2,0.0,-0.037862900000000005,
PSbHo2,0.0,-0.0378622,
Ga2CeOs,0.0,-0.037862,
ZnCdAu,0.0,-0.0378616,
CuCd2Pb,0.0,-0.0378614,
SrY2Tl,0.0,-0.0378606,
B2YOs2,0.0,-0.0378573,
Mg2HgTl,0.0,-0.037856900000000006,
ZnRu2Tm2,0.0,-0.0378561,
CdSm,0.0,-0.0378551,
RhPd2Ho,0.0,-0.037855,
B2PdPt2,0.0,-0.0378536,
CN3Hf4,0.0,-0.037852699999999996,
ZrPd2Tm,0.0,-0.0378514,
MgCe5,0.0,-0.037851300000000004,
RuSb2Ba,0.0,-0.0378508,
Na2BaAu2,0.0,-0.03785,
InSn2Pm,0.0,-0.0378497,
Cu2CdAc,0.0,-0.0378493,
CoAsLu2,0.0,-0.0378493,
CuRh2Ta,0.0,-0.0378474,
P2AgTh,0.0,-0.037846899999999996,
Cl2Ce2Pb,0.0,-0.0378467,
SiRuTa,0.0,-0.0378456,
Br3Hf2,0.0,-0.037845199999999996,
PYIr,0.0,-0.0378439,
CSiLu3,0.0,-0.037843299999999996,
GeCeDy,0.0,-0.0378432,
GaRhHo2,0.0,-0.037843,
Se2SmGd,0.0,-0.0378427,
CoSnGd,0.0,-0.0378424,
CaGe2Au2,0.0,-0.0378423,
NSnEr2,0.0,-0.037842100000000004,
CZnHf2,0.0,-0.037841700000000006,
CoZr2Re,0.0,-0.0378416,
FeDy2,0.0,-0.037841299999999994,
RhSb2Ba,0.0,-0.037841099999999996,
Se3SbDy4,0.0,-0.0378406,
CuPdEr2,0.0,-0.037840200000000004,
MnGa2Dy6,0.0,-0.037839399999999995,
Cd3Gd,0.0,-0.0378387,
Rb2IAu,2.8203,-0.037838500000000004,
BrY2Pt,0.0,-0.037838500000000004,
Ag5Pt,0.0,-0.0378382,
Si2Pd2Pa,0.0,-0.0378382,
AsI2Nd2,0.0,-0.037838000000000004,
PZr2Pb,0.0,-0.0378379,
Cl2Sm2Pb,0.0,-0.0378376,
NiGd,0.0,-0.0378374,
Ge3PdTh,0.0,-0.0378368,
YRh2Tm,0.0,-0.0378366,
AlAgLu2,0.0,-0.0378366,
Rh8Pt,0.0,-0.0378365,
AsPrTb,0.0,-0.037836,
GaCe3,0.0,-0.0378354,
NaAs2Ir2,0.0,-0.037835299999999995,
MoTe2Ba,0.0,-0.037833799999999994,
AsICe2,0.0,-0.0378335,
Sb2Cs,0.5087,-0.0378323,
AlTcW,0.0,-0.0378311,
Ge2AgIn3Lu3,0.0,-0.037830800000000005,
In4Eu,0.0,-0.0378307,
Rh2SbLa,0.0,-0.0378298,
LiAlAu2,0.0,-0.0378279,
Cd4InTl,0.0,-0.0378279,
OAu,0.1612,-0.037827599999999996,
Al2Tb3Hg,0.0,-0.0378271,
Li2Mg2Pb2Th,0.0,-0.0378268,
SeI2La2,0.0,-0.037826500000000006,
SHf,0.0,-0.0378262,
Ni2Pr2Hg,0.0,-0.037825899999999996,
RhSn5Ho,0.0,-0.037825899999999996,
CoGe2Tb6,0.0,-0.0378249,
MgAu,0.0,-0.0378243,
CSbEr2,0.0,-0.0378241,
SrLa3,0.0,-0.0378241,
Zn3SmAu2,0.0,-0.0378239,
AsRuLu,0.0,-0.0378237,
Pd2Sb2Ce,0.0,-0.037822,
MgMn2Pu,0.0,-0.037822,
Sn2Te4Ba,0.0,-0.0378219,
Ru2In5Nd4,0.0,-0.0378217,
Ge3NbTh,0.0,-0.0378214,
NRuTb3,0.0,-0.0378214,
AsSe3Tm4,0.0,-0.0378212,
PdSn2Pr,0.0,-0.037820900000000005,
PdCd2Lu,0.0,-0.0378207,
BTa,0.0,-0.0378202,
CSi2La2Ir2,0.0,-0.0378202,
RhIn2Dy,0.0,-0.037820099999999995,
YAg4Tl,0.0,-0.03782,
Si2NbTa2,0.0,-0.037819000000000005,
GeCd2Pt,0.0,-0.0378189,
SiTc2W,0.0,-0.0378187,
Se2InPb,0.0,-0.0378181,
CoDy2,0.0,-0.0378179,
Si2Tb2Tl,0.0,-0.0378168,
Sn2Ba,0.0,-0.0378161,
Pd2CdSm2,0.0,-0.0378152,
CuSb2Gd,0.0,-0.037814999999999994,
B2AgIr2,0.0,-0.0378144,
KAs2W2,0.0,-0.0378138,
GaDy2,0.0,-0.0378137,
AlPd2Lu2,0.0,-0.0378136,
Ge2PdSn3Tm3,0.0,-0.037811500000000005,
Ge2BaPt,0.0,-0.0378106,
KSe2Th,0.3498,-0.0378105,
Cs,0.0,-0.0378104,
NRhTb3,0.0,-0.0378097,
H2Tb3Pb,0.0,-0.0378095,
MgSnIr,0.0,-0.0378078,
SeI2Pr2,0.0,-0.0378078,
AlNi2Pu,0.0,-0.0378075,
LiSr2Au2,0.0,-0.037807299999999995,
Pd3Pr2,0.0,-0.0378037,
GaI3Pr3,0.0,-0.0378034,
In3Ho,0.0,-0.0378025,
Zn2Nd2Tl,0.0,-0.0378012,
ZnZrHg,0.0,-0.0378012,
Si2SrOs2,0.0,-0.0378001,
SeTm,0.0,-0.037799900000000004,
Sc2ZnIr2,0.0,-0.0377993,
AgNd,0.0,-0.0377987,
NiLa4,0.0,-0.037797899999999995,
Rh7Hf,0.0,-0.0377968,
CoGa2Pa,0.0,-0.0377962,
B2N3Fe2Th3,0.0,-0.0377958,
YI6Cs3,3.3167,-0.0377954,
CoY6Pb2,0.0,-0.0377954,
Li4Y3Bi4,0.0,-0.0377951,
Co2YHf2,0.0,-0.0377947,
Se2SbTl,0.0821,-0.03779419999999999,
Zr5Ir,0.0,-0.0377941,
PdInSm,0.0,-0.0377941,
Al3LuIr2,0.0,-0.0377937,
LiTeTl,0.0,-0.0377931,
GaI3La3,0.0,-0.037793,
NiSb4Tb2,0.0,-0.037793,
MgTcLu2,0.0,-0.037793,
Rh2Nd,0.0,-0.037793,
GeTe4Lu,0.0,-0.0377925,
CdSb2Ba2,0.4469,-0.037792400000000004,
Pd3Ho,0.0,-0.037792099999999995,
P2CoPu,0.0,-0.0377917,
Ca2CdHg2,0.0,-0.037790500000000005,
NaZn2Bi2,0.0,-0.037790500000000005,
Al3Sn2Lu3Ir,0.0,-0.0377901,
Cu2PmPb,0.0,-0.0377899,
Rh5Lu,0.0,-0.0377895,
SeY2Au,0.0,-0.037788600000000006,
RuIn2Dy,0.0,-0.0377864,
Ag2LaCe,0.0,-0.037786,
Ru2Pr,0.0,-0.0377853,
N6Cr2U3,0.0,-0.037785200000000005,
As2Ir,0.9159,-0.0377851,
Zr5Os,0.0,-0.0377851,
NInTb3,0.0,-0.0377848,
Pd2Sn2Dy,0.0,-0.037784599999999995,
Rb2I6Pt,0.2028,-0.0377841,
SeSbTm,0.0,-0.0377839,
RhBa2,0.0,-0.0377826,
PdCdDy,0.0,-0.0377825,
Na2AuTl,0.0,-0.0377821,
NZr2Pb,0.0,-0.0377817,
Zn3CeAu2,0.0,-0.0377815,
SnI3Cs,1.9256,-0.0377812,
Ca2SrTl2,0.0,-0.037781,
Ni2La2Hg,0.0,-0.03778,
NMoTa,0.0,-0.037777099999999994,
B2CdIr2,0.0,-0.0377768,
Zr5Tl,0.0,-0.0377762,
YRu2Tm,0.0,-0.0377761,
FeGa2Dy6,0.0,-0.037775300000000005,
RhSbBa,0.0,-0.0377748,
S3Ce2Th,0.0,-0.0377747,
KZrTe3Pt,0.0,-0.037773299999999996,
H3PtNp,0.0,-0.037773299999999996,
Cd2CeSm,0.0,-0.037772599999999996,
KCu2YBi2,0.0,-0.0377698,
LiSe2U,0.0,-0.0377696,
Ga6CsAu4,0.0,-0.037769,
PdSn2La,0.0,-0.037768300000000005,
TiTc2Hf,0.0,-0.037768,
CNHf2,0.0,-0.0377672,
LiMgPt2,0.0,-0.037767,
SiRu2W,0.0,-0.0377669,
NiIn3Tl,0.0,-0.0377666,
Al2RhDy6,0.0,-0.0377665,
As2Os,0.6671,-0.0377662,
Rb2I6Ir,0.0,-0.037766,
ZnSrPb,0.0,-0.037765599999999996,
Mg2PtHg,0.0,-0.0377653,
MgSbAu,0.0,-0.037765099999999996,
Y2Ag2Hg,0.0,-0.0377647,
CIEr2,0.0,-0.037764200000000005,
LiBa2Hg,0.0,-0.037763399999999996,
ZnRuEr2,0.0,-0.0377624,
NiPd2Tb3,0.0,-0.037762000000000004,
Pd2CdTm,0.0,-0.0377618,
Mn3Ho2Os,0.0,-0.037761499999999996,
Ga3Sn2Tb3Ir,0.0,-0.0377607,
Sr2InPt,0.0,-0.0377606,
CoGa2Dy6,0.0,-0.0377596,
ORhTb3,0.0,-0.037758,
B3C2Pu2,0.0,-0.0377577,
AlFe2Np,0.0,-0.0377568,
Pd3La2,0.0,-0.0377562,
AgCdEr,0.0,-0.037756,
Rb2I4Au,0.0,-0.037756,
Pd2In3Pr3,0.0,-0.0377553,
ZrRh2Ho,0.0,-0.037755000000000004,
Rh2SnSm,0.0,-0.037754600000000006,
GeNbGd,0.0,-0.037754199999999995,
InSn2Nd,0.0,-0.037754199999999995,
PRhTa,0.0,-0.0377541,
Rb2CdTe4Pb,0.0,-0.037753100000000005,
Rb2I6Re,0.488,-0.037752600000000004,
PYPt,0.0,-0.037752299999999996,
Rb2I6Os,0.0,-0.0377519,
Zn2ErPt,0.0,-0.037749000000000005,
NiAsLu2,0.0,-0.0377489,
NbRu2Tb,0.0,-0.0377489,
CuIGd,0.0,-0.037748800000000006,
CSHf2,0.0,-0.0377485,
Se2ZrPb,0.0,-0.0377478,
FeSm3,0.0,-0.0377478,
Rh2CdEr,0.0,-0.0377477,
NiZr2Tl,0.0,-0.037747300000000004,
K2ZnBi2,0.0,-0.037747,
AsTeLa2,0.0,-0.0377469,
Rh2InTb,0.0,-0.037746699999999994,
ZnYAu,0.0,-0.0377462,
Co2GeTh,0.0,-0.0377458,
Si2Rh3Pa,0.0,-0.0377452,
CdSb2La,0.0,-0.037745100000000004,
GePdDy2,0.0,-0.0377444,
NiY6Pb2,0.0,-0.037744,
SeTe2Tm,0.0,-0.037744,
SrSb2La2,0.0,-0.0377439,
CdInDy,0.0,-0.0377435,
Ag2InEu,0.0,-0.0377435,
KSe2AuHg,1.0606,-0.0377433,
MgPd2Bi,0.0,-0.0377417,
Pd3SnNd2,0.0,-0.037740499999999996,
CuTe3BaTm,0.3319,-0.0377401,
Co2NiPa,0.0,-0.03774,
NiSn6Tm2,0.0,-0.0377391,
LiKAu2,0.0,-0.037738799999999996,
ZnRhEr2,0.0,-0.0377386,
PCdTl,0.1196,-0.0377377,
Zn2ErIr,0.0,-0.0377372,
AsI2Pr2,0.0,-0.037737,
LiMgIr2,0.0,-0.0377366,
Al3Sn2Lu3Os,0.0,-0.0377358,
Tc2La,0.0,-0.037735500000000005,
Se4Rb2Pt3,0.9425,-0.037735500000000005,
CuInEr2,0.0,-0.0377346,
Mg2IrHg,0.0,-0.037733499999999996,
B2Rh3Np,0.0,-0.0377327,
CaGe6Ir4,0.0,-0.0377325,
KInPt,0.0,-0.0377323,
CaSn3Au,0.0,-0.0377322,
NiRuHo2,0.0,-0.037731499999999994,
OFBrPb2,2.092,-0.0377306,
AsI2La2,0.0,-0.0377301,
Be2OsAu,0.0,-0.0377288,
HSTh,0.0,-0.0377286,
GaIn2Hg,0.0,-0.0377274,
Rh2CdNd2,0.0,-0.0377266,
Mg2ErAc,0.0,-0.0377262,
Y3Ru2Au,0.0,-0.0377258,
CdCe,0.0,-0.0377256,
Co2Sn3Tm3,0.0,-0.037725,
PdInCe,0.0,-0.0377249,
Pd2SbSm,0.0,-0.0377248,
O5S2Hf2U2,0.0,-0.0377243,
NaSbPt,0.0,-0.037724099999999997,
NAlLu3,0.0,-0.037724099999999997,
YSb2La,0.0,-0.0377239,
Se2AgBi,0.1728,-0.0377239,
RuSn3Nd,0.0,-0.037723799999999995,
MnAg2Au,0.0,-0.0377233,
Si2Ga3Th2,0.0,-0.0377223,
ZrSnSm,0.0,-0.037722099999999995,
B4Ru5U2,0.0,-0.0377218,
RhTe3Ba,0.0,-0.0377209,
Ti3Au2,0.0,-0.0377204,
PdIn5Hf,0.0,-0.0377194,
SeSbLa2,0.0,-0.0377179,
ScIn2Hg,0.0,-0.0377177,
NiPd2Au,0.0,-0.0377174,
Ru2In5Pr4,0.0,-0.0377172,
AgSbBa2,0.2038,-0.0377172,
Ru2La,0.0,-0.0377171,
NOIn2Tb6,0.0,-0.0377165,
CuPd2Pt,0.0,-0.0377159,
RuSn3La,0.0,-0.0377154,
B2CLuIr2,0.0,-0.0377149,
Zr2Tm,0.0,-0.037714599999999994,
HPdBa2Pt,0.0,-0.037714399999999995,
KSn2Au,0.0,-0.037714,
SIHf,0.0,-0.0377134,
Rb2SbPt,0.0,-0.0377132,
CaInHg,0.0,-0.0377132,
MgSr2Hg2,0.0,-0.0377132,
AgInTb,0.0,-0.0377123,
BRhIr,0.0,-0.0377122,
TcI6Cs2,0.4377,-0.0377119,
O2La2Pb,0.0,-0.0377113,
S3SbLu4,0.0,-0.037710900000000006,
CaAs2Hg2,0.0,-0.037710099999999996,
GeSrAu,0.0,-0.0377096,
Ag5Au,0.0,-0.0377082,
Cl2Se2Hg3,1.7911,-0.037708,
Ga3Sn2Tb3Os,0.0,-0.0377079,
NiRhHo2,0.0,-0.0377078,
AsRhLu,0.0,-0.0377076,
O2BrPb2,0.0,-0.037707500000000005,
GeBr3Gd3,0.0,-0.0377072,
N2TiPu,0.0,-0.037706899999999995,
ZrI6Cs2,1.6426,-0.0377064,
Sc2ZnPt2,0.0,-0.0377059,
B2N3Co2Th3,0.0,-0.0377055,
MgKHg2,0.0,-0.0377054,
Mg2BaHg2,0.0,-0.0377054,
Ga3Rh2Np,0.0,-0.0377052,
Fe2In5Tm4,0.0,-0.0377052,
ScSbGd,0.0,-0.0377047,
Ag2CdTb2,0.0,-0.0377041,
YIn2Eu,0.0,-0.0377033,
AgSnNd,0.0,-0.0377029,
Pd2In3La3,0.0,-0.0377027,
OSr4Bi2,0.8164,-0.037702599999999996,
OPCdTh,0.8923,-0.0377025,
Ru2CdNd2,0.0,-0.0377025,
ScPd2Hg,0.0,-0.0377023,
In3Sn3Ce2,0.0,-0.0377021,
Ga3Er2Ir,0.0,-0.037701099999999994,
Al3Sn2Lu3Pt,0.0,-0.037700899999999996,
Be2MoOs2,0.0,-0.0377007,
CuGaGd2,0.0,-0.0377006,
In2Sm,0.0,-0.0377003,
RhSn3Nd,0.0,-0.0376993,
NiGa2Dy6,0.0,-0.0376989,
PIHo2,0.0,-0.0376985,
Co2PdTm3,0.0,-0.0376984,
Sc3RuIr2,0.0,-0.037698300000000004,
ZnRu2Tb3,0.0,-0.037697600000000005,
Al2RbPb2,0.0,-0.037697499999999995,
Pd2SbCe,0.0,-0.0376972,
YAg2Gd,0.0,-0.037696,
CoCuGd2,0.0,-0.037695599999999996,
SrI6Ba2,2.6338,-0.037695099999999995,
Mg3Rh2Tl3,0.0,-0.037694200000000004,
KAs2Au2,0.0,-0.0376941,
BRuPt,0.0,-0.037694000000000005,
RuSn3Pr,0.0,-0.037693199999999996,
Ga2NdIr,0.0,-0.0376929,
SiRhTa,0.0,-0.037692300000000005,
Fe2As2Pu,0.0,-0.037692,
Rh8Ta,0.0,-0.037691499999999996,
LiTl,0.0,-0.0376907,
Si3CuHf4,0.0,-0.037689799999999996,
CuPd2Tm2,0.0,-0.0376897,
Zr5Pt,0.0,-0.0376892,
NI2Ho2,0.0,-0.0376889,
Zn2Pr2Tl,0.0,-0.0376888,
RhCdTb,0.0,-0.037688400000000004,
Pd4Sn4Pr3,0.0,-0.0376878,
GaRh2Hf,0.0,-0.0376875,
Al3LuPt2,0.0,-0.037686700000000004,
AsTm,0.0,-0.037686500000000005,
PRu2W,0.0,-0.037686300000000006,
O2MnI2Pb2,0.3592,-0.0376861,
As2Cs4Hg,0.6538,-0.0376861,
SrI4Dy,0.0,-0.0376851,
OTeHf,0.752,-0.037684600000000006,
CSi2Nd2Re2,0.0,-0.037684199999999994,
AlZrIr,0.0,-0.037683999999999995,
MoI6Cs2,0.0,-0.037683999999999995,
RhSn3La,0.0,-0.037683799999999996,
BNbPt,0.0,-0.037683799999999996,
Sr2RhIr,0.0,-0.0376833,
Se2Cs2Hg,0.1711,-0.0376833,
SiMn2U,0.0,-0.0376832,
Ga3Au2,0.0,-0.0376824,
Cd2SnSm2,0.0,-0.037682299999999995,
CaTi2Ir2,0.0,-0.0376806,
AlMo2Os,0.0,-0.0376803,
Pd5Gd,0.0,-0.0376802,
ZnRh2Tb3,0.0,-0.03768,
Zn2CdLu3,0.0,-0.037679699999999997,
PTeHf,0.0,-0.037679000000000004,
Al2ZrAu2,0.0,-0.037678800000000005,
Se2Tl,0.0,-0.0376783,
Zn3NdAu2,0.0,-0.0376775,
O2AuHg,0.2937,-0.037677300000000004,
Rh2Pr,0.0,-0.0376758,
In7Hg,0.0,-0.0376755,
Ga2NdPt,0.0,-0.0376753,
Zn2TmAu,0.0,-0.0376738,
Pd2CdCe2,0.0,-0.037672899999999995,
B3Cu2Ir4,0.0,-0.037672699999999996,
Sn5Ce,0.0,-0.0376726,
Ga3Er2Os,0.0,-0.0376726,
Rh2PdDy,0.0,-0.0376725,
ZnRh2Au,0.0,-0.0376724,
LiBaAu,0.0,-0.037671300000000005,
Se3RbPt2,0.9891,-0.037670999999999996,
CoSm3,0.0,-0.0376709,
ZrRu2Dy,0.0,-0.037669600000000004,
Zn3Pu,0.0,-0.0376685,
RhSn5Dy,0.0,-0.037667400000000004,
In3Sn3Sm2,0.0,-0.0376672,
Mg2SbAu2,0.0,-0.037667099999999995,
CPHf2,0.0,-0.037667099999999995,
Sr2Ag2Bi,0.0,-0.037666899999999996,
Ag2LaNd,0.0,-0.0376667,
LiMgAuTl,0.0,-0.0376664,
AsTeTm,0.2396,-0.0376659,
P2FeHo6,0.0,-0.0376657,
Ge2PmTa,0.0,-0.037665,
RuInNd,0.0,-0.0376648,
LiBeIr2,0.0,-0.0376641,
Pd8Pb,0.0,-0.0376633,
Cu4HgTh,0.241,-0.0376625,
S2EuTl,0.0,-0.0376605,
NiRh2Er2,0.0,-0.0376603,
Si2GdAu,0.0,-0.037660200000000005,
AgPr,0.0,-0.037660200000000005,
Ti3CdOs2,0.0,-0.037659,
RhSn3Pr,0.0,-0.0376589,
Pd2Sb2Nd,0.0,-0.037657800000000005,
ClTe4Ta,0.21,-0.037657699999999995,
GeI2Sm2,0.0,-0.0376552,
NbI6Cs2,0.0,-0.0376534,
TiCoBi,0.9332,-0.0376515,
Rh2La,0.0,-0.0376513,
GeIEu,0.0,-0.0376506,
GaAgEr2,0.0,-0.037650199999999995,
Mg2InTl2,0.0,-0.0376498,
K2CdPt2,0.0,-0.0376493,
Pd2Sb2La,0.0,-0.037648400000000005,
Rh2AgLa2,0.0,-0.0376479,
Ni2RuTm3,0.0,-0.037646500000000006,
Sn2Sb2Ba,0.0,-0.0376462,
Rh6Sb4Lu,0.0,-0.037646099999999995,
Ag4Hf,0.0,-0.0376457,
Rh4SnTm,0.0,-0.0376454,
Se2CdIBi,1.2871,-0.0376453,
CZr2Pb,0.0,-0.0376453,
Br2Tl,1.194,-0.0376438,
LiCaHg2,0.0,-0.0376437,
ZrSnCe,0.0,-0.0376429,
Co2TmHf,0.0,-0.037642499999999995,
Fe3Ho2Ir,0.0,-0.0376423,
ZnPd2Pt,0.0,-0.037640099999999996,
SeAg2I2Hg,0.9927,-0.0376389,
Cd2NdSm,0.0,-0.0376387,
Pd3SnPr2,0.0,-0.0376383,
CGeTm3,0.0,-0.0376383,
Ru2SnPm,0.0,-0.0376377,
Co2In5Tm4,0.0,-0.037637000000000004,
Rh8Au,0.0,-0.0376356,
CuZr2Ir,0.0,-0.0376354,
In2Ce,0.0,-0.037634999999999995,
GeI4Eu,0.2563,-0.0376336,
LiBePt2,0.0,-0.0376335,
MnZr2Au,0.0,-0.0376328,
MgPd2Er3,0.0,-0.037632399999999996,
CdPm,0.0,-0.0376316,
Ag2SnEr,0.0,-0.0376302,
GePd2Hf,0.0,-0.0376301,
Zn3PrAu2,0.0,-0.0376295,
Al2PdDy6,0.0,-0.0376277,
C3NHf4,0.0,-0.0376271,
CaRh2Tl,0.0,-0.0376271,
Si2Sm2Pb,0.0,-0.037627,
CoSbTb2,0.0,-0.0376263,
Rb2Te2Hg,1.9747,-0.037625599999999995,
Pd2Sb2Pr,0.0,-0.0376252,
Co3Er2Os,0.0,-0.037624899999999996,
AgBa3,0.0,-0.037622300000000004,
Cd2SnCe2,0.0,-0.0376219,
Se3SnDy4,0.0,-0.037621699999999994,
Ni2CeTl,0.0,-0.037620600000000004,
Na2RbBi2,0.0,-0.0376202,
CaGa2Ir2,0.0,-0.037617899999999996,
Zn2La2Tl,0.0,-0.0376168,
Si2SrPt2,0.0,-0.0376168,
B2Ru3U,0.0,-0.037616500000000004,
PdSb2Ba,0.0,-0.0376162,
FeZr2Au,0.0,-0.037615699999999995,
BePTa2,0.0,-0.037615699999999995,
AgSnPr,0.0,-0.0376153,
Ag2Ho,0.0,-0.037614600000000005,
Ga2PrIr,0.0,-0.037614199999999993,
ZnAg2Ho3,0.0,-0.0376137,
OInTb3,0.0,-0.037613,
Si2LuIr,0.0,-0.0376127,
Rb2TeHg,1.9561,-0.037612,
SnTe2Cs,0.0,-0.0376103,
CoAgEr2,0.0,-0.03761,
LiAs2Tl2,0.0,-0.0376098,
NPdTb3,0.0,-0.0376096,
Be2PtAu,0.0,-0.037608800000000005,
CaRhHg,0.0,-0.0376083,
CuZr2Os,0.0,-0.0376066,
MgInLu2,0.0,-0.0376056,
PdIn2Dy,0.0,-0.037605400000000004,
BMoW,0.0,-0.037605400000000004,
Li2HgPb,0.0,-0.037604900000000004,
CoPdHo2,0.0,-0.037604,
CuY6Pb2,0.0,-0.0376038,
Se2Os,0.0,-0.0376026,
Si2In3Tb3Ir,0.0,-0.0376025,
Rh2SnPm,0.0,-0.0376015,
Zn3LaAu2,0.0,-0.037601300000000004,
Pd2SbPm,0.0,-0.037601300000000004,
In3Ba5,0.0,-0.037601100000000005,
GaPdHo2,0.0,-0.0376001,
AsSbNd2,0.0,-0.0375991,
Li2BaPt2,0.0,-0.0375991,
Li2CdPb2,0.0,-0.0375989,
NiDy2,0.0,-0.0375981,
Rb2SbAu,1.0592,-0.0375978,
RhIn5Gd,0.0,-0.0375976,
AlCdLu2,0.0,-0.0375976,
SiMoTa,0.0,-0.0375974,
Sr2PdPt,0.0,-0.0375973,
Ag2LaPr,0.0,-0.0375963,
RbTe2Ho,1.1356,-0.037596,
Pd2Sn2Tb,0.0,-0.0375958,
Pd3SnLa2,0.0,-0.037595300000000005,
Rh2CdPr2,0.0,-0.0375951,
AgCsBa3,0.0,-0.0375944,
NiSnGd,0.0,-0.037594,
Ga2PrPt,0.0,-0.0375931,
In2IBa2,0.0,-0.0375927,
LiP2LuPt2,0.0,-0.0375923,
Se2TeTl,0.0,-0.0375922,
NiZr2Re,0.0,-0.0375921,
Be2WRe,0.0,-0.037591700000000006,
Ge2Ba2Hg,0.0,-0.037591299999999994,
AgCdNd2,0.0,-0.0375908,
CaCdPt,0.0,-0.0375906,
CaGa2Pt2,0.0,-0.0375904,
RhInLa,0.0,-0.0375904,
Ag3Lu,0.0,-0.0375888,
CSi2Pr2Re2,0.0,-0.0375868,
MnRu2Ho2,0.0,-0.037586100000000004,
ZnRh2Ta,0.0,-0.0375855,
LiClHg2,0.3652,-0.037585099999999996,
Al2Th,0.0,-0.0375845,
SrIn5Ir,0.0,-0.0375843,
GeI2Ce2,0.0,-0.037583799999999994,
Cu2AgHf2,0.0,-0.0375823,
Sc3RuPt2,0.0,-0.037581699999999996,
YPd2Eu,0.0,-0.0375815,
Ga2LaIr,0.0,-0.037580800000000004,
LiRhPb,0.0,-0.037580300000000004,
RhIn5Nd3,0.0,-0.0375801,
Zn4Au3,0.0,-0.0375797,
Pd2InDy,0.0,-0.0375793,
Ni2GaPa,0.0,-0.0375793,
MgSnEu2,0.0,-0.0375792,
BGa2BaOs2,0.0,-0.0375782,
Rh3Tb,0.0,-0.037578,
Fe3Ho2Pt,0.0,-0.0375774,
Si2Ce2Pb,0.0,-0.0375772,
ZnTcEr2,0.0,-0.0375769,
CaIn2Tl,0.0,-0.037576700000000005,
CuSrTe3Tl,0.0093,-0.0375758,
Cu2In3Lu3,0.0,-0.0375753,
OAsSmOs,0.0,-0.037575000000000004,
AgSnLa,0.0,-0.0375741,
RhAg2Tm,0.0,-0.037573300000000004,
Ga2RuSm6,0.0,-0.0375732,
SeIEr,2.0276,-0.0375731,
RuI6Cs2,0.0,-0.037572,
InI6Cs2,0.0,-0.0375719,
CuPd2Tb3,0.0,-0.0375712,
GeSe3Tm4,0.0,-0.0375712,
Cd2PrSm,0.0,-0.037570599999999996,
PdI4Cs2,1.003,-0.0375697,
NaAs2Pt2,0.0,-0.0375696,
PY2Bi,0.0,-0.0375681,
Ru2CdPr2,0.0,-0.037568,
PI2Dy2,0.0,-0.0375669,
KZrTe3Au,0.0,-0.0375664,
BCRuTh,0.0,-0.037565600000000005,
RhIn2Tb,0.0,-0.037565100000000004,
CuYHg,0.0,-0.0375639,
CaPdHg,0.0,-0.0375628,
As2Pt,0.314,-0.0375622,
AgLa,0.0,-0.037561300000000006,
NaSr2Hg2,0.0,-0.0375606,
SrIn4Hg,0.0,-0.0375604,
AlTc2Re,0.0,-0.0375587,
MgRh2Lu2,0.0,-0.0375586,
SrIn5Pt,0.0,-0.0375585,
ZnAgTm2,0.0,-0.037558,
AlRu2Re,0.0,-0.037555500000000006,
AlZrPt,0.0,-0.0375543,
As2Tl,0.0,-0.0375542,
Se4SnBaAu2,0.3962,-0.037553199999999995,
Rh2Sn2Sm,0.0,-0.0375526,
MgGe2Ir2,0.0,-0.0375518,
PCo2U,0.0,-0.0375512,
Zr5Re,0.0,-0.0375512,
CdSnSm,0.0,-0.037551,
Ni2In5Tm4,0.0,-0.0375502,
CoRh2Hf,0.0,-0.0375491,
N2Sn3Sm7,0.0,-0.0375484,
Sc2GaAu2,0.0,-0.0375469,
Si2In3Tb3Pt,0.0,-0.0375454,
PdSbBa,0.0,-0.037544600000000004,
OAsSmIr,0.0,-0.0375439,
Ru4Sb12Ce,0.0099,-0.037543599999999996,
SSbHf,0.0,-0.0375434,
Si2LuOs,0.0,-0.0375425,
S2TmTl,1.2802,-0.037542400000000004,
CuSe3TlPb,0.0,-0.037542400000000004,
CuPd2Au,0.0,-0.037541899999999996,
Ga3Pa,0.0,-0.0375408,
Se2CsAu,0.8189,-0.0375406,
OPdTb3,0.0,-0.0375404,
CMoTa,0.0,-0.0375404,
PdTe2Cs2,1.0089,-0.0375399,
ScAg2Tl,0.0,-0.0375398,
RhPd2Dy,0.0,-0.0375397,
Ga2LaPt,0.0,-0.0375394,
Al2PdPa,0.0,-0.0375391,
Rh2CdLa2,0.0,-0.0375379,
Si4ScHf5,0.0,-0.0375377,
LiAs2Rh2Pu,0.0,-0.0375368,
SiYIr,0.0,-0.037536700000000006,
FeAs2Hf2,0.0,-0.037536499999999993,
Ga5IrNp,0.0,-0.037536299999999995,
AsCeSm,0.0,-0.0375355,
SeRbAu,1.6607,-0.037535200000000005,
Si2Ru3Th,0.0,-0.0375349,
NaTeAu,0.0094,-0.0375349,
RuInPr,0.0,-0.0375333,
GeLa3,0.0,-0.0375333,
BCRhTh,0.0,-0.0375332,
AgIn2Er,0.0,-0.0375329,
RhSn5Tb,0.0,-0.0375312,
RuIn2Tb,0.0,-0.0375298,
Cl2Nd2Pb,0.0165,-0.037529200000000006,
NaPt,0.0,-0.037529200000000006,
Mg3Au2Hg,0.0,-0.0375291,
Ga2RhSm6,0.0,-0.0375281,