formula,bg,formation_energy,mp-id
OCsAu,1.1886,-0.0387226,
FeRh2Au,0.0,-0.0387224,
MnRh2Ta,0.0,-0.038721200000000004,
RuSnNd,0.0,-0.0387211,
ScPd2Tl,0.0,-0.038720700000000004,
MgZr6Bi2,0.0,-0.0387201,
Ru2AgPr3,0.0,-0.0387198,
Ca2ZnBi2,0.0,-0.038718800000000005,
Rb2Sb2Pb,0.0,-0.0387187,
MgSiAu2,0.0,-0.0387187,
Ga2InHf2,0.0,-0.0387186,
Ni3LaAu2,0.0,-0.0387184,
HSPa,0.0,-0.0387166,
Be2LaAu2,0.0,-0.0387164,
BrLu,0.0,-0.0387155,
ScRu2W,0.0,-0.038714599999999995,
NiRh2Ir,0.0,-0.038714399999999996,
Ag4Hg,0.0,-0.0387141,
RbIn3Os,0.0,-0.0387132,
AlSb2Tl,0.0173,-0.0387124,
LiAlOs2,0.0,-0.038710999999999995,
PZr2Bi,0.0,-0.0387098,
Cl2Tb2Pb,0.0,-0.0387098,
Rh2InEr,0.0,-0.0387082,
SiTa,0.0,-0.0387081,
CuZnHf2,0.0,-0.0387041,
LiInGd2,0.0,-0.0387028,
CaSr2Hg2,0.0,-0.0387023,
Pd2SnNd2,0.0,-0.038701900000000004,
Mg2PtTl,0.0,-0.038701700000000006,
ZrIn5Ir,0.0,-0.038701599999999996,
Ga2SrHg2,0.0,-0.0387008,
PZrIr,0.0,-0.0387008,
Ag5Pb,0.0,-0.0387006,
Na2AuPb,0.0,-0.0387005,
KZn2Bi2,0.0,-0.0387004,
InBa5,0.0,-0.038700200000000004,
AlI6Cs2Tl,1.4112,-0.0386997,
MgSr2Ir2,0.0,-0.038698500000000004,
Si2Sb2Ho5,0.0,-0.0386982,
Al3Ho2Ir2,0.0,-0.0386967,
CoIn2Nd6,0.0,-0.0386965,
Si2Ag2Pu,0.0,-0.0386965,
Ni2Pr2Tl,0.0,-0.038695799999999995,
CuTcTm2,0.0,-0.0386954,
Li2SnPb2,0.0,-0.0386954,
Cu2SnHf2,0.0,-0.0386952,
AlTcLu2,0.0,-0.0386943,
BNRhPa,0.0,-0.038693,
Ga3Ir2,0.0,-0.038692300000000006,
AlTcOs,0.0,-0.0386913,
AsSrIr,0.0,-0.0386911,
Ga2RbAu2,0.0,-0.0386907,
Cd2SmDy,0.0,-0.0386897,
Al2TaRe,0.0,-0.0386894,
Ru8Pt,0.0,-0.038689100000000004,
SSb2W,0.0,-0.0386878,
Rh2SnDy,0.0,-0.0386878,
PdSnCe,0.0,-0.0386875,
PTe3Nd4,0.0,-0.0386861,
Zr4Au,0.0,-0.0386853,
Br2CsTl,3.2506,-0.0386838,
GePd2Tm2,0.0,-0.038683300000000004,
As2Pb,0.0,-0.0386819,
GeCeEr,0.0,-0.0386813,
Ge2Er3,0.0,-0.0386802,
Zr3Hf,0.0,-0.0386801,
YRu2Lu,0.0,-0.038679200000000004,
AgInPm2,0.0,-0.0386791,
HCs3Pb,0.0,-0.0386784,
B4Mn2Ir5,0.0,-0.0386772,
ClHg,2.253,-0.0386753,
Li2AuBi,0.0,-0.038673400000000004,
Mg2RhPu,0.0,-0.038673099999999995,
ScCdAu,0.0,-0.0386723,
Mg2IrTl,0.0,-0.0386722,
GaRuHf,0.0,-0.0386717,
KGa2Pb2,0.0,-0.0386706,
NiLa5,0.0,-0.0386703,
NiRu2Dy3,0.0,-0.038669600000000005,
RbIn3Ir,0.0,-0.038667900000000005,
CuAgEu2,0.0,-0.0386672,
LiBa3Pt,0.0,-0.0386669,
NaMgTl2,0.0,-0.0386663,
CaGe2Os2,0.0,-0.038666200000000005,
H3IrPu,0.0,-0.038665399999999996,
Pd2Dy,0.0,-0.0386633,
GeRu2Hf,0.0,-0.0386629,
ScIn2Tl,0.0,-0.038662,
Co2NiU,0.0,-0.038658700000000004,
PdSb2Nd,0.0,-0.0386586,
FeHo2,0.0,-0.0386585,
Al2Pa,0.0,-0.0386581,
AsNdHo,0.0,-0.0386578,
Sn3Ce,0.0,-0.0386578,
O2HgTl,0.0,-0.0386561,
Ga2DyOs,0.0,-0.0386559,
Zn2SnAc,0.0,-0.0386556,
BrIn3Pt,0.0,-0.0386552,
FeRu2Tm2,0.0,-0.038654,
Cd4Pt,0.0,-0.038653799999999995,
Pd2CdLu,0.0,-0.0386535,
SrCd2Au,0.0,-0.0386532,
OCs3Au,1.3733,-0.0386522,
Zn2CdHg2,0.0,-0.0386508,
B4YIr4,0.0,-0.0386503,
RuSn5Eu,0.0,-0.0386503,
LiCuHg2,0.0,-0.038650199999999996,
LiTe2Pb,0.0,-0.0386499,
NiRh2Dy3,0.0,-0.038649,
NiZr6Tl2,0.0,-0.0386489,
CSi2Tb2Re2,0.0,-0.038648,
Zn2SrPt2,0.0,-0.0386477,
CaTe4Er2,0.3836,-0.0386474,
Mg2BaIr2,0.0,-0.0386473,
ZnTc2Re,0.0,-0.0386456,
LiK2Pt3,0.0,-0.038645200000000005,
NiNb2Pt,0.0,-0.038645200000000005,
Zn2SrIr2,0.0,-0.0386451,
Ge2In3Sm3Au,0.0,-0.03864479999999999,
KTe2Au,0.6159,-0.0386447,
Ru2AgLa3,0.0,-0.0386443,
CuYPt,0.0,-0.0386438,
NaZnHg2,0.0,-0.0386437,
ScIn2Ir,0.0,-0.0386415,
Zn2Dy2Hg,0.0,-0.0386413,
N2Lu3,0.0,-0.038640999999999995,
ZrCd2Hf,0.0,-0.0386405,
MnNi2U,0.0,-0.038639,
BrIn3Ir,0.0,-0.0386389,
Se6RbTh2,0.0,-0.038638,
C3Ho2W2,0.0,-0.0386379,
CdSnDy,0.0,-0.0386376,
Ge2In3Nd3Ir,0.0,-0.038637300000000006,
KAgPb,0.0,-0.0386363,
BGa2SmOs2,0.0,-0.0386359,
BGa2CeOs2,0.0,-0.038635800000000005,
AsCeDy,0.0,-0.0386355,
AlSb2La6,0.0,-0.038635199999999995,
H3OsPu,0.0,-0.0386344,
SiI2Tm2,0.0,-0.0386344,
MnGa2Ho6,0.0,-0.038634,
CoHo2,0.0,-0.0386329,
PdCdEr,0.0,-0.0386329,
TiSnHf,0.0,-0.0386323,
PRuW,0.0,-0.0386318,
ZrIn5Pt,0.0,-0.0386316,
Ni2La2Tl,0.0,-0.0386305,
KSnPt,0.0,-0.0386297,
Fe3Tm2Ir,0.0,-0.0386291,
ScIn2Pt,0.0,-0.038627499999999995,
CuRh2Os,0.0,-0.038627499999999995,
Sn2IBa2,0.0,-0.0386271,
FCs2Au,2.8968,-0.0386268,
CSnDy3,0.0,-0.0386265,
MnY6Bi2,0.0,-0.0386263,
RhSnPr,0.0,-0.038625799999999995,
Rh2Sb2Tb,0.0,-0.038625799999999995,
BSnHo3,0.0,-0.038625599999999996,
Mg2CsTl2,0.0,-0.038624000000000006,
SiNbRe,0.0,-0.0386235,
RuSnPr,0.0,-0.0386197,
GaTc2Ta,0.0,-0.0386192,
Pd7Bi,0.0,-0.0386179,
Nb6Te8Pb,0.0,-0.0386171,
SeSrIr,0.0,-0.038616199999999996,
Ni2CdLu3,0.0,-0.0386161,
Ga2Ag2Th,0.0,-0.0386158,
B2N3Ni2Pa3,0.0,-0.0386158,
ZnIn2Lu2,0.0,-0.0386153,
In7Pb,0.0,-0.038614600000000006,
CaGe2Pt2,0.0,-0.0386141,
PCuHf2,0.0,-0.0386133,
CaSnHg,0.0,-0.0386116,
Mg2EuAc,0.0,-0.0386115,
Al3Ta2Ir,0.0,-0.0386112,
GaHo2,0.0,-0.0386108,
Cd3La5,0.0,-0.038610700000000005,
Ag2NdTb,0.0,-0.0386105,
ZnTb3,0.0,-0.0386089,
RbI3Eu,0.8141,-0.0386089,
Sn3Sm,0.0,-0.0386081,
Pd2InTm,0.0,-0.0386068,
RbAgTe3Hf,0.117,-0.0386066,
MgY3Au2,0.0,-0.0386064,
Rb7Au4,0.0,-0.038606,
SrAg2Hg,0.0,-0.038605400000000005,
As2BaIr,0.0,-0.038605200000000006,
Sr2Au,0.0,-0.0386044,
Pd4Gd,0.0,-0.0386042,
LiSe2Np,0.0,-0.038603200000000004,
RuAgNd2,0.0,-0.0386018,
ScMn2U,0.0,-0.0386017,
CuPdTm2,0.0,-0.0386011,
Y2Ag2Tl,0.0,-0.0386011,
RhAgNd2,0.0,-0.038600499999999996,
HInBaPb,0.1243,-0.0385999,
Zn2ZrTh,0.0,-0.038599400000000006,
NSnTm2,0.0,-0.0385992,
PdSn2Tb,0.0,-0.038598999999999994,
PdSb2Pr,0.0,-0.0385989,
AlZr6Pb2,0.0,-0.0385986,
GeSnGd,0.0,-0.0385982,
AgSn2La2,0.0,-0.0385981,
Pd2SbDy,0.0,-0.038597700000000006,
CoRhEr2,0.0,-0.0385974,
ScTb3,0.0,-0.038596899999999996,
Ag2CdHo2,0.0,-0.0385963,
P2FeEr6,0.0,-0.038596200000000004,
B4TaW3,0.0,-0.038595700000000004,
CoI5Pr4,0.0,-0.0385956,
Pd4Sn4Tb3,0.0,-0.038595199999999996,
RhSnLa,0.0,-0.0385948,
AgTe2Sm,0.8148,-0.0385946,
RhPd2Tm,0.0,-0.0385943,
CuAgAu,0.0,-0.0385941,
P2Rh2Pa,0.0,-0.0385939,
RuIn3Tb2,0.0,-0.038593800000000004,
RbTe2Eu,0.0,-0.0385934,
Ge2In3Nd3Pt,0.0,-0.0385928,
FeGe2Dy6,0.0,-0.0385928,
CdInCe2,0.0,-0.0385923,
Cd4Ir,0.0,-0.038592100000000004,
Ga3Pt2,0.0,-0.0385917,
CaRh2Pb,0.0,-0.038591099999999996,
ScFe2U,0.0,-0.0385908,
CoRuEr2,0.0,-0.0385899,
Fe3Au2,0.0,-0.0385893,
PdSb2La,0.0,-0.0385893,
PdIn2Tm,0.0,-0.0385889,
CrY6Bi2,0.0,-0.0385886,
CaInIr,0.0,-0.0385884,
SeRbTl,1.2282,-0.0385882,
SrIn3Hg,0.0,-0.0385881,
GaTcHf,0.0,-0.0385881,
Li2TlPb,0.0,-0.0385864,
AlMoOs,0.0,-0.0385856,
RhSn5Eu,0.0,-0.0385855,
FeIGd,0.0,-0.038585,
PTe3La4,0.0,-0.0385816,
CSbTm2,0.0,-0.0385812,
MgBaAu,0.0,-0.0385811,
Cd2Eu,0.0,-0.0385809,
Rh2CdPr3,0.0,-0.0385807,
FeGa2Ho6,0.0,-0.0385801,
NiIn2Ir,0.0,-0.038579999999999996,
PdInTb,0.0,-0.038579300000000004,
Zn2Sm3Hg,0.0,-0.038578299999999996,
Pd2SnPr2,0.0,-0.0385777,
RuSnLa,0.0,-0.0385772,
Cd2SnTb2,0.0,-0.0385765,
ZnRu2Re,0.0,-0.0385754,
TiNb2Re,0.0,-0.0385747,
Ag2Tm,0.0,-0.0385745,
MgPt,0.0,-0.0385741,
Ag2La3,0.0,-0.0385736,
KHg,0.0,-0.038573,
AgI6Cs2Ce,0.1001,-0.038572699999999994,
FCs3Pt,0.9206,-0.038572699999999994,
FeRh2Hg,0.0,-0.0385724,
AsPrHo,0.0,-0.0385717,
SeTe2Lu,0.0,-0.0385716,
Zn3HoAu2,0.0,-0.0385714,
GaRh2Tm2,0.0,-0.038571100000000004,
CaSb2Hg,0.0,-0.038571,
Al2RhHo6,0.0,-0.0385703,
MnGe2Th,0.0,-0.0385699,
Pd2SnHo,0.0,-0.038569400000000004,
N6Cr2Np3,0.0,-0.038569200000000005,
PTe3Pr4,0.0,-0.038568899999999996,
P2Pd2U,0.0,-0.0385687,
Zn2Nd2Pb,0.0,-0.0385685,
GaRu2Tm2,0.0,-0.0385682,
ScYIr,0.0,-0.0385682,
CI2Tm2,0.2571,-0.0385677,
Ru2CdPr3,0.0,-0.0385668,
TeCs,0.9993,-0.0385662,
GaRuEr2,0.0,-0.038565800000000004,
MnNb2W,0.0,-0.0385655,
ScGa2Ir2,0.0,-0.0385651,
N2Dy2Pt,0.0,-0.0385646,
CSiYRe2,0.0,-0.0385644,
NCuHf2,0.0,-0.0385639,
Ca2AgAu2,0.0,-0.0385636,
CoGa2Ho6,0.0,-0.038563,
CoRu2Ta,0.0,-0.0385625,
GaRhHf,0.0,-0.038562,
C3AlTa4,0.0,-0.0385616,
FeRh2Ta,0.0,-0.038561500000000005,
CdInEr,0.0,-0.0385613,
Fe3Tm2Pt,0.0,-0.0385608,
Ge2In3Nd3Os,0.0,-0.0385608,
Mg2Sb2Np,0.0,-0.0385606,
Co2LuHf,0.0,-0.0385603,
PI2Er2,0.0,-0.0385584,
FeY6Bi2,0.0,-0.0385571,
GeI2Tb2,0.0,-0.038557,
As2Ba2Hg,0.0289,-0.0385569,
GaY6Bi2,0.0,-0.0385567,
CuGe2Pa,0.0,-0.0385555,
PSb2Au,0.0,-0.0385551,
NaPAu2,0.7089,-0.0385548,
Ga2Pd3Th,0.0,-0.0385548,
Rh3SnCe2,0.0,-0.038553699999999996,
Ge4Rb3Pt4,0.0,-0.0385534,
SiZrIr,0.0,-0.0385527,
Li2LaPt2,0.0,-0.0385526,
Ru3Nd2,0.0,-0.038551699999999994,
FeIn2Pr6,0.0,-0.0385512,
Ga4Sr3Ir4,0.0,-0.0385508,
YSbDy,0.0,-0.038550600000000004,
Si2RuTh,0.0,-0.038550400000000005,
Rh3SnSm2,0.0,-0.038550100000000004,
SnBa,0.0,-0.0385492,
Rh3Er,0.0,-0.038547899999999996,
Pd2SnLa2,0.0,-0.0385453,
CdSn2Pr2,0.0,-0.0385445,
NiRh2W,0.0,-0.038544199999999994,
SrSn6Au,0.0,-0.0385434,
Zn2RuLu3,0.0,-0.038542,
Ge2In3Pr3Ir,0.0,-0.038541200000000005,
ZnRuTa,0.0,-0.038540700000000004,
Zn2LuAu,0.0,-0.038540399999999995,
Ga2TbIr,0.0,-0.0385396,
AsSmDy,0.0,-0.0385391,
GaRhEr2,0.0,-0.0385379,
Ca2YPt2,0.0,-0.0385377,
SiPd3Gd2,0.0,-0.038537100000000005,
As2BaPt,0.0,-0.0385367,
ClTeAu,0.8614,-0.0385359,
GeYTa,0.0,-0.0385357,
CoGa2U,0.0,-0.038535400000000004,
SIAu,0.6208,-0.0385351,
FeZrTa,0.0,-0.0385349,
FeGe2Th,0.0,-0.0385349,
NiRh2Pt,0.0,-0.0385341,
Mg2SrBi2,0.4788,-0.038534,
Ga2HoAu,0.0,-0.038533700000000004,
Al3Ta2Os,0.0,-0.0385336,
Ag2PrTb,0.0,-0.0385334,
Al3Ta2Pt,0.0,-0.0385334,
C2AlTa3,0.0,-0.0385333,
AsPdGd,0.0,-0.0385328,
Ag4CdPb,0.0,-0.0385328,
Ga4Sr3Pt4,0.0,-0.0385322,
Ni2HoPt,0.0,-0.0385321,
Br3SbEu3,0.0,-0.0385319,
Co2Sm2Hg,0.0,-0.0385318,
Se2NbBi,0.0,-0.0385316,
Mg2IrPt,0.0,-0.038531300000000004,
CrNb2W,0.0,-0.0385301,
PSbEr2,0.0,-0.0385289,
YPd4Hg,0.0,-0.0385285,
Se4TePu,0.0,-0.038526200000000003,
OTa,0.0,-0.038526200000000003,
ZnRuTm2,0.0,-0.038525199999999996,
Pd3Tm,0.0,-0.0385242,
HSb3Sm5,0.0,-0.038524,
Si2Tb2Pb,0.0,-0.0385224,
NaSr2Pt2,0.0,-0.038522,
Ga2TbPt,0.0,-0.038521599999999996,
K2SnAu2,0.0,-0.0385209,
Zr2Pd2Hf,0.0,-0.038520200000000004,
CuRh2Re,0.0,-0.0385193,
CoGe2Th,0.0,-0.038518300000000005,
Se2TePb,0.0,-0.0385181,
Si2YRe2,0.0,-0.038516800000000004,
CoIn2Pr6,0.0,-0.038516800000000004,
LiBa3Ir,0.0,-0.0385162,
S2Se2Te2W3,0.0909,-0.0385148,
MgAgBi,0.0,-0.038514400000000004,
MgIr,0.0,-0.038514,
ScYTl,0.0,-0.0385128,
MgCdGd2,0.0,-0.038512700000000004,
ZrRh2Tm,0.0,-0.0385109,
Rb2PdBi,0.0,-0.0385105,
HI2Lu2,0.0,-0.0385105,
BCRuPa,0.0,-0.0385099,
AgSn2Ho,0.0,-0.0385097,
Cd3Hf,0.0,-0.0385093,
Rh2CdLa3,0.0,-0.0385088,
CdInPm2,0.0,-0.038508600000000004,
NaTl,0.0,-0.038508400000000005,
Pd2InSm2,0.0,-0.038508099999999996,
CrPd2Au,0.0,-0.038508,
Co3Pt2,0.0,-0.038508,
CuGeGd2,0.0,-0.0385078,
Ni2DyTl,0.0,-0.038506399999999996,
In6Sb2Ir,0.0,-0.0385062,
RuIn3Sn2Sm3,0.0,-0.038503,
CITm2,0.0,-0.0385026,
ScPd2Pt,0.0,-0.0385021,
Ge2In3Pr3Pt,0.0,-0.038501,
NiGa2Ho6,0.0,-0.0384994,
ZnRhTm2,0.0,-0.038499200000000004,
RhIn3Sn2Sm3,0.0,-0.0384983,
Cu3SmAu2,0.0,-0.038498199999999996,
Sn6LaCe,0.0,-0.038497500000000004,
Rh7Os,0.0,-0.038497300000000005,
FCs3Au,0.0,-0.0384972,
BGa2NdOs2,0.0,-0.0384951,
Zn2GaPu,0.0,-0.0384951,
ZnPd2Ho3,0.0,-0.038494799999999996,
Ga3Sn2Ho3Ir,0.0,-0.0384928,
SiZrOs,0.0,-0.038491500000000005,
O2Nd2Bi,0.0,-0.0384909,
Ge2In3La3Ir,0.0,-0.0384908,
Co2Ce2Hg,0.0,-0.0384905,
CdSn2La2,0.0,-0.0384903,
Sr2AgPb,0.0,-0.0384888,
AsBrEu2,0.0,-0.0384883,
ZnZrAu,0.0,-0.038488100000000004,
CuLa5,0.0,-0.038488100000000004,
SI2Er2,0.0,-0.038488100000000004,
Ge2NdAu,0.0,-0.0384874,
Sc2GaIr2,0.0,-0.038487299999999995,
ZrSnTb,0.0,-0.0384862,
In2SnLa2,0.0,-0.0384861,
Al3ZnTh2,0.0,-0.0384853,
H3PtPu,0.0,-0.0384851,
Si2Rh2Pa,0.0,-0.0384844,
NiSeBi,0.0,-0.0384843,
Ru2CdLa3,0.0,-0.0384827,
CuInTm2,0.0,-0.038482100000000005,
CuRu2Dy3,0.0,-0.038480600000000004,
CuIn2Tl,0.0,-0.0384797,
In3Tm,0.0,-0.0384789,
CaIn2Pb,0.0,-0.0384789,
Si2Er2Hg,0.0,-0.0384789,
LiI2Pb,0.0,-0.0384789,
GeRu3Tm2,0.0,-0.0384781,
CoY6Bi2,0.0,-0.038477899999999995,
Sn3Pm,0.0,-0.0384776,
ZnRh2Tl,0.0,-0.0384773,
Co2AgHf2,0.0,-0.0384771,
AgI6Cs2Nd,2.5416,-0.038477,
Se3Hf2,0.0,-0.0384769,
Cl2Ce2Bi,0.0,-0.038476500000000004,
ScGa2Pt2,0.0,-0.0384758,
NRuDy3,0.0,-0.0384752,
SiTe4Cs2Hg,0.8218,-0.0384749,
Ag2LaTb,0.0,-0.0384741,
YIn5Ir,0.0,-0.0384735,
MgRhPb,0.0,-0.038473,
MgTe2Tl,0.0,-0.038472900000000004,
LiBaTl,0.0,-0.038472099999999995,
ScRh2Au,0.0,-0.0384708,
RhAg2Lu,0.0,-0.0384706,
CaPdPt,0.0,-0.0384701,
AgBa2La,0.0,-0.0384695,
Si5Lu2Ir3,0.0,-0.038467799999999996,
AgInNd2,0.0,-0.0384672,
C2I5Tm4,0.0,-0.0384657,
Ge2In3Pr3Os,0.0,-0.0384655,
Al2MnTm6,0.0,-0.038465200000000005,
Br2SnLu2,0.0,-0.038465200000000005,
B2TaPt,0.0,-0.0384649,
BeIr,0.0,-0.038464,
K2CdTl2,0.0,-0.0384634,
Al2FeTm6,0.0,-0.0384624,
O2BrPbBi,1.6955,-0.0384618,
Rh7Re,0.0,-0.0384612,
NRhDy3,0.0,-0.0384609,
Mg2LaHg2,0.0,-0.038460799999999996,
LiAs2SmAu2,0.0,-0.0384607,
HBaIr,0.0,-0.0384604,
KAs2Pt2,0.0,-0.0384604,
Ru2SnTb,0.0,-0.0384602,
LiAs2CeAu2,0.0,-0.038459600000000004,
Zn2Pr2Pb,0.0,-0.038459600000000004,
Fe3Pa,0.0,-0.0384595,
Ag2SnEu,0.0,-0.038459099999999996,
AlFe2Pu,0.0,-0.0384581,
CuRh2Ir,0.0,-0.0384579,
Sr2SbHg,0.0,-0.0384574,
PdSnNd,0.0,-0.0384563,
Ge2In3La3Pt,0.0,-0.0384561,
S7PbBi4,0.5571,-0.0384557,
Ga5Sm2Au3,0.0,-0.0384554,
MgSbTl,0.0,-0.0384546,
Si2GdOs,0.0,-0.0384544,
CuRh2Dy3,0.0,-0.0384539,
Si2RhTh,0.0,-0.0384537,
Se3InEr4,0.0,-0.0384529,
ZnCdPt,0.0,-0.0384521,
AgI6Cs2Pr,2.5313,-0.0384518,
CuZr6Tl2,0.0,-0.0384508,
Zn2Ce3Hg,0.0,-0.0384495,
Br3Ba3Bi,0.7044,-0.0384491,
Mn2ZnU,0.0,-0.038448300000000005,
BGa2PrOs2,0.0,-0.038448,
Zn5Au4,0.0,-0.0384476,
Rh7Ir,0.0,-0.038447499999999996,
SiTe3Nd4,0.0,-0.038447499999999996,
KSe2Pa,0.0,-0.038447499999999996,
LiS6U3,0.0,-0.0384464,
RhIn2Er,0.0,-0.0384463,
Mn5Os3,0.0,-0.0384462,
SiNi2Pu,0.0,-0.038445799999999995,
Ge2LaAu,0.0,-0.038443899999999996,
Ag4InTl,0.0,-0.038443399999999996,
InSb2La,0.0,-0.0384433,
In3Sn3Dy2,0.0,-0.0384432,
Cu2PmBi,0.0,-0.038443,
NiRuEr2,0.0,-0.0384427,
AgInHo,0.0,-0.0384427,
GaIGd,0.0,-0.038441899999999994,
Ga3Sn2Ho3Os,0.0,-0.0384418,
BRu6Hf2,0.0,-0.0384411,
RhBa4,0.0,-0.038439999999999995,
Sr2Pd2Bi,0.0,-0.0384399,
RhCdHo,0.0,-0.0384388,
CSi2Dy2W2,0.0,-0.038438400000000005,
Ca2CdAu2,0.0,-0.0384376,
RhAgPr2,0.0,-0.0384375,
BGa2LaOs2,0.0,-0.0384372,
Zn2EuPt,0.0,-0.038436500000000005,
NiY6Bi2,0.0,-0.038434199999999995,
Cd4BaHg,0.0,-0.038434199999999995,
Ge2PrAu,0.0,-0.0384341,
NaI2Tl,3.0129,-0.0384335,
Ca2InHg2,0.0,-0.0384329,
Ni4HgTh,0.0,-0.0384324,
RuAgPr2,0.0,-0.0384324,
Cd2SmTb,0.0,-0.0384318,
AsSe2Hf2,0.0,-0.0384315,
O5S2Hf2Np2,0.0,-0.0384312,
Al2CoTm6,0.0,-0.038430900000000004,
NiZn2Pu,0.0,-0.0384295,
Pd5Hf,0.0,-0.0384283,
MgAlAu2,0.0,-0.0384279,
MgBa2Hg,0.0,-0.0384279,
Ge2Ba2Tl,0.0,-0.0384279,
In2Tb,0.0,-0.0384276,
Sr2BaHg,0.0,-0.038427100000000006,
KCdPb,0.0,-0.0384269,
Ga5Pr2Au3,0.0,-0.0384268,
AlTcRe,0.0,-0.038426699999999994,
Nb6Te8Tl,0.0,-0.038426,
Al2AgPt2,0.0,-0.038426,
MgKAu2,0.0,-0.0384259,
ZnYTl,0.0,-0.038425100000000004,
CuPd2Tl,0.0,-0.038424599999999996,
CI5Sm4,0.0,-0.0384245,
K2I6Th,2.8903,-0.0384236,
Cd2InDy2,0.0,-0.0384235,
PZrPt,0.0,-0.0384233,
Rh2InNd2,0.0,-0.038423099999999995,
ScAg2Pb,0.0,-0.0384221,
ScHf,0.0,-0.0384219,
GeRh3Tm2,0.0,-0.0384216,
Ru2InNd2,0.0,-0.038421,
Ge2In3La3Os,0.0,-0.0384206,
Se2SnPb,0.2772,-0.0384206,
AlSiTh,0.0,-0.0384199,
Cl2Sm2Bi,0.0,-0.038419400000000006,
BCRhPa,0.0,-0.038419299999999997,
NInDy3,0.0,-0.0384189,
FeSe2Tb6,0.0,-0.0384182,
FePd2Dy3,0.0,-0.038417700000000006,
ZnRu2W,0.0,-0.038417299999999995,
B4Sc2Ir5,0.0,-0.0384172,
Ga3Ru2Pu,0.0,-0.038417099999999996,
Na2AgPb2,0.0,-0.038417,
KSb4Tl,0.0,-0.0384167,
RuIn2Er,0.0,-0.0384166,
YIn5Pt,0.0,-0.0384163,
MgOs,0.0,-0.0384155,
BeOs,0.0,-0.0384153,
BeMgPt2,0.0,-0.0384151,
Na2HgPb,0.0,-0.0384146,
NiRhEr2,0.0,-0.038413499999999996,
Br2SbEu2,0.0,-0.0384131,
KSbHg,0.0,-0.0384128,
CoIn2La6,0.0,-0.0384128,
Be2IrPt,0.0,-0.0384125,
S2LuTl,1.1696,-0.038411299999999995,
NiRu2Ta,0.0,-0.038409799999999994,
Si2Sc2Pt3,0.0,-0.038409599999999995,
Ga3Sn2Ho3Pt,0.0,-0.0384093,
Mn5Ir3,0.0,-0.0384092,
Ag3Gd,0.0,-0.0384091,
ScYOs,0.0,-0.0384088,
K2SbHg2,0.0,-0.0384088,
Sn3Nd,0.0,-0.0384086,
NiHo2,0.0,-0.0384082,
Ag2InTb2,0.0,-0.0384078,
Rh2SnTb,0.0,-0.0384062,
O2La2Bi,0.0,-0.038406100000000006,
Zr5Pb,0.0,-0.038406100000000006,
YHo,0.0,-0.038405999999999996,
SiPdPt,0.0,-0.038404,
Si2Dy2Ir,0.0,-0.03840229999999999,
Pd5SbHf,0.0,-0.0384012,
ZnRh2Os,0.0,-0.0383998,
Rh2In3Sm3,0.0,-0.0383996,
OClAc,4.1754,-0.0383994,
OAsDyIr,0.0,-0.038399,
NiSb4Ho2,0.0,-0.038398800000000004,
GaAgTm2,0.0,-0.0383984,
LiCaAu2,0.0,-0.038398299999999996,
P2PdTh,0.0,-0.0383974,
Cd4InPb,0.0,-0.0383973,
LiBa2Pt,0.0,-0.0383973,
CoIGd,0.0,-0.038397,
RhAgLa2,0.0,-0.038397,
MgSbPt,0.0,-0.038396700000000006,
AlInLu2,0.0,-0.038396700000000006,
TcTeBa3,0.0,-0.0383957,
Zn3SmPt2,0.0,-0.0383951,
Ru2In3Ce3,0.0,-0.038395000000000006,
K2ZnBaBi2,0.0,-0.0383949,
CaI3Hg,0.0,-0.038394399999999995,
RuAgLa2,0.0,-0.0383941,
Rh2Sn2Ho,0.0,-0.038394,
PdSn5Eu,0.0,-0.0383937,
BeMgIr2,0.0,-0.0383937,
ZnRhTa,0.0,-0.0383937,
SbTe3Cs3,1.0592,-0.038392499999999996,
NbSnSm,0.0,-0.0383917,
Ga2TbOs,0.0,-0.0383915,
Rh2In3Ce3,0.0,-0.038391,
YIn5Os,0.0,-0.0383909,
Cu2ZnPu,0.0,-0.038390099999999996,
YAg4Pb,0.0,-0.038389,
Se2BaAu,0.0,-0.0383889,
K2SrCdBi2,0.0235,-0.0383885,
CTm2,0.0,-0.0383882,
MgPd2Tm3,0.0,-0.0383882,
Ru3Pr2,0.0,-0.0383876,
AlClTh,0.0,-0.038387500000000005,
Si2Pd2U,0.0,-0.0383866,
RuSn2Sm,0.0,-0.038385800000000005,
LiLaHg,0.0,-0.038384999999999996,
PdAgNd2,0.0,-0.038384999999999996,
NbRu2Ho,0.0,-0.0383845,
FePd2Au,0.0,-0.0383839,
Zn2EuIr,0.0,-0.038383299999999995,
AgTe2Nd,0.81,-0.038381900000000004,
CNHfTa,0.0,-0.0383816,
NITa,0.0,-0.0383813,
S3AsTl3,0.63,-0.038381,
Cd2Sb2Eu,0.0,-0.0383803,
LiAlRe2,0.0,-0.0383802,
K2CsHg2,0.0,-0.0383801,
CoSe2Tb6,0.0,-0.03837960000000001,
GaIn2Te4Tl,0.0,-0.0383791,
O2GdTl,1.2647,-0.0383788,
Zn3DyAu2,0.0,-0.038376600000000004,
BrInGd,0.0,-0.0383765,
Se2InBi,0.0,-0.0383762,
Sb3Ba,0.0,-0.0383761,
ZnEr2,0.0,-0.0383754,
ZrSbSm,0.0,-0.0383746,
ScRbBi,0.0,-0.0383743,
Si2GdPt,0.0,-0.0383743,
CSi2GdW2,0.0,-0.0383738,
Al2NiTm6,0.0,-0.038373399999999995,
C2GaHf3,0.0,-0.038372,
MnRu2Tb3,0.0,-0.0383718,
MnZr2Ir,0.0,-0.0383716,
Rh7W,0.0,-0.0383712,
MgLa7,0.0,-0.0383709,
Ge2In3Nd3Au,0.0,-0.0383704,
Zn2La2Pb,0.0,-0.0383697,
GaRh2Ta,0.0,-0.0383695,
MgSr2Au2,0.0,-0.0383694,
Cu2Nd2Tl,0.0,-0.0383694,
ZnHf,0.0,-0.038369,
N2Zr7Tl3,0.0,-0.0383683,
PdIn3Sn2Sm3,0.0,-0.038368099999999995,
Sr2Sb2Hg,0.1217,-0.0383676,
LiBa3Au,0.0,-0.038366700000000004,
GaTe2Gd,0.0,-0.0383666,
FeZr2Ir,0.0,-0.0383659,
Cu4Au3,0.0,-0.0383654,
Zr4Hg,0.0,-0.038363999999999995,
ScRu2Ta,0.0,-0.0383639,
ZrRu2Er,0.0,-0.038362600000000004,
Te3Cs2,0.6712,-0.0383622,
Ge2RuLaIr,0.0,-0.0383615,
MnPd2Hg,0.0,-0.0383615,
GeRuGd,0.0,-0.0383608,
S2MoTe4W2,0.0196,-0.03836,
ZnAgEu2,0.0,-0.0383595,
PdSnPr,0.0,-0.0383589,
N2YPa,0.0,-0.038357999999999996,
Zn3CeIr2,0.0,-0.0383566,
Br2BaHg,3.0567,-0.038356,
Zn3CePt2,0.0,-0.0383558,
CaPd2Pb,0.0,-0.0383557,
O2Pr2Bi,0.0,-0.0383553,
FeAs2Tb6,0.0,-0.0383551,
Se2CsTl,1.0252,-0.038355,
RuCdNd2,0.0,-0.038354799999999994,
P2Ru2Th,0.0,-0.0383547,
MgI3Tl,1.3688,-0.038354599999999996,
Mg2BaAu2,0.0,-0.0383544,
K2InPt2,0.0,-0.038352,
Rh2PdEr,0.0,-0.0383507,
BGa2NdIr2,0.0,-0.0383507,
Ge2RuIn3Lu3,0.0,-0.038350499999999996,
RhSn2Sm,0.0,-0.038350499999999996,
GePdHo2,0.0,-0.0383501,
Rh2InHo,0.0,-0.0383492,
Sr2CdPb,0.0,-0.0383485,
PIEr2,0.0,-0.0383481,
Sn3Pr,0.0,-0.0383475,
Cd2CeTb,0.0,-0.038346899999999996,
CuCdAu,0.0,-0.0383464,
B4Co2Re5,0.0,-0.0383464,
AgSb2Ce,0.0,-0.0383463,
Al3Dy2Ir2,0.0,-0.0383461,
BrPdGd,0.3418,-0.038345199999999996,
Cu3NdAu2,0.0,-0.0383451,
Sn3La,0.0,-0.0383437,
Al2Dy3Hg,0.0,-0.0383434,
AgTe2La,1.0061,-0.038343,
Sc2GaPt2,0.0,-0.0383429,
NiGe2Th,0.0,-0.0383415,
Cd5Bi,0.0,-0.0383414,
AsSrAu,0.0,-0.0383409,
PSe3Lu4,0.0,-0.038340200000000005,
NOIn2Dy6,0.0,-0.038340200000000005,
B2InIr2,0.0,-0.03833979999999999,
SITa,0.0,-0.0383393,
ZnTcTm2,0.0,-0.0383384,
Rh7Pt,0.0,-0.0383382,
ZnRh2Re,0.0,-0.0383378,
Ti2ZnIr2,0.0,-0.038337699999999995,
NiPd2Dy3,0.0,-0.0383373,
ZnYPt,0.0,-0.0383366,
HBr2Np,0.0,-0.0383365,
Sr2Sn2Tl,0.0,-0.038335799999999996,
SeY2Tl,0.0,-0.038335799999999996,
Rh8Pb,0.0,-0.0383348,
TiTcHf,0.0,-0.038334400000000005,
Pd2SbTb,0.0,-0.0383337,
Li2HgBi,0.0,-0.038333599999999995,
Ge2RhIn3Lu3,0.0,-0.0383333,
ZnTc2W,0.0,-0.0383324,
V3Au2,0.0,-0.0383322,
CoRh2Ta,0.0,-0.038332,
LiAs2NdAu2,0.0,-0.038331000000000004,