formula,bg,formation_energy,mp-id
La2Ir2Hg,0.0,-0.059966700000000005,
TbHf5,0.0,-0.0599666,
CrHf6Tl2,0.0,-0.059964500000000004,
TbPt,0.0,-0.0599624,
RhTaAu2,0.0,-0.0599617,
AgHg2Tl,0.0,-0.0599611,
C2OsU2,0.0,-0.059959000000000005,
HoErBi,0.0,-0.059959000000000005,
SnHg3,0.0,-0.059958700000000004,
ErHg,0.0,-0.059958700000000004,
BEr2Pt6,0.0,-0.0599559,
RhTa2Re,0.0,-0.0599538,
YPt2Hg,0.0,-0.0599502,
C2IrU2,0.0,-0.059949199999999994,
CdPtAu2,0.0,-0.059943199999999995,
NbTa2Os,0.0,-0.059941499999999995,
NbHfRe2,0.0,-0.0599408,
GaTlPb2,0.0,-0.059937399999999995,
ScTaW4,0.0,-0.0599368,
AgPt2Hg,0.0,-0.0599329,
Lu3Pt,0.0,-0.0599327,
BHo2Ir6,0.0,-0.0599327,
Cu2PbTh2,0.0,-0.0599255,
KAu2Ac,0.0,-0.0599249,
CSnTh2,0.0,-0.0599199,
SrRhTl5,0.0,-0.0599187,
Lu3Os,0.0,-0.0599176,
ZrPtPb,0.8482,-0.0599123,
ZrHfIr2,0.0,-0.0599107,
YHf2Pt2,0.0,-0.0599,
ZnInTh2,0.0,-0.0599,
NdLuBi,0.0,-0.0598992,
ZnLa2Bi4,0.0,-0.0598988,
LiAu2Th,0.0,-0.0598898,
Dy3Ir2Hg,0.0,-0.059888399999999994,
YLaPt4,0.0,-0.0598883,
ZnPr2Bi4,0.0,-0.0598881,
CdPt2Hg,0.0,-0.0598864,
KAu2Pb2,0.0,-0.0598862,
Lu3Tl,0.0,-0.0598852,
TbIr,0.0,-0.059883200000000004,
InTa4,0.0,-0.059882599999999994,
EuTbHg2,0.0,-0.0598825,
Sm2TlPb,0.0,-0.059881300000000005,
CuIr4,0.0,-0.0598793,
RuSbNp,0.0,-0.0598777,
Tb2IrPt,0.0,-0.0598777,
NdHoTl2,0.0,-0.059875300000000006,
AgSbPu,0.0,-0.0598735,
PdTbBi2,0.0,-0.0598722,
LiTl2Ac,0.0,-0.0598687,
NbTa2Ir,0.0,-0.0598685,
NiHf6Tl2,0.0,-0.0598664,
SrPtTl2,0.0,-0.0598621,
CaIrBi2,0.0,-0.059858600000000005,
Ba2Pt2Pb,0.0,-0.05985819999999999,
CaHg2Ac,0.0,-0.0598538,
PdPtHg2,0.0,-0.059852499999999996,
AgHoBi2,0.0,-0.059851100000000004,
Te2U,0.0,-0.0598508,
GaRh2Np2,0.0,-0.0598506,
Dy3Pt2Hg,0.0,-0.0598506,
CaPtBi2,0.0,-0.0598472,
ErTmPb,0.0,-0.0598466,
TeAuTl,0.0,-0.059842599999999996,
NbTaW2,0.0,-0.0598403,
In3Pb5,0.0,-0.0598389,
SrAu2Hg2,0.0,-0.0598387,
SrHg2Bi,0.0,-0.0598385,
TcTa2W,0.0,-0.0598352,
Co2Ir3Pu,0.0,-0.059835,
Ce2TlPb,0.0,-0.0598327,
In2Pt3Bi,0.0,-0.0598277,
GeHfTh,0.0,-0.0598256,
PSe3Pa4,0.0,-0.0598234,
PrLuBi,0.0,-0.059822600000000004,
SnGdPt2,0.0,-0.059812800000000006,
PrHoTl2,0.0,-0.0598093,
SmHoIr2,0.0,-0.0598063,
SbTeU,0.0,-0.0598027,
CeHoIr2,0.0,-0.0598018,
PrEuAu2,0.0,-0.0597992,
SbNdTh,0.0,-0.0597976,
MgPt5,0.0,-0.059796999999999996,
ZrAu2Hg,0.0,-0.059790300000000005,
RhTeNp,0.0,-0.059785200000000004,
ScTlPb2,0.0,-0.0597843,
Mn2ThNp,0.0,-0.0597831,
RuTa2W,0.0,-0.0597817,
CdHg2Tl,0.0,-0.0597806,
AgAu3,0.0,-0.059776499999999996,
LaHoTl2,0.0,-0.059774900000000006,
InAuHg2,0.0,-0.0597677,
Ni2TlTh2,0.0,-0.0597635,
SrIrTl2,0.0,-0.0597606,
LiAu2Bi2,0.0,-0.059759900000000005,
Rh2AuPa,0.0,-0.059757599999999994,
CSeU2,0.0,-0.059757,
Eu3Pb,0.0,-0.0597526,
KAu4Tl,0.0,-0.0597516,
MgHg2Th,0.0,-0.0597454,
AlHf6Pb2,0.0,-0.0597382,
CaAu5,0.0,-0.059736,
LiIr5,0.0,-0.0597352,
GePa,0.0,-0.0597349,
La2Au3,0.0,-0.0597305,
AlRu2Pu2,0.0,-0.0597262,
Ho2AuHg,0.0,-0.0597235,
Tm6AuPb2,0.0,-0.059723,
SbPrTh,0.0,-0.059718600000000004,
SmTmAu2,0.0,-0.0597185,
SmLuHg2,0.0,-0.059714500000000004,
BaAuHg,0.0,-0.059714500000000004,
Er6IrBi2,0.0,-0.0597144,
CaPb3,0.0,-0.0597096,
TcOs2,0.0,-0.0597064,
YAu3,0.0,-0.0597053,
CeDyTl2,0.0,-0.059703000000000006,
TbTmBi,0.0,-0.0596985,
SmEuBi,0.0,-0.0596967,
DyTmHg2,0.0,-0.059695500000000006,
Dy3Os2Hg,0.0,-0.0596917,
PmDyTl2,0.0,-0.0596884,
CoPt4,0.0,-0.0596884,
CSn2Re2Th2,0.0,-0.0596865,
SrAu2Pb,0.0,-0.0596802,
Dy3Pb2,0.0,-0.0596791,
KTl4,0.0,-0.0596785,
SnTa2Au,0.0,-0.0596765,
SbLaTh,0.0,-0.0596748,
RbBi2,0.0,-0.0596715,
SbAuTl,0.0,-0.0596676,
Er6PtBi2,0.0,-0.0596662,
Nd2Au2Hg,0.0,-0.0596654,
Er6OsBi2,0.0,-0.059665300000000004,
PmHoIr2,0.0,-0.0596615,
TiHfW4,0.0,-0.0596541,
ZnIr4,0.0,-0.059653199999999997,
AlSiPu2,0.0,-0.0596527,
CuHf6Tl2,0.0,-0.059652000000000004,
NbTa2Re,0.0,-0.0596509,
Dy2HgTl,0.0,-0.0596502,
Ga2Pt3Pu,0.0,-0.0596491,
BHo2Pt6,0.0,-0.0596432,
CdAu3,0.0,-0.0596427,
BDy2Ir6,0.0,-0.059641,
Cs2Au3Tl,0.0,-0.0596374,
As2RhPu2,0.0,-0.0596337,
LiRe5,0.0,-0.0596308,
La2Hg2Tl,0.0,-0.0596283,
KPt4Hg,0.0,-0.059626,
NaHg2Bi2,0.0,-0.0596259,
HoErHg2,0.0,-0.059622,
RbTl3,0.0,-0.059622,
DyAu,0.0,-0.0596206,
Tb3Ir2Au,0.0,-0.0596182,
InAuPb,0.0,-0.059608600000000005,
Tb3Pt2Au,0.0,-0.0596013,
CeTmAu2,0.0,-0.0595995,
MoTa2W,0.0,-0.0595969,
ClPtTl3,0.0,-0.0595949,
GeSnAc2,0.0,-0.0595933,
KHg4Pb,0.0,-0.059590899999999995,
RuTa2Au,0.0,-0.059589300000000005,
Pd2SnTh2,0.0,-0.0595804,
AgDyBi2,0.0,-0.0595744,
MoOs2,0.0,-0.059574100000000005,
CeHf5,0.0,-0.0595702,
ZnTa3Re2,0.0,-0.059564900000000004,
Ni2Ir3Pu,0.0,-0.0595645,
SeTh,0.0,-0.059562,
AsSe3Th4,0.0,-0.0595614,
DyErBi,0.0,-0.0595594,
SrAuTl2,0.0,-0.059554699999999995,
YHg2Tl,0.0,-0.0595542,
CaAu4Hg,0.0,-0.0595522,
Tb2AuTl,0.0,-0.059551299999999995,
SNp,0.0,-0.0595504,
Rh2TlTh,0.0,-0.0595504,
Pr2Au2Hg,0.0,-0.0595504,
RuOs2,0.0,-0.059547800000000005,
InSbAu5,0.0,-0.059546999999999996,
SmTbTl2,0.0,-0.0595468,
SmHf5,0.0,-0.0595432,
In3Pt7,0.0,-0.059537,
LiPt4Tl,0.0,-0.0595344,
PS3Np4,0.0,-0.0595337,
SbPt2,0.0,-0.0595315,
Ba2Hg2Bi,0.0,-0.0595305,
BePt5,0.0,-0.059530299999999994,
ZnHgTh,0.0,-0.0595283,
Ru2InTh2,0.0,-0.059527500000000004,
Tb5Bi3,0.0,-0.059526800000000005,
CdAuBi,0.0,-0.0595263,
InTeAu5,0.0,-0.0595261,
AsBr3Pu3,0.0,-0.059524099999999996,
Pd3SnPu2,0.0,-0.0595238,
NaPt2Ac,0.0,-0.059523000000000006,
SeTl3,0.0,-0.0595227,
CdTbAu4,0.0,-0.0595188,
CaAuBi2,0.0,-0.0595188,
Ho2Bi,0.0,-0.059517,
BPt3Bi,0.0,-0.0595142,
La2Au2Hg,0.0,-0.0595136,
TePt2,0.0,-0.0595108,
RhCeBi2,0.0,-0.0595073,
AgHfPt2,0.0,-0.0595068,
RhSmBi2,0.0,-0.059505,
InBaPt4,0.0,-0.0595045,
Sb2U,0.0,-0.0595034,
CdHoBi2,0.0,-0.059500700000000004,
N2BiTh2,0.0,-0.0594993,
SiReTh,0.0,-0.0594916,
AsTh,0.0,-0.059491,
SmDyIr2,0.0,-0.059491,
CeDyIr2,0.0,-0.0594871,
Rh2InTh2,0.0,-0.0594858,
LaDyTl2,0.0,-0.0594857,
MoTa2Au,0.0,-0.0594838,
Er5Au2Bi,0.0,-0.0594817,
Er6ReBi2,0.0,-0.0594799,
RhTl2,0.0,-0.059478,
Rh2BiAc,0.0,-0.0594779,
Nd2TlPb,0.0,-0.059476799999999996,
CdTlPb,0.0,-0.059476799999999996,
RhTa2W,0.0,-0.059475,
Sb2Tl2Bi,0.0,-0.0594747,
NdTmAu2,0.0,-0.059470999999999996,
As2PdPu2,0.0,-0.0594689,
AgAu2Hg,0.0,-0.0594655,
InHg3,0.0,-0.0594622,
Tb2IrAu,0.0,-0.059459200000000004,
MgPbBi2,0.0,-0.059456800000000004,
ZnHf6Tl2,0.0,-0.0594543,
Tb2PtAu,0.0,-0.0594543,
CeTbTl2,0.0,-0.059451500000000004,
NaHg2Th,0.0,-0.0594501,
Pd2CdPa2,0.0,-0.0594501,
Ba2Au2Pb,0.0,-0.0594495,
RbPtHg3,0.0,-0.059446599999999995,
MoIr2,0.0,-0.0594435,
NdEuBi,0.0,-0.0594423,
TbTmHg2,0.0,-0.059435499999999995,
NiPt4,0.0,-0.0594344,
EuTbPb,0.0,-0.059431199999999997,
ZnRu2Np2,0.0,-0.0594311,
La3Hg5,0.0,-0.05943,
SbTa3,0.0,-0.0594292,
PdSbNp,0.0,-0.0594276,
AsI2Pa2,0.0,-0.0594268,
KHg2Pb2,0.0,-0.0594267,
InLaAu4,0.0,-0.0594253,
Tb3Os2Au,0.0,-0.0594176,
BaPmPb2,0.0,-0.0594107,
HoTmPb,0.0,-0.0594099,
RhTa2Au,0.0,-0.059409500000000004,
CdHf2Au2,0.0,-0.0594063,
PNp,0.0,-0.059399900000000005,
Pm2PtPb,0.0,-0.059398400000000004,
GaHg2Tl2,0.0,-0.0593977,
Cs2Tl2Pb,0.0,-0.0593914,
RuNdBi2,0.0,-0.059386600000000005,
AlAuPa,0.0,-0.059386,
BTb2Ir6,0.0,-0.0593812,
CrW4,0.0,-0.05938,
ScHg5,0.0,-0.0593777,
AlIrTh,0.0,-0.0593751,
TcIr2,0.0,-0.059375,
NaPt5,0.0,-0.0593704,
PrEuBi,0.0,-0.059369399999999996,
BDy2Pt6,0.0,-0.0593641,
AsIn2Pt8,0.0,-0.059360500000000004,
LaLuHg2,0.0,-0.0593604,
Pr2TlPb,0.0,-0.0593563,
NaPbBi2,0.0,-0.0593532,
Pd2BiAc,0.0,-0.0593456,
Rh2PtTh,0.0,-0.059344900000000006,
SmErAu2,0.0,-0.059342799999999994,
BaLaPb2,0.0,-0.0593422,
Tb3Ir2Hg,0.0,-0.059341500000000005,
Mn2HgTh2,0.0,-0.0593413,
Fe2HgTh2,0.0,-0.0593408,
AlW5,0.0,-0.0593404,
PdCeBi2,0.0,-0.0593394,
NdTbTl2,0.0,-0.059337400000000005,
AgTbBi2,0.0,-0.0593363,
InTl2,0.0,-0.0593346,
PdSmBi2,0.0,-0.059331800000000004,
ZrTa4,0.0,-0.0593312,
YAu2Hg,0.0,-0.0593294,
SiAu5,0.0,-0.0593279,
La2TlPb,0.0,-0.0593275,
LaTmAu2,0.0,-0.0593268,
SbGdAu2,0.0,-0.0593249,
RuPrBi2,0.0,-0.059321599999999995,
SmEuHg2,0.0,-0.059317,
RuLaBi2,0.0,-0.0593159,
N2UPu,0.0,-0.0593142,
Tb3Pt2Hg,0.0,-0.0593135,
Sm2AuPb,0.0,-0.0593098,
YPtHg2,0.0,-0.0593098,
RhNdBi2,0.0,-0.0593018,
GeSe3Th4,0.0,-0.059301099999999995,
Zn2PbTh2,0.0,-0.0592996,
KAu5,0.0,-0.059299199999999996,
CdAu2Hg,0.0,-0.0592986,
Sb3Pb4,0.0,-0.0592958,
AgSnPu,0.0,-0.0592948,
Ho3Ac,0.0,-0.0592937,
Sn2HgBi2,0.0,-0.0592906,
ZrTa2Os,0.0,-0.059289,
SbHgTl,0.0,-0.059288400000000005,
RuSnNp,0.0,-0.059286900000000003,
SiAuTh,0.0,-0.0592866,
Ni2Pt3Pu,0.0,-0.0592864,
YLuPb2,0.0,-0.059283499999999996,
HoHg,0.0,-0.0592834,
RbAu2Hg2,0.0,-0.059280299999999994,
Tc2HfU,0.0,-0.059280099999999995,
AsTl3,0.0,-0.0592794,
BaHg2,0.0,-0.0592746,
MgPbTh,0.0,-0.0592727,
PrTbTl2,0.0,-0.0592719,
ZrHfRe2,0.0,-0.0592712,
GeGd2Ir3,0.0,-0.0592711,
PdTl2,0.0,-0.0592696,
CuPt4,0.0,-0.059265500000000006,
CdHfPt2,0.0,-0.0592611,
In2Pb2Bi,0.0,-0.0592598,
Pd2Pb2Bi,0.0,-0.0592595,
MnAu4,0.0,-0.0592588,
MgAu2Ac,0.0,-0.0592556,
ZnTlPb2,0.0,-0.0592542,
RuOsIr,0.0,-0.0592517,
Er2Pb,0.0,-0.059249,
CeErAu2,0.0,-0.0592435,
Ga2Ir3Np,0.0,-0.059241999999999996,
CdSn2Th2,0.0,-0.0592419,
RhPrBi2,0.0,-0.0592391,
CaBaPb4,0.2018,-0.0592384,
CuU,0.0,-0.0592374,
LaTbTl2,0.0,-0.059235300000000005,
Tm2Ir,0.0,-0.0592348,
RhLaBi2,0.0,-0.059234699999999994,
ZnAgTh2,0.0,-0.0592346,
RhSnNp,0.0,-0.0592341,
AlPtTh,0.0,-0.059229500000000004,
CdDyBi2,0.0,-0.059225099999999996,
LiPt5,0.0,-0.0592229,
TbErBi,0.0,-0.0592222,
KHg2Ac,0.0,-0.0592194,
SiHf2Ir3,0.0,-0.0592156,
KPtTl3,0.0,-0.0592152,
SmTbIr2,0.0,-0.0592134,
Ce2AuPb,0.0,-0.059213,
CeTbIr2,0.0,-0.05921,
PmEuHg2,0.0,-0.059208199999999996,
AgTaAu2,0.0,-0.0592036,
ZnRh2Np2,0.0,-0.0591997,
Er6WBi2,0.0,-0.0591992,
CaHgBi2,0.0,-0.059198999999999995,
MnRu2U2,0.0,-0.0591983,
SrHgTl2,0.0,-0.0591919,
ScAuPb2,0.0,-0.0591884,
Tm2Pt,0.0,-0.0591841,
NNp,0.0,-0.0591768,
InErPb2,0.0,-0.059176,
CInTh2,0.0,-0.059172600000000006,
SnPt2,0.0,-0.059165999999999996,
BePt3Bi,0.0,-0.059159500000000004,
AlOsTh,0.0,-0.0591586,
RhOs2,0.0,-0.059155299999999994,
Cu2TlTh2,0.0,-0.0591544,
YHfIr2,0.0,-0.0591524,
Tb3Os2Hg,0.0,-0.059142600000000004,
CdSbAu5,0.0,-0.0591425,
Tb2HgTl,0.0,-0.0591414,
RbPtTl2,0.0,-0.0591402,
Co2HgTh2,0.0,-0.0591398,
AlAu5,0.0,-0.0591396,
RbHg2Bi,0.0,-0.0591381,
PdNdBi2,0.0,-0.0591371,
TcOsPt,0.0,-0.0591329,
InHfAu2,0.0,-0.0591318,
DyHoBi,0.0,-0.059128599999999996,
KPb3,0.0,-0.0591285,
CdCeAu4,0.0,-0.0591267,
CrAu4,0.0,-0.0591261,
PCoU2,0.0,-0.0591239,
InGdPt2,0.0,-0.059123199999999994,
SrIr3,0.0,-0.0591229,
Ba2Pt2Tl,0.0,-0.0591225,
Dy2AuHg,0.0,-0.05912,
BTb2Pt6,0.0,-0.0591182,
Ho5Pt2Bi,0.0,-0.059116999999999996,
SrHg2Pb,0.0,-0.0591164,
RbAuHg3,0.0,-0.059116100000000005,
Pd2TlTh,0.0,-0.059111699999999996,
NdEuHg2,0.0,-0.0591093,
La2PtPb,0.0,-0.0591089,
SnLuIr2,0.0,-0.0590995,
NdErAu2,0.0,-0.0590963,
TbAu,0.0,-0.0590937,
TcRe2,0.0,-0.0590927,
Pm2AuPb,0.0,-0.0590906,
AlHg2Ac,0.0,-0.0590887,
AgLaAu4,0.0,-0.0590886,
AlPd2Pu2,0.0,-0.0590871,
KAu4Hg,0.0,-0.0590848,
ZnPt4,0.0,-0.0590793,
LiHg2Th,0.0,-0.0590792,
PdPrBi2,0.0,-0.0590792,
MoIrPt,0.0,-0.059079,
Te2Pt2Bi,0.0,-0.0590777,
InHgPb,0.0,-0.0590758,
Tb3Pb2,0.0,-0.059075499999999996,
PdLaBi2,0.0,-0.0590723,
GeGd2Pt3,0.0,-0.0590718,
CdPtPb,0.0,-0.059071599999999995,
SnLuPt2,0.0,-0.059071599999999995,
PmTbIr2,0.0,-0.0590711,
RuIr2,0.0,-0.059069899999999995,
La2IrPb,0.0,-0.0590684,
MgPtPa,0.0,-0.0590672,
SnGdAu2,0.0,-0.0590653,
Ga2HgTh2,0.0,-0.0590638,
TbErHg2,0.0,-0.0590636,
CsGdBi,0.0,-0.059058799999999995,
KHg4Tl,0.0,-0.0590507,
NbTa2W,0.0,-0.0590464,
PrEuHg2,0.0,-0.059046100000000004,
AlPu,0.0,-0.059045600000000004,
FePa,0.0,-0.059043,
Ga2Pt3Np,0.0,-0.059040300000000004,
FeHf3Os2,0.0,-0.0590358,
CdTaAu2,0.0,-0.0590356,
Eu2Hg,0.0,-0.0590317,
DyTmPb,0.0,-0.059026800000000004,
TcTa3,0.0,-0.0590237,
YPtPb,0.0,-0.0590235,
MnHf3Os2,0.0,-0.059023000000000006,
TcIrPt,0.0,-0.05902279999999999,
Tm2Tl,0.0,-0.0590213,
NaAu2Pb2,0.0,-0.0590182,
LaEuHg2,0.0,-0.0590167,
Rh2Pb3,0.0,-0.059015700000000004,
NaAu2Ac,0.0,-0.0590142,
CeTmBi,0.0,-0.0590133,
Rb3Pt4Pb4,0.0,-0.0590128,
Pd2InTh2,0.0,-0.0590118,
SmTmBi,0.0,-0.0590107,
CdNdAu4,0.0,-0.059009900000000004,
MnPa,0.0,-0.059009700000000005,
SnTa3,0.0,-0.059008899999999996,
AgBaPt4,0.0,-0.059007,
In2PtTh,0.0,-0.059003799999999995,
SbTaOs,0.5094,-0.0590035,
SmHoAu2,0.0,-0.0590017,
Mn2ThU,0.0,-0.058998300000000004,
ZnHg5,0.0,-0.0589977,
AsPtTl2,0.0,-0.058997100000000004,
GeRhAc2,0.0,-0.0589967,
Tm2Os,0.0,-0.0589907,
CdTbBi2,0.0,-0.0589888,
SmTl,0.0,-0.0589883,
YIrPb,0.0,-0.0589875,
DyHoHg2,0.0,-0.0589861,
Pd2Pu,0.0,-0.0589857,
GeI2Pa2,0.0,-0.058984,
RuTa3,0.0,-0.0589822,
KBaPb4,0.0,-0.0589817,
ZrHg3,0.0,-0.0589775,
PdGdPt2,0.0,-0.058975299999999994,
Rh2PbAc,0.0,-0.058975,
ZrTa2Re,0.0,-0.058974,
YEuPb2,0.0,-0.058973399999999995,
Ba2Ir2Tl,0.0,-0.0589722,
Rh3Pt2Pu,0.0,-0.058967399999999996,
SrBaTl4,0.0,-0.0589673,
Pd2IrTh,0.0,-0.0589661,
Tm3Hg2,0.0,-0.058966000000000005,
GaRu2U2,0.0,-0.058965899999999995,
S3AsU4,0.0,-0.058965000000000004,
RuHf2Os,0.0,-0.0589642,
CdBaPt4,0.0,-0.0589623,
CdSnPu,0.0,-0.05896,
Sb2Tl2Pb,0.0,-0.0589591,
Co2Hf4Tl5,0.0,-0.058956600000000005,
FeAu4,0.0,-0.058956499999999995,
VAu4,0.0,-0.0589559,
Pd2PtTh,0.0,-0.0589553,
CdLaAu4,0.0,-0.0589544,
LaErAu2,0.0,-0.0589536,
Ni2HgTh2,0.0,-0.05895280000000001,
NAgTh2,0.0,-0.058952199999999996,
RuOsPt,0.0,-0.0589508,
CoHf3Os2,0.0,-0.0589506,
InPtTl,0.0,-0.0589475,
Cu2Pt3Pu,0.0,-0.0589418,
YAuHg2,0.0,-0.0589412,
PdInPu,0.0,-0.0589409,
SrPt3,0.0,-0.0589294,
TcHf2Ir,0.0,-0.0589292,
RhOsIr,0.0,-0.0589291,
TiAu4,0.0,-0.0589279,
GePdAc2,0.0,-0.058924,
Sm2HgPb,0.0,-0.0589204,
Lu5Pb,0.0,-0.058919,
PdSnNp,0.0,-0.058918,
GeRuAc2,0.0,-0.0589106,
AgHg3,0.0,-0.0589105,
SrLaIr4,0.0,-0.0589077,
GaSnAc2,0.0,-0.0589065,
Tm3Bi,0.0,-0.058905700000000005,
KPt2Tl2,0.0,-0.0588987,
CeTl,0.0,-0.0588986,
GaHgPb2,0.0,-0.05889779999999999,
RbAuTl2,0.0,-0.058897599999999994,
MgTl4,0.0,-0.058894300000000004,
Sn2TmPu,0.0,-0.0588926,
GeInAc2,0.0,-0.058892400000000004,
Ba2Hg2Pb,0.0,-0.058890700000000004,
SrHf2Ir2,0.0,-0.0588904,
Nd2AuPb,0.0,-0.0588843,
CeHoAu2,0.0,-0.0588836,
PmSmTl2,0.0,-0.0588801,
MoPt2,0.0,-0.0588669,
BCe2Ir6,0.0,-0.0588667,
PI2U2,0.0,-0.0588666,
TcHf2Os,0.0,-0.0588649,
ClNp,0.0,-0.0588622,
HNPu2,0.0,-0.058859699999999994,
InHoPb2,0.0,-0.0588585,
Lu3Hg,0.0,-0.0588515,
ScAu4,0.0,-0.0588514,
Ce2HgPb,0.0,-0.058844,
SmTmHg2,0.0,-0.0588436,
AgCeBi2,0.0,-0.0588405,
RhReIr,0.0,-0.058837099999999996,
AlHf6Tl2,0.0,-0.0588363,
AlIr4,0.0,-0.058836,
RuHf2Ir,0.0,-0.0588356,
ZnHg2Tl2,0.0,-0.0588336,
RhLu6Bi2,0.0,-0.0588294,
Ba2Pt3,0.0,-0.0588284,
SrLaPt4,0.0,-0.0588252,
RuSbU,0.0,-0.058821899999999996,
Rh2AuTh,0.0,-0.0588212,
Gd,0.0,-0.0588151,
AgSmBi2,0.0,-0.0588135,
Ho6IrBi2,0.0,-0.0588121,
RuRePt,0.0,-0.0588115,
RhDyPb2,0.0,-0.058811300000000004,
SrAu2Tl,0.0,-0.058809600000000004,
CaTlPb2,0.0,-0.058808599999999996,
RhTa3,0.0,-0.0587965,
Pd3Th2,0.0,-0.0587929,
MgAu5,0.0,-0.058790999999999996,
TbHoBi,0.0,-0.0587906,
Te2Pa,0.0,-0.0587897,
Rh2CdTh2,0.0,-0.058787599999999995,
NiRu2U2,0.0,-0.058786700000000004,
La2Hg3,0.0,-0.0587848,
Pd2Pb3,0.0,-0.0587827,
In2Pb3,0.0,-0.058780900000000004,
NdSmTl2,0.0,-0.0587802,
MoTa3,0.0,-0.0587798,
CeIr,0.0,-0.058776600000000005,
PmTl,0.0,-0.0587731,
ZrGdIr2,0.0,-0.0587706,
ScHgPb2,0.0,-0.0587701,
Ho6PtBi2,0.0,-0.0587679,
AgAuPb,0.0,-0.0587678,
Dy2Bi,0.0,-0.0587663,
LiAu4Tl,0.0,-0.0587646,
Cs2Tl3,0.0044,-0.0587643,
Ho6OsBi2,0.0,-0.0587605,
Tb3Au2Hg,0.0,-0.0587568,
NdHoAu2,0.0,-0.0587565,
RuIrPt,0.0,-0.058756,
Ru2CdTh2,0.0,-0.0587534,
SnLu2Pt2,0.0,-0.0587532,
Pr2AuPb,0.0,-0.0587515,
NdTmBi,0.0,-0.0587483,
BSm2Ir6,0.0,-0.0587455,
BrAuHg3,0.0,-0.058744700000000004,
CaHg5,0.0,-0.0587424,
CeNdTl2,0.0,-0.0587375,
NiHf3Os2,0.0,-0.058732799999999995,
SmPt,0.0,-0.0587298,
Ag2PbTh,0.0,-0.0587277,
Ba2Ir3,0.0,-0.0587267,
TbHoHg2,0.0,-0.0587263,
Rh2Sn3Th3,0.0,-0.058726,
TcPt2,0.0,-0.0587255,
RbPbBi,0.1728,-0.0587202,
SbTePa,0.0,-0.058720100000000004,
AsHg2Bi,0.0,-0.0587188,
STa6,0.0,-0.058718400000000004,
PrSmTl2,0.0,-0.0587161,
CdHg3,0.0,-0.0587161,
Ge2Ir2Pu,0.0,-0.0587138,
GePd2U2,0.0,-0.0587131,
Ba2Au2Tl,0.0,-0.0587119,
Pm2HgPb,0.0,-0.0587084,
Cd3Pb5,0.0,-0.0587075,
CoPa,0.0,-0.058702399999999995,
SmDyAu2,0.0,-0.0586998,
RhHf2Os,0.0,-0.0586984,
CoGdBi2,0.0,-0.0586982,
TbTmPb,0.0,-0.058695300000000006,
Eu3Tl,0.0,-0.058692799999999996,
RhIr2,0.0,-0.05869,
SrHf2Pt2,0.0,-0.0586886,
La2AuPb,0.0,-0.0586881,
DyHg,0.0,-0.0586871,
RhSbU,0.0,-0.058681399999999995,
LaSmTl2,0.0,-0.0586777,
Sb2Hf6Ir,0.0,-0.058674,
NdPmTl2,0.0,-0.058673499999999996,
CePrTl2,0.0,-0.0586729,
Ni2Pt3Np,0.0,-0.0586702,
NaPb2Bi,0.0,-0.0586667,
LiAu2Pb2,0.0,-0.058665100000000005,
PrTmBi,0.0,-0.0586639,
S3GeU4,0.0,-0.0586637,
GaRh2U2,0.0,-0.058663400000000004,
Ge2Ir3Th,0.0,-0.0586619,
NbPt2,0.0,-0.0586613,
CePt,0.0,-0.0586517,
Pd2PbAc,0.0,-0.058651600000000005,
SiNp,0.0,-0.0586456,
Ge2Os2Pu,0.0,-0.0586452,
CI5Th4,0.0,-0.0586421,
Te2Hf6Ir,0.0,-0.0586365,
ZrOs2,0.0,-0.058634700000000005,
Ho5Au2Bi,0.0,-0.0586343,
AgNdBi2,0.0,-0.0586301,
AsAuTl2,0.0,-0.058628599999999996,
GeTmU,0.0,-0.0586284,
CdAuPb,0.0,-0.0586246,
RhHf2Ir,0.0,-0.0586232,
Sb2Hf6Os,0.0,-0.058620399999999996,
AgTl2,0.0,-0.0586201,
AsAu2Pb,0.0,-0.0586171,
LaHoAu2,0.0,-0.058615600000000004,
TeAu2,0.0,-0.058615499999999994,
SbAu2,0.0,-0.0586133,
PrPmTl2,0.0,-0.05861,
TcHf2Pt,0.0,-0.0586091,
Rh2HgBi2,0.0,-0.0586089,
RhOsPt,0.0,-0.0586039,
MgHg2Pb2,0.0,-0.0586038,
YHg3,0.0,-0.0586027,
MoHf2Ir,0.0,-0.058602600000000005,
Sb2Hf6Pt,0.0,-0.0586015,
Se2Pt3Bi2,0.0,-0.058600900000000004,
ZrIr2,0.0,-0.0585998,
Sm2IrPt,0.0,-0.0585989,
ZnAuPb2,0.0,-0.0585967,
ClAu2Tl2,0.0,-0.0585964,
Te2Hf6Os,0.0,-0.058594700000000007,
Tb2AuHg,0.0,-0.0585942,
ZrTl2,0.0,-0.0585921,
SmIr,0.0,-0.0585905,
YAuPb,0.0,-0.0585889,
AgLaBi2,0.0,-0.058586599999999996,
N2PaPu,0.0,-0.058583500000000004,
MnTa5,0.0,-0.0585834,
SnTaIr,0.9429,-0.058583199999999995,
CeDyAu2,0.0,-0.0585823,
In3Au7,0.0,-0.0585804,
AgPrBi2,0.0,-0.0585781,
AsTe2Th2,0.0,-0.058577399999999995,
MnSbPt5,0.0,-0.0585754,
NdTl,0.0,-0.0585749,
Ho6ReBi2,0.0,-0.058574,
Zn2Pt3Pu,0.0,-0.0585734,
LaPmTl2,0.0,-0.0585715,
AgHfAu2,0.0,-0.0585713,
NiSnAc2,0.0,-0.0585707,
Sb2Pa,0.0,-0.058568300000000004,
AgSbNp,0.0,-0.058567999999999995,
RhTbPb2,0.0,-0.0585669,
RhRePt,0.0,-0.0585595,
Te2Hf6Pt,0.0,-0.058555100000000006,
MgHg2Ac,0.0,-0.0585439,
Zn2TlTh2,0.0,-0.0585409,
SiPt4,0.0,-0.0585407,
MoWRe,0.0,-0.058539499999999994,
NbLuOs2,0.0,-0.058537399999999996,
CeErBi,0.0,-0.058536200000000004,
BSm2Pt6,0.0,-0.0585339,
NaHg2Pb2,0.0,-0.0585313,
RuHf2Re,0.0,-0.0585304,
FeTa5,0.0,-0.0585293,
Sn2ErPu,0.0,-0.0585293,
CdCeBi2,0.0,-0.0585274,
ZnU,0.0,-0.0585272,
CrOs3,0.0,-0.058526600000000005,
Te2Tl3,0.0,-0.058526,
NiGdBi2,0.0,-0.0585254,
Tc2HfPa,0.0,-0.058525100000000004,
SmErBi,0.0,-0.058524599999999996,
CrTa5,0.0,-0.0585225,
RhLuIr2,0.0,-0.0585195,
Tm2Au,0.0,-0.0585189,
Nd2HgPb,0.0,-0.0585124,
PrNdTl2,0.0,-0.0585119,
SeHgTl2,0.0,-0.0585109,
AlReTh,0.0,-0.0585107,
Rh2HgTh,0.0,-0.058509500000000006,
Rh2Tm4Tl5,0.0,-0.0585076,
Pd2AuBi2,0.0,-0.0585033,
MoHf2Os,0.0,-0.058500100000000006,
PTlPb2,0.0,-0.0584972,
MnOs3,0.0,-0.0584932,
NiAu4,0.0,-0.058492600000000006,
LaTmHg2,0.0,-0.058490299999999995,
KAu2Tl2,0.0,-0.058490099999999996,
MnTePt5,0.0,-0.0584876,
Ag3Pt7,0.0,-0.0584861,
LiPbTh,0.0,-0.0584858,
Sn2AuPb2,0.0,-0.0584856,
ScPt2Pb,0.0,-0.058484900000000006,
BeAu5,0.0,-0.058484499999999995,
BCe2Pt6,0.0,-0.0584838,
CaPtPb2,0.0,-0.0584827,
RhLuPt2,0.0,-0.058480899999999995,
CrSbPt5,0.0,-0.058477600000000005,
GaPt2Pb,0.0,-0.0584752,
LaNdTl2,0.0,-0.0584741,
CdSmBi2,0.0,-0.0584738,
SmErHg2,0.0,-0.0584723,
YTmPb2,0.0,-0.058470799999999996,
N2UNp,0.0,-0.058468400000000004,
BaPb,0.0,-0.0584683,
Ag2Pb2Bi,0.0,-0.0584659,
BrHgTl2,0.0,-0.0584648,
GeSbPt5,0.0,-0.058464,
Cs2Hg2Bi,0.0,-0.0584635,
Si2W4Pu,0.0,-0.0584615,
MgGdPt4,0.0,-0.0584612,
AsSnPt5,0.0,-0.0584608,
InAuTl,0.0,-0.058458199999999995,
NdDyAu2,0.0,-0.0584559,
BNd2Ir6,0.0,-0.058454,
CaIrPb2,0.0,-0.05845259999999999,
RhGdAu2,0.0,-0.0584523,
Ge2Pt2Pu,0.0,-0.0584514,
C2UPu,0.0,-0.058450800000000004,
PrTl,0.0,-0.0584502,
InLuIr2,0.0,-0.0584448,
InGdAu2,0.0,-0.0584448,
FeHf3Re2,0.0,-0.0584431,
CeOs,0.0,-0.05844,
AlAuTh,0.0,-0.0584384,
SmTbAu2,0.0,-0.0584364,
RhWIr,0.0,-0.0584357,
MnHf3Re2,0.0,-0.0584333,
Ni3Dy4Bi8,0.0,-0.0584294,
TbDyHg2,0.0,-0.0584283,