formula,bg,formation_energy,mp-id
Ni2SnPa2,0.0,-0.053953,
RhEr6Tl2,0.0,-0.0539529,
HPt2Tl,0.0476,-0.0539522,
BePt2Au,0.0,-0.0539501,
Te3Bi2,0.1985,-0.053949800000000006,
RhTbBi,0.0,-0.053949399999999995,
MgPtAu2,0.0,-0.053949199999999996,
CoHf2Re,0.0,-0.0539479,
CdHo3Os2,0.0,-0.0539474,
CdTb2Ir2,0.0,-0.0539468,
Te2CsPa,0.0,-0.053945099999999996,
Te2IrAu,0.137,-0.053944200000000005,
Rb2Au3Tl,0.0,-0.053943899999999996,
SnTmPt,0.0,-0.053941699999999995,
GeRuNp,0.0,-0.0539409,
MnSbNp,0.1264,-0.053939999999999995,
SnEu2Au,0.0,-0.0539395,
LiWIr2,0.0,-0.0539387,
AsAuTl,0.0,-0.0539382,
AgLaAu2,0.0,-0.0539329,
Sb2Lu6Os,0.0,-0.0539301,
SiTb2Ir3,0.0,-0.053928,
AgPrAu2,0.0,-0.0539279,
CdEuPb,0.0,-0.0539272,
RhHo6Pb2,0.0,-0.0539247,
GaAc,0.0,-0.053924599999999996,
SnNd2Pt2,0.0,-0.0539202,
CsAu,0.7552,-0.0539201,
Sb2Lu6Pt,0.0,-0.0539189,
LiIrPt2,0.0,-0.0539185,
BaSmPb,0.0,-0.053917299999999994,
N2TeU2,0.0,-0.053917,
Cu2PbPu,0.0,-0.053916200000000004,
C3W2U2,0.0,-0.0539147,
AsPt2,0.0,-0.053911499999999994,
Pd2LaBi2,0.0,-0.0539112,
BHf3Tl,0.0,-0.0539095,
CaSrTl4,0.0,-0.053908000000000005,
Te3Au2Tl,0.0,-0.0539074,
Ga2Hf6Ir,0.0,-0.0539072,
RhPrHg2,0.0,-0.0539069,
AgSb2Hf6,0.0,-0.0539032,
MgPt2Hg,0.0,-0.0538993,
CdTbHg2,0.0,-0.0538987,
PdSb2Np,0.0,-0.0538974,
Cd2Hg2Tl,0.0,-0.0538968,
PPb2,0.0,-0.0538958,
InEu2Tl,0.0,-0.0538931,
GaRhPu,0.0,-0.0538897,
SrRhBi2,0.0,-0.053886,
ScAuPb,0.0673,-0.053886,
Pd2TbAu3,0.0,-0.0538843,
Ce2Pt,0.0,-0.0538837,
Sn2SbPt3,0.0,-0.0538819,
GeBaAu3,0.0,-0.0538816,
Ce2Os,0.0,-0.0538816,
CuSnPu,0.0,-0.053877,
MgTaPt2,0.0,-0.0538762,
MnInPu,0.0,-0.0538754,
CrIr2,0.0,-0.0538752,
PdSn2Hf6,0.0,-0.0538745,
BYIr4,0.0,-0.0538733,
AgInTh,0.0,-0.053872300000000005,
Cd2Au3,0.0,-0.0538716,
InNdHg2,0.0,-0.0538713,
CaTmPb2,0.0,-0.0538711,
Ga2Hf6Os,0.0,-0.0538693,
KCaPb4,0.0,-0.0538678,
MnTm6Pb2,0.0,-0.0538677,
CdNdAu2,0.0,-0.053863100000000004,
SnCsPt2,0.0,-0.0538628,
AsPdNp,0.0,-0.0538617,
CaGdTl2,0.0,-0.0538611,
GePr2Pt3,0.0,-0.0538583,
ZnSbPu,0.0,-0.0538581,
ZrLaAu2,0.0,-0.0538578,
Rh2Pr3Pb3,0.0,-0.0538577,
N2Lu7Pb3,0.0,-0.053855200000000006,
SbBaHg2,0.0,-0.053855,
InDyBi,0.0,-0.053849600000000004,
GaAuPb,0.0,-0.053849400000000006,
ZnGeAc2,0.0,-0.053847,
RuDy6Bi2,0.0,-0.0538441,
CNTh2,0.0,-0.0538424,
ZrErBi,0.0,-0.0538415,
SnPr2Ir2,0.0,-0.053840400000000004,
Sm2Os,0.0,-0.0538401,
BrHgTl,0.5267,-0.0538395,
Sn2HgPb,0.0,-0.0538392,
CdHfHg,0.0,-0.0538374,
PdNdHg2,0.0,-0.0538359,
Ga2Hf6Pt,0.0,-0.0538356,
PdTm2Pb,0.0,-0.0538356,
CHf3Hg,0.0,-0.053835,
Ag2Au2Hg,0.0,-0.053834,
AlPa,0.0,-0.053834,
SeGdBi,0.0,-0.0538332,
AlAu2Hg,0.0,-0.053832,
Rh2La3Pb3,0.0,-0.053831699999999996,
AlPd2Th2,0.0,-0.0538315,
PdTbBi,0.0202,-0.0538289,
PdErPb,0.0,-0.053826500000000006,
InSbTl2,0.0,-0.0538254,
CdDy2Au2,0.0,-0.0538249,
LiHg2Pb,0.0,-0.0538245,
Ru2DyTh,0.0,-0.053824,
RbPt2,0.0,-0.0538237,
SeSnU,0.0,-0.053822,
FeTm6Pb2,0.0,-0.053822,
N2SbU2,0.0,-0.0538212,
Pr3Hg2,0.0,-0.0538202,
KBaHg4,0.0,-0.0538188,
FeOs2,0.0,-0.0538187,
ScGdAu2,0.0,-0.0538183,
InLaHg2,0.0,-0.0538182,
GeLa2Pt3,0.0,-0.0538163,
CrTm6Pb2,0.0,-0.0538161,
RhDy6Bi2,0.0,-0.0538139,
InPrHg2,0.0,-0.0538133,
TiHf2Ir,0.0,-0.0538061,
Rb3Au3Bi2,0.8804,-0.053805599999999995,
Rh2Tb3Tl3,0.0,-0.0538011,
Ge2TmRe4,0.0,-0.053800400000000005,
CdLu2Tl,0.0,-0.053800100000000003,
RhLaHg2,0.0,-0.0537999,
SnEuAu,0.0,-0.053797899999999996,
SiRh3U2,0.0,-0.0537964,
S2Pt3Tl2,0.0,-0.0537953,
CuLuPt2,0.0,-0.053795,
MnTm2Ir2,0.0,-0.053792,
Al3Ir2U2,0.0,-0.0537917,
Sn2ErAc,0.0,-0.0537914,
Rh2SnPu,0.0,-0.0537911,
SnPr2Pt2,0.0,-0.0537906,
In3Hf3Au2,0.0,-0.0537899,
CdPrAu2,0.0,-0.0537895,
CdInPb2,0.0,-0.053788600000000006,
RhHf2,0.0,-0.0537847,
SiLu2Ir2,0.0,-0.0537841,
Ge2SnTh2,0.0,-0.0537832,
SnLa2Pt2,0.0,-0.0537804,
TiHf2Os,0.0,-0.0537776,
Te2HfPb,0.0,-0.0537776,
SrEuHg2,0.0,-0.053776000000000004,
Co2Dy4Tl5,0.0,-0.053775500000000004,
PdPrHg2,0.0,-0.053772799999999996,
Te2CsAu3,1.5739,-0.0537726,
Ru2NdPa,0.0,-0.0537681,
CdLaAu2,0.0,-0.053768,
CaInAu4,0.0,-0.053765900000000005,
InSm2Pt2,0.0,-0.0537609,
Co2InPa2,0.0,-0.0537604,
CdSb2Hf6,0.0,-0.053760199999999994,
CoTm6Pb2,0.0,-0.0537601,
HoLu3,0.0,-0.053758299999999995,
GeCeTh,0.0,-0.0537578,
BrTeBi2,0.0,-0.053757599999999996,
GeRhNp,0.0,-0.0537574,
InCe2Ir2,0.0,-0.0537537,
MnTmPt2,0.0,-0.0537521,
SnIr,0.0,-0.053751600000000004,
CaPtBi,0.0,-0.0537514,
InSm2Ir2,0.0,-0.053751,
Sb4Ta5,0.0,-0.0537479,
BeTaPt2,0.0,-0.053746499999999996,
MnIr2,0.0,-0.0537461,
LiPt3,0.0,-0.0537452,
NiBaBi2,0.0,-0.053744,
InTm2Pb,0.0,-0.0537409,
KAuHg2,0.0,-0.053737099999999996,
MgRu2Th2,0.0,-0.0537355,
Ni3Pu2,0.0,-0.0537351,
YDyHg2,0.0,-0.0537345,
SeIBi2,0.0,-0.0537325,
ScTbPb2,0.0,-0.0537275,
Ru2Tb3Tl3,0.0,-0.0537268,
YSmAu2,0.0,-0.0537268,
Se3Bi4,0.0,-0.053724600000000004,
Sb2HgTl,0.0,-0.0537213,
LiSn2Th2,0.0,-0.0537209,
FeOsIr,0.0,-0.0537162,
Sn2CeTh,0.0,-0.0537148,
Sn3Np,0.0,-0.0537141,
Te2Lu6Au,0.0,-0.053714,
Eu,0.0,-0.0537121,
N4Pu3,0.0,-0.053710299999999996,
SiTb2Os3,0.0,-0.053708399999999996,
La3Hg2,0.0,-0.0537049,
SbGdHf,0.0,-0.0537043,
CdLu2Os,0.0,-0.053700899999999996,
Y3Hg5,0.0,-0.0537005,
SrPdBi2,0.0,-0.053699399999999994,
Sn2LuAu2,0.0,-0.0536977,
SnPt,0.0,-0.053696,
Ru2PrPa,0.0,-0.0536954,
NiTm6Pb2,0.0,-0.0536938,
HHf3Pb,0.0,-0.0536929,
FeTm2Ir2,0.0,-0.0536929,
MgRh2Th2,0.0,-0.0536904,
SiTb2Pt3,0.0,-0.0536892,
ScHfHg2,0.0,-0.0536885,
Sr3Pt2Tl3,0.0,-0.053687,
CuTa3,0.0,-0.0536869,
In2TlPb,0.0,-0.053686500000000005,
As2AuU,0.0,-0.0536837,
GeErPt2,0.0,-0.053681,
PdCdTh,0.0,-0.0536802,
Te2IrHg,0.0,-0.05368,
RuTb3Pt2,0.0,-0.0536799,
Ni2Dy4Tl5,0.0,-0.0536794,
GeAgPu,0.0,-0.0536791,
Cs2PtHg,0.0,-0.0536786,
NiHf2Re,0.0,-0.0536777,
BePt2Hg,0.0,-0.053676499999999995,
Dy3Re,0.0,-0.0536745,
BSmIr3,0.0,-0.0536733,
SnSm2Au2,0.0,-0.0536711,
SnGd3,0.0,-0.05367,
PdDy6Bi2,0.0,-0.053669600000000005,
RhHoPb,0.0,-0.0536651,
CuHf2Os,0.0,-0.0536643,
Nd2Tl,0.0,-0.053661900000000005,
InLu2Hg,0.0,-0.05366170000000001,
Pd2PtBi,0.0,-0.053661099999999996,
As2OsPa,0.0,-0.0536583,
Sb2BaPb2,0.1378,-0.0536578,
In2ErTh,0.0,-0.0536574,
Cd2PbBi,0.0,-0.053656100000000005,
GePt2,0.0,-0.0536556,
SnEu2Hg,0.0,-0.0536539,
RuHoPb,0.0,-0.053652500000000006,
PHg3,0.0,-0.0536509,
Ru2LaPa,0.0,-0.0536508,
BaNdPb,0.0,-0.0536491,
In2LuAc,0.0,-0.0536476,
AlHf5,0.0,-0.053646299999999994,
Cd4Tl5,0.0,-0.0536451,
Sb2Lu6Au,0.0,-0.0536438,
I2Lu2Bi,0.0,-0.0536434,
SnLa2Ir2,0.0,-0.0536416,
YBaTl2,0.0,-0.053640099999999996,
NiSbNp,0.0,-0.053639000000000006,
KYPt4,0.0,-0.0536381,
TeLu8,0.0,-0.0536359,
AlGd2Au2,0.0,-0.053633600000000003,
SbHoPt,0.2535,-0.0536314,
YInPb2,0.0,-0.0536306,
Cd2Au2Hg,0.0,-0.0536305,
CuHf2Ir,0.0,-0.0536293,
YCeAu2,0.0,-0.0536269,
O2TeU2,0.0,-0.053622300000000005,
KPb2,0.0,-0.053614600000000005,
NHf2Pb,0.0,-0.0536132,
LiWPt2,0.0,-0.053610700000000004,
KSrTl4,0.0,-0.0536091,
Pd2Tb3Tl3,0.0,-0.053607100000000005,
Te2TaTl,0.0,-0.0536038,
SiLu2Pt2,0.0,-0.0536001,
PBr2Np2,0.0,-0.053599400000000005,
AgLu2Au,0.0,-0.0535968,
GaPdPu,0.0,-0.0535968,
As2IrPa,0.0,-0.0535965,
MgAu3,0.0,-0.0535958,
Ge2ErRe4,0.0,-0.0535957,
BYPt4,0.0,-0.0535925,
TcOs,0.0,-0.053592100000000004,
SiTh,0.0,-0.0535916,
As2Pb3,0.0,-0.0535845,
P2Pt5,0.0,-0.0535822,
CdInTh,0.0,-0.0535814,
BePtAu2,0.0,-0.053581000000000004,
TeCePb,0.0,-0.053578400000000005,
FeIr2,0.0,-0.053578299999999995,
AsLu2Bi,0.0,-0.0535773,
Sn2PmTh,0.0,-0.0535754,
MgZrRe4,0.0,-0.0535743,
Si2Pt2U,0.0,-0.0535736,
Sn2CsBi2,0.0,-0.053573,
InLuAu,0.0,-0.053571,
BaPrPb,0.0,-0.0535689,
Te2PtHg,0.0,-0.053568399999999995,
MnEr6Bi2,0.0,-0.0535679,
SiGdPt2,0.0,-0.0535663,
MgHg2Tl,0.0,-0.0535657,
LiTaIr2,0.0,-0.0535654,
Te3TaPt2,0.0,-0.0535636,
TeSmPb,0.0,-0.0535586,
MgYIr4,0.0,-0.0535568,
CHf2Pb,0.0,-0.0535564,
Cs2AuHg,0.0,-0.053555900000000004,
Rh2NdPa,0.0,-0.0535548,
Sn2Lu6Ir,0.0,-0.0535544,
GaTm2Ir2,0.0,-0.0535544,
Al2Tm4Tl5,0.0,-0.0535541,
LiAu2Tl,0.0,-0.0535533,
AlGe2Pu2,0.0,-0.0535526,
BCePt3,0.0,-0.0535522,
Sr2Tl2Pb,0.0,-0.0535492,
MnPt2,0.0,-0.0535486,
GaEuPt2,0.0,-0.0535468,
Tb3Ir,0.0,-0.0535462,
Co2ZnPu2,0.0,-0.05354419999999999,
Ru2TbTh,0.0,-0.053542,
Tc2OsIr,0.0,-0.053542,
CoOs2,0.0,-0.0535417,
P2Os2Pa,0.0,-0.0535382,
SbHoIr,0.0,-0.053535200000000005,
AgTe2Np,0.0,-0.0535338,
In2BaPt3,0.0,-0.0535336,
ZrAgPb2,0.0,-0.0535323,
Pd2SmAu3,0.0,-0.0535304,
AsHgTl,0.0,-0.053526899999999995,
SnTm2Tl,0.0,-0.0535261,
SbHo5Au2,0.0,-0.0535256,
AlTaAu2,0.0,-0.0535244,
Pd2CeAu3,0.0,-0.053524,
PdTb3Ir2,0.0,-0.053523600000000005,
CaErPb2,0.0,-0.053523,
SrHg2,0.0,-0.053522,
CrEr6Bi2,0.0,-0.05352150000000001,
CuTm6Pb2,0.0,-0.0535205,
FeEr6Bi2,0.0,-0.053520000000000005,
AgTmPb,0.0,-0.0535188,
CdDy3Ir2,0.0,-0.0535179,
AlSiPt5,0.0,-0.0535166,
AgSmHg2,0.0,-0.053513899999999996,
PCl3Pu3,0.0,-0.0535118,
Pd2TlPb,0.0,-0.0535091,
Te3Pa,0.0,-0.0535088,
Zn2AcTh,0.0,-0.053508,
MgHfIr2,0.0,-0.0535074,
Tb3Tl,0.0,-0.0535068,
RuSb2U,0.0,-0.0535062,
KAgPt4,0.0,-0.0535055,
CoTm2Ir2,0.0,-0.0535051,
InBaAu2,0.0,-0.053504800000000005,
Y2Hg2Tl,0.0,-0.053504600000000006,
PdTb3Pt2,0.0,-0.0535036,
Ag3Pt4,0.0,-0.053503100000000005,
Ge2PtU,0.0,-0.0535027,
Ni2CuPu2,0.0,-0.053501,
Sm2Au,0.0,-0.053501,
TcRuOs2,0.0,-0.0535002,
InLa2Tl2,0.0,-0.0534998,
Ce3Bi,0.0,-0.053499200000000004,
NiSrPb3,0.0,-0.0534991,
FeTm2Os2,0.0,-0.0534974,
KHg3,0.0,-0.0534963,
GeEuAu2,0.0,-0.0534942,
GeEr2Ir2,0.0,-0.0534942,
Nd2Ir,0.0,-0.0534939,
CClTh2,0.0,-0.053493200000000005,
Pd2AuBi,0.0,-0.0534931,
Sn2Lu6Pt,0.0,-0.0534927,
CrRe2,0.0,-0.0534912,
AgPb,0.0,-0.0534891,
Pr2Tl,0.0,-0.0534853,
YNdAu2,0.0,-0.0534844,
Sn2HoAc,0.0,-0.053481,
KCdPt4,0.0,-0.05348,
CuBaBi2,0.0,-0.0534791,
CdDy3Pt2,0.0,-0.053478700000000004,
CrIrPt,0.0,-0.0534786,
Nd2Pt,0.0,-0.0534766,
YTbHg2,0.0,-0.0534756,
SbLa2Au2,0.0,-0.0534756,
SnBaHg2,0.0,-0.0534735,
TcIr,0.0,-0.0534692,
AgCeHg2,0.0,-0.053468299999999996,
PdEu2Pt,0.0,-0.0534649,
SnErIr,0.0,-0.0534619,
MoTcIr2,0.0,-0.0534619,
YTmBi,0.0,-0.0534616,
Sn2ErPt2,0.0,-0.0534598,
DyLu3,0.0,-0.0534564,
Zr3Au4,0.0,-0.0534554,
CoEr6Bi2,0.0,-0.053453099999999996,
NaHg2Tl,0.0,-0.053451700000000005,
InBa2Pb2,0.0,-0.053450899999999996,
Si2Os2Pa,0.0,-0.0534482,
SnErPt,0.0,-0.053447,
AlPPt5,0.0,-0.053447,
STe2Bi3,0.0,-0.053443,
Ce2Re,0.0,-0.0534427,
AlTa2Pt,0.0,-0.053442300000000005,
Ba2Bi,0.0,-0.0534414,
RbPd4Tl6,0.0,-0.053438200000000005,
SSbPu,0.0,-0.0534355,
CaAgAu4,0.0,-0.0534338,
Zr2Hg3,0.0,-0.0534334,
BNdIr3,0.0,-0.0534325,
GaTm2Pt2,0.0,-0.0534314,
Y2Au2Hg,0.0,-0.0534295,
Si2Ir2Pa,0.0,-0.053428800000000005,
Tb3Pt,0.0,-0.0534278,
Pd2Lu5Bi,0.0,-0.053427300000000004,
KTlBi,0.0,-0.0534262,
As2PtPa,0.0,-0.0534259,
SIrBi,0.6918,-0.0534245,
Ru2InPu,0.0,-0.053420999999999996,
SrSmTl2,0.0,-0.0534209,
OZnBiPu,0.0,-0.0534181,
ZnLuPt2,0.0,-0.053415500000000005,
Ga3Au7,0.0,-0.053415,
AlZnTh2,0.0,-0.0534131,
YLaAu2,0.0,-0.0534125,
SnTmAu,0.0197,-0.0534107,
Ge2HoRe4,0.0,-0.0534105,
NGd3Pb,0.0,-0.0534097,
SrCeTl2,0.0,-0.053409,
Nb5Bi4,0.0,-0.0534088,
Pd2NdAu3,0.0,-0.0534066,
CdTb2Au2,0.0,-0.053406100000000005,
AgPmHg2,0.0,-0.0534057,
ZrHoBi,0.0,-0.0534056,
InSnTl2,0.0,-0.0534056,
ZnLu2Au2,0.0,-0.053403599999999996,
RuIn2Hf6,0.0,-0.0534026,
Ga2AuPu,0.0,-0.0534006,
ZnGdAu2,0.0,-0.053400500000000004,
MoIr,0.0,-0.053399999999999996,
Co2Tb4Tl5,0.0,-0.0533993,
CuHf2Pt,0.0,-0.0533957,
AsBaPb2,0.0,-0.053393300000000005,
TeAu,0.0,-0.0533918,
GaTmPt2,0.0,-0.0533914,
AlTm6Bi2,0.0,-0.053391,
Pd2LaAu3,0.0,-0.053386,
FeRe2,0.0,-0.053385300000000004,
NiEr6Bi2,0.0,-0.053385100000000005,
Ni2InPa2,0.0,-0.0533847,
NiAc,0.0,-0.0533841,
CaAuBi,0.0,-0.053382399999999997,
GePdNp,0.0,-0.053381,
LiPt2Au,0.0,-0.053380699999999996,
PdHoPb,0.0,-0.0533806,
InNd2Pt2,0.0,-0.053379600000000006,
ZrTmPb,0.0,-0.053375599999999995,
AgLuTl,0.0,-0.0533755,
Ga2Tm3Pt4,0.0,-0.0533736,
RuOs,0.0,-0.0533735,
TiHf2Re,0.0,-0.053373,
ZnTm6Pb2,0.0,-0.0533728,
Pd2PrAu3,0.0,-0.0533711,
Rh2BaBi2,0.0,-0.0533686,
MoRuOs2,0.0,-0.053367,
Ag2Hg3,0.0,-0.0533662,
La2Tl,0.0,-0.053364600000000005,
Tb3Os,0.0,-0.053364400000000006,
GaLuAu2,0.0,-0.0533637,
Mo2OsIr,0.0,-0.0533634,
B2Os2Np,0.0,-0.053363,
GeEr2Pt2,0.0,-0.0533611,
In2HgBi,0.0,-0.0533603,
ScYW4,0.0,-0.053359000000000004,
SbAu,0.0,-0.0533583,
AsRuU,0.0,-0.0533581,
AgSb2Np,0.0,-0.053357100000000005,
SbTeAu2,0.0,-0.05335669999999999,
BNdPt3,0.0,-0.05335669999999999,
MnErPt2,0.0,-0.053356499999999994,
InNd2Ir2,0.0,-0.0533564,
ClHg3,0.0,-0.0533562,
RbGdBi,0.0,-0.0533542,
MoOs,0.0,-0.0533541,
CoOsIr,0.0,-0.0533533,
CrPt2,0.0,-0.0533518,
Te2CsPb2,0.0,-0.0533476,
AlLu2Ir2,0.0,-0.053346899999999996,
RhIn2Hf6,0.0,-0.0533463,
NIPu,0.0,-0.0533444,
CdSmHg2,0.0,-0.0533429,
MgZn2Th3,0.0,-0.0533414,
MgYPt4,0.0,-0.0533414,
I3Pa,0.0279,-0.0533372,
GeHoPt2,0.0,-0.0533369,
GaTm2Os2,0.0,-0.053335099999999996,
BPrIr3,0.0,-0.0533346,
Fe2ITh2,0.0,-0.0533314,
RhTmTl,0.0,-0.0533305,
Mn2ITh2,0.0,-0.0533302,
Pd2SnPu,0.0,-0.0533292,
ZnTa3,0.0,-0.053328400000000005,
RbAu2,0.0,-0.0533262,
In2HoTh,0.0,-0.0533251,
CdCeHg2,0.0,-0.053324500000000004,
RhSb2U,0.0,-0.0533221,
Te2CsTh,0.0,-0.0533217,
CdDy3Os2,0.0,-0.0533215,
SnEuHg,0.0,-0.053320599999999996,
GeCdPu,0.0,-0.0533203,
SrPmTl2,0.0,-0.0533164,
CuHf2Re,0.0,-0.053313099999999995,
VPt2,0.0,-0.053312899999999996,
AgCdPb2,0.0,-0.0533102,
SnNd2Au2,0.0,-0.0533095,
AsCsAu3,0.0,-0.053308,
CsHg,0.0,-0.053307299999999995,
GdDy,0.0,-0.053307299999999995,
NiTm2Ir2,0.0,-0.0533041,
TeNdPb,0.0,-0.0533036,
CaCdAu4,0.0,-0.0533028,
AgNdHg2,0.0,-0.053302300000000004,
MoRuIr2,0.0,-0.0533003,
B2Ir2Np,0.0,-0.0532988,
Rh2Hf2Au,0.0,-0.053296100000000006,
NiInPu,0.0,-0.053293,
ZrCdPb2,0.0,-0.053291899999999996,
RuTm2Ir,0.0,-0.0532848,
RhTm2Ir,0.0,-0.0532816,
Pr2Ir,0.0,-0.0532815,
BPrPt3,0.0,-0.0532814,
Ge2InTh2,0.0,-0.053279200000000006,
GaBaAu3,0.0,-0.0532782,
PdHf2,0.0,-0.053277099999999994,
Sn3La2Pb3,0.0,-0.0532765,
ScTl2,0.0,-0.0532742,
GaGdHg2,0.0,-0.0532739,
MgLuPb2,0.0,-0.053273299999999996,
Pr2Pt,0.0,-0.053271500000000006,
RhDyPb,0.0,-0.053269399999999995,
SeSbPa,0.0,-0.0532669,
Ru3Ta4,0.0,-0.053266100000000004,
SrSbPb2,0.0,-0.0532657,
AgSbTl2,0.0,-0.0532631,
CoHfBi,1.0012,-0.053260800000000004,
OTePu,0.0,-0.0532591,
Pd2Hf2Tl,0.0,-0.053259,
Tc2OsPt,0.0,-0.053258099999999996,
SbDy5Pt2,0.0,-0.053255899999999995,
InTe2U,0.0,-0.0532551,
RuDyPb,0.0,-0.0532535,
NiNdPb2,0.0,-0.053252499999999994,
I2Eu2Bi,0.0,-0.0532518,
Ce2Au,0.0,-0.0532514,
InPr2Pt2,0.0,-0.0532498,
Ge2DyRe4,0.0,-0.0532483,
OIPu,0.0,-0.0532481,
Ru2ReOs,0.0,-0.0532472,
TeLaPb,0.0,-0.0532455,
BeHfIr2,0.0,-0.0532436,
MgAu2Hg,0.0,-0.053239400000000006,
CdPmHg2,0.0,-0.053237299999999994,
N2SePu2,0.0,-0.0532369,
AgPrHg2,0.0,-0.0532348,
RuTm2Pt,0.0,-0.053233800000000005,
InLa2Pt2,0.0,-0.053231499999999994,
TePrPb,0.0,-0.0532306,
SbDyPt,0.3077,-0.05323,
NiOs2,0.0,-0.0532298,
CoReIr,0.0,-0.0532295,
NiTm3Ir2,0.0,-0.0532292,
Ru2SnNp,0.0,-0.053229,
SrTmHg2,0.0,-0.0532288,
ScTmIr2,0.0,-0.0532278,
RhEu2Au,0.0,-0.0532256,
SrNdTl2,0.0,-0.0532225,
CuEr6Bi2,0.0,-0.0532212,
Cu2SnPa2,0.0,-0.053220500000000004,
RhCeBi,0.1153,-0.0532198,
InPr2Ir2,0.0,-0.053219499999999996,
MgAsAu5,0.0,-0.0532189,
FePt2,0.0,-0.0532173,
ZnHf2Os,0.0,-0.053216900000000004,
AsTePa,0.0,-0.0532159,
TiEr6Bi2,0.0,-0.053214700000000004,
NiTm2Pt2,0.0,-0.0532119,
Mo2OsPt,0.0,-0.0532073,
MgHfPt2,0.0,-0.0532071,
La2Ir,0.0,-0.053207,
CuSbNp,0.0,-0.0532054,
Fe2In3Th3,0.0,-0.0532049,
NiPrPb2,0.0,-0.0532045,
CdBaPt2,0.0,-0.0532043,
RhTm2Pt,0.0,-0.0532042,
MgPd2Th2,0.0,-0.0532038,
LiSb2Pt2Th,0.0,-0.0532029,
Mo2IrPt,0.0,-0.0532027,
MgPbBi,0.0,-0.053202599999999996,
Nd2Os,0.0,-0.0532024,
AsRhU,0.0,-0.0532021,
ScSmPb2,0.0,-0.0532007,
AgLaHg2,0.0,-0.0532003,
O2SePu2,0.0,-0.0532002,
AlLu2Pt2,0.0,-0.053199199999999995,
AgTm2Pb,0.0,-0.0531984,
CaHoPb2,0.0,-0.0531968,
Dy3Hg,0.0,-0.0531967,
Sn2DyAc,0.0,-0.0531955,
Rb2Tl2Bi,0.0,-0.0531926,
SnPr2Au2,0.0,-0.0531919,
Sr2Au2Bi,0.0,-0.0531911,
TcRuIr2,0.0,-0.0531902,
ZnEu2Ir2,0.0,-0.053188,
Pd2HgBi,0.0,-0.0531871,
In2BaBi2,0.0012,-0.053186,
Sn2HoPt2,0.0,-0.053184300000000004,
NaAu3,0.0,-0.0531809,
CaSrIr4,0.0,-0.053180700000000004,
MoRhOs2,0.0,-0.053180700000000004,
MnEr2Ir2,0.0,-0.053180500000000006,
Sn2IBi2,0.0,-0.0531776,
In3Hg4,0.0,-0.053174900000000004,
TiPt2,0.0,-0.053173200000000004,
NaLuPb2,0.0,-0.0531724,
ZnHf2Ir,0.0,-0.053170999999999996,
LiTaPt2,0.0,-0.0531691,
SrAgBi2,0.0,-0.0531681,
ScCePb2,0.0,-0.0531673,
NiTm3Pt2,0.0,-0.0531653,
SrPrTl2,0.0,-0.053165,
La2Pt,0.0,-0.053163600000000005,
PdEu2Au,0.0,-0.0531631,
CoIr2,0.0,-0.0531629,
Rh2InPu,0.0,-0.0531627,
BeAu3,0.0,-0.053161499999999993,
Pd2BaBi2,0.0,-0.0531605,
SrLaTl2,0.0,-0.0531592,
RuDy6Pb2,0.0,-0.0531589,
Tc2IrPt,0.0,-0.0531588,
ScTmTl2,0.0,-0.0531587,
ClTePu,0.0,-0.0531574,
InLa2Ir2,0.0,-0.053156100000000005,
SnLa2Au2,0.0,-0.0531547,
SiCe2Ir3,0.0,-0.0531539,
YEuPb,0.0,-0.0531524,
RuTb6Bi2,0.0,-0.0531515,
RhSmBi,0.0,-0.0531506,
SPtBi,0.0,-0.0531492,
Ba3Tl2,0.0,-0.0531487,
Ru2ReIr,0.0,-0.0531482,
CaSrPt4,0.0,-0.053148,
Mo3Ta4,0.0,-0.053147799999999995,
NiCuAc2,0.0,-0.0531453,
Co2In3Th3,0.0,-0.0531429,
GeRu3Th2,0.0,-0.053142800000000004,
SbDyIr,0.0,-0.053141100000000004,
Pd2BaPt3,0.0,-0.0531404,
InHf2,0.0,-0.0531387,
CdNdHg2,0.0,-0.053137500000000004,
ScIr2,0.0,-0.053136,
InSm2Au2,0.0,-0.0531354,
Ru2OsIr,0.0,-0.0531328,
ScOs2,0.0,-0.053131700000000004,
Te2Hf3,0.0,-0.0531308,
RhLuHg,0.0,-0.0531301,
RhDy6Pb2,0.0,-0.0531288,
Si5Pt12,0.0,-0.0531278,
IBa2Tl2,0.0,-0.0531267,
RhTb6Bi2,0.0,-0.0531242,
AlGe2In3Pu3,0.0,-0.0531227,
GeTmAu2,0.0,-0.053121699999999994,
CoRe2,0.0,-0.0531202,
LiPtAu2,0.0,-0.0531201,
AgLu2Hg,0.0,-0.0531192,
BHf3Hg,0.0,-0.0531143,
Rh3Pu,0.0,-0.0531134,
YAgPb2,0.0,-0.0531117,
ZnGaAc2,0.0,-0.0531117,
CdTmPb,0.0,-0.0531109,
MnHo3Er3Bi2,0.0,-0.0531103,
Ge2TbRe4,0.0,-0.053107,
ZnBaBi2,0.0,-0.0531064,
GeTaIr,0.9042,-0.053105400000000004,
Co2ITh2,0.0,-0.053103700000000004,
NiSnNp,0.0,-0.0531028,
GeCsAu3,0.0,-0.053101300000000004,
NiTmPt2,0.0,-0.0531004,
ScHgPb,0.0,-0.053096899999999995,
ScPmPb2,0.0,-0.0530954,
CdSm2Pt2,0.0,-0.0530922,
Sc3Pb5,0.0,-0.0530918,
TcRe,0.0,-0.0530907,
I2Lu2Pb,0.0,-0.0530858,
Te2AuHg,0.0,-0.0530849,
PdTmTl,0.0,-0.0530832,
FeEr2Ir2,0.0,-0.053081,
LiPt2Hg,0.0,-0.053080800000000004,
CdLuTl,0.0,-0.053078,
RhTm2Os,0.0,-0.053076700000000004,
CdSm2Ir2,0.0,-0.053075899999999995,
SiCuAu5,0.0,-0.053074399999999994,
CdPrHg2,0.0,-0.0530731,
AlGdPt2,0.0,-0.053072499999999995,
RuHo6Tl2,0.0,-0.053072,
MgLu3Ir2,0.0,-0.0530702,
CaSbPu,0.0,-0.0530698,
In2SbPt3,0.0,-0.053069000000000005,
CdEu2Tl,0.0,-0.0530679,
FeSbU,0.0175,-0.0530677,
SiSm2Ir3,0.0,-0.0530674,
Sb2AuHg,0.0,-0.0530669,
AlLu2Os2,0.0,-0.0530649,
RuRe,0.0,-0.0530644,
InSnPt2,0.0,-0.053062,
CdSbTl2,0.0,-0.0530602,
Rh2AuPb,0.0,-0.0530599,
NiOsIr,0.0,-0.0530597,
PdSmBi,0.1862,-0.0530595,
MgIn2Th2,0.0,-0.053057299999999995,
Cd2Hg3,0.0,-0.0530567,
YBaPt2,0.0,-0.0530518,
CdLaHg2,0.0,-0.05305169999999999,
CaTlPb,0.0,-0.0530507,
GaIr2,0.0,-0.0530502,
ZnEr6Bi2,0.0,-0.0530491,
CuTm2Pt2,0.0,-0.0530491,
CrWRe,0.0,-0.0530484,
RhSbPt2,0.0,-0.0530481,
CdLuPt,0.0,-0.053048000000000005,
RhHo6Tl2,0.0,-0.0530464,
Sr2Pt2Pb,0.0,-0.053046300000000005,
SnLuTa,0.0,-0.0530447,
Co2CdPa2,0.0,-0.0530437,
NiReOs,0.0,-0.0530418,
AgErPb,0.0,-0.0530407,
Ga2IrNp,0.0,-0.0530407,
VWRe,0.0,-0.053038800000000004,
CdPb,0.0,-0.0530383,
RuIr,0.0,-0.0530372,
Ag2Th,0.0,-0.053036900000000005,
CuTm3Ir2,0.0,-0.0530337,
LiYIr4,0.0,-0.053032699999999995,
In2DyTh,0.0,-0.0530323,
GeDyPt2,0.0,-0.053031,
YZrPb2,0.0,-0.053029200000000005,
PdTm2Ir,0.0,-0.053028799999999994,
SiRu3Pa2,0.0,-0.0530254,
AlHg3,0.0,-0.0530223,
ZrDyBi,0.0,-0.0530221,
MoRhIr2,0.0,-0.0530214,
Mn2SnTh2,0.0,-0.0530212,
MgPPt5,0.0,-0.0530208,
Te2HfTl,0.0,-0.053016,
MnPtAu,0.0,-0.0530154,
Y2HfIr2,0.0,-0.0530144,
NiTm3Os2,0.0,-0.05301380000000001,
C3W2Pa2,0.0,-0.0530135,
PdLa2Pt2,0.0,-0.0530133,
InTmPt,0.0,-0.053013199999999996,
Fe2SnTh2,0.0,-0.053012300000000005,
GaErPt2,0.0,-0.0530114,
Sb2CsPb2,0.0,-0.053010800000000004,
SnHoIr,0.0,-0.0530075,
Sn2TmAu2,0.0,-0.0530055,
SrCdBi2,0.0,-0.053002,
TcRuRe2,0.0,-0.053000399999999996,
Ag3Au4,0.0,-0.052999000000000004,
IAu,1.175,-0.0529981,
Y4Tl5,0.0,-0.0529975,
SnHoPt,0.0,-0.052997,
PdCeBi,0.0,-0.0529951,
RuRhOs2,0.0,-0.0529939,
LiHg2Tl,0.0,-0.052993200000000004,
Pr2Os,0.0,-0.0529926,
HHf3Tl,0.0,-0.052992,
PdDyPb,0.0,-0.0529899,
Sn2HgTl,0.0,-0.052987400000000004,
Sn2BaPb2,0.0,-0.052987,