formula,bg,formation_energy,mp-id
BEuPt2,0.0,-0.0513195,
InTbPt,0.0,-0.0513195,
Zr2OsAu,0.0,-0.051318600000000006,
SbSmAu,0.0,-0.0513177,
RhCdPt2,0.0,-0.051313000000000004,
SbCeAu,0.0,-0.051312399999999994,
Sc2HgBi2,0.0,-0.05131,
MgEuTl2,0.0,-0.0513098,
YPdPt2,0.0,-0.0513097,
NOSbTh2,0.4074,-0.0513097,
GaPdU,0.0,-0.0513097,
Se2Pu,0.0,-0.0513087,
GeBr2Th2,0.0,-0.0513085,
Cr3Pt5,0.0,-0.0513085,
Sb2CsIr2,0.0,-0.0513083,
Ge2TmIr3,0.0,-0.0513067,
AlEr2Ir2,0.0,-0.051305300000000005,
RhBaBi,0.0,-0.051304699999999995,
AgHoTl,0.0,-0.051302999999999994,
Ru2HfPt,0.0,-0.0513023,
Rh2TaAu,0.0,-0.0513002,
GeSmAu2,0.0,-0.0512999,
GaPmPt2,0.0,-0.051299700000000004,
CdErIr,0.0,-0.051299199999999996,
PCeTh,0.0,-0.0512989,
NSLu6Pb2,0.0,-0.0512985,
CdTmAu,0.0,-0.051298,
SrBa2Pb2,0.0,-0.051297600000000006,
Rh2Lu3Hg,0.0,-0.0512974,
RhSn2Sm3Tl3,0.0,-0.0512967,
Ge2La3IrTl3,0.0,-0.0512963,
YAgTl2,0.0,-0.0512947,
AgLa2Hg2,0.0,-0.0512935,
CoSnPa,0.0,-0.0512883,
K3Au7,0.0,-0.0512848,
AsPmAu2,0.0,-0.0512848,
NiIn2Hf6,0.0,-0.051284300000000005,
BNi2Pt6,0.0,-0.051284199999999995,
NbPdAu2,0.0,-0.0512838,
ZnHo3Pt2,0.0,-0.0512833,
Zn2Pb2Bi,0.0,-0.0512829,
ScTmHg2,0.0,-0.0512829,
RbCdHg3,0.0,-0.0512828,
ZrCdPt2,0.0,-0.0512791,
SnDyHg,0.0,-0.0512789,
NaGeAc2,0.0,-0.0512757,
Ni3U2,0.0,-0.0512757,
SiIrPt,0.0,-0.0512755,
InBa2Ir2,0.0,-0.0512746,
TcRuTa2,0.0,-0.0512739,
InTbIr,0.0,-0.0512739,
NTeU,0.0,-0.051271500000000005,
ZnPtAu,0.0,-0.051267400000000005,
MgTm3Ir2,0.0,-0.0512665,
PZrPu,0.0,-0.0512664,
Sr2Au3,0.0,-0.0512652,
RuHo2Au,0.0,-0.0512631,
PdErHg,0.0,-0.051259900000000004,
Sn2BaPt2,0.0,-0.0512585,
AsRuTh,0.0,-0.051257399999999995,
RhHo2Au,0.0,-0.0512568,
GeCeAu2,0.0,-0.0512567,
Sn4Ir3,0.0,-0.051253900000000005,
AsRhTh,0.0,-0.0512506,
RhPd2U,0.0,-0.0512506,
N2SbTh2,0.0,-0.05125010000000001,
MgScIr4,0.0,-0.0512491,
MgHfHg2,0.0,-0.0512467,
RuInHfIr,0.0,-0.0512453,
ScPmTl2,0.0,-0.0512449,
Sn4Ir2Pt,0.0,-0.0512441,
CuAu2,0.0,-0.0512424,
NAc,0.0,-0.0512419,
GaTb2Os2,0.0,-0.0512401,
ScAuHg,0.0,-0.051239400000000004,
CaIr2,0.0,-0.051238,
N2SPu2,0.0,-0.0512375,
SrNdHg2,0.0,-0.0512368,
Sr2Hg2Tl,0.0,-0.0512357,
NOLu6Pb2,0.0,-0.0512356,
ZrTc2U,0.0,-0.051235300000000004,
Sb2BaAu2,0.0,-0.0512348,
Pd2CsPb2,0.0,-0.0512324,
Pd2Tm5Bi,0.0,-0.0512305,
Zn2TlBi2,0.0,-0.0512301,
ZrInAu2,0.0,-0.051229500000000004,
AgDy2Pb,0.0,-0.0512275,
MgTbPb2,0.0,-0.0512263,
BaLaAu,0.0,-0.051225299999999994,
GaTbAu2,0.0,-0.051223700000000004,
Rh2HfIr,0.0,-0.0512223,
ZnInNp,0.0,-0.0512214,
LiHoPb2,0.0,-0.0512188,
I2Ho2Bi,0.0,-0.0512177,
ZnDy2Ir2,0.0,-0.0512175,
Zr2AuTl,0.0,-0.051216,
Fe2TlTh,0.0,-0.0512158,
PRuNp,0.0,-0.0512156,
TeLa2Pb,0.0,-0.051212,
Te4HoU,0.0,-0.051211799999999995,
Sn2Tm6Ir,0.0,-0.051211,
YZrIr2,0.0,-0.051210900000000004,
SiHoPt2,0.0,-0.0512098,
GaPmIr2,0.0,-0.0512087,
YZrTl2,0.0,-0.0512078,
MnAs2Ta6,0.0,-0.0512072,
KTl2,0.0,-0.0512069,
GaNdPt2,0.0,-0.0512057,
O2SPu2,0.0,-0.0512052,
OAsAuU,0.0,-0.0512031,
CdLa2Hg2,0.0,-0.0512025,
ZnGd2Ir,0.0,-0.0512023,
Rh6NdBi4,0.0,-0.051202199999999996,
NiTb2Ir2,0.0,-0.0512001,
SiEuAu2,0.0,-0.0511995,
SiHo2Ir2,0.0,-0.051198799999999996,
Nb2TaRe,0.0,-0.0511987,
SnHo2Hg,0.0,-0.0511985,
MnTb6Bi2,0.0,-0.051198099999999996,
InErHg,0.0,-0.051198,
Sn4IrPt2,0.0,-0.0511976,
CdNd3Ir2,0.0,-0.0511971,
Sn2BaIr2,0.0,-0.0511963,
ZnTbPt2,0.0,-0.051195500000000005,
InEr2Hg,0.0,-0.051195300000000006,
FeAs2Ta6,0.0,-0.0511923,
AlZr2Bi3,0.0,-0.051192,
MnDy6Pb2,0.0,-0.051191400000000005,
ScLa2Pb2,0.0,-0.0511902,
Pd2PtAu,0.0,-0.0511896,
Zr3Ir2Hg,0.0,-0.0511887,
SnTa,0.0,-0.0511875,
MoTcTa2,0.0,-0.0511866,
GaGd2Hg,0.0,-0.0511844,
Rh6LaBi4,0.0,-0.051183900000000004,
Rh6PrBi4,0.0,-0.0511809,
Sn4Pt3,0.0,-0.0511793,
PLu2Bi,0.0,-0.0511792,
SrPrHg2,0.0,-0.0511781,
BTmIr2,0.0,-0.0511776,
GePdPa,0.0,-0.051173699999999996,
AlEr2Pt2,0.0,-0.0511733,
Te2Dy7Ir2,0.0,-0.051171999999999995,
Rh3Pa,0.0,-0.0511719,
MoRuTa2,0.0,-0.0511716,
ScW2,0.0,-0.0511714,
CoTaAu,0.0,-0.0511696,
In2AuHg,0.0,-0.0511677,
SrLa2Tl2,0.0,-0.051167000000000004,
ZnGd2Pt,0.0,-0.0511664,
CuTmHg2,0.0,-0.0511662,
AgSmPb,0.0,-0.051165999999999996,
AgSbHg2,0.0,-0.0511646,
Rh2HfPt,0.0,-0.051162,
Sb2CsPt2,0.0,-0.0511618,
CuTaPt,0.0,-0.0511616,
NIU,0.0,-0.0511603,
Te2Tm6W,0.0,-0.0511598,
Sn2Tm6Os,0.0,-0.0511587,
Co2Tm3Tl3,0.0,-0.0511578,
Sn2Tm6Pt,0.0,-0.051156,
PRe2,0.0,-0.051155099999999995,
RuSn2Th,0.0,-0.0511545,
SrYPb2,0.0,-0.0511543,
PdBaBi,0.0,-0.051154000000000005,
I2Er2Pb,0.0,-0.0511539,
TeIBi,1.1297,-0.0511539,
CdEr2Os,0.0,-0.0511539,
SrLaHg2,0.0,-0.0511537,
CrTb6Bi2,0.0,-0.051152500000000004,
GaErHg2,0.0,-0.0511495,
Cd2HgPb,0.0,-0.0511489,
Zr2PtAu,0.0,-0.0511487,
ZnDy2Pt2,0.0,-0.0511477,
RhDy2Ir,0.0,-0.051147,
Tc2LaRe2,0.0,-0.051147,
GeTe5Pb4,0.529,-0.051145699999999995,
MgTm2Ir2,0.0,-0.0511454,
AsGdPt,0.0,-0.0511452,
SnNdPt,0.0,-0.0511448,
Nd3Tl,0.0,-0.0511431,
CLu3Pb,0.0,-0.051143,
AlRhPu,0.0,-0.0511428,
Si2ErRe4,0.0,-0.0511412,
ScNdTl2,0.0,-0.0511406,
RuDy2Ir,0.0,-0.0511398,
AsEr2Bi,0.0,-0.0511389,
Ag2BaPb2,0.0,-0.0511386,
FeTb6Bi2,0.0,-0.051137,
YCdTl2,0.0,-0.0511365,
Sn5IrNp,0.0,-0.051136,
FeDy6Pb2,0.0,-0.0511358,
AsGdIr,0.0,-0.0511346,
SnNdIr,0.0,-0.051134099999999995,
MgBaBi2,0.0359,-0.0511337,
Te2Dy7Pt2,0.0,-0.0511319,
Sn2BaAc,0.0,-0.051131,
AgIHg2,0.0814,-0.051130499999999995,
AgCePb,0.0,-0.0511285,
Zr3Ta4,0.0,-0.0511266,
NiTb2Pt2,0.0,-0.0511246,
CdTm2Hg,0.0,-0.0511226,
GaPrPt2,0.0,-0.051119500000000005,
CaDyTl2,0.0,-0.0511193,
HoTm3,0.0,-0.0511192,
PdCdPt2,0.0,-0.051119,
YCeBi,0.0,-0.051118000000000004,
BTmPt2,0.0,-0.051117800000000005,
Al3Au7,0.0,-0.051117499999999996,
Sb2Tm6W,0.0,-0.0511174,
Te2EuTl,0.0,-0.0511154,
CoAs2Ta6,0.0,-0.0511141,
Al3Sn2IrTh3,0.0,-0.0511121,
GaTb6Bi2,0.0,-0.051112000000000005,
YZrPt2,0.0,-0.051112000000000005,
SnCsBi,0.2374,-0.0511118,
ZnHo3Os2,0.0,-0.0511102,
GaLaPt2,0.0,-0.051109699999999994,
Al3Sn2OsTh3,0.0,-0.051107,
CaPt2,0.0,-0.0511067,
ZrPdAu2,0.0,-0.051106200000000004,
Cd2TbTh,0.0,-0.0511048,
MgTlPb,0.0,-0.0511048,
NiDy3Ir2,0.0,-0.0511027,
RuDy2Pt,0.0,-0.051102600000000005,
BrRuTh,0.0,-0.051102299999999996,
Cl2AsNp2,0.0,-0.0511016,
RhDy2Pt,0.0,-0.051099200000000004,
Ga2Tl2Bi,0.0,-0.051096499999999996,
MgTm2Pt2,0.0,-0.0510962,
NaTbPb2,0.0,-0.0510938,
CaAuTl,0.0,-0.051093400000000004,
RuTa,0.0,-0.0510921,
MgTm3Os2,0.0,-0.0510918,
CdCs2BaBi2,0.0378,-0.051091700000000004,
Br2Pu,0.0,-0.0510913,
AlCuAc2,0.0,-0.051091000000000004,
SnTe7Bi4,0.3337,-0.0510908,
InDyAu,0.0,-0.0510886,
NaEuTl2,0.0,-0.0510882,
SrSnTl2,0.0,-0.051087600000000004,
NiCePt2,0.0,-0.0510854,
SIBi2,0.0,-0.0510852,
AlLaPb2,0.0,-0.0510847,
KHgPb,0.0,-0.0510807,
GeNdAu2,0.0,-0.051077,
ScLaTl2,0.0,-0.051077,
AgEr2Au,0.0,-0.0510759,
GaHfIr,0.0,-0.0510759,
Ni2Tm3Tl3,0.0,-0.051075699999999995,
CuGd2Au,0.0,-0.0510756,
Cu2Ho3Pb3,0.0,-0.0510751,
GeTa2,0.0,-0.0510747,
NiDy3Pt2,0.0,-0.0510737,
PRhNp,0.0,-0.051073099999999996,
Y2AuPb,0.0,-0.051072200000000005,
ScPrTl2,0.0,-0.051071899999999996,
CuIn2Hf6,0.0,-0.05107,
CoTb6Bi2,0.0,-0.0510696,
SbNdAu,0.0,-0.051066299999999995,
CoDy6Pb2,0.0,-0.0510662,
PdAu,0.0,-0.0510638,
SIU,0.0,-0.0510625,
Fe3Pt5,0.0,-0.0510621,
AgSb2Th,0.0,-0.0510614,
Rh2GdPb,0.0,-0.0510608,
Te4Au3,0.0,-0.0510601,
SnTb2Tl,0.0,-0.05106,
SiRuNp,0.0,-0.051059600000000004,
INdAu,0.0,-0.0510593,
Ru2CdU,0.0,-0.0510592,
YSmBi,0.0,-0.0510578,
Ru2InPa,0.0,-0.0510576,
MgDy2Pb2,0.0,-0.0510575,
Nb2LaIr2,0.0,-0.051057200000000004,
MnHo6Tl2,0.0,-0.051057000000000005,
Mo2HfRe,0.0,-0.051055500000000004,
Tc2HfW,0.0,-0.0510552,
NaRhTl3,0.0,-0.051055,
LiLuTl2,0.0,-0.0510548,
Se2AuTl2,0.0,-0.051054,
Ge2ErIr3,0.0,-0.0510529,
In5Ir2Th,0.0,-0.051051099999999995,
Sn2CsTl2,0.0,-0.0510479,
N4U3,0.0,-0.0510439,
SnPrPt,0.0,-0.0510423,
AlErPt2,0.0,-0.051042000000000004,
CdHoTl,0.0,-0.051040999999999996,
ZnGd2Os,0.0,-0.0510409,
TbLu,0.0,-0.0510406,
Sr2Au2Hg,0.0,-0.0510369,
SnDy2Au,0.0,-0.051035899999999995,
BZn2Pt6,0.0,-0.0510355,
GeSm2Ir2,0.0,-0.0510341,
GePmAu2,0.0,-0.0510339,
CaLuHg2,0.0,-0.0510325,
SiHo2Pt2,0.0,-0.051032400000000006,
RhSn2Nd3Tl3,0.0,-0.051031799999999995,
Sn3Er3Pt2,0.0,-0.0510283,
HTePu,0.0,-0.0510279,
SiPt2,0.0,-0.0510279,
Zr2ReAu,0.0,-0.051026800000000004,
AlEr2Os2,0.0,-0.0510256,
FeAsTa4,0.0,-0.0510252,
PdHo2Au,0.0,-0.051024900000000005,
RhHoHg,0.0,-0.0510235,
CoAs2Th2,0.0,-0.0510222,
SnPrIr,0.0,-0.0510219,
CdPr3Ir2,0.0,-0.051021000000000004,
PBr2Pa2,0.0,-0.0510203,
GaDy2Au2,0.0,-0.05102,
PEu3Bi,0.0,-0.0510195,
Sn3Er3Ir2,0.0,-0.0510192,
FeHo6Tl2,0.0,-0.051017,
Co2Dy3Pb3,0.0,-0.0510146,
In2LaPt2,0.0,-0.0510142,
In2LaIr2,0.0,-0.0510137,
ScAgBi2,0.0,-0.0510125,
Ag2AuTl,0.0,-0.0510117,
Si2IrPu,0.0,-0.0510109,
Pd2PtHg,0.0,-0.0510107,
NiTb6Bi2,0.0,-0.051007399999999994,
SbLaAu,0.0,-0.0510056,
NiDy6Pb2,0.0,-0.0510042,
RuNd6Bi2,0.0,-0.0510042,
CoHo6Tl2,0.0,-0.0510027,
GePrAu2,0.0,-0.0510025,
In2SmAc,0.0,-0.051001899999999996,
SnLaPt,0.0,-0.051000300000000005,
Sn4Ir2Au,0.0,-0.0510002,
SiRe2,0.0,-0.05100010000000001,
ZnDy2Os2,0.0,-0.050998800000000004,
ZnHoAu2,0.0,-0.0509972,
SnLaIr,0.0,-0.0509952,
RhNd6Bi2,0.0,-0.0509933,
SbPrAu,0.0,-0.0509931,
ScCeOs2,0.0,-0.050992800000000005,
In3Pr2Tl3,0.0,-0.0509924,
AlSn2Hf6,0.0,-0.0509918,
NaTlPb,0.0,-0.0509912,
YGd3,0.0,-0.050991,
CdSbHg2,0.0,-0.050987000000000005,
In5Pt2Th,0.0,-0.0509858,
Nd3Ir,0.0,-0.0509835,
Nb2LaOs2,0.0,-0.050982999999999994,
ILaAu,0.0,-0.0509829,
BrITl2,1.4429,-0.0509822,
NiAs2Ta6,0.0,-0.0509814,
Ge2TmPt3,0.0,-0.0509813,
CdDy2Pb,0.0,-0.050981200000000004,
AsBaPt2,0.0,-0.0509805,
Si2OsPu,0.0,-0.050979500000000004,
Ru5Ir4,0.0,-0.050979199999999995,
Rb2Hg2Pb,0.0,-0.0509784,
Ag5Pb4,0.0,-0.0509782,
GeLaAu2,0.0,-0.0509761,
Rh2LuBi,0.0,-0.0509755,
Zn2AuNp,0.0,-0.050975099999999995,
CdLa3Ir2,0.0,-0.0509714,
ClTeBi2,0.0,-0.0509697,
CaTmAu2,0.0,-0.050967900000000003,
In2CeAc,0.0,-0.0509639,
Ge2Au2Bi,0.0,-0.0509629,
As2Au2Pb,0.0,-0.0509628,
CuTb2Pt2,0.0,-0.0509623,
N2Er7Pb3,0.0,-0.050961599999999996,
OTl2,0.3403,-0.050960500000000006,
SnTbHg,0.0,-0.050956800000000003,
Nd3Pt,0.0,-0.0509565,
In2PrPt2,0.0,-0.0509559,
SnSmAu,0.1352,-0.050953899999999996,
In3U,0.0,-0.0509529,
Si2HoRe4,0.0,-0.0509525,
Te3Pt2,0.0,-0.0509523,
RhSn2Pr3Tl3,0.0,-0.0509516,
Tc5Pt4,0.0,-0.05095,
SeInTh,0.0,-0.0509485,
Ru2Lu2Tl,0.0,-0.0509476,
CaBaPb2,0.0,-0.0509463,
Pr3Tl,0.0,-0.050945700000000003,
MoTa,0.0,-0.0509446,
GaHfOs,0.0,-0.0509444,
Ti3Pt5,0.0,-0.0509434,
InHo2Au,0.0,-0.050943300000000004,
SbTe2Pt2,0.0,-0.050942,
NiHo6Tl2,0.0,-0.0509402,
LiGeAc2,0.0,-0.050938899999999995,
InBa2Au2,0.0,-0.0509386,
Ba2Tl,0.0,-0.050938000000000004,
ZnTaIr,0.0,-0.0509337,
Pd2AgBi2,0.0,-0.0509334,
LiIrBi,0.0,-0.0509326,
N2Tm7Tl3,0.0,-0.050932000000000005,
CuTePb2,0.0,-0.050932000000000005,
SnLu3,0.0,-0.050930300000000005,
GeSm2Pt2,0.0,-0.050929499999999996,
Sn4Pt2Au,0.0,-0.0509287,
CdHoPt,0.0,-0.0509272,
RhSn2La3Tl3,0.0,-0.050927,
NEu3Bi,0.0,-0.0509253,
NiLaOs2,0.0,-0.0509246,
GaRuPa,0.0,-0.050924300000000006,
SrBaAu2,0.0,-0.0509238,
AgInAu2,0.0,-0.050923,
PdDy2Ir,0.0,-0.0509221,
GaHfPt,0.0,-0.050920499999999994,
NiAs2Th2,0.0,-0.05092,
PdDy2Pt,0.0,-0.0509191,
CuDy3Ir2,0.0,-0.050918,
Ag2SmTh,0.0,-0.0509156,
AgHo2Tl,0.0,-0.0509146,
AgDyTl,0.0,-0.0509142,
AgTmHg,0.0,-0.0509135,
Pd3U,0.0,-0.0509133,
TeCs2Au2,1.1287,-0.050911,
Ga2LuIr3,0.0,-0.050909300000000005,
Te3Tm4Bi,0.0,-0.0509082,
Al2Au2Th,0.0,-0.050907600000000004,
InDy2Tl,0.0,-0.0509054,
NiSnPa,0.0,-0.050905299999999994,
SiDyPt2,0.0,-0.0509029,
SbLa2Pb,0.0,-0.050898000000000006,
AgNdPb,0.0,-0.0508977,
Pd2AuHg,0.0,-0.0508964,
BInIr3,0.0,-0.0508945,
PdDy2Tl,0.0,-0.0508925,
CuDy3Pt2,0.0,-0.0508911,
Zr2OsHg,0.0,-0.050890700000000004,
As2RuHf6,0.0,-0.0508906,
PBaPb2,0.0,-0.050890200000000003,
Sc3Ir2Tl3,0.0,-0.0508874,
GeHfAu,0.0,-0.0508872,
AgHo2Ir,0.0,-0.050885599999999996,
RbSbTl2,0.0,-0.0508852,
RbTe2Au3,0.8955,-0.0508836,
Sc3Tl5,0.0,-0.0508835,
Tc2InPa,0.0,-0.0508827,
Sc3Pt2Tl3,0.0,-0.0508817,
InTe7Bi4,0.0,-0.050881,
RuRhTa2,0.0,-0.0508799,
NiTaAu,0.0,-0.0508793,
CuHf3,0.0,-0.050878,
RhTe2Tl2,0.0,-0.0508759,
PdNd6Bi2,0.0,-0.050874,
RhSm6Pb2,0.0,-0.050872,
ZnIn2Hf6,0.0,-0.0508715,
CaTbTl2,0.0,-0.050868899999999995,
SiTmAu2,0.0,-0.0508684,
NiBrTl3,0.0,-0.050865600000000004,
Cd2BaPb2,0.0,-0.050865099999999996,
FeITh,0.0,-0.0508646,
Pd2SnPa,0.0,-0.0508643,
RhSmTl,0.0,-0.050861699999999996,
Co3Ir5,0.0,-0.0508616,
OIU,0.0,-0.0508598,
SiRhNp,0.0,-0.050859699999999994,
MnITh,0.0,-0.0508594,
SbErHf,0.0,-0.0508583,
SnCeAu,0.0,-0.0508582,
CuTb6Bi2,0.0,-0.0508573,
Sn7Ir5,0.0,-0.050854300000000005,
BeBaAu3,0.0,-0.0508533,
Mo5Pt4,0.0,-0.0508532,
MgGaAc2,0.0,-0.0508512,
As2RhHf6,0.0,-0.0508486,
CoSbTh,0.6052,-0.0508476,
ZnHo2Au2,0.0,-0.0508469,
Si2PtPu,0.0,-0.050846800000000004,
MoRhTa2,0.0,-0.050844900000000005,
PCl2Pu2,0.0,-0.050842599999999995,
As2Pt2Tl,0.0,-0.0508425,
Zr2IrHg,0.0,-0.0508411,
TiTb6Bi2,0.0,-0.0508384,
AgHo2Pt,0.0,-0.0508375,
LiSrAu4,0.0,-0.050837200000000006,
BrTeTl2,0.0,-0.0508345,
Pd4Ba3Pb4,0.0,-0.0508338,
AsPdTh,0.0,-0.050831299999999996,
Nd3Os,0.0,-0.0508306,
MgTm2Os2,0.0,-0.0508306,
AgPt,0.0,-0.050826500000000004,
Ge2HoIr3,0.0,-0.050825699999999994,
RuPr6Bi2,0.0,-0.050823900000000005,
Ga2Pt2Bi,0.0,-0.0508235,
Rh2InPa,0.0,-0.0508232,
Ag3Pu,0.0,-0.050823099999999996,
FeGeTa4,0.0,-0.0508227,
DyTm3,0.0,-0.0508204,
AgSn2Pb2,0.0,-0.0508184,
NiYBi2,0.0,-0.0508175,
RhPr6Bi2,0.0,-0.0508174,
CdHoIr,0.0,-0.050817,
AgPrPb,0.0,-0.050816400000000005,
Cu2PbTh,0.0,-0.050816,
MnGeTa4,0.0,-0.0508159,
AlOs2,0.0,-0.0508153,
Zn2InTh2,0.0,-0.0508125,
ZnAu2,0.0,-0.0508118,
SrLa2Pt2,0.0,-0.050811,
PdHoHg,0.0,-0.0508107,
NiLuBi,0.1113,-0.05081,
Sn2Tm2Pb,0.0,-0.0508099,
Zr2HgTl,0.0,-0.0508068,
Al2In3Th3,0.0,-0.0508059,
CdErAu,0.0,-0.0508055,
AlZnAc2,0.0,-0.050805100000000006,
As2Pu,0.0,-0.050804699999999994,
La3Tl,0.0,-0.050804499999999995,
K2Pt3Pb,0.0,-0.0508038,
RbSb3Hg4,0.0,-0.0508024,
YAgPt2,0.0,-0.0508004,
BErIr2,0.0,-0.0508002,
In2NdAc,0.0,-0.0507997,
Ga3Ir5,0.0,-0.050799500000000004,
AlEuAu2,0.0,-0.0507958,
Pd2CdBi2,0.0,-0.050795299999999995,
AgLaPb,0.0,-0.0507897,
InHg,0.0,-0.050789299999999996,
GaSnPb2,0.0,-0.0507889,
YRhAu2,0.0,-0.050788400000000004,
Si2DyRe4,0.0,-0.0507854,
GaRhPa,0.0,-0.0507842,
Sn2EuPb,0.0,-0.0507837,
CRe2,0.0,-0.0507837,
ZnTb2Ir2,0.0,-0.050782400000000005,
Rh6BaBi4,0.0,-0.050782400000000005,
P2RhTh2,0.0,-0.0507808,
Te2TmTl,0.2483,-0.0507796,
YNdBi,0.0,-0.0507761,
YInAu2,0.0,-0.050774700000000006,
AsPmHg2,0.0,-0.050770699999999995,
GaTe2Pu,0.0,-0.0507704,
CrITh,0.0,-0.0507697,
Ga2IrTh,0.0,-0.050768,
ClTeU,0.0,-0.0507679,
CuHo6Tl2,0.0,-0.050767400000000004,
Al3Sn2AuTh3,0.0,-0.0507667,
I2Dy2Bi,0.0,-0.050766,
InHoHg,0.0,-0.0507648,
SiWOs,0.0,-0.050763300000000004,
Cu2Tm3Tl3,0.0,-0.0507615,
CoGeTa4,0.0,-0.050760599999999996,
Pr3Ir,0.0,-0.050759900000000004,
ScLaPt2,0.0,-0.0507592,
Pd2GdPb,0.0,-0.050756100000000005,
NiGdPb,0.0,-0.0507554,
AsEuPb,0.0,-0.050752200000000004,
YTl,0.0,-0.0507485,
Al3Ge2IrNp3,0.0,-0.0507475,
NLu3Tl,0.0,-0.0507473,
TiSnPa,0.0,-0.0507472,
RuCeOs,0.0,-0.0507466,
NiHg2,0.0,-0.050746200000000005,
AlHo2Ir2,0.0,-0.0507456,
Cd2ErAc,0.0,-0.050743699999999996,
Pr3Pt,0.0,-0.0507431,
BErPt2,0.0,-0.0507427,
Zr2InBi2,0.0,-0.0507416,
SnTmHf,0.0,-0.0507408,
Al5SnTh5,0.0,-0.0507408,
YPd2Au3,0.0,-0.0507404,
In2PrAc,0.0,-0.05074,
PdDy2Os,0.0,-0.0507397,
RhCdAu2,0.0,-0.0507391,
PdTe2Tl2,0.0,-0.0507385,
RuLa6Bi2,0.0,-0.0507383,
ZnGd2Au,0.0,-0.0507379,
CdSmPb,0.0,-0.050737000000000004,
RhPdHg2,0.0,-0.0507339,
Ge2ErPt3,0.0,-0.050733400000000005,
AgHo2Os,0.0,-0.050733,
RhTa,0.0,-0.0507315,
CdInAu2,0.0,-0.0507308,
RhLa6Bi2,0.0,-0.0507289,
Rh2Ba3Tl3,0.0,-0.0507258,
Al3Ge2OsNp3,0.0,-0.0507243,
GeRuTh,0.0,-0.0507243,
AgTb2Pb,0.0,-0.0507231,
HIPu,0.0,-0.0507227,
Rh2SnTh,0.0,-0.050721499999999996,
Ag2HgTl,0.0,-0.0507213,
Ga2AuPb2,0.0,-0.0507211,
MgTmTl2,0.0,-0.0507211,
B2Ir3Pb,0.0,-0.050720799999999996,
ZnTb2Pt2,0.0,-0.0507185,
AgCdPt2,0.0,-0.0507158,
CuDy3Os2,0.0,-0.050714100000000005,
Al3IrU2,0.0,-0.050713,
ZnDy6Pb2,0.0,-0.0507129,
ZrAu,0.0,-0.0507123,
Rb2Au2Tl,0.0,-0.050712099999999996,
Er3Tm,0.0,-0.0507119,
AlHoPt2,0.0,-0.0507115,
AsAgPb2,0.0,-0.050709699999999996,
LiScIr4,0.0,-0.0507094,
Zr4Ru2Tl5,0.0,-0.0507087,
SeTeTl2,0.0,-0.050708500000000004,
In2LaAc,0.0,-0.0507083,
SbCsPb,0.0,-0.0507077,
PdAgAu2,0.0,-0.0507064,
YRu2U,0.0,-0.0507055,
SiDy2Ir2,0.0,-0.0507055,
PdPr6Bi2,0.0,-0.050702599999999994,
ZnTb6Bi2,0.0,-0.0506997,
Te2Er6Ir,0.0,-0.0506993,
CdBa2Pt2,0.0,-0.050699,
CdTmHg,0.0,-0.0506987,
ZnDyAu2,0.0,-0.0506977,
Zn2IrU,0.0,-0.0506976,
BaLaHg,0.0,-0.0506963,
ZnDy3Ir2,0.0,-0.0506959,
MgCePb2,0.0,-0.0506956,
ZnTaPt,0.0,-0.0506952,
SrLa2Ir2,0.0,-0.050694899999999994,
AlPdPu,0.0,-0.0506948,
ZnHo3Au2,0.0,-0.0506946,
Ce3Hg,0.0,-0.0506942,
LiGdAu2,0.0,-0.050693600000000005,
SMoBi2,0.0,-0.0506926,
S2TlNp,0.0,-0.0506922,
Sb2IPt2,0.0,-0.0506919,
Rh2HfAu,0.0,-0.0506918,
N2SeU2,0.0,-0.0506902,
PdCdAu2,0.0,-0.0506883,
SrIn2Pt3,0.0,-0.050687399999999994,
YPrBi,0.0,-0.050686999999999996,
CaRhBi2,0.0,-0.0506867,
Te2LuAu,0.1421,-0.0506847,
ZnLaTl2,0.0,-0.0506845,
Sm3Hg,0.0,-0.0506833,
Ga2PtTh,0.0,-0.0506824,
MnSm2Ir2,0.0,-0.0506806,
CoITh,0.0185,-0.0506779,
PPt2,0.0,-0.050677599999999996,
CdHo2Tl,0.0,-0.0506775,
TeHf,0.0,-0.0506764,
LiEuTl2,0.0,-0.0506756,
Ni4Pt7,0.0,-0.0506708,
RbSb2Bi2,0.0,-0.0506678,
YLa2Hg2,0.0,-0.0506664,
ZnDy3Pt2,0.0,-0.0506657,
Zr2PtHg,0.0,-0.0506655,
Sn2BaAu2,0.0,-0.0506654,
Sc2Pt2Bi,0.0,-0.0506644,
MgTb2Pb2,0.0,-0.0506637,
CdPt,0.0,-0.0506618,
CdDyTl,0.0,-0.0506608,
As2PdHf6,0.0,-0.0506605,
Al3Ge2PtNp3,0.0,-0.0506575,
Sn2Sb2Np,0.0,-0.0506573,
Pd2HfPt,0.0,-0.050656799999999995,
Ni2GePa2,0.0,-0.0506561,
ScHg2,0.0,-0.0506546,
Cd2AuTl,0.0,-0.0506542,
PPdNp,0.0,-0.0506529,
PdHg,0.0,-0.0506522,
LiLuPt2,0.0,-0.0506521,
Pd2LuBi,0.0,-0.0506515,
SnNdAu,0.1645,-0.050650799999999996,
MgLuAu2,0.0,-0.0506505,
Al3PtU2,0.0,-0.0506498,
LiHfHg2,0.0,-0.050649700000000006,
MnTa2,0.0,-0.0506496,
Cs3PtAu,0.2133,-0.0506485,
Pd2Ba3Tl3,0.0,-0.0506464,
Te2Er6Os,0.0,-0.0506449,
Y2HgPb,0.0,-0.0506442,
NCl2Pu2,0.0,-0.0506432,
MgGdHg2,0.0,-0.050643099999999996,
Sb2Er6Ir,0.0,-0.0506427,
CaEuHg2,0.0,-0.0506423,
PdSmTl,0.0,-0.050642200000000005,
YLaBi,0.0,-0.0506419,
InTbAu,0.0,-0.0506417,
Nb2TaW,0.0,-0.0506409,
RuDy2Au,0.0,-0.050640700000000004,
Si2TbRe4,0.0,-0.05064,
RhDy2Au,0.0,-0.0506391,
GeNd2Ir2,0.0,-0.0506377,
Ge2DyIr3,0.0,-0.0506372,
Cd2SnBi2,0.0,-0.0506355,
Co2Tb3Pb3,0.0,-0.0506348,
Ag2CdPu,0.0,-0.0506348,
Cu2Dy3Pb3,0.0,-0.0506343,
SiTbPt2,0.0,-0.0506338,
I2Ho2Pb,0.0,-0.0506332,
ZrAgAu2,0.0,-0.050633000000000004,
Pd2Lu2Tl,0.0,-0.0506329,
Ni2LuIr3,0.0,-0.0506314,
GaITh,0.0,-0.050630800000000004,
SrRh2Ir3,0.0,-0.0506304,
GeRhTh,0.0,-0.0506294,
FeInPa,0.0,-0.0506294,
RhDyHg,0.0,-0.0506258,
Zr4Rh2Tl5,0.0,-0.0506239,
NLu3Pt,0.0,-0.0506233,
GaSmAu2,0.0,-0.0506223,
AlHo2Pt2,0.0,-0.0506219,
AlReOs,0.0,-0.050620899999999996,
NbTcTa2,0.0,-0.05062,
Sn6TmIr4,0.0,-0.0506184,
SnDy2Hg,0.0,-0.0506171,
GeSePu,0.0,-0.0506169,
ZnCePt2,0.0,-0.0506162,
AgEr2Hg,0.0,-0.050616100000000004,
I3AuTl,0.0,-0.0506146,
YCdPt2,0.0,-0.0506142,
SiAgPu,0.0,-0.050609900000000006,
CoLu2Ir,0.0,-0.0506091,
PdLa6Bi2,0.0,-0.050609,
Rb2Pt3,0.0,-0.050607799999999994,
Y2IrTl,0.0,-0.0506069,
Mo2HfW,0.0,-0.0506063,
NiSbTh,0.0426,-0.0506061,
NbRuTa2,0.0,-0.0506055,
CuInU,0.0,-0.0506039,
RbTe2U,0.0,-0.0506029,
ZnSmPt2,0.0,-0.050602400000000006,
In2BaTl2,0.0,-0.050602400000000006,
RhLu3,0.0,-0.0506016,
AgBaBi,0.0,-0.0506015,
AsHfTa,0.0,-0.0506013,
Co2Er3Tl3,0.0,-0.0506011,
Pr3Os,0.0,-0.050600700000000005,
SrSn2Bi2,0.0,-0.0506002,
GaTb2Au2,0.0,-0.0505997,
CdSnHg2,0.0,-0.0505986,
BCa2Pt6,0.0,-0.050596600000000005,
GeBaPt2,0.0,-0.0505964,
CLu2Bi,0.0,-0.050595999999999995,
CaErAu2,0.0,-0.050595999999999995,
Ru5Pt4,0.0,-0.0505957,
Sb2Er6Pt,0.0,-0.0505953,
Y2PtTl,0.0,-0.050595100000000004,
ZnHo6Tl2,0.0,-0.050591500000000005,
Sb2Er6Os,0.0,-0.0505909,
PdCeTl,0.0,-0.0505903,
NaHgBi,0.0,-0.05059,
Zr2ReHg,0.0,-0.0505899,
In3Tm3Pt2,0.0,-0.0505892,
Sb2BaHg2,0.0,-0.0505881,
Ga3Pt5,0.0,-0.0505873,
RhTb2Ir,0.0,-0.0505863,
SeTe2Bi2,0.0071,-0.0505828,
CaHgTl,0.0,-0.050581600000000004,
In2CeAu2,0.0,-0.050581299999999996,
CIU,0.0,-0.0505809,
Sn4PtAu2,0.0,-0.050580599999999996,
AgTbTl,0.0,-0.050577,
FeSm2Ir2,0.0,-0.0505752,
Ag2PtAu,0.0,-0.0505747,
Ho3Lu,0.0,-0.0505744,
RuTb2Ir,0.0,-0.050574,