formula,bg,formation_energy,mp-id
Si2DyOs,0.0,-0.0357241,
B2CLaIr2,0.0,-0.0357233,
Cd3Er,0.0,-0.0357227,
Co2Te3Ta,0.0,-0.0357226,
ZnTcTb2,0.0,-0.035722000000000004,
NaIn2Ir,0.0,-0.0357213,
CoBaLa2,0.0,-0.0357212,
ZnRu2Pr3,0.0,-0.0357208,
CCdEr2,0.0,-0.0357192,
CuIn3Dy2,0.0,-0.0357192,
PdIn5Tb,0.0,-0.0357188,
Co2GaHf2,0.0,-0.0357188,
Si2CuNp,0.0,-0.035717799999999994,
Rh4In4Ba3,0.0,-0.0357175,
GeInPm2,0.0,-0.035717,
Al2CoDy6,0.0,-0.0357168,
AgSb3,0.0,-0.035716200000000004,
FeCo2Ac,0.0,-0.0357156,
Sr2I6Ba,3.7439,-0.0357156,
PSrIr,0.0,-0.0357152,
LiPdCdPb,0.0,-0.0357148,
RhSn4,0.0,-0.0357144,
Y6Te2Ir,0.0,-0.0357141,
HPd3Pb,0.0,-0.0357138,
Ag3Dy,0.0,-0.0357135,
CrCoOs,0.0,-0.0357128,
Ni3Rh2Th,0.0,-0.0357125,
PdCd2Tb,0.0,-0.0357122,
Al2CdLu3,0.0,-0.0357117,
AlRh2Hf,0.0,-0.035711599999999996,
ClTe2La2,0.0,-0.0357113,
AgTe2I,0.0,-0.035710500000000006,
Si2FeU,0.0,-0.0357098,
Ga3Ge2Tm3Pt,0.0,-0.0357096,
Ga2CsPt,0.0,-0.0357089,
NiSnEu,0.0,-0.0357088,
Ag4Tm,0.0,-0.0357088,
YRh2Pm,0.0,-0.0357086,
Cu2In3Er3,0.0,-0.035708500000000004,
BAl2NdOs2,0.0,-0.035707,
Ge2SnEr2,0.0,-0.0357067,
Ge3TbOs,0.0,-0.0357055,
SeBr2Lu2,0.0,-0.0357054,
Al2EuOs,0.0,-0.035704700000000006,
Al3Sn2Ho3Ir,0.0,-0.0357033,
Se2InTa,0.0,-0.03570280000000001,
SiRh2Dy2,0.0,-0.0357025,
CuSn3Eu,0.0,-0.0357025,
SiPd2Ho2,0.0,-0.0357021,
CaYHg,0.0,-0.035701000000000004,
CaIn5Os,0.0,-0.035701000000000004,
Rh4InLa,0.0,-0.0357008,
AlRu2Ho2,0.0,-0.035700699999999995,
PdIn8Pr2,0.0,-0.035700499999999996,
Se2PdAu,0.0,-0.0357001,
ZnGaLu2,0.0,-0.0356995,
AsDy,0.0,-0.0356992,
InTe,0.3255,-0.035699100000000004,
Cr2MoRe,0.0,-0.0356978,
Al3DyAu2,0.0,-0.0356978,
ZnSrAu,0.0,-0.0356975,
Co3Hf2,0.0,-0.0356963,
GeRh2Nd2,0.0,-0.0356946,
Pd3InBa2,0.0,-0.0356946,
Fe2As2Pa,0.0,-0.0356946,
Ni2In5Tb4,0.0,-0.0356946,
Se2RbBi,1.0473,-0.0356933,
Li2SnHg2,0.0,-0.0356933,
TcInSb2,0.0,-0.0356928,
Y6Te2Pt,0.0,-0.0356923,
Pd2CdPm,0.0,-0.0356919,
NaCu2Sb2U,0.0,-0.0356919,
NFSn2La6,0.0,-0.0356917,
ZrSb2,0.0,-0.0356912,
CuPd2Pr3,0.0,-0.0356912,
CuSbI6Cs2,0.0,-0.0356905,
CrSe4Pu,0.0,-0.035689700000000005,
Rb2In2Au,0.0,-0.0356886,
Cu2AsAc,0.0,-0.035687800000000006,
Ga3Sm2Ir,0.0,-0.0356876,
Al3LaIr2,0.0,-0.035687199999999995,
GeTeDy,0.0,-0.0356864,
Ag8Pt,0.0,-0.035685499999999995,
ZrI2,0.2013,-0.0356848,
Co3RuHf2,0.0,-0.035684600000000004,
ZnCdHf,0.0,-0.035683799999999995,
FeGa2Hf2,0.0,-0.0356831,
Al3PrPt2,0.0,-0.0356829,
S2SmTl,1.2896,-0.0356826,
OInNd3,0.0,-0.035682000000000005,
CuAs2La6,0.0,-0.0356816,
OILu,1.8336,-0.035681199999999996,
NbSnSb,0.0,-0.0356806,
Rh5Pr,0.0,-0.0356793,
NbRuSb,0.3061,-0.0356777,
LiP2NdPt2,0.0,-0.0356772,
MnRh2Sm2,0.0,-0.035676900000000004,
B2MoHf2,0.0,-0.0356768,
CaCd2Ir,0.0,-0.0356763,
CrCoIr,0.0,-0.035676099999999995,
LiAs2YAu2,0.0,-0.0356753,
CSnLa3,0.0,-0.0356752,
GePdTm,0.0,-0.0356751,
PPd5Tl,0.0,-0.0356751,
CZr2Hg,0.0,-0.0356749,
CoSn3Tm,0.0,-0.0356738,
NGaHo3,0.0,-0.0356735,
SiSe3Er4,0.0,-0.0356733,
Cd2SnBa2,0.0,-0.035671999999999995,
Rh7Tb,0.0,-0.0356716,
ZnY2Os,0.0,-0.035671,
Ag3Sb2Cs3,1.2286,-0.035670299999999995,
SiI2Ce2,0.0,-0.035670299999999995,
AsIBa2,1.0493,-0.0356702,
Ag2Pr,0.0,-0.0356691,
Ca2ZnPt2,0.0,-0.035669,
MnGaPt,0.0,-0.0356689,
Rh5La,0.0,-0.035668399999999996,
Cu2CdEr3,0.0,-0.0356662,
GePd2Sm2,0.0,-0.0356655,
MgSn2Ho2,0.0,-0.035664,
Al2NiDy6,0.0,-0.0356635,
As2PdHo2,0.0,-0.035663400000000005,
B8Ru6Ta7,0.0,-0.035663200000000006,
Mn4WIr,0.0,-0.0356631,
CoInLu,0.0,-0.03566299999999999,
As2Ag2Pb,0.0,-0.0356618,
Pd7Eu,0.0,-0.0356608,
V2RuRe,0.0,-0.0356608,
GeAsTa,0.0,-0.0356605,
Ti2Pd2Bi,0.0,-0.0356603,
Zn2TmHf,0.0,-0.0356599,
PdI2,0.3911,-0.0356599,
SiPd5Tl,0.0,-0.0356584,
Pd7Tm,0.0,-0.0356583,
HTcRu2Pt,0.0,-0.0356582,
CuSb2Er,0.0,-0.035658,
BAl2PrOs2,0.0,-0.0356579,
CdSbCs,0.0931,-0.0356578,
Y6Sb2Ir,0.0,-0.0356575,
MgYTl,0.0,-0.035655900000000004,
GeEr,0.0,-0.035655,
Rh2CdBa2,0.0,-0.0356547,
S2CeTl,0.0,-0.0356541,
Ga5AuTh,0.0,-0.0356537,
Pd2In3Sm,0.0,-0.0356535,
FeCdLa3,0.0,-0.035653399999999995,
TiFeRuIr,0.0,-0.035653399999999995,
Zn3YPt2,0.0,-0.035652500000000004,
NiSb2Ho,0.0,-0.0356521,
ZrIn2La,0.0,-0.0356521,
BeRu2Ta,0.0,-0.0356517,
Co2CdHo3,0.0,-0.035651,
CoSn2Tm,0.0,-0.0356506,
Cr4WRe,0.0,-0.0356505,
HAlEuPb,0.0,-0.0356504,
CGeLu2,0.0,-0.035650100000000004,
Y6Te2Os,0.0,-0.035649900000000005,
Ca2GaAu2,0.0,-0.0356486,
Al2In3Lu3,0.0,-0.0356483,
Si2Pr2Hg,0.0,-0.035648000000000006,
SSbSm2,0.0,-0.035647399999999996,
BrSbBa2,0.7758,-0.0356472,
Cr2RhIr,0.0,-0.0356471,
CuLu,0.0,-0.0356467,
Zn2CeAu,0.0,-0.0356464,
LiBr3Pu,0.0,-0.0356461,
Y6Sb2Pt,0.0,-0.0356453,
Pd2In3Ce,0.0,-0.035645,
ZnPdTb2,0.0,-0.035643999999999995,
O4IErBi2,1.4185,-0.035643999999999995,
CaSm3,0.0,-0.035643799999999996,
SiRu3Dy2,0.0,-0.0356437,
Al3LaPt2,0.0,-0.0356435,
CrGaRuIr,0.0,-0.0356431,
Al2TmIr,0.0,-0.0356426,
Rh3Pd2Sm,0.0,-0.035642200000000006,
Al3Sn2Ho3Os,0.0,-0.035641599999999996,
PRhGd,0.0,-0.035640099999999994,
SeISm,2.1253,-0.03564,
Ge3TbPt,0.0,-0.0356398,
Fe4RePt,0.0,-0.0356398,
MnGaRuIr,0.0,-0.0356396,
Al2PdCe2Pt,0.0,-0.0356392,
ZnPd2Nd3,0.0,-0.0356389,
ORbI4Ta,0.7642,-0.035638199999999995,
Si2DyPt,0.0,-0.035638199999999995,
RuSn2,0.0,-0.0356381,
CDy2,0.0,-0.035636299999999996,
Pd2Ba,0.0,-0.0356361,
S3Cs2Pa,0.0569,-0.0356361,
YAg2Er,0.0,-0.035636,
B5Ho2Os3,0.0,-0.0356353,
BAl2LaOs2,0.0,-0.0356353,
ZnRu2La3,0.0,-0.0356353,
NBrEu2,0.0,-0.0356352,
Rb2I6Tb,0.0,-0.035634900000000004,
Ca3Sb4Hg2,0.0,-0.035634,
RhSn2,0.0,-0.0356337,
Mn4WRe,0.0,-0.0356331,
CMgHf2,0.0,-0.0356329,
KGa2Hg2,0.0,-0.0356329,
CaZn2Au2,0.0,-0.0356318,
CoSbEr,0.0,-0.0356315,
AlHf,0.0,-0.0356306,
CAsDy3,0.0,-0.0356293,
LiP2PrPt2,0.0,-0.0356292,
LiK2Bi2,0.0,-0.035628900000000005,
CuTe2Ho,0.0,-0.035628,
SrSnTb,0.0,-0.0356276,
SrSbCe,0.0,-0.0356275,
Se3InSm4,0.0,-0.035627200000000005,
Sc6IrBi2,0.0,-0.035627000000000006,
Co2Sn4Pt,0.0,-0.0356268,
CoIn8Tm2,0.0,-0.0356262,
LiRuTm2,0.0,-0.0356257,
ZnInTb2,0.0,-0.0356254,
As2Se6Pb3,0.4252,-0.035623800000000004,
Rb2AgAu,0.0,-0.0356227,
LiP2LaPt2,0.0,-0.0356215,
Al3Sn2Ho3Pt,0.0,-0.035621400000000004,
Ti2RuOs,0.0,-0.0356209,
Pd6Sb4Ba,0.0,-0.0356207,
GaTe2Dy,0.0,-0.0356205,
MgZrAu,0.0,-0.0356201,
KAg3Te8La2,0.0,-0.0356192,
Ag2La,0.0,-0.035619,
MnSnTe4Cs2,0.3831,-0.035619,
Se3SnNd4,0.0,-0.0356186,
Cu2Te4W,0.5319,-0.0356179,
YAg2La2,0.0,-0.0356171,
Cu2Te2Tl,0.0,-0.035616999999999996,
GeSe3Dy4,0.0,-0.0356165,
GaCdTb2,0.0,-0.0356162,
BCCoNp,0.0,-0.0356162,
Zr2Te3,0.0,-0.035615900000000006,
Al3Rh2Hf3,0.0,-0.035615499999999994,
Co2As2Pa,0.0,-0.035615,
As2AgPt,0.0,-0.035615,
NiSbEr,0.2825,-0.0356149,
MnSb2Tb,0.0,-0.0356133,
HRu3W,0.0,-0.0356131,
Fe2TcRe,0.0,-0.0356123,
Ti2In2Bi,0.0,-0.0356109,
SeSnTb,0.0,-0.0356102,
ZnSn2Lu,0.0,-0.0356091,
CoI6Cs2,0.0,-0.0356088,
B2CNdPt2,0.0,-0.0356083,
CoIEr,0.0,-0.035607599999999996,
BeTa,0.0,-0.035607599999999996,
AgCd2Ho,0.0,-0.0356074,
Rb3Bi,0.0,-0.0356074,
NAlTm3,0.0,-0.0356072,
Rb3Te4Ta,1.2969,-0.0356071,
Si2CoU,0.0,-0.035606900000000004,
V2MoRe,0.0,-0.0356067,
CRu2Sn2Tb2,0.0,-0.0356065,
GeRuEr,0.0,-0.035606200000000005,
Co2PdDy3,0.0,-0.0356058,
Cd2Sb2Ba,0.0,-0.0356057,
CuPd2La3,0.0,-0.0356048,
Ti2TcIr,0.0,-0.0356044,
Co2In3Ho3,0.0,-0.0356039,
PY2Ir,0.0,-0.035603499999999996,
Sr3BaIr,0.0,-0.035603,
ScCuPb,0.0,-0.0356027,
LiRh2Tl,0.0,-0.0356025,
Cd7Tl,0.0,-0.035601799999999996,
CuPd2Tb2,0.0,-0.035601100000000004,
GaIEr,0.0,-0.0356002,
Zn3YIr2,0.0,-0.0355997,
FeRu3Ce2,0.0,-0.0355997,
Cr4WPt,0.0,-0.0355993,
OZr3Ir,0.0,-0.035598399999999995,
Fe4WOs,0.0,-0.0355978,
C2I5Nd4,0.0,-0.0355978,
O3BaU,0.0,-0.0355976,
Zn2NdAu,0.0,-0.0355973,
Y6Sb2Os,0.0,-0.0355971,
Al2TmPt,0.0,-0.0355963,
Pd3Sn2Ba,0.0,-0.0355961,
AsRhHo,0.0,-0.0355961,
NiAgTb2,0.0,-0.0355958,
CdIn2La,0.0,-0.0355957,
MgIn2Au,0.0,-0.0355956,
Se2YAu,0.282,-0.0355956,
Ca2I2Bi,0.0,-0.0355955,
KSe3Pt2,0.9052,-0.0355953,
Si2HoRe,0.0,-0.0355953,
Mg2CdHg2,0.0,-0.035594799999999996,
Ag8Au,0.0,-0.0355941,
Cl3TlPb,2.6786,-0.0355936,
LiP2TbAu2,0.0,-0.0355935,
Al3Ba2Ir2,0.0,-0.0355935,
SiRh3Dy2,0.0,-0.035592599999999995,
Pd2CdNd,0.0,-0.0355921,
PSrPt,0.0,-0.0355901,
FeSb2Dy,0.0,-0.035590000000000004,
LiRhTm2,0.0,-0.0355892,
O2FPbBi,2.0147,-0.035588,
YCd2Tm,0.0,-0.0355872,
Br2Y2Pb,0.0,-0.035587,
Zn2PmAu,0.0,-0.0355862,
Br3LaHg,2.4554,-0.035586,
RuIn5Sm,0.0,-0.035585700000000005,
Pd4Sn6Ba,0.0,-0.035585500000000006,
MgAgAu,0.0,-0.0355854,
Cr2RhOs,0.0,-0.035585099999999995,
GaCe2,0.0,-0.035584899999999996,
Cd2Sn2La,0.0,-0.0355843,
HTc3W,0.0,-0.0355842,
Sc6OsBi2,0.0,-0.035584000000000005,
Ge2RhSn3Sm3,0.0,-0.0355837,
S3BaPa,0.0,-0.0355833,
YPr,0.0,-0.035583,
Cu2SnTe4Hg,0.0,-0.0355821,
CoCdLa3,0.0,-0.0355821,
BrHo,0.0,-0.0355819,
H2CdPt2,0.0,-0.0355811,
Si2RhTbIr,0.0,-0.0355808,
RuIn5Ce,0.0,-0.0355803,
RhIn5Sm,0.0,-0.0355803,
Be2RhTa2,0.0,-0.0355801,
NbInTe2,0.0,-0.03558,
RhIn2Ba,0.0,-0.035579900000000005,
CdIn2Te4,0.7744,-0.035579599999999996,
H2AgPt2,0.0,-0.0355793,
AgIn2Te3I,0.4188,-0.035579,
RhIn5Ce,0.0,-0.0355789,
NiSn3Tm,0.0,-0.0355789,
Sc6PtBi2,0.0,-0.0355788,
Be2MoTa2,0.0,-0.035578200000000004,
Pd4CdDy,0.0,-0.03557780000000001,
Ti3CoOs2,0.0,-0.0355758,
P2CaOs2,0.0,-0.0355747,
Br2TeTb2,0.0,-0.0355746,
H2PdAu2,0.0,-0.035574100000000004,
NY2Tl,0.0,-0.0355737,
Pd2AgBa2,0.0,-0.0355733,
Si2La2Hg,0.0,-0.0355732,
ZnCd2Hg,0.0,-0.0355728,
Fe4WIr,0.0,-0.0355725,
MgIn2Tm2,0.0,-0.035572,
NiGePt,0.0,-0.0355719,
BNHoIr,0.0,-0.0355711,
YRh2Nd,0.0,-0.0355709,
S3GeLu4,0.0,-0.035570700000000004,
Ag2InSm,0.0,-0.0355706,
As7Re3,0.0,-0.035570300000000006,
CuSrHg,0.0,-0.03557,
GaRu2Ce2,0.0,-0.0355696,
HI2Dy2,0.0,-0.035568800000000005,
YRuLa,0.0,-0.0355672,
Br2SbTb2,0.0,-0.035566099999999996,
N2Er3,0.0,-0.035566099999999996,
P2CaIr2,0.4889,-0.0355654,
NiY2Hg,0.0,-0.0355649,
O2ErPt,0.0,-0.0355646,
Li3CeBi2,0.0,-0.0355642,
GeRh2Tm,0.0,-0.0355642,
AlCe3,0.0,-0.0355641,
NInPr3,0.0,-0.0355638,
ZnRh2Gd,0.0,-0.0355637,
NbPd2Te3,0.0,-0.0355634,
LiI3Gd,0.0,-0.0355632,
In4SbTe3,0.0,-0.035563000000000004,
O4TaU,0.0,-0.0355625,
GaSm2,0.0,-0.0355621,
GeRh2Pr2,0.0,-0.0355618,
Co2ITm2,0.0,-0.035561300000000004,
Ca2ZnIr2,0.0,-0.0355604,
AlHo2,0.0,-0.035559600000000004,
Li3SmBi2,0.0,-0.0355584,
CI2Sm2,0.2138,-0.0355583,
LiRu2W,0.0,-0.0355576,
GaInI6Cs2,0.0,-0.035557000000000005,
CaI4Dy,0.0,-0.0355567,
Ge2RuIn3Tb3,0.0,-0.035556199999999996,
NOIn2Pr6,0.0,-0.035555500000000004,
B2CPrPt2,0.0,-0.0355548,
FeRu2Sm2,0.0,-0.035554499999999996,
GaEu,0.0,-0.0355533,
NiBaLa2,0.0,-0.035552799999999996,
Ge2RhIn3Tb3,0.0,-0.0355527,
Se3SrTmAu,1.0266,-0.0355522,
NaCa2Pb2,0.0,-0.035551,
GeRu3Nd2,0.0,-0.0355503,
FeGa2Sm6,0.0,-0.0355502,
CoSnTm,0.0,-0.0355499,
SrCd4Hg,0.0,-0.035549700000000004,
Ag2CdDy,0.0,-0.0355496,
Br2SnDy2,0.0,-0.0355486,
Rh3Te2,0.0,-0.0355474,
Ga2Ge2Np,0.0,-0.0355474,
FeRh2Sm2,0.0,-0.0355473,
In3SbTe2,0.0,-0.0355473,
NiInLu,0.0,-0.0355471,
P2MnPa,0.0,-0.0355458,
In2Sn2Cs,0.0,-0.035545499999999994,
K2GePt2,0.0,-0.0355447,
NaSe2Ac,1.5809,-0.035544400000000004,
LiAgTl,0.0,-0.0355441,
H3AuTh,0.0,-0.035544,
Pd2InTe3,0.0,-0.0355424,
CoSb2Dy,0.0,-0.0355424,
Co2NiHf2,0.0,-0.0355421,
Ni2RuDy3,0.0,-0.035541800000000005,
NaRb2I6Bi,2.1235,-0.0355416,
Fe2MoRe,0.0,-0.0355409,
B2CLaPt2,0.0,-0.0355407,
BrRuHo,0.0,-0.0355404,
Cd5La3,0.0,-0.035540100000000005,
Co2GaAc,0.0,-0.03554,
Al5Ir2Th,0.0,-0.03554,
HRu3Pt,0.0,-0.03554,
Se2Pd2Ir,0.0,-0.0355397,
Al2RuCe6,0.0,-0.035539,
P2FePa,0.0,-0.035538600000000004,
MgZn2Pu,0.0,-0.035538400000000005,
OZr3Os,0.0,-0.0355381,
Pd2CdBa2,0.0,-0.035537599999999996,
GeRu2La2,0.0,-0.035537,
Al3TbAu2,0.0,-0.035536700000000004,
Ti2TcOs,0.0,-0.035536200000000004,
Sr3BaAu,0.0,-0.0355349,
N6Co2Th3,0.0,-0.035534300000000005,
LiInAu,0.0,-0.0355336,
Pd2In3Nd,0.0,-0.0355336,
TiGaRuIr,0.0,-0.0355336,
Cl2SnGd2,0.0,-0.0355329,
ZnGeEu2,0.0,-0.0355325,
FeGaIr,0.0,-0.0355323,
Si2TbIr,0.0,-0.0355315,
ScPd2Gd,0.0,-0.0355314,
AgIn2Te4,0.0,-0.0355313,
Ga2Ru4Dy3,0.0,-0.035530500000000007,
B2N3Tm3Ir2,0.0,-0.0355291,
Mn2NbPt,0.0,-0.035527500000000004,
MgRh2Er2,0.0,-0.0355274,
Pd4InSm,0.0,-0.0355261,
LiIn2Tl,0.0,-0.035526,
MnZn2Th,0.0,-0.035526,
C7Lu5Re2,0.0,-0.0355259,
AgSnTe2,0.0,-0.0355256,
Si2ErAu,0.0,-0.0355253,
PISm2,0.0,-0.0355252,
Y3Gd,0.0,-0.0355233,
Pd4Nd,0.0,-0.03552279999999999,
Cd2Sm,0.0,-0.035522399999999996,
GeRh2La2,0.0,-0.0355222,
Zn2PrAu,0.0,-0.035522,
ZnSbEu,0.0,-0.0355206,
AgCdBa2,0.0,-0.0355204,
LiSc2Tl2,0.0,-0.0355201,
GeRh3Nd2,0.0,-0.03552,
Pd2CdPr,0.0,-0.03552,
ZnAgDy2,0.0,-0.0355198,
AlZr2Re,0.0,-0.0355198,
C2CrU,0.0,-0.035518799999999996,
AgCdNd,0.0,-0.0355176,
ZrRuSb2,0.0,-0.035517200000000006,
N2EuHf,0.0,-0.0355154,
MgLa4,0.0,-0.0355154,
OPdNd3,0.0,-0.0355143,
MgYPt,0.0,-0.0355129,
BNHoOs,0.0,-0.0355128,
Ni2In3Ho3,0.0,-0.035512,
Ga3Ac,0.0,-0.035511600000000004,
CdSb3,0.0,-0.0355114,
MnNi2Ac,0.0,-0.0355107,
CSnTb2,0.0,-0.035510599999999996,
Fe2RhIr,0.0,-0.0355098,
OFClPb2,2.396,-0.035509399999999997,
PdSb,0.0,-0.035509,
O6Bi2Pu,0.0,-0.035508899999999996,
OInPr3,0.0,-0.0355087,
CuSe3LuPb,0.9692,-0.0355085,
C2I5Pr4,0.0,-0.0355083,
InI,0.8583,-0.0355081,
MgPd2Au,0.0,-0.035507199999999996,
NI2Nd2,0.0,-0.035507,
Cu5Au3,0.0,-0.0355068,
PSbCe2,0.0,-0.0355066,
NbSb,0.0,-0.0355051,
ClBrPb,3.3068,-0.0355049,
CaCd2Au,0.0,-0.0355045,
AlSb3Ce2,0.0,-0.035504100000000004,
NiI6Cs2,0.0295,-0.035503900000000005,
Al2CuDy6,0.0,-0.0355033,
Ni2Sn4Pt,0.0,-0.0355032,
AlSm3,0.0,-0.0355031,
K2ZnSrBi2,0.0,-0.035503,
CZr3Tl,0.0,-0.0355026,
Pd2CdLa,0.0,-0.0355024,
Al2RhCe6,0.0,-0.0355015,
Ag2Te2Cs,0.0,-0.0355007,
Pd2In3Pr,0.0,-0.0355004,
Ag5Lu,0.0,-0.03550010000000001,
Fe2MoPt,0.0,-0.0355,
Pd4InCe,0.0,-0.0354994,
NTb2,0.0,-0.0354994,
OZr3Pt,0.0,-0.0354989,
Pd2In3La,0.0,-0.0354977,
Ag2InCe,0.0,-0.0354976,
OSe2LaBi,0.6538,-0.0354975,
Cl3Pu,0.0,-0.0354972,
SeSbCe,0.0,-0.0354972,
KTe2Eu,0.0,-0.0354972,
Rh3Pd2Nd,0.0,-0.0354969,
Se3SnPr4,0.0,-0.0354968,
CI2Ce2,0.0,-0.0354955,
Cd2Ce,0.0,-0.035494399999999995,
CMo2Sn2Tb2,0.0,-0.035494,
O2ErAu,2.5582,-0.0354938,
Al3In2Er3Ir,0.0,-0.0354936,
Al2Nd2Tl,0.0,-0.0354931,
AlY2Pb,0.0,-0.035492600000000006,
GaRh2Sm2,0.0,-0.0354921,
N2ErTa,0.0,-0.035491100000000005,
BRu3Hf,0.0,-0.0354896,
MnSe3TmPb,0.0,-0.0354892,
Li2YPt2,0.0,-0.035488599999999995,
ZnZr2Ta,0.0,-0.035488399999999996,
B2MnIr2,0.0,-0.0354864,
CoGa2Sm6,0.0,-0.0354846,
PCoLu2,0.0,-0.0354844,
C2MnU,0.0,-0.035484299999999996,
Zn2LaAu,0.0,-0.035484,
GaRh2Ce2,0.0,-0.035482799999999995,
InSb,0.0,-0.0354821,
Rh2InBa,0.0,-0.035481900000000004,
Cu3Th,0.0,-0.0354814,
Ca3Sn3Ir2,0.0,-0.035481,
PTeLu,0.0037,-0.035480899999999996,
FeGaRuIr,0.0,-0.035480899999999996,
Al2ScIr2,0.0,-0.0354808,
SeSbSm,0.0,-0.0354806,
Ni2Te3Ta,0.0,-0.0354805,
LiPd2Tl,0.0,-0.0354805,
S3Sn2Tl2,0.3677,-0.0354802,
ZnPd2Pr3,0.0,-0.0354801,
HPd2Tl,0.0,-0.0354798,
Ga2In2Bi,0.0,-0.0354798,
OGaHo3,0.0,-0.0354791,
Zr2SbTe2,0.0,-0.0354789,
NInLa3,0.0,-0.0354787,
Mg2KBi2,0.0,-0.0354786,
Mg2SrPt2,0.0,-0.0354786,
GaRu2Sm2,0.0,-0.0354775,
Ti2RuIr,0.0,-0.0354775,
In3Cs2,0.0,-0.0354772,
Pd2SbTe,0.0,-0.0354767,
Y6Te2Au,0.0,-0.035475700000000006,
Fe4WRe,0.0,-0.035474200000000004,
Si2TbOs,0.0,-0.035474200000000004,
K2RbAu2,0.0,-0.035474,
NiSn2Tm,0.0,-0.0354736,
Pd4In4Ba3,0.0,-0.035473399999999995,
LiIn2Ir,0.0,-0.0354724,
Ga3Hf2,0.0,-0.0354722,
O4IHoBi2,1.4014,-0.0354721,
Rh2Sn3,0.0,-0.035471800000000005,
AlNi2Pa,0.0,-0.035471800000000005,
C2FeU,0.0,-0.035471800000000005,
GeRhEr,0.0,-0.0354717,
GaRb2I6Hg,0.0,-0.0354714,
MgRh2Ta,0.0,-0.0354711,
Ga2Pd4Ho3,0.0,-0.0354711,
AgSn2Cs,0.0,-0.0354707,
SiYTa,0.0,-0.0354702,
O2ClPb2,0.0,-0.03547,
Co3Sm2Os,0.0,-0.035469900000000006,
AgCdTe2Cs,1.699,-0.035469900000000006,
RuIn5Nd,0.0,-0.0354698,
YRh2Pr,0.0,-0.035469299999999995,
LiAs2Ru2Th,0.0,-0.0354688,
P2CuU,0.0,-0.0354685,
CuPd2Gd,0.0,-0.0354683,
SeBrHf,0.0,-0.0354677,
NOIn2La6,0.0,-0.0354677,
Pd7Er,0.0,-0.0354673,
CaIn5Au,0.0,-0.0354664,
MgYIr,0.0,-0.035465699999999996,
Fe4WPt,0.0,-0.0354656,
As3Sm4,0.0,-0.0354653,
YSb3,0.0,-0.0354653,
TiGaIr,0.0,-0.0354651,
ZnSnLu,0.0,-0.0354648,
RhIn5Nd,0.0,-0.0354647,
AsSeHf,0.0,-0.035462600000000004,
NaIn2Au,0.0,-0.035462400000000005,
O2TbTl,1.5762,-0.035462,
Rh4CdCe,0.0,-0.035461,
GaRuSm2,0.0,-0.035461,
CoCe2,0.0,-0.0354598,
PdSn4,0.0,-0.0354595,
Sr2YHg,0.0,-0.0354595,
YLa,0.0,-0.0354589,
Ge2PdSn3Sm3,0.0,-0.0354588,
FeAsTa,0.886,-0.0354586,
SiPd2Hf,0.0,-0.035458399999999994,
Ag2InPm,0.0,-0.0354578,
Cr2RhPt,0.0,-0.0354575,
YRh2La,0.0,-0.0354571,
Al2CuPu,0.0,-0.0354569,
Zn2Sb2Pb,0.0,-0.035455,
S2NdTl,1.2801,-0.0354545,
O5S2La2Pu2,0.0,-0.0354542,
Sr2Ag2Hg,0.0,-0.0354542,
LiIn2Pt,0.0,-0.035454099999999995,
Se2PdHg,0.0,-0.035454,
Y6Te2Re,0.0,-0.0354536,
Y5Tl,0.0,-0.0354535,
SrPd2La2,0.0,-0.0354534,
BrTeSm,0.3836,-0.035453000000000005,
HSiHf2,0.0,-0.0354527,
YTe2,0.0,-0.0354514,
Se2LaEr,0.0,-0.035451300000000005,
Ni2GaHf2,0.0,-0.035450499999999996,
MgRu2Er2,0.0,-0.0354496,
Ag3Tb,0.0,-0.0354494,
O2EuHg,0.0,-0.0354489,
S2DyAu,0.6106,-0.0354487,
ZnAsTl,0.0,-0.0354485,
Ag8Hg,0.0,-0.035448099999999996,
GaRhSm2,0.0,-0.035448099999999996,
Rh3Pd2Pr,0.0,-0.035448099999999996,
CaIn6Pt,0.0,-0.0354476,
KCu2Sb2Th,0.0,-0.035447200000000005,
Sc2RuPb,0.0,-0.0354467,
Na2GaPb2,0.0,-0.0354465,
Cd7Pt,0.0,-0.035446399999999996,
H2SnLu3,0.0,-0.0354459,
ScRh2Lu,0.0,-0.0354456,
AlMoHf,0.0,-0.0354448,
Rh7Ce,0.0,-0.0354443,
MgCd2Pb,0.0,-0.0354439,
Pd4Pr,0.0,-0.035443800000000004,
HAlGePu,0.0,-0.0354437,
AsBa3,0.0,-0.035443300000000004,
PdIn2Ba,0.0,-0.0354418,
BrRhHo,0.0,-0.035441299999999995,
BNMnU,0.0,-0.0354408,
KCd2Tl,0.0,-0.0354403,
NiSnPm2,0.0,-0.0354386,
Rh3Pd2La,0.0,-0.0354385,
PdTe,0.0,-0.0354383,
Al2TmOs,0.0,-0.0354381,
PICe2,0.0,-0.0354373,
Y6Sb2Au,0.0,-0.0354356,
Si2CaIr2,0.0,-0.0354354,
O3Cs2U,0.0,-0.0354349,
Fe2SnTm2,0.0,-0.035434600000000004,
GeSe4BaAu2,0.1329,-0.0354345,
CuITm,0.0,-0.0354344,
Co2Te2Hg,0.0,-0.0354341,
Pd4La,0.0,-0.035432200000000004,
FeGe2La6,0.0,-0.0354318,
CuSnEu,0.0,-0.035431199999999996,
Cr2W,0.0,-0.0354309,
Co4InPu,0.0,-0.035430300000000005,
C2ErW,0.0,-0.03543,
CaAg2Hg,0.0,-0.0354299,
ScRu2Lu,0.0,-0.0354299,
Li3NdBi2,0.0,-0.0354294,
YIn2Sm,0.0,-0.0354288,
NiGa2Hf2,0.0,-0.0354288,
Mg4Pb3,0.0,-0.0354277,
RhIn5Pr,0.0,-0.0354277,
Rh4CdSm,0.0,-0.0354277,
O5S2Pr2Pu2,0.0,-0.0354276,
CoRu2Ce2,0.0,-0.035426900000000004,
Ga3Ge2Tm3Au,0.0,-0.035426900000000004,
GeAgSm2,0.0,-0.0354267,
AgCdPr,0.0,-0.0354267,
Sc2Pd2Bi,0.0,-0.035426099999999995,
NaGa2Au2,0.0,-0.0354255,
BCo6U2,0.0,-0.0354241,
GeRu3Pr2,0.0,-0.035423699999999995,
SiRuGd,0.0,-0.0354235,
Pd2Sn2Cs,0.0,-0.0354233,
OInLa3,0.0,-0.0354223,
NNiHo3,0.0,-0.035421999999999995,
Zr2SnSb3,0.0,-0.035421799999999996,
Ni3Pd2Th,0.0,-0.0354212,
AlRuPdHf,0.0,-0.0354202,
NiGe2Sn3Er3,0.0,-0.035418599999999995,
Al5Pt2Th,0.0,-0.0354182,
GeNbTm,0.0,-0.035417000000000004,
PdIn5Ce,0.0,-0.035416800000000005,
PCeDy,0.0,-0.0354165,
Ge2AgIn3Dy3,0.0,-0.0354163,
Ti2NbPb,0.0,-0.0354156,
Y5Ir,0.0,-0.0354152,
CoRu3Ce2,0.0,-0.0354147,
Cd8Pb,0.0,-0.0354147,
AlI6Cs3,2.2255,-0.0354141,
Na2AgHg2,0.0,-0.035413200000000006,
LiRh2Ir,0.0,-0.035413,
NbTc2Sb,0.0,-0.035410699999999996,
MgRb4Bi2,0.228,-0.0354103,
BrBa3,0.0,-0.035409500000000003,
PdIn5Sm,0.0,-0.035409500000000003,
In3Ba,0.0,-0.0354094,
Ge2PdIn3Tb3,0.0,-0.035409300000000005,
Pd4CdTb,0.0,-0.0354091,
Y6Sb2Re,0.0,-0.035408999999999996,
Cu2BaPt,0.0,-0.0354089,
LiRh2Re,0.0,-0.0354089,
CoSm2,0.0,-0.0354082,
Ag4Er,0.0,-0.0354079,
Ti3NiOs2,0.0,-0.035406999999999994,
Rh3Sn4,0.0,-0.0354067,
SiI2Nd2,0.0,-0.035405500000000006,
ZnY2Au,0.0,-0.0354041,
RuIn5La,0.0,-0.0354039,
CoRu2Sm2,0.0,-0.035403399999999995,
FeNi2Ac,0.0,-0.035403399999999995,
Br2ZrHg,0.0,-0.0354031,
S2LaTl,1.8266,-0.0354023,
RhIn5La,0.0,-0.0354021,
FeCoPt,0.0,-0.035402,
Al3Sn2Ho3Re,0.0,-0.0354019,
TiCo2Hf2,0.0,-0.035401800000000004,
BRh6Er2,0.0,-0.0354017,
Si2ZnPt2,0.0,-0.035401499999999995,
PRh5Hf,0.0,-0.0354011,
TiGaRuOs,0.0,-0.0354011,
Zr8Tl,0.0,-0.0354009,
Rh6InSb4,0.0,-0.035400799999999996,
CaTe2La2,0.0,-0.0354006,
B5Dy2Os3,0.0,-0.0354005,
Cd3Ho,0.0,-0.0354003,
Nb5Te4,0.0,-0.035400100000000004,
GeRh3Pr2,0.0,-0.0353986,
Se2Rh2Hg,0.0,-0.0353985,
O4EuBi2,0.0,-0.0353983,
Cr2TcW,0.0,-0.0353972,
OAlTm3,0.0,-0.0353967,
LiSc2Pt2,0.0,-0.035396500000000004,
CaI4Tb,0.0,-0.0353962,
Li3LaBi2,0.065,-0.0353954,
ZrSnTe,0.0,-0.0353954,
Rb2CdAu,0.0,-0.0353947,
YIn2Ce,0.0,-0.0353946,
CrNiOs,0.0,-0.0353937,
CoSn3Er,0.0,-0.0353933,
Ge3CeIr,0.0,-0.035393,