formula,bg,formation_energy,mp-id
ZnPb2,0.0,-0.0548769,
AlAu2Tl,0.0,-0.054875799999999995,
GaHfAu2,0.0,-0.054875799999999995,
Te2CsU,0.0,-0.054874200000000005,
Mg2Bi2Np,0.0,-0.054874,
RhSmAu2,0.0,-0.054870800000000004,
AgBi,0.0,-0.054870800000000004,
RhBaTl2,0.0,-0.054869999999999995,
Cl3AsPu3,0.0,-0.0548696,
RhPb,0.0,-0.0548696,
SiGd2Pt2,0.0,-0.0548696,
ZnTh,0.0,-0.0548694,
Te4HgTl2Pb,0.0,-0.0548694,
SbEuPt,0.0,-0.054866,
InBaTl2,0.0,-0.0548652,
SbPmHg2,0.0,-0.0548641,
SbEr5Pt2,0.0,-0.0548641,
RuEr6Pb2,0.0,-0.054863100000000005,
Rb2Pt3Pb,0.0,-0.0548616,
CaZrIr4,0.0,-0.054860900000000004,
AgSnTh,0.0,-0.054860799999999994,
TiSbPu,0.0,-0.0548595,
Mg2TlTh2,0.0,-0.0548588,
RuHo3Pt2,0.0,-0.0548586,
NHf3Tl,0.0,-0.0548578,
SbLaHg2,0.0,-0.054857100000000006,
InDyHg2,0.0,-0.0548549,
Ru2DyPa,0.0,-0.0548507,
CdEr2Au2,0.0,-0.054850499999999996,
SrHgTl,0.0,-0.054848999999999995,
Tc4Pt5,0.0,-0.0548483,
PdDyHg2,0.0,-0.0548478,
GeGdAu2,0.0,-0.0548476,
Mo3Ta5,0.0,-0.0548472,
YSmTl2,0.0,-0.0548472,
RuLu2Os,0.0,-0.054845399999999996,
CdEr3Ir2,0.0,-0.0548452,
Ga3Ir7,0.0,-0.0548448,
S2Pt3Pb2,0.0,-0.0548441,
GaLu2Pt2,0.0,-0.054843699999999995,
PdInTh,0.0,-0.0548417,
Ba2AuHg,0.0,-0.0548416,
AgTbAu2,0.0,-0.0548407,
InCeAu2,0.0,-0.0548406,
Sn2TlPb,0.0,-0.054840400000000004,
SrErTl2,0.0,-0.054837699999999996,
La6OsBi2,0.0,-0.0548374,
As3Pb5,0.0,-0.0548353,
SiAsPt5,0.0,-0.054833599999999996,
Y2Ir2Tl,0.0,-0.0548333,
PdLu2Ir,0.0,-0.0548328,
NiTa2Au,0.0,-0.0548307,
NiLu3Os2,0.0,-0.0548297,
InEu2Pb,0.0,-0.054829,
MnSnPu,0.0,-0.054829,
RhEr6Pb2,0.0,-0.0548273,
Br2SbTh2,0.0,-0.0548268,
NaAu2Pb,0.0,-0.0548258,
SiRh2Th2,0.0,-0.0548256,
Ru2SmU,0.0,-0.0548255,
PMnPt5,0.0,-0.0548255,
Cd3Au5,0.0,-0.0548212,
YCeTl2,0.0,-0.0548144,
ZnTaAu2,0.0,-0.0548143,
As2Hf6Re,0.0,-0.054814100000000004,
SiHfIr2,0.0,-0.0548104,
Tc3W4,0.0,-0.0548019,
SiGePt5,0.0,-0.0548019,
SiW3,0.0,-0.054799999999999995,
B2Ir3Th,0.0,-0.0547982,
NiNdBi2,0.0,-0.0547955,
ZnTlBi,0.0,-0.0547936,
Te4PbBi2,0.3658,-0.0547903,
CdEr3Pt2,0.0,-0.0547869,
RhCeAu2,0.0,-0.054777900000000004,
AlPt2Hg,0.0,-0.0547774,
SbTl,0.0,-0.054777299999999994,
Mo3W4,0.0,-0.054777099999999995,
PdBaTl2,0.0,-0.054776200000000004,
Er5Pb,0.0,-0.0547697,
Sr2HgBi2,0.0,-0.0547693,
SiRh3Np2,0.0,-0.054768300000000006,
PTh,0.0,-0.0547682,
InPmAu2,0.0,-0.054767699999999996,
AgGd2Hg,0.0,-0.0547635,
AlAsPt5,0.0,-0.0547629,
SnBaPt2,0.0,-0.0547628,
OHf3Ir,0.0,-0.054762700000000004,
CdErHg2,0.0,-0.0547613,
GaLu2Os2,0.0,-0.054760800000000005,
In2Au2Hg,0.0,-0.0547592,
Te2IrTl,0.0,-0.0547587,
ScGdIr2,0.0,-0.0547564,
CuCeBi2,0.0,-0.0547557,
MgWOs2,0.0,-0.0547534,
ScYRe4,0.0,-0.054753300000000005,
NiIPu,0.0,-0.0547526,
Sb2EuIr2,0.0,-0.0547498,
BCd2Pt6,0.0,-0.0547493,
RhTbHg2,0.0,-0.0547488,
TiTa2W,0.0,-0.054747300000000006,
NaAuTl2,0.0,-0.0547466,
SbEuIr,0.0,-0.0547439,
CdCsHg3,0.0,-0.0547426,
InTb2Ir2,0.0,-0.054740699999999996,
YTmHg2,0.0,-0.0547397,
YPmTl2,0.0,-0.0547394,
CdSbPb2,0.0,-0.0547384,
NiPrBi2,0.0,-0.0547367,
Zr3Ir4,0.0,-0.054735799999999994,
La2Pb,0.0,-0.0547349,
InTb2Pt2,0.0,-0.0547347,
NiLu2Ir2,0.0,-0.0547347,
BeIr3,0.0,-0.054732300000000005,
CuSmBi2,0.0,-0.0547312,
NiLaBi2,0.0,-0.054729599999999996,
PS3Th4,0.0,-0.054727,
OHf3Os,0.0,-0.054727,
BeAu2Pb,0.0,-0.054726,
CuYPt4,0.0,-0.0547254,
TeHf2,0.0,-0.0547242,
Pr6ReBi2,0.0,-0.0547237,
CaLuPb2,0.0,-0.0547234,
CaInPt4,0.0,-0.054722099999999996,
PCrPt5,0.0,-0.0547178,
ZrSnTh,0.0,-0.0547145,
InBa2Bi2,0.0,-0.0547097,
SiHo2Ir3,0.0,-0.0547095,
Sn2EuAc,0.0,-0.0547092,
PdHo3Ir2,0.0,-0.0547089,
Rh2CeIr3,0.0,-0.0547048,
AlW2Re,0.0,-0.0547041,
Y2Ir3,0.0,-0.0547029,
SbHf2,0.0,-0.0547022,
CdCePt2,0.0,-0.054702100000000003,
CSi2Os2U2,0.0,-0.0547008,
RhHoBi,0.0,-0.0546988,
Pd2DyPt3,0.0,-0.0546986,
Co2Er4Tl5,0.0,-0.0546978,
BHoIr3,0.0,-0.0546963,
PTiPt5,0.0,-0.0546926,
CdTbAu2,0.0,-0.054692500000000005,
CdSmPt2,0.0,-0.0546914,
Cs2PtTl,0.0,-0.0546899,
STh,0.0,-0.054689100000000004,
As2Hf6Au,0.0,-0.0546878,
KCdTl4,0.0,-0.054683,
PdLu2Tl,0.0,-0.054682299999999996,
SnCeHg2,0.0,-0.0546776,
Ag2Pt3,0.0,-0.054676,
Ag2Au2Tl,0.0,-0.0546745,
InNdAu2,0.0,-0.054671700000000004,
MnLuPt2,0.0,-0.0546711,
Ge2AuPu,0.0,-0.0546706,
MgWIr2,0.0,-0.0546706,
BeWIr2,0.0,-0.0546694,
LiHf2Pt2,0.0,-0.0546691,
BeWOs2,0.0,-0.0546685,
PdHo3Pt2,0.0,-0.054667099999999996,
AlTaPt2,0.0,-0.0546655,
PdLu2Os,0.0,-0.0546648,
Sb2EuPt2,0.0,-0.0546608,
PGePt5,0.0,-0.054657899999999995,
InErBi,0.0,-0.054656199999999995,
CdLu2Pb,0.0,-0.0546561,
AgLuPb,0.0,-0.0546539,
CaPtHg2,0.0,-0.0546535,
CdEr3Os2,0.0,-0.0546528,
AlGePt5,0.0,-0.0546507,
Ru2CeU,0.0,-0.0546486,
Sn3Pu,0.0,-0.054648499999999996,
PFePt5,0.0,-0.0546466,
Ge2Hf6Ir,0.0,-0.0546439,
Cd2HgTl2,0.0,-0.054643500000000005,
Rh2Ho3Tl3,0.0,-0.0546432,
GaGeAc2,0.0,-0.054642899999999994,
MgIrPt2,0.0,-0.0546421,
Cd3Au2Th,0.0,-0.054641300000000004,
In2Th,0.0,-0.0546409,
RuHo6Bi2,0.0,-0.0546402,
ClHg2Tl,0.0,-0.054639099999999996,
ScHfAu2,0.0,-0.0546389,
YNdTl2,0.0,-0.054638599999999996,
SnSmHg2,0.0,-0.054631599999999995,
TeCeBi,0.0,-0.0546313,
Te2PtTl,0.0,-0.0546311,
OHf3Pt,0.0,-0.0546301,
Rh2SmIr3,0.0,-0.054629199999999996,
Si2Ir2Np,0.0,-0.0546257,
PScPt5,0.0,-0.0546221,
CaAu2Hg,0.0,-0.0546218,
AgHoHg2,0.0,-0.0546205,
Sb2PtTl,0.0,-0.054620300000000004,
YAgBi2,0.0,-0.0546197,
Te3Pt2Tl,0.0,-0.0546176,
SnTb2Au2,0.0,-0.0546176,
SiBr2Pu2,0.0,-0.0546174,
ScErPb2,0.0,-0.0546161,
YLuBi,0.0,-0.0546139,
TeSmBi,0.0,-0.0546124,
CGe2W2Th2,0.0,-0.0546119,
Y2Pt3,0.0,-0.0546099,
InTbHg2,0.0,-0.0546097,
ScHf5,0.0,-0.0546091,
RhHo6Bi2,0.0,-0.054607100000000006,
ZnLu3Ir2,0.0,-0.054606299999999997,
RhTmPb,0.0,-0.0546059,
KPbBi,0.0,-0.054604599999999996,
Ni2Er4Tl5,0.0,-0.054602200000000004,
SnEu2Tl,0.0,-0.054602200000000004,
RuTmPb,0.0,-0.0546014,
Ru2NdU,0.0,-0.0546006,
MnTa3,0.0,-0.0546002,
PdTbHg2,0.0,-0.0545978,
InPrAu2,0.0,-0.054597099999999996,
TeDyPb,0.0,-0.0545967,
Zn2Tm4Tl5,0.0,-0.0545949,
ZnTa2Pt,0.0,-0.0545948,
RhNdAu2,0.0,-0.0545926,
LiRuAc2,0.0,-0.0545892,
InLu2Tl,0.0,-0.0545891,
ZrTa2,0.0,-0.0545884,
CdGd2Hg,0.0,-0.054587899999999995,
Ho3Re,0.0,-0.054587000000000004,
Ru2TbPa,0.0,-0.054587000000000004,
BHf3Pb,0.0,-0.0545859,
MgPt3,0.0,-0.0545822,
SbTmPt,0.1254,-0.0545795,
As2RuTh2,0.0,-0.054576099999999995,
Tc2DyPa,0.0,-0.054576099999999995,
LiRhAc2,0.0,-0.054576,
Ru2Ho3Tl3,0.0,-0.0545758,
Ge2Hf6Pt,0.0,-0.0545755,
YPrTl2,0.0,-0.0545736,
Cs3Bi2,0.0,-0.0545724,
GeINp,0.0,-0.0545698,
Fe2SnPa2,0.0,-0.054569,
CoSnPu,0.0,-0.0545687,
ZnYPt4,0.0,-0.0545681,
As2RhTh2,0.0,-0.0545645,
LiPtTl2,0.0,-0.0545644,
InLaAu2,0.0,-0.0545637,
GeCe2Ir3,0.0,-0.054563099999999996,
SnLuAu,0.0,-0.0545616,
MgHgTl2,0.0,-0.054561399999999996,
Si2Os2Np,0.0,-0.0545603,
PdHoBi,0.0,-0.0545587,
AgTe2Pu,0.0,-0.054557,
In3Hf3Ir2,0.0,-0.0545561,
I2Gd2Pb,0.0,-0.0545557,
YLaTl2,0.0,-0.054555599999999996,
GePdPu,0.0,-0.0545546,
MnTm6Bi2,0.0,-0.0545534,
Rh3Pt4,0.0,-0.0545514,
Cd2Hg2Pb,0.0,-0.054550600000000005,
Ge2IrNp,0.0,-0.054545699999999996,
CuNdBi2,0.0,-0.054545,
AlGd2Ir2,0.0,-0.0545419,
InPb,0.0,-0.054540700000000004,
Rh4Ir5,0.0,-0.0545384,
NHf3Au,0.0,-0.0545382,
CuHfAu2,0.0,-0.0545376,
Rb2Au3Pb,0.0,-0.054536900000000006,
Pd2TbPt3,0.0,-0.0545364,
SnPmHg2,0.0,-0.054535400000000005,
Ga3Pt7,0.0,-0.054534,
BaHg,0.0,-0.0545339,
CdPmPt2,0.0,-0.0545335,
SbEu2Au,0.0,-0.0545281,
Ru2PrU,0.0,-0.0545278,
SiGaPt5,0.0,-0.054527500000000007,
ZnLu3Pt2,0.0,-0.054527099999999995,
Sb2HgPb,0.0,-0.0545265,
RuLu2Au,0.0,-0.054526200000000004,
PdPb,0.0,-0.0545251,
AlSb3U2,0.0,-0.0545227,
CrTa3,0.0,-0.0545224,
Ru4Pt5,0.0,-0.0545156,
Sm3Hg2,0.0,-0.0545146,
YSbTh,0.0,-0.054512700000000004,
CdHfAu,0.0,-0.054509999999999996,
SrHoTl2,0.0,-0.0545095,
FeTm6Bi2,0.0,-0.0545091,
CrTm6Bi2,0.0,-0.054505899999999996,
As2AuNp,0.0,-0.0545057,
MnHf2Ir,0.0,-0.0545046,
InDy2Au2,0.0,-0.054504199999999996,
Rh2Hf2Pb,0.0,-0.0545029,
RhLu2Au,0.0,-0.0545024,
LiInAc2,0.0,-0.0545018,
Ru2ErTh,0.0,-0.054501600000000004,
RuSb2Hf6,0.0,-0.0545014,
PdHo3Os2,0.0,-0.054500599999999996,
AsCeTh,0.0,-0.0544988,
CuLaBi2,0.0,-0.0544981,
SiHo2Os3,0.0,-0.0544957,
YCeIr2,0.0,-0.054494999999999995,
YSmIr2,0.0,-0.0544945,
CdDy2Pt2,0.0,-0.0544932,
CuPrBi2,0.0,-0.0544912,
SiHfPt2,0.0,-0.054490699999999996,
GeSm2Ir3,0.0,-0.0544888,
RhPrAu2,0.0,-0.0544869,
SnSb2Hf6,0.0,-0.0544867,
ZrHoHg2,0.0,-0.0544825,
RuTe2Hf6,0.0,-0.0544807,
KHg2Tl,0.0,-0.0544803,
Ru2LaU,0.0,-0.0544799,
LiHg2Bi,0.0,-0.0544792,
Rh2NdIr3,0.0,-0.054478700000000005,
CaEuPb2,0.0,-0.0544773,
Te3Au2Pb,0.0,-0.0544753,
Pd2Hf2Bi,0.0,-0.0544728,
CuLu2Pt2,0.0,-0.0544717,
AgLa2Pb2,0.0,-0.0544711,
PHf2Bi,0.0,-0.0544703,
SbTmIr,0.0,-0.054470199999999996,
FeTa3,0.0,-0.0544696,
Cs2AuTl,0.0,-0.0544694,
FeHf2Ir,0.0,-0.0544686,
BrRhTl3,0.0,-0.0544681,
Sn2HgBi,0.0,-0.0544664,
TmLu3,0.0,-0.0544664,
CdNdPt2,0.0,-0.054466,
RhSb2Hf6,0.0,-0.0544649,
AlRu2Th2,0.0,-0.0544645,
Te2TaPb,0.0,-0.0544638,
Cd2Au2Tl,0.0,-0.0544622,
CuTa2Au,0.0,-0.054462,
RhLaAu2,0.0,-0.0544618,
Cd2Pt3,0.0,-0.05446,
FeHf2Os,0.0,-0.054459099999999996,
SiHo2Pt3,0.0,-0.054458799999999995,
PdHo6Bi2,0.0,-0.054458,
Tb3Pb,0.0,-0.054457500000000006,
PGaPt5,0.0,-0.0544556,
CaYIr4,0.0,-0.0544537,
SiS3Th4,0.0,-0.0544534,
RbRhTl3,0.0,-0.054451700000000006,
SbIr,0.0,-0.054449800000000007,
SnNdHg2,0.0,-0.0544473,
MnHf2Os,0.0,-0.054446800000000004,
Pd2ErAu3,0.0,-0.0544462,
FeCo2Pu2,0.0,-0.0544452,
CaTeAu4,0.2432,-0.054444,
LiBaPt4,0.0,-0.0544435,
AlGd2Pt2,0.0,-0.0544433,
CoTm6Bi2,0.0,-0.0544432,
CdSnTh,0.0,-0.0544426,
Pd2Ho3Tl3,0.0,-0.0544424,
AsPtTl,0.0,-0.0544416,
BDyIr3,0.0,-0.0544415,
Te7PbBi4,0.3611,-0.054439799999999997,
LiAu2Pb,0.0,-0.054436700000000005,
GeRu3Pa2,0.0,-0.0544363,
CdHoHg2,0.0,-0.05443460000000001,
SeTe3Tl2Bi2,0.0,-0.0544335,
GaTm6Bi2,0.0,-0.054431600000000004,
RhTe2Hf6,0.0,-0.054431600000000004,
AlHfOsIr,0.3204,-0.0544281,
ZnHg3,0.0,-0.0544274,
MgHg2Pb,0.0,-0.0544268,
Rh2PrIr3,0.0,-0.0544257,
GePd3U2,0.0,-0.054423400000000004,
SnLaHg2,0.0,-0.0544197,
PCoPt5,0.0,-0.0544193,
CuGdPt2,0.0,-0.0544183,
SrAu2,0.0,-0.054417299999999995,
Rh2LaIr3,0.0,-0.054413699999999995,
SbEuAu,0.0,-0.0544129,
Rh2SmPt3,0.0,-0.054412300000000004,
Ca2Pt2Tl3,0.0,-0.054409599999999995,
Co2In3Pa3,0.0,-0.054407899999999995,
GeNbPu,0.0,-0.0544069,
NaHgTl2,0.0,-0.0544064,
CdLaPt2,0.0,-0.0544053,
ScPtPb,0.0,-0.0544031,
MnSn2Ta6,0.0,-0.0544028,
Sn2BaIr3,0.0,-0.054398499999999995,
FeSn2Ta6,0.0,-0.0543958,
SnPrHg2,0.0,-0.054395200000000005,
Rh2Ta2Au,0.0,-0.054395000000000006,
ZnLu3Os2,0.0,-0.054394,
CdPrPt2,0.0,-0.0543932,
CSi2Re2U2,0.0,-0.0543917,
MgHf2Au2,0.0,-0.054389,
C2GaTh3,0.0,-0.0543851,
NiGeAc2,0.0,-0.054383,
CaSbAu4,0.0,-0.0543829,
B2Sm3Pt7,0.0,-0.0543825,
AlHfIr2,0.0,-0.054382,
In3Hf3Pt2,0.0,-0.054380200000000004,
CdDy2Ir2,0.0,-0.0543791,
MgWPt2,0.0,-0.054378100000000006,
CrHf2Os,0.0,-0.054377699999999994,
SiAu3,0.0,-0.054375799999999995,
Te4TaTl3,1.2716,-0.0543751,
SbEr5Au2,0.0,-0.0543746,
Zr3Hg5,0.0,-0.054373,
NiTm6Bi2,0.0,-0.0543727,
CrHf2Ir,0.0,-0.0543688,
YErHg2,0.0,-0.0543686,
TeNdBi,0.0,-0.054368400000000004,
CdLa2Pb2,0.0,-0.054366500000000005,
GeCe2Os3,0.0,-0.0543654,
AlRh2Th2,0.0,-0.054365000000000004,
In2TlBi,0.0,-0.0543626,
SeIU,0.0,-0.054362299999999995,
CoHf2Os,0.0,-0.0543619,
CaAuHg2,0.0,-0.054361400000000004,
Cd3Tl4,0.0,-0.0543566,
Co2SnPa2,0.0,-0.054356499999999995,
SeSbU,0.0,-0.0543561,
CaPdPb3,0.0,-0.0543544,
SnSm2Ir2,0.0,-0.0543536,
YPmIr2,0.0,-0.0543522,
CdSnPb2,0.0,-0.054352,
LiPdAc2,0.0,-0.054352,
B2Ce3Pt7,0.0,-0.0543469,
CaYOs4,0.0,-0.0543459,
CuIPu,0.0,-0.054345700000000004,
Tb2Hg,0.0,-0.054344,
Dy3Ir,0.0,-0.0543439,
AgSb2Pu,0.0,-0.054341099999999996,
CoSn2Ta6,0.0,-0.0543392,
TeLaBi,0.0,-0.0543366,
AsRuNp,0.0,-0.054333799999999995,
Y2Pt2Au,0.0,-0.0543322,
As2PdTh2,0.0,-0.0543311,
AgDyHg2,0.0,-0.054330399999999994,
MgAsPt5,0.0,-0.0543301,
La3Au2,0.0,-0.0543296,
CoTa3,0.0,-0.0543256,
Cd2Pt2Au,0.0,-0.054324399999999995,
ZrTmBi,0.0,-0.0543215,
C2I5Th4,0.0,-0.0543202,
TiZrW4,0.0,-0.0543181,
PdTmPb,0.0,-0.054317700000000003,
CoHf2Ir,0.0,-0.0543159,
Rh2Sm3Pb3,0.0,-0.0543106,
GeSm2Pt3,0.0,-0.0543078,
SrPtHg,0.0,-0.054307499999999995,
Sn2BaPt3,0.0,-0.054307,
SnLu2Hg,0.0,-0.0543063,
CdHo2Au2,0.0,-0.0543061,
CdGdTl,0.0,-0.054302500000000004,
SnSm2Pt2,0.0,-0.054302500000000004,
Cs4HgBi2,0.4556,-0.054302500000000004,
RuSb2Np,0.0,-0.054301699999999994,
TePrBi,0.0,-0.054300400000000006,
RhDyBi,0.0,-0.054298900000000004,
NTh,0.0,-0.054298200000000005,
SiDy2Ir3,0.0,-0.0542936,
LiAuTl2,0.0,-0.0542936,
TiLuTl2,0.0,-0.054292700000000006,
GaLuIr2,0.0,-0.0542922,
I3U,0.0,-0.054291,
BrPdTl3,0.0,-0.054290599999999994,
AlW3,0.0,-0.0542895,
ScHoPb2,0.0,-0.0542895,
PdSb2Hf6,0.0,-0.0542833,
NiSnPu,0.0,-0.054278799999999995,
ZnCeBi2,0.0,-0.054278599999999996,
GaLuPt2,0.0,-0.054278599999999996,
Dy3Tl,0.0,-0.0542763,
MgAu2Tl,0.0,-0.054276000000000005,
TeTbPb,0.0,-0.054273499999999995,
AlHfOs2,0.0,-0.054273499999999995,
Rh2NdPt3,0.0,-0.054273499999999995,
YBi,0.0,-0.0542726,
YCdBi2,0.0,-0.054270200000000005,
AlGd2Os2,0.0,-0.0542681,
CaPb2,0.0,-0.0542662,
Y2Au2Tl,0.0,-0.054259999999999996,
AsRhNp,0.0,-0.0542581,
CaAgPt4,0.0,-0.0542562,
PdLu2Au,0.0,-0.0542556,
CaYPt4,0.0,-0.0542507,
In2Hg3,0.0,-0.0542501,
YLaPt2,0.0,-0.054247100000000006,
Rb2Pt3Tl,0.0,-0.0542451,
PdTe2Hf6,0.0,-0.0542408,
AgSmAu2,0.0,-0.0542405,
KAu3,0.0,-0.0542389,
AgBaTl2,0.0,-0.0542365,
Rh2LaPt3,0.0,-0.0542358,
SnEuPt,0.0,-0.0542355,
SbPt,0.0,-0.0542351,
ZnAsAu5,0.0,-0.054233199999999995,
Si2Pt2Np,0.0,-0.054232999999999996,
Pd2HoAu3,0.0,-0.0542327,
Sm2Tl,0.0,-0.0542325,
RbPdTl3,0.0,-0.054232100000000005,
RuDy3Pt2,0.0,-0.054230600000000004,
Rh2PrPt3,0.0,-0.054227899999999996,
BePt3,0.0,-0.0542268,
MgPt2Au,0.0,-0.0542268,
InHoBi,0.0,-0.0542266,
Y2Hg2Pb,0.0,-0.0542264,
Mo4W5,0.0,-0.054223999999999994,
MnNi2Pu2,0.0,-0.054222700000000006,
Ru2Ta3,0.0,-0.054221899999999996,
Co2GaPu2,0.0,-0.0542218,
MgTaIr2,0.0,-0.0542218,
SrDyTl2,0.0,-0.0542213,
HHf3Bi,0.0,-0.0542211,
PNiPt5,0.0,-0.0542205,
NiSn2Ta6,0.0,-0.0542203,
TePt,0.0,-0.0542199,
MgSn2Th2,0.0,-0.0542183,
Zr2Au2Hg,0.0,-0.0542182,
ZnLu2Pt2,0.0,-0.0542182,
Dy3Pt,0.0,-0.054216900000000005,
BTbIr3,0.0,-0.0542162,
CdBa2Bi2,0.0052,-0.054215400000000004,
NiITl3,0.0,-0.0542143,
Ag2Hg2Tl,0.0,-0.0542109,
GeEuPt2,0.0,-0.0542104,
Te2AuTl,0.0,-0.054208799999999994,
BeWPt2,0.0,-0.0542082,
AgEu2Pb,0.0,-0.0542082,
Co2Ho4Tl5,0.0,-0.0542081,
YNdIr2,0.0,-0.0542068,
CdLuPb,0.0,-0.0542068,
Co2Sm4Pb5,0.0,-0.0542064,
Co2Sn3Th3,0.0,-0.0542062,
CuTm6Bi2,0.0,-0.0542056,
ZnHfAu2,0.0,-0.0542054,
VHf2Ir,0.0,-0.0542049,
SnEuIr,0.0,-0.0542045,
CHf3Au,0.0,-0.054204300000000004,
TiTm6Bi2,0.0,-0.0542027,
BW3,0.0,-0.0541979,
CaCdPt4,0.0,-0.0541974,
Rh2NdBi2,0.0,-0.054193899999999996,
Rh2Dy3Tl3,0.0,-0.0541933,
AsTeU,0.0,-0.054189100000000004,
Pd2NdIr3,0.0,-0.054189100000000004,
Rh2LaBi2,0.0,-0.054187,
RhSmHg2,0.0,-0.054183999999999996,
TeLa2Pt2,0.0,-0.054183300000000004,
CuGeAc2,0.0,-0.0541827,
GaGdAu2,0.0,-0.0541783,
GaTa3,0.0,-0.054178199999999996,
Pd2SmPt3,0.0,-0.054176,
InLuPt,0.0,-0.0541743,
CHf2Bi,0.0,-0.0541736,
SeAuTl,0.0,-0.054171199999999996,
PdDyBi,0.0,-0.0541684,
SbTePt2,0.0,-0.054168,
MgTaOs2,0.0,-0.054167299999999995,
LiIr3,0.0,-0.0541659,
Ag2PbBi,0.0,-0.0541648,
Dy3Os,0.0,-0.0541639,
Rh2PrBi2,0.0,-0.0541612,
ZnGdPt2,0.0,-0.054159,
Ga2Au2Th,0.0,-0.0541569,
CSTh2,0.0,-0.0541565,
OHf3Au,0.0,-0.0541543,
ScLuIr2,0.0,-0.0541535,
ZnTa2W,0.0,-0.0541534,
InSb2Hf6,0.0,-0.0541517,
LiPt2Tl,0.0,-0.0541514,
Ce2Tl,0.0,-0.0541511,
InLuIr,0.0,-0.054150199999999996,
AgCeAu2,0.0,-0.0541481,
GeRh3Pa2,0.0,-0.054148,
CdDyHg2,0.0,-0.0541472,
SnHf2,0.0,-0.054147100000000004,
FeSbNp,0.0,-0.0541457,
SbEu2Hg,0.0,-0.0541455,
AlAu3,0.0,-0.0541454,
Sn2TmAc,0.0,-0.0541451,
SiCuPt5,0.0,-0.0541451,
Ru2HoTh,0.0,-0.054143500000000004,
CdHo3Ir2,0.0,-0.054142,
Sn4Bi3,0.0,-0.0541414,
B2Nd3Pt7,0.0,-0.0541412,
Pd2PrIr3,0.0,-0.0541403,
GeNd2Ir3,0.0,-0.0541398,
CsPt,0.0,-0.054139200000000005,
AgLu2Ir,0.0,-0.0541388,
Sm2Ir,0.0,-0.0541354,
Pd2LaIr3,0.0,-0.054135199999999994,
Sb2AuTl,0.0,-0.0541287,
RbSb2Pt4,0.0,-0.054126600000000004,
AgEuPb,0.0,-0.054125,
SrLa2Bi2,0.0,-0.0541229,
Ru2Dy3Tl3,0.0,-0.0541226,
AgPmAu2,0.0,-0.054121999999999997,
SnBaAu2,0.0,-0.0541207,
InLu2Au,0.0,-0.0541192,
FeNi2Pu2,0.0,-0.0541192,
SiAu2Hg,0.0,-0.0541191,
AsRe2,0.0,-0.0541174,
Ag2Au3,0.0,-0.054115,
NHf3Hg,0.0,-0.0541147,
RhErPb,0.0,-0.054113100000000004,
Ru2SnPu,0.0,-0.054113100000000004,
Ni2Ho4Tl5,0.0,-0.054112099999999996,
ILa2Os2,0.0,-0.0541092,
AsBr2U2,0.0,-0.0541072,
Sm2Pt,0.0,-0.054107,
RuErPb,0.0,-0.054104799999999995,
RuSn2Hf6,0.0,-0.0541042,
InBaPt2,0.0,-0.0540999,
GeTm2Ir2,0.0,-0.0540982,
CdSmAu2,0.0,-0.054095700000000004,
Cd2Pt2Hg,0.0,-0.054095399999999995,
BeTaOs2,0.0,-0.0540947,
Sn2BaBi2,0.0364,-0.054093800000000004,
ErLu3,0.0,-0.054093800000000004,
CdHo3Pt2,0.0,-0.0540934,
Si2Au2Pu,0.0,-0.054091900000000005,
Ho3Hg,0.0,-0.054090200000000005,
SrBaPb2,0.0,-0.0540897,
Sb2CsBi2,0.0,-0.0540895,
SrLuHg2,0.0,-0.0540893,
SbLa2Pt2,0.0,-0.0540893,
NiTa3,0.0,-0.0540891,
ZnTa2Au,0.0,-0.054088500000000005,
PCuPt5,0.0,-0.0540864,
P2Os2U,0.0,-0.054086300000000004,
InTb2Au2,0.0,-0.0540859,
SbErPt,0.1947,-0.054084400000000005,
YLaIr2,0.0,-0.0540833,
AgTbHg2,0.0,-0.0540792,
PdDy3Ir2,0.0,-0.0540778,
SiDy2Os3,0.0,-0.054076900000000004,
CdBaTl2,0.0,-0.054076,
AgLu2Pt,0.0,-0.054070099999999996,
AgLu2Tl,0.0,-0.054069200000000005,
CdTb2Pt2,0.0,-0.0540672,
Y2Pt2Hg,0.0,-0.0540668,
InSmHg2,0.0,-0.054066499999999997,
BeTaIr2,0.0,-0.0540644,
MgBi2,0.0,-0.0540629,
SiPd3Np2,0.0,-0.0540626,
ScSrIr4,0.0,-0.0540599,
GeTmPt2,0.0,-0.0540584,
InGdHg,0.0,-0.0540572,
RhSn2Hf6,0.0,-0.0540572,
Mo2Ta3,0.0,-0.054057,
Y2Ir2Hg,0.0,-0.054057,
CdEu2Pb,0.0,-0.0540563,
B2Pr3Pt7,0.0,-0.0540555,
As4Th3,0.1454,-0.0540525,
ZnNdBi2,0.0,-0.0540524,
SnCs2Bi2,0.0,-0.054051699999999994,
SiDy2Pt3,0.0,-0.0540486,
PdDy3Pt2,0.0,-0.0540466,
Ca2Au2Tl3,0.0,-0.0540461,
Pd2NdPt3,0.0,-0.054045499999999996,
Pd2DyAu3,0.0,-0.054045499999999996,
PdSmHg2,0.0,-0.0540403,
CrOs2,0.0,-0.0540392,
CaHg3,0.0,-0.054038499999999996,
CdCeAu2,0.0,-0.054036900000000006,
NiHf2Os,0.0,-0.054035200000000005,
YHoHg2,0.0,-0.0540318,
CZnTh2,0.0,-0.054031100000000006,
ZnTm6Bi2,0.0,-0.0540308,
Se2TlPa,0.0,-0.0540304,
B2La3Pt7,0.0,-0.05403,
ZnLaBi2,0.0,-0.0540293,
SnTl,0.0,-0.054029200000000006,
PZnPt5,0.0,-0.0540287,
RhCdTh,0.0,-0.0540285,
InCeHg2,0.0,-0.0540283,
GaSb3Th2,0.0,-0.05402729999999999,
B2Ir2Pu,0.0,-0.0540266,
Rh4Pt5,0.0,-0.0540242,
In2TmTh,0.0,-0.054023499999999995,
CrHf2Re,0.0,-0.0540232,
SnLa2Tl2,0.0,-0.0540221,
ScZrW4,0.0,-0.054020000000000006,
Pd2LaPt3,0.0,-0.0540193,
NiLuPt2,0.0,-0.0540189,
FeHf2Re,0.0,-0.0540173,
AgInPb2,0.0,-0.054016800000000004,
LiWOs2,0.0,-0.0540166,
ScLuTl2,0.0,-0.0540148,
Te2Lu6Ir,0.0,-0.0540148,
MgZrIr4,0.0,-0.0540146,
Ag5Pt7,0.0,-0.054012700000000004,
RhBaIr2,0.0,-0.0540124,
PdSn2Pu,0.0,-0.054012300000000006,
MnHf2Re,0.0,-0.0540115,
Fe2InPa2,0.0,-0.0540112,
SbHo5Pt2,0.0,-0.0540105,
In3Au4,0.0,-0.0540099,
GePr2Ir3,0.0,-0.0540095,
AgNdAu2,0.0,-0.0540071,
Pd2PrPt3,0.0,-0.0540052,
Ga2IrPu,0.0,-0.054003300000000004,
Si2Os2U,0.0,-0.0540026,
ZnPrBi2,0.0,-0.054002499999999995,
Ce2Ir,0.0,-0.0540015,
RuCdTh,0.0,-0.0539993,
Pd2Dy3Tl3,0.0,-0.053996899999999994,
I2AuTl,1.1438,-0.0539962,
LiHgTl2,0.0,-0.0539961,
AgLu2Os,0.0,-0.0539922,
Ag2Pa,0.0,-0.0539914,
NiHf2Ir,0.0,-0.0539887,
SnBa2Pb2,0.0,-0.0539862,
Cd3Hg5,0.0,-0.0539848,
Nd3Hg2,0.0,-0.0539843,
SbErIr,0.0,-0.0539807,
RuEr6Tl2,0.0,-0.0539799,
Zr4Tl5,0.0,-0.0539797,
Mn2InPa2,0.0,-0.0539797,
MnOs2,0.0,-0.0539797,
CdPmAu2,0.0,-0.0539776,
GeLuAu2,0.0,-0.0539775,
Zr2HfPt2,0.0,-0.0539771,
GeNd2Pt3,0.0,-0.0539771,
ScDyPb2,0.0,-0.0539767,
RhNdHg2,0.0,-0.053973799999999995,
GeLa2Ir3,0.0,-0.053972900000000004,
SrTbTl2,0.0,-0.0539722,
SnNd2Ir2,0.0,-0.0539717,
AlHfPt2,0.0,-0.053971200000000004,
RuHf2,0.0,-0.0539707,
Rh2Nd3Pb3,0.0,-0.0539701,
KAu2Hg,0.0,-0.0539698,
Si2Ir2U,0.0,-0.0539691,
InTeTl2,0.0,-0.0539691,
SrAuHg,0.0,-0.0539657,
Te2Lu6Os,0.0,-0.0539655,
InPmHg2,0.0,-0.053965200000000005,
Te2Lu6Pt,0.0,-0.0539651,
YLa2Pb2,0.0,-0.053962899999999994,
GeTm2Pt2,0.0,-0.053962899999999994,
RhCdPb2,0.0,-0.0539618,
ZrInPb2,0.0,-0.0539606,
SnTmIr,0.0,-0.0539602,
Ru2CePa,0.0,-0.05396,
RuHo6Pb2,0.0,-0.053957500000000005,
MgLu2Pb2,0.0,-0.0539554,
Pd2Hf2Pb,0.0,-0.053954999999999996,