formula,bg,formation_energy,mp-id
BRu3Ta,0.0,-0.0360662,
Si2ZnPu,0.0,-0.0360659,
Al3Sn2Er3Pt,0.0,-0.0360659,
RhCdBa2,0.0,-0.036064700000000005,
SiNi2Pa,0.0,-0.036064599999999995,
SrBa4,0.0,-0.0360635,
PBrEu2,0.0,-0.0360621,
AlGa2Tb6,0.0,-0.0360618,
CSi2CeW2,0.0,-0.036060699999999994,
CaAg2Pt,0.0,-0.0360606,
SiRu3Ho2,0.0,-0.0360587,
MgSc2Ir2,0.0,-0.0360583,
FeSn4La2,0.0,-0.0360583,
O2HoTl,1.4623,-0.0360581,
MgSc2Tl2,0.0,-0.0360576,
LiAg2Bi,0.0,-0.0360573,
MgRu2Tm2,0.0,-0.036057,
ScIn5Au,0.0,-0.036056399999999995,
SrTe2Ba,1.4146,-0.0360546,
CSnDy2,0.0,-0.0360541,
In2Sn2Ba,0.0,-0.0360539,
Cr4ReIr,0.0,-0.0360518,
GaPd2Tb2,0.0,-0.036051,
MgIn2Ir,0.0,-0.0360503,
AsRhEr,0.0,-0.0360496,
PdIn4Tb,0.0,-0.036049199999999997,
RhSnSb,0.0,-0.0360491,
NOSn2La6,0.0,-0.0360488,
Ag2Sm,0.0,-0.036047499999999996,
InI2,0.0,-0.036047199999999995,
KTe2Lu,1.1736,-0.0360468,
NaInAu,0.0,-0.0360463,
AsTeTb,0.1921,-0.0360458,
Ga4ErTa2,0.0,-0.036045499999999994,
Pd2In2Sm,0.0,-0.0360442,
OSnPr3,0.0,-0.0360437,
Zn3Au2,0.0,-0.036043599999999995,
Ga5PtTh,0.0,-0.0360426,
CuPd2Dy2,0.0,-0.0360423,
Na2ZnBi2,0.0,-0.0360419,
SeTe2Sm,0.0,-0.0360418,
Pd6Sb4Nd,0.0,-0.0360414,
NiRbTe3Hf,0.0,-0.036039,
Ag2Sn2Pr,0.0,-0.0360387,
NiY2Au,0.0,-0.036037599999999996,
Li2SbHg2,0.0,-0.0360375,
GeAg2Te4Eu,0.0,-0.0360366,
MoTcSb2,0.0,-0.0360357,
Mg2PrAc,0.0,-0.036035,
RuIn5Dy,0.0,-0.0360349,
HTc3Ir,0.0,-0.0360344,
NiSe2Pr6,0.0,-0.0360341,
HI2Ho2,0.0,-0.0360329,
Cd7Pb,0.0,-0.0360329,
Pd2Sn5Ba,0.0,-0.036032299999999996,
Si2ZrHf2,0.0,-0.0360319,
NaBr3Pu,0.0,-0.0360308,
SrRhLa2,0.0,-0.0360306,
N2Ga3Er7,0.0,-0.03603050000000001,
GeRu3Ce2,0.0,-0.03603,
InSnCs,0.0,-0.0360296,
Rb2I6Er,0.0,-0.0360293,
RhIn5Dy,0.0,-0.0360293,
Li2IHg2,0.0,-0.0360291,
Ag2Sn2La,0.0,-0.0360288,
Pd4Sn6Sm,0.0,-0.036028399999999995,
Zn3ZrPt2,0.0,-0.036028199999999996,
H2TeHg2,0.0,-0.0360273,
Ni2Te2Tl,0.0,-0.0360272,
CoSn5Eu,0.0,-0.036027,
CuY2Os,0.0,-0.036026699999999995,
Rh4InCe,0.0,-0.036026,
Ca2NiPt2,0.0,-0.036026,
Nb2In4Er,0.0,-0.0360256,
SiCeTm,0.0,-0.0360256,
Cu2Ge2Pu,0.0,-0.0360252,
Al2CoPu,0.0,-0.0360239,
Ni2In3Er3,0.0,-0.036023400000000004,
Mn2RuOs,0.0,-0.0360233,
Se3SnSm4,0.0,-0.036023200000000005,
O4NbTl3,2.3405,-0.036023200000000005,
Rh4CdDy,0.0,-0.0360227,
Rh3Sn2Ba,0.0,-0.036022,
Pd6Sb4Pr,0.0,-0.0360218,
Pd6Sb4La,0.0,-0.036021,
Cr4OsPt,0.0,-0.0360206,
BeZrPt,0.0,-0.0360204,
Ag2SnNd,0.0,-0.0360197,
GePdEu,0.0,-0.0360187,
SiNb4Pt,0.0,-0.0360184,
PdIn5Ho,0.0,-0.036017600000000004,
S3SbTm4,0.0,-0.036017400000000005,
Mn2RuIr,0.0,-0.0360173,
AlZrHg,0.0,-0.0360169,
Ag2In7Pr3,0.0,-0.036016,
MgTcTm2,0.0,-0.0360159,
CuSe3HfTl,0.3895,-0.0360153,
ScPr3,0.0,-0.036014899999999996,
TcSn3I,0.0993,-0.0360147,
ZrTe2,0.0,-0.0360145,
Cu2GaTh,0.0,-0.0360144,
Zr5Hf,0.0,-0.036013800000000006,
CuRu2Tb2,0.0,-0.036013500000000004,
H2PdPt2,0.0,-0.0360133,
Rh2AgPm,0.0,-0.036013199999999995,
B2CCeIr2,0.0,-0.036013199999999995,
Se2SrPb,0.7446,-0.0360128,
YPd2Tb,0.0,-0.0360126,
Al2Tb2Hg,0.0,-0.0360126,
Rh2SbTe,0.0,-0.0360122,
Ca2NiIr2,0.0,-0.0360121,
Zn2NdPt,0.0,-0.036012,
Si2HoOs,0.0,-0.036012,
CuIn3Sn2Nd3,0.0,-0.036011800000000004,
SrRuLa2,0.0,-0.0360114,
AlYAu,0.0,-0.0360112,
CuSb2Tm,0.0,-0.0360111,
CoGeIr,0.0,-0.0360108,
YAg2Tm,0.0,-0.0360108,
GaSn3Ba4,0.0,-0.0360106,
NCuEr3,0.0,-0.036009099999999995,
Pd2SnBa,0.0,-0.0360088,
Br2SnHo2,0.0,-0.036008000000000005,
LiP2CeIr2,0.0,-0.0360064,
SiRh3Ho2,0.0,-0.036005499999999996,
CSbLa3,0.0,-0.0360052,
CSi2SmW2,0.0,-0.0360047,
CaCd2Tl,0.0,-0.0360047,
S4Pt3,0.0,-0.036004600000000005,
NSnTb2,0.0,-0.0360033,
CrFeOs,0.0,-0.036003,
Ga2BaAu,0.0,-0.0360026,
CuCd2Hg,0.0,-0.0360023,
Ag3Ho,0.0,-0.0360017,
CrFeIr,0.0,-0.0360009,
Nb3Te4,0.0,-0.0360008,
Pd3Cd2Eu,0.0,-0.0360004,
KIn2Hg,0.0,-0.035999699999999996,
Ga2Te4Hg,0.7179,-0.035999699999999996,
CaAsPb,0.0,-0.0359995,
Co2Sn7Tb3,0.0,-0.0359993,
Rh2CdPm,0.0,-0.0359984,
MgSc2Pt2,0.0,-0.0359983,
Cr2Re,0.0,-0.035998199999999994,
Ag3In2Eu,0.0,-0.0359976,
YIn2Tb,0.0,-0.0359975,
AsPd5Hf,0.0,-0.0359964,
Ni2ZnTa2,0.0,-0.0359964,
CITb2,0.0,-0.0359962,
OSnLa3,0.0,-0.0359957,
Ag2Ce,0.0,-0.0359949,
GePd2Lu,0.0,-0.0359946,
Zn2RuEr3,0.0,-0.035994,
CuPdTb2,0.0,-0.035993899999999995,
NiAsTm2,0.0,-0.0359931,
Ni2GeHf2,0.0,-0.0359925,
N6Mn2Th3,0.0,-0.0359925,
Pd4CdEr,0.0,-0.035991999999999996,
Mg2LaAc,0.0,-0.0359914,
H2La3Pb,0.0,-0.035991100000000005,
MnFeIr,0.0,-0.035990900000000006,
MoSb,0.0,-0.035990699999999994,
ZnCd2Au,0.0,-0.0359906,
Zn2NdIr,0.0,-0.035986899999999995,
Mn2MoIr,0.0,-0.0359858,
BrRuEr,0.0,-0.0359858,
Rh7Ho,0.0,-0.0359844,
BCo6Np2,0.0,-0.0359844,
LiSn4Au,0.0,-0.0359843,
LiP2CeOs2,0.0,-0.035983400000000006,
GeIHo,0.0,-0.0359832,
Rh4InSm,0.0,-0.035982799999999995,
AlBa8,0.0,-0.035982799999999995,
In2Te3,0.0,-0.0359826,
LiAs2Pd2U,0.0,-0.0359823,
PRbPb,0.56,-0.0359813,
Se2NbHg,0.0,-0.0359808,
NaK2Bi2,0.0,-0.0359805,
Cl2TeGd2,0.0,-0.0359797,
CSbTb2,0.0,-0.035979500000000005,
Ga2InBi,0.0,-0.035979,
Cu5Pt3,0.0,-0.0359787,
BNCoNp,0.0,-0.035978,
Sc3In3Au2,0.0,-0.035978,
V2TcOs,0.0,-0.035978,
C2CoNp,0.0,-0.035977800000000004,
CoGe2Sn3Tm3,0.0,-0.035976799999999996,
O7Gd2Th2,2.227,-0.0359766,
LiP2SmIr2,0.0,-0.0359765,
LiInPt,0.0,-0.035976100000000004,
NiSb2Er,0.0,-0.0359758,
N5Ta4,0.0,-0.0359754,
TiRu2Lu,0.0,-0.035975299999999995,
Mn4ReOs,0.0,-0.035975,
ZnTb2,0.0,-0.0359745,
LiGa2Ir2,0.0,-0.035973599999999994,
GeRhTm,0.0,-0.0359733,
Si2NiPt2,0.0,-0.0359706,
Zr2Tb,0.0,-0.035970300000000004,
AsI6Cs2,0.0,-0.035969799999999996,
N6Cr2Th3,0.0,-0.0359683,
RhInBa,0.0,-0.0359668,
AsAgEu,0.0,-0.0359668,
PdCd2Dy,0.0,-0.035966099999999994,
CdSnBa,0.0,-0.0359641,
Ni2PdHo3,0.0,-0.0359639,
SiNbHf,0.0,-0.035963,
Zn2As2Pu,0.0,-0.035962299999999996,
Ag4Eu,0.0,-0.0359622,
Zr3Tm,0.0,-0.035962,
BFe6U2,0.0,-0.0359619,
Si3Er5,0.0,-0.0359619,
GeAgLu,0.0,-0.035961,
Br2TeDy2,0.0,-0.0359606,
Cl2SbGd2,0.0,-0.0359596,
RhAgTe4,0.0,-0.0359595,
Pd4Sn6Nd,0.0,-0.0359593,
ZnAgHf,0.0,-0.0359591,
Br2SbDy2,0.0,-0.0359591,
CrI6Cs2,0.0,-0.035958399999999995,
MgCdTl,0.0,-0.0359573,
Zn2Ba2Tl,0.0,-0.035956800000000004,
CaI4Er,0.0,-0.0359563,
NiCuLu2,0.0,-0.0359562,
YTe3,0.0,-0.0359557,
Mg2CaBi2,0.4822,-0.0359555,
Cu2SnLu2,0.0,-0.035954900000000005,
CuTe2Er,0.0,-0.035954599999999996,
PZr2Hg,0.0,-0.035954599999999996,
Ag7Hg,0.0,-0.0359544,
MnI6Cs2,0.0,-0.035954099999999996,
Ag2SnPr,0.0,-0.0359539,
LiInIr,0.0,-0.0359534,
B2CSmIr2,0.0,-0.0359529,
CoAs2Pr6,0.0,-0.0359525,
Rh5Ce,0.0,-0.0359506,
CdSn3Ba,0.0,-0.0359503,
ZnGe2Hf2,0.0,-0.035949800000000004,
PdTeI,0.0,-0.0359496,
CuRu2Pr3,0.0,-0.0359494,
Ge2PmGd,0.0,-0.0359494,
Zr7Tl,0.0,-0.035948999999999995,
LiP2HoAu2,0.0,-0.0359489,
BrTcLa2,0.0,-0.035947200000000006,
AlY6Tl2,0.0,-0.035945,
Ga2Sn2Pb,0.0,-0.035944899999999995,
Ga3Pd2Lu3,0.0,-0.0359434,
Al4IrPu,0.0,-0.0359415,
CuAs2Nd6,0.0,-0.0359408,
Sr6RhPb2,0.0,-0.0359407,
Pd4Sn6Pr,0.0,-0.0359403,
Ge3DyIr,0.0,-0.0359403,
ZnY2Tl,0.0,-0.0359391,
ScGeIr,0.0,-0.0359383,
ScNiPb,0.0,-0.0359383,
AlRu2Hf,0.0,-0.035938000000000005,
MgAg2Pb,0.0,-0.035938000000000005,
RhTe,0.0,-0.035938000000000005,
N6Ti2Th3,0.0,-0.035938000000000005,
MnCo2Hf2,0.0,-0.0359373,
SeSnDy,0.0,-0.0359366,
AgIn2Nd,0.0,-0.0359359,
AgCd2Er,0.0,-0.035935699999999994,
BPd6Lu2,0.0,-0.035935499999999995,
MgCdEu2,0.0,-0.0359354,
Ag2Sb2Ba,0.0,-0.0359342,
Fe2Te3Ta,0.0,-0.0359334,
Zn2PrPt,0.0,-0.0359318,
Nb6SnTe8,0.0,-0.0359317,
AlInEr2,0.0,-0.0359316,
MgRhHg,0.0,-0.0359313,
B2RuHf2,0.0,-0.0359308,
CuInTb2,0.0,-0.0359293,
MgRh2W,0.0,-0.0359291,
CuIn3Sn2Pr3,0.0,-0.035928800000000004,
Si2ErRe,0.0,-0.035928400000000006,
BeRh2Pt,0.0,-0.0359283,
Se2Ag2Pb,0.0387,-0.0359273,
OCuEr3,0.0,-0.035926900000000005,
Mo3InTe3,0.0,-0.0359258,
CSi3Lu5,0.0,-0.0359258,
Ga2Pd4Er3,0.0,-0.0359256,
As2InAu,0.0,-0.0359252,
Si2HoPt,0.0,-0.0359241,
FTeGd,0.264,-0.035923699999999996,
Zn2CdTm3,0.0,-0.0359236,
B2TcHf2,0.0,-0.0359232,
TiI6Cs2,0.7276,-0.0359232,
PSe3Er4,0.0,-0.0359231,
BrRu2La2,0.0,-0.035921,
Sn,0.0,-0.035920900000000006,
PdIn3Ba2,0.0,-0.0359204,
AsTe3Cs3,0.7328,-0.035920299999999995,
PdCdBa2,0.0,-0.035919,
Ag2SnLa,0.0,-0.0359183,
PI2Nd2,0.0,-0.0359182,
SeI6Cs2,0.6048,-0.0359181,
FeAs2La6,0.0,-0.035917700000000004,
Li3TbBi2,0.0,-0.0359175,
AlRuRhHf,0.0,-0.0359173,
GeRhPm2,0.0,-0.0359173,
Cd3Te4Cs2,1.5408,-0.035917000000000004,
S2SePa,0.0,-0.0359166,
YRu2Ce,0.0,-0.0359139,
Pd2SnTe3,0.0,-0.0359138,
H3PtTh,0.0,-0.035913200000000006,
Sr2Cd2Tl,0.0,-0.035913200000000006,
Co2In4Er3,0.0,-0.0359129,
Mo5Sb4,0.0,-0.035912599999999996,
Pd5Dy,0.0,-0.0359125,
ScY2Tl,0.0,-0.035912,
SI2Nd2,0.0,-0.035912,
Ni2InLu2,0.0,-0.035911700000000005,
Zn2LaPt,0.0,-0.035910899999999996,
PdInBa,0.0,-0.0359103,
GaTe2Ho,0.0,-0.0359099,
LiTi2Pt2,0.0,-0.0359097,
BNErIr,0.0,-0.035909300000000005,
GePr2,0.0,-0.035907600000000005,
CGeHo3,0.0,-0.0359071,
NiAs2Pr6,0.0,-0.0359071,
As2Pd2Tl,0.0,-0.0359065,
BeRh2W,0.0,-0.035905700000000006,
N2CaPu,0.0,-0.035905299999999994,
AlBr3Gd3,0.0,-0.0359052,
Zn2PrIr,0.0,-0.0359052,
NFSn2Nd6,0.0,-0.035905099999999995,
ZnRuTb2,0.0,-0.035905,
CuRbTe3Hf,0.0,-0.0359047,
O3Cs2Np,0.0,-0.0359045,
Si2PdEuAu,0.0,-0.0359045,
Be2AgAu2,0.0,-0.0359043,
ZrSbTe,0.0,-0.0359031,
ZnRu2Nd3,0.0,-0.0359028,
Pd2SbTe2,0.0,-0.0359024,
GeRuPm2,0.0,-0.0359022,
ZnSrIr,0.0,-0.035901699999999995,
HInTb3,0.0,-0.0359016,
B5Er2Os3,0.0,-0.0359007,
Cr4RePt,0.0,-0.0358988,
CInHo2,0.0,-0.0358988,
Ga2SnPb,0.0,-0.0358987,
Li2YTl2,0.0,-0.035898000000000006,
NiGe2Sn3Tm3,0.0,-0.035897899999999996,
FeGe3U,0.0,-0.0358975,
NFIn2Sm6,0.0,-0.035897399999999996,
Zn2LaIr,0.0,-0.0358973,
Se2AgIr,0.4595,-0.0358972,
RuIn5Tb,0.0,-0.0358964,
HMo3Ir,0.0,-0.035895699999999996,
GeRu3Sm2,0.0,-0.0358953,
Mn2Re,0.0,-0.0358948,
Ge3DyOs,0.0,-0.0358945,
Ge2RuIn3Dy3,0.0,-0.035893999999999995,
Al3SmPt2,0.0,-0.0358935,
PdIn8Sm2,0.0,-0.0358933,
HTc3Re,0.0,-0.0358932,
FeCu3Te4Tl2,0.0,-0.0358931,
C2I5Sm4,0.0,-0.0358929,
ZnLa3,0.0,-0.0358927,
Cd2SbLa,0.0,-0.035892099999999996,
Ni2BaIr,0.0,-0.035892099999999996,
InSnSb2,0.0,-0.0358919,
CRu2Sn2Dy2,0.0,-0.0358918,
FeCo2Hf2,0.0,-0.0358917,
O2TmAu,2.5324,-0.0358911,
ZnRhTb2,0.0,-0.0358911,
RhIn5Tb,0.0,-0.0358908,
B3CoW3,0.0,-0.035890700000000005,
SAg2I2Hg,1.0719,-0.03589,
In3Te4,0.0,-0.0358897,
Ge2W,0.0,-0.0358894,
Fe2GaAc,0.0,-0.0358892,
YPm,0.0,-0.0358891,
SILu,2.4069,-0.0358891,
Na2InHg2,0.0,-0.035888800000000005,
Ge2RhIn3Dy3,0.0,-0.0358886,
Al2EuPt,0.0,-0.035888500000000004,
Ga3Pd2Th,0.0,-0.0358875,
O4WTl2,3.0504,-0.0358869,
N2TmTa,0.0,-0.0358869,
CInCe3,0.0,-0.0358861,
Al3HoAu2,0.0,-0.0358845,
In2TeI2,0.0,-0.0358837,
Pd2In2Nd,0.0,-0.0358836,
Rh5Sm,0.0,-0.0358829,
B2Fe7Th3,0.0,-0.0358821,
Cu4Sn2Hf3,0.0,-0.0358821,
Si2TmAu,0.0,-0.0358819,
GeRh3Ce2,0.0,-0.0358817,
Tc8La,0.0,-0.035881300000000005,
Rb2I6Ho,0.0,-0.035880699999999995,
Mn2MoPt,0.0,-0.035880499999999996,
Cd3La2,0.0,-0.0358793,
LiGa2Pt2,0.0,-0.035879,
FeSb2Ho,0.0,-0.0358787,
CrFeRe,0.0,-0.0358786,
Ca2CuPt2,0.0,-0.0358777,
AlRbBi,0.0,-0.035877400000000004,
MgInTm2,0.0,-0.0358763,
AsSe3Dy4,0.0,-0.0358757,
NaIn2Tl,0.0,-0.0358756,
Mn2RuPt,0.0,-0.0358754,
AgIn2Pr,0.0,-0.0358754,
Se6In2Ta3,0.0,-0.035875300000000006,
Cl4AuTl2,0.0,-0.035875,
GeI6Cs2,0.0,-0.0358745,
Ag8Tl,0.0,-0.0358743,
SeDy,0.0,-0.0358723,
CuRu2La3,0.0,-0.035871600000000003,
V2MoOs,0.0,-0.035871099999999996,
RhCd2Tb,0.0,-0.035871099999999996,
CoAs2La6,0.0,-0.0358708,
PdI3,0.0,-0.0358706,
Ni2BaPt,0.0,-0.0358696,
ZrTeI,0.0,-0.035869399999999996,
CRu3Hf,0.0,-0.0358693,
HBr2Th,0.0,-0.035868899999999995,
GeMoTm,0.0,-0.0358685,
Si5Pr2Pt3,0.0,-0.035867800000000005,
AlCo2Pa,0.0,-0.035867800000000005,
NI2Sm2,0.0,-0.0358673,
AlSc2Au2,0.0,-0.0358665,
Al3Si2U2,0.0,-0.0358664,
Na2AgAu2,0.0,-0.035865900000000006,
ScY2Ir,0.0,-0.0358654,
BGa2YOs2,0.0,-0.0358652,
NbRh2Te3,0.0,-0.035864400000000005,
ScGeOs,0.0,-0.0358641,
LiRu2Re,0.0,-0.035864,
Cu2Te3Tl,0.0,-0.0358637,
Rh2InTe3,0.0,-0.0358632,
AgSbTe2,0.0,-0.035863,
SrI3Cs,3.6706,-0.0358626,
NZr3Ir,0.0,-0.0358623,
Se2ZrHg,0.0,-0.035861699999999996,
NiPd2Pr3,0.0,-0.0358614,
SeTe2Nd,0.0,-0.035860500000000003,
CSi2NdW2,0.0,-0.0358599,
NiITm,0.0,-0.0358596,
Al2Pd3Th,0.0,-0.0358593,
KAg2Tl,0.0,-0.035858600000000004,
RbI3Ba,3.5158,-0.0358583,
Rh2CdNd,0.0,-0.0358581,
Fe2In5Tb4,0.0,-0.035857999999999994,
AlZr2Ir,0.0,-0.0358575,
GeRh3Sm2,0.0,-0.0358574,
AlCdTm2,0.0,-0.0358574,
PdIn5Dy,0.0,-0.0358572,
BrInLa2,0.0,-0.0358562,
Al2LuAu,0.0,-0.035856099999999995,
MnSb2Dy,0.0,-0.035856099999999995,
AlRuHf,0.0,-0.035856,
Ge2Au,0.0,-0.035856,
K4Tl3,0.0,-0.0358558,
ScLa3,0.0,-0.0358551,
Ga4HoTa2,0.0,-0.035855,
Ni2ZnTh,0.0,-0.035854500000000004,
SeTe2La,0.0,-0.0358544,
CuPd2Nd3,0.0,-0.0358532,
Cu2ZnPa,0.0,-0.0358531,
BAl2SmOs2,0.0,-0.0358527,
Se3SbNd4,0.0,-0.0358523,
KGa6Pt4,0.0,-0.035851999999999995,
BrTeBa2,0.0,-0.035851,
ZnY2Ir,0.0,-0.035850700000000006,
OBrBi,2.1123,-0.035850299999999995,
LiRhCdPb,0.0,-0.035850099999999996,
Pd2Te3,0.0,-0.0358498,
MgZr2Pb,0.0,-0.0358493,
Al3Sn2Er3Re,0.0,-0.035848,
BAl2CeOs2,0.0,-0.0358477,
Ag2CdHo,0.0,-0.0358472,
Mn2ITm2,0.0,-0.0358471,
Co2Sn3Tb3,0.0,-0.035846699999999995,
YRh2Sm,0.0,-0.0358463,
NGd,0.0,-0.0358458,
AgIn2La,0.0,-0.0358457,
P2NiU,0.0,-0.0358456,
NaSrBi,0.24,-0.0358452,
Rh4CdTb,0.0,-0.0358446,
Al2Sm2Tl,0.0,-0.035844,
GeNbEu,0.0,-0.035844,
ZnY2Pt,0.0,-0.0358439,
GaRh2Lu,0.0,-0.0358439,
Se2RhHg,0.0,-0.0358436,
GaAgTb2,0.0,-0.03584300000000001,
GaPdLu,0.0,-0.03584300000000001,
Pd2In2Pr,0.0,-0.035842799999999994,
Ti6IrPb2,0.0,-0.0358425,
NaTe2Gd,0.7507,-0.0358425,
Nb2In4Ho,0.0,-0.035841,
NiTeLa2,0.0,-0.035840699999999996,
KCdHg,0.0,-0.0358406,
Cu2As2Np,0.0,-0.0358404,
Si2Tm3,0.0,-0.0358395,
Rh2AgLa,0.0,-0.0358382,
O4ITmBi2,1.4362,-0.0358367,
Mn2RhPt,0.0,-0.035836599999999996,
BCu2Pt2,0.0,-0.0358364,
Li2Sb2Th,0.4709,-0.0358354,
Li2InAu2,0.0,-0.0358343,
C2SnTm3,0.0,-0.035834200000000004,
Si4W3,0.0,-0.035833500000000004,
GeSb4Te7,0.1834,-0.0358333,
Fe2Te2Hg,0.0,-0.0358333,
As2YTl,0.0,-0.035833,
LiP2CePt2,0.0,-0.035832,
LiP2NdIr2,0.0,-0.0358312,
P3Pu,0.0,-0.0358309,
ScGePt,0.0,-0.0358308,
CoSb2Ho,0.0,-0.0358285,
BrRh2La2,0.0,-0.035827599999999994,
CaCd2Pt,0.0,-0.0358275,
SI2La2,0.0,-0.0358268,
V2RuOs,0.0,-0.035825699999999995,
Ca2CuIr2,0.0,-0.0358251,
ScI6Cs2,0.0,-0.035823999999999995,
S3AsLu4,0.0,-0.0358237,
Zn2SmAu,0.0,-0.0358237,
Ga2Dy3,0.0,-0.0358223,
Co5Ta3,0.0,-0.035822099999999996,
LiP2SmPt2,0.0,-0.035822,
TiSbTm,0.0,-0.035822,
NaIn2Pt,0.0,-0.0358218,
Pd2CdSm,0.0,-0.035821399999999996,
SrCd2Gd,0.0,-0.0358212,
NInDy2,0.0,-0.0358208,
BHf,0.0,-0.0358206,
S2RbTh,0.0,-0.035820500000000005,
Fe2Ir,0.0,-0.035819699999999996,
NiAs2La6,0.0,-0.0358194,
NaSc2Tl2,0.0,-0.0358194,
Rh7Dy,0.0,-0.0358192,
Ni2ZnLu3,0.0,-0.0358189,
Cu2TePb,0.0,-0.0358176,
PY2Tl,0.0,-0.035816299999999995,
CuAsTl,0.0,-0.0358159,
Fe4ReOs,0.0,-0.0358152,
C2TmW,0.0,-0.035815,
Fe2ITm2,0.0,-0.0358141,
SI2Pr2,0.0,-0.035813899999999996,
ScY2Pt,0.0,-0.0358136,
AgTe3,0.0,-0.0358136,
Pd2In2La,0.0,-0.0358132,
Ti6OsPb2,0.0,-0.0358132,
PI2Pr2,0.0,-0.0358125,
Rh4InNd,0.0,-0.035810699999999994,
GeLa2,0.0,-0.035810499999999995,
SeTe2Pr,0.0,-0.03581,
Mg2SrTl2,0.0,-0.0358098,
Al2NiPu,0.0,-0.0358097,
CSi2PrW2,0.0,-0.035809600000000004,
OSb2Ba4,0.5186,-0.035808799999999995,
PCeHo,0.0,-0.0358075,
ZnPd2Dy2,0.0,-0.0358075,
CSi2LaW2,0.0,-0.0358075,
YRh2Ce,0.0,-0.0358074,
AgCdSm,0.0,-0.0358068,
TiFeSnIr,0.0,-0.0358067,
Rh5Pm,0.0,-0.0358066,
Br3CsPb,1.85,-0.035806,
LiTe2Hf,0.0,-0.0358059,
S3SnTm4,0.0,-0.0358058,
MgPd2Tb3,0.0,-0.035803600000000005,
CoGe3U,0.0,-0.035803600000000005,
ZnRh2Tb2,0.0,-0.0358024,
Ca2ScPt2,0.0,-0.0358021,
Ga3Ge2Tm3Ir,0.0,-0.0358017,
As2RhHo2,0.0,-0.0358017,
NZr3Tl,0.0,-0.035801,
Rh8Er,0.0,-0.0358009,
HMo3Pt,0.0,-0.0358006,
O2EuAu,0.0,-0.0358,
Al3NdIr2,0.0,-0.0358,
BCMnNp,0.0,-0.0357996,
PI2La2,0.0,-0.035799,
CuGeEu2,0.0,-0.035799,
B2CNdIr2,0.0,-0.0357984,
Ge2InTm2,0.0,-0.0357982,
V2Re,0.0,-0.0357979,
Ge2AgIn3Ho3,0.0,-0.0357967,
CaIn5Ir,0.0,-0.035795499999999994,
AlPd2Er2,0.0,-0.035795099999999996,
KIn4Tl,0.0,-0.035794,
SiPm3,0.0,-0.035793599999999995,
Fe2Re,0.0,-0.035793399999999996,
GeZrLu,0.0,-0.0357933,
CdSnCs2,0.2047,-0.0357928,
O4IEuBi2,0.0,-0.035792700000000004,
ZnInGd,0.0,-0.0357914,
Cr4WOs,0.0,-0.0357904,
AsCsTb,0.0,-0.0357904,
Rh2CdLa,0.0,-0.035790100000000005,
Sr3BaPt,0.0,-0.035789,
MgInHg,0.0,-0.035788400000000005,
MnIEr,0.0,-0.0357879,
YRu2Sm,0.0,-0.0357875,
NZr3Pt,0.0,-0.0357872,
Mn2TcOs,0.0,-0.0357863,
V2TcRe,0.0,-0.0357857,
NZr3Os,0.0,-0.0357854,
GaY2Hg,0.0,-0.035784300000000005,
Be2TcTa2,0.0,-0.0357838,
LiP2PrIr2,0.0,-0.0357834,
Na2CdAu2,0.0,-0.0357831,
AgIn5Te8,0.264,-0.0357829,
Se2InHg,0.0,-0.035782800000000003,
Si2DyIr,0.0,-0.0357827,
Co2In5Tb4,0.0,-0.0357816,
RbSb2Ba2,0.0,-0.03578050000000001,
NiPd2Tb2,0.0,-0.035780099999999995,
GeSnEr,0.0,-0.03578,
V2RuIr,0.0,-0.035779899999999996,
Al3Sn2Er3Au,0.0,-0.0357798,
LiP2LaIr2,0.0,-0.035778700000000004,
Rh2Ba,0.0,-0.0357785,
AgIn5Er,0.0,-0.035778399999999995,
MgCdPt,0.0,-0.0357781,
N2ScU,0.0,-0.0357771,
Cu2RuHo3,0.0,-0.0357767,
SiDy2,0.0,-0.0357759,
B2CCePt2,0.0,-0.0357755,
CaAg2Au,0.0,-0.0357755,
Mn2As2Pa,0.0,-0.0357754,
MnGaIr,0.0,-0.0357748,
NAgHo2,0.0,-0.0357747,
Be2RuTa2,0.0,-0.0357744,
Cu2SbPb,0.0,-0.035774099999999996,
Ge4AgPt2,0.0,-0.0357735,
GePdPm2,0.0,-0.035772599999999995,
Co3SnHf2,0.0,-0.0357725,
CoAgTb2,0.0,-0.0357721,
Pd4CdHo,0.0,-0.035772,
MgCa2Pb2,0.0,-0.0357718,
CoY2Hg,0.0,-0.035771500000000005,
LiNi2Sb2U,0.0,-0.0357702,
PdSnTe,0.0,-0.03577,
Ca3Ge2PdTl3,0.0,-0.03577,
CaBa7,0.0,-0.0357682,
Si2Nd2Hg,0.0,-0.0357677,
OPZnNp,0.0,-0.035767099999999996,
FeIEr,0.0,-0.0357663,
GaRu2Lu,0.0,-0.0357659,
ZnRu2Tb2,0.0,-0.0357645,
Fe2Os,0.0,-0.0357642,
CaIn5Pt,0.0,-0.0357641,
Fe2Pt,0.0,-0.035764000000000004,
Ti6PtPb2,0.0,-0.0357636,
MgRu2Ta,0.0,-0.035763500000000004,
AgCdCe,0.0,-0.0357633,
CuAs2Pr6,0.0,-0.0357633,
Be2CdAu2,0.0,-0.035763199999999995,
Fe4ReIr,0.0,-0.0357617,
As3La5,0.0,-0.035761,
Zn3Pd2Np,0.0,-0.0357604,
AsBaCe,0.0,-0.0357598,
In2Sb2I,0.0,-0.0357592,
N6Fe2Th3,0.0,-0.035758899999999996,
LiP2DyAu2,0.0,-0.0357583,
B2CSmPt2,0.0,-0.0357579,
Cr4WIr,0.0,-0.035757399999999995,
Ag2Nd,0.0,-0.0357569,
GaCdGd,0.0,-0.0357568,
CuY2Au,0.0,-0.035756500000000004,
NInNd3,0.0,-0.0357559,
Se2Hf,0.2167,-0.0357558,
CoY3Pb,0.0,-0.0357552,
Se3SbLa4,0.0,-0.0357552,
AlZr2Tl,0.0,-0.035755,
Cr2RuIr,0.0,-0.0357535,
Cu3YAu2,0.0,-0.0357533,
Rh2CdPr,0.0,-0.0357533,
Ge3TbIr,0.0,-0.0357529,
Rh3In2La,0.0,-0.0357511,
BAl2TbRe2,0.0,-0.0357511,
Mg2AgHg2,0.0,-0.0357506,
Pd2CdCe,0.0,-0.0357498,
AsBr2Lu2,0.0,-0.0357496,
Ni2ZrBi,0.0,-0.0357495,
Rh3In2Pr,0.0,-0.0357494,
MgPd5Bi,0.0,-0.0357493,
Rb2I6Dy,0.0,-0.0357492,
MoTcSb,0.0,-0.035749,
Ga3Ge2Tm3Os,0.0,-0.0357485,
NaPd2Tl,0.0,-0.0357485,
Mn4WOs,0.0,-0.035747999999999995,
BRh6Tm2,0.0,-0.0357473,
PdIn8Nd2,0.0,-0.0357469,
Al2FeDy6,0.0,-0.035746299999999995,
SiI2Sm2,0.0,-0.0357457,
Cr2TcRe,0.0,-0.0357449,
Rb2Cd2Pb,0.0,-0.035744399999999996,
Cd2SbPm,0.0,-0.035744399999999996,
CaI4Ho,0.0,-0.0357434,
B3NiW3,0.0,-0.0357432,
Ge2PdIn3Dy3,0.0,-0.035742199999999995,
B2CPrIr2,0.0,-0.0357417,
Pd3Te4,0.0,-0.0357416,
Si2MnU,0.0,-0.035740900000000006,
CSiTm3,0.0,-0.0357408,
O2DyTl,1.519,-0.035740299999999996,
NFSn2Pr6,0.0,-0.035740299999999996,
Pd4Ce,0.0,-0.03574,
SiRu2Dy2,0.0,-0.0357399,
Al3PrIr2,0.0,-0.0357399,
AlZr2Pt,0.0,-0.0357392,
LiHg,0.0,-0.035739,
MnRu2Ce2,0.0,-0.0357383,
Pd4Sm,0.0,-0.0357376,
NOIn2Nd6,0.0,-0.0357375,
Al3NdPt2,0.0,-0.0357374,
BNNiNp,0.0,-0.0357371,
AlRhHf,0.0,-0.0357365,
NZnEr3,0.0,-0.0357361,
CoGePt,0.0,-0.0357357,
AgBa,0.0,-0.0357356,
AsPdEr,0.0,-0.0357355,
HRu3Ir,0.0,-0.035735300000000005,
Na2PdHg2,0.0,-0.0357348,
Ti3MnOs2,0.0,-0.0357346,
FeGeW,0.1833,-0.0357343,
MgPd2Pt,0.0,-0.0357341,
ClAsEu2,0.0,-0.0357339,
Se3SbPr4,0.0,-0.035732999999999994,
Al7Ag2U3,0.0,-0.035732799999999995,
GaSnPm2,0.0,-0.035732799999999995,
In2Sb3,0.0,-0.035732599999999996,
AlRh2Ho2,0.0,-0.035731900000000004,
Rh5Nd,0.0,-0.0357318,
Ni2As2U,0.0,-0.0357317,
Co2TmLu,0.0,-0.0357313,
Fe4IrPt,0.0,-0.0357313,
MgPd2Tm2,0.0,-0.035731200000000005,
Ti3FeOs2,0.0,-0.0357306,
Si2CoTb6,0.0,-0.0357296,
PZrHf,0.0,-0.035729300000000005,
NaAg2Pb,0.0,-0.035729300000000005,
N2SrTh,0.719,-0.035728,
RuSn4,0.0,-0.0357279,
FeGe2Nd6,0.0,-0.0357277,
Pd5Tb,0.0,-0.0357272,
SrIn2Tm,0.0,-0.0357263,
PdAgTe4,0.0,-0.0357262,
FeAgLa3,0.0,-0.03572549999999999,
Y2Sb2La,0.0,-0.0357246,