formula,bg,formation_energy,mp-id
GeBa2Hg,0.0,-0.042210500000000005,
AlCuU,0.0,-0.0422103,
NIGd2,0.0,-0.0422082,
Zr2InIr,0.0,-0.0422082,
RuAgEr2,0.0,-0.0422054,
Se2Rh3Pb2,0.0,-0.042204500000000006,
In2CeLu,0.0,-0.0422043,
ZnBaTl,0.0,-0.0422042,
Y2TeIr,0.0,-0.0422035,
Ag5Th,0.0,-0.0422034,
Y2SbTl,0.0,-0.0422033,
MgSr2Bi2,0.4698,-0.0422033,
SnTb,0.0,-0.0422031,
NFNp,0.0,-0.0422012,
CCe2Hg,0.0,-0.042200499999999995,
NPrIr,0.0,-0.0422002,
Al3RuTh2,0.0,-0.0421997,
Ca2PtPb,0.0,-0.0421996,
Ga2BaHg2,0.0,-0.0421995,
Fe2Ho2Pb,0.0,-0.042198900000000004,
NLaIr,0.0,-0.0421988,
SnNd3,0.0,-0.0421978,
NaIn2Au2,0.0,-0.0421976,
Fe3Hf2Pt,0.0,-0.0421969,
CoEr3,0.0,-0.0421952,
In2DyTm,0.0,-0.042194899999999994,
Te2CsEr,1.183,-0.0421926,
K2TlBi,0.48,-0.0421922,
Rh2In5Lu4,0.0,-0.0421922,
Si2PrOs2,0.0,-0.0421916,
CuRuGd2,0.0,-0.0421907,
Y2RuPb,0.0,-0.0421899,
Li2Hg3,0.0,-0.0421898,
ZnGaAu2,0.0,-0.042189,
AlSn4Pt2,0.0,-0.0421885,
GeTe3Ho4,0.0,-0.0421865,
ZnPrHg,0.0,-0.0421852,
KSrHg2,0.0,-0.042185099999999996,
C2Np,0.0,-0.042184,
BCd2Ir2,0.0,-0.042184,
ScDy5,0.0,-0.042184,
ClBa2Pb,0.0,-0.0421838,
Tc2Lu,0.0,-0.0421821,
NiPdGd2,0.0,-0.0421819,
GaPd2Hf2,0.0,-0.0421817,
Cd2GdLu,0.0,-0.042181199999999995,
CGe2Er2Re2,0.0,-0.042180999999999996,
NiSn2Dy6,0.0,-0.0421805,
Co2Y3Tl3,0.0,-0.0421805,
SiCeAu,0.0,-0.042179699999999994,
SrCdTl,0.0,-0.0421794,
CSi2Mo2Th2,0.0,-0.0421789,
AlCeIr,0.0,-0.0421787,
SnTeEr,0.0,-0.0421781,
ZnLaHg,0.0,-0.0421781,
Ge2Er2Hg,0.0,-0.0421769,
Rh2TbEr,0.0,-0.0421765,
Rh6Sb4Np,0.0,-0.042175899999999995,
MnTe2Tb6,0.0,-0.0421756,
NiPd2Lu3,0.0,-0.0421742,
SbLa2,0.0,-0.0421738,
Ga2PrAc,0.0,-0.042173699999999995,
Ru2In5Lu4,0.0,-0.0421736,
Ag2CdPb,0.0,-0.042173499999999996,
O2TeBi2,0.0,-0.0421725,
YPd2Tl,0.0,-0.042172400000000006,
RuPdHo2,0.0,-0.042169899999999996,
Ge2RbPb2,0.0,-0.0421698,
CuLu2,0.0,-0.0421695,
CuRhGd2,0.0,-0.0421694,
CaGa2Au3,0.0,-0.0421683,
RhAgEr2,0.0,-0.0421683,
AlY2Pt2,0.0,-0.0421678,
Ag2HoLu,0.0,-0.0421667,
AlCoPt2,0.0,-0.042165999999999995,
YRh2Pt,0.0,-0.0421642,
YIn2Pt,0.0,-0.042164,
Be2Hf2Pb,0.0,-0.042162700000000004,
Cd2Sb2Pb,0.0,-0.0421625,
AlSmIr,0.0,-0.0421623,
CuBaPt,0.0,-0.0421621,
YRhHf,0.0,-0.0421601,
Si2LaOs2,0.0,-0.042159999999999996,
CoIn5Pu,0.0,-0.0421582,
Br2Ce2Pb,0.0,-0.0421579,
MgDyPt,0.0,-0.0421556,
I2Ho,0.0,-0.0421554,
RuSbTm,0.0,-0.0421554,
ZrIn2Au,0.0,-0.042155200000000004,
In2Sn2Tl,0.0,-0.042155,
Y2RhPb,0.0,-0.0421538,
Ca3Sn4Ir4,0.0,-0.0421537,
SbSm,0.0,-0.0421537,
Zr2InTl,0.0,-0.042152999999999996,
OPb,1.1985,-0.0421528,
AlPr2Tl,0.0,-0.0421528,
AgTe2Gd,0.5451,-0.0421525,
ZnRu2Lu3,0.0,-0.0421518,
NiZnAu2,0.0,-0.0421517,
RhPdHo2,0.0,-0.0421507,
YIn2Ir,0.0,-0.0421485,
CGe2Tm2W2,0.0,-0.0421476,
GaHg,0.0,-0.042147399999999995,
Al3RhTh2,0.0,-0.0421466,
Pd3Pt,0.0,-0.0421462,
Ga2LaAc,0.0,-0.042143900000000005,
S2Te4W3,0.0604,-0.0421428,
SiTmHf,0.0,-0.0421425,
ZrNb2Re,0.0,-0.0421425,
PPrAu,0.0,-0.042142000000000006,
KScTl2,0.0,-0.042141399999999996,
RbBa3Ir,0.0,-0.0421402,
Si2HoAu2,0.0,-0.0421391,
Li4Nd3Bi4,0.0,-0.0421385,
Zn2RuHf3,0.0,-0.0421384,
In5EuIr,0.0,-0.0421382,
Ni2HfPt,0.0,-0.0421349,
AlSmPt,0.0,-0.042134700000000004,
Ru2TbEr,0.0,-0.0421338,
CrTe2Tb6,0.0,-0.0421336,
Ti2InPt2,0.0,-0.0421315,
Ge2Ru2Pa,0.0,-0.0421307,
Ge2In3Lu3Au,0.0,-0.0421307,
N2TbTh,0.0,-0.0421295,
CGe2Ho2Os2,0.0,-0.0421292,
FeTe2Tb6,0.0,-0.0421291,
Nb2RuTa,0.0,-0.0421281,
Mg3Au2Th,0.0,-0.042128,
InSbEu,0.0,-0.042126800000000006,
As2Te5Pb2,0.0,-0.042126,
BaLa3,0.0,-0.042126,
RhAg2Tl,0.0,-0.0421259,
Ca2CdBi2,0.0,-0.0421257,
Pd2InHg,0.0,-0.0421255,
Rh2CdPt,0.0,-0.042124699999999994,
Mo4Re,0.0,-0.0421241,
MnSnPt,0.0,-0.042124,
MgDyIr,0.0,-0.0421232,
N2PrPa,0.0,-0.042122799999999995,
MnSb2Tb6,0.0,-0.042122799999999995,
PLaAu,0.0,-0.0421225,
In2HoEr,0.0,-0.0421221,
Ga2CsAu2,0.0,-0.0421221,
Rh2CdW,0.0,-0.042122,
SiPm2Hg,0.0,-0.0421218,
KAsAu2,0.1804,-0.0421218,
ZnRh2Lu3,0.0,-0.042121000000000006,
OFNp,0.0,-0.0421186,
AlFeRe2,0.0,-0.0421184,
Si3AuPu,0.0,-0.042117800000000004,
Cd2Sn2Bi,0.0,-0.042117600000000005,
Y2SbPt,0.0,-0.042117400000000006,
SnTe3Sm4,0.0,-0.042115900000000005,
In2PmLu,0.0,-0.0421155,
ZnSbPb,0.0,-0.0421152,
Ga5Pt2Pu,0.0,-0.0421146,
Al2DyPt2,0.0,-0.042114,
LiRh2Th,0.0,-0.0421133,
CoTa,0.0,-0.042112699999999996,
Si2NdPt2,0.0,-0.042110999999999996,
ZnZr3Ir2,0.0,-0.0421108,
Cd2SnIr,0.0,-0.0421103,
AlLa2Tl,0.0,-0.042109299999999995,
Ru2Lu,0.0,-0.0421086,
AlNiIr2,0.0,-0.042107900000000004,
Al2Pu,0.0,-0.042104100000000005,
Zr6PdBi2,0.0,-0.042104100000000005,
CCdHf2,0.0,-0.0421037,
NaSn2Ac,0.0,-0.042103299999999996,
As4Re3,0.0,-0.0421027,
Y2LaHg,0.0,-0.0421019,
RuPd2Ho3,0.0,-0.0421005,
Ni2Y3Tl3,0.0,-0.0421004,
RhSbTm,0.0,-0.042099,
B2HoIr2,0.0,-0.042099,
MgNdPb,0.0,-0.0420969,
SeIAu,0.7628,-0.0420965,
TiTe2Pb,0.0,-0.0420954,
BrHf,0.0,-0.04209449999999999,
InCe3,0.0,-0.042094099999999995,
P2NdPt2,0.0,-0.042094,
Rh4LaTl,0.0,-0.042092700000000004,
TcSm3,0.0,-0.042092399999999995,
AlSrHg2,0.0,-0.0420921,
SbCe,0.0,-0.0420912,
BRu3Th,0.0,-0.042091,
AsCdPb,0.0,-0.042091,
I3CsEu,0.7369,-0.0420896,
SiDyTa,0.0,-0.042088900000000005,
SrI4Pb,2.7439,-0.0420876,
Se3Tb4Pb,0.0,-0.0420876,
Rh4Pb,0.0,-0.0420862,
NiIn5Pu,0.0,-0.0420859,
Se4HgTl2,0.0,-0.0420831,
Pd2SnTm2,0.0,-0.0420829,
In3BaHg,0.0,-0.0420822,
CrSb2Tb6,0.0,-0.0420813,
ZnRh2Hf2,0.0,-0.0420801,
In3Ba2Au,0.0,-0.042079099999999994,
CoTe2Tb6,0.0,-0.0420786,
InSm3,0.0,-0.0420767,
LiAsTl2,0.0,-0.0420762,
AlCePt,0.0,-0.0420757,
In3CsIr,0.0,-0.0420748,
As2La6Pt,0.0,-0.0420743,
Zr2TcAu,0.0,-0.042073,
Al2TmAu2,0.0,-0.0420724,
PNiTh,0.0,-0.042072200000000004,
Cd2CsAu,0.0,-0.0420721,
K3Pd4Pb4,0.0,-0.0420715,
Co2Ho2Pb,0.0,-0.0420711,
B2HoOs2,0.0,-0.042071,
O2U,0.0,-0.0420677,
Zr2RuAu,0.0,-0.0420676,
Sn3Gd,0.0,-0.0420667,
AlBrTh,0.0,-0.042065899999999996,
NAlHf3,0.0,-0.0420652,
Zn2IrAu,0.0,-0.0420638,
Zr6InBi2,0.0,-0.042062600000000006,
ScTiHg2,0.0,-0.0420624,
ScRuPb,0.0,-0.042061799999999996,
Y2SbIr,0.0,-0.042061100000000004,
RuSn2Sm6,0.0,-0.0420605,
Ga2InTl2,0.0,-0.0420582,
FeSb2Tb6,0.0,-0.0420576,
Ge2Sn3Tm3Os,0.0,-0.0420575,
Ru2DyHo,0.0,-0.0420575,
RbBa3Au,0.0,-0.0420572,
Mn5Ir4,0.0,-0.0420571,
Ag2Te2Tl,0.0,-0.042056800000000005,
CSiNdOs2,0.0,-0.0420565,
Ni2Ho3Au,0.0,-0.042054900000000006,
SiCdTe4Tl2,0.457,-0.0420542,
AsCs2Pt,0.0,-0.042053400000000005,
Sn2CeHo,0.0,-0.0420531,
As2Ru2Th,0.0,-0.0420531,
Si3OsNp,0.0,-0.042052799999999994,
Sn3Te4Bi,0.0,-0.0420525,
P2LaPt2,0.0,-0.0420523,
InLa7,0.0,-0.0420513,
Si2PrPt2,0.0,-0.042050199999999996,
NiEr3,0.0,-0.0420496,
NSi3Ta5,0.0,-0.042049300000000005,
Sb3Nd4,0.0,-0.042049100000000006,
Rh4TbHg,0.0,-0.042048999999999996,
Te4Cs3Ta,1.4918,-0.0420473,
Zr2InPt,0.0,-0.0420463,
H2Lu3Pb,0.0,-0.042046,
GaSb2Tb6,0.0,-0.0420456,
Ru4Ir,0.0,-0.042045400000000004,
P2PrPt2,0.0,-0.0420444,
Zr2MoRe,0.0,-0.0420439,
Mn2CdPt2,0.0,-0.0420414,
Pd2Sn3Tm3,0.0,-0.0420407,
CaLa2Os,0.0,-0.0420398,
In5EuOs,0.0,-0.0420398,
In4SmIr,0.0,-0.042038400000000004,
CaZn2Pt3,0.0,-0.042037700000000004,
Pd4HoHg,0.0,-0.042037399999999996,
TiSbPt,0.0,-0.0420367,
Te2Dy,0.0,-0.042034,
PNiPt2,0.0,-0.042031,
Pd2Te3Tl,0.0,-0.0420308,
MgCaPb2,0.0,-0.04203,
Zn2PtAu,0.0,-0.0420295,
In3Hg,0.0,-0.0420282,
Se2CdAu2,0.0,-0.0420267,
Zr2PdPt,0.0,-0.042026400000000005,
HSePa,0.0,-0.042025599999999996,
Pd3W,0.0,-0.0420253,
RuTe2Nd6,0.0,-0.0420242,
Co2Ho3Hg,0.0,-0.042023899999999996,
Mg2BaBi2,0.4851,-0.0420238,
OZr2Hg2,0.0,-0.0420226,
ZrCd2Pb,0.0,-0.0420226,
NiTe2Tb6,0.0,-0.0420213,
AgTe4Pt,0.0,-0.0420207,
In3Sn2Pr3Au,0.0,-0.0420207,
Ti2PdPt2,0.0,-0.0420203,
CdIn2Lu2,0.0,-0.0420201,
Si2LaPt2,0.0,-0.0420188,
Zn2BaPt2,0.0,-0.0420188,
AlGd2,0.0,-0.042018700000000006,
Rh2Sn2Au,0.0,-0.0420185,
C3Mo2Th2,0.0,-0.0420183,
MgPrPb,0.0,-0.0420182,
Rb2CdAuHg,0.0,-0.04201680000000001,
AlScPt2,0.0,-0.0420158,
NbTc2Hf,0.0,-0.042015300000000005,
CaAg2Hg2,0.0,-0.0420152,
RhTe2Nd6,0.0,-0.0420151,
Al3Si2ZnNp3,0.0,-0.042014699999999995,
RuITm,0.0,-0.0420142,
KAg2Au2,0.0,-0.0420141,
SiCuPa,0.0,-0.0420139,
LiPm2Pb,0.0,-0.0420125,
I3Tm,2.8383,-0.0420125,
Rh2SmEu,0.0,-0.042012,
NClU,0.0,-0.042011400000000004,
FeNiTa2,0.0,-0.0420113,
In2NdLu,0.0,-0.0420102,
Zn2BaIr2,0.0,-0.0420098,
ScSbPt,0.6724,-0.042009,
SnPr3,0.0,-0.0420062,
AgTm,0.0,-0.0420057,
YTb3,0.0,-0.042005299999999995,
Co2InPa,0.0,-0.042005299999999995,
Se2AgAu2,0.0,-0.0420051,
SiNdRe,0.0,-0.0420044,
Pd4Tm3,0.0,-0.042003399999999996,
TiPdPb,0.3934,-0.0420033,
TcAgEr2,0.0,-0.042002899999999996,
ScRhPb,0.0,-0.0420023,
RhIn3Sn2Lu3,0.0,-0.0420022,
Mn2Er2Tl,0.0,-0.042001,
Te4CsGd,0.0,-0.042000300000000004,
Se4Pt3,0.0,-0.041999800000000004,
Ga2InIr2,0.0,-0.0419992,
Co2Dy3Pt,0.0,-0.041998600000000004,
CuAs2Pu,0.0,-0.041998,
LiZr2Ir2,0.0,-0.0419974,
In3IPt,0.0,-0.0419973,
MgGeIr2,0.0,-0.0419957,
P2RhPu,0.0,-0.0419956,
CoSb2Tb6,0.0,-0.041993,
SIBi,1.5318,-0.041992600000000005,
NbSnLu,0.0,-0.0419923,
Zn2PmTh,0.0,-0.0419913,
TeNd,0.0,-0.0419907,
Fe2Er2Tl,0.0,-0.0419894,
SeSnAu,0.0,-0.0419893,
Pd2CdEr3,0.0,-0.0419893,
Ga2BrBi2,0.0,-0.041987000000000003,
Ru2CeTm,0.0,-0.041986499999999996,
In2I2Hg,0.0,-0.041984900000000006,
Rb2AgHg2,0.0,-0.0419836,
Ag2EuEr,0.0,-0.041982900000000004,
GaBa2Ir,0.0,-0.0419823,
CSiPrOs2,0.0,-0.0419822,
GeTeAu,0.0,-0.0419814,
Zr2RhAu,0.0,-0.0419813,
Y2InPb,0.0,-0.0419808,
AlY2Os2,0.0,-0.0419806,
ScTeIr,0.0,-0.0419784,
P2MnLu6,0.0,-0.0419778,
AlLa2Ir,0.0,-0.041975099999999994,
NaCd2Tl2,0.0,-0.0419736,
MgLaPb,0.0,-0.0419721,
As2LuAu,0.0,-0.041970799999999996,
GeNbIr,0.5858,-0.0419703,
In3IIr,0.0,-0.0419695,
Cd2EuTm,0.0,-0.041968200000000004,
Te5Hf,0.0,-0.041968000000000005,
CoBa2Ir,0.0,-0.041967700000000004,
SiZnIr2,0.0,-0.041967199999999996,
SbTeDy,0.0,-0.0419646,
SbTe3Nd4,0.0,-0.0419623,
CaLaPt,0.0,-0.041961599999999995,
AgCd2Pb,0.0,-0.0419611,
AlCeOs,0.0,-0.041960700000000004,
AgIn2Au,0.0,-0.0419587,
Ge2Dy2Tl,0.0,-0.0419577,
SrSn2Ir,0.0,-0.041955,
S4SnTePb4,0.119,-0.0419536,
Se4NbTl3,1.7867,-0.041953000000000004,
SrSn2Pt,0.0,-0.041952800000000005,
PCaU,0.0,-0.0419515,
Sb2Ho,0.0,-0.041949,
In5LuAu,0.0,-0.041949,
KLa2Ir,0.0,-0.041948900000000004,
LiZnPb2,0.0,-0.0419476,
S2IrPb,0.0,-0.0419473,
Ru2InHf,0.0,-0.0419471,
MgHoAu,0.0,-0.041947000000000005,
NbRu2Hf,0.0,-0.041946800000000006,
Al3PdTh2,0.0,-0.0419459,
H2Ta2Au,0.0,-0.0419456,
AlLa2Pt,0.0,-0.0419452,
CuZnAu2,0.0,-0.041945,
HGaHf3,0.0,-0.041943600000000004,
Pd7U,0.0,-0.0419429,
Pd2In2Pb,0.0,-0.0419429,
ScSbIr,0.0,-0.0419425,
In2TbTm,0.0,-0.0419416,
Ca2SnPb2,0.0,-0.041941400000000004,
In2PrLu,0.0,-0.0419403,
FIn2Hg2,0.0,-0.0419403,
Sn2PmHo,0.0,-0.0419398,
MgSm2Tl,0.0,-0.0419381,
PI2Gd2,0.0,-0.041936100000000004,
SiNdAu,0.0,-0.041936,
In2Tb3,0.0,-0.041935400000000005,
Ag2Sn2Pb,0.0,-0.0419347,
Ag2SbHg,0.0,-0.041933399999999996,
Pd6Sb4Pu,0.0,-0.0419326,
SrInHg,0.0,-0.0419323,
NiSb2Tb6,0.0,-0.041931600000000006,
Pd3Au,0.0,-0.041930999999999996,
CSiLaOs2,0.0,-0.0419298,
Zr2InRe,0.0,-0.0419298,
TeLa,0.0,-0.0419282,
Zr3In3Au2,0.0,-0.0419272,
S2AuBi,0.5887,-0.0419265,
RhITm,0.0,-0.041926200000000004,
Al2Dy6Pt,0.0,-0.0419255,
H2Hf2Pb,0.0,-0.0419254,
Y2Hg,0.0,-0.0419239,
AlPd2Ac,0.0,-0.0419223,
PdHo,0.0,-0.041920900000000004,
MgTbTl,0.0,-0.0419195,
Mo3Hf,0.0,-0.0419195,
CoSbLu2,0.0,-0.041918500000000004,
ZrRh2Ta,0.0,-0.041918199999999996,
Ga3Dy2Ir2,0.0,-0.0419179,
Si2DyAu2,0.0,-0.0419169,
Si3PtNp,0.0,-0.041916600000000005,
CoRbTe3Th,0.0,-0.0419154,
Br2Nd2Pb,0.0,-0.0419152,
CuPdGd2,0.0,-0.0419138,
Cd2SnLu2,0.0,-0.041912399999999995,
ZrSbLu,0.0,-0.0419123,
In4NdIr,0.0,-0.0419115,
Se2HoTl,1.0238,-0.0419102,
RuSb2Nd6,0.0,-0.0419101,
Al2TbPt2,0.0,-0.0419099,
AlNiPt2,0.0,-0.0419097,
Zn2HoAc,0.0,-0.0419076,
AgTb2,0.0,-0.0419058,
N2Sn3Tm7,0.0,-0.0419058,
SiMnTh,0.0,-0.041904699999999996,
As2SrTl2,0.0,-0.041904699999999996,
YAg2Pb,0.0,-0.0419046,
PdAgEr2,0.0,-0.0419044,
Zr6NbBi2,0.0,-0.0419043,
Ca2AuPb,0.0,-0.0419042,
GeI2Lu2,0.0165,-0.041903300000000004,
MgBi,0.0,-0.0419026,
Co3Hf2Os,0.0,-0.0419018,
In2LaLu,0.0,-0.0419009,
SiFeTh,0.0,-0.041900799999999995,
RhSb2Nd6,0.0,-0.041900799999999995,
Zr2PdRe,0.0,-0.0419003,
Rh2SmTm,0.0,-0.0419,
CuInGd2,0.0,-0.0418998,
SeCs2Hg,1.6493,-0.0418992,
CuBa2Tl,0.0,-0.041899099999999995,
SiPrRe,0.0,-0.0418988,
RuRh2Hf,0.0,-0.0418973,
Ru2CdTa,0.0,-0.0418949,
AgSnHo2,0.0,-0.0418944,
CaLaIr,0.0,-0.0418935,
ScY2Hg2,0.0,-0.04189180000000001,
Ag2SnAu,0.0,-0.04189180000000001,
PdTe2Nd6,0.0,-0.0418917,
AsCs2Au,0.7321,-0.041891599999999994,
CLa3Hg,0.0,-0.0418913,
SClU,0.0,-0.041888100000000004,
Sr2Bi,0.0,-0.0418879,
Ag2Sb2Tl,0.0,-0.041886200000000005,
NaSrAu2,0.0,-0.041886099999999996,
Ga2InPt2,0.0,-0.0418858,
TePr,0.0,-0.041884700000000004,
PTe3Er4,0.0,-0.0418813,
Cu2Er2Pb,0.0,-0.0418791,
AsTe2Tl,0.0,-0.041878900000000004,
SbTe3La4,0.0,-0.0418766,
AlAsW2,0.0,-0.0418766,
NaCaPb2,0.0,-0.0418765,
SnLa3,0.0,-0.041876399999999994,
AlSmOs,0.0,-0.0418757,
AsTe3Dy4,0.0,-0.0418742,
MgGePt2,0.0,-0.0418735,
As2RuHo6,0.0,-0.041873,
CuIn5Pu,0.0,-0.041872900000000005,
Ge2Pd2U,0.0,-0.041872900000000005,
LiZr2Pt2,0.0,-0.041872,
AgInEr2,0.0,-0.0418711,
ScHg,0.0,-0.041871000000000005,
BRh3Th,0.0,-0.0418699,
CaSr2Pb2,0.0,-0.0418698,
SiGeAu2,0.0,-0.0418697,
I4BaEu,0.6948,-0.0418688,
Ru2InTm2,0.0,-0.0418684,
Ru4Pt,0.0,-0.0418667,
MgSiPu,0.0,-0.0418664,
Ge2Rh2Pa,0.0,-0.041865900000000004,
Te2CsHo,1.1409,-0.0418658,
ClLa2Hg,0.0,-0.0418645,
Ag2DyLu,0.0,-0.0418643,
Co2Er2Tl,0.0,-0.0418642,
B2DyIr2,0.0,-0.0418634,
Zr2SnHg,0.0,-0.0418631,
Al2Mn4Th3,0.0,-0.041861199999999994,
CSiSmRe2,0.0,-0.0418605,
Zr2NbOs,0.0,-0.0418602,
Ru2SmTm,0.0,-0.0418597,
CuTe2Tb6,0.0,-0.041857700000000005,
Te3Tm,0.0,-0.0418561,
AgSb2Gd,0.0,-0.0418555,
Sc2RbBi2,0.0,-0.0418553,
ScW,0.0,-0.0418546,
SeTe2Tl,0.0,-0.0418542,
Ru2AgHo3,0.0,-0.041854100000000005,
Rh2InTm2,0.0,-0.041854100000000005,
RuSb2Lu,0.0,-0.041853499999999995,
Rb2CdHg2,0.0,-0.0418534,
SbTe3Pr4,0.0,-0.0418519,
BeVOs2,0.0,-0.0418515,
Cu2Sn2Np,0.0,-0.0418509,
Se2Pd3Pb2,0.0,-0.041850700000000005,
C2Tm3Tl,0.0,-0.041850200000000004,
Ge2LuOs,0.0,-0.041850200000000004,
In5TmIr,0.0,-0.04185,
MnAs2Np,0.0,-0.0418498,
Mo4W,0.0,-0.0418495,
Rh7Th,0.0,-0.0418477,
LiIn2Au2,0.0,-0.0418476,
RuTe2Pr6,0.0,-0.0418473,
As2Rh2Th,0.0,-0.0418471,
PdIn3Sn2Lu3,0.0,-0.041847,
Ru2SnEr2,0.0,-0.041845999999999994,
Rh3Hf,0.0,-0.041844700000000006,
Be2Ta3,0.0,-0.0418446,
Pd4DyHg,0.0,-0.0418445,
Ga3LuIr2,0.0,-0.0418425,
SiPrAu,0.0,-0.0418425,
SrIn5Pt2,0.0,-0.0418419,
RhTe2Pr6,0.0,-0.041841,
Rh2Lu,0.0,-0.041840800000000004,
RuLa5,0.0,-0.0418406,
SeTeTa,0.0,-0.041840499999999996,
ZnBaPt,0.0,-0.04184,
Sn2Tm,0.0,-0.0418396,
Rh2CeTm,0.0,-0.0418396,
AlPm2Au,0.0,-0.0418394,
In4LaIr,0.0,-0.0418392,
In2SmEu,0.0,-0.0418388,
Sn2Sm3,0.0,-0.0418387,
As2RhHo6,0.0,-0.0418382,
In4PrIr,0.0,-0.0418379,
Ga2PdPa,0.0,-0.041837400000000004,
ZrMo2Ta,0.0,-0.0418371,
NiIn4Pt2,0.0,-0.0418371,
Si4Sm3Au4,0.0,-0.0418362,
MgMnPt2,0.0,-0.0418362,
ZnRuGd2,0.0,-0.0418356,
AlLa2Os,0.0,-0.0418342,
CaCd2Th,0.0,-0.041834,
B2DyOs2,0.0,-0.0418334,
BeCrOs2,0.0,-0.041831400000000005,
Ag2Hf,0.0,-0.0418313,
In2DyEr,0.0,-0.0418304,
SiLaRe,0.0,-0.0418292,
Y2TeAu,0.0,-0.0418281,
Br2La2Pb,0.1372,-0.0418276,
Ni2Ho2Pb,0.0,-0.0418264,
AsRhPt,0.0,-0.0418262,
ClTeBi,1.2868,-0.0418262,
BeMnOs2,0.0,-0.0418261,
SbICe2,0.0,-0.0418233,
KCd2Au2,0.0,-0.041822899999999996,
MnSe2Tm6,0.0,-0.0418227,
AsZrIr,0.4814,-0.0418226,
Br2Pr2Pb,0.0,-0.0418221,
LiTb2Au,0.0,-0.041822000000000005,
AsSbHg,0.0,-0.0418219,
MgMnIr2,0.0,-0.0418219,
Rh2TbHo,0.0,-0.0418211,
RhLa5,0.0,-0.0418209,
GeSr2Pt2,0.0,-0.041820300000000005,
Zn2Tm2Pb,0.0,-0.0418189,
Rh2SnEr2,0.0,-0.0418188,
CaGaAu2,0.0,-0.0418175,
LiNd2Pb,0.0,-0.0418174,
K2RhBi2,0.0,-0.0418167,
Cu2Y3Tl3,0.0,-0.0418163,
PdSbTm,0.0,-0.0418161,
GaAgGd2,0.0,-0.0418157,
Al3ZnGe2Pa3,0.0,-0.0418155,
SnI2Tb2,0.0,-0.0418153,
SbTeLa2,0.0,-0.0418151,
AlNdIr,0.0,-0.0418129,
CuBaAu,0.0,-0.041812199999999994,
BrIHg,1.916,-0.0418107,
Si2RuPu,0.0,-0.0418106,
S2InPu,0.0,-0.0418094,
Si2CeRe2,0.0,-0.0418091,
CuZnTh,0.0,-0.041808700000000004,
ZnRhGd2,0.0,-0.0418081,
In5EuAu,0.0,-0.0418058,
SiLaAu,0.0,-0.041804900000000006,
Rh2CdAu,0.0,-0.0418044,
Co7Pt6,0.0,-0.041804,
BeMnIr2,0.0,-0.0418035,
Rh2InHf,0.0,-0.0418025,
TiSnPt,0.8082,-0.0418025,
CGe2Ho2Re2,0.0,-0.0418008,
MgTbPt,0.0,-0.0418005,
In4Pb,0.0,-0.0418005,
MnAs2Tm6,0.0,-0.0417992,
Al4Si2Au3Th2,0.0,-0.0417982,
InHo,0.0,-0.041797400000000005,
NaPd2Au2,0.0,-0.041796599999999996,
O2IPbBi,1.7382,-0.0417965,
YRh2Au,0.0,-0.0417965,
SiBa2Pb,0.0,-0.0417958,
MgTiIr2,0.0176,-0.0417948,
CGe2Dy2Os2,0.0,-0.0417947,
Zr2MoAu,0.0,-0.0417942,
GeSr2Ir2,0.0,-0.0417936,
In5TmPt,0.0,-0.041793199999999996,
RuRh2Dy3,0.0,-0.0417927,
AlNdPt,0.0,-0.0417922,
K2InBi2,0.0,-0.0417922,
CdSn2Tm2,0.0,-0.0417915,
S2RbAu3,1.3485,-0.041791299999999997,
Al2ErAu2,0.0,-0.0417904,
Se3U,0.0,-0.041787599999999994,
BInLu3,0.0,-0.0417851,
Sn5BaIr,0.0,-0.0417836,
RhDy,0.0,-0.0417834,
RuRhDy2,0.0,-0.041783299999999995,
I2Dy,0.0,-0.0417832,
Cr5Re4,0.0,-0.0417831,
TiSnIr,0.0,-0.0417829,
CuSb2Tb6,0.0,-0.0417823,
Ag2Cd3Th,0.0,-0.041782,
RhCd2Tl,0.0,-0.041781399999999996,
PdSb2Nd6,0.0,-0.041781399999999996,
Ga2PdPt2,0.0,-0.0417809,
Ge2Ru3Np,0.0,-0.0417795,
B2AlSc2Ir5,0.0,-0.0417792,
Ru2TbHo,0.0,-0.041777299999999996,
Pd2SnHf,0.0,-0.041777,
FeSe2Tm6,0.0,-0.0417763,
AlAg2Th,0.0,-0.0417755,
Rh2Sn2Hg,0.0,-0.04177429999999999,
NSBa6Pb2,0.0,-0.041773899999999996,
Ru2RhDy3,0.0,-0.0417734,
Cd2Cs2Tl,0.0,-0.0417732,
ZnAg2Ac,0.0,-0.041772199999999995,
RuTe2La6,0.0,-0.0417717,
AlSiNp,0.0,-0.0417714,
BeCrIr2,0.0,-0.0417713,
SrSb2Hg,0.0,-0.041770600000000005,
Co2SnTh,0.0,-0.0417704,
MgErHg,0.0,-0.0417694,
Rh2In5Th,0.0,-0.0417684,
In5TmOs,0.0,-0.041767200000000004,
MgTbIr,0.0,-0.0417663,
Ag2InPt,0.0,-0.041766199999999996,
MgCrIr2,0.0,-0.041765500000000004,
Sn2CeDy,0.0,-0.041765500000000004,
NaBi,0.0,-0.041764699999999995,
K2PdBi2,0.1578,-0.0417636,
AgCdTm2,0.0,-0.0417624,
Pd3Hg,0.0,-0.0417613,
Br3U,0.0,-0.041761200000000005,
RbTe2Au,0.8001,-0.0417607,
Zr2Pd2Bi,0.0,-0.041760599999999995,
RhTe2La6,0.0,-0.04176,
FeAs2Tm6,0.0,-0.041759500000000005,
Sr3Au2,0.0,-0.041759,
ScZrBi,0.0,-0.041758699999999996,
Ni2Ho3Hg,0.0,-0.0417575,
Zr6AgBi2,0.0,-0.0417566,
SnTe4Hf,0.0223,-0.0417564,
KRb2Bi2,0.0,-0.041755400000000005,
PdTe3CsHf,0.0,-0.0417541,
Fe5Ir4,0.0,-0.041754,
SiLa2Hg,0.0,-0.041753399999999996,
NaNdPb,0.0,-0.041752899999999996,
RhTeEr,0.0315,-0.0417528,
SrPdHg,0.0,-0.0417522,
AsI2Eu2,0.0,-0.0417513,
SrCdPt,0.0,-0.0417492,
CuTeTl,0.0,-0.0417484,
SnTeHo,0.0,-0.041748,
SnTe4Cs2Hg,0.567,-0.0417471,
SrRhHg,0.0,-0.041747,
AlNbHf2,0.0,-0.0417467,
SbNd,0.0,-0.0417463,
CoSe2Tm6,0.0,-0.0417453,
O4ThNp,0.0,-0.0417429,
ZnInBi,0.0,-0.041742600000000005,
ScCuHg2,0.0,-0.0417398,
CaLa2Au,0.0,-0.0417391,
SiTbTa,0.0,-0.041739,
RuDy,0.0,-0.041738700000000004,
Pd2CdPt,0.0,-0.0417384,
CrTe2Tl,0.0,-0.041737699999999996,
ZrIn2Hg,0.0,-0.0417376,
GaTa,0.0,-0.0417371,
Al3GeU2,0.0,-0.0417359,
Zn2LaHg2,0.0,-0.0417336,
SiZn3Pa2,0.0,-0.0417312,
In2PmEu,0.0,-0.0417303,
Sc2InIr2,0.0,-0.041728,
CGe2Er2W2,0.0,-0.0417278,
Pd3Ta,0.0,-0.041727600000000004,
Ni2Dy3Pt,0.0,-0.0417271,
SnTe3Nd4,0.0,-0.041727,
AgTe3CsTa,0.0,-0.0417267,
Zr2Rh2Pb,0.0,-0.041726599999999996,
ZnPd2Lu3,0.0,-0.0417265,
RuSb2Pr6,0.0,-0.0417263,
Ti2CdIr2,0.0,-0.0417263,
Si2TbAu2,0.0,-0.0417256,
CNd2Hg,0.0,-0.0417254,
SiCoTh,0.0,-0.0417243,
AlTe2Dy6,0.0,-0.0417242,
OBa3Pb,0.0,-0.0417242,
RbBa3Hg,0.0,-0.0417238,
Cu2Tm2Tl,0.0,-0.0417219,
InLa5,0.0,-0.0417218,
C2Er3Pb,0.0,-0.0417218,
KLa2Os,0.0,-0.0417211,
MgPm2Tl,0.0,-0.041720999999999994,
RhSb2Pr6,0.0,-0.041720999999999994,
PdTe2Pr6,0.0,-0.0417205,
CaCd2Hg2,0.0,-0.041719900000000004,
K2PtBi,0.0,-0.0417187,
Ru2PmTm,0.0,-0.0417181,
ScPdPb,0.0,-0.0417179,
PBrHg2,0.4969,-0.0417178,
As2SrIr2,0.0,-0.0417177,
Rh2Sn3Er3,0.0,-0.0417173,
S3SePt4,0.32,-0.041717,
Te2Tb,0.0,-0.041716,
SSe2Bi2,0.0965,-0.0417143,
NiCdBi,0.0,-0.0417142,
Se2RbTl2,0.0,-0.041714100000000004,
CuIn4Pt2,0.0,-0.041713,
Te5Ho2,0.0,-0.041713,
Cd2HoLu,0.0,-0.0417126,
RhSb2Lu,0.0,-0.04171179999999999,
OAlHf3,0.0,-0.0417091,
TcLa5,0.0,-0.0417085,
Li2HfAu2,0.0,-0.041708300000000004,
GeSe2TePb2,0.4772,-0.0417054,
RhInLu,0.0,-0.041704099999999994,
Ru2CdHo3,0.0,-0.0417035,
Zn2SbTl2,0.0,-0.0417031,
N2NbPu,0.0,-0.0417029,
NiBa2Ir,0.0,-0.0417015,
CoAs2Tm6,0.0,-0.0417008,
Sc2TaRe,0.0,-0.0416999,
ZrPd2Hg,0.0,-0.0416993,