formula,bg,formation_energy,mp-id
AlSbPt5,0.0,-0.0571991,
Sn2Hg2Bi,0.0,-0.057198900000000004,
HPt3Tl,0.0,-0.057196399999999994,
SnBi,0.0,-0.0571949,
Tb5Pu,0.0,-0.0571924,
CoWRe2,0.0,-0.0571917,
AgTmTl2,0.0,-0.0571894,
CdPt2,0.0,-0.0571867,
BDyIr4,0.0,-0.057186100000000004,
SiI2Pa2,0.0,-0.0571822,
La2IrHg,0.0,-0.0571811,
AsLaAu4,0.0,-0.0571804,
SnHfPt,0.0,-0.0571766,
RhErPt2,0.0,-0.0571745,
GaHgTl2,0.0,-0.0571731,
SnDyPt2,0.0,-0.0571725,
ZnNdPt4,0.0,-0.057170900000000004,
Sb3Au5,0.0,-0.0571703,
LaPrAu2,0.0,-0.0571698,
FeNiPt6,0.0,-0.057168199999999995,
PdSbPa,0.0,-0.057166800000000004,
NiIr2Pt,0.0,-0.057165999999999995,
AgInNp,0.0,-0.0571656,
CsPb,0.0,-0.0571601,
InErPt2,0.0,-0.0571596,
RhSnPa,0.0,-0.0571565,
RuTaAu,0.0,-0.0571543,
La2PtHg,0.0,-0.057153300000000004,
FePt2Au,0.0,-0.0571521,
ScHf2Pt2,0.0,-0.0571515,
NaHg2Tl2,0.0,-0.0571485,
ZrTmOs2,0.0,-0.0571469,
PSnPt5,0.0,-0.057146,
Sn2CePu,0.0,-0.0571457,
ZrAu2,0.0,-0.057145,
AgCdPu,0.0,-0.057141800000000006,
ZnHf3Au2,0.0,-0.057141599999999994,
AlAu4,0.0,-0.0571407,
MnTaPt2,0.0,-0.0571363,
CoPt3,0.0,-0.0571352,
NaTlPb2,0.0,-0.057133699999999996,
Ho2Tl,0.0,-0.0571312,
Ru2DyPu,0.0,-0.057130600000000004,
ZnHf2Ir2,0.0,-0.057130299999999995,
GaTaOs2,0.0,-0.0571296,
Cd2HgBi2,0.0,-0.0571272,
CoTaIr2,0.0,-0.057124499999999995,
Rh3Ir5,0.0,-0.0571232,
AsBr2Pu2,0.0,-0.057118699999999994,
ZnPrPt4,0.0,-0.0571153,
SrRhPb3,0.0,-0.0571136,
Er3Pb,0.0,-0.0571086,
ZnLaPt4,0.0,-0.0571055,
Ag2CdTh2,0.0,-0.0571037,
MnPtAu2,0.0,-0.0571032,
NdTbBi,0.0,-0.0570982,
SrSnPt4,0.0,-0.057096400000000005,
BHoPt4,0.0,-0.0570954,
NaTl2Bi,0.0,-0.0570945,
Al2Pt3Pu,0.0,-0.0570919,
Rh2Tm3Pb3,0.0,-0.057091,
MnPt2Hg,0.0,-0.0570901,
Sn2SmPu,0.0,-0.05709,
InEuAu2,0.0,-0.057088099999999996,
CuIr3,0.0,-0.0570852,
MgHoIr4,0.0,-0.0570829,
Pr3Pb2,0.0,-0.0570808,
Tb6ReBi2,0.0,-0.0570788,
CoTaOs2,0.0,-0.0570765,
NiOsPt2,0.0,-0.057075400000000005,
MgErPt4,0.0,-0.0570752,
GeTm2Ir3,0.0,-0.0570711,
PAsTh2,0.0,-0.0570668,
Tb6AuBi2,0.0,-0.0570666,
Cd2PbAc,0.0,-0.057065399999999995,
Zr2Pt2Bi,0.0,-0.0570653,
CoWPt2,0.0,-0.057065199999999996,
AlZnU2,0.0,-0.057065199999999996,
Sb2Au2Tl,0.0,-0.0570621,
Cu2Ir3Th,0.0,-0.0570575,
InAuHg,0.0,-0.057057000000000004,
Cs2Hg2Tl,0.0,-0.0570561,
In2ErPu,0.0,-0.0570547,
NiRePt2,0.0,-0.0570533,
CuAgAc2,0.0,-0.057052900000000004,
SnSm2Pt3,0.0,-0.057050800000000006,
CoW2Ir,0.0,-0.0570505,
LiHgBi2,0.0,-0.0570504,
AgGdHg2,0.0,-0.0570499,
ZrPmPb2,0.0,-0.057047400000000005,
Ho2Os,0.0,-0.0570464,
Pd2ErPu,0.0,-0.0570456,
Cd2Pu,0.0,-0.057039299999999994,
TiBaPb3,0.0,-0.0570365,
CoW2Os,0.0,-0.0570359,
CrTaPt2,0.0,-0.0570274,
ClU,0.0,-0.0570246,
ZnAu2Pb,0.0,-0.0570229,
Rh2Lu3Tl3,0.0,-0.0570228,
PrTbBi,0.0,-0.0570216,
TeTa2,0.0,-0.0570213,
Cs2Au3,0.0,-0.057020600000000005,
ScHgTl2,0.0,-0.0570196,
NiBaPb3,0.0,-0.0570186,
NiWRe2,0.0,-0.0570186,
CaTl3,0.0,-0.0570184,
FeTaPt2,0.0,-0.057016399999999995,
BTbIr4,0.0,-0.0570157,
CuPt2Tl,0.0,-0.0570123,
PdErPt2,0.0,-0.0570122,
SnEuHg2,0.0,-0.057010899999999996,
NiIrPt2,0.0,-0.0570074,
Ba2PtPb,0.0,-0.057006999999999995,
ScPt2Au,0.0,-0.057000999999999996,
ZnOsIr2,0.0,-0.0569994,
SmHg,0.0,-0.056995399999999995,
AgLuAu2,0.0,-0.056995,
Zr3Ir2Tl3,0.0,-0.056994300000000005,
GaTaIr2,0.0,-0.056993699999999994,
AgLaPb2,0.0,-0.0569936,
La3Pb2,0.0,-0.0569934,
RhTaAu,0.0,-0.056987499999999996,
SiU,0.0,-0.056985100000000004,
ZnReIr2,0.0,-0.0569795,
Sn2PmPu,0.0,-0.0569787,
FeW2Pt,0.0,-0.0569786,
MnTa4,0.0,-0.0569751,
B2Ir3Pu,0.0,-0.0569739,
SrPdPb3,0.0,-0.056972999999999996,
GaHg2Pb,0.0,-0.0569717,
InHf2Hg,0.0,-0.056970799999999995,
SrGdTl2,0.0,-0.0569702,
Sn2Pt3,0.0,-0.056967500000000004,
Fe2Tm4Pb5,0.0,-0.056966,
SnErAu2,0.0,-0.0569638,
YRe2,0.0,-0.0569629,
GeInAu5,0.0,-0.0569599,
CdHgTl,0.0,-0.0569588,
SiInPt5,0.0,-0.0569587,
Rh2DyPu,0.0,-0.0569514,
KPtHg3,0.0,-0.056941200000000004,
La2OsHg,0.0,-0.0569388,
LiPt4,0.0,-0.0569375,
AgInAu4,0.0,-0.0569365,
AgPtAu,0.0,-0.0569303,
Cd2AuTh,0.0,-0.0569292,
CrTa4,0.0,-0.056928,
AlSb3Pu2,0.0,-0.0569211,
N2PaU,0.0,-0.0569189,
ScHg2Pb,0.0,-0.0569161,
SrPtPb,0.0,-0.056914700000000006,
Cu2Pt3Th,0.0,-0.0569131,
LaTbBi,0.0,-0.056913,
CaLaIr4,0.0,-0.0569123,
PZrPt5,0.0,-0.056909100000000004,
Zr3Ir5,0.0,-0.056908,
MnTh,0.0,-0.056908,
RbPtBi,0.0,-0.056906399999999996,
SnTbPt2,0.0,-0.0569062,
NiTaOs2,0.0,-0.0569045,
FeTh,0.0,-0.056904,
BDyPt4,0.0,-0.056902999999999995,
AgSnU,0.0,-0.056900599999999996,
TePb,0.636,-0.056899099999999994,
FeTa4,0.0,-0.0568981,
TeTmBi,0.0,-0.0568951,
CuIr2Pt,0.0,-0.056893700000000005,
SeIrBi,0.5739,-0.0568934,
ZnHf2Pt2,0.0,-0.0568904,
Si2Ir3U,0.0,-0.0568899,
Ru3Pt5,0.0,-0.056887799999999995,
PInPt5,0.0,-0.056885,
NiTaIr2,0.0,-0.0568805,
PmSmHg2,0.0,-0.0568802,
AgTmPt2,0.0,-0.0568796,
MgDyIr4,0.0,-0.056878,
MnLu6Bi2,0.0,-0.056877000000000004,
SiLu2Ir3,0.0,-0.056876199999999995,
NTa3Ir,0.0,-0.0568752,
Rh2HgAc,0.0,-0.056873,
Sn2NdPu,0.0,-0.0568725,
Sn2EuBi2,0.0,-0.0568725,
Pd2Tm3Pb3,0.0,-0.056871899999999996,
GaAu2Tl,0.0,-0.0568688,
CuRePt2,0.0,-0.056865099999999995,
NiW2Os,0.0,-0.0568582,
RhTmAu2,0.0,-0.0568579,
Zr3Tl5,0.0,-0.0568579,
AlTa5,0.0,-0.0568564,
MgHoPt4,0.0,-0.056853499999999994,
CdLu2Au2,0.0,-0.0568532,
Co2Tm4Pb5,0.0,-0.0568527,
RhSbTh,0.7723,-0.056851900000000004,
ZrW2,0.0,-0.0568511,
NiWPt2,0.0,-0.0568506,
NaPtPb2,0.0,-0.0568492,
Ge2Ir2Pa,0.0,-0.0568492,
Ru2TbPu,0.0,-0.0568484,
Zr3Pt2Tl3,0.0,-0.0568482,
GeTm2Pt3,0.0,-0.056848100000000006,
CdLaPb2,0.0,-0.056847999999999996,
ScTaOs2,0.0,-0.056847499999999995,
Ag2HgTh,0.0,-0.0568471,
B2Hf3Ir5,0.0,-0.0568469,
Te9Bi8,0.0042,-0.0568465,
As2RhU2,0.0,-0.056844700000000005,
BaLaPt2,0.0,-0.0568434,
FeLu6Bi2,0.0,-0.056839799999999996,
In3Pt5,0.0,-0.0568392,
ZrErIr2,0.0,-0.056838,
Sr2Bi3,0.0,-0.0568378,
CU,0.0,-0.0568373,
CdLuAu2,0.0,-0.0568357,
PdInU,0.0,-0.0568346,
CoTh,0.0,-0.0568284,
CrLu6Bi2,0.0,-0.0568275,
AgErTl2,0.0,-0.056827199999999994,
CeHg,0.0,-0.056827199999999994,
GeHfIr2,0.0,-0.056825400000000005,
In2Au2Bi,0.0,-0.0568245,
ZrTaOs,0.0,-0.056823099999999994,
CoW2Pt,0.0,-0.0568209,
YPtAu,0.0,-0.0568205,
ZnIr3,0.0,-0.0568192,
Rh2Tl3,0.0,-0.056819,
Ge2Au2Np,0.0,-0.0568187,
NiPt3,0.0,-0.056817900000000005,
InHoPt2,0.0,-0.0568174,
InTm2Ir2,0.0,-0.0568172,
CdInAu4,0.0,-0.0568156,
CrW3,0.0,-0.0568149,
SeSbPu,0.0,-0.056814300000000005,
NiW2Ir,0.0,-0.0568129,
RhLuBi,0.0,-0.056812100000000004,
RhHoPt2,0.0,-0.056811799999999996,
CdInNp,0.0,-0.0568078,
CuBaPb3,0.0,-0.0568078,
CaBaTl4,0.0,-0.0568072,
Pd2Lu3Tl3,0.0,-0.0568055,
YHf5,0.0,-0.0568035,
Tb6WBi2,0.0,-0.056803400000000004,
GaPd2Pa2,0.0,-0.0568005,
InTm2Pt2,0.0,-0.0567986,
FePtAu2,0.0,-0.056798499999999995,
Tb5Ir3,0.0,-0.056796799999999995,
LiHg2Tl2,0.0,-0.0567915,
KAu2Hg2,0.0,-0.0567913,
Cd3Au2Pu,0.0,-0.056788899999999996,
CaLaPt4,0.0,-0.056787199999999996,
Cd2Tl2Bi,0.0,-0.0567868,
Ba2AuPb,0.0,-0.0567843,
CoPt2Au,0.0,-0.0567828,
RhGdPb,0.0,-0.056781599999999995,
TiTaRe2,0.0,-0.0567807,
GePd3Pu2,0.0,-0.0567802,
Ni2Tm4Pb5,0.0,-0.0567754,
CoLu6Bi2,0.0,-0.0567754,
MnW3,0.0,-0.0567753,
NdSmHg2,0.0,-0.0567732,
MgHgTh,0.0,-0.0567721,
CdPtAu,0.0,-0.0567721,
Cs2Au2Hg,0.0,-0.056770600000000004,
Ru2LuPa,0.0,-0.0567705,
SrInPt4,0.0,-0.0567697,
SbCsAu3,0.0,-0.0567688,
PmHg,0.0,-0.0567676,
LiTlPb2,0.0,-0.0567638,
MnAu3,0.0,-0.0567613,
SnEr2Ir2,0.0,-0.056758699999999995,
Tm3Au,0.0,-0.056756999999999995,
Sn2LaPu,0.0,-0.0567566,
CoTaPt2,0.0,-0.0567563,
ZnRh2Pa2,0.0,-0.056754399999999997,
AgGd2Pb,0.0,-0.0567538,
RhTbTl2,0.0,-0.056753700000000004,
Tm3Re,0.0,-0.0567521,
CuIrPt2,0.0,-0.0567515,
MgSbPt5,0.0,-0.0567505,
ZrErOs2,0.0,-0.0567484,
VW3,0.0,-0.056748,
Ge2Os2Pa,0.0,-0.0567475,
Se2TlPu,0.0,-0.0567396,
InTmAu2,0.0,-0.0567393,
NiTmBi2,0.0,-0.0567391,
SnEr2Pt2,0.0,-0.0567391,
RhBaPb2,0.0,-0.0567382,
SbHf3,0.0,-0.056736800000000004,
BTbPt4,0.0,-0.0567361,
SnNd2Pt3,0.0,-0.0567332,
La2AuHg,0.0,-0.0567303,
Er2Hg,0.0,-0.0567296,
MnHfIr2,0.0,-0.0567243,
RuSbTh,0.0,-0.056723100000000005,
In2HoPu,0.0,-0.056720599999999996,
In2Tl3,0.0,-0.05672,
RhHg2,0.0,-0.0567179,
AsHf2Bi,0.0,-0.0567173,
ZnSbAu5,0.0,-0.0567134,
MgAu4,0.0,-0.0567126,
Rb2CsAu7,0.0,-0.0567124,
NTa3Pt,0.0,-0.056711399999999995,
N2ThNp,0.0,-0.0567111,
Te2CsPu,0.0,-0.0567068,
GaTh,0.0,-0.0567058,
SbGdPt,0.0,-0.0567052,
ZnWIr2,0.0,-0.056704700000000004,
Pd2HoPu,0.0,-0.0567013,
MgTbIr4,0.0,-0.0566978,
MgAuPb2,0.0,-0.0566971,
ZrGdBi,0.0,-0.0566956,
In2U,0.0,-0.0566942,
CaPtTl2,0.0,-0.0566898,
CeNdHg2,0.0,-0.056689300000000005,
YHgTl,0.0,-0.0566881,
PdLuHg2,0.0,-0.056683500000000005,
YEuPt2,0.0,-0.0566822,
Zr2Ir2Pb,0.0,-0.0566813,
MgTePt5,0.0,-0.0566757,
SiLu2Os3,0.0,-0.0566746,
CrHfIr2,0.0,-0.056674300000000004,
Tc3W5,0.0,-0.056674300000000004,
YSmPb2,0.0,-0.056674300000000004,
Rh2TbPu,0.0,-0.056674100000000005,
YCePb2,0.0,-0.0566698,
Pd2Tl3,0.0,-0.0566682,
Ru2TmU,0.0,-0.0566678,
SePtBi,0.0,-0.0566678,
AsCdAu5,0.0,-0.0566668,
ScTaIr2,0.0,-0.056666400000000006,
PTe2Th2,0.0,-0.0566638,
Sb4Tl5,0.0,-0.056662,
NdPmHg2,0.0,-0.0566613,
MgHf3Os2,0.0,-0.0566588,
CeSmBi,0.0,-0.0566584,
LaSmHg2,0.0,-0.0566578,
MgDyPt4,0.0,-0.0566573,
CSeTh2,0.0,-0.0566556,
PdHoPt2,0.0,-0.0566551,
SbTePb2,0.0,-0.056653,
Si4Os4Th3,0.0,-0.056652799999999996,
RuITh,0.0,-0.056652799999999996,
SbGdIr,0.0,-0.0566524,
SnTm2Au2,0.0,-0.056651200000000006,
Tb6IrPb2,0.0,-0.0566457,
Mo3W5,0.0,-0.0566451,
Ag3Pb4,0.0,-0.0566438,
GeRh2Th2,0.0,-0.056641800000000006,
Tc2Re3,0.0,-0.05664,
YTmTl2,0.0,-0.05664,
Sn2Hg2Pb,0.0,-0.0566394,
GeAgAu5,0.0,-0.0566364,
SnHoAu2,0.0,-0.056635599999999994,
AgAu2,0.0,-0.0566346,
ZnRe3,0.0,-0.056634500000000004,
PdLuBi,0.0,-0.056633899999999994,
Pd2HgAc,0.0,-0.0566333,
CdTmPt2,0.0,-0.056632300000000003,
CuWPt2,0.0,-0.0566307,
As2Ir2Th,0.0,-0.0566282,
PdSnPa,0.0,-0.0566273,
Te2TlBi,0.2048,-0.0566234,
BSmIr4,0.0,-0.056622900000000004,
CePrHg2,0.0,-0.0566221,
GeAu3,0.0,-0.0566221,
InTm2Os2,0.0,-0.0566181,
LiPdPb4,0.0,-0.056613500000000004,
CrAu3,0.0,-0.056612,
LaCeHg2,0.0,-0.0566042,
KAuHg3,0.0,-0.056604100000000004,
CsTmBi,0.0,-0.0566038,
Ho2Au,0.0,-0.0566027,
AlSnAc2,0.0,-0.056601900000000004,
Sm2Bi,0.0,-0.0566017,
SiRhAc2,0.0,-0.0566013,
PdGdPb,0.0,-0.0566003,
Tb6PtPb2,0.0,-0.0565988,
ScIrAu2,0.0,-0.056597999999999996,
CaHg2Bi,0.0,-0.0565972,
ZnEuBi2,0.0,-0.0565959,
RbHg3,0.0,-0.056595599999999996,
HHfIr3,0.0,-0.056594,
PrPmHg2,0.0,-0.0565924,
CuPt3,0.0,-0.056587200000000004,
Tc2LuPa,0.0,-0.056587000000000005,
Tb6OsPb2,0.0,-0.0565859,
InBaPb2,0.0,-0.0565843,
Zn2Ir3Th,0.0,-0.0565839,
SbCe2Au3,0.0,-0.0565833,
YPmPb2,0.0,-0.0565798,
As2PdU2,0.0,-0.056579700000000004,
GaTaPt2,0.0,-0.0565774,
ScPtAu2,0.0,-0.056576999999999995,
RbTlPb,0.0,-0.0565764,
ZnPa,0.0,-0.0565763,
Ce2Bi,0.0,-0.0565752,
LiTl2Bi,0.0,-0.056573099999999994,
SrTeAu4,0.26,-0.056568600000000004,
GeEr2Ir3,0.0,-0.056565399999999995,
Sn2Au2Tl,0.0,-0.056565199999999996,
GeHfPt2,0.0,-0.0565632,
NdHg,0.0,-0.0565587,
Ba2HgPb,0.0,-0.056557899999999994,
CaAu2Pb,0.0,-0.0565539,
NiW2Pt,0.0,-0.0565532,
BGdIr3,0.0,-0.0565519,
Cd3Tl5,0.0,-0.0565518,
BaTl,0.0,-0.0565501,
InHg2,0.0,-0.0565496,
Rh3Pt5,0.0,-0.0565494,
SrAuPb,0.0,-0.0565488,
Dy3Hg2,0.0,-0.0565445,
PI2Th2,0.0,-0.056543100000000006,
Zr2Pt2Pb,0.0,-0.0565411,
NiTaPt2,0.0,-0.0565411,
CuTaIr2,0.0,-0.056539099999999995,
NiPt2Au,0.0,-0.0565376,
RuTm6Bi2,0.0,-0.056536,
Rh2Er3Pb3,0.0,-0.0565352,
KBaTl4,0.0,-0.0565343,
La3OsBi,0.0,-0.056534100000000004,
SiPdAc2,0.0,-0.0565329,
NaAuPb2,0.0,-0.056528300000000004,
AgPtHg,0.0,-0.0565267,
HW3Pt,0.0,-0.0565249,
TcTa2,0.0,-0.056524200000000004,
ZnIrPt2,0.0,-0.0565234,
KTl3,0.0,-0.056523000000000004,
PdHg2,0.0,-0.0565208,
Sb2Au3,0.0,-0.0565199,
InDyPt2,0.0,-0.0565141,
GeBr2Pu2,0.0,-0.0565138,
Fe2InNp2,0.0,-0.056513,
ZrAuHg,0.0,-0.056512599999999996,
Cu2Tm4Pb5,0.0,-0.0565122,
YTmIr2,0.0,-0.0565111,
YAgAu4,0.0,-0.0565096,
ZnHgTl2,0.0,-0.056507800000000004,
TiHfOs2,0.0,-0.0565011,
Co2Lu4Tl5,0.0,-0.0565009,
AgHoTl2,0.0,-0.0565,
RhTm6Bi2,0.0,-0.0564981,
NbTaW,0.0,-0.056497700000000005,
SrSbAu4,0.0,-0.056494,
FeHfIr2,0.0,-0.0564912,
PrNdHg2,0.0,-0.056489899999999996,
MgRu2U2,0.0,-0.056489,
SbPb,0.0,-0.056489,
RhDyPt2,0.0,-0.0564873,
MgTbPt4,0.0,-0.0564863,
Te2Au3,0.0,-0.0564856,
Dy2Ir,0.0,-0.056484099999999995,
B2Os3Np,0.0,-0.0564828,
SiInAc2,0.0,-0.056482700000000004,
Ru2GdTh,0.0,-0.056481,
N2TePu2,0.0,-0.0564765,
O2TePu2,0.0,-0.0564759,
GeRu3Np2,0.0,-0.0564741,
RhErAu2,0.0,-0.056472,
Zn2Pt3Th,0.0,-0.056471200000000006,
RhGd2Ir,0.0,-0.056470799999999995,
AgCdAu4,0.0,-0.0564704,
CoPtAu2,0.0,-0.0564684,
InHfIr,0.0,-0.0564684,
BNdIr4,0.0,-0.056465299999999996,
YAu2,0.0,-0.0564627,
NiTh,0.0,-0.0564577,
YNdPb2,0.0,-0.0564558,
RuGd2Ir,0.0,-0.0564551,
YGdHg2,0.0,-0.0564534,
InSnBi2,0.0,-0.05645,
MgTl2Pb,0.0,-0.0564483,
Ba3Hg4,0.0,-0.0564475,
LaNdHg2,0.0,-0.0564461,
Sb2EuPb2,0.0,-0.056445,
Dy2Tl,0.0,-0.0564449,
RhGd2Pt,0.0,-0.0564438,
CuTmBi2,0.0,-0.0564432,
AgErPt2,0.0,-0.056442700000000005,
Dy2Pt,0.0,-0.0564403,
SiReOs2,0.0,-0.05644,
RuGd2Pt,0.0,-0.056439300000000005,
YPtHg,0.0,-0.056434399999999996,
SI2Th2,0.0,-0.056434,
FeAu3,0.0,-0.0564331,
MnHfPt2,0.0,-0.0564321,
CdAu2,0.0,-0.0564287,
In2DyPu,0.0,-0.0564262,
TeErBi,0.0,-0.0564257,
PrHg,0.0,-0.056424999999999996,
ZrTaRe,0.0,-0.0564249,
MnAu2Hg,0.0,-0.0564232,
SrYIr4,0.0,-0.056410800000000004,
BPrIr4,0.0,-0.0564082,
CaHf2Ir2,0.0,-0.056405500000000004,
Ge2Pt2Pa,0.0,-0.0564016,
InGd2Tl,0.0,-0.0563983,
BLaIr4,0.0,-0.0563981,
YLaPb2,0.0,-0.0563966,
Pd2DyPu,0.0,-0.0563965,
Cs5Bi4,0.0,-0.0563955,
YPrPb2,0.0,-0.056393900000000004,
ZnPt3,0.0,-0.056391800000000006,
InEuHg2,0.0,-0.056391199999999995,
SiAgPt5,0.0,-0.0563892,
CeNdBi,0.0,-0.0563889,
Si2Ir3Pa,0.0,-0.056385199999999996,
NiErBi2,0.0,-0.0563829,
LaPrHg2,0.0,-0.0563816,
ZrHoOs2,0.0,-0.0563793,
ScTaPt2,0.0,-0.056378500000000005,
InTeTh,0.0,-0.0563767,
YCdAu4,0.0,-0.056376600000000006,
RhBi,0.0,-0.0563713,
Sn2PbBi,0.0,-0.0563712,
BNb2Os6,0.0,-0.0563707,
Ru2DyNp,0.0,-0.0563699,
InErAu2,0.0,-0.0563696,
PCdPt5,0.0,-0.056368,
InHfPt,0.0,-0.0563592,
BSmPt4,0.0,-0.056357,
BeAuPb2,0.0,-0.0563565,
TiW3,0.0,-0.0563549,
CaAuTl2,0.0,-0.0563501,
ZnWPt2,0.0,-0.0563476,
Tb6AuPb2,0.0,-0.0563472,
GeEr2Pt3,0.0,-0.0563461,
BeAu4,0.0,-0.0563461,
SnDyAu2,0.0,-0.05634599999999999,
ZnLu6Bi2,0.0,-0.0563459,
LaHg,0.0,-0.0563448,
PdTm6Bi2,0.0,-0.0563434,
SbTbAu2,0.0,-0.0563433,
CAsTh2,0.0,-0.0563429,
RuTa2,0.0,-0.0563429,
NaPt2Hg2,0.0,-0.0563426,
RuTm3Pt2,0.0,-0.05633850000000001,
PdDyPt2,0.0,-0.056336199999999996,
ZnHg2Pb,0.0,-0.056333100000000004,
PdSbTh,0.0,-0.0563279,
NdSmBi,0.0,-0.056322699999999996,
NaTl2Pb,0.0,-0.0563222,
MgCeIr4,0.0,-0.0563208,
PAgPt5,0.0,-0.0563194,
Pd2Er3Pb3,0.0,-0.056319,
GaW3,0.0,-0.0563175,
RuInPa,0.0,-0.0563175,
Co2Er4Pb5,0.0,-0.056315800000000006,
HPt2Au2,0.0,-0.0563133,
In2Au2Pb,0.0,-0.056312600000000004,
CePrBi,0.0,-0.0563082,
Ru2SmPu,0.0,-0.0563073,
Ru2ErU,0.0,-0.0563071,
Te2Au2Hg,0.0,-0.056305999999999995,
SnHf3,0.0,-0.0563037,
MgHgPb2,0.0,-0.056299300000000004,
LiPtPb2,0.0,-0.0562953,
Er3Ir,0.0,-0.0562921,
SrAgPt4,0.0,-0.056292,
BaTmPb,0.0,-0.0562907,
BSn2Ir6,0.0,-0.0562907,
TiAu3,0.0,-0.056289099999999995,
SnSmPt2,0.0,-0.056287,
FeHfPt2,0.0,-0.0562844,
SiIr3,0.0,-0.0562821,
CdEuAu2,0.0,-0.0562802,
CrTa2Os,0.0,-0.056279499999999996,
YErTl2,0.0,-0.0562767,
NTa3Au,0.0,-0.0562741,
Al2TlTh2,0.0,-0.0562734,
MgSmIr4,0.0,-0.056269599999999996,
GaHfIr2,0.0,-0.0562694,
PdGd2Ir,0.0,-0.0562677,
In2Hg2Bi,0.0,-0.056264499999999995,
SrYPt4,0.0,-0.0562619,
LaCeBi,0.0,-0.056258899999999994,
SnCePt2,0.0,-0.056257100000000004,
CuPt2Au,0.0,-0.056256999999999995,
ZnTaIr2,0.0,-0.0562564,
CoHfIr2,0.0,-0.0562558,
RuSnTh,0.0,-0.056249099999999996,
InTbPt2,0.0,-0.0562489,
PS3Pa4,0.0,-0.0562485,
CdErPt2,0.0,-0.0562481,
SiPt2Tl,0.0,-0.0562479,
SbPr2Au3,0.0,-0.056247,
RbHgBi,0.0,-0.056241599999999996,
Ge2Ir2Th,0.0,-0.0562389,
SrCdPt4,0.0,-0.0562389,
SbLa2Au3,0.0,-0.0562365,
CuTaPt2,0.0,-0.056235999999999994,
GeRh3Np2,0.0,-0.0562354,
PrSmBi,0.0,-0.0562353,
SeSnPu,0.0,-0.0562352,
PdGd2Pt,0.0,-0.0562336,
KLaPt4,0.0,-0.0562329,
RhInPa,0.0,-0.0562312,
SbPmPt2,0.0,-0.0562302,
ScAu3,0.0,-0.0562261,
Dy2Os,0.0,-0.0562242,
Tm3Hg,0.0,-0.0562215,
CBrTh2,0.0,-0.0562169,
AgDyTl2,0.0,-0.056212000000000005,
InEr2Ir2,0.0,-0.056212000000000005,
CAlU2,0.0,-0.056212000000000005,
BNdPt4,0.0,-0.0562107,
RhSnTh,0.0,-0.0562096,
SnHo2Ir2,0.0,-0.0562092,
AgAuHg,0.0,-0.0562074,
ZnTaOs2,0.0,-0.056205399999999996,
CaBi2,0.0,-0.056203699999999995,
Y2Pt2Bi,0.0,-0.0562022,
MnTa2Os,0.0,-0.0562003,
RhTbPt2,0.0,-0.056199599999999995,
CaHf2Pt2,0.0,-0.056198099999999994,
MgHf3Re2,0.0,-0.0561973,
InEr2Pt2,0.0,-0.0561959,
SrTl2,0.0,-0.0561957,
PdTm3Ir2,0.0,-0.0561954,
Cd2Tl2Pb,0.0,-0.0561935,
MnLu6Pb2,0.0,-0.056193,
LaSmBi,0.0,-0.056192399999999997,
YZrW4,0.0,-0.0561911,
SnHo2Pt2,0.0,-0.056188699999999994,
RhSmTl2,0.0,-0.056188699999999994,
Cd2TlAc,0.0,-0.056183300000000005,
MoTa2,0.0,-0.0561831,
BaLaAu2,0.0,-0.0561824,
NPa,0.0,-0.0561821,
PdErAu2,0.0,-0.0561806,
SiRu3Pu2,0.0,-0.0561781,
NiPtAu2,0.0,-0.0561773,
In2TbPu,0.0,-0.0561701,
AlHf2Ir2,0.0,-0.0561682,
SiSbAu5,0.0,-0.056167499999999995,
Er3Tl,0.0,-0.0561674,
AgLuHg2,0.0,-0.0561671,
MnPtBi,0.0,-0.0561667,
Cd2Pt2Bi,0.0,-0.056165599999999996,
SeHg3,0.0,-0.0561654,
FeTa2Os,0.0,-0.056164900000000004,
BrHg3,0.0,-0.0561637,
BPrPt4,0.0,-0.0561605,
BLaPt4,0.0,-0.0561602,
FeLu6Pb2,0.0,-0.0561578,
GaRu2Th2,0.0,-0.0561573,
Y3Tl5,0.0,-0.0561568,
Er3Pt,0.0,-0.0561492,
BNb2Ir6,0.0,-0.0561486,
BGdPt3,0.0,-0.0561483,
SnGdPt,0.0,-0.0561441,
CdTm2Ir2,0.0,-0.0561441,
MnAsPt5,0.0,-0.0561409,
PAuTl2,0.0,-0.0561388,
CdTm2Pt2,0.0,-0.0561372,
SnGd2Hg,0.0,-0.056134,
GaHg2Tl,0.0,-0.0561334,
AsTlPb,0.0,-0.056132800000000004,
PdTm3Pt2,0.0,-0.0561324,
Ge2Os2Th,0.0,-0.0561322,
SiWOs2,0.0,-0.0561315,
Pd2TbPu,0.0,-0.0561301,
GePd2Th2,0.0,-0.056127899999999994,
InTm2Au2,0.0,-0.0561259,
SiI2Th2,0.0,-0.0561256,
CrTaW2,0.0,-0.0561247,
YErIr2,0.0,-0.0561223,
Li4Bi4Th3,0.0,-0.056120399999999994,
AgTmAu2,0.0,-0.056119300000000004,
RhHoAu2,0.0,-0.0561186,
ZnAu2Tl,0.0,-0.0561165,
AlHg4,0.0,-0.056107500000000005,
I3Pu,0.0,-0.056107199999999996,
Ho3Pb,0.0,-0.056107,
CaIr3,0.0,-0.0561047,
GeHo2Ir3,0.0,-0.0561029,
NaHgPb2,0.0,-0.0561019,
CoLu6Pb2,0.0,-0.0560993,
MgCePt4,0.0,-0.0560987,
Cl2TePu2,0.0,-0.0560984,
SrHgPb,0.0,-0.0560957,
SnTbAu2,0.0,-0.0560948,
CuErBi2,0.0,-0.0560921,
MgSmPt4,0.0,-0.0560912,
NiHfIr2,0.0,-0.0560895,
AgHoPt2,0.0,-0.056088,
MgNdIr4,0.0,-0.0560856,
La3IrPb,0.0,-0.0560841,
Ru2NdPu,0.0,-0.0560833,
Y3Pt2Tl3,0.0,-0.0560794,
PdGd2Os,0.0,-0.0560786,
GaRh2Th2,0.0,-0.0560783,
Ag4Pt7,0.0,-0.056077800000000004,
Rh2SmPu,0.0,-0.0560759,
KHg2Bi,0.0,-0.0560758,
SiAu2Pb,0.0,-0.0560747,
CrTa2Ir,0.0,-0.056071800000000005,
CoHfPt2,0.0,-0.0560665,
VTa2Os,0.0,-0.0560627,
CI2Th2,0.0,-0.0560624,
Nd2Bi,0.0,-0.0560622,
KPtTl2,0.0,-0.056061599999999996,
Er3Os,0.0,-0.0560609,
NiHoBi2,0.0,-0.0560607,
SrLuTl2,0.0,-0.0560588,
SnEr2Au2,0.0,-0.056055100000000004,
PdTbPt2,0.0,-0.0560546,
AgBaPb2,0.0,-0.056054299999999994,
Ba2PtTl,0.0,-0.056052500000000005,
KSrPb4,0.0,-0.0560486,
GaHfPt2,0.0,-0.0560486,
ZnPt2Au,0.0,-0.0560396,
MnTa2Re,0.0,-0.0560394,
GaAu3,0.0,-0.056038899999999996,
SnNdPt2,0.0,-0.056036499999999996,
InBi,0.0,-0.056033900000000005,
InHoAu2,0.0,-0.0560335,
PRe3,0.0,-0.0560329,
CrAsPt5,0.0,-0.0560325,
Rh2CePu,0.0,-0.056029800000000005,
Rh2Ho3Pb3,0.0,-0.0560292,
NiLu6Pb2,0.0,-0.0560261,
Sn2Hg2Tl,0.0,-0.056022100000000005,
TiAsPt5,0.0,-0.0560212,
LiAuPb2,0.0,-0.056021,
Pd2Au2Pb,0.0,-0.056020200000000006,
CdAuHg,0.0,-0.0560197,
ScHg2Tl,0.0,-0.0560195,
Nb2Ir2Au,0.0,-0.0560173,
RuGd2Au,0.0,-0.056014600000000005,
RhTa2,0.0,-0.0560138,
Y3Ir2Tl3,0.0,-0.0560136,
MgPrIr4,0.0,-0.056012900000000004,
BZr2Ir6,0.0,-0.0560128,
InEr2Os2,0.0,-0.0560124,
PdSmTl2,0.0,-0.0560115,
Ru2PrPu,0.0,-0.056011000000000005,
RhGd2Au,0.0,-0.056010199999999996,
BLuIr3,0.0,-0.056008699999999995,
Tm5Pb,0.0,-0.0560062,
NbSbTh,0.0,-0.056005,
CaHgTl2,0.0,-0.056004399999999996,
TeHoBi,0.0,-0.0560025,
Ge2Pt2Th,0.0,-0.056001300000000004,
SiSnAu5,0.0,-0.0559989,
PdTm3Os2,0.0,-0.0559903,
Sn2GdAc,0.0,-0.055989699999999996,
CrTa2Re,0.0,-0.0559896,
GeTePu,0.0,-0.0559888,
RhTmHg2,0.0,-0.0559867,
PrNdBi,0.0,-0.055986400000000006,
CuPtAu2,0.0,-0.0559812,
PdBi,0.0,-0.055980600000000005,
RhNdTl2,0.0,-0.0559779,
GaSb3U2,0.0,-0.0559778,