formula,bg,formation_energy,mp-id
YRu2Pu,0.0,-0.0521102,
CaCePb2,0.0,-0.052109699999999995,
Te2EuPb,0.0,-0.0521094,
GeCePt2,0.0,-0.052109,
SrCeAu2,0.0,-0.0521089,
ZnErPt2,0.0,-0.052104500000000005,
AsPmPt2,0.0,-0.0521039,
Cd6Pt7,0.0,-0.0521024,
BCr2Pt6,0.0,-0.0521023,
CaTmTl2,0.0,-0.0521014,
SiBaAu3,0.0,-0.0520987,
CoSn2Hf6,0.0,-0.0520985,
Cd4Au5,0.0,-0.0520983,
KHgBi,0.0,-0.0520975,
In2HoAc,0.0,-0.0520972,
HNTh2,0.0,-0.052094499999999995,
OINp,0.0,-0.052094,
CdNd2Au2,0.0,-0.0520937,
In2PmTh,0.0,-0.052093,
SiRhTa4,0.0,-0.052092,
Rh2OsAu,0.0,-0.052091500000000006,
B2Os2Pa,0.0,-0.0520913,
Mo2TaRe,0.0,-0.0520899,
OTeNp,0.0,-0.0520893,
ZnEuAu2,0.0,-0.052088999999999996,
GaTbPt2,0.0,-0.0520852,
MgErPb2,0.0,-0.0520843,
CdInTl2,0.0,-0.0520816,
SnDyAu,0.0721,-0.052081,
Ge2OsTh,0.0,-0.052080100000000004,
TcAu,0.0,-0.052079900000000005,
TiAu2,0.0,-0.052079,
SnErHg,0.0,-0.0520785,
CrSn2Hf6,0.0,-0.0520781,
ZrPdPt2,0.0,-0.0520769,
CdTm2Tl,0.0,-0.0520755,
RuRhW2,0.0,-0.052068399999999994,
InHoPt,0.0,-0.052066299999999996,
Y2LaBi2,0.0,-0.0520662,
Te4Hf5,0.0,-0.0520659,
AgLuHg,0.0,-0.0520657,
SbSmPt,0.4304,-0.0520642,
FeSbPa,0.2167,-0.0520635,
Cu2Lu3Tl3,0.0,-0.052063000000000005,
SiEuPt2,0.0,-0.05206,
CuSbU,0.0,-0.0520598,
Pr2Hg,0.0,-0.0520568,
B2Ir2Pa,0.0,-0.0520566,
PdCe3Os2,0.0,-0.0520546,
PdInPt2,0.0,-0.052054,
CdEu2Hg,0.0,-0.052054,
CuEr3Os2,0.0,-0.052052100000000004,
ZnEr2Os2,0.0,-0.0520508,
YLa2Pt2,0.0,-0.0520498,
ZnSnNp,0.0,-0.0520492,
CSi2W2Th2,0.0,-0.0520485,
GaEr2Au2,0.0,-0.0520481,
AlTa3,0.0,-0.0520471,
Ge2PtTh,0.0,-0.0520467,
NiHo2Pt2,0.0,-0.0520462,
ZrOs,0.0,-0.052046100000000005,
Rh2TaIr,0.0,-0.0520434,
RbRhHg3,0.0,-0.0520411,
GaEuHg2,0.0,-0.0520392,
RbLuBi,0.0,-0.05203820000000001,
Ni2InTh2,0.0,-0.0520381,
ZrSbAu2,0.0,-0.0520374,
RuRh2U,0.0,-0.052034399999999995,
Rh2ReAu,0.0,-0.0520317,
ClPdTl3,0.0,-0.0520314,
MgEr2Pb2,0.0,-0.0520313,
ISmIr,0.0,-0.0520312,
ZnSb2Hf6,0.0,-0.052030900000000005,
SbTbAu,0.0,-0.052030700000000006,
ZnEr3Ir2,0.0,-0.052030299999999995,
GaTaIr,0.0,-0.0520297,
Sr2Pt3,0.0,-0.0520293,
CdHf2,0.0,-0.0520288,
InHoIr,0.0,-0.0520282,
GaTaOs,0.0,-0.0520281,
CdBaHg2,0.0,-0.0520256,
RuSb2Th,0.0,-0.0520249,
Cd2BaBi2,0.0,-0.052024799999999996,
GeTb2Ir2,0.0,-0.052024299999999996,
FeDy2Ir2,0.0,-0.052023400000000004,
AgLa2Au2,0.0,-0.052023,
SbTa,0.0,-0.052022599999999995,
Cu2SnTh2,0.0,-0.0520201,
ZnIr2,0.0,-0.0520199,
RhPt,0.0,-0.052017299999999995,
CuBaPb2,0.0,-0.052016,
Ga2Dy3Pt4,0.0,-0.052014200000000003,
NiDyPt2,0.0,-0.052013800000000006,
KCdHg4,0.0,-0.052011800000000004,
SbSmIr,0.0,-0.0520107,
CaPmPb2,0.0,-0.05201,
La2Hg,0.0,-0.052007,
YLa2Ir2,0.0,-0.0520066,
ZrIr,0.0,-0.052005499999999996,
Sn2TbAu2,0.0,-0.0520042,
Al3Ge2IrPu3,0.0,-0.0520011,
NiSn2Hf6,0.0,-0.0519992,
Al3Ir2Th2,0.0,-0.0519976,
Rh2TaOs,0.0,-0.0519975,
ZnTm2Au2,0.0,-0.0519953,
Sr2Hg2Pb,0.0,-0.0519943,
SrTbHg2,0.0,-0.0519924,
BLuPt2,0.0,-0.0519916,
Si2Au2Pa,0.0,-0.0519906,
Cd3Hg4,0.0,-0.051990499999999995,
RhDyTl,0.0,-0.051990299999999996,
In2BaPb2,0.0,-0.0519897,
In2NdTh,0.0,-0.051988799999999995,
SbCeIr,0.0594,-0.0519885,
As3Pb4,0.0,-0.0519844,
ZnTe2Hf6,0.0,-0.0519839,
NiSnU,0.0,-0.051983600000000005,
MnHo6Pb2,0.0,-0.0519825,
CuPt2,0.0,-0.051980200000000004,
MnSbPa,0.0,-0.0519798,
ZnEr3Pt2,0.0,-0.051979500000000005,
SbCePt,0.0,-0.0519787,
CoGd2Ir,0.0,-0.0519777,
Zn2InPa2,0.0,-0.0519768,
Nb2WRe,0.0,-0.0519765,
MgAg2Th2,0.0,-0.051976,
CdPr2Au2,0.0,-0.051976,
GaGd2Ir,0.0,-0.0519729,
ZrHf2,0.0,-0.0519713,
ScBaPb2,0.0,-0.0519702,
RhTmHg,0.0,-0.051969,
NiTaOs,0.0,-0.0519681,
KRhTl3,0.0,-0.0519669,
SnBa2Pt2,0.0,-0.0519663,
Sr2Ir3,0.0,-0.051966200000000004,
RuEr2Au,0.0,-0.051964500000000004,
Zr2OsIr,0.0,-0.051963999999999996,
LiHg3,0.0,-0.0519631,
SrNdAu2,0.0,-0.0519629,
ISmOs,0.0,-0.0519619,
N2NiPu2,0.0,-0.0519616,
MnEr6Tl2,0.0,-0.051960299999999994,
SeSnTh,0.0,-0.0519597,
GeHfIr,0.0,-0.051958199999999996,
Ru2Lu3Pt,0.0,-0.0519578,
Al3Ge2OsPu3,0.0,-0.0519572,
Sn3La2Tl3,0.0,-0.0519564,
NaErPb2,0.0,-0.0519562,
RhEr2Au,0.0,-0.0519533,
SbEuHf,0.0,-0.0519517,
CdTmTl,0.0,-0.051951500000000005,
Co2Er3Pb3,0.0,-0.0519491,
GeHfOs,0.0,-0.0519478,
RhPd2Np,0.0,-0.0519475,
MgPtBi,0.0,-0.051945,
Pr3Pb,0.0,-0.0519444,
FeCo2U2,0.0,-0.051942,
MoAgPt2,0.0,-0.0519391,
GaCsHg3,0.0,-0.0519373,
INdTl,0.1361,-0.0519371,
Pd2AuTl,0.0,-0.0519358,
YRh2Pu,0.0,-0.0519358,
Al3Ge2PtPu3,0.0,-0.051935,
Pd2BaPb2,0.0,-0.0519342,
SiTmPt2,0.0,-0.0519342,
LiGdTl2,0.0,-0.051933799999999995,
InTm2Hg,0.0,-0.0519315,
FeHo6Pb2,0.0,-0.051930500000000004,
CaEuPt2,0.0,-0.0519298,
Pd2SbU,0.0,-0.0519285,
InErAu,0.0,-0.0519283,
CdLa2Au2,0.0,-0.0519277,
FeEr6Tl2,0.0,-0.0519248,
ClTeNp,0.0,-0.051924700000000004,
ScTbTl2,0.0,-0.0519232,
BFe2Pt6,0.0,-0.0519218,
In2PrTh,0.0,-0.0519202,
I3Ac,2.7359,-0.0519187,
RbPdHg3,0.0,-0.0519181,
Pd2Gd2Tl,0.0,-0.0519173,
AlTm2Ir2,0.0,-0.051917000000000005,
CdTm2Os,0.0,-0.0519164,
Te2HfHg,0.0,-0.0519161,
Al2Hf6Ir,0.0,-0.051916,
CaNdPb2,0.0,-0.0519154,
SnHg,0.0,-0.0519149,
C3W2Th2,0.0,-0.0519139,
RhW,0.0,-0.051910899999999996,
LiTmPb2,0.0,-0.05191,
YErPb,0.0,-0.0519098,
Rh2IrAu,0.0,-0.0519096,
PPdPu,0.0,-0.0519093,
CaTl2,0.0,-0.0519086,
CoEr6Tl2,0.0,-0.0519084,
SrLaAu2,0.0,-0.0519077,
In3Lu3Pt2,0.0,-0.0519072,
CaGdHg2,0.0,-0.051906799999999996,
N2SeNp2,0.0,-0.0519066,
GeGd2Hg,0.0,-0.0519058,
Zr2IrPt,0.0,-0.051905700000000006,
YInTl2,0.0,-0.051905299999999994,
GeTb2Pt2,0.0,-0.0519031,
Te2CsTl2,0.0,-0.051901800000000005,
SrPrAu2,0.0,-0.051899799999999996,
AgTbPb,0.0,-0.0518994,
Nb2PtAu,0.0,-0.0518985,
Rb2Tl3,0.0,-0.051898200000000005,
CBr2U2,0.0,-0.0518977,
In3Sn3U2,0.0,-0.0518946,
PdSnAu2,0.0,-0.051894300000000004,
Te4Pt3,0.0,-0.0518911,
GaDy2Ir2,0.0,-0.051891,
CoSbPa,0.0,-0.051890399999999996,
RuNd3Pt2,0.0,-0.051888,
SnTmTa,0.0,-0.0518877,
NbMoW2,0.0,-0.051887300000000004,
SnBa2Ir2,0.0,-0.0518862,
Ag2AuPb,0.0,-0.0518859,
PdSmPb,0.0,-0.0518858,
ScAu2,0.0,-0.0518856,
CuHo2Pt2,0.0,-0.0518855,
ILaTl,0.3119,-0.051884599999999996,
GeNdPt2,0.0,-0.051883200000000004,
MnDy6Bi2,0.0,-0.0518831,
CdTmPt,0.0,-0.0518799,
Tc2TaW,0.0,-0.051879100000000004,
InLa2Hg2,0.0,-0.0518786,
GeTbAu2,0.0,-0.0518783,
Al2Hf6Os,0.0,-0.0518782,
In2LaTh,0.0,-0.051876,
In3Lu3Ir2,0.0,-0.051875500000000005,
RhSb2Th,0.0,-0.0518742,
ZrCeBi,0.0,-0.0518727,
BSc2Pt6,0.0,-0.0518727,
NiCsHg3,0.0,-0.0518725,
TcAgPt2,0.0,-0.0518714,
YRh2Ir3,0.0,-0.0518696,
SnTe4Pb3,0.2253,-0.0518683,
Mn3Os5,0.0,-0.0518682,
IPrTl,0.1277,-0.0518681,
Rh3U,0.0,-0.0518681,
AsTm2Bi,0.0,-0.051866300000000004,
ZrNbRe2,0.0,-0.051865699999999994,
CaLaPb2,0.0,-0.0518649,
Cd2PtPb,0.0,-0.0518648,
InTeHg2,0.0,-0.051864600000000004,
OAsIrU,0.0,-0.0518635,
ISmPt,0.8033,-0.0518631,
CoHo6Pb2,0.0,-0.0518628,
NiPtAu,0.0,-0.0518598,
SnEr2Hg,0.0,-0.051859499999999996,
GaRuU,0.0,-0.0518593,
Ru2InU,0.0,-0.0518575,
LiCdAu4,0.0,-0.0518567,
Zr2OsTl,0.0,-0.051855,
Rh2TaPt,0.0,-0.0518529,
CMgTh2,0.0,-0.0518502,
Al2Hf6Pt,0.0,-0.0518498,
AlTm6Tl2,0.0,-0.0518496,
Sb2GdIr,0.0,-0.0518488,
In3SnAu4,0.0,-0.0518473,
Sb2BaIr2,0.0,-0.051845300000000004,
Sb2BaPt2,0.0,-0.051845,
CaPrPb2,0.0,-0.0518449,
CdDyPb,0.0,-0.0518444,
NiEr6Tl2,0.0,-0.0518439,
CdLuHg,0.0,-0.0518429,
Zr2IrTl,0.0,-0.0518414,
CaLuAu2,0.0,-0.051839500000000004,
RhNdPb,0.0,-0.0518382,
CrDy6Bi2,0.0,-0.0518381,
ScTbIr2,0.0,-0.0518379,
ZnRe2,0.0,-0.0518377,
CoDy2Ir2,0.0,-0.051837299999999996,
STl2,0.7336,-0.0518369,
Si2LuRe4,0.0,-0.0518361,
PdCePb,0.0,-0.051835900000000004,
CaHgPb,0.0,-0.0518352,
ZrPt,0.0,-0.0518347,
Sr2Au2Tl,0.0,-0.0518343,
Tm,0.0,-0.051833399999999995,
Ge2LuIr3,0.0,-0.051833,
FeDy2Os2,0.0,-0.051833,
Zn2AuPu,0.0,-0.0518323,
NiGdBi,0.0,-0.0518314,
AgTm2Au,0.0,-0.0518305,
FeDy6Bi2,0.0,-0.0518268,
N2Tm7Pb3,0.0,-0.051826500000000005,
PAuPb,0.0,-0.0518253,
Cd2HgBi,0.0,-0.051823999999999995,
MoCdPt2,0.0,-0.0518239,
La3Pb,0.0,-0.0518231,
Co3U2,0.0,-0.0518229,
GeRuPa,0.0,-0.0518223,
Sb4Hf5,0.0,-0.0518219,
ZnEr3Os2,0.0,-0.0518178,
ScPtHg,0.0,-0.0518153,
MnCePt2,0.0,-0.0518148,
MnSmPt2,0.0,-0.0518121,
YTbBi,0.0,-0.0518104,
AgHo2Pb,0.0,-0.051809100000000004,
In2DyAc,0.0,-0.0518082,
Ce3Tl,0.0,-0.0518075,
Te4HgTl2,0.0,-0.0518065,
MgIrBi,0.0,-0.0518052,
K3Pt7,0.0,-0.051802,
NiHo6Pb2,0.0,-0.0517983,
CdTmIr,0.0,-0.0517983,
Pd2CdPu,0.0,-0.051798000000000004,
CuDyPt2,0.0,-0.051796100000000005,
SiCuAc2,0.0,-0.0517958,
MgLu2Au2,0.0,-0.051795,
ZrTl,0.0,-0.0517946,
GaDy2Pt2,0.0,-0.051791699999999996,
CuSn2Hf6,0.0,-0.0517913,
GePrPt2,0.0,-0.0517902,
GeTeTh,0.0,-0.0517898,
ScRhBi2,0.0,-0.0517875,
Ag7Pb6,0.0,-0.0517874,
GaDy6Bi2,0.0,-0.0517866,
In2HgTl,0.0,-0.0517862,
RhHo2Ir,0.0,-0.0517846,
GaHoAu2,0.0,-0.0517846,
Sm3Tl,0.0,-0.0517844,
ZrAgTl2,0.0,-0.0517838,
NiTaIr,0.0,-0.0517827,
RuHo2Ir,0.0,-0.0517816,
AlTm2Pt2,0.0,-0.0517793,
InDy2Pb,0.0,-0.051777500000000004,
InIHg2,0.0,-0.0517738,
GeHfPt,0.0,-0.051772,
KSrAu4,0.0,-0.0517664,
Al3IrNp2,0.0,-0.051759700000000006,
CoDy6Bi2,0.0,-0.0517593,
ZnHoPt2,0.0,-0.0517585,
MgHoPb2,0.0,-0.0517583,
ZrSnAu2,0.0,-0.051758000000000005,
AgTl,0.0,-0.0517569,
PdTmHg,0.0,-0.051754800000000004,
SiEr2Ir2,0.0,-0.051754600000000005,
PdDyTl,0.0,-0.051754600000000005,
KPtPb,0.0,-0.051751399999999996,
KPdTl3,0.0,-0.0517504,
Mn3Ir5,0.0,-0.0517489,
Rh2ReHg,0.0,-0.0517453,
GaInBi2,0.0,-0.051744399999999996,
Zr4Hg5,0.0,-0.0517442,
AgErTl,0.0,-0.0517441,
GeLaPt2,0.0,-0.0517419,
TcCdPt2,0.0,-0.051740900000000006,
RuHo2Pt,0.0,-0.051738599999999996,
INdIr,0.0,-0.0517385,
SnTbAu,0.0889,-0.0517379,
ZnPt2,0.0,-0.0517376,
NiHo3Ir2,0.0,-0.0517375,
CaErTl2,0.0,-0.0517374,
SbNdPt,0.446,-0.051737200000000004,
Ru2CdNp,0.0,-0.0517371,
RbEuBi,0.0,-0.051737000000000005,
RhPrPb,0.0,-0.0517365,
GaAu2,0.0,-0.0517339,
I2Er2Bi,0.0,-0.0517322,
RhPdPt2,0.0,-0.051731900000000004,
AgSbAu2,0.0,-0.0517316,
Ge2RhIn3Th3,0.0,-0.0517303,
SiLuAu2,0.0,-0.0517303,
Cr3Ir5,0.0,-0.051729399999999995,
I2Tm2Pb,0.0,-0.0517293,
AsBr2Th2,0.0,-0.051726799999999996,
RhHo2Pt,0.0,-0.051726100000000004,
Al3PtNp2,0.0,-0.0517256,
Se2Tl3,0.0,-0.0517254,
GeRhPa,0.1629,-0.051725,
NiTbPt2,0.0,-0.0517241,
Ag4Hg5,0.0,-0.0517226,
O2SeNp2,0.0,-0.0517214,
AsBaTl2,0.0,-0.051720999999999996,
CaTmPt2,0.0,-0.0517206,
Mn2CdTh2,0.0,-0.051720300000000004,
Ag6Au7,0.0,-0.0517177,
Sn5IrPu,0.0,-0.051717599999999996,
Rh2WAu,0.0,-0.0517175,
PdEr2Au,0.0,-0.0517173,
Zr2HgPb,0.0,-0.0517166,
RhLaPb,0.0,-0.051714199999999995,
ZnHo2Ir2,0.0,-0.0517137,
CdSm3Pt2,0.0,-0.0517102,
LiSrPt4,0.0,-0.0517093,
ZnTmAu2,0.0,-0.051709000000000005,
RuPr3Pt2,0.0,-0.0517072,
Zr2ReIr,0.0,-0.0517067,
CdSm3Ir2,0.0,-0.0517053,
Al2Pt2Th,0.0,-0.0517048,
Fe2CdTh2,0.0,-0.051704599999999996,
GaRhU,0.0,-0.0517039,
AgSb2Pa,0.0,-0.051703000000000006,
SbNdIr,0.0,-0.0516987,
SeBr2Th2,0.0,-0.0516977,
NiHo3Pt2,0.0,-0.0516965,
NiDy6Bi2,0.0,-0.0516963,
Y2TlPb,0.0,-0.051692999999999996,
SiRu3Th2,0.0,-0.0516914,
MnTb2Ir2,0.0,-0.0516895,
Ag2CsBi2,0.0,-0.0516885,
Te2Tm6Ir,0.0,-0.051687800000000006,
BeLaAu3,0.0,-0.0516868,
Rh2Lu2Pb,0.0,-0.051685499999999995,
Sm3Ir,0.0,-0.0516852,
Ca2Bi3,0.0,-0.0516845,
RbRhPb2,0.0,-0.05168,
GaTaPt,0.0,-0.0516791,
Sb2CsTl2,0.0,-0.051676099999999996,
Zr2PtTl,0.0,-0.0516754,
Rh2PtAu,0.0,-0.0516751,
GaDy2Os2,0.0,-0.0516733,
In3Np,0.0,-0.051672800000000005,
PdSb2Th,0.0,-0.0516706,
Co2GaU2,0.0,-0.0516706,
CuEr6Tl2,0.0,-0.0516683,
InDyPt,0.0,-0.0516673,
Rb2BaHgBi2,0.0,-0.0516672,
AlBaAu3,0.0,-0.051665100000000005,
CuCsHg3,0.0,-0.051665,
Cd2EuAc,0.0,-0.0516648,
Te4TmU,0.0,-0.051664499999999995,
ZrNdBi,0.0,-0.0516642,
INdOs,0.0,-0.051663200000000006,
Ga2Tb3Pt4,0.0,-0.0516622,
ScEuHg2,0.0,-0.0516599,
S2TlPu,0.0,-0.051659500000000004,
Al3Ge2AuPu3,0.0,-0.0516582,
Mo2TaW,0.0,-0.051658,
MgHf2Pb,0.0,-0.0516569,
YSbAu2,0.0,-0.051655299999999994,
NiGd2Os,0.0,-0.0516543,
Ru2Lu3Au,0.0,-0.051653700000000004,
SnHoHg,0.0,-0.051652500000000004,
CHf2Hg,0.0,-0.051649299999999995,
ILaIr,0.0,-0.0516486,
RuLa3Pt2,0.0,-0.051648000000000006,
Zr2ReOs,0.0,-0.0516471,
Co2NiU2,0.0,-0.0516471,
InTmHg,0.0,-0.0516458,
CdSbAu2,0.0,-0.0516455,
RhTbTl,0.0,-0.0516451,
RuAgPt2,0.0,-0.051645,
Te2Tm6Pt,0.0,-0.0516433,
Pd2HgTl,0.0,-0.0516422,
Tc2SnPa,0.0,-0.0516395,
Sm3Pt,0.0,-0.051639000000000004,
ZnHo2Pt2,0.0,-0.051638500000000004,
Ga2AuU,0.0,-0.0516374,
AlTm2Os2,0.0,-0.0516367,
Sb2Tm6Ir,0.0,-0.051636600000000005,
NiDy2Ir2,0.0,-0.0516357,
Te2Tm6Os,0.0,-0.0516354,
CaLa2Bi2,0.0,-0.051634599999999996,
Te2LuTl,0.3577,-0.0516325,
YBaHg2,0.0,-0.051631300000000005,
PTl2,0.0,-0.0516304,
NiTaPt,0.0,-0.0516302,
NaHoPb2,0.0,-0.051629100000000004,
Ti2HgBi2,0.0,-0.0516287,
FeHf3,0.0,-0.0516285,
SbBaPb,0.0,-0.0516279,
InDyIr,0.0,-0.0516254,
AlGaAc2,0.0,-0.0516241,
KAg4Tl6,0.0,-0.0516227,
CuGd2Tl,0.0,-0.0516225,
InEr2Au,0.0,-0.051622100000000004,
SbPrPt,0.4244,-0.0516202,
Rb2Hg2Bi,0.0,-0.051619,
Ru2TaAu,0.0,-0.051618000000000004,
SSnNp,0.0,-0.0516142,
MnHf3,0.0,-0.0516137,
Pd2SnU,0.0,-0.0516107,
Sn5PtPu,0.0,-0.051609,
AgInPt2,0.0,-0.051609,
ZnSn2Hf6,0.0,-0.0516068,
AlBaBi2,0.0,-0.0516065,
RhInAu2,0.0,-0.051605,
RbPdPb2,0.0,-0.0516041,
BGa2Pt6,0.0,-0.0516008,
GaIHg3,0.0,-0.0515998,
PdNdPb,0.0,-0.0515977,
SbLaPt,0.0,-0.0515976,
AlEuPt2,0.0,-0.0515959,
Ga2IrPa,0.0,-0.051595100000000005,
CuPtAu,0.0,-0.0515947,
SrSbTl2,0.0,-0.0515922,
SiINp,0.0,-0.0515918,
CrTaW,0.0,-0.051591200000000004,
Er3Lu,0.0,-0.051591099999999994,
SbPrIr,0.0,-0.051590699999999996,
RuSm6Bi2,0.0,-0.0515902,
AgEr2Tl,0.0,-0.0515878,
ZnSnBi2,0.0,-0.051587600000000004,
Ag2HgPb,0.0,-0.0515875,
Sb2Tm6Os,0.0,-0.0515875,
Sn3Tm3Pt2,0.0,-0.051586599999999996,
Sb2Tm6Pt,0.0,-0.0515864,
Te2GdAu,0.0,-0.051585700000000005,
AgEr2Ir,0.0,-0.0515847,
Ge2PdIn3Th3,0.0,-0.051583199999999996,
SiEr2Pt2,0.0,-0.0515829,
Sn3Tm3Ir2,0.0,-0.0515817,
MnNdPt2,0.0,-0.0515817,
INdPt,0.8825,-0.0515806,
CaSeAu4,0.038,-0.0515792,
Al2Hf6Au,0.0,-0.051577599999999994,
Sn2BaTl2,0.0,-0.051577399999999995,
ZrPrBi,0.0,-0.0515768,
RuTb6Tl2,0.0,-0.0515754,
AgCdTl2,0.0,-0.051573799999999996,
InAu,0.0,-0.0515727,
RhSm6Bi2,0.0,-0.051572099999999996,
FeSnPa,0.0,-0.051572099999999996,
MgLuTl2,0.0,-0.0515712,
Y2SnPt3,0.0,-0.0515698,
N2TeTh2,1.4993,-0.0515695,
SrSn2Ir3,0.0,-0.051569000000000004,
GaAgNp,0.0,-0.051567999999999996,
GaGd2Au,0.0,-0.0515675,
Te6CsTh2,0.0,-0.0515665,
ZrCdTl2,0.0,-0.051566299999999995,
Zr3Os2Au,0.0,-0.0515652,
CdHo2Pb,0.0,-0.0515594,
Zr2ReTl,0.0,-0.0515587,
In2TbAc,0.0,-0.051558,
Sn2SmAu2,0.0,-0.0515578,
SiErPt2,0.0,-0.051554,
SeTa2,0.0,-0.051552100000000003,
RhTb6Tl2,0.0,-0.0515515,
SbLaIr,0.0,-0.0515507,
PdHo2Ir,0.0,-0.0515503,
LiPb2,0.0,-0.0515501,
AlEu2Au2,0.0,-0.051549199999999996,
CuHo3Ir2,0.0,-0.0515491,
Sc4Pt2Tl5,0.0,-0.0515474,
MgGeAc2,0.0,-0.0515473,
LiErPb2,0.0,-0.051546999999999996,
NiSbPa,0.0,-0.0515469,
LiHfAu2,0.0,-0.0515454,
ILaOs,0.0,-0.0515452,
CdCe3Os2,0.0,-0.0515425,
Sm3Os,0.0,-0.0515415,
CuDy6Bi2,0.0,-0.0515408,
CuSnU,0.0,-0.0515365,
YInPt2,0.0,-0.0515337,
Ge2EuIr3,0.0,-0.0515332,
CoHf3,0.0,-0.0515331,
RuCdPt2,0.0,-0.0515311,
AgEr2Pt,0.0,-0.0515306,
Ba3Hg2,0.0,-0.0515306,
Pd2Lu3Pt,0.0,-0.05153050000000001,
AlHo6Bi2,0.0,-0.0515279,
CuGd2Pt,0.0,-0.0515266,
TiDy6Bi2,0.0,-0.0515263,
CdTbPb,0.0,-0.051524,
Cd2AuPb,0.0,-0.0515231,
Co2CdTh2,0.0,-0.05152,
Y2IrPb,0.0,-0.0515168,
ILaPt,1.0361,-0.0515165,
LiLaBi2,0.0,-0.051514899999999995,
CaPtTl,0.0,-0.051514000000000004,
PdPt,0.0,-0.051513500000000004,
MgHo2Pb2,0.0,-0.051512999999999996,
SiRh3Th2,0.0,-0.0515128,
Te3Ac,0.0,-0.051511499999999995,
CuHo3Pt2,0.0,-0.0515106,
GaTmHg2,0.0,-0.0515104,
CuTbPt2,0.0,-0.0515079,
MnPrPt2,0.0,-0.051505699999999995,
Y2PtPb,0.0,-0.0515056,
PdPrPb,0.0,-0.0515054,
GaHo2Au2,0.0,-0.0515025,
Ga2CdTh2,0.0,-0.0515023,
SnBa2Au2,0.0,-0.0515023,
SnCeIr,0.0,-0.051502,
Ga2HgBi2,0.0,-0.051499699999999995,
GeITh,0.0,-0.0514993,
ZnHo6Pb2,0.0,-0.051499,
Zr2RePt,0.0,-0.0514987,
Rh2CsPb2,0.0,-0.0514981,
FePmIr2,0.0,-0.051497799999999996,
ZrAgPt2,0.0,-0.0514954,
PdHo2Tl,0.0,-0.0514951,
I3Eu3Bi,0.0,-0.051494,
ZnHo2Os2,0.0,-0.0514934,
AlHf2Re,0.0,-0.0514933,
FePmPt2,0.0,-0.0514933,
PdHo2Pt,0.0,-0.0514932,
MnLaPt2,0.0,-0.051491,
Rh2InU,0.0,-0.05149069999999999,
ZnEr6Tl2,0.0,-0.05149,
Te2ITl2,0.0,-0.0514859,
SiOs2,0.0,-0.0514859,
InHo2Tl,0.0,-0.0514858,
Te3Tl2,0.2168,-0.0514857,
GaDyAu2,0.0,-0.051484999999999996,
In4Pb3,0.0,-0.0514843,
Mo2LaOs2,0.0,-0.051483600000000004,
Sr2Pt2Hg,0.0,-0.0514833,
SrCdPb2,0.0,-0.0514831,
ZrRuAu2,0.0,-0.051482999999999994,
Pd2GdBi,0.0,-0.0514812,
PdLaPb,0.0,-0.051481,
ZnSbU,0.0,-0.051479,
B2Os2Th,0.0,-0.0514786,
RhErHg,0.0,-0.0514735,
CdErTl,0.0,-0.051473399999999996,
SrSn2Pt3,0.0,-0.0514732,
KAuPb,0.0,-0.0514705,
Ag2InPu,0.0,-0.051469499999999994,
Zn2IrNp,0.0,-0.051466500000000005,
SiPdPu,0.0,-0.051466200000000004,
YIn2Pu,0.0,-0.0514656,
CdInPt2,0.0,-0.051464300000000004,
In2CsPb2,0.0,-0.0514619,
InLaPb,0.0,-0.0514615,
GaTb2Ir2,0.0,-0.0514598,
SiZnAc2,0.0,-0.0514593,
ErTm3,0.0,-0.0514583,
ZnDyPt2,0.0,-0.051457,
GaSmPt2,0.0,-0.0514567,
SnSmPt,0.0,-0.0514561,
YRhPt2,0.0,-0.0514554,
Nb2TaOs,0.0,-0.051454900000000005,
SnSmIr,0.0,-0.0514535,
RbAgHg3,0.0,-0.0514529,
Co2Ho3Pb3,0.0,-0.0514523,
MgDyPb2,0.0,-0.051448,
MgLuIr2,0.0,-0.0514475,
B2Ir2Th,0.0,-0.051446599999999995,
Pm3Tl,0.0,-0.0514465,
RuCd2Pu,0.0,-0.0514463,
PdSm6Bi2,0.0,-0.0514435,
AlTmPt2,0.0,-0.0514426,
NbW,0.0,-0.0514424,
NiAu2,0.0,-0.0514406,
MgLuPt2,0.0,-0.0514401,
Te2Tm6Re,0.0,-0.0514383,
YNbOs2,0.0,-0.0514382,
Se2PtTl2,0.0,-0.0514381,
MnIn2Hf6,0.0,-0.051437199999999995,
SrSmHg2,0.0,-0.0514371,
Sn2NdAu2,0.0,-0.0514367,
FeIn2Hf6,0.0,-0.0514367,
GaCePt2,0.0,-0.051435800000000004,
AgEr2Os,0.0,-0.051433799999999995,
AgSnAu2,0.0,-0.051433599999999996,
Sn2LaAu2,0.0,-0.051432200000000004,
SbTe4Tl2Bi,0.0421,-0.051429699999999995,
ZrRhAu2,0.0,-0.0514291,
MgGdAu2,0.0,-0.051428400000000006,
In3Lu3Au2,0.0,-0.0514273,
Te4ErU,0.0,-0.0514266,
TcTa,0.0,-0.0514257,
NaLuTl2,0.0,-0.0514255,
Ge2AuTh,0.0,-0.051424199999999996,
Cd2CsBi2,0.0,-0.0514235,
GaHf3,0.0,-0.0514208,
Cu2InTh2,0.0,-0.051420299999999995,
RbTe2Np,0.0,-0.051416699999999996,
InHoAu,0.0,-0.0514157,
InBa2Pt2,0.0,-0.051414499999999995,
PdTbTl,0.0,-0.0514133,
Mn3Pt5,0.0,-0.051412799999999995,
CoInU,0.0,-0.0514124,
RuPd2U,0.0,-0.0514118,
SrBaPt2,0.0,-0.0514114,
Rh3Pd3U2,0.0,-0.0514107,
GdHo3,0.0,-0.0514101,
CaHoTl2,0.0,-0.051408499999999996,
NbAu,0.0,-0.051408,
Sn2PrAu2,0.0,-0.051407800000000003,
Zn2SnTh2,0.0,-0.051406999999999994,
AlSb2Hf6,0.0,-0.0514046,
SrCeHg2,0.0,-0.0514039,
YPd2Pu,0.0,-0.0514003,
Te2Tm6Au,0.0,-0.0513994,
SnErTa,0.0,-0.0513994,
BrCs2Bi2,0.0,-0.051398000000000006,
CuTaIr,0.0,-0.051397399999999996,
YRu2Np,0.0,-0.051396500000000005,
ZnEr2Au2,0.0,-0.0513939,
YPd2Pt3,0.0,-0.0513932,
CuDy2Pt2,0.0,-0.0513931,
SnCePt,0.0,-0.051390700000000004,
Zr2IrAu,0.0,-0.0513902,
Ni2Ho3Pb3,0.0,-0.051389000000000004,
CoIn2Hf6,0.0,-0.051388800000000005,
YSnAu2,0.0,-0.0513867,
MgAuBi,0.0,-0.0513862,
RhAu,0.0,-0.051384700000000005,
NLu3Pb,0.0,-0.051382699999999996,
Sb2ITl2,0.0,-0.0513812,
CdErPt,0.0,-0.051381,
ZnEr3Au2,0.0,-0.0513808,
RhAgPt2,0.0,-0.051379600000000004,
CrIn2Hf6,0.0,-0.0513776,
Pd2Lu2Pb,0.0,-0.051377400000000004,
Al3RhSn2Pu3,0.0,-0.0513761,
Ga2GdPt3,0.0,-0.0513751,
PdInAu2,0.0,-0.051373800000000004,
Al3AuNp2,0.0,-0.0513734,
PdHo2Os,0.0,-0.0513706,
ZnCsHg3,0.0,-0.0513705,
AlLuAu2,0.0,-0.051367800000000005,
CaEuAu2,0.0,-0.051366999999999996,
GaTb2Pt2,0.0,-0.0513662,
AgTm2Hg,0.0,-0.0513648,
Cd2DyTh,0.0,-0.0513613,
YLa2Au2,0.0,-0.0513591,
Cd4Hg5,0.0,-0.0513553,
ScSmTl2,0.0,-0.0513551,
SrBi,0.0,-0.051355,
Sn3Th,0.0,-0.051354300000000005,
Ru3Pa,0.0,-0.0513531,
Fe3Ir5,0.0,-0.051351999999999995,
SrBaIr2,0.0,-0.0513519,
InSnHg2,0.0,-0.051350900000000005,
ZnGd2Tl,0.0,-0.051350299999999995,
RuIn2U,0.0,-0.0513499,
Si2TmRe4,0.0,-0.051349200000000005,
Ru2Lu3Hg,0.0,-0.051346800000000005,
Sb2Tm6Au,0.0,-0.0513462,
CdTl,0.0,-0.0513459,
CuHo3Os2,0.0,-0.0513433,
Ni2GaU2,0.0,-0.0513431,
SbTmHf,0.0,-0.051342599999999995,
CdEr2Tl,0.0,-0.0513425,
NaDyPb2,0.0,-0.051342,
PIr2,0.0,-0.051340699999999996,
Ni2CdTh2,0.0,-0.0513405,
ZnErAu2,0.0,-0.0513362,
Ga3Rh2Th3,0.0,-0.051335700000000005,
Fe2ZnU2,0.0,-0.0513343,
ISmAu,0.0,-0.0513328,
Ge2LuPu,0.0,-0.0513321,
KLaPb2,0.0,-0.0513317,
SrPmHg2,0.0,-0.051331600000000005,
SiIr2,0.0,-0.0513314,
ScCeTl2,0.0,-0.0513311,
AlTe2Hf6,0.0,-0.0513289,
LiGdPt2,0.0,-0.0513258,
NiGd2Au,0.0,-0.051325,
NiHf3,0.0,-0.0513245,
ZnHo3Ir2,0.0,-0.0513239,