formula,bg,formation_energy,mp-id
PdIn5Th,0.0,-0.0426669,
SeIPt,0.0,-0.0426655,
H2Ta2Ir,0.0,-0.0426625,
ZrIn2Ir,0.0,-0.0426622,
SeHf,0.0,-0.0426615,
Al2SrIr3,0.0,-0.0426613,
SrBa3Pt,0.0,-0.042660899999999995,
Ga3Er2Ir2,0.0,-0.0426603,
B2TmIr2,0.0,-0.04266,
Ga3Dy3Pt2,0.0,-0.0426584,
Nb6PtAu,0.0,-0.0426582,
Mg2NdBi2,0.0,-0.0426579,
Si4Ce3Os4,0.0,-0.0426575,
RhCd2Pb,0.0,-0.042657400000000005,
Al2SrPt3,0.0,-0.0426573,
CaEu3,0.0,-0.042657200000000006,
CaScTl2,0.0,-0.0426562,
CI5Lu4,0.0,-0.0426558,
ZrRh2Au,0.0,-0.042655099999999994,
LiGaPb2,0.0,-0.0426543,
ClSmPt,0.9616,-0.0426542,
SnTeTm,0.0,-0.0426538,
MoRh2Ta,0.0,-0.0426536,
Rh4ErHg,0.0,-0.042653500000000004,
ZnOs,0.0,-0.0426514,
MgPm2Pb,0.0,-0.0426511,
ZrTb3,0.0,-0.0426504,
P2SmOs2,0.0,-0.0426504,
CuPrHg,0.0,-0.0426501,
AsIEu2,0.0,-0.0426498,
Rh3Ta,0.0,-0.0426496,
MnSbPt,0.0,-0.0426494,
Al2Hf2Au,0.0,-0.042649,
P2SmIr2,0.0,-0.0426488,
As2Cd2Pu,0.0,-0.0426485,
Pd2InPt,0.0,-0.0426483,
TeI2Dy2,0.0,-0.0426483,
Al3MnNp2,0.0,-0.042646500000000004,
In2SnHg,0.0,-0.0426462,
CoRuGd2,0.0,-0.0426462,
O4UNp,0.0,-0.0426461,
Rh2EuTb,0.0,-0.0426451,
CaNi2Pt3,0.0,-0.0426451,
ZnBa2Pb,0.0,-0.0426444,
CaCuTl2,0.0,-0.0426418,
OAsRhU,0.0,-0.042639699999999996,
MgHoTl,0.0,-0.0426391,
SrSb2Pt,0.0,-0.042638800000000004,
CInLu3,0.0,-0.042638300000000004,
In3Sn2Sm3Ir,0.0,-0.0426378,
NNd2Au,0.0,-0.0426377,
BAl6Ta10,0.0,-0.0426377,
NiLu2,0.0,-0.0426369,
AgCdEu2,0.0,-0.0426352,
CuCs2Bi,0.8619,-0.042635,
B2TmOs2,0.0,-0.042634700000000005,
SbI2Dy2,0.0,-0.0426346,
SiScIr2,0.0,-0.0426344,
GaRuGd2,0.0,-0.042632500000000004,
CrMnTa2,0.0,-0.0426323,
SrYPb,0.0,-0.042632199999999995,
FeAs2Pu,0.0,-0.0426321,
SrTe3SmAu,0.4407,-0.0426316,
Sn2PmTm,0.0,-0.0426312,
NaYHg2,0.0,-0.0426307,
Ga2PdU,0.0,-0.042629600000000004,
Mg2LaBi2,0.0,-0.0426285,
I6BaEu2,0.8934,-0.042627000000000005,
ClLa2Os,0.0,-0.0426269,
Mn2ZrU,0.0,-0.0426266,
Cl3BrTl4,1.6425,-0.0426261,
AlDyAu,0.0,-0.042626,
Al3Si2MnNp3,0.0,-0.0426254,
CuLaHg,0.0,-0.0426252,
Cu2RuHf3,0.0,-0.042625100000000006,
Si4Sm3Os4,0.0,-0.042624,
Te5Au,0.0,-0.0426225,
Co2Ho3Pt,0.0,-0.0426221,
SeSnTePb,0.1138,-0.0426217,
NiSb2Dy6,0.0,-0.042621,
NiZr3Os2,0.0,-0.0426208,
Al4Si2Pu3,0.0,-0.0426207,
Mg2PrBi2,0.0,-0.0426194,
Co2TaAu,0.0,-0.0426194,
Rh2CdTl,0.0,-0.042618699999999995,
Ca2GeIr3,0.0,-0.0426173,
Co2Er2Pb,0.0,-0.0426173,
NbRu2Ta,0.0,-0.0426173,
KPd2Au2,0.0,-0.0426164,
LiY2Pb2,0.0,-0.042616100000000004,
Pd2HoTm,0.0,-0.0426155,
PCuTl2,0.0,-0.0426155,
ZrPd2Pt,0.0,-0.0426155,
NNd3Hg,0.0,-0.0426154,
In7TbPt2,0.0,-0.042615,
AgInTm2,0.0,-0.042614400000000004,
Al2ErPt2,0.0,-0.0426139,
Zr3In3Ir2,0.0,-0.0426132,
Te3Tb2,0.246,-0.0426125,
AgInHf,0.0,-0.0426124,
Ge2YIr2,0.0,-0.0426122,
Zn2TmAc,0.0,-0.042611800000000005,
Se2TmTl,1.013,-0.0426117,
PdEr,0.0,-0.0426109,
Y3Sn3Pt2,0.0,-0.0426105,
MnFeTa2,0.0,-0.0426089,
Pd2Dy3,0.0,-0.0426083,
RuSnLu,0.0,-0.0426075,
NiRu2Lu3,0.0,-0.0426054,
NbSbLu,0.0,-0.0426052,
AsSb2Pb,0.0,-0.0426051,
CaAg2Au2,0.0,-0.042605,
SbPrSm,0.0,-0.042604500000000003,
Se3Np,0.0,-0.042604300000000005,
RuTe2Sm6,0.0,-0.0426029,
Mn2Tm2Tl,0.0,-0.04260220000000001,
SiCo3Th2,0.0,-0.042601999999999994,
In3BaIr,0.0,-0.0426019,
GaRhGd2,0.0,-0.0426008,
Fe2Tm2Tl,0.0,-0.0426,
Zr2TcTl,0.0,-0.0425997,
CGe2Tm2Re2,0.0,-0.042599200000000004,
Cl2Te2Hg3,1.7857,-0.042598199999999996,
S2IrBi,0.0,-0.042597,
NiAu,0.0,-0.0425962,
Al3Si2FeNp3,0.0,-0.042595799999999996,
ZnPr2Hg,0.0,-0.0425955,
PTe3Tm4,0.0,-0.0425948,
Ca2GePt3,0.0,-0.0425931,
Zr2RuTl,0.0,-0.0425931,
CuGaAu2,0.0,-0.0425913,
Al3Si2CrNp3,0.0,-0.0425904,
Ge4RbPt4,0.0,-0.042588299999999996,
Se2Pd3Bi2,0.0,-0.0425882,
RhTe2Sm6,0.0,-0.042588,
Sn4Au,0.0,-0.0425877,
ScY2Au2,0.0,-0.0425873,
B2Sc2VIr5,0.0,-0.042587200000000006,
MgZr2Ir2,0.0,-0.0425865,
SeTeW,0.7251,-0.0425863,
In3Sn2Sm3Pt,0.0,-0.0425859,
Zr2RhIr,0.0,-0.0425858,
Zr2RhOs,0.0,-0.0425848,
Cu2PtAu,0.0,-0.0425845,
CaY2Tl2,0.0,-0.0425824,
SiNdPt,0.0,-0.0425824,
Rh2CdLu2,0.0,-0.0425819,
Se3Dy4Pb,0.0,-0.0425812,
KGe2Au3,0.0,-0.0425812,
NaSn2Hg2,0.0,-0.0425809,
Si4Sm3Pt4,0.0,-0.0425807,
Li3Tl4,0.0,-0.0425802,
I2Er,0.0,-0.0425801,
Cu2Sn2Pu,0.0,-0.0425785,
SiY2Pt2,0.0,-0.0425781,
B2Hf2W,0.0,-0.0425767,
ZnSmHg,0.0,-0.0425766,
Y3Sn3Ir2,0.0,-0.0425762,
SiPrIr,0.0,-0.042576,
Pd2Te3Pb,0.0,-0.042573900000000005,
Si2CeIr2,0.0,-0.042573900000000005,
CPr2Tl,0.0,-0.0425735,
NiRh2Lu3,0.0,-0.042573099999999996,
Si2RbPt3,0.0,-0.0425729,
AgIn2Tl,0.0,-0.0425729,
Sb2Cs4Hg,0.8149,-0.0425713,
Zr2Ta,0.0,-0.0425712,
B2Sc2TiIr5,0.0,-0.0425712,
Co2Sn5Hf4,0.0,-0.0425692,
NAgHf2,0.0,-0.042568600000000005,
Zr2TcPt,0.0,-0.042567799999999996,
SiRbAu2,0.0,-0.042567,
CrTeIr,0.0,-0.0425665,
Ga2RuTm6,0.0,-0.042566400000000004,
Be2Ta2Au,0.0,-0.0425657,
Ga3Ta2Pt,0.0,-0.0425652,
SiLa2Os,0.0,-0.0425651,
Ca2InBi2,0.0,-0.042564199999999996,
As2Ru2Pa,0.0,-0.0425638,
Ca2TlPb,0.0,-0.0425633,
MgHoPt,0.0,-0.0425619,
Pd2Cd3Th,0.0,-0.0425602,
SbLaSm,0.0,-0.0425598,
AgSnEr2,0.0,-0.0425594,
Ru2AgEr3,0.0,-0.0425583,
ScBaTl,0.0,-0.0425574,
Si2SmIr2,0.0,-0.042556699999999996,
SiLaIr,0.0,-0.0425558,
ClScTl2,0.0,-0.0425557,
Ga2SnTl2,0.0,-0.042554499999999995,
Te2CsTm,1.155,-0.042554299999999996,
RbSbHg,0.0,-0.042553400000000005,
Sn5CeIr,0.0,-0.042553400000000005,
ZrMo2W,0.0,-0.0425533,
YRh2Tl,0.0,-0.042552599999999996,
Pd2Te2Ir,0.0,-0.0425516,
LiCdHg2,0.0,-0.0425492,
Ga2RhTm6,0.0,-0.0425469,
SiNdOs,0.0,-0.0425458,
CrFeTa2,0.0,-0.0425455,
CuTe2Dy6,0.0,-0.0425407,
Ge2Pd2Np,0.0,-0.042539900000000005,
SiPm2Au,0.0,-0.0425398,
SbLa5,0.0,-0.042539499999999994,
AlCrPt2,0.0,-0.0425392,
FSNp,0.0,-0.0425388,
CSiDyRe2,0.0,-0.042537,
AsCsHg,0.0432,-0.042537,
Rh3Au,0.0,-0.042535699999999996,
Be2Ta2W,0.0,-0.042535699999999996,
NbMo2Ta,0.0,-0.0425344,
ZnIr,0.0,-0.0425336,
GaBaAu,0.0,-0.0425332,
AgDy2,0.0,-0.042532600000000004,
LiScPb2,0.0,-0.0425325,
Ge2PdTh,0.0,-0.04253199999999999,
MgHoIr,0.0,-0.0425311,
CrTa,0.0,-0.042529000000000004,
In4DyPt,0.0,-0.042527999999999996,
ClPb,0.0,-0.0425272,
Zn2Sb2Pu,0.0,-0.0425265,
Al3SiPu2,0.0,-0.0425254,
Y2LaAu,0.0,-0.0425253,
CaPd3Tl2,0.0,-0.042524299999999994,
Al3Si2CoNp3,0.0,-0.0425237,
MgZnPb2,0.0,-0.0425233,
Ru2TbTm,0.0,-0.0425216,
ZnLa2Hg,0.0,-0.0425199,
KIn2Hg2,0.0,-0.0425195,
Br2Nd2Bi,0.0,-0.042519100000000004,
In4DyIr,0.0,-0.0425178,
TiSbIr,0.8234,-0.042517200000000005,
InI2Er2,0.0,-0.042516599999999995,
RbTe2Tl,0.1559,-0.042515700000000003,
ClIn2Hg2,0.0,-0.0425145,
Sb3Sm4,0.0,-0.042514,
ZnRb2BaBi2,0.0,-0.0425139,
B2EuPt2,0.0,-0.042513300000000004,
Si4Nd3Ir4,0.0,-0.042512,
SiNiPa,0.0,-0.0425113,
Zr2RhPt,0.0,-0.042511,
In5GdAu,0.0,-0.0425109,
Rh2NdLu,0.0,-0.0425107,
SiScPt2,0.0,-0.0425096,
K2Te4Pt3,0.4491,-0.0425092,
FeTa,0.0,-0.042509099999999994,
CaGaPt2,0.0,-0.042509099999999994,
CGe2Er2Os2,0.0,-0.0425076,
AlTcHf2,0.0,-0.042506,
GaSe2Te6Ta4,0.0,-0.042506,
CoAs2Pu,0.0,-0.0425049,
AlTe2Ho6,0.0,-0.0425045,
Zr2MoIr,0.0,-0.042501800000000006,
RuSb2Sm6,0.0,-0.042501800000000006,
As2BrPb2,0.0,-0.042499699999999994,
GaTe2Bi,0.0,-0.0424989,
Rh6Sb4Pu,0.0,-0.0424987,
Zr3In3Os2,0.0,-0.0424984,
SrTe3NdAu,0.4412,-0.0424982,
SnPm3,0.0,-0.042498100000000004,
Pd4TmHg,0.0,-0.0424971,
Rb2SrCdBi2,0.0445,-0.0424971,
ScLa2Hg,0.0,-0.0424938,
Ge2YOs2,0.0,-0.042493,
O2CsPu,0.0,-0.0424927,
LiIn2Pt2,0.0,-0.0424927,
MgZr2Pt2,0.0,-0.042492600000000005,
B2N4Np3,0.0,-0.0424925,
Ru2In3Lu3,0.0,-0.0424923,
AlPm2Tl,0.0,-0.042491999999999995,
Ag2Sb2Pb,0.0,-0.042491799999999996,
Zn2ReOs,0.0,-0.042491,
SiZnU,0.0,-0.0424906,
Se2MoTe6W3,0.4649,-0.042490099999999996,
Cd2BaHg,0.0,-0.04249,
SiHoTa,0.0,-0.0424898,
H2Ta2Re,0.0,-0.0424878,
In2HoTm,0.0,-0.0424869,
C2Tm3Pb,0.0,-0.0424852,
RhSb2Sm6,0.0,-0.042485,
ZnCeHg,0.0,-0.0424846,
Ge2Te5Bi2,0.1466,-0.0424839,
SiPrPt,0.0,-0.0424838,
SiNiIr2,0.0,-0.0424838,
Ni2Te2Er7,0.0,-0.0424831,
GeTe2Pb,0.0852,-0.0424814,
Pd2In2Bi,0.0,-0.0424814,
Rh2CdOs,0.0,-0.0424808,
Co2HfPt,0.0,-0.042479300000000005,
ZnPt,0.0,-0.0424778,
Te5Tm2,0.0,-0.042477600000000004,
SrBa3Ir,0.0,-0.042477400000000005,
Ag2CdGd2,0.0,-0.0424773,
PdIn2Au,0.0,-0.0424764,
Co2CdHf3,0.0,-0.0424758,
SiGaPt2,0.0,-0.0424755,
ClSePt2,0.0,-0.0424744,
Zr3In3Pt2,0.0,-0.0424734,
PPd2Ac,0.0,-0.0424734,
Cu2Tm2Pb,0.0,-0.0424726,
Ge2In3Lu3Ir,0.0,-0.0424724,
CuAs2Bi2,0.0,-0.0424723,
Pd2AgTl,0.0,-0.042472,
CdEu,0.0,-0.0424717,
CdSn2Hg,0.0,-0.0424709,
CaGeAu2,0.0,-0.042470799999999996,
Si2CeOs2,0.0,-0.0424706,
BSnLu3,0.0,-0.0424705,
CSiHf3,0.0,-0.0424698,
CuSb2Dy6,0.0,-0.0424683,
AsHf,0.0,-0.0424683,
GeBa2Au,0.0,-0.042468000000000006,
Zn2IrPt,0.0,-0.0424666,
NPr2Au,0.0,-0.042466000000000004,
MgNd2Pb,0.0,-0.042465699999999995,
Co2Tm2Tl,0.0,-0.0424645,
Zn2Lu2Tl,0.0,-0.0424642,
Br4PtTl2,0.8138,-0.0424642,
Nb2InAu,0.0,-0.042463900000000006,
InEr,0.0,-0.0424619,
N2CePa,0.0,-0.042461799999999994,
AlSb2Ho6,0.0,-0.042461799999999994,
CaBaPb,0.1868,-0.042461399999999996,
NaTe6Hf3,0.0,-0.0424598,
Tc2SnHf,0.0,-0.0424595,
P2NdOs2,0.0,-0.0424585,
GeNdHf,0.0,-0.0424584,
PdTe2Sm6,0.0,-0.042458199999999995,
Rh2DyEr,0.0,-0.0424575,
TiZnAu2,0.0,-0.0424557,
NiRuGd2,0.0,-0.0424554,
Ga2SmAc,0.0,-0.042455,
Rb2InHg2,0.0,-0.0424542,
Y2Au,0.0,-0.0424532,
Sr4Hg3,0.0,-0.0424525,
Te7Dy4,0.0,-0.0424521,
Ni2Er3Hg,0.0,-0.0424514,
ZnGaTh,0.0,-0.0424514,
BaLa5,0.0,-0.0424511,
S2CsNp,0.0,-0.042450800000000004,
Br2La2Bi,0.0,-0.042450800000000004,
Rh2InHg,0.0,-0.0424495,
Si2SmOs2,0.0,-0.0424487,
Pd2InAu,0.0,-0.0424485,
Ru2SnTm2,0.0,-0.0424475,
N2SmPa,0.0,-0.042447200000000004,
Al3MnGe2Pa3,0.0,-0.042446199999999996,
SiPrOs,0.0,-0.0424454,
PCuPa,0.0,-0.0424454,
B2Sc2CoIr5,0.0,-0.0424454,
LiTb2Ir,0.0,-0.0424437,
Si4Tb3Au4,0.0,-0.0424435,
CaLa3Ir,0.0,-0.0424432,
Ag5Pt2,0.0,-0.042443100000000004,
SiLaPt,0.0,-0.042442,
AsTe3Ho4,0.0,-0.0424406,
Sn2Eu,0.0,-0.0424388,
SrInAu,0.0,-0.0424386,
SeTm2,0.0,-0.0424384,
AlPPb2,0.0,-0.042438000000000003,
MnCoTa2,0.0,-0.042438000000000003,
Rh7Pa,0.0,-0.042437800000000005,
SiAsW2,0.0,-0.0424373,
Se4BaAu2Pb,0.0,-0.0424366,
Cd2InPb,0.0,-0.0424364,
ScLaHg,0.0,-0.042435,
CClNp,0.0,-0.0424341,
NiRhGd2,0.0,-0.0424336,
Mg4Tl5,0.0,-0.042433,
CuSb3Hf2,0.0,-0.0424327,
PdInGd,0.0,-0.0424319,
Br2Pr2Bi,0.0,-0.042430300000000004,
SbNd2,0.0,-0.042430300000000004,
Ga2CeAc,0.0,-0.042429699999999994,
RuRh2Ho3,0.0,-0.042429499999999995,
ScTm3,0.0,-0.0424291,
Rh2CdRe,0.0,-0.0424283,
NPr3Hg,0.0,-0.042427900000000004,
Rh4HoHg,0.0,-0.0424267,
Al3Si2NiNp3,0.0,-0.0424264,
AlGePa,0.0,-0.0424247,
NiCuAu2,0.0,-0.042423999999999996,
Se2RbU,0.0,-0.0424234,
ZnTm3,0.0,-0.0424229,
RuRhHo2,0.0,-0.0424216,
ZrAg2Pb,0.0,-0.042421,
PdCdHf,0.0,-0.0424196,
B4Ba2Pt5,0.0,-0.0424188,
Si4Pr3Ir4,0.0,-0.042418399999999995,
RhHo,0.0,-0.042418399999999995,
Se3Tb4Bi,0.0,-0.0424173,
Ge2Ho2Tl,0.0,-0.042416600000000006,
Rh2SnHf,0.0,-0.042416499999999996,
RhSbEu,0.0,-0.0424162,
Zr6SnBi2,0.0,-0.0424159,
Pd2Te2Pt,0.0,-0.0424156,
Ru2DyEr,0.0,-0.042414299999999995,
SrAgTl,0.0,-0.0424139,
Zr2RuRe,0.0,-0.0424137,
In3BaAu,0.0,-0.0424133,
In3Te2Bi,0.0,-0.0424131,
Si2Cu4Pa3,0.0,-0.0424131,
Zr2RhTl,0.0,-0.0424116,
TeCe,0.0,-0.0424104,
Rh2InTa,0.0,-0.0424102,
Ru2RhHo3,0.0,-0.042409999999999996,
SiLaOs,0.0,-0.0424096,
FeSbIr,0.0,-0.042408799999999996,
MoTe4W,0.7361,-0.0424082,
Ru2CdEr3,0.0,-0.042407400000000005,
PdTeEu,0.0,-0.0424071,
LiTb2Tl,0.0,-0.0424071,
Si2Hf3,0.0,-0.0424064,
MgPd2Th,0.0,-0.0424059,
P2PrIr2,0.0,-0.0424058,
In2Gd,0.0,-0.042405700000000005,
Zr2AgPb,0.0,-0.042405200000000004,
ZnY2Au2,0.0,-0.0424048,
Al3CrGe2Pa3,0.0,-0.0424048,
P2LaOs2,0.0,-0.0424045,
AlFePt2,0.0,-0.0424045,
SiClNp,0.0,-0.0424042,
CaRh2Ac,0.0,-0.0424042,
Te2Ho,0.0,-0.042404000000000004,
Ga2HfIr,0.0,-0.0424023,
Rh2PrLu,0.0,-0.042401600000000005,
GaBa2Tl,0.0,-0.0424009,
NLa2Au,0.0,-0.0424005,
N2DyTh,0.0,-0.0423998,
Se2LuAu,0.2508,-0.0423996,
MgErAu,0.0,-0.0423988,
Se2Nd6Os,0.0,-0.0423986,
SiPd2Ac,0.0,-0.0423983,
Sb3NdSm3,0.0,-0.0423969,
N3WPu,0.0,-0.0423968,
Ge2In3Lu3Pt,0.0,-0.042396500000000004,
In4TbIr,0.0,-0.0423961,
Ag3Pb,0.0,-0.0423961,
Sc2WRe,0.0,-0.042395800000000004,
Zr2MoOs,0.0,-0.0423949,
SrBa3Au,0.0,-0.0423946,
CuRu2Lu3,0.0,-0.0423943,
BeGeU,0.0,-0.0423934,
KPb,0.0,-0.042393099999999996,
Al3FeGe2Pa3,0.0,-0.042393,
PdSb2Gd,0.0,-0.042392000000000006,
Si2ErAu2,0.0,-0.042392000000000006,
CSi2Ru2Th2,0.0,-0.042391599999999995,
In7SmPt2,0.0,-0.042391599999999995,
Si2Np,0.0,-0.042391399999999996,
P2LaIr2,0.0,-0.0423906,
Al3RhLu3Pb2,0.0,-0.0423902,
ZrTc2Ta,0.0,-0.0423895,
CRu3Th,0.0,-0.0423872,
S2CsPb2,0.0,-0.0423868,
OSnEu3,0.0,-0.0423868,
Sb5Hg,0.0,-0.0423868,
CoPdGd2,0.0,-0.0423863,
Sn5LaIr,0.0,-0.0423863,
CaIn3Ir2,0.0,-0.0423863,
GaPdGd2,0.0,-0.0423835,
AlGaIr2,0.0,-0.042382500000000004,
CdInTm2,0.0,-0.0423815,
Sb2Er,0.0,-0.0423814,
Zr2MoTl,0.0,-0.0423807,
AsI2Lu2,0.0,-0.042380600000000004,
Ge2YPt2,0.0,-0.0423804,
Sn2CeEr,0.0,-0.042380299999999996,
Y2TeTl,0.0,-0.0423799,
Rh2SnTm2,0.0,-0.0423793,
InSb2Sm6,0.0,-0.0423755,
RuHo,0.0,-0.0423746,
CrCoTa2,0.0,-0.0423742,
Ni2Er2Pb,0.0,-0.0423738,
N3RePu,0.0,-0.0423732,
Cd3Bi,0.0,-0.0423732,
LiTbPb,0.0,-0.0423725,
Si4Nd3Os4,0.0,-0.0423713,
SiTe3Tm4,0.0,-0.042371200000000005,
Al3Hf5,0.0,-0.042371,
Mn2HfW,0.0,-0.0423703,
PLa2Hg,0.0,-0.0423697,
Nb3Au,0.0,-0.0423694,
In4TbPt,0.0,-0.042367300000000004,
ClNdPt,1.0339,-0.042367199999999994,
Ti2InIr2,0.0,-0.0423664,
PdSnLu,0.0,-0.0423663,
B2ErIr2,0.0,-0.042365400000000004,
ZnTe2Dy6,0.0,-0.0423649,
CaCu2Pt3,0.0,-0.0423647,
TeSm,0.0,-0.0423644,
Al3CoGe2Pa3,0.0,-0.0423642,
AsAgPb,0.0,-0.0423641,
MgSmPb,0.0,-0.0423631,
Si2NdIr2,0.0,-0.0423624,
Rh2CdEr3,0.0,-0.0423614,
MgSn2Ac,0.0,-0.042360100000000005,
SeSbAu,0.0,-0.0423598,
Zn2LaAu2,0.0,-0.042359299999999996,
FeIn2Ho6,0.0,-0.0423587,
MnSn2Dy6,0.0,-0.0423569,
PdSb2Sm6,0.0,-0.0423567,
In3Sn2Nd3Ir,0.0,-0.0423563,
Ag2EuTm,0.0,-0.042354300000000004,
NaAlBi2,0.0,-0.0423537,
PFeTh,0.0,-0.0423529,
NLa3Hg,0.0,-0.0423519,
SbPrNd,0.0,-0.0423512,
LiDy2Au,0.0,-0.0423512,
SeI2Lu2,0.0,-0.042350099999999995,
Ni2Ho3Pt,0.0,-0.04235,
Cl4BrTl5,1.6517,-0.042349,
B2SrIr3,0.0,-0.0423489,
RbI3Pb,1.4444,-0.0423488,
Al2HoPt2,0.0,-0.042348500000000004,
CoIn2Ho6,0.0,-0.0423465,
CaCd2Au2,0.0,-0.042345999999999995,
SbTe3Sm4,0.0,-0.0423452,
CaLa3Os,0.0,-0.042345100000000004,
H2CTh2,0.0,-0.042343200000000004,
Zr2MoPt,0.0,-0.0423428,
Ru3Pd3Ta2,0.0,-0.042342399999999995,
MgPr2Pb,0.0,-0.042341000000000004,
Pd2CdTl,0.0,-0.042340800000000005,
B2ErOs2,0.0,-0.0423394,
Ge2Ag2Pu,0.0,-0.042339100000000005,
SbTeHo,0.0,-0.042338799999999996,
AlTiReIr,0.0,-0.0423384,
TiHg,0.0,-0.042338299999999995,
CaY2Pt2,0.0,-0.0423361,
Rh2Te2Hg,0.0,-0.042334899999999995,
Fe3Hf2Ir,0.0,-0.042334000000000004,
As3Pb2,0.0,-0.0423338,
CSiTbRe2,0.0,-0.042333300000000004,
CaIn2Ac,0.0,-0.042331400000000005,
Ge2RuEr6,0.0,-0.0423304,
SbLa3,0.0,-0.0423296,
LiTb2Pt,0.0,-0.0423281,
B2Sc2NiIr5,0.0,-0.042328000000000005,
In5LuIr,0.0,-0.0423244,
CdIn2Tl,0.0,-0.042323,
ZrRu2Ta,0.0,-0.0423225,
PSU,0.0,-0.04232180000000001,
AlRh2Ac,0.0,-0.042319899999999994,
SiSmRe,0.0,-0.042319699999999995,
CCo2Ho2Pb2,0.0,-0.0423193,
Sc2AuHg,0.0,-0.0423189,
In4Bi,0.0,-0.0423173,
Co2Ho3Au,0.0,-0.042316099999999995,
BAg2Pt2,0.0,-0.0423157,
ClBrPt2,0.9272,-0.0423146,
CdDy2,0.0,-0.0423136,
RuSm3,0.0,-0.0423134,
Mn2Sb2PtAu,0.0,-0.0423132,
SnCe2,0.0,-0.0423131,
OLa3Hg,0.0,-0.0423125,
Ca2HgBi,0.0,-0.0423121,
SnSm2,0.0,-0.0423117,
In3Sn2Nd3Pt,0.0,-0.0423115,
K3Rh4Pb4,0.0,-0.0423114,
ZnRe,0.0,-0.0423112,
CaLaTl,0.0012,-0.0423112,
OBa3Bi,0.0,-0.0423108,
OAsPdU,0.0,-0.0423105,
Se4BrBi3,0.9007,-0.0423104,
Zn2Tm3Hg,0.0,-0.0423104,
HLa3Pb,0.0,-0.0423091,
RbBa3Pt,0.0,-0.0423091,
AlCrRe2,0.0,-0.0423089,
Rb2CdAu2,0.0,-0.0423082,
Zn2Pa,0.0,-0.042308,
ClLa2Au,0.0,-0.0423078,
Zr2RhRe,0.0,-0.0423077,
Rh2CdIr,0.0,-0.0423074,
AsTm2,0.0,-0.042307000000000004,
ZnSb2Dy6,0.0,-0.042306800000000006,
In7NdPt2,0.0,-0.0423067,
NiZnTh,0.0,-0.042305999999999996,
NNdIr,0.0,-0.0423046,
Si4La3Ir4,0.0,-0.042304499999999995,
Ni2SnPa,0.0,-0.042304299999999996,
P2NdIr2,0.0,-0.0423041,
Pd2EuTb,0.0,-0.0423037,
MoTc2Hf,0.0,-0.0423008,
SeInTl,0.0,-0.0423,
Zr6RuBi2,0.0,-0.042299100000000006,
Te5Ta,0.0,-0.042298699999999995,
Cu2SrBi2,0.0,-0.0422984,
S2U,0.0,-0.0422962,
SbLaNd,0.0,-0.0422955,
AlMoHf2,0.0,-0.0422952,
Rh2Te3Tl,0.0,-0.042295099999999995,
Ga2RbBi2,0.0,-0.0422944,
Cu2Th,0.0,-0.0422938,
Fe2SnTh,0.0,-0.042293399999999995,
NiAs2Pu,0.0,-0.0422922,
Si2PrIr2,0.0,-0.042291499999999996,
Rb2PdHg2,0.0,-0.0422914,
AlZr2Au2,0.0,-0.042288400000000004,
Pd7Np,0.0,-0.042288,
Ca2CsPb2,0.0,-0.042288,
Si2SmPt2,0.0,-0.042287,
MgLa2Pb,0.0,-0.0422869,
CuSe2Pu,0.0,-0.0422859,
AlNd2Tl,0.0,-0.0422859,
SbTeCe2,0.0,-0.0422852,
Nb3W,0.0,-0.042284999999999996,
AsTeAu,0.0,-0.0422847,
CaLa2Ir,0.0,-0.042284,
PdSbEu,0.0,-0.0422839,
ZnNdHg,0.0,-0.042283799999999996,
Si4Pr3Os4,0.0,-0.0422834,
Zr3Pb,0.0,-0.0422827,
AlScIr2,0.0,-0.0422825,
LiTe6Hf3,0.0,-0.042280700000000004,
Si2CePt2,0.0,-0.042280500000000006,
YSbGd,0.0,-0.042280099999999994,
Zr2SnAu,0.0,-0.04228,
Zn2RuNp,0.0,-0.0422795,
In7PrPt2,0.0,-0.0422791,
LiYHg2,0.0,-0.0422786,
Zr2Rh2Bi,0.0,-0.0422778,
Ag2SbAu,0.0,-0.0422777,
Rh2Sn3Tm3,0.0,-0.0422776,
Ru2PdHo3,0.0,-0.0422775,
RhSm3,0.0,-0.042277,
AlTbAu,0.0,-0.042276,
N2BaNp,0.0,-0.042275799999999995,
Ga3GdPt2,0.0,-0.042275599999999997,
P2CePt2,0.0,-0.0422738,
Y2TePt,0.0,-0.0422734,
Ge2Tb2Pb,0.0,-0.0422726,
Zr2TcRe,0.0,-0.0422725,
AsSbAu,0.0,-0.042272399999999995,
K2SnBi2,0.0,-0.0422721,
Pd2Gd,0.0,-0.0422717,
LiTb2Os,0.0,-0.0422712,
CdSnGd,0.0,-0.042270499999999996,
ScZnAu2,0.0,-0.042268599999999996,
Sn2PmEr,0.0,-0.0422685,
In5LuPt,0.0,-0.042268099999999996,
Ga3Ho2Ir2,0.0,-0.0422668,
Zr6RhBi2,0.0,-0.0422662,
In3Sn2Pr3Ir,0.0,-0.0422661,
CuAu,0.0,-0.042266,
PCoTh,0.0,-0.0422657,
Al2CsBi2,0.0,-0.0422656,
Si4La3Os4,0.0,-0.042263800000000004,
Zn2InPb2,0.0,-0.0422634,
AlY2Ir2,0.0,-0.0422632,
FeEr3,0.0,-0.0422627,
TeI2Tb2,0.0,-0.0422626,
SbPr2,0.0,-0.042262,
BrCs2Au,3.0442,-0.0422618,
Se3BaU,0.0,-0.0422616,
MgTmHg,0.0,-0.0422607,
NSnEu3,0.0,-0.0422603,
AlMnPa,0.0,-0.0422601,
Ga2HfPt,0.0,-0.042259099999999994,
Sr3Pt2,0.0,-0.042259099999999994,
Si2NdOs2,0.0,-0.0422588,
SeTeAu,0.0,-0.0422585,
Ga3Tb3Pt2,0.0,-0.0422585,
Ge2Rh3Pu,0.0,-0.0422583,
Y2I2Pb,0.0,-0.0422582,
BrTeAu,1.0087,-0.042257199999999995,
MgSnTe4Tl2,0.2698,-0.0422559,
Pd4ErHg,0.0,-0.0422559,
CSiSmOs2,0.0,-0.0422538,
MgDyTl,0.0,-0.042253599999999995,
CSiCeOs2,0.0,-0.0422535,
OAsCdNp,0.0,-0.0422515,
Si2LaIr2,0.0,-0.0422508,
NiZrBi,0.0,-0.0422502,
Al3NiGe2Pa3,0.0,-0.0422502,
HSPu,0.0,-0.0422482,
SiCuIr2,0.0,-0.042247599999999996,
TeLa2,0.0,-0.0422474,
Si4Pr3Pt4,0.0,-0.0422471,
SiLa2Au,0.0,-0.0422457,
RhTeTm,0.0,-0.0422455,
Br4AuTl2,0.0,-0.0422447,
NBa3Bi,0.5901,-0.042244500000000004,
Ga2NdAc,0.0,-0.042243499999999996,
Se2ErTl,1.0229,-0.0422434,
Mg3Au4,0.0,-0.0422429,
CoSn2Dy6,0.0,-0.0422425,
Pd2CdLu2,0.0,-0.0422425,
SbI2Tb2,0.0,-0.042242400000000006,
Zn2ErAc,0.0,-0.042242199999999994,
In5LuOs,0.0,-0.0422419,
Rh2PdHo3,0.0,-0.0422416,
KPd2Hg2,0.0,-0.0422397,
FeCoTa2,0.0,-0.0422397,
CaScPt2,0.0,-0.0422396,
MgSrAu2,0.0,-0.042238399999999995,
Ni2TaAu,0.0,-0.0422378,
OZnSbNp,0.0,-0.0422376,
O4PaNp,0.0,-0.0422375,
AlFePa,0.0,-0.042236800000000005,
Zr2PdOs,0.0,-0.0422367,
Pd2HoEr,0.0,-0.0422344,
Br2Sm2Pb,0.0,-0.042234299999999995,
CaY2Ir2,0.0,-0.042234,
Ni2Tm2Tl,0.0,-0.042234,
AlSb3Ta2,0.0,-0.0422338,
Sc2SnPt2,0.0,-0.042232599999999995,
Al3Si2CuNp3,0.0,-0.0422321,
PNdAu,0.0,-0.042232,
SrBaEu2,0.0,-0.0422309,
AlTiPt2,0.0,-0.0422301,
Ga2RhPa,0.0,-0.04223,
In2SmLu,0.0,-0.0422275,
CaGe4LaIr4,0.0,-0.042227200000000006,
Zr2CdPb,0.0,-0.042226599999999996,
SiSmAu,0.0,-0.042226599999999996,
LiSm2Pb,0.0,-0.0422263,
Ni2HfIr,0.0,-0.0422262,
H3BrPu2,0.0,-0.0422258,
In3Sn2Pr3Pt,0.0,-0.0422256,
Rh4DyHg,0.0,-0.0422253,
CaAg2Th,0.0,-0.0422248,
KRbAu2,0.0,-0.042223500000000004,
ZrRh2Hg,0.0,-0.042223500000000004,
YIn2Tl,0.0,-0.0422222,
Br3TlPb,2.3457,-0.0422219,
KCd2Pt2,0.0,-0.0422217,
MgAl3Si2Pu3,0.0,-0.042219900000000005,
CSm2Hg,0.0,-0.042219099999999996,
SiNiPt2,0.0,-0.0422188,
Se2Pr6Os,0.0,-0.042217599999999994,
Tc4Re,0.0,-0.0422175,
SbLaPr,0.0,-0.042217399999999995,
Pd5Lu3,0.0,-0.0422171,
Zr2PdIr,0.0,-0.0422161,
Rh2AgPt,0.0,-0.0422154,
Zr2InOs,0.0,-0.0422137,
Ni2TaW,0.0,-0.042212400000000004,
N2U,0.7164,-0.042212000000000006,
O4ThPu,0.0,-0.0422119,
CdIn2Ir,0.0,-0.042211799999999994,
SnI2Dy2,0.0,-0.042211799999999994,