formula,bg,formation_energy,mp-id
MoHf2Pt,0.0,-0.058422299999999996,
PmSmIr2,0.0,-0.0584221,
CoTa5,0.0,-0.0584163,
RuPt2,0.0,-0.0584157,
LaPrTl2,0.0,-0.0584127,
InLuPt2,0.0,-0.058412399999999996,
GaAu2Bi,0.0,-0.058412399999999996,
TbDyBi,0.0,-0.058411700000000004,
GeSnPt5,0.0,-0.0584102,
KHg5,0.0,-0.058407200000000006,
CuAu4,0.0,-0.058407099999999997,
Sn2U,0.0,-0.058406999999999994,
CuSnAc2,0.0,-0.058406599999999996,
Te2Hf6Re,0.0,-0.0584061,
RhHf2Re,0.0,-0.0584037,
CdHfAu2,0.0,-0.0584029,
FeSbPt5,0.0,-0.0584009,
CoHf3Re2,0.0,-0.0583998,
Y3Pb5,0.0,-0.058397399999999995,
Rh2Lu3Pb3,0.0,-0.058395800000000005,
ZnTl2Pb,0.0,-0.0583937,
CsHg2,0.0,-0.0583934,
SmOs,0.0,-0.058392400000000004,
MnOs2Ir,0.0,-0.0583918,
RuWPt,0.0,-0.0583904,
TcHf2Re,0.0,-0.0583893,
Pr2HgPb,0.0,-0.0583892,
AsI2Th2,0.0,-0.0583867,
CaHg2Tl2,0.0,-0.0583867,
PSe3Th4,0.0,-0.0583857,
LaTl,0.0,-0.058384700000000005,
Ag2SnTh2,0.0,-0.0583782,
GePt2Tl,0.0,-0.058374699999999995,
Sm2AuTl,0.0,-0.058374499999999996,
AgInPu,0.0,-0.0583739,
PmPt,0.0,-0.058367800000000004,
Al3Th4,0.0,-0.0583665,
Dy5Pt2Bi,0.0,-0.0583639,
SeI2Th2,0.0,-0.058362699999999997,
Ca2Tl3Pb3,0.0,-0.058360300000000004,
GaSb3Pu2,0.0,-0.058359,
CrOsIr2,0.0,-0.058357,
RhBaTl3,0.0,-0.0583551,
SnEuPt2,0.0,-0.058351799999999995,
AgHgPb,0.0,-0.058348,
Mn2Ir3Th,0.0,-0.0583472,
RhIrPt,0.0,-0.058346600000000005,
VIr3,0.0,-0.0583461,
In2HgBi2,0.0,-0.0583453,
PdTa3,0.0,-0.0583437,
GeAgAc2,0.0,-0.058342599999999994,
AsPt2Tl,0.0,-0.0583421,
CdTl2,0.0,-0.0583419,
InTbPb2,0.0,-0.0583416,
FeOs3,0.0,-0.0583392,
Pm2IrPt,0.0,-0.0583377,
La2HgPb,0.0,-0.0583298,
Ge2Pt3Th,0.0,-0.058329700000000005,
Pd2Tm4Tl5,0.0,-0.058327800000000006,
LaCePt2,0.0,-0.0583271,
InPt2,0.0,-0.0583252,
Cu2HgTh2,0.0,-0.058325,
AgBaAu4,0.0,-0.0583243,
InEuTl2,0.0,-0.058324100000000004,
MnAu2Pb,0.0,-0.0583224,
CeTbAu2,0.0,-0.058319699999999995,
Sb2Hf6Au,0.0,-0.0583177,
LaDyAu2,0.0,-0.0583169,
Cu2Pb2Pu,0.0,-0.0583169,
Ni2Pt7,0.0,-0.0583136,
PdHf2Os,0.0,-0.0583123,
CCdTh2,0.0,-0.058311999999999996,
LiAu5,0.0,-0.0583116,
Pd2CdTh2,0.0,-0.0583113,
PdBaTl3,0.0,-0.05831,
PdSbU,0.0,-0.0583071,
PdLuPt2,0.0,-0.058304,
NaHg2Ac,0.0,-0.0583025,
ClHg5,0.0,-0.0583003,
Ag2BiAc,0.0,-0.0582998,
CdNdBi2,0.0,-0.0582969,
Ho6WBi2,0.0,-0.0582947,
CrIr3,0.0,-0.0582919,
Pd2HgBi2,0.0,-0.0582906,
SiTa4Pt,0.0,-0.0582903,
SeHg2Pb,0.0,-0.058289900000000006,
PmIr,0.0,-0.0582869,
RhBaBi2,0.0,-0.0582868,
BNd2Pt6,0.0,-0.058283999999999996,
NdSmIr2,0.0,-0.058283,
GeTh,0.0,-0.0582828,
CdLaBi2,0.0,-0.0582815,
ZnRu2U2,0.0,-0.0582802,
MnOsIr2,0.0,-0.0582795,
Ru2LuNp,0.0,-0.0582774,
InTa3,0.0,-0.058276299999999996,
TeGdPb,0.0,-0.058274299999999994,
NbHfBi,0.0,-0.0582719,
GaRhAc2,0.0,-0.058268,
ZnHf3Os2,0.0,-0.058267200000000005,
Sn2Hf6Ir,0.0,-0.0582662,
Ba2Pt2Hg,0.0,-0.0582656,
NdErBi,0.0,-0.0582623,
PdHf2Ir,0.0,-0.058261099999999996,
CrReIr2,0.0,-0.0582592,
Te2PtTl2,0.0,-0.0582582,
KTlPb2,0.0,-0.0582577,
Pd3SnNp2,0.0,-0.058253,
CdTa2Au,0.0,-0.0582523,
CdGdPt2,0.0,-0.0582494,
CdPrBi2,0.0,-0.0582487,
NiHf3Re2,0.0,-0.0582475,
NdPt,0.0,-0.0582441,
MnReIr2,0.0,-0.0582421,
AsZrPt5,0.0,-0.058240299999999995,
NiPa,0.0,-0.05824,
RhWPt,0.0,-0.0582365,
ZrPt2,0.0,-0.0582342,
InLu2Ir2,0.0,-0.058234,
GeIr3,0.0,-0.0582306,
AsHgTl2,0.0,-0.0582304,
RuSnU,0.0,-0.058228999999999996,
SiPtPb2,0.0,-0.0582286,
GaTl3,0.0,-0.0582284,
Er2Ir,0.0,-0.058224200000000004,
Sn2Hf6Os,0.0,-0.058224,
GaRuAc2,0.0,-0.058223,
Sm2PtAu,0.0,-0.058222,
SrHg2Tl,0.0,-0.0582209,
TiIr3,0.0,-0.0582198,
Ru2TmPu,0.0,-0.058217,
ZnHgPb2,0.0,-0.0582163,
NiTa5,0.0,-0.058211599999999995,
Tm3Pb,0.0,-0.0582113,
InLu2Pt2,0.0,-0.0582109,
GaSbPt5,0.0,-0.058210700000000004,
Sm2IrAu,0.0,-0.058209000000000004,
MnIr3,0.0,-0.058206600000000004,
SbAuHg,0.0,-0.0582054,
RuLu6Pb2,0.0,-0.058200800000000004,
AsInPt5,0.0,-0.0581998,
Sn2HoPu,0.0,-0.0581994,
CdBaAu4,0.0,-0.0581968,
GaInAc2,0.0,-0.058196599999999994,
SnTmPt2,0.0,-0.058194699999999995,
NdTbAu2,0.0,-0.058194,
Sn2Hf6Pt,0.0,-0.0581925,
BPr2Pt6,0.0,-0.0581863,
PrErBi,0.0,-0.0581852,
SnTmIr2,0.0,-0.0581827,
SbHfIr,1.0957,-0.0581802,
CoSbPt5,0.0,-0.0581788,
Ba2Au3,0.0,-0.0581782,
SnLuAu2,0.0,-0.0581777,
KTl2Bi,0.0,-0.058177,
Er2Pt,0.0,-0.0581749,
Pd2Lu3Pb3,0.0,-0.058170299999999994,
SnAu2,0.0,-0.0581697,
Ni3Tb4Bi8,0.0,-0.0581694,
TbHg,0.0,-0.0581683,
MgIrTh,0.0,-0.0581674,
SnGdHg2,0.0,-0.058165999999999995,
ClHg2Tl2,0.0,-0.058161000000000004,
LiHg2Pb2,0.0,-0.0581598,
RhLu6Pb2,0.0,-0.0581553,
La2IrTl,0.0,-0.0581547,
Ce3Os2Au,0.0,-0.0581545,
BLa2Pt6,0.0,-0.0581515,
MgLuIr4,0.0,-0.058149,
NdPmIr2,0.0,-0.0581485,
RuLu3Pt2,0.0,-0.0581468,
As2RhNp2,0.0,-0.058143099999999996,
Pm2AuTl,0.0,-0.058143099999999996,
P2PtTh2,0.0,-0.058143,
La2PtTl,0.0,-0.0581423,
Sb2Hf6W,0.0,-0.0581415,
ZnAu4,0.0,-0.0581409,
FeOsIr2,0.0,-0.0581401,
SiSe3Th4,0.0,-0.058139699999999996,
RhSnU,0.0,-0.0581372,
Cu2CdTh3,0.0,-0.058136,
GaPd2U2,0.0,-0.0581359,
SmHoHg2,0.0,-0.058135599999999996,
MgPb3,0.0,-0.0581349,
ZnHf3Ir2,0.0,-0.0581343,
PBr3Pu3,0.0,-0.058134,
GaPdAc2,0.0,-0.058133899999999995,
Ba2Hg2Tl,0.0,-0.058128900000000004,
CdIn2Th2,0.0,-0.058125300000000005,
PdBaBi2,0.0,-0.0581234,
LaErHg2,0.0,-0.0581197,
BLuPt4,0.0,-0.058118899999999994,
CoOs3,0.0,-0.0581148,
TcW2,0.0,-0.058111499999999996,
YGdPt2,0.0,-0.058109499999999994,
SrAu3,0.0,-0.0581094,
ZnSnAc2,0.0,-0.0581088,
YErPb2,0.0,-0.0581085,
YZrOs4,0.0,-0.0581048,
CeHoBi,0.0,-0.0581032,
YGdIr2,0.0,-0.0581017,
Fe2Ir3Th,0.0,-0.0580986,
NdIr,0.0,-0.0580979,
CaAuPb2,0.0,-0.0580937,
MoW2,0.0,-0.0580931,
CaRhTl5,0.0,-0.058090499999999996,
NaPb3,0.0,-0.0580887,
Cd2Pb2Bi,0.0,-0.058088,
MgIr4,0.0,-0.0580875,
FeReIr2,0.0,-0.058085500000000005,
MgPtTh,0.0,-0.058085500000000005,
GeInPt5,0.0,-0.058084899999999995,
Tb2Bi,0.0,-0.058084899999999995,
Sm3Pt2Hg,0.0,-0.058083300000000004,
Nd2IrPt,0.0,-0.0580824,
GeCdAc2,0.0,-0.058082299999999996,
LiAu4Hg,0.0,-0.0580822,
PrPt,0.0,-0.0580787,
Sm3Ir2Hg,0.0,-0.058077199999999995,
ZrRe2,0.0,-0.058077,
SmHoBi,0.0,-0.058076300000000004,
CdHgPb,0.0,-0.0580762,
YInIr4,0.0,-0.0580751,
YZrIr4,0.0,-0.0580724,
Er3Hg2,0.0,-0.058072200000000004,
ZrLuOs2,0.0,-0.058071399999999995,
CeHoHg2,0.0,-0.0580676,
RhPt2,0.0,-0.0580659,
Cu2Pt7,0.0,-0.0580658,
NiRhAc2,0.0,-0.0580623,
TiIr2Pt,0.0,-0.058058900000000004,
LaTbAu2,0.0,-0.058057000000000004,
TeBi,0.0474,-0.0580537,
Pd2HgTh,0.0,-0.0580535,
MoHf2Re,0.0,-0.058051200000000004,
Ce2PtAu,0.0,-0.0580505,
Si2Ir3Pu,0.0,-0.0580501,
BaEuHg2,0.0,-0.058049300000000005,
SnLu2Au2,0.0,-0.0580469,
KHg2Tl2,0.0,-0.0580466,
PrPmIr2,0.0,-0.0580463,
AgSnNp,0.0,-0.058045400000000004,
CrIr2Pt,0.0,-0.0580403,
AlHg5,0.0,-0.0580383,
Rh2TlAc,0.0,-0.0580371,
PdHf2Pt,0.0,-0.058036000000000004,
LaPt,0.0,-0.058034,
MnIr2Pt,0.0,-0.0580339,
AsHg2Pb,0.0,-0.0580319,
PdCdPu,0.0,-0.058031599999999996,
Er2Tl,0.0,-0.058030700000000005,
RbPt3,0.0,-0.058026600000000005,
MnNdPt4,0.0,-0.0580259,
RhSmPb2,0.0,-0.058024900000000004,
MgTlTh,0.0,-0.058022599999999994,
FeIr3,0.0,-0.0580204,
GeLu2Pt3,0.0,-0.058019799999999996,
Te2Th,1.2711,-0.0580192,
CeTmPb,0.0,-0.0580192,
P2DyPt8,0.0,-0.058018099999999996,
Dy6IrBi2,0.0,-0.0580165,
LaPmIr2,0.0,-0.0580129,
PdInNp,0.0,-0.0580081,
ScTl3,0.0,-0.0580076,
Si2PbTh2,0.0,-0.058007199999999995,
Rh2TmPu,0.0,-0.058007199999999995,
Cd2SnTh2,0.0,-0.0580046,
TeLuBi,0.0,-0.0580038,
Sm2HgTl,0.0,-0.0580035,
Ce3Ir2Hg,0.0,-0.0580031,
TcHf2Au,0.0,-0.0579977,
SiTaTh,0.0,-0.057992199999999994,
YTl2,0.0,-0.057989,
NiSbPt5,0.0,-0.057985300000000004,
SrBaPt4,0.0,-0.0579822,
NiRuAc2,0.0,-0.0579818,
La2IrPt,0.0,-0.0579805,
GeI2Th2,0.0,-0.057978,
PdHf2Re,0.0,-0.057977400000000005,
Dy6PtBi2,0.0,-0.0579753,
Er2Os,0.0,-0.0579753,
Pm2PtAu,0.0,-0.0579741,
TeIBi2,0.0,-0.0579722,
MnWOs2,0.0,-0.0579714,
Rh2Er4Tl5,0.0,-0.057967399999999995,
MnPrPt4,0.0,-0.057966500000000004,
LaIr,0.0,-0.0579663,
In2Tl2Bi,0.0,-0.0579656,
Dy6OsBi2,0.0,-0.0579625,
InHgTl,0.0,-0.057959899999999995,
SmTmPb,0.0,-0.0579568,
Pm2IrAu,0.0,-0.057956,
La2OsTl,0.0,-0.057952399999999994,
SrPtBi,0.0,-0.0579501,
MnLaPt4,0.0,-0.0579425,
MnWIr2,0.0,-0.057935,
As2PdNp2,0.0,-0.0579349,
PrIr,0.0,-0.0579288,
CrWIr2,0.0,-0.0579281,
Nd2AuTl,0.0,-0.057927599999999996,
YInPt4,0.0,-0.0579273,
AgBaTl3,0.0,-0.0579231,
CoOs2Ir,0.0,-0.0579198,
Ge2Ir2Np,0.0,-0.057915799999999996,
TiBi2,0.0,-0.0579156,
Sn2Hf6Au,0.0,-0.0579131,
Rb2Hg7,0.0,-0.057912599999999995,
MgOsTh,0.0,-0.0579116,
NdOs,0.0,-0.0579092,
Sn2DyPu,0.0,-0.057909,
RuSbPa,0.1197,-0.057908799999999996,
SbBi,0.0862,-0.057908,
Si2Os3Pu,0.0,-0.057908,
NdHoHg2,0.0,-0.0579069,
Ba2Au2Hg,0.0,-0.0579023,
KPtPb2,0.0,-0.057901400000000006,
TeHg2,0.16,-0.057900799999999995,
Pr2IrPt,0.0,-0.057900799999999995,
InBaHg4,0.0,-0.0579003,
SbTeTh,0.0,-0.0578978,
CaTl2Pb,0.0,-0.0578961,
SmAu,0.0,-0.0578954,
Te2AuTl2,0.0,-0.0578915,
MnIrPt2,0.0,-0.057888100000000005,
InHf5,0.0,-0.0578863,
Dy5Au2Bi,0.0,-0.0578859,
CoBi2,0.0,-0.057884500000000005,
SrBaIr4,0.0,-0.0578744,
SrInAu5,0.0,-0.0578737,
RhCsTl3,0.0,-0.0578706,
NiPdAc2,0.0,-0.057868699999999995,
IBi,0.5813,-0.0578683,
InSbAu4,0.0,-0.0578646,
FeWOs2,0.0,-0.0578622,
SiGd2Ir3,0.0,-0.057859499999999994,
Mo3Ir5,0.0,-0.057854100000000006,
TiOsPt2,0.0,-0.057851799999999995,
RhGdBi,0.0,-0.0578515,
NiOs3,0.0,-0.0578497,
GeIrPt2,0.0,-0.057849,
Ce2HgTl,0.0,-0.0578488,
Ag2TlTh,0.0,-0.0578486,
FeWIr2,0.0,-0.0578457,
CoRe2Os,0.0,-0.0578456,
SmDyHg2,0.0,-0.0578384,
NaAuBi2,0.0,-0.0578375,
CuRhAc2,0.0,-0.057837000000000006,
TiIrPt2,0.0,-0.0578356,
CdPtTl,0.0,-0.0578334,
SU,0.0,-0.0578324,
RhITl3,0.0,-0.0578322,
PrHoHg2,0.0,-0.057831600000000004,
NbHf2Pt,0.0,-0.0578309,
In2Np,0.0,-0.0578303,
YHgPb,0.0,-0.0578298,
CoOsIr2,0.0,-0.0578284,
RhNdPb2,0.0,-0.0578284,
PSU2,0.0,-0.057826,
GaCePt4,0.0,-0.0578243,
Ru2ErPu,0.0,-0.0578219,
SbHg2,0.0,-0.0578215,
NdHoBi,0.0,-0.057821399999999995,
SrPtHg2,0.0,-0.0578204,
SnAuHg,0.0,-0.0578202,
NbHf2Tl,0.0,-0.0578201,
FeIr2Pt,0.0,-0.057819899999999994,
SnErPt2,0.0,-0.0578192,
CrIrPt2,0.0,-0.0578185,
InSmPb2,0.0,-0.057815899999999996,
AsPt3,0.0,-0.0578148,
Ag2InTh2,0.0,-0.057812800000000004,
MnPt3,0.0,-0.0578104,
Tc3Ir5,0.0,-0.0578054,
MnRe3,0.0,-0.057805300000000004,
CoRe2Ir,0.0,-0.0578042,
Cs2Hg2Pb,0.0,-0.057802,
FeRe3,0.0,-0.0578014,
YPtTl,0.0,-0.0577978,
SrAu2Hg,0.0,-0.057796999999999994,
AgGdAu2,0.0,-0.0577962,
Ga2Ir3Th,0.0,-0.0577955,
Rh3SnU2,0.0,-0.057794,
CaAu4,0.0,-0.0577937,
CuRuAc2,0.0,-0.0577869,
Pr2AuTl,0.0,-0.0577863,
PdSnU,0.0,-0.0577851,
ZrPtAu,0.0,-0.0577847,
Pm2HgTl,0.0,-0.0577847,
LaHoHg2,0.0,-0.0577845,
AgLuPt2,0.0,-0.0577815,
NiBi2,0.0,-0.0577813,
MoTaRe,0.0,-0.0577808,
YHoPb2,0.0,-0.057780700000000004,
PdGdBi,0.0663,-0.0577804,
MoHf2Au,0.0,-0.057780200000000004,
Cd2BiAc,0.0,-0.057779699999999996,
LaOs,0.0,-0.057776299999999996,
CaHgPb2,0.0,-0.0577755,
PU,0.0,-0.0577752,
Dy6ReBi2,0.0,-0.0577748,
ScLaIr4,0.0,-0.0577734,
ZnSbPt5,0.0,-0.057773200000000004,
CoReIr2,0.0,-0.0577729,
BaEuAu2,0.0,-0.0577713,
ZnGdBi2,0.0,-0.0577713,
NiHg4,0.0,-0.0577713,
RhPrPb2,0.0,-0.057769100000000004,
SrPdTl4,0.0,-0.0577629,
Ge2Pt2Np,0.0,-0.0577626,
Pm2OsAu,0.0,-0.0577616,
Se2Pt3Pb2,0.0,-0.0577607,
ZnHf3Re2,0.0,-0.0577567,
RhLuAu2,0.0,-0.0577545,
CdBaTl3,0.0,-0.057754,
RhW2,0.0,-0.0577516,
C2SnTh3,0.0,-0.057751399999999994,
Dy6AuBi2,0.0,-0.057749800000000004,
CeAu,0.0,-0.057749699999999994,
Ni2AuPb4,0.0,-0.0577496,
GaAu2Pb,0.0,-0.0577488,
RhSbPa,0.0,-0.057747599999999996,
PrOs,0.0,-0.0577467,
PrHoBi,0.0,-0.057744300000000005,
ZrIrAu,0.0,-0.0577397,
Nd2PtAu,0.0,-0.0577371,
GePt3,0.0,-0.0577367,
Pd2Np,0.0,-0.0577287,
N2PaNp,0.0,-0.0577279,
Zn2HgTh2,0.0,-0.0577269,
CaTa2Ir2,0.0,-0.0577265,
AgEuTl2,0.0,-0.0577255,
RhLaPb2,0.0,-0.0577253,
CeDyBi,0.0,-0.0577228,
CeSmAu2,0.0,-0.0577227,
Zr2HgBi2,0.0,-0.057721400000000006,
PmDyHg2,0.0,-0.057721299999999996,
Tm2Hg,0.0,-0.0577207,
La2AuTl,0.0,-0.0577203,
InPmPb2,0.0,-0.057719,
ZnTa5,0.0,-0.0577178,
MgHg5,0.0,-0.0577167,
Sn2Au2Bi,0.0,-0.057716500000000004,
ZnTbPt4,0.0,-0.057715499999999996,
Nd2IrAu,0.0,-0.057711799999999994,
Co2Ir3Th,0.0,-0.057709699999999996,
Ba2AuBi,0.3623,-0.057709,
InEuPt2,0.0,-0.0577052,
YIrTl,0.0,-0.057704700000000005,
PdHfPb,0.2914,-0.0577036,
ZnTePt5,0.0,-0.0576952,
SnEuAu2,0.0,-0.0576951,
Si2Re4Th,0.0,-0.0576902,
In3Tl5,0.0,-0.057689700000000003,
SmDyBi,0.0,-0.0576886,
NU,0.0,-0.0576881,
Ru2In3Th3,0.0,-0.057686999999999995,
NdTmPb,0.0,-0.057686100000000004,
Rh2In3Th3,0.0,-0.0576831,
AsCdPt5,0.0,-0.0576783,
PdITl3,0.0,-0.0576775,
MnRh2Pa2,0.0,-0.0576758,
NbHf5,0.0,-0.057674100000000006,
NiOs2Ir,0.0,-0.0576733,
YIr2,0.0,-0.0576723,
CuInAc2,0.0,-0.0576707,
CoIr3,0.0,-0.0576697,
ZrHfHg2,0.0,-0.0576654,
CrPt3,0.0,-0.0576633,
FeRePt2,0.0,-0.057662399999999996,
TiRe3,0.0,-0.0576594,
LiPtBi2,0.0,-0.057658299999999996,
Sn2TbPu,0.0,-0.057656799999999994,
BPt3Au,0.0,-0.0576565,
CdGdAu2,0.0,-0.057653300000000005,
FeIrPt2,0.0,-0.0576511,
Pd2TlAc,0.0,-0.05765,
Zn2CdTh3,0.0,-0.0576485,
PI2Pa2,0.0,-0.0576478,
SiGd2Os3,0.0,-0.0576477,
MnWRe2,0.0,-0.057647500000000004,
CuPdAc2,0.0,-0.0576464,
GaHg2Bi,0.0,-0.057644100000000004,
RhPd2Pb4,0.0,-0.0576438,
PdCsTl3,0.0,-0.0576421,
CoWOs2,0.0,-0.057641599999999994,
AgHfHg2,0.0,-0.0576404,
TiPt3,0.0,-0.0576383,
Ge2Au2Pu,0.0,-0.0576377,
Tb3Ac,0.0,-0.0576369,
AsAgPt5,0.0,-0.0576329,
InLaPb2,0.0,-0.057632199999999995,
NiRe2Os,0.0,-0.0576315,
Mo2Ta5,0.0,-0.0576308,
SrEuPb2,0.0,-0.0576272,
SiGd2Pt3,0.0,-0.0576252,
SbBaPb2,0.0,-0.0576244,
MnWPt2,0.0,-0.0576239,
Sb2Th,0.0,-0.0576237,
Rh2AuPb2,0.0,-0.057623600000000004,
Rh2ErPu,0.0,-0.0576207,
CaTa2Os2,0.0,-0.0576165,
LaHoBi,0.0,-0.0576155,
LiPb3,0.0,-0.057615,
ScIr3,0.0,-0.0576142,
KAuPb2,0.0,-0.0576102,
La2PtAu,0.0,-0.0576087,
N2ThPu,0.0,-0.0576061,
YOs2,0.0,-0.057606000000000004,
InLuAu2,0.0,-0.0576046,
PdTeTl3,0.0,-0.0576037,
Ag2Hg5,0.0,-0.0576031,
PrTmPb,0.0,-0.0576029,
InGdHg2,0.0,-0.057602400000000005,
VPt3,0.0,-0.057598199999999995,
NdSmAu2,0.0,-0.0575979,
CoRe3,0.0,-0.0575965,
PmAu,0.0,-0.0575945,
MgPt4,0.0,-0.0575913,
CoWIr2,0.0,-0.0575884,
La2IrAu,0.0,-0.0575863,
GaAgAc2,0.0,-0.0575837,
Ag2PbAc,0.0,-0.0575821,
Nd2HgTl,0.0,-0.0575801,
SmTbHg2,0.0,-0.0575798,
YCdIr4,0.0,-0.0575786,
SrAuBi,0.0,-0.0575779,
RbTlBi,0.0,-0.057577800000000005,
Co2InPu2,0.0,-0.057576999999999996,
ScHg4,0.0,-0.057575,
Pr2PtAu,0.0,-0.057574,
ZrHfBi,0.0,-0.0575738,
Nd3Ir2Hg,0.0,-0.0575704,
NiOsIr2,0.0,-0.0575701,
CdEuTl2,0.0,-0.057569699999999994,
Cd2Pb3,0.0,-0.0575688,
RhTmPt2,0.0,-0.0575679,
MgTmIr4,0.0,-0.057564,
CdLu2Ir2,0.0,-0.0575612,
Pd3Pb4,0.0,-0.0575602,
RhTaPt,0.0,-0.057558399999999996,
Sm3Au2Hg,0.0,-0.057558399999999996,
CdLuPt2,0.0,-0.057557699999999996,
KInPb4,0.0,-0.0575547,
BTmPt4,0.0,-0.057554499999999995,
CdLu2Pt2,0.0,-0.0575532,
NiRe2Ir,0.0,-0.0575525,
Ru3Ir5,0.0,-0.0575523,
LaTmPb,0.0,-0.0575522,
I2Th,0.0,-0.0575515,
GaIr3,0.0,-0.0575514,
PdPrPb2,0.0,-0.0575511,
SrAuHg2,0.0,-0.0575498,
CrWRe2,0.0,-0.057543300000000006,
ScIr2Pt,0.0,-0.0575424,
FeSb2Th2,0.0,-0.0575423,
MnTaOs2,0.0,-0.0575422,
Pr2IrAu,0.0,-0.057540999999999995,
Ni2Os3Th,0.0,-0.0575388,
Ru2LuU,0.0,-0.0575384,
Ni2Ir3Th,0.0,-0.0575372,
InTmPt2,0.0,-0.057534999999999996,
ScBi2,0.0,-0.0575321,
CuHg4,0.0,-0.0575281,
InLu2Au2,0.0,-0.0575267,
InTmIr2,0.0,-0.0575246,
NiReIr2,0.0,-0.0575237,
ZrTa3,0.0,-0.0575218,
SiS3U4,0.0,-0.0575217,
PrSmAu2,0.0,-0.0575175,
FePt3,0.0,-0.0575161,
Pd4PrPb6,0.0,-0.0575159,
Cs2Au2Tl,0.0,-0.0575156,
Er2Au,0.0,-0.057515500000000004,
In3Pb4,0.0,-0.0575152,
YAgPt4,0.0,-0.0575122,
Ag2Pu,0.0,-0.0575107,
GeAgPt5,0.0,-0.057507800000000005,
YZrRe4,0.0,-0.0575032,
AgBaBi2,0.0,-0.0575028,
PdLaPb2,0.0,-0.0575025,
CuCePt4,0.0,-0.057499299999999996,
Dy6WBi2,0.0,-0.0574972,
YLuTl2,0.0,-0.0574958,
ZnRhAc2,0.0,-0.0574915,
CeNdAu2,0.0,-0.0574898,
LaDyHg2,0.0,-0.057489,
Cd2IrTh,0.0,-0.057486600000000006,
MnSbAu5,0.0,-0.0574857,
Ga2Pt3Th,0.0,-0.0574848,
PHgPb2,0.0,-0.0574839,
Ba2TlPb,0.0,-0.0574823,
SnHoPt2,0.0,-0.057476599999999996,
Rh2Ho4Tl5,0.0,-0.0574765,
LiIr4,0.0,-0.0574758,
SnHfIr,0.0,-0.0574756,
NiOs2Pt,0.0,-0.0574754,
NiRe3,0.0,-0.0574742,
MnTeAu5,0.0,-0.0574726,
GaGePt6,0.0,-0.057470799999999995,
AgGd2Bi,0.0,-0.0574707,
LaSmAu2,0.0,-0.057469299999999994,
Cd2InTh2,0.0,-0.057467700000000004,
MnTaIr2,0.0,-0.0574675,
BPt3Hg,0.0,-0.057466500000000004,
CsEuBi,0.025,-0.0574649,
BaLaTl2,0.0,-0.057463900000000005,
ScIrPt2,0.0,-0.0574609,
Ru2HoPu,0.0,-0.0574596,
YDyPb2,0.0,-0.0574574,
CoSb2Th2,0.0,-0.057453699999999996,
CrTaOs2,0.0,-0.0574526,
YCdPt4,0.0,-0.0574515,
YSbAu4,0.0,-0.057451,
Pr2HgTl,0.0,-0.057448900000000004,
CrTaIr2,0.0,-0.0574465,
ZnRuAc2,0.0,-0.057446,
CoIr2Pt,0.0,-0.057441200000000005,
BaLuPb,0.0,-0.0574399,
TiWRe2,0.0,-0.057437199999999994,
Sb2Pt3,0.0,-0.057436799999999996,
NdAu,0.0,-0.0574346,
NdDyBi,0.0,-0.057434,
NbAu2,0.0,-0.0574323,
MnPt2Au,0.0,-0.0574307,
InAu2,0.0,-0.0574277,
CdAuTl,0.0,-0.057426200000000004,
FeWPt2,0.0,-0.057425699999999996,
Pd2TmPu,0.0,-0.0574233,
In2TmPu,0.0,-0.0574222,
Cd2PtTh,0.0,-0.0574212,
BrHg2Tl,0.0,-0.0574204,
AgSbU,0.0,-0.0574192,
YLuIr2,0.0,-0.0574167,
CePrAu2,0.0,-0.0574125,
CdLu3Ir2,0.0,-0.0574117,
NiWOs2,0.0,-0.0574098,
MgAuTh,0.0,-0.0574093,
SiAu4,0.0,-0.057409100000000005,
AlNp,0.0,-0.0574071,
ScPt3,0.0,-0.0574026,
GaRh2Pa2,0.0,-0.0574005,
PdTmPt2,0.0,-0.0574004,
SnTeTh,0.0,-0.0573959,
Cs2Pt3,0.0,-0.0573952,
Pr3Ir2Hg,0.0,-0.0573941,
CeTbBi,0.0,-0.057393700000000006,
KTl2Pb,0.0,-0.0573924,
RuInU,0.0,-0.057392200000000004,
CdBaHg4,0.0,-0.057389699999999995,
Pd2AuPb2,0.0,-0.0573892,
YPt2,0.0,-0.057389,
ZnInAc2,0.0,-0.0573833,
Tm3Ir,0.0,-0.057382800000000005,
CdBaBi2,0.0,-0.0573819,
BHoIr4,0.0,-0.0573818,
NiIr3,0.0,-0.0573767,
Ru2GdPa,0.0,-0.05737660000000001,
Ru2TmNp,0.0,-0.0573752,
Te2Pt3,0.0,-0.057374499999999995,
SnTm2Ir2,0.0,-0.057374,
PdPtAu,0.0,-0.0573737,
S3AsPa4,0.0,-0.0573727,
NiSb2Th2,0.0,-0.057370199999999996,
La2HgTl,0.0,-0.057368899999999994,
PZrIr5,0.0,-0.0573671,
RuSnPa,0.0,-0.057366799999999996,
GaCdAc2,0.0,-0.0573631,
PrDyBi,0.0,-0.0573571,
SmTbBi,0.0,-0.0573529,
SiSbPt5,0.0,-0.057352200000000006,
LiHg5,0.0,-0.0573519,
ZnCePt4,0.0,-0.0573519,
CSU2,0.0,-0.0573511,
La3Ir2Hg,0.0,-0.0573504,
Pd2In3Th3,0.0,-0.0573455,
La2OsAu,0.0,-0.0573426,
SnTm2Pt2,0.0,-0.0573418,
ZrHf5,0.0,-0.0573397,
SeHg2Tl,0.0,-0.0573336,
FeTaIr2,0.0,-0.057331200000000006,
CdLu3Pt2,0.0,-0.05732930000000001,
SnTmAu2,0.0,-0.0573264,
ZnSmPt4,0.0,-0.0573255,
SrTlPb,0.0,-0.0573249,
CaAu2Hg2,0.0,-0.0573247,
Tb6IrBi2,0.0,-0.0573244,
ZnPdAc2,0.0,-0.057323700000000005,
Ba2HgBi,0.0,-0.0573215,
SnHfOs,0.0,-0.0573173,
BErPt4,0.0,-0.0573133,
MgErIr4,0.0,-0.057312800000000004,
NiWIr2,0.0,-0.057307699999999996,
CoRePt2,0.0,-0.0573047,
CuAu2Pb,0.0,-0.057302599999999995,
MgTlPb2,0.0,-0.0573014,
Ho2Ir,0.0,-0.0573009,
Si2TlTh2,0.0,-0.057300699999999996,
FeTaOs2,0.0,-0.0572977,
Pd2Tl2Pb,0.0,-0.057295900000000004,
YGdAu2,0.0,-0.0572928,
PrNdAu2,0.0,-0.057287399999999995,
Tb6PtBi2,0.0,-0.057287,
CoIrPt2,0.0,-0.0572865,
SiSnPt5,0.0,-0.0572852,
PrAu,0.0,-0.0572843,
CuOsIr2,0.0,-0.0572788,
Tm3Pt,0.0,-0.0572771,
Tm3Tl,0.0,-0.057274500000000006,
CuLuBi2,0.0,-0.05727429999999999,
AlRu2U2,0.0,-0.05727429999999999,
CrPt2Au,0.0,-0.057271999999999997,
ZnOs3,0.0,-0.057268700000000006,
Pd2AgPb4,0.0,-0.057268599999999996,
YAuTl,0.0,-0.0572685,
Tb6OsBi2,0.0,-0.0572677,
Rh2HoPu,0.0,-0.057266599999999994,
CNU2,0.0,-0.057266599999999994,
Ho3Hg2,0.0,-0.0572607,
TiTaOs2,0.0,-0.057259500000000005,
Ni2Pt3Th,0.0,-0.0572585,
Ho2Pt,0.0,-0.0572545,
NiAgAc2,0.0,-0.0572538,
GeEu2Pt3,0.0,-0.057252899999999995,
AgPt2,0.0,-0.0572521,
Tm3Os,0.0,-0.0572507,
C2InTh3,0.0,-0.057250100000000005,
AgHf2Re,0.0,-0.05724389999999999,
LaNdAu2,0.0,-0.0572433,
MgHg2Tl2,0.0,-0.0572423,
GeSnAu5,0.0,-0.0572395,
CuReIr2,0.0,-0.057239,
LaDyBi,0.0,-0.057238500000000005,
CuLaPt4,0.0,-0.057238,
Tb5Au2Bi,0.0,-0.0572344,
LaTbHg2,0.0,-0.057232399999999996,
Pd5Th3,0.0,-0.057229999999999996,
Nd3Pb2,0.0,-0.0572296,
AsPb2,0.0,-0.0572292,
SrHg3,0.0,-0.057229,
C5Th6,0.0,-0.0572284,
HTaOs3,0.0,-0.0572275,
AgCdPt4,0.0,-0.0572246,
YTbPb2,0.0,-0.0572231,
CdLu3Os2,0.0,-0.057222499999999996,
CrW2Re,0.0,-0.0572211,
CaAu2Bi,0.0,-0.0572187,
KHgPb2,0.0,-0.0572185,
SiSnAc2,0.0,-0.0572163,
MoTaW,0.0,-0.05721179999999999,
Sn2Au2Pb,0.0,-0.057207299999999996,
GaPt3,0.0,-0.0572053,
LaAu,0.0,-0.057205,
ZnHg4,0.0,-0.0572019,