formula,bg,formation_energy,mp-id
K2InHg2,0.0,-0.037526899999999995,
BRuW,0.0,-0.0375255,
SrI4Tb,0.0,-0.0375251,
NiPd2Hg,0.0,-0.0375243,
B2AgPt2,0.0,-0.0375243,
Mg2InPt2,0.0,-0.0375241,
B4Ca2Ir5,0.0,-0.0375238,
NaCs3Au,0.0,-0.0375237,
CSi2La2Re2,0.0,-0.037523600000000004,
SiI2Ho2,0.0,-0.0375229,
Rb2I6Au,0.0,-0.0375229,
AlY6Bi2,0.0,-0.037522799999999995,
CNb2Tl,0.0,-0.0375224,
S3BaPu,0.0,-0.037521700000000005,
P2NiPu,0.0,-0.037521500000000006,
In3Dy,0.0,-0.0375199,
OHg,1.0983,-0.0375185,
YSbCe,0.0,-0.037518300000000004,
BRhPt,0.0,-0.0375171,
Pd2Sm,0.0,-0.0375167,
CaIn2Pt,0.0,-0.0375166,
Li2SrBi2,0.0,-0.0375163,
LiTe2Ir,0.3248,-0.037515900000000005,
Al3Ge2Pa2,0.0,-0.037515900000000005,
Rh2SnNd,0.0,-0.0375157,
Cd2LaSm,0.0,-0.0375146,
Ag2SnLa2,0.0,-0.037513,
SI2Dy2,0.0,-0.037513,
Zn2Pd3Th,0.0,-0.0375124,
LiSb2Tl,0.0,-0.037512300000000005,
Na2HgTl,0.0,-0.0375122,
BGa2BaIr2,0.0,-0.0375122,
OFAc,4.2475,-0.0375121,
ZrCe,0.0,-0.037511699999999995,
Mg2InIr2,0.0,-0.0375114,
CaLa5,0.0,-0.037511,
B2N3Ni2Th3,0.0,-0.0375105,
SrAgTe3Tm,0.6307,-0.0375091,
KZn2Pb2,0.0,-0.0375088,
NaIn2Bi,0.0,-0.0375083,
InSbBa,0.3528,-0.0375083,
ZnIn2Au,0.0,-0.037508200000000005,
GeRu3Ho2,0.0,-0.037507599999999995,
Br6PtTl2,0.8807,-0.0375073,
GaPd2Er2,0.0,-0.0375069,
S3SnLu4,0.0,-0.037505899999999995,
CdSbBa2,0.0,-0.037505899999999995,
S2RbTl2,0.0,-0.0375058,
HGaGePu,0.0,-0.0375054,
ScRu2Hf,0.0,-0.0375049,
As2Cs2Au,0.0,-0.0375044,
Ru2CdLa2,0.0,-0.0375044,
In2Ba3,0.0,-0.037504199999999994,
PdSn3Nd,0.0,-0.0375036,
AsPd5Pb,0.0,-0.0375036,
Br2SbTm2,0.0,-0.0375036,
Sr2Sn2Hg,0.0,-0.0375035,
CdSnCe,0.0,-0.0375028,
Sc3RhPt2,0.0,-0.0375027,
CSe2Ta2,0.0,-0.0375027,
CoZr2Au,0.0,-0.037502600000000004,
CaSn5Ir,0.0,-0.0375025,
GeCeTb,0.0,-0.037502,
RuInLa,0.0,-0.0375014,
AsSbLa2,0.0,-0.0375013,
Fe3Th,0.0,-0.0375008,
PdSb2Cs5,0.0,-0.037500700000000005,
SrAg4Pb,0.0209,-0.0374997,
CuZr2Pt,0.0,-0.037499000000000005,
CuTe3BaEr,0.3312,-0.037498800000000006,
Sr2AgTl,0.0,-0.0374987,
Mn2GaTh,0.0,-0.0374974,
Cu3Ir2,0.0,-0.0374969,
Zn2SrHg2,0.0,-0.037496800000000004,
Sn5La,0.0,-0.037496800000000004,
S3Bi2,1.2052,-0.0374959,
SiPd3Lu2,0.0,-0.037495600000000004,
AsSnEu,0.0,-0.0374954,
Be2NbOs2,0.0,-0.0374941,
MgSc2Pb2,0.0,-0.037494,
NaKHg2,0.0,-0.0374938,
CuRu2Er2,0.0,-0.0374935,
PdInNd,0.0,-0.0374919,
Al3Sn2Lu3Re,0.0,-0.037491100000000006,
Sr2InAu,0.0,-0.0374903,
Al4Ta2Th,0.0,-0.037489800000000004,
ZnY6Pb2,0.0,-0.0374893,
CuRh2Er2,0.0,-0.0374891,
InSn2Ba2,0.0,-0.0374891,
Mn2ZnPa,0.0,-0.0374884,
RhIn5Pr3,0.0,-0.0374883,
Ga4SrAu3,0.0,-0.037487400000000004,
Se2Re,1.0603,-0.037487299999999994,
GeRh2Dy2,0.0,-0.037487,
AsINd2,0.0,-0.037487,
Zn2RbAu2,0.0,-0.0374869,
Co2As2Pu,0.0,-0.0374869,
AlZrOs,0.0,-0.0374861,
FeRu2Ho2,0.0,-0.037486,
P2RbOs2,0.0,-0.0374858,
Ru4Sb12La,0.0,-0.0374851,
P2RbIr2,0.0,-0.037485,
OAlLu3,0.0,-0.037482999999999995,
Br2CsAu,3.2393,-0.0374816,
Pd3Dy,0.0,-0.0374806,
CoAs2Hf2,0.0,-0.0374805,
Zr6Te2Ir,0.0,-0.03748,
Ga5OsNp,0.0,-0.03748,
MgRu2Lu2,0.0,-0.03748,
SiEr2,0.0,-0.03748,
Pd2SbNd,0.0,-0.0374798,
CSi2Mn2Th2,0.0,-0.0374792,
LiInPb,0.0,-0.0374791,
Ag5Hg,0.0,-0.0374786,
Al3Y3IrPb2,0.0,-0.0374784,
MgPm5,0.0,-0.0374771,
Zn2InHf2,0.0,-0.0374769,
Sc3Sn3Ir2,0.0,-0.0374768,
Br7Hg4,0.0,-0.037476100000000005,
Ge2RhSn3Er3,0.0,-0.0374759,
Se2SnTl,0.0,-0.0374752,
AlRh2Tl,0.0,-0.0374745,
Si2Sb2Tb5,0.0,-0.0374745,
Ag2InSm2,0.0,-0.0374735,
MgTe2Hg,0.771,-0.0374729,
HBr2U,0.0,-0.0374729,
In3Sn3Nd2,0.0,-0.0374728,
KRb6Au4,0.0,-0.037472700000000005,
FeRhInHf,0.0,-0.037472700000000005,
Ru4Sb12Nd,0.0,-0.037472099999999994,
Be2NbIr2,0.0,-0.0374701,
CSi2EuW2,0.0,-0.037469,
ZnHo2,0.0,-0.0374689,
PdSn3Pr,0.0,-0.0374681,
Al2MnEr6,0.0,-0.0374675,
Al2HfAu,0.0,-0.0374671,
O2GdAu,2.2945,-0.0374668,
Cl2La2Pb,0.3352,-0.0374668,
Zn2PdHf2,0.0,-0.0374657,
Rb2I6Ta,0.0,-0.0374645,
ZrPd2Er,0.0,-0.0374638,
AsSbPr2,0.0,-0.0374637,
AsCe2,0.0,-0.037463,
LiCdBi,0.0,-0.037463,
SiZrAu,0.0,-0.0374629,
Al2FeEr6,0.0,-0.0374619,
Rb2SnTe4Hg,0.4928,-0.0374613,
Sc3PdIr2,0.0,-0.0374613,
PBr2Hg2,0.9995,-0.0374608,
TiRh2Hf,0.0,-0.0374597,
CaPd2Tl,0.0,-0.037458599999999995,
CdBa3,0.0,-0.037458399999999996,
CuIn2Hg,0.0,-0.037458399999999996,
MgZrPb,0.0,-0.0374576,
AlTm2,0.0,-0.037456699999999996,
Br2ITl,1.6826,-0.037455300000000004,
GeRh3Ho2,0.0,-0.037455100000000005,
ScSrTe3Au,0.1588,-0.0374544,
SrRuLa3,0.0,-0.0374543,
MnILu,0.0,-0.037454,
SiZrW,0.0,-0.0374537,
AgCdPr2,0.0,-0.0374525,
Si2LuPt,0.0,-0.0374519,
CHf,0.0,-0.0374514,
Na2InTl2,0.0,-0.0374508,
In2SbLa,0.0,-0.037450699999999996,
FeSbLa3,0.0,-0.0374506,
CaIn2Ir,0.0,-0.0374503,
CSi2Sm2W2,0.0,-0.037449500000000004,
YSbSm,0.0,-0.037449399999999994,
Cd2Er,0.0,-0.0374486,
ZnPd2Tm2,0.0,-0.0374484,
Cu2CdHf2,0.0,-0.0374478,
Co2LaOs,0.0,-0.0374471,
Al3Hf2Ir,0.0,-0.037445599999999996,
Ge3ZrTh,0.0,-0.0374453,
CuRuHo2,0.0,-0.0374452,
Pd2CdNd2,0.0,-0.037445,
Sc3Ge4Pt4,0.0,-0.0374447,
AlTa,0.0,-0.0374444,
Se2Ir,0.0,-0.037442500000000004,
Ge2RuLa6,0.0,-0.037442,
In2Nd,0.0,-0.037440600000000004,
Na3TmBi2,0.0,-0.037438,
OZnCeBi,0.0,-0.0374369,
PdCdTb,0.0,-0.0374349,
NiAgEr2,0.0,-0.0374347,
Rh2SnPr,0.0,-0.037434199999999994,
Sc3RhOs2,0.0,-0.0374341,
NaCs2Au,0.0,-0.037433799999999996,
LiSbIr,0.0,-0.0374335,
RhIn5La3,0.0,-0.0374325,
NiPdHo2,0.0,-0.0374322,
ZrRh2Dy,0.0,-0.0374316,
CSi2Cr2Th2,0.0,-0.0374308,
Al2CoEr6,0.0,-0.0374308,
Si4KPt4,0.0,-0.037430399999999996,
Ni2PdTm3,0.0,-0.0374295,
ZrSnNd,0.0,-0.0374294,
Ga5PtNp,0.0,-0.037428199999999995,
BPdIr,0.0,-0.0374274,
PNbTa,0.0,-0.037427100000000005,
BeMgAu2,0.0,-0.0374266,
Fe2ZnPa,0.0,-0.0374266,
OZnSmBi,0.0953,-0.037426,
MgAlHg2,0.0,-0.037425400000000004,
SiYPt,0.0,-0.0374253,
CdNd,0.0,-0.0374253,
Se4TeU,0.0,-0.0374251,
Zr6Sb2Os,0.0,-0.037425,
PdI6Cs2,0.0,-0.037424599999999995,
Sc3Sn3Pt2,0.0,-0.0374245,
CI2Ho2,0.2361,-0.0374245,
N2YTh,0.0,-0.0374243,
PdSn3La,0.0,-0.0374243,
Ag2CdLu,0.0,-0.0374242,
Zr6Te2Os,0.0,-0.0374234,
NiSn6Er2,0.0,-0.037422899999999995,
CuZr2Tl,0.0,-0.037422699999999996,
FeILu,0.0,-0.0374223,
AsSm2,0.0,-0.037422,
LiNa2Pt3,0.0,-0.0374214,
Zr6Te2Pt,0.0,-0.0374209,
PIn2Tl,0.0,-0.0374203,
N3Lu4,0.0,-0.0374198,
HCs3Au,0.0,-0.037419600000000004,
Al2AgAu2,0.0,-0.0374193,
Fe2GaTh,0.0,-0.0374192,
CuRhHo2,0.0,-0.0374192,
KAgTl,0.0,-0.037417900000000004,
ScAg2Pt,0.0,-0.0374161,
P2Pd2Th,0.0,-0.0374161,
Rh2SnLa,0.0,-0.037415199999999996,
ZnCd2Pb,0.0,-0.0374149,
MgRh2Pb,0.0,-0.0374148,
Cl2Pr2Pb,0.0,-0.0374142,
NaTe2Au,0.0,-0.037413800000000004,
S2BrHgBi,0.7493,-0.0374134,
LiPdPb,0.0,-0.0374134,
K4HgBi2,0.4244,-0.0374134,
Ge3Ac,0.0,-0.0374126,
Ga2SmAu,0.0,-0.037412100000000004,
YI6Cs2,0.0,-0.037412,
CdInTb,0.0,-0.0374118,
LiRuLu2,0.0,-0.0374116,
CaSn5Pt,0.0,-0.03741149999999999,
ZnPd2Au,0.0,-0.0374114,
Zn2HoPt,0.0,-0.037409599999999994,
Ni3Pa,0.0,-0.0374095,
BeTcOs,0.0,-0.037409399999999995,
B2Co7U3,0.0,-0.0374091,
Mg2SnAu2,0.0,-0.037407800000000005,
LiRh2Bi,0.0,-0.037407800000000005,
GaRh2Ho2,0.0,-0.037407800000000005,
Cu2ZrHf2,0.0,-0.0374072,
NGaTm3,0.0,-0.0374069,
Si2MnPu,0.0,-0.037405799999999996,
Al3Hf2Os,0.0,-0.0374055,
Pd2SnSm,0.0,-0.0374054,
ZnInEr2,0.0,-0.037405299999999995,
BeSiTa2,0.0,-0.0374051,
Al3Sn2Lu3Au,0.0,-0.0374045,
GaRu2Ho2,0.0,-0.0374032,
Sc3RuOs2,0.0,-0.037402700000000004,
Ga3Er2Re,0.0,-0.0374023,
NNb2Pt,0.0,-0.037402200000000003,
Y3Pd2Au,0.0,-0.0374018,
ZnGaGd2,0.0,-0.0374013,
BeSiTh,0.0,-0.0374012,
Si2ZrTa2,0.0,-0.0374007,
YRhLa2,0.0,-0.0374005,
Rh2Sn2Nd,0.0,-0.0374002,
LiTePt,0.0,-0.037399999999999996,
Fe2Er3,0.0,-0.037399999999999996,
In3Sn3La2,0.0,-0.0373994,
GaCdEr2,0.0,-0.0373982,
PdIn4Lu,0.0,-0.0373979,
B2CdPt2,0.0,-0.037397599999999996,
KRb2Hg2,0.0,-0.0373973,
Zn2HoIr,0.0,-0.0373964,
Li2YPb2,0.0,-0.037396,
N2ScPu,0.0,-0.037395000000000005,
Mg2HoAc,0.0,-0.0373943,
Ag2InTm,0.0,-0.037394,
CSi2Ce2W2,0.0,-0.037393300000000004,
SeTe2Er,0.0,-0.0373927,
Zn2GaIr2,0.0,-0.0373927,
PdInPr,0.0,-0.0373921,
Rh2CdHo,0.0,-0.037391100000000004,
S2VSe2Tl3,1.22,-0.0373908,
Li2Sn2BaPt2,0.0,-0.03739,
K2CdAu2,0.0,-0.0373898,
ZnRhHf,0.0,-0.0373896,
YRu2Er,0.0,-0.0373895,
SiPd2Eu2,0.0,-0.037389200000000004,
SrRhLa3,0.0,-0.037389000000000006,
SnSbCs,0.3279,-0.0373887,
LiSbPt,0.0,-0.037388599999999994,
SiTe4Hf,0.2127,-0.0373879,
Pd4CdGd,0.0,-0.0373874,
GaPm3,0.0,-0.037386,
MgSn2Ir,0.0,-0.037384799999999996,
Cu2Pr2Hg,0.0,-0.0373845,
Li2LaHg2,0.0,-0.0373843,
CdSb2Cs2Ba,0.3644,-0.0373837,
NaI4Pt,0.0,-0.0373837,
Pd2CdEr,0.0,-0.0373806,
Cd2Sb4Ba3,0.0,-0.0373799,
ZrRu2Tb,0.0,-0.0373793,
B2Th,0.0,-0.037379199999999994,
NaMgAu2,0.0,-0.0373791,
MgSiTh,0.0,-0.037378999999999996,
Mg2AuHg,0.0,-0.0373789,
CEr2,0.0,-0.0373777,
GePd5Pb,0.0,-0.0373772,
NaGe2Ir2,0.0,-0.0373764,
Rb2Te3Ta,0.0,-0.0373762,
Pd2AgLa2,0.0,-0.0373755,
LiRhLu2,0.0,-0.0373755,
Al2NiEr6,0.0,-0.0373745,
AlMo2Re,0.0,-0.0373726,
Pd6LaEu,0.0,-0.0373722,
SiYOs,0.0,-0.037371699999999994,
AsIPr2,0.0,-0.0373712,
Rb2I6Hf,1.9326,-0.0373712,
CSnEr2,0.0,-0.0373711,
MgRu2Ho3,0.0,-0.0373711,
Ge2BaAu,0.0,-0.0373703,
PdIn3Nd2,0.0,-0.0373701,
AgCdLa2,0.0,-0.0373685,
B2TcTa2,0.0,-0.0373684,
Ru2Sn2La,0.0,-0.037368200000000004,
K2PdHg2,0.0,-0.0373677,
Sr2RhAu,0.0,-0.0373671,
NaSnPt,0.0,-0.0373667,
AgSbI6Cs2,0.2841,-0.0373664,
SrPd4Hg,0.0,-0.0373658,
Cd5Tl,0.0,-0.0373649,
In2Pr,0.0,-0.037364600000000005,
Ag2InCe2,0.0,-0.0373626,
N2SrU,0.0,-0.0373625,
Zn2AgAc,0.0,-0.0373617,
Si6Sc4Ir7,0.0,-0.0373608,
CTeHo2,0.0,-0.0373606,
Zr5Au,0.0,-0.0373601,
CInTm2,0.0,-0.03736,
Al3Hf2Pt,0.0,-0.0373595,
MgGe2Pt2,0.0,-0.0373595,
CoSb2Lu,0.0,-0.0373585,
Sr2CdTl,0.0,-0.0373583,
NaPd2Bi,0.0,-0.037358199999999994,
NaSe2Pa,0.0,-0.0373579,
Sb2Te3,0.1404,-0.037356600000000004,
AsILa2,0.0,-0.037356499999999994,
YAg4Au,0.0,-0.0373564,
S2RbU,0.0,-0.0373564,
Rh2Sn2Pr,0.0,-0.037355200000000005,
SiRh2Tm2,0.0,-0.037355,
SiCdPt,0.0,-0.0373549,
Sr2PdAu,0.0,-0.037354700000000005,
SeY2Hg,0.0,-0.0373534,
SiTeHf,0.0,-0.0373534,
CuPd2Hg,0.0,-0.0373529,
Al2YAu2,0.0,-0.0373526,
Cd2SnNd2,0.0,-0.0373526,
Cd2InEu,0.0,-0.0373524,
CoSbLa3,0.0,-0.037351300000000004,
NiRh2Hf,0.0,-0.037351,
Rh2Sn2La,0.0,-0.037350499999999995,
Ga2Er3,0.0,-0.037349600000000004,
Se3SbTb4,0.0,-0.0373489,
HCs2Au,1.289,-0.0373474,
CAlLu3,0.0,-0.037346899999999995,
Mn3Dy2Os,0.0,-0.0373468,
NaSnEu2,0.0,-0.0373463,
AlSbTa,0.0,-0.0373458,
ZnPd2Tb3,0.0,-0.037345300000000005,
AlLa5,0.0,-0.0373444,
Cu3Pt2,0.0,-0.037344,
Zn3BaPt2,0.0,-0.037343600000000005,
Sn3Ba,0.0,-0.037343299999999996,
OAsNdOs,0.0,-0.0373423,
CaAg2Pb,0.0,-0.0373423,
NaAs2Pd2Pu,0.0,-0.03734150000000001,
Pd2SnCe,0.0,-0.0373412,
ScYHg,0.0,-0.0373406,
Rh6Sb4Tm,0.0,-0.0373399,
CuInHf,0.0,-0.0373397,
NiAs2Hf2,0.0,-0.0373393,
ZrSnPr,0.0,-0.0373369,
PdInLa,0.0,-0.037336799999999996,
SbTe,0.0828,-0.0373357,
Na2PdTl2,0.0,-0.0373354,
CoRu2Ho2,0.0,-0.0373352,
Ge2PdSn3Er3,0.0,-0.0373345,
In2Te4Ba,0.6702,-0.037334200000000005,
Ga3Pd2Np,0.0,-0.0373329,
KTe2Hf,0.0,-0.0373328,
Al2GdIr,0.0,-0.0373316,
Al3Sm2Ir2,0.0,-0.0373315,
Si2FePu,0.0,-0.0373313,
Cu3Rh2Pu,0.0,-0.037331,
ZnSb4Tb2,0.0,-0.037329999999999995,
AsPdLu,0.0,-0.0373292,
Li2PtTl,0.0,-0.0373291,
NbSn3La,0.0,-0.0373278,
B2Ru2Pa,0.0,-0.0373271,
SePd5Pb,0.0,-0.037326,
Sr2Rh3Pb,0.0,-0.0373254,
In2La,0.0,-0.0373251,
O4BiNp,0.0,-0.0373237,
AsI3Ba3,0.6231,-0.0373235,
Pd2CdPr2,0.0,-0.0373231,
MnGe3Pu,0.0,-0.037323,
NaSc2Pb2,0.0,-0.0373229,
Sb4Te3,0.0,-0.037322,
CaAgAu,0.0,-0.0373215,
In8Au,0.0,-0.0373211,
GeI2Nd2,0.0,-0.0373177,
Pd2InTb,0.0,-0.0373177,
FeGe3Pu,0.0,-0.0373174,
SrTcLa3,0.0,-0.037317100000000006,
MgSnAu,0.0,-0.0373162,
GaCd2Ir,0.0,-0.037315600000000004,
NaSnIr,0.0,-0.0373153,
Pd4Tm,0.0,-0.037314799999999995,
MgRh2Ho3,0.0,-0.037314,
ZnCdHg,0.0,-0.037312899999999996,
SeSbEr,0.0,-0.0373116,
C2SiHf3,0.0,-0.037311300000000006,
BrTeLa2,0.0,-0.037311,
AgCdHo,0.0,-0.037310499999999996,
OAsNdIr,0.0,-0.037309800000000004,
AlTc2W,0.0,-0.037309800000000004,
GeRuLu,0.0,-0.0373094,
AsCd2Hg,0.0,-0.0373078,
RbTe2Dy,1.1234,-0.0373078,
Al3EuPt2,0.0,-0.0373077,
Si2CoPu,0.0,-0.0373075,
CuSnGd,0.0,-0.037307400000000004,
Si2Rh3Th,0.0,-0.0373066,
ScZr2Ir,0.0,-0.0373066,
Ni2CePt,0.0,-0.037306,
Zn2ErAu,0.0,-0.037304000000000004,
NiZr2Au,0.0,-0.0373039,
Ag2SnHo,0.0,-0.037303199999999995,
Ge3LuOs,0.0,-0.0373026,
Ga3YIr2,0.0,-0.0373022,
BeTcIr,0.0,-0.037301299999999996,
H3OsU,0.0,-0.0373011,
Sc3PdPt2,0.0,-0.0372991,
Sb8Te3,0.0,-0.037299,
Rh8Hf,0.0,-0.0372986,
OAsLaOs,0.0,-0.0372985,
Ni2LaTl,0.0,-0.0372971,
ScLa4,0.0,-0.0372943,
GaCd2Pt,0.0,-0.037293999999999994,
SbTeI,0.7721,-0.037293799999999995,
Si2Nd2Pb,0.0,-0.0372931,
B2MoTa2,0.0,-0.0372931,
Na2CsAu2,0.0,-0.0372926,
CdPr,0.0,-0.0372925,
InI3Cs,0.0,-0.037292099999999995,
CdSnNd,0.0,-0.037292,
Rh3Sn2Tb,0.0,-0.037291899999999996,
KGa2Tl2,0.0,-0.0372915,
KInAu,0.0,-0.0372911,
Al3Ce2Ir2,0.0,-0.0372909,
BAl2EuOs2,0.0,-0.03729,
SrPdTe3Ho,0.0,-0.0372897,
P2Rb3Pt3,0.0,-0.0372897,
GaSrPt,0.0,-0.0372892,
Rh4CdLu,0.0,-0.0372885,
Sr2Rh2Tl,0.0,-0.0372875,
HPTa2,0.0,-0.0372874,
NFIn2Tb6,0.0,-0.0372873,
Sc3PdOs2,0.0,-0.0372868,
PdIn3Pr2,0.0,-0.037286700000000006,
Sb3Te2,0.0,-0.037286700000000006,
TiAs2Hf2,0.0,-0.037286700000000006,
NbRuLa,0.0,-0.0372864,
NaI2Au,1.255,-0.0372854,
Sn2Te2Cs,0.0,-0.0372849,
Li3LuBi2,0.0,-0.037284700000000004,
MnZn2U,0.0,-0.0372845,
As12Os4Th,0.4906,-0.037284399999999995,
Se3BaSmAu,1.0191,-0.0372841,
SbTe2,0.0,-0.0372841,
ZnRh2Er2,0.0,-0.0372837,
SrSnTm,0.0,-0.0372832,
CoSbLu,0.0,-0.037280799999999996,
CuTe3BaHo,0.3287,-0.0372802,
H2PtTl,0.0,-0.0372801,
Al2GdPt,0.0,-0.0372796,
Na2BaHg2,0.0,-0.0372796,
GeYHf,0.0,-0.037278599999999995,
Zn2Sm2Hg,0.0,-0.037278399999999996,
Pd2CdLa2,0.0,-0.0372772,
OZnAsU,0.0,-0.0372771,
ScZr2Os,0.0,-0.037276899999999995,
Ru2Sb2Ba,0.0,-0.037276699999999996,
NiSbLu,0.2188,-0.0372758,
In3Tb,0.0,-0.0372758,
Ca2YHg2,0.0,-0.0372738,
PSbDy2,0.0,-0.0372732,
ScZr2Tl,0.0,-0.037272,
BeRuOs,0.0,-0.0372716,
Si2Pd2Th,0.0,-0.0372708,
SrIn5Au,0.0,-0.0372702,
OAsLaIr,0.0,-0.0372701,
Se4MoRe2,0.9401,-0.0372699,
Ca2SrPt2,0.0,-0.0372697,
SrAgTe3Er,0.6253,-0.037269500000000004,
CoILu,0.0,-0.0372666,
ZrSnLa,0.0,-0.0372641,
SiRu3Eu2,0.0,-0.037264000000000005,
CoRhDy2,0.0,-0.0372633,
O5Se2Pr2Pu2,0.0,-0.0372627,
BSnTb3,0.0,-0.0372627,
NaAgPb,0.0,-0.0372626,
Sb2Te,0.0,-0.037262500000000004,
Se2Pt,0.0,-0.0372621,
RhPd2Tb,0.0,-0.037262,
C3Ce2W2,0.0,-0.037262,
SnSb4Te7,0.1965,-0.0372616,
OAsPrOs,0.0,-0.0372612,
Pd8Tl,0.0,-0.0372602,
Mg2SrPb2,0.0,-0.037260100000000004,
Sb,0.0,-0.0372596,
BeMoIr,0.0,-0.0372596,
Si2AgTh,0.0,-0.037259099999999996,
NCoTm3,0.0,-0.0372589,
ZnLa4,0.0,-0.0372587,
NiPd2Er2,0.0,-0.0372583,
Co5Pt3,0.0,-0.0372583,
B2RuTa2,0.0,-0.0372571,
Se4InBaAu2,0.0,-0.0372569,
Pd7Ta,0.0,-0.0372568,
Sb3Te,0.0,-0.037256700000000004,
SiRh2Au,0.0,-0.037256700000000004,
CoGe3Pu,0.0,-0.0372562,
GaBr3Gd3,0.0,-0.0372558,
ZnZr2Os,0.0,-0.037255699999999996,
KSe6Th2,0.0,-0.0372552,
Ga5ReNp,0.0,-0.0372552,
CoRuDy2,0.0,-0.0372549,
YInLa2,0.0,-0.0372522,
Zn2GaPt2,0.0,-0.0372514,
NPEu3,0.0,-0.0372513,
Cd2SnPr2,0.0,-0.0372512,
CuZr2Re,0.0,-0.0372509,
GaRuDy2,0.0,-0.0372501,
SiTc2Ta,0.0,-0.0372496,
Te,0.2646,-0.0372495,
Co2ErHf,0.0,-0.0372493,
PdIn3La2,0.0,-0.0372492,
Rh5Eu,0.0,-0.0372489,
ZnRu2Er2,0.0,-0.0372472,
Ga3Ho2Ir,0.0,-0.037246800000000004,
SbTe3,0.0,-0.0372462,
Mn2Ge2Pu,0.0,-0.0372461,
Se2TcTl,0.0,-0.037245600000000004,
AsCeNd,0.0,-0.037245600000000004,
Ni2Te2Bi,0.0,-0.0372453,
NaI4Au,0.5972,-0.0372452,
Pd2SnPm,0.0,-0.037244599999999996,
ScZn2Ir2,0.0,-0.0372438,
GeSeIr,0.8066,-0.0372434,
Cu2RuTm3,0.0,-0.0372431,
ZnZr2Ir,0.0,-0.037243000000000005,
Al2RuTh,0.0,-0.0372416,
Sb2TeI,0.0631,-0.037241500000000004,
SiRh3Eu2,0.0,-0.037241300000000005,
MgSn2Pt,0.0,-0.0372409,
InTe2Cs,1.4711,-0.0372404,
RhTe2Cs,0.5109,-0.0372391,
Ru4Sb12Ba,0.0,-0.0372381,
H3IrU,0.0,-0.037238,
NaSbAu,0.0,-0.0372378,
S4BaAu2Pb,0.0514,-0.037237099999999995,
MgSn2Os,0.0,-0.037237099999999995,
NMo3Ir,0.0,-0.0372367,
Zr6Sb2Re,0.0,-0.0372365,
YIn2Tm,0.0,-0.037235500000000005,
NiAg2Pt,0.0,-0.0372354,
SrI4Ce,0.0,-0.037234,
NAgTm2,0.0,-0.0372334,
NaSb2Au,0.0,-0.037233199999999994,
RhSn5Sm,0.0,-0.0372327,
KGe2Au2,0.0,-0.037232,
Se3BaNdPt,0.0,-0.037231299999999995,
AlTb3,0.0,-0.0372309,
Be2NbPt2,0.0,-0.037230200000000005,
BRhW,0.0,-0.0372292,
CaSbHf,0.0,-0.0372291,
Zn2CdAc,0.0,-0.0372291,
C3Sm2W2,0.0,-0.037229,
Li2BaAu2,0.0,-0.0372281,
OAsPrIr,0.0,-0.0372275,
Se3InDy4,0.0,-0.0372275,
GaRhDy2,0.0,-0.0372269,
NaCs3Hg,0.0,-0.0372265,
CuTcHo2,0.0,-0.0372254,
OGaTm3,0.0,-0.0372247,
GeTe4Tm,0.0,-0.0372245,
As2Re,0.0,-0.037224200000000006,
Fe3Dy2Ir,0.0,-0.037222200000000004,
SeSnTm,0.0,-0.0372213,
BeMoOs,0.0,-0.0372197,
LiPTh,0.0,-0.0372193,
Se2IIr,0.0,-0.0372193,
Sr2I6Eu,1.1549,-0.0372185,
Ga3Ho2Os,0.0,-0.037218,
AlRu2W,0.0,-0.037217,
CdSnPr,0.0,-0.037216700000000005,
GePdTb2,0.0,-0.0372164,
Al3TmIr2,0.0,-0.037216299999999994,
Ti3CdRe2,0.0,-0.0372162,
NI2Dy2,0.0,-0.0372157,
Pd5Lu,0.0,-0.037215000000000005,
GeI2Pr2,0.0,-0.037214199999999996,
NSbCe3,0.0,-0.0372131,
AlInAu,0.0,-0.0372131,
Rb2CdPb,0.1322,-0.0372115,
BeTe2Au,0.0,-0.0372115,
AgIn2Ho,0.0,-0.037210099999999996,
Ga2SbBi,0.0,-0.0372099,
Fe2ILu2,0.0,-0.0372098,
Rh6Sb4Er,0.0,-0.0372098,
ZrSn2Pm,0.0,-0.037209400000000004,
Ag2Dy,0.0,-0.037209400000000004,
BrSbLa2,0.0,-0.0372093,
MgGa2Pu,0.0,-0.0372093,
Ge2RuIn3Tm3,0.0,-0.037209200000000005,
SeBrIr,0.7045,-0.0372082,
ScZn2Pt2,0.0,-0.0372081,
Ru2InCe,0.0,-0.0372078,
Pd3Tb,0.0,-0.037207000000000004,
Zr2Er,0.0,-0.037206699999999995,
GaSrIr,0.0,-0.0372064,
B2CEuPt2,0.0,-0.0372059,
F2La2Bi,0.0,-0.0372052,
Pd2Nd,0.0,-0.0372052,
OZnNdBi,0.148,-0.037204799999999996,
BeW,0.0,-0.0372045,
GaILu,0.0,-0.0372041,
B2N3Cu2Th3,0.0,-0.0372033,
ScRh2Hf,0.0,-0.037203,
CSiHf2,0.0,-0.0372025,
Se2NbTl,0.0,-0.037201099999999994,
PPd3Pb,0.0,-0.037201,
Na3ErBi2,0.0,-0.0372003,
ZnPd2Hg,0.0,-0.0371997,
AlZrRuIr,0.0899,-0.0371989,
CSi2Co2Th2,0.0,-0.0371979,
Ge2RhIn3Tm3,0.0,-0.037197299999999996,
GeRhLu,0.0,-0.037196,
Cd5Pt,0.0,-0.0371955,
Pd2Sn2Ce,0.0,-0.037195099999999995,
MnZr2Hg,0.0,-0.0371948,
Cd2SnLa2,0.0,-0.0371948,
SnSb2Te4,0.055,-0.0371943,
Ga3Rh2U,0.0,-0.037194200000000004,
CrZn2U,0.0,-0.037194000000000005,
GeI2La2,0.2799,-0.0371936,
CdLa,0.0,-0.0371935,
FeZr2Hg,0.0,-0.037193399999999995,
MgRuOs,0.0,-0.037193199999999996,
AsBr2Gd2,0.0,-0.037191800000000004,
Be2ZrIr2,0.0,-0.0371905,
Ga2NdAu,0.0,-0.0371889,
Si2Pr2Pb,0.0,-0.0371884,
RhAg2Er,0.0,-0.037188200000000005,
AsTeEr,0.231,-0.037188000000000006,
TiNb2Ta,0.0,-0.0371878,
LiSr2Hg2,0.0,-0.0371873,
CaYTl,0.0,-0.037186300000000005,
AlRh2Ir,0.0,-0.0371862,
OZnLaBi,0.0,-0.037186,
HCs3Hg,0.0,-0.0371852,
Pd2Sn2Sm,0.0,-0.0371849,
YTe2Ba,0.0,-0.037184800000000004,
Se3BaPrPt,0.0,-0.0371847,
CFeLa2Au,0.0,-0.037183100000000004,
AlNbAu,0.0,-0.0371828,
Mn2As2Np,0.0,-0.0371818,
Sr2AgPt,0.0,-0.0371812,
SbI3,1.9998,-0.0371809,
CAsEr3,0.0,-0.037180399999999995,
CuGd,0.0,-0.0371796,
CdSnLa,0.0,-0.0371795,
Sc2I2Bi,0.0,-0.0371787,
LiP2TmIr2,0.0,-0.0371781,
Co2Sn7Tm3,0.0,-0.0371774,
CaCdAu,0.0,-0.037177100000000005,
GeEu,0.0,-0.037176900000000006,
Rh5Tm,0.0,-0.0371768,
KCdTl,0.0,-0.0371766,
Zr6Sb2Au,0.0,-0.037176299999999995,
NNiTm3,0.0,-0.0371761,
NiSb2Lu,0.0,-0.037176,
AsY2Hg,0.0,-0.037175400000000004,
Co2Sn3Er3,0.0,-0.0371745,
SrI4Sm,0.0,-0.0371735,
CuPd2Ta,0.0,-0.0371733,
LiTcLu2,0.0,-0.0371725,
Br4PdTl2,0.4366,-0.0371723,
B2Rh3U,0.0,-0.0371718,
CSi2Nd2W2,0.0,-0.0371697,
MgNd5,0.0,-0.0371693,
S2ErTl,1.3373,-0.0371693,
Pd2SnNd,0.0,-0.0371692,
C2MnPu,0.0,-0.0371689,
Zn5Ta4,0.0,-0.0371666,
Al2RhTh,0.0,-0.0371665,
SiRu2Ta,0.0,-0.0371651,
CuTe2Lu,0.0063,-0.037165,
Fe2In5Er4,0.0,-0.0371649,
ScZr2Pt,0.0,-0.0371646,
PI2Tb2,0.0,-0.037164,
Sr2InHg,0.0,-0.0371635,
CBr2Ta2,0.0,-0.037163400000000006,
GeSrHg,0.0,-0.037162,
Se2CdPb,0.2863,-0.037161900000000005,
LiAs2Pd2Pu,0.0,-0.037161,
NiRu2Ho2,0.0,-0.0371603,
Ga3YPt2,0.0,-0.0371598,
YSbNd,0.0,-0.0371596,
Zr6Te2Au,0.0,-0.0371593,
Fe3Dy2Pt,0.0,-0.0371591,
SiSbHf,0.0,-0.0371589,
LiBaHg,0.0,-0.0371589,
BeMnHf2,0.0,-0.0371581,
Ge2Dy3,0.0,-0.0371581,
Ge2InLu2,0.0,-0.037158000000000004,
LiOs,0.0,-0.0371579,
AlMn2U,0.0,-0.0371562,
SiHf,0.0,-0.037156,
Pd2In3Eu,0.0,-0.0371546,
AgCd2Lu,0.0,-0.0371545,
B2CTmIr2,0.0,-0.037154200000000005,
Sr2Pd2Tl,0.0,-0.037152700000000004,
AsCePr,0.0,-0.0371523,
NaGe2Pt2,0.0,-0.0371523,
AsNdSm,0.0,-0.0371516,
NSnHo2,0.0,-0.0371514,
BPdPt,0.0,-0.0371513,