formula,bg,formation_energy,mp-id
Pd2Nd2Pb,0.0,-0.046625799999999995,
Rh2CeTl,0.0,-0.0466248,
Ag2ErTl,0.0,-0.0466248,
MnRhTa2,0.0,-0.046623399999999995,
Ag2TbPb,0.0,-0.046622300000000005,
HI2Np,0.0,-0.0466211,
PI3Hg3,0.6886,-0.0466207,
B2TbOs3,0.0,-0.046619799999999996,
TiCdAu2,0.0,-0.046619799999999996,
OSeNp,0.0,-0.046618400000000004,
Ga2Hf2Os,0.0,-0.046617,
TcEr3,0.0,-0.046616399999999995,
In2DyAu,0.0,-0.0466153,
MnTe4Bi2,0.2545,-0.0466152,
Rh2SmTl,0.0,-0.0466152,
Al3Ge2RuNp3,0.0,-0.0466151,
AlGa2Hf6,0.0,-0.046615000000000004,
RbIn2Tl2,0.0,-0.0466137,
CaSrPb2,0.0,-0.0466113,
ONbHf3,0.0,-0.046610399999999996,
RuRhIr,0.0,-0.046607300000000004,
Sb2Sm6Os,0.0,-0.0466072,
Cd4Hg3,0.0,-0.0466068,
SiLuOs,0.0,-0.046605600000000004,
GeSr2Ir3,0.0,-0.046604999999999994,
GaDy2Ir,0.0,-0.046604799999999995,
ZnGeNp,0.0,-0.0466047,
CaRu2Np,0.0,-0.0466043,
Sn2CeHg,0.0,-0.0466038,
Zr5Os3,0.0,-0.0466035,
PdSbAu,0.0,-0.0466035,
Al3Au5,0.0,-0.0466024,
KPd2Bi2,0.0,-0.046601500000000004,
Co2DyU,0.0,-0.046601,
Rh2CdTa2,0.0,-0.0466004,
ZnAgPt2,0.0,-0.0465995,
SiLuPt,0.0,-0.0465983,
CoIn2Lu6,0.0,-0.0465981,
Al2CeIr3,0.0,-0.0465963,
LaDy3,0.0,-0.0465958,
BHo3Pb,0.0,-0.046595199999999996,
YCd2Pt2,0.0,-0.0465948,
Se2CsPb2,0.0,-0.0465946,
Al2SmIr3,0.0,-0.046594000000000003,
GeRh2Th,0.0,-0.0465937,
Y2ZrIr2,0.0,-0.0465934,
Te2BaRe,0.0,-0.0465934,
SnI2Gd2,0.0,-0.0465926,
GeTe4Bi2,0.3935,-0.0465903,
KTe2Pa,0.0,-0.0465888,
Mg3Pt5,0.0,-0.0465848,
GaAgAu2,0.0,-0.0465845,
Sb2BaAu,0.0,-0.046583599999999996,
CaBa2Pt2,0.0,-0.0465834,
NaNdHg2,0.0,-0.0465831,
Te8Pt3,0.0,-0.0465809,
CDy3Pb,0.0,-0.0465797,
NiGeU,0.0,-0.046579300000000004,
ZnCdPt2,0.0,-0.0465789,
CdSnGd2,0.0,-0.046578800000000004,
YSbPt,0.3717,-0.0465777,
Ge2DyIr2,0.0,-0.0465776,
Te2BaHg,0.4909,-0.046576700000000006,
LiHg2,0.0,-0.0465757,
Fe2PrNp,0.0,-0.0465749,
Te2Hf,0.0,-0.046574800000000006,
ClCs2Tl2,0.0,-0.046574599999999994,
GaDy2Pt,0.0,-0.046574399999999995,
Ni2Ta3,0.0,-0.046574,
TcRhPt,0.0,-0.046572699999999995,
SeBrTl2,0.0,-0.046572699999999995,
CdLa3Os,0.0,-0.0465719,
NaLa2Au2,0.0,-0.0465709,
Al2IrTh,0.0,-0.046569400000000004,
CdBaHg,0.0,-0.046569,
SbSmLu,0.0,-0.0465687,
CuZrAu2,0.0,-0.0465674,
ZnRhAu2,0.0,-0.046567300000000006,
Ga2Hf2Pt,0.0,-0.046565199999999994,
Ag3Au2,0.0,-0.0465649,
Ga2PbBi,0.0,-0.0465637,
Ge2HoPt2,0.0,-0.0465632,
AlTcRe2,0.0,-0.0465622,
NiHo2Au,0.0,-0.0465603,
SrBaPb,0.0633,-0.0465601,
As2Th,0.0,-0.046560000000000004,
PAgTl2,0.0,-0.0465591,
OBrNp,0.0,-0.0465568,
SiZrPt2,0.0,-0.0465552,
Al3Pt2Pu,0.0,-0.046554200000000004,
Al3Ge2RhNp3,0.0,-0.046554000000000005,
Y2InAu2,0.0,-0.046554000000000005,
AsSbHf2,0.0,-0.0465518,
YRuPb,0.0,-0.0465516,
YRu2Ta2,0.0,-0.0465507,
MgEu2Tl,0.0,-0.0465499,
CoRuTa2,0.0,-0.0465487,
Sc3Au4,0.0,-0.046547899999999996,
GeTbOs,0.0,-0.0465469,
SbCeLu,0.0,-0.0465464,
SnBa2Hg,0.0089,-0.0465461,
RbSb2Hg2,0.0,-0.0465458,
BEr3Tl,0.0,-0.0465456,
Ge4Tb3Ir4,0.0,-0.046544600000000005,
Ru2Sm2Tl,0.0,-0.0465435,
ZnRh2U,0.0,-0.046542700000000006,
Co2Y4Tl5,0.0,-0.046542700000000006,
Y3Pd2Tl3,0.0,-0.046542299999999995,
GaHoIr,0.0,-0.0465416,
KSnPt2,0.0,-0.0465413,
Al3Lu3OsPb2,0.0,-0.0465411,
Ag2Dy2Tl,0.0,-0.046541,
N2Sm7Tl3,0.0,-0.0465399,
Cd2SnHg2,0.0,-0.0465392,
CuTbPb,0.0,-0.0465377,
Pd2Tb3Hg,0.0,-0.0465372,
CoMoTa2,0.0,-0.0465367,
MgBaAu2,0.0,-0.0465349,
Y2ZrPt2,0.0,-0.046533700000000004,
RuTe2Er6,0.0,-0.0465328,
Zr5Tl3,0.0,-0.046531300000000005,
Sr2InPb2,0.0,-0.0465287,
Te2Sm6Au,0.0,-0.046528599999999996,
Se3Pt2Pb,0.0,-0.046527,
NaPrHg2,0.0,-0.046523600000000005,
Sr2PtHg,0.0,-0.0465225,
SeTl,0.0,-0.0465225,
As4Ta5,0.0,-0.0465209,
YSbIr,0.0,-0.04651979999999999,
GaYAu2,0.0,-0.0465193,
ScRu2Pa,0.0,-0.0465187,
AgSbPt,0.0,-0.046518500000000004,
ScSmBi,0.0,-0.046518000000000004,
Ca2Pt2Hg,0.0,-0.0465174,
P2CuHf6,0.0,-0.0465172,
Cd2InAc,0.0,-0.0465164,
MoTcW,0.0,-0.046515999999999995,
KBaHg2,0.0,-0.0465149,
Co3GeU2,0.0,-0.0465149,
KSn2Pb2,0.0,-0.0465149,
ZnInAu2,0.0,-0.046514400000000004,
GaHoPt,0.0,-0.0465133,
CaCdTl2,0.0,-0.0465132,
Y2CdIr2,0.0,-0.0465131,
Y2CdPt2,0.0,-0.0465129,
FeRhTa2,0.0,-0.046512099999999994,
Nd3Lu,0.0,-0.0465118,
AsTbAu,0.0,-0.0465089,
AlMoPt2,0.0,-0.0465087,
Cu2Hf2Pb,0.0,-0.046508,
ClZrTl2,0.0,-0.0465075,
LiZrPb2,0.0,-0.0465073,
CAsTa3,0.0,-0.0465073,
SrPrTl,0.0,-0.046506900000000004,
ZnHf2,0.0,-0.0465068,
Pd2Pr2Pb,0.0,-0.046506399999999996,
CuEr2Hg,0.0,-0.0465062,
RhTe2Er6,0.0,-0.0465054,
Te2Sm6Re,0.0,-0.0465015,
Br2Th,0.0,-0.0465,
Te3BaErAu,0.4338,-0.0464999,
Al3PdPu2,0.0,-0.0464991,
Rh2Sm2Tl,0.0,-0.0464988,
Si2FeHf6,0.0,-0.0464976,
CdTe4Tl2,0.0,-0.046497300000000005,
SrSn2Hg2,0.0,-0.046496699999999995,
Co3RuTh2,0.0,-0.0464957,
ScCdAu2,0.0,-0.0464953,
NiSn2Th,0.0,-0.0464953,
NaLaHg2,0.0,-0.0464936,
Mo2W,0.0,-0.046493,
MgTm2Pb,0.0,-0.0464921,
KCsAu2,0.1933,-0.0464905,
Ni2Hf2Ir,0.0,-0.0464905,
NiErPt,0.0,-0.0464899,
Rh2Ce2Tl,0.0,-0.0464888,
HTeTh,0.0,-0.0464869,
ZnSb2Tl2,0.0,-0.0464853,
LiP2Pt2Pu,0.0,-0.0464852,
Si2MnHf6,0.0,-0.0464849,
RbSn2Au2,0.0,-0.0464847,
ZnPdAu2,0.0,-0.046483800000000006,
Zr6IrBi2,0.0,-0.0464816,
PdEr3,0.0,-0.0464814,
CoAsPa,0.0,-0.046481299999999996,
Pd2La2Pb,0.0,-0.0464807,
As2PdPu,0.0,-0.046479999999999994,
SbDyTm,0.0,-0.0464793,
Ru2DyTa,0.0,-0.0464793,
Rh2PmTl,0.0,-0.0464791,
NDy2Pb,0.0,-0.046478900000000004,
HScPt3,0.0,-0.0464777,
B2GeTa5,0.0,-0.0464773,
NiDy2Ir,0.0,-0.046476500000000004,
GeTmTa,0.0,-0.046474299999999996,
InEr3,0.0,-0.046472700000000006,
ZnYPt2,0.0,-0.046472299999999994,
RuSb2Er6,0.0,-0.0464706,
AsCeIr,0.0,-0.0464666,
K2Au2Pb,0.0,-0.046466099999999996,
Fe2U,0.0,-0.046466099999999996,
Cd2TmPt,0.0,-0.0464659,
Si2CoHf6,0.0,-0.046465200000000005,
RhSn5Pu,0.0,-0.0464639,
K2PtTl2,0.0,-0.0464616,
Ge2DyOs2,0.0,-0.0464614,
AlInIr2,0.0,-0.0464607,
B2CPt2Pu,0.0,-0.0464601,
PmHo,0.0,-0.0464583,
CdInPb,0.0,-0.0464582,
Rh2Os,0.0,-0.0464579,
Ni2Hf2Tl,0.0,-0.0464574,
LiAgPb2,0.0,-0.0464557,
GaSn2Tl2,0.0,-0.0464547,
Al2SmPt3,0.0,-0.0464539,
NiAgAu2,0.0,-0.0464531,
ZnCs4Bi2,0.52,-0.046451700000000005,
ZnHo2Ir,0.0,-0.0464504,
AlMoRe2,0.0,-0.0464497,
SiMnPu,0.0,-0.046449,
Sn2NdHg,0.0,-0.0464481,
Cd3NdPt2,0.0,-0.0464474,
CaZrIr2,0.0,-0.046446,
Al2NdIr3,0.0,-0.0464446,
NCdHf3,0.0,-0.0464436,
Al2PtTh,0.0,-0.0464432,
Ni2Y4Tl5,0.0,-0.0464431,
ZnHo2Tl,0.0,-0.0464412,
Al2OsTh,0.0,-0.046440199999999994,
Ru2W,0.0,-0.0464397,
ICs2Au,2.8685,-0.0464393,
GaInHg2,0.0,-0.0464392,
RhSb2Er6,0.0,-0.0464374,
I6Cs2Pu,0.001,-0.0464373,
In2La2Pb,0.0,-0.0464366,
SiSbAu2,0.0,-0.046434399999999994,
ScCeBi,0.0,-0.046434199999999995,
Pd2HoHg,0.0,-0.0464328,
Ni2Hf2Pt,0.0,-0.0464319,
CdSbPt,0.0,-0.0464305,
Te4Tm5,0.0,-0.0464301,
Rh2DyHg,0.0,-0.0464297,
Zr6PtBi2,0.0,-0.0464261,
Zr6OsBi2,0.0,-0.046424,
NiDy2Pt,0.0,-0.046421500000000004,
AlPd2Pu,0.0,-0.046419199999999994,
AsSmPt,0.0,-0.0464168,
AsCePt,0.0,-0.0464163,
Br2Lu2Pb,0.0,-0.046416200000000005,
BCaPt3,0.0,-0.0464158,
OCdSbNp,0.0,-0.046415399999999996,
NZrHf3,0.0,-0.046415,
Rh2CePt,0.0,-0.046414000000000004,
LiSmHg2,0.0,-0.046413499999999996,
Ru2ErHf,0.0,-0.0464133,
YZrBi,0.0,-0.0464125,
Sb2Sm6Re,0.0,-0.046411799999999996,
NiRu2Hf3,0.0,-0.0464105,
Al2CePt3,0.0,-0.0464095,
Cd3PrPt2,0.0,-0.0464086,
ZnHo2Pt,0.0,-0.0464085,
GeDyAu,0.0,-0.0464068,
Ga2YIr3,0.0,-0.0464055,
Sb3Er5,0.0,-0.0464049,
GeLuHf,0.0,-0.0464042,
AsSmIr,0.0,-0.0464041,
MgGa2Th2,0.0,-0.0464033,
Cd2TmIr,0.0,-0.046402299999999994,
N2ErPu,0.0,-0.046402299999999994,
Ga2Hf2Re,0.0,-0.0464014,
Cd3LaPt2,0.0,-0.0464007,
GeSeTh,0.0,-0.0464,
SbTeHf,0.0,-0.046399,
Rh2GdLu,0.0,-0.0463989,
InSnAu,0.0,-0.046398800000000004,
Cd2Bi,0.0,-0.0463975,
ScTc2Pa,0.0,-0.0463953,
MgCo2Th2,0.0,-0.0463948,
Al2PrIr3,0.0,-0.0463934,
NaTe2U,0.0,-0.046393000000000004,
As2AuPb,0.0,-0.046391100000000005,
NaYPb2,0.0,-0.0463887,
AlBaHg2,0.0,-0.046388599999999995,
GaCdAu2,0.0,-0.046388,
Ag2EuHg,0.0,-0.046387500000000005,
SrIn6Ir4,0.0,-0.0463828,
Ni3Au4,0.0,-0.046381500000000006,
Ge2TbIr2,0.0,-0.0463791,
La7Hg,0.0,-0.0463762,
Al3Ge2PdNp3,0.0,-0.0463745,
B2Pt2Pb,0.0,-0.0463744,
YPdPb,0.0,-0.0463727,
As2CeIr2,0.0,-0.046371899999999994,
Si2NiHf6,0.0,-0.0463718,
CaRh2Np,0.0,-0.0463716,
Sn3Bi,0.0,-0.0463716,
Al2LaIr3,0.0,-0.0463712,
SiPdPt2,0.0,-0.0463709,
SbHoEr,0.0,-0.0463702,
Pd2Tb2Hg,0.0,-0.046369999999999995,
In2TbAu,0.0,-0.0463697,
CaZrPt2,0.0,-0.046368,
Ru2GdLu,0.0,-0.0463677,
PYTl2,0.0,-0.0463641,
CoRhTa2,0.0,-0.046363999999999995,
NHo3Au,0.0,-0.0463595,
ZnTmPt,0.0,-0.046358800000000006,
ScPdHg2,0.0,-0.0463583,
PdTe2Er6,0.0,-0.0463576,
Br2HgPb,1.5847,-0.046356499999999995,
AlPdTh,0.0,-0.046356499999999995,
KSn6Pt4,0.0,-0.0463564,
LiBaIr2,0.0,-0.046356299999999996,
Rh2Re,0.0,-0.0463551,
Ag3Ac,0.0,-0.04635499999999999,
Ag2CdAu2,0.0,-0.046353700000000005,
PNiPu,0.0,-0.0463533,
In5GdPt2,0.0,-0.0463533,
LiCeHg2,0.0,-0.046353,
KSbAu2,0.0,-0.0463528,
CuErTl,0.0,-0.0463516,
Y2PdAu2,0.0,-0.0463509,
MgRu2Pu,0.0,-0.0463508,
Pd2SbHf2,0.0,-0.046349800000000003,
SnLu,0.0,-0.0463482,
CaTmPb,0.0,-0.0463482,
CEr2Tl,0.0,-0.0463476,
AlTm2Tl,0.0,-0.0463472,
Ag2Sn2Th,0.0,-0.0463442,
Sn2LaHg,0.0,-0.0463426,
Rh2NdTl,0.0,-0.0463424,
AlBa2Pt2,0.0,-0.046342100000000004,
NaSnTl2,0.0,-0.046342100000000004,
Ge2DyPt2,0.0,-0.0463405,
AlNbPt2,0.0,-0.0463389,
Co2TbU,0.0,-0.0463388,
ZnTmIr,0.0,-0.0463372,
RuBa2Ir,0.0,-0.046333599999999996,
In2Tl,0.0,-0.0463333,
Te2CsPt,0.0,-0.0463333,
As2SmIr2,0.0,-0.0463329,
ScInHg2,0.0,-0.046332500000000006,
YIPt,0.7067,-0.0463324,
AlZrOsIr,0.3579,-0.0463315,
InBa2Pt,0.0,-0.0463311,
P2ZnHf6,0.0,-0.0463298,
Se2TaPb,0.0,-0.0463292,
Al2Au2Pb,0.0,-0.0463279,
MgLu2Hg,0.0,-0.0463275,
GaErAu,0.0,-0.0463271,
GePm2Pb,0.0,-0.0463263,
NiRuTa2,0.0,-0.0463257,
RbPd2Tl2,0.0,-0.0463254,
Zn3Au2Th,0.0,-0.0463234,
RuIn2Tm6,0.0,-0.046322699999999994,
ZnTmTl,0.0,-0.0463221,
CGeTa3,0.0,-0.046318899999999996,
BrSmPt,1.0282,-0.0463172,
YLa2Au,0.0,-0.0463165,
Ni4Pt5,0.0,-0.046314999999999995,
AlGd3,0.0,-0.0463143,
Se2AgPu,0.0,-0.0463142,
Sn2Te5Bi2,0.0118,-0.0463132,
CuAgAu2,0.0,-0.0463124,
RuRhPt,0.0,-0.0463123,
Y2SnHg2,0.0,-0.046311500000000005,
Al2NdPt3,0.0,-0.046309800000000005,
TiTcTa2,0.0,-0.0463091,
AlZrIr2,0.0,-0.0463082,
Na2PtPb2,0.0,-0.046308100000000005,
CuHo2Au,0.0,-0.0463058,
NiDy2Os,0.0,-0.0463054,
NGeTa3,0.0,-0.0463054,
Pr3Lu,0.0,-0.0463046,
ZnDyPb,0.0,-0.0463034,
Al2Pt3,0.0,-0.046303,
LiPmHg2,0.0,-0.0463029,
CuZnPu,0.0,-0.0463016,
SiFePu,0.0,-0.0463014,
Pd2SmTl,0.0,-0.046300600000000004,
CaSbHg2,0.0,-0.046300100000000004,
Nd2Tm,0.0,-0.0462993,
GaHo2Hg,0.0,-0.046297899999999996,
RhIn2Tm6,0.0,-0.0462959,
PHf2,0.0,-0.0462959,
Ag2HoTl,0.0,-0.0462958,
Nb2Os,0.0,-0.046295699999999995,
KErBi,0.0,-0.0462941,
In2SmPt,0.0,-0.0462928,
ZnHo2Os,0.0,-0.0462909,
NiCdAu2,0.0,-0.046288499999999996,
PdSb2Er6,0.0,-0.046285200000000006,
RhBa2Pt,0.0,-0.0462842,
Te3BaHoAu,0.426,-0.046284,
HGaPt3,0.0,-0.046279,
B2CeOs3,0.0,-0.0462778,
CoCePb,0.0,-0.0462767,
Pd2In3Pu,0.0,-0.0462766,
Sm3Tm,0.0,-0.046275,
SbCs2Pt,0.0,-0.0462744,
NaEu2Tl,0.0,-0.0462729,
Li2HgBi2,0.0,-0.0462722,
In2SmIr,0.0,-0.046272100000000004,
In2Pt,0.0,-0.0462703,
NaEuBi,0.0,-0.0462699,
AlCu2Th2,0.0,-0.0462681,
Co2NdNp,0.0,-0.046267699999999995,
NbInIr,0.0,-0.046265799999999996,
Co2Hf2Au,0.0,-0.0462655,
RuAgGd2,0.0,-0.0462649,
NHf2,0.0,-0.046264400000000004,
ZnZrAu2,0.0,-0.0462624,
TcSb2Pb,0.0,-0.046262099999999994,
PdTm2,0.0,-0.046262,
PPdPt2,0.0,-0.0462618,
Ge2TbOs2,0.0,-0.0462615,
Rh3Hf2,0.0,-0.046261000000000004,
Al2PrPt3,0.0,-0.046260199999999994,
AlGa3Ge2Np3,0.0,-0.046259,
Ga2BaBi2,0.0,-0.046258099999999996,
LiCdPb2,0.0,-0.0462572,
N2STh2,1.3047,-0.046255899999999996,
AlRhPt2,0.0,-0.0462553,
B2CeIr3,0.0,-0.046254199999999995,
LiSbTl2,0.0,-0.046254199999999995,
AsTl,0.0,-0.046253999999999997,
Sr2AuHg,0.0,-0.046252299999999996,
NTb3Pb,0.0,-0.0462521,
Ga2YPt3,0.0,-0.046250599999999996,
ScNdBi,0.0,-0.0462498,
Ge2SrIr3,0.0,-0.0462481,
CTb2Bi,0.0,-0.046247500000000004,
CuGaNp,0.0,-0.046247100000000006,
Rh2Ir,0.0,-0.0462468,
Sr2BaTl2,0.0,-0.0462468,
Sn2BaIr,0.0,-0.046246699999999995,
Sn2BaPt,0.0,-0.0462466,
LiLa2Au2,0.0,-0.046246499999999996,
Pd2CeTl,0.0,-0.0462428,
Rh2PrTl,0.0,-0.0462405,
Al2LaPt3,0.0,-0.0462402,
SbTe2Tl,0.0773,-0.0462388,
AlInPt2,0.0,-0.0462388,
Zr6ReBi2,0.0,-0.0462385,
ScY2Bi2,0.0,-0.046238,
RhAgGd2,0.0,-0.046238,
RhBa2Ir,0.0,-0.0462362,
Pd2Sm2Tl,0.0,-0.046236,
S3CeTh2,0.0,-0.0462358,
CdEu2,0.0,-0.046235599999999995,
In2CePt,0.0,-0.0462342,
Rh2LaTl,0.0,-0.0462339,
MgSn6Ir4,0.0,-0.046233699999999996,
B2SmIr3,0.0,-0.0462329,
NbTe2Pb,0.0,-0.04623,
NSTb6Pb2,0.0,-0.0462295,
InBa2Ir,0.0,-0.0462284,
Se2IrTl,0.0,-0.0462277,
InTe2Pb,0.0,-0.0462264,
RbTe3Pt2,0.5535,-0.046224600000000005,
MgTe2Lu6,0.0,-0.0462243,
Rh2SmPt,0.0,-0.046223999999999994,
AlGdAu,0.0,-0.046221200000000004,
ZnLuHg,0.0,-0.0462199,
Ti2BaBi2,0.0,-0.0462195,
Si2GaTh2,0.0,-0.0462181,
SbPrLu,0.0,-0.046218,
Zn2BaAu3,0.0,-0.046216700000000006,
Si2BaIr3,0.0,-0.0462162,
In2Ir,0.0,-0.0462123,
NaSb2Pb2,0.0,-0.0462106,
Se3Lu4Pb,0.0,-0.0462101,
SiAgTh,0.0,-0.0462082,
Ga3Ge2RuTh3,0.0,-0.0462078,
NaP2Pt2Np,0.0,-0.0462068,
CaAg2Bi2,0.0,-0.0462056,
MgNi2Th2,0.0,-0.0462053,
BInHf3,0.0,-0.046204999999999996,
CuDy2Ir,0.0,-0.0462044,
Li3Bi2Pu,0.0,-0.0462042,
SnHo3,0.0,-0.0462034,
Ca2Au3,0.0,-0.0462028,
SnEr2,0.0,-0.04619959999999999,
CCdHf3,0.0,-0.0461988,
LiNdHg2,0.0,-0.0461987,
CuDy2Pt,0.0,-0.046198,
KAgTl2,0.0,-0.0461979,
B2SmOs3,0.0,-0.0461974,
Rh5Np,0.0,-0.0461973,
Ge2EuAc,0.0,-0.0461947,
Ga2TmIr2,0.0,-0.0461937,
NDy3Tl,0.0,-0.0461929,
Te2Nd6Ir,0.0,-0.0461913,
AlZrOs2,0.0,-0.046189999999999995,
NiAsPa,0.0,-0.0461886,
ScYAu2,0.0,-0.0461873,
Sn2Tm3,0.0,-0.0461849,
MnRh2Th,0.0,-0.0461849,
Ag2Ho2Hg,0.0,-0.046184600000000006,
MgSb2Lu6,0.0,-0.0461841,
CuDy2Tl,0.0,-0.0461808,
CaYTl2,0.0,-0.0461808,
AgTe2Bi,0.0,-0.0461802,
Ge2BaPb2,0.0,-0.0461791,
Ru2Nd2Tl,0.0,-0.0461781,
Ru2TbTa,0.0,-0.0461764,
Te2Nd6Pt,0.0,-0.046176299999999997,
SbNdLu,0.0,-0.0461747,
LiLu2Au,0.0,-0.046173900000000004,
Zr6AuBi2,0.0,-0.0461735,
As2NdIr2,0.0,-0.0461733,
CuRu2Hf3,0.0,-0.0461722,
ScPrBi,0.0,-0.0461702,
Cd3Au2,0.0,-0.0461685,
Sb3Ir,0.1684,-0.0461683,
Pd2Tl,0.0,-0.0461669,
SmTb3,0.0,-0.0461668,
TeCs2Hg,1.7343,-0.0461667,
SbCs2Au,1.0213,-0.046163800000000005,
ZnEr2Hg,0.0,-0.046163499999999996,
SiCl2Pa2,0.0,-0.046161900000000006,
Sb2Hf,0.0,-0.0461617,
NiRhTa2,0.0,-0.0461617,
Ru2Sm3Pt,0.0,-0.046161499999999994,
MoRhW,0.0,-0.046159799999999994,
NaBaAu2,0.0,-0.0461597,
NOTb6Pb2,0.0,-0.0461589,
CaBa2Au2,0.0,-0.0461556,
RbIn6Pt4,0.0,-0.0461548,
SrIn2Au2,0.0,-0.0461545,
InTm2,0.0,-0.046153799999999995,
Rh2TbHg,0.0,-0.0461537,
CeTb3,0.0,-0.046153599999999996,
Sb2BaHg,0.0,-0.0461515,
MgSnIr2,0.0,-0.0461512,
PEuIr,0.0,-0.046150399999999994,
Mg2Tl2Pb,0.0,-0.046150199999999995,
SbTbTm,0.0,-0.0461496,
Ge2TbPt2,0.0,-0.046148800000000004,
GaDy2Au,0.0,-0.046148600000000005,
OZrHf3,0.0,-0.0461468,
In3Sn2Lu3Ir,0.0,-0.046146599999999996,
CaNiBi2,0.0,-0.046146,
Cd3SmAu2,0.0,-0.0461458,
La3Lu,0.0,-0.046145200000000004,
Ru2Ce3Pt,0.0,-0.0461438,
SrRh3Pb2,0.0,-0.0461423,
Ga3Ge2RhTh3,0.0,-0.0461422,
Se4TaTl3,1.9743,-0.0461412,
Al3U2,0.0,-0.04614,
Ni2BaBi2,0.0,-0.0461399,
CuCdAu2,0.0,-0.046139400000000004,
CSi2W2Np,0.0,-0.046139,
SrLaPt,0.0,-0.046139,
PdBa2Pt,0.0,-0.0461389,
Pd2PmTl,0.0,-0.046136899999999995,
Rb2CdBi2,0.0,-0.0461338,
Zr2Pb,0.0,-0.0461332,
GaDyIr,0.0,-0.0461321,
NHo2Tl,0.0,-0.0461313,
Cd3CeAu2,0.0,-0.0461313,
Pd2SbTm5,0.0,-0.0461311,
LiPrHg2,0.0,-0.046131,
I2Hf,0.3301,-0.0461306,
SrAg2Tl2,0.0,-0.0461305,
Ag2Tb2Tl,0.0,-0.046129199999999995,
As2RuLu6,0.0,-0.0461287,
AsNdPt,0.0,-0.046127499999999995,
CoTb2Ir,0.0,-0.046127499999999995,
Ag2CdAc,0.0,-0.0461267,
Pd2DyHg,0.0,-0.0461264,
Sb2Cs2Bi,0.0,-0.046125599999999996,
Pd2SnHf2,0.0,-0.0461255,
SHf2,0.0,-0.0461253,
SiCoPu,0.0,-0.0461251,
Pd2Ce2Tl,0.0,-0.046124899999999996,
I6Cs2Np,0.1038,-0.046123199999999996,
LiP2Ir2Np,0.0,-0.046123,
ScLaBi,0.0,-0.0461227,
ZnRu2Pa,0.0,-0.046122300000000005,
Pd4Th,0.0,-0.04612189999999999,
As2PrIr2,0.0,-0.0461214,
PEuPt,0.0,-0.046120100000000004,
Rh2Nd2Tl,0.0,-0.0461199,
As2CePt2,0.0,-0.0461199,
Sr3Pd4Pb4,0.0,-0.0461199,
Te2Nd6Os,0.0,-0.046118099999999995,
MgRh2Pu,0.0,-0.046117899999999996,
C4MnU3,0.0,-0.0461172,
AlSbAu2,0.0,-0.0461161,
Sb12CeOs4,0.0,-0.0461153,
AgBa2Tl,0.0,-0.0461153,
Rh2InHf2,0.0,-0.0461141,
MgLa2Hg2,0.0,-0.0461132,
PrHo,0.0,-0.0461128,
AsNdIr,0.0,-0.0461118,
Ag2Pb,0.0,-0.046110599999999995,
FeGePa,0.0,-0.0461101,
N2HfTh,0.0,-0.0461094,
HITh,0.0,-0.0461092,
Se2RhLu6,0.0,-0.046108800000000005,
Te2Er3,0.0,-0.046108699999999996,
GaDyPt,0.0,-0.046108699999999996,
In2LaTl,0.0,-0.046103700000000004,
Te3Tl,0.0,-0.0461033,
MnGePa,0.0,-0.046103200000000004,
Rh2Sn3Hf3,0.0,-0.046102899999999995,
Ga2TmPt2,0.0,-0.0461021,
Ga2Hf2Au,0.0,-0.0461007,
Fe2CeU,0.0,-0.0460997,
Ni2YIr3,0.0,-0.0460993,
Cd2ErPt,0.0,-0.046097900000000004,
Te3BaDyAu,0.4211,-0.0460942,
SbSmEu,0.0,-0.0460924,
AlInTh,0.0,-0.046090000000000006,
CaInAu2,0.0,-0.0460888,
Pd5Bi2,0.0,-0.0460878,
In3Sn2Lu3Os,0.0,-0.046087699999999995,
As2SmPt2,0.0,-0.046087,
LiLaHg2,0.0,-0.0460862,
Al3Ge2AgNp3,0.0,-0.046086100000000005,
Ca2Hg2Tl,0.0,-0.0460859,
CaRh2Pb2,0.0,-0.046085299999999996,
SiCdIr2,0.0,-0.046085299999999996,
As2RhLu6,0.0,-0.0460843,
Nb2Re,0.0,-0.0460841,
CBrNp,0.0,-0.046084,
Na2AuPb2,0.0,-0.0460833,
Y3Ir2,0.0,-0.046083,
B2CIr2Np,0.0,-0.0460828,
Sb2Nd6Ir,0.0,-0.046082200000000004,
Cd2InHg2,0.0,-0.0460818,
Cu3Au4,0.0,-0.0460805,
NiCePb,0.1702,-0.046080300000000005,
CoTb2Pt,0.0,-0.0460801,
FeNbTa2,0.0,-0.0460785,
Sb2Ba2Tl,0.0,-0.0460774,
Sb12SmOs4,0.0,-0.0460766,
Nb2Pt,0.0,-0.046076,
Pd2NdTl,0.0,-0.0460747,
CuGeU,0.0,-0.046074399999999995,
In2NdPt,0.0,-0.0460739,
GaTmHg,0.0,-0.0460738,
TiMoTa2,0.0,-0.0460737,
In3Sn2Lu3Pt,0.0,-0.0460732,
Ag2SmPb,0.0,-0.046073,
Sb2Nd6Pt,0.0,-0.0460705,
GeTbAu,0.0,-0.0460659,
TcAgGd2,0.0,-0.0460628,
MgSnTh,0.0,-0.046061500000000005,
Ni2Hf2Au,0.0,-0.046060000000000004,
AgInGd2,0.0,-0.04605939999999999,
B2NdIr3,0.0,-0.046059199999999995,
CTm2Hg,0.0,-0.0460582,
Cd5Tl3,0.0,-0.0460579,
SiBrNp,0.0,-0.046057299999999995,
Sb12LaOs4,0.0,-0.046057,
Ge2RhPu,0.0,-0.046055900000000004,
Ag2CePb,0.0,-0.0460548,
Te2CsAu,0.877,-0.0460544,
Y3Pt2,0.0,-0.0460542,
Ru2Pr2Tl,0.0,-0.0460535,
PmTb3,0.0,-0.0460518,
Mn2SmU,0.0,-0.046051299999999996,
InBa2Au,0.0,-0.0460507,
As2LaIr2,0.0,-0.046049999999999994,
In2NdIr,0.0,-0.0460488,
N2HoPu,0.0,-0.0460469,
Nd3Eu,0.0,-0.0460467,
Ru2HoHf,0.0,-0.0460454,
N2LuU,0.0,-0.046045,
CuDy2Os,0.0,-0.046044400000000006,
As2Cs3Pt3,0.0,-0.0460433,
Sb12NdOs4,0.0,-0.0460431,
AsLaPt,0.0,-0.0460428,
NFeTa3,0.0,-0.0460424,
Cd2TmAu,0.0,-0.0460401,
C2NiTh2,0.0,-0.0460399,
SeLa2Tl,0.0,-0.0460386,
YCd2Au2,0.0,-0.0460384,
GaPd2Pa,0.0,-0.0460384,
SnTe4Hg2,0.0,-0.046037999999999996,
AsPrPt,0.0,-0.046037100000000004,
RuSn2Er6,0.0,-0.0460362,
Sb12PrOs4,0.0,-0.046036,
K2Hg2Pb,0.0,-0.0460353,
ZrSn2Hf2,0.0,-0.0460338,
BrNdPt,1.0703,-0.046032699999999996,
Cd2ErIr,0.0,-0.0460325,
FeLu3,0.0,-0.0460321,
CaCdCs2Bi2,0.1138,-0.0460312,
Ba4Pt,0.0,-0.046031100000000005,
Pd5Pu,0.0,-0.0460302,
NaBa2Tl2,0.0,-0.046029200000000006,
GePd2Th,0.0,-0.046027500000000006,
RhSnTa,1.0802,-0.0460259,
LiYPb2,0.0,-0.0460249,
Cd3NdAu2,0.0,-0.0460245,
NiHoPt,0.0,-0.0460242,
AgSbAu,0.0,-0.0460241,
SiPd2Np,0.0,-0.0460239,
Ag3Hg2,0.0,-0.046023299999999996,
Sn2La2Hg,0.0,-0.046023299999999996,
Se3Pt2Tl,0.0,-0.0460232,
CDy2Pb,0.0,-0.0460225,
Sn2Ba2Pb,0.0,-0.0460218,
K2Pt2Tl,0.0,-0.0460187,
Rh2BaPb,0.0347,-0.0460186,
NiSrTl2,0.0,-0.046017699999999995,
As2HgPb,0.0,-0.0460167,
N2GdPa,0.0,-0.0460157,
B2NdOs3,0.0,-0.0460157,
AsPrIr,0.0,-0.0460152,
NaI3Pu,0.0,-0.046015,
Te2Pr6Ir,0.0,-0.0460143,
AsLaIr,0.0,-0.0460133,
Ca2Au2Hg,0.0,-0.0460124,
Ni3GeU2,0.0,-0.0460115,
Pd2CePt,0.0,-0.046010800000000004,
Sb2Nd6Os,0.0,-0.046009,
NHo3Hg,0.0,-0.0460087,
Zr4Ta3,0.0,-0.0460085,
GeErTa,0.0,-0.046006500000000006,
Ag2DyTl,0.0,-0.046005899999999995,
Ge2Hf3,0.0,-0.0460053,
AlPdPt2,0.0,-0.0460032,
KTe2Tl2,0.0,-0.046003,
RhSn2Er6,0.0,-0.0460026,
Te2Pr6Pt,0.0,-0.0460022,
In2PrPt,0.0,-0.0460022,
KGaHg3,0.0,-0.0460021,
PdAgGd2,0.0,-0.045999899999999996,
Pd2PrTl,0.0,-0.0459993,
Cu2Ta3,0.0,-0.045999200000000004,
SrLaIr,0.0,-0.045999000000000005,
RbIn2Pt2,0.0,-0.045997500000000004,
Al2Pt2Au,0.0,-0.0459974,
Te8Au3,0.0,-0.0459954,
RhBa2Au,0.0,-0.0459952,
N2Nd7Tl3,0.0,-0.0459952,