formula,bg,formation_energy,mp-id
RhCd2Nd,0.0,-0.0350747,
Fe4TaRe,0.0,-0.0350742,
MnSb2Sm,0.0,-0.035074100000000004,
MgIn2Hg,0.0,-0.035073799999999995,
Al2Sm2Hg,0.0,-0.035073799999999995,
GaRu2Nd2,0.0,-0.035073599999999996,
MgAgHg,0.0,-0.0350729,
SrAgLa2,0.0,-0.0350726,
OZr3Au,0.0,-0.0350718,
Ge2PdSn3La3,0.0,-0.035071399999999996,
Si3Eu2Au,0.0,-0.0350711,
AlIn3Sn2Pr3,0.0,-0.035071,
ZnRhLu,0.0,-0.035071,
Cu2Sn4Pt,0.0,-0.0350701,
Ni2SnTm2,0.0,-0.0350694,
Pd3Sn2Sb,0.0,-0.0350693,
Ga2Pd4Dy3,0.0,-0.0350693,
Se2InHf,0.0,-0.0350687,
AgCd2Tb,0.0,-0.035068600000000005,
Rb2SrSb2Hg,0.0233,-0.0350684,
C2SnEr3,0.0,-0.035068300000000004,
Ge2YPt,0.0,-0.035067999999999995,
Fe2As2Th,0.0,-0.035066,
Br2CdHg,1.4789,-0.0350654,
Si3Tm2Pt,0.0,-0.0350642,
Se3Sn2Pb,0.2719,-0.035063899999999995,
B5Dy2Re3,0.0,-0.0350638,
CoSnEr,0.0,-0.0350621,
Al2ErOs,0.0,-0.0350619,
Co2In4Dy3,0.0,-0.0350618,
GePd2La2,0.0,-0.0350615,
GaPdEu,0.0,-0.035061,
Co2PdTb3,0.0,-0.035060600000000004,
Br6Cs2Np,0.0711,-0.0350604,
Ti2RhRe,0.0,-0.0350595,
Ni2In3Dy3,0.0,-0.0350594,
SiRh2Gd,0.0,-0.035058900000000004,
Tc,0.0,-0.035058700000000005,
Co2MoRe,0.0,-0.035058700000000005,
Tc3Ru,0.0,-0.035058399999999997,
Fe2RuW,0.0,-0.035058399999999997,
YRuSb2,0.0,-0.0350581,
Tc5Ru,0.0,-0.035057899999999996,
CuSb2Dy,0.0,-0.035057899999999996,
Sr3In3Sn2Pt,0.0,-0.0350577,
OY2Ir,0.0,-0.0350575,
Zr2TcLa,0.0,-0.0350574,
Al3BaIr2,0.0,-0.0350563,
Co2Pt,0.0,-0.0350552,
AgI2,0.0,-0.0350552,
MnSb2Ce,0.0,-0.035054,
NiGe3Pa,0.0,-0.0350538,
B2ScIr2,0.0,-0.035053600000000004,
NaNi2Sb2Th,0.0,-0.0350535,
MnRu2La2,0.0,-0.0350524,
Ga2SnTl,0.0,-0.0350521,
NiSn3Ho,0.0,-0.0350515,
B2N3Er3Os2,0.0,-0.0350513,
ZrInSb2,0.0,-0.035051200000000005,
B2Ni7Th3,0.0,-0.035051099999999995,
Al2I8Pt,1.7519,-0.0350508,
BrRhDy,0.0,-0.0350507,
PSrAu,0.0,-0.0350504,
Ge2PmLu,0.0,-0.0350501,
PSbLa2,0.0,-0.0350497,
SrSb5,0.0,-0.0350483,
KZn2Au2,0.0,-0.0350482,
Si2TbRe,0.0,-0.035047800000000004,
AsPd5Lu,0.0,-0.035047600000000005,
NiEu,0.0,-0.035047299999999997,
H2Lu3,0.0,-0.0350471,
LiP2LaAu2,0.0,-0.035046999999999995,
Al2FeTb6,0.0,-0.0350466,
Pd4In6Dy,0.0,-0.035046,
Ge3NdPt,0.0,-0.035045900000000005,
Tc2Ru,0.0,-0.0350455,
As2Ag2Tl,0.0,-0.035045299999999995,
Ag2In7Ba3,0.0,-0.0350452,
CuRhSm2,0.0,-0.035045,
TiRu2Tm,0.0,-0.0350448,
ScCo2Hf2,0.0,-0.0350439,
Al3In2Ho3Ir,0.0,-0.0350435,
CaCd2Hg,0.0,-0.035043399999999995,
CaCuBi,0.0,-0.035043,
Pd3Sb2,0.0,-0.0350424,
CaI4Sm,0.0,-0.0350421,
Co2MoPt,0.0,-0.0350412,
LiP2PrAu2,0.0,-0.035040100000000005,
AsTeNd,0.1142,-0.0350392,
Co2ZnHf2,0.0,-0.035038,
K2GaPt2,0.0,-0.035037900000000004,
CuSnTm,0.0,-0.0350377,
Zn3Pa,0.0,-0.035037599999999995,
NBr2Gd2,0.0,-0.0350375,
KCd2Pt,0.0,-0.0350372,
Pd2In5Nd,0.0,-0.035037,
Pd3Te2,0.0,-0.0350363,
Co2CdDy3,0.0,-0.0350362,
PPd5Hg,0.0,-0.035036000000000005,
GaRuTm,0.0,-0.0350346,
Ge3LaPt,0.0,-0.035034100000000006,
SrIn2Ho,0.0,-0.0350334,
SrRhBa3,0.0,-0.0350332,
SNiBi,0.0,-0.0350328,
CInLa3,0.0,-0.0350325,
BCHoIr,0.0,-0.035031999999999994,
Co2RuIr,0.0,-0.0350317,
Si3PdPu,0.0,-0.0350317,
CZr3Au,0.0,-0.0350304,
NbTc2Sn,0.0,-0.0350294,
OSeBaHg,0.5227,-0.0350289,
Cd8Tl,0.0,-0.0350289,
TcRu,0.0,-0.0350284,
NiPd2Lu,0.0,-0.035028,
Ga3Ge2Er3Re,0.0,-0.0350275,
Ca2ZnAu2,0.0,-0.0350267,
Pd2In2Ba,0.0,-0.035026600000000005,
VTe3Cs2,0.2903,-0.035025799999999996,
Pd4CdSm,0.0,-0.0350254,
Ga2Pt,0.0,-0.0350248,
LiAs2Pd2Th,0.0,-0.0350246,
Si3NbPu,0.0,-0.0350237,
CCdHo2,0.0,-0.0350235,
O5Se2Zr2Pu2,0.0,-0.035023200000000004,
CuRu2Sm2,0.0,-0.035023000000000006,
MnSe3HoPb,0.0,-0.035022599999999994,
H6OsPu2,0.0,-0.0350217,
B2GaIr2,0.0,-0.0350217,
SiY2Os,0.0,-0.0350193,
Ca2LaPb,0.0,-0.035018900000000006,
Mg2BaAc,0.0,-0.0350187,
Al2CoTb6,0.0,-0.035018,
Cd2InCe,0.0,-0.0350169,
Pd2In5Pr,0.0,-0.035016399999999996,
GaRhTm,0.0,-0.0350163,
CTeSm2,0.0,-0.0350152,
Ni2CuHf2,0.0,-0.03501509999999999,
NZr3Hg,0.0,-0.035015,
FeRh2Pr2,0.0,-0.035014699999999996,
TiCoInIr,0.0,-0.0350145,
CuRuSm2,0.0,-0.0350143,
Al2Ce2Hg,0.0,-0.035014,
GeRhHo,0.0,-0.035013800000000005,
CuRh2Sm2,0.0,-0.035012999999999996,
Sc2PdPb,0.0,-0.0350127,
CoIn5Gd,0.0,-0.0350122,
Zr3Sn4Sb2,0.0,-0.035012,
ZnSnEu,0.0,-0.0350117,
FeRu2Pr2,0.0,-0.0350115,
SiSb4Te7,0.134,-0.035011400000000005,
CuRh2Ce2,0.0,-0.035011,
Al3In2Ho3Pt,0.0,-0.0350109,
PSb4Te7,0.0,-0.0350105,
Pd4CdCe,0.0,-0.0350105,
Pd8Ho,0.0,-0.0350098,
BNTbIr,0.0,-0.035009500000000006,
V2MoW,0.0,-0.035009500000000006,
Al3Lu2Os,0.0,-0.035009,
Ag2Cd3Lu,0.0,-0.0350088,
Al3Sn2Dy3Re,0.0,-0.0350083,
MgSrPb,0.0,-0.035004600000000004,
NiRhPm2,0.0,-0.0350043,
YInTe2,0.0,-0.0350042,
P2KOs2,0.0,-0.035004,
RhCd2Pr,0.0,-0.035003900000000004,
Al3PrAu2,0.0,-0.0350032,
CoRu2Nd2,0.0,-0.0350032,
N2ScPa,0.0,-0.035003,
Cd2InBa2,0.0,-0.0350025,
O4NaI2Bi3,1.9232,-0.0350024,
ZrRuSb,0.0,-0.0350018,
SiILu,0.0,-0.0350013,
Mg5Tl4,0.0,-0.0350008,
FeTeBa3,0.0,-0.035000100000000006,
Zr2PdSb3,0.0,-0.035000100000000006,
Pd3Sn4,0.0,-0.0349998,
MgCdTm2,0.0,-0.0349996,
SrPdBa3,0.0,-0.034999499999999996,
P2KIr2,0.0,-0.0349994,
Zr2InSb3,0.0,-0.0349992,
TiAsTa,0.0,-0.0349987,
Ge3PrPt,0.0,-0.0349984,
GaPd2Ce2,0.0,-0.034998100000000004,
PIPr2,0.0,-0.0349979,
CaNd3,0.0,-0.034997799999999996,
Pd7Tb,0.0,-0.0349966,
BrDy,0.0,-0.0349965,
YPd2La,0.0,-0.034996400000000004,
Ni2Te3Hf,0.0,-0.0349958,
Rh3In2Ba,0.0,-0.034995399999999996,
GaPdPm2,0.0,-0.0349953,
Si2MnPa,0.0,-0.0349949,
RhInSn2,0.0,-0.034994500000000005,
YAg2Dy,0.0,-0.0349944,
ZnAgTb2,0.0,-0.034994,
CAsTb3,0.0,-0.0349936,
MgZrHg,0.0,-0.0349933,
CILu,0.0,-0.034992800000000004,
Ti2Pt,0.0,-0.0349923,
CuGaEu2,0.0,-0.0349916,
Al2TmAu,0.0,-0.0349916,
Ni2RuTb3,0.0,-0.0349916,
CdSb2,0.0,-0.0349915,
NbRu2Sn,0.0,-0.0349915,
BPd3Hg,0.0,-0.0349912,
NiRuPm2,0.0,-0.034990600000000004,
N2ErHf,0.0,-0.0349899,
MgIn2Er2,0.0,-0.0349892,
Al3LaAu2,0.0,-0.034988599999999995,
BNNiU,0.0,-0.0349885,
GeAgNd2,0.0,-0.034988,
GeHo,0.0,-0.0349877,
Co2Ge2Pa,0.0,-0.0349875,
ScGa2Hf2,0.0,-0.0349874,
TiTe3Cs2,0.1411,-0.0349865,
Ge3CeRe,0.0,-0.0349865,
N4Mo3Ta3,0.0,-0.034985999999999996,
GeCdEu,0.0,-0.0349841,
NiGe2Sn3Ho3,0.0,-0.0349841,
HAgPt,0.0,-0.0349831,
CdInBa,0.0,-0.034983,
K2I6Pt,0.1255,-0.0349819,
GaNd2,0.0,-0.0349817,
ClY2Os,0.0,-0.0349808,
ZnSnTe4Cs2,0.6971,-0.034979500000000004,
Cu2CdHo3,0.0,-0.0349794,
ZnRuLu,0.0,-0.0349791,
Co2Sn3Sm3,0.0,-0.034978,
AsBrCdHg,1.0741,-0.034977600000000005,
P2LaIr,0.0,-0.0349773,
O3Pb2,0.2824,-0.034976799999999995,
Tc7Ru,0.0,-0.0349766,
RhPdTe,0.0,-0.034975900000000004,
CrGeTa,0.0,-0.034975900000000004,
ZrTe,0.0,-0.034975400000000004,
Tc8Ru,0.0,-0.034975,
Al3Lu2Pt,0.0,-0.034974899999999996,
Co2As2Th,0.0,-0.0349746,
Ga2RhIr,0.0,-0.0349737,
PdIn6La,0.0,-0.0349731,
O7Ba3Pu2,0.0,-0.0349731,
PILa2,0.0,-0.0349729,
FeRu2La2,0.0,-0.0349729,
Si2CeIr,0.0,-0.0349728,
MgRh2Ho2,0.0,-0.0349725,
TcRu2,0.0,-0.0349724,
Se2SrTl,0.0,-0.0349721,
Sc2InPb,0.0,-0.034972,
Rb2Cd2Tl,0.0,-0.0349711,
Li2YAu2,0.0,-0.034970799999999996,
Co2IEr2,0.0,-0.0349707,
OPPrOs,0.0,-0.0349706,
AsTeLa,0.1033,-0.034969900000000005,
NaSc2Au2,0.0,-0.034969299999999995,
P2Te4Pb,0.1844,-0.0349686,
Si2FePa,0.0,-0.0349678,
HRh3Pt,0.0,-0.0349675,
Sc6IrPb2,0.0,-0.0349675,
HRh3W,0.0,-0.0349673,
ZnY2Hg,0.0,-0.034967,
K2I6Ir,0.0,-0.034966500000000005,
Co3Pr2Os,0.0,-0.0349664,
Al2NiTb6,0.0,-0.0349663,
MnGeTa,0.0,-0.0349662,
KTiTe3Au,0.0,-0.034966000000000004,
GeSeHf,0.0,-0.0349655,
Al3BaPt2,0.0,-0.0349655,
FeGa2Nd6,0.0,-0.0349649,
Al3Sn2Tb3Ir,0.0,-0.0349645,
Si2PdIn3Tm3,0.0,-0.0349645,
BCCuNp,0.0,-0.0349644,
GeCdTe4Cs2,0.5715,-0.0349642,
ZrRu2Sb,0.0,-0.0349634,
BrSr2Pt,0.0,-0.0349631,
Se2AgHg,0.0,-0.0349625,
MoTc8,0.0,-0.0349621,
LiInHg,0.0,-0.0349619,
NaIn4Pt,0.0,-0.0349612,
AlPd2Hf,0.0,-0.0349606,
CaRuLa3,0.0,-0.0349603,
Si2SmIr,0.0,-0.0349603,
LiRhCdTl,0.0,-0.034960200000000004,
Ti2RhPt,0.0,-0.034960099999999994,
CoSn2Ho,0.0,-0.034960099999999994,
ZnSnPm2,0.0,-0.034959899999999995,
GeSnDy,0.0,-0.034959899999999995,
MnCo2Tm3,0.0,-0.0349596,
MnGaAu,0.0,-0.0349593,
B2ErOs,0.0,-0.0349593,
Sc5Hg3,0.0,-0.034959000000000004,
Rh2AgSn4,0.0,-0.034959000000000004,
GaRh2Pr2,0.0,-0.0349587,
O3BaPa,0.0,-0.0349573,
AsTePr,0.0983,-0.0349572,
BrCdLa2,0.0,-0.0349569,
Fe2RhAu,0.0,-0.0349568,
Tc4Ru,0.0,-0.0349567,
K2RbHg2,0.0,-0.034956299999999996,
Se4EuDy2,0.0,-0.0349559,
GePd3Nd2,0.0,-0.034954700000000005,
ClSbCe2,0.0,-0.0349546,
SrAg2Eu,0.0,-0.0349546,
Ti3ZnOs2,0.0,-0.034953000000000005,
K2Se4Pt3,0.7079,-0.034953000000000005,
NaIn4Ir,0.0,-0.034952,
YSb2,0.0,-0.0349511,
ZnRh2Lu,0.0,-0.034951,
Ge2Zr2Pt,0.0,-0.034950800000000004,
Al3Sn2Dy3Au,0.0,-0.0349504,
Ga6AuPu,0.0,-0.0349497,
Ga2In2Pb,0.0,-0.0349495,
Cd2Sn2Ba,0.0,-0.0349492,
Ni3Ac,0.0,-0.034948900000000005,
Al3Si2Pa2,0.0,-0.0349484,
Al3In2Ho3Os,0.0,-0.0349483,
ScGa3Ir2,0.0,-0.034948,
Ni2Zr2Bi,0.0,-0.0349477,
MoTc5,0.0,-0.0349475,
Si2Er3,0.0,-0.0349475,
F2La2Hg,0.0,-0.0349474,
BNTbOs,0.0,-0.034946899999999996,
PY2Re,0.0,-0.0349462,
Ti3NiRe2,0.0,-0.034946,
TcRu3,0.0,-0.0349458,
MoTc7,0.0,-0.0349457,
Na4HgBi2,0.0269,-0.034945,
CuGe2In3Tm3,0.0,-0.034944899999999994,
Cu3Pd2Th,0.0,-0.0349448,
Ge3SmRe,0.0,-0.034944699999999995,
Pd3Ba,0.0,-0.0349442,
SiPd3Dy2,0.0,-0.034943800000000004,
CuIEr,0.0,-0.0349432,
Tc5Rh,0.0,-0.034942999999999995,
BGa2Ru2Th,0.0,-0.0349418,
NGaDy3,0.0,-0.034941400000000004,
Ga3Ge2Er3Au,0.0,-0.034941099999999996,
GeBaSm,0.0,-0.0349409,
Cr4TaW,0.0,-0.0349403,
BCCoU,0.0,-0.0349399,
GeCdPm2,0.0,-0.0349391,
P10IAu7,0.2957,-0.0349381,
Br3Bi,2.7423,-0.0349369,
Mg4RbBi3,0.3961,-0.0349366,
Br3CsTl,0.4652,-0.034936,
H6IrPu2,0.0,-0.034936,
NaCdInPt,0.0,-0.034936,
CuSe3TmPb,1.017,-0.0349358,
NaTe2Lu,1.0825,-0.034935600000000004,
NY3Pb,0.0,-0.034935600000000004,
Si3MoPt2,0.0,-0.034935499999999994,
Mg2SrAu2,0.0,-0.0349343,
CaZn2Hg2,0.0,-0.0349342,
CaI4Cs2,3.575,-0.034934,
NSrIr,0.0,-0.034933900000000004,
MgRu2Sm3,0.0,-0.034933700000000005,
Zr8Hg,0.0,-0.0349335,
MgRu2Ce3,0.0,-0.0349328,
GaRu2Pr2,0.0,-0.0349325,
ZnITm,0.0,-0.0349324,
N5Hf4,0.0,-0.034932000000000005,
Zn2LaHg,0.0,-0.034931699999999996,
ScGaIr,0.0,-0.0349315,
MnIDy,0.0,-0.0349315,
MoTc,0.0,-0.03493,
Mn2Zr2Pb,0.0,-0.03492990000000001,
MgYAu,0.0,-0.0349298,
PdCd2Nd,0.0,-0.0349294,
N3RuPu,0.0,-0.034929299999999996,
SrCd2Lu,0.0,-0.034928600000000004,
YRhSb2,0.0,-0.0349285,
FeTm,0.0,-0.034928100000000004,
CoPdPm2,0.0,-0.034928,
Ag5Tm,0.0,-0.034927599999999996,
TcCdSb2,0.0,-0.0349272,
Sc6OsPb2,0.0,-0.0349271,
GaAgLu,0.0,-0.034926900000000004,
ZnBaLa2,0.0,-0.0349263,
SiI2Ba3,0.0,-0.0349261,
Zn2AsAc,0.0,-0.034926,
Rh3Sb,0.0,-0.034925899999999996,
H6RePu2,0.0,-0.0349248,
CoBr4Tl2,0.0,-0.0349239,
GeNbEr,0.0,-0.0349234,
GaRh2Tm,0.0,-0.0349232,
Al2HoIr,0.0,-0.0349229,
LiIn2Au,0.0,-0.034922800000000004,
LiRu2Ta,0.0,-0.034922600000000005,
CaScBi,0.0,-0.0349212,
Al2I8Au,0.0,-0.034921,
CTb2,0.0,-0.0349208,
Si2DyAu,0.0,-0.034919,
CoSn3Dy,0.0,-0.0349189,
CaI4Nd,0.0,-0.0349179,
FeIDy,0.0,-0.0349179,
Li2CaBi2,0.0,-0.0349178,
Ti2Tl,0.0,-0.0349174,
As2RhTb2,0.0,-0.0349164,
Co2In5Sm4,0.0,-0.034914900000000006,
OPZnU,0.0,-0.034914,
NiIHo,0.0,-0.034914,
Ga2HoLu,0.0,-0.034914,
Na2RbTl2,0.0,-0.0349139,
ScY2Hg,0.0,-0.0349138,
Ag2In2La,0.0,-0.034913400000000004,
KAg4Pb,0.0,-0.034913,
Mn4TaW,0.0,-0.034912399999999996,
S3InTl2,0.0,-0.0349123,
LiCd2Pb,0.0,-0.0349123,
CdInTe2,0.0,-0.0349122,
Co3La2Os,0.0,-0.0349122,
Ga2RuPt,0.0,-0.034912,
Si2CoPa,0.0,-0.0349118,
Mo5Tc3,0.0,-0.034910899999999995,
ZrTc2Sb,0.0,-0.0349104,
Mo3Tc,0.0,-0.0349103,
B2MnW2,0.0,-0.0349099,
Mo2Tc,0.0,-0.0349096,
Se3Cs2Ta,0.0,-0.0349094,
NZnHo3,0.0,-0.034908999999999996,
S2Se4W3,0.9418,-0.0349089,
SeSnCe,0.0,-0.0349082,
NGeTb3,0.0,-0.0349081,
AsPdDy,0.0533,-0.034905900000000004,
MgZr2Tl,0.0,-0.0349056,
MgRh2Sm3,0.0,-0.034905099999999994,
Si2SmOs,0.0,-0.0349048,
Ca2IBi,0.853,-0.0349047,
Si2CeOs,0.0,-0.0349047,
SiI6Cs2,0.0271,-0.0349047,
Sc6PtPb2,0.0,-0.0349039,
GeMoHo,0.0,-0.0349036,
TcRu5,0.0,-0.0349021,
GaRh2La2,0.0,-0.034902,
Mo4Tc3,0.0,-0.0349015,
NaZn2Pt2,0.0,-0.0349015,
Al3Sn2Tb3Os,0.0,-0.034900799999999996,
Se3SrDyAu,1.0162,-0.0349005,
GaSe8Ta4,0.0,-0.0349003,
RbTeCs3,0.0,-0.0348998,
MoTc3,0.0,-0.0348992,
P3Np,0.0,-0.0348969,
PdInSb,0.0,-0.0348963,
MoRu3,0.0,-0.0348956,
MnTm,0.0,-0.0348953,
Ag2Te3,0.0,-0.0348951,
MgRu2Ho2,0.0,-0.0348947,
Tc7Rh,0.0,-0.0348942,
SrCdLa2,0.0,-0.034894,
BeZr2Ir,0.0,-0.034893799999999996,
BrSb2Cs2,0.0,-0.0348936,
Si2Ga3Lu3Ir,0.0,-0.0348935,
NbRuSn,0.0,-0.034893099999999996,
TiSbHo,0.0,-0.0348927,
CoGa2Nd6,0.0,-0.0348913,
PdAgTe2,0.0,-0.0348909,
Ag4Dy,0.0,-0.0348906,
CaRhLa3,0.0,-0.0348902,
NiSnEr,0.0,-0.0348894,
As2AgHg,0.0,-0.0348889,
Se3InBi,0.6277,-0.0348881,
Si2CuU,0.0,-0.0348871,
BCNiNp,0.0,-0.0348871,
Al3Sn2Tb3Pt,0.0,-0.034886600000000004,
ScGaPt,0.0,-0.0348852,
Co4CdPu,0.0,-0.0348849,
Mo,0.0,-0.0348849,
Cd2Sb2Cs,0.0,-0.034884,
SeNb3I7,0.439,-0.0348836,
As2Se6Tl2Pb,0.0,-0.0348835,
SeSnSm,0.0,-0.0348835,
AgSn4,0.0,-0.0348832,
CaI4Pr,0.0,-0.0348831,
Ti2PdOs,0.0,-0.034883000000000004,
B2CrW2,0.0,-0.0348829,
GaRu2La2,0.0,-0.034882199999999995,
LiLa4,0.0,-0.034881300000000004,
Cr2NbW,0.0,-0.0348806,
Al2HoPt,0.0,-0.034880499999999995,
Mg2In3Lu3,0.0,-0.0348804,
MnSb2Nd,0.0,-0.0348802,
YCd2Ho,0.0,-0.034879600000000004,
NaS2Pu,0.0,-0.0348795,
O4TeCeBi2,0.0,-0.0348793,
CoGeTa,1.2197,-0.034878900000000004,
In2Te,0.0,-0.034878900000000004,
PPd5Ta,0.0,-0.034878,
CrSe2Bi,0.0,-0.034877899999999996,
Ga3Rh2Tm3,0.0,-0.0348777,
Pd4CdNd,0.0,-0.0348776,
Fe2RhW,0.0,-0.0348776,
SrInI4,0.0,-0.034877200000000004,
AgInI2,0.3533,-0.0348771,
ZnLu,0.0,-0.0348761,
Se3Tm2,0.9717,-0.0348759,
ScGaRuIr,0.0,-0.0348756,
KAg2Hg,0.0,-0.03487489999999999,
KCdTe3Tm,1.3276,-0.0348744,
O4ISmBi2,1.3037,-0.0348743,
Ga4Nb2Pu,0.0,-0.034874,
MgZr2Os,0.0,-0.0348722,
KAgTe3Tm,0.0,-0.0348717,
B4TaPu,0.0,-0.0348706,
CuSe3LuTl,0.0,-0.0348706,
CaAgTe3Ho,0.5973,-0.034869500000000005,
ZnRu2Ce2,0.0,-0.034868699999999996,
Pd8Dy,0.0,-0.0348685,
NaIn2Hg,0.0,-0.0348682,
LiRuEr2,0.0,-0.0348646,
CoRu2Pr2,0.0,-0.034864400000000004,
CaSrPt,0.0,-0.0348636,
AgIn2Ba,0.0,-0.0348632,
NaSbI6Cs2,1.8522,-0.0348632,
NaCdInIr,0.0,-0.0348623,
PdCd2Pr,0.0,-0.0348621,
ZnGeIr,0.0,-0.0348621,
Tc3Rh,0.0,-0.0348621,
Ga3Ge2Ho3Ir,0.0,-0.0348611,
B5Tb2Re3,0.0,-0.03486,
Ge2Zr2Re,0.0,-0.034859900000000006,
YRh2Sb2,0.0,-0.0348592,
PCsEu,0.0,-0.034859,
MoTcRu2,0.0,-0.0348585,
Cd3Tb,0.0,-0.0348567,
TiGaPdIr,0.0,-0.0348565,
CSeTm2,0.0,-0.034856000000000005,
KScTe3Au,0.0,-0.0348553,
CuRb5Bi2,0.2151,-0.0348551,
AlNd3,0.0,-0.034853999999999996,
Sc2Pd2Pb,0.0,-0.034853499999999996,
Ag3Sm,0.0,-0.0348531,
Sr3Pt,0.0,-0.0348521,
MgAg2Pt,0.0,-0.034851799999999995,
Y2Te2I,0.0,-0.0348511,
AlCo2Th,0.0,-0.03485,
MoRu5,0.0,-0.0348497,
PdSn,0.0,-0.0348488,
MgIn5Ir,0.0,-0.0348481,
B4ZrIr3,0.0,-0.0348473,
B2VW2,0.0,-0.0348472,
Mn2InTm2,0.0,-0.0348472,
GeAgPr2,0.0,-0.034846800000000004,
CRu3Gd,0.0,-0.034846600000000005,
O4ICeBi2,0.0,-0.0348461,
MnRh2Er,0.0,-0.034845999999999995,
LiNi2Sb2Th,0.0,-0.0348457,
GePd3Pr2,0.0,-0.0348456,
S4ClTlBi2,0.9368,-0.034845,
KCd2Au,0.0,-0.034844900000000005,
NiRu2Nd2,0.0,-0.0348433,
ZnAg2Nd3,0.0,-0.034843000000000006,
AsRhTb,0.0,-0.0348429,
PdIn4Ba,0.0,-0.0348425,
OF2Pb2,2.7866,-0.0348423,
PBaLa2,0.0,-0.0348421,
MgCo2Pa,0.0,-0.0348418,
Tc2RuRh,0.0,-0.0348418,
K3Ag3Bi2,0.9485,-0.0348414,
BeZr2Os,0.0,-0.0348411,
LiCdPt,0.0,-0.0348402,
MoRu2,0.0,-0.034838799999999996,
RuInSn,0.0,-0.0348382,
LiO4I2Bi3,1.8394,-0.0348379,
MnSe3ErTl,0.0685,-0.034836799999999994,
CoTm,0.0,-0.034836799999999994,
BZr3Tl,0.0,-0.0348367,
AgCdInTe3,0.0055,-0.0348365,
Co4WRe,0.0,-0.0348364,
RbICs3,0.0,-0.034835500000000005,
LiPdCdTl,0.0,-0.0348348,
Fe2InTm2,0.0,-0.0348341,
Ga4HoHf2,0.0,-0.0348341,
Si2Ga3Lu3Os,0.0,-0.034834000000000004,
CaPr3,0.0,-0.034834000000000004,
Mo3Ru,0.0,-0.0348339,
Si2SmPt,0.0,-0.0348336,
Si2CePt,0.0,-0.0348335,
NiSn3Dy,0.0,-0.0348325,
ScSbEr,0.0,-0.0348323,
KTe2Er,1.1231,-0.0348322,
VGeTa,0.0,-0.0348319,
Al2ZnPt2,0.0,-0.0348318,
YRhSn5,0.0,-0.0348315,
Nb2Te,0.0,-0.0348309,
CuPd2Lu,0.0,-0.0348305,
GeRh2Ho,0.0,-0.0348304,
Pd2In3Ba,0.0,-0.034829099999999995,
CaSn2Lu,0.0,-0.034827399999999994,
LiRhEr2,0.0,-0.034827199999999996,
FeGeTa,0.0,-0.0348271,
Pd4CdPr,0.0,-0.0348271,
MnSe3DyPb,0.0,-0.0348267,
S3TeW2,0.0849,-0.0348267,
Ru,0.0,-0.034826,
As3Pr4,0.0,-0.0348242,
S4VTl3,1.8344,-0.0348232,
O2DyAu,2.6062,-0.0348226,
MnSb2Pr,0.0,-0.0348221,
MgIn5Pt,0.0,-0.0348218,
NOY6Pb2,0.0,-0.0348196,
CGaLu2,0.0,-0.0348192,
LiP2BaPt2,0.0,-0.034818600000000005,
ScPd2Lu,0.0,-0.034818100000000005,
MnSb2La,0.0,-0.0348175,
CuPdSm2,0.0,-0.0348174,
Ti2PdIr,0.0,-0.034817,
AsZrEr,0.0,-0.0348167,
Co2RhIr,0.0,-0.0348166,
Ti2SnAu,0.0,-0.034816400000000004,
Zn2BaPt,0.0,-0.0348163,
ZnSe3LuTl,1.8633,-0.034816099999999996,
CuSb2Tb,0.0,-0.034816,
OCuTeBi,0.0,-0.034816,
Ag3Te2Cs,1.6425,-0.034816,
Co4WPt,0.0,-0.0348155,
GeAgTm,0.0,-0.0348151,
CaTcLa3,0.0,-0.0348136,
B2FeW2,0.0,-0.034812600000000006,
GaTe2Sm,0.0,-0.034812199999999995,
NaAg2Tl,0.0,-0.0348121,
B2NiIr2,0.0,-0.0348121,
GaTm,0.0,-0.0348116,
FeSb2Ce,0.0,-0.0348116,
Mo8Ru,0.0,-0.0348114,
As4Te7Pb,0.2619,-0.0348114,
CuSrTe3Tm,0.4341,-0.0348107,
Co2NbPt,0.0,-0.03481,
Br7TeTa3,0.654,-0.0348096,
FeCuIr,0.0,-0.0348093,
MgRh2Hf,0.0,-0.0348091,
CoNiIr,0.0,-0.0348088,
Ga3RuSn2Er3,0.0,-0.0348088,
Pd4CdLa,0.0,-0.034808700000000005,
Mo2Ru3,0.0,-0.0348082,
SiPdGd,0.0,-0.034807899999999996,
MgSn2Tb2,0.0,-0.0348076,
O2SmTl,1.7562,-0.0348071,
N2DyTa,0.0,-0.0348071,
OZnHo3,0.0,-0.034807000000000005,
Zr5Lu,0.0,-0.0348065,
S2Cs3Pt,0.0,-0.034806,
P2Cs4Hg,0.8132,-0.0348058,
ZnRh2Sm2,0.0,-0.0348054,
AlRh2Tb2,0.0,-0.034805300000000004,
BrRuTb,0.0,-0.034805,
Ga3Ge2Ho3Os,0.0,-0.034804499999999995,
BPd6Er2,0.0,-0.0348044,
O5Te2Gd2Hf2,0.6327,-0.034804299999999996,
Zr2SbTe,0.0,-0.034804,
CISm2,0.0,-0.034803100000000003,
GaPr2,0.0,-0.034802799999999995,
GePd3La2,0.0,-0.0348027,
Ga6IrNp,0.0,-0.0348024,
CSiEr3,0.0,-0.0348022,
Ni2TcOs,0.0,-0.0348018,
ZnGa3Pu,0.0,-0.0348017,
Si2Ga3Lu3Pt,0.0,-0.0348016,
SrIn2Te4,0.5979,-0.034801200000000004,
ScNi2Hf2,0.0,-0.0348008,
BRh6Dy2,0.0,-0.0348008,
MnNiAu,0.0,-0.0348001,
Ni2PdTb3,0.0,-0.0347994,
Cu2Sn4Au,0.0,-0.034799300000000005,
H2NbTa2,0.0,-0.034798699999999995,
CuZn2Th,0.0,-0.034798699999999995,
Fe4TaAu,0.0,-0.0347977,
GeSe4CdTl2,0.4863,-0.034796999999999995,
Ge3NdRe,0.0,-0.0347965,
PY2Hg,0.0,-0.0347963,
Na2EuPb,0.0,-0.034795,
MoRu,0.0,-0.0347943,
LiIn4Ir,0.0,-0.034794,
MgRu2Hf,0.0,-0.0347936,
Zn2Sb2Tl,0.0,-0.0347925,
PRuLu,0.0,-0.0347922,
Ge2RuIn3Sm3,0.0,-0.0347919,
BrICs2,4.1168,-0.034791800000000005,
Ge2RhIn3Sm3,0.0,-0.034791600000000006,
RhCdBa,0.0,-0.0347909,
PBr3Eu3,0.0,-0.0347909,
CoNiRe,0.0,-0.0347908,
NSrPt,0.0,-0.0347898,
ZnRh2Ce2,0.0,-0.0347896,
SiPd2Tb2,0.0,-0.0347892,
HRh3Ta,0.0,-0.0347888,
NiSn2Ho,0.0,-0.0347887,
Mo3Ru5,0.0,-0.0347886,
MgZr2Pt,0.0,-0.034788400000000004,
LiI3Eu,0.26,-0.0347881,
PdCdBa,0.0,-0.0347881,
CoNd2,0.0,-0.0347881,
HSiFeNp,0.0,-0.034788,
NiRh2Nd2,0.0,-0.034787900000000004,
Y5Hg,0.0,-0.034787799999999994,
Al2AgHf2,0.0,-0.0347872,
Fe4TaW,0.0,-0.0347872,
In3Cs,0.0774,-0.0347871,
Ti2Re,0.0,-0.034787,
Cu2GaHf2,0.0,-0.0347866,
GaIDy,0.0,-0.0347864,
ZrSb,0.0,-0.034786000000000004,
ZrRh2Sb,0.0,-0.034785699999999996,
OSr2LaTl,0.0,-0.0347854,
NaCu2Au2,0.0,-0.0347853,
LiRh2Ta,0.0,-0.0347852,
FeCuPt,0.0,-0.0347844,
CoSb2Ce,0.0,-0.0347837,
Ni2MoOs,0.0,-0.0347836,
CoSbDy,0.0,-0.0347834,
H2Th,0.0,-0.034783,
Li2AgHg2,0.0,-0.0347819,
LiCdSnAu,0.0,-0.034781599999999996,
FeGa2Pr6,0.0,-0.0347815,
Mg2GeIr2,0.0,-0.034780500000000006,
NiAsTa,0.0,-0.0347803,
Mg2SbAc,0.0,-0.0347798,
RuIn3Cs,0.0,-0.0347797,
BGa2SrOs2,0.0,-0.0347793,
AlZr2Hg,0.0,-0.0347793,
LiIn4Pt,0.0,-0.0347788,
SiBr2Gd2,0.0,-0.0347788,
Ga3RhSn2Er3,0.0,-0.0347783,
Al4IrU,0.0,-0.0347777,
Ti2MoRe,0.0,-0.0347774,
FeSb2Sm,0.0,-0.0347774,
GaAg2Gd,0.0,-0.0347772,
BAl2BaOs2,0.0,-0.0347757,
As2Y2Tl,0.0,-0.0347756,
Tc2Rh,0.0,-0.0347753,
PMn2Ac,0.0,-0.0347748,
Ga3Ge2Ho3Pt,0.0,-0.034774700000000006,
ZnGePt,0.0,-0.034774299999999994,
Rh2PdSn2,0.0,-0.0347734,
Ni2MoIr,0.0,-0.0347733,
FeRuEr,0.0,-0.034773000000000005,
AlRu2Tb2,0.0,-0.034772599999999994,
Co2In3Tb3,0.0,-0.034772199999999996,
NiBr4Tl2,0.2327,-0.034772,
Li2NiPb2,0.0,-0.0347718,
Mn2RuTa,0.0,-0.0347717,
MnGe2In3Er3,0.0,-0.0347714,
Br2TeCe2,0.0,-0.0347709,
O4LuNp,0.0,-0.034770699999999995,
O4ClBi3,0.642,-0.0347699,