formula,bg,formation_energy,mp-id
Fe2CoPu,0.0,-0.0407977,
I2Ce,0.0,-0.0407976,
MgY2Au2,0.0,-0.0407962,
ZnHg,0.0,-0.0407944,
In5TbAu,0.0,-0.0407939,
NaIn2Ac,0.0,-0.0407935,
Ge2RbTl2,0.0,-0.040791600000000004,
NiRu2Tm3,0.0,-0.0407913,
SiDyHf,0.0,-0.0407913,
Ni2Er2Hg,0.0,-0.040790999999999994,
Te2CsCe,0.0,-0.040790599999999996,
MgBaPb,0.0,-0.04079,
Ag2Gd,0.0,-0.040789700000000005,
As2ErAu,0.0,-0.0407895,
Al3ZnGe2Th3,0.0,-0.0407894,
Ge3RuPu,0.0,-0.0407893,
BrYPt,0.8677,-0.040789,
Zn2SmAc,0.0,-0.0407888,
CaLaHg,0.0,-0.0407888,
Al2CoLu6,0.0,-0.0407883,
Fe2In3Hf3,0.0,-0.0407881,
Se2SmTl,0.86,-0.0407873,
O2AuBi,0.8179,-0.040787199999999996,
Rh2SnDy2,0.0,-0.040786,
FeSe2Er6,0.0,-0.0407859,
Mg2BaPb2,0.0,-0.0407854,
Be2Hf2Hg,0.0,-0.0407853,
Ge2In3Er3Pt,0.0,-0.0407844,
Si2RhNp,0.0,-0.040783299999999995,
LiScTl2,0.0,-0.040783099999999996,
Ge2Tb2Hg,0.0,-0.0407828,
Ge2In3Er3Os,0.0,-0.0407823,
Al3ZnU2,0.0,-0.0407819,
K6Hg7,0.0,-0.0407818,
LiAs2LuPt2,0.0,-0.040781599999999994,
CdPm3,0.0,-0.0407808,
O2Ho2Bi,0.0,-0.0407806,
Te2CsSm,1.1255,-0.0407796,
Te2Nd,0.0,-0.0407791,
In5SmOs,0.0,-0.0407782,
Co2LuTl,0.0,-0.040778100000000005,
Se2CeTl,0.0,-0.040777299999999995,
Rh2PrHo,0.0,-0.0407767,
PdTb,0.0,-0.040776200000000005,
I3Tb,2.7081,-0.0407757,
ZrSbTm,0.0,-0.0407738,
AlCoTh,0.0,-0.0407738,
RhSbDy,0.0,-0.0407734,
Rh2In2Hg,0.0,-0.0407733,
Pd3Er2,0.0,-0.040773000000000004,
AlIn5Pu,0.0,-0.0407726,
Te2La,0.0,-0.040772199999999995,
Al2Gd2Hg,0.0,-0.040771299999999996,
Cd2I2Hg,0.0,-0.0407709,
Y2InOs,0.0,-0.0407709,
AsBr3Hg3,0.2377,-0.0407708,
Zn3GdPt2,0.0,-0.0407695,
MgCuPt2,0.0,-0.0407688,
LiPm2Os,0.0,-0.040768700000000005,
Zr6RuTl2,0.0,-0.0407667,
B2N3Fe2Np3,0.0,-0.0407655,
NClBa6Tl2,0.0,-0.040765,
OPCdPu,0.0,-0.040764800000000004,
O4BrBi2Pu,0.0,-0.0407635,
Se4Te2W3,0.7796,-0.040762900000000005,
NiRh2Tm3,0.0,-0.0407627,
AlMnHfIr,0.0,-0.0407624,
FeAs2Er6,0.0,-0.040762,
Sc3Ga2Pt4,0.0,-0.0407616,
AsNdLu,0.0,-0.040761000000000006,
NOIn2Tm6,0.0,-0.0407609,
Ag2SmGd,0.0,-0.0407608,
CLu2,0.0,-0.0407603,
PBaAu,0.0,-0.040760199999999996,
SrSn3Pt,0.0,-0.0407598,
Ge2Sn3Dy3Os,0.0,-0.040759500000000004,
Ni2Rh3Pu,0.0,-0.040759000000000004,
Sn6BaAu,0.0,-0.0407575,
Pd4Ho3,0.0,-0.040756999999999995,
Al3RhEr3Pb2,0.0,-0.0407565,
CGe2Sm2Ir2,0.0,-0.0407564,
I2Sm,0.0,-0.0407558,
Rh2Sn3Dy3,0.0,-0.0407546,
Sn2CeNd,0.0,-0.040754,
TcBaLa3,0.0,-0.0407539,
Ge2ErIr,0.0,-0.0407523,
N2YPu,0.0,-0.040751199999999994,
MgLaTl,0.0,-0.0407504,
In5NdIr,0.0,-0.0407494,
Co2SbAc,0.0,-0.0407488,
B4TbIr4,0.0,-0.040745399999999994,
NPdTm3,0.0,-0.040745199999999995,
NaAg2Hg2,0.0,-0.040745199999999995,
Tc5W,0.0,-0.0407448,
I3Nd2,0.1684,-0.0407445,
SrRh2Tl,0.0,-0.040744,
BrInHg,0.0,-0.0407436,
NaCu2ErBi2,0.0,-0.0407434,
AgTe2Eu,0.0,-0.0407427,
BCU,0.0,-0.040742400000000005,
CCo2La2Pb2,0.0,-0.0407417,
RhCd2Hg,0.0,-0.0407415,
AsPd5Th,0.0,-0.040739899999999996,
S2CsPa,0.0,-0.0407397,
SbTe7La4,0.0,-0.0407395,
Fe2GaPu,0.0,-0.040738500000000004,
As3Eu2Pt,0.0,-0.0407355,
Ru2SnLu,0.0,-0.0407336,
Pd2In5Tm4,0.0,-0.0407336,
NiRuIr,0.0,-0.0407332,
Zn2CeAc,0.0,-0.040732399999999995,
AsRhTa,0.0,-0.0407323,
Ru5Pt,0.0,-0.0407321,
Zr2MoTa,0.0,-0.0407316,
BNPdPu,0.0,-0.0407316,
YIn7Pt2,0.0,-0.0407316,
AlCoHfIr,0.0,-0.0407316,
In3Sn2Ba3Pt,0.0,-0.0407301,
RbI3Au,0.0,-0.0407297,
CaScHg2,0.0,-0.0407295,
Pd8Pa,0.0,-0.0407284,
Al2NiLu6,0.0,-0.0407269,
Y2PdOs,0.0,-0.0407255,
K2AuPb,0.0,-0.0407238,
NBa2Tl,0.0,-0.040723100000000005,
RuPr2,0.0,-0.0407226,
GeSb2Au,0.0,-0.0407222,
AsTe2Hg,0.0,-0.0407221,
Y2RuAu,0.0,-0.0407217,
KTe3HoAu,0.0,-0.0407213,
Ag2TbTm,0.0,-0.040721200000000006,
PdSnEr,0.0,-0.04072099999999999,
Cd5Ac,0.0,-0.0407199,
SrIn2Tl,0.0,-0.0407198,
Cd2EuTb,0.0,-0.0407185,
CdLa4,0.0,-0.0407181,
Ca2BaPt2,0.0,-0.0407176,
GeI3Tl,0.6166,-0.040717300000000005,
Ag2CdAu,0.0,-0.0407162,
In4Te3Bi,0.0,-0.0407161,
LiY2Ir2,0.0,-0.0407159,
Te2I6Pt,1.0641,-0.0407155,
SeSb2Hg,0.0,-0.0407155,
P2PdNp,0.0,-0.040715400000000006,
CI5Er4,0.0,-0.0407149,
CuRuLu2,0.0,-0.0407145,
Zr6RhTl2,0.0,-0.040714,
CGe2Tb2W2,0.0,-0.040713700000000005,
In5PrIr,0.0,-0.04071350000000001,
Te2Pr,0.0,-0.040713099999999995,
Ru2InHo2,0.0,-0.0407125,
Nb2Rh2Hg,0.0,-0.0407125,
PBa2Au,0.5213,-0.0407109,
ZnY3Ir2,0.0,-0.0407094,
Rh2PmDy,0.0,-0.0407093,
SeI3Tl,0.0,-0.040707,
LiPr2Tl,0.0,-0.0407069,
Y2Ru2Pb,0.0,-0.0407066,
BCRhPu,0.0,-0.0407065,
Te3Cs2Ho,0.0,-0.040706000000000006,
CoAs2Er6,0.0,-0.0407048,
AlCuAu2,0.0,-0.040704300000000006,
FeHf,0.0,-0.040704000000000004,
NiRuRe,0.0,-0.0407036,
S2HfPb,0.0,-0.0407032,
TiTcW,0.0,-0.040702800000000004,
NiCdPb,0.0,-0.040702300000000004,
LiTiPt2,0.0,-0.0407013,
InTb,0.0,-0.0407012,
In4Au,0.0,-0.0407011,
CaCd3Pt2,0.0,-0.0407011,
CdSn2Ho2,0.0,-0.040701,
Y2SnHg,0.0,-0.0407007,
Rh2InHo2,0.0,-0.0407,
Pd2Cd2Pb,0.0,-0.0406995,
NiMoPt,0.0,-0.0406992,
Zn2In5Hf4,0.0,-0.0406982,
CoRhRe,0.0,-0.040698099999999994,
SPdBi,0.0,-0.040697899999999995,
AsAgPt,0.0,-0.0406976,
Ga2LuIr,0.0,-0.0406974,
ZnY3Pt2,0.0,-0.040696800000000005,
GeInAu,0.0,-0.0406958,
In5NdPt,0.0,-0.040694600000000004,
AlSmHg,0.0,-0.0406942,
In5LaIr,0.0,-0.040693,
Y2RhAu,0.0,-0.040692900000000004,
Co2In3Hf3,0.0,-0.040691000000000005,
Pd2CdDy3,0.0,-0.0406894,
NaSr2Pb2,0.0,-0.0406888,
Mo5W,0.0,-0.0406886,
Sn2CePr,0.0,-0.0406884,
CY2Sn2Os2,0.0,-0.0406879,
O4ThPa,0.0,-0.0406877,
InNd2,0.0,-0.0406865,
C5Co3Th4,0.0,-0.0406861,
CaCd2Ac,0.0,-0.0406858,
NiSe2Er6,0.0,-0.0406853,
NaRbPdTl2,0.0,-0.040685200000000005,
Ca2PtAu,0.0,-0.040685200000000005,
LiNd2Ir,0.0,-0.0406851,
Rh2Sn4Pt,0.0,-0.0406848,
YRu2Hf,0.0,-0.040684399999999996,
Zr2CdAu,0.0,-0.040684,
MnRh2Pb,0.0,-0.0406834,
Sc2YTl2,0.0,-0.040682699999999995,
RuIDy,0.0,-0.0406824,
CoRhIr,0.0,-0.040682,
Ru2AgTb3,0.0,-0.040680999999999995,
GaInIr,0.0,-0.0406806,
MnFeHf2,0.0,-0.040680100000000004,
In5Ba5Pb,0.0,-0.0406789,
SrI6Eu2,0.8538,-0.040678,
In2LaEr,0.0,-0.0406769,
Cd2Sb2Hg,0.0,-0.0406764,
SnNd,0.0,-0.0406762,
Rh5Pb,0.0,-0.0406757,
Al2SmAu2,0.0,-0.0406757,
CuRhLu2,0.0,-0.0406753,
In2SmHo,0.0,-0.0406748,
SbTeNd,0.0,-0.040674100000000005,
Ru5W,0.0,-0.040673,
Zn2SbAu2,0.0,-0.0406723,
CaCuHg2,0.0,-0.0406721,
Rh2InGd,0.0,-0.0406715,
MgNdPt,0.0,-0.0406712,
ScRh2Bi,0.0,-0.040670200000000004,
Ge2Sm2Tl,0.0,-0.040670000000000005,
Te3Tb,0.0,-0.0406693,
Rh2In3Er3,0.0,-0.0406678,
Rh2Tm,0.0,-0.0406661,
PTe3Dy4,0.0,-0.0406661,
BrSb2Hg,0.0,-0.0406655,
P2AuTl,0.0,-0.0406646,
PNiTa2,0.0,-0.0406642,
In5NdOs,0.0,-0.0406638,
RuLa2,0.0,-0.0406616,
MgLa2Au,0.0,-0.040660800000000004,
Ga2LuPt,0.0,-0.0406604,
RhIn3Hg,0.0,-0.0406602,
In5PrPt,0.0,-0.0406595,
Co2RuTa2,0.0,-0.0406593,
Cl2Tm2Pb,0.0,-0.040659100000000004,
Sc2YIr2,0.0,-0.040658,
Rh2SnLu,0.0,-0.040657200000000004,
MnTe2Au,0.0,-0.0406569,
Ge2ErOs,0.0,-0.040656599999999994,
InIHo,0.0,-0.0406565,
Ga3HoPt2,0.0,-0.040654800000000005,
MgDy5,0.0,-0.040654699999999995,
Ga2RuHo6,0.0,-0.0406544,
Mg2SnBi2,0.0,-0.0406543,
SnPm,0.0,-0.0406542,
CdIn2Tm2,0.0,-0.0406539,
TiInPt,0.0,-0.0406538,
MgCeOs,0.0,-0.040653,
Y2Rh2Pb,0.0,-0.0406525,
NbRu2Gd,0.0,-0.040652,
KCuAu2,0.0,-0.0406507,
Al2CeAu2,0.0,-0.0406493,
In5LaPt,0.0,-0.0406483,
Sn2LaSm,0.0,-0.0406482,
Ca2HgTl,0.0,-0.0406475,
CaSe4Pb3,0.4395,-0.0406475,
LiMoHf2,0.0,-0.0406475,
AlIr,0.0,-0.0406474,
Al7Au2Th3,0.0,-0.040647300000000004,
OPdTm3,0.0,-0.0406465,
RhPr2,0.0,-0.040646299999999996,
AlFeHfOs,0.0,-0.0406459,
CuTe2Tl,0.0,-0.0406436,
In2CeHo,0.0,-0.0406434,
Pd2In2Au,0.0,-0.040642000000000005,
MgRu2Lu3,0.0,-0.040642000000000005,
YCd2Tl,0.0,-0.0406419,
Ga5Ir2Th,0.0,-0.0406419,
GaSr2Au2,0.0,-0.0406406,
MnTe2Sm6,0.0,-0.0406401,
RuSb2Er,0.0,-0.0406401,
Ru2CeTb,0.0,-0.040639800000000004,
Cd3BaPt,0.0,-0.0406397,
SrIn2Pt,0.0,-0.040639600000000005,
Sn2LaCe,0.0,-0.0406389,
Al4Ta5,0.0,-0.0406387,
Se5CdHg4,0.0,-0.0406386,
Ga2RhHo6,0.0,-0.040637700000000006,
LiCd2Au2,0.0,-0.040637700000000006,
RhLa2,0.0,-0.0406375,
OClPa,0.0,-0.0406367,
Pd2Te3Hf,0.0,-0.0406359,
Zn2InPt2,0.0,-0.0406355,
Sn2NdPm,0.0,-0.0406344,
MnHf,0.0,-0.0406342,
Ti2CdAu2,0.0,-0.040633499999999996,
GeRh3Gd2,0.0,-0.0406324,
ZnGe2Pu,0.0,-0.040631,
Y2Sn2Tl,0.0,-0.0406309,
Ga3Nd2Ir2,0.0,-0.0406307,
NiAs2Er6,0.0,-0.0406305,
BeMnAu2,0.0,-0.040628199999999996,
Si3WPt2,0.0,-0.0406281,
S3Se3Bi4,0.9851,-0.0406271,
Ge2ErPt,0.0,-0.0406259,
Se2MoTe4W2,0.7269,-0.0406259,
SbTeLa,0.0,-0.0406253,
NiTcPt,0.0,-0.0406245,
OInTm3,0.0,-0.0406244,
PdInEu,0.0,-0.0406229,
Si2Ru2Pu,0.0,-0.0406228,
MnSb2Au,0.0,-0.0406222,
LiGaPt2,0.0,-0.040621899999999996,
LiSm2Au,0.0,-0.0406216,
SiNdTa,0.0,-0.040619999999999996,
ZnBa2Hg,0.0,-0.0406189,
AlFeHfPt,0.0,-0.0406163,
GaNbPt,0.0,-0.0406159,
MgNdIr,0.0,-0.0406159,
N2ZrNp,0.0,-0.0406158,
HBrTh,0.0,-0.0406158,
SnI2Nd2,0.0,-0.0406137,
CuI2Tl,0.5137,-0.0406128,
LiLa2Tl,0.0,-0.040612499999999996,
B2N3Co2Np3,0.0,-0.0406118,
Ga3DyIr2,0.0,-0.040611600000000005,
PdNd2,0.0,-0.040610999999999994,
KTe3HoHg,0.7616,-0.0406109,
MgZr3Os2,0.0,-0.0406106,
Ag2DyEr,0.0,-0.0406096,
PdSb2Tm,0.0,-0.0406084,
Cd3Pt,0.0,-0.0406083,
SrTe3Ta,0.0,-0.0406076,
Sb4Te7Pb,0.229,-0.0406074,
MgCd2Th,0.0,-0.0406074,
YZr2Os,0.0,-0.040607199999999996,
Si3PtPa,0.0,-0.0406071,
Ni2Tb3Hg,0.0,-0.0406061,
Cd3BaIr,0.0,-0.0406061,
AlY2Hg2,0.0,-0.0406059,
MnGa2Pu,0.0,-0.0406059,
LiPd2Sb2Th,0.0,-0.040604799999999996,
S2Th,0.7399,-0.0406042,
LiGaIr2,0.0,-0.040603700000000006,
LiNd2Pt,0.0,-0.040602400000000004,
In5LaOs,0.0,-0.040602200000000005,
RhIDy,0.0,-0.040601,
FeCoHf2,0.0,-0.0406005,
SbTePr,0.0,-0.0405999,
AgInDy2,0.0,-0.0405991,
CaBa2Tl,0.0,-0.0405988,
Ni2Dy2Tl,0.0,-0.0405984,
Ru2In3Er3,0.0,-0.0405982,
Cd2In2Pb,0.0,-0.040597900000000006,
P2Rh2Pu,0.0,-0.0405957,
Al2OsIr,0.0,-0.0405949,
RuSnLa3,0.0,-0.0405943,
Ga2YAu2,0.0,-0.0405927,
B2Mg2AsIr5,0.0,-0.040592300000000005,
Ge4Au3,0.0,-0.0405915,
AlAg2Ac,0.0,-0.0405899,
MgTbHg,0.0,-0.0405892,
RhSnHo,0.0,-0.0405891,
Co2RhTa2,0.0,-0.0405882,
SiBa2Ir,0.0,-0.0405882,
B4CeOs2Ir2,0.0,-0.0405876,
CuRu2Tm3,0.0,-0.0405876,
Zn3HfAu2,0.0,-0.0405874,
SiBa2Pt,0.0,-0.0405853,
Se3Sb2Te3Bi2,0.2745,-0.040584,
ZnSr2Pt2,0.0,-0.040583799999999996,
RbI3Hg,0.0,-0.0405836,
FeTe2Sm6,0.0,-0.0405836,
Si2KPt3,0.0,-0.0405824,
Cu2Ho2Tl,0.0,-0.040582299999999995,
Ge2RbIr2,0.0,-0.040582,
GaSnAu,0.0,-0.0405809,
NiAs2U,0.0,-0.0405807,
Al3GePa2,0.0,-0.0405807,
RhTeLa2,0.0,-0.0405802,
Se3Pt2,0.0,-0.04058,
CGe2Nd2Os2,0.0,-0.0405797,
Te2CsNd,1.1483,-0.040578899999999994,
Zn2NdAc,0.0,-0.040578699999999995,
N3WPa,0.0,-0.0405786,
Cd2InHg,0.0,-0.040577800000000004,
NBaIr,0.0,-0.0405766,
AsAgEu2,0.0,-0.0405765,
SrPd2Tl,0.0,-0.0405762,
CSi2Lu2W2,0.0,-0.0405756,
RbCs3Hg,0.0,-0.040575200000000006,
Al2CaPt3,0.0,-0.0405745,
AgI6Cs2Pt,0.0,-0.0405743,
Rh2SmTb,0.0,-0.0405726,
MgRh2Lu3,0.0,-0.0405719,
AlSiU,0.0,-0.0405719,
CuSbAu,0.0,-0.0405716,
AgHo,0.0,-0.0405715,
RuSnHo,0.0,-0.0405705,
Se2NdTl,0.8596,-0.04057,
Rh2NdDy,0.0,-0.0405698,
Al2RuPu,0.0,-0.0405697,
SiZnAu2,0.0,-0.040569600000000004,
Sn2PrPm,0.0,-0.040569499999999994,
MnCoHf2,0.0,-0.040569499999999994,
Fe2GeNp,0.0,-0.0405681,
PdSbDy,0.2412,-0.040567900000000004,
InTe2Er,0.0,-0.040567900000000004,
SrIn2Ir,0.0,-0.0405675,
Sb2Ce,0.0,-0.0405675,
Pd5Bi,0.0,-0.0405659,
MgPrPt,0.0,-0.0405653,
Rh3SnEr2,0.0,-0.040565199999999996,
SiMnTe4Tl2,0.0451,-0.0405645,
Y6RuBi2,0.0,-0.0405645,
OSTh,0.9111,-0.0405644,
MgZnPt2,0.0,-0.040564100000000006,
Cu2GdTl,0.0,-0.040564100000000006,
In2PmHo,0.0,-0.0405636,
CoTm2,0.0,-0.0405636,
NiSe2Tl2,0.0,-0.0405634,
CdSnTb2,0.0,-0.0405617,
Rh2CdEr2,0.0,-0.0405611,
Sc2YPt2,0.0,-0.0405598,
Si2AgPu,0.0,-0.0405587,
RhTeTb,0.3497,-0.040558300000000005,
CuRh2Tm3,0.0,-0.040558,
AlCaPt2,0.0,-0.0405576,
I4Er,0.0,-0.040557499999999996,
FeTe2W,0.0712,-0.0405574,
AlNiTh,0.0,-0.0405569,
GeRuTa,0.0,-0.0405567,
KTl,0.0,-0.0405561,
Se2DyAu,0.2658,-0.0405553,
Ni2SbAc,0.0,-0.0405547,
ClBa2Au,0.0,-0.0405545,
As2Ba2Bi,0.0,-0.0405545,
NaRbHg2,0.0,-0.040554400000000004,
NFBa6Tl2,0.0,-0.040554099999999996,
Ni4HgPu,0.0,-0.0405522,
Ag3Hg,0.0,-0.0405521,
SnPr,0.0,-0.0405507,
NBa3Tl,0.0,-0.0405501,
Sn2Dy,0.0,-0.0405497,
Te2CsLa,1.5535,-0.040549,
Ni2Sn2Th,0.0,-0.040547400000000004,
CTeLu2,0.0,-0.0405473,
NiRhOs,0.0,-0.040546399999999996,
YSbEu,0.0,-0.0405451,
Se3Th,1.1371,-0.0405448,
Cd2SnTm2,0.0,-0.0405439,
GaSnEu2,0.0,-0.0405427,
Sn2LaPm,0.0,-0.0405426,
ZnAs2Np,0.0,-0.0405424,
Cd2DyTm,0.0,-0.0405419,
Zr2InTa,0.0,-0.0405418,
Y6RhBi2,0.0,-0.0405417,
LiAsAu2,0.0,-0.0405413,
YLa5,0.0,-0.040540799999999995,
RhInTm,0.0,-0.04054,
Li2LaPb2,0.0,-0.0405398,
Ni5Ir4,0.0,-0.0405385,
MgPb,0.0,-0.0405384,
Al3Lu2Ir2,0.0,-0.0405382,
Se3CsPt2,1.0417,-0.0405364,
CoTe2Sm6,0.0,-0.0405361,
NiTe2Pt,0.0,-0.040535600000000005,
ZrAg2Hg,0.0,-0.0405351,
Ga3Pr2Ir2,0.0,-0.0405345,
GeI2Tm2,0.0,-0.0405344,
Zr2Pd2Tl,0.0,-0.040533299999999994,
ZrCd2Au,0.0,-0.0405323,
CrTe2Hg,0.0,-0.040532200000000004,
Ru2CdTb3,0.0,-0.0405315,
BeZnOs2,0.0,-0.040531199999999996,
CaAgBi,0.0,-0.040531199999999996,
Pd2Sn3Dy3,0.0,-0.040531199999999996,
In2BaEu,0.0,-0.0405307,
MnTe2Hg,0.0,-0.0405303,
MnGa2Tm6,0.0,-0.040529800000000005,
Zn2SrPb2,0.0,-0.040529800000000005,
Fe2Tb2Tl,0.0,-0.0405293,
Sb2Sm,0.0,-0.0405291,
Se6CsTh2,0.0,-0.0405288,
B4NdOs4,0.0,-0.0405288,
KTe3DyAu,0.0,-0.040527799999999996,
Se2LaTl,1.417,-0.0405274,
Ge2In3Er3Au,0.0,-0.040527299999999995,
AgInLu,0.0,-0.0405268,
OTi2BaBi2,0.0,-0.0405267,
Al3Os2Ir,0.0,-0.0405266,
GaSb2Sm6,0.0,-0.040526000000000006,
K2GaAu3,0.0,-0.0405259,
LiNd2Os,0.0,-0.040525399999999996,
GaCs2Au,0.0,-0.0405246,
Ga3Sn2Lu3Os,0.0,-0.040524,
Ru2SmTb,0.0,-0.0405232,
NaCu2HoBi2,0.0,-0.0405226,
RhCdLu,0.0,-0.0405224,
Te5Sm2,0.0,-0.0405218,
Te2CsPr,1.1714,-0.0405209,
SnI2Pr2,0.0,-0.040519,
AgCd2Au,0.0,-0.0405173,
MgLaPt,0.0,-0.0405172,
NiSnAu,0.0,-0.040516800000000006,
Rh2CeTb,0.0,-0.0405158,
NaPd2Ac,0.0,-0.040515,
Zn2PrAc,0.0,-0.040514800000000004,
CoSbTa,0.0,-0.0405136,
LiPr2Ir,0.0,-0.0405131,
Mo2Te6W,0.8274,-0.040512900000000004,
Al2NdAu2,0.0,-0.040512700000000006,
In5CeAu,0.0,-0.040512099999999995,
AgSb2Eu,0.0,-0.0405118,
SnI2La2,0.1241,-0.0405098,
FeTm2,0.0,-0.0405096,
AlSiPt2,0.0,-0.040509,
InPr2,0.0,-0.040508499999999996,
GaTm2,0.0,-0.040508499999999996,
Ga2GePb2,0.0,-0.040507,
CaBaPt,0.0,-0.0405067,
SiPrTa,0.0,-0.0405064,
MgTiAu2,0.0,-0.0405062,
RhSb2Er,0.0,-0.0405059,
I2Nd,0.0,-0.0405059,
NiYPb,0.0,-0.0405053,
GaInPt,0.0,-0.040505200000000005,
YI6Cs2Hg,0.0,-0.0405047,
CuSe2Er6,0.0,-0.0405047,
CGe2Nd2Ir2,0.0,-0.040504,
PI2Lu2,0.0,-0.0405034,
K2HgPb,0.0,-0.0405028,
MgPrIr,0.0,-0.0405026,
Se2PrTl,0.8758,-0.0405023,
ZnRu2Gd2,0.0,-0.0405011,
MgGeTh,0.0,-0.040499400000000005,
BrGd,0.0,-0.0404992,
YCd2Pt,0.0,-0.0404988,
NaY2Au2,0.0,-0.0404988,
AlPd2Hf2,0.0,-0.0404983,
C3Lu2W2,0.0,-0.0404981,
Ga5Pt2Th,0.0,-0.040498,
FeSb2Sm6,0.0,-0.040498,
CoRhPt,0.0,-0.0404978,
CGe2Sm2Re2,0.0,-0.0404978,
Rh2CdTb3,0.0,-0.0404972,
Ga3La2Ir2,0.0,-0.0404961,
RuInTm,0.0,-0.0404957,
As2SnTe6Tl2,0.0,-0.0404955,
FeGa2Tm6,0.0,-0.0404949,
Pd2In2Hg,0.0,-0.0404936,
CuTcLu2,0.0,-0.0404936,
Ni2In3Hf3,0.0,-0.0404925,
CuZnTa2,0.0,-0.0404923,
CGe2Pr2Os2,0.0,-0.0404914,
Zn2Er2Tl,0.0,-0.0404912,
S2TaTl,0.0,-0.040491,
In5SmAu,0.0,-0.0404903,
P2CsPt2,0.0,-0.0404898,
CoHf,0.0,-0.040488300000000005,
Si3NiTh2,0.0,-0.0404882,
Pd2SbLu,0.0,-0.0404878,
MgCd2Hg2,0.0,-0.040487699999999995,
O2PtPb,0.004,-0.0404868,
LiRh2Ac,0.196,-0.0404861,
Zr2Rh2Au,0.0,-0.040484400000000004,
Al2RhTm6,0.0,-0.0404835,
Ni3ErPt2,0.0,-0.0404821,
OTePb,0.0,-0.0404813,
LiAs2EuPt2,0.0,-0.040480800000000004,
Mo2Tm,0.0,-0.040480600000000005,
Ga2CdAu2,0.0,-0.0404804,
Si2WRe,0.0,-0.0404801,
H2Hf2Hg,0.0,-0.0404801,
Na2SnBi2,0.0,-0.0404796,
GeYIr,0.0,-0.0404793,
AgI6Cs2Au,0.4628,-0.040479,
SiSrTe4Au2,0.0,-0.040478099999999996,
Zn2LaAc,0.0,-0.0404776,
ScPdTl,0.0,-0.0404775,
NSnEr3,0.0,-0.040476599999999995,
FCs3Bi,0.0,-0.040476399999999996,
SiRh3Hf2,0.0,-0.0404756,
FeGa2Pu,0.0,-0.0404749,
CoGa2Tm6,0.0,-0.040474800000000005,
Ga3Sn2Lu3Pt,0.0,-0.0404743,
SrAg2Pb,0.0,-0.040473999999999996,
O4SeBi2Np,0.0,-0.0404734,
P2BaW2,0.0,-0.0404721,
CdNd3,0.0,-0.040469,
MgGaAu2,0.0,-0.0404688,
BeCuPt2,0.0,-0.0404684,
Cd2HoEr,0.0,-0.0404682,
RuSbTb,0.0,-0.0404681,
AlZnPa,0.0,-0.040468000000000004,
Ga2Ho2Hg,0.0,-0.040467199999999995,
MgLaIr,0.0,-0.0404665,
Rh2PrDy,0.0,-0.0404664,
CuSb2Tl,0.0,-0.0404661,
Ge3U,0.0,-0.040466,
Se3Pr4Pb,0.0,-0.040465600000000004,
As2HoAu,0.0,-0.0404645,
B2Mg2MnIr5,0.0,-0.0404642,
SnLa,0.0,-0.0404638,
SPt,0.5006,-0.0404625,
Ga3DyPt2,0.0,-0.0404617,
Al2PrAu2,0.0,-0.0404613,
KInBi,0.0,-0.0404609,
NaMgPb2,0.0,-0.04046,
Sc2AgAu2,0.0,-0.040459499999999995,
In2NdHo,0.0,-0.040459,
ZnAsHf2,0.0,-0.0404586,
Zr2AgHg,0.0,-0.0404585,
MgZnIr2,0.0,-0.0404583,
Tc2Er,0.0,-0.0404577,
ZrEr,0.0,-0.0404574,
CSbEr3,0.0,-0.0404555,
Pd2SnDy2,0.0,-0.040455,
Pd2In3Er3,0.0,-0.0404549,
BeGeTh,0.0,-0.0404548,
CaTe3SmAu,0.3779,-0.0404547,
MgBa2Pb,0.0,-0.0404544,
NBaPt,0.0,-0.0404538,
Y2PdAu,0.0,-0.0404536,
Ge2YTa2,0.0,-0.040453499999999996,
CSi2Tm2Os2,0.0,-0.0404532,
Si2Rh2Pu,0.0,-0.040453,
ZnSr2Ir2,0.0,-0.040452100000000005,
Zn2ZrPt2,0.0,-0.0404516,
CdIn3Ir,0.0,-0.0404514,
Sn2LaNd,0.0,-0.0404493,
B2Mg2VIr5,0.0,-0.0404488,
TcSnLa3,0.0,-0.040448700000000004,
I2La,0.0677,-0.040448300000000006,
AgTe3BaTm,0.5467,-0.0404482,
Al3Ir2Pt,0.0,-0.0404474,
NiRhRe,0.0,-0.0404473,
Cu2Tb2Pb,0.0,-0.0404471,
Nb2Te6Pt,0.0,-0.0404465,
AsI2Er2,0.0,-0.0404454,
Y2InAu,0.0,-0.0404452,
YAg2Au,0.0,-0.0404439,
Ag2CdEu2,0.0,-0.0404434,
SiZnTh,0.0,-0.0404432,
Ga3TbIr2,0.0,-0.040443,
GeYPt,0.0,-0.040442399999999996,
SeI2Er2,0.0,-0.040441899999999996,
Cu4TlPu,0.0,-0.0404418,
SiTbHf,0.0,-0.0404417,
Ge2TcHf2,0.0,-0.0404414,
Ge2Sn3Tb3Ir,0.0,-0.040440800000000006,
Rh2Sn4Au,0.0,-0.0404403,
RuI3Pr3,0.0,-0.0404399,
LiPr2Pt,0.0,-0.0404392,
YRh2Hf,0.0,-0.0404375,
I6Cs2Lu,0.0,-0.0404374,
Cu2HfHg,0.0,-0.0404373,
SiLaTa,0.0,-0.040437,
LiCoPt2,0.0,-0.0404362,
Al2OsPt,0.0,-0.0404357,
SiTe3Dy4,0.0,-0.0404357,
AsHo2,0.0,-0.0404356,
Ga2MoTa2,0.0,-0.040434899999999996,
AlOs,0.0,-0.040434899999999996,
BeSiNp,0.0,-0.0404346,
Rh2PmTb,0.0,-0.0404346,
B2Mg2CrIr5,0.0,-0.0404346,
I2Pr,0.0,-0.0404339,
MgGaPa,0.0,-0.0404326,
CGaTa2,0.0,-0.0404317,
CoSb2Sm6,0.0,-0.0404317,
RhSbTb,0.0,-0.0404313,
Al2LaAu2,0.0,-0.040430799999999996,
Ag2InTm2,0.0,-0.0404307,
FeRhAu,0.0,-0.0404305,
Ni2SnTa2,0.0,-0.0404297,
Al3Si2MnPa3,0.0,-0.0404292,
MnIn5Th,0.0,-0.0404292,
CaSb2Pb,0.0,-0.0404285,
Ge2HoIr,0.0,-0.0404283,
Ge2Sn3Tb3Os,0.0,-0.0404276,
Co2Ho2Hg,0.0,-0.0404276,
Zn2SnAu2,0.0,-0.0404263,
GaZrIr,0.0,-0.0404261,
Ge2RuHf2,0.0,-0.0404254,
ZnSnIr,0.0,-0.0404246,
Cu2YPt2,0.0,-0.040424100000000004,
NaCd2Hg2,0.0,-0.040424,
AsTc2Re,0.0,-0.040423900000000006,
B2N3Ni2Np3,0.0,-0.040423499999999994,
Sn7Ho3,0.0,-0.040423499999999994,
ZnSnPt,0.0,-0.0404222,
Ge2SrAu2,0.0,-0.040421399999999996,
Br3AuTl,0.0,-0.0404213,
KTe3DyHg,0.762,-0.0404201,
CGe2Pr2Ir2,0.0,-0.0404193,
YCd2Ir,0.0,-0.0404189,
LiLa2Ir,0.0,-0.0404188,
BeZnIr2,0.0,-0.040418100000000005,
CrIn5Th,0.0,-0.0404171,
Ge3PdPu,0.0,-0.040417,
Y6PdBi2,0.0,-0.040415999999999994,
PdPr2,0.0,-0.040415599999999996,
K3In4Pt4,0.0,-0.0404155,
RbTe2Hf,0.0,-0.0404146,
Ge2In3Ho3Ir,0.0,-0.040414099999999994,
Ge2RbPt2,0.0,-0.040413899999999996,
Rh2LaDy,0.0,-0.0404133,
AsNbTa,0.0,-0.0404128,
B2Mg2FeIr5,0.0,-0.0404118,
LiScPt2,0.0,-0.040410800000000004,
Ag4LaTl,0.0576,-0.0404101,
MgSmAu,0.0,-0.0404096,
Y2AgTl,0.0,-0.0404094,
Co2Tb2Tl,0.0,-0.0404092,
S2AuTl,0.0,-0.040409,
TeBa,1.3961,-0.040408,
SI2Lu2,0.0,-0.040407,
YSn2Gd,0.0,-0.0404061,
Cu3EuPt2,0.0,-0.0404059,
NiGa2Tm6,0.0,-0.040405,
Pd2Sn4Ir,0.0,-0.040404,
Al3Os2Pt,0.0,-0.040404,
ZrPd2Hf,0.0,-0.0404037,
Ru2Er,0.0,-0.0404036,
C2Dy3Pb,0.0,-0.0404036,
PCsIr,0.0,-0.0404016,
AlNiHfIr,0.0,-0.040401200000000005,
AlNdHg,0.0,-0.0403968,
Zr3Hg,0.0,-0.0403966,
B4NdIr4,0.0,-0.0403965,
KZnAu2,0.0,-0.0403945,
CdTe3CsLu,1.3487,-0.0403941,
Zr2Sb2Hf,0.0,-0.0403938,
C2Ho3Tl,0.0,-0.0403936,
GeSb2Hg,0.0,-0.0403932,
RhIn3Sn2Er3,0.0,-0.040393,
CaAu,0.0,-0.0403919,
ScInPt,0.0,-0.040391500000000004,
AgTe2Tm,0.7726,-0.0403911,
Pd2Sn4Pt,0.0,-0.0403908,
CdInDy2,0.0,-0.0403906,
Cd3I3Bi,0.1478,-0.0403906,
Ag3Cs2Tl,0.0,-0.0403904,
In2PrHo,0.0,-0.0403902,
Na2BaPb2,0.0,-0.040389600000000005,
Y2Pd2Pb,0.0,-0.040389499999999995,
PKPt2,0.0,-0.0403894,
H3ClPu2,0.0,-0.0403886,
In5Pb,0.0,-0.040387700000000006,
Ru2SnTb2,0.0,-0.0403866,
Al2IrPt,0.0,-0.040386200000000004,
B2Mg2TiIr5,0.0,-0.040385,