formula,bg,formation_energy,mp-id
MoIr5,0.0,-0.06532049999999999,
CdPt7,0.0,-0.065318,
Lu3Pt4,0.0,-0.065315,
Ho3Ir2Pb3,0.0,-0.06531319999999999,
Co2TlPu2,0.0,-0.06531010000000001,
KTl8,0.0,-0.065308,
TbPtPb,0.0,-0.0653059,
DyAu2Tl,0.0,-0.06530459999999999,
TmAu2Hg,0.0,-0.0653035,
AgAu2Bi2,0.0,-0.06530129999999999,
SbI2Np2,0.0,-0.0652988,
BIr4Th,0.0,-0.06529739999999999,
ZnPb5,0.0,-0.0652944,
EuHgTl,0.0,-0.0652891,
SnHfTh,0.0,-0.0652873,
Tm4Pt2Tl5,0.0,-0.0652853,
TbIrPb,0.0,-0.06527849999999999,
SbTlPb2,0.0,-0.065278,
GeTe3Th4,0.0,-0.0652778,
SiHgAc2,0.0,-0.0652775,
Hf3Pt,0.0,-0.06527190000000001,
RhPb3,0.0,-0.0652662,
PmAu2Pb,0.0,-0.065265,
ErPtTl,0.0,-0.0652646,
NdAu4Hg,0.0,-0.06526359999999999,
TmHfIr2,0.0,-0.06526030000000001,
FeIr8,0.0,-0.06526,
PrPtBi,0.0,-0.0652596,
ErHgPb,0.0,-0.06525929999999999,
Sn2BiPu,0.0,-0.0652555,
TmLuPb2,0.0,-0.0652553,
BaHg8,0.0,-0.0652546,
HoHg5,0.0,-0.0652523,
TcPdTh2,0.0,-0.0652519,
CsPtPb2,0.0,-0.0652465,
InAu8,0.0,-0.0652429,
TePt5Hg,0.0,-0.06524160000000001,
TcIr5,0.0,-0.0652398,
HoTaOs2,0.0,-0.06523810000000001,
LaHg7,0.0,-0.06523480000000001,
CsPtTl3,0.0,-0.0652281,
IPtTl3,0.0,-0.0652244,
GdDyPb2,0.0,-0.0652239,
PrAu4Hg,0.0,-0.0652225,
LaAu4Hg,0.0,-0.0652202,
GaIrNp,0.0,-0.06521930000000001,
Tm2Pt2Pb,0.0,-0.0652192,
LaPtBi,0.0,-0.06521880000000001,
Lu2Au2Tl,0.0,-0.065216,
Cu2PbPu2,0.0,-0.06521500000000001,
ErIr2,0.0,-0.06521429999999999,
NbIr5,0.0,-0.0652126,
DyAuPb,0.0,-0.0652083,
Hf3Tl,0.0,-0.065204,
LiPbAc2,0.0,-0.0651979,
Cd2TlTh2,0.0,-0.0651964,
TmHfOs2,0.0,-0.06519509999999999,
TmAuTl,0.0,-0.0651939,
NiRhBi6,0.0,-0.065192,
Gd2OsAu,0.0,-0.06519159999999999,
PmHg2Bi,0.0,-0.06518890000000001,
BaPt4Hg,0.0,-0.0651854,
NdIrBi,0.0,-0.0651756,
SrTl2Bi2,0.0,-0.0651748,
CePt2Tl,0.0,-0.0651748,
SnAu2Pb2,0.0,-0.0651747,
RhAu8,0.0,-0.0651708,
CdAu2Bi2,0.0,-0.0651669,
NbAu8,0.0,-0.0651645,
NdAu2Pb,0.0,-0.065163,
CrRe8,0.0,-0.0651604,
Gd2HgTl,0.0,-0.0651593,
Tm4Os2Tl5,0.0,-0.0651554,
BaAu4Tl,0.0,-0.0651553,
Lu2TlPb,0.0,-0.0651538,
GaPt2Pa,0.0,-0.0651529,
InPb3,0.0,-0.0651528,
PdTh,0.0,-0.0651498,
ErOs2,0.0,-0.0651495,
ScTl7,0.0,-0.0651445,
SePbTh,0.0,-0.06513580000000001,
SmPt2Tl,0.0,-0.0651352,
FeRe8,0.0,-0.0651284,
ZrAu8,0.0,-0.0651262,
RhGdTl5,0.0,-0.06512520000000001,
GaPtNp,0.0,-0.0651215,
SmIr3,0.0,-0.0651143,
CdHgTh,0.0,-0.065114,
Sn2AcTh,0.0,-0.0651126,
GeIrU,0.0,-0.0651109,
TePtTl3,0.0,-0.065103,
YTl5,0.0,-0.0651019,
PrAu2Pb,0.0,-0.06510039999999999,
TbHg2Pb,0.0,-0.06509999999999999,
TbPt2Au,0.0,-0.0650996,
SbAu7,0.0,-0.0650995,
ErHg2Tl,0.0,-0.0650992,
Lu2Pt2Hg,0.0,-0.0650972,
TcRe5,0.0,-0.0650953,
LaHg2Bi,0.0,-0.06509319999999999,
LaAu2Pb,0.0,-0.0650902,
CaAu2Pu,0.0,-0.0650877,
CoIr8,0.0,-0.0650815,
PrIrBi,0.0,-0.06507840000000001,
RuIr5,0.0,-0.0650781,
EuHg3,0.0,-0.06507769999999999,
CeIr3,0.0,-0.0650754,
TmRe2,0.0,-0.0650679,
SiPt2Np,0.0,-0.065066,
DyHg5,0.0,-0.065064,
GdLuIr2,0.0,-0.065063,
PrHg2Bi,0.0,-0.0650604,
LaIrBi,0.0,-0.06505889999999999,
Tm3Pt2Tl3,0.0,-0.0650522,
NiBiPa,0.0,-0.06504789999999999,
SnTl4,0.0,-0.06502630000000001,
LuAuHg,0.0,-0.0650261,
ZnPt2U,0.0,-0.06502190000000001,
CaPb5,0.0,-0.0650152,
GdAu,0.0,-0.0650138,
Tm3Ir2Tl3,0.0,-0.06501,
GaIr8,0.0,-0.0650096,
MgTl2Pu,0.0,-0.06500929999999999,
AlAuAc2,0.0,-0.0650085,
RbPb4,0.0,-0.0650041,
InTh,0.0,-0.0650009,
BaAu2Tl2,0.0,-0.0649923,
SiAu2Pu,0.0,-0.0649913,
HoAu3,0.0,-0.0649894,
SrBi3,0.0,-0.064989,
ZnHg2Pu,0.0,-0.0649865,
AgAu8,0.0,-0.0649854,
BaHg4Pb,0.0,-0.06498309999999999,
GePt2Th,0.0,-0.0649777,
GdTbPb2,0.0,-0.06497700000000001,
HoTl2,0.0,-0.064973,
SrTl2Ac,0.0,-0.06497230000000001,
NiIr8,0.0,-0.0649695,
SbHg2Pb2,0.0,-0.0649657,
CsAuPb2,0.0,-0.06496500000000001,
TeAu4Pb,0.0,-0.0649517,
Te2TlPu,0.0,-0.0649483,
BPt4Th,0.0,-0.0649459,
SeTl6,0.0,-0.0649433,
Tm4Au2Tl5,0.0,-0.0649359,
SbAu4Pb,0.0,-0.06493470000000001,
ErAu2Hg,0.0,-0.06493429999999999,
CdAu8,0.0,-0.06492700000000001,
GePtU,0.0,-0.0649179,
EuAu2,0.0,-0.064913,
CeAuBi,0.0,-0.0649126,
MgIr4Th,0.0,-0.0649052,
MgTlAc2,0.0,-0.0649037,
YAu8,0.0,-0.0649023,
TbHg5,0.0,-0.064902,
ZrIr5,0.0,-0.0649019,
NdPt2Tl,0.0,-0.0648995,
Dy3Pt2Pb3,0.0,-0.06489919999999999,
TeBi2,0.0355,-0.06489539999999999,
EuTmPb2,0.0,-0.0648947,
ErLuPb2,0.0,-0.0648941,
RhIr5,0.0,-0.06489239999999999,
ErPt2,0.0,-0.06488970000000001,
PmPt2Tl,0.0,-0.0648869,
SnTlPb2,0.0,-0.06488630000000001,
SmAu4,0.0,-0.0648831,
Ho3Au2Pb3,0.0,-0.0648821,
TbAuPb,0.0,-0.0648718,
CeIrPt2,0.0,-0.0648676,
Dy3Ir2Pb3,0.0,-0.06486320000000001,
NdIr3,0.0,-0.064863,
Hf5Pb,0.0,-0.06486199999999999,
ErHfIr2,0.0,-0.06486109999999999,
MgTl8,0.0,-0.0648531,
YPt4Pb,0.0,-0.0648524,
CeAu4,0.0,-0.0648407,
CdHg2Ac,0.0,-0.06484010000000001,
LuW2,0.0,-0.06483549999999999,
HoHgPb,0.0,-0.0648347,
ZnAu2Np,0.0,-0.0648271,
SmPt3,0.0,-0.0648211,
HoPtTl,0.0,-0.0648185,
PrPt2Tl,0.0,-0.06481740000000001,
CePt3,0.0,-0.0648122,
LaPt2Tl,0.0,-0.0648117,
Pd2Pt3Pu,0.0,-0.0648106,
CuIr8,0.0,-0.0648086,
CsPt2Tl2,0.0,-0.06479810000000001,
GaAu2U,0.0,-0.064793,
LaAuTl2,0.0,-0.0647821,
HoHg2Tl,0.0,-0.06477889999999999,
SbPt5,0.0,-0.06477290000000001,
MnPt2Th,0.0,-0.06477290000000001,
PrIr3,0.0,-0.0647705,
NaTl2Pu,0.0,-0.0647694,
Eu2AuBi,0.0,-0.06476649999999999,
RbTl2Bi2,0.0,-0.0647621,
Hf3Au,0.0,-0.064754,
HoBi,0.0,-0.06475270000000001,
HoIr2,0.0,-0.0647509,
BaAu5,0.0,-0.06473999999999999,
LaIr3,0.0,-0.0647394,
Hf2Hg,0.0,-0.06473730000000001,
InAu2Pb2,0.0,-0.0647122,
AgPt4Pb,0.0,-0.0647083,
ErAuTl,0.0,-0.0647068,
NdAu4,0.0,-0.06470350000000001,
SbSmPu,0.0,-0.0646925,
MgPt4Th,0.0,-0.0646925,
CrIr7,0.0,-0.06469159999999999,
DyAu3,0.0,-0.0646868,
Ag2HgTh2,0.0,-0.0646867,
PIrPu,0.0,-0.06468120000000001,
MnPt8,0.0,-0.064681,
Lu2AuPb,0.0,-0.06468009999999999,
FePbPa,0.0,-0.06468009999999999,
HoOs2,0.0,-0.06468,
TiPt8,0.0,-0.0646736,
ZnIr8,0.0,-0.064668,
RhAu7,0.0,-0.0646637,
SnHg2Pb2,0.0,-0.0646626,
TeHg8,0.0,-0.0646621,
TeAuPb2,0.0,-0.06466190000000001,
AsIrPa,0.0,-0.06466160000000001,
TiIr7,0.0,-0.0646598,
LaAu4,0.0,-0.0646594,
ZnAuPu,0.0,-0.06465749999999999,
MnIr7,0.0,-0.06465430000000001,
PrAu4,0.0,-0.0646526,
CdPt4Pb,0.0,-0.06465080000000001,
SiIr2U,0.0,-0.06464629999999999,
SnPt5,0.0,-0.0646439,
VPt8,0.0,-0.0646378,
AlHgAc2,0.0,-0.0646362,
LaPt2Hg2,0.0,-0.0646325,
KPb5,0.0,-0.0646292,
SrPt2Bi2,0.0,-0.0646275,
AgPb3,0.0,-0.06462380000000001,
CrPt8,0.0,-0.0646235,
Er2Pt2Pb,0.0,-0.06461929999999999,
NaTlAc2,0.0,-0.06460880000000001,
MnGePu2,0.0,-0.0646048,
HoAu2Hg,0.0,-0.0645991,
Tm3Au2Tl3,0.0,-0.0645954,
DyTl2,0.0,-0.06459340000000001,
PPtPu,0.0,-0.0645924,
NdPt3,0.0,-0.0645895,
BaTl3,0.0,-0.0645877,
MgPt2Pu,0.0,-0.0645833,
Eu2TlPb,0.0,-0.0645826,
SmHg2Pb,0.0,-0.0645783,
FePt8,0.0,-0.0645766,
LaAuBi,0.0,-0.0645732,
PmPt3,0.0,-0.06457009999999999,
PrAuBi,0.0,-0.064568,
HoPtHg2,0.0,-0.06456740000000001,
HoLuPb2,0.0,-0.064567,
CeHg2Pb,0.0,-0.06456440000000001,
BPt6Pb2,0.0,-0.0645642,
TeTl2Pb,0.0,-0.06456350000000001,
RhTl4,0.0,-0.0645599,
FeIr7,0.0,-0.0645556,
SbAuPb2,0.0,-0.0645526,
Tm2Au2Pb,0.0,-0.06455190000000001,
ErRe2,0.0,-0.0645491,
SmHg5,0.0,-0.0645453,
CeHg5,0.0,-0.06454359999999999,
CeIrPb,0.0,-0.0645422,
NbPt5,0.0,-0.0645385,
EuErPb2,0.0,-0.0645337,
SmPtPb,0.0,-0.0645302,
AlAu2Pu,0.0,-0.0645291,
BaHg2Tl2,0.0,-0.064526,
TmHg3,0.0,-0.0645257,
CePtPb,0.0,-0.0645197,
MoPt5,0.0,-0.0645182,
LaTa2Ir2,0.0,-0.0645154,
MgIrAc2,0.0,-0.064515,
Tb3Pt2Pb3,0.0,-0.0645124,
PrPt3,0.0,-0.0645089,
ScPt8,0.0,-0.06450360000000001,
GaAuNp,0.0,-0.0645,
Sb4Pa3,0.0,-0.06449890000000001,
DyHg2Tl,0.0,-0.0644983,
LaPt3,0.0,-0.064498,
Er3Pt2Tl3,0.0,-0.0644952,
HoHfIr2,0.0,-0.0644913,
SmIrPb,0.0,-0.06448999999999999,
LaHgTl2,0.0,-0.0644899,
Tm2Pt2Tl,0.0,-0.06448609999999999,
PmHg2Pb,0.0,-0.0644846,
BaAu4Hg,0.0,-0.0644825,
PmHg5,0.0,-0.06448040000000001,
SmAu2Tl,0.0,-0.0644803,
TmAu2,0.0,-0.0644785,
Tb3Ir2Pb3,0.0,-0.06447119999999999,
AgAu7,0.0,-0.0644652,
SrPtPb3,0.0,-0.0644631,
DyHgPb,0.0,-0.0644625,
TmPb,0.0,-0.0644575,
CeAu2Tl,0.0,-0.0644546,
Er3Ir2Tl3,0.0,-0.06444960000000001,
Dy3Au2Pb3,0.0,-0.0644448,
TcPt5,0.0,-0.06444159999999999,
BaHg4Tl,0.0,-0.06444029999999999,
HoPt2,0.0,-0.06443850000000001,
LaTa2Os2,0.0,-0.0644377,
CsPbBi,0.3917,-0.0644349,
SbTl2Pb,0.0,-0.06443389999999999,
SbPt2Bi,0.0,-0.0644267,
SmPt2Au,0.0,-0.0644245,
DyPtTl,0.0,-0.0644244,
TbAu3,0.0,-0.0644229,
NdHg5,0.0,-0.0644207,
LuHg2,0.0,-0.0644195,
TmPtHg,0.0,-0.0644177,
LuIr,0.0,-0.06441670000000001,
SbNdPu,0.0,-0.0644128,
LaTlPb,0.0,-0.06441200000000001,
CdPb3,0.0,-0.0644058,
LaHg2Pb,0.0,-0.064405,
RhTlPb2,0.0,-0.06440420000000001,
CoBiTh,0.605,-0.06440359999999999,
ZrPt5,0.0,-0.06440309999999999,
CsAu2Tl2,0.0,-0.064402,
SiIrPu,0.0,-0.0644018,
ScIr7,0.0,-0.0644018,
Lu2Au2Hg,0.0,-0.0644002,
NdHg2Pb,0.0,-0.06440009999999999,
GaIr2Th,0.0,-0.0643977,
C2PbTh3,0.0,-0.06439619999999999,
Eu2HgBi,0.0,-0.0643914,
LaHg5,0.0,-0.0643898,
CdAu7,0.0,-0.06438970000000001,
GaPt8,0.0,-0.06438859999999999,
CoPt8,0.0,-0.0643874,
KTl7,0.0,-0.0643862,
PrHg5,0.0,-0.0643855,
AsSe3Np4,0.0,-0.0643851,
CoIr7,0.0,-0.06437949999999999,
Lu3Ir2Pt,0.0,-0.0643789,
LiTl2Pu,0.0,-0.0643788,
PmAu2Tl,0.0,-0.0643703,
GaPt2Th,0.0,-0.0643523,
PrHg2Pb,0.0,-0.0643517,
ZnPt2Pa,0.0,-0.0643492,
DyIrTl,0.0,-0.0643454,
Lu2IrPt,0.0,-0.06434430000000001,
BaPb2,0.0424,-0.064344,
GaIr7,0.0,-0.0643406,
LuPt,0.0,-0.064339,
DyIr2,0.0,-0.06433839999999999,
InAu4Pb,0.0,-0.0643313,
SiOsPu,0.0,-0.0643302,
PmGdPb2,0.0,-0.0643232,
CaHg2Pu,0.0,-0.0643229,
MnPt5Bi,0.0,-0.0643214,
YPt4Tl,0.0,-0.0643204,
SbAu4Tl,0.0,-0.0643195,
YHg2Ac,0.0,-0.0643185,
InTlPb2,0.0,-0.0643113,
DyAu2Hg,0.0,-0.06430280000000001,
LuTl,0.0,-0.0642973,
InPt5,0.0,-0.0642962,
BrNp,0.0,-0.0642953,
CAsTh3,0.0,-0.064283,
SiPt2U,0.0,-0.0642798,
DyPtHg2,0.0,-0.0642769,
AgInTh2,0.0,-0.0642705,
RuPt5,0.0,-0.0642667,
HoAuTl,0.0,-0.0642658,
TbTl2,0.0,-0.0642654,
NdAu2Tl,0.0,-0.0642651,
DyOs2,0.0,-0.0642611,
Hf3Hg,0.0,-0.064258,
SrTl5,0.0,-0.0642575,
TbHg2Tl,0.0,-0.0642568,
GeIrPa,0.0,-0.0642513,
Lu2OsIr,0.0,-0.0642496,
AgAu2Pb2,0.0,-0.0642475,
DyLuPb2,0.0,-0.06424550000000001,
YPb3,0.0,-0.0642397,
LiTlAc2,0.0,-0.0642386,
NdPtPb,0.0,-0.0642355,
Lu2HgPb,0.0,-0.0642337,
Tm2Pt3,0.0,-0.0642295,
AlIr8,0.0,-0.0642271,
NiIr7,0.0,-0.06421980000000001,
Pd2Pt3Np,0.0,-0.0642183,
GeAuU,0.0,-0.0642176,
NiPt8,0.0,-0.0642165,
Lu2OsPt,0.0,-0.0642128,
BaHg2Bi,0.0,-0.064209,
EuHoPb2,0.0,-0.06420730000000001,
GaIrU,0.0,-0.06420659999999999,
SbHgPb2,0.0,-0.0642064,
PrAu2Tl,0.0,-0.06419580000000001,
SiPtPu,0.0,-0.06419280000000001,
GeOsPa,0.0,-0.0641898,
LaAu2Tl,0.0,-0.06418470000000001,
DyBi,0.0,-0.0641832,
NdIrPb,0.0,-0.06418309999999999,
LiRuPu2,0.0,-0.0641791,
MnPu,0.0,-0.0641729,
BaPtTl2,0.0,-0.0641699,
ErHg3,0.0,-0.0641665,
Pd2Au3Pu,0.0,-0.06416469999999999,
InHg2Pb2,0.0,-0.0641636,
GdTmIr2,0.0,-0.064161,
DyHfIr2,0.0,-0.0641595,
GdHg,0.0,-0.06415470000000001,
YAuBi2,0.0,-0.0641512,
FePt5Bi,0.0,-0.06414979999999999,
TbHgPb,0.0,-0.0641423,
PrPtPb,0.0,-0.0641387,
LaAu2Hg2,0.0,-0.0641376,
GdTmPt2,0.0,-0.0641332,
NdPt2Au,0.0,-0.0641321,
AsNp,0.0,-0.0641287,
CsAu5,0.0,-0.0641264,
CdAu2Pb2,0.0,-0.0641249,
CuPt8,0.0,-0.0641234,
LaPtPb,0.0,-0.0641222,
SmAuPb,0.0,-0.06411159999999999,
RhPt5,0.0,-0.0641086,
SiTe3Th4,0.0,-0.06410840000000001,
SrAu2Bi2,0.0,-0.06410339999999999,
KTlPb4,0.0,-0.0641026,
NiBiTh,0.0,-0.0640987,
Lu3Pb2,0.0,-0.06409730000000001,
MoIr4,0.0,-0.064083,
TbPtTl,0.0,-0.0640818,
PrIrPb,0.0,-0.0640786,
GaGePu2,0.0,-0.0640761,
Ho2Pt2Pb,0.0,-0.0640729,
HoRe2,0.0,-0.0640716,
LaIrPb,0.0,-0.0640684,
Tb3Au2Pb3,0.0,-0.0640657,
GaAu2Pa,0.0,-0.0640606,
CdInTh2,0.0,-0.0640569,
GeAu2Th,0.0,-0.06405530000000001,
ZnPt8,0.0,-0.064051,
CeAuPb,0.0,-0.06404800000000001,
TbAu2Hg,0.0,-0.0640453,
SbAu2Tl2,0.0,-0.06404510000000001,
Er3Au2Tl3,0.0,-0.0640429,
ErTmPb2,0.0,-0.0640409,
TcIr4,0.0,-0.0640402,
ZnAu2U,0.0,-0.064039,
DyPt2,0.0,-0.0640387,
GaPtU,0.0,-0.0640385,
Lu3Ac,0.0,-0.06403700000000001,
TbLuPb2,0.0,-0.06403060000000001,
CaPb2Bi2,0.0,-0.0640305,
LiRhPu2,0.0,-0.06402859999999999,
CuIr7,0.0,-0.0640274,
CePt2Hg,0.0,-0.06402540000000001,
TbPtHg2,0.0,-0.0640252,
CdPt4Tl,0.0,-0.064021,
Zn2HgTh3,0.0,-0.0640168,
AsPt3Pb2,0.0,-0.0640141,
MnFePu2,0.0,-0.06401309999999999,
SrPtTl4,0.0,-0.0640101,
MgPb5,0.0,-0.0640079,
Te2AuPu,0.0,-0.0640044,
SiAu2Np,0.0,-0.0640033,
BaAu2Pb,0.0,-0.06400270000000001,
RbPt2Bi2,0.0,-0.0640014,
Ba3Hg2Bi4,0.0,-0.064001,
TbIrTl,0.0,-0.0639991,
NiPt2Th,0.0,-0.0639985,
Ho3Pt2Tl3,0.0,-0.0639885,
BIr3Th,0.0,-0.0639885,
ScTl2Th,0.0,-0.06398720000000001,
MnPt7,0.0,-0.06398,
TbIr2,0.0,-0.0639762,
LiIrAc2,0.0,-0.0639757,
AsPt5Pb,0.0,-0.0639743,
ErAu2,0.0,-0.0639734,
CsHg2Tl2,0.0,-0.0639719,
EuHg2,0.0,-0.0639709,
Er2Au2Pb,0.0,-0.06395870000000001,
FePu,0.0,-0.0639546,
LiPtAc2,0.0,-0.0639521,
SiIr2Pa,0.0,-0.0639401,
Ho3Ir2Tl3,0.0,-0.0639383,
ZnIr7,0.0,-0.0639366,
AgAu4Pb,0.0,-0.0639356,
RhPtPb2,0.0,-0.063932,
Te2TlNp,0.0,-0.0639313,
CdTl4,0.0,-0.0639245,
YPt5,0.0,-0.0639232,
CdHg8,0.0,-0.0639229,
Ho2Ir2Pb,0.0,-0.0639217,
ErPtHg,0.0,-0.0639215,
MgTl7,0.0,-0.0639207,
CoPt5Bi,0.0,-0.0639159,
MnW8,0.0,-0.0639142,
Eu2AuPb,0.0,-0.0639132,
GePt5Pb,0.0,-0.063911,
CsTl3,0.0,-0.0639007,
TcW5,0.0,-0.063899,
YHg8,0.0,-0.0638957,
TbOs2,0.0,-0.0638919,
CrPt7,0.0,-0.06389159999999999,
RhBi2,0.0,-0.0638911,
SnAc,0.0,-0.0638899,
MoW5,0.0,-0.063889,
RuIr4,0.0,-0.0638866,
Lu3Os2Au,0.0,-0.0638858,
BaAuTl2,0.0,-0.0638854,
Er2Pt2Tl,0.0,-0.0638854,
MgIr2Np,0.0,-0.0638841,
DyAuTl,0.0,-0.0638768,
TmAuHg,0.0,-0.0638767,
Lu2IrAu,0.0,-0.0638727,
TiPt7,0.0,-0.0638662,
TbHfIr2,0.0,-0.06386410000000001,
RhHgTl3,0.0,-0.0638637,
Sb2AuPu,0.0,-0.0638624,
BTa2Os6,0.0,-0.0638583,
TcRe4,0.0,-0.0638474,
Lu2PtAu,0.0,-0.0638431,
HoHg3,0.0,-0.0638421,
CdAu4Pb,0.0,-0.063842,
AlPt2U,0.0,-0.0638377,
SnHgPb2,0.0,-0.0638371,
Lu2AuTl,0.0,-0.063836,
Ba2Bi3,0.0,-0.0638344,
FePt7,0.0,-0.063831,
NdAuPb,0.0,-0.06382589999999999,
Tm2Au2Tl,0.0,-0.0638215,
Ru2PbPu,0.0,-0.0638214,
MgIr8,0.0,-0.0638202,
SmAu3,0.0,-0.0638168,
MgAu2Pu,0.0,-0.0638118,
LiOsAc2,0.0,-0.0638033,
BaHg5,0.0,-0.0638029,
YPt4Au,0.0,-0.0637984,
BaAu4,0.0,-0.06379610000000001,
NiPb4,0.0,-0.063796,
InHg7,0.0,-0.0637957,
SbAu5,0.0,-0.0637926,
Tm3Pt4,0.0,-0.063789,
BPt6Tl2,0.0,-0.0637857,
Lu3Ir2Hg,0.0,-0.0637812,
Gd2Tl,0.0,-0.0637796,
AgTlPb2,0.0,-0.0637763,
TeHg2Tl2,0.0,-0.063774,
GdErIr2,0.0,-0.0637739,
SnAu2Tl2,0.0,-0.0637737,
CTeU2,0.0,-0.0637682,
SeTl5,0.0,-0.0637682,
BaPt2Hg2,0.0,-0.0637664,
TeTl3,0.0,-0.0637653,
AsPt2Ac,0.0,-0.0637652,
C2TlTh3,0.0,-0.0637566,
MgPbPu,0.0,-0.06375600000000001,
ScPt7,0.0,-0.0637508,
CeHg2Tl,0.0,-0.0637492,
CeAu3,0.0,-0.0637452,
SrPt4Pb,0.0,-0.063742,
InAu4Tl,0.0,-0.0637393,
ErPb,0.0,-0.0637389,
IHg2Tl2,0.0,-0.06373859999999999,
LaPt2Hg,0.0,-0.0637385,
BrPt2Bi2,0.0,-0.0637355,
PrAuPb,0.0,-0.0637336,
SmHg2Tl,0.0,-0.0637274,
Lu2OsAu,0.0,-0.0637229,
NiPt5Bi,0.0,-0.06371840000000001,
ScPb4,0.0,-0.0637149,
HoTmPb2,0.0,-0.0637133,
LaAuPb,0.0,-0.0636987,
CdPt5,0.0,-0.0636949,
TbBi,0.0,-0.0636911,
TbPt2,0.0,-0.0636897,
Sn2TlPu,0.0,-0.0636866,
AgPt5,0.0,-0.0636854,
Tm2Pt2Hg,0.0,-0.0636849,
LaTaIr2,0.0,-0.06368359999999999,
Fe2PbU2,0.0,-0.0636826,
PmAu3,0.0,-0.0636804,
AgTh,0.0,-0.06367840000000001,
BaPtBi,0.0,-0.0636767,
EuTbPb2,0.0,-0.0636733,
YPt4Hg,0.0,-0.0636614,
CSbU2,0.0,-0.0636597,
YTl4,0.0,-0.0636586,
CoPt7,0.0,-0.0636556,
RhIr4,0.0,-0.0636522,
CaPb2Ac,0.0,-0.06365169999999999,
DyRe2,0.0,-0.0636447,
SbHg2Tl2,0.0,-0.0636434,
MnAu8,0.0,-0.0636429,
Lu2Bi,0.0,-0.0636421,
In2AcTh,0.0,-0.0636414,
BaPt2Tl,0.0,-0.0636413,
PdHgTl3,0.0,-0.0636396,
RhAuPb2,0.0,-0.0636381,
TmW2,0.0,-0.06363490000000001,
SbPt2Pb,0.0,-0.0636341,
Eu2HgPb,0.0,-0.0636319,
PmHg2Tl,0.0,-0.06363049999999999,
LiPb5,0.0,-0.06362910000000001,
Er2Pt3,0.0,-0.0636273,
SbPt4,0.0,-0.0636266,
KPb2Bi2,0.0,-0.0636248,
AsTl5,0.0,-0.0636248,
BTa2Ir6,0.0,-0.0636221,
SnAu5,0.0,-0.0636217,
LaHg4,0.0,-0.0636182,
AsIrTh,0.0,-0.0636176,
AlPt8,0.0,-0.0636157,
Sn2IrPu,0.0,-0.0636156,
CoPu,0.0,-0.06360070000000001,
Dy2Pt2Pb,0.0,-0.06358950000000001,
SbTl3,0.0,-0.0635867,
CrAu8,0.0,-0.0635858,
RbTl2Pb2,0.0,-0.063582,
Gd3Pb,0.0,-0.0635819,
InAuPb2,0.0,-0.0635804,
ZnPt2Th,0.0,-0.0635739,
LiAuAc2,0.0,-0.0635711,
NdAu3,0.0,-0.0635711,
SiPt2Pa,0.0,-0.0635693,
AlOsPu,0.0,-0.0635626,
CdTlPb2,0.0,-0.063558,
DyHg3,0.0,-0.0635571,
CdHg2Pb2,0.0,-0.0635563,
Rh2PbPu,0.0,-0.0635515,
GaTl2Bi2,0.0,-0.0635491,
AlPtPu,0.0,-0.0635472,
BaHgTl2,0.0,-0.0635449,
PdBi2,0.0,-0.0635444,
AlAu2Np,0.0,-0.0635438,
NdHg2Tl,0.0,-0.0635423,
Ho3Au2Tl3,0.0,-0.0635418,
Dy3Pt2Tl3,0.0,-0.0635408,
TbAuTl,0.0,-0.0635394,
SbLuTh,0.0,-0.0635349,
SmTl2,0.0,-0.0635339,
InHg4Pb,0.0,-0.063526,
AsPt5Tl,0.0,-0.0635187,
PIrNp,0.0,-0.063516,
ZnPt5Bi,0.0,-0.0635159,
HoAu2,0.0,-0.0635131,
RhTl2Pb,0.0,-0.0635103,
La2Pb3,0.0,-0.0635075,
AsPtTh,0.0,-0.0635056,
SiAuPu,0.0,-0.0635027,
PrAu3,0.0,-0.0634998,
LaHg2Tl,0.0,-0.06349969999999999,
Gd2Ir,0.0,-0.0634974,
ZrHg7,0.0,-0.06349439999999999,
PrHg2Tl,0.0,-0.06349,
RbAu2Bi2,0.0,-0.0634887,
PBrPu2,0.0,-0.0634868,
LaAu3,0.0,-0.0634866,
Dy3Ir2Tl3,0.0,-0.0634858,
ZnAuNp,0.0,-0.0634845,
SnPt2Pb,0.0,-0.0634787,
AsSbTh2,0.0,-0.0634779,
NaAu2Pu,0.0,-0.06347610000000001,
AlIr7,0.0,-0.0634719,
RuHf6Bi2,0.0,-0.0634708,
HoPtHg,0.0,-0.0634707,
FeAu8,0.0,-0.0634705,
NiPt7,0.0,-0.0634677,
BaHg2Pb,0.0,-0.0634657,
AgHg7,0.0,-0.0634634,
SmPtHg2,0.0,-0.06346070000000001,
SmAu2Hg,0.0,-0.0634603,
SrPt2Pb2,0.0,-0.06345920000000001,
STl6,0.0,-0.0634588,
SrHg2Bi2,0.0,-0.0634573,
SBiPa,0.0,-0.0634547,
InTl2Pb,0.0,-0.0634547,
SnHf6Bi2,0.0,-0.0634529,
Tm2TlPb,0.0,-0.06344659999999999,
SmLuPb2,0.0,-0.0634439,
InBi2,0.0,-0.06344,
Dy2Ir2Pb,0.0,-0.0634372,
ScBiTh,0.0,-0.0634364,
TmLuTl2,0.0,-0.0634321,
RhHf6Bi2,0.0,-0.0634295,
MoPt4,0.0,-0.0634285,
AlIr2Pa,0.0,-0.06342840000000001,
DyTmPb2,0.0,-0.0634254,
CeAu2Hg,0.0,-0.0634222,
Sb2OsNp,0.0,-0.0634215,
Ho2Au2Pb,0.0,-0.0634206,
LuAu,0.0,-0.06342,
NbBi2,0.0,-0.0634102,
TiAu8,0.0,-0.0634077,
CsPtTl2,0.0,-0.0634063,
PdAuPb2,0.0,-0.0634052,
GePt5Tl,0.0,-0.0634047,
BaAu2Hg2,0.0,-0.0634031,
Ru2InNp2,0.0,-0.06339779999999999,
CdHg7,0.0,-0.0633967,
BaAuBi,0.0,-0.0633939,
GaAu2Th,0.0,-0.0633897,
Gd2Os,0.0,-0.06338880000000001,
ErAuHg,0.0,-0.0633864,
CuPt7,0.0,-0.0633846,
AgAu4Tl,0.0,-0.0633836,
ScAu8,0.0,-0.06337899999999999,
Sb2IrNp,0.0,-0.06337899999999999,
PmLuPb2,0.0,-0.0633711,
GaAuU,0.0,-0.0633684,
CsHg2Bi,0.0,-0.0633677,
Lu2HgTl,0.0,-0.0633664,
RhHgPb2,0.0,-0.0633625,
ZnGePu2,0.0,-0.0633614,
Sb4Th3,0.0,-0.0633553,
YTlPb2,0.0,-0.0633538,
HoErPb2,0.0,-0.0633512,
PmAu2Hg,0.0,-0.0633462,
GaIrPa,0.0,-0.0633462,
CaPtTl5,0.0,-0.0633423,
Ho2Pt2Tl,0.0,-0.0633383,
Rh2Ir3Th,0.0,-0.0633326,
InAu2Tl2,0.0,-0.063331,
BaPtHg3,0.0,-0.06333,
GaPu,0.0,-0.0633184,
SnHg2Tl2,0.0,-0.0633173,
GaAu8,0.0,-0.0633122,
TbHg3,0.0,-0.063311,
YHg7,0.0,-0.06330960000000001,
TcPt4,0.0,-0.063307,
SmPtTl,0.0,-0.0633046,
CsTlBi,0.0,-0.0633026,
SiIrNp,0.0,-0.0632972,
PPtNp,0.0,-0.06329610000000001,
ZnAu2Pa,0.0,-0.0632938,
InAu5,0.0,-0.0632914,
SiOsNp,0.0,-0.0632913,
ZnPt7,0.0,-0.0632909,
NBrPu2,0.0,-0.0632897,
GdTmAu2,0.0,-0.0632883,
CdTh,0.0,-0.0632839,
TmHg2,0.0,-0.0632815,
AgPtPb2,0.0,-0.0632813,
CePtTl,0.0,-0.0632741,
CdAu4Tl,0.0,-0.0632688,
NdTl2,0.0,-0.06326659999999999,
SnAu2Bi,0.0,-0.0632637,
TePtTl2,0.0,-0.0632612,
CeIrTl,0.0,-0.06325990000000001,
CoPbTh,0.0,-0.06325889999999999,
AsAu3Pb2,0.0,-0.0632581,
NdPtHg2,0.0,-0.0632516,
BaPt3,0.0,-0.063251,
InHgPb2,0.0,-0.0632493,
MgPt8,0.0,-0.0632489,
PdHf6Bi2,0.0,-0.0632471,
Sb2PtNp,0.0,-0.0632431,
NiPbTh,0.2457,-0.06324,
NdAu2Hg,0.0,-0.0632363,
SbPtTl2,0.0,-0.0632346,
NdLuPb2,0.0,-0.0632304,
MnIr2Ac,0.0,-0.0632271,
Er2Au2Tl,0.0,-0.0632263,
ZnPb4,0.0,-0.0632248,
TcTa8,0.0,-0.0632177,
RuTa8,0.0,-0.06321500000000001,
GaOsPa,0.0,-0.0632117,
SmIrTl,0.0,-0.0632104,
Ho2Ir2Tl,0.0,-0.0632099,
InSnAc2,0.0,-0.06320239999999999,
SrPt4Tl,0.0,-0.0631997,
PSe3Np4,0.0,-0.0631969,
DyHgTl,0.0,-0.0631955,
La2HgBi2,0.0,-0.0631926,
GeI2Pu2,0.0,-0.0631914,
LaHf2Ir2,0.0,-0.06318939999999999,
RhSnAc2,0.0,-0.0631887,
BaTlPb,0.0,-0.063187,
PrTl2,0.0,-0.063186,
PrPtHg2,0.0,-0.06318549999999999,
AlPt2Pa,0.0,-0.0631801,
CuAu8,0.0,-0.0631791,
SnTl3,0.0,-0.0631783,
RhAu5,0.0,-0.0631716,
CsAuTl2,0.0,-0.0631706,
MgIr2U,0.0,-0.0631694,
Tb2Pt2Pb,0.0,-0.0631684,
ZrAu5,0.0,-0.0631682,
CeIr2,0.0,-0.06316669999999999,