formula,bg,formation_energy,mp-id
Zn3Au2Pu,0.0,-0.0484674,
Ga3Pt2Th,0.0,-0.0484667,
CaZrPb2,0.0,-0.0484652,
NiRbHg3,0.0,-0.0484647,
MnSb2Pa,0.0,-0.048463299999999994,
Sn2Dy6Pt,0.0,-0.048463,
YSn6Ir4,0.0,-0.0484625,
Ca2Tl2Pb,0.0,-0.0484619,
FeSb2Pa,0.0,-0.0484617,
LiIr2,0.0,-0.0484616,
CuSb2U,0.0,-0.0484604,
RbTe2Tl2,0.0,-0.0484602,
PdCe2Au,0.0,-0.0484597,
AgSm2Pt,0.0,-0.048459,
Rh2InAc,0.0,-0.0484587,
ZnRu2Pu,0.0,-0.0484577,
CdPrAu,0.0,-0.0484561,
ZnEu2Pt,0.0,-0.048453899999999994,
Ru5Ir3,0.0,-0.0484534,
CuEu2Au,0.0,-0.048452800000000004,
GaRu2Np,0.0,-0.048451999999999995,
YLu3,0.0,-0.0484514,
Fe3Ta5,0.0,-0.0484505,
GePdPt2,0.0,-0.04845,
TeIPt,0.0,-0.0484494,
Sc3Hg5,0.0,-0.0484494,
TcLa3Pb,0.0,-0.0484493,
SrPdHg2,0.0,-0.0484491,
ZnLa2Au2,0.0,-0.048448500000000005,
CdSm2Tl,0.0,-0.04844830000000001,
SrPd2Pb2,0.0,-0.0484471,
SiBaPt2,0.0,-0.0484457,
Co2CuTh2,0.0,-0.0484455,
BrSbHg2,0.0,-0.0484444,
MgTb3Os2,0.0,-0.0484442,
SnPr2Hg,0.0,-0.0484436,
Ni2LaPt3,0.0,-0.0484435,
OTm3Ir,0.0,-0.048442599999999995,
NiSnPt2,0.0,-0.0484406,
Ni2PrPt3,0.0,-0.048439300000000005,
AlDyHg2,0.0,-0.048437,
NaPdHg3,0.0,-0.048436,
Ni3Th2,0.0,-0.0484359,
SrCdAu2,0.0,-0.0484341,
CoMoPt2,0.0,-0.048431800000000004,
ZnPr6Bi2,0.0,-0.048431600000000005,
Cs3Bi,0.0,-0.0484314,
Sn2DyTl,0.0,-0.048430999999999995,
SrSb2Ir2,0.0,-0.048430999999999995,
InLu2,0.0,-0.0484283,
AsIHg2,0.0,-0.0484273,
N2TaU,0.0,-0.0484259,
Ge2NdPu,0.0,-0.048424999999999996,
InBaIr,0.0,-0.0484244,
LiGd2Tl,0.0,-0.0484242,
Sr2PtPb,0.0,-0.0484242,
SnTePt,0.0,-0.048422,
PSrPu,0.0,-0.048421900000000004,
Pd2Tm2Hg,0.0,-0.0484209,
Sn2DyIr,0.0,-0.0484207,
ZnAs2Hf6,0.0,-0.0484199,
SbErLu,0.0,-0.048418,
PPmHg2,0.0,-0.0484178,
Al3Si2AuNp3,0.0,-0.0484172,
Cu2SmIr3,0.0,-0.048416600000000004,
GeTmPt,0.0,-0.048416200000000006,
Zn3Pt2Np,0.0,-0.048415,
Sb2Dy6W,0.0,-0.0484137,
PHfW,0.0,-0.0484135,
FeZrIr2,0.0,-0.0484131,
InLa2Pt,0.0,-0.0484127,
Dy3Er,0.0,-0.0484119,
Si2RhHf6,0.0,-0.0484116,
CdLaAu,0.0,-0.0484111,
TbHo3,0.0,-0.0484109,
BC2Np2,0.0,-0.048410600000000005,
PdPr2Pt,0.0,-0.048409799999999996,
Zn2Au2Pb,0.0,-0.048409,
Al3IrTh2,0.0,-0.0484084,
FeRhPt2,0.0,-0.048408099999999996,
NaSbPb2,0.0,-0.0484074,
AsSbHg2,0.0,-0.0484063,
PdPm2Au,0.0,-0.0484052,
NEr3Pb,0.0,-0.0484043,
GeSnAu2,0.0,-0.0484042,
InPm2Au,0.0,-0.0484015,
EuTb3,0.0,-0.0484015,
Rh2DyPb,0.0,-0.048401000000000007,
MnPdPt2,0.0,-0.0484009,
Fe2ErNp,0.0,-0.0483992,
Mo5Pt3,0.0,-0.0483992,
Ru2Ho2Tl,0.0,-0.048399,
AlNd2Ir2,0.0,-0.0483988,
ScErBi,0.0,-0.0483983,
PdPr2Ir,0.0,-0.048398000000000004,
NiGe2Hf6,0.0,-0.0483977,
TiZrOs2,0.0,-0.048397300000000004,
Mn2TbPu,0.0,-0.0483966,
AsTeHg2,0.0,-0.0483932,
LiSmTl2,0.0,-0.0483925,
MnZrPt2,0.0,-0.0483924,
In2Bi,0.0,-0.0483922,
In2CsHg2,0.0,-0.0483921,
Cl2AsPa2,0.0,-0.0483916,
OTm3Pt,0.0,-0.0483916,
LiTbPt2,0.0,-0.048391500000000004,
KBa2Pb2,0.0,-0.0483908,
Pd2AgTl2,0.0,-0.0483902,
Y2In3Pb3,0.0,-0.0483897,
MgPmPt2,0.0,-0.0483884,
Ge2Np,0.0,-0.0483861,
DyHo,0.0,-0.048385199999999996,
SnEu2,0.0,-0.0483838,
ZrRhBi,0.0,-0.0483832,
Co2Sm3Tl3,0.0,-0.0483827,
O2SU2,0.0,-0.048382100000000004,
In6NdIr4,0.0,-0.0483817,
ScNbOs2,0.0,-0.0483815,
InLa2Ir,0.0,-0.0483811,
SrSb2Pt2,0.0,-0.048380400000000004,
Rh2LuHg,0.0,-0.0483795,
PdSnPb,0.0,-0.048378300000000006,
BaLa3Ir,0.0,-0.0483778,
CaLa2Pt2,0.0,-0.048375999999999995,
Rh2Ho2Tl,0.0,-0.0483755,
SnLa2Hg,0.0,-0.048374,
LiCeTl2,0.0,-0.0483736,
AsErIr,0.0,-0.048373,
AlBaTl2,0.0,-0.0483726,
OTm3Tl,0.0,-0.0483717,
Pd2Er3Hg,0.0,-0.0483706,
RhNd2Au,0.0,-0.048368499999999995,
Si2PtPa,0.0,-0.0483682,
CoTcPt2,0.0,-0.0483682,
CTa2,0.0,-0.0483681,
CaSbTl2,0.0,-0.048368,
Zr4Re3,0.0,-0.048368,
LiPdBi2,0.0,-0.0483678,
La4Hg,0.0,-0.048366599999999996,
Ru2Ho3Au,0.0,-0.0483662,
NiRuRe2,0.0,-0.048364899999999995,
CoRhRe2,0.0,-0.0483648,
AlNdAu2,0.0,-0.0483643,
Ag2EuPb,0.0,-0.048362699999999995,
Te2CsBi,1.0384,-0.0483621,
In6PrIr4,0.0,-0.0483604,
CaSmHg2,0.0,-0.0483597,
AlPmAu2,0.0,-0.0483593,
Cd2BaAu2,0.0,-0.048358,
CuGePu,0.0,-0.0483577,
ZnEu2Ir,0.0,-0.0483573,
Al3OsTh2,0.0,-0.048356699999999996,
HRuTa2Au,0.0,-0.048356,
Pd2Dy2Pb,0.0,-0.048356,
MnGeNp,0.0,-0.0483544,
ZnSm3Au2,0.0,-0.048354,
Si2ErIr3,0.0,-0.0483534,
LiGd2Ir,0.0,-0.0483532,
Sb2TbAu,0.0,-0.0483527,
NSEr6Pb2,0.0,-0.0483495,
KNiTl3,0.0,-0.0483492,
MgNdPt2,0.0,-0.048348999999999996,
Al3PtTh2,0.0,-0.0483474,
CoRhIr2,0.0,-0.0483468,
SnSbPt,0.0,-0.0483452,
NaDyAu2,0.0,-0.048344200000000004,
Pd2HoPb,0.0,-0.048344099999999994,
Cu2Pt3,0.0,-0.0483428,
PdLa2Pt,0.0,-0.0483426,
Ge2PrPu,0.0,-0.048342500000000004,
ZnLa6Bi2,0.0,-0.0483416,
Ru2GdHf,0.0,-0.048340600000000004,
MgAu2,0.0,-0.04834,
Se4Pt5,0.0,-0.0483399,
RuNd2Au,0.0,-0.0483386,
Cd4Tl3,0.0,-0.048337899999999996,
PdLa2Ir,0.0,-0.0483357,
CoSb2Pa,0.0,-0.0483354,
Fe2ZnTh2,0.0,-0.048332099999999996,
AlNd2Pt2,0.0,-0.0483316,
Pd2SbLu5,0.0,-0.0483309,
MgTb2Au2,0.0,-0.048330399999999996,
LiAuTl,0.0,-0.0483301,
Rh2Ho3Au,0.0,-0.04833,
Fe2TbPu,0.0,-0.0483298,
CdCe2Tl,0.0,-0.048326999999999995,
ScInTl2,0.0,-0.0483263,
NiRhOs2,0.0,-0.0483258,
NiRuIr2,0.0,-0.0483256,
GeTmOs,0.0,-0.0483256,
KTe2Np,0.0,-0.0483255,
TiNbRe2,0.0,-0.0483238,
AsErPt,0.0,-0.048323700000000004,
NiDyBi,0.2195,-0.048322000000000004,
Te4Lu5,0.0,-0.0483217,
NiMoRe2,0.0,-0.0483214,
CaCdPb2,0.0,-0.0483206,
Te2Tb6Ir,0.0,-0.04832,
AlHfIr,0.0,-0.048319299999999996,
InHf,0.0,-0.0483192,
SnTm3,0.0,-0.0483168,
BTm3Pb,0.0,-0.0483157,
OTm3Os,0.0,-0.0483157,
Y2LaAu2,0.0,-0.0483124,
CoGeHf4,0.0,-0.0483122,
Cu2CePt3,0.0,-0.0483111,
AgSm2Os,0.0,-0.048309399999999995,
GaAgTh,0.0,-0.048307499999999996,
LiHoAu2,0.0,-0.048305999999999995,
AgSn2Au2,0.0,-0.048305999999999995,
Cu2SmPt3,0.0,-0.0483048,
Zn2TbPt3,0.0,-0.048304299999999994,
Sb2SmIr,0.0,-0.0483023,
Ag2Er2Pb,0.0,-0.0483023,
NaCu2Bi2Th,0.0,-0.048302,
CuTm2Ir,0.0,-0.0483012,
Zr2InIr2,0.0,-0.0483001,
Sn2DyPt,0.0,-0.0482968,
CuSnIr2,0.0,-0.048296,
Y2AgPb2,0.0,-0.0482946,
Si2ZrRe4,0.0,-0.0482882,
AlNi2Pa2,0.0,-0.048288,
AlPrAu2,0.0,-0.0482879,
Te2Tb6Pt,0.0,-0.0482863,
RbAg2Bi2,0.0,-0.0482849,
Sn2NdPb,0.0,-0.0482843,
LiPmTl2,0.0,-0.0482834,
NOEr6Pb2,0.0,-0.0482823,
Pd2CdTl2,0.0,-0.0482823,
CdSmHg,0.0,-0.0482809,
GeSeU,0.0,-0.0482807,
Pd2Ho3Pt,0.0,-0.0482801,
CaCeHg2,0.0,-0.048279699999999995,
Rh3SmPt2,0.0,-0.048277900000000006,
InSm2Hg,0.0,-0.048277799999999996,
Rh2TmPt,0.0,-0.0482777,
TiInPt2,0.0,-0.0482777,
BaLa3Os,0.0,-0.048277299999999995,
Ba2LaAu,0.0,-0.0482768,
Al2MnTa6,0.0,-0.048276000000000006,
MgPrPt2,0.0,-0.0482735,
Cu2NdIr3,0.0,-0.0482732,
Al4Sn2Pu3,0.0,-0.0482729,
ScRhIr2,0.0,-0.0482719,
KTe6Th2,0.0,-0.0482711,
CaLa2Ir2,0.0,-0.0482702,
N2SeTh2,1.2441,-0.0482673,
Al2FeTa6,0.0,-0.0482672,
AgCe2Pt,0.0,-0.048266500000000004,
MgLaPt2,0.0,-0.0482663,
Ga2Au3,0.0,-0.0482634,
MgPmIr2,0.0,-0.0482633,
AlLaAu2,0.0,-0.048262599999999996,
SbCsHg,0.0,-0.0482605,
CuTm2Pt,0.0,-0.0482598,
Te2Tb6Os,0.0,-0.0482596,
LiKAu4,0.0,-0.0482591,
AsSm2Bi,0.0,-0.0482583,
AlPr2Ir2,0.0,-0.0482581,
Nb2CdIr2,0.0,-0.0482567,
TcAgHf2,0.0,-0.0482547,
SiTa2,0.0,-0.048254399999999996,
GePd2Np,0.0,-0.0482531,
BCPtU,0.0,-0.0482517,
K2Tl2Bi,0.0,-0.0482507,
CaBaPt2,0.0,-0.0482506,
CaPmHg2,0.0,-0.0482506,
Te3TbBi,0.8759,-0.048250100000000004,
Sn2Lu3,0.0,-0.048249600000000004,
CrTe4Tl3,0.0,-0.048248,
N4Th3,1.3234,-0.048246000000000004,
Te4BaTl2,0.0,-0.048245399999999994,
LiGd2Pt,0.0,-0.0482453,
Sb2Tb6Ir,0.0,-0.048245199999999995,
Ga3Hf3Ir2,0.0,-0.048245199999999995,
CrPdPt2,0.0,-0.0482444,
Pd2Bi,0.0,-0.048243499999999995,
In4Hg3,0.0,-0.048241900000000004,
CuRbHg3,0.0,-0.048241900000000004,
FeZrPt2,0.0,-0.048241599999999996,
GaNbPt2,0.0,-0.0482413,
RbBa2Au2,0.0,-0.048237499999999996,
LiTmHg2,0.0,-0.0482373,
Ag5Au4,0.0,-0.048234400000000004,
YSn2Au2,0.0,-0.048234,
RhLa2Au,0.0,-0.0482324,
NaTe2Pu,0.0,-0.0482312,
CuTcIr2,0.0,-0.0482297,
In3Ac,0.0,-0.0482293,
CoNd6Pb2,0.0,-0.048229,
YSn2Ac,0.0,-0.048227200000000005,
RbSb2Tl2,0.0,-0.0482261,
Sr2SnBi2,0.0,-0.048224800000000005,
Cu2PrIr3,0.0,-0.0482244,
In3Tb3Au2,0.0,-0.0482236,
MgHoHg2,0.0,-0.048223,
C2Hf3Pb,0.0,-0.048220799999999994,
STa2,0.0,-0.048220799999999994,
Cu2LaIr3,0.0,-0.048220799999999994,
CoTm2Au,0.0,-0.0482196,
Co2Ga3Pa3,0.0,-0.048219200000000004,
AgPm2Ir,0.0,-0.0482185,
CuSnPt2,0.0,-0.048217300000000005,
TiPdPt2,0.0,-0.0482169,
Te3Hf2,0.0,-0.0482163,
Rh2Tb2Pb,0.0,-0.0482162,
Zr2InPt2,0.0,-0.0482145,
GaZrIr2,0.0,-0.0482144,
As2EuTl2,0.0,-0.0482136,
ZnRh2Pu,0.0,-0.048213299999999994,
ZnEuPb,0.0,-0.0482124,
AlGe2Th2,0.0,-0.0482118,
AgPm2Pt,0.0,-0.0482116,
CoRuPt2,0.0,-0.048211500000000004,
Pd3SbPb2,0.0,-0.048211399999999995,
AgCe2Os,0.0,-0.0482106,
ZnCs2BaBi2,0.0,-0.0482101,
ScInIr2,0.0,-0.0482097,
NiAsNp,0.0,-0.0482094,
CaPd2Pt3,0.0,-0.0482092,
Sb2Tb6Pt,0.0,-0.048209,
CdSm2Ir,0.0,-0.048209,
Al2CoTa6,0.0,-0.048208799999999996,
NaErHg2,0.0,-0.048208799999999996,
CoNbPt2,0.0,-0.048207299999999995,
AlLa2Ir2,0.0,-0.048207099999999996,
Rh2ErTl,0.0,-0.0482064,
SrRu2Pa,0.0,-0.0482057,
CuTm2Tl,0.0,-0.048204000000000004,
AgNd2Tl,0.0,-0.0482026,
Fe3Re4,0.0,-0.0482019,
AsBrPb2,0.0,-0.0482017,
RhPr2Au,0.0,-0.0482015,
AlPr2Pt2,0.0,-0.048197899999999995,
Zn2Ir3,0.0,-0.0481973,
Ge2CsPt3,0.0,-0.048197000000000004,
RuLa2Au,0.0,-0.0481959,
La5Tl,0.0,-0.0481952,
BrTe2Tl2,0.0,-0.0481948,
CuTmPb,0.0,-0.048194299999999995,
LiGd2Os,0.0,-0.048194,
AgNdHg,0.0,-0.0481939,
Se2TlBi,0.0871,-0.048191899999999996,
GaTm2Au,0.0,-0.0481916,
Cd2SnTl2,0.0,-0.048190399999999994,
NiLuPt,0.0,-0.0481897,
Ni2CuTh2,0.0,-0.0481894,
GeEuAu,0.0,-0.0481892,
Ga2Hg2Tl,0.0,-0.0481882,
CrTcW2,0.0,-0.0481865,
Sb2Tb6Os,0.0,-0.048186,
AlTbHg2,0.0,-0.0481841,
AlTaAu,0.0,-0.0481832,
InNd2Au,0.0,-0.048183,
LiNdTl2,0.0,-0.0481826,
ClITl2,1.4037,-0.048182,
SnGd,0.0,-0.048181800000000004,
Sr2AuPb,0.0,-0.0481817,
CoZrIr2,0.0,-0.0481797,
Tb5Lu,0.0,-0.0481789,
Co2ZnTh2,0.0,-0.0481771,
KLaAu2,0.0,-0.048176000000000004,
Cu2NdPt3,0.0,-0.0481745,
MgHf3,0.0,-0.0481742,
AsCe2Bi,0.0,-0.0481721,
PdNd2Au,0.0,-0.048171900000000004,
Sn2TbIr,0.0,-0.0481711,
ScRhPt2,0.0,-0.0481709,
NiMoPt2,0.0,-0.0481707,
AlHfPt,0.0,-0.048168300000000004,
AsSePb2,0.0,-0.048168300000000004,
CdSnBi,0.0,-0.048168100000000005,
AlHfOs,0.0,-0.048166600000000004,
RuPr2Au,0.0,-0.0481661,
Sn2Tb2Tl,0.0,-0.048164900000000004,
GaInPt2,0.0,-0.0481646,
Ge3IrPu,0.0,-0.048164099999999994,
SiPdPa,0.0,-0.0481633,
N2Tl2Bi,0.0,-0.0481626,
KSb2Bi2,0.0,-0.0481619,
MgLu2Pb,0.0,-0.048159999999999994,
SrSmPb,0.0,-0.0481591,
Rh2SmBi,0.0,-0.0481588,
InTe3Ir2,0.0,-0.0481579,
Ca2Au2Bi,0.0,-0.0481578,
InCe2Hg,0.0,-0.0481571,
Pd2TmTl,0.0,-0.0481524,
CuSb2Pb2,0.0,-0.0481522,
CdCeHg,0.0,-0.0481517,
Co2Y4Pb5,0.0,-0.048151200000000005,
Si2RePa,0.0,-0.0481511,
CaNdHg2,0.0,-0.0481499,
AgBaTl,0.0,-0.048149700000000004,
Y2CdPb2,0.0,-0.0481478,
Y2BaIr2,0.0,-0.0481465,
FePr6Pb2,0.0,-0.0481465,
CuTm2Os,0.0,-0.0481455,
Ag2Tm2Tl,0.0,-0.0481443,
InTe3Pt2,0.0,-0.0481441,
YLaTl,0.0,-0.0481423,
FeGeNp,0.0,-0.048141800000000005,
Cu2LaPt3,0.0,-0.0481413,
InBaAu,0.0,-0.048140999999999996,
ZnEu2Au,0.0,-0.0481367,
Si2HoIr3,0.0,-0.048135399999999995,
Cu2PrPt3,0.0,-0.0481341,
Rh2Er2Hg,0.0,-0.0481326,
CrGeNp,0.0,-0.048132100000000004,
ScBaHg2,0.0,-0.048132,
Al3Ru2Th3,0.0,-0.0481317,
Rh3NdPt2,0.0,-0.0481309,
Sb2LaTl,0.0,-0.0481305,
NiRhRe2,0.0,-0.0481295,
Te2W,0.0,-0.0481292,
Co2Ta2Ir,0.0,-0.0481284,
PRuTh,0.0,-0.048128300000000006,
In3IrHg,0.0,-0.0481273,
Rh2TbPb,0.0,-0.0481272,
CrMoW2,0.0,-0.0481271,
Co2DyPu,0.0,-0.0481265,
Se2CsAu3,1.429,-0.0481245,
Al3ReTh2,0.0,-0.0481237,
MnRu2U,0.0,-0.048122,
In5IrTh,0.0,-0.048122,
AlNd2Os2,0.0,-0.0481181,
Ni3Pt2Th,0.0,-0.0481177,
LiPrTl2,0.0,-0.048117400000000005,
Y3Rh2Pb3,0.0,-0.0481168,
NbInHf2,0.0,-0.0481162,
SrYAu2,0.0,-0.048116,
Al2IrU,0.0,-0.0481149,
LiPt2,0.0,-0.048114199999999996,
GaRh2Np,0.0,-0.0481113,
YLaIr,0.0,-0.048109400000000004,
GeRh2U,0.0,-0.0481079,
In2TmIr,0.0,-0.0481078,
GaSbAu2,0.0,-0.0481066,
NiTcPt2,0.0,-0.0481063,
NTm3Au,0.0,-0.0481049,
CoErPb,0.0,-0.0481038,
In2TmPt,0.0,-0.0481036,
AgPrHg,0.0,-0.048103299999999995,
PRhTh,0.0,-0.0480982,
ZnPdTh,0.0,-0.0480963,
LiLaTl2,0.0,-0.048095399999999996,
Sb2NdIr,0.0,-0.0480953,
AgSbPb,0.0,-0.0480946,
SbTe2Hf2,0.0,-0.0480946,
Ge3OsPu,0.0,-0.048093699999999996,
CaRh6Bi4,0.0,-0.0480918,
CTm2Pb,0.0,-0.0480916,
AgLaHg,0.0,-0.048091,
RbIn2Pb2,0.0,-0.048089799999999995,
In2TeHg2,0.0,-0.0480876,
Pd2Ho2Tl,0.0,-0.0480873,
Al2NiTa6,0.0,-0.0480871,
NaTbAu2,0.0,-0.0480866,
CaPrHg2,0.0,-0.0480853,
MnMoW2,0.0,-0.0480809,
Rh3PrPt2,0.0,-0.04808080000000001,
RbRh2Pb2,0.0,-0.0480807,
SrBa2Hg2,0.0,-0.0480805,
CEr2Bi,0.0,-0.0480799,
B2Sn5Ir6,0.0,-0.048078499999999996,
AlRuPa,0.0,-0.0480781,
SbTeAu,0.0,-0.0480777,
Ru2Ho3Hg,0.0,-0.0480775,
Co2Ta2Os,0.0,-0.0480773,
Te6TmU,0.0,-0.048076999999999995,
Dy3Ho,0.0,-0.0480747,
Rh3LaPt2,0.0,-0.0480745,
YIn2Th,0.0,-0.0480738,
ZnGa2Th2,0.0,-0.048073700000000004,
SiHfW,0.0,-0.0480728,
Cd3EuPt2,0.0,-0.0480726,
AlLu2Tl,0.0,-0.0480721,
In5PtTh,0.0,-0.0480716,
Cd2BaAc,0.0,-0.0480714,
B2LuIr3,0.0,-0.0480708,
PGdIr,0.0,-0.0480706,
Sb2Au,0.0,-0.048069600000000004,
ScSbAu2,0.0,-0.0480694,
PHo2Bi,0.0,-0.0480671,
GaRhPt2,0.0,-0.0480665,
BeLaOs2,0.0,-0.0480665,
Ru5Pt3,0.0,-0.0480662,
AgPr2Tl,0.0,-0.0480661,
B2LuOs3,0.0,-0.0480661,
CoGaPu,0.0,-0.0480645,
Ba3Tl,0.0,-0.0480644,
ClTeTl2,0.0,-0.048063299999999996,
AsAgPt2,0.0,-0.0480621,
In2IHg2,0.0,-0.0480617,
I2Pt,0.9239,-0.0480615,
Te2Tb6Re,0.0,-0.0480609,
Sb2LaIr,0.0,-0.048059199999999996,
Fe2HoNp,0.0,-0.0480582,
Ga2BaIr3,0.0,-0.048057499999999996,
ScInPt2,0.0,-0.048057,
Te2Tb6Au,0.0,-0.0480563,
InPm2Hg,0.0,-0.0480562,
KTeTl2,0.0,-0.0480555,
GeYPt2,0.0,-0.0480553,
Co2Nd3Tl3,0.0,-0.0480551,
Zr2PdPt2,0.0,-0.0480545,
CuRuIr2,0.0,-0.048054400000000004,
Te2Au,0.0,-0.0480538,
NiRhIr2,0.0,-0.0480534,
AgPm2Os,0.0,-0.048052700000000004,
Sn2TbPt,0.0,-0.0480515,
Ga2BaPt3,0.0,-0.0480515,
AgSm2Au,0.0,-0.0480503,
CoPr6Pb2,0.0,-0.0480484,
Pd2DyPb,0.0,-0.048048099999999996,
CaLaHg2,0.0,-0.048048099999999996,
La5Pt,0.0,-0.0480471,
MgCe2Ir2,0.0,-0.048046700000000005,
MgSm2Ir2,0.0,-0.048046399999999996,
In5OsTh,0.0,-0.0480461,
NbTe3Pt2,0.0,-0.0480459,
Rh2LaHf2,0.0,-0.048042900000000006,
Pd2LuHg,0.0,-0.0480417,
BeLaPt2,0.0,-0.0480399,
Sn2Sm2Pb,0.0,-0.0480395,
Y2TePt2,0.0,-0.048039099999999994,
InPr2Au,0.0,-0.048039,
AsI3Hg3,0.1885,-0.0480385,
Ag2BaHg2,0.0,-0.0480378,
Rh2Ho3Hg,0.0,-0.0480371,
PEu2Pt,0.0,-0.0480323,
Te2SmAu,0.1343,-0.0480308,
Sb2PrIr,0.0,-0.0480304,
MgSm2Pt2,0.0,-0.0480286,
Rh2PmBi,0.0,-0.048028100000000004,
Cu2GaTh2,0.0,-0.0480277,
CaSn2Bi2,0.0,-0.0480276,
Ge2LuIr2,0.0,-0.048027299999999995,
C2TaU,0.0,-0.0480266,
In3Au2,0.0,-0.048026200000000005,
CoEr2Ir,0.0,-0.048025,
CdNd2Tl,0.0,-0.048024000000000004,
KAgPb2,0.0,-0.048021799999999996,
BrSb2Tl2,0.0,-0.0480211,
Ru2Dy3Pt,0.0,-0.048019599999999996,
FeMoW2,0.0,-0.048018500000000006,
Ag4Pt3,0.0,-0.04801830000000001,
NiTm2Au,0.0,-0.04801830000000001,
As2EuIr2,0.0,-0.048018099999999994,
Pd3Sn2Pt3,0.0,-0.0480178,
Ca2Ir2Pb,0.0,-0.0480169,
Ge3PtPu,0.0,-0.0480159,
GaBa2Pt2,0.0,-0.0480145,
CoZrPt2,0.0,-0.0480142,
NaSnPb2,0.0,-0.0480134,
NiZrIr2,0.0,-0.0480133,
PdPr2Au,0.0,-0.0480128,
Co2Ta2Pt,0.0,-0.0480113,
CoRhPt2,0.0,-0.0480111,
ScRu2Np,0.0,-0.048010599999999994,
Tb3Tm,0.0,-0.0480096,
RuTm3,0.0,-0.048008,
SbBa2Tl,0.0,-0.0480061,
Tc5W3,0.0,-0.0480058,
ZnMoIr2,0.0,-0.048004399999999996,
Ag2SbAc,0.0,-0.0480039,
In3PtHg,0.0,-0.048000999999999995,
LiDyAu2,0.0,-0.0480007,
ZnSnIr2,0.0,-0.0480005,
ScPdIr2,0.0,-0.0479996,
Si2YRe4,0.0,-0.0479992,
YTePb,0.0,-0.0479983,
Cu2Sm3Tl3,0.0,-0.047997700000000004,
CuLuTl,0.0,-0.047997500000000005,
Ca2Pt2Pb,0.0,-0.0479962,
Pd2InAc,0.0,-0.0479957,
PGdPt,0.0,-0.0479951,
RbCd2Bi2,0.0,-0.047994999999999996,
OTm3Au,0.0,-0.047994300000000004,
Rh2Dy3Pt,0.0,-0.0479942,
CdNdHg,0.0,-0.047994,
PSbTl2,0.0,-0.0479937,
MoAgHf2,0.0,-0.047992400000000005,
Ce3Gd,0.0,-0.0479907,
BRbPt3,0.0,-0.047990000000000005,
AgBa2Bi,0.0412,-0.0479889,
Ru2Dy3Ir,0.0,-0.0479889,
CaYPb2,0.0,-0.0479888,
Al3AuTh2,0.0,-0.0479886,
Pd2Sb2Th,0.0,-0.0479884,
NiErPb,0.0,-0.0479871,
GeErIr,0.0,-0.0479848,
AgLa2Tl,0.0,-0.0479833,
Sn2Ir,0.0,-0.047981,
Pd2Ho3Au,0.0,-0.0479809,
SrDyTl,0.0,-0.0479797,
Sb2Tb6Au,0.0,-0.0479797,
SeTe2Tl2,0.0,-0.0479782,
NiTbBi,0.2405,-0.0479774,
AgNd2Pt,0.0,-0.0479765,
InLa2Au,0.0,-0.047976399999999995,
Ge2BaAu3,0.0,-0.0479761,
ZnTcIr2,0.0,-0.0479759,
AlPr2Os2,0.0,-0.0479756,
GaLuAu,0.0,-0.047974800000000005,
AgNd2Ir,0.0,-0.047974699999999995,
GeAg2Pu,0.0,-0.047974499999999996,
CuMoPt2,0.0,-0.0479744,
LiSbPb2,0.0,-0.0479737,
Se2Tm6Ir,0.0,-0.0479722,
SbHoLu,0.0,-0.047971400000000004,
SiHfAu,0.0,-0.0479702,
CoGeNp,0.0,-0.0479698,
FeHf2,0.0,-0.0479691,
CdIn2Pt2,0.0,-0.0479676,
Rh5Os3,0.0,-0.0479675,
Se2Pa,0.0,-0.0479666,
MnHf2,0.0,-0.0479665,
KZrPb2,0.0,-0.047966299999999996,
CdIn2Ir2,0.0,-0.0479659,
Ni2ZnTh2,0.0,-0.047965400000000005,
ScHoBi,0.0,-0.0479643,
Zn2SmIr3,0.0,-0.047964,
CoEr2Pt,0.0,-0.0479636,
AlBaPt2,0.0,-0.0479622,
BeTaIr,0.0,-0.0479618,
GaCdTh,0.0,-0.0479607,
ScPdPt2,0.0,-0.0479569,
Mn2TmU,0.0,-0.0479565,
NaAu2,0.0,-0.0479565,
K2PtPb2,0.0,-0.047954500000000004,
Cl2GePa2,0.0,-0.0479531,
Co2La3Tl3,0.0,-0.0479506,
CoLa6Pb2,0.0,-0.0479501,
FeSm6Tl2,0.0,-0.0479489,
AsSbTa2,0.0,-0.047948300000000006,
O2SeTh2,0.0,-0.0479475,
N2Tb7Tl3,0.0,-0.0479454,
Mo5W3,0.0,-0.0479453,
Si2DyIr3,0.0,-0.047942700000000005,
Ni2Nd3Tl3,0.0,-0.047942500000000006,
CoSm6Tl2,0.0,-0.0479423,
SrSn6Ir4,0.0,-0.0479422,
Zn2SmPt3,0.0,-0.04794060000000001,
RhTm3,0.0,-0.04794060000000001,
SrTl,0.0,-0.0479398,
Pd2Tb2Pb,0.0,-0.0479382,
Pd3Ac,0.0,-0.0479371,
ZnRbHg3,0.0,-0.0479347,
CoCdTh,0.0,-0.047934199999999996,
SrAgHg2,0.0,-0.047934199999999996,
Sr2HgPb,0.0757,-0.047934,
SiRbAu3,0.0,-0.047932699999999995,
AlRhPa,0.0,-0.0479323,
In6BaIr4,0.0,-0.0479323,
CdBaTl,0.0,-0.0479322,
AlSm2Au2,0.0,-0.0479319,
PdLa2Au,0.0,-0.0479317,
NiLa6Pb2,0.0,-0.047931600000000005,
Rh3Eu2Pb,0.0,-0.0479312,
Zn2CePt3,0.0,-0.0479309,
MgDyHg2,0.0,-0.0479301,
Sb2PrPt,0.0,-0.047928899999999997,
Al2EuPt3,0.0,-0.0479282,
Sb2LaPt,0.0,-0.0479271,
NaPmPt2,0.0,-0.047926699999999996,
SAsPu,0.0,-0.0479263,
YLa2Pb,0.0,-0.0479262,
Pd2SmBi,0.0,-0.0479259,
ZnSb2U,0.0,-0.0479253,
Se2Tm6Os,0.0,-0.047925199999999994,
Rb2SnAu3,0.0,-0.0479244,
GaEr2Ir,0.0,-0.047923099999999996,
KLuBi,0.0,-0.0479225,
ScZrIr2,0.0,-0.0479218,
Ge2Ta3,0.0,-0.047921,
Ge2LuOs2,0.0,-0.0479201,
SnLa3Os,0.0,-0.047920000000000004,
GeErPt,0.0,-0.0479196,
NiRuPt2,0.0,-0.0479191,
AsHoIr,0.0,-0.0479182,
Rb2PtBi,0.0,-0.0479172,
MnAgPt2,0.0,-0.0479138,
CuTcPt2,0.0,-0.047913,
Ru2Dy2Tl,0.0,-0.0479127,
HSnTa3,0.0,-0.0479126,
ZnTm2Ir,0.0,-0.0479116,
LiAlAc2,0.0,-0.047909,
AsPb,0.0,-0.047907200000000004,
NbSbOs,0.2012,-0.0479047,
CdPrHg,0.0,-0.0479039,
Pd2CeBi,0.0,-0.0479035,
ZrPdBi,0.0,-0.047902700000000006,
Ba2LaHg,0.0,-0.047902099999999996,
Te6ErU,0.0,-0.0479017,
As2Tm6Os,0.0,-0.047901200000000005,
PCl2U2,0.0,-0.0479002,
InTeTl,0.0,-0.047898,
MnRhAu2,0.0,-0.047896,
GaBa2Ir2,0.0,-0.047895,
AlLa2Os2,0.0,-0.0478941,
CdPr2Tl,0.0,-0.0478925,
Sc2Hg2Tl,0.0,-0.047892000000000004,
Rh2TmAu,0.0,-0.0478914,
As2Tm6Pt,0.0,-0.0478911,
Rh2Dy2Tl,0.0,-0.0478904,
ZnNd3Au2,0.0,-0.0478902,
LiHgTl,0.0,-0.047889600000000004,
GeInAu2,0.0,-0.047887700000000005,
GaZrPt2,0.0,-0.0478872,
Br2Gd2Pb,0.0,-0.0478865,
AsHoPt,0.0,-0.0478864,
SrNdPb,0.0,-0.0478859,
ScLa2Hg2,0.0,-0.047885399999999995,
Rh2ErPt,0.0,-0.0478851,
Ga2Pu,0.0,-0.0478849,
Zn3Pt2U,0.0,-0.047883699999999994,
GaEr2Pt,0.0,-0.047883,
NaHoHg2,0.0,-0.0478795,
SCl2U2,0.0,-0.047879,
Sc2Au2Hg,0.0,-0.0478782,
MgSmAu2,0.0,-0.0478778,
ZrInBi,0.0,-0.0478753,
PmTm,0.0,-0.047875,
RbSb2Ir2,0.0,-0.047870600000000006,
Al3Pt5,0.0,-0.047870499999999996,
As2EuPt2,0.0,-0.0478701,
MgAuHg,0.0,-0.0478697,
LiErHg2,0.0,-0.0478692,
Sr2CdAu3,0.0,-0.0478688,
NaAs2Pt2Th,0.0,-0.0478688,
CaSnTl2,0.0,-0.0478658,
Co2TbPu,0.0,-0.0478648,
TbHo,0.0,-0.0478644,
ZnTm2Pt,0.0,-0.047864,
N2HfU,0.0,-0.0478632,
Al2CdTh2,0.0,-0.0478626,
Al2Ho3Tl3,0.0,-0.047862299999999997,
YLaOs,0.0,-0.0478609,
Pd4Np,0.0,-0.047860599999999996,
Sb2CeAu,0.0,-0.0478595,
Ru5W3,0.0,-0.047856699999999995,
CSbHf3,0.0,-0.047855800000000004,
RbPd2Pb2,0.0,-0.047855299999999996,
AgCe2Au,0.0,-0.047854799999999996,
MnCdPt2,0.0,-0.0478547,
ScZrOs2,0.0,-0.047853900000000005,
Rh2HoTl,0.0,-0.047853299999999994,
MnTe2Lu6,0.0,-0.0478527,