formula,bg,formation_energy,mp-id
ScHoHg2,0.0,-0.0505711,
NInNp,0.0,-0.0505674,
MgHf2Re,0.0,-0.0505665,
SrRhTl2,0.0,-0.050566400000000004,
ZnTb2Os2,0.0,-0.0505656,
NaCePb2,0.0,-0.0505651,
CuAs2Th2,0.0,-0.0505633,
Rh2BaTl2,0.0,-0.0505632,
Ga2Nd3Ir4,0.0,-0.0505632,
ScHf3,0.0,-0.0505623,
RhNdTl,0.0,-0.0505598,
In2SmAu2,0.0,-0.0505595,
SbHf,0.0,-0.0505592,
SrTmPb,0.0,-0.050557899999999996,
Ga3Pt2Pu,0.0,-0.0505559,
MgSnPu,0.0,-0.050554699999999994,
Cu2TlPa,0.0,-0.050554499999999995,
In3Tm3Ir2,0.0,-0.050552,
MgPmPb2,0.0,-0.0505518,
SiAc,0.0,-0.0505513,
RhTb2Pt,0.0,-0.0505498,
SnPrAu,0.1748,-0.0505486,
N2NiNp2,0.0,-0.050547400000000006,
NiTb3Ir2,0.0,-0.0505452,
NaSmPb2,0.0,-0.0505442,
SiDy2Pt2,0.0,-0.0505441,
RuTb2Pt,0.0,-0.0505439,
Ge2Ir3,0.0,-0.0505425,
YPdAu2,0.0,-0.0505425,
GeNd2Pt2,0.0,-0.0505422,
KPtTl,0.0,-0.0505422,
P2PdTh2,0.0,-0.0505419,
SiBr2Pa2,0.0,-0.0505417,
CrTa2,0.0,-0.0505413,
CuYBi2,0.0,-0.050539900000000006,
CoLu2Pt,0.0,-0.0505381,
Zn2PtU,0.0,-0.0505365,
MgEr2Ir2,0.0,-0.0505362,
CdBa2Ir2,0.0,-0.0505337,
MgTmPt2,0.0,-0.0505337,
I4Au2Hg,0.4004,-0.0505317,
Ga2Tl2Pb,0.0,-0.0505296,
NiTb3Pt2,0.0,-0.0505288,
Sc3Pt5,0.0,-0.050528500000000004,
N2AsU2,0.0,-0.0505281,
InHo2Hg,0.0,-0.0505269,
RhCePt,0.0,-0.050526800000000004,
Cd2SmTh,0.0,-0.0505265,
CdDyPt,0.0,-0.0505256,
SnTb2Au,0.0,-0.050522599999999994,
MgLaPb2,0.0,-0.0505216,
ZnHf3,0.0,-0.050521500000000004,
Sn3Ho3Pt2,0.0,-0.050520499999999996,
CuLaPt2,0.0,-0.0505201,
MgTmIr2,0.0,-0.0505198,
FeTa2,0.0,-0.0505197,
Ce2Hf,0.0,-0.0505196,
BeHf2Re,0.0,-0.0505163,
Ni2Er3Tl3,0.0,-0.0505163,
SrRu2Pu,0.0,-0.0505162,
P2AuPu,0.0,-0.0505154,
Ge2TmPu,0.0,-0.050512999999999995,
CuTe2Pu,0.0,-0.0505125,
GaEu2Pb,0.0,-0.0505124,
SbBaTl,0.6771,-0.0505117,
Ga2EuPt3,0.0,-0.0505115,
KCaPt4,0.0,-0.0505096,
YPt,0.0,-0.0505079,
Ge2HoPt3,0.0,-0.0505079,
CrInPa,0.0,-0.0505064,
Sn3Ho3Ir2,0.0,-0.050505499999999995,
SiDy2Os2,0.0,-0.0505042,
MnTb6Pb2,0.0,-0.0505042,
InSmPt,0.0,-0.050503900000000004,
InCeIr,0.0,-0.050503,
CaPdBi2,0.0,-0.050503,
SSnU,0.0,-0.0505,
SiErAu2,0.0,-0.0504996,
MgEr3Ir2,0.0,-0.0504996,
GePr2Ir2,0.0,-0.0504987,
SbI3Hg3,0.2689,-0.050495399999999996,
AlTmAu2,0.0,-0.050494199999999996,
AsSbTl2,0.0,-0.0504932,
SnLaAu,0.2281,-0.0504925,
Ba2Pt,0.0,-0.050491799999999996,
NRe2,0.0,-0.050491,
CuGdPb,0.0,-0.050490299999999995,
MgEr2Pt2,0.0,-0.0504888,
ZrCdAu2,0.0,-0.050488399999999996,
GaCeAu2,0.0,-0.050488,
ZrTc2Pa,0.0,-0.0504844,
InCePt,0.0,-0.050483400000000005,
CdNdPb,0.0,-0.0504833,
Pd2SbTh,0.0,-0.0504822,
ZnDy3Os2,0.0,-0.0504819,
CdTb2Pb,0.0,-0.0504811,
AsHo2Bi,0.0,-0.0504787,
Se3Ac2,2.6159,-0.05047720000000001,
Ni2TlTh,0.0,-0.0504755,
Y2OsTl,0.0,-0.0504745,
Ge2TbIr3,0.0,-0.0504741,
Co3Pt5,0.0,-0.050473399999999995,
Sn2CsPt2,0.0,-0.0504731,
La3Os,0.0,-0.0504721,
GaLu2Ir,0.0,-0.050471800000000004,
Sb2CsAu2,0.0,-0.050468200000000005,
SrSnPt2,0.0,-0.0504679,
InSmIr,0.0,-0.0504673,
SiIU,0.0,-0.0504669,
AlHo2Os2,0.0,-0.0504667,
SrInTl2,0.0,-0.0504664,
GaSm2Ir2,0.0,-0.0504653,
BAl2Ir6,0.0,-0.0504635,
GaCe2Ir2,0.0,-0.0504625,
ZnErHg2,0.0,-0.0504625,
GeLa2Ir2,0.0,-0.0504615,
Tc2HfTa,0.0,-0.050461,
SrPdTl2,0.0,-0.050460099999999994,
RhPrTl,0.0,-0.0504594,
Ge2Au2Pb,0.0,-0.0504593,
CdHo2Os,0.0,-0.0504568,
Se3SbPb4,0.0,-0.050456600000000004,
BHoIr2,0.0,-0.0504554,
BNIrPu,0.0,-0.0504523,
Ga2Pr3Ir4,0.0,-0.0504504,
Te2Er6Re,0.0,-0.050448599999999996,
Y2IrPt,0.0,-0.0504458,
FeTb6Pb2,0.0,-0.050445000000000004,
YIr,0.0,-0.050443600000000005,
Mn3Au5,0.0,-0.0504429,
BYIr3,0.0,-0.0504424,
CdDyIr,0.0,-0.0504417,
NaPmPb2,0.0,-0.0504398,
OLu3Tl,0.0,-0.0504398,
GaPmAu2,0.0,-0.050438899999999995,
Ge2RhHf6,0.0,-0.0504382,
GeSrAu3,0.0,-0.050438000000000004,
ZnTbAu2,0.0,-0.0504373,
NiITh,0.0,-0.050435600000000004,
KBaPb2,0.0,-0.0504343,
Pd2BaTl2,0.0,-0.0504331,
RhLaTl,0.0,-0.050433,
BLu3Pb,0.0,-0.0504325,
ZnLu2Pb,0.0,-0.050431,
MgTh,0.0,-0.0504273,
NaCu2Bi2Pu,0.0,-0.050426900000000004,
CaTbPt2,0.0,-0.050425899999999996,
CLu3Tl,0.0,-0.0504255,
CuTaAu,0.0,-0.0504247,
Ni3Ir5,0.0,-0.0504242,
In2NdAu2,0.0,-0.0504236,
GaAgU,0.0,-0.050423499999999996,
NaPtPb,0.0,-0.0504231,
AgErHg,0.0,-0.0504231,
In2LaAu2,0.0,-0.0504225,
GaLu2Pt,0.0,-0.050421999999999995,
Sb2EuPt,0.0,-0.0504219,
Sr2Hg3,0.0,-0.0504207,
Co2GaPa2,0.0,-0.0504196,
RbErBi,0.0,-0.0504181,
SbHoHf,0.0,-0.0504178,
Te2ErTl,0.2447,-0.0504167,
Te2Er6Au,0.0,-0.050416499999999996,
Sc3Au2Tl3,0.0,-0.0504162,
BNOsPu,0.0,-0.050414900000000006,
GePr2Pt2,0.0,-0.050414900000000006,
PdDyHg,0.0,-0.0504142,
ClLa2Pb2,0.0,-0.0504139,
NaLa2Bi2,0.0,-0.0504138,
PdDy2Au,0.0,-0.0504115,
CdPrPb,0.0,-0.0504112,
In3Sn3Th2,0.0,-0.0504108,
AgBa2Au2,0.0,-0.050405700000000005,
LiHf2Os,0.0,-0.0504053,
BCaPt4,0.0,-0.0504052,
NiLu2Ir,0.0,-0.0504033,
InTb2Tl,0.0,-0.0504026,
Sb2Er6Re,0.0,-0.0504022,
AlDyPt2,0.0,-0.0504012,
BHoPt2,0.0,-0.0504009,
ZrInHg2,0.0,-0.0503985,
FeSm2Os2,0.0,-0.0503949,
CBr5Th4,0.0,-0.0503945,
In2PrAu2,0.0,-0.0503936,
CoSm2Ir2,0.0,-0.0503927,
Ni2BiAc,0.0,-0.0503923,
CoLu2Os,0.0,-0.0503909,
AlPt2,0.0,-0.0503902,
AgHo2Au,0.0,-0.05039,
CoInPa,0.0,-0.0503886,
Rh5Ir4,0.0,-0.0503886,
GaSm2Pt2,0.0,-0.050387799999999996,
I2Pb,2.122,-0.050387,
CdLaPb,0.0,-0.050386400000000005,
Ru2HfTa,0.0,-0.050386400000000005,
GaNdAu2,0.0,-0.0503852,
MgTm2Au2,0.0,-0.0503851,
Al3ReU2,0.0,-0.0503846,
InDyHg,0.0,-0.050383899999999995,
LiHf2Ir,0.0,-0.050382800000000005,
NbMoTa2,0.0,-0.0503809,
CdEr2Hg,0.0,-0.050379,
Zn2HgBi2,0.0,-0.0503774,
LiTlPb,0.0,-0.0503769,
ZnNdPt2,0.0,-0.050376399999999995,
I2Tb2Bi,0.0,-0.0503763,
Sb2LuAu,0.0,-0.0503761,
CoTb6Pb2,0.0,-0.050374,
CuSnPa,0.0,-0.0503729,
PdTb2Ir,0.0,-0.050371,
PdTb2Tl,0.0,-0.0503673,
Al3Ge2AuNp3,0.0,-0.0503663,
RhPdTa2,0.0,-0.0503652,
CuTb3Ir2,0.0,-0.0503647,
GeBrPu,0.0,-0.050364400000000004,
ZnDy2Au2,0.0,-0.0503635,
Sb2Er6Au,0.0,-0.0503605,
MgErTl2,0.0,-0.050360100000000005,
CdHoAu,0.0,-0.0503591,
Mo5W4,0.0,-0.0503571,
NbRhTa2,0.0,-0.0503563,
AlRe2,0.0,-0.0503558,
C2ITh2,0.0,-0.0503556,
CoTa2,0.0,-0.0503544,
AgAu,0.0,-0.0503515,
AsEu2Au,0.0,-0.050350700000000005,
Ga2TmIr3,0.0,-0.0503497,
PdNdTl,0.0,-0.0503496,
Pm3Hg,0.0,-0.0503494,
CuTb3Pt2,0.0,-0.0503493,
ZnGd2Hg,0.0,-0.0503469,
Zn2CeAu4,0.0,-0.050345799999999996,
MnSm2Os2,0.0,-0.050345799999999996,
NaNdPb2,0.0,-0.0503455,
In3Hf4,0.0,-0.0503452,
Cr3Au5,0.0,-0.05034449999999999,
InDy2Au,0.0,-0.0503434,
Er,0.0,-0.050340699999999995,
TiSbTh,0.0,-0.0503406,
OEu3Pb,0.0,-0.0503397,
Rh2LuPb,0.0,-0.050336399999999996,
O2SeU2,0.0,-0.0503361,
CaLa2Pb2,0.0,-0.0503358,
InBa2Hg2,0.0,-0.050334899999999995,
CdTbTl,0.0,-0.0503318,
GaLu2Os,0.0,-0.050331299999999995,
InCsBi,0.0,-0.0503303,
Cd2PtAu,0.0,-0.0503301,
Cs3AuHg,0.0,-0.0503287,
PdTb2Pt,0.0,-0.0503287,
CCl2Pu2,0.0,-0.0503266,
Si2SmRe4,0.0,-0.0503242,
SrPd2Pt3,0.0,-0.050324,
NaGdHg2,0.0,-0.0503235,
MgEr3Os2,0.0,-0.050323099999999996,
AgDy2Tl,0.0,-0.0503206,
Zr2LaIr2,0.0,-0.0503202,
Cu4Pt7,0.0,-0.0503184,
NiLu2Pt,0.0,-0.0503149,
NiTb6Pb2,0.0,-0.050314700000000004,
RhTeBi,0.1663,-0.0503132,
CaSmTl2,0.0,-0.0503113,
SiPdNp,0.0,-0.0503096,
Ge2DyPt3,0.0,-0.0503082,
Cd2HgTl,0.0,-0.0503046,
GaPrAu2,0.0,-0.050303600000000004,
Se2Lu6Ir,0.0,-0.0503025,
ZnPrPt2,0.0,-0.0503022,
Rh4HgTh,0.0,-0.0503021,
CaCeTl2,0.0,-0.050301,
GeEu2Tl,0.0,-0.0503007,
GaCe2Pt2,0.0,-0.0502996,
TeBaPt,0.0,-0.050298999999999996,
ZnLaPt2,0.0,-0.050298999999999996,
Te2Pb,0.0429,-0.050298699999999995,
GaCs2Au3,0.0,-0.0502986,
Zn2GdPt3,0.0,-0.050297800000000004,
Pd2Er5Bi,0.0,-0.0502956,
Ru2Tm2Pb,0.0,-0.0502944,
RhNd6Pb2,0.0,-0.0502892,
Ga3Ge2IrTh3,0.0,-0.050288400000000004,
Zr2TaOs,0.0,-0.0502881,
NaLaPb2,0.0,-0.0502881,
Ag2PtHg,0.0,-0.0502861,
FeSnTh,0.0,-0.050285699999999996,
Ga3Ge2OsTh3,0.0,-0.0502852,
PRuU,0.0,-0.050284999999999996,
CdBa2Au2,0.0,-0.050284,
Ga2Pt2Pb,0.0,-0.050281,
AlLuHg2,0.0,-0.0502804,
NLu2Pb,0.0,-0.0502803,
Mn2DyIr3,0.0,-0.050279899999999995,
RhTbHg,0.0,-0.0502797,
Ag2Lu2Pb,0.0,-0.0502793,
Al3AuU2,0.0,-0.0502789,
KAuTl,0.0,-0.0502787,
MnNd2Ir2,0.0,-0.0502762,
MgCaIr4,0.0,-0.050275799999999995,
GaLaAu2,0.0,-0.050275,
GePdTh,0.0,-0.050274900000000004,
Si2Ga3PtU3,0.0,-0.0502736,
SiTb2Ir2,0.0,-0.050273200000000004,
Rh2Tm2Pb,0.0,-0.0502731,
Sn3Ir2,0.0,-0.050272399999999995,
GaCe2Os2,0.0,-0.050272399999999995,
B2Y3Pt7,0.0,-0.0502716,
AlFe2U2,0.0,-0.0502675,
Ge2Pt3,0.0,-0.0502662,
AgDy2Ir,0.0,-0.0502651,
Ru5W4,0.0,-0.0502631,
Pd3Pa,0.0,-0.0502625,
Ru2CdPa,0.0,-0.0502615,
MnDy6Tl2,0.0,-0.050260599999999996,
ZnPmPt2,0.0,-0.050259700000000004,
AlCsHg3,0.0,-0.0502592,
CaHoAu2,0.0,-0.0502588,
Se2Lu6Os,0.0,-0.0502588,
FeGa2Ta6,0.0,-0.0502548,
RbBaAu2,0.0,-0.0502538,
AlIn2Hf6,0.0,-0.0502538,
MnGa2Ta6,0.0,-0.0502535,
Sn4Ba3Ir4,0.0,-0.0502527,
Cd2CsPb2,0.0,-0.0502511,
Cd3Pu,0.0,-0.050251,
Sn2LuIr,0.0,-0.0502507,
BNPtPu,0.0,-0.050249499999999996,
AlDy2Ir2,0.0,-0.050248600000000004,
Rb2Hg2Tl,0.0,-0.050247599999999996,
SiCl2Pu2,0.0,-0.0502471,
NRePt,0.0,-0.050246,
ScSmAu2,0.0,-0.0502457,
Sn4Ba3Pt4,0.0,-0.0502438,
NiLu2Os,0.0,-0.050241999999999995,
Rh2HfHg,0.0,-0.05024,
NiCe2Ir2,0.0,-0.0502373,
GaSm2Os2,0.0,-0.050236600000000006,
YOs,0.0,-0.0502364,
Cu3SnPu2,0.0,-0.0502363,
Al2Dy3Pt4,0.0,-0.050235,
InBaPb,0.0,-0.0502344,
IHf,0.0,-0.0502341,
PTaOs,0.0,-0.0502303,
CdTe4Tl2Pb,0.0,-0.0502299,
NEu3Pb,0.0,-0.0502262,
InLaTl,0.0,-0.0502255,
PdLaTl,0.0,-0.0502244,
AgDy2Pt,0.0,-0.0502234,
Ba2Ir,0.0,-0.0502227,
MgEr2Os2,0.0,-0.050222,
SrBaHg2,0.0,-0.050220799999999996,
NaLuAu2,0.0,-0.050219099999999996,
NbTe4Tl3,1.0978,-0.050219,
FeDy6Tl2,0.0,-0.0502172,
AgInHg2,0.0,-0.0502161,
Sn2Er6Ir,0.0,-0.0502149,
InNdPt,0.0,-0.0502145,
Sn2LuTl,0.0,-0.0502143,
GaPdPa,0.0,-0.050213299999999995,
CdErHg,0.0,-0.050211399999999996,
OSm4Bi2,0.0,-0.050209699999999996,
Ag2SbPb2,0.0,-0.0502079,
Pd2SnTh,0.0,-0.0502077,
Cu2Er3Tl3,0.0,-0.0502072,
NaErTl2,0.0,-0.050204900000000004,
CaPmTl2,0.0,-0.0502048,
CoDy6Tl2,0.0,-0.0502042,
InLu3,0.0,-0.0502031,
CoNiTa4,0.0,-0.0502015,
AgCdAu2,0.0,-0.0502015,
Pd2InPa,0.0,-0.0502014,
Te3Er4Bi,0.0,-0.0501999,
Rh2GdTl,0.0,-0.0501987,
Rb2Au3,0.0,-0.0501984,
Zr2AuHg,0.0,-0.050197200000000004,
LiTmTl2,0.0,-0.0501965,
CoGa2Ta6,0.0,-0.0501956,
Te2CsHg2,0.0,-0.050192999999999995,
Se3Tl4,0.0,-0.050192,
GaInPb2,0.0,-0.05019,
CrGa2Ta6,0.0,-0.050189500000000005,
Ga2TmPt3,0.0,-0.0501881,
CaAu2,0.0,-0.0501867,
Zr2TaTl,0.0,-0.0501866,
PdTb2Os,0.0,-0.0501858,
K2Pt3Tl,0.0,-0.0501852,
AsIn2Pt3,0.0,-0.0501838,
Cd2InBi2,0.0,-0.0501821,
Y3Ir2Au,0.0,-0.0501816,
As2Au2Tl,0.0,-0.0501785,
SrLa2Au2,0.0,-0.050177,
I2Dy2Pb,0.0,-0.050175899999999996,
Si2NdRe4,0.0,-0.0501756,
CdTbPt,0.0,-0.0501753,
Y3Pt2Au,0.0,-0.0501746,
Sn2LuOs,0.0,-0.050174500000000004,
N2Ho7Pb3,0.0,-0.050174500000000004,
Sn6TbIr4,0.0,-0.050173999999999996,
Te3Au2,0.0,-0.0501727,
NIPa,0.0,-0.0501708,
Sb2Cs3Pt3,0.0,-0.0501705,
CaTmHg2,0.0,-0.05017,
FeNd2Ir2,0.0,-0.0501698,
GaHfAu,0.5759,-0.0501698,
SrSb2Pb2,0.0321,-0.0501691,
Te2Er6W,0.0,-0.0501679,
SiTaIr,0.7484,-0.0501657,
SiHoAu2,0.0,-0.050164499999999994,
Sn2Er6Pt,0.0,-0.0501627,
CoSnTh,0.0,-0.0501623,
CuTb3Os2,0.0,-0.0501614,
Si2AuPu,0.0,-0.0501596,
Rh2Lu2Hg,0.0,-0.0501587,
Y2AuTl,0.0,-0.0501575,
Nb2HfRe,0.0,-0.050156799999999994,
YZrAu2,0.0,-0.050155700000000004,
HZrIr3,0.0,-0.0501538,
Sb3Au2,0.0,-0.0501536,
PdAgHg2,0.0,-0.0501534,
LiCePb2,0.0,-0.0501505,
Ge2ErPu,0.0,-0.05014950000000001,
InNdIr,0.0,-0.050149099999999995,
BDyIr2,0.0,-0.0501488,
BRuHfIr2,0.0,-0.0501487,
TeLa2Tl,0.0,-0.0501487,
BAgPt3,0.0,-0.0501478,
Ge2TbPt3,0.0,-0.050147,
Zr2TaPt,0.0,-0.050146,
ZnTb3Ir2,0.0,-0.0501456,
MgErPt2,0.0,-0.050144799999999996,
Ru2Tm3Pt,0.0,-0.050143900000000005,
NiDy6Tl2,0.0,-0.0501435,
CuTb6Pb2,0.0,-0.0501429,
SeDyBi,0.0,-0.0501419,
ScBaTl2,0.0,-0.050134700000000004,
MnPr2Ir2,0.0,-0.0501344,
CaCd2Au4,0.0,-0.0501335,
AlDy2Pt2,0.0,-0.050133000000000004,
CaPtHg,0.0,-0.050132199999999995,
Si2PrRe4,0.0,-0.0501316,
ScCeAu2,0.0,-0.0501315,
In2BaPt2,0.0,-0.050131300000000004,
ClHgTl,1.0061,-0.050130499999999995,
AlTbPt2,0.0,-0.050129,
Ru2Tm3Ir,0.0,-0.0501269,
CuSbTh,0.067,-0.0501263,
Pd5Bi3,0.0,-0.0501261,
ZnTb3Pt2,0.0,-0.0501256,
GaTa2,0.0,-0.0501248,
La3Au,0.0,-0.0501238,
YAgAu2,0.0,-0.050122599999999996,
In3Tm3Au2,0.0,-0.0501225,
MgErIr2,0.0,-0.0501217,
Si2IrNp,0.0,-0.050121200000000005,
Sb2Er6W,0.0,-0.0501207,
AlErAu2,0.0,-0.0501201,
SbBaPt,0.0,-0.05012,
RbSn2Bi2,0.0,-0.050117800000000004,
SiTb2Pt2,0.0,-0.0501169,
MgCaPt4,0.0,-0.0501165,
Zr2LaPt2,0.0,-0.0501142,
In3Pa,0.0,-0.0501141,
SnTb2Hg,0.0,-0.0501139,
Mn2TbIr3,0.0,-0.0501119,
AgDy2Os,0.0,-0.0501111,
Ga2ErIr3,0.0,-0.050110999999999996,
RhPr6Pb2,0.0,-0.0501106,
InPrPt,0.0,-0.050109499999999994,
Ge2CeIr3,0.0,-0.050107900000000004,
SbLu2,0.0,-0.050107599999999995,
CaNdTl2,0.0,-0.0501075,
Si2LaRe4,0.0,-0.0501071,
Ge2SmIr3,0.0,-0.0501069,
Rh2Tm3Pt,0.0,-0.0501068,
SiTaOs,0.0,-0.050106200000000004,
InCe2Pb,0.0,-0.050106200000000004,
MgEuAu2,0.0,-0.0501036,
CuLu2Ir,0.0,-0.0500996,
RhTb2Au,0.0,-0.0500991,
Zr2CdBi2,0.0,-0.0500979,
BDyPt2,0.0,-0.0500973,
RuTb2Au,0.0,-0.0500959,
BaEu3,0.0,-0.0500952,
Sn3Ac,0.0,-0.050095,
AlWOs,0.0,-0.050094099999999996,
Sc2Pt2Pb,0.0,-0.0500937,
Co2Ho3Tl3,0.0,-0.050092599999999994,
CdDy2Tl,0.0,-0.050092399999999995,
BCdPt3,0.0,-0.0500918,
Cu2BiAc,0.0,-0.050091000000000004,
CaBa2Bi2,0.0,-0.050090499999999996,
CdTbIr,0.0,-0.0500903,
Rh2TmBi,0.0,-0.0500903,
Te2HoTl,0.2452,-0.050088799999999996,
NaAuPb,0.0,-0.0500887,
MnSb2Np,0.0,-0.0500886,
NiSnTh,0.1997,-0.050088,
PdBaPb,0.0,-0.0500879,
GeHfTa,0.0,-0.0500878,
ZnDy3Au2,0.0,-0.050087400000000004,
In2BaIr2,0.0,-0.0500854,
Y2PtAu,0.0,-0.050084899999999995,
SbBaIr,0.0,-0.0500831,
PRhU,0.0,-0.050082999999999996,
Si2SnTh2,0.0,-0.0500798,
MnLa2Ir2,0.0,-0.050079500000000006,
TeLu2,0.0,-0.0500767,
NiGa2Ta6,0.0,-0.0500752,
AlTb6Bi2,0.0,-0.0500745,
InLaPt,0.0,-0.0500742,
N2TaPu,0.0,-0.0500735,
AgSb2Tl2,0.0,-0.0500721,
ZnInU,0.0,-0.0500719,
IBa2Bi,0.6919,-0.0500717,
ScInPb2,0.0,-0.050071199999999996,
Sn3Dy3Pt2,0.0,-0.0500708,
YCePb,0.0,-0.050070500000000004,
SiTb2Os2,0.0,-0.0500702,
SrErPb,0.0,-0.0500702,
PdTbHg,0.0,-0.050069499999999996,
Se2Lu6Re,0.0,-0.0500682,
PdTa,0.0,-0.0500677,
Pd2EuBi,0.0,-0.050067,
GaNd2Ir2,0.0,-0.0500668,
Ni2TmIr3,0.0,-0.050065899999999997,
CaSbPb2,0.0,-0.050061999999999995,
Ga2Au2Bi,0.0,-0.050061100000000004,
STePb2,0.3812,-0.050059,
N2Er7Tl3,0.0,-0.050058,
Sb2Pb,0.0,-0.0500575,
InTbHg,0.0,-0.0500548,
Se2Np,0.0,-0.0500548,
Rh3Th,0.0,-0.0500542,
PMoU,0.0,-0.050053400000000005,
Sn2BaHg2,0.0,-0.0500531,
Ni3Pt5,0.0,-0.050052799999999995,
Sn3Dy3Ir2,0.0,-0.050051000000000005,
Ba2Au,0.0,-0.050049300000000005,
OHf3,0.0,-0.050046799999999995,
Ru2InTh,0.0,-0.0500466,
CaPrTl2,0.0,-0.0500464,
Zn2CdTh2,0.0,-0.050045,
Y2IrAu,0.0,-0.050045,
NiTa2,0.0,-0.0500421,
RuLa6Pb2,0.0,-0.050042,
CdInHg2,0.0,-0.0500419,
Sb2Cs3Au3,1.154,-0.0500415,
RhTe2Pt2,0.0,-0.0500406,
OTePa,0.0,-0.050039900000000005,
Ni2GaPa2,0.0,-0.050039900000000005,
InPrIr,0.0,-0.050039600000000004,
AsTe3Tl3,0.0112,-0.0500386,
Sb2EuAu,0.0,-0.0500386,
CuCe2Ir2,0.0,-0.050038,
CuLu2Pt,0.0,-0.0500356,
Mg2Ba3Bi4,0.0,-0.0500349,
MgHoTl2,0.0,-0.050034100000000005,
In5IrPu,0.0,-0.050033900000000006,
In4Tl3,0.0,-0.0500337,
In2CsTl2,0.0,-0.0500329,
AsLuIr,0.0,-0.0500315,
Ag2AuHg,0.0,-0.0500314,
ZnTb6Pb2,0.0,-0.0500296,
SbDyHf,0.0,-0.0500293,
In3Er3Pt2,0.0,-0.0500279,
YRhHg2,0.0,-0.0500278,
CaLaTl2,0.0,-0.0500274,
FePr2Ir2,0.0,-0.050026600000000004,
SeBrNp,0.0,-0.0500257,
GeGdAu,0.0,-0.050024299999999994,
RhLaPt,0.0,-0.0500227,
ZnGeTa4,0.0,-0.0500204,
Si2OsNp,0.0,-0.0500201,
CdAu,0.0,-0.0500199,
RhLa6Pb2,0.0,-0.050019100000000004,
Nd3Hg,0.0,-0.0500176,
LiPmPb2,0.0,-0.0500173,
SiRuU,0.0,-0.0500134,
YSmPb,0.0,-0.0500129,
Zn2AuU,0.0,-0.0500121,
RhPm2Pb,0.0,-0.050011,
ZrRuTa2,0.0,-0.0500105,
Fe2BrTh2,0.0,-0.0500099,
InLaIr,0.0,-0.0500092,
Ni2Ho3Tl3,0.0,-0.050009,
ScLuBi,0.0,-0.050008699999999996,
BIr2,0.0,-0.050006,
GaNd2Pt2,0.0,-0.0500019,
HoEr3,0.0,-0.049999499999999995,
ZrTcTa2,0.0,-0.0499977,
HTh,0.0,-0.0499969,
BAl2Pt6,0.0,-0.0499961,
Rh2InTh,0.0,-0.0499947,
In5PtPu,0.0,-0.0499942,
GeInTh,0.0,-0.049992800000000004,
FeNd2Os2,0.0,-0.049991799999999996,
LiHf2Re,0.0,-0.0499916,
CuITh,0.0,-0.0499891,
ScNdAu2,0.0,-0.0499891,
In3Er3Ir2,0.0,-0.0499875,
CuEu2Pb,0.0,-0.0499874,
Rh5Pt4,0.0,-0.0499872,
SiSmPt2,0.0,-0.0499869,
CoNd2Ir2,0.0,-0.049986800000000005,
TeLa2Pt,0.0,-0.0499856,
GeRu2Pu,0.0,-0.0499794,
MgHo2Ir2,0.0,-0.049979100000000005,
AgHoHg,0.0,-0.0499788,
YCdAu2,0.0,-0.0499788,
CaAgBi2,0.0,-0.049978299999999996,
SmTm3,0.0,-0.0499764,
FeLa2Ir2,0.0,-0.0499756,
Pd2Tm2Pb,0.0,-0.0499755,
CuDy6Tl2,0.0,-0.0499734,
Sn6SmIr4,0.0,-0.0499724,
CoBaIr2,0.0,-0.0499706,
AlDy2Os2,0.0,-0.0499705,
InSmAu,0.0,-0.0499692,
TeLa2Ir,0.0,-0.0499673,
Ge2NdIr3,0.0,-0.0499673,
CdDyAu,0.0,-0.0499648,
Zr2TaRe,0.0,-0.049963900000000006,
GeNbTh,0.0,-0.049961399999999996,
CaDyAu2,0.0,-0.049961,
Sb2CsHg2,0.0,-0.04996,
Si2PtNp,0.0,-0.049957999999999995,
MgTl2,0.0,-0.0499555,
LiGdHg2,0.0,-0.0499554,
CeTm3,0.0,-0.0499544,
Sn2Sb2U,0.0,-0.0499537,
CuLu2Tl,0.0,-0.0499534,
GaLu2Au,0.0,-0.0499533,
AsLuPt,0.0,-0.049950600000000005,
Ga2ErPt3,0.0,-0.0499502,
CuLu2Os,0.0,-0.0499467,
Zn2Tl2Bi,0.0,-0.0499456,
Sc2Au2Bi,0.0,-0.0499443,
SnTe4HgTl2,0.0,-0.0499433,
ZnTb2Au2,0.0,-0.0499426,
Al3Si2IrPu3,0.0,-0.0499421,
In5OsPu,0.0,-0.0499419,
Sn2Bi,0.0,-0.0499392,
SnSm2Tl,0.0,-0.0499383,
InDy2Hg,0.0,-0.0499375,
SiCePt2,0.0,-0.0499375,
AgHo2Hg,0.0,-0.0499363,
MgHo2Pt2,0.0,-0.0499346,
AsSbPt2,0.0,-0.0499344,
SrAgTl2,0.0,-0.0499342,
Pd2LuPb,0.0,-0.049934,
ScLaAu2,0.0,-0.0499336,
GaBaPt2,0.0,-0.0499321,
GeZr2Ir3,0.0,-0.0499311,
ZnTb3Os2,0.0,-0.049929900000000006,
Ca2Pb3,0.0,-0.0499282,
GaPr2Ir2,0.0,-0.0499271,
ZnTaAu,0.0,-0.049926000000000005,
Pd2Sn2Pu,0.0,-0.0499246,
Te3LuBi,0.8747,-0.0499229,
Ga3Pt2Np,0.0,-0.0499216,
Ge2PrIr3,0.0,-0.049921,
LiLaPb2,0.0,-0.0499207,
Rh2CdPb2,0.0,-0.0499188,
AlSiAc2,0.0,-0.0499157,
N2SNp2,0.0,-0.0499153,
Rb2Au2Hg,0.0,-0.049914900000000005,
Ge2LaIr3,0.0,-0.049914900000000005,
LiLuAu2,0.0,-0.0499148,
LiPtPb,0.0,-0.0499137,
Y2OsAu,0.0,-0.049911000000000004,
Ag2SnPb2,0.0,-0.049909999999999996,
ZnHfIr,0.0,-0.049907400000000005,
Y3Ir2Hg,0.0,-0.049906799999999994,
SbLa2Tl,0.0,-0.0499044,
Mn2TbPt3,0.0,-0.0499028,
CdSb2Tl2,0.0,-0.0499026,
AgGd2,0.0,-0.0499015,
PBr2Th2,0.0,-0.049901400000000005,
YInHg2,0.0,-0.0499003,
PdPm2Pb,0.0,-0.049899700000000005,
Al3Si2OsPu3,0.0,-0.0498981,
Sn6NdIr4,0.0,-0.049897399999999995,
RbTe2Pb2,0.0,-0.0498967,
AsDy2Bi,0.0,-0.0498966,
Ga2HoIr3,0.0,-0.0498956,
SnCe2Tl,0.0,-0.0498937,
PdTeBi,0.0,-0.0498935,
SrRh2Bi2,0.0,-0.0498923,
Ag2LaPt2,0.0,-0.049892200000000005,
Y3Pt2Hg,0.0,-0.0498904,
InCeAu,0.0,-0.0498869,
AsTePt2,0.0,-0.0498859,
YPdHg2,0.0,-0.049883699999999996,
AlSi2Pu2,0.0,-0.049883000000000004,
Ga3Au2Pu,0.0,-0.0498826,
SSeTa4,0.0,-0.049881999999999996,
Al2Tb3Pt4,0.0,-0.049881100000000005,
BTbIr2,0.0,-0.0498801,
AsZrTh,0.0,-0.0498801,
ScSbTh,0.0,-0.0498778,
KHgTl,0.0,-0.049877000000000005,
Al3Si2PtPu3,0.0,-0.0498765,
ZnHg2,0.0,-0.049876399999999994,
PdTb2Au,0.0,-0.0498758,
GeBaAu2,0.0,-0.049874499999999995,
YRu2Pa,0.0,-0.049872599999999996,
GaGe2Th2,0.0,-0.0498718,
KLa2Pb2,0.0,-0.0498716,
P4Pa3,0.0,-0.0498706,
RhSbHf2,0.0,-0.04987,
GaPr2Pt2,0.0,-0.049869500000000004,
PLaIr2,0.0,-0.0498688,
SiDyAu2,0.0,-0.0498677,
BCPtPu,0.0,-0.0498671,
CLu2Pb,0.0,-0.049866999999999995,
KPt2,0.0,-0.049866799999999996,
CuLaAu2,0.0,-0.0498614,
PmTm3,0.0,-0.0498604,
Mo2HfTa,0.0,-0.0498586,
PPmIr2,0.0,-0.0498585,
NbTa,0.0,-0.0498577,
I4Th,1.7593,-0.049857399999999996,
SeTePt2,0.0,-0.0498568,
CuCe2Os2,0.0,-0.049855,
Rh2PdTh,0.0,-0.0498548,
SiW2,0.0,-0.0498545,
CoCeHg2,0.0,-0.0498529,
FePr2Os2,0.0,-0.0498504,
Sn2CsAu2,0.0,-0.0498491,
ZnSmAu2,0.0,-0.0498476,
Ru2Tm3Au,0.0,-0.0498474,
In2GdPt,0.0,-0.049844700000000006,
CoPr2Ir2,0.0,-0.0498446,
Ti3Au5,0.0,-0.0498442,
Al2IrPu,0.0,-0.0498433,
GaLa2Ir2,0.0,-0.0498418,
BIrPt,0.0,-0.0498409,
Cu2TlTh,0.0,-0.0498359,
GaNd2Os2,0.0,-0.0498336,
Te2TmAu,0.1319,-0.049832999999999995,
BTbPt2,0.0,-0.049831600000000004,
LiErTl2,0.0,-0.049831200000000006,
Cd2SbPb2,0.0,-0.0498287,
Pd2Lu2Hg,0.0,-0.0498282,
SeTbBi,0.0,-0.0498245,
Ni2ErIr3,0.0,-0.0498241,
Pd2GdTl,0.0,-0.0498211,
InTb2Au,0.0,-0.0498209,
AgSmTl,0.0,-0.049819,
RhTe2Lu6,0.0,-0.0498183,
CoSb2Np,0.0,-0.049812800000000004,