formula,bg,formation_energy,mp-id
Li3PrBi2,0.0,-0.035392400000000004,
ZnPd2La3,0.0,-0.035392400000000004,
CaAg4Pb,0.0,-0.0353919,
Si2TbPt,0.0,-0.035391,
OAgTeGd,0.9025,-0.0353908,
Al2MnNp,0.0,-0.035390700000000004,
LiTcTm2,0.0,-0.0353902,
BNFeU,0.0,-0.0353896,
GeRu3La2,0.0,-0.0353896,
Ga2CdLu2,0.0,-0.0353892,
RuSn,0.0685,-0.0353885,
S3TeTl2,0.9508,-0.0353881,
Si3RhPu,0.0,-0.0353877,
NZr3Au,0.0,-0.0353875,
Pd3In2Pr,0.0,-0.0353872,
HMo3Au,0.0,-0.035386600000000004,
Na2SrTl2,0.0,-0.035385599999999996,
NiSnTm,0.0,-0.0353855,
CuIn3Tb2,0.0,-0.035384099999999995,
P2Ba2Tl,0.0,-0.035384099999999995,
N2TmHf,0.0,-0.0353838,
AlCuGd2,0.0,-0.0353838,
Pd3In2La,0.0,-0.0353834,
Cu2InLu2,0.0,-0.0353831,
P2CoPa,0.0,-0.035382800000000006,
CrNiIr,0.0,-0.0353825,
CoEu,0.0,-0.0353825,
Y5Pt,0.0,-0.035382399999999994,
ZnPd2Tb2,0.0,-0.035382399999999994,
SeTb,0.0,-0.0353821,
Co2Sn4Au,0.0,-0.035381300000000004,
Al2Pr2Tl,0.0,-0.0353809,
Ni2CdHo3,0.0,-0.0353806,
S2PrTl,1.2877,-0.035380299999999996,
Al2PdHf2,0.0,-0.035380299999999996,
AsSe3Tb4,0.0,-0.035379600000000004,
PNiLu2,0.0,-0.035378799999999995,
Si2NiU,0.0,-0.0353783,
Pd4InNd,0.0,-0.0353779,
Rb2I6Sm,0.0,-0.035377000000000006,
BAl2SmRe2,0.0,-0.0353761,
Al2RbAu2,0.0,-0.0353752,
CoRh2Sm2,0.0,-0.0353741,
FeAgI6Cs2,0.0,-0.0353741,
AgCdLa,0.0,-0.0353733,
NFIn2Nd6,0.0,-0.0353733,
BCErIr,0.0,-0.035372799999999996,
Al5Os2Th,0.0,-0.0353727,
Ga3Nd2Ir,0.0,-0.0353724,
GeRh3La2,0.0,-0.0353718,
GaTe2Tb,0.0,-0.0353701,
YRh4Ce,0.0,-0.035369199999999996,
Mn2RhAu,0.0,-0.0353682,
N3MoPu,0.0,-0.035368000000000004,
NiSb2Dy,0.0,-0.0353675,
MnAsTa,0.0,-0.0353671,
Cu2Sb2Tl,0.0,-0.0353669,
Co2CdLu2,0.0,-0.0353658,
N3Tm4,0.0,-0.035365,
GeMoEr,0.0,-0.0353649,
GePd2Eu,0.0,-0.0353649,
S3CsPt2,1.273,-0.0353648,
NiIEr,0.0,-0.0353638,
HRh3Tl,0.0,-0.035363599999999995,
K3Ge4Ir4,0.0,-0.0353631,
O2IBaBi,2.8247,-0.0353629,
Ag2InBa2,0.0,-0.0353625,
SrIn2Er,0.0,-0.0353625,
ClSe4InBi2,0.9611,-0.035361800000000006,
Fe2RhPt,0.0,-0.0353611,
Li2ZrAu2,0.0,-0.0353606,
ZrPd2Te3,0.0,-0.035360300000000004,
AlCo2Ta2,0.0,-0.035360300000000004,
SPd5Tl,0.0,-0.03535990000000001,
LiAs2Rh2Th,0.0,-0.03535990000000001,
TiGa2Hf2,0.0,-0.0353594,
CdBa,0.0,-0.0353592,
K2SrHg2,0.0,-0.0353588,
Rh2PdTe2,0.0,-0.035357799999999995,
YSbTe,0.0,-0.035357,
BeTeHf,0.0,-0.0353567,
SeINd,2.1575,-0.0353567,
K3Pd3Bi2,0.0,-0.035356099999999994,
LiAg2Pb,0.0,-0.0353555,
Nb5Sb4,0.0,-0.035354500000000004,
MgRh2Hg,0.0,-0.035354500000000004,
Se7Tm5,0.0,-0.0353536,
ScY2Au,0.0,-0.035353,
Br6Cs2Pu,0.1663,-0.035352299999999996,
CuAgTb2,0.0,-0.0353522,
SiPd3Ho2,0.0,-0.0353512,
In5La,0.0,-0.0353511,
GeTeTb,0.0,-0.03535,
Mn2W,0.0,-0.0353499,
Pd5Ce,0.0,-0.0353499,
O2TeLu2,0.5995,-0.0353498,
Ag2InNd,0.0,-0.0353497,
C2InTm3,0.0,-0.0353495,
Zn3ZrAu2,0.0,-0.035349200000000004,
LiRb2I6Bi,1.9209,-0.0353472,
Mg2YHg2,0.0,-0.0353463,
SrSnI4,2.1387,-0.0353447,
Sc6AuBi2,0.0,-0.035344499999999994,
GeSnHo,0.0,-0.0353442,
Cr4TaOs,0.0,-0.0353433,
Ga4Pu,0.0,-0.035343000000000006,
Ni2PdDy3,0.0,-0.035342900000000003,
BeZrAu,0.0,-0.035342599999999995,
NiRh2Lu,0.0,-0.0353425,
O6Bi2Np,0.4044,-0.0353423,
Ge3SmIr,0.0,-0.0353416,
Cd5Gd,0.0,-0.035340899999999995,
Cu2BaIr,0.0,-0.035340699999999996,
CoAsEr2,0.0,-0.0353404,
CuTe2Dy,0.0,-0.0353402,
Al2ZnDy6,0.0,-0.0353401,
FeSb2Tb,0.0,-0.03534,
Pd8Tm,0.0,-0.0353399,
PPdGd,0.0,-0.035339300000000004,
Li5Pb4,0.0,-0.0353392,
Al3Sn2Ho3Au,0.0,-0.0353392,
Rh2Sb,0.0,-0.0353392,
CuSb2Ho,0.0,-0.0353385,
LiTe2Gd,0.4518,-0.035336,
TiSbEr,0.0,-0.0353359,
Cr2NbRe,0.0,-0.035335700000000005,
Fe2RhRe,0.0,-0.0353353,
GaTcCe2,0.0,-0.0353347,
MnIHo,0.0,-0.0353338,
CuI6Cs2,0.0,-0.0353337,
Ge3CeOs,0.0,-0.0353336,
AlAgEr2,0.0,-0.035333500000000004,
GeInTm,0.0,-0.035333500000000004,
CuAsPt,0.0,-0.0353328,
Se4SrSnAu2,0.4902,-0.0353325,
Sc2Pb,0.0,-0.0353321,
Sc2TeTl,0.0,-0.035331299999999996,
LiSrBi,0.5005,-0.0353306,
Al2SrHg2,0.0,-0.0353288,
GePdLa2,0.0,-0.0353286,
As2RhDy2,0.0,-0.0353284,
SrSn2Ba2,0.0,-0.035327700000000004,
CGe2Y2W2,0.0,-0.035327,
OPdPr3,0.0,-0.0353269,
Sc2RhPb,0.0,-0.0353268,
Li2AgAu2,0.0,-0.035326500000000004,
CaAgTe3Tm,0.6304,-0.035325699999999995,
OZr3Tl,0.0,-0.0353253,
PTeLa2,0.0,-0.0353249,
SiSrPt,0.0,-0.035324100000000004,
Cr4TaIr,0.0,-0.035322200000000005,
CInNd3,0.0,-0.035321,
CaNiBi,0.0,-0.0353195,
O4IDyBi2,1.384,-0.0353194,
AgCd2Dy,0.0,-0.0353185,
YIn2Pm,0.0,-0.0353185,
SeILa,2.4671,-0.0353181,
Mn4TaOs,0.0,-0.0353181,
RhSn,0.0,-0.035317999999999995,
Al2FeNp,0.0,-0.0353173,
FeIHo,0.0,-0.035316,
Rb2AgHg,0.0,-0.0353159,
Cl3SnGd3,0.0,-0.0353159,
BeRh2Ta,0.0,-0.0353159,
Ni3Se2Bi2,0.0,-0.0353158,
Al4Pt2Au,0.0,-0.0353151,
Cr2MoW,0.0,-0.035314700000000004,
GeRb2Te4Hg,0.3303,-0.0353143,
Y5Os,0.0,-0.0353135,
GaRhEu,0.0,-0.0353134,
Zn5Ir3,0.0,-0.0353132,
NaIn3Ir,0.0,-0.035312600000000006,
Rb2Ag3Pb,0.0,-0.035312399999999994,
MgCdAu,0.0,-0.0353116,
Ti2RhOs,0.0,-0.0353115,
Se3SrErAu,1.0236,-0.0353107,
O4Pt2Pb,0.0,-0.0353102,
NiSb2Cs5,0.0,-0.0353102,
Rh7Sm,0.0,-0.0353101,
Ga2Sn2Tl,0.0,-0.03531,
Ga3Ge2Er3Ir,0.0,-0.0353099,
K3Ge4Pt4,0.0,-0.0353098,
MnFeW,0.0,-0.0353095,
AsTeSm,0.1468,-0.0353093,
Al3Sn2Dy3Ir,0.0,-0.035308599999999996,
AgTe2,0.0,-0.0353082,
Sc2TcPb,0.0,-0.0353078,
SiRu2Tb2,0.0,-0.035307200000000004,
Ge2RhSn3Nd3,0.0,-0.0353063,
ScI4Cs2,0.0,-0.0353057,
Cu2Ge2Np,0.0,-0.0353035,
SiSrIr,0.0,-0.0353032,
Si2DyRe,0.0,-0.0353029,
C2CoU,0.0,-0.035302799999999995,
MgRbBi,0.3458,-0.0353025,
Ga2InPb,0.0,-0.0353024,
AsZrTm,0.0,-0.0353023,
PBr2Gd2,0.0,-0.035302,
Ga6IrPu,0.0,-0.035301400000000004,
NiSn3Er,0.0,-0.035301400000000004,
SiI2Pr2,0.0,-0.035301099999999995,
NiRu3Ce2,0.0,-0.0353002,
Zn2SnLu2,0.0,-0.0353002,
GaPd2Lu,0.0,-0.0352997,
CaPd4Hg,0.0,-0.0352988,
ScSn2La2,0.0,-0.035298699999999995,
AsTeCe,0.0,-0.0352984,
B5Ho2Re3,0.0,-0.0352981,
Ti2MoIr,0.0,-0.035298,
MgSc2Au2,0.0,-0.0352979,
RuPd2Te2,0.0,-0.035297800000000004,
Zn2RuHo3,0.0,-0.0352977,
Ga3RuSn2Tm3,0.0,-0.035297199999999994,
S3SbEr4,0.0,-0.0352969,
ZnAg2Sm3,0.0,-0.0352966,
GeSb4Te4,0.03,-0.0352962,
YAg2Ho,0.0,-0.035295499999999994,
PdIn5Nd,0.0,-0.0352952,
CoSb2Tb,0.0,-0.035295,
GePd2Nd2,0.0,-0.0352939,
B2FeIr2,0.0,-0.0352935,
RhCd2Sm,0.0,-0.035293,
CaPm3,0.0,-0.0352928,
RuIn3Ba,0.0,-0.0352924,
Cd7Au,0.0,-0.0352919,
RhAg2La,0.0,-0.0352919,
Pd7Ho,0.0,-0.0352914,
Tc8Sb,0.0,-0.0352914,
Ag2CdTb,0.0,-0.0352908,
Mn2Ge2Pa,0.0,-0.0352907,
Pd5Sm,0.0,-0.0352906,
Co2SnTm2,0.0,-0.0352904,
NInTb2,0.0,-0.0352896,
Ge3SmOs,0.0,-0.035289299999999996,
Pd2InBa,0.0,-0.0352892,
Al2ScPt2,0.0,-0.035288200000000006,
Na2CdHg2,0.0,-0.0352877,
Rh2PdSn4,0.0,-0.0352874,
Br2In2Hg,0.4767,-0.0352873,
AsPdHo,0.0,-0.035287,
CuSb2Cs5,0.9244,-0.0352868,
AlYHg,0.0,-0.0352861,
Si2CaOs2,0.0,-0.035285699999999996,
Zn5Pt3,0.0,-0.0352855,
GeITb,0.0,-0.0352847,
Al3Ge2Gd3Ir,0.0,-0.035284300000000005,
CuY2Hg,0.0,-0.035283499999999995,
LiRh2Pt,0.0,-0.0352832,
H2TcTa2,0.0,-0.0352832,
Ni2GaAc,0.0,-0.035281999999999994,
LiCa2Pb2,0.0,-0.035281999999999994,
SiI2La2,0.1881,-0.0352813,
Al4Re3,0.0,-0.0352813,
MnRh2Nd2,0.0,-0.0352812,
Ni2ITm2,0.0,-0.035280700000000005,
CInDy2,0.0,-0.0352802,
SiRu3Tb2,0.0,-0.035279200000000004,
Ag2Sn2Ba,0.0,-0.035279000000000005,
Mg2Th,0.0,-0.035278399999999994,
Ag2InPr,0.0,-0.035276800000000004,
CaSrTl,0.0,-0.0352763,
GeBr2Lu2,0.0012,-0.0352754,
CoZn2Th,0.0,-0.0352744,
MgEr2,0.0,-0.035274099999999996,
HZr3Bi,0.0,-0.035273200000000005,
CSi2Mo2Pu,0.0,-0.0352731,
Rh3Ba,0.0,-0.0352729,
SiRh2Tb2,0.0,-0.0352727,
Be2PdTa2,0.0,-0.0352717,
BNDyIr,0.0,-0.0352712,
NaCd2Pb,0.0,-0.0352708,
Ti2TcPt,0.0,-0.035270699999999995,
SeIPr,2.1781,-0.0352706,
LiCdSnIr,0.0,-0.0352701,
AlPdHo2,0.0,-0.0352692,
Mn4TaIr,0.0,-0.0352689,
LiCdSnPt,0.0,-0.035268799999999996,
AlPdHf,0.0,-0.0352678,
CaSb2La2,0.0,-0.035267400000000004,
Ca2CuAu2,0.0,-0.035267,
Cu2I4Hg,0.5912,-0.0352665,
Al2ErIr,0.0,-0.035266399999999996,
N6Ni2Th3,0.0,-0.035265500000000005,
SiRhGd,0.0,-0.035265,
CaCuLaIr,0.0,-0.035264899999999995,
Ga3RhSn2Tm3,0.0,-0.035264699999999996,
C4Lu3Os,0.0,-0.0352645,
Fe2W,0.0,-0.0352641,
Ga2CsAu,0.0,-0.035263800000000005,
AlInHo2,0.0,-0.0352636,
Ti2Ir,0.0,-0.035263199999999995,
CuSnPm2,0.0,-0.035263199999999995,
GaAgI6Cs2,0.0,-0.0352631,
NaAs2Pd2Th,0.0,-0.0352629,
Ga3Pr2Ir,0.0,-0.0352627,
Se5SnIr2,0.4955,-0.0352621,
Ag5Eu,0.0,-0.035261299999999995,
Co2Os,0.0,-0.0352612,
Ge2Y2Bi,0.0,-0.0352603,
MgTcEr2,0.0,-0.0352598,
YCd2La2,0.0,-0.0352598,
Zn2Ge2Pu,0.0,-0.035259500000000006,
C4Lu3Ir,0.0,-0.035259500000000006,
Ti2Os,0.0,-0.035259399999999996,
PdIn5Pr,0.0,-0.035259399999999996,
CdI2,2.0105,-0.0352593,
Li2GdPb,0.0,-0.0352592,
LiPdAu,0.0,-0.0352582,
Ga5EuPt2,0.0,-0.0352581,
Ni3Hf2,0.0,-0.035257800000000006,
ZnBa5,0.0,-0.035257199999999995,
TiGeAu,0.0,-0.0352568,
LiAlRb2Bi2,0.5433,-0.035256,
Ga3Ge2Er3Os,0.0,-0.0352547,
Rh4CdNd,0.0,-0.0352542,
Al2CrNp,0.0,-0.035254,
Al3Lu4,0.0,-0.035254,
YRu4La,0.0,-0.035253799999999995,
BrSr2Tl,0.0,-0.035253799999999995,
O7La2Pu2,0.0,-0.0352533,
LiCdEu2,0.0,-0.0352526,
Se2CsLu,1.7181,-0.0352525,
RhInSb,0.0,-0.035252000000000006,
Mn2IEr2,0.0,-0.035251199999999996,
Ga2ErLu,0.0,-0.035251,
CdSnSb2,0.0725,-0.0352508,
MnGe2In3Tm3,0.0,-0.0352506,
CuZnLu2,0.0,-0.035250500000000004,
BeYIr,0.0,-0.0352494,
MnRu2Nd2,0.0,-0.0352493,
Fe2TcW,0.0,-0.0352491,
MnCoInPt,0.0,-0.0352484,
As2CdEr2,0.0,-0.0352471,
F2La2Au,0.0,-0.0352471,
P2NiAu2,0.0,-0.0352467,
CPEr3,0.0,-0.035246099999999995,
Al3Sn2Dy3Os,0.0,-0.0352457,
ZrInTe2,0.0,-0.0352455,
AlPd2Ho2,0.0,-0.0352452,
NiAsEr2,0.0,-0.0352448,
Tc2Sn,0.0,-0.035244500000000005,
Ge3Ba2Pt,0.0,-0.035243899999999995,
PdIn5La,0.0,-0.035242600000000006,
Ni2Sn4Au,0.0,-0.0352423,
MnRh2Tm,0.0,-0.0352418,
Cu3Rh2Th,0.0,-0.0352417,
Ni2SbIr,0.0,-0.035241100000000004,
Cd2Nd,0.0,-0.0352408,
GaPdSm2,0.0,-0.03524,
Sc2LaHg,0.0,-0.0352396,
BeRb4Bi2,0.497,-0.0352395,
SiNi2Th,0.0,-0.035238,
AlRh2Dy2,0.0,-0.0352379,
Co2Te3Hf,0.0,-0.0352378,
BrTeLa,0.3221,-0.0352376,
Mg2SrIr2,0.0,-0.035236800000000006,
Mg2RbTl2,0.0,-0.0352366,
TiGaRhIr,0.0,-0.035236199999999995,
Fe4TaIr,0.0,-0.035236199999999995,
PdSn2,0.0,-0.035235999999999996,
BNCoU,0.0,-0.0352359,
LiCdTl,0.0,-0.035235100000000005,
Ca3Tl2,0.0,-0.035234699999999994,
PAsTm2,0.0,-0.0352341,
Ge2CeLu,0.0,-0.0352332,
Co2MoOs,0.0,-0.0352327,
BAl2NdRe2,0.0,-0.035231900000000003,
NbRhSb,0.0,-0.0352314,
SiRh3Tb2,0.0,-0.0352305,
Rh2In2Ba,0.0,-0.03523,
Ga4TmHf2,0.0,-0.03523,
Fe4TaOs,0.0,-0.035229500000000004,
Al3Sn2Dy3Pt,0.0,-0.0352286,
GeAgEu,0.0,-0.0352284,
N2Ga3Ho7,0.0,-0.0352279,
SeSbNd,0.0,-0.0352279,
Ge2CdTm2,0.0,-0.035227800000000004,
AsSbBa2,0.0,-0.035227800000000004,
Co2MoIr,0.0,-0.0352277,
HI2Gd,1.4071,-0.0352269,
Y6Sn2Ir,0.0,-0.035226799999999996,
SiY2Tl,0.0,-0.035225700000000006,
SrBa3,0.0,-0.0352248,
B2NbHf2,0.0,-0.0352247,
S3Cs2Th,2.3782,-0.035224,
CdTe2,0.3758,-0.035223700000000004,
Ga2CdBi,0.0,-0.035223500000000005,
RhPd2Te2,0.0,-0.035223199999999996,
LiPdTm2,0.0,-0.035223199999999996,
SiGd,0.0,-0.0352227,
LiP2SmAu2,0.0,-0.0352226,
AgTeI,0.2841,-0.0352224,
Co2CuHf2,0.0,-0.0352223,
Al2ErPt,0.0,-0.0352221,
Ag2InLa,0.0,-0.0352219,
Al3Ge2Gd3Os,0.0,-0.0352214,
Ge2InEr2,0.0,-0.0352209,
AlZr2Au,0.0,-0.0352209,
Fe2IEr2,0.0,-0.0352206,
Ga3Ge2Er3Pt,0.0,-0.0352204,
LiAs2SrPt2,0.0,-0.0352203,
Ge2RhSn3Pr3,0.0,-0.0352183,
Co2Ir,0.0,-0.035218000000000006,
SiZrHf,0.0,-0.0352179,
Ag2Sb2Cs,0.0,-0.035217,
AlRb2I6Tl,1.3903,-0.035216700000000004,
Zn2SrAc,0.0,-0.035216700000000004,
YCd2Er,0.0,-0.0352164,
Co2TcOs,0.0,-0.0352161,
ZnPd2Gd,0.0,-0.0352158,
YIn2Nd,0.0,-0.0352152,
SiPd2Dy2,0.0,-0.0352147,
HSiGaPu,0.0,-0.0352146,
CuYI6Cs2,1.7839,-0.0352145,
Ge3CePt,0.0,-0.0352145,
Se2AgAu,0.0,-0.0352142,
SiCu2Pa,0.0,-0.035214100000000005,
Al2KPb2,0.0,-0.0352135,
GaBr3Eu3,0.0,-0.0352135,
CoSn2Er,0.0,-0.035213299999999996,
Fe4SnU,0.0,-0.0352131,
AlFe2Th,0.0,-0.035213,
Ti2MoOs,0.0,-0.035212200000000006,
AlMn2Th,0.0,-0.0352111,
BNDyOs,0.0,-0.0352108,
O2KPu,0.0,-0.0352102,
NaI3Eu,0.3869,-0.035210099999999994,
LiP2CeAu2,0.0,-0.0352093,
CrSe4Np,0.0,-0.035209000000000004,
TiGaPt,0.0,-0.035209000000000004,
Li2InHg2,0.0,-0.0352088,
Al3Ge2Gd3Pt,0.0,-0.0352087,
Pd5Pm,0.0,-0.035208500000000004,
SiTe4Ba2,0.9404,-0.0352078,
Li2CdAu2,0.0,-0.0352074,
CoGe3Pa,0.0,-0.0352073,
Y6Sn2Pt,0.0,-0.0352071,
BeYPt,0.0,-0.0352069,
GaRuPm2,0.0,-0.0352064,
AlRu2Dy2,0.0,-0.035206,
Zn3Pd2U,0.0,-0.035206,
AgSb2,0.0,-0.0352059,
MgSn2Dy2,0.0,-0.035205,
Si3Pu,0.0,-0.035204900000000004,
NFIn2Pr6,0.0,-0.0352044,
ScCrOs,0.0,-0.035204099999999995,
Ti2RuRe,0.0,-0.0352037,
Ca2Sb2Bi,0.0,-0.035203200000000004,
LiPdSnHg,0.0,-0.035203000000000005,
FeGe2In3Tm3,0.0,-0.0352029,
Si2HoAu,0.0,-0.0352027,
SrSn2Pm,0.0,-0.035202599999999994,
RhIn3Ba,0.0,-0.035202399999999995,
GeAgPm2,0.0,-0.0352016,
Fe2Tb3,0.0,-0.0352012,
Cu2In3Ho3,0.0,-0.0352006,
As2PdDy2,0.0,-0.0352,
MgPd2Hg,0.0,-0.0352,
SeSbLa,0.0,-0.0352,
Ga2Tb3,0.0,-0.0351999,
NiRh2Ce2,0.0,-0.035198900000000005,
CaIn6Au,0.0,-0.0351982,
SiY2Ir,0.0,-0.035198,
Ge3NdIr,0.0,-0.0351971,
B5Tb2Os3,0.0,-0.0351962,
Rh2Te,0.0,-0.035196,
Se2Ag2Tl,0.0,-0.0351958,
GaRhPm2,0.0,-0.0351958,
KAsPb,0.4405,-0.0351956,
Ca2ScAu2,0.0,-0.0351954,
As2YAu,0.0,-0.035194899999999994,
KTe2Tm,1.1364,-0.035194699999999995,
O2HoPt,0.0,-0.0351946,
AsRhDy,0.0,-0.0351941,
YInLa,0.0,-0.035193800000000004,
SiLa3,0.0,-0.035193600000000005,
MoTc2Sn,0.0,-0.035192999999999995,
In3Te2,0.0,-0.035192799999999996,
YI2,0.0,-0.0351918,
S3ZrTl2,0.5071,-0.0351918,
ClLa3,0.0,-0.0351912,
Mn4TaRe,0.0,-0.035191099999999996,
S2TbAu,0.5926,-0.0351909,
Ge2YIr,0.0,-0.0351907,
LiInTm2,0.0,-0.035189500000000005,
AgInBa,0.0,-0.035189399999999996,
FeNiIr,0.0,-0.0351886,
Zn2EuGd,0.0,-0.0351886,
SCl2AuBi,1.2517,-0.0351885,
Rh4CdPr,0.0,-0.0351883,
AsTb,0.0,-0.0351883,
CoGe2In3Tm3,0.0,-0.0351877,
Ge2PdSn3Nd3,0.0,-0.0351873,
SiSrOs,0.0,-0.0351871,
YRh6Sb4,0.0,-0.035186999999999996,
Ti2RhIr,0.0,-0.0351869,
O4ITbBi2,1.3663,-0.035186300000000004,
As2Hf,0.0,-0.0351858,
Ge2RhSn3La3,0.0,-0.0351858,
Ge2SnHo2,0.0,-0.035185,
CoPdSm2,0.0,-0.035183900000000004,
BAl2PrRe2,0.0,-0.0351834,
ZrSnSb,0.0,-0.0351834,
Sr3BaHg,0.0,-0.035182200000000004,
Fe2ZnHf2,0.0,-0.0351816,
CoSbHo,0.0,-0.0351816,
CoRhPm2,0.0,-0.0351809,
GePdEr,0.0,-0.035180300000000005,
ZnSnSm2,0.0,-0.035180300000000005,
Sc2SbPt,0.0,-0.0351802,
Sc2SbTl,0.0,-0.0351796,
SiY2Pt,0.0,-0.0351783,
NCuHo3,0.0,-0.0351779,
Y6Te2W,0.0,-0.035177599999999996,
Ga2Ru4Tb3,0.0,-0.0351771,
Zn2CdEr3,0.0,-0.0351757,
GeRh2Er,0.0,-0.0351756,
CGeDy3,0.0,-0.035175,
Ni2CdLu2,0.0,-0.035174300000000006,
Ti3FeRe2,0.0,-0.0351739,
Ge3LaIr,0.0,-0.0351727,
Cu2As2U,0.0,-0.0351717,
Ge3SmPt,0.0,-0.0351714,
KGa6Au4,0.0,-0.0351712,
Nb3Te2,0.0,-0.0351706,
NiZn2Th,0.0,-0.0351697,
GePd2Pr2,0.0,-0.0351696,
Pd8Er,0.0,-0.0351681,
GaIHo,0.0,-0.0351673,
HI2Tb2,0.0,-0.0351672,
CoRuPm2,0.0,-0.0351662,
PCa2Pt2,0.0,-0.0351657,
SiCa2Ir2,0.0,-0.035165100000000005,
BrAgLa2,0.0,-0.0351646,
Cu2ZnTh,0.0,-0.035164499999999994,
ZnSrHg,0.0,-0.0351636,
ZrRuTe,1.0602,-0.0351636,
Ga3PdHf2,0.0,-0.035162399999999996,
Al7Ta6,0.0,-0.0351618,
NiSbHo,0.3037,-0.0351613,
Ti3MnRe2,0.0,-0.0351613,
AlPm3,0.0,-0.0351606,
Mg3EuAu2,0.0,-0.03516,
TiGaRuPt,0.0,-0.0351599,
Si2ZnNp,0.0,-0.0351597,
Ge2Ta,0.0,-0.035159300000000004,
Co2In3Dy3,0.0,-0.0351592,
NAgDy2,0.0,-0.035158999999999996,
BrTe2Cs2,0.0,-0.035157200000000007,
Cd2Pr,0.0,-0.035156799999999995,
CoIHo,0.0,-0.0351565,
Cu2RuDy3,0.0,-0.0351556,
Co2TcRe,0.0,-0.035154899999999996,
SeSbPr,0.0,-0.035154899999999996,
Ge3PrIr,0.0,-0.0351546,
Zn2PmHg,0.0,-0.0351539,
Ca3Ga4Ir4,0.0,-0.035153,
CaGe2Ac,0.0,-0.0351525,
FeRu2Nd2,0.0,-0.0351523,
FeRh2Nd2,0.0,-0.035152,
Br2SnTb2,0.0,-0.035151600000000005,
CY3Bi,0.0,-0.035150799999999996,
H2MoTa2,0.0,-0.0351507,
CuRu2Ce2,0.0,-0.0351503,
AlIn3Sn2Nd3,0.0,-0.0351486,
LiRh2W,0.0,-0.035148200000000004,
YIn2Pr,0.0,-0.035147599999999994,
CClGd2,0.0,-0.0351473,
BrRuDy,0.0,-0.0351471,
BRh3Hf,0.0,-0.0351468,
Fe2Ge2Pa,0.0,-0.0351467,
AlAg2Au,0.0,-0.035145699999999995,
Rh6CdSb4,0.0,-0.035145499999999996,
BPd3Au,0.0,-0.035145499999999996,
Fe4TaPt,0.0,-0.0351451,
Si2RuCeOs,0.0,-0.0351444,
Cr3ZnRe2,0.0,-0.035144,
NiTcCe2,0.0,-0.0351437,
BPd6Tm2,0.0,-0.0351437,
ZrRhSb,1.2273,-0.0351436,
ZnAg2Ce3,0.0,-0.0351436,
Rh4CdLa,0.0,-0.0351436,
MgInEr2,0.0,-0.0351433,
Pd5Nd,0.0,-0.0351431,
Si2CaPt2,0.0,-0.0351427,
FeGaNbIr,0.0,-0.0351427,
Ti2Pd2Pb,0.0,-0.0351423,
PdCd2Sm,0.0,-0.0351421,
HRu3Ta,0.0,-0.0351412,
Ge3NdOs,0.0,-0.035141,
NISm2,0.0,-0.035140700000000004,
CoSn3Ho,0.0,-0.035140500000000005,
Co2Re,0.0,-0.0351404,
MgFe2Pa,0.0,-0.0351404,
O2HoAu,2.5817,-0.0351381,
CoIn2Lu,0.0,-0.0351381,
Na2KBi2,0.0,-0.0351372,
Ge2Sm3,0.0,-0.0351367,
GeRuHo,0.0,-0.035136600000000004,
FeBr4Tl2,0.0,-0.035136,
CrNiPt,0.0,-0.035136,
Ni2GdDy,0.0,-0.0351359,
Pd7Dy,0.0,-0.035134700000000005,
TiNi2Hf2,0.0,-0.035134700000000005,
CoIn8Ho2,0.0,-0.035134500000000006,
NICe2,0.0,-0.035134,
Ag4Ho,0.0,-0.0351336,
BCMnU,0.0,-0.0351332,
In4Ba,0.0,-0.035133000000000005,
ScGeAu,0.0,-0.0351315,
Zn2As2Np,0.0,-0.035131300000000004,
Be2NbTa2,0.0,-0.035130800000000004,
N2HoTa,0.0,-0.0351294,
Se2CdHg,0.0003,-0.0351282,
MgPd2Er2,0.0,-0.0351277,
Sc6WBi2,0.0,-0.0351269,
RhPd2Sn4,0.0,-0.0351257,
SiCa2Pt2,0.0,-0.035125500000000004,
Cr2Ge2Pa,0.0,-0.035125500000000004,
ZrPdSb2,0.0,-0.035125100000000006,
Fe4WAu,0.0,-0.0351248,
HTa,0.0,-0.0351248,
S2KNp,0.0,-0.0351248,
P2NiPa,0.0,-0.035124499999999996,
SAg2Hg,0.5413,-0.0351224,
NiSb2Tb,0.0,-0.0351215,
Ti2MoPt,0.0,-0.035121400000000004,
Ca3Ga4Pt4,0.0,-0.0351208,
PINd2,0.0,-0.0351206,
Ga2RuIr,0.0,-0.0351205,
InSn3,0.0,-0.035120399999999996,
Si2RhIn3Tm3,0.0,-0.0351203,
AsBr2Eu2,0.0,-0.0351199,
NFIn2La6,0.0,-0.0351194,
Br6Cs2AuBi,0.1452,-0.035119300000000006,
AlCdEr2,0.0,-0.0351181,
Cd7Hg,0.0,-0.0351175,
GeSe3Tb4,0.0,-0.03511740000000001,
GePd2Tm,0.0,-0.0351169,
YIn2La,0.0,-0.0351169,
YRh4La,0.0,-0.0351169,
Sr3Tl,0.0,-0.035115600000000004,
NiSn2Er,0.0,-0.0351145,
Ge2Zr2Ir,0.0,-0.0351141,
Ge2CdIr,0.0,-0.035114,
MgZn2Pt2,0.0,-0.035113700000000005,
NbSn2,0.0,-0.0351123,
Cd2La,0.0,-0.0351106,
AgInTe2,0.0852,-0.0351105,
Cd3Dy,0.0,-0.0351104,
Rb2CdHg,0.0,-0.035109900000000006,
Pd5La,0.0,-0.0351096,
Si3Ho5,0.0,-0.0351094,
NiGe2In3Tm3,0.0,-0.0351094,
MgGaGd2,0.0,-0.0351092,
ClGd,0.0215,-0.0351089,
ClY2Ir,0.0,-0.0351085,
RuInSn2,0.0,-0.0351081,
AlZnGd2,0.0,-0.0351071,
MnRu2Pr2,0.0,-0.0351068,
Rb2Pd2Hg,0.0,-0.0351068,
Ni2As2Pa,0.0,-0.0351065,
Ni2SbPt,0.0,-0.0351061,
H2RhTa2,0.0,-0.0351056,
O5Ti2Te2Pu2,0.0,-0.0351054,
Ti3CoRe2,0.0,-0.0351052,
Ge2Zr2Os,0.0,-0.0351051,
PdIn3Ba,0.0,-0.0351042,
Sr3CsAu,0.0,-0.0351039,
BeAgAu,0.0,-0.0351036,
Ge2PdSn3Pr3,0.0,-0.035103,
OCuHo3,0.0,-0.035103,
NiI4Cs2,0.4953,-0.0351023,
Co3Nd2Os,0.0,-0.035101999999999994,
Mn4TaPt,0.0,-0.035101799999999996,
Pd5Pr,0.0,-0.0351015,
Br2Hf,0.6076,-0.035100700000000006,
Ge3LaOs,0.0,-0.035100099999999995,
B6Ta5,0.0,-0.0351,
Be2SrPt2,0.0,-0.0350993,
Ga3PdSn2Tm3,0.0,-0.0350991,
S7SnBi4,0.523,-0.0350989,
Mo3Sn,0.0,-0.0350989,
Y2Te3,0.3021,-0.0350986,
Ti2TcRe,0.0,-0.035098399999999995,
Ge3PrOs,0.0,-0.0350964,
GaRh2Nd2,0.0,-0.0350955,
CaI4Ce,0.0,-0.0350952,
Ga2Os,0.7117,-0.0350948,
Ge2YOs,0.0,-0.0350946,
Zr8Au,0.0,-0.0350944,
SrSb2Ba,0.0,-0.0350944,
HRh3Ir,0.0,-0.035093400000000004,
Cu3SrPt2,0.0,-0.035093000000000006,
Se3SrHoAu,1.0203,-0.0350927,
F3IPb2,3.045,-0.035092599999999995,
N3TcPu,0.0,-0.035092,
Si3Ir2,0.0,-0.0350917,
ZnSnCe2,0.0,-0.0350914,
CuTe2Tb,0.0,-0.0350914,
Ga2Ir,0.0,-0.0350914,
ZnSbLa2,0.0,-0.0350908,
Zr3Sb4,0.0,-0.0350905,
Br2AgAu,1.6986,-0.0350885,
CY2Tl,0.0,-0.035088299999999996,
HPd3Tl,0.0,-0.0350882,
RhPdSb,0.0,-0.0350882,
O2ErHg,0.0,-0.0350881,
Ge2AgIn3Tb3,0.0,-0.035087200000000006,
CaAgTe3Er,0.6145,-0.0350861,
GaPd2Sm2,0.0,-0.0350861,
CoAsTa,0.0,-0.0350858,
K3As2Pt3,0.0,-0.035085,
SiTb2,0.0,-0.0350845,
LiP2NdAu2,0.0,-0.0350843,
BRh6Ho2,0.0,-0.0350842,
MnSe3TmTl,0.0735,-0.0350824,
BCFeU,0.0,-0.035081600000000004,
S3SnEr4,0.0,-0.0350814,
Al3Lu2Ir,0.0,-0.0350808,
Pd2Sn3,0.0,-0.0350802,
FeNiPt,0.0,-0.0350801,
MgAg2Tl,0.0,-0.035079700000000005,
S2Mo3Te6W,0.0,-0.0350796,
Br6Cs2HgBi,0.0,-0.0350792,
N2CaNp,0.0,-0.0350792,
CuInLu,0.0,-0.0350781,
Cd2Sb3I,0.8273,-0.035077800000000006,
C2HoW,0.0,-0.035077399999999995,
B2N3Er3Ir2,0.0,-0.0350771,
Y5Au,0.0,-0.035077,
PCeTb,0.0,-0.0350769,
NiIn2Lu,0.0,-0.0350767,
Zn3YAu2,0.0,-0.035075699999999994,