formula,bg,formation_energy,mp-id
SiNdHg,0.0,-0.041230800000000005,
PdAg2Au,0.0,-0.041230499999999996,
Mn2SbAc,0.0,-0.0412301,
Ru2AgDy3,0.0,-0.0412293,
Se7SnBi4,0.2478,-0.0412286,
PdSm2,0.0,-0.0412265,
Te2ILa2,0.0,-0.041226,
RhTb,0.0,-0.0412254,
Se3Tl2,0.5956,-0.041224899999999995,
In5DyOs,0.0,-0.041224699999999996,
Nb2Ru2Au,0.0,-0.0412241,
ClNiTh,0.0,-0.0412239,
SiTiTh,0.0,-0.0412236,
MgCoPt2,0.0,-0.041222999999999996,
CoTe2Tl,0.0,-0.0412221,
InCe2,0.0,-0.0412218,
RuRhTb2,0.0,-0.0412215,
N2In3Tm7,0.0,-0.041220599999999996,
CaZn2Au3,0.0,-0.0412198,
CdSn2Er2,0.0,-0.0412195,
MgScIr2,0.0,-0.0412195,
LiIn4Pu,0.0,-0.041219,
INd,0.0,-0.0412181,
Al3NiGe2Th3,0.0,-0.041217500000000004,
MnTe2Pt,0.0,-0.041216,
Se3Pa,0.0,-0.041215800000000004,
Sr3Hg2,0.0,-0.041215600000000005,
LiIn2Hg2,0.0,-0.041215299999999996,
PdAgHo2,0.0,-0.0412149,
Ru2SbLu,0.0,-0.0412145,
ZrTm,0.0,-0.0412143,
MgRh2Ac,0.0,-0.0412132,
RuSbHo,0.0,-0.041213,
Ru2RhTb3,0.0,-0.0412129,
Ti2YPt2,0.0,-0.0412128,
NaLa3Os,0.0,-0.0412126,
InDy,0.0,-0.041212000000000006,
PdSnTm,0.0,-0.0412118,
Ge3Np,0.0,-0.041211399999999995,
OAsRhTh,0.0,-0.0412113,
RhLa3,0.0,-0.0412108,
LiLaPb,0.0,-0.041210500000000004,
NMgHf3,0.0,-0.0412103,
CuSbPt,0.0,-0.041210000000000004,
FeHo3,0.0,-0.0412093,
Y2Rh2Bi,0.0,-0.0412084,
MgSb2Dy6,0.0,-0.0412084,
Rh2Sn3Ho3,0.0,-0.0412065,
In2Lu,0.0,-0.041204300000000006,
NFU,0.0,-0.041203899999999995,
GeZrPt,0.0,-0.0412038,
Al2PrPt2,0.0,-0.041203699999999996,
Sn2LaTb,0.0,-0.0412025,
B2N3Ru2Th3,0.0,-0.041202300000000004,
Pd7Th,0.0,-0.041202199999999994,
CoHo3,0.0,-0.0412011,
NaSrHg2,0.0,-0.041200600000000004,
LiVIr2,0.0,-0.0412005,
RbSn2Pt,0.0,-0.041200400000000005,
MgTbAu,0.0,-0.0411997,
YRh2Ta,0.0,-0.0411983,
K2CdBi2,0.0,-0.041198099999999994,
P2Pa,0.0,-0.041198,
CaPdBi,0.0,-0.0411971,
GaMoOs,0.0,-0.0411959,
AgInHo2,0.0,-0.0411955,
ZnSn2Tb6,0.0,-0.0411946,
Sn3Lu,0.0,-0.0411946,
C2InHf3,0.0,-0.041193,
B2SmIr2,0.0,-0.0411927,
SiHoHf,0.0,-0.0411922,
RuSn2La6,0.0,-0.0411921,
B2CeIr2,0.0,-0.0411897,
Be2Hf2Au,0.0,-0.0411892,
MgRb2BaBi2,0.0838,-0.0411886,
LiSm2Ir,0.0,-0.0411882,
GeSr2Au2,0.0,-0.0411882,
AlTiAu2,0.0,-0.0411881,
YLa7,0.0,-0.041188,
Ca2BaTl2,0.0,-0.0411875,
Cd2Hf,0.0,-0.041187100000000004,
Te3Ho,0.0,-0.0411869,
Zn2RbBi2,0.0,-0.0411867,
Al2LaPt2,0.0,-0.0411859,
Ge2Dy2Hg,0.0,-0.0411856,
Ni4TlPu,0.0,-0.0411847,
Ni2Sb2Th,0.0,-0.0411845,
AlBa2Pb,0.0,-0.0411843,
O4ThU,0.0,-0.0411839,
KTe3TmAu,0.0,-0.0411834,
SiCa2Ir3,0.0,-0.041183199999999996,
MgY2Os2,0.0,-0.0411813,
B2CeOs2,0.0,-0.041181199999999994,
Si2BaOs2,0.0,-0.0411806,
Se2ErAu,0.2563,-0.041179299999999995,
RuTb,0.0,-0.0411789,
TcPr3,0.0,-0.0411789,
ClBa2Tl,0.0,-0.0411781,
Sn2Pr3,0.0,-0.0411779,
GeTeTa,0.0,-0.041177599999999995,
Cd2ErTm,0.0,-0.041177,
GeSbTa,0.0,-0.0411763,
MgCd2Au2,0.0,-0.0411753,
RhCd2Au,0.0,-0.041174999999999996,
Sc4Cu2Tl5,0.0,-0.0411731,
CaTe3HoAu,0.4114,-0.0411731,
CoRhLu2,0.0,-0.0411728,
Te3Cs2Tm,0.0,-0.0411722,
ZrCd2Tl,0.0,-0.0411717,
Co2InTh,0.0,-0.0411715,
CGe2Tb2Re2,0.0,-0.0411715,
Al2LaIr2,0.0,-0.0411712,
MgSmTl,0.0,-0.0411708,
In5TbIr,0.0,-0.0411704,
In4BaTl,0.0,-0.041169899999999995,
MgScPt2,0.0,-0.0411698,
Al4Ge2Pa3,0.0,-0.0411691,
Y3In3Au2,0.0,-0.041168500000000004,
LiGePt2,0.0,-0.0411681,
GaSr2Ir2,0.0,-0.0411679,
KSe2Pu,0.0,-0.0411679,
Ru2In3Tm3,0.0,-0.041167499999999996,
Zr2InHg,0.0,-0.0411669,
Pd3Hf,0.0,-0.0411669,
GaTe2Tl,0.1617,-0.0411667,
RhSbHo,0.0,-0.0411663,
Rh2CdTm2,0.0,-0.0411659,
Co2Tb2Pb,0.0,-0.0411653,
ZnBa2Ir,0.0,-0.0411638,
In4BaIr,0.0,-0.041163,
Rh2SmHo,0.0,-0.041162,
Ge2SrOs2,0.0,-0.041160600000000006,
Fe2SbAc,0.0,-0.0411604,
In4BaPt,0.0,-0.041159799999999996,
SeTeHf,0.0,-0.041159799999999996,
Ga2RbPb2,0.0,-0.0411579,
Co2Tb3Au,0.0,-0.0411565,
Cd2TbLu,0.0,-0.0411562,
Si2NdAu2,0.0,-0.0411561,
RbCs2Hg,0.0,-0.0411556,
AlNdAu,0.0,-0.041155500000000005,
ZrRh2Hf,0.0,-0.0411553,
ScSnOs,0.0,-0.041154699999999995,
Sc2AgPt2,0.0,-0.0411546,
B2ScIr3,0.0,-0.0411542,
Pd4NdHg,0.0,-0.041154,
Fe2LuTl,0.0,-0.0411535,
Pd2InHf,0.0,-0.041153300000000004,
Co4HgPu,0.0,-0.0411532,
N2PrTh,0.0,-0.0411532,
NiGe2Tm6,0.0,-0.0411529,
In2NdTm,0.0,-0.0411524,
SiPrHg,0.0,-0.0411516,
Cu2Sn2U,0.0,-0.0411504,
B2SmOs2,0.0,-0.0411498,
HAsPt2,0.0,-0.0411493,
I6Ba2Eu,0.2309,-0.041147300000000005,
BNU,0.0,-0.0411463,
Cd2In2Bi,0.0,-0.0411452,
AsGd,0.0,-0.0411449,
Co5Ir4,0.0,-0.0411438,
Ni2Dy3Hg,0.0,-0.041143,
Ge2Sn3Ho3Os,0.0,-0.0411427,
B2N3Rh2Th3,0.0,-0.0411424,
SiCa2Pt3,0.0,-0.041141199999999996,
SRhBi,0.3918,-0.041139800000000004,
Ge2SrPt2,0.0,-0.041139699999999994,
Ga2PdTh,0.0,-0.0411391,
Ge6TbIr4,0.0,-0.0411384,
GaHo3,0.0,-0.0411384,
Y2RuPt,0.0,-0.0411375,
InI2Tb2,0.0,-0.041137099999999996,
K2RbAu3,0.0,-0.0411367,
Y2RhIr,0.0,-0.041136000000000006,
Te2BaLa,0.0,-0.0411349,
O2Pa,0.0,-0.041134300000000006,
YPd2Hg,0.0,-0.0411327,
Ag2CdLu2,0.0,-0.0411309,
As2TmAu,0.0,-0.041129399999999997,
AsRuTa,0.553,-0.0411293,
Ge7Ir5,0.0,-0.041127000000000004,
Rh2PrEr,0.0,-0.0411261,
GeTe3Tb4,0.0,-0.041125300000000004,
Cu2Er2Tl,0.0,-0.0411252,
CdLa5,0.0,-0.0411249,
Al2CsPb2,0.0,-0.041122900000000004,
Al3Si2CuU3,0.0,-0.041122399999999996,
SiLaHg,0.0,-0.0411214,
PdPr3,0.0,-0.0411181,
Ru2SmHo,0.0,-0.0411177,
Y2RuIr,0.0,-0.0411158,
IPr,0.0,-0.0411158,
CdSm3,0.0,-0.0411157,
Y2SnAu,0.0,-0.0411151,
Ga3TmPt2,0.0,-0.0411146,
In4Tl,0.0,-0.0411144,
In5TbPt,0.0,-0.0411136,
Y2RhPt,0.0,-0.0411136,
CdCe3,0.0,-0.041113500000000004,
Al2TbAu2,0.0,-0.041112499999999996,
GaRuLu2,0.0,-0.041111800000000004,
Ge2TmIr,0.0,-0.0411115,
FeSb2Ir,0.0,-0.0411109,
Si2PrAu2,0.0,-0.0411104,
ILa,0.0,-0.0411088,
Rh4W,0.0,-0.0411085,
Si2LaAu2,0.0,-0.0411084,
TeI2Nd2,0.0,-0.0411082,
BNRhPu,0.0,-0.0411079,
N2LaTh,0.0,-0.0411078,
CoSr2Ir2,0.0,-0.0411076,
Tc5Pt,0.0,-0.041106699999999996,
Pd4PrHg,0.0,-0.0411053,
AgCd2Tl,0.0,-0.0411052,
NaScTl2,0.0,-0.041104100000000005,
Rh2CeHo,0.0,-0.0411032,
LiPd2Hg2,0.0,-0.0411031,
PCd2Ac,0.0,-0.0411027,
LiBaBi,0.0588,-0.041102400000000004,
Na2LaPb2,0.0,-0.041099899999999995,
NiY3Ir2,0.0,-0.0410989,
AlRh2Hf2,0.0,-0.041098100000000005,
VRhPt,0.0,-0.041097299999999996,
Cr5W4,0.0,-0.041096200000000006,
LiCd2Pt2,0.0,-0.0410952,
Pd3SnEu2,0.0,-0.0410948,
Pd4LaHg,0.0,-0.041094700000000005,
InLa3,0.0,-0.0410926,
Ru2Eu,0.0,-0.0410924,
Sc2ZrPt2,0.0,-0.0410924,
CaTe2Pb,0.9511,-0.0410914,
S2HgPb,1.3367,-0.041090800000000004,
MnSe2Tl2,0.0,-0.041090600000000005,
In5HoAu,0.0,-0.041090299999999996,
C2Er3Tl,0.0,-0.04109,
LiSm2Pt,0.0,-0.041089799999999996,
NiY3Pt2,0.0,-0.0410896,
Zn2CdHf3,0.0,-0.0410893,
Ag3Pt,0.0,-0.0410892,
Ru2PdTb3,0.0,-0.0410892,
SnSm,0.0,-0.041088099999999995,
BeCoPt2,0.0,-0.0410875,
In5TbOs,0.0,-0.0410868,
Li4Ba3Bi4,0.0,-0.041086700000000004,
LiY2Tl2,0.0,-0.041086700000000004,
SrAgHg,0.0,-0.0410851,
MgAg2Th,0.0,-0.0410846,
B4ErIr4,0.0,-0.0410844,
SeRh2Pb,0.0,-0.041084,
Ni2Ho2Tl,0.0,-0.041084,
Rh4Pt,0.0,-0.0410838,
KCs2Bi,0.04,-0.0410838,
Y2CdPb,0.0,-0.0410834,
In2PrTm,0.0,-0.041083100000000004,
FeRhIr,0.0,-0.041082900000000006,
O3TlPa,2.8047,-0.0410824,
InIEr,0.0,-0.041082299999999995,
Pd2Te3Ta,0.0,-0.0410815,
KGaAu2,0.0,-0.041081000000000006,
TcLa3,0.0,-0.0410805,
Zn2Tm2Tl,0.0,-0.0410801,
ZnSbTl,0.0,-0.041079700000000004,
Sn2La3,0.0,-0.0410796,
Ru2CdDy3,0.0,-0.041079300000000006,
CGeTa2,0.0,-0.0410783,
CSi2Lu2Re2,0.0,-0.0410783,
YI6Cs2Tl,2.8431,-0.0410779,
LiCrIr2,0.0,-0.041077199999999994,
LiMnIr2,0.0,-0.0410768,
RuIHo,0.0,-0.0410764,
SeSb2Au,0.0,-0.0410759,
AsCdTl,0.0,-0.041075600000000004,
ClIPb,2.6908,-0.041075400000000005,
BeScIr2,0.0,-0.0410752,
OFIPb2,1.9865,-0.041074,
Zr2CdRe,0.0,-0.0410733,
AlLa2Hg,0.0,-0.0410723,
OMn2Ba2Bi2,0.0,-0.0410719,
Sc2CdTl2,0.0,-0.0410715,
Al3CuU2,0.0,-0.041071399999999994,
As2RuDy6,0.0,-0.0410707,
HSeTh,0.0,-0.041069800000000004,
O2IPb2,0.0,-0.041069800000000004,
Tc5Re,0.0,-0.041069499999999995,
Al3Si2PdTh3,0.0,-0.0410689,
Ge2Nd2Pb,0.0,-0.041067900000000004,
LiRuHf2,0.0,-0.041067900000000004,
PdSb2Eu,0.0,-0.041067599999999996,
KTe3TmHg,0.7531,-0.0410672,
Si2CaPt3,0.0,-0.041067,
P2AgPu,0.0,-0.0410668,
MgCeTl,0.0,-0.0410665,
NaBa2Bi,0.0,-0.0410653,
CdSnDy2,0.0,-0.041065199999999996,
Rh2PdTb3,0.0,-0.0410647,
Rh3SnTm2,0.0,-0.0410644,
Na2CsBi2,0.0,-0.041063499999999996,
CuAs2Np,0.0,-0.0410628,
Ga2BaAc,0.0,-0.0410623,
Ge2Rh3U,0.0,-0.0410615,
P2BaRe2,0.0,-0.0410593,
I3Sm2,0.2343,-0.0410591,
SbI2Nd2,0.0,-0.041056600000000006,
SiCaPt2,0.0,-0.0410552,
BrTe2Au,0.0,-0.0410537,
ZnGeTe4Tl2,0.0,-0.0410537,
KCaTl2,0.0,-0.0410535,
RuSn2Lu,0.0,-0.0410531,
CAl3Ta5,0.0,-0.041052,
AlZnRe2,0.0,-0.041051699999999997,
AlScAu2,0.0,-0.0410512,
CaZnAu2,0.0,-0.0410505,
SiBaIr,0.0,-0.0410503,
TeI2La2,0.0,-0.0410503,
AlPrAu,0.0,-0.041048699999999994,
AlTe2Tb6,0.0,-0.0410482,
BrSb2Au,0.0,-0.0410457,
AlTm3,0.0,-0.041045200000000004,
CrRhPt,0.0,-0.041045200000000004,
NClPa,0.3516,-0.041042999999999996,
Li2BaBi2,0.0,-0.0410429,
In4Pt,0.0,-0.0410428,
SnTeTb,0.0,-0.0410428,
RhSnEr,0.0,-0.041042,
Ag2InHg,0.0,-0.0410419,
In2LaTm,0.0,-0.0410413,
Rh2CdDy3,0.0,-0.041040599999999997,
NiSnPt,0.0,-0.0410402,
LiPm2Tl,0.0,-0.041039400000000004,
YAg2Tl,0.0,-0.041038899999999996,
As2RhDy6,0.0,-0.0410385,
S2IrTl,0.0,-0.0410385,
AsSb2Au,0.0,-0.0410381,
N2Sn3Er7,0.0,-0.0410377,
MnRu2Tm3,0.0,-0.0410344,
S4TaTl3,2.3783,-0.041034,
PRe,0.0,-0.041033,
SeTe2Au,0.0,-0.0410325,
LiCe2Ir,0.0,-0.041032400000000004,
Al2Hf3,0.0,-0.041032400000000004,
NiRuLu2,0.0,-0.0410315,
Co2GePu,0.0,-0.0410306,
NiTcOs,0.0,-0.0410288,
YSbLu,0.0,-0.0410275,
Al3CuGe2Th3,0.0,-0.0410275,
PdCd2Au,0.0,-0.041027299999999996,
I3Dy,2.735,-0.0410272,
Sc2CdPt2,0.0,-0.0410266,
Ga3ErIr2,0.0,-0.0410266,
AlCuPa,0.0,-0.0410263,
NiHo3,0.0,-0.0410249,
CoRuIr,0.0,-0.0410243,
LiSm2Os,0.0,-0.041024099999999994,
Si2BaPt2,0.0,-0.0410238,
C2Ho3Pb,0.0,-0.0410233,
AsTe2Au,0.0,-0.0410232,
RuSnEr,0.0,-0.041023000000000004,
TeI2Pr2,0.0,-0.0410225,
AsI2Tm2,0.0,-0.0410225,
SeI2W,0.0,-0.0410224,
Ag2I2Hg,1.281,-0.0410221,
Rh2PmHo,0.0,-0.0410221,
CrTcW,0.0,-0.0410213,
SiBaPt,0.0,-0.0410211,
Se7InBi4,0.0,-0.041019599999999996,
Te2Sm,0.0,-0.0410195,
Sc2InAu2,0.0,-0.0410183,
PAg2Ac,0.0,-0.041017000000000005,
Pd2In3Tm3,0.0,-0.0410157,
Zr3Re,0.0,-0.041015300000000005,
Zn4CsBi3,0.0,-0.041014800000000004,
AgCdEr2,0.0,-0.0410147,
CdSnLu,0.0,-0.0410141,
CaBaTl,0.0,-0.0410132,
Ru5Os,0.0,-0.0410128,
Ge2TmOs,0.0,-0.041012099999999996,
AgTe3BaLu,0.5555,-0.0410116,
B2NdIr2,0.0,-0.041011000000000006,
MgMnAu2,0.0,-0.0410109,
SeI2Tm2,0.0,-0.0410108,
Ag2SbTe4Bi,0.0,-0.0410097,
BeLa2Ir,0.0,-0.041008899999999994,
Zr2RuTa,0.0,-0.0410081,
Cd2Cs2Hg,0.0,-0.0410081,
CGe2Dy2W2,0.0,-0.041008,
MgCsBi,0.5386,-0.0410069,
SiCuTh,0.0,-0.041006799999999996,
Na2PbBi,0.0,-0.0410067,
SiTe3Ho4,0.0,-0.0410062,
AlSb2Tb6,0.0,-0.0410058,
CSnTm3,0.0,-0.0410058,
Ge2In3Tm3Au,0.0,-0.041005,
Pd8U,0.0,-0.0410042,
RuSb2Tm,0.0,-0.041002000000000004,
Ga2Er2Hg,0.0,-0.041001800000000005,
LiSiPu,0.0,-0.0410015,
LiMnPt2,0.0,-0.041000100000000005,
CGaGd3,0.0,-0.0409989,
Ag2SmLu,0.0,-0.0409988,
Y2InTl,0.0,-0.0409978,
Cd2InAu,0.0,-0.0409959,
Sn6BaPt,0.0,-0.0409948,
Zr2Rh2Tl,0.0,-0.0409947,
CaGaHg2,0.0,-0.040993699999999994,
Zr2TcTa,0.0,-0.040993,
AsZr2Bi,0.0,-0.0409929,
Cr4Re3,0.0,-0.040992600000000004,
RhIHo,0.0,-0.0409923,
KTe2Bi,1.0873,-0.040992100000000004,
Ni2RhTh,0.0,-0.040992,
Ca3Rh2Pb3,0.0,-0.0409904,
NiRhLu2,0.0,-0.040988300000000005,
SeIHf,0.0,-0.040988,
Cu2SnTh,0.0,-0.040987699999999995,
Ag2CdPt,0.0,-0.040987499999999996,
MgSmPt,0.0,-0.0409874,
NaCu2TmBi2,0.0,-0.040986800000000004,
RuPdTb2,0.0,-0.040986600000000005,
B4Y2Ir5,0.0,-0.0409861,
HSNp,0.0,-0.0409857,
LiTcHf2,0.0,-0.0409856,
NRuTm3,0.0,-0.0409855,
NiSbAu,0.0,-0.0409853,
AgSn2Gd,0.0,-0.040984900000000005,
Ag2DyTm,0.0,-0.0409848,
PSbLu2,0.0,-0.0409846,
Ag4LaPb,0.0,-0.0409838,
Ge2TmPt,0.0,-0.0409835,
CaY2Hg2,0.0,-0.0409833,
CaTe3DyAu,0.4009,-0.0409832,
MgGeAu2,0.0,-0.0409828,
FeAs2U,0.0,-0.040982399999999995,
NaCd2Au2,0.0,-0.040982399999999995,
AlSiOs2,0.0,-0.0409823,
MgNiPt2,0.0,-0.0409811,
Nb2Rh2Au,0.0,-0.0409807,
AlLaAu,0.0,-0.040980600000000006,
RhSn2Lu,0.0,-0.0409804,
Ca2LaAu2,0.0,-0.0409803,
RhPdTb2,0.0,-0.0409802,
Co2Er2Hg,0.0,-0.0409792,
CdInHo2,0.0,-0.040979,
CaPt,0.0,-0.0409782,
ScYBi,0.0,-0.0409782,
Pd2Sn3Ho3,0.0,-0.040978099999999996,
ZnBa2Au,0.0,-0.040976399999999996,
In2CeEr,0.0,-0.0409758,
Tc2Tm,0.0,-0.0409756,
SnCe,0.0,-0.0409755,
MgIn2Ac,0.0,-0.0409754,
NaLa2Tl,0.0,-0.0409743,
PFeTa2,0.0,-0.0409738,
Cd2EuDy,0.0,-0.0409728,
Cd2Sn2Tl,0.0,-0.040972299999999996,
Y2Pd2Bi,0.0,-0.0409702,
OZnGdBi,0.0,-0.0409701,
BeNiIr2,0.0,-0.0409701,
Mg6Ir7,0.0,-0.04097,
SbI2La2,0.0,-0.040969700000000005,
Y2PdTl,0.0,-0.040968899999999996,
Ge2Pr2Pb,0.0,-0.0409688,
Rh2In2Au,0.0,-0.0409682,
ZnAgGd2,0.0,-0.0409679,
Pd2SnGd,0.0,-0.040966999999999996,
As6BaPt4,0.2305,-0.0409666,
CMgHf3,0.0,-0.0409659,
NRhTm3,0.0,-0.040965600000000005,
SbI2Pr2,0.0,-0.0409646,
LiTiIr2,0.0,-0.0409646,
Ca2AgPb2,0.0,-0.0409643,
Sn2CeSm,0.0,-0.0409615,
B2NdOs2,0.0,-0.0409604,
NiTe2Tl,0.0,-0.0409602,
FeSbTa,0.8486,-0.0409599,
ScRu2Bi,0.0,-0.0409587,
NiTcIr,0.0,-0.0409584,
Zn2BaHg2,0.0,-0.0409576,
LiCe2Os,0.0,-0.0409574,
Ca2AuTl,0.0,-0.0409563,
Al2LaOs2,0.0,-0.0409555,
In2TbDy,0.0,-0.0409549,
ZnSb2Pb,0.0,-0.040954500000000005,
Fe2Dy2Tl,0.0,-0.0409542,
ZrAg2Au,0.0,-0.0409522,
Al2Np,0.0,-0.0409517,
Cu2InPa,0.0,-0.040948099999999994,
B2PrIr2,0.0,-0.040948,
Fe4Ir3,0.0,-0.0409476,
NiMoIr,0.0,-0.040946800000000005,
As2RbPt2,0.0,-0.0409447,
OTeLaAu,0.8125,-0.040944600000000005,
MgSmIr,0.0,-0.0409442,
Zr2AgAu,0.0,-0.0409437,
SbTeCe,0.0,-0.0409416,
KTe3ErAu,0.0,-0.040941000000000005,
NiSr2Pt2,0.0,-0.0409405,
Co5Pt4,0.0,-0.0409399,
Pd2SnHo2,0.0,-0.040938,
SiSmTa,0.0,-0.040936799999999995,
B2Np,0.0,-0.040936799999999995,
PdAg2Hg,0.0,-0.0409366,
SnI2Sm2,0.0,-0.0409358,
Cu2SnAu2,0.0,-0.0409345,
Se3Nd4Bi,0.0,-0.0409322,
AsSbEr2,0.0,-0.0409321,
LiPm2Ir,0.0,-0.0409317,
MgCeIr,0.0,-0.040931600000000005,
In5DyAu,0.0,-0.040930999999999995,
MgDyHg,0.0,-0.040930999999999995,
MnPd2Bi,0.0,-0.0409305,
Sn2Ho,0.0,-0.0409304,
InTe2Tm,0.0,-0.0409304,
RuPd2Tb3,0.0,-0.040930100000000004,
CoMoPt,0.0,-0.040929900000000005,
Rh2CdHf,0.0,-0.040929,
B2LaIr2,0.0,-0.0409289,
SbTeSm,0.0,-0.0409285,
AlNiAu2,0.0,-0.040928400000000004,
Ge6SmIr4,0.0,-0.0409283,
Ge2La2Pb,0.0,-0.0409278,
CoSb2Ir,0.0,-0.0409278,
RuNd2,0.0,-0.040927700000000004,
LiKPb2,0.0,-0.0409263,
BCuPt2,0.0,-0.0409256,
SbI3La3,0.0,-0.0409256,
RbI3Pt,0.0,-0.0409248,
CuY3Ir2,0.0,-0.0409247,
CrMoW,0.0,-0.0409245,
Ru5Ir,0.0,-0.040924100000000005,
Rh2Eu,0.0,-0.04092369999999999,
Mo5Re,0.0,-0.040923499999999995,
FeRhPt,0.0,-0.0409234,
Y2PdIr,0.0,-0.0409232,
Ge6CeIr4,0.0,-0.0409208,
MgCePt,0.0,-0.040919899999999995,
Rh3InEu2,0.0,-0.0409194,
NaRb2Bi2,0.0,-0.0409194,
Pd2InEr2,0.0,-0.040919,
Ni2Tb2Pb,0.0,-0.040919,
GaI3Pb,1.8938,-0.0409184,
PBa2Pt,0.0,-0.040918300000000005,
Ru2CeDy,0.0,-0.040918300000000005,
Rh2In5Tm4,0.0,-0.0409179,
N2BaPa,0.0,-0.0409177,
GaI2Tl,0.9895,-0.0409177,
P2CsIr2,0.0,-0.0409173,
RuBaLa3,0.0,-0.040915999999999994,
CuY3Pt2,0.0,-0.0409157,
Ru2Tm,0.0,-0.0409152,
Ag2HoEr,0.0,-0.040911499999999996,
P2CsOs2,0.0,-0.0409114,
Ga3Sm2Ir2,0.0,-0.040909799999999996,
CaAs2Pb2,0.0,-0.0409088,
Te3Dy,0.0,-0.040908700000000006,
KScAu2,0.0,-0.040906599999999994,
LiBi,0.0,-0.0409065,
Br3Pa,0.0595,-0.0409062,
CaIr,0.0,-0.040906,
RhTeDy,0.2484,-0.0409054,
CoIn6Pb2,0.0,-0.0409037,
Rh2SbLu,0.0,-0.040903300000000004,
CuAsHf2,0.0,-0.0409026,
NiSr2Ir2,0.0,-0.0409025,
Y2InIr,0.0,-0.0409024,
Cu2Tm2Hg,0.0,-0.040902,
Rh2Cd2Pb,0.0,-0.040902,
SiPt,0.0,-0.0409018,
AsTeHf,0.0,-0.0409015,
Al3Si2ZnU3,0.0,-0.0409013,
AgSnEu,0.0,-0.0409001,
Pd2PmEr,0.0,-0.0408985,
BeScPt2,0.0,-0.0408982,
MgLa2Os,0.0,-0.0408982,
AsYPt,0.0,-0.0408978,
CuBa2Hg,0.0,-0.0408976,
K2PtPb,0.0,-0.040897300000000004,
FeRu2Tm3,0.0,-0.040897300000000004,
LiCrPt2,0.0,-0.040897199999999995,
In2PmEr,0.0,-0.040896999999999996,
B4Y2Os5,0.0,-0.0408969,
GaNbIr,0.0,-0.0408969,
AsYIr,0.0,-0.0408967,
Cu2HfAu,0.0,-0.0408966,
Ni2Tb3Au,0.0,-0.0408965,
Ru2In5Tm4,0.0,-0.0408958,
Y2PdPt,0.0,-0.040895299999999996,
PBa2Ir,0.0,-0.0408943,
SiBaOs,0.0,-0.040893700000000005,
ScAgPb,0.0,-0.040893399999999996,
B2PrOs2,0.0,-0.0408933,
HBi,0.6011,-0.0408928,
MgNdTl,0.0,-0.040892200000000004,
Ga3La3Ir2,0.0,-0.040892000000000005,
K3Sn4Au4,0.0,-0.0408908,
NiRuOs,0.0,-0.0408905,
As2PdDy6,0.0,-0.0408897,
O5Se2Hf2Pu2,0.0,-0.0408892,
LiRh2Sb2Th,0.0,-0.040889,
FeGe2Np,0.0,-0.0408889,
PdSbHo,0.0,-0.040888,
ORhTm3,0.0,-0.0408872,
RuAgDy2,0.0,-0.040887,
Y2InPt,0.0,-0.0408867,
LiFeIr2,0.0,-0.0408858,
Sc4Zn2Tl5,0.0,-0.0408851,
Sr6PtBi2,0.0,-0.0408841,
Sn3Eu,0.0,-0.040884000000000004,
In2Te4Hg,0.4651,-0.0408838,
FeIn2Tb6,0.0,-0.0408838,
SiCuAu2,0.0,-0.040883499999999996,
AgLa4,0.0,-0.0408832,
Ag3Au,0.0,-0.0408829,
AlFeTh,0.0,-0.0408829,
In3Hf,0.0,-0.0408817,
Rh2NdHo,0.0,-0.0408814,
Zn2Ho3Hg,0.0,-0.040881100000000004,
ZnSbPt,0.0,-0.0408796,
CoRu2Tm3,0.0,-0.0408789,
ClBa2Pt,0.0,-0.0408789,
Se2RbTh,0.0,-0.040877899999999995,
SiCeTa,0.0,-0.040875999999999996,
B2LaOs2,0.0,-0.0408758,
Mn2GaPu,0.0,-0.040875,
Ga3ErPt2,0.0,-0.0408734,
Pd5Tm3,0.0,-0.040873,
Co2Tb3Hg,0.0,-0.0408728,
P2Sn2Pu,0.0,-0.040872399999999996,
RhIn3Sn2Tm3,0.0,-0.0408722,
In5CeIr,0.0,-0.040871899999999996,
ZnBaHg,0.0,-0.040871899999999996,
GaNbOs,0.0,-0.0408713,
H2Hf2Au,0.0,-0.0408706,
MgSeHg2,0.0,-0.0408699,
CoPdLu2,0.0,-0.0408694,
Si6Os4Th,0.1936,-0.0408694,
NiSb2Tl,0.0,-0.040869100000000005,
NInTm3,0.0,-0.040868499999999995,
PCoTa2,0.0,-0.040866799999999995,
RhSb2Tm,0.0,-0.040865200000000004,
S2CsTl2,0.0,-0.0408648,
Zr2RhTa,0.0,-0.0408644,
LiY2Pt2,0.0,-0.040863,
In5SmIr,0.0,-0.040863,
Cu2Dy2Pb,0.0,-0.0408624,
CaNiHg2,0.0,-0.04086,
RhAgDy2,0.0,-0.0408576,
AlMnTh,0.0,-0.0408564,
RhNd2,0.0,-0.0408548,
Mg2GeIr3,0.0,-0.040853,
Ge2In3Er3Ir,0.0,-0.0408529,
Ni2InTh,0.0,-0.0408525,
KSbPb,0.2533,-0.0408518,
Cu3LuPt2,0.0,-0.0408517,
CoIn2Tb6,0.0,-0.0408513,
Zn2CsAu2,0.0,-0.040850000000000004,
Cd3Tl,0.0,-0.0408487,
I4Tm,0.0,-0.0408486,
Rh2SmDy,0.0,-0.040848300000000004,
Sn2CePm,0.0,-0.0408477,
SnI2Ce2,0.0,-0.0408472,
Si2RuNp,0.0,-0.040846400000000005,
Ge6NdIr4,0.0,-0.0408461,
P2SrEuPt2,0.0,-0.0408453,
SiRe,0.0,-0.0408451,
CoGe2Np,0.0,-0.040845,
LiLa3Os,0.0,-0.0408445,
GaSb2Tl,0.0,-0.0408443,
AgI6Cs2Tl,0.0,-0.0408431,
CuTa,0.0,-0.040841999999999996,
Sn2PmSm,0.0,-0.0408413,
Se3La4Bi,0.0,-0.0408409,
OBa3Tl,0.0,-0.040839799999999996,
Cd2HoTm,0.0,-0.0408397,
AlFeHfIr,0.0929,-0.0408397,
LiPm2Pt,0.0,-0.0408394,
CGe2Sm2Os2,0.0,-0.040838900000000004,
SeBr6Pb4,1.8753,-0.0408388,
Zn2TaAu,0.0,-0.0408377,
SrCdHg,0.0,-0.0408377,
NbSnTm,0.0,-0.0408365,
LiNd2Tl,0.0,-0.0408363,
Zr3Au,0.0,-0.0408357,
N2NbNp,0.0,-0.0408339,
Mn2In3Hf3,0.0,-0.0408333,
CoRhOs,0.0,-0.040833,
AgCd2Pt,0.0,-0.040832900000000005,
YAg2Pt,0.0,-0.0408327,
Co2Dy2Tl,0.0,-0.0408322,
S3SbTl3,1.0842,-0.0408315,
Pd2CdTm2,0.0,-0.0408311,
Ge2Ru3Pa,0.0,-0.0408292,
Ge2Pd2Th,0.0,-0.040828899999999994,
KTe3ErHg,0.7584,-0.0408274,
RbTe3Au,0.2015,-0.0408265,
In5CePt,0.0,-0.0408255,
Te5Lu,0.0,-0.040825400000000005,
SiBa2Tl,0.0,-0.0408244,
Zn2HfIr,0.0,-0.0408236,
Se2Pd3Tl2,0.0,-0.0408234,
CuIn5U,0.0,-0.040822699999999996,
Sr2Pb,0.0199,-0.0408224,
S3Pt2Tl,0.5081,-0.0408205,
Al2FeLu6,0.0,-0.0408198,
VMoW,0.0,-0.0408191,
CaTe3TbAu,0.3905,-0.040819,
GaPdLu2,0.0,-0.040817599999999996,
Ge6PrIr4,0.0,-0.0408175,
CrTe2Au,0.0,-0.0408171,
Ga2SnHg2,0.0,-0.040816200000000004,
Sr6IrBi2,0.0,-0.040816000000000005,
Al2MnLu6,0.0,-0.040815800000000006,
Ca2CdPb2,0.0,-0.040815699999999996,
Se3Pr4Bi,0.0,-0.040815399999999995,
RuSbDy,0.0,-0.040815199999999996,
O4SeBi2Pu,0.0,-0.0408151,
BeBrAu2,0.0,-0.0408146,
Ge6LaIr4,0.0,-0.040814,
ZrNb2Ta,0.0,-0.0408134,
Ni2InAu2,0.0,-0.0408115,
Ru2SnDy2,0.0,-0.0408112,
ScSnAu,0.1413,-0.0408109,
RbSn2Au,0.0,-0.0408106,
Se3Ir2,0.292,-0.040810200000000005,
Sn7Er3,0.0,-0.0408089,
Sn4Te5Pb,0.0208,-0.0408084,
ZnAg2Lu3,0.0,-0.040807899999999994,
In2Eu,0.0,-0.0408076,
LiFePt2,0.0,-0.0408075,
MnAs2Er6,0.0,-0.0408071,
Mg2GePt3,0.0,-0.0408071,
In5SmPt,0.0,-0.0408071,
LiSrHg2,0.0,-0.0408065,
MgPrTl,0.0,-0.0408064,
Ga3HoIr2,0.0,-0.0408061,
CdEr,0.0,-0.040805799999999996,
AlCaTl2,0.0,-0.0408046,
CuSr2Pt2,0.0,-0.040802,
Rh2CeDy,0.0,-0.040801699999999996,
Ru2SmDy,0.0,-0.0408016,
AgSnTb2,0.0,-0.0408003,
Cl2HgPb,1.6838,-0.0408003,
SrSn3Ir,0.0,-0.0407988,
BeNiPt2,0.0,-0.040798,