formula,bg,formation_energy,mp-id
Se4Hf5,0.0,-0.044786,
Sc4Rh2Tl5,0.0,-0.0447857,
CuPd2Th,0.0,-0.0447856,
SrAgBi,0.0007,-0.0447851,
Rh2TmLu,0.0,-0.044785,
GaZr2Pt2,0.0,-0.044784399999999995,
AgSbEu2,0.0,-0.044784,
VCrPt2,0.0,-0.044782800000000005,
NNd3Bi,0.0,-0.0447808,
MgSbHg2,0.0,-0.044778399999999996,
LiRuPt2,0.0,-0.0447752,
Ru2TmLu,0.0,-0.0447752,
CrRe,0.0,-0.0447723,
Pd2In3Hf3,0.0,-0.0447716,
CGe2Mo2Th2,0.0,-0.0447706,
AgInAu,0.0,-0.0447703,
NaSb2Tl2,0.0,-0.0447685,
ZnHoAu,0.0,-0.0447672,
BeGePu,0.0,-0.0447669,
RuSb2Dy6,0.0,-0.0447665,
Zn2Hf2Au,0.0,-0.0447648,
Ge2NdAu2,0.0,-0.0447646,
Ga2HoAu2,0.0,-0.0447633,
BrSb3Hg2,0.6252,-0.0447629,
FeIr,0.0,-0.0447627,
NaRh2Pb2,0.0,-0.0447592,
BrIPb,2.3488,-0.044759099999999996,
NiLa3Pb,0.0,-0.044759099999999996,
LiRhIr2,0.0,-0.044759,
NOSm6Pb2,0.0,-0.0447583,
As2Sn2Pu,0.0,-0.0447575,
N2ErU,0.0,-0.0447575,
FeGePt2,0.0,-0.044757399999999996,
AlTmIr,0.0,-0.0447573,
PHoPt,0.0,-0.0447572,
Fe2Lu2Pb,0.0,-0.044756500000000005,
Ru2In5Hf4,0.0,-0.04475610000000001,
I2Cs2Hg,3.3097,-0.044755899999999994,
CaAgHg2,0.0,-0.0447534,
LiNbPt2,0.0,-0.0447532,
SeAu,0.0,-0.044753,
Ba5Au,0.0,-0.044752600000000003,
ICs3Pt,0.464,-0.044752,
SeLu2,0.0,-0.0447516,
Al3Ta5,0.0,-0.0447502,
MnGaIr2,0.0,-0.044749899999999995,
TiGePt2,0.0,-0.0447494,
ZnIn2Ir2,0.0,-0.0447489,
Ag2Pr2Tl,0.0,-0.0447477,
Ga2SmIr2,0.0,-0.0447458,
CaI2Hg2,0.0,-0.0447458,
RuHo2,0.0,-0.0447457,
GeErHf,0.0,-0.044745,
Ni2SrPt3,0.0,-0.0447437,
MnFePt2,0.0,-0.044743000000000005,
AgI2Tl,1.1843,-0.0447423,
Ga2CeIr2,0.0,-0.0447414,
NiRuHf2,0.0,-0.0447409,
SiZnPu,0.0,-0.0447408,
LiInPt2,0.0,-0.0447401,
RhSb2Dy6,0.0,-0.044738599999999996,
Pd2Ba2Pb,0.0,-0.0447375,
Y6IrBi2,0.0,-0.044737400000000004,
Pd2Hg,0.0,-0.0447357,
LiZrTl2,0.0,-0.0447335,
P2Er6Os,0.0,-0.0447335,
B4Ho2Os5,0.0,-0.0447333,
Ga2EuAc,0.0,-0.044733199999999994,
CaNdBi,0.0,-0.0447326,
CPTa3,0.0,-0.0447316,
Ag2TbHg,0.0,-0.044730200000000005,
BrIn2Hg2,0.0,-0.044729599999999994,
Ge2PrAu2,0.0,-0.044727499999999996,
SrBaPt,0.0,-0.0447266,
AlAgAu2,0.0,-0.044726300000000004,
Pr3Ho,0.0,-0.0447249,
KCs2Au2,0.0,-0.0447245,
RhHo2,0.0,-0.0447232,
CoGeTh,0.0,-0.0447221,
Co2NdPa,0.0,-0.0447218,
Si2LuIr2,0.0,-0.0447212,
KInHg2,0.0,-0.0447198,
Ti2OsIr,0.0,-0.0447197,
Ru2GdHo,0.0,-0.0447196,
MgTmPb,0.0,-0.0447183,
NSm2Pb,0.0,-0.044716900000000004,
CrGaIr2,0.0,-0.044716900000000004,
Sc2IrPb,0.0,-0.044716,
C3Th2,0.0,-0.0447153,
Ge2BaIr2,0.0,-0.044715200000000004,
Y6PtBi2,0.0,-0.0447151,
RhAgLu2,0.0,-0.0447122,
AlRh2Pa,0.0,-0.044712,
Te3BaRe,0.0,-0.044711799999999996,
NiTcHf2,0.0,-0.044710900000000005,
O3Tl4,0.6401,-0.044710700000000006,
TeI7Hf3,0.0,-0.044708399999999995,
YEr3,0.0,-0.0447064,
Tc2Hf,0.0,-0.0447063,
SnCeTm,0.0,-0.0447059,
RbPd2Hg2,0.0,-0.0447056,
LiAgTl2,0.0,-0.0447044,
Rb3Sn4Pt4,0.0,-0.0447037,
CuSn2Tm6,0.0,-0.0447035,
Pd2InBi,0.0,-0.044703200000000005,
RbHg,0.0,-0.0447025,
Li2Au2Bi,0.0,-0.0447018,
MgAgPt2,0.0,-0.044700000000000004,
MgLuTl,0.0,-0.0446983,
TiMnPt2,0.0,-0.0446975,
MgRhAu2,0.0,-0.0446964,
Ge2LaAu2,0.0,-0.0446961,
GaTcHf2,0.0,-0.044695700000000005,
AlTmPt,0.0,-0.044695,
Ag2La2Tl,0.0,-0.0446947,
Te2Cs2Au,0.0,-0.0446947,
Ga2HgBi,0.0,-0.044693800000000006,
AsAg2Pt2,0.0,-0.0446927,
AsI2Hf2,0.0,-0.044691699999999994,
Mg3Hg5,0.0,-0.044691699999999994,
LiBPt3,0.0,-0.0446909,
ZnTbTl,0.0,-0.044690600000000004,
Si4Lu3Au4,0.0,-0.0446903,
CuTb2Hg,0.0,-0.044689799999999995,
MnTe3Hg2,0.0,-0.0446883,
As2CsIr2,0.0,-0.0446883,
ZnNd2Pb,0.0,-0.044688200000000004,
OCe3Pb,0.0,-0.044688000000000005,
RhTe2Au,0.0,-0.0446878,
MgLuPt,0.0,-0.0446875,
ZnIn2Pt2,0.0,-0.0446867,
CaNiPb2,0.0,-0.0446847,
Te2CsHf,0.0,-0.0446828,
MnCoIr2,0.0,-0.0446823,
N2Ta3,0.0,-0.0446811,
Y6OsBi2,0.0,-0.0446799,
TcDy3,0.0,-0.0446796,
MgEr2Os,0.0,-0.044677999999999995,
S2CsAu3,1.6747,-0.0446774,
Sc2OsPb,0.0,-0.044677,
AlGeNp,0.0,-0.0446768,
SrPd3Tl2,0.0,-0.044676499999999994,
MgLuIr,0.0,-0.0446762,
Ga2Hf3,0.0,-0.0446757,
Al4Ge2Pu3,0.0,-0.0446756,
Sc2TlPb,0.0,-0.044674900000000003,
PdTe2Dy6,0.0,-0.044674599999999995,
AgTe2Tl,0.0,-0.044674399999999996,
CAsHf3,0.0,-0.044672199999999995,
GeSb7Hf4,0.0,-0.0446706,
PdSnHf,0.4099,-0.044670499999999995,
LiSb2CePt2,0.0,-0.044670499999999995,
Sn2EuEr,0.0,-0.044669600000000004,
NaP2Pt2Th,0.0,-0.0446689,
OSm3Pb,0.0,-0.044668,
Fe2OsIr,0.0,-0.044667200000000004,
Be2Pt3,0.0,-0.044666899999999995,
NaSbHg2,0.0,-0.0446667,
TiIr,0.0,-0.0446663,
CaPrBi,0.0,-0.0446662,
Rh2In5Hf4,0.0,-0.0446656,
CaZrHg2,0.0,-0.044664999999999996,
PMnU,0.0,-0.0446649,
Ga2SmPt2,0.0,-0.0446644,
SrSbTl,0.6566,-0.0446626,
OSePa,0.0,-0.044661900000000004,
Al3MnGe2Np3,0.0,-0.044661099999999995,
Rh2BaIr,0.0,-0.0446577,
SiTmAu,0.0,-0.0446572,
MgInAu2,0.0,-0.044655900000000005,
GePd2Ac,0.0,-0.044655700000000006,
Pm3Tb,0.0,-0.0446552,
Ni2SnPu,0.0,-0.0446552,
Al3Ni2Pa3,0.0,-0.044655,
AlPdHfIr,0.0,-0.044654200000000005,
AlHf2,0.0,-0.0446532,
B2Ta2Os,0.0,-0.0446528,
FSeU,0.0,-0.0446521,
K2SrHgBi2,0.0,-0.0446518,
TiGaOsIr,0.0,-0.0446506,
LiBa2Au2,0.0,-0.0446505,
Ga2CePt2,0.0,-0.0446495,
SnTm,0.0,-0.0446495,
SnSb2Hg,0.0,-0.044649,
ScSrAu2,0.0,-0.0446489,
Sr2SnAu2,0.0,-0.0446489,
Fe2SnNp,0.0,-0.0446487,
Co2RhPu,0.0,-0.0446446,
Zn2Np,0.0,-0.0446443,
Mg2Au2Tl,0.0,-0.0446431,
Y3Hg2,0.0,-0.0446428,
NTb3Hg,0.0,-0.0446421,
Se2ITl2,0.0,-0.0446403,
Si2YIr3,0.0,-0.044639899999999996,
NiCe2Pt,0.0,-0.0446398,
BrI3Hg2,1.7237,-0.0446398,
KSn2Ir2,0.0,-0.044637500000000004,
Cd2SmPt,0.0,-0.0446358,
GaRb2Au3,0.0,-0.0446353,
Sr2InPt2,0.0,-0.044635,
Mg2Hg2Pb,0.0,-0.044634599999999997,
MgCdPt2,0.0,-0.0446343,
GaGePt2,0.0,-0.0446331,
NaIn2Pb2,0.0,-0.044631,
Al3CrGe2Np3,0.0,-0.044630899999999994,
NCe2Pb,0.0,-0.0446305,
Al3FeGe2Np3,0.0,-0.044629300000000004,
CMn2Sn2Th2,0.0,-0.044629199999999994,
CrCoIr2,0.0,-0.0446291,
ZnTbPt,0.0,-0.0446285,
RbCd2Pt2,0.0,-0.0446267,
CdInAu,0.0,-0.044625700000000004,
NaYTl2,0.0,-0.0446251,
ZnAsTl2,0.0,-0.0446246,
PFeU,0.0,-0.0446237,
MgPdAu2,0.0,-0.044622999999999996,
Nd3Dy,0.0,-0.044622300000000004,
NBrPa,0.0,-0.0446195,
Te2Dy3,0.0,-0.0446192,
LiSrPb2,0.0,-0.0446183,
Co2Lu2Pb,0.0,-0.0446169,
KSb2Au2,0.0,-0.0446167,
GaNdPt,0.0,-0.0446162,
VPt,0.0,-0.044616100000000006,
In5CeIr2,0.0,-0.0446145,
Si2LuOs2,0.0,-0.044614400000000005,
ZrCdPt,0.0,-0.044613999999999994,
Mn2WIr,0.0,-0.0446134,
Sr2BaHg2,0.0,-0.0446111,
FePt,0.0,-0.044611,
In5CePt2,0.0,-0.0446109,
Se2TeTl2,0.0,-0.0446106,
C2Ta3,0.0,-0.0446093,
RbInBi,0.0,-0.0446089,
ScGePt2,0.0,-0.044608800000000004,
KSn2Pt2,0.0,-0.0446085,
BrLa2Hg,0.0,-0.0446081,
CrFePt2,0.0,-0.044606900000000005,
GaNdIr,0.0,-0.0446064,
NPr3Bi,0.0,-0.044606099999999996,
Sc2PtPb,0.0,-0.044606,
SeRhBi,0.2777,-0.044606,
In3Bi,0.0,-0.044605,
SiLuTa,0.0,-0.044604399999999995,
NLa3Bi,0.0,-0.044604399999999995,
CHo2Hg,0.0,-0.0446043,
LiRhPt2,0.0,-0.0446033,
Ti3Os2Pt,0.0,-0.0446032,
B2CIr2Th,0.0,-0.0446026,
B4Dy2Ir5,0.0,-0.044601,
CoMoHf2,0.0,-0.0445999,
ScIn2Th,0.0,-0.044598799999999994,
CSi2W2Th,0.0,-0.044597200000000004,
Tc2CeHf,0.0,-0.044597000000000005,
As2Ru2Pu,0.0,-0.0445964,
ZnTbIr,0.0,-0.0445959,
SiHoIr,0.0,-0.0445954,
Sc4Pd2Tl5,0.0,-0.0445947,
PdSb2Dy6,0.0,-0.044593400000000005,
I6Cs2AuTl,0.0,-0.044593400000000005,
CaRh2Tl2,0.0,-0.0445918,
GaCsBi,0.0,-0.044591099999999995,
TiGaIr2,0.0,-0.0445905,
HCdHf3,0.0,-0.0445901,
B2Ta2Ir,0.0,-0.044590000000000005,
CrPt,0.0,-0.0445899,
Si4Tm3Pt4,0.0,-0.044588,
In5SmPt2,0.0,-0.044587299999999996,
NiGaPa,0.0,-0.0445864,
NSiTa3,0.0,-0.0445862,
Nb3Bi,0.0,-0.044586,
Te3Tm2,0.2546,-0.044585599999999996,
Rh5Th,0.0,-0.0445854,
CuHoHg,0.0,-0.0445847,
Se7PbBi4,0.2724,-0.0445844,
Pd5Pa,0.0,-0.044582000000000004,
ZnGaU,0.0,-0.0445813,
NaCd2Bi2,0.0,-0.0445803,
Ga2CsPb2,0.0,-0.0445797,
CaCdHg2,0.0,-0.0445783,
SiNi3U2,0.0,-0.0445781,
Mn2PtAu,0.0,-0.0445781,
SbPrEr,0.0,-0.044578,
Sn3Te6Bi2,0.0,-0.0445778,
N2TbNp,0.0,-0.044577,
InDy3,0.0,-0.044576099999999994,
Zn4Au5,0.0,-0.0445752,
S3SePb4,0.1601,-0.0445741,
Li2Tl3,0.0,-0.0445725,
Al3Si2RuNp3,0.0,-0.0445718,
SrAg2Hg2,0.0,-0.044571599999999996,
CoPm2Ir,0.0,-0.0445715,
CSiTa3,0.0,-0.0445712,
O2Gd2Bi,0.0,-0.044569899999999996,
SbNdEr,0.0,-0.044568800000000006,
Ga2NdIr2,0.0,-0.04456860000000001,
CInTa2,0.0,-0.0445685,
ZnErHg,0.0,-0.0445676,
In2GdEr,0.0,-0.044566,
Ce,0.0,-0.044564,
Li3Pb4,0.0,-0.044563000000000005,
MgBa2Hg2,0.0,-0.0445621,
Ag2GdLu,0.0,-0.044561500000000004,
ZnPr2Pb,0.0,-0.0445606,
Cd5Hg3,0.0,-0.0445603,
Sc2BaPb2,0.0,-0.0445603,
TiFePt2,0.0,-0.0445601,
TcAgLu2,0.0,-0.0445587,
TiGaOs2,0.0,-0.0445582,
CaSn2Au2,0.0,-0.0445579,
TiCoIr2,0.0,-0.0445575,
Al3CoGe2Np3,0.0,-0.044557,
PdDy3,0.0,-0.0445565,
LiSnAu2,0.0,-0.044555,
La3Ho,0.0,-0.0445549,
Cd2SmIr,0.0,-0.0445543,
GaPm2Pt,0.0,-0.0445537,
NaGaBi2,0.0,-0.0445525,
SnTb3,0.0,-0.0445507,
LiZrIr2,0.0,-0.0445506,
GaPm2Ir,0.0,-0.0445501,
Cu3Ta4,0.0,-0.0445499,
GeSmHg,0.0,-0.0445499,
Li3Au5,0.0,-0.0445485,
CoPm2Pt,0.0,-0.0445479,
ZnSn2Tm6,0.0,-0.0445468,
S2Pu,0.0,-0.0445466,
CrNiOs2,0.0,-0.044545900000000006,
MnTe2Er6,0.0,-0.0445445,
I6Cs2HgTl,0.0,-0.0445439,
P2Er6Re,0.0,-0.044543799999999995,
Zn2CsBi2,0.0,-0.044543599999999996,
InTe2Au,0.7808,-0.0445423,
MnGaPt2,0.0,-0.0445418,
Ga2DyAu2,0.0,-0.0445408,
As2Tb6Ir,0.0,-0.0445402,
Ge2BaPt2,0.0,-0.0445394,
Ti2ReIr,0.0,-0.0445391,
In2BaAu,0.0,-0.0445381,
FeGaIr2,0.0,-0.0445375,
LiSb2NdPt2,0.0,-0.044536700000000005,
Pd2Ta,0.0,-0.0445365,
In3Sn2Er3Ir,0.0,-0.0445362,
InCs2Hg,0.0,-0.0445348,
Sr3In4Pt4,0.0,-0.044534399999999995,
LiP2Ir2Th,0.0,-0.0445324,
K2Hg3,0.0,-0.0445322,
NiDyHg,0.0,-0.044531999999999995,
MnPdHf2,0.0,-0.044531799999999996,
BeAgPt2,0.0,-0.0445308,
Sr3In4Ir4,0.0,-0.044530700000000006,
Ba5Hg,0.0,-0.0445305,
Ge2YPu,0.0,-0.0445302,
CuSrAu2,0.0,-0.0445285,
RhSn5Th,0.0,-0.0445277,
Al3Ir2Th,0.0,-0.0445277,
FePdHf2,0.0,-0.0445272,
NGeHf3,0.0,-0.044527000000000004,
CuTe3TaTl,0.0,-0.044524299999999996,
NiRhHf2,0.0,-0.0445242,
In2SnPb,0.0,-0.0445219,
AlCdAu2,0.0,-0.044521500000000006,
AsBaIr,0.0,-0.0445213,
ScMnIr2,0.0,-0.044521,
Pd2CdLu3,0.0,-0.0445208,
Se3Tm4Pb,0.0,-0.044520699999999996,
SrTePt,0.0,-0.0445199,
NiGeTh,0.0,-0.0445197,
ScLa2Pb,0.0,-0.0445179,
B4Dy2Os5,0.0,-0.044515,
AlSi2Th2,0.0,-0.0445146,
Y2Pb,0.0,-0.0445144,
N2NdPu,0.0,-0.0445143,
AlCuPu,0.0,-0.0445137,
HInPt2,0.0,-0.044513199999999996,
Sn2Ho3,0.0,-0.044513199999999996,
Al3Si2RhNp3,0.0,-0.0445131,
GePm2Hg,0.0,-0.044512300000000005,
AlYAu2,0.0,-0.044512300000000005,
ZnPd2Th,0.0,-0.044512,
Al2BaAu3,0.0,-0.0445119,
SiPd2Pa,0.0,-0.044511699999999994,
Ga2InBi2,0.0,-0.0445111,
ZnPb,0.0,-0.0445107,
V2WOs,0.0,-0.0445107,
GeLa2Au,0.0,-0.04451,
Ga2PrIr2,0.0,-0.0445089,
SbCeHo,0.0,-0.0445088,
NiGeIr2,0.0,-0.044508000000000006,
Te2DyEr,0.0,-0.044507399999999996,
FeTe2Er6,0.0,-0.044506500000000004,
Y6AuBi2,0.0,-0.0445049,
Rb4HgBi2,0.3805,-0.044504600000000005,
OLa3Bi,0.0,-0.0445042,
CoGePt2,0.0,-0.0445036,
GaPrPt,0.0,-0.0445029,
As2Tb6Pt,0.0,-0.0445002,
RhTeGd,0.3381,-0.0445001,
Sr2InIr2,0.0,-0.044499899999999995,
AsBaPt,0.0,-0.0444992,
In5NdPt2,0.0,-0.0444989,
OAsRuPu,0.0,-0.044498800000000005,
CrTe2Er6,0.0,-0.0444977,
MnSb2Er6,0.0,-0.0444972,
Sc2GeIr3,0.0,-0.044497,
LiCdTl2,0.0,-0.0444964,
LiSb2PrPt2,0.0,-0.0444964,
Y6ReBi2,0.0,-0.0444941,
GaMoHf2,0.0,-0.0444933,
TeHo,0.0,-0.044492199999999996,
CTb2Tl,0.0,-0.044492,
Te2Cs2Hg,2.01,-0.0444917,
YTe3Bi,0.8552,-0.044491100000000006,
Ga2NdPt2,0.0,-0.044491100000000006,
Ga2LaIr2,0.0,-0.04449090000000001,
NaPd2Pb2,0.0,-0.0444904,
FeCoIr2,0.0,-0.0444902,
CaScPb2,0.0,-0.04449,
SrLa2Hg,0.0,-0.044489400000000005,
MgYPt2,0.0,-0.044488799999999995,
In5NdIr2,0.0,-0.0444874,
ZnLa2Pb,0.0,-0.044487200000000005,
Rh2Te2Bi,0.0,-0.044487,
MgRh2U,0.0,-0.044486899999999996,
GaPrIr,0.0,-0.0444867,
Ti2ReOs,0.0,-0.0444857,
Cu2SrPt3,0.0,-0.044485500000000004,
SbTb2,0.0,-0.044485,
Si2Ta3,0.0,-0.0444842,
As2Tb6Os,0.0,-0.0444841,
Br2Er2Pb,0.0,-0.0444837,
In5LaIr2,0.0,-0.0444818,
Cu2SrIr3,0.0,-0.0444815,
KIn6Au4,0.0,-0.0444812,
Cu3PdAu4,0.0,-0.0444804,
CoLaTl,0.0,-0.044480200000000004,
CuSm2Tl,0.0,-0.0444787,
CoSn3Th,0.0,-0.0444783,
As2AuHg,0.0,-0.0444783,
SrIn3Ir2,0.0,-0.0444774,
In5PrPt2,0.0,-0.044476100000000005,
ZrTcTa,0.0,-0.044475,
GeY2Ir2,0.0,-0.0444749,
ZrRuTa,0.0,-0.0444746,
Ti2LaIr2,0.0,-0.0444737,
IEr,0.0,-0.0444729,
Ce4Sm,0.0,-0.0444726,
ZnAgTa2,0.0,-0.0444724,
SbSmHo,0.0,-0.0444722,
SbTe3Ho4,0.0,-0.0444707,
In3Sn2Er3Pt,0.0,-0.0444687,
SiEuHg,0.0,-0.0444677,
CaSb2Hg2,0.0,-0.044467,
Se5SnPb4,0.0613,-0.0444663,
FeRe,0.0,-0.0444663,
PDyIr,0.0,-0.044465000000000005,
In5PrIr2,0.0,-0.0444646,
ZnSbHf2,0.0,-0.0444641,
SiHoPt,0.0,-0.0444624,
Al3NiGe2Np3,0.0,-0.0444597,
AlTmOs,0.0,-0.044458399999999995,
SiGaNp,0.0,-0.044457500000000004,
BeCdPt2,0.0,-0.0444569,
CrSb2Er6,0.0,-0.0444554,
Al3Pt2Th,0.0,-0.044455,
CoTe2Er6,0.0,-0.0444547,
TiVRe2,0.0,-0.044454,
LiZrPt2,0.0,-0.0444538,
Cd2LaTl,0.0,-0.0444536,
GaLaPt,0.0,-0.0444506,
CoOs,0.0,-0.044449300000000004,
TiCrRe2,0.0,-0.0444491,
FeSb2Er6,0.0,-0.0444482,
NaBa2Hg2,0.0,-0.0444467,
SiGdHf,0.0,-0.044445,
GaLaIr,0.0,-0.0444447,
RhTe2Hg,0.0,-0.0444445,
Al3RhU2,0.0,-0.0444442,
O2I2HgPb2,1.601,-0.0444442,
SiHoOs,0.0,-0.0444433,
Sm,0.0,-0.044441,
AgSb2Tl,0.0,-0.0444407,
CuSm2Pt,0.0,-0.044436100000000006,
MnCoPt2,0.0,-0.0444354,
GaRu2Ac,0.0,-0.0444351,
Ga2PrPt2,0.0,-0.044433799999999996,
Ge3TaTh,0.0,-0.0444329,
Zr2Re,0.0,-0.0444325,
Pd3Bi,0.0,-0.0444312,
Pr3Dy,0.0,-0.0444311,
LiRh2Pb2,0.0,-0.0444309,
Rh2ErLu,0.0,-0.044430700000000004,
Cu4Ge2Pa3,0.0,-0.044430700000000004,
YInAu,0.0,-0.044427799999999996,
SbLaEr,0.0,-0.0444267,
GaTbHg,0.0,-0.0444264,
AgTe2Ir,0.1805,-0.0444238,
Cr2WRe,0.0,-0.0444233,
ZrPdHg,0.0,-0.0444232,
CuGd2,0.0,-0.0444224,
PCoU,0.0,-0.044421999999999996,
LiSb2Tl2,0.0,-0.044420499999999995,
BrAu,0.0,-0.0444187,
Cd2NdPt,0.0,-0.0444185,
Ce3Sm,0.0,-0.0444181,
GaSm2Au,0.0,-0.0444166,
Al3Si2PdNp3,0.0,-0.044414999999999996,
CCo2Sn2Th2,0.0,-0.0444149,
LiRhBaTl2,0.0,-0.044414499999999996,
BSnGd3,0.0,-0.0444141,
SnTe2Ta,0.0,-0.0444137,
SrRhPb,0.0,-0.044413600000000004,
CuSm2Ir,0.0,-0.0444135,
MnCoRe2,0.0,-0.0444125,
B4Tb2Ir5,0.0,-0.0444122,
Ga2LaPt2,0.0,-0.044411700000000005,
NiMoHf2,0.0,-0.044411299999999994,
TcSb2Hg,0.0,-0.044411099999999995,
Sn2DyLu,0.0,-0.044411099999999995,
CeSm3,0.0,-0.0444099,
Se2Te4W3,0.6704,-0.044409399999999995,
N2PrPu,0.0,-0.044409399999999995,
P2EuOs2,0.0,-0.0444086,
Mg2Pt2Hg,0.0,-0.044407600000000005,
Si4Er3Ir4,0.0,-0.0444058,
N2HoU,0.0,-0.044404400000000004,
Ga2Pa,0.0,-0.0444041,
SiMn3Pa2,0.0,-0.0444041,
Ru2GdDy,0.0,-0.0444027,
LiTm2Au,0.0,-0.0444004,
BAl2Os2Th,0.0,-0.044399799999999996,
SiErRe,0.0,-0.044397599999999995,
ScMnPt2,0.0,-0.044396700000000004,
CoPdHf2,0.0,-0.0443966,
GaGeTh,0.0,-0.044394300000000005,
N2TmPa,0.0,-0.044392600000000004,
NiTe2Er6,0.0,-0.044392299999999996,
LiP2Pt2Th,0.0,-0.044392299999999996,
CrNiIr2,0.0,-0.0443922,
GaPm2Os,0.0,-0.0443918,
Na2Hg2Pb,0.0,-0.0443908,
GaSb2Er6,0.0,-0.0443908,
SrSbPt,0.0,-0.044390700000000005,
SiRh2Th,0.0,-0.044389899999999996,
CuSmTl,0.0,-0.044389000000000005,
CoTeBi,0.1518,-0.0443885,
MnNiIr2,0.0,-0.0443875,
Ru2ErLu,0.0,-0.0443858,
InSb2Au,0.0,-0.044385,
CoSb2Er6,0.0,-0.0443847,
Zn2Hf2Hg,0.0,-0.0443847,
ScAsTh,0.0,-0.044384599999999996,
CrCoRe2,0.0,-0.044383200000000005,
AlEuAu,0.0,-0.0443804,
As2CsPt2,0.0,-0.04438,
CrGaPt2,0.0,-0.0443775,
TiTcHf2,0.0,-0.044377,
KYAu2,0.0,-0.0443762,
ZnSn2Ac,0.0,-0.0443752,
TiNiIr2,0.0,-0.044374699999999996,
ZrRu2Pb,0.0,-0.0443745,
Sr3Pb2,0.0,-0.0443742,
Zn2GdAc,0.0,-0.0443724,
NiTe3HfTl,0.0,-0.044371,
NiPm2Ir,0.0,-0.0443698,
AlTe2Tm6,0.0,-0.044369599999999995,
Sr2CdTl2,0.0,-0.0443685,
ZnDyAu,0.0,-0.0443679,
Ag5Pu,0.0,-0.044367800000000006,
PLa2Pb,0.0,-0.0443667,
RhBa3Hg,0.0,-0.0443662,
ScZr2Pt2,0.0,-0.0443658,
PDyPt,0.0,-0.0443652,
AlDy2Tl,0.0,-0.044365,
As2RhPa,0.0,-0.0443645,
AlInHg2,0.0,-0.0443633,
BTb3Tl,0.0,-0.044363,
Ag2Sm2Hg,0.0,-0.0443623,
LiTe2Th,0.0,-0.044362200000000004,
Co2Dy5Bi,0.0,-0.0443621,
Si2Hf2Ir,0.0,-0.0443615,
Br3Eu3Bi,0.0,-0.0443596,
GeY2Pt2,0.0,-0.0443591,
GaLa2Tl,0.0,-0.044359,
AgInLu2,0.0,-0.044359,
KCd2Pb2,0.0,-0.044358600000000005,
CuRuHf2,0.0,-0.0443583,
CdTe2IBi,0.9566,-0.044357100000000003,
Mg4Pb5,0.0,-0.044356099999999996,
Sb3Dy4,0.0,-0.044355200000000004,
NiPm2Pt,0.0,-0.044355,
GaRh2Ac,0.0,-0.044354700000000004,
Ga2TbAu2,0.0,-0.0443529,
Cd2Tl,0.0,-0.0443524,
CaPd2Tl2,0.0,-0.04435070000000001,
SbTeLu,0.0,-0.0443502,
Nd3Tb,0.0,-0.044349200000000005,
Cd2PrPt,0.0,-0.0443483,
Tc3Os,0.0,-0.0443465,
GaSmAu,0.0,-0.0443463,
CrCoPt2,0.0,-0.0443458,
Cd2LaPt,0.0,-0.044345300000000004,
GeI2Hf2,0.0,-0.0443437,
Si2Hf2Os,0.0,-0.0443433,
Se2GdTl,0.3227,-0.044343,
Pd2SbHo5,0.0,-0.044342599999999996,
As2BaAu2,0.0,-0.0443424,
PdHo2,0.0,-0.0443413,
N2LaPu,0.0,-0.0443413,
AlKHg3,0.0,-0.044339500000000004,
ZnZr2Ir2,0.0,-0.0443394,
NaTmPb,0.0,-0.0443354,
NiSn3Th,0.0,-0.0443348,
LiRhHgTl,0.0,-0.0443344,
ZrHo3,0.0,-0.0443341,
SrPdPb,0.0,-0.0443324,
OSPu,0.0,-0.044331800000000005,
ZnGePa,0.0,-0.044331699999999995,
Cd2NdIr,0.0,-0.0443312,
FeCoPt2,0.0,-0.044330800000000004,
SbHo,0.0,-0.0443304,
Si2LuPt2,0.0,-0.0443302,
CdSn2Pb,0.0,-0.044330100000000004,
PdIn4Pt2,0.0,-0.044330100000000004,
SrTeIr,0.0,-0.0443297,
CuTcHf2,0.0,-0.0443288,
RuSn2Dy6,0.0,-0.0443287,
ZrTe2Au,0.0,-0.0443285,
LiIHg2,0.7047,-0.0443277,
AlSb2Tm6,0.0,-0.044327399999999996,
N2LuTh,0.0,-0.044326700000000004,
Te2CsGd,0.8847,-0.044326700000000004,
MgZrAu2,0.0,-0.0443264,
RhSbGd,0.0,-0.0443255,
B4Tb2Os5,0.0,-0.044324199999999994,
MgRu2Hf3,0.0,-0.0443228,
MgSnHg2,0.0,-0.044322400000000005,
Fe2WOs,0.0,-0.044322299999999995,
Ag4Th,0.0,-0.0443218,
SiTmW,0.0,-0.0443214,
HSeNp,0.0,-0.044320700000000005,
SBi,0.0,-0.044320399999999996,
Ag2Pt,0.0,-0.0443181,
ScEr5,0.0,-0.0443175,
PmSm3,0.0,-0.044317100000000005,
Se2TaHg,0.0,-0.0443162,
NaInAu2,0.0,-0.0443155,
NiSb2Er6,0.0,-0.0443151,
CuCe2Pt,0.0,-0.0443147,
SeHg,0.0,-0.044314,
Tc2RuOs,0.0,-0.0443138,
TiCoPt2,0.0,-0.0443137,
Mo2Hf,0.0,-0.044312,
Ga2SrAu3,0.0,-0.0443114,
Tc3Ir,0.0,-0.044311,
AgEr2,0.0,-0.0443108,
B2CPt2Th,0.0,-0.0443106,
MgAsPb2,0.0,-0.0443102,
YAgTl,0.0,-0.044309100000000004,
NSNd6Pb2,0.0,-0.0443082,
LiEr2Ir,0.0,-0.044307400000000004,
Ni2Pa,0.0,-0.044307200000000005,
As2Rh2Pu,0.0,-0.0443066,
GeNd2Hg,0.0,-0.044306,
RuIGd,0.0,-0.0443045,
TiGeTh,0.0,-0.0443042,
PSbHf2,0.0,-0.044303600000000005,
CGeHf3,0.0,-0.0443035,
NiLaCePt,0.0,-0.0443017,
NaSnHg2,0.0,-0.0443015,
Sr3Rh2Tl3,0.0,-0.0443014,
NbSnHf,0.0,-0.044301,
CoLaIr,0.0,-0.044300400000000004,
RhSn2Dy6,0.0,-0.0443003,
SrTe2Pb,1.0585,-0.0442993,
TcCdLu2,0.0,-0.044299,
Sn3BaIr,0.0,-0.044297199999999995,
MoTe6W2,0.8697,-0.0442967,
Li2Hg2Bi,0.0,-0.044296100000000005,
P2Pu,0.0,-0.0442956,
Mg3Au2Pu,0.0,-0.044295499999999995,
GeHoHf,0.0,-0.0442935,
As2Tb6Re,0.0,-0.0442926,
OBrPa,0.0,-0.0442923,
SrBaAu,0.0,-0.044291899999999995,
MnIn2Tm6,0.0,-0.044290300000000005,
Al2GdPt2,0.0,-0.0442902,
NiLaTl,0.0,-0.0442875,
SrSbIr,0.0,-0.0442874,
Sn2Sb2Pb,0.0,-0.044286700000000005,
SiFe3Pa2,0.0,-0.0442866,
InSn2Tl,0.0,-0.044284500000000004,
Co2OsIr,0.0,-0.044284500000000004,
TiPt,0.0,-0.0442834,
Mg2AuTh,0.0,-0.0442819,
RbCd2Au2,0.0,-0.0442812,
Sn3BaPt,0.0,-0.044280599999999996,
Rb3Bi2,0.0,-0.0442793,
PTe3Lu4,0.0,-0.0442785,
Tc2RuIr,0.0,-0.044278399999999996,
GeNdHg,0.0,-0.0442783,
BC2Th2,0.0,-0.0442776,
SiMnU,0.0,-0.0442772,
PSrPt2,0.0,-0.0442766,
GaCe2Au,0.0,-0.044276499999999996,
V2WRe,0.0,-0.0442764,
N2Ba7Pb3,0.0,-0.044275100000000005,
CaNb2Ir2,0.0,-0.0442744,
Co2ReOs,0.0,-0.0442739,
NNd3Pb,0.0,-0.0442722,
GaI3Gd3,0.0,-0.0442722,
InHo2,0.0,-0.0442713,
Ga2TmAc,0.0,-0.0442705,
MnNiPt2,0.0,-0.0442705,
Cd2LaIr,0.0,-0.0442695,
PCaPu,0.0,-0.0442694,
Te3Hf,0.0,-0.0442689,
Te3CsAu,0.2367,-0.044268300000000003,
Si2EuIr2,0.0,-0.044268,
NaSb2Pt2,0.0,-0.0442677,
FeIn2Tm6,0.0,-0.0442652,
Te2TbEr,0.0,-0.044264899999999996,
Ti3Os2Au,0.0,-0.0442646,
Ti2RePt,0.0,-0.0442645,
GaCeAu,0.0,-0.0442645,
Te4Dy5,0.0,-0.0442635,
FeCoRe2,0.0,-0.0442626,
Al3CuGe2Np3,0.0,-0.044262300000000004,
NiGePt2,0.0,-0.0442622,
GaCd2Tl2,0.0,-0.0442586,
SiCuNp,0.0,-0.0442586,
Ge2RhU,0.0,-0.044258200000000004,
Cd2PrIr,0.0,-0.0442578,
La3Dy,0.0,-0.0442571,
Ag2Ce2Hg,0.0,-0.044255899999999994,
FeNiIr2,0.0,-0.0442539,
GePrHg,0.0,-0.0442537,
Li2Au2Pb,0.0,-0.0442532,
SnTe3Ho4,0.0,-0.044252,
HMgPt3,0.0,-0.0442513,
I3CsAu,0.4242,-0.0442513,