formula,bg,formation_energy,mp-id
Se4Bi3,0.0,-0.0453939,
ZnHoPt,0.0,-0.0453937,
PNd2Bi,0.0,-0.0453924,
CuPrPb,0.0,-0.045387300000000005,
PdSb2Ho6,0.0,-0.0453859,
NiErHg,0.0,-0.045385800000000004,
Cu2LaPb2,0.0,-0.0453845,
KSb2Ir2,0.0,-0.045381500000000005,
BrLa2Os,0.0,-0.0453814,
ZrRhAu,0.0,-0.0453812,
KInAu2,0.0,-0.045381,
Se2IrAu,0.5493,-0.045379800000000005,
NiTe2Tm6,0.0,-0.045378999999999996,
ScSrPt2,0.0,-0.0453788,
Co2LaU,0.0,-0.0453788,
LiSnPt2,0.0,-0.0453778,
CoSb2Tm6,0.0,-0.0453771,
In2LaAu,0.0,-0.0453769,
AsPrAu,0.0,-0.0453765,
AsLaAu,0.0,-0.0453762,
AsPd3Pb2,0.0,-0.0453762,
RhSn5U,0.0,-0.045375900000000004,
Rh2Ta,0.0,-0.0453756,
AgGd,0.0,-0.045375,
RhSbHf,0.0,-0.0453748,
B2W2Ir,0.0,-0.0453743,
Rh2PmHg,0.0,-0.045373800000000006,
MgRhPt2,0.0,-0.045372,
CaY2Bi2,0.0,-0.0453719,
RuPd2Lu3,0.0,-0.0453716,
Ca2Rh2Pb3,0.0,-0.0453709,
GaSb2Tm6,0.0,-0.0453695,
ZnHoIr,0.0,-0.0453676,
OTb3Tl,0.0,-0.0453675,
SrCd2Pt2,0.0,-0.0453673,
GeCsBi,0.1183,-0.0453669,
NiPm2Pb,0.0,-0.0453652,
NbTe2Tl,0.0,-0.045364800000000004,
Nb2Au,0.0,-0.0453637,
RbCd2Tl2,0.0,-0.0453632,
TeI7Ta3,0.4634,-0.0453609,
LiRhTl2,0.0,-0.045359699999999996,
SiZrAu2,0.0,-0.0453587,
Ge3PtTh,0.0,-0.0453581,
SrLa2Pt,0.0,-0.0453557,
NaBa2Pt2,0.0,-0.045355200000000005,
RbAu,0.0606,-0.0453538,
Sb2TeAu,0.0,-0.045353700000000004,
YRhTl,0.0,-0.0453528,
SbTe2Au,0.0,-0.0453506,
RhSn4Au2,0.0,-0.0453498,
ZnZrHg2,0.0,-0.0453457,
CoAsTh,0.0,-0.0453444,
OBrU,0.0,-0.0453444,
Ga2IBi2,0.0,-0.045343299999999996,
CaRhHg2,0.0,-0.045343,
MnBrTh,0.0,-0.0453424,
Cd2HoAu,0.0,-0.0453423,
GeZr2Pt2,0.0,-0.0453423,
Nb2W,0.0,-0.0453408,
Ca2Mg,0.0,-0.045340510833333,mp-1039467
CuLaPb,0.0,-0.0453393,
TiTe4U,0.0,-0.0453391,
ZnDy2Au,0.0,-0.0453388,
ZnTb2Tl,0.0,-0.0453379,
FeBrTh,0.0,-0.0453376,
NiAsTl2,0.0,-0.0453366,
Ge2Th,0.0,-0.0453362,
Ca2SnPt3,0.0,-0.045335799999999996,
BPdPt2,0.0,-0.0453356,
Sr2LaHg2,0.0,-0.045333899999999996,
CaInHg2,0.0,-0.045333799999999994,
ZrTcW,0.0,-0.0453329,
I6Cs2Pa,0.3215,-0.0453324,
Mg2Au2Pb,0.0,-0.0453322,
LiPd2Bi2,0.0,-0.0453299,
NTb3Pt,0.0,-0.0453296,
B4Tm2Ir5,0.0,-0.0453296,
Al3Si2PtTh3,0.0,-0.0453295,
NEuPt,0.0,-0.0453283,
GaPd2Th,0.0,-0.0453277,
SeTe3W2,0.4429,-0.045327599999999996,
Y3Au2,0.0,-0.0453273,
KSnHg2,0.0,-0.0453271,
Pd2SnBi,0.0,-0.0453256,
AlAgTh,0.0,-0.0453253,
Se2AgNp,0.0,-0.0453228,
Pd2Sm3Hg,0.0,-0.045322299999999996,
ScYHg2,0.0,-0.0453222,
Sb3Au,0.0,-0.0453219,
S2Au2Hg,1.1866,-0.0453211,
Al3ZnGe2Pu3,0.0,-0.045320599999999996,
Ga2DyPt2,0.0,-0.0453183,
SnDy3,0.0,-0.0453183,
Al3PdNp2,0.0,-0.045318,
LiP2Pt2U,0.0,-0.045317500000000004,
Se2HgTl,0.0,-0.0453169,
CdInTl,0.0,-0.0453166,
Te3Au,0.0,-0.0453161,
Te2Ho3,0.0,-0.0453159,
GeLaOs,0.0,-0.0453155,
InI2Tl,0.8981,-0.0453141,
NSm3Bi,0.0,-0.0453141,
Rh2TePb,0.0,-0.045313400000000004,
Sb2Ba2Hg,0.0358,-0.0453125,
Ca2SnIr3,0.0,-0.045312399999999996,
MgZrTl2,0.0,-0.0453116,
K2Hg2Tl,0.0,-0.0453112,
Rh2Nd2Hg,0.0,-0.0453097,
AgTm2,0.0,-0.045309199999999994,
CdSnTe4Tl2,0.0502,-0.045308999999999995,
Sn2Er3,0.0,-0.045308799999999996,
Ge2TbAu2,0.0,-0.0453083,
SnHo2,0.0,-0.045308100000000004,
CuPd2Hf3,0.0,-0.045305700000000004,
NiSb2Tm6,0.0,-0.0453056,
PErIr,0.0,-0.0453056,
Rh5Pa,0.0,-0.0453052,
Pd2Ba2Bi,0.0,-0.045304000000000004,
OTb3Ir,0.0,-0.045304000000000004,
HInHf3,0.0,-0.0453011,
AsZr5Pb3,0.0,-0.0453003,
In3Hf2,0.0,-0.0453001,
Ga2TmAu2,0.0,-0.0452997,
Se3SbTl3,0.7785,-0.0452988,
CEr2Hg,0.0,-0.0452983,
SiZn3Pu2,0.0,-0.0452981,
Si2GdOs2,0.0,-0.045298000000000005,
Sc2CsBi2,0.0,-0.045296100000000006,
Rb2Te4Pt3,0.692,-0.045296100000000006,
Ag2Tb2Hg,0.0,-0.0452947,
GePm2Pt,0.0,-0.045294400000000005,
GeSmAu,0.0,-0.0452935,
B2CPt2U,0.0,-0.0452934,
NCl2Th2,0.0,-0.0452932,
KPd2Pb2,0.0,-0.045293,
Be2Au2Bi,0.0,-0.0452925,
ZnTb2Ir,0.0,-0.0452896,
N2LuPa,0.0,-0.0452889,
CrGeIr2,0.0,-0.045288800000000004,
AlRuHfIr,0.0189,-0.0452879,
SrPd2Hg2,0.0,-0.04528649999999999,
Rb2ITl2,0.0,-0.0452859,
P2GdIr2,0.0,-0.045284,
CdI4Au2,0.7535,-0.0452838,
Ag2HoHg,0.0,-0.045282800000000005,
Pd2Ce2Hg,0.0,-0.0452814,
MnGeIr2,0.0,-0.0452807,
SeBrPt2,0.0,-0.0452806,
NDy3Hg,0.0,-0.045278799999999994,
AlGaBi2,0.0,-0.0452765,
Ga2SrIr3,0.0,-0.0452762,
CaPdHg2,0.0,-0.045275300000000004,
NiSbHf2,0.0,-0.0452751,
MnZr2Ir2,0.0,-0.0452748,
SiCuPu,0.0,-0.0452745,
SiTc2Pa,0.0,-0.045274,
Li2Tl2Pb,0.0,-0.045273400000000005,
Se3Au2Tl,0.0,-0.0452721,
CaSn2Ir2,0.0,-0.045272,
OTb3Pt,0.0,-0.045271299999999993,
GaTe3Pt2,0.0,-0.0452693,
CrMnIr2,0.0,-0.045269199999999996,
Ce3Dy,0.0,-0.0452685,
K2Au3,0.0,-0.0452682,
Sm3Dy,0.0,-0.045267800000000004,
TiGeOs2,0.0,-0.045267600000000005,
CaCdAu2,0.0,-0.0452665,
GaIn2Pt2,0.0,-0.0452664,
La3Tm,0.0,-0.0452662,
SiRh2Pa,0.0,-0.045262300000000005,
Te2IAu,0.0,-0.045261,
CdBa2Au,0.0,-0.0452594,
Ga2SrPt3,0.0,-0.0452589,
AlSiHf4,0.0,-0.045258099999999996,
AsRbAu2,0.3464,-0.0452577,
PdEr2,0.0,-0.0452569,
GeCeAu,0.0,-0.0452564,
PPr2Bi,0.0,-0.045256300000000006,
ZnTb2Pt,0.0,-0.0452547,
Sn2Ba2Tl,0.0,-0.0452519,
SiFeNp,0.0,-0.0452518,
Y2AgHg2,0.0,-0.0452503,
Ge3ReTh,0.0,-0.0452502,
LiInTl2,0.0,-0.0452502,
B4Tm2Os5,0.0,-0.0452497,
CrBrTh,0.0,-0.0452494,
CaSn2Pt2,0.0,-0.0452485,
LiSnTh,0.0,-0.0452478,
Al2ZnHf6,0.0,-0.0452462,
MoTe8W3,0.7382,-0.0452459,
Nd3Er,0.0,-0.045245600000000004,
Se2RbAu3,1.0428,-0.0452443,
ZrMoW,0.0,-0.045244,
KSb2Pt2,0.0,-0.0452437,
Ru2In3Hf3,0.0,-0.0452436,
Al2NdAu3,0.0,-0.045242,
Pd2SmHg,0.0,-0.045239600000000005,
As2Dy6Ir,0.0,-0.0452385,
Al3Si2AgPu3,0.0,-0.0452382,
GeTe3Lu4,0.0,-0.045237400000000004,
Se3Pt2Hg,0.0,-0.045237,
BTb3Pb,0.0,-0.0452363,
LiPdTl2,0.0,-0.045234699999999996,
MgRh2Np,0.0,-0.0452344,
LiEu2Au,0.0,-0.0452324,
LiP2Au2Np,0.0,-0.0452303,
I6Cs2AuBi,0.0,-0.045230200000000005,
CoIn2Th,0.0,-0.045229399999999996,
GePm2Ir,0.0,-0.0452293,
CaIn6Ir4,0.0,-0.0452284,
GePt,0.0,-0.0452278,
KBa2Hg2,0.0,-0.045227699999999996,
Al3Si2ReTh3,0.0,-0.0452249,
Pm3Ho,0.0,-0.0452212,
ClSeU,0.0,-0.0452211,
ZnErAu,0.0,-0.045220300000000005,
Ba5Tl,0.0,-0.0452177,
PLa2Bi,0.0,-0.0452176,
SrLa2Os,0.0,-0.0452173,
CuDy2Hg,0.0,-0.045216900000000004,
Sr2BaAu2,0.0,-0.045216299999999994,
SiPd2U,0.0,-0.0452145,
Cd2TbPt,0.0,-0.045213500000000004,
Ru2Pr3Au,0.0,-0.0452129,
As2HgTl,0.0,-0.045212,
GeTmHf,0.0,-0.0452119,
AlInAu2,0.0,-0.0452081,
ZnPd2Pa,0.0,-0.0452076,
CuTe2Tm6,0.0,-0.0452076,
As2BaIr2,0.0,-0.0452074,
Ga2BaPb2,0.0,-0.045206699999999995,
PdSn4Au2,0.0,-0.0452057,
Ni3Ta4,0.0,-0.0452044,
Ga2TbIr2,0.0,-0.0452043,
Al2PrAu3,0.0,-0.0452042,
Ag2Sm2Tl,0.0,-0.0452028,
ITm,0.0,-0.0452027,
ZrInAu,0.4707,-0.0452025,
Rh2LaHg,0.0,-0.0452022,
MgCs4Bi2,0.3206,-0.0452021,
Cu4Au5,0.0,-0.045200899999999995,
PErPt,0.0,-0.0452006,
RhBa3Tl,0.0,-0.0452005,
CuPm2Pb,0.0,-0.0451961,
NaSbAu2,0.0,-0.0451958,
Pd5TlBi,0.0,-0.0451953,
Pd2SbEr5,0.0,-0.0451945,
SbTbHo,0.0,-0.0451944,
As2Dy6Pt,0.0,-0.0451943,
MgPdTh,0.0,-0.045193800000000006,
MgZrPt2,0.0,-0.0451909,
Al2LaAu3,0.0,-0.0451902,
Sr2SnPt2,0.0,-0.0451895,
Ag2SmTl,0.0,-0.0451894,
I3Pt,0.0,-0.0451886,
FeRuHf2,0.0,-0.0451881,
SrBaTl,0.0,-0.0451864,
Pd2CeHg,0.0,-0.0451854,
GaTb2Hg,0.0,-0.0451853,
As2Dy6Os,0.0,-0.0451851,
B2Ir2Hg,0.0,-0.0451815,
NiAsTh,0.0,-0.0451815,
LiMoIr2,0.0,-0.0451806,
Rh2Pr2Hg,0.0,-0.0451799,
AgCdGd2,0.0,-0.0451792,
Mg2Hg2Bi,0.0,-0.045178499999999996,
SiTe4Bi2,0.3384,-0.0451772,
HBrPu,0.0,-0.0451767,
I6Cs2HgBi,0.0,-0.0451753,
PdSn5U,0.0,-0.045174399999999997,
CrMnOs2,0.0,-0.0451725,
MnIr,0.0,-0.0451719,
MnRuHf2,0.0,-0.0451704,
CuTbTl,0.0,-0.045168,
OTb3Os,0.0,-0.045167900000000004,
MgBa2Au2,0.0,-0.0451673,
N2HoNp,0.0,-0.0451667,
YCdPb,0.0,-0.0451665,
MgSrPb2,0.0,-0.045166,
InEr2,0.0,-0.045166,
Zn2YPt3,0.0,-0.0451659,
Ag2Te2Er7,0.0,-0.045165300000000005,
CdSb2Pb,0.0,-0.0451631,
Rh2TbHf,0.0,-0.045162999999999995,
Zr6HfBi2,0.0,-0.045161900000000005,
SbDy2,0.0,-0.0451616,
Rh2In3Hf3,0.0,-0.0451612,
CSnGd3,0.0,-0.045161,
SiSeU,0.0,-0.04516,
CuTb2Au,0.0,-0.0451598,
LiLuPb,0.0,-0.0451592,
Zn2BaBi2,0.0,-0.0451579,
Se2CsTl2,0.0,-0.0451576,
GeDyTa,0.0,-0.0451573,
MgSnAu2,0.0,-0.045156999999999996,
MgPdPt2,0.0,-0.0451549,
Ru2LaTa,0.0,-0.0451543,
CoBrTh,0.0496,-0.0451535,
SiSr2Pt3,0.0,-0.0451515,
GaHoHg,0.0,-0.0451504,
Sb2Gd,0.0,-0.0451498,
AlLuAu,0.0,-0.0451485,
Si2CaRe4,0.0,-0.0451471,
Se2CsTh,0.0,-0.045147,
Y2CdHg2,0.0,-0.045147,
N2TmU,0.0,-0.04514629999999999,
SbNdTm,0.0,-0.0451458,
AsSbGd2,0.0,-0.045144399999999994,
NNd2Bi,0.0,-0.0451434,
Se4PbBi2,0.2008,-0.045143,
VMnIr2,0.0,-0.0451424,
PdLu,0.0,-0.0451421,
SrAg2Au2,0.0,-0.0451417,
CuSb2Tm6,0.0,-0.045141,
NaAgTl2,0.0,-0.0451405,
Rh2La2Hg,0.0,-0.0451405,
Cd2TbIr,0.0,-0.045140099999999996,
Ru2La3Au,0.0,-0.045140099999999996,
NdTb,0.0,-0.04514,
BeZrIr2,0.0,-0.0451396,
Sr2SnIr2,0.0,-0.045139200000000004,
Ge2PmTh,0.0,-0.0451391,
B2Pt2Au,0.0,-0.045138599999999994,
KTbBi,0.0,-0.0451385,
GaTbAu,0.0,-0.0451363,
Ag2CeTl,0.0,-0.0451361,
TeEr,0.0,-0.0451361,
CdInIr,0.0,-0.0451355,
Ga2LuAc,0.0,-0.045134999999999995,
Sn2Hf,0.0,-0.0451337,
YPdTl,0.0,-0.0451336,
Pd2W,0.0,-0.045133200000000005,
ZrTe2Tl,0.0,-0.0451329,
Al3Mn2Pa3,0.0,-0.0451321,
BeSbAu2,0.0,-0.0451295,
RuSn2Ho6,0.0,-0.045128999999999996,
YTe6U,0.0,-0.0451288,
Ru2AgLu3,0.0,-0.0451286,
In2BaTl,0.0,-0.0451275,
Cd5Au3,0.0,-0.0451272,
Rh2Nd3Hg,0.0,-0.045127,
BYPt2,0.0,-0.0451268,
LiBaHg2,0.0,-0.0451267,
SnI2Lu2,0.0,-0.0451252,
ZnTb2Os,0.0,-0.0451243,
Pd2La2Au,0.0,-0.0451241,
CdInPt,0.0,-0.045124000000000004,
Ru2Nd3Hg,0.0,-0.045124000000000004,
GeRh2Ac,0.0,-0.0451239,
SiEuAu,0.0,-0.0451228,
SiCo3U2,0.0,-0.0451195,
KSn2Tl2,0.0,-0.045117899999999996,
Ga2TbPt2,0.0,-0.0451176,
Al2Au3,0.0,-0.0451174,
Co2Ho5Bi,0.0,-0.045116500000000004,
Al3Fe2Pa3,0.0,-0.045116300000000005,
GeCe2Au,0.0,-0.0451162,
TiGeIr2,0.0,-0.0451159,
Ge2PrTh,0.0,-0.0451156,
SbTe3Er4,0.0,-0.0451128,
PNiNp,0.0,-0.0451126,
As2LaAu2,0.0,-0.0451125,
RbTe3HfPt,0.0,-0.045112099999999995,
CCl2Th2,0.0,-0.04511,
AgBa2Hg,0.0,-0.0451094,
I6Cs2Th,2.9364,-0.0451093,
Ag2Ce2Tl,0.0,-0.045109,
AlRuHfOs,0.0,-0.045107100000000004,
BeRhPt2,0.0,-0.0451055,
ZnSm2Pb,0.0,-0.0451051,
InSb2Tl,0.0,-0.045103700000000004,
CaSb2Au2,0.0,-0.0451029,
VOs,0.0,-0.045102699999999996,
SiCoNp,0.0,-0.0451022,
InSn2Pb,0.0,-0.0451016,
NZnTa3,0.0,-0.0451014,
BrPt,0.6791,-0.0451,
NiIn2Th,0.0,-0.0450989,
RhSn2Ho6,0.0,-0.045098,
TeI6Tl2,1.3897,-0.0450959,
RuSnHf,0.0,-0.0450889,
MgInTh,0.0,-0.0450876,
MnGePt2,0.0,-0.045086799999999996,
Fe2SbNp,0.0,-0.0450835,
Sn3LaIr,0.0,-0.0450814,
Ag2PmTl,0.0,-0.0450806,
FeTcHf2,0.0,-0.045079799999999996,
CaRu2Pa,0.0,-0.0450791,
CuBaBi,0.0,-0.045076700000000004,
Ru2GdEr,0.0,-0.045075699999999996,
N2GdTh,0.0,-0.0450731,
GaBrTh,0.0,-0.045072600000000004,
Al3Si2CdPu3,0.0,-0.0450725,
Zr2Ir,0.0,-0.0450724,
LiTm2Ir,0.0,-0.0450721,
Se2IrHg,0.0,-0.0450713,
Sn3NdIr,0.0,-0.0450712,
SiCl2Th2,0.0,-0.0450675,
Pr3Er,0.0,-0.0450674,
GePm2Os,0.0,-0.045067,
CBrU,0.0,-0.0450664,
LiNbIr2,0.0,-0.0450655,
Rh2BaTl,0.0,-0.0450653,
SbPrTm,0.0,-0.045065100000000004,
In2LaHg,0.0,-0.045064900000000005,
CoRuHf2,0.0,-0.045064,
FeLa3Pb,0.0,-0.045064,
CoGd2,0.0,-0.0450627,
SiErIr,0.0,-0.0450621,
B4Er2Ir5,0.0,-0.0450612,
Br2Tm2Pb,0.0,-0.045059800000000004,
Mn2IrPt,0.0,-0.045059199999999994,
TiMnOs2,0.0,-0.0450586,
ScLu3,0.0,-0.0450578,
CrOs,0.0,-0.0450575,
MgCdTl2,0.0,-0.045057299999999995,
As2RhU,0.0,-0.0450569,
Sn3NdPt,0.0,-0.045055700000000004,
Be3Au5,0.0,-0.0450556,
CrIr,0.0,-0.045054699999999996,
SbI2Eu2,0.0,-0.0450544,
CuAsTl2,0.0,-0.045053199999999995,
NiPd2Th,0.0,-0.0450531,
CrTcHf2,0.0,-0.0450525,
Te2Cs2Pt,0.8381,-0.045049599999999995,
MnTcHf2,0.0,-0.0450493,
Se2InU,0.0,-0.0450492,
ScY2Pb2,0.0,-0.045049,
MnOs,0.0,-0.0450483,
Cd2DyAu,0.0,-0.0450476,
Ru2La2Hg,0.0,-0.0450476,
Pd2Nd2Hg,0.0,-0.0450449,
Sn3PrIr,0.0,-0.045043,
NFTb6Tl2,0.0,-0.045042200000000004,
MnGaPa,0.0,-0.0450406,
Ge2AgPu,0.0,-0.0450391,
MnSn2Tm6,0.0,-0.0450389,
SnTeGd,0.0,-0.0450381,
As2AgNp,0.0,-0.0450379,
NaBa2Au2,0.0,-0.045037799999999996,
YInPt,0.0,-0.0450375,
SbTe2Hg,0.0,-0.045036099999999996,
CuErHg,0.0,-0.045035200000000004,
BeCs4Bi2,0.6792,-0.0450351,
Al3Si2AuTh3,0.0,-0.045034700000000004,
B2COs2Pa,0.0,-0.0450345,
ZnTmHg,0.0,-0.045034,
CdGd,0.0,-0.0450336,
MnPt,0.0,-0.0450336,
Ga2TlPb,0.0,-0.0450332,
CDy2Tl,0.0,-0.045032699999999995,
Sn2EuTm,0.0,-0.045030299999999995,
AlRhHfIr,0.0,-0.0450299,
Pd2AgHf2,0.0,-0.045028599999999995,
NaSrPb2,0.0,-0.0450283,
Sn2ErLu,0.0,-0.0450258,
Cr2OsIr,0.0,-0.0450257,
VIr,0.0,-0.0450251,
Y5Tl3,0.0,-0.0450248,
Zr5Hg3,0.0,-0.0450246,
ZnDyTl,0.0,-0.045022599999999996,
Ga3Lu3Au2,0.0,-0.0450212,
B2BaIr3,0.0,-0.045021,
ZnCe2Pb,0.0,-0.0450199,
YInTl,0.0,-0.0450196,
ZnTe2Tm6,0.0,-0.045019199999999995,
SeLa2Hg,0.0,-0.0450189,
CoCeTl,0.0,-0.0450179,
BrLa2Au,0.0,-0.045017800000000004,
Ga2ErAu2,0.0,-0.0450172,
AsCsPb,0.5926,-0.0450171,
AgSnLu2,0.0,-0.045017,
TiMnIr2,0.0,-0.0450167,
ZnCdHg2,0.0,-0.0450166,
Sr2InTl2,0.0,-0.045015,
CrFeIr2,0.0,-0.0450149,
Co2MoTa3,0.0,-0.0450146,
Sb3Ho4,0.0,-0.045013,
Al3FeSn2Th3,0.0,-0.0450129,
MnLa3Pb,0.0,-0.0450127,
MnRhHf2,0.0,-0.045011499999999996,
CSm2Bi,0.0,-0.0450112,
AlZrAu2,0.0,-0.0450102,
BNaPt3,0.0,-0.0450085,
Rb2AuHg,0.0,-0.0450085,
Si2GdPt2,0.0,-0.045007,
Ce3Tb,0.0,-0.045007,
FeGaPa,0.0,-0.045006700000000004,
ZnRh2Th,0.0,-0.045006500000000005,
TeI2Au,0.0,-0.045006500000000005,
SbLaTm,0.0,-0.045006,
Al3Cr2Pa3,0.0,-0.045004800000000005,
CaYAu2,0.0,-0.0450035,
NLa2Bi,0.0,-0.0450029,
GaZr2Ir2,0.0,-0.0450028,
CdTm2,0.0,-0.0450028,
GeNdAu,0.0,-0.045002400000000005,
I3CsTl,0.0,-0.045002,
FeSn2Tm6,0.0,-0.0450014,
ClCs2Hg2,0.0,-0.045000500000000006,
Sm3Tb,0.0,-0.0450001,
Te3Hg,0.0,-0.0449993,
Ga2EuHg2,0.0,-0.044999000000000004,
BDy3Tl,0.0,-0.044996499999999995,
As2Dy6Re,0.0,-0.044995,
RbIn2Hg2,0.0,-0.044993200000000004,
H3IPu2,0.0,-0.0449917,
RhTe2Pt,0.0,-0.0449903,
Pd2NdHg,0.0,-0.0449903,
NTb2Tl,0.0,-0.0449901,
AlCdTh,0.0,-0.0449897,
GaCeIr,0.0,-0.044988999999999994,
Mn2OsIr,0.0,-0.0449886,
CrSn2Tm6,0.0,-0.0449884,
RbSbPb,0.3699,-0.0449878,
Ag2DyHg,0.0,-0.0449872,
CoTcHf2,0.0,-0.0449864,
YRh2Hf2,0.0,-0.0449859,
NPr2Bi,0.0,-0.044985500000000005,
ZnDyPt,0.0,-0.044985500000000005,
Pd2GdTm,0.0,-0.044983199999999994,
SbEr,0.0,-0.0449831,
In2Hg,0.0,-0.0449825,
I4BaPb,2.549,-0.0449823,
CoLa3Pb,0.0,-0.0449808,
NTb3Au,0.0,-0.04498,
B4Er2Os5,0.0,-0.044979399999999996,
Ga2SnBi2,0.0,-0.0449791,
CaSmBi,0.0,-0.0449786,
Sn3LaPt,0.0,-0.0449782,
Ag2NdTl,0.0,-0.0449775,
YInIr,0.0,-0.0449774,
FeRhHf2,0.0,-0.0449773,
Pd5U,0.0,-0.0449769,
Ru2CdLu3,0.0,-0.0449747,
Na2Hg2Bi,0.0,-0.044974400000000005,
K2Au2Hg,0.0,-0.0449711,
RhSnHf,0.0,-0.0449702,
Se2IHgBi,0.7656,-0.0449693,
V2ReOs,0.0,-0.0449692,
Se2PtHg,0.0,-0.044968400000000006,
CdInTe4Tl2,0.0,-0.0449683,
AlEuPt,0.0,-0.044967799999999995,
SnSb2Au,0.0,-0.044967,
ZnSb2Tm6,0.0,-0.0449655,
AsTe2Hf2,0.0,-0.0449648,
Ba5Pt,0.0,-0.0449635,
SrLaHg,0.0,-0.0449623,
As2BaPt2,0.0,-0.044961799999999996,
Pd2SbPb,0.0,-0.0449598,
Al3CoSn2Th3,0.0,-0.0449597,
MgGePu,0.0,-0.0449595,
CaBi,0.0,-0.0449583,
Rh2Pr3Hg,0.0,-0.0449579,
ZnDyIr,0.0,-0.0449564,
CCl5Th4,0.0,-0.0449557,
GaSrAu2,0.0,-0.0449535,
Si2Ta2W,0.0,-0.0449514,
LiMoPt2,0.0,-0.0449514,
AlHo2Tl,0.0,-0.0449504,
AsPd2Ac,0.0,-0.0449499,
NaCdTl2,0.0,-0.0449499,
Zr2Os,0.0,-0.044948,
CrFeOs2,0.0,-0.0449478,
In3Sn2Tm3Pt,0.0,-0.0449463,
Ru2Pr3Hg,0.0,-0.044945,
Al3Er3IrPb2,0.0,-0.044944899999999996,
SbCeEr,0.0,-0.0449445,
AlEuIr,0.0,-0.0449444,
In2Tm3,0.0,-0.044943800000000006,
SrLa3Ir,0.0,-0.0449429,
LiTm2Pt,0.0,-0.0449424,
GaSmIr,0.0,-0.0449424,
CoSn2Tm6,0.0,-0.0449414,
AlRuHfPt,0.0,-0.044941299999999997,
CdBa2Hg,0.0,-0.0449411,
GaSmPt,0.0,-0.0449409,
CGe2Ru2Th2,0.0,-0.0449403,
Sn3PrPt,0.0,-0.044939900000000005,
NbMoTa,0.0,-0.044938200000000005,
GePm2Au,0.0,-0.0449369,
Rh3Bi,0.0,-0.044933799999999996,
NiHoHg,0.0,-0.0449328,
MnFeIr2,0.0,-0.044932,
LiIn2Pu,0.0,-0.0449317,
In2GdTm,0.0,-0.044931,
ZrPd2Hf2,0.0,-0.0449294,
Cd4TlPb,0.0,-0.0449284,
Ag2Tl,0.0,-0.0449261,
RuDy3,0.0,-0.0449259,
Pm3Dy,0.0,-0.044925400000000004,
SiBrU,0.0,-0.0449242,
Pd2Pr2Hg,0.0,-0.0449239,
MgZn2Th2,0.0,-0.0449224,
Rh2CdLu3,0.0,-0.044922199999999995,
SiErPt,0.0,-0.044922,
CoGaPa,0.0,-0.0449218,
Ga2RuLu6,0.0,-0.044921300000000004,
Nd3Ho,0.0,-0.04492,
Zr2SbBi,0.0,-0.0449185,
SiTmRe,0.0,-0.0449173,
SbSmEr,0.0,-0.0449162,
Pd2CdHf2,0.0,-0.0449144,
InLu,0.0,-0.0449142,
NInGd3,0.0,-0.0449127,
GePrAu,0.0,-0.0449118,
ZrAgTl,0.0,-0.044911700000000006,
Ni3GePa2,0.0,-0.0449115,
BeZrPt2,0.0,-0.0449115,
HI2Pa,0.0,-0.0449115,
LiTm2Tl,0.0,-0.044910200000000004,
PdSbHf,0.0,-0.0449101,
Ag2PrTl,0.0,-0.044909700000000004,
Li3Bi2U,0.0,-0.0449095,
SiErOs,0.0,-0.044909399999999995,
SrCd2Au2,0.0,-0.044909,
BrBa2Pb,0.0,-0.0449064,
In2BaPt,0.0,-0.0449058,
MgSb2Tl2,0.0,-0.0449047,
SiYAu2,0.0,-0.0449047,
I3Au,0.2178,-0.0449046,
NaInPt2,0.0,-0.0449026,
RbTe3HfAu,0.0,-0.0449026,
I8Cs2Hg3,1.5997,-0.0449024,
OTb3Au,0.0,-0.0449024,
Ge2SmAu2,0.0,-0.0449022,
Te4Ho5,0.0,-0.0449021,
Pd2PrHg,0.0,-0.044901699999999996,
Ga3Rh2Th2,0.0,-0.0449007,
Mg2BiAc,0.0,-0.044899999999999995,
GaCePt,0.0,-0.0448997,
Ga2RhLu6,0.0,-0.0448971,
SnTe3Er4,0.0,-0.044896900000000003,
La3Er,0.0,-0.044893300000000004,
NaSnAu2,0.0,-0.0448921,
LiTm2Os,0.0,-0.044890700000000006,
NiBrTh,0.0,-0.0448903,
Rh2La3Hg,0.0,-0.0448897,
GeLaAu,0.0,-0.0448895,
ZnPm2Pb,0.0,-0.0448887,
Ge2CeAu2,0.0,-0.0448879,
Pd2La2Hg,0.0,-0.044887300000000005,
CuSbHf2,0.0,-0.0448849,
MnGeTh,0.0,-0.0448847,
VMnPt2,0.0,-0.0448843,
BeCaAu3,0.0,-0.0448842,
CSi2Mo2Np2,0.0,-0.0448831,
ZnDy2Hg,0.0,-0.0448823,
As2CdI4Hg4,0.6401,-0.0448823,
Rh2Ba2Pb,0.0,-0.0448819,
TiOs,0.0,-0.0448816,
LiP2Pt2Pa,0.0,-0.0448804,
NaAg2Bi2,0.0,-0.044875,
NiSn2Tm6,0.0,-0.0448746,
Pd2BaTl,0.0,-0.0448746,
N6Ta2Th3,0.0,-0.044872300000000004,
ScBaBi,0.0,-0.044872100000000005,
SrRh3Tl2,0.0,-0.0448709,
AlRu2Pa,0.0,-0.0448705,
MnFeOs2,0.0,-0.044869900000000004,
In2SbPb,0.0,-0.0448691,
RhDy3,0.0,-0.044868899999999996,
Ag2LaTl,0.0,-0.0448688,
ZnYHg2,0.0,-0.0448687,
Pd5Hf3,0.0,-0.0448683,
Cr2IrPt,0.0,-0.044868200000000004,
AgSn4Au2,0.0,-0.044867199999999996,
SrLa2Au,0.0,-0.044866300000000005,
Pd2LaHg,0.0,-0.0448662,
Ru2La3Hg,0.0,-0.0448659,
Se2HfTl,0.0,-0.0448653,
Zr2Tl,0.0,-0.0448633,
NbSbHf,0.0,-0.044861899999999996,
H2CU2,0.0,-0.0448612,
SeRbHg2,1.0685,-0.0448608,
BCdPt2,0.0,-0.0448587,
C2ClTh2,0.0,-0.044857799999999996,
PHoIr,0.0,-0.0448566,
Ag2Nd2Tl,0.0,-0.044856099999999996,
LiEu2Hg,0.0,-0.044855,
Fe2InPu,0.0,-0.0448549,
Zr3CdIr2,0.0,-0.044854599999999994,
Pd7Tl3,0.0,-0.0448545,
YTe2Tl,0.2606,-0.0448541,
Ni2SrIr3,0.0,-0.0448536,
Mg2LuBi2,0.0,-0.0448534,
Sn3Tl,0.0,-0.0448529,
ZrSnTa,0.0,-0.044852699999999995,
B2Pt2Hg,0.0,-0.0448525,
N2DyNp,0.0,-0.0448523,
AsBaTl,0.9754,-0.0448518,
FeGeTh,0.0,-0.044851,
Zr2Pt,0.0,-0.044850799999999996,
ZnSrIr2,0.0,-0.0448493,
InSnEu2,0.0,-0.0448489,
SrLa3Os,0.0,-0.0448482,
LiSbAu2,0.0,-0.044846899999999995,
Co2Pa,0.0,-0.0448459,
Mn2ReIr,0.0,-0.0448459,
MgRu2U,0.0,-0.044844,
Sb2Cs2Tl,0.0,-0.0448405,
RuTe2Dy6,0.0,-0.0448405,
MgYTl2,0.0,-0.0448389,
In2La2Hg,0.0,-0.0448383,
GeRbAu2,0.0,-0.0448377,
Na2Au2Pb,0.0,-0.044837600000000005,
NaTe2Th,0.0,-0.0448373,
ZrRhHg,0.0,-0.0448365,
B2CPt2Pa,0.0,-0.044836100000000004,
P2LuOs2,0.0,-0.044834200000000005,
NSSm6Pb2,0.0,-0.044834000000000006,
In2BaIr,0.0,-0.0448288,
MgEr2Tl,0.0,-0.044828400000000004,
CoRhHf2,0.0,-0.044826700000000004,
C3Mo2Np2,0.0,-0.0448266,
SbTbDy,0.0,-0.044825000000000004,
Na2PtTl2,0.0,-0.0448244,
Mg2IrTh,0.0,-0.044824199999999995,
NSm3Pb,0.0,-0.0448219,
Ge2PdNp,0.0,-0.0448206,
As2CsTl2,0.0,-0.044820399999999996,
NCe3Pb,0.0,-0.0448176,
RhTe2Dy6,0.0,-0.0448172,
B4Ho2Ir5,0.0,-0.0448172,
ClInHg2,0.0,-0.0448162,
FeOs,0.0,-0.044815100000000004,
TiZr2Ir2,0.0,-0.044811,
Ag2BaPb,0.0,-0.0448104,
GeTbTa,0.0,-0.0448099,
Si4Tm3Ir4,0.0,-0.0448095,
ZnTb2Au,0.0,-0.0448083,
Nb5U,0.0,-0.0448079,
N2CePu,0.0,-0.0448058,
ZnLaPb,0.0,-0.0448048,
AlTc2Pa,0.0,-0.0448041,
SiNiNp,0.0,-0.0448035,
Ba5Ir,0.0,-0.044802,
Te3Ta,0.0,-0.0447992,
VRe,0.0,-0.0447986,
TiFeIr2,0.0,-0.044797800000000006,
NaCsHg2,0.0,-0.044796100000000005,
CaSrTl2,0.0,-0.0447958,
Cd2TbAu,0.0,-0.0447958,
Mg2EuBi2,0.0,-0.044795,
VGaOs2,0.0,-0.044793799999999995,
CrCoOs2,0.0,-0.0447932,
N2SmPu,0.0,-0.0447926,
As2PdU,0.0,-0.044792099999999994,
AsLa2Hg,0.0,-0.0447906,
Sc4Ru2Tl5,0.0,-0.0447894,
MnGaOs2,0.0,-0.044788800000000004,
Ag4HgPb,0.0,-0.0447882,
Mg2PtTh,0.0,-0.0447877,